/*--------------------------------*- C++ -*----------------------------------*\
| =========                 |                                                 |
| \\      /  F ield         | OpenFOAM: The Open Source CFD Toolbox           |
|  \\    /   O peration     | Version:  v1912                                 |
|   \\  /    A nd           | Website:  www.openfoam.com                      |
|    \\/     M anipulation  |                                                 |
\*---------------------------------------------------------------------------*/
FoamFile
{
    version     2.0;
    format      ascii;
    class       volSymmTensorField;
    location    "50";
    object      R;
}
// * * * * * * * * * * * * * * * * * * * * * * * * * * * * * * * * * * * * * //

dimensions      [0 2 -2 0 0 0 0];


internalField   nonuniform List<symmTensor> 
14268
(
(6.43278e-10 1.54059e-11 0 5.15575e-10 0 5.79269e-10)
(6.03095e-10 1.29251e-11 0 4.77656e-10 0 5.40212e-10)
(5.51569e-10 1.03247e-11 0 4.32306e-10 0 4.91795e-10)
(4.95093e-10 7.89735e-12 0 3.85296e-10 0 4.40013e-10)
(4.29992e-10 5.72823e-12 0 3.32168e-10 0 3.80822e-10)
(3.35649e-10 3.82623e-12 0 2.546e-10 0 2.9489e-10)
(2.73941e-10 2.64252e-12 0 2.03531e-10 0 2.38316e-10)
(3.06743e-10 6.86491e-13 0 2.33572e-10 0 2.69804e-10)
(1.35389e-08 4.34598e-10 0 1.0231e-08 0 1.18731e-08)
(1.27103e-08 3.62401e-10 0 9.4336e-09 0 1.10597e-08)
(1.16715e-08 2.87496e-10 0 8.50543e-09 0 1.00772e-08)
(1.05718e-08 2.18786e-10 0 7.57933e-09 0 9.06384e-09)
(9.29448e-09 1.58254e-10 0 6.54002e-09 0 7.90452e-09)
(7.30615e-09 1.05476e-10 0 4.9548e-09 0 6.11944e-09)
(5.91425e-09 6.95299e-11 0 3.87377e-09 0 4.87507e-09)
(6.63715e-09 5.6877e-13 0 4.56257e-09 0 5.56338e-09)
(3.98987e-08 5.0388e-10 0 2.91563e-08 0 3.453e-08)
(3.86318e-08 5.182e-10 0 2.7543e-08 0 3.3089e-08)
(3.69023e-08 5.26492e-10 0 2.56031e-08 0 3.12542e-08)
(3.49141e-08 5.21144e-10 0 2.35703e-08 0 2.9228e-08)
(3.22687e-08 4.96055e-10 0 2.10672e-08 0 2.66439e-08)
(2.73147e-08 4.31842e-10 0 1.67615e-08 0 2.20093e-08)
(2.34012e-08 3.04111e-10 0 1.34208e-08 0 1.84174e-08)
(2.50324e-08 -3.52632e-11 0 1.48111e-08 0 2.00931e-08)
(5.77484e-08 2.30138e-10 0 4.18851e-08 0 4.97825e-08)
(5.75794e-08 3.06e-10 0 4.0716e-08 0 4.91026e-08)
(5.71938e-08 3.98616e-10 0 3.92217e-08 0 4.81615e-08)
(5.66905e-08 4.9979e-10 0 3.74784e-08 0 4.70382e-08)
(5.56877e-08 5.90438e-10 0 3.52997e-08 0 4.5423e-08)
(5.25467e-08 7.11485e-10 0 3.06387e-08 0 4.14951e-08)
(4.87211e-08 6.04946e-10 0 2.67557e-08 0 3.7465e-08)
(4.9942e-08 -2.85269e-10 0 2.92385e-08 0 3.91199e-08)
(6.40112e-08 -2.6444e-11 0 4.64707e-08 0 5.51966e-08)
(6.47752e-08 8.7542e-11 0 4.54067e-08 0 5.50454e-08)
(6.52498e-08 1.86337e-10 0 4.44941e-08 0 5.48239e-08)
(6.59251e-08 3.14834e-10 0 4.33668e-08 0 5.45473e-08)
(6.65935e-08 4.71582e-10 0 4.18721e-08 0 5.41107e-08)
(6.70942e-08 6.641e-10 0 3.86129e-08 0 5.2731e-08)
(6.71224e-08 5.51694e-10 0 3.49276e-08 0 5.09638e-08)
(6.67819e-08 -3.33291e-10 0 3.55376e-08 0 5.13803e-08)
(6.59824e-08 -1.5336e-10 0 4.77472e-08 0 5.6821e-08)
(6.69294e-08 -6.40319e-11 0 4.70852e-08 0 5.69445e-08)
(6.80693e-08 5.71174e-11 0 4.62281e-08 0 5.70855e-08)
(6.92487e-08 1.83162e-10 0 4.5323e-08 0 5.72296e-08)
(7.07936e-08 3.5911e-10 0 4.42916e-08 0 5.74661e-08)
(7.38963e-08 5.57744e-10 0 4.2015e-08 0 5.78138e-08)
(7.62288e-08 5.19487e-10 0 4.00965e-08 0 5.78411e-08)
(7.40415e-08 -7.70792e-10 0 4.19444e-08 0 5.75679e-08)
(6.65841e-08 -2.05368e-10 0 4.80634e-08 0 5.72884e-08)
(6.75936e-08 -1.23877e-10 0 4.74561e-08 0 5.74848e-08)
(6.88485e-08 -1.50661e-11 0 4.67827e-08 0 5.77584e-08)
(7.02875e-08 9.80907e-11 0 4.61418e-08 0 5.81248e-08)
(7.24543e-08 2.4351e-10 0 4.52413e-08 0 5.87277e-08)
(7.6809e-08 4.69293e-10 0 4.3529e-08 0 5.99848e-08)
(8.04522e-08 4.50398e-10 0 4.20057e-08 0 6.09839e-08)
(7.73037e-08 -8.9711e-10 0 4.27946e-08 0 6.00448e-08)
(6.67244e-08 -2.32437e-10 0 4.81618e-08 0 5.74066e-08)
(6.77775e-08 -1.55926e-10 0 4.76099e-08 0 5.76431e-08)
(6.91404e-08 -4.6941e-11 0 4.68914e-08 0 5.79682e-08)
(7.06225e-08 7.88817e-11 0 4.63019e-08 0 5.83856e-08)
(7.294e-08 1.78818e-10 0 4.55051e-08 0 5.91148e-08)
(7.79519e-08 4.07014e-10 0 4.39651e-08 0 6.08198e-08)
(8.24204e-08 3.6088e-10 0 4.29647e-08 0 6.24141e-08)
(7.92204e-08 -9.77866e-10 0 4.39875e-08 0 6.13833e-08)
(6.67684e-08 -2.4725e-10 0 4.82339e-08 0 5.74467e-08)
(6.78333e-08 -1.69919e-10 0 4.76461e-08 0 5.76851e-08)
(6.91634e-08 -6.94296e-11 0 4.69729e-08 0 5.80137e-08)
(7.0729e-08 6.26868e-11 0 4.63139e-08 0 5.84587e-08)
(7.30886e-08 1.6779e-10 0 4.55753e-08 0 5.92323e-08)
(7.83919e-08 3.77429e-10 0 4.42389e-08 0 6.11555e-08)
(8.32961e-08 3.15988e-10 0 4.32127e-08 0 6.30226e-08)
(7.98906e-08 -9.60313e-10 0 4.40781e-08 0 6.18489e-08)
(6.67436e-08 -2.51196e-10 0 4.81e-08 0 5.74164e-08)
(6.78226e-08 -1.73757e-10 0 4.75627e-08 0 5.767e-08)
(6.91842e-08 -6.804e-11 0 4.69517e-08 0 5.80235e-08)
(7.07702e-08 3.60947e-11 0 4.63753e-08 0 5.84919e-08)
(7.31748e-08 1.60122e-10 0 4.56577e-08 0 5.9295e-08)
(7.86014e-08 3.27454e-10 0 4.43643e-08 0 6.13046e-08)
(8.37331e-08 2.94311e-10 0 4.34649e-08 0 6.3326e-08)
(8.01527e-08 -9.33673e-10 0 4.41364e-08 0 6.20365e-08)
(6.68194e-08 -2.89746e-10 0 4.83715e-08 0 5.74908e-08)
(6.78863e-08 -2.04516e-10 0 4.77952e-08 0 5.77326e-08)
(6.92471e-08 -8.23045e-11 0 4.71061e-08 0 5.80719e-08)
(7.07986e-08 1.84256e-11 0 4.64747e-08 0 5.85204e-08)
(7.319e-08 1.43559e-10 0 4.56737e-08 0 5.93078e-08)
(7.86505e-08 3.04586e-10 0 4.43496e-08 0 6.13384e-08)
(8.39005e-08 2.56262e-10 0 4.36465e-08 0 6.34503e-08)
(8.02781e-08 -9.25469e-10 0 4.44961e-08 0 6.21617e-08)
(6.67333e-08 -3.67876e-10 0 4.80205e-08 0 5.74e-08)
(6.7811e-08 -2.43257e-10 0 4.74502e-08 0 5.76473e-08)
(6.91684e-08 -7.54503e-11 0 4.67778e-08 0 5.79898e-08)
(7.07227e-08 4.36117e-11 0 4.61968e-08 0 5.84493e-08)
(7.31355e-08 1.80613e-10 0 4.55086e-08 0 5.92646e-08)
(7.86417e-08 3.56406e-10 0 4.42709e-08 0 6.13303e-08)
(8.38964e-08 2.87452e-10 0 4.3484e-08 0 6.344e-08)
(8.0256e-08 -9.82564e-10 0 4.42579e-08 0 6.213e-08)
(6.69401e-08 -1.28875e-09 0 4.79315e-08 0 5.74624e-08)
(6.79984e-08 -1.07463e-09 0 4.74031e-08 0 5.77082e-08)
(6.93274e-08 -7.93045e-10 0 4.67971e-08 0 5.80508e-08)
(7.08908e-08 -5.9674e-10 0 4.62386e-08 0 5.85194e-08)
(7.33253e-08 -4.85685e-10 0 4.5536e-08 0 5.93442e-08)
(7.88507e-08 -3.92862e-10 0 4.42909e-08 0 6.14169e-08)
(8.41681e-08 -6.41539e-10 0 4.34066e-08 0 6.35469e-08)
(8.04768e-08 -1.41134e-09 0 4.42765e-08 0 6.2225e-08)
(6.74885e-08 -2.61772e-09 0 4.8402e-08 0 5.77645e-08)
(6.8485e-08 -2.31741e-09 0 4.78155e-08 0 5.79711e-08)
(6.96726e-08 -1.69338e-09 0 4.71748e-08 0 5.82368e-08)
(7.10151e-08 -1.08793e-09 0 4.66239e-08 0 5.86093e-08)
(7.3318e-08 -6.8756e-10 0 4.58947e-08 0 5.93686e-08)
(7.89847e-08 -7.6579e-10 0 4.45434e-08 0 6.15051e-08)
(8.44672e-08 -1.16604e-09 0 4.37886e-08 0 6.37218e-08)
(8.11109e-08 -2.88142e-09 0 4.44704e-08 0 6.25136e-08)
(6.72165e-08 -2.21591e-09 0 4.80581e-08 0 5.76056e-08)
(6.84566e-08 -2.31891e-09 0 4.74511e-08 0 5.79039e-08)
(6.98889e-08 -2.56922e-09 0 4.68365e-08 0 5.83077e-08)
(7.16426e-08 -2.28447e-09 0 4.61195e-08 0 5.88254e-08)
(7.41932e-08 -2.30751e-09 0 4.53161e-08 0 5.97258e-08)
(7.90893e-08 -4.97467e-10 0 4.41702e-08 0 6.15387e-08)
(8.3977e-08 1.01038e-10 0 4.34935e-08 0 6.35281e-08)
(8.13584e-08 -3.2789e-09 0 4.41343e-08 0 6.26007e-08)
(6.67198e-08 -1.7973e-10 0 4.81978e-08 0 5.7452e-08)
(6.78534e-08 -2.83162e-10 0 4.75659e-08 0 5.7708e-08)
(6.93752e-08 -9.65609e-10 0 4.68878e-08 0 5.81182e-08)
(7.11861e-08 -1.11875e-09 0 4.62731e-08 0 5.86679e-08)
(7.40326e-08 -2.32073e-09 0 4.57166e-08 0 5.9716e-08)
(7.95628e-08 -1.24324e-09 0 4.4541e-08 0 6.1808e-08)
(8.40036e-08 2.24166e-10 0 4.42386e-08 0 6.36042e-08)
(8.06911e-08 -1.3194e-09 0 4.43877e-08 0 6.23045e-08)
(6.67843e-08 -2.72078e-10 0 4.83935e-08 0 5.74947e-08)
(6.79207e-08 -3.07013e-10 0 4.78152e-08 0 5.77596e-08)
(6.92932e-08 -5.73574e-10 0 4.71582e-08 0 5.81145e-08)
(7.09537e-08 -8.21934e-10 0 4.65259e-08 0 5.86091e-08)
(7.3889e-08 -2.31265e-09 0 4.57164e-08 0 5.96532e-08)
(8.00152e-08 -3.04216e-09 0 4.44276e-08 0 6.20439e-08)
(8.59248e-08 -4.05658e-09 0 4.32706e-08 0 6.45622e-08)
(8.08188e-08 -1.00598e-09 0 4.41012e-08 0 6.23418e-08)
(6.67039e-08 -3.02481e-10 0 4.81871e-08 0 5.74317e-08)
(6.77668e-08 -2.66358e-10 0 4.76475e-08 0 5.76783e-08)
(6.91624e-08 -3.0682e-10 0 4.70538e-08 0 5.80464e-08)
(7.07596e-08 -3.58743e-10 0 4.65039e-08 0 5.85295e-08)
(7.34095e-08 -1.18098e-09 0 4.5836e-08 0 5.94607e-08)
(7.96981e-08 -2.66089e-09 0 4.4585e-08 0 6.19296e-08)
(8.61194e-08 -4.04142e-09 0 4.40593e-08 0 6.47152e-08)
(8.10716e-08 -7.82488e-10 0 4.43682e-08 0 6.24815e-08)
(6.66866e-08 -3.8799e-10 0 4.81039e-08 0 5.74007e-08)
(6.76982e-08 -3.33334e-10 0 4.75158e-08 0 5.76217e-08)
(6.90422e-08 -2.72407e-10 0 4.68071e-08 0 5.79545e-08)
(7.05754e-08 -2.2546e-10 0 4.62107e-08 0 5.84085e-08)
(7.30562e-08 -6.89882e-10 0 4.54844e-08 0 5.92564e-08)
(7.90973e-08 -2.02837e-09 0 4.43436e-08 0 6.16284e-08)
(8.5771e-08 -3.72108e-09 0 4.36272e-08 0 6.45e-08)
(8.14644e-08 -1.55751e-09 0 4.41033e-08 0 6.2687e-08)
(6.68006e-08 -4.77888e-10 0 4.84603e-08 0 5.74985e-08)
(6.78924e-08 -4.213e-10 0 4.79425e-08 0 5.77567e-08)
(6.92091e-08 -3.41753e-10 0 4.73444e-08 0 5.80972e-08)
(7.07054e-08 -2.46705e-10 0 4.68056e-08 0 5.85449e-08)
(7.30801e-08 -4.95667e-10 0 4.61064e-08 0 5.93472e-08)
(7.88208e-08 -1.56352e-09 0 4.49417e-08 0 6.15658e-08)
(8.52439e-08 -2.64868e-09 0 4.43176e-08 0 6.4273e-08)
(8.16818e-08 -1.41483e-09 0 4.44534e-08 0 6.28096e-08)
(6.66207e-08 -3.54892e-10 0 4.79733e-08 0 5.7345e-08)
(6.76451e-08 -2.52692e-10 0 4.73798e-08 0 5.75681e-08)
(6.90006e-08 -1.10289e-10 0 4.67123e-08 0 5.79108e-08)
(7.04897e-08 8.54714e-11 0 4.61494e-08 0 5.83552e-08)
(7.27941e-08 1.06319e-10 0 4.54502e-08 0 5.9133e-08)
(7.83061e-08 -6.28066e-10 0 4.42688e-08 0 6.12482e-08)
(8.4706e-08 -1.67768e-09 0 4.34318e-08 0 6.39102e-08)
(8.14389e-08 -8.47235e-10 0 4.40241e-08 0 6.26419e-08)
(6.68027e-08 -1.53783e-11 0 4.82961e-08 0 5.74978e-08)
(6.77435e-08 1.42593e-11 0 4.77284e-08 0 5.7674e-08)
(6.90655e-08 1.92563e-12 0 4.70314e-08 0 5.7965e-08)
(7.05465e-08 -2.20002e-10 0 4.64684e-08 0 5.8369e-08)
(7.26448e-08 -4.41033e-10 0 4.5903e-08 0 5.90604e-08)
(7.77853e-08 -1.07961e-09 0 4.48616e-08 0 6.10757e-08)
(8.36021e-08 7.92527e-10 0 4.40148e-08 0 6.34145e-08)
(8.10928e-08 2.32018e-09 0 4.44829e-08 0 6.25199e-08)
(8.1251e-08 1.75214e-08 0 6.00297e-08 0 6.64433e-08)
(8.04386e-08 1.71723e-08 0 5.83481e-08 0 6.54893e-08)
(7.9349e-08 1.614e-08 0 5.52176e-08 0 6.42892e-08)
(7.83112e-08 1.38927e-08 0 5.14148e-08 0 6.3089e-08)
(7.81244e-08 1.126e-08 0 4.81692e-08 0 6.22923e-08)
(8.09679e-08 8.96564e-09 0 4.60011e-08 0 6.28702e-08)
(8.53065e-08 6.46039e-09 0 4.44015e-08 0 6.41654e-08)
(8.08233e-08 2.6605e-09 0 4.38541e-08 0 6.22476e-08)
(2.38722e-07 3.45485e-08 0 2.26806e-10 0 1.61496e-07)
(2.15782e-07 3.46561e-08 0 1e-15 0 1.47817e-07)
(2.06709e-07 3.59429e-08 0 1e-15 0 1.42159e-07)
(2.01405e-07 3.74125e-08 0 1e-15 0 1.38514e-07)
(1.92967e-07 3.76937e-08 0 1e-15 0 1.32935e-07)
(1.73135e-07 3.58593e-08 0 1e-15 0 1.19691e-07)
(1.39913e-07 3.22985e-08 0 1e-15 0 9.89961e-08)
(9.33897e-08 2.11977e-08 0 1e-15 0 7.16347e-08)
(6.18438e-07 3.45694e-08 0 1e-15 0 4.60181e-07)
(9.31267e-07 -1.57134e-08 0 1e-15 0 6.79688e-07)
(1.48974e-06 -1.10948e-07 0 1e-15 0 1.06908e-06)
(2.45573e-06 -2.84389e-07 0 1e-15 0 1.7337e-06)
(4.01778e-06 -6.15596e-07 0 1e-15 0 2.78731e-06)
(6.03191e-06 -1.18536e-06 0 1e-15 0 4.12034e-06)
(8.29273e-06 -2.03276e-06 0 1e-15 0 5.59998e-06)
(1.0549e-05 -2.76701e-06 0 1e-15 0 7.1251e-06)
(4.40527e-05 -1.4437e-05 0 1e-15 0 2.90596e-05)
(5.48447e-05 -1.88806e-05 0 1e-15 0 3.61405e-05)
(6.62046e-05 -2.33546e-05 0 1e-15 0 4.37103e-05)
(7.97382e-05 -2.77964e-05 0 1e-15 0 5.27925e-05)
(9.68368e-05 -3.21519e-05 0 1e-15 0 6.42384e-05)
(0.000119604 -3.74477e-05 0 1e-15 0 7.92967e-05)
(0.000142304 -4.27169e-05 0 1e-15 0 9.43924e-05)
(0.00014765 -4.14248e-05 0 1e-15 0 9.78071e-05)
(3.3668e-05 -1.0639e-05 0 1e-15 0 2.34157e-05)
(3.96267e-05 -1.16159e-05 0 1e-15 0 2.78534e-05)
(4.3482e-05 -9.87523e-06 0 1e-15 0 3.12714e-05)
(4.41343e-05 -4.7503e-06 0 1e-15 0 3.30864e-05)
(4.28965e-05 -1.11693e-06 0 1e-15 0 3.32235e-05)
(4.22268e-05 2.54791e-06 0 1e-15 0 3.35266e-05)
(3.7945e-05 6.21243e-06 0 1e-15 0 3.08113e-05)
(3.45762e-05 3.25999e-05 0 1e-15 0 4.75049e-05)
(0.00240756 -0.00016735 0 1e-15 0 0.00220769)
(0.00581756 0.000336424 0 1e-15 0 0.0051771)
(0.0202466 0.00544339 0 1e-15 0 0.0170641)
(0.0905911 0.0669173 0 1e-15 0 0.0739104)
(0.107639 0.102953 0 1e-15 0 0.088115)
(0.117794 0.105678 0 1e-15 0 0.0953128)
(0.136662 0.104462 0 1e-15 0 0.107905)
(0.165594 0.117233 0 1e-15 0 0.127897)
(0.184343 0.128033 0 1e-15 0 0.156285)
(0.304348 0.129768 0 1e-15 0 0.236223)
(0.453199 0.140285 0 1e-15 0 0.329826)
(0.60112 0.185359 0 0.205882 0 0.423333)
(0.706811 0.226235 0 0.271081 0 0.491604)
(0.770843 0.248527 0 0.285333 0 0.531536)
(0.785914 0.253334 0 0.280591 0 0.539456)
(0.763012 0.247533 0 0.26189 0 0.523332)
(0.350378 0.128836 0 0.133773 0 0.270826)
(0.420035 0.136197 0 0.154538 0 0.313356)
(0.479234 0.145454 0 0.184084 0 0.349681)
(0.517735 0.155899 0 0.222506 0 0.375552)
(0.544464 0.164198 0 0.240783 0 0.394031)
(0.566363 0.169791 0 0.242892 0 0.406285)
(0.572441 0.169896 0 0.238175 0 0.4077)
(0.567462 0.167963 0 0.227591 0 0.401712)
(0.474691 0.167845 0 0.210476 0 0.347192)
(0.512395 0.173512 0 0.224269 0 0.369164)
(0.535773 0.174097 0 0.23597 0 0.382166)
(0.548555 0.174269 0 0.242532 0 0.389892)
(0.55576 0.17601 0 0.242868 0 0.394585)
(0.556417 0.176243 0 0.239804 0 0.394545)
(0.54648 0.17132 0 0.231347 0 0.386536)
(0.519398 0.161957 0 0.217949 0 0.36792)
(0.449541 0.154787 0 0.206034 0 0.326064)
(0.466449 0.154995 0 0.20708 0 0.334555)
(0.474239 0.1542 0 0.20816 0 0.338827)
(0.476369 0.154108 0 0.210678 0 0.340967)
(0.475694 0.154256 0 0.212788 0 0.341355)
(0.470983 0.153523 0 0.212089 0 0.338687)
(0.458328 0.149247 0 0.205828 0 0.329907)
(0.433533 0.140915 0 0.19611 0 0.313355)
(0.412592 0.144248 0 0.192594 0 0.297919)
(0.418005 0.141921 0 0.192665 0 0.300029)
(0.418698 0.138577 0 0.192228 0 0.29995)
(0.417882 0.136989 0 0.1921 0 0.299802)
(0.415422 0.136648 0 0.19177 0 0.299048)
(0.409616 0.135968 0 0.190267 0 0.296011)
(0.399134 0.133005 0 0.185784 0 0.289121)
(0.380735 0.128074 0 0.179782 0 0.27753)
(0.358646 0.125707 0 0.166286 0 0.258401)
(0.361805 0.12415 0 0.164752 0 0.259744)
(0.362574 0.12292 0 0.164905 0 0.260495)
(0.362104 0.122804 0 0.16702 0 0.26136)
(0.360036 0.122947 0 0.16913 0 0.261237)
(0.355861 0.122972 0 0.170241 0 0.259664)
(0.348079 0.121294 0 0.168678 0 0.25518)
(0.335897 0.118076 0 0.16607 0 0.247824)
(0.305712 0.108874 0 0.144642 0 0.220829)
(0.309035 0.107784 0 0.145362 0 0.222762)
(0.310906 0.106901 0 0.146551 0 0.224311)
(0.31258 0.107318 0 0.14868 0 0.226416)
(0.312543 0.108468 0 0.150925 0 0.227783)
(0.311217 0.109368 0 0.152311 0 0.228027)
(0.308468 0.109478 0 0.152168 0 0.226819)
(0.302532 0.108949 0 0.151529 0 0.223738)
(0.256565 0.0923791 0 0.120686 0 0.185436)
(0.26179 0.0930411 0 0.122305 0 0.189079)
(0.265975 0.0938386 0 0.124866 0 0.192466)
(0.270063 0.0954602 0 0.128594 0 0.19632)
(0.272483 0.0972568 0 0.132354 0 0.199238)
(0.274143 0.0990379 0 0.135394 0 0.201479)
(0.273961 0.100161 0 0.137219 0 0.202203)
(0.271405 0.100395 0 0.138074 0 0.201253)
(0.211956 0.0770924 0 0.101515 0 0.153483)
(0.218753 0.0784505 0 0.104477 0 0.158282)
(0.224759 0.0799773 0 0.107711 0 0.162845)
(0.230929 0.0823749 0 0.11169 0 0.167974)
(0.235469 0.0848688 0 0.115384 0 0.17211)
(0.239444 0.0872709 0 0.118666 0 0.175712)
(0.242087 0.0893573 0 0.120762 0 0.178162)
(0.241978 0.0907755 0 0.122355 0 0.178876)
(0.171819 0.0631497 0 0.0815338 0 0.124424)
(0.179906 0.0655262 0 0.0851517 0 0.130258)
(0.18731 0.0678668 0 0.089056 0 0.135779)
(0.19501 0.0708623 0 0.0937794 0 0.141851)
(0.200958 0.0736126 0 0.0979905 0 0.146715)
(0.206263 0.0763166 0 0.101707 0 0.15108)
(0.210122 0.0786525 0 0.104558 0 0.154296)
(0.211053 0.0801743 0 0.106264 0 0.155537)
(0.135337 0.04979 0 0.0648499 0 0.0979115)
(0.143965 0.0524627 0 0.0687698 0 0.104087)
(0.15197 0.0551296 0 0.0726027 0 0.109926)
(0.160346 0.0584305 0 0.0770626 0 0.116322)
(0.166857 0.0613286 0 0.080756 0 0.121367)
(0.172755 0.0641096 0 0.0842111 0 0.125962)
(0.177321 0.0666226 0 0.0868334 0 0.129525)
(0.179034 0.0683401 0 0.0885314 0 0.131159)
(0.102326 0.0379164 0 0.0483582 0 0.0739263)
(0.110901 0.0407941 0 0.0523589 0 0.0800852)
(0.118814 0.0435012 0 0.0562556 0 0.0857997)
(0.12719 0.0467453 0 0.0607656 0 0.0920756)
(0.133573 0.0494362 0 0.0643529 0 0.0968731)
(0.139351 0.052054 0 0.0675881 0 0.101275)
(0.143831 0.0543372 0 0.0701016 0 0.104675)
(0.145536 0.0557306 0 0.0714791 0 0.106124)
(0.0727663 0.0268355 0 0.0343254 0 0.0523569)
(0.080765 0.0296157 0 0.0379297 0 0.0580806)
(0.0879381 0.0321442 0 0.0411756 0 0.0632242)
(0.0956647 0.0351554 0 0.0450372 0 0.0689482)
(0.101289 0.037468 0 0.0479078 0 0.0730926)
(0.106468 0.0397214 0 0.0506411 0 0.0769706)
(0.11053 0.0417242 0 0.0527617 0 0.0799979)
(0.11194 0.0428067 0 0.0537355 0 0.0811383)
(0.0462598 0.0171225 0 0.0215758 0 0.0332175)
(0.0533093 0.0196456 0 0.0248969 0 0.0382627)
(0.0593307 0.0217954 0 0.027774 0 0.0425853)
(0.0661458 0.0244331 0 0.0312017 0 0.0475935)
(0.0707277 0.026279 0 0.0335286 0 0.0509386)
(0.075127 0.0281331 0 0.0357987 0 0.0542025)
(0.0785272 0.0296726 0 0.0375032 0 0.0566762)
(0.0794643 0.0302971 0 0.0380911 0 0.0573882)
(0.0233343 0.00852939 0 0.0108455 0 0.0167358)
(0.0289417 0.0105747 0 0.0133894 0 0.0207398)
(0.0335722 0.0122683 0 0.0155344 0 0.0240641)
(0.0393406 0.0144872 0 0.0182762 0 0.0282403)
(0.0428775 0.0158838 0 0.0199459 0 0.0307825)
(0.0468016 0.0174665 0 0.0217761 0 0.0336021)
(0.049533 0.0186545 0 0.0230784 0 0.0355706)
(0.0500544 0.0189859 0 0.0233925 0 0.0359747)
(0.00711009 0.00257976 0 0.00332219 0 0.00509828)
(0.0105351 0.00383365 0 0.00492042 0 0.00754652)
(0.0135019 0.00491784 0 0.00629456 0 0.00966275)
(0.0176019 0.00646687 0 0.00823177 0 0.0126039)
(0.0199624 0.00736132 0 0.00932263 0 0.014278)
(0.0228467 0.00849518 0 0.0106891 0 0.0163505)
(0.0246421 0.00927165 0 0.0116273 0 0.0176781)
(0.0250871 0.009437 0 0.0118394 0 0.0179928)
(0.000568978 0.000202852 0 0.0002636 0 0.000407638)
(0.00129358 0.000462991 0 0.000595916 0 0.000924939)
(0.00211142 0.000757967 0 0.000967905 0 0.00150823)
(0.00351752 0.00127795 0 0.0016187 0 0.00251599)
(0.00437047 0.00159598 0 0.00200776 0 0.00312392)
(0.00568249 0.00208974 0 0.00261723 0 0.00406706)
(0.00658025 0.002451 0 0.00305615 0 0.00472121)
(0.00711335 0.00262677 0 0.00327409 0 0.00509015)
(2.49921e-06 8.55935e-07 0 1.19335e-06 0 1.80723e-06)
(1.31118e-05 4.62495e-06 0 6.12715e-06 0 9.40632e-06)
(3.5372e-05 1.25689e-05 0 1.64667e-05 0 2.53441e-05)
(9.89456e-05 3.56472e-05 0 4.63365e-05 0 7.09943e-05)
(0.000149684 5.42179e-05 0 7.0114e-05 0 0.000107349)
(0.000262688 9.55327e-05 0 0.000123425 0 0.000188591)
(0.000363807 0.000133077 0 0.000172087 0 0.00026157)
(0.000480074 0.000170919 0 0.000223183 0 0.000343161)
(5.7556e-08 -5.74336e-09 0 5.50781e-08 0 5.64922e-08)
(5.88627e-08 -5.05014e-09 0 5.61183e-08 0 5.76569e-08)
(6.53671e-08 -2.59436e-09 0 5.90594e-08 0 6.23947e-08)
(1.08944e-07 1.35145e-08 0 8.00343e-08 0 9.398e-08)
(1.6949e-07 3.57751e-08 0 1.08066e-07 0 1.37353e-07)
(4.08567e-07 1.22417e-07 0 2.19917e-07 0 3.09107e-07)
(7.71947e-07 2.53938e-07 0 3.91299e-07 0 5.70551e-07)
(1.62622e-06 5.33917e-07 0 7.69944e-07 0 1.17443e-06)
(5.76612e-08 -5.62495e-09 0 5.58919e-08 0 5.6645e-08)
(5.73914e-08 -5.53929e-09 0 5.63846e-08 0 5.66669e-08)
(5.71315e-08 -5.54035e-09 0 5.65579e-08 0 5.6618e-08)
(5.67837e-08 -5.41834e-09 0 5.71607e-08 0 5.66632e-08)
(5.67224e-08 -5.2321e-09 0 5.71165e-08 0 5.66158e-08)
(5.67025e-08 -5.03182e-09 0 5.7198e-08 0 5.66035e-08)
(5.67598e-08 -4.7121e-09 0 5.68996e-08 0 5.65173e-08)
(5.72162e-08 -4.73861e-09 0 5.63444e-08 0 5.65461e-08)
(5.74747e-08 -5.66286e-09 0 5.5342e-08 0 5.6477e-08)
(5.71737e-08 -5.60548e-09 0 5.55858e-08 0 5.64499e-08)
(5.69167e-08 -5.60862e-09 0 5.55381e-08 0 5.63671e-08)
(5.65435e-08 -5.45995e-09 0 5.58292e-08 0 5.63278e-08)
(5.64878e-08 -5.2755e-09 0 5.56116e-08 0 5.62407e-08)
(5.64197e-08 -5.05776e-09 0 5.55799e-08 0 5.61924e-08)
(5.64172e-08 -4.74461e-09 0 5.55248e-08 0 5.61397e-08)
(5.67965e-08 -4.89373e-09 0 5.53369e-08 0 5.61844e-08)
(5.76179e-08 -5.51404e-09 0 5.56818e-08 0 5.66082e-08)
(5.74265e-08 -5.47278e-09 0 5.60549e-08 0 5.66461e-08)
(5.7224e-08 -5.4749e-09 0 5.62032e-08 0 5.66289e-08)
(5.69706e-08 -5.3711e-09 0 5.66797e-08 0 5.66754e-08)
(5.69055e-08 -5.24288e-09 0 5.66296e-08 0 5.66328e-08)
(5.6824e-08 -5.12219e-09 0 5.67861e-08 0 5.66351e-08)
(5.68184e-08 -4.93081e-09 0 5.65621e-08 0 5.65524e-08)
(5.70474e-08 -5.08256e-09 0 5.61663e-08 0 5.6516e-08)
(5.75649e-08 -5.53422e-09 0 5.56098e-08 0 5.65852e-08)
(5.7343e-08 -5.51199e-09 0 5.58539e-08 0 5.65845e-08)
(5.71154e-08 -5.50735e-09 0 5.5874e-08 0 5.65304e-08)
(5.68629e-08 -5.41462e-09 0 5.616e-08 0 5.65315e-08)
(5.68069e-08 -5.29953e-09 0 5.60127e-08 0 5.6471e-08)
(5.6724e-08 -5.17636e-09 0 5.61178e-08 0 5.6465e-08)
(5.67561e-08 -4.97633e-09 0 5.59989e-08 0 5.64194e-08)
(5.70545e-08 -5.13273e-09 0 5.58663e-08 0 5.64673e-08)
(5.76225e-08 -5.42656e-09 0 5.56275e-08 0 5.66165e-08)
(5.74515e-08 -5.43661e-09 0 5.59125e-08 0 5.66439e-08)
(5.72534e-08 -5.42914e-09 0 5.60193e-08 0 5.66187e-08)
(5.70614e-08 -5.35386e-09 0 5.63605e-08 0 5.66515e-08)
(5.69872e-08 -5.28531e-09 0 5.63153e-08 0 5.66175e-08)
(5.68727e-08 -5.22295e-09 0 5.65505e-08 0 5.66433e-08)
(5.6897e-08 -5.08057e-09 0 5.63352e-08 0 5.65799e-08)
(5.70917e-08 -5.19526e-09 0 5.61074e-08 0 5.65781e-08)
(5.75944e-08 -5.42449e-09 0 5.56864e-08 0 5.66259e-08)
(5.74246e-08 -5.45057e-09 0 5.59478e-08 0 5.66526e-08)
(5.72432e-08 -5.44493e-09 0 5.60157e-08 0 5.66213e-08)
(5.70598e-08 -5.37226e-09 0 5.62896e-08 0 5.66409e-08)
(5.69943e-08 -5.32921e-09 0 5.62264e-08 0 5.66076e-08)
(5.69032e-08 -5.26953e-09 0 5.64388e-08 0 5.66363e-08)
(5.69703e-08 -5.14883e-09 0 5.62546e-08 0 5.65941e-08)
(5.71802e-08 -5.2658e-09 0 5.6151e-08 0 5.66302e-08)
(5.76636e-08 -5.33114e-09 0 5.56407e-08 0 5.66425e-08)
(5.74605e-08 -5.39375e-09 0 5.59367e-08 0 5.66669e-08)
(5.73228e-08 -5.36949e-09 0 5.59731e-08 0 5.66443e-08)
(5.71633e-08 -5.31854e-09 0 5.62345e-08 0 5.66686e-08)
(5.70555e-08 -5.30761e-09 0 5.62232e-08 0 5.66412e-08)
(5.69229e-08 -5.26436e-09 0 5.64958e-08 0 5.66778e-08)
(5.69723e-08 -5.17192e-09 0 5.62904e-08 0 5.66287e-08)
(5.71247e-08 -5.30387e-09 0 5.62364e-08 0 5.66623e-08)
(5.76693e-08 -5.38867e-09 0 5.56974e-08 0 5.6669e-08)
(5.74427e-08 -5.3787e-09 0 5.59625e-08 0 5.66725e-08)
(5.73244e-08 -5.38518e-09 0 5.60209e-08 0 5.66614e-08)
(5.71736e-08 -5.34547e-09 0 5.62736e-08 0 5.66873e-08)
(5.70787e-08 -5.34258e-09 0 5.62697e-08 0 5.6666e-08)
(5.69804e-08 -5.29209e-09 0 5.65271e-08 0 5.67085e-08)
(5.70472e-08 -5.22798e-09 0 5.63325e-08 0 5.667e-08)
(5.71673e-08 -5.35152e-09 0 5.632e-08 0 5.67091e-08)
(5.76792e-08 -5.39583e-09 0 5.57533e-08 0 5.66938e-08)
(5.74788e-08 -5.28186e-09 0 5.5926e-08 0 5.66784e-08)
(5.73672e-08 -5.32756e-09 0 5.60044e-08 0 5.66759e-08)
(5.72416e-08 -5.29918e-09 0 5.6226e-08 0 5.67019e-08)
(5.71253e-08 -5.30701e-09 0 5.62397e-08 0 5.66814e-08)
(5.69894e-08 -5.2689e-09 0 5.65032e-08 0 5.67138e-08)
(5.70423e-08 -5.22871e-09 0 5.6335e-08 0 5.6684e-08)
(5.71297e-08 -5.35797e-09 0 5.63808e-08 0 5.67286e-08)
(5.76334e-08 -5.37682e-09 0 5.58153e-08 0 5.66997e-08)
(5.75219e-08 -5.27313e-09 0 5.59183e-08 0 5.66951e-08)
(5.7354e-08 -5.32629e-09 0 5.6039e-08 0 5.6685e-08)
(5.72433e-08 -5.30608e-09 0 5.62493e-08 0 5.67137e-08)
(5.71376e-08 -5.3261e-09 0 5.6274e-08 0 5.66988e-08)
(5.70325e-08 -5.29416e-09 0 5.65405e-08 0 5.6743e-08)
(5.7072e-08 -5.26604e-09 0 5.63787e-08 0 5.6712e-08)
(5.71092e-08 -5.39455e-09 0 5.64794e-08 0 5.67596e-08)
(5.75781e-08 -5.23536e-09 0 5.58165e-08 0 5.66849e-08)
(5.75775e-08 -5.25578e-09 0 5.59098e-08 0 5.67128e-08)
(5.73777e-08 -5.2616e-09 0 5.60264e-08 0 5.66919e-08)
(5.72837e-08 -5.25915e-09 0 5.62246e-08 0 5.67222e-08)
(5.71689e-08 -5.28549e-09 0 5.62543e-08 0 5.67077e-08)
(5.70491e-08 -5.26472e-09 0 5.65132e-08 0 5.67463e-08)
(5.70781e-08 -5.25747e-09 0 5.63761e-08 0 5.67197e-08)
(5.70848e-08 -5.38823e-09 0 5.65221e-08 0 5.6771e-08)
(5.75862e-08 -5.18915e-09 0 5.57896e-08 0 5.66824e-08)
(5.7565e-08 -5.24742e-09 0 5.59368e-08 0 5.6722e-08)
(5.73772e-08 -5.25157e-09 0 5.60496e-08 0 5.67039e-08)
(5.72797e-08 -5.24658e-09 0 5.62402e-08 0 5.67312e-08)
(5.71725e-08 -5.28986e-09 0 5.62817e-08 0 5.67205e-08)
(5.70699e-08 -5.26736e-09 0 5.65268e-08 0 5.676e-08)
(5.70739e-08 -5.27145e-09 0 5.64092e-08 0 5.67341e-08)
(5.70448e-08 -5.40852e-09 0 5.66038e-08 0 5.67892e-08)
(5.76404e-08 -5.1502e-09 0 5.58047e-08 0 5.67094e-08)
(5.75618e-08 -5.20505e-09 0 5.59413e-08 0 5.6725e-08)
(5.74081e-08 -5.22308e-09 0 5.60518e-08 0 5.6717e-08)
(5.72996e-08 -5.21742e-09 0 5.62306e-08 0 5.67351e-08)
(5.71996e-08 -5.25731e-09 0 5.62686e-08 0 5.67269e-08)
(5.70892e-08 -5.2428e-09 0 5.65086e-08 0 5.67632e-08)
(5.70702e-08 -5.26514e-09 0 5.64209e-08 0 5.67397e-08)
(5.70265e-08 -5.40409e-09 0 5.66545e-08 0 5.68012e-08)
(5.76492e-08 -5.17194e-09 0 5.58309e-08 0 5.67238e-08)
(5.75562e-08 -5.16998e-09 0 5.59439e-08 0 5.67281e-08)
(5.74045e-08 -5.22743e-09 0 5.60866e-08 0 5.67311e-08)
(5.73039e-08 -5.18521e-09 0 5.62248e-08 0 5.67397e-08)
(5.71983e-08 -5.24921e-09 0 5.62914e-08 0 5.67379e-08)
(5.70977e-08 -5.2342e-09 0 5.65041e-08 0 5.67681e-08)
(5.70488e-08 -5.26984e-09 0 5.64396e-08 0 5.6743e-08)
(5.69934e-08 -5.39225e-09 0 5.66896e-08 0 5.68041e-08)
(5.76777e-08 -5.12876e-09 0 5.5827e-08 0 5.67352e-08)
(5.75631e-08 -5.14167e-09 0 5.59645e-08 0 5.67395e-08)
(5.74168e-08 -5.19727e-09 0 5.61009e-08 0 5.67416e-08)
(5.73257e-08 -5.16058e-09 0 5.62228e-08 0 5.67477e-08)
(5.72174e-08 -5.23448e-09 0 5.62974e-08 0 5.67462e-08)
(5.71185e-08 -5.22152e-09 0 5.65078e-08 0 5.67774e-08)
(5.70508e-08 -5.26999e-09 0 5.6475e-08 0 5.67564e-08)
(5.69775e-08 -5.36661e-09 0 5.67311e-08 0 5.6812e-08)
(5.76801e-08 -5.10524e-09 0 5.58449e-08 0 5.67489e-08)
(5.75551e-08 -5.09821e-09 0 5.59684e-08 0 5.67459e-08)
(5.7415e-08 -5.16511e-09 0 5.61222e-08 0 5.67525e-08)
(5.73267e-08 -5.13876e-09 0 5.62184e-08 0 5.67507e-08)
(5.72067e-08 -5.21092e-09 0 5.63128e-08 0 5.67517e-08)
(5.71125e-08 -5.20544e-09 0 5.64973e-08 0 5.67758e-08)
(5.70297e-08 -5.26024e-09 0 5.64823e-08 0 5.67553e-08)
(5.694e-08 -5.33707e-09 0 5.67296e-08 0 5.68026e-08)
(5.76962e-08 -5.09033e-09 0 5.58632e-08 0 5.67595e-08)
(5.75727e-08 -5.07521e-09 0 5.59703e-08 0 5.67558e-08)
(5.74174e-08 -5.1351e-09 0 5.61345e-08 0 5.67577e-08)
(5.73492e-08 -5.12175e-09 0 5.62313e-08 0 5.67639e-08)
(5.72203e-08 -5.18691e-09 0 5.63273e-08 0 5.67609e-08)
(5.71335e-08 -5.1889e-09 0 5.65116e-08 0 5.67876e-08)
(5.70371e-08 -5.25089e-09 0 5.6519e-08 0 5.67695e-08)
(5.6946e-08 -5.32248e-09 0 5.67784e-08 0 5.68187e-08)
(5.76851e-08 -5.05394e-09 0 5.58703e-08 0 5.67625e-08)
(5.75793e-08 -5.08695e-09 0 5.60069e-08 0 5.6773e-08)
(5.74137e-08 -5.0917e-09 0 5.61218e-08 0 5.6756e-08)
(5.73435e-08 -5.10568e-09 0 5.62343e-08 0 5.67671e-08)
(5.72073e-08 -5.15526e-09 0 5.63251e-08 0 5.6759e-08)
(5.71159e-08 -5.16933e-09 0 5.65028e-08 0 5.6783e-08)
(5.70059e-08 -5.22763e-09 0 5.65134e-08 0 5.67615e-08)
(5.69047e-08 -5.28453e-09 0 5.67549e-08 0 5.68019e-08)
(5.76905e-08 -5.03611e-09 0 5.58847e-08 0 5.67696e-08)
(5.75915e-08 -5.07613e-09 0 5.60139e-08 0 5.678e-08)
(5.74268e-08 -5.06244e-09 0 5.61289e-08 0 5.67643e-08)
(5.73591e-08 -5.09109e-09 0 5.62581e-08 0 5.67809e-08)
(5.72204e-08 -5.1266e-09 0 5.63458e-08 0 5.67698e-08)
(5.71347e-08 -5.15865e-09 0 5.65272e-08 0 5.6797e-08)
(5.70249e-08 -5.2134e-09 0 5.65606e-08 0 5.67807e-08)
(5.69246e-08 -5.27173e-09 0 5.68005e-08 0 5.68206e-08)
(5.76884e-08 -4.99931e-09 0 5.58914e-08 0 5.67757e-08)
(5.7594e-08 -5.03708e-09 0 5.6011e-08 0 5.67838e-08)
(5.74256e-08 -5.04666e-09 0 5.61263e-08 0 5.67667e-08)
(5.73471e-08 -5.06723e-09 0 5.62595e-08 0 5.67806e-08)
(5.72046e-08 -5.09554e-09 0 5.63407e-08 0 5.6766e-08)
(5.71065e-08 -5.13903e-09 0 5.65117e-08 0 5.67877e-08)
(5.69864e-08 -5.17052e-09 0 5.65445e-08 0 5.67664e-08)
(5.68804e-08 -5.23673e-09 0 5.67689e-08 0 5.6801e-08)
(5.76863e-08 -4.99565e-09 0 5.59097e-08 0 5.67811e-08)
(5.75974e-08 -5.0185e-09 0 5.60211e-08 0 5.67883e-08)
(5.74499e-08 -5.04673e-09 0 5.61493e-08 0 5.67828e-08)
(5.736e-08 -5.03529e-09 0 5.62653e-08 0 5.67871e-08)
(5.72176e-08 -5.08516e-09 0 5.63716e-08 0 5.67801e-08)
(5.71359e-08 -5.1305e-09 0 5.65478e-08 0 5.6807e-08)
(5.70061e-08 -5.14871e-09 0 5.65804e-08 0 5.67821e-08)
(5.69034e-08 -5.23662e-09 0 5.6819e-08 0 5.68223e-08)
(5.76853e-08 -4.97687e-09 0 5.591e-08 0 5.67825e-08)
(5.7585e-08 -4.9958e-09 0 5.60174e-08 0 5.67855e-08)
(5.74513e-08 -5.02807e-09 0 5.6139e-08 0 5.67824e-08)
(5.73488e-08 -5.00742e-09 0 5.62488e-08 0 5.67814e-08)
(5.71911e-08 -5.07511e-09 0 5.63746e-08 0 5.67763e-08)
(5.71068e-08 -5.08734e-09 0 5.6516e-08 0 5.67911e-08)
(5.6966e-08 -5.12685e-09 0 5.65664e-08 0 5.67691e-08)
(5.68641e-08 -5.20989e-09 0 5.68096e-08 0 5.68098e-08)
(5.76856e-08 -4.96038e-09 0 5.59185e-08 0 5.67854e-08)
(5.75869e-08 -4.97891e-09 0 5.60307e-08 0 5.679e-08)
(5.74647e-08 -5.00769e-09 0 5.61473e-08 0 5.6789e-08)
(5.73675e-08 -5.00388e-09 0 5.62647e-08 0 5.67928e-08)
(5.72143e-08 -5.0791e-09 0 5.64149e-08 0 5.67955e-08)
(5.71303e-08 -5.06144e-09 0 5.65296e-08 0 5.68015e-08)
(5.69882e-08 -5.1505e-09 0 5.66329e-08 0 5.67959e-08)
(5.68843e-08 -5.17648e-09 0 5.68331e-08 0 5.68208e-08)
(5.76722e-08 -4.91947e-09 0 5.59053e-08 0 5.67771e-08)
(5.75694e-08 -4.94977e-09 0 5.60215e-08 0 5.67822e-08)
(5.74499e-08 -4.98285e-09 0 5.61368e-08 0 5.67821e-08)
(5.73437e-08 -4.9944e-09 0 5.62584e-08 0 5.67861e-08)
(5.72028e-08 -5.06133e-09 0 5.63969e-08 0 5.67886e-08)
(5.70948e-08 -5.04562e-09 0 5.65087e-08 0 5.67878e-08)
(5.69619e-08 -5.14552e-09 0 5.66336e-08 0 5.67907e-08)
(5.68377e-08 -5.12223e-09 0 5.67784e-08 0 5.67927e-08)
(5.76498e-08 -4.84289e-09 0 5.59096e-08 0 5.67672e-08)