/*--------------------------------*- C++ -*----------------------------------*\
| =========                 |                                                 |
| \\      /  F ield         | OpenFOAM: The Open Source CFD Toolbox           |
|  \\    /   O peration     | Version:  v1912                                 |
|   \\  /    A nd           | Website:  www.openfoam.com                      |
|    \\/     M anipulation  |                                                 |
\*---------------------------------------------------------------------------*/
FoamFile
{
    version     2.0;
    format      ascii;
    class       volScalarField;
    location    "90";
    object      k;
}
// * * * * * * * * * * * * * * * * * * * * * * * * * * * * * * * * * * * * * //

dimensions      [0 2 -2 0 0 0 0];


internalField   nonuniform List<scalar> 
14268
(
3.37118e-13
1.43989e-13
1.38283e-13
1.58661e-13
1.90082e-13
2.22605e-13
2.56257e-13
2.93394e-13
3.34304e-13
3.78596e-13
4.25777e-13
4.7446e-13
5.23382e-13
5.72365e-13
6.22166e-13
6.73588e-13
7.26971e-13
7.82108e-13
8.38558e-13
8.95927e-13
9.53897e-13
1.01214e-12
1.07028e-12
1.12818e-12
1.18582e-12
1.24313e-12
1.30003e-12
1.35638e-12
1.41207e-12
1.46697e-12
1.52097e-12
1.57398e-12
1.6259e-12
1.67667e-12
1.72621e-12
1.77447e-12
1.8214e-12
1.86696e-12
1.91111e-12
1.95385e-12
1.99514e-12
2.03498e-12
2.07336e-12
2.1103e-12
2.14579e-12
2.17985e-12
2.2125e-12
2.24377e-12
2.27367e-12
2.30223e-12
2.3295e-12
2.3555e-12
2.38026e-12
2.40383e-12
2.42624e-12
2.44752e-12
2.46773e-12
2.48689e-12
2.50505e-12
2.52225e-12
2.53853e-12
2.55391e-12
2.56845e-12
2.58218e-12
2.59514e-12
2.60736e-12
2.61887e-12
2.62972e-12
2.63993e-12
2.64953e-12
2.65856e-12
2.66705e-12
2.67501e-12
2.68249e-12
2.68951e-12
2.69609e-12
2.70226e-12
2.70803e-12
2.71344e-12
2.71849e-12
2.72323e-12
2.72765e-12
2.73178e-12
2.73564e-12
2.73924e-12
2.7426e-12
2.74573e-12
2.74865e-12
2.75137e-12
2.7539e-12
2.75626e-12
2.75845e-12
2.76049e-12
2.76238e-12
2.76414e-12
2.76578e-12
2.76729e-12
2.7687e-12
2.77e-12
2.77121e-12
2.77233e-12
2.77336e-12
2.77432e-12
2.7752e-12
2.77602e-12
2.77678e-12
2.77747e-12
2.77812e-12
2.77871e-12
2.77925e-12
2.77976e-12
2.78022e-12
2.78065e-12
2.78104e-12
2.78139e-12
2.78172e-12
2.78203e-12
2.7823e-12
2.78255e-12
2.78278e-12
2.78299e-12
2.78319e-12
2.78336e-12
2.78352e-12
2.78365e-12
2.78379e-12
2.78389e-12
2.78401e-12
2.78408e-12
2.78418e-12
2.78423e-12
2.78433e-12
2.78435e-12
2.78445e-12
2.78444e-12
2.78456e-12
2.78453e-12
2.78467e-12
2.78464e-12
2.78482e-12
2.78479e-12
2.78497e-12
2.78495e-12
2.78512e-12
2.78511e-12
2.78524e-12
2.78523e-12
2.7853e-12
2.78528e-12
2.78533e-12
2.7853e-12
2.78533e-12
2.7853e-12
2.78532e-12
2.78529e-12
2.78531e-12
2.78528e-12
2.78529e-12
2.78528e-12
2.78529e-12
2.78535e-12
2.78536e-12
2.78751e-12
2.82583e-12
9.46233e-12
4.11096e-12
3.97138e-12
4.56715e-12
5.47721e-12
6.41967e-12
7.39857e-12
8.48097e-12
9.67333e-12
1.09667e-11
1.23479e-11
1.37725e-11
1.52027e-11
1.66349e-11
1.80929e-11
1.96005e-11
2.11679e-11
2.27886e-11
2.44493e-11
2.61387e-11
2.78474e-11
2.95654e-11
3.12816e-11
3.29915e-11
3.46946e-11
3.63894e-11
3.80731e-11
3.9742e-11
4.13922e-11
4.30202e-11
4.46225e-11
4.61962e-11
4.77386e-11
4.92475e-11
5.07207e-11
5.21566e-11
5.35536e-11
5.49104e-11
5.62261e-11
5.75e-11
5.87313e-11
5.99199e-11
6.10656e-11
6.21683e-11
6.32283e-11
6.4246e-11
6.52218e-11
6.61565e-11
6.70507e-11
6.79052e-11
6.8721e-11
6.9499e-11
7.02403e-11
7.09459e-11
7.1617e-11
7.22546e-11
7.286e-11
7.34342e-11
7.39785e-11
7.4494e-11
7.49819e-11
7.54432e-11
7.58793e-11
7.6291e-11
7.66796e-11
7.70462e-11
7.73916e-11
7.7717e-11
7.80233e-11
7.83115e-11
7.85825e-11
7.88372e-11
7.90764e-11
7.93009e-11
7.95115e-11
7.9709e-11
7.98941e-11
8.00675e-11
8.02298e-11
8.03817e-11
8.05238e-11
8.06566e-11
8.07806e-11
8.08965e-11
8.10046e-11
8.11055e-11
8.11996e-11
8.12873e-11
8.1369e-11
8.14451e-11
8.15158e-11
8.15817e-11
8.16429e-11
8.16998e-11
8.17527e-11
8.18017e-11
8.18472e-11
8.18895e-11
8.19286e-11
8.19649e-11
8.19985e-11
8.20295e-11
8.20583e-11
8.20849e-11
8.21094e-11
8.21321e-11
8.21531e-11
8.21724e-11
8.21902e-11
8.22066e-11
8.22217e-11
8.22356e-11
8.22484e-11
8.22601e-11
8.22709e-11
8.22808e-11
8.22899e-11
8.22982e-11
8.23057e-11
8.23127e-11
8.23189e-11
8.23247e-11
8.23298e-11
8.23347e-11
8.23388e-11
8.23428e-11
8.2346e-11
8.23495e-11
8.23517e-11
8.23548e-11
8.23563e-11
8.2359e-11
8.23598e-11
8.23626e-11
8.23626e-11
8.23659e-11
8.23653e-11
8.23695e-11
8.23685e-11
8.23738e-11
8.23728e-11
8.23784e-11
8.23778e-11
8.23829e-11
8.23825e-11
8.23864e-11
8.23859e-11
8.23883e-11
8.23876e-11
8.2389e-11
8.23881e-11
8.2389e-11
8.23881e-11
8.23887e-11
8.23879e-11
8.23883e-11
8.23877e-11
8.2388e-11
8.23877e-11
8.2388e-11
8.23895e-11
8.23899e-11
8.24534e-11
8.34998e-11
6.26289e-11
2.8557e-11
2.79785e-11
3.23083e-11
3.87214e-11
4.53168e-11
5.21755e-11
5.97597e-11
6.81011e-11
7.71334e-11
8.67636e-11
9.66842e-11
1.06622e-10
1.16565e-10
1.26679e-10
1.37126e-10
1.47971e-10
1.59168e-10
1.70625e-10
1.82265e-10
1.94023e-10
2.05831e-10
2.17611e-10
2.29337e-10
2.41002e-10
2.52599e-10
2.64107e-10
2.75502e-10
2.86759e-10
2.97852e-10
3.08761e-10
3.19465e-10
3.29948e-10
3.40193e-10
3.50188e-10
3.59922e-10
3.69385e-10
3.78569e-10
3.87469e-10
3.9608e-10
4.04398e-10
4.12422e-10
4.20152e-10
4.27588e-10
4.34732e-10
4.41587e-10
4.48158e-10
4.54448e-10
4.60463e-10
4.66208e-10
4.71692e-10
4.76919e-10
4.81898e-10
4.86635e-10
4.91139e-10
4.95417e-10
4.99478e-10
5.03329e-10
5.06978e-10
5.10433e-10
5.13702e-10
5.16793e-10
5.19713e-10
5.22471e-10
5.25073e-10
5.27526e-10
5.29839e-10
5.32016e-10
5.34066e-10
5.35994e-10
5.37807e-10
5.3951e-10
5.4111e-10
5.42611e-10
5.4402e-10
5.4534e-10
5.46578e-10
5.47737e-10
5.48822e-10
5.49837e-10
5.50787e-10
5.51674e-10
5.52503e-10
5.53277e-10
5.54e-10
5.54674e-10
5.55303e-10
5.55889e-10
5.56434e-10
5.56943e-10
5.57415e-10
5.57855e-10
5.58264e-10
5.58644e-10
5.58997e-10
5.59325e-10
5.59629e-10
5.59911e-10
5.60173e-10
5.60415e-10
5.60639e-10
5.60847e-10
5.61039e-10
5.61216e-10
5.6138e-10
5.61532e-10
5.61672e-10
5.61801e-10
5.6192e-10
5.62029e-10
5.6213e-10
5.62223e-10
5.62308e-10
5.62387e-10
5.62459e-10
5.62525e-10
5.62585e-10
5.62641e-10
5.62691e-10
5.62737e-10
5.62779e-10
5.62818e-10
5.62852e-10
5.62884e-10
5.62912e-10
5.62939e-10
5.6296e-10
5.62983e-10
5.62998e-10
5.63018e-10
5.63028e-10
5.63047e-10
5.63052e-10
5.63071e-10
5.63071e-10
5.63093e-10
5.63089e-10
5.63117e-10
5.6311e-10
5.63145e-10
5.63139e-10
5.63176e-10
5.63172e-10
5.63206e-10
5.63204e-10
5.6323e-10
5.63227e-10
5.63242e-10
5.63238e-10
5.63247e-10
5.63242e-10
5.63247e-10
5.63242e-10
5.63245e-10
5.6324e-10
5.63242e-10
5.63238e-10
5.6324e-10
5.63238e-10
5.6324e-10
5.63251e-10
5.63253e-10
5.63677e-10
5.7004e-10
2.02606e-10
1.00949e-10
1.01085e-10
1.1751e-10
1.40572e-10
1.64034e-10
1.88478e-10
2.15489e-10
2.4509e-10
2.77033e-10
3.10988e-10
3.45887e-10
3.80635e-10
4.15356e-10
4.50618e-10
4.86953e-10
5.24565e-10
5.6328e-10
6.02787e-10
6.42817e-10
6.83154e-10
7.23555e-10
7.63762e-10
8.03698e-10
8.43343e-10
8.82667e-10
9.21611e-10
9.60094e-10
9.98036e-10
1.03536e-09
1.07199e-09
1.10787e-09
1.14295e-09
1.17718e-09
1.21052e-09
1.24294e-09
1.27442e-09
1.30492e-09
1.33444e-09
1.36297e-09
1.39049e-09
1.41701e-09
1.44253e-09
1.46706e-09
1.49059e-09
1.51316e-09
1.53477e-09
1.55544e-09
1.57519e-09
1.59404e-09
1.61201e-09
1.62914e-09
1.64544e-09
1.66094e-09
1.67567e-09
1.68965e-09
1.70292e-09
1.71549e-09
1.7274e-09
1.73867e-09
1.74933e-09
1.7594e-09
1.76892e-09
1.7779e-09
1.78637e-09
1.79436e-09
1.80188e-09
1.80897e-09
1.81563e-09
1.8219e-09
1.8278e-09
1.83333e-09
1.83853e-09
1.84341e-09
1.84798e-09
1.85227e-09
1.85629e-09
1.86006e-09
1.86358e-09
1.86687e-09
1.86996e-09
1.87284e-09
1.87553e-09
1.87804e-09
1.88038e-09
1.88257e-09
1.88461e-09
1.88651e-09
1.88828e-09
1.88993e-09
1.89146e-09
1.89289e-09
1.89421e-09
1.89545e-09
1.89659e-09
1.89765e-09
1.89864e-09
1.89955e-09
1.9004e-09
1.90119e-09
1.90191e-09
1.90259e-09
1.90321e-09
1.90378e-09
1.90432e-09
1.90481e-09
1.90526e-09
1.90568e-09
1.90606e-09
1.90642e-09
1.90675e-09
1.90705e-09
1.90732e-09
1.90758e-09
1.90781e-09
1.90803e-09
1.90822e-09
1.9084e-09
1.90856e-09
1.90871e-09
1.90885e-09
1.90898e-09
1.90909e-09
1.90919e-09
1.90928e-09
1.90937e-09
1.90944e-09
1.90951e-09
1.90956e-09
1.90963e-09
1.90966e-09
1.90972e-09
1.90973e-09
1.9098e-09
1.90979e-09
1.90987e-09
1.90985e-09
1.90994e-09
1.90992e-09
1.91004e-09
1.91002e-09
1.91014e-09
1.91012e-09
1.91023e-09
1.91023e-09
1.91031e-09
1.9103e-09
1.91035e-09
1.91034e-09
1.91037e-09
1.91035e-09
1.91037e-09
1.91035e-09
1.91036e-09
1.91034e-09
1.91035e-09
1.91034e-09
1.91034e-09
1.91034e-09
1.91034e-09
1.91038e-09
1.91039e-09
1.91176e-09
1.93059e-09
4.57898e-10
2.54585e-10
2.6096e-10
3.05496e-10
3.64268e-10
4.23314e-10
4.84968e-10
5.5294e-10
6.27018e-10
7.06537e-10
7.90693e-10
8.76865e-10
9.61845e-10
1.04659e-09
1.13244e-09
1.22055e-09
1.31135e-09
1.40439e-09
1.49892e-09
1.59431e-09
1.69006e-09
1.78553e-09
1.88023e-09
1.97395e-09
2.06666e-09
2.15831e-09
2.24876e-09
2.33787e-09
2.42544e-09
2.51133e-09
2.59538e-09
2.67748e-09
2.75752e-09
2.83542e-09
2.91111e-09
2.98453e-09
3.05565e-09
3.12442e-09
3.19083e-09
3.25487e-09
3.31655e-09
3.37587e-09
3.43284e-09
3.48751e-09
3.53989e-09
3.59003e-09
3.63798e-09
3.68377e-09
3.72747e-09
3.76914e-09
3.80882e-09
3.84658e-09
3.88249e-09
3.9166e-09
3.94898e-09
3.97969e-09
4.0088e-09
4.03637e-09
4.06246e-09
4.08714e-09
4.11046e-09
4.13249e-09
4.15329e-09
4.1729e-09
4.1914e-09
4.20882e-09
4.22523e-09
4.24068e-09
4.2552e-09
4.26886e-09
4.28169e-09
4.29374e-09
4.30505e-09
4.31566e-09
4.32561e-09
4.33494e-09
4.34367e-09
4.35185e-09
4.3595e-09
4.36666e-09
4.37335e-09
4.3796e-09
4.38545e-09
4.3909e-09
4.39599e-09
4.40073e-09
4.40516e-09
4.40928e-09
4.41312e-09
4.41669e-09
4.42002e-09
4.42311e-09
4.42599e-09
4.42866e-09
4.43114e-09
4.43345e-09
4.43558e-09
4.43757e-09
4.4394e-09
4.4411e-09
4.44268e-09
4.44414e-09
4.44549e-09
4.44674e-09
4.44789e-09
4.44895e-09
4.44994e-09
4.45084e-09
4.45168e-09
4.45245e-09
4.45315e-09
4.45381e-09
4.45441e-09
4.45496e-09
4.45546e-09
4.45593e-09
4.45635e-09
4.45674e-09
4.45709e-09
4.45742e-09
4.45771e-09
4.45798e-09
4.45822e-09
4.45845e-09
4.45864e-09
4.45883e-09
4.45898e-09
4.45914e-09
4.45925e-09
4.45939e-09
4.45946e-09
4.45959e-09
4.45962e-09
4.45976e-09
4.45976e-09
4.45991e-09
4.45988e-09
4.46008e-09
4.46003e-09
4.46028e-09
4.46024e-09
4.4605e-09
4.46047e-09
4.46071e-09
4.4607e-09
4.46088e-09
4.46086e-09
4.46097e-09
4.46094e-09
4.461e-09
4.46096e-09
4.461e-09
4.46096e-09
4.46099e-09
4.46095e-09
4.46097e-09
4.46094e-09
4.46095e-09
4.46094e-09
4.46095e-09
4.46102e-09
4.46105e-09
4.46403e-09
4.50175e-09
8.45312e-10
5.26704e-10
5.51972e-10
6.49853e-10
7.71415e-10
8.91892e-10
1.01805e-09
1.15655e-09
1.30638e-09
1.46611e-09
1.63423e-09
1.80537e-09
1.97217e-09
2.13799e-09
2.3054e-09
2.47631e-09
2.6514e-09
2.82977e-09
3.00996e-09
3.1908e-09
3.37126e-09
3.55033e-09
3.72712e-09
3.90124e-09
4.07268e-09
4.24138e-09
4.40718e-09
4.56979e-09
4.72896e-09
4.88444e-09
5.03601e-09
5.18351e-09
5.3268e-09
5.46578e-09
5.60036e-09
5.7305e-09
5.85616e-09
5.97733e-09
6.09401e-09
6.20623e-09
6.31402e-09
6.41745e-09
6.51656e-09
6.61143e-09
6.70216e-09
6.78882e-09
6.87153e-09
6.9504e-09
7.02552e-09
7.09702e-09
7.16502e-09
7.22963e-09
7.29098e-09
7.34918e-09
7.40436e-09
7.45664e-09
7.50613e-09
7.55296e-09
7.59723e-09
7.63906e-09
7.67857e-09
7.71585e-09
7.75101e-09
7.78415e-09
7.81538e-09
7.84478e-09
7.87245e-09
7.89847e-09
7.92294e-09
7.94593e-09
7.96752e-09
7.98778e-09
8.0068e-09
8.02463e-09
8.04134e-09
8.057e-09
8.07166e-09
8.08538e-09
8.09822e-09
8.11023e-09
8.12145e-09
8.13193e-09
8.14172e-09
8.15086e-09
8.15938e-09
8.16733e-09
8.17474e-09
8.18164e-09
8.18807e-09
8.19406e-09
8.19962e-09
8.2048e-09
8.20961e-09
8.21408e-09
8.21824e-09
8.22209e-09
8.22567e-09
8.22898e-09
8.23205e-09
8.2349e-09
8.23754e-09
8.23998e-09
8.24223e-09
8.24432e-09
8.24624e-09
8.24802e-09
8.24967e-09
8.25118e-09
8.25258e-09
8.25387e-09
8.25505e-09
8.25614e-09
8.25714e-09
8.25806e-09
8.25891e-09
8.25968e-09
8.26039e-09
8.26104e-09
8.26163e-09
8.26218e-09
8.26267e-09
8.26312e-09
8.26352e-09
8.2639e-09
8.26422e-09
8.26454e-09
8.26479e-09
8.26506e-09
8.26524e-09
8.26547e-09
8.26559e-09
8.26581e-09
8.26586e-09
8.26609e-09
8.26608e-09
8.26634e-09
8.26629e-09
8.26663e-09
8.26655e-09
8.26697e-09
8.26689e-09
8.26733e-09
8.26729e-09
8.26769e-09
8.26767e-09
8.26797e-09
8.26794e-09
8.26812e-09
8.26807e-09
8.26817e-09
8.26811e-09
8.26817e-09
8.26811e-09
8.26815e-09
8.26809e-09
8.26812e-09
8.26807e-09
8.26809e-09
8.26807e-09
8.26809e-09
8.26821e-09
8.26826e-09
8.27327e-09
8.33203e-09
1.377e-09
9.56385e-10
1.02234e-09
1.20841e-09
1.42618e-09
1.63945e-09
1.86328e-09
2.10753e-09
2.36936e-09
2.64618e-09
2.93578e-09
3.22781e-09
3.50919e-09
3.78733e-09
4.06704e-09
4.3508e-09
4.63946e-09
4.93143e-09
5.2243e-09
5.51604e-09
5.80547e-09
6.09097e-09
6.37113e-09
6.64545e-09
6.91401e-09
7.17684e-09
7.43376e-09
7.68446e-09
7.92863e-09
8.16599e-09
8.39631e-09
8.61944e-09
8.83527e-09
9.04372e-09
9.24478e-09
9.43844e-09
9.62474e-09
9.80374e-09
9.97552e-09
1.01402e-08
1.02979e-08
1.04487e-08
1.05929e-08
1.07305e-08
1.08617e-08
1.09868e-08
1.11059e-08
1.12192e-08
1.13269e-08
1.14292e-08
1.15263e-08
1.16184e-08
1.17057e-08
1.17884e-08
1.18667e-08
1.19408e-08
1.20108e-08
1.2077e-08
1.21395e-08
1.21984e-08
1.2254e-08
1.23065e-08
1.23559e-08
1.24024e-08
1.24462e-08
1.24874e-08
1.25262e-08
1.25626e-08
1.25969e-08
1.2629e-08
1.26592e-08
1.26874e-08
1.2714e-08
1.27389e-08
1.27622e-08
1.2784e-08
1.28044e-08
1.28235e-08
1.28414e-08
1.28581e-08
1.28737e-08
1.28883e-08
1.29019e-08
1.29146e-08
1.29264e-08
1.29375e-08
1.29478e-08
1.29574e-08
1.29663e-08
1.29746e-08
1.29823e-08
1.29895e-08
1.29962e-08
1.30024e-08
1.30082e-08
1.30135e-08
1.30185e-08
1.30231e-08
1.30273e-08
1.30313e-08
1.30349e-08
1.30383e-08
1.30414e-08
1.30443e-08
1.3047e-08
1.30495e-08
1.30517e-08
1.30538e-08
1.30558e-08
1.30576e-08
1.30592e-08
1.30607e-08
1.30621e-08
1.30634e-08
1.30646e-08
1.30656e-08
1.30666e-08
1.30675e-08
1.30683e-08
1.30691e-08
1.30698e-08
1.30704e-08
1.30709e-08
1.30715e-08
1.30719e-08
1.30724e-08
1.30727e-08
1.30731e-08
1.30733e-08
1.30737e-08
1.30738e-08
1.30741e-08
1.30742e-08
1.30745e-08
1.30745e-08
1.30749e-08
1.30748e-08
1.30752e-08
1.30751e-08
1.30757e-08
1.30756e-08
1.30762e-08
1.30762e-08
1.30767e-08
1.30767e-08
1.30771e-08
1.30771e-08
1.30773e-08
1.30773e-08
1.30774e-08
1.30773e-08
1.30774e-08
1.30773e-08
1.30774e-08
1.30773e-08
1.30773e-08
1.30773e-08
1.30773e-08
1.30773e-08
1.30773e-08
1.30775e-08
1.30775e-08
1.30845e-08
1.31605e-08
2.05704e-09
1.58135e-09
1.72088e-09
2.03846e-09
2.38877e-09
2.72895e-09
3.08633e-09
3.47322e-09
3.88354e-09
4.31317e-09
4.75986e-09
5.20358e-09
5.62768e-09
6.04309e-09
6.45881e-09
6.87754e-09
7.3001e-09
7.72391e-09
8.14499e-09
8.56162e-09
8.97205e-09
9.374e-09
9.76564e-09
1.01465e-08
1.05169e-08
1.0877e-08
1.12269e-08
1.15663e-08
1.18949e-08
1.22126e-08
1.25192e-08
1.28147e-08
1.30992e-08
1.33726e-08
1.36351e-08
1.38869e-08
1.4128e-08
1.43587e-08
1.45792e-08
1.47898e-08
1.49907e-08
1.51822e-08
1.53645e-08
1.55381e-08
1.57031e-08
1.58599e-08
1.60088e-08
1.615e-08
1.6284e-08
1.6411e-08
1.65312e-08
1.6645e-08
1.67526e-08
1.68544e-08
1.69506e-08
1.70415e-08
1.71272e-08
1.72081e-08
1.72844e-08
1.73563e-08
1.74241e-08
1.74878e-08
1.75479e-08
1.76044e-08
1.76575e-08
1.77074e-08
1.77544e-08
1.77984e-08
1.78398e-08
1.78786e-08
1.7915e-08
1.79491e-08
1.79811e-08
1.80111e-08
1.80392e-08
1.80654e-08
1.809e-08
1.8113e-08
1.81345e-08
1.81545e-08
1.81733e-08
1.81908e-08
1.82071e-08
1.82224e-08
1.82366e-08
1.82498e-08
1.82622e-08
1.82737e-08
1.82844e-08
1.82943e-08
1.83036e-08
1.83122e-08
1.83202e-08
1.83276e-08
1.83345e-08
1.83409e-08
1.83469e-08
1.83524e-08
1.83575e-08
1.83622e-08
1.83666e-08
1.83706e-08
1.83744e-08
1.83778e-08
1.8381e-08
1.8384e-08
1.83867e-08
1.83892e-08
1.83915e-08
1.83937e-08
1.83956e-08
1.83974e-08
1.83991e-08
1.84006e-08
1.8402e-08
1.84033e-08
1.84045e-08
1.84056e-08
1.84066e-08
1.84075e-08
1.84083e-08
1.8409e-08
1.84097e-08
1.84103e-08
1.84108e-08
1.84114e-08
1.84118e-08
1.84122e-08
1.84125e-08
1.84129e-08
1.84131e-08
1.84135e-08
1.84135e-08
1.84139e-08
1.84139e-08
1.84144e-08
1.84143e-08
1.84148e-08
1.84147e-08
1.84154e-08
1.84153e-08
1.8416e-08
1.84159e-08
1.84166e-08
1.84166e-08
1.84171e-08
1.8417e-08
1.84173e-08
1.84173e-08
1.84174e-08
1.84173e-08
1.84174e-08
1.84173e-08
1.84174e-08
1.84173e-08
1.84173e-08
1.84172e-08
1.84173e-08
1.84172e-08
1.84173e-08
1.84175e-08
1.84176e-08
1.8426e-08
1.85097e-08
2.89016e-09
2.43672e-09
2.69396e-09
3.1912e-09
3.70838e-09
4.20913e-09
4.73449e-09
5.29756e-09
5.8874e-09
6.49826e-09
7.1287e-09
7.74382e-09
8.32745e-09
8.89387e-09
9.45558e-09
1.00176e-08
1.05797e-08
1.11372e-08
1.16865e-08
1.22255e-08
1.27521e-08
1.32636e-08
1.37581e-08
1.42353e-08
1.4696e-08
1.51407e-08
1.55695e-08
1.59826e-08
1.63799e-08
1.67614e-08
1.71274e-08
1.74781e-08
1.78138e-08
1.81348e-08
1.84416e-08
1.87345e-08
1.90141e-08
1.92803e-08
1.95335e-08
1.97742e-08
2.00027e-08
2.02196e-08
2.04253e-08
2.06203e-08
2.08051e-08
2.098e-08
2.11455e-08
2.13021e-08
2.14502e-08
2.15901e-08
2.17222e-08
2.18469e-08
2.19647e-08
2.20757e-08
2.21804e-08
2.22791e-08
2.23721e-08
2.24597e-08
2.25422e-08
2.26198e-08
2.26928e-08
2.27614e-08
2.28259e-08
2.28866e-08
2.29435e-08
2.2997e-08
2.30472e-08
2.30943e-08
2.31384e-08
2.31798e-08
2.32187e-08
2.3255e-08
2.32891e-08
2.3321e-08
2.33508e-08
2.33787e-08
2.34048e-08
2.34292e-08
2.3452e-08
2.34733e-08
2.34932e-08
2.35118e-08
2.35291e-08
2.35453e-08
2.35603e-08
2.35744e-08
2.35874e-08
2.35996e-08
2.36109e-08
2.36215e-08
2.36313e-08
2.36404e-08
2.36489e-08
2.36567e-08
2.3664e-08
2.36708e-08
2.36771e-08
2.36829e-08
2.36883e-08
2.36933e-08
2.36979e-08
2.37022e-08
2.37061e-08
2.37098e-08
2.37132e-08
2.37163e-08
2.37192e-08
2.37218e-08
2.37243e-08
2.37265e-08
2.37286e-08
2.37305e-08
2.37323e-08
2.37339e-08
2.37354e-08
2.37367e-08
2.3738e-08
2.37391e-08
2.37402e-08
2.37411e-08
2.3742e-08
2.37428e-08
2.37435e-08
2.37441e-08
2.37447e-08
2.37453e-08
2.37457e-08
2.37462e-08
2.37465e-08
2.37469e-08
2.37471e-08
2.37475e-08
2.37475e-08
2.3748e-08
2.37479e-08
2.37484e-08
2.37483e-08
2.37489e-08
2.37487e-08
2.37495e-08
2.37494e-08
2.37502e-08
2.37501e-08
2.37508e-08
2.37508e-08
2.37513e-08
2.37513e-08
2.37516e-08
2.37515e-08
2.37517e-08
2.37516e-08
2.37517e-08
2.37516e-08
2.37516e-08
2.37515e-08
2.37516e-08
2.37515e-08
2.37515e-08
2.37515e-08
2.37515e-08
2.37517e-08
2.37518e-08
2.37608e-08
2.38391e-08
3.90213e-09
3.55528e-09
3.98235e-09
4.70571e-09
5.41706e-09
6.1082e-09
6.8299e-09
7.59419e-09
8.38335e-09
9.1908e-09
1.00164e-08
1.08071e-08
1.15512e-08
1.22664e-08
1.29684e-08
1.36642e-08
1.43531e-08
1.50294e-08
1.56895e-08
1.63309e-08
1.69515e-08
1.75487e-08
1.81209e-08
1.86688e-08
1.91941e-08
1.96982e-08
2.01804e-08
2.06407e-08
2.10796e-08
2.14976e-08
2.18953e-08
2.22733e-08
2.26323e-08
2.29728e-08
2.32957e-08
2.36016e-08
2.38911e-08
2.41654e-08
2.44252e-08
2.46712e-08
2.4904e-08
2.51243e-08
2.53326e-08
2.55294e-08
2.57154e-08
2.58911e-08
2.6057e-08
2.62135e-08
2.63612e-08
2.65005e-08
2.66318e-08
2.67556e-08
2.68722e-08
2.69821e-08
2.70855e-08
2.71829e-08
2.72746e-08
2.73608e-08
2.74418e-08
2.75181e-08
2.75897e-08
2.7657e-08
2.77202e-08
2.77796e-08
2.78353e-08
2.78875e-08
2.79366e-08
2.79826e-08
2.80257e-08
2.80661e-08
2.81039e-08
2.81393e-08
2.81725e-08
2.82036e-08
2.82326e-08
2.82598e-08
2.82852e-08
2.83089e-08
2.83311e-08
2.83518e-08
2.83711e-08
2.83891e-08
2.8406e-08
2.84216e-08
2.84363e-08
2.84499e-08
2.84626e-08
2.84744e-08
2.84854e-08
2.84956e-08
2.85051e-08
2.85139e-08
2.85222e-08
2.85298e-08
2.85369e-08
2.85434e-08
2.85495e-08
2.85552e-08
2.85604e-08
2.85652e-08
2.85697e-08
2.85739e-08
2.85777e-08
2.85812e-08
2.85845e-08
2.85875e-08
2.85903e-08
2.85929e-08
2.85953e-08
2.85975e-08
2.85995e-08
2.86013e-08
2.8603e-08
2.86046e-08
2.8606e-08
2.86073e-08
2.86086e-08
2.86097e-08
2.86107e-08
2.86116e-08
2.86124e-08
2.86132e-08
2.86139e-08
2.86145e-08
2.8615e-08
2.86156e-08
2.8616e-08
2.86165e-08
2.86168e-08
2.86172e-08
2.86173e-08
2.86177e-08
2.86178e-08
2.86182e-08
2.86182e-08
2.86187e-08
2.86185e-08
2.86191e-08
2.8619e-08
2.86197e-08
2.86196e-08
2.86204e-08
2.86203e-08
2.8621e-08
2.86209e-08
2.86215e-08
2.86214e-08
2.86217e-08
2.86216e-08
2.86218e-08
2.86217e-08
2.86218e-08
2.86217e-08
2.86218e-08
2.86217e-08
2.86217e-08
2.86216e-08
2.86217e-08
2.86216e-08
2.86217e-08
2.86219e-08
2.8622e-08
2.86306e-08
2.86886e-08
5.15839e-09
4.96699e-09
5.61688e-09
6.60202e-09
7.52701e-09
8.42958e-09
9.36557e-09
1.03437e-08
1.13355e-08
1.23375e-08
1.33504e-08
1.43035e-08
1.5192e-08
1.60366e-08
1.68564e-08
1.76598e-08
1.84463e-08
1.92106e-08
1.99501e-08
2.06626e-08
2.13434e-08
2.19899e-08
2.2601e-08
2.31779e-08
2.37227e-08
2.42372e-08
2.47244e-08
2.51859e-08
2.56228e-08
2.60362e-08
2.6427e-08
2.67964e-08
2.71453e-08
2.7475e-08
2.77862e-08
2.808e-08
2.83574e-08
2.86193e-08
2.88663e-08
2.90994e-08
2.93192e-08
2.95265e-08
2.97219e-08
2.99061e-08
3.00796e-08
3.02431e-08
3.03971e-08
3.05421e-08
3.06786e-08
3.08071e-08
3.0928e-08
3.10417e-08
3.11488e-08
3.12494e-08
3.1344e-08
3.1433e-08
3.15166e-08
3.15951e-08
3.16689e-08
3.17382e-08
3.18032e-08
3.18643e-08
3.19216e-08
3.19753e-08
3.20257e-08
3.2073e-08
3.21173e-08
3.21589e-08
3.21978e-08
3.22342e-08
3.22683e-08
3.23002e-08
3.23301e-08
3.23581e-08
3.23842e-08
3.24086e-08
3.24315e-08
3.24528e-08
3.24727e-08
3.24913e-08
3.25087e-08
3.25248e-08
3.25399e-08
3.2554e-08
3.25671e-08
3.25794e-08
3.25907e-08
3.26013e-08
3.26112e-08
3.26203e-08
3.26289e-08
3.26368e-08
3.26441e-08
3.2651e-08
3.26573e-08
3.26632e-08
3.26687e-08
3.26737e-08
3.26784e-08
3.26827e-08
3.26867e-08
3.26905e-08
3.26939e-08
3.26971e-08
3.27e-08
3.27027e-08
3.27052e-08
3.27075e-08
3.27096e-08
3.27116e-08
3.27134e-08
3.27151e-08
3.27166e-08
3.2718e-08
3.27193e-08
3.27204e-08
3.27215e-08
3.27225e-08
3.27234e-08
3.27242e-08
3.2725e-08
3.27257e-08
3.27263e-08
3.27269e-08
3.27273e-08
3.27278e-08
3.27282e-08
3.27286e-08
3.27289e-08
3.27292e-08
3.27294e-08
3.27298e-08
3.27298e-08
3.27302e-08
3.27301e-08
3.27306e-08
3.27304e-08
3.2731e-08
3.27308e-08
3.27315e-08
3.27314e-08
3.27321e-08
3.2732e-08
3.27327e-08
3.27326e-08
3.27331e-08
3.2733e-08
3.27333e-08
3.27332e-08
3.27334e-08
3.27333e-08
3.27334e-08
3.27333e-08
3.27334e-08
3.27333e-08
3.27333e-08
3.27332e-08
3.27333e-08
3.27332e-08
3.27333e-08
3.27335e-08
3.27335e-08
3.27412e-08
3.27636e-08
6.7275e-09
6.69625e-09
7.61317e-09
8.87943e-09
1.00277e-08
1.11504e-08
1.23052e-08
1.34961e-08
1.467e-08
1.58482e-08
1.7021e-08
1.81075e-08
1.9108e-08
2.00481e-08
2.09521e-08
2.1827e-08
2.26689e-08
2.34714e-08
2.42308e-08
2.49463e-08
2.5621e-08
2.62547e-08
2.68477e-08
2.74027e-08
2.79231e-08
2.84122e-08
2.88722e-08
2.93049e-08
2.97117e-08
3.00942e-08
3.04536e-08
3.07915e-08
3.1109e-08
3.14075e-08
3.1688e-08
3.19516e-08
3.21994e-08
3.24323e-08
3.26512e-08
3.2857e-08
3.30504e-08
3.32321e-08
3.34029e-08
3.35634e-08
3.37142e-08
3.38559e-08
3.39891e-08
3.41142e-08
3.42317e-08
3.43421e-08
3.44457e-08
3.45431e-08
3.46345e-08
3.47204e-08
3.4801e-08
3.48767e-08
3.49477e-08
3.50143e-08
3.50769e-08
3.51355e-08
3.51905e-08
3.52421e-08
3.52905e-08
3.53358e-08
3.53783e-08
3.54181e-08
3.54554e-08
3.54904e-08
3.55231e-08
3.55537e-08
3.55823e-08
3.56091e-08
3.56342e-08
3.56576e-08
3.56795e-08
3.57e-08
3.57191e-08
3.5737e-08
3.57536e-08
3.57692e-08
3.57837e-08
3.57972e-08
3.58099e-08
3.58216e-08
3.58326e-08
3.58428e-08
3.58523e-08
3.58612e-08
3.58694e-08
3.5877e-08
3.58842e-08
3.58908e-08
3.58969e-08
3.59026e-08
3.59079e-08
3.59128e-08
3.59174e-08
3.59216e-08
3.59255e-08
3.59291e-08
3.59325e-08
3.59356e-08
3.59384e-08
3.59411e-08
3.59435e-08
3.59458e-08
3.59479e-08
3.59498e-08
3.59516e-08
3.59532e-08
3.59547e-08
3.59561e-08
3.59573e-08
3.59585e-08
3.59596e-08
3.59606e-08
3.59615e-08
3.59623e-08
3.5963e-08
3.59637e-08
3.59643e-08
3.59649e-08
3.59654e-08
3.59659e-08
3.59663e-08
3.59667e-08
3.5967e-08
3.59674e-08
3.59676e-08
3.59679e-08
3.5968e-08
3.59683e-08
3.59684e-08
3.59687e-08
3.59686e-08
3.5969e-08
3.59689e-08
3.59694e-08
3.59692e-08
3.59698e-08
3.59697e-08
3.59703e-08
3.59702e-08
3.59708e-08
3.59707e-08
3.59711e-08
3.59711e-08
3.59713e-08
3.59712e-08
3.59714e-08
3.59713e-08
3.59714e-08
3.59713e-08
3.59713e-08
3.59713e-08
3.59713e-08
3.59712e-08
3.59713e-08
3.59712e-08
3.59713e-08
3.59714e-08
3.59715e-08
3.59778e-08
3.59492e-08
8.65513e-09
8.76152e-09
9.96826e-09
1.15194e-08
1.28879e-08
1.42244e-08
1.55875e-08
1.69678e-08
1.82871e-08
1.96069e-08
2.08977e-08
2.20788e-08
2.31464e-08
2.41261e-08
2.50412e-08
2.59058e-08
2.6725e-08
2.74956e-08
2.82174e-08
2.88924e-08
2.95222e-08
3.01077e-08
3.06506e-08
3.11542e-08
3.16226e-08
3.20592e-08
3.24667e-08
3.28471e-08
3.32022e-08
3.35339e-08
3.38436e-08
3.4133e-08
3.44034e-08
3.46563e-08
3.48927e-08
3.51139e-08
3.53208e-08
3.55145e-08
3.56959e-08
3.58657e-08
3.60247e-08
3.61737e-08
3.63133e-08
3.64441e-08
3.65666e-08
3.66815e-08
3.67892e-08
3.68902e-08
3.69848e-08
3.70736e-08
3.71568e-08
3.72348e-08
3.73079e-08
3.73765e-08
3.74408e-08
3.75011e-08
3.75576e-08
3.76106e-08
3.76602e-08
3.77067e-08
3.77503e-08
3.77912e-08
3.78295e-08
3.78653e-08
3.78989e-08
3.79303e-08
3.79598e-08
3.79873e-08
3.80131e-08
3.80372e-08
3.80598e-08
3.80809e-08
3.81006e-08
3.8119e-08
3.81363e-08
3.81523e-08
3.81674e-08
3.81814e-08
3.81945e-08
3.82067e-08
3.82181e-08
3.82288e-08
3.82387e-08
3.82479e-08
3.82565e-08
3.82645e-08
3.8272e-08
3.82789e-08
3.82854e-08
3.82914e-08
3.82969e-08
3.83021e-08
3.83069e-08
3.83114e-08
3.83156e-08
3.83194e-08
3.8323e-08
3.83263e-08
3.83293e-08
3.83322e-08
3.83348e-08
3.83372e-08
3.83395e-08
3.83415e-08
3.83435e-08
3.83452e-08
3.83469e-08
3.83484e-08
3.83498e-08
3.8351e-08
3.83522e-08
3.83533e-08
3.83543e-08
3.83552e-08
3.8356e-08
3.83568e-08
3.83575e-08
3.83582e-08
3.83587e-08
3.83593e-08
3.83598e-08
3.83602e-08
3.83606e-08
3.8361e-08
3.83613e-08
3.83616e-08
3.83619e-08
3.83622e-08
3.83623e-08
3.83626e-08
3.83626e-08
3.83629e-08
3.83629e-08
3.83632e-08
3.83631e-08
3.83634e-08
3.83633e-08
3.83637e-08
3.83636e-08
3.83641e-08
3.83639e-08
3.83644e-08
3.83643e-08
3.83648e-08
3.83647e-08
3.83651e-08
3.8365e-08
3.83652e-08
3.83652e-08
3.83653e-08
3.83652e-08
3.83653e-08
3.83652e-08
3.83653e-08
3.83652e-08
3.83652e-08
3.83652e-08
3.83652e-08
3.83652e-08
3.83652e-08
3.83653e-08
3.83654e-08
3.83703e-08
3.82752e-08
1.09546e-08
1.11756e-08
1.26718e-08
1.44976e-08
1.60698e-08
1.75982e-08
1.91448e-08
2.06601e-08
2.20785e-08
2.34809e-08
2.48198e-08
2.60017e-08
2.70439e-08
2.79837e-08
2.88507e-08
2.96606e-08
3.04176e-08
3.11207e-08
3.17713e-08
3.23724e-08
3.29269e-08
3.34365e-08
3.3904e-08
3.43333e-08
3.47289e-08
3.50943e-08
3.54324e-08
3.57455e-08
3.60357e-08
3.63047e-08
3.65543e-08
3.67861e-08
3.70015e-08
3.72017e-08
3.7388e-08
3.75615e-08
3.77232e-08
3.78739e-08
3.80144e-08
3.81456e-08
3.82681e-08
3.83825e-08
3.84894e-08
3.85893e-08
3.86828e-08
3.87702e-08
3.88519e-08
3.89284e-08
3.90001e-08
3.90671e-08
3.91299e-08
3.91887e-08
3.92437e-08
3.92953e-08
3.93436e-08
3.93889e-08
3.94312e-08
3.94709e-08
3.95081e-08
3.9543e-08
3.95756e-08
3.96061e-08
3.96347e-08
3.96615e-08
3.96866e-08
3.971e-08
3.9732e-08
3.97525e-08
3.97718e-08
3.97897e-08
3.98065e-08
3.98223e-08
3.9837e-08
3.98507e-08
3.98635e-08
3.98755e-08
3.98867e-08
3.98971e-08
3.99069e-08
3.9916e-08
3.99245e-08
3.99324e-08
3.99397e-08
3.99466e-08
3.9953e-08
3.9959e-08
3.99645e-08
3.99697e-08
3.99745e-08
3.99789e-08
3.99831e-08
3.99869e-08
3.99905e-08
3.99938e-08
3.99969e-08
3.99998e-08
4.00024e-08
4.00049e-08
4.00072e-08
4.00093e-08
4.00112e-08
4.0013e-08
4.00147e-08
4.00162e-08
4.00177e-08
4.0019e-08
4.00202e-08
4.00213e-08
4.00223e-08
4.00233e-08
4.00242e-08
4.0025e-08
4.00257e-08
4.00264e-08
4.0027e-08
4.00276e-08
4.00281e-08
4.00286e-08
4.0029e-08
4.00294e-08
4.00298e-08
4.00301e-08
4.00304e-08
4.00307e-08
4.00309e-08
4.00312e-08
4.00313e-08
4.00316e-08
4.00317e-08
4.00319e-08
4.00319e-08
4.00321e-08
4.00321e-08
4.00323e-08
4.00323e-08
4.00325e-08
4.00324e-08
4.00327e-08
4.00326e-08
4.0033e-08
4.00329e-08
4.00333e-08
4.00332e-08
4.00335e-08
4.00335e-08
4.00338e-08
4.00337e-08
4.00339e-08
4.00338e-08
4.00339e-08
4.00338e-08
4.00339e-08
4.00338e-08
4.00339e-08
4.00338e-08
4.00338e-08
4.00338e-08
4.00338e-08
4.00338e-08
4.00338e-08
4.00339e-08
4.00339e-08
4.00376e-08
3.98596e-08
1.50921e-08
1.54548e-08
1.73554e-08
1.95391e-08
2.13678e-08
2.31426e-08
2.48954e-08
2.65216e-08
2.79739e-08
2.93441e-08
3.05836e-08
3.1646e-08
3.25571e-08
3.33569e-08
3.40775e-08
3.47335e-08
3.53319e-08
3.58746e-08
3.63656e-08
3.68095e-08
3.72105e-08
3.7572e-08
3.78972e-08
3.81907e-08
3.84568e-08
3.86989e-08
3.89197e-08
3.91215e-08
3.93063e-08
3.94758e-08
3.96313e-08
3.97745e-08
3.99063e-08
4.00279e-08
4.01403e-08
4.02443e-08
4.03407e-08
4.04301e-08
4.05131e-08
4.05902e-08
4.0662e-08
4.07288e-08
4.07911e-08
4.08492e-08
4.09035e-08
4.09541e-08
4.10014e-08
4.10456e-08
4.10869e-08
4.11256e-08
4.11618e-08
4.11957e-08
4.12274e-08
4.12571e-08
4.12849e-08
4.13109e-08
4.13353e-08
4.13582e-08
4.13796e-08
4.13996e-08
4.14184e-08
4.1436e-08
4.14524e-08
4.14679e-08
4.14823e-08
4.14958e-08
4.15085e-08
4.15203e-08
4.15314e-08
4.15418e-08
4.15515e-08
4.15605e-08
4.1569e-08
4.15769e-08
4.15843e-08
4.15913e-08
4.15977e-08
4.16038e-08
4.16094e-08
4.16146e-08
4.16195e-08
4.16241e-08
4.16284e-08
4.16323e-08
4.1636e-08
4.16395e-08
4.16427e-08
4.16457e-08
4.16485e-08
4.1651e-08
4.16534e-08
4.16557e-08
4.16577e-08
4.16597e-08
4.16614e-08
4.16631e-08
4.16646e-08
4.16661e-08
4.16674e-08
4.16686e-08
4.16697e-08
4.16708e-08
4.16717e-08
4.16726e-08
4.16734e-08
4.16742e-08
4.16749e-08
4.16756e-08
4.16762e-08
4.16767e-08
4.16772e-08
4.16777e-08
4.16781e-08
4.16785e-08
4.16789e-08
4.16792e-08
4.16795e-08
4.16798e-08
4.168e-08
4.16803e-08
4.16805e-08
4.16807e-08
4.16808e-08
4.1681e-08
4.16811e-08
4.16813e-08
4.16813e-08
4.16815e-08
4.16815e-08
4.16817e-08
4.16817e-08
4.16818e-08
4.16818e-08
4.1682e-08
4.16819e-08
4.16821e-08
4.1682e-08
4.16822e-08
4.16821e-08
4.16823e-08
4.16822e-08
4.16825e-08
4.16824e-08
4.16827e-08
4.16826e-08
4.16828e-08
4.16827e-08
4.16828e-08
4.16827e-08
4.16828e-08
4.16828e-08
4.16828e-08