/*--------------------------------*- C++ -*----------------------------------*\
| =========                 |                                                 |
| \\      /  F ield         | OpenFOAM: The Open Source CFD Toolbox           |
|  \\    /   O peration     | Version:  v1912                                 |
|   \\  /    A nd           | Website:  www.openfoam.com                      |
|    \\/     M anipulation  |                                                 |
\*---------------------------------------------------------------------------*/
FoamFile
{
    version     2.0;
    format      ascii;
    class       surfaceScalarField;
    location    "20";
    object      phi;
}
// * * * * * * * * * * * * * * * * * * * * * * * * * * * * * * * * * * * * * //

dimensions      [0 3 -1 0 0 0 0];
oriented        oriented;


internalField   nonuniform List<scalar> 
28285
(
0.126852
0.00418213
0.122402
0.00444926
0.117671
0.00473167
0.112637
0.00503379
0.107279
0.00535811
0.101574
0.00570446
0.0955033
0.00607107
0.0890491
0.00645423
0.0822018
0.00684724
0.0749609
0.00724089
0.0673378
0.00762312
0.0593573
0.0079805
0.0510583
0.008299
0.0424929
0.00856548
0.0337246
0.00876823
0.0248264
0.00889824
0.0158768
0.00894958
0.00695902
0.00891779
-0.00183931
0.00879833
-0.0104324
0.00859312
-0.0187383
0.00830584
-0.0266709
0.0079326
-0.0341509
0.00748004
-0.0411159
0.00696502
-0.0475271
0.00641114
-0.0533719
0.00584486
-0.0586651
0.00529313
-0.0634445
0.00477943
-0.0677653
0.00432084
-0.0716899
0.00392454
-0.0752791
0.00358922
-0.0785846
0.0033055
-0.0816454
0.00306079
-0.0844844
0.00283899
-0.0871088
0.0026244
-0.0895141
0.0024053
-0.0916857
0.00217163
-0.093604
0.00191831
-0.0952465
0.00164247
-0.096591
0.00134454
-0.0976186
0.00102761
-0.0983158
0.00069717
-0.0986809
0.000365139
-0.098682
1.03652e-06
-0.0983481
-0.00033385
-0.0976946
-0.000653561
-0.0967441
-0.00095044
-0.0955257
-0.00121842
-0.0940731
-0.0014526
-0.0924236
-0.0016495
-0.0906165
-0.00180715
-0.0886914
-0.00192507
-0.0866874
-0.00200402
-0.0846413
-0.00204604
-0.0825871
-0.00205422
-0.0805548
-0.00203233
-0.0785701
-0.00198468
-0.076654
-0.0019161
-0.0748224
-0.00183159
-0.0730863
-0.00173615
-0.0714517
-0.00163459
-0.0699203
-0.00153136
-0.0684899
-0.00143044
-0.0671546
-0.00133524
-0.065906
-0.0012486
-0.0647333
-0.00117272
-0.0636241
-0.00110921
-0.062565
-0.00105905
-0.0615424
-0.0010227
-0.0605423
-0.00100009
-0.0595515
-0.000990751
-0.0585577
-0.000993841
-0.0575494
-0.00100823
-0.0565169
-0.0010326
-0.0554513
-0.00106553
-0.0543458
-0.00110554
-0.0531946
-0.00115118
-0.0519934
-0.00120117
-0.050739
-0.00125447
-0.0494283
-0.0013107
-0.0480578
-0.0013705
-0.0466214
-0.00143641
-0.0451047
-0.0015167
-0.0434575
-0.00164717
-0.0416178
-0.00183971
-0.00198232
-0.0396355
0.126856
0.0083658
0.122407
0.0088982
0.117675
0.00946348
0.11264
0.0100684
0.107281
0.0107179
0.101573
0.0114118
0.0954981
0.0121464
0.0890383
0.012914
0.0821843
0.0137012
0.0749358
0.0144893
0.0673049
0.0152541
0.0593169
0.0159685
0.0510114
0.0166045
0.0424408
0.0171361
0.033669
0.01754
0.0247688
0.0177985
0.0158185
0.0178999
0.00690028
0.017836
-0.00190001
0.0175986
-0.0104982
0.0171913
-0.0188078
0.0166154
-0.0267439
0.0158687
-0.0342275
0.0149637
-0.0411952
0.0139327
-0.0476067
0.0128226
-0.0534489
0.0116871
-0.0587368
0.0105811
-0.0635089
0.00955156
-0.0678214
0.00863332
-0.0717378
0.00784091
-0.0753199
0.00717136
-0.0786201
0.00660564
-0.0816775
0.00611824
-0.0845153
0.00567675
-0.0871402
0.00524935
-0.0895475
0.00481256
-0.091722
0.00434613
-0.0936436
0.00383992
-0.0952893
0.00328821
-0.0966367
0.00269196
-0.0976665
0.0020574
-0.098365
0.0013956
-0.0987303
0.000730465
-0.0987303
1.02367e-06
-0.0983942
-0.000669917
-0.0977374
-0.00131034
-0.0967829
-0.00190498
-0.0955597
-0.00244165
-0.0941018
-0.0029105
-0.0924467
-0.0033046
-0.0906338
-0.00361999
-0.0887032
-0.00385571
-0.0866939
-0.00401334
-0.0846429
-0.00409695
-0.0825844
-0.00411277
-0.0805483
-0.00406837
-0.0785607
-0.00397237
-0.0766422
-0.00383451
-0.0748091
-0.00366477
-0.073072
-0.00347321
-0.0714372
-0.00326945
-0.0699061
-0.00306242
-0.0684765
-0.00286007
-0.0671424
-0.00266927
-0.0658954
-0.00249567
-0.0647244
-0.00234369
-0.0636171
-0.00221651
-0.06256
-0.00211613
-0.0615393
-0.00204342
-0.0605411
-0.00199827
-0.0595521
-0.00197972
-0.0585599
-0.00198605
-0.0575532
-0.00201501
-0.0565218
-0.00206396
-0.0554573
-0.00213003
-0.0543526
-0.00221026
-0.053202
-0.00230174
-0.0520013
-0.00240186
-0.0507472
-0.00250857
-0.0494369
-0.002621
-0.0480674
-0.00274003
-0.0466334
-0.00287043
-0.0451208
-0.00302925
-0.0434954
-0.00327253
-0.0417764
-0.00355874
-0.00376193
-0.0399968
0.126911
0.0125461
0.122466
0.0133426
0.11774
0.01419
0.112711
0.0150974
0.107357
0.016072
0.101655
0.0171138
0.0955835
0.0182174
0.0891261
0.0193715
0.0822718
0.0205554
0.07502
0.0217412
0.0673821
0.0228919
0.0593839
0.0239667
0.0510652
0.0249232
0.0424793
0.025722
0.0336909
0.0263284
0.0247729
0.0267164
0.0158042
0.0268687
0.00686691
0.0267732
-0.00195433
0.0264199
-0.0105745
0.0258115
-0.0189059
0.0249468
-0.0268622
0.023825
-0.0343628
0.0224643
-0.0413418
0.0209117
-0.047758
0.0192388
-0.0535986
0.0175277
-0.0588782
0.0158606
-0.0636367
0.01431
-0.067933
0.0129297
-0.0718332
0.0117411
-0.0754011
0.0107393
-0.0786906
0.00989514
-0.0817415
0.0091691
-0.0845768
0.0085121
-0.0872029
0.00787543
-0.0896141
0.00722377
-0.0917943
0.00652638
-0.0937225
0.0057681
-0.0953748
0.00494047
-0.0967279
0.00404507
-0.097762
0.00309151
-0.098463
0.00209659
-0.0988285
0.00109601
-0.0988263
-1.18449e-06
-0.0984859
-0.00101031
-0.0978227
-0.00197355
-0.09686
-0.00286775
-0.0956271
-0.00367453
-0.0941585
-0.00437907
-0.0924922
-0.00497094
-0.0906679
-0.00544422
-0.0887261
-0.00579753
-0.0867062
-0.00603326
-0.0846455
-0.00615763
-0.0825783
-0.00618002
-0.0805348
-0.00611186
-0.0785411
-0.00596611
-0.076618
-0.00575753
-0.0747817
-0.00550113
-0.0730428
-0.00521206
-0.0714075
-0.00490482
-0.069877
-0.00459284
-0.068449
-0.00428809
-0.0671174
-0.00400087
-0.0658734
-0.00373968
-0.064706
-0.00351113
-0.0636025
-0.00331999
-0.0625494
-0.00316925
-0.0615326
-0.0030602
-0.0605382
-0.00299264
-0.0595528
-0.0029651
-0.0585639
-0.002975
-0.05756
-0.00301891
-0.0565311
-0.00309284
-0.0554686
-0.00319249
-0.0543656
-0.00331335
-0.0532163
-0.00345104
-0.0520165
-0.0036016
-0.0507632
-0.00376191
-0.0494536
-0.00393057
-0.0480852
-0.00410843
-0.0466563
-0.00429931
-0.0451616
-0.00452396
-0.0435884
-0.0048457
-0.0419521
-0.00519506
-0.00551489
-0.0401992
0.127001
0.016721
0.122564
0.0177805
0.117844
0.0189093
0.112823
0.0201188
0.107476
0.0214189
0.10178
0.0228102
0.0957114
0.0242856
0.089253
0.0258299
0.082393
0.0274154
0.0751302
0.029004
0.0674764
0.0305457
0.0594583
0.0319849
0.0511171
0.0332644
0.0425075
0.0343316
0.0336956
0.0351403
0.024755
0.0356571
0.0157641
0.0358595
0.00680379
0.0357335
-0.00204376
0.0352674
-0.010693
0.0344607
-0.0190544
0.0333082
-0.0270399
0.0318105
-0.034565
0.0299894
-0.0415606
0.0279073
-0.0479855
0.0256637
-0.0538246
0.0233668
-0.0590917
0.0211277
-0.0638295
0.0190478
-0.0681007
0.0172009
-0.0719761
0.0156165
-0.0755224
0.0142856
-0.0787958
0.0131685
-0.0818368
0.0122101
-0.0846686
0.0113439
-0.0872965
0.0105034
-0.0897138
0.0096411
-0.0919029
0.00871543
-0.0938411
0.00770631
-0.0955033
0.00660263
-0.096865
0.00540685
-0.0979057
0.00413219
-0.0986106
0.00280146
-0.0989765
0.00146189
-0.0989711
-6.55502e-06
-0.0986241
-0.00135734
-0.0979511
-0.00264648
-0.096976
-0.00384292
-0.0957285
-0.00492195
-0.0942439
-0.0058637
-0.0925606
-0.0066542
-0.0907192
-0.00728562
-0.0887606
-0.00775616
-0.0867247
-0.00806915
-0.0846494
-0.00823299
-0.0825691
-0.00826033
-0.0805144
-0.00816651
-0.0785116
-0.00796894
-0.0765816
-0.00768747
-0.0747405
-0.00734225
-0.072999
-0.00695358
-0.0713629
-0.00654094
-0.0698334
-0.0061223
-0.0684078
-0.00571366
-0.0670799
-0.0053288
-0.0658405
-0.00497905
-0.0646784
-0.00467324
-0.0635807
-0.00441772
-0.0625335
-0.00421641
-0.0615227
-0.00407103
-0.0605341
-0.00398126
-0.0595541
-0.00394509
-0.0585701
-0.00395904
-0.0575705
-0.00401846
-0.0565453
-0.00411802
-0.0554859
-0.00425189
-0.0543853
-0.004414
-0.0532378
-0.00459847
-0.0520395
-0.00479994
-0.0507873
-0.0050141
-0.0494791
-0.00523882
-0.0481131
-0.00547444
-0.0466886
-0.00572378
-0.0452037
-0.0060089
-0.043662
-0.00638736
-0.0420716
-0.00678544
-0.00716705
-0.0404195
0.127132
0.0208876
0.122704
0.0222084
0.117997
0.023617
0.112988
0.0251278
0.107653
0.0267535
0.101968
0.0284958
0.0959071
0.030346
0.0894517
0.0322853
0.0825886
0.0342785
0.0753157
0.036277
0.0676444
0.0382169
0.0596021
0.0400272
0.0512314
0.0416352
0.0425887
0.0429742
0.0337415
0.0439875
0.0247644
0.0446341
0.015737
0.044887
0.00673929
0.0447312
-0.00214859
0.0441553
-0.0108396
0.0431517
-0.0192443
0.0417129
-0.0272715
0.0398377
-0.0348309
0.0375488
-0.0418513
0.0349277
-0.0482891
0.0321015
-0.0541255
0.0292032
-0.0593756
0.0263778
-0.0640855
0.0237578
-0.0683236
0.021439
-0.0721654
0.0194583
-0.0756826
0.0178028
-0.0789345
0.0164203
-0.0819624
0.015238
-0.0847898
0.0141713
-0.0874205
0.0131341
-0.0898463
0.0120668
-0.0920473
0.0109165
-0.0939992
0.00965818
-0.0956748
0.0082782
-0.0970483
0.00678039
-0.0980979
0.00518179
-0.0988081
0.00351164
-0.0991744
0.00182819
-0.0991647
-1.62027e-05
-0.0988089
-0.00171316
-0.098123
-0.00333244
-0.0971311
-0.00483475
-0.0958642
-0.00618891
-0.094358
-0.00736989
-0.092652
-0.00836019
-0.0907876
-0.00915004
-0.0888064
-0.00973733
-0.0867491
-0.0101264
-0.0846541
-0.010328
-0.0825563
-0.0103581
-0.0804868
-0.0102361
-0.0784718
-0.00998392
-0.0765326
-0.00962664
-0.0746852
-0.00918968
-0.0729401
-0.00869865
-0.071303
-0.00817803
-0.0697749
-0.00765042
-0.0683527
-0.00713591
-0.0670297
-0.00665177
-0.0657966
-0.00621218
-0.0646416
-0.00582819
-0.0635516
-0.0055077
-0.0625124
-0.00525559
-0.0615096
-0.00507389
-0.0605287
-0.00496219
-0.0595559
-0.00491787
-0.0585784
-0.00493652
-0.0575846
-0.00501223
-0.0565644
-0.00513825
-0.0555091
-0.00530721
-0.0544117
-0.00551142
-0.0532667
-0.00574343
-0.0520702
-0.00599642
-0.0508195
-0.00626482
-0.0495128
-0.00654547
-0.0481494
-0.00683785
-0.0467298
-0.00714341
-0.0452561
-0.00748255
-0.0437406
-0.00790292
-0.0421876
-0.00833846
-0.00878122
-0.0405734
0.127302
0.025044
0.122886
0.0266241
0.118192
0.0283105
0.113199
0.0301213
0.10788
0.0320726
0.102208
0.0341678
0.0961569
0.036397
0.0897046
0.0387375
0.0828365
0.0411466
0.0755491
0.0435645
0.0678539
0.045912
0.0597794
0.0481017
0.0513704
0.0500442
0.0426859
0.0516588
0.0337959
0.0528775
0.0247763
0.0536538
0.0157062
0.053957
0.00666405
0.0537734
-0.00227226
0.0530916
-0.0110159
0.0518954
-0.0194764
0.0501734
-0.0275586
0.0479199
-0.0351646
0.0451548
-0.04222
0.0419831
-0.0486751
0.0385566
-0.0545081
0.0350362
-0.0597357
0.0316054
-0.0644091
0.0284311
-0.0686035
0.0256335
-0.0724019
0.0232567
-0.0758817
0.0212826
-0.079106
0.0196446
-0.0821176
0.0182496
-0.0849395
0.0169933
-0.0875741
0.0157686
-0.0900109
0.0145036
-0.0922275
0.0131331
-0.0941968
0.0116276
-0.0958897
0.00997102
-0.0972782
0.00816895
-0.0983391
0.00624272
-0.0990562
0.00422867
-0.099423
0.00219506
-0.0994081
-3.11672e-05
-0.0990411
-0.00208014
-0.0983387
-0.00403485
-0.0973258
-0.0058476
-0.0960342
-0.0074805
-0.0945009
-0.00890327
-0.0927663
-0.0100948
-0.0908729
-0.0110434
-0.0888634
-0.0117469
-0.0867792
-0.0122105
-0.0846595
-0.0124477
-0.0825398
-0.0124779
-0.0804515
-0.0123244
-0.0784213
-0.0120141
-0.0764706
-0.0115774
-0.0746153
-0.011045
-0.0728658
-0.0104481
-0.0712276
-0.00981624
-0.0697013
-0.00917677
-0.0682833
-0.00855391
-0.0669666
-0.00796844
-0.0657413
-0.00743743
-0.0645954
-0.00697411
-0.0635152
-0.00658794
-0.0624861
-0.00628469
-0.0614932
-0.00606673
-0.060522
-0.00593344
-0.0595583
-0.0058816
-0.058589
-0.00590576
-0.0576025
-0.00599873
-0.0565885
-0.00615229
-0.0555383
-0.00635743
-0.0544449
-0.00660481
-0.053303
-0.00688533
-0.0521087
-0.00719065
-0.0508597
-0.0075138
-0.0495549
-0.00785036
-0.0481941
-0.00819858
-0.0467789
-0.00855863
-0.0453135
-0.00894791
-0.0438141
-0.00940232
-0.0422854
-0.00986721
-0.0103535
-0.0407131
0.12751
0.0291875
0.12311
0.0310242
0.118435
0.0329856
0.113461
0.0350947
0.108162
0.0373715
0.102509
0.0398217
0.0964706
0.0424349
0.0900238
0.0451844
0.083151
0.0480193
0.0758473
0.0508682
0.0681242
0.0536351
0.0600112
0.0562147
0.0515555
0.0584999
0.0428192
0.0603951
0.0338746
0.0618221
0.0247997
0.0627286
0.0156751
0.0630816
0.00657719
0.0628714
-0.00241833
0.0620871
-0.0112251
0.0607021
-0.0197529
0.0587012
-0.0279013
0.0560684
-0.0355647
0.0528182
-0.0426627
0.049081
-0.0491384
0.0450323
-0.0549671
0.0408649
-0.0601672
0.0368055
-0.0647957
0.0330596
-0.0689372
0.029775
-0.0726824
0.0270019
-0.0761166
0.0247167
-0.079308
0.022836
-0.0823003
0.021242
-0.0851164
0.0198093
-0.0877563
0.0184085
-0.0902069
0.0169542
-0.0924428
0.015369
-0.0944339
0.0136187
-0.096148
0.0116851
-0.0975551
0.00957606
-0.0986301
0.00731768
-0.0993555
0.0049541
-0.0997233
0.00256285
-0.0997018
-5.26167e-05
-0.0993214
-0.00246062
-0.098599
-0.00475722
-0.0975606
-0.00688596
-0.0962391
-0.00880199
-0.0946728
-0.0104696
-0.0929035
-0.0118641
-0.0909751
-0.0129719
-0.0889313
-0.0137907
-0.0868147
-0.0143271
-0.0846651
-0.0145972
-0.0825189
-0.0146241
-0.080408
-0.0144353
-0.0783595
-0.0140626
-0.076395
-0.0135419
-0.0745303
-0.0129097
-0.0727757
-0.0122027
-0.0711362
-0.0114557
-0.0696121
-0.0107009
-0.0681993
-0.00996667
-0.0668904
-0.00927742
-0.0656747
-0.00865306
-0.0645398
-0.00810905
-0.0634714
-0.00765636
-0.0624544
-0.0073016
-0.0614737
-0.00704744
-0.0605142
-0.006893
-0.0595614
-0.00683439
-0.0586021
-0.00686507
-0.0576243
-0.00697649
-0.0566177
-0.00715889
-0.0555736
-0.00740155
-0.054485
-0.0076934
-0.0533467
-0.00802363
-0.0521551
-0.00838227
-0.0509081
-0.00876085
-0.0496049
-0.00915347
-0.0482466
-0.0095569
-0.0468354
-0.00996991
-0.0453771
-0.0104062
-0.0438888
-0.0108906
-0.0423759
-0.0113801
-0.0118985
-0.040831
0.127755
0.0333164
0.123373
0.0354063
0.11872
0.0376391
0.113771
0.0400439
0.108497
0.0426456
0.102865
0.0454532
0.0968436
0.0484563
0.0904039
0.051624
0.0835263
0.054897
0.0762036
0.0581908
0.0684472
0.0613916
0.0602881
0.0643737
0.0517768
0.0670112
0.0429792
0.0691928
0.0339722
0.0708291
0.0248353
0.0718655
0.0156485
0.0722683
0.00648662
0.0720333
-0.00257816
0.0711519
-0.0114615
0.0695854
-0.0200716
0.0673114
-0.0283025
0.0642993
-0.0360393
0.0605551
-0.0431922
0.0562339
-0.0496936
0.0515337
-0.0555168
0.0466881
-0.0606823
0.0419709
-0.0652547
0.037632
-0.0693298
0.0338501
-0.0730097
0.0306819
-0.0763886
0.0280956
-0.07954
0.0259874
-0.0825095
0.0242114
-0.0853188
0.0226186
-0.0879659
0.0210557
-0.0904339
0.0194222
-0.0926936
0.0176287
-0.0947109
0.015636
-0.0964507
0.0134249
-0.09788
0.0110054
-0.0989717
0.00840937
-0.0997072
0.0056896
-0.100076
0.00293166
-0.100047
-8.1596e-05
-0.0996506
-0.00285705
-0.0989047
-0.0055032
-0.0978361
-0.0079545
-0.0964793
-0.0101588
-0.094874
-0.0120749
-0.0930638
-0.0136743
-0.091094
-0.0149417
-0.0890098
-0.0158748
-0.0868551
-0.0164819
-0.0846705
-0.0167818
-0.0824932
-0.0168014
-0.0803558
-0.0165727
-0.0782859
-0.0161325
-0.0763052
-0.0155226
-0.0744296
-0.0147853
-0.0726691
-0.0139632
-0.0710283
-0.0130965
-0.069507
-0.0122222
-0.0681005
-0.0113731
-0.0668007
-0.0105772
-0.0655965
-0.0098573
-0.0644745
-0.00923101
-0.0634201
-0.00871081
-0.0624175
-0.00830414
-0.0614511
-0.00801386
-0.0605053
-0.0078388
-0.0595654
-0.00777432
-0.0586177
-0.00781272
-0.0576502
-0.00794401
-0.0566523
-0.00815679
-0.0556153
-0.00843856
-0.0545323
-0.00877643
-0.0533981
-0.00915779
-0.0522094
-0.00957096
-0.0509644
-0.0100058
-0.049663
-0.0104549
-0.0483067
-0.0109132
-0.0468986
-0.011378
-0.0454456
-0.0118591
-0.0439643
-0.0123719
-0.0424607
-0.0128837
-0.0134233
-0.0409359
0.128039
0.0374286
0.123678
0.0397673
0.11905
0.0422669
0.11413
0.044964
0.108886
0.0478896
0.103282
0.0510574
0.0972808
0.0544572
0.0908506
0.0580542
0.0839681
0.0617795
0.076624
0.0655349
0.0688291
0.0691865
0.0606164
0.0725865
0.0520399
0.0755876
0.0431701
0.0780626
0.0340875
0.0799117
0.024876
0.081077
0.0156168
0.0815275
0.0063816
0.0812685
-0.00276167
0.0802952
-0.0117308
0.0785545
-0.0204342
0.0760148
-0.0287589
0.0726239
-0.036579
0.0683752
-0.0437938
0.0634487
-0.0503265
0.0580665
-0.0561439
0.0525055
-0.0612696
0.0470966
-0.065776
0.0421384
-0.0697736
0.0378477
-0.0733764
0.0342847
-0.0766908
0.0314099
-0.0797972
0.0290937
-0.0827419
0.0271561
-0.085545
0.0254218
-0.0882015
0.0237122
-0.0906903
0.021911
-0.0929783
0.0199167
-0.095027
0.0176847
-0.0967972
0.0151951
-0.0982527
0.0124609
-0.0993644
0.00952115
-0.100112
0.00643716
-0.100483
0.00330232
-0.100445
-0.000119268
-0.10003
-0.003272
-0.0992566
-0.00627657
-0.0981531
-0.00905807
-0.0967553
-0.0115566
-0.0951048
-0.0137253
-0.0932473
-0.0155319
-0.0912296
-0.0169593
-0.0890988
-0.0180056
-0.0869001
-0.0186806
-0.0846751
-0.0190068
-0.082462
-0.0190145
-0.0802942
-0.0187406
-0.0781997
-0.018227
-0.0762005
-0.0175217
-0.0743125
-0.0166733
-0.0725454
-0.0157302
-0.0709034
-0.0147385
-0.0693855
-0.0137401
-0.0679864
-0.0127722
-0.0666974
-0.0118663
-0.0655064
-0.0110482
-0.0643996
-0.0103379
-0.0633613
-0.00974906
-0.0623754
-0.00929005
-0.0614255
-0.00896379
-0.0604956
-0.00876873
-0.0595704
-0.00869945
-0.0586362
-0.00874697
-0.0576804
-0.00889977
-0.0566925
-0.00914473
-0.0556636
-0.00946746
-0.0545869
-0.00985315
-0.0534573
-0.0102873
-0.0522718
-0.0107565
-0.0510289
-0.0112487
-0.049729
-0.0117549
-0.0483741
-0.0122681
-0.0469682
-0.012784
-0.0455188
-0.0133085
-0.0440413
-0.0138495
-0.0425423
-0.0143827
-0.0149351
-0.0410304
0.128359
0.0415225
0.124021
0.0441047
0.119423
0.0468652
0.114537
0.0498502
0.109329
0.0530978
0.103758
0.0566284
0.0977818
0.0604332
0.0913637
0.0644723
0.0844766
0.0686667
0.0771087
0.0729028
0.0692698
0.0770254
0.0609952
0.0808611
0.0523436
0.0842393
0.0433913
0.0870149
0.034226
0.089077
0.0249329
0.0903702
0.0155929
0.0908675
0.00627588
0.0905855
-0.00295634
0.0895274
-0.0120267
0.0876249
-0.0208421
0.0848301
-0.0292816
0.0810635
-0.0372071
0.0763007
-0.0444994
0.0707409
-0.0510673
0.0646344
-0.0568758
0.058314
-0.0619506
0.0521714
-0.0663763
0.0465641
-0.0702786
0.0417501
-0.0737903
0.0377964
-0.077029
0.0346486
-0.0800811
0.0321459
-0.0829964
0.0300714
-0.0857929
0.0282182
-0.0884621
0.0263814
-0.090977
0.0244258
-0.0932986
0.0222383
-0.095384
0.0197701
-0.0971899
0.0170009
-0.0986765
0.0139475
-0.0998112
0.0106558
-0.100573
0.00719918
-0.100945
0.00367396
-0.100897
-0.000167253
-0.100461
-0.00370808
-0.099656
-0.0070813
-0.0985123
-0.0102018
-0.0970676
-0.0130014
-0.0953656
-0.0154273
-0.0934539
-0.0174436
-0.0913817
-0.0190315
-0.0891979
-0.0201894
-0.0869491
-0.0209294
-0.0846783
-0.0212776
-0.0824245
-0.0212683
-0.0802222
-0.0209429
-0.0780999
-0.0203493
-0.07608
-0.0195416
-0.0741782
-0.0185751
-0.0724039
-0.0175045
-0.0707607
-0.0163817
-0.0692469
-0.0152539
-0.0678566
-0.0141625
-0.06658
-0.0131429
-0.0654043
-0.0122239
-0.0643147
-0.0114274
-0.063295
-0.0107688
-0.062328
-0.010257
-0.0613969
-0.00989492
-0.060485
-0.0096806
-0.0595767
-0.00960774
-0.0586577
-0.00966601
-0.0577152
-0.00984225
-0.0567385
-0.0101214
-0.0557187
-0.0104872
-0.054649
-0.0109228
-0.0535246
-0.0114117
-0.0523425
-0.0119385
-0.0511017
-0.0124896
-0.0498028
-0.0130537
-0.0484488
-0.0136221
-0.0470439
-0.0141889
-0.0455964
-0.014756
-0.0441202
-0.0153257
-0.0426225
-0.0158803
-0.0164406
-0.0411171
0.128715
0.0455969
0.124404
0.0484158
0.119839
0.0514299
0.114993
0.0546966
0.109827
0.0582634
0.104296
0.0621597
0.0983501
0.0663791
0.0919468
0.0708756
0.0850554
0.075558
0.0776614
0.0802968
0.069773
0.0849138
0.0614277
0.0892063
0.0526899
0.0929771
0.0436421
0.0960627
0.0343782
0.0983409
0.024991
0.0997574
0.0155618
0.100297
0.00615467
0.0999927
-0.00317362
0.0988557
-0.0123528
0.0968041
-0.0212904
0.0937677
-0.0298564
0.0896296
-0.0378956
0.0843399
-0.0452746
0.0781199
-0.051887
0.0712468
-0.0576869
0.0641139
-0.0627048
0.0571893
-0.0670372
0.0508965
-0.0708292
0.0455421
-0.074233
0.0412001
-0.0773841
0.0377998
-0.0803792
0.035141
-0.0832668
0.032959
-0.0860593
0.0310108
-0.0887439
0.029066
-0.0912888
0.0269707
-0.0936504
0.0245999
-0.0957793
0.021899
-0.0976265
0.0188481
-0.0991478
0.0154688
-0.100309
0.011817
-0.101085
0.00797515
-0.101461
0.00405015
-0.101404
-0.000223925
-0.100944
-0.00416815
-0.100104
-0.00792158
-0.0989149
-0.011391
-0.097417
-0.0144993
-0.0956566
-0.0171877
-0.0936838
-0.0194164
-0.0915501
-0.0211652
-0.0893066
-0.0224329
-0.0870016
-0.0232345
-0.0846793
-0.0235999
-0.0823799
-0.0235677
-0.0801389
-0.0231838
-0.0779857
-0.0225025
-0.0759428
-0.0215846
-0.0740258
-0.0204921
-0.0722437
-0.0192866
-0.0705995
-0.018026
-0.0690907
-0.0167627
-0.0677105
-0.0155428
-0.066448
-0.0144054
-0.0652898
-0.0133822
-0.0642198
-0.0124974
-0.063221
-0.0117676
-0.0622755
-0.0112025
-0.0613655
-0.0108049
-0.0604739
-0.0105722
-0.0595845
-0.0104971
-0.0586825
-0.010568
-0.0577549
-0.0107699
-0.0567906
-0.0110857
-0.0557809
-0.011497
-0.054719
-0.0119848
-0.0536001
-0.0125306
-0.0524216
-0.0131171
-0.0511827
-0.0137285
-0.0498847
-0.0143517
-0.0485307
-0.0149761
-0.0471257
-0.0155938
-0.0456783
-0.0162034
-0.0442012
-0.0168028
-0.0427026
-0.0173789
-0.0179448
-0.0411983
0.129106
0.0496508
0.124824
0.0526981
0.120297
0.0559566
0.115496
0.0594971
0.110381
0.0633785
0.104898
0.0676433
0.0989866
0.0722901
0.0925998
0.0772624
0.0857048
0.082453
0.0782829
0.0877187
0.0703391
0.0928576
0.061914
0.0976314
0.0530786
0.101813
0.0439249
0.105216
0.0345561
0.10771
0.0250668
0.109247
0.0155394
0.109824
0.00603594
0.109496
-0.00339892
0.108291
-0.0127054
0.106111
-0.0217887
0.102851
-0.0305096
0.0983505
-0.0386958
0.0925261
-0.0461807
0.0856048
-0.0528411
0.0779072
-0.0586269
0.0698997
-0.0635734
0.0621358
-0.0677902
0.0551133
-0.0714494
0.0492013
-0.0747283
0.044479
-0.0777766
0.0408481
-0.0807006
0.0380649
-0.0835534
0.0358118
-0.0863428
0.0338002
-0.089049
0.0317722
-0.0916317
0.0295534
-0.0940391
0.0270073
-0.0962168
0.0240767
-0.0981119
0.0207432
-0.0996755
0.0170324
-0.100868
0.0130096
-0.101667
0.00877452
-0.102047
0.00442947
-0.10197
-0.000301144
-0.101482
-0.00465555
-0.100602
-0.00880165
-0.0993618
-0.0126313
-0.0978041
-0.0160569
-0.0959783
-0.0190136
-0.0939369
-0.0214578
-0.0917344
-0.0233677
-0.0894243
-0.024743
-0.0870567
-0.025602
-0.0846772
-0.0259794
-0.0823271
-0.0259177
-0.0800434
-0.0254675
-0.0778559
-0.0246901
-0.0757876
-0.0236528
-0.0738542
-0.0224255
-0.0720639
-0.0210769
-0.070419
-0.0196709
-0.0689161
-0.0182655
-0.0675475
-0.0169114
-0.0663012
-0.0156516
-0.0651626
-0.0145208
-0.0641147
-0.0135453
-0.0631393
-0.012743
-0.0622177
-0.0121241
-0.0613313
-0.0116913
-0.0604624
-0.0114411
-0.059594
-0.0113655
-0.0587109
-0.0114512
-0.0577997
-0.0116811
-0.0568493
-0.0120361
-0.0558506
-0.0124956
-0.0547971
-0.0130383
-0.0536841
-0.0136436
-0.0525093
-0.0142919
-0.0512722
-0.0149656
-0.0499745
-0.0156494
-0.0486198
-0.0163309
-0.0472136
-0.017
-0.0457646
-0.0176524
-0.0442847
-0.0182826
-0.0427831
-0.0188806
-0.0194522
-0.0412757
0.129531
0.0536836
0.12528
0.0569493
0.120796
0.0604408
0.116049
0.0642442
0.110995
0.0684324
0.105567
0.0730707
0.0996964
0.078161
0.0933302
0.0836286
0.0864322
0.0893511
0.0789821
0.0951688
0.0709779
0.100862
0.0624631
0.106146
0.0535168
0.110759
0.0442403
0.114493
0.0347478
0.117202
0.0251455
0.118849
0.0155137
0.119456
0.00590487
0.119105
-0.0036418
0.117837
-0.0130799
0.115549
-0.0223197
0.112091
-0.0312067
0.107237
-0.0395437
0.100863
-0.0471491
0.0932101
-0.053871
0.0846291
-0.0596448
0.0756736
-0.0645124
0.0670034
-0.0686011
0.059202
-0.0721025
0.0527027
-0.0752302
0.0476067
-0.078165
0.043783
-0.0810205
0.0409204
-0.0838437
0.0386351
-0.0866347
0.0365911
-0.0893664
0.0345039
-0.0919918
0.0321788
-0.094455
0.0294705
-0.0966921
0.0263138
-0.0986419
0.022693
-0.10025
0.01864
-0.101474
0.0142345
-0.102286
0.00958612
-0.102663
0.00480643
-0.102593
-0.000371187
-0.102077
-0.00517171
-0.101152
-0.00972645
-0.0998543
-0.0139289
-0.09823
-0.0176812
-0.0963311
-0.0209124
-0.0942135
-0.0235754
-0.0919346
-0.0256467
-0.0895507
-0.0271269
-0.087114
-0.0280387
-0.0846712
-0.0284222
-0.0822654
-0.0283236
-0.0799345
-0.0277984
-0.0777092
-0.0269154
-0.0756134
-0.0257486
-0.0736621
-0.0243767
-0.0718633
-0.0228757
-0.0702182
-0.021316
-0.0687224
-0.0197613
-0.0673669
-0.0182669
-0.0661389
-0.0168797
-0.0650223
-0.0156374
-0.0639991
-0.0145685
-0.0630499
-0.0136922
-0.0621548
-0.0130191
-0.0612946
-0.0125515
-0.0604508
-0.012285
-0.0596056
-0.0122107
-0.0587433
-0.0123135
-0.0578501
-0.0125742
-0.0569148
-0.0129715
-0.0559282
-0.0134822
-0.0548837
-0.0140828
-0.0537771
-0.0147503
-0.052606
-0.015463
-0.0513704
-0.0162011
-0.0500725
-0.0169474
-0.0487162
-0.0176872
-0.0473075
-0.0184086
-0.0458554
-0.0191046
-0.044371
-0.019767
-0.0428643
-0.0203873
-0.020966
-0.0413505
0.129992
0.0576952
0.125774
0.0611671
0.121337
0.0648773
0.116653
0.0689285
0.111672
0.0734135
0.106303
0.0784393
0.10048
0.0839838
0.0941397
0.0899694
0.0872368
0.0962539
0.0797513
0.102654
0.0716791
0.108934
0.0630604
0.114765
0.0539853
0.119834
0.0445699
0.123908
0.0349425
0.126829
0.0252134
0.128578
0.0154688
0.1292
0.00575584
0.128818
-0.00390892
0.127502
-0.0135004
0.12514
-0.0229193
0.12151
-0.0320095
0.116328
-0.0405497
0.109403
-0.0482938
0.100954
-0.0550792
0.0914145
-0.0608308
0.0814252
-0.0655952
0.0717678
-0.0695198
0.0631266
-0.0728362
0.0560192
-0.0757981
0.0505685
-0.078599
0.0465839
-0.0813664
0.0436878
-0.0841496
0.0414183
-0.0869438
0.0393853
-0.0897094
0.0372695
-0.0923875
0.0348569
-0.0949115
0.0319945
-0.0972114
0.0286137
-0.0992235
0.0247052
-0.100888
0.0203047
-0.102154
0.0155006
-0.103006
0.0104374
-0.103414
0.00521444
-0.103281
-0.000503618
-0.102729
-0.0057238
-0.101755
-0.0107004
-0.100393
-0.0152905
-0.098695
-0.0193796
-0.0967153
-0.0228922
-0.0945133
-0.0257774
-0.09215
-0.02801
-0.0896851
-0.0295917
-0.0871729
-0.0305509
-0.0846611
-0.0309341
-0.0821939
-0.0307908
-0.0798109
-0.0301813
-0.0775447
-0.0291817
-0.075419
-0.0278742
-0.0734489
-0.0263469
-0.0716412
-0.0246834
-0.0699964
-0.0229609
-0.0685089
-0.0212487
-0.0671685
-0.0196073
-0.0659609
-0.0180873
-0.0648689
-0.0167295
-0.0638729
-0.0155644
-0.0629526
-0.0146125
-0.0620868
-0.0138849
-0.0612553
-0.013383
-0.060439
-0.0131013
-0.0596193
-0.0130304
-0.0587797
-0.013153
-0.0579062
-0.0134477
-0.0569873
-0.0138905
-0.0560137
-0.0144557
-0.0549789
-0.0151175
-0.0538788
-0.0158504
-0.0527115
-0.0166303
-0.0514773
-0.0174353
-0.0501785
-0.0182461
-0.0488197
-0.019046
-0.0474073
-0.019821
-0.0459504
-0.0205615
-0.0444599
-0.0212576
-0.0429463
-0.0219009
-0.0224889
-0.0414234
0.0461376
0.0591112
0.0446527
0.062652
0.0430942
0.0664357
0.0414528
0.0705699
0.0397068
0.0751596
0.0378229
0.0803232
0.0357751
0.0860316
0.0335384
0.092206
0.0310944
0.0986979
0.0284354
0.105313
0.0255609
0.111808
0.0224845
0.117841
0.0192417
0.123077
0.0158767
0.127273
0.0124367
0.130269
0.00896432
0.132051
0.005488
0.132677
0.00202169
0.132284
-0.00142674
0.13095
-0.00485694
0.12857
-0.0082381
0.124891
-0.0115058
0.119595
-0.0145781
0.112476
-0.0173633
0.103739
-0.0197887
0.0938399
-0.0218248
0.0834613
-0.0234904
0.0734333
-0.0248384
0.0644746
-0.0259618
0.0571426
-0.0269626
0.0515693
-0.0279198
0.0475411
-0.0288785
0.0446465
-0.0298562
0.042396
-0.0308479
0.040377
-0.0318377
0.0382593
-0.0328018
0.035821
-0.033714
0.0329067
-0.0345481
0.0294477
-0.0352791
0.0254362
-0.0358822
0.0209077
-0.036341
0.0159595
-0.036643
0.0107394
-0.0367746
0.00534608
-0.0367455
-0.000532755
-0.0365418
-0.00592753
-0.0361834
-0.0110588
-0.0356842
-0.0157897
-0.0350632
-0.0200007
-0.0343409
-0.0236145
-0.033539
-0.0265793
-0.03268
-0.0288689
-0.0317862
-0.0304855
-0.0308772
-0.0314599
-0.02997
-0.0318413
-0.0290805
-0.0316803
-0.0282235
-0.0310384
-0.0274105
-0.0299947
-0.0266503
-0.0286345
-0.025948
-0.0270492
-0.0253058
-0.0253255
-0.0247237
-0.023543
-0.0241994
-0.0217731
-0.0237289
-0.0200778
-0.0233068
-0.0185093
-0.0229267
-0.0171096
-0.0225813
-0.0159098
-0.0222631
-0.0149308
-0.0219642
-0.0141838
-0.0216773
-0.0136699
-0.0213955
-0.0133831
-0.0211119
-0.0133139
-0.0208206
-0.0134443
-0.0205164
-0.0137519
-0.0201953
-0.0142116
-0.019854
-0.0147971
-0.0194901
-0.0154814
-0.0191022
-0.0162382
-0.0186898
-0.0170428
-0.0182531
-0.0178721
-0.0177929
-0.0187063
-0.017311
-0.0195279
-0.0168098
-0.0203222
-0.0162925
-0.0210788
-0.0157629
-0.0217871
-0.0152249
-0.0224388
-0.0230308
-0.014683
0.0461977
0.0605249
0.044717
0.0641327
0.0431653
0.0679874
0.0415335
0.0722017
0.039797
0.0768961
0.0379226
0.0821976
0.0358828
0.0880715
0.0336509
0.0944379
0.0312069
0.101142
0.0285432
0.107977
0.0256617
0.11469
0.0225741
0.120929
0.0193148
0.126336
0.0159287
0.130659
0.012467
0.133731
0.00897445
0.135543
0.00548187
0.136169
0.00200302
0.135763
-0.00145986
0.134413
-0.00491114
0.132022
-0.00832016
0.1283
-0.0116245
0.1229
-0.0147343
0.115585
-0.0175433
0.106548
-0.0199783
0.0962749
-0.0220084
0.0854914
-0.0236555
0.0750805
-0.0249787
0.0657978
-0.0260733
0.0582372
-0.0270462
0.0525421
-0.0279816
0.0484766
-0.0289287
0.0455935
-0.0299024
0.0433698
-0.0308958
0.0413704
-0.0318907
0.0392541
-0.0328616
0.036792
-0.0337824
0.0338274
-0.0346252
0.0302905
-0.0353641
0.0261751
-0.0359748
0.0215185
-0.0364387
0.0164234
-0.0367469
0.0110475
-0.0368924
0.00549159
-0.036845
-0.00058021
-0.0366354
-0.00613713
-0.0362701
-0.011424
-0.0357614
-0.0162983
-0.0351295
-0.0206326
-0.0343954
-0.0243487
-0.0335811
-0.0273935
-0.0327099
-0.0297401
-0.0318043
-0.0313912
-0.0308842
-0.03238
-0.0299669
-0.0327586
-0.0290686
-0.0325786
-0.0282043
-0.0319027
-0.0273856
-0.0308134
-0.0266213
-0.0293988
-0.0259164
-0.027754
-0.0252732
-0.0259687
-0.0246913
-0.0241249
-0.0241683
-0.0222961
-0.0237001
-0.020546
-0.0232811
-0.0189284
-0.0229046
-0.0174862
-0.0225632
-0.0162511
-0.0222493
-0.0152448
-0.0219547
-0.0144783
-0.021672
-0.0139527
-0.0213941
-0.013661
-0.0211142
-0.0135938
-0.0208262
-0.0137324
-0.0205248
-0.0140533
-0.0202059
-0.0145305
-0.0198664
-0.0151366
-0.0195038
-0.0158439
-0.0191169
-0.0166252
-0.0187049
-0.0174547