/*--------------------------------*- C++ -*----------------------------------*\
| =========                 |                                                 |
| \\      /  F ield         | OpenFOAM: The Open Source CFD Toolbox           |
|  \\    /   O peration     | Version:  v1912                                 |
|   \\  /    A nd           | Website:  www.openfoam.com                      |
|    \\/     M anipulation  |                                                 |
\*---------------------------------------------------------------------------*/
FoamFile
{
    version     2.0;
    format      ascii;
    class       volVectorField;
    location    "20";
    object      U;
}
// * * * * * * * * * * * * * * * * * * * * * * * * * * * * * * * * * * * * * //

dimensions      [0 1 -1 0 0 0 0];


internalField   nonuniform List<vector> 
14268
(
(1.69927 0.00896308 0)
(1.64202 0.00956977 0)
(1.58125 0.0102078 0)
(1.51669 0.0108926 0)
(1.44803 0.0116329 0)
(1.37499 0.0124328 0)
(1.29729 0.013295 0)
(1.21468 0.0142195 0)
(1.12701 0.0151988 0)
(1.03419 0.016218 0)
(0.936302 0.0172514 0)
(0.833563 0.0182649 0)
(0.726395 0.0192173 0)
(0.615389 0.0200641 0)
(0.501272 0.0207617 0)
(0.384954 0.021271 0)
(0.267478 0.0215763 0)
(0.149887 0.021657 0)
(0.0329502 0.0215059 0)
(-0.0820105 0.0211239 0)
(-0.193575 0.0205137 0)
(-0.300837 0.0196706 0)
(-0.402665 0.0186081 0)
(-0.498052 0.0173832 0)
(-0.586282 0.0160374 0)
(-0.667004 0.0146499 0)
(-0.740227 0.0132942 0)
(-0.806377 0.0120243 0)
(-0.866134 0.0108842 0)
(-0.920311 0.00989478 0)
(-0.969717 0.00905255 0)
(-1.01508 0.00833394 0)
(-1.057 0.00771168 0)
(-1.09587 0.00714588 0)
(-1.13189 0.00659821 0)
(-1.16506 0.0060401 0)
(-1.19524 0.00544672 0)
(-1.2222 0.00480577 0)
(-1.24566 0.00411039 0)
(-1.26534 0.0033611 0)
(-1.28095 0.00256601 0)
(-1.29227 0.00173842 0)
(-1.29913 0.00090768 0)
(-1.30157 -2.05753e-06 0)
(-1.29922 -0.00083842 0)
(-1.29261 -0.00163756 0)
(-1.28192 -0.0023798 0)
(-1.26751 -0.00304991 0)
(-1.2498 -0.00363554 0)
(-1.22925 -0.00412802 0)
(-1.20638 -0.00452247 0)
(-1.18171 -0.00481767 0)
(-1.15576 -0.00501546 0)
(-1.12905 -0.00512097 0)
(-1.10203 -0.00514189 0)
(-1.0751 -0.00508768 0)
(-1.04864 -0.0049681 0)
(-1.02294 -0.00479708 0)
(-0.998252 -0.00458614 0)
(-0.974756 -0.0043478 0)
(-0.952563 -0.00409408 0)
(-0.931724 -0.00383609 0)
(-0.912234 -0.00358379 0)
(-0.894039 -0.00334577 0)
(-0.877041 -0.00312909 0)
(-0.861111 -0.00293932 0)
(-0.846095 -0.00278043 0)
(-0.831823 -0.00265495 0)
(-0.818113 -0.00256396 0)
(-0.804786 -0.00250721 0)
(-0.791663 -0.00248355 0)
(-0.778578 -0.00249118 0)
(-0.765378 -0.00252703 0)
(-0.751923 -0.00258787 0)
(-0.73809 -0.00267013 0)
(-0.723775 -0.00277009 0)
(-0.708896 -0.00288417 0)
(-0.693385 -0.00300911 0)
(-0.677192 -0.00314239 0)
(-0.660283 -0.0032831 0)
(-0.642621 -0.003433 0)
(-0.624114 -0.00359878 0)
(-0.604671 -0.00380511 0)
(-0.5844 -0.00417722 0)
(-0.562356 -0.00504067 0)
(-0.532353 -0.00702913 0)
(1.69944 0.0317846 0)
(1.6422 0.0338324 0)
(1.58141 0.0360051 0)
(1.51684 0.0383299 0)
(1.44816 0.0408231 0)
(1.37509 0.0434794 0)
(1.29734 0.0462792 0)
(1.21466 0.049186 0)
(1.12691 0.0521414 0)
(1.03398 0.0550695 0)
(0.935982 0.0578769 0)
(0.833134 0.0604647 0)
(0.725863 0.0627346 0)
(0.614772 0.0646002 0)
(0.500589 0.0659876 0)
(0.38423 0.0668449 0)
(0.266732 0.0671279 0)
(0.149128 0.0668102 0)
(0.0321783 0.0658519 0)
(-0.0828009 0.0642757 0)
(-0.194406 0.0621014 0)
(-0.301729 0.0592974 0)
(-0.403622 0.0559162 0)
(-0.499062 0.0520623 0)
(-0.587317 0.0479277 0)
(-0.668025 0.0437059 0)
(-0.741197 0.0395892 0)
(-0.807265 0.0357544 0)
(-0.866918 0.0323306 0)
(-0.920987 0.0293717 0)
(-0.970294 0.0268689 0)
(-1.01558 0.0247507 0)
(-1.05744 0.0229235 0)
(-1.09629 0.0212682 0)
(-1.13231 0.0196667 0)
(-1.16549 0.018031 0)
(-1.1957 0.0162853 0)
(-1.2227 0.0143904 0)
(-1.24621 0.0123248 0)
(-1.26593 0.0100923 0)
(-1.28158 0.00771583 0)
(-1.29292 0.0052369 0)
(-1.29978 0.00274536 0)
(-1.30222 1.34417e-05 0)
(-1.29984 -0.00249587 0)
(-1.2932 -0.00489516 0)
(-1.28246 -0.00712416 0)
(-1.26799 -0.00913616 0)
(-1.25021 -0.0108943 0)
(-1.22959 -0.0123725 0)
(-1.20664 -0.0135559 0)
(-1.1819 -0.014441 0)
(-1.15588 -0.0150335 0)
(-1.1291 -0.0153487 0)
(-1.10202 -0.0154098 0)
(-1.07504 -0.0152451 0)
(-1.04853 -0.0148879 0)
(-1.0228 -0.0143726 0)
(-0.998085 -0.0137377 0)
(-0.974573 -0.0130207 0)
(-0.952372 -0.0122577 0)
(-0.931534 -0.0114822 0)
(-0.912052 -0.010724 0)
(-0.89387 -0.0100089 0)
(-0.87689 -0.00935819 0)
(-0.860982 -0.00878839 0)
(-0.845991 -0.00831145 0)
(-0.831744 -0.00793482 0)
(-0.81806 -0.00766182 0)
(-0.804758 -0.00749205 0)
(-0.79166 -0.00742208 0)
(-0.778598 -0.00744524 0)
(-0.765418 -0.0075532 0)
(-0.751981 -0.00773614 0)
(-0.738162 -0.00798338 0)
(-0.72386 -0.00828377 0)
(-0.708989 -0.0086265 0)
(-0.693486 -0.00900178 0)
(-0.677299 -0.00940192 0)
(-0.660394 -0.00982389 0)
(-0.642738 -0.0102719 0)
(-0.624248 -0.0107655 0)
(-0.604854 -0.0113728 0)
(-0.58465 -0.0123233 0)
(-0.562552 -0.0134157 0)
(-0.537201 -0.0131379 0)
(1.70019 0.0510956 0)
(1.643 0.0543715 0)
(1.58228 0.0578565 0)
(1.51777 0.0615904 0)
(1.44916 0.0656039 0)
(1.37616 0.0698985 0)
(1.29846 0.074454 0)
(1.21583 0.0792268 0)
(1.12808 0.0841364 0)
(1.03513 0.0890714 0)
(0.937056 0.0938847 0)
(0.83409 0.0984101 0)
(0.726661 0.102472 0)
(0.615379 0.105901 0)
(0.500985 0.108544 0)
(0.384399 0.11028 0)
(0.266666 0.111038 0)
(0.148813 0.110759 0)
(0.0316062 0.109401 0)
(-0.0836302 0.106978 0)
(-0.19551 0.10348 0)
(-0.303118 0.0989098 0)
(-0.405273 0.0933344 0)
(-0.500911 0.0869701 0)
(-0.589278 0.0801049 0)
(-0.670006 0.0730503 0)
(-0.743107 0.0661403 0)
(-0.809027 0.0596894 0)
(-0.868483 0.0539322 0)
(-0.922338 0.0489704 0)
(-0.971445 0.0447824 0)
(-1.01657 0.0412497 0)
(-1.05832 0.038211 0)
(-1.09711 0.0354611 0)
(-1.13313 0.0327997 0)
(-1.16635 0.0300794 0)
(-1.19662 0.0271709 0)
(-1.22371 0.0240112 0)
(-1.2473 0.0205643 0)
(-1.2671 0.0168366 0)
(-1.28281 0.0128681 0)
(-1.2942 0.00872758 0)
(-1.30108 0.00456552 0)
(-1.30351 1.04995e-06 0)
(-1.30108 -0.0041907 0)
(-1.29437 -0.00819838 0)
(-1.28353 -0.0119208 0)
(-1.26895 -0.0152803 0)
(-1.25103 -0.0182147 0)
(-1.23026 -0.0206808 0)
(-1.20717 -0.0226539 0)
(-1.18227 -0.0241282 0)
(-1.15611 -0.0251135 0)
(-1.1292 -0.0256353 0)
(-1.10199 -0.0257329 0)
(-1.0749 -0.0254534 0)
(-1.04831 -0.0248504 0)
(-1.02251 -0.0239858 0)
(-0.997742 -0.0229217 0)
(-0.974198 -0.0217209 0)
(-0.951982 -0.0204439 0)
(-0.931145 -0.0191465 0)
(-0.911678 -0.0178787 0)
(-0.893523 -0.0166834 0)
(-0.87658 -0.0155961 0)
(-0.860716 -0.0146445 0)
(-0.845774 -0.0138483 0)
(-0.831578 -0.0132201 0)
(-0.817947 -0.0127651 0)
(-0.804696 -0.0124828 0)
(-0.791647 -0.0123668 0)
(-0.778629 -0.0124067 0)
(-0.76549 -0.0125882 0)
(-0.752088 -0.0128948 0)
(-0.738299 -0.0133087 0)
(-0.724021 -0.013811 0)
(-0.709169 -0.0143838 0)
(-0.69368 -0.0150105 0)
(-0.677504 -0.0156782 0)
(-0.660609 -0.0163815 0)
(-0.642964 -0.0171251 0)
(-0.624492 -0.0179319 0)
(-0.605228 -0.0189035 0)
(-0.585343 -0.0203633 0)
(-0.564244 -0.0220968 0)
(-0.540288 -0.0241177 0)
(1.70142 0.0728591 0)
(1.64432 0.0775251 0)
(1.58368 0.0824977 0)
(1.51926 0.0878268 0)
(1.45075 0.0935526 0)
(1.37783 0.0996729 0)
(1.30019 0.106151 0)
(1.21756 0.112912 0)
(1.12976 0.119831 0)
(1.0367 0.126738 0)
(0.938435 0.133416 0)
(0.835223 0.13963 0)
(0.727506 0.145137 0)
(0.615912 0.149718 0)
(0.501201 0.153185 0)
(0.384312 0.1554 0)
(0.266287 0.156261 0)
(0.148135 0.155707 0)
(0.0306192 0.153674 0)
(-0.084956 0.150168 0)
(-0.197215 0.14518 0)
(-0.305222 0.138697 0)
(-0.40775 0.130832 0)
(-0.503678 0.121862 0)
(-0.59222 0.112192 0)
(-0.672993 0.102242 0)
(-0.745994 0.0925076 0)
(-0.81169 0.0834371 0)
(-0.870841 0.0753543 0)
(-0.924366 0.0684029 0)
(-0.973169 0.0625634 0)
(-1.01805 0.0576559 0)
(-1.05964 0.0534398 0)
(-1.09835 0.049629 0)
(-1.13436 0.0459353 0)
(-1.16763 0.0421516 0)
(-1.19801 0.0380965 0)
(-1.22521 0.0336799 0)
(-1.24894 0.0288538 0)
(-1.26886 0.0236287 0)
(-1.28467 0.0180605 0)
(-1.29613 0.0122492 0)
(-1.30304 0.00640145 0)
(-1.30545 -8.40668e-06 0)
(-1.30295 -0.00589762 0)
(-1.29613 -0.0115266 0)
(-1.28515 -0.0167537 0)
(-1.27038 -0.0214692 0)
(-1.25226 -0.0255862 0)
(-1.23127 -0.0290438 0)
(-1.20795 -0.0318076 0)
(-1.18283 -0.0338695 0)
(-1.15645 -0.035244 0)
(-1.12934 -0.0359673 0)
(-1.10195 -0.0360944 0)
(-1.0747 -0.0356923 0)
(-1.04797 -0.0348365 0)
(-1.02207 -0.0336135 0)
(-0.997227 -0.0321112 0)
(-0.973634 -0.0304181 0)
(-0.951397 -0.0286191 0)
(-0.930562 -0.0267928 0)
(-0.911118 -0.0250092 0)
(-0.893004 -0.0233287 0)
(-0.876117 -0.021801 0)
(-0.860319 -0.0204647 0)
(-0.84545 -0.0193475 0)
(-0.831332 -0.0184668 0)
(-0.81778 -0.01783 0)
(-0.804606 -0.0174357 0)
(-0.79163 -0.0172756 0)
(-0.77868 -0.0173343 0)
(-0.765602 -0.0175918 0)
(-0.752253 -0.0180248 0)
(-0.738508 -0.018608 0)
(-0.724266 -0.019315 0)
(-0.709442 -0.0201202 0)
(-0.693974 -0.0210004 0)
(-0.677814 -0.0219369 0)
(-0.660933 -0.0229212 0)
(-0.643309 -0.0239564 0)
(-0.62488 -0.0250595 0)
(-0.605704 -0.0263392 0)
(-0.585939 -0.0280976 0)
(-0.565106 -0.0299212 0)
(-0.543004 -0.0313099 0)
(1.70316 0.0930764 0)
(1.64618 0.0990066 0)
(1.58567 0.105334 0)
(1.52141 0.112124 0)
(1.45306 0.119431 0)
(1.38029 0.127259 0)
(1.30277 0.135567 0)
(1.2202 0.144264 0)
(1.1324 0.153191 0)
(1.03923 0.162133 0)
(0.940781 0.170809 0)
(0.837286 0.178914 0)
(0.729206 0.186129 0)
(0.617192 0.192161 0)
(0.502029 0.196751 0)
(0.384667 0.199708 0)
(0.266165 0.200912 0)
(0.147529 0.200282 0)
(0.0295151 0.197769 0)
(-0.0865742 0.193357 0)
(-0.199387 0.186995 0)
(-0.307961 0.178701 0)
(-0.411004 0.168596 0)
(-0.507337 0.157063 0)
(-0.596137 0.144522 0)
(-0.676972 0.131582 0)
(-0.749836 0.118928 0)
(-0.81523 0.107158 0)
(-0.873974 0.0966995 0)
(-0.927057 0.0877388 0)
(-0.975447 0.0802436 0)
(-1.02 0.0739739 0)
(-1.06137 0.0686111 0)
(-1.09997 0.063772 0)
(-1.13598 0.0590768 0)
(-1.16934 0.0542552 0)
(-1.19985 0.0490663 0)
(-1.22722 0.0433997 0)
(-1.25113 0.0371933 0)
(-1.27122 0.0304618 0)
(-1.28716 0.0232818 0)
(-1.29871 0.0157829 0)
(-1.30566 0.0082279 0)
(-1.30804 -4.71992e-05 0)
(-1.30546 -0.00765255 0)
(-1.29848 -0.0149209 0)
(-1.28731 -0.0216686 0)
(-1.2723 -0.027753 0)
(-1.2539 -0.0330615 0)
(-1.23262 -0.0375156 0)
(-1.209 -0.0410714 0)
(-1.18358 -0.0437191 0)
(-1.15691 -0.0454775 0)
(-1.12953 -0.0463947 0)
(-1.10189 -0.046542 0)
(-1.07443 -0.0460058 0)
(-1.04752 -0.0448848 0)
(-1.02147 -0.0432907 0)
(-0.996534 -0.0413374 0)
(-0.972876 -0.0391397 0)
(-0.95061 -0.0368074 0)
(-0.929779 -0.034442 0)
(-0.910367 -0.0321339 0)
(-0.892309 -0.029961 0)
(-0.875496 -0.0279871 0)
(-0.859788 -0.0262621 0)
(-0.845017 -0.0248214 0)
(-0.831004 -0.023687 0)
(-0.817556 -0.0228684 0)
(-0.804486 -0.0223636 0)
(-0.791608 -0.0221612 0)
(-0.778749 -0.0222415 0)
(-0.765752 -0.0225782 0)
(-0.752473 -0.0231411 0)
(-0.738789 -0.0238974 0)
(-0.724594 -0.0248126 0)
(-0.709808 -0.0258536 0)
(-0.694368 -0.0269898 0)
(-0.678229 -0.0281966 0)
(-0.661366 -0.0294609 0)
(-0.643765 -0.0307825 0)
(-0.625383 -0.0321726 0)
(-0.606301 -0.0337381 0)
(-0.586694 -0.0357473 0)
(-0.566305 -0.0378739 0)
(-0.545021 -0.0401268 0)
(1.70539 0.114174 0)
(1.64856 0.121438 0)
(1.58824 0.129195 0)
(1.52417 0.137526 0)
(1.45602 0.1465 0)
(1.38344 0.156123 0)
(1.30606 0.166342 0)
(1.22357 0.177042 0)
(1.13574 0.188021 0)
(1.04244 0.199006 0)
(0.943725 0.209647 0)
(0.839847 0.219559 0)
(0.73129 0.228349 0)
(0.618739 0.235661 0)
(0.503007 0.241195 0)
(0.385088 0.24474 0)
(0.266032 0.246148 0)
(0.146831 0.245348 0)
(0.0282225 0.242272 0)
(-0.0885189 0.236848 0)
(-0.20204 0.229049 0)
(-0.311349 0.218849 0)
(-0.415071 0.206403 0)
(-0.511959 0.192138 0)
(-0.601109 0.176629 0)
(-0.682032 0.160644 0)
(-0.754716 0.145033 0)
(-0.819713 0.130551 0)
(-0.877921 0.117738 0)
(-0.930427 0.106798 0)
(-0.978287 0.0977058 0)
(-1.02242 0.0901486 0)
(-1.06351 0.0836986 0)
(-1.10198 0.0778873 0)
(-1.13799 0.0722298 0)
(-1.17145 0.0664001 0)
(-1.20214 0.060103 0)
(-1.22973 0.0531979 0)
(-1.25387 0.0456111 0)
(-1.27417 0.0373672 0)
(-1.29029 0.0285604 0)
(-1.30195 0.0193533 0)
(-1.30895 0.0100667 0)
(-1.3113 -0.000103118 0)
(-1.3086 -0.00945175 0)
(-1.30145 -0.0183834 0)
(-1.29002 -0.0266719 0)
(-1.2747 -0.0341414 0)
(-1.25596 -0.0406528 0)
(-1.23431 -0.04611 0)
(-1.21031 -0.0504596 0)
(-1.1845 -0.0536901 0)
(-1.15747 -0.0558263 0)
(-1.12975 -0.0569275 0)
(-1.10181 -0.0570827 0)
(-1.07408 -0.0563984 0)
(-1.04695 -0.0549959 0)
(-1.02073 -0.0530143 0)
(-0.995657 -0.0505937 0)
(-0.971919 -0.0478758 0)
(-0.949619 -0.0449957 0)
(-0.928793 -0.0420783 0)
(-0.909422 -0.0392347 0)
(-0.891434 -0.0365602 0)
(-0.874716 -0.0341331 0)
(-0.85912 -0.0320141 0)
(-0.844475 -0.0302467 0)
(-0.830592 -0.0288572 0)
(-0.817278 -0.0278569 0)
(-0.804337 -0.027243 0)
(-0.791583 -0.0270011 0)
(-0.778838 -0.0271066 0)
(-0.765943 -0.0275269 0)
(-0.752753 -0.0282246 0)
(-0.739142 -0.0291589 0)
(-0.725007 -0.0302872 0)
(-0.710267 -0.0315682 0)
(-0.694861 -0.032964 0)
(-0.678748 -0.0344433 0)
(-0.661906 -0.0359873 0)
(-0.644329 -0.0375903 0)
(-0.625997 -0.0392567 0)
(-0.606993 -0.0410805 0)
(-0.587482 -0.0432691 0)
(-0.567369 -0.0455177 0)
(-0.546752 -0.0478075 0)
(1.70812 0.134725 0)
(1.65148 0.143265 0)
(1.59138 0.152393 0)
(1.52756 0.162212 0)
(1.45968 0.172811 0)
(1.38735 0.184208 0)
(1.31018 0.19634 0)
(1.2278 0.209068 0)
(1.13997 0.222146 0)
(1.04651 0.235247 0)
(0.947492 0.247945 0)
(0.843161 0.259774 0)
(0.734029 0.270261 0)
(0.620817 0.278978 0)
(0.504383 0.285565 0)
(0.385734 0.289773 0)
(0.265967 0.291444 0)
(0.146053 0.290515 0)
(0.0267013 0.286937 0)
(-0.090827 0.280613 0)
(-0.205207 0.271458 0)
(-0.3154 0.25945 0)
(-0.419947 0.244736 0)
(-0.517502 0.227783 0)
(-0.607082 0.209228 0)
(-0.688109 0.190061 0)
(-0.760573 0.171335 0)
(-0.825081 0.153996 0)
(-0.882635 0.138719 0)
(-0.934433 0.125768 0)
(-0.981644 0.115062 0)
(-1.02527 0.106223 0)
(-1.06602 0.0987273 0)
(-1.10434 0.091992 0)
(-1.14036 0.0854304 0)
(-1.17396 0.0786355 0)
(-1.20487 0.071246 0)
(-1.23274 0.0631083 0)
(-1.25716 0.0541356 0)
(-1.27772 0.0443592 0)
(-1.29406 0.0338996 0)
(-1.30586 0.0229599 0)
(-1.31292 0.0119007 0)
(-1.31523 -0.000192143 0)
(-1.3124 -0.0113152 0)
(-1.30502 -0.0219397 0)
(-1.29329 -0.0317946 0)
(-1.2776 -0.0406689 0)
(-1.25844 -0.0483975 0)
(-1.23634 -0.0548657 0)
(-1.21187 -0.0600108 0)
(-1.18561 -0.0638209 0)
(-1.15814 -0.066326 0)
(-1.13001 -0.0675997 0)
(-1.10169 -0.0677473 0)
(-1.07365 -0.0668972 0)
(-1.04625 -0.0651944 0)
(-1.01981 -0.0628049 0)
(-0.994589 -0.0598967 0)
(-0.970758 -0.0566391 0)
(-0.948416 -0.0531933 0)
(-0.927598 -0.049708 0)
(-0.908278 -0.046315 0)
(-0.890377 -0.0431274 0)
(-0.873775 -0.0402383 0)
(-0.858316 -0.0377193 0)
(-0.843822 -0.0356211 0)
(-0.830098 -0.0339749 0)
(-0.816944 -0.0327931 0)
(-0.804161 -0.0320722 0)
(-0.791555 -0.0317943 0)
(-0.778948 -0.0319296 0)
(-0.766176 -0.032439 0)
(-0.753092 -0.0332774 0)
(-0.739571 -0.0343957 0)
(-0.725507 -0.035743 0)
(-0.710822 -0.0372695 0)
(-0.695456 -0.0389294 0)
(-0.679372 -0.0406842 0)
(-0.662552 -0.0425081 0)
(-0.644999 -0.0443887 0)
(-0.626712 -0.0463235 0)
(-0.607776 -0.0483896 0)
(-0.588347 -0.0507382 0)
(-0.568437 -0.0531285 0)
(-0.548227 -0.0556435 0)
(1.71134 0.155481 0)
(1.65492 0.165308 0)
(1.59508 0.175817 0)
(1.53156 0.18714 0)
(1.46401 0.199386 0)
(1.39198 0.212585 0)
(1.31506 0.226668 0)
(1.23283 0.241466 0)
(1.145 0.25669 0)
(1.05138 0.271948 0)
(0.951993 0.286737 0)
(0.84712 0.300501 0)
(0.737301 0.312679 0)
(0.623305 0.32277 0)
(0.506041 0.330365 0)
(0.386583 0.335205 0)
(0.266006 0.33712 0)
(0.145282 0.336072 0)
(0.0250711 0.331999 0)
(-0.0934138 0.324721 0)
(-0.208833 0.314168 0)
(-0.320118 0.300239 0)
(-0.425705 0.28305 0)
(-0.524125 0.263144 0)
(-0.61424 0.241403 0)
(-0.695395 0.218934 0)
(-0.767581 0.197025 0)
(-0.831473 0.176813 0)
(-0.888203 0.159106 0)
(-0.93913 0.144179 0)
(-0.985546 0.131979 0)
(-1.02855 0.122006 0)
(-1.06891 0.113578 0)
(-1.10705 0.106013 0)
(-1.14308 0.0985924 0)
(-1.17685 0.0908715 0)
(-1.20805 0.0824364 0)
(-1.23625 0.0730881 0)
(-1.26101 0.0627341 0)
(-1.28189 0.0514249 0)
(-1.29848 0.0393047 0)
(-1.31046 0.0266049 0)
(-1.31759 0.0137458 0)
(-1.31985 -0.000314038 0)
(-1.31686 -0.0132509 0)
(-1.30922 -0.025603 0)
(-1.29712 -0.0370544 0)
(-1.281 -0.0473578 0)
(-1.26135 -0.0563198 0)
(-1.23872 -0.0638082 0)
(-1.2137 -0.069751 0)
(-1.1869 -0.0741362 0)
(-1.15891 -0.0770009 0)
(-1.1303 -0.078432 0)
(-1.10155 -0.0785545 0)
(-1.07312 -0.0775169 0)
(-1.0454 -0.07549 0)
(-1.01872 -0.0726683 0)
(-0.993324 -0.0692484 0)
(-0.969383 -0.065428 0)
(-0.946995 -0.0613953 0)
(-0.926189 -0.057323 0)
(-0.906931 -0.0533644 0)
(-0.889134 -0.0496508 0)
(-0.872669 -0.0462893 0)
(-0.857372 -0.0433626 0)
(-0.843057 -0.0409292 0)
(-0.829521 -0.0390242 0)
(-0.816556 -0.0376614 0)
(-0.803958 -0.0368357 0)
(-0.791528 -0.0365258 0)
(-0.779081 -0.0366964 0)
(-0.766454 -0.0373012 0)
(-0.753495 -0.0382874 0)
(-0.740077 -0.0395971 0)
(-0.726097 -0.0411705 0)
(-0.711475 -0.0429489 0)
(-0.696155 -0.0448784 0)
(-0.680102 -0.0469125 0)
(-0.663305 -0.0490176 0)
(-0.645773 -0.0511733 0)
(-0.627522 -0.0533698 0)
(-0.608639 -0.0556648 0)
(-0.589267 -0.0581585 0)
(-0.569491 -0.0606635 0)
(-0.549541 -0.0633048 0)
(1.71504 0.17604 0)
(1.65887 0.187121 0)
(1.59934 0.19898 0)
(1.53619 0.211783 0)
(1.46903 0.225671 0)
(1.39738 0.240692 0)
(1.32077 0.256768 0)
(1.23873 0.2737 0)
(1.15092 0.291139 0)
(1.0571 0.308633 0)
(0.957305 0.325594 0)
(0.851805 0.341371 0)
(0.741182 0.355308 0)
(0.626265 0.366828 0)
(0.508025 0.375468 0)
(0.387562 0.380943 0)
(0.266041 0.383091 0)
(0.144382 0.381906 0)
(0.0231827 0.377357 0)
(-0.096364 0.369239 0)
(-0.212966 0.357402 0)
(-0.3255 0.341693 0)
(-0.432264 0.322222 0)
(-0.531654 0.299491 0)
(-0.622407 0.274437 0)
(-0.703719 0.24849 0)
(-0.775586 0.223168 0)
(-0.838757 0.199874 0)
(-0.894521 0.179591 0)
(-0.94441 0.162687 0)
(-0.989896 0.148945 0)
(-1.03219 0.137796 0)
(-1.0721 0.12847 0)
(-1.11006 0.120128 0)
(-1.14613 0.111959 0)
(-1.18011 0.103375 0)
(-1.21164 0.093893 0)
(-1.24024 0.0833286 0)
(-1.26541 0.0715807 0)
(-1.28666 0.058696 0)
(-1.30356 0.0448512 0)
(-1.31574 0.0303415 0)
(-1.32297 0.0155968 0)
(-1.32518 -0.000477468 0)
(-1.32201 -0.0152724 0)
(-1.31405 -0.0293941 0)
(-1.30154 -0.0424776 0)
(-1.28491 -0.0542379 0)
(-1.26469 -0.0644533 0)
(-1.24144 -0.0729727 0)
(-1.2158 -0.0797154 0)
(-1.18837 -0.0846699 0)
(-1.15978 -0.0878818 0)
(-1.13061 -0.0894541 0)
(-1.10135 -0.0895296 0)
(-1.07249 -0.0882802 0)
(-1.04441 -0.0859022 0)
(-1.01745 -0.0826197 0)
(-0.99185 -0.0786597 0)
(-0.967785 -0.0742497 0)
(-0.945348 -0.0696052 0)
(-0.924558 -0.0649241 0)
(-0.905374 -0.0603811 0)
(-0.887699 -0.0561257 0)
(-0.871394 -0.0522798 0)
(-0.856286 -0.0489371 0)
(-0.842179 -0.0461633 0)
(-0.82886 -0.0439974 0)
(-0.816115 -0.0424541 0)
(-0.80373 -0.0415265 0)
(-0.791501 -0.0411898 0)
(-0.779241 -0.0414022 0)
(-0.766779 -0.0421101 0)
(-0.753963 -0.0432525 0)
(-0.740664 -0.0447621 0)
(-0.726778 -0.0465699 0)
(-0.712228 -0.0486082 0)
(-0.696958 -0.0508139 0)
(-0.680939 -0.0531322 0)
(-0.664164 -0.0555211 0)
(-0.646648 -0.0579511 0)
(-0.628423 -0.0604046 0)
(-0.609577 -0.0629198 0)
(-0.590239 -0.0655548 0)
(-0.570543 -0.0681685 0)
(-0.550741 -0.0708919 0)
(1.71922 0.196581 0)
(1.66333 0.208899 0)
(1.60415 0.222086 0)
(1.54143 0.236357 0)
(1.47473 0.251887 0)
(1.40354 0.268753 0)
(1.32731 0.286873 0)
(1.2455 0.306 0)
(1.15772 0.325721 0)
(1.0637 0.345524 0)
(0.963432 0.364736 0)
(0.857208 0.382598 0)
(0.745658 0.398343 0)
(0.629679 0.411311 0)
(0.510334 0.420983 0)
(0.388807 0.427084 0)
(0.26622 0.429468 0)
(0.143533 0.428178 0)
(0.0212341 0.423203 0)
(-0.0995693 0.414212 0)
(-0.217572 0.40103 0)
(-0.331607 0.383393 0)
(-0.439863 0.36124 0)
(-0.540491 0.335269 0)
(-0.631988 0.306703 0)
(-0.713464 0.277059 0)
(-0.784907 0.248214 0)
(-0.84717 0.221777 0)
(-0.901744 0.198912 0)
(-0.950403 0.180012 0)
(-0.994789 0.164936 0)
(-1.03623 0.152923 0)
(-1.07561 0.142896 0)
(-1.11335 0.133928 0)
(-1.14948 0.125024 0)
(-1.18374 0.115623 0)
(-1.21567 0.105197 0)
(-1.24474 0.0934624 0)
(-1.27039 0.0803225 0)
(-1.29208 0.0658715 0)
(-1.30933 0.0503178 0)
(-1.32176 0.0339974 0)
(-1.32909 0.0174186 0)
(-1.33123 -0.000686023 0)
(-1.32785 -0.0173936 0)
(-1.31954 -0.0333323 0)
(-1.30655 -0.0480891 0)
(-1.28934 -0.0613378 0)
(-1.26846 -0.0728282 0)
(-1.24451 -0.0823904 0)
(-1.21815 -0.0899354 0)
(-1.19 -0.0954527 0)
(-1.16074 -0.0989981 0)
(-1.13093 -0.100692 0)
(-1.10111 -0.100696 0)
(-1.07175 -0.099205 0)
(-1.04327 -0.0964443 0)
(-1.01598 -0.0926682 0)
(-0.990157 -0.0881356 0)
(-0.965956 -0.083105 0)
(-0.943465 -0.0778204 0)
(-0.922697 -0.0725053 0)
(-0.9036 -0.0673565 0)
(-0.886067 -0.0625419 0)
(-0.869947 -0.0581982 0)
(-0.855056 -0.0544298 0)
(-0.841186 -0.0513097 0)
(-0.828116 -0.0488807 0)
(-0.81562 -0.0471576 0)
(-0.803478 -0.0461317 0)
(-0.791479 -0.0457735 0)
(-0.77943 -0.0460353 0)
(-0.767156 -0.0468552 0)
(-0.7545 -0.0481634 0)
(-0.741335 -0.0498829 0)
(-0.727555 -0.0519348 0)
(-0.713084 -0.0542418 0)
(-0.697869 -0.0567315 0)
(-0.681885 -0.0593402 0)
(-0.66513 -0.0620165 0)
(-0.647624 -0.0647218 0)
(-0.629413 -0.0674299 0)
(-0.610584 -0.07016 0)
(-0.591261 -0.072937 0)
(-0.571603 -0.0756576 0)
(-0.551864 -0.0784334 0)
(1.72386 0.217007 0)
(1.66827 0.230527 0)
(1.6095 0.245008 0)
(1.54727 0.260722 0)
(1.48113 0.277893 0)
(1.41049 0.296641 0)
(1.33472 0.316886 0)
(1.25319 0.33829 0)
(1.16546 0.360359 0)
(1.07122 0.382545 0)
(0.970423 0.404096 0)
(0.863378 0.424124 0)
(0.750766 0.441745 0)
(0.633569 0.456205 0)
(0.512934 0.466938 0)
(0.390112 0.473658 0)
(0.266363 0.47625 0)
(0.142535 0.474834 0)
(0.0190233 0.469433 0)
(-0.103111 0.459709 0)
(-0.222629 0.445381 0)
(-0.338356 0.425998 0)
(-0.448204 0.401596 0)
(-0.550183 0.372634 0)
(-0.642589 0.340374 0)
(-0.724277 0.306854 0)
(-0.795258 0.274196 0)
(-0.856481 0.244392 0)
(-0.909668 0.218895 0)
(-0.956867 0.198109 0)
(-0.999958 0.181624 0)
(-1.04047 0.168547 0)
(-1.07932 0.157832 0)
(-1.11687 0.148288 0)
(-1.15309 0.13887 0)
(-1.18767 0.128746 0)
(-1.22008 0.117304 0)
(-1.24971 0.104372 0)
(-1.27592 0.089835 0)
(-1.29811 0.0737542 0)
(-1.31576 0.0563905 0)
(-1.32845 0.0381161 0)
(-1.3359 0.0194163 0)
(-1.33802 -0.00094908 0)
(-1.33441 -0.0196283 0)
(-1.3257 -0.037437 0)
(-1.31217 -0.0539131 0)
(-1.2943 -0.068687 0)
(-1.27268 -0.0814776 0)
(-1.24794 -0.0920955 0)
(-1.22075 -0.100444 0)
(-1.19181 -0.106515 0)
(-1.16178 -0.110378 0)
(-1.13126 -0.11217 0)
(-1.1008 -0.112075 0)
(-1.07089 -0.110311 0)
(-1.04194 -0.107134 0)
(-1.01431 -0.102827 0)
(-0.988231 -0.097685 0)
(-0.963881 -0.0919987 0)
(-0.941336 -0.0860422 0)
(-0.920597 -0.0800646 0)
(-0.901602 -0.0742858 0)
(-0.884232 -0.0688924 0)
(-0.868323 -0.0640357 0)
(-0.853678 -0.059831 0)
(-0.840077 -0.0563584 0)
(-0.827287 -0.0536639 0)
(-0.815073 -0.0517622 0)
(-0.803204 -0.0506417 0)
(-0.791463 -0.0502689 0)
(-0.779651 -0.0505887 0)
(-0.767586 -0.051531 0)
(-0.755111 -0.0530159 0)
(-0.742094 -0.0549565 0)
(-0.728431 -0.0572636 0)
(-0.714046 -0.0598497 0)
(-0.698891 -0.0626326 0)
(-0.682943 -0.0655391 0)
(-0.666204 -0.0685081 0)
(-0.648702 -0.0714914 0)
(-0.630491 -0.0744537 0)
(-0.611662 -0.0773964 0)
(-0.592331 -0.0803194 0)
(-0.572675 -0.0831469 0)
(-0.552938 -0.0859576 0)
(1.72896 0.237357 0)
(1.67369 0.252042 0)
(1.61538 0.267778 0)
(1.55372 0.284905 0)
(1.48823 0.303716 0)
(1.41824 0.32442 0)
(1.343 0.346904 0)
(1.26181 0.370665 0)
(1.17413 0.395174 0)
(1.07966 0.419824 0)
(0.97829 0.443825 0)
(0.870318 0.466134 0)
(0.756502 0.48571 0)
(0.637929 0.501698 0)
(0.515887 0.513464 0)
(0.391724 0.520761 0)
(0.26665 0.523539 0)
(0.141609 0.522003 0)
(0.0168011 0.516245 0)
(-0.106869 0.505792 0)
(-0.228207 0.490205 0)
(-0.345896 0.468959 0)
(-0.45784 0.441596 0)
(-0.561544 0.408994 0)
(-0.654956 0.372735 0)
(-0.736864 0.334922 0)
(-0.807228 0.298194 0)
(-0.867138 0.26485 0)
(-0.918642 0.236454 0)
(-0.964139 0.213609 0)
(-1.00571 0.196016 0)
(-1.04509 0.182513 0)
(-1.08326 0.171441 0)
(-1.12059 0.161543 0)
(-1.15697 0.151536 0)
(-1.19197 0.140725 0)
(-1.22494 0.128496 0)
(-1.2552 0.114438 0)
(-1.28205 0.0984679 0)
(-1.30484 0.0807611 0)
(-1.32298 0.061602 0)
(-1.33603 0.0414881 0)
(-1.34365 0.0209585 0)
(-1.34563 -0.00126416 0)
(-1.3417 -0.0219789 0)
(-1.33255 -0.0417196 0)
(-1.31841 -0.0599698 0)
(-1.2998 -0.0763094 0)
(-1.27734 -0.090427 0)
(-1.25171 -0.102117 0)
(-1.22362 -0.111272 0)
(-1.19378 -0.117889 0)
(-1.1629 -0.122051 0)
(-1.13159 -0.123919 0)
(-1.10042 -0.123696 0)
(-1.06989 -0.121624 0)
(-1.04044 -0.117986 0)
(-1.01241 -0.113106 0)
(-0.986059 -0.107312 0)
(-0.961549 -0.100932 0)
(-0.938948 -0.0942673 0)
(-0.918247 -0.0875963 0)
(-0.899371 -0.0811607 0)
(-0.882187 -0.0751666 0)
(-0.866517 -0.0697803 0)
(-0.85215 -0.0651277 0)
(-0.838851 -0.0612957 0)
(-0.826375 -0.0583333 0)
(-0.814474 -0.0562542 0)
(-0.802911 -0.0550436 0)
(-0.791457 -0.0546638 0)
(-0.779909 -0.0550515 0)
(-0.768076 -0.0561276 0)
(-0.755799 -0.0578017 0)
(-0.742945 -0.0599762 0)
(-0.72941 -0.0625509 0)
(-0.715119 -0.0654278 0)
(-0.700027 -0.0685144 0)
(-0.684113 -0.0717274 0)
(-0.667387 -0.0749959 0)
(-0.649881 -0.0782614 0)
(-0.631657 -0.0814796 0)
(-0.612808 -0.0846355 0)
(-0.593448 -0.0877099 0)
(-0.573763 -0.0906455 0)
(-0.553985 -0.0934856 0)
(1.73449 0.257592 0)
(1.67957 0.273391 0)
(1.62176 0.290326 0)
(1.56076 0.308823 0)
(1.49604 0.32928 0)
(1.42684 0.352052 0)
(1.35225 0.376722 0)
(1.27143 0.402898 0)
(1.18384 0.429994 0)
(1.08914 0.457219 0)
(0.987155 0.483731 0)
(0.878154 0.508397 0)
(0.762976 0.529992 0)
(0.642831 0.547544 0)
(0.519138 0.560373 0)
(0.393388 0.568254 0)
(0.266952 0.571209 0)
(0.14058 0.569573 0)
(0.0143659 0.563485 0)
(-0.110895 0.552485 0)
(-0.23408 0.535998 0)
(-0.354044 0.513066 0)
(-0.468045 0.483588 0)
(-0.573613 0.447747 0)
(-0.668291 0.407325 0)
(-0.750496 0.365107 0)
(-0.8202 0.324093 0)
(-0.878679 0.286981 0)
(-0.928224 0.256001 0)
(-0.97161 0.231496 0)
(-1.01144 0.21271 0)
(-1.04967 0.198343 0)
(-1.08722 0.186871 0)
(-1.1244 0.176657 0)
(-1.16098 0.166411 0)
(-1.19643 0.155065 0)
(-1.23009 0.141835 0)
(-1.26113 0.126598 0)
(-1.28873 0.10925 0)
(-1.31217 0.0898512 0)
(-1.33081 0.0687889 0)
(-1.34414 0.046527 0)
(-1.35183 0.0235449 0)
(-1.35386 -0.00167864 0)
(-1.34977 -0.0244985 0)
(-1.34011 -0.0462469 0)
(-1.32529 -0.0663308 0)
(-1.30586 -0.0842806 0)
(-1.28247 -0.0997578 0)
(-1.25585 -0.112534 0)
(-1.22674 -0.122497 0)
(-1.19591 -0.129647 0)
(-1.16408 -0.134086 0)
(-1.1319 -0.136 0)
(-1.09994 -0.135612 0)
(-1.06874 -0.133175 0)
(-1.03873 -0.129023 0)
(-1.01027 -0.123521 0)
(-0.983624 -0.11703 0)
(-0.958944 -0.10991 0)
(-0.936288 -0.102498 0)
(-0.915636 -0.095097 0)
(-0.896897 -0.0879747 0)
(-0.879924 -0.0813557 0)
(-0.864523 -0.0754214 0)
(-0.850467 -0.0703083 0)
(-0.837505 -0.0661096 0)
(-0.825378 -0.0628767 0)
(-0.813826 -0.0606222 0)
(-0.8026 -0.0593267 0)
(-0.791465 -0.0589475 0)
(-0.780206 -0.0594146 0)
(-0.768629 -0.0606377 0)
(-0.756571 -0.0625153 0)
(-0.743895 -0.0649384 0)
(-0.730498 -0.0677953 0)
(-0.716308 -0.0709766 0)
(-0.70128 -0.0743791 0)
(-0.685401 -0.0779089 0)
(-0.668682 -0.0814851 0)
(-0.651163 -0.0850391 0)
(-0.632912 -0.0885165 0)
(-0.614025 -0.0918881 0)
(-0.594614 -0.0951203 0)
(-0.574873 -0.0981662 0)
(-0.555018 -0.101039 0)
(1.74043 0.277766 0)
(1.68589 0.294624 0)
(1.62864 0.312698 0)
(1.56839 0.332524 0)
(1.50458 0.354735 0)
(1.43627 0.379511 0)
(1.36239 0.406425 0)
(1.28203 0.435222 0)
(1.19454 0.465181 0)
(1.09955 0.495247 0)
(0.996857 0.52443 0)
(0.886679 0.551625 0)
(0.769923 0.575387 0)
(0.647965 0.594598 0)
(0.522453 0.608463 0)
(0.395007 0.616811 0)
(0.266972 0.61983 0)
(0.139301 0.617981 0)
(0.0116988 0.611573 0)
(-0.115317 0.600052 0)
(-0.24076 0.582491 0)
(-0.363131 0.557872 0)
(-0.480077 0.525089 0)
(-0.58795 0.48514 0)
(-0.683949 0.439941 0)
(-0.76643 0.392552 0)
(-0.835249 0.346668 0)
(-0.891817 0.305444 0)
(-0.939014 0.270892 0)
(-0.980063 0.244121 0)
(-1.01795 0.224573 0)
(-1.05471 0.210291 0)
(-1.09144 0.198948 0)
(-1.1284 0.188769 0)
(-1.16529 0.178186 0)
(-1.20136 0.166311 0)
(-1.23577 0.152499 0)
(-1.26763 0.136198 0)
(-1.29607 0.117352 0)
(-1.32029 0.096234 0)
(-1.33959 0.073232 0)
(-1.35347 0.0490111 0)
(-1.36161 0.0242713 0)
(-1.36337 -0.0020716 0)
(-1.35864 -0.0271542 0)
(-1.34843 -0.0509788 0)
(-1.33285 -0.0729622 0)
(-1.3125 -0.0925681 0)
(-1.28807 -0.10943 0)
(-1.26035 -0.123305 0)
(-1.23012 -0.13407 0)
(-1.19819 -0.141732 0)
(-1.16533 -0.146416 0)
(-1.13219 -0.148341 0)
(-1.09937 -0.147743 0)
(-1.06742 -0.144927 0)
(-1.03679 -0.140253 0)
(-1.00787 -0.134074 0)
(-0.980908 -0.12683 0)
(-0.956048 -0.118922 0)
(-0.93334 -0.110718 0)
(-0.912749 -0.10255 0)
(-0.894169 -0.0947098 0)
(-0.877435 -0.0874408 0)
(-0.862335 -0.0809395 0)
(-0.848625 -0.0753526 0)
(-0.836037 -0.0707802 0)
(-0.824296 -0.0672761 0)
(-0.813128 -0.0648498 0)
(-0.802275 -0.0634775 0)
(-0.79149 -0.0631102 0)
(-0.78055 -0.063671 0)
(-0.769252 -0.0650575 0)
(-0.757431 -0.0671556 0)
(-0.744948 -0.0698442 0)
(-0.731701 -0.0729993 0)
(-0.717617 -0.0764999 0)
(-0.702656 -0.0802315 0)
(-0.686809 -0.0840894 0)
(-0.670092 -0.0879824 0)
(-0.65255 -0.0918318 0)
(-0.634258 -0.0955734 0)
(-0.615313 -0.0991648 0)
(-0.595831 -0.102561 0)
(-0.576008 -0.10572 0)
(-0.556046 -0.108634 0)
(1.74463 0.291284 0)
(1.69034 0.3088 0)
(1.63348 0.32758 0)
(1.5738 0.348232 0)
(1.51064 0.371623 0)
(1.44299 0.397597 0)
(1.36966 0.426023 0)
(1.28969 0.456588 0)
(1.20234 0.488485 0)
(1.10714 0.520556 0)
(1.00395 0.551641 0)
(0.892961 0.580645 0)
(0.775141 0.605912 0)
(0.652024 0.626197 0)
(0.525343 0.640707 0)
(0.396768 0.649373 0)
(0.267836 0.652429 0)
(0.139176 0.650537 0)
(0.0106019 0.644024 0)
(-0.117525 0.632358 0)
(-0.244373 0.614393 0)
(-0.368733 0.588674 0)
(-0.487349 0.554545 0)
(-0.59711 0.51222 0)
(-0.694367 0.463918 0)
(-0.777253 0.413121 0)
(-0.845639 0.363872 0)
(-0.901 0.319818 0)
(-0.946353 0.283758 0)
(-0.985539 0.256266 0)
(-1.02194 0.236156 0)
(-1.05769 0.221618 0)
(-1.0939 0.21028 0)
(-1.13079 0.200147 0)
(-1.16793 0.189583 0)
(-1.2045 0.177452 0)
(-1.23958 0.162958 0)
(-1.27217 0.14583 0)
(-1.30132 0.126029 0)
(-1.32615 0.103696 0)
(-1.34588 0.079305 0)
(-1.35993 0.0535848 0)
(-1.36788 0.0269372 0)
(-1.36978 -0.00255801 0)
(-1.36521 -0.0291196 0)