/*--------------------------------*- C++ -*----------------------------------*\
| =========                 |                                                 |
| \\      /  F ield         | OpenFOAM: The Open Source CFD Toolbox           |
|  \\    /   O peration     | Version:  v1912                                 |
|   \\  /    A nd           | Website:  www.openfoam.com                      |
|    \\/     M anipulation  |                                                 |
\*---------------------------------------------------------------------------*/
FoamFile
{
    version     2.0;
    format      ascii;
    class       volScalarField;
    location    "30";
    object      p;
}
// * * * * * * * * * * * * * * * * * * * * * * * * * * * * * * * * * * * * * //

dimensions      [1 -1 -2 0 0 0 0];


internalField   nonuniform List<scalar> 
14268
(
144962
145773
146576
147361
148134
148894
149644
150386
151120
151848
152570
153283
153985
154676
155351
156009
156648
157265
157859
158430
158976
159497
159994
160466
160914
161337
161737
162113
162464
162792
163097
163376
163632
163862
164067
164247
164403
164535
164646
164739
164816
164882
164941
164998
165058
165125
165203
165294
165399
165515
165635
165749
165845
165908
165919
165861
165709
165465
165108
164623
164001
163235
162322
161261
160055
158708
157228
155626
153914
152111
150235
148309
146355
144395
142453
140552
138712
136951
135287
133730
132290
130974
129783
128715
127773
126985
137536
138346
139147
139931
140702
141460
142209
142950
143684
144411
145132
145844
146547
147237
147912
148570
149209
149826
150420
150991
151537
152058
152555
153027
153475
153899
154298
154674
155026
155354
155658
155938
156193
156424
156629
156809
156964
157096
157207
157300
157376
157442
157500
157556
157615
157682
157759
157851
157956
158073
158194
158310
158409
158474
158488
158432
158283
158041
157685
157201
156580
155814
154901
153839
152631
151282
149801
148195
146480
144674
142795
140866
138908
136944
135000
133096
131254
129492
127826
126268
124828
123512
122321
121254
120313
119511
130100
130909
131710
132493
133263
134021
134769
135509
136242
136969
137690
138403
139106
139797
140472
141131
141770
142388
142982
143553
144100
144621
145118
145591
146039
146463
146862
147238
147590
147919
148223
148503
148759
148989
149194
149374
149529
149661
149771
149862
149938
150002
150059
150114
150171
150237
150314
150405
150511
150630
150754
150874
150977
151047
151066
151015
150869
150631
150279
149797
149177
148411
147497
146433
145222
143869
142382
140771
139050
137237
135352
133415
131451
129481
127531
125622
123777
122011
120343
118784
117344
116028
114838
113772
112834
112032
122669
123478
124278
125060
125828
126584
127330
128069
128802
129529
130249
130962
131666
132357
133034
133693
134333
134951
135547
136118
136665
137187
137684
138157
138605
139029
139429
139805
140158
140486
140791
141072
141328
141558
141763
141943
142098
142228
142337
142427
142501
142564
142618
142671
142727
142791
142867
142958
143065
143186
143314
143440
143549
143627
143654
143611
143475
143239
142892
142414
141795
141029
140113
139046
137830
136471
134977
133357
131627
129804
127908
125961
123986
122007
120048
118132
116281
114510
112839
111279
109838
108523
107335
106271
105335
104530
115234
116044
116843
117624
118391
119145
119890
120627
121359
122085
122806
123520
124225
124917
125595
126256
126897
127516
128112
128685
129232
129755
130252
130726
131174
131599
131999
132375
132728
133057
133363
133644
133900
134131
134336
134515
134669
134799
134907
134995
135066
135126
135178
135228
135281
135342
135416
135507
135616
135741
135875
136008
136127
136214
136252
136219
136092
135862
135522
135049
134432
133667
132749
131677
130455
129087
127583
125952
124209
122373
120463
118502
116513
114522
112552
110626
108766
106990
105315
103752
102311
100997
99811.1
98751.1
97819.1
97014.5
107802
108612
109410
110190
110954
111707
112449
113185
113916
114642
115363
116078
116783
117478
118157
118819
119462
120083
120680
121253
121801
122325
122823
123297
123746
124171
124571
124948
125302
125631
125937
126219
126476
126707
126912
127091
127244
127373
127479
127564
127633
127690
127738
127785
127834
127892
127965
128055
128166
128295
128435
128578
128708
128809
128860
128841
128728
128502
128171
127703
127090
126325
125404
124327
123096
121718
120202
118557
116798
114944
113017
111038
109033
107025
105041
103103
101233
99448.2
97768.5
96203.7
94762.3
93449.5
92266.2
91210.5
90283.4
89481.2
100368
101179
101977
102755
103518
104268
105008
105742
106471
107196
107918
108634
109341
110037
110719
111384
112028
112650
113249
113824
114373
114897
115396
115870
116320
116745
117147
117524
117878
118209
118515
118797
119055
119287
119492
119671
119823
119950
120053
120136
120202
120254
120298
120340
120385
120440
120510
120600
120712
120846
120995
121150
121294
121410
121478
121475
121379
121157
120838
120378
119769
119003
118079
116995
115755
114364
112833
111170
109392
107518
105569
103570
101543
99516.6
97514.7
95562.2
93680.7
91885.8
90200.5
88632.8
87191.2
85880.4
84700.8
83650.3
82729.3
81931.8
92935.8
93747.8
94544.9
95321.5
96081.4
96828.2
97565.5
98296.9
99024.7
99749.9
100472
101189
101899
102598
103282
103949
104595
105220
105820
106396
106947
107472
107972
108447
108897
109323
109725
110103
110458
110789
111096
111380
111638
111870
112076
112254
112405
112530
112631
112711
112772
112821
112860
112896
112936
112986
113053
113142
113256
113396
113555
113723
113884
114019
114106
114122
114048
113834
113525
113074
112468
111703
110774
109683
108431
107025
105476
103793
101993
100094
98120.8
96095.9
94045.3
91995.7
89973.5
88003.7
86108.7
84301.3
82610
81039.2
79597.4
78288.9
77113.8
76069.7
75156
74365.3
85503.4
86317
87114
87888.6
88645.3
89388.5
90122.3
90850.9
91576.9
92301.6
93024.4
93743.5
94455.6
95157.3
95844.7
96514.6
97164
97790.6
98393
98970.4
99522.4
100049
100550
101025
101476
101903
102306
102684
103040
103372
103681
103965
104224
104457
104663
104841
104991
105114
105212
105288
105345
105388
105421
105450
105484
105529
105591
105679
105796
105942
106113
106297
106477
106634
106743
106781
106719
106532
106231
105789
105189
104424
103490
102389
101124
99701.8
98131.8
96425.6
94599
92673
90670.5
88616.5
86537.8
84461.8
82416.2
80426.6
78517
76693.8
74996.6
73422.4
71980.5
70675.1
69505.4
68468.9
67563.8
66781.6
78072.3
78888
79684.5
80456.5
81209.5
81948.5
82678.2
83403.5
84127.6
84851.8
85575.5
86296.7
87011.9
87717
88408
89081.4
89733.9
90363.1
90967.6
91546.8
92100.3
92628
93129.9
93606.7
94058.5
94485.8
94889.1
95268.8
95625.2
95958.5
96268.2
96553.8
96814.2
97048.1
97254.2
97431.7
97580.4
97701.1
97795.8
97867.3
97919.4
97956.3
97983.2
98004.5
98030.8
98070.6
98127.9
98213.4
98332.1
98485.6
98669.2
98871.3
99074.1
99256.1
99391.9
99454.6
99423
99253
98957.6
98527.5
97931.9
97166.7
96228.1
95116.6
93836.2
92394.1
90800.6
89067.8
87211.6
85253.7
83218.3
81131.3
79020.4
76914.5
74842
72829.9
70900.6
69066.4
67359.8
65781.7
64340
63038.2
61875
60847.4
59952.3
59180.6
70642.9
71460.7
72256.5
73025.6
73774.2
74508.1
75233
75954.5
76676.3
77399.9
78124.8
78848.5
79567.2
80276.4
80971.6
81649
82305
82937.1
83544.1
84125.3
84680.5
85209.6
85712.8
86190.6
86643.3
87071.4
87475.4
87855.9
88213.4
88547.8
88859
89146.1
89407.9
89642.8
89849.3
90026.5
90173.9
90292
90383
90449.7
90496
90526.7
90545.3
90558.5
90574.4
90606.9
90659.9
90742.2
90862.7
91024
91222.1
91445
91673.4
91883.9
92049.2
92139.9
92118.8
91989.5
91699
91284.2
90695.4
89930.3
88985.9
87862.7
86565.5
85101.6
83482
81719.3
79829.9
77836.3
75763.8
73639.5
71492.5
69352.8
67250.3
65212.7
63262
61415.2
59698.5
58116.3
56675.3
55377.9
54222.3
53204.9
52321.4
51561.9
63215.3
64035.5
64830.4
65596
66339.4
67067.5
67786.8
68503.8
69223
69946
70672.2
71398.9
72121.7
72835.6
73535.6
74217.5
74877.4
75512.8
76122.5
76705.9
77262.9
77793.6
78298.1
78776.9
79230.6
79659.6
80064.4
80445.9
80804.5
81140.3
81453.1
81741.9
82005.3
82241.5
82448.8
82625.7
82771.6
82886.9
82973.7
83035.1
83074.8
83099.1
83108.2
83112.5
83118.3
83138.1
83188.7
83266.7
83388.3
83557.9
83772
84018.1
84275.3
84518.5
84717.9
84842.7
84871.8
84758
84462.9
84066.5
83484.9
82719.6
81768.3
80632
79315.6
77827.2
76178.2
74381.9
72455.2
70421.4
68307.3
66141.2
63953.5
61775.9
59639.8
57574.2
55600.3
53738.8
52011.6
50425.5
48985.7
47693.6
46546.9
45541.1
44670.9
43925.6
55789.8
56612.7
57406.5
58168
58905.3
59626.5
60339.3
61051.1
61767.3
62489.6
63217.4
63947.6
64675.2
65394.5
66100
66786.9
67451.3
68090.3
68702.8
69288.6
69847.6
70380
70885.9
71365.9
71820.6
72250.5
72656.1
73038.5
73398.3
73735.6
74050.2
74341
74606.3
74844.1
75052.3
75229.1
75373.5
75485.8
75568
75623.5
75657.2
75672.8
75672.7
75666.4
75660.3
75667
75709
75785
75906.5
76084.9
76316.7
76589
76878.6
77158.5
77395.7
77556.9
77613.2
77535.4
77254.2
76869.8
76296.6
75530.6
74571.6
73420.4
72082.5
70566.7
68885.1
67052
65084.3
63006.5
60846.5
58634.4
56402
54182.6
52009.5
49912.9
47914.3
46036.4
44297.8
42708.4
41270.3
39984.5
38848.2
37855.7
37000.4
36271.4
48366.8
49192.9
49985.5
50742
51472.2
52185.4
52890.5
53596.4
54309
55030.6
55760.3
56494.4
57227.6
57953
58664.7
59357.4
60026.6
60669.5
61285.2
61873.5
62434.6
62968.8
63476.2
63957.5
64413.3
64844
65250.5
65633.9
65994.9
66334
66650.5
66943.6
67211.1
67450.9
67660.4
67837.2
67980
68088.9
68166.1
68214.8
68242.9
68247.1
68236.7
68217.6
68199.7
68193.9
68220.7
68297.4
68417.7
68604.8
68855.9
69157.3
69483.8
69804.8
70084.5
70286.7
70379.5
70327.1
70078
69696.5
69131.7
68364.5
67396.5
66228.5
64867.2
63322
61605.4
59732.1
57720.3
55594.6
53384.6
51121.8
48839.4
46573
44358.5
42227.8
40202.6
38306.7
36555.3
34963.8
33528.2
32250
31125.6
30148.2
29309.9
28599.2
43343.4
44172
44963.5
45715.9
46440.4
47147.3
47846.4
48547.5
49257.4
49978.5
50709.6
51447
52184.5
52914.7
53631.1
54328.2
55001.1
55646.8
56264.6
56854.7
57417.4
57952.8
58461.3
58943.6
59400.2
59831.5
60238.5
60622.6
60984.6
61324.8
61642.9
61937.7
62207.1
62448.3
62658.9
62835.9
62977.6
63084.1
63157.6
63201
63225.6
63221.8
63204.7
63178.3
63149
63132
63145.2
63223.2
63341.1
63534.1
63799.3
64122.5
64477.5
64829.6
65141.5
65374.3
65492.7
65462.9
65237
64855.5
64298.8
63531.2
62557.3
61378.2
60000.8
58435.1
56692.9
54789.3
52742.5
50578.6
48328.8
46026.3
43705.9
41404.8
39160.3
37005.4
34962
33051.9
31293.8
29701
28267.7
26995.6
25880.5
24914.7
24089.4
23392.5
40716.9
41546.8
42337.7
43087.8
43809.2
44512.7
45208.4
45906.8
46615.3
47336.1
48068
48807.2
49547
50279.8
50998.8
51698.3
52373.2
53020.4
53639.4
54230.5
54793.9
55330
55839.1
56321.9
56778.9
57210.5
57617.8
58002.2
58364.7
58705.7
59024.6
59320.4
59590.6
59832.8
60044
60221.1
60362.3
60467.4
60538.9
60580
60601.4
60593.9
60572.7
60540.2
60506.1
60483.8
60491.1
60567
60685
60881
61154
61489.1
61859.4
62228.5
62557.9
62807.4
62940.4
62923.5
62710.1
62327.3
61775.8
61008.1
60030.7
58845.1
57458.5
55880.8
54123.8
52202.7
50136.7
47952.3
45681.6
43358.7
41018.9
38699.7
36439.3
34271.2
32217.9
30300.2
28538.9
26945
25513.1
24244.4
23134.4
22174.9
21356.7
20667.3
38090.9
38922.2
39712.5
40460.1
41178.2
41878
42570.2
43265.8
43972.7
44693.3
45426.1
46167
46909.4
47645
48366.6
49068.5
49745.5
50394.3
51014.5
51606.5
52170.7
52707.6
53217.2
53700.5
54158
54589.9
54997.5
55382.2
55745.2
56086.8
56406.7
56703.4
56974.7
57217.7
57429.6
57606.9
57747.5
57851.4
57920.8
57960.1
57977.2
57966.6
57941.7
57904.9
57864.6
57835.7
57837.8
57908.3
58027.6
58226.6
58507.5
58855.2
59241
59627.9
59975.6
60242.4
60390.1
60385.6
60185.5
59800.3
59254.3
58486.1
57504.6
56311.6
54914.6
53324.1
51552.2
49614.7
47530.5
45326.4
43035.6
40692.4
38332.3
35993.6
33716
31534
29470.2
27544.9
25780.3
24185.2
22755.1
21490
20385.3
19432.4
18621.6
17940
35465.3
36298.1
37087.8
37832.8
38547.3
39243.3
39931.7
40624.4
41329.7
42050
42783.7
43526.6
44271.6
45010
45734.5
46439
47118
47768.5
48389.8
48982.8
49547.9
50085.4
50595.7
51079.4
51537.3
51969.6
52377.4
52762.5
53126
53468.3
53789.1
54086.9
54359.2
54603.3
54815.9
54993.4
55133.5
55235.9
55303.2
55340.7
55353.3
55339.2
55308.7
55267.6
55221.3
55186.4
55183.1
55248.2
55368.8
55570.8
55859.8
56220
56622.6
57028
57394.6
57679.4
57842.6
57851.5
57665.2
57276.9
56736.8
55968.3
54982.8
53782.7
52375.8
50773
48986.8
47033.1
44930.1
42705
40391.5
38025.8
35643.7
33284.5
30989.4
28793.4
26719.1
24786.3
23018.3
21421.8
19993.6
18732.2
17633
16687
15883.8
15210.3
32840.4
33674.7
34463.6
35205.9
35916.6
36608.5
37293
37982.7
38686.2
39406.2
40140.8
40885.8
41633.6
42375
43102.4
43809.5
44490.8
45142.9
45765.4
46359.4
46925.3
47463.6
47974.4
48458.7
48917.1
49349.6
49757.7
50143.1
50507.1
50850.2
51171.9
51470.8
51744.2
51989.3
52202.7
52380.5
52520.1
52621.1
52686.1
52721.7
52729.9
52712.5
52678.4
52631.6
52579.1
52537
52527.5
52586.9
52708.8
52913.4
53210.8
53584.2
54003.9
54428.7
54815
55118.4
55297.9
55321.6
55149.6
54757.1
54223.4
53454.7
52465
51257.8
49840.6
48224.9
46423.2
44451.4
42328
40080.3
37743.9
35356
32952.5
30573.3
28260.5
26049.9
23964.4
22023.7
20252.3
18654.1
17228.2
15970.8
14877.6
13938.9
13143.7
12478.4
30215.9
31051.9
31840.1
32579.4
33286.1
33973.8
34654.1
35340.4
36042.2
36761.9
37497.6
38244.7
38995.4
39740
40470.4
41180.3
41863.8
42517.6
43141.3
43736.3
44303
44842
45353.5
45838.3
46297.1
46730
47138.3
47524
47888.5
48232.4
48555.1
48855.1
49129.7
49375.9
49590.2
49768.3
49907.3
50006.9
50069.5
50103.2
50106.8
50085.8
50047.1
49994.9
49936.2
49886.7
49870.6
49923.9
50047.3
50254.4
50560.4
50947.9
51385
51829.9
52236.7
52559.2
52755.2
52791.5
52636.1
52238.2
51711.7
50942.8
49948.9
48734.1
47306.4
45677.4
43859.5
41869.3
39725.4
37456.3
35098
32687.6
30261.3
27859.9
25527.9
23302.1
21205.2
19257.3
17483
15883.1
14459.9
13206.5
12119.2
11187.8
10400.8
9743.9
27592.1
28429.8
29217.2
29953.3
30655.8
31339
32015
32697.8
33397.6
34117.1
34853.8
35603.2
36357
37104.9
37838.4
38551.2
39237.1
39892.5
40517.5
41113.4
41681.1
42220.8
42732.9
43218.3
43677.5
44110.7
44519.2
44905.2
45270.3
45614.9
45938.6
46239.8
46515.7
46763.1
46978.3
47156.7
47295.3
47393.3
47453.4
47485.3
47484.2
47459.8
47416.8
47358.7
47293
47235.8
47212.6
47259.4
47384.5
47593.8
47908.5
48310.4
48765.6
49231.5
49659.7
50002.4
50216
50268.1
50129.2
49723.6
49205.1
48435.9
47437.3
46214.8
44775.9
43133.1
41298.8
39289.9
37125.8
34834.2
32451.8
30016.6
27566
25142.1
22791.2
20550.8
18442.8
16487.4
14709.8
13107.2
11686.6
10436.7
9355.25
8432.2
7654.93
7007.19
24876.5
25716
26502.6
27235.1
27933
28611.3
29282.5
29961.5
30659.3
31378.6
32116.4
32868.2
33625.4
34376.8
35113.8
35829.6
36518.1
37175.3
37801.5
38398.5
38967
39507.5
40020.3
40506.2
40966
41399.4
41808.2
42194.4
42560.1
42905.5
43230.4
43532.9
43810.1
44058.8
44275
44453.9
44592
44688.4
44745.5
44775.6
44769.6
44741.3
44693.7
44629.8
44557
44491.1
44459.8
44499.2
44626.1
44837.4
45161.4
45578.6
46054
46542.3
46993.2
47357.3
47589.2
47655.6
47537.6
47121.4
46612.6
45843.3
44839.7
43608.7
42158.1
40501.1
38649.9
36621.6
34435.4
32118.8
29709.7
27248.3
24773
22326.5
19955.9
17699.1
15578
13614.4
11833.5
10228.5
8812.12
7568.53
6497.2
5586.39
4821.52
4188.53
22069.2
22910.7
23696.5
24425
25117.8
25790.8
26456.8
27131.6
27827.1
28546.1
29285.2
30039.7
30800.5
31555.9
32296.5
33015.6
33706.8
34365.9
34993.4
35591.5
36160.9
36702.3
37215.8
37702.2
38162.5
38596.2
39005.2
39391.7
39758
40104.3
40430.4
40734.2
41012.9
41263
41480.4
41659.8
41797.4
41892.1
41946.1
41974.4
41963.3
41930.9
41878.3
41807.8
41726.8
41651.4
41611.8
41643
41771.8
41985
42318.9
42752.5
43250
43762.2
44237.7
44624.9
44876.8
44958.6
44855.3
44442.4
43936.3
43166.8
42157.7
40918.1
39456
37784.5
35915.4
33865.2
31653.8
29309.8
26872.9
24384.6
21883.8
19412.2
17019
14743.9
12609.7
10639.6
8857.17
7250.85
5843.39
4610.82
3565.49
2711.31
2059.62
1603.43
19262.7
20106.3
20891.2
21615.5
22302.8
22970.2
23630.6
24300.9
24994.2
25713
26453.4
27210.8
27975.4
28734.9
29479.2
30201.8
30895.8
31556.8
32185.6
32784.8
33355.2
33897.4
34411.6
34898.6
35359.4
35793.4
36202.6
36589.3
36956.1
37303.4
37630.7
37936
38216.2
38467.9
38686.6
38866.6
39003.8
39096.7
39147.1
39173.8
39157.4
39120.9
39063.4
38986.5
38897.5
38813.3
38762.7
38784.7
38915.7
39130.3
39474.3
39925.3
40444.6
40982.5
41483.7
41894.8
42167.3
42265.8
42170.3
41775.6
41265.4
40495.5
39480.8
38232.4
36757.6
35068.9
33179.2
31105.4
28868.6
26499.1
24036.2
21522.1
18993.9
16494.4
14076.9
11784.8
9638.62
7663.02
5879.82
4283.03
2926.63
1869.08
1172.42
691.312
399.448
259.441
16457.2
17302.8
18087
18806.6
19488.2
20149.6
20804.2
21469.6
22160.4
22879
23620.9
24381.3
25150
25913.8
26662.1
27388.2
28085.2
28748.1
29378.2
29978.4
30549.8
31092.8
31607.7
32095.4
32556.7
32991
33400.3
33787.3
34154.7
34503
34831.5
35138.3
35420.2
35673.4
35893.5
36074.2
36211
36302.1
36349.8
36372.8
36352.1
36311.2
36248.6
36164.9
36066.7
35967.4
35911.7
35923.7
36057.4
36272.9
36627.5
37096.6
37639
38203
38731.2
39167.2
39461.1
39575
39489.8
39111.1
38597.8
37827.1
36805.8
35547.4
34058.5
32353
30443.3
28348.6
26089.9
23696.1
21205.1
18658.8
16099
13570.9
11131.3
8822.91
6667.03
4690.34
2951.72
1632.39
793.129
323.853
149.496
58.5606
24.6424
20.9955
13652.3
14500.2
15283.8
15998.2
16673.8
17329.2
17977.6
18638
19326.4
20044.6
20787.7
21551.3
22324.3
23092.7
23845.1
24574.8
25274.9
25939.8
26571.1
27172.4
27744.8
28288.7
28804.3
29292.6
29754.4
30189
30598.4
30985.5
31353.6
31702.9
32032.7
32341.1
32624.7
32879.6
33101.2
33282.7
33419.1
33508.4
33554.3
33571.3
33547.2
33502.4
33434.7
33344.3
33237.4
33133.9
33060
33060.3
33197.4
33412.9
33778.1
34265.9
34833.3
35424.6
35980.4
36442.3
36758.3
36888.6
36814.7
36450.3
35934.5
35162.7
34134.5
32865.9
31363.9
29643.6
27716.3
25601.2
23317.2
20890.9
18364.3
15786.3
13198.2
10646.1
8185.61
5860.58
3706.96
1924.18
800.133
252.596
71.7517
18.5365
18.6144
17.2694
16.8484
16.457
10847.1
11697.9
12481.2
13189.9
13858.6
14507.2
15150
15804.8
16489.5
17208.5
17954
18720.9
19498.3
20271.5
21028.1
21761.7
22465
23131.8
23764.4
24366.7
24940.1
25484.8
26001.2
26490.1
26952.6
27387.4
27796.9
28184.1
28552.8
28903.1
29234.3
29544.4
29829.8
30086.5
30309.8
30492.2
30628.2
30715.6
30759.4
30770.6
30742.8
30693.7
30620.6
30523
30406.3
30289
30206.3
30197
30331.8
30549.7
30926
31433
32026.4
32646.7
33231.4
33720
34059
34206.4
34144.9
33794
33276.1
32503.6
31468.9
30190.9
28676.1
26940
24993.1
22851.2
20534.5
18075.6
15518.3
12915.4
10301.4
7721.95
5240.13
2941.95
1255.83
336.149
66.7251
13.9491
15.121
14.7673
14.8971
13.7104
13.2803
12.8447
8045.01
8897.91
9680.72
10383.3
11045.2
11687
12323.1
12972.3
13653.7
14372.2
15118.7
15888.7
16672
17450.4
18211.3
18948.8
19655.5
20324.3
20958
21561.4
22135.8
22681.4
23198.5
23688
24151
24586
24995.5
25382.8
25752.1
26103.5
26436.1
26748
27035.4
27294
27519.1
27702.5
27838.2
27923.6
27965.2
27970.4
27938.8
27885.8
27807.7
27703.3
27577
27449.6
27351.3
27334.2
27460.7
27683.3
28071.2
28598.8
29218.8
29869.1
30483.9
31000.5
31363.2
31527.8
31480
31142
30621.8
29849.1
28807.7
27520
25990.9
24235.6
22264
20095.6
17749.9
15263.4
12680.9
10050.1
7405.74
4797.12
2395.5
799.988
160.303
13.528
8.25611
10.4054
11.3995
11.1637
11.2138
10.2042
9.78458
9.32547
5245.93
6099.46
6881.81
7577.6
8232.43
8867.3
9495.84
10139
10817.9
11535.6
12284.2
13056.9
13844.8
14628.2
15394.6
16136.2
16846.4
17517.1
18152
18756.4
19331.9
19878.3
20396.1
20886.3
21349.8
21785
22194.4
22581.6
22951.6
23304.1
23638.2
23952
24241.3
24502
24729.1
24913.8
25049.2
25132.5
25171.8
25171.2
25135.6
25078.2
24994.6
24882.7
24745.7
24603.4
24494.3
24468.7
24587.1
24813.7
25213.9
25762.7
26409.4
27091.6
27738.2
28283.6
28671.1
28852.8
28820
28494.9
27971.1
27198.6
26149.6
24850.4
23305.2
21530.6
19536.1
17344.1
14975.1
12461.2
9846.98
7181.57
4510.01
2043.58
524.435
61.0736
10.324
9.28093
5.03738
6.84792
7.71699
7.61799
7.58792
6.69715
6.27187
5.81551
2513.97
3302.84
4082.83
4773.29
5420.6
6046.94
6666.84
7302.36
7978.42
8697.7
9449.41
10225.7
11018.7
11806.6
12576.3
13323.2
14037.9
14710.4
15346.3
15951.8
16528.3
17075.6
17594.1
18085
18549.3
18984.6
19393.8
19781.4
20152
20505.6
20841.1
21156.7
21448.1
21710.9
21940
22126
22261.2
22342.3
22378.6
22372.4
22332.6
22271.3
22182.8
22064
21916.7
21761.8
21637.4
21600.4
21710.4
21940.7
22353.4
22923.9
23599.6
24313.7
24993.6
25569.4
25982.7
26181.9
26164.9
25853.8
25323.5
24551.6
23494.3
22183.2
20622.6
18830.5
16815.1
14601.2
12206.4
9659.66
7005.71
4317.25
1847.64
382.343
15.2577
1.45263
6.07489
5.5246
1.9393
3.32454
4.08137
4.04686
3.98036
3.19778
2.76712
2.31054
616.837
1045.42
1556.91
2110.68
2666.53
3239.3
3835.97
4468.4
5142.32
5859.47
6610.54
7391.57
8192.97
8987.19
9760.44
10510.6
11228.6
11904.3
12541
13147.5
13725
14273.2
14792.5
15284.2
15749.1
16184.8
16593.9
16981.1
17352.5
17707.2
18044.3
18362
18655.6
18920.5
19151.9
19339.3
19474.4
19552.9
19586.9
19574.6
19530.4
19464.8
19370.8
19244.3
19085.3
18914.6
18770.1
18729.2
18830.5
19064.2
19489.7
20083.1
20789.7
21537.6
22250.2
22857.6
23297.9
23515.2
23514.5
23218.6
22679.6
21908.7
20843.4
19521.3
17945.4
16135.9
14099.9
11862.1
9434.22
6851.05
4174.54
1728.62
329.23
3.69271
-5.01478
-1.76361
2.00929
1.79103
-1.2153
-0.192748
0.478045
0.48616
0.389797
-0.304159
-0.736736
-1.19264
-25.5905
29.6585
185.172
427.902
687.274
987.108
1363.42
1840.97
2407.81
3052.59
3776.33
4559.87
5365.21
6164.8
6945
7699.67
8421.01
9097.52
9736.25
10343.4
10922.2
11471.4
11991.4
12483.6
12949.3
13385.3
13794.3
14180.9
14553
14908.9
15247.5
15567.4
15863.3
16130.6
16364.5
16553.6
16688.6
16764.3
16796.1
16777
16728.1
16659.1
16560.4
16427
16256.9
16071.8
15925.4
15855.9
15946.8
16183.7
16622.1
17238.9
17977.4
18762.1
19510.1
20149.2
20617.1
20849.1
20868.7
20588.7
20040.3
19270.6
18197.2
16863.6
15272.8
13446.2
11387.4
9119.88
6659.82
4058.13
1643.07
294.241
14.8335
-3.06866
-7.601
-5.04487
-1.94268
-1.92134
-4.42524
-3.68171
-3.10189
-3.07092
-3.19067
-3.81029
-4.24093
-4.69421
-43.013
-40.5213
-36.7288
-29.4216
-11.3075
31.6547
130.898
315.684
564.599
889.555
1322.28
1920.43
2619.12
3362.13
4129.75
4888.45
5614.51
6291.54
6931.33
7539.93
8119.87
8669.74
9190.42
9683.45
10149.9
10586.1
10994.9
11381.3
11754.1
12111.2
12451.5
12773.6
13071.9
13341.6
13578.2
13769
13904.2
13976.6
14006.2
13980.6
13929.4
13853.7
13749.5
13608.3
13425.5
13222.9
13027.1
12976.9
13058.5
13298.6
13750.1
14391.4
15162.9
15984.8
16772.2
17444.3
17941.2
18229
18227.9
17964.5
17405.2
16637.4
15555.8
14211
12604.6
10758.8
8673.4
6378.6
3905.58
1582.36
256.321
8.77646
10.4989
-5.75677
-10.3745
-8.36669
-5.79784
-5.61906
-7.68664
-7.15942
-6.66783
-6.62637
-6.76249
-7.31979
-7.74579
-8.19484
-46.1935
-43.6426
-41.4716
-39.3904
-36.7743
-34.5768
-32.0777
-26.7066
-12.5848
27.4391
134.3
359.809
674.784
1071.69
1588.88
2217.08
2864.09
3498.94
4127.86
4736.29
5316.71
5868.41
6390
6883.74
7350.98
7787.43
8195.73
8581.66
8955.33
9313.71
9655.89
9980.26
10281
10553.2
10792.8
10985.5
11120.9
11189.8
11217.2
11184.5
11128.3
11049.5
10940.7
10792.5
10597.7
10379.3
10200
10101.6
10167.3
10409.8
10875.1
11542.1
12348.7
13209.7
14035.1
14741.7
15268.4
15571.4
15591.5
15347
14774.6
14009.8
12919.6
11562.9
9938.88
8072.29
5962.62
3663.63
1494.61
233.415
-10.8167
3.66903
4.76569
-8.68062
-13.2285
-11.6922
-9.57517
-9.29881
-10.998
-10.6369
-10.2243
-10.1799
-10.3271
-10.8321
-11.2512
-11.6941
-49.2046
-46.9246
-44.7048
-42.6696
-40.2356
-38.3159
-37.0656
-35.6795
-34.0455
-32.6524
-29.7258
-22.2267
1.70063
70.9758
228.868
489.778
799.116
1158.68
1597.52
2096.6
2600.04
3101.5
3597.05
4084.62
4552.9
4989.44
5397.14
5782.03
6156.64
6516.29
6860.29
7187.26
7490.64
7765.56
8008.46
8203.42
8339.22
8405.93
8427.49
8389.52
8328.01
8245.48
8131.79
7975.99
7767.48
7529.36
7315.3
7209.49
7270.27
7515.38
7995.6
8689.85
9533.49
10436.5
11300.6
12043.2
12601
12931
12960
12736.9
12148.4
11387.3
10288.1
8918.58
7275.13
5391.75
3294.73
1347.18
203.789
-23.2779
-14.0543
-1.95736
-0.593911
-11.764
-16.1471
-15.0288
-13.2875
-12.9615
-14.3532
-14.1154
-13.7728
-13.7311
-13.8846
-14.3458
-14.7565
-15.1922
-52.1561
-49.8652
-47.721
-45.7684
-43.4834
-41.708
-40.4251
-39.0928
-37.6265
-36.6873
-35.8129
-35.1674
-34.2448
-32.4034
-28.2628
-16.0828
17.2521
90.3447
227.906
433.199
666.462
926.667
1223.53
1569.94
1949.95
2321.25
2679.7
3028.37
3377.48
3725.26
4067.48
4395.74
4702.11
4980.38
5227.36
5424.68
5560.88
5627.33
5638.54
5596.14
5529.25
5443.28
5325.14
5162.22
4940.94
4685.4
4459.97
4337.05
4375.09
4616
5110.89
5832.99
6714.65
7660.38
8566.55
9346.31
9935.69
10279.5
10331.5
10134.5
9526.46
8770.13
7661.04
6275.38
4620.24
2787.84
1120.19
158.721
-34.0854
-26.4211
-17.8579
-7.22812
-5.73456
-14.9974
-19.1332
-18.3771
-16.9491
-16.607
-17.7414
-17.5954
-17.3143
-17.2792
-17.4362
-17.8603
-18.2616
-18.6895
-55.2295
-53.0161
-50.8549
-48.9029
-46.6536
-44.8917
-43.6175
-42.3251
-40.9814
-40.0806
-39.1795
-38.583
-38.0423
-37.5384
-37.1421
-36.7555
-35.9518
-34.1285
-30.2509
-21.4491
-1.83681
37.2545
105.77
218.02
373.423
540.756
712.946
897.017
1099.33
1325.82
1576.41
1840.79
2099.48
2338.71
2553.22
2727.18
2849.68
2905.63
2905.83
2863.24
2799.36
2720.19
2610.22
2458.94
2253.6
2020.47
1812.32
1696.16
1717.79
1921.49
2358.27
3021.52
3894.7
4888.26
5839.25
6657.18
7278.96
7651.99
7714.66
7528.42
6925.16
6154.76
5032.38
3660.07
2130.25
810.669
95.3604
-43.3515
-37.1792
-29.7694
-21.6386
-12.2563
-10.6812
-18.3698
-22.2027
-21.7399
-20.5718
-20.2346
-21.1571
-21.0779
-20.8501
-20.8241
-20.9826
-21.3754
-21.7666
-22.1861
-58.1953
-56.0387
-53.9397
-52.0535
-49.909
-48.1794
-46.8815
-45.5883
-44.242
-43.3578
-42.5199
-41.9491
-41.387
-40.8209
-40.5171
-40.3355
-40.0451
-39.7449
-39.6616
-39.7531
-39.5069
-38.231
-35.5897
-30.7989
-22.7058
-9.69462
9.71837
38.3896
80.975
143.138
229.129
336.573
450.019
561.949
667.964
760.287
825.715
853.734
850.402
823.603
786.786
742.977
684.503
602.444
497.902
389.013
302.259
254.609
259.056
336.238
521.438
854.385
1412.04
2235.97
3126.29
3963.6
4621.11
5012.96
5085.82
4906.37
4337.55
3551.23
2504.77
1411.13
457.265
20.6768
-50.1932
-46.4024
-40.3305
-33.1752
-25.4345
-17.0766
-15.4835
-21.8445
-25.3331
-25.1102
-24.1647
-23.8483
-24.5954
-24.5635
-24.3814
-24.3656
-24.5245
-24.8906
-25.2713
-25.682
-61.2562
-59.1439
-57.0473
-55.1752
-53.0848
-51.4029
-50.1146
-48.858
-47.5689
-46.6753
-45.8173
-45.2415
-44.7114
-44.1979
-43.8842
-43.6404
-43.3755
-43.1187
-43.0215
-43.1777
-43.3279
-43.162
-42.6878
-42.0541
-41.377
-40.6633
-39.9165
-38.9379
-37.2995
-34.696
-30.7323
-24.9185
-16.7713
-6.0678
7.18327
21.9486
34.8137
41.7238
41.4146
35.6335
28.2468
20.8117
11.8671
0.408116
-12.1275
-21.7715
-25.9483
-27.1454
-27.0149
-24.2026
-13.8886
23.2313
156.536
495.93
976.167
1556.46
2104.45
2470.82
2543.75
2385.18
1935.15
1351.96
676.02
172.034
-38.9853
-55.766
-53.2355
-49.3188
-43.431
-36.5824
-29.237
-21.7321
-20.1505
-25.3896
-28.532
-28.4954
-27.7358
-27.449
-28.0514
-28.0522
-27.9093
-27.904
-28.0626
-28.4058
-28.7756
-29.1774
-64.2557
-62.2053
-60.1603
-58.3367
-56.3157
-54.6598
-53.3595
-52.1079
-50.8522
-49.9812
-49.1475
-48.5678
-48.015
-47.507
-47.2038
-46.965
-46.7259
-46.4875
-46.4223
-46.6153
-46.72
-46.5893
-46.2197
-45.7953
-45.4666
-45.2325
-45.1349
-45.171
-45.1931
-45.1868
-45.1937
-45.2059
-45.2177
-45.2414
-45.2849
-45.3112
-45.2569
-45.0546
-44.7534
-44.3917
-44.0887
-43.8756
-43.6872
-43.2034
-42.2789
-41.2964
-40.585
-40.2856
-40.3086
-40.6162
-41.3308
-42.0595
-41.0167
-28.7285
29.1568
198.004
450.685
646.262
707.47
617.012
380.603
152.906
-11.5749
-58.6002
-58.4294
-58.5471
-56.0942
-52.1852
-46.5385
-40.0016
-33.0253
-26.268
-24.6873
-28.9844
-31.7935
-31.8967
-31.2911
-31.0374
-31.5213
-31.5439
-31.4344
-31.4395
-31.5971
-31.9205
-32.2797
-32.6723
-67.3071
-65.294
-63.2652
-61.4663
-59.5054
-57.8944
-56.6065
-55.3797
-54.1579
-53.2809
-52.4546
-51.8811
-51.3524
-50.8484
-50.5405
-50.2874
-50.0423
-49.8132
-49.7325
-49.8692
-50
-49.8951
-49.5751
-49.1823
-48.8542
-48.6188
-48.5315
-48.5486
-48.5454
-48.5333
-48.5372
-48.5472
-48.5595
-48.5786
-48.6167
-48.6369
-48.5798
-48.3832
-48.0894
-47.7339
-47.4357
-47.2638
-47.0984
-46.6205
-45.8166
-44.9579
-44.3008
-43.966
-44.0407
-44.5419
-45.6612
-47.4337
-49.9312
-52.6024
-54.4881
-52.8945
-41.061
-19.1786
-8.03864
-24.0306
-57.0964
-65.6615
-66.4906
-62.1928
-61.5646
-61.4008
-58.9066
-55.0732
-49.6764
-43.4102
-36.8201
-30.6875
-29.1097
-32.6193
-35.1099
-35.3131
-34.8349
-34.6143
-35.0019
-35.0386
-34.9572
-34.9721
-35.1285
-35.4347
-35.7833
-36.1667
-70.3321
-68.3752
-66.3887
-64.6272
-62.7194
-61.1353
-59.8464
-58.6331
-57.4499
-56.5888
-55.7749
-55.1927
-54.6588
-54.174
-53.8717
-53.6274
-53.3935
-53.1699
-53.0941
-53.2009
-53.2831
-53.1669
-52.8605
-52.4903
-52.1841
-51.9681
-51.8784
-51.8845
-51.8854
-51.8749
-51.8764
-51.8836
-51.8935
-51.9099
-51.9405
-51.9522
-51.8892
-51.7009
-51.4205
-51.0819
-50.7906
-50.599
-50.4184
-49.9803
-49.2125
-48.4174
-47.8272
-47.5634
-47.5966
-48.0605
-49.1119
-50.8042
-53.2975
-56.0909
-58.8561
-61.8566
-64.7113
-66.9269
-68.4412
-69.4577
-69.9254
-68.8826
-69.2434
-65.5579
-64.6687
-64.1858
-61.7339
-58.0028
-52.8217
-46.8343
-40.6101
-35.008
-33.4355
-36.2826
-38.473
-38.7438
-38.3704
-38.181
-38.4908
-38.536
-38.4782
-38.5022
-38.6572
-38.9483
-39.2864
-39.6607
-73.3821
-71.461
-69.4996
-67.7681
-65.9167
-64.3721
-63.0955
-61.9008
-60.7437
-59.8849
-59.0871
-58.5115
-57.9825
-57.5039
-57.195
-56.9394
-56.7071
-56.4958
-56.4167
-56.5086
-56.5803
-56.464
-56.1786
-55.8337
-55.543
-55.3335
-55.2381
-55.2302
-55.2243
-55.2127
-55.2122
-55.2173
-55.225
-55.2378
-55.2625
-55.2678
-55.1997
-55.0183
-54.7473
-54.4213
-54.1413
-53.9506
-53.7848
-53.3275
-52.5991
-51.8468
-51.2842
-51.0279
-51.1301
-51.6304
-52.6912
-54.3617
-56.7211
-59.4059
-62.1104
-65.0155
-67.7752
-69.9621
-71.4618
-72.535
-72.8662
-71.9643
-71.9907
-68.7533
-67.6941
-66.9841
-64.6018
-60.9531
-55.9793
-50.2742
-44.389
-39.243
-37.6758
-39.9638
-41.8757
-42.1878
-41.9001
-41.7391
-41.9861
-42.0358
-41.9976
-42.03
-42.1833
-42.4611
-42.7891
-43.1542
-76.4251
-74.552
-72.6273
-70.9275
-69.1219
-67.6052
-66.3355
-65.1601
-64.0371
-63.188
-62.4
-61.8196
-61.2973
-60.8349