/*--------------------------------*- C++ -*----------------------------------*\
| =========                 |                                                 |
| \\      /  F ield         | OpenFOAM: The Open Source CFD Toolbox           |
|  \\    /   O peration     | Version:  v1912                                 |
|   \\  /    A nd           | Website:  www.openfoam.com                      |
|    \\/     M anipulation  |                                                 |
\*---------------------------------------------------------------------------*/
FoamFile
{
    version     2.0;
    format      ascii;
    class       volScalarField;
    location    "70";
    object      k;
}
// * * * * * * * * * * * * * * * * * * * * * * * * * * * * * * * * * * * * * //

dimensions      [0 2 -2 0 0 0 0];


internalField   nonuniform List<scalar> 
14268
(
4.8406e-10
4.92726e-10
4.99714e-10
4.99026e-10
4.86873e-10
4.75496e-10
4.70597e-10
4.77999e-10
4.84018e-10
4.8185e-10
4.70897e-10
4.63638e-10
4.65692e-10
4.68206e-10
4.64053e-10
4.54991e-10
4.53923e-10
4.65656e-10
4.82201e-10
4.97095e-10
5.10423e-10
5.27853e-10
5.46101e-10
5.56817e-10
5.56968e-10
5.56663e-10
5.79674e-10
6.57435e-10
8.03327e-10
1.13069e-09
1.80829e-09
2.94269e-09
3.48805e-09
3.39364e-09
3.53784e-09
5.70763e-09
1.48771e-08
4.03637e-08
8.17646e-08
1.14823e-07
1.01877e-07
7.73213e-08
5.37592e-08
3.1921e-08
1.14307e-08
1.15111e-08
1.16204e-08
1.16614e-08
1.15215e-08
1.13116e-08
1.12041e-08
1.12416e-08
1.13318e-08
1.1377e-08
1.12985e-08
1.11995e-08
1.11356e-08
1.10942e-08
1.10339e-08
1.09598e-08
1.09554e-08
1.10562e-08
1.11968e-08
1.1328e-08
1.14392e-08
1.15933e-08
1.17862e-08
1.198e-08
1.21094e-08
1.22366e-08
1.25742e-08
1.34979e-08
1.51593e-08
1.85883e-08
2.46618e-08
3.26185e-08
3.75152e-08
3.99793e-08
4.35571e-08
5.38848e-08
8.06864e-08
1.35614e-07
2.1215e-07
3.08132e-07
2.97214e-07
2.64924e-07
2.23278e-07
1.65535e-07
3.62594e-08
3.63609e-08
3.6569e-08
3.66585e-08
3.64307e-08
3.60319e-08
3.58104e-08
3.57952e-08
3.59458e-08
3.60846e-08
3.60336e-08
3.5888e-08
3.56838e-08
3.55282e-08
3.54269e-08
3.53855e-08
3.54221e-08
3.55485e-08
3.56798e-08
3.58444e-08
3.60158e-08
3.62717e-08
3.65619e-08
3.68695e-08
3.70324e-08
3.72031e-08
3.75951e-08
3.87904e-08
4.07586e-08
4.43288e-08
4.95089e-08
5.5833e-08
6.02242e-08
6.29269e-08
6.68586e-08
7.6358e-08
1.00286e-07
1.51408e-07
2.48981e-07
3.87585e-07
3.67409e-07
3.18398e-07
2.63043e-07
2.19498e-07
5.09426e-08
5.10047e-08
5.11273e-08
5.11752e-08
5.10538e-08
5.08241e-08
5.06924e-08
5.06931e-08
5.07837e-08
5.08593e-08
5.08242e-08
5.07389e-08
5.06173e-08
5.05375e-08
5.0484e-08
5.04722e-08
5.04869e-08
5.05459e-08
5.05929e-08
5.06727e-08
5.07398e-08
5.08824e-08
5.10065e-08
5.11867e-08
5.12282e-08
5.13497e-08
5.15011e-08
5.21559e-08
5.30986e-08
5.5004e-08
5.79133e-08
6.20692e-08
6.54384e-08
6.78021e-08
7.12907e-08
7.98177e-08
1.02599e-07
1.53655e-07
2.96041e-07
5.6281e-07
5.20716e-07
4.16686e-07
3.22235e-07
2.25193e-07
5.58711e-08
5.58868e-08
5.59431e-08
5.59622e-08
5.59152e-08
5.58256e-08
5.57623e-08
5.57529e-08
5.57926e-08
5.58272e-08
5.58177e-08
5.57914e-08
5.57251e-08
5.5674e-08
5.56475e-08
5.56716e-08
5.56888e-08
5.57156e-08
5.56946e-08
5.5713e-08
5.57237e-08
5.58007e-08
5.58323e-08
5.5923e-08
5.58943e-08
5.59723e-08
5.59802e-08
5.63034e-08
5.66915e-08
5.77462e-08
5.97631e-08
6.31887e-08
6.62439e-08
6.85364e-08
7.18984e-08
8.01101e-08
1.03169e-07
1.60067e-07
4.03673e-07
9.72362e-07
8.94996e-07
6.82651e-07
4.61873e-07
2.90582e-07
5.71254e-08
5.71374e-08
5.71565e-08
5.71608e-08
5.71435e-08
5.71004e-08
5.70761e-08
5.70815e-08
5.70909e-08
5.7094e-08
5.70758e-08
5.70668e-08
5.70516e-08
5.70455e-08
5.70298e-08
5.70308e-08
5.7025e-08
5.70411e-08
5.70271e-08
5.70514e-08
5.703e-08
5.7066e-08
5.70487e-08
5.71093e-08
5.70604e-08
5.71358e-08
5.71007e-08
5.73154e-08
5.74886e-08
5.82984e-08
6.00749e-08
6.33432e-08
6.63661e-08
6.86186e-08
7.19371e-08
8.01243e-08
1.03269e-07
1.8051e-07
6.1465e-07
1.74245e-06
1.60198e-06
1.20389e-06
7.87397e-07
4.03578e-07
5.74523e-08
5.74506e-08
5.7464e-08
5.74592e-08
5.74572e-08
5.74456e-08
5.74249e-08
5.7422e-08
5.74285e-08
5.74334e-08
5.74293e-08
5.74334e-08
5.74128e-08
5.73993e-08
5.73827e-08
5.74034e-08
5.74085e-08
5.74207e-08
5.73865e-08
5.73802e-08
5.73562e-08
5.73914e-08
5.7369e-08
5.74136e-08
5.73505e-08
5.74089e-08
5.73563e-08
5.75293e-08
5.7658e-08
5.83887e-08
6.01088e-08
6.33736e-08
6.63268e-08
6.85962e-08
7.1949e-08
8.00979e-08
1.03047e-07
2.21468e-07
1.0268e-06
3.13757e-06
2.83504e-06
2.10366e-06
1.36383e-06
6.81571e-07
5.74614e-08
5.7464e-08
5.74693e-08
5.74706e-08
5.74644e-08
5.74466e-08
5.74372e-08
5.74437e-08
5.74448e-08
5.7438e-08
5.74174e-08
5.74193e-08
5.74161e-08
5.74177e-08
5.74051e-08
5.74074e-08
5.73987e-08
5.74112e-08
5.73934e-08
5.74112e-08
5.73798e-08
5.74018e-08
5.73674e-08
5.74123e-08
5.73519e-08
5.74263e-08
5.73751e-08
5.75532e-08
5.76533e-08
5.83919e-08
6.01167e-08
6.33715e-08
6.63808e-08
6.86382e-08
7.19362e-08
8.0153e-08
1.01933e-07
2.94873e-07
1.83094e-06
5.59549e-06
4.90886e-06
3.54037e-06
2.30662e-06
1.13723e-06
5.75265e-08
5.75233e-08
5.75298e-08
5.75235e-08
5.75274e-08
5.75224e-08
5.75048e-08
5.75023e-08
5.75041e-08
5.75056e-08
5.75029e-08
5.75078e-08
5.7494e-08
5.74858e-08
5.74696e-08
5.74863e-08
5.74878e-08
5.74983e-08
5.74644e-08
5.74609e-08
5.74333e-08
5.74629e-08
5.74344e-08
5.74784e-08
5.74157e-08
5.74786e-08
5.74237e-08
5.75887e-08
5.7692e-08
5.84077e-08
6.0119e-08
6.33571e-08
6.6305e-08
6.86566e-08
7.20302e-08
8.02957e-08
1.0077e-07
4.25549e-07
3.34161e-06
9.87247e-06
8.30594e-06
5.72784e-06
3.72693e-06
1.91533e-06
5.74639e-08
5.74654e-08
5.74717e-08
5.74713e-08
5.74656e-08
5.74504e-08
5.74454e-08
5.74519e-08
5.74518e-08
5.74431e-08
5.74213e-08
5.74259e-08
5.74222e-08
5.74249e-08
5.74111e-08
5.74121e-08
5.74032e-08
5.74175e-08
5.73994e-08
5.74176e-08
5.73862e-08
5.74067e-08
5.73745e-08
5.74196e-08
5.73595e-08
5.74319e-08
5.73797e-08
5.75544e-08
5.76573e-08
5.8392e-08
6.0112e-08
6.33902e-08
6.63595e-08
6.87424e-08
7.20902e-08
8.05551e-08
9.97844e-08
6.42818e-07
6.02519e-06
1.73405e-05
1.3878e-05
8.95741e-06
5.82045e-06
3.04952e-06
5.75388e-08
5.7537e-08
5.75417e-08
5.75367e-08
5.75415e-08
5.7535e-08
5.75156e-08
5.7513e-08
5.7515e-08
5.75185e-08
5.75173e-08
5.75191e-08
5.75057e-08
5.74976e-08
5.74816e-08
5.74984e-08
5.74979e-08
5.75061e-08
5.74733e-08
5.74694e-08
5.74403e-08
5.74694e-08
5.7437e-08
5.74808e-08
5.74196e-08
5.74831e-08
5.74279e-08
5.75899e-08
5.76863e-08
5.83976e-08
6.0105e-08
6.33638e-08
6.63338e-08
6.88705e-08
7.23423e-08
8.07583e-08
9.90476e-08
9.89645e-07
1.04705e-05
3.04853e-05
2.3172e-05
1.36343e-05
8.71899e-06
4.70198e-06
5.74449e-08
5.74444e-08
5.7452e-08
5.74509e-08
5.74433e-08
5.7432e-08
5.74295e-08
5.74359e-08
5.74353e-08
5.74238e-08
5.74012e-08
5.74095e-08
5.74048e-08
5.7406e-08
5.73914e-08
5.73921e-08
5.73837e-08
5.74002e-08
5.73801e-08
5.7398e-08
5.73695e-08
5.73898e-08
5.73601e-08
5.74051e-08
5.73457e-08
5.74175e-08
5.73661e-08
5.75421e-08
5.76494e-08
5.83811e-08
6.01101e-08
6.33948e-08
6.63024e-08
6.90402e-08
7.26308e-08
8.08256e-08
9.86176e-08
1.51421e-06
1.71941e-05
5.24867e-05
3.86121e-05
2.04798e-05
1.25941e-05
6.87919e-06
5.75445e-08
5.7544e-08
5.7546e-08
5.75433e-08
5.75499e-08
5.75414e-08
5.75208e-08
5.75175e-08
5.7518e-08
5.75224e-08
5.7522e-08
5.75215e-08
5.751e-08
5.7502e-08
5.7487e-08
5.75024e-08
5.75004e-08
5.75067e-08
5.74756e-08
5.74726e-08
5.74423e-08
5.74691e-08
5.7432e-08
5.74752e-08
5.74155e-08
5.74817e-08
5.74261e-08
5.75861e-08
5.76797e-08
5.83992e-08
6.01205e-08
6.34248e-08
6.64188e-08
6.93984e-08
7.29414e-08
8.05333e-08
9.84693e-08
2.26297e-06
2.66428e-05
8.67022e-05
6.31643e-05
3.07016e-05
1.77025e-05
9.63362e-06
5.74092e-08
5.74052e-08
5.74136e-08
5.74107e-08
5.7404e-08
5.7397e-08
5.73958e-08
5.74024e-08
5.74009e-08
5.73862e-08
5.73628e-08
5.73755e-08
5.73702e-08
5.73714e-08
5.73536e-08
5.73521e-08
5.73451e-08
5.73662e-08
5.73479e-08
5.73685e-08
5.73408e-08
5.73609e-08
5.73323e-08
5.73798e-08
5.73223e-08
5.73954e-08
5.73454e-08
5.75269e-08
5.76388e-08
5.83759e-08
6.01084e-08
6.34469e-08
6.64994e-08
6.96191e-08
7.29462e-08
7.96246e-08
9.86493e-08
3.2778e-06
3.95213e-05
0.000136053
0.000100434
4.61213e-05
2.43603e-05
1.30886e-05
5.75484e-08
5.75509e-08
5.75579e-08
5.75572e-08
5.75588e-08
5.7545e-08
5.75262e-08
5.75267e-08
5.75309e-08
5.75359e-08
5.753e-08
5.75273e-08
5.75165e-08
5.75108e-08
5.75003e-08
5.75161e-08
5.7514e-08
5.7521e-08
5.74915e-08
5.74909e-08
5.74615e-08
5.74909e-08
5.74565e-08
5.75001e-08
5.74382e-08
5.75024e-08
5.74464e-08
5.76044e-08
5.76942e-08
5.84037e-08
6.01507e-08
6.37005e-08
6.69085e-08
7.01512e-08
7.31148e-08
7.84201e-08
1.01225e-07
5.29043e-06
6.48844e-05
0.000235831
0.000181066
8.09908e-05
3.81319e-05
1.96719e-05
5.74116e-08
5.74074e-08
5.74101e-08
5.74056e-08
5.73993e-08
5.73942e-08
5.73893e-08
5.7396e-08
5.73953e-08
5.73818e-08
5.73645e-08
5.73805e-08
5.73736e-08
5.73709e-08
5.73505e-08
5.7355e-08
5.73538e-08
5.73745e-08
5.73505e-08
5.7365e-08
5.73366e-08
5.73575e-08
5.73313e-08
5.73744e-08
5.73157e-08
5.73852e-08
5.73329e-08
5.75087e-08
5.76212e-08
5.83579e-08
6.01581e-08
6.40315e-08
6.81925e-08
7.05741e-08
7.20794e-08
7.57715e-08
1.1242e-07
9.44828e-06
0.000112389
0.000412165
0.000354987
0.000167951
6.68352e-05
3.14075e-05
5.75521e-08
5.75533e-08
5.75604e-08
5.75602e-08
5.7565e-08
5.75493e-08
5.75284e-08
5.75266e-08
5.753e-08
5.75378e-08
5.75329e-08
5.75253e-08
5.75159e-08
5.75107e-08
5.75007e-08
5.75138e-08
5.75104e-08
5.75179e-08
5.74911e-08
5.749e-08
5.74588e-08
5.74861e-08
5.74423e-08
5.74864e-08
5.7427e-08
5.74945e-08
5.74385e-08
5.75934e-08
5.76792e-08
5.84462e-08
6.05369e-08
6.43554e-08
6.88273e-08
7.03602e-08
7.06072e-08
7.37943e-08
1.39284e-07
1.62365e-05
0.000166045
0.000577324
0.000585653
0.00032272
0.000117831
4.92574e-05
5.73682e-08
5.73663e-08
5.73719e-08
5.73695e-08
5.73591e-08
5.73543e-08
5.73504e-08
5.73588e-08
5.736e-08
5.73463e-08
5.73264e-08
5.73444e-08
5.73343e-08
5.7331e-08
5.7313e-08
5.73212e-08
5.73191e-08
5.73401e-08
5.73185e-08
5.73354e-08
5.73114e-08
5.73369e-08
5.73209e-08
5.73658e-08
5.73073e-08
5.73692e-08
5.73146e-08
5.74935e-08
5.76394e-08
5.85941e-08
6.09428e-08
6.47721e-08
6.90179e-08
6.85049e-08
6.85823e-08
7.28561e-08
1.92722e-07
2.58176e-05
0.000219528
0.000732814
0.000812264
0.000506675
0.000196849
7.83786e-05
5.75613e-08
5.75558e-08
5.75636e-08
5.75619e-08
5.75739e-08
5.75572e-08
5.75208e-08
5.75147e-08
5.75212e-08
5.75397e-08
5.75445e-08
5.75277e-08
5.75092e-08
5.75011e-08
5.74928e-08
5.75036e-08
5.75085e-08
5.75232e-08
5.7498e-08
5.74928e-08
5.7463e-08
5.74974e-08
5.74597e-08
5.75175e-08
5.7468e-08
5.75449e-08
5.75101e-08
5.77275e-08
5.79327e-08
5.8895e-08
6.08888e-08
6.51311e-08
6.85967e-08
6.76142e-08
6.76808e-08
7.23429e-08
3.13479e-07
3.71812e-05
0.000284738
0.000913171
0.000987559
0.000697631
0.000313364
0.000120891
5.74648e-08
5.74739e-08
5.7474e-08
5.74664e-08
5.74462e-08
5.74346e-08
5.7442e-08
5.74587e-08
5.74591e-08
5.74365e-08
5.74076e-08
5.74315e-08
5.74338e-08
5.74356e-08
5.7409e-08
5.74009e-08
5.73944e-08
5.7426e-08
5.74264e-08
5.74688e-08
5.74603e-08
5.74954e-08
5.74944e-08
5.75615e-08
5.75311e-08
5.7629e-08
5.76266e-08
5.79078e-08
5.82533e-08
5.93691e-08
6.17458e-08
6.54691e-08
6.75205e-08
6.62042e-08
6.66709e-08
7.30931e-08
5.75272e-07
5.00944e-05
0.000367382
0.00109157
0.00110608
0.000866856
0.000450997
0.00017448
5.79686e-08
5.79487e-08
5.79413e-08
5.79505e-08
5.79588e-08
5.79523e-08
5.79409e-08
5.79274e-08
5.7913e-08
5.79127e-08
5.79027e-08
5.79006e-08
5.79145e-08
5.79132e-08
5.78894e-08
5.78869e-08
5.78631e-08
5.78735e-08
5.78925e-08
5.79407e-08
5.79248e-08
5.79592e-08
5.79208e-08
5.79759e-08
5.79465e-08
5.80716e-08
5.80657e-08
5.82962e-08
5.84903e-08
5.96107e-08
6.21051e-08
6.56487e-08
6.71865e-08
6.53136e-08
6.58028e-08
7.33366e-08
1.06855e-06
6.59184e-05
0.000444208
0.00122991
0.00119085
0.000951757
0.000535198
0.000222554
5.72736e-08
5.72767e-08
5.729e-08
5.72871e-08
5.72812e-08
5.72643e-08
5.72444e-08
5.72518e-08
5.72603e-08
5.72583e-08
5.72477e-08
5.72512e-08
5.72388e-08
5.72341e-08
5.72281e-08
5.72504e-08
5.72537e-08
5.72562e-08
5.7208e-08
5.71907e-08
5.7149e-08
5.71739e-08
5.71418e-08
5.71718e-08
5.70858e-08
5.71161e-08
5.70091e-08
5.70641e-08
5.69475e-08
5.7158e-08
5.74021e-08
5.71884e-08
5.67821e-08
5.78199e-08
6.32473e-08
1.06027e-07
7.34408e-06
0.00021684
0.000862558
0.00185671
0.00211121
0.00182404
0.00121754
0.000575343
5.58442e-08
5.58667e-08
5.5939e-08
5.59584e-08
5.59244e-08
5.58497e-08
5.58032e-08
5.57924e-08
5.58179e-08
5.58377e-08
5.58256e-08
5.57782e-08
5.56962e-08
5.56608e-08
5.56942e-08
5.58055e-08
5.58232e-08
5.57284e-08
5.55106e-08
5.53626e-08
5.52797e-08
5.52731e-08
5.51771e-08
5.50905e-08
5.48651e-08
5.47371e-08
5.43943e-08
5.40388e-08
5.32535e-08
5.1976e-08
4.83826e-08
4.109e-08
4.07341e-08
4.82579e-08
7.04809e-08
8.20399e-07
7.90051e-05
0.000697714
0.00155814
0.00280859
0.00390303
0.00386038
0.00314295
0.00204808
4.50669e-08
4.51024e-08
4.52698e-08
4.53041e-08
4.53591e-08
4.5333e-08
4.5298e-08
4.52533e-08
4.5262e-08
4.52743e-08
4.53401e-08
4.53064e-08
4.51542e-08
4.51153e-08
4.53944e-08
4.59048e-08
4.60609e-08
4.56053e-08
4.48107e-08
4.42142e-08
4.39094e-08
4.37625e-08
4.34244e-08
4.30129e-08
4.24819e-08
4.22401e-08
4.15094e-08
4.01365e-08
3.7552e-08
3.32012e-08
2.71549e-08
2.52547e-08
3.54239e-08
9.28302e-08
5.00965e-07
2.7214e-05
0.000366241
0.000894213
0.00114003
0.00167077
0.00265036
0.00333139
0.00362959
0.00203165
1.82873e-08
2.39984e-08
2.94346e-08
2.31305e-08
1.81752e-08
1.82888e-08
1.83026e-08
1.82785e-08
1.82372e-08
1.82915e-08
1.83742e-08
1.84144e-08
1.84728e-08
1.86138e-08
1.8891e-08
1.92079e-08
1.9284e-08
1.90479e-08
1.85315e-08
1.80714e-08
1.78138e-08
1.761e-08
1.72718e-08
1.69972e-08
1.67811e-08
1.68665e-08
1.6393e-08
1.5073e-08
1.27591e-08
1.13352e-08
1.56046e-08
4.945e-08
2.88125e-07
1.64208e-06
9.69873e-06
5.65692e-05
0.000182251
0.000226971
0.000188316
0.000203837
0.000379699
0.000741666
0.00129575
0.00164878
2.69657e-06
5.1871e-06
6.70895e-06
4.32217e-06
8.34047e-07
4.2449e-07
2.05822e-07
9.7244e-08
5.39829e-08
2.78089e-08
1.29297e-08
7.32069e-09
5.81013e-09
5.62154e-09
5.57973e-09
5.55253e-09
5.67653e-09
5.81982e-09
5.73856e-09
5.41187e-09
4.9751e-09
4.66296e-09
4.45106e-09
4.17781e-09
3.65732e-09
2.89804e-09
1.94609e-09
1.04524e-09
8.7908e-10
5.59728e-09
4.00517e-08
1.6008e-07
5.91219e-07
2.21498e-06
7.51585e-06
2.02105e-05
2.78011e-05
2.43381e-05
8.11201e-06
2.52756e-06
5.63517e-06
3.07393e-05
0.000114817
0.000298517
0.00177158
0.00185346
0.00197572
0.00173504
0.00125609
0.000942602
0.000638489
0.000446297
0.000349857
0.000258915
0.000165693
9.4128e-05
4.24498e-05
1.11529e-05
7.94591e-07
1.63584e-08
3.9559e-09
2.14605e-09
2.1774e-09
1.99876e-09
1.81497e-09
1.66544e-09
1.6082e-09
1.53512e-09
1.27668e-09
6.62002e-10
1.75794e-10
1.11475e-10
2.90034e-10
1.51957e-09
7.8963e-09
2.7078e-08
8.21324e-08
3.12825e-07
9.35377e-07
1.80487e-06
3.83164e-06
5.11302e-06
4.86808e-06
4.48523e-06
4.77329e-06
4.40714e-06
3.45142e-06
8.57594e-06
0.15702
0.15246
0.160984
0.172098
0.17267
0.143321
0.111154
0.097608
0.0971942
0.094547
0.0835459
0.0681385
0.0511266
0.03153
0.0105597
0.00094834
1.67497e-05
7.41257e-08
4.84229e-10
3.53833e-12
1.21739e-12
4.5866e-11
7.14602e-11
5.94257e-11
4.97236e-11
4.37907e-11
1.45162e-10
5.78987e-10
6.56671e-10
8.32882e-10
1.45574e-09
3.55205e-09
1.11631e-08
4.25198e-08
1.32045e-07
2.41269e-07
5.19858e-07
8.56042e-07
9.32426e-07
1.32957e-06
1.70481e-06
1.19646e-06
1.13804e-06
1.28495e-05
0.126666
0.136326
0.149003
0.165628
0.188487
0.210089
0.21766
0.218989
0.218711
0.220171
0.238847
0.323501
0.540715
0.958771
1.41847
1.2872
0.174921
0.00300014
2.06655e-05
1.08142e-07
3.05212e-08
3.18267e-08
3.5224e-08
3.84232e-08
3.95889e-08
3.89867e-08
3.95454e-08
4.31856e-08
4.55363e-08
4.3643e-08
3.5198e-08
2.57895e-08
1.91218e-08
1.4332e-08
1.70944e-08
2.5601e-08
5.01898e-08
9.84297e-08
1.02516e-07
8.40218e-08
5.17425e-08
2.64857e-08
2.88068e-08
4.51293e-07
0.101657
0.0939514
0.0893599
0.0883973
0.088209
0.0833184
0.0697911
0.0495822
0.0323541
0.0291039
0.052036
0.140476
0.321649
0.573281
0.656765
0.299629
0.0148623
0.000146334
9.56426e-07
8.91667e-08
8.544e-08
8.67104e-08
9.04437e-08
9.24192e-08
9.3556e-08
9.33629e-08
8.99384e-08
8.62963e-08
8.34838e-08
7.86927e-08
7.17475e-08
6.2776e-08
5.62629e-08
4.786e-08
4.35282e-08
4.27571e-08
4.46071e-08
4.41147e-08
4.40647e-08
4.61925e-08
5.69879e-08
7.08736e-08
9.26528e-08
1.31045e-07
0.00855236
0.00533321
0.00441768
0.00447559
0.00466123
0.00422057
0.00440111
0.00775881
0.0262167
0.059929
0.0981038
0.135854
0.16789
0.172305
0.124349
0.0270408
0.000658372
6.9402e-06
1.50746e-07
1.0289e-07
1.01421e-07
9.9454e-08
9.6258e-08
9.24315e-08
8.82029e-08
8.3484e-08
7.8035e-08
7.205e-08
6.7683e-08
6.44578e-08
6.20131e-08
6.08394e-08
6.04077e-08
5.96084e-08
5.95537e-08
6.01204e-08
6.06237e-08
6.09516e-08
6.24353e-08
6.59827e-08
7.30212e-08
8.53753e-08
1.00217e-07
1.32413e-07
0.0397638
0.0397849
0.0404199
0.0412852
0.0417703
0.0422643
0.0441154
0.047626
0.0518581
0.055111
0.0551429
0.0507548
0.0430942
0.0308836
0.014518
0.00152703
2.48518e-05
3.09257e-07
7.44724e-08
7.09001e-08
6.92138e-08
6.7496e-08
6.5433e-08
6.3536e-08
6.2192e-08
6.10254e-08
6.00258e-08
5.8999e-08
5.83127e-08
5.77835e-08
5.7935e-08
5.82971e-08
5.85505e-08
5.93288e-08
6.06298e-08
6.13664e-08
6.18112e-08
6.35763e-08
6.73342e-08
7.07161e-08
7.50541e-08
8.20735e-08
8.95616e-08
1.02235e-07
0.0177515
0.0168032
0.0162585
0.0154309
0.0141981
0.0133543
0.0136164
0.0145556
0.0150249
0.0137259
0.0110698
0.00852576
0.00592726
0.00324257
0.00105449
6.43355e-05
9.60997e-07
6.76272e-08
5.88239e-08
5.84149e-08
5.81033e-08
5.78584e-08
5.76671e-08
5.76756e-08
5.77099e-08
5.77968e-08
5.79353e-08
5.81153e-08
5.83453e-08
5.8356e-08
5.83362e-08
5.84812e-08
5.89235e-08
5.96189e-08
6.07094e-08
6.16749e-08
6.26994e-08
6.31685e-08
6.43416e-08
6.74246e-08
7.3126e-08
8.31054e-08
8.85162e-08
1.01985e-07
0.0034678
0.00306525
0.00278174
0.00244771
0.00207001
0.00183285
0.00183855
0.00197139
0.00200275
0.0017143
0.00125865
0.000851669
0.000506024
0.000224679
5.42689e-05
2.30891e-06
8.57396e-08
5.7109e-08
5.67045e-08
5.66161e-08
5.66543e-08
5.6707e-08
5.67754e-08
5.68492e-08
5.69805e-08
5.71479e-08
5.7324e-08
5.74948e-08
5.76911e-08
5.78575e-08
5.82568e-08
5.87528e-08
5.90374e-08
5.97524e-08
6.08554e-08
6.18479e-08
6.2838e-08
6.44534e-08
6.69453e-08
6.95377e-08
7.23475e-08
7.75921e-08
8.22362e-08
8.82398e-08
0.000246706
0.000215084
0.000192505
0.000165544
0.00013754
0.000124285
0.000131892
0.000151617
0.000163471
0.000139394
9.77064e-05
6.14313e-05
3.26722e-05
1.21856e-05
2.26929e-06
1.26509e-07
5.77226e-08
5.6915e-08
5.70334e-08
5.71823e-08
5.73145e-08
5.74832e-08
5.75852e-08
5.7715e-08
5.78969e-08
5.80803e-08
5.83074e-08
5.84075e-08
5.84781e-08
5.84686e-08
5.84686e-08
5.86638e-08
5.90902e-08
5.97458e-08
6.07224e-08
6.14478e-08
6.2196e-08
6.28216e-08
6.40657e-08
6.70172e-08
7.15275e-08
7.7906e-08
8.22136e-08
8.84878e-08
1.40685e-05
1.23437e-05
1.13464e-05
1.00878e-05
8.73995e-06
8.17417e-06
8.87093e-06
1.04445e-05
1.14046e-05
9.51924e-06
6.39157e-06
3.7506e-06
1.80256e-06
5.96161e-07
1.31873e-07
5.90509e-08
5.71104e-08
5.70963e-08
5.71138e-08
5.71609e-08
5.72333e-08
5.72573e-08
5.73215e-08
5.74186e-08
5.75552e-08
5.76867e-08
5.78387e-08
5.79966e-08
5.8243e-08
5.85252e-08
5.89654e-08
5.94308e-08
5.96805e-08
6.01992e-08
6.10132e-08
6.205e-08
6.31783e-08
6.46099e-08
6.63189e-08
6.83754e-08
7.04324e-08
7.43184e-08
7.80956e-08
8.13674e-08
1.05971e-06
8.90217e-07
8.10535e-07
7.20734e-07
6.29734e-07
5.91687e-07
6.3357e-07
7.30732e-07
7.69846e-07
6.25777e-07
4.1651e-07
2.49192e-07
1.3674e-07
7.73571e-08
5.93737e-08
5.72855e-08
5.71959e-08
5.72191e-08
5.7271e-08
5.73365e-08
5.74663e-08
5.76642e-08
5.77549e-08
5.78578e-08
5.80056e-08
5.81711e-08
5.83682e-08
5.84681e-08
5.84601e-08
5.83693e-08
5.83449e-08
5.848e-08
5.8865e-08
5.95145e-08
6.04422e-08
6.10798e-08
6.17815e-08
6.25769e-08
6.38455e-08
6.63339e-08
6.98115e-08
7.43787e-08
7.79549e-08
8.12418e-08
1.30211e-07
1.12945e-07
1.04686e-07
9.81713e-08
9.21083e-08
8.93402e-08
9.14774e-08
9.67541e-08
9.70367e-08
8.72307e-08
7.48903e-08
6.57801e-08
6.03215e-08
5.78964e-08
5.73995e-08
5.73782e-08
5.73697e-08
5.73951e-08
5.74317e-08
5.74964e-08
5.75511e-08
5.75538e-08
5.75917e-08
5.76668e-08
5.77994e-08
5.78725e-08
5.79966e-08
5.81332e-08
5.84355e-08
5.87936e-08
5.92244e-08
5.97226e-08
6.00099e-08
6.04643e-08
6.11131e-08
6.19772e-08
6.29633e-08
6.42512e-08
6.55518e-08
6.72291e-08
6.891e-08
7.17652e-08
7.47738e-08
7.73326e-08
6.326e-08
6.16062e-08
6.07352e-08
6.011e-08
5.96401e-08
5.94009e-08
5.94174e-08
5.95126e-08
5.9331e-08
5.87197e-08
5.80656e-08
5.76265e-08
5.74228e-08
5.73739e-08
5.74231e-08
5.74259e-08
5.73964e-08
5.73959e-08
5.7427e-08
5.74766e-08
5.75547e-08
5.76809e-08
5.77963e-08
5.791e-08
5.80379e-08
5.82002e-08
5.83978e-08
5.85315e-08
5.84953e-08
5.83871e-08
5.8389e-08
5.8504e-08
5.88258e-08
5.93561e-08
6.01159e-08
6.08402e-08
6.15505e-08
6.24224e-08
6.36284e-08
6.56932e-08
6.83349e-08
7.17281e-08
7.44274e-08
7.68335e-08
5.74761e-08
5.73212e-08
5.72576e-08
5.72146e-08
5.71749e-08
5.71692e-08
5.72152e-08
5.72964e-08
5.73583e-08
5.7358e-08
5.73546e-08
5.73664e-08
5.74007e-08
5.74319e-08
5.7497e-08
5.74943e-08
5.74786e-08
5.74833e-08
5.75078e-08
5.75447e-08
5.75821e-08
5.76069e-08
5.76473e-08
5.77135e-08
5.784e-08
5.79124e-08
5.80254e-08
5.81617e-08
5.84575e-08
5.88343e-08
5.92518e-08
5.97238e-08
6.00444e-08
6.04772e-08
6.10454e-08
6.1728e-08
6.25273e-08
6.36952e-08
6.4732e-08
6.61141e-08
6.75225e-08
6.96437e-08
7.19781e-08
7.41489e-08
5.77011e-08
5.76306e-08
5.75702e-08
5.75105e-08
5.74621e-08
5.74178e-08
5.73663e-08
5.73208e-08
5.73149e-08
5.73325e-08
5.73547e-08
5.73828e-08
5.74214e-08
5.74506e-08
5.75024e-08
5.74897e-08
5.74739e-08
5.7472e-08
5.74963e-08
5.75488e-08
5.76308e-08
5.77407e-08
5.78365e-08
5.79396e-08
5.80683e-08
5.82198e-08
5.84124e-08
5.85069e-08
5.85903e-08
5.84978e-08
5.84958e-08
5.86052e-08
5.88987e-08
5.93484e-08
6.00028e-08
6.07209e-08
6.14246e-08
6.22732e-08
6.33262e-08
6.49655e-08
6.69641e-08
6.95666e-08
7.15723e-08
7.32951e-08
5.73544e-08
5.73185e-08
5.73089e-08
5.7297e-08
5.72842e-08
5.72933e-08
5.7319e-08
5.73403e-08
5.73589e-08
5.73847e-08
5.7405e-08
5.74262e-08
5.74568e-08
5.74789e-08
5.75284e-08
5.75292e-08
5.75255e-08
5.75298e-08
5.75485e-08
5.75746e-08
5.76081e-08
5.76458e-08
5.76938e-08
5.77666e-08
5.78652e-08
5.7946e-08
5.80653e-08
5.81987e-08
5.84378e-08
5.8783e-08
5.91892e-08
5.9627e-08
5.99566e-08
6.03422e-08
6.08008e-08
6.13587e-08
6.20499e-08
6.31448e-08
6.39826e-08
6.51141e-08
6.63213e-08
6.78983e-08
6.97541e-08
7.13168e-08
5.75894e-08
5.75416e-08
5.74968e-08
5.74439e-08
5.73981e-08
5.73737e-08
5.73626e-08
5.73615e-08
5.73726e-08
5.73895e-08
5.74116e-08
5.74309e-08
5.74535e-08
5.74731e-08
5.75159e-08
5.75082e-08
5.74961e-08
5.74975e-08
5.75225e-08
5.75761e-08
5.76519e-08
5.7749e-08
5.78459e-08
5.79459e-08
5.80771e-08
5.82206e-08
5.84086e-08
5.84991e-08
5.86463e-08
5.8599e-08
5.85997e-08
5.87032e-08
5.89718e-08
5.93976e-08
5.99757e-08
6.06397e-08
6.1271e-08
6.20764e-08
6.29985e-08
6.42891e-08
6.57608e-08
6.77267e-08
6.93991e-08
7.05472e-08
5.75116e-08
5.74754e-08
5.74578e-08
5.74316e-08
5.74054e-08
5.73974e-08
5.73973e-08
5.74004e-08
5.74126e-08
5.74291e-08
5.74467e-08
5.74662e-08
5.74854e-08
5.75038e-08
5.75471e-08
5.75585e-08
5.75667e-08
5.75826e-08
5.76062e-08
5.76326e-08
5.76642e-08
5.77056e-08
5.77572e-08
5.78336e-08
5.79244e-08
5.80043e-08
5.81305e-08
5.82362e-08
5.8447e-08
5.87229e-08
5.90764e-08
5.94712e-08
5.98258e-08
6.01749e-08
6.05629e-08
6.10492e-08
6.16471e-08
6.26167e-08
6.33435e-08
6.43009e-08
6.53795e-08
6.65e-08
6.79949e-08
6.89707e-08
5.75467e-08
5.75075e-08
5.74796e-08
5.7447e-08
5.7416e-08
5.74033e-08
5.74011e-08
5.74039e-08
5.74141e-08
5.74245e-08
5.74368e-08
5.74515e-08
5.74646e-08
5.74802e-08
5.75102e-08
5.75116e-08
5.75075e-08
5.75127e-08
5.75336e-08
5.75785e-08
5.76461e-08
5.77307e-08
5.78235e-08
5.79184e-08
5.80446e-08
5.81731e-08
5.83643e-08
5.84591e-08
5.86121e-08
5.86684e-08
5.86894e-08
5.88013e-08
5.90267e-08
5.94157e-08
5.99047e-08
6.04914e-08
6.10575e-08
6.18294e-08
6.263e-08
6.36236e-08
6.47281e-08
6.61843e-08
6.77058e-08
6.83366e-08
5.75577e-08
5.7523e-08
5.7499e-08
5.74709e-08
5.74426e-08
5.7431e-08
5.7428e-08
5.743e-08
5.74402e-08
5.74507e-08
5.74633e-08
5.74792e-08
5.74954e-08
5.75181e-08
5.75529e-08
5.75685e-08
5.75825e-08
5.76037e-08
5.76352e-08
5.76769e-08
5.7723e-08
5.77824e-08
5.78432e-08
5.79157e-08
5.8005e-08
5.80817e-08
5.82096e-08
5.82949e-08
5.84631e-08
5.86671e-08
5.89539e-08
5.92981e-08
5.96573e-08
5.99892e-08
6.03245e-08
6.07633e-08
6.12775e-08
6.21046e-08
6.27933e-08
6.35861e-08
6.44655e-08
6.53523e-08
6.64934e-08
6.70298e-08
5.75621e-08
5.75268e-08
5.75004e-08
5.7471e-08
5.74433e-08
5.74307e-08
5.74258e-08
5.74262e-08
5.74327e-08
5.74376e-08
5.74459e-08
5.74586e-08
5.74719e-08
5.74902e-08
5.75148e-08
5.75235e-08
5.75295e-08
5.75413e-08
5.75674e-08
5.76091e-08
5.76607e-08
5.7728e-08
5.78118e-08
5.79043e-08
5.80279e-08
5.81334e-08
5.83039e-08
5.83944e-08
5.853e-08
5.86505e-08
5.8742e-08
5.88886e-08
5.90804e-08
5.94138e-08
5.98101e-08
6.03193e-08
6.0825e-08
6.15481e-08
6.22162e-08
6.30045e-08
6.38786e-08
6.49751e-08
6.62281e-08
6.64162e-08
5.75742e-08
5.75406e-08
5.75155e-08
5.74876e-08
5.74617e-08
5.74494e-08
5.74445e-08
5.74452e-08
5.74526e-08
5.74585e-08
5.74692e-08
5.74852e-08
5.7504e-08
5.75292e-08
5.75603e-08
5.75812e-08
5.76016e-08
5.76279e-08
5.76627e-08
5.77076e-08
5.77594e-08
5.78222e-08
5.78921e-08
5.79597e-08
5.80513e-08
5.81238e-08
5.82605e-08
5.83449e-08
5.84829e-08
5.86575e-08
5.88671e-08
5.91436e-08
5.94607e-08
5.98051e-08
6.01063e-08
6.05156e-08
6.09634e-08
6.1638e-08
6.22908e-08
6.29466e-08
6.37065e-08
6.43886e-08
6.51713e-08
6.54476e-08
5.75733e-08
5.75389e-08
5.75121e-08
5.74839e-08
5.74585e-08
5.74451e-08
5.7438e-08
5.74366e-08
5.74414e-08
5.74449e-08
5.74527e-08
5.74671e-08
5.7483e-08
5.75035e-08
5.75265e-08
5.75414e-08
5.75554e-08
5.75742e-08
5.76028e-08
5.76425e-08
5.76892e-08
5.77477e-08
5.78195e-08
5.79049e-08
5.80275e-08
5.81092e-08
5.82497e-08
5.83358e-08
5.84537e-08
5.86096e-08
5.87504e-08
5.89197e-08
5.90929e-08
5.93961e-08
5.97325e-08
6.01818e-08
6.06181e-08
6.12382e-08
6.18167e-08
6.24664e-08
6.31978e-08
6.39448e-08
6.48632e-08
6.49424e-08
5.75842e-08
5.75498e-08
5.75236e-08
5.74965e-08
5.74732e-08
5.74605e-08
5.7454e-08
5.74532e-08
5.74591e-08
5.7466e-08
5.74777e-08
5.74953e-08
5.75167e-08
5.75432e-08
5.75727e-08
5.75973e-08
5.76222e-08
5.76522e-08
5.76878e-08
5.77325e-08
5.77832e-08
5.78431e-08
5.79139e-08
5.79786e-08
5.80776e-08
5.81438e-08
5.82668e-08
5.83564e-08
5.84764e-08
5.86615e-08
5.88109e-08
5.90186e-08
5.92647e-08
5.96034e-08
5.99008e-08
6.0288e-08
6.06821e-08
6.12156e-08
6.18314e-08
6.23982e-08
6.30674e-08
6.35514e-08
6.40243e-08
6.41536e-08
5.75811e-08
5.75472e-08
5.75198e-08
5.7493e-08
5.74701e-08
5.74565e-08
5.74491e-08
5.74467e-08
5.74504e-08
5.74564e-08
5.74662e-08
5.74818e-08
5.75002e-08
5.75214e-08
5.75441e-08
5.7562e-08
5.75804e-08
5.76038e-08
5.76338e-08
5.76715e-08
5.7715e-08
5.77685e-08
5.78363e-08
5.79043e-08
5.80117e-08
5.80796e-08
5.81963e-08
5.82968e-08
5.84084e-08
5.85911e-08
5.87234e-08
5.8894e-08
5.90639e-08
5.93594e-08
5.96581e-08
6.00484e-08
6.04218e-08
6.09397e-08
6.14631e-08
6.2001e-08
6.25924e-08
6.30801e-08
6.37111e-08
6.37434e-08
5.75903e-08
5.75567e-08
5.75292e-08
5.75045e-08
5.74846e-08
5.74723e-08
5.74656e-08
5.74644e-08
5.74697e-08
5.74793e-08
5.74925e-08
5.7511e-08
5.75335e-08
5.75598e-08
5.7588e-08
5.76134e-08
5.76396e-08
5.76701e-08
5.77051e-08
5.77484e-08
5.77976e-08
5.78543e-08
5.79263e-08
5.79845e-08
5.80856e-08
5.81465e-08
5.82466e-08
5.83566e-08
5.8463e-08
5.86364e-08
5.87645e-08
5.89298e-08
5.91175e-08
5.94296e-08
5.9717e-08
6.00704e-08
6.04199e-08
6.08749e-08
6.14353e-08
6.19131e-08
6.24299e-08
6.27742e-08
6.30776e-08
6.31226e-08
5.75879e-08
5.75553e-08
5.75273e-08
5.75033e-08
5.74838e-08
5.74707e-08
5.74636e-08
5.74613e-08
5.74648e-08
5.74736e-08
5.74846e-08
5.75009e-08
5.752e-08
5.75404e-08
5.75618e-08
5.75811e-08
5.76018e-08
5.76263e-08
5.76551e-08
5.76903e-08
5.77315e-08
5.77797e-08
5.78479e-08
5.79029e-08
5.79993e-08
5.8063e-08
5.81561e-08
5.82835e-08
5.83779e-08
5.85381e-08
5.86706e-08
5.88335e-08
5.90078e-08
5.92961e-08
5.95693e-08
5.9904e-08
6.02327e-08
6.06689e-08
6.11389e-08
6.15592e-08
6.19976e-08
6.23236e-08
6.27721e-08
6.2804e-08
5.75968e-08
5.75641e-08
5.75368e-08
5.7515e-08
5.74983e-08
5.74866e-08
5.74805e-08
5.74801e-08
5.74854e-08
5.74967e-08
5.75106e-08
5.75289e-08
5.75508e-08
5.75749e-08
5.76007e-08
5.76259e-08
5.76527e-08
5.76832e-08
5.77175e-08
5.7759e-08
5.78076e-08
5.78605e-08
5.7932e-08
5.79821e-08
5.80712e-08
5.81352e-08
5.82239e-08
5.83621e-08
5.84382e-08
5.85694e-08
5.87063e-08
5.88619e-08
5.90271e-08
5.93053e-08
5.95732e-08
5.98819e-08
6.01967e-08
6.06043e-08
6.10751e-08
6.14488e-08
6.18188e-08
6.20815e-08
6.22985e-08
6.23116e-08
5.75963e-08
5.7565e-08
5.75379e-08
5.75164e-08
5.74999e-08
5.74871e-08
5.74806e-08
5.74793e-08
5.74833e-08
5.74931e-08
5.75044e-08
5.75197e-08
5.75371e-08
5.75554e-08
5.75753e-08
5.7595e-08
5.76167e-08
5.7642e-08
5.76708e-08
5.77043e-08
5.77441e-08
5.77868e-08
5.7852e-08
5.78969e-08
5.79779e-08
5.80494e-08
5.81312e-08
5.8281e-08
5.83427e-08
5.84647e-08
5.86116e-08
5.87725e-08
5.89419e-08
5.92008e-08
5.946e-08
5.97547e-08
6.00501e-08
6.0415e-08
6.08099e-08
6.11362e-08
6.14549e-08
6.16985e-08
6.20157e-08
6.20535e-08
5.76041e-08
5.7574e-08
5.75475e-08
5.75282e-08
5.75142e-08
5.75031e-08
5.74978e-08
5.74982e-08
5.75038e-08
5.7515e-08
5.75281e-08
5.75447e-08
5.75642e-08
5.75856e-08
5.76096e-08
5.76346e-08
5.76619e-08
5.76924e-08
5.77262e-08
5.77649e-08
5.78117e-08
5.7858e-08
5.79248e-08
5.7971e-08
5.80462e-08
5.81268e-08
5.8201e-08
5.83469e-08
5.83962e-08
5.85004e-08
5.865e-08
5.88043e-08
5.89583e-08
5.9199e-08
5.9455e-08
5.97298e-08
6.00084e-08
6.03495e-08
6.07202e-08
6.10262e-08
6.12891e-08
6.15111e-08
6.16697e-08
6.16494e-08
5.76065e-08
5.75764e-08
5.75506e-08
5.75312e-08
5.75165e-08
5.75051e-08
5.74989e-08
5.74982e-08
5.75023e-08
5.7511e-08