/*--------------------------------*- C++ -*----------------------------------*\
| =========                 |                                                 |
| \\      /  F ield         | OpenFOAM: The Open Source CFD Toolbox           |
|  \\    /   O peration     | Version:  v1912                                 |
|   \\  /    A nd           | Website:  www.openfoam.com                      |
|    \\/     M anipulation  |                                                 |
\*---------------------------------------------------------------------------*/
FoamFile
{
    version     2.0;
    format      ascii;
    class       volScalarField;
    location    "70";
    object      p_rgh;
}
// * * * * * * * * * * * * * * * * * * * * * * * * * * * * * * * * * * * * * //

dimensions      [1 -1 -2 0 0 0 0];


internalField   nonuniform List<scalar> 
14268
(
12.9351
15.2811
20.7153
30.6054
46.6042
67.0764
88.9572
106.349
116.145
120.801
127.778
144.681
171.39
201.745
229.873
255.582
263.705
246.848
208.106
153.732
93.3627
45.4819
17.8077
24.209
59.4209
105.792
128.48
110.2
44.1265
-33.9701
-91.3359
-104.284
-79.2251
-22.883
21.851
40.2263
10.6215
-52.2389
-133.329
-266.984
-388.529
-428.512
-439.014
-392.187
12.9346
15.2807
20.7147
30.6047
46.6038
67.0763
88.9577
106.349
116.145
120.801
127.777
144.68
171.39
201.746
229.873
255.584
263.707
246.85
208.107
153.732
93.3618
45.4795
17.8045
24.2062
59.42
105.794
128.484
110.204
44.1275
-33.9727
-91.3403
-104.288
-79.2275
-22.8824
21.8539
40.2302
10.6227
-52.2437
-133.339
-266.994
-388.536
-428.516
-439.013
-393.245
12.9337
15.2798
20.7136
30.6034
46.6029
67.0762
88.9586
106.351
116.146
120.8
127.775
144.678
171.389
201.747
229.874
255.587
263.712
246.854
208.11
153.733
93.3599
45.4748
17.7979
24.2006
59.4183
105.798
128.493
110.212
44.1295
-33.9775
-91.3487
-104.296
-79.2311
-22.8811
21.8601
40.238
10.6255
-52.2529
-133.357
-267.011
-388.549
-428.524
-439.033
-393.317
12.9323
15.2785
20.712
30.6015
46.6015
67.0761
88.96
106.353
116.147
120.8
127.772
144.675
171.388
201.748
229.875
255.592
263.72
246.861
208.114
153.734
93.3571
45.4677
17.7881
24.1921
59.4158
105.805
128.505
110.223
44.1327
-33.9846
-91.3614
-104.309
-79.2377
-22.8793
21.8688
40.2498
10.6295
-52.2668
-133.385
-267.038
-388.57
-428.536
-439.033
-394.265
12.9304
15.2767
20.7099
30.599
46.5998
67.076
88.9619
106.355
116.149
120.799
127.769
144.671
171.387
201.749
229.877
255.599
263.729
246.869
208.12
153.735
93.3533
45.4582
17.7751
24.1808
59.4124
105.814
128.522
110.239
44.1368
-33.9941
-91.3784
-104.325
-79.2457
-22.8768
21.8812
40.2655
10.6348
-52.2852
-133.421
-267.073
-388.597
-428.551
-439.065
-394.446
12.928
15.2745
20.7072
30.5958
46.5975
67.0759
88.9643
106.359
116.15
120.798
127.764
144.666
171.386
201.751
229.879
255.607
263.742
246.88
208.127
153.737
93.3486
45.4464
17.7588
24.1667
59.4082
105.825
128.543
110.258
44.1419
-34.0061
-91.3996
-104.346
-79.256
-22.8737
21.8955
40.2851
10.6415
-52.3083
-133.467
-267.118
-388.63
-428.572
-439.078
-395.248
12.9253
15.272
20.7039
30.592
46.5949
67.0757
88.9672
106.363
116.153
120.796
127.758
144.66
171.384
201.753
229.882
255.618
263.756
246.893
208.136
153.739
93.343
45.4322
17.7393
24.1498
59.4032
105.838
128.569
110.281
44.1481
-34.0204
-91.4251
-104.37
-79.2684
-22.8699
21.9145
40.3087
10.6495
-52.3359
-133.522
-267.171
-388.671
-428.595
-439.115
-395.559
12.922
15.2689
20.7001
30.5876
46.5918
67.0755
88.9705
106.367
116.155
120.794
127.752
144.653
171.381
201.756
229.885
255.63
263.774
246.908
208.146
153.741
93.3364
45.4156
17.7164
24.1301
59.3973
105.854
128.599
110.309
44.1553
-34.0372
-91.4548
-104.399
-79.2826
-22.8656
21.9335
40.3362
10.6589
-52.3681
-133.587
-267.234
-388.718
-428.623
-439.142
-396.214
12.9183
15.2655
20.6959
30.5825
46.5883
67.0752
88.9743
106.372
116.158
120.792
127.744
144.644
171.379
201.759
229.888
255.643
263.793
246.925
208.158
153.744
93.3289
45.3967
17.6904
24.1076
59.3906
105.871
128.632
110.34
44.1635
-34.0563
-91.4888
-104.432
-79.2992
-22.8606
21.9611
40.3676
10.6696
-52.4048
-133.66
-267.305
-388.772
-428.654
-439.183
-396.627
12.914
15.2615
20.691
30.5768
46.5842
67.0749
88.9786
106.378
116.161
120.79
127.736
144.635
171.376
201.763
229.892
255.659
263.815
246.945
208.171
153.747
93.3204
45.3754
17.661
24.0822
59.383
105.891
128.671
110.374
44.1728
-34.0778
-91.527
-104.469
-79.3176
-22.855
21.9815
40.4029
10.6818
-52.4461
-133.744
-267.387
-388.834
-428.689
-439.223
-397.174
12.9095
15.2572
20.6856
30.5705
46.5799
67.0746
88.9834
106.385
116.165
120.788
127.726
144.625
171.373
201.767
229.896
255.676
263.84
246.967
208.185
153.751
93.311
45.3518
17.6284
24.054
59.3747
105.914
128.713
110.413
44.1831
-34.1017
-91.5695
-104.51
-79.3382
-22.8487
22.0297
40.4422
10.6953
-52.4919
-133.837
-267.478
-388.903
-428.728
-439.271
-397.64
12.9042
15.2523
20.6797
30.5634
46.5749
67.0743
88.9887
106.392
116.168
120.785
127.716
144.614
171.369
201.771
229.901
255.694
263.867
246.99
208.201
153.755
93.3006
45.3257
17.5925
24.023
59.3655
105.938
128.76
110.456
44.1944
-34.128
-91.6162
-104.556
-79.3609
-22.8419
22.04
40.4838
10.7103
-52.5422
-133.94
-267.58
-388.981
-428.77
-439.322
-398.124
12.8988
15.2473
20.6733
30.556
46.5698
67.0739
88.9944
106.4
116.173
120.782
127.704
144.602
171.365
201.775
229.906
255.715
263.896
247.016
208.219
153.759
93.2894
45.2973
17.5535
23.9892
59.3554
105.965
128.811
110.502
44.2067
-34.1567
-91.6672
-104.605
-79.3855
-22.8343
22.1131
40.5278
10.7267
-52.5968
-134.053
-267.693
-389.07
-428.816
-439.377
-398.597
12.8925
15.2414
20.6661
30.5475
46.5638
67.0735
89.0006
106.408
116.177
120.779
127.692
144.589
171.361
201.78
229.912
255.737
263.928
247.044
208.238
153.763
93.2771
45.2666
17.5109
23.9526
59.3445
105.993
128.866
110.553
44.2201
-34.1878
-91.7224
-104.659
-79.4122
-22.8265
22.1341
40.5754
10.7445
-52.6559
-134.175
-267.817
-389.169
-428.865
-439.441
-399.053
12.883
15.2327
20.6551
30.5346
46.5549
67.0729
89.0107
106.422
116.185
120.774
127.672
144.568
171.354
201.789
229.921
255.774
263.98
247.09
208.268
153.771
93.2574
45.2169
17.4428
23.8934
59.327
106.04
128.955
110.634
44.2418
-34.2381
-91.8117
-104.745
-79.4563
-22.8133
22.2267
40.6526
10.7735
-52.7512
-134.371
-268.019
-389.338
-428.944
-439.536
-399.734
12.8675
15.2181
20.6374
30.5134
46.5403
67.0719
89.026
106.443
116.196
120.766
127.642
144.535
171.344
201.801
229.935
255.826
264.058
247.159
208.315
153.782
93.2273
45.1411
17.3379
23.8031
59.3002
106.111
129.091
110.759
44.2747
-34.3147
-91.9479
-104.877
-79.5213
-22.7946
22.3102
40.7703
10.8182
-52.8951
-134.671
-268.332
-389.609
-429.084
-439.7
-400.58
12.8513
15.2033
20.6185
30.4917
46.5248
67.0709
89.0432
106.467
116.209
120.757
127.608
144.499
171.332
201.815
229.95
255.891
264.147
247.237
208.367
153.795
93.1934
45.0559
17.2204
23.7016
59.2701
106.191
129.244
110.898
44.3118
-34.4009
-92.1005
-105.028
-79.5846
-22.7718
22.4454
40.9025
10.8686
-53.0552
-135.001
-268.655
-389.922
-429.229
-439.824
-401.428
12.832
15.1851
20.5963
30.465
46.5066
67.0695
89.0624
106.493
116.223
120.747
127.57
144.458
171.319
201.83
229.967
255.954
264.245
247.323
208.425
153.809
93.1558
44.9611
17.0897
23.5887
59.2366
106.279
129.414
111.054
44.3529
-34.4979
-92.2681
-105.191
-79.7031
-22.749
22.5649
41.0522
10.9253
-53.2353
-135.349
-268.99
-390.234
-429.525
-439.964
-402.187
12.8122
15.1668
20.5732
30.4383
46.4875
67.0684
89.0835
106.522
116.239
120.737
127.529
144.414
171.305
201.848
229.986
256.038
264.353
247.419
208.489
153.824
93.1145
44.8568
16.9455
23.4646
59.1999
106.377
129.601
111.225
44.3985
-34.6113
-92.4665
-105.372
-79.7308
-22.7207
22.7171
41.2111
10.9887
-53.4279
-135.718
-269.343
-390.522
-429.712
-440.039
-402.951
12.7888
15.1452
20.5469
30.4066
46.4658
67.0665
89.1064
106.553
116.256
120.725
127.483
144.365
171.289
201.866
230.006
256.109
264.471
247.522
208.558
153.841
93.0697
44.7437
16.7879
23.3287
59.1596
106.483
129.805
111.413
44.4524
-34.705
-92.6626
-105.574
-79.9156
-22.6946
22.8751
41.3959
11.0569
-53.6136
-136.113
-269.726
-390.789
-430.082
-440.222
-403.627
12.7659
15.1232
20.5189
30.3744
46.443
67.0657
89.1317
106.588
116.275
120.712
127.434
144.312
171.273
201.887
230.028
256.212
264.599
247.635
208.634
153.858
93.0194
44.6218
16.6286
23.1823
59.1163
106.598
130.027
111.612
44.495
-34.8497
-92.8691
-105.78
-79.9225
-22.6611
23.0335
41.5792
11.1244
-53.8836
-136.679
-270.189
-391.056
-430.101
-440.317
-404.32
12.5577
14.9436
20.2877
30.1119
46.2606
67.0463
89.3225
106.852
116.415
120.603
127.036
143.888
171.136
202.046
230.196
256.788
265.606
248.522
209.218
153.969
92.5855
43.6027
15.1642
22.0188
58.7696
107.499
131.768
113.131
44.6656
-36.5945
-94.8686
-107.579
-81.531
-22.4281
24.5462
43.2017
11.7873
-56.9094
-142.053
-272.423
-392.796
-433.54
-441.572
-408.237
12.0776
14.2192
19.1694
28.8306
45.4558
66.9842
90.0857
107.921
117.023
120.344
125.735
142.488
170.771
202.777
231.064
260.184
269.355
251.795
211.419
154.516
91.2375
40.2273
10.7241
17.7978
57.5303
110.858
138.206
119.147
46.6827
-38.4317
-99.781
-113.088
-83.7264
-22.2607
28.0732
48.3355
13.872
-60.4839
-154.005
-284.91
-390.105
-425.453
-440.866
-417.811
10.5816
13.4042
18.6138
27.9504
44.7085
67.2047
91.2334
109.425
117.769
119.636
123.369
139.846
169.738
203.357
230.87
262.591
274.925
256.708
214.713
155.275
89.0312
34.5362
2.6063
11.2209
55.6144
115.965
148.076
127.868
47.9547
-45.9451
-111.548
-123.278
-88.2997
-19.4837
37.0826
57.2929
16.5531
-67.8895
-152.83
-267.882
-385.458
-435.256
-444.995
-406.247
9.89194
11.7956
15.7668
25.1455
42.7905
66.4987
92.3515
111.533
118.986
118.961
120.318
136.36
168.866
205.579
233.794
269.823
283.672
263.493
219.359
156.544
86.4094
27.4043
-7.75004
2.18028
52.7999
122.622
162.359
141.514
53.0245
-51.9843
-123.575
-133.465
-92.7593
-17.1055
46.7623
73.4622
31.4817
-58.0895
-150.472
-262.848
-358.889
-401.784
-419.573
-404.174
260.573
262.45
264.977
269.343
280.506
297.78
317.042
329.751
332.662
330.626
330.175
343.56
373.07
404.114
419.105
450.764
463.82
449.321
414.415
363.188
305.849
259.476
234.053
246.266
292.262
356.388
397.509
385.609
317.937
246.068
204.765
185.039
190.8
225.868
260.509
275.736
245.568
193.013
245.161
267.287
190.765
93.696
14.9546
-11.0879
878.283
877.47
878.707
881.781
888.695
900.222
913.327
921.099
920.857
917.419
914.534
924.094
949.284
971.741
974.724
1009.2
1028.31
1004.77
973.852
932.541
887.91
850.086
828.458
835.117
871.408
924.152
959.457
947.852
887.477
821.019
781.578
776.764
797.564
835.805
871.161
885.92
856.349
796.021
783.483
777.079
747.115
716.504
678.549
666.961
266.701
270.417
271.371
269.799
271.428
276.024
282.154
284.09
281.526
278.272
275.841
283.243
303.551
320.161
317.868
330.732
340.134
327.283
303.675
272.406
242.136
218.372
203.849
205.397
226.602
261.066
286.925
276.432
230.286
184.218
161.62
166.37
187.314
211.827
233.742
242.069
222.226
176.419
147.188
151.501
161.976
172.669
147.082
137.745
141.402
136.18
131.449
125.77
117.672
106.582
92.5132
76.4789
63.6724
62.1355
64.8211
81.0337
107.032
104.237
52.2257
26.0935
28.1556
12.1124
8.40671
5.95178
4.82788
4.12332
3.60112
3.1452
2.68816
2.24651
1.91544
1.76827
1.76961
1.81724
1.76194
1.63567
1.4158
1.15952
0.937613
0.831201
0.876137
0.98028
1.00404
0.839384
0.571438
0.472496
0.454853
0.459711
4.10562
3.65276
3.16387
2.54622
1.93765
1.23617
0.295034
-0.64058
-1.34187
-1.91633
-2.57272
-3.27809
-3.95528
-6.75604
-19.2842
-1.19046
9.95626
7.56837
6.88985
5.55406
4.64818
4.01925
3.55133
3.12924
2.69756
2.26896
1.92063
1.7308
1.72263
1.78836
1.78705
1.64296
1.42392
1.18238
0.962105
0.812567
0.814985
0.945815
1.04154
0.910701
0.658466
0.476638
0.350227
0.151935
3.27751
2.71051
2.11106
1.47619
0.785513
-0.0675995
-1.32333
-2.89551
-4.05479
-4.5692
-4.84337
-5.68563
-6.61021
-7.76462
-15.8078
7.02325
15.713
8.88975
7.17622
5.60196
4.64509
3.99754
3.50595
3.07567
2.65968
2.27512
1.97793
1.81874
1.77548
1.77131
1.70237
1.57663
1.3884
1.17351
0.988293
0.891987
0.896194
0.944827
0.94453
0.804145
0.617681
0.519354
0.455192
0.486016
3.60814
2.95005
2.28502
1.60692
0.938561
0.135744
-1.02192
-2.42664
-3.41481
-3.79345
-4.00913
-4.62658
-5.15365
-6.57234
-14.433
1.24102
8.73484
6.93617
6.3909
5.31071
4.50531
3.90973
3.44481
3.03805
2.65206
2.29124
1.98791
1.8104
1.74411
1.73618
1.68757
1.56334
1.38735
1.19608
1.01979
0.894797
0.863547
0.911452
0.937982
0.859085
0.670306
0.531426
0.41169
0.313167
3.14968
2.60317
2.03016
1.40336
0.719169
-0.086825
-1.13067
-2.34219
-3.36148
-3.85363
-4.14538
-4.75724
-4.8464
-5.17111
-9.97386
4.21955
8.81243
6.72759
6.05051
5.12933
4.39828
3.83783
3.38747
2.99267
2.61997
2.28099
2.0138
1.84569
1.76677
1.72757
1.6557
1.52956
1.36614
1.1854
1.02567
0.931327
0.904897
0.916831
0.907422
0.790362
0.646884
0.554804
0.466451
0.499115
3.3556
2.75889
2.12572
1.47954
0.80873
0.0234714
-0.987046
-2.09018
-2.80387
-3.40227
-3.78101
-4.47323
-4.68712
-5.3176
-9.6302
2.51106
6.86995
6.01569
5.6061
4.88974
4.25601
3.74228
3.31784
2.94359
2.59598
2.28302
2.02317
1.84888
1.75179
1.69845
1.62515
1.5067
1.35619
1.1976
1.05063
0.944123
0.896876
0.894798
0.887446
0.812136
0.672887
0.566617
0.46404
0.406797
3.06735
2.4969
1.94785
1.34779
0.696528
-0.0360977
-0.925606
-1.91082
-2.72862
-3.15253
-3.48527
-4.02348
-3.94051
-3.98799
-7.0558
2.44256
5.75689
5.45367
5.20517
4.65389
4.11205
3.64657
3.24869
2.89366
2.56461
2.26709
2.022
1.85399
1.75132
1.68488
1.60268
1.48508
1.34366
1.19054
1.05198
0.956741
0.908591
0.893333
0.867681
0.782885
0.667726
0.580082
0.494282
0.488313
3.11249
2.56132
1.97532
1.35823
0.706413
-0.0295339
-0.879102
-1.77985
-2.5107
-2.98741
-3.35496
-3.90101
-3.88752
-3.86577
-5.78836
2.14276
4.85559
4.94642
4.82809
4.41396
3.95819
3.54117
3.1724
2.83906
2.53076
2.25475
2.02392
1.85565
1.74458
1.66668
1.58119
1.46506
1.33125
1.19316
1.06701
0.969966
0.913855
0.886628
0.856197
0.780519
0.672277
0.587116
0.501969
0.452767
2.92639
2.41283
1.87034
1.30328
0.690174
0.00638181
-0.774141
-1.56954
-2.22812
-2.67026
-2.99369
-3.43752
-3.35928
-3.33753
-4.62269
1.82464
4.13979
4.48848
4.47786
4.17917
3.80271
3.43395
3.09554
2.78406
2.49465
2.23409
2.01255
1.84887
1.73264
1.64543
1.55208
1.44463
1.31955
1.18777
1.06437
0.972801
0.914423
0.879013
0.840591
0.769546
0.674381
0.596242
0.520839
0.486881
2.88516
2.37081
1.8326
1.2642
0.656109
-0.0114235
-0.761796
-1.53502
-2.12212
-2.53988
-2.84841
-3.2294
-3.06787
-2.93664
-3.65224
1.54833
3.57051
4.0777
4.15396
3.9511
3.64556
3.3229
3.01458
2.72535
2.45526
2.21131
2.00351
1.84309
1.726
1.63506
1.54628
1.43037
1.30872
1.18507
1.07237
0.982227
0.919608
0.877425
0.833939
0.764641
0.675634
0.599844
0.5269
0.4808
2.77685
2.29693
1.78451
1.24485
0.672909
0.0529978
-0.60839
-1.29187
-1.87806
-2.29622
-2.59468
-2.94164
-2.76272
-2.58902
-2.85213
1.31498
3.11089
3.71089
3.85648
3.73256
3.48993
3.21127
2.93294
2.66602
2.41428
2.18533
1.98694
1.83008
1.70843
1.60756
1.51256
1.409
1.29417
1.17828
1.06876
0.980267
0.916192
0.868575
0.821361
0.756764
0.676189
0.606135
0.540099
0.496692
2.68597
2.22077
1.72327
1.19498
0.629798
0.0223353
-0.621499
-1.23954
-1.74097
-2.11851
-2.3846
-2.67379
-2.47774
-2.2992
-2.1793
1.12499
2.73461
3.38417
3.58402
3.52465
3.33702
3.09919
2.84978
2.60458
2.37079
2.15644
1.96912
1.81764
1.69729
1.60035
1.50261
1.39688
1.2875
1.17413
1.07077
0.985494
0.919472
0.868997
0.816638
0.752536
0.676058
0.607394
0.543321
0.497669
2.60425
2.16179
1.68866
1.18883
0.66198
0.102026
-0.491413
-1.09093
-1.58366
-1.94062
-2.18401
-2.42057
-2.20747
-2.04116
-1.6391
0.97748
2.4241
3.09392
3.33509
3.32817
3.18831
2.98805
2.76637
2.54245
2.32596
2.12536
1.94784
1.80007
1.67938
1.57674
1.47729
1.37645
1.26546
1.16456
1.06613
0.98146
0.914331
0.85988
0.80684
0.74637
0.675478
0.61141
0.551579
0.505881
2.51184
2.08616
1.62929
1.1437
0.630195
0.0903685
-0.457906
-0.986485
-1.43797
-1.77163
-1.9946
-2.18116
-1.9601
-1.79194
-1.22304
0.868477
2.16684
2.83688
3.10798
3.14336
3.04464
2.87836
2.68297
2.47947
2.27955
2.09213
1.92438
1.78241
1.66402
1.56244
1.46627
1.36499
1.26643
1.16013
1.06411
0.982364
0.914964
0.859778
0.802824
0.742282
0.674385
0.611083
0.553252
0.507433
2.4333
2.0286
1.59336
1.13131
0.644928
0.134637
-0.389234
-0.883419
-1.30179
-1.61211
-1.81673
-1.95529
-1.73741
-1.55761
-0.901803
0.791792
1.95348
2.60983
2.90103
2.97027
2.9067
2.77096
2.60015
2.41617
2.23214
2.05734
1.89889
1.76156
1.64446
1.54112
1.44282
1.34519
1.24167
1.14856
1.05815
0.977679
0.909423
0.851514
0.795169
0.736995
0.672796
0.61305
0.557778
0.51185
2.34907
1.96247
1.54605
1.10416
0.64068
0.159426
-0.328169
-0.786468
-1.17414
-1.4618
-1.64858
-1.7434
-1.53903
-1.34006
-0.652724
0.739753
1.77732
2.40838
2.71272
2.80858
2.77482
2.66627
2.51821
2.35275
2.18383
2.02103
1.87157
1.73989
1.62591
1.52472
1.43005
1.33392
1.24138
1.14312
1.05361
0.975007
0.907302
0.849538
0.791153
0.732953
0.67101
0.6119
0.55823
0.512443
2.26989
1.90182
1.50429
1.08257
0.641165
0.186177
-0.269739
-0.695254
-1.05443
-1.32032
-1.48861
-1.54892
-1.36159
-1.13954
-0.458154
0.705
1.63179
2.22993
2.54125
2.65786
2.6492
2.56475
2.4376
2.28954
2.13498
1.98368
1.84286
1.71654
1.605
1.50404
1.40823
1.31424
1.21785
1.13062
1.0462
0.969587
0.901721
0.842417
0.784811
0.727874
0.66847
0.612079
0.560211
0.514672
2.19288
1.8428
1.46387
1.06187
0.642365
0.212541
-0.213987
-0.60943
-0.942202
-1.18745
-1.33749
-1.37252
-1.19969
-0.956437
-0.304512
0.682103
1.51008
2.0729
2.3853
2.51759
2.52992
2.46666
2.35856
2.22675
2.08574
1.94535
1.81285
1.69211
1.58407
1.48573
1.39352
1.3026
1.21461
1.12373
1.03996
0.964699
0.897462
0.838527
0.780441
0.723759
0.666052
0.610507
0.559463
0.514222
2.11828
1.78568
1.42487
1.04214
0.643907
0.238171
-0.161015
-0.528763
-0.837025
-1.06277
-1.19544
-1.21235
-1.05122
-0.791379
-0.181421
0.667034
1.40772
1.93447
2.24353
2.38718
2.41692
2.37218
2.28135
2.16463
2.03639
1.9064
1.78192
1.66671
1.56192
1.4652
1.37317
1.28326
1.19334
1.111
1.0313
0.958169
0.891474
0.832118
0.774588
0.718808
0.662792
0.609158
0.559709
0.514561
2.04609
1.73048
1.38747
1.02335
0.64569
0.262922
-0.110792
-0.452976
-0.738509
-0.946009
-1.06281
-1.06598
-0.913368
-0.645038
-0.08138
0.657114
1.32115
1.81223
2.11465
2.26608
2.3101
2.28144
2.20617
2.10336
1.98708
1.86693
1.75012
1.64042
1.53931
1.44543
1.35657
1.27036
1.18645
1.10252
1.02367
0.951807
0.885892
0.826813
0.769733
0.714346
0.659735
0.607067
0.55801
0.513422
1.97627
1.67702
1.35153
1.00531
0.647467
0.286596
-0.0633366
-0.381859
-0.646297
-0.836735
-0.93907
-0.932123
-0.785571
-0.516203
0.0012172
0.650439
1.24737
1.70397
1.99742
2.15367
2.20924
2.19444
2.13312
2.04311
1.93801
1.82719
1.71775
1.61348
1.51609
1.42466
1.33716
1.25194
1.16768
1.08986
1.01413
0.944205
0.879266
0.820463
0.763917
0.709317
0.655916
0.604637
0.556893
0.512553
1.90885
1.62533
1.31603
0.987996
0.649233
0.309157
-0.0185671
-0.315165
-0.560052
-0.734619
-0.824031
-0.809253
-0.667549
-0.402931
0.0703317
0.645941
1.1841
1.60788
1.89073
2.04936
2.11413
2.11122
2.06234
1.98402
1.88932
1.78729
1.68489
1.58595
1.49237
1.40387
1.31917
1.23739
1.15771
1.07946
1.00525
0.936641
0.872708
0.814279
0.758501
0.704495
0.652202
0.601887
0.55455
0.510719
1.84375
1.57546
1.28211
0.97116
0.650775
0.330464
0.0235292
-0.252696
-0.479425
-0.639232
-0.717164
-0.696728
-0.559469
-0.302852
0.128982
0.642755
1.12937
1.52228
1.79351
1.95258
2.02449
2.03169
1.99386
1.92618
1.84115
1.74738
1.65171
1.55799
1.46826
1.38266
1.30009
1.21978
1.1411
1.0668
0.99512
0.928223
0.865445
0.807621
0.752454
0.699239
0.64791
0.598665
0.552363
0.508999
1.781
1.52725
1.24945
0.954948
0.652115
0.35054
0.0630638
-0.194218
-0.4041
-0.550294
-0.618256
-0.593388
-0.460633
-0.21454
0.17926
0.640446
1.08174
1.44582
1.7048
1.86276
1.94006
1.95581
1.92774
1.86972
1.7936
1.70761
1.61834
1.52969
1.44382
1.36121
1.28126
1.20385
1.12829
1.055
0.985229
0.919659
0.858036
0.800818
0.746478
0.694033
0.643611
0.595291
0.549472
0.506532
1.72049
1.48076
1.21774
0.939098
0.653098
0.369302
0.100074
-0.139568
-0.3338
-0.467497
-0.526745
-0.498705
-0.370605
-0.136314
0.222789
0.638628
1.03991
1.37724
1.62371
1.77935
1.86054
1.88345
1.86396
1.81467
1.74677
1.66806
1.58487
1.50114
1.41909
1.3395
1.26207
1.18666
1.11298
1.04216
0.974755
0.910575
0.850161
0.79371
0.740081
0.688452
0.638882
0.591424
0.546463
0.504035
1.66222
1.43587
1.1872
0.923718
0.653759
0.38679
0.134675
-0.0885391
-0.268265
-0.39059
-0.442259
-0.411801
-0.28864
-0.0670971
0.260694
0.637114
1.00297
1.31554
1.54946
1.70185
1.78566
1.81451
1.80252
1.76111
1.70076
1.62885
1.55141
1.47244
1.39417
1.31761
1.24278
1.16981
1.09851
1.02946
0.963973
0.901216
0.842029
0.786398
0.733594
0.682827
0.634076
0.587472
0.54305
0.501031
1.60611
1.39257
1.15755
0.908623
0.653992
0.40297
0.166916
-0.0409964
-0.20727
-0.319266
-0.364265
-0.332247
-0.214191
-0.0056066
0.293889
0.635714
0.970048
1.25977
1.48134
1.62976
1.71514
1.74885
1.74336
1.70903
1.65559
1.59002
1.51804
1.44365
1.36909
1.29554
1.22331
1.1526
1.08344
1.01655
0.952675
0.891514
0.833552
0.778811
0.726804
0.676859
0.628934
0.583073
0.539414
0.497946
1.5521
1.3508
1.12892
0.893881
0.65383
0.417888
0.196909
0.00323699
-0.150575
-0.253238
-0.292407
-0.259336
-0.146603
0.0489672
0.323029
0.63434
0.940549
1.2092
1.4187
1.56264
1.6487
1.68633
1.68647
1.65849
1.61135
1.55168
1.48486
1.41487
1.34391
1.27336
1.20372
1.13533
1.06837
1.00342
0.941135
0.881578
0.824814
0.771026
0.719867
0.670797
0.623661
0.578609
0.535518
0.494464
1.50013
1.3105
1.10111
0.879364
0.653216
0.431537
0.224705
0.0442744
-0.0980733
-0.192088
-0.226228
-0.192689
-0.0853371
0.0975756
0.348673
0.632884
0.913898
1.16314
1.36096
1.50006
1.58607
1.62679
1.63176
1.60945
1.56806
1.51385
1.45191
1.38612
1.31866
1.25107
1.184
1.11788
1.05296
0.990009
0.929282
0.871412
0.815785
0.762977
0.712674
0.664433
0.618113
0.573762
0.531386
0.490924
1.45013
1.27161
1.0742
0.865113
0.652161
0.443966
0.250412
0.0823082
-0.0495628
-0.135562
-0.165378
-0.131729
-0.0298448
0.14082
0.371235
0.631298
0.889686
1.12103
1.30763
1.44164
1.52701
1.5701
1.57919
1.56193
1.52575
1.47662
1.41925
1.35748
1.29341
1.22873
1.16421
1.10035
1.03755
0.976425
0.917189
0.861066
0.806523
0.754741
0.705323
0.657945
0.612415
0.568835
0.52705
0.487069
1.40203
1.23409
1.04806
0.851056
0.650642
0.455184
0.274083
0.117453
-0.00474057
-0.0834666
-0.109469
-0.0761119
0.0203664
0.179391
0.391085
0.629512
0.867527
1.08234
1.25823
1.38703
1.47126
1.5161
1.52867
1.51588
1.48444
1.43999
1.38693
1.32897
1.26819
1.20635
1.14432
1.08268
1.02176
0.962621
0.904997
0.85034
0.797001
0.746262
0.69774
0.651202
0.606477
0.563592
0.522501
0.483102
1.35577
1.19787
1.02272
0.837188
0.648673
0.46524
0.295819
0.149865
0.0365967
-0.035518
-0.0582153
-0.025368
0.0657466
0.213737
0.408506
0.627496
0.847151
1.04667
1.21238
1.33589
1.41859
1.46465
1.48015
1.4713
1.44415
1.40402
1.355
1.30065
1.24304
1.18397
1.12439
1.06497
1.00634
0.94871
0.892761
0.839271
0.787287
0.737603
0.69
0.644313
0.600384
0.558248
0.517774
0.47893
1.31127
1.16293
0.998087
0.823476
0.64624
0.474152
0.315677
0.179654
0.0746305
0.00854797
-0.0112663
0.0208151
0.106722
0.244359
0.423753
0.625192
0.82811
1.01378
1.16968
1.28793
1.36879
1.4156
1.43352
1.42815
1.40487
1.36871
1.32346
1.27254
1.21799
1.16161
1.10442
1.04714
0.990398
0.934604
0.880284
0.828008
0.777382
0.72873
0.682048
0.637212
0.594076
0.552646
0.512855
0.47462
1.26846
1.12917
0.974158
0.809908
0.643362
0.48197
0.333753
0.206966
0.109555
0.0489688
0.0316513
0.0628229
0.143659
0.271596
0.437038
0.622638
0.81016
0.983329
1.12988
1.24287
1.32165
1.36882
1.38873
1.38639
1.36661
1.33409
1.29237
1.24469
1.19307
1.1393
1.08444
1.02928
0.974466
0.92039
0.867626
0.816582
0.767327
0.719684
0.67394
0.629956
0.587618
0.546931
0.507779
0.470128
1.22728
1.09659
0.950871
0.796464
0.64003
0.488717
0.350108
0.231913
0.141535
0.0859391
0.0708775
0.100938
0.176917
0.295815
0.448545
0.619811
0.793275
0.954846
1.09266
1.20046
1.27697
1.32418
1.34567
1.34598
1.32933
1.30017
1.26173
1.21711
1.1683
1.11705
1.06446
1.01135
0.958364
0.906019
0.854787
0.804972
0.757116
0.710447
0.665642
0.622516
0.580971
0.540989
0.502526
0.465503
1.18765
1.06508
0.928211
0.783131
0.636266
0.494444
0.364832
0.254633
0.170761
0.11967
0.106632
0.135485
0.206794
0.31728
0.458427
0.616714
0.777318
0.928108
1.05775
1.16047
1.23459
1.28153
1.30428
1.30688
1.29305
1.26696
1.23156
1.18984
1.14371
1.09488
1.04449
0.993394
0.942252
0.891562
0.841812
0.793203
0.746782
0.701043
0.657192
0.614926
0.574179
0.534941
0.497128
0.460718
1.14951
1.03459
0.906132
0.769888
0.632068
0.49918
0.377992
0.275236
0.197386
0.150413
0.13913
0.166715
0.233585
0.336262
0.466818
0.613223
0.762247
0.902908
1.02491
1.12268
1.19431
1.24077
1.26448
1.26904
1.25773
1.23444
1.20188
1.16288
1.11932
1.07282
1.02457
0.975413
0.926036
0.876982
0.828706
0.781405
0.736174
0.691464
0.648575
0.607172
0.56722
0.528684
0.491569
0.455796
1.11281
1.00515
0.884615
0.756736
0.627455
0.50297
0.38967
0.293849
0.221572
0.178354
0.168567
0.194906
0.257532
0.352971
0.473872
0.609313
0.747905
0.879121
0.993925
1.08692
1.156
1.20178
1.22617
1.23242
1.22335
1.20263
1.17269
1.13626
1.09513
1.05087
1.00469
0.957434
0.909805
0.862343
0.815505
0.769599
0.725313
0.68174
0.639815
0.599275
0.560122
0.522328
0.485876
0.450734
1.07746
0.97667
0.863626
0.743657
0.622433
0.505851
0.399931
0.310573
0.243459
0.20367
0.195161
0.220254
0.278891
0.367614
0.479626
0.605171
0.734057
0.856581
0.964613
1.053
1.11951
1.16444
1.1893
1.19696
1.1899
1.17151
1.144
1.10998
1.07116
1.02906
0.984871
0.939458
0.893514
0.847607
0.802198
0.757617
0.714339
0.671882
0.630906
0.591231
0.552866
0.51579
0.480034
0.445539
1.04341
0.9491
0.843141
0.730645
0.617021
0.507867
0.408857
0.325523
0.263187
0.22653
0.219133
0.242978
0.297819
0.38036
0.484213
0.600769
0.720652
0.835142
0.936807
1.02076
1.0847
1.12864
1.15378
1.16263
1.15735
1.14108
1.11581
1.08406
1.04743
1.0074
0.965131
0.921505
0.87722
0.832834
0.78881
0.745512
0.703259
0.661918
0.621872
0.583054
0.545483
0.509146
0.474074
0.440217
1.0106
0.922399
0.823129
0.71769
0.611228
0.509054
0.416511
0.338796
0.280886
0.247093
0.240661
0.263292
0.314548
0.391328
0.487769
0.596025
0.707629
0.814676
0.910359
0.990054
1.05143
1.0943
1.11954
1.12936
1.12566
1.11131
1.08813
1.0585
1.02395
0.985886
0.945477
0.903579
0.860893
0.817987
0.775328
0.733274
0.692065
0.651837
0.612701
0.57474
0.537958
0.50235
0.467969
0.434766
0.978959
0.896529
0.803568
0.704788
0.605073
0.509454
0.422965
0.35049
0.29668
0.265506
0.259908
0.281346
0.32927
0.400705
0.490312
0.590943
0.694927
0.795072
0.885137
0.960758
1.01961
1.06132
1.08651
1.09713
1.09482
1.0822
1.06095
1.0333
1.00071
0.964542
0.925919
0.885695
0.844575
0.803118
0.761788
0.720949
0.680788
0.641649
0.603424
0.566306
0.530313
0.495445
0.461752
0.429196
0.948443
0.871439
0.784431
0.69193
0.598569
0.509106
0.428283
0.360696
0.310686
0.28191
0.277034
0.297314
0.342119
0.408618
0.491923
0.585538
0.682496
0.776233
0.86102
0.932747
0.989113
1.0296
1.05463
1.06588
1.06478
1.05374
1.03426
1.00847
0.97774
0.943372
0.906465
0.867859
0.82825
0.788198
0.748172
0.708519
0.669408
0.631355
0.59402
0.557744
0.522542
0.488409
0.455402
0.423502
0.918993
0.847099
0.765693
0.679113
0.591732
0.508048
0.432529
0.369501
0.323011
0.296433
0.292182
0.311346
0.353234
0.41517
0.492666
0.57982
0.670289
0.758073
0.837903
0.905915
0.959846
0.999071
1.02382
1.03556
1.03552
1.0259
1.00806
0.984005
0.955031
0.922382
0.887125
0.850082
0.811944
0.77327
0.734517
0.696025
0.657939
0.620985
0.584522
0.549076
0.514658
0.481265
0.448944
0.417698
0.890556
0.823473
0.747333
0.666332
0.584578
0.506317
0.435762
0.376987
0.333762
0.309197
0.305485
0.323583
0.362747
0.420461
0.492602
0.573798
0.658267
0.740515
0.815689
0.88016
0.931715
0.96965
0.994035
1.00614
1.00702
0.99867
0.982347
0.959907
0.932589
0.901577
0.867903
0.832369
0.795655
0.758314
0.720805
0.683456
0.646361
0.610539
0.574906
0.540295
0.50666
0.474005
0.442368
0.411776
0.863079
0.800518
0.729326
0.653583
0.577123
0.50395
0.438041
0.383232
0.343035
0.320318
0.317105
0.334151
0.370773
0.42458
0.491781
0.567478
0.646395
0.723492
0.794293
0.855391
0.904637
0.941266
0.965208
0.977569
0.979242
0.972034
0.957103
0.936172
0.910417
0.880962
0.848807
0.814728
0.779396
0.743357
0.707069
0.67084
0.634806
0.599931
0.565195
0.531421
0.498558
0.466639
0.435689
0.405753
0.836521
0.778222
0.711647
0.640865
0.569382
0.500981
0.43942
0.388311
0.350922
0.329883
0.327106
0.343182
0.377421
0.42761
0.490249
0.560869
0.634643
0.706942
0.773636
0.831527
0.878533
0.913849
0.937288
0.949806
0.952155
0.945973
0.93232
0.912794
0.888514
0.86054
0.82984
0.797165
0.76317
0.72838
0.693295
0.65818
0.623257
0.589141
0.555378
0.522444
0.490352
0.459167
0.428904
0.399625
0.810821
0.756534
0.694276
0.628175
0.561373
0.497444
0.439952
0.392294
0.357514
0.338022
0.335583
0.350757
0.382787
0.429628
0.488053
0.553979
0.622986
0.690815
0.753651
0.808491
0.853332
0.887335
0.910223
0.922815
0.925731
0.920467
0.907991
0.889773
0.866881
0.840313
0.811006
0.779684
0.746984
0.713413
0.679508
0.645481
0.611616
0.578312
0.545483
0.513383
0.482054
0.451596
0.422022
0.3934
0.785959
0.735474
0.677365
0.615527
0.553123
0.493383
0.439696
0.395255
0.362898
0.34482
0.342678
0.356986
0.386961
0.430698
0.485226
0.546808
0.611392
0.675056
0.734268
0.786213
0.828965
0.861664
0.883962
0.896553
0.899944
0.895496
0.884102
0.867097
0.845513
0.820283
0.792312
0.762294
0.730848
0.698457
0.665696
0.632746
0.599894
0.56743
0.535509
0.504236
0.473672
0.443931
0.415044
0.387077
0.714572
0.674641
0.628464
0.578376
0.527958
0.479823
0.43667
0.401125
0.375456
0.361281
0.359828
0.371712
0.396039
0.431274
0.475136
0.524817
0.577245
0.629406
0.678534
0.722327
0.759109
0.787979
0.808434
0.820819
0.825383
0.823077
0.814623
0.800955
0.783018
0.761531
0.73733
0.711021
0.683185
0.654327
0.624869
0.594981
0.565053
0.535075
0.505757
0.476919
0.448608
0.420959
0.394053
0.367953
0.611269
0.583826
0.55172
0.516257
0.480105
0.446141
0.415726
0.390916
0.372961
0.363483
0.363394
0.372345
0.390068
0.415542
0.447235
0.483263
0.521529
0.559952
0.596604
0.629814
0.658306
0.681283
0.698256
0.709229
0.714268
0.713873
0.708546