/*--------------------------------*- C++ -*----------------------------------*\
| =========                 |                                                 |
| \\      /  F ield         | OpenFOAM: The Open Source CFD Toolbox           |
|  \\    /   O peration     | Version:  v1912                                 |
|   \\  /    A nd           | Website:  www.openfoam.com                      |
|    \\/     M anipulation  |                                                 |
\*---------------------------------------------------------------------------*/
FoamFile
{
    version     2.0;
    format      ascii;
    class       volScalarField;
    location    "80";
    object      p_rgh;
}
// * * * * * * * * * * * * * * * * * * * * * * * * * * * * * * * * * * * * * //

dimensions      [1 -1 -2 0 0 0 0];


internalField   nonuniform List<scalar> 
14268
(
-5006.9
-4709.22
-4396.13
-4039.51
-3677.34
-3293.85
-2920.43
-2577.75
-5011.35
-4713.73
-4400.69
-4044.06
-3681.96
-3298.56
-2925.13
-2582.06
-5010.81
-4713.15
-4400.04
-4043.41
-3681.28
-3297.85
-2924.43
-2581.39
-5014.04
-4716.46
-4403.44
-4046.78
-3684.65
-3301.36
-2927.92
-2584.51
-5012.93
-4715.27
-4402.15
-4045.48
-3683.4
-3299.96
-2926.52
-2583.21
-5015.76
-4718.19
-4405.18
-4048.49
-3686.36
-3303.05
-2929.62
-2586.01
-5014.44
-4716.78
-4403.65
-4046.92
-3684.81
-3301.44
-2927.98
-2584.42
-5017.08
-4719.53
-4406.51
-4049.78
-3687.58
-3304.25
-2930.82
-2587.04
-5015.62
-4717.96
-4404.83
-4048.05
-3685.97
-3302.59
-2929.1
-2585.32
-5018.15
-4720.61
-4407.59
-4050.8
-3688.51
-3305.15
-2931.71
-2587.78
-5016.63
-4718.96
-4405.83
-4048.99
-3686.92
-3303.5
-2929.98
-2585.97
-5019.05
-4721.51
-4408.5
-4051.67
-3689.33
-3305.8
-2932.38
-2588.32
-5017.48
-4719.82
-4406.67
-4049.75
-3687.62
-3304.18
-2930.6
-2586.39
-5019.82
-4722.31
-4409.28
-4052.4
-3690
-3306.43
-2932.98
-2588.75
-5016.14
-4718.85
-4406.53
-4050.52
-3689.91
-3307.85
-2935.31
-2592.69
-5028.37
-4731.02
-4418.01
-4061.15
-3698.31
-3314.59
-2941.43
-2597.8
-5020.6
-4723.37
-4410.92
-4053.92
-3692.46
-3309.9
-2936.83
-2593.63
-5026.79
-4729.52
-4416.91
-4059.97
-3697.32
-3313.59
-2940.71
-2596.98
-5024.33
-4727.45
-4414.86
-4056.81
-3694.39
-3311.47
-2937.96
-2594.39
-5022.82
-4726.18
-4415.06
-4057.54
-3695.2
-3311.49
-2939.01
-2595.48
-5025.47
-4729.29
-4415.94
-4059.3
-3695.97
-3311.97
-2939.12
-2594.98
-5010.99
-4713.18
-4368.34
-4040.8
-3679.24
-3298.6
-2921.66
-2580.1
-5014.9
-4725.6
-4416.92
-4053.25
-3682.15
-3298.27
-2930.04
-2579.16
-4965.51
-4685.36
-4376.34
-4028.39
-3657.41
-3269.97
-2885.58
-2531.56
-3090.13
-3142.56
-3134.27
-3062.61
-2941.53
-2752.18
-2521.01
-2284.3
-170.512
-228.714
-300.2
-390.237
-475.155
-536.956
-569.454
-571.917
37.0212
27.7715
26.7628
28.4579
34.5034
52.9334
77.6883
111.393
26.192
19.5168
18.3023
18.0366
17.6417
22.3815
21.1325
28.22
26.351
20.6875
18.3354
17.1885
15.7542
14.2419
12.5249
11.3053
23.3349
19.6306
18.1809
16.9586
15.7915
14.0042
11.7749
10.2677
22.643
20.2198
18.6006
16.9477
15.3911
13.7619
11.9701
10.6267
20.7836
19.2805
18.0379
16.4755
15.2279
13.6717
12.1282
10.8388
19.8571
19.1665
18.0766
16.5118
15.0222
13.6281
12.1644
11.0239
18.917
18.4582
17.391
16.0577
14.7693
13.5889
12.1483
11.1497
18.0733
17.9733
17.2081
15.8462
14.5548
13.5222
12.0823
11.2343
17.1806
17.2781
16.5806
15.4462
14.2806
13.3649
12.0601
11.2604
16.4418
16.6549
16.1735
15.1363
14.0581
13.1388
12.0959
11.3057
15.6251
15.951
15.6541
14.7231
13.8038
12.911
12.0305
11.2771
14.7146
15.2625
15.13
14.3842
13.5649
12.7476
11.9414
11.2418
13.8924
14.6259
14.615
14.0083
13.2897
12.5524
11.8062
11.1499
13.1979
14.0125
14.101
13.643
13.0292
12.3597
11.6754
11.0755
12.565
13.4336
13.6026
13.2744
12.7489
12.1489
11.5214
10.9568
11.985
12.8896
13.1247
12.9077
12.47
11.9365
11.3658
10.8442
11.4529
12.3776
12.6658
12.544
12.1819
11.7113
11.1934
10.6986
10.9601
11.8927
12.2299
12.1832
11.8936
11.4832
11.0181
10.5584
10.5034
11.4341
11.8134
11.8233
11.6026
11.2466
10.8289
10.3947
10.0758
10.9984
11.4119
11.475
11.3137
11.0086
10.6368
10.2343
9.67502
10.5854
11.0247
11.1332
11.024
10.7656
10.4344
10.0581
9.29704
10.192
10.6522
10.8013
10.7374
10.5223
10.2284
9.88246
8.94112
9.81735
10.2931
10.4772
10.4528
10.2776
10.0174
9.698
8.60588
9.45969
9.94767
10.1607
10.1714
10.0325
9.80472
9.51466
8.28794
9.1181
9.61575
9.85248
9.89427
9.78898
9.59136
9.32536
7.98579
8.79261
9.29643
9.55144
9.62182
9.5472
9.37844
9.13988
7.69762
8.48235
8.98949
9.25971
9.35508
9.30837
9.16529
8.94811
7.42168
8.18569
8.69357
8.9773
9.09415
9.07273
8.95425
8.76082
7.15839
7.90193
8.4087
8.70394
8.83953
8.84112
8.74402
8.5715
6.90499
7.63017
8.13426
8.43902
8.59068
8.61238
8.53655
8.38318
6.66308
7.36914
7.86961
8.18248
8.34853
8.3884
8.33098
8.19642
6.43074
7.11794
7.61452
7.93368
8.11171
8.16776
8.128
8.01031
6.20734
6.87652
7.36833
7.69253
7.88123
7.95161
7.92773
7.8266
5.99239
6.64423
7.13094
7.4586
7.65612
7.73966
7.73034
7.64361
5.78496
6.42057
6.90152
7.23165
7.43681
7.53171
7.53569
7.46409
5.58544
6.20536
6.67997
7.01146
7.22313
7.32819
7.34398
7.28585
5.39297
5.99774
6.46568
6.7977
7.0147
7.12897
7.15591
7.11048
5.20734
5.79754
6.2584
6.59032
6.81184
6.93403
6.97113
6.93753
5.02833
5.60427
6.05788
6.38884
6.61405
6.74325
6.78952
6.76692
4.85535
5.41756
5.86384
6.19353
6.42133
6.55685
6.61193
6.59875
4.68858
5.23731
5.67581
6.0035
6.23358
6.37446
6.4372
6.43336
4.52738
5.06299
5.49383
5.81921
6.05064
6.19638
6.26607
6.27087
4.37167
4.89449
5.31735
5.64008
5.87252
6.02209
6.09828
6.11085
4.22134
4.73147
5.14649
5.46579
5.69887
5.85183
5.9335
5.95356
4.076
4.57367
4.98082
5.29681
5.52938
5.68543
5.77231
5.799
3.93541
4.42099
4.82
5.1322
5.36465
5.52261
5.61422
5.64671
3.79967
4.27307
4.66423
4.97208
5.20365
5.36357
5.45867
5.49719
3.66825
4.12965
4.51278
4.81647
5.04638
5.20784
5.30661
5.35022
3.54105
3.99082
4.36568
4.66492
4.89357
5.05555
5.15764
5.20563
3.41802
3.85626
4.22298
4.51736
4.74414
4.90669
5.01123
5.06357
3.06615
3.47077
3.81316
4.09287
4.31265
4.47608
4.58693
4.6504
2.56946
2.92154
3.22376
3.47582
3.67946
3.83619
3.94944
4.02251
2.14098
2.44363
2.70663
2.9297
3.11351
3.25916
3.36877
3.44468
1.76615
2.02249
2.24767
2.44127
2.6033
2.73454
2.83628
2.91022
1.4345
1.64724
1.83583
1.99969
2.13862
2.25295
2.34362
2.41169
1.13526
1.3068
1.46007
1.59434
1.70935
1.80518
1.88243
1.9418
0.862208
0.994257
1.11294
1.21759
1.30795
1.3839
1.44585
1.49424
0.604916
0.698812
0.783629
0.858825
0.924145
0.979495
1.02502
1.06101
0.360349
0.417027
0.468408
0.514125
0.553965
0.587839
0.615818
0.638049
0.122379
0.141471
0.158785
0.174188
0.187593
0.198968
0.208347
0.215781
-2212.94
-1911.07
-1675.73
-1474.36
-1324.99
-1199.41
-1077.15
-944.971
-799.55
-620.167
-418.264
-202.939
26.6352
264.987
477.665
657.574
800.951
906.405
986.037
1045.68
1092.37
1144.39
1197.39
1259.23
1333.12
1398.07
1462.59
1532.88
1613.28
1710.46
1823.56
1948.68
2081.71
2212.85
2340.26
2458.09
2554.72
2654.01
2759.36
2875.61
3004.58
3128.82
3242.9
3352.7
3479.32
3607.98
3785.98
3970.55
4181.79
4394.22
4537.26
4737.7
4906.87
5030.02
5104.66
5189.69
5269.29
5341.16
5412.06
5505.08
5581.81
5731.8
5840.33
5959.37
6105.97
6248.45
6562.19
6840.86
7094.24
7334.44
7542.98
7726.57
7885.76
8017.53
8140.66
8252.82
8358.4
8461.14
8568.48
8678.27
8788.72
8901.77
9026.94
9146.85
9264.11
9386.29
9509.7
9647.98
9764.25
9894.25
10025.6
10160.2
10268.9
10419.8
10536.7
10653.4
10753.9
10860.6
10967.5
11065.6
11182
11277.6
11395.2
11513.1
11629.4
11740.3
11843.2
11939.7
12037
12083.7
12118.9
12131.2
12203.8
12259.6
12357.8
12455.7
12568.3
12683.1
12797.2
12910.8
13027.3
13146.2
13269.4
13395.2
13521.5
13648.6
13776.7
13905.7
14035.7
14170.5
14302.8
14441.2
14571.1
14712.1
14847.2
14978.9
15108
15231.2
15347.2
15457.2
15565.4
15669.6
15769.7
15876.1
15977.8
16084.5
16196.4
16307.6
16413.3
16508
16587.8
16650.6
16698.1
16735.4
16771.5
16808.4
-2217.41
-1915.8
-1680.49
-1479.59
-1331.05
-1206.24
-1084.08
-951.402
-805.549
-625.732
-423.298
-207.109
22.633
261.03
473.624
653.605
797.368
903.486
983.329
1042.88
1089.17
1140.47
1192.36
1253.16
1326.36
1390.94
1455.22
1525.45
1605.89
1703.27
1816.67
1941.99
2075.07
2206.19
2333.47
2451.14
2547.6
2646.72
2752.01
2868.14
2996.89
3120.93
3234.84
3344.12
3469.64
3596.59
3774.23
3959.17
4171.55
4385.49
4531.28
4733.85
4903.92
5026.63
5099.88
5182.01
5258.79
5327.44
5394.33
5481.77
5553.28
5701.67
5812.21
5938.53
6094.52
6243.16
6558.67
6837.57
7090.62
7330.38
7538.82
7722.47
7881.97
8014.27
8137.79
8250.1
8355.69
8458.39
8565.61
8675.29
8785.65
8898.64
9023.75
9143.57
9260.7
9382.69
9505.84
9643.9
9759.97
9889.74
10020.8
10155.1
10263.3
10413.6
10529.9
10646
10746.2
10853
10960
11058.3
11174.6
11270.5
11388.3
11506.2
11622.6
11733.5
11836.6
11933.3
12030.9
12077.8
12113.1
12125.2
12196.8
12252.3
12350.1
12447.8
12560.2
12675
12789.1
12902.5
13018.9
13137.5
13260.2
13385.6
13511.4
13638.2
13766
13894.6
14024.4
14159
14291.1
14429.3
14559.2
14700.2
14835.4
14967.1
15096.4
15219.7
15335.9
15446.4
15555
15659.7
15760.7
15868.1
15971.1
16079.2
16192.7
16305.3
16412.1
16507.4
16587.4
16650.4
16698.1
16735.4
16771.5
16808.4
-2217.06
-1915.53
-1680.17
-1479.22
-1330.64
-1205.77
-1083.43
-950.746
-804.764
-624.869
-422.336
-206.676
23.3649
261.518
474.033
653.964
797.715
903.778
983.589
1043.22
1089.63
1141
1193.01
1253.86
1327.03
1391.57
1455.9
1526.1
1606.52
1703.85
1817.19
1942.46
2075.46
2206.54
2333.86
2451.53
2548.03
2647.24
2752.4
2868.53
2997.3
3121.34
3235.31
3344.54
3470.04
3597.03
3774.77
3959.86
4172.1
4387.08
4532.04
4734.42
4904.37
5027.34
5100.31
5183.09
5259.59
5328.33
5395.32
5482.62
5553.74
5701.46
5812.78
5939.1
6095.99
6243.61
6559.27
6837.92
7091.05
7330.96
7539.34
7722.92
7882.36
8014.6
8138.09
8250.41
8356.02
8458.74
8566.01
8675.67
8786.03
8899.05
9024.22
9144.09
9261.26
9383.31
9506.51
9644.54
9760.61
9890.42
10021.5
10155.7
10264.1
10414.2
10530.5
10646.6
10746.9
10853.7
10960.9
11059.1
11175.8
11271.5
11389.3
11507.3
11623.7
11734.7
11837.8
11934.7
12032.4
12079
12114
12125.8
12198.5
12253.4
12351
12448.6
12561.1
12675.9
12790.1
12903.6
13020
13138.7
13261.5
13386.9
13512.8
13639.6
13767.5
13896.2
14026
14160.8
14292.9
14431.3
14561.2
14702.2
14837.5
14969.2
15098.4
15221.7
15338
15448.4
15556.9
15661.6
15762.4
15869.6
15972.4
16080.3
16193.4
16305.6
16412.1
16507.2
16587.2
16650.2
16697.9
16735.2
16771.4
16808.4
-2220.19
-1918.77
-1683.46
-1482.85
-1334.88
-1210.6
-1088.42
-955.402
-809.271
-629.193
-426.444
-209.598
20.1947
258.698
471.211
651.254
795.264
901.822
981.799
1041.24
1087.32
1138.19
1189.35
1249.42
1322.13
1386.4
1450.46
1520.62
1601
1698.46
1812.04
1937.52
2070.58
2201.68
2328.9
2446.46
2542.79
2641.8
2747.03
2863.09
2991.68
3115.63
3229.52
3338.46
3463.14
3588.88
3766.25
3951.42
4164.65
4379.59
4527.57
4731.46
4901.8
5024.22
5096.87
5177.06
5251.92
5318.18
5382.11
5465.48
5533.34
5680.53
5792.56
5924.43
6086.85
6239.64
6556.48
6835.51
7088.53
7328.04
7536.43
7720.12
7879.81
8012.4
8136.11
8248.45
8354.03
8456.7
8563.88
8673.52
8783.87
8896.85
9021.97
9141.77
9258.82
9380.68
9503.65
9641.58
9757.5
9887.09
10018
10152.1
10259.8
10409.8
10525.6
10641.4
10741.4
10848.2
10955.3
11053.7
11170
11266.1
11384.1
11502.3
11618.7
11729.7
11832.9
11929.7
12027.3
12074.4
12109.7
12121.8
12192.6
12247.9
12345.5
12443
12555.4
12670.2
12784.2
12897.6
13013.8
13132.2
13254.7
13379.8
13505.4
13632
13759.6
13888.1
14017.7
14152.1
14284.1
14422.3
14552.3
14693.4
14828.7
14960.5
15089.9
15213.3
15329.8
15440.4
15549.4
15654.5
15755.9
15864
15967.7
16076.5
16191
16304.2
16411.3
16506.9
16587
16650.1
16697.7
16735
16771.2
16808.3
-2219.33
-1918.04
-1682.63
-1481.85
-1333.64
-1209.23
-1087.02
-954.039
-807.747
-627.502
-424.528
-208.753
21.6406
259.616
472.062
651.999
795.958
902.287
982.24
1041.89
1088.14
1139.12
1190.55
1250.8
1323.5
1387.74
1451.96
1522.08
1602.56
1700
1813.47
1938.76
2071.76
2202.8
2330.06
2447.65
2544.11
2643.21
2748.28
2864.34
2993.01
3116.93
3230.89
3339.83
3464.7
3590.7
3768.17
3953.6
4166.27
4383.12
4529.22
4732.75
4902.95
5025.87
5097.74
5179.31
5253.9
5320.57
5385.09
5468.78
5536.25
5683.65
5796.5
5927.16
6090.29
6240.65
6557.43
6836.29
7089.32
7329.09
7537.39
7720.95
7880.53
8013.08
8136.71
8249.09
8354.7
8457.4
8564.56
8674.17
8784.52
8897.59
9022.79
9142.68
9259.81
9381.81
9504.87
9642.75
9758.67
9888.35
10019.3
10153.3
10261.4
10411.1
10526.9
10642.7
10742.9
10849.8
10957
11055.3
11172.4
11268.2
11386
11504.1
11620.6
11731.8
11835.1
11932.2
12030.1
12076.5
12111.4
12122.9
12195.8
12250.1
12347.2
12444.6
12557
12671.9
12786.1
12899.6
13016
13134.5
13257.1
13382.3
13508
13634.7
13762.4
13891
14020.8
14155.5
14287.7
14426.1
14555.9
14697
14832.3
14964.1
15093.4
15216.8
15333.2
15443.7
15552.5
15657.4
15758.5
15866.2
15969.4
16078.1
16191.8
16304.5
16411.3
16506.8
16586.9
16649.9
16697.5
16734.9
16771.1
16808.1
-2221.94
-1920.67
-1685.37
-1484.91
-1337.3
-1213.38
-1091.23
-958.027
-811.729
-631.516
-428.61
-211.234
18.5799
257.195
469.705
649.799
793.953
900.797
980.745
1040.16
1086.18
1136.75
1187.4
1246.98
1319.35
1383.3
1447.2
1517.3
1597.7
1695.22
1808.89
1934.45
2067.51
2198.57
2325.76
2443.25
2539.62
2638.52
2743.75
2859.76
2988.21
3112.09
3225.98
3334.66
3458.74
3583.67
3760.86
3946.12
4160.03
4375.43
4525.07
4729.73
4900.31
5022.85
5094.84
5173.69
5247.21
5311.82
5373.71
5454.36
5519.36
5665.91
5779.59
5915.2
6081.97
6237.33
6555.15
6834.15
7087.16
7326.52
7534.91
7718.65
7878.44
8011.23
8135.04
8247.4
8352.95
8455.61
8562.77
8672.39
8782.75
8895.73
9020.88
9140.67
9257.67
9379.44
9502.29
9640.13
9755.93
9885.4
10016.2
10150.1
10257.5
10407.3
10522.7
10638.4
10738.2
10844.9
10952
11050.6
11166.9
11263.2
11381.4
11499.6
11616.1
11727.2
11830.5
11927.3
12024.9
12072.1
12107.4
12119.5
12189.6
12245.1
12342.5
12439.9
12552.3
12667
12781
12894.2
13010.3
13128.6
13250.9
13375.9
13501.4
13627.9
13755.3
13883.8
14013.3
14147.6
14279.6
14417.7
14547.7
14688.8
14824.3
14956.2
15085.7
15209.2
15325.8
15436.7
15545.7
15651.1
15752.9
15861.3
15965.5
16074.8
16189.8
16303.4
16410.8
16506.5
16586.7
16649.7
16697.4
16734.8
16770.9
16808
-2220.96
-1919.81
-1684.34
-1483.8
-1336.05
-1211.98
-1089.78
-956.57
-810.006
-629.527
-426.14
-210.303
20.4085
258.256
470.617
650.543
794.647
901.136
981.267
1040.83
1086.95
1137.68
1188.68
1248.43
1320.73
1384.84
1449.02
1519.12
1599.52
1696.98
1810.53
1935.89
2068.93
2200.02
2327.37
2444.97
2541.28
2640.29
2745.16
2861.19
2989.75
3113.57
3227.55
3336.28
3460.57
3585.8
3763.24
3948.63
4161.79
4380.22
4527.04
4731.18
4901.76
5024.33
5095.73
5176.42
5249.53
5314.63
5376.99
5457.85
5523.01
5670.35
5783.74
5918.15
6086.05
6238.33
6555.85
6835.05
7088.06
7327.7
7535.93
7719.49
7879.25
8011.89
8135.63
8248.04
8353.61
8456.28
8563.41
8672.99
8783.32
8896.49
9021.76
9141.66
9258.78
9380.75
9503.69
9641.45
9757.25
9886.81
10017.6
10151.4
10259.4
10408.7
10524
10639.6
10739.7
10846.7
10954
11052.5
11169.8
11265.6
11383.6
11501.8
11618.3
11729.6
11833
11930.5
12028.6
12074.7
12109.3
12120.7
12194
12247.6
12344.5
12441.7
12554
12668.9
12783.1
12896.6
13012.9
13131.4
13253.9
13378.9
13504.5
13631
13758.6
13887.1
14016.8
14151.6
14283.8
14422.2
14552
14693.1
14828.4
14960.3
15089.7
15213.1
15329.6
15440.2
15549.1
15654.2
15755.5
15863.5
15967.2
16076.4
16190.5
16303.6
16410.7
16506.3
16586.5
16649.6
16697.2
16734.6
16770.8
16807.9
-2223.24
-1922.13
-1686.78
-1486.43
-1339.11
-1215.48
-1093.38
-960.044
-813.682
-633.33
-430.359
-212.511
17.3313
256.081
468.611
648.739
792.984
899.963
979.914
1039.39
1085.27
1135.61
1185.87
1245.03
1317.1
1380.85
1444.68
1514.69
1595.08
1692.63
1806.43
1932.12
2065.5
2196.65
2323.97
2441.31
2537.24
2636.01
2740.96
2856.92
2985.32
3109.15
3223.07
3331.6
3455.22
3579.54
3756.6
3942.05
4156.42
4372.14
4523.41
4728.95
4899.51
5021.83
5093.24
5171.04
5243.45
5306.63
5367.09
5445.24
5508.27
5654.71
5769.81
5908.36
6078.55
6235.63
6554.09
6833.07
7086.09
7325.36
7533.74
7717.51
7877.42
8010.36
8134.23
8246.58
8352.17
8454.8
8561.92
8671.52
8781.85
8894.89
9020.09
9139.88
9256.85
9378.54
9501.3
9639.06
9754.76
9884.11
10014.8
10148.6
10255.7
10405.3
10520.5
10635.9
10735.6
10842.3
10949.4
11048.2
11164.3
11260.8
11379.2
11497.6
11614.1
11725.3
11828.6
11925.4
12023
12070.4
12105.8
12117.7
12187.2
12242.8
12340.1
12437.5
12549.8
12664.5
12778.4
12891.6
13007.6
13125.7
13248
13372.9
13498.2
13624.6
13752
13880.4
14009.9
14144
14275.9
14414
14544.1
14685.3
14820.7
14952.8
15082.4
15206
15322.7
15433.6
15542.9
15648.4
15750.5
15859.2
15963.8
16073.4
16188.9
16302.8
16410.3
16506.1
16586.3
16649.5
16697.1
16734.5
16770.7
16807.7
-2222.25
-1921.21
-1685.77
-1485.46
-1338.02
-1214.27
-1092.11
-958.709
-811.931
-631.223
-427.454
-211.571
19.4331
257.174
469.462
649.392
793.58
900.315
980.402
1039.94
1086.02
1136.53
1187.17
1246.51
1318.52
1382.52
1446.54
1516.71
1597.19
1694.85
1809.07
1934.74
2068.32
2199.24
2325.56
2442.42
2538.38
2637.24
2742.49
2858.45
2987.03
3110.85
3224.83
3333.3
3457.11
3581.67
3758.97
3944.5
4158.15
4377.69
4525.4
4729.98
4900.26
5022.93
5094.05
5174
5245.88
5309.6
5370.35
5449.02
5512.48
5659.69
5773.97
5911.35
6082.74
6236.36
6554.46
6833.94
7087.05
7326.56
7534.72
7718.31
7878.16
8010.92
8134.73
8247.1
8352.67
8455.32
8562.41
8671.96
8782.36
8895.58
9020.92
9140.86
9257.97
9379.92
9502.74
9640.42
9756.11
9885.53
10016.2
10149.9
10257.6
10406.6
10521.7
10637
10737.1
10844.1
10951.5
11050
11167.6
11263.4
11381.5
11499.8
11616.4
11727.8
11831.4
11929.1
12027.4
12073.2
12107.7
12118.9
12192.5
12245.6
12342.2
12439.2
12551.5
12666.4
12780.6
12894.1
13010.4
13128.8
13251.2
13376.1
13501.5
13627.9
13755.4
13883.9
14013.5
14148.4
14280.5
14419
14548.7
14689.8
14825.2
14957.1
15086.5
15210
15326.5
15437.2
15546.2
15651.4
15753
15861.3
15965.3
16074.9
16189.3
16302.8
16410.1
16506
16586.2
16649.3
16697
16734.3
16770.5
16807.6
-2224.25
-1923.28
-1687.88
-1487.61
-1340.56
-1217.17
-1095.11
-961.697
-815.301
-634.863
-431.859
-213.574
16.3198
255.214
467.771
647.886
792.213
899.211
979.287
1038.75
1084.53
1134.7
1184.65
1243.52
1315.65
1379.41
1443.88
1514.33
1594.66
1692.73
1807.32
1932.95
2064.74
2194.49
2321.17
2438.58
2534.82
2633.71
2738.63
2854.6
2982.95
3106.71
3220.61
3329.04
3452.27
3576.08
3753.08
3938.65
4153.33
4369.47
4522.08
4728.06
4898.65
5020.98
5091.9
5168.85
5240.29
5302.26
5361.35
5438.14
5499.93
5646.35
5762.59
5903.8
6076.47
6234.23
6553.1
6832.24
7085.2
7324.4
7532.8
7716.57
7876.6
8009.65
8133.56
8245.97
8351.52
8454.14
8561.21
8670.8
8781.12
8894.23
9019.47
9139.29
9256.23
9377.85
9500.54
9638.23
9753.83
9883.03
10013.6
10147.3
10254.1
10403.7
10518.5
10633.7
10733.3
10840
10947.2
11046
11162.1
11258.8
11377.3
11495.8
11612.5
11723.7
11827
11923.7
12021.3
12068.9
12104.4
12116.3
12185.1
12241
12338.1
12435.4
12547.7
12662.4
12776.2
12889.4
13005.3
13123.3
13245.4
13370.2
13495.5
13621.8
13749.1
13877.5
14006.9
14141
14272.8
14410.8
14541
14682.2
14817.7
14949.8
15079.5
15203.2
15320
15431
15540.4
15646.2
15748.5
15857.5
15962.3
16072.3
16188
16302.1
16409.8
16505.7
16586
16649.2
16696.8
16734.2
16770.4
16807.4
-2223.29
-1922.38
-1686.94
-1486.86
-1339.7
-1216.22
-1094.13
-960.584
-813.642
-632.74
-428.575
-212.683
18.6282
256.283
468.513
648.452
792.689
899.539
979.662
1039.18
1085.22
1135.59
1186.12
1245.59
1318.52
1383.22
1449
1518.76
1598.56
1696.11
1808.78
1932.44
2064.58
2195.46
2322.61
2439.98
2536.08
2635.12
2740.21
2856.09
2984.65
3108.48
3222.45
3330.73
3454.13
3578.09
3755.23
3940.96
4155.05
4375.57
4524
4728.97
4899.17
5021.65
5092.59
5171.89
5242.71
5305.25
5364.98
5442.9
5504.41
5649.52
5764.43
5905.42
6080.45
6234.87
6553.48
6832.89
7086.22
7325.58
7533.68
7717.28
7877.22
8010.08
8133.96
8246.33
8351.83
8454.46
8561.51
8671.04
8781.51
8894.79
9020.21
9140.19
9257.3
9379.24
9501.94
9639.55
9755.15
9884.46
10015.1
10148.7
10256.1
10404.9
10519.7
10634.9
10734.9
10841.8
10949.3
11047.9
11165.7
11261.5
11379.6
11498.1
11614.8
11726.2
11830
11927.8
12026.5
12072
12106.2
12117.4
12191.3
12243.8
12340.3
12437.2
12549.4
12664.2
12778.4
12891.9
13008.2
13126.6
13248.8
13373.7
13499
13625.2
13752.7
13881.1
14010.6
14145.5
14277.7
14416.2
14545.8
14686.9
14822.3
14954.2
15083.7
15207.2
15323.7
15434.5
15543.6
15649
15750.7
15859.3
15963.6
16073.4
16188.2
16302
16409.6
16505.6
16585.9
16649
16696.7
16734
16770.2
16807.3
-2225.04
-1924.19
-1688.75
-1488.6
-1341.75
-1218.58
-1096.55
-963.096
-816.691
-636.172
-433.178
-214.457
15.4835
254.526
467.108
647.175
791.567
898.653
978.749
1038.21
1083.94
1134.16
1184.49
1244.89
1319.38
1383.87
1447.42
1517.35
1596.68
1691.43
1803.23
1928.1
2061.05
2191.99
2319.3
2436.78
2532.94
2631.78
2736.64
2852.59
2980.89
3104.58
3218.49
3326.8
3449.69
3573.06
3750.09
3935.68
4150.64
4367.17
4521.06
4727.32
4897.82
5020.18
5090.73
5166.99
5237.57
5298.71
5357.74
5433.11
5491.39
5636.94
5754.12
5898.2
6074.79
6233.21
6552.25
6831.59
7084.45
7323.63
7531.99
7715.77
7875.92
8009.04
8132.98
8245.39
8350.97
8453.58
8560.59
8670.1
8780.48
8893.67
9018.97
9138.82
9255.75
9377.32
9499.95
9637.57
9753.06
9882.11
10012.6
10146.2
10252.8
10402.2
10516.8
10631.8
10731.3
10838
10945.2
11044.1
11160.1
11257.1
11375.7
11494.3
11611
11722.2
11825.7
11922.3
12019.9
12067.7
12103.2
12115
12183.2
12239.4
12336.3
12433.5
12545.8
12660.5
12774.3
12887.4
13003.2
13121.1
13243.1
13367.9
13493.1
13619.3
13746.6
13874.9
14004.3
14138.3
14270
14408
14538.2
14679.5
14815
14947.2
15076.9
15200.7
15317.6
15428.7
15538.2
15644.2
15746.7
15855.9
15961
16071.4
16187.2
16301.4
16409.3
16505.3
16585.7
16648.8
16696.5
16733.9
16770
16807.1
-2224.17
-1923.36
-1687.9
-1488
-1341.1
-1217.86
-1095.81
-962.165
-815.149
-634.124
-429.56
-213.652
17.948
255.542
467.769
647.692
791.943
898.859
979.022
1038.54
1084.67
1135.65
1187.71
1250.16
1321.84
1385.43
1447.04
1513.37
1592.37
1689.9
1803.68
1929.27
2062.4
2193.64
2320.7
2438
2534.05
2633.06
2738.15
2854
2982.55
3106.41
3220.36
3328.49
3451.51
3574.95
3751.9
3937.91
4152.35
4373.73
4522.88
4728.13
4898.19
5020.55
5091.33
5170.04
5240.04
5302.21
5361.76
5436.55
5494.76
5639.91
5756.45
5899.93
6077.99
6233.67
6552.61
6831.99
7085.47
7324.72
7532.84
7716.33
7876.37
8009.36
8133.28
8245.64
8351.15
8453.73
8560.69
8670.3
8780.8
8894.13
9019.62
9139.64
9256.74
9378.69
9501.29
9638.85
9754.34
9883.53
10014
10147.6
10254.7
10403.3
10518
10633
10732.8
10839.8
10947.3
11045.9
11163.9
11259.7
11377.9
11496.5
11613.2
11724.8
11828.7
11926.8
12025.7
12070.9
12104.9
12116.1
12190.3
12242.3
12338.6
12435.3
12547.5
12662.3
12776.5
12890
13006.2
13124.6
13246.7
13371.5
13496.6
13622.8
13750.1
13878.5
14008
14142.9
14275.1
14413.6
14543.2
14684.3
14819.7
14951.6
15081.1
15204.6
15321.1
15432
15541.2
15646.7
15748.7
15857.5
15962.1
16072
16187.2
16301.2
16409.1
16505.1
16585.5
16648.7
16696.3
16733.7
16769.9
16807
-2225.63
-1925.03
-1689.6
-1489.32
-1342.7
-1219.72
-1097.89
-964.228
-817.785
-637.248
-434.334
-215.221
14.7925
253.979
466.551
646.558
791.004
898.193
978.281
1037.83
1083.9
1136.25
1189.68
1247.76
1319.06
1379.63
1439.8
1508.63
1589.03
1686.78
1800.74
1926.49
2059.53
2190.45
2317.75
2435.2
2531.26
2630.04
2734.82
2850.73
2979.03
3102.67
3216.62
3324.82
3447.4
3570.36
3747.29
3932.98
4148.27
4365.22
4520.28
4726.73
4897.08
5019.43
5089.72
5165.42
5235.64
5297.01
5354.06
5426.55
5483.09
5629.54
5747.84
5894.2
6073.34
6232.22
6551.54
6831
7083.8
7322.91
7531.27
7715.12
7875.37
8008.52
8132.47
8244.86
8350.4
8452.95
8559.96
8669.44
8779.87
8893.16
9018.53
9138.42
9255.36
9376.89
9499.44
9637.01
9752.41
9881.31
10011.7
10145.2
10251.6
10400.9
10515.2
10630
10729.4
10836.1
10943.4
11042.3
11158.3
11255.4
11374.2
11492.9
11609.7
11721
11824.4
11921.1
12018.7
12066.7
12102.1
12113.8
12181.5
12237.9
12334.8
12431.8
12544.1
12658.7
12772.5
12885.5
13001.3
13119.1
13241.1
13365.7
13490.9
13617
13744.3
13872.5
14001.9
14135.8
14267.5
14405.4
14535.7
14677
14812.6
14944.8
15074.6
15198.5
15315.4
15426.6
15536.3
15642.4
15745.1
15854.5
15959.6
16070.4
16186.3
16300.7
16408.8
16504.9
16585.3
16648.5
16696.2
16733.5
16769.7
16806.8
-2224.31
-1923.56
-1688.51
-1488.82
-1342.05
-1219.02
-1097.3
-963.07
-815.514
-634.092
-428.302
-214.083
18.7552
255.748
467.819
647.344
791.304
898.376
978.463
1038.34
1085.69
1141.38
1191.18
1248.77
1316.16
1377.56
1440.84
1511.02
1591.25
1688.71
1802.47
1928.02
2061.4
2192.33
2319.53
2436.73
2532.75
2631.83
2737.11
2852.95
2981.47
3105.24
3219.04
3327.07
3449.93
3572.89
3749.88
3935.89
4150.78
4375.51
4522.86
4727.76
4897.36
5019.65
5090.5
5170.4
5240.8
5302.62
5358.37
5431.37
5488.66
5633.41
5750.94
5896.66
6077.76
6232.65
6551.99
6831.31
7085.31
7324.47
7532.4
7715.85
7875.69
8008.84
8132.78
8245.13
8350.57
8453.23
8560.1
8669.54
8780.11
8893.57
9019.25
9139.43
9256.62
9378.78
9501.27
9638.68
9754.15
9883.34
10013.8
10147.2
10254.3
10402.4
10516.9
10631.9
10731.8
10838.9
10946.3
11045
11164.2
11259.3
11377.5
11496.1
11612.9
11724.7
11829.1
11928.2
12028.2
12071.5
12104.6
12115.5
12193.1
12242.4
12338.1
12434.6
12546.7
12661.6
12775.8
12889.5
13006
13124.4
13246.6
13371.3
13496.3
13622.4
13749.6
13877.9
14007.4
14142.9
14275.3
14414.2
14543.3
14684.2
14819.5
14951.3
15080.6
15204
15320.4
15431.1
15540.3
15645.7
15747.6
15856.5
15961.4
16070.8
16186
16300.3
16408.4
16504.6
16585.1
16648.3
16695.9
16733.3
16769.4
16806.5
-2227.2
-1926.83
-1691.14
-1491.01
-1344.62
-1222.03
-1100.35
-966.381
-819.754
-639.35
-438.013
-216.47
13.1339
254.358
467.309
646.567
790.235
897.289
977.459
1037.24
1085.02
1135.69
1184.26
1239.87
1309.12
1371.91
1435.2
1505.09
1585.52
1683.33
1797.43
1923.07
2056.03
2187.12
2314.36
2431.91
2527.55
2626.4
2730.99
2846.77
2975.03
3098.76
3212.87
3320.86
3442.78
3565.03
3741.86
3927.57
4143.43
4358.51
4518.38
4725.43
4895.71
5017.98
5087.94
5163.28
5234.06
5291.48
5343.67
5413.98
5468.69
5615.75
5736.76
5887.81
6070.73
6230.49
6550.27
6829.73
7082.28
7321.16
7529.64
7713.67
7874.25
8007.36
8131.45
8243.83
8349.38
8451.86
8558.65
8668.25
8778.79
8892.21
9017.61
9137.49
9254.43
9375.69
9498.08
9635.65
9750.78
9879.26
10009.6
10142.7
10248.6
10398
10512
10626.3
10725.2
10831.8
10939.1
11038.2
11153.1
11251.3
11370.3
11489.4
11606.2
11717.4
11820.6
11916.4
12013.1
12063.4
12099.3
12111.1
12174.4
12233.9
12330.9
12427.9
12540.1
12654.7
12768.2
12881
12996.3
13113.8
13235.6
13360.1
13485.2
13611.2
13738.4
13866.5
13995.8
14128.9
14260.4
14397.7
14528.6
14670
14805.8
14938.2
15068.3
15192.5
15309.7
15421.3
15531.3
15638
15741.3
15851
15956.3
16068.3
16184.6
16299.4
16407.8
16504.1
16584.7
16647.9
16695.6
16732.9
16769
16806.1
-2225.32
-1924.75
-1689.51
-1490.25
-1343.94
-1221.44
-1099.68
-966.214
-818.645
-635.941
-428.62
-214.08
19.7396
256.306
468.172
647.894
791.099
897.5
977.72
1038.03
1086.39
1136.68
1184.63
1240.58
1310.8
1374.19
1438.13
1507.82
1587.94
1685.47
1799.31
1925.13
2058.33
2189.31
2316.64
2433.78
2529.7
2628.75
2733.97
2849.79
2978.24
3101.86
3215.51
3323.5
3445.84
3568
3744.35
3931.06
4146.87
4372.97
4521.9
4726.82
4895.71
5018.03
5089.76
5171.01
5238.49
5296.37
5349.48
5423.14
5478
5622.41
5742.46
5892.73
6077.28
6231.49
6550.71
6830.09
7084.25
7323.19
7531.04
7714.52
7874.6
8007.78
8131.67
8244.07
8349.41
8451.87
8558.81
8668.27
8778.89
8892.48
9018.36
9138.69
9255.83
9378.02
9500.33
9637.65
9753.01
9881.96
10012.2
10145.6
10252
10400
10514
10628.8
10728.7
10835.7
10942.9
11041.8
11161
11256.3
11374.6
11493.4
11610.5
11722.4
11827.1
11926.5
12027.4
12069.9
12102.6
12113.5
12191.6
12240
12335.4
12431.7
12543.7
12658.5
12772.7
12886.3
13002.8
13121.2
13243.2
13367.7
13492.6
13618.5
13745.5
13873.6
14003.1
14138.6
14270.9
14410
14538.8
14679.7
14815
14946.8
15076.2
15199.6
15316
15426.9
15536.3
15641.9
15743.9
15853.5
15958.6
16068.2
16184
16298.7
16407.2
16503.7
16584.3
16647.5
16695.2
16732.5
16768.7
16805.7
-2227.54
-1927.02
-1691.76
-1491.89
-1345.89
-1223.49
-1101.99
-968.64
-822.112
-641.338
-438.551
-215.978
13.4644
254.115
466.949
646.803
790.816
897.057
977.186
1037.78
1085.27
1133.78
1180.52
1236.47
1306.89
1369.59
1433.03
1502.84
1583.23
1681.01
1795.16
1920.72
2053.91
2184.99
2312.18
2429.73
2525.45
2623.81
2728.23
2844.13
2972.61
3096.46
3210.6
3318.17
3439.56
3561.02
3738.21
3924.05
4140.33
4356.18
4518.06
4724.94
4894.55
5016.94
5088.1
5162.75
5229.89
5284.82
5338.52
5409.54
5464.42
5610.7
5732.31
5886.39
6072.41
6229.61
6549.02
6828.58
7081.33
7320.14
7528.52
7712.48
7873.31
8006.7
8130.7
8243.09
8348.53
8451.06
8557.71
8667.27
8777.95
8891.56
9017.32
9137.28
9254.16
9375.41
9497.63
9635.17
9750.04
9878.18
10008.3
10141.3
10246.8
10396
10509.9
10623.6
10722.2
10828.7
10936.1
11035.3
11150.5
11248.7
11367.9
11487.1
11604.1
11715.4
11818.6
11914.5
12011
12062
12097.7
12109.3
12171.6
12231.8
12328.5
12425.2
12537.4
12652
12765.5
12878.1
12993.4
13110.7
13232.3
13356.7
13481.7
13607.6
13734.7
13862.7
13991.9
14125
14256.4
14393.6
14524.5
14665.9
14801.8
14934.3
15064.4
15188.7
15306.1
15417.9
15528.1
15634.9
15738.5
15848.2
15954
16066.2
16182.7
16297.8
16406.5
16503.2
16583.8
16647.1
16694.8
16732.1
16768.2
16805.3
-2225.98
-1925.84
-1690.13
-1491
-1345.17
-1223.17
-1101.6
-968.379
-821.033
-638.925
-430.286
-214.772
19.0119
255.592
467.365
645.927
789.664
897.221
977.509
1038.43
1085.78
1134.5
1182.05
1238.59
1308.86
1371.7
1435.21
1505.03
1585.05
1682.63
1796.54
1922.54
2055.98
2187.03
2314.2
2431.24
2527.18
2626.21
2731.5
2847.23
2975.58
3099.08
3212.65
3320.65
3442.34
3563.95
3740.25
3927.2
4143.97
4371.31
4521.57
4726.31
4894.42
5016.71
5089.24
5168.5
5233.11
5289.96
5345.26
5420.64
5480.27
5626.47
5743.96
5890.33
6076.7
6230.19
6549.4
6828.92
7083.36
7322.13
7529.97
7713.61
7873.78
8006.99
8130.85
8243
8348.46
8450.94
8557.62
8667.09
8777.77
8891.53
9017.62
9138.17
9255.25
9377.47
9499.66
9636.84
9752.14
9880.83
10011
10144.3
10249.9
10397.9
10511.5
10626.2
10726
10832.9
10939.9
11039
11158
11253.6
11372
11491
11608.3
11720.4
11825.3
11925
12026.7
12068.6
12101
12111.8
12190.1
12237.9
12333
12429.2
12541.1
12655.9
12770
12883.5
12999.9
13118.2
13240.2
13364.5
13489.2
13614.9
13741.9
13869.8
13999.1
14134.7
14266.9
14406
14534.7
14675.6
14810.8
14942.6
15072.1
15195.5
15312
15423
15532.6
15638.4
15740.6
15850.8
15955.7
16065.7
16181.8