/*--------------------------------*- C++ -*----------------------------------*\
| =========                 |                                                 |
| \\      /  F ield         | OpenFOAM: The Open Source CFD Toolbox           |
|  \\    /   O peration     | Version:  v1912                                 |
|   \\  /    A nd           | Website:  www.openfoam.com                      |
|    \\/     M anipulation  |                                                 |
\*---------------------------------------------------------------------------*/
FoamFile
{
    version     2.0;
    format      ascii;
    class       surfaceScalarField;
    location    "80";
    object      phi;
}
// * * * * * * * * * * * * * * * * * * * * * * * * * * * * * * * * * * * * * //

dimensions      [0 3 -1 0 0 0 0];
oriented        oriented;


internalField   nonuniform List<scalar> 
28285
(
-0.00086711
-4.72542e-05
-0.000824482
-4.2628e-05
-0.000785894
-3.85879e-05
-0.000749342
-3.65519e-05
-0.000712914
-3.64285e-05
-0.000669987
-4.29271e-05
-0.000632984
-3.70024e-05
-2.09118e-05
-0.000612072
-0.000873064
-9.43527e-05
-0.000829254
-8.64385e-05
-0.000790566
-7.72753e-05
-0.000753046
-7.4072e-05
-0.000716234
-7.32403e-05
-0.00067376
-8.54016e-05
-0.000638749
-7.20129e-05
-4.42998e-05
-0.000615361
-0.000868427
-0.000140912
-0.000825008
-0.000129857
-0.000786517
-0.000115767
-0.000749795
-0.000110794
-0.000713414
-0.000109622
-0.000671533
-0.000127283
-0.000636394
-0.000107151
-6.88486e-05
-0.000611846
-0.000871289
-0.000187501
-0.000827868
-0.000173278
-0.000789084
-0.000154551
-0.000752392
-0.000147486
-0.000715612
-0.000146402
-0.000673993
-0.000168901
-0.000639303
-0.000141841
-9.46457e-05
-0.000613506
-0.000867913
-0.00023394
-0.000824741
-0.00021645
-0.000786086
-0.000193206
-0.000749972
-0.0001836
-0.000713719
-0.000182655
-0.000672658
-0.000209962
-0.000637838
-0.000176661
-0.000120923
-0.000611561
-0.000869537
-0.000280256
-0.000826514
-0.000259473
-0.000787885
-0.000231834
-0.000751868
-0.000219617
-0.000715544
-0.000218979
-0.000674678
-0.000250828
-0.000640164
-0.000211175
-0.000148322
-0.000612765
-0.000866999
-0.000326531
-0.000824085
-0.000302387
-0.00078556
-0.000270359
-0.000749964
-0.000255213
-0.000714184
-0.000254758
-0.000673827
-0.000291185
-0.00063925
-0.000245752
-0.000176087
-0.000611485
-0.000868035
-0.000372636
-0.000825309
-0.000345113
-0.000786901
-0.000308767
-0.000751414
-0.0002907
-0.000715673
-0.0002905
-0.000675521
-0.000331337
-0.000641239
-0.000280034
-0.000204822
-0.000612504
-0.000865956
-0.000418741
-0.000823288
-0.000387781
-0.000784973
-0.000347082
-0.000749834
-0.000325839
-0.000714616
-0.000325718
-0.000674978
-0.000370975
-0.000640696
-0.000314316
-0.000233943
-0.000611575
-0.000866646
-0.000464663
-0.000824183
-0.000430244
-0.000786021
-0.000385244
-0.000751006
-0.000360854
-0.000715855
-0.000360869
-0.000676389
-0.000410441
-0.000642406
-0.000348298
-0.000263852
-0.000612497
-0.000864852
-0.000510598
-0.000822429
-0.000472667
-0.000784356
-0.000423317
-0.00074966
-0.000395549
-0.000715029
-0.0003955
-0.000676101
-0.000449369
-0.000642176
-0.000382224
-0.000294217
-0.000611811
-0.000865272
-0.000556386
-0.000822999
-0.00051494
-0.00078504
-0.000461276
-0.00075047
-0.000430119
-0.000715898
-0.000430072
-0.000677081
-0.000488187
-0.000643561
-0.000415743
-0.000325087
-0.000612692
-0.000863832
-0.000602163
-0.000821493
-0.000557279
-0.000783416
-0.000499352
-0.000748856
-0.00046468
-0.000714449
-0.000464478
-0.000676174
-0.000526462
-0.000643288
-0.000448629
-0.00035605
-0.000612324
-0.00086212
-0.000647007
-0.000820266
-0.000599133
-0.000782585
-0.000537033
-0.000748681
-0.000498584
-0.000715313
-0.000497846
-0.000678091
-0.000563684
-0.000646127
-0.000480593
-0.000387963
-0.000614215
-0.00502239
-0.00143791
-0.00430925
-0.00131227
-0.0036725
-0.00117379
-0.00309386
-0.00107722
-0.00256595
-0.00102575
-0.00204591
-0.00108372
-0.00156718
-0.000959328
-0.000779738
-0.0011754
-0.00532451
-0.00222825
-0.00460014
-0.00203665
-0.00394361
-0.00183032
-0.00333775
-0.00168308
-0.00277448
-0.00158903
-0.00223263
-0.00162557
-0.0017573
-0.00143466
-0.00126432
-0.00127272
-0.00505884
-0.00300956
-0.00435048
-0.00274501
-0.00371294
-0.00246785
-0.00312777
-0.00226826
-0.00259023
-0.00212656
-0.00206655
-0.00214924
-0.00159146
-0.00190975
-0.00167021
-0.00118557
-0.00520999
-0.00379457
-0.00449585
-0.00345915
-0.00385569
-0.00310801
-0.00326646
-0.00285748
-0.00271663
-0.0026764
-0.00218814
-0.00267773
-0.00171994
-0.00237795
-0.00214011
-0.00125004
-0.00509893
-0.00457611
-0.00439181
-0.00416627
-0.00375823
-0.00374159
-0.00317615
-0.00343956
-0.00263734
-0.00321521
-0.0021174
-0.00319767
-0.00164422
-0.00285113
-0.00257862
-0.00120571
-0.00514256
-0.00536362
-0.00442975
-0.00487908
-0.00379984
-0.00437151
-0.00322562
-0.00401377
-0.00268918
-0.00375166
-0.00217547
-0.00371138
-0.00171367
-0.00331294
-0.00304798
-0.00124431
-0.0051196
-0.00615015
-0.00441286
-0.00558582
-0.00378665
-0.00499772
-0.00321336
-0.00458706
-0.00267988
-0.00428513
-0.00216756
-0.00422371
-0.0016968
-0.00378369
-0.00351841
-0.00122637
-0.0232781
-0.00733024
-0.0222585
-0.00660547
-0.0212008
-0.00605537
-0.0203781
-0.00540983
-0.0197196
-0.00494356
-0.0189034
-0.00503991
-0.0179623
-0.00472478
-0.00463842
-0.0168423
-0.0223856
-0.00863464
-0.0213526
-0.00763854
-0.020505
-0.00690296
-0.0196628
-0.00625196
-0.0189204
-0.00568597
-0.0181514
-0.00580893
-0.0171553
-0.00572092
-0.00595759
-0.0158361
-0.0224185
-0.0100028
-0.0210637
-0.00899329
-0.0201134
-0.00785327
-0.0195795
-0.00678582
-0.0191483
-0.00611716
-0.0185572
-0.00640008
-0.0178529
-0.00642517
-0.00680491
-0.0170056
-0.021821
-0.0111119
-0.0209847
-0.00982957
-0.0205083
-0.00832965
-0.0200641
-0.00723003
-0.0198377
-0.00634352
-0.0196621
-0.00657576
-0.0191374
-0.00694987
-0.00746008
-0.0184822
-0.0216117
-0.011003
-0.0214258
-0.0100155
-0.0207012
-0.00905422
-0.0197811
-0.00815013
-0.0192136
-0.00691107
-0.019347
-0.00644231
-0.0200664
-0.00623051
-0.00731592
-0.0202105
0.0206313
0.0760327
-0.0144536
0.0250694
-0.0255201
0.00201223
-0.0255207
-0.00814953
-0.024052
-0.00837976
-0.0252727
-0.00522157
-0.0265432
-0.00496
-0.00820917
-0.02565
0.115614
0.107667
0.115429
0.0252547
0.12128
-0.00383909
0.117408
-0.00427749
0.0726254
0.0364029
0.0269537
0.0404501
0.00989225
0.0121015
-0.00907472
0.0107578
0.15755
0.124928
0.144521
0.0382837
0.13177
0.00891155
0.120925
0.00656819
0.0958006
0.0615269
0.065833
0.0704177
0.0548699
0.0230646
-0.0110415
0.0568367
0.155578
0.140745
0.134269
0.0595927
0.11318
0.0300007
0.104047
0.0157012
0.100227
0.0653468
0.0926348
0.0780099
0.0870733
0.028626
-0.00685326
0.0828851
0.152614
0.155229
0.132274
0.079933
0.112289
0.0499861
0.101231
0.0267587
0.0987883
0.0677897
0.0978946
0.0789036
0.0951527
0.0313679
-0.00116719
0.0894666
0.142794
0.167174
0.124291
0.0984359
0.104776
0.0695008
0.0934247
0.0381102
0.0941716
0.0670428
0.0954525
0.0776227
0.0935098
0.0333106
0.00380424
0.0885383
0.135994
0.177211
0.119417
0.115012
0.103632
0.0852865
0.092749
0.0489927
0.0917995
0.0679923
0.0934238
0.0759984
0.091869
0.0348654
0.00869092
0.0869824
0.125902
0.186014
0.111479
0.129435
0.0978547
0.0989107
0.088522
0.0583254
0.0870642
0.0694501
0.0895397
0.0735229
0.0877932
0.0366119
0.0130012
0.0834829
0.118842
0.192844
0.106786
0.141492
0.0965846
0.109112
0.0876069
0.0673031
0.0849521
0.0721049
0.0867117
0.0717632
0.0839995
0.0393241
0.0170491
0.0799516
0.110473
0.198778
0.100747
0.151217
0.0919668
0.117893
0.0843307
0.0749392
0.0810349
0.0754007
0.0827906
0.0700075
0.0803815
0.0417332
0.0207808
0.0766498
0.10418
0.20304
0.0966507
0.158747
0.0902876
0.124256
0.0829619
0.082265
0.0791115
0.0792511
0.0796493
0.0694697
0.0772325
0.04415
0.0242662
0.0737472
0.0975546
0.206386
0.0917243
0.164577
0.0865181
0.129462
0.0796008
0.0891823
0.076394
0.0824578
0.0761407
0.0697231
0.0739989
0.0462918
0.0275348
0.0707304
0.0922019
0.208574
0.0881098
0.168669
0.0840986
0.133473
0.0782927
0.0949882
0.0751107
0.0856398
0.0739586
0.0708752
0.071411
0.0488394
0.0308791
0.0680666
0.0867234
0.209792
0.0838685
0.171524
0.0806314
0.13671
0.0753616
0.100258
0.0724227
0.0885787
0.0711671
0.0721307
0.0687465
0.05126
0.0340206
0.0656051
0.0823659
0.209892
0.080764
0.173126
0.0782698
0.139204
0.0737262
0.104802
0.070897
0.0914079
0.0692268
0.0738009
0.0665686
0.0539181
0.0373147
0.0632746
0.0779646
0.209285
0.0770531
0.174038
0.0750059
0.141252
0.0710544
0.108753
0.0683272
0.0941351
0.0664351
0.0756931
0.0637672
0.056586
0.0403264
0.0607554
0.0745337
0.207934
0.0743393
0.174232
0.0727841
0.142807
0.0694504
0.112087
0.0667741
0.0968114
0.0644385
0.0780287
0.061398
0.0596265
0.0435422
0.0581821
0.0710443
0.206278
0.071122
0.174154
0.069809
0.14412
0.0669954
0.1149
0.0644315
0.0993753
0.0618923
0.0805679
0.0588077
0.0627111
0.0465726
0.0557773
0.0682839
0.204294
0.068649
0.173789
0.067691
0.145078
0.0653021
0.117289
0.0628651
0.101812
0.0601248
0.0833083
0.0568264
0.0660095
0.0498006
0.0535984
0.0653799
0.202308
0.0658299
0.173339
0.0649824
0.145925
0.0627691
0.119503
0.0605171
0.104064
0.0577361
0.0860892
0.0545922
0.0691534
0.0527571
0.0516358
0.0630109
0.200286
0.0635401
0.17281
0.062841
0.146624
0.0608251
0.121519
0.0586946
0.106195
0.0560147
0.0887691
0.0530463
0.0721218
0.0557173
0.0500861
0.0604699
0.198399
0.0610459
0.172234
0.0604019
0.147268
0.0584565
0.123464
0.0564404
0.108211
0.0538918
0.0913178
0.0511731
0.0748405
0.058406
0.0484844
0.0583865
0.196595
0.05891
0.17171
0.0582797
0.147899
0.056461
0.125283
0.054595
0.110077
0.0523264
0.0935864
0.0499221
0.0772448
0.0610258
0.0473023
0.0560804
0.194931
0.0566767
0.171114
0.0560973
0.148478
0.054371
0.127009
0.0526322
0.111816
0.0505856
0.095633
0.0484092
0.0794212
0.0634486
0.0459864
0.054191
0.193386
0.0546271
0.170678
0.0540559
0.149049
0.052552
0.128513
0.0510817
0.113286
0.0493602
0.0973545
0.0473988
0.0813827
0.0658465
0.045001
0.0521767
0.191917
0.0526874
0.170167
0.0522105
0.149526
0.0508641
0.129859
0.0495387
0.114611
0.0479453
0.0989479
0.0460888
0.0832392
0.0681335
0.0438017
0.0504654
0.190535
0.0508325
0.1698
0.050423
0.149936
0.0493323
0.13095
0.0482165
0.115727
0.0467787
0.100386
0.0449885
0.0850294
0.0703601
0.0427619
0.0487641
0.18917
0.0492317
0.169333
0.0489345
0.150233
0.0479769
0.131908
0.0469195
0.116784
0.0455482
0.101757
0.0438232
0.0867544
0.0725503
0.041633
0.0471572
0.187828
0.0475949
0.168895
0.047382
0.150446
0.0465968
0.132693
0.0456339
0.117747
0.0443518
0.103039
0.0426321
0.0884741
0.0746268
0.0405556
0.0456443
0.186478
0.0461699
0.168369
0.0460817
0.150534
0.0454067
0.133368
0.0444798
0.118674
0.0432589
0.10426
0.0416632
0.0900698
0.0766193
0.0396707
0.0441408
0.185152
0.0446798
0.16783
0.0446315
0.150582
0.0440203
0.133979
0.0431912
0.119503
0.042029
0.105422
0.0404335
0.0916653
0.0785036
0.0385492
0.0426895
0.183835
0.0433189
0.167201
0.0433882
0.150513
0.0428991
0.134468
0.0421285
0.120274
0.0410446
0.106506
0.039595
0.0931149
0.0803825
0.0377161
0.0412806
0.18254
0.0419243
0.166557
0.0420023
0.150435
0.041553
0.134917
0.0408703
0.120957
0.0398243
0.107552
0.0383663
0.0945729
0.0820881
0.0366607
0.0399158
0.181247
0.0406273
0.165846
0.0408215
0.150241
0.0405047
0.135234
0.0398455
0.121616
0.0389107
0.108487
0.0375939
0.0958897
0.0838517
0.0358303
0.0386537
0.179954
0.0393603
0.165139
0.0395472
0.150054
0.0392593
0.135522
0.038674
0.122201
0.0377505
0.10941
0.0364664
0.0971738
0.0853998
0.0349183
0.0373912
0.17868
0.0381425
0.164388
0.0384281
0.149768
0.0382312
0.135719
0.0376734
0.122759
0.0368774
0.110206
0.0357013
0.0983499
0.0870126
0.0340885
0.0362283
0.177413
0.0369751
0.163641
0.0372542
0.149489
0.0370921
0.135881
0.0366019
0.123249
0.0358088
0.111
0.034687
0.0994717
0.0884
0.0332997
0.0350568
0.176175
0.0358356
0.162862
0.0361729
0.149152
0.0360721
0.135982
0.0356368
0.123685
0.0349339
0.111702
0.0338873
0.100518
0.0898147
0.0324726
0.0339443
0.174941
0.0347416
0.162065
0.0350909
0.148802
0.0350308
0.136042
0.0346477
0.124068
0.0339801
0.11237
0.0329965
0.101502
0.0910706
0.0317406
0.0328705
0.17372
0.0336797
0.161255
0.0340519
0.14843
0.0340398
0.136054
0.0337162
0.124391
0.0330937
0.112992
0.0321834
0.102412
0.0922655
0.0309884
0.0318123
0.172506
0.0326453
0.160423
0.0330515
0.148024
0.0330785
0.136027
0.0328009
0.124669
0.0322278
0.113565
0.031374
0.103266
0.0933777
0.0302618
0.0308147
0.171298
0.0316493
0.159588
0.0320727
0.147601
0.0321326
0.135967
0.0318932
0.124908
0.0313728
0.114086
0.0305978
0.104041
0.0944133
0.0295622
0.0298327
0.170102
0.0306785
0.158742
0.0311273
0.147152
0.0312281
0.135867
0.0310336
0.125103
0.0305492
0.11457
0.0298126
0.104778
0.0953907
0.0288351
0.0289083
0.168909
0.0297524
0.157898
0.0302209
0.146683
0.0303297
0.135758
0.0301524
0.12528
0.0297376
0.114985
0.029078
0.105437
0.0963146
0.0281541
0.0279868
0.167726
0.0288341
0.157051
0.0293005
0.146217
0.0294678
0.13559
0.0293448
0.125403
0.0289271
0.115403
0.0282792
0.106085
0.0971751
0.0274187
0.0271227
0.16655
0.0279676
0.156206
0.0284595
0.145725
0.0286106
0.135439
0.0284934
0.12552
0.0281299
0.115766
0.0275442
0.106671
0.0979816
0.0267377
0.0262673
0.165388
0.0270988
0.155374
0.0275817
0.145242
0.0277781
0.135243
0.0276836
0.125615
0.0273261
0.116124
0.0267638
0.107233
0.0987522
0.0259932
0.0254384
0.164238
0.0262669
0.154546
0.0267542
0.144755
0.0269452
0.135052
0.0268761
0.125684
0.0265467
0.116453
0.0260122
0.107768
0.0994647
0.0252997
0.0246287
0.163113
0.0254404
0.153734
0.0259281
0.144267
0.0261269
0.134853
0.0260702
0.125741
0.0257846
0.116739
0.0252918
0.108261
0.100131
0.0246255
0.0238363
0.16201
0.0246368
0.152934
0.0251285
0.143776
0.025345
0.134637
0.0253271
0.125758
0.0250749
0.116991
0.024629
0.108707
0.100749
0.0240106
0.0230575
0.160927
0.0238475
0.152144
0.024352
0.143271
0.0245992
0.134389
0.0246124
0.125745
0.0243961
0.117207
0.0239928
0.10911
0.10132
0.0234218
0.103252
0.155772
0.107116
0.14828
0.109736
0.140651
0.111187
0.132938
0.111566
0.125366
0.110927
0.117847
0.109395
0.110642
0.103639
0.107076
0.0887358
0.151097
0.0923282
0.144688
0.0948762
0.138103
0.0964405
0.131374
0.0971065
0.1247
0.0969206
0.118033
0.0960153
0.111547
0.105248
0.0944059
0.0761186
0.147015
0.0793226
0.141484
0.0816681
0.135757
0.0831991
0.129843
0.0839856
0.123914
0.0840734
0.117945
0.0835594
0.112061
0.106275
0.0825326
0.0653005
0.143559
0.0680475
0.138737
0.0701035
0.133701
0.0714897
0.128457
0.0722688
0.123135
0.0724739
0.11774
0.072172
0.112363
0.107019
0.071428
0.0559352
0.140747
0.0581808
0.136491
0.0598763
0.132006
0.0610334
0.127299
0.061695
0.122473
0.0618926
0.117542
0.0616781
0.112578
0.107609
0.0610882
0.0475171
0.138538
0.0492747
0.134733
0.0505931
0.130687
0.0514805
0.126412
0.0519676
0.121986
0.052081
0.117429
0.051859
0.1128
0.10813
0.051338
0.0405658
0.137064
0.0416997
0.1336
0.0425114
0.129876
0.0430094
0.125914
0.0432097
0.121786
0.0431312
0.117507
0.0427987
0.113132
0.108688
0.042241
0.0322324
0.135978
0.0330391
0.132793
0.033579
0.129336
0.0338699
0.125623
0.0339346
0.121721
0.0337806
0.117661
0.0334312
0.113481
0.10921
0.0329094
0.0299811
0.135854
0.0299003
0.132874
0.0296288
0.129607
0.0291803
0.126072
0.0285835
0.122318
0.0278622
0.118383
0.0270364
0.114307
0.110119
0.0261269
0.0166463
0.0161273
0.015555
0.0149355
0.0142816
0.0136081
0.0129248
0.0122394
-0.000557088
-5.49845e-05
-0.000482273
-7.48152e-05
-0.000410453
-7.18201e-05
-0.00031542
-9.50328e-05
-0.00021096
-0.00010446
-0.000107219
-0.000103742
-1.93869e-05
-8.78317e-05
3.42707e-05
-5.36577e-05
5.89521e-05
-2.46813e-05
7.16551e-05
-1.2703e-05
7.32677e-05
-1.61261e-06
6.41918e-05
9.07594e-06
6.11097e-05
3.08205e-06
8.69775e-05
-2.58677e-05
0.000142571
-5.55935e-05
0.000219801
-7.723e-05
0.000298927
-7.91263e-05
0.000357756
-5.88285e-05
0.000406737
-4.89815e-05
0.000450162
-4.34244e-05
0.000483404
-3.32428e-05
0.000511951
-2.85465e-05
0.000534604
-2.26535e-05
0.000560789
-2.61847e-05
0.00059842
-3.7631e-05
0.00063576
-3.73403e-05
0.000672399
-3.66383e-05
0.000708748
-3.63488e-05
0.000743954
-3.52063e-05
0.000778381
-3.44269e-05
0.000813194
-3.48136e-05
0.000848673
-3.54785e-05
0.000889037
-4.03641e-05
0.000933276
-4.42392e-05
0.000985426
-5.21502e-05
0.00104418
-5.87554e-05
0.00110439
-6.02047e-05
0.00116584
-6.14565e-05
0.00122515
-5.93062e-05
0.0012813
-5.61468e-05
0.00133482
-5.35198e-05
0.00139292
-5.81032e-05
0.00145806
-6.51365e-05
0.00152315
-6.50906e-05
0.00159248
-6.9338e-05
0.00166537
-7.28888e-05
0.00173876
-7.33876e-05
0.00179454
-5.57802e-05
0.00183339
-3.88541e-05
0.00184091
-7.51287e-06
0.0017869
5.40041e-05
0.00165382
0.000133085
0.00142109
0.000232725
0.0012367
0.000184396
0.00118799
4.87068e-05
0.00120609
-1.8102e-05
0.00123806
-3.19695e-05
0.00128223
-4.41672e-05
0.00134141
-5.91802e-05
0.00143037
-8.89602e-05
0.00155058
-0.000120209
0.00174434
-0.000193765
0.00195547
-0.000211128
0.00206516
-0.000109691
0.00203701
2.81575e-05
0.00190999
0.00012702
0.00175011
0.000159873
0.00164571
0.000104402
0.00163589
9.82136e-06
0.0016545
-1.86146e-05
0.00169596
-4.14553e-05
0.00175959
-6.3631e-05
0.00183405
-7.4461e-05
0.00189958
-6.55325e-05
0.00195013
-5.05422e-05
0.00198971
-3.95804e-05
0.00202431
-3.46057e-05
0.00205729
-3.29788e-05
0.00209631
-3.90162e-05
0.00213863
-4.23224e-05
0.00218422
-4.55918e-05
0.00222572
-4.14988e-05
0.00226563
-3.99102e-05
0.00229344
-2.78069e-05
0.00231133
-1.78983e-05
0.00232665
-1.5312e-05
0.0023489
-2.22553e-05
0.00237741
-2.85099e-05
0.00239222
-1.48069e-05
0.00240289
-1.06691e-05
0.00241018
-7.29293e-06
0.0024129
-2.72369e-06
0.0024206
-7.69791e-06
0.00244456
-2.39581e-05
0.00248015
-3.55862e-05
0.00252729
-4.71443e-05
0.00257063
-4.33425e-05
0.0026048
-3.41622e-05
0.00262873
-2.39367e-05
0.0026371
-8.36299e-06
0.00264154
-4.44334e-06
0.00263046
1.10817e-05
0.00261678
1.36733e-05
0.00259856
1.82189e-05
0.0025827
1.58645e-05
0.00257181
1.08913e-05
0.00256593
5.87453e-06
0.00256596
-2.20248e-08
0.0025647
1.25598e-06
0.00255231
1.23908e-05
0.00252878
2.35275e-05
0.0025077
2.10816e-05
0.00251379
-6.08678e-06
0.00253569
-2.19045e-05
0.00257866
-4.29685e-05
0.002635
-5.63406e-05
0.00269214
-5.71415e-05
0.0027394
-4.72532e-05
0.00277369
-3.42921e-05
0.00279798
-2.42965e-05
0.00281634
-1.83554e-05
0.00283212
-1.57846e-05
0.00284785
-1.57242e-05
0.00286389
-1.60369e-05
0.00287913
-1.52448e-05
0.00289262
-1.34858e-05
0.00290382
-1.12033e-05
0.00291239
-8.57031e-06
0.00291819
-5.80441e-06
0.00292181
-3.61558e-06
0.00292302
-1.21373e-06
0.00292082
2.20597e-06
0.0029135
7.31973e-06
0.00290262
1.08735e-05
0.00288725
1.53762e-05
0.00286891
1.83424e-05
0.00284976
1.91439e-05
0.00283062
1.91449e-05
0.00281117
1.94502e-05
0.00279495
1.62153e-05
0.00278445
1.04986e-05
0.00277669
7.75936e-06
0.00276817
8.52426e-06
0.00275968
8.49204e-06
0.00275076
8.91572e-06
0.00274844
2.32129e-06
0.00275518
-6.73862e-06
0.00277431
-1.91278e-05
0.00280266
-2.83568e-05
0.00282839
-2.57237e-05
0.00284416
-1.57721e-05
0.00285115
-6.99573e-06
0.0028528
-1.641e-06
0.00285394
-1.14478e-06
0.00285691
-2.97326e-06
-7.01691e-06
-0.000561345
-0.000109001
-0.000487379
-0.00014878
-0.000414028
-0.000145171
-0.000319102
-0.000189958
-0.000214065
-0.000209497
-0.000110848
-0.000206959
-2.47244e-05
-0.000173955
2.6392e-05
-0.000104774
4.87131e-05
-4.70024e-05
5.83621e-05
-2.2352e-05
5.67269e-05
2.25986e-08
4.61229e-05
1.96799e-05
4.53165e-05
3.88846e-06
7.48653e-05
-5.54166e-05
0.000132587
-0.000113315
0.000209615
-0.000154258
0.000288896
-0.000158408
0.00035165
-0.000121582
0.000405027
-0.000102358
0.000452955
-9.13527e-05
0.000490773
-7.10606e-05
0.000520497
-5.82702e-05
0.000543072
-4.52282e-05
0.00056848
-5.15933e-05
0.000603658
-7.28085e-05
0.000640461
-7.41439e-05
0.000676169
-7.2346e-05
0.000711989
-7.21691e-05
0.000746975
-7.01918e-05
0.000781198
-6.86495e-05
0.000815425
-6.90409e-05
0.000850784
-7.0838e-05
0.000890284
-7.98633e-05
0.000934755
-8.87108e-05
0.000986379
-0.000103774
0.00104455
-0.000116929
0.00110436
-0.000120008
0.00116502
-0.000122126
0.00122444
-0.000118721
0.00127979
-0.000111498
0.00133246
-0.00010619
0.0013892
-0.000114842
0.00145254
-0.000128475
0.00151765
-0.000130203
0.00158671
-0.000138395
0.00166076
-0.000146938
0.00173435
-0.000146981
0.00179322
-0.000114652
0.00183475
-8.03791e-05
0.00184607
-1.88332e-05
0.00179767
0.000102396
0.00166932
0.000261438
0.00143434
0.000467711
0.0012442
0.000374527
0.00119649
9.64187e-05
0.00121367
-3.52801e-05
0.00124647
-6.47648e-05
0.00129026
-8.79623e-05
0.0013496
-0.000118519
0.0014359
-0.000175259
0.00155702
-0.000241332
0.00174417
-0.000380917
0.00195376
-0.00042072
0.00205866
-0.000214581
0.00203144
5.53744e-05
0.00190495
0.000253507
0.00173917
0.000325659
0.00163347
0.000210096
0.00162033
2.29654e-05
0.0016411
-3.9387e-05
0.00168379
-8.41443e-05
0.00174917
-0.000129012
0.00182693
-0.000152217
0.00189568
-0.000134288
0.00194785
-0.000102716
0.00198875
-8.04772e-05
0.00202447
-7.03197e-05
0.00205908
-6.75917e-05
0.00209818
-7.81215e-05
0.00214193
-8.60639e-05
0.00218853
-9.21976e-05
0.00223206
-8.50303e-05
0.00227177
-7.96136e-05
0.00230036
-5.63961e-05
0.00231866
-3.61993e-05
0.00233444
-3.10935e-05
0.00235563
-4.34446e-05
0.00238414
-5.70224e-05
0.00240135
-3.20163e-05
0.00241194
-2.12597e-05
0.00241806
-1.34174e-05
0.00242236
-7.01738e-06
0.00242879
-1.41329e-05
0.00245197
-4.71318e-05
0.00248729
-7.09111e-05
0.00253343
-9.32853e-05
0.00257817
-8.80835e-05
0.00261467
-7.06566e-05
0.00264166
-5.09259e-05
0.00265447
-2.11776e-05
0.00265911
-9.07973e-06
0.00265072
1.94712e-05
0.00263752
2.6871e-05
0.00261965
3.60916e-05
0.00260275
3.2765e-05
0.0025906
2.30376e-05
0.00258384
1.26337e-05
0.00258188
1.93882e-06
0.0025795
3.64153e-06
0.00256606
2.58227e-05
0.00254236
4.72326e-05
0.00252207
4.13716e-05
0.00252696
-1.09755e-05
0.00254852
-4.34703e-05
0.00259164
-8.60873e-05
0.00264826
-0.00011296
0.00270672
-0.000115595
0.00275538
-9.59134e-05
0.0027913
-7.02179e-05
0.00281702
-5.00177e-05
0.0028365
-3.78282e-05
0.0028533
-3.2589e-05
0.00286999
-3.24141e-05
0.00288725
-3.32995e-05
0.00290419
-3.21799e-05
0.00291946
-2.87544e-05
0.00293229
-2.40367e-05
0.00294228
-1.8564e-05
0.00294945
-1.29722e-05
0.00295437
-8.53799e-06
0.00295598
-2.81655e-06
0.00295437
3.81474e-06
0.00294774
1.39504e-05
0.0029371
2.15052e-05
0.00292219
3.02863e-05
0.00290399
3.65445e-05
0.00288469
3.84455e-05
0.00286566
3.81762e-05
0.00284697
3.81389e-05
0.00283102
3.21673e-05
0.00281922
2.23012e-05
0.00280853
1.84465e-05
0.00279593
2.11285e-05
0.00278137
2.30423e-05
0.00276605
2.42385e-05
0.00275856
9.80865e-06
0.00276206
-1.02385e-05
0.00277847
-3.55372e-05
0.00280532
-5.52017e-05
0.00283018
-5.05883e-05
0.00284537
-3.09567e-05
0.00285194
-1.35683e-05
0.00285353
-3.22735e-06
0.00285431
-1.9292e-06
0.00285702
-5.68287e-06
-1.39174e-05
-0.000558008
-0.000162839
-0.000483713
-0.000223075
-0.000410186
-0.000218699
-0.000316588
-0.000283556
-0.000211857
-0.000314229
-0.000108563
-0.000310252
-2.09752e-05
-0.000261543
3.26368e-05
-0.000158386
5.75079e-05
-7.18735e-05
7.04214e-05
-3.52655e-05
7.29935e-05
-2.54953e-06
6.41676e-05
2.85058e-05
6.07118e-05
7.34421e-06
8.63899e-05
-8.10947e-05
0.000141987
-0.000168912
0.000218667
-0.000230938
0.000296596
-0.000236337
0.000356022
-0.000181009
0.000405261
-0.000151598
0.000448485
-0.000134577
0.000483157
-0.000105733
0.000511692
-8.68043e-05
0.000535368
-6.89046e-05
0.000562765
-7.899e-05
0.000599173
-0.000109216
0.000637039
-0.000112011
0.000673351
-0.000108658
0.000709571
-0.000108389
0.000745023
-0.000105644
0.000779625
-0.000103252
0.000814099
-0.000103515
0.000849817
-0.000106556
0.00088929
-0.000119336
0.000933893
-0.000133314
0.000985547
-0.000155427
0.00104369
-0.000175068
0.00110408
-0.000180404
0.00116518
-0.000183229
0.00122502
-0.000178554
0.00128104
-0.000167515
0.00133458
-0.000159738
0.00139195
-0.000172212
0.00145561
-0.000192134
0.00152144
-0.000196026
0.00158987
-0.00020683
0.00166497
-0.000222039
0.00173669
-0.000218699
0.00179131
-0.000169269
0.00182757
-0.00011664
0.00183426
-2.55288e-05
0.00178521
0.000151448
0.0016543
0.00039235
0.00142242
0.000699589
0.00123722
0.00055973
0.00119175
0.000141886
0.00120799
-5.15193e-05
0.00124018
-9.69592e-05
0.00128372
-0.000131498
0.00134381
-0.000178613
0.00143036
-0.000261804
0.00155426
-0.00036523
0.00174173
-0.000568394
0.001954
-0.000632989
0.00206083
-0.000321406
0.00203376
8.24415e-05
0.0019106
0.00037667
0.00174549
0.000490764
0.00164282
0.000312771
0.00162979
3.59959e-05
0.00165087
-6.04693e-05
0.00169261
-0.000125882
0.00175623
-0.000192635
0.00183168
-0.000227665
0.00189841
-0.000201014
0.00194867
-0.00015298
0.00198823
-0.000120039
0.0020228
-0.000104888
0.00205677
-0.000101564
0.00209501
-0.000116356
0.00213826
-0.000129315
0.00218417
-0.000138109
0.00222734
-0.000128203
0.00226582
-0.000118086
0.00229422
-8.47992e-05
0.00231236
-5.43429e-05
0.00232822
-4.69524e-05
0.00234952
-6.47436e-05
0.0023766
-8.41011e-05
0.00239316
-4.85764e-05
0.00240269
-3.07939e-05
0.00240857
-1.92949e-05
0.00241302
-1.14691e-05
0.00242062
-2.17352e-05
0.00244406
-7.05624e-05
0.00248047
-0.00010733
0.00252656
-0.000139371
0.0025706
-0.000132119
0.00260496
-0.00010502
0.00262874
-7.47118e-05
0.0026396
-3.20349e-05
0.00264187
-1.13497e-05
0.00263387
2.7476e-05
0.00261981
4.09225e-05
0.00260221
5.37014e-05
0.00258627
4.86976e-05
0.00257511
3.4198e-05
0.00256951
1.82331e-05
0.0025682
3.24881e-06
0.00256623
5.61201e-06
0.0025531
3.89566e-05
0.00252915
7.11846e-05
0.00251045
6.00651e-05
0.00251531
-1.5835e-05
0.00253762
-6.57744e-05
0.00258083
-0.000129299
0.00263707
-0.000169197
0.00269428
-0.000172809
0.00274136
-0.000142998
0.00277601
-0.000104867
0.00280072
-7.47258e-05
0.00281938
-5.6484e-05
0.00283548
-4.86949e-05
0.0028514
-4.83277e-05
0.00286764
-4.95412e-05
0.00288325
-4.77957e-05
0.0028971
-4.2601e-05
0.00290863
-3.55619e-05
0.00291751
-2.74507e-05
0.00292382
-1.92759e-05
0.00292797
-1.26881e-05
0.00292921
-4.06161e-06
0.00292741
5.6126e-06
0.00292092
2.04458e-05
0.00291033
3.2094e-05
0.00289585
4.47643e-05
0.0028783
5.40936e-05
0.00285946
5.72834e-05
0.00284069
5.69489e-05
0.00282197
5.68561e-05
0.00280546
4.86772e-05
0.00279293
3.48336e-05
0.0027816
2.9778e-05
0.00276863
3.40983e-05
0.00275447
3.72053e-05
0.00274298
3.57223e-05
0.00274068
1.21155e-05
0.00275093
-2.04917e-05
0.00277552
-6.01249e-05
0.00280666
-8.63485e-05
0.00283177
-7.56899e-05
0.00284671
-4.59023e-05
0.00285313
-1.99827e-05
0.0028547
-4.80551e-06
0.00285524
-2.45995e-06
0.00285755
-8.00149e-06
-2.04542e-05
-0.000559158
-0.000217187
-0.00048543
-0.000296803
-0.000411494
-0.000292635
-0.000317722
-0.000377327
-0.000212836
-0.000419115
-0.000109587
-0.000413502
-2.32187e-05
-0.000347911
2.81478e-05
-0.000209753
5.10051e-05
-9.47308e-05
6.09629e-05
-4.52233e-05
5.92597e-05
-8.46308e-07
4.90061e-05
3.87594e-05
4.8958e-05
7.39228e-06
7.88528e-05
-0.000110989
0.000136876
-0.000226935
0.000214151
-0.000308213
0.000292251
-0.000314437
0.000353532
-0.00024229
0.000405924
-0.000203989
0.000452601
-0.000181254
0.000489991
-0.000143123
0.000518809
-0.000115622
0.000541292
-9.13877e-05
0.000567081
-0.000104779
0.000601923
-0.000144058
0.000638916
-0.000149004
0.000674741
-0.000144483
0.000710624
-0.000144272
0.000745825
-0.000140845
0.000780227
-0.000137655
0.000814608
-0.000137896
0.000850351
-0.000142299
0.000889742
-0.000158727
0.000934313
-0.000177885
0.000985895
-0.000207009
0.00104384
-0.000233009
0.00110422
-0.000240792
0.00116517
-0.000244171
0.00122486
-0.000238245
0.00128069
-0.000223348
0.00133385
-0.0002129
0.00139091
-0.00022927
0.00145459
-0.000255817
0.00152105
-0.000262481
0.00158955
-0.000275329
0.00166441
-0.000296899
0.00173656
-0.000290854
0.00179474
-0.000227451
0.00183502
-0.000156916
0.00184257
-3.30764e-05
0.00179571
0.000198309
0.00166513
0.000522923
0.00143053
0.000934197
0.00124246
0.000747799
0.00119731
0.000187038
0.00121344
-6.76539e-05
0.00124568
-0.000129196
0.001289
-0.000174822
0.00134842
-0.000238028
0.00143339
-0.000346774
0.00155633
-0.000488175
0.00174172
-0.000753783
0.0019511
-0.000842368
0.00205534
-0.000425644
0.00202719
0.000110586
0.0019054
0.00049846
0.00173951
0.000656659
0.00163776
0.000414519
0.0016254
4.8352e-05
0.00164723
-8.22955e-05
0.00168992
-0.000168576
0.00175451
-0.000257225
0.00183074
-0.000303893
0.00189839
-0.000268665
0.00194954
-0.000204126
0.00199009
-0.000160587
0.00202541
-0.000140211
0.00205991
-0.000136068
0.0020982
-0.000154641
0.0021414
-0.000172512
0.00218728
-0.00018399
0.00223097
-0.000171893
0.00226976
-0.000156884
0.00229846
-0.000113499
0.0023168
-7.26781e-05
0.00233274
-6.28894e-05
0.00235427
-8.62798e-05
0.00238203
-0.000111859
0.00240054
-6.70914e-05
0.00241118
-4.14344e-05
0.00241758
-2.56935e-05
0.00242137
-1.5261e-05
0.00242853
-2.88932e-05
0.00245061
-9.26414e-05
0.00248615
-0.000142867
0.00253145
-0.00018467
0.0025762
-0.000176869
0.00261223
-0.00014105
0.00263786
-0.000100343
0.00265071
-4.48845e-05
0.00265311
-1.3745e-05
0.0026456
3.49769e-05
0.00263164
5.48836e-05
0.00261387
7.1474e-05
0.00259735
6.5218e-05
0.0025856
4.59529e-05
0.00257966
2.41659e-05
0.00257803
4.8846e-06
0.00257561
8.02843e-06
0.00256234
5.22249e-05
0.00253747
9.60574e-05
0.00251828
7.92507e-05
0.00252181
-1.93617e-05
0.00254355
-8.75182e-05
0.00258632
-0.000172069
0.00264302
-0.000225891
0.00270133
-0.00023112
0.00274961
-0.000191278
0.0027851
-0.000140358
0.00281039
-0.000100014
0.00282944
-7.55403e-05
0.00284589
-6.51435e-05
0.00286215
-6.45859e-05
0.00287889
-6.62777e-05
0.00289524
-6.41539e-05
0.00290992
-5.72752e-05
0.00292223
-4.78771e-05
0.00293173
-3.69441e-05
0.00293824
-2.57918e-05
0.00294214
-1.65827e-05
0.00294307
-4.98936e-06
0.00294073
7.94528e-06
0.00293349
2.7687e-05
0.00292172
4.3864e-05
0.00290595
6.05352e-05
0.00288708
7.29619e-05
0.00286671
7.76533e-05
0.00284604
7.76217e-05
0.00282489
7.8003e-05
0.00280458
6.89905e-05
0.00278699
5.24208e-05
0.00277052
4.62542e-05
0.00275326
5.13515e-05
0.00273747
5.29941e-05
0.002728
4.52012e-05
0.00272908
1.10339e-05
0.00274436
-3.57717e-05
0.00277417
-8.99393e-05
0.00280728
-0.000119459
0.0028324
-0.00010081
0.00284745
-6.09449e-05
0.00285397