/*--------------------------------*- C++ -*----------------------------------*\
| =========                 |                                                 |
| \\      /  F ield         | OpenFOAM: The Open Source CFD Toolbox           |
|  \\    /   O peration     | Version:  v1912                                 |
|   \\  /    A nd           | Website:  www.openfoam.com                      |
|    \\/     M anipulation  |                                                 |
\*---------------------------------------------------------------------------*/
FoamFile
{
    version     2.0;
    format      ascii;
    class       volScalarField;
    location    "50";
    object      nut;
}
// * * * * * * * * * * * * * * * * * * * * * * * * * * * * * * * * * * * * * //

dimensions      [0 2 -1 0 0 0 0];


internalField   nonuniform List<scalar> 
14268
(
9.42943e-10
1.77449e-09
1.77144e-09
1.56139e-09
1.17168e-09
7.34315e-10
4.08848e-10
2.25685e-10
1.72152e-09
5.40676e-06
5.52036e-06
8.41868e-06
2.01712e-05
3.94303e-05
5.44169e-05
5.82596e-05
5.70426e-05
5.10677e-05
3.97786e-05
1.89476e-05
4.08992e-05
6.87946e-05
6.92236e-05
6.31008e-05
5.23154e-05
2.47201e-05
3.32851e-05
6.14029e-05
7.59291e-05
7.61162e-05
6.77979e-05
6.52945e-05
6.9402e-05
7.71141e-05
8.61347e-05
0.000100499
0.000136003
0.000141775
9.95464e-05
7.95596e-05
0.000140895
0.000121879
0.000151716
0.000201031
0.000207373
0.000254025
0.000314863
0.000289577
0.000166943
0.000129429
9.4742e-05
9.49006e-05
0.000254368
0.000198561
0.000234763
0.000288528
0.000286002
0.000254187
0.000309375
0.000315688
0.000315366
0.000235642
0.000134543
0.000128772
9.31947e-05
5.46481e-05
0.000184966
0.000139961
0.000110649
8.63407e-05
0.000120491
0.000169863
0.000230069
0.000245213
0.000129491
0.000147357
0.000281045
0.000312762
0.000154328
0.000129794
0.000130123
0.000122457
0.0001208
0.000136927
0.000155609
0.000125493
0.000167422
0.000193743
0.000169654
0.000210008
0.000275026
0.000273254
0.000235329
0.000239972
0.000226562
0.00018446
0.000166249
0.000169108
0.000320599
0.000316512
0.00020018
0.00010062
0.000118969
0.00010839
5.70875e-08
9.34648e-08
6.45698e-08
3.28504e-08
1.43799e-08
7.25968e-09
3.75824e-09
3.58288e-09
2.40911e-07
0.000106297
6.44985e-05
7.55695e-05
0.000179654
0.00036615
0.000505462
0.000537952
0.000536928
0.000508801
0.000402903
9.30514e-05
0.000243805
0.000615125
0.000595242
0.000535905
0.000427313
0.000111674
0.000143208
0.000428357
0.000630535
0.000623014
0.000529488
0.000517803
0.000595301
0.000686735
0.00080676
0.000979286
0.00141751
0.00138398
0.000920111
0.000639489
0.00118806
0.00127283
0.00112578
0.00135765
0.00133592
0.00229439
0.00358378
0.00275352
0.000937729
0.00111402
0.000821289
0.000756473
0.00248094
0.000964132
0.00118572
0.00179025
0.00196317
0.00220266
0.00206498
0.00230204
0.00250356
0.00139937
0.000642996
0.000831148
0.000707834
0.000302985
0.00220616
0.00116155
0.000669855
0.000315245
0.000496436
0.00129222
0.0020489
0.00239127
0.000819072
0.00114043
0.00261708
0.00318005
0.00172516
0.00113639
0.00116103
0.00113398
0.0011935
0.00145028
0.000862342
0.000619146
0.000960883
0.00168602
0.00094629
0.00125819
0.00186479
0.00220728
0.00209035
0.00238253
0.00223158
0.00142333
0.00139024
0.000957911
0.00229522
0.00231964
0.00125047
0.000785583
0.00122228
0.000977677
2.05145e-07
2.55144e-07
2.23658e-07
1.45268e-07
6.80043e-08
3.15209e-08
1.41172e-08
2.08471e-08
5.53934e-06
0.000311132
0.000176504
0.000173528
0.000420021
0.000933343
0.00131627
0.00138243
0.00139756
0.00127247
0.000967675
0.000201662
0.000555883
0.00140734
0.00122008
0.00104288
0.000840374
0.000313746
0.000350993
0.00096974
0.0013202
0.00128242
0.000976886
0.000912859
0.00108366
0.00141262
0.00178349
0.00224657
0.00335441
0.00315065
0.002144
0.00137441
0.00250592
0.00379182
0.00305764
0.0025041
0.0029474
0.00541508
0.00577719
0.00397378
0.0015232
0.00169961
0.00110052
0.00143452
0.00428697
0.00181496
0.00256513
0.00465363
0.00410387
0.00487705
0.0044354
0.00534455
0.00635269
0.00316075
0.00123208
0.00133217
0.00221948
0.00062339
0.00667821
0.00365566
0.00111222
0.000838779
6.5716e-05
0.00182781
0.00465942
0.00441853
0.00251517
0.00356315
0.00590002
0.00701138
0.00525579
0.00324797
0.00437563
0.0057052
0.00644961
0.00840677
0.0021043
0.00167992
0.00179037
0.00580136
0.00213138
0.0017818
0.00271162
0.00295056
0.00280308
0.00452419
0.00558847
0.00254349
0.00232019
0.00166358
0.00922008
0.00546026
0.00271403
0.00310677
0.00428055
0.00322764
2.91874e-07
3.27139e-07
3.03827e-07
2.4109e-07
1.45979e-07
8.0069e-08
3.67318e-08
1.0107e-07
5.15521e-05
0.000546947
0.00030317
0.000246771
0.000691535
0.00175069
0.00239415
0.00240612
0.00252778
0.00226526
0.0016022
0.000526603
0.000964419
0.00201255
0.00180143
0.00156819
0.00116855
0.000541888
0.000649725
0.00165149
0.00198929
0.0019237
0.00142328
0.00123032
0.00134192
0.00177569
0.00230923
0.00314566
0.00508694
0.00469047
0.00313541
0.00215145
0.00363017
0.00561571
0.00476785
0.00324378
0.00493069
0.00746655
0.00600535
0.00313881
0.00153174
0.00300692
0.000886686
0.00145736
0.0063024
0.00282232
0.00754227
0.0128083
0.00658478
0.0050832
0.00675669
0.0090601
0.0150679
0.00505914
0.00221276
0.00158253
0.00704671
0.000736314
0.011893
0.00689062
0.00340135
0.00420773
0.000374485
0.0011041
0.00329382
0.00374527
0.00516282
0.00565654
0.00513984
0.00647247
0.00572846
0.00728317
0.0147191
0.0148398
0.0180054
0.0186674
0.00661807
0.00333759
0.00677511
0.010129
0.00841571
0.00441736
0.00483891
0.00359469
0.00254012
0.00481837
0.008835
0.00297815
0.00209079
0.00287034
0.0183543
0.0148046
0.00347668
0.00668897
0.00786308
0.00553598
3.26469e-07
3.60181e-07
3.35333e-07
2.84633e-07
2.09892e-07
1.38912e-07
7.63241e-08
4.52938e-07
0.000183812
0.00077595
0.000433736
0.000298285
0.00104462
0.00279213
0.00338767
0.00321224
0.00368863
0.00365394
0.002369
0.0012462
0.00164919
0.00248115
0.00246869
0.0020978
0.00150327
0.000898209
0.00106019
0.00238136
0.00271517
0.00266023
0.00201646
0.00163565
0.00169098
0.00214596
0.002675
0.00406201
0.0071029
0.00648814
0.00393996
0.00287531
0.00466938
0.00646106
0.00653382
0.00414344
0.00763457
0.00935561
0.00599614
0.00274465
0.00167923
0.00597365
0.000548855
0.00360482
0.013448
0.00557389
0.0135873
0.0162377
0.0100389
0.00487143
0.00798651
0.013582
0.0257503
0.00728259
0.0039367
0.00535474
0.0183611
0.000680901
0.0150144
0.00681897
0.0114476
0.00716404
0.0041697
0.00102157
0.00224406
0.00590057
0.00808379
0.00280491
0.00449936
0.00650854
0.00763302
0.0137421
0.0198857
0.0129194
0.0171249
0.0214943
0.0120486
0.00582898
0.0141498
0.00821397
0.0141112
0.0127012
0.00999934
0.00765193
0.00257745
0.00441276
0.0111153
0.00365048
0.00159517
0.00686971
0.0199458
0.025396
0.00313922
0.00754655
0.00791569
0.00683297
3.44588e-07
4.0313e-07
3.70419e-07
3.15575e-07
2.45397e-07
1.93358e-07
1.24962e-07
1.66022e-06
0.000358491
0.00098393
0.000562618
0.000352834
0.00162718
0.00360874
0.00390963
0.0034864
0.0043404
0.00522823
0.00379458
0.00188063
0.0023001
0.00282957
0.00309921
0.00259346
0.00178835
0.00117403
0.00135365
0.00283116
0.0034442
0.00336123
0.00267341
0.0021389
0.00211416
0.00257769
0.00308168
0.0052572
0.00979403
0.0093343
0.004638
0.00290925
0.00541515
0.00588494
0.00653182
0.00503112
0.00958856
0.0105039
0.0073192
0.00976267
0.00430285
0.00715351
0.000551981
0.00818208
0.0227753
0.0110479
0.0122146
0.0155043
0.013582
0.00383968
0.00870611
0.0210581
0.0267306
0.0135898
0.00912273
0.011778
0.0299944
0.0028835
0.013594
0.00601543
0.0182321
0.00597125
0.0103685
0.000613346
0.00214103
0.00597033
0.0084139
0.00171979
0.00465539
0.00582345
0.0141451
0.0225468
0.0182855
0.0108439
0.0146541
0.0175964
0.0162504
0.00660733
0.0147296
0.00630182
0.0167845
0.0186737
0.00900082
0.00950113
0.00328216
0.00468207
0.0126197
0.00515812
0.00217008
0.0110142
0.0166937
0.0325463
0.00174391
0.00548426
0.005482
0.00420849
3.75613e-07
5.36506e-07
4.66762e-07
3.58825e-07
2.66339e-07
2.3042e-07
1.74076e-07
4.58149e-06
0.000538307
0.00116786
0.000688566
0.000495669
0.00221467
0.00400126
0.00430835
0.00364954
0.00456203
0.0065809
0.00547773
0.00210083
0.00302582
0.00323256
0.00377328
0.00306466
0.00202418
0.00145375
0.00187407
0.003295
0.00408381
0.00387778
0.00330062
0.00283142
0.00279
0.00317314
0.00365315
0.00738612
0.0143617
0.0138815
0.00634357
0.00251253
0.00592515
0.00525075
0.00622293
0.00678779
0.012046
0.0118224
0.0206761
0.0196904
0.00863035
0.00632238
0.00139521
0.0122975
0.022981
0.0162057
0.0106687
0.0149708
0.0147773
0.00435265
0.0106108
0.0309235
0.0272293
0.0242745
0.0134416
0.0110308
0.0357784
0.00879436
0.0120867
0.00891956
0.0194637
0.00582232
0.0134592
0.000252879
0.00287057
0.00623233
0.00597591
0.00152496
0.00598475
0.00576093
0.0201932
0.0306157
0.016131
0.00845642
0.0111415
0.0157588
0.0177458
0.00488986
0.0110581
0.00687642
0.0176274
0.0182202
0.00767374
0.00819695
0.00484675
0.00700935
0.0143536
0.00769035
0.00552697
0.0133677
0.0165052
0.0398487
0.00154575
0.00452747
0.00367734
0.00236814
4.53062e-07
8.95396e-07
7.24287e-07
4.52486e-07
2.96027e-07
2.54418e-07
2.25116e-07
1.00403e-05
0.000717855
0.00132928
0.00080972
0.000675478
0.00248125
0.00438612
0.00491496
0.00378473
0.00467183
0.00741362
0.00634445
0.00207872
0.00337689
0.00372743
0.00436491
0.00352343
0.00220081
0.00162109
0.00228768
0.00366184
0.00451662
0.00409951
0.00370962
0.0036067
0.00381524
0.00417633
0.0046766
0.0109021
0.0197807
0.018413
0.00982107
0.00259056
0.00779097
0.00433755
0.00528321
0.00920894
0.0149346
0.0132431
0.0258569
0.0243266
0.00520242
0.00488172
0.00550424
0.0154951
0.0200647
0.0153949
0.0106381
0.0138785
0.0165297
0.00965056
0.0162887
0.0352315
0.0267066
0.0227954
0.00917132
0.00921731
0.0349467
0.0141265
0.0102322
0.0149279
0.0165924
0.00973726
0.0177868
0.00104397
0.00500714
0.00558537
0.00459642
0.00223914
0.00375052
0.00669036
0.0183951
0.0375182
0.0133213
0.00780792
0.00929283
0.012588
0.0148691
0.00268992
0.00835508
0.00684829
0.0153263
0.014224
0.00630946
0.00597234
0.00518339
0.00948231
0.0135587
0.0100712
0.0102238
0.0154078
0.0154528
0.0471817
0.00455033
0.0033204
0.00198775
0.0023694
6.34316e-07
1.76586e-06
1.34955e-06
6.78667e-07
3.4032e-07
2.7703e-07
2.77185e-07
1.87206e-05
0.000892599
0.00147306
0.000924401
0.000776292
0.00264459
0.00520407
0.00572233
0.00396721
0.00482782
0.00793001
0.00673314
0.0019904
0.00342323
0.00436751
0.00499044
0.0040526
0.0023827
0.00171762
0.00242919
0.00397916
0.00476708
0.00427473
0.00399
0.00432804
0.00544809
0.00629717
0.00689809
0.0144541
0.0227062
0.0204538
0.0134818
0.00323726
0.0147877
0.00381796
0.00478392
0.0152236
0.0184338
0.0145673
0.0241718
0.0240072
0.00387342
0.00354806
0.00830176
0.0150389
0.0169548
0.0134319
0.0126299
0.0136528
0.01864
0.0184076
0.027914
0.0349127
0.0257766
0.0203881
0.0077777
0.00752249
0.0339252
0.01558
0.00832355
0.0185867
0.0143635
0.0213347
0.0199951
0.00362045
0.0133775
0.00406431
0.00276972
0.00299214
0.00300486
0.00589803
0.0141305
0.0388015
0.0115663
0.00937886
0.0142118
0.00985116
0.0117236
0.00188035
0.00527571
0.00634808
0.0116391
0.0109851
0.00760786
0.00470762
0.00655204
0.010394
0.011469
0.0104738
0.0134855
0.0170647
0.0142546
0.0512341
0.0106293
0.00216401
0.00235176
0.00421938
1.01641e-06
3.63166e-06
2.72088e-06
1.1891e-06
4.26587e-07
2.97733e-07
3.37551e-07
3.13948e-05
0.00106061
0.00160311
0.00103105
0.000823748
0.00277205
0.00613787
0.00614331
0.00411279
0.00500308
0.0082792
0.00690304
0.00187951
0.00328396
0.00493779
0.00558332
0.00468144
0.00260068
0.0016707
0.00232399
0.00405432
0.00487248
0.00438365
0.00415856
0.00464183
0.0068972
0.0087382
0.00919231
0.0162445
0.0243268
0.023625
0.0146799
0.00479219
0.0246826
0.00341057
0.00507991
0.0237032
0.0210891
0.0154152
0.0262943
0.0185611
0.00372142
0.00195791
0.00468592
0.0113407
0.0138666
0.0109985
0.0122443
0.0136591
0.0187014
0.0249537
0.0368779
0.0335099
0.024723
0.0193858
0.00541891
0.00535919
0.0321723
0.0103741
0.0062101
0.0152747
0.0113936
0.0219336
0.0179303
0.00704644
0.0174089
0.00235895
0.00119497
0.00415578
0.00323759
0.00390832
0.0115894
0.0344502
0.0116084
0.00848044
0.0207002
0.00994355
0.00859641
0.00279429
0.00338579
0.00549525
0.00997451
0.0113215
0.0200218
0.00661621
0.00852317
0.00996009
0.008574
0.0105527
0.01507
0.0137704
0.0126272
0.0512513
0.0155332
0.00185114
0.00681909
0.0065388
1.75678e-06
7.50686e-06
5.5497e-06
2.23331e-06
6.06822e-07
3.27573e-07
4.1537e-07
4.91721e-05
0.00122038
0.00172185
0.00112978
0.000878345
0.00295676
0.00671665
0.00627003
0.00440952
0.00542944
0.00855807
0.00687043
0.0017619
0.00317724
0.00552421
0.00650855
0.00545701
0.00287388
0.00156814
0.00213676
0.00404445
0.00493515
0.00444461
0.00428475
0.00466706
0.0072588
0.00956576
0.00984876
0.0174473
0.0303585
0.0315854
0.0142803
0.00791505
0.0321086
0.00311086
0.00583329
0.0314472
0.022276
0.0161496
0.027043
0.0168157
0.00533369
0.00143409
0.00379183
0.00915281
0.0153268
0.00925387
0.0118009
0.0131847
0.0176035
0.0283695
0.0405555
0.0317835
0.0235765
0.0178131
0.00315779
0.00628263
0.0290422
0.00969108
0.00383876
0.0122709
0.0086508
0.017763
0.0160328
0.00806077
0.0167551
0.00233041
0.00139705
0.00777792
0.0144046
0.00156498
0.014728
0.030171
0.0101484
0.00993724
0.0249055
0.0158009
0.00798077
0.00636206
0.00750052
0.00406174
0.0122523
0.0235971
0.0244525
0.0106702
0.00860239
0.00821922
0.00653191
0.00962456
0.0131129
0.0125142
0.0115646
0.0481776
0.0187965
0.00421404
0.0127539
0.00917474
3.15207e-06
1.50972e-05
1.10669e-05
4.27909e-06
9.57941e-07
3.77481e-07
5.23486e-07
7.46814e-05
0.00137122
0.00183168
0.00122139
0.000962018
0.00326817
0.00726368
0.00630373
0.0048575
0.00612712
0.00871494
0.00672435
0.00165484
0.00310379
0.00654872
0.00824137
0.00640493
0.00315416
0.0014603
0.00193007
0.00395404
0.00497445
0.00445387
0.0043551
0.00458173
0.00686292
0.00887217
0.00925671
0.0201719
0.0407938
0.0403395
0.0136409
0.00973573
0.0317425
0.00274741
0.00730411
0.0357206
0.021491
0.0178089
0.0269591
0.0166096
0.0109134
0.00402577
0.00693475
0.00667898
0.0301986
0.0127189
0.0105233
0.0118086
0.0156175
0.0251499
0.0398435
0.0302963
0.0221858
0.016017
0.00316992
0.0158798
0.026067
0.00844034
0.00159284
0.00988561
0.00890566
0.0146012
0.012551
0.00832987
0.0186216
0.00593186
0.0073898
0.0122473
0.0255978
0.00571778
0.0215078
0.0247739
0.0146754
0.0231814
0.0241238
0.0235182
0.00762857
0.0126889
0.0164032
0.00283509
0.0164868
0.0225458
0.0195826
0.0137259
0.00696057
0.00585907
0.00712742
0.00701931
0.00767657
0.0119434
0.0120707
0.0426614
0.0212211
0.0118096
0.0167181
0.0116071
5.73244e-06
3.03606e-05
2.19597e-05
8.15331e-06
1.60633e-06
4.62602e-07
6.8159e-07
0.000110924
0.00151352
0.00193443
0.00130726
0.00108694
0.00374525
0.00823369
0.0063178
0.00519685
0.0069183
0.00890461
0.00663747
0.00161853
0.00309897
0.00841188
0.0114865
0.0076809
0.00341914
0.00139084
0.0018244
0.0039862
0.00510392
0.00445059
0.00439321
0.00451049
0.00635437
0.0079045
0.00903814
0.0259635
0.0502075
0.0474265
0.0128654
0.00881186
0.0286614
0.00232026
0.0114443
0.0350359
0.0197871
0.0239018
0.0269575
0.0155239
0.0151098
0.0157015
0.0160299
0.00728922
0.0454267
0.020193
0.00892291
0.0103738
0.0137245
0.0230104
0.037588
0.0297083
0.0205639
0.0139881
0.0117645
0.0180032
0.0224141
0.00637881
0.00222391
0.00875275
0.015473
0.0125289
0.0103862
0.0088481
0.0217647
0.00489315
0.0123298
0.01144
0.0356694
0.0254252
0.0245988
0.0224117
0.0418584
0.0495646
0.023406
0.0355095
0.00648373
0.0181369
0.014911
0.00299242
0.0191969
0.0188609
0.0155894
0.0151459
0.00500634
0.00400129
0.0113521
0.0057793
0.00591779
0.0117622
0.0108945
0.0380266
0.0204324
0.0139987
0.0148299
0.0099949
1.05802e-05
5.80628e-05
4.26558e-05
1.56422e-05
2.80186e-06
6.13597e-07
9.43483e-07
0.000159046
0.00164825
0.00203176
0.00138901
0.00124244
0.00434811
0.0092823
0.0062554
0.00524898
0.00746
0.00915133
0.00692667
0.00178023
0.00314352
0.0107595
0.0153205
0.0096385
0.00369627
0.00132077
0.00184204
0.00435673
0.00539417
0.00448923
0.00441053
0.00439227
0.00576041
0.0067623
0.0103848
0.0347009
0.0584308
0.0503884
0.0150788
0.0108086
0.0252499
0.0023523
0.0178281
0.0318187
0.0178202
0.0336769
0.0262492
0.0143482
0.0198849
0.025892
0.0246283
0.0162151
0.0517804
0.0185738
0.00707251
0.00864388
0.0137848
0.0204291
0.0345936
0.0292332
0.0186185
0.0115379
0.0192424
0.0166939
0.0189235
0.00434095
0.0103321
0.00778759
0.0217498
0.0162206
0.00783275
0.00588349
0.0238018
0.00297287
0.0125953
0.00726232
0.0431816
0.0402105
0.0228622
0.0269386
0.0712517
0.0683142
0.0234492
0.0494939
0.00487678
0.0203432
0.0116051
0.00725063
0.0172575
0.0177799
0.0154372
0.0190035
0.00317254
0.00402222
0.0165086
0.00460547
0.00411762
0.0109386
0.00939185
0.0336644
0.0201288
0.0122113
0.012297
0.00809111
2.38991e-05
0.000125439
9.93026e-05
4.18583e-05
7.58318e-06
1.24075e-06
1.73057e-06
0.000246888
0.0018357
0.00216876
0.00150756
0.00154916
0.00558223
0.0104898
0.00615714
0.0053576
0.00794601
0.00976837
0.0089618
0.00246999
0.00352059
0.0143601
0.0205065
0.0138524
0.00432842
0.00137327
0.00209075
0.00530413
0.00586237
0.0046071
0.00447144
0.00425949
0.00484025
0.00532826
0.014957
0.0479694
0.0652392
0.0506841
0.024906
0.0191672
0.0211818
0.00262536
0.0245609
0.027489
0.0157236
0.0452721
0.0248466
0.0127308
0.0266144
0.033884
0.0370675
0.0431914
0.0570072
0.0178316
0.00605215
0.00866813
0.0178745
0.0157386
0.0297243
0.0288488
0.0153024
0.00903162
0.0161239
0.0123685
0.0136487
0.00229168
0.0204622
0.00587886
0.0300561
0.0347639
0.0044172
0.00416378
0.0250657
0.00309277
0.00574997
0.0059684
0.052711
0.0630658
0.0219681
0.0565819
0.105671
0.0933328
0.0273822
0.0693295
0.00407458
0.0223034
0.00734432
0.0135069
0.0132873
0.015199
0.0137586
0.0267037
0.00387213
0.00994683
0.0226607
0.00407167
0.00279303
0.00901211
0.00840677
0.0278368
0.0207587
0.0108324
0.00980099
0.00602952
6.25972e-05
0.000271215
0.000222963
0.000105795
2.10939e-05
3.16418e-06
3.64732e-06
0.000399002
0.00207137
0.00234662
0.00166364
0.00213547
0.00760956
0.0105811
0.00592452
0.00542691
0.00839918
0.0130591
0.0139053
0.00367382
0.00613874
0.0191208
0.0261556
0.0199956
0.00672482
0.00188929
0.00275261
0.00587951
0.00588409
0.004513
0.00462796
0.00407827
0.00351874
0.00692782
0.0233958
0.0539442
0.0618059
0.0474094
0.0335262
0.0255383
0.0213265
0.00277536
0.0212331
0.0216016
0.0173736
0.0433544
0.0232996
0.0112375
0.0160762
0.0206998
0.039251
0.0518676
0.0558161
0.0217567
0.015719
0.0196734
0.0210375
0.00928037
0.0217056
0.0266839
0.0126967
0.0134709
0.0156531
0.00728198
0.00687669
0.00553727
0.0141532
0.00404229
0.0292714
0.0431026
0.00165103
0.00278744
0.0208239
0.00658492
0.00354668
0.00682172
0.0594839
0.0850346
0.0359413
0.0982046
0.116068
0.118718
0.0491743
0.0887621
0.0197965
0.0263243
0.00656264
0.0278787
0.0103747
0.00968572
0.00924259
0.0249655
0.014522
0.0179699
0.0197102
0.00945538
0.00454044
0.00945807
0.00865026
0.0203822
0.017788
0.0167193
0.0137103
0.00950054
0.000142899
0.000456203
0.000387424
0.000205104
4.58428e-05
7.10111e-06
7.29802e-06
0.000580583
0.00229307
0.0025195
0.00183412
0.00295121
0.0094689
0.0100083
0.00591854
0.00552974
0.00890108
0.017199
0.0181644
0.00580237
0.00913383
0.0238117
0.0292179
0.0239169
0.00921125
0.00246478
0.00333367
0.00555378
0.0052731
0.00418507
0.00459793
0.00397642
0.00346224
0.0127173
0.0303645
0.0505446
0.0560857
0.0414483
0.0310756
0.0297187
0.0202915
0.00293386
0.0156661
0.0155752
0.0209947
0.0349075
0.0232601
0.0109557
0.0128208
0.0153312
0.0226539
0.0401788
0.044717
0.0257457
0.0226761
0.0202041
0.0241337
0.0058022
0.012796
0.0231722
0.0152236
0.0249733
0.0277813
0.0168438
0.00275221
0.0117697
0.0102935
0.00566627
0.0262983
0.0358504
0.0133498
0.00142368
0.0140392
0.00916404
0.00507144
0.0186151
0.0471816
0.094319
0.0590587
0.102943
0.115173
0.143391
0.0838662
0.0920902
0.0411849
0.019364
0.0150457
0.0440515
0.0249967
0.00659978
0.00666249
0.0194452
0.0187784
0.0167047
0.014986
0.0100669
0.00851927
0.0136679
0.00672082
0.0153071
0.0146665
0.0148065
0.0152622
0.0157705
0.000266821
0.000649184
0.000565083
0.000331715
8.38999e-05
1.4021e-05
1.38942e-05
0.000790359
0.00250478
0.00268963
0.00206103
0.0044159
0.0106942
0.00919445
0.00597449
0.00561135
0.00930155
0.0185764
0.0218718
0.00893881
0.00916959
0.0270859
0.0285102
0.0245134
0.00952488
0.0023813
0.00329421
0.00476571
0.00467515
0.00394768
0.00433321
0.00388358
0.00580907
0.0184175
0.0317672
0.0442706
0.0503491
0.0360489
0.029512
0.0294464
0.0164041
0.0056967
0.00944515
0.0107397
0.0359021
0.0264316
0.0217154
0.0125177
0.00826192
0.00895059
0.0169806
0.0323517
0.0352312
0.019479
0.0156856
0.0165992
0.0241443
0.00934565
0.00639225
0.01934
0.0139215
0.016837
0.0510922
0.0410415
0.00780519
0.00669607
0.00491902
0.0134442
0.0223215
0.0306186
0.0517867
0.00614615
0.00665026
0.00758205
0.0166125
0.0246571
0.039151
0.0919057
0.0610218
0.0958377
0.106428
0.140745
0.0913885
0.0816381
0.0502587
0.0138798
0.0261978
0.0580605
0.0369244
0.00915053
0.00717411
0.0143419
0.0176914
0.0129895
0.013731
0.00773174
0.00684408
0.0095756
0.00449995
0.0139551
0.0127309
0.0110896
0.0143432
0.0169127
0.000436923
0.000841009
0.000737738
0.000468975
0.000134293
2.45752e-05
2.53949e-05
0.00101372
0.00270675
0.00286017
0.00246076
0.00595341
0.010836
0.00836434
0.00597375
0.00571415
0.00960115
0.0183356
0.0235498
0.0117516
0.00805875
0.0283064
0.0261982
0.0232571
0.0093786
0.00174628
0.0029478
0.00409639
0.00416076
0.00383047
0.00408122
0.00406506
0.00917924
0.0202152
0.0279073
0.0380882
0.0455093
0.0364331
0.0374988
0.0304803
0.0102234
0.00813427
0.00574144
0.0149069
0.0604609
0.0201866
0.0187109
0.0124172
0.00500276
0.00764627
0.0147055
0.0283218
0.0289874
0.0156032
0.00905505
0.0125947
0.022538
0.0192096
0.00913267
0.015249
0.00887958
0.0119498
0.06717
0.0586746
0.0192483
0.00446878
0.00145732
0.0249306
0.022183
0.0267494
0.0700239
0.0227759
0.0018591
0.00744181
0.0117609
0.0175979
0.0345165
0.0904067
0.0575864
0.0877259
0.0994403
0.127289
0.0866384
0.0694172
0.0551183
0.00931968
0.0440245
0.0708473
0.0496043
0.0176719
0.00903736
0.00938515
0.0168847
0.00928617
0.0141985
0.00911153
0.00494258
0.0069716
0.00317241
0.0151954
0.0163366
0.0116454
0.0168397
0.0173957
0.000638815
0.00101995
0.000899185
0.000604156
0.000196512
3.94085e-05
4.20486e-05
0.00122965
0.00289768
0.00303247
0.00290461
0.00652488
0.0102635
0.00772639
0.00571069
0.00583109
0.00977657
0.0175083
0.0225641
0.0130533
0.00763679
0.0269271
0.0234649
0.0211752
0.0101111
0.00171473
0.00271077
0.00449394
0.00374165
0.00384406
0.00379544
0.00435893
0.0101831
0.0178115
0.0224768
0.0323483
0.0411498
0.0377912
0.0404765
0.0350629
0.00578318
0.0118823
0.0111375
0.0321699
0.0690046
0.0183942
0.0156165
0.0120831
0.00819519
0.0278545
0.0298157
0.0387038
0.0311431
0.0246814
0.00908077
0.00880356
0.0207112
0.0267744
0.0168335
0.011716
0.00534548
0.00838674
0.0612004
0.0572015
0.021427
0.00266851
0.00321473
0.0299623
0.0216964
0.0221801
0.0673096
0.0184801
0.00302773
0.0152274
0.0107017
0.0138548
0.0310985
0.0863713
0.0517282
0.0792995
0.0912186
0.116489
0.0815831
0.0592812
0.0539965
0.0120249
0.0552148
0.0684344
0.0559409
0.028809
0.0102133
0.0069097
0.0142139
0.00647548
0.0119486
0.0159921
0.00429981
0.00543303
0.00341813
0.0167804
0.02116
0.0168473
0.0213964
0.0193267
0.000866159
0.00117907
0.0010489
0.000739181
0.000277724
6.33781e-05
7.52478e-05
0.00142407
0.00306503
0.00319466
0.00318439
0.00648555
0.00957943
0.00730507
0.00536095
0.00600242
0.00987611
0.0166531
0.0208219
0.0128121
0.00828662
0.0246604
0.0213542
0.0193178
0.0110506
0.00268079
0.00282596
0.00523536
0.0034657
0.00392253
0.0036277
0.00422174
0.00879878
0.0137196
0.0169783
0.0272768
0.0371029
0.0355767
0.0367576
0.0332939
0.00798365
0.0158171
0.0180476
0.0378933
0.0615117
0.0168785
0.0121749
0.0123797
0.0206027
0.0433422
0.0331185
0.036757
0.0278137
0.0261974
0.00976859
0.00587705
0.0186457
0.0279271
0.0220957
0.00936459
0.00543334
0.00891695
0.0572769
0.0520863
0.0216531
0.00154472
0.0115349
0.0273493
0.0183101
0.0187052
0.0559005
0.0168508
0.0111715
0.0200767
0.00914168
0.0110397
0.0301691
0.0789055
0.044739
0.0707738
0.0816858
0.106521
0.0735705
0.0526702
0.0466772
0.0203719
0.0518129
0.0546026
0.0504228
0.0307006
0.0107088
0.00773251
0.0122369
0.00511023
0.00947896
0.0185147
0.00556041
0.00518044
0.00794068
0.0189846
0.0243461
0.020792
0.023817
0.0198998
0.00182478
0.00179424
0.00170956
0.00143558
0.00083004
0.000372774
0.000575585
0.00218144
0.00325045
0.0034578
0.00397462
0.00518538
0.00558385
0.00465466
0.00412018
0.00692778
0.01003
0.0123638
0.0129567
0.011623
0.0129234
0.0109108
0.00961402
0.00783149
0.00997932
0.0123371
0.00845502
0.00518216
0.00284597
0.00377809
0.0033767
0.00122646
0.000793821
0.00141589
0.00382949
0.0109648
0.0149221
0.0150602
0.0154786
0.0171024
0.0224771
0.0328904
0.0446105
0.0365747
0.0207679
0.00882951
0.00687813
0.0205907
0.0506928
0.0564649
0.0413498
0.0301589
0.0146565
0.00912287
0.00602107
0.00272365
0.0105718
0.0248372
0.0274529
0.00655811
0.00581132
0.00992356
0.0200031
0.0146351
0.0205732
0.0180078
0.0229046
0.0142244
0.00642519
0.009255
0.021815
0.00982842
0.014002
0.00574283
0.00376998
0.011316
0.0239687
0.0342808
0.0132444
0.0245357
0.0367664
0.0529691
0.0379653
0.018516
0.0195553
0.0236113
0.0208769
0.0159086
0.017573
0.00972654
0.00690635
0.0118193
0.00622437
0.00260249
0.00450208
0.0132366
0.0128485
0.0123355
0.0173357
0.0186752
0.0237113
0.0246361
0.0210806
0.0196065
0.00258836
0.00177196
0.00165051
0.00161522
0.00165841
0.00191114
0.00282761
0.00286117
0.00263686
0.00237969
0.00216695
0.00229944
0.0027711
0.00310352
0.00331731
0.00366324
0.00439549
0.00477818
0.0045903
0.00320634
0.00180031
0.00107495
0.000912525
0.00055088
0.000924858
0.00293967
0.0033463
0.00222829
0.00119447
0.00137538
0.00173716
0.00155218
0.00107705
0.000835272
0.000780972
0.00152423
0.0027652
0.00287557
0.00235271
0.00241188
0.00354706
0.00946744
0.00975161
0.00723426
0.00425304
0.00301479
0.004315
0.00748672
0.0204444
0.01397
0.00676641
0.00526288
0.00408941
0.00309338
0.00317974
0.00264209
0.00337681
0.00374957
0.00392036
0.00455534
0.00574981
0.00440583
0.00402488
0.00528441
0.00660586
0.0123987
0.00759883
0.00279448
0.00294846
0.00368865
0.00628198
0.00876006
0.00410461
0.00148872
0.00150434
0.00194437
0.00142929
0.00329782
0.00232269
0.00279275
0.00453713
0.0156222
0.0103225
0.00405455
0.00196871
0.00211542
0.00254178
0.00295045
0.00543254
0.0135986
0.0167782
0.0113245
0.00909916
0.00663887
0.00525314
0.00680746
0.0123357
0.0103813
0.00972366
0.00901025
0.00979397
0.0106942
0.00911176
0.00838523
0.00153062
0.00144536
0.0015324
0.00166644
0.00170675
0.00167031
0.00153508
0.00115105
0.0007976
0.000499411
0.000289667
0.000172669
0.000124558
9.5641e-05
6.35685e-05
6.66932e-05
0.000171396
0.000223594
0.000142408
3.12661e-05
2.74347e-05
8.57455e-05
0.000173133
0.000182786
0.000193746
0.00022373
0.000212386
0.000175209
0.000166668
0.000227463
0.000410053
0.000373542
0.000285226
0.00018949
0.000164752
0.000199423
0.000303735
0.000327863
0.00031201
0.000340541
0.000563703
0.00222949
0.00240306
0.00184265
0.000980834
0.000612098
0.000645094
0.00136206
0.00538827
0.0041764
0.00225432
0.00142435
0.00114505
0.00134563
0.00127169
0.0013033
0.00138289
0.00247363
0.00166871
0.0015009
0.00287429
0.00264422
0.00204392
0.00174806
0.00160061
0.0015976
0.00148272
0.00127829
0.00083116
0.000715595
0.00104176
0.0019232
0.0016506
8.90573e-05
1.95048e-05
0.000825066
0.00195093
0.00152201
0.00107947
0.00103484
0.0011456
0.00197128
0.0025404
0.00188666
0.000851414
0.000503271
0.00068176
0.000917697
0.00187675
0.00765117
0.0101668
0.0086171
0.00827467
0.0109674
0.010893
0.00922876
0.00819828
0.00717967
0.00706714
0.00654013
0.00549887
0.00493148
0.0042464
0.00413565
0.000120557
0.000111164
0.000106811
0.000103145
8.6213e-05
4.93165e-05
2.60571e-05
1.54158e-05
1.89675e-05
4.4881e-05
5.68888e-05
5.76669e-05
5.2649e-05
4.85135e-05
4.7322e-05
4.70776e-05
4.77034e-05
4.33778e-05
4.05375e-05
3.81858e-05
3.79912e-05
3.71357e-05
3.83457e-05
3.88716e-05
3.84042e-05
3.88262e-05
4.66623e-05
7.15104e-05
0.000142732
0.000125881
0.000103689
0.000105658
0.000137328
0.000221103
0.000333733
0.000310544
0.000287063
0.000258104
0.000289898
0.000267421
0.000249149
0.00025407
0.000266201
0.000342977
0.000575785
0.00103014
0.000790358
0.000735196
0.00224198
0.00146531
0.00147478
0.00251646
0.00515513
0.00891891
0.0100977
0.0084573
0.00609206
0.00469045
0.00470987
0.00512834
0.0046472
0.00403814
0.00339841
0.00261341
0.00216341
0.00272891
0.00437494
0.00511988
0.0039328
0.00204685
0.000939583
0.000558531
0.000307047
0.000126487
3.1168e-05
1.83464e-05
3.67807e-05
9.29062e-05
0.000236084
0.000294135
0.000542755
0.00118894
0.00162102
0.0016221
0.00151973
0.00136391
0.000911223
0.000712924
0.00079182
0.00137664
0.00378267
0.00357691
0.00286443
0.00334692
0.00539876
0.00881499
0.00891563
0.00812823
0.00758119
0.00608921
0.00360511
0.00230601
0.00211276
0.0024461
7.98571e-07
9.93657e-07
1.29562e-06
7.353e-07
3.63316e-07
2.24398e-07
3.84438e-07
7.38648e-07
1.38093e-06
2.47391e-06
3.78124e-06
5.13851e-06
6.58941e-06
8.00464e-06
9.41225e-06
1.12832e-05
1.37661e-05
1.8866e-05
2.62486e-05
3.94112e-05
5.7388e-05
8.28327e-05
0.00010196
0.000133287
0.000205295
0.000370417
0.00079267
0.00172991
0.00348017
0.00447472
0.00447423
0.00510135
0.00683964
0.00982436
0.0136845
0.0136797
0.0132493
0.013059
0.0135591
0.0132034
0.0119724
0.00964956
0.0099551
0.0117413
0.0151157
0.0190896
0.0162679
0.0102523
0.00645126
0.00853652
0.0157925
0.0284205
0.0437778
0.0579318
0.0618297
0.050987
0.0368633
0.0213189
0.0203045
0.0215306
0.022501
0.0246096
0.0295065
0.0363542
0.0454954
0.0561302
0.0589157
0.0532101
0.0337125
0.0110493
0.00371628
0.00132948
0.000613747
0.000309553
0.00019172
0.000242129
0.000515827
0.00129774
0.00278182
0.00430357
0.00452624
0.00431232
0.00430529
0.00408883
0.00363584
0.00340732
0.00345743
0.00339926
0.00298451
0.00241574
0.00207757
0.00165436
0.00164633
0.00151862
0.0015679
0.0021932
0.00391226
0.00560715
0.00646045
0.00676925
0.00539423
0.0033076
0.00280925
0.00308024
9.69162e-06
1.07382e-05
1.155e-05
1.24989e-05
1.33627e-05
1.49309e-05
1.8147e-05
2.34427e-05
3.12769e-05
4.23105e-05
5.78048e-05