/*--------------------------------*- C++ -*----------------------------------*\
| =========                 |                                                 |
| \\      /  F ield         | OpenFOAM: The Open Source CFD Toolbox           |
|  \\    /   O peration     | Version:  v1912                                 |
|   \\  /    A nd           | Website:  www.openfoam.com                      |
|    \\/     M anipulation  |                                                 |
\*---------------------------------------------------------------------------*/
FoamFile
{
    version     2.0;
    format      ascii;
    class       volScalarField;
    location    "50";
    object      p_rgh;
}
// * * * * * * * * * * * * * * * * * * * * * * * * * * * * * * * * * * * * * //

dimensions      [1 -1 -2 0 0 0 0];


internalField   nonuniform List<scalar> 
14268
(
-8.77052
-7.55997
-2.91458
4.74824
11.4737
10.8637
1.26838
-11.6199
-30.8406
-52.2075
-68.6298
-57.3573
-63.8481
-96.4878
-118.914
-137.651
-149.567
-162.391
-159.989
-117.422
-52.9186
129.197
188.534
159.435
173.989
245.683
112.544
-119.717
96.7868
109.856
238.031
306.882
341.81
305.713
328.014
260.866
274.673
226.072
236.072
39.6332
545.985
1032.4
2315.16
2371.81
1805.97
1625.67
1835.91
1409.11
893.663
1734.42
1644.3
1682.04
1930.7
1696.2
1534
1794.24
1846.17
1820.87
1886.01
2094.51
1973.3
1691.84
1376.37
1479.27
1712.78
1827.71
2036.79
1908.27
1652.58
1582.46
1393.94
857.986
828.538
910.442
902.472
682.516
689.388
718.836
962.09
1054.29
1050.7
1092.02
1102.47
1140.89
592.109
329.155
357.929
463.475
372.781
286.416
263.681
228.971
204.301
212.409
197.159
173.039
74.0727
59.1679
73.615
55.4992
41.6895
68.9037
66.9179
63.0081
-8.7795
-7.55687
-2.89229
4.77819
11.4911
10.8535
1.2323
-11.6804
-30.9256
-52.3603
-69.1334
-64.1019
-64.9622
-92.3444
-86.675
-66.4517
-122.292
-169.19
-169.246
-123.174
-21.2663
108.261
-33.988
-107.382
65.0799
535.134
164.536
-189.13
-76.4283
-147.006
-103.785
-5.20686
159.46
274.005
418.092
425.639
409.658
325.744
369.202
24.1315
158.383
1737.18
2271.31
1485.23
1002.91
1719.52
2191.72
1750.23
850.443
1646.93
1631.87
1710.4
1863.26
1469.89
1287.07
1564.65
1718.31
1775.55
1799.42
2030.1
1913.37
1814.01
1484.57
1533.02
1681.35
1806.21
1719.79
1724
1802.43
1831.05
1854.81
886.493
807.391
731.968
856.867
554.353
586.026
578.586
621.212
1027.18
1045.74
907.377
889.209
743.777
736.585
328.729
504.711
443.646
485.417
446.971
385.806
268.715
201.014
196.956
187.089
161.972
73.0094
58.6992
79.0058
76.9796
38.4006
49.3396
38.5617
34.6803
-8.79362
-7.56125
-2.87154
4.80342
11.5129
10.8456
1.20012
-11.7356
-31.0142
-52.4755
-69.5558
-72.1309
-68.5385
-21.3306
110.657
132.442
73.6753
-120.632
-169.313
-102.987
65.6056
65.3341
-119.418
-140.883
-52.5432
641.867
452.109
-54.7083
-72.891
-143.032
-116.016
-115.967
-67.479
-0.645367
174.526
194.95
50.0202
-2.89256
269.147
56.8328
80.7591
2064.12
2191.83
1240.04
1007.43
1674.98
668.123
523.424
837.241
1373.81
1343.38
1658.06
1672.59
1478.59
1365.39
1653.12
1682.19
1731.29
1793.24
2016.32
1766.71
1624.55
1380.57
1585.66
1473.67
1826.95
1536.09
1357.9
1760.07
1442.78
1740.2
1093.32
874.823
861.256
610.209
548.554
596.856
661.559
553.407
819.134
587.985
407.737
373.886
354.396
515.944
345.543
480.312
268.552
352.943
498.388
489.863
450.718
370.383
245.317
165.685
154.769
101.077
96.3073
43.7423
53.9084
38.2511
30.2605
27.3606
25.0319
-8.8135
-7.57561
-2.85351
4.83429
11.5436
10.855
1.18169
-11.7857
-31.1109
-52.6127
-69.8822
-80.4492
-70.3457
72.6195
183.56
154.482
134.937
-51.4659
-170.838
95.0365
252.578
-102.531
-131.766
-144.207
-66.5283
636.324
607.381
-6.87717
-77.42
-150.084
-121.004
-118.426
-74.2176
-95.3581
-26.2445
-12.3869
-32.2317
-68.7518
114.853
89.8823
33.0714
1424.3
1962.35
1117.84
1369.91
1139.44
532.349
587.855
1083.29
1847.61
1347.92
1749.22
1765.34
1488.34
1515.45
1726.86
1675.45
1658.8
1752.97
1906.41
1632.97
1606.4
1305.9
1569.18
1180.47
1824.58
1429.99
1266.14
1176.98
942.42
935.94
1494.17
1490.05
1165.97
592.49
534.907
987.485
1166.98
808.139
664.949
354.38
375.395
328.396
340.585
375.771
330.915
266.164
263.959
219.648
291.197
278.399
324.997
382.523
334.275
172.864
152.705
143.502
78.3418
40.3896
26.5872
46.2274
29.7263
26.7544
27.5632
-8.83896
-7.59671
-2.83882
4.86359
11.5713
10.8677
1.16683
-11.8317
-31.2196
-52.7442
-70.0035
-85.0167
-46.788
109.181
43.5445
-52.6542
90.0177
100.242
-124.233
252.914
261.453
-132.217
-130.583
-142.204
-89.2967
631.582
603.443
-87.9763
-41.5198
-110.257
-70.754
-103.393
-67.0221
-89.3965
-30.1578
-8.07154
-3.52611
43.3501
86.2459
84.6727
-15.137
711.889
1526.36
1140.49
1343.94
1142.37
603.038
2113.57
1481.85
1836.8
1357.02
1900.64
1897.41
1617.61
1407.5
1442.13
1661.34
1698.18
1777.81
1868.36
1536.5
1552.67
1170.79
1222.05
1050.31
1615.77
1587.86
1630.07
848.498
1028.76
699.199
1511.09
1268.55
720.686
588.074
1111.53
1191.03
1197.85
495.479
520.786
510.588
763.078
650.223
436.331
318.782
335.927
261.917
565.384
216.045
205.4
216.94
194.478
385.165
371.041
189.397
139.032
132.277
51.7597
73.8865
26.2991
78.7369
45.4962
52.0111
38.9626
-8.87009
-7.62791
-2.82629
4.88912
11.6095
10.8874
1.16342
-11.873
-31.3369
-52.8839
-70.1078
-83.7675
10.5328
1.12126
-74.7944
-159.581
-131.358
91.7852
96.061
37.5041
252.717
-158.204
-136.684
-145.077
-114.786
481.205
595.749
-142.414
-16.7516
-93.8297
-65.6964
-62.4937
-53.282
-96.5823
-31.7985
29.8081
338.019
581.434
85.1382
-107.08
-30.3907
151.197
832.036
1173.55
1220.56
853.202
1863.1
2468.38
1893.09
1624.4
1431.47
1920.1
1832.5
1619.09
1058.84
1192.81
1613.08
1742.07
1773.28
1755.4
1406.64
1349.52
1061.52
1163.97
1008.65
1102.39
2025.53
1524.83
888.361
1371.56
648.578
1519.3
1022.12
1310.61
715.441
921.284
623.337
1212.17
429.732
448.189
779.438
844.119
826.804
835.887
314.778
463.567
368.982
841.732
250.734
233.373
461.512
338.4
278.273
263.675
194.142
131.223
79.4273
47.6747
150.376
26.6029
107.169
106.411
105.77
100.015
-8.90694
-7.66687
-2.81598
4.91365
11.6491
10.917
1.16553
-11.9106
-31.4598
-53.029
-70.1908
-69.8764
-35.7501
-65.161
-65.3562
-153.933
-169.068
18.513
19.7368
-86.3463
160.794
-144.451
-136.418
-143.428
-133
292.836
587.634
-158.552
-54.4322
-164.135
-93.8138
-23.5211
8.47849
-61.1692
-7.06398
312.409
870.577
906.536
564.942
5.95843
-33.956
-34.3707
407.308
1503.9
1379.59
916.314
2760.67
2425
1831
992.77
1812.46
1892.58
1449.48
1563.15
983.476
1279.49
1538.04
1739.12
1753.65
1683.72
1433.36
1270.11
1023.13
1456.8
995.354
992.779
2145.85
1074.19
1019.96
1271.81
701.996
1299.68
880.315
1333.08
1344.49
652.405
764.727
1022.88
435.582
433.362
798.337
682.527
849.401
858.887
393.372
773.659
757.232
854.606
338.936
371.229
486.473
460.704
258.724
215.6
184.769
108.496
48.4462
44.0217
159.647
25.1416
68.7711
107.778
107.514
55.0408
-8.94952
-7.71484
-2.80823
4.93613
11.7018
10.9652
1.17675
-11.9444
-31.5844
-53.1762
-70.2903
-76.7735
-64.6606
-12.234
15.0103
-154.391
-179.458
-83.3122
-82.4188
-155.944
-27.9184
-108.073
-141.708
-134.522
-136.361
135.05
369.931
-176.086
-72.9903
-164.679
-124.678
-4.55662
85.2263
45.0632
153.021
669.215
897.083
817.027
919.115
175.763
695.643
5.38943
271.259
1596.53
1435.4
969.798
1415.08
2388.9
1098.92
934.746
1821.73
1850.07
1242.83
1310.94
1217.76
1333.16
1561.11
1622.22
1627.8
1592.2
1511.3
1259.72
1407.25
1760.16
1024.57
983.084
2204.74
1014.19
1398.53
736.366
662.053
675.432
726.237
1353.75
1389.52
505.377
1208.61
864.194
783.642
431.133
814.189
454.839
425.796
889.261
674.223
668.449
837.971
863.847
571.093
576.843
383.142
452.753
248.257
214.733
279.087
99.9951
46.2722
41.3151
163.076
24.3239
28.9022
108.973
76.1968
19.4123
-8.99794
-7.77135
-2.80306
4.96287
11.7548
11.0072
1.19576
-11.9748
-31.7159
-53.333
-70.3836
-83.439
-72.0233
46.9939
-6.64919
-156.579
-173.096
-120.716
-114.756
-160.056
-142.969
-95.8667
-137.272
-111.35
-121.496
-12.9158
73.192
-221.904
-96.0466
-161.564
-135.535
-38.0651
230.247
336.558
471.858
460.554
167.258
145.086
853.765
528.624
2013.68
41.7425
546.602
2368.75
1404.09
942.528
-77.4261
2207.71
815.453
1016.61
1776.05
1656.36
1337.86
1200.75
1222.59
1423.33
1538.72
1556.71
1538.54
1583.6
1583.13
1329.59
1621.97
1870.98
1091.93
984.824
2240.11
1110.02
1587.66
713.008
699.941
517.522
539.703
1375.97
1437.24
432.85
1203.18
1259.35
1104.24
560.014
560.633
453.82
342.122
607.235
792.034
450.213
854.516
871.705
851.307
420.686
145.598
249.246
213.467
266.534
320.39
125.083
45.6111
40.7983
147.012
31.075
18.5231
109.939
26.4552
13.223
-9.05217
-7.83863
-2.80036
4.99119
11.8088
11.0651
1.22279
-12.0015
-31.8478
-53.4887
-70.4808
-86.2285
-80.0548
22.5864
-118.581
-153.63
-169.977
-141.67
-141.354
-157.711
-163.851
-123.673
-125.531
-86.4544
-97.1403
-110.575
-92.2663
-253.749
-95.0931
-162.279
-138.703
-115.05
95.5814
259.334
323.345
122.698
331.583
1051.97
310.187
925.992
1913.28
60.7734
833.727
2240.14
1191.78
960.078
71.7963
1117.64
1511.43
1075.61
1326.24
1351.63
1492.62
1306.01
1082.14
1441.22
1497.09
1516.92
1451.31
1641.58
1649.9
1458.89
1750.33
1921.85
1170.3
1664.49
2335
1832.61
1667.56
917.369
826.18
514.708
702.693
1273.83
1002.73
372.637
469.431
1277.37
462.554
885.534
581.129
621.309
330.679
349.74
602.125
330.043
439.757
880.779
351.051
160.763
131.806
204.116
211.02
293.186
325.385
131.805
45.4035
105.843
166.445
45.3065
17.991
76.4863
14.4756
12.9142
-9.11246
-7.90962
-2.79935
5.01179
11.8718
11.1282
1.25659
-12.0251
-31.9859
-53.6544
-70.5751
-85.8544
-70.3404
-58.4546
-129.169
-120.118
-109.042
-166.077
-168.064
-155.518
-159.64
-96.1269
-40.7752
-53.3201
-74.4073
-132.804
-141.596
-259.662
-93.0706
-160.615
-135.746
-130.776
-63.0036
-59.4254
21.1278
133.618
1503.7
1523.31
313.828
1238.74
1776.75
75.544
913.76
2152.73
890.865
1111.98
179.918
508.259
1802.64
1278.85
1589.69
1439.98
1764.87
1465.66
1093.38
1473.46
1540.28
1433.84
1397.87
1739.18
1715.43
1575.54
1612.68
1318.57
1372.76
1941.58
2392.81
2151.52
1394.28
1337.42
1014.31
520.625
825.237
613.28
426.511
342.131
340.122
1077.64
437.219
919.367
728.873
449.872
380.94
314.061
301.869
218.457
240.957
890.11
272.289
153.126
134.561
139.582
296.064
381.777
226.066
152.651
69.6467
82.041
168.214
73.5999
17.7131
24.4301
14.144
12.6771
-9.17861
-8.00383
-2.80066
5.03906
11.9444
11.1993
1.29782
-12.0462
-32.1244
-53.8177
-70.6709
-84.922
-57.7956
8.80457
-138.173
-95.6539
-90.1972
-175.132
-166.224
-153.377
-155.306
19.3649
168.631
-7.68591
-64.6843
-129.58
-137.779
-252.047
-89.7725
-160.561
-137.147
-132.234
-92.7812
-130.402
-31.7077
571.608
1532.14
1421.87
325.174
835.869
126.821
110.827
1006.78
1664.59
529.88
1469.17
232.866
607.444
1798.93
1825.8
1779.96
1510.11
1789.46
1541.61
1139.99
1504.05
1590.92
1376.07
1372.52
1740.03
1769.39
1618.93
932.01
934.229
1509.47
2055.86
2443.08
1615.35
861.902
1405.96
1313.77
511.38
697.623
561.645
353.074
337.306
326.685
328.216
330.558
952.269
311.873
251.059
511.498
278.456
547.492
211.081
233.855
744.959
268.001
272.726
386.266
157.558
474.293
425.684
155.067
300.144
273.375
53.2461
105.273
128.126
17.4284
15.6934
14.1951
12.4449
-9.25195
-8.08014
-2.80409
5.06676
12.0155
11.2837
1.34875
-12.0652
-32.2661
-53.9906
-70.765
-84.4128
-40.9209
36.5783
-143.039
-163.386
-95.183
-168.453
-160.717
-150.823
-152.575
167.07
485.789
72.5442
-53.9366
-126.823
-132.379
-199.332
-59.2037
-152.77
-134.105
-129.467
-88.0819
-117.173
146.415
1067.24
1435.19
1286.43
386.982
374.578
-152.206
274.088
1944.56
658.699
613.658
1968.55
354.279
702.747
1767.07
1869.43
1788.52
1715.98
1737.2
1470.62
1193.66
1559.63
1662.67
1441.62
1437.5
1786.78
1830.3
1771.88
845.261
1361.08
1739.21
2149.11
1229.6
1450.36
833.961
1035.34
1565.31
507.624
736.39
870.287
361.124
438.355
322.022
279.339
484.446
659.599
215.415
243.976
516.837
246.86
637.036
208.142
487.312
331.11
310.844
579.064
662.926
124.187
481.407
361.456
123.183
316.719
312.353
53.2429
170.253
148.501
36.7463
30.4577
41.0277
29.358
-9.33145
-8.21584
-2.81408
5.08745
12.085
11.3775
1.40399
-12.0815
-32.4091
-54.161
-70.8642
-84.2282
-31.2946
31.6769
-145.618
-165.694
-154.299
-159.007
-105.271
-111.139
-144.146
215.493
511.872
246.454
-29.086
-124.291
-115.713
-108.001
-27.7987
-134.437
-129.872
-127.933
-87.59
-109.296
428.57
1459.39
1336.09
530.456
1271.69
1433.29
8.75534
440.441
1906.94
3.70392
802.552
1891.22
429.24
654.027
1747.2
1834.28
1754.2
1803.55
1614.79
1321.16
1257.48
1595.76
1589.89
1547.53
1502.9
1795.97
1885.47
1855.19
810.345
1546.73
1842.01
2254.51
861.505
1490.56
793.652
665.323
1621.64
652.796
770.977
809.221
435.618
890.678
315.867
269.311
576.463
369.773
208.128
237.507
468.017
231.721
646.397
241.754
716.249
281.263
500.324
674.964
682.615
94.693
309.031
220.668
114.064
321.438
286.784
56.2518
171.28
127.598
44.3012
53.1439
52.1558
50.2511
-9.45739
-8.32547
-2.83071
5.12386
12.228
11.5385
1.49737
-12.106
-32.6395
-54.4301
-71.0091
-80.279
13.0972
-48.2369
-143.237
-161.85
-165.463
-134.331
156.809
-33.3687
-71.3714
233.495
475.723
448.628
53.8509
-68.7617
-28.6582
-89.4426
-6.02941
-117.494
-115.397
-118.108
-64.5144
20.8222
770.004
1316
318.408
218.56
1617.01
1411.2
422.221
521.912
1749.03
217.036
1257.78
1680.08
553.22
631.469
1699.64
1711.03
1726.94
1768.2
1480.66
1352.06
1189.33
1519.18
1569.55
1670.23
1626.89
1836.5
1961.48
1586.87
1178.71
1905.54
2009.87
1279.9
827.5
1444.85
806.301
654.262
1587.43
1476.33
879.999
446.362
1033.15
1062
310.793
263.316
597.519
258.773
195.877
232.889
347.194
226.416
382.564
280.74
742.358
245.069
677.533
699.555
706.406
101.634
121.983
124.08
120.983
186.37
91.5026
75.3031
115.148
86.3441
25.7661
31.0279
30.8429
18.7748
-9.6669
-8.74748
-2.87148
5.16833
12.438
11.766
1.65451
-12.1279
-32.9201
-54.7903
-71.2429
-75.978
9.26132
-103.189
-132.06
-161.702
-173.546
124.198
155.962
-1.37403
236.548
284.496
429.619
428.283
363.497
101.453
76.8293
-204.339
-94.9868
-162.344
-109.189
-99.423
-30.7698
398.138
867.548
351.295
-459.796
4.63787
1100.21
1329.6
994.636
912.172
439.882
584.949
1486.91
638.281
754.857
983.542
1057.69
886.572
1502.17
1535.77
1338.12
1386.36
1130.61
1352.13
1547.81
1846.91
1770.77
1952.9
1818.96
1086.59
1001.5
1227.07
2042.28
775.409
1539.64
1134.74
1041.59
674.144
835.461
1561.18
1165.57
442.271
825.815
521.533
307.065
250.893
297.92
254.256
230.145
223.892
263.781
215.892
186.451
286.09
379.738
197.55
204.978
649.854
733.189
188.179
110.824
173.699
197.295
70.4261
38.963
40.365
119.4
81.431
59.9696
16.3747
13.4128
12.4508
-9.88253
-8.87936
-2.92229
5.19518
12.6489
12.0405
1.83388
-12.1343
-33.2316
-55.1653
-71.3536
-62.5076
3.96759
-113.549
-111.511
-156.414
-170.599
-25.1697
135.014
160.838
9.24393
222.02
96.4861
179.985
168.943
-38.7976
-60.6693
-254.823
-88.1401
-161.359
-131.872
-104.26
209.852
677.967
775.69
-239.116
-304.64
-107.418
492.086
1278.45
473.932
1965.45
455.947
838.998
1493.8
694.4
1117.39
1346.93
690.902
928.023
754.793
997.184
1130.41
1334.34
1062.19
1486.98
1564.94
1622.16
1856.32
2018.04
1428.86
1054.24
759.678
782.578
1148.91
732.024
1792.36
908.479
1099.54
1046.61
451.95
915.98
1281.19
486.825
350.131
325.808
488.01
273.994
362.827
365.756
275.422
224.589
204.533
251.521
175.416
618.585
281.832
191.891
191.469
336.483
374.379
297.641
126.911
274.752
175.046
136.875
42.8428
41.2236
120.909
54.1902
53.7545
51.7721
31.9159
12.0901
-10.215
-9.47231
-3.03286
5.24367
12.8646
12.3578
2.03719
-12.1298
-33.5509
-55.5451
-70.6153
-16.3138
-40.8324
-111.107
-112.21
-154.334
-176.543
-161.326
107.876
145.751
-116.89
126.359
-135.015
-44.5042
24.8018
-116.893
-132.329
-249.497
-86.6536
-163.776
-133.526
-78.194
375.582
596.104
201.504
-162.212
-224.255
255.146
1208.03
898.779
573.749
2062.85
827.511
1425.03
1807.5
1053.82
930.117
1424.23
998.396
1446.81
1340.75
1242.25
1312.31
1448.05
1273.17
1554.4
1650.82
1277.29
1487.02
2089.61
1993.76
1793.38
709.519
670.776
565.823
1265.31
1921.78
741.507
1130.23
1100.95
431.725
394.945
1206.23
555.716
357.488
424.692
811.625
330.56
507.229
476.433
422.065
269.028
290.089
362.804
199.296
703.598
228.924
187.855
182.915
223.738
159.464
309.126
185.631
313.453
115.437
97.24
82.4838
87.1036
96.6801
37.4463
28.8193
35.7354
24.6603
21.2316
-10.4532
-9.39335
-3.28889
5.22858
13.0872
12.6584
2.25958
-12.1292
-33.8574
-55.9045
-65.5222
-43.0857
-89.9638
-99.944
-116.356
-149.597
-170.506
-212.064
-96.8665
113.08
-105.056
-46.0111
-200.448
-143.238
103.039
-107.414
-129.106
-199.897
-81.7477
-165.272
-130.781
-14.2446
391.616
260.836
-3.95001
-65.7071
-80.8324
790.622
1505.36
1384.96
801.412
2027.57
1906.79
2073.69
1734.75
1580.08
1005.1
1330.89
1396.17
1582.54
1563.71
1571.42
1563.87
1365.71
1108.33
1624.63
1684.45
1226.04
1292.8
2151.94
2083.03
2039.51
674.766
634.882
548.152
1779.8
1206.05
657.636
978.502
1162.85
429.534
371.281
778.07
430.979
813.492
903.983
863.74
366.885
543.571
505.813
444.197
372.686
396.701
573.645
222.342
441.687
194.868
182.06
182.226
177.281
137.829
203.774
187.892
319.555
155.502
53.3253
105.519
107.37
69.9627
36.3663
18.8429
17.5914
15.6943
14.6552
-10.9655
-9.89099
-3.36339
5.31243
13.3884
13.0318
2.51978
-12.125
-34.1704
-56.2682
-67.394
-69.9973
-99.3186
-81.3253
-126.121
-146.579
-170.061
-207.454
-210.445
-48.9958
6.4917
-154.689
-180.371
-151.378
233.513
183.228
-109.522
-80.0457
-79.2538
-166.695
-129.349
4.27853
158.284
38.6354
80.9866
21.8714
-25.3762
396.415
753.621
1307.31
1502.91
2002.84
2070.97
1984.8
1258.21
1692.71
1125.84
1298.86
1442.22
1577.75
1538.88
1521.82
1500.6
1265.04
1001.68
1675.7
1750.74
1172.52
1250.22
2213.46
1769.55
1302.16
834.424
762.532
542.73
1852.83
558.4
767.116
1156.42
1190.56
500.467
566.886
435.006
384.526
1007.83
1001.72
776.315
406.599
557.494
525.656
480.534
448.211
459.662
770.242
318.091
269.655
255.896
279.5
200.398
145.105
133.499
134.322
257.167
323.417
178.119
51.9606
74.3447
108.697
44.2122
28.5476
18.348
16.7742
15.4391
14.674
-11.1943
-10.253
-3.5136
5.26364
13.6471
13.4327
2.74219
-12.113
-34.4698
-56.6013
-70.1568
-81.5029
-98.8026
-76.7823
-123.206
-139.773
-158.456
-192.792
-201.458
-96.994
25.4874
-150.271
-158.11
-146.159
149.546
202.345
-72.8438
-113.895
-79.6324
-169.119
-127.809
-38.1876
119.661
64.5856
148.509
103.384
39.0009
228.338
364.164
791.183
1776.58
1967.71
1999.12
1823.71
759.324
1702.57
1191.53
1338.98
1407.39
1506.98
1447.23
1440.91
1602.18
1315.58
1004.22
1721.4
1797.81
1256.21
1227.44
2145.64
953.353
953.054
953.027
878.204
585.241
1015.87
543.542
902.436
1177.87
1220.58
701.176
782.017
428.571
406.065
1033.76
627.095
568.677
481.225
577.579
553.71
504.445
485.966
518.891
819.844
459.102
266.409
351.621
426.759
313.241
227.472
132.862
134.191
272.324
234.79
197.819
61.8134
43.3674
109.256
38.5583
30.8368
19.118
16.5639
16.3163
14.5782
-14.6137
-12.9784
-3.41076
6.44593
15.5062
16.7254
4.54911
-11.8475
-35.682
-57.4039
-70.3453
-78.8128
-82.6434
-98.4313
-103.427
-112.897
-121.316
-78.9725
-27.6133
-13.172
-60.0185
-78.8442
-53.9564
-73.251
-64.3743
105.732
49.9106
-128.24
98.798
146.181
49.6581
146.022
219.169
491.234
872.847
534.746
339.795
499.714
808.84
1017.75
1211.98
1303.93
1359.11
1390.58
1417.89
1704.66
1460.1
1531.31
1242.9
1507.04
1593.7
1555.63
1776.77
1627.85
1183.38
1455.45
1896.64
1865.05
1617.49
1368.82
963.059
941.948
1342.56
1040.78
628.197
619.632
770.166
986.071
831.765
808.966
904.508
865.694
690.579
467.604
458.339
587.621
727.027
631.841
383.908
437.986
456.541
621.536
574.564
524.599
536.232
492.855
486.211
491.89
432.1
221.118
132.273
133.872
180.974
137.214
162.05
119.343
42.3346
83.5814
84.3444
67.9274
44.665
39.731
31.0956
18.9354
-19.6452
-26.3874
-16.8663
6.31169
23.0026
22.7474
7.28708
-9.99258
-30.6058
-44.9112
-48.985
-46.2816
-46.752
-54.2166
-51.7185
2.17964
50.4066
62.2892
64.7957
62.4456
96.4946
162.046
177.918
239.99
284.994
238.758
162.9
142.578
592.733
600.551
430.567
472.672
588.307
755.437
926.69
848.957
794.375
951.071
1129.57
1105.91
1337.99
1756.85
1709.21
1564.21
1346
1039.3
773.281
1099.17
1765.25
1835.97
1522.43
1071.09
542.734
317.345
223.933
280.252
551.946
1148.52
938.099
636.686
504.547
425.336
378.068
487.726
583.569
677.233
728.355
567.187
396.766
521.725
814.04
601.78
470.574
344.013
254.114
297.02
357.646
260.269
137.215
98.98
92.3558
221.889
230.87
200.353
257.218
149.355
103.261
86.2513
83.5052
165.531
172.467
176.446
165.319
75.5332
62.634
67.1133
79.3358
76.5896
64.0321
27.4443
17.1241
17.3195
14.9403
11.7489
-20.2938
-14.2343
4.74407
24.598
38.9454
42.1103
36.5075
25.8109
18.9206
26.9874
52.6503
91.9951
143.626
197.901
256.381
304.07
338.743
373.355
417.937
460.379
540.04
655.87
661.312
641.915
663.251
676.701
627.433
546.759
552.802
484.447
375.183
333.283
328.052
325.615
306.476
313.012
266.391
278.052
310.823
332.699
399.85
654.592
752.022
629.77
397.749
260.892
200.612
274.712
736.834
572.501
320.595
129.591
58.6723
38.2643
42.0894
35.6549
31.6832
66.0456
40.9186
59.3511
96.7037
95.7648
94.6815
109.646
118.103
88.0905
55.9435
38.284
50.9322
119.782
418.06
430.238
254.164
133.712
101.81
114.291
118.02
75.4354
46.5365
37.3558
38.207
32.9622
25.8735
22.9516
21.872
23.6328
23.9572
20.0297
38.0081
75.6892
159.827
179.265
131.366
119.297
41.5924
40.3675
47.2372
40.188
20.8377
10.283
12.2301
12.0515
8.6942
5.86085
59.5484
79.1307
93.1327
123.715
174.283
239.049
311.586
378.777
434.727
486.354
530.084
583.67
625.5
657.147
690.476
715.753
723.634
710.628
670.204
612.022
546.421
492.714
435.79
367.523
304.049
237.479
177.993
136.126
115.788
88.8587
64.5859
53.0014
51.4455
49.4574
48.45
40.1767
30.2909
29.053
34.291
40.9885
32.2586
16.4768
9.99689
12.462
16.5584
22.785
30.5863
38.9809
21.2065
-21.9468
-6.08954
0.85515
5.05419
7.88096
9.41653
6.84394
0.120905
-8.62061
-7.32174
3.34222
5.26578
1.23119
1.36011
1.07576
-3.37681
-6.07202
-3.98952
0.837648
5.12357
15.6428
103.573
146.97
111.092
46.7589
10.0055
-5.69028
-4.57384
-0.639236
4.15775
6.68123
7.82545
13.4432
17.2777
10.938
2.48057
0.968038
4.18047
6.83346
12.457
16.9164
38.2838
42.8229
25.9622
47.5173
60.6484
59.5662
25.1409
6.47003
2.38209
2.2928
2.29244
2.7041
4.50105
5.46104
531.268
593.012
653.199
673.673
685.13
724.756
757.291
754.69
717.92
662.8
598.457
531.564
466.851
405.151
348.289
296.325
247.752
203.922
165.796
135.586
110.481
91.3642
74.638
58.0551
45.696
34.0883
24.6629
19.9653
17.1284
16.3157
10.5863
5.59172
4.3493
5.20731
7.60742
7.31605
5.58258
4.29359
6.06254
8.62918
7.67991
4.45573
-0.475436
-1.90097
1.42134
6.30128
10.3477
9.10374
-6.76965
-16.4005
-12.0077
-5.68294
-0.065618
3.07387
5.5043
1.90198
-1.04366
-3.46807
-3.18964
0.540121
4.39766
2.00528
-0.262449
-1.01662
-2.69827
-5.01283
-5.70541
-4.92331
0.265446
1.58842
-1.78769
2.70794
5.95864
2.26712
-1.68278
-3.9573
-4.47469
-1.44164
2.36838
3.97442
3.52772
1.502
0.372751
0.34668
0.986051
2.45851
2.76627
2.76598
1.92627
-0.98025
-3.90762
-4.72603
-1.82195
1.8699
5.26504
22.7122
26.9314
20.5364
5.03676
1.36161
1.33183
1.29107
1.93946
2.70313
628.989
576.041
515.876
455.885
395.191
337.002
283.2
233.515
189.546
154.36
125.195
102.52
83.1264
67.0881
54.5744
43.8453
34.7436
26.8295
20.8026
16.1386
12.8383
10.3528
8.24953
6.11972
4.14352
2.90062
2.54043
3.34072
4.37452
4.65979
2.86157
1.57825
1.02039
1.92189
2.21603
1.80053
1.22884
1.05309
1.47786
2.17885
2.23071
0.704364
-0.0189933
0.189041
2.09754
3.35057
5.24459
5.21541
1.00559
-5.07768
-6.36398
-2.30582
0.172158
1.17479
1.24451
0.174005
-1.13591
-1.28643
-0.816468
0.780252
1.93582
1.04376
-0.218045
-0.954081
-2.34023
-4.01848
-5.16001
-5.20371
-2.99017
-1.62603
-3.32507
-4.8296
-5.42441
-4.71017
-4.35081
-3.79088
-2.55855
-0.247849
1.29442
2.39544
1.88854
0.501574
-0.965852
-1.60223
-1.31811
-0.462694
0.625953
0.947126
0.20113
-1.72312
-3.43156
-4.13997
-2.54678
-0.16181
0.860939
1.26202
5.15483
13.1845
13.3078
10.5059
3.57098
3.69897
6.70084
7.02969
131.718
111.427
93.2735
78.0574
64.4408
51.611
41.3675
32.6419
25.2512
19.3519
14.6285
11.0641
8.69099
7.01326
5.70074
4.49018
3.44188
2.59772
2.15074
1.89829
2.0577
2.00239
1.70779
1.28979
0.656201
0.558526
0.877435
1.24244
1.78749
1.70569
1.28079
0.673597
0.513557
0.663413
0.758338
0.796579
0.65877
0.616452
0.612987
1.10086
1.16604
0.870828
0.230251
0.501591
0.749955
0.966231
2.63679
2.64867
1.1329
-2.27047
-3.12974
-1.92207
-1.22033
-0.619293
-0.357348
-0.674796
-1.16509
-1.11218
-1.07255
-0.137022
0.58006
0.270299
-0.76715
-1.54935
-2.43843
-3.71816
-5.47819
-5.29386
-4.73931
-3.83277
-3.42219
-3.64418
-2.74094
-2.22479
-2.62017
-2.31154
-1.35229
-0.4209
0.242166
0.764674
0.415159
-0.235994
-0.85135
-1.12359
-1.01309
-0.669548
-0.331155
-0.213271
-0.831978
-1.74214
-2.84451
-2.86533
-2.03536
-0.860429
0.0858678
0.193494
-0.0177398
0.548194
2.62563
9.36638
10.8954
11.1695
12.2135
13.1037
14.5932
11.3513
8.83861
6.99269
5.53215
4.45163
3.92305
3.48614
3.0627
2.55401
2.21991
1.89108
1.61741
1.36911
1.13636
0.910298
0.702643
0.577713
0.545818
0.581805
0.569338
0.511813
0.383123
0.226363
0.131096
0.143604
0.284755
0.533639
0.838278
1.02128
0.894053
0.664433
0.553888
0.595059
0.583864
0.536876
0.454337
0.352549
0.463456
0.680354
0.759773
0.621903
0.487915
0.639473
0.992883
1.25292
1.94714
1.76568
1.13429
-0.955172
-1.66855
-1.08124
-0.537937
-0.115864
0.0209954
-0.209306
-0.600661
-0.629078
-0.37219
0.101507
0.339855
0.0890221
-0.42126
-1.09643
-1.9642
-3.23294
-4.27636
-4.92096
-4.87536
-4.09168
-3.06072
-2.74081
-1.51167
-1.47211
-1.98758
-1.52747
-0.975889
-0.626201
-0.235459
0.0735053
0.0481889
-0.411419
-0.978716
-1.27401
-1.1977
-1.16013
-1.02475
-0.974332
-1.30089
-1.83183
-2.34445
-2.59163
-2.28301
-1.66146
-1.05307
-0.612966
-0.65593
-0.623325
-0.379767
1.18388
2.25617
3.07668
7.48315
8.70411
1.18486
0.973964
0.815998
0.665557
0.509425
0.587709
0.685463
0.791129
0.823103
0.783139
0.66743
0.488992
0.292016
0.176565
0.158003
0.127367
0.0743268
0.0225354
0.0119651
0.00973148
0.050878
0.0944311
0.115546
0.131087
0.127281
0.185258
0.351232
0.519134
0.76377
0.821757
0.751804
0.63648
0.547866
0.546319
0.511262
0.546201
0.510589
0.513052
0.565064
0.697573
0.747666
0.724141
0.714382
0.72146
0.77313
0.923576
1.20652
1.12065
0.745711
-0.417509
-0.823371
-0.782312
-0.838896
-0.760284
-0.747986
-0.911025
-0.983281
-0.862904
-0.751047
-0.600872
-0.349067
-0.425132
-0.86318
-1.37205
-2.10117
-3.03477
-3.81382
-4.66737
-4.92742
-4.1899
-3.25751
-2.40007
-1.61956
-1.26928
-1.08221
-0.947012
-0.796991
-0.669518
-0.491552
-0.382091
-0.445397
-0.346356
0.475359
0.0690485
-0.873191
-1.34369
-1.29815
-1.3662
-1.60903
-1.90875
-2.27539
-2.51166
-2.41966
-2.20076
-1.76411
-1.2666
-1.08719
-0.802048
-0.450104
-0.0634824
0.114606
0.476166
1.11041
1.6202
-0.11935
-0.223658
-0.328492
-0.40464
-0.408765
-0.288168
-0.158356
-0.0413258
0.0579256
0.101557
0.127204
0.117267
0.0916106
0.0924026
0.10647
0.102699
0.0848739
0.0786208
0.0942693
0.133658
0.1685
0.196388
0.203098
0.214292
0.230719
0.297036
0.410826
0.525024
0.647613
0.709318
0.691406
0.641554
0.602339
0.586173
0.564375
0.570072
0.537778
0.527184
0.573899
0.65433
0.692778
0.721095
0.725439
0.758133
0.815676
0.983094
1.02952
0.894631
0.596056
-0.0680192
-0.356605
-0.384295
-0.34609
-0.217205
-0.217514
-0.239238
-0.37702
-0.410545
-0.152217
0.383439
0.543465
0.246019
-0.456139
-1.10838
-1.84313
-2.52175
-2.11926
-1.94045
-3.07368
-3.62732
-3.19781
-2.35937
-1.74689
-1.43062
-1.16225
-0.904868
-0.669983
-0.530465
-0.347746
0.00560838
1.50863
1.68514
1.44361
0.832899
-0.639618
-1.28198
-1.39175
-1.50829
-1.70998
-1.96415
-2.29727
-2.53846
-2.60683
-2.52661
-2.24225
-1.9136
-1.54097
-1.09543
-0.482345
-0.0417667
0.214832
0.568366
1.0111
1.28766
-0.471366
-0.489766
-0.466767
-0.417732
-0.320693
-0.185063
-0.0521673
0.0696663
0.169731
0.220605
0.225582
0.201451
0.167144
0.150295
0.151224
0.143399
0.138628
0.135285
0.138347
0.145054
0.162708
0.190934
0.226387
0.269152
0.316679
0.382809
0.467081
0.548383
0.645269
0.685391
0.681649
0.649384
0.621996
0.606803
0.593532
0.586977
0.580055
0.593904
0.630429
0.67902
0.707203
0.732284
0.761999
0.758296
0.742386
0.751644
0.767575
0.672395
0.448507
0.0571023
-0.160914
-0.302115
-0.433852
-0.496875
-0.530251
-0.598459
-0.615161
0.125754
2.16905
2.32631
2.38397
0.953562
-0.678812
-1.29971
-1.85312
-2.28174
-1.15668
-0.619907
-0.757886
-1.54712
-2.58053
-2.2954
-1.7596
-1.32079
-1.02321
-0.715147
-0.512609
-0.413132
-0.263532
0.654074
1.19216
0.419996
-0.585754
-1.0976
-1.26813
-1.41516
-1.53264
-1.66043
-1.83643
-2.0398
-2.3099
-2.54766
-2.6847
-2.6956
-2.52565
-2.28988
-1.86166
-1.20935
0.0439889
0.446747
0.45271
0.651521
1.02987
1.17015
-0.280131
-0.287534
-0.279837
-0.254586
-0.194862
-0.10306
-0.0170144
0.0665371
0.1256
0.15855
0.175239
0.178434
0.175812
0.186776
0.2002
0.205244
0.212103
0.220566
0.234206
0.255578
0.281241
0.308641
0.33568
0.365397
0.39991
0.448897
0.508486
0.565866
0.624179
0.651721
0.657697
0.648708
0.638352
0.627975
0.622003
0.621296
0.6197
0.628077
0.647838
0.679469
0.736594
0.771445
0.772932
0.761794
0.719857
0.717362
0.678088
0.573508
0.399183
0.151516
-0.0294924
-0.133275
-0.183551
-0.14966
-0.0454412
0.864599
1.02891
1.0809
0.891355
0.540733
0.139998
-0.281036
-0.672936
-1.11916
-1.60392
-2.07693
-2.27902
-0.898896
-0.0925744
-1.43643
-2.34756
-2.09522
-1.62987
-1.20635
-0.852999
-0.562386
-0.399387
-0.257529
-0.15029
-0.167242
-0.2765
-0.529319
-0.805547
-1.05624
-1.25908
-1.42957
-1.55213
-1.67707
-1.81574
-2.00937
-2.2807
-2.53649
-2.73214
-2.82713
-2.74069
-2.54698
-2.02575
-0.422925
0.712872
1.2775
0.979118
0.665639
0.893181
0.974712
-0.218433
-0.215851
-0.189342
-0.141087
-0.0752301
0.00241368
0.0769637
0.145395
0.199211
0.233507
0.251902
0.257706
0.256411
0.257641
0.259659
0.257841
0.259186
0.261852
0.269908
0.281192
0.297959
0.322182
0.35121
0.386294
0.427155
0.473439
0.523605
0.57201
0.617513
0.646647
0.65544
0.652183
0.645398
0.63709
0.632851
0.630178
0.628297
0.63357
0.651583
0.716304
0.754181
0.763719
0.763784
0.7161
0.663288
0.629719
0.579414
0.497605
0.365951
0.194859
0.0451971
-0.0709396
-0.105629
-0.121918
-0.163894
-0.19875
-0.220048
-0.224287
-0.218549
0.175686
-0.0790734
-0.523196
-0.890739
-1.21752
-1.59775
-1.93964
-1.80342
-1.02669
-1.58386
-2.18687
-2.25881
-1.87675
-1.45755
-1.06627
-0.757014