/*--------------------------------*- C++ -*----------------------------------*\
| =========                 |                                                 |
| \\      /  F ield         | OpenFOAM: The Open Source CFD Toolbox           |
|  \\    /   O peration     | Version:  v1912                                 |
|   \\  /    A nd           | Website:  www.openfoam.com                      |
|    \\/     M anipulation  |                                                 |
\*---------------------------------------------------------------------------*/
FoamFile
{
    version     2.0;
    format      ascii;
    class       volScalarField;
    location    "30";
    object      p_rgh;
}
// * * * * * * * * * * * * * * * * * * * * * * * * * * * * * * * * * * * * * //

dimensions      [1 -1 -2 0 0 0 0];


internalField   nonuniform List<scalar> 
14268
(
29.2561
29.7713
26.5308
7.82157
3.06232
2.29869
2.49183
2.79751
3.06633
3.73019
3.97337
3.78567
2.65185
2.90377
2.96066
2.6896
3.53138
7.09443
15.374
20.0808
21.2001
16.7273
13.8467
13.5911
13.8883
13.6589
12.5745
12.0041
12.0783
11.9058
10.1546
5.53671
1.28358
0.661453
0.638088
0.617614
0.597599
0.57721
0.556647
0.536202
0.516121
0.496587
0.477723
0.459609
0.442281
0.425753
0.410015
0.395043
0.380799
0.367243
0.354329
0.342012
0.330249
0.318993
0.308206
0.297848
0.287888
0.278292
0.269035
0.260091
0.251438
0.243059
0.234937
0.227058
0.21941
0.211981
0.204762
0.197745
0.190923
0.184291
0.177842
0.171571
0.165475
0.159549
0.15379
0.148194
0.142758
0.137479
0.132354
0.12738
0.122554
0.117875
0.113337
0.108941
0.104681
0.100559
0.0965636
0.0927069
0.0889644
0.0853651
0.0818607
0.0785138
0.0752292
0.0721336
0.0690455
0.0662061
0.0632839
0.0607135
0.0579181
0.0556383
0.0529226
0.0509615
0.0482746
0.0466601
0.0439579
0.0427039
0.0399657
0.0390531
0.0363025
0.0356585
0.032981
0.0324676
0.0300135
0.0294368
0.0273969
0.0265476
0.0250969
0.0238201
0.0230399
0.0213132
0.021122
0.0191054
0.019239
0.0172567
0.0173286
0.0157664
0.0154059
0.0145516
0.0135662
0.0134651
0.0119459
0.0123528
0.0106537
0.0111246
0.00970845
0.00979716
0.00902249
0.00848032
0.00844451
0.00731215
0.00783583
0.00638347
0.00713279
0.00569798
0.00635893
0.00518724
0.00558766
0.00476143
0.00488877
0.00435667
7.51938
17.0829
22.8425
10.3303
2.23349
1.61194
1.91536
2.05607
1.9816
2.26936
3.17843
3.50431
2.62941
5.68806
5.97564
4.38435
3.39202
3.21768
3.8201
11.1817
21.1483
21.9582
18.3646
9.74832
3.83246
3.27344
3.16847
3.17859
3.35182
3.68538
3.97808
3.7288
2.15222
0.768806
0.637915
0.617554
0.597555
0.577167
0.556605
0.53616
0.51608
0.496547
0.477685
0.459572
0.442246
0.42572
0.409983
0.395012
0.38077
0.367215
0.354302
0.341987
0.330225
0.31897
0.308184
0.297827
0.287867
0.278273
0.269016
0.260072
0.251421
0.243042
0.234921
0.227042
0.219394
0.211966
0.204747
0.197731
0.190909
0.184277
0.177828
0.171558
0.165462
0.159537
0.153778
0.148182
0.142747
0.137468
0.132343
0.12737
0.122544
0.117865
0.113328
0.108932
0.104672
0.100551
0.0965555
0.092699
0.0889568
0.0853578
0.0818536
0.078507
0.0752226
0.0721273
0.0690393
0.0662002
0.0632781
0.0607081
0.0579127
0.0556334
0.0529174
0.050957
0.0482697
0.0466561
0.0439533
0.0427003
0.0399614
0.0390498
0.0362985
0.0356555
0.0329774
0.0324647
0.0300104
0.0294339
0.0273943
0.0265447
0.0250948
0.0238171
0.0230382
0.0213103
0.0211205
0.0191029
0.0192374
0.0172547
0.0173268
0.015765
0.0154038
0.0145507
0.013564
0.0134644
0.0119439
0.012352
0.0106522
0.0111235
0.00970752
0.00979572
0.00902205
0.00847869
0.00844432
0.0073106
0.00783562
0.0063822
0.00713241
0.00569704
0.00635837
0.00518658
0.00558701
0.00476093
0.00488814
0.00435623
4.28298
6.50972
19.8213
19.4468
3.35851
1.61864
2.67465
2.05128
1.94937
2.11282
2.44576
2.82889
2.98223
7.61513
8.96432
8.72328
8.00624
5.6122
3.81978
7.50535
19.3189
22.2567
22.4807
20.3899
9.44991
3.3756
3.1441
3.15049
3.3315
3.87246
3.00065
2.11364
1.19914
0.689579
0.637612
0.617466
0.597506
0.577124
0.556562
0.536118
0.516039
0.496506
0.477646
0.459534
0.44221
0.425686
0.409951
0.394981
0.380741
0.367187
0.354276
0.341962
0.3302
0.318947
0.308161
0.297806
0.287847
0.278253
0.268997
0.260054
0.251403
0.243025
0.234904
0.227025
0.219378
0.21195
0.204732
0.197716
0.190895
0.184263
0.177815
0.171545
0.16545
0.159525
0.153766
0.148171
0.142735
0.137457
0.132333
0.12736
0.122534
0.117856
0.113318
0.108923
0.104663
0.100542
0.0965473
0.0926911
0.0889491
0.0853504
0.0818464
0.0785001
0.0752158
0.0721208
0.069033
0.0661943
0.0632722
0.0607026
0.0579072
0.0556284
0.0529122
0.0509525
0.0482649
0.046652
0.0439487
0.0426966
0.0399571
0.0390465
0.0362945
0.0356523
0.0329738
0.0324617
0.0300073
0.0294309
0.0273917
0.0265416
0.0250927
0.0238141
0.0230365
0.0213074
0.0211189
0.0191004
0.0192357
0.0172527
0.0173249
0.0157636
0.0154017
0.0145497
0.0135618
0.0134637
0.0119419
0.0123512
0.0106507
0.0111223
0.00970662
0.00979424
0.00902159
0.00847709
0.00844405
0.00730911
0.0078353
0.00638102
0.00713191
0.0056962
0.0063577
0.00518599
0.00558629
0.00476047
0.00488746
0.00435581
3.79226
3.96735
11.1732
19.8256
4.25887
1.92975
9.70278
3.97497
1.99463
2.01865
2.20881
2.42709
6.99718
2.3454
3.06529
8.19261
9.68465
9.57363
6.31543
6.66618
12.1368
18.0656
17.9349
17.6544
18.3606
12.2816
6.2204
4.88929
4.76661
4.5177
3.84991
2.22327
0.897059
0.656986
0.637143
0.617351
0.597453
0.577079
0.556519
0.536075
0.515997
0.496466
0.477607
0.459497
0.442174
0.425651
0.409918
0.39495
0.380711
0.367159
0.354249
0.341936
0.330176
0.318923
0.308139
0.297784
0.287826
0.278233
0.268977
0.260035
0.251385
0.243007
0.234887
0.227009
0.219362
0.211935
0.204717
0.197701
0.190881
0.18425
0.177802
0.171532
0.165437
0.159512
0.153754
0.148159
0.142724
0.137446
0.132322
0.127349
0.122524
0.117846
0.113309
0.108914
0.104654
0.100533
0.096539
0.0926831
0.0889414
0.0853429
0.0818391
0.0784931
0.0752091
0.0721144
0.0690267
0.0661883
0.0632663
0.0606971
0.0579016
0.0556233
0.0529071
0.0509478
0.04826
0.0466477
0.0439441
0.0426928
0.0399528
0.0390429
0.0362906
0.035649
0.0329703
0.0324585
0.0300043
0.0294278
0.0273892
0.0265386
0.0250906
0.0238111
0.0230346
0.0213046
0.0211172
0.019098
0.0192339
0.0172508
0.0173229
0.0157622
0.0153995
0.0145488
0.0135596
0.0134628
0.0119401
0.0123502
0.0106493
0.0111211
0.00970574
0.00979272
0.0090211
0.0084755
0.0084437
0.00730769
0.00783487
0.00637992
0.00713129
0.00569543
0.00635693
0.00518546
0.00558548
0.00476005
0.00488672
0.0043554
5.83505
3.15844
4.66986
19.8627
12.681
3.95361
16.7378
12.2096
6.14651
3.27498
2.20569
2.20687
8.95823
2.09998
2.12898
2.07397
2.97168
5.03921
6.37661
6.08881
6.51906
5.0954
3.5301
4.68485
8.77494
11.1248
11.2045
10.5375
8.04744
5.94889
5.31635
3.06625
1.05975
0.654542
0.636651
0.617228
0.597398
0.577034
0.556475
0.536032
0.515954
0.496424
0.477567
0.459458
0.442137
0.425616
0.409885
0.394918
0.380681
0.36713
0.354221
0.34191
0.330151
0.3189
0.308116
0.297762
0.287805
0.278212
0.268958
0.260016
0.251367
0.24299
0.23487
0.226992
0.219346
0.211919
0.204702
0.197687
0.190867
0.184236
0.177788
0.171519
0.165424
0.1595
0.153742
0.148147
0.142713
0.137435
0.132311
0.127339
0.122514
0.117836
0.113299
0.108905
0.104645
0.100525
0.0965306
0.092675
0.0889335
0.0853354
0.0818318
0.078486
0.0752022
0.0721078
0.0690203
0.0661822
0.0632604
0.0606915
0.0578961
0.0556181
0.0529019
0.0509431
0.0482551
0.0466434
0.0439396
0.0426888
0.0399487
0.0390393
0.0362868
0.0356456
0.0329669
0.0324552
0.0300013
0.0294246
0.0273866
0.0265354
0.0250884
0.023808
0.0230327
0.0213019
0.0211153
0.0190956
0.019232
0.017249
0.0173208
0.0157609
0.0153973
0.0145478
0.0135575
0.0134619
0.0119382
0.0123492
0.010648
0.0111197
0.00970489
0.00979117
0.00902059
0.00847393
0.00844328
0.00730633
0.00783433
0.0063789
0.00713055
0.00569475
0.00635606
0.00518499
0.0055846
0.00475966
0.00488593
0.00435501
8.62353
2.34636
2.64454
11.5096
8.75893
9.94847
16.7708
16.9521
13.2241
8.13794
2.75399
2.08593
8.97038
2.34165
2.06768
1.79127
1.61982
1.68802
5.30676
5.46969
4.46506
2.59871
1.4617
1.44104
2.15909
3.1156
2.78375
2.52822
3.90722
5.85115
5.89995
4.45656
1.53643
0.652046
0.636133
0.617102
0.597342
0.576989
0.556431
0.535989
0.515911
0.496383
0.477526
0.459419
0.4421
0.425581
0.409851
0.394886
0.38065
0.367101
0.354194
0.341884
0.330125
0.318875
0.308093
0.29774
0.287783
0.278192
0.268938
0.259997
0.251348
0.242972
0.234852
0.226976
0.21933
0.211903
0.204686
0.197672
0.190852
0.184222
0.177774
0.171506
0.165411
0.159487
0.15373
0.148136
0.142701
0.137424
0.1323
0.127328
0.122504
0.117826
0.11329
0.108896
0.104636
0.100516
0.0965222
0.0926668
0.0889256
0.0853277
0.0818244
0.0784789
0.0751954
0.0721012
0.0690139
0.0661761
0.0632544
0.0606858
0.0578905
0.0556129
0.0528967
0.0509383
0.0482503
0.046639
0.0439351
0.0426847
0.0399445
0.0390354
0.036283
0.035642
0.0329636
0.0324518
0.0299983
0.0294213
0.0273841
0.0265322
0.0250862
0.023805
0.0230307
0.0212992
0.0211134
0.0190933
0.01923
0.0172472
0.0173186
0.0157595
0.0153951
0.0145467
0.0135554
0.0134609
0.0119364
0.012348
0.0106467
0.0111183
0.00970408
0.00978958
0.00902006
0.00847238
0.00844279
0.00730504
0.00783368
0.00637797
0.00712971
0.00569415
0.00635509
0.0051846
0.00558364
0.00475932
0.00488509
0.00435464
2.30411
2.01537
2.06135
4.21722
4.82562
16.1021
10.6932
17.0504
17.0309
12.5403
4.28937
2.06501
5.89531
2.90206
2.35952
1.79103
1.51777
1.32969
2.24071
4.99048
5.03706
3.12722
1.26191
1.17998
1.2157
1.40984
1.51961
1.53428
2.11941
4.35649
5.9065
5.92639
2.66866
0.711241
0.635655
0.616989
0.597289
0.576944
0.556387
0.535945
0.515868
0.49634
0.477486
0.45938
0.442062
0.425545
0.409817
0.394853
0.380619
0.367071
0.354165
0.341857
0.3301
0.318851
0.308069
0.297718
0.287762
0.278171
0.268918
0.259978
0.251329
0.242954
0.234835
0.226959
0.219314
0.211887
0.204671
0.197657
0.190838
0.184207
0.177761
0.171492
0.165398
0.159475
0.153717
0.148124
0.14269
0.137413
0.132289
0.127318
0.122494
0.117816
0.11328
0.108886
0.104627
0.100507
0.0965137
0.0926586
0.0889177
0.08532
0.081817
0.0784717
0.0751884
0.0720945
0.0690074
0.0661698
0.0632484
0.0606801
0.0578849
0.0556076
0.0528915
0.0509333
0.0482455
0.0466344
0.0439307
0.0426805
0.0399405
0.0390315
0.0362794
0.0356383
0.0329603
0.0324483
0.0299955
0.0294179
0.0273816
0.026529
0.025084
0.023802
0.0230287
0.0212965
0.0211114
0.0190911
0.0192278
0.0172454
0.0173164
0.0157582
0.0153928
0.0145457
0.0135533
0.0134599
0.0119347
0.0123468
0.0106455
0.0111168
0.0097033
0.00978796
0.00901952
0.00847086
0.00844224
0.00730382
0.00783295
0.00637714
0.00712876
0.00569365
0.00635404
0.00518427
0.00558262
0.00475903
0.00488422
0.0043543
9.30631
5.64172
2.08487
1.6688
2.54168
16.1954
2.56312
7.93153
3.50069
2.71087
4.24989
2.21196
2.82607
2.10735
2.39624
2.10804
1.57096
1.22412
1.33147
4.01424
5.67258
5.53429
3.34094
1.31002
1.189
1.51508
2.88843
3.48679
2.64752
2.68199
3.71769
4.5264
3.7161
1.09226
0.635179
0.616897
0.59724
0.576899
0.556343
0.535901
0.515824
0.496298
0.477444
0.45934
0.442024
0.425508
0.409782
0.39482
0.380588
0.367041
0.354137
0.34183
0.330074
0.318826
0.308046
0.297695
0.28774
0.27815
0.268898
0.259958
0.25131
0.242935
0.234817
0.226941
0.219297
0.211871
0.204655
0.197641
0.190823
0.184193
0.177747
0.171479
0.165385
0.159462
0.153705
0.148111
0.142678
0.137401
0.132278
0.127307
0.122483
0.117806
0.11327
0.108877
0.104618
0.100498
0.0965051
0.0926503
0.0889096
0.0853123
0.0818095
0.0784645
0.0751814
0.0720878
0.0690009
0.0661636
0.0632423
0.0606742
0.0578793
0.0556022
0.0528863
0.0509283
0.0482407
0.0466298
0.0439263
0.0426761
0.0399365
0.0390274
0.0362758
0.0356344
0.0329571
0.0324446
0.0299926
0.0294144
0.0273791
0.0265257
0.0250818
0.023799
0.0230266
0.0212939
0.0211092
0.0190889
0.0192256
0.0172438
0.0173141
0.0157569
0.0153905
0.0145446
0.0135512
0.0134588
0.0119331
0.0123454
0.0106443
0.0111153
0.00970255
0.00978632
0.00901897
0.00846937
0.00844162
0.00730267
0.00783212
0.00637641
0.00712771
0.00569324
0.00635289
0.00518403
0.00558153
0.00475879
0.0048833
0.00435399
17.0703
14.7072
4.37641
1.55174
1.59746
16.3042
2.05076
2.33317
1.91705
2.08599
3.41666
2.29727
1.92548
1.82165
2.02503
2.12145
1.79353
1.19597
1.13321
2.77166
5.67617
5.74312
5.72596
2.93558
1.20484
1.95778
4.33697
4.57006
4.19128
2.09145
2.05527
2.59942
2.79801
1.61937
0.715431
0.616862
0.597202
0.576856
0.556298
0.535856
0.51578
0.496255
0.477402
0.4593
0.441985
0.425471
0.409747
0.394787
0.380556
0.367011
0.354108
0.341802
0.330048
0.318801
0.308021
0.297672
0.287718
0.278129
0.268877
0.259939
0.251291
0.242917
0.234799
0.226924
0.21928
0.211855
0.204639
0.197626
0.190808
0.184178
0.177732
0.171465
0.165372
0.159449
0.153692
0.148099
0.142666
0.13739
0.132267
0.127296
0.122473
0.117796
0.113261
0.108867
0.104609
0.100489
0.0964964
0.0926419
0.0889015
0.0853044
0.0818019
0.0784572
0.0751744
0.072081
0.0689944
0.0661572
0.0632362
0.0606683
0.0578737
0.0555967
0.0528811
0.0509232
0.0482359
0.046625
0.0439219
0.0426717
0.0399325
0.0390232
0.0362722
0.0356305
0.032954
0.0324408
0.0299899
0.0294108
0.0273766
0.0265224
0.0250795
0.023796
0.0230244
0.0212913
0.021107
0.0190869
0.0192233
0.0172422
0.0173117
0.0157557
0.0153882
0.0145434
0.0135492
0.0134576
0.0119315
0.012344
0.0106433
0.0111136
0.00970185
0.00978466
0.0090184
0.0084679
0.00844095
0.00730159
0.0078312
0.00637576
0.00712656
0.00569293
0.00635165
0.00518386
0.00558038
0.0047586
0.00488234
0.00435371
17.1551
17.3251
10.2525
1.79265
1.53091
10.3236
1.93318
1.93636
1.80017
2.00644
2.62881
2.28823
2.16654
1.76844
1.67106
1.68557
1.41162
1.16446
1.0876
1.73083
4.5011
5.74372
5.78481
4.89216
1.93722
1.22062
1.46858
4.04244
4.40513
2.55931
1.24977
1.43514
1.88884
1.83888
0.973381
0.617823
0.597175
0.576815
0.556254
0.535811
0.515736
0.496211
0.47736
0.459259
0.441946
0.425434
0.409711
0.394753
0.380524
0.36698
0.354079
0.341774
0.330021
0.318776
0.307997
0.297649
0.287695
0.278107
0.268856
0.259919
0.251272
0.242898
0.234781
0.226907
0.219263
0.211838
0.204623
0.197611
0.190793
0.184164
0.177718
0.171451
0.165358
0.159436
0.15368
0.148087
0.142654
0.137378
0.132256
0.127285
0.122462
0.117786
0.113251
0.108858
0.1046
0.10048
0.0964877
0.0926335
0.0888934
0.0852966
0.0817943
0.0784498
0.0751673
0.0720741
0.0689878
0.0661509
0.0632301
0.0606624
0.057868
0.0555911
0.0528759
0.0509181
0.0482312
0.0466201
0.0439176
0.0426671
0.0399286
0.0390189
0.0362688
0.0356263
0.0329509
0.0324369
0.0299872
0.0294071
0.0273742
0.026519
0.0250772
0.023793
0.0230221
0.0212888
0.0211047
0.0190849
0.0192209
0.0172406
0.0173093
0.0157544
0.0153859
0.0145423
0.0135472
0.0134563
0.01193
0.0123425
0.0106422
0.011112
0.00970118
0.00978297
0.00901783
0.00846647
0.00844022
0.00730059
0.00783019
0.00637522
0.00712531
0.0056927
0.00635033
0.00518376
0.00557917
0.00475846
0.00488135
0.00435346
12.2873
17.4411
17.3198
3.03294
1.51399
3.56947
1.87506
1.91625
1.79414
2.02089
2.25671
2.30161
3.87643
1.84136
1.66287
1.46062
1.27921
1.15578
1.07617
1.23596
2.19744
3.80765
5.03785
5.1469
3.12986
1.21186
1.12338
1.94884
4.30818
2.84532
1.05543
0.926901
1.06224
1.07007
0.795129
0.624478
0.59715
0.576772
0.556209
0.535766
0.515691
0.496167
0.477317
0.459218
0.441907
0.425396
0.409675
0.394718
0.380491
0.366949
0.354049
0.341746
0.329994
0.31875
0.307973
0.297625
0.287673
0.278085
0.268835
0.259898
0.251253
0.242879
0.234763
0.226889
0.219246
0.211822
0.204607
0.197595
0.190778
0.184149
0.177704
0.171437
0.165345
0.159423
0.153667
0.148075
0.142642
0.137366
0.132245
0.127274
0.122452
0.117775
0.113241
0.108848
0.10459
0.100471
0.0964789
0.092625
0.0888852
0.0852886
0.0817866
0.0784424
0.0751601
0.0720672
0.0689811
0.0661444
0.063224
0.0606564
0.0578623
0.0555855
0.0528707
0.0509128
0.0482264
0.0466152
0.0439133
0.0426624
0.0399248
0.0390144
0.0362654
0.0356221
0.0329479
0.0324329
0.0299845
0.0294034
0.0273718
0.0265156
0.0250749
0.0237901
0.0230198
0.0212863
0.0211023
0.0190829
0.0192184
0.0172391
0.0173067
0.0157532
0.0153836
0.0145411
0.0135452
0.013455
0.0119285
0.0123409
0.0106413
0.0111102
0.00970055
0.00978125
0.00901724
0.00846505
0.00843943
0.00729965
0.00782908
0.00637475
0.00712396
0.00569257
0.00634892
0.00518373
0.00557789
0.00475836
0.00488031
0.00435323
2.94649
17.3741
17.5279
4.34045
1.49462
1.83383
1.75442
1.81958
2.07236
3.13228
3.27605
2.59797
4.24077
1.75114
1.62701
1.38085
1.39237
1.5735
1.42089
1.22237
1.31599
1.40152
1.5615
2.674
2.80957
1.55797
1.1069
1.41796
3.57788
3.01399
1.36571
0.696169
0.692977
0.686915
0.655648
0.619474
0.597116
0.576728
0.556163
0.53572
0.515645
0.496122
0.477274
0.459176
0.441866
0.425357
0.409638
0.394683
0.380458
0.366918
0.354019
0.341717
0.329967
0.318724
0.307948
0.297601
0.28765
0.278063
0.268814
0.259878
0.251233
0.24286
0.234744
0.226871
0.219229
0.211805
0.204591
0.197579
0.190762
0.184134
0.177689
0.171423
0.165331
0.159409
0.153654
0.148062
0.14263
0.137355
0.132233
0.127263
0.122441
0.117765
0.113231
0.108838
0.104581
0.100462
0.0964701
0.0926164
0.0888769
0.0852806
0.0817789
0.0784349
0.0751529
0.0720602
0.0689744
0.0661379
0.0632178
0.0606503
0.0578566
0.0555798
0.0528655
0.0509074
0.0482217
0.0466101
0.0439091
0.0426576
0.039921
0.0390099
0.0362621
0.0356177
0.032945
0.0324287
0.0299819
0.0293995
0.0273694
0.0265121
0.0250726
0.0237871
0.0230174
0.0212839
0.0210998
0.019081
0.0192157
0.0172377
0.0173041
0.015752
0.0153812
0.0145399
0.0135433
0.0134536
0.0119272
0.0123392
0.0106404
0.0111084
0.00969995
0.0097795
0.00901664
0.00846366
0.00843857
0.00729878
0.00782788
0.00637438
0.0071225
0.00569252
0.00634741
0.00518377
0.00557654
0.00475831
0.00487923
0.00435302
1.87569
7.96614
13.4546
5.23164
1.49064
1.62425
1.73038
1.93261
2.37143
5.32406
5.89336
5.72026
3.25762
1.69512
1.61933
1.50286
1.84214
2.39663
2.1998
1.53887
1.29683
1.26899
1.28575
1.46027
1.81466
1.67235
1.11259
1.33057
3.60502
3.54663
1.78381
0.711902
0.665096
0.652445
0.635956
0.617035
0.597082
0.576683
0.556117
0.535674
0.5156
0.496077
0.47723
0.459134
0.441826
0.425319
0.409601
0.394648
0.380424
0.366886
0.353989
0.341688
0.329939
0.318698
0.307923
0.297577
0.287627
0.278041
0.268793
0.259857
0.251213
0.242841
0.234726
0.226853
0.219211
0.211788
0.204575
0.197563
0.190747
0.184119
0.177675
0.171409
0.165318
0.159396
0.153641
0.14805
0.142618
0.137343
0.132222
0.127252
0.12243
0.117754
0.11322
0.108828
0.104571
0.100453
0.0964611
0.0926078
0.0888685
0.0852725
0.0817711
0.0784274
0.0751457
0.0720531
0.0689677
0.0661313
0.0632115
0.0606441
0.0578509
0.055574
0.0528603
0.050902
0.048217
0.046605
0.0439049
0.0426527
0.0399173
0.0390051
0.0362588
0.0356132
0.0329422
0.0324245
0.0299794
0.0293956
0.027367
0.0265086
0.0250703
0.0237841
0.023015
0.0212815
0.0210972
0.0190792
0.019213
0.0172363
0.0173015
0.0157508
0.0153788
0.0145387
0.0135414
0.0134521
0.0119258
0.0123375
0.0106396
0.0111064
0.00969938
0.00977772
0.00901602
0.00846229
0.00843765
0.00729797
0.00782658
0.00637409
0.00712095
0.00569255
0.00634582
0.00518387
0.00557512
0.00475831
0.0048781
0.00435284
1.65527
4.8411
9.59524
5.26008
1.51502
1.66889
1.70497
1.96784
2.46012
8.19363
9.85839
11.944
3.53685
1.8082
1.58804
1.50422
2.16508
2.86132
2.80492
2.21718
1.32384
1.24381
1.2578
1.46255
1.84166
1.77226
1.41512
1.31924
3.31549
4.86512
3.43515
0.986803
0.661025
0.651768
0.635787
0.616903
0.597022
0.576637
0.556071
0.535627
0.515553
0.496032
0.477186
0.459091
0.441785
0.425279
0.409564
0.394612
0.38039
0.366853
0.353958
0.341659
0.329911
0.318671
0.307897
0.297553
0.287603
0.278019
0.268771
0.259837
0.251193
0.242822
0.234707
0.226835
0.219194
0.211771
0.204558
0.197547
0.190731
0.184104
0.17766
0.171395
0.165304
0.159383
0.153628
0.148037
0.142605
0.137331
0.13221
0.127241
0.122419
0.117744
0.11321
0.108818
0.104562
0.100444
0.0964521
0.092599
0.0888601
0.0852643
0.0817633
0.0784198
0.0751384
0.072046
0.0689609
0.0661246
0.0632053
0.0606379
0.0578452
0.0555682
0.052855
0.0508964
0.0482123
0.0465997
0.0439007
0.0426476
0.0399137
0.0390003
0.0362556
0.0356086
0.0329394
0.0324201
0.0299769
0.0293916
0.0273647
0.0265051
0.0250679
0.0237811
0.0230125
0.0212792
0.0210945
0.0190775
0.0192102
0.017235
0.0172987
0.0157497
0.0153764
0.0145374
0.0135395
0.0134505
0.0119245
0.0123356
0.0106388
0.0111045
0.00969885
0.00977591
0.00901538
0.00846094
0.00843667
0.00729722
0.00782519
0.00637389
0.00711929
0.00569267
0.00634413
0.00518405
0.00557363
0.00475834
0.00487693
0.00435268
1.60979
3.35731
9.0367
9.05791
1.86028
1.89631
1.84806
1.77682
2.70191
10.728
11.9924
12.0058
7.20922
2.01892
1.57729
1.32659
1.22645
1.57061
2.95819
2.9805
2.30383
1.77799
1.9922
3.54192
3.83699
3.5025
2.48288
1.33856
1.84539
5.61052
5.60605
2.96034
0.912541
0.651071
0.63559
0.616815
0.59695
0.576568
0.556001
0.535557
0.515483
0.495963
0.477119
0.459026
0.441722
0.425219
0.409507
0.394558
0.380338
0.366804
0.353911
0.341615
0.329869
0.31863
0.307858
0.297516
0.287568
0.277985
0.268739
0.259805
0.251162
0.242792
0.234679
0.226807
0.219167
0.211745
0.204533
0.197523
0.190708
0.184081
0.177638
0.171373
0.165283
0.159362
0.153608
0.148018
0.142587
0.137313
0.132193
0.127224
0.122403
0.117728
0.113195
0.108803
0.104547
0.10043
0.0964385
0.0925858
0.0888474
0.085252
0.0817514
0.0784082
0.0751273
0.0720352
0.0689507
0.0661146
0.0631959
0.0606284
0.0578365
0.0555593
0.0528472
0.050888
0.0482052
0.0465916
0.0438945
0.0426399
0.0399082
0.0389928
0.0362509
0.0356014
0.0329353
0.0324134
0.0299732
0.0293854
0.0273612
0.0264997
0.0250643
0.0237767
0.0230086
0.0212757
0.0210903
0.0190749
0.0192059
0.017233
0.0172945
0.015748
0.0153727
0.0145355
0.0135367
0.0134481
0.0119227
0.0123327
0.0106377
0.0111014
0.00969809
0.00977316
0.00901441
0.00845895
0.00843511
0.00729619
0.00782298
0.00637371
0.00711665
0.00569297
0.00634147
0.0051844
0.00557131
0.00475846
0.00487511
0.00435248
1.53809
1.87398
6.61596
9.69993
2.72808
2.71395
2.06855
1.63887
6.17591
3.42379
4.77169
12.103
6.34103
1.71704
1.52398
1.26101
1.09328
0.973336
1.10189
3.85689
4.152
4.45513
4.39629
4.75762
4.84914
4.86963
4.19541
1.7579
1.21475
2.74279
4.72329
4.6516
1.97483
0.672794
0.635508
0.616724
0.596861
0.576476
0.555907
0.535461
0.515388
0.495869
0.477027
0.458937
0.441637
0.425138
0.409429
0.394484
0.380268
0.366737
0.353847
0.341554
0.329811
0.318575
0.307806
0.297465
0.28752
0.277938
0.268694
0.259762
0.251121
0.242752
0.23464
0.22677
0.219131
0.21171
0.204499
0.19749
0.190676
0.18405
0.177608
0.171344
0.165254
0.159335
0.153582
0.147992
0.142561
0.137288
0.132169
0.127201
0.12238
0.117706
0.113174
0.108783
0.104527
0.100411
0.0964201
0.092568
0.0888301
0.0852353
0.0817353
0.0783926
0.0751123
0.0720207
0.0689368
0.066101
0.063183
0.0606158
0.0578247
0.0555474
0.0528363
0.0508769
0.0481953
0.0465811
0.0438856
0.0426299
0.0399003
0.0389834
0.0362439
0.0355924
0.0329291
0.0324048
0.0299678
0.0293774
0.0273562
0.0264923
0.0250596
0.0237702
0.0230039
0.0212704
0.0210854
0.0190707
0.0192006
0.0172299
0.0172892
0.0157455
0.0153676
0.0145332
0.0135323
0.0134455
0.0119194
0.0123296
0.0106356
0.0110977
0.00969676
0.00976945
0.0090133
0.0084558
0.0084336
0.00729408
0.00782073
0.00637271
0.00711375
0.00569279
0.00633833
0.00518454
0.00556839
0.00475847
0.00487273
0.00435215
1.764
1.65816
3.47547
9.79767
9.45416
4.23437
2.3379
3.04826
9.83041
3.38964
3.72172
7.76949
3.52859
1.6425
1.54062
1.26504
1.1062
0.957706
0.897968
1.64223
6.27738
6.43836
6.48337
4.04744
4.17639
4.26896
3.6852
1.96803
1.03918
1.25551
2.08636
2.2225
1.33544
0.689481
0.6355
0.61664
0.596772
0.576384
0.555812
0.535364
0.515291
0.495773
0.476934
0.458847
0.44155
0.425054
0.409349
0.394408
0.380196
0.366668
0.353782
0.341492
0.329752
0.318519
0.307752
0.297414
0.28747
0.277891
0.268649
0.259718
0.251079
0.242712
0.234601
0.226732
0.219094
0.211674
0.204464
0.197456
0.190643
0.184018
0.177577
0.171314
0.165225
0.159307
0.153554
0.147965
0.142536
0.137263
0.132145
0.127177
0.122358
0.117684
0.113152
0.108762
0.104507
0.100391
0.0964013
0.0925498
0.0888126
0.0852183
0.0817189
0.0783768
0.0750971
0.0720059
0.0689226
0.0660871
0.0631699
0.0606028
0.0578127
0.0555353
0.0528254
0.0508654
0.0481855
0.0465703
0.0438767
0.0426196
0.0398925
0.0389735
0.0362371
0.0355829
0.0329231
0.0323958
0.0299624
0.0293691
0.0273513
0.0264848
0.0250548
0.0237638
0.022999
0.0212651
0.0210801
0.0190667
0.0191951
0.0172268
0.0172836
0.015743
0.0153624
0.0145308
0.013528
0.0134427
0.0119163
0.0123261
0.0106336
0.0110939
0.00969553
0.00976564
0.00901213
0.00845272
0.00843188
0.00729216
0.00781817
0.00637198
0.00711051
0.00569288
0.00633488
0.00518489
0.00556524
0.00475862
0.0048702
0.0043519
4.00992
1.60994
2.23841
6.1378
6.02688
3.06147
2.63058
6.0852
9.87229
4.6548
4.9627
3.5266
1.94696
1.67606
1.54175
1.24125
1.05169
0.935075
0.879827
0.96577
3.206
6.48873
6.52189
3.54876
2.47906
2.44981
1.97999
1.4797
1.01888
0.854825
0.841133
0.861399
0.769469
0.663446
0.635441
0.616555
0.596683
0.57629
0.555715
0.535266
0.515193
0.495676
0.476838
0.458754
0.441461
0.424969
0.409267
0.39433
0.380122
0.366598
0.353715
0.341428
0.329692
0.318461
0.307697
0.297361
0.28742
0.277843
0.268602
0.259674
0.251036
0.24267
0.234561
0.226693
0.219056
0.211638
0.204429
0.197422
0.19061
0.183986
0.177546
0.171284
0.165196
0.159278
0.153527
0.147938
0.14251
0.137238
0.13212
0.127153
0.122334
0.117662
0.113131
0.108741
0.104487
0.100371
0.0963823
0.0925315
0.0887948
0.0852011
0.0817024
0.0783607
0.0750817
0.0719909
0.0689084
0.0660731
0.0631567
0.0605896
0.0578006
0.0555228
0.0528144
0.0508537
0.0481756
0.0465591
0.043868
0.0426088
0.0398848
0.0389631
0.0362304
0.035573
0.0329173
0.0323865
0.0299573
0.0293604
0.0273464
0.0264772
0.0250499
0.0237573
0.0229938
0.02126
0.0210745
0.0190628
0.0191892
0.0172239
0.0172778
0.0157406
0.0153571
0.0145284
0.0135237
0.0134397
0.0119133
0.0123224
0.0106318
0.0110897
0.00969438
0.00976173
0.00901091
0.00844969
0.00842996
0.00729043
0.00781532
0.00637152
0.00710694
0.00569324
0.00633113
0.00518546
0.00556186
0.00475891
0.00486752
0.00435172
6.73825
1.819
1.83239
2.66734
2.63939
2.00202
2.8933
9.23369
9.95781
9.81861
8.53534
2.49532
1.77852
1.6114
1.44981
1.21416
1.07026
0.922963
0.867017
0.859432
1.2804
4.74351
6.56986
5.45137
2.26849
1.54305
1.50945
1.58432
1.3913
0.846886
0.701593
0.706258
0.694577
0.668333
0.636912
0.616471
0.596595
0.576196
0.555617
0.535166
0.515092
0.495576
0.476741
0.45866
0.44137
0.424882
0.409184
0.394251
0.380046
0.366526
0.353647
0.341364
0.32963
0.318403
0.307641
0.297308
0.287369
0.277794
0.268555
0.259628
0.250992
0.242628
0.23452
0.226654
0.219018
0.211601
0.204393
0.197387
0.190576
0.183954
0.177514
0.171253
0.165166
0.159249
0.153498
0.147911
0.142483
0.137212
0.132095
0.127129
0.122311
0.117639
0.113108
0.10872
0.104466
0.100351
0.0963628
0.0925126
0.0887766
0.0851835
0.0816854
0.0783442
0.0750659
0.0719754
0.0688938
0.0660587
0.0631433
0.0605761
0.0577883
0.05551
0.0528033
0.0508415
0.0481657
0.0465474
0.0438593
0.0425976
0.0398773
0.0389523
0.0362239
0.0355626
0.0329117
0.0323767
0.0299522
0.0293515
0.0273416
0.0264694
0.0250449
0.0237509
0.0229884
0.021255
0.0210687
0.0190591
0.0191831
0.0172212
0.0172717
0.0157383
0.0153518
0.0145258
0.0135195
0.0134364
0.0119105
0.0123184
0.0106302
0.0110854
0.00969331
0.00975773
0.00900963
0.00844671
0.00842784
0.00728888
0.00781217
0.00637131
0.00710305
0.00569386
0.00632709
0.00518624
0.00555826
0.00475933
0.00486468
0.00435162
7.03117
3.46793
1.62449
1.69347
1.69344
1.64108
3.5327
9.65881
10.0032
10.2968
10.744
3.30093
1.78644
1.54605
1.40759
1.16082
1.01531
0.904606
0.853545
0.826733
0.943019
1.83534
6.08221
6.27097
3.19206
1.56807
1.88296
2.26676
1.90056
0.987701
0.736812
0.832324
0.832538
0.742762
0.643492
0.616404
0.596508
0.576102
0.555518
0.535065
0.51499
0.495475
0.476642
0.458563
0.441277
0.424792
0.409099
0.39417
0.379969
0.366453
0.353577
0.341297
0.329567
0.318343
0.307584
0.297253
0.287317
0.277744
0.268507
0.259582
0.250948
0.242585
0.234478
0.226614
0.21898
0.211564
0.204357
0.197352
0.190542
0.183921
0.177482
0.171222
0.165136
0.15922
0.15347
0.147883
0.142456
0.137186
0.13207
0.127105
0.122287
0.117616
0.113086
0.108699
0.104446
0.100331
0.0963435
0.0924938
0.0887586
0.0851659
0.0816686
0.0783278
0.0750503
0.0719601
0.0688793
0.0660442
0.0631299
0.0605625
0.0577761
0.0554972
0.0527923
0.0508292
0.0481559
0.0465356
0.0438507
0.0425861
0.0398699
0.0389411
0.0362177
0.0355519
0.0329063
0.0323666
0.0299473
0.0293423
0.0273368
0.0264614
0.0250398
0.0237444
0.0229828
0.0212501
0.0210625
0.0190556
0.0191766
0.0172186
0.0172655
0.0157359
0.0153463
0.0145231
0.0135154
0.013433
0.0119078
0.0123142
0.0106287
0.0110808
0.00969232
0.00975362
0.00900829
0.00844379
0.00842554
0.0072875
0.00780874
0.00637134
0.00709885
0.00569471
0.00632276
0.00518721
0.00555444
0.00475989
0.00486171
0.00435158
7.10371
5.36633
2.00518
1.7423
1.6751
1.74429
4.7125
9.75541
10.0806
10.3806
8.28282
3.94279
2.05928
1.53791
1.39215
1.16189
1.0238
0.894998
0.844351
0.816267
0.8757
1.26126
3.4079
6.30688
3.54794
1.79114
2.34766
3.27786
2.68507
1.27191
0.872208
0.954171
0.945955
0.747422
0.636491
0.616341
0.596422
0.576006
0.555418
0.534962
0.514886
0.495372
0.47654
0.458465
0.441181
0.424701
0.409011
0.394087
0.37989
0.366378
0.353506
0.341229
0.329502
0.318281
0.307525
0.297197
0.287263
0.277692
0.268457
0.259534
0.250902
0.242541
0.234436
0.226573
0.21894
0.211525
0.20432
0.197316
0.190507
0.183886
0.177449
0.17119
0.165105
0.159189
0.153441
0.147855
0.142429
0.13716
0.132044
0.12708
0.122263
0.117592
0.113063
0.108677
0.104424
0.100311
0.0963235
0.0924745
0.0887399
0.0851478
0.0816512
0.0783108
0.0750341
0.0719442
0.0688643
0.0660293
0.0631162
0.0605484
0.0577636
0.0554838
0.0527811
0.0508164
0.048146
0.0465232
0.0438422
0.0425741
0.0398626
0.0389295
0.0362115
0.0355407
0.0329009
0.032356
0.0299424
0.0293328
0.027332
0.0264532
0.0250346
0.0237379
0.0229769
0.0212452
0.021056
0.0190522
0.0191698
0.0172161
0.017259
0.0157336
0.0153408
0.0145202
0.0135113
0.0134293
0.0119053
0.0123097
0.0106273
0.0110761
0.00969139
0.00974941
0.0090069
0.0084409
0.00842304
0.00728629
0.00780503
0.00637159
0.00709434
0.0056958
0.00631816
0.00518838
0.00555041
0.00476058
0.00485858
0.00435162
6.45429
6.69834
3.29065
2.29385
1.99907
2.33541
7.36618
9.76365
9.56114
10.5278