/*--------------------------------*- C++ -*----------------------------------*\
| =========                 |                                                 |
| \\      /  F ield         | OpenFOAM: The Open Source CFD Toolbox           |
|  \\    /   O peration     | Version:  v1912                                 |
|   \\  /    A nd           | Website:  www.openfoam.com                      |
|    \\/     M anipulation  |                                                 |
\*---------------------------------------------------------------------------*/
FoamFile
{
    version     2.0;
    format      ascii;
    class       volVectorField;
    location    "30";
    object      U;
}
// * * * * * * * * * * * * * * * * * * * * * * * * * * * * * * * * * * * * * //

dimensions      [0 1 -1 0 0 0 0];


internalField   nonuniform List<vector> 
14268
(
(0.114042 -0.0480016 0)
(0.251092 -0.0246727 0)
(0.404053 0.00804303 0)
(0.407686 0.00397436 0)
(-0.0297822 -0.0255736 0)
(-0.242549 -0.112123 0)
(-0.0146416 -0.110821 0)
(0.0906253 -0.0977904 0)
(0.121239 -0.0948205 0)
(0.342114 -0.071996 0)
(0.624932 -0.00047637 0)
(0.606832 0.0457079 0)
(-0.0349449 -0.03445 0)
(0.178008 -0.0541063 0)
(0.327949 -0.0406321 0)
(0.404912 -0.0107107 0)
(0.358562 0.000602213 0)
(0.355491 0.00814175 0)
(0.380379 0.0332593 0)
(0.347068 0.0291489 0)
(0.336401 0.0203195 0)
(0.382236 0.0092567 0)
(0.469025 0.00875124 0)
(0.578923 0.0272042 0)
(0.616915 0.0448699 0)
(0.619412 0.0530666 0)
(0.631672 0.0582233 0)
(0.67446 0.0657513 0)
(0.741636 0.07437 0)
(0.770592 0.0746553 0)
(0.790893 0.0734146 0)
(0.809787 0.0737462 0)
(0.796708 0.0757077 0)
(0.735 0.07302 0)
(0.649331 0.0655566 0)
(0.603736 0.0607701 0)
(0.577514 0.0580016 0)
(0.557901 0.055987 0)
(0.540939 0.0542673 0)
(0.525413 0.0527015 0)
(0.510806 0.051232 0)
(0.496843 0.0498295 0)
(0.483381 0.0484783 0)
(0.470336 0.0471696 0)
(0.457642 0.0458967 0)
(0.44525 0.0446546 0)
(0.433115 0.0434385 0)
(0.421221 0.0422467 0)
(0.409534 0.0410759 0)
(0.39805 0.0399255 0)
(0.386759 0.0387944 0)
(0.375648 0.0376815 0)
(0.364719 0.0365867 0)
(0.353971 0.03551 0)
(0.343405 0.0344515 0)
(0.333022 0.0334112 0)
(0.322822 0.0323893 0)
(0.31281 0.0313861 0)
(0.302987 0.0304017 0)
(0.293357 0.0294366 0)
(0.283922 0.028491 0)
(0.274685 0.0275652 0)
(0.265648 0.0266593 0)
(0.256813 0.0257736 0)
(0.248181 0.0249083 0)
(0.239754 0.0240633 0)
(0.231531 0.0232388 0)
(0.223513 0.0224348 0)
(0.2157 0.0216514 0)
(0.208092 0.0208883 0)
(0.200688 0.0201457 0)
(0.193486 0.0194234 0)
(0.186487 0.0187213 0)
(0.179687 0.0180392 0)
(0.173085 0.0173769 0)
(0.166679 0.0167343 0)
(0.160467 0.016111 0)
(0.154444 0.0155067 0)
(0.148608 0.0149211 0)
(0.142956 0.014354 0)
(0.137484 0.0138048 0)
(0.132188 0.0132734 0)
(0.127065 0.0127593 0)
(0.122111 0.0122621 0)
(0.117322 0.0117815 0)
(0.112695 0.0113171 0)
(0.108224 0.0108684 0)
(0.103908 0.0104352 0)
(0.0997412 0.0100169 0)
(0.0957202 0.0096133 0)
(0.0918412 0.00922392 0)
(0.0881004 0.0088484 0)
(0.0844939 0.00848635 0)
(0.0810179 0.0081374 0)
(0.0776687 0.00780117 0)
(0.0744426 0.00747728 0)
(0.0713359 0.00716538 0)
(0.0683451 0.00686509 0)
(0.0654665 0.00657608 0)
(0.0626968 0.00629797 0)
(0.0600323 0.00603045 0)
(0.0574699 0.00577315 0)
(0.0550062 0.00552577 0)
(0.052638 0.00528796 0)
(0.0503621 0.00505943 0)
(0.0481755 0.00483984 0)
(0.046075 0.00462892 0)
(0.044058 0.00442634 0)
(0.0421212 0.00423186 0)
(0.0402622 0.00404515 0)
(0.0384781 0.00386598 0)
(0.0367662 0.00369404 0)
(0.0351241 0.00352913 0)
(0.0335491 0.00337093 0)
(0.032039 0.00321926 0)
(0.0305911 0.00307384 0)
(0.0292036 0.00293446 0)
(0.0278737 0.00280089 0)
(0.0265998 0.00267292 0)
(0.0253793 0.00255034 0)
(0.0242106 0.00243292 0)
(0.0230914 0.00232052 0)
(0.0220201 0.00221288 0)
(0.0209947 0.00210988 0)
(0.0200133 0.0020113 0)
(0.0190746 0.00191698 0)
(0.0181764 0.00182676 0)
(0.0173176 0.00174046 0)
(0.0164962 0.00165796 0)
(0.015711 0.00157906 0)
(0.0149605 0.00150366 0)
(0.0142432 0.00143159 0)
(0.013558 0.00136274 0)
(0.0129031 0.00129695 0)
(0.012278 0.00123412 0)
(0.0116806 0.00117412 0)
(0.0111107 0.00111682 0)
(0.0105662 0.00106215 0)
(0.0100469 0.00100994 0)
(0.00955114 0.000960149 0)
(0.00907831 0.000912607 0)
(0.00862724 0.000867298 0)
(0.00819697 0.000824048 0)
(0.00778688 0.00078284 0)
(0.0073956 0.000743521 0)
(0.00702299 0.000706069 0)
(0.00666707 0.000670311 0)
(0.0063286 0.000636291 0)
(0.00600301 0.000603577 0)
(0.00569853 0.000572904 0)
(0.202414 0.0720101 0)
(0.336972 0.0747146 0)
(0.49191 0.0770042 0)
(0.440433 0.0855163 0)
(0.0622642 0.0395042 0)
(-0.214913 0.0622226 0)
(-0.00481047 0.0960293 0)
(0.0780363 0.105939 0)
(0.0910357 0.104548 0)
(0.303948 0.118399 0)
(0.577451 0.110556 0)
(0.55799 0.0823959 0)
(-0.0266258 0.034858 0)
(0.202155 0.0797809 0)
(0.304673 0.0946287 0)
(0.359551 0.0839715 0)
(0.324019 0.0667737 0)
(0.353777 0.0616475 0)
(0.497671 0.054957 0)
(0.491929 0.0557946 0)
(0.391249 0.0513431 0)
(0.41006 0.0659859 0)
(0.496879 0.0816111 0)
(0.634395 0.0889517 0)
(0.762697 0.0913481 0)
(0.822276 0.0906856 0)
(0.853678 0.0889448 0)
(0.903577 0.0901489 0)
(0.989488 0.0972771 0)
(0.985903 0.100545 0)
(0.931451 0.0981327 0)
(0.850517 0.0919126 0)
(0.766453 0.0819931 0)
(0.690031 0.072339 0)
(0.635366 0.065638 0)
(0.600418 0.0611394 0)
(0.576422 0.0583451 0)
(0.557247 0.0562889 0)
(0.540383 0.0545402 0)
(0.524894 0.0529551 0)
(0.51031 0.0514727 0)
(0.496369 0.0500608 0)
(0.482925 0.0487022 0)
(0.469896 0.0473873 0)
(0.457217 0.0461093 0)
(0.444838 0.0448626 0)
(0.432714 0.0436425 0)
(0.420829 0.042447 0)
(0.409151 0.0412728 0)
(0.397676 0.0401192 0)
(0.386392 0.038985 0)
(0.37529 0.037869 0)
(0.364367 0.0367712 0)
(0.353625 0.0356914 0)
(0.343066 0.0346298 0)
(0.332688 0.0335865 0)
(0.322495 0.0325615 0)
(0.312489 0.0315551 0)
(0.302672 0.0305675 0)
(0.293048 0.0295992 0)
(0.283619 0.0286503 0)
(0.274388 0.027721 0)
(0.265357 0.0268118 0)
(0.256529 0.0259227 0)
(0.247904 0.0250539 0)
(0.239483 0.0242056 0)
(0.231266 0.0233776 0)
(0.223255 0.0225702 0)
(0.215448 0.0217832 0)
(0.207847 0.0210168 0)
(0.200449 0.0202707 0)
(0.193254 0.019545 0)
(0.186261 0.0188395 0)
(0.179468 0.0181541 0)
(0.172872 0.0174885 0)
(0.166473 0.0168425 0)
(0.160266 0.016216 0)
(0.154249 0.0156085 0)
(0.14842 0.0150198 0)
(0.142773 0.0144496 0)
(0.137307 0.0138974 0)
(0.132017 0.0133631 0)
(0.1269 0.0128461 0)
(0.121951 0.012346 0)
(0.117168 0.0118627 0)
(0.112546 0.0113955 0)
(0.108081 0.0109442 0)
(0.103769 0.0105084 0)
(0.0996072 0.0100877 0)
(0.0955911 0.00968159 0)
(0.0917168 0.00928983 0)
(0.0879805 0.00891199 0)
(0.0843784 0.00854769 0)
(0.0809067 0.00819655 0)
(0.0775617 0.00785819 0)
(0.0743397 0.00753223 0)
(0.0712369 0.00721832 0)
(0.0682499 0.00691608 0)
(0.065375 0.00662518 0)
(0.0626089 0.00634524 0)
(0.0599479 0.00607595 0)
(0.0573889 0.00581692 0)
(0.0549284 0.00556788 0)
(0.0525633 0.00532844 0)
(0.0502904 0.00509837 0)
(0.0481068 0.00487725 0)
(0.0460091 0.00466489 0)
(0.0439948 0.00446089 0)
(0.0420607 0.00426506 0)
(0.0402042 0.00407702 0)
(0.0384225 0.00389659 0)
(0.036713 0.00372342 0)
(0.0350732 0.00355732 0)
(0.0335003 0.00339799 0)
(0.0319923 0.00324521 0)
(0.0305465 0.00309874 0)
(0.0291609 0.00295832 0)
(0.0278328 0.00282379 0)
(0.0265607 0.00269484 0)
(0.025342 0.00257137 0)
(0.0241749 0.00245306 0)
(0.0230574 0.00233982 0)
(0.0219875 0.00223136 0)
(0.0209636 0.00212758 0)
(0.0199836 0.00202824 0)
(0.0190463 0.00193319 0)
(0.0181493 0.00184229 0)
(0.0172918 0.0017553 0)
(0.0164715 0.00167217 0)
(0.0156875 0.00159264 0)
(0.0149381 0.00151666 0)
(0.0142218 0.00144402 0)
(0.0135376 0.0013746 0)
(0.0128836 0.00130831 0)
(0.0122595 0.00124495 0)
(0.0116629 0.0011845 0)
(0.0110939 0.0011267 0)
(0.0105502 0.00107162 0)
(0.0100317 0.00101894 0)
(0.00953663 0.000968778 0)
(0.0090645 0.000920823 0)
(0.00861409 0.000875151 0)
(0.00818446 0.000831536 0)
(0.00777498 0.000789982 0)
(0.00738427 0.00075034 0)
(0.00701222 0.000712564 0)
(0.00665683 0.000676521 0)
(0.00631886 0.000642215 0)
(0.00599374 0.000609232 0)
(0.00568973 0.000578165 0)
(0.13312 -0.046066 0)
(0.251908 -0.0237618 0)
(0.418011 0.010727 0)
(0.400415 0.0194383 0)
(0.0423742 0.00154744 0)
(-0.236587 -0.102851 0)
(-0.00147849 -0.10304 0)
(0.0925501 -0.0890591 0)
(0.11878 -0.0859048 0)
(0.336159 -0.0654798 0)
(0.615678 0.00255138 0)
(0.57687 0.0597633 0)
(-0.0284359 -0.0213019 0)
(0.169827 -0.0506765 0)
(0.317086 -0.0363 0)
(0.387406 -0.00799041 0)
(0.343331 0.00232113 0)
(0.367872 0.00758906 0)
(0.490834 0.0395882 0)
(0.46622 0.0436055 0)
(0.371065 0.0259506 0)
(0.398708 0.0119612 0)
(0.48834 0.0113085 0)
(0.618649 0.0297353 0)
(0.702397 0.0486431 0)
(0.720871 0.0603932 0)
(0.748264 0.0673878 0)
(0.824645 0.0761613 0)
(0.906091 0.0870196 0)
(0.890371 0.0871813 0)
(0.846571 0.0809104 0)
(0.809801 0.0773949 0)
(0.761954 0.0765971 0)
(0.686908 0.0712618 0)
(0.631043 0.0656379 0)
(0.598579 0.061459 0)
(0.575628 0.0586955 0)
(0.556743 0.056614 0)
(0.539953 0.0548371 0)
(0.524487 0.0532305 0)
(0.509916 0.0517326 0)
(0.495984 0.0503094 0)
(0.482549 0.0489419 0)
(0.469527 0.0476196 0)
(0.456855 0.0463354 0)
(0.444481 0.0450835 0)
(0.432363 0.0438589 0)
(0.420484 0.0426594 0)
(0.408812 0.0414815 0)
(0.397343 0.0403245 0)
(0.386065 0.0391871 0)
(0.374969 0.0380681 0)
(0.364053 0.0369672 0)
(0.353318 0.0358844 0)
(0.342766 0.0348197 0)
(0.332396 0.0337732 0)
(0.32221 0.0327451 0)
(0.312211 0.0317354 0)
(0.302402 0.0307446 0)
(0.292786 0.0297729 0)
(0.283365 0.0288206 0)
(0.274141 0.0278879 0)
(0.265118 0.0269751 0)
(0.256297 0.0260824 0)
(0.247679 0.0252101 0)
(0.239265 0.0243581 0)
(0.231056 0.0235265 0)
(0.223051 0.0227155 0)
(0.215252 0.0219249 0)
(0.207657 0.0211548 0)
(0.200266 0.0204051 0)
(0.193077 0.0196757 0)
(0.18609 0.0189666 0)
(0.179303 0.0182776 0)
(0.172714 0.0176084 0)
(0.16632 0.0169589 0)
(0.160119 0.0163289 0)
(0.154108 0.015718 0)
(0.148284 0.015126 0)
(0.142643 0.0145524 0)
(0.137181 0.013997 0)
(0.131896 0.0134595 0)
(0.126783 0.0129393 0)
(0.121839 0.0124363 0)
(0.11706 0.0119499 0)
(0.112442 0.0114798 0)
(0.107982 0.0110257 0)
(0.103674 0.0105871 0)
(0.099516 0.0101636 0)
(0.0955035 0.00975491 0)
(0.0916327 0.00936058 0)
(0.0878999 0.00898023 0)
(0.0843011 0.00861349 0)
(0.0808326 0.00825997 0)
(0.0774906 0.00791931 0)
(0.0742715 0.00759111 0)
(0.0711716 0.00727503 0)
(0.0681873 0.00697068 0)
(0.0653151 0.00667774 0)
(0.0625514 0.00639582 0)
(0.0598929 0.00612461 0)
(0.0573362 0.00586372 0)
(0.0548779 0.00561288 0)
(0.052515 0.00537171 0)
(0.0502442 0.00513995 0)
(0.0480625 0.0049172 0)
(0.0459668 0.00470327 0)
(0.0439543 0.00449775 0)
(0.0420219 0.00430045 0)
(0.0401671 0.00411099 0)
(0.0383871 0.0039292 0)
(0.0366791 0.00375471 0)
(0.0350407 0.00358734 0)
(0.0334693 0.00342678 0)
(0.0319627 0.00327282 0)
(0.0305182 0.0031252 0)
(0.0291338 0.00298369 0)
(0.027807 0.0028481 0)
(0.026536 0.00271814 0)
(0.0253184 0.00259368 0)
(0.0241524 0.00247443 0)
(0.0230358 0.00236028 0)
(0.0219669 0.00225095 0)
(0.020944 0.00214632 0)
(0.0199649 0.00204618 0)
(0.0190284 0.00195036 0)
(0.0181322 0.0018587 0)
(0.0172755 0.00177101 0)
(0.016456 0.00168718 0)
(0.0156727 0.001607 0)
(0.0149239 0.00153037 0)
(0.0142083 0.00145713 0)
(0.0135247 0.00138713 0)
(0.0128713 0.00132028 0)
(0.0122477 0.00125637 0)
(0.0116517 0.00119541 0)
(0.0110832 0.00113712 0)
(0.01054 0.00108156 0)
(0.010022 0.00102843 0)
(0.00952736 0.000977821 0)
(0.00905566 0.000929458 0)
(0.00860566 0.000883377 0)
(0.00817642 0.000839388 0)
(0.00776731 0.000797459 0)
(0.00737696 0.000757475 0)
(0.00700524 0.000719359 0)
(0.00665017 0.000683006 0)
(0.00631251 0.000648402 0)
(0.00598769 0.000615125 0)
(0.00568398 0.000583657 0)
(0.164954 0.0566199 0)
(0.270219 0.0521639 0)
(0.379724 0.0584397 0)
(0.431188 0.0871208 0)
(0.0993515 0.0471345 0)
(-0.210193 0.0577513 0)
(0.0169639 0.0760924 0)
(0.084121 0.0932975 0)
(0.0955583 0.0850443 0)
(0.308614 0.0888233 0)
(0.580502 0.0952254 0)
(0.556884 0.0900099 0)
(-0.0356879 0.0364488 0)
(0.180546 0.0588557 0)
(0.314503 0.0816339 0)
(0.359665 0.0803744 0)
(0.337139 0.0663467 0)
(0.374257 0.0592231 0)
(0.49866 0.0548464 0)
(0.51428 0.0599201 0)
(0.429717 0.0558001 0)
(0.450638 0.0638429 0)
(0.534171 0.075386 0)
(0.642229 0.0856975 0)
(0.744545 0.0908772 0)
(0.801873 0.0878331 0)
(0.835833 0.0844421 0)
(0.885435 0.0847297 0)
(0.960527 0.0933822 0)
(0.953397 0.0988808 0)
(0.901187 0.0967068 0)
(0.82853 0.090221 0)
(0.750286 0.0815313 0)
(0.673182 0.0727933 0)
(0.62643 0.0663813 0)
(0.597041 0.0619126 0)
(0.574944 0.0590571 0)
(0.556276 0.0569331 0)
(0.539543 0.0551282 0)
(0.5241 0.0535016 0)
(0.509544 0.0519897 0)
(0.495626 0.0505561 0)
(0.482203 0.0491804 0)
(0.469192 0.0478514 0)
(0.45653 0.0465615 0)
(0.444166 0.0453047 0)
(0.432059 0.0440759 0)
(0.420189 0.0428726 0)
(0.408526 0.0416913 0)
(0.397066 0.0405312 0)
(0.385798 0.0393908 0)
(0.374711 0.0382689 0)
(0.363803 0.037165 0)
(0.353077 0.0360793 0)
(0.342534 0.0350117 0)
(0.332172 0.0339623 0)
(0.321994 0.0329311 0)
(0.312003 0.0319184 0)
(0.302202 0.0309245 0)
(0.292593 0.0299496 0)
(0.283179 0.0289939 0)
(0.273962 0.0280579 0)
(0.264946 0.0271417 0)
(0.256131 0.0262455 0)
(0.24752 0.0253697 0)
(0.239112 0.0245141 0)
(0.230909 0.0236789 0)
(0.22291 0.0228642 0)
(0.215117 0.02207 0)
(0.207527 0.0212963 0)
(0.200141 0.0205429 0)
(0.192958 0.0198099 0)
(0.185975 0.0190972 0)
(0.179193 0.0184045 0)
(0.172608 0.0177318 0)
(0.166219 0.0170787 0)
(0.160022 0.0164452 0)
(0.154015 0.0158308 0)
(0.148194 0.0152353 0)
(0.142557 0.0146584 0)
(0.137099 0.0140997 0)
(0.131817 0.0135589 0)
(0.126708 0.0130356 0)
(0.121767 0.0125294 0)
(0.116991 0.01204 0)
(0.112376 0.0115669 0)
(0.107918 0.0111098 0)
(0.103613 0.0106684 0)
(0.0994574 0.0102421 0)
(0.0954474 0.00983068 0)
(0.091579 0.00943369 0)
(0.0878484 0.00905076 0)
(0.0842517 0.00868151 0)
(0.0807853 0.00832554 0)
(0.0774454 0.0079825 0)
(0.0742282 0.007652 0)
(0.0711301 0.00733367 0)
(0.0681476 0.00702715 0)
(0.065277 0.0067321 0)
(0.062515 0.00644813 0)
(0.059858 0.00617494 0)
(0.0573028 0.00591213 0)
(0.054846 0.00565944 0)
(0.0524844 0.00541646 0)
(0.0502149 0.00518296 0)
(0.0480345 0.00495854 0)
(0.0459399 0.00474297 0)
(0.0439286 0.00453589 0)
(0.0419973 0.00433706 0)
(0.0401436 0.00414615 0)
(0.0383645 0.00396293 0)
(0.0366575 0.00378708 0)
(0.0350201 0.00361838 0)
(0.0334496 0.00345656 0)
(0.0319438 0.00330137 0)
(0.0305001 0.00315258 0)
(0.0291165 0.00300993 0)
(0.0277904 0.00287323 0)
(0.0265202 0.00274222 0)
(0.0253032 0.00261674 0)
(0.0241378 0.00249651 0)
(0.0230219 0.00238142 0)
(0.0219536 0.00227119 0)
(0.0209313 0.00216569 0)
(0.0199527 0.00206471 0)
(0.0190167 0.00196808 0)
(0.0181211 0.00187565 0)
(0.0172648 0.00178722 0)
(0.0164457 0.00170267 0)
(0.0156629 0.00162181 0)
(0.0149145 0.00154452 0)
(0.0141993 0.00147065 0)
(0.0135161 0.00140004 0)
(0.0128631 0.00133261 0)
(0.0122398 0.00126815 0)
(0.0116442 0.00120665 0)
(0.011076 0.00114784 0)
(0.0105331 0.00109179 0)
(0.0100153 0.0010382 0)
(0.00952101 0.000987126 0)
(0.00904957 0.00093834 0)
(0.00859982 0.000891834 0)
(0.00817082 0.000847459 0)
(0.00776194 0.00080514 0)
(0.00737181 0.000764802 0)
(0.0070003 0.000726333 0)
(0.00664543 0.000689659 0)
(0.00630795 0.000654746 0)
(0.00598331 0.000621165 0)
(0.00567978 0.000589284 0)
(0.164622 -0.0381308 0)
(0.255015 -0.0169697 0)
(0.333815 0.00267763 0)
(0.41826 0.0345589 0)
(0.0974069 0.0312713 0)
(-0.218774 -0.0933567 0)
(0.0137667 -0.0910435 0)
(0.105602 -0.0785436 0)
(0.11534 -0.0747812 0)
(0.329107 -0.055085 0)
(0.604144 0.0072687 0)
(0.561062 0.0764628 0)
(-0.0326895 -0.00513075 0)
(0.187696 -0.0453111 0)
(0.317583 -0.0309705 0)
(0.396859 -0.00440227 0)
(0.389169 0.00904851 0)
(0.420383 0.0133364 0)
(0.505276 0.0393581 0)
(0.57282 0.0566086 0)
(0.589654 0.050293 0)
(0.647196 0.0393728 0)
(0.728673 0.0380958 0)
(0.78033 0.0425627 0)
(0.757509 0.0527725 0)
(0.758397 0.0659847 0)
(0.774472 0.0723912 0)
(0.837657 0.0795091 0)
(0.927017 0.0901019 0)
(0.921025 0.0921537 0)
(0.870589 0.0873402 0)
(0.812421 0.0820595 0)
(0.746913 0.0794022 0)
(0.66944 0.0725471 0)
(0.624377 0.0666897 0)
(0.596135 0.0623047 0)
(0.574434 0.059421 0)
(0.555885 0.0572606 0)
(0.539195 0.0554271 0)
(0.523775 0.0537802 0)
(0.509238 0.0522541 0)
(0.495336 0.0508102 0)
(0.481928 0.0494265 0)
(0.468929 0.0480907 0)
(0.456279 0.0467952 0)
(0.443926 0.0455338 0)
(0.431828 0.0443009 0)
(0.419969 0.043094 0)
(0.408315 0.0419094 0)
(0.396864 0.0407461 0)
(0.385604 0.0396027 0)
(0.374525 0.0384779 0)
(0.363625 0.0373711 0)
(0.352907 0.0362824 0)
(0.34237 0.0352118 0)
(0.332015 0.0341593 0)
(0.321844 0.0331249 0)
(0.31186 0.0321089 0)
(0.302064 0.0311116 0)
(0.292461 0.0301333 0)
(0.283052 0.0291742 0)
(0.273841 0.0282345 0)
(0.26483 0.0273146 0)
(0.25602 0.0264148 0)
(0.247414 0.0255352 0)
(0.23901 0.0246758 0)
(0.230811 0.0238369 0)
(0.222817 0.0230183 0)
(0.215027 0.0222202 0)
(0.207441 0.0214426 0)
(0.200058 0.0206854 0)
(0.192878 0.0199486 0)
(0.1859 0.019232 0)
(0.17912 0.0185356 0)
(0.172539 0.0178591 0)
(0.166152 0.0172023 0)
(0.159958 0.016565 0)
(0.153953 0.015947 0)
(0.148135 0.015348 0)
(0.1425 0.0147676 0)
(0.137045 0.0142054 0)
(0.131765 0.0136612 0)
(0.126658 0.0131346 0)
(0.121719 0.0126251 0)
(0.116945 0.0121326 0)
(0.112332 0.0116564 0)
(0.107876 0.0111963 0)
(0.103573 0.0107519 0)
(0.0994189 0.0103227 0)
(0.0954105 0.00990849 0)
(0.0915436 0.00950876 0)
(0.0878144 0.00912317 0)
(0.0842192 0.00875132 0)
(0.0807541 0.00839283 0)
(0.0774154 0.00804734 0)
(0.0741995 0.00771446 0)
(0.0711026 0.00739383 0)
(0.0681212 0.00708507 0)
(0.0652517 0.00678784 0)
(0.0624907 0.00650177 0)
(0.0598347 0.00622653 0)
(0.0572804 0.00596175 0)
(0.0548245 0.00570714 0)
(0.0524639 0.00546232 0)
(0.0501952 0.00522703 0)
(0.0480155 0.00500088 0)
(0.0459218 0.00478364 0)
(0.0439112 0.00457494 0)
(0.0419806 0.00437455 0)
(0.0401276 0.00418213 0)
(0.0383491 0.00399745 0)
(0.0366428 0.00382021 0)
(0.0350059 0.00365015 0)
(0.033436 0.00348703 0)
(0.0319307 0.00333058 0)
(0.0304875 0.00318057 0)
(0.0291045 0.00303675 0)
(0.0277788 0.00289894 0)
(0.026509 0.00276684 0)
(0.0252925 0.00264032 0)
(0.0241276 0.00251909 0)
(0.0230121 0.00240303 0)
(0.0219442 0.00229187 0)
(0.0209221 0.00218548 0)
(0.0199439 0.00208364 0)
(0.0190083 0.00198619 0)
(0.018113 0.00189297 0)
(0.017257 0.00180378 0)
(0.0164382 0.00171849 0)
(0.0156557 0.00163693 0)
(0.0149076 0.00155896 0)
(0.0141926 0.00148445 0)
(0.0135096 0.00141321 0)
(0.0128569 0.00134519 0)
(0.0122338 0.00128016 0)
(0.0116384 0.00121811 0)
(0.0110704 0.00115878 0)
(0.0105277 0.00110222 0)
(0.0100102 0.00104816 0)
(0.009516 0.000996611 0)
(0.00904473 0.000947393 0)
(0.00859514 0.000900452 0)
(0.0081663 0.000855681 0)
(0.00775757 0.000812965 0)
(0.00736758 0.000772264 0)
(0.0069962 0.000733434 0)
(0.00664146 0.000696431 0)
(0.0063041 0.000661202 0)
(0.00597959 0.000627309 0)
(0.00567618 0.00059501 0)
(0.150413 0.0419918 0)
(0.265213 0.0390332 0)
(0.317257 0.0438318 0)
(0.398744 0.0793509 0)
(0.11115 0.0628049 0)
(-0.189917 0.0544056 0)
(0.0133594 0.0559412 0)
(0.104684 0.0828475 0)
(0.111947 0.0650886 0)
(0.313224 0.0564428 0)
(0.576783 0.0789409 0)
(0.547721 0.096791 0)
(-0.0143246 0.0407178 0)
(0.187147 0.0407385 0)
(0.316669 0.0671157 0)
(0.370043 0.0753322 0)
(0.351183 0.0635049 0)
(0.399535 0.0526847 0)
(0.482929 0.0494303 0)
(0.594204 0.0653496 0)
(0.65961 0.0760646 0)
(0.695951 0.0795055 0)
(0.739901 0.0833553 0)
(0.817369 0.0944277 0)
(0.838041 0.0941617 0)
(0.839008 0.0876379 0)
(0.851253 0.0833911 0)
(0.89427 0.0819755 0)
(0.961482 0.091726 0)
(0.948807 0.100047 0)
(0.888822 0.0975321 0)
(0.816231 0.0901247 0)
(0.74142 0.0824866 0)
(0.665015 0.0740736 0)
(0.622227 0.0673657 0)
(0.595341 0.0627701 0)
(0.574034 0.0598012 0)
(0.555587 0.0575963 0)
(0.538932 0.0557337 0)
(0.523534 0.0540665 0)
(0.509013 0.0525262 0)
(0.495125 0.051072 0)
(0.481729 0.04968 0)
(0.468741 0.0483374 0)
(0.4561 0.0470362 0)
(0.443756 0.0457699 0)
(0.431666 0.0445326 0)
(0.419814 0.0433218 0)
(0.408168 0.0421337 0)
(0.396724 0.0409671 0)
(0.38547 0.0398205 0)
(0.374396 0.0386925 0)
(0.363502 0.0375826 0)
(0.35279 0.0364907 0)
(0.342258 0.0354168 0)
(0.331908 0.034361 0)
(0.321741 0.0333233 0)
(0.311761 0.0323039 0)
(0.30197 0.031303 0)
(0.29237 0.0303211 0)
(0.282966 0.0293583 0)
(0.273758 0.0284149 0)
(0.26475 0.0274912 0)
(0.255944 0.0265874 0)
(0.24734 0.025704 0)
(0.23894 0.0248407 0)
(0.230744 0.0239978 0)
(0.222752 0.0231753 0)
(0.214964 0.0223732 0)
(0.207381 0.0215917 0)
(0.200001 0.0208305 0)
(0.192823 0.0200897 0)
(0.185847 0.0193692 0)
(0.17907 0.0186689 0)
(0.17249 0.0179885 0)
(0.166105 0.0173279 0)
(0.159913 0.0166869 0)
(0.15391 0.0160652 0)
(0.148094 0.0154625 0)
(0.142461 0.0148784 0)
(0.137007 0.0143128 0)
(0.131729 0.0137651 0)
(0.126623 0.0132351 0)
(0.121685 0.0127223 0)
(0.116913 0.0122265 0)
(0.112301 0.0117472 0)
(0.107846 0.011284 0)
(0.103544 0.0108366 0)
(0.099391 0.0104045 0)
(0.0953836 0.00998737 0)
(0.0915178 0.00958486 0)
(0.0877896 0.00919655 0)
(0.0841953 0.00882206 0)
(0.0807312 0.00846101 0)
(0.0773933 0.00811302 0)
(0.0741783 0.00777772 0)
(0.0710822 0.00745474 0)
(0.0681015 0.00714371 0)
(0.0652328 0.00684427 0)
(0.0624725 0.00655606 0)
(0.0598172 0.00627875 0)
(0.0572636 0.00601197 0)
(0.0548083 0.00575541 0)
(0.0524483 0.00550872 0)
(0.0501802 0.0052716 0)
(0.0480011 0.0050437 0)
(0.0459079 0.00482476 0)
(0.0438978 0.00461443 0)
(0.0419677 0.00441245 0)
(0.0401151 0.00421851 0)
(0.0383372 0.00403235 0)
(0.0366312 0.00385369 0)
(0.0349948 0.00368226 0)
(0.0334253 0.00351781 0)
(0.0319204 0.00336008 0)
(0.0304776 0.00320886 0)
(0.0290949 0.00306385 0)
(0.0277696 0.0029249 0)
(0.0265001 0.0027917 0)
(0.0252839 0.00266413 0)
(0.0241193 0.00254188 0)
(0.0230041 0.00242484 0)
(0.0219364 0.00231275 0)
(0.0209147 0.00220545 0)
(0.0199367 0.00210275 0)
(0.0190013 0.00200446 0)
(0.0181062 0.00191043 0)
(0.0172505 0.00182047 0)
(0.0164319 0.00173445 0)
(0.0156496 0.00165218 0)
(0.0149017 0.00157353 0)
(0.0141869 0.00149836 0)
(0.0135041 0.00142649 0)
(0.0128515 0.00135787 0)
(0.0122287 0.00129226 0)
(0.0116334 0.00122965 0)
(0.0110655 0.0011698 0)
(0.010523 0.00111272 0)
(0.0100056 0.00105818 0)
(0.00951153 0.00100616 0)
(0.00904038 0.0009565 0)
(0.00859092 0.000909121 0)
(0.00816219 0.000863949 0)
(0.00775357 0.000820831 0)
(0.00736368 0.000779763 0)
(0.00699241 0.000740568 0)
(0.00663776 0.000703233 0)
(0.00630049 0.000667685 0)
(0.00597606 0.000633476 0)
(0.00567276 0.000600754 0)
(0.191241 -0.0275369 0)
(0.289405 -0.00811675 0)
(0.316476 0.00377265 0)
(0.389791 0.0408286 0)
(0.151569 0.0447475 0)
(-0.230185 -0.084276 0)
(0.00974427 -0.0834675 0)
(0.103218 -0.0684413 0)
(0.121779 -0.0604734 0)
(0.335895 -0.0417903 0)
(0.603407 0.0123621 0)
(0.545832 0.0911299 0)
(0.0606677 0.0169703 0)
(0.189695 -0.0395556 0)
(0.331426 -0.022346 0)
(0.398672 0.000338404 0)
(0.379584 0.0111404 0)
(0.409483 0.0145449 0)
(0.482767 0.0324657 0)
(0.595749 0.0559514 0)
(0.66146 0.0555937 0)
(0.690466 0.045958 0)
(0.732384 0.0438649 0)
(0.809641 0.0505326 0)
(0.858893 0.0649291 0)
(0.860332 0.0754406 0)
(0.860486 0.0759256 0)
(0.882272 0.0761771 0)
(0.936476 0.0864767 0)
(0.928822 0.0942543 0)
(0.876061 0.0916269 0)
(0.808575 0.0872903 0)
(0.739392 0.0825332 0)
(0.662833 0.0741639 0)
(0.62054 0.0678744 0)
(0.594756 0.063177 0)
(0.573756 0.0601757 0)
(0.555377 0.0579383 0)
(0.538745 0.0560473 0)
(0.523361 0.0543594 0)
(0.508853 0.0528046 0)
(0.494976 0.0513397 0)
(0.481589 0.0499392 0)
(0.468609 0.0485896 0)
(0.455975 0.0472823 0)
(0.443636 0.0460108 0)
(0.431552 0.044769 0)
(0.419706 0.0435542 0)
(0.408064 0.0423623 0)
(0.396624 0.0411921 0)
(0.385375 0.0400421 0)
(0.374305 0.0389107 0)
(0.363415 0.0377975 0)
(0.352705 0.0367022 0)
(0.342177 0.0356249 0)
(0.33183 0.0345656 0)
(0.321667 0.0335244 0)
(0.311689 0.0325014 0)
(0.301901 0.0314969 0)
(0.292304 0.0305112 0)
(0.282902 0.0295446 0)
(0.273697 0.0285974 0)
(0.264691 0.0276698 0)
(0.255887 0.0267621 0)
(0.247285 0.0258746 0)
(0.238887 0.0250074 0)
(0.230693 0.0241604 0)
(0.222703 0.0233338 0)
(0.214917 0.0225278 0)
(0.207335 0.0217421 0)
(0.199957 0.0209769 0)
(0.192781 0.0202321 0)
(0.185806 0.0195076 0)
(0.17903 0.0188033 0)
(0.172452 0.018119 0)
(0.166068 0.0174546 0)
(0.159878 0.0168097 0)
(0.153876 0.0161842 0)
(0.148061 0.0155778 0)
(0.142429 0.0149902 0)
(0.136976 0.0144209 0)
(0.131699 0.0138698 0)
(0.126594 0.0133364 0)
(0.121658 0.0128203 0)
(0.116886 0.0123212 0)
(0.112275 0.0118386 0)
(0.107821 0.0113723 0)
(0.10352 0.0109218 0)
(0.0993681 0.0104868 0)
(0.0953616 0.0100668 0)
(0.0914965 0.00966147 0)
(0.0877691 0.00927042 0)
(0.0841755 0.00889328 0)
(0.0807121 0.00852964 0)
(0.0773749 0.00817914 0)
(0.0741605 0.0078414 0)
(0.071065 0.00751606 0)
(0.068085 0.00720273 0)
(0.0652169 0.00690106 0)
(0.0624572 0.0066107 0)
(0.0598024 0.0063313 0)
(0.0572493 0.0060625 0)
(0.0547946 0.00580399 0)
(0.052435 0.00555541 0)
(0.0501674 0.00531646 0)
(0.0479887 0.0050868 0)
(0.0458959 0.00486614 0)
(0.0438863 0.00465417 0)
(0.0419566 0.00445059 0)
(0.0401044 0.00425512 0)
(0.0383268 0.00406747 0)
(0.0366213 0.00388739 0)
(0.0349852 0.00371457 0)
(0.033416 0.0035488 0)
(0.0319114 0.00338979 0)
(0.0304689 0.00323733 0)
(0.0290865 0.00309113 0)
(0.0277615 0.00295103 0)
(0.0264923 0.00281673 0)
(0.0252763 0.0026881 0)
(0.0241119 0.00256483 0)
(0.022997 0.00244681 0)
(0.0219296 0.00233377 0)
(0.020908 0.00222556 0)
(0.0199303 0.00212198 0)
(0.0189951 0.00202286 0)
(0.0181002 0.00192802 0)
(0.0172446 0.00183729 0)
(0.0164263 0.00175052 0)
(0.0156441 0.00166754 0)
(0.0148964 0.0015882 0)
(0.0141817 0.00151238 0)
(0.0134991 0.00143988 0)
(0.0128467 0.00137065 0)
(0.0122239 0.00130446 0)
(0.0116288 0.00124129 0)
(0.011061 0.00118091 0)
(0.0105186 0.00112331 0)
(0.0100013 0.00106828 0)
(0.0095074 0.00101578 0)
(0.00903637 0.000965688 0)
(0.00858701 0.000917867 0)
(0.00815837 0.000872292 0)
(0.00774985 0.00082877 0)
(0.00736005 0.000787333 0)
(0.00698886 0.000747771 0)
(0.0066343 0.000710101 0)
(0.0062971 0.000674232 0)
(0.00597274 0.000639704 0)
(0.00566953 0.000606559 0)
(0.188611 0.0245321 0)
(0.286018 0.0290573 0)
(0.305875 0.0367008 0)
(0.375661 0.0734269 0)
(0.18434 0.0767069 0)
(-0.213865 0.0480889 0)
(0.0451692 0.0332445 0)
(0.0845222 0.0659286 0)
(0.120581 0.0506598 0)
(0.336433 0.0369607 0)
(0.60388 0.0691339 0)
(0.543117 0.104546 0)
(0.123788 0.0540124 0)
(0.184954 0.0241993 0)
(0.330615 0.0538345 0)
(0.391902 0.071405 0)
(0.379532 0.0630725 0)
(0.414519 0.048301 0)
(0.484001 0.0432451 0)
(0.587579 0.0610297 0)
(0.671098 0.075139 0)
(0.703213 0.0766175 0)
(0.74532 0.0761522 0)
(0.818053 0.086772 0)
(0.864746 0.0941797 0)
(0.871953 0.0911276 0)
(0.870834 0.085748 0)
(0.891637 0.0821261 0)
(0.941301 0.0891802 0)
(0.927649 0.0977408 0)
(0.871818 0.0969993 0)
(0.802323 0.0917479 0)
(0.73796 0.0863561 0)
(0.663769 0.076264 0)
(0.619866 0.0682858 0)
(0.594488 0.0636305 0)
(0.573612 0.0605708 0)
(0.555237 0.0582896 0)
(0.53861 0.0563664 0)
(0.523234 0.0546568 0)
(0.508735 0.053087 0)
(0.494865 0.0516112 0)
(0.481485 0.0502021 0)
(0.468511 0.0488451 0)
(0.455881 0.0475316 0)
(0.443547 0.0462548 0)
(0.431467 0.0450083 0)
(0.419624 0.0437892 0)
(0.407986 0.0425934 0)
(0.396549 0.0414195 0)
(0.385302 0.040266 0)
(0.374235 0.0391311 0)
(0.363347 0.0380144 0)
(0.35264 0.0369156 0)
(0.342114 0.0358348 0)
(0.331769 0.034772 0)
(0.321608 0.0337272 0)
(0.311632 0.0327005 0)
(0.301846 0.0316922 0)
(0.292251 0.0307027 0)
(0.28285 0.0297323 0)
(0.273646 0.0287811 0)
(0.264642 0.0278495 0)
(0.25584 0.0269377 0)
(0.24724 0.0260462 0)
(0.238843 0.0251749 0)
(0.23065 0.0243238 0)
(0.222661 0.0234932 0)
(0.214877 0.022683 0)
(0.207297 0.0218933 0)
(0.199919 0.021124 0)
(0.192745 0.0203752 0)
(0.185771 0.0196466 0)
(0.178996 0.0189383 0)
(0.172419 0.0182501 0)
(0.166037 0.0175817 0)
(0.159847 0.016933 0)
(0.153846 0.0163038 0)
(0.148032 0.0156936 0)
(0.142401 0.0151023 0)
(0.136949 0.0145295 0)
(0.131673 0.0139748 0)
(0.126569 0.0134379 0)
(0.121634 0.0129185 0)
(0.116863 0.0124161 0)
(0.112252 0.0119303 0)
(0.107799 0.0114609 0)
(0.103499 0.0110074 0)
(0.0993476 0.0105693 0)
(0.0953418 0.0101464 0)
(0.0914774 0.00973829 0)
(0.0877507 0.00934449 0)
(0.0841577 0.00896467 0)
(0.0806949 0.00859844 0)
(0.0773584 0.00824542 0)
(0.0741445 0.00790524 0)
(0.0710496 0.00757751 0)
(0.0680701 0.00726189 0)
(0.0652025 0.00695799 0)
(0.0624433 0.00666547 0)
(0.059789 0.00638397 0)
(0.0572364 0.00611315 0)
(0.0547821 0.00585268 0)
(0.0524229 0.0056022 0)
(0.0501557 0.00536142 0)
(0.0479775 0.00512999 0)
(0.0458851 0.00490761 0)
(0.0438758 0.00469399 0)
(0.0419465 0.00448881 0)
(0.0400947 0.00429181 0)
(0.0383174 0.00410267 0)
(0.0366122 0.00392116 0)
(0.0349764 0.00374695 0)
(0.0334075 0.00357986 0)
(0.0319033 0.00341955 0)
(0.030461 0.00326586 0)
(0.0290788 0.00311847 0)
(0.0277541 0.00297722 0)
(0.0264852 0.00284182 0)
(0.0252694 0.00271212 0)
(0.0241053 0.00258783 0)
(0.0229905 0.00246882 0)
(0.0219233 0.00235484 0)
(0.020902 0.00224572 0)
(0.0199245 0.00214127 0)
(0.0189895 0.00204131 0)
(0.0180947 0.00194566 0)
(0.0172394 0.00185416 0)
(0.0164212 0.00176663 0)
(0.0156391 0.00168294 0)
(0.0148915 0.00160291 0)
(0.0141771 0.00152643 0)
(0.0134946 0.0014533 0)
(0.0128423 0.00138346 0)
(0.0122197 0.00131669 0)
(0.0116246 0.00125297 0)
(0.011057 0.00119205 0)
(0.0105147 0.00113393 0)
(0.00999752 0.00107843 0)
(0.00950371 0.00102545 0)
(0.00903277 0.000974909 0)
(0.00858351 0.000926647 0)
(0.00815496 0.000880668 0)
(0.00774653 0.000836741 0)
(0.00735682 0.000794935 0)
(0.00698571 0.000755007 0)
(0.00663122 0.000717002 0)
(0.00629409 0.00068081 0)
(0.0059698 0.000645964 0)
(0.00566667 0.000612394 0)
(0.185973 -0.0203673 0)
(0.315625 -0.00541081 0)
(0.322691 0.00556509 0)
(0.367646 0.0489981 0)
(0.209765 0.0681768 0)
(-0.212159 -0.0712509 0)
(0.0875029 -0.0672642 0)
(0.088918 -0.0598117 0)
(0.107046 -0.0619357 0)
(0.315896 -0.0487254 0)
(0.597244 0.0153076 0)
(0.545383 0.103997 0)
(0.177229 0.0396835 0)
(0.187091 -0.0351427 0)
(0.340196 -0.0161106 0)
(0.40677 0.0055745 0)
(0.396503 0.0154751 0)
(0.429801 0.0186349 0)
(0.492241 0.0322432 0)
(0.584883 0.0511801 0)
(0.669998 0.0553153 0)
(0.705786 0.0497733 0)
(0.750193 0.0485808 0)