/*--------------------------------*- C++ -*----------------------------------*\
| =========                 |                                                 |
| \\      /  F ield         | OpenFOAM: The Open Source CFD Toolbox           |
|  \\    /   O peration     | Version:  v1912                                 |
|   \\  /    A nd           | Website:  www.openfoam.com                      |
|    \\/     M anipulation  |                                                 |
\*---------------------------------------------------------------------------*/
FoamFile
{
    version     2.0;
    format      ascii;
    class       volVectorField;
    location    "60";
    object      U;
}
// * * * * * * * * * * * * * * * * * * * * * * * * * * * * * * * * * * * * * //

dimensions      [0 1 -1 0 0 0 0];


internalField   nonuniform List<vector> 
14268
(
(-1.00442 0.0161404 0)
(-1.07067 0.00970415 0)
(-1.10694 0.00320173 0)
(-1.10984 -0.00336781 0)
(-1.08207 -0.00914901 0)
(-1.02688 -0.0140729 0)
(-0.947815 -0.0179725 0)
(-0.84979 -0.0209483 0)
(-0.737709 -0.0230988 0)
(-0.615739 -0.0244788 0)
(-0.487888 -0.0251325 0)
(-0.357818 -0.0251277 0)
(-0.229071 -0.024506 0)
(-0.1047 -0.0233262 0)
(0.0127526 -0.0215861 0)
(0.119315 -0.0193094 0)
(0.213475 -0.0165672 0)
(0.292566 -0.0134573 0)
(0.355079 -0.0101953 0)
(0.400688 -0.00700239 0)
(0.430088 -0.00409553 0)
(0.445534 -0.00174157 0)
(0.450726 -0.000131726 0)
(0.450545 0.000484294 0)
(0.450479 0.000133724 0)
(0.455209 -0.00107809 0)
(0.468707 -0.00292063 0)
(0.493401 -0.00504134 0)
(0.529544 -0.00698517 0)
(0.574856 -0.00831412 0)
(0.624959 -0.00868351 0)
(0.673725 -0.00786792 0)
(0.7142 -0.00574228 0)
(0.739975 -0.0024419 0)
(0.745828 0.00182584 0)
(0.729316 0.0064724 0)
(0.687266 0.011321 0)
(0.620914 0.0157266 0)
(0.532728 0.0193717 0)
(0.428163 0.0218552 0)
(0.313351 0.0232022 0)
(0.194201 0.0232932 0)
(0.0778163 0.0223581 0)
(-0.0326178 0.0207399 0)
(-0.132463 0.0184994 0)
(-0.220407 0.0162979 0)
(-0.296602 0.013998 0)
(-0.36159 0.0121954 0)
(-0.419324 0.0107845 0)
(-0.469824 0.00976684 0)
(-0.518166 0.00949941 0)
(-0.56499 0.00928975 0)
(-0.611314 0.00943314 0)
(-0.659606 0.0097115 0)
(-0.708207 0.00971385 0)
(-0.75707 0.00964045 0)
(-0.804307 0.00911066 0)
(-0.847288 0.0080915 0)
(-0.884345 0.0068046 0)
(-0.912328 0.00483368 0)
(-0.92978 0.00276751 0)
(-0.934667 4.72553e-05 0)
(-0.924598 -0.00265825 0)
(-0.899881 -0.00561501 0)
(-0.859246 -0.00859998 0)
(-0.802964 -0.0116087 0)
(-0.730909 -0.0145278 0)
(-0.643611 -0.0173915 0)
(-0.541733 -0.0200474 0)
(-0.42632 -0.0224976 0)
(-0.299024 -0.0245852 0)
(-0.162214 -0.0262064 0)
(-0.0162831 -0.0272203 0)
(0.13256 -0.0275006 0)
(0.280777 -0.0268818 0)
(0.422583 -0.0252566 0)
(0.552782 -0.0226267 0)
(0.666013 -0.0189448 0)
(0.757357 -0.0145449 0)
(0.823763 -0.00938058 0)
(0.861337 -0.00376731 0)
(0.869943 0.00241862 0)
(0.850043 0.00844361 0)
(0.80174 0.0127767 0)
(0.735152 0.0144937 0)
(0.643141 0.0110986 0)
(-1.00874 0.0481133 0)
(-1.07534 0.0298968 0)
(-1.11171 0.0112013 0)
(-1.11446 -0.00741416 0)
(-1.08627 -0.0239991 0)
(-1.03047 -0.0385266 0)
(-0.950741 -0.0504424 0)
(-0.852103 -0.0596834 0)
(-0.739434 -0.0664547 0)
(-0.61689 -0.0709467 0)
(-0.488485 -0.0733143 0)
(-0.357895 -0.0736876 0)
(-0.22866 -0.0721997 0)
(-0.103841 -0.0689887 0)
(0.0140887 -0.0641155 0)
(0.121037 -0.0575874 0)
(0.215507 -0.0496334 0)
(0.294787 -0.0406374 0)
(0.357324 -0.0310985 0)
(0.402786 -0.0216965 0)
(0.431866 -0.0130457 0)
(0.446836 -0.00614159 0)
(0.451407 -0.00154112 0)
(0.450535 0.00010285 0)
(0.449844 -0.00129158 0)
(0.454054 -0.00526874 0)
(0.467255 -0.0110671 0)
(0.491933 -0.0176244 0)
(0.528378 -0.0235805 0)
(0.574285 -0.0276382 0)
(0.625204 -0.0287754 0)
(0.674894 -0.0262539 0)
(0.716261 -0.0200335 0)
(0.742855 -0.0102773 0)
(0.749263 0.0019887 0)
(0.732944 0.0154731 0)
(0.690778 0.0298312 0)
(0.624003 0.0430738 0)
(0.535135 0.0541733 0)
(0.429716 0.0619378 0)
(0.313981 0.0662922 0)
(0.193992 0.0668753 0)
(0.0768973 0.0643256 0)
(-0.0340222 0.0596466 0)
(-0.134129 0.05307 0)
(-0.222095 0.0465647 0)
(-0.298144 0.0397993 0)
(-0.362833 0.0344303 0)
(-0.42022 0.0302833 0)
(-0.470355 0.0272331 0)
(-0.518389 0.0263772 0)
(-0.565 0.0257556 0)
(-0.611195 0.0261698 0)
(-0.659487 0.0270078 0)
(-0.70822 0.0270404 0)
(-0.757303 0.0268487 0)
(-0.804853 0.0253061 0)
(-0.848162 0.0222903 0)
(-0.885564 0.0184596 0)
(-0.913862 0.0125636 0)
(-0.931557 0.00637458 0)
(-0.936673 -0.00193328 0)
(-0.926748 -0.0101205 0)
(-0.90211 -0.0190005 0)
(-0.861509 -0.0279081 0)
(-0.805199 -0.0369247 0)
(-0.733098 -0.0456977 0)
(-0.645694 -0.0542804 0)
(-0.543673 -0.0622799 0)
(-0.42805 -0.0696549 0)
(-0.300428 -0.0759512 0)
(-0.163234 -0.0808977 0)
(-0.0167684 -0.0839599 0)
(0.132681 -0.0847968 0)
(0.28161 -0.0829438 0)
(0.424179 -0.0780583 0)
(0.555133 -0.0701706 0)
(0.669051 -0.0591276 0)
(0.760952 -0.0458472 0)
(0.827702 -0.0303861 0)
(0.865583 -0.0141034 0)
(0.875012 0.00199894 0)
(0.857199 0.0170011 0)
(0.812565 0.0306051 0)
(0.746723 0.0444468 0)
(0.650178 0.0572426 0)
(-1.01782 0.0799426 0)
(-1.08487 0.0491872 0)
(-1.12109 0.0176165 0)
(-1.12317 -0.0136343 0)
(-1.09415 -0.0413459 0)
(-1.03724 -0.0655861 0)
(-0.956206 -0.0855075 0)
(-0.856253 -0.100839 0)
(-0.742355 -0.111994 0)
(-0.618669 -0.119312 0)
(-0.489203 -0.123062 0)
(-0.357623 -0.123511 0)
(-0.227468 -0.120831 0)
(-0.101832 -0.115324 0)
(0.0169697 -0.107017 0)
(0.12465 -0.0959392 0)
(0.219687 -0.0825343 0)
(0.299329 -0.0673587 0)
(0.361964 -0.0513039 0)
(0.407206 -0.0354719 0)
(0.435669 -0.0209343 0)
(0.449626 -0.0092269 0)
(0.452908 -0.00133124 0)
(0.450602 0.00155022 0)
(0.448522 -0.000687382 0)
(0.451691 -0.00722939 0)
(0.464318 -0.016935 0)
(0.488984 -0.0279875 0)
(0.526063 -0.0380848 0)
(0.573162 -0.0450264 0)
(0.625695 -0.0470327 0)
(0.677233 -0.042922 0)
(0.72043 -0.0324143 0)
(0.748473 -0.0159558 0)
(0.755799 0.00482797 0)
(0.739974 0.0274734 0)
(0.697682 0.0515294 0)
(0.630097 0.0736853 0)
(0.539896 0.092211 0)
(0.432795 0.105109 0)
(0.315241 0.112272 0)
(0.193584 0.113111 0)
(0.0750786 0.108715 0)
(-0.0368023 0.100749 0)
(-0.137409 0.0896595 0)
(-0.225396 0.0786673 0)
(-0.301159 0.0672626 0)
(-0.365241 0.0582586 0)
(-0.421931 0.051295 0)
(-0.471314 0.0462754 0)
(-0.518722 0.0448857 0)
(-0.564929 0.0439215 0)
(-0.610863 0.0447085 0)
(-0.659172 0.0462156 0)
(-0.708187 0.0463605 0)
(-0.757724 0.0461135 0)
(-0.805904 0.0436022 0)
(-0.849882 0.038559 0)
(-0.887978 0.032206 0)
(-0.916919 0.0223188 0)
(-0.935144 0.0119946 0)
(-0.940737 -0.00185303 0)
(-0.931038 -0.0155215 0)
(-0.906547 -0.0303532 0)
(-0.865996 -0.0452645 0)
(-0.80964 -0.0603272 0)
(-0.737444 -0.0749678 0)
(-0.649848 -0.0893152 0)
(-0.547528 -0.102676 0)
(-0.431477 -0.115025 0)
(-0.303237 -0.125582 0)
(-0.165236 -0.133864 0)
(-0.0176942 -0.139061 0)
(0.132996 -0.140522 0)
(0.283353 -0.137495 0)
(0.42745 -0.129389 0)
(0.559945 -0.116233 0)
(0.675247 -0.0977604 0)
(0.768278 -0.0755538 0)
(0.835759 -0.0496334 0)
(0.873796 -0.0223022 0)
(0.882767 0.00531452 0)
(0.863412 0.0318462 0)
(0.815905 0.0552684 0)
(0.747453 0.0764303 0)
(0.657264 0.0884683 0)
(-1.03129 0.112708 0)
(-1.09908 0.0695121 0)
(-1.13529 0.0250143 0)
(-1.13651 -0.0189235 0)
(-1.10614 -0.057907 0)
(-1.04748 -0.0918569 0)
(-0.964449 -0.119707 0)
(-0.862549 -0.141247 0)
(-0.746842 -0.15693 0)
(-0.621459 -0.167245 0)
(-0.490405 -0.172587 0)
(-0.357331 -0.173293 0)
(-0.225805 -0.169599 0)
(-0.098875 -0.16194 0)
(0.021242 -0.150312 0)
(0.130039 -0.134818 0)
(0.22594 -0.116002 0)
(0.306131 -0.094732 0)
(0.368863 -0.0721433 0)
(0.413697 -0.0498335 0)
(0.44122 -0.0292334 0)
(0.453726 -0.0127212 0)
(0.455114 -0.00168692 0)
(0.450606 0.00230051 0)
(0.446422 -0.000955594 0)
(0.448047 -0.0105349 0)
(0.459709 -0.0244822 0)
(0.484308 -0.0404191 0)
(0.522338 -0.0549609 0)
(0.571296 -0.0649643 0)
(0.626313 -0.0679894 0)
(0.680657 -0.0622498 0)
(0.726617 -0.0475174 0)
(0.757148 -0.0242727 0)
(0.766087 0.00536746 0)
(0.750843 0.0376494 0)
(0.708205 0.0719536 0)
(0.639318 0.103524 0)
(0.547012 0.129825 0)
(0.437284 0.148046 0)
(0.316927 0.158014 0)
(0.192735 0.158951 0)
(0.0721153 0.152488 0)
(-0.041184 0.140937 0)
(-0.142536 0.125022 0)
(-0.23054 0.109318 0)
(-0.305819 0.0931319 0)
(-0.36897 0.0803323 0)
(-0.424584 0.0705297 0)
(-0.472841 0.0634847 0)
(-0.519288 0.0616868 0)
(-0.564866 0.0604712 0)
(-0.610414 0.0616656 0)
(-0.658747 0.0639443 0)
(-0.708186 0.0642704 0)
(-0.75842 0.0640102 0)
(-0.807561 0.060581 0)
(-0.852541 0.0534925 0)
(-0.891688 0.0446389 0)
(-0.92159 0.0306936 0)
(-0.940552 0.0162058 0)
(-0.946838 -0.00326666 0)
(-0.937544 -0.0225187 0)
(-0.913297 -0.0433476 0)
(-0.872831 -0.0642684 0)
(-0.81639 -0.0854071 0)
(-0.744051 -0.10594 0)
(-0.656157 -0.126098 0)
(-0.553392 -0.144867 0)
(-0.436705 -0.162253 0)
(-0.307541 -0.177148 0)
(-0.168326 -0.188881 0)
(-0.0192124 -0.196292 0)
(0.133334 -0.198437 0)
(0.285844 -0.194276 0)
(0.432266 -0.182947 0)
(0.567091 -0.164462 0)
(0.684486 -0.138473 0)
(0.779256 -0.107145 0)
(0.847915 -0.0705734 0)
(0.886568 -0.0321043 0)
(0.89557 0.00626548 0)
(0.875531 0.0423448 0)
(0.827061 0.0744664 0)
(0.757249 0.103302 0)
(0.663983 0.127127 0)
(-1.04949 0.145412 0)
(-1.11822 0.0892617 0)
(-1.15422 0.0311969 0)
(-1.15411 -0.0256307 0)
(-1.12195 -0.0760265 0)
(-1.06092 -0.119737 0)
(-0.975291 -0.155474 0)
(-0.870815 -0.183151 0)
(-0.752664 -0.203226 0)
(-0.625019 -0.216362 0)
(-0.491861 -0.223085 0)
(-0.356805 -0.223883 0)
(-0.223465 -0.218991 0)
(-0.0947896 -0.209057 0)
(0.0270063 -0.193938 0)
(0.137284 -0.173862 0)
(0.234309 -0.149461 0)
(0.31526 -0.121728 0)
(0.378212 -0.0922837 0)
(0.422613 -0.0631272 0)
(0.448875 -0.0362838 0)
(0.459296 -0.014613 0)
(0.458083 -1.32038e-06 0)
(0.450526 0.0052609 0)
(0.443425 0.000866038 0)
(0.442925 -0.0119435 0)
(0.453353 -0.0303429 0)
(0.477918 -0.0515801 0)
(0.517232 -0.0710472 0)
(0.568655 -0.0845552 0)
(0.627072 -0.0888269 0)
(0.685296 -0.081626 0)
(0.735063 -0.0625088 0)
(0.768748 -0.0321975 0)
(0.779789 0.00635786 0)
(0.765522 0.0483708 0)
(0.722512 0.0931701 0)
(0.651893 0.134468 0)
(0.556747 0.168817 0)
(0.443462 0.192574 0)
(0.319301 0.205436 0)
(0.191658 0.206464 0)
(0.0681344 0.197833 0)
(-0.0471064 0.182464 0)
(-0.149436 0.161593 0)
(-0.237445 0.140908 0)
(-0.312084 0.119762 0)
(-0.373957 0.103158 0)
(-0.428077 0.0904425 0)
(-0.474797 0.0814959 0)
(-0.519963 0.0792259 0)
(-0.564698 0.0779061 0)
(-0.609715 0.0797081 0)
(-0.65807 0.0829952 0)
(-0.708084 0.0837009 0)
(-0.759267 0.0835891 0)
(-0.8097 0.0793657 0)
(-0.856049 0.0702013 0)
(-0.896619 0.0589097 0)
(-0.927829 0.0407875 0)
(-0.947819 0.0221069 0)
(-0.95507 -0.00311737 0)
(-0.946261 -0.0280749 0)
(-0.922295 -0.0549712 0)
(-0.881912 -0.0820053 0)
(-0.825373 -0.109273 0)
(-0.752848 -0.135756 0)
(-0.664561 -0.161788 0)
(-0.56123 -0.18607 0)
(-0.443701 -0.208619 0)
(-0.313308 -0.228028 0)
(-0.172497 -0.2434 0)
(-0.021235 -0.253199 0)
(0.133826 -0.256175 0)
(0.289221 -0.251004 0)
(0.438774 -0.236536 0)
(0.576736 -0.212749 0)
(0.69697 -0.179115 0)
(0.794074 -0.138535 0)
(0.864244 -0.0910196 0)
(0.903489 -0.0410576 0)
(0.912118 0.00915801 0)
(0.890546 0.056891 0)
(0.839477 0.0996872 0)
(0.76608 0.137449 0)
(0.671402 0.162916 0)
(-1.07244 0.179234 0)
(-1.14236 0.109765 0)
(-1.1782 0.0376197 0)
(-1.17644 -0.0324571 0)
(-1.1419 -0.0945899 0)
(-1.07781 -0.148248 0)
(-0.988857 -0.191968 0)
(-0.881144 -0.225748 0)
(-0.759942 -0.250206 0)
(-0.629467 -0.266169 0)
(-0.49368 -0.274346 0)
(-0.356154 -0.275251 0)
(-0.220501 -0.269222 0)
(-0.0896487 -0.256992 0)
(0.0342451 -0.238318 0)
(0.1464 -0.213729 0)
(0.24491 -0.183648 0)
(0.326867 -0.149469 0)
(0.39006 -0.113007 0)
(0.4338 -0.0768033 0)
(0.458485 -0.0432164 0)
(0.466477 -0.0161924 0)
(0.461984 0.00174175 0)
(0.450394 0.00836639 0)
(0.439606 0.00279006 0)
(0.43632 -0.0136117 0)
(0.44509 -0.0369398 0)
(0.469553 -0.0639711 0)
(0.510514 -0.0887773 0)
(0.565161 -0.106153 0)
(0.627883 -0.111971 0)
(0.691013 -0.103303 0)
(0.745637 -0.0797095 0)
(0.783475 -0.0419845 0)
(0.797322 0.00637729 0)
(0.784164 0.0588968 0)
(0.740609 0.114746 0)
(0.667748 0.16632 0)
(0.568921 0.209077 0)
(0.451031 0.238505 0)
(0.322008 0.254141 0)
(0.189944 0.254893 0)
(0.0627588 0.243693 0)
(-0.0548657 0.223969 0)
(-0.158423 0.197571 0)
(-0.246387 0.171562 0)
(-0.3201 0.145195 0)
(-0.380352 0.124387 0)
(-0.432523 0.10877 0)
(-0.47724 0.0978699 0)
(-0.520755 0.0954347 0)
(-0.564421 0.0942389 0)
(-0.608763 0.0967836 0)
(-0.657149 0.101274 0)
(-0.7079 0.102506 0)
(-0.760311 0.102644 0)
(-0.812389 0.0977255 0)
(-0.860486 0.0864727 0)
(-0.902869 0.0727901 0)
(-0.935747 0.0503694 0)
(-0.956972 0.0274359 0)
(-0.965393 -0.00358183 0)
(-0.957261 -0.0343852 0)
(-0.933651 -0.06741 0)
(-0.893393 -0.100611 0)
(-0.836707 -0.134078 0)
(-0.763952 -0.166539 0)
(-0.67519 -0.198547 0)
(-0.571143 -0.228376 0)
(-0.452606 -0.256197 0)
(-0.320703 -0.280243 0)
(-0.177887 -0.299357 0)
(-0.0239564 -0.311729 0)
(0.134249 -0.31568 0)
(0.293287 -0.309602 0)
(0.4468 -0.292014 0)
(0.588758 -0.262778 0)
(0.712609 -0.221361 0)
(0.812707 -0.171171 0)
(0.884819 -0.112372 0)
(0.924916 -0.0505046 0)
(0.933314 0.0113315 0)
(0.910049 0.0702037 0)
(0.856289 0.122537 0)
(0.779656 0.167816 0)
(0.680668 0.20101 0)
(-1.10044 0.213572 0)
(-1.17176 0.130157 0)
(-1.20725 0.0430154 0)
(-1.20334 -0.0405351 0)
(-1.16588 -0.114633 0)
(-1.09804 -0.178313 0)
(-1.00506 -0.230014 0)
(-0.893442 -0.26982 0)
(-0.768561 -0.298552 0)
(-0.634696 -0.317212 0)
(-0.495775 -0.32666 0)
(-0.355256 -0.327621 0)
(-0.216838 -0.320322 0)
(-0.0833854 -0.305745 0)
(0.0429907 -0.283367 0)
(0.157406 -0.254094 0)
(0.257693 -0.218137 0)
(0.340897 -0.176974 0)
(0.404522 -0.133062 0)
(0.447682 -0.0892944 0)
(0.470454 -0.0488503 0)
(0.475227 -0.0160564 0)
(0.466514 0.0061169 0)
(0.450157 0.0140693 0)
(0.434767 0.00691899 0)
(0.427881 -0.01359 0)
(0.43469 -0.0423832 0)
(0.459111 -0.0760473 0)
(0.502112 -0.10715 0)
(0.560662 -0.129027 0)
(0.628705 -0.13673 0)
(0.697944 -0.126812 0)
(0.75863 -0.0986025 0)
(0.801597 -0.0530907 0)
(0.818961 0.00551304 0)
(0.807131 0.0693709 0)
(0.762952 0.136809 0)
(0.68735 0.199391 0)
(0.583989 0.251096 0)
(0.460402 0.286526 0)
(0.325347 0.304976 0)
(0.187864 0.305359 0)
(0.0560778 0.291148 0)
(-0.0644509 0.266689 0)
(-0.169399 0.234461 0)
(-0.257305 0.202524 0)
(-0.329899 0.170582 0)
(-0.388098 0.145712 0)
(-0.437808 0.126894 0)
(-0.480096 0.114276 0)
(-0.521486 0.111734 0)
(-0.563833 0.110742 0)
(-0.607398 0.11425 0)
(-0.655805 0.120305 0)
(-0.707459 0.12236 0)
(-0.76141 0.122995 0)
(-0.815506 0.117541 0)
(-0.865764 0.104147 0)
(-0.910364 0.0881454 0)
(-0.945294 0.0612372 0)
(-0.968078 0.0338903 0)
(-0.977872 -0.00297743 0)
(-0.970558 -0.039955 0)
(-0.947301 -0.0792331 0)
(-0.907174 -0.118722 0)
(-0.850291 -0.158458 0)
(-0.77727 -0.196956 0)
(-0.687952 -0.235035 0)
(-0.583089 -0.270558 0)
(-0.463361 -0.303868 0)
(-0.329654 -0.332798 0)
(-0.184468 -0.356005 0)
(-0.0272727 -0.371168 0)
(0.134743 -0.376272 0)
(0.298192 -0.369482 0)
(0.456561 -0.348906 0)
(0.603393 -0.314304 0)
(0.731679 -0.264837 0)
(0.835477 -0.204797 0)
(0.909878 -0.13412 0)
(0.951126 -0.0600165 0)
(0.958952 0.0145932 0)
(0.933527 0.0855284 0)
(0.876004 0.148711 0)
(0.79479 0.202867 0)
(0.690405 0.241278 0)
(-1.13369 0.249127 0)
(-1.20663 0.151048 0)
(-1.24169 0.0480461 0)
(-1.23517 -0.0494811 0)
(-1.19411 -0.135955 0)
(-1.12174 -0.209848 0)
(-1.02397 -0.269583 0)
(-0.907742 -0.315358 0)
(-0.778548 -0.348257 0)
(-0.640718 -0.369521 0)
(-0.498126 -0.38025 0)
(-0.354132 -0.38118 0)
(-0.212539 -0.372602 0)
(-0.0760448 -0.355593 0)
(0.0532911 -0.329369 0)
(0.17043 -0.29546 0)
(0.272956 -0.253498 0)
(0.357727 -0.205352 0)
(0.421818 -0.153702 0)
(0.464085 -0.102016 0)
(0.484668 -0.0536738 0)
(0.48604 -0.0147843 0)
(0.472172 0.0113858 0)
(0.449812 0.0207703 0)
(0.428832 0.012259 0)
(0.417582 -0.0128736 0)
(0.422022 -0.0480679 0)
(0.446255 -0.0888789 0)
(0.491605 -0.126759 0)
(0.554847 -0.153776 0)
(0.629376 -0.163842 0)
(0.706068 -0.152787 0)
(0.774079 -0.119828 0)
(0.823267 -0.0659681 0)
(0.84491 0.00366587 0)
(0.834651 0.0798284 0)
(0.789706 0.159592 0)
(0.710716 0.234068 0)
(0.601811 0.295325 0)
(0.471231 0.337025 0)
(0.328945 0.3582 0)
(0.184771 0.357667 0)
(0.0476787 0.33995 0)
(-0.0761792 0.310152 0)
(-0.182881 0.271113 0)
(-0.27058 0.232935 0)
(-0.341597 0.195156 0)
(-0.397421 0.1653 0)
(-0.44407 0.143642 0)
(-0.483391 0.129089 0)
(-0.522255 0.126788 0)
(-0.562901 0.126515 0)
(-0.605562 0.131252 0)
(-0.654016 0.139151 0)
(-0.706755 0.142359 0)
(-0.762612 0.143649 0)
(-0.819127 0.1378 0)
(-0.871994 0.122298 0)
(-0.919257 0.104011 0)
(-0.956636 0.0724875 0)
(-0.981262 0.0405389 0)
(-0.992638 -0.00223775 0)
(-0.986285 -0.0456187 0)
(-0.963415 -0.0912013 0)
(-0.923416 -0.137078 0)
(-0.866299 -0.183197 0)
(-0.79295 -0.227796 0)
(-0.703014 -0.272066 0)
(-0.597209 -0.313385 0)
(-0.476148 -0.35228 0)
(-0.340374 -0.386348 0)
(-0.192373 -0.413789 0)
(-0.0314485 -0.43215 0)
(0.135131 -0.438698 0)
(0.303765 -0.431392 0)
(0.467857 -0.407868 0)
(0.62051 -0.367642 0)
(0.754145 -0.310079 0)
(0.862363 -0.23961 0)
(0.939803 -0.156754 0)
(0.982071 -0.0695169 0)
(0.989749 0.0178281 0)
(0.961557 0.101616 0)
(0.899883 0.175383 0)
(0.813397 0.238422 0)
(0.702703 0.283033 0)
(-1.17254 0.285747 0)
(-1.24727 0.172108 0)
(-1.28169 0.0520207 0)
(-1.27199 -0.0598703 0)
(-1.22661 -0.159099 0)
(-1.14888 -0.24335 0)
(-1.04552 -0.311114 0)
(-0.923964 -0.362759 0)
(-0.789806 -0.399709 0)
(-0.647447 -0.423431 0)
(-0.50071 -0.435253 0)
(-0.352791 -0.436075 0)
(-0.20753 -0.426122 0)
(-0.067502 -0.406728 0)
(0.0651823 -0.376485 0)
(0.185446 -0.337691 0)
(0.290471 -0.289552 0)
(0.377112 -0.233692 0)
(0.441963 -0.173708 0)
(0.483645 -0.11339 0)
(0.501776 -0.0572524 0)
(0.498531 -0.0117347 0)
(0.478345 0.0199354 0)
(0.449368 0.0307662 0)
(0.421622 0.0198786 0)
(0.404874 -0.0102106 0)
(0.406495 -0.0526478 0)
(0.43057 -0.101824 0)
(0.478706 -0.148027 0)
(0.547592 -0.181049 0)
(0.629903 -0.194098 0)
(0.715429 -0.18205 0)
(0.79218 -0.144031 0)
(0.848815 -0.0812786 0)
(0.875582 0.000328537 0)
(0.867184 0.090135 0)
(0.821339 0.183113 0)
(0.738406 0.270489 0)
(0.622886 0.34208 0)
(0.483989 0.390467 0)
(0.332905 0.414315 0)
(0.181075 0.412675 0)
(0.0375102 0.390623 0)
(-0.0903752 0.354568 0)
(-0.198711 0.308739 0)
(-0.286256 0.262929 0)
(-0.355486 0.218707 0)
(-0.408295 0.184598 0)
(-0.451231 0.159127 0)
(-0.486987 0.143357 0)
(-0.522844 0.141053 0)
(-0.561524 0.141702 0)
(-0.603132 0.148183 0)
(-0.651602 0.158472 0)
(-0.705644 0.163141 0)
(-0.763846 0.165433 0)
(-0.823196 0.159381 0)
(-0.879176 0.14169 0)
(-0.929581 0.121206 0)
(-0.969836 0.0848064 0)
(-0.996636 0.0480531 0)
(-1.00978 -0.000761411 0)
(-1.00453 -0.0509205 0)
(-0.982008 -0.103029 0)
(-0.942121 -0.155417 0)
(-0.884696 -0.207965 0)
(-0.810983 -0.258671 0)
(-0.720337 -0.309271 0)
(-0.613524 -0.356513 0)
(-0.49094 -0.401411 0)
(-0.352877 -0.440873 0)
(-0.20169 -0.473059 0)
(-0.036478 -0.494785 0)
(0.135399 -0.502957 0)
(0.310006 -0.495401 0)
(0.480831 -0.469104 0)
(0.640486 -0.423513 0)
(0.780369 -0.357222 0)
(0.893754 -0.276189 0)
(0.974685 -0.180028 0)
(1.01828 -0.0793374 0)
(1.02544 0.0221818 0)
(0.994225 0.11933 0)
(0.927284 0.204826 0)
(0.834483 0.277214 0)
(0.716134 0.32848 0)
(-1.21736 0.323756 0)
(-1.294 0.193428 0)
(-1.32757 0.0552141 0)
(-1.31414 -0.0717793 0)
(-1.26354 -0.184235 0)
(-1.17955 -0.27902 0)
(-1.06975 -0.3548 0)
(-0.9421 -0.412197 0)
(-0.802325 -0.452999 0)
(-0.654886 -0.479016 0)
(-0.503511 -0.491853 0)
(-0.351152 -0.492488 0)
(-0.20179 -0.481118 0)
(-0.0578044 -0.45919 0)
(0.078679 -0.424836 0)
(0.202567 -0.38107 0)
(0.310709 -0.326626 0)
(0.399759 -0.263092 0)
(0.465445 -0.194386 0)
(0.506047 -0.124925 0)
(0.521405 -0.059363 0)
(0.513453 -0.00603974 0)
(0.486118 0.0300998 0)
(0.448632 0.0425269 0)
(0.412926 0.0302548 0)
(0.389987 -0.00615601 0)
(0.388091 -0.0571705 0)
(0.411724 -0.115485 0)
(0.46317 -0.170415 0)
(0.538635 -0.210527 0)
(0.630109 -0.227131 0)
(0.726083 -0.214406 0)
(0.813119 -0.171245 0)
(0.878532 -0.0987989 0)
(0.911393 -0.00406515 0)
(0.905186 0.10042 0)
(0.85833 0.20753 0)
(0.770508 0.309185 0)
(0.647244 0.392016 0)
(0.498184 0.447538 0)
(0.33706 0.473913 0)
(0.175698 0.470378 0)
(0.0249934 0.443457 0)
(-0.106884 0.400657 0)
(-0.217969 0.345683 0)
(-0.304661 0.293002 0)
(-0.371381 0.241961 0)
(-0.421076 0.201455 0)
(-0.459407 0.17355 0)
(-0.490905 0.155696 0)
(-0.523325 0.154528 0)
(-0.559399 0.156694 0)
(-0.599957 0.164944 0)
(-0.648616 0.177842 0)
(-0.704153 0.184663 0)
(-0.765132 0.188228 0)
(-0.82778 0.182022 0)
(-0.887434 0.162362 0)
(-0.94153 0.139574 0)
(-0.985129 0.0981681 0)
(-1.01444 0.0562467 0)
(-1.02955 0.00128204 0)
(-1.02547 -0.0560564 0)
(-1.00327 -0.114703 0)
(-0.963438 -0.173734 0)
(-0.905619 -0.232954 0)
(-0.83146 -0.289923 0)
(-0.740087 -0.346929 0)
(-0.632164 -0.400284 0)
(-0.507957 -0.451094 0)
(-0.367365 -0.496382 0)
(-0.21253 -0.533566 0)
(-0.0424418 -0.559359 0)
(0.135655 -0.56967 0)
(0.317333 -0.562069 0)
(0.495625 -0.533292 0)
(0.66321 -0.481822 0)
(0.810552 -0.407009 0)
(0.929763 -0.314349 0)
(1.01482 -0.204569 0)
(1.06011 -0.0891912 0)
(1.06669 0.0265918 0)
(1.03194 0.138678 0)
(0.959346 0.235975 0)
(0.858833 0.318376 0)
(0.731771 0.376724 0)
(-1.26863 0.363551 0)
(-1.34711 0.215502 0)
(-1.3796 0.0567137 0)
(-1.36186 -0.0856687 0)
(-1.305 -0.211813 0)
(-1.21374 -0.317288 0)
(-1.09662 -0.401035 0)
(-0.962097 -0.464036 0)
(-0.816038 -0.508511 0)
(-0.662967 -0.536605 0)
(-0.506465 -0.550283 0)
(-0.349249 -0.550628 0)
(-0.195306 -0.537686 0)
(-0.0467908 -0.513198 0)
(0.0941623 -0.47487 0)
(0.222282 -0.425827 0)
(0.333685 -0.364889 0)
(0.425137 -0.29275 0)
(0.491655 -0.214484 0)
(0.532009 -0.134949 0)
(0.54466 -0.0605994 0)
(0.530226 0.00146628 0)
(0.494203 0.0444046 0)
(0.447622 0.0587931 0)
(0.402327 0.0426455 0)
(0.371537 0.000107293 0)
(0.365593 -0.0602919 0)
(0.388997 -0.129601 0)
(0.444201 -0.195894 0)
(0.52767 -0.244135 0)
(0.629846 -0.265247 0)
(0.737913 -0.251898 0)
(0.837022 -0.203058 0)
(0.912824 -0.120281 0)
(0.952782 -0.0113014 0)
(0.949044 0.110442 0)
(0.900957 0.233298 0)
(0.807755 0.350366 0)
(0.675268 0.445538 0)
(0.514944 0.508683 0)
(0.341335 0.537535 0)
(0.169572 0.531912 0)
(0.00933568 0.498347 0)
(-0.127204 0.447514 0)
(-0.239648 0.384522 0)
(-0.32652 0.320541 0)
(-0.390192 0.262962 0)
(-0.435599 0.218035 0)
(-0.468688 0.185127 0)
(-0.495272 0.167014 0)
(-0.52378 0.166048 0)
(-0.55696 0.170096 0)
(-0.596105 0.181188 0)
(-0.644883 0.197743 0)
(-0.702251 0.206862 0)
(-0.76658 0.212142 0)
(-0.832942 0.206178 0)
(-0.896975 0.184325 0)
(-0.95535 0.159349 0)
(-1.00272 0.112641 0)
(-1.03488 0.0653232 0)
(-1.05199 0.0040366 0)
(-1.04921 -0.0608851 0)
(-1.02725 -0.126511 0)
(-0.98741 -0.192303 0)
(-0.929074 -0.25809 0)
(-0.854413 -0.321095 0)
(-0.76212 -0.384801 0)
(-0.65316 -0.444343 0)
(-0.527083 -0.501915 0)
(-0.38376 -0.553281 0)
(-0.224936 -0.596157 0)
(-0.0495621 -0.626206 0)
(0.135363 -0.638848 0)
(0.325019 -0.631611 0)
(0.511951 -0.600205 0)
(0.68857 -0.543607 0)
(0.844396 -0.459132 0)
(0.970791 -0.354953 0)
(1.06037 -0.230221 0)
(1.10773 -0.0992159 0)
(1.11353 0.0322672 0)
(1.07501 0.160041 0)
(0.995659 0.27024 0)
(0.886045 0.363243 0)
(0.748516 0.42947 0)
(-1.32679 0.404675 0)
(-1.40766 0.236409 0)
(-1.43802 0.0577313 0)
(-1.41545 -0.101916 0)
(-1.35115 -0.242195 0)
(-1.25151 -0.358433 0)
(-1.12613 -0.450036 0)
(-0.983919 -0.518442 0)
(-0.830879 -0.566292 0)
(-0.671643 -0.596248 0)
(-0.509543 -0.61066 0)
(-0.347056 -0.610588 0)
(-0.188009 -0.596142 0)
(-0.0345606 -0.56905 0)
(0.11128 -0.52658 0)
(0.244192 -0.471949 0)
(0.359212 -0.404087 0)
(0.453988 -0.323464 0)
(0.522585 -0.235363 0)
(0.562487 -0.14494 0)
(0.570752 -0.0594388 0)
(0.549251 0.0132701 0)
(0.504222 0.0614991 0)
(0.445978 0.0776429 0)
(0.38978 0.0604369 0)
(0.35032 0.00900696 0)
(0.339414 -0.0628567 0)
(0.362149 -0.144097 0)
(0.42169 -0.221903 0)
(0.513607 -0.280039 0)
(0.628394 -0.306055 0)
(0.750903 -0.29251 0)
(0.864175 -0.238016 0)
(0.951951 -0.143717 0)
(1.00028 -0.0189239 0)
(0.999749 0.120764 0)
(0.950581 0.25986 0)
(0.850132 0.394376 0)
(0.706912 0.503343 0)
(0.532426 0.574906 0)
(0.345337 0.605984 0)
(0.159687 0.59678 0)
(-0.00855415 0.556648 0)
(-0.151379 0.495846 0)
(-0.266522 0.42195 0)
(-0.350344 0.352157 0)
(-0.41099 0.283183 0)
(-0.452583 0.230825 0)
(-0.479059 0.196377 0)
(-0.500061 0.175988 0)
(-0.523826 0.177479 0)
(-0.553538 0.183524 0)
(-0.591159 0.198138 0)
(-0.640475 0.217817 0)
(-0.699935 0.230649 0)
(-0.768083 0.237998 0)
(-0.838805 0.231871 0)
(-0.907772 0.208674 0)
(-0.970923 0.180989 0)
(-1.02247 0.128762 0)
(-1.05784 0.0754214 0)
(-1.07701 0.00758563 0)
(-1.07554 -0.0655029 0)
(-1.05369 -0.137994 0)
(-1.01366 -0.210709 0)
(-0.954703 -0.283506 0)
(-0.879288 -0.353016 0)
(-0.78629 -0.423149 0)
(-0.676328 -0.489239 0)
(-0.548878 -0.553118 0)
(-0.40308 -0.611153 0)
(-0.239715 -0.659976 0)
(-0.0586104 -0.695165 0)
(0.134223 -0.710997 0)
(0.33307 -0.704175 0)
(0.530071 -0.671017 0)
(0.71684 -0.608208 0)
(0.882857 -0.514757 0)
(1.01714 -0.397032 0)
(1.11228 -0.257023 0)
(1.16207 -0.108994 0)
(1.16725 0.0383748 0)
(1.12412 0.183536 0)
(1.0366 0.307871 0)
(0.916394 0.411827 0)
(0.767304 0.485803 0)
(-1.39205 0.449293 0)
(-1.4759 0.258456 0)
(-1.50347 0.0572364 0)
(-1.47504 -0.120851 0)
(-1.40205 -0.275811 0)
(-1.29283 -0.402934 0)
(-1.15823 -0.502311 0)
(-1.0075 -0.575899 0)
(-0.846807 -0.626832 0)
(-0.680884 -0.658329 0)
(-0.512772 -0.673218 0)
(-0.344651 -0.672599 0)
(-0.179989 -0.656489 0)
(-0.0211658 -0.626708 0)
(0.130119 -0.580206 0)
(0.268494 -0.519833 0)
(0.38826 -0.444892 0)
(0.486929 -0.355326 0)
(0.557678 -0.256109 0)
(0.596894 -0.153626 0)
(0.601305 -0.0564933 0)
(0.571979 0.0263421 0)
(0.514921 0.0831966 0)
(0.443441 0.102362 0)
(0.373682 0.079138 0)
(0.323666 0.0202901 0)
(0.306804 -0.0641503 0)
(0.328798 -0.160136 0)
(0.393667 -0.253337 0)
(0.497119 -0.322541 0)
(0.626387 -0.355622 0)
(0.765294 -0.342098 0)
(0.894726 -0.281051 0)
(0.996528 -0.174396 0)
(1.05474 -0.0322532 0)
(1.05732 0.129016 0)
(1.00526 0.288894 0)
(0.897023 0.442203 0)
(0.741869 0.565996 0)
(0.55229 0.646343 0)
(0.349297 0.679735 0)
(0.151392 0.667151 0)
(-0.030099 0.617627 0)
(-0.179897 0.545304 0)
(-0.296112 0.460491 0)
(-0.381937 0.373987 0)
(-0.433914 0.302765 0)
(-0.470746 0.244032 0)
(-0.490495 0.202554 0)
(-0.504795 0.183302 0)
(-0.523301 0.185388 0)
(-0.548855 0.194765 0)
(-0.585103 0.213363 0)
(-0.634883 0.238245 0)
(-0.696917 0.25453 0)
(-0.769474 0.264172 0)
(-0.844629 0.259233 0)
(-0.919218 0.233986 0)
(-0.987601 0.203673 0)
(-1.04348 0.145899 0)
(-1.08223 0.0862598 0)
(-1.10329 0.0114105 0)
(-1.10316 -0.0700823 0)
(-1.08133 -0.150161 0)
(-1.04116 -0.229836 0)
(-0.981826 -0.309375 0)
(-0.906418 -0.384794 0)
(-0.812794 -0.461843 0)
(-0.702198 -0.534371 0)
(-0.573277 -0.605618 0)
(-0.425051 -0.670848 0)
(-0.256891 -0.726757 0)
(-0.0697354 -0.76757 0)
(0.131584 -0.786857 0)
(0.340354 -0.78164 0)
(0.548951 -0.745678 0)
(0.747386 -0.678411 0)
(0.924614 -0.574453 0)
(1.06924 -0.443827 0)
(1.17016 -0.286725 0)
(1.22245 -0.120489 0)
(1.22686 0.0445175 0)
(1.17891 0.208849 0)
(1.08327 0.348557 0)
(0.9494 0.465045 0)
(0.786146 0.547185 0)
(-1.46511 0.493602 0)
(-1.55318 0.27785 0)
(-1.57717 0.0540843 0)
(-1.54103 -0.143094 0)
(-1.45784 -0.313364 0)
(-1.33771 -0.45125 0)
(-1.19288 -0.557973 0)
(-1.03273 -0.636245 0)
(-0.863688 -0.689817 0)
(-0.690599 -0.722575 0)
(-0.516102 -0.737823 0)
(-0.342176 -0.736628 0)
(-0.171534 -0.719067 0)
(-0.00710272 -0.686751 0)
(0.14984 -0.636285 0)
(0.293722 -0.570177 0)
(0.418974 -0.487428 0)
(0.521139 -0.388649 0)
(0.595385 -0.277711 0)
(0.634555 -0.162822 0)
(0.635607 -0.0498961 0)
(0.597595 0.0461631 0)
(0.52884 0.110834 0)
(0.44198 0.131805 0)
(0.355347 0.107376 0)
(0.291145 0.0362124 0)
(0.266728 -0.0635606 0)
(0.28828 -0.175901 0)
(0.359061 -0.284062 0)
(0.472361 -0.36676 0)
(0.618049 -0.406716 0)
(0.776474 -0.393648 0)
(0.925993 -0.326046 0)
(1.04442 -0.20548 0)
(1.11318 -0.0435552 0)
(1.12104 0.141414 0)
(1.06888 0.320787 0)
(0.952142 0.494975 0)
(0.782195 0.636179 0)
(0.57439 0.726443 0)
(0.351868 0.760905 0)
(0.138482 0.742876 0)
(-0.0538893 0.683197 0)
(-0.209346 0.598044 0)
(-0.327525 0.500456 0)
(-0.41101 0.403488 0)
(-0.459931 0.319072 0)
(-0.48973 0.252164 0)
(-0.500631 0.209558 0)
(-0.507961 0.187835 0)
(-0.520052 0.19358 0)
(-0.540774 0.20626 0)
(-0.575557 0.230528 0)
(-0.625798 0.260074 0)
(-0.691444 0.28092 0)
(-0.768248 0.294853 0)
(-0.848598 0.288974 0)
(-0.929261 0.26283 0)
(-1.00284 0.229282 0)
(-1.06278 0.165382 0)
(-1.10505 0.098778 0)
(-1.12749 0.0165766 0)
(-1.12874 -0.073588 0)
(-1.10767 -0.161171 0)
(-1.06788 -0.247815 0)
(-1.00849 -0.334264 0)
(-0.932863 -0.416141 0)
(-0.838765 -0.499836 0)
(-0.727581 -0.579178 0)
(-0.59749 -0.657722 0)
(-0.447386 -0.73109 0)
(-0.273966 -0.794393 0)
(-0.081414 -0.841644 0)
(0.128501 -0.865595 0)
(0.347944 -0.861547 0)
(0.568453 -0.824976 0)
(0.779533 -0.750843 0)
(0.969843 -0.637691 0)
(1.12522 -0.491122 0)
(1.23358 -0.315927 0)
(1.28917 -0.129477 0)
(1.2925 0.0549261 0)
(1.23905 0.239611 0)
(1.13527 0.396344 0)
(0.986383 0.525614 0)
(0.80636 0.615923 0)
(-1.5178 0.529041 0)
(-1.61038 0.294458 0)
(-1.6318 0.0517329 0)
(-1.5897 -0.160848 0)
(-1.49864 -0.341644 0)
(-1.37013 -0.486688 0)
(-1.2177 -0.598235 0)
(-1.05062 -0.679525 0)
(-0.875519 -0.734608 0)
(-0.697244 -0.767931 0)
(-0.518134 -0.783179 0)
(-0.3401 -0.781473 0)
(-0.164981 -0.762752 0)
(0.00362596 -0.728468 0)
(0.164735 -0.675175 0)
(0.312744 -0.605036 0)
(0.442389 -0.516716 0)
(0.546811 -0.411631 0)
(0.62374 -0.292168 0)
(0.662282 -0.168152 0)
(0.660488 -0.0447246 0)
(0.615996 0.0599708 0)
(0.53763 0.13162 0)
(0.439578 0.155989 0)
(0.34053 0.126867 0)
(0.265459 0.048689 0)
(0.235028 -0.0632179 0)
(0.2564 -0.188612 0)
(0.33077 -0.310968 0)
(0.455277 -0.403683 0)
(0.614158 -0.450126 0)
(0.787188 -0.437588 0)
(0.950982 -0.364834 0)
(1.08156 -0.233783 0)
(1.15829 -0.0572578 0)
(1.16978 0.144476 0)
(1.11613 0.342425 0)
(0.993794 0.53087 0)
(0.813871 0.684194 0)
(0.593557 0.781205 0)
(0.357106 0.816588 0)
(0.130357 0.794768 0)
(-0.0722706 0.727371 0)
(-0.232143 0.632209 0)
(-0.352605 0.523925 0)
(-0.432765 0.417725 0)
(-0.478584 0.326638 0)
(-0.503761 0.256239 0)
(-0.509009 0.209628 0)