/*--------------------------------*- C++ -*----------------------------------*\
| =========                 |                                                 |
| \\      /  F ield         | OpenFOAM: The Open Source CFD Toolbox           |
|  \\    /   O peration     | Version:  v1912                                 |
|   \\  /    A nd           | Website:  www.openfoam.com                      |
|    \\/     M anipulation  |                                                 |
\*---------------------------------------------------------------------------*/
FoamFile
{
    version     2.0;
    format      ascii;
    class       volVectorField;
    location    "30";
    object      U;
}
// * * * * * * * * * * * * * * * * * * * * * * * * * * * * * * * * * * * * * //

dimensions      [0 1 -1 0 0 0 0];


internalField   nonuniform List<vector> 
114144
(
(-0.0287386 -0.000424369 0)
(-0.0350609 -0.000443737 0)
(-0.0484961 -0.000541144 0)
(-0.0650241 -0.000644076 0)
(-0.0840179 -0.000735023 0)
(-0.104863 -0.000810888 0)
(-0.126992 -0.00086616 0)
(-0.149844 -0.000833445 0)
(-0.172939 -0.00074722 0)
(-0.195977 -0.000674971 0)
(-0.218755 -0.000646592 0)
(-0.241083 -0.00064041 0)
(-0.262734 -0.000640428 0)
(-0.283413 -0.00063428 0)
(-0.30273 -0.000611323 0)
(-0.320188 -0.000562722 0)
(-0.335204 -0.000482603 0)
(-0.347156 -0.000369234 0)
(-0.35545 -0.000225783 0)
(-0.359599 -6.01172e-05 0)
(-0.359296 0.000116121 0)
(-0.354459 0.000288386 0)
(-0.345263 0.000442062 0)
(-0.332111 0.000564843 0)
(-0.31558 0.000648778 0)
(-0.29633 0.000692006 0)
(-0.275 0.00069966 0)
(-0.252103 0.000683565 0)
(-0.227956 0.000660313 0)
(-0.202632 0.000647653 0)
(-0.175982 0.00065997 0)
(-0.147696 0.000704514 0)
(-0.117408 0.00077987 0)
(-0.084827 0.000877187 0)
(-0.0498498 0.00098611 0)
(-0.0129361 0.00112701 0)
(0.0257841 0.0011074 0)
(0.0655168 0.00113517 0)
(0.10464 0.00110437 0)
(0.141985 0.0010167 0)
(0.176184 0.000878655 0)
(0.205993 0.00070251 0)
(0.23042 0.00050449 0)
(0.248811 0.000302179 0)
(0.260885 0.000111557 0)
(0.26671 -5.57469e-05 0)
(0.26664 -0.000197911 0)
(0.261185 -0.000295425 0)
(0.250898 -0.000365733 0)
(0.23632 -0.000416127 0)
(0.217891 -0.000455747 0)
(0.195946 -0.000492822 0)
(0.170753 -0.000532602 0)
(0.142591 -0.000576771 0)
(0.111838 -0.000624784 0)
(0.0789756 -0.000676881 0)
(0.0448296 -0.00059501 0)
(0.0128213 -0.000406834 0)
(-0.0187267 -0.000632187 0)
(-0.0489817 -0.000496197 0)
(-0.0731372 -0.000391408 0)
(-0.0912132 -0.000255941 0)
(-0.101804 -0.000115015 0)
(-0.104137 2.2529e-05 0)
(-0.0978572 0.000138052 0)
(-0.0830406 0.000225946 0)
(-0.0604187 0.000264952 0)
(-0.0296608 0.000306637 0)
(0.00539541 5.81191e-05 0)
(0.0431011 0.000122643 0)
(0.0857136 0.000170017 0)
(0.131205 0.000176332 0)
(0.177858 7.5431e-05 0)
(0.224496 -1.52535e-06 0)
(0.270552 -6.17596e-05 0)
(0.315405 -0.000109216 0)
(0.358425 -0.000146071 0)
(0.39895 -0.000173933 0)
(0.436283 -0.000193704 0)
(0.469694 -0.000205199 0)
(0.498467 -0.000206999 0)
(0.521941 -0.000196639 0)
(0.539567 -0.000171123 0)
(0.550943 -0.000127624 0)
(0.555837 -6.41901e-05 0)
(0.554159 1.99476e-05 0)
(0.545984 0.000123994 0)
(0.531419 0.000247108 0)
(0.510595 0.000385934 0)
(0.48361 0.000537306 0)
(0.450508 0.000697953 0)
(0.41128 0.000865092 0)
(0.365905 0.00103647 0)
(0.314408 0.00121007 0)
(0.256948 0.00138356 0)
(0.193892 0.00155403 0)
(0.12588 0.00171629 0)
(0.0537294 0.00185942 0)
(-0.0209651 0.00202382 0)
(-0.0968524 0.00211362 0)
(-0.172573 0.00218823 0)
(-0.246145 0.00222161 0)
(-0.315981 0.00221009 0)
(-0.380625 0.00215117 0)
(-0.4389 0.00204511 0)
(-0.489958 0.00189511 0)
(-0.533315 0.00170675 0)
(-0.568816 0.00148726 0)
(-0.596595 0.00124472 0)
(-0.616996 0.000987304 0)
(-0.630511 0.000722591 0)
(-0.637686 0.000458798 0)
(-0.639122 0.000212281 0)
(-0.635271 -4.6843e-05 0)
(-0.626577 -0.000303287 0)
(-0.613424 -0.00055214 0)
(-0.596163 -0.000792454 0)
(-0.575123 -0.00102378 0)
(-0.550633 -0.0012456 0)
(-0.523029 -0.00145721 0)
(-0.492655 -0.00165781 0)
(-0.459861 -0.00184661 0)
(-0.424983 -0.00202296 0)
(-0.388319 -0.00218621 0)
(-0.350119 -0.00233503 0)
(-0.31055 -0.00246371 0)
(-0.26964 -0.00259445 0)
(-0.227468 -0.00284191 0)
(-0.184229 -0.00300207 0)
(-0.140092 -0.003131 0)
(-0.0949222 -0.00325085 0)
(-0.0493567 -0.00337667 0)
(-0.00302347 -0.00346958 0)
(0.0449449 -0.00352947 0)
(0.0933524 -0.00359001 0)
(0.141352 -0.00361432 0)
(0.188493 -0.00359172 0)
(0.234127 -0.00351385 0)
(0.277405 -0.0033689 0)
(0.317441 -0.003149 0)
(0.353275 -0.00284735 0)
(0.383926 -0.00246061 0)
(0.40845 -0.00198905 0)
(0.425995 -0.00143767 0)
(0.43586 -0.000812833 0)
(0.437449 -0.00014367 0)
(0.430772 0.000558499 0)
(0.41583 0.00128036 0)
(0.393083 0.00197818 0)
(0.363374 0.00262449 0)
(0.327915 0.00315699 0)
(0.28763 0.00358223 0)
(0.244459 0.0040814 0)
(0.200923 0.00426207 0)
(0.158481 0.0043007 0)
(0.118416 0.00419418 0)
(0.081908 0.0039559 0)
(0.0496399 0.00359599 0)
(0.02253 0.00317607 0)
(-4.73827e-05 0.00270361 0)
(-0.0186094 0.00220238 0)
(-0.032803 0.00177939 0)
(-0.0440561 0.00142855 0)
(-0.0526432 0.00117484 0)
(-0.0600604 0.00100482 0)
(-0.0670921 0.000936676 0)
(-0.0734639 0.000925533 0)
(-0.0801613 0.000955571 0)
(-0.0867462 0.000987085 0)
(-0.0932385 0.000992874 0)
(-0.0991757 0.000947252 0)
(-0.104225 0.000838698 0)
(-0.108001 0.000668116 0)
(-0.110251 0.000447578 0)
(-0.110838 0.000202519 0)
(-0.109762 -5.56777e-05 0)
(-0.107143 -0.000310455 0)
(-0.10317 -0.000545305 0)
(-0.0980522 -0.000757521 0)
(-0.0919905 -0.000948869 0)
(-0.0851528 -0.00112115 0)
(-0.0776787 -0.00127471 0)
(-0.0696766 -0.00140659 0)
(-0.0612487 -0.00151179 0)
(-0.0525263 -0.00158061 0)
(-0.0436986 -0.00160027 0)
(-0.0350303 -0.00155836 0)
(-0.0268406 -0.00144577 0)
(-0.0195074 -0.0012611 0)
(-0.0133769 -0.00101123 0)
(-0.00876709 -0.000713624 0)
(-0.00582926 -0.000393939 0)
(-0.00459043 -8.22306e-05 0)
(-0.00493077 0.000189243 0)
(-0.00654351 0.000391291 0)
(-0.00899341 0.000502981 0)
(-0.0117417 0.000510371 0)
(-0.01424 0.000413588 0)
(-0.0159431 0.000221327 0)
(-0.0163825 -5.01185e-05 0)
(-0.0151705 -0.00038437 0)
(-0.0120436 -0.000761986 0)
(-0.0068422 -0.00116335 0)
(0.000536078 -0.00157201 0)
(0.010094 -0.00197804 0)
(0.0217692 -0.00237024 0)
(0.0354607 -0.00273572 0)
(0.0510109 -0.00306698 0)
(0.0682037 -0.00335058 0)
(0.086751 -0.0035723 0)
(0.106282 -0.00371524 0)
(0.126331 -0.00376144 0)
(0.14635 -0.0036964 0)
(0.165707 -0.00350957 0)
(0.183715 -0.00319147 0)
(0.199659 -0.00274221 0)
(0.212855 -0.00216867 0)
(0.222689 -0.00148204 0)
(0.228638 -0.000701751 0)
(0.230271 0.000155201 0)
(0.227353 0.00104521 0)
(0.219671 0.00195077 0)
(0.207276 0.00282713 0)
(0.190393 0.00364242 0)
(0.169415 0.00436524 0)
(0.144903 0.00496714 0)
(0.117565 0.00542497 0)
(0.0882024 0.00572193 0)
(0.0577189 0.00584965 0)
(0.0270277 0.00580763 0)
(-0.00317037 0.00560265 0)
(-0.0319578 0.00524708 0)
(-0.0584059 0.00476532 0)
(-0.0819988 0.00418411 0)
(-0.102314 0.00353252 0)
(-0.119082 0.00284021 0)
(-0.132157 0.00213545 0)
(-0.141537 0.00144544 0)
(-0.147363 0.000793982 0)
(-0.149889 0.000195911 0)
(-0.14944 -0.000330731 0)
(-0.146425 -0.000777247 0)
(-0.141285 -0.0011411 0)
(-0.134451 -0.00142226 0)
(-0.126355 -0.00162537 0)
(-0.117401 -0.00175813 0)
(-0.107903 -0.00182919 0)
(-0.0982045 -0.00186069 0)
(-0.0884624 -0.0018965 0)
(-0.0780627 -0.00195133 0)
(-0.0272205 0.00368171 0)
(-0.0345712 0.00555493 0)
(-0.0481437 0.00702039 0)
(-0.0647815 0.00815101 0)
(-0.0838756 0.00897279 0)
(-0.104808 0.00952363 0)
(-0.126983 0.00987521 0)
(-0.149851 0.0101367 0)
(-0.172983 0.0102972 0)
(-0.196083 0.0103194 0)
(-0.21892 0.010194 0)
(-0.241294 0.00993616 0)
(-0.26299 0.00954126 0)
(-0.28372 0.00898535 0)
(-0.303097 0.00823309 0)
(-0.320621 0.00724879 0)
(-0.335705 0.00600844 0)
(-0.347718 0.00451049 0)
(-0.356058 0.00278279 0)
(-0.360229 0.000885116 0)
(-0.359916 -0.00109763 0)
(-0.355039 -0.00306525 0)
(-0.345775 -0.00491757 0)
(-0.332535 -0.00657036 0)
(-0.315908 -0.0079702 0)
(-0.296568 -0.00910381 0)
(-0.275164 -0.00999973 0)
(-0.252219 -0.010722 0)
(-0.228051 -0.0113566 0)
(-0.202733 -0.0119944 0)
(-0.176108 -0.0127117 0)
(-0.147852 -0.013553 0)
(-0.117585 -0.0145166 0)
(-0.0849987 -0.0155475 0)
(-0.049963 -0.0165344 0)
(-0.012997 -0.0172937 0)
(0.0258359 -0.0179696 0)
(0.0657651 -0.0180189 0)
(0.105068 -0.0175197 0)
(0.142595 -0.0164198 0)
(0.176955 -0.0147336 0)
(0.206889 -0.0125382 0)
(0.231392 -0.00996027 0)
(0.249805 -0.00715597 0)
(0.261851 -0.00428623 0)
(0.267607 -0.00149402 0)
(0.267449 0.00110432 0)
(0.261898 0.00350571 0)
(0.251516 0.00566318 0)
(0.236854 0.00760356 0)
(0.218355 0.00936784 0)
(0.196348 0.0109901 0)
(0.17109 0.0124779 0)
(0.142845 0.0137986 0)
(0.111976 0.0148749 0)
(0.0790057 0.0155962 0)
(0.0447477 0.0160114 0)
(0.0123853 0.0159986 0)
(-0.0194452 0.0143438 0)
(-0.0498297 0.0126263 0)
(-0.0742143 0.0100387 0)
(-0.0924502 0.00681715 0)
(-0.10314 0.00308941 0)
(-0.105497 -0.000932373 0)
(-0.0991651 -0.00503989 0)
(-0.0842313 -0.00900064 0)
(-0.0614241 -0.0126562 0)
(-0.030535 -0.0157449 0)
(0.00477644 -0.0188563 0)
(0.0428343 -0.0205498 0)
(0.0856367 -0.0217192 0)
(0.131253 -0.0224458 0)
(0.178025 -0.0228869 0)
(0.224804 -0.0229147 0)
(0.270981 -0.0225788 0)
(0.315946 -0.0219044 0)
(0.359074 -0.0208926 0)
(0.39971 -0.0195298 0)
(0.437153 -0.0177999 0)
(0.470669 -0.0156974 0)
(0.499533 -0.013237 0)
(0.523077 -0.0104577 0)
(0.540746 -0.00742122 0)
(0.552135 -0.00420454 0)
(0.557014 -0.000887849 0)
(0.555299 0.00245928 0)
(0.547074 0.00577983 0)
(0.532455 0.0090618 0)
(0.51158 0.0123015 0)
(0.484552 0.0155196 0)
(0.451414 0.0187415 0)
(0.41215 0.0219825 0)
(0.366728 0.0252327 0)
(0.315159 0.0284453 0)
(0.257589 0.0315323 0)
(0.194376 0.034368 0)
(0.126151 0.036799 0)
(0.053754 0.0386602 0)
(-0.0212418 0.0398772 0)
(-0.0974612 0.0401915 0)
(-0.173497 0.0396505 0)
(-0.247369 0.0382198 0)
(-0.317461 0.0359606 0)
(-0.382302 0.032988 0)
(-0.440703 0.029458 0)
(-0.491815 0.0255501 0)
(-0.535157 0.0214457 0)
(-0.570586 0.0173098 0)
(-0.59825 0.0132769 0)
(-0.61851 0.00944298 0)
(-0.631873 0.00586308 0)
(-0.63889 0.00257567 0)
(-0.640184 -0.000451032 0)
(-0.636211 -0.00322429 0)
(-0.6274 -0.00580822 0)
(-0.614138 -0.00820018 0)
(-0.596773 -0.0104154 0)
(-0.575631 -0.0124575 0)
(-0.55104 -0.0143234 0)
(-0.523334 -0.0160066 0)
(-0.49286 -0.0175022 0)
(-0.459971 -0.0188118 0)
(-0.425005 -0.0199463 0)
(-0.388265 -0.0209262 0)
(-0.349999 -0.0217789 0)
(-0.310384 -0.0225319 0)
(-0.269487 -0.0232409 0)
(-0.227302 -0.0240919 0)
(-0.183995 -0.0248748 0)
(-0.139817 -0.0255704 0)
(-0.0946114 -0.0262149 0)
(-0.0489896 -0.0268196 0)
(-0.00256595 -0.0272617 0)
(0.0454923 -0.0275145 0)
(0.094011 -0.0275783 0)
(0.142154 -0.0273361 0)
(0.189457 -0.0267113 0)
(0.235268 -0.0256426 0)
(0.27873 -0.0240689 0)
(0.318948 -0.021948 0)
(0.354954 -0.0192548 0)
(0.385752 -0.0159922 0)
(0.410384 -0.012192 0)
(0.427986 -0.00792073 0)
(0.437833 -0.00327997 0)
(0.439327 0.0016023 0)
(0.432473 0.00642596 0)
(0.41726 0.0111525 0)
(0.394158 0.0154834 0)
(0.364017 0.0192202 0)
(0.328075 0.022145 0)
(0.287386 0.0241256 0)
(0.243763 0.0253862 0)
(0.199754 0.025454 0)
(0.156992 0.0245537 0)
(0.116716 0.022824 0)
(0.0801154 0.0204641 0)
(0.047883 0.0176789 0)
(0.0209164 0.0147938 0)
(-0.00145541 0.0119609 0)
(-0.0197439 0.00935465 0)
(-0.033642 0.00727088 0)
(-0.0446364 0.00571582 0)
(-0.0530195 0.0047018 0)
(-0.0602961 0.0041154 0)
(-0.0672521 0.00390043 0)
(-0.0736085 0.00385766 0)
(-0.080324 0.00387077 0)
(-0.0869435 0.00379591 0)
(-0.0934654 0.00355257 0)
(-0.0994151 0.0030918 0)
(-0.104452 0.00242063 0)
(-0.108193 0.00157992 0)
(-0.110385 0.000638663 0)
(-0.110905 -0.000338509 0)
(-0.109764 -0.0012596 0)
(-0.107085 -0.00207619 0)
(-0.103063 -0.00276825 0)
(-0.0979186 -0.00333411 0)
(-0.0918516 -0.00379044 0)
(-0.0850282 -0.00416076 0)
(-0.0775822 -0.00446228 0)
(-0.0696145 -0.0047069 0)
(-0.0612159 -0.00488937 0)
(-0.0525078 -0.00498714 0)
(-0.0436728 -0.00496393 0)
(-0.034975 -0.00478078 0)
(-0.0267395 -0.0044047 0)
(-0.0193537 -0.00382586 0)
(-0.0131757 -0.00306161 0)
(-0.00853424 -0.00216228 0)
(-0.00558801 -0.00119914 0)
(-0.00436686 -0.000266708 0)
(-0.00475029 0.000540056 0)
(-0.00642577 0.00113775 0)
(-0.00895155 0.00146133 0)
(-0.0117801 0.00147752 0)
(-0.014355 0.00118195 0)
(-0.0161246 0.00059867 0)
(-0.0166175 -0.000228832 0)
(-0.0154456 -0.0012414 0)
(-0.0123441 -0.00237855 0)
(-0.00715452 -0.00358608 0)
(0.000221876 -0.00481847 0)
(0.00978639 -0.00604299 0)
(0.0214768 -0.00721869 0)
(0.0351911 -0.00832072 0)
(0.0507723 -0.00931652 0)
(0.0680065 -0.0101699 0)
(0.0866074 -0.0108368 0)
(0.106205 -0.0112679 0)
(0.126333 -0.0114126 0)
(0.146441 -0.0112235 0)
(0.165893 -0.0106635 0)
(0.184001 -0.00971154 0)
(0.200042 -0.00836461 0)
(0.213327 -0.00664039 0)
(0.22324 -0.00457888 0)
(0.229254 -0.00223795 0)
(0.230932 0.000304997 0)
(0.228031 0.00294755 0)
(0.220341 0.00565337 0)
(0.207915 0.00828126 0)
(0.190975 0.0107337 0)
(0.169919 0.0129164 0)
(0.145308 0.0147413 0)
(0.117855 0.0161372 0)
(0.0883682 0.0170513 0)
(0.0577562 0.017457 0)
(0.0269385 0.0173524 0)
(-0.00337907 0.0167573 0)
(-0.0322723 0.0157094 0)
(-0.0588071 0.0142806 0)
(-0.0824656 0.0125506 0)
(-0.102825 0.0106046 0)
(-0.119615 0.00853171 0)
(-0.13269 0.00641977 0)
(-0.142051 0.00434976 0)
(-0.147841 0.0023939 0)
(-0.15032 0.000597542 0)
(-0.149814 -0.000982925 0)
(-0.146738 -0.00232288 0)
(-0.141535 -0.00341425 0)
(-0.134639 -0.00425701 0)
(-0.126488 -0.0048653 0)
(-0.117483 -0.0052621 0)
(-0.107947 -0.00547529 0)
(-0.0982209 -0.00557085 0)
(-0.0884658 -0.00562218 0)
(-0.0785391 -0.00554297 0)
(-0.0258999 0.00577888 0)
(-0.0338718 0.00843398 0)
(-0.0476123 0.0106169 0)
(-0.064402 0.0123306 0)
(-0.0836283 0.0135957 0)
(-0.10466 0.0144669 0)
(-0.126905 0.0150333 0)
(-0.149833 0.0153627 0)
(-0.173021 0.0154883 0)
(-0.196167 0.0154424 0)
(-0.219048 0.0152472 0)
(-0.241474 0.0148924 0)
(-0.263231 0.0143485 0)
(-0.284037 0.0135646 0)
(-0.303505 0.0124772 0)
(-0.321134 0.0110246 0)
(-0.336328 0.00916531 0)
(-0.348445 0.00689431 0)
(-0.356867 0.0042542 0)
(-0.361088 0.00133866 0)
(-0.360784 -0.00171756 0)
(-0.35587 -0.00475621 0)
(-0.346527 -0.00761677 0)
(-0.333178 -0.0101635 0)
(-0.316428 -0.012309 0)
(-0.296968 -0.01403 0)
(-0.275465 -0.0153711 0)
(-0.252457 -0.0164357 0)
(-0.228267 -0.0173656 0)
(-0.202966 -0.0183111 0)
(-0.176384 -0.0193982 0)
(-0.148181 -0.0206987 0)
(-0.117954 -0.0222076 0)
(-0.0853695 -0.023834 0)
(-0.0502778 -0.0254038 0)
(-0.0132337 -0.0266749 0)
(0.0257626 -0.0276743 0)
(0.0659449 -0.0277835 0)
(0.105499 -0.0270271 0)
(0.143282 -0.0253289 0)
(0.177875 -0.0227148 0)
(0.207993 -0.0193083 0)
(0.232616 -0.0153105 0)
(0.251077 -0.0109676 0)
(0.263103 -0.00653266 0)
(0.268783 -0.00222967 0)
(0.268524 0.00175951 0)
(0.262864 0.00543621 0)
(0.252367 0.00872471 0)
(0.23761 0.0116748 0)
(0.219033 0.0143553 0)
(0.196959 0.0168237 0)
(0.171631 0.019096 0)
(0.143295 0.0211257 0)
(0.112299 0.0228009 0)
(0.0791738 0.0239666 0)
(0.0447418 0.0245011 0)
(0.0119564 0.0243309 0)
(-0.0202293 0.0220277 0)
(-0.050807 0.0193475 0)
(-0.0754982 0.0153865 0)
(-0.0939599 0.0104452 0)
(-0.104799 0.00473537 0)
(-0.107214 -0.00141511 0)
(-0.100845 -0.00768817 0)
(-0.0857921 -0.0137281 0)
(-0.0627792 -0.0192822 0)
(-0.0317539 -0.0239888 0)
(0.00387368 -0.02859 0)
(0.0423563 -0.0311483 0)
(0.0853575 -0.032978 0)
(0.13114 -0.0340912 0)
(0.178066 -0.0346685 0)
(0.225001 -0.0346665 0)
(0.271319 -0.0341328 0)
(0.316419 -0.0330965 0)
(0.359683 -0.0315559 0)
(0.40046 -0.029488 0)
(0.438045 -0.0268673 0)
(0.471699 -0.0236848 0)
(0.500688 -0.0199629 0)
(0.524334 -0.0157622 0)
(0.542073 -0.0111779 0)
(0.553498 -0.00632836 0)
(0.55838 -0.00133643 0)
(0.556643 0.0036896 0)
(0.548381 0.00866554 0)
(0.533719 0.0135733 0)
(0.512808 0.0184091 0)
(0.485753 0.0232057 0)
(0.452595 0.0280039 0)
(0.413315 0.032829 0)
(0.367864 0.0376676 0)
(0.31624 0.0424508 0)
(0.258574 0.0470466 0)
(0.19521 0.0512672 0)
(0.126776 0.0548833 0)
(0.0541206 0.0576538 0)
(-0.0211916 0.0594219 0)
(-0.0977619 0.0598957 0)
(-0.174143 0.0590699 0)
(-0.248347 0.0569202 0)
(-0.318731 0.0535382 0)
(-0.383803 0.0490975 0)
(-0.442365 0.0438325 0)
(-0.493563 0.0380118 0)
(-0.536921 0.0319058 0)
(-0.572307 0.0257603 0)
(-0.599882 0.0197747 0)
(-0.620025 0.0140905 0)
(-0.633256 0.00878796 0)
(-0.640142 0.00392125 0)
(-0.641306 -0.000575145 0)
(-0.637223 -0.00462492 0)
(-0.628321 -0.00844797 0)
(-0.614968 -0.0119835 0)
(-0.597517 -0.0152574 0)
(-0.576291 -0.018275 0)
(-0.551613 -0.0210317 0)
(-0.52382 -0.0235175 0)
(-0.493261 -0.0257253 0)
(-0.460289 -0.027657 0)
(-0.425248 -0.0293292 0)
(-0.388444 -0.0307735 0)
(-0.350127 -0.0320341 0)
(-0.310474 -0.0331629 0)
(-0.26957 -0.0342189 0)
(-0.227396 -0.0353319 0)
(-0.184066 -0.0365102 0)
(-0.139847 -0.0375582 0)
(-0.0946137 -0.0385172 0)
(-0.0489476 -0.0394105 0)
(-0.00245411 -0.0400545 0)
(0.0456703 -0.0404494 0)
(0.0942768 -0.0405474 0)
(0.142537 -0.0402083 0)
(0.189978 -0.0393141 0)
(0.235944 -0.0377766 0)
(0.279574 -0.0355054 0)
(0.319967 -0.0324382 0)
(0.356146 -0.0285371 0)
(0.387106 -0.0238047 0)
(0.411879 -0.0182849 0)
(0.429587 -0.0120722 0)
(0.439505 -0.00530703 0)
(0.441007 0.00179677 0)
(0.434092 0.0088665 0)
(0.418759 0.0158174 0)
(0.395468 0.0222207 0)
(0.365076 0.0277861 0)
(0.328825 0.0322169 0)
(0.287821 0.0352993 0)
(0.24388 0.037209 0)
(0.199525 0.0375202 0)
(0.156449 0.0363875 0)
(0.115915 0.0340219 0)
(0.0791165 0.0306946 0)
(0.0467743 0.0266927 0)
(0.0197771 0.0224968 0)
(-0.00257315 0.0182904 0)
(-0.0207453 0.014406 0)
(-0.0344603 0.0112353 0)
(-0.0452544 0.00884156 0)
(-0.0534406 0.00725781 0)
(-0.0605382 0.0063338 0)
(-0.0673515 0.00600264 0)
(-0.0736221 0.00596828 0)
(-0.080306 0.00605666 0)
(-0.0869492 0.00603677 0)
(-0.0935354 0.00576981 0)
(-0.099573 0.00516118 0)
(-0.104701 0.00420269 0)
(-0.108517 0.00294749 0)
(-0.110761 0.00149737 0)
(-0.111297 -3.14537e-05 0)
(-0.110131 -0.00151572 0)
(-0.107412 -0.00286262 0)
(-0.103347 -0.00403067 0)
(-0.0981601 -0.0050136 0)
(-0.09206 -0.00583549 0)
(-0.0852118 -0.00653133 0)
(-0.0777435 -0.00712663 0)
(-0.0697471 -0.00762775 0)
(-0.061307 -0.00801795 0)
(-0.052539 -0.00825384 0)
(-0.0436247 -0.00827106 0)
(-0.0348329 -0.00800156 0)
(-0.0264974 -0.00739167 0)
(-0.0190175 -0.00642768 0)
(-0.0127642 -0.00514348 0)
(-0.00807704 -0.00362281 0)
(-0.00512476 -0.00198942 0)
(-0.00394329 -0.00040987 0)
(-0.00440909 0.000957718 0)
(-0.00620269 0.0019713 0)
(-0.0088713 0.00252192 0)
(-0.0118535 0.00255232 0)
(-0.0145782 0.00205816 0)
(-0.0164821 0.00108172 0)
(-0.0170839 -0.000302073 0)
(-0.0159892 -0.00199556 0)
(-0.0129364 -0.00389832 0)
(-0.00777108 -0.00591731 0)
(-0.00039938 -0.00797618 0)
(0.00918024 -0.0100205 0)
(0.020902 -0.0119857 0)
(0.0346619 -0.0138261 0)
(0.0503065 -0.0154917 0)
(0.0676243 -0.0169209 0)
(0.0863317 -0.0180407 0)
(0.10606 -0.0187671 0)
(0.126345 -0.0190147 0)
(0.146632 -0.0187043 0)
(0.166277 -0.0177747 0)
(0.184584 -0.0161881 0)
(0.200821 -0.01394 0)
(0.214288 -0.0110612 0)
(0.224355 -0.00761554 0)
(0.230488 -0.0037016 0)
(0.232244 0.000552212 0)
(0.229383 0.00496679 0)
(0.221685 0.00948994 0)
(0.209197 0.0138829 0)
(0.192146 0.0179817 0)
(0.170931 0.0216272 0)
(0.146122 0.0246728 0)
(0.11844 0.0269997 0)
(0.0887023 0.0285205 0)
(0.0578328 0.0291904 0)
(0.026762 0.0290074 0)
(-0.00379406 0.0280031 0)
(-0.0328982 0.0262419 0)
(-0.0596056 0.0238438 0)
(-0.0833953 0.0209431 0)
(-0.103842 0.0176839 0)
(-0.120674 0.0142156 0)
(-0.133747 0.0106822 0)
(-0.143069 0.00722074 0)
(-0.148788 0.00395195 0)
(-0.15117 0.000950718 0)
(-0.15055 -0.00168698 0)
(-0.14735 -0.00392235 0)
(-0.142022 -0.00574125 0)
(-0.135004 -0.00714395 0)
(-0.126739 -0.00815425 0)
(-0.117635 -0.00880987 0)
(-0.108021 -0.00915887 0)
(-0.0982455 -0.00929664 0)
(-0.0885008 -0.00930139 0)
(-0.0788449 -0.00921033 0)
(-0.0243145 0.00854914 0)
(-0.0327716 0.0123535 0)
(-0.0467164 0.0155884 0)
(-0.063714 0.0181938 0)
(-0.0831362 0.0201667 0)
(-0.104339 0.0215525 0)
(-0.126723 0.0224316 0)
(-0.14976 0.0229122 0)
(-0.173034 0.0230785 0)
(-0.196252 0.0229936 0)
(-0.219202 0.0226952 0)
(-0.241704 0.0221803 0)
(-0.263557 0.0214021 0)
(-0.284488 0.0202758 0)
(-0.304113 0.0186952 0)
(-0.321926 0.0165583 0)
(-0.337317 0.0137949 0)
(-0.349621 0.0103935 0)
(-0.358199 0.00641789 0)
(-0.362518 0.00201253 0)
(-0.362239 -0.00261196 0)
(-0.357272 -0.00720901 0)
(-0.347802 -0.0115267 0)
(-0.334271 -0.0153519 0)
(-0.317312 -0.0185475 0)
(-0.297647 -0.0210775 0)
(-0.275979 -0.0230134 0)
(-0.252867 -0.0245211 0)
(-0.228648 -0.0258277 0)
(-0.203387 -0.0271744 0)
(-0.176897 -0.0287638 0)
(-0.148804 -0.0307111 0)
(-0.118662 -0.0330102 0)
(-0.0860998 -0.0355196 0)
(-0.0509275 -0.0379725 0)
(-0.0137382 -0.0400146 0)
(0.0255424 -0.0415185 0)
(0.0661475 -0.0417495 0)
(0.106143 -0.0406516 0)
(0.144377 -0.0381062 0)
(0.179383 -0.0341549 0)
(0.209832 -0.0289914 0)
(0.234672 -0.022929 0)
(0.253226 -0.0163501 0)
(0.265228 -0.00964538 0)
(0.270783 -0.00315779 0)
(0.270356 0.00284768 0)
(0.264511 0.00833219 0)
(0.253828 0.0132219 0)
(0.238916 0.0176001 0)
(0.220221 0.0215804 0)
(0.19805 0.0252593 0)
(0.172619 0.028668 0)
(0.144142 0.0317397 0)
(0.112941 0.0343031 0)
(0.0795326 0.036108 0)
(0.0447593 0.0368878 0)
(0.0113226 0.0364953 0)
(-0.0214657 0.0333709 0)
(-0.0524674 0.029281 0)
(-0.0776999 0.0233134 0)
(-0.09658 0.0158374 0)
(-0.107701 0.00719461 0)
(-0.110235 -0.00211576 0)
(-0.10382 -0.0115995 0)
(-0.0885674 -0.0207183 0)
(-0.0652095 -0.0290673 0)
(-0.0339076 -0.0361667 0)
(0.00225072 -0.0428051 0)
(0.0413951 -0.0467171 0)
(0.0847601 -0.0495298 0)
(0.130861 -0.0512077 0)
(0.178059 -0.0520141 0)
(0.225259 -0.0519704 0)
(0.271823 -0.05115 0)
(0.317161 -0.0495927 0)
(0.36067 -0.0472899 0)
(0.401703 -0.0442005 0)
(0.439553 -0.04028 0)
(0.473469 -0.0355109 0)
(0.502696 -0.0299251 0)
(0.526541 -0.0236146 0)
(0.544423 -0.0167259 0)
(0.555929 -0.00944122 0)
(0.560831 -0.00194952 0)
(0.559068 0.00558042 0)
(0.550753 0.0130231 0)
(0.536032 0.0203522 0)
(0.515071 0.0275661 0)
(0.487986 0.0347202 0)
(0.454817 0.0418828 0)
(0.41553 0.0490982 0)
(0.370053 0.0563509 0)
(0.318353 0.0635387 0)
(0.260532 0.0704616 0)
(0.19691 0.0768324 0)
(0.1281 0.082301 0)
(0.0549689 0.0864978 0)
(-0.0209248 0.0891479 0)
(-0.0981472 0.089881 0)
(-0.175187 0.0886258 0)
(-0.250024 0.0853645 0)
(-0.320969 0.0802373 0)
(-0.386495 0.073511 0)
(-0.445378 0.0655452 0)
(-0.496757 0.0567507 0)
(-0.540164 0.0475404 0)
(-0.575485 0.0382877 0)
(-0.60291 0.0292945 0)
(-0.622847 0.0207724 0)
(-0.635848 0.0128392 0)
(-0.642499 0.00557329 0)
(-0.643425 -0.00111772 0)
(-0.639154 -0.00718255 0)
(-0.630104 -0.012883 0)
(-0.61659 -0.0181513 0)
(-0.598987 -0.023032 0)
(-0.57761 -0.027533 0)
(-0.552779 -0.0316457 0)
(-0.524828 -0.0353531 0)
(-0.494109 -0.0386426 0)
(-0.460985 -0.0415162 0)
(-0.425804 -0.0439991 0)
(-0.38888 -0.0461404 0)
(-0.35047 -0.0480094 0)
(-0.310753 -0.0496877 0)
(-0.269827 -0.0512625 0)
(-0.227666 -0.0528594 0)
(-0.18431 -0.0545703 0)
(-0.140027 -0.0561514 0)
(-0.094742 -0.0576084 0)
(-0.0489864 -0.0589618 0)
(-0.0023534 -0.0599553 0)
(0.0459173 -0.0605906 0)
(0.0947231 -0.0607536 0)
(0.143243 -0.0602567 0)
(0.190992 -0.0589203 0)
(0.237306 -0.0566093 0)
(0.281318 -0.0531879 0)
(0.32211 -0.0485606 0)
(0.358689 -0.0426696 0)
(0.390028 -0.0355181 0)
(0.415132 -0.0271726 0)
(0.433098 -0.0177764 0)
(0.443158 -0.00754726 0)
(0.444675 0.00320797 0)
(0.43764 0.0138818 0)
(0.42201 0.0243602 0)
(0.398261 0.0339892 0)
(0.367259 0.0423236 0)
(0.330277 0.0489213 0)
(0.288553 0.0534639 0)
(0.243828 0.0560947 0)
(0.19864 0.0563601 0)
(0.154872 0.0544468 0)
(0.113802 0.0506843 0)
(0.0766446 0.0454952 0)
(0.0441666 0.0393422 0)
(0.017219 0.0329479 0)
(-0.00494071 0.0265792 0)
(-0.0227483 0.0208153 0)
(-0.0360111 0.0161279 0)
(-0.0463542 0.0126418 0)
(-0.0541455 0.0103774 0)
(-0.0609311 0.00909889 0)
(-0.0675389 0.00866596 0)
(-0.0737271 0.00864497 0)
(-0.0804209 0.00876366 0)
(-0.0871486 0.00868863 0)
(-0.0938549 0.00822538 0)
(-0.100018 0.00725206 0)
(-0.105245 0.00577472 0)
(-0.109117 0.00388489 0)
(-0.111357 0.00174034 0)
(-0.111845 -0.000494435 0)
(-0.110605 -0.0026147 0)
(-0.107787 -0.00451687 0)
(-0.103621 -0.00613401 0)
(-0.0983532 -0.00746363 0)
(-0.092199 -0.00854666 0)
(-0.0853227 -0.00944259 0)
(-0.0778448 -0.010197 0)
(-0.069843 -0.0108312 0)
(-0.0613831 -0.011326 0)
(-0.0525664 -0.0116226 0)
(-0.043565 -0.0116281 0)
(-0.0346498 -0.011244 0)
(-0.0261677 -0.0103875 0)
(-0.0185387 -0.00903597 0)
(-0.0121575 -0.00723066 0)
(-0.00738666 -0.00508573 0)
(-0.00441662 -0.00277734 0)
(-0.00328968 -0.000543716 0)
(-0.00387656 0.00138987 0)
(-0.00585321 0.00282491 0)
(-0.00874316 0.00360352 0)
(-0.011962 0.00364573 0)
(-0.0149151 0.00294511 0)
(-0.0170191 0.00156209 0)
(-0.0177832 -0.000393277 0)
(-0.0168081 -0.00278493 0)
(-0.0138303 -0.00546748 0)
(-0.00869944 -0.00831069 0)
(-0.00133257 -0.0112062 0)
(0.00826809 -0.0140798 0)
(0.020036 -0.0168408 0)
(0.0338639 -0.0194277 0)
(0.049601 -0.0217722 0)
(0.0670422 -0.0237876 0)
(0.0859094 -0.0253716 0)
(0.105837 -0.0264054 0)
(0.126359 -0.0267668 0)
(0.146913 -0.0263433 0)
(0.166849 -0.0250484 0)
(0.185457 -0.0228275 0)
(0.201988 -0.0196741 0)
(0.215728 -0.0156309 0)
(0.226033 -0.0107885 0)
(0.232356 -0.00528407 0)
(0.234238 0.000708465 0)
(0.231431 0.00692992 0)
(0.223715 0.0133049 0)
(0.211133 0.019497 0)
(0.193912 0.0252733 0)
(0.172457 0.0304092 0)
(0.147347 0.0346983 0)
(0.119316 0.0379733 0)
(0.0892011 0.0401116 0)
(0.057943 0.0410505 0)
(0.0264902 0.0407871 0)
(-0.00442586 0.0393671 0)
(-0.0338477 0.0368809 0)
(-0.0608147 0.0334987 0)
(-0.0848 0.0294096 0)
(-0.105375 0.0248156 0)
(-0.12227 0.0199268 0)
(-0.135342 0.0149517 0)
(-0.144605 0.0100815 0)
(-0.150215 0.00548558 0)
(-0.152451 0.00126858 0)
(-0.151658 -0.00243233 0)
(-0.148273 -0.00556616 0)
(-0.142755 -0.00811242 0)
(-0.135553 -0.0100721 0)
(-0.127117 -0.011479 0)
(-0.117862 -0.0123855 0)
(-0.108128 -0.0128605 0)
(-0.0982625 -0.0130201 0)
(-0.0884645 -0.0129511 0)
(-0.0789503 -0.0127184 0)
(-0.0223019 0.0115936 0)
(-0.031216 0.016695 0)
(-0.045425 0.0210779 0)
(-0.0627054 0.0246337 0)
(-0.0824041 0.0273374 0)
(-0.103858 0.0292329 0)
(-0.12645 0.030419 0)
(-0.14965 0.0310374 0)
(-0.17305 0.0312153 0)
(-0.196367 0.0310583 0)
(-0.219405 0.0306293 0)
(-0.242005 0.0299298 0)
(-0.263988 0.0288947 0)
(-0.285094 0.0274028 0)
(-0.304944 0.0253012 0)
(-0.323023 0.0224421 0)
(-0.338699 0.0187232 0)
(-0.351279 0.0141245 0)
(-0.360084 0.00873221 0)
(-0.364549 0.00274629 0)
(-0.364309 -0.00353872 0)
(-0.359266 -0.00977903 0)
(-0.349612 -0.0156225 0)
(-0.335815 -0.0207715 0)
(-0.318549 -0.0250351 0)
(-0.298588 -0.0283646 0)
(-0.276679 -0.0308633 0)
(-0.25342 -0.0327671 0)
(-0.229164 -0.0343983 0)
(-0.203972 -0.0360992 0)
(-0.177626 -0.0381576 0)
(-0.149704 -0.0407383 0)
(-0.119701 -0.0438354 0)
(-0.0871829 -0.0472546 0)
(-0.0519167 -0.0506298 0)
(-0.0145068 -0.0534975 0)
(0.0251868 -0.0555114 0)
(0.0663729 -0.0558816 0)
(0.106997 -0.0544391 0)
(0.145876 -0.0510208 0)
(0.18147 -0.045688 0)
(0.212388 -0.0387117 0)
(0.237535 -0.0305277 0)
(0.256219 -0.0216641 0)
(0.268181 -0.0126576 0)
(0.273561 -0.00397315 0)
(0.272887 0.00405761 0)
(0.266772 0.0112861 0)
(0.25583 0.0177177 0)
(0.24071 0.0234592 0)
(0.221858 0.0286758 0)
(0.199565 0.0335106 0)
(0.174008 0.0380154 0)
(0.145354 0.0421056 0)
(0.113878 0.0455485 0)
(0.0800731 0.0479929 0)
(0.0447969 0.0490347 0)
(0.0105269 0.0484095 0)
(-0.0230764 0.0445643 0)
(-0.0547325 0.0390811 0)
(-0.0807104 0.0311441 0)
(-0.100179 0.0211747 0)
(-0.111694 0.0096502 0)
(-0.114397 -0.00275535 0)
(-0.107916 -0.0153658 0)
(-0.092384 -0.0274628 0)
(-0.0685555 -0.0384851 0)
(-0.0368231 -0.0478633 0)
(5.01045e-05 -0.0563144 0)
(0.0400244 -0.0614931 0)
(0.0838883 -0.0651982 0)
(0.130441 -0.0673746 0)
(0.178021 -0.0683378 0)
(0.225569 -0.0681986 0)
(0.272454 -0.067068 0)
(0.318106 -0.0649957 0)
(0.361941 -0.0619633 0)
(0.403321 -0.0579092 0)
(0.441531 -0.0527676 0)
(0.475804 -0.0465102 0)
(0.505359 -0.039178 0)
(0.529476 -0.0308939 0)
(0.547554 -0.0218563 0)
(0.559171 -0.0123115 0)
(0.5641 -0.00251345 0)
(0.562301 0.00730541 0)
(0.553915 0.0169843 0)
(0.539114 0.0264886 0)
(0.51809 0.0358218 0)
(0.490973 0.0450655 0)
(0.4578 0.0543192 0)
(0.418518 0.0636505 0)
(0.373023 0.0730463 0)
(0.321241 0.0823765 0)
(0.26323 0.0913792 0)
(0.199279 0.0996748 0)
(0.129982 0.1068 0)
(0.0562214 0.112266 0)
(-0.0204387 0.115679 0)
(-0.0985183 0.116614 0)
(-0.176433 0.114929 0)
(-0.252111 0.110617 0)
(-0.3238 0.103868 0)
(-0.389925 0.095039 0)
(-0.449231 0.0846104 0)
(-0.500849 0.0731264 0)
(-0.544319 0.0611316 0)
(-0.579554 0.0491164 0)
(-0.606782 0.0374738 0)
(-0.626451 0.0264757 0)
(-0.639152 0.0162689 0)
(-0.6455 0.00694701 0)
(-0.646143 -0.00161422 0)
(-0.641642 -0.00938315 0)
(-0.632391 -0.0166664 0)
(-0.618682 -0.0233872 0)
(-0.600897 -0.0296121 0)
(-0.579337 -0.035351 0)
(-0.554316 -0.0405907 0)
(-0.52617 -0.0453069 0)
(-0.495255 -0.049481 0)
(-0.46194 -0.0531147 0)
(-0.426586 -0.0562407 0)
(-0.389518 -0.0589246 0)
(-0.350996 -0.0612587 0)
(-0.311206 -0.0633519 0)
(-0.270246 -0.0653149 0)
(-0.228097 -0.0672629 0)
(-0.184737 -0.0693389 0)
(-0.140397 -0.0713396 0)
(-0.0950557 -0.0731892 0)
(-0.0491994 -0.0749029 0)
(-0.00241164 -0.0761694 0)
(0.0460329 -0.0770023 0)
(0.0950779 -0.0772146 0)
(0.143907 -0.0765924 0)
(0.192027 -0.0749069 0)
(0.238763 -0.0719856 0)
(0.283239 -0.0676572 0)
(0.32452 -0.0617994 0)
(0.361594 -0.0543384 0)
(0.393407 -0.0452776 0)
(0.418937 -0.0346999 0)
(0.437242 -0.022785 0)
(0.447536 -0.00980933 0)
(0.449124 0.00383847 0)
(0.441977 0.0173923 0)
(0.426058 0.0307072 0)
(0.401825 0.042953 0)
(0.370159 0.0535611 0)
(0.332356 0.0619907 0)
(0.289751 0.0678146 0)
(0.244119 0.0710418 0)
(0.198001 0.0713864 0)
(0.153398 0.0689597 0)
(0.111658 0.0641774 0)
(0.0740219 0.0575696 0)
(0.0413173 0.0497409 0)
(0.0143503 0.0416164 0)
(-0.0076506 0.033424 0)
(-0.0250816 0.0261448 0)
(-0.0378506 0.0201734 0)
(-0.0476681 0.0157511 0)
(-0.0549754 0.0128994 0)
(-0.0613578 0.0113287 0)
(-0.0676797 0.0108512 0)
(-0.0737304 0.0109177 0)
(-0.0804154 0.0111704 0)
(-0.0872487 0.0111766 0)
(-0.0941314 0.0106763 0)
(-0.100499 0.00950608 0)
(-0.105914 0.00766612 0)
(-0.109923 0.00527238 0)