/*--------------------------------*- C++ -*----------------------------------*\
| =========                 |                                                 |
| \\      /  F ield         | OpenFOAM: The Open Source CFD Toolbox           |
|  \\    /   O peration     | Version:  v1912                                 |
|   \\  /    A nd           | Website:  www.openfoam.com                      |
|    \\/     M anipulation  |                                                 |
\*---------------------------------------------------------------------------*/
FoamFile
{
    version     2.0;
    format      ascii;
    class       volScalarField;
    location    "100";
    object      alpha.water;
}
// * * * * * * * * * * * * * * * * * * * * * * * * * * * * * * * * * * * * * //

dimensions      [0 0 0 0 0 0 0];


internalField   nonuniform List<scalar> 
14268
(
1
1
1
1
1
1
1
1
1
1
1
1
1
1
1
1
1
1
1
1
1
1
1
1
1
1
1
1
1
1
1
1
1
1
1
1
1
1
1
1
1
1
1
1
1
1
1
1
1
1
1
1
1
1
1
1
1
1
1
1
1
1
1
1
1
1
1
1
1
1
1
1
1
1
1
1
1
1
1
1
1
1
1
1
1
1
1
1
1
1
1
1
1
1
1
1
1
1
1
1
1
1
1
1
1
1
1
1
1
1
1
1
1
1
1
1
1
1
1
1
1
1
1
1
1
1
1
1
1
1
1
1
1
1
1
1
1
1
1
1
1
1
1
1
1
1
1
1
1
1
1
1
1
1
1
1
1
1
1
1
1
1
1
1
1
1
1
1
1
1
1
1
1
1
1
1
1
1
1
1
1
1
1
1
1
1
1
1
1
1
1
1
1
1
1
1
1
1
1
1
1
1
1
1
1
1
1
1
1
1
1
1
1
1
1
1
1
1
1
1
1
1
1
1
1
1
1
1
1
1
1
1
1
1
1
1
1
1
1
1
1
1
1
1
1
1
1
1
1
1
1
1
1
1
1
1
1
1
1
1
1
1
1
1
1
1
1
1
1
1
1
1
1
1
1
1
1
1
1
1
1
1
1
1
1
1
1
1
1
1
1
1
1
1
1
1
1
1
1
1
1
1
1
1
1
1
1
1
1
1
1
1
1
1
1
1
1
1
1
1
1
1
1
1
1
1
1
1
1
1
1
1
1
1
1
1
1
1
1
1
1
1
1
1
1
1
1
1
1
1
1
1
1
1
1
1
1
1
1
1
1
1
1
1
1
1
1
1
1
1
1
1
1
1
1
1
1
1
1
1
1
1
1
1
1
1
1
1
1
1
1
1
1
1
1
1
1
1
1
1
1
1
1
1
1
1
1
1
1
1
1
1
1
1
1
1
1
1
1
1
1
1
1
1
1
1
1
1
1
1
1
1
1
1
1
1
1
1
1
1
1
1
1
1
1
1
1
1
1
1
1
1
1
1
1
1
1
1
1
1
1
1
1
1
1
1
1
1
1
1
1
1
1
1
1
1
1
1
1
1
1
1
1
1
1
1
1
1
1
1
1
1
1
1
1
1
1
1
1
1
1
1
1
1
1
1
1
1
1
1
1
1
1
1
1
1
1
1
1
1
1
1
1
1
1
1
1
1
1
1
1
1
1
1
1
1
1
1
1
1
1
1
1
1
1
1
1
1
1
1
1
1
1
1
1
1
1
1
1
1
1
1
1
1
1
1
1
1
1
1
1
1
1
1
1
1
1
1
1
1
1
1
1
1
1
1
1
1
1
1
1
1
1
1
1
1
1
1
1
1
1
1
1
1
1
1
1
1
1
1
1
1
1
1
1
1
1
1
1
1
1
1
1
1
1
1
1
1
1
1
1
1
1
1
1
1
1
1
1
1
1
1
1
1
1
1
1
1
1
1
1
1
1
1
1
1
1
1
1
1
1
1
1
1
1
1
1
1
1
1
1
1
1
1
1
1
1
1
1
1
1
1
1
1
1
1
1
1
1
1
1
1
1
1
1
1
1
1
1
1
1
1
1
1
1
1
1
1
1
1
1
1
1
1
1
1
1
1
1
1
1
1
1
1
1
1
1
1
1
1
1
1
1
1
1
1
1
1
1
1
1
1
1
1
1
1
1
1
1
1
1
1
1
1
1
1
1
1
1
1
1
1
1
1
1
1
1
1
1
1
1
1
1
1
1
1
1
1
1
1
1
1
1
1
1
1
1
1
1
1
1
1
1
1
1
1
1
1
1
1
1
1
1
1
1
1
1
1
1
1
1
1
1
1
1
1
1
1
1
1
1
1
1
1
1
1
1
1
1
1
1
1
1
1
1
1
1
1
1
1
1
1
1
1
1
1
1
1
1
1
1
1
1
1
1
1
1
1
1
1
1
1
1
1
1
1
1
1
1
1
1
1
1
1
1
1
1
1
1
1
1
1
1
1
1
1
1
1
1
1
1
1
1
1
1
1
1
1
1
1
1
1
1
1
1
1
1
1
1
1
1
1
1
1
1
1
1
1
1
1
1
1
1
1
1
1
1
1
1
1
1
1
1
1
1
1
1
1
1
1
1
1
1
1
1
1
1
1
1
1
1
1
1
1
1
1
1
1
1
1
1
1
1
1
1
1
1
1
1
1
1
1
1
1
1
1
1
1
1
1
1
1
1
1
1
1
1
1
1
1
1
1
1
1
1
1
1
1
1
1
1
1
1
1
1
1
1
1
1
1
1
1
1
1
1
1
1
1
1
1
1
1
1
1
1
1
1
1
1
1
1
1
1
1
1
1
1
1
1
1
1
1
1
1
1
1
1
1
1
1
1
1
1
1
1
1
1
1
1
1
1
1
1
1
1
1
1
1
1
1
1
1
1
1
1
1
1
1
1
1
1
1
1
1
1
1
1
1
1
1
1
1
1
1
1
1
1
1
1
1
1
1
1
1
1
1
1
1
1
1
1
1
1
1
1
1
1
1
1
1
1
1
1
1
1
1
1
1
1
1
1
1
1
1
1
1
1
1
1
1
1
1
1
1
1
1
1
1
1
1
1
1
1
1
1
1
1
1
1
1
1
1
1
1
1
1
1
1
1
1
1
1
1
1
1
1
1
1
1
1
1
1
1
1
1
1
1
1
1
1
1
1
1
1
1
1
1
1
1
1
1
1
1
1
1
1
1
1
1
1
1
1
1
1
1
1
1
1
1
1
1
1
1
1
1
1
1
1
1
1
1
1
1
1
1
1
1
1
1
1
1
1
1
1
1
1
1
1
1
1
1
1
1
1
1
1
1
1
1
1
1
1
1
1
1
1
1
1
1
1
1
1
1
1
1
1
1
1
1
1
1
1
1
1
1
1
1
1
1
1
1
1
1
1
1
1
1
1
1
1
1
1
1
1
1
1
1
1
1
1
1
1
1
1
1
1
1
1
1
1
1
1
1
1
1
1
1
1
1
1
1
1
1
1
1
1
1
1
1
1
1
1
1
1
1
1
1
1
1
1
1
1
1
1
1
1
1
1
1
1
1
1
1
1
1
1
1
1
1
1
1
1
1
1
1
1
1
1
1
1
1
1
1
1
1
1
1
1
1
1
1
1
1
1
1
1
1
1
1
1
1
1
1
1
1
1
1
1
1
1
1
1
1
1
1
1
1
1
1
1
1
1
1
1
1
1
1
1
1
1
1
1
1
1
1
1
1
1
1
1
1
1
1
1
1
1
1
1
1
1
1
1
1
1
1
1
1
1
1
1
1
1
1
1
1
1
1
1
1
1
1
1
1
1
1
1
1
1
1
1
1
1
1
1
1
1
1
1
1
1
1
1
1
1
1
1
1
1
1
1
1
1
1
1
1
1
1
1
1
1
1
1
1
1
1
1
1
1
1
1
1
1
1
1
1
1
1
1
1
1
1
1
1
1
1
1
1
1
1
1
1
1
1
1
1
1
1
1
1
1
1
1
1
1
1
1
1
1
1
1
1
1
1
1
1
1
1
1
1
1
1
1
1
1
1
1
1
1
1
1
1
1
1
1
1
1
1
1
1
1
1
1
1
1
1
1
1
1
1
1
1
1
1
1
1
1
1
1
1
1
1
1
1
1
1
1
1
1
1
1
1
1
1
1
1
1
1
1
1
1
1
1
1
1
1
1
1
1
1
1
1
1
1
1
1
1
1
1
1
1
1
1
1
1
1
1
1
1
1
1
1
1
1
1
1
1
1
1
1
1
1
1
1
1
1
1
1
1
1
1
1
1
1
1
1
1
1
1
1
1
1
1
1
1
1
1
1
1
1
1
1
1
1
1
1
1
1
1
1
1
1
1
1
1
1
1
1
1
1
1
1
1
1
1
1
1
1
1
1
1
1
1
1
1
1
1
1
1
1
1
1
1
1
1
1
1
1
1
1
1
1
1
1
1
1
1
1
1
1
1
1
1
1
1
1
1
1
1
1
1
1
1
1
1
1
1
1
1
1
1
1
1
1
1
1
1
1
1
1
1
1
1
1
1
1
1
1
1
1
1
1
1
1
1
1
1
1
1
1
1
1
1
1
1
1
1
1
1
1
1
1
1
1
1
1
1
1
1
1
1
1
1
1
1
1
1
1
1
1
1
1
1
1
1
1
1
1
1
1
1
1
1
1
1
1
1
1
1
1
1
1
1
1
1
1
1
1
1
1
1
1
1
1
1
1
1
1
1
1
1
1
1
1
1
1
1
1
1
1
1
1
1
1
1
1
1
1
1
1
1
1
1
1
1
1
1
1
1
1
1
1
1
1
1
1
1
1
1
1
1
1
1
1
1
1
1
1
1
1
1
1
1
1
1
1
1
1
1
1
1
1
1
1
1
1
1
1
1
1
1
1
1
1
1
1
1
1
1
1
1
1
1
1
1
1
1
1
1
1
1
1
1
1
1
1
1
1
1
1
1
1
1
1
1
1
1
1
1
1
1
1
1
1
1
1
1
1
1
1
1
1
1
1
1
1
1
1
1
1
1
1
1
1
1
1
1
1
1
1
1
1
1
1
1
1
1
1
1
1
1
1
1
1
1
1
1
1
1
1
1
1
1
1
1
1
1
1
1
1
1
1
1
1
1
1
1
1
1
1
1
1
1
1
1
1
1
1
1
1
1
1
1
1
1
1
1
1
1
1
1
1
1
1
1
1
1
1
1
1
1
1
1
1
1
1
1
1
1
1
1
1
1
1
1
1
1
1
1
1
1
1
1
1
1
1
1
1
1
1
1
1
1
1
1
1
1
1
1
1
1
1
1
1
1
1
1
1
1
1
1
1
1
1
1
1
1
1
1
1
1
1
1
1
1
1
1
1
1
1
1
1
1
1
1
1
1
1
1
1
1
1
1
1
1
1
1
1
1
1
1
1
1
1
1
1
1
1
1
1
1
1
1
1
1
1
1
1
1
1
1
1
1
1
1
1
1
1
1
1
1
1
1
1
1
1
1
1
1
1
1
1
1
1
1
1
1
1
1
1
1
1
1
1
1
1
1
1
1
1
1
1
1
1
1
1
1
1
1
1
1
1
1
1
1
1
1
1
1
1
1
1
1
1
1
1
1
1
1
1
1
1
1
1
1
1
1
1
1
1
1
1
1
1
1
1
1
1
1
1
1
1
1
1
1
1
1
1
1
1
1
1
1
1
1
1
1
1
1
1
1
1
1
1
1
1
1
1
1
1
1
1
1
1
1
1
1
1
1
1
1
1
1
1
1
1
1
1
1
1
1
1
1
1
1
1
1
1
1
1
1
1
1
1
1
1
1
1
1
1
1
1
1
1
1
1
1
1
1
1
1
1
1
1
1
1
1
1
1
1
1
1
1
1
1
1
1
1
1
1
1
1
1
1
1
1
1
1
1
1
1
1
1
1
1
1
1
1
1
1
1
1
1
0.989172
0.990761
0.994865
0.99917
1
1
1
1
1
1
1
1
1
1
1
1
1
1
1
1
1
1
1
1
1
1
1
1
1
1
1
1
1
1
1
1
1
1
1
1
1
1
1
1
1
1
1
1
1
1
1
1
1
1
1
1
1
1
1
1
1
1
1
1
1
1
1
1
1
1
1
1
1
1
1
1
1
1
1
1
1
1
1
1
1
1
1
1
1
1
1
1
1
1
1
1
1
1
1
1
1
1
1
1
1
1
1
1
1
1
1
1
1
1
1
1
1
1
1
1
1
1
1
1
1
1
0.999999
0.999999
0.999999
1
1
1
1
1
0.664613
0.668442
0.704028
0.761264
0.830225
0.895794
0.953357
0.991425
1
1
1
1
1
1
1
1
1
1
1
1
1
1
1
1
1
1
1
1
1
1
1
1
1
1
1
1
1
1
1
1
1
1
1
1
1
1
1
1
1
1
1
1
1
1
1
1
1
1
1
1
1
1
1
1
1
1
1
1
1
1
1
1
1
1
1
1
1
1
1
1
1
1
1
1
1
1
1
1
1
1
1
1
1
1
1
1
1
1
1
1
1
1
1
1
1
1
1
1
1
1
1
1
1
1
1
1
1
1
1
1
1
1
1
1
1
1
1
0.999999
0.999999
0.999999
1
1
1
1
0.0843245
0.0850257
0.103299
0.143009
0.2236
0.35168
0.513437
0.693917
0.843641
0.940449
0.995026
1
1
1
1
1
1
1
1
1
1
1
1
1
1
1
1
1
1
1
1
1
1
1
1
1
1
1
1
1
1
1
1
1
1
1
1
1
1
1
1
1
1
1
1
1
1
1
1
1
1
1
1
1
1
1
1
1
1
1
1
1
1
1
1
1
1
1
1
1
1
1
1
1
1
1
1
1
1
1
1
1
1
1
1
1
1
1
1
1
1
1
1
1
1
1
1
1
1
1
1
1
1
1
1
1
1
1
1
1
1
1
1
1
1
1
1
1
1
1
0.999992
0.999999
1
1
0.00307731
0.00339587
0.00413164
0.00568521
0.00924839
0.0183851
0.0420445
0.102482
0.248727
0.465311
0.705035
0.879625
0.974833
1
1
1
1
1
1
1
1
1
1
1
1
1
1
1
1
1
1
1
1
1
1
1
1
1
1
1
1
1
1
1
1
1
1
1
1
1
1
1
1
1
1
1
1
1
1
1
1
1
1
1
1
1
1
1
1
1
1
1
1
1
1
1
1
1
1
1
1
1
1
1
1
1
1
1
1
1
1
1
1
1
1
1
1
1
1
1
1
1
1
1
1
1
1
1
1
1
1
1
1
1
1
0.999996
0.99997
0.999874
0.999628
0.99883
0.996136
0.989505
0.9764
0.957296
0.93971
0.931963
0.936858
0.954847
0.978868
0.995224
0.999782
0.999809
0.999798
0.999796
9.52992e-05
0.000107935
0.000136842
0.000185113
0.000276691
0.000514545
0.00116297
0.00295847
0.00850902
0.0291984
0.100031
0.304103
0.582641
0.830665
0.959745
1
1
1
1
1
1
1
1
1
1
1
1
1
1
1
1
1
1
1
1
1
1
1
1
1
1
1
1
1
1
1
1
1
1
1
1
1
1
1
1
1
1
1
1
1
1
1
1
1
1
1
1
1
1
1
1
1
1
1
1
1
1
1
1
1
1
1
1
1
1
1
1
1
1
1
1
1
1
1
1
1
1
1
1
1
1
1
1
1
1
1
1
1
1
1
1
1
1
0.999999
0.999994
0.999954
0.999694
0.998479
0.993095
0.968273
0.889789
0.737634
0.595668
0.494557
0.433388
0.411091
0.426504
0.486365
0.584984
0.69263
0.776443
0.833041
0.862327
0.881611
3.25355e-06
3.0397e-06
3.92775e-06
6.05326e-06
8.58506e-06
1.45106e-05
3.66512e-05
9.49516e-05
0.000247557
0.000781003
0.00286105
0.0119637
0.0541599
0.216071
0.519994
0.810665
0.956945
1
1
1
1
1
1
1
1
1
1
1
1
1
1
1
1
1
1
1
1
1
1
1
1
1
1
1
1
1
1
1
1
1
0.999999
0.999997
0.999993
0.999984
0.999963
0.99992
0.999833
0.99967
0.999372
0.998863
0.998042
0.996774
0.994914
0.992304
0.988809
0.984412
0.979235
0.97358
0.967912
0.96282
0.958905
0.956627
0.956216
0.958073
0.962097
0.967814
0.974654
0.981915
0.988835
0.994588
0.998458
0.999985
1
1
1
1
1
1
1
1
1
1
1
1
1
1
1
1
1
1
1
1
1
1
1
1
1
1
1
1
1
1
0.999999
0.999994
0.999959
0.999686
0.9978
0.984515
0.883655
0.571774
0.294886
0.142489
0.0709379
0.0380615
0.0243752
0.0202232
0.0207073
0.0269665
0.03848
0.0638895
0.112592
0.168261
0.226242
0.271919
9.5615e-08
1.00934e-07
1.08809e-07
1.53683e-07
2.84809e-07
4.58038e-07
1.15909e-06
3.38144e-06
7.76738e-06
2.49734e-05
9.37146e-05
0.00035446
0.00153108
0.00739608
0.039637
0.187599
0.508743
0.813593
0.961715
1
1
1
1
1
1
1
1
1
1
1
1
1
1
1
1
1
1
1
1
1
1
1
1
1
1
1
0.999999
0.999998
0.999996
0.99999
0.999976
0.999944
0.999869
0.999701
0.999339
0.998584
0.997046
0.993955
0.987758
0.976026
0.955748
0.923982
0.878629
0.819897
0.754167
0.69361
0.640554
0.595809
0.559657
0.532275
0.513774
0.504009
0.502675
0.509598
0.524538
0.546873
0.57609
0.611472
0.652036
0.696066
0.741283
0.785261
0.824467
0.859628
0.894412
0.928815
0.960972
0.986628
0.99953
1
1
1
1
1
0.999999
0.999999
0.999999
1
1
1
1
1
1
1
0.999999
0.999999
0.999999
0.999999
0.999999
0.999999
0.999998
0.999997
0.999991
0.999959
0.999741
0.99788
0.978585
0.764955
0.311583
0.0793982
0.00677845
0.000729373
0.000343387
0.000361745
0.000384354
0.000403689
0.000452056
0.000473684
0.000544723
0.000796344
0.00242724
0.00450238
0.00511078
0.00488503
4.17571e-09
4.76571e-09
5.08119e-09
6.27106e-09
1.11373e-08
1.79078e-08
3.84269e-08
1.08475e-07
2.65387e-07
8.66349e-07
3.38961e-06
1.22545e-05
5.33013e-05
0.000240768
0.00115124
0.00636194
0.0376426
0.192927
0.523705
0.822412
0.964647
1
1
1
1
1
1
1
1
1
1
1
1
1
1
1
1
1
1
1
1
1
0.999999
0.999999
0.999998
0.999995
0.99999
0.999977
0.999946
0.999871
0.999691
0.999258
0.998221
0.995696
0.989309
0.97317
0.935921
0.860046
0.734981
0.600546
0.473919
0.361908
0.269637
0.200567
0.153939
0.118827
0.0919209
0.0715777
0.0565179
0.0458449
0.038977
0.0354837
0.034995
0.0363149
0.0391817
0.0438261
0.0507133
0.0605706
0.0744228
0.0935801
0.119719
0.155154
0.202728
0.261393
0.330564
0.414427
0.516107
0.634903
0.762243
0.867831
0.947432
0.99452
0.999998
0.999997
0.999995
0.999995
0.999995
0.999996
0.999997
0.999998
0.999999
0.999999
0.999999
0.999998
0.999997
0.999994
0.999993
0.999993
0.999992
0.999992
0.999989
0.99998
0.999944
0.999758
0.998306
0.980943
0.724081
0.198395
0.00857101
3.35282e-05
5.09927e-05
3.11049e-05
3.24078e-05
2.7455e-05
1.33435e-05
1.42717e-05
7.40374e-05
0.000172071
0.000194706
0.000116238
0.000164588
0.000246998
0.000167893
5.51879e-05
2.81351e-10
3.40869e-10
3.56931e-10
3.81813e-10
5.65256e-10
8.65507e-10
1.6854e-09
4.44269e-09
1.11353e-08
3.41889e-08
1.23144e-07
4.57567e-07
2.09985e-06
9.24696e-06
4.11073e-05
0.000218675
0.00119698
0.00683323
0.0402525
0.20458
0.532621
0.822737
0.961091
0.999999
0.999999
0.999999
0.999999
0.999999
0.999999
0.999999
0.999999
0.999999
0.999998
0.999998
0.999998
0.999998
0.999998
0.999998
0.999998
0.999998
0.999997
0.999995
0.999993
0.999987
0.999975
0.999948
0.999886
0.999739
0.999375
0.998451
0.995982
0.988791
0.967026
0.906757
0.767611
0.582562
0.402159
0.250454
0.151286
0.0861099
0.0422861
0.016024
0.00372047
0.00106561
0.00109972
0.00112597
0.00114129
0.00114998
0.00115615
0.0011614
0.0011663
0.00117367
0.00118212
0.00123035
0.00132948
0.00148444
0.00170904
0.00202364
0.00245688
0.00304696
0.00385098
0.00495822
0.00659816
0.00926849
0.0136544
0.0212811
0.035995
0.0660641
0.132178
0.271826
0.468167
0.69161
0.866945
0.965153
0.999825
0.99996
0.999959
0.999964
0.999973
0.999982
0.999988
0.999989
0.999989
0.999985
0.999975
0.999962
0.999956
0.999955
0.999953
0.999948
0.999931
0.999877
0.999666
0.998441
0.985991
0.770885
0.189186
6.30083e-05
1.8037e-06
1.81115e-06
1.93689e-06
3.46887e-06
2.39194e-05
1.79141e-05
5.29628e-06
8.69777e-06
0.000118036
0.000327263
6.30745e-05
3.51582e-05
8.23352e-05
8.32413e-05
1.68638e-05
1.29045e-06
5.68624e-11
6.26385e-11
6.08692e-11
5.66592e-11
6.30128e-11
8.34924e-11
1.23898e-10
2.56499e-10
5.71192e-10
1.58197e-09
5.43664e-09
2.04736e-08
9.30569e-08
3.91929e-07
1.64371e-06
8.57386e-06
4.63291e-05
0.000249646
0.0013605
0.00749233
0.0416408
0.203725
0.517031
0.801086
0.944423
0.998443
0.999989
0.999988
0.999987
0.999987
0.999986
0.999986
0.999985
0.999985
0.999985
0.999984
0.999984
0.999984
0.999982
0.999978
0.99997
0.999955
0.999926
0.999866
0.999736
0.999439
0.998717
0.996819
0.991226
0.972906
0.914473
0.759326
0.539984
0.326562
0.170508
0.0787228
0.0240099
0.00158841
3.59555e-05
3.76582e-05
3.85964e-05
3.87974e-05
3.90511e-05
3.97955e-05
4.10576e-05
4.22782e-05
4.27173e-05
4.25889e-05
4.20962e-05
4.18711e-05
4.17755e-05
4.17561e-05
4.17464e-05
4.3523e-05
4.78018e-05
5.43763e-05
6.37997e-05
7.65715e-05
9.34672e-05
0.00011526
0.000143417
0.000178678
0.000229884
0.00032031
0.000456708
0.000667208
0.00108078
0.00196311
0.00408006
0.010028
0.0282519
0.087775
0.26336
0.524135
0.771129
0.909969
0.976641
0.999369
0.999771
0.99984
0.999898
0.999905
0.999899
0.999866
0.999783
0.999699
0.999669
0.999681
0.99968
0.999647
0.999547
0.999192
0.997702
0.986863
0.830278
0.23689
0.00092621
2.78217e-07
5.78715e-07
3.95013e-07
2.91336e-07
4.31194e-06
7.10101e-05
5.18865e-05
5.29356e-06
4.93524e-05
0.000310454
0.000327303
3.13612e-05
2.21488e-05
4.97389e-05
3.53862e-05
1.87031e-06
7.11399e-08
1.96167e-11
1.87185e-11
1.66169e-11
1.41582e-11
1.43531e-11
1.78288e-11
2.27282e-11
3.53117e-11
5.8481e-11
1.14842e-10
3.13596e-10
1.07488e-09
4.75235e-09
1.95081e-08
7.36899e-08
3.4051e-07
1.79054e-06
9.65101e-06
5.33381e-05
0.000284896
0.00145723
0.00734084
0.0380781
0.174036
0.458861
0.738751
0.904025
0.982779
0.999888
0.999874
0.999863
0.999857
0.999852
0.999848
0.999844
0.999843
0.999843
0.999842
0.999823
0.99978
0.999697
0.999535
0.99921
0.998508
0.996857
0.992428
0.978831
0.935074
0.805911
0.579704
0.342992
0.164432
0.0625164
0.00967345
1.05537e-06
1.16614e-06
1.22507e-06
1.23147e-06
1.23054e-06
1.22307e-06
1.21333e-06
1.19986e-06
1.18076e-06
1.1513e-06
1.13989e-06
1.14797e-06
1.18303e-06
1.22724e-06
1.24875e-06
1.26148e-06
1.26815e-06
1.2696e-06
1.2526e-06
1.2742e-06
1.37984e-06
1.5525e-06
1.81427e-06
2.17993e-06
2.68157e-06
3.36071e-06
4.27572e-06
5.45619e-06
7.048e-06
9.6933e-06
1.37905e-05
2.00929e-05
3.27951e-05
6.18705e-05
0.000135332
0.000336953
0.000923657
0.00281718
0.0100661
0.0375826
0.135844
0.344925
0.568231
0.760208
0.873569
0.933326
0.970754
0.990353
0.997247
0.998628
0.997847
0.996932
0.996867
0.997119
0.99726
0.99709
0.996308
0.993098
0.975342
0.817644
0.277876
0.00596928
3.18913e-08
3.18921e-08
2.06825e-07
1.12881e-07
1.26987e-07
1.32713e-05
8.61928e-05
8.62013e-05
8.44837e-06
0.000101084
0.000445323
0.000200277
1.22504e-05
1.01837e-05
2.38687e-05
1.63487e-05
5.83122e-07
3.95833e-09
8.79374e-12
7.2172e-12
5.4467e-12
4.07909e-12
3.89797e-12
4.5738e-12
5.79838e-12
8.54902e-12
1.31511e-11
2.08842e-11
4.10271e-11
9.5759e-11
3.04904e-10
1.06963e-09
3.53468e-09
1.47524e-08
7.28525e-08
3.62128e-07
1.90119e-06
1.01898e-05
5.35958e-05
0.000276118
0.00131835
0.00603914
0.0281363
0.118549
0.34917
0.610921
0.816274
0.923951
0.980205
0.998243
0.998482
0.998335
0.998244
0.998204
0.998209
0.998188
0.997966
0.997418
0.996302
0.99394
0.988434
0.974198
0.935268
0.830278
0.629201
0.397256
0.195677
0.0762368
0.0120896
2.38221e-08
2.50618e-08
2.69953e-08
3.0609e-08
3.41642e-08
3.57773e-08
3.60198e-08
3.60938e-08
3.57078e-08
3.49201e-08
3.37145e-08
3.19286e-08
2.95615e-08
2.70443e-08
2.61529e-08
2.64559e-08
2.78927e-08
2.99768e-08
3.2465e-08
3.43351e-08
3.54853e-08
3.48835e-08
3.49448e-08
3.73925e-08
4.16912e-08
4.86808e-08
5.8346e-08
7.15226e-08
8.95585e-08
1.13643e-07
1.44686e-07
1.85865e-07
2.52274e-07
3.61973e-07
5.20306e-07
8.31789e-07
1.6045e-06
3.72347e-06
9.37482e-06
2.58142e-05
9.27351e-05
0.000413364
0.00136805
0.0041304
0.0133649
0.0428153
0.123975
0.271648
0.417626
0.549805
0.657325
0.727723
0.789096
0.845823
0.89645
0.92998
0.943502
0.947594
0.945756
0.932648
0.871125
0.632782
0.232753
0.00975138
5.2509e-08
3.43085e-08
1.04232e-07
1.51188e-07
4.10367e-08
3.45694e-08
1.05451e-05
5.4451e-05
6.15763e-05
2.32004e-05
0.000326093
0.000445323
6.67923e-05
2.36505e-05
1.01834e-05
5.33299e-06
5.04016e-06
6.93675e-07
1.15214e-09
5.48131e-12
4.00413e-12
2.51855e-12
1.51644e-12
1.3218e-12
1.44557e-12
1.87706e-12
2.81566e-12
4.35041e-12
6.59504e-12
1.13519e-11
2.07782e-11
4.06123e-11
8.73518e-11
2.06787e-10
7.23169e-10
3.3114e-09
1.52413e-08
7.40895e-08
3.76728e-07
1.93067e-06
1.00164e-05
5.08874e-05
0.000239945
0.00100131
0.00392215
0.0156838
0.0594482
0.189893
0.400791
0.603739
0.763139
0.857035
0.910776
0.943185
0.960739
0.967299
0.966906
0.96172
0.948723
0.921236
0.863253
0.748271
0.58543
0.396111
0.215891
0.0959562
0.0223599
7.21303e-10
6.90517e-10
6.15368e-10
5.52069e-10
5.70112e-10
6.71316e-10
8.54644e-10
1.01069e-09
1.06337e-09
1.07138e-09
1.06218e-09
1.02452e-09
9.66708e-10
8.90101e-10
7.97503e-10
6.9199e-10
5.94246e-10
5.73315e-10
5.9377e-10
6.76819e-10
7.89568e-10
9.21377e-10
1.0146e-09
1.07056e-09
1.0465e-09
1.03896e-09
1.102e-09
1.20606e-09
1.39382e-09
1.64383e-09
1.9743e-09
2.44167e-09
3.04734e-09
3.76504e-09
4.74339e-09
6.61791e-09
1.02112e-08
1.45225e-08
2.26167e-08
4.7012e-08
1.16046e-07
2.82691e-07
7.13625e-07
2.31548e-06
7.62322e-06
1.7872e-05
6.58377e-05
0.000322161
0.00111285
0.00345304
0.00901467
0.0195054
0.0395864
0.0696914
0.101855
0.144412
0.204404
0.277622
0.345374
0.396509
0.42349
0.422343
0.38208
0.261439
0.103877
0.00419755
1.271e-07
6.50641e-08
4.01651e-07
4.85454e-07
2.67842e-07
1.55967e-08
2.04089e-08
1.26145e-05
3.09096e-05
2.09014e-05
1.45208e-05
0.000227908
0.000283324
7.01501e-05
4.40808e-05
2.58205e-05
1.03152e-05
3.58785e-06
2.00616e-07
1.5437e-09
4.05186e-12
2.82312e-12
1.56615e-12
7.4175e-13
5.69485e-13
5.94318e-13
7.97526e-13
1.28638e-12
2.09854e-12
3.24937e-12
4.92572e-12
7.34158e-12
1.04068e-11
1.54193e-11
2.55485e-11
5.88103e-11
2.02071e-10
8.37086e-10
3.91842e-09
1.93164e-08
9.41806e-08
4.5252e-07
2.11464e-06
9.60821e-06
4.03971e-05
0.000155828
0.000560964
0.00191625
0.0063891
0.0205044
0.0580784
0.138384
0.26281
0.380092
0.466746
0.519759
0.541318
0.537709
0.506354
0.444664
0.356183
0.251507
0.156175
0.078788
0.022305
0.000106029
8.40352e-11
9.47829e-11
1.0574e-10
1.13475e-10
1.06166e-10
9.46963e-11
9.26155e-11
9.65573e-11
1.01015e-10
9.57973e-11
8.65855e-11
7.61938e-11
6.56494e-11
5.55494e-11
4.60313e-11
3.74968e-11
2.99294e-11
2.31967e-11
1.86929e-11
1.81101e-11
1.94997e-11
2.36761e-11
2.85083e-11
3.3643e-11
3.67108e-11
3.79278e-11
3.64749e-11
3.5274e-11
3.63716e-11
3.90078e-11
4.48129e-11
5.24209e-11
6.18479e-11
7.48741e-11
9.02108e-11
1.06945e-10
1.37641e-10
2.12264e-10
3.38559e-10
4.65658e-10
7.60314e-10
1.80042e-09
4.5361e-09
1.09435e-08
3.02926e-08
8.37804e-08
2.06132e-07
3.95845e-07
1.23071e-06
5.5045e-06
2.25116e-05
9.96783e-05
0.000308941
0.000569296
0.000929024
0.00146789
0.00212599
0.00326627
0.00530612
0.00783355
0.0109923
0.0177387
0.024571
0.0254827
0.0180072
0.0027106
7.36123e-09
2.4902e-08
8.37334e-08
5.99707e-07
7.71902e-07
7.43944e-07
1.73473e-07
4.14603e-09
8.07779e-08
3.72991e-05
2.52634e-05
2.49945e-06
4.40849e-06
7.74225e-05
0.000108594
5.08014e-05
1.22507e-05
1.87342e-05
1.87842e-05
3.93653e-06
6.38897e-09
1.93401e-09
2.69089e-12
1.76013e-12
8.87282e-13
3.64163e-13
2.67796e-13
2.79456e-13
3.96053e-13
7.01802e-13
1.24971e-12
2.09123e-12
3.02979e-12
3.94169e-12
4.8827e-12
5.9973e-12
7.31756e-12
9.35802e-12
1.56272e-11
3.69764e-11
1.25833e-10
5.66138e-10
2.84854e-09
1.43535e-08
6.63965e-08
2.98236e-07
1.25849e-06
4.93444e-06
1.8278e-05
6.48791e-05
0.000219517
0.000691424
0.00199002
0.00517616
0.0119828
0.0238342
0.0396311
0.054595
0.0625844
0.0615538
0.0513051
0.0337036
0.0144832
0.00157367
7.68263e-12
1.17595e-11
1.18755e-11
1.05828e-11
1.23765e-11
1.45738e-11
1.86792e-11
1.69855e-11
1.42582e-11
1.1314e-11
8.51609e-12
6.65702e-12
5.86292e-12
5.56817e-12
5.12227e-12
4.28325e-12
3.29068e-12
2.48644e-12
1.962e-12
1.59563e-12
1.26967e-12
1.11198e-12
1.16616e-12
1.5033e-12
2.04067e-12
2.58625e-12
3.05565e-12
3.31276e-12
3.25872e-12
2.99439e-12
2.48925e-12
2.00117e-12
2.08847e-12
2.75236e-12
4.1133e-12
5.63465e-12
6.68269e-12
7.31401e-12
7.82516e-12
9.86265e-12
1.91753e-11
4.49022e-11
7.97527e-11
1.13306e-10
1.6065e-10
3.47853e-10
1.01057e-09
3.05721e-09
9.14777e-09
2.32097e-08
3.74674e-08
3.65212e-08
3.58111e-08
2.37154e-08
9.8699e-09
3.55197e-09
1.15057e-09
1.97046e-10
6.24694e-11
2.98811e-11
2.98811e-11
2.98811e-11
3.08996e-11
3.79304e-11
9.33234e-11
3.68717e-10
1.5701e-09
2.73745e-09
4.39301e-09
7.81824e-09
6.41098e-09
5.60333e-08
6.84221e-07
8.87159e-07
7.72239e-07
3.10436e-07
2.47443e-08
4.16493e-09
1.48657e-06
6.19792e-05
3.15053e-05
1.63249e-06
1.02309e-07
6.00958e-06
1.19626e-05
1.91956e-05
9.3297e-06
3.12657e-06
1.38436e-06
2.56702e-07
2.59129e-09
1.01018e-09
1.32473e-12
7.65656e-13
3.22041e-13
1.09749e-13
8.89388e-14
9.56175e-14
1.4748e-13
2.92832e-13
5.92817e-13
1.15713e-12
1.91065e-12
2.63072e-12
3.39925e-12
4.45555e-12
5.50125e-12
6.17619e-12
6.2037e-12
5.74883e-12
5.02258e-12
4.28176e-12
4.04459e-12
4.0458e-12
4.33503e-12
4.53015e-12
4.48572e-12
4.30924e-12
4.08117e-12
3.91066e-12
3.83565e-12
3.89751e-12
4.52829e-12
5.24516e-12
6.21889e-12
7.30052e-12
8.1596e-12
8.40605e-12
7.37251e-12
6.50999e-12
6.51024e-12
6.51048e-12
6.51072e-12
6.51095e-12
6.51117e-12
6.51139e-12
7.42335e-12
9.39159e-12
8.77734e-12
8.02552e-12
7.54879e-12
6.95879e-12
5.97098e-12
5.06779e-12
4.52691e-12
4.24763e-12
4.06884e-12
3.77683e-12
3.22452e-12
2.5293e-12
1.88683e-12
1.4201e-12
1.12021e-12
8.82383e-13
6.626e-13
5.86567e-13
6.46256e-13
8.98178e-13
1.28218e-12
1.74186e-12
2.12877e-12
2.52895e-12
2.4878e-12
2.18628e-12
1.65587e-12
1.28925e-12
1.66142e-12
3.16653e-12
5.36007e-12
7.3513e-12
8.52517e-12
9.32908e-12
1.01895e-11
1.44781e-11
4.20707e-11
1.06523e-10
1.83659e-10
2.56129e-10
3.89388e-10
8.69551e-10
2.12141e-09
4.00042e-09
6.96065e-09
1.42005e-08
2.40825e-08
2.2054e-08
2.24916e-08
1.47468e-08
5.87237e-09
2.18673e-09
5.26734e-10
2.98811e-11
2.98811e-11
2.98811e-11
2.98811e-11
2.98811e-11
2.98811e-11
4.90757e-11
3.09897e-10
9.27332e-10
2.72581e-09
3.47567e-09
5.4252e-09
1.4874e-08
1.06933e-07
9.33074e-07
1.09444e-06
7.48551e-07
2.66631e-07
2.28047e-08
9.56036e-10
3.36488e-09
2.36295e-05
6.19804e-05
2.45693e-05
7.56788e-07
3.18047e-10
3.18193e-10
3.19858e-10
5.88254e-06
3.52795e-06
4.89151e-07
3.32787e-08
1.27974e-09
1.77871e-10
1.28314e-10
4.21939e-13
2.10275e-13
7.5823e-14
2.35497e-14
2.01737e-14
2.17497e-14
3.38609e-14
7.13652e-14
1.61344e-13
3.88578e-13
8.18727e-13
1.35971e-12
2.00523e-12
2.93758e-12
4.17758e-12
5.60999e-12
6.52945e-12
6.9018e-12
7.06742e-12
7.23564e-12
7.13833e-12
6.29605e-12
5.45911e-12
5.04839e-12
4.90474e-12
4.70327e-12
4.34665e-12
4.00326e-12
3.8237e-12
3.82346e-12
4.36969e-12
5.27034e-12
5.97534e-12
6.2641e-12
6.35967e-12
6.49993e-12
6.50947e-12
6.50973e-12
6.50999e-12
6.51024e-12
6.51048e-12
6.51072e-12
7.35677e-12
7.45972e-12
7.17939e-12
6.33869e-12
4.94065e-12
4.17772e-12
3.82492e-12
3.60415e-12
3.20181e-12
2.99976e-12
3.18996e-12
3.40235e-12
3.35619e-12
3.00679e-12
2.37471e-12
1.71772e-12
1.19118e-12
8.37641e-13
6.08033e-13
4.22917e-13
2.60182e-13
1.78841e-13
1.68404e-13
1.94143e-13
2.49772e-13
3.30484e-13
3.58368e-13
4.83017e-13
4.36093e-13
2.9735e-13
1.78066e-13
2.20522e-13
7.30093e-13
2.27267e-12
4.05585e-12
4.97921e-12
5.13923e-12
5.42393e-12
6.12385e-12
1.32644e-11
4.74831e-11
1.19481e-10
2.0205e-10
2.8008e-10
4.37498e-10
9.82511e-10
2.19529e-09
3.00907e-09
2.66225e-09
4.11246e-09
8.27304e-09
7.92643e-09
1.01426e-08
8.50586e-09
4.67214e-09
2.26796e-09
4.02984e-10
3.05147e-11
3.15972e-11
3.43693e-11
5.8235e-11
1.12556e-10
2.64565e-10
7.40235e-09
3.60421e-08
6.9352e-08
1.20872e-07
1.14143e-07
1.74796e-07
4.54843e-07
1.24773e-06
1.5034e-06
8.33174e-07
1.60563e-07
6.5305e-09
1.24962e-09
9.54546e-10
5.79363e-09
5.02665e-05
5.15312e-05
1.072e-05
2.93527e-08
3.17901e-10
3.18047e-10
3.18193e-10
1.41319e-06
7.59726e-07
9.82141e-08
3.5321e-09
3.96558e-12
3.61221e-12
4.59798e-12
1.01057e-13
5.23986e-14
1.92699e-14
5.61208e-15
4.69461e-15
5.01914e-15
7.77999e-15
1.65196e-14
3.78465e-14
9.20173e-14
2.07383e-13
3.8799e-13
6.56131e-13
1.01568e-12
1.61837e-12
2.55266e-12
3.71473e-12
4.77397e-12
5.89238e-12
7.22512e-12
8.32372e-12
9.14426e-12
9.5462e-12
9.57035e-12
9.57035e-12
9.44008e-12
8.99913e-12
8.47562e-12
7.99941e-12
7.77586e-12
8.54242e-12
1.00365e-11
1.06363e-11
1.06359e-11
9.81605e-12
9.2038e-12
8.55893e-12
7.80323e-12
7.13497e-12
6.68122e-12
6.51761e-12
6.61684e-12
6.44598e-12
5.48171e-12
4.21658e-12
3.13962e-12
2.56975e-12
2.55326e-12
2.56255e-12
2.44018e-12
2.20322e-12
2.204e-12
2.5343e-12
2.73436e-12
2.59764e-12
2.11328e-12
1.46243e-12
9.04325e-13
5.20793e-13
2.98382e-13
1.66411e-13
7.86827e-14
2.3219e-14
5.1161e-15
3.82143e-15
5.57988e-15
9.32453e-15
1.46561e-14
1.88325e-14
2.16285e-14
2.12715e-14
1.7249e-14
1.18561e-14
7.4611e-14
4.83367e-13
1.29767e-12
1.88288e-12
1.75974e-12
1.50099e-12
1.50958e-12
1.78519e-12
9.00918e-12
4.7451e-11
1.17282e-10
1.83392e-10
2.34883e-10
3.46156e-10
5.35045e-10
5.26243e-10
3.33071e-10
2.01255e-10
1.93136e-10
2.61736e-10
4.07815e-10
5.41858e-10
3.77192e-10
3.20497e-10
2.63546e-10
7.58137e-11
3.0752e-11
3.78651e-11
6.19573e-11
1.15017e-09
6.76829e-09
2.58913e-08
2.10874e-07
9.37346e-07
1.62042e-06
1.94087e-06
1.87828e-06
1.91299e-06
1.90631e-06
2.19707e-06
1.26082e-06
1.59014e-07
7.53874e-10
1.2924e-09
1.08841e-09
8.01667e-10
2.2133e-08
5.02729e-05
2.15636e-05
1.23741e-06
2.98853e-10
3.17755e-10
3.18838e-10
3.34735e-10
7.34797e-08
5.04404e-08
1.06632e-08
6.89106e-10
1.52725e-12
1.12644e-12
7.54263e-13
2.62135e-14
1.36302e-14
4.88913e-15
1.3206e-15
1.08944e-15
1.16387e-15
1.82411e-15
3.95596e-15
9.37759e-15
2.33972e-14
5.21961e-14
9.46409e-14
1.59055e-13
2.81694e-13
5.30067e-13
9.06083e-13
1.38662e-12
1.96592e-12
2.76065e-12
4.02007e-12
5.54232e-12
7.03067e-12
8.23938e-12
9.10316e-12
9.39855e-12
9.42299e-12
9.06137e-12
8.57886e-12
8.13239e-12
7.82107e-12
7.81262e-12
8.36194e-12
9.12079e-12
9.24669e-12
8.8768e-12
8.63585e-12
8.13485e-12
7.43369e-12
6.71866e-12
6.13095e-12
5.66654e-12
4.96766e-12
3.71546e-12
2.54922e-12
1.90495e-12
1.64564e-12
1.68575e-12
1.95496e-12
1.98982e-12
1.83131e-12
1.58173e-12
1.53778e-12
1.72394e-12
1.70942e-12
1.43588e-12
9.50598e-13
4.83688e-13
1.91044e-13
6.16472e-14
1.9688e-14
7.65698e-15
4.27773e-15
1.35372e-15
3.79145e-16
3.97425e-16
5.80856e-16
1.02629e-15
1.66176e-15
2.11122e-15
2.44426e-15
2.24224e-15
1.5667e-15
1.56687e-15
4.58225e-14
2.81956e-13
6.00542e-13
6.25363e-13
5.06147e-13
4.04524e-13
4.15735e-13
5.27071e-13
5.22148e-12
3.25428e-11
7.53585e-11
1.03313e-10
1.19049e-10
1.46547e-10
1.32579e-10
1.5758e-10
2.17129e-10
1.84797e-10
1.23679e-10
5.56401e-11
2.80387e-11
2.32325e-11
3.02904e-11
3.85017e-11
4.46107e-11
3.31399e-11
3.30797e-11
4.24692e-11
2.10573e-10
5.80282e-09
2.923e-08
1.02522e-07
5.42818e-07
1.92561e-06
3.20673e-06
3.20701e-06
3.20672e-06
3.20701e-06
3.13926e-06
1.6426e-06
2.8965e-07
1.08762e-11
4.93767e-10
1.08413e-09
4.96946e-10
3.15687e-10
2.77932e-07
2.50651e-05
5.02479e-06
9.50373e-11
1.58939e-10
3.53417e-10
3.41848e-10
3.57857e-10
4.51573e-09
3.36872e-09
7.64059e-10
6.45189e-11
3.26352e-13
4.08884e-13
3.49514e-13
6.6202e-15
3.33679e-15
1.11743e-15
2.73877e-16
2.28912e-16
2.4662e-16
3.95844e-16
8.85007e-16
2.18494e-15
5.67494e-15
1.29904e-14
2.4001e-14
4.09838e-14
7.5029e-14
1.44551e-13
2.68386e-13
4.53368e-13
7.03284e-13
1.1055e-12
1.84573e-12
2.91495e-12
4.18059e-12
5.43321e-12
6.57048e-12
7.49766e-12
7.96768e-12
8.06575e-12
7.99283e-12
7.64903e-12
6.68988e-12
5.51443e-12
4.97267e-12
5.17667e-12
5.60551e-12
5.7701e-12
5.9153e-12
5.81067e-12
5.60641e-12
5.31915e-12
4.95945e-12
4.33798e-12
3.16346e-12
1.81378e-12
1.15594e-12
1.05768e-12
1.12833e-12
1.26742e-12
1.45594e-12
1.39306e-12
1.16704e-12
8.82731e-13
7.56375e-13
7.39923e-13
5.93933e-13
3.43167e-13
1.13615e-13
1.27751e-14
1.54174e-15
1.7909e-15
1.73027e-15
1.35573e-15
7.25858e-16
1.90065e-16
2.55117e-17
2.54839e-17
3.39362e-17
6.45745e-17
1.10904e-16
1.42513e-16
1.61919e-16
1.43531e-16
1.0294e-16
2.84553e-16
1.51122e-14
7.21238e-14
1.32302e-13
1.26252e-13
1.01067e-13
7.89902e-14
8.09004e-14
1.00795e-13
1.81393e-12
1.26647e-11
2.83726e-11
3.45071e-11
3.36306e-11
3.19338e-11
2.78592e-11
7.3061e-11
1.82056e-10
1.94959e-10
1.31934e-10
4.4993e-11
9.74104e-12
2.98736e-12
3.47403e-12
1.15886e-11
2.07146e-11
2.76468e-11
3.3901e-11
4.61633e-11
9.06718e-10
1.0388e-08
4.66497e-08
1.22811e-07
2.63717e-07
7.25532e-07
1.78308e-06
2.67487e-06
2.85386e-06
2.18234e-06
1.22007e-06
3.29722e-07
2.3372e-13
3.80664e-12
3.03453e-10
3.59182e-10
3.59592e-11
1.5784e-11
3.76438e-06
4.71769e-06
4.61931e-07
3.84262e-11
8.1711e-11
3.50037e-10
3.52767e-10
3.46162e-10
2.58725e-10
8.93741e-11
2.66838e-12
1.26759e-14
8.1402e-14
1.3033e-13
9.47047e-14
1.52411e-15
7.29296e-16
2.1937e-16
4.83351e-17
4.06629e-17
4.4275e-17
7.3185e-17
1.69706e-16
4.39178e-16
1.1892e-15
2.7868e-15
5.20985e-15
8.88382e-15
1.58751e-14
3.0598e-14
5.75743e-14
9.92572e-14
1.58973e-13
2.69679e-13
5.2817e-13
1.03283e-12
1.77822e-12
2.6468e-12
3.5584e-12
4.44931e-12
5.11316e-12
5.46782e-12
5.64691e-12
5.65799e-12
5.03388e-12
3.7966e-12
2.92526e-12
2.87578e-12
3.25626e-12
3.58836e-12
3.79371e-12
3.91376e-12
4.0428e-12
4.12015e-12
4.05103e-12
3.40406e-12
2.20217e-12
1.06845e-12
6.95625e-13
6.98539e-13
7.42095e-13
7.72727e-13
7.93504e-13
6.60035e-13
4.47638e-13
2.35924e-13
1.37218e-13
8.09974e-14
2.60185e-14
2.45966e-15
3.57753e-16
1.51662e-16
1.59229e-16
2.33703e-16
2.29784e-16
1.72877e-16
8.40482e-17
1.78072e-17
1.70981e-18
1.14709e-18
1.18382e-18
1.91314e-18
3.5861e-18
4.61058e-18
4.60003e-18
3.83536e-18
7.00281e-18
1.11932e-16
2.87915e-15
1.36543e-14
2.48271e-14
2.31761e-14
1.73675e-14
1.23744e-14
1.26252e-14
1.56831e-14
3.97899e-13
2.89642e-12
6.50251e-12
7.43081e-12
6.84276e-12
6.3473e-12
6.48206e-12
3.46044e-11
1.11449e-10
1.65624e-10