/*--------------------------------*- C++ -*----------------------------------*\
| =========                 |                                                 |
| \\      /  F ield         | OpenFOAM: The Open Source CFD Toolbox           |
|  \\    /   O peration     | Version:  v1912                                 |
|   \\  /    A nd           | Website:  www.openfoam.com                      |
|    \\/     M anipulation  |                                                 |
\*---------------------------------------------------------------------------*/
FoamFile
{
    version     2.0;
    format      ascii;
    class       surfaceScalarField;
    location    "100";
    object      alphaPhi0.water;
}
// * * * * * * * * * * * * * * * * * * * * * * * * * * * * * * * * * * * * * //

dimensions      [0 3 -1 0 0 0 0];
oriented        oriented;


internalField   nonuniform List<scalar> 
28285
(
-0.0618079
0.00122905
-0.0623186
0.000510733
-0.0620898
-0.000228804
-0.0611752
-0.000914598
-0.0596325
-0.00154271
-0.0575085
-0.00212399
-0.0548352
-0.00267333
-0.0516746
-0.00316054
-0.0480745
-0.0036001
-0.0440776
-0.00399691
-0.0397456
-0.00433203
-0.0351256
-0.00462001
-0.0302696
-0.00485603
-0.0252323
-0.00503723
-0.0200616
-0.00517071
-0.0148094
-0.00525224
-0.00952327
-0.0052861
-0.00424965
-0.00527362
0.000969704
-0.00521936
0.00608741
-0.0051177
0.0110675
-0.00498014
0.015878
-0.00481045
0.0204884
-0.00461041
0.0248714
-0.00438303
0.0290037
-0.00413226
0.0328641
-0.00386044
0.0364332
-0.0035691
0.0396941
-0.00326087
0.0426316
-0.00293752
0.0452331
-0.00260147
0.0474872
-0.00225414
0.0493857
-0.00189843
0.0509215
-0.00153579
0.0520915
-0.00117002
0.0528946
-0.000803092
0.0533332
-0.00043866
0.053415
-8.17423e-05
0.0531458
0.000269193
0.0525473
0.000598496
0.0516404
0.00090692
0.0504128
0.00122754
0.0488943
0.00151853
0.0471012
0.00179304
0.0450687
0.0020325
0.0428144
0.00225438
0.0403762
0.00243812
0.0377738
0.00260241
0.0350492
0.00272461
0.0322256
0.00282364
0.0293433
0.00288231
0.0264307
0.00291259
0.0235217
0.00290901
0.0206473
0.00287433
0.0178379
0.00280946
0.0151161
0.00272176
0.0125105
0.00260558
0.0100393
0.00247123
0.00771569
0.00232363
0.00556421
0.00215148
0.00357848
0.00198573
0.00177249
0.00180598
0.000147292
0.0016252
-0.00130292
0.00145022
-0.00257923
0.00127631
-0.00368607
0.00110684
-0.00462931
0.000943239
-0.00541437
0.000785064
-0.00604801
0.000633634
-0.00653561
0.000487605
-0.00688319
0.000347578
-0.00709572
0.000212533
-0.00717827
8.2549e-05
-0.00713267
-4.56017e-05
-0.0069615
-0.000171168
-0.00666726
-0.000294246
-0.00625232
-0.000414935
-0.00571951
-0.000532809
-0.00507121
-0.000648305
-0.00431346
-0.000757749
-0.00345196
-0.000861504
-0.00249541
-0.00095655
-0.00145725
-0.00103816
-0.000348932
-0.00110832
0.000813803
-0.00116274
0.00201024
-0.00119644
0.00322774
-0.00121749
0.00444557
-0.00121784
0.00565223
-0.00120666
0.00683186
-0.00117963
0.00797676
-0.0011449
0.00909242
-0.00111566
0.010183
-0.00109057
0.0112669
-0.00108391
0.0123332
-0.00106632
0.0133574
-0.00102414
0.0143667
-0.0010093
0.0153774
-0.00101074
0.0163719
-0.00099447
0.017317
-0.000945181
0.0181683
-0.000851242
0.0188573
-0.000689015
0.0193366
-0.000479265
0.0196052
-0.000268609
0.0196723
-6.71232e-05
0.0195425
0.000129753
0.0191998
0.000342717
0.0186193
0.000580483
0.0178108
0.000808542
0.0167409
0.00106993
0.0153787
0.00136216
0.0137191
0.00165963
0.0117823
0.00193682
0.00962568
0.00215658
0.00734449
0.00228118
0.00503767
0.00230682
0.00281689
0.00222078
0.000763829
0.00205306
-0.00107755
0.00184138
-0.00264309
0.00156554
-0.00388549
0.00124241
-0.00479304
0.000907546
-0.00538458
0.000591543
-0.00570041
0.000315823
-0.0057917
9.12969e-05
-0.00570288
-8.88174e-05
-0.00545845
-0.000244433
-0.00508197
-0.000376477
-0.00461923
-0.00046274
-0.00414814
-0.000471097
-0.00370031
-0.000447825
-0.00324752
-0.00045279
-0.00276002
-0.000487505
-0.00222388
-0.000536137
-0.000569599
-0.00165428
-0.061936
0.00241624
-0.0624083
0.000983009
-0.0621351
-0.000501982
-0.0611815
-0.00186823
-0.0596026
-0.00312155
-0.0574455
-0.00428109
-0.0547406
-0.00537829
-0.0515516
-0.00634954
-0.0479265
-0.00722518
-0.0439065
-0.00801686
-0.0395549
-0.00868367
-0.0349182
-0.00925672
-0.030048
-0.00972619
-0.0249996
-0.0100856
-0.0198205
-0.0103499
-0.0145622
-0.0105105
-0.00927279
-0.0105755
-0.0039994
-0.010547
0.00121599
-0.0104347
0.00632938
-0.0102311
0.0113033
-0.00995408
0.0161056
-0.00961272
0.0207064
-0.00921119
0.0250787
-0.00875535
0.0291993
-0.00825283
0.033047
-0.00770816
0.0366023
-0.0071244
0.0398482
-0.00650678
0.04277
-0.0058593
0.0453556
-0.00518709
0.0475938
-0.00449234
0.0494758
-0.00378042
0.0509949
-0.00305494
0.0521488
-0.00232394
0.0529366
-0.00159086
0.0533608
-0.000862832
0.0534283
-0.000149213
0.0531468
0.000550669
0.0525368
0.00120843
0.0516181
0.0018257
0.0503793
0.00246628
0.0488505
0.0030474
0.0470481
0.00359536
0.0450073
0.00407332
0.0427459
0.00451579
0.0403017
0.00488237
0.0376945
0.0052096
0.0349661
0.00545298
0.03214
0.00564974
0.0292563
0.00576603
0.0263434
0.00582546
0.0234354
0.00581706
0.020563
0.00574666
0.0177565
0.00561596
0.0150392
0.00543904
0.0124396
0.00520525
0.00997474
0.00493607
0.00765781
0.00464056
0.00551259
0.00429669
0.00353321
0.00396512
0.00173361
0.00360559
0.000114038
0.00324477
-0.00133022
0.00289448
-0.00260082
0.0025469
-0.00370234
0.00220836
-0.00464076
0.00188166
-0.00542152
0.00156582
-0.00605135
0.00126346
-0.00653566
0.000971914
-0.00688034
0.000692255
-0.00709007
0.000422267
-0.00716981
0.000162284
-0.00712148
-9.39313e-05
-0.00694767
-0.000344979
-0.00665098
-0.000590929
-0.00623382
-0.000832092
-0.00569897
-0.00106766
-0.00504884
-0.00129843
-0.00428944
-0.00151715
-0.00342661
-0.00172434
-0.00246908
-0.00191408
-0.00143029
-0.00207695
-0.000321557
-0.00221705
0.000840861
-0.00232515
0.00203697
-0.00239255
0.00325373
-0.00243426
0.00447041
-0.00243451
0.00567547
-0.00241172
0.0068531
-0.00235726
0.00799573
-0.00228752
0.00910911
-0.00222905
0.0101973
-0.00217876
0.0112789
-0.00216553
0.012343
-0.0021304
0.013365
-0.00204618
0.0143728
-0.00201705
0.0153823
-0.00202021
0.0163754
-0.00198765
0.0173191
-0.00188884
0.0181683
-0.00170048
0.0188547
-0.00137534
0.0193311
-0.000955717
0.0195969
-0.000534355
0.019662
-0.000132213
0.0195291
0.000262577
0.0191838
0.000688009
0.0186014
0.00116292
0.0177913
0.00161868
0.01672
0.00214118
0.0153567
0.00272552
0.0136957
0.00332061
0.0117574
0.00387505
0.00959995
0.00431408
0.00731862
0.00456252
0.00501281
0.00461263
0.00279454
0.00443905
0.000745073
0.00410253
-0.00109259
0.00367904
-0.00265482
0.00312777
-0.00389363
0.00248121
-0.00479758
0.0018115
-0.00538581
0.00117977
-0.00569889
0.000628904
-0.00578822
0.000180636
-0.0056986
-0.00017844
-0.00545659
-0.000486446
-0.00508828
-0.000744788
-0.00463617
-0.000914848
-0.00417492
-0.00093235
-0.00373608
-0.000886665
-0.00327943
-0.000909432
-0.00277684
-0.000990096
-0.00223005
-0.00108293
-0.00115048
-0.00164917
-0.0623182
0.00355798
-0.0627464
0.00141124
-0.0624198
-0.000828633
-0.0614177
-0.00287032
-0.0597917
-0.00474758
-0.0575901
-0.00648266
-0.0548398
-0.00812856
-0.0516083
-0.00958104
-0.047945
-0.0108885
-0.0438871
-0.0120748
-0.0395008
-0.0130699
-0.0348324
-0.0139251
-0.0299328
-0.0146258
-0.024858
-0.0151604
-0.0196552
-0.0155527
-0.014377
-0.0157888
-0.00907044
-0.015882
-0.00378256
-0.0158349
0.00144259
-0.0156599
0.00656389
-0.0153524
0.011543
-0.0149332
0.0163477
-0.0144174
0.0209482
-0.0138117
0.0253176
-0.0131248
0.0294331
-0.0123683
0.0332741
-0.0115492
0.0368218
-0.0106721
0.0400598
-0.00974471
0.042973
-0.00877257
0.0455491
-0.00776313
0.0477769
-0.00672018
0.0496486
-0.00565207
0.0511571
-0.00456348
0.0522992
-0.003466
0.0530736
-0.00236534
0.0534834
-0.00127261
0.053538
-0.000203763
0.0532393
0.000849293
0.0526156
0.0018322
0.0516818
0.00275948
0.0504283
0.00371973
0.0488855
0.00459025
0.0470699
0.00541092
0.0450163
0.00612698
0.0427426
0.00678947
0.0402867
0.00733831
0.0376688
0.00782749
0.0349303
0.00819145
0.0320953
0.00848471
0.0292038
0.00865756
0.0262845
0.00874473
0.023371
0.00873058
0.0204947
0.00862294
0.0176858
0.00842489
0.0149676
0.00815729
0.0123672
0.00780565
0.00990222
0.00740102
0.0075864
0.00695638
0.00544299
0.0064401
0.00346667
0.00594143
0.00167041
0.00540185
5.56296e-05
0.00485956
-0.00138431
0.00433441
-0.00265026
0.00381285
-0.0037471
0.0033052
-0.00468082
0.00281538
-0.00545692
0.00234193
-0.00608207
0.00188861
-0.00656169
0.00145154
-0.00690168
0.00103224
-0.0071072
0.000627789
-0.00718342
0.000238503
-0.00713156
-0.000145789
-0.00695468
-0.000521857
-0.00665515
-0.000890463
-0.00623524
-0.001252
-0.00569771
-0.00160519
-0.00504496
-0.00195118
-0.00428305
-0.00227907
-0.00341765
-0.00258974
-0.00245745
-0.00287427
-0.001416
-0.0031184
-0.000304769
-0.00332828
0.000859708
-0.00348963
0.00205746
-0.0035903
0.00327524
-0.00365203
0.00449236
-0.00365164
0.00569738
-0.00361674
0.00687454
-0.00353441
0.00801626
-0.00342924
0.00912866
-0.00334145
0.0102157
-0.0032658
0.0112968
-0.00324661
0.0123607
-0.00319436
0.0133825
-0.00306793
0.0143901
-0.00302465
0.0153995
-0.00302959
0.0163923
-0.00298052
0.0173355
-0.00283197
0.0181838
-0.00254887
0.0188682
-0.00205973
0.0193417
-0.00142918
0.0196041
-0.000796765
0.0196645
-0.000192567
0.0195295
0.000397497
0.0191822
0.00103535
0.0185981
0.00174706
0.0177856
0.00243109
0.0167117
0.0032151
0.0153454
0.00409184
0.0136816
0.00498443
0.011741
0.00581567
0.00958198
0.00647307
0.00729996
0.00684453
0.00499447
0.00691812
0.0027769
0.00665662
0.000727819
0.00615161
-0.00110893
0.00551578
-0.00266967
0.00468852
-0.00390609
0.00371763
-0.00480661
0.00271201
-0.00539089
0.00176405
-0.0057004
0.000938414
-0.0057876
0.000267844
-0.00569757
-0.000268474
-0.00545552
-0.0007285
-0.0050844
-0.0011159
-0.00462798
-0.00137127
-0.00416299
-0.00139734
-0.00371558
-0.00133408
-0.00325938
-0.00136563
-0.00276458
-0.00148489
-0.00222323
-0.00162428
-0.00172344
-0.00165028
-0.0628719
0.00464742
-0.0632506
0.00178986
-0.0628595
-0.00121965
-0.0617991
-0.00393071
-0.0601163
-0.00643045
-0.0578614
-0.00873755
-0.0550551
-0.0109348
-0.0517704
-0.0128658
-0.0480592
-0.0145997
-0.0439523
-0.0161817
-0.039521
-0.0175012
-0.0348111
-0.018635
-0.0298716
-0.0195653
-0.0247607
-0.0202712
-0.019525
-0.0207884
-0.0142165
-0.0210973
-0.00888388
-0.0212147
-0.00357435
-0.0211444
0.00166815
-0.0209024
0.00680393
-0.0204882
0.0117939
-0.0199232
0.016606
-0.0192295
0.021211
-0.0184167
0.0255828
-0.0174966
0.0296989
-0.0164844
0.0335392
-0.0153894
0.0370843
-0.0142173
0.0403177
-0.0129781
0.0432244
-0.0116793
0.0457924
-0.0103311
0.0480109
-0.00893867
0.0498711
-0.00751223
0.0513662
-0.00605865
0.0524938
-0.00459361
0.0532531
-0.00312457
0.0536474
-0.00166695
0.0536823
-0.000238696
0.0533709
0.00116077
0.0527326
0.00247049
0.0517816
0.00371042
0.0505109
0.0049905
0.0489511
0.00615006
0.0471187
0.0072433
0.0450487
0.00819693
0.0427596
0.00907863
0.0402888
0.00980908
0.037657
0.0104593
0.0349057
0.0109427
0.0320592
0.0113312
0.0291571
0.0115597
0.0262285
0.0116734
0.0233072
0.0116518
0.0204247
0.0115055
0.0176105
0.0112392
0.014888
0.0108797
0.012285
0.0104086
0.00981983
0.00986622
0.007506
0.00927021
0.00536599
0.00858011
0.00339433
0.0079131
0.0016032
0.00719297
-6.49104e-06
0.00646925
-0.00143993
0.00576785
-0.00269996
0.00507288
-0.00379121
0.00439645
-0.00471971
0.00374388
-0.00549107
0.00311328
-0.00611192
0.00250946
-0.00658766
0.00192727
-0.00692425
0.00136883
-0.00712645
0.000829989
-0.00719895
0.000311004
-0.00714414
-0.000200595
-0.00696431
-0.000701685
-0.00666198
-0.00119279
-0.00623943
-0.00167455
-0.00569931
-0.00214531
-0.00504383
-0.00260665
-0.00427906
-0.00304385
-0.00341083
-0.00345797
-0.00244774
-0.00383736
-0.00140354
-0.0041626
-0.000289862
-0.00444196
0.000877225
-0.00465672
0.00207733
-0.00479041
0.00329701
-0.00487171
0.00451555
-0.00487019
0.00572131
-0.0048225
0.00689841
-0.00471151
0.00803912
-0.00456995
0.00915031
-0.00445264
0.0102356
-0.00435112
0.0113156
-0.00432658
0.0123791
-0.00425787
0.0134003
-0.00408913
0.0144078
-0.00403213
0.0154176
-0.00403942
0.0164113
-0.00397422
0.0173554
-0.00377603
0.018204
-0.00339745
0.0188877
-0.00274345
0.0193598
-0.00190129
0.0196203
-0.00105724
0.0196802
-0.00025251
0.0195418
0.000535935
0.019192
0.00138517
0.0186058
0.00233321
0.0177909
0.00324602
0.0167146
0.00429143
0.0153461
0.00546029
0.0136797
0.00665086
0.0117356
0.00775976
0.00957283
0.00863583
0.00728733
0.00913003
0.00497939
0.00922607
0.00276094
0.00887506
0.000712118
0.00820043
-0.00112335
0.00735125
-0.00268223
0.0062474
-0.00391469
0.00495009
-0.00480956
0.00360687
-0.00538842
0.00234291
-0.00569439
0.00124439
-0.00578063
0.000354081
-0.00569197
-0.000357132
-0.0054532
-0.000967269
-0.00508634
-0.00148277
-0.00463414
-0.00182347
-0.00417301
-0.00185847
-0.00372897
-0.00177812
-0.00327209
-0.00182251
-0.00277181
-0.00198517
-0.00222662
-0.00216947
-0.00230107
-0.00164899
-0.0635926
0.00567932
-0.0639124
0.00210964
-0.0634493
-0.00168271
-0.0623213
-0.00505878
-0.0605722
-0.00817956
-0.0582548
-0.0110549
-0.0553814
-0.0138083
-0.0520328
-0.0162143
-0.0482647
-0.0183677
-0.0440984
-0.0203481
-0.0396121
-0.0219874
-0.0348515
-0.0233956
-0.029862
-0.0245549
-0.0247059
-0.0254273
-0.0194283
-0.026066
-0.0140813
-0.0264442
-0.00871503
-0.026581
-0.00337665
-0.0264828
0.00189055
-0.0261696
0.00704693
-0.0256445
0.0120535
-0.0249297
0.0168783
-0.0240543
0.0214928
-0.0230312
0.0258706
-0.0218744
0.0299894
-0.0206032
0.0338294
-0.0192294
0.0373719
-0.0177598
0.0406007
-0.0162069
0.0435015
-0.0145801
0.0460624
-0.012892
0.0482722
-0.0111485
0.0501224
-0.00936248
0.0516068
-0.00754296
0.0527225
-0.0057093
0.0534687
-0.00387085
0.0538481
-0.00204636
0.053871
-0.000261521
0.0535381
0.00149366
0.0528827
0.00312583
0.0519122
0.00468094
0.0506216
0.00628108
0.0490422
0.00772952
0.0471904
0.00909506
0.0451013
0.010286
0.0427936
0.0113863
0.0403047
0.012298
0.0376559
0.0131082
0.0348879
0.0137106
0.0320259
0.0141932
0.0291095
0.014476
0.0261688
0.0146141
0.0232371
0.0145835
0.0203459
0.0143967
0.0175252
0.0140598
0.0147989
0.013606
0.0121939
0.0130136
0.009728
0.0123322
0.00741488
0.0115833
0.00527631
0.0107187
0.00330769
0.00988171
0.00152061
0.00898006
-8.52204e-05
0.00807508
-0.00151351
0.00719614
-0.00276825
0.00632763
-0.00385407
0.00548227
-0.00477715
0.00466697
-0.00554318
0.00387931
-0.00615892
0.0031252
-0.00662984
0.0023982
-0.00696148
0.00170047
-0.00715913
0.00102763
-0.00722823
0.000380104
-0.00716928
-0.000259541
-0.0069861
-0.000884859
-0.00668077
-0.00149813
-0.00625528
-0.00210004
-0.00571214
-0.00268845
-0.00505363
-0.00326517
-0.00428566
-0.00381182
-0.0034139
-0.00432973
-0.00244724
-0.00480402
-0.00139908
-0.00521076
-0.000281441
-0.0055596
0.000889226
-0.00582738
0.00209248
-0.00599366
0.00331443
-0.00609366
0.00453442
-0.00609018
0.00574079
-0.00602888
0.00691781
-0.00588853
0.00805767
-0.0057098
0.00916785
-0.00556283
0.0102515
-0.0054348
0.0113308
-0.00540589
0.0123948
-0.00532181
0.0134162
-0.00511053
0.0144241
-0.00504004
0.0154347
-0.00505007
0.0164295
-0.004969
0.0173749
-0.00472145
0.0182252
-0.00424766
0.0189093
-0.00342761
0.0193801
-0.00237208
0.0196382
-0.00131538
0.0196936
-0.000307819
0.0195541
0.000675435
0.0192024
0.00173685
0.0186145
0.00292107
0.0177974
0.00406309
0.0167189
0.00536993
0.0153477
0.00683156
0.0136777
0.00832084
0.0117297
0.00970775
0.0095633
0.0108022
0.00727505
0.0114183
0.00496538
0.0115357
0.00274668
0.0110938
0.000698726
0.0102484
-0.001135
0.00918498
-0.00269155
0.00780395
-0.00392001
0.00617854
-0.0048099
0.00449677
-0.0053846
0.00291762
-0.00568818
0.00154796
-0.00577414
0.000440047
-0.00568696
-0.000444318
-0.00545027
-0.00120396
-0.00508449
-0.00184855
-0.00463243
-0.00227552
-0.00416989
-0.00232101
-0.00372271
-0.0022253
-0.00326569
-0.00227953
-0.00276717
-0.00248369
-0.00222357
-0.00271306
-0.00287571
-0.00164893
-0.0644815
0.00664743
-0.0647329
0.00236107
-0.064191
-0.00222462
-0.0629833
-0.00626645
-0.0611582
-0.0100047
-0.0587696
-0.0134434
-0.0558175
-0.0167603
-0.0523941
-0.0196378
-0.0485602
-0.0222017
-0.0443231
-0.0245852
-0.0397711
-0.0265394
-0.0349501
-0.0282166
-0.0299005
-0.0296045
-0.0246895
-0.0306384
-0.0193606
-0.0313949
-0.0139664
-0.0318384
-0.00855753
-0.0319899
-0.0031825
-0.0318578
0.00211631
-0.0314684
0.00729919
-0.0308274
0.0123272
-0.0299577
0.0171687
-0.0288958
0.0217955
-0.0276581
0.0261821
-0.026261
0.0303067
-0.0247277
0.0341501
-0.0230728
0.0376941
-0.0213038
0.0409229
-0.0194356
0.0438216
-0.0174789
0.0463783
-0.0154487
0.0485821
-0.0133522
0.0504238
-0.0112042
0.0518973
-0.00901647
0.0529994
-0.00681138
0.0537294
-0.00460092
0.0540914
-0.00240831
0.0540917
-0.000261799
0.0537431
0.00184219
0.0530706
0.0037984
0.0520787
0.00567278
0.0507661
0.00759369
0.0491647
0.00933095
0.0472912
0.0109685
0.0451805
0.0123967
0.0428516
0.0137153
0.0403413
0.0148082
0.037672
0.0157776
0.0348845
0.0164981
0.0320049
0.0170728
0.0290721
0.0174089
0.0261161
0.01757
0.0231707
0.0175289
0.0202683
0.0172992
0.0174384
0.0168897
0.0147044
0.0163399
0.0120935
0.0156246
0.00962402
0.0148016
0.00731049
0.0138969
0.0051733
0.0128559
0.00320842
0.0118466
0.00142558
0.0107629
-0.000173855
0.00967451
-0.00159539
0.00861767
-0.00284303
0.00757527
-0.00392186
0.0065611
-0.00483815
0.00558326
-0.00559783
0.00463899
-0.0062077
0.00373507
-0.00667337
0.00286387
-0.00700077
0.00202786
-0.00719459
0.00122146
-0.00725949
0.000445003
-0.00719779
-0.000321242
-0.00701157
-0.00107108
-0.00670324
-0.00180646
-0.00627479
-0.00252849
-0.00572869
-0.00323455
-0.00506698
-0.00392687
-0.00429554
-0.00458326
-0.00342008
-0.00520519
-0.00244942
-0.00577467
-0.00139697
-0.00626321
-0.000275382
-0.00668119
0.00089929
-0.00700206
0.00210616
-0.00720053
0.00333097
-0.00731846
0.00455314
-0.00731234
0.00576088
-0.00723661
0.00693837
-0.00706603
0.00807742
-0.00684886
0.00918659
-0.006672
0.0102684
-0.00651663
0.0113469
-0.0064844
0.0124112
-0.00638606
0.0134324
-0.00613179
0.0144405
-0.00604813
0.0154521
-0.00606167
0.0164485
-0.00596542
0.0173961
-0.00566902
0.0182488
-0.00510036
0.0189339
-0.00411269
0.0194031
-0.0028413
0.0196587
-0.00157098
0.0197132
-0.00036232
0.0195702
0.000818438
0.0192169
0.00209016
0.0186278
0.00351014
0.0178086
0.00488233
0.0167278
0.00645069
0.0153538
0.00820557
0.0136808
0.00999389
0.0117292
0.0116593
0.00955908
0.0129724
0.00726748
0.0137099
0.00495575
0.0138475
0.00273671
0.0133128
0.000689555
0.0122955
-0.00114284
0.0110174
-0.00269738
0.00935849
-0.00392199
0.00740315
-0.00480721
0.00538199
-0.00537868
0.00348908
-0.0056806
0.00184989
-0.00576676
0.000526213
-0.00568087
-0.000530211
-0.00544678
-0.00143805
-0.00508486
-0.00221046
-0.00463715
-0.00272323
-0.00417735
-0.00278081
-0.00373008
-0.00267257
-0.00327057
-0.00273904
-0.00276933
-0.00298493
-0.00222435
-0.00325804
-0.00345199
-0.00164807
-0.0655368
0.00754812
-0.0657016
0.00252585
-0.0650785
-0.00284771
-0.0637796
-0.00756536
-0.061869
-0.0119153
-0.0594001
-0.0159124
-0.0563575
-0.0198029
-0.0528483
-0.0231469
-0.0489398
-0.0261103
-0.0446209
-0.028904
-0.0399928
-0.0311675
-0.0351026
-0.0331068
-0.0299823
-0.0347248
-0.0247066
-0.0359141
-0.019318
-0.0367834
-0.0138669
-0.0372895
-0.00840768
-0.0374491
-0.00298957
-0.0372759
0.00234766
-0.0368056
0.00756306
-0.0360428
0.0126181
-0.0350127
0.017481
-0.0337587
0.0221249
-0.032302
0.0265244
-0.0306605
0.0306579
-0.0288613
0.0345073
-0.0269222
0.0380546
-0.0248511
0.0412836
-0.0226646
0.0441801
-0.0203754
0.0467321
-0.0180008
0.0489291
-0.0155492
0.0507621
-0.0130372
0.0522246
-0.0104789
0.0533137
-0.00790047
0.054029
-0.00531628
0.0543738
-0.00275305
0.0543573
-0.000245363
0.0539858
0.00221375
0.0532938
0.0044904
0.0522781
0.00668847
0.0509414
0.00893038
0.0493161
0.0109562
0.0474185
0.0128661
0.045283
0.0145322
0.0429298
0.0160686
0.040396
0.017342
0.0377039
0.0184697
0.0348936
0.0193084
0.0319924
0.0199739
0.0290392
0.020362
0.0260655
0.0205438
0.0231043
0.0204901
0.0201882
0.0202153
0.0173471
0.0197308
0.0146048
0.0190822
0.011988
0.0182414
0.00951538
0.0172742
0.00720127
0.016211
0.00506509
0.0149921
0.00310329
0.0138084
0.00132469
0.0125415
-0.000270113
0.0112693
-0.00168581
0.0100334
-0.00292712
0.00881658
-0.00399955
0.00763353
-0.00490983
0.00649355
-0.00566387
0.00539303
-0.00626853
0.00433973
-0.00672927
0.0033246
-0.00705155
0.00235014
-0.0072405
0.00141041
-0.00730166
0.000506164
-0.00723489
-0.000388012
-0.00704481
-0.00126117
-0.00673319
-0.00211807
-0.00630166
-0.00296002
-0.00575245
-0.00378376
-0.00508741
-0.00459191
-0.00431229
-0.00535838
-0.00343278
-0.0060847
-0.0024576
-0.00674985
-0.00140039
-0.00732043
-0.000273577
-0.007808
0.000906011
-0.00818164
0.00211745
-0.00841197
0.00334582
-0.00854683
0.0045705
-0.00853702
0.0057795
-0.00844562
0.00695713
-0.00824365
0.00809497
-0.0079867
0.00920265
-0.00777967
0.0102819
-0.0075959
0.0113594
-0.00756189
0.0124247
-0.00745133
0.0134467
-0.00715385
0.0144557
-0.00705712
0.0154687
-0.00707461
0.016467
-0.00696377
0.0174172
-0.00661924
0.0182723
-0.00595546
0.0189586
-0.00479893
0.0194277
-0.00331044
0.0196818
-0.00182502
0.0197325
-0.000413049
0.0195885
0.000962401
0.019234
0.00244469
0.0186441
0.00410002
0.0178231
0.00570333
0.0167408
0.00753304
0.0153647
0.00958165
0.0136886
0.01167
0.0117329
0.0136149
0.00955803
0.0151472
0.00726215
0.0160058
0.00494795
0.0161617
0.00272884
0.0155319
0.000682726
0.0143416
-0.00114819
0.0128483
-0.00270039
0.0109107
-0.00392137
0.00862413
-0.00480253
0.00626316
-0.00537095
0.0040575
-0.00567078
0.00214971
-0.00575623
0.000611657
-0.00567117
-0.000615267
-0.00544024
-0.00166898
-0.00508312
-0.00256759
-0.00464021
-0.00316613
-0.00418202
-0.003239
-0.0037327
-0.0031219
-0.00327027
-0.00320146
-0.00276758
-0.00348763
-0.00222248
-0.00380314
-0.00402703
-0.00164744
-0.0667635
0.00837649
-0.0668306
0.00259293
-0.0661157
-0.00356262
-0.0647138
-0.00896729
-0.0627086
-0.0139205
-0.0601503
-0.0184707
-0.0570045
-0.0229487
-0.0533985
-0.0267528
-0.0494069
-0.0301019
-0.0449947
-0.0333161
-0.0402792
-0.035883
-0.0353102
-0.0380759
-0.0301085
-0.0399264
-0.024759
-0.0412637
-0.019301
-0.0422414
-0.0137833
-0.0428072
-0.00826492
-0.0429675
-0.0027948
-0.042746
0.00258774
-0.0421882
0.00784183
-0.0412969
0.0129285
-0.0400995
0.0178173
-0.0386474
0.0224821
-0.0369668
0.0268976
-0.035076
0.0310428
-0.0330065
0.0349004
-0.0307797
0.0384529
-0.0284036
0.0416847
-0.0258964
0.0445821
-0.0232727
0.0471327
-0.0205514
0.0493258
-0.0177423
0.0511517
-0.0148631
0.0526042
-0.0119315
0.0536802
-0.00897644
0.0543793
-0.00601534
0.0547052
-0.00307901
0.0546665
-0.000206628
0.0542736
0.00260669
0.0535605
0.00520344
0.0525188
0.00773015
0.0511554
0.0102938
0.0495026
0.012609
0.0475774
0.0147914
0.0454141
0.0166955
0.0430332
0.0184494
0.0404711
0.0199041
0.037752
0.0211887
0.0349161
0.0221444
0.0319908
0.0228992
0.0290144
0.0233384
0.0260195
0.0235387
0.0230393
0.0234703
0.0201071
0.0231475
0.0172527
0.0225852
0.0144999
0.021835
0.0118746
0.0208667
0.00939627
0.0197525
0.00708001
0.0185272
0.00494419
0.0171279
0.00298554
0.015767
0.00121131
0.0143157
-0.000376943
0.0128576
-0.00178531
0.0114417
-0.00301878
0.01005
-0.00408343
0.00869817
-0.00498598
0.0073961
-0.00573272
0.00613977
-0.00633038
0.00493739
-0.00678484
0.00377907
-0.00710188
0.00266719
-0.00728622
0.00159475
-0.00734274
0.000562681
-0.00727305
-0.000457697
-0.00707971
-0.00145452
-0.00676497
-0.00243281
-0.00633034
-0.00339465
-0.00577801
-0.0043361
-0.00510954
-0.00526038
-0.00433053
-0.00613739
-0.00344668
-0.00696855
-0.00246658
-0.00772995
-0.00140402
-0.00838298
-0.000271569
-0.00894045
0.000913453
-0.00936667
0.00212993
-0.00962845
0.00336221
-0.00977911
0.0045897
-0.00976451
0.0058003
-0.00965622
0.00697837
-0.00942172
0.00811493
-0.00912326
0.00922096
-0.00888571
0.0102974
-0.00867233
0.0113737
-0.00863822
0.0124398
-0.00851745
0.0134623
-0.00817627
0.0144718
-0.00806667
0.0154862
-0.00808899
0.0164868
-0.00796439
0.01744
-0.00757243
0.0182994
-0.00681485
0.0189885
-0.00548803
0.0194576
-0.00377949
0.0197094
-0.00207687
0.0197581
-0.000461726
0.0196111
0.00110939
0.0192554
0.00280042
0.018665
0.00469039
0.0178425
0.00652582
0.0167588
0.00861678
0.0153803
0.0109602
0.0137003
0.0133499
0.0117394
0.0155759
0.00955949
0.0173271
0.0072611
0.0183041
0.00494609
0.0184767
0.00272676
0.0177512
0.000681012
0.0163874
-0.00114883
0.0146781
-0.00269855
0.0124604
-0.00391545
0.00984103
-0.00479238
0.00714008
-0.00535731
0.00462244
-0.00565633
0.00244873
-0.00574337
0.000698699
-0.00566104
-0.000697596
-0.00543417
-0.00189584
-0.00508229
-0.00291947
-0.00464551
-0.00360292
-0.00419131
-0.0036932
-0.00374215
-0.00357106
-0.0032759
-0.0036677
-0.00276902
-0.00399451
-0.00222229
-0.00434987
-0.00460288
-0.00164644
-0.0681568
0.00912686
-0.068114
0.00255014
-0.0672968
-0.00437986
-0.0657806
-0.0104835
-0.0636728
-0.0160283
-0.0610154
-0.021128
-0.0577535
-0.0262107
-0.0540405
-0.0304659
-0.0499575
-0.0341849
-0.0454407
-0.037833
-0.0406268
-0.0406969
-0.0355707
-0.043132
-0.0302774
-0.0452197
-0.0248438
-0.0466973
-0.0193074
-0.0477778
-0.013714
-0.0484006
-0.00812822
-0.0485533
-0.00259881
-0.0482755
0.00283469
-0.0476217
0.00813344
-0.0465957
0.0132576
-0.0452236
0.0181762
-0.0435661
0.0228654
-0.041656
0.0272999
-0.0395106
0.0314598
-0.0371664
0.0353285
-0.0346484
0.038889
-0.0319642
0.0421259
-0.0291333
0.045025
-0.0261718
0.0475744
-0.0231007
0.0497629
-0.0199308
0.0515817
-0.0166819
0.053024
-0.0133738
0.0540864
-0.0100388
0.054769
-0.00669797
0.0550755
-0.00338554
0.0550158
-0.0001469
0.0545986
0.00302395
0.0538634
0.00593858
0.0527935
0.00880006
0.0514011
0.0116862
0.0497195
0.0142906
0.0477651
0.0167457
0.0455716
0.018889
0.0431608
0.0208603
0.0405692
0.0224958
0.0378209
0.023937
0.0349549
0.0250104
0.032002
0.0258521
0.0290002
0.0263403
0.025982
0.0265569
0.0229804
0.0264719
0.0200293
0.0260985
0.0171593
0.0254553
0.014394
0.0246003
0.011759
0.0235016
0.00927472
0.0222368
0.00695598
0.020846
0.00482008
0.0192638
0.00286509
0.017722
0.00109508
0.0160857
-0.00048722
0.0144399
-0.00188862
0.0128431
-0.00311456
0.011276
-0.00417157
0.00975518
-0.00506679
0.00829132
-0.00580664
0.00687962
-0.00639823
0.00552897
-0.00684728
0.00422812
-0.00715889
0.0029788
-0.00733797
0.00177382
-0.00739003
0.000614744
-0.007315
-0.000532724
-0.00711753
-0.00165199
-0.00679922
-0.00275112
-0.00636119
-0.00383268
-0.0058055
-0.00489179
-0.00513346
-0.00593242
-0.00435033
-0.00692052
-0.00346159
-0.00785729
-0.00247596
-0.00871559
-0.0014073
-0.00945163
-0.000268531
-0.0100792
0.000922661
-0.0105579
0.00214482
-0.0108506
0.00338147
-0.0110158
0.00461197
-0.010995
0.0058239
-0.0108682
0.00700176
-0.0105996
0.00813618
-0.0102577
0.00923983
-0.00998935
0.0103125
-0.00974503
0.0113871
-0.00971276
0.0124542
-0.00958457
0.0134775
-0.00919958
0.0144882
-0.00907733
0.0155043
-0.0091051
0.0165075
-0.00896762
0.0174645
-0.00852946
0.0183282
-0.0076785
0.0190201
-0.00617991
0.019489
-0.00424843
0.019739
-0.00232687
0.0197848
-0.00050751
0.019636
0.0012582
0.0192795
0.00315687
0.018689
0.00528092
0.0178648
0.00735002
0.0167794
0.00970216
0.0153984
0.0123412
0.0137149
0.0150334
0.0117503
0.0175405
0.00956904
0.0195084
0.00727051
0.0206027
0.00495448
0.0207927
0.00273348
0.0199722
0.000686663
0.0184342
-0.00114317
0.016508
-0.00269089
0.0140081
-0.00390371
0.0110539
-0.00477827
0.00801464
-0.00534441
0.00518858
-0.00564659
0.00275091
-0.00573649
0.000788593
-0.00565596
-0.000778119
-0.005431
-0.00212081
-0.00508159
-0.00326888
-0.00464818
-0.00403632
-0.00419617
-0.00414522
-0.0037466
-0.00402063
-0.00327791
-0.00413639
-0.00276868
-0.00450374
-0.00222098
-0.00489757
-0.00517826
-0.0016456
-0.069717
0.00979558
-0.0695528
0.00238596
-0.0686194
-0.00531327
-0.0669762
-0.0121267
-0.0647581
-0.0182464
-0.0619918
-0.0238944
-0.0586004
-0.029602
-0.0547698
-0.0342965
-0.0505872
-0.0383675
-0.0459548
-0.0424655
-0.0410314
-0.0456203
-0.0358795
-0.0482838
-0.0304843
-0.0506149
-0.0249566
-0.0522249
-0.0193338
-0.0534006
-0.0136549
-0.0540796
-0.00799213
-0.0542161
-0.00239736
-0.0538702
0.0030951
-0.0531141
0.00844407
-0.0519446
0.0136092
-0.0503888
0.0185627
-0.0485195
0.0232803
-0.0463736
0.0277377
-0.0439679
0.0319149
-0.0413436
0.0357965
-0.0385299
0.0393665
-0.0355342
0.0426099
-0.0323768
0.0455129
-0.0290748
0.0480638
-0.0256516
0.0502509
-0.0221179
0.0520645
-0.0184955
0.0534978
-0.0148072
0.0545472
-0.0110882
0.055213
-0.00736384
0.055499
-0.0036715
0.0554149
-6.28445e-05
0.0549729
0.00346602
0.0542136
0.00669788
0.0531131
0.00990055
0.0516893
0.0131099
0.049975
0.016005
0.0479871
0.0187336
0.0457595
0.0211166
0.043315
0.0233047
0.0406886
0.0251221
0.037907
0.0267187
0.035009
0.0279083
0.032025
0.0288361
0.0289922
0.0293731
0.0259464
0.0296027
0.022921
0.0294973
0.0199497
0.0290698
0.0170621
0.0283429
0.0142829
0.0273795
0.011637
0.0261476
0.00914514
0.0247287
0.00682296
0.0231681
0.00468696
0.0213998
0.00273536
0.0196736
0.00097071
0.0178504
-0.000604727
0.0160153
-0.00199778
0.0142362
-0.00321439
0.0124926
-0.00426206
0.0108029
-0.00514822
0.00917747
-0.00587968
0.00761108
-0.00646327
0.00611257
-0.00690501
0.00466986
-0.00721029
0.00328408
-0.00738388
0.00194741
-0.00743094
0.000661799
-0.0073517
-0.000611959
-0.00715038
-0.00185331
-0.00682873
-0.00307277
-0.00638764
-0.00427377
-0.00582877
-0.00545066
-0.00515317
-0.00660802
-0.00436599
-0.00770769
-0.00347268
-0.0087506
-0.00248183
-0.00970644
-0.00140718
-0.0105263
-0.000262081
-0.0112243
0.000935136
-0.0117551
0.00216281
-0.0120783
0.00340362
-0.0122566
0.00463686
-0.0122282
0.00584987
-0.0120812
0.00702742
-0.0117771
0.00815949
-0.0113898
0.00926041
-0.0110903
0.0103286
-0.0108132
0.0114007
-0.0107849
0.0124686
-0.0106525
0.0134928
-0.0102237
0.0145046
-0.0100892
0.015523
-0.0101235
0.0165295
-0.00997418
0.0174909
-0.00949082
0.0183605
-0.00854812
0.0190557
-0.00687504
0.0195249
-0.00471771
0.019773
-0.00257496
0.0198164
-0.000550929
0.0196662
0.00140845
0.0193095
0.00351353
0.0187194
0.00587099
0.0178941
0.00817537
0.0168078
0.0107885
0.0154248
0.0137242
0.0137387
0.0167195
0.0117721
0.0195071
0.00959011
0.0216904
0.00728937