/*--------------------------------*- C++ -*----------------------------------*\
| =========                 |                                                 |
| \\      /  F ield         | OpenFOAM: The Open Source CFD Toolbox           |
|  \\    /   O peration     | Version:  v1912                                 |
|   \\  /    A nd           | Website:  www.openfoam.com                      |
|    \\/     M anipulation  |                                                 |
\*---------------------------------------------------------------------------*/
FoamFile
{
    version     2.0;
    format      ascii;
    class       volScalarField;
    location    "90";
    object      nut;
}
// * * * * * * * * * * * * * * * * * * * * * * * * * * * * * * * * * * * * * //

dimensions      [0 2 -1 0 0 0 0];


internalField   nonuniform List<scalar> 
14268
(
0.000252305
0.000185512
0.000110036
0.000110571
0.000143728
0.000193802
0.000219714
0.00021457
0.000175756
0.000138591
9.21433e-05
3.31309e-05
5.83651e-05
8.27627e-05
8.76058e-05
0.000151395
0.000128223
0.000115817
9.51679e-05
9.96122e-05
0.000126607
7.95497e-05
8.18896e-05
0.000188237
0.000292939
0.000313929
0.000257509
0.000230299
0.000187248
0.000119665
0.00011275
0.000149672
0.00012163
5.58085e-05
4.7311e-05
6.81178e-05
0.00014548
0.000202052
0.000226025
0.000213874
0.000169274
0.000133128
0.000148097
0.000186481
0.000208449
0.000150428
0.000128672
0.000112325
8.65021e-05
8.46448e-05
0.000111277
0.000133399
0.000141439
0.000144937
0.000138107
0.00011163
0.000102891
9.63827e-05
7.5799e-05
6.30368e-05
6.0821e-05
5.54087e-05
5.43513e-05
6.3505e-05
8.78953e-05
0.000114526
0.000139088
0.000147053
0.000133545
0.000103975
9.00468e-05
8.42939e-05
7.60495e-05
6.69036e-05
5.66719e-05
4.08671e-05
3.22493e-05
3.34173e-05
4.14223e-05
5.44642e-05
6.79784e-05
7.06823e-05
6.9365e-05
6.50402e-05
5.651e-05
4.14522e-05
3.97208e-05
4.45478e-05
4.74717e-05
4.52487e-05
3.69425e-05
3.26402e-05
3.35069e-05
4.08295e-05
4.25127e-05
3.99598e-05
3.22865e-05
2.50303e-05
1.75368e-05
1.19987e-05
9.45526e-06
8.52393e-06
9.03005e-06
1.09762e-05
1.31639e-05
1.5373e-05
1.8641e-05
2.50172e-05
3.07274e-05
3.9738e-05
6.00559e-05
7.84281e-05
9.57781e-05
0.000112008
0.000125215
0.000113042
7.82986e-05
4.46068e-05
3.48872e-05
4.21798e-05
6.12904e-05
6.54995e-05
5.50605e-05
4.39068e-05
4.30394e-05
3.92793e-05
4.18705e-05
6.0214e-05
8.74449e-05
0.000102443
0.000100599
8.64182e-05
6.70538e-05
5.79054e-05
5.39484e-05
4.71439e-05
3.52108e-05
3.81547e-05
6.35911e-05
9.9073e-05
0.000135319
0.000177604
0.000205686
0.000198496
0.000175147
0.000133291
8.22283e-05
3.73752e-05
2.27653e-05
2.30895e-05
0.00239508
0.00175463
0.000968063
0.000928784
0.00121332
0.0016564
0.00189542
0.00185002
0.00146083
0.00123927
0.000783006
0.000239874
0.000397519
0.000844365
0.000773477
0.00163158
0.00133344
0.00113935
0.000826557
0.000872588
0.0011831
0.000803022
0.000584399
0.00167957
0.00273327
0.00301927
0.0026189
0.00239772
0.00187021
0.00109336
0.00114631
0.00166613
0.00133699
0.000551183
0.000504717
0.00070662
0.00146779
0.00197065
0.00220395
0.00212265
0.00173536
0.00126879
0.00142591
0.00185113
0.0020943
0.00139745
0.001137
0.00119848
0.00102091
0.0010556
0.00133173
0.00158065
0.00166726
0.00160479
0.00144045
0.0010951
0.000900878
0.000857862
0.000716994
0.000568046
0.000573174
0.000549884
0.00055105
0.000687305
0.000980782
0.00124896
0.00148017
0.0016199
0.00153112
0.00103538
0.000784483
0.000697521
0.00065352
0.000587237
0.000510148
0.000392138
0.000321099
0.000344303
0.000429315
0.000586046
0.000747113
0.00073319
0.000653372
0.00056807
0.000488184
0.000401362
0.000378774
0.000424028
0.000483799
0.000448849
0.000369377
0.000319111
0.000313181
0.000360614
0.000376297
0.000366231
0.000318169
0.000261584
0.000211796
0.000164962
0.000145945
0.000140459
0.000146732
0.000165994
0.000196183
0.000241096
0.00029366
0.000366448
0.000435548
0.000492478
0.000691868
0.000855954
0.00102697
0.00120143
0.00141101
0.00127779
0.000834153
0.000490505
0.000385112
0.000509669
0.000779909
0.000850963
0.000767408
0.000560444
0.000478019
0.000430758
0.000469595
0.000674441
0.000966179
0.00113909
0.0011401
0.00100567
0.000809709
0.000701086
0.000662042
0.000593401
0.0004578
0.000462348
0.000687133
0.000991269
0.00128967
0.00164341
0.00190921
0.00184114
0.00162937
0.00125019
0.000843333
0.000388907
0.000328857
0.000374511
0.00600987
0.00446006
0.00209756
0.00200929
0.00282927
0.00412012
0.00476961
0.00454112
0.00322842
0.00275022
0.00209337
0.000742979
0.000672838
0.00224937
0.0022331
0.0044629
0.00361315
0.00276612
0.00143116
0.00173935
0.0030728
0.00235747
0.001316
0.00403279
0.00669969
0.00751801
0.00673422
0.00628509
0.00500112
0.00312624
0.00353208
0.00491456
0.00417161
0.00173939
0.0013321
0.00187038
0.00375945
0.00495001
0.00554263
0.00537795
0.00450864
0.00341143
0.00379477
0.00478609
0.00543197
0.00360368
0.00230912
0.00298206
0.00321426
0.00330026
0.00398005
0.00466999
0.00510249
0.00514942
0.00492223
0.00376455
0.00252394
0.00214074
0.00149945
0.00112759
0.0015656
0.00168636
0.0013841
0.0019139
0.00272904
0.00338555
0.00391839
0.00435634
0.00440323
0.00299841
0.00191717
0.00153449
0.00132136
0.00113783
0.000945395
0.000708818
0.000577683
0.000653379
0.00101097
0.00170204
0.00232497
0.00211871
0.0015764
0.00120039
0.000942547
0.000727757
0.00067613
0.000835855
0.00116122
0.00104282
0.000789745
0.000592165
0.000531749
0.000569894
0.000600232
0.000588995
0.000543349
0.00045604
0.00036273
0.000267954
0.000244575
0.000254812
0.000275781
0.000329039
0.000484615
0.000713272
0.000870136
0.00106542
0.0013276
0.00137774
0.00180649
0.00214525
0.00261592
0.0031563
0.00389271
0.00374917
0.00255763
0.00136614
0.00106648
0.00166608
0.00247425
0.0027042
0.00263248
0.00169924
0.00118818
0.000986054
0.00116564
0.00190737
0.0026949
0.00316154
0.00325014
0.00299832
0.00256869
0.00225924
0.00208966
0.00183349
0.00142897
0.0013745
0.00182849
0.00248494
0.00315356
0.00401964
0.00468367
0.00451352
0.0039815
0.00306109
0.00220959
0.000997806
0.00093575
0.00100763
0.00959033
0.00719259
0.00330654
0.00373617
0.0056939
0.00796863
0.00901515
0.00858416
0.00566038
0.00404725
0.00328762
0.00157248
0.00093143
0.00309329
0.00513516
0.00727122
0.00530282
0.00348077
0.00214305
0.00298256
0.00508646
0.00415699
0.0024414
0.00637291
0.0104757
0.0117591
0.0105442
0.0099408
0.00830683
0.00634375
0.00727405
0.00862419
0.00773984
0.00444809
0.00251319
0.00344461
0.00622427
0.00795601
0.0088063
0.00855159
0.00723811
0.00564785
0.00611168
0.00714752
0.00818668
0.00637871
0.00353795
0.00333985
0.00521786
0.00557039
0.00661328
0.0078279
0.00884537
0.0095374
0.0102772
0.00929736
0.00675598
0.00553844
0.00330439
0.00232631
0.00343259
0.00372382
0.00259333
0.00318851
0.0045484
0.00559922
0.00641885
0.00713808
0.00743834
0.00619976
0.00351251
0.00271895
0.00235122
0.00221894
0.00201547
0.00150986
0.00102115
0.00115848
0.00186766
0.00323094
0.00450331
0.00457259
0.00387803
0.00283848
0.00180022
0.00115451
0.00105053
0.00149965
0.00258533
0.00261015
0.00196565
0.00124088
0.000982669
0.000956954
0.00103507
0.00103858
0.000985085
0.000835178
0.000631526
0.000433543
0.000369701
0.000378608
0.000418137
0.000481181
0.000686813
0.00103386
0.00137836
0.00188732
0.00249309
0.00237165
0.00268765
0.00283687
0.00367168
0.00467268
0.00611788
0.00661264
0.00553764
0.00357115
0.00267645
0.00327676
0.00420876
0.00466372
0.00502848
0.0041047
0.00251298
0.00179338
0.00206416
0.00330673
0.0045589
0.00533275
0.00553655
0.00532125
0.00489367
0.00455681
0.00425829
0.00377154
0.00297658
0.00268072
0.00320751
0.00414358
0.00515055
0.00655268
0.00760591
0.00733048
0.00647584
0.00501598
0.00379165
0.00197544
0.00168116
0.00178384
0.0138618
0.00998316
0.0054375
0.00667114
0.00987281
0.0130011
0.0145266
0.013979
0.00952781
0.00613132
0.00469421
0.0026568
0.00132382
0.00364237
0.00851386
0.0102268
0.00576667
0.00327879
0.00283948
0.00535058
0.00671416
0.00534855
0.00383863
0.00889517
0.0151995
0.0172459
0.0150017
0.014187
0.011917
0.00955031
0.0105481
0.0114954
0.0109812
0.00776609
0.00498854
0.00554908
0.00875861
0.0112887
0.0127798
0.0121326
0.00936688
0.00661063
0.00728508
0.00883329
0.0104898
0.0098693
0.00505072
0.00328286
0.00482262
0.00628301
0.00827058
0.0105063
0.0122895
0.0136662
0.0153278
0.0151305
0.0123852
0.0106984
0.00635378
0.0031472
0.00400049
0.00465591
0.00371373
0.00438748
0.00626165
0.00769276
0.00888614
0.00995861
0.0104286
0.00966945
0.00665938
0.00521894
0.00458426
0.0041772
0.00365345
0.00277843
0.00184497
0.00196895
0.00295577
0.00493338
0.00685491
0.00726486
0.00669401
0.00543968
0.00374791
0.00198785
0.00157965
0.00239796
0.00435627
0.00485876
0.00393281
0.00265131
0.00203093
0.00168233
0.00149028
0.00140792
0.00130933
0.00115978
0.000970265
0.000731791
0.000619488
0.000620957
0.000616004
0.000642941
0.000729993
0.000902053
0.00137719
0.00239598
0.00359298
0.0030279
0.00238907
0.00252441
0.00393408
0.00579853
0.00844887
0.00999127
0.00925498
0.00683912
0.00511529
0.00509989
0.00567628
0.006266
0.00716341
0.00674879
0.00487451
0.00338785
0.00339814
0.00477583
0.00644292
0.00748979
0.00769786
0.0074182
0.00705764
0.00699207
0.00680667
0.00611884
0.00487975
0.00417093
0.00464545
0.00585446
0.00728544
0.00935413
0.0109948
0.0105428
0.0092393
0.00712664
0.0054817
0.00338714
0.00255322
0.00265043
0.0184478
0.0128556
0.00787803
0.0100318
0.0136757
0.0172974
0.0190232
0.0179996
0.0128853
0.0089119
0.00600676
0.00369915
0.00252308
0.00543771
0.0116548
0.0124543
0.00682776
0.0028643
0.00346396
0.00758624
0.00640623
0.00471351
0.00514707
0.0112339
0.0199328
0.023014
0.0201791
0.019174
0.0163029
0.0115906
0.0122217
0.0131574
0.0128329
0.0108547
0.00807428
0.0079634
0.0112109
0.0151044
0.0174927
0.0164963
0.0120906
0.00698501
0.00800301
0.0112201
0.0139702
0.0144331
0.00812696
0.00604495
0.00387029
0.00583746
0.00854804
0.0121754
0.0147675
0.0166507
0.0189981
0.0190864
0.0164551
0.0153611
0.0105939
0.00405878
0.00332339
0.00369036
0.00435354
0.00580049
0.00778591
0.00958192
0.0114785
0.0131441
0.0136873
0.0131371
0.0101854
0.0082106
0.00701601
0.00604656
0.00527513
0.00414168
0.0029033
0.00301974
0.00423441
0.006696
0.00919172
0.00993994
0.00948539
0.0082212
0.00624588
0.00364998
0.00275723
0.00367176
0.0061858
0.00723029
0.00613826
0.00437057
0.00345252
0.00287655
0.00228192
0.00191429
0.00161862
0.00134289
0.00103963
0.000864701
0.000898598
0.000948675
0.00095439
0.000938782
0.000921169
0.00103311
0.00131778
0.00264045
0.00443106
0.00353341
0.00212398
0.00272922
0.00507233
0.00793853
0.0115827
0.0136742
0.013105
0.0102507
0.00769873
0.00664658
0.00611237
0.00674819
0.00833076
0.0089964
0.00755091
0.00562549
0.00516899
0.00628737
0.00815359
0.00932753
0.00933981
0.00885433
0.00838578
0.00871171
0.00906746
0.00840687
0.00674288
0.0056066
0.00599574
0.00756617
0.009504
0.0122143
0.014388
0.013795
0.0120667
0.00916093
0.00694806
0.00485256
0.00359231
0.0035788
0.0238127
0.0165553
0.011046
0.0135751
0.0168727
0.0206624
0.022731
0.0213745
0.0151598
0.0121842
0.00832745
0.00511661
0.00417414
0.00834856
0.0145955
0.0129995
0.00900711
0.00338447
0.00436729
0.00986202
0.00544962
0.00345967
0.00636668
0.0139386
0.0254338
0.0296794
0.0264066
0.0249895
0.0215488
0.0142383
0.0135358
0.015518
0.0150176
0.0138985
0.011146
0.0104419
0.0140404
0.0197654
0.0229284
0.0218584
0.01652
0.00914181
0.0105284
0.0157311
0.0195415
0.0206646
0.0136516
0.0112897
0.00524151
0.00593922
0.00948029
0.0135989
0.0168533
0.0189772
0.0217247
0.021313
0.0185383
0.0177902
0.0145857
0.00671693
0.00359536
0.00254429
0.00417434
0.00657245
0.00892207
0.0116158
0.0147575
0.0171492
0.0177435
0.016826
0.013317
0.0107012
0.00889079
0.00740625
0.00658239
0.00544902
0.00409587
0.00421703
0.00565324
0.00847363
0.0114508
0.012505
0.0121453
0.0109158
0.00878465
0.00565052
0.00436032
0.00516862
0.00807391
0.00951134
0.00831502
0.00608098
0.00492632
0.004386
0.00375708
0.00314997
0.00267565
0.00214763
0.00140433
0.000921493
0.0010053
0.00115537
0.0012211
0.0012727
0.00126947
0.00124784
0.00154409
0.00321473
0.00529311
0.00456703
0.00341939
0.00438297
0.00776889
0.0113593
0.0152678
0.017395
0.0166617
0.013297
0.0101143
0.00730114
0.00527944
0.005906
0.00823653
0.0104192
0.0100975
0.00790509
0.00692629
0.0077954
0.00999648
0.0116707
0.0116875
0.0107004
0.00914234
0.00940129
0.0102179
0.0101325
0.00848543
0.00698849
0.00736138
0.00949999
0.0119593
0.0153838
0.0180863
0.0174409
0.0152672
0.0114413
0.00843389
0.00632771
0.00520843
0.00502262
0.0281256
0.0203211
0.0143487
0.0167646
0.0195732
0.0245156
0.0277942
0.0261388
0.0172009
0.0148758
0.0109959
0.00662187
0.00590179
0.0110249
0.0172008
0.0121854
0.00897873
0.0051113
0.00649531
0.0122179
0.00455072
0.00307471
0.00703047
0.0165021
0.0304866
0.0361867
0.0324224
0.0305906
0.0265563
0.018398
0.016114
0.0198144
0.0189179
0.0172145
0.0139244
0.0128034
0.0173187
0.0244118
0.0283001
0.0271669
0.0210718
0.0125347
0.0142909
0.02059
0.0245108
0.0271032
0.0201873
0.016116
0.0084523
0.007817
0.0120736
0.0148407
0.0183223
0.0221317
0.0258878
0.02525
0.0215307
0.0208458
0.0189079
0.0111173
0.00649183
0.00328853
0.00408654
0.00659589
0.00998797
0.0142598
0.0185119
0.0213458
0.0220992
0.0209423
0.0164279
0.0128749
0.010478
0.00838928
0.0074271
0.00655532
0.00533099
0.00547056
0.0072017
0.0104395
0.0138678
0.015089
0.0146727
0.0134516
0.0111238
0.00757476
0.00605508
0.00678413
0.00999107
0.0116411
0.0104208
0.00774855
0.00638695
0.00596633
0.00547553
0.00486823
0.00432587
0.00362133
0.00252066
0.00142037
0.00104856
0.00108985
0.00119428
0.00135459
0.00148255
0.00156786
0.0020319
0.00420657
0.00623802
0.00570024
0.00484075
0.00618194
0.010259
0.0143263
0.0183901
0.0204097
0.0192731
0.0158532
0.0119472
0.00679666
0.00424162
0.00600896
0.00930667
0.012152
0.0122721
0.00965703
0.00832281
0.00913216
0.0121025
0.0146216
0.0149454
0.0136346
0.0108997
0.00979325
0.0102127
0.0102574
0.00875752
0.00749019
0.0086809
0.0115067
0.0143421
0.0183396
0.0216323
0.0208628
0.0183298
0.0138266
0.010097
0.00796473
0.00704112
0.00677335
0.0305062
0.0238818
0.0180009
0.0194475
0.0225965
0.0301139
0.0351747
0.0333907
0.0207237
0.017669
0.014091
0.00837924
0.00758878
0.0122901
0.019649
0.0111018
0.00754485
0.00782972
0.00960536
0.0147951
0.00567456
0.0035786
0.00740434
0.0192413
0.0343874
0.0432746
0.0389226
0.0365398
0.0316949
0.0232946
0.0209536
0.0258361
0.0236756
0.0206616
0.0166191
0.0147971
0.0210266
0.0293499
0.0339635
0.0327286
0.0256769
0.016334
0.0184218
0.0253047
0.0286747
0.0331592
0.0267394
0.0206015
0.011901
0.0109529
0.0140849
0.0146584
0.0184347
0.0242965
0.0315213
0.0319618
0.0273778
0.0268689
0.0250147
0.0162419
0.0106072
0.00511835
0.00499451
0.00709669
0.0118778
0.0176903
0.0225465
0.0256886
0.0265615
0.0253835
0.0202359
0.0155481
0.0122495
0.00940158
0.00796426
0.00739959
0.00652327
0.00672712
0.00880853
0.0125909
0.0165306
0.0179167
0.0174052
0.0160584
0.0134325
0.00942439
0.00777723
0.00857362
0.01193
0.0135691
0.0123682
0.00938337
0.00784123
0.00752888
0.00719015
0.00662771
0.0060238
0.00517755
0.00381183
0.00223685
0.00138147
0.00124192
0.00127456
0.00142515
0.00169939
0.00178754
0.00240699
0.0051164
0.00657165
0.00579194
0.00529868
0.00802753
0.0129526
0.0170878
0.020964
0.0225055
0.0203883
0.016729
0.0119172
0.00570025
0.00433951
0.00838495
0.0124099
0.0148575
0.0143009
0.0112228
0.00967381
0.0106836
0.0145051
0.017704
0.0182734
0.0169655
0.0141198
0.0114415
0.0104676
0.00965501
0.00796495
0.00766748
0.010133
0.0134713
0.0166458
0.0214189
0.025504
0.0245188
0.02144
0.0162561
0.0120293
0.0098497
0.00905205
0.0087051
0.030886
0.0260734
0.0212011
0.0218099
0.0262879
0.0361399
0.0424354
0.0410419
0.0242933
0.0200745
0.0167747
0.0100294
0.00924079
0.0118638
0.0217666
0.00971941
0.00677077
0.00926156
0.0122735
0.0172773
0.00911656
0.00484773
0.00806777
0.0213921
0.0360018
0.0502847
0.0452734
0.042351
0.0366583
0.0282187
0.0268764
0.0318309
0.0283575
0.0240262
0.0192643
0.0159979
0.024772
0.0342136
0.0395929
0.0382348
0.0300042
0.0197075
0.0219499
0.0285542
0.032125
0.038151
0.0324987
0.0243326
0.014949
0.0137371
0.0137889
0.0132533
0.0176257
0.0240941
0.0340491
0.0379989
0.0339843
0.0337022
0.0319224
0.0211129
0.0139851
0.00723713
0.00642086
0.00875843
0.0149094
0.0213902
0.0265498
0.0300312
0.0310237
0.0298522
0.0244864
0.0190252
0.0147322
0.0108295
0.00845785
0.00803176
0.00762375
0.00796968
0.0104178
0.0147592
0.0192552
0.0208933
0.0203916
0.0189243
0.0159591
0.011397
0.00966714
0.0107215
0.0141434
0.0154327
0.0140239
0.0108656
0.00923753
0.00901006
0.00879394
0.00827045
0.0076167
0.00664566
0.00503863
0.00309003
0.00201136
0.00177031
0.00177023
0.00192879
0.00228692
0.00216416
0.00234922
0.0045411
0.00579626
0.00493344
0.00504954
0.00995021
0.0161759
0.0203199
0.02413
0.0255341
0.0215596
0.0156579
0.0105004
0.00451308
0.00548712
0.0110884
0.015045
0.0169531
0.0160727
0.0131166
0.0113848
0.0126257
0.0170066
0.020736
0.0215308
0.0201774
0.0174425
0.014508
0.0122478
0.0103326
0.00821908
0.00873314
0.0118365
0.0153729
0.0187963
0.0245638
0.0295718
0.0282474
0.0246382
0.0187218
0.0140487
0.0118806
0.0111926
0.0107575
0.0310452
0.0272381
0.023399
0.0247279
0.0308889
0.0423669
0.0498026
0.0487617
0.0271419
0.0204365
0.0193661
0.0118994
0.0109589
0.0108665
0.0218979
0.00821476
0.00870945
0.0095253
0.0135804
0.0197107
0.0135316
0.006819
0.00912752
0.0233051
0.0370278
0.0577761
0.0520053
0.0483343
0.041503
0.0330632
0.0327953
0.0377457
0.0333896
0.0273896
0.0219219
0.0169199
0.0287023
0.0392854
0.0454029
0.0438863
0.034517
0.0224862
0.0245274
0.0315815
0.0365148
0.0428662
0.037236
0.0271937
0.0176829
0.0149098
0.0119877
0.0115354
0.0166441
0.0234497
0.0337246
0.0417464
0.0399732
0.0399863
0.0383503
0.0258663
0.0168209
0.00949167
0.00782934
0.0110282
0.0184291
0.0251399
0.0306462
0.0344746
0.035542
0.0343127
0.0288175
0.0229022
0.0180518
0.0130849
0.00929248
0.00854332
0.00862376
0.00919686
0.0120189
0.0169216
0.0219885
0.0238741
0.0233964
0.0218801
0.0186146
0.0135136
0.0117447
0.0132062
0.0169637
0.0174728
0.0154279
0.0118496
0.0102
0.0100693
0.00999471
0.00955898
0.00891029
0.00788516
0.00611509
0.00389067
0.00267088
0.00238746
0.00240875
0.00263751
0.00308416
0.00286615
0.00226151
0.0030939
0.00439038
0.00390307
0.00524396
0.0122429
0.0197678
0.0241958
0.028375
0.0301002
0.0244046
0.0142317
0.00870491
0.00382657
0.00719991
0.0139788
0.0179234
0.0185082
0.017382
0.0152214
0.0135443
0.0148466
0.0195501
0.0236385
0.0244797
0.0231589
0.0206433
0.0178743
0.0154135
0.0127927
0.0100385
0.0106007
0.0138574
0.0175078
0.0211673
0.0281196
0.0339909
0.0323109
0.0280566
0.0213959
0.0162547
0.0140334
0.013412
0.0128615
0.0320888
0.0272351
0.0252064
0.0280164
0.0352455
0.0479995
0.0567739
0.0562781
0.0317819
0.0186475
0.0209485
0.0136748
0.0128481
0.0108482
0.0203643
0.00764595
0.0123353
0.0102433
0.0133857
0.0218855
0.0174467
0.00888799
0.0103441
0.0247773
0.0378279
0.0642298
0.0586277
0.0540637
0.0455406
0.0373569
0.0382168
0.0430431
0.0384944
0.0299998
0.0237125
0.0179529
0.0326623
0.044281
0.0511965
0.0495053
0.0391684
0.0250357
0.026481
0.0354692
0.0422107
0.0482783
0.0423735
0.0305985
0.0197589
0.0138416
0.0103109
0.0111456
0.0166145
0.0226765
0.0324231
0.0423613
0.043881
0.0444492
0.0430338
0.0303701
0.0201105
0.0123889
0.00977446
0.0138001
0.0219702
0.0288247
0.0347306
0.0389328
0.0400761
0.0387563
0.0331066
0.0267977
0.0215496
0.0158601
0.0105902
0.00907583
0.00942538
0.0103853
0.0136062
0.019056
0.0246869
0.0268118
0.0263636
0.0248211
0.0212832
0.0156854
0.01391
0.0157953
0.0201562
0.0199537
0.0167991
0.0124117
0.0106213
0.0105537
0.0105444
0.0101118
0.00939633
0.00854552
0.00708549
0.00472471
0.00332871
0.00299154
0.00303637
0.00335018
0.00391945
0.00367376
0.002696
0.00236414
0.00320193
0.00352383
0.00649363
0.0149826
0.0233484
0.028209
0.0324553
0.0341713
0.0280122
0.0143198
0.00686235
0.00393992
0.00917339
0.0167791
0.0214388
0.0207315
0.0185294
0.0171883
0.0157704
0.0170352
0.0219003
0.0259039
0.0263679
0.0253881
0.0234002
0.0210618
0.0187944
0.0158491
0.0124431
0.0127008
0.0159327
0.0197075
0.0237204
0.0317817
0.0383711
0.0364506
0.0313065
0.0239342
0.0184808
0.0162232
0.0156411
0.0149491
0.0359692
0.0277542
0.0279935
0.0314214
0.0385953
0.0529621
0.0633097
0.0635826
0.0387059
0.015986
0.0198914
0.0154743
0.0148631
0.0124056
0.0182466
0.00851839
0.015441
0.0131748
0.0140341
0.023932
0.0210884
0.0109195
0.0115622
0.0262607
0.0385099
0.0678208
0.065388
0.0597452
0.0488415
0.0409971
0.0433385
0.0474589
0.0433691
0.0317475
0.024376
0.0194149
0.0367916
0.0494196
0.0570742
0.055191
0.0439194
0.0284944
0.0295433
0.0406849
0.0488449
0.0548354
0.0484014
0.0349962
0.019579
0.0118325
0.010651
0.0143121
0.0207607
0.0244878
0.031033
0.0407262
0.044009
0.045343
0.0447085
0.0334193
0.0240691
0.0160193
0.0122662
0.016686
0.0254562
0.0325354
0.0388912
0.0434595
0.0446486
0.043203
0.0373638
0.0306507
0.025008
0.018731
0.0121164
0.00980202
0.0102698
0.0115707
0.0151829
0.0211492
0.0272914
0.0296414
0.0292265
0.0276878
0.0239351
0.0178625
0.0160638
0.0182633
0.0232333
0.0228343
0.0185728
0.0130125
0.010965
0.0110661
0.0112472
0.0108197
0.0100135
0.00931511
0.00805942
0.00551937
0.00396897
0.00357881
0.00364711
0.00405002
0.00475594
0.0045113
0.00341513
0.00251971
0.00315287
0.00418425
0.00861874
0.0179044
0.0268378
0.032108
0.0359957
0.0370114
0.0309378
0.016229
0.00652828
0.00522383
0.0111314
0.0193853
0.0247841
0.0239302
0.0199465
0.0188305
0.0179266
0.0191758
0.0239986
0.0273537
0.027507
0.0266259
0.0254031
0.0237249
0.0218501
0.0187701
0.0147859
0.0147743
0.0180391
0.0219433
0.0265242
0.0355683
0.0427952
0.0407752
0.0346768
0.0264969
0.0207321
0.0184374
0.0178467
0.0169818
0.0418454
0.0297599
0.0311595
0.0338872
0.040358
0.0569958
0.0692793
0.0704361
0.0456994
0.0137902
0.0174203
0.0168081
0.0170473
0.0135857
0.0157917
0.0094124
0.0182222
0.0179937
0.0165287
0.0258733
0.0244019
0.0128633
0.0127793
0.0274593
0.0389585
0.0693234
0.0718218
0.0652475
0.0511777
0.0436535
0.0479411
0.0501068
0.0475271
0.0332078
0.0246782
0.0218316
0.0409021
0.0545586
0.0629363
0.0608534
0.0485831
0.0322536
0.0334366
0.0462364
0.0552672
0.0617977
0.0541882
0.0391762
0.0191169
0.0108133
0.0121961
0.0191326
0.0282578
0.0310425
0.0325792
0.0383331
0.0412874
0.042684
0.0425982
0.0341577
0.0275524
0.0195622
0.0149205
0.0196314
0.0288838
0.0362079
0.0430507
0.0480048
0.0492404
0.0476501
0.0415934
0.0344614
0.0284214
0.0216722
0.0137176
0.0106979
0.0112942
0.0127783
0.0167607
0.0232673
0.0299425
0.0323982
0.0319741
0.0304088
0.0264888
0.02003
0.0181559
0.0204591
0.0259124
0.0256624
0.020839
0.0140946
0.0118235
0.0122409
0.0127478
0.0124137
0.0116078
0.0108301
0.00922279
0.00628523
0.00458761
0.00415253
0.00424573
0.0047405
0.00559077
0.00536213
0.00419915
0.00308013
0.00362397
0.00558719
0.0109585
0.0207284
0.0301531
0.0356739
0.0386696
0.0385689
0.0327028
0.0188753
0.00857301
0.00739656
0.0127076
0.0215449
0.027928
0.0273472
0.0219869
0.0202463
0.0199026
0.0211198
0.0256406
0.0283046
0.0285706
0.0272739
0.026694
0.0256175
0.0240613
0.0208967
0.0167806
0.0167809
0.0199628
0.0240629
0.0293092
0.0392639
0.046695
0.0449889
0.0380971
0.0290369
0.0228891
0.0206133
0.0199888
0.0189341
0.0519529
0.0333445
0.0344431
0.0348755
0.0411643
0.0626476
0.0781987
0.0804625
0.0561026
0.013577
0.0130011
0.0158803
0.0200064
0.0132934
0.0118195
0.0107449
0.022197
0.0246628
0.020903
0.0287936
0.0290588
0.016005
0.0146063
0.0295152
0.039807
0.0711887
0.0809601
0.0734023
0.0544588
0.046717
0.0539516
0.0507666
0.0521764
0.0356049
0.0254452
0.0268244
0.0472931
0.0626026
0.0719745
0.0695288
0.0558176
0.0383303
0.0400938
0.055065
0.0653171
0.071967
0.0620584
0.0443859
0.021743
0.0124189
0.0154628
0.0261557
0.0395098
0.0438439
0.0420612
0.0375729
0.0381921
0.0396968
0.0389676
0.0325783
0.0288118
0.0225159
0.018238
0.0241562
0.0341563
0.0419266
0.0495666
0.0550868
0.0563561
0.0545008
0.0480792
0.0402896
0.0336207
0.0262563
0.0163336
0.0121094
0.012507
0.0144212
0.0191761
0.0265818
0.0342042
0.0368019
0.0363129
0.0345118
0.0302407
0.0232314
0.0210828
0.0231564
0.0291636
0.0293971
0.0244559
0.0166416
0.0140886
0.0148314
0.0155894
0.0152798
0.0144146
0.0134751
0.0113572
0.00765142
0.00554934
0.00502469
0.00515825
0.00580275
0.0068872
0.00670114
0.00543617
0.0041849
0.0048702
0.00792654
0.0143818
0.0247759
0.0349507
0.0407786
0.0419486
0.0403099
0.0341947
0.0229568
0.012919
0.0107418
0.0146547
0.0239755
0.0318466
0.0322356
0.0260121
0.0223006
0.0218769
0.0231433
0.0276317
0.0304631
0.0307551
0.028162
0.0282837
0.027967
0.0264093
0.0228927
0.0187011
0.0191452
0.0223004
0.0271598
0.0337137
0.0446809
0.0520337
0.0509826
0.0435963
0.0331351
0.0261096
0.0238104
0.0231056
0.0217515
0.0641085
0.0334829
0.0319208
0.0304489
0.0440965
0.0731848
0.0916266
0.0942156
0.0693146
0.020027
0.00791758
0.0117337
0.0200036
0.0106921
0.00837726
0.013113
0.0271285
0.0309928
0.0256513
0.032606
0.0345394
0.0202547
0.016248
0.0274272
0.040173
0.0730942
0.0872285
0.0810715
0.0597295
0.0488487
0.0541151
0.0457577
0.0511232
0.0410919
0.0294462
0.0343956
0.0551432
0.0722175
0.0831432
0.0803603
0.0647661
0.0457924
0.0479646
0.0657352
0.076718
0.0834037
0.0694618
0.045357
0.0269877
0.0175563
0.020473
0.0347944
0.0528077
0.0593888
0.0578974
0.0484807
0.0453522
0.0485393
0.0451365
0.0289678
0.0229645
0.0184389
0.0193984
0.0297258
0.0408615
0.0492812
0.0580346
0.0643405
0.0656649
0.0634385
0.0564562
0.0477695
0.0402658
0.0321572
0.0203742
0.0141265
0.0135886
0.0162276
0.0223277
0.0308889
0.0398095
0.0430113
0.0425735
0.0403331
0.0350482
0.0261231
0.0232844
0.0252069
0.0322462
0.0329708
0.0285607
0.0203292
0.0175863
0.0184258
0.0192718
0.0189638
0.0180533
0.0169095
0.0141382
0.00941244
0.00676494
0.00610873
0.0063021
0.00715105
0.00854744
0.00844957
0.00702696
0.00561141
0.00646082
0.0105876
0.0181125
0.0290523
0.0397788
0.0468408
0.0480094
0.0455717
0.0352678
0.0270582
0.0180408
0.0145231
0.0166233
0.0245001
0.0328558
0.0370064
0.0318216
0.0258933
0.0234704
0.0248678
0.0311986
0.0366402
0.0368775
0.030355
0.0303472
0.0316686
0.0299114
0.0254805
0.0195207
0.0201411
0.0243606
0.0312005
0.0390102
0.050093
0.0584653
0.0572284
0.0499951
0.0381105
0.0294804
0.026828
0.0259092
0.024336
0.072803
0.0330826
0.0261901
0.0253055
0.0531356
0.0878819
0.107404
0.109385
0.082562
0.0286285
0.00604828
0.00730506
0.0176656
0.0088706
0.00890166
0.0158856
0.0319702
0.0361999
0.0296405
0.0370642
0.0404679
0.0246654
0.017844
0.0237367
0.0390319
0.0748515
0.0888263
0.0837463
0.0655778
0.0466689
0.0483483
0.0388929
0.0454737
0.0476886
0.0374627
0.0421582
0.062937
0.0790647
0.093183
0.0906448
0.0735153
0.0536164
0.0562442
0.0755462
0.083014
0.0912599
0.0731958
0.0426977
0.0270305
0.0205595
0.0250663
0.0432676
0.0655037
0.0742216
0.0732185
0.0621899
0.055833
0.0588388
0.0556388
0.0299586
0.0171035
0.0134218
0.0207222
0.0353073
0.0475693
0.0567878
0.066699
0.0737158
0.075068
0.0724338
0.0648291
0.0552165
0.0468769
0.0380141
0.024854
0.0168528
0.0156258
0.0186009
0.0255207
0.0351336
0.0453779
0.0492041
0.0489327
0.0465587
0.040234
0.0288196
0.0249242
0.0275772
0.0363158
0.0366703
0.0318915
0.0230769
0.0203708
0.0211523
0.0221333
0.022181
0.0215336
0.0202315
0.0168241
0.0110812
0.00792891
0.00714961
0.00741463
0.00848758
0.0101927
0.0102161
0.0086323
0.00711878
0.00816102
0.0131477
0.0215963
0.0321156
0.0432718
0.0529313
0.0571907
0.0548563
0.0367572
0.0295936
0.0228761
0.0187659
0.0182141
0.0226753
0.0307929
0.039064
0.0370305
0.0310887
0.0274804
0.0289836
0.0372358
0.0445771
0.045275
0.0349602
0.032289
0.0357035
0.0355326
0.0303272
0.022203
0.0221321
0.0279328
0.0359863
0.0437403
0.0551384
0.0649928
0.0633285
0.0556261
0.0431728
0.0326196
0.0288587
0.0271476
0.0249673
0.0757489
0.0360376
0.0197358
0.0240568
0.0635856
0.102122
0.122871
0.124298
0.0949543
0.0363429
0.00796272
0.00470773
0.014017
0.00841282
0.0106947
0.0186709
0.0367249
0.0422027
0.03366
0.0414266
0.0463167
0.0283973
0.0200777
0.0218331
0.0386074
0.0760407
0.0881919
0.0819407
0.068072
0.0423866
0.0396099
0.0345129
0.037327
0.0483789
0.0448749
0.0493457
0.0699846
0.0825468
0.101479
0.0999717
0.0813983
0.0609619
0.0635245
0.0808697
0.0812387
0.092842
0.0718811
0.0391726
0.0229404
0.0194938
0.0287882
0.0513703
0.0776817
0.0881704
0.0849523
0.0699295
0.0590238
0.0619769
0.0624141
0.0369153
0.0164525
0.0145209
0.0249977
0.040958
0.0541532
0.0642295
0.0753363
0.0830813
0.0844571
0.0813999
0.0731351
0.0626154
0.0534352
0.0439613
0.0292353
0.0200529
0.0185872
0.0214415
0.0286438
0.0391587
0.050766
0.0552751
0.0552623
0.0528071
0.0458391
0.0329347
0.0280835
0.0316023
0.0422395
0.0419427
0.033949
0.0233428
0.0203846
0.0211731
0.0230216
0.0244817
0.0248247
0.0234426
0.0194241
0.0126581
0.00903618
0.0081401
0.00849482
0.00981548
0.0118193
0.011983
0.0102341
0.00862999
0.00991241
0.015523
0.024385
0.0333734
0.0457421
0.0589617
0.0662088
0.0645064
0.0396207
0.028969
0.0260249
0.0227926
0.0180881
0.0196198
0.0276435
0.0379353
0.040913
0.0366446
0.032731
0.0342534
0.0433868
0.0516964
0.0531852
0.0413449
0.0337643
0.0386081
0.0417098
0.0364594
0.0271857
0.0263224
0.0327125
0.0407208
0.0473147
0.0602871
0.0723894
0.0698944
0.060691
0.0482383
0.0361937
0.030939
0.0279212
0.024569
0.0747207
0.0408965
0.0166206
0.0285212
0.0747687
0.116231
0.138186
0.139083
0.106774
0.0433385
0.0109955
0.00545577
0.00995215
0.00894086
0.0127514
0.0215388
0.0412267
0.0491763
0.0377975
0.0450557
0.0514636
0.0309062
0.0225887
0.0233705
0.0436473
0.0768115
0.087471
0.0860164
0.0740599
0.0433417
0.0328249
0.0372052
0.0311097
0.0433749
0.0418661
0.0539278
0.0764142
0.085051
0.108023
0.108129
0.0885015
0.0681241
0.0703426
0.081192
0.0765373
0.0896019
0.0727274
0.0403416
0.0208676
0.0185283
0.0326756
0.0592539
0.0895302
0.101135
0.0908585
0.0704276
0.0569971
0.0596529
0.0634947
0.0436742
0.0216892
0.0194753
0.030634
0.0466587
0.0607374
0.0717623
0.0840252
0.0924591
0.0938244
0.0902964
0.0813219
0.0699182
0.0599655
0.0499366
0.0333558
0.0228776
0.0215906
0.0242738
0.0314816
0.0427984
0.0558722
0.0611928
0.0615381
0.059034
0.0516052
0.0379095
0.0327335
0.0367986
0.0489496
0.04859
0.0363868
0.0213361
0.0177575
0.0184978
0.0213493
0.0251704
0.0274983
0.026512