/*--------------------------------*- C++ -*----------------------------------*\
| =========                 |                                                 |
| \\      /  F ield         | OpenFOAM: The Open Source CFD Toolbox           |
|  \\    /   O peration     | Version:  v1912                                 |
|   \\  /    A nd           | Website:  www.openfoam.com                      |
|    \\/     M anipulation  |                                                 |
\*---------------------------------------------------------------------------*/
FoamFile
{
    version     2.0;
    format      ascii;
    class       volScalarField;
    location    "30";
    object      p_rgh;
}
// * * * * * * * * * * * * * * * * * * * * * * * * * * * * * * * * * * * * * //

dimensions      [1 -1 -2 0 0 0 0];


internalField   nonuniform List<scalar> 
114144
(
-15808.1
-15336.2
-14292.9
-13062.4
-11798.6
-10550.7
-9296.29
-8029.55
-6748.72
-5452.92
-4141.49
-2814.13
-1470.93
-112.338
1261
2648.48
4049.7
5464.59
6893.33
8336.1
9792.66
11261.9
12741.7
14228.3
15717.4
17203.1
18678.2
20135.1
21566.8
22967.3
24331.7
25656.9
26941
28183
29382.4
30538.4
31649.1
32711
33718.5
34663.9
35557.1
36407.1
37163.5
37790.1
38290
38658.9
38892.3
38987.2
38942.7
38759.2
38438.5
37983.2
37396.6
36682.6
35846.3
34895.4
33843.5
32711
31526.3
30307
29046.3
27746.2
26413.5
25057.3
23688.2
22316.1
20949.7
19595.6
18257.5
16937
15633
14342.5
13059.6
11773.9
10468.2
9051.43
7460.45
6267.03
5112.64
3965.16
2802.24
1610.69
381.812
-890.12
-2208.76
-3576.27
-4993.66
-6461.06
-7977.92
-9543.33
-11156.2
-12815.4
-14519.4
-16266.2
-18052.6
-19873.2
-21720
-23581.6
-25443
-27287.3
-29094.6
-30841.3
-32504.7
-34063.8
-35500.5
-36799.8
-37950.8
-38947.2
-39786.9
-40472.6
-41014.9
-41404.4
-41629.6
-41715.3
-41669.2
-41497.2
-41205.4
-40799.6
-40285.9
-39670.8
-38960.6
-38161.7
-37280.6
-36323.5
-35296.7
-34205.5
-33054.2
-31845.4
-30582
-29267.5
-27906.4
-26503.7
-25065.5
-23599.2
-22113.7
-20618.9
-19125.7
-17645.6
-16190.1
-14770.1
-13395.9
-12076.4
-10818.8
-9628.27
-8507.75
-7457.61
-6475.73
-5557.58
-4696.3
-3883.22
-3108.03
-2359.78
-1626.4
-899.479
-167.378
596.568
1371.47
2164.85
2977.44
3805.73
4645.53
5489.93
6335.92
7171.48
8007.15
8818.42
9620.99
10406.9
11179
11939.1
12689.2
13430.9
14165.6
14893.8
15615
16328
17030.8
17721.1
18396.4
19054.4
19693
20310.1
20904.4
21474.9
22021.1
22542.6
23039.4
23511.6
23959.4
24382.9
24782.4
25158
25509.9
25837.9
26141.9
26421.7
26677
26907.3
27112.4
27292.4
27448
27580.4
27691.7
27784.3
27861.6
27927.6
27986.4
28043.3
28103.2
28170.2
28248.2
28339.7
28444.7
28560.4
28680.4
28794.7
28890.8
28953.5
28964.6
28906
28754.4
28510.8
28153.7
27668.6
27046.3
26280.6
25367.6
24306.7
23100.2
21753.2
20273.8
18671.1
16959.1
15156
13280.8
11354.7
9399.99
7440.13
5498.4
3597.29
1757.66
-3.16547
-1667.86
-3224.77
-4664.72
-5981.08
-7171.96
-8239.81
-9181.54
-9969.91
-12485.2
-11926.5
-10955.6
-9814
-8602.31
-7376.35
-6171.92
-4978.78
-3784.06
-2580.92
-1365.26
-134.296
1113.98
2381.04
3667.9
4975.17
6303.05
7651.25
9018.78
10403.7
11802.7
13211.7
14625
16036.4
17440.1
18830
20200.1
21545.3
22861.9
24147.2
25399.4
26617.1
27799
28942.9
30045.9
31103.6
32110.7
33060.6
33945.9
34758.5
35508.8
36205.1
36802.8
37271.3
37616.8
37838
37933
37900.3
37739.2
37450.1
37034.4
36494.9
35835.2
35061
34179
33198.7
32132.9
30997.2
29809.7
28591.4
27357.9
26108.5
24843.5
23566
22280.3
20991.6
19704.2
18421.7
17146.3
15878.8
14618.7
13364.2
12110.8
10849.5
9564.31
8166.79
6592.43
5405.3
4253
3104.34
1938.24
742.547
-490.767
-1767.11
-3089.88
-4460.83
-5880.47
-7348.44
-8863.91
-10425.9
-12033.3
-13685.1
-15379.6
-17114.6
-18886.3
-20688.5
-22512.2
-24345.1
-26171.9
-27975.3
-29735.3
-31429.3
-33035.4
-34534.4
-35909.5
-37147.3
-38238.3
-39177.3
-39963.1
-40598.7
-41094.7
-41443.5
-41631.8
-41684.8
-41609.3
-41411.2
-41096.1
-40670
-40138.6
-39508.3
-38785.4
-37976.2
-37086.8
-36123.3
-35091.8
-33997.7
-32844.7
-31635.3
-30372.1
-29058.7
-27699.4
-26299.3
-24864.6
-23402.7
-21922.6
-20434.2
-18948.5
-17476.9
-16030.7
-14620.9
-13257.6
-11949.4
-10703.3
-9524.41
-8415.24
-7376.01
-6404.39
-5495.58
-4642.46
-3836.12
-3066.62
-2323.34
-1594.02
-870.178
-140.26
622.042
1395.7
2188.21
3000.03
3827.54
4666.47
5509.86
6354.67
7188.94
8023.09
8832.88
9633.85
10418.2
11188.8
11947.4
12696.2
13436.8
14170.6
14898.1
15618.8
16331.4
17034
17724.1
18399.3
19057.2
19695.7
20312.8
20907.1
21477.6
22023.7
22545.3
23042.1
23514.4
23962.1
24385.7
24785.2
25161
25512.9
25841
26145.2
26425.1
26680.5
26910.8
27115.9
27295.9
27451.3
27583.5
27694.3
27786.5
27863.3
27928.6
27986.8
28043.1
28102.3
28168.7
28246.4
28337.8
28443.2
28559.8
28681.2
28797.3
28895.7
28960.8
28974.6
28918.6
28770.2
28527.8
28172.3
27688.4
27066.8
26301.2
25387.9
24326.1
23118.2
21769.3
20287.7
18682.3
16967.3
15160.9
13282.3
11352.7
9394.56
7431.45
5486.74
3583.03
1741.17
-21.3665
-1687.25
-3244.78
-4684.87
-6001.24
-7191.93
-8259.38
-9200.46
-10002.3
-11025.1
-10408.3
-9468.49
-8375.48
-7204.73
-6002.37
-4803.26
-3628.99
-2465.64
-1300.53
-125.676
1064.27
2273.04
3503.07
4755.75
6031.68
7330.75
8652.24
9994.54
11354.9
12729.2
14111.9
15496.6
16876.1
18243.9
19593.9
20920.2
22218.5
23486.2
24721.6
25924.1
27093
28227.1
29324.3
30380.8
31391.2
32348.9
33246.4
34075.8
34829.7
35519.8
36149.9
36678.9
37079.2
37357.1
37512.8
37545.2
37453.4
37237.2
36897.2
36435.2
35854.3
35158.9
34354.9
33449.6
32452.6
31376.1
30234.4
29043.3
27820.2
26584.9
25342.7
24092.9
22836.7
21577.1
20317
19059.1
17805.3
16556.5
15312.8
14073.6
12837.2
11599.7
10352.6
9080.64
7698.03
6138.03
4957.3
3809.31
2663.54
1499.53
305.507
-926.404
-2201.54
-3523.21
-4893.07
-6311.4
-7777.61
-9290.64
-10849.3
-12452.5
-14099.1
-15787.6
-17515.6
-19279.3
-21072.5
-22885.9
-24707
-26520.1
-28307.8
-30049.9
-31723.6
-33307.3
-34782.2
-36131.9
-37343.5
-38408
-39320.6
-40080.7
-40691.5
-41163.6
-41492
-41661.8
-41698.3
-41608
-41396.7
-41070.1
-40633.8
-40093.6
-39455.7
-38726.4
-37911.9
-37018.3
-36051.3
-35017.6
-33922.3
-32769
-31559.8
-30297
-28984.2
-27625.6
-26226.1
-24792.1
-23330.9
-21851.5
-20363.9
-18879.1
-17408.7
-15964.1
-14556.1
-13195.1
-11889.5
-10646.6
-9471.27
-8366.1
-7331.28
-6364.44
-5460.74
-4612.9
-3811.66
-3046.7
-2307.74
-1582.66
-862.522
-135.362
624.972
1397.21
2189.26
3001.21
3829.31
4669.07
5513.38
6358.99
7193.86
8028.22
8837.95
9638.48
10422.1
11191.8
11949.6
12697.5
13437.6
14170.8
14898
15618.6
16331.5
17034.4
17725.1
18400.9
19059.5
19698.6
20316.1
20910.9
21481.8
22028.2
22550
23047.1
23519.5
23967.4
24391.1
24790.9
25166.8
25518.9
25847.2
26151.6
26431.8
26687.4
26917.8
27122.9
27302.7
27457.9
27589.5
27699.6
27790.8
27866.5
27930.5
27987.3
28042.1
28100
28165.3
28242.3
28333.7
28439.9
28558.3
28682.5
28802.3
28905.2
28975.3
28994.2
28943.3
28797.9
28559.4
28207.3
27725.7
27105.3
26339.7
25425.2
24361.3
23150.2
21797.3
20310.7
18699.8
16978.6
15165.6
13280.3
11343.8
9379.09
7409.77
5459.47
3550.94
1705.12
-60.4947
-1728.44
-3287.16
-4727.61
-6043.46
-7233.36
-8299.06
-9237.58
-10039.5
-10119.6
-9466.16
-8550.81
-7497.96
-6363.68
-5185.47
-3995.77
-2824.66
-1673.78
-526.776
627.552
1797.07
2987.08
4200.68
5439.1
6702.39
7989.9
9300.41
10632
11981.4
13344.3
14714.5
16085.1
17448.2
18797.1
20125.4
21427.2
22698.4
23936.8
25141.4
26312.2
27449.3
28551.9
29617.5
30642.1
31619.8
32543.2
33404.1
34194.5
34907
35554.2
36141.9
36623.1
36975.2
37204.4
37311.5
37296.2
37157.8
36896.7
36513.9
36011.8
35393.7
34664.7
33831.2
32900.9
31883.3
30790.3
29635.7
28434.5
27203.8
25961.2
24712.4
23460.1
22207.1
20956.2
19709.3
18467.5
17231.1
15999.7
14772.5
13548.4
12325.5
11100.4
9865.04
8604.63
7236.9
5691.1
4516.25
3371.97
2228.52
1066.06
-126.893
-1358.11
-2632.92
-3954.6
-5324.67
-6743.21
-8209.32
-9721.65
-11278.8
-12879.6
-14522.9
-16207.1
-17930.1
-19688.1
-21474.8
-23280.6
-25092.7
-26895.5
-28670.8
-30398.1
-32054.1
-33617.4
-35069.6
-36394.5
-37579.4
-38615.6
-39499.1
-40230
-40811.8
-41255
-41559.3
-41706.4
-41722.4
-41613.5
-41385.6
-41044
-40594.3
-40042.1
-39393.6
-38655.1
-37832.8
-36932.6
-35959.9
-34922.1
-33824.5
-32669.9
-31459.9
-30196.7
-28883.5
-27524.7
-26124.9
-24690.8
-23229.3
-21749.7
-20262.1
-18777.5
-17307.9
-15864.6
-14458.6
-13100.3
-11798.2
-10559.6
-9389.29
-8289.93
-7261.55
-6301.71
-5405.46
-4565.34
-3771.74
-3013.79
-2281.1
-1562.17
-847.261
-124.207
633.347
1403.67
2195.09
3007.24
3836.13
4676.99
5522.47
6369.03
7204.57
8038.96
8848.38
9647.92
10430.2
11198.4
11954.2
12700.5
13439.1
14171.7
14898.7
15619.4
16332.5
17036.1
17727.5
18404.1
19063.4
19703.2
20321.4
20916.8
21488.2
22035
22557
23054.5
23527.2
23975.4
24399.4
24799.3
25175.5
25528
25856.6
26161.4
26441.9
26697.8
26928.4
27133.5
27313.1
27467.8
27598.6
27707.6
27797.5
27871.6
27933.8
27988.6
28041.3
28097.2
28160.8
28236.7
28327.9
28435.1
28556.1
28684.5
28810
28919.6
28997.3
29024.3
28981.3
28844.9
28609.5
28262
27783.7
27165
26399.4
25483.3
24416
23200.1
21840.9
20346.8
18727.3
16996.7
15173.7
13277.9
11330.9
9356.05
7377.23
5418.42
3502.57
1650.77
-119.565
-1790.53
-3350.87
-4791.7
-6106.97
-7295.34
-8358.65
-9294.47
-10100.3
-9465.57
-8791.09
-7903.21
-6892.31
-5797.94
-4648.71
-3473.78
-2304.18
-1159.25
-22.982
1119.08
2277.24
3458.23
4665.36
5899.21
7158.82
8442.79
9749.5
11076.8
12421.7
13779.3
15143.6
16507.1
17861.9
19200.8
20517.1
21804.6
23059.4
24279.1
25463.5
26613
27728.3
28808.9
29852.7
30855.2
31810.2
32709.7
33545.1
34307.9
34990.4
35603.6
36167.5
36617.3
36937.2
37132.7
37205.4
37155.2
36982
36686.4
36269.7
35734.8
35085.6
34327.7
33467.8
32514.1
31476
30365.2
29195.6
27982.7
26743.9
25489
24225.7
22960.9
21699.9
20446.4
19201.9
17966.4
16738.9
15517.8
14301.4
13087.8
11875.2
10660.2
9435.18
8185.85
6833.66
5302.89
4135.32
2996.31
1856.84
697.605
-492.67
-1721.76
-2995.03
-4315.74
-5685.23
-7103.31
-8568.75
-10079.9
-11635.2
-13233.3
-14873.2
-16553.6
-18272.3
-20025.9
-21808.5
-23609.7
-25417
-27214.6
-28983.8
-30703.2
-32348.7
-33899.1
-35336.2
-36643.5
-37808.2
-38821.9
-39681.3
-40386.9
-40943.2
-41360
-41642.5
-41769.7
-41767.3
-41642
-41399.2
-41044.4
-40582.7
-40019.9
-39361.9
-38615.1
-37785.7
-36879.3
-35901.1
-34859.7
-33760.3
-32605.2
-31394.8
-30131.4
-28817.8
-27458.6
-26057.9
-24622.7
-23159.6
-21678.1
-20188.3
-18701.5
-17230
-15785.2
-14378.2
-13019.7
-11718.2
-10481.3
-9313.65
-8218.16
-7194.79
-6241.04
-5351.91
-4519.73
-3734.59
-2984.96
-2259.82
-1548.33
-839.945
-122.175
631.833
1399.83
2190.68
3003.52
3834.04
4677.08
5524.93
6373.64
7210.91
8046.23
8855.93
9654.95
10436.1
11202.5
11957
12701.7
13439.1
14170.7
14897.1
15617.9
16331.7
17036.2
17728.9
18406.8
19067.5
19708.5
20327.8
20924.1
21496.3
22043.9
22566.4
23064.2
23537.4
23986
24410.3
24810.6
25187.2
25540
25869.1
26174.4
26455.3
26711.6
26942.5
27147.6
27327
27481
27610.8
27718.3
27806.3
27878.1
27937.7
27989.5
28039.3
28092.4
28153.8
28228.2
28319.2
28428
28552.5
28686.4
28819.5
28938.3
29026.1
29063.5
29030.9
28903.3
28673.9
28333.6
27860.3
27244
26478.6
25560.3
24488.7
23266.3
21898.8
20394.8
18764
17020.8
15184.3
13274.5
11313.6
9325.13
7333.6
5363.39
3437.78
1578.01
-198.727
-1873.58
-3435.89
-4876.94
-6191
-7377.15
-8437.14
-9369.18
-10173.7
-8946.68
-8261.89
-7406.01
-6440.86
-5391.06
-4276.12
-3120.68
-1955.94
-813.04
316.375
1450.67
2602.82
3780.88
4987.95
6223.34
7484.69
8769.72
10076.6
11403.3
12746.9
14102.9
15465
16825.8
18177.1
19511.5
20822
22101.9
23346.7
24554.5
25725.1
26859.7
27959.4
29024.4
30052.6
31039.7
31978.8
32861.7
33679
34422
35082.5
35671.4
36213.7
36645.4
36944.2
37116.2
37163.9
37087.6
36887.5
36564.2
36119.5
35556.6
34880.1
34096
33211.6
32235.2
31176.4
30047.4
28862.9
27639.2
26385.2
25110.4
23826.2
22542.7
21267.4
20004.5
18755.7
17520.2
16296
15080.4
13870.7
12664.7
11460
10253.4
9037.7
7799.13
6463.2
4948.22
3789.01
2656.31
1521.86
366.827
-819.898
-2046.2
-3317.52
-4637.1
-6006.07
-7423.84
-8888.73
-10398.8
-11952.2
-13547.7
-15184.4
-16861.4
-18576.8
-20327.4
-22107.9
-23907.5
-25713.3
-27510
-29278.1
-30995
-32634.7
-34177.5
-35604.9
-36899.2
-38047.3
-39041.3
-39878.3
-40559.8
-41090.8
-41480.7
-41741
-41848.7
-41828.3
-41686.4
-41428.8
-41060.6
-40586.9
-40013
-39345
-38589.3
-37752.2
-36839.2
-35854.3
-34808.6
-33707.4
-32551.9
-31340.8
-30076.9
-28762.4
-27402.1
-25999.6
-24562.3
-23096.1
-21611
-20117.4
-18626.4
-17151.1
-15702.8
-14293
-12932.7
-11630.4
-10394
-9228.35
-8136.36
-7118
-6170.75
-5289.53
-4466.43
-3691.21
-2951.67
-2235.87
-1533.28
-832.791
-121.509
628.267
1393.54
2183.84
2997.72
3830.47
4676.41
5527.39
6378.95
7218.52
8055.09
8865.26
9663.66
10443
11207.4
11960
12702.7
13438.4
14169
14895.1
15616.2
16330.8
17036.7
17730.8
18410.4
19072.7
19715.2
20335.9
20933.2
21506.4
22054.8
22578.1
23076.4
23550.1
23999.2
24423.9
24824.7
25201.7
25555.1
25884.8
26190.6
26472.2
26729
26960.2
27165.4
27344.4
27497.7
27626.2
27731.9
27817.6
27886.7
27943.2
27991.7
28037.9
28087.5
28145.7
28218.1
28308.7
28419.1
28547.8
28688.8
28831.4
28961.8
29062.5
29113.6
29094.6
28981.4
28755.5
28424.2
27956.8
27343.5
26578.1
25657.1
24579.9
23349.5
21971.6
20455
18809.9
17050.8
15197.4
13270.1
11291.5
9285.99
7278.48
5293.94
3356.12
1486.38
-298.444
-1978.17
-3542.98
-4984.42
-6297.14
-7480.49
-8536.22
-9463.3
-10265.5
-8506.21
-7819.1
-7000.29
-6085.3
-5084.65
-4008.84
-2877.48
-1721.56
-578.543
546.474
1675.96
2825.88
4005.47
5217.15
6458.36
7724.96
9013.82
10323
11651
12995.3
14351.5
15713.8
17074.6
18425.8
19759.7
21068.7
22345.6
23585.3
24785.7
25946.9
27070.7
28159.1
29212.7
30229.8
31206.1
32134.5
33006
33811
34540
35184.6
35754.8
36272.1
36697.7
36984
37139.9
37169.5
37073.6
36852.3
36506.6
36038.3
35451.1
34750.2
33942
33034.5
32036.4
30957.9
29812.3
28615.5
27373.6
26095.7
24795
23485.5
22179.6
20886
19609.9
18352.8
17113.5
15889
14675.8
13470.4
12269.8
11071.6
9872.42
8665.58
7437.81
6119.03
4620.8
3471.14
2345.88
1217.49
67.646
-1114.65
-2337.52
-3606.59
-4925.05
-6293.72
-7711.49
-9175.92
-10684.6
-12235.6
-13828
-15461.3
-17135
-18847.6
-20596.2
-22376.3
-24176.8
-25984.2
-27784
-29555.7
-31275.2
-32913.3
-34453.7
-35876.5
-37162.2
-38297
-39273.5
-40089.8
-40747.9
-41253.9
-41616.8
-41853.8
-41943.7
-41905.5
-41747.5
-41475.6
-41094.5
-40609.1
-40024.4
-39346.3
-38581.7
-37736.8
-36816.9
-35824.2
-34774.1
-33671.8
-32516.5
-31304.6
-30040.3
-28724.5
-27363
-25957.8
-24517.7
-23047
-21557
-20057.8
-18560.5
-17079.4
-15625.5
-14210.7
-12846.5
-11541.5
-10304.1
-9139.1
-8049.72
-7035.9
-6095.13
-5222.31
-4409.22
-3645.24
-2917.49
-2212.94
-1520.87
-829.778
-126.287
618.436
1380.52
2170.36
2985.76
3821.54
4671.39
5526.59
6382.05
7224.79
8063.31
8874.38
9671.95
10450.1
11212.5
11962.5
12702.7
13436.4
14165.7
14891.3
15612.8
16328.6
17036.1
17732.3
18414.1
19078.5
19723
20345.3
20944.1
21518.4
22067.9
22592
23091.1
23565.4
24015
24440.3
24841.5
25219.1
25573.1
25903.5
26210
26492.4
26749.8
26981.5
27186.8
27365.4
27517.7
27644.7
27748.2
27831
27896.7
27949.2
27993.3
28034.8
28080
28134.6
28204.5
28294.6
28407.1
28540.9
28690.3
28844.5
28988.9
29105.2
29172.6
29169.5
29073.7
28852.1
28533.3
28073.3
27463.6
26698.3
25773.8
24689.9
23449.7
22059.2
20527.5
18865.1
17086.9
15212.9
13264.4
11264.5
9238.32
7211.49
5209.64
3257.13
1375.58
-419.332
-2104.63
-3672.25
-5113.93
-6424.71
-7604.32
-8654.75
-9575.82
-10373.3
-8111.74
-7429.04
-6653.06
-5793
-4845.81
-3813.22
-2709.73
-1565.57
-422.223
700.33
1827.33
2977.95
4162.52
5382.37
6632.56
7906.7
9200.92
10513.6
11843.8
13189.6
14547.3
15911
17273.6
18627
19963.4
21274.4
22552
23790.2
24986.5
26141.4
27257.5
28337.4
29382.7
30392
31361
32282.5
33146.9
33944
34663.8
35297.8
35854.7
36344.9
36767.3
37048
37193.5
37210.3
37099.7
36861.9
36497.8
36009.5
35401
34678
33847.7
32918.5
31900.3
30804.6
29646.3
28430
27161.8
25854.2
24523.2
23185.1
21853.9
20539.5
19247.5
17979.6
16734.1
15507.4
14294.8
13092.1
11895.8
10703.1
9510.81
8312.62
7095.9
5795.21
4314.84
3175.83
2059.01
937.618
-206.203
-1383.31
-2602.29
-3869.11
-5186.96
-6556.3
-7974.61
-9438.59
-10945.5
-12493.5
-14081.9
-15710.7
-17380.5
-19090.4
-20838
-22619.3
-24423.2
-26235.3
-28041.8
-29822
-31548.9
-33188.4
-34732.1
-36155.6
-37436.4
-38560.5
-39521.4
-40317.8
-40952.8
-41432.8
-41768.5
-41982.5
-42053.6
-41997.6
-41823.8
-41538
-41144.6
-40647.7
-40052.1
-39363.8
-38589.9
-37737
-36810
-35807.6
-34752.9
-33650.3
-32496.1
-31283
-30018.4
-28700.9
-27337.9
-25929.1
-24485.5
-23008.9
-21512.4
-20005.8
-18500.1
-17011.3
-15549.6
-14127.8
-12757.9
-11448.3
-10208.6
-9043.03
-7955.55
-6945.99
-6011.85
-5148.09
-4346.08
-3594.79
-2880.58
-2189.27
-1509.44
-829.283
-134.888
603.932
1362.41
2151.94
2969.36
3808.98
4663.72
5524.18
6384.49
7231.21
8072.25
8884.27
9681.35
10458
11217.9
11964.7
12702
13433.4
14161.2
14886.3
15608.4
16325.7
17035.3
17734
18418.3
19085.2
19732
20356.2
20956.7
21532.4
22083.1
22608.2
23108.1
23583.2
24033.5
24459.3
24861.2
25239.4
25594.1
25925.3
26232.8
26516
26774.3
27006.5
27212
27390.3
27541.5
27666.6
27767.6
27847.2
27909
27957.2
27996.4
28032.5
28072.3
28122.5
28189.1
28278.1
28392.6
28532.3
28691.6
28859.6
29020.6
29155.7
29242.6
29258.7
29184.8
28970.8
28661.8
28210.3
27604.6
26839.4
25910.8
24819.1
23567.3
22161.9
20612.4
18929.7
17129
15230.9
13257.3
11232.4
9181.77
7132.16
5109.96
3140.24
1245.23
-562.182
-2253.49
-3824.28
-5266.15
-6574.58
-7749.73
-8793.78
-9707.48
-10498.2
-7742.2
-7070.46
-6344.18
-5544.25
-4654.53
-3668.28
-2595.25
-1464.36
-321.781
799.984
1926.47
3080.16
4272.27
5502.89
6764.31
8047.39
9347.67
10664.1
11996.7
13344.4
14704
16069.9
17435.4
18792.8
20134.1
21450.1
22731.5
23971.2
25166.2
26317.2
27427.6
28501.2
29540.2
30544.1
31508.7
32426.3
33287
34079.9
34794.6
35423.2
35966.6
36437.1
36848.5
37130
37269.7
37277.6
37156.1
36905.5
36526.5
36021.3
35394.1
34651.2
33800.7
32851.7
31815.8
30707.4
29531.3
28288.4
26988.5
25647.1
24282.3
22912.5
21553.6
20216.4
18906.8
17626.5
16373.5
15143.3
13930.3
12729.6
11537
10349.5
9163.99
7974.51
6769.24
5487.6
4026.34
2899
1791.52
677.914
-459.165
-1630.39
-2845.2
-4110.19
-5428.8
-6799.57
-8218.74
-9682.36
-11187.4
-12731.9
-14315.5
-15939
-17603.6
-19310.2
-21056.3
-22839.2
-24648.9
-26469.4
-28286.1
-30080.1
-31818.9
-33461.8
-35016.3
-36445.8
-37725
-38840.5
-39786.9
-40563.8
-41175.2
-41626.8
-41936.3
-42127.8
-42178.1
-42103.9
-41914.6
-41615.6
-41210.4
-40702.3
-40095.9
-39397.1
-38613.8
-37752.8
-36818.9
-35803.7
-34744.5
-33642.9
-32491.3
-31276.3
-30011.7
-28691.9
-27327.5
-25913.9
-24466.5
-22982.4
-21478.2
-19962.3
-18445.9
-16947.5
-15475.9
-14044.9
-12667.5
-11351.3
-10107.8
-8940.5
-7854.14
-6848.5
-5921.1
-5067.08
-4277.3
-3540.26
-2841.48
-2165.52
-1499.9
-832.329
-148.405
583.42
1337.92
2127.33
2947.36
3791.76
4652.54
5519.47
6385.8
7237.48
8081.52
8895.06
9692.08
10466.6
11223.4
11966.6
12700.4
13428.9
14155
14879.7
15602.5
16321.5
17033.7
17735.4
18422.8
19092.7
19742.1
20368.7
20971.1
21548.5
22100.5
22626.8
23127.6
23603.5
24054.5
24481.1
24883.6
25262.5
25618
25950.2
26258.7
26543
26802.2
27035.2
27240.9
27418.8
27568.8
27691.9
27789.9
27865.7
27922.9
27965.6
27998.9
28027.9
28062
28106.8
28169.5
28257.1
28373.9
28520.2
28690.9
28874.9
29055.3
29212
29321.4
29358.6
29297.3
29109.6
28809
28367.4
27766.7
27001.6
26068.5
24967.5
23702.4
22279.9
20709.9
19003.7
17177.1
15251
13248.6
11194.6
9115.86
7039.93
4994.24
3004.73
1095.06
-728.105
-2425.29
-3999.55
-5441.4
-6746.85
-7916.53
-8953.03
-9858.13
-10640.3
-7382.18
-6728.65
-6060.56
-5326.44
-4497.98
-3560.15
-2518.81
-1401.41
-260.414
861.753
1989.42
3147.84
4349.06
5592.06
6866.25
8158.96
9465.37
10785.4
12120.2
13469.6
14831.2
16199.6
17568.6
18931.3
20279.5
21603.3
22891.4
24135.3
25331.3
26480.2
27586.5
28655.1
29689.4
30689.6
31651.8
32568
33427.8
34219.7
34932.7
35558
36088.7
36550.3
36945.9
37225.1
37362.5
37364.8
37235.3
36974.8
36583.9
36064.6
35421.3
34660.8
33791.9
32825.4
31775.9
30653.2
29453.1
28179.1
26843.7
25465
24063.2
22659
21270.2
19908.4
18579.8
17286.1
16024.9
14790.7
13577.2
12378.3
11189.5
10007.2
8828.53
7647.98
6454.68
5193.03
3752.32
2637.57
1540.18
434.985
-694.817
-1859.52
-3070.08
-4334.61
-5654.93
-7027.42
-8447.67
-9911.11
-11414.3
-12955.4
-14533.8
-16151.1
-17809.7
-19511.9
-21255.8
-23039.5
-24855.8
-26687.8
-28517.5
-30331.7
-32085.3
-33735
-35310.8
-36751.5
-38031.3
-39139.7
-40072.3
-40829.2
-41416.2
-41836.8
-42121
-42286.1
-42313
-42222
-42018.4
-41707.3
-41291.2
-40772.6
-40155.5
-39445.8
-38653.1
-37783.7
-36842.7
-35810.1
-34747.3
-33649.2
-32502
-31283.5
-30019.7
-28696.6
-27331.4
-25911.5
-24460.6
-22967
-21453.7
-19926.9
-18397.2
-16887.7
-15403.7
-13961.4
-12574.5
-11249.7
-10001.1
-8830.7
-7744.68
-6742.62
-5822.08
-4978.52
-4202.19
-3481.06
-2799.71
-2141.31
-1492.07
-838.803
-166.674
556.685
1306.96
2096.54
2919.84
3770.06
4638.11
5512.83
6386.45
7243.95
8091.98
8907.64
9704.12
10476.2
11229.2
11968.1
12697.9
13423.2
14147.2
14871.4
15595.2
16316.3
17031.5
17736.6
18427.7
19101
19753.5
20382.7
20987.3
21566.5
22120
22647.7
23149.6
23626.4
24078.2
24505.5
24908.8
25288.5
25644.9
25978.1
26287.9
26573.5
26833.9
27067.7
27273.8
27451.3
27600
27720.8
27815.4
27887
27939.1
27976
28002.9
28024.2
28050.4
28090.3
28147.6
28233
28351.8
28505.3
28688.9
28891
29093.8
29275.7
29411.5
29474.3
29442.7
29272.7
28977.3
28547.2
27951.6
27186.4
26247.8
25136.3
23855.9
22413.8
20820.3
19087.5
17231.2
15273.4
13238
11150.9
9040.07
6934.14
4861.71
2849.56
920.31
-913.896
-2620.54
-4198.68
-5640.3
-6942.13
-8105.33
-9132.98
-10028
-10799.8
-7018.9
-6392.52
-5793.39
-5131.24
-4367.65
-3479.16
-2469.23
-1364.22
-224.802
898.653
2028.85
3192.86
4403.55
5659.48
6947.36
8249.83
9561.94
10885
12221.3
13572
14935.4
16306.4
17679.1
19048
20405
21739.2
23036.8
24287.5
25486.4
26634.8
27738.1
28802.7
29833.3
30831
31792.4
32709.3
33570.4
34363.8
35077.9
35702.5
36227.8
36678.3
37060.1
37333.6
37467.7
37466.3
37331
37062.8
36662.6
36131.9
35475.1
34699.3
33814.4
32833.1
31771.9
30630.3
29402.7
28094.5
26720.5
25301.4
23859.6
22418.1
20997.4
19609.3
18260.4
16952.6
15682.7
14444.6
13230.9
12034.5
10849.8
9673.33
8501.83
7330.56
6149.81
4909.03
3490.56
2389.15
1302.44
206.076
-916.241
-2074.05
-3281.11
-4545.93
-5867.6
-7241.77
-8663.42
-10127.3
-11629.2
-13167.2
-14740.3
-16351
-18002.6
-19699.9
-21441.2
-23223.7
-25046.7
-26893.4
-28737.8
-30577
-32344
-34010.1
-35621.2
-37076.6
-38358.4
-39461.3
-40380.8
-41115.8
-41676.3
-42067.5
-42323.3
-42455.2
-42463.7
-42353.7
-42135.4
-41813.2
-41387.1
-40858.3
-40230.1
-39508.5
-38706.3
-37829.5
-36885.7
-35827
-34759.3
-33668.3
-32529.4
-31304.1
-30042.4
-28714.7
-27350.1
-25921.6
-24468.2
-22962.4
-21439.4
-19899.6
-18353.8
-16831.8
-15332.7
-13877.1
-12478.9
-11143
-9888.05
-8713.19
-7626.65
-6627.83
-5714.23
-4881.92
-4120.34
-3416.95
-2755.19
-2116.74
-1486.28
-849.158
-189.921
522.63
1268.79
2058.92
2886.23
3743.45
4620.23
5504.19
6386.41
7251.14
8104.19
8921.94
9717.71
10486.9
11235.4
11969.3
12694.3
13415.8
14137.5
14861.2
15586
16309.7
17028.5
17737.7
18432.9
19110.2
19766.2
20398.4
21005.4
21586.6
22141.8
22670.9
23174
23651.8
24104.6
24532.6
24936.6
25317.2
25674.6
26009.1
26320.2
26607.3
26869.1
27104
27310.6
27487.8
27635.1
27753.3
27844.2
27911
27957.3
27987.9
28006.5
28019.7
28035.6
28068.1
28121.1
28203.4
28323.9
28485.3
28683.4
28906.2
29134.6
29345.1
29510.4
29601.1
29580.1
29450.7
29160.2
28745.5
28156.6
27391.5
26447.1
25324
24026.7
22562.9
20943.3
19180.5
17291.1
15297.6
13225.1
11100.8
8953.74
6814.01
4711.51
2673.97
723.269
-1123.59
-2840.26
-4422.43
-5863.44
-7160.85
-8316.42
-9333.87
-10217.4
-10976.8
-6640.43
-6053.03
-5536.68
-4952.93
-4257.83
-3418.19
-2437.59
-1342.55
-204.122
921.496
2055.25
3224.84
4444.11
5712.25
7014.2
8326.09
9643.1
10968.2
12305.2
13656.6
15021.5
16394.8
17771.2
19147.1
20514.5
21861.5
23171.6
24431.5
25635.3
26784.4
27885.4
28946.7
29974.2
30970.1
31931.8
32850.9
33715.3
34512.4
35230.3
35857.3
36383.4
36823.3
37190.5
37457.7
37586.4
37579.4
37438
37163.4
36755.9
36216.6
35549
34760.4
33861.9
32868.4
31794.4
30631.1
29373.7
28029
26613.8
25151.5
23666.8
22185.1
20730.1
19314
17943.7
16621
15342.6
14101.1
12888.1
11695.1
10515.6
9345.59
8181.88
7020.31
5852.75
4633.57
3239.36
2151.92
1076.28
-11.0618
-1126.11
-2276.7
-3480.35
-4744.67
-6067.48
-7443.79
-8867.6
-10332.9
-11834.4
-13370.1
-14937.8
-16541.7
-18185.4
-19877.1
-21616.2
-23394.7
-25223.8
-27090
-28948.6
-30815.3
-32588.3
-34301.1
-35964.4
-37431.1
-38713.7
-39811
-40713
-41419.5
-41948.6
-42309.5
-42535.2
-42615
-42603
-42484.5
-42259.3
-41931.8
-41499.8
-40963.1
-40325.1
-39591.2
-38778.8
-37893.1
-36937.8
-35832.8
-34779.7
-33703.2
-32574.4
-31336.1
-30080.3
-28745.5
-27384.1
-25943.3
-24490.2
-22968.2
-21435.5
-19880.7
-18315.1
-16780.1
-15262.7
-13791.7
-12380.2
-11030.8
-9768.23
-8587.39
-7499.37
-6503.43
-5596.82
-4776.54
-4031.18
-3347.5
-2707.68
-2091.73
-1482.72
-863.715
-217.671
479.785
1222.9
2014
2846.13
3711.71
4598.78
5493.51
6386.53
7259.73
8118.14
8938.31
9733.2
10498.8
11242.3
11970.3
12689.6
13406.7
14125.8
14848.8
15575
16301.7
17024.6
17738.4
18438.5
19120.3
19780.3
20415.7
21025.3
21608.7
22165.8
22696.4
23200.9
23679.8
24133.5
24562.4
24967.3
25348.7
25707.3
26043.2
26355.9
26644.7
26908.1
27144.3
27351.6
27528.6
27674.4
27789.7
27876.5
27937.9
27977.7
28002
28011
28015.3
28021.2
28040.9
28091.5
28169.5
28291.1
28460.7
28674.8
28920.9
29178.1
29421.4
29620.7
29745.5
29774.6
29660.8
29365.7
28969.3
28387.8
27622.4
26671.2
25534.8
24218.4
22730
21081
19284.7
17358
15324.3
13210.1
11044
8856.37
6678.77
4542.68
2476.99
503.127
-1358.34
-3085.6
-4671.63
-6111.51
-7403.61
-8550.27
-9556.02
-10426.3
-11171.5
-6234.24
-5702.33
-5286.55
-4787.51
-4164.63
-3371.65
-2416.07
-1327.8
-189.482
939.376
2077.37
3251.83
4477.61
5755.84
7071.61
8392.26
9713.08
11039.2
12375.8
13726.9
15093
16468.2
17847.9
19231.4
20610.8
21973.3
23298.6
24570.3
25780.9
26931.7
28031.2
29089.3
30113.8
31108.2
32071.1
32993.6
33862.4
34665.1
35389.3
36022.9
36565.7
36985.9
37337
37598.6
37721.5
37707.2
37557.5
37274.4
36858.8
36312.3
35637
34838.5
33928.5
32924.3
31836.3
30650
29361.8
27979.1
26520
25011.9
23481.1
21955.9
20464.5
19018.6
17625.3
16287.4
15000.5
13756.5
12545.6
11357.5
10184.6
9022.33
7867.19
6715.7
5561.97
4364.95
2997.43
1924.44
860.063
-218.19
-1326.61
-2469.13
-3668.12
-4931.69
-6255.57
-7634.77
-9061.57
-10529.8
-12031.8
-13566.4
-15128.8
-16725.1
-18360.6
-20045.1
-21784.4
-23554.2
-25387.4
-27281.7
-29151.7
-31042.7
-32815.3
-34603.8
-36297.9
-37783.6
-39081.8
-40192.9
-41090.2
-41768
-42261.7
-42579.8
-42761.1
-42830
-42747.9
-42561.6
-42282.2
-41910.8
-41448.3
-40899.4
-40274.8
-39585.4
-38843.2
-37956.9
-37032.9
-35913
-34830.1
-33744.7
-32639
-31380.2
-30134.1
-28787.8
-27434.8
-25975.5
-24527.9
-22983.7
-21442.8
-19870.2
-18280.5
-16733.2
-15193.1
-13705.2
-12278.4
-10912.3
-9641.18
-8452.74
-7362.1
-6368.68
-5469.1
-4661.75
-3934.12
-3272.28
-2656.99
-2066.39
-1481.78
-883.142
-252.717
429.501
1168.7
1961.14
2798.98
3674.4
4573.44
5481.52
6387
7269.63
8134.21
8957.14
9750.97
10512.4
11249.8
11970.9
12683.7
13395.6
14111.7
14834
15561.8
16292
17019.6
17738.9
18444.4
19131.4
19795.7
20434.7
21047.3
21633
22192
22724.4
23230.3
23710.3
24165
24594.9
25000.6
25383
25742.7
26080.1
26394.6
26685.4
26950.7
27188.5
27396.7
27573.5
27717.9
27830.2
27912.4
27967.9
28001.6
28017.2
28017.1
28010.9
28004.7
28011.4
28053.4
28129.4
28250.9
28429.3
28661.1
28933.5
29223
29502.9
29740.1
29901.3
29957.6
29879.8
29598.6
29214.2
28641
27875
26916.1
25764.8
24426.9
22911.1
21229.6
19396.4
17428.7
15350.9
13190.9
10978.8
8746.42
6527.02
4353.92
2257.36
258.759
-1619.13
-3357.81
-4947.14
-6385.28
-7671.05
-8807.4
-9799.84
-10655.2
-11384.1
-5784.49
-5332.02
-5039.99
-4631.35
-4085.09
-3334.51
-2397.14
-1314.67
-176.674
956.057
2099.34
3279.83
4510.12
5794.79
7123.41
8451.96
9775.32
11101
12436
13785.7
15152.8
16529.6
17911.9
19303.6
20696.3
22076.7
23420.4
24706.6
25925.8
27079.4
28177.6
29232.7
30253.9
31246.7
32211.2
33137.5
34011.5
34821
35553.9
36197.8
36749.8
37164.8
37498.9
37756.9
37874.8
37852.4
37693
37399.5
36973.6
36417.3
35733.7
34927.5
34008.1
32993.9
31892.7
30683.7
29364.1
27942.1
26436.9
24880.3
23300.3
21727.7
20197.7
18720.1
17302.2
15948.4
14653.4
13407.7
12201
11020.1
9855.44
8702.69
7557.09
6415.93
5276.68
4102.05
2764.19
1706
652.805
-416.318
-1519.29
-2651.78
-3844.43
-5107.31
-6431.8
-7814.82
-9245.46
-10718.6
-12222.4
-13757.4
-15314.8
-16902.4
-18529.8
-20203.3
-21948.5
-23702
-25535.1
-27472.7
-29357.2
-31265.4
-32990.1
-34518.2
-29432.5
-23015.6
-17566.3
-13172.4
-9758.67
-7236.09
-5530.73
-4500.82
-4054.28
-4071.97
-4569.98
-5479.83
-6810.69
-8592.75
-10844.4
-13574.6
-16774.8
-20410.8
-24459.4
-28906.6
-33375.7
-34963
-34517
-33810.3
-32751.4
-31415.4
-30203.5
-28840.7
-27502.8
-26016.4
-24584.2
-23007.3
-21463.1
-19868.5
-18249
-16692.3
-15123.3
-13617.9
-12173.2
-10786.9
-9506.52
-8308.81
-7213.98
-6222.75
-5330.18
-4536.43
-3828.11
-3190.4
-2602.5
-2040.42
-1483.55
-907.905
-295.67
371.083
1105.33
1899.58
2744.07
3630.93
4544.53
5468.13
6387.79
7281.21
8152.84
8978.94
9771.52
10528
11258.2
11971.4
12676.5
13382.4
14095
14816.7
15546.3
16280.5
17013.6
17739
18450.7
19143.4
19812.6
20455.6
21071.2
21659.5
22220.6
22754.8
23262.2
23743.5
24199.3
24630
25036.5
25419.9
25780.9
26120
26436.6
26729.6
26997.1
27236.9
27446.4
27623.2
27766
27874.9
27952.1
28000.8
28028.9
28033.1
28022.7
28003.6
27985.7
27979.9
28006.7
28083.4
28203.7
28390.8
28641.9
28943.3
29269.8
29590.8
29870.6
30072.7
30165.5
30113.1
29864
29482.5
28917.7
28150.5
27182.5
26014.5
24653.2
23108.1
21391.4
19518.1
17506.3
15380.6
13170.6
10907.8
8625.41
6359.01
4144.46
2013.78
-11.3565
-1907.32
-3658.69
-5250.17
-6685.8
-7963.99
-9088.42
-10065.7
-10904.1
-11614.8
-5435.02
-5061.21
-4873.81
-4529.41
-4038.96
-3312.53
-2385
-1310.79
-173.363
962.256
2110.23
3297.18
4533.75
5820.8
7156.61
8489.78
9813.81
11138.2
12471.1
13819.1
15187.1
16565.2
17948.8
19346.6
20749.2
22143.5
23501.5
24799.2
26025.1
27180.6
28277.6
29330.3
30349
31341.1
32307.1
33236.6
34115
34930.5
35671.1
36322.9
36872.7
37299.1
37616.8
37875.8
37991.3
37962.9
37796.1
37494.8
37060.9
36496.8
35806
34993