/*--------------------------------*- C++ -*----------------------------------*\
| =========                 |                                                 |
| \\      /  F ield         | OpenFOAM: The Open Source CFD Toolbox           |
|  \\    /   O peration     | Version:  v1912                                 |
|   \\  /    A nd           | Website:  www.openfoam.com                      |
|    \\/     M anipulation  |                                                 |
\*---------------------------------------------------------------------------*/
FoamFile
{
    version     2.0;
    format      ascii;
    class       volScalarField;
    location    "60";
    object      nut;
}
// * * * * * * * * * * * * * * * * * * * * * * * * * * * * * * * * * * * * * //

dimensions      [0 2 -1 0 0 0 0];


internalField   nonuniform List<scalar> 
14268
(
5.2487e-10
4.99092e-10
4.71639e-10
4.43961e-10
4.19494e-10
3.93146e-10
3.81416e-10
3.73617e-10
3.06034e-08
2.90206e-08
2.73631e-08
2.5707e-08
2.42411e-08
2.27821e-08
2.14918e-08
2.23155e-08
1.68253e-07
1.63519e-07
1.58369e-07
1.53003e-07
1.48023e-07
1.42691e-07
1.3855e-07
1.40757e-07
2.80245e-07
2.77409e-07
2.74217e-07
2.70734e-07
2.67203e-07
2.63493e-07
2.59181e-07
2.64539e-07
3.13684e-07
3.12548e-07
3.11358e-07
3.10052e-07
3.08709e-07
3.06767e-07
3.07175e-07
3.05348e-07
3.21463e-07
3.20941e-07
3.20457e-07
3.19997e-07
3.19385e-07
3.19003e-07
3.1772e-07
3.21813e-07
3.22754e-07
3.22371e-07
3.22065e-07
3.21811e-07
3.21672e-07
3.21057e-07
3.2232e-07
3.19683e-07
3.23126e-07
3.22831e-07
3.22581e-07
3.22429e-07
3.2216e-07
3.22226e-07
3.21352e-07
3.23904e-07
3.22925e-07
3.22579e-07
3.22324e-07
3.22144e-07
3.22095e-07
3.21789e-07
3.22417e-07
3.20606e-07
3.2363e-07
3.23401e-07
3.23158e-07
3.23058e-07
3.2268e-07
3.22637e-07
3.22634e-07
3.23972e-07
3.23679e-07
3.23641e-07
3.2369e-07
3.23712e-07
3.23968e-07
3.23516e-07
3.25193e-07
3.35514e-07
3.2335e-07
3.23348e-07
3.23438e-07
3.2376e-07
3.23966e-07
3.24057e-07
3.2555e-07
3.37959e-07
3.23066e-07
3.22498e-07
3.2184e-07
3.21229e-07
3.20798e-07
3.20467e-07
3.20586e-07
3.24258e-07
3.22933e-07
3.22381e-07
3.21793e-07
3.21187e-07
3.20684e-07
3.20812e-07
3.20558e-07
3.20982e-07
3.22998e-07
3.22715e-07
3.22461e-07
3.22178e-07
3.22e-07
3.21642e-07
3.22259e-07
3.24443e-07
3.2311e-07
3.22637e-07
3.22273e-07
3.22083e-07
3.21946e-07
3.22039e-07
3.22912e-07
3.25387e-07
3.23512e-07
3.2348e-07
3.2333e-07
3.2278e-07
3.22261e-07
3.21959e-07
3.22124e-07
3.22382e-07
3.23584e-07
3.23181e-07
3.22733e-07
3.22529e-07
3.22433e-07
3.22334e-07
3.21759e-07
3.21527e-07
3.22818e-07
3.22306e-07
3.22086e-07
3.22208e-07
3.22388e-07
3.22965e-07
3.23344e-07
3.22339e-07
3.23954e-07
3.23756e-07
3.23581e-07
3.23146e-07
3.22671e-07
3.22232e-07
3.22239e-07
3.22714e-07
3.23235e-07
3.22674e-07
3.22317e-07
3.2239e-07
3.22473e-07
3.22657e-07
3.22685e-07
3.22315e-07
3.23077e-07
3.2278e-07
3.22528e-07
3.22341e-07
3.2212e-07
3.22276e-07
3.21932e-07
3.22621e-07
3.23798e-07
3.23482e-07
3.23207e-07
3.23035e-07
3.22688e-07
3.22773e-07
3.22119e-07
3.23215e-07
3.22986e-07
3.22627e-07
3.22448e-07
3.22386e-07
3.22321e-07
3.22646e-07
3.22347e-07
3.23378e-07
3.23791e-07
3.23494e-07
3.23242e-07
3.2299e-07
3.2265e-07
3.22757e-07
3.22224e-07
3.23444e-07
3.23249e-07
3.22856e-07
3.22681e-07
3.22577e-07
3.22442e-07
3.22621e-07
3.22484e-07
3.23431e-07
3.23791e-07
3.23488e-07
3.23306e-07
3.23095e-07
3.2282e-07
3.22898e-07
3.22737e-07
3.23635e-07
3.23219e-07
3.22793e-07
3.22606e-07
3.22465e-07
3.22331e-07
3.2248e-07
3.22517e-07
3.23325e-07
3.25694e-07
3.24825e-07
3.24212e-07
3.23604e-07
3.23049e-07
3.22888e-07
3.22822e-07
3.2339e-07
3.32541e-07
3.29409e-07
3.27355e-07
3.26007e-07
3.25181e-07
3.24766e-07
3.24657e-07
3.24894e-07
3.64713e-07
3.54605e-07
3.46051e-07
3.39476e-07
3.35076e-07
3.32319e-07
3.30539e-07
3.29336e-07
4.67203e-07
4.47033e-07
4.26648e-07
4.06931e-07
3.9056e-07
3.78093e-07
3.68947e-07
3.62152e-07
6.37919e-07
6.21941e-07
5.97912e-07
5.64266e-07
5.30244e-07
5.03244e-07
4.86908e-07
4.75865e-07
7.98413e-07
7.8819e-07
7.72253e-07
7.32284e-07
6.86851e-07
6.59583e-07
6.62763e-07
6.75219e-07
7.12893e-07
6.56971e-07
6.2346e-07
6.03016e-07
6.10377e-07
6.74478e-07
8.68517e-07
1.00891e-06
3.63705e-07
2.53632e-07
2.07822e-07
1.94992e-07
2.07759e-07
2.61414e-07
5.98473e-07
1.38999e-06
7.43062e-06
4.01373e-06
2.18805e-06
1.20663e-06
6.16649e-07
2.07389e-07
1.16336e-07
6.66338e-07
0.00302152
0.00265055
0.00220782
0.0016501
0.000987975
0.00041123
0.000140625
4.5038e-05
0.0255076
0.026105
0.0268916
0.0275213
0.0271165
0.0251566
0.0219589
0.0179094
0.0442468
0.0446211
0.044962
0.0450033
0.0437911
0.0408179
0.0362624
0.0303388
0.0640387
0.0655958
0.0667513
0.0672661
0.0663016
0.063572
0.0588562
0.0525664
0.0716082
0.0736674
0.0751742
0.0758848
0.0751092
0.0730481
0.0694077
0.0644284
0.0744901
0.0766498
0.0782516
0.0793398
0.0796203
0.0790907
0.0773536
0.0741723
0.0710405
0.0734914
0.0756013
0.0775565
0.0788507
0.0796488
0.0793554
0.0784057
0.0616843
0.0644177
0.0668689
0.0695645
0.0718542
0.0743781
0.0759618
0.0770501
0.0466367
0.0497787
0.0526971
0.0563364
0.0595485
0.063248
0.0658601
0.0682607
0.0272814
0.0303557
0.0333296
0.0375255
0.041288
0.0459715
0.0494391
0.0529138
0.010104
0.0120031
0.0139982
0.0171608
0.0200879
0.0242199
0.0273948
0.0309961
0.00184651
0.00237363
0.00299957
0.00408932
0.00518924
0.00692967
0.00822113
0.00996721
0.000138597
0.00019064
0.000257069
0.000383664
0.000521333
0.000749782
0.000892776
0.00113154
7.20044e-06
9.69294e-06
1.2827e-05
1.91907e-05
2.60646e-05
3.75631e-05
4.44032e-05
5.74437e-05
7.865e-07
9.54414e-07
1.158e-06
1.58056e-06
2.02265e-06
2.76957e-06
3.21877e-06
4.06856e-06
3.43602e-07
3.54527e-07
3.67831e-07
3.96346e-07
4.25777e-07
4.76271e-07
5.03788e-07
5.56413e-07
3.16592e-07
3.17241e-07
3.1814e-07
3.20276e-07
3.22375e-07
3.26115e-07
3.27988e-07
3.31173e-07
3.16294e-07
3.16325e-07
3.1661e-07
3.17195e-07
3.17806e-07
3.18774e-07
3.19176e-07
3.19683e-07
3.17587e-07
3.17705e-07
3.17906e-07
3.18486e-07
3.19094e-07
3.19977e-07
3.20441e-07
3.20984e-07
3.18579e-07
3.18702e-07
3.18912e-07
3.19378e-07
3.19929e-07
3.20705e-07
3.2107e-07
3.21556e-07
3.19614e-07
3.19875e-07
3.20121e-07
3.20735e-07
3.21343e-07
3.22125e-07
3.2253e-07
3.22954e-07
3.20177e-07
3.20455e-07
3.20687e-07
3.21272e-07
3.21831e-07
3.22538e-07
3.22894e-07
3.23443e-07
3.21055e-07
3.21359e-07
3.21593e-07
3.22202e-07
3.228e-07
3.23425e-07
3.23701e-07
3.24053e-07
3.21661e-07
3.21927e-07
3.22068e-07
3.22611e-07
3.23123e-07
3.23776e-07
3.24154e-07
3.24536e-07
3.22319e-07
3.22609e-07
3.22727e-07
3.23215e-07
3.23622e-07
3.24197e-07
3.24545e-07
3.24867e-07
3.22843e-07
3.23119e-07
3.23209e-07
3.23663e-07
3.24026e-07
3.24575e-07
3.24924e-07
3.25298e-07
3.23317e-07
3.23574e-07
3.23644e-07
3.24047e-07
3.24357e-07
3.24855e-07
3.25177e-07
3.25535e-07
3.23795e-07
3.24014e-07
3.24077e-07
3.24474e-07
3.2474e-07
3.25183e-07
3.25466e-07
3.25829e-07
3.24202e-07
3.24382e-07
3.24419e-07
3.24792e-07
3.25001e-07
3.25412e-07
3.25717e-07
3.2606e-07
3.24577e-07
3.24724e-07
3.24759e-07
3.25096e-07
3.25251e-07
3.25603e-07
3.25902e-07
3.26214e-07
3.24944e-07
3.25038e-07
3.25097e-07
3.2539e-07
3.25533e-07
3.25863e-07
3.26116e-07
3.26414e-07
3.25241e-07
3.25312e-07
3.25372e-07
3.25626e-07
3.25737e-07
3.2606e-07
3.26234e-07
3.2653e-07
3.25498e-07
3.25579e-07
3.2566e-07
3.25848e-07
3.25964e-07
3.26277e-07
3.26424e-07
3.26652e-07
3.25718e-07
3.25777e-07
3.25872e-07
3.26016e-07
3.26136e-07
3.26428e-07
3.26531e-07
3.26694e-07
3.25925e-07
3.2599e-07
3.26063e-07
3.26215e-07
3.2637e-07
3.26558e-07
3.26649e-07
3.26765e-07
3.26105e-07
3.26146e-07
3.26226e-07
3.26339e-07
3.26505e-07
3.26638e-07
3.26694e-07
3.26804e-07
3.26295e-07
3.26321e-07
3.26384e-07
3.26484e-07
3.26594e-07
3.26721e-07
3.26788e-07
3.26851e-07
3.26428e-07
3.26435e-07
3.26482e-07
3.26538e-07
3.26624e-07
3.26709e-07
3.26797e-07
3.26772e-07
3.26604e-07
3.26614e-07
3.26641e-07
3.26672e-07
3.26705e-07
3.26743e-07
3.26782e-07
3.26755e-07
3.26721e-07
3.26736e-07
3.26756e-07
3.26784e-07
3.268e-07
3.26819e-07
3.26821e-07
3.26811e-07
3.26862e-07
3.26883e-07
3.26908e-07
3.26936e-07
3.2695e-07
3.26969e-07
3.26966e-07
3.26963e-07
3.26759e-07
3.26805e-07
3.26818e-07
3.26872e-07
3.26886e-07
3.2694e-07
3.2694e-07
3.26979e-07
3.26958e-07
3.27e-07
3.26998e-07
3.27044e-07
3.27028e-07
3.27082e-07
3.27047e-07
3.27099e-07
3.26811e-07
3.26878e-07
3.26878e-07
3.26948e-07
3.26937e-07
3.27015e-07
3.26985e-07
3.27058e-07
3.2701e-07
3.2705e-07
3.27028e-07
3.2708e-07
3.27047e-07
3.27111e-07
3.27064e-07
3.27129e-07
3.27136e-07
3.27161e-07
3.27129e-07
3.27164e-07
3.27123e-07
3.27169e-07
3.27118e-07
3.27172e-07
3.29508e-07
3.29256e-07
3.28994e-07
3.28788e-07
3.2856e-07
3.28403e-07
3.28213e-07
3.28111e-07
3.44655e-07
3.43137e-07
3.41748e-07
3.40338e-07
3.39062e-07
3.37802e-07
3.36699e-07
3.35677e-07
4.12174e-07
4.0832e-07
4.04536e-07
4.0033e-07
3.96281e-07
3.91856e-07
3.87729e-07
3.83507e-07
5.28264e-07
5.26853e-07
5.25246e-07
5.23322e-07
5.21191e-07
5.18653e-07
5.15902e-07
5.12712e-07
2.99298e-10
2.711e-10
2.57951e-10
2.5849e-10
2.66201e-10
2.77378e-10
2.81981e-10
2.81749e-10
2.79915e-10
2.78149e-10
2.78109e-10
2.81107e-10
2.86111e-10
2.90683e-10
2.94773e-10
2.98884e-10
3.034e-10
3.08842e-10
3.15284e-10
3.22216e-10
3.29077e-10
3.35678e-10
3.42094e-10
3.48502e-10
3.5487e-10
3.60567e-10
3.64767e-10
3.6721e-10
3.67579e-10
3.65982e-10
3.64773e-10
3.64349e-10
3.63434e-10
3.62629e-10
3.62633e-10
3.63518e-10
3.648e-10
3.66299e-10
3.673e-10
3.67525e-10
3.67128e-10
3.66124e-10
3.64477e-10
3.61441e-10
3.58677e-10
3.57463e-10
3.55263e-10
3.52164e-10
3.49346e-10
3.46735e-10
3.44262e-10
3.42038e-10
3.40044e-10
3.38277e-10
3.36717e-10
3.35301e-10
3.34019e-10
3.33303e-10
3.33578e-10
3.35774e-10
3.38451e-10
3.40855e-10
3.42576e-10
3.43088e-10
3.4239e-10
3.40039e-10
3.3626e-10
3.31271e-10
3.25128e-10
3.17946e-10
3.10082e-10
3.0212e-10
2.94113e-10
2.8631e-10
2.78934e-10
2.71821e-10
2.68883e-10
2.67831e-10
2.67823e-10
2.68719e-10
2.69951e-10
2.71334e-10
2.72769e-10
2.7421e-10
2.75461e-10
2.76481e-10
2.77323e-10
2.78079e-10
2.78812e-10
2.79569e-10
2.80383e-10
2.81391e-10
2.83344e-10
2.86299e-10
2.90026e-10
2.94108e-10
2.98043e-10
3.01268e-10
3.03527e-10
3.05558e-10
3.07191e-10
3.08221e-10
3.08563e-10
3.0824e-10
3.074e-10
3.06146e-10
3.04522e-10
3.02713e-10
3.00924e-10
2.99211e-10
2.97617e-10
2.96152e-10
2.94771e-10
2.94473e-10
2.95941e-10
2.9863e-10
3.01848e-10
3.04971e-10
3.07466e-10
3.08804e-10
3.08908e-10
3.08739e-10
3.08557e-10
3.07726e-10
3.06435e-10
3.05087e-10
3.03962e-10
3.02519e-10
3.00465e-10
2.98819e-10
2.99867e-10
3.03938e-10
3.09323e-10
3.1491e-10
3.19e-10
3.20591e-10
3.19576e-10
3.16804e-10
3.11711e-10
3.06093e-10
3.02745e-10
2.99872e-10
2.97368e-10
2.94779e-10
2.92436e-10
2.921e-10
2.93043e-10
2.9385e-10
2.94541e-10
2.95154e-10
2.9618e-10
2.96491e-10
2.94529e-10
2.91486e-10
2.87909e-10
2.84178e-10
1.75975e-08
1.52646e-08
1.44087e-08
1.45121e-08
1.52358e-08
1.61608e-08
1.66246e-08
1.67268e-08
1.66665e-08
1.66012e-08
1.65835e-08
1.66488e-08
1.68246e-08
1.71177e-08
1.75388e-08
1.80957e-08
1.88121e-08
1.97105e-08
2.07745e-08
2.19535e-08
2.32084e-08
2.45315e-08
2.59329e-08
2.74318e-08
2.90387e-08
3.07122e-08
3.23621e-08
3.39193e-08
3.53317e-08
3.65679e-08
3.76789e-08
3.87088e-08
3.94743e-08
3.99775e-08
4.02858e-08
4.03874e-08
4.02933e-08
4.00777e-08
3.98209e-08
3.95652e-08
3.93232e-08
3.90925e-08
3.88585e-08
3.85641e-08
3.81827e-08
3.77743e-08
3.72393e-08
3.6681e-08
3.61629e-08
3.56841e-08
3.52487e-08
3.48723e-08
3.45549e-08
3.42904e-08
3.40722e-08
3.38862e-08
3.37181e-08
3.35644e-08
3.34053e-08
3.32824e-08
3.31901e-08
3.31258e-08
3.30836e-08
3.30307e-08
3.29773e-08
3.28803e-08
3.27573e-08
3.26257e-08
3.24872e-08
3.23495e-08
3.22286e-08
3.21503e-08
3.20976e-08
3.2065e-08
3.20463e-08
3.19988e-08
3.18985e-08
3.17681e-08
3.16217e-08
3.14771e-08
3.1349e-08
3.12221e-08
3.10838e-08
3.09547e-08
3.08464e-08
3.07725e-08
3.07393e-08
3.07568e-08
3.08356e-08
3.09809e-08
3.11997e-08
3.14921e-08
3.18369e-08
3.22318e-08
3.26695e-08
3.31297e-08
3.35829e-08
3.39931e-08
3.43261e-08
3.45206e-08
3.45395e-08
3.43724e-08
3.40271e-08
3.35419e-08
3.29706e-08
3.23699e-08
3.17847e-08
3.12659e-08
3.08577e-08
3.05765e-08
3.04326e-08
3.04218e-08
3.05316e-08
3.07221e-08
3.09678e-08
3.12568e-08
3.15631e-08
3.18667e-08
3.21514e-08
3.2394e-08
3.25717e-08
3.26294e-08
3.25776e-08
3.23559e-08
3.20189e-08
3.1668e-08
3.13991e-08
3.12015e-08
3.1076e-08
3.11162e-08
3.12981e-08
3.16216e-08
3.19689e-08
3.23323e-08
3.26326e-08
3.28458e-08
3.29891e-08
3.29792e-08
3.25875e-08
3.2041e-08
3.17263e-08
3.14943e-08
3.13918e-08
3.13848e-08
3.13689e-08
3.15426e-08
3.17721e-08
3.18777e-08
3.19546e-08
3.20875e-08
3.23851e-08
3.26832e-08
3.2611e-08
3.23056e-08
3.18484e-08
3.1375e-08
1.18829e-07
1.09181e-07
1.05622e-07
1.06948e-07
1.11733e-07
1.17438e-07
1.20027e-07
1.20874e-07
1.20972e-07
1.20882e-07
1.20995e-07
1.21479e-07
1.22564e-07
1.24414e-07
1.27003e-07
1.30309e-07
1.34393e-07
1.3927e-07
1.44742e-07
1.50466e-07
1.56219e-07
1.61932e-07
1.67592e-07
1.73242e-07
1.78897e-07
1.84425e-07
1.89532e-07
1.94051e-07
1.97907e-07
2.01071e-07
2.03644e-07
2.05805e-07
2.07231e-07
2.08057e-07
2.08474e-07
2.08491e-07
2.08111e-07
2.07503e-07
2.06835e-07
2.062e-07
2.05622e-07
2.05096e-07
2.04588e-07
2.04001e-07
2.03092e-07
2.02091e-07
2.00754e-07
1.99349e-07
1.98011e-07
1.96752e-07
1.95597e-07
1.94597e-07
1.9376e-07
1.93071e-07
1.92508e-07
1.92035e-07
1.9161e-07
1.91206e-07
1.9073e-07
1.90286e-07
1.89915e-07
1.89631e-07
1.89418e-07
1.89235e-07
1.89097e-07
1.88894e-07
1.88662e-07
1.88443e-07
1.88262e-07
1.88121e-07
1.88065e-07
1.88155e-07
1.88334e-07
1.88562e-07
1.88813e-07
1.88969e-07
1.8888e-07
1.88637e-07
1.88328e-07
1.87996e-07
1.8768e-07
1.87345e-07
1.8695e-07
1.86559e-07
1.86224e-07
1.85991e-07
1.85876e-07
1.85899e-07
1.86089e-07
1.86462e-07
1.87024e-07
1.87759e-07
1.88592e-07
1.8952e-07
1.90535e-07
1.91595e-07
1.92636e-07
1.93577e-07
1.94345e-07
1.94787e-07
1.94811e-07
1.94384e-07
1.93515e-07
1.92277e-07
1.90781e-07
1.89158e-07
1.87513e-07
1.86007e-07
1.84786e-07
1.83915e-07
1.83426e-07
1.83311e-07
1.83529e-07
1.83942e-07
1.84477e-07
1.85116e-07
1.85807e-07
1.86503e-07
1.87175e-07
1.87769e-07
1.88232e-07
1.88407e-07
1.88326e-07
1.87808e-07
1.86993e-07
1.8612e-07
1.85409e-07
1.84866e-07
1.84512e-07
1.84625e-07
1.8504e-07
1.85751e-07
1.86492e-07
1.87302e-07
1.8797e-07
1.88459e-07
1.88822e-07
1.88816e-07
1.87763e-07
1.86253e-07
1.85366e-07
1.84703e-07
1.84388e-07
1.84308e-07
1.84212e-07
1.84675e-07
1.85221e-07
1.85328e-07
1.85383e-07
1.85713e-07
1.86661e-07
1.87666e-07
1.8758e-07
1.86751e-07
1.85419e-07
1.83991e-07
2.49939e-07
2.4116e-07
2.36367e-07
2.37239e-07
2.41414e-07
2.46752e-07
2.49887e-07
2.51009e-07
2.51312e-07
2.51399e-07
2.51533e-07
2.51908e-07
2.52786e-07
2.54313e-07
2.56418e-07
2.59023e-07
2.62113e-07
2.65623e-07
2.69339e-07
2.73004e-07
2.76503e-07
2.798e-07
2.82912e-07
2.85869e-07
2.88729e-07
2.91422e-07
2.93834e-07
2.95915e-07
2.97669e-07
2.99086e-07
3.00213e-07
3.01167e-07
3.01794e-07
3.02176e-07
3.02371e-07
3.02389e-07
3.02232e-07
3.01976e-07
3.01702e-07
3.0145e-07
3.01225e-07
3.01021e-07
3.00828e-07
3.00616e-07
3.0023e-07
2.99833e-07
2.99264e-07
2.98671e-07
2.98098e-07
2.97558e-07
2.97062e-07
2.96633e-07
2.96275e-07
2.95978e-07
2.95729e-07
2.95518e-07
2.95323e-07
2.9515e-07
2.9493e-07
2.94689e-07
2.94482e-07
2.94363e-07
2.94253e-07
2.94146e-07
2.94076e-07
2.93959e-07
2.93843e-07
2.93765e-07
2.93707e-07
2.93682e-07
2.93704e-07
2.93802e-07
2.93943e-07
2.94105e-07
2.94286e-07
2.94398e-07
2.94379e-07
2.94268e-07
2.94116e-07
2.93947e-07
2.93788e-07
2.9362e-07
2.93417e-07
2.93214e-07
2.93039e-07
2.9292e-07
2.9286e-07
2.92869e-07
2.92956e-07
2.93123e-07
2.93377e-07
2.93705e-07
2.94069e-07
2.94467e-07
2.94898e-07
2.95344e-07
2.95781e-07
2.96173e-07
2.96486e-07
2.96651e-07
2.96627e-07
2.96404e-07
2.95975e-07
2.95376e-07
2.94661e-07
2.93884e-07
2.93106e-07
2.92382e-07
2.9179e-07
2.91368e-07
2.91134e-07
2.91073e-07
2.9117e-07
2.91352e-07
2.9158e-07
2.91855e-07
2.9216e-07
2.92469e-07
2.92771e-07
2.93045e-07
2.93266e-07
2.93347e-07
2.93316e-07
2.93077e-07
2.92703e-07
2.92303e-07
2.91943e-07
2.91674e-07
2.91511e-07
2.91602e-07
2.91792e-07
2.92098e-07
2.92433e-07
2.92809e-07
2.93085e-07
2.93287e-07
2.93459e-07
2.93466e-07
2.92971e-07
2.92242e-07
2.91806e-07
2.9149e-07
2.91347e-07
2.91314e-07
2.91277e-07
2.915e-07
2.91729e-07
2.9172e-07
2.91708e-07
2.91892e-07
2.92383e-07
2.92887e-07
2.92832e-07
2.92402e-07
2.91705e-07
2.90951e-07
2.92678e-07
2.92701e-07
2.93429e-07
2.96291e-07
3.00466e-07
3.038e-07
3.05376e-07
3.0605e-07
3.06341e-07
3.06474e-07
3.06567e-07
3.06693e-07
3.06966e-07
3.0749e-07
3.08241e-07
3.09172e-07
3.10249e-07
3.11426e-07
3.12624e-07
3.13771e-07
3.14847e-07
3.1585e-07
3.1679e-07
3.17667e-07
3.18481e-07
3.1924e-07
3.19948e-07
3.2058e-07
3.21121e-07
3.21577e-07
3.21931e-07
3.22258e-07
3.22473e-07
3.22613e-07
3.22691e-07
3.22707e-07
3.22665e-07
3.22591e-07
3.22514e-07
3.22445e-07
3.22385e-07
3.2233e-07
3.22286e-07
3.22247e-07
3.22124e-07
3.22032e-07
3.21868e-07
3.21703e-07
3.21535e-07
3.21379e-07
3.21237e-07
3.21119e-07
3.21028e-07
3.20954e-07
3.20893e-07
3.20842e-07
3.20788e-07
3.20754e-07
3.20693e-07
3.20607e-07
3.20536e-07
3.20511e-07
3.20502e-07
3.20468e-07
3.20444e-07
3.20425e-07
3.20408e-07
3.20396e-07
3.20383e-07
3.20389e-07
3.20415e-07
3.20471e-07
3.2054e-07
3.20619e-07
3.20718e-07
3.20773e-07
3.20795e-07
3.20774e-07
3.20735e-07
3.20685e-07
3.20638e-07
3.20588e-07
3.20525e-07
3.20462e-07
3.20403e-07
3.20363e-07
3.20342e-07
3.20337e-07
3.2035e-07
3.20387e-07
3.20448e-07
3.20528e-07
3.20615e-07
3.20712e-07
3.20818e-07
3.20929e-07
3.21036e-07
3.21133e-07
3.21216e-07
3.21254e-07
3.21237e-07
3.2116e-07
3.21022e-07
3.20847e-07
3.20647e-07
3.20435e-07
3.20225e-07
3.20026e-07
3.19866e-07
3.19753e-07
3.19695e-07
3.19679e-07
3.19707e-07
3.19755e-07
3.19808e-07
3.19872e-07
3.19946e-07
3.20019e-07
3.20097e-07
3.20172e-07
3.20236e-07
3.2025e-07
3.2024e-07
3.20166e-07
3.20041e-07
3.19927e-07
3.19795e-07
3.19715e-07
3.19678e-07
3.19729e-07
3.19774e-07
3.19845e-07
3.19939e-07
3.20047e-07
3.20112e-07
3.20147e-07
3.20192e-07
3.20206e-07
3.20081e-07
3.19891e-07
3.19772e-07
3.1969e-07
3.1966e-07
3.19662e-07
3.19672e-07
3.1974e-07
3.19784e-07
3.19741e-07
3.19735e-07
3.19802e-07
3.19953e-07
3.20103e-07
3.2005e-07
3.199e-07
3.19692e-07
3.19484e-07
3.20182e-07
3.2005e-07
3.1887e-07
3.18159e-07
3.19339e-07
3.20568e-07
3.2121e-07
3.21525e-07
3.21709e-07
3.21812e-07
3.21852e-07
3.21825e-07
3.21867e-07
3.21966e-07
3.22112e-07
3.22288e-07
3.22493e-07
3.22731e-07
3.22997e-07
3.23258e-07
3.23511e-07
3.23761e-07
3.23982e-07
3.2419e-07
3.24345e-07
3.24505e-07
3.24697e-07
3.24907e-07
3.25092e-07
3.25274e-07
3.2541e-07
3.25564e-07
3.25659e-07
3.25736e-07
3.25784e-07
3.25804e-07
3.258e-07
3.25782e-07
3.25761e-07
3.25742e-07
3.25719e-07
3.25693e-07
3.25676e-07
3.25668e-07
3.25614e-07
3.25601e-07
3.25543e-07
3.25495e-07
3.25442e-07
3.25399e-07
3.25364e-07
3.2534e-07
3.25324e-07
3.25311e-07
3.25295e-07
3.25274e-07
3.25247e-07
3.25245e-07
3.2523e-07
3.25197e-07
3.25168e-07
3.25176e-07
3.25135e-07
3.25117e-07
3.25123e-07
3.25119e-07
3.25118e-07
3.25119e-07
3.25145e-07
3.25156e-07
3.25162e-07
3.25187e-07
3.25216e-07
3.25244e-07
3.25291e-07
3.25311e-07
3.25343e-07
3.25351e-07
3.2535e-07
3.25342e-07
3.25335e-07
3.25327e-07
3.25312e-07
3.25294e-07
3.25285e-07
3.25284e-07
3.25285e-07
3.25287e-07
3.25293e-07
3.25299e-07
3.25309e-07
3.25322e-07
3.25335e-07
3.2535e-07
3.25367e-07
3.25387e-07
3.25407e-07
3.25424e-07
3.2544e-07
3.25443e-07
3.25431e-07
3.25401e-07
3.25357e-07
3.25316e-07
3.2527e-07
3.25221e-07
3.25157e-07
3.25106e-07
3.25073e-07
3.25057e-07
3.25044e-07
3.25034e-07
3.25033e-07
3.25034e-07
3.25034e-07
3.25034e-07
3.25042e-07
3.25046e-07
3.25053e-07
3.25068e-07
3.25086e-07
3.25084e-07
3.25078e-07
3.25045e-07
3.24997e-07
3.24965e-07
3.24908e-07
3.2489e-07
3.24885e-07
3.24921e-07
3.24926e-07
3.24929e-07
3.2496e-07
3.25004e-07
3.24984e-07
3.24964e-07
3.24984e-07
3.2499e-07
3.24968e-07
3.24927e-07
3.2491e-07
3.249e-07
3.24903e-07
3.24916e-07
3.24927e-07
3.24952e-07
3.24949e-07
3.2491e-07
3.24887e-07
3.24926e-07
3.2498e-07
3.25008e-07
3.24969e-07
3.24914e-07
3.24874e-07
3.24829e-07
3.14333e-07
3.16993e-07
3.19801e-07
3.21865e-07
3.23442e-07
3.24508e-07
3.24914e-07
3.25144e-07
3.25326e-07
3.25441e-07
3.25498e-07
3.25493e-07
3.25444e-07
3.25384e-07
3.25368e-07
3.25382e-07
3.25392e-07
3.25373e-07
3.25342e-07
3.25306e-07
3.25297e-07
3.25289e-07
3.25279e-07
3.2526e-07
3.25277e-07
3.25324e-07
3.25417e-07
3.25529e-07
3.25655e-07
3.25785e-07
3.2588e-07
3.26007e-07
3.26088e-07
3.26154e-07
3.2619e-07
3.26201e-07
3.26191e-07
3.26175e-07
3.26161e-07
3.26154e-07
3.26151e-07
3.26145e-07
3.26134e-07
3.26136e-07
3.26102e-07
3.26112e-07
3.26076e-07
3.26052e-07
3.26019e-07
3.25998e-07
3.25976e-07
3.25966e-07
3.25965e-07
3.25965e-07
3.25957e-07
3.25952e-07
3.25936e-07
3.25941e-07
3.25922e-07
3.2587e-07
3.25831e-07
3.25839e-07
3.25856e-07
3.25848e-07
3.25852e-07
3.25823e-07
3.25816e-07
3.25828e-07
3.2585e-07
3.25869e-07
3.25886e-07
3.25915e-07
3.25943e-07
3.25981e-07
3.26036e-07
3.26059e-07
3.26089e-07
3.26096e-07
3.261e-07
3.26099e-07
3.26101e-07
3.26104e-07
3.26102e-07
3.26099e-07
3.26094e-07
3.26098e-07
3.26102e-07
3.26107e-07
3.2611e-07
3.26108e-07
3.26107e-07
3.26101e-07
3.26095e-07
3.26091e-07
3.26088e-07
3.26086e-07
3.26086e-07
3.26084e-07
3.26077e-07
3.26065e-07
3.26047e-07
3.26025e-07
3.25993e-07
3.25959e-07
3.25934e-07
3.2591e-07
3.25905e-07
3.25895e-07
3.25894e-07
3.25898e-07
3.25899e-07
3.25892e-07
3.2589e-07
3.25883e-07
3.25866e-07
3.2586e-07
3.25849e-07
3.25839e-07
3.25832e-07
3.25837e-07
3.25827e-07
3.25819e-07
3.25806e-07
3.25776e-07
3.25744e-07
3.25724e-07
3.25684e-07
3.25676e-07
3.25675e-07
3.25703e-07
3.25698e-07
3.2569e-07
3.25707e-07
3.2572e-07
3.2572e-07
3.25695e-07
3.257e-07
3.25717e-07
3.25714e-07
3.25697e-07
3.25691e-07
3.25692e-07
3.257e-07
3.25723e-07
3.2574e-07
3.25755e-07
3.25733e-07
3.2569e-07
3.25689e-07
3.25721e-07
3.25742e-07
3.25755e-07
3.25712e-07
3.25692e-07
3.25679e-07
3.25652e-07
3.24598e-07
3.25981e-07
3.25186e-07
3.24982e-07
3.25356e-07
3.25802e-07
3.26036e-07
3.26222e-07
3.26383e-07
3.26482e-07
3.26501e-07
3.26433e-07
3.26339e-07
3.26254e-07
3.26168e-07
3.26077e-07
3.25975e-07
3.25857e-07
3.2574e-07
3.25632e-07
3.25559e-07
3.25513e-07
3.25484e-07
3.25487e-07
3.25464e-07
3.25464e-07
3.25522e-07
3.2562e-07
3.25716e-07
3.25836e-07
3.25922e-07
3.2604e-07
3.26105e-07
3.26162e-07
3.26197e-07
3.26206e-07
3.26198e-07
3.26183e-07
3.26169e-07
3.26158e-07
3.2615e-07
3.2614e-07
3.26134e-07
3.26142e-07
3.26101e-07
3.26105e-07
3.26069e-07
3.26046e-07
3.2601e-07
3.25986e-07
3.25966e-07
3.25952e-07
3.25949e-07
3.25948e-07
3.25947e-07
3.25941e-07
3.2593e-07
3.25945e-07
3.25942e-07
3.25916e-07
3.25903e-07
3.25929e-07
3.25902e-07
3.2589e-07
3.25895e-07
3.25907e-07
3.25916e-07
3.25923e-07
3.25932e-07
3.25942e-07
3.25951e-07
3.25975e-07
3.25994e-07
3.26017e-07
3.26065e-07
3.26083e-07
3.26115e-07
3.26128e-07
3.26132e-07
3.26133e-07
3.26135e-07
3.26139e-07
3.26138e-07
3.26134e-07
3.26128e-07
3.26131e-07
3.26134e-07
3.26134e-07
3.26129e-07
3.26124e-07
3.26118e-07
3.26112e-07
3.26103e-07
3.26097e-07
3.26094e-07
3.26094e-07
3.26092e-07
3.2609e-07
3.26091e-07
3.26092e-07
3.26083e-07
3.26065e-07
3.26037e-07
3.26019e-07
3.2601e-07
3.26009e-07
3.26e-07
3.25996e-07
3.26003e-07
3.26011e-07
3.26018e-07
3.26014e-07
3.26011e-07
3.26006e-07
3.25993e-07
3.25976e-07
3.25972e-07
3.25962e-07
3.25955e-07
3.2595e-07
3.25963e-07
3.25952e-07
3.25944e-07
3.25925e-07
3.25894e-07
3.25886e-07
3.2584e-07
3.25832e-07
3.25839e-07
3.25869e-07
3.25867e-07
3.25857e-07
3.25879e-07
3.25913e-07
3.25875e-07
3.25848e-07
3.25857e-07
3.25866e-07
3.25869e-07
3.25868e-07
3.25874e-07
3.25883e-07
3.25889e-07
3.25903e-07
3.25921e-07
3.25929e-07
3.25903e-07
3.25856e-07
3.25853e-07
3.25871e-07
3.25888e-07
3.25896e-07
3.25848e-07
3.25804e-07
3.25806e-07
3.25824e-07
3.18166e-07
3.20442e-07
3.2225e-07
3.236e-07
3.25006e-07
3.25811e-07
3.26115e-07
3.26316e-07
3.2649e-07
3.26603e-07
3.26642e-07
3.266e-07
3.26515e-07
3.26419e-07
3.26321e-07
3.26213e-07
3.26091e-07
3.25954e-07
3.25828e-07
3.25705e-07
3.25625e-07
3.25572e-07
3.25528e-07
3.25493e-07
3.25464e-07
3.25468e-07
3.25527e-07
3.25624e-07
3.25729e-07
3.2585e-07
3.25937e-07
3.26055e-07
3.26127e-07
3.26191e-07
3.26231e-07
3.26245e-07
3.2624e-07
3.26228e-07
3.26217e-07
3.26207e-07
3.26197e-07
3.26181e-07
3.26169e-07
3.26171e-07
3.26138e-07
3.26145e-07
3.26113e-07
3.26094e-07
3.26067e-07
3.26052e-07
3.26037e-07
3.26033e-07
3.26035e-07
3.26036e-07
3.26031e-07
3.26025e-07
3.26009e-07
3.26015e-07
3.26006e-07
3.25972e-07
3.2595e-07
3.25969e-07
3.25962e-07
3.2595e-07
3.25955e-07
3.25942e-07
3.25939e-07
3.25949e-07
3.25965e-07
3.25979e-07
3.25991e-07
3.26017e-07
3.26042e-07
3.26073e-07
3.26118e-07
3.26137e-07
3.26166e-07
3.26176e-07
3.26182e-07
3.26182e-07
3.26183e-07
3.26185e-07
3.26184e-07
3.2618e-07
3.26181e-07
3.26184e-07
3.26187e-07
3.2619e-07
3.26189e-07
3.26184e-07
3.26179e-07
3.26173e-07
3.26167e-07
3.26162e-07
3.26159e-07
3.26157e-07
3.26156e-07
3.26154e-07
3.26151e-07
3.26143e-07
3.26129e-07
3.26108e-07
3.26082e-07
3.26068e-07
3.26057e-07
3.26049e-07
3.26043e-07
3.26041e-07
3.26047e-07
3.26055e-07
3.26058e-07
3.26054e-07
3.2605e-07
3.26042e-07
3.26029e-07
3.26011e-07
3.26002e-07
3.2599e-07
3.25984e-07
3.25982e-07
3.25983e-07
3.25972e-07
3.25968e-07
3.25946e-07
3.25915e-07
3.25901e-07
3.25863e-07
3.25858e-07
3.25861e-07
3.25894e-07
3.25878e-07
3.2587e-07
3.25882e-07
3.25891e-07
3.25891e-07
3.2586e-07
3.25868e-07
3.2588e-07
3.25881e-07
3.25875e-07
3.25875e-07
3.25882e-07
3.25891e-07
3.2591e-07
3.25925e-07
3.25937e-07
3.25923e-07
3.2588e-07
3.25855e-07
3.259e-07
3.25921e-07
3.25913e-07
3.25875e-07
3.25849e-07
3.2584e-07
3.2583e-07
3.25145e-07
3.2606e-07
3.25502e-07
3.25317e-07
3.25595e-07
3.26e-07
3.26219e-07
3.26364e-07
3.26539e-07
3.26645e-07
3.26671e-07
3.26616e-07
3.26527e-07
3.26427e-07
3.26328e-07
3.2622e-07
3.26098e-07
3.2596e-07
3.2583e-07
3.25706e-07
3.25621e-07
3.25562e-07
3.25525e-07
3.2549e-07
3.25459e-07
3.25458e-07
3.25516e-07
3.25606e-07
3.2571e-07
3.25829e-07
3.25917e-07
3.26036e-07
3.26106e-07
3.26169e-07
3.26196e-07
3.26207e-07
3.262e-07
3.26186e-07
3.26174e-07
3.26167e-07
3.26164e-07
3.26157e-07
3.26149e-07
3.26152e-07
3.26111e-07
3.26118e-07
3.26087e-07
3.26065e-07
3.26032e-07
3.26011e-07
3.25991e-07
3.25979e-07
3.25978e-07
3.25978e-07
3.25977e-07
3.25971e-07
3.25959e-07
3.25973e-07
3.25972e-07
3.25944e-07
3.25924e-07
3.25944e-07
3.25931e-07
3.25921e-07
3.25927e-07
3.2592e-07
3.25918e-07
3.25926e-07
3.2594e-07
3.25952e-07
3.25962e-07
3.25985e-07
3.26002e-07
3.26027e-07
3.26073e-07
3.26092e-07
3.26125e-07
3.26138e-07
3.26144e-07
3.26146e-07
3.26148e-07
3.26152e-07
3.26151e-07
3.26149e-07
3.26148e-07
3.26154e-07
3.26159e-07
3.26165e-07
3.26164e-07
3.26158e-07
3.26153e-07
3.26146e-07
3.26137e-07
3.26131e-07
3.26127e-07
3.26126e-07
3.26124e-07
3.2612e-07
3.26117e-07
3.26112e-07
3.261e-07
3.26082e-07
3.26057e-07
3.26037e-07
3.2603e-07
3.26028e-07
3.2603e-07
3.26026e-07
3.26033e-07
3.26042e-07
3.26048e-07
3.26043e-07
3.26039e-07
3.26029e-07
3.26014e-07
3.26002e-07
3.25992e-07
3.25979e-07
3.25971e-07
3.25975e-07
3.25969e-07
3.25963e-07
3.25959e-07
3.25937e-07
3.25905e-07
3.25894e-07
3.25855e-07
3.2585e-07
3.25854e-07
3.25883e-07
3.25877e-07
3.25866e-07
3.25889e-07
3.25917e-07
3.25882e-07
3.2586e-07
3.25864e-07
3.25874e-07
3.25881e-07
3.25879e-07
3.25884e-07
3.25893e-07
3.259e-07
3.25914e-07
3.2593e-07
3.25935e-07
3.25917e-07
3.25863e-07
3.25873e-07
3.25876e-07
3.259e-07
3.25923e-07
3.25877e-07
3.25842e-07
3.25851e-07
3.25852e-07
3.22787e-07
3.22167e-07
3.2273e-07
3.24009e-07
3.25207e-07
3.25719e-07
3.26076e-07
3.26296e-07
3.26467e-07
3.26582e-07
3.26625e-07
3.26586e-07
3.26503e-07
3.26409e-07
3.26312e-07
3.26206e-07
3.26086e-07
3.25954e-07
3.25823e-07
3.25704e-07
3.2562e-07
3.25564e-07
3.25516e-07
3.25487e-07
3.25452e-07
3.25455e-07
3.25514e-07
3.25608e-07
3.25712e-07
3.25834e-07
3.25923e-07
3.26041e-07
3.26111e-07
3.26172e-07
3.26212e-07
3.26225e-07
3.26219e-07
3.26206e-07
3.26194e-07
3.26185e-07
3.26177e-07
3.26164e-07
3.26153e-07
3.26158e-07
3.26126e-07
3.26132e-07
3.26098e-07
3.26077e-07
3.26048e-07
3.26031e-07
3.26015e-07
3.26009e-07
3.26009e-07
3.26008e-07
3.26004e-07
3.25999e-07
3.25988e-07
3.26001e-07
3.25991e-07
3.25957e-07
3.25931e-07
3.25953e-07
3.25943e-07
3.25932e-07
3.25937e-07
3.25929e-07
3.25928e-07
3.25937e-07
3.25952e-07
3.25965e-07
3.25975e-07
3.26001e-07
3.26027e-07
3.26056e-07
3.26106e-07
3.26127e-07
3.26159e-07
3.26169e-07
3.26175e-07
3.26176e-07
3.26178e-07
3.26181e-07
3.26181e-07
3.26179e-07
3.26174e-07
3.2618e-07
3.26184e-07
3.26186e-07
3.26186e-07
3.26181e-07
3.26176e-07
3.2617e-07
3.26163e-07
3.26157e-07
3.26153e-07
3.26151e-07
3.26148e-07
3.26147e-07
3.26146e-07
3.26139e-07
3.26125e-07
3.26103e-07
3.26079e-07
3.26063e-07
3.26054e-07
3.26049e-07
3.26043e-07
3.26042e-07
3.26047e-07
3.26056e-07
3.26061e-07
3.26056e-07
3.26053e-07
3.26044e-07
3.26028e-07
3.26009e-07
3.25999e-07
3.25988e-07
3.25981e-07
3.25983e-07
3.25991e-07
3.25978e-07
3.25972e-07
3.25948e-07
3.25916e-07
3.25907e-07
3.25865e-07
3.2586e-07
3.25864e-07
3.25888e-07
3.25885e-07
3.2587e-07
3.25881e-07
3.25901e-07
3.25892e-07
3.25873e-07
3.25879e-07
3.25887e-07
3.25891e-07
3.25891e-07
3.25894e-07
3.25895e-07
3.25906e-07
3.25921e-07
3.25937e-07
3.25943e-07
3.2592e-07
3.25885e-07
3.25865e-07
3.25891e-07
3.25906e-07
3.25903e-07
3.25845e-07
3.25821e-07
3.25797e-07
3.25798e-07
3.44073e-07
3.38857e-07
3.29969e-07
3.26267e-07
3.25726e-07
3.25908e-07
3.26138e-07
3.26379e-07
3.26563e-07
3.26683e-07
3.26708e-07
3.26644e-07
3.2655e-07
3.26449e-07
3.26342e-07
3.26226e-07
3.26099e-07
3.25962e-07
3.25829e-07
3.25703e-07
3.25617e-07
3.25561e-07
3.25518e-07
3.25477e-07
3.25449e-07
3.25445e-07
3.25498e-07
3.25589e-07
3.25689e-07
3.25808e-07
3.25897e-07
3.26016e-07
3.26085e-07
3.26146e-07
3.26184e-07
3.26195e-07
3.26188e-07
3.26175e-07
3.26163e-07
3.26155e-07
3.26149e-07
3.26139e-07
3.26131e-07
3.26136e-07
3.26096e-07
3.26102e-07
3.26071e-07
3.26051e-07
3.2602e-07
3.26002e-07
3.25987e-07
3.25976e-07
3.25977e-07