/*--------------------------------*- C++ -*----------------------------------*\
| =========                 |                                                 |
| \\      /  F ield         | OpenFOAM: The Open Source CFD Toolbox           |
|  \\    /   O peration     | Version:  v1912                                 |
|   \\  /    A nd           | Website:  www.openfoam.com                      |
|    \\/     M anipulation  |                                                 |
\*---------------------------------------------------------------------------*/
FoamFile
{
    version     2.0;
    format      ascii;
    class       surfaceScalarField;
    location    "20";
    object      phi;
}
// * * * * * * * * * * * * * * * * * * * * * * * * * * * * * * * * * * * * * //

dimensions      [0 3 -1 0 0 0 0];
oriented        oriented;


internalField   nonuniform List<scalar> 
28285
(
3.13813e-05
-5.9828e-07
3.18371e-05
-4.55776e-07
3.21784e-05
-3.4131e-07
3.24344e-05
-2.55999e-07
3.26332e-05
-1.98806e-07
3.28017e-05
-1.68524e-07
3.29677e-05
-1.65972e-07
3.31637e-05
-1.95933e-07
3.34297e-05
-2.66062e-07
3.38136e-05
-3.83915e-07
3.43668e-05
-5.5318e-07
3.51351e-05
-7.68336e-07
3.61483e-05
-1.01311e-06
3.74118e-05
-1.26355e-06
3.89049e-05
-1.49309e-06
4.05826e-05
-1.67775e-06
4.23808e-05
-1.79813e-06
4.42171e-05
-1.83635e-06
4.59915e-05
-1.77436e-06
4.75953e-05
-1.60385e-06
4.89577e-05
-1.36236e-06
5.00592e-05
-1.10148e-06
5.08603e-05
-8.0111e-07
5.1303e-05
-4.42666e-07
5.13994e-05
-9.6457e-08
5.12091e-05
1.90284e-07
5.0864e-05
3.45163e-07
5.05332e-05
3.30769e-07
5.03802e-05
1.5295e-07
5.05276e-05
-1.47315e-07
5.09941e-05
-4.66513e-07
5.18481e-05
-8.54043e-07
5.32805e-05
-1.4324e-06
5.62552e-05
-2.97465e-06
6.22049e-05
-5.94969e-06
7.28019e-05
-1.05971e-05
8.90574e-05
-1.62555e-05
0.000108646
-1.95882e-05
0.000121972
-1.33262e-05
0.000125822
-3.85041e-06
0.000121041
4.78155e-06
0.000111813
9.22742e-06
9.77054e-05
1.41079e-05
7.92173e-06
8.97837e-05
3.13618e-05
-1.19656e-06
3.18176e-05
-9.11555e-07
3.21589e-05
-6.82635e-07
3.24149e-05
-5.12015e-07
3.26138e-05
-3.97626e-07
3.27823e-05
-3.37057e-07
3.29483e-05
-3.31951e-07
3.31442e-05
-3.91868e-07
3.34103e-05
-5.32123e-07
3.37942e-05
-7.67829e-07
3.43474e-05
-1.10636e-06
3.51157e-05
-1.53667e-06
3.61288e-05
-2.02622e-06
3.73924e-05
-2.52711e-06
3.88855e-05
-2.98618e-06
4.05632e-05
-3.35548e-06
4.23613e-05
-3.59624e-06
4.41976e-05
-3.67268e-06
4.5972e-05
-3.54871e-06
4.75758e-05
-3.2077e-06
4.89382e-05
-2.72473e-06
5.00397e-05
-2.20296e-06
5.08408e-05
-1.60223e-06
5.12835e-05
-8.85339e-07
5.13799e-05
-1.92917e-07
5.11896e-05
3.80585e-07
5.08444e-05
6.90345e-07
5.05137e-05
6.61562e-07
5.03607e-05
3.05921e-07
5.0508e-05
-2.94629e-07
5.09745e-05
-9.33022e-07
5.18285e-05
-1.70808e-06
5.32611e-05
-2.86494e-06
5.62357e-05
-5.94925e-06
6.21854e-05
-1.18994e-05
7.27822e-05
-2.11939e-05
8.90393e-05
-3.25126e-05
0.000108628
-3.91767e-05
0.000121955
-2.66538e-05
0.000125807
-7.70224e-06
0.000121022
9.56718e-06
0.000111819
1.84305e-05
9.78835e-05
2.8043e-05
1.59714e-05
8.98338e-05
3.13476e-05
-1.79483e-06
3.18034e-05
-1.36733e-06
3.21447e-05
-1.02396e-06
3.24007e-05
-7.68035e-07
3.25996e-05
-5.96448e-07
3.27681e-05
-5.05592e-07
3.29341e-05
-4.97927e-07
3.313e-05
-5.878e-07
3.33961e-05
-7.98181e-07
3.378e-05
-1.15174e-06
3.43331e-05
-1.65953e-06
3.51015e-05
-2.305e-06
3.61146e-05
-3.03934e-06
3.73782e-05
-3.79068e-06
3.88713e-05
-4.4793e-06
4.0549e-05
-5.03322e-06
4.23471e-05
-5.39434e-06
4.41835e-05
-5.50903e-06
4.59578e-05
-5.32309e-06
4.75617e-05
-4.81157e-06
4.89241e-05
-4.08712e-06
5.00256e-05
-3.30447e-06
5.08267e-05
-2.40336e-06
5.12694e-05
-1.32802e-06
5.13659e-05
-2.89364e-07
5.11756e-05
5.70878e-07
5.08304e-05
1.03553e-06
5.04996e-05
9.92343e-07
5.03467e-05
4.5883e-07
5.04941e-05
-4.42019e-07
5.09607e-05
-1.39963e-06
5.18148e-05
-2.56222e-06
5.32475e-05
-4.29766e-06
5.62222e-05
-8.92395e-06
6.21722e-05
-1.78494e-05
7.27694e-05
-3.17911e-05
8.90285e-05
-4.87717e-05
0.000108619
-5.87673e-05
0.000121948
-3.99827e-05
0.0001258
-1.15539e-05
0.000121013
1.43542e-05
0.000111813
2.76305e-05
9.78786e-05
4.1977e-05
2.40268e-05
8.98233e-05
3.13442e-05
-2.3931e-06
3.18e-05
-1.8231e-06
3.21413e-05
-1.36529e-06
3.23973e-05
-1.02405e-06
3.25962e-05
-7.95265e-07
3.27647e-05
-6.74118e-07
3.29306e-05
-6.63896e-07
3.31266e-05
-7.83718e-07
3.33926e-05
-1.06422e-06
3.37765e-05
-1.53563e-06
3.43297e-05
-2.21269e-06
3.5098e-05
-3.07333e-06
3.61111e-05
-4.05246e-06
3.73747e-05
-5.05426e-06
3.88678e-05
-5.97242e-06
4.05456e-05
-6.71097e-06
4.23437e-05
-7.19246e-06
4.41801e-05
-7.3454e-06
4.59545e-05
-7.0975e-06
4.75584e-05
-6.41547e-06
4.89208e-05
-5.44952e-06
5.00223e-05
-4.40599e-06
5.08234e-05
-3.20452e-06
5.12661e-05
-1.77071e-06
5.13626e-05
-3.85819e-07
5.11722e-05
7.61224e-07
5.0827e-05
1.38077e-06
5.04962e-05
1.32318e-06
5.03432e-05
6.11785e-07
5.04906e-05
-5.89449e-07
5.09573e-05
-1.86627e-06
5.18114e-05
-3.41631e-06
5.32439e-05
-5.7302e-06
5.62182e-05
-1.18983e-05
6.2168e-05
-2.37991e-05
7.27654e-05
-4.23885e-05
8.90258e-05
-6.5032e-05
0.000108619
-7.83605e-05
0.000121948
-5.33116e-05
0.0001258
-1.54064e-05
0.00012101
1.9145e-05
0.000111829
3.68114e-05
9.80092e-05
5.57964e-05
3.22454e-05
8.97905e-05
3.13438e-05
-2.99136e-06
3.17995e-05
-2.27886e-06
3.21408e-05
-1.7066e-06
3.23968e-05
-1.28006e-06
3.25956e-05
-9.9407e-07
3.27642e-05
-8.42634e-07
3.29301e-05
-8.29848e-07
3.3126e-05
-9.79621e-07
3.3392e-05
-1.33024e-06
3.37759e-05
-1.9195e-06
3.4329e-05
-2.76583e-06
3.50974e-05
-3.84164e-06
3.61105e-05
-5.06558e-06
3.73741e-05
-6.31785e-06
3.88672e-05
-7.46557e-06
4.0545e-05
-8.38875e-06
4.23431e-05
-8.99062e-06
4.41796e-05
-9.18183e-06
4.5954e-05
-8.87197e-06
4.7558e-05
-8.01939e-06
4.89204e-05
-6.81194e-06
5.00219e-05
-5.50754e-06
5.08231e-05
-4.00568e-06
5.12658e-05
-2.21338e-06
5.13622e-05
-4.82214e-07
5.11718e-05
9.51601e-07
5.08265e-05
1.72608e-06
5.04956e-05
1.65407e-06
5.03426e-05
7.64744e-07
5.049e-05
-7.36864e-07
5.09566e-05
-2.33288e-06
5.18106e-05
-4.27028e-06
5.32427e-05
-7.16231e-06
5.62164e-05
-1.4872e-05
6.21656e-05
-2.97483e-05
7.2763e-05
-5.29859e-05
8.90248e-05
-8.12938e-05
0.000108621
-9.79565e-05
0.000121951
-6.66422e-05
0.000125804
-1.92588e-05
0.000121012
2.39373e-05
0.000111836
4.59866e-05
9.80336e-05
6.95992e-05
4.04845e-05
8.97945e-05
3.13438e-05
-3.5896e-06
3.17995e-05
-2.7346e-06
3.21408e-05
-2.04789e-06
3.23968e-05
-1.53604e-06
3.25956e-05
-1.19286e-06
3.27641e-05
-1.01113e-06
3.293e-05
-9.95783e-07
3.31259e-05
-1.1755e-06
3.33919e-05
-1.59623e-06
3.37757e-05
-2.30334e-06
3.43289e-05
-3.31895e-06
3.50971e-05
-4.60994e-06
3.61103e-05
-6.07869e-06
3.73739e-05
-7.58145e-06
3.8867e-05
-8.95874e-06
4.05449e-05
-1.00666e-05
4.23431e-05
-1.07888e-05
4.41795e-05
-1.10183e-05
4.59541e-05
-1.06465e-05
4.7558e-05
-9.62336e-06
4.89205e-05
-8.17438e-06
5.0022e-05
-6.60911e-06
5.08232e-05
-4.80687e-06
5.12659e-05
-2.65606e-06
5.13623e-05
-5.78606e-07
5.11718e-05
1.14207e-06
5.08264e-05
2.07149e-06
5.04954e-05
1.98506e-06
5.03424e-05
9.17792e-07
5.04898e-05
-8.84273e-07
5.09563e-05
-2.79944e-06
5.18101e-05
-5.12407e-06
5.32418e-05
-8.59396e-06
5.62147e-05
-1.78449e-05
6.21632e-05
-3.56968e-05
7.27604e-05
-6.35831e-05
8.90244e-05
-9.75579e-05
0.000108624
-0.000117556
0.000121955
-7.99741e-05
0.000125808
-2.31116e-05
0.000121012
2.87331e-05
0.000111853
5.51457e-05
9.81454e-05
8.33071e-05
4.88611e-05
8.97688e-05
3.13439e-05
-4.18784e-06
3.17996e-05
-3.19033e-06
3.21409e-05
-2.38916e-06
3.23968e-05
-1.79201e-06
3.25956e-05
-1.39163e-06
3.27641e-05
-1.17961e-06
3.293e-05
-1.16169e-06
3.31259e-05
-1.37135e-06
3.33918e-05
-1.8622e-06
3.37756e-05
-2.68715e-06
3.43287e-05
-3.87204e-06
3.5097e-05
-5.37822e-06
3.61101e-05
-7.0918e-06
3.73737e-05
-8.84506e-06
3.88669e-05
-1.04519e-05
4.05448e-05
-1.17444e-05
4.2343e-05
-1.25871e-05
4.41796e-05
-1.28548e-05
4.59542e-05
-1.24211e-05
4.75582e-05
-1.12274e-05
4.89206e-05
-9.53684e-06
5.00222e-05
-7.7107e-06
5.08234e-05
-5.60809e-06
5.12661e-05
-3.09871e-06
5.13624e-05
-6.74917e-07
5.11719e-05
1.3326e-06
5.08264e-05
2.41699e-06
5.04953e-05
2.31614e-06
5.03422e-05
1.07088e-06
5.04896e-05
-1.03165e-06
5.09561e-05
-3.26596e-06
5.18097e-05
-5.97764e-06
5.32407e-05
-1.0025e-05
5.62128e-05
-2.08169e-05
6.21604e-05
-4.16444e-05
7.27571e-05
-7.41798e-05
8.90236e-05
-0.000113824
0.000108627
-0.000137159
0.000121961
-9.33081e-05
0.000125813
-2.69642e-05
0.000121015
3.35316e-05
0.000111863
6.42973e-05
9.81843e-05
9.69861e-05
5.72759e-05
8.97695e-05
3.1344e-05
-4.78605e-06
3.17997e-05
-3.64603e-06
3.21409e-05
-2.73042e-06
3.23969e-05
-2.04796e-06
3.25956e-05
-1.59038e-06
3.27641e-05
-1.34807e-06
3.293e-05
-1.32758e-06
3.31258e-05
-1.56717e-06
3.33917e-05
-2.12813e-06
3.37755e-05
-3.07092e-06
3.43285e-05
-4.4251e-06
3.50968e-05
-6.14648e-06
3.61099e-05
-8.10491e-06
3.73735e-05
-1.01087e-05
3.88668e-05
-1.19452e-05
4.05447e-05
-1.34224e-05
4.2343e-05
-1.43854e-05
4.41796e-05
-1.46915e-05
4.59543e-05
-1.41957e-05
4.75583e-05
-1.28314e-05
4.89208e-05
-1.08993e-05
5.00224e-05
-8.81234e-06
5.08237e-05
-6.40934e-06
5.12664e-05
-3.54138e-06
5.13627e-05
-7.71218e-07
5.1172e-05
1.52324e-06
5.08264e-05
2.76263e-06
5.04952e-05
2.64736e-06
5.03419e-05
1.2241e-06
5.04893e-05
-1.17901e-06
5.09558e-05
-3.73241e-06
5.18091e-05
-6.83095e-06
5.32395e-05
-1.14554e-05
5.62104e-05
-2.37879e-05
6.21571e-05
-4.75911e-05
7.27535e-05
-8.47761e-05
8.9023e-05
-0.000130094
0.00010863
-0.000156766
0.000121967
-0.000106644
0.000125819
-3.08169e-05
0.000121018
3.83333e-05
0.000111879
7.34359e-05
9.82796e-05
0.000110585
6.58063e-05
8.97492e-05
3.13441e-05
-5.38424e-06
3.17998e-05
-4.10171e-06
3.2141e-05
-3.07165e-06
3.23969e-05
-2.30389e-06
3.25957e-05
-1.78911e-06
3.27641e-05
-1.51651e-06
3.29299e-05
-1.49344e-06
3.31257e-05
-1.76296e-06
3.33916e-05
-2.39402e-06
3.37754e-05
-3.45465e-06
3.43284e-05
-4.97811e-06
3.50966e-05
-6.91472e-06
3.61097e-05
-9.11801e-06
3.73734e-05
-1.13723e-05
3.88666e-05
-1.34384e-05
4.05446e-05
-1.51003e-05
4.2343e-05
-1.61838e-05
4.41797e-05
-1.65282e-05
4.59544e-05
-1.59705e-05
4.75585e-05
-1.44355e-05
4.89211e-05
-1.22618e-05
5.00227e-05
-9.91401e-06
5.0824e-05
-7.21061e-06
5.12666e-05
-3.98402e-06
5.13628e-05
-8.6742e-07
5.11721e-05
1.71397e-06
5.08263e-05
3.1084e-06
5.0495e-05
2.97869e-06
5.03417e-05
1.37737e-06
5.04891e-05
-1.32634e-06
5.09555e-05
-4.19879e-06
5.18085e-05
-7.68397e-06
5.32381e-05
-1.28851e-05
5.62078e-05
-2.67576e-05
6.21533e-05
-5.35366e-05
7.2749e-05
-9.53718e-05
8.90219e-05
-0.000146367
0.000108635
-0.000176379
0.000121974
-0.000119983
0.000125826
-3.46693e-05
0.000121021
4.31381e-05
0.000111891
8.25664e-05
9.83275e-05
0.000124149
7.43867e-05
8.97471e-05
3.13442e-05
-5.98241e-06
3.17999e-05
-4.55736e-06
3.21411e-05
-3.41285e-06
3.2397e-05
-2.55979e-06
3.25957e-05
-1.98782e-06
3.27641e-05
-1.68492e-06
3.29299e-05
-1.65927e-06
3.31257e-05
-1.95871e-06
3.33915e-05
-2.65985e-06
3.37752e-05
-3.83833e-06
3.43282e-05
-5.53109e-06
3.50964e-05
-7.68293e-06
3.61095e-05
-1.01311e-05
3.73731e-05
-1.2636e-05
3.88665e-05
-1.49318e-05
4.05445e-05
-1.67783e-05
4.23429e-05
-1.79822e-05
4.41797e-05
-1.83649e-05
4.59546e-05
-1.77453e-05
4.75587e-05
-1.60397e-05
4.89213e-05
-1.36244e-05
5.0023e-05
-1.10157e-05
5.08243e-05
-8.01193e-06
5.1267e-05
-4.42667e-06
5.13632e-05
-9.63599e-07
5.11723e-05
1.90484e-06
5.08263e-05
3.45434e-06
5.04948e-05
3.3102e-06
5.03414e-05
1.5308e-06
5.04887e-05
-1.47364e-06
5.0955e-05
-4.66509e-06
5.18077e-05
-8.53667e-06
5.32365e-05
-1.43139e-05
5.62049e-05
-2.97259e-05
6.21491e-05
-5.94809e-05
7.27444e-05
-0.000105967
8.90212e-05
-0.000162644
0.00010864
-0.000195997
0.000121981
-0.000133325
0.000125834
-3.85215e-05
0.000121025
4.79468e-05
0.000111905
9.16862e-05
9.84108e-05
0.000137643
8.3066e-05
8.97314e-05
3.13444e-05
-6.58055e-06
3.18e-05
-5.01298e-06
3.21412e-05
-3.75402e-06
3.2397e-05
-2.81566e-06
3.25957e-05
-2.18649e-06
3.27641e-05
-1.8533e-06
3.29299e-05
-1.82506e-06
3.31256e-05
-2.15441e-06
3.33914e-05
-2.92565e-06
3.3775e-05
-4.22196e-06
3.43279e-05
-6.08401e-06
3.50961e-05
-8.45112e-06
3.61092e-05
-1.11442e-05
3.73729e-05
-1.38997e-05
3.88663e-05
-1.64251e-05
4.05444e-05
-1.84564e-05
4.23429e-05
-1.97808e-05
4.41798e-05
-2.02018e-05
4.59548e-05
-1.95203e-05
4.7559e-05
-1.76439e-05
4.89216e-05
-1.4987e-05
5.00234e-05
-1.21175e-05
5.08247e-05
-8.81328e-06
5.12673e-05
-4.86928e-06
5.13634e-05
-1.05966e-06
5.11724e-05
2.09582e-06
5.08263e-05
3.80044e-06
5.04946e-05
3.64187e-06
5.03411e-05
1.6843e-06
5.04884e-05
-1.6209e-06
5.09546e-05
-5.13132e-06
5.18069e-05
-9.38899e-06
5.32348e-05
-1.57417e-05
5.62016e-05
-3.26927e-05
6.21444e-05
-6.54237e-05
7.27389e-05
-0.000116562
8.90196e-05
-0.000178924
0.000108645
-0.000215622
0.00012199
-0.000146671
0.000125842
-4.23734e-05
0.00012103
5.27591e-05
0.000111918
0.000100798
9.84639e-05
0.000151097
9.18022e-05
8.97277e-05
3.13445e-05
-7.17867e-06
3.18001e-05
-5.46857e-06
3.21413e-05
-4.09516e-06
3.23971e-05
-3.0715e-06
3.25957e-05
-2.38514e-06
3.27641e-05
-2.02164e-06
3.29298e-05
-1.99082e-06
3.31255e-05
-2.35007e-06
3.33912e-05
-3.19138e-06
3.37748e-05
-4.60552e-06
3.43277e-05
-6.63689e-06
3.50958e-05
-9.21926e-06
3.61089e-05
-1.21573e-05
3.73726e-05
-1.51634e-05
3.8866e-05
-1.79185e-05
4.05442e-05
-2.01346e-05
4.23429e-05
-2.15794e-05
4.41799e-05
-2.20389e-05
4.59549e-05
-2.12954e-05
4.75592e-05
-1.92482e-05
4.89219e-05
-1.63496e-05
5.00237e-05
-1.32193e-05
5.08251e-05
-9.61469e-06
5.12677e-05
-5.3119e-06
5.13638e-05
-1.15569e-06
5.11726e-05
2.28697e-06
5.08263e-05
4.14674e-06
5.04944e-05
3.97374e-06
5.03407e-05
1.83798e-06
5.0488e-05
-1.76813e-06
5.09541e-05
-5.59744e-06
5.1806e-05
-1.02409e-05
5.32328e-05
-1.71686e-05
5.61979e-05
-3.56578e-05
6.21392e-05
-7.1365e-05
7.27332e-05
-0.000127156
8.90188e-05
-0.00019521
0.000108651
-0.000235254
0.000121999
-0.000160019
0.000125851
-4.62248e-05
0.000121034
5.75755e-05
0.000111932
0.0001099
9.85384e-05
0.000164491
0.000100626
8.97149e-05
3.13447e-05
-7.77676e-06
3.18003e-05
-5.92413e-06
3.21414e-05
-4.43626e-06
3.23972e-05
-3.3273e-06
3.25958e-05
-2.58375e-06
3.27641e-05
-2.18995e-06
3.29298e-05
-2.15653e-06
3.31254e-05
-2.54567e-06
3.33911e-05
-3.45706e-06
3.37746e-05
-4.98903e-06
3.43274e-05
-7.18971e-06
3.50955e-05
-9.98738e-06
3.61086e-05
-1.31704e-05
3.73724e-05
-1.64271e-05
3.88658e-05
-1.9412e-05
4.05441e-05
-2.18129e-05
4.23428e-05
-2.33782e-05
4.418e-05
-2.3876e-05
4.59552e-05
-2.30706e-05
4.75596e-05
-2.08526e-05
4.89222e-05
-1.77123e-05
5.00241e-05
-1.43212e-05
5.08256e-05
-1.04161e-05
5.12682e-05
-5.75449e-06
5.13641e-05
-1.25159e-06
5.11728e-05
2.47827e-06
5.08263e-05
4.49325e-06
5.04942e-05
4.30581e-06
5.03404e-05
1.99178e-06
5.04876e-05
-1.91531e-06
5.09536e-05
-6.06346e-06
5.18051e-05
-1.10924e-05
5.32307e-05
-1.85942e-05
5.6194e-05
-3.8621e-05
6.21335e-05
-7.73045e-05
7.27266e-05
-0.000137749
8.90169e-05
-0.0002115
0.000108657
-0.000254894
0.00012201
-0.000173372
0.000125861
-5.0076e-05
0.00012104
6.2396e-05
0.000111946
0.000118995
9.85946e-05
0.000177842
0.00010951
8.97105e-05
3.13449e-05
-8.37481e-06
3.18004e-05
-6.37964e-06
3.21415e-05
-4.77731e-06
3.23973e-05
-3.58305e-06
3.25958e-05
-2.78231e-06
3.27641e-05
-2.35822e-06
3.29297e-05
-2.32219e-06
3.31253e-05
-2.74122e-06
3.33909e-05
-3.72266e-06
3.37743e-05
-5.37246e-06
3.43271e-05
-7.74247e-06
3.50951e-05
-1.07554e-05
3.61082e-05
-1.41835e-05
3.7372e-05
-1.76909e-05
3.88655e-05
-2.09056e-05
4.05439e-05
-2.34912e-05
4.23428e-05
-2.51771e-05
4.41801e-05
-2.57133e-05
4.59554e-05
-2.48459e-05
4.75599e-05
-2.2457e-05
4.89226e-05
-1.9075e-05
5.00246e-05
-1.54232e-05
5.08261e-05
-1.12177e-05
5.12687e-05
-6.19708e-06
5.13645e-05
-1.34743e-06
5.1173e-05
2.66975e-06
5.08263e-05
4.83999e-06
5.0494e-05
4.6381e-06
5.034e-05
2.14576e-06
5.04872e-05
-2.06247e-06
5.09531e-05
-6.52939e-06
5.18041e-05
-1.19434e-05
5.32283e-05
-2.00185e-05
5.61895e-05
-4.15822e-05
6.21272e-05
-8.32423e-05
7.27206e-05
-0.000148342
8.90149e-05
-0.000227795
0.000108665
-0.000274544
0.00012202
-0.000186728
0.000125871
-5.39267e-05
0.000121046
6.72205e-05
0.00011196
0.000128081
9.86634e-05
0.000191139
0.000118475
8.96987e-05
6.26908e-05
-9.57083e-06
6.36016e-05
-7.29052e-06
6.42835e-05
-5.45921e-06
6.47948e-05
-4.09435e-06
6.51918e-05
-3.17926e-06
6.55282e-05
-2.69457e-06
6.58593e-05
-2.6533e-06
6.62502e-05
-3.1321e-06
6.67812e-05
-4.25367e-06
6.75478e-05
-6.13908e-06
6.86531e-05
-8.84777e-06
7.01891e-05
-1.22915e-05
7.22153e-05
-1.62096e-05
7.47429e-05
-2.02185e-05
7.77302e-05
-2.38929e-05
8.10873e-05
-2.68483e-05
8.46856e-05
-2.87754e-05
8.83608e-05
-2.93884e-05
9.1912e-05
-2.83971e-05
9.51212e-05
-2.56663e-05
9.78468e-05
-2.18006e-05
0.000100051
-1.76273e-05
0.000101654
-1.28208e-05
0.000102539
-7.08211e-06
0.00010273
-1.53868e-06
0.000102347
3.05323e-06
0.000101653
5.53414e-06
0.000100988
5.30335e-06
0.000100679
2.45408e-06
0.000100973
-2.35667e-06
0.000101905
-7.46094e-06
0.000103605
-1.36437e-05
0.000106449
-2.28623e-05
0.000112365
-4.7498e-05
0.000124234
-9.51118e-05
0.000145418
-0.000169526
0.000178025
-0.000260402
0.000217353
-0.000313871
0.000244078
-0.000213454
0.000251778
-6.16259e-05
0.000242113
7.68846e-05
0.000223962
0.000146232
0.000197494
0.000217607
0.000136589
0.000179379
6.26916e-05
-1.07667e-05
6.36022e-05
-8.2012e-06
6.42839e-05
-6.14093e-06
6.47951e-05
-4.60548e-06
6.51918e-05
-3.57602e-06
6.5528e-05
-3.03073e-06
6.58589e-05
-2.98423e-06
6.62495e-05
-3.5227e-06
6.67801e-05
-4.78428e-06
6.75464e-05
-6.90537e-06
6.86515e-05
-9.95281e-06
7.01873e-05
-1.38273e-05
7.22134e-05
-1.82357e-05
7.47412e-05
-2.27464e-05
7.77288e-05
-2.68805e-05
8.10863e-05
-3.02059e-05
8.46852e-05
-3.23743e-05
8.8361e-05
-3.30643e-05
9.19129e-05
-3.1949e-05
9.51225e-05
-2.88759e-05
9.78484e-05
-2.45265e-05
0.000100053
-1.98317e-05
0.000101656
-1.44243e-05
0.000102541
-7.96722e-06
0.000102732
-1.72969e-06
0.000102348
3.43766e-06
0.000101653
6.22951e-06
0.000100986
5.96981e-06
0.000100677
2.76356e-06
0.000100971
-2.6507e-06
0.000101902
-8.39184e-06
0.0001036
-1.53418e-05
0.000106438
-2.57004e-05
0.000112344
-5.34041e-05
0.000124204
-0.000106972
0.000145384
-0.000190705
0.000178019
-0.000293037
0.000217384
-0.000353236
0.000244134
-0.000240203
0.000251828
-6.93201e-05
0.000242144
8.6569e-05
0.000224017
0.000164359
0.000197739
0.000243885
0.000154991
0.000179337
6.26928e-05
-1.19623e-05
6.36033e-05
-9.11168e-06
6.42848e-05
-6.82241e-06
6.47957e-05
-5.11638e-06
6.51922e-05
-3.97258e-06
6.55282e-05
-3.36668e-06
6.58588e-05
-3.31486e-06
6.62491e-05
-3.91299e-06
6.67794e-05
-5.3146e-06
6.75453e-05
-7.67126e-06
6.865e-05
-1.10575e-05
7.01856e-05
-1.5363e-05
7.22117e-05
-2.02618e-05
7.47396e-05
-2.52743e-05
7.77276e-05
-2.98684e-05
8.10856e-05
-3.35639e-05
8.46851e-05
-3.59738e-05
8.83618e-05
-3.67409e-05
9.19144e-05
-3.55017e-05
9.51245e-05
-3.2086e-05
9.78507e-05
-2.72526e-05
0.000100055
-2.20365e-05
0.000101659
-1.6028e-05
0.000102544
-8.85208e-06
0.000102734
-1.91993e-06
0.000102349
3.82294e-06
0.000101652
6.92607e-06
0.000100985
6.63742e-06
0.000100675
3.07347e-06
0.000100969
-2.94439e-06
0.000101899
-9.32221e-06
0.000103594
-1.70372e-05
0.000106425
-2.85314e-05
0.00011232
-5.9299e-05
0.000124171
-0.000118822
0.000145344
-0.000211878
0.000178011
-0.000325704
0.000217423
-0.000392648
0.000244196
-0.000266976
0.000251888
-7.70123e-05
0.000242182
9.62745e-05
0.000224079
0.000182462
0.000197969
0.000269995
0.000173619
0.00017934
6.26938e-05
-1.31578e-05
6.36041e-05
-1.00219e-05
6.42853e-05
-7.50366e-06
6.4796e-05
-5.62705e-06
6.51923e-05
-4.36891e-06
6.5528e-05
-3.70238e-06
6.58584e-05
-3.64525e-06
6.62483e-05
-4.30292e-06
6.67782e-05
-5.84444e-06
6.75436e-05
-8.43674e-06
6.8648e-05
-1.21618e-05
7.01833e-05
-1.68983e-05
7.22094e-05
-2.22878e-05
7.47375e-05
-2.78025e-05
7.77259e-05
-3.28567e-05
8.10845e-05
-3.69225e-05
8.46847e-05
-3.9574e-05
8.83621e-05
-4.04183e-05
9.19156e-05
-3.90552e-05
9.51263e-05
-3.52966e-05
9.78527e-05
-2.99791e-05
0.000100058
-2.42417e-05
0.000101662
-1.76322e-05
0.000102547
-9.73701e-06
0.000102737
-2.10989e-06
0.00010235
4.20944e-06
0.000101652
7.62412e-06
0.000100983
7.30653e-06
0.000100672
3.38493e-06
0.000100965
-3.238e-06
0.000101895
-1.02518e-05
0.000103588
-1.87297e-05
0.000106411
-3.13552e-05
0.000112294
-6.51817e-05
0.000124133
-0.000130661
0.0001453
-0.000233045
0.000178
-0.000358404
0.000217458
-0.000432107
0.000244259
-0.000293777
0.000251946
-8.46995e-05
0.000242219
0.000106001
0.000224133
0.000200549
0.000198183
0.000295946
0.000192545
0.000179257
6.26953e-05
-1.4353e-05
6.36053e-05
-1.09319e-05
6.42863e-05
-8.18463e-06
6.47967e-05
-6.13746e-06
6.51928e-05
-4.76499e-06
6.55282e-05
-4.03782e-06
6.58582e-05
-3.97528e-06
6.62478e-05
-4.69248e-06
6.67773e-05
-6.3739e-06
6.75422e-05
-9.20173e-06
6.86461e-05
-1.32657e-05
7.01813e-05
-1.84335e-05
7.22073e-05
-2.43138e-05
7.47356e-05
-3.03308e-05
7.77244e-05
-3.58455e-05
8.10836e-05
-4.02817e-05
8.46846e-05
-4.3175e-05
8.83629e-05
-4.40967e-05
9.19174e-05
-4.26097e-05
9.51286e-05
-3.85078e-05
9.78554e-05
-3.27058e-05
0.000100061
-2.64473e-05
0.000101665
-1.92366e-05
0.00010255
-1.06217e-05
0.000102739
-2.29887e-06
0.000102352
4.59696e-06
0.000101652
8.32366e-06
0.000100981
7.97706e-06
0.00010067
3.69676e-06
0.000100963
-3.53104e-06
0.000101892
-1.11808e-05
0.000103581
-2.0419e-05
0.000106396
-3.41703e-05
0.000112265
-7.10508e-05
0.000124092
-0.000142488
0.000145252
-0.000254205
0.000177983
-0.000391136
0.000217488
-0.000471611
0.000244313
-0.000320602
0.000252007
-9.23938e-05
0.000242266
0.000115742
0.000224201
0.000218614
0.000198425
0.000321721
0.0002117
0.00017927
6.26966e-05
-1.5548e-05
6.36063e-05
-1.18416e-05
6.4287e-05
-8.86532e-06
6.47971e-05
-6.64759e-06
6.51929e-05
-5.16079e-06
6.55281e-05
-4.37297e-06
6.58578e-05
-4.30501e-06
6.62469e-05
-5.0816e-06
6.67758e-05
-6.90279e-06
6.75403e-05
-9.96622e-06
6.86438e-05
-1.43691e-05
7.01786e-05
-1.99683e-05
7.22045e-05
-2.63398e-05
7.47331e-05
-3.28594e-05
7.77224e-05
-3.88347e-05
8.10822e-05
-4.36416e-05
8.46841e-05
-4.67769e-05
8.83634e-05
-4.7776e-05
9.19189e-05
-4.61652e-05
9.51307e-05
-4.17197e-05
9.78579e-05
-3.54329e-05
0.000100064
-2.86534e-05
0.000101669
-2.08415e-05
0.000102554
-1.15064e-05
0.000102742
-2.48754e-06
0.000102353
4.98597e-06
0.000101652
9.02498e-06
0.00010098
8.64936e-06
0.000100666
4.0106e-06
0.000100959
-3.82413e-06
0.000101887
-1.21089e-05
0.000103573
-2.21048e-05
0.000106379
-3.69765e-05
0.000112233
-7.6905e-05
0.000124047
-0.000154302
0.000145206
-0.000275365
0.000177968
-0.000423897
0.000217512
-0.000511155
0.000244362
-0.000347452
0.00025206
-0.000100091
0.000242304
0.000125498
0.000224252
0.000236666
0.000198601
0.000347372
0.000231092
0.000179209
6.26984e-05
-1.67428e-05
6.36078e-05
-1.27509e-05
6.42881e-05
-9.54564e-06
6.47979e-05
-7.15737e-06
6.51934e-05
-5.55627e-06
6.55282e-05
-4.70779e-06
6.58575e-05
-4.63432e-06
6.62462e-05
-5.47028e-06
6.67746e-05
-7.43122e-06
6.75385e-05
-1.07301e-05
6.86415e-05
-1.54721e-05
7.0176e-05
-2.15028e-05
7.22019e-05
-2.83657e-05
7.47307e-05
-3.53881e-05
7.77204e-05
-4.18245e-05
8.10811e-05
-4.70023e-05
8.4684e-05
-5.03798e-05
8.83646e-05
-5.14566e-05
9.19212e-05
-4.97219e-05
9.51337e-05
-4.49321e-05
9.78612e-05
-3.81604e-05
0.000100068
-3.086e-05
0.000101673
-2.24467e-05
0.000102557
-1.23907e-05
0.000102745
-2.67501e-06
0.000102355
5.37614e-06
0.000101652
9.72804e-06
0.000100978
9.32331e-06
0.000100664
4.32461e-06
0.000100956
-4.11649e-06
0.000101883
-1.30363e-05
0.000103565
-2.37865e-05
0.000106361
-3.97718e-05
0.000112198
-8.27424e-05
0.000123995
-0.000166099
0.000145158
-0.000296528
0.000177945
-0.000456684
0.000217541
-0.000550751
0.000244415
-0.000374326
0.000252125
-0.000107801
0.000242358
0.000135265
0.000224329
0.000254695
0.000198817
0.000372884
0.000250558
0.000179352
0.000854684
-3.29954e-05
0.000867045
-2.51114e-05
0.000876285
-1.87858e-05
0.000883202
-1.4074e-05
0.000888559
-1.09139e-05
0.000893088
-9.23655e-06
0.00089754
-9.0861e-06
0.000902785
-1.07152e-05
0.00090992
-1.45666e-05
0.000920274
-2.1084e-05
0.000935258
-3.04556e-05
0.000956132
-4.23772e-05
0.000983738
-5.5972e-05
0.00101824
-6.98865e-05
0.00105904
-8.26273e-05
0.00110492
-9.28827e-05
0.00115412
-9.95813e-05
0.0012044
-0.000101735
0.00125299
-9.83126e-05
0.00129685
-8.87897e-05
0.00133407
-7.53789e-05
0.0013642
-6.09931e-05
0.00138614
-4.43824e-05
0.0013982
-2.4452e-05
0.00140072
-5.19552e-06
0.00139522
1.08711e-05
0.00138544
1.95146e-05
0.00137604
1.87158e-05
0.00137152
8.84964e-06
0.00137549
-8.08989e-06
0.00138802
-2.55648e-05
0.00141052
-4.62916e-05
0.0014476
-7.68485e-05
0.00152543
-0.000160567
0.00168441
-0.000325081
0.00197304
-0.000585158
0.00242624
-0.00090989
0.00297178
-0.00109628
0.00334056
-0.00074311
0.00344428
-0.000211519
0.00330793
0.000271611
0.00306238
0.000500249
0.00272121
0.000714055
0.00054186
0.00242991
0.000855304
-4.91318e-05
0.000867528
-3.73349e-05
0.000876633
-2.78914e-05
0.000883432
-2.08724e-05
0.000888684
-1.61664e-05
0.000893107
-1.36593e-05
0.000897423
-1.34023e-05
0.000902504
-1.57963e-05
0.00090945
-2.15125e-05
0.000919584
-3.12175e-05
0.00093437
-4.52418e-05
0.000955132
-6.31396e-05
0.000982718
-8.35575e-05
0.0010173
-0.000104468
0.0010583
-0.000123627
0.00110446
-0.000139045
0.00115402
-0.00014914
0.00120473
-0.000152448
0.00125377
-0.000147345
0.00129787
-0.000132898
0.00133523
-0.000112733
0.00136556
-9.13237e-05
0.00138765
-6.6476e-05
0.0013996
-3.64045e-05
0.00140172
-7.30664e-06
0.00139576
1.68227e-05
0.00138521
3.00672e-05
0.00137505
2.8879e-05
0.00137035
1.35474e-05
0.00137422
-1.19631e-05
0.00138643
-3.77673e-05
0.0014075
-6.73627e-05
0.00144073
-0.000110081
0.00151213
-0.00023197
0.00166521
-0.000478163
0.00194941
-0.000869356
0.00241822
-0.0013787
0.00299381
-0.00167187
0.00337865
-0.00112794
0.00348228
-0.000315157
0.0033394
0.000414495
0.00309794
0.000741706
0.00279844
0.00101356
0.000891963
0.00244834
0.000856268
-6.51349e-05
0.000868328
-4.93955e-05
0.000877255
-3.68178e-05
0.000883863
-2.74811e-05
0.000888918
-2.12211e-05
0.000893127
-1.78683e-05
0.000897203
-1.74784e-05
0.000901993
-2.05858e-05
0.000908598
-2.81176e-05
0.000918392
-4.10118e-05
0.000932887
-5.9737e-05
0.000953459
-8.37112e-05
0.000981022
-0.00011112
0.00101576
-0.000139205
0.00105706
-0.000164926
0.00110365
-0.000185638
0.00115377
-0.000199254
0.00120515
-0.000203837
0.00125487
-0.000197061
0.00129939
-0.000177412
0.00133699
-0.000150338
0.00136765
-0.000121982
0.00139002
-8.88432e-05
0.00140198
-4.83663e-05
0.00140377
-9.10395e-06
0.00139686
2.37416e-05
0.00138528
4.16434e-05
0.00137418
3.99816e-05
0.0013683
1.94267e-05
0.00137193
-1.55919e-05
0.00138371
-4.95545e-05
0.00140249
-8.614e-05
0.0014298
-0.000137395
0.00149152
-0.000293688
0.00163506
-0.000621702
0.00191678
-0.00115107
0.00241352
-0.00187544
0.00302722
-0.00228557
0.0034344
-0.00153512
0.00352432
-0.000405077
0.0033589
0.000579915
0.00307947
0.00102113
0.00272762
0.00136541
0.00117649
0.00244309
0.000857415
-8.08976e-05
0.000869205
-6.11857e-05
0.000877877
-4.54898e-05
0.000884268
-3.38716e-05
0.000889129
-2.60821e-05
0.000893142
-2.18811e-05
0.000896966
-2.13027e-05
0.000901426
-2.50457e-05
0.000907631
-3.43228e-05
0.000916982
-5.03626e-05
0.000931082
-7.3837e-05
0.000951404
-0.000104034
0.000978915
-0.000138631
0.00101383
-0.00017412
0.00105553
-0.000206623
0.00110267
-0.000232787
0.00115349
-0.000250066
0.00120574
-0.000256093
0.00125636
-0.000247674
0.00130132
-0.000222378
0.00133917
-0.000188187
0.00137026
-0.000153074
0.001393
-0.000111582
0.00140478
-6.01398e-05
0.0014059
-1.02301e-05
0.00139801
3.16352e-05
0.00138476
5.48931e-05
0.00137191
5.28319e-05
0.00136555
2.57858e-05
0.00136927
-1.93081e-05
0.00138073
-6.10209e-05
0.00139704
-0.00010245
0.00141702
-0.000157376
0.00146539
-0.000342053
0.00159493
-0.000751249
0.00187044
-0.00142658
0.00240133
-0.00240633
0.00307326
-0.00295751
0.00350853
-0.00197039
0.00359887
-0.000495415
0.00342071
0.000758073
0.00315188
0.00128996
0.00283595
0.00168135
0.00154888
0.00246355
0.000859088
-9.64164e-05
0.000870574
-7.26718e-05
0.000878919
-5.3835e-05
0.000884978
-3.99301e-05
0.000889506
-3.06107e-05
0.000893172
-2.55464e-05
0.000896602
-2.47324e-05
0.000900583
-2.9027e-05
0.00090622
-3.99596e-05
0.000914982
-5.91244e-05
0.000928576
-8.74318e-05
0.000948586
-0.000124043
0.000976067
-0.000166111
0.00101124
-0.000209297
0.00105345
-0.000248826
0.00110132
-0.000280656
0.00115307
-0.000301822
0.00120654
-0.000309558
0.00125839
-0.000299527
0.00130399
-0.000267978
0.00134219
-0.000226386
0.00137386
-0.000184752
0.00139712
-0.000134836
0.00140891
-7.19328e-05
0.0014093
-1.06193e-05
0.00139988
4.10568e-05
0.00138492
6.98573e-05
0.00137057
6.71741e-05
0.00136255
3.38098e-05
0.0013659
-2.26593e-05
0.00137708
-7.21991e-05
0.00138985
-0.000115219
0.00139995
-0.000167479
0.00143096
-0.000373061
0.00154133
-0.000861618
0.00180924
-0.00169449
0.00238774
-0.00298483
0.00313449
-0.00370426
0.00361394
-0.00244984
0.00367506
-0.000556536
0.00345292
0.000980211
0.00310281
0.00164007
0.00270418
0.00207998
0.00179445
0.00245861
0.000860786
-0.000111592
0.000871894
-8.37799e-05
0.000879889
-6.18301e-05
0.000885643
-4.56837e-05
0.000889895
-3.4863e-05
0.000893276
-2.89272e-05
0.000896332
-2.77888e-05
0.000899817
-3.25114e-05
0.000904816
-4.49595e-05
0.000912883
-6.7191e-05
0.000925846
-0.000100395
0.000945436
-0.000143633
0.000972812
-0.000193487
0.00100826
-0.000244741
0.00105106
-0.00029163
0.00109975
-0.000329346
0.00115252
-0.000354595
0.00120729
-0.00036432
0.00126053
-0.000352769
0.00130676
-0.000314211
0.00134532
-0.000264948
0.00137776
-0.000217193
0.00140164
-0.000158707
0.00141324
-8.35354e-05
0.00141295
-1.03274e-05
0.0014018
5.22062e-05
0.00138406
8.75944e-05
0.00136681
8.44222e-05
0.00135767
4.29469e-05
0.00136169
-2.66733e-05
0.00137342
-8.39299e-05
0.00138341
-0.000125206
0.00138307
-0.000167147
0.00139222
-0.000382208
0.00147682
-0.000946217
0.0017301
-0.00194777
0.00236215
-0.00361688
0.00320846
-0.00455058
0.00373098
-0.00297235
0.00378658
-0.000612137
0.00354295
0.00122385
0.00322598
0.00195704
0.00286632
0.00243964
0.00221698
0.00244379
0.000863127
-0.000126365
0.000873742
-9.43947e-05
0.000881234
-6.93225e-05
0.000886508