/*--------------------------------*- C++ -*----------------------------------*\
| =========                 |                                                 |
| \\      /  F ield         | OpenFOAM: The Open Source CFD Toolbox           |
|  \\    /   O peration     | Version:  v1912                                 |
|   \\  /    A nd           | Website:  www.openfoam.com                      |
|    \\/     M anipulation  |                                                 |
\*---------------------------------------------------------------------------*/
FoamFile
{
    version     2.0;
    format      ascii;
    class       volScalarField;
    location    "60";
    object      alpha.water;
}
// * * * * * * * * * * * * * * * * * * * * * * * * * * * * * * * * * * * * * //

dimensions      [0 0 0 0 0 0 0];


internalField   nonuniform List<scalar> 
14268
(
2.49339e-05
1.95964e-05
9.26564e-06
9.7489e-07
7.80533e-20
3.98215e-33
-1.6098e-28
-1.22947e-28
-6.45491e-29
-3.38965e-29
-1.80983e-29
-9.17179e-30
-4.27887e-30
-1.83109e-30
-7.21725e-31
-2.63338e-31
-8.93593e-32
-2.83143e-32
-8.40704e-33
-2.3462e-33
-6.16958e-34
-1.53161e-34
-3.59436e-35
-7.98034e-36
-1.67682e-36
-3.33429e-37
-6.27271e-38
-1.11603e-38
-1.87708e-39
-2.98337e-40
-4.47932e-41
-6.35183e-42
-8.50563e-43
-1.0755e-43
-1.28417e-44
-1.44801e-45
-1.54212e-46
-1.55144e-47
-1.47468e-48
-1.32466e-49
-1.12474e-50
-9.02882e-52
-6.85405e-53
-4.9215e-54
-3.34332e-55
-2.14923e-56
-1.30768e-57
-7.53228e-59
-4.10805e-60
-2.12184e-61
-1.03808e-62
-4.81124e-64
-2.11285e-65
-8.79271e-67
-3.46803e-68
-1.29659e-69
-4.59552e-71
-1.54428e-72
-4.9206e-74
-1.48681e-75
-4.26066e-77
-1.15801e-78
-2.98538e-80
-7.30066e-82
-1.69367e-83
-3.72752e-85
-7.7832e-87
-1.54192e-88
-2.89831e-90
-5.1692e-92
-8.74794e-94
-1.40476e-95
-2.14053e-97
-3.09504e-99
-4.2466e-101
-5.52901e-103
-6.83101e-105
-8.00851e-107
-8.90932e-109
-9.405e-111
-9.4208e-113
-8.95416e-115
-8.07532e-117
-6.91009e-119
-5.61027e-121
-4.32164e-123
-3.15838e-125
-2.18985e-127
-1.44041e-129
-8.98793e-132
-5.32009e-134
-2.98706e-136
-1.5908e-138
-8.03547e-141
-3.84956e-143
-1.74901e-145
-7.53585e-148
-3.07897e-150
-1.19285e-152
-4.38177e-155
-1.52605e-157
-5.03868e-160
-1.57712e-162
-4.67932e-165
-1.31596e-167
-3.50761e-170
-8.86054e-173
-2.12106e-175
-4.81131e-178
-1.03407e-180
-2.10565e-183
-4.06188e-186
-7.42246e-189
-1.2847e-191
-2.10601e-194
-3.26947e-197
-4.80643e-200
-6.69033e-203
-8.81698e-206
-1.1e-208
-1.29906e-211
-1.45206e-214
-1.53608e-217
-1.53774e-220
-1.45657e-223
-1.30537e-226
-1.10668e-229
-8.87521e-233
-6.73163e-236
-4.82884e-239
-3.2753e-242
-2.10062e-245
-1.27359e-248
-7.29962e-252
-3.95421e-255
-2.02444e-258
-9.79352e-262
-4.47662e-265
-1.9331e-268
-7.88541e-272
-3.03797e-275
-1.10535e-278
-3.79752e-282
-1.23181e-285
-3.77191e-289
-1.09019e-292
-2.97369e-296
-7.65367e-300
-1.85824e-303
-4.2555e-307
5.03308e-06
6.855e-06
7.19478e-06
3.80396e-06
5.99602e-07
6.06084e-20
-1.08472e-38
-2.0642e-29
-2.63678e-29
-2.05186e-29
-1.26122e-29
-6.68665e-30
-3.16954e-30
-1.36657e-30
-5.41436e-31
-1.9859e-31
-6.78375e-32
-2.16882e-32
-6.51465e-33
-1.84359e-33
-4.92368e-34
-1.24204e-34
-2.96006e-35
-6.66353e-36
-1.41638e-36
-2.84137e-37
-5.37737e-38
-9.5975e-39
-1.61507e-39
-2.5622e-40
-3.83189e-41
-5.4028e-42
-7.18272e-43
-9.0055e-44
-1.06508e-44
-1.18857e-45
-1.25192e-46
-1.24499e-47
-1.16933e-48
-1.0376e-49
-8.70147e-51
-6.89858e-52
-5.17212e-53
-3.66819e-54
-2.4617e-55
-1.56366e-56
-9.40351e-58
-5.35532e-59
-2.88889e-60
-1.47648e-61
-7.15089e-63
-3.28257e-64
-1.42847e-65
-5.89389e-67
-2.30607e-68
-8.55742e-70
-3.01207e-71
-1.00574e-72
-3.18606e-74
-9.57643e-76
-2.73129e-77
-7.39229e-79
-1.89871e-80
-4.62839e-82
-1.0708e-83
-2.3513e-85
-4.9005e-87
-9.69418e-89
-1.82023e-90
-3.24405e-92
-5.48774e-94
-8.81136e-96
-1.34286e-97
-1.94246e-99
-2.66685e-101
-3.47504e-103
-4.29759e-105
-5.04407e-107
-5.61846e-109
-5.93905e-111
-5.95752e-113
-5.67083e-115
-5.12205e-117
-4.38972e-119
-3.56952e-121
-2.75385e-123
-2.01563e-125
-1.39958e-127
-9.21893e-130
-5.76021e-132
-3.41387e-134
-1.91904e-136
-1.02311e-138
-5.17301e-141
-2.48038e-143
-1.12777e-145
-4.86211e-148
-1.98749e-150
-7.70252e-153
-2.82996e-155
-9.85644e-158
-3.25403e-160
-1.01825e-162
-3.0199e-165
-8.48793e-168
-2.26073e-170
-5.70567e-173
-1.36439e-175
-3.0911e-178
-6.63428e-181
-1.34881e-183
-2.59744e-186
-4.73747e-189
-8.18296e-192
-1.33847e-194
-2.07299e-197
-3.03979e-200
-4.21991e-203
-5.54553e-206
-6.89793e-209
-8.12067e-212
-9.04738e-215
-9.53815e-218
-9.51448e-221
-8.97895e-224
-8.01615e-227
-6.76913e-230
-5.4065e-233
-4.0835e-236
-2.91661e-239
-1.96953e-242
-1.25744e-245
-7.58843e-249
-4.32876e-252
-2.33358e-255
-1.18885e-258
-5.72248e-262
-2.60246e-265
-1.118e-268
-4.53667e-272
-1.73857e-275
-6.29182e-279
-2.14991e-282
-6.9356e-286
-2.11204e-289
-6.07051e-293
-1.64657e-296
-4.21409e-300
-1.01735e-303
-2.31658e-307
1.93583e-06
3.4258e-06
4.61518e-06
4.15178e-06
1.48201e-06
5.24227e-08
7.93766e-39
-1.06552e-29
-1.7659e-29
-1.56337e-29
-9.89692e-30
-5.0686e-30
-2.25235e-30
-9.07918e-31
-3.41481e-31
-1.21764e-31
-4.14403e-32
-1.347e-32
-4.1715e-33
-1.22664e-33
-3.41385e-34
-8.96945e-35
-2.22065e-35
-5.17438e-36
-1.13392e-36
-2.33611e-37
-4.52424e-38
-8.23718e-39
-1.41022e-39
-2.27095e-40
-3.44111e-41
-4.90842e-42
-6.59361e-43
-8.34521e-44
-9.95584e-45
-1.12005e-45
-1.18879e-46
-1.19086e-47
-1.12638e-48
-1.00633e-49
-8.49558e-51
-6.77943e-52
-5.11546e-53
-3.65093e-54
-2.46534e-55
-1.57551e-56
-9.5313e-58
-5.4597e-59
-2.96188e-60
-1.52208e-61
-7.41064e-63
-3.419e-64
-1.49499e-65
-6.19633e-67
-2.4347e-68
-9.07028e-70
-3.2041e-71
-1.07335e-72
-3.4101e-74
-1.02757e-75
-2.93703e-77
-7.96302e-79
-2.04807e-80
-4.99719e-82
-1.15675e-83
-2.54037e-85
-5.29311e-87
-1.04638e-88
-1.96262e-90
-3.49267e-92
-5.89735e-94
-9.44789e-96
-1.43612e-97
-2.0712e-99
-2.83416e-101
-3.67955e-103
-4.53236e-105
-5.29675e-107
-5.87271e-109
-6.17738e-111
-6.16447e-113
-5.83581e-115
-5.24094e-117
-4.46485e-119
-3.60811e-121
-2.76576e-123
-2.01091e-125
-1.38676e-127
-9.07031e-130
-5.62649e-132
-3.31001e-134
-1.84662e-136
-9.76929e-139
-4.90078e-141
-2.33111e-143
-1.05132e-145
-4.49528e-148
-1.82224e-150
-7.00262e-153
-2.5509e-155
-8.80807e-158
-2.88267e-160
-8.94155e-163
-2.62847e-165
-7.32219e-168
-1.93284e-170
-4.83437e-173
-1.14562e-175
-2.57202e-178
-5.47016e-181
-1.10203e-183
-2.1029e-186
-3.80055e-189
-6.50481e-192
-1.05429e-194
-1.61799e-197
-2.35103e-200
-3.23415e-203
-4.21164e-206
-5.19149e-209
-6.05679e-212
-6.68756e-215
-6.98749e-218
-6.90835e-221
-6.46203e-224
-5.71857e-227
-4.78693e-230
-3.79028e-233
-2.83823e-236
-2.00994e-239
-1.34583e-242
-8.5206e-246
-5.0995e-249
-2.88514e-252
-1.54274e-255
-7.79654e-259
-3.72311e-262
-1.67994e-265
-7.16116e-269
-2.88372e-272
-1.0968e-275
-3.93983e-279
-1.33639e-282
-4.28014e-286
-1.29414e-289
-3.69371e-293
-9.95001e-297
-2.5293e-300
-6.06555e-304
-1.37215e-307
1.28253e-06
1.60094e-06
2.5033e-06
2.78044e-06
1.86852e-06
3.43231e-07
6.1546e-20
7.68066e-39
-4.78895e-30
-6.14387e-30
-4.58912e-30
-2.61545e-30
-1.26308e-30
-5.45659e-31
-2.17802e-31
-8.186e-32
-2.92204e-32
-9.91776e-33
-3.19155e-33
-9.69828e-34
-2.77308e-34
-7.44316e-35
-1.87285e-35
-4.41557e-36
-9.75509e-37
-2.02028e-37
-3.92447e-38
-7.15537e-39
-1.22538e-39
-1.97244e-40
-2.98623e-41
-4.25511e-42
-5.70994e-43
-7.21994e-44
-8.60694e-45
-9.67821e-46
-1.02701e-46
-1.0289e-47
-9.73581e-49
-8.70422e-50
-7.35529e-51
-5.87657e-52
-4.44051e-53
-3.17432e-54
-2.14728e-55
-1.37485e-56
-8.33389e-58
-4.78362e-59
-2.60055e-60
-1.33922e-61
-6.53417e-63
-3.02094e-64
-1.32365e-65
-5.49716e-67
-2.16417e-68
-8.07749e-70
-2.85849e-71
-9.59203e-73
-3.05234e-74
-9.21159e-76
-2.6366e-77
-7.15794e-79
-1.84326e-80
-4.50259e-82
-1.04335e-83
-2.29352e-85
-4.78296e-87
-9.4628e-89
-1.77616e-90
-3.16291e-92
-5.34371e-94
-8.56548e-96
-1.30261e-97
-1.87946e-99
-2.57278e-101
-3.34136e-103
-4.11709e-105
-4.81281e-107
-5.33754e-109
-5.6158e-111
-5.60532e-113
-5.30761e-115
-4.76755e-117
-4.06237e-119
-3.28351e-121
-2.51744e-123
-1.83074e-125
-1.26277e-127
-8.26115e-130
-5.12573e-132
-3.01615e-134
-1.68311e-136
-8.9067e-139
-4.46936e-141
-2.12656e-143
-9.59385e-146
-4.10362e-148
-1.6641e-150
-6.39741e-153
-2.33141e-155
-8.05372e-158
-2.63701e-160
-8.18352e-163
-2.40686e-165
-6.70841e-168
-1.7718e-170
-4.43413e-173
-1.0514e-175
-2.36194e-178
-5.02657e-181
-1.01333e-183
-1.93494e-186
-3.49942e-189
-5.99367e-192
-9.72146e-195
-1.49303e-197
-2.17108e-200
-2.98888e-203
-3.89525e-206
-4.80523e-209
-5.61057e-212
-6.19978e-215
-6.48298e-218
-6.41467e-221
-6.00503e-224
-5.31837e-227
-4.45546e-230
-3.53059e-233
-2.64582e-236
-1.87513e-239
-1.2565e-242
-7.96096e-246
-4.76801e-249
-2.69949e-252
-1.44445e-255
-7.30461e-259
-3.4904e-262
-1.57588e-265
-6.72138e-269
-2.70807e-272
-1.0305e-275
-3.70336e-279
-1.25669e-282
-4.02635e-286
-1.21779e-289
-3.47668e-293
-9.3673e-297
-2.38152e-300
-5.71162e-304
-1.2921e-307
1.2887e-06
1.19401e-06
1.46316e-06
1.83468e-06
1.71315e-06
5.90394e-07
1.29509e-08
7.02733e-32
-9.71957e-29
-3.14531e-29
-7.0828e-30
-2.22626e-30
-9.71476e-31
-4.33332e-31
-1.80494e-31
-7.00186e-32
-2.54564e-32
-8.69698e-33
-2.79185e-33
-8.4133e-34
-2.37823e-34
-6.30383e-35
-1.56689e-35
-3.65329e-36
-7.99332e-37
-1.64205e-37
-3.16877e-38
-5.74744e-39
-9.80337e-40
-1.57336e-40
-2.37719e-41
-3.38306e-42
-4.53718e-43
-5.73725e-44
-6.84326e-45
-7.7029e-46
-8.18572e-47
-8.21558e-48
-7.79033e-49
-6.98162e-50
-5.91527e-51
-4.73958e-52
-3.59226e-53
-2.57615e-54
-1.74844e-55
-1.12331e-56
-6.83303e-58
-3.93612e-59
-2.14755e-60
-1.10997e-61
-5.43541e-63
-2.52215e-64
-1.10914e-65
-4.62308e-67
-1.82664e-68
-6.84221e-70
-2.42997e-71
-8.18282e-73
-2.61299e-74
-7.91288e-76
-2.27259e-77
-6.19049e-79
-1.59943e-80
-3.91981e-82
-9.11252e-84
-2.00957e-85
-4.20408e-87
-8.3436e-89
-1.57094e-90
-2.80607e-92
-4.75527e-94
-7.64527e-96
-1.16615e-97
-1.68757e-99
-2.31694e-101
-3.01794e-103
-3.72946e-105
-4.37238e-107
-4.86318e-109
-5.13153e-111
-5.13676e-113
-4.87796e-115
-4.39426e-117
-3.75508e-119
-3.04388e-121
-2.34043e-123
-1.70692e-125
-1.18076e-127
-7.74694e-130
-4.82056e-132
-2.84478e-134
-1.59207e-136
-8.44936e-139
-4.25216e-141
-2.02908e-143
-9.18064e-146
-3.93828e-148
-1.60168e-150
-6.17532e-153
-2.25699e-155
-7.81921e-158
-2.56762e-160
-7.99114e-163
-2.35704e-165
-6.58835e-168
-1.74505e-170
-4.37959e-173
-1.0414e-175
-2.34603e-178
-5.00662e-181
-1.0121e-183
-1.93788e-186
-3.51424e-189
-6.0352e-192
-9.81478e-195
-1.51131e-197
-2.20333e-200
-3.04098e-203
-3.97306e-206
-4.91324e-209
-5.75048e-212
-6.36936e-215
-6.67565e-218
-6.62014e-221
-6.21094e-224
-5.51243e-227
-4.62754e-230
-3.67427e-233
-2.75878e-236
-1.95879e-239
-1.31489e-242
-8.34499e-246
-5.00605e-249
-2.83858e-252
-1.52105e-255
-7.7023e-259
-3.68501e-262
-1.66566e-265
-7.11174e-269
-2.86804e-272
-1.09229e-275
-3.92826e-279
-1.33383e-282
-4.27561e-286
-1.29367e-289
-3.69426e-293
-9.95485e-297
-2.53091e-300
-6.06912e-304
-1.37262e-307
3.65943e-06
1.19419e-06
1.11046e-06
1.14784e-06
1.19663e-06
7.44623e-07
9.73072e-08
2.76202e-27
-1.02976e-29
-8.53256e-30
-3.66074e-30
-2.09823e-30
-1.1112e-30
-5.10742e-31
-2.08091e-31
-7.70885e-32
-2.64881e-32
-8.55361e-33
-2.61372e-33
-7.57287e-34
-2.07874e-34
-5.39561e-35
-1.32173e-35
-3.05114e-36
-6.63142e-37
-1.35638e-37
-2.61066e-38
-4.72896e-39
-8.06399e-40
-1.29497e-40
-1.95915e-41
-2.79356e-42
-3.75591e-43
-4.7634e-44
-5.70079e-45
-6.44071e-46
-6.87174e-47
-6.92594e-48
-6.59637e-49
-5.93844e-50
-5.05475e-51
-4.06908e-52
-3.09861e-53
-2.23258e-54
-1.52234e-55
-9.82564e-57
-6.00398e-58
-3.47394e-59
-1.90362e-60
-9.88052e-62
-4.85829e-63
-2.26333e-64
-9.99158e-66
-4.18014e-67
-1.65755e-68
-6.23031e-70
-2.22002e-71
-7.49976e-73
-2.40225e-74
-7.29626e-76
-2.10148e-77
-5.74012e-79
-1.487e-80
-3.65359e-82
-8.51467e-84
-1.88223e-85
-3.94683e-87
-7.85077e-89
-1.48141e-90
-2.65184e-92
-4.50337e-94
-7.25524e-96
-1.10891e-97
-1.60795e-99
-2.212e-101
-2.88689e-103
-3.57446e-105
-4.19875e-107
-4.67903e-109
-4.94667e-111
-4.96116e-113
-4.7202e-115
-4.26023e-117
-3.64747e-119
-2.96227e-121
-2.28202e-123
-1.66748e-125
-1.15567e-127
-7.59671e-130
-4.73603e-132
-2.80017e-134
-1.57006e-136
-8.34813e-139
-4.20904e-141
-2.01222e-143
-9.12105e-146
-3.91982e-148
-1.59704e-150
-6.16832e-153
-2.25837e-155
-7.83742e-158
-2.57793e-160
-8.03645e-163
-2.37421e-165
-6.64677e-168
-1.7632e-170
-4.43167e-173
-1.05528e-175
-2.38056e-178
-5.08697e-181
-1.02963e-183
-1.97379e-186
-3.58337e-189
-6.16038e-192
-1.00282e-194
-1.54557e-197
-2.25514e-200
-3.11482e-203
-4.07224e-206
-5.03883e-209
-5.9004e-212
-6.53806e-215
-6.85462e-218
-6.79914e-221
-6.37968e-224
-5.66235e-227
-4.75307e-230
-3.77329e-233
-2.83236e-236
-2.01028e-239
-1.34881e-242
-8.55519e-246
-5.12858e-249
-2.90571e-252
-1.5556e-255
-7.86915e-259
-3.76055e-262
-1.69767e-265
-7.23851e-269
-2.91484e-272
-1.10834e-275
-3.97914e-279
-1.34863e-282
-4.3146e-286
-1.30276e-289
-3.71208e-293
-9.97971e-297
-2.53105e-300
-6.05395e-304
-1.36552e-307
6.8982e-06
4.9573e-06
1.63907e-06
7.33148e-07
7.33139e-07
6.95999e-07
2.30277e-07
3.20337e-09
5.6398e-23
-3.04902e-43
-3.92717e-30
-1.98208e-30
-9.28457e-31
-4.22631e-31
-1.76092e-31
-6.68072e-32
-2.33846e-32
-7.64861e-33
-2.35657e-33
-6.86424e-34
-1.89146e-34
-4.92646e-35
-1.21137e-35
-2.80905e-36
-6.13849e-37
-1.2636e-37
-2.44986e-38
-4.47385e-39
-7.69669e-40
-1.24772e-40
-1.90653e-41
-2.74674e-42
-3.73232e-43
-4.78476e-44
-5.78883e-45
-6.61144e-46
-7.13009e-47
-7.26273e-48
-6.98902e-49
-6.35544e-50
-5.4624e-51
-4.43836e-52
-3.40995e-53
-2.47769e-54
-1.70293e-55
-1.10733e-56
-6.81338e-58
-3.96756e-59
-2.18689e-60
-1.14115e-61
-5.63807e-63
-2.63784e-64
-1.16886e-65
-4.90594e-67
-1.95067e-68
-7.34844e-70
-2.62303e-71
-8.87266e-73
-2.84438e-74
-8.64262e-76
-2.48923e-77
-6.79643e-79
-1.75925e-80
-4.31751e-82
-1.00469e-83
-2.21688e-85
-4.63868e-87
-9.2047e-89
-1.73224e-90
-3.09177e-92
-5.2339e-94
-8.40382e-96
-1.27989e-97
-1.84896e-99
-2.53366e-101
-3.29338e-103
-4.06082e-105
-4.74973e-107
-5.26999e-109
-5.54672e-111
-5.53794e-113
-5.24497e-115
-4.71211e-117
-4.01571e-119
-3.24619e-121
-2.4891e-123
-1.81034e-125
-1.24886e-127
-8.17124e-130
-5.07076e-132
-2.98436e-134
-1.66574e-136
-8.81703e-139
-4.42565e-141
-2.10645e-143
-9.50659e-146
-4.06793e-148
-1.65034e-150
-6.3475e-153
-2.31437e-155
-7.99903e-158
-2.62053e-160
-8.13691e-163
-2.39452e-165
-6.67784e-168
-1.76474e-170
-4.41897e-173
-1.04839e-175
-2.35642e-178
-5.01734e-181
-1.01194e-183
-1.93311e-186
-3.49742e-189
-5.99213e-192
-9.7214e-195
-1.49328e-197
-2.17165e-200
-2.98969e-203
-3.89595e-206
-4.80515e-209
-5.60875e-212
-6.19514e-215
-6.47456e-218
-6.40195e-221
-5.98817e-224
-5.29828e-227
-4.43363e-230
-3.50878e-233
-2.62566e-236
-1.85781e-239
-1.24266e-242
-7.85758e-246
-4.69584e-249
-2.65232e-252
-1.41556e-255
-7.1386e-259
-3.40087e-262
-1.53053e-265
-6.50558e-269
-2.61154e-272
-9.89911e-276
-3.54283e-279
-1.19698e-282
-3.81739e-286
-1.14899e-289
-3.26353e-293
-8.7459e-297
-2.21104e-300
-5.27156e-304
-1.18522e-307
4.57028e-06
4.91672e-06
3.52072e-06
1.04621e-06
3.38532e-07
3.85796e-07
3.11496e-07
5.81464e-08
4.30739e-27
-1.6645e-28
-1.25794e-29
-1.97408e-30
-5.86803e-31
-2.67006e-31
-1.20317e-31
-4.92993e-32
-1.8472e-32
-6.40413e-33
-2.0708e-33
-6.2736e-34
-1.78486e-34
-4.77372e-35
-1.20078e-35
-2.84106e-36
-6.32326e-37
-1.32396e-37
-2.60816e-38
-4.83495e-39
-8.43616e-40
-1.38581e-40
-2.14383e-41
-3.12418e-42
-4.29015e-43
-5.55303e-44
-6.77705e-45
-7.80065e-46
-8.47082e-47
-8.68051e-48
-8.39666e-49
-7.66874e-50
-6.61464e-51
-5.38966e-52
-4.14946e-53
-3.01924e-54
-2.07671e-55
-1.35057e-56
-8.30649e-58
-4.83236e-59
-2.65966e-60
-1.38515e-61
-6.82731e-63
-3.18534e-64
-1.40698e-65
-5.88453e-67
-2.33073e-68
-8.74358e-70
-3.10712e-71
-1.04605e-72
-3.33676e-74
-1.00861e-75
-2.8893e-77
-7.84471e-79
-2.0189e-80
-4.92546e-82
-1.13922e-83
-2.49819e-85
-5.19443e-87
-1.02416e-88
-1.9149e-90
-3.39542e-92
-5.70995e-94
-9.10717e-96
-1.37773e-97
-1.97692e-99
-2.69074e-101
-3.47397e-103
-4.25462e-105
-4.94291e-107
-5.44751e-109
-5.69524e-111
-5.64841e-113
-5.31425e-115
-4.74304e-117
-4.01577e-119
-3.22533e-121
-2.45734e-123
-1.77596e-125
-1.2175e-127
-7.91709e-130
-4.88321e-132
-2.85678e-134
-1.58512e-136
-8.34154e-139
-4.16304e-141
-1.97031e-143
-8.84294e-146
-3.76336e-148
-1.51862e-150
-5.81017e-153
-2.10752e-155
-7.2472e-158
-2.36241e-160
-7.29962e-163
-2.13782e-165
-5.93391e-168
-1.5609e-170
-3.89082e-173
-9.18975e-176
-2.05652e-178
-4.36002e-181
-8.75667e-184
-1.66587e-186
-3.00168e-189
-5.12228e-192
-8.27766e-195
-1.26662e-197
-1.83507e-200
-2.51694e-203
-3.26794e-206
-4.01615e-209
-4.6713e-212
-5.14183e-215
-5.35548e-218
-5.27774e-221
-4.92044e-224
-4.33954e-227
-3.61986e-230
-2.85586e-233
-2.13055e-236
-1.50298e-239
-1.00236e-242
-6.31987e-246
-3.76621e-249
-2.12135e-252
-1.1291e-255
-5.67891e-259
-2.69843e-262
-1.21132e-265
-5.13598e-269
-2.05674e-272
-7.77768e-276
-2.77717e-279
-9.36187e-283
-2.97914e-286
-8.94782e-290
-2.53625e-293
-6.78328e-297
-1.71155e-300
-4.07301e-304
-9.14082e-308
1.06611e-06
2.34983e-06
2.73907e-06
1.61341e-06
3.10731e-07
1.6669e-07
1.44763e-07
7.38111e-08
6.51226e-09
1.06425e-21
9.32477e-41
-3.75817e-31
-3.25798e-31
-1.90216e-31
-9.23971e-32
-3.99854e-32
-1.57628e-32
-5.71341e-33
-1.91629e-33
-5.97865e-34
-1.74206e-34
-4.75373e-35
-1.21685e-35
-2.9245e-36
-6.60185e-37
-1.40012e-37
-2.79005e-38
-5.22483e-39
-9.19684e-40
-1.52205e-40
-2.36908e-41
-3.46935e-42
-4.78179e-43
-6.20549e-44
-7.5852e-45
-8.73631e-46
-9.48456e-47
-9.70933e-48
-9.37546e-49
-8.54223e-50
-7.34622e-51
-5.96488e-52
-4.57418e-53
-3.31376e-54
-2.2685e-55
-1.46785e-56
-8.97956e-58
-5.19469e-59
-2.84244e-60
-1.47145e-61
-7.20784e-63
-3.3416e-64
-1.46648e-65
-6.09318e-67
-2.39734e-68
-8.93305e-70
-3.15294e-71
-1.05424e-72
-3.33985e-74
-1.00261e-75
-2.85234e-77
-7.69104e-79
-1.96575e-80
-4.76288e-82
-1.09408e-83
-2.38289e-85
-4.92116e-87
-9.6376e-89
-1.78994e-90
-3.15283e-92
-5.26722e-94
-8.34646e-96
-1.25453e-97
-1.78871e-99
-2.41929e-101
-3.10413e-103
-3.77841e-105
-4.36317e-107
-4.77999e-109
-4.96808e-111
-4.8988e-113
-4.58282e-115
-4.06738e-117
-3.4248e-119
-2.73583e-121
-2.07334e-123
-1.49063e-125
-1.01667e-127
-6.57792e-130
-4.03722e-132
-2.35043e-134
-1.29798e-136
-6.79869e-139
-3.37755e-141
-1.59139e-143
-7.11098e-146
-3.01325e-148
-1.2108e-150
-4.6133e-153
-1.66659e-155
-5.7082e-158
-1.85349e-160
-5.70522e-163
-1.66462e-165
-4.60352e-168
-1.20659e-170
-2.99707e-173
-7.05441e-176
-1.57334e-178
-3.32461e-181
-6.65557e-184
-1.26215e-186
-2.26721e-189
-3.85724e-192
-6.21494e-195
-9.48253e-198
-1.36996e-200
-1.87386e-203
-2.42649e-206
-2.97431e-209
-3.45079e-212
-3.78909e-215
-3.93718e-218
-3.87113e-221
-3.60106e-224
-3.16913e-227
-2.63812e-230
-2.07722e-233
-1.54673e-236
-1.08916e-239
-7.25133e-243
-4.5645e-246
-2.71594e-249
-1.52756e-252
-8.11956e-256
-4.07865e-259
-1.93578e-262
-8.68045e-266
-3.67694e-269
-1.47118e-272
-5.55911e-276
-1.98367e-279
-6.68324e-283
-2.12578e-286
-6.3825e-290
-1.80867e-293
-4.83664e-297
-1.22033e-300
-2.90422e-304
-6.51884e-308
4.05179e-07
1.02822e-06
1.71875e-06
1.62731e-06
5.63951e-07
4.64473e-08
4.05718e-08
2.97314e-08
8.37162e-09
2.3838e-11
1.778e-25
1.21681e-44
-1.96252e-31
-1.32841e-31
-6.88104e-32
-3.12371e-32
-1.28503e-32
-4.84104e-33
-1.68008e-33
-5.39912e-34
-1.61351e-34
-4.498e-35
-1.17202e-35
-2.85789e-36
-6.52641e-37
-1.39652e-37
-2.80128e-38
-5.26982e-39
-9.30193e-40
-1.54137e-40
-2.399e-41
-3.50889e-42
-4.82568e-43
-6.24341e-44
-7.60287e-45
-8.71833e-46
-9.41865e-47
-9.5903e-48
-9.20753e-49
-8.33858e-50
-7.1259e-51
-5.7483e-52
-4.3786e-53
-3.15039e-54
-2.14169e-55
-1.37606e-56
-8.35831e-58
-4.80081e-59
-2.60812e-60
-1.34048e-61
-6.51927e-63
-3.00079e-64
-1.30755e-65
-5.39439e-67
-2.10749e-68
-7.79826e-70
-2.7334e-71
-9.07708e-73
-2.85617e-74
-8.51676e-76
-2.40696e-77
-6.44786e-79
-1.63743e-80
-3.9423e-82
-8.99952e-84
-1.94809e-85
-3.99901e-87
-7.78542e-89
-1.43756e-90
-2.51776e-92
-4.18281e-94
-6.5919e-96
-9.85514e-98
-1.39779e-99
-1.88088e-101
-2.40123e-103
-2.90853e-105
-3.34261e-107
-3.64483e-109
-3.77097e-111
-3.70183e-113
-3.44799e-115
-3.04721e-117
-2.55517e-119
-2.03289e-121
-1.53454e-123
-1.09901e-125
-7.4675e-128
-4.81378e-130
-2.94389e-132
-1.70791e-134
-9.39935e-137
-4.90687e-139
-2.42976e-141
-1.14118e-143
-5.08339e-146
-2.14752e-148
-8.60366e-151
-3.26861e-153
-1.17747e-155
-4.02178e-158
-1.30237e-160
-3.99828e-163
-1.16359e-165
-3.20988e-168
-8.39266e-171
-2.07973e-173
-4.88392e-176
-1.08682e-178
-2.29158e-181
-4.57792e-184
-8.66391e-187
-1.55326e-189
-2.63762e-192
-4.24218e-195
-6.46141e-198
-9.31956e-201
-1.27276e-203
-1.64568e-206
-2.01442e-209
-2.33409e-212
-2.55982e-215
-2.65691e-218
-2.60968e-221
-2.42539e-224
-2.13274e-227
-1.77413e-230
-1.39608e-233
-1.03903e-236
-7.31371e-240
-4.86794e-243
-3.06374e-246
-1.82289e-249
-1.02535e-252
-5.45115e-256
-2.73909e-259
-1.30057e-262
-5.83521e-266
-2.47338e-269
-9.90404e-273
-3.74579e-276
-1.33798e-279
-4.51295e-283
-1.43725e-286
-4.32112e-290
-1.22631e-293
-3.28448e-297
-8.30089e-301
-1.97899e-304
-4.45032e-308
2.59827e-07
5.28954e-07
1.0598e-06
1.25943e-06
7.17315e-07
9.45007e-08
3.48211e-09
4.56418e-09
2.89257e-09
4.5009e-10
3.52344e-23
1.6005e-42
-6.42384e-32
-6.51924e-32
-4.16931e-32
-2.13811e-32
-9.51057e-33
-3.78799e-33
-1.3723e-33
-4.56388e-34
-1.40168e-34
-3.99147e-35
-1.05677e-35
-2.60643e-36
-5.99752e-37
-1.28908e-37
-2.59076e-38
-4.87326e-39
-8.58703e-40
-1.4186e-40
-2.19892e-41
-3.2005e-42
-4.37708e-43
-5.62852e-44
-6.80947e-45
-7.75512e-46
-8.31863e-47
-8.40852e-48
-8.013e-49
-7.20222e-50
-6.10818e-51
-4.88987e-52
-3.6964e-53
-2.63938e-54
-1.78077e-55
-1.13559e-56
-6.84653e-58
-3.90361e-59
-2.10532e-60
-1.07431e-61
-5.18791e-63
-2.37137e-64
-1.02622e-65
-4.20528e-67
-1.63208e-68
-5.99996e-70
-2.08971e-71
-6.89627e-73
-2.15673e-74
-6.39274e-76
-1.79614e-77
-4.78414e-79
-1.20817e-80
-2.89301e-82
-6.56924e-84
-1.41468e-85
-2.88946e-87
-5.59783e-89
-1.02872e-90
-1.79339e-92
-2.96604e-94
-4.65399e-96
-6.9285e-98
-9.78667e-100
-1.31167e-101
-1.66811e-103
-2.01298e-105
-2.30504e-107
-2.50464e-109
-2.58253e-111
-2.52685e-113
-2.34608e-115
-2.06698e-117
-1.72804e-119
-1.37084e-121
-1.03187e-123
-7.36997e-126
-4.99447e-128
-3.21133e-130
-1.95901e-132
-1.13378e-134
-6.22507e-137
-3.24236e-139
-1.60199e-141
-7.50789e-144
-3.33744e-146
-1.40709e-148
-5.62626e-151
-2.13343e-153
-7.67135e-156
-2.61561e-158
-8.45575e-161
-2.59168e-163
-7.53056e-166
-2.07426e-168
-5.41568e-171
-1.3402e-173
-3.14321e-176
-6.98616e-179
-1.47138e-181
-2.93631e-184
-5.55174e-187
-9.9444e-190
-1.68735e-192
-2.71194e-195
-4.12818e-198
-5.95128e-201
-8.12436e-204
-1.05017e-206
-1.28524e-209
-1.48908e-212
-1.63315e-215
-1.69534e-218
-1.66565e-221
-1.54862e-224
-1.36245e-227
-1.13406e-230
-8.93068e-234
-6.6524e-237
-4.68723e-240
-3.12323e-243
-1.96809e-246
-1.17257e-249
-6.60519e-253
-3.51713e-256
-1.77029e-259
-8.42082e-263
-3.78537e-266
-1.60775e-269
-6.45147e-273
-2.4454e-276
-8.75499e-280
-2.96006e-283
-9.45024e-287
-2.84843e-290
-8.10474e-294
-2.1765e-297
-5.51558e-301
-1.31857e-304
-2.97344e-308
2.31248e-07
3.02628e-07
5.96103e-07
8.84139e-07
8.00048e-07
2.16391e-07
4.28737e-10
1.22345e-10
2.86353e-10
1.63695e-10
1.63305e-11
5.21414e-44
-2.7887e-32
-3.35574e-32
-2.44812e-32
-1.39216e-32
-6.69834e-33
-2.829e-33
-1.07051e-33
-3.67651e-34
-1.15576e-34
-3.34529e-35
-8.9525e-36
-2.22202e-36
-5.12741e-37
-1.10218e-37
-2.21073e-38
-4.14353e-39
-7.26626e-40
-1.19356e-40
-1.8383e-41
-2.65719e-42
-3.60764e-43
-4.60416e-44
-5.5272e-45
-6.24545e-46
-6.64633e-47
-6.66492e-48
-6.30116e-49
-5.61901e-50
-4.72827e-51
-3.75596e-52
-2.8176e-53
-1.99678e-54
-1.33726e-55
-8.46578e-57
-5.06772e-58
-2.86926e-59
-1.5369e-60
-7.79016e-62
-3.73739e-63
-1.69746e-64
-7.30022e-66
-2.97339e-67
-1.14717e-68
-4.1931e-70
-1.45225e-71
-4.76658e-73
-1.48284e-74
-4.3728e-76
-1.22252e-77
-3.24063e-79
-8.1457e-81
-1.94176e-82
-4.39005e-84
-9.41427e-86
-1.91506e-87
-3.69559e-89
-6.76584e-91
-1.17523e-92
-1.93688e-94
-3.02893e-96
-4.49465e-98
-6.32905e-100
-8.45724e-102
-1.07245e-103
-1.2906e-105
-1.47392e-107
-1.59747e-109
-1.64311e-111
-1.60389e-113
-1.48578e-115
-1.30618e-117
-1.0897e-119
-8.62713e-122
-6.48136e-124
-4.62058e-126
-3.12567e-128
-2.00628e-130
-1.22188e-132
-7.06044e-135
-3.87067e-137
-2.01313e-139
-9.9327e-142
-4.64891e-144
-2.06395e-146
-8.69142e-149
-3.47135e-151
-1.31492e-153
-4.72349e-156
-1.60904e-158
-5.19732e-161
-1.59176e-163
-4.62195e-166
-1.27233e-168
-3.3202e-171
-8.21286e-174
-1.92554e-176
-4.2787e-179
-9.01019e-182
-1.79801e-184
-3.39973e-187
-6.09067e-190
-1.03374e-192
-1.66208e-195
-2.53131e-198
-3.65142e-201
-4.98835e-204
-6.45352e-207
-7.90566e-210
-9.16944e-213
-1.00687e-215
-1.04659e-218
-1.02974e-221
-9.58883e-225
-8.45019e-228
-7.04624e-231
-5.5594e-234
-4.14945e-237
-2.92983e-240
-1.95654e-243
-1.23574e-246
-7.38001e-250
-4.16753e-253
-2.22479e-256
-1.12275e-259
-5.35503e-263
-2.41384e-266
-1.0281e-269
-4.13721e-273
-1.57271e-276
-5.64697e-280
-1.91483e-283
-6.13123e-287
-1.85347e-290
-5.28924e-294
-1.42456e-297
-3.62052e-301
-8.68012e-305
-1.96295e-308
2.59745e-07
2.11492e-07
3.10529e-07
5.22234e-07
6.06788e-07
3.32043e-07
3.61353e-08
5.8532e-12
5.85137e-12
1.82905e-11
7.53333e-12
2.81987e-13
6.3732e-27
6.2258e-46
-1.06989e-32
-8.30056e-33
-4.46562e-33
-2.00934e-33
-7.92778e-34
-2.80073e-34
-8.97249e-35
-2.62866e-35
-7.08417e-36
-1.76382e-36
-4.0708e-37
-8.73228e-38
-1.74487e-38
-3.25387e-39
-5.67197e-40
-9.25484e-41
-1.41524e-41
-2.03041e-42
-2.73553e-43
-3.46392e-44
-4.12568e-45
-4.62514e-46
-4.88346e-47
-4.85907e-48
-4.55859e-49
-4.03433e-50
-3.36953e-51
-2.65709e-52
-1.979e-53
-1.39267e-54
-9.26309e-56
-5.82513e-57
-3.46435e-58
-1.94906e-59
-1.03759e-60
-5.22789e-62
-2.49359e-63
-1.12619e-64
-4.81701e-66
-1.95164e-67
-7.4913e-69
-2.72471e-70
-9.39196e-72
-3.0685e-73
-9.50366e-75
-2.79064e-76
-7.76993e-78
-2.05153e-79
-5.13727e-81
-1.22017e-82
-2.74905e-84
-5.87557e-86
-1.1914e-87
-2.29209e-89
-4.18409e-91
-7.2475e-93
-1.19128e-94
-1.85821e-96
-2.75074e-98
-3.86445e-100
-5.15253e-102
-6.52014e-104
-7.83073e-106
-8.92607e-108
-9.65677e-110
-9.91556e-112
-9.66303e-114
-8.93751e-116
-7.8455e-118
-6.53608e-120
-5.16771e-122
-3.8775e-124
-2.761e-126
-1.86564e-128
-1.19625e-130
-7.27835e-133
-4.20187e-135
-2.30162e-137
-1.19615e-139
-5.89767e-142
-2.75864e-144
-1.22408e-146
-5.15226e-149
-2.05702e-151
-7.7895e-154
-2.79758e-156
-9.52868e-159
-3.07775e-161
-9.42671e-164
-2.73767e-166
-7.53825e-169
-1.96788e-171
-4.87007e-174
-1.14248e-176
-2.54045e-179
-5.35409e-182
-1.06941e-184
-2.02418e-187
-3.63056e-190
-6.1698e-193
-9.93383e-196
-1.51518e-198
-2.18919e-201
-2.99592e-204
-3.88303e-207
-4.76606e-210
-5.53931e-213
-6.09567e-216
-6.35045e-219
-6.26287e-222
-5.84608e-225
-5.16482e-228
-4.31786e-231
-3.41579e-234
-2.55642e-237
-1.81003e-240
-1.21214e-243
-7.67768e-247
-4.59846e-250
-2.60433e-253
-1.39436e-256
-7.05732e-260
-3.3759e-263
-1.52617e-266
-6.51905e-270
-2.63091e-273
-1.00295e-276
-3.61126e-280
-1.22791e-283
-3.94232e-287
-1.1949e-290
-3.4186e-294
-9.23024e-298
-2.3515e-301
-5.65071e-305
-1.2807e-308
6.01338e-07
1.40526e-07
1.61393e-07
2.6211e-07
3.71161e-07
3.71287e-07
1.10521e-07
6.15855e-10
7.50515e-14
2.43888e-13
7.7805e-13
2.19667e-13
6.57858e-16
5.19909e-30
-3.50496e-49
-4.55376e-33
-2.73726e-33
-1.3109e-33
-5.40589e-34
-1.9698e-34
-6.44388e-35
-1.91316e-35
-5.19527e-36
-1.29789e-36
-2.99625e-37
-6.4144e-38
-1.27704e-38
-2.36996e-39
-4.10773e-40
-6.66042e-41
-1.01169e-41
-1.44134e-42
-1.92802e-43
-2.42377e-44
-2.86589e-45
-3.18961e-46
-3.34361e-47
-3.30335e-48
-3.07747e-49
-2.70491e-50
-2.24404e-51
-1.75798e-52
-1.30098e-53
-9.09837e-55
-6.01502e-56
-3.76035e-57
-2.22364e-58
-1.24413e-59
-6.58781e-61
-3.30214e-62
-1.56721e-63
-7.044e-65
-2.99896e-66
-1.20963e-67
-4.62322e-69
-1.67462e-70
-5.74955e-72
-1.87136e-73
-5.77488e-75
-1.68985e-76
-4.68941e-78
-1.23425e-79
-3.08139e-81
-7.29768e-83
-1.63967e-84
-3.49537e-86
-7.07011e-88
-1.35701e-89
-2.47164e-91
-4.27225e-93
-7.00835e-95
-1.09113e-96
-1.61234e-98
-2.26134e-100
-3.0103e-102
-3.80362e-104
-4.56176e-106
-5.19299e-108
-5.61117e-110
-5.75489e-112
-5.6023e-114
-5.17651e-116
-4.53984e-118
-3.77895e-120
-2.9855e-122
-2.23857e-124
-1.593e-126
-1.07583e-128
-6.89506e-131
-4.19356e-133
-2.42027e-135
-1.32544e-137
-6.88745e-140
-3.39576e-142
-1.58846e-144
-7.04943e-147
-2.96791e-149
-1.18534e-151
-4.49066e-154
-1.61371e-156
-5.50003e-159
-1.77788e-161
-5.45022e-164
-1.58442e-166
-4.36761e-169
-1.14157e-171
-2.82895e-174
-6.64618e-177
-1.48019e-179
-3.12482e-182
-6.25266e-185
-1.18576e-187
-2.13104e-190
-3.62915e-193
-5.85611e-196
-8.95273e-199
-1.29662e-201
-1.77881e-204
-2.3114e-207
-2.84444e-210
-3.31478e-213
-3.65767e-216
-3.82113e-219
-3.77904e-222
-3.53759e-225
-3.13431e-228
-2.62787e-231
-2.08487e-234
-1.56484e-237
-1.11114e-240
-7.46229e-244
-4.73995e-247
-2.84686e-250
-1.61674e-253
-8.67938e-257
-4.40451e-260
-2.11234e-263
-9.57331e-267
-4.09919e-270
-1.6582e-273
-6.33562e-277
-2.28618e-280
-7.78965e-284
-2.50587e-287
-7.60937e-291
-2.18087e-294
-5.8981e-298
-1.50492e-301
-3.62153e-305
-8.21873e-309
1.29599e-06
1.40801e-07
1.1504e-07
1.24965e-07
1.6904e-07
1.90923e-07
1.48403e-07
2.87776e-08
3.08375e-14
3.0857e-14
3.76675e-14
2.2271e-14
1.83357e-15
7.99243e-35
-1.37882e-33
-1.57865e-33
-1.0704e-33
-5.57574e-34
-2.42544e-34
-9.15935e-35
-3.06932e-35
-9.25696e-36
-2.53777e-36
-6.37055e-37
-1.47255e-37
-3.14798e-38
-6.24573e-39
-1.15334e-39
-1.98684e-40
-3.19928e-41
-4.82315e-42
-6.8172e-43
-9.04481e-44
-1.12762e-44
-1.32219e-45
-1.45929e-46
-1.51711e-47
-1.48664e-48
-1.37391e-49
-1.19812e-50
-9.86385e-52
-7.66981e-53
-5.63496e-54
-3.91316e-55
-2.56946e-56
-1.59579e-57
-9.37673e-59
-5.21427e-60
-2.74479e-61
-1.36805e-62
-6.45762e-64
-2.88735e-65
-1.22316e-66
-4.91008e-68
-1.8681e-69
-6.73723e-71
-2.30355e-72
-7.46804e-74
-2.29596e-75
-6.6946e-77
-1.85154e-78
-4.85772e-80
-1.20911e-81
-2.85542e-83
-6.39851e-85
-1.36057e-86
-2.74555e-88
-5.25805e-90
-9.55717e-92
-1.64878e-93
-2.69988e-95
-4.19649e-97
-6.19158e-99
-8.6716e-101
-1.15289e-102
-1.45503e-104
-1.74324e-106
-1.98263e-108
-2.14057e-110
-2.19391e-112
-2.13454e-114
-1.97144e-116
-1.72843e-118
-1.43846e-120
-1.13637e-122
-8.52119e-125
-6.06504e-127