/*--------------------------------*- C++ -*----------------------------------*\
| =========                 |                                                 |
| \\      /  F ield         | OpenFOAM: The Open Source CFD Toolbox           |
|  \\    /   O peration     | Version:  v1912                                 |
|   \\  /    A nd           | Website:  www.openfoam.com                      |
|    \\/     M anipulation  |                                                 |
\*---------------------------------------------------------------------------*/
FoamFile
{
    version     2.0;
    format      ascii;
    class       volSymmTensorField;
    location    "60";
    object      R;
}
// * * * * * * * * * * * * * * * * * * * * * * * * * * * * * * * * * * * * * //

dimensions      [0 2 -2 0 0 0 0];


internalField   nonuniform List<symmTensor> 
14268
(
(1.10521e-05 -2.11865e-06 0 5.80387e-06 0 1.01336e-05)
(2.83314e-06 -3.84565e-07 0 1.20494e-06 0 2.68469e-06)
(6.5385e-07 -5.476e-08 0 3.70987e-07 0 6.43752e-07)
(1.61082e-07 -6.8477e-09 0 1.37104e-07 0 1.61796e-07)
(4.0437e-08 -2.94737e-10 0 3.98917e-08 0 4.08447e-08)
(9.68735e-09 1.19302e-10 0 9.88574e-09 0 9.74631e-09)
(2.18642e-09 3.38936e-11 0 2.23308e-09 0 2.18225e-09)
(4.66284e-10 6.29719e-12 0 4.73126e-10 0 4.62182e-10)
(9.46079e-11 1.15795e-12 0 9.53246e-11 0 9.33182e-11)
(1.8477e-11 2.15424e-13 0 1.84526e-11 0 1.81448e-11)
(3.70557e-12 4.60854e-14 0 3.63798e-12 0 3.61489e-12)
(1.03937e-12 1.74644e-14 0 9.77578e-13 0 9.98945e-13)
(6.36055e-13 1.37685e-14 0 5.72928e-13 0 6.02786e-13)
(6.21173e-13 1.40264e-14 0 5.54462e-13 0 5.87157e-13)
(6.77768e-13 1.51438e-14 0 6.05075e-13 0 6.40984e-13)
(7.75479e-13 1.67824e-14 0 6.94449e-13 0 7.34588e-13)
(8.74741e-13 1.82669e-14 0 7.86168e-13 0 8.3008e-13)
(9.66095e-13 1.95017e-14 0 8.71185e-13 0 9.18258e-13)
(1.05685e-12 2.0621e-14 0 9.56126e-13 0 1.0061e-12)
(1.14797e-12 2.16454e-14 0 1.04186e-12 0 1.09453e-12)
(1.23961e-12 2.25792e-14 0 1.12851e-12 0 1.18367e-12)
(1.33144e-12 2.3421e-14 0 1.21575e-12 0 1.2732e-12)
(1.42311e-12 2.41704e-14 0 1.30326e-12 0 1.36279e-12)
(1.51439e-12 2.48288e-14 0 1.39077e-12 0 1.4522e-12)
(1.60516e-12 2.53991e-14 0 1.47817e-12 0 1.54128e-12)
(1.69527e-12 2.58842e-14 0 1.56529e-12 0 1.62991e-12)
(1.78462e-12 2.62874e-14 0 1.65201e-12 0 1.71795e-12)
(1.8731e-12 2.66122e-14 0 1.73822e-12 0 1.8053e-12)
(1.96063e-12 2.68624e-14 0 1.82381e-12 0 1.89187e-12)
(2.04714e-12 2.70416e-14 0 1.9087e-12 0 1.97758e-12)
(2.13258e-12 2.71538e-14 0 1.99283e-12 0 2.06238e-12)
(2.2169e-12 2.72026e-14 0 2.07612e-12 0 2.14619e-12)
(2.30007e-12 2.71918e-14 0 2.15853e-12 0 2.22899e-12)
(2.38205e-12 2.71251e-14 0 2.24001e-12 0 2.31073e-12)
(2.46282e-12 2.70059e-14 0 2.32053e-12 0 2.39139e-12)
(2.54237e-12 2.68377e-14 0 2.40004e-12 0 2.47093e-12)
(2.62067e-12 2.66237e-14 0 2.47853e-12 0 2.54934e-12)
(2.69772e-12 2.63673e-14 0 2.55596e-12 0 2.62659e-12)
(2.77351e-12 2.60714e-14 0 2.63232e-12 0 2.70267e-12)
(2.84802e-12 2.5739e-14 0 2.70758e-12 0 2.77757e-12)
(2.92127e-12 2.53728e-14 0 2.78174e-12 0 2.85128e-12)
(2.99323e-12 2.49757e-14 0 2.85477e-12 0 2.92379e-12)
(3.06392e-12 2.455e-14 0 2.92666e-12 0 2.99509e-12)
(3.13332e-12 2.40984e-14 0 2.99739e-12 0 3.06517e-12)
(3.20145e-12 2.36232e-14 0 3.06698e-12 0 3.13404e-12)
(3.26829e-12 2.31266e-14 0 3.13539e-12 0 3.20167e-12)
(3.33382e-12 2.26106e-14 0 3.20259e-12 0 3.26805e-12)
(3.39822e-12 2.20778e-14 0 3.26875e-12 0 3.33334e-12)
(3.46101e-12 2.15289e-14 0 3.3334e-12 0 3.39706e-12)
(3.52293e-12 2.09682e-14 0 3.39725e-12 0 3.45995e-12)
(3.58325e-12 2.03944e-14 0 3.45956e-12 0 3.52128e-12)
(3.64271e-12 1.98115e-14 0 3.5211e-12 0 3.58178e-12)
(3.70064e-12 1.92191e-14 0 3.58114e-12 0 3.64078e-12)
(3.75732e-12 1.86209e-14 0 3.63998e-12 0 3.69854e-12)
(3.81275e-12 1.80174e-14 0 3.69762e-12 0 3.75508e-12)
(3.86697e-12 1.74098e-14 0 3.75408e-12 0 3.81043e-12)
(3.91997e-12 1.67994e-14 0 3.80935e-12 0 3.86457e-12)
(3.97175e-12 1.61874e-14 0 3.86344e-12 0 3.91752e-12)
(4.02234e-12 1.55749e-14 0 3.91634e-12 0 3.96926e-12)
(4.07172e-12 1.49632e-14 0 3.96806e-12 0 4.01982e-12)
(4.11992e-12 1.43531e-14 0 4.0186e-12 0 4.0692e-12)
(4.16695e-12 1.37456e-14 0 4.06797e-12 0 4.1174e-12)
(4.21281e-12 1.31416e-14 0 4.11618e-12 0 4.16444e-12)
(4.25753e-12 1.25418e-14 0 4.16324e-12 0 4.21033e-12)
(4.30111e-12 1.19471e-14 0 4.20915e-12 0 4.25508e-12)
(4.34357e-12 1.13581e-14 0 4.25394e-12 0 4.29871e-12)
(4.38492e-12 1.07754e-14 0 4.29761e-12 0 4.34123e-12)
(4.42519e-12 1.01996e-14 0 4.34017e-12 0 4.38264e-12)
(4.46438e-12 9.63132e-15 0 4.38164e-12 0 4.42298e-12)
(4.50251e-12 9.07098e-15 0 4.42202e-12 0 4.46224e-12)
(4.53959e-12 8.51903e-15 0 4.46134e-12 0 4.50044e-12)
(4.57565e-12 7.97588e-15 0 4.4996e-12 0 4.5376e-12)
(4.6107e-12 7.44188e-15 0 4.53682e-12 0 4.57374e-12)
(4.64475e-12 6.91729e-15 0 4.57303e-12 0 4.60887e-12)
(4.67784e-12 6.4024e-15 0 4.60823e-12 0 4.64301e-12)
(4.70996e-12 5.89744e-15 0 4.64243e-12 0 4.67618e-12)
(4.74115e-12 5.40261e-15 0 4.67567e-12 0 4.7084e-12)
(4.77142e-12 4.91803e-15 0 4.70794e-12 0 4.73967e-12)
(4.80079e-12 4.44395e-15 0 4.73928e-12 0 4.77002e-12)
(4.82927e-12 3.98043e-15 0 4.7697e-12 0 4.79948e-12)
(4.85689e-12 3.5275e-15 0 4.79921e-12 0 4.82805e-12)
(4.88366e-12 3.08522e-15 0 4.82785e-12 0 4.85575e-12)
(4.9096e-12 2.65363e-15 0 4.85561e-12 0 4.8826e-12)
(4.93474e-12 2.23274e-15 0 4.88252e-12 0 4.90863e-12)
(4.95908e-12 1.82251e-15 0 4.9086e-12 0 4.93384e-12)
(4.98265e-12 1.42294e-15 0 4.93387e-12 0 4.95826e-12)
(5.00547e-12 1.03393e-15 0 4.95834e-12 0 4.9819e-12)
(5.02755e-12 6.55455e-16 0 4.98204e-12 0 5.0048e-12)
(5.04891e-12 2.87365e-16 0 5.00497e-12 0 5.02695e-12)
(5.06958e-12 -7.03469e-17 0 5.02718e-12 0 5.04838e-12)
(5.08955e-12 -4.17916e-16 0 5.04865e-12 0 5.06911e-12)
(5.10888e-12 -7.55327e-16 0 5.06943e-12 0 5.08916e-12)
(5.12754e-12 -1.08287e-15 0 5.08951e-12 0 5.10853e-12)
(5.14559e-12 -1.40053e-15 0 5.10893e-12 0 5.12726e-12)
(5.16301e-12 -1.70862e-15 0 5.12769e-12 0 5.14536e-12)
(5.17984e-12 -2.00716e-15 0 5.14582e-12 0 5.16284e-12)
(5.1961e-12 -2.29643e-15 0 5.16333e-12 0 5.17972e-12)
(5.21178e-12 -2.57653e-15 0 5.18024e-12 0 5.19602e-12)
(5.22693e-12 -2.84767e-15 0 5.19658e-12 0 5.21176e-12)
(5.24153e-12 -3.11003e-15 0 5.21233e-12 0 5.22694e-12)
(5.25563e-12 -3.36379e-15 0 5.22755e-12 0 5.2416e-12)
(5.26922e-12 -3.60912e-15 0 5.24222e-12 0 5.25573e-12)
(5.28233e-12 -3.84629e-15 0 5.25637e-12 0 5.26936e-12)
(5.29497e-12 -4.07532e-15 0 5.27003e-12 0 5.28251e-12)
(5.30714e-12 -4.29671e-15 0 5.28318e-12 0 5.29517e-12)
(5.31889e-12 -4.5102e-15 0 5.29588e-12 0 5.3074e-12)
(5.33018e-12 -4.71657e-15 0 5.30809e-12 0 5.31915e-12)
(5.34109e-12 -4.91532e-15 0 5.31988e-12 0 5.3305e-12)
(5.35157e-12 -5.10738e-15 0 5.33121e-12 0 5.3414e-12)
(5.36168e-12 -5.29224e-15 0 5.34215e-12 0 5.35193e-12)
(5.37139e-12 -5.4707e-15 0 5.35266e-12 0 5.36204e-12)
(5.38076e-12 -5.64249e-15 0 5.3628e-12 0 5.37179e-12)
(5.38976e-12 -5.80805e-15 0 5.37254e-12 0 5.38116e-12)
(5.39842e-12 -5.96754e-15 0 5.38193e-12 0 5.39019e-12)
(5.40676e-12 -6.12094e-15 0 5.39095e-12 0 5.39887e-12)
(5.41477e-12 -6.26883e-15 0 5.39963e-12 0 5.40721e-12)
(5.42248e-12 -6.41083e-15 0 5.40799e-12 0 5.41524e-12)
(5.42988e-12 -6.54778e-15 0 5.41601e-12 0 5.42295e-12)
(5.43701e-12 -6.67912e-15 0 5.42373e-12 0 5.43038e-12)
(5.44384e-12 -6.80577e-15 0 5.43114e-12 0 5.4375e-12)
(5.45042e-12 -6.92717e-15 0 5.43828e-12 0 5.44436e-12)
(5.45672e-12 -7.04412e-15 0 5.44511e-12 0 5.45093e-12)
(5.46281e-12 -7.15625e-15 0 5.45171e-12 0 5.45727e-12)
(5.46861e-12 -7.26411e-15 0 5.45801e-12 0 5.46332e-12)
(5.47422e-12 -7.36761e-15 0 5.46409e-12 0 5.46917e-12)
(5.47957e-12 -7.46696e-15 0 5.4699e-12 0 5.47475e-12)
(5.48474e-12 -7.5624e-15 0 5.47551e-12 0 5.48014e-12)
(5.48966e-12 -7.65383e-15 0 5.48085e-12 0 5.48527e-12)
(5.49443e-12 -7.74173e-15 0 5.48603e-12 0 5.49024e-12)
(5.49896e-12 -7.82581e-15 0 5.49094e-12 0 5.49496e-12)
(5.50334e-12 -7.90665e-15 0 5.4957e-12 0 5.49953e-12)
(5.50751e-12 -7.98394e-15 0 5.50022e-12 0 5.50388e-12)
(5.51154e-12 -8.05823e-15 0 5.5046e-12 0 5.50808e-12)
(5.51537e-12 -8.12926e-15 0 5.50876e-12 0 5.51207e-12)
(5.51906e-12 -8.19746e-15 0 5.51277e-12 0 5.51593e-12)
(5.52259e-12 -8.26265e-15 0 5.5166e-12 0 5.51961e-12)
(5.52597e-12 -8.3252e-15 0 5.52027e-12 0 5.52314e-12)
(5.52921e-12 -8.38497e-15 0 5.5238e-12 0 5.52652e-12)
(5.53231e-12 -8.44228e-15 0 5.52716e-12 0 5.52975e-12)
(5.53529e-12 -8.49704e-15 0 5.5304e-12 0 5.53286e-12)
(5.53812e-12 -8.54951e-15 0 5.53348e-12 0 5.53581e-12)
(5.54086e-12 -8.59964e-15 0 5.53645e-12 0 5.53867e-12)
(5.54345e-12 -8.64761e-15 0 5.53927e-12 0 5.54137e-12)
(5.54595e-12 -8.69345e-15 0 5.54198e-12 0 5.54398e-12)
(5.54832e-12 -8.73724e-15 0 5.54456e-12 0 5.54645e-12)
(5.55059e-12 -8.77898e-15 0 5.54702e-12 0 5.54882e-12)
(5.55273e-12 -8.81884e-15 0 5.54935e-12 0 5.55105e-12)
(5.55472e-12 -8.85578e-15 0 5.55152e-12 0 5.55313e-12)
(5.55673e-12 -8.89216e-15 0 5.55371e-12 0 5.55523e-12)
(5.55936e-12 -8.93378e-15 0 5.55656e-12 0 5.55797e-12)
(0.000213828 -5.30899e-05 0 9.11095e-05 0 0.000189098)
(6.49503e-05 -1.0537e-05 0 9.32517e-06 0 6.117e-05)
(1.64896e-05 -1.78587e-06 0 4.77601e-06 0 1.63056e-05)
(4.22957e-06 -2.68237e-07 0 3.4189e-06 0 4.29527e-06)
(1.06509e-06 -1.43839e-08 0 1.09732e-06 0 1.0889e-06)
(2.54691e-07 4.80288e-09 0 2.70954e-07 0 2.58545e-07)
(5.77991e-08 1.43148e-09 0 6.11295e-08 0 5.78849e-08)
(1.24769e-08 2.69847e-10 0 1.29996e-08 0 1.23406e-08)
(2.56725e-09 5.04875e-11 0 2.63484e-09 0 2.51586e-09)
(5.08176e-10 9.55926e-12 0 5.12495e-10 0 4.93926e-10)
(1.03694e-10 2.10552e-12 0 1.01273e-10 0 9.95748e-11)
(3.00818e-11 8.39425e-13 0 2.71698e-11 0 2.81386e-11)
(1.89865e-11 6.80477e-13 0 1.58803e-11 0 1.73461e-11)
(1.86761e-11 6.96406e-13 0 1.53739e-11 0 1.69907e-11)
(2.04158e-11 7.52864e-13 0 1.6808e-11 0 1.85893e-11)
(2.33562e-11 8.34113e-13 0 1.93309e-11 0 2.13241e-11)
(2.63232e-11 9.0723e-13 0 2.19216e-11 0 2.4103e-11)
(2.90554e-11 9.68067e-13 0 2.43363e-11 0 2.66761e-11)
(3.17685e-11 1.02319e-12 0 2.67575e-11 0 2.92429e-11)
(3.44904e-11 1.07357e-12 0 2.92083e-11 0 3.18291e-11)
(3.72251e-11 1.11943e-12 0 3.16917e-11 0 3.4438e-11)
(3.99628e-11 1.16071e-12 0 3.41982e-11 0 3.70602e-11)
(4.26936e-11 1.19738e-12 0 3.67182e-11 0 3.96857e-11)
(4.54106e-11 1.22953e-12 0 3.92446e-11 0 4.23076e-11)
(4.81099e-11 1.25729e-12 0 4.17728e-11 0 4.49217e-11)
(5.07877e-11 1.28081e-12 0 4.42985e-11 0 4.75237e-11)
(5.34405e-11 1.30027e-12 0 4.68174e-11 0 5.011e-11)
(5.60654e-11 1.31583e-12 0 4.93262e-11 0 5.26773e-11)
(5.86602e-11 1.32768e-12 0 5.18215e-11 0 5.52228e-11)
(6.12229e-11 1.33601e-12 0 5.43007e-11 0 5.77442e-11)
(6.37519e-11 1.34101e-12 0 5.67616e-11 0 6.02397e-11)
(6.6246e-11 1.34287e-12 0 5.9202e-11 0 6.27075e-11)
(6.87042e-11 1.34178e-12 0 6.16202e-11 0 6.51463e-11)
(7.11257e-11 1.33791e-12 0 6.40146e-11 0 6.75549e-11)
(7.351e-11 1.33145e-12 0 6.6384e-11 0 6.99322e-11)
(7.58565e-11 1.32257e-12 0 6.87271e-11 0 7.22776e-11)
(7.81648e-11 1.31142e-12 0 7.10428e-11 0 7.45902e-11)
(8.04348e-11 1.29817e-12 0 7.33303e-11 0 7.68696e-11)
(8.26663e-11 1.28298e-12 0 7.55888e-11 0 7.91151e-11)
(8.48591e-11 1.26598e-12 0 7.78175e-11 0 8.13264e-11)
(8.70132e-11 1.24732e-12 0 8.00158e-11 0 8.35032e-11)
(8.91285e-11 1.22713e-12 0 8.21831e-11 0 8.56451e-11)
(9.12051e-11 1.20554e-12 0 8.43188e-11 0 8.77518e-11)
(9.32429e-11 1.18267e-12 0 8.64224e-11 0 8.98229e-11)
(9.52425e-11 1.15864e-12 0 8.8494e-11 0 9.18591e-11)
(9.7203e-11 1.13356e-12 0 9.05322e-11 0 9.38589e-11)
(9.91244e-11 1.10754e-12 0 9.25365e-11 0 9.58222e-11)
(1.01011e-10 1.08069e-12 0 9.45113e-11 0 9.77536e-11)
(1.02851e-10 1.05306e-12 0 9.64427e-11 0 9.96394e-11)
(1.04664e-10 1.02485e-12 0 9.83517e-11 0 1.01501e-10)
(1.06429e-10 9.95999e-13 0 1.00216e-10 0 1.03316e-10)
(1.08169e-10 9.66713e-13 0 1.02059e-10 0 1.05108e-10)
(1.09863e-10 9.36964e-13 0 1.03859e-10 0 1.06855e-10)
(1.1152e-10 9.06944e-13 0 1.05624e-10 0 1.08566e-10)
(1.13139e-10 8.76668e-13 0 1.07354e-10 0 1.10241e-10)
(1.14723e-10 8.46203e-13 0 1.0905e-10 0 1.11882e-10)
(1.16271e-10 8.15606e-13 0 1.10711e-10 0 1.13486e-10)
(1.17782e-10 7.84942e-13 0 1.12338e-10 0 1.15056e-10)
(1.19258e-10 7.54267e-13 0 1.1393e-10 0 1.1659e-10)
(1.20699e-10 7.23635e-13 0 1.15487e-10 0 1.18089e-10)
(1.22104e-10 6.93096e-13 0 1.1701e-10 0 1.19554e-10)
(1.23475e-10 6.62694e-13 0 1.18498e-10 0 1.20984e-10)
(1.24812e-10 6.32474e-13 0 1.19953e-10 0 1.22379e-10)
(1.26115e-10 6.02476e-13 0 1.21373e-10 0 1.23741e-10)
(1.27384e-10 5.72735e-13 0 1.22759e-10 0 1.25069e-10)
(1.2862e-10 5.43285e-13 0 1.24113e-10 0 1.26364e-10)
(1.29824e-10 5.14159e-13 0 1.25433e-10 0 1.27626e-10)
(1.30996e-10 4.85383e-13 0 1.2672e-10 0 1.28856e-10)
(1.32136e-10 4.56985e-13 0 1.27974e-10 0 1.30054e-10)
(1.33246e-10 4.28989e-13 0 1.29197e-10 0 1.3122e-10)
(1.34324e-10 4.01417e-13 0 1.30387e-10 0 1.32354e-10)
(1.35372e-10 3.74288e-13 0 1.31547e-10 0 1.33458e-10)
(1.36391e-10 3.47619e-13 0 1.32675e-10 0 1.34532e-10)
(1.37381e-10 3.21424e-13 0 1.33772e-10 0 1.35576e-10)
(1.38343e-10 2.95715e-13 0 1.3484e-10 0 1.3659e-10)
(1.39276e-10 2.70506e-13 0 1.35878e-10 0 1.37576e-10)
(1.40182e-10 2.45804e-13 0 1.36887e-10 0 1.38534e-10)
(1.41061e-10 2.21616e-13 0 1.37867e-10 0 1.39463e-10)
(1.41914e-10 1.97954e-13 0 1.38819e-10 0 1.40366e-10)
(1.42741e-10 1.74821e-13 0 1.39743e-10 0 1.41241e-10)
(1.43542e-10 1.52218e-13 0 1.4064e-10 0 1.42091e-10)
(1.44319e-10 1.30149e-13 0 1.41511e-10 0 1.42915e-10)
(1.45072e-10 1.08614e-13 0 1.42355e-10 0 1.43713e-10)
(1.45801e-10 8.76136e-14 0 1.43173e-10 0 1.44487e-10)
(1.46508e-10 6.71468e-14 0 1.43967e-10 0 1.45237e-10)
(1.47191e-10 4.72124e-14 0 1.44736e-10 0 1.45964e-10)
(1.47853e-10 2.78058e-14 0 1.45481e-10 0 1.46667e-10)
(1.48493e-10 8.92577e-15 0 1.46203e-10 0 1.47348e-10)
(1.49113e-10 -9.43571e-15 0 1.46901e-10 0 1.48007e-10)
(1.49712e-10 -2.7279e-14 0 1.47578e-10 0 1.48645e-10)
(1.50291e-10 -4.46157e-14 0 1.48232e-10 0 1.49262e-10)
(1.50851e-10 -6.14454e-14 0 1.48865e-10 0 1.49859e-10)
(1.51392e-10 -7.77826e-14 0 1.49478e-10 0 1.50435e-10)
(1.51915e-10 -9.36266e-14 0 1.5007e-10 0 1.50993e-10)
(1.5242e-10 -1.08993e-13 0 1.50642e-10 0 1.51531e-10)
(1.52907e-10 -1.23883e-13 0 1.51195e-10 0 1.52052e-10)
(1.53378e-10 -1.3831e-13 0 1.51729e-10 0 1.52554e-10)
(1.53833e-10 -1.5228e-13 0 1.52245e-10 0 1.53039e-10)
(1.54271e-10 -1.65802e-13 0 1.52744e-10 0 1.53508e-10)
(1.54694e-10 -1.78888e-13 0 1.53225e-10 0 1.5396e-10)
(1.55103e-10 -1.91543e-13 0 1.53689e-10 0 1.54396e-10)
(1.55496e-10 -2.03779e-13 0 1.54137e-10 0 1.54817e-10)
(1.55876e-10 -2.15608e-13 0 1.54569e-10 0 1.55223e-10)
(1.56242e-10 -2.27031e-13 0 1.54986e-10 0 1.55615e-10)
(1.56594e-10 -2.38073e-13 0 1.55388e-10 0 1.55992e-10)
(1.56934e-10 -2.4872e-13 0 1.55776e-10 0 1.56356e-10)
(1.57261e-10 -2.59013e-13 0 1.56149e-10 0 1.56706e-10)
(1.57577e-10 -2.68926e-13 0 1.5651e-10 0 1.57044e-10)
(1.5788e-10 -2.78506e-13 0 1.56856e-10 0 1.57368e-10)
(1.58173e-10 -2.87726e-13 0 1.5719e-10 0 1.57682e-10)
(1.58454e-10 -2.96628e-13 0 1.57511e-10 0 1.57983e-10)
(1.58725e-10 -3.05196e-13 0 1.57821e-10 0 1.58274e-10)
(1.58985e-10 -3.13455e-13 0 1.58119e-10 0 1.58553e-10)
(1.59236e-10 -3.2141e-13 0 1.58406e-10 0 1.58822e-10)
(1.59477e-10 -3.29063e-13 0 1.58682e-10 0 1.5908e-10)
(1.59709e-10 -3.36439e-13 0 1.58948e-10 0 1.59329e-10)
(1.59932e-10 -3.43524e-13 0 1.59203e-10 0 1.59568e-10)
(1.60146e-10 -3.50355e-13 0 1.59448e-10 0 1.59798e-10)
(1.60352e-10 -3.56908e-13 0 1.59685e-10 0 1.60019e-10)
(1.6055e-10 -3.63226e-13 0 1.59911e-10 0 1.60231e-10)
(1.6074e-10 -3.69283e-13 0 1.6013e-10 0 1.60436e-10)
(1.60923e-10 -3.75119e-13 0 1.60339e-10 0 1.60631e-10)
(1.61099e-10 -3.80713e-13 0 1.60541e-10 0 1.6082e-10)
(1.61266e-10 -3.86095e-13 0 1.60733e-10 0 1.61001e-10)
(1.61429e-10 -3.91258e-13 0 1.6092e-10 0 1.61175e-10)
(1.61583e-10 -3.96217e-13 0 1.61097e-10 0 1.61341e-10)
(1.61733e-10 -4.00979e-13 0 1.61269e-10 0 1.61502e-10)
(1.61875e-10 -4.05542e-13 0 1.61432e-10 0 1.61655e-10)
(1.62013e-10 -4.09928e-13 0 1.61591e-10 0 1.61803e-10)
(1.62144e-10 -4.14125e-13 0 1.61741e-10 0 1.61943e-10)
(1.62271e-10 -4.18159e-13 0 1.61887e-10 0 1.6208e-10)
(1.62391e-10 -4.22017e-13 0 1.62025e-10 0 1.62209e-10)
(1.62508e-10 -4.25724e-13 0 1.62159e-10 0 1.62334e-10)
(1.62619e-10 -4.29269e-13 0 1.62287e-10 0 1.62453e-10)
(1.62725e-10 -4.32674e-13 0 1.6241e-10 0 1.62568e-10)
(1.62827e-10 -4.35928e-13 0 1.62527e-10 0 1.62678e-10)
(1.62925e-10 -4.39051e-13 0 1.62639e-10 0 1.62783e-10)
(1.63019e-10 -4.42034e-13 0 1.62747e-10 0 1.62884e-10)
(1.63108e-10 -4.44896e-13 0 1.6285e-10 0 1.6298e-10)
(1.63195e-10 -4.4763e-13 0 1.62949e-10 0 1.63073e-10)
(1.63277e-10 -4.5025e-13 0 1.63044e-10 0 1.63161e-10)
(1.63356e-10 -4.52752e-13 0 1.63135e-10 0 1.63246e-10)
(1.63431e-10 -4.55148e-13 0 1.63221e-10 0 1.63326e-10)
(1.63503e-10 -4.57437e-13 0 1.63304e-10 0 1.63404e-10)
(1.63571e-10 -4.59624e-13 0 1.63383e-10 0 1.63478e-10)
(1.63637e-10 -4.61709e-13 0 1.63458e-10 0 1.63548e-10)
(1.63699e-10 -4.63698e-13 0 1.6353e-10 0 1.63615e-10)
(1.63757e-10 -4.65542e-13 0 1.63596e-10 0 1.63677e-10)
(1.63814e-10 -4.67357e-13 0 1.63663e-10 0 1.6374e-10)
(1.63891e-10 -4.69444e-13 0 1.6375e-10 0 1.63821e-10)
(0.000333899 -0.000109415 0 0.000927746 0 0.000337711)
(0.000150241 -3.11345e-05 0 0.000250593 0 0.000157123)
(5.03425e-05 -5.80162e-06 0 2.84904e-05 0 5.36157e-05)
(1.53976e-05 -1.09445e-06 0 1.08765e-05 0 1.6456e-05)
(4.43748e-06 -1.90496e-07 0 5.29983e-06 0 4.69267e-06)
(1.17383e-06 -8.74124e-09 0 1.45511e-06 0 1.21731e-06)
(2.87245e-07 2.48201e-09 0 3.40734e-07 0 2.91141e-07)
(6.56955e-08 7.70148e-10 0 7.46459e-08 0 6.52662e-08)
(1.41478e-08 1.84516e-10 0 1.54935e-08 0 1.38409e-08)
(2.91366e-09 4.20889e-11 0 3.07411e-09 0 2.81113e-09)
(6.25551e-10 1.20998e-11 0 6.20712e-10 0 5.91182e-10)
(1.99246e-10 6.77624e-12 0 1.72573e-10 0 1.80589e-10)
(1.35708e-10 6.31525e-12 0 1.04249e-10 0 1.19032e-10)
(1.35523e-10 6.578e-12 0 1.01753e-10 0 1.18256e-10)
(1.48798e-10 7.13214e-12 0 1.11707e-10 0 1.30012e-10)
(1.70043e-10 7.8645e-12 0 1.28663e-10 0 1.4915e-10)
(1.91012e-10 8.49712e-12 0 1.45844e-10 0 1.68227e-10)
(2.10342e-10 9.01637e-12 0 1.6197e-10 0 1.85951e-10)
(2.29499e-10 9.47987e-12 0 1.78182e-10 0 2.03633e-10)
(2.48657e-10 9.89645e-12 0 1.94612e-10 0 2.21425e-10)
(2.67834e-10 1.02683e-11 0 2.11269e-10 0 2.39342e-10)
(2.86964e-10 1.05957e-11 0 2.2809e-10 0 2.57318e-10)
(3.05981e-10 1.08791e-11 0 2.45008e-10 0 2.75287e-10)
(3.24845e-10 1.112e-11 0 2.61981e-10 0 2.93208e-10)
(3.4353e-10 1.13201e-11 0 2.78978e-10 0 3.11052e-10)
(3.62012e-10 1.14813e-11 0 2.95965e-10 0 3.2879e-10)
(3.80268e-10 1.16054e-11 0 3.12916e-10 0 3.46398e-10)
(3.98283e-10 1.16945e-11 0 3.29805e-10 0 3.63855e-10)
(4.16043e-10 1.17505e-11 0 3.4661e-10 0 3.81142e-10)
(4.33538e-10 1.17754e-11 0 3.63313e-10 0 3.98247e-10)
(4.50759e-10 1.17713e-11 0 3.79898e-10 0 4.15155e-10)
(4.67702e-10 1.17399e-11 0 3.9635e-10 0 4.31858e-10)
(4.8436e-10 1.16832e-11 0 4.12657e-10 0 4.48347e-10)
(5.00733e-10 1.1603e-11 0 4.28808e-10 0 4.64615e-10)
(5.16817e-10 1.15008e-11 0 4.44794e-10 0 4.80656e-10)
(5.32612e-10 1.13785e-11 0 4.60606e-10 0 4.96465e-10)
(5.48118e-10 1.12375e-11 0 4.76237e-10 0 5.1204e-10)
(5.63335e-10 1.10793e-11 0 4.9168e-10 0 5.27376e-10)
(5.78264e-10 1.09054e-11 0 5.0693e-10 0 5.42471e-10)
(5.92907e-10 1.0717e-11 0 5.21981e-10 0 5.57323e-10)
(6.07263e-10 1.05155e-11 0 5.36829e-10 0 5.71931e-10)
(6.21336e-10 1.03021e-11 0 5.5147e-10 0 5.86294e-10)
(6.35127e-10 1.00778e-11 0 5.65899e-10 0 6.00409e-10)
(6.48636e-10 9.8438e-12 0 5.80113e-10 0 6.14276e-10)
(6.61871e-10 9.60109e-12 0 5.94112e-10 0 6.27898e-10)
(6.74826e-10 9.35069e-12 0 6.07886e-10 0 6.41267e-10)
(6.87501e-10 9.09347e-12 0 6.21434e-10 0 6.54383e-10)
(6.99932e-10 8.83034e-12 0 6.34781e-10 0 6.67277e-10)
(7.12029e-10 8.56201e-12 0 6.47838e-10 0 6.79859e-10)
(7.23938e-10 8.28978e-12 0 6.60743e-10 0 6.92269e-10)
(7.35514e-10 8.01349e-12 0 6.7335e-10 0 7.04367e-10)
(7.4691e-10 7.73448e-12 0 6.8581e-10 0 7.16296e-10)
(7.57987e-10 7.45276e-12 0 6.97977e-10 0 7.27923e-10)
(7.68811e-10 7.17001e-12 0 7.09911e-10 0 7.39306e-10)
(7.79378e-10 6.88623e-12 0 7.21608e-10 0 7.50441e-10)
(7.89697e-10 6.60194e-12 0 7.33075e-10 0 7.61338e-10)
(7.9977e-10 6.31762e-12 0 7.4431e-10 0 7.71994e-10)
(8.09596e-10 6.03379e-12 0 7.5531e-10 0 7.82411e-10)
(8.1918e-10 5.75091e-12 0 7.66076e-10 0 7.92588e-10)
(8.28525e-10 5.46939e-12 0 7.76607e-10 0 8.02529e-10)
(8.37632e-10 5.18963e-12 0 7.86906e-10 0 8.12234e-10)
(8.46505e-10 4.91199e-12 0 7.96972e-10 0 8.21706e-10)
(8.55148e-10 4.6368e-12 0 8.06806e-10 0 8.30948e-10)
(8.63564e-10 4.36438e-12 0 8.16411e-10 0 8.3996e-10)
(8.71756e-10 4.09499e-12 0 8.25788e-10 0 8.48747e-10)
(8.79729e-10 3.82888e-12 0 8.34939e-10 0 8.5731e-10)
(8.87484e-10 3.56631e-12 0 8.43865e-10 0 8.65653e-10)
(8.95027e-10 3.30746e-12 0 8.5257e-10 0 8.73779e-10)
(9.02361e-10 3.05254e-12 0 8.61054e-10 0 8.8169e-10)
(9.09488e-10 2.80172e-12 0 8.6932e-10 0 8.89388e-10)
(9.16414e-10 2.55516e-12 0 8.77371e-10 0 8.96878e-10)
(9.2314e-10 2.31299e-12 0 8.85209e-10 0 9.04161e-10)
(9.29673e-10 2.07533e-12 0 8.92838e-10 0 9.11243e-10)
(9.36014e-10 1.84225e-12 0 9.0026e-10 0 9.18126e-10)
(9.42169e-10 1.61386e-12 0 9.07479e-10 0 9.24815e-10)
(9.48141e-10 1.39022e-12 0 9.14497e-10 0 9.31311e-10)
(9.53934e-10 1.17139e-12 0 9.21318e-10 0 9.37618e-10)
(9.59551e-10 9.57398e-13 0 9.27945e-10 0 9.43741e-10)
(9.64997e-10 7.48295e-13 0 9.34381e-10 0 9.49683e-10)
(9.70274e-10 5.4409e-13 0 9.4063e-10 0 9.55447e-10)
(9.75388e-10 3.44805e-13 0 9.46695e-10 0 9.61037e-10)
(9.80341e-10 1.50422e-13 0 9.5258e-10 0 9.66457e-10)
(9.85138e-10 -3.90617e-14 0 9.58288e-10 0 9.7171e-10)
(9.89782e-10 -2.23667e-13 0 9.63823e-10 0 9.76801e-10)
(9.94277e-10 -4.03422e-13 0 9.69187e-10 0 9.81731e-10)
(9.98627e-10 -5.78356e-13 0 9.74387e-10 0 9.86506e-10)
(1.00283e-09 -7.48521e-13 0 9.79423e-10 0 9.91129e-10)
(1.00691e-09 -9.13946e-13 0 9.84302e-10 0 9.95604e-10)
(1.01084e-09 -1.07471e-12 0 9.89024e-10 0 9.99933e-10)
(1.01465e-09 -1.23084e-12 0 9.93597e-10 0 1.00412e-09)
(1.01832e-09 -1.38243e-12 0 9.98019e-10 0 1.00817e-09)
(1.02188e-09 -1.52951e-12 0 1.0023e-09 0 1.01209e-09)
(1.02531e-09 -1.6722e-12 0 1.00644e-09 0 1.01587e-09)
(1.02862e-09 -1.81051e-12 0 1.01044e-09 0 1.01953e-09)
(1.03182e-09 -1.94458e-12 0 1.01431e-09 0 1.02307e-09)
(1.03491e-09 -2.07445e-12 0 1.01805e-09 0 1.02648e-09)
(1.0379e-09 -2.20021e-12 0 1.02166e-09 0 1.02978e-09)
(1.04077e-09 -2.32196e-12 0 1.02514e-09 0 1.03296e-09)
(1.04355e-09 -2.43974e-12 0 1.02851e-09 0 1.03604e-09)
(1.04623e-09 -2.5537e-12 0 1.03176e-09 0 1.039e-09)
(1.04881e-09 -2.66385e-12 0 1.0349e-09 0 1.04186e-09)
(1.0513e-09 -2.77035e-12 0 1.03793e-09 0 1.04462e-09)
(1.0537e-09 -2.87325e-12 0 1.04085e-09 0 1.04728e-09)
(1.05601e-09 -2.97261e-12 0 1.04367e-09 0 1.04985e-09)
(1.05824e-09 -3.06863e-12 0 1.04639e-09 0 1.05232e-09)
(1.06039e-09 -3.1612e-12 0 1.04901e-09 0 1.0547e-09)
(1.06246e-09 -3.25068e-12 0 1.05153e-09 0 1.057e-09)
(1.06445e-09 -3.33683e-12 0 1.05396e-09 0 1.05921e-09)
(1.06636e-09 -3.42008e-12 0 1.0563e-09 0 1.06134e-09)
(1.06821e-09 -3.50019e-12 0 1.05856e-09 0 1.06339e-09)
(1.06999e-09 -3.57754e-12 0 1.06073e-09 0 1.06537e-09)
(1.0717e-09 -3.65196e-12 0 1.06283e-09 0 1.06727e-09)
(1.07334e-09 -3.72371e-12 0 1.06484e-09 0 1.0691e-09)
(1.07492e-09 -3.7928e-12 0 1.06678e-09 0 1.07086e-09)
(1.07644e-09 -3.85928e-12 0 1.06864e-09 0 1.07255e-09)
(1.07791e-09 -3.92334e-12 0 1.07044e-09 0 1.07418e-09)
(1.07931e-09 -3.98487e-12 0 1.07216e-09 0 1.07574e-09)
(1.08066e-09 -4.04421e-12 0 1.07382e-09 0 1.07725e-09)
(1.08196e-09 -4.10112e-12 0 1.07542e-09 0 1.0787e-09)
(1.08321e-09 -4.156e-12 0 1.07695e-09 0 1.08009e-09)
(1.08441e-09 -4.2086e-12 0 1.07843e-09 0 1.08142e-09)
(1.08556e-09 -4.2593e-12 0 1.07984e-09 0 1.0827e-09)
(1.08667e-09 -4.30788e-12 0 1.0812e-09 0 1.08394e-09)
(1.08772e-09 -4.35466e-12 0 1.0825e-09 0 1.08512e-09)
(1.08875e-09 -4.3995e-12 0 1.08376e-09 0 1.08626e-09)
(1.08972e-09 -4.4426e-12 0 1.08496e-09 0 1.08735e-09)
(1.09066e-09 -4.48396e-12 0 1.08612e-09 0 1.0884e-09)
(1.09156e-09 -4.52364e-12 0 1.08723e-09 0 1.0894e-09)
(1.09243e-09 -4.56174e-12 0 1.0883e-09 0 1.09037e-09)
(1.09325e-09 -4.59823e-12 0 1.08931e-09 0 1.09129e-09)
(1.09405e-09 -4.6333e-12 0 1.0903e-09 0 1.09218e-09)
(1.09481e-09 -4.66684e-12 0 1.09123e-09 0 1.09303e-09)
(1.09554e-09 -4.69909e-12 0 1.09214e-09 0 1.09385e-09)
(1.09624e-09 -4.72991e-12 0 1.093e-09 0 1.09463e-09)
(1.09691e-09 -4.75955e-12 0 1.09383e-09 0 1.09538e-09)
(1.09755e-09 -4.78783e-12 0 1.09462e-09 0 1.09609e-09)
(1.09817e-09 -4.81504e-12 0 1.09538e-09 0 1.09678e-09)
(1.09876e-09 -4.84097e-12 0 1.09611e-09 0 1.09744e-09)
(1.09932e-09 -4.86592e-12 0 1.09681e-09 0 1.09807e-09)
(1.09987e-09 -4.88969e-12 0 1.09748e-09 0 1.09868e-09)
(1.10038e-09 -4.91252e-12 0 1.09811e-09 0 1.09925e-09)
(1.10088e-09 -4.93431e-12 0 1.09873e-09 0 1.09981e-09)
(1.10135e-09 -4.95519e-12 0 1.09931e-09 0 1.10034e-09)
(1.1018e-09 -4.97513e-12 0 1.09987e-09 0 1.10085e-09)
(1.10223e-09 -4.99418e-12 0 1.10041e-09 0 1.10133e-09)
(1.10265e-09 -5.01235e-12 0 1.10092e-09 0 1.10179e-09)
(1.10304e-09 -5.02969e-12 0 1.1014e-09 0 1.10222e-09)
(1.1034e-09 -5.04569e-12 0 1.10185e-09 0 1.10263e-09)
(1.10376e-09 -5.06143e-12 0 1.1023e-09 0 1.10304e-09)
(1.10424e-09 -5.08008e-12 0 1.10289e-09 0 1.10357e-09)
(0.000411764 -0.00021426 0 0.00179749 0 0.000413566)
(0.000216878 -9.02106e-05 0 0.000791475 0 0.000223037)
(8.551e-05 -2.2509e-05 0 0.000138195 0 8.97787e-05)
(2.83366e-05 -4.56207e-06 0 2.04203e-05 0 3.01286e-05)
(8.75867e-06 -1.03175e-06 0 1.07203e-05 0 9.27814e-06)
(2.49261e-06 -1.88156e-07 0 3.61975e-06 0 2.59257e-06)
(6.51565e-07 -2.84642e-08 0 8.89761e-07 0 6.61125e-07)
(1.57604e-07 -4.62621e-09 0 2.01702e-07 0 1.5629e-07)
(3.55938e-08 -7.18127e-10 0 4.30271e-08 0 3.46511e-08)
(7.68187e-09 -9.33599e-11 0 8.74934e-09 0 7.34452e-09)
(1.77543e-09 4.1862e-12 0 1.82541e-09 0 1.64731e-09)
(6.4971e-10 2.06884e-11 0 5.41507e-10 0 5.69941e-10)
(4.88154e-10 2.49467e-11 0 3.47384e-10 0 4.13091e-10)
(4.95989e-10 2.67048e-11 0 3.43586e-10 0 4.17763e-10)
(5.48176e-10 2.91664e-11 0 3.79635e-10 0 4.62662e-10)
(6.25133e-10 3.19899e-11 0 4.37368e-10 0 5.30201e-10)
(6.98764e-10 3.42881e-11 0 4.94531e-10 0 5.95607e-10)
(7.66865e-10 3.61466e-11 0 5.48648e-10 0 6.567e-10)
(8.34172e-10 3.77741e-11 0 6.03148e-10 0 7.1759e-10)
(9.01179e-10 3.92034e-11 0 6.58358e-10 0 7.78692e-10)
(9.67886e-10 4.04439e-11 0 7.14245e-10 0 8.39989e-10)
(1.03406e-09 4.14999e-11 0 7.70585e-10 0 9.01254e-10)
(1.09954e-09 4.23777e-11 0 8.27195e-10 0 9.62305e-10)
(1.16421e-09 4.30856e-11 0 8.83948e-10 0 1.02303e-09)
(1.22798e-09 4.36323e-11 0 9.40722e-10 0 1.08332e-09)
(1.29079e-09 4.40269e-11 0 9.9741e-10 0 1.14309e-09)
(1.35257e-09 4.42787e-11 0 1.05392e-09 0 1.20226e-09)
(1.41328e-09 4.43967e-11 0 1.11016e-09 0 1.26076e-09)
(1.47291e-09 4.43902e-11 0 1.16608e-09 0 1.31856e-09)
(1.53141e-09 4.42678e-11 0 1.2216e-09 0 1.3756e-09)
(1.58879e-09 4.40381e-11 0 1.27667e-09 0 1.43186e-09)
(1.64504e-09 4.37093e-11 0 1.33126e-09 0 1.48731e-09)
(1.70016e-09 4.3289e-11 0 1.38531e-09 0 1.54192e-09)
(1.75414e-09 4.27847e-11 0 1.4388e-09 0 1.59569e-09)
(1.807e-09 4.22033e-11 0 1.4917e-09 0 1.6486e-09)
(1.85875e-09 4.15514e-11 0 1.54397e-09 0 1.70064e-09)
(1.90939e-09 4.08352e-11 0 1.5956e-09 0 1.7518e-09)
(1.95894e-09 4.00606e-11 0 1.64657e-09 0 1.80209e-09)
(2.00741e-09 3.92331e-11 0 1.69686e-09 0 1.8515e-09)
(2.05481e-09 3.83578e-11 0 1.74645e-09 0 1.90003e-09)
(2.10116e-09 3.74396e-11 0 1.79533e-09 0 1.94767e-09)
(2.14648e-09 3.6483e-11 0 1.84349e-09 0 1.99444e-09)
(2.19077e-09 3.54924e-11 0 1.89092e-09 0 2.04033e-09)
(2.23404e-09 3.44719e-11 0 1.93761e-09 0 2.08533e-09)
(2.27633e-09 3.3425e-11 0 1.98355e-09 0 2.12948e-09)
(2.31763e-09 3.23556e-11 0 2.02873e-09 0 2.17274e-09)
(2.35795e-09 3.1267e-11 0 2.07312e-09 0 2.21512e-09)
(2.3974e-09 3.01618e-11 0 2.11684e-09 0 2.25672e-09)
(2.4357e-09 2.9044e-11 0 2.15957e-09 0 2.29727e-09)
(2.47333e-09 2.79165e-11 0 2.20177e-09 0 2.3372e-09)
(2.50983e-09 2.678e-11 0 2.24298e-09 0 2.37608e-09)
(2.5457e-09 2.5638e-11 0 2.28367e-09 0 2.41437e-09)
(2.58049e-09 2.44913e-11 0 2.32338e-09 0 2.45165e-09)
(2.61442e-09 2.33462e-11 0 2.36232e-09 0 2.48809e-09)
(2.64748e-09 2.22022e-11 0 2.40045e-09 0 2.52371e-09)
(2.67972e-09 2.1061e-11 0 2.43781e-09 0 2.55852e-09)
(2.71112e-09 1.99241e-11 0 2.47439e-09 0 2.59253e-09)
(2.74171e-09 1.87934e-11 0 2.51019e-09 0 2.62574e-09)
(2.77149e-09 1.76704e-11 0 2.5452e-09 0 2.65815e-09)
(2.80049e-09 1.65565e-11 0 2.57944e-09 0 2.68978e-09)
(2.8287e-09 1.5453e-11 0 2.61289e-09 0 2.72063e-09)
(2.85615e-09 1.4361e-11 0 2.64558e-09 0 2.75071e-09)
(2.88284e-09 1.32817e-11 0 2.6775e-09 0 2.78003e-09)
(2.9088e-09 1.2216e-11 0 2.70866e-09 0 2.80859e-09)
(2.93403e-09 1.11647e-11 0 2.73906e-09 0 2.83642e-09)
(2.95856e-09 1.01287e-11 0 2.76872e-09 0 2.86352e-09)
(2.98238e-09 9.10874e-12 0 2.79763e-09 0 2.8899e-09)
(3.00552e-09 8.10534e-12 0 2.82581e-09 0 2.91557e-09)
(3.028e-09 7.11911e-12 0 2.85327e-09 0 2.94055e-09)
(3.04981e-09 6.15059e-12 0 2.88001e-09 0 2.96483e-09)
(3.07099e-09 5.20021e-12 0 2.90605e-09 0 2.98845e-09)
(3.09153e-09 4.26835e-12 0 2.93138e-09 0 3.01139e-09)
(3.11146e-09 3.3553e-12 0 2.95603e-09 0 3.03369e-09)
(3.13078e-09 2.46125e-12 0 2.98e-09 0 3.05534e-09)
(3.14952e-09 1.58643e-12 0 3.00331e-09 0 3.07637e-09)
(3.16769e-09 7.30989e-13 0 3.02596e-09 0 3.09678e-09)
(3.18529e-09 -1.04907e-13 0 3.04796e-09 0 3.11659e-09)
(3.20234e-09 -9.21334e-13 0 3.06933e-09 0 3.13581e-09)
(3.21886e-09 -1.71821e-12 0 3.09008e-09 0 3.15444e-09)
(3.23485e-09 -2.49555e-12 0 3.11022e-09 0 3.17251e-09)
(3.25033e-09 -3.25333e-12 0 3.12976e-09 0 3.19003e-09)
(3.26532e-09 -3.99173e-12 0 3.14872e-09 0 3.20701e-09)
(3.27982e-09 -4.71083e-12 0 3.1671e-09 0 3.22345e-09)
(3.29385e-09 -5.41078e-12 0 3.18492e-09 0 3.23938e-09)
(3.30742e-09 -6.09176e-12 0 3.20218e-09 0 3.2548e-09)
(3.32055e-09 -6.75395e-12 0 3.21891e-09 0 3.26973e-09)
(3.33323e-09 -7.39758e-12 0 3.23511e-09 0 3.28417e-09)
(3.34549e-09 -8.02284e-12 0 3.2508e-09 0 3.29815e-09)
(3.35734e-09 -8.63007e-12 0 3.26598e-09 0 3.31166e-09)