/*--------------------------------*- C++ -*----------------------------------*\
| =========                 |                                                 |
| \\      /  F ield         | OpenFOAM: The Open Source CFD Toolbox           |
|  \\    /   O peration     | Version:  v1912                                 |
|   \\  /    A nd           | Website:  www.openfoam.com                      |
|    \\/     M anipulation  |                                                 |
\*---------------------------------------------------------------------------*/
FoamFile
{
    version     2.0;
    format      ascii;
    class       volScalarField;
    location    "70";
    object      nut;
}
// * * * * * * * * * * * * * * * * * * * * * * * * * * * * * * * * * * * * * //

dimensions      [0 2 -1 0 0 0 0];


internalField   nonuniform List<scalar> 
14268
(
1.62263e-10
1.65168e-10
1.67511e-10
1.6728e-10
1.63206e-10
1.59393e-10
1.5775e-10
1.60232e-10
1.62249e-10
1.61523e-10
1.57851e-10
1.55418e-10
1.56106e-10
1.56949e-10
1.55557e-10
1.52519e-10
1.52161e-10
1.56094e-10
1.6164e-10
1.66633e-10
1.711e-10
1.76943e-10
1.8306e-10
1.86652e-10
1.86703e-10
1.866e-10
1.94314e-10
2.20379e-10
2.69282e-10
3.79013e-10
6.06131e-10
9.86327e-10
1.16909e-09
1.13746e-09
1.18578e-09
1.91286e-09
4.98402e-09
1.35081e-08
2.73165e-08
3.83088e-08
3.40076e-08
2.58368e-08
1.7981e-08
1.06864e-08
1.96117e-08
1.97106e-08
1.99632e-08
2.00901e-08
1.97513e-08
1.91569e-08
1.88296e-08
1.87497e-08
1.89132e-08
1.91069e-08
1.90786e-08
1.88965e-08
1.86006e-08
1.83489e-08
1.8163e-08
1.80509e-08
1.80863e-08
1.82955e-08
1.85986e-08
1.89293e-08
1.92754e-08
1.96985e-08
2.02212e-08
2.07179e-08
2.10502e-08
2.12562e-08
2.19635e-08
2.41523e-08
2.85376e-08
3.77604e-08
5.43918e-08
7.70216e-08
8.84653e-08
8.97922e-08
9.53853e-08
1.23976e-07
2.01714e-07
3.36385e-07
4.87627e-07
6.45655e-07
6.14111e-07
5.09512e-07
3.48371e-07
1.87167e-07
1.39741e-07
1.40505e-07
1.42248e-07
1.43062e-07
1.41424e-07
1.38518e-07
1.36991e-07
1.36839e-07
1.38024e-07
1.39169e-07
1.38982e-07
1.37973e-07
1.36347e-07
1.35199e-07
1.34755e-07
1.34918e-07
1.35354e-07
1.35925e-07
1.36448e-07
1.37304e-07
1.38628e-07
1.40515e-07
1.42727e-07
1.44713e-07
1.45854e-07
1.46644e-07
1.48984e-07
1.56387e-07
1.69497e-07
1.92611e-07
2.24754e-07
2.58377e-07
2.76603e-07
2.83834e-07
2.9593e-07
3.29198e-07
3.97615e-07
5.11882e-07
6.92225e-07
9.31149e-07
8.91564e-07
8.06359e-07
6.52941e-07
5.19314e-07
2.56949e-07
2.57553e-07
2.58806e-07
2.59349e-07
2.58236e-07
2.56126e-07
2.54944e-07
2.54889e-07
2.55781e-07
2.56593e-07
2.56404e-07
2.5565e-07
2.54457e-07
2.5369e-07
2.53362e-07
2.53501e-07
2.53758e-07
2.54115e-07
2.54365e-07
2.54895e-07
2.55637e-07
2.56923e-07
2.58226e-07
2.59597e-07
2.60053e-07
2.60726e-07
2.61933e-07
2.66669e-07
2.73856e-07
2.86155e-07
3.01036e-07
3.16905e-07
3.27805e-07
3.33851e-07
3.43637e-07
3.67096e-07
4.20303e-07
5.31008e-07
8.47668e-07
1.37441e-06
1.26703e-06
1.04713e-06
8.46251e-07
5.60715e-07
2.99717e-07
2.99889e-07
3.00386e-07
3.00562e-07
3.00171e-07
2.99391e-07
2.98871e-07
2.98776e-07
2.99098e-07
2.99409e-07
2.99354e-07
2.99115e-07
2.98577e-07
2.98192e-07
2.98015e-07
2.98183e-07
2.9832e-07
2.98441e-07
2.98324e-07
2.98443e-07
2.98617e-07
2.99168e-07
2.99529e-07
3.00079e-07
2.99953e-07
3.00331e-07
3.00405e-07
3.02336e-07
3.04617e-07
3.09451e-07
3.1637e-07
3.26145e-07
3.34315e-07
3.40034e-07
3.48868e-07
3.70107e-07
4.22141e-07
5.5628e-07
1.17474e-06
2.42214e-06
2.1142e-06
1.6469e-06
1.17799e-06
7.73019e-07
3.10119e-07
3.10216e-07
3.1036e-07
3.10389e-07
3.10266e-07
3.09948e-07
3.09743e-07
3.09755e-07
3.09818e-07
3.09848e-07
3.09736e-07
3.09669e-07
3.09536e-07
3.09492e-07
3.09381e-07
3.09385e-07
3.09331e-07
3.09396e-07
3.09297e-07
3.09413e-07
3.093e-07
3.09524e-07
3.09446e-07
3.09742e-07
3.09399e-07
3.09747e-07
3.09461e-07
3.10448e-07
3.10999e-07
3.13776e-07
3.18737e-07
3.27284e-07
3.35077e-07
3.40627e-07
3.49211e-07
3.70261e-07
4.21925e-07
6.28262e-07
1.79426e-06
4.3601e-06
3.57455e-06
2.70557e-06
1.85032e-06
1.00891e-06
3.12548e-07
3.12552e-07
3.12638e-07
3.12594e-07
3.12585e-07
3.12499e-07
3.12363e-07
3.12319e-07
3.12332e-07
3.12341e-07
3.12307e-07
3.12326e-07
3.12214e-07
3.12149e-07
3.12043e-07
3.12122e-07
3.12127e-07
3.12144e-07
3.11951e-07
3.11896e-07
3.11756e-07
3.11914e-07
3.11786e-07
3.11946e-07
3.11541e-07
3.11782e-07
3.11375e-07
3.12047e-07
3.1223e-07
3.14455e-07
3.19024e-07
3.27431e-07
3.34985e-07
3.40588e-07
3.49302e-07
3.70208e-07
4.20878e-07
7.68995e-07
2.91706e-06
7.26951e-06
5.88081e-06
4.31393e-06
2.89102e-06
1.5782e-06
3.12699e-07
3.12727e-07
3.12759e-07
3.12753e-07
3.1272e-07
3.12596e-07
3.12516e-07
3.12545e-07
3.12533e-07
3.12471e-07
3.12334e-07
3.12351e-07
3.12332e-07
3.12364e-07
3.12267e-07
3.1226e-07
3.12166e-07
3.12217e-07
3.12099e-07
3.12175e-07
3.11963e-07
3.12076e-07
3.11848e-07
3.12048e-07
3.11618e-07
3.11974e-07
3.11557e-07
3.1225e-07
3.12277e-07
3.14514e-07
3.19061e-07
3.27412e-07
3.35093e-07
3.4068e-07
3.49213e-07
3.70335e-07
4.1685e-07
1.01421e-06
4.84762e-06
1.10453e-05
9.26096e-06
6.52632e-06
4.35212e-06
2.38951e-06
3.13056e-07
3.13048e-07
3.1308e-07
3.13031e-07
3.13057e-07
3.13016e-07
3.12917e-07
3.12881e-07
3.12863e-07
3.1284e-07
3.12808e-07
3.12831e-07
3.12773e-07
3.12741e-07
3.12636e-07
3.12675e-07
3.12651e-07
3.12663e-07
3.12484e-07
3.12445e-07
3.12276e-07
3.12377e-07
3.12215e-07
3.1237e-07
3.1198e-07
3.12246e-07
3.11829e-07
3.12419e-07
3.12455e-07
3.14564e-07
3.19049e-07
3.27351e-07
3.34878e-07
3.4072e-07
3.49583e-07
3.70796e-07
4.12395e-07
1.43697e-06
7.99138e-06
1.64356e-05
1.385e-05
9.45817e-06
6.26054e-06
3.53936e-06
3.12697e-07
3.12713e-07
3.12757e-07
3.12742e-07
3.12703e-07
3.12595e-07
3.12555e-07
3.12583e-07
3.12566e-07
3.12489e-07
3.12332e-07
3.12368e-07
3.12345e-07
3.12385e-07
3.12278e-07
3.12251e-07
3.12156e-07
3.12222e-07
3.12102e-07
3.1219e-07
3.11962e-07
3.12061e-07
3.1184e-07
3.12053e-07
3.11635e-07
3.11995e-07
3.11575e-07
3.12244e-07
3.12278e-07
3.14489e-07
3.19005e-07
3.27409e-07
3.34979e-07
3.41004e-07
3.49819e-07
3.71473e-07
4.08315e-07
2.11252e-06
1.29236e-05
2.46769e-05
2.0202e-05
1.32115e-05
8.7198e-06
4.97099e-06
3.13071e-07
3.1306e-07
3.13075e-07
3.13044e-07
3.13068e-07
3.13022e-07
3.12932e-07
3.12893e-07
3.12875e-07
3.12851e-07
3.12821e-07
3.12837e-07
3.1278e-07
3.1274e-07
3.12634e-07
3.12659e-07
3.12616e-07
3.12621e-07
3.12454e-07
3.12415e-07
3.12239e-07
3.12317e-07
3.12133e-07
3.12295e-07
3.11936e-07
3.12216e-07
3.11805e-07
3.12368e-07
3.12377e-07
3.14482e-07
3.18966e-07
3.27321e-07
3.34918e-07
3.4153e-07
3.50876e-07
3.71872e-07
4.04523e-07
3.13471e-06
2.0261e-05
3.69377e-05
2.93992e-05
1.80016e-05
1.17055e-05
6.79247e-06
3.12504e-07
3.12493e-07
3.12543e-07
3.12531e-07
3.12473e-07
3.124e-07
3.12394e-07
3.12417e-07
3.12386e-07
3.12287e-07
3.12116e-07
3.12185e-07
3.12148e-07
3.12169e-07
3.12058e-07
3.12017e-07
3.1192e-07
3.12008e-07
3.11866e-07
3.1197e-07
3.11758e-07
3.1183e-07
3.11631e-07
3.11846e-07
3.11455e-07
3.11833e-07
3.11416e-07
3.12105e-07
3.1217e-07
3.14403e-07
3.18944e-07
3.2736e-07
3.34884e-07
3.42192e-07
3.51831e-07
3.71674e-07
4.00907e-07
4.58921e-06
3.01456e-05
5.38036e-05
4.22478e-05
2.43379e-05
1.52404e-05
8.86458e-06
3.12968e-07
3.12948e-07
3.12947e-07
3.12936e-07
3.12958e-07
3.12921e-07
3.12844e-07
3.12798e-07
3.12762e-07
3.12724e-07
3.127e-07
3.12719e-07
3.1267e-07
3.12608e-07
3.12503e-07
3.12506e-07
3.12458e-07
3.12459e-07
3.12307e-07
3.12283e-07
3.12108e-07
3.12154e-07
3.11946e-07
3.12112e-07
3.11795e-07
3.12105e-07
3.11698e-07
3.12268e-07
3.12288e-07
3.14445e-07
3.18956e-07
3.27413e-07
3.3536e-07
3.43696e-07
3.53022e-07
3.6997e-07
3.9741e-07
6.52724e-06
4.22278e-05
7.48639e-05
5.91323e-05
3.28133e-05
1.94327e-05
1.12648e-05
3.12194e-07
3.12143e-07
3.12197e-07
3.12176e-07
3.12126e-07
3.12085e-07
3.12087e-07
3.12109e-07
3.12068e-07
3.11939e-07
3.11761e-07
3.11877e-07
3.11823e-07
3.11828e-07
3.11677e-07
3.11628e-07
3.11551e-07
3.11685e-07
3.11552e-07
3.11698e-07
3.11497e-07
3.11568e-07
3.1138e-07
3.11644e-07
3.11258e-07
3.11656e-07
3.11245e-07
3.11993e-07
3.12107e-07
3.14359e-07
3.189e-07
3.27463e-07
3.35866e-07
3.44538e-07
3.52662e-07
3.65726e-07
3.94273e-07
8.99048e-06
5.62524e-05
0.000100655
8.05415e-05
4.41682e-05
2.44721e-05
1.39595e-05
3.13031e-07
3.13033e-07
3.13058e-07
3.13046e-07
3.13049e-07
3.12989e-07
3.12903e-07
3.12869e-07
3.12855e-07
3.12834e-07
3.128e-07
3.12805e-07
3.1274e-07
3.12691e-07
3.12609e-07
3.12642e-07
3.1262e-07
3.12623e-07
3.12463e-07
3.12436e-07
3.12277e-07
3.12352e-07
3.12171e-07
3.1232e-07
3.11961e-07
3.12229e-07
3.1182e-07
3.12349e-07
3.12344e-07
3.14411e-07
3.18993e-07
3.2839e-07
3.37855e-07
3.46825e-07
3.53108e-07
3.59761e-07
3.97278e-07
1.34439e-05
7.87201e-05
0.000148549
0.000118717
6.54711e-05
3.38235e-05
1.8786e-05
3.12259e-07
3.12215e-07
3.12243e-07
3.1221e-07
3.12157e-07
3.12128e-07
3.12092e-07
3.12119e-07
3.12095e-07
3.11989e-07
3.11866e-07
3.11999e-07
3.11935e-07
3.11903e-07
3.11745e-07
3.1177e-07
3.11747e-07
3.1188e-07
3.11691e-07
3.11769e-07
3.11551e-07
3.11657e-07
3.11479e-07
3.11681e-07
3.11264e-07
3.11619e-07
3.11183e-07
3.11862e-07
3.11961e-07
3.14169e-07
3.19035e-07
3.29748e-07
3.42794e-07
3.48286e-07
3.48222e-07
3.47333e-07
4.24606e-07
2.14209e-05
0.000114875
0.000229116
0.000187615
0.000107977
5.07141e-05
2.64568e-05
3.12916e-07
3.12914e-07
3.12941e-07
3.12943e-07
3.12935e-07
3.12867e-07
3.12774e-07
3.12741e-07
3.12735e-07
3.12727e-07
3.12707e-07
3.127e-07
3.12629e-07
3.12567e-07
3.12492e-07
3.12537e-07
3.12527e-07
3.1254e-07
3.12383e-07
3.12343e-07
3.12172e-07
3.12227e-07
3.12012e-07
3.12148e-07
3.11798e-07
3.1207e-07
3.11656e-07
3.12143e-07
3.12077e-07
3.14353e-07
3.20528e-07
3.31225e-07
3.45094e-07
3.46676e-07
3.40944e-07
3.3667e-07
5.0762e-07
3.22131e-05
0.000150147
0.000307066
0.000266587
0.000171606
7.65238e-05
3.69148e-05
3.1179e-07
3.11769e-07
3.11804e-07
3.11788e-07
3.11698e-07
3.11666e-07
3.1164e-07
3.1168e-07
3.11673e-07
3.11572e-07
3.11438e-07
3.11595e-07
3.1149e-07
3.11438e-07
3.113e-07
3.11366e-07
3.11359e-07
3.11481e-07
3.11292e-07
3.11372e-07
3.11185e-07
3.11314e-07
3.11213e-07
3.1143e-07
3.11001e-07
3.1133e-07
3.10837e-07
3.11541e-07
3.11726e-07
3.14929e-07
3.22283e-07
3.32622e-07
3.44832e-07
3.37674e-07
3.31438e-07
3.27548e-07
6.82722e-07
4.57661e-05
0.000179872
0.000380281
0.000342923
0.000241559
0.00011113
5.16422e-05
3.1256e-07
3.12554e-07
3.12617e-07
3.12644e-07
3.12634e-07
3.12525e-07
3.12349e-07
3.1232e-07
3.12388e-07
3.12449e-07
3.12451e-07
3.12397e-07
3.12239e-07
3.12128e-07
3.12083e-07
3.12152e-07
3.12177e-07
3.12204e-07
3.12017e-07
3.11969e-07
3.11816e-07
3.11961e-07
3.11784e-07
3.12018e-07
3.11714e-07
3.12074e-07
3.11727e-07
3.12517e-07
3.13076e-07
3.1672e-07
3.22805e-07
3.33472e-07
3.40127e-07
3.31627e-07
3.24372e-07
3.19433e-07
1.08055e-06
6.02265e-05
0.000212662
0.000454293
0.000409307
0.000308976
0.000155432
7.07024e-05
3.11803e-07
3.11874e-07
3.11909e-07
3.11878e-07
3.11703e-07
3.11571e-07
3.11608e-07
3.11719e-07
3.11761e-07
3.11614e-07
3.11414e-07
3.11603e-07
3.11522e-07
3.11478e-07
3.11305e-07
3.11308e-07
3.11274e-07
3.11441e-07
3.11318e-07
3.11538e-07
3.11467e-07
3.11672e-07
3.11697e-07
3.12024e-07
3.11774e-07
3.12232e-07
3.1205e-07
3.13295e-07
3.14604e-07
3.18579e-07
3.24857e-07
3.33074e-07
3.32801e-07
3.22122e-07
3.15112e-07
3.12723e-07
1.90055e-06
7.46482e-05
0.000252925
0.000515085
0.000463967
0.00036827
0.00020557
9.18439e-05
3.14364e-07
3.1431e-07
3.14311e-07
3.14342e-07
3.14307e-07
3.14198e-07
3.14115e-07
3.14074e-07
3.14047e-07
3.14023e-07
3.13971e-07
3.13967e-07
3.13965e-07
3.13908e-07
3.13783e-07
3.13747e-07
3.13673e-07
3.13721e-07
3.13767e-07
3.13946e-07
3.13917e-07
3.14065e-07
3.1397e-07
3.14192e-07
3.14068e-07
3.14552e-07
3.1447e-07
3.15421e-07
3.15966e-07
3.19496e-07
3.25519e-07
3.32141e-07
3.27161e-07
3.13834e-07
3.0467e-07
3.06231e-07
3.34443e-06
8.97475e-05
0.000287252
0.000560357
0.000507902
0.000408542
0.000242707
0.00011304
3.11445e-07
3.11466e-07
3.11557e-07
3.11543e-07
3.11518e-07
3.11386e-07
3.11228e-07
3.11258e-07
3.11321e-07
3.11306e-07
3.11243e-07
3.11262e-07
3.11162e-07
3.11127e-07
3.11095e-07
3.11249e-07
3.11254e-07
3.11208e-07
3.1089e-07
3.10768e-07
3.10522e-07
3.10702e-07
3.1051e-07
3.10587e-07
3.10003e-07
3.10116e-07
3.09373e-07
3.0937e-07
3.08108e-07
3.07043e-07
3.01363e-07
2.84111e-07
2.64635e-07
2.58136e-07
2.59066e-07
3.54104e-07
1.50267e-05
0.000185425
0.000443816
0.000724015
0.000768296
0.000686178
0.000498853
0.000270156
3.02267e-07
3.02467e-07
3.0301e-07
3.03152e-07
3.02912e-07
3.02407e-07
3.02099e-07
3.0203e-07
3.02247e-07
3.02411e-07
3.02354e-07
3.02056e-07
3.01542e-07
3.01334e-07
3.01593e-07
3.02326e-07
3.02483e-07
3.01825e-07
3.0044e-07
2.99458e-07
2.9898e-07
2.98918e-07
2.98396e-07
2.97754e-07
2.9637e-07
2.9534e-07
2.92963e-07
2.89731e-07
2.82858e-07
2.67689e-07
2.26576e-07
1.56609e-07
1.2672e-07
1.43492e-07
1.86164e-07
1.58523e-06
7.1026e-05
0.000358133
0.000612553
0.000894325
0.00106052
0.00104037
0.000892624
0.000641029
2.32078e-07
2.32668e-07
2.34376e-07
2.35068e-07
2.35157e-07
2.34468e-07
2.34017e-07
2.33898e-07
2.34493e-07
2.35012e-07
2.35386e-07
2.34865e-07
2.33645e-07
2.33382e-07
2.35277e-07
2.38651e-07
2.39709e-07
2.36711e-07
2.31574e-07
2.27828e-07
2.26178e-07
2.25383e-07
2.23465e-07
2.20677e-07
2.17186e-07
2.14532e-07
2.08437e-07
1.96209e-07
1.73116e-07
1.33402e-07
8.27298e-08
4.92241e-08
5.53024e-08
1.68919e-07
8.52078e-07
2.65629e-05
0.000210948
0.000418278
0.0004421
0.000539515
0.000774067
0.000926129
0.000980907
0.000591642
7.72712e-08
1.02082e-07
1.26409e-07
9.99304e-08
7.82876e-08
7.83842e-08
7.83282e-08
7.84755e-08
7.8766e-08
7.9373e-08
7.98017e-08
7.9781e-08
7.98673e-08
8.04742e-08
8.21869e-08
8.43955e-08
8.50563e-08
8.34015e-08
8.03075e-08
7.78466e-08
7.66928e-08
7.58793e-08
7.42469e-08
7.26288e-08
7.08847e-08
6.96124e-08
6.48772e-08
5.32459e-08
3.50429e-08
2.40014e-08
2.54077e-08
5.56002e-08
3.07889e-07
1.92716e-06
1.08422e-05
4.89801e-05
0.000119232
0.000117749
7.6994e-05
7.18022e-05
0.000127782
0.000270569
0.000512116
0.000653765
8.34724e-06
1.59228e-05
2.08642e-05
1.36762e-05
2.65458e-06
1.35234e-06
6.48809e-07
3.05651e-07
1.72489e-07
9.02332e-08
4.22737e-08
2.36355e-08
1.84204e-08
1.78281e-08
1.81001e-08
1.83829e-08
1.88545e-08
1.91512e-08
1.87851e-08
1.74514e-08
1.65274e-08
1.54421e-08
1.47059e-08
1.376e-08
1.17517e-08
8.3732e-09
4.40436e-09
1.30753e-09
6.85913e-10
4.44208e-09
3.75341e-08
1.44171e-07
5.2393e-07
1.91921e-06
6.09091e-06
1.49027e-05
1.75279e-05
1.14414e-05
2.40782e-06
5.58615e-07
8.9672e-07
5.95407e-06
2.57541e-05
7.09239e-05
0.00223614
0.00239665
0.0025703
0.00228136
0.00177348
0.00147668
0.00109928
0.000815079
0.000665285
0.000517197
0.000350197
0.000209494
9.74585e-05
2.55153e-05
1.79283e-06
3.65237e-08
8.8911e-09
4.64825e-09
1.99119e-09
6.15023e-10
2.32085e-09
3.34036e-09
3.31042e-09
3.06225e-09
2.3709e-09
1.02212e-09
1.24668e-10
5.72194e-11
1.43246e-10
7.48601e-10
4.35502e-09
1.5158e-08
4.70945e-08
1.95349e-07
6.26055e-07
1.20615e-06
2.4873e-06
2.98155e-06
2.17066e-06
1.37996e-06
1.18506e-06
1.02129e-06
1.05319e-06
2.27758e-06
0.0313185
0.0312473
0.0319196
0.0316605
0.0331656
0.032573
0.0300078
0.0278399
0.0275095
0.0267068
0.0248519
0.0231682
0.0206349
0.0152726
0.00637332
0.000690951
9.64106e-06
1.31535e-08
3.26841e-12
2.42164e-14
4.77924e-15
9.03213e-12
2.51578e-11
1.34764e-11
5.62132e-12
5.77225e-12
1.05034e-10
4.05325e-10
3.66392e-10
4.10143e-10
7.73274e-10
2.09569e-09
6.78721e-09
2.549e-08
7.95625e-08
1.45197e-07
3.10738e-07
5.39186e-07
6.49339e-07
8.33794e-07
8.8087e-07
5.43709e-07
5.21606e-07
3.17767e-06
0.0247755
0.0257324
0.0267001
0.0277111
0.0289332
0.0300861
0.0302987
0.0301202
0.0301246
0.0309632
0.0344437
0.0457134
0.0699582
0.1061
0.14096
0.147908
0.10059
0.00492623
3.72e-05
1.95206e-07
6.02275e-08
6.36829e-08
7.00744e-08
7.31172e-08
5.45655e-08
4.73689e-08
7.7327e-08
9.04446e-08
8.57242e-08
7.74938e-08
5.85624e-08
3.79339e-08
2.61373e-08
1.78788e-08
2.04821e-08
3.37427e-08
7.40808e-08
1.44919e-07
1.52603e-07
1.19171e-07
6.4863e-08
3.26902e-08
4.89617e-08
5.80541e-07
0.0150701
0.0124578
0.0103896
0.00935205
0.00861192
0.00725687
0.00509497
0.00277275
0.0012295
0.000884834
0.00181366
0.00731431
0.0228368
0.0518155
0.0849531
0.104165
0.0249994
0.000316104
2.11812e-06
2.00464e-07
1.96007e-07
2.03978e-07
2.17871e-07
2.28191e-07
2.3529e-07
2.40201e-07
2.44879e-07
2.53665e-07
2.7057e-07
2.81584e-07
2.72482e-07
2.34785e-07
2.04576e-07
1.60628e-07
1.40842e-07
1.48238e-07
1.73721e-07
1.68889e-07
1.561e-07
1.36659e-07
1.57993e-07
2.01428e-07
2.97706e-07
4.37882e-07
0.000637613
0.000281383
0.000171253
0.000157223
0.000153117
0.000108718
9.89613e-05
0.000266814
0.00176408
0.00570545
0.0124431
0.0221247
0.035069
0.0496435
0.0651489
0.0419907
0.00180501
2.09258e-05
4.7496e-07
3.32636e-07
3.35033e-07
3.396e-07
3.4498e-07
3.48291e-07
3.46326e-07
3.40421e-07
3.30077e-07
3.19414e-07
3.14299e-07
3.09563e-07
3.05496e-07
3.01157e-07
2.97769e-07
2.88747e-07
2.84613e-07
2.89541e-07
2.96442e-07
2.98233e-07
3.00622e-07
2.99349e-07
3.12989e-07
3.4732e-07
4.01184e-07
4.9251e-07
0.0207372
0.0204675
0.0204524
0.0214111
0.0230028
0.0238465
0.0239067
0.0243114
0.0256581
0.0294738
0.0352128
0.0393433
0.042057
0.0414903
0.0305486
0.00517542
0.000103237
1.39907e-06
3.49391e-07
3.38575e-07
3.34367e-07
3.3029e-07
3.25376e-07
3.20202e-07
3.16009e-07
3.11918e-07
3.07762e-07
3.03169e-07
2.99976e-07
2.97797e-07
2.99198e-07
3.00458e-07
3.00167e-07
3.00798e-07
3.03136e-07
3.06177e-07
3.09206e-07
3.15835e-07
3.29008e-07
3.39086e-07
3.49216e-07
3.65064e-07
3.8681e-07
4.19373e-07
0.0281361
0.0275849
0.0276395
0.0276411
0.0271278
0.0264433
0.0264786
0.0272563
0.028139
0.0277646
0.0255134
0.022435
0.0179137
0.0114601
0.00432968
0.000299999
4.84593e-06
3.51113e-07
3.08049e-07
3.06888e-07
3.05912e-07
3.05265e-07
3.04893e-07
3.05246e-07
3.05343e-07
3.05519e-07
3.05762e-07
3.06393e-07
3.07383e-07
3.07323e-07
3.0711e-07
3.07451e-07
3.08455e-07
3.09857e-07
3.12219e-07
3.15397e-07
3.20471e-07
3.21927e-07
3.25083e-07
3.33437e-07
3.48429e-07
3.72665e-07
3.87749e-07
4.16439e-07
0.0120365
0.0109716
0.0102985
0.00940124
0.00817792
0.00731162
0.00728206
0.00775086
0.00794948
0.0070449
0.00539024
0.00377896
0.00232228
0.00106887
0.000266882
1.18032e-05
4.52451e-07
3.03343e-07
3.01359e-07
3.00642e-07
3.00868e-07
3.01208e-07
3.01616e-07
3.01995e-07
3.02788e-07
3.03474e-07
3.04103e-07
3.04456e-07
3.04742e-07
3.049e-07
3.06963e-07
3.09073e-07
3.09165e-07
3.10195e-07
3.12135e-07
3.16161e-07
3.20994e-07
3.26929e-07
3.34345e-07
3.41062e-07
3.48111e-07
3.61038e-07
3.73727e-07
3.88366e-07
0.00116811
0.00102513
0.00092633
0.000805053
0.000672205
0.00060624
0.000640828
0.000738403
0.000803246
0.000693536
0.000491042
0.000311325
0.00016713
6.30826e-05
1.18854e-05
6.73048e-07
3.08923e-07
3.05217e-07
3.05988e-07
3.06804e-07
3.07575e-07
3.08431e-07
3.09026e-07
3.09649e-07
3.10379e-07
3.10916e-07
3.11657e-07
3.11665e-07
3.11439e-07
3.10827e-07
3.1059e-07
3.11566e-07
3.12849e-07
3.14412e-07
3.16724e-07
3.19392e-07
3.22873e-07
3.24836e-07
3.2814e-07
3.35793e-07
3.47679e-07
3.63629e-07
3.7439e-07
3.88701e-07
7.05951e-05
6.22067e-05
5.75246e-05
5.14647e-05
4.47082e-05
4.18222e-05
4.54449e-05
5.37591e-05
5.9137e-05
4.9712e-05
3.35553e-05
1.97896e-05
9.55704e-06
3.17633e-06
7.04965e-07
3.16906e-07
3.07231e-07
3.07311e-07
3.07239e-07
3.07402e-07
3.07684e-07
3.078e-07
3.08113e-07
3.08531e-07
3.09144e-07
3.09622e-07
3.10114e-07
3.10566e-07
3.11279e-07
3.12007e-07
3.13562e-07
3.15154e-07
3.15311e-07
3.16374e-07
3.18141e-07
3.22012e-07
3.26144e-07
3.30545e-07
3.35165e-07
3.40284e-07
3.45763e-07
3.55609e-07
3.64874e-07
3.72454e-07
5.45268e-06
4.59313e-06
4.19831e-06
3.7508e-06
3.28584e-06
3.08808e-06
3.3095e-06
3.83112e-06
4.0611e-06
3.31961e-06
2.21843e-06
1.33215e-06
7.33139e-07
4.15705e-07
3.1944e-07
3.08642e-07
3.08693e-07
3.08981e-07
3.09193e-07
3.09412e-07
3.1012e-07
3.11104e-07
3.11512e-07
3.1191e-07
3.1243e-07
3.12986e-07
3.1352e-07
3.13484e-07
3.1281e-07
3.11644e-07
3.10977e-07
3.11483e-07
3.12969e-07
3.15112e-07
3.18046e-07
3.20656e-07
3.23368e-07
3.25797e-07
3.29346e-07
3.35778e-07
3.44708e-07
3.55964e-07
3.6445e-07
3.71887e-07
6.90483e-07
6.00628e-07
5.58291e-07
5.25166e-07
4.93809e-07
4.79553e-07
4.9129e-07
5.19947e-07
5.22152e-07
4.70036e-07
4.03651e-07
3.5462e-07
3.25352e-07
3.1234e-07
3.09809e-07
3.09934e-07
3.1022e-07
3.10476e-07
3.10584e-07
3.10935e-07
3.11188e-07
3.11048e-07
3.11107e-07
3.1129e-07
3.11749e-07
3.1201e-07
3.12424e-07
3.12818e-07
3.13788e-07
3.1484e-07
3.16116e-07
3.17698e-07
3.18468e-07
3.19546e-07
3.21376e-07
3.24091e-07
3.27139e-07
3.30756e-07
3.34156e-07
3.38357e-07
3.42672e-07
3.49766e-07
3.56857e-07
3.6286e-07
3.39604e-07
3.31045e-07
3.26646e-07
3.23611e-07
3.21303e-07
3.20207e-07
3.20535e-07
3.21325e-07
3.20556e-07
3.17371e-07
3.13916e-07
3.11617e-07
3.10499e-07
3.10215e-07
3.10525e-07
3.10732e-07
3.1085e-07
3.10943e-07
3.11041e-07
3.11155e-07
3.11435e-07
3.1197e-07
3.12384e-07
3.12817e-07
3.13308e-07
3.13924e-07
3.14521e-07
3.14761e-07
3.14048e-07
3.1285e-07
3.12326e-07
3.12453e-07
3.13731e-07
3.15663e-07
3.18465e-07
3.21223e-07
3.23668e-07
3.26225e-07
3.2945e-07
3.34669e-07
3.41269e-07
3.49585e-07
3.55802e-07
3.61535e-07
3.10545e-07
3.09752e-07
3.09392e-07
3.09185e-07
3.09025e-07
3.09086e-07
3.09458e-07
3.10082e-07
3.10583e-07
3.10639e-07
3.10591e-07
3.10633e-07
3.10795e-07
3.10913e-07
3.11279e-07
3.11392e-07
3.11476e-07
3.11574e-07
3.11672e-07
3.11812e-07
3.11954e-07
3.11978e-07
3.12072e-07
3.1221e-07
3.12613e-07
3.1278e-07
3.13244e-07
3.13666e-07
3.14718e-07
3.16005e-07
3.17247e-07
3.18601e-07
3.19393e-07
3.20472e-07
3.22135e-07
3.24218e-07
3.2652e-07
3.2962e-07
3.32248e-07
3.35694e-07
3.39211e-07
3.44445e-07
3.49886e-07
3.5525e-07
3.11686e-07
3.11487e-07
3.11255e-07
3.11054e-07
3.10913e-07
3.10854e-07
3.10783e-07
3.1072e-07
3.10764e-07
3.10873e-07
3.11012e-07
3.11147e-07
3.11305e-07
3.11404e-07
3.11663e-07
3.1169e-07
3.11727e-07
3.11786e-07
3.11892e-07
3.12052e-07
3.12298e-07
3.12659e-07
3.12928e-07
3.13319e-07
3.1386e-07
3.14453e-07
3.151e-07
3.15252e-07
3.15359e-07
3.14366e-07
3.13837e-07
3.13843e-07
3.14954e-07
3.16675e-07
3.19106e-07
3.21579e-07
3.23714e-07
3.25997e-07
3.2867e-07
3.32778e-07
3.37725e-07
3.44139e-07
3.48755e-07
3.5315e-07
3.10824e-07
3.10695e-07
3.10624e-07
3.10548e-07
3.1051e-07
3.10643e-07
3.10872e-07
3.11087e-07
3.11244e-07
3.11408e-07
3.11525e-07
3.11608e-07
3.11708e-07
3.1174e-07
3.11994e-07
3.12067e-07
3.12126e-07
3.1219e-07
3.12272e-07
3.12338e-07
3.12408e-07
3.1249e-07
3.1263e-07
3.12867e-07
3.13203e-07
3.13377e-07
3.13858e-07
3.14346e-07
3.15228e-07
3.16439e-07
3.17654e-07
3.18805e-07
3.19597e-07
3.2062e-07
3.21941e-07
3.2351e-07
3.25337e-07
3.28118e-07
3.30217e-07
3.33055e-07
3.36046e-07
3.39932e-07
3.4436e-07
3.4842e-07
3.12079e-07
3.11966e-07
3.11803e-07
3.11589e-07
3.11405e-07
3.1135e-07
3.11361e-07
3.11411e-07
3.11527e-07
3.11658e-07
3.11774e-07
3.11847e-07
3.11905e-07
3.11915e-07
3.12141e-07
3.12139e-07
3.12141e-07
3.12191e-07
3.1231e-07
3.12496e-07
3.1272e-07
3.13031e-07
3.13351e-07
3.13686e-07
3.14218e-07
3.14788e-07
3.15433e-07
3.15629e-07
3.16069e-07
3.15521e-07
3.15135e-07
3.15108e-07
3.1597e-07
3.17614e-07
3.19621e-07
3.21612e-07
3.23294e-07
3.25343e-07
3.27658e-07
3.30899e-07
3.34553e-07
3.39393e-07
3.43429e-07
3.46513e-07
3.12142e-07
3.12066e-07
3.11993e-07
3.11864e-07
3.11754e-07
3.11751e-07
3.11774e-07
3.11828e-07
3.11932e-07
3.12035e-07
3.12113e-07
3.12177e-07
3.12205e-07
3.12202e-07
3.12412e-07
3.12491e-07
3.12572e-07
3.1266e-07
3.12773e-07
3.12865e-07
3.12947e-07
3.13069e-07
3.13206e-07
3.13458e-07
3.13772e-07
3.1399e-07
3.14477e-07
3.14872e-07
3.15652e-07
3.16599e-07
3.17599e-07
3.18602e-07
3.19444e-07
3.20378e-07
3.21414e-07
3.22671e-07
3.2418e-07
3.26619e-07
3.28444e-07
3.30851e-07
3.3351e-07
3.36309e-07
3.40006e-07
3.42665e-07
3.12364e-07
3.12318e-07
3.12234e-07
3.12106e-07
3.11992e-07
3.11954e-07
3.11947e-07
3.11983e-07
3.12075e-07
3.12142e-07
3.12187e-07
3.12217e-07
3.12219e-07
3.12219e-07
3.12348e-07
3.12363e-07
3.12364e-07
3.12409e-07
3.12528e-07
3.12741e-07
3.12994e-07
3.13268e-07
3.13589e-07
3.13918e-07
3.14409e-07
3.14904e-07
3.15543e-07
3.15808e-07
3.16238e-07
3.16245e-07
3.16063e-07
3.1619e-07
3.16734e-07
3.18102e-07
3.19608e-07
3.21176e-07
3.22599e-07
3.24547e-07
3.26566e-07
3.29061e-07
3.3181e-07
3.35442e-07
3.39254e-07
3.41067e-07
3.12527e-07
3.125e-07
3.12438e-07
3.12338e-07
3.12242e-07
3.12218e-07
3.12226e-07
3.12255e-07
3.12323e-07
3.12369e-07
3.12398e-07
3.12424e-07
3.12443e-07
3.12494e-07
3.12627e-07
3.12695e-07
3.12772e-07
3.1289e-07
3.13051e-07
3.13233e-07
3.13385e-07
3.13568e-07
3.13735e-07
3.13965e-07
3.14278e-07
3.14504e-07
3.15004e-07
3.15275e-07
3.15895e-07
3.16538e-07
3.17301e-07
3.18176e-07
3.19071e-07
3.19906e-07
3.20726e-07
3.21801e-07
3.23082e-07
3.2517e-07
3.26904e-07
3.28887e-07
3.31066e-07
3.33333e-07
3.36269e-07
3.37828e-07
3.12646e-07
3.12588e-07
3.12527e-07
3.12434e-07
3.1234e-07
3.12314e-07
3.12315e-07
3.12326e-07
3.12362e-07
3.12363e-07
3.1236e-07
3.1237e-07
3.12383e-07
3.12428e-07
3.12508e-07
3.1254e-07
3.12584e-07
3.12673e-07
3.1283e-07
3.13038e-07
3.13243e-07
3.1349e-07
3.13799e-07
3.14133e-07
3.14601e-07
3.1498e-07
3.15517e-07
3.15785e-07
3.16138e-07
3.16388e-07
3.16531e-07
3.16881e-07
3.17305e-07
3.18294e-07
3.19338e-07
3.20594e-07
3.2186e-07
3.23678e-07
3.25369e-07
3.27354e-07
3.29553e-07
3.32331e-07
3.3558e-07
3.36259e-07
3.12789e-07
3.12716e-07
3.12658e-07
3.12577e-07
3.125e-07
3.12482e-07
3.12483e-07
3.12486e-07
3.12515e-07
3.12509e-07
3.12511e-07
3.12541e-07
3.12587e-07
3.12673e-07
3.12783e-07
3.12875e-07
3.12985e-07
3.13137e-07
3.13321e-07
3.13521e-07
3.13706e-07
3.13914e-07
3.14144e-07
3.14352e-07
3.14672e-07
3.14895e-07
3.15396e-07
3.15638e-07
3.16035e-07
3.16496e-07
3.17023e-07
3.17708e-07
3.18489e-07
3.19335e-07
3.20053e-07
3.21048e-07
3.22155e-07
3.23843e-07
3.2549e-07
3.27142e-07
3.29055e-07
3.30834e-07
3.32954e-07
3.33825e-07
3.12873e-07
3.12774e-07
3.12701e-07
3.12617e-07
3.12547e-07
3.12524e-07
3.12501e-07
3.12484e-07
3.12489e-07
3.12462e-07
3.12449e-07
3.12486e-07
3.12527e-07
3.12598e-07
3.12677e-07
3.12746e-07
3.12838e-07
3.12969e-07
3.13144e-07
3.13346e-07
3.13535e-07
3.13743e-07
3.13997e-07
3.14307e-07
3.14755e-07
3.15005e-07
3.15423e-07
3.15652e-07
3.15952e-07
3.16337e-07
3.16662e-07
3.17079e-07
3.17469e-07
3.18219e-07
3.19041e-07
3.20138e-07
3.21212e-07
3.22751e-07
3.24221e-07
3.25881e-07
3.27751e-07
3.29677e-07
3.3216e-07
3.32516e-07
3.12988e-07
3.12881e-07
3.12805e-07
3.12725e-07
3.1267e-07
3.12651e-07
3.12628e-07
3.12606e-07
3.12609e-07
3.12594e-07
3.12606e-07
3.12668e-07
3.12744e-07
3.12847e-07
3.12958e-07
3.13071e-07
3.1321e-07
3.13377e-07
3.13565e-07
3.13765e-07
3.13955e-07
3.14159e-07
3.14399e-07
3.14591e-07
3.14919e-07
3.15118e-07
3.15475e-07
3.15702e-07
3.15995e-07
3.16463e-07
3.16807e-07
3.17295e-07
3.17881e-07
3.18716e-07
3.19431e-07
3.20372e-07
3.21332e-07
3.22645e-07
3.24208e-07
3.25669e-07
3.27384e-07
3.2864e-07
3.30052e-07
3.30523e-07
3.13048e-07
3.12932e-07
3.12841e-07
3.12757e-07
3.12703e-07
3.12672e-07
3.12632e-07
3.12597e-07
3.12584e-07
3.12567e-07
3.12578e-07
3.12646e-07
3.12719e-07
3.12803e-07
3.12887e-07
3.12972e-07
3.13087e-07
3.13238e-07
3.13416e-07
3.13607e-07
3.13787e-07
3.13974e-07
3.14205e-07
3.14416e-07
3.14777e-07
3.14952e-07
3.15273e-07
3.15525e-07
3.15791e-07
3.16244e-07
3.16538e-07
3.16924e-07
3.17311e-07
3.18037e-07
3.18758e-07
3.19704e-07
3.20613e-07
3.21893e-07
3.23238e-07
3.24633e-07
3.26152e-07
3.27451e-07
3.29239e-07
3.29439e-07
3.13142e-07
3.13025e-07
3.12933e-07
3.12859e-07
3.12815e-07
3.12788e-07
3.12752e-07
3.12719e-07
3.1271e-07
3.12715e-07
3.12752e-07
3.12836e-07
3.12933e-07
3.13039e-07
3.13145e-07
3.13262e-07
3.13403e-07
3.13568e-07
3.13746e-07
3.13934e-07
3.14121e-07
3.14313e-07
3.1455e-07
3.14708e-07
3.15001e-07
3.15152e-07
3.15399e-07
3.1567e-07
3.15909e-07
3.16327e-07
3.16606e-07
3.16976e-07
3.17405e-07
3.18174e-07
3.18869e-07
3.19722e-07
3.20566e-07
3.21695e-07
3.23126e-07
3.24381e-07
3.25713e-07
3.26641e-07
3.27634e-07
3.27865e-07
3.13192e-07
3.13075e-07
3.12978e-07
3.12903e-07
3.12855e-07
3.12813e-07
3.12767e-07
3.12729e-07
3.1271e-07
3.12719e-07
3.12759e-07
3.12842e-07
3.12929e-07
3.13007e-07
3.13081e-07
3.13174e-07
3.13298e-07
3.13451e-07
3.13618e-07
3.13793e-07
3.13961e-07
3.1412e-07
3.14343e-07
3.14479e-07
3.14759e-07
3.14913e-07
3.15136e-07
3.15451e-07
3.15652e-07
3.16028e-07
3.16319e-07
3.16684e-07
3.17079e-07
3.17784e-07
3.18439e-07
3.19246e-07
3.20047e-07
3.21136e-07
3.2235e-07
3.23457e-07
3.24597e-07
3.25504e-07
3.26838e-07
3.27027e-07
3.13276e-07
3.1316e-07
3.13069e-07
3.13007e-07
3.12966e-07
3.12927e-07
3.12889e-07
3.1286e-07
3.1285e-07
3.12877e-07
3.12932e-07
3.13021e-07
3.13117e-07
3.13205e-07
3.13297e-07
3.13414e-07
3.13555e-07
3.13715e-07
3.13883e-07
3.14057e-07
3.14231e-07
3.14395e-07
3.14603e-07
3.14722e-07
3.14948e-07
3.15092e-07
3.15295e-07
3.15631e-07
3.15778e-07
3.16073e-07
3.16378e-07
3.16723e-07
3.17091e-07
3.17766e-07
3.18408e-07
3.1915e-07
3.19919e-07
3.20943e-07
3.22161e-07
3.23149e-07
3.24125e-07
3.24863e-07
3.25631e-07
3.25767e-07
3.13327e-07
3.13216e-07
3.13126e-07
3.13065e-07
3.13015e-07
3.12962e-07
3.12919e-07
3.12889e-07
3.12876e-07
3.12904e-07
3.12952e-07
3.13027e-07
3.131e-07
3.13164e-07
3.13236e-07
3.13334e-07
3.13462e-07
3.13614e-07
3.13776e-07
3.13935e-07
3.14083e-07
3.14204e-07
3.14386e-07
3.14476e-07
3.14675e-07
3.14839e-07
3.15021e-07
3.15382e-07
3.15488e-07
3.15758e-07
3.16094e-07
3.16454e-07
3.16831e-07
3.17451e-07
3.18075e-07
3.18789e-07
3.19515e-07
3.20432e-07
3.21462e-07
3.22336e-07
3.2319e-07
3.23891e-07
3.24883e-07
3.25094e-07
3.13407e-07
3.13299e-07
3.13213e-07
3.13164e-07
3.13123e-07
3.13076e-07
3.13043e-07
3.13023e-07
3.13019e-07
3.13053e-07
3.13107e-07
3.1318e-07
3.13256e-07
3.13329e-07
3.1342e-07
3.13538e-07
3.13679e-07
3.13835e-07
3.13992e-07
3.14142e-07
3.14288e-07
3.14405e-07
3.14571e-07
3.14668e-07
3.1484e-07
3.15027e-07
3.15179e-07
3.15521e-07
3.15594e-07
3.15816e-07
3.16166e-07
3.16505e-07
3.1684e-07
3.17407e-07
3.18024e-07
3.18693e-07
3.19381e-07
3.2024e-07
3.2121e-07
3.2204e-07
3.22757e-07
3.2339e-07
3.24008e-07
3.2405e-07
3.13468e-07
3.13357e-07