/*--------------------------------*- C++ -*----------------------------------*\
| =========                 |                                                 |
| \\      /  F ield         | OpenFOAM: The Open Source CFD Toolbox           |
|  \\    /   O peration     | Version:  v1912                                 |
|   \\  /    A nd           | Website:  www.openfoam.com                      |
|    \\/     M anipulation  |                                                 |
\*---------------------------------------------------------------------------*/
FoamFile
{
    version     2.0;
    format      ascii;
    class       volSymmTensorField;
    location    "70";
    object      R;
}
// * * * * * * * * * * * * * * * * * * * * * * * * * * * * * * * * * * * * * //

dimensions      [0 2 -2 0 0 0 0];


internalField   nonuniform List<symmTensor> 
14268
(
(2.71664e-07 -3.83476e-08 0 2.55544e-07 0 2.62499e-07)
(2.76392e-07 -3.89987e-08 0 2.53469e-07 0 2.6487e-07)
(2.87705e-07 -4.03014e-08 0 2.53776e-07 0 2.71287e-07)
(3.06121e-07 -4.25101e-08 0 2.59039e-07 0 2.836e-07)
(3.31218e-07 -4.58538e-08 0 2.7271e-07 0 3.03331e-07)
(3.60546e-07 -4.98232e-08 0 2.92759e-07 0 3.28202e-07)
(3.80474e-07 -5.25583e-08 0 3.08314e-07 0 3.45948e-07)
(3.88633e-07 -5.38296e-08 0 3.18761e-07 0 3.55045e-07)
(3.90414e-07 -5.42659e-08 0 3.2556e-07 0 3.59117e-07)
(3.89066e-07 -5.43469e-08 0 3.30114e-07 0 3.60514e-07)
(3.85329e-07 -5.43552e-08 0 3.34551e-07 0 3.60621e-07)
(3.81812e-07 -5.43488e-08 0 3.37611e-07 0 3.60236e-07)
(3.76918e-07 -5.43295e-08 0 3.41417e-07 0 3.59476e-07)
(3.71815e-07 -5.43335e-08 0 3.4528e-07 0 3.58648e-07)
(3.67724e-07 -5.43448e-08 0 3.4834e-07 0 3.57982e-07)
(3.64571e-07 -5.43721e-08 0 3.50639e-07 0 3.57465e-07)
(3.62405e-07 -5.44111e-08 0 3.52142e-07 0 3.57091e-07)
(3.59565e-07 -5.44041e-08 0 3.54276e-07 0 3.5667e-07)
(3.57456e-07 -5.43875e-08 0 3.55992e-07 0 3.56418e-07)
(3.55122e-07 -5.4353e-08 0 3.58138e-07 0 3.56238e-07)
(3.52518e-07 -5.43007e-08 0 3.60793e-07 0 3.56149e-07)
(3.49574e-07 -5.42372e-08 0 3.64066e-07 0 3.56168e-07)
(3.46316e-07 -5.4167e-08 0 3.67971e-07 0 3.56309e-07)
(3.4276e-07 -5.40952e-08 0 3.72497e-07 0 3.56577e-07)
(3.38965e-07 -5.40266e-08 0 3.7758e-07 0 3.56975e-07)
(3.35027e-07 -5.39664e-08 0 3.83095e-07 0 3.57497e-07)
(3.31008e-07 -5.39251e-08 0 3.88944e-07 0 3.58136e-07)
(3.27019e-07 -5.39059e-08 0 3.94918e-07 0 3.58855e-07)
(3.23292e-07 -5.38987e-08 0 4.0043e-07 0 3.59516e-07)
(3.1988e-07 -5.39001e-08 0 4.05234e-07 0 3.60036e-07)
(3.16903e-07 -5.39036e-08 0 4.09059e-07 0 3.60343e-07)
(3.13933e-07 -5.38961e-08 0 4.12268e-07 0 3.6039e-07)
(3.11524e-07 -5.38812e-08 0 4.14202e-07 0 3.60131e-07)
(3.09752e-07 -5.38536e-08 0 4.15006e-07 0 3.59656e-07)
(3.08615e-07 -5.38367e-08 0 4.15114e-07 0 3.59131e-07)
(3.08825e-07 -5.39643e-08 0 4.14903e-07 0 3.59085e-07)
(3.10782e-07 -5.42483e-08 0 4.13837e-07 0 3.59526e-07)
(3.14599e-07 -5.47027e-08 0 4.11286e-07 0 3.60272e-07)
(3.20517e-07 -5.53077e-08 0 4.06489e-07 0 3.6114e-07)
(3.2856e-07 -5.59828e-08 0 3.99993e-07 0 3.62354e-07)
(3.38532e-07 -5.66897e-08 0 3.92463e-07 0 3.64098e-07)
(3.50201e-07 -5.73835e-08 0 3.84183e-07 0 3.6638e-07)
(3.63106e-07 -5.80059e-08 0 3.75566e-07 0 3.69149e-07)
(3.76838e-07 -5.84978e-08 0 3.66804e-07 0 3.72267e-07)
(3.90835e-07 -5.88302e-08 0 3.5821e-07 0 3.75584e-07)
(4.04289e-07 -5.90025e-08 0 3.50269e-07 0 3.78898e-07)
(4.1635e-07 -5.90253e-08 0 3.43412e-07 0 3.81967e-07)
(4.26377e-07 -5.89262e-08 0 3.37905e-07 0 3.84583e-07)
(4.33996e-07 -5.87498e-08 0 3.33861e-07 0 3.86611e-07)
(4.39116e-07 -5.85404e-08 0 3.31255e-07 0 3.87999e-07)
(4.41612e-07 -5.83653e-08 0 3.3008e-07 0 3.88717e-07)
(4.41958e-07 -5.82628e-08 0 3.30032e-07 0 3.88869e-07)
(4.41111e-07 -5.82111e-08 0 3.30633e-07 0 3.88683e-07)
(4.39641e-07 -5.81885e-08 0 3.31693e-07 0 3.88348e-07)
(4.38072e-07 -5.81917e-08 0 3.33006e-07 0 3.88066e-07)
(4.36319e-07 -5.82388e-08 0 3.34604e-07 0 3.87826e-07)
(4.34411e-07 -5.82814e-08 0 3.36452e-07 0 3.87636e-07)
(4.32167e-07 -5.82925e-08 0 3.38648e-07 0 3.87459e-07)
(4.29227e-07 -5.82578e-08 0 3.41407e-07 0 3.87229e-07)
(4.25302e-07 -5.81735e-08 0 3.45109e-07 0 3.86952e-07)
(4.20655e-07 -5.80604e-08 0 3.49664e-07 0 3.86695e-07)
(4.15464e-07 -5.79436e-08 0 3.54956e-07 0 3.86492e-07)
(4.09426e-07 -5.78374e-08 0 3.61408e-07 0 3.86382e-07)
(4.02692e-07 -5.77659e-08 0 3.6902e-07 0 3.8644e-07)
(3.95827e-07 -5.77443e-08 0 3.77226e-07 0 3.86696e-07)
(3.89103e-07 -5.77638e-08 0 3.85557e-07 0 3.87081e-07)
(3.82929e-07 -5.78031e-08 0 3.93253e-07 0 3.87455e-07)
(3.77143e-07 -5.78777e-08 0 4.00142e-07 0 3.87658e-07)
(3.71775e-07 -5.79506e-08 0 4.06174e-07 0 3.87688e-07)
(3.67639e-07 -5.80393e-08 0 4.10989e-07 0 3.87797e-07)
(3.64491e-07 -5.81183e-08 0 4.1414e-07 0 3.87671e-07)
(3.62363e-07 -5.81554e-08 0 4.15698e-07 0 3.87353e-07)
(3.60928e-07 -5.8149e-08 0 4.16194e-07 0 3.86907e-07)
(3.59958e-07 -5.81071e-08 0 4.16055e-07 0 3.86402e-07)
(3.59248e-07 -5.80324e-08 0 4.1563e-07 0 3.8589e-07)
(3.58611e-07 -5.79302e-08 0 4.152e-07 0 3.85404e-07)
(3.57924e-07 -5.78077e-08 0 4.14952e-07 0 3.84969e-07)
(3.57083e-07 -5.76741e-08 0 4.15041e-07 0 3.84611e-07)
(3.55961e-07 -5.7544e-08 0 4.15629e-07 0 3.84345e-07)
(3.54514e-07 -5.74282e-08 0 4.16762e-07 0 3.84171e-07)
(3.5286e-07 -5.7325e-08 0 4.18286e-07 0 3.8407e-07)
(3.51013e-07 -5.72479e-08 0 4.2011e-07 0 3.84014e-07)
(3.49224e-07 -5.72071e-08 0 4.21883e-07 0 3.83967e-07)
(3.47571e-07 -5.71945e-08 0 4.23422e-07 0 3.83886e-07)
(3.46175e-07 -5.72004e-08 0 4.24538e-07 0 3.83735e-07)
(3.45143e-07 -5.72121e-08 0 4.25105e-07 0 3.83501e-07)
(3.445e-07 -5.722e-08 0 4.25164e-07 0 3.83205e-07)
(3.44575e-07 -5.73059e-08 0 4.24924e-07 0 3.83104e-07)
(3.45483e-07 -5.74532e-08 0 4.24513e-07 0 3.83329e-07)
(3.47264e-07 -5.76669e-08 0 4.23682e-07 0 3.83793e-07)
(3.4992e-07 -5.79336e-08 0 4.22296e-07 0 3.84442e-07)
(3.53466e-07 -5.82509e-08 0 4.20198e-07 0 3.85222e-07)
(3.57928e-07 -5.86074e-08 0 4.17235e-07 0 3.86089e-07)
(3.63171e-07 -5.89833e-08 0 4.13687e-07 0 3.87093e-07)
(3.69045e-07 -5.93645e-08 0 4.09803e-07 0 3.88262e-07)
(3.75446e-07 -5.97347e-08 0 4.05616e-07 0 3.89561e-07)
(3.82153e-07 -6.00631e-08 0 4.0129e-07 0 3.90954e-07)
(3.89e-07 -6.03252e-08 0 3.96871e-07 0 3.9237e-07)
(3.95724e-07 -6.05097e-08 0 3.92457e-07 0 3.93719e-07)
(4.01799e-07 -6.06202e-08 0 3.88448e-07 0 3.94946e-07)
(4.06916e-07 -6.06506e-08 0 3.84948e-07 0 3.95939e-07)
(4.10987e-07 -6.05959e-08 0 3.81812e-07 0 3.9657e-07)
(4.13944e-07 -6.04674e-08 0 3.78986e-07 0 3.96757e-07)
(4.16044e-07 -6.02489e-08 0 3.76149e-07 0 3.96478e-07)
(4.1706e-07 -5.99427e-08 0 3.73474e-07 0 3.95709e-07)
(4.16852e-07 -5.95988e-08 0 3.71306e-07 0 3.94553e-07)
(4.15724e-07 -5.92739e-08 0 3.6961e-07 0 3.93182e-07)
(4.1456e-07 -5.90047e-08 0 3.67971e-07 0 3.91832e-07)
(4.1472e-07 -5.88158e-08 0 3.65559e-07 0 3.90758e-07)
(4.15773e-07 -5.86979e-08 0 3.6272e-07 0 3.8995e-07)
(4.1762e-07 -5.86187e-08 0 3.59527e-07 0 3.89409e-07)
(4.20199e-07 -5.85359e-08 0 3.55968e-07 0 3.89104e-07)
(4.23212e-07 -5.84015e-08 0 3.52231e-07 0 3.8895e-07)
(4.26195e-07 -5.81713e-08 0 3.4861e-07 0 3.88822e-07)
(4.28443e-07 -5.78408e-08 0 3.45545e-07 0 3.88562e-07)
(4.29415e-07 -5.74748e-08 0 3.43347e-07 0 3.88025e-07)
(4.29304e-07 -5.70828e-08 0 3.42183e-07 0 3.87353e-07)
(4.27548e-07 -5.66357e-08 0 3.42446e-07 0 3.86503e-07)
(4.23183e-07 -5.6133e-08 0 3.44677e-07 0 3.85311e-07)
(4.16661e-07 -5.56561e-08 0 3.48826e-07 0 3.83948e-07)
(4.08939e-07 -5.52708e-08 0 3.54396e-07 0 3.8265e-07)
(4.00497e-07 -5.49894e-08 0 3.61075e-07 0 3.81523e-07)
(3.91888e-07 -5.48014e-08 0 3.68418e-07 0 3.80631e-07)
(3.83589e-07 -5.46839e-08 0 3.759e-07 0 3.79969e-07)
(3.75863e-07 -5.46091e-08 0 3.83128e-07 0 3.79483e-07)
(3.69151e-07 -5.45522e-08 0 3.89652e-07 0 3.79158e-07)
(3.63069e-07 -5.4504e-08 0 3.95666e-07 0 3.78903e-07)
(3.57355e-07 -5.44456e-08 0 4.01271e-07 0 3.78643e-07)
(3.52533e-07 -5.43714e-08 0 4.05913e-07 0 3.78397e-07)
(3.48146e-07 -5.42712e-08 0 4.10054e-07 0 3.78137e-07)
(3.4415e-07 -5.41469e-08 0 4.13642e-07 0 3.77822e-07)
(3.40458e-07 -5.40075e-08 0 4.16708e-07 0 3.77434e-07)
(3.36957e-07 -5.38612e-08 0 4.19415e-07 0 3.76982e-07)
(3.33651e-07 -5.37244e-08 0 4.2176e-07 0 3.76466e-07)
(3.30601e-07 -5.36052e-08 0 4.23679e-07 0 3.75889e-07)
(3.27872e-07 -5.35073e-08 0 4.25104e-07 0 3.75246e-07)
(3.25578e-07 -5.34381e-08 0 4.2593e-07 0 3.74537e-07)
(3.23818e-07 -5.33869e-08 0 4.26135e-07 0 3.73795e-07)
(3.22648e-07 -5.33538e-08 0 4.25849e-07 0 3.73079e-07)
(3.22491e-07 -5.34478e-08 0 4.25497e-07 0 3.72796e-07)
(3.23708e-07 -5.36846e-08 0 4.24928e-07 0 3.73074e-07)
(3.26328e-07 -5.40418e-08 0 4.23804e-07 0 3.73796e-07)
(3.30356e-07 -5.44954e-08 0 4.21785e-07 0 3.74829e-07)
(3.35674e-07 -5.49973e-08 0 4.18678e-07 0 3.7605e-07)
(3.42004e-07 -5.5511e-08 0 4.14787e-07 0 3.7744e-07)
(3.49071e-07 -5.60027e-08 0 4.10616e-07 0 3.79043e-07)
(3.56605e-07 -5.64519e-08 0 4.06368e-07 0 3.80795e-07)
(3.64257e-07 -5.68583e-08 0 4.02226e-07 0 3.82613e-07)
(3.71725e-07 -5.72127e-08 0 3.98187e-07 0 3.84386e-07)
(3.78759e-07 -5.75164e-08 0 3.94255e-07 0 3.86035e-07)
(3.85361e-07 -5.77785e-08 0 3.90536e-07 0 3.87566e-07)
(3.91573e-07 -5.80162e-08 0 3.8698e-07 0 3.88978e-07)
(3.97317e-07 -5.82196e-08 0 3.83582e-07 0 3.90251e-07)
(4.027e-07 -5.8353e-08 0 3.80288e-07 0 3.91386e-07)
(4.07817e-07 -5.83853e-08 0 3.77038e-07 0 3.9239e-07)
(4.12521e-07 -5.83205e-08 0 3.73976e-07 0 3.93244e-07)
(4.16391e-07 -5.82158e-08 0 3.71322e-07 0 3.9387e-07)
(4.19132e-07 -5.80656e-08 0 3.69108e-07 0 3.94187e-07)
(4.20732e-07 -5.78472e-08 0 3.67323e-07 0 3.94148e-07)
(4.21657e-07 -5.76432e-08 0 3.65755e-07 0 3.93854e-07)
(4.22156e-07 -5.74165e-08 0 3.64621e-07 0 3.93522e-07)
(4.21145e-07 -5.72227e-08 0 3.64759e-07 0 3.93085e-07)
(4.19207e-07 -5.69406e-08 0 3.65925e-07 0 3.92553e-07)
(4.15738e-07 -5.66932e-08 0 3.68297e-07 0 3.91985e-07)
(6.96583e-08 -6.53684e-09 0 6.68826e-08 0 6.78689e-08)
(7.7061e-08 -7.63023e-09 0 7.20422e-08 0 7.43432e-08)
(9.61976e-08 -1.02765e-08 0 8.5759e-08 0 9.0838e-08)
(1.27851e-07 -1.45021e-08 0 1.0846e-07 0 1.18011e-07)
(1.70514e-07 -2.03732e-08 0 1.4041e-07 0 1.55281e-07)
(2.1364e-07 -2.6268e-08 0 1.73284e-07 0 1.93207e-07)
(2.40585e-07 -2.97671e-08 0 1.94123e-07 0 2.17033e-07)
(2.52231e-07 -3.13343e-08 0 2.06026e-07 0 2.28736e-07)
(2.55142e-07 -3.15848e-08 0 2.1085e-07 0 2.32559e-07)
(2.54006e-07 -3.1382e-08 0 2.1219e-07 0 2.32639e-07)
(2.49158e-07 -3.09791e-08 0 2.12577e-07 0 2.30401e-07)
(2.41911e-07 -3.04618e-08 0 2.11921e-07 0 2.26453e-07)
(2.34597e-07 -2.99242e-08 0 2.10791e-07 0 2.22235e-07)
(2.28052e-07 -2.95376e-08 0 2.097e-07 0 2.18427e-07)
(2.22472e-07 -2.92314e-08 0 2.08596e-07 0 2.15106e-07)
(2.17786e-07 -2.90049e-08 0 2.07571e-07 0 2.12279e-07)
(2.13852e-07 -2.88101e-08 0 2.06579e-07 0 2.09851e-07)
(2.10215e-07 -2.85989e-08 0 2.05744e-07 0 2.07646e-07)
(2.06824e-07 -2.83425e-08 0 2.04852e-07 0 2.05535e-07)
(2.03263e-07 -2.80158e-08 0 2.0398e-07 0 2.0334e-07)
(1.99354e-07 -2.76077e-08 0 2.03064e-07 0 2.00946e-07)
(1.94964e-07 -2.71137e-08 0 2.02032e-07 0 1.98253e-07)
(1.90063e-07 -2.65436e-08 0 2.00841e-07 0 1.95222e-07)
(1.84689e-07 -2.59116e-08 0 1.99452e-07 0 1.91856e-07)
(1.78953e-07 -2.52385e-08 0 1.97873e-07 0 1.88213e-07)
(1.72988e-07 -2.45469e-08 0 1.96142e-07 0 1.8438e-07)
(1.66941e-07 -2.38587e-08 0 1.94303e-07 0 1.80451e-07)
(1.60982e-07 -2.31928e-08 0 1.92388e-07 0 1.76526e-07)
(1.55286e-07 -2.25721e-08 0 1.90434e-07 0 1.72713e-07)
(1.50024e-07 -2.20234e-08 0 1.88517e-07 0 1.69134e-07)
(1.45356e-07 -2.15714e-08 0 1.86739e-07 0 1.65919e-07)
(1.41477e-07 -2.12423e-08 0 1.85182e-07 0 1.63205e-07)
(1.38571e-07 -2.1076e-08 0 1.84006e-07 0 1.61161e-07)
(1.36848e-07 -2.11061e-08 0 1.83405e-07 0 1.59991e-07)
(1.36528e-07 -2.14109e-08 0 1.83585e-07 0 1.59906e-07)
(1.37618e-07 -2.1893e-08 0 1.84147e-07 0 1.60724e-07)
(1.40143e-07 -2.25608e-08 0 1.85068e-07 0 1.62448e-07)
(1.44242e-07 -2.34117e-08 0 1.86385e-07 0 1.65163e-07)
(1.50068e-07 -2.44339e-08 0 1.8809e-07 0 1.68945e-07)
(1.57764e-07 -2.56065e-08 0 1.90144e-07 0 1.73846e-07)
(1.67407e-07 -2.68935e-08 0 1.92556e-07 0 1.79906e-07)
(1.78947e-07 -2.82419e-08 0 1.95271e-07 0 1.87072e-07)
(1.92181e-07 -2.95839e-08 0 1.98217e-07 0 1.95201e-07)
(2.06726e-07 -3.08399e-08 0 2.0122e-07 0 2.04015e-07)
(2.21964e-07 -3.19303e-08 0 2.04139e-07 0 2.13134e-07)
(2.37001e-07 -3.27848e-08 0 2.06847e-07 0 2.22038e-07)
(2.50861e-07 -3.33625e-08 0 2.09229e-07 0 2.30178e-07)
(2.62657e-07 -3.36577e-08 0 2.11193e-07 0 2.37064e-07)
(2.71757e-07 -3.37034e-08 0 2.12705e-07 0 2.4236e-07)
(2.77907e-07 -3.35618e-08 0 2.13778e-07 0 2.45947e-07)
(2.81268e-07 -3.33067e-08 0 2.14442e-07 0 2.47922e-07)
(2.8232e-07 -3.30174e-08 0 2.14759e-07 0 2.48563e-07)
(2.81728e-07 -3.27434e-08 0 2.14834e-07 0 2.48263e-07)
(2.79913e-07 -3.24828e-08 0 2.14747e-07 0 2.4727e-07)
(2.77491e-07 -3.22689e-08 0 2.14583e-07 0 2.45945e-07)
(2.74823e-07 -3.2084e-08 0 2.14419e-07 0 2.44506e-07)
(2.71905e-07 -3.18641e-08 0 2.14228e-07 0 2.42937e-07)
(2.68543e-07 -3.1555e-08 0 2.13976e-07 0 2.41119e-07)
(2.64438e-07 -3.11083e-08 0 2.13599e-07 0 2.3887e-07)
(2.59284e-07 -3.04901e-08 0 2.13011e-07 0 2.35991e-07)
(2.5286e-07 -2.96944e-08 0 2.12131e-07 0 2.32328e-07)
(2.45121e-07 -2.87448e-08 0 2.10906e-07 0 2.27829e-07)
(2.36236e-07 -2.76882e-08 0 2.09295e-07 0 2.22562e-07)
(2.26552e-07 -2.65872e-08 0 2.07295e-07 0 2.16699e-07)
(2.16571e-07 -2.551e-08 0 2.04962e-07 0 2.10524e-07)
(2.06936e-07 -2.45315e-08 0 2.02463e-07 0 2.04445e-07)
(1.98168e-07 -2.37153e-08 0 2.00008e-07 0 1.98831e-07)
(1.90497e-07 -2.30924e-08 0 1.97785e-07 0 1.9389e-07)
(1.84124e-07 -2.26467e-08 0 1.95802e-07 0 1.89722e-07)
(1.79181e-07 -2.23812e-08 0 1.942e-07 0 1.86466e-07)
(1.75636e-07 -2.2273e-08 0 1.93039e-07 0 1.84134e-07)
(1.73353e-07 -2.22852e-08 0 1.9233e-07 0 1.82662e-07)
(1.72095e-07 -2.23719e-08 0 1.92013e-07 0 1.81898e-07)
(1.71554e-07 -2.24847e-08 0 1.91984e-07 0 1.81637e-07)
(1.71402e-07 -2.25708e-08 0 1.92105e-07 0 1.81643e-07)
(1.71248e-07 -2.25938e-08 0 1.92252e-07 0 1.8166e-07)
(1.70816e-07 -2.25253e-08 0 1.92264e-07 0 1.81465e-07)
(1.699e-07 -2.23628e-08 0 1.92081e-07 0 1.80928e-07)
(1.68391e-07 -2.21161e-08 0 1.91675e-07 0 1.7998e-07)
(1.66299e-07 -2.18082e-08 0 1.91058e-07 0 1.78632e-07)
(1.63777e-07 -2.1472e-08 0 1.90253e-07 0 1.7697e-07)
(1.6104e-07 -2.11497e-08 0 1.89365e-07 0 1.75154e-07)
(1.58352e-07 -2.08824e-08 0 1.88521e-07 0 1.73381e-07)
(1.55978e-07 -2.07033e-08 0 1.87847e-07 0 1.71845e-07)
(1.54148e-07 -2.06334e-08 0 1.87421e-07 0 1.70704e-07)
(1.5302e-07 -2.06833e-08 0 1.87306e-07 0 1.70069e-07)
(1.5272e-07 -2.0885e-08 0 1.87616e-07 0 1.70061e-07)
(1.53316e-07 -2.11818e-08 0 1.88151e-07 0 1.70617e-07)
(1.5469e-07 -2.15597e-08 0 1.88906e-07 0 1.71672e-07)
(1.56875e-07 -2.20122e-08 0 1.89852e-07 0 1.7323e-07)
(1.59865e-07 -2.25329e-08 0 1.90994e-07 0 1.75289e-07)
(1.63646e-07 -2.31156e-08 0 1.92338e-07 0 1.77844e-07)
(1.682e-07 -2.37521e-08 0 1.93883e-07 0 1.80885e-07)
(1.73492e-07 -2.44329e-08 0 1.95609e-07 0 1.84383e-07)
(1.79472e-07 -2.51447e-08 0 1.97476e-07 0 1.88297e-07)
(1.86044e-07 -2.58675e-08 0 1.99433e-07 0 1.92553e-07)
(1.9308e-07 -2.65768e-08 0 2.01417e-07 0 1.97055e-07)
(2.0038e-07 -2.72423e-08 0 2.03361e-07 0 2.01667e-07)
(2.07672e-07 -2.78336e-08 0 2.05194e-07 0 2.06225e-07)
(2.14646e-07 -2.83232e-08 0 2.06842e-07 0 2.10532e-07)
(2.20973e-07 -2.86838e-08 0 2.08256e-07 0 2.14398e-07)
(2.26313e-07 -2.89175e-08 0 2.09395e-07 0 2.17633e-07)
(2.30564e-07 -2.90625e-08 0 2.10246e-07 0 2.20176e-07)
(2.33659e-07 -2.91167e-08 0 2.10829e-07 0 2.22002e-07)
(2.35642e-07 -2.90991e-08 0 2.11166e-07 0 2.23145e-07)
(2.36807e-07 -2.91029e-08 0 2.11298e-07 0 2.23774e-07)
(2.37645e-07 -2.91963e-08 0 2.11314e-07 0 2.2419e-07)
(2.38647e-07 -2.94101e-08 0 2.1133e-07 0 2.24695e-07)
(2.4028e-07 -2.9765e-08 0 2.11444e-07 0 2.25569e-07)
(2.42854e-07 -3.02562e-08 0 2.11743e-07 0 2.27014e-07)
(2.46497e-07 -3.0845e-08 0 2.12242e-07 0 2.29104e-07)
(2.51103e-07 -3.14608e-08 0 2.12874e-07 0 2.31763e-07)
(2.56297e-07 -3.20081e-08 0 2.13515e-07 0 2.34742e-07)
(2.6143e-07 -3.23877e-08 0 2.14053e-07 0 2.37639e-07)
(2.65697e-07 -3.2516e-08 0 2.14405e-07 0 2.40002e-07)
(2.68213e-07 -3.23351e-08 0 2.14455e-07 0 2.41328e-07)
(2.68364e-07 -3.18762e-08 0 2.14164e-07 0 2.41281e-07)
(2.65654e-07 -3.10529e-08 0 2.13419e-07 0 2.39569e-07)
(2.59783e-07 -2.99454e-08 0 2.12208e-07 0 2.3603e-07)
(2.51265e-07 -2.86742e-08 0 2.10557e-07 0 2.30932e-07)
(2.40839e-07 -2.73402e-08 0 2.08502e-07 0 2.24671e-07)
(2.29359e-07 -2.60317e-08 0 2.06109e-07 0 2.17713e-07)
(2.17688e-07 -2.4815e-08 0 2.03481e-07 0 2.10541e-07)
(2.0654e-07 -2.37342e-08 0 2.0072e-07 0 2.03568e-07)
(1.96368e-07 -2.27995e-08 0 1.97966e-07 0 1.97092e-07)
(1.87397e-07 -2.20032e-08 0 1.95318e-07 0 1.91268e-07)
(1.79664e-07 -2.13368e-08 0 1.92901e-07 0 1.86179e-07)
(1.7307e-07 -2.07714e-08 0 1.90754e-07 0 1.81799e-07)
(1.67446e-07 -2.02739e-08 0 1.88844e-07 0 1.78031e-07)
(1.62551e-07 -1.98127e-08 0 1.87137e-07 0 1.74731e-07)
(1.58148e-07 -1.93646e-08 0 1.85573e-07 0 1.71749e-07)
(1.54047e-07 -1.89178e-08 0 1.84098e-07 0 1.6896e-07)
(1.50149e-07 -1.84779e-08 0 1.82668e-07 0 1.66292e-07)
(1.46465e-07 -1.8069e-08 0 1.81285e-07 0 1.63751e-07)
(1.43099e-07 -1.77213e-08 0 1.80006e-07 0 1.61415e-07)
(1.40214e-07 -1.74716e-08 0 1.78925e-07 0 1.5942e-07)
(1.38012e-07 -1.73525e-08 0 1.78148e-07 0 1.5792e-07)
(1.36655e-07 -1.7381e-08 0 1.77801e-07 0 1.57055e-07)
(1.36367e-07 -1.76199e-08 0 1.78088e-07 0 1.57042e-07)
(1.3718e-07 -1.79927e-08 0 1.78731e-07 0 1.5776e-07)
(1.39053e-07 -1.84921e-08 0 1.79681e-07 0 1.59166e-07)
(1.42071e-07 -1.91064e-08 0 1.80952e-07 0 1.61311e-07)
(1.46228e-07 -1.98091e-08 0 1.82537e-07 0 1.64186e-07)
(1.51429e-07 -2.05701e-08 0 1.84401e-07 0 1.67731e-07)
(1.5754e-07 -2.13615e-08 0 1.86497e-07 0 1.71851e-07)
(1.64405e-07 -2.2155e-08 0 1.88747e-07 0 1.76418e-07)
(1.718e-07 -2.29278e-08 0 1.91083e-07 0 1.81274e-07)
(1.79487e-07 -2.3669e-08 0 1.93443e-07 0 1.86273e-07)
(1.87216e-07 -2.43762e-08 0 1.95749e-07 0 1.91267e-07)
(1.94814e-07 -2.50521e-08 0 1.97953e-07 0 1.96169e-07)
(2.02252e-07 -2.56998e-08 0 2.00051e-07 0 2.00944e-07)
(2.09509e-07 -2.63285e-08 0 2.02067e-07 0 2.05586e-07)
(2.16566e-07 -2.69315e-08 0 2.03993e-07 0 2.10087e-07)
(2.23421e-07 -2.7483e-08 0 2.05799e-07 0 2.14418e-07)
(2.29987e-07 -2.79472e-08 0 2.07452e-07 0 2.18505e-07)
(2.35996e-07 -2.82971e-08 0 2.08862e-07 0 2.2218e-07)
(2.41133e-07 -2.85232e-08 0 2.09915e-07 0 2.25257e-07)
(2.45097e-07 -2.86027e-08 0 2.1059e-07 0 2.2758e-07)
(2.47624e-07 -2.85126e-08 0 2.10862e-07 0 2.28988e-07)
(2.48648e-07 -2.82732e-08 0 2.10699e-07 0 2.29427e-07)
(2.48143e-07 -2.78751e-08 0 2.1012e-07 0 2.28887e-07)
(2.45774e-07 -2.73199e-08 0 2.09255e-07 0 2.27285e-07)
(2.41998e-07 -2.66238e-08 0 2.08031e-07 0 2.2471e-07)
(2.36712e-07 -2.58673e-08 0 2.0659e-07 0 2.2134e-07)
(1.8884e-08 -1.44886e-09 0 1.79136e-08 0 1.82916e-08)
(2.11918e-08 -1.71885e-09 0 1.95852e-08 0 2.03324e-08)
(2.81766e-08 -2.48399e-09 0 2.4813e-08 0 2.64527e-08)
(4.21873e-08 -4.05017e-09 0 3.5396e-08 0 3.87384e-08)
(6.46322e-08 -6.68627e-09 0 5.26052e-08 0 5.85444e-08)
(9.23207e-08 -9.91007e-09 0 7.41123e-08 0 8.31072e-08)
(1.12209e-07 -1.20566e-08 0 8.95768e-08 0 1.00754e-07)
(1.21924e-07 -1.30554e-08 0 9.83628e-08 0 1.09985e-07)
(1.24748e-07 -1.32041e-08 0 1.01941e-07 0 1.13176e-07)
(1.24421e-07 -1.30501e-08 0 1.02837e-07 0 1.13457e-07)
(1.2182e-07 -1.28067e-08 0 1.02791e-07 0 1.12135e-07)
(1.17383e-07 -1.25276e-08 0 1.02068e-07 0 1.0956e-07)
(1.12906e-07 -1.22448e-08 0 1.00876e-07 0 1.06731e-07)
(1.09e-07 -1.20512e-08 0 9.97949e-08 0 1.04244e-07)
(1.05663e-07 -1.19296e-08 0 9.88174e-08 0 1.02093e-07)
(1.02889e-07 -1.18425e-08 0 9.79716e-08 0 1.00292e-07)
(1.00543e-07 -1.17687e-08 0 9.72306e-08 0 9.87582e-08)
(9.84569e-08 -1.16752e-08 0 9.65496e-08 0 9.73841e-08)
(9.64745e-08 -1.15404e-08 0 9.587e-08 0 9.60618e-08)
(9.44248e-08 -1.13529e-08 0 9.51598e-08 0 9.46882e-08)
(9.22e-08 -1.1111e-08 0 9.43846e-08 0 9.31932e-08)
(8.97299e-08 -1.08186e-08 0 9.3506e-08 0 9.15231e-08)
(8.70088e-08 -1.0488e-08 0 9.25176e-08 0 8.96709e-08)
(8.40769e-08 -1.01343e-08 0 9.14218e-08 0 8.76582e-08)
(8.10083e-08 -9.77364e-09 0 9.02483e-08 0 8.55369e-08)
(7.78906e-08 -9.42242e-09 0 8.90395e-08 0 8.33708e-08)
(7.48132e-08 -9.09369e-09 0 8.78319e-08 0 8.12229e-08)
(7.18648e-08 -8.7982e-09 0 8.66594e-08 0 7.91547e-08)
(6.91225e-08 -8.54751e-09 0 8.55578e-08 0 7.72234e-08)
(6.66628e-08 -8.35023e-09 0 8.45588e-08 0 7.5484e-08)
(6.45498e-08 -8.21296e-09 0 8.36995e-08 0 7.39875e-08)
(6.2841e-08 -8.14821e-09 0 8.30093e-08 0 7.27783e-08)
(6.1589e-08 -8.16387e-09 0 8.25127e-08 0 7.18955e-08)
(6.0865e-08 -8.26964e-09 0 8.22771e-08 0 7.14082e-08)
(6.07657e-08 -8.51215e-09 0 8.23849e-08 0 7.14053e-08)
(6.12814e-08 -8.81882e-09 0 8.26645e-08 0 7.17987e-08)
(6.24327e-08 -9.2029e-09 0 8.31066e-08 0 7.25945e-08)
(6.43061e-08 -9.65741e-09 0 8.37292e-08 0 7.38464e-08)
(6.69897e-08 -1.01757e-08 0 8.4556e-08 0 7.56114e-08)
(7.0573e-08 -1.07464e-08 0 8.56099e-08 0 7.79449e-08)
(7.51314e-08 -1.13541e-08 0 8.69165e-08 0 8.08965e-08)
(8.06933e-08 -1.19762e-08 0 8.84758e-08 0 8.44799e-08)
(8.72135e-08 -1.25808e-08 0 9.02685e-08 0 8.86608e-08)
(9.45239e-08 -1.3128e-08 0 9.22326e-08 0 9.33222e-08)
(1.02326e-07 -1.35733e-08 0 9.42743e-08 0 9.82655e-08)
(1.10164e-07 -1.38771e-08 0 9.62719e-08 0 1.03199e-07)
(1.17484e-07 -1.40164e-08 0 9.80987e-08 0 1.07782e-07)
(1.23768e-07 -1.39921e-08 0 9.96452e-08 0 1.11699e-07)
(1.28622e-07 -1.38325e-08 0 1.0084e-07 0 1.14718e-07)
(1.31871e-07 -1.35847e-08 0 1.01662e-07 0 1.16741e-07)
(1.3359e-07 -1.33046e-08 0 1.02129e-07 0 1.17819e-07)
(1.34057e-07 -1.30483e-08 0 1.02302e-07 0 1.18124e-07)
(1.33647e-07 -1.28329e-08 0 1.02271e-07 0 1.1789e-07)
(1.3258e-07 -1.2653e-08 0 1.02071e-07 0 1.17246e-07)
(1.31166e-07 -1.2515e-08 0 1.01754e-07 0 1.16375e-07)
(1.29619e-07 -1.23921e-08 0 1.01385e-07 0 1.15416e-07)
(1.27929e-07 -1.22417e-08 0 1.00946e-07 0 1.14353e-07)
(1.25957e-07 -1.20263e-08 0 1.00398e-07 0 1.13096e-07)
(1.23522e-07 -1.17147e-08 0 9.96813e-08 0 1.11525e-07)
(1.20455e-07 -1.12921e-08 0 9.87394e-08 0 1.09526e-07)
(1.16655e-07 -1.07645e-08 0 9.75256e-08 0 1.07023e-07)
(1.12129e-07 -1.01596e-08 0 9.60327e-08 0 1.04015e-07)
(1.07023e-07 -9.52087e-09 0 9.42903e-08 0 1.00591e-07)
(1.01579e-07 -8.89734e-09 0 9.23664e-08 0 9.69055e-08)
(9.61162e-08 -8.33476e-09 0 9.037e-08 0 9.31723e-08)
(9.09926e-08 -7.87171e-09 0 8.8456e-08 0 8.96487e-08)
(8.64636e-08 -7.53346e-09 0 8.6772e-08 0 8.65373e-08)
(8.26345e-08 -7.32494e-09 0 8.53899e-08 0 8.39267e-08)
(7.95449e-08 -7.2216e-09 0 8.42759e-08 0 8.1821e-08)
(7.72012e-08 -7.20878e-09 0 8.34508e-08 0 8.02338e-08)
(7.55594e-08 -7.26346e-09 0 8.29059e-08 0 7.91402e-08)
(7.45305e-08 -7.35949e-09 0 8.26095e-08 0 7.84794e-08)
(7.39875e-08 -7.46997e-09 0 8.25098e-08 0 7.81622e-08)
(7.37753e-08 -7.57128e-09 0 8.25464e-08 0 7.80803e-08)
(7.3734e-08 -7.63645e-09 0 8.26431e-08 0 7.81136e-08)
(7.36924e-08 -7.6543e-09 0 8.27402e-08 0 7.81465e-08)
(7.35023e-08 -7.61717e-09 0 8.277e-08 0 7.80701e-08)
(7.30773e-08 -7.53031e-09 0 8.26978e-08 0 7.7823e-08)
(7.23719e-08 -7.4062e-09 0 8.25095e-08 0 7.73756e-08)
(7.1402e-08 -7.26233e-09 0 8.22115e-08 0 7.67387e-08)
(7.02385e-08 -7.11901e-09 0 8.18294e-08 0 7.59609e-08)
(6.89918e-08 -6.99719e-09 0 8.14126e-08 0 7.51221e-08)
(6.77792e-08 -6.91345e-09 0 8.10148e-08 0 7.43085e-08)
(6.67164e-08 -6.87954e-09 0 8.06912e-08 0 7.36056e-08)
(6.59031e-08 -6.90064e-09 0 8.04796e-08 0 7.30847e-08)
(6.54041e-08 -6.9754e-09 0 8.04017e-08 0 7.27901e-08)
(6.52721e-08 -7.11753e-09 0 8.05046e-08 0 7.27714e-08)
(6.55187e-08 -7.2915e-09 0 8.0714e-08 0 7.29981e-08)
(6.61053e-08 -7.49225e-09 0 8.09995e-08 0 7.34347e-08)
(6.70429e-08 -7.71568e-09 0 8.13671e-08 0 7.409e-08)
(6.83355e-08 -7.95838e-09 0 8.18206e-08 0 7.49677e-08)
(6.99854e-08 -8.21789e-09 0 8.23649e-08 0 7.6071e-08)
(7.19929e-08 -8.49147e-09 0 8.30055e-08 0 7.7402e-08)
(7.435e-08 -8.77589e-09 0 8.37429e-08 0 7.89569e-08)
(7.70425e-08 -9.06519e-09 0 8.45696e-08 0 8.07252e-08)
(8.00356e-08 -9.35047e-09 0 8.54739e-08 0 8.26833e-08)
(8.32748e-08 -9.6206e-09 0 8.64377e-08 0 8.47942e-08)
(8.66715e-08 -9.86146e-09 0 8.74292e-08 0 8.6997e-08)
(9.0098e-08 -1.00615e-08 0 8.84113e-08 0 8.92107e-08)
(9.34109e-08 -1.01988e-08 0 8.93341e-08 0 9.13373e-08)
(9.64208e-08 -1.02816e-08 0 9.0174e-08 0 9.32684e-08)
(9.90201e-08 -1.03137e-08 0 9.091e-08 0 9.49404e-08)
(1.01139e-07 -1.02956e-08 0 9.15352e-08 0 9.63113e-08)
(1.02719e-07 -1.02339e-08 0 9.20175e-08 0 9.7339e-08)
(1.03805e-07 -1.01922e-08 0 9.2414e-08 0 9.80719e-08)
(1.04569e-07 -1.02075e-08 0 9.27583e-08 0 9.8616e-08)
(1.05222e-07 -1.03022e-08 0 9.30898e-08 0 9.91004e-08)
(1.05982e-07 -1.04853e-08 0 9.3454e-08 0 9.96585e-08)
(1.0707e-07 -1.07606e-08 0 9.39048e-08 0 1.00425e-07)
(1.08653e-07 -1.11186e-08 0 9.44873e-08 0 1.01507e-07)
(1.10822e-07 -1.15322e-08 0 9.52159e-08 0 1.02959e-07)
(1.13542e-07 -1.19561e-08 0 9.60646e-08 0 1.04755e-07)
(1.16631e-07 -1.23282e-08 0 9.6956e-08 0 1.06768e-07)
(1.19737e-07 -1.25839e-08 0 9.7792e-08 0 1.08766e-07)
(1.22413e-07 -1.26679e-08 0 9.8485e-08 0 1.10473e-07)
(1.24155e-07 -1.25437e-08 0 9.8916e-08 0 1.11577e-07)
(1.24463e-07 -1.22246e-08 0 9.89221e-08 0 1.11742e-07)
(1.23037e-07 -1.1668e-08 0 9.83923e-08 0 1.1077e-07)
(1.19658e-07 -1.09173e-08 0 9.72617e-08 0 1.08517e-07)
(1.14711e-07 -1.00888e-08 0 9.56337e-08 0 1.05224e-07)
(1.08731e-07 -9.26754e-09 0 9.36459e-08 0 1.01229e-07)
(1.02302e-07 -8.51837e-09 0 9.14629e-08 0 9.69108e-08)
(9.59684e-08 -7.883e-09 0 8.92512e-08 0 9.26223e-08)
(9.01116e-08 -7.37744e-09 0 8.71402e-08 0 8.86236e-08)
(8.49482e-08 -6.99102e-09 0 8.52272e-08 0 8.50718e-08)
(8.05442e-08 -6.7036e-09 0 8.35547e-08 0 8.20195e-08)
(7.68788e-08 -6.49394e-09 0 8.21448e-08 0 7.94696e-08)
(7.38559e-08 -6.33406e-09 0 8.09788e-08 0 7.73653e-08)
(7.13481e-08 -6.1999e-09 0 8.00171e-08 0 7.56239e-08)
(6.92198e-08 -6.07238e-09 0 7.92109e-08 0 7.41519e-08)
(6.73471e-08 -5.94014e-09 0 7.85145e-08 0 7.28634e-08)
(6.56336e-08 -5.80063e-09 0 7.78934e-08 0 7.16913e-08)
(6.40276e-08 -5.66239e-09 0 7.73246e-08 0 7.05973e-08)
(6.2526e-08 -5.5424e-09 0 7.68063e-08 0 6.95796e-08)
(6.11691e-08 -5.45789e-09 0 7.63583e-08 0 6.86676e-08)
(6.00215e-08 -5.42534e-09 0 7.59987e-08 0 6.79076e-08)
(5.91654e-08 -5.45228e-09 0 7.57648e-08 0 6.73579e-08)
(5.86547e-08 -5.54441e-09 0 7.5698e-08 0 6.70637e-08)
(5.85932e-08 -5.72711e-09 0 7.58726e-08 0 6.71154e-08)
(5.89743e-08 -5.95743e-09 0 7.61516e-08 0 6.74442e-08)
(5.9791e-08 -6.23202e-09 0 7.6517e-08 0 6.80379e-08)
(6.10884e-08 -6.5387e-09 0 7.6985e-08 0 6.89283e-08)
(6.28764e-08 -6.86111e-09 0 7.75771e-08 0 7.01272e-08)
(6.51282e-08 -7.18617e-09 0 7.82968e-08 0 7.16254e-08)
(6.78024e-08 -7.50344e-09 0 7.91343e-08 0 7.33972e-08)
(7.08427e-08 -7.80324e-09 0 8.00729e-08 0 7.54016e-08)
(7.41618e-08 -8.0808e-09 0 8.10942e-08 0 7.75805e-08)
(7.76629e-08 -8.33786e-09 0 8.21742e-08 0 7.98742e-08)
(8.12369e-08 -8.58e-09 0 8.32795e-08 0 8.22192e-08)
(8.48101e-08 -8.8148e-09 0 8.43884e-08 0 8.45765e-08)
(8.83718e-08 -9.04673e-09 0 8.54989e-08 0 8.69313e-08)
(9.19174e-08 -9.27812e-09 0 8.66275e-08 0 8.92823e-08)
(9.54391e-08 -9.50465e-09 0 8.77701e-08 0 9.1625e-08)
(9.89311e-08 -9.71311e-09 0 8.89116e-08 0 9.39432e-08)
(1.02327e-07 -9.88563e-09 0 9.00212e-08 0 9.61851e-08)
(1.05487e-07 -1.00094e-08 0 9.10339e-08 0 9.8259e-08)
(1.08242e-07 -1.00713e-08 0 9.18958e-08 0 1.0006e-07)
(1.10416e-07 -1.00516e-08 0 9.25685e-08 0 1.0148e-07)
(1.11853e-07 -9.94235e-09 0 9.30149e-08 0 1.02419e-07)
(1.1246e-07 -9.75509e-09 0 9.3192e-08 0 1.02805e-07)
(1.12147e-07 -9.48512e-09 0 9.30462e-08 0 1.02567e-07)
(1.10787e-07 -9.12031e-09 0 9.25704e-08 0 1.01648e-07)
(1.0857e-07 -8.69847e-09 0 9.17863e-08 0 1.00105e-07)
(1.05581e-07 -8.26953e-09 0 9.07342e-08 0 9.80753e-08)
(7.34702e-09 -5.03616e-10 0 6.90253e-09 0 7.0859e-09)
(8.28313e-09 -6.02376e-10 0 7.5769e-09 0 7.91149e-09)
(1.14016e-08 -9.04823e-10 0 9.92035e-09 0 1.06482e-08)
(1.84079e-08 -1.61176e-09 0 1.52745e-08 0 1.68232e-08)
(3.09175e-08 -2.9429e-09 0 2.4857e-08 0 2.78591e-08)
(4.8397e-08 -4.78693e-09 0 3.84312e-08 0 4.33692e-08)
(6.30609e-08 -6.20801e-09 0 4.99692e-08 0 5.6455e-08)
(7.09242e-08 -6.85007e-09 0 5.65433e-08 0 6.36642e-08)
(7.35204e-08 -7.04288e-09 0 5.9824e-08 0 6.65975e-08)
(7.36139e-08 -6.95654e-09 0 6.07834e-08 0 6.71214e-08)
(7.2499e-08 -6.84607e-09 0 6.09515e-08 0 6.66472e-08)
(7.02554e-08 -6.77876e-09 0 6.0807e-08 0 6.54544e-08)
(6.76877e-08 -6.74339e-09 0 6.04331e-08 0 6.39851e-08)
(6.54954e-08 -6.7413e-09 0 5.99837e-08 0 6.26657e-08)
(6.36691e-08 -6.75513e-09 0 5.95913e-08 0 6.15587e-08)
(6.21062e-08 -6.80441e-09 0 5.92851e-08 0 6.06266e-08)
(6.0815e-08 -6.83465e-09 0 5.90069e-08 0 5.98454e-08)
(5.9684e-08 -6.83746e-09 0 5.87471e-08 0 5.91539e-08)
(5.86108e-08 -6.80615e-09 0 5.84924e-08 0 5.84938e-08)
(5.7507e-08 -6.73788e-09 0 5.82262e-08 0 5.78115e-08)
(5.63189e-08 -6.62988e-09 0 5.79335e-08 0 5.70735e-08)
(5.50083e-08 -6.48562e-09 0 5.76045e-08 0 5.62558e-08)
(5.35719e-08 -6.33051e-09 0 5.72502e-08 0 5.53615e-08)
(5.2041e-08 -6.16948e-09 0 5.68768e-08 0 5.44096e-08)
(5.04571e-08 -6.0176e-09 0 5.65053e-08 0 5.34313e-08)
(4.88665e-08 -5.88374e-09 0 5.61559e-08 0 5.24595e-08)
(4.73168e-08 -5.77436e-09 0 5.5843e-08 0 5.15252e-08)
(4.58516e-08 -5.69324e-09 0 5.55778e-08 0 5.0656e-08)
(4.45052e-08 -5.64506e-09 0 5.53692e-08 0 4.98737e-08)
(4.33111e-08 -5.63168e-09 0 5.52184e-08 0 4.91958e-08)
(4.22965e-08 -5.6537e-09 0 5.51243e-08 0 4.86359e-08)
(4.14845e-08 -5.71636e-09 0 5.50798e-08 0 4.82022e-08)
(4.08987e-08 -5.82219e-09 0 5.50778e-08 0 4.79035e-08)
(4.05577e-08 -5.98073e-09 0 5.51299e-08 0 4.77546e-08)
(4.0518e-08 -6.20673e-09 0 5.52408e-08 0 4.7786e-08)
(4.07756e-08 -6.44695e-09 0 5.53042e-08 0 4.79443e-08)
(4.13441e-08 -6.71556e-09 0 5.53239e-08 0 4.8238e-08)
(4.22697e-08 -6.98934e-09 0 5.52946e-08 0 4.86886e-08)
(4.35992e-08 -7.26184e-09 0 5.52458e-08 0 4.93345e-08)
(4.53831e-08 -7.51713e-09 0 5.52105e-08 0 5.02172e-08)
(4.7666e-08 -7.7474e-09 0 5.52398e-08 0 5.13839e-08)
(5.0477e-08 -7.94056e-09 0 5.53763e-08 0 5.287e-08)