/*--------------------------------*- C++ -*----------------------------------*\
| =========                 |                                                 |
| \\      /  F ield         | OpenFOAM: The Open Source CFD Toolbox           |
|  \\    /   O peration     | Version:  v1912                                 |
|   \\  /    A nd           | Website:  www.openfoam.com                      |
|    \\/     M anipulation  |                                                 |
\*---------------------------------------------------------------------------*/
FoamFile
{
    version     2.0;
    format      ascii;
    class       volVectorField;
    location    "100";
    object      U;
}
// * * * * * * * * * * * * * * * * * * * * * * * * * * * * * * * * * * * * * //

dimensions      [0 1 -1 0 0 0 0];


internalField   nonuniform List<vector> 
14268
(
(-0.0416791 -0.0290818 0)
(-0.046139 -0.0332846 -5.69806e-22)
(-0.0152491 -0.0368493 5.79065e-22)
(0.0336554 -0.035963 0)
(0.101496 -0.0335845 0)
(0.145261 -0.0244301 0)
(0.149985 -0.0232528 0)
(0.195838 -0.0244982 0)
(-0.0164507 0.0260154 0)
(-0.0209267 0.0289223 -4.55649e-22)
(0.0118296 0.035074 4.89823e-22)
(0.0623079 0.0386106 0)
(0.134242 0.0432289 0)
(0.183136 0.0396366 0)
(0.180631 0.0384635 0)
(0.213364 0.0436371 0)
(-0.0398636 -0.0271792 0)
(-0.0438909 -0.0320431 0)
(-0.012181 -0.0357244 3.35522e-22)
(0.0374227 -0.0348279 0)
(0.106023 -0.0324289 0)
(0.150828 -0.0231292 0)
(0.155634 -0.0217134 0)
(0.197911 -0.0230832 0)
(-0.021566 0.0246737 2.50226e-22)
(-0.0261723 0.0268563 0)
(0.00603879 0.0316328 2.61943e-22)
(0.0552624 0.0342994 -2.8346e-22)
(0.126049 0.0388966 0)
(0.173732 0.036954 0)
(0.171066 0.0357415 0)
(0.205153 0.0408297 0)
(-0.0373763 -0.0248429 1.93977e-22)
(-0.0411114 -0.0304736 0)
(-0.0092584 -0.0337653 0)
(0.0402279 -0.03287 -1.42957e-31)
(0.109146 -0.0304836 0)
(0.154762 -0.0214863 0)
(0.15759 -0.0199325 0)
(0.196118 -0.0213239 0)
(-0.0287427 0.0228485 0)
(-0.0333677 0.0242138 0)
(-0.00153066 0.02745 0)
(0.047333 0.0293337 1.97852e-22)
(0.117062 0.0339922 0)
(0.163601 0.0338668 0)
(0.16235 0.0326452 0)
(0.197102 0.0373079 0)
(-0.0351227 -0.0222409 -1.4955e-22)
(-0.0389443 -0.0284578 0)
(-0.00737407 -0.0313593 0)
(0.0417893 -0.0305387 0)
(0.110921 -0.0283054 0)
(0.157164 -0.0196734 -1.50402e-22)
(0.157314 -0.017903 0)
(0.1931 -0.0190081 0)
(-0.0338997 0.0209369 -1.48879e-22)
(-0.0383948 0.0212869 -1.46265e-22)
(-0.00675739 0.0230551 0)
(0.0423107 0.0242782 0)
(0.111669 0.0291799 0)
(0.157502 0.0308635 -1.56979e-22)
(0.156602 0.0294583 0)
(0.190928 0.0333581 0)
(-0.035282 -0.0196336 0)
(-0.0392896 -0.0262238 -1.42068e-22)
(-0.00792738 -0.0288699 1.28077e-22)
(0.0409815 -0.0282698 0)
(0.110403 -0.0262105 0)
(0.156867 -0.0179298 0)
(0.155032 -0.0157505 0)
(0.189137 -0.0162855 0)
(-0.036784 0.0190699 0)
(-0.0412758 0.0181789 0)
(-0.00980487 0.0186868 1.39004e-22)
(0.0391839 0.0194183 0)
(0.108546 0.0245169 0)
(0.154596 0.0280372 0)
(0.153123 0.0262618 0)
(0.186442 0.029115 -1.32766e-22)
(-0.0369316 -0.017073 0)
(-0.0410644 -0.0238048 0)
(-0.00982847 -0.0264633 0)
(0.0391876 -0.0262594 0)
(0.10871 -0.0243399 0)
(0.155358 -0.0162958 0)
(0.152354 -0.0134937 0)
(0.185159 -0.0132354 -1.2408e-22)
(-0.0386784 0.0172736 1.11063e-22)
(-0.0436209 0.0148816 0)
(-0.0122627 0.0144566 0)
(0.0371101 0.0149011 0)
(0.107013 0.0202326 0)
(0.153733 0.0254181 0)
(0.150731 0.0230818 0)
(0.183033 0.0246742 0)
(-0.0406912 -0.0146617 2.7437e-32)
(-0.0432472 -0.0212095 0)
(-0.0102898 -0.0241587 0)
(0.0397538 -0.0244724 0)
(0.108603 -0.0227636 0)
(0.153698 -0.0147789 0)
(0.147456 -0.0112898 0)
(0.182573 -0.00990773 0)
(-0.0375586 0.0156413 -1.04628e-22)
(-0.0344783 0.0118996 0)
(0.011644 0.0115929 0)
(0.0762763 0.012706 0)
(0.138975 0.0179457 0)
(0.150648 0.0228346 0)
(0.164288 0.0206606 0)
(0.182772 0.0201912 0)
(0.10013 -0.0784674 0)
(0.0726625 -0.0834217 0)
(0.101213 -0.0838894 8.46765e-23)
(0.170786 -0.0770042 0)
(0.261071 -0.0695834 0)
(0.361667 -0.0466433 0)
(0.302231 -0.0276696 0)
(0.309985 -0.0165612 0)
(-0.209849 0.0851478 0)
(-0.208332 0.0721867 0)
(-0.189221 0.061415 1.08601e-22)
(-0.180116 0.051441 0)
(-0.123533 0.0521654 -5.87938e-23)
(-0.0802129 0.0543193 0)
(0.00872169 0.0409802 8.50823e-23)
(0.0587968 0.0311126 0)
(0.102286 -0.0731783 3.31376e-23)
(0.0890926 -0.0814582 0)
(0.118785 -0.0815081 -2.70603e-23)
(0.178515 -0.0774125 0)
(0.277938 -0.0716251 -5.36193e-23)
(0.396003 -0.0505303 2.2777e-23)
(0.328216 -0.0307116 5.8171e-23)
(0.310215 -0.0189403 3.13524e-23)
(-0.208947 0.0868069 5.78523e-23)
(-0.209866 0.0679052 0)
(-0.184002 0.0536472 -3.88892e-23)
(-0.139242 0.0425951 0)
(-0.0840404 0.0424998 -2.16667e-23)
(-0.0552282 0.0535773 4.51186e-23)
(0.0112138 0.0430565 0)
(0.0639884 0.0321297 3.7457e-23)
(0.0642869 -0.0676038 2.41632e-23)
(0.0449195 -0.0803578 0)
(0.0779988 -0.0830984 0)
(0.139289 -0.0803737 0)
(0.243591 -0.0743124 0)
(0.357193 -0.0554225 1.14221e-23)
(0.300739 -0.035137 0)
(0.293214 -0.022032 0)
(-0.190123 0.0878686 0)
(-0.196537 0.0628749 0)
(-0.162357 0.0456124 0)
(-0.100744 0.0327331 0)
(-0.0235225 0.0329001 0)
(-0.0122907 0.0523457 0)
(0.0181235 0.0447904 0)
(0.0702608 0.0328386 0)
(0.0132492 -0.0595162 0)
(0.00675249 -0.0776079 0)
(0.0397647 -0.085533 0)
(0.106194 -0.0855714 0)
(0.175695 -0.078829 0)
(0.263429 -0.0583773 0)
(0.242786 -0.037408 0)
(0.27378 -0.0234406 0)
(-0.126339 0.328622 0)
(-0.135962 0.309447 0)
(-0.0889978 0.305311 8.77399e-25)
(-0.049097 0.309278 0)
(0.0177868 0.343967 -1.31898e-23)
(0.0169782 0.429892 0)
(0.0173985 0.392407 5.01079e-25)
(0.0774671 0.33447 -4.7061e-24)
(0.0893771 -0.271391 0)
(0.0776047 -0.332573 0)
(0.0724317 -0.376348 -4.0365e-25)
(0.126559 -0.400219 0)
(0.198739 -0.416371 -1.08834e-23)
(0.286952 -0.43609 0)
(0.306666 -0.399229 1.03359e-23)
(0.285823 -0.352846 -1.84128e-27)
(0.406088 0.340673 0)
(0.44089 0.310752 0)
(0.502918 0.293794 -7.85642e-24)
(0.58963 0.281075 0)
(0.646798 0.304762 0)
(0.606929 0.39877 0)
(0.649355 0.393093 0)
(0.749776 0.334256 1.19971e-24)
(2.04434 -0.242254 0)
(2.25619 -0.335929 0)
(2.21655 -0.398441 -5.9485e-24)
(2.12855 -0.423178 0)
(1.96278 -0.409915 0)
(1.99706 -0.418146 0)
(2.17794 -0.419743 0)
(2.48378 -0.362974 3.4803e-24)
(3.08633 0.210647 0)
(3.37142 0.27509 1.98048e-23)
(3.49994 0.345624 0)
(3.59026 0.370206 -7.40626e-24)
(3.69052 0.355478 0)
(3.81504 0.351572 0)
(3.98798 0.270856 0)
(4.15893 0.25974 5.15659e-23)
(3.36476 -0.429142 0)
(3.53767 -0.44563 7.97532e-28)
(3.68381 -0.457766 0)
(3.8273 -0.456199 -2.97013e-24)
(3.9927 -0.46056 -5.8061e-24)
(4.17535 -0.479 0)
(4.37254 -0.506418 0)
(4.53025 -0.429681 0)
(2.14006 0.0817265 0)
(2.42633 0.162723 3.39741e-26)
(2.99144 0.246692 0)
(3.74108 0.269214 0)
(4.16935 0.246789 6.12895e-27)
(4.38287 0.243098 7.84994e-23)
(4.4398 0.177818 0)
(4.42921 0.208455 3.75663e-23)
(2.36812 -0.197549 0)
(2.38189 -0.638448 -7.14714e-24)
(2.4534 -0.777442 -4.6167e-23)
(2.61875 -0.746336 0)
(2.83721 -0.607836 -4.97239e-23)
(3.06486 -0.542522 3.34574e-24)
(3.26735 -0.511346 3.93605e-23)
(3.60138 -0.442693 -6.47598e-23)
(2.15161 0.149092 0)
(2.04516 0.0430838 0)
(1.86188 0.0547415 5.2893e-27)
(1.77083 0.0606588 0)
(1.75281 0.021791 6.72948e-23)
(1.85935 0.0355172 0)
(2.137 -0.0576995 2.13004e-26)
(2.63055 -0.121756 0)
(1.77518 -0.167086 -1.0836e-22)
(1.78195 -0.458602 0)
(1.7133 -0.598551 2.20568e-23)
(1.653 -0.623208 0)
(1.66433 -0.543689 1.38715e-24)
(1.77372 -0.579888 -4.29305e-23)
(2.0735 -0.641297 -1.85162e-26)
(2.55175 -0.706807 -1.30526e-22)
(1.85686 0.091016 -8.06858e-23)
(1.85778 -0.0099292 0)
(1.79116 -0.00457945 0)
(1.72669 -0.014597 0)
(1.75119 -0.0871264 6.1987e-23)
(1.88913 -0.174354 -9.37671e-23)
(2.14361 -0.361306 1.33233e-22)
(2.54659 -0.539165 -2.03379e-22)
(1.64323 -0.215868 0)
(1.73789 -0.369641 0)
(1.74135 -0.484532 0)
(1.74229 -0.520481 0)
(1.77985 -0.519697 1.70514e-23)
(1.91482 -0.600487 1.79334e-23)
(2.17504 -0.74435 -5.54348e-23)
(2.57294 -0.897419 0)
(1.66575 -0.031361 0)
(1.7856 -0.0887508 6.82931e-23)
(1.83396 -0.078438 0)
(1.85281 -0.0990777 0)
(1.87481 -0.20237 0)
(1.97743 -0.36844 7.95418e-23)
(2.20161 -0.614754 -1.4811e-26)
(2.58931 -0.871651 1.27665e-22)
(1.54644 -0.288994 0)
(1.69243 -0.363757 2.94629e-23)
(1.77318 -0.444724 0)
(1.8479 -0.455181 0)
(1.91159 -0.488961 0)
(2.04025 -0.626379 0)
(2.33106 -0.856806 8.55744e-23)
(2.76362 -1.11014 1.20365e-22)
(1.5251 -0.167861 0)
(1.69936 -0.193548 0)
(1.82889 -0.183846 0)
(1.90966 -0.198908 0)
(1.97259 -0.311109 0)
(2.12522 -0.551372 0)
(2.49856 -0.868122 9.65918e-23)
(2.99992 -1.15362 0)
(1.43954 -0.358335 5.07521e-23)
(1.60023 -0.41059 0)
(1.75529 -0.451333 -2.24802e-23)
(1.9182 -0.436267 0)
(2.05012 -0.493383 -4.68807e-23)
(2.24832 -0.727245 0)
(2.64286 -1.06305 8.79041e-27)
(3.11603 -1.28126 0)
(1.42165 -0.288089 9.4714e-27)
(1.58548 -0.315484 5.23897e-23)
(1.76384 -0.32485 -5.52916e-23)
(1.95247 -0.336497 -5.84384e-23)
(2.11902 -0.440993 -6.87181e-23)
(2.32605 -0.763238 0)
(2.6998 -1.15268 -7.35609e-23)
(3.14088 -1.34064 1.46049e-22)
(1.36138 -0.415329 -4.96128e-23)
(1.51053 -0.477064 8.13771e-27)
(1.70376 -0.515905 3.78727e-23)
(1.94698 -0.497147 -2.63827e-23)
(2.17274 -0.550329 0)
(2.36147 -0.87484 0)
(2.68928 -1.27214 0)
(3.05596 -1.40681 1.51527e-22)
(1.34817 -0.387583 0)
(1.48628 -0.440197 -5.48595e-23)
(1.6728 -0.483272 5.5387e-23)
(1.9282 -0.507845 0)
(2.19457 -0.578507 0)
(2.37718 -0.912163 0)
(2.57726 -1.38576 -1.09655e-22)
(2.867 -1.45501 0)
(1.31305 -0.460874 4.6988e-23)
(1.42771 -0.543444 5.01178e-23)
(1.60064 -0.61415 5.27906e-23)
(1.86669 -0.632586 5.73638e-23)
(2.19169 -0.644998 -4.36983e-23)
(2.35745 -0.993372 8.4833e-23)
(2.43578 -1.43703 -3.72562e-27)
(2.68721 -1.52405 1.49905e-22)
(1.3092 -0.457608 8.53281e-27)
(1.40976 -0.544384 5.71854e-23)
(1.55908 -0.62781 6.12049e-23)
(1.77384 -0.702726 7.51812e-27)
(2.13416 -0.709302 -5.70638e-23)
(2.30755 -0.983697 8.31296e-23)
(2.29978 -1.48516 1.32115e-22)
(2.53598 -1.56953 1.49381e-22)
(1.2967 -0.497197 -4.73478e-23)
(1.38255 -0.600287 0)
(1.50771 -0.700615 0)
(1.67823 -0.794288 -7.13709e-23)
(1.98281 -0.800678 0)
(2.17977 -1.02889 8.739e-23)
(2.17222 -1.52026 0)
(2.39048 -1.62968 0)
(1.29552 -0.505832 0)
(1.37481 -0.61498 0)
(1.48303 -0.722822 -6.24565e-23)
(1.6076 -0.841495 0)
(1.84024 -0.854317 8.24273e-23)
(2.05081 -1.04717 9.42204e-23)
(2.04998 -1.56515 -1.32173e-22)
(2.26565 -1.67299 0)
(1.28846 -0.535158 0)
(1.35993 -0.652913 0)
(1.45365 -0.764439 -6.62226e-27)
(1.54601 -0.889758 0)
(1.70934 -0.926127 9.14143e-23)
(1.93474 -1.07734 0)
(1.96064 -1.59029 1.12066e-27)
(2.12435 -1.74378 0)
(1.28832 -0.553735 -4.46013e-23)
(1.35721 -0.666405 -5.58145e-23)
(1.43861 -0.778123 1.2907e-22)
(1.50248 -0.910837 -7.74922e-23)
(1.60566 -0.971512 0)
(1.82839 -1.12732 -1.07951e-22)
(1.87836 -1.62352 1.25247e-22)
(2.0019 -1.79818 -1.43722e-22)
(1.2828 -0.577809 -4.24405e-23)
(1.34277 -0.698224 -5.59192e-23)
(1.41245 -0.808151 6.52517e-23)
(1.45711 -0.931816 -7.83818e-23)
(1.51842 -1.01795 0)
(1.75815 -1.16327 -1.06926e-22)
(1.81548 -1.64665 0)
(1.87111 -1.87149 -1.38488e-22)
(1.26276 -0.602008 0)
(1.32662 -0.706995 0)
(1.38735 -0.809187 6.62219e-23)
(1.41082 -0.941275 0)
(1.45785 -1.05668 0)
(1.70007 -1.21273 0)
(1.76453 -1.66219 1.23816e-22)
(1.76748 -1.92418 0)
(1.22638 -0.639953 -2.21924e-23)
(1.2834 -0.735405 -2.80746e-23)
(1.32803 -0.831977 6.81909e-23)
(1.36662 -0.954257 -3.80282e-23)
(1.4194 -1.09311 4.50231e-23)
(1.65496 -1.25739 0)
(1.7195 -1.66952 1.2062e-22)
(1.66899 -1.97691 -6.32157e-23)
(1.20204 -0.647728 -2.22808e-23)
(1.26293 -0.735964 -5.54739e-23)
(1.29509 -0.839926 3.4174e-23)
(1.33982 -0.967627 -7.25053e-23)
(1.39195 -1.12465 1.7047e-27)
(1.60331 -1.31012 0)
(1.66545 -1.66652 0)
(1.62318 -1.99082 -6.08353e-23)
(1.15407 -0.697607 0)
(1.23634 -0.761109 -5.43831e-23)
(1.27721 -0.85352 6.72748e-23)
(1.32865 -0.979564 -1.56181e-27)
(1.36636 -1.1651 -4.77122e-23)
(1.56275 -1.34446 -5.14677e-23)
(1.58923 -1.66592 6.01172e-23)
(1.58372 -2.00333 0)
(1.13286 -0.699198 2.28048e-23)
(1.22282 -0.768388 -5.33476e-23)
(1.26987 -0.865671 3.3231e-23)
(1.32085 -0.997421 7.601e-23)
(1.37679 -1.19166 4.45063e-23)
(1.51296 -1.38268 4.33853e-30)
(1.51305 -1.67569 6.04644e-23)
(1.56497 -1.99547 5.54272e-23)
(1.07398 -0.755926 2.33645e-23)
(1.18803 -0.800959 -1.84876e-27)
(1.26637 -0.882458 -3.14003e-23)
(1.31637 -1.02233 3.76329e-23)
(1.39054 -1.20687 8.60377e-28)
(1.47572 -1.39668 5.16402e-23)
(1.45245 -1.6807 -5.78887e-23)
(1.51987 -1.99425 5.45303e-23)
(1.04465 -0.762308 0)
(1.15105 -0.82069 5.40128e-23)
(1.25782 -0.896542 -3.01314e-23)
(1.31383 -1.03681 0)
(1.39118 -1.21899 -3.8562e-23)
(1.43765 -1.40791 0)
(1.41155 -1.67767 -5.50795e-23)
(1.44505 -1.9835 5.51693e-23)
(0.986205 -0.809839 2.36474e-23)
(1.0884 -0.864078 1.59251e-27)
(1.2161 -0.925733 0)
(1.29 -1.06185 3.58691e-23)
(1.35166 -1.23732 0)
(1.3937 -1.41591 4.94507e-23)
(1.37311 -1.67786 0)
(1.37137 -1.97039 1.12819e-22)
(0.962797 -0.814413 2.37787e-23)
(1.04508 -0.884559 -5.48387e-23)
(1.15864 -0.952556 0)
(1.23609 -1.08246 3.5361e-23)
(1.28676 -1.25201 0)
(1.35395 -1.41805 -1.18058e-27)
(1.35264 -1.66276 0)
(1.35004 -1.93307 5.59743e-23)
(0.91213 -0.851358 0)
(0.989319 -0.920728 -5.55609e-23)
(1.1019 -0.98339 3.1032e-23)
(1.18356 -1.09935 -3.45435e-23)
(1.2358 -1.26454 3.92982e-23)
(1.29754 -1.43971 -4.47475e-23)
(1.28148 -1.66468 0)
(1.30594 -1.91361 0)
(0.892898 -0.850405 -2.43191e-23)
(0.951165 -0.935544 -2.79831e-23)
(1.05445 -1.00621 3.09781e-23)
(1.13223 -1.11858 -3.45777e-23)
(1.184 -1.28045 3.89547e-23)
(1.26789 -1.43796 0)
(1.20759 -1.66285 0)
(1.29041 -1.85921 0)
(0.839084 -0.882307 -1.31957e-27)
(0.896764 -0.967887 0)
(0.999838 -1.03716 0)
(1.07538 -1.14115 0)
(1.12874 -1.29875 0)
(1.21164 -1.45154 0)
(1.14063 -1.66826 0)
(1.18138 -1.86904 0)
(0.823 -0.87726 2.46062e-23)
(0.868081 -0.980252 0)
(0.957647 -1.05687 3.04399e-23)
(1.02096 -1.15733 0)
(1.06594 -1.32092 0)
(1.14429 -1.45011 0)
(1.10872 -1.65383 -4.414e-23)
(1.13606 -1.85492 0)
(0.780939 -0.900741 0)
(0.83267 -1.00504 0)
(0.9114 -1.08127 4.49583e-28)
(0.96571 -1.17383 0)
(1.01756 -1.32841 3.61731e-23)
(1.05231 -1.46629 0)
(1.04915 -1.65165 -8.30379e-23)
(1.08071 -1.85301 0)
(0.768797 -0.903173 0)
(0.817545 -1.01608 0)
(0.877157 -1.09467 -2.98978e-23)
(0.916084 -1.18746 0)
(0.961114 -1.34106 3.55631e-23)
(0.985087 -1.4699 0)
(0.984532 -1.65317 -4.06262e-23)
(1.03028 -1.83879 0)
(0.747506 -0.919056 1.14227e-23)
(0.791814 -1.03659 1.2876e-23)
(0.83816 -1.11025 0)
(0.868673 -1.19949 0)
(0.908535 -1.3502 0)
(0.918473 -1.47643 1.9871e-23)
(0.912151 -1.66302 0)
(0.942082 -1.83149 2.08834e-23)
(0.738965 -0.925876 1.13913e-23)
(0.782217 -1.04413 1.29615e-23)
(0.810075 -1.11302 0)
(0.827249 -1.20614 0)
(0.865623 -1.35189 0)
(0.860736 -1.47741 1.9057e-23)
(0.874319 -1.65529 0)
(0.854199 -1.82431 2.01814e-23)
(0.718947 -0.941864 0)
(0.760557 -1.05833 0)
(0.764903 -1.12519 -1.44571e-23)
(0.782101 -1.21533 1.56317e-23)
(0.803304 -1.36559 1.67909e-23)
(0.799565 -1.48008 0)
(0.814552 -1.65763 -1.78186e-23)
(0.798172 -1.80408 0)
(0.707528 -0.95362 -1.12006e-23)
(0.742036 -1.06044 0)
(0.744968 -1.11887 -1.41463e-23)
(0.753101 -1.21473 1.51232e-23)
(0.784282 -1.35413 1.64552e-23)
(0.747616 -1.47914 0)
(0.772989 -1.64805 -1.75801e-23)
(0.72862 -1.79026 0)
(0.700659 -0.961502 -1.06659e-23)
(0.694144 -1.07062 0)
(0.701873 -1.12653 1.38362e-23)
(0.70829 -1.2242 -1.47387e-23)
(0.726463 -1.36591 0)
(0.6986 -1.47976 0)
(0.700795 -1.65332 0)
(0.655736 -1.77692 0)
(0.690089 -0.967502 0)
(0.669822 -1.06346 1.23577e-23)
(0.679307 -1.12169 1.35496e-23)
(0.679935 -1.22335 -2.8661e-23)
(0.706366 -1.35739 -1.54764e-23)
(0.67018 -1.47158 0)
(0.672154 -1.63955 0)
(0.597318 -1.75705 1.67715e-23)
(0.651174 -0.978419 0)
(0.627356 -1.06893 2.40234e-23)
(0.641887 -1.12761 -1.32111e-23)
(0.638005 -1.2297 4.59982e-28)
(0.659758 -1.36084 -2.99772e-23)
(0.631812 -1.46649 1.56072e-23)
(0.628738 -1.62632 0)
(0.533114 -1.73927 1.59227e-23)
(0.621443 -0.979511 5.33411e-24)
(0.608228 -1.06145 1.17089e-23)
(0.624071 -1.12398 -1.27408e-23)
(0.607379 -1.23059 1.36534e-23)
(0.625751 -1.35804 -1.46599e-23)
(0.592606 -1.45953 1.51334e-23)
(0.580001 -1.61267 0)
(0.491307 -1.71552 0)
(0.59023 -0.987449 5.24177e-24)
(0.567136 -1.06896 0)
(0.599299 -1.12502 -6.17022e-24)
(0.584571 -1.22839 0)
(0.58881 -1.3577 7.10701e-24)
(0.546909 -1.45443 0)
(0.535832 -1.59972 -7.32258e-24)
(0.453714 -1.69186 0)
(0.577489 -0.987715 0)
(0.549171 -1.06695 0)
(0.578175 -1.12485 -6.06692e-24)
(0.554395 -1.22956 0)
(0.568176 -1.35051 1.36898e-23)
(0.516495 -1.44292 -6.98287e-24)
(0.50139 -1.58463 8.6125e-28)
(0.405983 -1.6712 0)
(0.562059 -0.991114 -5.10386e-24)
(0.525014 -1.07016 0)
(0.550184 -1.12898 0)
(0.531765 -1.22697 0)
(0.536192 -1.34734 6.54648e-24)
(0.479102 -1.43405 -1.34653e-23)
(0.464139 -1.57081 -8.57084e-28)
(0.361129 -1.64876 -6.40859e-24)
(0.54997 -0.992441 -7.49074e-24)
(0.515659 -1.06626 0)
(0.539003 -1.1245 -2.83736e-24)
(0.504785 -1.22511 0)
(0.517786 -1.33617 -3.12985e-24)
(0.449709 -1.42286 -6.41765e-24)
(0.436751 -1.55342 -9.49513e-24)
(0.325641 -1.62095 -5.99246e-24)
(0.535086 -0.99235 -2.45462e-24)
(0.497097 -1.06554 0)
(0.518583 -1.12238 1.06446e-28)
(0.481882 -1.22153 0)
(0.478015 -1.33023 -3.01491e-24)
(0.419231 -1.41145 0)
(0.400144 -1.53412 -2.9824e-24)
(0.291211 -1.59362 0)
(0.511992 -0.996332 0)
(0.483742 -1.06264 0)
(0.500324 -1.12035 4.01479e-24)
(0.471763 -1.21288 0)
(0.456604 -1.31868 1.449e-24)
(0.390674 -1.39718 0)
(0.364516 -1.5146 -1.41081e-24)
(0.253087 -1.56942 0)
(0.50208 -0.993936 0)
(0.469084 -1.06032 0)
(0.486111 -1.11678 1.2804e-24)
(0.451886 -1.20754 0)
(0.439296 -1.30655 1.38542e-24)
(0.36855 -1.38166 0)
(0.340297 -1.49426 -1.32201e-24)
(0.235497 -1.54432 0)
(0.47781 -0.977035 0)
(0.439904 -1.04483 0)
(0.445547 -1.10096 0)
(0.402567 -1.18812 0)
(0.394572 -1.26946 0)
(0.316824 -1.33883 0)
(0.283348 -1.4376 0)
(0.180932 -1.47953 0)
(0.373396 -0.975117 0)
(0.36598 -1.02673 0)
(0.354682 -1.07791 0)
(0.334873 -1.14739 0)
(0.299932 -1.20923 0)
(0.249962 -1.26407 0)
(0.207638 -1.33781 0)
(0.120247 -1.37034 0)
(0.290913 -0.965762 0)
(0.288462 -1.01112 0)
(0.261785 -1.05569 0)
(0.251167 -1.11174 0)
(0.20863 -1.15581 0)
(0.177562 -1.20308 0)
(0.125237 -1.25325 0)
(0.0631436 -1.28295 0)
(0.24195 -0.948776 0)
(0.237259 -0.986551 0)
(0.210177 -1.02715 0)
(0.198172 -1.07141 0)
(0.155385 -1.10635 0)
(0.130175 -1.14394 0)
(0.0751608 -1.17839 0)
(0.0300503 -1.20195 0)
(0.199866 -0.9324 0)
(0.177093 -0.966828 0)
(0.171381 -0.999387 0)
(0.13988 -1.03455 0)
(0.120393 -1.06233 0)
(0.0824886 -1.09092 0)
(0.0509488 -1.11534 0)
(0.0015975 -1.1303 0)
(0.1478 -0.91808 0)
(0.141161 -0.946598 0)
(0.122724 -0.97489 0)
(0.108164 -1.00163 0)
(0.0826272 -1.02491 0)
(0.0588898 -1.04608 0)
(0.0254712 -1.06257 0)
(-0.00927415 -1.07235 0)
(0.111563 -0.905205 0)
(0.101094 -0.930764 0)
(0.0912761 -0.954248 0)
(0.0759459 -0.976277 0)
(0.059213 -0.994594 0)
(0.0388764 -1.01019 0)
(0.014768 -1.02122 0)
(-0.0114855 -1.02705 0)
(0.0680492 -0.896641 0)
(0.0620229 -0.919393 0)
(0.0537337 -0.940127 0)
(0.0442852 -0.958372 0)
(0.0325281 -0.973463 0)
(0.0189334 -0.984912 0)
(0.00304035 -0.992251 0)
(-0.0148917 -0.994372 0)
(0.0313954 -0.88935 0)
(0.0268924 -0.910756 0)
(0.0218288 -0.92985 0)
(0.0158148 -0.946257 0)
(0.00886251 -0.95931 0)
(0.000938754 -0.968609 0)
(-0.00818282 -0.973667 0)
(-0.0183152 -0.973715 0)
(0.014719 -0.882972 0)
(0.0112257 -0.903563 0)
(0.00734848 -0.921845 0)
(0.00308846 -0.937385 0)
(-0.00155041 -0.949671 0)
(-0.00647952 -0.958205 0)
(-0.0116873 -0.96255 0)
(-0.0170467 -0.962085 0)
(0.195461 -0.0320988 0)
(0.204619 -0.0363441 0)
(0.215328 -0.0401194 0)
(0.230698 -0.0421668 0)
(0.237177 -0.0420582 0)
(0.250906 -0.042136 0)
(0.28913 -0.0394979 0)
(0.320706 -0.0353858 0)
(0.330201 -0.0364001 0)
(0.322624 -0.0396248 0)
(0.296935 -0.0389656 0)
(0.256515 -0.0333855 0)
(0.198254 -0.0239772 0)
(0.128749 -0.0144706 0)
(0.0549426 -0.00769593 0)
(-0.0112576 -0.00320599 0)
(-0.0598593 -0.000491694 0)
(-0.0930814 0.000213057 0)
(-0.128409 0.000165843 0)
(-0.164698 0.000100143 0)
(-0.183813 -2.39228e-06 0)
(-0.195078 -4.04873e-05 0)
(-0.213576 4.97817e-06 0)
(-0.253247 0.000117102 0)
(-0.336031 0.000289211 0)
(-0.444356 0.000382282 0)
(-0.513596 0.000231189 0)
(-0.530161 -7.38897e-06 0)
(-0.520612 -0.000100412 0)
(-0.512246 -3.82263e-05 0)
(-0.514363 1.42428e-05 0)
(-0.525477 5.93696e-05 0)
(-0.539475 6.48706e-05 0)
(-0.545559 -2.14066e-05 0)
(-0.530595 -0.000146016 0)
(-0.487651 -0.000310867 0)
(-0.405404 -0.000523804 0)
(-0.281157 -0.000672204 0)
(-0.143463 -0.000633484 0)
(-0.0382328 -0.0004204 0)
(0.024222 -0.000237822 0)
(0.056941 -9.18874e-05 0)
(0.0650389 1.05696e-05 0)
(0.0559425 9.17989e-05 0)
(0.0321613 0.000161453 0)
(-0.00258499 0.000166693 0)
(-0.0309545 0.000111034 0)
(-0.0422536 4.67486e-05 0)
(-0.0466761 -9.70934e-07 0)
(-0.0394933 -0.000106458 0)
(-0.00236655 -0.000342847 0)
(0.0974732 -0.000661234 0)
(0.260796 -0.000857658 0)
(0.427122 -0.000687642 0)
(0.510093 -0.000183182 0)
(0.49636 0.000273669 0)
(0.40914 0.000549265 0)
(0.292319 0.000578878 0)
(0.193966 0.000422341 0)
(0.135103 0.000217077 0)
(0.110517 8.0911e-05 0)
(0.103597 1.28265e-05 0)
(0.10505 -2.16689e-05 0)
(0.110577 -3.69507e-05 0)
(0.118686 -4.98888e-05 0)
(0.129093 -5.90262e-05 0)
(0.142202 -7.20843e-05 0)
(0.158048 -8.74677e-05 0)
(0.174625 -8.5824e-05 0)
(0.190194 -7.50185e-05 0)
(0.205468 -7.65294e-05 0)
(0.223083 -8.43438e-05 0)
(0.241201 -6.07715e-05 0)
(0.250015 2.39935e-06 0)
(0.238493 0.00012149 0)
(0.195293 0.000270938 0)
(0.125038 0.000366375 0)
(0.0496622 0.00035755 0)
(-0.013439 0.000278472 0)
(-0.0561808 0.000169558 0)
(-0.0791719 7.81191e-05 0)
(-0.0884052 2.46253e-05 0)
(-0.0885442 -1.79631e-05 0)
(-0.0818664 -5.5846e-05 0)
(-0.0699122 -7.67912e-05 0)
(-0.0540365 -8.2596e-05 0)
(-0.0359005 -9.33375e-05 0)
(-0.0169764 -9.6879e-05 0)
(0.00165958 -8.61745e-05 0)
(0.0186432 -7.03185e-05 0)
(0.0329233 -5.57107e-05 0)
(0.0439369 -4.79783e-05 0)
(0.0515431 -3.88179e-05 0)
(0.0560952 -1.42869e-05 0)
(0.057621 1.98983e-06 0)
(0.0573553 6.64298e-06 0)
(0.0586638 -4.80383e-06 0)
(0.062924 -8.46235e-06 0)
(0.0671073 3.27448e-05 0)
(0.0701285 3.432e-05 0)
(0.0727453 -8.71293e-06 0)
(0.077567 -2.87797e-05 0)
(0.0881493 -6.41254e-05 0)
(0.10748 -0.000104651 0)
(0.133818 -0.000126636 0)
(0.161151 -0.000119157 0)
(0.185043 -9.89477e-05 0)
(0.205061 -8.77742e-05 0)
(0.22445 -9.75038e-05 0)
(0.247851 -0.000123491 0)
(0.276367 -0.000142326 0)
(0.308948 -0.00015589 0)
(0.343524 -0.000155084 0)
(0.375871 -0.000144248 0)
(0.405273 -0.000131344 0)
(0.4323 -0.000121798 0)
(0.458124 -0.000117512 0)
(0.484012 -0.000120556 0)
(0.510737 -0.000127145 0)
(0.537693 -0.000119299 0)
(0.558495 -6.85517e-05 0)
(0.56346 3.22225e-05 0)
(0.547439 0.000147622 0)
(0.511937 0.000208862 0)
(0.474519 0.00018094 0)
(0.449288 0.000102828 0)
(0.441787 1.63419e-05 0)
(0.447961 -3.44444e-05 0)
(0.458882 -3.80144e-05 0)
(0.466259 -1.46116e-05 0)
(0.46863 1.02333e-05 0)
(0.466852 1.80787e-05 0)
(0.460669 4.14692e-05 0)
(0.450191 6.50761e-05 0)
(0.438217 6.44456e-05 0)
(0.429869 4.27339e-05 0)
(0.427029 1.32266e-05 0)
(0.428825 -8.40316e-06 0)
(0.433273 -1.99366e-05 0)
(0.438463 -1.87597e-05 0)
(0.442685 -1.0342e-05 0)
(0.445357 -4.53808e-06 0)
(0.44693 -3.41971e-06 0)
(0.447657 -6.28168e-06 0)
(0.447307 -2.25811e-05 0)
(0.447077 2.18926e-06 0)
(0.449429 -1.11059e-05 0)
(0.456357 -4.00692e-05 0)
(0.467782 -6.53234e-05 0)
(0.482566 -8.01432e-05 0)
(0.499823 -8.97628e-05 0)
(0.519198 -9.7044e-05 0)
(0.540513 -0.000102228 0)
(0.562581 -0.000100939 0)
(0.583408 -9.40539e-05 0)
(0.602065 -8.888e-05 0)
(0.225168 0.0310371 0)
(0.236181 0.0352064 0)
(0.24815 0.0388131 0)
(0.267218 0.0408103 0)
(0.27926 0.040708 0)
(0.297897 0.0405015 0)
(0.341058 0.0375697 0)
(0.376635 0.0337985 0)
(0.38603 0.034978 0)
(0.377305 0.03875 0)
(0.350531 0.0384161 0)
(0.306349 0.0333395 0)
(0.236573 0.0242503 0)
(0.150761 0.0150599 0)
(0.0665855 0.00846775 0)
(-0.00494497 0.00396983 0)
(-0.0564715 0.00113425 0)
(-0.0929466 0.000505556 0)
(-0.1286 0.00057208 0)
(-0.16485 0.000523734 0)
(-0.18393 0.000335829 0)
(-0.195163 0.000361487 0)
(-0.213633 0.000585397 0)
(-0.253287 0.00110303 0)
(-0.33606 0.00164148 0)
(-0.444378 0.00155906 0)
(-0.513618 0.000741882 0)
(-0.53018 8.30724e-05 0)
(-0.520628 -0.000121539 0)
(-0.51226 -7.87366e-05 0)
(-0.514379 0.000102812 0)
(-0.525494 0.000196726 0)
(-0.539494 0.000161689 0)
(-0.54558 -6.79018e-05 0)
(-0.530616 -0.000446245 0)
(-0.487672 -0.000931871 0)
(-0.405424 -0.00159011 0)
(-0.281173 -0.00204067 0)
(-0.143474 -0.00194019 0)
(-0.0382408 -0.00130527 0)
(0.0242147 -0.000753171 0)
(0.0569346 -0.000318116 0)
(0.0650322 6.54875e-06 0)
(0.0559348 0.00023734 0)
(0.0321515 0.000439793 0)
(-0.00259769 0.000491679 0)
(-0.0309693 0.000309698 0)
(-0.0422708 0.000112225 0)
(-0.0466919 -4.7643e-05 0)
(-0.0395119 -0.00035104 0)
(-0.00238585 -0.00107325 0)
(0.0974557 -0.0019841 0)
(0.260785 -0.00253894 0)
(0.427119 -0.00200885 0)
(0.510094 -0.000562779 0)
(0.496359 0.000757337 0)
(0.409133 0.00158306 0)
(0.292306 0.00170027 0)
(0.193949 0.00125579 0)
(0.135086 0.000647234 0)
(0.110502 0.000239088 0)
(0.103583 3.28097e-05 0)
(0.105038 -6.11526e-05 0)
(0.110565 -0.000101989 0)
(0.118675 -0.000140818 0)
(0.129081 -0.000178809 0)
(0.142189 -0.000222829 0)
(0.158035 -0.000252394 0)
(0.174612 -0.000253597 0)
(0.190181 -0.00023388 0)
(0.205455 -0.000246214 0)
(0.223071 -0.000278113 0)
(0.24119 -0.000218509 0)
(0.250005 1.40075e-05 0)
(0.238484 0.000405844 0)
(0.195284 0.000886657 0)
(0.125027 0.00115619 0)
(0.0496492 0.00109565 0)
(-0.0134532 0.000829007 0)
(-0.0561954 0.000520056 0)
(-0.0791866 0.000251719 0)
(-0.08842 7.24359e-05 0)
(-0.0885591 -5.10203e-05 0)
(-0.0818815 -0.000137928 0)
(-0.0699276 -0.000212792 0)
(-0.0540524 -0.000270842 0)
(-0.0359168 -0.000291738 0)
(-0.0169933 -0.000292765 0)
(0.00164218 -0.000283061 0)
(0.0186256 -0.000253619 0)
(0.0329055 -0.000205775 0)
(0.0439191 -0.000143961 0)
(0.0515255 -8.62907e-05 0)
(0.0560779 -4.81505e-05 0)
(0.0576034 -1.22978e-05 0)
(0.0573372 -1.4471e-05 0)
(0.0586456 -5.12375e-05 0)
(0.0629064 -7.98768e-05 0)
(0.0670893 -0.00011497 0)
(0.0701093 -9.60625e-05 0)
(0.0727255 -6.94868e-05 0)
(0.077547 -0.000127494 0)
(0.0881291 -0.000234901 0)
(0.10746 -0.000366729 0)
(0.1338 -0.000438327 0)
(0.161134 -0.000419555 0)
(0.185026 -0.000356806 0)
(0.205044 -0.000318256 0)
(0.224433 -0.000335512 0)
(0.247834 -0.000409068 0)
(0.27635 -0.000487148 0)
(0.30893 -0.000547451 0)
(0.343507 -0.000550448 0)
(0.375853 -0.000504711 0)
(0.405255 -0.000455929 0)
(0.432282 -0.000422593 0)
(0.458105 -0.000403704 0)
(0.483991 -0.000407158 0)
(0.510714 -0.000412825 0)
(0.53767 -0.00038431 0)
(0.558471 -0.000235393 0)
(0.563436 4.80268e-05 0)
(0.547412 0.000375823 0)
(0.511908 0.000572993 0)
(0.474488 0.000501406 0)
(0.449257 0.000263523 0)
(0.441756 -5.93032e-06 0)
(0.447932 -0.000161706 0)
(0.458853 -0.00017136 0)
(0.466231 -9.65907e-05 0)
(0.468603 -1.32558e-05 0)
(0.466825 6.79988e-05 0)
(0.460642 0.000133857 0)
(0.450165 0.000168719 0)
(0.43819 0.000161735 0)
(0.429842 7.78364e-05 0)
(0.427002 7.52744e-08 0)
(0.428798 -5.33116e-05 0)
(0.433246 -8.06549e-05 0)
(0.438435 -8.10803e-05 0)
(0.442656 -6.3412e-05 0)
(0.445328 -4.2807e-05 0)
(0.446899 -2.5404e-05 0)
(0.447626 -1.45164e-06 0)
(0.447276 3.15993e-05 0)
(0.447046 -1.59562e-05 0)
(0.449397 -7.93327e-05 0)
(0.456324 -0.000149385 0)
(0.46775 -0.000207323 0)
(0.482534 -0.000252432 0)
(0.499792 -0.000290366 0)
(0.519166 -0.000324502 0)
(0.540482 -0.000348365 0)
(0.562549 -0.000346358 0)
(0.583376 -0.000318896 0)
(0.602033 -0.000285784 0)
(0.201592 -0.0304999 0)
(0.20981 -0.0346201 0)
(0.220304 -0.0384117 0)
(0.236203 -0.0403223 0)
(0.24414 -0.0400855 0)
(0.259537 -0.0404785 0)
(0.299763 -0.037902 0)
(0.333911 -0.0335586 0)
(0.345569 -0.0337876 0)
(0.340293 -0.0366867 0)
(0.317196 -0.0357541 0)
(0.276283 -0.0296242 0)
(0.208572 -0.0198157 0)
(0.12904 -0.0105427 0)
(0.0536364 -0.00449069 0)
(-0.00937814 -0.000951374 0)
(-0.0556385 0.000809528 0)
(-0.0921909 0.000917013 0)
(-0.128754 0.000901107 0)
(-0.164989 0.000723172 0)
(-0.184049 0.00032636 0)
(-0.195258 0.000271206 0)
(-0.213702 0.000573349 0)
(-0.253337 0.00129848 0)
(-0.336103 0.00217305 0)
(-0.444422 0.00227431 0)
(-0.513662 0.00117349 0)
(-0.530215 4.88477e-05 0)
(-0.520656 -0.000334054 0)
(-0.512286 -0.000151947 0)
(-0.514403 0.000133008 0)
(-0.525519 0.000316925 0)
(-0.53952 0.000292704 0)
(-0.545609 -0.000111407 0)
(-0.530647 -0.00075159 0)
(-0.487705 -0.0015737 0)
(-0.405456 -0.00265553 0)
(-0.281199 -0.00340499 0)
(-0.143492 -0.00320991 0)
(-0.0382536 -0.0021483 0)
(0.0242012 -0.00123099 0)
(0.0569251 -0.000504215 0)
(0.0650204 2.50143e-05 0)
(0.0559222 0.00041477 0)
(0.0321377 0.000767389 0)
(-0.00261416 0.000822785 0)
(-0.0309886 0.000531187 0)
(-0.0422896 0.000209128 0)
(-0.0467086 -4.74007e-05 0)
(-0.039534 -0.000561501 0)
(-0.00241147 -0.00176013 0)
(0.0974309 -0.00331033 0)
(0.26077 -0.00425823 0)
(0.427118 -0.00338791 0)
(0.510098 -0.000933816 0)
(0.49636 0.00128745 0)
(0.409125 0.00265549 0)
(0.292289 0.00283753 0)
(0.193927 0.00209438 0)
(0.135065 0.00108122 0)
(0.110484 0.000400356 0)
(0.103569 5.75614e-05 0)
(0.105025 -0.000106811 0)
(0.110553 -0.000178754 0)
(0.118663 -0.000243706 0)
(0.129068 -0.000300744 0)
(0.142175 -0.000371484 0)
(0.15802 -0.000431101 0)
(0.174596 -0.000428446 0)
(0.190165 -0.000386501 0)
(0.205438 -0.000401531 0)
(0.223055 -0.000449508 0)
(0.241175 -0.000343238 0)
(0.249994 1.74435e-05 0)
(0.238475 0.00065206 0)
(0.195274 0.00143819 0)
(0.125015 0.00189527 0)
(0.0496337 0.00180625 0)
(-0.0134707 0.00138166 0)
(-0.056213 0.000857884 0)
(-0.0792032 0.000407633 0)
(-0.0884355 0.000120694 0)
(-0.0885738 -8.86029e-05 0)
(-0.0818958 -0.000251223 0)
(-0.0699414 -0.00036824 0)
(-0.054066 -0.000439075 0)
(-0.0359306 -0.000481143 0)
(-0.0170076 -0.000488906 0)
(0.00162765 -0.000458372 0)
(0.0186109 -0.000397011 0)
(0.0328911 -0.000320166 0)
(0.0439055 -0.000242846 0)
(0.0515123 -0.00016704 0)
(0.056065 -7.93761e-05 0)
(0.0575906 -1.03798e-05 0)
(0.0573243 -1.96513e-06 0)
(0.0586326 -6.19585e-05 0)
(0.0628927 -9.47434e-05 0)