/*--------------------------------*- C++ -*----------------------------------*\
| =========                 |                                                 |
| \\      /  F ield         | OpenFOAM: The Open Source CFD Toolbox           |
|  \\    /   O peration     | Version:  v1912                                 |
|   \\  /    A nd           | Website:  www.openfoam.com                      |
|    \\/     M anipulation  |                                                 |
\*---------------------------------------------------------------------------*/
FoamFile
{
    version     2.0;
    format      ascii;
    class       volScalarField;
    location    "80";
    object      nut;
}
// * * * * * * * * * * * * * * * * * * * * * * * * * * * * * * * * * * * * * //

dimensions      [0 2 -1 0 0 0 0];


internalField   nonuniform List<scalar> 
14268
(
6.9875e-05
6.98585e-05
6.98306e-05
6.97958e-05
6.97508e-05
6.96895e-05
6.96079e-05
6.95158e-05
6.94308e-05
6.93817e-05
6.93711e-05
6.93802e-05
6.94098e-05
6.9457e-05
6.9523e-05
6.96062e-05
6.97086e-05
6.98307e-05
6.99675e-05
7.011e-05
7.02542e-05
7.03983e-05
7.05412e-05
7.06813e-05
7.08164e-05
7.09459e-05
7.10693e-05
7.11825e-05
7.12796e-05
7.13519e-05
7.14062e-05
7.1441e-05
7.1465e-05
7.14827e-05
7.14935e-05
7.14995e-05
7.15035e-05
7.15054e-05
7.15051e-05
7.1501e-05
7.14924e-05
7.14776e-05
7.14564e-05
7.14323e-05
7.14094e-05
7.13874e-05
7.13678e-05
7.13516e-05
7.1338e-05
7.1326e-05
7.13192e-05
7.13111e-05
7.13049e-05
7.13062e-05
7.13123e-05
7.13218e-05
7.1342e-05
7.1367e-05
7.1395e-05
7.14265e-05
7.14554e-05
7.14851e-05
7.15133e-05
7.15374e-05
7.15694e-05
7.16236e-05
7.17079e-05
7.18138e-05
7.19354e-05
7.20697e-05
7.22127e-05
7.23614e-05
7.25148e-05
7.26728e-05
7.28356e-05
7.3003e-05
7.31752e-05
7.33511e-05
7.35316e-05
7.37183e-05
7.39194e-05
7.41528e-05
7.44489e-05
7.48067e-05
7.50358e-05
7.51245e-05
2.4688e-06
2.41951e-06
2.36262e-06
2.30749e-06
2.25044e-06
2.19625e-06
2.1452e-06
2.09977e-06
2.06065e-06
2.02835e-06
2.00253e-06
1.98264e-06
1.96826e-06
1.9589e-06
1.95449e-06
1.95476e-06
1.95892e-06
1.96632e-06
1.97657e-06
1.98985e-06
2.00444e-06
2.02099e-06
2.03761e-06
2.05537e-06
2.07317e-06
2.09262e-06
2.11364e-06
2.13594e-06
2.15921e-06
2.18081e-06
2.20034e-06
2.21759e-06
2.23279e-06
2.24716e-06
2.2608e-06
2.27424e-06
2.28835e-06
2.30295e-06
2.3179e-06
2.33296e-06
2.34717e-06
2.3603e-06
2.3717e-06
2.3801e-06
2.38368e-06
2.3824e-06
2.37524e-06
2.36212e-06
2.34234e-06
2.31546e-06
2.28188e-06
2.24161e-06
2.19397e-06
2.14382e-06
2.09074e-06
2.0365e-06
1.98461e-06
1.93528e-06
1.89103e-06
1.85281e-06
1.82147e-06
1.79811e-06
1.78283e-06
1.7759e-06
1.77818e-06
1.78473e-06
1.79647e-06
1.81195e-06
1.8313e-06
1.85455e-06
1.88182e-06
1.91227e-06
1.94478e-06
1.9791e-06
2.01483e-06
2.05212e-06
2.09117e-06
2.13156e-06
2.17354e-06
2.21729e-06
2.26296e-06
2.31324e-06
2.37009e-06
2.41007e-06
2.42976e-06
2.46029e-06
6.56078e-07
6.45322e-07
6.33262e-07
6.21939e-07
6.10224e-07
5.99432e-07
5.89418e-07
5.80642e-07
5.73025e-07
5.66687e-07
5.61586e-07
5.57622e-07
5.54682e-07
5.52674e-07
5.51577e-07
5.51324e-07
5.51751e-07
5.52708e-07
5.54133e-07
5.56047e-07
5.58145e-07
5.60495e-07
5.62835e-07
5.65385e-07
5.68007e-07
5.71004e-07
5.74404e-07
5.78138e-07
5.82135e-07
5.85842e-07
5.89156e-07
5.92086e-07
5.94692e-07
5.97211e-07
5.99675e-07
6.02176e-07
6.04841e-07
6.07623e-07
6.10481e-07
6.1339e-07
6.16161e-07
6.18773e-07
6.21085e-07
6.22786e-07
6.23477e-07
6.2313e-07
6.21546e-07
6.18691e-07
6.14439e-07
6.08706e-07
6.01586e-07
5.93092e-07
5.83151e-07
5.72757e-07
5.61902e-07
5.50948e-07
5.40571e-07
5.30837e-07
5.22181e-07
5.14762e-07
5.08702e-07
5.04156e-07
5.01107e-07
4.99598e-07
4.99704e-07
5.00544e-07
5.0224e-07
5.0457e-07
5.07567e-07
5.11271e-07
5.15714e-07
5.20748e-07
5.26176e-07
5.3192e-07
5.37912e-07
5.44174e-07
5.50745e-07
5.57582e-07
5.64739e-07
5.7223e-07
5.79916e-07
5.87804e-07
5.95544e-07
6.01127e-07
6.05691e-07
6.18772e-07
3.75464e-07
3.72393e-07
3.69049e-07
3.65985e-07
3.6283e-07
3.59944e-07
3.57292e-07
3.55e-07
3.53048e-07
3.51441e-07
3.50146e-07
3.49128e-07
3.48358e-07
3.47814e-07
3.47491e-07
3.47373e-07
3.47414e-07
3.47576e-07
3.47854e-07
3.48236e-07
3.48675e-07
3.49175e-07
3.49694e-07
3.50259e-07
3.50869e-07
3.51578e-07
3.52422e-07
3.53374e-07
3.54425e-07
3.55445e-07
3.56382e-07
3.57217e-07
3.57955e-07
3.58663e-07
3.59347e-07
3.60035e-07
3.60757e-07
3.615e-07
3.62255e-07
3.6301e-07
3.63724e-07
3.64387e-07
3.64968e-07
3.6537e-07
3.65489e-07
3.65317e-07
3.64796e-07
3.63922e-07
3.62666e-07
3.61007e-07
3.58995e-07
3.56611e-07
3.53888e-07
3.5107e-07
3.48202e-07
3.45385e-07
3.42773e-07
3.40401e-07
3.3834e-07
3.36621e-07
3.3525e-07
3.34234e-07
3.33555e-07
3.33224e-07
3.33201e-07
3.33356e-07
3.33673e-07
3.34143e-07
3.34758e-07
3.35538e-07
3.36485e-07
3.37581e-07
3.38783e-07
3.40071e-07
3.41431e-07
3.42869e-07
3.44389e-07
3.45991e-07
3.47698e-07
3.49518e-07
3.5141e-07
3.53258e-07
3.54892e-07
3.5595e-07
3.56861e-07
3.58137e-07
3.12742e-07
3.11674e-07
3.10534e-07
3.09686e-07
3.08742e-07
3.08003e-07
3.07324e-07
3.0679e-07
3.06358e-07
3.06071e-07
3.05894e-07
3.0581e-07
3.05798e-07
3.05855e-07
3.05973e-07
3.06143e-07
3.06352e-07
3.06572e-07
3.06817e-07
3.07057e-07
3.073e-07
3.07522e-07
3.07756e-07
3.07971e-07
3.08202e-07
3.08433e-07
3.08707e-07
3.09005e-07
3.09323e-07
3.09638e-07
3.09933e-07
3.10219e-07
3.10486e-07
3.10752e-07
3.11009e-07
3.11265e-07
3.11517e-07
3.11763e-07
3.11998e-07
3.12211e-07
3.12411e-07
3.12582e-07
3.12725e-07
3.12817e-07
3.12817e-07
3.12738e-07
3.12547e-07
3.12266e-07
3.11869e-07
3.11365e-07
3.10743e-07
3.10072e-07
3.0928e-07
3.08509e-07
3.07772e-07
3.07079e-07
3.06497e-07
3.06008e-07
3.05628e-07
3.05344e-07
3.05158e-07
3.05043e-07
3.04982e-07
3.04994e-07
3.05007e-07
3.05069e-07
3.05126e-07
3.05224e-07
3.05342e-07
3.05499e-07
3.05688e-07
3.0591e-07
3.06168e-07
3.06447e-07
3.06754e-07
3.07092e-07
3.07445e-07
3.07856e-07
3.0831e-07
3.08812e-07
3.09357e-07
3.09899e-07
3.10477e-07
3.10894e-07
3.11249e-07
3.12021e-07
2.98537e-07
2.98237e-07
2.97909e-07
2.9783e-07
2.97633e-07
2.97545e-07
2.97442e-07
2.97407e-07
2.97401e-07
2.97435e-07
2.9749e-07
2.97557e-07
2.97632e-07
2.97722e-07
2.97828e-07
2.97944e-07
2.98063e-07
2.98179e-07
2.98307e-07
2.98424e-07
2.98564e-07
2.98682e-07
2.98829e-07
2.98938e-07
2.99073e-07
2.99187e-07
2.99332e-07
2.99497e-07
2.99682e-07
2.99886e-07
3.00101e-07
3.00311e-07
3.00505e-07
3.00687e-07
3.00841e-07
3.00984e-07
3.01108e-07
3.01213e-07
3.01305e-07
3.01372e-07
3.01435e-07
3.01477e-07
3.01502e-07
3.01512e-07
3.0148e-07
3.01428e-07
3.01342e-07
3.01223e-07
3.0106e-07
3.00871e-07
3.00658e-07
3.0042e-07
3.00184e-07
2.99954e-07
2.99748e-07
2.99631e-07
2.99543e-07
2.99538e-07
2.99576e-07
2.99648e-07
2.99755e-07
2.9986e-07
2.99951e-07
3.00046e-07
3.0008e-07
3.00126e-07
3.00133e-07
3.00152e-07
3.00172e-07
3.00197e-07
3.00225e-07
3.0026e-07
3.00319e-07
3.00382e-07
3.00464e-07
3.00567e-07
3.00667e-07
3.00803e-07
3.00969e-07
3.0116e-07
3.01404e-07
3.01648e-07
3.01858e-07
3.01905e-07
3.0197e-07
3.01588e-07
2.94682e-07
2.9442e-07
2.94143e-07
2.94132e-07
2.94e-07
2.94004e-07
2.93983e-07
2.94038e-07
2.94125e-07
2.94273e-07
2.94449e-07
2.94639e-07
2.94834e-07
2.95041e-07
2.95252e-07
2.95459e-07
2.9566e-07
2.95848e-07
2.96034e-07
2.96189e-07
2.96356e-07
2.96485e-07
2.96633e-07
2.96739e-07
2.96865e-07
2.96967e-07
2.97092e-07
2.97225e-07
2.97361e-07
2.97517e-07
2.97684e-07
2.9785e-07
2.98008e-07
2.98164e-07
2.98292e-07
2.98415e-07
2.9852e-07
2.98598e-07
2.9867e-07
2.9871e-07
2.98745e-07
2.98765e-07
2.98777e-07
2.98773e-07
2.98746e-07
2.98701e-07
2.98645e-07
2.9857e-07
2.98491e-07
2.98364e-07
2.98281e-07
2.9813e-07
2.98041e-07
2.97947e-07
2.97868e-07
2.97905e-07
2.9794e-07
2.98063e-07
2.98211e-07
2.98374e-07
2.98566e-07
2.98736e-07
2.98873e-07
2.9901e-07
2.99054e-07
2.99134e-07
2.99121e-07
2.99125e-07
2.99121e-07
2.99117e-07
2.99107e-07
2.99096e-07
2.99106e-07
2.9911e-07
2.99131e-07
2.9917e-07
2.99204e-07
2.99277e-07
2.99373e-07
2.99487e-07
2.9966e-07
2.99813e-07
2.99955e-07
3.00071e-07
3.00299e-07
3.00341e-07
2.93978e-07
2.93833e-07
2.93674e-07
2.93773e-07
2.93741e-07
2.93836e-07
2.93897e-07
2.94037e-07
2.94187e-07
2.94368e-07
2.94545e-07
2.94707e-07
2.94847e-07
2.94978e-07
2.95093e-07
2.95191e-07
2.95283e-07
2.95374e-07
2.95483e-07
2.9557e-07
2.95689e-07
2.95772e-07
2.95885e-07
2.95956e-07
2.96066e-07
2.96158e-07
2.96295e-07
2.96448e-07
2.96611e-07
2.96794e-07
2.96991e-07
2.97185e-07
2.97362e-07
2.97531e-07
2.97662e-07
2.97787e-07
2.97889e-07
2.97962e-07
2.98035e-07
2.9807e-07
2.98104e-07
2.98118e-07
2.98125e-07
2.98116e-07
2.981e-07
2.98051e-07
2.98008e-07
2.97938e-07
2.97883e-07
2.97771e-07
2.97712e-07
2.97586e-07
2.97524e-07
2.9746e-07
2.97398e-07
2.97462e-07
2.97518e-07
2.97663e-07
2.97844e-07
2.9803e-07
2.98252e-07
2.98442e-07
2.98598e-07
2.98759e-07
2.98807e-07
2.98909e-07
2.98895e-07
2.98901e-07
2.98894e-07
2.98888e-07
2.98877e-07
2.98862e-07
2.98869e-07
2.98863e-07
2.98877e-07
2.98903e-07
2.9893e-07
2.98996e-07
2.99079e-07
2.99176e-07
2.99333e-07
2.99471e-07
2.99618e-07
2.99747e-07
2.99936e-07
2.99788e-07
2.93601e-07
2.93376e-07
2.93133e-07
2.93163e-07
2.9306e-07
2.93089e-07
2.93083e-07
2.93176e-07
2.93294e-07
2.93464e-07
2.93648e-07
2.9383e-07
2.94003e-07
2.94189e-07
2.94368e-07
2.94537e-07
2.94692e-07
2.94834e-07
2.94989e-07
2.95123e-07
2.95266e-07
2.95366e-07
2.95476e-07
2.95547e-07
2.95643e-07
2.95725e-07
2.95844e-07
2.95976e-07
2.96118e-07
2.96291e-07
2.96494e-07
2.96701e-07
2.96889e-07
2.97071e-07
2.97205e-07
2.97336e-07
2.97432e-07
2.97516e-07
2.97595e-07
2.97617e-07
2.97664e-07
2.97677e-07
2.97687e-07
2.97686e-07
2.97673e-07
2.97639e-07
2.97583e-07
2.9752e-07
2.97458e-07
2.97344e-07
2.9728e-07
2.97141e-07
2.97077e-07
2.9699e-07
2.96915e-07
2.96977e-07
2.97033e-07
2.9719e-07
2.97398e-07
2.97607e-07
2.97871e-07
2.98106e-07
2.983e-07
2.98507e-07
2.98569e-07
2.98744e-07
2.98739e-07
2.98752e-07
2.98752e-07
2.98751e-07
2.98739e-07
2.9872e-07
2.98731e-07
2.98727e-07
2.98741e-07
2.98768e-07
2.98797e-07
2.98866e-07
2.98957e-07
2.99054e-07
2.99212e-07
2.9934e-07
2.99457e-07
2.99558e-07
2.99742e-07
2.99607e-07
2.93258e-07
2.93024e-07
2.92795e-07
2.92832e-07
2.92754e-07
2.92802e-07
2.92836e-07
2.92964e-07
2.93111e-07
2.93288e-07
2.93458e-07
2.93602e-07
2.93723e-07
2.93846e-07
2.93958e-07
2.94067e-07
2.94176e-07
2.9428e-07
2.94413e-07
2.94522e-07
2.94664e-07
2.94768e-07
2.94883e-07
2.94949e-07
2.95049e-07
2.95152e-07
2.95286e-07
2.95435e-07
2.95592e-07
2.95793e-07
2.96023e-07
2.9626e-07
2.96472e-07
2.9667e-07
2.96812e-07
2.96957e-07
2.97059e-07
2.97159e-07
2.97252e-07
2.97279e-07
2.97332e-07
2.9735e-07
2.97361e-07
2.97375e-07
2.97356e-07
2.97335e-07
2.97274e-07
2.97209e-07
2.97138e-07
2.97008e-07
2.96936e-07
2.96781e-07
2.96698e-07
2.96598e-07
2.96487e-07
2.96553e-07
2.966e-07
2.96768e-07
2.96998e-07
2.9723e-07
2.97537e-07
2.97807e-07
2.98038e-07
2.98291e-07
2.9836e-07
2.98603e-07
2.98613e-07
2.98639e-07
2.98651e-07
2.98652e-07
2.9865e-07
2.98633e-07
2.98649e-07
2.98644e-07
2.98663e-07
2.98693e-07
2.98729e-07
2.98793e-07
2.98893e-07
2.98999e-07
2.99154e-07
2.99273e-07
2.99384e-07
2.99493e-07
2.99674e-07
2.99481e-07
2.92728e-07
2.92442e-07
2.9216e-07
2.92137e-07
2.92008e-07
2.91994e-07
2.91992e-07
2.92089e-07
2.9222e-07
2.92399e-07
2.92588e-07
2.92765e-07
2.92925e-07
2.93082e-07
2.93227e-07
2.93386e-07
2.93527e-07
2.9366e-07
2.93808e-07
2.9392e-07
2.94053e-07
2.94146e-07
2.94251e-07
2.94311e-07
2.94395e-07
2.94478e-07
2.94602e-07
2.94762e-07
2.94936e-07
2.9515e-07
2.95398e-07
2.95658e-07
2.95882e-07
2.96095e-07
2.96244e-07
2.96402e-07
2.9651e-07
2.96622e-07
2.96732e-07
2.96766e-07
2.96825e-07
2.96849e-07
2.96864e-07
2.9689e-07
2.96876e-07
2.96868e-07
2.96812e-07
2.96737e-07
2.96658e-07
2.96516e-07
2.96425e-07
2.96256e-07
2.96144e-07
2.96008e-07
2.95856e-07
2.95893e-07
2.95929e-07
2.9609e-07
2.96345e-07
2.96613e-07
2.9698e-07
2.97302e-07
2.97608e-07
2.97936e-07
2.98035e-07
2.98348e-07
2.98398e-07
2.98445e-07
2.98472e-07
2.98476e-07
2.98484e-07
2.98471e-07
2.98484e-07
2.98484e-07
2.98497e-07
2.9853e-07
2.98576e-07
2.98649e-07
2.98751e-07
2.9888e-07
2.99032e-07
2.99149e-07
2.99266e-07
2.99363e-07
2.99523e-07
2.99275e-07
2.91938e-07
2.91623e-07
2.91312e-07
2.91273e-07
2.9114e-07
2.91127e-07
2.91145e-07
2.91261e-07
2.91406e-07
2.916e-07
2.91797e-07
2.91962e-07
2.921e-07
2.92263e-07
2.92423e-07
2.92561e-07
2.92695e-07
2.92818e-07
2.92959e-07
2.93071e-07
2.9321e-07
2.93319e-07
2.93441e-07
2.9351e-07
2.93611e-07
2.93724e-07
2.93884e-07
2.94072e-07
2.94273e-07
2.94512e-07
2.94783e-07
2.95051e-07
2.95275e-07
2.95487e-07
2.95641e-07
2.95806e-07
2.9592e-07
2.96029e-07
2.96138e-07
2.9617e-07
2.96225e-07
2.96252e-07
2.96272e-07
2.96298e-07
2.96295e-07
2.9629e-07
2.96239e-07
2.96162e-07
2.96091e-07
2.95933e-07
2.95838e-07
2.9566e-07
2.95532e-07
2.95365e-07
2.95178e-07
2.95199e-07
2.95226e-07
2.95404e-07
2.95678e-07
2.95963e-07
2.96395e-07
2.96791e-07
2.97183e-07
2.97606e-07
2.97763e-07
2.9815e-07
2.98251e-07
2.98311e-07
2.98357e-07
2.98376e-07
2.98384e-07
2.98372e-07
2.98378e-07
2.98368e-07
2.98393e-07
2.98419e-07
2.98469e-07
2.98555e-07
2.98655e-07
2.98789e-07
2.98938e-07
2.99039e-07
2.99149e-07
2.9923e-07
2.99367e-07
2.99101e-07
2.90876e-07
2.90536e-07
2.90186e-07
2.90122e-07
2.89969e-07
2.8995e-07
2.89979e-07
2.90116e-07
2.90289e-07
2.90517e-07
2.90758e-07
2.90998e-07
2.91209e-07
2.91407e-07
2.9158e-07
2.91742e-07
2.91881e-07
2.9201e-07
2.92161e-07
2.92285e-07
2.92427e-07
2.92538e-07
2.92652e-07
2.92709e-07
2.92804e-07
2.92918e-07
2.93102e-07
2.93319e-07
2.9354e-07
2.93793e-07
2.9406e-07
2.94334e-07
2.94551e-07
2.94763e-07
2.94899e-07
2.95052e-07
2.95155e-07
2.95238e-07
2.95328e-07
2.9535e-07
2.95394e-07
2.95415e-07
2.95439e-07
2.95458e-07
2.95462e-07
2.95451e-07
2.9541e-07
2.95342e-07
2.9527e-07
2.95096e-07
2.94999e-07
2.94822e-07
2.94669e-07
2.94468e-07
2.94239e-07
2.94222e-07
2.94234e-07
2.94407e-07
2.947e-07
2.95013e-07
2.95507e-07
2.95957e-07
2.96458e-07
2.96996e-07
2.97227e-07
2.97739e-07
2.97966e-07
2.98097e-07
2.98189e-07
2.98246e-07
2.98284e-07
2.98276e-07
2.98266e-07
2.98229e-07
2.98225e-07
2.98225e-07
2.98259e-07
2.98346e-07
2.98455e-07
2.98616e-07
2.9879e-07
2.98905e-07
2.99e-07
2.99059e-07
2.99156e-07
2.98842e-07
2.89557e-07
2.89201e-07
2.88821e-07
2.88742e-07
2.88589e-07
2.88597e-07
2.88668e-07
2.88844e-07
2.8906e-07
2.89327e-07
2.8961e-07
2.89888e-07
2.90131e-07
2.90329e-07
2.90484e-07
2.90625e-07
2.90758e-07
2.90892e-07
2.91066e-07
2.91225e-07
2.91399e-07
2.91547e-07
2.9169e-07
2.9178e-07
2.91902e-07
2.92039e-07
2.92255e-07
2.92487e-07
2.92706e-07
2.9294e-07
2.93172e-07
2.93438e-07
2.93637e-07
2.93852e-07
2.9399e-07
2.94143e-07
2.94244e-07
2.94311e-07
2.94388e-07
2.944e-07
2.94437e-07
2.94445e-07
2.9447e-07
2.94491e-07
2.945e-07
2.94502e-07
2.94474e-07
2.94426e-07
2.94355e-07
2.94191e-07
2.94112e-07
2.93972e-07
2.93819e-07
2.93625e-07
2.93379e-07
2.93332e-07
2.93324e-07
2.93492e-07
2.93801e-07
2.94129e-07
2.9466e-07
2.95126e-07
2.95686e-07
2.96299e-07
2.9655e-07
2.97112e-07
2.97435e-07
2.97604e-07
2.97745e-07
2.97852e-07
2.97947e-07
2.98009e-07
2.98063e-07
2.98084e-07
2.98111e-07
2.98144e-07
2.98191e-07
2.98267e-07
2.98367e-07
2.98518e-07
2.98694e-07
2.98804e-07
2.98889e-07
2.98938e-07
2.99024e-07
2.98671e-07
2.88574e-07
2.88205e-07
2.87801e-07
2.87703e-07
2.87534e-07
2.87543e-07
2.87616e-07
2.87787e-07
2.87996e-07
2.88267e-07
2.88578e-07
2.88912e-07
2.89192e-07
2.89399e-07
2.8954e-07
2.8967e-07
2.89805e-07
2.89957e-07
2.90151e-07
2.90329e-07
2.90521e-07
2.90688e-07
2.90853e-07
2.90962e-07
2.91096e-07
2.91251e-07
2.91483e-07
2.91722e-07
2.91942e-07
2.92172e-07
2.92404e-07
2.92685e-07
2.9289e-07
2.93112e-07
2.93253e-07
2.93409e-07
2.93513e-07
2.93579e-07
2.93661e-07
2.93685e-07
2.93731e-07
2.93749e-07
2.93773e-07
2.93786e-07
2.93802e-07
2.9381e-07
2.93798e-07
2.93767e-07
2.93702e-07
2.93532e-07
2.93464e-07
2.93341e-07
2.93176e-07
2.92988e-07
2.92724e-07
2.92654e-07
2.92612e-07
2.92751e-07
2.93033e-07
2.93343e-07
2.93872e-07
2.94319e-07
2.94916e-07
2.95579e-07
2.95857e-07
2.96438e-07
2.96844e-07
2.97056e-07
2.97228e-07
2.97362e-07
2.97483e-07
2.97576e-07
2.97663e-07
2.97714e-07
2.97768e-07
2.97824e-07
2.97909e-07
2.98035e-07
2.98176e-07
2.98346e-07
2.98526e-07
2.98637e-07
2.98707e-07
2.98768e-07
2.98869e-07
2.98495e-07
2.87965e-07
2.87581e-07
2.87146e-07
2.87014e-07
2.86804e-07
2.86788e-07
2.86844e-07
2.87002e-07
2.87213e-07
2.87509e-07
2.87856e-07
2.88233e-07
2.88514e-07
2.88693e-07
2.88787e-07
2.88894e-07
2.89032e-07
2.89205e-07
2.89424e-07
2.8963e-07
2.89849e-07
2.90042e-07
2.90227e-07
2.90362e-07
2.90514e-07
2.90691e-07
2.90938e-07
2.91188e-07
2.91418e-07
2.91664e-07
2.91912e-07
2.92213e-07
2.92436e-07
2.92679e-07
2.92825e-07
2.9298e-07
2.93072e-07
2.93126e-07
2.93198e-07
2.93208e-07
2.93238e-07
2.93252e-07
2.9327e-07
2.93286e-07
2.93313e-07
2.93333e-07
2.93336e-07
2.93313e-07
2.93252e-07
2.93088e-07
2.93037e-07
2.92933e-07
2.92763e-07
2.9256e-07
2.92266e-07
2.92159e-07
2.92067e-07
2.92153e-07
2.92361e-07
2.92642e-07
2.93136e-07
2.93554e-07
2.9418e-07
2.94842e-07
2.95177e-07
2.95785e-07
2.96253e-07
2.96547e-07
2.96744e-07
2.96913e-07
2.97061e-07
2.9718e-07
2.97289e-07
2.97362e-07
2.97449e-07
2.97513e-07
2.97627e-07
2.97783e-07
2.97974e-07
2.98188e-07
2.98395e-07
2.9851e-07
2.98569e-07
2.98624e-07
2.98731e-07
2.98354e-07
2.87271e-07
2.86854e-07
2.8637e-07
2.86187e-07
2.8593e-07
2.85883e-07
2.85924e-07
2.86089e-07
2.86327e-07
2.86677e-07
2.87098e-07
2.87498e-07
2.87781e-07
2.87938e-07
2.88008e-07
2.88108e-07
2.88232e-07
2.88392e-07
2.88596e-07
2.88789e-07
2.88995e-07
2.89177e-07
2.89359e-07
2.89492e-07
2.89666e-07
2.89875e-07
2.90159e-07
2.90435e-07
2.90705e-07
2.91001e-07
2.91292e-07
2.91648e-07
2.91904e-07
2.92166e-07
2.92321e-07
2.92489e-07
2.9259e-07
2.92652e-07
2.92732e-07
2.92748e-07
2.92772e-07
2.92785e-07
2.92795e-07
2.92812e-07
2.92847e-07
2.92874e-07
2.9288e-07
2.9286e-07
2.92796e-07
2.92623e-07
2.92573e-07
2.92467e-07
2.9227e-07
2.92031e-07
2.91677e-07
2.91474e-07
2.91278e-07
2.91261e-07
2.9137e-07
2.91594e-07
2.92049e-07
2.92464e-07
2.93024e-07
2.93686e-07
2.94098e-07
2.94765e-07
2.95368e-07
2.95781e-07
2.9608e-07
2.96321e-07
2.96527e-07
2.96688e-07
2.96827e-07
2.96929e-07
2.97048e-07
2.97159e-07
2.97301e-07
2.97476e-07
2.97694e-07
2.97942e-07
2.98199e-07
2.98346e-07
2.9842e-07
2.98484e-07
2.98586e-07
2.98195e-07
2.86445e-07
2.85982e-07
2.85441e-07
2.852e-07
2.84893e-07
2.84835e-07
2.84884e-07
2.85036e-07
2.85307e-07
2.85669e-07
2.86111e-07
2.86478e-07
2.86708e-07
2.86811e-07
2.86863e-07
2.86971e-07
2.87103e-07
2.87268e-07
2.87486e-07
2.87697e-07
2.87923e-07
2.88132e-07
2.8835e-07
2.88504e-07
2.88682e-07
2.88881e-07
2.89167e-07
2.89439e-07
2.89724e-07
2.90054e-07
2.90387e-07
2.9081e-07
2.91122e-07
2.91437e-07
2.91634e-07
2.91816e-07
2.91929e-07
2.92017e-07
2.92111e-07
2.92142e-07
2.9218e-07
2.92197e-07
2.92226e-07
2.92261e-07
2.92306e-07
2.92338e-07
2.92345e-07
2.92326e-07
2.92246e-07
2.92068e-07
2.92005e-07
2.91884e-07
2.91634e-07
2.91314e-07
2.90852e-07
2.90498e-07
2.90155e-07
2.89998e-07
2.8999e-07
2.90104e-07
2.90488e-07
2.9085e-07
2.91338e-07
2.92049e-07
2.9254e-07
2.93218e-07
2.94026e-07
2.94627e-07
2.951e-07
2.95477e-07
2.95794e-07
2.9604e-07
2.96258e-07
2.96411e-07
2.96557e-07
2.96706e-07
2.96889e-07
2.97123e-07
2.97387e-07
2.97676e-07
2.97971e-07
2.98153e-07
2.98263e-07
2.98365e-07
2.98509e-07
2.98161e-07
2.85451e-07
2.84935e-07
2.84337e-07
2.84039e-07
2.83688e-07
2.83615e-07
2.83619e-07
2.83798e-07
2.84e-07
2.84417e-07
2.84819e-07
2.85142e-07
2.85307e-07
2.85366e-07
2.85391e-07
2.85485e-07
2.85607e-07
2.85766e-07
2.86004e-07
2.86251e-07
2.86521e-07
2.86793e-07
2.8708e-07
2.87295e-07
2.87502e-07
2.87719e-07
2.88029e-07
2.88324e-07
2.88629e-07
2.88981e-07
2.89326e-07
2.89771e-07
2.90114e-07
2.90431e-07
2.90646e-07
2.90852e-07
2.90984e-07
2.91104e-07
2.91233e-07
2.91292e-07
2.91353e-07
2.91413e-07
2.91453e-07
2.91525e-07
2.91589e-07
2.91623e-07
2.91641e-07
2.91606e-07
2.91538e-07
2.91334e-07
2.91264e-07
2.91106e-07
2.90766e-07
2.90304e-07
2.89687e-07
2.89111e-07
2.88553e-07
2.88155e-07
2.87891e-07
2.87775e-07
2.87885e-07
2.88035e-07
2.8847e-07
2.89225e-07
2.89821e-07
2.90571e-07
2.91706e-07
2.92674e-07
2.93476e-07
2.94122e-07
2.94653e-07
2.95066e-07
2.95417e-07
2.95698e-07
2.95932e-07
2.96153e-07
2.96392e-07
2.96676e-07
2.96986e-07
2.97327e-07
2.97667e-07
2.97871e-07
2.97999e-07
2.98111e-07
2.9827e-07
2.97946e-07
2.84252e-07
2.83681e-07
2.83021e-07
2.82654e-07
2.82232e-07
2.8208e-07
2.82015e-07
2.82023e-07
2.8224e-07
2.82558e-07
2.82857e-07
2.83052e-07
2.83113e-07
2.83117e-07
2.83127e-07
2.83211e-07
2.83328e-07
2.83499e-07
2.8378e-07
2.84106e-07
2.84483e-07
2.84896e-07
2.85317e-07
2.8568e-07
2.86023e-07
2.86277e-07
2.86631e-07
2.87003e-07
2.87332e-07
2.8773e-07
2.88098e-07
2.88552e-07
2.88903e-07
2.89249e-07
2.89477e-07
2.89695e-07
2.89853e-07
2.89999e-07
2.90154e-07
2.90244e-07
2.90342e-07
2.9043e-07
2.90513e-07
2.90606e-07
2.90693e-07
2.90727e-07
2.90701e-07
2.9071e-07
2.90574e-07
2.9038e-07
2.90271e-07
2.90058e-07
2.89567e-07
2.88887e-07
2.88011e-07
2.87066e-07
2.86122e-07
2.85262e-07
2.84497e-07
2.8391e-07
2.83492e-07
2.8327e-07
2.83525e-07
2.84345e-07
2.85121e-07
2.86001e-07
2.87678e-07
2.89266e-07
2.90684e-07
2.91859e-07
2.92821e-07
2.93573e-07
2.9417e-07
2.94648e-07
2.95038e-07
2.95379e-07
2.95725e-07
2.96105e-07
2.965e-07
2.96905e-07
2.97307e-07
2.97552e-07
2.97723e-07
2.97881e-07
2.98061e-07
2.97766e-07
2.82792e-07
2.82142e-07
2.81386e-07
2.80884e-07
2.80313e-07
2.7994e-07
2.79669e-07
2.7951e-07
2.79571e-07
2.79683e-07
2.79805e-07
2.79809e-07
2.7974e-07
2.79678e-07
2.79634e-07
2.79675e-07
2.79766e-07
2.79956e-07
2.80308e-07
2.8078e-07
2.81347e-07
2.82017e-07
2.82711e-07
2.83313e-07
2.83826e-07
2.84271e-07
2.84763e-07
2.85238e-07
2.85668e-07
2.86154e-07
2.86582e-07
2.87069e-07
2.87422e-07
2.87789e-07
2.88038e-07
2.88276e-07
2.88446e-07
2.88645e-07
2.88855e-07
2.8898e-07
2.89121e-07
2.8923e-07
2.89333e-07
2.89459e-07
2.89534e-07
2.89521e-07
2.89527e-07
2.89462e-07
2.89302e-07
2.89081e-07
2.88943e-07
2.88605e-07
2.87868e-07
2.86836e-07
2.85504e-07
2.83947e-07
2.82296e-07
2.80617e-07
2.78986e-07
2.77557e-07
2.76302e-07
2.75442e-07
2.75258e-07
2.75977e-07
2.77054e-07
2.78098e-07
2.80662e-07
2.8331e-07
2.85793e-07
2.87922e-07
2.89693e-07
2.91101e-07
2.92174e-07
2.92981e-07
2.93656e-07
2.94203e-07
2.94708e-07
2.95226e-07
2.95748e-07
2.96277e-07
2.96788e-07
2.97109e-07
2.97333e-07
2.97523e-07
2.97715e-07
2.97442e-07
2.80841e-07
2.8004e-07
2.79092e-07
2.78322e-07
2.77417e-07
2.76681e-07
2.75933e-07
2.75498e-07
2.75133e-07
2.74952e-07
2.74718e-07
2.74433e-07
2.74175e-07
2.73995e-07
2.73873e-07
2.73829e-07
2.73881e-07
2.74104e-07
2.74579e-07
2.75294e-07
2.76171e-07
2.77243e-07
2.7836e-07
2.79474e-07
2.80341e-07
2.81137e-07
2.81895e-07
2.82547e-07
2.83239e-07
2.83889e-07
2.84441e-07
2.84963e-07
2.85345e-07
2.85747e-07
2.86043e-07
2.86288e-07
2.86525e-07
2.86761e-07
2.86997e-07
2.87189e-07
2.87382e-07
2.87591e-07
2.87725e-07
2.87839e-07
2.87922e-07
2.87895e-07
2.87826e-07
2.87645e-07
2.87447e-07
2.87195e-07
2.86943e-07
2.86368e-07
2.85178e-07
2.83533e-07
2.81393e-07
2.78753e-07
2.75819e-07
2.72707e-07
2.69581e-07
2.66619e-07
2.63918e-07
2.61878e-07
2.6097e-07
2.61463e-07
2.63012e-07
2.64254e-07
2.68148e-07
2.72607e-07
2.76924e-07
2.80762e-07
2.84012e-07
2.86646e-07
2.88672e-07
2.90197e-07
2.9142e-07
2.92412e-07
2.93236e-07
2.94012e-07
2.94734e-07
2.95407e-07
2.96022e-07
2.96442e-07
2.96749e-07
2.97027e-07
2.97283e-07
2.97055e-07
2.78081e-07
2.7699e-07
2.75669e-07
2.74396e-07
2.72893e-07
2.71421e-07
2.70006e-07
2.68809e-07
2.67862e-07
2.67024e-07
2.66213e-07
2.65484e-07
2.64904e-07
2.64494e-07
2.6419e-07
2.64017e-07
2.64011e-07
2.6429e-07
2.64992e-07
2.6613e-07
2.67517e-07
2.6927e-07
2.71163e-07
2.72993e-07
2.74538e-07
2.75823e-07
2.77086e-07
2.78277e-07
2.7931e-07
2.80257e-07
2.80969e-07
2.81562e-07
2.82021e-07
2.82444e-07
2.82837e-07
2.83195e-07
2.83526e-07
2.83879e-07
2.84281e-07
2.84627e-07
2.84934e-07
2.85174e-07
2.85403e-07
2.8551e-07
2.85564e-07
2.85443e-07
2.8517e-07
2.84903e-07
2.8457e-07
2.8423e-07
2.83787e-07
2.82748e-07
2.80802e-07
2.78121e-07
2.74612e-07
2.70142e-07
2.65056e-07
2.5958e-07
2.53959e-07
2.48499e-07
2.43507e-07
2.39513e-07
2.36843e-07
2.37428e-07
2.39584e-07
2.40877e-07
2.46813e-07
2.54026e-07
2.61224e-07
2.67863e-07
2.73636e-07
2.78409e-07
2.82116e-07
2.84988e-07
2.87238e-07
2.89006e-07
2.90487e-07
2.91793e-07
2.92941e-07
2.93974e-07
2.94876e-07
2.95517e-07
2.96002e-07
2.964e-07
2.96731e-07
2.9649e-07
2.74084e-07
2.72492e-07
2.70525e-07
2.68429e-07
2.65894e-07
2.63197e-07
2.60573e-07
2.58141e-07
2.56034e-07
2.54153e-07
2.52478e-07
2.51092e-07
2.50024e-07
2.49237e-07
2.48683e-07
2.48319e-07
2.48235e-07
2.48631e-07
2.49686e-07
2.51465e-07
2.53631e-07
2.56395e-07
2.59362e-07
2.62614e-07
2.64845e-07
2.67289e-07
2.69431e-07
2.71204e-07
2.72966e-07
2.74396e-07
2.75429e-07
2.76155e-07
2.7669e-07
2.77282e-07
2.77839e-07
2.78368e-07
2.78864e-07
2.79348e-07
2.79876e-07
2.8042e-07
2.80905e-07
2.81398e-07
2.81577e-07
2.81902e-07
2.81757e-07
2.81466e-07
2.81054e-07
2.80533e-07
2.8002e-07
2.79545e-07
2.78759e-07
2.76976e-07
2.73801e-07
2.69482e-07
2.63779e-07
2.56517e-07
2.48173e-07
2.39153e-07
2.2991e-07
2.20892e-07
2.12536e-07
2.05793e-07
2.01134e-07
2.01463e-07
2.03954e-07
2.05675e-07
2.14098e-07
2.24806e-07
2.35878e-07
2.46472e-07
2.55965e-07
2.64083e-07
2.70583e-07
2.75794e-07
2.79851e-07
2.83032e-07
2.85703e-07
2.88005e-07
2.89986e-07
2.91652e-07
2.93048e-07
2.9407e-07
2.94844e-07
2.95461e-07
2.95939e-07
2.9584e-07
2.68161e-07
2.65744e-07
2.62705e-07
2.59233e-07
2.54991e-07
2.5035e-07
2.45601e-07
2.41223e-07
2.37324e-07
2.33956e-07
2.31125e-07
2.28849e-07
2.27088e-07
2.25771e-07
2.24889e-07
2.24331e-07
2.242e-07
2.24812e-07
2.26417e-07
2.29103e-07
2.32345e-07
2.36481e-07
2.41236e-07
2.45903e-07
2.49875e-07
2.53673e-07
2.56948e-07
2.60124e-07
2.62743e-07
2.64963e-07
2.66433e-07
2.67363e-07
2.67958e-07
2.68658e-07
2.69574e-07
2.70548e-07
2.71453e-07
2.72264e-07
2.73118e-07
2.73985e-07
2.74783e-07
2.75411e-07
2.76031e-07
2.76147e-07
2.75935e-07
2.75381e-07
2.74572e-07
2.73612e-07
2.72815e-07
2.72094e-07
2.70767e-07
2.67796e-07
2.62737e-07
2.55918e-07
2.46962e-07
2.35715e-07
2.22903e-07
2.09114e-07
1.95333e-07
1.82131e-07
1.69857e-07
1.60198e-07
1.53984e-07
1.53565e-07
1.56531e-07
1.59155e-07
1.69755e-07
1.83892e-07
1.99184e-07
2.14415e-07
2.28558e-07
2.41068e-07
2.51412e-07
2.60024e-07
2.66851e-07
2.7232e-07
2.76989e-07
2.8104e-07
2.84542e-07
2.87453e-07
2.89808e-07
2.91617e-07
2.92953e-07
2.94008e-07
2.94621e-07
2.94459e-07
2.59322e-07
2.55599e-07
2.50865e-07
2.45249e-07
2.38397e-07
2.30778e-07
2.2298e-07
2.15702e-07
2.09359e-07
2.04119e-07
1.99922e-07
1.96627e-07
1.94086e-07
1.9221e-07
1.91024e-07
1.90299e-07
1.90169e-07
1.911e-07
1.93383e-07
1.97113e-07
2.01589e-07
2.07553e-07
2.14262e-07
2.21077e-07
2.27145e-07
2.32953e-07
2.38006e-07
2.42807e-07
2.4723e-07
2.50398e-07
2.52581e-07
2.53941e-07
2.54684e-07
2.55519e-07
2.56703e-07
2.58195e-07
2.59644e-07
2.60934e-07
2.62267e-07
2.63645e-07
2.6493e-07
2.65968e-07
2.66855e-07
2.66976e-07
2.66683e-07
2.6569e-07
2.64263e-07
2.62691e-07
2.615e-07
2.60392e-07
2.58277e-07
2.53564e-07
2.45774e-07
2.35387e-07
2.22041e-07
2.05747e-07
1.87667e-07
1.68697e-07
1.50303e-07
1.33456e-07
1.1843e-07
1.06426e-07
9.83328e-08
9.79651e-08
1.0125e-07
1.04272e-07
1.16362e-07
1.32971e-07
1.51606e-07
1.71163e-07
1.90122e-07
2.07598e-07
2.22617e-07
2.35619e-07
2.46212e-07
2.54837e-07
2.62315e-07
2.69001e-07
2.74896e-07
2.79886e-07
2.8392e-07
2.87169e-07
2.89654e-07
2.91543e-07
2.92629e-07
2.92715e-07
2.4628e-07
2.40611e-07
2.33378e-07
2.24626e-07
2.14045e-07
2.0242e-07
1.90716e-07
1.80029e-07
1.71043e-07
1.63937e-07
1.58464e-07
1.54265e-07
1.51058e-07
1.4874e-07
1.47334e-07
1.4652e-07
1.46421e-07
1.47699e-07
1.5067e-07
1.55312e-07
1.6104e-07
1.68685e-07
1.773e-07
1.86485e-07
1.94955e-07
2.03013e-07
2.10411e-07
2.17288e-07
2.23577e-07
2.28203e-07
2.31427e-07
2.33297e-07
2.34367e-07
2.35583e-07
2.37381e-07
2.39695e-07
2.42077e-07
2.44112e-07
2.461e-07
2.48248e-07
2.50082e-07
2.51921e-07
2.52855e-07
2.53294e-07
2.52608e-07
2.51039e-07
2.48626e-07
2.46113e-07
2.44273e-07
2.4267e-07
2.39421e-07
2.32374e-07
2.20968e-07
2.06035e-07
1.87619e-07
1.66207e-07
1.4349e-07
1.20716e-07
9.97959e-08
8.2117e-08
6.77084e-08
5.66824e-08
4.99714e-08
4.89503e-08
5.1517e-08
5.42928e-08
6.37627e-08
7.82849e-08
9.71118e-08
1.18891e-07
1.4138e-07
1.63137e-07
1.82813e-07
2.00591e-07
2.1578e-07
2.28477e-07
2.39657e-07
2.49941e-07
2.59284e-07
2.67379e-07
2.7403e-07
2.79514e-07
2.83905e-07
2.87366e-07
2.89379e-07
2.89939e-07
2.27574e-07
2.19234e-07
2.08633e-07
1.95861e-07
1.80858e-07
1.64868e-07
1.49225e-07
1.35408e-07
1.24234e-07
1.15778e-07
1.09532e-07
1.04927e-07
1.01536e-07
9.91757e-08
9.77801e-08
9.69396e-08
9.68234e-08
9.82933e-08
1.01609e-07
1.06671e-07
1.13225e-07
1.21749e-07
1.32028e-07
1.42969e-07
1.53488e-07
1.63791e-07
1.73404e-07
1.82565e-07
1.90688e-07
1.9713e-07
2.01603e-07
2.04073e-07
2.0547e-07
2.07035e-07
2.09607e-07
2.13082e-07
2.16841e-07
2.19967e-07
2.22795e-07
2.25813e-07
2.28558e-07
2.30918e-07
2.32596e-07
2.33065e-07
2.3202e-07
2.29672e-07
2.26007e-07
2.22198e-07
2.19563e-07
2.17264e-07
2.1262e-07
2.02802e-07
1.87234e-07
1.67524e-07
1.44713e-07
1.20011e-07
9.5546e-08
7.26515e-08
5.39472e-08
4.05532e-08
3.14251e-08
2.4764e-08
2.09204e-08
1.99022e-08
2.14874e-08
2.36103e-08
2.91999e-08
3.80536e-08
5.04113e-08
6.69016e-08
8.74343e-08
1.10495e-07
1.33177e-07
1.54655e-07
1.74113e-07
1.91145e-07
2.06553e-07
2.21194e-07
2.34939e-07
2.47213e-07
2.57565e-07
2.66343e-07
2.73467e-07
2.79503e-07
2.83036e-07
2.83974e-07
2.01937e-07
1.90373e-07
1.75931e-07
1.58952e-07
1.3986e-07
1.20418e-07
1.02341e-07
8.72746e-08
7.58302e-08
6.77463e-08
6.22341e-08
5.84428e-08
5.57432e-08
5.38953e-08
5.28055e-08
5.20893e-08
5.18541e-08
5.30459e-08
5.58918e-08
6.02001e-08
6.57713e-08
7.33204e-08
8.30311e-08
9.44524e-08
1.05974e-07
1.17778e-07
1.28719e-07
1.39174e-07
1.49058e-07
1.56847e-07
1.6265e-07
1.66045e-07
1.68138e-07
1.70341e-07
1.73594e-07
1.7799e-07
1.83079e-07
1.87563e-07
1.91397e-07
1.95293e-07
1.9893e-07
2.01942e-07
2.04356e-07