/*--------------------------------*- C++ -*----------------------------------*\
| =========                 |                                                 |
| \\      /  F ield         | OpenFOAM: The Open Source CFD Toolbox           |
|  \\    /   O peration     | Version:  v1912                                 |
|   \\  /    A nd           | Website:  www.openfoam.com                      |
|    \\/     M anipulation  |                                                 |
\*---------------------------------------------------------------------------*/
FoamFile
{
    version     2.0;
    format      ascii;
    class       volSymmTensorField;
    location    "70";
    object      R;
}
// * * * * * * * * * * * * * * * * * * * * * * * * * * * * * * * * * * * * * //

dimensions      [0 2 -2 0 0 0 0];


internalField   nonuniform List<symmTensor> 
14268
(
(1.35844e-09 7.20255e-11 0 1.44869e-09 0 1.40066e-09)
(9.19942e-10 5.20504e-11 0 8.33983e-10 0 8.75856e-10)
(4.89631e-10 2.60955e-11 0 4.40673e-10 0 4.64931e-10)
(6.9966e-09 1.58595e-09 0 2.99353e-09 0 4.95994e-09)
(1.24785e-05 3.87627e-06 0 5.38811e-06 0 9.18482e-06)
(9.12311e-05 2.26526e-05 0 4.20371e-05 0 6.76383e-05)
(0.000239558 5.9504e-05 0 0.000111619 0 0.000177312)
(0.000335891 7.06167e-05 0 0.000219706 0 0.00029108)
(0.000311827 5.03771e-05 0 0.00021148 0 0.000275902)
(0.000266097 3.31035e-05 0 0.000177724 0 0.000232989)
(0.00021948 2.24613e-05 0 0.00014318 0 0.00018875)
(0.000191624 1.71629e-05 0 0.00012725 0 0.000164355)
(0.000166789 1.31592e-05 0 0.000112871 0 0.000143239)
(0.000159882 1.56795e-05 0 0.000112486 0 0.000139108)
(0.000178205 1.94607e-05 0 0.000129699 0 0.000157773)
(0.000248233 2.22535e-05 0 0.00018514 0 0.000228016)
(0.000410521 3.65358e-05 0 0.000302943 0 0.000381275)
(0.00049461 6.07835e-05 0 0.00035186 0 0.00046296)
(0.000457145 5.25167e-05 0 0.000297975 0 0.000414931)
(0.00038942 4.00959e-05 0 0.000262086 0 0.000346347)
(0.000483028 2.62275e-05 0 0.000329937 0 0.000407863)
(0.000954329 0.000121483 0 0.00158752 0 0.000770258)
(0.00239162 -0.000320631 0 0.00712928 0 0.00223538)
(0.00297757 -0.000922091 0 0.00575858 0 0.00236382)
(0.00391165 0.000149973 0 0.00746983 0 0.00348559)
(0.00659987 0.00133253 0 0.0138519 0 0.00666042)
(0.00621771 0.000729556 0 0.0145182 0 0.00659559)
(0.00957725 -0.000831088 0 0.0241939 0 0.00990145)
(0.0104759 0.000747588 0 0.0204294 0 0.0104415)
(0.00573799 0.00157732 0 0.0076775 0 0.00522928)
(0.00400027 0.00101666 0 0.00512508 0 0.00332465)
(0.0108732 -0.000989615 0 0.0288844 0 0.0100191)
(0.0133311 0.000247161 0 0.0339147 0 0.012903)
(0.012824 0.00182792 0 0.0312212 0 0.0123049)
(0.0208778 -0.000704767 0 0.042873 0 0.0209282)
(0.0279765 -0.0029776 0 0.0574659 0 0.0293595)
(0.028894 -0.00292094 0 0.0658697 0 0.0318665)
(0.0304556 -0.00214551 0 0.0680037 0 0.03351)
(0.032165 -0.00322577 0 0.0701961 0 0.0338449)
(0.0321144 -0.00306175 0 0.0662286 0 0.0334001)
(0.0204073 -0.0012848 0 0.0424576 0 0.0210564)
(0.0187402 0.000395153 0 0.0350434 0 0.0187508)
(0.0131512 0.00340016 0 0.0218773 0 0.0134481)
(0.00796507 0.00027447 0 0.0110131 0 0.0073455)
(0.015289 -0.00116803 0 0.0387911 0 0.0147535)
(0.0101483 0.00105273 0 0.0241039 0 0.00946277)
(0.00145234 0.000375136 0 0.000806307 0 0.001291)
(0.00119329 -8.32015e-05 0 0.000564998 0 0.000986492)
(0.00363179 -0.000649456 0 0.00298614 0 0.00279312)
(0.0103219 0.000646384 0 0.0258237 0 0.00885455)
(0.0131374 -0.00062049 0 0.0414216 0 0.0129738)
(0.0146857 -0.00324291 0 0.0390859 0 0.0150371)
(0.017154 -0.00554846 0 0.0462001 0 0.0189129)
(0.0220906 -0.00540247 0 0.0689958 0 0.0249371)
(0.0295615 -0.00243243 0 0.106729 0 0.0327447)
(0.0438514 0.00746754 0 0.156627 0 0.0472206)
(0.0458882 0.0138755 0 0.147118 0 0.0507617)
(0.0419828 0.0178369 0 0.10211 0 0.0454966)
(0.015896 0.00459844 0 0.0280366 0 0.0146316)
(0.00941191 0.00112154 0 0.0221523 0 0.00798586)
(0.010414 0.000372044 0 0.0339182 0 0.0108249)
(0.0103472 -0.000469355 0 0.0343511 0 0.0146137)
(0.0137736 0.00302205 0 0.0529148 0 0.0129084)
(0.0351337 -0.00786413 0 0.0568127 0 0.0299134)
(0.0887556 -0.0349705 0 0.221278 0 0.0881297)
(0.0759583 0.00878677 0 0.272992 0 0.091877)
(0.0733666 0.0202809 0 0.186675 0 0.0825252)
(0.0437455 0.0128147 0 0.0503029 0 0.0401419)
(0.00881841 0.000503604 0 0.00848753 0 0.00782742)
(0.0338648 -0.00985627 0 0.0643507 0 0.0337161)
(0.0381929 -0.00406118 0 0.138072 0 0.0549032)
(0.0461558 0.0100018 0 0.0885519 0 0.0498713)
(0.0110607 -0.000992048 0 0.00741824 0 0.00901629)
(0.00207811 -1.82947e-05 0 0.000624039 0 0.00173079)
(0.00189894 -0.000258727 0 0.000784684 0 0.00162358)
(0.00344228 -0.000728885 0 0.00185859 0 0.00280607)
(0.00716555 -0.000646611 0 1e-15 0 0.00559609)
(0.00969824 -0.000993798 0 0.000529637 0 0.00850956)
(0.0161415 -0.00414759 0 0.0105685 0 0.0175642)
(0.0211862 -0.00776415 0 0.0267935 0 0.0245947)
(0.015109 -0.000307747 0 0.00796203 0 0.0147144)
(0.00563462 -2.32824e-05 0 0.000290959 0 0.00456987)
(0.012753 -0.00278283 0 0.0171285 0 0.0112042)
(0.0240773 -0.00278298 0 0.0540102 0 0.0247974)
(0.0212707 -0.0024573 0 0.0367822 0 0.0237703)
(0.0158849 -0.00236415 0 0.0251716 0 0.0162269)
(0.0165051 0.00101173 0 0.0392066 0 0.0157643)
(0.0174621 0.00443428 0 0.0449997 0 0.0170456)
(0.0155608 0.00503967 0 0.03879 0 0.0156682)
(0.0107959 0.00286115 0 0.0290839 0 0.00978068)
(0.00805243 -0.000417298 0 0.0290584 0 0.00703197)
(0.00667909 -0.000419261 0 0.0310081 0 0.00667622)
(0.00611897 -0.000553278 0 0.029599 0 0.00642679)
(0.00640363 -0.00072841 0 0.0324435 0 0.00675611)
(0.0118123 -0.000436534 0 0.0559024 0 0.0114077)
(0.0161687 0.000839716 0 0.0593231 0 0.0153117)
(0.0163248 -0.00109902 0 0.0462226 0 0.0162964)
(0.0121899 -0.000745802 0 0.0247512 0 0.0122225)
(0.00741888 0.00143728 0 0.00472818 0 0.00695333)
(0.00380813 0.0019366 0 0.000940946 0 0.00382673)
(0.00696983 0.00119977 0 0.00523644 0 0.0069229)
(0.0143179 0.00288861 0 0.0448224 0 0.0145029)
(0.0165551 -0.00120999 0 0.043797 0 0.0166496)
(0.022441 -0.00469071 0 0.0579924 0 0.0239116)
(4.95461e-08 1.27035e-08 0 3.10319e-08 0 4.05231e-08)
(9.83214e-09 1.45292e-09 0 1.02892e-08 0 1.00374e-08)
(5.93678e-09 7.6279e-10 0 6.00127e-09 0 5.95561e-09)
(1.11601e-06 3.23524e-07 0 3.84098e-07 0 7.44638e-07)
(0.000102139 3.29349e-05 0 3.73073e-05 0 7.14876e-05)
(0.000417672 0.000119877 0 0.0001527 0 0.000289454)
(0.000912975 0.000270146 0 0.000329803 0 0.00063425)
(0.00114711 0.000306738 0 0.000592932 0 0.00093858)
(0.00108533 0.000217043 0 0.000585048 0 0.000908647)
(0.000972915 0.000146848 0 0.000508195 0 0.000798916)
(0.000835123 9.44084e-05 0 0.000422745 0 0.000668128)
(0.000726045 6.2422e-05 0 0.000379426 0 0.000579129)
(0.00063017 4.24525e-05 0 0.000338786 0 0.000503178)
(0.00059841 5.67543e-05 0 0.000340541 0 0.000485259)
(0.000653906 7.66454e-05 0 0.00038482 0 0.000542138)
(0.000860214 9.53696e-05 0 0.000518886 0 0.000751314)
(0.00134476 0.000173131 0 0.000798199 0 0.0011929)
(0.00164727 0.000272231 0 0.000895135 0 0.00147031)
(0.00163814 0.0002501 0 0.000764928 0 0.00139715)
(0.00145338 0.000191496 0 0.000732901 0 0.00120451)
(0.00185976 0.000151096 0 0.000999515 0 0.00144266)
(0.00305102 0.000659387 0 0.0078516 0 0.00219295)
(0.00581208 -0.00152299 0 0.0319971 0 0.00530057)
(0.00768388 -0.00317933 0 0.0265868 0 0.00506384)
(0.0102372 0.000996737 0 0.0291871 0 0.00816498)
(0.0168082 0.00439284 0 0.0462088 0 0.0166533)
(0.0153969 0.0017902 0 0.0540057 0 0.0169271)
(0.0225507 -0.00119883 0 0.0978693 0 0.0244032)
(0.0278705 0.0036321 0 0.0837803 0 0.0271835)
(0.0179971 0.00530447 0 0.0299369 0 0.0144327)
(0.0166149 0.00590174 0 0.0248987 0 0.0122382)
(0.0250263 -0.00530072 0 0.110913 0 0.0214257)
(0.0283205 -0.00243087 0 0.0952542 0 0.0255287)
(0.0285155 0.00133378 0 0.102533 0 0.02563)
(0.0488765 -0.00460039 0 0.12647 0 0.0490774)
(0.0653938 -0.0113435 0 0.169079 0 0.0707515)
(0.0657464 -0.0120728 0 0.204477 0 0.0768126)
(0.0687754 -0.00914316 0 0.205116 0 0.0801386)
(0.0826659 -0.0136125 0 0.270829 0 0.0904888)
(0.096852 -0.0110567 0 0.324886 0 0.103858)
(0.0626303 -0.00522117 0 0.229459 0 0.0651211)
(0.0582333 0.0041626 0 0.174828 0 0.0575595)
(0.0405701 0.0149085 0 0.107073 0 0.0414717)
(0.0274062 -0.00279645 0 0.0451874 0 0.0236178)
(0.044366 -0.0108727 0 0.204739 0 0.040313)
(0.023647 0.00151543 0 0.102696 0 0.0193547)
(0.00689391 0.000595392 0 0.000727318 0 0.00522728)
(0.00522678 -0.000460307 0 0.000934202 0 0.00408742)
(0.0153469 -0.0022773 0 0.00595279 0 0.00991327)
(0.0202594 0.00729973 0 0.107251 0 0.0135564)
(0.0221704 -0.000167728 0 0.0870181 0 0.0218951)
(0.0267213 -0.00766614 0 0.0648446 0 0.0269113)
(0.0288874 -0.0122193 0 0.092949 0 0.0345914)
(0.0342057 -0.0128663 0 0.137924 0 0.0414047)
(0.0422391 -0.00901441 0 0.229626 0 0.0489345)
(0.0834014 0.00649923 0 0.595449 0 0.0911901)
(0.0944493 0.0459038 0 0.565034 0 0.110043)
(0.107115 0.063784 0 0.393163 0 0.118083)
(0.0464746 0.0231415 0 0.126426 0 0.0388147)
(0.0184036 0.00563655 0 0.120073 0 0.0130019)
(0.0141754 0.00215709 0 0.0595917 0 0.0153851)
(0.0131006 -0.00036406 0 0.0462531 0 0.021639)
(0.020263 0.00691167 0 0.128034 0 0.0164664)
(0.095669 -0.0670126 0 0.231479 0 0.0657867)
(0.183038 -0.11353 0 0.746507 0 0.180447)
(0.103718 0.0201261 0 0.567611 0 0.13666)
(0.160893 0.0724368 0 0.68913 0 0.191816)
(0.156736 0.070109 0 0.19503 0 0.131583)
(0.0348788 0.00127356 0 0.0144055 0 0.0260993)
(0.0866605 -0.0425455 0 0.187847 0 0.079276)
(0.0653708 -0.0192419 0 0.370644 0 0.107283)
(0.118288 0.0348376 0 0.304802 0 0.130582)
(0.0632822 -0.00811881 0 0.0251083 0 0.0442877)
(0.00924697 0.000876847 0 0.00128025 0 0.00687909)
(0.00568353 -0.000152172 0 1e-15 0 0.00465582)
(0.0107008 -0.00194422 0 1e-15 0 0.00801088)
(0.0392087 -0.000781336 0 1e-15 0 0.0270728)
(0.0544163 -0.00515715 0 1e-15 0 0.0402389)
(0.0829731 -0.0438305 0 0.0655603 0 0.0862012)
(0.105626 -0.0663741 0 0.219392 0 0.12504)
(0.0755808 0.0311484 0 0.0848893 0 0.0807747)
(0.0231839 0.00514655 0 1e-15 0 0.017721)
(0.0413633 -0.0116794 0 0.0677762 0 0.0308333)
(0.0772626 -0.00940568 0 0.303674 0 0.0818175)
(0.0620134 -0.0127524 0 0.149263 0 0.0739729)
(0.0450128 -0.0127278 0 0.0725676 0 0.0434843)
(0.0351978 0.00274047 0 0.0892721 0 0.0301656)
(0.0392327 0.0171435 0 0.122209 0 0.0349478)
(0.0361267 0.0201442 0 0.122832 0 0.0350718)
(0.0246606 0.00943332 0 0.142064 0 0.0198708)
(0.0126549 -0.00545775 0 0.122065 0 0.0087414)
(0.00655647 0.000227325 0 0.0633468 0 0.00648751)
(0.00579495 -0.00172839 0 0.0524684 0 0.0061599)
(0.00678164 -0.00553944 0 0.0720222 0 0.00668457)
(0.0154021 -0.0132365 0 0.215329 0 0.0124214)
(0.026006 -0.0121315 0 0.258187 0 0.0215583)
(0.0357187 -0.00713784 0 0.178893 0 0.0348491)
(0.0345481 -0.00904827 0 0.0902876 0 0.0329958)
(0.0304282 0.00498457 0 0.0102172 0 0.0274809)
(0.0105368 0.00946322 0 1e-15 0 0.0122943)
(0.0273614 0.00283405 0 0.0172426 0 0.025672)
(0.0345065 0.0113896 0 0.196144 0 0.0340838)
(0.0369122 -0.00301616 0 0.155543 0 0.0381624)
(0.0455707 -0.0152657 0 0.149502 0 0.0509137)
(3.48881e-06 1.02896e-06 0 1.3364e-06 0 2.43541e-06)
(1.74213e-07 4.71153e-08 0 8.17671e-08 0 1.28944e-07)
(1.96111e-08 2.10231e-09 0 1.89707e-08 0 1.92924e-08)
(1.86869e-05 5.71819e-06 0 6.19583e-06 0 1.23324e-05)
(0.000232467 7.40773e-05 0 8.10809e-05 0 0.000160487)
(0.000700279 0.000204787 0 0.000242031 0 0.000479147)
(0.00139293 0.000422838 0 0.00048359 0 0.000966525)
(0.00169715 0.000477432 0 0.000813702 0 0.00136693)
(0.0016328 0.000348958 0 0.000805961 0 0.00134183)
(0.00151268 0.000240439 0 0.00072228 0 0.00121624)
(0.00133933 0.000146959 0 0.000618741 0 0.001046)
(0.00117363 9.35423e-05 0 0.000558053 0 0.000910945)
(0.00102057 6.35498e-05 0 0.000498372 0 0.000791854)
(0.000963982 9.19958e-05 0 0.000500165 0 0.000759346)
(0.00104696 0.000126453 0 0.000562534 0 0.000844474)
(0.00135731 0.000162089 0 0.000735865 0 0.00115077)
(0.00205986 0.000298492 0 0.00111925 0 0.00177772)
(0.00246252 0.000431795 0 0.00116836 0 0.00214751)
(0.00253744 0.00040555 0 0.00102991 0 0.00211375)
(0.00232845 0.000308871 0 0.00104217 0 0.00187483)
(0.00306335 0.000313713 0 0.00154303 0 0.00228909)
(0.00463357 0.00100605 0 0.0160821 0 0.00324234)
(0.00807859 -0.00271036 0 0.0534574 0 0.00731993)
(0.0113232 -0.00493144 0 0.0527583 0 0.00725897)
(0.0153947 0.000429565 0 0.0450942 0 0.0119797)
(0.0236705 0.00555917 0 0.0611481 0 0.0233202)
(0.0213285 0.00247614 0 0.0693995 0 0.0231332)
(0.0304247 -0.000891014 0 0.133741 0 0.0328267)
(0.0382907 0.00211167 0 0.134023 0 0.0373196)
(0.0250045 0.00321142 0 0.0642852 0 0.0191587)
(0.0229951 0.00517651 0 0.0403408 0 0.0160019)
(0.0368557 -0.00874378 0 0.146156 0 0.0311975)
(0.0424684 -0.00787543 0 0.097977 0 0.0368246)
(0.0416404 -0.00521037 0 0.11274 0 0.0359323)
(0.074256 -0.0104103 0 0.145262 0 0.0732205)
(0.103473 -0.0261892 0 0.257697 0 0.110147)
(0.112571 -0.0368987 0 0.397873 0 0.128242)
(0.118318 -0.0277112 0 0.403482 0 0.135308)
(0.118313 -0.0218901 0 0.409894 0 0.128654)
(0.128798 -0.017573 0 0.510517 0 0.136849)
(0.0982629 -0.00980621 0 0.507917 0 0.101045)
(0.0969778 0.0173798 0 0.447325 0 0.0964389)
(0.0523833 0.0146436 0 0.192446 0 0.0543499)
(0.0471589 -0.00807027 0 0.142745 0 0.0401855)
(0.0645927 -0.0132913 0 0.401391 0 0.058849)
(0.0329376 -0.00986406 0 0.177303 0 0.0251901)
(0.0120363 -0.00155098 0 0.0282139 0 0.00855789)
(0.0107709 0.000801462 0 1e-15 0 0.00913799)
(0.0217215 -0.00268472 0 0.0355497 0 0.0137323)
(0.0349431 0.00241671 0 0.22413 0 0.0241413)
(0.0374409 -0.00542279 0 0.0739733 0 0.0338479)
(0.0558818 -0.0211513 0 0.0124616 0 0.0489694)
(0.0434749 -0.0125036 0 0.0812271 0 0.0519172)
(0.0505383 -0.00883442 0 0.144193 0 0.0619236)
(0.059226 -0.0110113 0 0.225676 0 0.0673545)
(0.0973461 -0.0225938 0 0.738284 0 0.103313)
(0.117658 0.0162645 0 0.823331 0 0.136398)
(0.13152 0.0565988 0 0.584419 0 0.148305)
(0.0534891 0.0166091 0 0.112066 0 0.0446827)
(0.0254775 -0.000805248 0 0.106508 0 0.0179591)
(0.0208179 0.000846436 0 0.0290667 0 0.0217738)
(0.0168811 0.00489859 0 1e-15 0 0.0254245)
(0.0287142 0.0042707 0 0.0847759 0 0.0232751)
(0.173395 -0.127198 0 0.501628 0 0.121903)
(0.176599 -0.0749906 0 0.851678 0 0.189388)
(0.109833 -0.000992293 0 0.527983 0 0.143879)
(0.17844 0.0167568 0 0.891179 0 0.21693)
(0.220771 0.0923358 0 0.37361 0 0.185219)
(0.0656079 -0.00662377 0 0.0633921 0 0.0470538)
(0.135261 -0.0607803 0 0.260762 0 0.117544)
(0.115028 -0.0691906 0 0.592427 0 0.154038)
(0.143973 0.015691 0 0.300416 0 0.15614)
(0.105051 -0.00919681 0 0.0364665 0 0.0764282)
(0.0164314 0.00196318 0 0.00271243 0 0.0117951)
(0.00675271 0.000876121 0 1e-15 0 0.00568168)
(0.017401 -0.0023084 0 1e-15 0 0.0143489)
(0.0376646 0.00238361 0 0.0202602 0 0.0273032)
(0.0951271 -0.018323 0 0.019699 0 0.0672064)
(0.188635 -0.120302 0 0.368952 0 0.158675)
(0.169621 -0.117487 0 0.687256 0 0.186977)
(0.140358 0.0860647 0 0.316699 0 0.139311)
(0.0354546 0.0187043 0 1e-15 0 0.0255861)
(0.0573051 -0.0104201 0 0.172587 0 0.0419389)
(0.121745 -0.0239492 0 0.684016 0 0.128118)
(0.104923 -0.0375274 0 0.414523 0 0.124901)
(0.0822988 -0.0368199 0 0.147229 0 0.0715617)
(0.0586709 -0.0133044 0 0.0823114 0 0.0413995)
(0.0528833 0.0021847 0 0.0754561 0 0.0421076)
(0.0432678 0.0150497 0 0.0596533 0 0.043385)
(0.0337113 0.0021307 0 0.164978 0 0.0267012)
(0.0204459 -0.0155247 0 0.199196 0 0.0136809)
(0.00931666 0.00112673 0 0.0208177 0 0.00890114)
(0.00740561 0.000771128 0 0.000884835 0 0.00751346)
(0.00908156 -0.00222719 0 0.0257344 0 0.00856998)
(0.0163634 -0.012385 0 0.176056 0 0.0124709)
(0.0306798 -0.022581 0 0.30432 0 0.0235052)
(0.0469358 -0.0180538 0 0.174098 0 0.0425393)
(0.0583388 -0.0344582 0 0.183779 0 0.051166)
(0.0641026 0.00437342 0 0.0768653 0 0.0575692)
(0.0199497 0.0179947 0 1e-15 0 0.0253611)
(0.0419687 0.00172249 0 0.0560705 0 0.0373626)
(0.0455225 0.000819351 0 0.312057 0 0.0440487)
(0.0555218 -0.00245563 0 0.201449 0 0.0579122)
(0.0712907 -0.0166625 0 0.185669 0 0.081772)
(3.5654e-05 1.03941e-05 0 1.3015e-05 0 2.45412e-05)
(2.75427e-06 7.93199e-07 0 1.02051e-06 0 1.90289e-06)
(8.52208e-07 2.43594e-07 0 3.08793e-07 0 5.72505e-07)
(7.03772e-05 2.17636e-05 0 2.31958e-05 0 4.64868e-05)
(0.00037078 0.000117129 0 0.000126545 0 0.000254529)
(0.000949099 0.00027955 0 0.000317815 0 0.000646271)
(0.00178821 0.000548578 0 0.000609312 0 0.00124534)
(0.00213896 0.000624527 0 0.000965722 0 0.0017054)
(0.00207277 0.000478778 0 0.00095907 0 0.00168351)
(0.0019488 0.000345604 0 0.000865767 0 0.00154863)
(0.00175391 0.000220641 0 0.000751436 0 0.00135316)
(0.00154745 0.000146128 0 0.000685559 0 0.00118458)
(0.00135208 0.000104294 0 0.000616893 0 0.00103351)
(0.00128197 0.000140867 0 0.00062212 0 0.000993374)
(0.00139309 0.000186059 0 0.000690704 0 0.00110556)
(0.00179954 0.00023973 0 0.000882099 0 0.0014961)
(0.00268823 0.000436003 0 0.0013459 0 0.00227611)
(0.00315073 0.000585869 0 0.00131341 0 0.00270033)
(0.00331912 0.000567348 0 0.00114615 0 0.0027103)
(0.00308159 0.000436464 0 0.00121287 0 0.00243277)
(0.00411348 0.000540284 0 0.00224969 0 0.00300691)
(0.00567623 0.00156524 0 0.02106 0 0.00384048)
(0.00887981 -0.00335144 0 0.06196 0 0.00800915)
(0.0121829 -0.00821162 0 0.0760077 0 0.00676065)
(0.0173163 0.000323743 0 0.0567881 0 0.0126068)
(0.0281344 0.00831384 0 0.0821952 0 0.0275186)
(0.0240357 0.00555409 0 0.0728184 0 0.0263011)
(0.0334379 7.50098e-05 0 0.128004 0 0.0360668)
(0.0418895 0.00316063 0 0.132046 0 0.0402291)
(0.0273269 0.002211 0 0.0994503 0 0.0195915)
(0.0263881 0.00356827 0 0.0580301 0 0.016499)
(0.0416982 -0.00786487 0 0.121272 0 0.0343667)
(0.0516685 -0.00766098 0 0.088336 0 0.0438111)
(0.0480385 -0.00412957 0 0.0967957 0 0.040725)
(0.0962202 -0.0176332 0 0.191711 0 0.0949207)
(0.146057 -0.0627863 0 0.532134 0 0.150632)
(0.148173 -0.0580926 0 0.847564 0 0.17047)
(0.153364 -0.0480413 0 0.857013 0 0.177667)
(0.130326 -0.020371 0 0.564092 0 0.144728)
(0.128525 -0.0217495 0 0.519336 0 0.133816)
(0.0877192 -0.0149935 0 0.471718 0 0.0868039)
(0.0932895 0.00813039 0 0.533906 0 0.0918617)
(0.0544632 0.0161107 0 0.164189 0 0.0577306)
(0.0563764 -0.0105571 0 0.297311 0 0.0475144)
(0.0655094 -0.011653 0 0.486833 0 0.0591849)
(0.029117 -0.00926094 0 0.144366 0 0.0205176)
(0.0130313 -0.00582266 0 0.0976168 0 0.00847613)
(0.02082 0.00535932 0 1e-15 0 0.0187239)
(0.0201517 -0.00458827 0 0.110183 0 0.0094928)
(0.0232419 -0.00612314 0 0.2303 0 0.0102949)
(0.0463581 -0.0140021 0 0.0764965 0 0.0383148)
(0.125421 -0.0617678 0 0.0628013 0 0.0969733)
(0.0765631 -0.0428044 0 0.228989 0 0.0762866)
(0.0649017 -0.0147314 0 0.296499 0 0.0778937)
(0.0680884 -0.00141577 0 0.244683 0 0.0781995)
(0.0771126 -0.0133708 0 0.616618 0 0.0826091)
(0.0902318 -0.0053143 0 0.781618 0 0.107274)
(0.131788 0.0424814 0 0.71228 0 0.152459)
(0.0575314 0.01336 0 0.0672435 0 0.0489669)
(0.0274655 -0.00187908 0 0.0444029 0 0.018894)
(0.0249951 0.00307724 0 1e-15 0 0.0236677)
(0.0446414 0.0170784 0 0.00651614 0 0.0503542)
(0.0490495 0.0154819 0 0.000723427 0 0.0373962)
(0.102134 -0.0842728 0 0.481141 0 0.0668052)
(0.138536 -0.0377372 0 0.738411 0 0.159167)
(0.12784 -0.00448509 0 0.463079 0 0.16119)
(0.125999 -0.000166202 0 0.592863 0 0.16163)
(0.188004 0.0289653 0 0.49242 0 0.157538)
(0.0793306 -0.0208089 0 0.196456 0 0.0511877)
(0.189804 -0.0935303 0 0.307333 0 0.147552)
(0.127462 -0.109363 0 0.981695 0 0.154555)
(0.187172 0.0411365 0 0.20125 0 0.189102)
(0.139227 0.00139501 0 0.0040501 0 0.103442)
(0.0275831 0.00321318 0 0.00337045 0 0.0195347)
(0.0057067 0.000616763 0 1e-15 0 0.00545471)
(0.0476953 -0.0132999 0 0.0397312 0 0.0442561)
(0.041205 0.010481 0 0.0325332 0 0.0298327)
(0.12388 -0.0346251 0 0.0554534 0 0.0864263)
(0.255221 -0.17931 0 0.56831 0 0.19313)
(0.138318 -0.108924 0 0.887487 0 0.157526)
(0.159498 0.106553 0 0.449531 0 0.153727)
(0.0650214 0.0430929 0 0.0381593 0 0.0429316)
(0.0576613 -0.0115351 0 0.29347 0 0.0384617)
(0.129576 -0.0438064 0 1.00106 0 0.135144)
(0.104915 -0.0712025 0 0.826998 0 0.130001)
(0.130121 -0.0914447 0 0.466578 0 0.0985369)
(0.0843768 -0.0353551 0 0.239148 0 0.045956)
(0.103404 0.0472052 0 0.229571 0 0.0745467)
(0.144411 0.15105 0 0.167833 0 0.135177)
(0.044205 0.0119766 0 0.065763 0 0.0340839)
(0.0137835 -0.0179002 0 0.140036 0 0.00599436)
(0.0124265 0.00020036 0 1e-15 0 0.0111919)
(0.0164457 0.00555481 0 1e-15 0 0.0162811)
(0.0124007 0.00272477 0 1e-15 0 0.0111578)
(0.0148615 -0.000239483 0 0.0880735 0 0.0117901)
(0.0211693 -0.0125805 0 0.184487 0 0.0146995)
(0.0686209 -0.0390145 0 0.10116 0 0.0558768)
(0.0809413 -0.0754789 0 0.512501 0 0.0629065)
(0.102131 0.00708006 0 0.352468 0 0.0921525)
(0.0782484 0.0244255 0 0.0298112 0 0.0708566)
(0.0516897 0.00445529 0 0.0794893 0 0.0445308)
(0.0438454 0.000932992 0 0.337953 0 0.0414401)
(0.0694997 -0.0123198 0 0.254821 0 0.0722595)
(0.0942495 -0.0394442 0 0.27685 0 0.105885)
(0.000108457 3.12195e-05 0 3.8568e-05 0 7.40993e-05)
(1.79092e-05 5.07556e-06 0 6.16187e-06 0 1.2092e-05)
(1.84052e-05 5.36088e-06 0 6.09997e-06 0 1.21172e-05)
(0.00014856 4.59581e-05 0 4.88619e-05 0 9.83278e-05)
(0.000517658 0.000162441 0 0.000174348 0 0.000354193)
(0.00118883 0.000351405 0 0.000391091 0 0.000807747)
(0.00214358 0.000660322 0 0.000726392 0 0.00149983)
(0.00251722 0.000747161 0 0.00109668 0 0.00199407)
(0.00244748 0.000592931 0 0.00108512 0 0.00197201)
(0.002323 0.000444484 0 0.000991949 0 0.00183185)
(0.00211344 0.000295726 0 0.000874333 0 0.00161882)
(0.00187616 0.000200177 0 0.000800653 0 0.00142396)
(0.00165045 0.000143472 0 0.000721245 0 0.00124863)
(0.00157429 0.000185146 0 0.00072836 0 0.00120526)
(0.00171871 0.00024188 0 0.000807781 0 0.00134778)
(0.00222687 0.000319989 0 0.00101951 0 0.00182352)
(0.00330752 0.00058727 0 0.0015879 0 0.00275818)
(0.0038357 0.000744627 0 0.00141302 0 0.00322952)
(0.00408631 0.000736011 0 0.0012523 0 0.00328042)
(0.00380859 0.000569464 0 0.00138003 0 0.00295524)
(0.00506218 0.000782792 0 0.00424525 0 0.00365161)
(0.00693079 0.00232337 0 0.0248301 0 0.00470945)
(0.0103416 -0.00331952 0 0.0615683 0 0.00939685)
(0.0137042 -0.0096833 0 0.100679 0 0.00756586)
(0.0201539 -0.000221271 0 0.0727977 0 0.0143179)
(0.0321828 0.00887855 0 0.0998901 0 0.0313269)
(0.0274855 0.00673931 0 0.0776193 0 0.0300695)
(0.0382521 0.00222417 0 0.128601 0 0.0410791)
(0.0482022 0.0058396 0 0.12188 0 0.045998)
(0.032065 -0.00037992 0 0.128793 0 0.0226753)
(0.0300239 -0.00423269 0 0.0966221 0 0.0163755)
(0.0525308 -0.0122637 0 0.112244 0 0.0421846)
(0.0644489 -0.0131109 0 0.101424 0 0.05291)
(0.0588761 -0.00813778 0 0.106079 0 0.0485409)
(0.122943 -0.0332668 0 0.354718 0 0.120566)
(0.170846 -0.0823952 0 0.894465 0 0.175882)
(0.148741 -0.0601227 0 0.995411 0 0.173918)
(0.176659 -0.0719617 0 1.24768 0 0.204352)
(0.180823 -0.063281 0 1.07045 0 0.195852)
(0.166316 -0.0122389 0 0.800846 0 0.171243)
(0.104872 -0.00664941 0 0.429699 0 0.100802)
(0.0986247 -0.00242833 0 0.467556 0 0.095097)
(0.0581148 0.0123139 0 0.104017 0 0.0624712)
(0.0656689 -0.00698477 0 0.413048 0 0.0552557)
(0.0689387 -0.0168918 0 0.437812 0 0.0607569)
(0.0327472 -0.0114193 0 0.0694229 0 0.0226064)
(0.0146319 -0.00534678 0 0.0902225 0 0.00979649)
(0.0303569 0.0172249 0 0.0148915 0 0.0307786)
(0.0254206 -0.00362363 0 0.0847145 0 0.013353)
(0.031935 -0.0120684 0 0.16751 0 0.0164243)
(0.0650511 -0.0237048 0 0.0736385 0 0.0510297)
(0.15891 -0.097716 0 0.342889 0 0.120722)
(0.0837632 -0.0607768 0 0.525796 0 0.080727)
(0.059032 -0.0215927 0 0.3992 0 0.0717593)
(0.076933 -0.00353153 0 0.384026 0 0.0883304)
(0.077536 -0.00487297 0 0.469621 0 0.0824548)
(0.0762264 -0.0180551 0 0.576992 0 0.0898104)
(0.111038 0.00670322 0 0.612373 0 0.131111)
(0.0670504 0.00108991 0 0.103528 0 0.0559794)
(0.0309834 0.00260344 0 1e-15 0 0.0216055)
(0.0271777 0.00254509 0 1e-15 0 0.0219287)
(0.0876635 0.0175413 0 0.552613 0 0.0921936)
(0.118011 0.0466169 0 1e-15 0 0.0855027)
(0.0698799 -0.0219353 0 0.25653 0 0.0504496)
(0.12621 -0.0351464 0 0.630043 0 0.147765)
(0.13258 0.00812568 0 0.406998 0 0.165647)
(0.136942 -0.0038517 0 0.373219 0 0.171304)
(0.174554 -0.0469992 0 0.659044 0 0.143428)
(0.08699 -0.0350704 0 0.42849 0 0.0508816)
(0.266466 -0.13606 0 0.43885 0 0.191454)
(0.118701 -0.105148 0 1.49299 0 0.136855)
(0.34084 0.150568 0 0.237156 0 0.30198)
(0.155747 0.0203808 0 1e-15 0 0.118418)
(0.0453131 0.0063083 0 1e-15 0 0.0315848)
(0.0232942 -0.00973351 0 0.00967772 0 0.0181197)
(0.0877007 -0.0417468 0 0.318011 0 0.0883676)
(0.0267813 0.0124258 0 0.0011002 0 0.0214485)
(0.157878 -0.0421011 0 0.0359817 0 0.107124)
(0.293465 -0.194759 0 0.669285 0 0.21511)
(0.0900973 -0.0667355 0 0.706715 0 0.109709)
(0.261391 0.199232 0 0.826137 0 0.233555)
(0.141717 0.0998044 0 0.235194 0 0.0935229)
(0.0855156 -0.00813612 0 0.544476 0 0.0640165)
(0.138505 -0.0532902 0 1.14066 0 0.142663)
(0.124444 -0.0904561 0 1.14755 0 0.151565)
(0.202441 -0.16102 0 1.30906 0 0.148298)
(0.109163 -0.0270325 0 1.04197 0 0.0554935)
(0.306207 0.266697 0 1.35859 0 0.219902)
(0.793358 0.590206 0 1.15854 0 0.605636)
(0.0842713 0.0336555 0 0.00365489 0 0.0648173)
(0.0160019 -0.0136314 0 0.0902781 0 0.009856)
(0.0161555 0.00121365 0 1e-15 0 0.0154627)
(0.0257841 0.00656984 0 1e-15 0 0.0257755)
(0.019742 0.00321889 0 1e-15 0 0.0177413)
(0.0146005 0.00149645 0 0.0101454 0 0.0117362)
(0.0302884 -0.0134279 0 0.0793093 0 0.021839)
(0.12409 -0.0890547 0 0.188339 0 0.0913195)
(0.0927182 -0.101214 0 1.09743 0 0.0676518)
(0.137599 0.00886556 0 0.805981 0 0.125043)
(0.125402 0.0237096 0 0.140041 0 0.1073)
(0.0628762 0.0079292 0 0.0789584 0 0.051889)
(0.0478913 -0.00107715 0 0.306125 0 0.044305)
(0.108171 -0.0486957 0 0.528504 0 0.110241)
(0.179368 -0.145904 0 0.789187 0 0.177074)
(0.000200008 5.71656e-05 0 7.00193e-05 0 0.000136111)
(6.61939e-05 1.85995e-05 0 2.18453e-05 0 4.40967e-05)
(7.81358e-05 2.27872e-05 0 2.54507e-05 0 5.13717e-05)
(0.000247291 7.64707e-05 0 8.10727e-05 0 0.000163974)
(0.000676343 0.000211115 0 0.000225247 0 0.000461762)
(0.00143051 0.000423396 0 0.000463668 0 0.000970986)
(0.00247929 0.000763593 0 0.000835626 0 0.00174268)
(0.00285669 0.000852096 0 0.00120239 0 0.00225177)
(0.00278024 0.000692337 0 0.00118365 0 0.00222585)
(0.00265268 0.000534694 0 0.0010845 0 0.00207914)
(0.00243181 0.000371382 0 0.000964804 0 0.00185275)
(0.00217092 0.000259376 0 0.000890895 0 0.00163794)
(0.00192436 0.000187795 0 0.000806362 0 0.00144498)
(0.00185065 0.000234004 0 0.000818553 0 0.00140388)
(0.00203349 0.000302609 0 0.000903083 0 0.00157963)
(0.00265332 0.000410583 0 0.00113485 0 0.00214532)
(0.00395244 0.000763786 0 0.00182565 0 0.00325001)
(0.00459168 0.000929571 0 0.00145432 0 0.00379185)
(0.0049001 0.000928525 0 0.00130323 0 0.00386966)
(0.00454998 0.000749947 0 0.00148549 0 0.00347385)
(0.00591515 0.00101561 0 0.0065007 0 0.00422555)
(0.00786763 0.00284364 0 0.0264203 0 0.00530142)
(0.0111631 -0.00266148 0 0.0556371 0 0.0102185)
(0.0133078 -0.0105782 0 0.106177 0 0.00662116)
(0.0208785 -0.000856592 0 0.0770127 0 0.0139942)
(0.0346958 0.00946227 0 0.0969856 0 0.0335461)
(0.0296759 0.00790762 0 0.0734823 0 0.0325921)
(0.0414525 0.00322535 0 0.136835 0 0.044234)
(0.0518257 0.00883965 0 0.113204 0 0.0487774)
(0.0325592 0.000528253 0 0.137948 0 0.0222007)
(0.0312985 -0.0188506 0 0.208217 0 0.0133807)
(0.063655 -0.0262597 0 0.191798 0 0.048498)
(0.079755 -0.0283212 0 0.177363 0 0.0620857)
(0.0667846 -0.0116964 0 0.143872 0 0.0531841)
(0.137404 -0.0443385 0 0.51291 0 0.133895)
(0.165613 -0.0616471 0 0.888635 0 0.175175)
(0.1513 -0.0613595 0 0.894646 0 0.175859)
(0.167971 -0.0871348 0 1.18668 0 0.193988)
(0.196477 -0.150497 0 1.66875 0 0.203437)
(0.175793 -0.0344936 0 1.47294 0 0.176041)
(0.104254 0.0115061 0 0.435271 0 0.0961123)
(0.102362 0.00654567 0 0.370061 0 0.0988837)
(0.0680826 0.0247 0 0.0581807 0 0.0752029)
(0.0659363 0.00256819 0 0.378674 0 0.0539873)
(0.0737963 -0.0240718 0 0.335625 0 0.063587)
(0.0327648 -0.0238769 0 0.00977225 0 0.0203717)
(0.0175123 -0.00160502 0 0.0294224 0 0.0126019)
(0.0729437 0.0562249 0 0.229831 0 0.067858)
(0.0323766 0.00344095 0 0.0375064 0 0.0197502)
(0.0351093 -0.011675 0 0.0968488 0 0.0180838)
(0.0952275 -0.0325641 0 0.0509944 0 0.0715707)
(0.149168 -0.0885217 0 0.503418 0 0.115759)
(0.0642412 -0.034011 0 0.443865 0 0.065151)
(0.0586517 -0.0240776 0 0.320083 0 0.068902)
(0.0710344 -0.0085513 0 0.460945 0 0.0820488)
(0.0717932 0.00487354 0 0.314199 0 0.0766868)
(0.0762235 -0.0126929 0 0.357302 0 0.0880092)
(0.100509 -0.0161065 0 0.340145 0 0.117527)
(0.076991 -0.0422081 0 0.244378 0 0.0570318)
(0.0317645 0.00595932 0 1e-15 0 0.0221046)
(0.0137495 -0.00914228 0 0.315779 0 0.00482543)
(0.058255 -0.0214337 0 1.01726 0 0.0568199)
(0.183992 0.0947332 0 0.15372 0 0.141725)
(0.0878598 -0.00565833 0 0.145904 0 0.0722885)
(0.146254 -0.03582 0 0.817952 0 0.168484)
(0.125803 0.0278156 0 0.333845 0 0.156965)
(0.134306 -0.00140272 0 0.165732 0 0.166701)
(0.121369 -0.0316332 0 0.338647 0 0.0914749)
(0.0713104 -0.0276211 0 0.213645 0 0.0334866)
(0.304965 -0.153362 0 0.462683 0 0.206384)
(0.0305896 -0.0734262 0 1.39854 0 0.0380539)
(0.510811 0.222892 0 0.813724 0 0.431552)
(0.149164 0.0517534 0 1e-15 0 0.119722)
(0.0646291 0.0123102 0 1e-15 0 0.0448903)
(0.059748 -0.0529209 0 0.180286 0 0.0422159)
(0.110796 -0.0781661 0 0.682758 0 0.114041)
(0.0408937 0.0424871 0 0.0274862 0 0.0351639)
(0.195164 -0.0496285 0 0.0649254 0 0.128797)
(0.262222 -0.147059 0 0.652605 0 0.193282)
(0.077464 -0.0405737 0 0.539576 0 0.0875074)
(0.248447 0.179861 0 1.27466 0 0.218723)
(0.229162 0.178303 0 0.482193 0 0.151892)
(0.0818928 -0.00482864 0 0.76657 0 0.0602143)
(0.128869 -0.0512672 0 1.02637 0 0.131211)
(0.0818174 -0.0790052 0 0.965207 0 0.107696)
(0.200084 -0.160473 0 1.66282 0 0.137354)
(0.117498 -0.0550326 0 2.17065 0 0.0419275)
(0.354965 0.285353 0 2.31752 0 0.23893)
(0.905831 0.652002 0 1.81114 0 0.697876)
(0.104155 0.0492682 0 1e-15 0 0.0850362)
(0.0131173 -0.00523456 0 0.0412424 0 0.00916055)
(0.0234179 0.00553338 0 1e-15 0 0.0244941)
(0.0376388 0.011823 0 0.00143574 0 0.037648)
(0.0333269 -0.000958708 0 0.0193821 0 0.0300905)
(0.0222407 0.0071943 0 1e-15 0 0.0186513)
(0.0328139 -0.00564936 0 0.000804464 0 0.0246157)
(0.171593 -0.139639 0 0.522882 0 0.12044)