/*--------------------------------*- C++ -*----------------------------------*\
| =========                 |                                                 |
| \\      /  F ield         | OpenFOAM: The Open Source CFD Toolbox           |
|  \\    /   O peration     | Version:  v1912                                 |
|   \\  /    A nd           | Website:  www.openfoam.com                      |
|    \\/     M anipulation  |                                                 |
\*---------------------------------------------------------------------------*/
FoamFile
{
    version     2.0;
    format      ascii;
    class       volScalarField;
    location    "30";
    object      p_rgh;
}
// * * * * * * * * * * * * * * * * * * * * * * * * * * * * * * * * * * * * * //

dimensions      [1 -1 -2 0 0 0 0];


internalField   nonuniform List<scalar> 
114144
(
503433
853277
1.20639e+06
1.5247e+06
1.78366e+06
1.96773e+06
2.06998e+06
2.09521e+06
2.05287e+06
1.9044e+06
1.7126e+06
1.47888e+06
1.21591e+06
936593
652261
372602
105505
-140796
-361741
-552745
-710940
-834994
-925208
-983558
-1.01366e+06
-1.02095e+06
-1.01924e+06
-972820
-936294
-892037
-842864
-788147
-725966
-653369
-567068
-464287
-343655
-205973
-54645.4
104404
263146
412472
543424
648437
722317
763070
772436
767866
738311
663021
600660
535868
475474
420625
371229
325517
280824
234263
183368
126666
64070.8
-2939.57
-71523.4
-137972
-198313
-248950
-287240
-311877
-322968
-323210
-318764
-307244
-289297
-266447
-233596
-212393
-191823
-173801
-156948
-140730
-124619
-108423
-92271.4
-76579.1
-61925.2
-48891.4
-37896.7
-29071.6
-22209.5
-16808.1
-12148.9
-7384.57
-1627.31
5976.34
16015.9
28790.4
43752.3
60537
78202.7
95649.3
111721
125326
135562
141742
143613
140820
134028
123442
109773
93715.2
76042.8
57507.9
38825.6
20631.1
3507.74
-12079.8
-25688.6
-37056.8
-45971.9
-52339.6
-56176
-57626.6
-56916.4
-55160.6
-51915
-47396.8
-42309.9
-36491.2
-30978.5
-26208.3
-22123.6
-18646.3
-15707.9
-13102.5
-10659.6
-8199.68
-5607.88
-2835.89
75.6175
3018.36
5807.74
8265.08
10184.1
11414.7
11902.2
11515
10681.2
9170.54
7248.17
5211.91
2935.11
1194.9
-333.461
-1285.29
-1901
-1962.8
-1600.07
-1015.15
-213.397
672.292
1570.54
2377.61
3060.14
3515.4
3803.75
3766.84
3510.13
2962.7
2188.99
1179.64
-0.202407
-1319.89
-2714.02
-4121.26
-5474.53
-6706.18
-7746.39
-8542.93
-9041.91
-9199.49
-9038.13
-8537.34
-7725.89
-6659.45
-5366.35
-3890.01
-2271.11
-580.614
1134.19
2925.89
4630.58
6243.65
7730.25
9055.78
10193.8
11122.7
11826.8
12291.1
12505.4
12459.8
12174.5
11641
10865.1
9861.57
8648.64
7251.06
5703.67
4048.8
2333.93
553.346
-1150.28
-2764.03
-4238.38
-5536.37
-6633.56
-7511.25
-8163.65
-8592.92
-8807.82
-8839.02
-8702.08
-8419.91
-8013.8
-7502.64
-6902.48
-6226.49
-5484.86
-4685.28
-3834.08
-2937.04
-2000.44
-1031.78
-40.3532
1003.26
2020.81
3026.54
4006.99
4945.42
5825.39
6631.59
7351.13
7973.18
8488
8888.14
9169.13
9329.18
9367.4
9294.41
9113.8
8833.75
469321
745525
1.02304e+06
1.27365e+06
1.47795e+06
1.62348e+06
1.70467e+06
1.72534e+06
1.69254e+06
1.57167e+06
1.4162e+06
1.22643e+06
1.01227e+06
784242
551534
322069
102366
-100976
-283846
-442597
-574991
-680041
-758049
-810600
-840538
-851993
-852458
-818592
-789559
-752646
-709918
-661028
-604817
-539501
-463153
-374270
-272378
-158526
-35574.5
91941.1
217949
335800
439022
522239
581849
616671
628280
627032
610068
553468
506745
456658
408324
362565
319525
278263
237270
194888
149722
101000
48833.2
-5652.2
-60458.6
-113003
-160564
-200676
-231536
-252285
-263155
-265716
-264633
-259324
-247975
-231134
-204011
-186839
-169378
-153666
-138697
-124260
-110075
-96064.9
-82328.1
-69124.5
-56801.2
-45694.7
-36032.5
-27860.7
-21010.7
-15108.6
-9645.1
-4050.92
2259.71
9814.46
19027.4
30123.6
42828.1
56672.6
70953.8
84869.4
97559.1
108198
116099
120722
121882
119224
113349
104355
92816.4
79281.6
64380.1
48732.9
32939.4
17537.6
3020.62
-10175.8
-21729.4
-31392.7
-38996.5
-44471.7
-47839.8
-49248
-48839.9
-47631
-45231.6
-41680.3
-37596.1
-32699.5
-28035.4
-23890.8
-20246.2
-17028.5
-14212
-11647.3
-9227.42
-6831.62
-4389.55
-1876.35
668.28
3160.05
5456.18
7430.27
8928.74
9846.73
10158.1
9755.67
9033.14
7763.88
6170.61
4485.41
2623.72
1201.6
-24.3586
-765.243
-1248.77
-1259.88
-903.866
-384.072
316.921
1079.99
1846.26
2522.41
3079.35
3428.66
3624.05
3512.98
3200.39
2616.13
1823.34
812.746
-355.42
-1650.49
-3010.52
-4377.24
-5686.43
-6873.49
-7870.6
-8628.81
-9094.87
-9218.38
-9041.36
-8525.35
-7705.54
-6635.71
-5342.7
-3868.96
-2253.73
-566.856
1145.53
2936.6
4642.34
6258.02
7748.28
9077.95
10220.2
11153
11860
12326.5
12541.8
12497.3
12210.9
11675.5
10896.7
9889.46
8671.82
7268.58
5714.7
4052.7
2330.28
542.95
-1167.71
-2787.35
-4266.29
-5567.45
-6666.3
-7544.21
-8195.53
-8622.78
-8835
-8863.27
-8723.36
-8438.34
-8029.69
-7516.38
-6914.5
-6237.18
-5494.55
-4694.17
-3842.27
-2944.49
-2007.03
-1037.39
-45.1974
1001.15
2020.04
3027.91
4010.76
4951.65
5834.04
6642.51
7364.07
7987.81
8503.94
8904.94
9186.34
9346.31
9384.22
9309.82
9126.97
8838.48
427881
641734
854600
1.0474e+06
1.20558e+06
1.31938e+06
1.38414e+06
1.40205e+06
1.37796e+06
1.28367e+06
1.16088e+06
1.00947e+06
837125
652802
463821
276634
97178.4
-71443.4
-223141
-355667
-467247
-557069
-625314
-673143
-702639
-716677
-719943
-697708
-676726
-647635
-611885
-569374
-519489
-461218
-393455
-315388
-226930
-129093
-24217.2
84032.3
190940
291162
379530
451700
504699
537493
551435
552646
542619
496743
458355
416046
374095
333277
293899
255420
216836
176995
134912
90055.1
42566.9
-6612.76
-55806.5
-102904
-145625
-181891
-210159
-229673
-240601
-244319
-243678
-240077
-230959
-216127
-191848
-176113
-159980
-145287
-131206
-117594
-104241
-91095.7
-78247.9
-65919.2
-54400.4
-43969.7
-34808.6
-26939.3
-20203.4
-14283.5
-8749.18
-3103.73
3174.2
10582.2
19487
30134.6
42034.8
54941.1
68202
81081.8
92797.1
102595
109845
114045
115028
112431
106847
98339.2
87445.5
74671.3
60604.6
45827.4
30904.3
16341.5
2615.17
-9896.6
-20829.9
-29986.5
-37199.7
-42406.4
-45628
-47001.9
-46662
-45512.3
-43301.3
-39978.1
-36138.4
-31473.7
-27054.7
-23082.2
-19576.8
-16456.8
-13707.8
-11191.6
-8812.88
-6461.57
-4074.96
-1632.17
827.46
3223.45
5420.29
7299.41
8715.85
9572.23
9843.17
9432.53
8713.35
7473.19
5928.79
4288.41
2505.56
1149.11
-31.18
-730.986
-1175.8
-1166.01
-802.182
-277.63
419.189
1173.49
1927.61
2589.03
3132.61
3466.15
3648.88
3526.01
3201.64
2606.6
1802.6
781.389
-397.9
-1704.51
-3076.3
-4454.19
-5773.61
-6968.58
-7970.36
-8729.66
-9192.72
-9326.04
-9130.78
-8603.18
-7777.23
-6698.13
-5395.03
-3911.12
-2285.65
-588.64
1134.26
2936.68
4653.63
6280.61
7781.78
9121.53
10272.8
11213.4
11926.5
12396.9
12614.1
12567.6
12279.8
11740.5
10955.6
9940.37
8712.95
7298.25
5731.45
4055.51
2318.46
518.15
-1205.94
-2836.68
-4324.16
-5631.05
-6732.73
-7610.68
-8259.63
-8682.66
-8889.58
-8911.86
-8765.95
-8475.23
-8061.47
-7543.83
-6938.5
-6258.53
-5513.9
-4711.96
-3858.68
-2959.46
-2020.25
-1048.61
-54.9354
996.86
2018.4
3030.59
4018.25
4964.1
5851.34
6664.35
7389.95
8017.08
8535.81
8938.54
9220.72
9380.49
9416.9
9340.4
9154.23
8861.88
382729
540906
695972
836334
952031
1.03592e+06
1.08428e+06
1.09801e+06
1.0801e+06
1.00972e+06
916661
802494
672265
530632
383118
234892
90605.1
-46256.1
-171080
-281547
-376058
-453771
-514608
-559236
-588989
-605654
-611509
-598028
-581849
-557959
-527203
-489606
-444910
-392644
-332322
-263694
-187032
-103388
-14751.6
75989.1
165071
248408
322052
382713
428151
457603
472041
474751
469369
434541
404030
369448
334008
298402
263030
227714
191959
155153
116780
76614.9
34881
-7645.3
-49683.9
-89638.9
-125817
-156673
-181066
-198450
-208992
-213672
-214174
-212521
-206532
-194561
-174116
-160449
-146156
-132867
-119996
-107526
-95356.2
-83485
-71990.1
-61024.2
-50775.4
-41412.5
-33030.9
-25614.7
-19024.5
-13011.7
-7252.73
-1381.7
4983.02
12197.5
20546.9
30174.1
40826.6
52068.5
63432.6
74330.7
84138.3
92247.9
98150.3
101429
101967
99384.4
94283.9
86657.7
76975.2
65662.3
53226.4
40172.8
26996.1
14140.4
2026.32
-9002.45
-18632.8
-26697.9
-33055.6
-37661.4
-40541.3
-41830.6
-41650.9
-40675.4
-38929.4
-36155
-32905.8
-28772.5
-24918.5
-21341.7
-18137.2
-15212.5
-12579.3
-10130.9
-7806.46
-5529.6
-3262.95
-999.733
1220.39
3329.74
5216.02
6791.03
7940.62
8594.2
8743.93
8312.85
7641.58
6537.67
5191.93
3753.77
2248.21
1090.19
119.996
-434.752
-775.6
-721.486
-349.354
147.208
788.372
1469.79
2141.36
2718.2
3176.07
3439.24
3555.35
3378.24
3009.5
2382.35
1558.92
525.687
-653.825
-1953.19
-3311.75
-4672.5
-5972.23
-7146.86
-8129.83
-8871.43
-9319.72
-9418.94
-9222.4
-8679.69
-7844.14
-6755.49
-5444.02
-3952.17
-2318.31
-612.055
1121.93
2938.23
4670.28
6313.51
7831.14
9186.53
10351.9
11304.3
12026.6
12503.2
12723.5
12678
12386.6
11840.9
11046.6
10019.1
8776.69
7344.39
5757.73
4060.35
2300.95
480.542
-1263.83
-2911.3
-4411.56
-5727.02
-6832.89
-7710.88
-8356.18
-8772.63
-8971.42
-8984.74
-8829.76
-8530.42
-8108.97
-7584.85
-6974.35
-6290.44
-5542.83
-4738.58
-3883.28
-2981.92
-2040.11
-1065.33
-69.4743
990.138
2015.64
3034.51
4029.46
4982.77
5877.34
6697.2
7428.9
8061.15
8583.81
8989.14
9272.52
9432.08
9467.02
9387.09
9196.07
8896.47
338575
452341
563572
665574
751479
815735
854891
868214
857762
807651
738314
651082
549641
437893
320142
200564
83023
-30249.3
-133974
-226662
-306963
-374091
-427846
-468589
-497149
-514589
-521977
-514667
-502273
-482624
-456152
-422952
-383004
-336213
-282520
-222052
-155305
-83311.7
-7760.15
69094.9
144168
214332
276545
328278
367803
394495
408991
412970
410213
384198
359646
331024
300717
269377
237457
205025
171927
137910
102759
66435.9
29198.8
-8301.73
-45073.2
-79856.1
-111352
-138364
-160007
-175854
-186028
-191253
-192601
-191607
-187641
-177598
-160291
-148120
-135268
-123103
-111230
-99696.9
-88467.9
-77566.5
-67062
-57068.6
-47717.6
-39119.2
-31323
-24292.5
-17902.2
-11954.3
-6198.64
-346.513
5910.05
12867.6
20779.7
29870.1
39598.4
49764.4
59940.3
69621.7
78274
85373.8
90480.9
93226.5
93525
90964.6
86183.9
79114.6
70190.5
59788.3
48366.9
36384.2
24291.9
12492.3
1380.02
-8755.49
-17578.9
-24974.1
-30804.7
-35035.9
-37694.6
-38903.9
-38797.3
-37857.1
-36320.9
-33826
-30871.5
-27044.7
-23512.4
-20167.7
-17153.9
-14369
-11836.6
-9464.12
-7204.55
-4995.41
-2809.36
-645.267
1457.16
3434.49
5183.46
6625.5
7658.44
8221.35
8308.36
7857.65
7183.29
6113.38
4827.79
3450.32
2054.01
979.229
90.357
-402.209
-680.119
-592.442
-201.125
307.108
946.744
1619.02
2275.69
2833.02
3274.48
3511.93
3607.26
3409.93
3020.21
2373.18
1527.71
475.085
-728.399
-2051.32
-3433.62
-4816.47
-6135.19
-7324.41
-8316.66
-9062.12
-9506.57
-9620.21
-9393.72
-8836.04
-7987.25
-6880.57
-5550.16
-4038.91
-2385.18
-658.963
1096
2935.31
4690.33
6356.77
7896.97
9273.32
10457.6
11425.8
12160.3
12645.1
12869.2
12822.7
12528
11974.3
11167.8
10124.1
8861.74
7406
5792.82
4066.74
2277.41
429.557
-1342.01
-3011.95
-4529.36
-5856.27
-6967.66
-7845.56
-8485.85
-8892.94
-9080.98
-9082.13
-8914.92
-8603.95
-8172.16
-7639.34
-7021.93
-6332.79
-5581.3
-4774.06
-3916.14
-3012.01
-2066.75
-1087.5
-88.1523
979.936
2011.38
3039.51
4044.28
5007.61
5912
6741.05
7480.94
8120.05
8647.99
9056.81
9341.8
9501.04
9533.75
9449.67
9252.32
8945.12
300543
384995
466942
542423
606766
655786
686515
697601
690311
653363
600263
532315
452267
363160
268357
171214
74906.6
-19472.6
-105940
-183863
-252142
-310074
-357398
-394264
-421154
-438664
-447363
-443919
-434448
-418162
-395255
-365863
-330129
-288226
-240405
-187065
-128859
-66793.6
-2310.77
62864.8
126123
185126
237555
281507
315675
339563
353554
358524
357148
338478
318872
295302
269460
241942
213222
183551
153046
121750
89697.8
57008.3
23968
-8877.59
-40778
-70763.6
-97880.5
-121246
-140206
-154454
-164084
-169603
-171752
-171260
-168905
-160659
-146371
-135643
-124189
-113125
-102237
-91634.1
-81343.4
-71412.5
-61902.3
-52889.6
-44450.4
-36636.3
-29450.4
-22834.5
-16675.2
-10821.1
-5093.37
716.788
6837.12
13487.1
20885.3
29364.3
38189.4
47208.8
56104.9
64459.5
71837.9
77809.1
82010.6
84129.8
84125.2
81534
77069.5
70583.7
62478.2
53077.3
42787.3
32014.1
21160.5
10581.8
638.406
-8441.34
-16295
-22875.8
-28055.8
-31814.3
-34182.1
-35273.6
-35225.9
-34356.5
-33050.1
-30899
-28323.6
-24847.6
-21732.1
-18678.1
-15900.7
-13285.8
-10871.3
-8584.52
-6398
-4269.79
-2187.86
-160.188
1772.71
3553.82
5093.44
6329.79
7180.45
7599.61
7592.4
7111.35
6444.57
5443.97
4282.08
3004.39
1802.11
868.369
121.287
-272.028
-440.933
-318.026
95.6759
602.943
1219.46
1854.44
2463.94
2969.44
3326.22
3544.43
3593.13
3355.14
2928.63
2251.57
1382.74
311.66
-906.091
-2239.25
-3629.08
-5017.74
-6341.9
-7535.51
-8529.68
-9275.03
-9719.85
-9804.29
-9579.4
-9005.64
-8142.49
-7018.78
-5670.44
-4140.14
-2465.77
-717.625
1061.66
2929.11
4712.98
6409.04
7978.29
9381.62
10589.9
11578.1
12328.2
12823.4
13052.5
13005.2
12705.7
12141.6
11319.7
10255.7
8968.46
7483.29
5836.72
4074.48
2247.48
364.445
-1441.32
-3139.57
-4678.52
-6019.73
-7137.87
-8015.52
-8649.45
-9043.59
-9218.21
-9204
-9021.26
-8695.58
-8250.74
-7707.02
-7081.01
-6385.4
-5629.13
-4818.27
-3957.23
-3049.77
-2100.25
-1114.95
-102.886
957.813
2005.15
3045.5
4062.67
5038.63
5955.4
6796.06
7546.28
8194.05
8728.64
9141.86
9428.87
9587.76
9617.76
9528.49
9323.7
9007.35
268091
331781
393025
449410
497771
535009
558666
567266
561268
533228
491801
438091
374159
302388
225424
145967
66599.1
-12516.8
-84758.8
-150341
-208391
-258296
-299773
-332846
-357771
-374869
-384783
-383360
-376269
-362741
-342880
-316839
-284878
-247361
-204761
-157669
-106839
-53235
1913.2
57331.8
110735
160421
204643
241986
271477
292723
305939
311654
311093
298148
282579
263195
241161
217002
191188
164099
136061
107340
78159.7
48752.7
19417.6
-9392.38
-37117
-63018.7
-86413.4
-106663
-123299
-136101
-145139
-150756
-153436
-153531
-152119
-145349
-133697
-124231
-114017
-103948
-93961.9
-84214
-74777.7
-65718.2
-57088.6
-48937
-41298.2
-34180.8
-27554.1
-21343.6
-15446.2
-9749.11
-4130.83
1555.02
7476.59
13799
20844.6
28664.1
36744.2
44813.7
52666.8
59950.5
66306.9
71377.1
74859.2
76484.1
76249.5
73624.8
69423.5
63411.8
55971.6
47385
38016.8
28230.6
18389.5
8808.34
-177.525
-8394.14
-15451
-21362.5
-26004.1
-29365.8
-31480.2
-32451.6
-32415.1
-31598.8
-30411.6
-28510.7
-26203.6
-22990.6
-20201.7
-17386.9
-14805.6
-12343.6
-10044.3
-7848.37
-5739.74
-3689.45
-1694.87
230.233
2044.56
3693.71
5096.24
6196.72
6926.48
7246.84
7166.39
6652.1
5967.29
4988.27
3866.09
2659.65
1555.5
701.516
50.7186
-274.349
-360.79
-197.784
247.932
776.436
1399.57
2031.78
2631.26
3124.24
3532.18
3657.01
3677.94
3415.1
2961.67
2257.25
1358.8
258.17
-994.242
-2362.08
-3786.78
-5208.51
-6562.1
-7780.33
-8793.01
-9549.26
-9995
-10089.4
-9835.11
-9243.52
-8359.23
-7209.89
-5834.4
-4275.85
-2572.11
-794.079
1017.04
2919.98
4739.44
6471.56
8076.04
9511.93
10749.2
11761.7
12530.5
13038.3
13273.2
13225.3
12920
12343.4
11502.9
10414.5
9097.15
7576.47
5889.5
4083.38
2210.68
284.278
-1562.94
-3295.54
-4860.52
-6218.89
-7344.9
-8222
-8847.95
-9225
-9383.65
-9350.65
-9148.91
-8805.28
-8344.57
-7787.68
-7151.34
-6448.05
-5686.21
-4871.2
-4006.63
-3095.37
-2140.95
-1148.7
-125.986
935.502
1997.5
3052.35
4084.5
5075.75
6007.54
6862.27
7625.02
8283.29
8825.94
9244.49
9533.95
9692.41
9719.24
9623.8
9410.26
9083.24
240346
288735
334848
377172
413544
441675
459576
465851
460078
438145
405248
362226
310631
252332
189422
124073
58360.9
-8268.28
-68633
-123808
-173097
-215975
-252165
-281619
-304457
-320852
-331873
-331286
-326088
-314837
-297588
-274500
-245910
-212319
-174360
-132760
-88332.9
-41992.2
5214.88
52410.4
97506.9
139324
176567
208208
233541
252268
264494
270488
270945
262074
249818
233930
215183
194004
170842
146167
120463
94176.3
67679.5
41288.3
15304.2
-9901.01
-33921
-56209.2
-76300.6
-93759.9
-108270
-119687
-128065
-133630
-136689
-137421
-136458
-131025
-121683
-113372
-104284
-95135.6
-85992
-77047.3
-68414.5
-60172.3
-52366.9
-45021.6
-38136.4
-31683.5
-25602.4
-19803.1
-14190.9
-8685.96
-3218.58
2300.69
7983.7
13936.1
20619.8
27731.5
35222.7
42403.1
49288
55571.3
60969.6
65190.2
67987.5
69134.4
68671.8
65980.6
62010.1
56426.9
49601.7
41778.7
33284.9
24444.6
15583.2
6975.7
-1065.26
-8439.03
-14688.2
-19919.9
-24007
-26951.7
-28789.1
-29616.9
-29564.8
-28798.3
-27695.9
-26034.8
-23954.8
-21070.2
-18576.6
-16010
-13630.3
-11328.7
-9150.55
-7050.85
-5024.93
-3057.59
-1156.46
658.081
2343.4
3847.54
5097.93
6045.07
6637.94
6843.94
6679.01
6121.95
5415.68
4461.96
3388.34
2268.8
1279.7
535.008
-13.5002
-248.789
-246.152
-34.4711
447.758
996.073
1620.21
2240.82
2818.38
3282.89
3617.77
3746.91
3736.11
3441.3
2955.26
2220.35
1293.68
166.068
-1115.27
-2511.32
-3965.77
-5417.4
-6799.79
-8043.29
-9075.81
-9846.64
-10300.2
-10378.1
-10119.1
-9509.52
-8603.59
-7428.42
-6024.67
-4435.74
-2699.39
-887.378
960.772
2905.78
4767.62
6542.79
8189.35
9664.06
10935.8
11977.1
12767.9
13290.4
13532.4
13483.4
13171.2
12580
11717.7
10600.7
9248.15
7685.77
5951.21
4093.23
2166.45
188.034
-1708.19
-3481.36
-5076.95
-6455.31
-7590.19
-8466.2
-9082.36
-9437.38
-9577.55
-9522.15
-9297.72
-8932.76
-8453.27
-7880.93
-7232.58
-6520.44
-5752.3
-4932.73
-4064.33
-3148.93
-2189.09
-1189.29
-156.445
911.385
1988.42
3059.95
4109.67
5118.95
6068.48
6939.84
7717.4
8388.08
8940.25
9365.06
9657.39
9815.36
9838.54
9735.9
9512.3
9173.05
216462
253283
288063
319837
347110
368187
381478
385745
379525
361874
335310
300424
258391
210679
158950
104955
50367.7
-5959.25
-56304.8
-102647
-144399
-181114
-212537
-238586
-259311
-274803
-286538
-286606
-282664
-273276
-258276
-237797
-212220
-182142
-148311
-111549
-72700
-32620.3
7800.64
48049.5
86118.9
121271
152562
179272
200907
217258
228374
234357
235865
229790
220233
207268
191365
172837
152094
129662
106153
82154.1
58153
34524.5
11564
-10428.2
-31176.4
-50282
-67458.8
-82435.7
-95019.3
-105131
-112816
-118215
-121505
-122741
-122251
-117828
-110440
-103170
-95091.3
-86786
-78419.8
-70221.5
-62335.3
-54850.3
-47805.2
-41203.3
-35016.1
-29186.5
-23629.8
-18241.4
-12933.2
-7653.81
-2378.26
2937.39
8352.66
13995.2
20275.6
26854.2
33692.1
40081
46106.7
51514.8
56075.6
59553.4
61750.7
62477.4
61817.2
59046.3
55274.1
50059.6
43769.8
36616.6
28894.7
20893.9
12906.3
5170.47
-2019.44
-8628.37
-14145.8
-18757.3
-22333.9
-24887.9
-26457.1
-27133.6
-27039.3
-26312.3
-25246.1
-23778.1
-21862.8
-19296.7
-17043.9
-14705
-12511
-10364.5
-8307.62
-6306.98
-4365.56
-2478.83
-662.393
1057.94
2637.9
4025.7
5156.41
5978.36
6459.26
6567.32
6322.93
5717.13
4973.99
4016.62
2963.07
1898.33
987.489
324.45
-138.783
-299.185
-212.083
53.6351
579.975
1162.04
1804.57
2432.9
3009
3464.22
3804.64
3895.04
3860.45
3539.67
3023.19
2254.96
1290.62
130.325
-1198.83
-2640.92
-4142.93
-5641.3
-7067.93
-8350.52
-9414.11
-10206.3
-10668.5
-10748
-10466.6
-9834.32
-8899.54
-7691.04
-6251.71
-4625.37
-2849.81
-997.703
893.796
2887.7
4798.52
6623.43
8318.81
9838.44
11150.1
12224.6
13041
13580.4
13830.4
13780.2
13460.1
12852
11964.7
10814.9
9421.87
7811.51
6021.92
4103.75
2114.04
74.4285
-1878.75
-3699.01
-5329.94
-6731.12
-7875.68
-8749.77
-9354.31
-9680.96
-9800.63
-9718.85
-9467.73
-9077.84
-8576.55
-7986.37
-7324.33
-6602.22
-5827.18
-5002.76
-4130.39
-3210.67
-2245.03
-1237.15
-193.756
884.169
1977.61
3068.05
4138.02
5168.16
6138.24
7028.9
7823.65
8508.72
9071.89
9503.96
9799.58
9956.97
9976.04
9865.14
9630.1
9276.91
195726
223659
249802
273549
293850
309449
319088
321706
314557
299994
278193
249566
215014
175698
132941
88150.8
42727.6
-5019.01
-46849.8
-85661.4
-120907
-152207
-179340
-202217
-220857
-235321
-247539
-248044
-244957
-237093
-224039
-205872
-182990
-156057
-125903
-93410.8
-59435.1
-24772.5
9823.55
44196
76298.3
105787
131984
154409
172746
186866
196803
202562
205071
200800
193412
182893
169461
153302
134766
114418
92966.2
71113.1
49433.4
28342.6
8122.32
-10988.2
-28830.5
-45112.2
-59695.7
-72443.1
-83263.6
-92134.4
-99099.9
-104246
-107653
-109285
-109254
-105634
-99857
-93530.2
-86354.4
-78820.3
-71171.6
-63667.5
-56477.7
-49698.2
-43361.3
-37452.5
-31920.2
-26683
-21634.8
-16656.3
-11670.3
-6644.2
-1590.3
3493.16
8615.39
13983.7
19821.6
25843.2
32129.3
37813.1
43059.7
47678.5
51483
54287.9
55937.6
56276.6
55432.7
52563.2
48957.4
44062
38246.6
31695.8
24676.2
17446.9
10269.7
3349.49
-3036.34
-8920.13
-13739.8
-17751.8
-20828.9
-22992.9
-24285.3
-24794.6
-24634.4
-23931.3
-22878.4
-21571
-19795.9
-17536.1
-15503.7
-13388
-11375.9
-9385.29
-7452.33
-5553.84
-3699.35
-1894.18
-161.409
1467.57
2946.38
4222.39
5238.04
5936.3
6305.73
6313.3
5984.61
5321.18
4533.23
3567.11
2514.52
1507.16
670.524
114.853
-285.41
-361.488
-186.031
142.267
717.57
1337.47
2000.24
2636.61
3209.73
3653.84
3963.27
4045.18
3985.18
3637.88
3090.05
2289
1287.58
95.4091
-1281.25
-2770.32
-4323.34
-5873.55
-7350.35
-8677.95
-9778.44
-10598.2
-11074.5
-11148.8
-10854.9
-10199.8
-9234.51
-7990.18
-6511.85
-4843.98
-3024.44
-1127.3
813.584
2863.57
4830.48
6712.54
8464.03
10035.2
11392.4
12505
13350.4
13909.1
14168.2
14116.5
13787.3
13160.1
12244.4
11057.5
9618.75
7953.99
6101.72
4114.61
2052.58
-58.0205
-2076.55
-3950.71
-5621.88
-7048.62
-8203.54
-9074.48
-9659.17
-9961.47
-10053.8
-9940.91
-9658.79
-9240.15
-8713.92
-8103.52
-7426.08
-6692.95
-5910.53
-5081.16
-4204.84
-3280.78
-2309.09
-1292.67
-237.89
852.931
1964.66
3076.37
4169.35
5223.29
6216.88
7129.62
7944.05
8645.57
9221.33
9661.64
9960.96
10117.6
10132.2
10011.9
9763.96
9395.05
177574
198603
218089
235666
250588
261921
268688
270009
261572
249305
231115
207334
178676
146070
110563
73268.6
35372.4
-4986.15
-39578.1
-71953
-101567
-128103
-151380
-171321
-187939
-201296
-213848
-214606
-212103
-205491
-194127
-178017
-157552
-133439
-106565
-77849.6
-48143.1
-18180.8
11396.6
40807.4
67819.3
92492.1
114319
133016
148407
160440
169168
174581
177877
174693
169022
160552
149274
135235
118721
100309
80784.2
60942.1
41422.5
22664.9
4933.11
-11586.9
-26845.9
-40615
-52883.8
-63622.4
-72824.4
-80516.1
-86749
-91573.6
-95002.4
-96940.5
-97224.9
-94520.3
-89904.7
-84424.6
-78052.8
-71222.9
-64234.9
-57375.5
-50834.6
-44712.7
-39035.2
-33772.9
-28855.5
-24181.6
-19626.2
-15057
-10403.1
-5656.22
-849.355
3977.46
8785.48
13878
19287.7
24818.5
30580.9
35621.7
40162.9
44081.1
47211.5
49414.3
50570.5
50556.7
49542.7
46569.3
43096.2
38472.4
33070.9
27054.2
20664.7
14133.7
7696.12
1524.36
-4109.43
-9275.74
-13484.7
-16931.1
-19532.1
-21317.1
-22332.3
-22664.1
-22418.3
-21710.8
-20678
-19480.4
-17823.6
-15841.9
-14007.6
-12102.1
-10264.8
-8428.69
-6620.62
-4826.1
-3058.91
-1332.72
322.8
1871.06
3263.08
4443.83
5364.13
5948.98
6219.5
6132.3
5717.72
4988.13
4144.12
3148.98
2077.78
1106.11
322.135
-222.682
-482.149
-472.814
-210.351
191.14
821.369
1489.64
2184.21
2840.63
3422.76
3864.54
4170.36
4237.91
4156.37
3783.91
3204.04
2367.26
1321.2
87.3834
-1347.6
-2895.42
-4512.21
-6127.12
-7666.98
-9051.4
-10198.4
-11052.1
-11544.5
-11614.2
-11303
-10619.4
-9617.01
-8330.69
-6807.34
-5092.09
-3222.96
-1275.81
720.568
2833.67
4863.41
6809.82
8624.89
10254.3
11663.2
12818.8
13696.8
14277
14546.1
14492.8
14153.5
13504.7
12557.4
11329.1
9839.34
8113.65
6190.74
4125.44
1981
-211.105
-2303.93
-4239.23
-5955.73
-7410.75
-8576.51
-9443.49
-9996.78
-10280.6
-10337.5
-10188.6
-9870.86
-9419.37
-8864.92
-8231.78
-7537.22
-6792.1
-6002.02
-5167.79
-4287.77
-3359.5
-2381.66
-1356.33
-289.171
816.926
1949.06
3084.54
4203.4
5284.23
6304.42
7242.17
8078.87
8799.02
9388.99
9838.57
10142
10297.7
10307.6
10176.6
9914.17
9527.67
161566
177182
191511
204320
215072
223071
227579
227933
217966
207445
191994
171974
147980
120766
91161.8
60014.6
27997.3
-5462.87
-33969.8
-60841.9
-85571.6
-107911
-127726
-144959
-159634
-171833
-184628
-185476
-183373
-177796
-167911
-153639
-135349
-113773
-89832.8
-64467.9
-38510
-12634.3
12606.1
37828
60516.5
81076.6
99154.4
114601
127357
137446
144958
150098
153578
151083
146761
140009
130612
118482
103824
87216
69500.4
51546.7
34040.4
17431.5
1963.34
-12224.3
-25186.6
-36713.5
-46909.8
-55831.7
-63542.6
-70112.4
-75605.5
-80055
-83429.5
-85608.5
-86216
-84204.1
-80522.6
-75800.9
-70148
-63961.3
-57582.6
-51322.8
-45387.4
-39879.1
-34816.5
-30158
-25818.2
-21679.5
-17597.3
-13429.3
-9126.48
-4681.63
-147.708
4402.53
8879.86
13691
18684.7
23737.7
28977.7
33489.5
37411.2
40696.6
43224.7
44885.6
45593.2
45253.2
44075.2
41001.5
37623
33225.1
28181.4
22637.6
16814.4
10919
5160.98
-317.45
-5239.74
-9730.83
-13361.7
-16264
-18403.2
-19813.5
-20546.9
-20688.8
-20339
-19603.7
-18587.9
-17472.1
-15898.3
-14176.9
-12527.2
-10820.4
-9157.26
-7474.86
-5793.88
-4105.75
-2427.48
-779.301
802.832
2277.14
3591.4
4686.85
5520
6004.11
6176.89
5996.16
5491.71
4686.59
3776.03
2732
1637.04
684.841
-53.4582
-525.357
-711.964
-612.673
-265.095
230.584
915.699
1639.28
2371.03
3052.02
3646.32
4089
4390.7
4446.3
4343.61
3948.9
3334.9
2466.6
1375.11
96.0271
-1400.86
-3013.46
-4702.05
-6390.82
-8003.08
-9453.27
-10655.1
-11549.7
-12063.2
-12131.4
-11802.9
-11089.3
-10046
-8711.98
-7138.37
-5370.98
-3447.16
-1445.38
612.336
2796.51
4896.22
6915.12
8801.7
10496.7
11963.3
13166.9
14081.4
14685.7
14966.3
14911.3
14559.8
13886.9
12904.5
11630.5
10084.3
8290.96
6289.14
4135.83
1898.07
-386.88
-2563.57
-4567.61
-6334.83
-7820.84
-8997.44
-9859.81
-10372.3
-10634.6
-10652.4
-10462
-10103.7
-9614.98
-9028.82
-8370.42
-7656.99
-6899.09
-6101.22
-5262.42
-4379.19
-3447.07
-2463.12
-1428.65
-348.061
775.429
1930.19
3092.1
4239.91
5350.88
6400.95
7366.81
8228.57
8969.62
9575.52
10035.5
10343.3
10497.8
10502.8
10359.8
10081.1
9675.03
147343
158706
169025
178148
185660
191045
193759
193420
181853
172648
159245
142130
121831
98973.3
74215.4
48190.8
21419.2
-6095.93
-29642.8
-51809.3
-72293.6
-90932.2
-107638
-122381
-135203
-146206
-159184
-159983
-158152
-153436
-144855
-132236
-115915
-96631.1
-75326.2
-52942.7
-30283.3
-7963.91
13524.7
35212.1
54242.7
71292
86148.6
98760.8
109159
117433
123730
128717
131673
129645
126373
121052
113299
102894
89951.8
75032.4
59022.9
42848.8
27223.6
12596.4
-811.54
-12895.5
-23821.3
-33342.4
-41678.7
-48952.9
-55286.1
-60787.5
-65539
-69570.4
-72826.5
-75202.6
-76122.2
-74589.6
-71662.3
-67617.7
-62609.7
-57011.3
-51195.3
-45494.1
-40124.3
-35189
-30699.8
-26605.4
-22808.5
-19177.2
-15552
-11777
-7823.95
-3715.52
522.109
4779.08
8930.32
13437.9
18031.6
22645.3
27480.3
31431.9
34806.1
37520.1
39508.8
40681.9
40980.2
40333.7
38917.2
35912.5
32510.5
28293.4
23554.6
18426.4
13110.6
7792.03
2658.57
-2168.43
-6439.66
-10296.9
-13366.1
-15744.7
-17435.9
-18476.6
-18925
-18866.4
-18396.4
-17612.2
-16607.4
-15508.4
-14079.4
-12550.5
-11073
-9556.96
-8063.54
-6535.88
-4984.06
-3404.31
-1814.15
-240.997
1273.92
2683.7
3931.96
4955.39
5710.14
6111.77
6187.53
5914.91
5315.55
4424.61
3434.6
2319.85
1192.71
240.06
-464.673
-881.758
-984.745
-792.532
-353.107
240.373
990.178
1779.04
2557.03
3271.41
3885.68
4335.11
4641.29
4690.89
4565.89
4151.61
3503.75
2594.19
1456.7
123.757
-1443.12
-3130.51
-4902.23
-6677.16
-8374.72
-9902.76
-11169.4
-12111.7
-12648.2
-12712.5
-12363.8
-11614.3
-10522.7
-9135.18
-7504.96
-5679.94
-3697.78
-1635.4
488.87
2750.32
4928.01
7027.12
8993.5
10761.3
12292.7
13550
14504.5
15135
15427.5
15368.4
15005.6
14306.5
13285.8
11961.8
10353.7
8486.19
6397.02
4145.33
1802.36
-587.834
-2858.77
-4939.8
-6763.52
-8283.2
-9469.69
-10314.4
-10797.3
-11026.4
-10999.2
-10761.6
-10357.1
-9826.62
-9205.01
-8518.62
-7784.59
-7013.24
-6207.71
-5364.92
-4479.23
-3543.91
-2554.05
-1510.41
-415.274
727.654
1907.39
3098.52
4278.47
5423.01
6506.38
7503.65
8393.38
9157.71
9781.33
10252.8
10565.4
10717.9
10718.4
10561.8
10265
9837.25
134583
142628
149855
156144
161149
164478
165735
164705
152062
143589
131649
116749
99367.7
80039.8
59290.8
37560.1
15057.5
-6977.61
-26342.3
-44459.5
-61241.8
-76611.9
-90528.7
-102987
-114046
-123823
-136929
-137562
-135908
-131913
-124491
-113374
-98853.3
-81657.7
-62735.9
-43018
-23267.7
-4038.64
14232.3
32926.6
48852.1
62930
75036.2
85185.8
93476.7
100056
105121
109818
112013
110143
107634
103478
97152.4
88311.8
76971.9
63656
49276.7
34797.2
20939.3
8141.35
-3396.05
-13602.2
-22709.5
-30448.4
-37119.2
-42900.8
-47961.9
-52446.2
-56456.5
-60030.9
-63107.5
-65656.6
-66830.4
-65576.4
-63261.9
-59822.7
-55400.9
-50346.3
-45056.5
-39880.9
-35042.6
-30642.2
-26685.4
-23113.3
-19819.9
-16659.5
-13462
-10015.3
-6481
-2744.66
1168.21
5113.56
8964.72
13125.8
17324.5
21491.3
25533.3
29414.6
32334.2
34532.4
36049.4
36787.7
36715.3
35787
34175.7
31154.5
27730.5
23653.9
19168.6
14400.5
9535.64
4738.38
180.3
-4035.85
-7708.76
-10960.9
-13489.9
-15363.4
-16618.7
-17293.8
-17453.6
-17184.1
-16578.2
-15724.3
-14715.4
-13628.4
-12312
-10949
-9633.07
-8298.61
-6973.04
-5602.48
-4182.89
-2715.03
-1216.24
282.739
1735.09
3088.82
4282.2
5246.59
5936.04
6264.63
6247.24
5886.03
5187.8
4200.9
3118.23
1912.51
738.66
-231.815
-913.508
-1272.58
-1300.28
-1009.39
-469.862
226.99
1051.03
1913.99
2745.5
3499.65
4138.56
4604.54
4911.64
4962.43
4812.2
4378.74
3706.15
2749.44
1566.02
175.156
-1466.9
-3238.27
-5104.07
-6977.49
-8772.65
-10390.1
-11732.1
-12729.5
-13294.1
-13355.8
-12987
-12197.9
-11052.5
-9605.25
-7912.22
-6022.1
-3975.77
-1848.36
348.306
2693.24
4957.33
7145.71
9200.62
11050.2
12652.8
13969.3
14968.1
15627.5
15934.2
15874.7
15495.6
14767
13703.8
12325.1
10649.8
8701.13
6515.51
4154.01
1692.37
-816.887
-3193.13
-5359.91
-7246.1
-8802.2
-9998.47
-10806.7
-11274.3
-11457.2
-11378.6
-11087.2
-10630.8
-10053.4
-9392.38
-8675.19
-7919.01
-7133.77
-6320.89
-5474.91
-4587.8
-3650.24
-2654.84
-1602.12
-491.724
672.832
1879.91
3103.23
4318.77
5500.55
6620.92
7653.1
8573.91
9364.07
10007.3
10491.5
10809.4
10958.7
10956.4
10783.5
10466.6
10015
126838
133035
138644
143454
147134
149358
149807
148317
135274
126988
115729
101964
86147.5
68772.5
50305.3
31092.1
11175.1
-7765.28
-24647.9
-40369.1
-54941.9
-68343.8
-80561.1
-91602.7
-101537
-110480
-123644
-124121
-122554
-118980
-112263
-102071
-88655.4
-72738.2
-55267.3
-37160.1
-19150.5
-1748.29
14647
31626.1
45733.8
58076.3
68570.2
77250.2
84250.7
89749.6
93972.6
98336.5
99933.6
98103.1
95951.1
92438.6
86958.1
79081.2
68748.6
56451.9
43113.5
29714.4
16971.5
5313.67
-5070.64
-14128.8
-22121.5
-28769.9
-34409