/*--------------------------------*- C++ -*----------------------------------*\
| =========                 |                                                 |
| \\      /  F ield         | OpenFOAM: The Open Source CFD Toolbox           |
|  \\    /   O peration     | Version:  v1912                                 |
|   \\  /    A nd           | Website:  www.openfoam.com                      |
|    \\/     M anipulation  |                                                 |
\*---------------------------------------------------------------------------*/
FoamFile
{
    version     2.0;
    format      ascii;
    class       volScalarField;
    location    "40";
    object      alpha.water;
}
// * * * * * * * * * * * * * * * * * * * * * * * * * * * * * * * * * * * * * //

dimensions      [0 0 0 0 0 0 0];


internalField   nonuniform List<scalar> 
14268
(
1
1
1
1
1
1
1
1
1
1
1
1
1
1
1
1
1
1
1
1
1
1
1
1
1
1
1
1
1
1
1
1
1
1
1
1
1
1
1
1
1
1
1
1
1
1
1
1
1
1
1
1
1
1
1
1
1
1
1
1
1
1
1
1
1
1
1
1
1
1
1
1
1
1
1
1
1
1
1
1
1
1
1
1
1
1
1
1
1
1
1
1
1
1
1
1
1
1
1
1
1
1
1
1
1
1
1
1
1
1
1
1
1
1
1
1
1
1
1
1
1
1
1
1
1
1
1
1
1
1
1
1
1
1
1
1
1
1
1
1
1
1
1
1
1
1
1
1
1
1
1
1
1
1
1
1
1
1
1
1
1
1
1
1
1
1
1
1
1
1
1
1
1
1
1
1
1
1
1
1
1
1
1
1
1
1
1
1
1
1
1
1
1
1
1
1
1
1
1
1
1
1
1
1
1
1
1
1
1
1
1
1
1
1
1
1
1
1
1
1
1
1
1
1
1
1
1
1
1
1
1
1
1
1
1
1
1
1
1
1
1
1
1
1
1
1
1
1
1
1
1
1
1
1
1
1
1
1
1
1
1
1
1
1
1
1
1
1
1
1
1
1
1
1
1
1
1
1
1
1
1
1
1
1
1
1
1
1
1
1
1
1
1
1
1
1
1
1
1
1
1
1
1
1
1
1
1
1
1
1
1
1
1
1
1
1
1
1
1
1
1
1
1
1
1
1
1
1
1
1
1
1
1
1
1
1
1
1
1
1
1
1
1
1
1
1
1
1
1
1
1
1
1
1
1
1
1
1
1
1
1
1
1
1
1
1
1
1
1
1
1
1
1
1
1
1
1
1
1
1
1
1
1
1
1
1
1
1
1
1
1
1
1
1
1
1
1
1
1
1
1
1
1
1
1
1
1
1
1
1
1
1
1
1
1
1
1
1
1
1
1
1
1
1
1
1
1
1
1
1
1
1
1
1
1
1
1
1
1
1
1
1
1
1
1
1
1
1
1
1
1
1
1
1
1
1
1
1
1
1
1
1
1
1
1
1
1
1
1
1
1
1
1
1
1
1
1
1
1
1
1
1
1
1
1
1
1
1
1
1
1
1
1
1
1
1
1
1
1
1
1
1
1
1
1
1
1
1
1
1
1
1
1
1
1
1
1
1
1
1
1
1
1
1
1
1
1
1
1
1
1
1
1
1
1
1
1
1
1
1
1
1
1
1
1
1
1
1
1
1
1
1
1
1
1
1
1
1
1
1
1
1
1
1
1
1
1
1
1
1
1
1
1
1
1
1
1
1
1
1
1
1
1
1
1
1
1
1
1
1
1
1
1
1
1
1
1
1
1
1
1
1
1
1
1
1
1
1
1
1
1
1
1
1
1
1
1
1
1
1
1
1
1
1
1
1
1
1
1
1
1
1
1
1
1
1
1
1
1
1
1
1
1
1
1
1
1
1
1
1
1
1
1
1
1
1
1
1
1
1
1
1
1
1
1
1
1
1
1
1
1
1
1
1
1
1
1
1
1
1
1
1
1
1
1
1
1
1
1
1
1
1
1
1
1
1
1
1
1
1
1
1
1
1
1
1
1
1
1
1
1
1
1
1
1
1
1
1
1
1
1
1
1
1
1
1
1
1
1
1
1
1
1
1
1
1
1
1
1
1
1
1
1
1
1
1
1
1
1
1
1
1
1
1
1
1
1
1
1
1
1
1
1
1
1
1
1
1
1
1
1
1
1
1
1
1
1
1
1
1
1
1
1
1
1
1
1
1
1
1
1
1
1
1
1
1
1
1
1
1
1
1
1
1
1
1
1
1
1
1
1
1
1
1
1
1
1
1
1
1
1
1
1
1
1
1
1
1
1
1
1
1
1
1
1
1
1
1
1
1
1
1
1
1
1
1
1
1
1
1
1
1
1
1
1
1
1
1
1
1
1
1
1
1
1
1
1
1
1
1
1
1
1
1
1
1
1
1
1
1
1
1
1
1
1
1
1
1
1
1
1
1
1
1
1
1
1
1
1
1
1
1
1
1
1
1
1
1
1
1
1
1
1
1
1
1
1
1
1
1
1
1
1
1
1
1
1
1
1
1
1
1
1
1
1
1
1
1
1
1
1
1
1
1
1
1
1
1
1
1
1
1
1
1
1
1
1
1
1
1
1
1
1
1
1
1
1
1
1
1
1
1
1
1
1
1
1
1
1
1
1
1
1
1
1
1
1
1
1
1
1
1
1
1
1
1
1
1
1
1
1
1
1
1
1
1
1
1
1
1
1
1
1
1
1
1
1
1
1
1
1
1
1
1
1
1
1
1
1
1
1
1
1
1
1
1
1
1
1
1
1
1
1
1
1
1
1
0.999794
0.998634
0.998528
0.998564
0.998543
0.998635
0.998789
0.99885
0.998454
0.92925
0.918989
0.905064
0.890211
0.877601
0.869665
0.867791
0.870385
0.873593
0.875551
0.874405
0.870602
0.866822
0.865297
0.867497
0.873287
0.881022
0.886945
0.888385
0.884358
0.877106
0.870903
0.871391
0.880102
0.892434
0.902637
0.907539
0.907391
0.90461
0.901539
0.899685
0.900888
0.904559
0.909265
0.908232
0.905773
0.904519
0.905301
0.909925
0.904258
0.889602
0.88265
0.888526
0.890748
0.424956
0.396111
0.358568
0.320759
0.291029
0.274362
0.271264
0.276979
0.285346
0.288969
0.285016
0.275529
0.266253
0.262394
0.26689
0.278665
0.292012
0.30148
0.302667
0.293254
0.277859
0.26543
0.264164
0.277041
0.29909
0.320503
0.332153
0.332794
0.328634
0.32571
0.326612
0.33371
0.346124
0.35764
0.356735
0.342536
0.337127
0.354242
0.377393
0.379762
0.347804
0.31781
0.308143
0.298817
0.0355003
0.0288989
0.0219337
0.0165017
0.0131954
0.0117735
0.0116949
0.0123584
0.0130977
0.0134691
0.0131875
0.0125054
0.011849
0.0115626
0.0119175
0.0128976
0.0142666
0.0153511
0.0153086
0.0140039
0.0122362
0.0109662
0.0106841
0.0116332
0.0139311
0.0168464
0.0186648
0.0187259
0.0179976
0.0173095
0.0168153
0.0168308
0.0176837
0.0180976
0.0164599
0.0147759
0.0134461
0.0156804
0.0193444
0.018452
0.0138906
0.0128915
0.00960084
0.0111336
2.03096e-12
1.68976e-12
1.2822e-12
8.77557e-13
6.41582e-13
5.41876e-13
5.39061e-13
5.88153e-13
6.16603e-13
6.31181e-13
6.26624e-13
5.95529e-13
5.45011e-13
5.07651e-13
5.06821e-13
5.49676e-13
6.36189e-13
7.05847e-13
6.98064e-13
6.15488e-13
5.14373e-13
4.45131e-13
4.46282e-13
5.34209e-13
6.85108e-13
8.43104e-13
9.25558e-13
9.04857e-13
8.19885e-13
7.02886e-13
5.61061e-13
4.10093e-13
3.05797e-13
2.93184e-13
3.22981e-13
3.6224e-13
3.17871e-13
2.98051e-13
2.94359e-13
2.21322e-13
1.66275e-13
3.04852e-13
1.45628e-13
1.02811e-14
-1.40696e-53
-3.66371e-55
-8.87443e-57
-2.0776e-58
-4.41457e-60
-7.31544e-62
-9.1783e-64
-5.02277e-66
-1.03421e-67
-2.45302e-69
-5.11583e-71
-7.42433e-73
-6.16085e-75
-2.14711e-77
-4.49544e-80
-1.58844e-83
-5.47111e-88
2.10595e-90
-6.11783e-90
-1.26494e-91
-9.65115e-94
-1.71612e-96
-1.23954e-99
-1.89909e-102
-1.61245e-104
-3.91287e-108
-2.69554e-109
-1.47279e-114
-1.45024e-110
-7.5413e-112
-2.18215e-113
-4.57693e-115
-8.90033e-117
-1.09759e-118
-4.19555e-120
-1.54511e-121
-3.51163e-123
-6.65008e-125
-1.295e-127
2.1571e-98
-1.91412e-118
-1.63326e-97
-1.28515e-97
-3.71113e-100
-3.22304e-52
-8.08562e-54
-1.82053e-55
-3.77445e-57
-7.33391e-59
-1.33113e-60
-2.30618e-62
-4.00984e-64
-7.08538e-66
-1.20877e-67
-1.83087e-69
-2.21204e-71
-1.94205e-73
-1.18316e-75
-5.35099e-78
-2.29122e-80
-1.0868e-82
-5.91783e-85
-3.58229e-87
-2.25404e-89
-1.32494e-91
-6.70931e-94
-3.45087e-96
-2.25388e-98
-2.06028e-100
-2.47391e-102
-3.51792e-104
-5.36446e-106
-8.58073e-108
-1.43082e-109
-2.4124e-111
-4.09552e-113
-7.31331e-115
-1.40928e-116
-2.8458e-118
-5.67581e-120
-1.07982e-121
-2.18448e-123
-5.40803e-125
-1.63707e-126
-1.43517e-98
-6.04116e-98
-4.05533e-98
-1.67498e-98
-1.32508e-51
-3.38103e-53
-7.90815e-55
-1.73026e-56
-3.4866e-58
-6.38465e-60
-1.10874e-61
-1.93632e-63
-3.32926e-65
-5.31992e-67
-7.4134e-69
-8.54181e-71
-7.80532e-73
-5.54013e-75
-3.15575e-77
-1.60654e-79
-8.82223e-82
-5.56775e-84
-3.93114e-86
-2.82931e-88
-1.91338e-90
-1.18257e-92
-7.1961e-95
-5.19274e-97
-4.94987e-99
-6.01927e-101
-8.52057e-103
-1.29537e-104
-2.02181e-106
-3.1598e-108
-4.94297e-110
-7.68246e-112
-1.19325e-113
-1.91069e-115
-3.22996e-117
-5.85699e-119
-1.06403e-120
-2.00697e-122
-4.39788e-124
-1.12664e-125
-1.79101e-100
-5.70646e-100
-4.13844e-100
-2.08902e-100
-1.53565e-51
-3.89529e-53
-8.79388e-55
-1.78841e-56
-3.35272e-58
-5.91982e-60
-1.01092e-61
-1.70408e-63
-2.81789e-65
-4.38497e-67
-6.08917e-69
-7.08856e-71
-6.53713e-73
-4.68824e-75
-2.77209e-77
-1.554e-79
-9.24438e-82
-5.98685e-84
-4.11377e-86
-2.84816e-88
-1.89073e-90
-1.19823e-92
-7.8429e-95
-6.007e-97
-5.78475e-99
-6.82445e-101
-9.1825e-103
-1.31133e-104
-1.89237e-106
-2.73503e-108
-3.95578e-110
-5.8276e-112
-9.03603e-114
-1.49782e-115
-2.57828e-117
-4.42952e-119
-7.6599e-121
-1.45385e-122
-3.13031e-124
-7.70909e-126
-4.68714e-103
-1.48863e-102
-1.08606e-102
-4.46976e-103
-1.35541e-51
-3.32072e-53
-7.36851e-55
-1.50174e-56
-2.80095e-58
-4.81098e-60
-7.88142e-62
-1.2683e-63
-1.98166e-65
-2.89077e-67
-3.74837e-69
-4.11101e-71
-3.70898e-73
-2.75226e-75
-1.74222e-77
-1.01876e-79
-6.06053e-82
-3.90657e-84
-2.69895e-86
-1.89377e-88
-1.28289e-90
-8.36087e-93
-5.57565e-95
-4.26571e-97
-3.98426e-99
-4.46574e-101
-5.65393e-103
-7.62734e-105
-1.06167e-106
-1.49844e-108
-2.14302e-110
-3.10005e-112
-4.56344e-114
-6.92079e-116
-1.09428e-117
-1.8303e-119
-3.16535e-121
-5.82145e-123
-1.19212e-124
-2.7014e-126
-6.66869e-128
-5.39454e-107
-5.80899e-107
-3.3501e-107
-9.08711e-52
-2.17911e-53
-4.67503e-55
-9.07179e-57
-1.61837e-58
-2.70311e-60
-4.31516e-62
-6.7184e-64
-1.01194e-65
-1.42853e-67
-1.81554e-69
-1.9902e-71
-1.81566e-73
-1.36381e-75
-8.79701e-78
-5.32045e-80
-3.30314e-82
-2.15287e-84
-1.4604e-86
-9.99012e-89
-6.68465e-91
-4.39849e-93
-3.02431e-95
-2.35462e-97
-2.18387e-99
-2.38287e-101
-2.9115e-103
-3.77904e-105
-5.00891e-107
-6.72174e-109
-9.11809e-111
-1.26495e-112
-1.8264e-114
-2.79991e-116
-4.47127e-118
-7.31207e-120
-1.22034e-121
-2.18807e-123
-4.36285e-125
-9.56329e-127
-2.2183e-128
-5.40113e-130
-1.4e-131
-3.42355e-133
-5.35835e-52
-1.23959e-53
-2.58701e-55
-4.92287e-57
-8.56989e-59
-1.38324e-60
-2.12565e-62
-3.166e-64
-4.53555e-66
-6.07503e-68
-7.33329e-70
-7.66935e-72
-6.80062e-74
-5.13292e-76
-3.4128e-78
-2.12531e-80
-1.3215e-82
-8.56356e-85
-5.77338e-87
-3.94119e-89
-2.6495e-91
-1.7672e-93
-1.22802e-95
-9.5656e-98
-8.68378e-100
-9.09237e-102
-1.05317e-103
-1.29398e-105
-1.65429e-107
-2.161e-109
-2.88104e-111
-3.9236e-113
-5.48583e-115
-7.94017e-117
-1.19282e-118
-1.87965e-120
-3.09571e-122
-5.46869e-124
-1.05291e-125
-2.20465e-127
-4.90047e-129
-1.14094e-130
-2.91015e-132
-7.36295e-134
-2.75984e-52
-6.22023e-54
-1.25944e-55
-2.3134e-57
-3.90557e-59
-6.14804e-61
-9.18369e-63
-1.32393e-64
-1.83048e-66
-2.36799e-68
-2.779e-70
-2.87245e-72
-2.55332e-74
-1.94727e-76
-1.31441e-78
-8.32561e-81
-5.26968e-83
-3.42855e-85
-2.29001e-87
-1.54318e-89
-1.03331e-91
-6.93316e-94
-4.87793e-96
-3.80195e-98
-3.39587e-100
-3.45854e-102
-3.88629e-104
-4.63276e-106
-5.692e-108
-7.14524e-110
-9.15069e-112
-1.20412e-113
-1.64302e-115
-2.36239e-117
-3.54892e-119
-5.5304e-121
-8.92312e-123
-1.53516e-124
-2.88037e-126
-5.8699e-128
-1.27074e-129
-2.85514e-131
-6.71479e-133
-1.50106e-134
-1.28888e-52
-2.79891e-54
-5.48425e-56
-9.77985e-58
-1.5993e-59
-2.43287e-61
-3.50668e-63
-4.85308e-65
-6.4188e-67
-7.94711e-69
-8.96048e-71
-8.94154e-73
-7.76494e-75
-5.89126e-77
-4.01618e-79
-2.57789e-81
-1.63598e-83
-1.05716e-85
-6.98972e-88
-4.66927e-90
-3.11219e-92
-2.09076e-94
-1.47414e-96
-1.14338e-98
-1.00246e-100
-9.87464e-103
-1.0608e-104
-1.20668e-106
-1.43378e-108
-1.75425e-110
-2.20307e-112
-2.84447e-114
-3.78478e-116
-5.24843e-118
-7.55668e-120
-1.13921e-121
-1.8018e-123
-3.05374e-125
-5.59745e-127
-1.10143e-128
-2.30168e-130
-4.95982e-132
-1.13288e-133
-2.58855e-135
-5.45371e-53
-1.15104e-54
-2.18968e-56
-3.78844e-58
-6.02641e-60
-8.93104e-62
-1.25173e-63
-1.67772e-65
-2.14344e-67
-2.56427e-69
-2.80606e-71
-2.74778e-73
-2.37191e-75
-1.8066e-77
-1.24421e-79
-8.07938e-82
-5.16826e-84
-3.34565e-86
-2.20016e-88
-1.45975e-90
-9.71655e-93
-6.5569e-95
-4.64173e-97
-3.58214e-99
-3.08505e-101
-2.95898e-103
-3.09096e-105
-3.42049e-107
-3.93087e-109
-4.64725e-111
-5.64335e-113
-7.08077e-115
-9.21078e-117
-1.25833e-118
-1.80276e-120
-2.70123e-122
-4.22949e-124
-7.04724e-126
-1.26897e-127
-2.45318e-129
-5.04701e-131
-1.0715e-132
-2.34522e-134
-4.89278e-136
-2.12784e-53
-4.33142e-55
-7.97229e-57
-1.33683e-58
-2.06076e-60
-2.9581e-62
-4.00751e-64
-5.17738e-66
-6.36441e-68
-7.32991e-70
-7.74866e-72
-7.37002e-74
-6.2308e-76
-4.70124e-78
-3.23651e-80
-2.10647e-82
-1.34538e-84
-8.63854e-87
-5.61657e-89
-3.68434e-91
-2.43122e-93
-1.6313e-95
-1.14931e-97
-8.78282e-100
-7.42107e-102
-6.91079e-104
-6.9489e-106
-7.41577e-108
-8.27781e-110
-9.56688e-112
-1.14004e-113
-1.40551e-115
-1.79256e-117
-2.39304e-119
-3.33404e-121
-4.86902e-123
-7.50773e-125
-1.23536e-126
-2.18942e-128
-4.13331e-130
-8.29558e-132
-1.70721e-133
-3.66263e-135
-7.83671e-137
-7.56755e-54
-1.4921e-55
-2.6625e-57
-4.33301e-59
-6.49093e-61
-9.05712e-63
-1.19164e-64
-1.49097e-66
-1.77142e-68
-1.97322e-70
-2.02613e-72
-1.88624e-74
-1.57681e-76
-1.18689e-78
-8.20332e-81
-5.371e-83
-3.44183e-85
-2.20818e-87
-1.42934e-89
-9.33007e-92
-6.14451e-94
-4.12769e-96
-2.90471e-98
-2.2015e-100
-1.82771e-102
-1.66088e-104
-1.62572e-106
-1.68814e-108
-1.83052e-110
-2.05596e-112
-2.38505e-114
-2.87482e-116
-3.60023e-118
-4.73908e-120
-6.56663e-122
-9.57288e-124
-1.47174e-125
-2.40706e-127
-4.24431e-129
-7.96756e-131
-1.59215e-132
-3.27433e-134
-6.83973e-136
-1.36379e-137
-2.50867e-54
-4.77882e-56
-8.25674e-58
-1.30272e-59
-1.89357e-61
-2.56395e-63
-3.26913e-65
-3.95557e-67
-4.53805e-69
-4.88279e-71
-4.85632e-73
-4.40187e-75
-3.60774e-77
-2.68352e-79
-1.84388e-81
-1.20272e-83
-7.66431e-86
-4.87244e-88
-3.1175e-90
-2.01115e-92
-1.31158e-94
-8.74258e-97
-6.09517e-99
-4.56174e-101
-3.71494e-103
-3.28742e-105
-3.12705e-107
-3.15801e-109
-3.3444e-111
-3.68667e-113
-4.21191e-115
-5.01264e-117
-6.20218e-119
-8.05971e-121
-1.10065e-122
-1.58007e-124
-2.4089e-126
-3.91132e-128
-6.83072e-130
-1.26392e-131
-2.47527e-133
-4.95558e-135
-1.02041e-136
-2.07581e-138
-7.60077e-55
-1.39801e-56
-2.33799e-58
-3.57718e-60
-5.04773e-62
-6.63648e-64
-8.21053e-66
-9.62308e-68
-1.06822e-69
-1.11335e-71
-1.07656e-73
-9.54392e-76
-7.70854e-78
-5.69293e-80
-3.90556e-82
-2.54924e-84
-1.62375e-86
-1.02901e-88
-6.54933e-91
-4.20196e-93
-2.72956e-95
-1.8148e-97
-1.25946e-99
-9.33364e-102
-7.47374e-104
-6.46816e-106
-6.01558e-108
-5.93313e-110
-6.13479e-112
-6.61259e-114
-7.4034e-116
-8.66661e-118
-1.0587e-119
-1.3628e-121
-1.85694e-123
-2.67363e-125
-4.09272e-127
-6.67056e-129
-1.16967e-130
-2.16979e-132
-4.25837e-134
-8.55428e-136
-1.71941e-137
-3.28988e-139
-2.15793e-55
-3.83711e-57
-6.21441e-59
-9.21971e-61
-1.26254e-62
-1.61112e-64
-1.93331e-66
-2.19517e-68
-2.35889e-70
-2.38087e-72
-2.23444e-74
-1.93102e-76
-1.52932e-78
-1.11405e-80
-7.57206e-83
-4.90582e-85
-3.09923e-87
-1.94411e-89
-1.22303e-91
-7.75483e-94
-4.9848e-96
-3.28407e-98
-2.25697e-100
-1.64864e-102
-1.29638e-104
-1.10026e-106
-1.00112e-108
-9.66542e-111
-9.81137e-113
-1.04243e-114
-1.15449e-116
-1.3415e-118
-1.6317e-120
-2.0932e-122
-2.84546e-124
-4.08631e-126
-6.25483e-128
-1.01842e-129
-1.7755e-131
-3.25524e-133
-6.25037e-135
-1.21909e-136
-2.40598e-138
-4.64928e-140
-5.60161e-56
-9.63663e-58
-1.50748e-59
-2.16535e-61
-2.87587e-63
-3.56194e-65
-4.14779e-67
-4.56639e-69
-4.75526e-71
-4.65557e-73
-4.25062e-75
-3.59099e-77
-2.7968e-79
-2.01552e-81
-1.36136e-83
-8.78515e-86
-5.52758e-88
-3.44865e-90
-2.15544e-92
-1.35795e-94
-8.6829e-97
-5.69521e-99
-3.89328e-101
-2.82018e-103
-2.18935e-105
-1.82699e-107
-1.63087e-109
-1.54411e-111
-1.53864e-113
-1.60942e-115
-1.76068e-117
-2.02899e-119
-2.45772e-121
-3.14912e-123
-4.29844e-125
-6.22149e-127
-9.60195e-129
-1.57475e-130
-2.75854e-132
-5.06425e-134
-9.71084e-136
-1.88909e-137
-3.6225e-139
-6.57777e-141
-1.36459e-56
-2.27456e-58
-3.45289e-60
-4.80558e-62
-6.1912e-64
-7.44423e-66
-8.41202e-68
-8.97993e-70
-9.06393e-72
-8.60701e-74
-7.63726e-76
-6.29309e-78
-4.80371e-80
-3.40961e-82
-2.27667e-84
-1.45501e-86
-9.06574e-89
-5.59462e-91
-3.45567e-93
-2.15169e-95
-1.36086e-97
-8.83657e-100
-5.978e-102
-4.27701e-104
-3.27045e-106
-2.6823e-108
-2.35224e-110
-2.19242e-112
-2.15832e-114
-2.24072e-116
-2.44393e-118
-2.81949e-120
-3.43471e-122
-4.43269e-124
-6.09995e-126
-8.88526e-128
-1.37585e-129
-2.25233e-131
-3.90718e-133
-7.04952e-135
-1.31288e-136
-2.46237e-138
-4.59874e-140
-8.31096e-142
-3.04741e-57
-4.91723e-59
-7.23615e-61
-9.765e-63
-1.21829e-64
-1.41897e-66
-1.55489e-68
-1.60955e-70
-1.57555e-72
-1.4527e-74
-1.25454e-76
-1.01003e-78
-7.57026e-81
-5.30162e-83
-3.50605e-85
-2.22422e-87
-1.37655e-89
-8.43519e-92
-5.17219e-94
-3.19878e-96
-2.01152e-98
-1.29967e-100
-8.74582e-103
-6.21394e-105
-4.70745e-107
-3.81715e-109
-3.30709e-111
-3.04797e-113
-2.97329e-115
-3.06964e-117
-3.34218e-119
-3.86114e-121
-4.72649e-123
-6.13274e-125
-8.49167e-127
-1.24474e-128
-1.93491e-130
-3.17039e-132
-5.47983e-134
-9.81445e-136
-1.80881e-137
-3.34948e-139
-6.04914e-141
-1.03193e-142
-6.38878e-58
-9.99474e-60
-1.42796e-61
-1.87273e-63
-2.26965e-65
-2.56395e-67
-2.72306e-69
-2.73356e-71
-2.59554e-73
-2.32397e-75
-1.95289e-77
-1.53452e-79
-1.12705e-81
-7.7681e-84
-5.0721e-86
-3.18212e-88
-1.94832e-90
-1.18072e-92
-7.15747e-95
-4.37704e-97
-2.724e-99
-1.74331e-101
-1.16209e-103
-8.17278e-106
-6.12209e-108
-4.90709e-110
-4.20669e-112
-3.84826e-114
-3.74182e-116
-3.8691e-118
-4.23833e-120
-4.94036e-122
-6.11906e-124
-8.02639e-126
-1.12118e-127
-1.65138e-129
-2.56248e-131
-4.16073e-133
-7.06525e-135
-1.23394e-136
-2.19471e-138
-3.89655e-140
-6.80168e-142
-1.13918e-143
-1.23234e-58
-1.86804e-60
-2.58897e-62
-3.297e-64
-3.88136e-66
-4.25492e-68
-4.37819e-70
-4.25953e-72
-3.92366e-74
-3.41346e-76
-2.79368e-78
-2.14462e-80
-1.54498e-82
-1.04887e-84
-6.76809e-87
-4.20519e-89
-2.55301e-91
-1.53481e-93
-9.23292e-96
-5.60841e-98
-3.47065e-100
-2.21153e-102
-1.46877e-104
-1.02906e-106
-7.67632e-109
-6.12806e-111
-5.23872e-113
-4.7898e-115
-4.66719e-117
-4.85059e-119
-5.35398e-121
-6.29017e-123
-7.85444e-125
-1.03544e-126
-1.44811e-128
-2.12824e-130
-3.28034e-132
-5.27333e-134
-8.82572e-136
-1.51527e-137
-2.64251e-139
-4.59559e-141
-7.75565e-143
-1.23263e-144
-2.23208e-59
-3.28264e-61
-4.41915e-63
-5.47192e-65
-6.26674e-67
-6.68026e-69
-6.67286e-71
-6.2937e-73
-5.62524e-75
-4.75562e-77
-3.79058e-79
-2.84167e-81
-2.00601e-83
-1.33931e-85
-8.52243e-88
-5.2309e-90
-3.14017e-92
-1.86722e-94
-1.11132e-96
-6.68356e-99
-4.10011e-101
-2.59308e-103
-1.71108e-105
-1.19212e-107
-8.8504e-110
-7.0417e-112
-6.01316e-114
-5.51103e-116
-5.40292e-118
-5.66648e-120
-6.32332e-122
-7.50271e-124
-9.44954e-126
-1.25193e-127
-1.75093e-129
-2.56261e-131
-3.90949e-133
-6.17904e-135
-1.0095e-136
-1.6819e-138
-2.82517e-140
-4.70004e-142
-7.62526e-144
-1.18205e-145
-3.73436e-60
-5.32652e-62
-6.9619e-64
-8.37763e-66
-9.32971e-68
-9.67062e-70
-9.38318e-72
-8.5777e-74
-7.4364e-76
-6.10748e-78
-4.74073e-80
-3.47159e-82
-2.40215e-84
-1.5778e-86
-9.90832e-89
-6.01576e-91
-3.57844e-93
-2.11076e-95
-1.24763e-97
-7.46312e-100
-4.56303e-102
-2.88271e-104
-1.9039e-106
-1.32986e-108
-9.91455e-111
-7.93613e-113
-6.83236e-115
-6.32612e-117
-6.27364e-119
-6.655e-121
-7.50258e-123
-8.95994e-125
-1.13188e-126
-1.49659e-128
-2.07792e-130
-3.006e-132
-4.50974e-134
-6.98946e-136
-1.11552e-137
-1.81227e-139
-2.96256e-141
-4.80133e-143
-7.52745e-145
-1.11031e-146
-5.87288e-61
-8.13342e-63
-1.03326e-64
-1.20956e-66
-1.31107e-68
-1.32303e-70
-1.24923e-72
-1.1094e-74
-9.33791e-77
-7.45658e-79
-5.63922e-81
-4.03462e-83
-2.73562e-85
-1.76592e-87
-1.093e-89
-6.55478e-92
-3.85721e-94
-2.25337e-96
-1.32071e-98
-7.84693e-101
-4.7753e-103
-3.01005e-105
-1.98856e-107
-1.39268e-109
-1.04334e-111
-8.41004e-114
-7.30381e-116
-6.82963e-118
-6.84081e-120
-7.31811e-122
-8.30283e-124
-9.93615e-126
-1.25304e-127
-1.64719e-129
-2.26203e-131
-3.2268e-133
-4.75418e-135
-7.20464e-137
-1.11904e-138
-1.76196e-140
-2.77784e-142
-4.31582e-144
-6.51178e-146
-9.36961e-148
-8.562e-62
-1.1513e-63
-1.42135e-65
-1.61818e-67
-1.70703e-69
-1.67696e-71
-1.54113e-73
-1.33058e-75
-1.08704e-77
-8.43778e-80
-6.21738e-82
-4.34697e-84
-2.88966e-86
-1.83459e-88
-1.12032e-90
-6.64744e-93
-3.87883e-95
-2.2512e-97
-1.31375e-99
-7.79108e-102
-4.74758e-104
-3.00677e-106
-2.00245e-108
-1.41787e-110
-1.07626e-112
-8.80141e-115
-7.75641e-117
-7.35204e-119
-7.44795e-121
-8.02772e-123
-9.14184e-125
-1.09259e-126
-1.37017e-128
-1.78362e-130
-2.41433e-132
-3.38233e-134
-4.87419e-136
-7.20214e-138
-1.08627e-139
-1.65701e-141
-2.5272e-143
-3.80114e-145
-5.51664e-147
-7.53888e-149
-1.1754e-62
-1.53603e-64
-1.84443e-66
-2.0439e-68
-2.09997e-70
-2.00978e-72
-1.79968e-74
-1.51355e-76
-1.20236e-78
-9.08455e-81
-6.52747e-83
-4.4619e-85
-2.90807e-87
-1.81549e-89
-1.09342e-91
-6.41616e-94
-3.71157e-96
-2.14017e-98
-1.24395e-100
-7.37037e-103
-4.50221e-105
-2.86885e-107
-1.92899e-109
-1.38271e-111
-1.0641e-113
-8.8226e-116
-7.87049e-118
-7.52891e-120
-7.66832e-122
-8.2696e-124
-9.38335e-126
-1.11195e-127
-1.37694e-129
-1.76436e-131
-2.34106e-133
-3.20887e-135
-4.51371e-137
-6.4928e-139
-9.5167e-141
-1.40828e-142
-2.07802e-144
-3.01329e-146
-4.23381e-148
-5.6606e-150
-1.50039e-63
-1.90573e-65
-2.22604e-67
-2.40138e-69
-2.40319e-71
-2.24106e-73
-1.95572e-75
-1.60273e-77
-1.23849e-79
-9.1074e-82
-6.38284e-84
-4.26719e-86
-2.72847e-88
-1.67643e-90
-9.97093e-93
-5.79731e-95
-3.33327e-97
-1.91656e-99
-1.11469e-101
-6.63594e-104
-4.09089e-106
-2.64174e-108
-1.806e-110
-1.31852e-112
-1.03334e-114
-8.70646e-117
-7.86474e-119
-7.58267e-121
-7.74687e-123
-8.33697e-125
-9.4034e-127
-1.10326e-128
-1.34823e-130
-1.70087e-132
-2.21483e-134
-2.97047e-136
-4.07783e-138
-5.70709e-140
-8.10133e-142
-1.15682e-143
-1.6436e-145
-2.29307e-147
-3.08208e-149
-3.90626e-151
-1.80744e-64
-2.23325e-66
-2.53963e-68
-2.669e-70
-2.60316e-72
-2.36673e-74
-2.01445e-76
-1.61076e-78
-1.21407e-80
-8.70218e-83
-5.9568e-85
-3.89975e-87
-2.44896e-89
-1.48259e-91
-8.71891e-94
-5.0305e-96
-2.88027e-98
-1.65509e-100
-9.66093e-103
-5.79647e-105
-3.61647e-107
-2.37177e-109
-1.65008e-111
-1.22592e-113
-9.75609e-116
-8.31437e-118
-7.55878e-120
-7.29427e-122
-7.42216e-124
-7.91641e-126
-8.81659e-128
-1.0176e-129
-1.21912e-131
-1.50443e-133
-1.91014e-135
-2.49383e-137
-3.32714e-139
-4.51853e-141
-6.22493e-143
-8.62694e-145
-1.189e-146
-1.60767e-148
-2.10317e-150
-2.61533e-152
-2.03279e-65
-2.44363e-67
-2.70582e-69
-2.7706e-71
-2.63434e-73
-2.33632e-75
-1.94041e-77
-1.51448e-79
-1.11422e-81
-7.78683e-84
-5.20823e-86
-3.34131e-88
-2.06308e-90
-1.23265e-92
-7.1841e-95
-4.12628e-97
-2.36238e-99
-1.36342e-101
-8.03155e-104
-4.88563e-106
-3.10212e-108
-2.07501e-110
-1.47259e-112
-1.11369e-114
-8.9856e-117
-7.72266e-119
-7.04114e-121
-6.77721e-123
-6.8472e-125
-7.22143e-127
-7.92993e-129
-9.00207e-131
-1.05842e-132
-1.28047e-134
-1.59074e-136
-2.02728e-138
-2.63658e-140
-3.48161e-142
-4.64182e-144
-6.20192e-146
-8.21574e-148
-1.06496e-149
-1.32798e-151
-1.56297e-153
-2.15862e-66
-2.52685e-68
-2.72659e-70
-2.72234e-72
-2.52547e-74
-2.18612e-76
-1.77287e-78
-1.35209e-80
-9.72811e-83
-6.64317e-85
-4.3509e-87
-2.74079e-89
-1.66739e-91
-9.85491e-94
-5.70698e-96
-3.27277e-98
-1.8799e-100
-1.09395e-102
-6.52741e-105
-4.03743e-107
-2.61285e-109
-1.78204e-111
-1.28708e-113
-9.86725e-116
-8.02813e-118
-6.91743e-120
-6.28788e-122
-6.00316e-124
-5.99202e-126
-6.22082e-128
-6.7062e-130
-7.45529e-132
-8.56102e-134
-1.00989e-135
-1.22048e-137
-1.51098e-139
-1.90571e-141
-2.43795e-143
-3.15163e-145
-4.08411e-147
-5.24995e-149
-6.61094e-151
-8.04539e-153
-9.30537e-155
-2.15032e-67
-2.45175e-69
-2.57871e-71
-2.51151e-73
-2.27416e-75
-1.92248e-77
-1.52351e-79
-1.13629e-81
-8.00226e-84
-5.34666e-86
-3.43241e-88
-2.12704e-90
-1.27809e-92
-7.49647e-95
-4.33111e-97
-2.49189e-99
-1.44335e-101
-8.51288e-104
-5.16872e-106
-3.26102e-108
-2.1533e-110
-1.49555e-112
-1.09576e-114
-8.47843e-117
-6.92262e-119
-5.95235e-121
-5.37258e-123
-5.07115e-125
-4.98809e-127
-5.08879e-129
-5.3801e-131
-5.8574e-133
-6.5766e-135
-7.58088e-137
-8.94226e-139
-1.07847e-140
-1.32418e-142
-1.6458e-144
-2.05845e-146
-2.57244e-148
-3.1776e-150
-3.82975e-152
-4.43436e-154
-4.85201e-156
-2.02437e-68
-2.25003e-70
-2.30856e-72
-2.19493e-74
-1.94154e-76
-1.60416e-78
-1.24342e-80
-9.08062e-83
-6.27079e-85
-4.11298e-87
-2.59451e-89
-1.58614e-91
-9.44617e-94
-5.52014e-96
-3.19564e-98
-1.85331e-100
-1.08731e-102
-6.52255e-105
-4.0378e-107
-2.5982e-109
-1.74653e-111
-1.23033e-113
-9.09747e-116
-7.06421e-118
-5.75655e-120
-4.91489e-122
-4.38609e-124
-4.07836e-126
-3.94121e-128
-3.941e-130
-4.07633e-132
-4.33532e-134
-4.74526e-136
-5.32557e-138
-6.10684e-140
-7.15093e-142
-8.51069e-144
-1.02449e-145
-1.2414e-147
-1.50242e-149
-1.79916e-151
-2.10739e-153
-2.38297e-155
-2.56068e-157
-1.796e-69
-1.94677e-71
-1.94936e-73
-1.8103e-75
-1.56522e-77
-1.26517e-79
-9.60404e-82
-6.87732e-84
-4.66457e-86
-3.01059e-88
-1.87084e-90
-1.13187e-92
-6.707e-95
-3.92302e-97
-2.28694e-99
-1.34314e-101
-8.01182e-104
-4.89905e-106
-3.09242e-108
-2.02514e-110
-1.3803e-112
-9.81138e-115
-7.28189e-117
-5.64571e-119
-4.57129e-121
-3.86142e-123
-3.39735e-125
-3.10529e-127
-2.94341e-129
-2.88156e-131
-2.91382e-133
-3.02699e-135
-3.23213e-137
-3.53676e-139
-3.95111e-141
-4.49999e-143
-5.20546e-145
-6.07917e-147
-7.12473e-149
-8.32072e-151
-9.5779e-153
-1.07335e-154
-1.1548e-156
-1.1757e-158
-1.50787e-70
-1.59529e-72
-1.56037e-74
-1.41663e-76
-1.19854e-78
-9.49006e-81
-7.06491e-83
-4.96948e-85
-3.31865e-87
-2.11486e-89
-1.30005e-91
-7.82002e-94
-4.63416e-96
-2.72725e-98
-1.60863e-100
-9.60291e-103
-5.83515e-105
-3.63541e-107
-2.33361e-109
-1.5484e-111
-1.06436e-113
-7.59183e-116
-5.62604e-118
-4.33519e-120
-3.47446e-122
-2.89483e-124
-2.50495e-126
-2.24642e-128
-2.0854e-130
-1.99646e-132
-1.97142e-134
-1.99806e-136
-2.07817e-138
-2.21285e-140
-2.40293e-142
-2.6568e-144
-2.97867e-146
-3.3689e-148
-3.82096e-150
-4.31371e-152
-4.80771e-154
-5.23372e-156
-5.49611e-158
-5.48725e-160
-1.198e-71
-1.23787e-73
-1.18354e-75
-1.05137e-77
-8.71384e-80
-6.76845e-82
-4.95045e-84
-3.42866e-86
-2.26108e-88
-1.42793e-90
-8.71967e-93
-5.23986e-95
-3.12083e-97
-1.85664e-99
-1.11203e-101
-6.75806e-104
-4.18178e-106
-2.64781e-108
-1.72113e-110
-1.15117e-112
-7.93768e-115
-5.6524e-117
-4.16368e-119
-3.17676e-121
-2.51253e-123
-2.05991e-125
-1.74986e-127
-1.53754e-129
-1.3963e-131
-1.30601e-133
-1.25851e-135
-1.24396e-137
-1.26038e-139
-1.30644e-141
-1.37995e-143
-1.48194e-145
-1.61224e-147
-1.76632e-149
-1.93725e-151
-2.11207e-153
-2.26467e-155
-2.36116e-157
-2.36357e-159
-2.24215e-161
-9.0278e-73
-9.11909e-75
-8.53202e-77
-7.42553e-79
-6.03829e-81
-4.6099e-83
-3.32062e-85
-2.27139e-87
-1.48482e-89
-9.33582e-92
-5.69586e-94
-3.43776e-96
-2.06821e-98
-1.2483e-100
-7.60376e-103
-4.6996e-105
-2.952e-107
-1.89094e-109
-1.23812e-111
-8.30275e-114
-5.71426e-116
-4.04485e-118
-2.95099e-120
-2.22282e-122
-1.73084e-124
-1.39375e-126
-1.16059e-128
-9.97969e-131
-8.85748e-133
-8.08854e-135
-7.60105e-137
-7.3218e-139
-7.22107e-141
-7.27848e-143
-7.46893e-145
-7.78262e-147
-8.20297e-149
-8.70041e-151
-9.2263e-153
-9.71366e-155
-1.00767e-156
-1.01991e-158
-9.95592e-161
-9.24812e-163
-6.46202e-74
-6.38741e-76
-5.85507e-78
-4.99965e-80
-3.99631e-82
-3.00581e-84
-2.13894e-86
-1.4506e-88
-9.44305e-91
-5.94169e-93
-3.64365e-95
-2.2184e-97
-1.35272e-99
-8.2966e-102
-5.13642e-104
-3.21961e-106
-2.04383e-108
-1.31739e-110
-8.64072e-113
-5.77973e-115
-3.95258e-117
-2.77076e-119
-1.99604e-121
-1.48082e-123
-1.13314e-125
-8.94935e-128
-7.29703e-130
-6.13543e-132
-5.31841e-134
-4.73883e-136
-4.34062e-138
-4.07297e-140
-3.90915e-142
-3.83092e-144
-3.81885e-146
-3.86077e-148
-3.94403e-150
-4.04866e-152
-4.15181e-154
-4.22353e-156
-4.2207e-158
-4.09999e-160
-3.82674e-162
-3.39146e-164
-4.40198e-75
-4.26336e-77
-3.83489e-79
-3.21922e-81
-2.53562e-83
-1.88478e-85
-1.33024e-87
-8.9865e-90
-5.85607e-92
-3.70758e-94
-2.29759e-96
-1.41649e-98
-8.76656e-101
-5.458e-103
-3.4233e-105
-2.16584e-107
-1.38194e-109
-8.91492e-112
-5.82819e-114
-3.87161e-116
-2.62125e-118
-1.81427e-120
-1.28746e-122
-9.3894e-125
-7.0502e-127
-5.45497e-129
-4.35141e-131
-3.57505e-133
-3.02484e-135
-2.62867e-137
-2.34589e-139
-2.14322e-141
-2.00084e-143
-1.90529e-145
-1.84388e-147
-1.8078e-149
-1.78884e-151
-1.77742e-153
-1.76217e-155
-1.73146e-157
-1.67363e-159
-1.57692e-161
-1.43266e-163
-1.23955e-165
-2.85974e-76
-2.71811e-78
-2.40391e-80
-1.98881e-82
-1.54846e-84
-1.142e-86
-8.0326e-89
-5.43394e-91
-3.56423e-93
-2.28177e-95
-1.43411e-97
-8.96529e-100
-5.62535e-102
-3.54342e-104
-2.24095e-106
-1.42311e-108
-9.0778e-111
-5.83188e-113
-3.78401e-115
-2.48758e-117
-1.66259e-119
-1.13355e-121
-7.90884e-124
-5.66137e-126
-4.1662e-128
-3.155e-130
-2.46026e-132
-1.97401e-134
-1.62947e-136
-1.38042e-138
-1.19969e-140
-1.06668e-142
-9.68318e-145
-8.95757e-147
-8.41475e-149
-8.00051e-151
-7.66986e-153
-7.3757e-155
-7.07327e-157
-6.71858e-159
-6.26581e-161
-5.68156e-163
-4.95562e-165
-4.11257e-167
-1.77603e-77
-1.66e-79
-1.44719e-81
-1.18381e-83
-9.14748e-86
-6.72579e-88
-4.74025e-90
-3.22884e-92
-2.14226e-94
-1.39162e-96
-8.88318e-99
-5.62504e-101
-3.56628e-103
-2.26162e-105
-1.43435e-107
-9.09393e-110
-5.77132e-112
-3.67717e-114
-2.35999e-116
-1.53116e-118
-1.00806e-120
-6.75865e-123
-4.63007e-125
-3.24964e-127
-2.34166e-129
-1.73436e-131
-1.32123e-133
-1.03457e-135
-8.3262e-138
-6.87252e-140
-5.81402e-142
-5.02884e-144
-4.43741e-146
-3.98653e-148
-3.6342e-150
-3.35024e-152
-3.11126e-154
-2.89632e-156
-2.68647e-158
-2.46643e-160
-2.22465e-162
-1.95409e-164
-1.65445e-166
-1.33471e-168
-1.05747e-78
-9.74495e-81
-8.40204e-83
-6.82318e-85
-5.25802e-87
-3.87529e-89
-2.75205e-91
-1.89684e-93
-1.2774e-95
-8.43003e-98
-5.45808e-100
-3.48868e-102
-2.22405e-104
-1.41217e-106
-8.93261e-109
-5.62689e-111
-3.53811e-113
-2.22813e-115
-1.41056e-117
-9.01208e-120
-5.83425e-122
-3.84136e-124
-2.58109e-126
-1.77473e-128
-1.25144e-130
-9.06017e-133
-6.73959e-135
-5.14868e-137
-4.03879e-139
-3.24693e-141
-2.67297e-143
-2.24833e-145
-1.92787e-147
-1.68166e-149
-1.48744e-151
-1.32941e-153
-1.19598e-155
-1.0777e-157
-9.6708e-160
-8.58489e-162
-7.47896e-164
-6.3362e-166
-5.16817e-168
-4.01646e-170
-6.05742e-80
-5.52209e-82
-4.72816e-84
-3.83071e-86
-2.96025e-88
-2.19932e-90
-1.58155e-92
-1.10677e-94
-7.57305e-97
-5.06963e-99
-3.31735e-101
-2.12965e-103
-1.35772e-105
-8.58625e-108
-5.39123e-110
-3.36063e-112
-2.08662e-114
-1.29527e-116
-8.07058e-119
-5.06851e-121
-3.22175e-123
-2.08057e-125
-1.36976e-127
-9.21894e-130
-6.35646e-132
-4.49555e-134
-3.26376e-136
-2.43125e-138
-1.85803e-140
-1.45434e-142
-1.16475e-144
-9.52499e-147
-7.935e-149
-6.71947e-151
-5.76579e-153
-4.99556e-155
-4.35326e-157
-3.79717e-159
-3.29602e-161
-2.8286e-163
-2.38217e-165
-1.95204e-167
-1.54129e-169
-1.16026e-171
-3.35238e-81
-3.03597e-83
-2.59439e-85
-2.10876e-87
-1.6434e-89
-1.23687e-91
-9.03619e-94
-6.42631e-96
-4.46056e-98
-3.01758e-100
-1.98547e-102
-1.27309e-104
-8.07356e-107
-5.06116e-109
-3.14178e-111
-1.93178e-113
-1.18128e-115
-7.21263e-118
-4.41553e-120
-2.72198e-122
-1.69683e-124
-1.07369e-126
-6.91974e-129
-4.55494e-131
-3.06899e-133
-2.11903e-135
-1.5006e-137
-1.0896e-139
-8.1104e-142
-6.17904e-144
-4.81299e-146
-3.82547e-148
-3.09533e-150
-2.54392e-152
-2.11706e-154
-1.77772e-156
-1.5003e-158
-1.2665e-160
-1.06332e-162
-8.82118e-165
-7.17665e-167
-5.67725e-169
-4.32567e-171
-3.14298e-173
-1.80177e-82
-1.62919e-84
-1.39736e-86
-1.14599e-88
-9.05128e-91
-6.92334e-93
-5.14248e-95
-3.71038e-97
-2.60261e-99
-1.77012e-101
-1.16464e-103
-7.42147e-106
-4.65936e-108
-2.88412e-110
-1.76416e-112
-1.06718e-114
-6.41349e-117
-3.8452e-119
-2.30968e-121
-1.39598e-123
-8.52603e-126
-5.28155e-128
-3.32948e-130
-2.14197e-132
-1.40934e-134
-9.49597e-137