/*--------------------------------*- C++ -*----------------------------------*\
| =========                 |                                                 |
| \\      /  F ield         | OpenFOAM: The Open Source CFD Toolbox           |
|  \\    /   O peration     | Version:  v1912                                 |
|   \\  /    A nd           | Website:  www.openfoam.com                      |
|    \\/     M anipulation  |                                                 |
\*---------------------------------------------------------------------------*/
FoamFile
{
    version     2.0;
    format      ascii;
    class       volScalarField;
    location    "40";
    object      k;
}
// * * * * * * * * * * * * * * * * * * * * * * * * * * * * * * * * * * * * * //

dimensions      [0 2 -2 0 0 0 0];


internalField   nonuniform List<scalar> 
14268
(
2.51907e-09
2.60954e-09
2.73343e-09
2.89608e-09
3.01416e-09
3.07374e-09
3.07396e-09
3.01996e-09
2.93516e-09
2.87843e-09
2.85716e-09
2.86249e-09
2.8845e-09
2.8734e-09
2.80309e-09
2.68962e-09
2.6136e-09
2.57972e-09
2.57086e-09
2.58923e-09
2.61831e-09
2.6261e-09
2.6227e-09
2.60879e-09
2.58783e-09
2.56599e-09
2.54974e-09
2.53913e-09
2.53687e-09
2.54805e-09
2.58139e-09
2.63929e-09
2.77323e-09
3.33522e-09
5.45264e-09
1.10238e-08
1.88592e-08
2.53168e-08
3.34665e-08
4.61139e-08
6.63052e-08
6.22813e-08
4.73837e-08
2.73072e-08
4.27256e-08
4.33479e-08
4.42365e-08
4.51966e-08
4.59949e-08
4.65207e-08
4.66255e-08
4.63832e-08
4.60559e-08
4.58488e-08
4.58508e-08
4.60088e-08
4.61661e-08
4.61825e-08
4.59708e-08
4.55797e-08
4.51589e-08
4.48652e-08
4.4786e-08
4.49642e-08
4.52761e-08
4.55218e-08
4.55058e-08
4.51735e-08
4.4657e-08
4.41869e-08
4.39652e-08
4.40183e-08
4.42793e-08
4.4706e-08
4.53475e-08
4.62435e-08
4.78612e-08
5.2401e-08
6.27043e-08
8.11912e-08
1.02928e-07
1.21504e-07
1.42889e-07
1.71507e-07
2.18801e-07
2.21467e-07
2.00642e-07
1.48673e-07
8.91164e-08
8.94998e-08
9.0066e-08
9.05994e-08
9.10598e-08
9.13801e-08
9.14225e-08
9.12694e-08
9.10936e-08
9.09893e-08
9.10138e-08
9.11298e-08
9.12045e-08
9.11963e-08
9.10755e-08
9.08669e-08
9.05681e-08
9.03336e-08
9.02622e-08
9.03896e-08
9.06045e-08
9.07793e-08
9.07234e-08
9.04074e-08
8.99552e-08
8.95645e-08
8.94032e-08
8.94845e-08
8.97249e-08
9.00644e-08
9.05239e-08
9.11292e-08
9.21348e-08
9.49209e-08
1.00885e-07
1.1262e-07
1.28527e-07
1.44308e-07
1.63137e-07
1.89848e-07
2.34919e-07
2.39513e-07
2.23145e-07
1.95264e-07
1.03892e-07
1.04009e-07
1.04196e-07
1.04371e-07
1.04535e-07
1.04651e-07
1.04659e-07
1.04607e-07
1.04565e-07
1.04538e-07
1.0456e-07
1.04613e-07
1.0464e-07
1.04636e-07
1.04587e-07
1.04511e-07
1.04391e-07
1.0429e-07
1.04259e-07
1.04319e-07
1.04411e-07
1.04483e-07
1.04446e-07
1.04292e-07
1.04091e-07
1.03926e-07
1.03862e-07
1.03896e-07
1.03992e-07
1.04123e-07
1.04302e-07
1.04549e-07
1.0492e-07
1.06159e-07
1.09347e-07
1.1809e-07
1.31663e-07
1.46042e-07
1.64117e-07
1.90097e-07
2.33384e-07
2.39143e-07
2.25653e-07
1.93761e-07
1.07073e-07
1.07085e-07
1.07133e-07
1.07183e-07
1.07238e-07
1.07282e-07
1.0728e-07
1.07265e-07
1.07243e-07
1.0723e-07
1.07246e-07
1.0728e-07
1.07302e-07
1.07299e-07
1.07272e-07
1.07233e-07
1.07175e-07
1.07145e-07
1.07137e-07
1.0717e-07
1.07217e-07
1.07249e-07
1.07225e-07
1.0716e-07
1.07081e-07
1.07026e-07
1.07011e-07
1.07023e-07
1.07052e-07
1.07084e-07
1.07141e-07
1.07238e-07
1.07367e-07
1.08092e-07
1.1055e-07
1.18555e-07
1.3153e-07
1.46047e-07
1.64676e-07
1.89728e-07
2.30833e-07
2.36396e-07
2.22409e-07
2.02634e-07
1.07646e-07
1.07641e-07
1.07656e-07
1.07675e-07
1.07699e-07
1.07717e-07
1.07711e-07
1.07708e-07
1.077e-07
1.07694e-07
1.07703e-07
1.07727e-07
1.07739e-07
1.07738e-07
1.07709e-07
1.07676e-07
1.07637e-07
1.0762e-07
1.07617e-07
1.07657e-07
1.07674e-07
1.07689e-07
1.07662e-07
1.07617e-07
1.07572e-07
1.07563e-07
1.07564e-07
1.07576e-07
1.07593e-07
1.0761e-07
1.07641e-07
1.07709e-07
1.07785e-07
1.08404e-07
1.10722e-07
1.18584e-07
1.31894e-07
1.46057e-07
1.63702e-07
1.89984e-07
2.29494e-07
2.32654e-07
2.2065e-07
1.92589e-07
1.07738e-07
1.07723e-07
1.07726e-07
1.07744e-07
1.07762e-07
1.07777e-07
1.07771e-07
1.07765e-07
1.07759e-07
1.07759e-07
1.07766e-07
1.07793e-07
1.0781e-07
1.07815e-07
1.07789e-07
1.07764e-07
1.07723e-07
1.07709e-07
1.07706e-07
1.0772e-07
1.07761e-07
1.07787e-07
1.07768e-07
1.07726e-07
1.07685e-07
1.07664e-07
1.07665e-07
1.07676e-07
1.07674e-07
1.07675e-07
1.07694e-07
1.0775e-07
1.07808e-07
1.08402e-07
1.10708e-07
1.18685e-07
1.31933e-07
1.4641e-07
1.64303e-07
1.88579e-07
2.18407e-07
2.24455e-07
2.14447e-07
1.9607e-07
1.0775e-07
1.07732e-07
1.07736e-07
1.07746e-07
1.07763e-07
1.07787e-07
1.07781e-07
1.07779e-07
1.07767e-07
1.07764e-07
1.07773e-07
1.07801e-07
1.07807e-07
1.07809e-07
1.07782e-07
1.07754e-07
1.0772e-07
1.07711e-07
1.07716e-07
1.07766e-07
1.07766e-07
1.07769e-07
1.07745e-07
1.07705e-07
1.07671e-07
1.0766e-07
1.07662e-07
1.07672e-07
1.07681e-07
1.07698e-07
1.07732e-07
1.0779e-07
1.07862e-07
1.08445e-07
1.10709e-07
1.18536e-07
1.31341e-07
1.45369e-07
1.63697e-07
1.85587e-07
2.12844e-07
2.16714e-07
2.08291e-07
1.86871e-07
1.07761e-07
1.07744e-07
1.07746e-07
1.07754e-07
1.07778e-07
1.07798e-07
1.07789e-07
1.07789e-07
1.07784e-07
1.07776e-07
1.07779e-07
1.07798e-07
1.07817e-07
1.07823e-07
1.07794e-07
1.07762e-07
1.07725e-07
1.07704e-07
1.07694e-07
1.07705e-07
1.07755e-07
1.07794e-07
1.07772e-07
1.07736e-07
1.07696e-07
1.07684e-07
1.07685e-07
1.07685e-07
1.0769e-07
1.07683e-07
1.07693e-07
1.0774e-07
1.07788e-07
1.08386e-07
1.10717e-07
1.18606e-07
1.31624e-07
1.45275e-07
1.62827e-07
1.83217e-07
2.10905e-07
2.1552e-07
2.04707e-07
1.85642e-07
1.07761e-07
1.07743e-07
1.07743e-07
1.07758e-07
1.07776e-07
1.07789e-07
1.07793e-07
1.07787e-07
1.07775e-07
1.07773e-07
1.0778e-07
1.07817e-07
1.07827e-07
1.07826e-07
1.07801e-07
1.07781e-07
1.0775e-07
1.07749e-07
1.07756e-07
1.07804e-07
1.07801e-07
1.078e-07
1.07776e-07
1.07736e-07
1.07703e-07
1.07694e-07
1.07697e-07
1.07718e-07
1.07726e-07
1.0774e-07
1.07774e-07
1.0785e-07
1.0792e-07
1.08486e-07
1.107e-07
1.18621e-07
1.31752e-07
1.45729e-07
1.6218e-07
1.80747e-07
2.1274e-07
2.17631e-07
2.05754e-07
1.83372e-07
1.07759e-07
1.07743e-07
1.07744e-07
1.07753e-07
1.07778e-07
1.07797e-07
1.07777e-07
1.07778e-07
1.07773e-07
1.07767e-07
1.07778e-07
1.07789e-07
1.07803e-07
1.07808e-07
1.07777e-07
1.07746e-07
1.07699e-07
1.07672e-07
1.07666e-07
1.07683e-07
1.07721e-07
1.0775e-07
1.07739e-07
1.07703e-07
1.07664e-07
1.07647e-07
1.07651e-07
1.07644e-07
1.07644e-07
1.07637e-07
1.07647e-07
1.07682e-07
1.07721e-07
1.08307e-07
1.10679e-07
1.18509e-07
1.30958e-07
1.44602e-07
1.58887e-07
1.79196e-07
2.26869e-07
2.32732e-07
2.13443e-07
1.83425e-07
1.07768e-07
1.07753e-07
1.07755e-07
1.07751e-07
1.07769e-07
1.07801e-07
1.07808e-07
1.07803e-07
1.07798e-07
1.07792e-07
1.07798e-07
1.07838e-07
1.07848e-07
1.0785e-07
1.0783e-07
1.07814e-07
1.07792e-07
1.0779e-07
1.07788e-07
1.07821e-07
1.07845e-07
1.07858e-07
1.07825e-07
1.07787e-07
1.07749e-07
1.07739e-07
1.0774e-07
1.07761e-07
1.07774e-07
1.07796e-07
1.07834e-07
1.07903e-07
1.07975e-07
1.08555e-07
1.10718e-07
1.18554e-07
1.30482e-07
1.43742e-07
1.56281e-07
1.79007e-07
2.47882e-07
2.68766e-07
2.33203e-07
1.9003e-07
1.07741e-07
1.07719e-07
1.07722e-07
1.07757e-07
1.0777e-07
1.07774e-07
1.07761e-07
1.07758e-07
1.07745e-07
1.07741e-07
1.07748e-07
1.07758e-07
1.07777e-07
1.07778e-07
1.0774e-07
1.07694e-07
1.07641e-07
1.0762e-07
1.07619e-07
1.07651e-07
1.07666e-07
1.07676e-07
1.07661e-07
1.07627e-07
1.07602e-07
1.07599e-07
1.07598e-07
1.07594e-07
1.07588e-07
1.07577e-07
1.07577e-07
1.07616e-07
1.07658e-07
1.08248e-07
1.10624e-07
1.18429e-07
1.30757e-07
1.42889e-07
1.53629e-07
1.81996e-07
2.64211e-07
3.36745e-07
2.75359e-07
2.00396e-07
1.07798e-07
1.07784e-07
1.07788e-07
1.07776e-07
1.07807e-07
1.07832e-07
1.07832e-07
1.07834e-07
1.07829e-07
1.07827e-07
1.07832e-07
1.07876e-07
1.07885e-07
1.07895e-07
1.07881e-07
1.07881e-07
1.07859e-07
1.07851e-07
1.07854e-07
1.07885e-07
1.07921e-07
1.07948e-07
1.07923e-07
1.07873e-07
1.0782e-07
1.07796e-07
1.07801e-07
1.07819e-07
1.07842e-07
1.07874e-07
1.07915e-07
1.07989e-07
1.08055e-07
1.08607e-07
1.10691e-07
1.18056e-07
1.30754e-07
1.39047e-07
1.50807e-07
1.88451e-07
2.81732e-07
4.41693e-07
3.48416e-07
2.23427e-07
1.07696e-07
1.07678e-07
1.0768e-07
1.07704e-07
1.0772e-07
1.07739e-07
1.07736e-07
1.07728e-07
1.07716e-07
1.07708e-07
1.07714e-07
1.07724e-07
1.07736e-07
1.07734e-07
1.07696e-07
1.07652e-07
1.07606e-07
1.07591e-07
1.07588e-07
1.07619e-07
1.07629e-07
1.07632e-07
1.0761e-07
1.0758e-07
1.07555e-07
1.07552e-07
1.0755e-07
1.07554e-07
1.07545e-07
1.07533e-07
1.07542e-07
1.07582e-07
1.07624e-07
1.08184e-07
1.10556e-07
1.18194e-07
1.28919e-07
1.34223e-07
1.48369e-07
1.99277e-07
3.04248e-07
6.53242e-07
5.21508e-07
2.9668e-07
1.07854e-07
1.07833e-07
1.07825e-07
1.07815e-07
1.07833e-07
1.07847e-07
1.07834e-07
1.0784e-07
1.07834e-07
1.07833e-07
1.07843e-07
1.07885e-07
1.07902e-07
1.07913e-07
1.079e-07
1.07898e-07
1.07869e-07
1.07857e-07
1.07856e-07
1.07882e-07
1.07925e-07
1.07961e-07
1.07945e-07
1.07898e-07
1.07847e-07
1.07823e-07
1.07826e-07
1.07837e-07
1.0786e-07
1.0788e-07
1.07911e-07
1.07971e-07
1.08022e-07
1.08577e-07
1.10557e-07
1.18011e-07
1.2391e-07
1.28352e-07
1.46972e-07
2.13107e-07
3.24855e-07
8.85978e-07
8.0761e-07
4.76076e-07
1.07619e-07
1.07607e-07
1.07618e-07
1.07648e-07
1.07672e-07
1.07696e-07
1.07695e-07
1.07681e-07
1.07668e-07
1.07661e-07
1.07656e-07
1.07658e-07
1.0766e-07
1.07654e-07
1.07611e-07
1.07555e-07
1.07509e-07
1.07499e-07
1.07497e-07
1.0753e-07
1.07524e-07
1.07513e-07
1.07484e-07
1.07458e-07
1.07445e-07
1.0745e-07
1.0745e-07
1.07448e-07
1.07422e-07
1.07402e-07
1.07401e-07
1.07438e-07
1.07474e-07
1.07983e-07
1.1011e-07
1.17167e-07
1.19895e-07
1.24886e-07
1.48713e-07
2.25326e-07
3.40023e-07
9.17277e-07
1.00367e-06
6.78782e-07
1.07869e-07
1.07833e-07
1.07808e-07
1.0779e-07
1.07788e-07
1.07785e-07
1.07776e-07
1.0778e-07
1.07778e-07
1.07774e-07
1.07796e-07
1.07826e-07
1.07844e-07
1.07853e-07
1.07847e-07
1.07857e-07
1.07829e-07
1.0781e-07
1.07807e-07
1.07825e-07
1.07872e-07
1.07916e-07
1.07901e-07
1.07847e-07
1.0779e-07
1.07761e-07
1.07762e-07
1.07782e-07
1.07815e-07
1.07832e-07
1.07855e-07
1.07904e-07
1.07924e-07
1.08369e-07
1.09911e-07
1.1613e-07
1.16384e-07
1.23702e-07
1.53244e-07
2.37083e-07
3.80373e-07
7.09837e-07
9.87536e-07
8.48227e-07
1.07498e-07
1.07486e-07
1.0749e-07
1.07484e-07
1.0751e-07
1.07536e-07
1.0753e-07
1.07517e-07
1.07497e-07
1.07483e-07
1.07463e-07
1.07484e-07
1.07479e-07
1.07465e-07
1.07416e-07
1.07354e-07
1.07311e-07
1.07301e-07
1.07285e-07
1.07313e-07
1.07292e-07
1.07265e-07
1.07226e-07
1.07204e-07
1.07201e-07
1.07209e-07
1.07194e-07
1.07165e-07
1.07111e-07
1.07067e-07
1.07045e-07
1.07063e-07
1.07068e-07
1.07436e-07
1.08748e-07
1.13144e-07
1.13812e-07
1.24139e-07
1.60166e-07
2.59655e-07
4.86962e-07
6.69426e-07
9.616e-07
9.53867e-07
1.07794e-07
1.07728e-07
1.07659e-07
1.07615e-07
1.07571e-07
1.07555e-07
1.07539e-07
1.07545e-07
1.07559e-07
1.07564e-07
1.07569e-07
1.07553e-07
1.07558e-07
1.07565e-07
1.07568e-07
1.07599e-07
1.07583e-07
1.07569e-07
1.07562e-07
1.07564e-07
1.07593e-07
1.07625e-07
1.07596e-07
1.07533e-07
1.07481e-07
1.07469e-07
1.07483e-07
1.07507e-07
1.07523e-07
1.07504e-07
1.07484e-07
1.07489e-07
1.07436e-07
1.07567e-07
1.08138e-07
1.10884e-07
1.12457e-07
1.27372e-07
1.70448e-07
3.1561e-07
7.22396e-07
9.27776e-07
1.10526e-06
1.0723e-06
1.06978e-07
1.06891e-07
1.06843e-07
1.06826e-07
1.0686e-07
1.06848e-07
1.06833e-07
1.06814e-07
1.06786e-07
1.06755e-07
1.0674e-07
1.06805e-07
1.06776e-07
1.06744e-07
1.06689e-07
1.06633e-07
1.06606e-07
1.06596e-07
1.06559e-07
1.06571e-07
1.06529e-07
1.06464e-07
1.06403e-07
1.06392e-07
1.06404e-07
1.06399e-07
1.06354e-07
1.06306e-07
1.06239e-07
1.06168e-07
1.0611e-07
1.06096e-07
1.06005e-07
1.05978e-07
1.06602e-07
1.08196e-07
1.11429e-07
1.29788e-07
1.8362e-07
4.26815e-07
1.14077e-06
1.78108e-06
1.43031e-06
1.12578e-06
1.07085e-07
1.06992e-07
1.06902e-07
1.0678e-07
1.06693e-07
1.0665e-07
1.06613e-07
1.06611e-07
1.06622e-07
1.06623e-07
1.06607e-07
1.06575e-07
1.06524e-07
1.06485e-07
1.06466e-07
1.06491e-07
1.06472e-07
1.06447e-07
1.06408e-07
1.0638e-07
1.06332e-07
1.06303e-07
1.06247e-07
1.06178e-07
1.06114e-07
1.06068e-07
1.0602e-07
1.0595e-07
1.05853e-07
1.05733e-07
1.05573e-07
1.05377e-07
1.04985e-07
1.04334e-07
1.0224e-07
9.48468e-08
1.12644e-07
1.73477e-07
4.2364e-07
2.05071e-06
7.19092e-06
1.28015e-05
8.70848e-06
4.1443e-06
9.76432e-08
9.67835e-08
9.5738e-08
9.44514e-08
9.34081e-08
9.27148e-08
9.23417e-08
9.23613e-08
9.26019e-08
9.26954e-08
9.26028e-08
9.23079e-08
9.18278e-08
9.14935e-08
9.14859e-08
9.1791e-08
9.19891e-08
9.19806e-08
9.17799e-08
9.13713e-08
9.08098e-08
9.03299e-08
9.00086e-08
8.99057e-08
8.99607e-08
8.99867e-08
8.97935e-08
8.93359e-08
8.86085e-08
8.76602e-08
8.64907e-08
8.50797e-08
8.27812e-08
7.74532e-08
6.38806e-08
6.96056e-08
1.77565e-07
6.71607e-07
3.70691e-06
2.09909e-05
7.186e-05
0.000133002
0.000133146
0.00013411
4.98374e-08
4.78464e-08
4.55351e-08
4.32529e-08
4.14396e-08
4.02246e-08
3.96903e-08
3.97699e-08
4.00235e-08
4.0049e-08
3.97194e-08
3.90848e-08
3.84078e-08
3.79839e-08
3.79718e-08
3.83591e-08
3.88407e-08
3.90515e-08
3.87336e-08
3.78243e-08
3.64788e-08
3.52181e-08
3.45718e-08
3.4695e-08
3.5232e-08
3.55973e-08
3.53088e-08
3.4211e-08
3.26144e-08
3.09078e-08
2.94725e-08
2.84126e-08
2.66549e-08
2.30806e-08
2.72973e-08
9.55333e-08
7.19802e-07
4.29895e-06
2.14732e-05
7.99197e-05
0.000200353
0.00036295
0.000619127
0.00106728
1.00343e-08
9.45529e-09
8.6711e-09
8.01184e-09
7.37021e-09
6.81843e-09
6.51279e-09
6.39446e-09
6.2936e-09
6.18969e-09
6.00155e-09
5.7606e-09
5.58582e-09
5.4267e-09
5.25079e-09
5.07662e-09
5.08761e-09
5.09425e-09
4.86727e-09
4.33389e-09
3.62788e-09
2.99742e-09
2.78807e-09
3.00972e-09
3.41452e-09
3.70247e-09
3.68704e-09
3.33865e-09
2.91852e-09
2.57296e-09
2.4806e-09
2.78622e-09
3.21795e-09
8.71226e-09
6.00374e-08
1.59716e-07
2.54839e-07
5.0518e-07
2.0072e-06
1.05049e-05
4.2236e-05
0.00014058
0.000433833
0.00116095
2.62197e-09
2.33057e-09
1.8819e-09
1.47424e-09
1.2245e-09
1.13742e-09
1.17417e-09
1.20385e-09
1.22084e-09
1.26583e-09
1.25828e-09
1.21472e-09
1.20513e-09
1.23137e-09
1.27166e-09
1.28445e-09
1.28889e-09
1.24942e-09
1.13528e-09
9.4281e-10
7.39826e-10
6.1499e-10
6.04854e-10
6.7591e-10
7.83975e-10
8.5265e-10
8.3198e-10
7.40989e-10
6.84718e-10
7.53998e-10
1.01855e-09
1.20606e-09
1.303e-09
2.9153e-09
1.86241e-08
5.38462e-08
8.30604e-08
1.33792e-07
3.36739e-07
1.10692e-06
2.56585e-06
4.08109e-06
4.92234e-06
2.538e-05
6.10161e-10
6.27065e-10
5.7434e-10
6.79835e-10
8.72684e-10
9.99082e-10
1.01756e-09
8.85614e-10
6.59635e-10
5.20348e-10
4.3579e-10
4.51966e-10
5.05672e-10
4.85874e-10
3.52581e-10
1.57533e-10
1.10193e-10
9.61433e-11
8.72557e-11
8.36469e-11
8.98802e-11
7.34385e-11
6.33136e-11
6.82537e-11
1.07672e-10
1.64667e-10
2.12374e-10
2.47799e-10
3.98613e-10
6.61313e-10
9.07088e-10
1.06642e-09
1.35131e-09
2.02937e-09
4.46757e-09
1.04966e-08
1.72925e-08
4.22195e-08
1.1003e-07
2.64135e-07
4.11697e-07
7.17277e-07
5.41991e-07
1.4082e-06
4.66667e-08
5.2453e-08
6.04844e-08
7.20563e-08
7.9733e-08
8.25579e-08
8.08738e-08
7.72644e-08
7.42163e-08
7.15225e-08
7.05964e-08
7.18533e-08
7.42389e-08
7.49888e-08
7.26549e-08
6.71396e-08
6.08264e-08
5.66297e-08
5.55115e-08
5.71665e-08
5.96531e-08
5.99805e-08
5.64968e-08
4.99554e-08
4.33388e-08
3.91905e-08
3.82452e-08
3.98663e-08
4.33265e-08
4.74725e-08
5.13415e-08
5.23275e-08
4.91163e-08
4.09793e-08
3.26629e-08
2.46302e-08
2.54946e-08
3.10948e-08
4.53511e-08
6.84207e-08
1.00407e-07
1.27477e-07
1.01336e-07
2.26137e-07
1.25083e-07
1.30281e-07
1.3588e-07
1.39861e-07
1.44792e-07
1.49995e-07
1.51833e-07
1.53448e-07
1.57382e-07
1.61625e-07
1.65837e-07
1.69227e-07
1.71609e-07
1.74892e-07
1.80578e-07
1.87827e-07
1.90635e-07
1.90544e-07
1.92586e-07
1.96459e-07
2.01029e-07
2.06868e-07
2.10901e-07
2.09084e-07
2.01752e-07
1.94453e-07
1.90996e-07
1.91128e-07
1.92325e-07
1.88451e-07
1.80204e-07
1.70416e-07
1.57742e-07
1.41268e-07
1.25115e-07
1.11025e-07
1.01981e-07
1.02682e-07
1.06815e-07
1.11723e-07
1.21224e-07
1.3422e-07
1.56536e-07
2.28279e-07
1.13593e-07
1.13901e-07
1.14464e-07
1.14191e-07
1.14146e-07
1.14571e-07
1.15789e-07
1.16909e-07
1.17148e-07
1.17417e-07
1.17686e-07
1.18003e-07
1.18682e-07
1.19454e-07
1.20305e-07
1.21006e-07
1.22602e-07
1.24281e-07
1.25043e-07
1.24887e-07
1.24202e-07
1.23677e-07
1.24917e-07
1.28406e-07
1.32299e-07
1.34345e-07
1.33997e-07
1.31592e-07
1.27724e-07
1.23219e-07
1.18911e-07
1.1456e-07
1.11478e-07
1.09992e-07
1.0937e-07
1.10242e-07
1.1223e-07
1.14063e-07
1.15946e-07
1.17556e-07
1.19655e-07
1.31907e-07
1.60744e-07
2.34258e-07
1.08138e-07
1.07894e-07
1.07645e-07
1.07384e-07
1.07168e-07
1.07119e-07
1.07123e-07
1.07117e-07
1.07124e-07
1.07266e-07
1.07337e-07
1.07164e-07
1.0692e-07
1.06869e-07
1.069e-07
1.07038e-07
1.07221e-07
1.07542e-07
1.07645e-07
1.07489e-07
1.07262e-07
1.07117e-07
1.07303e-07
1.07914e-07
1.08719e-07
1.09355e-07
1.09643e-07
1.09452e-07
1.08999e-07
1.08465e-07
1.07807e-07
1.07228e-07
1.0723e-07
1.07744e-07
1.08848e-07
1.09333e-07
1.10553e-07
1.12383e-07
1.15031e-07
1.17877e-07
1.21724e-07
1.31544e-07
1.37488e-07
1.59979e-07
1.06843e-07
1.06818e-07
1.06892e-07
1.0709e-07
1.07359e-07
1.07446e-07
1.07537e-07
1.07533e-07
1.0743e-07
1.07234e-07
1.06953e-07
1.06952e-07
1.0718e-07
1.07385e-07
1.0748e-07
1.07424e-07
1.07342e-07
1.07207e-07
1.07171e-07
1.07233e-07
1.07362e-07
1.07494e-07
1.07561e-07
1.07538e-07
1.07502e-07
1.07445e-07
1.07371e-07
1.07389e-07
1.076e-07
1.08012e-07
1.08609e-07
1.09155e-07
1.09412e-07
1.09117e-07
1.08825e-07
1.09929e-07
1.1179e-07
1.13586e-07
1.14722e-07
1.16924e-07
1.18976e-07
1.29426e-07
1.41668e-07
1.6943e-07
1.07457e-07
1.07387e-07
1.07333e-07
1.07133e-07
1.06913e-07
1.06916e-07
1.06863e-07
1.06804e-07
1.06766e-07
1.06842e-07
1.07057e-07
1.07132e-07
1.06969e-07
1.06785e-07
1.06664e-07
1.06699e-07
1.06819e-07
1.06934e-07
1.06983e-07
1.06931e-07
1.06836e-07
1.06768e-07
1.06815e-07
1.07031e-07
1.07306e-07
1.07609e-07
1.07921e-07
1.08193e-07
1.08348e-07
1.08367e-07
1.08264e-07
1.08087e-07
1.08366e-07
1.09002e-07
1.10216e-07
1.1071e-07
1.11163e-07
1.12679e-07
1.14956e-07
1.18165e-07
1.20884e-07
1.26824e-07
1.3162e-07
1.40836e-07
1.0703e-07
1.07027e-07
1.07055e-07
1.07235e-07
1.07394e-07
1.07363e-07
1.07405e-07
1.07452e-07
1.07431e-07
1.07366e-07
1.07151e-07
1.06967e-07
1.07004e-07
1.0713e-07
1.07267e-07
1.07334e-07
1.07291e-07
1.07288e-07
1.0729e-07
1.07355e-07
1.07476e-07
1.07603e-07
1.07686e-07
1.07695e-07
1.07684e-07
1.07649e-07
1.07605e-07
1.07596e-07
1.07719e-07
1.07967e-07
1.08382e-07
1.08717e-07
1.08975e-07
1.0876e-07
1.08463e-07
1.09218e-07
1.10888e-07
1.12867e-07
1.13582e-07
1.16074e-07
1.17857e-07
1.24816e-07
1.35187e-07
1.46468e-07
1.07584e-07
1.07581e-07
1.07597e-07
1.07407e-07
1.0737e-07
1.07443e-07
1.07433e-07
1.07378e-07
1.07335e-07
1.07355e-07
1.07457e-07
1.0762e-07
1.07637e-07
1.07572e-07
1.07498e-07
1.07451e-07
1.07503e-07
1.075e-07
1.07482e-07
1.07412e-07
1.0735e-07
1.07336e-07
1.07402e-07
1.07557e-07
1.07762e-07
1.07996e-07
1.08243e-07
1.08475e-07
1.08668e-07
1.08771e-07
1.08877e-07
1.08887e-07
1.09215e-07
1.09642e-07
1.10574e-07
1.11489e-07
1.11539e-07
1.12438e-07
1.14037e-07
1.16854e-07
1.18815e-07
1.22794e-07
1.27198e-07
1.33886e-07
1.07441e-07
1.0735e-07
1.07294e-07
1.07415e-07
1.07417e-07
1.07327e-07
1.07326e-07
1.07365e-07
1.07354e-07
1.07324e-07
1.07256e-07
1.07079e-07
1.07e-07
1.07029e-07
1.0709e-07
1.07165e-07
1.07211e-07
1.0729e-07
1.07398e-07
1.0749e-07
1.07533e-07
1.07582e-07
1.07639e-07
1.07696e-07
1.07733e-07
1.07742e-07
1.07737e-07
1.0775e-07
1.0782e-07
1.07924e-07
1.0815e-07
1.08329e-07
1.08576e-07
1.08562e-07
1.08464e-07
1.0901e-07
1.10306e-07
1.12372e-07
1.13063e-07
1.15195e-07
1.1665e-07
1.21156e-07
1.2806e-07
1.353e-07
1.07472e-07
1.07534e-07
1.07584e-07
1.07488e-07
1.07541e-07
1.07603e-07
1.07642e-07
1.07633e-07
1.07624e-07
1.07642e-07
1.07665e-07
1.07761e-07
1.07829e-07
1.07821e-07
1.07806e-07
1.07785e-07
1.07774e-07
1.07738e-07
1.07663e-07
1.07625e-07
1.07631e-07
1.07655e-07
1.07717e-07
1.07815e-07
1.07942e-07
1.08104e-07
1.08301e-07
1.08493e-07
1.08718e-07
1.08899e-07
1.09081e-07
1.0914e-07
1.09474e-07
1.09728e-07
1.10386e-07
1.11239e-07
1.11522e-07
1.12384e-07
1.13132e-07
1.15175e-07
1.16758e-07
1.19838e-07
1.23415e-07
1.28377e-07
1.07707e-07
1.07585e-07
1.07516e-07
1.07559e-07
1.07502e-07
1.07467e-07
1.07426e-07
1.07422e-07
1.07388e-07
1.07348e-07
1.07313e-07
1.07253e-07
1.07175e-07
1.07171e-07
1.07204e-07
1.07259e-07
1.07337e-07
1.07419e-07
1.07496e-07
1.07547e-07
1.07573e-07
1.07603e-07
1.07643e-07
1.07697e-07
1.07758e-07
1.0779e-07
1.07806e-07
1.07818e-07
1.07818e-07
1.07876e-07
1.08107e-07
1.08256e-07
1.08543e-07
1.08643e-07
1.0869e-07
1.0917e-07
1.10002e-07
1.11666e-07
1.12344e-07
1.14121e-07
1.15541e-07
1.18599e-07
1.23134e-07
1.27778e-07
1.07464e-07
1.07516e-07
1.07562e-07
1.07536e-07
1.07572e-07
1.07589e-07
1.07625e-07
1.07642e-07
1.0765e-07
1.07669e-07
1.07681e-07
1.07709e-07
1.07763e-07
1.07783e-07
1.07789e-07
1.0778e-07
1.07758e-07
1.07732e-07
1.07711e-07
1.07689e-07
1.07689e-07
1.07698e-07
1.07729e-07
1.07785e-07
1.07859e-07
1.07978e-07
1.08139e-07
1.08346e-07
1.08581e-07
1.08735e-07
1.08937e-07
1.08997e-07
1.09299e-07
1.09558e-07
1.1004e-07
1.10843e-07
1.11038e-07
1.12035e-07
1.12387e-07
1.14017e-07
1.15059e-07
1.17387e-07
1.20273e-07
1.23376e-07
1.0771e-07
1.07613e-07
1.07554e-07
1.07533e-07
1.07515e-07
1.07513e-07
1.07495e-07
1.07487e-07
1.07466e-07
1.07448e-07
1.07427e-07
1.07397e-07
1.0735e-07
1.07328e-07
1.07328e-07
1.0735e-07
1.07388e-07
1.07431e-07
1.07468e-07
1.07511e-07
1.07545e-07
1.07588e-07
1.07645e-07
1.07725e-07
1.07815e-07
1.07878e-07
1.07927e-07
1.07898e-07
1.07927e-07
1.08002e-07
1.08227e-07
1.08331e-07
1.08571e-07
1.08761e-07
1.08841e-07
1.09254e-07
1.09836e-07
1.11172e-07
1.11696e-07
1.13128e-07
1.14396e-07
1.16556e-07
1.1981e-07
1.22427e-07
1.07542e-07
1.07579e-07
1.07607e-07
1.07624e-07
1.07636e-07
1.0763e-07
1.07634e-07
1.07639e-07
1.07637e-07
1.07638e-07
1.07643e-07
1.07654e-07
1.07678e-07
1.07702e-07
1.07726e-07
1.0774e-07
1.07746e-07
1.07754e-07
1.07754e-07
1.07743e-07
1.07737e-07
1.07738e-07
1.07753e-07
1.07773e-07
1.07801e-07
1.07867e-07
1.07987e-07
1.08158e-07
1.08354e-07
1.08473e-07
1.0867e-07
1.08753e-07
1.09018e-07
1.09346e-07
1.09681e-07
1.10344e-07
1.10508e-07
1.1141e-07
1.11707e-07
1.12966e-07
1.13898e-07
1.15588e-07
1.17784e-07
1.1967e-07
1.077e-07
1.07633e-07
1.07581e-07
1.07544e-07
1.07525e-07
1.07516e-07
1.07507e-07
1.07501e-07
1.07492e-07
1.07481e-07
1.07468e-07
1.07451e-07
1.07431e-07
1.07412e-07
1.07399e-07
1.07399e-07
1.07413e-07
1.07432e-07
1.07453e-07
1.07482e-07
1.07515e-07
1.07557e-07
1.07611e-07
1.07689e-07
1.07792e-07
1.07885e-07
1.07961e-07
1.07994e-07
1.08067e-07
1.08147e-07
1.08352e-07
1.08428e-07
1.08591e-07
1.08822e-07
1.08851e-07
1.09218e-07
1.09643e-07
1.10676e-07
1.11151e-07
1.12272e-07
1.13279e-07
1.14908e-07
1.17489e-07
1.18758e-07
1.07598e-07
1.07609e-07
1.07612e-07
1.07621e-07
1.07626e-07
1.07625e-07
1.07626e-07
1.0763e-07
1.07624e-07
1.07625e-07
1.07625e-07
1.0763e-07
1.0764e-07
1.07656e-07
1.07679e-07
1.077e-07
1.07713e-07
1.07728e-07
1.07733e-07
1.07732e-07
1.07735e-07
1.07743e-07
1.07764e-07
1.07793e-07
1.07817e-07
1.0785e-07
1.07916e-07
1.08007e-07
1.08143e-07
1.08229e-07
1.08394e-07
1.0851e-07
1.08747e-07
1.09129e-07
1.09308e-07
1.09836e-07
1.10023e-07
1.10789e-07
1.11126e-07
1.12074e-07
1.12956e-07
1.1414e-07
1.15761e-07
1.17149e-07
1.07645e-07
1.07617e-07
1.07583e-07
1.07555e-07
1.07539e-07
1.07528e-07
1.07518e-07
1.07519e-07
1.07506e-07
1.07495e-07
1.07482e-07
1.07464e-07
1.07446e-07
1.07427e-07
1.0742e-07
1.07418e-07
1.07429e-07
1.07446e-07
1.07466e-07
1.07496e-07
1.0753e-07
1.0757e-07
1.0762e-07
1.07685e-07
1.0777e-07
1.07866e-07
1.07969e-07
1.08062e-07
1.08182e-07
1.0824e-07
1.08391e-07
1.08501e-07
1.0856e-07
1.08775e-07
1.08776e-07
1.09094e-07
1.09436e-07
1.10216e-07
1.1065e-07
1.11511e-07
1.12345e-07
1.13613e-07
1.15502e-07
1.16419e-07
1.07651e-07
1.07643e-07
1.07633e-07
1.07631e-07
1.0763e-07
1.07625e-07
1.07619e-07
1.07615e-07
1.07607e-07
1.07615e-07
1.07608e-07
1.07615e-07
1.07624e-07
1.07639e-07
1.07655e-07
1.07675e-07
1.0769e-07
1.07707e-07
1.07717e-07
1.07723e-07
1.07731e-07
1.0774e-07
1.07762e-07
1.07792e-07
1.07825e-07
1.07853e-07
1.07887e-07
1.07919e-07
1.0801e-07
1.08087e-07
1.08226e-07
1.08385e-07
1.08452e-07
1.08863e-07
1.08997e-07
1.09405e-07
1.0963e-07
1.1026e-07
1.10657e-07
1.11366e-07
1.12121e-07
1.12951e-07
1.14147e-07
1.1524e-07
1.07605e-07
1.07588e-07
1.07567e-07
1.0754e-07
1.07524e-07
1.07513e-07
1.07507e-07
1.07507e-07
1.07505e-07
1.07485e-07
1.07483e-07
1.07471e-07
1.07458e-07
1.07444e-07
1.07448e-07
1.07447e-07
1.07456e-07
1.07472e-07
1.0749e-07
1.07514e-07
1.07543e-07
1.07583e-07
1.07627e-07
1.07677e-07
1.07745e-07
1.07827e-07
1.07938e-07
1.0804e-07
1.08162e-07
1.08219e-07
1.08313e-07
1.08473e-07
1.08464e-07
1.08715e-07
1.08689e-07
1.08928e-07
1.09207e-07
1.098e-07
1.10203e-07
1.10866e-07
1.11552e-07
1.12526e-07
1.13908e-07
1.14756e-07
1.07681e-07
1.07666e-07
1.07656e-07
1.07651e-07
1.07646e-07
1.07639e-07
1.07632e-07
1.07627e-07
1.07622e-07
1.07618e-07
1.07625e-07
1.07622e-07
1.07625e-07
1.0763e-07
1.07643e-07
1.07657e-07
1.07676e-07
1.07689e-07
1.07702e-07
1.07713e-07
1.07721e-07
1.07729e-07
1.07743e-07
1.07771e-07
1.07807e-07
1.07839e-07
1.07864e-07
1.07882e-07
1.07947e-07
1.08017e-07
1.08098e-07
1.08273e-07
1.08254e-07
1.08573e-07
1.08695e-07
1.09043e-07
1.09301e-07
1.09817e-07
1.1022e-07
1.1078e-07
1.11419e-07
1.11984e-07
1.12868e-07
1.13798e-07
1.07602e-07
1.07575e-07
1.0755e-07
1.07522e-07
1.07507e-07
1.075e-07
1.07495e-07
1.07494e-07
1.07489e-07
1.0749e-07
1.07473e-07
1.07471e-07
1.07469e-07
1.07475e-07
1.07469e-07
1.07484e-07
1.07489e-07
1.07501e-07
1.07519e-07
1.07536e-07
1.07567e-07
1.07594e-07
1.07636e-07
1.07675e-07
1.07725e-07
1.07786e-07
1.07874e-07
1.07974e-07
1.0807e-07
1.08171e-07
1.08194e-07
1.08392e-07
1.08323e-07
1.08606e-07
1.08677e-07
1.08767e-07
1.08963e-07
1.09412e-07
1.09803e-07
1.10311e-07
1.10871e-07
1.11632e-07
1.1267e-07
1.13297e-07
1.07676e-07
1.07662e-07
1.07664e-07
1.07662e-07
1.07659e-07
1.07652e-07
1.07643e-07
1.0764e-07
1.0764e-07
1.07637e-07
1.07629e-07
1.0764e-07
1.07631e-07
1.0763e-07
1.07639e-07
1.07644e-07
1.07658e-07
1.07671e-07
1.07679e-07
1.07695e-07
1.07698e-07
1.07713e-07
1.07733e-07
1.07758e-07
1.07791e-07
1.07825e-07
1.07863e-07
1.07853e-07
1.07877e-07
1.07958e-07
1.07955e-07
1.08168e-07
1.08098e-07
1.08376e-07
1.08476e-07
1.08704e-07
1.09001e-07
1.09442e-07
1.09816e-07
1.1027e-07
1.1079e-07
1.11222e-07
1.11913e-07
1.12597e-07
1.07608e-07
1.07574e-07
1.0755e-07
1.07527e-07
1.07504e-07
1.07498e-07
1.07496e-07
1.07493e-07
1.07487e-07
1.07484e-07
1.07477e-07
1.07481e-07
1.07486e-07
1.07477e-07
1.07489e-07
1.07505e-07
1.07512e-07
1.07523e-07
1.0754e-07
1.07554e-07
1.0757e-07
1.07588e-07
1.07611e-07
1.0764e-07
1.07677e-07
1.07723e-07
1.07781e-07
1.07862e-07
1.07942e-07
1.08083e-07
1.08053e-07
1.08285e-07
1.08205e-07
1.08423e-07
1.08543e-07
1.08662e-07
1.08789e-07
1.09087e-07
1.09443e-07
1.09851e-07
1.10315e-07
1.10875e-07
1.11672e-07
1.12211e-07
1.07669e-07
1.07658e-07
1.07651e-07
1.07655e-07
1.07657e-07
1.07653e-07
1.07645e-07
1.07643e-07
1.07643e-07
1.07642e-07
1.07638e-07
1.0763e-07
1.0763e-07
1.07626e-07
1.07627e-07
1.07633e-07
1.07639e-07
1.07644e-07
1.07659e-07
1.0766e-07
1.07677e-07
1.07694e-07
1.07714e-07
1.07737e-07
1.07764e-07
1.07794e-07
1.07824e-07
1.07865e-07
1.07844e-07
1.07945e-07
1.07862e-07
1.08081e-07
1.07992e-07
1.08186e-07
1.08329e-07
1.08473e-07
1.08677e-07
1.09036e-07
1.09444e-07
1.09847e-07
1.10255e-07
1.10658e-07
1.11156e-07
1.11726e-07
1.07614e-07
1.07588e-07
1.07554e-07
1.07541e-07
1.07523e-07
1.07505e-07
1.07504e-07
1.075e-07
1.07493e-07
1.07491e-07
1.07485e-07
1.07494e-07
1.07489e-07
1.07498e-07
1.07506e-07
1.07516e-07
1.07522e-07
1.07542e-07
1.07538e-07
1.07556e-07
1.0756e-07
1.0757e-07
1.07585e-07
1.0761e-07
1.0764e-07
1.07682e-07
1.07717e-07
1.07787e-07
1.07792e-07
1.07943e-07
1.07889e-07
1.08131e-07
1.08081e-07
1.08236e-07
1.08398e-07
1.08502e-07
1.08647e-07
1.08862e-07
1.0915e-07
1.09466e-07
1.09835e-07
1.10281e-07
1.10867e-07
1.11391e-07
1.07658e-07
1.07648e-07
1.07637e-07
1.07639e-07
1.07646e-07
1.07643e-07
1.07636e-07
1.07635e-07
1.07636e-07
1.07633e-07
1.07629e-07
1.07621e-07
1.07619e-07
1.07615e-07
1.07613e-07
1.07616e-07
1.07617e-07
1.07625e-07
1.07626e-07
1.07639e-07
1.07652e-07
1.07668e-07
1.07682e-07
1.07703e-07
1.07718e-07
1.07745e-07
1.07758e-07
1.07818e-07
1.07792e-07
1.07931e-07
1.07827e-07
1.08025e-07
1.07949e-07
1.08046e-07
1.08218e-07
1.08311e-07
1.08465e-07
1.08719e-07
1.09044e-07
1.09406e-07
1.09767e-07
1.10127e-07
1.10537e-07
1.11008e-07
1.07617e-07
1.07598e-07
1.07578e-07
1.07557e-07
1.07539e-07
1.07522e-07
1.07517e-07
1.07511e-07
1.07505e-07
1.07502e-07
1.07502e-07
1.07505e-07
1.075e-07
1.07506e-07
1.07511e-07
1.07518e-07
1.07529e-07
1.0752e-07
1.07538e-07
1.07539e-07
1.07543e-07
1.07552e-07
1.07567e-07
1.07592e-07
1.07612e-07
1.07651e-07
1.07664e-07
1.07739e-07
1.07704e-07
1.07853e-07
1.07763e-07
1.07963e-07
1.07932e-07
1.08025e-07
1.08218e-07
1.08334e-07
1.08473e-07
1.08667e-07
1.08909e-07
1.09166e-07
1.09461e-07
1.09837e-07
1.10304e-07
1.10736e-07
1.0766e-07
1.07644e-07
1.07635e-07
1.07623e-07
1.07632e-07
1.07633e-07
1.07623e-07
1.07624e-07
1.07623e-07
1.07619e-07
1.07613e-07
1.07606e-07
1.07597e-07
1.07596e-07
1.07593e-07
1.07596e-07
1.07593e-07
1.07595e-07
1.07604e-07
1.07615e-07
1.07623e-07
1.07636e-07
1.07643e-07
1.07657e-07
1.07662e-07
1.07692e-07
1.07691e-07
1.07765e-07
1.07715e-07
1.07864e-07
1.0777e-07
1.0795e-07
1.07921e-07
1.07961e-07
1.08121e-07
1.08202e-07
1.08302e-07
1.08489e-07
1.08743e-07
1.09017e-07
1.09323e-07
1.09669e-07
1.10055e-07
1.10452e-07
1.07612e-07
1.07595e-07
1.07581e-07
1.07559e-07
1.07553e-07
1.0754e-07
1.07531e-07
1.07521e-07
1.07514e-07
1.07511e-07
1.07511e-07
1.07509e-07
1.07504e-07
1.07505e-07
1.07507e-07
1.07511e-07
1.07507e-07
1.07523e-07
1.07522e-07
1.07527e-07
1.07533e-07
1.07543e-07
1.07555e-07
1.07576e-07
1.07587e-07
1.07623e-07
1.07618e-07
1.07697e-07
1.0764e-07
1.07783e-07
1.0769e-07