/*--------------------------------*- C++ -*----------------------------------*\
| =========                 |                                                 |
| \\      /  F ield         | OpenFOAM: The Open Source CFD Toolbox           |
|  \\    /   O peration     | Version:  v1912                                 |
|   \\  /    A nd           | Website:  www.openfoam.com                      |
|    \\/     M anipulation  |                                                 |
\*---------------------------------------------------------------------------*/
FoamFile
{
    version     2.0;
    format      ascii;
    class       volScalarField;
    location    "60";
    object      k;
}
// * * * * * * * * * * * * * * * * * * * * * * * * * * * * * * * * * * * * * //

dimensions      [0 2 -2 0 0 0 0];


internalField   nonuniform List<scalar> 
14268
(
0.0301133
0.0541394
0.0648582
0.066804
0.0687304
0.0754609
0.068271
0.0506423
0.0417528
0.0360666
0.0292454
0.0250138
0.0145558
0.00420169
0.00655341
0.00362955
0.00533721
0.0160292
0.0237713
0.0224605
0.0250121
0.0354383
0.0361739
0.0196572
0.0118096
0.0128831
0.0115184
0.0118865
0.00912281
0.00699684
0.00547961
0.00510288
0.00487517
0.00479252
0.00483206
0.0048927
0.00495484
0.00491663
0.0048383
0.00463215
0.00439301
0.00419356
0.00404609
0.00408495
0.00417545
0.0042278
0.00418792
0.00400439
0.00369303
0.00354481
0.00344957
0.0033146
0.00321177
0.00334486
0.00390635
0.00622632
0.00971163
0.0108412
0.0119307
0.0153736
0.0117086
0.00662006
0.00442246
0.00384724
0.00324532
0.00438689
0.00849836
0.0124674
0.0188301
0.0260801
0.0251712
0.0205343
0.0142654
0.00956277
0.00616213
0.00261909
0.000926003
0.00157193
0.00512807
0.00483242
0.00255104
0.00118488
0.00117129
0.00145775
0.00194451
0.00268616
0.00296162
0.00249709
0.00151768
0.000517516
0.000217062
0.000129358
5.14428e-05
1.29903e-05
2.72978e-06
5.3264e-07
1.00195e-07
1.83944e-08
3.31501e-09
5.89791e-10
1.04276e-10
1.84802e-11
3.36681e-12
7.19732e-13
2.77849e-13
2.26574e-13
2.4053e-13
2.84355e-13
3.45984e-13
4.11797e-13
4.78103e-13
5.47624e-13
6.22992e-13
7.0449e-13
7.9125e-13
8.82603e-13
9.78295e-13
1.07825e-12
1.18247e-12
1.29107e-12
1.40416e-12
1.52185e-12
1.64402e-12
1.77015e-12
1.89961e-12
2.03185e-12
2.16633e-12
2.3026e-12
2.44033e-12
2.5793e-12
2.71934e-12
2.86036e-12
3.0022e-12
3.14467e-12
3.28751e-12
3.43038e-12
3.57297e-12
3.71497e-12
3.85616e-12
3.99627e-12
4.13512e-12
4.27254e-12
4.40828e-12
4.54234e-12
4.67427e-12
4.80464e-12
4.93018e-12
5.06106e-12
5.16772e-12
5.30818e-12
0.101936
0.167189
0.195328
0.199356
0.205366
0.223421
0.199904
0.152192
0.119707
0.101174
0.090153
0.0812398
0.0491363
0.0160644
0.0343179
0.0208098
0.0230983
0.0562361
0.0772883
0.0749221
0.0840511
0.108065
0.107862
0.0598688
0.0436402
0.0474046
0.0353166
0.0356544
0.0284568
0.0236024
0.0185394
0.0169248
0.0161522
0.0160504
0.0164088
0.016881
0.0173939
0.0178721
0.0184537
0.0182893
0.0179913
0.0175465
0.017081
0.0174238
0.0180675
0.0184157
0.0181084
0.0175722
0.0171791
0.0168001
0.0158931
0.0143156
0.0132863
0.0145294
0.017679
0.0261657
0.0392699
0.044793
0.0520113
0.0767702
0.0739633
0.0418041
0.0260171
0.0228016
0.0178372
0.0233553
0.0392386
0.0529293
0.0757091
0.103987
0.103528
0.0873522
0.0633874
0.0456513
0.0308913
0.0134118
0.0044317
0.00531689
0.0185974
0.0191171
0.0115107
0.00606343
0.00609106
0.007216
0.0089799
0.011883
0.0133005
0.011792
0.00811348
0.00335836
0.00144068
0.00116429
0.000695998
0.000217839
5.23907e-05
1.12538e-05
2.2652e-06
4.36062e-07
8.13234e-08
1.48505e-08
2.68169e-09
4.84038e-10
8.97484e-11
1.96213e-11
7.79842e-12
6.44989e-12
6.87121e-12
8.14274e-12
9.91834e-12
1.18141e-11
1.3728e-11
1.57384e-11
1.79198e-11
2.02796e-11
2.27932e-11
2.54414e-11
2.82172e-11
3.11184e-11
3.41459e-11
3.73035e-11
4.05949e-11
4.40237e-11
4.75864e-11
5.12672e-11
5.50477e-11
5.89125e-11
6.28463e-11
6.68352e-11
7.08694e-11
7.49421e-11
7.9049e-11
8.31867e-11
8.73516e-11
9.15378e-11
9.5738e-11
9.99419e-11
1.0414e-10
1.08324e-10
1.12487e-10
1.16619e-10
1.20718e-10
1.24775e-10
1.28786e-10
1.32749e-10
1.36651e-10
1.40508e-10
1.44225e-10
1.48103e-10
1.51251e-10
1.55447e-10
0.160929
0.242315
0.295007
0.297407
0.310595
0.341516
0.306531
0.221951
0.176839
0.150477
0.140234
0.135311
0.0834508
0.0227314
0.0262661
0.0214015
0.0428787
0.0930942
0.116953
0.123444
0.146616
0.166554
0.15081
0.0718875
0.0725722
0.0797468
0.0393951
0.0448179
0.0467568
0.04394
0.0342646
0.0292123
0.0267931
0.0258627
0.0257653
0.0259451
0.0262587
0.0265444
0.0269149
0.0264118
0.0255931
0.024521
0.0235151
0.0247559
0.0264132
0.0278229
0.0285633
0.0290482
0.0290672
0.0286531
0.0265218
0.0219064
0.0208187
0.0245654
0.032938
0.043502
0.0590022
0.0640738
0.0671853
0.0788458
0.0681576
0.0426396
0.0269747
0.0255348
0.0249525
0.0413109
0.0784235
0.100867
0.135125
0.180516
0.185022
0.163605
0.127242
0.0967005
0.0704917
0.0293911
0.00804286
0.0103712
0.0316158
0.0344031
0.0218009
0.0123637
0.0125868
0.0148252
0.01764
0.022266
0.0247415
0.0224981
0.0166904
0.00836476
0.0023887
0.00121285
0.00108892
0.000601049
0.000160786
3.75078e-05
8.12494e-06
1.68024e-06
3.3694e-07
6.62267e-08
1.28613e-08
2.48917e-09
4.94684e-10
1.18081e-10
5.21202e-11
4.50141e-11
4.83493e-11
5.75029e-11
6.99953e-11
8.32473e-11
9.66207e-11
1.10672e-10
1.25905e-10
1.42359e-10
1.59859e-10
1.78271e-10
1.97541e-10
2.17653e-10
2.38612e-10
2.6044e-10
2.8316e-10
3.06794e-10
3.31314e-10
3.56609e-10
3.82551e-10
4.09031e-10
4.35945e-10
4.63198e-10
4.90722e-10
5.18472e-10
5.46419e-10
5.74537e-10
6.02804e-10
6.31178e-10
6.59611e-10
6.8803e-10
7.16381e-10
7.44599e-10
7.72638e-10
8.00448e-10
8.27993e-10
8.55237e-10
8.82136e-10
9.08688e-10
9.34804e-10
9.60599e-10
9.8542e-10
1.01131e-09
1.0323e-09
1.06025e-09
0.185143
0.260037
0.353205
0.408335
0.430213
0.47346
0.426428
0.311349
0.254561
0.218525
0.19632
0.184402
0.121198
0.0363368
0.0240311
0.0247717
0.0614979
0.125547
0.142873
0.165075
0.207097
0.243416
0.18376
0.0742476
0.0891642
0.0766544
0.0429499
0.0541476
0.0492122
0.0457279
0.0342142
0.0281772
0.0255408
0.0244005
0.0244149
0.0250412
0.0262054
0.0276103
0.029555
0.0311951
0.033146
0.0345088
0.0358909
0.0382355
0.040572
0.0428071
0.0444412
0.0458773
0.0461149
0.0456654
0.0436511
0.0393582
0.032008
0.0413517
0.0651788
0.0717909
0.079451
0.0753942
0.0747866
0.0769858
0.0632446
0.0443116
0.029768
0.0250713
0.0267589
0.0523445
0.102801
0.126571
0.160919
0.210614
0.225919
0.210541
0.17493
0.139945
0.105806
0.0479115
0.00880061
0.0147632
0.0437251
0.0474301
0.0304541
0.0179563
0.0176136
0.0199321
0.0230045
0.0287216
0.0325824
0.0306401
0.0241624
0.0143806
0.00467428
0.00133752
0.000865166
0.000689544
0.000266745
6.17434e-05
1.38649e-05
3.03611e-06
6.52523e-07
1.3857e-07
2.91454e-08
6.09634e-09
1.31406e-09
3.51567e-10
1.77364e-10
1.61024e-10
1.74823e-10
2.0882e-10
2.53751e-10
3.0094e-10
3.48489e-10
3.98413e-10
4.52416e-10
5.10568e-10
5.72211e-10
6.36861e-10
7.04317e-10
7.74503e-10
8.47419e-10
9.23123e-10
1.00168e-09
1.08313e-09
1.16737e-09
1.25399e-09
1.34254e-09
1.43265e-09
1.52396e-09
1.61614e-09
1.70897e-09
1.80229e-09
1.89601e-09
1.99004e-09
2.08432e-09
2.17869e-09
2.273e-09
2.36702e-09
2.46059e-09
2.55349e-09
2.64558e-09
2.7367e-09
2.82675e-09
2.91561e-09
3.00316e-09
3.0894e-09
3.17403e-09
3.25751e-09
3.33759e-09
3.42109e-09
3.48852e-09
3.57851e-09
0.203533
0.2763
0.395878
0.52681
0.563553
0.638253
0.584271
0.432667
0.354597
0.318176
0.281447
0.233505
0.148428
0.0649531
0.0315766
0.0321325
0.0769485
0.166292
0.180342
0.191034
0.260788
0.342393
0.263723
0.107387
0.0901737
0.0666902
0.0504998
0.0545875
0.0629136
0.0561553
0.0401164
0.031982
0.0287184
0.0273887
0.0275454
0.0286607
0.0306096
0.032841
0.0357975
0.038602
0.0420182
0.0444261
0.0467635
0.0498565
0.0524892
0.0550277
0.0569264
0.058712
0.0590102
0.0585143
0.0564991
0.0531383
0.0432987
0.0591495
0.0999731
0.10822
0.0969763
0.0818442
0.0768988
0.0752624
0.0622336
0.0453238
0.031211
0.0250012
0.0235527
0.0547225
0.114638
0.125447
0.154967
0.213279
0.233762
0.225859
0.197893
0.168432
0.131118
0.0663907
0.0103818
0.0151125
0.048011
0.0595578
0.0393885
0.0223307
0.0196548
0.020956
0.0242896
0.031012
0.0369388
0.0358042
0.029565
0.0189993
0.0079114
0.00202315
0.000680127
0.000468528
0.000237302
6.30483e-05
1.56294e-05
3.81449e-06
9.13494e-07
2.13623e-07
4.87413e-08
1.09479e-08
2.54477e-09
7.63587e-10
4.36368e-10
4.12546e-10
4.52607e-10
5.42426e-10
6.57272e-10
7.76508e-10
8.96301e-10
1.02183e-09
1.15709e-09
1.30203e-09
1.4549e-09
1.61444e-09
1.78009e-09
1.9516e-09
2.12892e-09
2.31212e-09
2.50127e-09
2.69644e-09
2.89727e-09
3.10277e-09
3.3118e-09
3.52345e-09
3.73686e-09
3.9513e-09
4.16628e-09
4.3814e-09
4.59646e-09
4.81126e-09
5.0257e-09
5.23942e-09
5.45212e-09
5.6633e-09
5.87262e-09
6.07962e-09
6.28403e-09
6.48552e-09
6.68389e-09
6.87897e-09
7.07046e-09
7.25851e-09
7.44234e-09
7.62324e-09
7.79598e-09
7.97597e-09
8.12036e-09
8.3136e-09
0.19671
0.28665
0.39062
0.524951
0.585106
0.753039
0.69994
0.504464
0.416523
0.395204
0.362514
0.29184
0.163459
0.0934406
0.0558284
0.0458689
0.0878313
0.207248
0.226977
0.199786
0.294917
0.412325
0.362415
0.170286
0.0695286
0.0591967
0.0533829
0.0733362
0.0809871
0.0682202
0.04683
0.0365264
0.0325687
0.0309854
0.0311535
0.0325728
0.0350174
0.0377332
0.0413372
0.0448411
0.0492383
0.0522889
0.0552204
0.0589347
0.061725
0.0644032
0.0664191
0.0684656
0.0690472
0.0686618
0.0664367
0.0635078
0.0520249
0.0553517
0.108918
0.108379
0.0912109
0.0840398
0.0833402
0.0843967
0.0744022
0.0561612
0.0369712
0.0261805
0.0243757
0.0422143
0.0964753
0.0991662
0.130545
0.207667
0.223737
0.210368
0.180944
0.162265
0.134735
0.075795
0.0139422
0.0107677
0.0380397
0.0577153
0.0431346
0.0213397
0.0163107
0.0171017
0.0219483
0.0315318
0.0386507
0.0378759
0.0325959
0.0225323
0.0107839
0.00351786
0.000855275
0.000317561
0.000147744
5.50452e-05
1.63303e-05
4.51619e-06
1.18387e-06
2.96648e-07
7.16231e-08
1.69362e-08
4.19332e-09
1.40095e-09
8.90491e-10
8.67358e-10
9.60808e-10
1.15363e-09
1.39258e-09
1.63736e-09
1.88231e-09
2.13823e-09
2.41245e-09
2.70428e-09
3.00999e-09
3.32693e-09
3.65384e-09
3.99009e-09
4.33543e-09
4.68989e-09
5.05345e-09
5.4261e-09
5.80704e-09
6.19426e-09
6.5855e-09
6.97898e-09
7.3732e-09
7.76664e-09
8.15867e-09
8.54857e-09
8.93607e-09
9.32082e-09
9.7027e-09
1.00811e-08
1.04556e-08
1.08254e-08
1.119e-08
1.15486e-08
1.19009e-08
1.22464e-08
1.25848e-08
1.29161e-08
1.32397e-08
1.35561e-08
1.38639e-08
1.41658e-08
1.44522e-08
1.47505e-08
1.49875e-08
1.53059e-08
0.221044
0.344135
0.403915
0.477334
0.539945
0.804424
0.802169
0.525973
0.438655
0.434932
0.422828
0.368648
0.1956
0.107084
0.0843247
0.0614687
0.0880963
0.248297
0.279111
0.212631
0.301869
0.447645
0.447396
0.235524
0.0487076
0.0570798
0.0633705
0.0963539
0.09718
0.0794194
0.0532877
0.0410277
0.0365282
0.0347044
0.0348094
0.0364827
0.0393485
0.0424378
0.0465763
0.0506475
0.0558891
0.0594421
0.0628136
0.0670787
0.06979
0.0719327
0.0737443
0.0761425
0.0775383
0.0775618
0.0750969
0.0725081
0.0622092
0.0436895
0.0883549
0.0906127
0.0921677
0.0941299
0.10242
0.106059
0.0944716
0.0714985
0.0471502
0.0295503
0.0268517
0.0291238
0.0652485
0.0719612
0.133892
0.242416
0.253916
0.222505
0.168532
0.138844
0.113937
0.0624274
0.0135978
0.00724965
0.0223348
0.0411245
0.0324586
0.0154181
0.0135727
0.0172019
0.0241851
0.0363468
0.0435608
0.0421571
0.0357909
0.0252336
0.0129929
0.00516858
0.00149877
0.000382693
0.000127107
5.44097e-05
1.87532e-05
5.56616e-06
1.5272e-06
3.96277e-07
9.86941e-08
2.4132e-08
6.29586e-09
2.31897e-09
1.6077e-09
1.59901e-09
1.78672e-09
2.14572e-09
2.57821e-09
3.01375e-09
3.44806e-09
3.90014e-09
4.38082e-09
4.88789e-09
5.41458e-09
5.9561e-09
6.51004e-09
7.07509e-09
7.65068e-09
8.23666e-09
8.83279e-09
9.43886e-09
1.00535e-08
1.06732e-08
1.12941e-08
1.19128e-08
1.25277e-08
1.3137e-08
1.37395e-08
1.43343e-08
1.49209e-08
1.54992e-08
1.60689e-08
1.66295e-08
1.71805e-08
1.77209e-08
1.82501e-08
1.87673e-08
1.92722e-08
1.97644e-08
2.02437e-08
2.07102e-08
2.11631e-08
2.16037e-08
2.20294e-08
2.24455e-08
2.28368e-08
2.32444e-08
2.35641e-08
2.39958e-08
0.27575
0.429059
0.466988
0.412266
0.475924
0.753158
0.851092
0.512222
0.418945
0.424615
0.439529
0.433861
0.257422
0.10482
0.105712
0.0775899
0.0819949
0.282216
0.326175
0.239728
0.282843
0.432916
0.484275
0.286472
0.0534027
0.0644122
0.0874672
0.115106
0.110405
0.0886632
0.0586046
0.0446903
0.0398619
0.0379287
0.0379877
0.0399172
0.0431437
0.0465251
0.0511151
0.0556691
0.0616805
0.0656495
0.0691791
0.0730895
0.0738445
0.0733128
0.0738444
0.0770628
0.0816815
0.0847636
0.0827815
0.0804147
0.0718472
0.0457621
0.0619809
0.0816953
0.102359
0.11856
0.129198
0.127781
0.111626
0.0839306
0.0564829
0.0354987
0.0289153
0.03276
0.0461747
0.0712228
0.172765
0.301721
0.314025
0.273458
0.195614
0.144381
0.11054
0.0569184
0.0160735
0.00824102
0.0100256
0.0207691
0.0167673
0.0118111
0.0165666
0.0229567
0.0309525
0.0435813
0.0510325
0.049042
0.0406614
0.0276017
0.0144616
0.00659445
0.00233906
0.000695605
0.000203454
7.05927e-05
2.39219e-05
7.15981e-06
1.97647e-06
5.17276e-07
1.30605e-07
3.26319e-08
8.90133e-09
3.57742e-09
2.65812e-09
2.68277e-09
3.01989e-09
3.62175e-09
4.32813e-09
5.02441e-09
5.71779e-09
6.43547e-09
7.19104e-09
7.97967e-09
8.79058e-09
9.61607e-09
1.0452e-08
1.12963e-08
1.21479e-08
1.30067e-08
1.38718e-08
1.47432e-08
1.56191e-08
1.64925e-08
1.73576e-08
1.82125e-08
1.90545e-08
1.98812e-08
2.06914e-08
2.14841e-08
2.22593e-08
2.30167e-08
2.37567e-08
2.44785e-08
2.51818e-08
2.58659e-08
2.65305e-08
2.7175e-08
2.77994e-08
2.84039e-08
2.89885e-08
2.95539e-08
3.00997e-08
3.06283e-08
3.11358e-08
3.163e-08
3.20895e-08
3.2568e-08
3.29376e-08
3.34387e-08
0.330958
0.512978
0.532498
0.365545
0.414169
0.689677
0.85435
0.541977
0.446296
0.449549
0.4696
0.495318
0.327706
0.0969962
0.11923
0.0939686
0.0766525
0.316196
0.375195
0.284701
0.298603
0.409818
0.478448
0.320217
0.0946502
0.0943991
0.115113
0.130484
0.120791
0.0962056
0.0624638
0.0469828
0.0421956
0.0406099
0.0408985
0.0432595
0.0468622
0.0505027
0.0554591
0.0603159
0.0666299
0.0699514
0.0722149
0.0730845
0.0690986
0.0644844
0.0640282
0.0677944
0.0766881
0.0873817
0.0895293
0.0877605
0.080836
0.0576201
0.0601302
0.089165
0.11648
0.144648
0.152314
0.145011
0.124034
0.0927161
0.0640472
0.0410777
0.0328837
0.0354598
0.0508976
0.0863162
0.213595
0.352946
0.366813
0.32335
0.239064
0.180644
0.139084
0.0770847
0.0268549
0.0104618
0.00744083
0.0100583
0.0104404
0.014073
0.0212179
0.0278541
0.0361775
0.0485866
0.0556538
0.0542686
0.045378
0.0304301
0.0157136
0.00766126
0.00311104
0.00106721
0.000335991
0.000103596
3.15063e-05
9.14103e-06
2.50505e-06
6.56379e-07
1.66842e-07
4.23445e-08
1.20236e-08
5.22818e-09
4.10688e-09
4.19233e-09
4.7446e-09
5.67591e-09
6.73888e-09
7.76338e-09
8.78222e-09
9.82897e-09
1.09179e-08
1.20406e-08
1.31814e-08
1.43294e-08
1.54781e-08
1.6624e-08
1.77679e-08
1.89087e-08
2.00448e-08
2.11775e-08
2.23029e-08
2.34113e-08
2.44977e-08
2.55597e-08
2.65941e-08
2.75986e-08
2.85726e-08
2.9516e-08
3.04301e-08
3.1316e-08
3.21755e-08
3.30065e-08
3.38072e-08
3.45773e-08
3.53171e-08
3.60267e-08
3.67067e-08
3.73578e-08
3.79805e-08
3.85762e-08
3.91445e-08
3.96889e-08
4.02047e-08
4.07054e-08
4.11657e-08
4.16464e-08
4.2011e-08
4.25107e-08
0.360378
0.563702
0.503764
0.335188
0.356059
0.616249
0.787379
0.560719
0.51538
0.516818
0.527356
0.549356
0.386212
0.0949522
0.114702
0.093774
0.0747464
0.345696
0.418322
0.323947
0.345037
0.388294
0.45599
0.320016
0.144206
0.13476
0.132783
0.134359
0.117917
0.0942282
0.0602715
0.0446866
0.0407628
0.0404096
0.0418205
0.0452134
0.0492216
0.0529526
0.0577134
0.0617959
0.0664976
0.0669742
0.0663553
0.0630456
0.0560807
0.0492469
0.0485695
0.0525072
0.063927
0.0816684
0.0924184
0.0943175
0.0888826
0.0711382
0.072124
0.0989281
0.134949
0.16534
0.171577
0.16013
0.133463
0.0983007
0.0695046
0.0459799
0.0365345
0.0380534
0.0559533
0.104733
0.245708
0.393628
0.409053
0.363434
0.274606
0.211017
0.164154
0.0964287
0.0377157
0.0172312
0.0103984
0.0101792
0.012601
0.0181888
0.0250493
0.031708
0.0391178
0.0501995
0.0568741
0.0562847
0.049195
0.0335226
0.017234
0.00844415
0.00371421
0.00136562
0.000454975
0.000140206
4.08119e-05
1.14052e-05
3.08351e-06
8.07254e-07
2.06069e-07
5.29391e-08
1.5613e-08
7.30504e-09
6.00931e-09
6.19163e-09
7.03416e-09
8.38505e-09
9.87871e-09
1.12869e-08
1.26847e-08
1.41078e-08
1.55681e-08
1.70532e-08
1.85406e-08
2.00145e-08
2.14705e-08
2.29061e-08
2.43215e-08
2.57156e-08
2.70862e-08
2.84352e-08
2.97578e-08
3.10443e-08
3.22915e-08
3.34996e-08
3.46629e-08
3.57748e-08
3.68353e-08
3.78451e-08
3.88059e-08
3.97191e-08
4.05866e-08
4.14117e-08
4.21983e-08
4.29474e-08
4.36604e-08
4.43384e-08
4.49828e-08
4.55953e-08
4.61771e-08
4.67306e-08
4.72554e-08
4.77569e-08
4.82287e-08
4.86868e-08
4.91024e-08
4.9539e-08
4.98622e-08
5.03142e-08
0.357073
0.572313
0.452131
0.29287
0.298224
0.547828
0.710326
0.499446
0.553342
0.57777
0.586861
0.599956
0.435746
0.11035
0.10101
0.0750366
0.0812943
0.377148
0.4606
0.353852
0.38077
0.408625
0.450851
0.29228
0.180638
0.165259
0.130953
0.121408
0.0983541
0.075503
0.0491938
0.037709
0.0352235
0.0361024
0.0393509
0.0444218
0.0488845
0.0521769
0.0548854
0.0558483
0.0560411
0.0543943
0.0521173
0.047465
0.0414937
0.036658
0.0366803
0.0391646
0.0484682
0.0691914
0.0888374
0.0990699
0.096438
0.0830352
0.0879777
0.112548
0.150605
0.182435
0.188104
0.175309
0.143311
0.102674
0.0728638
0.0501483
0.0399422
0.0415054
0.0612459
0.122393
0.272724
0.428166
0.446458
0.398787
0.304551
0.234577
0.18342
0.112131
0.0476847
0.0244186
0.0156586
0.0140756
0.0166451
0.0217296
0.0283026
0.0340802
0.0388204
0.0499024
0.0570884
0.0560881
0.0509125
0.0361606
0.0190413
0.00910415
0.0041794
0.00160787
0.000547102
0.000170564
4.96842e-05
1.37707e-05
3.68232e-06
9.58801e-07
2.45023e-07
6.36315e-08
1.95113e-08
9.81386e-09
8.40513e-09
8.73027e-09
9.94481e-09
1.18012e-08
1.37786e-08
1.56053e-08
1.74127e-08
1.92343e-08
2.10768e-08
2.29156e-08
2.47226e-08
2.64912e-08
2.82149e-08
2.98905e-08
3.15191e-08
3.31016e-08
3.46395e-08
3.61343e-08
3.75705e-08
3.89358e-08
4.02255e-08
4.14383e-08
4.25777e-08
4.36497e-08
4.46579e-08
4.56056e-08
4.64973e-08
4.73371e-08
4.81294e-08
4.88772e-08
4.95833e-08
5.02496e-08
5.08782e-08
5.14711e-08
5.20303e-08
5.25578e-08
5.30554e-08
5.35258e-08
5.39685e-08
5.43899e-08
5.47822e-08
5.51638e-08
5.55047e-08
5.58664e-08
5.61248e-08
5.64986e-08
0.307764
0.520272
0.386756
0.234028
0.226174
0.47564
0.624505
0.409748
0.533963
0.59446
0.617773
0.638828
0.478059
0.14206
0.0870106
0.0525099
0.0940956
0.402393
0.495726
0.360845
0.403454
0.468009
0.493719
0.259123
0.197764
0.177301
0.109086
0.0911931
0.0739405
0.0568242
0.0407214
0.034609
0.0331246
0.0342818
0.0379035
0.0425275
0.0455684
0.0470128
0.0476016
0.0466253
0.0446299
0.0423986
0.0399919
0.0369824
0.0342203
0.0335855
0.0350013
0.0354682
0.0384852
0.0556477
0.0806356
0.10054
0.103376
0.0931881
0.0995802
0.123505
0.163286
0.196679
0.202345
0.1892
0.154628
0.107488
0.0743549
0.053144
0.0431574
0.0452512
0.0680648
0.136794
0.291311
0.451948
0.475647
0.428445
0.327802
0.251015
0.196395
0.122813
0.0564358
0.0314823
0.0211024
0.0179282
0.0199264
0.0246766
0.0308056
0.0341544
0.0379516
0.0519499
0.0602513
0.0563069
0.0505221
0.0375355
0.0208582
0.00976996
0.00453833
0.00181628
0.000625092
0.000195564
5.70304e-05
1.5789e-05
4.20608e-06
1.08965e-06
2.78173e-07
7.31032e-08
2.34843e-08
1.27403e-08
1.13163e-08
1.18402e-08
1.35103e-08
1.59448e-08
1.84257e-08
2.06806e-08
2.28937e-08
2.51052e-08
2.72986e-08
2.94392e-08
3.15114e-08
3.35093e-08
3.54291e-08
3.72717e-08
3.90247e-08
4.06801e-08
4.22335e-08
4.36913e-08
4.50615e-08
4.63401e-08
4.75298e-08
4.86363e-08
4.96645e-08
5.0619e-08
5.15051e-08
5.23282e-08
5.30938e-08
5.3807e-08
5.44728e-08
5.50945e-08
5.56756e-08
5.62184e-08
5.6726e-08
5.72002e-08
5.76437e-08
5.80587e-08
5.8447e-08
5.88115e-08
5.91517e-08
5.94743e-08
5.97707e-08
6.00606e-08
6.03141e-08
6.05883e-08
6.07735e-08
6.10576e-08
0.257669
0.472993
0.333073
0.168233
0.160545
0.414116
0.538096
0.308741
0.468676
0.563219
0.606769
0.653294
0.515583
0.178887
0.0715739
0.0458073
0.107198
0.425888
0.5189
0.348455
0.407785
0.528936
0.57199
0.25439
0.188563
0.162119
0.0871309
0.0715723
0.0637583
0.0533227
0.0418913
0.0378289
0.0366599
0.037654
0.0406459
0.0439603
0.0454515
0.0455112
0.0454155
0.0446479
0.0432326
0.040551
0.0378646
0.036262
0.0359244
0.0371917
0.0392739
0.0394944
0.0380876
0.0464506
0.0718735
0.0992692
0.109599
0.102317
0.10926
0.133112
0.174481
0.209581
0.215448
0.201909
0.166058
0.113877
0.0750375
0.054842
0.0462268
0.048947
0.0751985
0.148011
0.303557
0.470328
0.496934
0.452627
0.348577
0.266668
0.207067
0.130642
0.0637067
0.0389828
0.0273522
0.0218148
0.0228379
0.0273136
0.0320668
0.0333057
0.039879
0.0573999
0.0666816
0.0595195
0.0497113
0.0373526
0.0222668
0.0105113
0.00485148
0.0020014
0.000695728
0.000217637
6.32592e-05
1.74361e-05
4.62121e-06
1.19097e-06
3.03451e-07
8.08031e-08
2.74119e-08
1.60799e-08
1.4753e-08
1.55384e-08
1.77417e-08
2.08017e-08
2.37631e-08
2.64282e-08
2.90127e-08
3.15559e-08
3.40291e-08
3.64048e-08
3.86698e-08
4.07952e-08
4.27644e-08
4.45722e-08
4.6238e-08
4.77759e-08
4.91958e-08
5.05118e-08
5.1729e-08
5.2847e-08
5.38718e-08
5.4811e-08
5.56707e-08
5.64569e-08
5.71762e-08
5.7835e-08
5.84395e-08
5.89953e-08
5.95075e-08
5.99798e-08
6.0416e-08
6.08186e-08
6.11907e-08
6.15347e-08
6.18531e-08
6.21482e-08
6.24215e-08
6.26763e-08
6.29114e-08
6.31341e-08
6.33348e-08
6.35339e-08
6.37025e-08
6.38918e-08
6.40073e-08
6.42057e-08
0.25347
0.500386
0.342444
0.126163
0.134959
0.347188
0.478068
0.230574
0.384464
0.497431
0.559695
0.638559
0.542594
0.212961
0.0554797
0.0555351
0.118756
0.436507
0.497256
0.316558
0.394444
0.584142
0.641864
0.284001
0.162048
0.131998
0.0771424
0.0728222
0.0662189
0.0555475
0.0448034
0.0408774
0.0399455
0.0410125
0.0440629
0.0476588
0.0495278
0.049824
0.0495581
0.0487349
0.0470341
0.044106
0.0410796
0.0396402
0.0396513
0.0410897
0.0433669
0.0436964
0.0413257
0.042588
0.0643448
0.0962164
0.114692
0.110657
0.11778
0.141694
0.184745
0.22153
0.227526
0.2135
0.176691
0.122111
0.0768064
0.0553668
0.0488346
0.0525147
0.0816926
0.155346
0.312443
0.486988
0.513811
0.470528
0.368205
0.284468
0.219807
0.139305
0.0706532
0.0467223
0.033957
0.0254035
0.0253887
0.0290991
0.0320059
0.033664
0.0439522
0.0634563
0.0732439
0.0654975
0.0503951
0.0365413
0.0228968
0.0113266
0.00512289
0.00214866
0.000761983
0.000237848
6.87324e-05
1.88101e-05
4.94541e-06
1.26449e-06
3.21054e-07
8.68361e-08
3.13543e-08
1.98696e-08
1.87359e-08
1.98459e-08
2.26425e-08
2.63305e-08
2.97171e-08
3.27351e-08
3.56093e-08
3.83742e-08
4.09952e-08
4.34405e-08
4.56829e-08
4.77205e-08
4.95613e-08
5.1224e-08
5.27307e-08
5.40966e-08
5.53331e-08
5.64545e-08
5.74676e-08
5.83769e-08
5.91928e-08
5.99245e-08
6.05798e-08
6.11665e-08
6.16929e-08
6.21655e-08
6.2591e-08
6.29747e-08
6.33218e-08
6.36359e-08
6.3921e-08
6.418e-08
6.44162e-08
6.46321e-08
6.483e-08
6.50118e-08
6.51791e-08
6.53344e-08
6.5475e-08
6.56096e-08
6.57268e-08
6.58456e-08
6.59413e-08
6.60589e-08
6.61175e-08
6.62451e-08
0.331269
0.648199
0.474031
0.157288
0.129943
0.245904
0.433953
0.18415
0.266807
0.383062
0.462803
0.594382
0.569195
0.258178
0.0379027
0.0675654
0.132455
0.417889
0.43879
0.254497
0.364781
0.661663
0.738684
0.338718
0.130002
0.0962185
0.0755933
0.0764442
0.0697465
0.0589775
0.0489487
0.0450059
0.0442965
0.0455132
0.048757
0.0528331
0.055314
0.0559996
0.0557855
0.0548792
0.0529173
0.0497012
0.0462942
0.0449316
0.0450713
0.0464509
0.0488311
0.0494428
0.0468424
0.040901
0.0543146
0.0888017
0.119095
0.122077
0.129699
0.1536
0.19933
0.238404
0.244371
0.229523
0.191338
0.135051
0.0824049
0.0552721
0.0517358
0.0575956
0.0908366
0.163731
0.328261
0.516166
0.542648
0.495627
0.395689
0.311485
0.241937
0.154048
0.0816824
0.0586415
0.0438556
0.0305474
0.028254
0.0300784
0.031595
0.0365631
0.0506382
0.0716424
0.0821156
0.0744948
0.0547608
0.035755
0.0228855
0.0124706
0.00553768
0.00231995
0.00085197
0.000266753
7.60955e-05
2.05043e-05
5.30409e-06
1.3388e-06
3.39336e-07
9.48749e-08
3.78885e-08
2.66137e-08
2.58528e-08
2.75429e-08
3.12697e-08
3.57979e-08
3.97265e-08
4.32125e-08
4.63844e-08
4.92534e-08
5.1794e-08
5.40078e-08
5.59268e-08
5.75922e-08
5.90317e-08
6.02732e-08
6.13408e-08
6.22566e-08
6.30445e-08
6.37295e-08
6.43259e-08
6.48422e-08
6.52849e-08
6.56665e-08
6.59941e-08
6.62753e-08
6.65158e-08
6.67213e-08
6.68975e-08
6.705e-08
6.71831e-08
6.73003e-08
6.74035e-08
6.74944e-08
6.7574e-08
6.76447e-08
6.77038e-08
6.77516e-08
6.7791e-08
6.78277e-08
6.78549e-08
6.78848e-08
6.79067e-08
6.79323e-08
6.79424e-08
6.79702e-08
6.7958e-08
6.80049e-08
0.483038
0.75035
0.52385
0.27966
0.112678
0.147004
0.330929
0.164582
0.188315
0.305484
0.405585
0.595474
0.614366
0.30316
0.0400667
0.0595172
0.121967
0.337387
0.351775
0.210317
0.363008
0.742618
0.818812
0.395189
0.140345
0.0978546
0.0846204
0.0816897
0.0735804
0.0623724
0.0530726
0.0493333
0.0488598
0.0502953
0.0538534
0.0584838
0.0615847
0.0626738
0.0625577
0.0616233
0.0594751
0.0560057
0.0523252
0.050968
0.0511267
0.0524027
0.0548174
0.0558804
0.0537763
0.0453858
0.0443081
0.0725564
0.109791
0.130208
0.142873
0.167655
0.2163
0.257809
0.263733
0.248018
0.208156
0.150013
0.0942173
0.0578874
0.0547673
0.0642779
0.100728
0.171852
0.356968
0.565542
0.591556
0.536895
0.430406
0.34395
0.270285
0.171313
0.0907368
0.0690943
0.0542229
0.0364171
0.0293604
0.0305166
0.0343724
0.042837
0.0580187
0.0799813
0.0919684
0.0847705
0.0644737
0.0386399
0.0223344
0.0132837
0.00625017
0.0025616
0.000926504
0.000292132
8.27727e-05
2.20391e-05
5.63855e-06
1.41382e-06
3.60963e-07
1.0623e-07
4.78969e-08
3.70029e-08
3.66983e-08
3.92016e-08
4.40876e-08
4.9306e-08
5.31829e-08
5.62729e-08
5.88663e-08
6.10602e-08
6.28932e-08
6.44045e-08
6.5638e-08
6.66364e-08
6.74372e-08
6.80758e-08
6.85886e-08
6.90051e-08
6.93395e-08
6.95985e-08
6.97863e-08
6.99118e-08
6.99883e-08
7.00241e-08
7.00273e-08
7.00049e-08
6.99628e-08
6.991e-08
6.98496e-08
6.97828e-08
6.97104e-08
6.96342e-08
6.95557e-08
6.94757e-08
6.9394e-08
6.93109e-08
6.92334e-08
6.91677e-08
6.91142e-08
6.90706e-08
6.90276e-08
6.89918e-08
6.89532e-08
6.89238e-08
6.88901e-08
6.88914e-08
6.88679e-08
6.88831e-08
0.594874
0.704235
0.448075
0.30322
0.117388
0.134859
0.20017
0.152809
0.189777
0.348358
0.463645
0.6553
0.662631
0.335862
0.0544983
0.0482514
0.0993673
0.249705
0.291112
0.227915
0.398515
0.805723
0.820089
0.419458
0.174233
0.115519
0.0956869
0.0868074
0.0766674
0.0649992
0.0563318
0.0529587
0.0527549
0.054476
0.0583969
0.0635332
0.0671322
0.0685055
0.0684659
0.0675501
0.0653167
0.061652
0.0577505
0.0563505
0.0564895
0.0576732
0.0600731
0.0616184
0.0601738
0.0535371
0.0439325
0.0562921
0.0911459
0.12311
0.147495
0.177615
0.231533
0.275287
0.281134
0.264569
0.223153
0.163109
0.10603
0.0643641
0.0581526
0.0709668
0.108957
0.181321
0.390857
0.615173
0.64219
0.580797
0.463176
0.371832
0.296209
0.184583
0.0896048
0.0672225
0.057543
0.0406175
0.030713
0.0334434
0.0396272
0.0483744
0.0613158
0.0833663
0.0983153
0.0935704
0.0738375
0.0448902
0.022686
0.0138272
0.00705792
0.00286362
0.000999921
0.000312639
8.89722e-05
2.36297e-05
6.0214e-06
1.5078e-06
3.89203e-07
1.20412e-07
5.96247e-08
4.87267e-08
4.87136e-08
5.18593e-08
5.72626e-08
6.17182e-08
6.48078e-08
6.71869e-08
6.90562e-08
7.04891e-08
7.15443e-08
7.22953e-08
7.28108e-08
7.31425e-08
7.33278e-08
7.33969e-08
7.33803e-08
7.32793e-08
7.31071e-08
7.28925e-08
7.26544e-08
7.24025e-08
7.21395e-08
7.18818e-08
7.16477e-08
7.14335e-08
7.12341e-08
7.10433e-08
7.08591e-08
7.06852e-08
7.05249e-08
7.03787e-08
7.02462e-08
7.01259e-08
7.00195e-08
6.99328e-08
6.98623e-08
6.97948e-08
6.97186e-08
6.96317e-08
6.95475e-08
6.94746e-08
6.94002e-08
6.93373e-08
6.92706e-08
6.92193e-08
6.91202e-08
6.90809e-08
0.638079
0.570131
0.32032
0.240923
0.125786
0.132453
0.138651
0.141794
0.190328
0.37937
0.451605
0.627812
0.670461
0.359185
0.0738622
0.0499382
0.0925955
0.166928
0.294162
0.234721
0.421868
0.842417
0.744088
0.38918
0.193563
0.129163
0.10402
0.0907333
0.0788578
0.0669025
0.0589242
0.0559572
0.0560095
0.0580343
0.0623228
0.0679072
0.0719361
0.0735647
0.0736127
0.0727141
0.070397
0.0665606
0.062502
0.06106
0.0611808
0.0623174
0.0647062
0.0666844
0.0658784
0.0611051
0.0524632
0.0505897
0.071282
0.104205
0.135569
0.176968
0.244006
0.290801
0.296748
0.279531
0.236718
0.174838
0.116434
0.0725338
0.0596691
0.0765533
0.109066
0.188055
0.422238
0.659374
0.685771
0.61433
0.483718
0.389051
0.315463
0.197199
0.0839733
0.0548107
0.0480132
0.0361676
0.0328577
0.0379646
0.0441074
0.0497644
0.0597838
0.0824121
0.0993899
0.0995308
0.0820432
0.0517571
0.0239353
0.014424
0.00786975
0.00321018
0.0011115
0.000342897
9.70495e-05
2.56998e-05
6.54078e-06
1.64164e-06
4.29227e-07
1.38455e-07
7.29849e-08
6.1341e-08
6.12395e-08
6.40597e-08
6.85985e-08
7.18856e-08
7.39342e-08
7.52708e-08
7.61003e-08
7.65708e-08
7.68014e-08
7.68587e-08
7.67819e-08
7.65575e-08
7.62323e-08
7.58565e-08
7.54575e-08
7.50564e-08
7.46655e-08
7.42848e-08
7.39163e-08
7.35691e-08
7.32606e-08
7.29809e-08
7.26967e-08
7.23992e-08
7.21108e-08
7.18397e-08
7.15874e-08
7.13542e-08
7.11395e-08
7.09409e-08
7.07565e-08
7.05847e-08
7.04254e-08
7.02727e-08
7.01216e-08
6.99726e-08
6.98376e-08
6.97312e-08
6.96383e-08
6.9555e-08
6.94746e-08
6.94075e-08
6.93346e-08
6.92848e-08
6.9204e-08
6.91995e-08
0.539991
0.426797
0.203773
0.22436
0.132168
0.12762
0.132987
0.143117
0.192817
0.377461
0.384774
0.560112
0.643867
0.373003
0.0913621
0.0557705
0.0984624
0.127067
0.310162
0.22021
0.431634
0.843959
0.645711
0.316899
0.193606
0.140326
0.110901
0.0938134
0.0805124
0.0684929
0.0611493
0.0585986
0.0589041
0.061279
0.0659326
0.0719321
0.0763379
0.0781736
0.078276
0.0774028
0.0750443
0.0710756
0.0668649
0.0653699
0.0654745
0.0665822
0.0689692
0.0713319
0.0710544
0.067687
0.0611821
0.0569718
0.0614131
0.085597
0.118528
0.174051
0.255626
0.305093
0.311112
0.293284
0.24921
0.185584
0.125758
0.0806866
0.0591454
0.0733702
0.102295
0.194884
0.453298
0.700811
0.724298
0.637704
0.490324
0.391561
0.322148
0.209118
0.0846739
0.0432624
0.033096
0.0278932
0.0351689
0.0421106
0.0453364
0.0468937
0.0566003
0.0810112
0.0980309
0.101037
0.0886307
0.0584938
0.0259589
0.0147004