/*--------------------------------*- C++ -*----------------------------------*\
| =========                 |                                                 |
| \\      /  F ield         | OpenFOAM: The Open Source CFD Toolbox           |
|  \\    /   O peration     | Version:  v1912                                 |
|   \\  /    A nd           | Website:  www.openfoam.com                      |
|    \\/     M anipulation  |                                                 |
\*---------------------------------------------------------------------------*/
FoamFile
{
    version     2.0;
    format      ascii;
    class       volScalarField;
    location    "30";
    object      k;
}
// * * * * * * * * * * * * * * * * * * * * * * * * * * * * * * * * * * * * * //

dimensions      [0 2 -2 0 0 0 0];


internalField   nonuniform List<scalar> 
14268
(
8.80287e-07
8.77818e-07
8.75648e-07
8.7386e-07
8.72223e-07
8.70516e-07
8.68503e-07
8.66076e-07
8.63844e-07
8.62702e-07
8.61938e-07
8.61717e-07
8.61745e-07
8.61979e-07
8.62517e-07
8.63351e-07
8.65267e-07
8.68668e-07
8.72879e-07
8.77732e-07
8.83079e-07
8.88904e-07
8.9529e-07
9.02129e-07
9.09444e-07
9.17165e-07
9.25126e-07
9.33088e-07
9.40824e-07
9.48004e-07
9.54343e-07
9.59729e-07
9.63846e-07
9.66567e-07
9.67925e-07
9.68247e-07
9.68541e-07
9.6878e-07
9.68888e-07
9.68842e-07
9.68849e-07
9.6909e-07
9.69649e-07
9.70551e-07
9.71804e-07
9.73338e-07
9.75065e-07
9.77018e-07
9.79103e-07
9.80991e-07
9.82667e-07
9.84161e-07
9.85525e-07
9.86807e-07
9.88073e-07
9.89954e-07
9.92629e-07
9.95885e-07
9.99553e-07
1.0035e-06
1.00764e-06
1.01191e-06
1.01629e-06
1.02078e-06
1.02546e-06
1.03038e-06
1.03558e-06
1.0411e-06
1.04698e-06
1.0532e-06
1.0597e-06
1.06643e-06
1.07327e-06
1.08008e-06
1.08672e-06
1.09303e-06
1.09883e-06
1.10393e-06
1.10821e-06
1.11157e-06
1.11397e-06
1.1154e-06
1.116e-06
1.11664e-06
1.11669e-06
1.11544e-06
3.52147e-07
3.52259e-07
3.51033e-07
3.48593e-07
3.44807e-07
3.39888e-07
3.3383e-07
3.26921e-07
3.19533e-07
3.12167e-07
3.05149e-07
2.98949e-07
2.939e-07
2.90329e-07
2.88375e-07
2.88151e-07
2.88814e-07
2.89944e-07
2.91493e-07
2.93393e-07
2.95689e-07
2.98408e-07
3.01615e-07
3.05342e-07
3.09683e-07
3.14613e-07
3.20116e-07
3.25988e-07
3.32064e-07
3.3815e-07
3.43835e-07
3.49111e-07
3.53589e-07
3.57057e-07
3.59544e-07
3.60647e-07
3.59792e-07
3.56531e-07
3.50929e-07
3.43224e-07
3.33601e-07
3.22502e-07
3.10266e-07
2.97376e-07
2.84246e-07
2.71392e-07
2.59234e-07
2.48168e-07
2.38618e-07
2.30662e-07
2.24422e-07
2.199e-07
2.17012e-07
2.15602e-07
2.15531e-07
2.16049e-07
2.1671e-07
2.17489e-07
2.1836e-07
2.19298e-07
2.20287e-07
2.21317e-07
2.22386e-07
2.235e-07
2.24666e-07
2.25892e-07
2.27193e-07
2.28575e-07
2.3005e-07
2.31616e-07
2.33263e-07
2.34975e-07
2.36728e-07
2.38486e-07
2.40209e-07
2.41855e-07
2.43373e-07
2.44722e-07
2.45862e-07
2.46763e-07
2.47403e-07
2.47793e-07
2.47952e-07
2.47222e-07
2.45938e-07
2.44958e-07
1.81199e-07
1.81115e-07
1.80671e-07
1.79796e-07
1.7849e-07
1.76881e-07
1.74997e-07
1.7295e-07
1.70864e-07
1.68894e-07
1.67134e-07
1.65664e-07
1.64543e-07
1.63777e-07
1.63383e-07
1.63336e-07
1.63462e-07
1.63643e-07
1.63898e-07
1.64203e-07
1.64575e-07
1.65023e-07
1.65563e-07
1.66211e-07
1.66991e-07
1.67916e-07
1.68976e-07
1.70148e-07
1.71398e-07
1.72682e-07
1.73906e-07
1.75068e-07
1.76068e-07
1.76837e-07
1.77383e-07
1.77586e-07
1.77222e-07
1.76163e-07
1.74467e-07
1.72267e-07
1.69674e-07
1.66885e-07
1.64046e-07
1.6132e-07
1.58819e-07
1.56633e-07
1.54809e-07
1.53358e-07
1.52258e-07
1.51456e-07
1.50893e-07
1.5052e-07
1.50291e-07
1.50175e-07
1.50149e-07
1.50155e-07
1.50159e-07
1.50163e-07
1.50169e-07
1.5018e-07
1.50197e-07
1.5022e-07
1.50249e-07
1.50287e-07
1.50332e-07
1.50387e-07
1.50451e-07
1.50529e-07
1.50622e-07
1.5073e-07
1.50853e-07
1.50989e-07
1.51136e-07
1.5129e-07
1.51445e-07
1.51597e-07
1.51739e-07
1.51862e-07
1.51963e-07
1.52037e-07
1.52079e-07
1.52089e-07
1.52067e-07
1.51944e-07
1.5172e-07
1.51588e-07
1.5162e-07
1.516e-07
1.51547e-07
1.51394e-07
1.51121e-07
1.50812e-07
1.50448e-07
1.50088e-07
1.4973e-07
1.49432e-07
1.49192e-07
1.49021e-07
1.48926e-07
1.48877e-07
1.48891e-07
1.48926e-07
1.48951e-07
1.48948e-07
1.48943e-07
1.48919e-07
1.48889e-07
1.48867e-07
1.48862e-07
1.48889e-07
1.48959e-07
1.49096e-07
1.49283e-07
1.4952e-07
1.49794e-07
1.50091e-07
1.50398e-07
1.50684e-07
1.50939e-07
1.51135e-07
1.51263e-07
1.51296e-07
1.51165e-07
1.50854e-07
1.50394e-07
1.49832e-07
1.49217e-07
1.48605e-07
1.48047e-07
1.47568e-07
1.47198e-07
1.46931e-07
1.46766e-07
1.46702e-07
1.46685e-07
1.46719e-07
1.46764e-07
1.46807e-07
1.46837e-07
1.46853e-07
1.46849e-07
1.4683e-07
1.46796e-07
1.46754e-07
1.46707e-07
1.46659e-07
1.46612e-07
1.46568e-07
1.46529e-07
1.46495e-07
1.46467e-07
1.46444e-07
1.46425e-07
1.46411e-07
1.46406e-07
1.4641e-07
1.46422e-07
1.46442e-07
1.46471e-07
1.46506e-07
1.46547e-07
1.46589e-07
1.46632e-07
1.4667e-07
1.46703e-07
1.46727e-07
1.46739e-07
1.4674e-07
1.46722e-07
1.46684e-07
1.46645e-07
1.46492e-07
1.47033e-07
1.46911e-07
1.46808e-07
1.46696e-07
1.46506e-07
1.46348e-07
1.46181e-07
1.46055e-07
1.45959e-07
1.4593e-07
1.45953e-07
1.46018e-07
1.46149e-07
1.46297e-07
1.46468e-07
1.46619e-07
1.46749e-07
1.46827e-07
1.46881e-07
1.46887e-07
1.46863e-07
1.46826e-07
1.46783e-07
1.46748e-07
1.46724e-07
1.46738e-07
1.46766e-07
1.46824e-07
1.46903e-07
1.46993e-07
1.47104e-07
1.472e-07
1.47283e-07
1.47347e-07
1.47378e-07
1.47383e-07
1.47318e-07
1.47183e-07
1.46998e-07
1.46777e-07
1.46561e-07
1.46354e-07
1.46197e-07
1.46079e-07
1.46027e-07
1.46023e-07
1.46068e-07
1.46165e-07
1.46267e-07
1.46387e-07
1.46493e-07
1.46576e-07
1.46633e-07
1.46663e-07
1.46664e-07
1.46648e-07
1.46613e-07
1.46568e-07
1.46517e-07
1.46465e-07
1.46415e-07
1.46368e-07
1.46325e-07
1.46288e-07
1.46256e-07
1.46228e-07
1.46205e-07
1.46189e-07
1.46179e-07
1.46178e-07
1.46185e-07
1.46199e-07
1.46221e-07
1.46249e-07
1.46281e-07
1.46316e-07
1.46351e-07
1.46383e-07
1.4641e-07
1.4643e-07
1.4644e-07
1.4644e-07
1.46424e-07
1.46403e-07
1.46366e-07
1.46307e-07
1.45842e-07
1.45754e-07
1.45747e-07
1.45765e-07
1.45732e-07
1.45746e-07
1.45767e-07
1.45812e-07
1.45885e-07
1.45994e-07
1.46142e-07
1.46307e-07
1.46492e-07
1.4666e-07
1.46819e-07
1.46922e-07
1.4698e-07
1.46978e-07
1.46955e-07
1.46886e-07
1.46797e-07
1.46703e-07
1.46612e-07
1.46538e-07
1.46483e-07
1.46474e-07
1.46481e-07
1.46516e-07
1.46564e-07
1.46617e-07
1.46691e-07
1.46749e-07
1.46805e-07
1.46857e-07
1.46879e-07
1.46877e-07
1.46816e-07
1.46705e-07
1.46563e-07
1.46397e-07
1.46247e-07
1.46101e-07
1.46002e-07
1.45935e-07
1.45925e-07
1.45954e-07
1.46026e-07
1.46147e-07
1.46266e-07
1.46402e-07
1.46518e-07
1.46609e-07
1.46671e-07
1.46704e-07
1.46707e-07
1.4669e-07
1.46655e-07
1.46609e-07
1.46557e-07
1.46503e-07
1.46451e-07
1.46403e-07
1.46358e-07
1.46321e-07
1.46288e-07
1.46261e-07
1.46236e-07
1.46221e-07
1.4621e-07
1.46209e-07
1.46214e-07
1.46227e-07
1.46247e-07
1.46272e-07
1.46301e-07
1.46333e-07
1.46364e-07
1.46392e-07
1.46415e-07
1.46431e-07
1.46437e-07
1.46432e-07
1.46411e-07
1.46385e-07
1.46351e-07
1.46282e-07
1.46109e-07
1.45972e-07
1.45882e-07
1.45829e-07
1.45705e-07
1.45637e-07
1.4557e-07
1.45549e-07
1.45555e-07
1.45612e-07
1.45719e-07
1.4586e-07
1.46061e-07
1.46272e-07
1.46508e-07
1.46704e-07
1.46866e-07
1.46957e-07
1.47022e-07
1.47019e-07
1.46972e-07
1.46907e-07
1.46834e-07
1.46763e-07
1.46704e-07
1.46679e-07
1.46663e-07
1.4667e-07
1.46684e-07
1.46706e-07
1.46748e-07
1.46786e-07
1.46824e-07
1.46854e-07
1.46855e-07
1.46837e-07
1.46769e-07
1.46654e-07
1.4651e-07
1.46341e-07
1.46192e-07
1.46048e-07
1.45954e-07
1.45889e-07
1.45883e-07
1.45916e-07
1.45996e-07
1.46126e-07
1.4625e-07
1.46393e-07
1.46514e-07
1.4661e-07
1.46676e-07
1.46712e-07
1.46719e-07
1.46703e-07
1.46668e-07
1.46623e-07
1.46571e-07
1.46517e-07
1.46465e-07
1.46417e-07
1.46374e-07
1.46338e-07
1.46307e-07
1.46282e-07
1.46261e-07
1.46245e-07
1.46237e-07
1.46237e-07
1.46243e-07
1.46256e-07
1.46276e-07
1.46301e-07
1.4633e-07
1.46361e-07
1.4639e-07
1.46415e-07
1.46435e-07
1.46448e-07
1.46451e-07
1.46443e-07
1.4642e-07
1.46391e-07
1.46349e-07
1.46292e-07
1.46027e-07
1.45894e-07
1.45836e-07
1.45824e-07
1.45756e-07
1.45752e-07
1.4574e-07
1.45769e-07
1.45837e-07
1.45953e-07
1.46125e-07
1.46322e-07
1.46555e-07
1.4678e-07
1.47004e-07
1.47159e-07
1.47272e-07
1.47307e-07
1.4732e-07
1.47258e-07
1.47169e-07
1.47076e-07
1.46989e-07
1.46907e-07
1.46846e-07
1.46823e-07
1.46803e-07
1.46806e-07
1.46818e-07
1.46841e-07
1.46876e-07
1.469e-07
1.4692e-07
1.46932e-07
1.46919e-07
1.46888e-07
1.4681e-07
1.46686e-07
1.46534e-07
1.46359e-07
1.46204e-07
1.46055e-07
1.45958e-07
1.4589e-07
1.45884e-07
1.45919e-07
1.46006e-07
1.46146e-07
1.46277e-07
1.4643e-07
1.46558e-07
1.46659e-07
1.4673e-07
1.46767e-07
1.46774e-07
1.46757e-07
1.4672e-07
1.46672e-07
1.46617e-07
1.46562e-07
1.46508e-07
1.46458e-07
1.46415e-07
1.46379e-07
1.46348e-07
1.46324e-07
1.46304e-07
1.4629e-07
1.46282e-07
1.46282e-07
1.46289e-07
1.46302e-07
1.46321e-07
1.46344e-07
1.46371e-07
1.46398e-07
1.46424e-07
1.46446e-07
1.46462e-07
1.46471e-07
1.4647e-07
1.46457e-07
1.46431e-07
1.46399e-07
1.46355e-07
1.46296e-07
1.46281e-07
1.46103e-07
1.46004e-07
1.45959e-07
1.45848e-07
1.45777e-07
1.45706e-07
1.45665e-07
1.45682e-07
1.45748e-07
1.45895e-07
1.46076e-07
1.46327e-07
1.46605e-07
1.46911e-07
1.47168e-07
1.47393e-07
1.47516e-07
1.47597e-07
1.47595e-07
1.47535e-07
1.47452e-07
1.47368e-07
1.47278e-07
1.47207e-07
1.47155e-07
1.47113e-07
1.47078e-07
1.47049e-07
1.47034e-07
1.47035e-07
1.47041e-07
1.4704e-07
1.47034e-07
1.4701e-07
1.46968e-07
1.46878e-07
1.46738e-07
1.46572e-07
1.46384e-07
1.46218e-07
1.46058e-07
1.45954e-07
1.45879e-07
1.45872e-07
1.45905e-07
1.45999e-07
1.46148e-07
1.46284e-07
1.46444e-07
1.46579e-07
1.46685e-07
1.46762e-07
1.46799e-07
1.4681e-07
1.46794e-07
1.46757e-07
1.46708e-07
1.46652e-07
1.46595e-07
1.46539e-07
1.46489e-07
1.46446e-07
1.46412e-07
1.46382e-07
1.46361e-07
1.46341e-07
1.4633e-07
1.46323e-07
1.46324e-07
1.46332e-07
1.46345e-07
1.46363e-07
1.46386e-07
1.46411e-07
1.46436e-07
1.46459e-07
1.46478e-07
1.46491e-07
1.46496e-07
1.4649e-07
1.46474e-07
1.46444e-07
1.46408e-07
1.4636e-07
1.46296e-07
1.46376e-07
1.46189e-07
1.46089e-07
1.46066e-07
1.45972e-07
1.45902e-07
1.45855e-07
1.45836e-07
1.45897e-07
1.45994e-07
1.46194e-07
1.46419e-07
1.4671e-07
1.47016e-07
1.47335e-07
1.47585e-07
1.47787e-07
1.47887e-07
1.47933e-07
1.47928e-07
1.47857e-07
1.47751e-07
1.47644e-07
1.47549e-07
1.47484e-07
1.47437e-07
1.4739e-07
1.47348e-07
1.47312e-07
1.47276e-07
1.47245e-07
1.47221e-07
1.47194e-07
1.47164e-07
1.47119e-07
1.4706e-07
1.46956e-07
1.46801e-07
1.46618e-07
1.46416e-07
1.46239e-07
1.46069e-07
1.4596e-07
1.45882e-07
1.45876e-07
1.45908e-07
1.46017e-07
1.46176e-07
1.46317e-07
1.46487e-07
1.4663e-07
1.46741e-07
1.46822e-07
1.46858e-07
1.46869e-07
1.46851e-07
1.46811e-07
1.46758e-07
1.46698e-07
1.46638e-07
1.46581e-07
1.46531e-07
1.46487e-07
1.46454e-07
1.46426e-07
1.46406e-07
1.4639e-07
1.46381e-07
1.46377e-07
1.4638e-07
1.46388e-07
1.46402e-07
1.4642e-07
1.46441e-07
1.46463e-07
1.46485e-07
1.46505e-07
1.46519e-07
1.46527e-07
1.46527e-07
1.46516e-07
1.46495e-07
1.4646e-07
1.46419e-07
1.46368e-07
1.46302e-07
1.466e-07
1.46373e-07
1.46269e-07
1.46191e-07
1.46073e-07
1.45958e-07
1.45886e-07
1.45848e-07
1.45893e-07
1.4599e-07
1.46193e-07
1.46445e-07
1.468e-07
1.4719e-07
1.4762e-07
1.47986e-07
1.48271e-07
1.4845e-07
1.4853e-07
1.48529e-07
1.48442e-07
1.48317e-07
1.48177e-07
1.48044e-07
1.47932e-07
1.47843e-07
1.47755e-07
1.47672e-07
1.47595e-07
1.47514e-07
1.47445e-07
1.4739e-07
1.47326e-07
1.47282e-07
1.47227e-07
1.47155e-07
1.4704e-07
1.46869e-07
1.46669e-07
1.46449e-07
1.46257e-07
1.46073e-07
1.45954e-07
1.45867e-07
1.45859e-07
1.45888e-07
1.46011e-07
1.46181e-07
1.46332e-07
1.46511e-07
1.46662e-07
1.46779e-07
1.46865e-07
1.46906e-07
1.46918e-07
1.469e-07
1.46857e-07
1.46801e-07
1.46737e-07
1.46673e-07
1.46613e-07
1.46561e-07
1.46517e-07
1.46485e-07
1.46459e-07
1.46442e-07
1.46428e-07
1.46422e-07
1.4642e-07
1.46426e-07
1.46436e-07
1.46451e-07
1.46469e-07
1.4649e-07
1.46511e-07
1.4653e-07
1.46545e-07
1.46555e-07
1.46558e-07
1.46554e-07
1.46539e-07
1.46515e-07
1.46476e-07
1.46432e-07
1.46377e-07
1.46306e-07
1.46766e-07
1.46528e-07
1.46434e-07
1.46318e-07
1.46195e-07
1.46071e-07
1.46004e-07
1.45982e-07
1.46057e-07
1.46192e-07
1.46449e-07
1.4676e-07
1.47187e-07
1.47663e-07
1.4819e-07
1.48626e-07
1.48953e-07
1.49109e-07
1.49158e-07
1.49105e-07
1.48978e-07
1.48822e-07
1.48661e-07
1.48511e-07
1.4839e-07
1.48282e-07
1.48172e-07
1.48057e-07
1.47949e-07
1.47835e-07
1.47741e-07
1.4768e-07
1.47605e-07
1.47515e-07
1.47428e-07
1.47333e-07
1.47189e-07
1.46985e-07
1.46749e-07
1.46503e-07
1.4629e-07
1.46092e-07
1.45966e-07
1.45877e-07
1.45871e-07
1.45903e-07
1.46052e-07
1.46239e-07
1.46402e-07
1.46594e-07
1.4676e-07
1.46893e-07
1.46982e-07
1.4703e-07
1.47041e-07
1.47019e-07
1.46971e-07
1.46907e-07
1.46836e-07
1.46764e-07
1.46697e-07
1.4664e-07
1.46593e-07
1.46559e-07
1.46531e-07
1.46516e-07
1.46502e-07
1.46496e-07
1.46494e-07
1.46499e-07
1.46508e-07
1.46522e-07
1.46539e-07
1.46558e-07
1.46578e-07
1.46596e-07
1.4661e-07
1.46619e-07
1.4662e-07
1.4661e-07
1.46589e-07
1.46558e-07
1.4651e-07
1.46458e-07
1.46396e-07
1.46319e-07
1.47033e-07
1.46767e-07
1.46665e-07
1.46514e-07
1.46391e-07
1.46261e-07
1.46206e-07
1.46201e-07
1.46314e-07
1.46487e-07
1.46807e-07
1.47205e-07
1.4776e-07
1.48409e-07
1.49096e-07
1.49638e-07
1.49997e-07
1.50136e-07
1.50176e-07
1.50114e-07
1.49933e-07
1.49706e-07
1.49442e-07
1.49187e-07
1.48983e-07
1.48802e-07
1.48625e-07
1.48433e-07
1.4826e-07
1.48054e-07
1.47911e-07
1.47801e-07
1.47652e-07
1.47561e-07
1.47452e-07
1.47339e-07
1.47202e-07
1.46989e-07
1.46748e-07
1.46497e-07
1.46275e-07
1.46069e-07
1.45938e-07
1.45843e-07
1.45836e-07
1.45862e-07
1.46031e-07
1.46236e-07
1.46425e-07
1.46629e-07
1.46811e-07
1.4696e-07
1.47047e-07
1.47106e-07
1.47121e-07
1.47101e-07
1.47054e-07
1.46991e-07
1.46917e-07
1.46842e-07
1.46773e-07
1.46714e-07
1.46664e-07
1.4663e-07
1.46601e-07
1.46584e-07
1.46569e-07
1.46564e-07
1.46561e-07
1.46564e-07
1.4657e-07
1.46579e-07
1.46588e-07
1.46597e-07
1.46605e-07
1.46611e-07
1.46614e-07
1.46613e-07
1.46605e-07
1.4659e-07
1.46564e-07
1.4653e-07
1.46482e-07
1.46431e-07
1.4637e-07
1.46293e-07
1.47391e-07
1.47116e-07
1.46997e-07
1.46833e-07
1.46711e-07
1.46591e-07
1.4655e-07
1.46564e-07
1.46712e-07
1.46939e-07
1.47346e-07
1.47857e-07
1.48553e-07
1.49314e-07
1.50051e-07
1.50566e-07
1.50819e-07
1.50947e-07
1.51015e-07
1.5098e-07
1.50792e-07
1.5057e-07
1.50315e-07
1.50062e-07
1.49853e-07
1.4964e-07
1.49412e-07
1.49157e-07
1.48929e-07
1.48677e-07
1.48444e-07
1.48296e-07
1.48124e-07
1.47961e-07
1.4786e-07
1.47677e-07
1.4748e-07
1.47225e-07
1.46927e-07
1.46648e-07
1.46397e-07
1.4617e-07
1.46019e-07
1.45919e-07
1.45897e-07
1.45915e-07
1.46093e-07
1.46311e-07
1.46505e-07
1.46707e-07
1.46885e-07
1.47023e-07
1.47107e-07
1.47162e-07
1.47171e-07
1.47149e-07
1.47103e-07
1.47042e-07
1.46973e-07
1.46904e-07
1.46842e-07
1.46789e-07
1.46745e-07
1.46718e-07
1.46697e-07
1.46685e-07
1.46678e-07
1.46678e-07
1.46682e-07
1.46693e-07
1.46708e-07
1.46726e-07
1.46745e-07
1.46762e-07
1.46777e-07
1.46786e-07
1.46785e-07
1.46776e-07
1.46758e-07
1.46731e-07
1.46693e-07
1.4665e-07
1.46591e-07
1.46531e-07
1.4646e-07
1.46373e-07
1.47685e-07
1.47411e-07
1.47261e-07
1.47087e-07
1.46959e-07
1.46845e-07
1.46805e-07
1.46831e-07
1.47008e-07
1.47288e-07
1.47775e-07
1.48376e-07
1.49145e-07
1.49909e-07
1.50652e-07
1.51237e-07
1.51587e-07
1.51727e-07
1.51745e-07
1.51643e-07
1.51401e-07
1.51139e-07
1.50858e-07
1.50594e-07
1.50399e-07
1.50197e-07
1.49966e-07
1.49679e-07
1.49422e-07
1.49109e-07
1.48795e-07
1.48523e-07
1.48193e-07
1.47959e-07
1.47713e-07
1.47739e-07
1.4751e-07
1.47293e-07
1.46995e-07
1.46749e-07
1.4649e-07
1.46257e-07
1.46093e-07
1.45987e-07
1.45954e-07
1.45978e-07
1.46164e-07
1.46392e-07
1.46577e-07
1.46781e-07
1.46957e-07
1.4707e-07
1.4715e-07
1.47193e-07
1.47194e-07
1.47164e-07
1.47109e-07
1.47042e-07
1.46969e-07
1.46896e-07
1.46832e-07
1.4678e-07
1.46738e-07
1.46713e-07
1.46695e-07
1.46688e-07
1.46688e-07
1.46693e-07
1.46704e-07
1.46718e-07
1.46735e-07
1.46756e-07
1.46778e-07
1.46801e-07
1.46822e-07
1.46842e-07
1.46855e-07
1.46859e-07
1.46852e-07
1.4683e-07
1.46792e-07
1.46745e-07
1.46675e-07
1.46604e-07
1.46521e-07
1.46422e-07
1.47877e-07
1.47589e-07
1.47434e-07
1.47245e-07
1.47103e-07
1.46992e-07
1.46947e-07
1.46985e-07
1.47196e-07
1.47531e-07
1.48075e-07
1.48696e-07
1.49417e-07
1.50224e-07
1.511e-07
1.51802e-07
1.52242e-07
1.52444e-07
1.5243e-07
1.52209e-07
1.51911e-07
1.51584e-07
1.5124e-07
1.50923e-07
1.507e-07
1.50482e-07
1.50244e-07
1.49959e-07
1.49699e-07
1.49395e-07
1.49074e-07
1.4884e-07
1.48568e-07
1.48344e-07
1.48096e-07
1.47835e-07
1.47709e-07
1.47435e-07
1.47114e-07
1.46804e-07
1.465e-07
1.46249e-07
1.46061e-07
1.45952e-07
1.4593e-07
1.45965e-07
1.46152e-07
1.46382e-07
1.46604e-07
1.46834e-07
1.47017e-07
1.47134e-07
1.47236e-07
1.4729e-07
1.47292e-07
1.47254e-07
1.47186e-07
1.471e-07
1.47007e-07
1.46918e-07
1.46842e-07
1.46784e-07
1.46741e-07
1.46717e-07
1.46701e-07
1.46695e-07
1.46701e-07
1.46708e-07
1.46719e-07
1.46731e-07
1.46745e-07
1.46762e-07
1.46779e-07
1.46794e-07
1.46807e-07
1.46815e-07
1.46816e-07
1.46809e-07
1.46794e-07
1.46769e-07
1.46731e-07
1.46684e-07
1.46615e-07
1.46547e-07
1.46467e-07
1.4637e-07
1.48114e-07
1.47788e-07
1.47627e-07
1.47424e-07
1.47267e-07
1.47165e-07
1.47125e-07
1.47198e-07
1.47472e-07
1.47887e-07
1.48456e-07
1.49031e-07
1.49747e-07
1.50624e-07
1.51532e-07
1.52283e-07
1.52785e-07
1.53082e-07
1.53197e-07
1.52995e-07
1.52584e-07
1.5216e-07
1.51739e-07
1.5135e-07
1.51052e-07
1.50786e-07
1.50517e-07
1.50217e-07
1.49937e-07
1.49598e-07
1.49218e-07
1.48873e-07
1.48444e-07
1.48238e-07
1.48127e-07
1.4793e-07
1.47666e-07
1.47369e-07
1.47027e-07
1.46725e-07
1.46441e-07
1.46201e-07
1.46047e-07
1.45936e-07
1.45907e-07
1.4595e-07
1.46123e-07
1.46358e-07
1.46596e-07
1.46833e-07
1.47037e-07
1.47176e-07
1.47296e-07
1.47359e-07
1.47366e-07
1.4733e-07
1.47262e-07
1.47177e-07
1.47084e-07
1.46991e-07
1.46911e-07
1.46847e-07
1.46799e-07
1.4677e-07
1.46752e-07
1.46745e-07
1.46751e-07
1.46756e-07
1.46768e-07
1.46781e-07
1.46798e-07
1.46811e-07
1.46824e-07
1.46831e-07
1.46832e-07
1.46827e-07
1.46816e-07
1.46798e-07
1.46773e-07
1.46736e-07
1.46689e-07
1.46635e-07
1.46562e-07
1.46495e-07
1.46416e-07
1.46324e-07
1.48341e-07
1.4801e-07
1.47829e-07
1.47623e-07
1.47455e-07
1.47375e-07
1.47361e-07
1.47502e-07
1.47873e-07
1.48368e-07
1.48846e-07
1.49328e-07
1.50019e-07
1.50805e-07
1.51697e-07
1.52487e-07
1.53069e-07
1.53493e-07
1.53764e-07
1.5376e-07
1.53419e-07
1.52857e-07
1.52307e-07
1.51844e-07
1.51485e-07
1.51156e-07
1.50853e-07
1.50503e-07
1.50209e-07
1.49867e-07
1.4949e-07
1.49209e-07
1.48845e-07
1.48437e-07
1.48086e-07
1.4795e-07
1.47761e-07
1.47499e-07
1.47161e-07
1.46829e-07
1.46536e-07
1.4626e-07
1.4608e-07
1.45951e-07
1.45907e-07
1.45922e-07
1.46105e-07
1.46348e-07
1.46604e-07
1.46863e-07
1.47085e-07
1.47224e-07
1.47331e-07
1.47385e-07
1.47393e-07
1.47357e-07
1.47285e-07
1.47199e-07
1.47108e-07
1.47016e-07
1.46937e-07
1.46874e-07
1.46826e-07
1.468e-07
1.46784e-07
1.46778e-07
1.46788e-07
1.46792e-07
1.46806e-07
1.46822e-07
1.4684e-07
1.46855e-07
1.4687e-07
1.46881e-07
1.46887e-07
1.46885e-07
1.46871e-07
1.46848e-07
1.46816e-07
1.46775e-07
1.4672e-07
1.46664e-07
1.46589e-07
1.4652e-07
1.46438e-07
1.46345e-07
1.4858e-07
1.48255e-07
1.48061e-07
1.47861e-07
1.47692e-07
1.47655e-07
1.4771e-07
1.47974e-07
1.48348e-07
1.48606e-07
1.48942e-07
1.49374e-07
1.50005e-07
1.5076e-07
1.51666e-07
1.52493e-07
1.5313e-07
1.5364e-07
1.54057e-07
1.54268e-07
1.5416e-07
1.53721e-07
1.53066e-07
1.52412e-07
1.51957e-07
1.51547e-07
1.51187e-07
1.50775e-07
1.50446e-07
1.50076e-07
1.4962e-07
1.49268e-07
1.48935e-07
1.48756e-07
1.48601e-07
1.48241e-07
1.47966e-07
1.4756e-07
1.47189e-07
1.46811e-07
1.46529e-07
1.46273e-07
1.46116e-07
1.4599e-07
1.45935e-07
1.45925e-07
1.46086e-07
1.46336e-07
1.46623e-07
1.46896e-07
1.47114e-07
1.47258e-07
1.47369e-07
1.47428e-07
1.47442e-07
1.47406e-07
1.47334e-07
1.47242e-07
1.47143e-07
1.47046e-07
1.46963e-07
1.46899e-07
1.46851e-07
1.46828e-07
1.46818e-07
1.46814e-07
1.46828e-07
1.46834e-07
1.46849e-07
1.46864e-07
1.46879e-07
1.46893e-07
1.46906e-07
1.46917e-07
1.46924e-07
1.46926e-07
1.46915e-07
1.46895e-07
1.46867e-07
1.4683e-07
1.46781e-07
1.46726e-07
1.46648e-07
1.46572e-07
1.46486e-07
1.46387e-07
1.48876e-07
1.48547e-07
1.4835e-07
1.48174e-07
1.48026e-07
1.48058e-07
1.48196e-07
1.48359e-07
1.48458e-07
1.48585e-07
1.48873e-07
1.49272e-07
1.49824e-07
1.50489e-07
1.51336e-07
1.52189e-07
1.52921e-07
1.53569e-07
1.54107e-07
1.5446e-07
1.54586e-07
1.54386e-07
1.53884e-07
1.53216e-07
1.52617e-07
1.52097e-07
1.51654e-07
1.5113e-07
1.50743e-07
1.50349e-07
1.49925e-07
1.4954e-07
1.48999e-07
1.48555e-07
1.48229e-07
1.48143e-07
1.47926e-07
1.47577e-07
1.47219e-07
1.46891e-07
1.46613e-07
1.46356e-07
1.46166e-07
1.46003e-07
1.45924e-07
1.45935e-07
1.46074e-07
1.46321e-07
1.46628e-07
1.46919e-07
1.47123e-07
1.47281e-07
1.47393e-07
1.47455e-07
1.47471e-07
1.47441e-07
1.47373e-07
1.47284e-07
1.47188e-07
1.47091e-07
1.47008e-07
1.46941e-07
1.4689e-07
1.46862e-07
1.46849e-07
1.46842e-07
1.46858e-07
1.46867e-07
1.46886e-07
1.46902e-07
1.46916e-07
1.46929e-07
1.46941e-07
1.46949e-07
1.46953e-07
1.46954e-07
1.46943e-07
1.46921e-07
1.46885e-07
1.46838e-07
1.46783e-07
1.46725e-07
1.46649e-07
1.46577e-07
1.4649e-07
1.46389e-07
1.49223e-07
1.48941e-07
1.48745e-07
1.48611e-07
1.48493e-07
1.48527e-07
1.48521e-07
1.48463e-07
1.48441e-07
1.48478e-07
1.48686e-07
1.48959e-07
1.49276e-07
1.4968e-07
1.50306e-07
1.51163e-07
1.52076e-07
1.53006e-07
1.53855e-07
1.5444e-07
1.54712e-07
1.54738e-07
1.5447e-07
1.53965e-07
1.53338e-07
1.52655e-07
1.52121e-07
1.51535e-07
1.51043e-07
1.50566e-07
1.50096e-07
1.49748e-07
1.49368e-07
1.49124e-07
1.48853e-07
1.48453e-07
1.48198e-07
1.47811e-07
1.47389e-07
1.47017e-07
1.46651e-07
1.46347e-07
1.46146e-07
1.46021e-07
1.45967e-07
1.45986e-07
1.46094e-07
1.46295e-07
1.46615e-07
1.46913e-07
1.47103e-07
1.4727e-07
1.47384e-07
1.47448e-07
1.47471e-07
1.47448e-07
1.47382e-07
1.47298e-07
1.47206e-07
1.47112e-07
1.47032e-07
1.46968e-07
1.46921e-07
1.46895e-07
1.46883e-07
1.46875e-07
1.46894e-07
1.469e-07
1.46926e-07
1.46949e-07
1.46972e-07
1.46986e-07
1.46994e-07
1.46996e-07
1.46994e-07
1.46989e-07
1.46976e-07
1.46956e-07
1.46928e-07
1.46891e-07
1.46839e-07
1.46774e-07
1.46684e-07
1.46598e-07
1.46505e-07
1.46397e-07
1.49745e-07
1.49476e-07
1.49232e-07
1.49049e-07
1.48846e-07
1.4872e-07
1.4857e-07
1.48404e-07
1.4824e-07
1.48095e-07
1.48065e-07
1.47939e-07
1.47721e-07
1.47531e-07
1.47664e-07
1.48469e-07
1.49691e-07
1.51226e-07
1.5274e-07
1.53926e-07
1.54605e-07
1.54826e-07
1.54776e-07
1.54528e-07
1.54089e-07
1.53431e-07
1.52749e-07
1.52073e-07
1.51507e-07
1.50894e-07
1.50283e-07
1.49795e-07
1.49207e-07
1.48802e-07
1.48595e-07
1.48351e-07
1.48005e-07
1.47616e-07
1.47246e-07
1.4691e-07
1.46629e-07
1.46341e-07
1.46149e-07
1.46011e-07
1.45908e-07
1.45921e-07
1.46086e-07
1.46233e-07
1.4653e-07
1.46805e-07
1.4696e-07
1.47122e-07
1.4725e-07
1.47343e-07
1.474e-07
1.47409e-07
1.47364e-07
1.47294e-07
1.47209e-07
1.47121e-07
1.47044e-07
1.46984e-07
1.46943e-07
1.46926e-07
1.46922e-07
1.46926e-07
1.4695e-07
1.46961e-07
1.46983e-07
1.47003e-07
1.47022e-07
1.47035e-07
1.47041e-07
1.47042e-07
1.47039e-07
1.47025e-07
1.46994e-07
1.46953e-07
1.46901e-07
1.46838e-07
1.4677e-07
1.46706e-07
1.46625e-07
1.46559e-07
1.46468e-07
1.4637e-07
1.50175e-07
1.49803e-07
1.49452e-07
1.49182e-07
1.48905e-07
1.487e-07
1.48467e-07
1.48132e-07
1.47721e-07
1.4724e-07
1.46683e-07
1.45751e-07
1.44425e-07
1.43062e-07
1.42132e-07
1.42545e-07
1.44315e-07
1.46873e-07
1.49681e-07
1.52116e-07
1.53779e-07
1.54606e-07
1.54827e-07
1.54787e-07
1.54606e-07
1.54131e-07
1.53425e-07
1.52628e-07
1.51994e-07
1.51314e-07
1.50649e-07
1.50222e-07
1.49754e-07
1.49234e-07
1.48683e-07
1.4847e-07
1.48271e-07
1.47898e-07
1.47534e-07
1.47133e-07
1.46762e-07
1.4641e-07
1.46145e-07
1.45999e-07
1.45911e-07
1.45976e-07
1.46059e-07
1.46051e-07
1.46211e-07
1.46346e-07
1.46402e-07
1.46523e-07
1.46664e-07
1.46813e-07
1.46966e-07
1.47087e-07
1.47156e-07
1.47163e-07
1.47131e-07
1.47078e-07
1.47024e-07
1.46978e-07
1.46945e-07
1.46934e-07
1.46936e-07
1.46952e-07
1.46987e-07
1.47007e-07
1.4703e-07
1.47048e-07
1.47065e-07
1.4708e-07
1.47091e-07
1.47093e-07
1.47097e-07
1.47088e-07
1.47069e-07
1.4705e-07
1.47024e-07
1.46989e-07
1.46933e-07
1.46859e-07
1.46757e-07
1.46651e-07
1.46553e-07
1.46431e-07
1.50299e-07
1.49851e-07
1.49456e-07
1.49145e-07
1.48818e-07
1.48503e-07
1.48074e-07
1.47422e-07
1.46535e-07
1.45336e-07
1.43633e-07
1.41036e-07
1.37589e-07
1.34071e-07
1.31542e-07
1.31407e-07
1.33909e-07
1.38076e-07
1.43021e-07
1.47674e-07
1.51265e-07
1.53472e-07
1.54498e-07
1.54801e-07
1.54822e-07
1.5463e-07
1.54088e-07
1.53203e-07
1.52479e-07
1.51736e-07
1.50856e-07
1.50254e-07
1.49734e-07
1.49499e-07
1.49184e-07
1.48679e-07
1.48288e-07
1.4781e-07
1.4742e-07
1.47007e-07
1.46633e-07
1.46329e-07
1.4612e-07
1.4598e-07
1.45861e-07
1.45818e-07
1.45734e-07
1.45579e-07
1.45404e-07
1.45118e-07
1.44914e-07
1.44853e-07
1.44976e-07
1.45266e-07
1.45679e-07
1.46094e-07
1.46429e-07
1.46661e-07
1.46797e-07
1.46858e-07
1.46881e-07
1.46887e-07
1.46889e-07
1.46907e-07
1.46926e-07
1.46959e-07
1.47009e-07
1.47047e-07
1.4709e-07
1.47122e-07
1.47145e-07
1.4716e-07
1.47168e-07
1.4716e-07
1.47143e-07
1.47117e-07
1.4707e-07
1.47012e-07
1.46938e-07
1.46854e-07
1.46774e-07
1.46705e-07
1.46625e-07
1.46559e-07
1.46462e-07
1.46367e-07
1.50243e-07
1.49752e-07
1.49295e-07
1.48894e-07
1.48444e-07
1.47896e-07
1.4709e-07
1.45879e-07
1.44163e-07
1.41672e-07
1.37988e-07
1.32696e-07
1.26004e-07
1.19281e-07
1.14371e-07
1.13146e-07
1.16623e-07
1.22737e-07
1.30751e-07
1.38684e-07
1.45468e-07
1.50269e-07
1.53067e-07
1.54352e-07
1.54804e-07
1.54827e-07
1.54579e-07
1.53847e-07
1.53048e-07
1.52294e-07
1.51463e-07
1.50672e-07
1.49841e-07
1.49375e-07
1.49019e-07
1.48622e-07
1.48253e-07
1.47791e-07
1.47407e-07
1.47073e-07
1.4677e-07
1.46452e-07
1.46172e-07
1.45917e-07
1.45663e-07
1.45532e-07
1.45084e-07
1.44189e-07
1.43164e-07
1.41794e-07
1.40779e-07
1.40343e-07
1.40617e-07
1.41362e-07
1.4241e-07
1.43549e-07
1.44559e-07
1.45331e-07
1.4587e-07
1.46217e-07
1.46435e-07
1.46575e-07
1.46677e-07
1.4677e-07
1.46843e-07
1.4692e-07
1.46998e-07
1.47054e-07
1.47112e-07
1.4716e-07
1.47198e-07
1.47216e-07
1.47222e-07
1.47223e-07
1.47213e-07
1.47193e-07
1.47171e-07
1.47155e-07
1.47131e-07
1.47093e-07
1.47026e-07
1.46938e-07
1.46813e-07
1.46708e-07
1.46591e-07
1.46462e-07
1.49882e-07
1.49337e-07
1.48744e-07
1.48176e-07
1.47479e-07
1.46509e-07
1.45071e-07
1.42928e-07
1.3974e-07
1.34938e-07
1.27911e-07
1.18357e-07
1.06947e-07
9.59587e-08
8.82909e-08
8.6597e-08
9.12542e-08
9.94621e-08
1.11291e-07
1.23114e-07
1.34366e-07
1.43278e-07
1.49308e-07
1.5268e-07
1.54273e-07
1.54798e-07
1.54766e-07
1.54282e-07
1.53531e-07
1.52709e-07
1.51851e-07
1.51152e-07
1.50375e-07
1.49676e-07
1.49013e-07
1.48611e-07
1.48355e-07
1.48023e-07
1.47667e-07
1.473e-07
1.4683e-07
1.46382e-07
1.46067e-07
1.45766e-07
1.45358e-07
1.44753e-07
1.4339e-07
1.40963e-07
1.38049e-07
1.34756e-07
1.32137e-07
1.30819e-07
1.30883e-07
1.32188e-07
1.34495e-07
1.37139e-07
1.39633e-07
1.41683e-07
1.43231e-07
1.44335e-07
1.45092e-07
1.45612e-07
1.45989e-07
1.46285e-07
1.46513e-07
1.46714e-07
1.46886e-07
1.47007e-07
1.47106e-07
1.47176e-07
1.47233e-07
1.47273e-07
1.47299e-07
1.47298e-07
1.47263e-07
1.47212e-07
1.47152e-07
1.47082e-07
1.46995e-07
1.46911e-07
1.46833e-07
1.4676e-07
1.46683e-07
1.46595e-07
1.46504e-07
1.46393e-07
1.48921e-07
1.48277e-07
1.47462e-07
1.46614e-07
1.45499e-07
1.43834e-07
1.41331e-07
1.37612e-07
1.32003e-07
1.23668e-07
1.11991e-07
9.71246e-08
8.10695e-08
6.73491e-08
5.9412e-08
5.83581e-08
6.2627e-08
7.24605e-08
8.55015e-08
9.99887e-08
1.16022e-07
1.30329e-07
1.41394e-07
1.48531e-07
1.52458e-07
1.54241e-07
1.54749e-07
1.54479e-07
1.53908e-07
1.53135e-07
1.52164e-07
1.51386e-07
1.50665e-07
1.50228e-07
1.49833e-07
1.49301e-07
1.48824e-07
1.48334e-07
1.47713e-07
1.4716e-07
1.46646e-07
1.46236e-07
1.45928e-07
1.4537e-07
1.44475e-07
1.42806e-07
1.39563e-07
1.34266e-07
1.27059e-07
1.19719e-07
1.13806e-07
1.10801e-07
1.10954e-07
1.13644e-07
1.1807e-07
1.23367e-07
1.28614e-07
1.33165e-07
1.36831e-07
1.39606e-07
1.41613e-07
1.43043e-07
1.44087e-07
1.44888e-07
1.45504e-07
1.46018e-07
1.46435e-07
1.46742e-07
1.46972e-07
1.47123e-07
1.47224e-07
1.47287e-07
1.47327e-07
1.4735e-07
1.47338e-07
1.47306e-07
1.47268e-07
1.47241e-07
1.47193e-07
1.47116e-07
1.47022e-07
1.46928e-07
1.46797e-07
1.4671e-07
1.46575e-07
1.46458e-07
1.46958e-07
1.46139e-07
1.44985e-07
1.43672e-07
1.41849e-07
1.39061e-07
1.34932e-07
1.28852e-07
1.1974e-07
1.06628e-07
8.92707e-08
6.91768e-08
5.06675e-08
3.99108e-08
3.48198e-08
3.50285e-08
3.82887e-08
4.85716e-08
6.05244e-08
7.54518e-08
9.18277e-08
1.0986e-07
1.27003e-07
1.39983e-07
1.48136e-07
1.52336e-07
1.54135e-07
1.54393e-07
1.5403e-07
1.53427e-07
1.5249e-07
1.51583e-07
1.50583e-07
1.49783e-07
1.49218e-07
1.4869e-07
1.48212e-07
1.47765e-07
1.47286e-07
1.46903e-07
1.46598e-07
1.46178e-07
1.45594e-07
1.44587e-07
1.4276e-07
1.3923e-07
1.32102e-07
1.21257e-07
1.07295e-07
9.3908e-08
8.34593e-08
7.77984e-08
7.70424e-08
8.09082e-08
8.82466e-08
9.74178e-08
1.07077e-07
1.15964e-07
1.23258e-07
1.29121e-07
1.33536e-07
1.36813e-07
1.39279e-07
1.41198e-07
1.42716e-07
1.43998e-07
1.45043e-07
1.45859e-07
1.46464e-07
1.46867e-07
1.4712e-07
1.47263e-07
1.47324e-07
1.47357e-07
1.47358e-07
1.4732e-07
1.47254e-07
1.47196e-07
1.47143e-07
1.47085e-07
1.47013e-07
1.46918e-07
1.46798e-07
1.46686e-07
1.46571e-07
1.46434e-07
1.43354e-07
1.42235e-07
1.40575e-07
1.38557e-07
1.3568e-07
1.31256e-07
1.24749e-07
1.1529e-07
1.01372e-07
8.19666e-08
5.76192e-08
3.72302e-08
2.79562e-08
2.62184e-08
2.41638e-08
2.2866e-08
2.29181e-08
2.97377e-08
3.88336e-08
5.40973e-08
6.96256e-08
8.73103e-08
1.05068e-07
1.24503e-07
1.39511e-07
1.48166e-07
1.52331e-07
1.53728e-07
1.53907e-07
1.53549e-07
1.52795e-07
1.51965e-07
1.51055e-07
1.50204e-07
1.49577e-07
1.49069e-07
1.48633e-07
1.48211e-07
1.47774e-07
1.47289e-07
1.46681e-07
1.45818e-07