/*--------------------------------*- C++ -*----------------------------------*\
| =========                 |                                                 |
| \\      /  F ield         | OpenFOAM: The Open Source CFD Toolbox           |
|  \\    /   O peration     | Version:  v1912                                 |
|   \\  /    A nd           | Website:  www.openfoam.com                      |
|    \\/     M anipulation  |                                                 |
\*---------------------------------------------------------------------------*/
FoamFile
{
    version     2.0;
    format      ascii;
    class       volScalarField;
    location    "10";
    object      nut;
}
// * * * * * * * * * * * * * * * * * * * * * * * * * * * * * * * * * * * * * //

dimensions      [0 2 -1 0 0 0 0];


internalField   nonuniform List<scalar> 
14268
(
9.15859e-05
9.15764e-05
9.15857e-05
9.16065e-05
9.16422e-05
9.16889e-05
9.17481e-05
9.18169e-05
9.18931e-05
9.19739e-05
9.20566e-05
9.21373e-05
9.22144e-05
9.22863e-05
9.23515e-05
9.24096e-05
9.24598e-05
9.25021e-05
9.25361e-05
9.25619e-05
9.25787e-05
9.25855e-05
9.25829e-05
9.25796e-05
9.25773e-05
9.25757e-05
9.25748e-05
9.25746e-05
9.25746e-05
9.25749e-05
9.25764e-05
9.25793e-05
9.25831e-05
9.25877e-05
9.25927e-05
9.25977e-05
9.26026e-05
9.26072e-05
9.26114e-05
9.26154e-05
9.26191e-05
9.26225e-05
9.26258e-05
9.26289e-05
9.26318e-05
9.26356e-05
9.26399e-05
9.26447e-05
9.26496e-05
9.26546e-05
9.26595e-05
9.26643e-05
9.26689e-05
9.26733e-05
9.26774e-05
9.26813e-05
9.26849e-05
9.26882e-05
9.26913e-05
9.26942e-05
9.26968e-05
9.26992e-05
9.27013e-05
9.27033e-05
9.27051e-05
9.27067e-05
9.27082e-05
9.27095e-05
9.27107e-05
9.27118e-05
9.27128e-05
9.27136e-05
9.27144e-05
9.27151e-05
9.27157e-05
9.27163e-05
9.27168e-05
9.27173e-05
9.27177e-05
9.2718e-05
9.27183e-05
9.27186e-05
9.27189e-05
9.27191e-05
9.27192e-05
9.27191e-05
4.86175e-07
4.8706e-07
4.87934e-07
4.88795e-07
4.89707e-07
4.90664e-07
4.91671e-07
4.92709e-07
4.93792e-07
4.949e-07
4.96044e-07
4.97228e-07
4.98434e-07
4.99644e-07
5.0083e-07
5.01972e-07
5.03043e-07
5.04029e-07
5.04917e-07
5.05695e-07
5.06363e-07
5.06924e-07
5.07312e-07
5.07121e-07
5.06238e-07
5.04682e-07
5.0253e-07
4.99899e-07
4.96932e-07
4.93797e-07
4.90661e-07
4.87642e-07
4.84852e-07
4.82367e-07
4.80225e-07
4.78436e-07
4.76987e-07
4.75847e-07
4.74981e-07
4.74347e-07
4.73905e-07
4.73617e-07
4.7345e-07
4.73376e-07
4.73367e-07
4.73368e-07
4.73368e-07
4.73368e-07
4.73368e-07
4.73368e-07
4.73368e-07
4.73368e-07
4.73368e-07
4.73368e-07
4.73368e-07
4.73368e-07
4.73368e-07
4.73368e-07
4.73368e-07
4.73368e-07
4.73368e-07
4.73368e-07
4.73368e-07
4.73368e-07
4.73368e-07
4.73368e-07
4.73368e-07
4.73368e-07
4.73368e-07
4.73368e-07
4.73368e-07
4.73368e-07
4.73368e-07
4.73368e-07
4.73368e-07
4.73368e-07
4.73368e-07
4.73368e-07
4.73368e-07
4.73368e-07
4.73368e-07
4.73368e-07
4.73368e-07
4.73368e-07
4.73367e-07
4.73368e-07
4.71549e-07
4.71699e-07
4.71776e-07
4.71922e-07
4.72037e-07
4.72191e-07
4.72337e-07
4.7247e-07
4.72578e-07
4.7266e-07
4.72742e-07
4.72842e-07
4.72939e-07
4.73021e-07
4.73096e-07
4.73156e-07
4.73207e-07
4.7325e-07
4.73281e-07
4.73293e-07
4.73295e-07
4.7329e-07
4.73277e-07
4.73245e-07
4.73191e-07
4.73125e-07
4.73054e-07
4.72981e-07
4.72916e-07
4.72868e-07
4.72837e-07
4.72823e-07
4.72822e-07
4.72826e-07
4.72835e-07
4.72847e-07
4.72861e-07
4.72875e-07
4.72887e-07
4.72898e-07
4.72906e-07
4.72913e-07
4.72918e-07
4.72921e-07
4.72924e-07
4.72925e-07
4.72926e-07
4.72926e-07
4.72926e-07
4.72926e-07
4.72925e-07
4.72925e-07
4.72925e-07
4.72924e-07
4.72924e-07
4.72924e-07
4.72923e-07
4.72923e-07
4.72923e-07
4.72923e-07
4.72922e-07
4.72922e-07
4.72922e-07
4.72922e-07
4.72922e-07
4.72922e-07
4.72922e-07
4.72921e-07
4.72921e-07
4.72921e-07
4.72921e-07
4.72921e-07
4.72921e-07
4.72921e-07
4.72921e-07
4.72921e-07
4.72921e-07
4.72921e-07
4.72921e-07
4.72921e-07
4.72921e-07
4.72921e-07
4.72921e-07
4.7292e-07
4.7292e-07
4.7292e-07
4.72898e-07
4.72913e-07
4.72908e-07
4.72892e-07
4.72871e-07
4.72853e-07
4.72835e-07
4.7281e-07
4.72779e-07
4.72739e-07
4.72708e-07
4.72688e-07
4.72676e-07
4.72665e-07
4.72659e-07
4.72654e-07
4.7265e-07
4.72653e-07
4.72662e-07
4.72671e-07
4.72682e-07
4.72692e-07
4.72699e-07
4.72704e-07
4.72701e-07
4.72694e-07
4.72684e-07
4.7267e-07
4.7266e-07
4.72659e-07
4.72671e-07
4.72694e-07
4.72718e-07
4.72745e-07
4.72774e-07
4.72802e-07
4.72827e-07
4.7285e-07
4.72869e-07
4.72885e-07
4.72897e-07
4.72906e-07
4.72913e-07
4.72918e-07
4.72921e-07
4.72924e-07
4.72925e-07
4.72926e-07
4.72926e-07
4.72926e-07
4.72926e-07
4.72925e-07
4.72925e-07
4.72924e-07
4.72924e-07
4.72924e-07
4.72923e-07
4.72923e-07
4.72923e-07
4.72922e-07
4.72922e-07
4.72922e-07
4.72922e-07
4.72922e-07
4.72921e-07
4.72921e-07
4.72921e-07
4.72921e-07
4.72921e-07
4.72921e-07
4.72921e-07
4.72921e-07
4.7292e-07
4.7292e-07
4.7292e-07
4.7292e-07
4.7292e-07
4.7292e-07
4.7292e-07
4.7292e-07
4.7292e-07
4.7292e-07
4.7292e-07
4.7292e-07
4.7292e-07
4.7292e-07
4.71936e-07
4.7203e-07
4.72055e-07
4.72183e-07
4.7225e-07
4.72365e-07
4.72463e-07
4.72552e-07
4.72603e-07
4.72631e-07
4.72654e-07
4.72691e-07
4.72723e-07
4.72745e-07
4.7276e-07
4.72763e-07
4.72759e-07
4.72754e-07
4.72747e-07
4.7273e-07
4.72705e-07
4.72678e-07
4.72651e-07
4.72625e-07
4.72599e-07
4.72575e-07
4.72555e-07
4.72542e-07
4.72541e-07
4.72556e-07
4.72586e-07
4.72626e-07
4.72661e-07
4.72698e-07
4.72736e-07
4.72771e-07
4.72804e-07
4.72832e-07
4.72856e-07
4.72876e-07
4.72891e-07
4.72903e-07
4.72912e-07
4.72918e-07
4.72923e-07
4.72925e-07
4.72927e-07
4.72928e-07
4.72928e-07
4.72928e-07
4.72928e-07
4.72927e-07
4.72927e-07
4.72927e-07
4.72926e-07
4.72926e-07
4.72925e-07
4.72925e-07
4.72924e-07
4.72924e-07
4.72924e-07
4.72923e-07
4.72923e-07
4.72923e-07
4.72923e-07
4.72922e-07
4.72922e-07
4.72922e-07
4.72922e-07
4.72922e-07
4.72921e-07
4.72921e-07
4.72921e-07
4.72921e-07
4.72921e-07
4.72921e-07
4.72921e-07
4.72921e-07
4.72921e-07
4.72921e-07
4.72921e-07
4.72921e-07
4.72921e-07
4.72921e-07
4.7292e-07
4.7292e-07
4.72919e-07
4.72917e-07
4.72895e-07
4.72891e-07
4.72867e-07
4.72853e-07
4.72838e-07
4.72817e-07
4.72791e-07
4.72758e-07
4.72728e-07
4.72704e-07
4.72686e-07
4.72667e-07
4.72653e-07
4.7264e-07
4.72625e-07
4.72618e-07
4.72614e-07
4.72609e-07
4.72604e-07
4.72598e-07
4.72586e-07
4.72571e-07
4.72548e-07
4.72521e-07
4.72498e-07
4.72483e-07
4.72482e-07
4.72495e-07
4.72524e-07
4.72563e-07
4.72605e-07
4.72649e-07
4.72695e-07
4.72738e-07
4.72778e-07
4.72812e-07
4.72841e-07
4.72865e-07
4.72883e-07
4.72898e-07
4.72908e-07
4.72916e-07
4.72922e-07
4.72925e-07
4.72928e-07
4.72929e-07
4.72929e-07
4.72929e-07
4.72929e-07
4.72928e-07
4.72928e-07
4.72927e-07
4.72927e-07
4.72926e-07
4.72926e-07
4.72925e-07
4.72925e-07
4.72924e-07
4.72924e-07
4.72923e-07
4.72923e-07
4.72923e-07
4.72923e-07
4.72922e-07
4.72922e-07
4.72922e-07
4.72922e-07
4.72921e-07
4.72921e-07
4.72921e-07
4.72921e-07
4.72921e-07
4.72921e-07
4.72921e-07
4.72921e-07
4.72921e-07
4.72921e-07
4.7292e-07
4.7292e-07
4.7292e-07
4.7292e-07
4.7292e-07
4.7292e-07
4.7292e-07
4.72266e-07
4.72318e-07
4.72317e-07
4.72441e-07
4.72484e-07
4.72573e-07
4.72641e-07
4.72698e-07
4.72707e-07
4.72691e-07
4.72676e-07
4.72674e-07
4.72668e-07
4.72663e-07
4.72656e-07
4.72638e-07
4.72609e-07
4.72574e-07
4.72539e-07
4.72498e-07
4.72457e-07
4.72422e-07
4.72396e-07
4.7238e-07
4.72368e-07
4.72361e-07
4.72367e-07
4.72375e-07
4.7239e-07
4.72414e-07
4.72452e-07
4.72498e-07
4.72548e-07
4.72601e-07
4.72656e-07
4.72707e-07
4.72754e-07
4.72795e-07
4.72829e-07
4.72856e-07
4.72878e-07
4.72894e-07
4.72907e-07
4.72916e-07
4.72922e-07
4.72927e-07
4.72929e-07
4.72931e-07
4.72931e-07
4.72931e-07
4.72931e-07
4.7293e-07
4.7293e-07
4.72929e-07
4.72928e-07
4.72928e-07
4.72927e-07
4.72926e-07
4.72926e-07
4.72925e-07
4.72925e-07
4.72925e-07
4.72924e-07
4.72924e-07
4.72923e-07
4.72923e-07
4.72923e-07
4.72923e-07
4.72922e-07
4.72922e-07
4.72922e-07
4.72922e-07
4.72922e-07
4.72921e-07
4.72921e-07
4.72921e-07
4.72921e-07
4.72921e-07
4.72921e-07
4.72921e-07
4.72921e-07
4.72921e-07
4.72921e-07
4.72921e-07
4.72921e-07
4.7292e-07
4.72835e-07
4.72815e-07
4.72772e-07
4.72828e-07
4.72801e-07
4.72797e-07
4.72778e-07
4.7275e-07
4.72708e-07
4.72657e-07
4.7261e-07
4.72575e-07
4.72546e-07
4.7251e-07
4.72472e-07
4.72432e-07
4.72392e-07
4.72371e-07
4.72362e-07
4.72361e-07
4.72364e-07
4.72364e-07
4.7236e-07
4.72354e-07
4.72342e-07
4.72329e-07
4.72317e-07
4.72311e-07
4.72316e-07
4.72336e-07
4.72377e-07
4.72431e-07
4.72489e-07
4.72552e-07
4.72616e-07
4.72676e-07
4.7273e-07
4.72777e-07
4.72816e-07
4.72847e-07
4.72872e-07
4.72891e-07
4.72905e-07
4.72915e-07
4.72922e-07
4.72927e-07
4.7293e-07
4.72932e-07
4.72933e-07
4.72933e-07
4.72932e-07
4.72931e-07
4.72931e-07
4.7293e-07
4.72929e-07
4.72928e-07
4.72928e-07
4.72927e-07
4.72927e-07
4.72926e-07
4.72925e-07
4.72925e-07
4.72924e-07
4.72924e-07
4.72924e-07
4.72923e-07
4.72923e-07
4.72923e-07
4.72922e-07
4.72922e-07
4.72922e-07
4.72922e-07
4.72922e-07
4.72921e-07
4.72921e-07
4.72921e-07
4.72921e-07
4.72921e-07
4.72921e-07
4.72921e-07
4.72921e-07
4.72921e-07
4.7292e-07
4.7292e-07
4.7292e-07
4.7292e-07
4.72373e-07
4.72397e-07
4.72393e-07
4.72509e-07
4.72538e-07
4.72599e-07
4.72631e-07
4.72641e-07
4.72614e-07
4.72579e-07
4.72549e-07
4.72527e-07
4.72504e-07
4.72472e-07
4.72435e-07
4.724e-07
4.72373e-07
4.72352e-07
4.72338e-07
4.72329e-07
4.72318e-07
4.72308e-07
4.72295e-07
4.72281e-07
4.72266e-07
4.72248e-07
4.72234e-07
4.72224e-07
4.72231e-07
4.72255e-07
4.72304e-07
4.72364e-07
4.72431e-07
4.72504e-07
4.72578e-07
4.72646e-07
4.72708e-07
4.72761e-07
4.72805e-07
4.7284e-07
4.72867e-07
4.72888e-07
4.72904e-07
4.72915e-07
4.72923e-07
4.72929e-07
4.72932e-07
4.72934e-07
4.72934e-07
4.72934e-07
4.72934e-07
4.72933e-07
4.72932e-07
4.72931e-07
4.72931e-07
4.7293e-07
4.72929e-07
4.72928e-07
4.72928e-07
4.72927e-07
4.72926e-07
4.72926e-07
4.72925e-07
4.72925e-07
4.72924e-07
4.72924e-07
4.72924e-07
4.72923e-07
4.72923e-07
4.72923e-07
4.72922e-07
4.72922e-07
4.72922e-07
4.72922e-07
4.72922e-07
4.72921e-07
4.72921e-07
4.72921e-07
4.72921e-07
4.72921e-07
4.72921e-07
4.72921e-07
4.72921e-07
4.72921e-07
4.72921e-07
4.72921e-07
4.72615e-07
4.72602e-07
4.72581e-07
4.72661e-07
4.72649e-07
4.72649e-07
4.72625e-07
4.72587e-07
4.72549e-07
4.72507e-07
4.72468e-07
4.72428e-07
4.72385e-07
4.72348e-07
4.72326e-07
4.72312e-07
4.72299e-07
4.72288e-07
4.72283e-07
4.72276e-07
4.7227e-07
4.72254e-07
4.72237e-07
4.72218e-07
4.72193e-07
4.72167e-07
4.72144e-07
4.72131e-07
4.72139e-07
4.72166e-07
4.72221e-07
4.72291e-07
4.7237e-07
4.72454e-07
4.72539e-07
4.72617e-07
4.72686e-07
4.72745e-07
4.72794e-07
4.72833e-07
4.72863e-07
4.72886e-07
4.72903e-07
4.72916e-07
4.72924e-07
4.7293e-07
4.72933e-07
4.72935e-07
4.72936e-07
4.72936e-07
4.72935e-07
4.72934e-07
4.72933e-07
4.72933e-07
4.72932e-07
4.72931e-07
4.7293e-07
4.72929e-07
4.72928e-07
4.72928e-07
4.72927e-07
4.72926e-07
4.72926e-07
4.72925e-07
4.72925e-07
4.72924e-07
4.72924e-07
4.72923e-07
4.72923e-07
4.72923e-07
4.72922e-07
4.72922e-07
4.72922e-07
4.72922e-07
4.72922e-07
4.72921e-07
4.72921e-07
4.72921e-07
4.72921e-07
4.72921e-07
4.72921e-07
4.72921e-07
4.72921e-07
4.72921e-07
4.72921e-07
4.7292e-07
4.7233e-07
4.72345e-07
4.72356e-07
4.72469e-07
4.72481e-07
4.72514e-07
4.72544e-07
4.72561e-07
4.72544e-07
4.72514e-07
4.7248e-07
4.72442e-07
4.72408e-07
4.72378e-07
4.72354e-07
4.72328e-07
4.7229e-07
4.72255e-07
4.72233e-07
4.72214e-07
4.72189e-07
4.72169e-07
4.72146e-07
4.72122e-07
4.72094e-07
4.72067e-07
4.72045e-07
4.72037e-07
4.72045e-07
4.72079e-07
4.72145e-07
4.72224e-07
4.72313e-07
4.72409e-07
4.72503e-07
4.72591e-07
4.72667e-07
4.72732e-07
4.72785e-07
4.72827e-07
4.7286e-07
4.72885e-07
4.72903e-07
4.72916e-07
4.72925e-07
4.72931e-07
4.72935e-07
4.72937e-07
4.72938e-07
4.72938e-07
4.72937e-07
4.72936e-07
4.72935e-07
4.72934e-07
4.72933e-07
4.72932e-07
4.72931e-07
4.7293e-07
4.72929e-07
4.72928e-07
4.72928e-07
4.72927e-07
4.72926e-07
4.72926e-07
4.72925e-07
4.72925e-07
4.72924e-07
4.72924e-07
4.72923e-07
4.72923e-07
4.72923e-07
4.72923e-07
4.72922e-07
4.72922e-07
4.72922e-07
4.72922e-07
4.72922e-07
4.72921e-07
4.72921e-07
4.72921e-07
4.72921e-07
4.72921e-07
4.72921e-07
4.72921e-07
4.72921e-07
4.72921e-07
4.72405e-07
4.72416e-07
4.72423e-07
4.72514e-07
4.72509e-07
4.72532e-07
4.72562e-07
4.72563e-07
4.7253e-07
4.72487e-07
4.72437e-07
4.72388e-07
4.72352e-07
4.72315e-07
4.72285e-07
4.72253e-07
4.72216e-07
4.72186e-07
4.72168e-07
4.72149e-07
4.72133e-07
4.72109e-07
4.7208e-07
4.72051e-07
4.7202e-07
4.71985e-07
4.71958e-07
4.71939e-07
4.71947e-07
4.71986e-07
4.72057e-07
4.72142e-07
4.72243e-07
4.72353e-07
4.72461e-07
4.7256e-07
4.72646e-07
4.72718e-07
4.72776e-07
4.72822e-07
4.72857e-07
4.72884e-07
4.72903e-07
4.72917e-07
4.72927e-07
4.72933e-07
4.72937e-07
4.72939e-07
4.7294e-07
4.72939e-07
4.72939e-07
4.72937e-07
4.72936e-07
4.72935e-07
4.72934e-07
4.72933e-07
4.72932e-07
4.72931e-07
4.7293e-07
4.72929e-07
4.72928e-07
4.72928e-07
4.72927e-07
4.72926e-07
4.72926e-07
4.72925e-07
4.72925e-07
4.72924e-07
4.72924e-07
4.72923e-07
4.72923e-07
4.72923e-07
4.72922e-07
4.72922e-07
4.72922e-07
4.72922e-07
4.72922e-07
4.72921e-07
4.72921e-07
4.72921e-07
4.72921e-07
4.72921e-07
4.72921e-07
4.72921e-07
4.72921e-07
4.72921e-07
4.72246e-07
4.72276e-07
4.72292e-07
4.72401e-07
4.72446e-07
4.72511e-07
4.72562e-07
4.72575e-07
4.72538e-07
4.72488e-07
4.72433e-07
4.72382e-07
4.72338e-07
4.7229e-07
4.72239e-07
4.72187e-07
4.72139e-07
4.721e-07
4.72072e-07
4.7205e-07
4.72023e-07
4.71992e-07
4.71963e-07
4.71929e-07
4.71888e-07
4.7185e-07
4.71818e-07
4.71802e-07
4.71813e-07
4.71866e-07
4.71954e-07
4.72061e-07
4.72185e-07
4.72312e-07
4.72433e-07
4.72542e-07
4.72634e-07
4.72711e-07
4.72773e-07
4.72821e-07
4.72858e-07
4.72885e-07
4.72906e-07
4.7292e-07
4.72929e-07
4.72935e-07
4.72939e-07
4.72941e-07
4.72942e-07
4.72941e-07
4.7294e-07
4.72939e-07
4.72938e-07
4.72936e-07
4.72935e-07
4.72934e-07
4.72933e-07
4.72932e-07
4.72931e-07
4.7293e-07
4.72929e-07
4.72928e-07
4.72927e-07
4.72927e-07
4.72926e-07
4.72925e-07
4.72925e-07
4.72924e-07
4.72924e-07
4.72924e-07
4.72923e-07
4.72923e-07
4.72923e-07
4.72922e-07
4.72922e-07
4.72922e-07
4.72922e-07
4.72922e-07
4.72921e-07
4.72921e-07
4.72921e-07
4.72921e-07
4.72921e-07
4.72921e-07
4.72921e-07
4.72921e-07
4.72242e-07
4.72267e-07
4.72282e-07
4.7241e-07
4.72481e-07
4.72549e-07
4.72582e-07
4.72575e-07
4.72525e-07
4.72461e-07
4.724e-07
4.72343e-07
4.72292e-07
4.72232e-07
4.72171e-07
4.72122e-07
4.72077e-07
4.72038e-07
4.72012e-07
4.71992e-07
4.71964e-07
4.71938e-07
4.71903e-07
4.71868e-07
4.71829e-07
4.71789e-07
4.71757e-07
4.71739e-07
4.71752e-07
4.71818e-07
4.7191e-07
4.72017e-07
4.72141e-07
4.7227e-07
4.72394e-07
4.72508e-07
4.72608e-07
4.72691e-07
4.72758e-07
4.72811e-07
4.72851e-07
4.7288e-07
4.72902e-07
4.72917e-07
4.72928e-07
4.72935e-07
4.7294e-07
4.72942e-07
4.72943e-07
4.72943e-07
4.72942e-07
4.7294e-07
4.72939e-07
4.72938e-07
4.72937e-07
4.72935e-07
4.72934e-07
4.72933e-07
4.72932e-07
4.72931e-07
4.7293e-07
4.72929e-07
4.72928e-07
4.72927e-07
4.72927e-07
4.72926e-07
4.72925e-07
4.72925e-07
4.72924e-07
4.72924e-07
4.72924e-07
4.72923e-07
4.72923e-07
4.72923e-07
4.72922e-07
4.72922e-07
4.72922e-07
4.72922e-07
4.72922e-07
4.72921e-07
4.72921e-07
4.72921e-07
4.72921e-07
4.72921e-07
4.72921e-07
4.72921e-07
4.72149e-07
4.72176e-07
4.72209e-07
4.72375e-07
4.72463e-07
4.72536e-07
4.72572e-07
4.72572e-07
4.72519e-07
4.72454e-07
4.72395e-07
4.72335e-07
4.72276e-07
4.72192e-07
4.72126e-07
4.72075e-07
4.72028e-07
4.71986e-07
4.71957e-07
4.71938e-07
4.71913e-07
4.71882e-07
4.71847e-07
4.7181e-07
4.71769e-07
4.71726e-07
4.71691e-07
4.71669e-07
4.7168e-07
4.7175e-07
4.71846e-07
4.7196e-07
4.72094e-07
4.72229e-07
4.72363e-07
4.72487e-07
4.72593e-07
4.72683e-07
4.72753e-07
4.72808e-07
4.7285e-07
4.72881e-07
4.72903e-07
4.72918e-07
4.72929e-07
4.72937e-07
4.72941e-07
4.72943e-07
4.72944e-07
4.72944e-07
4.72943e-07
4.72942e-07
4.7294e-07
4.72939e-07
4.72937e-07
4.72936e-07
4.72935e-07
4.72934e-07
4.72932e-07
4.72931e-07
4.7293e-07
4.72929e-07
4.72929e-07
4.72928e-07
4.72927e-07
4.72926e-07
4.72926e-07
4.72925e-07
4.72925e-07
4.72924e-07
4.72924e-07
4.72923e-07
4.72923e-07
4.72923e-07
4.72922e-07
4.72922e-07
4.72922e-07
4.72922e-07
4.72922e-07
4.72921e-07
4.72921e-07
4.72921e-07
4.72921e-07
4.72921e-07
4.72921e-07
4.72921e-07
4.7216e-07
4.7218e-07
4.72234e-07
4.72405e-07
4.72486e-07
4.72552e-07
4.7258e-07
4.72571e-07
4.72511e-07
4.72442e-07
4.7238e-07
4.72316e-07
4.7224e-07
4.72147e-07
4.72079e-07
4.72027e-07
4.71978e-07
4.71933e-07
4.71901e-07
4.71884e-07
4.71853e-07
4.71816e-07
4.71776e-07
4.71732e-07
4.71683e-07
4.71633e-07
4.7159e-07
4.71565e-07
4.71574e-07
4.7165e-07
4.7176e-07
4.71893e-07
4.72052e-07
4.72209e-07
4.7236e-07
4.72493e-07
4.72603e-07
4.72693e-07
4.72764e-07
4.72818e-07
4.72858e-07
4.72888e-07
4.72909e-07
4.72924e-07
4.72934e-07
4.7294e-07
4.72944e-07
4.72945e-07
4.72945e-07
4.72945e-07
4.72943e-07
4.72942e-07
4.7294e-07
4.72939e-07
4.72938e-07
4.72936e-07
4.72935e-07
4.72934e-07
4.72932e-07
4.72931e-07
4.7293e-07
4.72929e-07
4.72928e-07
4.72928e-07
4.72927e-07
4.72926e-07
4.72926e-07
4.72925e-07
4.72925e-07
4.72924e-07
4.72924e-07
4.72923e-07
4.72923e-07
4.72923e-07
4.72922e-07
4.72922e-07
4.72922e-07
4.72922e-07
4.72922e-07
4.72921e-07
4.72921e-07
4.72921e-07
4.72921e-07
4.72921e-07
4.72921e-07
4.72921e-07
4.72123e-07
4.72139e-07
4.7222e-07
4.724e-07
4.72484e-07
4.72551e-07
4.72582e-07
4.72574e-07
4.72514e-07
4.72449e-07
4.72386e-07
4.72313e-07
4.72212e-07
4.72119e-07
4.72051e-07
4.71997e-07
4.71946e-07
4.719e-07
4.71872e-07
4.71848e-07
4.71823e-07
4.7179e-07
4.71751e-07
4.71707e-07
4.71656e-07
4.71605e-07
4.71562e-07
4.71535e-07
4.71545e-07
4.71628e-07
4.71734e-07
4.71866e-07
4.72027e-07
4.72192e-07
4.72348e-07
4.72482e-07
4.72597e-07
4.72689e-07
4.72761e-07
4.72817e-07
4.72858e-07
4.72888e-07
4.7291e-07
4.72925e-07
4.72935e-07
4.72941e-07
4.72944e-07
4.72946e-07
4.72946e-07
4.72945e-07
4.72944e-07
4.72943e-07
4.72941e-07
4.72939e-07
4.72938e-07
4.72937e-07
4.72935e-07
4.72934e-07
4.72933e-07
4.72932e-07
4.72931e-07
4.7293e-07
4.72929e-07
4.72928e-07
4.72927e-07
4.72926e-07
4.72926e-07
4.72925e-07
4.72925e-07
4.72924e-07
4.72924e-07
4.72923e-07
4.72923e-07
4.72923e-07
4.72923e-07
4.72922e-07
4.72922e-07
4.72922e-07
4.72922e-07
4.72921e-07
4.72921e-07
4.72921e-07
4.72921e-07
4.72921e-07
4.72921e-07
4.72921e-07
4.72106e-07
4.72122e-07
4.72228e-07
4.72414e-07
4.72495e-07
4.72561e-07
4.72587e-07
4.72574e-07
4.72513e-07
4.72451e-07
4.72389e-07
4.72288e-07
4.72176e-07
4.72085e-07
4.72015e-07
4.71962e-07
4.7191e-07
4.71861e-07
4.71837e-07
4.71806e-07
4.71783e-07
4.71752e-07
4.71714e-07
4.71669e-07
4.71618e-07
4.71565e-07
4.71519e-07
4.7149e-07
4.715e-07
4.71588e-07
4.71697e-07
4.71841e-07
4.72007e-07
4.72179e-07
4.72337e-07
4.72477e-07
4.72594e-07
4.72688e-07
4.72762e-07
4.72818e-07
4.72859e-07
4.72889e-07
4.72911e-07
4.72926e-07
4.72936e-07
4.72942e-07
4.72945e-07
4.72947e-07
4.72947e-07
4.72946e-07
4.72945e-07
4.72943e-07
4.72941e-07
4.7294e-07
4.72938e-07
4.72937e-07
4.72936e-07
4.72934e-07
4.72933e-07
4.72932e-07
4.72931e-07
4.7293e-07
4.72929e-07
4.72928e-07
4.72927e-07
4.72927e-07
4.72926e-07
4.72925e-07
4.72925e-07
4.72924e-07
4.72924e-07
4.72923e-07
4.72923e-07
4.72923e-07
4.72923e-07
4.72922e-07
4.72922e-07
4.72922e-07
4.72922e-07
4.72921e-07
4.72921e-07
4.72921e-07
4.72921e-07
4.72921e-07
4.72921e-07
4.72921e-07
4.72065e-07
4.72088e-07
4.72215e-07
4.72409e-07
4.72495e-07
4.72564e-07
4.72592e-07
4.72583e-07
4.72528e-07
4.72471e-07
4.72387e-07
4.72252e-07
4.72146e-07
4.72054e-07
4.71983e-07
4.71927e-07
4.71875e-07
4.71823e-07
4.71801e-07
4.71767e-07
4.7174e-07
4.7171e-07
4.71671e-07
4.71623e-07
4.7157e-07
4.71513e-07
4.71464e-07
4.71434e-07
4.71445e-07
4.71541e-07
4.71654e-07
4.71808e-07
4.71983e-07
4.72161e-07
4.72325e-07
4.72472e-07
4.72591e-07
4.72687e-07
4.72761e-07
4.72818e-07
4.7286e-07
4.72891e-07
4.72912e-07
4.72927e-07
4.72937e-07
4.72943e-07
4.72946e-07
4.72948e-07
4.72948e-07
4.72947e-07
4.72945e-07
4.72944e-07
4.72942e-07
4.7294e-07
4.72939e-07
4.72937e-07
4.72936e-07
4.72935e-07
4.72933e-07
4.72932e-07
4.72931e-07
4.7293e-07
4.72929e-07
4.72928e-07
4.72927e-07
4.72927e-07
4.72926e-07
4.72925e-07
4.72925e-07
4.72924e-07
4.72924e-07
4.72924e-07
4.72923e-07
4.72923e-07
4.72923e-07
4.72922e-07
4.72922e-07
4.72922e-07
4.72922e-07
4.72922e-07
4.72921e-07
4.72921e-07
4.72921e-07
4.72921e-07
4.72921e-07
4.72921e-07
4.72032e-07
4.72084e-07
4.7222e-07
4.72415e-07
4.72503e-07
4.72574e-07
4.72601e-07
4.72597e-07
4.72554e-07
4.72478e-07
4.7235e-07
4.72216e-07
4.72115e-07
4.72023e-07
4.7195e-07
4.71895e-07
4.71841e-07
4.71789e-07
4.71766e-07
4.71737e-07
4.71707e-07
4.71673e-07
4.71633e-07
4.71584e-07
4.71529e-07
4.71469e-07
4.71419e-07
4.71386e-07
4.71397e-07
4.71497e-07
4.71616e-07
4.71773e-07
4.7196e-07
4.72142e-07
4.72315e-07
4.72464e-07
4.72587e-07
4.72686e-07
4.72762e-07
4.72819e-07
4.72861e-07
4.72892e-07
4.72913e-07
4.72928e-07
4.72938e-07
4.72944e-07
4.72947e-07
4.72949e-07
4.72948e-07
4.72947e-07
4.72946e-07
4.72944e-07
4.72942e-07
4.72941e-07
4.72939e-07
4.72938e-07
4.72936e-07
4.72935e-07
4.72934e-07
4.72932e-07
4.72931e-07
4.7293e-07
4.72929e-07
4.72928e-07
4.72928e-07
4.72927e-07
4.72926e-07
4.72926e-07
4.72925e-07
4.72924e-07
4.72924e-07
4.72924e-07
4.72923e-07
4.72923e-07
4.72923e-07
4.72922e-07
4.72922e-07
4.72922e-07
4.72922e-07
4.72922e-07
4.72921e-07
4.72921e-07
4.72921e-07
4.72921e-07
4.72921e-07
4.72921e-07
4.71992e-07
4.72086e-07
4.7222e-07
4.72416e-07
4.72513e-07
4.7259e-07
4.72629e-07
4.72639e-07
4.72578e-07
4.72462e-07
4.72307e-07
4.72186e-07
4.72085e-07
4.71991e-07
4.71914e-07
4.71854e-07
4.71801e-07
4.71751e-07
4.7172e-07
4.71695e-07
4.71665e-07
4.71628e-07
4.71583e-07
4.71529e-07
4.7147e-07
4.7141e-07
4.71356e-07
4.71321e-07
4.71336e-07
4.71447e-07
4.71574e-07
4.71738e-07
4.71933e-07
4.72126e-07
4.72307e-07
4.7246e-07
4.72586e-07
4.72686e-07
4.72763e-07
4.72821e-07
4.72863e-07
4.72894e-07
4.72915e-07
4.7293e-07
4.72939e-07
4.72945e-07
4.72948e-07
4.72949e-07
4.72949e-07
4.72948e-07
4.72946e-07
4.72945e-07
4.72943e-07
4.72941e-07
4.7294e-07
4.72938e-07
4.72937e-07
4.72935e-07
4.72934e-07
4.72933e-07
4.72931e-07
4.7293e-07
4.72929e-07
4.72929e-07
4.72928e-07
4.72927e-07
4.72926e-07
4.72926e-07
4.72925e-07
4.72925e-07
4.72924e-07
4.72924e-07
4.72923e-07
4.72923e-07
4.72923e-07
4.72922e-07
4.72922e-07
4.72922e-07
4.72922e-07
4.72922e-07
4.72921e-07
4.72921e-07
4.72921e-07
4.72921e-07
4.72921e-07
4.72921e-07
4.7196e-07
4.72088e-07
4.72224e-07
4.72423e-07
4.72527e-07
4.72618e-07
4.72673e-07
4.72675e-07
4.72581e-07
4.72409e-07
4.7227e-07
4.72154e-07
4.72051e-07
4.71953e-07
4.71875e-07
4.71817e-07
4.71761e-07
4.71715e-07
4.7168e-07
4.71658e-07
4.71632e-07
4.71594e-07
4.71549e-07
4.71493e-07
4.71432e-07
4.71369e-07
4.71315e-07
4.71282e-07
4.71297e-07
4.71408e-07
4.71535e-07
4.7171e-07
4.71909e-07
4.72112e-07
4.72297e-07
4.72455e-07
4.72584e-07
4.72686e-07
4.72765e-07
4.72823e-07
4.72865e-07
4.72895e-07
4.72917e-07
4.72931e-07
4.72941e-07
4.72946e-07
4.72949e-07
4.7295e-07
4.7295e-07
4.72949e-07
4.72947e-07
4.72945e-07
4.72943e-07
4.72942e-07
4.7294e-07
4.72938e-07
4.72937e-07
4.72935e-07
4.72934e-07
4.72933e-07
4.72932e-07
4.72931e-07
4.7293e-07
4.72929e-07
4.72928e-07
4.72927e-07
4.72926e-07
4.72926e-07
4.72925e-07
4.72925e-07
4.72924e-07
4.72924e-07
4.72923e-07
4.72923e-07
4.72923e-07
4.72922e-07
4.72922e-07
4.72922e-07
4.72922e-07
4.72922e-07
4.72921e-07
4.72921e-07
4.72921e-07
4.72921e-07
4.72921e-07
4.72921e-07
4.71949e-07
4.72082e-07
4.72229e-07
4.72434e-07
4.72559e-07
4.72676e-07
4.72724e-07
4.72686e-07
4.72525e-07
4.72365e-07
4.72241e-07
4.72122e-07
4.7202e-07
4.71917e-07
4.71833e-07
4.71769e-07
4.71713e-07
4.71669e-07
4.71627e-07
4.71601e-07
4.71576e-07
4.71537e-07
4.7149e-07
4.7143e-07
4.71362e-07
4.71291e-07
4.71227e-07
4.71184e-07
4.71198e-07
4.71319e-07
4.71457e-07
4.7165e-07
4.7186e-07
4.72067e-07
4.72261e-07
4.72426e-07
4.72566e-07
4.72672e-07
4.72751e-07
4.72816e-07
4.72863e-07
4.72896e-07
4.72918e-07
4.72932e-07
4.72942e-07
4.72947e-07
4.7295e-07
4.72951e-07
4.72951e-07
4.72949e-07
4.72948e-07
4.72946e-07
4.72944e-07
4.72942e-07
4.72941e-07
4.72939e-07
4.72937e-07
4.72936e-07
4.72934e-07
4.72933e-07
4.72932e-07
4.72931e-07
4.7293e-07
4.72929e-07
4.72928e-07
4.72927e-07
4.72927e-07
4.72926e-07
4.72925e-07
4.72925e-07
4.72924e-07
4.72924e-07
4.72923e-07
4.72923e-07
4.72923e-07
4.72922e-07
4.72922e-07
4.72922e-07
4.72922e-07
4.72922e-07
4.72921e-07
4.72921e-07
4.72921e-07
4.72921e-07
4.72921e-07
4.72921e-07
4.71964e-07
4.72078e-07
4.72234e-07
4.72454e-07
4.7261e-07
4.72721e-07
4.72739e-07
4.72635e-07
4.72482e-07
4.72333e-07
4.72199e-07
4.72093e-07
4.7198e-07
4.71869e-07
4.71786e-07
4.71725e-07
4.71664e-07
4.71624e-07
4.71586e-07
4.71566e-07
4.71547e-07
4.71513e-07
4.71468e-07
4.71409e-07
4.71341e-07
4.71274e-07
4.71219e-07
4.71194e-07
4.71223e-07
4.71356e-07
4.71517e-07
4.71725e-07
4.71951e-07
4.72167e-07
4.72356e-07
4.72514e-07
4.7263e-07
4.72728e-07
4.72801e-07
4.72846e-07
4.72878e-07
4.729e-07
4.72918e-07
4.72932e-07
4.72942e-07
4.72947e-07
4.7295e-07
4.72951e-07
4.72951e-07
4.7295e-07
4.72948e-07
4.72946e-07
4.72944e-07
4.72943e-07
4.72941e-07
4.72939e-07
4.72938e-07
4.72936e-07
4.72935e-07
4.72933e-07
4.72932e-07
4.72931e-07
4.7293e-07
4.72929e-07
4.72928e-07
4.72927e-07
4.72927e-07
4.72926e-07
4.72925e-07
4.72925e-07
4.72924e-07
4.72924e-07
4.72924e-07
4.72923e-07
4.72923e-07
4.72923e-07
4.72922e-07
4.72922e-07
4.72922e-07
4.72922e-07
4.72921e-07
4.72921e-07
4.72921e-07
4.72921e-07
4.72921e-07
4.72921e-07
4.71977e-07
4.72088e-07
4.72262e-07
4.72505e-07
4.72658e-07
4.72733e-07
4.72703e-07
4.72607e-07
4.72447e-07
4.72308e-07
4.72193e-07
4.72051e-07
4.71946e-07
4.71844e-07
4.71748e-07
4.71678e-07
4.71619e-07
4.71575e-07
4.71538e-07
4.71506e-07
4.71479e-07
4.71439e-07
4.71388e-07
4.71322e-07
4.71246e-07
4.71165e-07
4.71086e-07
4.71024e-07
4.7102e-07
4.71124e-07
4.71251e-07
4.71433e-07
4.71648e-07
4.7188e-07
4.72105e-07
4.72308e-07
4.72481e-07
4.72605e-07
4.72704e-07
4.72784e-07
4.72845e-07
4.72891e-07
4.7292e-07
4.72936e-07
4.72946e-07
4.72952e-07
4.72954e-07
4.72955e-07
4.72954e-07
4.72952e-07
4.7295e-07
4.72948e-07
4.72946e-07
4.72944e-07
4.72942e-07
4.7294e-07
4.72938e-07
4.72937e-07
4.72935e-07
4.72934e-07
4.72933e-07
4.72931e-07
4.7293e-07
4.72929e-07
4.72928e-07
4.72928e-07
4.72927e-07
4.72926e-07
4.72925e-07
4.72925e-07
4.72924e-07
4.72924e-07
4.72924e-07
4.72923e-07
4.72923e-07
4.72923e-07
4.72922e-07
4.72922e-07
4.72922e-07
4.72922e-07
4.72922e-07
4.72921e-07
4.72921e-07
4.72921e-07
4.72921e-07
4.72921e-07
4.7198e-07
4.72104e-07
4.723e-07
4.72537e-07
4.72668e-07
4.72716e-07
4.72687e-07
4.72565e-07
4.72411e-07
4.72288e-07
4.7214e-07
4.72019e-07
4.71894e-07
4.71775e-07
4.71684e-07
4.71619e-07
4.71552e-07
4.71511e-07
4.71484e-07
4.71468e-07
4.71455e-07
4.71427e-07
4.71383e-07
4.71324e-07
4.71255e-07
4.71193e-07
4.71149e-07
4.71146e-07
4.71219e-07
4.71404e-07
4.71611e-07
4.71847e-07
4.72077e-07
4.72291e-07
4.72482e-07
4.72624e-07
4.72728e-07
4.72817e-07
4.72881e-07
4.72919e-07
4.72941e-07
4.7295e-07
4.72958e-07
4.72962e-07
4.72963e-07
4.72963e-07
4.72962e-07
4.7296e-07
4.72958e-07
4.72955e-07
4.72953e-07
4.72951e-07
4.72948e-07
4.72946e-07
4.72944e-07
4.72942e-07
4.7294e-07
4.72938e-07
4.72937e-07
4.72935e-07
4.72934e-07
4.72933e-07
4.72931e-07
4.7293e-07
4.72929e-07
4.72928e-07
4.72927e-07
4.72927e-07
4.72926e-07
4.72925e-07
4.72925e-07
4.72924e-07
4.72924e-07
4.72924e-07
4.72923e-07
4.72923e-07
4.72923e-07
4.72922e-07
4.72922e-07
4.72922e-07
4.72922e-07
4.72921e-07
4.72921e-07
4.72921e-07
4.72921e-07
4.72921e-07
4.71952e-07
4.72073e-07
4.72283e-07
4.72526e-07
4.72645e-07
4.7267e-07
4.72665e-07
4.7254e-07
4.72411e-07
4.72254e-07
4.72137e-07
4.72002e-07
4.71872e-07
4.7175e-07
4.71664e-07
4.7158e-07
4.71519e-07
4.71472e-07
4.71443e-07
4.7141e-07
4.7138e-07
4.71334e-07
4.71276e-07
4.71205e-07
4.71119e-07
4.71029e-07
4.70934e-07
4.70851e-07
4.70819e-07
4.70886e-07
4.70997e-07
4.71175e-07
4.71404e-07
4.71658e-07
4.71897e-07
4.72126e-07
4.72315e-07
4.7245e-07
4.72544e-07
4.72628e-07
4.72695e-07
4.72748e-07
4.72789e-07
4.72822e-07
4.72848e-07
4.72868e-07
4.72883e-07
4.72894e-07
4.72903e-07
4.7291e-07
4.72916e-07
4.72919e-07
4.72922e-07
4.72924e-07
4.72926e-07
4.72927e-07
4.72927e-07
4.72928e-07
4.72927e-07
4.72927e-07
4.72927e-07
4.72926e-07
4.72926e-07
4.72925e-07
4.72925e-07
4.72925e-07
4.72924e-07
4.72924e-07
4.72923e-07
4.72923e-07
4.72923e-07
4.72923e-07
4.72922e-07
4.72922e-07
4.72922e-07
4.72922e-07
4.72922e-07
4.72921e-07
4.72921e-07
4.72921e-07
4.72921e-07
4.72921e-07
4.72921e-07
4.72921e-07
4.72921e-07
4.72921e-07
4.71741e-07
4.71882e-07
4.7213e-07
4.72397e-07
4.72498e-07
4.72608e-07
4.72616e-07
4.72505e-07
4.72366e-07
4.72229e-07
4.72087e-07
4.7193e-07
4.71793e-07
4.71665e-07
4.71572e-07
4.71491e-07
4.71416e-07
4.71375e-07
4.71354e-07
4.71344e-07
4.71339e-07
4.71321e-07
4.71284e-07
4.71226e-07
4.71154e-07
4.71094e-07
4.71043e-07
4.71031e-07
4.71137e-07
4.7136e-07
4.71603e-07
4.7189e-07
4.72176e-07
4.72427e-07
4.72639e-07
4.72777e-07
4.72879e-07
4.72957e-07
4.73015e-07
4.73043e-07
4.73054e-07
4.73053e-07
4.73048e-07
4.73041e-07
4.73034e-07
4.73027e-07
4.7302e-07
4.73013e-07
4.73007e-07
4.73e-07
4.72994e-07
4.72988e-07
4.72982e-07
4.72977e-07
4.72972e-07
4.72967e-07
4.72963e-07
4.72959e-07
4.72955e-07
4.72952e-07
4.72949e-07
4.72946e-07
4.72943e-07
4.72941e-07
4.72939e-07
4.72937e-07
4.72935e-07
4.72933e-07
4.72932e-07
4.72931e-07
4.7293e-07
4.72929e-07
4.72928e-07
4.72927e-07
4.72926e-07
4.72925e-07
4.72925e-07
4.72924e-07
4.72924e-07
4.72923e-07
4.72923e-07
4.72923e-07
4.72922e-07
4.72922e-07
4.72922e-07
4.72922e-07
4.70762e-07
4.70893e-07
4.71191e-07
4.71549e-07
4.71905e-07
4.72226e-07
4.72386e-07
4.72373e-07
4.72329e-07
4.72211e-07
4.72059e-07
4.71946e-07
4.71789e-07
4.71654e-07
4.71573e-07
4.71472e-07
4.71405e-07
4.71358e-07
4.71333e-07
4.71302e-07
4.71275e-07
4.71223e-07
4.71152e-07
4.71074e-07
4.70979e-07
4.70878e-07
4.70759e-07
4.70626e-07
4.70524e-07
4.70478e-07
4.70524e-07
4.70676e-07
4.70915e-07
4.71181e-07
4.71427e-07
4.71673e-07
4.71886e-07