/*--------------------------------*- C++ -*----------------------------------*\
| =========                 |                                                 |
| \\      /  F ield         | OpenFOAM: The Open Source CFD Toolbox           |
|  \\    /   O peration     | Version:  v1912                                 |
|   \\  /    A nd           | Website:  www.openfoam.com                      |
|    \\/     M anipulation  |                                                 |
\*---------------------------------------------------------------------------*/
FoamFile
{
    version     2.0;
    format      ascii;
    class       volScalarField;
    location    "10";
    object      p;
}
// * * * * * * * * * * * * * * * * * * * * * * * * * * * * * * * * * * * * * //

dimensions      [1 -1 -2 0 0 0 0];


internalField   nonuniform List<scalar> 
14268
(
158236
158277
158373
158546
158774
159066
159405
159769
160158
160553
160942
161347
161722
162073
162396
162685
162940
163159
163340
163483
163585
163646
163663
163637
163569
163460
163315
163141
162946
162736
162521
162307
162101
161908
161732
161575
161438
161322
161225
161146
161084
161036
161001
160977
160962
160954
160953
160956
160963
160974
160986
161000
161015
161030
161046
161062
161077
161093
161107
161121
161134
161146
161158
161169
161179
161189
161197
161205
161213
161219
161226
161231
161236
161241
161245
161249
161253
161256
161259
161261
161263
161266
161267
161269
161271
161272
150823
150875
150981
151161
151394
151686
152024
152386
152770
153160
153543
153941
154311
154656
154974
155260
155512
155729
155908
156049
156151
156210
156226
156200
156132
156022
155876
155702
155506
155295
155079
154864
154657
154464
154287
154130
153994
153877
153781
153702
153640
153593
153558
153534
153519
153512
153510
153514
153521
153532
153544
153558
153573
153589
153605
153620
153636
153651
153666
153679
153693
153705
153717
153728
153738
153747
153756
153764
153771
153778
153784
153790
153795
153799
153804
153808
153811
153814
153817
153820
153822
153824
153826
153828
153829
153830
143370
143425
143533
143716
143951
144246
144586
144949
145335
145726
146111
146509
146880
147226
147544
147830
148082
148298
148478
148619
148721
148780
148797
148770
148701
148590
148442
148266
148068
147855
147636
147420
147212
147017
146840
146683
146546
146430
146334
146256
146194
146147
146113
146090
146075
146068
146067
146071
146079
146089
146102
146116
146131
146147
146163
146179
146194
146210
146224
146238
146251
146264
146275
146286
146296
146306
146314
146322
146330
146336
146343
146348
146353
146358
146362
146366
146370
146373
146376
146378
146380
146382
146384
146386
146387
146389
135935
136000
136116
136305
136545
136841
137183
137547
137932
138321
138704
139099
139467
139810
140125
140409
140659
140874
141053
141194
141296
141355
141371
141344
141274
141162
141012
140833
140631
140415
140194
139975
139764
139568
139390
139232
139096
138980
138884
138807
138746
138700
138667
138644
138630
138624
138624
138628
138636
138647
138660
138674
138690
138705
138721
138737
138753
138768
138783
138797
138810
138822
138834
138845
138855
138864
138873
138881
138888
138895
138901
138907
138912
138917
138921
138925
138928
138931
138934
138937
138939
138941
138943
138944
138946
138947
128470
128539
128660
128853
129098
129399
129744
130113
130501
130893
131279
131675
132045
132389
132705
132988
133238
133454
133633
133774
133876
133937
133954
133925
133853
133739
133586
133403
133197
132977
132751
132528
132315
132116
131937
131778
131643
131527
131432
131356
131296
131251
131219
131197
131184
131179
131179
131184
131193
131204
131217
131232
131248
131264
131280
131296
131312
131327
131342
131356
131369
131381
131393
131404
131414
131423
131432
131440
131447
131454
131460
131466
131471
131475
131479
131483
131487
131490
131493
131495
131497
131500
131501
131503
131504
131506
121015
121092
121220
121419
121670
121974
122323
122696
123087
123480
123868
124263
124633
124976
125291
125573
125823
126038
126217
126359
126462
126523
126540
126511
126438
126320
126164
125976
125764
125538
125307
125080
124863
124662
124481
124322
124186
124071
123977
123902
123844
123801
123770
123749
123737
123733
123734
123740
123749
123761
123775
123790
123806
123822
123838
123855
123870
123886
123901
123915
123928
123940
123952
123963
123973
123982
123991
123999
124006
124013
124019
124024
124029
124034
124038
124042
124045
124048
124051
124054
124056
124058
124060
124062
124063
124064
113538
113620
113754
113959
114215
114526
114881
115260
115657
116055
116448
116845
117218
117562
117878
118161
118411
118626
118806
118949
119053
119115
119133
119104
119029
118908
118746
118552
118334
118101
117863
117630
117409
117205
117022
116862
116726
116612
116520
116446
116390
116348
116319
116300
116289
116286
116288
116295
116305
116317
116332
116347
116364
116380
116397
116413
116429
116445
116460
116474
116487
116499
116511
116522
116532
116541
116550
116558
116565
116572
116578
116583
116588
116593
116597
116601
116604
116607
116610
116612
116615
116617
116618
116620
116622
116623
106063
106152
106293
106504
106768
107085
107446
107832
108235
108637
109035
109434
109809
110154
110470
110753
111002
111218
111399
111543
111649
111713
111732
111702
111625
111500
111333
111132
110905
110664
110419
110179
109952
109744
109559
109399
109263
109150
109060
108988
108934
108894
108866
108849
108840
108838
108842
108850
108861
108874
108889
108905
108922
108938
108955
108972
108988
109004
109019
109033
109046
109058
109070
109081
109091
109100
109109
109117
109124
109131
109137
109142
109147
109152
109156
109159
109163
109166
109169
109171
109173
109175
109177
109179
109180
109181
98572.7
98666.6
98813.8
99032.2
99304
99628.9
99998.4
100394
100805
101214
101619
102022
102401
102748
103065
103349
103598
103814
103996
104143
104251
104317
104337
104307
104228
104099
103924
103715
103479
103228
102973
102725
102493
102281
102093
101932
101797
101685
101596
101527
101475
101438
101412
101397
101390
101390
101395
101404
101416
101430
101446
101462
101479
101497
101514
101531
101547
101563
101578
101592
101605
101618
101629
101640
101650
101660
101668
101676
101683
101690
101696
101701
101706
101711
101715
101718
101722
101725
101727
101730
101732
101734
101736
101737
101739
101740
91079.3
91179.1
91333.4
91559.3
91839.6
92173.3
92551.5
92956.9
93376.3
93793.3
94207.3
94613.4
94996.2
95346
95663.9
95947.8
96197.8
96414.5
96597.9
96746.6
96857.6
96926.9
96949
96918.4
96837.3
96702.8
96520.7
96301.2
96054
95791.6
95526.5
95269.7
95030.1
94813.6
94623.6
94461.4
94326.5
94217
94130.4
94063.8
94014.5
93979.8
93957.1
93944.3
93939.4
93940.9
93947.3
93957.6
93970.6
93985.8
94002.2
94019.5
94037.2
94055
94072.5
94089.7
94106.2
94122
94137.1
94151.3
94164.7
94177.2
94188.9
94199.7
94209.7
94219
94227.4
94235.2
94242.3
94248.9
94254.8
94260.2
94265.1
94269.5
94273.5
94277.2
94280.5
94283.4
94286.1
94288.5
94290.7
94292.6
94294.4
94295.9
94297.3
94298.6
83573.5
83678.7
83840
84073.8
84363.7
84707.5
85096.3
85513.7
85943.8
86370.4
86795.5
87206.9
87594.6
87947.4
88266.8
88551.2
88801.3
89018.9
89204.1
89355.6
89470.1
89542.9
89567.7
89537
89453.6
89313.3
89122.3
88891.3
88631.3
88355.8
88078.6
87811.6
87564.2
87342.6
87149.7
86986.9
86852.9
86745.4
86661.4
86597.9
86551.8
86520.1
86500.3
86490.1
86487.5
86491
86499.2
86510.9
86525.2
86541.4
86558.7
86576.8
86595.1
86613.3
86631.2
86648.6
86665.4
86681.4
86696.5
86710.8
86724.3
86736.8
86748.4
86759.2
86769.2
86778.4
86786.8
86794.6
86801.6
86808.1
86814
86819.3
86824.2
86828.5
86832.5
86836.1
86839.4
86842.3
86844.9
86847.3
86849.4
86851.3
86853.1
86854.6
86856
86857.2
76061.7
76172.5
76341.1
76583.2
76883.4
77238.5
77638.7
78069.3
78511.1
78947.9
79386.6
79803.7
80196.4
80552.4
80873.3
81158
81408.6
81627.2
81814.4
81969.1
82087.7
82164.8
82193.2
82163.2
82077.2
81930.5
81729.4
81485.4
81210.6
80920.1
80629.1
80350.6
80094.6
79867.3
79671.6
79508.3
79375.4
79270.3
79189.5
79129.5
79087
79058.7
79042.1
79034.7
79034.7
79040.4
79050.5
79063.9
79079.6
79096.9
79115.2
79134
79152.9
79171.6
79189.9
79207.7
79224.6
79240.8
79256.1
79270.5
79283.9
79296.5
79308.1
79318.9
79328.8
79338
79346.4
79354
79361
79367.4
79373.2
79378.5
79383.3
79387.6
79391.6
79395.1
79398.3
79401.2
79403.8
79406.1
79408.2
79410.1
79411.8
79413.3
79414.6
79415.8
68539.2
68655.2
68831.3
69082.3
69393.7
69761.6
70175.2
70620.6
71076.1
71523.3
71981.2
72403.7
72801.9
73161.8
73484
73769
74020
74239.3
74428.7
74587.2
74710.8
74793.2
74825.8
74797.2
74708.5
74554.8
74342.3
74083.5
73791.8
73484.3
73177.7
72886.4
72620.8
72387.4
72188.8
72025.2
71893.9
71791.7
71714.6
71658.6
71620.1
71595.6
71582.5
71578.3
71581.1
71589.2
71601.4
71616.5
71633.7
71652.2
71671.5
71691.2
71710.8
71730
71748.8
71766.8
71784
71800.4
71815.8
71830.2
71843.7
71856.3
71867.9
71878.7
71888.6
71897.6
71906
71913.6
71920.5
71926.8
71932.6
71937.8
71942.5
71946.8
71950.6
71954.1
71957.3
71960.1
71962.7
71964.9
71967
71968.8
71970.5
71972
71973.3
71974.5
61008.8
61129.8
61313.4
61573.8
61897.4
62279.4
62707.6
63169.4
63640.5
64102.4
64574.8
65006.9
65411.3
65775.1
66098.8
66384.2
66635
66855
67046.6
67209.5
67339.1
67427.8
67466.1
67439.6
67348.2
67186.9
66961.7
66686
66375.2
66048.3
65724.1
65418.4
65142.3
64902.3
64701
64537.3
64408.2
64309.5
64236.6
64185.1
64151.1
64130.9
64121.6
64120.8
64126.6
64137.4
64151.8
64168.8
64187.6
64207.4
64227.8
64248.3
64268.7
64288.5
64307.7
64326.1
64343.5
64360.1
64375.6
64390.1
64403.7
64416.2
64427.8
64438.6
64448.4
64457.4
64465.7
64473.2
64480.1
64486.3
64492
64497.1
64501.8
64506
64509.8
64513.2
64516.3
64519.1
64521.6
64523.8
64525.8
64527.6
64529.3
64530.7
64532
64533.2
55903.6
56027.8
56216.8
56483.8
56816.3
57208.9
57648.5
58122.6
58605.9
59079.6
59561.8
60001.6
60410.7
60777.4
61102.2
61387.4
61637.7
61857.9
62051.2
62217.5
62351.9
62445.9
62488.9
62464.6
62371
62204.3
61969.3
61680.6
61355
61013.2
60675.7
60359.2
60075.5
59830.9
59627.8
59464.4
59337.2
59241.2
59171.7
59123.7
59093
59076
59069.6
59071.3
59079.3
59092
59108
59126.3
59146.2
59167
59188.2
59209.4
59230.2
59250.5
59270
59288.6
59306.3
59322.9
59338.5
59353.1
59366.7
59379.2
59390.8
59401.5
59411.3
59420.3
59428.5
59436
59442.8
59449
59454.6
59459.7
59464.3
59468.4
59472.2
59475.6
59478.6
59481.3
59483.8
59486
59488
59489.8
59491.4
59492.8
59494.1
59495.2
53232.7
53358.6
53550.3
53820.9
54158.1
54556.6
55002.3
55483
55973
56453.1
56940.5
57384.5
57796.3
58164.6
58489.8
58774.8
59024.7
59245.1
59439.2
59607.3
59744.5
59841.4
59887.1
59864.2
59769.4
59599.8
59359.5
59063.6
58729.9
58380.1
58035.3
57712.9
57425.1
57178.1
56974.1
56810.9
56684.7
56590.3
56522.6
56476.5
56447.7
56432.4
56427.5
56430.6
56439.8
56453.4
56470.3
56489.4
56509.9
56531.2
56552.8
56574.3
56595.4
56615.8
56635.5
56654.3
56672
56688.7
56704.4
56719
56732.6
56745.1
56756.7
56767.4
56777.2
56786.1
56794.3
56801.8
56808.5
56814.7
56820.3
56825.3
56829.9
56834
56837.8
56841.1
56844.2
56846.9
56849.3
56851.5
56853.5
56855.2
56856.8
56858.2
56859.5
56860.6
50560.6
50688.1
50882.5
51156.7
51498.9
51903.3
52355.4
52843
53340
53826.9
54319.5
54768
55182.5
55552.4
55878
56162.7
56412.3
56632.6
56827.7
56997.7
57137.7
57237.7
57286.3
57265
57169.1
56996.4
56750.6
56447.4
56105.2
55746.9
55394.5
55066.1
54774
54524.5
54319.6
54156.7
54031.6
53938.9
53873.1
53829
53802.1
53788.6
53785.3
53789.7
53800.1
53814.8
53832.6
53852.4
53873.5
53895.3
53917.4
53939.2
53960.6
53981.2
54001.1
54020
54037.8
54054.6
54070.3
54084.9
54098.5
54111.1
54122.7
54133.3
54143.1
54152
54160.1
54167.6
54174.3
54180.4
54186
54191
54195.6
54199.7
54203.4
54206.7
54209.7
54212.4
54214.8
54217
54219
54220.7
54222.3
54223.7
54224.9
54226
47887.2
48016.3
48213.5
48491.4
48838.5
49249.2
49707.9
50202.6
50707
51200.8
51698.9
52152
52569.5
52940.9
53266.9
53551.2
53800.2
54020.6
54216.4
54388.5
54531.5
54634.9
54686.5
54667.1
54570
54394.3
54142.7
53831.7
53480.7
53113.5
52753.2
52418.5
52122
51870.1
51664.3
51501.8
51378
51287.1
51223.2
51181.1
51156.2
51144.6
51142.9
51148.8
51160.4
51176.2
51194.8
51215.4
51237.1
51259.5
51281.9
51304.1
51325.8
51346.7
51366.7
51385.7
51403.6
51420.5
51436.2
51450.9
51464.5
51477
51488.6
51499.2
51509
51517.9
51526
51533.4
51540.1
51546.2
51551.7
51556.7
51561.2
51565.3
51569
51572.3
51575.3
51578
51580.4
51582.5
51584.4
51586.2
51587.7
51589.1
51590.4
51591.5
45212.5
45343.2
45543.2
45824.8
46177.1
46594.2
47059.7
47561.8
48073.8
48575
49078.6
49536.6
49957.1
50330
50656.4
50940.2
51188.6
51408.8
51605.6
51779.8
51926
52033
52087.8
52070.5
51972.1
51793.4
51535.8
51216.7
50856.4
50480
50111.4
49770.3
49469.3
49214.9
49008.3
48846.2
48723.7
48634.7
48572.9
48533
48510.1
48500.4
48500.4
48507.7
48520.6
48537.4
48557
48578.3
48600.7
48623.6
48646.5
48669
48691
48712.1
48732.3
48751.4
48769.5
48786.4
48802.2
48816.9
48830.5
48843
48854.6
48865.2
48874.9
48883.8
48891.9
48899.2
48905.9
48912
48917.5
48922.4
48926.9
48931
48934.6
48937.9
48940.8
48943.5
48945.9
48948
48949.9
48951.7
48953.2
48954.6
48955.8
48956.9
42536.6
42668.7
42871.5
43156.9
43514.5
43938.3
44410.9
44920.7
45440.6
45949.3
46458.7
46921.9
47345.6
47719.8
48046.5
48329.7
48577.4
48797.4
48995.1
49171.5
49321.1
49431.9
49489.9
49475.3
49375.5
49193.7
48929.9
48602.3
48232.4
47846.3
47469.1
47121.3
46815.7
46558.8
46351.4
46189.9
46068.9
45981.8
45922.2
45884.5
45863.8
45856
45857.7
45866.5
45880.7
45898.7
45919.2
45941.3
45964.3
45987.7
46011.1
46034
46056.2
46077.5
46097.9
46117.2
46135.3
46152.3
46168.1
46182.8
46196.5
46209
46220.6
46231.1
46240.8
46249.7
46257.7
46265.1
46271.7
46277.7
46283.2
46288.1
46292.6
46296.6
46300.2
46303.5
46306.4
46309.1
46311.4
46313.5
46315.4
46317.1
46318.6
46320
46321.2
46322.3
39859.4
39992.9
40198.5
40487.8
40850.7
41281.5
41761.5
42279.1
42807.4
43323.9
43839.4
44307.8
44734.6
45110.4
45437.2
45719.8
45966.6
46186.4
46384.9
46563.6
46716.8
46831.8
46893.3
46881.3
46780.7
46595.4
46325.1
45988.6
45608.5
45212.3
44826.3
44471.5
44161.2
43901.8
43693.7
43532.9
43413.4
43328.4
43271.2
43235.8
43217.2
43211.4
43214.8
43225.3
43240.8
43259.9
43281.3
43304.2
43327.9
43351.9
43375.6
43398.9
43421.4
43443
43463.5
43482.9
43501.2
43518.2
43534.1
43548.8
43562.5
43575
43586.5
43597.1
43606.8
43615.6
43623.6
43630.9
43637.5
43643.5
43649
43653.9
43658.3
43662.3
43665.9
43669.1
43672
43674.6
43676.9
43679
43680.9
43682.6
43684.1
43685.5
43686.7
43687.7
37086.4
37221.4
37429.9
37723.2
38091.8
38530
39017.9
39544
40081.2
40606.2
41128.3
41602.3
42032.4
42410
42736.7
43018.4
43264.2
43483.6
43683
43864.2
44021.4
44140.8
44202.8
44197
44096.2
43906.9
43629.6
43283.5
42892.5
42485.4
42089.8
41727.5
41412.2
41150.2
40941.4
40781.4
40663.7
40581
40526.2
40493.3
40477.1
40473.5
40478.8
40490.8
40507.7
40528
40550.4
40574.2
40598.6
40623.1
40647.4
40671
40693.8
40715.6
40736.3
40755.9
40774.2
40791.4
40807.3
40822.1
40835.7
40848.2
40859.7
40870.3
40879.9
40888.7
40896.7
40904
40910.5
40916.5
40921.9
40926.8
40931.1
40935.1
40938.7
40941.9
40944.7
40947.3
40949.6
40951.7
40953.6
40955.2
40956.7
40958.1
40959.3
40960.3
34217.5
34353.9
34565.4
34863
35237.6
35683.8
36180.2
36715.4
37262
37796.4
38325.5
38805.5
39239.1
39618.6
39945
40225.8
40470.3
40689.2
40889.4
41073.4
41234.9
41359.5
41426.8
41423.1
41322
41128.6
40843.7
40487.2
40084.2
39665.3
39259.3
38889.1
38568.5
38303.8
38094.4
37935.3
37819.6
37739.4
37687.4
37657.2
37643.5
37642.2
37649.4
37663.2
37681.6
37703.1
37726.6
37751.2
37776.3
37801.5
37826.2
37850.3
37873.4
37895.5
37916.4
37936.1
37954.5
37971.7
37987.7
38002.5
38016.1
38028.6
38040.1
38050.7
38060.3
38069
38077
38084.2
38090.7
38096.7
38102
38106.8
38111.2
38115.1
38118.6
38121.8
38124.7
38127.2
38129.5
38131.6
38133.4
38135.1
38136.5
38137.8
38139
38140.1
31347
31484.8
31699.3
32001.1
32382
32836.4
33341.7
33886.2
34442.9
34987.1
35523.4
36009.6
36446.8
36828
37154.1
37433.6
37676.7
37895
38096.1
38282.9
38448.9
38579.1
38652
38650.9
38549.6
38351.9
38059.1
37691.7
37276.2
36844.9
36428.1
36049.6
35723.6
35456.3
35246.3
35088.4
34974.8
34897.3
34848.1
34820.7
34809.6
34810.7
34819.9
34835.5
34855.4
34878.2
34902.7
34928.2
34954.1
34979.9
35005.1
35029.5
35053
35075.3
35096.4
35116.2
35134.8
35152.1
35168.1
35182.9
35196.5
35209.1
35220.6
35231
35240.6
35249.3
35257.2
35264.4
35270.9
35276.8
35282.1
35286.9
35291.2
35295.1
35298.6
35301.8
35304.6
35307.1
35309.4
35311.4
35313.2
35314.9
35316.3
35317.6
35318.8
35319.8
28474.9
28614
28831.4
29137.7
29524.9
29987.9
30502.3
31056.4
31623.8
32178.1
32721.9
33214.5
33655.4
34038.2
34364.3
34642.1
34883.7
35101.2
35303.1
35492.8
35663.8
35799.9
35878.7
35880.6
35779.2
35577
35275.9
34897
34468.4
34024.1
33596.1
33209.1
32877.6
32607.5
32397.2
32240.5
32129.2
32054.5
32008.3
31983.8
31975.4
31979
31990.3
32007.7
32029.1
32053.2
32078.9
32105.3
32131.9
32158.2
32184
32208.8
32232.6
32255.2
32276.5
32296.5
32315.1
32332.5
32348.5
32363.4
32377
32389.5
32401
32411.5
32421
32429.7
32437.5
32444.7
32451.2
32457
32462.3
32467
32471.3
32475.2
32478.6
32481.7
32484.5
32487
32489.3
32491.3
32493.1
32494.7
32496.1
32497.4
32498.5
32499.6
25601.1
25741.5
25961.9
26272.6
26666.2
27138.2
27662.1
28226.1
28804.7
29369.5
29921.1
30420.3
30865.1
31249.4
31575.4
31851.2
32090.9
32307.4
32510.1
32702.9
32879.1
33021.7
33106.7
33112
33010.8
32803.8
32494.1
32103.2
31660.8
31203
30763.3
30367.4
30030.2
29757.5
29546.9
29391.7
29282.9
29211.2
29168.1
29146.6
29141.1
29147.4
29160.6
29179.8
29202.8
29228.2
29255
29282.3
29309.6
29336.6
29362.9
29388.2
29412.3
29435.1
29456.6
29476.7
29495.5
29512.9
29529
29543.8
29557.5
29570
29581.4
29591.9
29601.4
29610
29617.9
29625
29631.4
29637.2
29642.4
29647.1
29651.4
29655.2
29658.6
29661.7
29664.5
29666.9
29669.2
29671.1
29672.9
29674.5
29675.9
29677.2
29678.3
29679.3
22725.6
22867.3
23090.6
23405.8
23805.9
24287.4
24820.9
25395.4
25985.7
26561.4
27121.1
27627
28075.8
28461.8
28787.3
29061.1
29298.6
29514.1
29717.5
29913.6
30095.2
30244.7
30336.3
30345.4
30244.5
30032.6
29713.9
29310.3
28853.5
28381.4
27929.4
27524.4
27181.5
26906.2
26695.5
26541.8
26435.7
26367.2
26327.4
26309
26306.3
26315
26330.5
26351.7
26376.4
26403.1
26431
26459.3
26487.4
26515.1
26541.8
26567.5
26591.9
26615
26636.7
26657
26675.8
26693.3
26709.5
26724.3
26738
26750.5
26761.9
26772.3
26781.8
26790.4
26798.2
26805.2
26811.6
26817.4
26822.6
26827.2
26831.5
26835.2
26838.6
26841.7
26844.4
26846.9
26849
26851
26852.8
26854.3
26855.7
26857
26858.1
26859.1
19848.2
19991.2
20217.5
20537.2
20944
21435.2
21978.7
22564.4
23166.6
23753.8
24321.8
24834.7
25287.6
25675
25999.9
26271.7
26506.5
26720.6
26924.7
27124.1
27311.5
27468.4
27567.2
27580.6
27480.4
27263.2
26935.1
26518.3
26046.4
25559.3
25094.6
24680.1
24331.4
24053.5
23842.8
23691
23587.8
23522.7
23486.3
23471.3
23471.6
23483.5
23501
23523.8
23550
23578.2
23607.2
23636.3
23665.2
23693.5
23720.8
23746.9
23771.6
23795
23816.9
23837.3
23856.2
23873.8
23890
23904.9
23918.5
23931
23942.4
23952.8
23962.2
23970.8
23978.5
23985.5
23991.9
23997.6
24002.7
24007.4
24011.5
24015.3
24018.6
24021.7
24024.4
24026.8
24028.9
24030.9
24032.6
24034.1
24035.5
24036.8
24037.9
24038.8
16969.7
17113.5
17342.6
17666.8
18080.4
18581.8
19135.5
19733
20347.5
20946.6
21523.4
22043.6
22500.6
22889.6
23213.5
23483.2
23714.9
23927.7
24132.4
24335.3
24529
24693.8
24800.1
24818
24718.6
24496
24158.1
23727.4
23239.4
22736.7
22258.7
21834.4
21479.8
21199.4
20988.9
20839.2
20739
20677.4
20644.7
20633
20636.3
20650.3
20670.3
20695.4
20723.4
20752.9
20783.1
20813.3
20843
20871.9
20899.7
20926.2
20951.3
20974.9
20997
21017.6
21036.6
21054.3
21070.5
21085.4
21099.1
21111.5
21122.9
21133.3
21142.7
21151.2
21158.9
21165.9
21172.1
21177.8
21182.9
21187.5
21191.6
21195.3
21198.7
21201.6
21204.3
21206.7
21208.8
21210.7
21212.5
21214
21215.3
21216.5
21217.6
21218.6
14090.2
14233.6
14465.6
14794.7
15215.1
15727.1
16291.3
16901.2
17528.3
18140
18725.8
19253.4
19714.7
20105.1
20427.9
20695
20923.4
21134.3
21339.5
21546
21746.2
21919.4
22033.9
22057.2
21959.2
21730.8
21382.6
20937.3
20432.6
19913.4
19421.6
18987.2
18626.7
18343.8
18133.8
17986.3
17889.5
17831.7
17802.7
17794.5
17801
17819.3
17840.8
17867.6
17897.2
17928.1
17959.4
17990.5
18020.9
18050.5
18078.8
18105.8
18131.2
18155
18177.3
18198
18217.2
18234.9
18251.1
18266
18279.7
18292.2
18303.5
18313.8
18323.2
18331.6
18339.3
18346.2
18352.4
18358.1
18363.1
18367.7
18371.8
18375.4
18378.7
18381.6
18384.3
18386.6
18388.7
18390.6
18392.3
18393.8
18395.2
18396.3
18397.4
18398.4
11208.4
11352.2
11587.1
11920.5
12347.8
12870.9
13446.3
14068.8
14709.1
15334
15929
16464.5
16930.2
17322
17643.5
17907.6
18132.9
18341.5
18547.2
18757.5
18964.9
19147.2
19270.4
19298.7
19202.4
18967.9
18609
18148.4
17626
17089.6
16583.3
16138.5
15771.9
15486.7
15277.3
15132.3
15039
14985.2
14960.2
14955.7
14965.3
14982.2
15009.7
15038.8
15070.2
15102.7
15135.2
15167.2
15198.5
15228.8
15257.7
15285
15310.8
15334.9
15357.4
15378.3
15397.5
15415.3
15431.6
15446.6
15460.2
15472.7
15484
15494.3
15503.6
15512
15519.6
15526.5
15532.7
15538.3
15543.3
15547.8
15551.8
15555.5
15558.7
15561.6
15564.2
15566.6
15568.6
15570.5
15572.2
15573.6
15575
15576.1
15577.2
15578.1
8326.32
8468.78
8705.58
9044.38
9479.23
10013.5
10600.4
11235.8
11889.9
12528.7
13133.4
13676.7
14146.9
14539.9
14859.8
15120.4
15342.1
15548
15754.1
15968.2
16182.8
16374.7
16507.2
16541.8
16448.2
16207.3
15837.2
15360.4
14819.4
14264.8
13743.4
13288
12915.1
12627.8
12419.2
12277
12187.6
12138
12117.2
12116.4
12129.3
12152.4
12180
12211
12244.1
12277.9
12311.6
12344.6
12376.7
12407.6
12437
12464.8
12490.9
12515.2
12537.9
12558.9
12578.3
12596.1
12612.4
12627.4
12641
12653.4
12664.7
12674.9
12684.2
12692.6
12700.1
12706.9
12713.1
12718.6
12723.6
12728
12732
12735.6
12738.8
12741.7
12744.2
12746.5
12748.6
12750.4
12752
12753.5
12754.8
12755.9
12757
12757.9
5438.65
5581.53
5823.5
6167.4
6607.38
7153.15
7753.43
8402.91
9070.98
9723.92
10338.2
10890
11365
11759.4
12077.7
12334.6
12552.3
12755.2
12961.6
13179.8
13402.5
13604.8
13747.7
13788.4
13697
13449.2
13067.2
12573.6
12013.2
11439.7
10902.7
10436.3
10057.4
9768.14
9560.63
9421.58
9336.24
9290.98
9274.29
9277.36
9293.86
9319.65
9349.26
9382.29
9417.14
9452.46
9487.32
9521.32
9554.2
9585.8
9615.77
9643.97
9670.39
9695.03
9717.89
9739.03
9758.51
9776.41
9792.79
9807.77
9821.41
9833.82
9845.09
9855.3
9864.53
9872.87
9880.4
9887.18
9893.27
9898.76
9903.68
9908.1
9912.06
9915.61
9918.78
9921.62
9924.16
9926.43
9928.45
9930.26
9931.87
9933.3
9934.59
9935.73
9936.74
9937.65
2601.29
2744.03
2973.07
3298.92
3731.42
4291.42
4905.48
5568.27
6250.2
6919.31
7543.32
8103.22
8582.9
8978.56
9295.26
9548.4
9761.58
9961.13
10167.5
10389.9
10620.9
10834.2
10987.7
11034.1
10947.2
10694.2
10299.1
9787.53
9206.77
8613.38
8059.87
7581.57
7195.99
6904.5
6698.05
6562.2
6481.25
6440.94
6429.07
6436.52
6456.69
6483.87
6518.07
6553.91
6590.74
6627.65
6663.76
6698.79
6732.49
6764.79
6795.3
6823.96
6850.73
6875.62
6898.68
6919.96
6939.53
6957.47
6973.88
6988.84
7002.46
7014.82
7026.04
7036.18
7045.35
7053.62
7061.07
7067.78
7073.81
7079.22
7084.08
7088.44
7092.34
7095.83
7098.95
7101.74
7104.24
7106.46
7108.45
7110.22
7111.8
7113.21
7114.46
7115.58
7116.57
7117.45
596.309
668.585
786.599
968.09
1241.92
1669.21
2194.62
2789.39
3436.74
4117.52
4754.5
5324.15
5808.7
6204.98
6518.11
6765.57
6973.14
7168.97
7375.44
7602.23
7841.8
8066.87
8232.52
8288.33
8201.91
7943.92
7534.08
7003.92
6402.04
5788.41
5219.63
4731.59
4340.54
4048.04
3842.99
3710.22
3633
3596.45
3588.26
3599.08
3622.09
3655.92
3689.95
3726.87
3764.7
3802.61
3839.84
3875.7
3910.13
3943.09
3974.08
4003.1
4030.16
4055.28
4078.5
4099.91
4119.57
4137.57
4154.02
4169.01
4182.64
4195.01
4206.21
4216.34
4225.49
4233.73
4241.16
4247.84
4253.84
4259.23
4264.06
4268.39
4272.27
4275.73
4278.83
4281.6
4284.08
4286.28
4288.25
4290.01
4291.57
4292.96
4294.2
4295.31
4296.29
4297.17
12.0452
15.2628
23.5613
45.2805
97.6946
225.018
455.577
742.393
1107.61
1581.38
2109.43
2607.46
3052.39
3427.02
3733.09
3977.86
4182.23
4375.15
4581.9
4813.66
5063.05
5300.9
5478.93
5540.37
5457.52
5196.52
4775.71
4231.34
3617.44
3005.13
2459.87
2019.86
1695.17
1468.65
1312.32
1208.78
1145.07
1111.82
1100.03
1102.83
1115.25
1133.21
1153.29
1174.27
1195.46
1216.39
1236.75
1256.34
1275.01
1292.69
1309.32
1324.87
1339.36
1352.78
1365.17
1376.57
1387.02
1396.58
1405.3
1413.23
1420.44
1426.96
1432.87
1438.2
1443.01
1447.34
1451.23
1454.72
1457.85
1460.65
1463.16
1465.4
1467.4
1469.19
1470.79
1472.22
1473.49
1474.63
1475.64
1476.54
1477.34
1478.06
1478.69
1479.26
1479.76
1480.21
2.86402
1.66963
0.459908
-0.260154
-0.423028
0.104232
4.67943
22.6467
76.3768
214.996
440.042
672.389
901.275
1118.37
1314.2
1483.57
1636.2
1791.06
1965.55
2167.61
2392.37
2614.04
2787.95
2853.28
2780.01
2539.58
2159.84
1714.55
1282.06
889.004
577.477
366.321
242.781
166.719
114.57
77.536
51.6942
34.8104
24.7931
19.699
18.1411
18.6177
19.3329
20.1192
20.9458
21.7947
22.6505
23.5017
24.3387
25.1525
25.9372
26.6887
27.4033
28.0785
28.7128
29.3058
29.8576
30.3689
30.8409
31.2753
31.6737
32.0381
32.3705
32.6732
32.9482
33.1962
33.4143
33.6061
33.7753
33.9249
34.0574
34.1751
34.2796
34.3727
34.4555
34.5294
34.5953
34.654
34.7064
34.7532
34.7949
34.8322
34.8654
34.895
34.9215
34.9451
-0.618657
-1.88535
-3.22287
-4.19299
-4.91769
-5.8882
-6.87591
-7.29412
-7.39426
-6.4861
-2.31787
8.7783
32.0335
70.3184
121.286
175.723
232.631
296.146
371.938
464.093
573.997
692.116
794.214
843.602
805.136
667.829
467.745
282.729
160.034
70.9793
17.871
-2.69668
-3.79913
-3.68033
-3.56787
-3.55046
-3.57031
-3.59654
-3.65069
-3.72351
-3.81979
-3.93677
-4.05391
-4.16053
-4.25979
-4.35163
-4.43528
-4.51141
-4.58046
-4.64261
-4.69809
-4.74739
-4.79092
-4.82924
-4.86278
-4.89182
-4.91681
-4.93819
-4.95635
-4.97151
-4.98418
-4.99461
-5.00307
-5.00982
-5.01513
-5.01919
-5.02214
-5.02416
-5.02542
-5.02604
-5.02612
-5.02578
-5.0251
-5.02414
-5.02298
-5.02165
-5.02022
-5.0187
-5.01715
-5.01557
-5.014
-5.01245
-5.01093
-5.00946
-5.00803
-5.00667
-4.04874
-5.23971
-6.49721
-7.44977
-8.22989
-9.31234
-10.3276
-10.8958
-11.4083
-11.9551
-12.2215
-12.3617
-12.4498
-12.3981
-12.0274
-11.3857
-10.3413
-8.62333
-5.72182
-0.596285
8.54513
23.2576
41.6363
54.8741
50.5784
27.826
0.498432
-10.2865
-9.36788
-8.81185
-8.28251
-7.70538
-7.2772
-7.12144
-7.0093
-6.98633
-6.99112
-7.0102
-7.05818
-7.12845
-7.22546
-7.34803
-7.456
-7.55735
-7.65307
-7.74208
-7.82392
-7.89854
-7.96633
-8.02775
-8.08267
-8.13149
-8.17464
-8.21266
-8.24595
-8.27481
-8.29968
-8.32099
-8.33912
-8.35428
-8.36697
-8.37745
-8.38597
-8.39279
-8.39817
-8.4023
-8.40533
-8.40744
-8.40877
-8.40947
-8.40963
-8.40936
-8.40875
-8.40786
-8.40675
-8.40549
-8.40411
-8.40264
-8.40113
-8.3996
-8.39807
-8.39656
-8.39507
-8.39363
-8.39223
-8.39089
-7.51837
-8.70825
-9.94687
-10.8878
-11.6341
-12.6118
-13.5596
-14.1362
-14.7013
-15.2208
-15.4934
-15.6592
-15.7618
-15.7775
-15.6417
-15.4776
-15.3409
-15.2663
-15.2688
-15.3807
-15.5863
-15.815
-15.9978
-16.0588
-15.914
-15.564
-15.1775
-13.7343
-12.8106
-12.2136
-11.7023
-11.1245
-10.7245
-10.5593
-10.4398
-10.4098
-10.4123
-10.4308
-10.4757
-10.5415
-10.632
-10.7394
-10.8505
-10.9511
-11.0452
-11.1326
-11.213
-11.2865
-11.3533
-11.4138
-11.4681
-11.5163
-11.5591
-11.5967
-11.6298
-11.6584
-11.6832
-11.7044
-11.7225
-11.7376
-11.7503
-11.7608
-11.7694
-11.7762
-11.7817
-11.7858
-11.7889
-11.7911
-11.7925
-11.7932
-11.7934
-11.7932
-11.7926
-11.7918
-11.7907
-11.7895
-11.7882
-11.7867
-11.7853
-11.7838
-11.7823
-11.7808
-11.7793
-11.7779
-11.7765
-11.7752
-10.9375
-12.084
-13.2839
-14.2229
-15.0107
-15.996
-16.9087
-17.4724
-18.0012
-18.5048
-18.7734
-18.9395
-19.0498
-19.0648
-18.9432
-18.8012
-18.6856
-18.6206
-18.6247
-18.7323
-18.9235
-19.1363
-19.3002
-19.3431
-19.2027
-18.8707
-18.4227
-17.0795
-16.2236
-15.6172
-15.1221
-14.5529
-14.1706
-13.9966
-13.8751
-13.835
-13.8305
-13.8458
-13.8882
-13.9521
-14.0398
-14.1477
-14.2481
-14.3454
-14.4372
-14.5227
-14.6016
-14.674
-14.7398
-14.7995
-14.8531
-14.9008
-14.9431
-14.9805
-15.0133
-15.0418
-15.0664
-15.0875
-15.1056
-15.1207
-15.1334
-15.1439
-15.1525
-15.1594
-15.1649
-15.1691
-15.1723
-15.1745
-15.176
-15.1768
-15.1771
-15.1769
-15.1764
-15.1756
-15.1746
-15.1734
-15.1721
-15.1707
-15.1693
-15.1678
-15.1664
-15.1649
-15.1635
-15.1621
-15.1607
-15.1594
-14.4005
-15.5332
-16.7012
-17.6186
-18.3796
-19.315
-20.1887
-20.7627
-21.3021
-21.7839
-22.0572
-22.228
-22.3376
-22.3597
-22.2558
-22.1232
-22.0136
-21.9556
-21.9614
-22.0619
-22.237
-22.4299
-22.5747
-22.5911
-22.4491
-22.1346
-21.6832
-20.4468
-19.629
-19.0188
-18.537
-17.9797
-17.6129
-17.4308
-17.3065
-17.26
-17.2507
-17.2631
-17.3014
-17.3621
-17.4454
-17.5468
-17.6458
-17.7404
-17.8299
-17.9136
-17.991
-18.062
-18.1269
-18.1857
-18.2385
-18.2857
-18.3276
-18.3647
-18.3971
-18.4254
-18.4499
-18.471
-18.4889
-18.504
-18.5167
-18.5272
-18.5359
-18.5428
-18.5483
-18.5526
-18.5558
-18.5581
-18.5596
-18.5605
-18.5608
-18.5607
-18.5603
-18.5595
-18.5585
-18.5574
-18.5562
-18.5548
-18.5534
-18.552
-18.5505
-18.5491
-18.5477
-18.5463
-18.545
-18.5437
-17.8248
-18.9264
-20.0695
-20.9845
-21.7656
-22.6818
-23.5186
-24.0785
-24.6052
-25.0705
-25.3417
-25.5181
-25.6302
-25.6515
-25.5645
-25.4508
-25.355
-25.3038
-25.3112
-25.4046
-25.565
-25.7395
-25.8678
-25.8874
-25.7286
-25.4109
-24.9448
-23.8094
-23.0284
-22.4198
-21.9494
-21.4057
-21.052
-20.8633
-20.7361
-20.6832
-20.6687
-20.6786
-20.7141
-20.7719
-20.8517
-20.9478
-21.0427
-21.1347
-21.2221
-21.3041
-21.38
-21.4499
-21.5137
-21.5717
-21.6239
-21.6706
-21.712
-21.7487
-21.7809
-21.809
-21.8334
-21.8543
-21.8722
-21.8873
-21.9
-21.9105
-21.9191
-21.9261
-21.9317
-21.936
-21.9393
-21.9416
-21.9432
-21.9441
-21.9445
-21.9445
-21.9441
-21.9434
-21.9425
-21.9414
-21.9401
-21.9388
-21.9375
-21.9361
-21.9347
-21.9333
-21.9319
-21.9305
-21.9292
-21.928
-21.2796
-22.3607
-23.4718
-24.3645
-25.1314
-26.0156
-26.8245
-27.3871
-27.9091
-28.3593
-28.6316
-28.809
-28.9237
-28.9505
-28.8761
-28.7724
-28.6855
-28.6404
-28.6488
-28.7367
-28.8844
-29.0423
-29.1545
-29.1504
-29.002
-28.6919
-28.2161
-27.1707
-26.4235
-25.8209
-25.3599
-24.8304
-24.488
-24.2943
-24.1648