/*--------------------------------*- C++ -*----------------------------------*\
| =========                 |                                                 |
| \\      /  F ield         | OpenFOAM: The Open Source CFD Toolbox           |
|  \\    /   O peration     | Version:  v1912                                 |
|   \\  /    A nd           | Website:  www.openfoam.com                      |
|    \\/     M anipulation  |                                                 |
\*---------------------------------------------------------------------------*/
FoamFile
{
    version     2.0;
    format      ascii;
    class       volSymmTensorField;
    location    "10";
    object      R;
}
// * * * * * * * * * * * * * * * * * * * * * * * * * * * * * * * * * * * * * //

dimensions      [0 2 -2 0 0 0 0];


internalField   nonuniform List<symmTensor> 
14268
(
(7.65293e-07 -1.29225e-07 0 7.78947e-07 0 7.7266e-07)
(7.65199e-07 -1.29222e-07 0 7.78769e-07 0 7.72455e-07)
(7.65527e-07 -1.29272e-07 0 7.78788e-07 0 7.72576e-07)
(7.66225e-07 -1.2933e-07 0 7.78812e-07 0 7.72909e-07)
(7.67149e-07 -1.29438e-07 0 7.79132e-07 0 7.73471e-07)
(7.68397e-07 -1.29562e-07 0 7.79492e-07 0 7.74225e-07)
(7.69833e-07 -1.29727e-07 0 7.80098e-07 0 7.75181e-07)
(7.71512e-07 -1.29909e-07 0 7.80773e-07 0 7.76306e-07)
(7.73368e-07 -1.30108e-07 0 7.81528e-07 0 7.7756e-07)
(7.7556e-07 -1.30301e-07 0 7.8209e-07 0 7.78897e-07)
(7.78016e-07 -1.30491e-07 0 7.8246e-07 0 7.80267e-07)
(7.80455e-07 -1.30681e-07 0 7.82783e-07 0 7.81604e-07)
(7.82899e-07 -1.30865e-07 0 7.82979e-07 0 7.8288e-07)
(7.8542e-07 -1.31036e-07 0 7.82917e-07 0 7.84075e-07)
(7.87856e-07 -1.31203e-07 0 7.82712e-07 0 7.85162e-07)
(7.90226e-07 -1.31362e-07 0 7.82326e-07 0 7.86135e-07)
(7.92395e-07 -1.31518e-07 0 7.81871e-07 0 7.86982e-07)
(7.94354e-07 -1.3167e-07 0 7.8135e-07 0 7.87695e-07)
(7.95972e-07 -1.31817e-07 0 7.80889e-07 0 7.88273e-07)
(7.97276e-07 -1.31952e-07 0 7.80456e-07 0 7.88714e-07)
(7.98315e-07 -1.32057e-07 0 7.7998e-07 0 7.89007e-07)
(7.99002e-07 -1.32122e-07 0 7.79512e-07 0 7.89131e-07)
(7.99261e-07 -1.32147e-07 0 7.79154e-07 0 7.89098e-07)
(7.99269e-07 -1.32164e-07 0 7.79023e-07 0 7.89052e-07)
(7.99083e-07 -1.32176e-07 0 7.79121e-07 0 7.89022e-07)
(7.98726e-07 -1.32181e-07 0 7.79415e-07 0 7.89006e-07)
(7.98156e-07 -1.32183e-07 0 7.79944e-07 0 7.89001e-07)
(7.97382e-07 -1.32185e-07 0 7.80698e-07 0 7.89007e-07)
(7.96342e-07 -1.32188e-07 0 7.81732e-07 0 7.89017e-07)
(7.94955e-07 -1.32195e-07 0 7.83121e-07 0 7.89029e-07)
(7.93561e-07 -1.3221e-07 0 7.84561e-07 0 7.89059e-07)
(7.92386e-07 -1.32233e-07 0 7.85833e-07 0 7.89107e-07)
(7.91324e-07 -1.32267e-07 0 7.87025e-07 0 7.89173e-07)
(7.90381e-07 -1.3231e-07 0 7.88127e-07 0 7.8925e-07)
(7.89582e-07 -1.32355e-07 0 7.89098e-07 0 7.89334e-07)
(7.88951e-07 -1.32402e-07 0 7.899e-07 0 7.89418e-07)
(7.88506e-07 -1.32446e-07 0 7.90512e-07 0 7.89501e-07)
(7.88253e-07 -1.32483e-07 0 7.90921e-07 0 7.89579e-07)
(7.88122e-07 -1.32515e-07 0 7.91195e-07 0 7.89652e-07)
(7.88077e-07 -1.32542e-07 0 7.91375e-07 0 7.8972e-07)
(7.88092e-07 -1.32565e-07 0 7.91485e-07 0 7.89784e-07)
(7.88148e-07 -1.32585e-07 0 7.91546e-07 0 7.89843e-07)
(7.88229e-07 -1.32602e-07 0 7.91575e-07 0 7.899e-07)
(7.88325e-07 -1.32618e-07 0 7.91583e-07 0 7.89952e-07)
(7.8843e-07 -1.32632e-07 0 7.91579e-07 0 7.90003e-07)
(7.88555e-07 -1.32648e-07 0 7.91581e-07 0 7.90067e-07)
(7.88703e-07 -1.32666e-07 0 7.91582e-07 0 7.90142e-07)
(7.88876e-07 -1.32686e-07 0 7.91571e-07 0 7.90223e-07)
(7.89057e-07 -1.32705e-07 0 7.91558e-07 0 7.90307e-07)
(7.89238e-07 -1.32725e-07 0 7.91546e-07 0 7.90392e-07)
(7.89412e-07 -1.32743e-07 0 7.9154e-07 0 7.90476e-07)
(7.89576e-07 -1.32761e-07 0 7.91539e-07 0 7.90558e-07)
(7.89731e-07 -1.32778e-07 0 7.91541e-07 0 7.90636e-07)
(7.89878e-07 -1.32794e-07 0 7.91543e-07 0 7.90711e-07)
(7.90016e-07 -1.32809e-07 0 7.91545e-07 0 7.90781e-07)
(7.90146e-07 -1.32823e-07 0 7.91547e-07 0 7.90847e-07)
(7.90268e-07 -1.32836e-07 0 7.91548e-07 0 7.90908e-07)
(7.90382e-07 -1.32847e-07 0 7.91548e-07 0 7.90965e-07)
(7.90487e-07 -1.32858e-07 0 7.91548e-07 0 7.91018e-07)
(7.90584e-07 -1.32868e-07 0 7.91547e-07 0 7.91066e-07)
(7.90674e-07 -1.32877e-07 0 7.91546e-07 0 7.9111e-07)
(7.90756e-07 -1.32886e-07 0 7.91545e-07 0 7.91151e-07)
(7.90831e-07 -1.32893e-07 0 7.91544e-07 0 7.91188e-07)
(7.909e-07 -1.329e-07 0 7.91542e-07 0 7.91221e-07)
(7.90962e-07 -1.32906e-07 0 7.91541e-07 0 7.91252e-07)
(7.91018e-07 -1.32912e-07 0 7.9154e-07 0 7.9128e-07)
(7.91069e-07 -1.32917e-07 0 7.91539e-07 0 7.91305e-07)
(7.91116e-07 -1.32922e-07 0 7.91538e-07 0 7.91327e-07)
(7.91157e-07 -1.32926e-07 0 7.91537e-07 0 7.91348e-07)
(7.91195e-07 -1.32929e-07 0 7.91536e-07 0 7.91366e-07)
(7.91229e-07 -1.32933e-07 0 7.91536e-07 0 7.91382e-07)
(7.91259e-07 -1.32936e-07 0 7.91535e-07 0 7.91397e-07)
(7.91286e-07 -1.32938e-07 0 7.91534e-07 0 7.91411e-07)
(7.91311e-07 -1.32941e-07 0 7.91534e-07 0 7.91423e-07)
(7.91333e-07 -1.32943e-07 0 7.91533e-07 0 7.91433e-07)
(7.91352e-07 -1.32945e-07 0 7.91533e-07 0 7.91443e-07)
(7.9137e-07 -1.32946e-07 0 7.91532e-07 0 7.91451e-07)
(7.91386e-07 -1.32948e-07 0 7.91532e-07 0 7.91459e-07)
(7.914e-07 -1.32949e-07 0 7.91531e-07 0 7.91466e-07)
(7.91413e-07 -1.32951e-07 0 7.91531e-07 0 7.91472e-07)
(7.91424e-07 -1.32952e-07 0 7.9153e-07 0 7.91477e-07)
(7.91434e-07 -1.32953e-07 0 7.9153e-07 0 7.91482e-07)
(7.91443e-07 -1.32953e-07 0 7.91529e-07 0 7.91486e-07)
(7.91452e-07 -1.32954e-07 0 7.91528e-07 0 7.9149e-07)
(7.9147e-07 -1.32955e-07 0 7.91515e-07 0 7.91493e-07)
(7.91464e-07 -1.32951e-07 0 7.91518e-07 0 7.9149e-07)
(2.60184e-07 -1.92171e-08 0 2.71756e-07 0 2.65928e-07)
(2.60594e-07 -1.93118e-08 0 2.71995e-07 0 2.66234e-07)
(2.61119e-07 -1.93995e-08 0 2.72094e-07 0 2.66542e-07)
(2.61709e-07 -1.9475e-08 0 2.72086e-07 0 2.66844e-07)
(2.62427e-07 -1.95379e-08 0 2.71993e-07 0 2.67157e-07)
(2.63251e-07 -1.95875e-08 0 2.71819e-07 0 2.67489e-07)
(2.64187e-07 -1.96261e-08 0 2.71581e-07 0 2.67836e-07)
(2.65181e-07 -1.96522e-08 0 2.71284e-07 0 2.68193e-07)
(2.66235e-07 -1.96708e-08 0 2.70953e-07 0 2.68563e-07)
(2.6731e-07 -1.96841e-08 0 2.706e-07 0 2.68942e-07)
(2.68418e-07 -1.96961e-08 0 2.70257e-07 0 2.69337e-07)
(2.69542e-07 -1.97105e-08 0 2.69946e-07 0 2.69751e-07)
(2.70656e-07 -1.97339e-08 0 2.69677e-07 0 2.70177e-07)
(2.7173e-07 -1.97685e-08 0 2.69452e-07 0 2.70607e-07)
(2.72748e-07 -1.98152e-08 0 2.69276e-07 0 2.71031e-07)
(2.73692e-07 -1.98765e-08 0 2.69146e-07 0 2.71442e-07)
(2.74553e-07 -1.99484e-08 0 2.69054e-07 0 2.71829e-07)
(2.75326e-07 -2.00282e-08 0 2.69e-07 0 2.72189e-07)
(2.76004e-07 -2.01125e-08 0 2.68979e-07 0 2.72516e-07)
(2.76574e-07 -2.01953e-08 0 2.68988e-07 0 2.72805e-07)
(2.77033e-07 -2.02725e-08 0 2.69028e-07 0 2.73053e-07)
(2.77375e-07 -2.03391e-08 0 2.6911e-07 0 2.73264e-07)
(2.77571e-07 -2.03866e-08 0 2.69216e-07 0 2.73413e-07)
(2.77469e-07 -2.03823e-08 0 2.69209e-07 0 2.73356e-07)
(2.77019e-07 -2.03194e-08 0 2.69056e-07 0 2.73052e-07)
(2.76229e-07 -2.02005e-08 0 2.68756e-07 0 2.72506e-07)
(2.75134e-07 -2.00354e-08 0 2.68325e-07 0 2.71745e-07)
(2.73797e-07 -1.98357e-08 0 2.67785e-07 0 2.70809e-07)
(2.72297e-07 -1.96139e-08 0 2.67168e-07 0 2.69751e-07)
(2.70715e-07 -1.93844e-08 0 2.66505e-07 0 2.68627e-07)
(2.69135e-07 -1.91601e-08 0 2.6583e-07 0 2.67498e-07)
(2.67619e-07 -1.89496e-08 0 2.65168e-07 0 2.66406e-07)
(2.66217e-07 -1.8761e-08 0 2.64548e-07 0 2.65392e-07)
(2.64967e-07 -1.8598e-08 0 2.63986e-07 0 2.64486e-07)
(2.63892e-07 -1.84623e-08 0 2.63493e-07 0 2.63702e-07)
(2.62999e-07 -1.83527e-08 0 2.63074e-07 0 2.63045e-07)
(2.62279e-07 -1.82666e-08 0 2.62728e-07 0 2.62511e-07)
(2.61717e-07 -1.82011e-08 0 2.62449e-07 0 2.62091e-07)
(2.61295e-07 -1.81533e-08 0 2.6223e-07 0 2.6177e-07)
(2.60991e-07 -1.81201e-08 0 2.62064e-07 0 2.61536e-07)
(2.60786e-07 -1.80986e-08 0 2.61942e-07 0 2.61371e-07)
(2.60658e-07 -1.80863e-08 0 2.61855e-07 0 2.61264e-07)
(2.60592e-07 -1.8081e-08 0 2.61797e-07 0 2.61202e-07)
(2.60572e-07 -1.80811e-08 0 2.61761e-07 0 2.61174e-07)
(2.60586e-07 -1.80848e-08 0 2.6174e-07 0 2.61171e-07)
(2.6061e-07 -1.80879e-08 0 2.61716e-07 0 2.61171e-07)
(2.60638e-07 -1.80898e-08 0 2.61688e-07 0 2.61171e-07)
(2.60669e-07 -1.8091e-08 0 2.61657e-07 0 2.61171e-07)
(2.60701e-07 -1.80915e-08 0 2.61625e-07 0 2.61171e-07)
(2.60733e-07 -1.80915e-08 0 2.61592e-07 0 2.61171e-07)
(2.60765e-07 -1.80912e-08 0 2.6156e-07 0 2.61171e-07)
(2.60796e-07 -1.80906e-08 0 2.61528e-07 0 2.6117e-07)
(2.60826e-07 -1.80899e-08 0 2.61498e-07 0 2.6117e-07)
(2.60855e-07 -1.8089e-08 0 2.61469e-07 0 2.6117e-07)
(2.60881e-07 -1.80881e-08 0 2.61442e-07 0 2.6117e-07)
(2.60907e-07 -1.80872e-08 0 2.61416e-07 0 2.6117e-07)
(2.6093e-07 -1.80862e-08 0 2.61392e-07 0 2.6117e-07)
(2.60952e-07 -1.80852e-08 0 2.6137e-07 0 2.6117e-07)
(2.60972e-07 -1.80843e-08 0 2.6135e-07 0 2.61169e-07)
(2.60991e-07 -1.80834e-08 0 2.61331e-07 0 2.61169e-07)
(2.61008e-07 -1.80826e-08 0 2.61314e-07 0 2.61169e-07)
(2.61023e-07 -1.80817e-08 0 2.61298e-07 0 2.61169e-07)
(2.61038e-07 -1.8081e-08 0 2.61284e-07 0 2.61169e-07)
(2.61051e-07 -1.80803e-08 0 2.61271e-07 0 2.61169e-07)
(2.61062e-07 -1.80796e-08 0 2.61259e-07 0 2.61169e-07)
(2.61073e-07 -1.8079e-08 0 2.61248e-07 0 2.61169e-07)
(2.61083e-07 -1.80785e-08 0 2.61238e-07 0 2.61169e-07)
(2.61091e-07 -1.8078e-08 0 2.6123e-07 0 2.61169e-07)
(2.61099e-07 -1.80775e-08 0 2.61222e-07 0 2.61169e-07)
(2.61106e-07 -1.80771e-08 0 2.61215e-07 0 2.61169e-07)
(2.61113e-07 -1.80767e-08 0 2.61208e-07 0 2.61169e-07)
(2.61118e-07 -1.80763e-08 0 2.61202e-07 0 2.61169e-07)
(2.61124e-07 -1.8076e-08 0 2.61197e-07 0 2.61169e-07)
(2.61128e-07 -1.80757e-08 0 2.61193e-07 0 2.61169e-07)
(2.61132e-07 -1.80755e-08 0 2.61189e-07 0 2.61169e-07)
(2.61136e-07 -1.80753e-08 0 2.61185e-07 0 2.61169e-07)
(2.61139e-07 -1.8075e-08 0 2.61181e-07 0 2.61169e-07)
(2.61142e-07 -1.80748e-08 0 2.61179e-07 0 2.61169e-07)
(2.61145e-07 -1.80747e-08 0 2.61176e-07 0 2.61169e-07)
(2.61147e-07 -1.80745e-08 0 2.61174e-07 0 2.61169e-07)
(2.61149e-07 -1.80744e-08 0 2.61171e-07 0 2.61169e-07)
(2.61151e-07 -1.80743e-08 0 2.6117e-07 0 2.61169e-07)
(2.61153e-07 -1.80741e-08 0 2.61168e-07 0 2.61169e-07)
(2.61154e-07 -1.8074e-08 0 2.61167e-07 0 2.61169e-07)
(2.61155e-07 -1.80738e-08 0 2.61165e-07 0 2.61169e-07)
(2.61157e-07 -1.80727e-08 0 2.61164e-07 0 2.61169e-07)
(2.55185e-07 -1.83659e-08 0 2.65847e-07 0 2.60803e-07)
(2.55352e-07 -1.8428e-08 0 2.6585e-07 0 2.60857e-07)
(2.55608e-07 -1.84772e-08 0 2.65722e-07 0 2.60892e-07)
(2.55926e-07 -1.85261e-08 0 2.65511e-07 0 2.60921e-07)
(2.56339e-07 -1.85612e-08 0 2.65224e-07 0 2.60952e-07)
(2.56864e-07 -1.8586e-08 0 2.64827e-07 0 2.60983e-07)
(2.5747e-07 -1.8597e-08 0 2.64364e-07 0 2.61015e-07)
(2.58116e-07 -1.85946e-08 0 2.63833e-07 0 2.61042e-07)
(2.58814e-07 -1.8576e-08 0 2.63237e-07 0 2.61064e-07)
(2.59501e-07 -1.85477e-08 0 2.62621e-07 0 2.6108e-07)
(2.60219e-07 -1.8507e-08 0 2.61981e-07 0 2.61098e-07)
(2.60927e-07 -1.8461e-08 0 2.61362e-07 0 2.61121e-07)
(2.61618e-07 -1.84135e-08 0 2.6076e-07 0 2.61145e-07)
(2.6226e-07 -1.83683e-08 0 2.60192e-07 0 2.61167e-07)
(2.62854e-07 -1.83291e-08 0 2.59666e-07 0 2.61189e-07)
(2.63382e-07 -1.82972e-08 0 2.59185e-07 0 2.61206e-07)
(2.63852e-07 -1.82716e-08 0 2.58754e-07 0 2.61222e-07)
(2.6426e-07 -1.82499e-08 0 2.58377e-07 0 2.61236e-07)
(2.64609e-07 -1.82284e-08 0 2.5805e-07 0 2.61247e-07)
(2.64881e-07 -1.8204e-08 0 2.57779e-07 0 2.61252e-07)
(2.65079e-07 -1.81705e-08 0 2.57564e-07 0 2.61251e-07)
(2.65198e-07 -1.81248e-08 0 2.57412e-07 0 2.61244e-07)
(2.6523e-07 -1.80667e-08 0 2.57335e-07 0 2.61231e-07)
(2.65164e-07 -1.79972e-08 0 2.57333e-07 0 2.61209e-07)
(2.64996e-07 -1.79203e-08 0 2.57413e-07 0 2.61178e-07)
(2.64727e-07 -1.78431e-08 0 2.57579e-07 0 2.6114e-07)
(2.64371e-07 -1.77726e-08 0 2.57827e-07 0 2.61099e-07)
(2.63951e-07 -1.77157e-08 0 2.58147e-07 0 2.61059e-07)
(2.63497e-07 -1.76768e-08 0 2.58523e-07 0 2.61026e-07)
(2.63034e-07 -1.76587e-08 0 2.58934e-07 0 2.61002e-07)
(2.62583e-07 -1.76605e-08 0 2.59356e-07 0 2.60987e-07)
(2.62162e-07 -1.76788e-08 0 2.59769e-07 0 2.60979e-07)
(2.61778e-07 -1.77113e-08 0 2.60154e-07 0 2.60977e-07)
(2.61438e-07 -1.77535e-08 0 2.60495e-07 0 2.60976e-07)
(2.61153e-07 -1.77997e-08 0 2.60785e-07 0 2.60978e-07)
(2.60922e-07 -1.78461e-08 0 2.61024e-07 0 2.60981e-07)
(2.60741e-07 -1.789e-08 0 2.61214e-07 0 2.60985e-07)
(2.60606e-07 -1.79294e-08 0 2.61358e-07 0 2.6099e-07)
(2.6051e-07 -1.79635e-08 0 2.61463e-07 0 2.60994e-07)
(2.60446e-07 -1.79918e-08 0 2.61534e-07 0 2.60997e-07)
(2.60408e-07 -1.80148e-08 0 2.61577e-07 0 2.61e-07)
(2.60391e-07 -1.80328e-08 0 2.61599e-07 0 2.61002e-07)
(2.60389e-07 -1.80466e-08 0 2.61603e-07 0 2.61003e-07)
(2.604e-07 -1.80569e-08 0 2.61595e-07 0 2.61004e-07)
(2.60418e-07 -1.80643e-08 0 2.61577e-07 0 2.61005e-07)
(2.60443e-07 -1.80694e-08 0 2.61553e-07 0 2.61005e-07)
(2.60472e-07 -1.80726e-08 0 2.61524e-07 0 2.61005e-07)
(2.60503e-07 -1.80745e-08 0 2.61493e-07 0 2.61005e-07)
(2.60535e-07 -1.80753e-08 0 2.6146e-07 0 2.61005e-07)
(2.60567e-07 -1.80754e-08 0 2.61427e-07 0 2.61004e-07)
(2.60599e-07 -1.80748e-08 0 2.61394e-07 0 2.61004e-07)
(2.6063e-07 -1.80738e-08 0 2.61362e-07 0 2.61004e-07)
(2.6066e-07 -1.80726e-08 0 2.61332e-07 0 2.61003e-07)
(2.60688e-07 -1.80711e-08 0 2.61303e-07 0 2.61003e-07)
(2.60715e-07 -1.80696e-08 0 2.61275e-07 0 2.61003e-07)
(2.6074e-07 -1.80679e-08 0 2.61249e-07 0 2.61002e-07)
(2.60763e-07 -1.80663e-08 0 2.61225e-07 0 2.61002e-07)
(2.60785e-07 -1.80647e-08 0 2.61203e-07 0 2.61002e-07)
(2.60805e-07 -1.80631e-08 0 2.61183e-07 0 2.61002e-07)
(2.60823e-07 -1.80616e-08 0 2.61164e-07 0 2.61001e-07)
(2.6084e-07 -1.80602e-08 0 2.61146e-07 0 2.61001e-07)
(2.60856e-07 -1.80589e-08 0 2.61131e-07 0 2.61001e-07)
(2.6087e-07 -1.80576e-08 0 2.61116e-07 0 2.61001e-07)
(2.60883e-07 -1.80564e-08 0 2.61103e-07 0 2.61001e-07)
(2.60894e-07 -1.80553e-08 0 2.61091e-07 0 2.61001e-07)
(2.60905e-07 -1.80543e-08 0 2.6108e-07 0 2.61e-07)
(2.60914e-07 -1.80534e-08 0 2.6107e-07 0 2.61e-07)
(2.60923e-07 -1.80526e-08 0 2.61061e-07 0 2.61e-07)
(2.60931e-07 -1.80518e-08 0 2.61053e-07 0 2.61e-07)
(2.60938e-07 -1.80511e-08 0 2.61046e-07 0 2.61e-07)
(2.60944e-07 -1.80504e-08 0 2.6104e-07 0 2.61e-07)
(2.6095e-07 -1.80498e-08 0 2.61034e-07 0 2.61e-07)
(2.60955e-07 -1.80493e-08 0 2.61029e-07 0 2.61e-07)
(2.60959e-07 -1.80488e-08 0 2.61024e-07 0 2.61e-07)
(2.60963e-07 -1.80484e-08 0 2.6102e-07 0 2.61e-07)
(2.60967e-07 -1.8048e-08 0 2.61016e-07 0 2.60999e-07)
(2.6097e-07 -1.80476e-08 0 2.61013e-07 0 2.60999e-07)
(2.60973e-07 -1.80473e-08 0 2.6101e-07 0 2.60999e-07)
(2.60976e-07 -1.8047e-08 0 2.61007e-07 0 2.60999e-07)
(2.60978e-07 -1.80468e-08 0 2.61004e-07 0 2.60999e-07)
(2.6098e-07 -1.80465e-08 0 2.61002e-07 0 2.60999e-07)
(2.60982e-07 -1.80463e-08 0 2.61e-07 0 2.60999e-07)
(2.60984e-07 -1.80461e-08 0 2.60999e-07 0 2.60999e-07)
(2.60985e-07 -1.80459e-08 0 2.60997e-07 0 2.60999e-07)
(2.60986e-07 -1.80457e-08 0 2.60996e-07 0 2.60999e-07)
(2.60987e-07 -1.80448e-08 0 2.60995e-07 0 2.60999e-07)
(2.55513e-07 -1.84831e-08 0 2.66962e-07 0 2.61179e-07)
(2.55655e-07 -1.8602e-08 0 2.66851e-07 0 2.61189e-07)
(2.55869e-07 -1.87071e-08 0 2.66639e-07 0 2.61189e-07)
(2.56141e-07 -1.88135e-08 0 2.66333e-07 0 2.61179e-07)
(2.5659e-07 -1.888e-08 0 2.65846e-07 0 2.61163e-07)
(2.57043e-07 -1.89473e-08 0 2.65348e-07 0 2.61149e-07)
(2.57643e-07 -1.89717e-08 0 2.64716e-07 0 2.61133e-07)
(2.5825e-07 -1.89813e-08 0 2.64048e-07 0 2.61112e-07)
(2.58913e-07 -1.89546e-08 0 2.63312e-07 0 2.61086e-07)
(2.59556e-07 -1.89121e-08 0 2.62571e-07 0 2.61056e-07)
(2.60233e-07 -1.8847e-08 0 2.61818e-07 0 2.61031e-07)
(2.60907e-07 -1.87647e-08 0 2.61092e-07 0 2.61014e-07)
(2.61545e-07 -1.86818e-08 0 2.60422e-07 0 2.61003e-07)
(2.62147e-07 -1.85908e-08 0 2.59789e-07 0 2.60993e-07)
(2.62687e-07 -1.85074e-08 0 2.59232e-07 0 2.60988e-07)
(2.6318e-07 -1.84359e-08 0 2.58723e-07 0 2.60984e-07)
(2.63628e-07 -1.83688e-08 0 2.58264e-07 0 2.60982e-07)
(2.63993e-07 -1.8316e-08 0 2.57903e-07 0 2.60984e-07)
(2.64324e-07 -1.82638e-08 0 2.57587e-07 0 2.60989e-07)
(2.64606e-07 -1.82133e-08 0 2.57318e-07 0 2.60994e-07)
(2.6481e-07 -1.81569e-08 0 2.57126e-07 0 2.60997e-07)
(2.64942e-07 -1.80888e-08 0 2.57005e-07 0 2.60999e-07)
(2.64995e-07 -1.80096e-08 0 2.56958e-07 0 2.60997e-07)
(2.64958e-07 -1.79176e-08 0 2.56996e-07 0 2.60993e-07)
(2.64819e-07 -1.78172e-08 0 2.57123e-07 0 2.60985e-07)
(2.64579e-07 -1.77167e-08 0 2.5734e-07 0 2.60972e-07)
(2.64252e-07 -1.76254e-08 0 2.57635e-07 0 2.60957e-07)
(2.63851e-07 -1.75533e-08 0 2.58001e-07 0 2.60942e-07)
(2.63411e-07 -1.75059e-08 0 2.58414e-07 0 2.60931e-07)
(2.62959e-07 -1.74865e-08 0 2.58854e-07 0 2.60925e-07)
(2.62521e-07 -1.74931e-08 0 2.593e-07 0 2.60927e-07)
(2.62104e-07 -1.75223e-08 0 2.59736e-07 0 2.60933e-07)
(2.61723e-07 -1.75713e-08 0 2.60135e-07 0 2.6094e-07)
(2.6139e-07 -1.76329e-08 0 2.60487e-07 0 2.60949e-07)
(2.61112e-07 -1.76995e-08 0 2.60785e-07 0 2.60958e-07)
(2.60887e-07 -1.77661e-08 0 2.6103e-07 0 2.60967e-07)
(2.60712e-07 -1.78285e-08 0 2.61222e-07 0 2.60976e-07)
(2.60583e-07 -1.78841e-08 0 2.61367e-07 0 2.60983e-07)
(2.60491e-07 -1.7932e-08 0 2.61471e-07 0 2.60989e-07)
(2.60432e-07 -1.79717e-08 0 2.61541e-07 0 2.60994e-07)
(2.60397e-07 -1.80038e-08 0 2.61583e-07 0 2.60998e-07)
(2.60383e-07 -1.80289e-08 0 2.61603e-07 0 2.61001e-07)
(2.60384e-07 -1.80481e-08 0 2.61607e-07 0 2.61003e-07)
(2.60396e-07 -1.80624e-08 0 2.61597e-07 0 2.61004e-07)
(2.60416e-07 -1.80726e-08 0 2.61579e-07 0 2.61005e-07)
(2.60442e-07 -1.80796e-08 0 2.61554e-07 0 2.61005e-07)
(2.60471e-07 -1.80841e-08 0 2.61524e-07 0 2.61006e-07)
(2.60503e-07 -1.80866e-08 0 2.61493e-07 0 2.61006e-07)
(2.60536e-07 -1.80877e-08 0 2.6146e-07 0 2.61005e-07)
(2.60568e-07 -1.80877e-08 0 2.61426e-07 0 2.61005e-07)
(2.606e-07 -1.80869e-08 0 2.61393e-07 0 2.61005e-07)
(2.60631e-07 -1.80855e-08 0 2.61361e-07 0 2.61005e-07)
(2.60661e-07 -1.80837e-08 0 2.61331e-07 0 2.61004e-07)
(2.6069e-07 -1.80816e-08 0 2.61301e-07 0 2.61004e-07)
(2.60716e-07 -1.80794e-08 0 2.61274e-07 0 2.61003e-07)
(2.60741e-07 -1.80771e-08 0 2.61248e-07 0 2.61003e-07)
(2.60765e-07 -1.80749e-08 0 2.61224e-07 0 2.61003e-07)
(2.60786e-07 -1.80726e-08 0 2.61202e-07 0 2.61002e-07)
(2.60806e-07 -1.80704e-08 0 2.61181e-07 0 2.61002e-07)
(2.60824e-07 -1.80683e-08 0 2.61162e-07 0 2.61002e-07)
(2.60841e-07 -1.80663e-08 0 2.61145e-07 0 2.61001e-07)
(2.60857e-07 -1.80644e-08 0 2.61129e-07 0 2.61001e-07)
(2.60871e-07 -1.80626e-08 0 2.61115e-07 0 2.61001e-07)
(2.60883e-07 -1.8061e-08 0 2.61101e-07 0 2.61001e-07)
(2.60895e-07 -1.80595e-08 0 2.61089e-07 0 2.61e-07)
(2.60905e-07 -1.8058e-08 0 2.61079e-07 0 2.61e-07)
(2.60915e-07 -1.80567e-08 0 2.61069e-07 0 2.61e-07)
(2.60923e-07 -1.80556e-08 0 2.6106e-07 0 2.61e-07)
(2.60931e-07 -1.80545e-08 0 2.61052e-07 0 2.61e-07)
(2.60938e-07 -1.80535e-08 0 2.61045e-07 0 2.61e-07)
(2.60944e-07 -1.80526e-08 0 2.61039e-07 0 2.61e-07)
(2.6095e-07 -1.80518e-08 0 2.61033e-07 0 2.61e-07)
(2.60955e-07 -1.8051e-08 0 2.61028e-07 0 2.60999e-07)
(2.60959e-07 -1.80503e-08 0 2.61023e-07 0 2.60999e-07)
(2.60963e-07 -1.80497e-08 0 2.61019e-07 0 2.60999e-07)
(2.60967e-07 -1.80492e-08 0 2.61015e-07 0 2.60999e-07)
(2.6097e-07 -1.80487e-08 0 2.61012e-07 0 2.60999e-07)
(2.60973e-07 -1.80482e-08 0 2.61009e-07 0 2.60999e-07)
(2.60976e-07 -1.80478e-08 0 2.61006e-07 0 2.60999e-07)
(2.60978e-07 -1.80475e-08 0 2.61004e-07 0 2.60999e-07)
(2.6098e-07 -1.80472e-08 0 2.61002e-07 0 2.60999e-07)
(2.60982e-07 -1.80468e-08 0 2.61e-07 0 2.60999e-07)
(2.60983e-07 -1.80466e-08 0 2.60998e-07 0 2.60999e-07)
(2.60985e-07 -1.80463e-08 0 2.60997e-07 0 2.60999e-07)
(2.60986e-07 -1.8046e-08 0 2.60995e-07 0 2.60999e-07)
(2.60987e-07 -1.80454e-08 0 2.60994e-07 0 2.60999e-07)
(2.55192e-07 -1.84204e-08 0 2.66171e-07 0 2.60894e-07)
(2.55368e-07 -1.85685e-08 0 2.66123e-07 0 2.60933e-07)
(2.55625e-07 -1.86958e-08 0 2.65962e-07 0 2.60957e-07)
(2.55948e-07 -1.88344e-08 0 2.65726e-07 0 2.60981e-07)
(2.56388e-07 -1.89399e-08 0 2.65375e-07 0 2.61001e-07)
(2.56914e-07 -1.90365e-08 0 2.64943e-07 0 2.61023e-07)
(2.57539e-07 -1.90991e-08 0 2.64424e-07 0 2.61043e-07)
(2.58187e-07 -1.91411e-08 0 2.63857e-07 0 2.61059e-07)
(2.58897e-07 -1.91439e-08 0 2.63209e-07 0 2.61067e-07)
(2.59576e-07 -1.91273e-08 0 2.62564e-07 0 2.6107e-07)
(2.60289e-07 -1.90786e-08 0 2.61888e-07 0 2.61072e-07)
(2.60973e-07 -1.90148e-08 0 2.6125e-07 0 2.61079e-07)
(2.61644e-07 -1.8935e-08 0 2.60624e-07 0 2.61085e-07)
(2.62256e-07 -1.88508e-08 0 2.60046e-07 0 2.61091e-07)
(2.6282e-07 -1.87659e-08 0 2.59509e-07 0 2.61096e-07)
(2.6331e-07 -1.86897e-08 0 2.59029e-07 0 2.61097e-07)
(2.63748e-07 -1.8615e-08 0 2.58592e-07 0 2.61097e-07)
(2.64132e-07 -1.85425e-08 0 2.58204e-07 0 2.61096e-07)
(2.64464e-07 -1.84692e-08 0 2.57863e-07 0 2.61094e-07)
(2.64727e-07 -1.83925e-08 0 2.5757e-07 0 2.61085e-07)
(2.64921e-07 -1.83003e-08 0 2.57327e-07 0 2.61071e-07)
(2.65042e-07 -1.81899e-08 0 2.5715e-07 0 2.61054e-07)
(2.65079e-07 -1.80619e-08 0 2.57049e-07 0 2.61033e-07)
(2.65022e-07 -1.79191e-08 0 2.57035e-07 0 2.61009e-07)
(2.64864e-07 -1.77703e-08 0 2.57118e-07 0 2.60983e-07)
(2.64605e-07 -1.76271e-08 0 2.57299e-07 0 2.60955e-07)
(2.64258e-07 -1.75018e-08 0 2.57572e-07 0 2.60929e-07)
(2.63843e-07 -1.74044e-08 0 2.5793e-07 0 2.60909e-07)
(2.63391e-07 -1.73411e-08 0 2.58353e-07 0 2.60898e-07)
(2.62935e-07 -1.73154e-08 0 2.58808e-07 0 2.60896e-07)
(2.62487e-07 -1.73252e-08 0 2.59279e-07 0 2.60902e-07)
(2.62065e-07 -1.7366e-08 0 2.59733e-07 0 2.60913e-07)
(2.61681e-07 -1.74321e-08 0 2.60142e-07 0 2.60924e-07)
(2.61348e-07 -1.75132e-08 0 2.60501e-07 0 2.60935e-07)
(2.61071e-07 -1.76006e-08 0 2.60804e-07 0 2.60947e-07)
(2.6085e-07 -1.76873e-08 0 2.6105e-07 0 2.60959e-07)
(2.60681e-07 -1.77682e-08 0 2.61242e-07 0 2.6097e-07)
(2.60556e-07 -1.78401e-08 0 2.61386e-07 0 2.60979e-07)
(2.6047e-07 -1.79017e-08 0 2.61489e-07 0 2.60987e-07)
(2.60415e-07 -1.79527e-08 0 2.61557e-07 0 2.60993e-07)
(2.60385e-07 -1.79938e-08 0 2.61597e-07 0 2.60998e-07)
(2.60374e-07 -1.80259e-08 0 2.61615e-07 0 2.61001e-07)
(2.60378e-07 -1.80503e-08 0 2.61616e-07 0 2.61004e-07)
(2.60392e-07 -1.80684e-08 0 2.61605e-07 0 2.61006e-07)
(2.60414e-07 -1.80813e-08 0 2.61585e-07 0 2.61007e-07)
(2.60442e-07 -1.80902e-08 0 2.61559e-07 0 2.61008e-07)
(2.60472e-07 -1.80958e-08 0 2.61529e-07 0 2.61008e-07)
(2.60505e-07 -1.8099e-08 0 2.61497e-07 0 2.61008e-07)
(2.60538e-07 -1.81003e-08 0 2.61463e-07 0 2.61008e-07)
(2.60571e-07 -1.81002e-08 0 2.61429e-07 0 2.61007e-07)
(2.60603e-07 -1.8099e-08 0 2.61396e-07 0 2.61007e-07)
(2.60634e-07 -1.80972e-08 0 2.61364e-07 0 2.61007e-07)
(2.60664e-07 -1.80949e-08 0 2.61333e-07 0 2.61006e-07)
(2.60693e-07 -1.80922e-08 0 2.61303e-07 0 2.61006e-07)
(2.60719e-07 -1.80894e-08 0 2.61276e-07 0 2.61005e-07)
(2.60744e-07 -1.80864e-08 0 2.6125e-07 0 2.61005e-07)
(2.60767e-07 -1.80835e-08 0 2.61225e-07 0 2.61004e-07)
(2.60789e-07 -1.80806e-08 0 2.61203e-07 0 2.61004e-07)
(2.60808e-07 -1.80777e-08 0 2.61182e-07 0 2.61003e-07)
(2.60827e-07 -1.8075e-08 0 2.61163e-07 0 2.61003e-07)
(2.60843e-07 -1.80725e-08 0 2.61146e-07 0 2.61003e-07)
(2.60859e-07 -1.807e-08 0 2.6113e-07 0 2.61002e-07)
(2.60872e-07 -1.80678e-08 0 2.61116e-07 0 2.61002e-07)
(2.60885e-07 -1.80657e-08 0 2.61102e-07 0 2.61002e-07)
(2.60896e-07 -1.80637e-08 0 2.61091e-07 0 2.61001e-07)
(2.60907e-07 -1.80619e-08 0 2.6108e-07 0 2.61001e-07)
(2.60916e-07 -1.80602e-08 0 2.6107e-07 0 2.61001e-07)
(2.60925e-07 -1.80587e-08 0 2.61061e-07 0 2.61001e-07)
(2.60932e-07 -1.80573e-08 0 2.61053e-07 0 2.61001e-07)
(2.60939e-07 -1.8056e-08 0 2.61046e-07 0 2.61e-07)
(2.60945e-07 -1.80548e-08 0 2.61039e-07 0 2.61e-07)
(2.60951e-07 -1.80538e-08 0 2.61034e-07 0 2.61e-07)
(2.60956e-07 -1.80528e-08 0 2.61028e-07 0 2.61e-07)
(2.6096e-07 -1.8052e-08 0 2.61024e-07 0 2.61e-07)
(2.60964e-07 -1.80512e-08 0 2.61019e-07 0 2.61e-07)
(2.60968e-07 -1.80505e-08 0 2.61016e-07 0 2.61e-07)
(2.60971e-07 -1.80499e-08 0 2.61012e-07 0 2.61e-07)
(2.60974e-07 -1.80493e-08 0 2.61009e-07 0 2.61e-07)
(2.60976e-07 -1.80488e-08 0 2.61007e-07 0 2.61e-07)
(2.60978e-07 -1.80483e-08 0 2.61004e-07 0 2.60999e-07)
(2.6098e-07 -1.80479e-08 0 2.61002e-07 0 2.60999e-07)
(2.60982e-07 -1.80475e-08 0 2.61e-07 0 2.60999e-07)
(2.60984e-07 -1.80472e-08 0 2.60999e-07 0 2.60999e-07)
(2.60985e-07 -1.80468e-08 0 2.60997e-07 0 2.60999e-07)
(2.60987e-07 -1.80465e-08 0 2.60996e-07 0 2.60999e-07)
(2.60988e-07 -1.8046e-08 0 2.60994e-07 0 2.60999e-07)
(2.55391e-07 -1.85007e-08 0 2.66997e-07 0 2.6117e-07)
(2.55571e-07 -1.86995e-08 0 2.66858e-07 0 2.61182e-07)
(2.55784e-07 -1.88821e-08 0 2.66662e-07 0 2.61187e-07)
(2.56083e-07 -1.90737e-08 0 2.66359e-07 0 2.61189e-07)
(2.56563e-07 -1.92176e-08 0 2.65863e-07 0 2.6118e-07)
(2.57046e-07 -1.93544e-08 0 2.6536e-07 0 2.61174e-07)
(2.5768e-07 -1.94405e-08 0 2.64719e-07 0 2.61167e-07)
(2.58316e-07 -1.94979e-08 0 2.64048e-07 0 2.61154e-07)
(2.59011e-07 -1.9505e-08 0 2.63309e-07 0 2.61137e-07)
(2.5968e-07 -1.94832e-08 0 2.62567e-07 0 2.61114e-07)
(2.60373e-07 -1.94159e-08 0 2.61814e-07 0 2.61093e-07)
(2.61044e-07 -1.93223e-08 0 2.61099e-07 0 2.61076e-07)
(2.61686e-07 -1.9213e-08 0 2.60426e-07 0 2.61063e-07)
(2.62274e-07 -1.90945e-08 0 2.59803e-07 0 2.6105e-07)
(2.62809e-07 -1.89709e-08 0 2.59246e-07 0 2.61041e-07)
(2.63285e-07 -1.88608e-08 0 2.58748e-07 0 2.61033e-07)
(2.63703e-07 -1.87574e-08 0 2.5831e-07 0 2.61026e-07)
(2.6408e-07 -1.86521e-08 0 2.57929e-07 0 2.61023e-07)
(2.64402e-07 -1.8555e-08 0 2.57611e-07 0 2.61022e-07)
(2.64674e-07 -1.84613e-08 0 2.5734e-07 0 2.6102e-07)
(2.64885e-07 -1.8347e-08 0 2.57126e-07 0 2.61017e-07)
(2.65027e-07 -1.82149e-08 0 2.56974e-07 0 2.61009e-07)
(2.65085e-07 -1.80635e-08 0 2.56896e-07 0 2.60998e-07)
(2.65045e-07 -1.78919e-08 0 2.56903e-07 0 2.60981e-07)
(2.64896e-07 -1.77109e-08 0 2.57002e-07 0 2.60959e-07)
(2.64636e-07 -1.7534e-08 0 2.57198e-07 0 2.60932e-07)
(2.64281e-07 -1.73753e-08 0 2.5749e-07 0 2.60907e-07)
(2.63853e-07 -1.72516e-08 0 2.57871e-07 0 2.60887e-07)
(2.63388e-07 -1.71723e-08 0 2.58315e-07 0 2.60877e-07)
(2.62917e-07 -1.71415e-08 0 2.58787e-07 0 2.60875e-07)
(2.62455e-07 -1.71554e-08 0 2.59271e-07 0 2.60882e-07)
(2.62023e-07 -1.72081e-08 0 2.59735e-07 0 2.60893e-07)
(2.61632e-07 -1.72917e-08 0 2.60155e-07 0 2.60906e-07)
(2.61297e-07 -1.73935e-08 0 2.60521e-07 0 2.6092e-07)
(2.61023e-07 -1.75022e-08 0 2.60828e-07 0 2.60935e-07)
(2.60806e-07 -1.76096e-08 0 2.61075e-07 0 2.6095e-07)
(2.60641e-07 -1.77094e-08 0 2.61267e-07 0 2.60963e-07)
(2.60523e-07 -1.77977e-08 0 2.61409e-07 0 2.60974e-07)
(2.60443e-07 -1.78731e-08 0 2.61509e-07 0 2.60984e-07)
(2.60394e-07 -1.79353e-08 0 2.61573e-07 0 2.60991e-07)
(2.60369e-07 -1.79851e-08 0 2.6161e-07 0 2.60997e-07)
(2.60362e-07 -1.8024e-08 0 2.61626e-07 0 2.61001e-07)
(2.60369e-07 -1.80535e-08 0 2.61625e-07 0 2.61005e-07)
(2.60387e-07 -1.80753e-08 0 2.61612e-07 0 2.61007e-07)
(2.60411e-07 -1.80908e-08 0 2.6159e-07 0 2.61008e-07)
(2.6044e-07 -1.81013e-08 0 2.61563e-07 0 2.61009e-07)
(2.60472e-07 -1.8108e-08 0 2.61532e-07 0 2.61009e-07)
(2.60505e-07 -1.81117e-08 0 2.61498e-07 0 2.61009e-07)
(2.60539e-07 -1.81131e-08 0 2.61464e-07 0 2.61009e-07)
(2.60572e-07 -1.81129e-08 0 2.6143e-07 0 2.61009e-07)
(2.60605e-07 -1.81114e-08 0 2.61396e-07 0 2.61008e-07)
(2.60636e-07 -1.81091e-08 0 2.61363e-07 0 2.61008e-07)
(2.60666e-07 -1.81062e-08 0 2.61332e-07 0 2.61007e-07)
(2.60695e-07 -1.81029e-08 0 2.61303e-07 0 2.61007e-07)
(2.60721e-07 -1.80994e-08 0 2.61275e-07 0 2.61006e-07)
(2.60746e-07 -1.80958e-08 0 2.61249e-07 0 2.61006e-07)
(2.60769e-07 -1.80922e-08 0 2.61224e-07 0 2.61005e-07)
(2.60791e-07 -1.80886e-08 0 2.61202e-07 0 2.61004e-07)
(2.6081e-07 -1.80851e-08 0 2.61181e-07 0 2.61004e-07)
(2.60828e-07 -1.80818e-08 0 2.61162e-07 0 2.61004e-07)
(2.60845e-07 -1.80787e-08 0 2.61145e-07 0 2.61003e-07)
(2.6086e-07 -1.80757e-08 0 2.61129e-07 0 2.61003e-07)
(2.60874e-07 -1.80729e-08 0 2.61115e-07 0 2.61002e-07)
(2.60886e-07 -1.80703e-08 0 2.61101e-07 0 2.61002e-07)
(2.60897e-07 -1.80679e-08 0 2.61089e-07 0 2.61002e-07)
(2.60908e-07 -1.80657e-08 0 2.61079e-07 0 2.61001e-07)
(2.60917e-07 -1.80637e-08 0 2.61069e-07 0 2.61001e-07)
(2.60925e-07 -1.80618e-08 0 2.6106e-07 0 2.61001e-07)
(2.60933e-07 -1.80601e-08 0 2.61052e-07 0 2.61001e-07)
(2.6094e-07 -1.80585e-08 0 2.61045e-07 0 2.61e-07)
(2.60946e-07 -1.80571e-08 0 2.61038e-07 0 2.61e-07)
(2.60951e-07 -1.80558e-08 0 2.61033e-07 0 2.61e-07)
(2.60956e-07 -1.80547e-08 0 2.61028e-07 0 2.61e-07)
(2.6096e-07 -1.80536e-08 0 2.61023e-07 0 2.61e-07)
(2.60964e-07 -1.80527e-08 0 2.61019e-07 0 2.61e-07)
(2.60968e-07 -1.80518e-08 0 2.61015e-07 0 2.61e-07)
(2.60971e-07 -1.8051e-08 0 2.61012e-07 0 2.61e-07)
(2.60974e-07 -1.80503e-08 0 2.61009e-07 0 2.60999e-07)
(2.60976e-07 -1.80497e-08 0 2.61006e-07 0 2.60999e-07)
(2.60979e-07 -1.80491e-08 0 2.61004e-07 0 2.60999e-07)
(2.60981e-07 -1.80486e-08 0 2.61002e-07 0 2.60999e-07)
(2.60982e-07 -1.80482e-08 0 2.61e-07 0 2.60999e-07)
(2.60984e-07 -1.80477e-08 0 2.60998e-07 0 2.60999e-07)
(2.60985e-07 -1.80473e-08 0 2.60997e-07 0 2.60999e-07)
(2.60987e-07 -1.80469e-08 0 2.60995e-07 0 2.60999e-07)
(2.60988e-07 -1.80465e-08 0 2.60994e-07 0 2.60999e-07)
(2.55141e-07 -1.84785e-08 0 2.66544e-07 0 2.6099e-07)
(2.55333e-07 -1.87145e-08 0 2.66454e-07 0 2.61021e-07)
(2.55587e-07 -1.89265e-08 0 2.66281e-07 0 2.61043e-07)
(2.55931e-07 -1.91575e-08 0 2.66017e-07 0 2.61069e-07)
(2.56408e-07 -1.9335e-08 0 2.65609e-07 0 2.61084e-07)
(2.56943e-07 -1.95068e-08 0 2.65146e-07 0 2.61103e-07)
(2.57607e-07 -1.96218e-08 0 2.64565e-07 0 2.61118e-07)
(2.58271e-07 -1.97089e-08 0 2.63959e-07 0 2.61128e-07)
(2.59007e-07 -1.97342e-08 0 2.63256e-07 0 2.61128e-07)
(2.59696e-07 -1.97298e-08 0 2.6257e-07 0 2.61122e-07)
(2.60426e-07 -1.96701e-08 0 2.61853e-07 0 2.61117e-07)
(2.61108e-07 -1.95856e-08 0 2.61192e-07 0 2.61116e-07)
(2.61769e-07 -1.94757e-08 0 2.60554e-07 0 2.61115e-07)
(2.62381e-07 -1.93477e-08 0 2.59958e-07 0 2.61115e-07)
(2.6292e-07 -1.92221e-08 0 2.59428e-07 0 2.61113e-07)
(2.63387e-07 -1.91048e-08 0 2.58951e-07 0 2.61107e-07)
(2.6381e-07 -1.8986e-08 0 2.58502e-07 0 2.61097e-07)
(2.64174e-07 -1.88717e-08 0 2.58099e-07 0 2.61084e-07)
(2.64493e-07 -1.87532e-08 0 2.57735e-07 0 2.6107e-07)