/*--------------------------------*- C++ -*----------------------------------*\
| =========                 |                                                 |
| \\      /  F ield         | OpenFOAM: The Open Source CFD Toolbox           |
|  \\    /   O peration     | Version:  v1912                                 |
|   \\  /    A nd           | Website:  www.openfoam.com                      |
|    \\/     M anipulation  |                                                 |
\*---------------------------------------------------------------------------*/
FoamFile
{
    version     2.0;
    format      ascii;
    class       volScalarField;
    location    "70";
    object      omega;
}
// * * * * * * * * * * * * * * * * * * * * * * * * * * * * * * * * * * * * * //

dimensions      [0 0 -1 0 0 0 0];


internalField   nonuniform List<scalar> 
14268
(
0.0101597
0.0102058
0.0100066
0.00965061
0.00943015
0.00931639
0.00924372
0.00917977
0.00911014
0.00903215
0.00894827
0.00887041
0.008807
0.00875953
0.00873022
0.00871638
0.00871287
0.00871764
0.00872293
0.00872621
0.00872944
0.00873511
0.008738
0.0087356
0.00873177
0.00872753
0.00872131
0.00871057
0.00869879
0.00868908
0.0086813
0.00867876
0.00868496
0.00869666
0.00871246
0.00873764
0.008778
0.00883219
0.00889777
0.00897437
0.00906124
0.00915593
0.00925176
0.00934445
0.00943024
0.00950109
0.00954074
0.00954922
0.00953375
0.00950114
0.00946124
0.00942162
0.00938375
0.00934861
0.00931849
0.00929373
0.00927391
0.00925786
0.00924395
0.00923066
0.00921686
0.00920157
0.00918426
0.00916519
0.00914524
0.00912676
0.00911216
0.00909965
0.00908781
0.0090758
0.00906488
0.0090565
0.00904992
0.00904442
0.00903939
0.00903422
0.00902831
0.00902108
0.00901213
0.00900133
0.00898901
0.0089759
0.00896283
0.00895056
0.0089396
0.00893011
0.00892193
0.00891538
0.00891352
0.00891795
0.00892864
0.00894552
0.00896817
0.00899594
0.00902791
0.00906283
0.00909955
0.00913818
0.00917577
0.00920933
0.00923873
0.00926335
0.00928309
0.00929807
0.00930888
0.00931658
0.00932222
0.00932663
0.00933043
0.0093339
0.00933697
0.00933916
0.00933967
0.00933745
0.00933114
0.00932095
0.00930999
0.00929736
0.00928123
0.00926082
0.00923663
0.0092102
0.00918349
0.00915899
0.00913681
0.00911771
0.00910181
0.0090882
0.00907581
0.00906408
0.00905234
0.00904033
0.00902802
0.00901562
0.00900351
0.00899211
0.00898154
0.00897173
0.00896331
0.00896087
0.00896635
0.00897919
0.00899865
0.00902344
0.00905147
0.0090811
0.00911213
0.00914264
0.0091714
0.00919676
0.00921848
0.00923717
0.00925278
0.00926515
0.00927418
0.00927988
0.00928233
0.00928182
0.00927827
0.00926992
0.00926003
0.00925046
0.00924057
0.00923582
1.72539
1.12754
0.672231
0.422703
0.290074
0.221959
0.189423
0.175103
0.169403
0.16757
0.167285
0.167637
0.168451
0.169408
0.170401
0.17146
0.172619
0.174259
0.175765
0.177111
0.178617
0.180373
0.182123
0.183679
0.185239
0.186778
0.188175
0.189337
0.190233
0.190867
0.191232
0.191298
0.190978
0.190223
0.189078
0.187312
0.184867
0.181731
0.177911
0.173451
0.168442
0.163019
0.157203
0.151317
0.14571
0.14043
0.135618
0.13141
0.127939
0.125325
0.123569
0.122538
0.122041
0.121852
0.12186
0.122029
0.122356
0.122862
0.123591
0.124585
0.125858
0.127405
0.129231
0.131275
0.133361
0.13546
0.137725
0.139817
0.141685
0.143108
0.14419
0.144928
0.14544
0.145814
0.146161
0.146579
0.147118
0.147777
0.148555
0.149462
0.150467
0.151498
0.152468
0.153288
0.153873
0.154167
0.1541
0.153685
0.153011
0.152038
0.150773
0.149221
0.147403
0.145347
0.143093
0.140704
0.138231
0.135572
0.132914
0.13046
0.128161
0.126067
0.124212
0.122611
0.121236
0.120029
0.118914
0.117811
0.116653
0.115391
0.114017
0.112569
0.111144
0.109872
0.108911
0.108389
0.108391
0.10901
0.110313
0.112249
0.11473
0.117617
0.120696
0.123925
0.127207
0.130282
0.133053
0.135541
0.137734
0.139683
0.141414
0.142958
0.144334
0.145544
0.146566
0.147349
0.14784
0.148024
0.147792
0.147267
0.146408
0.14521
0.143685
0.141859
0.1398
0.137562
0.135138
0.132602
0.13002
0.127506
0.125089
0.122775
0.12055
0.118461
0.116536
0.114805
0.113331
0.112134
0.111244
0.110659
0.110411
0.110523
0.111063
0.11198
1.78058
1.20201
0.72286
0.477377
0.348555
0.28139
0.249127
0.235205
0.2301
0.228851
0.228982
0.229904
0.231233
0.232523
0.233748
0.234938
0.236116
0.237261
0.238337
0.239252
0.240037
0.240674
0.241124
0.241422
0.241569
0.241519
0.241226
0.240671
0.239908
0.239117
0.238327
0.237597
0.236944
0.236374
0.23575
0.234976
0.234025
0.232874
0.231498
0.229883
0.228025
0.225961
0.223741
0.221386
0.218967
0.216575
0.214305
0.212264
0.210551
0.209211
0.208219
0.207503
0.206889
0.206262
0.205704
0.205217
0.204791
0.204414
0.204079
0.203799
0.203595
0.203475
0.20342
0.203402
0.203392
0.203376
0.203426
0.203569
0.203706
0.203642
0.203551
0.203475
0.203395
0.203314
0.203231
0.203143
0.203039
0.202908
0.202747
0.202563
0.202362
0.202151
0.201929
0.201695
0.201441
0.201156
0.200837
0.200444
0.199976
0.199444
0.198847
0.198177
0.197433
0.196618
0.195731
0.194764
0.19372
0.192665
0.191604
0.190502
0.189434
0.188455
0.187583
0.186836
0.186201
0.185649
0.185138
0.184625
0.184068
0.183436
0.182722
0.181942
0.181137
0.180376
0.179741
0.179292
0.179022
0.178956
0.179108
0.179483
0.180029
0.180696
0.181393
0.182108
0.18292
0.183711
0.184338
0.184895
0.185389
0.185815
0.186182
0.186497
0.186768
0.186996
0.187174
0.187295
0.187325
0.187227
0.186999
0.186692
0.186301
0.185821
0.185248
0.18458
0.183811
0.182934
0.181981
0.181011
0.18002
0.178961
0.177868
0.176772
0.175678
0.174625
0.17363
0.172707
0.171892
0.171213
0.170685
0.17028
0.170005
0.169916
0.169983
0.170091
1.77622
1.21823
0.75137
0.507534
0.377936
0.309614
0.276417
0.261855
0.256154
0.254035
0.253061
0.252392
0.251699
0.251034
0.250372
0.249727
0.24912
0.248529
0.247946
0.247308
0.246556
0.245685
0.244734
0.243718
0.242654
0.241532
0.240282
0.238856
0.237369
0.235917
0.234564
0.233368
0.232358
0.231538
0.230799
0.230111
0.229459
0.228823
0.228149
0.227393
0.226504
0.225456
0.22425
0.222931
0.221553
0.220169
0.218836
0.217604
0.216519
0.215574
0.214756
0.214034
0.213321
0.212591
0.211874
0.211181
0.210518
0.209878
0.209244
0.20862
0.208017
0.207442
0.206896
0.206382
0.205902
0.205461
0.205089
0.204863
0.204655
0.204408
0.204193
0.204028
0.203878
0.203729
0.203583
0.20344
0.203304
0.20317
0.203034
0.202891
0.202732
0.202554
0.202352
0.202131
0.201894
0.201648
0.201401
0.201156
0.200906
0.200618
0.200289
0.199925
0.199529
0.199111
0.198677
0.198241
0.197812
0.197376
0.196926
0.196473
0.196032
0.195637
0.195296
0.195021
0.194809
0.194643
0.194502
0.194363
0.194208
0.194017
0.193782
0.193511
0.193222
0.19295
0.192744
0.192569
0.192419
0.192312
0.192262
0.192276
0.192361
0.192513
0.192696
0.192905
0.193193
0.193391
0.193552
0.193642
0.193664
0.193649
0.193603
0.19353
0.193435
0.193326
0.193206
0.193075
0.192943
0.192826
0.192731
0.192625
0.192455
0.192227
0.191941
0.191597
0.191215
0.190821
0.190407
0.189933
0.18943
0.188975
0.188548
0.18811
0.187641
0.187164
0.186699
0.186247
0.185837
0.185498
0.185226
0.185006
0.184838
0.184718
0.184663
0.184687
1.77439
1.23376
0.77225
0.524193
0.389635
0.317949
0.282555
0.266461
0.259557
0.256428
0.254554
0.253077
0.251707
0.250414
0.249116
0.247849
0.246622
0.245411
0.244199
0.242946
0.241567
0.240064
0.238452
0.236727
0.234899
0.232983
0.231049
0.229189
0.227477
0.225965
0.2247
0.223707
0.222987
0.222464
0.222099
0.22189
0.221817
0.221867
0.221988
0.222117
0.222177
0.222081
0.221767
0.221202
0.220415
0.219476
0.218485
0.217517
0.216632
0.215871
0.215232
0.214694
0.214155
0.213604
0.21306
0.212534
0.212021
0.21151
0.210986
0.210439
0.20987
0.209276
0.208661
0.208044
0.207446
0.206887
0.206395
0.206052
0.205786
0.20551
0.205287
0.205127
0.204994
0.204874
0.204757
0.20463
0.20449
0.204335
0.204163
0.203976
0.203781
0.203582
0.203387
0.203199
0.203016
0.202817
0.202579
0.202316
0.202056
0.201803
0.201557
0.201313
0.201064
0.200805
0.20053
0.200229
0.199905
0.199569
0.199237
0.198876
0.198527
0.198227
0.197989
0.197828
0.197742
0.197714
0.19772
0.197739
0.197755
0.197751
0.197722
0.197671
0.197609
0.197563
0.197565
0.197573
0.197488
0.197295
0.197015
0.196674
0.196297
0.195915
0.195536
0.195181
0.194935
0.194759
0.194582
0.194445
0.194352
0.194282
0.194228
0.194162
0.194079
0.193981
0.193868
0.193742
0.193605
0.193461
0.193315
0.193182
0.193063
0.192961
0.192871
0.192788
0.192704
0.192597
0.19247
0.192371
0.192276
0.192118
0.19193
0.191728
0.19151
0.191287
0.191074
0.190877
0.190699
0.190565
0.190463
0.190333
0.190169
0.189986
0.189791
0.18952
1.77343
1.24167
0.778447
0.526709
0.389444
0.315955
0.279313
0.262341
0.254719
0.250962
0.248548
0.246549
0.244677
0.242863
0.241084
0.239366
0.237687
0.236022
0.23434
0.232621
0.230795
0.228867
0.226903
0.224937
0.223018
0.221213
0.219579
0.218146
0.216925
0.21592
0.215127
0.214497
0.213994
0.213622
0.213379
0.21326
0.213273
0.213418
0.213682
0.21404
0.214439
0.214826
0.215145
0.215337
0.215395
0.215299
0.215042
0.214675
0.214255
0.213837
0.213447
0.213083
0.212665
0.212225
0.211767
0.211299
0.210824
0.210333
0.209808
0.209242
0.208632
0.207974
0.207281
0.206579
0.205899
0.205263
0.204692
0.204255
0.203896
0.203572
0.203317
0.203144
0.20301
0.202896
0.202783
0.202658
0.202516
0.202354
0.202179
0.201996
0.201811
0.201602
0.201367
0.20111
0.20084
0.20057
0.200312
0.200072
0.199843
0.199627
0.199425
0.199231
0.199041
0.198849
0.198654
0.198452
0.198244
0.198035
0.197834
0.197619
0.197415
0.197249
0.197128
0.197063
0.197052
0.197071
0.197116
0.197177
0.197241
0.197292
0.197327
0.197348
0.19736
0.197382
0.197434
0.197435
0.197335
0.197117
0.196801
0.196421
0.196013
0.195628
0.195285
0.19501
0.194871
0.194826
0.194774
0.194698
0.194588
0.194466
0.194331
0.194183
0.194022
0.19385
0.193673
0.193498
0.193334
0.1932
0.193101
0.193051
0.193004
0.19292
0.192803
0.192659
0.192503
0.19236
0.192241
0.192091
0.191935
0.191838
0.191754
0.191656
0.191538
0.191402
0.191258
0.191117
0.190986
0.190886
0.190814
0.190733
0.19063
0.190489
0.190351
0.190178
1.77494
1.25164
0.784145
0.52715
0.385721
0.309498
0.271096
0.252786
0.24411
0.239544
0.236568
0.234172
0.232074
0.230174
0.228427
0.226826
0.225319
0.223875
0.222466
0.221088
0.219723
0.218364
0.217016
0.215714
0.214484
0.213357
0.212353
0.21149
0.210783
0.210186
0.209672
0.209252
0.208927
0.208693
0.208539
0.208457
0.208458
0.208544
0.208723
0.208991
0.209321
0.209671
0.209993
0.210246
0.210423
0.210515
0.210541
0.210519
0.210457
0.210369
0.21026
0.210102
0.20983
0.209517
0.209175
0.208798
0.208397
0.207962
0.207477
0.206927
0.206304
0.205612
0.204877
0.204147
0.203463
0.202848
0.202322
0.201938
0.20165
0.201435
0.201293
0.201228
0.201192
0.201168
0.201141
0.201103
0.201051
0.200987
0.200916
0.200846
0.200788
0.200722
0.200623
0.200484
0.200308
0.20011
0.199893
0.199665
0.199436
0.199211
0.198992
0.198774
0.198553
0.198322
0.198081
0.197834
0.197583
0.197331
0.197087
0.196846
0.196631
0.196471
0.196386
0.196375
0.196403
0.196477
0.196586
0.196713
0.196838
0.196946
0.197035
0.197112
0.197188
0.197281
0.197408
0.197461
0.197398
0.197196
0.196874
0.196474
0.196045
0.195636
0.195267
0.194963
0.194768
0.194646
0.194539
0.194459
0.19437
0.194272
0.194163
0.194043
0.19391
0.193766
0.193609
0.193449
0.193285
0.193125
0.192977
0.192858
0.192762
0.192696
0.192636
0.192559
0.192479
0.19242
0.192371
0.192336
0.192319
0.192272
0.192209
0.192139
0.192057
0.191969
0.191885
0.191815
0.191766
0.19175
0.191718
0.191642
0.191525
0.191383
0.191249
0.191052
1.77891
1.26767
0.795225
0.532682
0.385939
0.304025
0.261801
0.241546
0.231897
0.227042
0.224282
0.22251
0.221167
0.22003
0.218975
0.218052
0.217191
0.216359
0.215519
0.214663
0.213777
0.212864
0.211977
0.21115
0.210401
0.209749
0.209202
0.208755
0.208329
0.207929
0.207583
0.207301
0.207078
0.206902
0.206761
0.20664
0.206546
0.206492
0.206489
0.206549
0.206664
0.206817
0.206964
0.207075
0.207142
0.207152
0.207131
0.207089
0.207044
0.207007
0.206975
0.206874
0.206687
0.20648
0.206263
0.206011
0.205729
0.205405
0.20502
0.204563
0.204028
0.203427
0.202816
0.202248
0.201746
0.201322
0.200993
0.200781
0.200648
0.200577
0.20054
0.200519
0.200528
0.200573
0.200621
0.200652
0.200671
0.20068
0.200686
0.200701
0.20071
0.200675
0.20059
0.200445
0.200254
0.200033
0.199797
0.199543
0.199287
0.199032
0.198782
0.198532
0.198276
0.198009
0.19773
0.197444
0.197153
0.196855
0.196557
0.196276
0.196027
0.195846
0.195782
0.195786
0.195842
0.195952
0.196097
0.196255
0.196404
0.19653
0.196637
0.196734
0.196839
0.196978
0.197147
0.197225
0.197183
0.196993
0.196672
0.19627
0.195847
0.195463
0.195141
0.194909
0.19479
0.194771
0.194768
0.194728
0.194661
0.19459
0.194511
0.194427
0.194326
0.194216
0.194094
0.193959
0.193819
0.19369
0.19357
0.193471
0.193394
0.193333
0.193217
0.19305
0.19286
0.192678
0.192529
0.192374
0.192243
0.192175
0.192128
0.192082
0.192026
0.191966
0.191911
0.19187
0.191847
0.191841
0.191814
0.191765
0.191686
0.191588
0.191504
0.19133
1.78414
1.28805
0.812434
0.542718
0.390544
0.30483
0.258983
0.236299
0.225576
0.220425
0.217922
0.216602
0.215807
0.215217
0.214691
0.214205
0.213754
0.213317
0.212828
0.212293
0.211729
0.211115
0.210519
0.209993
0.209548
0.209186
0.208899
0.208585
0.208232
0.207883
0.207567
0.207299
0.20707
0.20687
0.206688
0.2065
0.206314
0.206145
0.206005
0.205904
0.205841
0.205798
0.205767
0.205728
0.205674
0.2056
0.205533
0.205478
0.205446
0.205445
0.205447
0.205373
0.205246
0.205122
0.205005
0.204857
0.204668
0.204425
0.204113
0.203724
0.203252
0.202717
0.202195
0.201738
0.20135
0.201041
0.200828
0.200712
0.200662
0.200638
0.200616
0.2006
0.200619
0.200684
0.200768
0.20083
0.20088
0.200925
0.200978
0.201056
0.201136
0.201176
0.201168
0.201087
0.200938
0.200759
0.20052
0.200253
0.199954
0.199639
0.199316
0.198986
0.198644
0.198287
0.197923
0.197564
0.197211
0.196866
0.196528
0.196222
0.195953
0.195761
0.195709
0.19573
0.19582
0.195977
0.19617
0.19637
0.196549
0.196698
0.196819
0.196928
0.197047
0.197211
0.197384
0.197446
0.197383
0.197171
0.196832
0.19642
0.196006
0.195659
0.195408
0.195281
0.195285
0.195396
0.195518
0.19559
0.195624
0.195662
0.195696
0.195723
0.195725
0.195709
0.195668
0.195591
0.195474
0.195328
0.195149
0.194954
0.194748
0.194553
0.194376
0.194174
0.193928
0.19368
0.193462
0.193252
0.193075
0.192959
0.192854
0.192762
0.192673
0.192588
0.192523
0.192487
0.192479
0.192461
0.192419
0.192354
0.192263
0.192176
0.192109
0.191945
1.79028
1.31141
0.835344
0.559109
0.399829
0.308682
0.260016
0.235645
0.223814
0.218172
0.215659
0.214647
0.214216
0.213955
0.213674
0.213465
0.213227
0.212972
0.212632
0.212212
0.211759
0.211249
0.21077
0.210389
0.210126
0.20999
0.209887
0.209761
0.209604
0.20943
0.20928
0.209144
0.208998
0.208811
0.208563
0.208214
0.207782
0.207298
0.206801
0.206347
0.205987
0.205741
0.20557
0.205434
0.205307
0.205179
0.205088
0.205042
0.205053
0.205106
0.205098
0.205031
0.204942
0.204868
0.2048
0.204706
0.204567
0.204364
0.20408
0.203711
0.203253
0.20273
0.202234
0.201818
0.201487
0.201254
0.20114
0.201142
0.201188
0.201195
0.201192
0.20119
0.201233
0.201341
0.201488
0.201612
0.20173
0.201862
0.202028
0.202253
0.202486
0.202674
0.202795
0.202834
0.202773
0.202635
0.202413
0.20211
0.201731
0.201299
0.200839
0.200355
0.19985
0.199323
0.19879
0.19827
0.197769
0.197294
0.196842
0.196454
0.196123
0.195869
0.195801
0.195838
0.195976
0.196189
0.196436
0.196676
0.196887
0.197057
0.197194
0.197316
0.19745
0.197641
0.19781
0.197864
0.197787
0.197562
0.197217
0.196823
0.196464
0.196217
0.196121
0.196187
0.19641
0.196744
0.197029
0.197257
0.197431
0.197594
0.197747
0.197879
0.197979
0.198055
0.198115
0.19814
0.198113
0.198038
0.197881
0.197642
0.197355
0.197054
0.196745
0.196376
0.195936
0.195475
0.195032
0.194625
0.194252
0.193978
0.193773
0.193624
0.193504
0.193398
0.193321
0.193276
0.193239
0.193195
0.193139
0.19308
0.193006
0.192959
0.192931
0.192805
1.79733
1.33709
0.863418
0.581629
0.415001
0.317017
0.263713
0.237023
0.224256
0.218275
0.21564
0.214631
0.21431
0.214193
0.214055
0.214016
0.213946
0.213829
0.213616
0.213333
0.213052
0.212756
0.212534
0.212463
0.212588
0.212884
0.213212
0.213542
0.213849
0.214127
0.214379
0.214572
0.214649
0.214535
0.21421
0.213602
0.212748
0.211703
0.210523
0.209318
0.208185
0.207226
0.206525
0.206066
0.20575
0.205535
0.205414
0.205385
0.205411
0.205393
0.205321
0.205223
0.205135
0.20508
0.205042
0.204992
0.204899
0.204736
0.204483
0.204139
0.203707
0.203211
0.202775
0.202451
0.202251
0.202187
0.202272
0.202458
0.202603
0.202688
0.202742
0.202786
0.202883
0.203074
0.203327
0.203559
0.203798
0.204083
0.204446
0.204914
0.205414
0.205855
0.206198
0.206418
0.206515
0.206443
0.206235
0.205866
0.205345
0.204708
0.204
0.203242
0.202448
0.201633
0.200819
0.200025
0.199268
0.198572
0.197932
0.197392
0.196946
0.196568
0.196384
0.196381
0.196525
0.196792
0.197106
0.197398
0.19764
0.197826
0.197966
0.198091
0.198241
0.198462
0.198626
0.198662
0.198563
0.198317
0.197978
0.197641
0.197398
0.197326
0.197461
0.197816
0.198355
0.198953
0.199466
0.199915
0.200306
0.200679
0.201044
0.201399
0.201738
0.202052
0.202316
0.202496
0.202557
0.202469
0.202217
0.20184
0.201363
0.200828
0.200261
0.199701
0.199085
0.198423
0.197765
0.197146
0.196574
0.196102
0.195719
0.195406
0.195164
0.194972
0.194823
0.194702
0.194599
0.194504
0.194407
0.194316
0.19423
0.194199
0.194207
0.194121
1.80505
1.3646
0.895989
0.609437
0.436133
0.330697
0.271488
0.241247
0.226732
0.220048
0.217229
0.216237
0.216065
0.216178
0.216349
0.216526
0.216728
0.216821
0.2168
0.21673
0.216708
0.216751
0.216952
0.217409
0.218189
0.21919
0.220274
0.221391
0.222506
0.223584
0.224552
0.225307
0.225746
0.225737
0.225201
0.223984
0.222243
0.220182
0.217986
0.21579
0.213655
0.211643
0.209967
0.208732
0.207856
0.207273
0.206889
0.206626
0.206422
0.206247
0.206095
0.205979
0.205929
0.205933
0.205974
0.205996
0.205975
0.205873
0.205664
0.205362
0.204974
0.204529
0.204196
0.204028
0.204034
0.204224
0.204607
0.205007
0.205313
0.205541
0.205706
0.205841
0.206033
0.206346
0.206753
0.207147
0.20757
0.208086
0.208744
0.209575
0.210475
0.211303
0.211991
0.21248
0.212737
0.212764
0.212532
0.212055
0.211304
0.210336
0.20922
0.208014
0.206769
0.205517
0.204285
0.2031
0.201961
0.200982
0.200089
0.199318
0.198691
0.198173
0.197825
0.197679
0.197716
0.197965
0.198359
0.198716
0.199002
0.19921
0.199349
0.199463
0.199606
0.199814
0.199923
0.199914
0.199762
0.199516
0.199224
0.198984
0.198904
0.199067
0.199544
0.200314
0.201269
0.202204
0.203017
0.203755
0.204424
0.205062
0.205678
0.206278
0.206846
0.207347
0.207738
0.207978
0.208033
0.207886
0.207546
0.207018
0.206341
0.20557
0.204757
0.203947
0.203099
0.202188
0.201279
0.200419
0.199624
0.198954
0.198385
0.197904
0.197495
0.197153
0.196872
0.196636
0.196444
0.196278
0.196129
0.196008
0.195916
0.195904
0.19596
0.195932
1.81323
1.39407
0.93272
0.641871
0.462767
0.349975
0.284135
0.249426
0.232505
0.224822
0.221767
0.220923
0.221007
0.221419
0.221907
0.22232
0.222749
0.223098
0.223324
0.223534
0.223869
0.224407
0.225259
0.226572
0.228446
0.23069
0.233155
0.23579
0.238596
0.241454
0.244131
0.246344
0.247788
0.248197
0.247113
0.243933
0.239406
0.234487
0.229835
0.225775
0.222287
0.219185
0.216247
0.213653
0.211625
0.210204
0.209257
0.208631
0.208212
0.207926
0.207742
0.207654
0.207686
0.207801
0.207966
0.208114
0.208162
0.20812
0.207961
0.207699
0.207362
0.207
0.206809
0.206847
0.207147
0.207728
0.208512
0.209202
0.209757
0.210206
0.210557
0.210858
0.21121
0.211698
0.212315
0.212934
0.213632
0.214497
0.215607
0.21701
0.218562
0.220038
0.22132
0.222297
0.222887
0.223057
0.222776
0.222061
0.220876
0.219292
0.217422
0.215411
0.213378
0.211389
0.209501
0.207762
0.206103
0.204636
0.203344
0.202244
0.201333
0.20059
0.200061
0.199765
0.199706
0.199878
0.200281
0.200692
0.201017
0.201247
0.201392
0.201501
0.201647
0.201816
0.20185
0.201773
0.201573
0.2013
0.201043
0.200935
0.201081
0.201605
0.202553
0.203827
0.205291
0.206682
0.207913
0.209023
0.210028
0.210969
0.211875
0.212741
0.213549
0.214248
0.214783
0.215116
0.215213
0.21503
0.214566
0.213801
0.212792
0.211627
0.210399
0.209185
0.208011
0.206775
0.205559
0.204423
0.203376
0.202495
0.201743
0.201097
0.200536
0.200053
0.199639
0.199279
0.198974
0.198715
0.198483
0.198304
0.198179
0.198166
0.19826
0.198301
1.82171
1.42591
0.973649
0.678672
0.494659
0.374856
0.302056
0.262288
0.242466
0.2335
0.230206
0.229722
0.230079
0.230852
0.231745
0.232468
0.233146
0.233856
0.234466
0.235127
0.236076
0.237513
0.239641
0.242771
0.247111
0.252375
0.258396
0.265326
0.273464
0.282474
0.291517
0.299559
0.305456
0.308277
0.305929
0.295166
0.279929
0.264421
0.251357
0.241692
0.234696
0.229438
0.224902
0.220936
0.217572
0.214965
0.213148
0.211978
0.211229
0.21078
0.210563
0.210535
0.210694
0.210978
0.211321
0.211624
0.21178
0.211782
0.211672
0.211454
0.211186
0.210961
0.210958
0.211277
0.21199
0.213096
0.21442
0.215613
0.216613
0.217438
0.21811
0.218691
0.219301
0.220061
0.220993
0.221964
0.223111
0.224576
0.226487
0.228927
0.23172
0.234504
0.237071
0.239182
0.240596
0.241194
0.240835
0.239615
0.237458
0.234519
0.231018
0.22729
0.22361
0.220133
0.216963
0.214161
0.211739
0.209604
0.207764
0.206194
0.204902
0.203851
0.203069
0.202569
0.202364
0.202438
0.202812
0.203273
0.203632
0.20388
0.204028
0.204135
0.2043
0.204454
0.204448
0.204303
0.20405
0.203754
0.203571
0.203629
0.204099
0.205108
0.206669
0.208723
0.210913
0.21291
0.214691
0.216275
0.217696
0.219007
0.220262
0.221498
0.222684
0.223754
0.224632
0.22524
0.225517
0.225337
0.224694
0.223487
0.221814
0.219863
0.217842
0.215909
0.214127
0.212356
0.210679
0.209163
0.207784
0.206646
0.205686
0.204863
0.20415
0.203523
0.202978
0.202496
0.20208
0.201729
0.201421
0.201185
0.201024
0.201015
0.201146
0.201264
1.8279
1.44851
1.00362
0.705467
0.518136
0.393568
0.31592
0.27255
0.250621
0.240702
0.237241
0.237034
0.237638
0.238718
0.239942
0.240927
0.241834
0.242831
0.243761
0.244802
0.246285
0.248531
0.251848
0.256758
0.263635
0.272269
0.28274
0.296084
0.314253
0.338584
0.369049
0.402181
0.431857
0.449085
0.4444
0.411531
0.365905
0.32081
0.285211
0.262259
0.248332
0.2393
0.232535
0.227133
0.222799
0.219352
0.216644
0.214777
0.213693
0.213099
0.212846
0.212868
0.213138
0.21357
0.214068
0.214501
0.214748
0.214789
0.214703
0.214509
0.214289
0.214168
0.214299
0.21483
0.215869
0.217461
0.219231
0.220846
0.222233
0.223413
0.224398
0.225252
0.226097
0.227093
0.228281
0.229548
0.231103
0.233155
0.235903
0.239513
0.243905
0.248778
0.253964
0.259081
0.263448
0.266201
0.266617
0.264498
0.260578
0.255214
0.248832
0.242161
0.23581
0.230122
0.225159
0.220929
0.217439
0.214456
0.211881
0.209717
0.207997
0.206595
0.205548
0.204852
0.204525
0.204541
0.204907
0.205408
0.205791
0.206039
0.206169
0.206247
0.206398
0.206516
0.206463
0.206253
0.205947
0.205637
0.205511
0.205693
0.206421
0.207808
0.209871
0.212546
0.215263
0.217741
0.219971
0.221964
0.223766
0.225449
0.227093
0.228795
0.230567
0.23238
0.234173
0.235826
0.237073
0.237557
0.236808
0.234879
0.232113
0.228877
0.225568
0.222483
0.219778
0.217278
0.215027
0.213078
0.211352
0.209958
0.208794
0.207798
0.206936
0.206184
0.205529
0.204943
0.204434
0.204001
0.203623
0.203335
0.20314
0.203123
0.203281
0.203443
1.83122
1.4607
1.02036
0.720649
0.531689
0.404671
0.324442
0.279085
0.255969
0.245502
0.241956
0.241913
0.242699
0.24403
0.245478
0.246649
0.247735
0.248943
0.250104
0.251433
0.253341
0.256258
0.260626
0.267247
0.276834
0.289599
0.30635
0.330084
0.366236
0.418636
0.4852
0.555376
0.616186
0.65186
0.644605
0.57821
0.487285
0.397095
0.326028
0.282845
0.259476
0.246424
0.237932
0.231411
0.226203
0.222012
0.219008
0.216803
0.215343
0.214582
0.214307
0.214376
0.214735
0.215283
0.215898
0.216423
0.21673
0.216798
0.216715
0.216521
0.216323
0.216259
0.216473
0.217139
0.218418
0.220359
0.222446
0.224393
0.226127
0.227665
0.228977
0.2301
0.231157
0.232343
0.233722
0.235238
0.237178
0.23984
0.243537
0.24859
0.255092
0.262818
0.271462
0.280067
0.287128
0.291215
0.291558
0.288441
0.2827
0.274741
0.265148
0.25518
0.245905
0.237902
0.231218
0.225735
0.22133
0.217698
0.214637
0.212088
0.210077
0.208422
0.207181
0.20635
0.205948
0.205946
0.206326
0.206849
0.207238
0.207477
0.207584
0.207637
0.20777
0.207843
0.207734
0.207464
0.207112
0.206792
0.206695
0.206959
0.207852
0.209485
0.211886
0.214946
0.217999
0.220822
0.223413
0.22578
0.227977
0.230088
0.232223
0.234534
0.237087
0.239866
0.242726
0.245355
0.247227
0.247858
0.246825
0.244186
0.24037
0.235926
0.231432
0.227309
0.223777
0.220624
0.217861
0.215535
0.213538
0.211968
0.21068
0.209588
0.208642
0.207807
0.207075
0.206414
0.205836
0.205341
0.204918
0.204597
0.204378
0.204353
0.20452
0.204709
1.83447
1.47277
1.03731
0.736316
0.545992
0.416644
0.33384
0.286459
0.262123
0.251099
0.247479
0.247598
0.248615
0.250261
0.252004
0.25343
0.254761
0.256256
0.257747
0.259515
0.262098
0.266122
0.272335
0.282176
0.297344
0.319055
0.34954
0.395805
0.469497
0.574079
0.695966
0.814311
0.912227
0.971774
0.963742
0.845616
0.685646
0.523303
0.392022
0.314332
0.274738
0.254888
0.243447
0.235646
0.229702
0.225019
0.221396
0.218899
0.217298
0.216359
0.216024
0.216139
0.216609
0.217297
0.218047
0.218676
0.219049
0.219146
0.21906
0.218859
0.218683
0.218682
0.219001
0.219846
0.221438
0.223783
0.226328
0.228818
0.231185
0.233398
0.235318
0.236917
0.238317
0.239783
0.241455
0.243387
0.246009
0.249775
0.255196
0.262817
0.27287
0.284967
0.298125
0.310496
0.319773
0.324524
0.324256
0.319964
0.312079
0.300875
0.286971
0.272399
0.258935
0.247569
0.238404
0.231165
0.225536
0.221062
0.217422
0.214448
0.212152
0.210278
0.208865
0.20791
0.207431
0.207406
0.207804
0.208359
0.208758
0.208989
0.209075
0.209109
0.209227
0.209269
0.209111
0.208784
0.208389
0.208062
0.208006
0.20838
0.20947
0.211392
0.214177
0.217654
0.221151
0.224495
0.227698
0.230766
0.233725
0.236633
0.23963
0.242915
0.246583
0.250553
0.254511
0.257921
0.260121
0.260642
0.259185
0.255621
0.250394
0.244329
0.238265
0.232819
0.228297
0.22439
0.221025
0.218215
0.215849
0.214032
0.212579
0.211375
0.210349
0.209453
0.208666
0.207952
0.207323
0.20678
0.206313
0.205959
0.205718
0.205682
0.205861
0.206074
1.83774
1.48499
1.05476
0.75251
0.560975
0.429388
0.344018
0.294598
0.269033
0.257464
0.253801
0.254113
0.255418
0.25746
0.259592
0.26138
0.263081
0.265009
0.267031
0.269553
0.273342
0.279403
0.28916
0.305477
0.332057
0.371261
0.426961
0.512638
0.649498
0.831927
1.02988
1.21782
1.37559
1.46877
1.45729
1.30263
1.03953
0.749831
0.508863
0.368353
0.298665
0.266875
0.250764
0.240855
0.233762
0.228347
0.224231
0.221303
0.219425
0.218386
0.218017
0.218171
0.218759
0.219609
0.220509
0.221252
0.2217
0.221828
0.221738
0.221524
0.221368
0.221446
0.221908
0.222996
0.224977
0.227867
0.231136
0.234562
0.238051
0.24143
0.244369
0.246738
0.248684
0.250582
0.252712
0.255313
0.259037
0.264563
0.272648
0.284035
0.298938
0.316555
0.335208
0.352424
0.365333
0.372138
0.372126
0.366417
0.355759
0.340113
0.319922
0.298359
0.278328
0.261567
0.2484
0.238424
0.230987
0.225319
0.220843
0.217265
0.214559
0.212373
0.210741
0.209647
0.209094
0.20905
0.209475
0.210072
0.210486
0.210707
0.210765
0.210772
0.21087
0.210871
0.210641
0.210233
0.209782
0.20945
0.209444
0.209948
0.211263
0.213517
0.216732
0.220739
0.224897
0.229121
0.233444
0.237787
0.242035
0.246174
0.250347
0.254815
0.259729
0.265008
0.270293
0.27497
0.278192
0.279235
0.277366
0.272366
0.264895
0.256213
0.247607
0.240045
0.233977
0.228992
0.224865
0.221459
0.21862
0.216469
0.214774
0.213379
0.212215
0.21122
0.210354
0.20957
0.208878
0.208279
0.20777
0.207387
0.207126
0.207083
0.207277
0.207527
1.84106
1.49733
1.07264
0.769193
0.576614
0.442904
0.354986
0.303523
0.276733
0.264659
0.261032
0.261612
0.263323
0.265917
0.268616
0.270969
0.273282
0.275952
0.278924
0.282849
0.288928
0.298896
0.315527
0.344394
0.392132
0.460735
0.55552
0.700098
0.927745
1.20181
1.47406
1.69394
1.8419
1.90823
1.8851
1.77497
1.53493
1.12442
0.703529
0.459259
0.336548
0.283245
0.259483
0.246586
0.238124
0.231965
0.227326
0.224012
0.221863
0.220681
0.220286
0.220494
0.221212
0.222237
0.223307
0.224177
0.224704
0.224866
0.224773
0.224547
0.224417
0.224605
0.225275
0.226696
0.229202
0.232918
0.237356
0.242331
0.247641
0.252841
0.257327
0.260835
0.263567
0.266081
0.268873
0.272462
0.277798
0.28583
0.297571
0.31392
0.334992
0.359617
0.385514
0.40931
0.42691
0.435827
0.435672
0.428586
0.415042
0.394306
0.366265
0.335356
0.306071
0.281322
0.261989
0.247713
0.237536
0.230209
0.22469
0.220402
0.217224
0.214692
0.212808
0.211563
0.210929
0.210867
0.211325
0.21197
0.212397
0.212597
0.212623
0.212598
0.212677
0.212639
0.212333
0.211833
0.211316
0.210972
0.21102
0.211671
0.213242
0.215876
0.219619
0.224398
0.229648
0.235439
0.241751
0.248223
0.254422
0.260201
0.265773
0.271556
0.277933
0.285004
0.292478
0.299481
0.304485
0.306154
0.303522
0.296233
0.28528
0.272566
0.260074
0.249327
0.240964
0.234419
0.229265
0.225129
0.221699
0.21915
0.217171
0.215568
0.214249
0.21313
0.212164
0.211297
0.210533
0.209869
0.20931
0.208888
0.208607
0.208558
0.20877
0.209077
1.84447
1.50999
1.091
0.786361
0.592907
0.45722
0.366796
0.313299
0.285308
0.272813
0.269387
0.270383
0.272758
0.276226
0.279852
0.283181
0.286589
0.290602
0.295333
0.301883
0.312249
0.329454
0.358593
0.409466
0.491283
0.601904
0.749139
0.972947
1.30332
1.63737
1.88097
2.05356
2.16826
2.21516
2.17997
2.10627
1.92943
1.56664
1.01412
0.610821
0.400384
0.308219
0.271438
0.253759
0.243163
0.235953
0.23072
0.227012
0.224607
0.223299
0.222892
0.223174
0.224031
0.225238
0.226488
0.227497
0.228111
0.22831
0.228216
0.227987
0.227907
0.228259
0.229238
0.231135
0.234417
0.239411
0.245688
0.253066
0.261124
0.269001
0.275705
0.280773
0.28451
0.287771
0.291401
0.296308
0.303821
0.315184
0.331666
0.354331
0.383234
0.416806
0.451764
0.483313
0.506048
0.517324
0.517643
0.509634
0.493311
0.467111
0.430237
0.387798
0.346318
0.310392
0.281952
0.260999
0.246448
0.236475
0.229374
0.224087
0.220277
0.21731
0.215124
0.213699
0.212975
0.212894
0.213394
0.214102
0.214552
0.214725
0.214699
0.214618
0.214661
0.214576
0.214187
0.21359
0.213003
0.212642
0.212746
0.213563
0.215433
0.218531
0.223015
0.229012
0.236155
0.244698
0.254379
0.264227