/*--------------------------------*- C++ -*----------------------------------*\
| =========                 |                                                 |
| \\      /  F ield         | OpenFOAM: The Open Source CFD Toolbox           |
|  \\    /   O peration     | Version:  v1912                                 |
|   \\  /    A nd           | Website:  www.openfoam.com                      |
|    \\/     M anipulation  |                                                 |
\*---------------------------------------------------------------------------*/
FoamFile
{
    version     2.0;
    format      ascii;
    class       volScalarField;
    location    "90";
    object      omega;
}
// * * * * * * * * * * * * * * * * * * * * * * * * * * * * * * * * * * * * * //

dimensions      [0 0 -1 0 0 0 0];


internalField   nonuniform List<scalar> 
14268
(
2.98317
2.98317
2.98317
2.98318
2.98318
2.98318
2.98318
2.98318
2.98319
2.98319
2.98319
2.98319
2.98319
2.98319
2.9832
2.9832
2.9832
2.9832
2.9832
2.9832
2.9832
2.9832
2.9832
2.98319
2.98319
2.98319
2.98319
2.9832
2.98321
2.98322
2.98324
2.98329
2.98341
2.98364
2.9839
2.98388
2.98383
2.98378
2.98369
2.98355
2.98338
2.98328
2.98323
2.98316
0.776149
0.786734
0.795598
0.80087
0.801466
0.799488
0.796252
0.79197
0.786216
0.779285
0.772076
0.765689
0.761245
0.759647
0.760479
0.762041
0.765043
0.770332
0.778314
0.788802
0.801066
0.814915
0.829615
0.841239
0.851029
0.863433
0.868083
0.861567
0.846096
0.825818
0.788894
0.721915
0.607946
0.466911
0.432025
0.45696
0.57017
0.805207
1.14983
1.53844
1.70036
1.68971
1.65201
1.77993
0.336804
0.340187
0.342073
0.342016
0.340293
0.338189
0.336568
0.335516
0.334722
0.333878
0.332845
0.331669
0.330455
0.329397
0.328544
0.327907
0.327888
0.328912
0.331104
0.334308
0.338201
0.342512
0.346717
0.349205
0.349885
0.350454
0.348718
0.340348
0.326232
0.310798
0.291381
0.264837
0.230584
0.210146
0.206847
0.211106
0.23437
0.299337
0.430635
0.637369
0.835152
0.853517
0.857916
1.02282
0.210046
0.211365
0.21199
0.211734
0.210722
0.209599
0.208764
0.208243
0.207868
0.207463
0.206886
0.206171
0.205451
0.204811
0.204234
0.203718
0.203446
0.203605
0.204328
0.205511
0.206859
0.208212
0.209337
0.209623
0.209282
0.208656
0.206801
0.202207
0.195783
0.190999
0.185888
0.17935
0.177553
0.179071
0.182299
0.18726
0.198345
0.222727
0.271751
0.354966
0.468324
0.502878
0.530816
0.694119
0.171643
0.172162
0.172405
0.172275
0.17183
0.171367
0.171024
0.170811
0.170657
0.170478
0.170216
0.169911
0.169594
0.169295
0.16898
0.168674
0.168462
0.168424
0.168595
0.168917
0.169294
0.169642
0.169785
0.169659
0.169253
0.168501
0.167157
0.164893
0.163121
0.16269
0.163176
0.164458
0.167458
0.172679
0.179009
0.185822
0.195684
0.210882
0.233823
0.268874
0.322389
0.348107
0.37474
0.523574
0.160248
0.160472
0.160601
0.160579
0.160384
0.160139
0.159984
0.159921
0.159868
0.159771
0.159662
0.159564
0.159431
0.159268
0.159057
0.158848
0.158685
0.1586
0.158598
0.158629
0.158655
0.158601
0.158465
0.158162
0.157543
0.156699
0.155713
0.154951
0.155159
0.155966
0.157724
0.160654
0.165346
0.17186
0.178907
0.185972
0.195491
0.208503
0.224112
0.242571
0.266287
0.281557
0.301145
0.418609
0.156885
0.156908
0.156878
0.156832
0.1568
0.156732
0.15669
0.15666
0.156653
0.156629
0.156585
0.156511
0.156387
0.156242
0.156085
0.15593
0.155816
0.155755
0.155738
0.155733
0.155663
0.155516
0.155277
0.154848
0.154193
0.153308
0.15256
0.152418
0.152896
0.154077
0.15631
0.159837
0.165062
0.17195
0.179176
0.18634
0.196085
0.208707
0.221393
0.232928
0.24469
0.250768
0.261238
0.351264
0.15579
0.15586
0.155856
0.155803
0.155724
0.155671
0.155657
0.155648
0.155683
0.155758
0.15577
0.1557
0.155571
0.155423
0.155285
0.155143
0.155041
0.154977
0.154906
0.154822
0.15471
0.154522
0.154263
0.153853
0.15323
0.152359
0.151675
0.151664
0.152209
0.153503
0.155933
0.159595
0.164884
0.171772
0.178996
0.186167
0.195838
0.209327
0.221842
0.228145
0.233479
0.237083
0.242717
0.30938
0.155544
0.155622
0.155642
0.15561
0.155522
0.155432
0.155402
0.155394
0.155393
0.155424
0.155412
0.155359
0.155285
0.15519
0.155084
0.154961
0.154851
0.154749
0.154642
0.154524
0.154366
0.154154
0.153846
0.153424
0.152898
0.152067
0.15147
0.151532
0.152094
0.153378
0.155864
0.15961
0.16498
0.171925
0.179142
0.186178
0.19571
0.209814
0.221186
0.227696
0.229076
0.230355
0.232257
0.280276
0.155542
0.155537
0.155503
0.155469
0.155444
0.155395
0.155349
0.155322
0.155336
0.15536
0.155366
0.155332
0.155279
0.155178
0.155043
0.154931
0.154825
0.15473
0.154638
0.154539
0.154408
0.154202
0.153927
0.153504
0.152965
0.152105
0.151453
0.15149
0.152094
0.153419
0.155854
0.159563
0.164957
0.171923
0.179183
0.186295
0.195899
0.209689
0.22118
0.228484
0.228643
0.227623
0.226969
0.261099
0.155384
0.15545
0.155503
0.155459
0.155332
0.155284
0.155273
0.155295
0.155362
0.155409
0.155424
0.155383
0.155319
0.155194
0.155041
0.154926
0.154796
0.154701
0.15464
0.154575
0.154463
0.15428
0.154014
0.153597
0.153059
0.152201
0.151478
0.15148
0.152059
0.153395
0.155856
0.159567
0.164899
0.171805
0.179078
0.18629
0.195778
0.209567
0.221831
0.227494
0.227705
0.226396
0.223438
0.247445
0.155365
0.155409
0.155442
0.155393
0.155312
0.155271
0.155273
0.155284
0.155315
0.155349
0.155337
0.155301
0.155231
0.155144
0.155045
0.154907
0.154769
0.154656
0.154566
0.154453
0.154301
0.154093
0.153817
0.153403
0.152871
0.152031
0.151419
0.151505
0.152091
0.153403
0.155893
0.159633
0.164964
0.171906
0.179163
0.18631
0.195809
0.209945
0.221508
0.227089
0.227091
0.225716
0.221488
0.237709
0.155456
0.155479
0.155469
0.155442
0.155383
0.155314
0.155298
0.155304
0.155347
0.15539
0.155391
0.155366
0.155287
0.1552
0.155118
0.154971
0.154834
0.154722
0.154603
0.154478
0.154328
0.15413
0.153845
0.15346
0.152951
0.152121
0.151472
0.151538
0.152155
0.153467
0.155902
0.159597
0.164996
0.171983
0.17929
0.186531
0.196141
0.209709
0.221556
0.227933
0.227656
0.225815
0.220097
0.23083
0.155477
0.155555
0.155595
0.155575
0.155485
0.155405
0.155386
0.155397
0.155441
0.155477
0.155488
0.15544
0.155387
0.155274
0.155123
0.154991
0.154872
0.154767
0.154621
0.154533
0.154424
0.154249
0.153958
0.153555
0.153007
0.152164
0.151484
0.151486
0.152069
0.15339
0.155868
0.159619
0.164965
0.171841
0.179092
0.186406
0.196064
0.209765
0.221994
0.227028
0.227071
0.225523
0.219434
0.226101
0.155349
0.155423
0.155439
0.155412
0.155331
0.155278
0.155262
0.155269
0.155293
0.155319
0.155313
0.155278
0.155234
0.155146
0.155021
0.154895
0.154764
0.15465
0.154562
0.154472
0.154346
0.154142
0.153884
0.153435
0.15285
0.15204
0.151405
0.151462
0.152047
0.153375
0.155835
0.15954
0.16486
0.171779
0.179039
0.186323
0.196119
0.21005
0.221857
0.227352
0.227447
0.225761
0.218868
0.221329
0.155377
0.155455
0.155484
0.155434
0.15534
0.15525
0.155236
0.155252
0.15529
0.155318
0.155332
0.155314
0.155231
0.155124
0.155029
0.15489
0.154732
0.15462
0.154542
0.15444
0.154299
0.154097
0.153799
0.153385
0.152817
0.151983
0.151383
0.151466
0.152077
0.153392
0.155832
0.159524
0.164894
0.171826
0.179075
0.186302
0.195966
0.209468
0.222743
0.226832
0.22713
0.225402
0.217685
0.218097
0.15539
0.155432
0.15545
0.155429
0.155338
0.155274
0.155249
0.15526
0.155285
0.155324
0.155324
0.155307
0.155269
0.155165
0.155028
0.154894
0.154767
0.15466
0.154556
0.154462
0.15435
0.154151
0.153883
0.153453
0.152899
0.152093
0.151429
0.151444
0.152012
0.153309
0.155796
0.15958
0.164953
0.171843
0.179053
0.186282
0.196021
0.209707
0.223412
0.227238
0.227299
0.22563
0.21785
0.216003
0.155376
0.155392
0.155409
0.155341
0.155244
0.155197
0.155184
0.155199
0.155248
0.155276
0.155257
0.155225
0.155168
0.155086
0.154978
0.154843
0.154716
0.154616
0.15453
0.154459
0.154317
0.154111
0.153846
0.153401
0.15284
0.151965
0.151341
0.151421
0.152008
0.153313
0.155756
0.159514
0.164876
0.171813
0.179067
0.186273
0.196025
0.209797
0.222797
0.226861
0.227453
0.225837
0.217835
0.214661
0.155438
0.155471
0.155505
0.155387
0.15525
0.155219
0.155203
0.155211
0.155279
0.15531
0.155295
0.155266
0.155226
0.155142
0.155
0.154861
0.154717
0.154615
0.154529
0.154424
0.15431
0.154117
0.153844
0.153405
0.152847
0.151964
0.151338
0.151401
0.152007
0.153346
0.155758
0.15943
0.164839
0.171854
0.179166
0.186339
0.195913
0.209652
0.223719
0.226331
0.227291
0.225638
0.218001
0.213819
0.155293
0.155315
0.155334
0.155312
0.155257
0.155256
0.155237
0.155247
0.155253
0.15524
0.15522
0.155183
0.155125
0.155019
0.154904
0.15479
0.154689
0.154596
0.154511
0.154424
0.1543
0.154112
0.153813
0.153405
0.152903
0.152027
0.151351
0.151379
0.151942
0.153255
0.155789
0.159665
0.165149
0.172145
0.179485
0.186897
0.196423
0.209654
0.223709
0.227513
0.227623
0.225884
0.218417
0.212691
0.155372
0.155363
0.155394
0.155264
0.155267
0.155317
0.155292
0.155249
0.155244
0.155231
0.155181
0.155163
0.155116
0.155035
0.154915
0.154782
0.15469
0.1546
0.154517
0.154458
0.154325
0.154155
0.153795
0.153424
0.152905
0.15196
0.151294
0.151331
0.151905
0.153205
0.155765
0.159723
0.165225
0.172226
0.179631
0.187306
0.1973
0.210441
0.223671
0.226749
0.227633
0.225977
0.218628
0.211837
0.155438
0.15547
0.155474
0.1554
0.155293
0.155198
0.155179
0.155196
0.155249
0.155295
0.155303
0.155288
0.155239
0.155146
0.155021
0.154874
0.15473
0.154622
0.154534
0.154441
0.154317
0.154114
0.153832
0.153414
0.152874
0.151957
0.151279
0.151323
0.151897
0.153217
0.155697
0.159615
0.165206
0.172181
0.179512
0.187086
0.197399
0.209954
0.218921
0.221784
0.224015
0.223514
0.217921
0.210434
0.155477
0.15553
0.155514
0.155494
0.1554
0.155319
0.15532
0.155355
0.155384
0.155416
0.155429
0.155393
0.155328
0.15523
0.155124
0.155003
0.154864
0.154766
0.154691
0.154596
0.154474
0.154277
0.153979
0.153561
0.15303
0.152122
0.151381
0.151389
0.151888
0.153142
0.155676
0.160025
0.166587
0.175835
0.187034
0.199768
0.213637
0.219561
0.220216
0.218396
0.214754
0.21234
0.209883
0.206218
0.155646
0.155668
0.155694
0.155646
0.155603
0.155554
0.155513
0.155492
0.155493
0.155515
0.155499
0.155478
0.155424
0.155334
0.155213
0.155071
0.15495
0.154839
0.154744
0.154644
0.154498
0.15429
0.15401
0.153604
0.153047
0.152193
0.151419
0.151385
0.151874
0.153139
0.155911
0.161653
0.174251
0.200707
0.238732
0.278468
0.288463
0.28473
0.271665
0.249997
0.229766
0.221041
0.215844
0.209863
0.155871
0.155952
0.155966
0.155926
0.155801
0.155602
0.155561
0.155606
0.155706
0.155755
0.155782
0.155757
0.1557
0.155591
0.155457
0.155264
0.155087
0.154998
0.154945
0.15488
0.15477
0.154554
0.154282
0.153846
0.153277
0.15233
0.151602
0.151468
0.151868
0.153201
0.1569
0.168188
0.203953
0.284781
0.416592
0.484625
0.479218
0.452517
0.398116
0.323906
0.268814
0.245951
0.234001
0.221785
0.156359
0.156374
0.156295
0.156236
0.156127
0.156089
0.156096
0.156088
0.156057
0.156056
0.156034
0.155975
0.155877
0.155768
0.155683
0.155627
0.155536
0.155422
0.155311
0.155172
0.15499
0.154782
0.154479
0.154061
0.153505
0.152558
0.151816
0.151794
0.152235
0.154011
0.161088
0.189209
0.273702
0.461635
0.709566
0.764409
0.745955
0.689097
0.582287
0.438136
0.333437
0.290041
0.26733
0.244245
0.156867
0.156883
0.156933
0.156851
0.156724
0.156621
0.156476
0.156438
0.15647
0.156548
0.156601
0.156593
0.156567
0.156487
0.156347
0.156156
0.155975
0.155869
0.15577
0.155644
0.155478
0.155236
0.154895
0.154384
0.153741
0.152886
0.152265
0.152307
0.153171
0.156895
0.173252
0.230952
0.390776
0.707364
0.957305
0.996068
0.976009
0.909437
0.773231
0.574625
0.421609
0.354389
0.315397
0.277025
0.158097
0.158076
0.158024
0.157903
0.157741
0.157572
0.15762
0.157773
0.157888
0.157869
0.157769
0.15764
0.157517
0.157392
0.15727
0.157077
0.156966
0.156917
0.156846
0.156698
0.156444
0.156166
0.155775
0.155286
0.154634
0.153776
0.1535
0.154024
0.156496
0.165137
0.197143
0.299653
0.560023
0.930248
1.09767
1.12745
1.11644
1.06142
0.93358
0.723741
0.533442
0.440058
0.377619
0.320093
0.161754
0.161371
0.161125
0.16105
0.161114
0.16135
0.161655
0.161793
0.161771
0.161659
0.161548
0.16148
0.161446
0.161398
0.161353
0.16135
0.161307
0.161127
0.16079
0.160267
0.159599
0.158721
0.157879
0.157069
0.156209
0.155766
0.156065
0.158127
0.164442
0.182414
0.238269
0.398985
0.74368
1.05706
1.14028
1.15829
1.15766
1.13007
1.04537
0.881062
0.676118
0.550404
0.45496
0.371009
0.173467
0.171965
0.171193
0.171117
0.171724
0.172782
0.173701
0.174175
0.174243
0.174115
0.173903
0.173679
0.173479
0.173361
0.173465
0.173732
0.173903
0.173497
0.17254
0.171139
0.169415
0.167423
0.165501
0.163738
0.162397
0.162235
0.163406
0.16846
0.182066
0.214463
0.29974
0.512306
0.891074
1.11347
1.14501
1.14824
1.1521
1.14069
1.08777
0.968212
0.799112
0.650204
0.524127
0.422801
0.207479
0.203362
0.200761
0.200298
0.202086
0.205405
0.208399
0.209944
0.210166
0.209788
0.209262
0.208732
0.208183
0.207728
0.207882
0.2086
0.209409
0.208501
0.205434
0.200936
0.19584
0.190436
0.185706
0.181908
0.17898
0.178601
0.181121
0.191789
0.21681
0.268047
0.382239
0.626357
0.997002
1.15741
1.16086
1.14431
1.14261
1.13565
1.09072
0.991881
0.851312
0.699214
0.569238
0.47103
0.288287
0.280651
0.273715
0.27084
0.273906
0.281289
0.288348
0.292246
0.293282
0.293319
0.293391
0.293603
0.293548
0.293059
0.294206
0.296908
0.298839
0.296618
0.288414
0.276463
0.262954
0.248694
0.235787
0.225358
0.218199
0.216359
0.220417
0.237877
0.277303
0.34875
0.484358
0.731126
1.07771
1.21972
1.21323
1.16234
1.13579
1.12058
1.0775
0.986162
0.859784
0.724712
0.612966
0.527607
0.465115
0.454656
0.436758
0.422332
0.423677
0.436425
0.450925
0.460513
0.465483
0.468848
0.472385
0.476031
0.478552
0.478154
0.483287
0.492356
0.494668
0.484565
0.463152
0.435534
0.405621
0.375044
0.346272
0.321911
0.303407
0.294201
0.297693
0.320201
0.371941
0.457358
0.596788
0.817657
1.14301
1.30134
1.28351
1.19289
1.13406
1.10049
1.05194
0.97116
0.864077
0.755082
0.675313
0.615984
0.814555
0.803576
0.760512
0.712366
0.703108
0.721846
0.750045
0.773674
0.791685
0.80838
0.826147
0.843754
0.857601
0.85949
0.877793
0.904998
0.900591
0.856297
0.800136
0.739822
0.675417
0.611165
0.552282
0.50157
0.461138
0.434309
0.429949
0.451261
0.507079
0.592123
0.711857
0.890658
1.19295
1.42836
1.40377
1.25464
1.14678
1.09854
1.04428
0.970445
0.881602
0.819662
0.797709
0.783803
1.4083
1.3835
1.30147
1.20105
1.17922
1.20975
1.26361
1.31473
1.36375
1.42206
1.48357
1.54539
1.59894
1.61958
1.66878
1.73327
1.70251
1.56964
1.44876
1.33352
1.19308
1.04491
0.910275
0.799733
0.714436
0.652774
0.628164
0.639825
0.684118
0.746121
0.823846
0.955394
1.22596
1.56383
1.55299
1.34962
1.17519
1.10625
1.04787
0.986187
0.946344
0.96476
1.03597
1.09028
2.21444
2.14464
2.05329
1.9554
1.94811
2.01272
2.1148
2.21764
2.3224
2.46308
2.62967
2.79985
2.95657
3.05985
3.13993
3.22931
3.11105
2.85299
2.69225
2.55212
2.29297
1.94925
1.60708
1.32356
1.11488
0.97177
0.898002
0.886926
0.901283
0.912063
0.932752
1.01312
1.25605
1.69183
1.73858
1.50376
1.24558
1.1423
1.08266
1.06018
1.10044
1.24431
1.43844
1.55936
3.01216
2.99569
2.96578
2.95686
3.04616
3.24976
3.527
3.85158
4.21536
4.6279
5.02658
5.5493
6.04506
6.4193
6.46801
6.3641
5.85873
5.41853
5.19542
5.03744
4.61384
3.93075
3.16181
2.47455
1.91172
1.51457
1.27928
1.19484
1.15183
1.09095
1.05292
1.09014
1.30275
1.81291
1.95711
1.71904
1.37853
1.23763
1.19155
1.22543
1.38163
1.68413
1.95564
2.12508
3.89852
3.85201
3.88669
4.06348
4.39235
4.83569
5.37567
6.06571
6.8516
7.65535
8.24739
8.61893
9.70068
10.9819
12.0866
12.8969
13.5069
14.488
14.7186
13.8768
11.8133
9.17779
7.01541
5.45862
4.05001
2.92707
2.06367
1.65948
1.48607
1.32355
1.22693
1.23403
1.41071
1.93321
2.19037
1.97133
1.57471
1.39675
1.38104
1.48414
1.75504
2.13456
2.41719
2.63997
5.62037
5.47106
5.54861
5.79007
6.1158
6.49967
6.96506
7.62137
8.41674
9.53001
11.2864
12.689
13.5324
14.6345
15.7617
16.9808
18.4872
21.2126
26.5234
32.822
36.0232
28.0111
24.6534
18.5827
11.918
8.214
5.2426
2.70906
2.15772
1.77822
1.54854
1.48756
1.59676
2.04924
2.54061
2.38591
1.89039
1.6223
1.62544
1.79403
2.14537
2.56495
2.91301
3.27382
7.99819
7.67681
7.33567
6.87116
6.51456
6.38264
6.37395
6.43631
6.55332
6.78946
7.2926
7.31875
6.88125
6.28391
6.21639
6.32891
6.52243
7.02653
8.66781
12.5175
19.8539
29.4216
38.4732
61.6466
45.051
41.66
30.3719
7.48149
3.88447
2.84943
2.29766
2.0619
2.0736
2.43087
3.14115
3.11227
2.55019
2.07085
2.06103
2.29717
2.73016
3.19036
3.61648
4.13629
8.40917
8.85981
8.85967
8.52576
7.65421
6.30022
4.96584
4.17273
3.80391
3.70686
3.89064
4.49116
4.5608
4.25251
4.14703
4.23394
4.38975
4.5856
4.90844
5.34962
5.90593
6.89463
9.17565
17.1836
38.5725
63.65
148.533
94.7848
14.3289
6.32076
4.15032
3.4844
3.29214
3.46054
4.15088
4.31597
3.79262
2.99072
2.85867
3.08476
3.48764
3.77908
4.02829
4.2396
3.60955
4.13739
4.21676
4.10603
3.85008
3.54412
3.37311
3.35233
3.40612
3.56937
3.87772
4.30209
4.76694
5.00747
5.07295
5.12142
5.22534
5.44031
5.72137
5.74967
5.69513
5.69715
5.73404
6.09316
7.57297
9.93072
14.966
37.8747
110.121
45.4901
15.1345
8.73526
7.64051
7.09427
7.02902
6.81207
6.09979
4.9226
4.03547
3.78761
4.12679
4.29188
4.00919
3.34124
3.2545
3.48737
3.59569
3.62453
3.61659
3.59433
3.63049
3.78264
4.12893
4.69954
5.38866
5.84022
6.06493
6.18635
6.30113
6.42776
6.58626
6.70327
6.70829
6.61937
6.40429
6.17906
5.92267
5.75864
5.77429
5.93538
6.50596
8.03499
11.8849
22.0842
28.1028
14.1386
11.8915
12.6676
13.2462
11.7126
9.62959
7.90247
4.70388
4.24405
4.14328
3.93255
3.18754
2.04321
3.84456
3.92396
3.92429
3.9029
3.90955
4.00063
4.25857
4.67
5.1566
5.47258
5.6634
5.84837
6.08529
6.41179
6.79294
7.11083
7.38568
7.65301
7.9367
8.33321
8.51551
8.26107
7.38356
6.20695
6.00895
6.21707
6.72542
7.45102
7.98887
7.91506
7.87391
8.37357
9.27688
9.60168
10.2445
11.9709
14.2237
12.6985
5.97895
3.95556
3.54789
2.98174
1.99532
1.12426
4.23584
4.22389
4.21951
4.25091
4.37203
4.60472
4.92094
5.15349
5.29078
5.38004
5.53338
5.83343
6.27786
6.70878
7.08637
7.3118
7.4895
7.73006
8.07881
8.61335
9.16366
9.34619
8.96993
7.94231
7.60355
9.4198
10.2372
9.58285
8.44315
8.12238
8.12131
8.75167
10.4154
10.3534
10.9538
10.9785
10.9051
10.4649
5.70168
3.34351
2.55953
1.8828
1.17569
0.652337
4.24414
4.27099
4.40161
4.63483
4.74776
4.82374
4.92219
4.93917
4.94522
5.06928
5.39106
5.928
6.44011
6.72895
6.83955
6.97306
7.25248
7.71958
8.2505
8.74716
9.26052
9.62721
9.82389
9.66496
8.66861
8.35661
9.04018
11.9924
12.6627
10.2135
7.84363
7.75543
8.61938
8.66853
7.55081
7.72294
8.54373
8.45906
5.154
2.67728
1.81799
1.23337
0.715687
0.401297
4.15279
4.2844
4.50899
4.61356
4.65909
4.7212
4.7147
4.54849
4.60029
5.13562
5.92264
6.36218
6.48498
6.52949
6.60621
6.86482
7.69163
8.77972
9.07231
8.68936
8.79618
9.22968
9.97792
10.8704
10.8396
10.5267
10.9925
10.9334
10.5731
9.73666
7.72761
7.40053
7.78791
8.07301
7.88487
7.92172
7.96234
7.56668
4.50546
2.18352
1.33497
0.813058
0.456999
0.284982
3.99079
4.18865
4.34012
4.37632
4.40067
4.33429
4.2179
4.3992
5.21608
6.66625
6.87581
6.64411
6.94015
7.43668
8.17546
9.34599
11.8347
12.6474
11.5073
9.69089
8.92684
9.13881
9.7772
10.8871
11.2915
11.8571
13.1567
13.2982
12.4632
10.6081
8.21692
7.313
7.33484
7.43086
7.4954
7.63108
7.62518
6.92835
3.7701
1.76043
0.957112
0.534141
0.311841
0.223891
3.75012
3.9245
4.01565
4.07378
4.09056
4.16939
4.66148
5.59147
6.4984
7.623
7.51606
7.36928
8.12573
8.99096
10.0763
12.0958
14.5541
14.4303
12.0101
10.0013
9.54562
10.3712
10.3258
10.9137
11.1211
11.6548
12.8584
13.1375
12.6996
11.1497
8.79659
7.8007
7.3464
6.81269
6.75997
6.96345
7.28111
6.13946
3.06323
1.37118
0.670917
0.363277
0.238596
0.200317
3.35881
3.47733
3.58199
3.71191
3.89497
5.10634
6.34189
6.32027
5.88361
6.0073
6.34747
7.12396
8.83125
9.67716
10.3671
12.686
13.6014
10.5883
7.53349
7.72274
8.97861
11.242
11.6769
10.7405
10.7364
11.2361
12.5765
12.8863
12.266
10.9612
8.83794
7.98503
7.30751
6.9378
6.69949
6.82883
6.84118
5.1991
2.43393
1.01875
0.466228
0.267208
0.203459
0.188175
2.95754
3.05118
3.21778
3.42265
4.15792
5.20554
4.91179
3.68076
2.85332
2.88715
3.31057
4.22269
5.90658
5.67473
4.57708
4.91985
5.55585
4.95275
4.53687
4.89762
6.88637
10.8851
12.4077
10.6824
10.9236
11.3429
13.1959
13.0106
11.7264
9.96904
8.47745
7.63012
7.35625
7.75116
7.486
6.88828
6.26187
4.29608
1.85184
0.725951
0.334499
0.217464
0.188142
0.183892
2.76786
2.91557
3.02312
3.12657
3.77153
4.05599
3.21348
2.15624
1.69501
1.66879
1.93608
2.55038
2.97173
2.5585
1.81864
1.89311
2.20535
2.25523
2.34768
2.74448
3.95989
7.45399
10.6615
9.71736
10.7033
12.1123
13.686
13.3357
11.5644
9.03786
7.94663
7.72206
9.04034
10.7426
9.00508
6.58
5.58781
3.44146
1.3375
0.507151
0.255775
0.193288
0.181312
0.180929
2.62354
2.73272
2.74235
2.68703
2.75073
2.63368
2.10716
1.4562
1.08931
1.04013
1.20472
1.5854
1.6069
1.37033
0.997542
0.973737
1.03542
1.09581
1.18721
1.45255
2.17689
4.15737
6.68842
7.01377
9.53538
12.3882
13.5618
13.4129
11.2661
8.78586
8.24051
10.8078
20.1252
22.3598
9.89169
6.0744
4.86479
2.57717
0.919842
0.359451
0.212828
0.182242
0.178053
0.179436
2.44825
2.44724
2.3752
2.20837
2.02893
1.83619
1.45268
0.996122
0.729864
0.692992
0.80856
1.04925
1.0456
0.892451
0.669275
0.621474
0.626749
0.642666
0.684152
0.820032
1.22008
2.30089
4.05634
4.63231
7.48749
11.4744
12.8171
13.34
11.1212
9.8623
12.5033
29.9539
65.9425
30.1284
8.07152
5.52885
4.07618
1.78247
0.612041
0.268551
0.190697
0.177009
0.176304
0.178342
2.25365
2.17586
2.03962
1.82614
1.57246
1.34849
1.03289
0.700419
0.523738
0.507347
0.577458
0.740582
0.757741
0.662443
0.51231
0.46653
0.464625
0.462325
0.472532
0.524372
0.711914
1.24885
2.20815
2.89239
5.21434
9.89701
11.357
13.0373
11.1296
11.3638
15.7082
60.4341
61.4515
17.5441
6.20713
4.93491
3.15089
1.14705
0.408801
0.21762
0.180203
0.174687
0.175094
0.177382
2.0234
1.90406
1.72095
1.46955
1.21961
1.03338
0.795485
0.544911
0.414334
0.398478
0.438467
0.543713
0.596678
0.541446
0.43041
0.387274
0.384656
0.377232
0.376314
0.391988
0.470277
0.710299
1.1974
1.71776
3.32913
7.40116
9.99672
13.1773
11.4833
13.2594
29.9737
48.4908
24.2431
8.05235
5.27148
4.21078
2.08921
0.708555
0.288348
0.191633
0.175331
0.17326
0.174207
0.176376
1.74606
1.60946
1.4221
1.18956
0.949702
0.853418
0.707726
0.495453
0.382983
0.345228
0.357514
0.412124
0.478427
0.470363
0.395289
0.343919
0.335709
0.323448
0.319082
0.320359
0.360228
0.46196
0.694699
1.04589
1.91629
5.50932
9.5175
13.8836
11.9309
13.5609
24.9131
18.38
9.10131
5.50553
4.43366
3.22229
1.23823
0.440938
0.223959
0.179864
0.173095
0.172407
0.173502
0.175247
1.43138
1.30609
1.11932
0.879846
0.711554
0.666806
0.596159
0.483209
0.428386
0.325347
0.286912
0.307231
0.386499
0.433024
0.371053
0.322768
0.311255
0.290982
0.282463
0.274845
0.300284
0.354949
0.459202
0.6854
1.15832
3.88178
9.57387
13.9815
12.0048
8.49368
11.7701
8.04052
5.53698
4.21667
3.51092
2.0086
0.711027
0.295642
0.192663
0.174948
0.171933
0.171784
0.172824
0.174101
1.05446
0.932215
0.741176
0.512829
0.392182
0.36951
0.361241
0.340229
0.28862
0.228167
0.227841
0.238032
0.265292
0.267131
0.25617
0.25301
0.245213
0.231278
0.223671
0.221767
0.247137
0.293629
0.359988
0.481053
0.792228
2.35353
9.13476
12.8815
10.4571
6.07749
6.64315
5.25211
3.95587
3.06073
2.3658
1.11617
0.42298
0.223928
0.179179
0.172727
0.171203
0.171232
0.172188
0.172935
0.678648
0.565552
0.42058
0.305452
0.249312
0.230585
0.214164
0.191283
0.193174
0.195716
0.19666
0.204769
0.221562
0.214668
0.201436
0.200793
0.199693
0.194045
0.190669
0.189862
0.200044
0.239282
0.293005
0.375061
0.561376
1.44472
5.56124
8.63011
8.31476
5.35624
4.805
3.8323
2.78614
1.99452
1.34415
0.619076
0.280719
0.190935
0.174494
0.171545
0.170631
0.170683
0.171523
0.171718
0.432594
0.356796
0.268808
0.216932
0.19326
0.184944
0.179815
0.171516
0.168594
0.165993
0.165652
0.168268
0.177609
0.180463
0.17992
0.185338
0.18431
0.17938
0.177202
0.17685
0.180891
0.196171
0.241857
0.306157
0.422265
0.956929
3.07148
6.56148
7.81884
4.62906
3.6894
2.74757
1.84314
1.20092
0.746886
0.369607
0.21494
0.177434
0.172506
0.170731
0.170081
0.170123
0.17077
0.17063
0.290805
0.246533
0.200506
0.18227
0.171842
0.168042
0.165985
0.162673
0.16057
0.160254
0.16138
0.162131
0.16437
0.164952
0.164616
0.166452
0.169659
0.170027
0.169833
0.168983
0.171553
0.180652
0.201875
0.249631
0.332339
0.636209
1.90101
5.42241
8.36328
3.89887
2.76956
1.8784
1.14623
0.704201
0.435175
0.253967
0.185897
0.173432
0.171192
0.170024
0.169529
0.169534
0.169925
0.169576
0.21686
0.193003
0.173452
0.165697
0.163028
0.161547
0.160388
0.158658
0.158788
0.159245
0.159836
0.159346
0.159917
0.159484
0.159807
0.160744
0.162854
0.163479
0.163923
0.164206
0.166433
0.171747
0.184878
0.209618
0.271374
0.452429
1.23794
3.76824
6.23274
3.0983
1.94935
1.20926
0.694814
0.428972
0.286043
0.202623
0.174805
0.171771
0.170122
0.169345
0.16896
0.168915
0.169017
0.168519
0.181397
0.17043
0.16349
0.161121
0.160176
0.160037
0.160069
0.159161
0.157746
0.157475
0.157008
0.156749
0.15745
0.157991
0.157843
0.158023
0.15876
0.15921
0.159816
0.1607
0.162321
0.165111
0.174107
0.189139
0.226542
0.337806
0.808076
2.3997
3.73108
2.23598
1.24597
0.746272
0.433958
0.289888
0.218489
0.180566
0.172
0.170466
0.169191
0.168664
0.168358
0.168255
0.168082
0.167506
0.166203
0.161169
0.159298
0.158319
0.158467
0.158369
0.158101
0.15754
0.156608
0.156746
0.156497
0.156534
0.156119
0.156273
0.156477
0.156878
0.157378
0.157928
0.158642
0.159698
0.160765
0.162157
0.166706
0.176245
0.19963
0.269426
0.508022
1.44973
2.40657
1.33048
0.739461
0.464289
0.296375
0.223464
0.188301
0.172573
0.170666
0.169328
0.168358
0.167977
0.167713
0.167552
0.167185
0.166532
0.159681
0.15766
0.157131
0.156987
0.157375
0.1571
0.156848
0.156209
0.155873
0.155933
0.155574
0.155368
0.155272
0.155516
0.155536
0.155852
0.156298
0.157012
0.157724
0.158708
0.15944
0.160659
0.162815
0.167587
0.18211
0.22448
0.345922
0.795709
1.32935
0.728614
0.439876
0.310852
0.228234
0.192168
0.175045
0.170706
0.16938
0.168292
0.16758
0.167275
0.167013
0.16679
0.166276
0.165539
0.15735
0.156147
0.155955
0.156166
0.15634
0.156235
0.156224
0.155554
0.155438
0.155276
0.155031
0.15485
0.154664
0.15485
0.154928
0.155159
0.155613
0.156217
0.156881
0.15779
0.158644
0.159831
0.161306
0.16444
0.1721
0.19735
0.261171
0.446303
0.686535
0.416588
0.289274
0.233789
0.195011
0.177252
0.170514
0.169542
0.168178
0.167352
0.166843
0.166557
0.166257
0.165995
0.165395
0.164595
0.156264
0.155399
0.155246
0.155398
0.155646
0.155576
0.155553
0.154932
0.154554
0.154353
0.154391
0.154205
0.154115
0.154394
0.154448
0.154682
0.15504
0.155623
0.156325
0.157206
0.157869
0.15866
0.160293
0.162852
0.166768
0.179838
0.216044
0.289714
0.375486
0.26789
0.219921
0.196397
0.178719
0.170753
0.169247
0.168281
0.167074
0.166475
0.166118
0.165824
0.165455
0.165174
0.164511
0.163646
0.155548
0.154776
0.154687
0.154945
0.154881
0.15477
0.154864
0.154191
0.154126
0.15389
0.153884
0.15365
0.153548
0.153652
0.153727
0.153911
0.154242
0.154822
0.155419
0.156189
0.156975
0.157976
0.159418
0.161851
0.164862
0.169815
0.189376
0.222776
0.248784
0.204068
0.188453
0.17862
0.171236
0.168604
0.168084
0.167049
0.166079
0.165655
0.165399
0.165078
0.164662
0.164338
0.163663
0.162776
0.155093
0.1543
0.154214
0.154392
0.154409
0.154335
0.15442
0.153762
0.153544
0.153275
0.153355
0.153143
0.153165
0.153292
0.153396
0.153536
0.153791
0.15428
0.154854
0.155585
0.156297
0.157151
0.158573
0.16078
0.163644
0.165818
0.173566
0.191825
0.202387
0.178268
0.174585
0.170876
0.168234
0.167373
0.166781
0.165914
0.165153
0.164862
0.164676
0.164316
0.163873
0.163489
0.162807
0.161907
0.154689
0.153946
0.153803
0.153887
0.153885
0.153708
0.153714
0.153098
0.153057
0.152835
0.15287
0.152622
0.15261
0.15263
0.152779
0.152918
0.153161
0.153649
0.154191
0.154878
0.155594
0.156479
0.157823
0.159747
0.162315
0.16445
0.16671
0.174692
0.183256
0.169563
0.168876
0.167789
0.166566
0.166071
0.165498
0.164879
0.164304
0.164106
0.16394
0.163536
0.163128
0.162658
0.161988
0.161099
0.154253
0.153576
0.153383
0.153381
0.153385
0.153176
0.153229
0.152732
0.152584
0.152326
0.152372
0.152115
0.152154
0.152139
0.152349
0.152422
0.152663
0.1531
0.153621
0.154269
0.154955
0.155796
0.157104
0.158798
0.160984
0.163053
0.165337
0.166717
0.170139
0.166369
0.166785
0.165982
0.165136
0.164767
0.16436
0.163907
0.16349
0.163355
0.163186
0.162736
0.162382
0.161873
0.161206
0.160341
0.153777
0.153185
0.152981
0.15288
0.152814
0.152598
0.15266
0.152241
0.15208
0.151855
0.151951
0.151677
0.151773
0.151635
0.151904
0.151915
0.152188
0.152579
0.15309
0.153686
0.154348
0.155153
0.156373
0.157908
0.159774
0.161464
0.163329
0.164478
0.163767
0.164268
0.164908
0.164231
0.163695
0.163478
0.163246
0.162973
0.162708
0.162606
0.162415
0.161934
0.161638
0.161142
0.160465
0.159603
0.15323
0.15272
0.152519
0.152383
0.152391
0.152235
0.15232
0.152021
0.15185
0.151605
0.15168
0.15141
0.151526
0.15129
0.151631
0.151526
0.151829
0.152139
0.152628
0.153165
0.153803
0.154562
0.15565
0.157026
0.158654
0.160102
0.161519
0.162439
0.161465
0.162799
0.163139
0.16275
0.162479
0.162411
0.162295
0.16214
0.161954
0.16185
0.161633
0.16115
0.160898
0.160416
0.159729
0.158851
0.152955
0.152468
0.152331
0.152257
0.152297
0.152144
0.152191
0.151919
0.151725
0.151449
0.151481
0.151254
0.151269
0.151105
0.15137
0.151259
0.151542
0.151782
0.152237
0.152706
0.153328
0.154059
0.155052
0.156219
0.157583
0.158853
0.159983
0.16071
0.159617
0.161385
0.161509
0.161328
0.161289
0.161324
0.161328
0.161292
0.161181
0.161057
0.160866
0.160431
0.160157
0.15968
0.158967
0.15804
0.152885
0.152475
0.152324
0.152219
0.152237
0.152027
0.152028
0.151748
0.151518
0.151286
0.151281
0.151102
0.151025
0.150965
0.151133
0.151083
0.15131
0.15152
0.151939
0.152347
0.152931
0.15365
0.15456
0.15553
0.156588
0.15764
0.158601
0.159416
0.15835
0.160142
0.160193
0.160186
0.160274
0.160413
0.160501
0.160522
0.160437
0.160294
0.160141
0.159728
0.159384
0.158867
0.15813
0.157285
0.152922
0.152493
0.152293
0.152135
0.152099
0.151861
0.151789
0.151506
0.151311
0.15117
0.151094
0.150968
0.150837
0.150844
0.150972
0.150955
0.151167
0.151349
0.151746
0.152117
0.152654
0.153274
0.154116
0.154968
0.155801
0.156622
0.157279
0.158203
0.157126
0.158885
0.158933
0.159187
0.159351
0.159533
0.15967
0.159719
0.159623
0.15945
0.159322
0.158929
0.158532
0.158092
0.157522
0.156875
0.15234
0.151854
0.1516
0.151396
0.151295
0.151096
0.150957