/*--------------------------------*- C++ -*----------------------------------*\
| =========                 |                                                 |
| \\      /  F ield         | OpenFOAM: The Open Source CFD Toolbox           |
|  \\    /   O peration     | Version:  v1912                                 |
|   \\  /    A nd           | Website:  www.openfoam.com                      |
|    \\/     M anipulation  |                                                 |
\*---------------------------------------------------------------------------*/
FoamFile
{
    version     2.0;
    format      ascii;
    class       volScalarField;
    location    "60";
    object      alpha.water;
}
// * * * * * * * * * * * * * * * * * * * * * * * * * * * * * * * * * * * * * //

dimensions      [0 0 0 0 0 0 0];


internalField   nonuniform List<scalar> 
14268
(
1
1
1
1
1
1
1
1
1
1
1
1
1
1
1
1
1
1
1
1
1
1
1
1
1
1
1
1
1
1
1
1
1
1
1
1
1
1
1
1
1
1
1
1
1
1
1
1
1
1
1
1
1
1
1
1
1
1
1
1
1
1
1
1
1
1
1
1
1
1
1
1
1
1
1
1
1
1
1
1
1
1
1
1
1
1
1
1
1
1
1
1
1
1
1
1
1
1
1
1
1
1
1
1
1
1
1
1
1
1
1
1
1
1
1
1
1
1
1
1
1
1
1
1
1
1
1
1
1
1
1
1
1
1
1
1
1
1
1
1
1
1
1
1
1
1
1
1
1
1
1
1
1
1
1
1
1
1
1
1
1
1
1
1
1
1
1
1
1
1
1
1
1
1
1
1
1
1
1
1
1
1
1
1
1
1
1
1
1
1
1
1
1
1
1
1
1
1
1
1
1
1
1
1
1
1
1
1
1
1
1
1
1
1
1
1
1
1
1
1
1
1
1
1
1
1
1
1
1
1
1
1
1
1
1
1
1
1
1
1
1
1
1
1
1
1
1
1
1
1
1
1
1
1
1
1
1
1
1
1
1
1
1
1
1
1
1
1
1
1
1
1
1
1
1
1
1
1
1
1
1
1
1
1
1
1
1
1
1
1
1
1
1
1
1
1
1
1
1
1
1
1
1
1
1
1
1
1
1
1
1
1
1
1
1
1
1
1
1
1
1
1
1
1
1
1
1
1
1
1
1
1
1
1
1
1
1
1
1
1
1
1
1
1
1
1
1
1
1
1
1
1
1
1
1
1
1
1
1
1
1
1
1
1
1
1
1
1
1
1
1
1
1
1
1
1
1
1
1
1
1
1
1
1
1
1
1
1
1
1
1
1
1
1
1
1
1
1
1
1
1
1
1
1
1
1
1
1
1
1
1
1
1
1
1
1
1
1
1
1
1
1
1
1
1
1
1
1
1
1
1
1
1
1
1
1
1
1
1
1
1
1
1
1
1
1
1
1
1
1
1
1
1
1
1
1
1
1
1
1
1
1
1
1
1
1
1
1
1
1
1
1
1
1
1
1
1
1
1
1
1
1
1
1
1
1
1
1
1
1
1
1
1
1
1
1
1
1
1
1
1
1
1
1
1
1
1
1
1
1
1
1
1
1
1
1
1
1
1
1
1
1
1
1
1
1
1
1
1
1
1
1
1
1
1
1
1
1
1
1
1
1
1
1
1
1
1
1
1
1
1
1
1
1
1
1
1
1
1
1
1
1
1
1
1
1
1
1
1
1
1
1
1
1
1
1
1
1
1
1
1
1
1
1
1
1
1
1
1
1
1
1
1
1
1
1
1
1
1
1
1
1
1
1
1
1
1
1
1
1
1
1
1
1
1
1
1
1
1
1
1
1
1
1
1
1
1
1
1
1
1
1
1
1
1
1
1
1
1
1
1
1
1
1
1
1
1
1
1
1
1
1
1
1
1
1
1
1
1
1
1
1
1
1
1
1
1
1
1
1
1
1
1
1
1
1
1
1
1
1
1
1
1
1
1
1
1
1
1
1
1
1
1
1
1
1
1
1
1
1
1
1
1
1
1
1
1
1
1
1
1
1
1
1
1
1
1
1
1
1
1
1
1
1
1
1
1
1
1
1
1
1
1
1
1
1
1
1
1
1
1
1
1
1
1
1
1
1
1
1
1
1
1
1
1
1
1
1
1
1
1
1
1
1
1
1
1
1
1
1
1
1
1
1
1
1
1
1
1
1
1
1
1
1
1
1
1
1
1
1
1
1
1
1
1
1
1
1
1
1
1
1
1
1
1
1
1
1
1
1
1
1
1
1
1
1
1
1
1
1
1
1
1
1
1
1
1
1
1
1
1
1
1
1
1
1
1
1
1
1
1
1
1
1
1
1
1
1
1
1
1
1
1
1
1
1
1
1
1
1
1
1
1
1
1
1
1
1
1
1
1
1
1
1
1
1
1
1
1
1
1
1
1
1
1
1
1
1
1
1
1
1
1
1
1
1
1
1
1
1
1
1
1
1
1
1
1
1
1
1
1
1
1
1
1
1
1
1
1
1
1
1
1
1
1
1
1
1
1
1
1
1
1
1
1
1
1
1
1
1
1
1
1
1
1
1
1
1
1
1
1
1
1
1
1
1
1
1
1
1
1
1
1
1
1
1
1
1
1
1
1
1
1
1
1
1
1
1
1
1
1
1
1
1
1
1
1
1
1
1
1
1
1
1
1
1
1
1
1
1
1
1
1
1
1
1
1
1
1
1
1
1
1
1
1
1
1
1
1
1
1
1
1
1
1
1
1
1
1
1
1
1
1
1
1
1
1
1
1
1
1
1
1
1
1
1
1
1
1
1
1
1
1
1
1
1
1
1
1
1
1
1
1
1
1
1
1
1
1
1
1
1
1
1
1
1
1
1
1
1
1
1
1
1
1
1
1
1
1
1
1
1
1
1
1
1
1
1
1
1
1
1
1
1
1
1
1
1
1
1
1
1
1
1
1
1
1
1
1
1
1
1
1
1
1
1
1
1
1
1
1
1
1
1
1
1
1
1
1
1
1
1
1
1
1
1
1
1
1
1
1
1
1
1
1
1
1
1
1
1
1
1
1
1
1
1
1
1
1
1
1
1
1
1
1
1
1
1
1
1
1
1
1
1
1
1
1
1
1
1
1
1
1
1
1
1
1
1
1
1
1
1
1
1
1
1
1
1
1
1
1
1
1
1
1
1
1
1
1
1
1
1
1
1
1
1
1
1
1
1
1
1
1
1
1
1
1
1
1
1
1
1
1
1
1
1
1
1
1
1
1
1
1
1
1
1
1
1
1
1
1
1
1
1
1
1
1
1
1
1
1
1
1
1
1
1
1
1
1
1
1
1
1
1
1
1
1
1
1
1
1
1
1
1
1
1
1
1
1
1
1
1
1
1
1
1
1
1
1
1
1
1
1
1
1
1
1
1
1
1
1
1
1
1
1
1
1
1
1
1
1
1
1
1
1
1
1
1
1
1
1
1
1
1
1
1
1
1
1
1
1
1
1
1
1
1
1
1
1
1
1
1
1
1
1
1
1
1
1
1
1
1
1
1
1
1
1
1
1
1
1
1
1
1
1
1
1
1
1
1
1
1
1
1
1
1
1
1
1
1
1
1
1
1
1
1
1
1
1
1
1
1
1
1
1
1
1
1
1
1
1
1
1
1
1
1
1
1
1
1
1
1
1
1
1
1
1
1
1
1
1
1
1
1
1
1
1
1
1
1
1
1
1
1
1
1
1
1
1
1
1
1
1
1
1
1
1
1
1
1
1
1
1
1
1
1
1
1
1
1
1
1
1
1
1
1
1
1
1
1
1
1
1
1
1
1
1
1
1
1
1
1
1
1
1
1
1
1
1
1
1
1
1
1
1
1
1
1
1
1
1
1
1
1
1
1
1
1
1
1
1
1
1
1
1
1
1
1
1
1
1
1
1
1
1
1
1
1
1
1
1
1
1
1
1
1
1
1
1
1
1
1
1
1
1
1
1
1
1
1
1
1
1
1
1
1
1
1
1
1
1
1
1
1
1
1
1
1
1
1
1
1
1
1
1
1
1
1
1
1
1
1
1
1
1
1
1
1
1
1
1
1
1
1
1
1
1
1
1
1
1
1
1
1
1
1
1
1
1
1
1
1
1
1
1
1
1
1
1
1
1
1
1
1
1
1
1
1
1
1
1
1
1
1
1
1
1
1
1
1
1
1
1
1
1
1
1
1
1
1
1
1
1
1
1
1
1
1
1
1
1
1
1
1
1
1
1
1
1
1
1
1
1
1
1
1
1
1
1
1
1
1
1
1
1
1
1
1
1
1
1
1
1
1
1
1
1
1
1
1
1
1
1
1
1
1
1
1
1
1
1
1
1
1
1
1
1
1
1
1
1
1
1
1
1
1
1
1
1
1
1
1
1
1
1
1
1
1
1
1
1
1
1
1
1
1
1
1
1
1
1
1
1
1
1
1
1
1
1
1
1
1
1
1
1
1
1
1
1
1
1
1
1
1
1
1
1
1
1
1
1
1
1
1
1
1
1
1
1
1
1
1
1
1
1
1
1
1
1
1
1
1
1
1
1
1
1
1
1
1
1
1
1
1
1
1
1
1
1
1
1
1
1
1
1
1
1
1
1
1
1
1
1
1
1
1
1
1
1
1
1
1
1
1
1
1
1
1
1
1
1
1
1
1
1
1
1
1
1
1
1
1
1
1
1
1
1
1
1
1
1
1
1
1
1
1
1
1
1
1
1
1
1
1
1
1
1
1
1
1
1
1
1
1
1
1
1
1
1
1
1
1
1
1
1
1
1
1
1
1
1
1
1
1
1
1
1
1
1
1
1
1
1
1
1
1
1
1
1
1
1
1
1
1
1
1
1
1
1
1
1
1
1
1
1
1
1
1
1
1
1
1
1
1
1
1
1
1
1
1
1
1
1
1
1
1
1
1
1
1
1
1
1
1
1
1
1
1
1
1
1
1
1
1
1
1
1
1
1
1
1
1
1
1
1
1
1
1
1
1
1
1
1
1
1
1
1
1
1
1
1
1
1
1
1
1
1
1
1
1
1
1
1
1
1
1
1
1
1
1
1
1
1
1
1
1
1
1
1
1
1
1
1
1
1
1
1
1
1
1
1
1
1
1
1
1
1
1
1
1
1
1
1
1
1
1
1
1
1
1
1
1
1
1
1
1
1
1
1
1
1
1
1
1
1
1
1
1
1
1
1
1
1
1
1
1
1
1
1
1
1
1
1
1
1
1
1
1
1
1
1
1
1
1
1
1
1
1
1
1
1
1
1
1
1
1
1
1
1
1
1
1
1
1
1
1
1
1
1
1
1
1
1
1
1
1
1
1
1
1
1
1
1
1
1
1
1
1
1
1
1
1
1
1
1
1
1
1
1
1
1
1
1
1
1
1
1
1
1
1
1
1
1
1
1
1
1
1
1
1
1
1
1
1
1
1
1
1
1
1
1
1
1
1
1
1
1
1
1
1
1
1
1
1
1
1
1
1
1
1
1
1
1
1
1
1
1
1
1
1
1
1
1
1
1
1
1
1
1
1
1
1
1
1
1
1
1
1
1
1
1
1
1
1
1
1
1
1
1
1
1
1
1
1
1
1
1
1
1
1
1
1
1
1
1
1
1
1
1
1
1
1
1
1
1
1
1
1
1
1
1
1
1
1
1
1
1
1
1
1
1
1
1
1
1
1
1
1
1
1
1
1
1
1
1
1
1
1
1
1
1
1
1
1
1
1
1
1
1
1
1
1
1
1
1
1
1
1
1
1
1
1
1
1
1
1
1
1
1
1
1
1
1
1
1
1
1
1
1
1
1
1
1
1
1
1
1
1
1
1
1
1
1
1
1
1
1
1
1
1
1
1
1
1
1
1
1
1
0.999995
1
1
1
1
1
1
1
1
1
1
1
1
1
1
1
1
1
1
1
1
1
1
1
1
1
1
1
1
1
1
1
1
1
1
1
1
1
1
1
1
1
1
1
1
1
1
1
1
1
1
1
1
1
1
1
1
1
1
1
1
1
1
1
1
1
1
1
1
1
1
1
1
1
1
1
1
1
1
1
1
1
1
1
1
1
0.96358
0.877232
0.824026
0.872877
0.948574
0.997477
1
1
1
1
1
1
1
1
1
1
1
1
1
1
1
1
1
1
1
1
1
1
1
1
1
1
1
1
1
1
1
1
1
1
1
1
1
1
1
1
1
1
1
1
1
1
1
1
1
1
1
1
1
1
1
1
1
1
1
1
1
1
1
1
1
1
1
1
1
1
1
1
1
1
1
1
1
1
1
1
0.410612
0.212459
0.174862
0.248577
0.439842
0.724405
0.926335
0.999974
1
1
1
1
1
1
1
1
1
1
1
1
1
1
1
1
1
1
1
1
1
1
1
1
1
1
1
1
1
1
1
1
1
1
1
1
1
1
1
1
1
1
1
1
0.999999
0.999998
0.999993
0.999975
0.999899
0.999617
0.998543
0.995328
0.986846
0.968806
0.944058
0.922101
0.916005
0.926114
0.949517
0.976198
0.997064
1
1
1
1
1
1
1
1
1
1
1
1
1
1
1
1
1
0.0246224
0.00286933
0.00515821
0.00880686
0.026742
0.109546
0.398347
0.781433
0.968913
1
1
1
1
1
1
1
1
1
1
1
1
1
1
1
1
1
1
1
1
1
1
1
1
1
1
1
1
1
1
1
1
1
1
1
1
1
0.999999
0.999999
0.999998
0.999998
0.999996
0.999992
0.999983
0.999954
0.999852
0.999502
0.998137
0.992584
0.968123
0.89302
0.73518
0.573712
0.46418
0.402596
0.388997
0.416546
0.48526
0.588753
0.726844
0.85776
0.956796
1
1
1
1
1
1
1
1
1
1
1
1
1
1
1
4.41596e-05
6.90583e-05
0.000118869
0.000206159
0.000608933
0.00283455
0.0207692
0.146263
0.551241
0.892326
0.999887
1
1
1
1
1
1
1
1
1
1
1
1
1
1
1
1
1
1
1
1
1
1
1
1
1
1
1
1
1
1
1
1
0.999999
0.999998
0.999994
0.999986
0.999976
0.999961
0.999943
0.999912
0.999844
0.999688
0.999214
0.997548
0.9909
0.956651
0.822619
0.545339
0.29839
0.149996
0.0742414
0.0381503
0.022658
0.0197791
0.0230994
0.0327355
0.0559162
0.114952
0.267055
0.51309
0.795913
0.961706
1
1
1
1
1
1
1
1
1
1
1
1
1
1.28544e-06
2.15894e-06
3.71842e-06
6.0727e-06
1.5619e-05
7.06381e-05
0.000475289
0.00412204
0.0446443
0.326755
0.776789
0.979313
1
1
1
1
1
1
1
1
1
1
1
1
1
1
1
1
1
1
1
1
1
1
1
1
1
1
1
1
1
1
0.999998
0.999991
0.999964
0.999894
0.999766
0.99959
0.999351
0.999035
0.998532
0.997443
0.994635
0.984775
0.94275
0.78508
0.481115
0.20902
0.0653161
0.0068378
0.000742271
0.000783758
0.000765606
0.000747094
0.000751141
0.000863808
0.00118255
0.00194686
0.00389141
0.0103544
0.0390044
0.172809
0.530889
0.88265
1
1
1
1
1
1
1
1
1
1
1
1
4.18061e-08
7.67011e-08
1.39781e-07
2.42938e-07
5.71189e-07
2.21646e-06
1.30811e-05
0.00010627
0.00107564
0.013442
0.146791
0.603272
0.927858
1
1
1
1
1
1
1
1
1
1
1
1
1
1
1
1
1
1
1
1
1
1
1
1
1
1
1
1
0.999997
0.999978
0.999867
0.999439
0.998283
0.995996
0.992421
0.987414
0.980222
0.967782
0.940036
0.866838
0.686296
0.422097
0.181168
0.0442476
4.96527e-05
3.71976e-05
3.19262e-05
3.06091e-05
3.36269e-05
3.28467e-05
3.17181e-05
3.34848e-05
3.82274e-05
5.25534e-05
8.61222e-05
0.000162143
0.000388981
0.00128717
0.00600961
0.0433455
0.315712
0.806256
0.999384
1
1
1
1
1
1
1
1
1
1
1.67937e-09
3.30436e-09
6.25128e-09
1.11763e-08
2.47571e-08
8.86554e-08
4.7408e-07
3.31917e-06
3.05312e-05
0.000336972
0.00421612
0.0586029
0.422534
0.851203
0.997954
1
1
1
1
1
1
1
1
1
1
1
1
1
1
1
1
1
1
1
1
1
1
1
1
1
0.999996
0.999963
0.99969
0.997998
0.989657
0.959863
0.895923
0.804199
0.713396
0.628861
0.532606
0.408274
0.254412
0.123263
0.0281439
1.71435e-06
1.46778e-06
1.28137e-06
1.44963e-06
1.32639e-06
1.14671e-06
1.44506e-06
1.47927e-06
1.32107e-06
1.49011e-06
1.66049e-06
2.2206e-06
3.67726e-06
6.70299e-06
1.56529e-05
5.02501e-05
0.000213966
0.00134181
0.0143296
0.184959
0.761154
0.999217
1
1
1
1
1
1
1
1
1
9.98435e-11
1.6585e-10
3.01685e-10
5.3963e-10
1.16212e-09
3.90373e-09
1.9483e-08
1.28244e-07
1.0514e-06
1.03182e-05
0.000118262
0.00153115
0.0235601
0.25651
0.736864
0.971954
1
1
1
0.999993
0.999965
0.999871
0.999405
0.996803
0.98246
0.930592
0.865148
0.866644
0.936517
0.999043
1
1
1
1
1
1
1
1
0.999999
0.999995
0.999955
0.999536
0.995454
0.956845
0.757384
0.487374
0.296292
0.188746
0.134088
0.0943291
0.0580489
0.0240853
0.00167097
8.83599e-08
7.01199e-08
6.77122e-08
6.95671e-08
4.69461e-08
5.30458e-08
6.66007e-08
5.46873e-08
6.08484e-08
7.25238e-08
6.34772e-08
7.04445e-08
7.88631e-08
1.01414e-07
1.71958e-07
3.09369e-07
6.94514e-07
2.06561e-06
7.91041e-06
4.56407e-05
0.00043963
0.00684293
0.139495
0.75841
0.999961
1
1
1
1
1
1
1
1
1.18172e-11
1.44527e-11
2.15768e-11
3.4668e-11
6.72658e-11
1.89071e-10
8.27843e-10
5.13484e-09
4.01489e-08
3.69625e-07
3.84101e-06
4.58995e-05
0.000621394
0.00931884
0.122626
0.567267
0.90461
0.998638
0.999531
0.999182
0.998585
0.996875
0.987803
0.931198
0.692508
0.41823
0.277088
0.27924
0.441673
0.756447
0.97533
0.999999
0.999999
0.999999
0.999999
0.999999
0.999999
0.999998
0.999994
0.999953
0.999496
0.993563
0.900601
0.482238
0.161631
0.0439923
0.00525167
1.59749e-08
1.14151e-08
8.41565e-09
6.36019e-09
4.76044e-09
4.02441e-09
3.87162e-09
3.00806e-09
2.78583e-09
3.76964e-09
2.73502e-09
2.6706e-09
3.51239e-09
3.06232e-09
3.18222e-09
3.89848e-09
3.41528e-09
3.67334e-09
4.01232e-09
4.885e-09
8.01762e-09
1.46457e-08
3.34403e-08
9.94135e-08
3.51099e-07
1.70977e-06
1.43063e-05
0.000211273
0.00481735
0.139012
0.79271
1
1
1
1
1
1
1
0.999999
1.04446e-12
1.33514e-12
2.07208e-12
3.27464e-12
6.03503e-12
1.41566e-11
4.42307e-11
2.08152e-10
1.46755e-09
1.29827e-08
1.33469e-07
1.50209e-06
1.90594e-05
0.000263229
0.00367864
0.0505671
0.359513
0.748471
0.916187
0.962642
0.967931
0.929824
0.742598
0.39124
0.129218
0.0312005
0.0107711
0.0108027
0.0261091
0.133603
0.581101
0.958548
0.999993
0.999993
0.999993
0.999993
0.999992
0.999986
0.999942
0.999523
0.993771
0.871566
0.322739
0.0431205
2.7841e-09
2.12306e-09
1.49767e-09
9.57588e-10
5.68218e-10
3.51022e-10
2.52721e-10
1.86954e-10
1.604e-10
1.88953e-10
2.08764e-10
1.90687e-10
3.12054e-10
2.75525e-10
2.25046e-10
2.78495e-10
2.4408e-10
2.36834e-10
2.73767e-10
2.34794e-10
2.44494e-10
2.59017e-10
2.92645e-10
4.41991e-10
7.84407e-10
1.76162e-09
5.1435e-09
1.74161e-08
7.89987e-08
5.7898e-07
7.11318e-06
0.000150849
0.00474379
0.176173
0.840722
0.999998
0.999998
0.999997
0.999997
0.999997
0.999997
0.999994
7.68292e-14
1.05646e-13
1.79731e-13
2.88835e-13
5.34028e-13
1.24642e-12
3.62137e-12
1.27085e-11
5.81641e-11
4.14362e-10
4.13249e-09
4.58131e-08
5.66949e-07
7.53035e-06
0.000101289
0.00131114
0.0158731
0.12706
0.398045
0.562336
0.556115
0.39439
0.162924
0.0232899
0.00072634
0.000517148
0.000392392
0.000374252
0.000867686
0.00460242
0.0545084
0.517842
0.958553
0.999943
0.999942
0.99994
0.999938
0.999883
0.999468
0.99483
0.891287
0.288129
0.00945005
1.45559e-10
1.41908e-10
1.41886e-10
1.88239e-10
2.52306e-10
2.69483e-10
2.30119e-10
1.99847e-10
1.87523e-10
1.50853e-10
1.49902e-10
1.39247e-10
1.06237e-10
1.36965e-10
1.01921e-10
6.87728e-11
7.11307e-11
5.7449e-11
5.02281e-11
5.10523e-11
4.31125e-11
4.29224e-11
4.37275e-11
4.50518e-11
5.50814e-11
7.66486e-11
1.3192e-10
3.15229e-10
9.58885e-10
4.05744e-09
2.80996e-08
3.15604e-07
5.41552e-06
0.000156916
0.00617289
0.252432
0.882457
0.99998
0.999976
0.999972
0.99997
0.999967
0.99994
3.83965e-15
5.5402e-15
1.12489e-14
1.91211e-14
3.6409e-14
8.85426e-14
2.7482e-13
1.00925e-12
4.03817e-12
1.84338e-11
1.28519e-10
1.25618e-09
1.45398e-08
1.83289e-07
2.36913e-06
3.11914e-05
0.00034145
0.00312004
0.0208494
0.0635201
0.0741
0.0281433
0.00017909
3.18633e-05
2.17892e-05
1.61447e-05
1.26206e-05
1.21419e-05
2.74704e-05
0.000153533
0.00179616
0.0419051
0.525202
0.965925
0.999513
0.999498
0.999476
0.998984
0.994695
0.921332
0.338733
0.00756784
1.72582e-10
1.45943e-10
1.56484e-10
1.41865e-10
1.43941e-10
1.492e-10
1.45609e-10
1.45378e-10
1.35596e-10
1.48732e-10
1.17025e-10
1.05341e-10
8.38586e-11
5.41323e-11
5.37741e-11
3.66073e-11
2.76422e-11
2.8509e-11
2.5527e-11
2.36016e-11
2.22482e-11
1.90787e-11
1.83229e-11
1.83081e-11
1.84832e-11
1.9919e-11
2.21419e-11
2.70119e-11
4.17119e-11
8.22183e-11
2.45601e-10
1.43691e-09
1.55148e-08
2.55544e-07
6.12086e-06
0.000228669
0.0101475
0.334151
0.903313
0.999792
0.99975
0.999715
0.999678
0.999386
5.77207e-17
1.14253e-16
3.47078e-16
6.89009e-16
1.44628e-15
3.93401e-15
1.47297e-14
6.29353e-14
2.6043e-13
1.11028e-12
5.42273e-12
3.47567e-11
3.74429e-10
5.04319e-09
7.01611e-08
1.01167e-06
5.74111e-06
6.10377e-06
6.64941e-07
1.46309e-06
1.76028e-06
1.47645e-06
1.15119e-06
9.18545e-07
7.13811e-07
5.05352e-07
3.73607e-07
3.80085e-07
8.45382e-07
4.82596e-06
5.89743e-05
0.00139895
0.0463832
0.557092
0.957081
0.995476
0.995203
0.989726
0.924813
0.417622
0.0193517
1.22079e-10
1.55603e-10
1.99252e-10
1.58256e-10
1.24197e-10
1.03626e-10
9.71412e-11
8.41095e-11
7.89097e-11
7.20027e-11
8.57385e-11
6.92863e-11
5.74535e-11
4.13399e-11
2.56539e-11
2.31057e-11
1.89962e-11
1.68979e-11
1.7913e-11
1.82048e-11
1.75674e-11
1.58687e-11
1.35014e-11
1.25087e-11
1.23287e-11
1.23972e-11
1.26517e-11
1.25652e-11
1.25041e-11
1.39324e-11
1.8424e-11
3.20944e-11
9.57172e-11
7.37463e-10
1.16862e-08
2.71837e-07
9.04119e-06
0.000393829
0.0171556
0.376488
0.887118
0.997719
0.997241
0.996614
0.993026
1.85652e-19
4.72971e-19
3.40421e-18
1.45614e-17
4.73305e-17
1.92826e-16
1.26158e-15
7.38738e-15
3.00616e-14
1.034e-13
3.32184e-13
7.5079e-13
1.10992e-12
1.65159e-12
3.21736e-12
4.57846e-12
5.64099e-11
1.55544e-09
8.2173e-09
2.13419e-08
2.82058e-08
2.62289e-08
2.43232e-08
2.34643e-08
2.01053e-08
1.4668e-08
1.15288e-08
1.28429e-08
2.86475e-08
1.55459e-07
1.80394e-06
4.84138e-05
0.00164934
0.0562418
0.505977
0.884985
0.932186
0.848358
0.423054
0.0381699
7.31104e-11
1.05229e-10
2.09607e-10
1.96203e-10
1.26816e-10
8.54553e-11
6.58868e-11
6.01359e-11
4.97392e-11
4.27103e-11
3.6241e-11
4.07051e-11
3.47424e-11
2.84084e-11
2.22944e-11
1.72486e-11
1.49266e-11
1.32125e-11
1.28701e-11
1.37344e-11
1.4667e-11
1.42188e-11
1.25634e-11
1.01025e-11
8.98459e-12
8.73237e-12
8.77306e-12
9.1023e-12
9.11947e-12
8.65082e-12
8.50484e-12
9.18343e-12
1.13691e-11
1.7667e-11
5.14104e-11
4.87726e-10
1.04214e-08
3.40213e-07
1.57078e-05
0.000687675
0.0221654
0.33182
0.781177
0.932022
0.94617
0.881809
8.94249e-21
7.86446e-20
6.59167e-19
2.80284e-18
8.67094e-18
3.42773e-17
2.52381e-16
1.79606e-15
9.21887e-15
4.10269e-14
1.87053e-13
7.03983e-13
1.52188e-12
2.40234e-12
4.1006e-12
6.73062e-12
6.49508e-12
6.49964e-12
1.07113e-11
1.60021e-11
1.92181e-11
2.28756e-11
7.58645e-11
2.52054e-10
3.51209e-10
3.1354e-10
2.73794e-10
3.36009e-10
6.64316e-10
2.97123e-09
3.45428e-08
1.04479e-06
4.73777e-05
0.00183055
0.0393704
0.276922
0.411546
0.270103
0.0428869
7.34649e-11
7.31106e-11
1.34485e-10
1.87133e-10
1.30133e-10
6.97512e-11
4.63185e-11
3.62086e-11
3.49589e-11
3.11887e-11
2.81236e-11
2.54823e-11
2.45437e-11
2.24158e-11
2.0187e-11
1.78219e-11
1.45359e-11
1.17385e-11
1.02464e-11
9.46772e-12
9.79794e-12
1.01073e-11
9.40128e-12
7.83429e-12
5.60907e-12
4.67696e-12
4.4312e-12
4.43046e-12
4.79981e-12
5.24409e-12
5.43408e-12
5.7772e-12
6.38977e-12
7.38365e-12
8.95286e-12
1.27378e-11
3.48738e-11
4.22727e-10
1.3158e-08
5.75663e-07
2.70162e-05
0.000875189
0.0174004
0.164888
0.424924
0.463877
0.304784
1.2065e-21
8.11358e-21
7.68025e-20
3.43287e-19
9.66297e-19
3.17004e-18
2.34554e-17
1.75231e-16
8.27535e-16
3.65167e-15
2.1121e-14
1.41796e-13
7.33784e-13
2.33991e-12
6.12775e-12
1.27724e-11
1.84347e-11
1.98294e-11
1.82905e-11
1.86406e-11
2.11311e-11
2.55534e-11
4.20571e-11
5.39817e-11
6.72385e-11
7.89119e-11
9.09074e-11
1.48665e-10
2.00878e-10
2.00478e-10
2.31822e-10
8.37611e-09
6.10881e-07
3.6464e-05
0.0010196
0.0123502
0.0290995
0.0091287
2.42081e-05
7.34477e-11
8.84981e-11
1.33331e-10
1.01593e-10
4.83029e-11
2.48426e-11
1.97361e-11
1.89065e-11
2.17171e-11
2.31659e-11
2.34994e-11
2.27374e-11
2.13987e-11
1.95691e-11
1.75176e-11
1.53817e-11
1.17777e-11
8.70695e-12
6.83465e-12
5.3262e-12
5.16015e-12
4.93197e-12
4.22058e-12
3.19895e-12
1.94087e-12
1.47398e-12
1.33874e-12
1.316e-12
1.47459e-12
1.77715e-12
2.09492e-12
2.63399e-12
3.51137e-12
4.86002e-12
6.48806e-12
8.12189e-12
9.68187e-12
2.09443e-11
3.23355e-10
1.45777e-08
7.57741e-07
3.05865e-05
0.000695308
0.00755451
0.0345851
0.0438509
0.0125702
1.75748e-22
1.07894e-21
1.16439e-20
5.42854e-20
1.4063e-19
3.88775e-19
2.93337e-18
2.4707e-17
1.11278e-16
4.32488e-16
2.29306e-15
1.60019e-14
8.7353e-14
3.88801e-13
2.44877e-12
1.10701e-11
2.17336e-11
2.86385e-11
3.34918e-11
3.63007e-11
4.30095e-11
5.36341e-11
6.94348e-11
8.55653e-11
1.01927e-10
1.17266e-10
1.78421e-10
4.36504e-10
7.08269e-10
6.07811e-10
2.20866e-10
7.31091e-11
7.31094e-11
7.31092e-11
7.31095e-11
7.31093e-11
7.31095e-11
7.31094e-11
7.31096e-11
7.843e-11
9.64723e-11
1.02427e-10
2.80141e-11
7.40127e-12
6.06181e-12
8.29105e-12
1.17499e-11
1.63785e-11
1.99858e-11
2.12541e-11
2.0475e-11
1.90097e-11
1.68284e-11
1.41881e-11
1.15777e-11
7.67601e-12
4.93143e-12
3.23882e-12
1.91977e-12
1.69412e-12
1.49409e-12
1.1639e-12
8.20008e-13
4.71967e-13
3.54099e-13
3.19042e-13
3.10186e-13
3.37141e-13
3.9792e-13
4.77036e-13
6.48317e-13
1.039e-12
1.93385e-12
3.58788e-12
6.06414e-12
7.64849e-12
7.86663e-12
7.86985e-12
7.87302e-12
7.87614e-12
7.87921e-12
7.88224e-12
7.88523e-12
7.88817e-12
8.0802e-12
1.31267e-10
2.39177e-23
1.33953e-22
1.62575e-21
7.82778e-21
1.91169e-20
4.68256e-20
3.56882e-19
3.42292e-18
1.55209e-17
5.90227e-17
3.14346e-16
2.48456e-15
1.48564e-14
6.83601e-14
4.7092e-13
4.55384e-12
1.6504e-11
2.83066e-11
3.6596e-11
4.30568e-11
5.41226e-11
7.21311e-11
8.09494e-11
8.93114e-11
9.88658e-11
1.10608e-10
2.04795e-10
6.04176e-10
1.07316e-09
1.22687e-09
8.66494e-10
2.19053e-10
7.31092e-11
7.31094e-11
7.31093e-11
7.31095e-11
7.31094e-11
7.31095e-11
7.31095e-11
8.60083e-11
9.43411e-11
5.25081e-11
3.88105e-12
3.14993e-12
3.61574e-12
5.67693e-12
9.03899e-12
1.34733e-11
1.69706e-11
1.77679e-11
1.63083e-11
1.4714e-11
1.21289e-11
9.14952e-12
6.59306e-12
3.46069e-12
1.68814e-12
7.60544e-13
2.8063e-13
2.54385e-13
2.65982e-13
2.48193e-13
1.94517e-13
1.17236e-13
8.77334e-14
7.84192e-14
7.55881e-14
7.98457e-14
9.04213e-14
1.05753e-13
1.39965e-13
2.172e-13
4.18389e-13
9.83144e-13
2.69732e-12
5.50516e-12
7.42151e-12
7.87921e-12
7.87614e-12
7.87921e-12
7.88224e-12
7.88523e-12
7.88817e-12
7.89107e-12
7.92343e-12
1.65298e-10
2.37984e-24
1.20793e-23
1.73645e-22
8.67857e-22
1.97369e-21
4.19419e-21
3.23534e-20
3.63407e-19
1.64146e-18
6.02082e-18
3.15937e-17
2.92061e-16
1.94572e-15
9.33284e-15
6.04028e-14
8.51295e-13
5.12806e-12
1.28494e-11
2.08088e-11
2.80124e-11
3.82752e-11
5.42634e-11
5.79717e-11
6.37302e-11
7.74128e-11
9.6313e-11
2.30055e-10
7.00821e-10
1.27366e-09
1.54485e-09
1.33691e-09
6.62277e-10
1.41503e-10
8.12967e-11
7.43964e-11
7.32091e-11
7.38198e-11
7.56994e-11
8.07305e-11
8.5554e-11
7.48663e-11
1.54063e-11
2.30703e-12
2.17498e-12
2.6894e-12
4.33284e-12
6.70017e-12
9.92495e-12
1.23296e-11
1.23929e-11
1.04935e-11
8.9074e-12
6.54395e-12
4.04282e-12
2.24682e-12
6.54399e-13
1.62319e-13
7.60714e-14
5.32537e-14
5.64152e-14
6.62781e-14
6.28452e-14
4.85676e-14
2.8479e-14
2.11726e-14
1.88076e-14
1.8044e-14
1.88591e-14
2.09121e-14
2.41541e-14
3.16882e-14
4.84059e-14
9.05772e-14
2.0233e-13
5.68241e-13
1.73712e-12
3.98624e-12
6.44487e-12
8.20986e-12
8.60302e-12
8.55895e-12
8.23713e-12
8.15716e-12
8.13282e-12
1.47229e-11
4.95717e-10
1.5008e-25
6.81473e-25
1.26753e-23
6.59335e-23
1.36904e-22
2.43736e-22
1.92413e-21
2.62822e-20
1.16409e-19
4.01985e-19
2.00854e-18
2.30184e-17
1.73338e-16
8.57349e-16
5.22635e-15
1.05075e-13
7.69784e-13
2.31862e-12
4.40892e-12
6.81191e-12
1.06649e-11
1.91173e-11
2.56516e-11
4.50438e-11
7.33693e-11
9.83841e-11
2.55362e-10
7.39623e-10
1.33362e-09
1.62082e-09
1.59118e-09
1.09719e-09
3.29609e-10
9.72478e-11
7.46239e-11
7.25241e-11
7.40483e-11
7.69861e-11
8.01262e-11
7.51376e-11
3.73508e-11
2.09432e-12
1.73025e-12
1.63346e-12
1.86019e-12
2.71157e-12
3.82417e-12
5.6669e-12
6.88809e-12
6.55974e-12
4.80648e-12
3.52057e-12
1.98885e-12
6.7245e-13
1.64971e-13
4.98313e-14
2.76092e-14
1.73993e-14
1.19681e-14
1.26228e-14
1.54466e-14
1.48059e-14
1.11631e-14
6.29604e-15
4.65803e-15
4.11057e-15
3.9285e-15
4.1249e-15
4.59926e-15
5.3111e-15
7.02303e-15
1.08956e-14
2.08209e-14
4.71089e-14
1.29718e-13
3.49572e-13
9.07518e-13
2.36241e-12
4.79737e-12
7.69754e-12
8.44119e-12
8.3009e-12
8.24454e-12
8.53758e-12
2.08935e-11
5.66335e-10
4.2056e-27
1.58983e-26
4.69337e-25
2.56444e-24
4.75974e-24
6.66048e-24
5.5083e-23
9.6645e-22
4.10502e-21
1.28329e-20
5.65998e-20
8.90482e-19
7.56182e-18
3.57115e-17
1.79966e-16
5.84657e-15
4.89228e-14
1.41675e-13
2.45763e-13
4.81017e-13
1.48158e-12
4.68257e-12
1.53753e-11
4.16236e-11
7.36934e-11
1.06182e-10
2.57217e-10
6.79465e-10
1.17781e-09
1.60327e-09
1.6212e-09
1.43365e-09
6.05959e-10
1.36693e-10
7.08671e-11
6.59601e-11
7.04553e-11
7.34227e-11
6.92575e-11
4.58467e-11
7.8572e-12
1.4858e-12
1.32963e-12
1.05698e-12
9.23532e-13
1.02707e-12
1.20447e-12
1.91349e-12
2.27335e-12
1.92369e-12
8.94054e-13
3.76408e-13
8.56941e-14
3.5504e-14
2.09366e-14
1.03867e-14
5.55362e-15
3.44465e-15
2.35506e-15
2.49018e-15
3.19933e-15
3.10158e-15
2.27158e-15
1.22866e-15
9.02284e-16
7.8819e-16
7.49576e-16
7.94607e-16
8.97845e-16
1.03348e-15
1.36696e-15
2.15731e-15
4.2709e-15
1.00897e-14
2.95984e-14
8.39526e-14
2.29682e-13
6.45836e-13
1.82176e-12
4.17037e-12
6.67711e-12
7.79031e-12
8.24865e-12
8.86984e-12
1.42032e-11
3.71884e-10
5.01743e-35
5.19845e-34
3.20171e-33
3.48777e-32
4.64735e-31
3.82652e-30
3.26991e-29
2.11971e-28
8.08353e-28
3.27306e-27
3.12891e-24
1.37295e-22
1.97531e-21
3.52088e-20
2.60562e-18
2.90893e-17
2.3783e-16
4.08265e-15
4.61551e-14
2.88805e-13
1.01119e-12
3.34327e-12
1.31564e-11
3.94748e-11
7.5251e-11
1.14773e-10
2.47274e-10
4.78774e-10
7.09439e-10
1.14115e-09
1.60125e-09
1.51611e-09
9.03302e-10
2.2326e-10
6.66004e-11
4.87063e-11
5.42866e-11
5.51107e-11
4.13755e-11
1.57406e-11
1.76911e-12
1.21379e-12
8.4163e-13
4.54389e-13
1.77823e-13
6.61381e-14
3.13251e-14
8.63574e-14
9.93684e-14
5.18323e-14
2.70982e-14
1.93313e-14
1.23259e-14
6.69302e-15
3.79629e-15
1.83453e-15
9.59255e-16
5.91385e-16
4.05118e-16
4.28826e-16
5.7833e-16
5.65449e-16
4.01698e-16
2.08471e-16
1.51417e-16
1.30502e-16
1.23633e-16
1.32835e-16
1.52176e-16
1.73143e-16
2.24912e-16
3.59454e-16
7.39333e-16
1.82232e-15
5.73478e-15
1.72889e-14
5.0146e-14
1.45936e-13
4.58279e-13
1.56553e-12
3.68176e-12
5.62094e-12
7.23996e-12
8.89948e-12
1.14465e-11
8.90424e-11
3.97392e-36
3.43352e-35
1.36362e-34
9.34704e-34
1.52754e-32
1.46653e-31
5.96143e-31
1.00326e-30
1.16179e-30
1.02488e-28
4.80933e-25
1.88093e-23
2.4e-22
4.27794e-21
1.24648e-18
2.22446e-17
1.97095e-16
2.72749e-15
3.36766e-14
2.13447e-13
7.74074e-13
2.50394e-12
1.03301e-11
3.44594e-11
7.55939e-11
1.18316e-10
2.02586e-10
2.86596e-10
3.22246e-10
5.14838e-10
1.10689e-09
1.43983e-09
1.01889e-09
3.42378e-10
7.24367e-11
2.8058e-11
2.91577e-11
2.69096e-11
1.41777e-11
2.48348e-12
1.42527e-12
8.72813e-13
3.27847e-13
5.02694e-14
5.0949e-16
6.70128e-16
1.60311e-15
4.0663e-15
6.97446e-15
6.62684e-15
4.71998e-15
3.27312e-15
2.05446e-15
1.07654e-15
5.8741e-16
2.75583e-16
1.40835e-16
8.74178e-17
6.17701e-17
6.51325e-17
9.0381e-17
8.78203e-17
6.01018e-17
2.98748e-17
2.14513e-17
1.82145e-17
1.73019e-17
1.91531e-17
2.27124e-17
2.52325e-17
3.06111e-17
4.85429e-17
1.03523e-16
2.66512e-16
9.01361e-16
2.8625e-15
8.73608e-15
2.61439e-14
8.3427e-14
3.39603e-13
1.25155e-12
2.81155e-12
4.76354e-12
7.60504e-12
1.06172e-11
1.35286e-11
1.77991e-37
1.56137e-36
4.18508e-36
3.16914e-36
8.23646e-37
7.1979e-36
6.23845e-35
1.61728e-33
2.40977e-31
6.05409e-29
5.82841e-26
2.07127e-24
2.3378e-23
4.60487e-22
4.99058e-19
1.56797e-17
1.54949e-16
2.01638e-15
2.40348e-14
1.36749e-13
4.6906e-13
1.43009e-12
6.2186e-12
2.66044e-11
7.2473e-11
1.19088e-10
1.60168e-10
1.6268e-10
1.19362e-10
1.60994e-10
4.51943e-10
9.36517e-10
9.89418e-10
4.31992e-10
9.33336e-11
1.88285e-11
8.97615e-12
7.08128e-12
2.75636e-12
1.75314e-12
1.10781e-12
4.18379e-13
2.27489e-14
6.90289e-17
5.30513e-17
1.14767e-16
3.61719e-16
8.59237e-16
1.07038e-15
1.06101e-15
7.31343e-16
4.70596e-16
2.80549e-16
1.40399e-16
7.37016e-17
3.36223e-17
1.63092e-17
1.15237e-17
8.85016e-18
8.93468e-18
1.17213e-17
1.1105e-17
7.28273e-18
3.46463e-18
2.44852e-18
2.0439e-18
1.97845e-18
2.37965e-18
3.17474e-18
3.42911e-18
3.42338e-18
4.99696e-18
1.10408e-17
2.98461e-17
1.09023e-16
3.65422e-16
1.17321e-15
3.54879e-15
1.11294e-14
4.86117e-14
2.12083e-13
6.59636e-13
1.74851e-12
4.3492e-12
7.72938e-12
9.33312e-12
3.96604e-44
7.607e-44
3.92476e-43
1.84274e-42
2.61421e-39
8.91338e-37
7.3818e-36
6.04813e-33
4.47859e-31
1.89386e-29
5.05464e-27
1.66385e-25
2.11923e-24
1.63465e-22
2.7705e-19
9.02324e-18
8.87683e-17
9.87306e-16
9.57124e-15
5.01561e-14
1.6827e-13
4.87212e-13
2.44514e-12
1.75378e-11
6.14099e-11
1.14769e-10
1.29906e-10
9.97177e-11
4.70298e-11
4.2356e-11
1.19003e-10
3.61626e-10
6.0671e-10
4.52677e-10
1.12704e-10
2.00929e-11
5.07575e-12
2.60114e-12
1.92643e-12
1.36391e-12
6.04885e-13
6.3947e-14
1.21329e-17
4.76513e-18
8.82934e-18
3.87121e-17
1.27244e-16
2.64215e-16
2.44797e-16
1.76886e-16
9.41519e-17
5.05669e-17
2.88755e-17
1.40226e-17
7.04761e-18
3.04892e-18
1.47734e-18
1.48249e-18
1.44151e-18
1.25694e-18
1.25668e-18
1.09501e-18
6.6333e-19
3.02937e-19
2.10823e-19
1.7359e-19
1.80599e-19
2.74282e-19
4.8726e-19
5.16966e-19
3.30939e-19
3.57925e-19
7.91506e-19
2.25784e-18
8.96013e-18
3.1906e-17
1.07332e-16
3.21082e-16
9.73734e-16
3.93787e-15
1.91301e-14
6.63609e-14
2.0588e-13
1.14507e-12
3.61199e-12
5.67275e-12
3.0092e-45
2.11591e-44
2.31535e-43
4.91271e-43
3.81213e-40
5.69888e-38
5.56589e-37
1.66527e-32
5.0514e-31
4.92418e-30
2.77771e-28
1.48618e-26
5.51791e-25
1.27712e-22
1.49248e-19
3.32079e-18
2.81309e-17
2.1512e-16
1.46784e-15
7.06751e-15
2.22721e-14
6.08984e-14
4.6752e-13
9.30055e-12
4.65986e-11
9.79552e-11
1.05479e-10
6.84714e-11
2.54514e-11
1.34603e-11
2.53454e-11
8.81818e-11
2.37911e-10
3.54549e-10
1.19479e-10
2.48077e-11
5.15433e-12
1.92914e-12
1.40564e-12
7.64363e-13
1.37326e-13
1.28343e-18
3.7092e-19
1.84129e-19
2.5758e-18
1.41164e-17
4.83693e-17
8.99326e-17
7.62705e-17
3.86514e-17
1.06374e-17
4.18377e-18
2.1165e-18
9.69559e-19
4.59736e-19
1.71531e-19
1.24254e-19
2.18987e-19
2.9559e-19
2.09034e-19
1.21153e-19
7.64438e-20
4.04101e-20
1.76024e-20
1.2102e-20
1.00957e-20
1.36304e-20
3.47162e-20
9.07562e-20
9.70429e-20
3.90695e-20
1.41413e-20
2.85284e-20
8.60283e-20
3.73007e-19
1.43642e-18
5.08819e-18
1.64662e-17
7.49978e-17
1.61752e-16
4.64107e-17
1.88447e-18
2.979e-19
1.16454e-14
5.1595e-13
1.65643e-12
1.32261e-46
1.05305e-44
1.00046e-43
9.8889e-44
3.31195e-41
1.85101e-39
2.25816e-38
2.42141e-32
5.12607e-31
1.64971e-30
1.37227e-29
8.22687e-27
3.57944e-25
7.01801e-23
4.52355e-20
5.81037e-19
3.88135e-18
1.53174e-17
5.00474e-17
3.22735e-16
1.36084e-15
5.67341e-15
3.9526e-14
3.4951e-12
3.0965e-11
7.54268e-11
8.18541e-11
5.04572e-11
1.81917e-11
7.01138e-12
4.85762e-12
1.59007e-11
5.6931e-11
1.52967e-10
1.15344e-10
2.66491e-11
5.42273e-12
1.40544e-12
6.92893e-13
1.82392e-13
4.63401e-19
1.36415e-22
6.01384e-22
2.46385e-21
8.54197e-19
5.8822e-18
2.14577e-17
3.16324e-17
2.51808e-17
1.10877e-17
1.17497e-18
2.30383e-19
9.61451e-20
3.91801e-20
1.6726e-20
5.20899e-21
8.21062e-21
4.12472e-20
6.20144e-20
4.00717e-20
1.32655e-20
3.42167e-21
1.21233e-21
4.90714e-22
3.47888e-22
3.40106e-22
1.07705e-21
5.31486e-21
1.77993e-20
1.94884e-20
6.81759e-21
2.06378e-22
2.10831e-25
6.2602e-25
4.96518e-24
4.76012e-22
8.69453e-21
4.32818e-19
1.70378e-17
7.19501e-17
4.29187e-17
1.1991e-18
1.38153e-20
7.71101e-20
1.75326e-16
1.09309e-14
-1.63751e-65
5.64971e-45
2.15784e-44
1.61481e-44
1.68659e-42
1.501e-41
1.65474e-39
2.59004e-32
4.24834e-31
7.11361e-31
1.83591e-30
6.74876e-27
1.62039e-25
1.32037e-23
5.54796e-21
5.4736e-20
1.78664e-19
1.25402e-19
1.12781e-19
2.68433e-19
1.33017e-17
4.18834e-16
2.78097e-15
7.7555e-13
1.66366e-11
5.02507e-11
5.61364e-11
3.52586e-11
1.3563e-11
4.99405e-12
1.52452e-12
2.24512e-12
8.04803e-12
3.2454e-11
6.29098e-11
2.50522e-11
5.27174e-12
8.83476e-13
1.29624e-13
1.94388e-16
4.64505e-19
1.36415e-22
2.10153e-22
8.20351e-22
2.84814e-19
3.00609e-18
1.18874e-17
1.18582e-17
7.8571e-18
2.41203e-18
1.58832e-19
5.36904e-21
2.31257e-21
9.89004e-22
3.29552e-22
2.2735e-23
8.98089e-22
7.52742e-21
1.13107e-20
7.18982e-21
1.93477e-21
5.64491e-23
6.13349e-24
2.40496e-25
3.06115e-26
6.11185e-24
1.11265e-22
8.21231e-22
3.05348e-21
3.39779e-21
1.17038e-21
3.36497e-23
6.18888e-27
1.30776e-26
4.10479e-26
4.76687e-25
1.22374e-22
1.66758e-20
2.83856e-18
1.58392e-17
3.02576e-17
9.28687e-19
6.617e-22
1.25865e-21
4.57888e-20
2.70046e-19
-2.28577e-48
2.01831e-45
2.68748e-45
2.06814e-45
9.74062e-45
6.81895e-42
6.46595e-38
2.23784e-32
2.51174e-31
3.89437e-31
3.8472e-31
2.57406e-27
2.33462e-26
8.90246e-25
7.47699e-23
4.48435e-21
2.72585e-20
4.68015e-20
3.30168e-20
2.07358e-20
1.01363e-17
2.33131e-16
7.0141e-16
1.03354e-13
6.44377e-12
2.65024e-11
3.09485e-11