/*--------------------------------*- C++ -*----------------------------------*\
| =========                 |                                                 |
| \\      /  F ield         | OpenFOAM: The Open Source CFD Toolbox           |
|  \\    /   O peration     | Version:  v1912                                 |
|   \\  /    A nd           | Website:  www.openfoam.com                      |
|    \\/     M anipulation  |                                                 |
\*---------------------------------------------------------------------------*/
FoamFile
{
    version     2.0;
    format      ascii;
    class       volScalarField;
    location    "60";
    object      k;
}
// * * * * * * * * * * * * * * * * * * * * * * * * * * * * * * * * * * * * * //

dimensions      [0 2 -2 0 0 0 0];


internalField   nonuniform List<scalar> 
14268
(
7.54372e-07
7.53245e-07
7.52527e-07
7.51773e-07
7.51254e-07
7.51265e-07
7.51869e-07
7.52809e-07
7.54931e-07
7.57512e-07
7.6069e-07
7.64331e-07
7.68336e-07
7.72649e-07
7.77231e-07
7.82113e-07
7.87183e-07
7.92438e-07
7.97769e-07
8.0305e-07
8.08166e-07
8.13096e-07
8.17877e-07
8.22581e-07
8.27221e-07
8.31722e-07
8.35939e-07
8.39764e-07
8.43005e-07
8.45458e-07
8.47059e-07
8.47791e-07
8.47708e-07
8.47241e-07
8.46633e-07
8.45957e-07
8.45263e-07
8.44578e-07
8.43962e-07
8.43482e-07
8.43055e-07
8.42752e-07
8.42554e-07
8.42427e-07
8.42447e-07
8.42563e-07
8.42793e-07
8.43162e-07
8.43643e-07
8.44239e-07
8.44845e-07
8.45398e-07
8.45913e-07
8.46356e-07
8.46741e-07
8.47134e-07
8.47509e-07
8.47913e-07
8.48666e-07
8.50101e-07
8.5215e-07
8.54763e-07
8.57834e-07
8.61323e-07
8.65186e-07
8.69377e-07
8.73782e-07
8.78341e-07
8.82906e-07
8.87203e-07
8.91242e-07
8.94886e-07
8.98136e-07
9.00985e-07
9.03409e-07
9.05398e-07
9.0699e-07
9.08251e-07
9.09291e-07
9.10224e-07
9.11224e-07
9.12613e-07
9.14898e-07
9.18225e-07
9.21428e-07
9.23913e-07
2.27564e-07
2.25135e-07
2.23761e-07
2.23529e-07
2.243e-07
2.25463e-07
2.27082e-07
2.29017e-07
2.31322e-07
2.33853e-07
2.36622e-07
2.3956e-07
2.42628e-07
2.45769e-07
2.48954e-07
2.52161e-07
2.55318e-07
2.58409e-07
2.61364e-07
2.64116e-07
2.66629e-07
2.68927e-07
2.71083e-07
2.73194e-07
2.75418e-07
2.77874e-07
2.80604e-07
2.83478e-07
2.8625e-07
2.88656e-07
2.90534e-07
2.91761e-07
2.92258e-07
2.91833e-07
2.90351e-07
2.87966e-07
2.84847e-07
2.81131e-07
2.76922e-07
2.72311e-07
2.67419e-07
2.62181e-07
2.56674e-07
2.50909e-07
2.44865e-07
2.38671e-07
2.32292e-07
2.25926e-07
2.19632e-07
2.13608e-07
2.07971e-07
2.02864e-07
1.98437e-07
1.94769e-07
1.91942e-07
1.90019e-07
1.8899e-07
1.88845e-07
1.89427e-07
1.90236e-07
1.91303e-07
1.92605e-07
1.94032e-07
1.95647e-07
1.97408e-07
1.99279e-07
2.01239e-07
2.0327e-07
2.05314e-07
2.07433e-07
2.09697e-07
2.11927e-07
2.14001e-07
2.15872e-07
2.17525e-07
2.18953e-07
2.20179e-07
2.2123e-07
2.22155e-07
2.22996e-07
2.23835e-07
2.24822e-07
2.26222e-07
2.27096e-07
2.27377e-07
2.30119e-07
9.10168e-08
9.04738e-08
9.02037e-08
9.0237e-08
9.04804e-08
9.0818e-08
9.12579e-08
9.1761e-08
9.23502e-08
9.29904e-08
9.36765e-08
9.43925e-08
9.51301e-08
9.58735e-08
9.66164e-08
9.73511e-08
9.80612e-08
9.87427e-08
9.93775e-08
9.9949e-08
1.0045e-07
1.00887e-07
1.0129e-07
1.01688e-07
1.02123e-07
1.02635e-07
1.03241e-07
1.03912e-07
1.04575e-07
1.05147e-07
1.05582e-07
1.05849e-07
1.0593e-07
1.05743e-07
1.05239e-07
1.04467e-07
1.03478e-07
1.02321e-07
1.01037e-07
9.9663e-08
9.82456e-08
9.67709e-08
9.5264e-08
9.37344e-08
9.21896e-08
9.06642e-08
8.916e-08
8.77217e-08
8.63646e-08
8.51234e-08
8.40151e-08
8.30547e-08
8.22549e-08
8.16132e-08
8.11294e-08
8.0802e-08
8.06217e-08
8.05804e-08
8.06497e-08
8.07504e-08
8.08877e-08
8.10563e-08
8.12438e-08
8.14572e-08
8.16949e-08
8.19512e-08
8.22234e-08
8.25097e-08
8.27965e-08
8.31121e-08
8.34552e-08
8.37978e-08
8.41188e-08
8.44075e-08
8.46599e-08
8.48746e-08
8.5055e-08
8.52062e-08
8.53359e-08
8.54515e-08
8.55645e-08
8.56877e-08
8.58328e-08
8.58821e-08
8.59531e-08
8.67487e-08
7.20599e-08
7.19731e-08
7.19289e-08
7.19574e-08
7.19944e-08
7.20531e-08
7.21281e-08
7.22082e-08
7.2311e-08
7.24243e-08
7.25467e-08
7.26743e-08
7.28051e-08
7.29396e-08
7.30773e-08
7.3216e-08
7.33519e-08
7.34854e-08
7.36137e-08
7.373e-08
7.38337e-08
7.39311e-08
7.40242e-08
7.41223e-08
7.4235e-08
7.43704e-08
7.45311e-08
7.47066e-08
7.48768e-08
7.50239e-08
7.51361e-08
7.5203e-08
7.52195e-08
7.51628e-08
7.5022e-08
7.48125e-08
7.45499e-08
7.42501e-08
7.39243e-08
7.35854e-08
7.32449e-08
7.29001e-08
7.25641e-08
7.22349e-08
7.19151e-08
7.16122e-08
7.13286e-08
7.107e-08
7.08411e-08
7.06447e-08
7.04815e-08
7.03508e-08
7.02492e-08
7.01735e-08
7.01207e-08
7.0087e-08
7.00697e-08
7.00677e-08
7.00735e-08
7.00797e-08
7.00876e-08
7.00932e-08
7.01034e-08
7.01135e-08
7.01285e-08
7.01472e-08
7.01699e-08
7.01983e-08
7.02266e-08
7.02657e-08
7.0312e-08
7.03593e-08
7.04059e-08
7.04492e-08
7.04875e-08
7.05199e-08
7.05463e-08
7.05683e-08
7.05879e-08
7.06061e-08
7.06233e-08
7.06389e-08
7.06509e-08
7.06182e-08
7.06364e-08
7.05713e-08
6.87764e-08
6.87763e-08
6.88008e-08
6.88499e-08
6.88845e-08
6.89223e-08
6.89538e-08
6.89791e-08
6.90105e-08
6.9042e-08
6.90737e-08
6.91052e-08
6.91365e-08
6.91718e-08
6.9212e-08
6.92542e-08
6.92984e-08
6.93453e-08
6.93943e-08
6.94393e-08
6.94793e-08
6.95146e-08
6.95495e-08
6.95865e-08
6.96259e-08
6.96703e-08
6.97191e-08
6.97705e-08
6.98197e-08
6.98638e-08
6.98958e-08
6.99143e-08
6.99197e-08
6.99039e-08
6.98623e-08
6.97993e-08
6.97218e-08
6.96354e-08
6.95436e-08
6.94528e-08
6.93641e-08
6.92804e-08
6.92012e-08
6.91241e-08
6.90586e-08
6.89988e-08
6.89532e-08
6.89131e-08
6.88907e-08
6.88774e-08
6.88744e-08
6.88826e-08
6.88951e-08
6.89104e-08
6.89262e-08
6.89389e-08
6.89492e-08
6.89547e-08
6.89549e-08
6.89499e-08
6.89397e-08
6.89247e-08
6.89093e-08
6.88917e-08
6.88749e-08
6.88596e-08
6.88467e-08
6.88368e-08
6.88294e-08
6.88276e-08
6.8827e-08
6.88294e-08
6.88336e-08
6.88394e-08
6.88453e-08
6.88513e-08
6.88566e-08
6.8862e-08
6.88682e-08
6.88755e-08
6.88839e-08
6.88908e-08
6.89074e-08
6.89176e-08
6.89535e-08
6.89853e-08
6.86816e-08
6.86975e-08
6.87169e-08
6.87467e-08
6.87434e-08
6.87464e-08
6.87345e-08
6.87207e-08
6.87075e-08
6.86944e-08
6.86817e-08
6.86671e-08
6.86514e-08
6.86391e-08
6.86314e-08
6.86247e-08
6.86223e-08
6.86258e-08
6.86372e-08
6.86518e-08
6.86687e-08
6.86914e-08
6.87155e-08
6.87437e-08
6.8777e-08
6.88145e-08
6.8852e-08
6.88902e-08
6.89229e-08
6.89501e-08
6.89683e-08
6.89824e-08
6.89875e-08
6.89818e-08
6.89627e-08
6.89329e-08
6.88971e-08
6.88572e-08
6.88147e-08
6.87786e-08
6.87391e-08
6.87079e-08
6.86803e-08
6.86584e-08
6.86461e-08
6.86275e-08
6.86297e-08
6.86289e-08
6.86426e-08
6.86619e-08
6.86862e-08
6.87174e-08
6.87486e-08
6.87788e-08
6.88065e-08
6.8827e-08
6.88425e-08
6.88503e-08
6.88505e-08
6.88446e-08
6.88332e-08
6.88164e-08
6.87988e-08
6.87783e-08
6.87586e-08
6.87401e-08
6.87231e-08
6.8709e-08
6.86978e-08
6.86877e-08
6.8685e-08
6.86818e-08
6.86803e-08
6.86813e-08
6.8683e-08
6.86849e-08
6.86867e-08
6.86893e-08
6.86931e-08
6.86982e-08
6.87046e-08
6.87082e-08
6.87177e-08
6.8702e-08
6.87196e-08
6.86651e-08
6.83994e-08
6.84163e-08
6.84449e-08
6.84883e-08
6.85077e-08
6.85265e-08
6.8533e-08
6.85313e-08
6.85334e-08
6.8532e-08
6.85326e-08
6.85316e-08
6.85287e-08
6.8528e-08
6.85307e-08
6.8534e-08
6.85411e-08
6.85498e-08
6.85625e-08
6.85754e-08
6.85859e-08
6.85994e-08
6.86196e-08
6.86441e-08
6.86703e-08
6.86969e-08
6.87227e-08
6.87496e-08
6.87722e-08
6.87909e-08
6.88045e-08
6.88139e-08
6.88203e-08
6.88169e-08
6.8803e-08
6.87789e-08
6.87514e-08
6.87219e-08
6.86895e-08
6.86658e-08
6.86372e-08
6.86167e-08
6.85954e-08
6.85729e-08
6.85684e-08
6.85605e-08
6.857e-08
6.85736e-08
6.85931e-08
6.86169e-08
6.86455e-08
6.86813e-08
6.87162e-08
6.875e-08
6.87811e-08
6.88042e-08
6.88215e-08
6.88304e-08
6.88323e-08
6.88266e-08
6.88158e-08
6.8799e-08
6.8781e-08
6.876e-08
6.87399e-08
6.87196e-08
6.87024e-08
6.86863e-08
6.86733e-08
6.86601e-08
6.8657e-08
6.86487e-08
6.86462e-08
6.86448e-08
6.86449e-08
6.8646e-08
6.86471e-08
6.86492e-08
6.86528e-08
6.86581e-08
6.86652e-08
6.86696e-08
6.86842e-08
6.86831e-08
6.87093e-08
6.87092e-08
6.86119e-08
6.86402e-08
6.86639e-08
6.8693e-08
6.86895e-08
6.86898e-08
6.86754e-08
6.86535e-08
6.86353e-08
6.86126e-08
6.85927e-08
6.85712e-08
6.85467e-08
6.85257e-08
6.85087e-08
6.84924e-08
6.84824e-08
6.84778e-08
6.8482e-08
6.84908e-08
6.85017e-08
6.852e-08
6.85434e-08
6.85722e-08
6.86065e-08
6.86417e-08
6.86751e-08
6.87079e-08
6.87324e-08
6.87496e-08
6.87644e-08
6.87733e-08
6.87775e-08
6.87698e-08
6.87502e-08
6.87263e-08
6.86989e-08
6.8668e-08
6.86365e-08
6.86146e-08
6.85891e-08
6.85734e-08
6.85623e-08
6.85517e-08
6.85514e-08
6.854e-08
6.85516e-08
6.85581e-08
6.85805e-08
6.86079e-08
6.86385e-08
6.86776e-08
6.87151e-08
6.87511e-08
6.87847e-08
6.88099e-08
6.88296e-08
6.88405e-08
6.88436e-08
6.88394e-08
6.88295e-08
6.88134e-08
6.87972e-08
6.87766e-08
6.87559e-08
6.87364e-08
6.87184e-08
6.87034e-08
6.8689e-08
6.86773e-08
6.86688e-08
6.86657e-08
6.86579e-08
6.86565e-08
6.86549e-08
6.8654e-08
6.86537e-08
6.86544e-08
6.8657e-08
6.86613e-08
6.86677e-08
6.86721e-08
6.86867e-08
6.86839e-08
6.87114e-08
6.86864e-08
6.84844e-08
6.85115e-08
6.85402e-08
6.85765e-08
6.85902e-08
6.86062e-08
6.86041e-08
6.85965e-08
6.85909e-08
6.85814e-08
6.85748e-08
6.85684e-08
6.85585e-08
6.85498e-08
6.85444e-08
6.85379e-08
6.85366e-08
6.85369e-08
6.85426e-08
6.85506e-08
6.85571e-08
6.85675e-08
6.85837e-08
6.86039e-08
6.86292e-08
6.86558e-08
6.86832e-08
6.87107e-08
6.87312e-08
6.87464e-08
6.87601e-08
6.8767e-08
6.87697e-08
6.87601e-08
6.87414e-08
6.87128e-08
6.8687e-08
6.86554e-08
6.86237e-08
6.8603e-08
6.85779e-08
6.85635e-08
6.85501e-08
6.85363e-08
6.85326e-08
6.85231e-08
6.85359e-08
6.85416e-08
6.85628e-08
6.85893e-08
6.86197e-08
6.866e-08
6.86986e-08
6.87365e-08
6.87729e-08
6.88006e-08
6.88232e-08
6.8837e-08
6.8844e-08
6.88408e-08
6.88318e-08
6.88163e-08
6.88012e-08
6.87819e-08
6.87619e-08
6.87428e-08
6.87259e-08
6.87088e-08
6.8694e-08
6.86813e-08
6.86702e-08
6.86652e-08
6.86608e-08
6.86535e-08
6.86515e-08
6.86507e-08
6.86494e-08
6.86493e-08
6.8652e-08
6.86568e-08
6.86639e-08
6.86685e-08
6.86841e-08
6.86816e-08
6.87103e-08
6.86955e-08
6.86141e-08
6.86519e-08
6.86833e-08
6.87083e-08
6.87097e-08
6.87137e-08
6.86987e-08
6.86817e-08
6.86672e-08
6.86435e-08
6.8624e-08
6.86064e-08
6.85808e-08
6.85586e-08
6.85408e-08
6.85219e-08
6.85112e-08
6.8504e-08
6.85055e-08
6.85122e-08
6.85206e-08
6.85357e-08
6.85572e-08
6.85819e-08
6.86138e-08
6.86486e-08
6.86814e-08
6.87112e-08
6.8731e-08
6.87463e-08
6.876e-08
6.87662e-08
6.8767e-08
6.87527e-08
6.8732e-08
6.86986e-08
6.86715e-08
6.86372e-08
6.86037e-08
6.85831e-08
6.85567e-08
6.85405e-08
6.8525e-08
6.8514e-08
6.85163e-08
6.85028e-08
6.8517e-08
6.85219e-08
6.85445e-08
6.85749e-08
6.86079e-08
6.86519e-08
6.86944e-08
6.87351e-08
6.87745e-08
6.88045e-08
6.88304e-08
6.88459e-08
6.8852e-08
6.88507e-08
6.88439e-08
6.88296e-08
6.88161e-08
6.87973e-08
6.87777e-08
6.87589e-08
6.8741e-08
6.87243e-08
6.87089e-08
6.8695e-08
6.86855e-08
6.8676e-08
6.86714e-08
6.86663e-08
6.86601e-08
6.86556e-08
6.86543e-08
6.86533e-08
6.86542e-08
6.8658e-08
6.86646e-08
6.8669e-08
6.86864e-08
6.86837e-08
6.8716e-08
6.86957e-08
6.85371e-08
6.85805e-08
6.86198e-08
6.86544e-08
6.86683e-08
6.86793e-08
6.86706e-08
6.86648e-08
6.86582e-08
6.86433e-08
6.8632e-08
6.86256e-08
6.86073e-08
6.85903e-08
6.85772e-08
6.85604e-08
6.85521e-08
6.85429e-08
6.85412e-08
6.85442e-08
6.85473e-08
6.85566e-08
6.85741e-08
6.85952e-08
6.86219e-08
6.86483e-08
6.86795e-08
6.87109e-08
6.87353e-08
6.87489e-08
6.8759e-08
6.87636e-08
6.87633e-08
6.87485e-08
6.87259e-08
6.86887e-08
6.86605e-08
6.86236e-08
6.85887e-08
6.85693e-08
6.85433e-08
6.8528e-08
6.85108e-08
6.84948e-08
6.84807e-08
6.84783e-08
6.84906e-08
6.84935e-08
6.85162e-08
6.85485e-08
6.85814e-08
6.86283e-08
6.86734e-08
6.87169e-08
6.87602e-08
6.8794e-08
6.88228e-08
6.88422e-08
6.88527e-08
6.88512e-08
6.88462e-08
6.88329e-08
6.88205e-08
6.88037e-08
6.87867e-08
6.87682e-08
6.87499e-08
6.8731e-08
6.87144e-08
6.87001e-08
6.86865e-08
6.86785e-08
6.86678e-08
6.86608e-08
6.86561e-08
6.86515e-08
6.86465e-08
6.86438e-08
6.86452e-08
6.86495e-08
6.86568e-08
6.86621e-08
6.86814e-08
6.86781e-08
6.87128e-08
6.86883e-08
6.86008e-08
6.86545e-08
6.87028e-08
6.87425e-08
6.875e-08
6.87544e-08
6.87386e-08
6.87266e-08
6.87126e-08
6.86944e-08
6.86726e-08
6.86578e-08
6.86307e-08
6.86033e-08
6.85825e-08
6.85575e-08
6.85441e-08
6.8529e-08
6.85227e-08
6.85258e-08
6.85323e-08
6.85468e-08
6.85706e-08
6.85973e-08
6.86303e-08
6.86643e-08
6.86987e-08
6.87324e-08
6.87553e-08
6.87691e-08
6.87798e-08
6.87809e-08
6.87765e-08
6.87568e-08
6.87265e-08
6.86802e-08
6.86503e-08
6.86088e-08
6.85685e-08
6.85489e-08
6.8523e-08
6.85057e-08
6.84903e-08
6.84716e-08
6.84714e-08
6.84606e-08
6.84722e-08
6.848e-08
6.85086e-08
6.85439e-08
6.85801e-08
6.86316e-08
6.86804e-08
6.87278e-08
6.87745e-08
6.88105e-08
6.88417e-08
6.88633e-08
6.88741e-08
6.88751e-08
6.88704e-08
6.88572e-08
6.88455e-08
6.88292e-08
6.8811e-08
6.87907e-08
6.87725e-08
6.87552e-08
6.87382e-08
6.87218e-08
6.87088e-08
6.86985e-08
6.86894e-08
6.86785e-08
6.86699e-08
6.86654e-08
6.86604e-08
6.86561e-08
6.86537e-08
6.86557e-08
6.86624e-08
6.86674e-08
6.86887e-08
6.86844e-08
6.8722e-08
6.86934e-08
6.85465e-08
6.86072e-08
6.86718e-08
6.87306e-08
6.87481e-08
6.87599e-08
6.87549e-08
6.87474e-08
6.87362e-08
6.87297e-08
6.87167e-08
6.87029e-08
6.8683e-08
6.86529e-08
6.86336e-08
6.86067e-08
6.85937e-08
6.85779e-08
6.85681e-08
6.85631e-08
6.85585e-08
6.85619e-08
6.85776e-08
6.85975e-08
6.86252e-08
6.86566e-08
6.86894e-08
6.87213e-08
6.87417e-08
6.87496e-08
6.87573e-08
6.87567e-08
6.87485e-08
6.87308e-08
6.87003e-08
6.86529e-08
6.86215e-08
6.85786e-08
6.85392e-08
6.85175e-08
6.84929e-08
6.84824e-08
6.84664e-08
6.84516e-08
6.84352e-08
6.84278e-08
6.8439e-08
6.84457e-08
6.84742e-08
6.85087e-08
6.85455e-08
6.85994e-08
6.86504e-08
6.87016e-08
6.87539e-08
6.87945e-08
6.88307e-08
6.8861e-08
6.88802e-08
6.88831e-08
6.88811e-08
6.88686e-08
6.88585e-08
6.8845e-08
6.88279e-08
6.88097e-08
6.87914e-08
6.87688e-08
6.87495e-08
6.8733e-08
6.87159e-08
6.86942e-08
6.86823e-08
6.86691e-08
6.86604e-08
6.86484e-08
6.8641e-08
6.86349e-08
6.86336e-08
6.86365e-08
6.86444e-08
6.86507e-08
6.86744e-08
6.86689e-08
6.87087e-08
6.86759e-08
6.85422e-08
6.86149e-08
6.8689e-08
6.87538e-08
6.877e-08
6.87857e-08
6.87815e-08
6.87783e-08
6.87687e-08
6.87608e-08
6.87525e-08
6.87359e-08
6.8716e-08
6.86829e-08
6.86625e-08
6.86346e-08
6.86241e-08
6.86109e-08
6.86092e-08
6.8615e-08
6.86208e-08
6.86317e-08
6.86538e-08
6.86811e-08
6.87141e-08
6.87486e-08
6.87887e-08
6.88261e-08
6.88585e-08
6.88693e-08
6.88663e-08
6.88518e-08
6.88329e-08
6.88024e-08
6.87574e-08
6.86938e-08
6.86521e-08
6.85955e-08
6.85532e-08
6.8525e-08
6.84993e-08
6.84877e-08
6.84649e-08
6.84427e-08
6.84271e-08
6.84316e-08
6.84381e-08
6.84481e-08
6.84774e-08
6.85112e-08
6.85498e-08
6.86071e-08
6.86622e-08
6.87183e-08
6.87754e-08
6.88204e-08
6.88598e-08
6.88951e-08
6.89162e-08
6.89221e-08
6.89194e-08
6.89088e-08
6.89015e-08
6.88953e-08
6.88788e-08
6.88602e-08
6.8841e-08
6.8823e-08
6.87987e-08
6.87806e-08
6.87671e-08
6.87665e-08
6.87497e-08
6.87342e-08
6.87181e-08
6.87078e-08
6.86985e-08
6.86899e-08
6.8687e-08
6.86888e-08
6.86962e-08
6.87007e-08
6.87248e-08
6.87157e-08
6.87562e-08
6.87177e-08
6.84917e-08
6.8567e-08
6.86496e-08
6.87216e-08
6.87499e-08
6.8774e-08
6.87748e-08
6.87796e-08
6.87764e-08
6.8769e-08
6.87618e-08
6.87482e-08
6.87278e-08
6.86983e-08
6.86787e-08
6.86545e-08
6.86491e-08
6.86412e-08
6.86454e-08
6.86564e-08
6.86662e-08
6.86785e-08
6.8702e-08
6.87329e-08
6.87694e-08
6.88103e-08
6.88555e-08
6.8899e-08
6.89386e-08
6.89559e-08
6.89598e-08
6.89298e-08
6.88875e-08
6.88381e-08
6.87773e-08
6.87034e-08
6.86529e-08
6.85916e-08
6.85482e-08
6.85175e-08
6.84915e-08
6.84792e-08
6.84547e-08
6.84372e-08
6.84277e-08
6.843e-08
6.84384e-08
6.84472e-08
6.84771e-08
6.8511e-08
6.85484e-08
6.86078e-08
6.86658e-08
6.87254e-08
6.87844e-08
6.88323e-08
6.88716e-08
6.89083e-08
6.89306e-08
6.89375e-08
6.89349e-08
6.89251e-08
6.89179e-08
6.89116e-08
6.88961e-08
6.88809e-08
6.88671e-08
6.88487e-08
6.8823e-08
6.88041e-08
6.8809e-08
6.87951e-08
6.877e-08
6.8754e-08
6.87375e-08
6.87303e-08
6.8723e-08
6.87142e-08
6.87077e-08
6.8707e-08
6.87118e-08
6.87136e-08
6.87361e-08
6.87247e-08
6.87659e-08
6.87257e-08
6.84691e-08
6.85568e-08
6.86474e-08
6.87209e-08
6.87526e-08
6.87779e-08
6.878e-08
6.87858e-08
6.87837e-08
6.87767e-08
6.87683e-08
6.87545e-08
6.87319e-08
6.87008e-08
6.86774e-08
6.865e-08
6.86443e-08
6.86371e-08
6.8642e-08
6.86537e-08
6.86658e-08
6.86806e-08
6.87071e-08
6.87423e-08
6.87849e-08
6.88326e-08
6.88836e-08
6.89266e-08
6.89579e-08
6.8959e-08
6.89419e-08
6.89177e-08
6.88814e-08
6.8834e-08
6.87716e-08
6.86917e-08
6.86323e-08
6.85666e-08
6.85227e-08
6.84913e-08
6.84638e-08
6.8449e-08
6.84301e-08
6.8426e-08
6.84215e-08
6.84203e-08
6.84274e-08
6.84338e-08
6.84627e-08
6.84954e-08
6.85314e-08
6.85904e-08
6.86471e-08
6.87085e-08
6.87683e-08
6.88162e-08
6.88562e-08
6.88947e-08
6.89191e-08
6.89283e-08
6.89274e-08
6.89177e-08
6.89111e-08
6.89066e-08
6.88922e-08
6.88737e-08
6.88544e-08
6.88368e-08
6.88356e-08
6.88226e-08
6.87957e-08
6.87693e-08
6.876e-08
6.8738e-08
6.87189e-08
6.86994e-08
6.8685e-08
6.86714e-08
6.86638e-08
6.86633e-08
6.86714e-08
6.86785e-08
6.87062e-08
6.86994e-08
6.87448e-08
6.87044e-08
6.84045e-08
6.84818e-08
6.85756e-08
6.86586e-08
6.87104e-08
6.87486e-08
6.87614e-08
6.87769e-08
6.87821e-08
6.87779e-08
6.8771e-08
6.87584e-08
6.87359e-08
6.87053e-08
6.86789e-08
6.86477e-08
6.86408e-08
6.86331e-08
6.86367e-08
6.86468e-08
6.86596e-08
6.8676e-08
6.87036e-08
6.87384e-08
6.8784e-08
6.88384e-08
6.88901e-08
6.89346e-08
6.89717e-08
6.89753e-08
6.89511e-08
6.88855e-08
6.88324e-08
6.87813e-08
6.87208e-08
6.86424e-08
6.85943e-08
6.85195e-08
6.84839e-08
6.84583e-08
6.84395e-08
6.84361e-08
6.84225e-08
6.84235e-08
6.84157e-08
6.84092e-08
6.84114e-08
6.84146e-08
6.84379e-08
6.8468e-08
6.85039e-08
6.85612e-08
6.86177e-08
6.86841e-08
6.87477e-08
6.88018e-08
6.88445e-08
6.88854e-08
6.89119e-08
6.89229e-08
6.8922e-08
6.89128e-08
6.89074e-08
6.89051e-08
6.88881e-08
6.88613e-08
6.88402e-08
6.88377e-08
6.8841e-08
6.88073e-08
6.8762e-08
6.87526e-08
6.87577e-08
6.87434e-08
6.87194e-08
6.86992e-08
6.86836e-08
6.86676e-08
6.86578e-08
6.86544e-08
6.86602e-08
6.86676e-08
6.86974e-08
6.86932e-08
6.87413e-08
6.87021e-08
6.82517e-08
6.83243e-08
6.84233e-08
6.85216e-08
6.85994e-08
6.86621e-08
6.86985e-08
6.87337e-08
6.87566e-08
6.87633e-08
6.87624e-08
6.87529e-08
6.87311e-08
6.87021e-08
6.86729e-08
6.864e-08
6.86312e-08
6.86218e-08
6.8622e-08
6.86279e-08
6.86379e-08
6.86531e-08
6.86811e-08
6.87233e-08
6.87762e-08
6.88366e-08
6.89048e-08
6.89638e-08
6.9009e-08
6.90083e-08
6.89812e-08
6.89437e-08
6.88917e-08
6.88225e-08
6.87343e-08
6.86393e-08
6.85742e-08
6.85098e-08
6.84799e-08
6.84562e-08
6.84452e-08
6.84394e-08
6.84234e-08
6.8418e-08
6.84045e-08
6.83886e-08
6.83894e-08
6.83882e-08
6.84084e-08
6.84383e-08
6.84781e-08
6.85408e-08
6.86056e-08
6.8676e-08
6.87446e-08
6.88012e-08
6.88429e-08
6.88838e-08
6.89123e-08
6.89244e-08
6.89216e-08
6.89157e-08
6.89121e-08
6.89111e-08
6.88929e-08
6.88669e-08
6.88637e-08
6.88563e-08
6.88093e-08
6.87876e-08
6.87751e-08
6.87451e-08
6.87303e-08
6.87245e-08
6.87096e-08
6.86931e-08
6.86808e-08
6.86695e-08
6.86627e-08
6.86626e-08
6.8672e-08
6.86816e-08
6.87129e-08
6.87048e-08
6.87465e-08
6.87056e-08
6.79404e-08
6.80047e-08
6.81046e-08
6.82249e-08
6.83398e-08
6.84482e-08
6.85366e-08
6.86126e-08
6.86725e-08
6.87084e-08
6.87269e-08
6.87315e-08
6.87197e-08
6.86968e-08
6.86696e-08
6.86396e-08
6.86309e-08
6.86219e-08
6.86186e-08
6.86214e-08
6.86284e-08
6.86398e-08
6.86646e-08
6.87008e-08
6.87506e-08
6.88091e-08
6.88695e-08
6.892e-08
6.89613e-08
6.89697e-08
6.89453e-08
6.88837e-08
6.8826e-08
6.87742e-08
6.87168e-08
6.86405e-08
6.85765e-08
6.85063e-08
6.84805e-08
6.84593e-08
6.84453e-08
6.84401e-08
6.84141e-08
6.84021e-08
6.83809e-08
6.83558e-08
6.83604e-08
6.83542e-08
6.83793e-08
6.84072e-08
6.84513e-08
6.85136e-08
6.85754e-08
6.86379e-08
6.86979e-08
6.87456e-08
6.87811e-08
6.88294e-08
6.88653e-08
6.88852e-08
6.88932e-08
6.89035e-08
6.89075e-08
6.89055e-08
6.89047e-08
6.88983e-08
6.88762e-08
6.88409e-08
6.88136e-08
6.88083e-08
6.87961e-08
6.87566e-08
6.87257e-08
6.87136e-08
6.87041e-08
6.86919e-08
6.86827e-08
6.86729e-08
6.86619e-08
6.86648e-08
6.86739e-08
6.86849e-08
6.87178e-08
6.87118e-08
6.87533e-08
6.87157e-08
6.73776e-08
6.74222e-08
6.75282e-08
6.76859e-08
6.78542e-08
6.80347e-08
6.82052e-08
6.83545e-08
6.84778e-08
6.85676e-08
6.86244e-08
6.866e-08
6.8671e-08
6.86624e-08
6.86471e-08
6.8628e-08
6.86229e-08
6.86163e-08
6.86144e-08
6.86166e-08
6.86224e-08
6.86332e-08
6.86568e-08
6.86954e-08
6.87505e-08
6.88139e-08
6.88887e-08
6.89587e-08
6.9019e-08
6.90285e-08
6.90149e-08
6.89762e-08
6.89192e-08
6.88402e-08
6.87462e-08
6.86451e-08
6.85892e-08
6.85112e-08
6.84792e-08
6.84501e-08
6.84374e-08
6.84217e-08
6.83911e-08
6.8377e-08
6.83494e-08
6.83293e-08
6.83267e-08
6.83205e-08
6.83476e-08
6.83678e-08
6.84113e-08
6.8462e-08
6.85078e-08
6.85569e-08
6.86013e-08
6.86404e-08
6.86752e-08
6.87212e-08
6.87634e-08
6.88042e-08
6.88414e-08
6.88556e-08
6.88748e-08
6.88864e-08
6.89116e-08
6.89012e-08
6.88635e-08
6.88494e-08
6.88444e-08
6.88164e-08
6.87997e-08
6.87784e-08
6.87275e-08
6.86954e-08
6.86842e-08
6.86712e-08
6.8652e-08
6.86351e-08
6.86291e-08
6.86289e-08
6.86372e-08
6.86537e-08
6.8692e-08
6.86933e-08
6.87395e-08
6.87028e-08
6.63557e-08
6.63349e-08
6.64493e-08
6.66704e-08
6.69437e-08
6.72528e-08
6.75597e-08
6.78401e-08
6.80821e-08
6.82734e-08
6.84055e-08
6.85049e-08
6.8564e-08
6.85926e-08
6.86031e-08
6.86038e-08
6.8609e-08
6.86104e-08
6.86098e-08
6.86122e-08
6.86165e-08
6.86242e-08
6.86472e-08
6.8683e-08
6.87345e-08
6.87891e-08
6.88516e-08
6.89008e-08
6.89437e-08
6.89436e-08
6.89047e-08
6.88574e-08
6.8819e-08
6.8779e-08
6.87235e-08
6.86509e-08
6.85793e-08
6.85015e-08
6.84662e-08
6.84318e-08
6.84151e-08
6.83936e-08
6.83596e-08
6.83505e-08
6.83133e-08
6.82999e-08
6.82821e-08
6.82776e-08
6.82897e-08
6.82962e-08
6.83179e-08
6.83405e-08
6.83548e-08
6.83641e-08
6.83687e-08
6.83785e-08
6.83905e-08
6.84361e-08
6.84946e-08
6.85881e-08
6.86624e-08
6.87033e-08
6.87831e-08
6.88538e-08
6.88594e-08
6.88414e-08
6.88644e-08
6.88652e-08
6.88399e-08
6.88205e-08
6.88039e-08
6.87874e-08
6.87623e-08
6.87177e-08
6.86936e-08
6.86864e-08
6.86756e-08
6.86595e-08
6.86474e-08
6.86433e-08
6.86503e-08
6.86646e-08
6.87018e-08
6.87044e-08
6.87478e-08
6.87152e-08
6.44746e-08
6.43397e-08
6.44651e-08
6.47943e-08
6.52606e-08
6.57997e-08
6.6343e-08
6.68501e-08
6.73022e-08
6.76736e-08
6.79439e-08
6.81551e-08
6.83018e-08
6.83991e-08
6.84636e-08
6.8501e-08
6.85339e-08
6.85577e-08
6.85735e-08
6.85847e-08
6.85979e-08
6.86119e-08
6.86385e-08
6.86815e-08
6.87414e-08
6.88071e-08
6.88873e-08
6.89577e-08
6.90178e-08
6.90354e-08
6.90156e-08
6.89472e-08
6.88884e-08
6.88275e-08
6.87415e-08
6.86349e-08
6.85619e-08
6.84769e-08
6.84347e-08
6.83955e-08
6.83802e-08
6.83589e-08
6.83226e-08
6.83124e-08
6.82653e-08
6.82494e-08
6.82093e-08
6.81926e-08
6.81629e-08
6.8132e-08
6.80995e-08
6.80569e-08
6.79988e-08
6.791e-08
6.78233e-08
6.77687e-08
6.77274e-08
6.77892e-08
6.79035e-08
6.80449e-08
6.81964e-08
6.83841e-08
6.85253e-08
6.86339e-08
6.86888e-08
6.87787e-08
6.88205e-08
6.88098e-08
6.881e-08
6.8807e-08
6.87937e-08
6.87722e-08
6.87563e-08
6.87052e-08
6.86709e-08
6.86628e-08
6.8653e-08
6.86365e-08
6.86227e-08
6.86233e-08
6.86333e-08
6.86519e-08
6.86915e-08
6.86985e-08
6.87416e-08
6.87027e-08
6.11547e-08
6.08011e-08
6.09062e-08
6.14117e-08
6.22043e-08
6.31447e-08
6.41036e-08
6.50091e-08
6.58276e-08
6.65219e-08
6.70539e-08
6.74696e-08
6.7782e-08
6.80161e-08
6.8169e-08
6.82776e-08
6.83645e-08
6.84334e-08
6.84831e-08
6.85143e-08
6.85432e-08
6.85705e-08
6.86071e-08
6.86547e-08
6.87242e-08
6.87941e-08
6.88741e-08
6.89455e-08
6.90004e-08
6.89972e-08
6.8954e-08
6.89057e-08
6.88363e-08
6.87596e-08
6.86844e-08
6.8602e-08
6.85266e-08
6.8439e-08
6.84006e-08
6.83634e-08
6.83388e-08
6.83149e-08
6.8268e-08
6.82481e-08
6.818e-08
6.81427e-08
6.80574e-08
6.7986e-08
6.78918e-08
6.77707e-08
6.76446e-08
6.74704e-08
6.72671e-08
6.70179e-08
6.67661e-08
6.65847e-08
6.64903e-08
6.65243e-08
6.6732e-08
6.69733e-08
6.73207e-08
6.7669e-08
6.78952e-08
6.81182e-08
6.84137e-08
6.85501e-08
6.86196e-08
6.8699e-08
6.87487e-08
6.87654e-08
6.87736e-08
6.87652e-08
6.87586e-08
6.8734e-08
6.86897e-08
6.8669e-08
6.86641e-08
6.86509e-08
6.86328e-08
6.86247e-08
6.86285e-08
6.86501e-08
6.86902e-08
6.87026e-08
6.87449e-08
6.87148e-08
5.56341e-08
5.49365e-08
5.49997e-08
5.57607e-08
5.70505e-08
5.86241e-08
6.02545e-08
6.18066e-08
6.32193e-08
6.4447e-08
6.54216e-08
6.61871e-08
6.67886e-08
6.72422e-08
6.75745e-08
6.78023e-08
6.79882e-08
6.8129e-08
6.82528e-08
6.83345e-08
6.84085e-08
6.84695e-08
6.85302e-08
6.86049e-08
6.86978e-08
6.87945e-08
6.88751e-08
6.89352e-08
6.89874e-08
6.89761e-08
6.89129e-08
6.88401e-08
6.88201e-08
6.87838e-08
6.87122e-08
6.86115e-08
6.85128e-08
6.8401e-08
6.83379e-08
6.82936e-08
6.82727e-08
6.82356e-08
6.81658e-08
6.81224e-08
6.80143e-08
6.79254e-08
6.77616e-08
6.75915e-08
6.7365e-08
6.70785e-08
6.67523e-08
6.63265e-08
6.58115e-08
6.52238e-08
6.46015e-08
6.41104e-08
6.38966e-08
6.38892e-08
6.42383e-08
6.48241e-08
6.54426e-08
6.6007e-08
6.66438e-08
6.71873e-08
6.7611e-08
6.79365e-08
6.82257e-08
6.842e-08
6.85381e-08
6.86184e-08
6.8668e-08
6.86885e-08
6.86884e-08
6.86791e-08
6.86279e-08
6.86031e-08
6.86018e-08
6.85935e-08
6.85773e-08
6.85706e-08
6.85771e-08
6.85955e-08
6.86357e-08
6.8653e-08
6.86993e-08
6.86638e-08
4.69015e-08
4.56277e-08
4.56282e-08
4.67494e-08
4.87663e-08
5.12985e-08
5.39675e-08
5.65249e-08
5.88689e-08
6.09383e-08
6.26291e-08
6.39691e-08
6.50442e-08
6.58816e-08
6.64847e-08
6.69594e-08
6.73096e-08
6.75862e-08
6.78003e-08
6.79823e-08
6.81413e-08
6.82664e-08
6.83826e-08
6.8497e-08
6.86228e-08
6.8742e-08
6.88568e-08
6.89401e-08
6.90402e-08
6.90828e-08
6.90672e-08
6.89828e-08
6.88736e-08
6.87822e-08
6.86747e-08
6.85467e-08
6.84429e-08
6.83285e-08
6.82623e-08
6.81892e-08
6.81356e-08
6.80744e-08
6.79624e-08
6.78716e-08
6.76944e-08
6.74909e-08
6.7194e-08
6.68119e-08
6.63327e-08
6.57369e-08
6.50196e-08
6.41319e-08
6.30654e-08
6.18389e-08
6.06108e-08
5.96232e-08
5.90716e-08
5.91605e-08
5.97086e-08
6.07284e-08
6.18487e-08
6.30489e-08
6.41886e-08
6.51568e-08
6.60087e-08
6.68064e-08
6.73975e-08
6.78291e-08
6.81436e-08
6.83516e-08
6.84925e-08
6.85682e-08
6.86074e-08
6.86381e-08
6.86341e-08
6.85997e-08
6.85769e-08
6.85672e-08
6.8554e-08
6.85394e-08
6.85362e-08
6.85492e-08
6.8591e-08
6.86178e-08
6.86641e-08
6.8629e-08
3.41349e-08
3.20478e-08
3.17776e-08
3.31508e-08
3.59883e-08
3.98064e-08
4.40603e-08
4.81389e-08
5.1887e-08
5.52329e-08
5.80258e-08
6.02704e-08
6.20869e-08
6.34941e-08
6.45926e-08
6.54166e-08
6.60561e-08
6.65648e-08
6.69454e-08
6.72576e-08
6.75556e-08
6.78109e-08
6.80393e-08
6.82262e-08
6.84286e-08
6.86005e-08
6.87548e-08
6.8841e-08
6.89082e-08
6.89168e-08
6.88847e-08
6.87963e-08
6.86866e-08
6.86157e-08
6.85336e-08
6.84331e-08
6.8317e-08
6.81876e-08
6.81002e-08
6.80157e-08
6.79052e-08
6.77785e-08
6.75905e-08
6.739e-08
6.70817e-08
6.66656e-08
6.61294e-08
6.53854e-08
6.44761e-08
6.33376e-08
6.19255e-08
6.01958e-08
5.81545e-08
5.58343e-08
5.355e-08
5.17351e-08
5.06483e-08
5.07745e-08
5.17393e-08
5.3325e-08
5.54466e-08
5.75782e-08
5.94669e-08
6.13333e-08
6.30379e-08
6.44583e-08
6.56229e-08
6.65396e-08
6.72024e-08
6.76619e-08
6.79565e-08
6.8146e-08
6.82655e-08
6.83451e-08
6.83577e-08
6.83279e-08
6.83262e-08
6.83343e-08
6.83188e-08
6.82997e-08
6.82909e-08
6.83268e-08
6.83796e-08
6.84521e-08
6.85301e-08
6.8525e-08
2.05114e-08
1.87632e-08
1.8519e-08
1.95793e-08
2.1957e-08
2.54468e-08
3.00177e-08
3.54487e-08
4.10888e-08
4.63403e-08
5.07395e-08
5.43449e-08
5.72806e-08
5.95996e-08
6.13915e-08
6.28365e-08
6.3912e-08
6.47664e-08
6.54235e-08
6.59803e-08
6.64993e-08
6.69598e-08
6.73682e-08
6.77309e-08
6.80886e-08
6.83864e-08
6.86701e-08
6.88713e-08
6.898e-08
6.90048e-08
6.89635e-08
6.88917e-08
6.87872e-08
6.86714e-08
6.85481e-08
6.83891e-08
6.81991e-08
6.79872e-08
6.7791e-08
6.76178e-08
6.74378e-08
6.71958e-08
6.68847e-08
6.64931e-08
6.59587e-08
6.51942e-08
6.42126e-08
6.28567e-08
6.11634e-08
5.90701e-08
5.64778e-08
5.33394e-08
4.97534e-08
4.57711e-08
4.18586e-08
3.87951e-08
3.71047e-08
3.69868e-08
3.84247e-08
4.10289e-08
4.43636e-08
4.80512e-08
5.14698e-08
5.47162e-08
5.7636e-08
6.02459e-08
6.24207e-08
6.41132e-08
6.53893e-08
6.6315e-08
6.6995e-08
6.7455e-08
6.77338e-08
6.7875e-08
6.79948e-08
6.80215e-08
6.79982e-08
6.79791e-08
6.7953e-08
6.79277e-08
6.79037e-08
6.79139e-08
6.79554e-08
6.80459e-08
6.81452e-08
6.81458e-08
1.05334e-08
9.22305e-09
8.91663e-09
9.61262e-09
1.12576e-08
1.39233e-08
1.74114e-08
2.19124e-08
2.7365e-08
3.34633e-08
3.95764e-08
4.51286e-08
4.97484e-08
5.33995e-08
5.63603e-08
5.86558e-08
6.04181e-08
6.18194e-08
6.29338e-08
6.38523e-08
6.46974e-08
6.5459e-08
6.6141e-08
6.67101e-08
6.72334e-08
6.76692e-08
6.80409e-08
6.83678e-08
6.86704e-08
6.88523e-08
6.88532e-08
6.87583e-08
6.85953e-08
6.84121e-08
6.82303e-08
6.80472e-08
6.78235e-08
6.75354e-08
6.72455e-08
6.6949e-08
6.66031e-08
6.61678e-08
6.56324e-08
6.49205e-08
6.39802e-08
6.26474e-08
6.08983e-08
5.8588e-08
5.56908e-08
5.21812e-08
4.7949e-08
4.29874e-08
3.75532e-08
3.18965e-08
2.69483e-08
2.36206e-08
2.20159e-08
2.19704e-08
2.31725e-08
2.54792e-08
2.87539e-08
3.31917e-08
3.82747e-08
4.34826e-08
4.84942e-08
5.29196e-08
5.67376e-08
5.9819e-08
6.21652e-08
6.38839e-08
6.51066e-08
6.59512e-08
6.65159e-08
6.68641e-08
6.70765e-08
6.71667e-08
6.71548e-08
6.71393e-08
6.7138e-08
6.7115e-08
6.70793e-08
6.7096e-08
6.7169e-08
6.73548e-08
6.75413e-08
6.76159e-08
4.50835e-09
4.01262e-09
3.80966e-09
4.06981e-09
4.63363e-09
6.38799e-09
8.64477e-09
1.17013e-08
1.60271e-08
2.1235e-08
2.65564e-08
3.21893e-08
3.82468e-08
4.39092e-08
4.8494e-08
5.21573e-08
5.4928e-08
5.7119e-08
5.89277e-08
6.04709e-08
6.19005e-08
6.32029e-08
6.43339e-08
6.53291e-08
6.62108e-08
6.69445e-08
6.74878e-08
6.78476e-08
6.81355e-08
6.83646e-08
6.84381e-08
6.83851e-08
6.82536e-08
6.80791e-08
6.78482e-08
6.7567e-08
6.7225e-08
6.67915e-08
6.63076e-08
6.57879e-08
6.51881e-08
6.44218e-08