/*--------------------------------*- C++ -*----------------------------------*\
| =========                 |                                                 |
| \\      /  F ield         | OpenFOAM: The Open Source CFD Toolbox           |
|  \\    /   O peration     | Version:  v1912                                 |
|   \\  /    A nd           | Website:  www.openfoam.com                      |
|    \\/     M anipulation  |                                                 |
\*---------------------------------------------------------------------------*/
FoamFile
{
    version     2.0;
    format      ascii;
    class       volScalarField;
    location    "60";
    object      p;
}
// * * * * * * * * * * * * * * * * * * * * * * * * * * * * * * * * * * * * * //

dimensions      [1 -1 -2 0 0 0 0];


internalField   nonuniform List<scalar> 
14268
(
152999
152117
151460
151067
150907
150983
151265
151736
152374
153157
154043
155005
156025
157086
158173
159270
160354
161426
162517
163575
164600
165593
166550
167463
168327
169132
169865
170514
171062
171497
171806
171979
172006
171891
171629
171227
170691
170035
169272
168417
167483
166485
165434
164342
163221
162081
160929
159787
158675
157608
156609
155694
154882
154188
153624
153199
152919
152787
152801
152950
153229
153626
154127
154719
155385
156107
156867
157647
158429
159197
159937
160635
161285
161880
162416
162894
163319
163697
164038
164353
164650
164939
165227
165519
165819
166122
145417
144584
143967
143604
143473
143568
143864
144343
144985
145768
146654
147612
148629
149685
150767
151859
152938
154006
155094
156148
157171
158162
159117
160031
160895
161700
162435
163085
163636
164073
164384
164558
164586
164470
164208
163804
163266
162608
161843
160985
160049
159049
157996
156903
155780
154638
153483
152340
151224
150156
149154
148237
147423
146727
146162
145736
145457
145325
145339
145490
145770
146168
146672
147266
147934
148659
149421
150203
150988
151758
152500
153200
153850
154446
154982
155460
155884
156261
156601
156913
157209
157497
157785
158077
158377
158679
137881
137053
136446
136098
135973
136077
136381
136869
137518
138306
139197
140161
141180
142240
143324
144418
145499
146569
147657
148712
149736
150729
151685
152601
153468
154277
155015
155670
156225
156666
156981
157158
157185
157070
156806
156399
155857
155194
154425
153562
152622
151618
150561
149464
148337
147192
146033
144885
143764
142691
141684
140763
139945
139246
138679
138252
137973
137842
137858
138011
138294
138695
139203
139801
140474
141203
141971
142758
143547
144322
145067
145770
146423
147020
147556
148033
148455
148830
149167
149477
149770
150056
150342
150633
150934
151238
130277
129481
128903
128579
128478
128603
128922
129422
130079
130873
131769
132735
133756
134816
135900
136994
138074
139143
140229
141284
142308
143300
144258
145176
146047
146861
147606
148268
148830
149277
149597
149778
149808
149691
149425
149012
148465
147795
147018
146149
145202
144192
143130
142027
140895
139744
138578
137423
136295
135214
134200
133272
132449
131746
131176
130747
130467
130339
130357
130513
130800
131207
131720
132325
133004
133741
134516
135310
136107
136888
137639
138347
139003
139601
140138
140613
141033
141404
141737
142043
142332
142614
142898
143189
143490
143796
122662
121877
121313
121013
120925
121063
121398
121912
122582
123387
124293
125269
126298
127365
128454
129552
130636
131708
132797
133853
134879
135874
136834
137756
138633
139454
140208
140878
141450
141907
142234
142419
142451
142334
142063
141645
141089
140410
139623
138744
137789
136771
135702
134592
133453
132293
131119
129955
128817
127725
126701
125765
124934
124225
123651
123221
122940
122815
122836
122996
123289
123702
124223
124836
125525
126272
127056
127861
128667
129457
130216
130930
131590
132191
132728
133201
133618
133984
134311
134611
134895
135173
135453
135743
136044
136354
115016
114251
113710
113434
113369
113528
113882
114413
115096
115913
116830
117814
118850
119922
121016
122117
123203
124277
125367
126425
127452
128449
129413
130340
131224
132054
132819
133502
134086
134554
134890
135082
135116
134998
134723
134296
133730
133038
132239
131348
130382
129355
128277
127159
126010
124841
123656
122480
121329
120225
119188
118241
117400
116684
116105
115672
115390
115271
115294
115460
115760
116182
116712
117336
118036
118795
119593
120410
121228
122029
122798
123519
124185
124789
125326
125797
126209
126570
126889
127181
127458
127730
128007
128295
128598
128911
107336
106583
106062
105803
105760
105940
106316
106867
107569
108402
109334
110332
111380
112463
113565
114673
115764
116843
117936
118997
120027
121027
121996
122929
123822
124663
125440
126138
126737
127219
127567
127767
127804
127685
127403
126967
126387
125681
124867
123962
122983
121943
120855
119726
118567
117387
116189
114998
113832
112712
111660
110699
109848
109123
108538
108102
107819
107704
107731
107904
108213
108645
109187
109823
110538
111311
112124
112957
113789
114604
115384
116116
116788
117395
117933
118401
118808
119161
119472
119754
120022
120288
120560
120846
121149
121468
99631.8
98893.4
98395.1
98161.3
98141.1
98345.6
98745.1
99318.2
100040
100890
101839
102851
103911
105004
106114
107229
108326
109410
110505
111569
112602
113607
114580
115521
116424
117278
118072
118787
119404
119903
120265
120474
120515
120394
120105
119656
119061
118338
117505
116584
115589
114536
113436
112296
111125
109931
108717
107509
106325
105187
104117
103140
102275
101540
100948
100509
100227
100113
100148
100329
100647
101091
101646
102298
103029
103820
104651
105501
106352
107183
107977
108720
109400
110011
110549
111014
111414
111758
112058
112329
112587
112844
113110
113394
113699
114022
91888.4
91159.9
90681.8
90468.1
90476.1
90707.7
91134.7
91734.2
92480.7
93352.4
94320.9
95352.4
96428.6
97534.7
98657
99781.3
100886
101976
103076
104144
105180
106188
107168
108117
109031
109901
110712
111448
112087
112605
112983
113204
113250
113126
112829
112366
111752
111008
110155
109214
108202
107134
106020
104867
103682
102473
101242
100015
98809.2
97648.8
96558.5
95562.6
94681.9
93934.9
93335.5
92892.4
92611.8
92500.4
92542.4
92733.1
93063.1
93520.5
94091.5
94760.8
95510.7
96321.5
97173.1
98044.5
98914.8
99764.3
100575
101331
102020
102636
103174
103636
104028
104361
104649
104907
105152
105399
105658
105939
106245
106575
84117.7
83399.4
82945.7
82762
82791.7
83053.3
83510.3
84138.6
84911.6
85806.7
86796.8
87848.5
88941.9
90062.7
91197.4
92331.9
93445.1
94542.3
95645.8
96718.4
97758.4
98771.2
99757.2
100715
101642
102529
103362
104122
104785
105326
105724
105958
106009
105882
105575
105096
104461
103693
102815
101851
100820
99735.6
98606.7
97439.7
96240
95014.1
93763
92513.2
91283.6
90098.3
88983.9
87966.4
87067.9
86307.4
85699.2
85252.3
84972.2
84864.7
84915.2
85116.6
85459.8
85932.7
86521.3
87210.2
87981.5
88815.2
89690.4
90585.6
91479
92349.7
93178.9
93950.6
94650.6
95272.2
95809.9
96267
96650.1
96970.5
97243.5
97486.1
97716.8
97951.6
98202.8
98479.9
98787.8
99125
76305.4
75594.4
75166
74984.3
75066.4
75362.7
75853.5
76514.6
77318.3
78240.9
79256.2
80331.7
81445.5
82583.8
83733.5
84880.2
86003.3
87109.1
88217.5
89294.8
90338.6
91355.9
92348.3
93316.2
94257.5
95163.6
96020.4
96807.4
97498.6
98066.8
98486.7
98736.5
98794.3
98662.4
98344.6
97846.4
97186.5
96390.7
95485.7
94496.6
93443.7
92340.9
91196.1
90014.1
88798.3
87553.9
86280.5
85005.5
83748.3
82534.6
81392.8
80350.8
79432
78656.3
78038.4
77587.2
77308.2
77205.4
77265.7
77479.1
77837
78327.1
78935.4
79646.2
80441.6
81300.9
82202.8
83124.8
84044.2
84939.1
85789.4
86579
87291
87918.5
88456.4
88908.3
89280.9
89586.8
89842.9
90067.4
90281.3
90502.2
90743.9
91016.9
91326.5
91671.9
68459.4
67754.5
67358.9
67207
67316.6
67649.1
68176.9
68873.7
69710.9
70663.5
71706
72807.2
73943.1
75100.6
76266.4
77426.4
78560.4
79675.8
80789.5
81871.8
82919.3
83941.3
84940.3
85918.6
86875.4
87802.9
88686.7
89504.6
90228.2
90827.1
91272.7
91540.8
91607.5
91468.3
91138.3
90618.3
89929.8
89102.2
88165.8
87148.6
86071.9
84949.4
83788
82590.2
81357.4
80093
78794.7
77491.6
76203.4
74957.4
73784.6
72714.9
71773.3
70980.6
70352
69896.3
69619.4
69527
69593.5
69819.9
70194.1
70703.3
71333.3
72068.5
72890.5
73778.4
74710
75662.1
76610.8
77532.8
78406.9
79217
79942.3
80576.4
81115.1
81559.9
81920.9
82210.1
82446.9
82650.6
82845
83049.9
83280.5
83548.7
83860.2
84214.5
60569.6
59868.1
59512.6
59387.4
59530.7
59903
60471.7
61208.5
62083.2
63069.7
64142.7
65272.6
66433.5
67612.5
68796.5
69971.6
71117.7
72244
73363.3
74450.5
75501.6
76527.6
77533
78521.9
79495.3
80446.3
81360.1
82212.8
82973.4
83607.5
84082.6
84371.8
84448.8
84299.5
83957
83412
82690.6
81826.7
80855.1
79806.5
78703.8
77560.7
76382.2
75168.2
73917.6
72631.8
71306.1
69971.7
68648.6
67366.3
66158.5
65057.6
64090.6
63279.2
62638.9
62177.9
61904.7
61818.7
61897.2
62138.3
62530.5
63060.7
63714.6
64476.5
65327.9
66247.3
67211.9
68197.4
69178.8
70131.1
71031.5
71865.4
72605.2
73246.9
73785.9
74223.6
74570.5
74841.2
75055.1
75235.4
75407.3
75593.9
75811.8
76074.4
76387.9
76752.7
52640.5
51950.5
51621.1
51530.6
51713.6
52129.6
52743
53523.4
54439.1
55462.5
56568.5
57729.3
58917.4
60119.8
61323.7
62515
63674.2
64813.1
65938.3
67030.2
68084.6
69114.3
70125.7
71125.4
72116.3
73092.8
74040
74931.7
75734.3
76408.6
76917.4
77230.6
77324.6
77156.7
76802.6
76228.8
75469.6
74564.4
73552.9
72469.6
71338.9
70174.1
68978.3
67748.2
66479.3
65170.8
63814.9
62445.9
61083.8
59760.7
58513.6
57377.9
56382.7
55550.9
54897.7
54430.9
54163.8
54085.9
54176.4
54433.8
54845.7
55398.8
56078.7
56869.8
57753.3
58707.2
59708.2
60730.7
61748.3
62734.4
63663.4
64525.6
65280.8
65930.9
66469.9
66900
67230.7
67480.3
67668.2
67821.8
67968
68133.7
68336.9
68592.8
68908.4
69285.4
47239.9
46563
46243.3
46182.8
46396.8
46845.6
47492.4
48305.3
49251.5
50302.5
51433.1
52616.6
53825
55044.7
56263.3
57466.6
58635.3
59784
60913
62007.7
63063.8
64095.4
65110.2
66117
67120.3
68115.5
69087.8
70009.1
70843.9
71549.1
72083.9
72415.1
72516.3
72346.7
71977.8
71381
70592.4
69655.4
68613.8
67504.7
66353.7
65174
63966.8
62725.9
61444.3
60119.6
58741.4
57346.5
55955
54601
53324.1
52162.1
51145.8
50299.1
49636.6
49165.4
48904.6
48831.9
48932
49201.7
49628.1
50197.9
50896.9
51709.4
52616.7
53596.2
54624.1
55674.2
56719
57730.6
58683.4
59562.1
60331
60987.7
61526.6
61950.5
62269.5
62502.3
62670.7
62803.4
62929.7
63078.9
63270.9
63521.7
63839
64224.8
44409.7
43739.5
43425.9
43381.3
43612.1
44078.7
44743.5
45574
46536.7
47602.5
48746.3
49942
51161.2
52390.2
53616.8
54826.5
56000.1
57154.4
58285.3
59381.4
60438.3
61470.7
62487.2
63497.6
64507.4
65512.7
66498.5
67436.1
68288.4
69010.5
69559.6
69900.7
70004.7
69836.3
69458.3
68848.9
68044.1
67089.7
66031.6
64908.6
63746.8
62559.3
61346.1
60099.7
58811.6
57478.3
56088
54679.1
53271.7
51900.8
50607.7
49431.3
48403.7
47548.9
46881.5
46407.8
46150.8
46080.7
46186.2
46462.5
46896.8
47475.6
48184.8
49008.8
49928.8
50922.1
51964.6
53029.6
54089.1
55114.6
56080.2
56968
57744.4
58404.6
58943.5
59363.9
59676.6
59900.2
60057.9
60179.2
60294.6
60434.7
60620.6
60868.5
61186.8
61577.3
41573.1
40909.9
40603.1
40574.4
40822.8
41307.9
41991.3
42839.9
43819.6
44900.8
46058.1
47266.3
48496.7
49735.3
50970
52186.3
53365
54525.1
55657.9
56755.3
57813
58846
59864
60878
61894.4
62910
63909.8
64864.1
65734.7
66474.6
67038.7
67390
67497.4
67329.6
66942.6
66319.9
65498.2
64525.5
63450.4
62312.9
61140
59944.7
58725.7
57473.9
56179.4
54837.5
53434.7
52011.3
50587.3
49198.8
47888.8
46697.5
45658.1
44795
44122.6
43646.2
43393.6
43326.1
43437
43720.2
44162.6
44750.7
45470.4
46306.2
47239.3
48246.8
49304.3
50384.8
51459.4
52499.3
53478.2
54375.6
55159.6
55823.5
56362.3
56779.2
57085.1
57299.2
57445.7
57555.1
57659.1
57789.6
57969.2
58214.1
58533.2
58929
38729.9
38074.3
37774.7
37762.3
38029
38533.3
39235.8
40103.2
41100.3
42197.3
43368.7
44589.5
45831.4
47080
48323
49546.1
50729.8
51896.4
53030.8
54129.4
55187.8
56221.3
57240.6
58258.1
59281.1
60307.2
61321.5
62293.2
63183
63941.4
64521.1
64883.4
64995.1
64826.9
64430.8
63794
62954.6
61962.9
60869.9
59717.4
58533.3
57330.2
56105.6
54848.7
53547.8
52197.1
50781.3
49343
47901.7
46494.9
45167.3
43960.5
42908.8
42037.3
41359.8
40880.4
40632.9
40567.9
40684.6
40974.9
41425.6
42023.1
42753.6
43601.5
44548.1
45570.2
46643.3
47739.5
48830
49884.7
50877.4
51784.9
52576.6
53244.4
53783.2
54196.3
54495.2
54699.5
54834.3
54931.2
55023.2
55143.7
55316.6
55558.3
55878.3
56279.7
35879.7
35232.5
34940.5
34944.7
35230.6
35754.7
36477
37363.8
38378.9
39492.2
40678
41911.8
43165.6
44424.2
45675.8
46905.9
48094.5
49268.2
50404.1
51503.8
52562.7
53596.5
54617
55637.8
56667.4
57704.4
58733.5
59723.4
60633.1
61411
62007.1
62380.7
62496.7
62327.9
61922.7
61271.2
60413.2
59401.6
58290.1
57122.3
55926.8
54716
53485.9
52224
50916.6
49557.1
48127.9
46674.1
45214.9
43789
42443
41220.2
40155.9
39275.7
38593
38110.3
37868.8
37806.2
37928.7
38226.4
38685.6
39292.9
40034.4
40894.7
41855.2
42892.4
43981.4
45094
46200.8
47271
48277.8
49195.9
49995.7
50667.4
51206.2
51615.4
51907
52100.9
52223.4
52307.3
52386.9
52496.8
52662.8
52901.1
53222.1
53629.1
33022.7
32384.2
32100.3
32121.8
32427.6
32972.2
33714.9
34621.7
35655.3
36785.4
37986
39233.1
40499
41768.1
43028.6
44265.7
45459.1
46640.6
47777.8
48878.4
49937.8
50971.6
51993.1
53017.1
54053.4
55101.4
56145.9
57154.6
58085.1
58883.3
59496.7
59882.3
60003.8
59833.2
59418.6
58751.7
57874.2
56841.8
55711
54527.4
53320.2
52101.7
50866.4
49599.6
48285.9
46917.4
45474.5
44004.7
42526.8
41081.1
39716.1
38476.5
37399.1
36510
35822.1
35335.6
35101.4
35040.8
35169.4
35474.7
35942.8
36559.9
37312.8
38185.9
39160.6
40213.2
41318.6
42448.3
43571.9
44658
45679.5
46608.7
47416.8
48092.7
48631.3
49036.5
49320.4
49503.5
49613.3
49683.6
49750.1
49849
50007.6
50242.4
50564.3
50977.3
30158.6
29529.2
29253.9
29293.2
29619.8
30185.8
30949.5
31876.9
32929.5
34076.9
35292.8
36553.5
37831.8
39111.6
40381.2
41625.7
42823.6
44014
45151.8
46253.3
47313
48346.7
49368.9
50395.9
51438.7
52498
53558.5
54586.7
55539
56358.5
56989.8
57388
57514.1
57342.5
56918.4
56235.4
55337.5
54283.3
53132.5
51932.4
50713.5
49487.3
48246.9
46975.6
45655.6
44278.3
42821
41334.8
39837.5
38371.1
36986.2
35729.3
34638.4
33740.1
33047.2
32556.3
32330.7
32271.7
32406.7
32719.9
33196.9
33824.2
34588.7
35474.9
36464.1
37532.6
38655
39802.2
40943.1
42045.7
43082.5
44023.4
44840
45520.1
46058.7
46459.6
46735.6
46907.5
47003.9
47059.9
47112.8
47200.1
47351.1
47582.1
47905
48324
27185.7
26566.7
26300.7
26359.2
26708.2
27297
28083.1
29032.7
30105.5
31271.3
32503.4
33778.5
35070
36361.2
37640.4
38892.7
40094.9
41295.7
42433.8
43535.9
44595.9
45629.1
46651.8
47681.7
48731.4
49802.6
50880.2
51929.4
52905.1
53747.6
54398.6
54810.4
54942.8
54768.7
54334.3
53633.7
52713.7
51635.9
50463.4
49245.9
48014.5
46780.6
45535.4
44259.6
42933.2
41546.8
40074.1
38570.3
37052.1
35563.5
34157.1
32881.6
31776.2
30868.3
30170.2
29677.4
29455.6
29401
29543
29864.6
30351.2
30989.3
31766
32666
33670.8
34756.2
35896.6
37062.4
38222
39342.3
40395.3
41348.8
42174.6
42859.3
43397.8
43794.2
44061.5
44221.2
44303.2
44343.9
44382
44456.6
44599.5
44826.4
45150.3
45575.9
24103.1
23495.9
23239.3
23318.7
23692
24305.4
25115.3
26088.7
27182.9
28368.4
29617.7
30907.9
32213.5
33516.7
34806.3
36067
37272.9
38486.2
39623.7
40726.3
41786.5
42819
43841.8
44874.5
45931.2
47015
48110.7
49182.7
50183.6
51051.1
51723.3
52150.1
52288.7
52112.4
51666.9
50947.2
50003
48899.7
47703.9
46467.8
45223.4
43981.6
42731.6
41451.6
40118.9
38723
37233.7
35711.1
34170.5
32657.8
31228.3
29932.7
28811.8
27893.6
27190.6
26698.8
26474.7
26428.2
26577.8
26908.3
27405.2
28054.6
28844.3
29758.9
30780.2
31883.6
33043.3
34229
35408.5
36547.7
37618.3
38585.5
39421.1
40110.6
40649
41040.5
41298.4
41445.1
41511.5
41535.5
41557.6
41618.5
41752.4
41974.7
42299.8
42732.6
21009.2
20417.3
20170.2
20271.4
20670.2
21309.3
22143.5
23141.7
24257.8
25463.6
26730.7
28036.4
29356.3
30672
31972.2
33241.6
34454.1
35674.5
36814
37917
38977.2
40008.6
41031.2
42066.4
43129.9
44226.6
45341.1
46436.8
47464.2
48358
49052.7
49495
49640.5
49461.5
49004.4
48264.7
47295.1
46165
44944.7
43689.2
42431.7
41182.4
39928.1
38644.3
37305.2
35900
34393.4
32851.4
31287.4
29749.6
28295.9
26979.5
25842.5
24913.7
24206.1
23714.7
23489.7
23450.9
23608.4
23948.3
24455.7
25116.6
25919.6
26849.3
27887.4
29009.4
30188.9
31395.2
32595.2
33754.1
34843
35824.4
36670.2
37364.7
37903
38289.3
38537.6
38670.6
38720.6
38727.2
38732.5
38779.1
38903.3
39121
39447.2
39887.6
17908.2
17332.4
17092.7
17217.2
17642.7
18308.5
19167.8
20191.7
21330.2
22557.1
23842.4
25163.8
26498.5
27826.9
29138.1
30416.6
31636.7
32862.5
34004.6
35108.2
36168.3
37198.2
38220.1
39257.5
40327.9
41437.6
42571.6
43691.8
44746.9
45668.2
46386.5
46845.4
46999.1
46816.2
46346.9
45585.8
44589.6
43431.3
42185.7
40910.2
39639.4
38382.8
37124.6
35837.5
34492.4
33078
31553.4
29991.4
28402.9
26838.8
25359.9
24021.8
22868.2
21928.5
21216.3
20725.5
20500.1
20469.4
20634.9
20984.5
21502.6
22175.3
22991.9
23936.9
24992.5
26133.5
27333.3
28560.9
29782.3
30961.5
32069.3
33065.6
33922.1
34621.8
35159.9
35540.9
35779
35897.7
35930.5
35918.9
35906.6
35938.4
36051.9
36264.9
36592.4
37040.7
14790.6
14236.3
14005.5
14156.7
14609.5
15303.3
16188
17238.9
18400.2
19648.8
20952.8
22290.3
23640.1
24981.6
26304.1
27592.1
28820.3
30050.7
31195.6
32299.9
33359.5
34387.5
35408.4
36447.5
37524.6
38647.7
39801.9
40947.8
42031.5
42981.7
43724.8
44201.1
44360.2
44176.1
43694.1
42910.7
41886.5
40698.7
39426.7
38130.8
36846.6
35583
34321.5
33031.5
31680.6
30256.8
28713.7
27130.8
25516.9
23925.4
22420.2
21059.6
19888.7
18937.9
18221
17731.2
17505.9
17483.2
17657.4
18016.8
18545.9
19230.7
20061.1
21021.8
22095.2
23255.7
24476.7
25726.1
26969.5
28169.8
29297.5
30309.2
31176.8
31881.9
32419.8
32795.2
33022.7
33126.5
33141.3
33110.6
33079.8
33096
33198.5
33406.5
33735.2
34191.8
11683.2
11131.5
10910.8
11086.9
11570.6
12293.3
13204
14283.3
15467.8
16738.7
18062
19415.9
20781.1
22136.1
23470.2
24768.1
26004.9
27239.1
28387.3
29492.2
30550.9
31576.7
32596.1
33636.5
34720.1
35856.7
37031.6
38204.3
39318.2
40298.7
41067.9
41562.6
41732.8
41542.9
41047.6
40240.5
39186.7
37967.6
36667.4
35350.1
34052.8
32782.5
31518.5
30226
28869.8
27436.7
25874.3
24270
22629.8
21009.5
19476.8
18092.6
16903.7
15941.7
15219.8
14732
14507
14492.6
14675.6
15045.2
15585.7
16282.7
17127.2
18104
19195.5
20376.2
21618.8
22890.8
24157.1
25379.1
26527.5
27555.3
28434.4
29145
29682.8
30052.3
30268.8
30357
30353
30302.3
30252.1
30252
30342.8
30545.5
30875.5
31340.9
8553.62
7994.39
7801.38
8015.53
8526.23
9278.22
10215.5
11324.5
12532.6
13827
15169.9
16540.5
17921.5
19290.4
20636.5
21944.7
23190.4
24428.1
25579.6
26684.9
27742.4
28765.6
29783
30824.4
31914.2
33064.5
34260.7
35461.2
36606.5
37618.9
38415.7
38929.7
39106.6
38914.5
38404.9
37573.1
36488.3
35236.8
33907.9
32569
31258.1
29981.7
28715.6
27421.4
26060.4
24618.2
23035.2
21408.8
19740.5
18090.2
16529.3
15120.9
13914.1
12940.6
12212.9
11727.9
11503
11497.7
11689.5
12069.8
12621.8
13331.1
14190.1
15183.5
16293.6
17494.9
18759.7
20055
21344.8
22589.3
23759.5
24803.9
25695
26411.4
26948.9
27312.4
27517.3
27589.3
27565.6
27493.9
27423.5
27406.2
27484.8
27681.8
28013.2
28487.6
5452.41
4874.25
4697.45
4928.99
5470.36
6260.81
7223.14
8362.13
9594.73
10913.3
12276.6
13664
15061.3
16444.5
17803
19121.9
20376.8
21617.7
22772.6
23878.2
24934.2
25954.3
26969
28010.7
29106.4
30270.7
31489.1
32719.1
33896.9
34942.6
35768.4
36302.7
36488.8
36292.6
35768.5
34910.3
33792.6
32507.2
31148.7
29787.4
28462.9
27180.6
25912.9
24617.6
23251.9
21800.9
20196.3
18547.8
16850.5
15168.8
13578.3
12144.5
10918.6
9932.54
9199.07
8718.08
8493.92
8499.73
8698.88
9090.18
9654.26
10376
11249.6
12259.6
13389.2
14611.8
15899.4
17218.6
18532.9
19800.5
20993.5
22055.1
22958.8
23681
24218.3
24575.5
24768.4
24823.6
24779.1
24685.6
24593.9
24558.5
24624.2
24815.3
25148.1
25632
2333.2
1871.96
1757.83
2005.4
2545.87
3283.64
4222.61
5399.29
6654.95
7997.46
9382.08
10786.9
12200.7
13598.3
14969.6
16299.5
17564
18808
19966.4
21072.2
22126.4
23143
24154.5
25195.8
26297.2
27475.3
28716.4
29976.5
31188.8
32269.7
33126.1
33681.9
33877.7
33677.2
33137.9
32252.2
31100.1
29778.9
28388.3
27003.2
25665.5
24378
23109.9
21814.3
20444.8
18980.7
17364.2
15687.2
13958.6
12242.9
10620.5
9160.59
7916.7
6920.31
6184.16
5706.09
5479.74
5489.41
5701.35
6107.16
6683.78
7417.45
8305.59
9332.56
10481.3
11726.1
13038
14381.7
15721.1
17012.5
18229.6
19309
20225.8
20954.1
21491.1
21841.7
22022.2
22059.7
21993.4
21877.1
21763.1
21708.7
21761
21945.7
22279.8
22773.8
441.644
284.982
264.761
348.149
556.354
928.372
1557.45
2554.91
3719.34
5079.69
6486.13
7909.1
9340.11
10752.3
12136.4
13477.4
14752
15999
17160.9
18266.6
19318.5
20331.3
21339.2
22379.8
23486.6
24679
25943.3
27234.3
28482.3
29599.9
30488.8
31067.2
31274.8
31068.7
30512.8
29598.1
28409.7
27050.4
25626.2
24217.5
22866.5
21575.2
20307.8
19012.8
17639.8
16161.3
14531.4
12824.6
11064.2
9315.54
7663.64
6181.61
4921.67
3928.16
3216.44
2774.88
2577.97
2606.4
2806.51
3181.28
3725.26
4453.85
5358.77
6403.55
7570.97
8837.06
10173.5
11543.9
12909.6
14226.2
15467.1
16565.4
17496.1
18230.6
18767.5
19111.2
19278.7
19297.8
19209
19068.9
18931.2
18857
18895.1
19073
19408.8
19913.1
49.1145
45.1594
43.5968
44.0014
51.6318
88.4905
219.126
602.511
1249.1
2315.42
3601.62
5029.34
6478.69
7906.5
9304.06
10656.5
11941.3
13191
14356.4
15461.7
16510.7
17518.8
18522
19561.2
20673.4
21880.6
23169.3
24493
25778
26933.7
27856.6
28458.9
28676.4
28466.7
27893.2
26947.5
25720.4
24321.6
22863.8
21431.5
20067.1
18772
17505.7
16211.5
14834.8
13343.1
11698.8
9964.91
8173.63
6389.93
4713.42
3234.8
2087.91
1377.16
945.719
713.59
618.604
624.076
717.673
904.008
1221.45
1755.44
2537.39
3494.62
4658.71
5947.89
7306.64
8703.31
10097.5
11441.5
12706.3
13824.6
14769.6
15510.6
16047.3
16384
16538
16538
16425.2
16259.5
16097.9
16002.9
16026.1
16197.1
16534.3
17049.3
40.8608
37.6755
34.4652
32.0228
29.5755
28.2068
29.3852
46.1785
141.859
517.909
1200.77
2298.11
3625.51
5059.01
6470.74
7835.69
9131.9
10384.1
11553.2
12658.1
13703.9
14706.7
15703.6
16739.9
17856.3
19077.9
20392.4
21751.5
23075.7
24271.5
25230.1
25857.2
26082
25871.2
25279.4
24300.7
23033.7
21595
20101.8
18644.2
17266.3
15967.8
14703.5
13411.3
12032.3
10529.2
8870.01
7106.58
5284.37
3486.57
1952.62
962.679
395.758
196.635
107.332
67.6255
53.0739
52.0875
60.7978
84.2668
143.926
296.987
612.899
1111.64
1965.45
3106.53
4441.28
5862.54
7284.31
8656.81
9947.26
11086.6
12046.9
12794.1
13330.5
13660.1
13800.1
13780.4
13642.7
13451.5
13263.9
13146.4
13154.1
13317.7
13656.1
14182.4
37.0019
33.865
30.6739
28.031
25.2589
23.0877
21.0955
19.8243
20.5284
34.2058
129.568
527.264
1231.85
2347.51
3644.39
5012.4
6321.22
7576.85
8750.93
9855.18
10897.7
11895.2
12885.7
13918.3
15037.6
16272.8
17612.7
19007.5
20373.8
21612.5
22609
23262.4
23503.7
23284.1
22674
21661.7
20352.4
18870.2
17337.9
15852.7
14461.7
13161.2
11900.6
10612.1
9232.17
7717.72
6042.41
4256.34
2488.7
1146.88
351.33
102.89
22.9403
20.6097
20.3016
20.5249
20.7207
20.7106
20.7445
21.0483
22.2841
27.1565
45.6672
116.999
380.377
915.137
1820.83
3071.38
4473.98
5872.44
7189.42
8351.49
9328.07
10081.8
10617.7
10939.6
11064.9
11024.5
10860.5
10642.1
10427.1
10287.3
10278.7
10434.6
10775
11313.1
33.0267
30.0224
26.9668
24.5895
21.8056
19.5878
17.3214
15.504
14.028
12.8895
14.1303
29.4936
138.009
561.324
1258.78
2329.66
3523.92
4767.69
5947.91
7051.72
8091.7
9083.22
10067.2
11095.9
12219.1
13468.6
14833.8
16263.4
17672.3
18955.4
19992.9
20674.4
20928.4
20704
20074.5
19026.6
17669.9
16140.6
14568.6
13057.1
11654
10353.2
9099.02
7815.73
6436.68
4914.27
3247.22
1688.2
592.597
138.755
16.2696
14.7752
15.2559
16.1993
15.9565
16.1238
16.2108
16.0628
15.7941
15.4274
14.9367
14.7154
14.9544
16.041
25.1054
77.8128
331.146
918.498
1886.95
3129.16
4435.23
5619.27
6613.71
7373.98
7909.44
8223.23
8333.29
8271.5
8080.57
7833.61
7589.51
7426.19
7400.68
7548.27
7889.95
8440.75
29.1886
26.2895
23.2818
20.6854
18.165
16.0461
13.8984
12.0973
10.3899
8.77829
7.67289
6.54051
8.92101
28.402
146.354
561.364
1194.93
2134.33
3179.89
4248.87
5284.97
6269.66
7246.24
8270.57
9397.3
10661.8
12054.8
13522.4
14974.2
16301.7
17381.8
18092.9
18358.1
18130
17478.8
16392.4
14987
13409.7
11797.9
10261.5
8846.81
7547
6300.41
5026.42
3663.51
2235.59
1038.66
276.182
35.1048
10.5429
11.3916
11.2079
11.6438
12.414
12.3241
12.4948
12.575
12.5122
12.2383
11.8204
11.2323
10.7634
10.3342
9.42018
9.12459
9.68573
17.6034
74.2898
365.909
977.119
1896.13
2937.91
3904.24
4670.42
5206.08
5511.22
5605.04
5520.87
5299.96
5024.17
4750.72
4563.73
4518.12
4655.66
4999.17
5564.3
25.3028
22.5062
19.6159
17.1398
14.6302
12.4902
10.3531
8.61427
7.00285
5.40965
4.073
2.49653
1.91444
1.5165
4.20274
24.8155
129.725
476.116
990.999
1711.28
2578.8
3471.34
4422.15
5439.95
6569.46
7849.2
9271.42
10780
12278.8
13653.2
14777
15518.2
15796.4
15564.2
14889.5
13763.1
12308
10681.9
9028.48
7465.18
6039.72
4745.69
3523.84
2341.35
1317.37
490.734
104.911
3.96509
7.07783
6.77906
7.74683
7.64372
8.09775
8.80008
8.77139
8.93372
8.99277
8.85626
8.63877
8.25376
7.70993
7.22774
6.76611
5.8083
5.03048
4.00912
3.20576
3.86361
13.3344
79.8146
379.255
890.012
1501.79
2125.78
2595.03
2867.52
2939.75
2842.39
2620.64
2349.66
2092.35
1912.95
1860.48
1971.02
2264.75
2765.97
21.4483
18.7428
15.9137
13.4449
11.0429
8.96724
6.89453
5.14276
3.51055
1.95023
0.687739
-0.811102
-1.65224
-2.69255
-3.4315
-3.54856
-1.02337
14.849
81.6204
297.242
674.467
1155.41
1834.53
2692.61
3742.88
5029.66
6483.2
8034.72
9583.14
11007.8
12178.4
12951.3
13244.3
13007.5
12307.5
11140.4
9633.77
7955.52
6258.4
4670.83
3260.76
2089.62
1221.38
540.838
170.394
9.20096
-5.66461
0.301998
3.25066
3.08401
4.11101
4.11905
4.55849
5.18958
5.22185
5.37787
5.42586
5.37346
5.08273
4.70235
4.17817
3.69474
3.21188
2.30959
1.51454
0.442308
-0.751783
-1.99474
-3.17841
-2.36038
7.80315
59.7011
225.552
498.209
733.57
881.077
917.088
850.439
716.591
566.688
441.819
360.622
335.322
375.795
495.571
729.204
17.5798
14.9765
12.2441
9.83816
7.47377
5.41506
3.39084
1.67369
0.0769356
-1.47598
-2.74564
-4.18324
-5.02671
-6.03931
-6.98059
-7.82256
-8.56018
-8.4909
-6.748
1.05698
29.9148
114.763
337.714
716.469
1317.53
2342.34
3698.12
5287.26
6888.75
8364.33
9585.76
10392.4
10698.3
10460.1
9733.21
8523.62
6962.38
5230.61
3508.87
2033.39
1046.89
416.029
141.603
9.98065
-7.98237
-7.81235
-8.71492
-3.32469
-0.49518
-0.561737
0.504366
0.593056
1.02243
1.59477
1.67248
1.81441
1.85781
1.75808
1.52066
1.15639
0.647124
0.168518
-0.341096
-1.19856
-2.00252
-3.04654
-4.23243
-5.55964
-7.14495
-8.44613
-9.47111
-9.31633
-5.25802
8.55721
35.4122
64.3806
76.2774
65.5018
42.4129
21.3573
9.53837
5.41422
4.48623
6.48366
12.8654
33.6767
13.7217
11.2067
8.54461
6.18709
3.89839
1.88066
-0.0998969
-1.80488
-3.37339
-4.88173
-6.14657
-7.55129
-8.43864
-9.43105
-10.3326
-11.1676
-12.0695
-12.629
-13.1127
-13.376
-12.6131
-9.57429
-0.0959504
31.0592
150.57
551.968
1310.74
2620.71
4193.41
5724.54
6999.54
7842.15
8168.07
7927.4
7167.25
5911.21
4301.43
2580.37
1221.25
390.617
95.9763
-7.88738
-13.219
-13.4423
-11.5975
-11.1257
-11.6993
-6.92645
-4.20995
-4.1619
-3.10717
-2.9356
-2.51171
-1.99012
-1.87903
-1.74429
-1.70484
-1.79156
-2.03888
-2.38912
-2.88257
-3.35297
-3.88696
-4.70616
-5.52265
-6.53601
-7.69684
-8.99992
-10.5129
-11.8915
-13.3381
-14.6539
-15.6785
-16.3047
-16.2696
-15.7397
-15.0866
-14.4376
-13.7356
-12.9359
-12.1405
-11.543
-11.0697
-10.8234
-10.8365
-10.7184
9.86836
7.44779
4.86626
2.55926
0.316277
-1.66929
-3.60439
-5.28244
-6.83866
-8.32308
-9.57345
-10.9058
-11.8259
-12.8083
-13.7094
-14.5422
-15.4044
-15.973
-16.5739
-17.1719
-17.4849
-17.5504
-17.4085
-16.6086
-12.8728
8.08607
144.303
703.265
1726.11
3109.16
4421.42
5301.96
5701.41
5397.43
4606.05
3335.76
1848.71
677.4
135.71
-14.5087
-18.9877
-18.0871
-16.7709
-16.6622
-15.074
-14.4643
-14.7307
-10.4966
-7.90986
-7.73585
-6.71502
-6.46574
-6.04808
-5.56736
-5.43011
-5.30007
-5.26586
-5.34061
-5.5892
-5.93258
-6.41018
-6.87395
-7.42349
-8.21075
-9.03009
-10.0191
-11.1606
-12.4294
-13.8938
-15.2559
-16.6502
-17.8943
-18.9581
-19.7049
-19.9691
-19.8174
-19.3935
-18.7308
-17.8882
-16.9694
-16.0886
-15.3475
-14.9614
-14.8166
-14.997
-15.5017
6.01853
3.68227
1.17427
-1.07441
-3.25794
-5.20845
-7.10088
-8.75552
-10.2981
-11.7488
-12.9956
-14.2911
-15.2227
-16.1827
-17.0803
-17.9125
-18.7504
-19.3229
-19.9154
-20.5146
-20.8875
-21.1385
-21.4473
-21.8469
-22.32
-22.533
-19.6163
16.2603
304.927
1024.19
2004.03
2808.77
2957.76
2912.98
2195.02
1214.33
337.683
13.7017
-24.1641
-23.004
-22.4002
-21.4688
-20.2604
-19.9363
-18.5001
-17.8144
-17.822
-14.0505
-11.5966
-11.2939
-10.3131
-9.99899
-9.58425
-9.13538
-8.97813
-8.85179
-8.82039
-8.89313
-9.13632
-9.47467
-9.93531
-10.4026
-10.9522
-11.7166
-12.5321
-13.5082
-14.6266
-15.8601
-17.2662
-18.5952
-19.9572
-21.168
-22.177
-22.8885
-23.154
-23.029
-22.6325
-22.0045
-21.2156
-20.3555
-19.5404
-18.8661
-18.4482
-18.3023
-18.4894
-18.9954
2.17888
-0.0733326
-2.51075
-4.7083
-6.84267
-8.75694
-10.606
-12.2362
-13.7566
-15.1781
-16.413
-17.6698
-18.6187
-19.5664
-20.4483
-21.2707
-22.0925
-22.6826
-23.282
-23.8505
-24.2413
-24.5189
-24.8429
-25.3384
-26.0359
-27.0645
-28.5736
-29.7316
-21.793
66.3939
455.772
913.918
1137.98
1004.36
542.781
135.798
-31.3888
-33.8303
-27.8767
-26.4756
-25.8194
-24.8285
-23.6913
-23.2296
-21.9218
-21.1611
-20.9525
-17.5979
-15.2645
-14.847
-13.9046
-13.5353
-13.1212
-12.6974
-12.5251
-12.4016
-12.3727
-12.447
-12.6841
-13.0149
-13.4591
-13.925
-14.4792
-15.2233
-16.0333
-16.9892
-18.084
-19.2938
-20.6455
-21.9343
-23.2437
-24.423
-25.4002
-26.0813
-26.3474
-26.2437
-25.8743
-25.2871
-24.5351
-23.7163
-22.9412
-22.311
-21.9334
-21.8041
-21.9791
-22.4699
-1.65762
-3.83112
-6.19782
-8.33942
-10.4215
-12.3013
-14.1125
-15.7188
-17.2183
-18.611
-19.8377
-21.0562
-22.0131
-22.9463
-23.8249
-24.6365
-25.4335
-26.0274
-26.6261
-27.1952
-27.6117
-27.8855
-28.2531
-28.7721
-29.4468
-30.5308
-32.2365
-34.5805
-37.1996
-37.6384
-20.3786
46.6232
108.414
77.5848
-15.0275
-39.2067
-38.2159
-36.7317
-31.597
-29.9519
-29.2259
-28.1908
-27.12
-26.5465
-25.3273
-24.5247