/*--------------------------------*- C++ -*----------------------------------*\
| =========                 |                                                 |
| \\      /  F ield         | OpenFOAM: The Open Source CFD Toolbox           |
|  \\    /   O peration     | Version:  v1912                                 |
|   \\  /    A nd           | Website:  www.openfoam.com                      |
|    \\/     M anipulation  |                                                 |
\*---------------------------------------------------------------------------*/
FoamFile
{
    version     2.0;
    format      ascii;
    class       volScalarField;
    location    "60";
    object      p_rgh;
}
// * * * * * * * * * * * * * * * * * * * * * * * * * * * * * * * * * * * * * //

dimensions      [1 -1 -2 0 0 0 0];


internalField   nonuniform List<scalar> 
14268
(
-8284.88
-9166.36
-9823.33
-10216.2
-10376.6
-10300.8
-10018.8
-9547.71
-8909.01
-8126.34
-7240.37
-6278.58
-5258.04
-4196.92
-3110.39
-2013.22
-929.322
142.836
1233.94
2291.18
3316.74
4310.02
5266.25
6180.05
7044.04
7848.59
8581.87
9230.12
9778.45
10213.2
10522.5
10695.6
10722.1
10607.3
10346
9943.11
9407.65
8751.75
7988.98
7133.52
6199.76
5201.41
4150.56
3058.67
1937.33
797.462
-354.859
-1495.95
-2608.74
-3674.95
-4674.59
-5589
-6401.08
-7095.43
-7659.71
-8084.64
-8364.05
-8496.59
-8482.76
-8333.11
-8054.45
-7657.8
-7156.16
-6564.12
-5898.15
-5176.18
-4416.3
-3636.56
-2854.51
-2086.33
-1346.66
-648.105
1.58152
596.553
1132.35
1610.57
2035.43
2413.9
2755.01
3069.13
3366.4
3655.46
3943.71
4235.95
4535.64
4838.22
-8424.36
-9258.3
-9874.36
-10238.2
-10369.2
-10273.4
-9977.74
-9498.46
-8856.65
-8073.79
-7188.12
-6229.33
-5212.72
-4156.43
-3074.97
-1982.8
-903.528
164.483
1251.79
2305.95
3329
4320.43
5275.46
6188.75
7053.01
7858.51
8593.27
9243.42
9793.91
10230.7
10541.8
10716.2
10743.8
10628.6
10366.3
9961.94
9424.51
8766.38
8001.27
7143.52
6207.64
5207.33
4154.64
3060.98
1937.78
795.932
-358.586
-1502.07
-2617.4
-3686.19
-4688.32
-5604.98
-6418.99
-7114.83
-7680.15
-8105.66
-8385.16
-8517.08
-8502.51
-8351.79
-8071.74
-7673.43
-7169.89
-6575.74
-5907.47
-5183.08
-4420.72
-3638.52
-2854.09
-2083.74
-1342.17
-642.106
8.64833
604.18
1140.06
1617.85
2041.88
2419.18
2758.92
3071.61
3367.56
3655.55
3943.07
4235.02
4534.95
4837.08
-8519.61
-9346.98
-9954.35
-10302.1
-10427.6
-10323.4
-10019.1
-9531.53
-8882.41
-8093.77
-7202.96
-6239.68
-5219.81
-4160.26
-3076.06
-1981.76
-900.742
168.754
1256.97
2312.1
3336.09
4328.61
5285.13
6200.47
7067.44
7876.4
8615.21
9269.8
9824.84
10265.9
10580.5
10757.3
10785
10669.7
10405.7
9998.34
9456.92
8794.22
8024.35
7161.99
6221.82
5217.59
4161.26
3064.07
1937.25
791.526
-367.295
-1515.46
-2635.76
-3709.57
-4716.54
-5637.56
-6455.26
-7153.98
-7721.26
-8147.86
-8427.52
-8558.13
-8542.1
-8389.21
-8106.37
-7704.74
-7197.39
-6599
-5926.15
-5196.92
-4429.58
-3642.42
-2853.24
-2078.52
-1333.18
-630.058
22.8319
619.478
1155.55
1632.47
2054.8
2429.76
2766.73
3076.54
3369.82
3655.64
3941.72
4233.09
4533.42
4837.57
-8681.81
-9477.21
-10055.6
-10379.8
-10480.9
-10356
-10036.3
-9537.12
-8880.11
-8085.85
-7189.82
-6223.63
-5202.18
-4142.25
-3058.34
-1964.83
-884.735
183.871
1270.81
2325.27
3348.93
4341.84
5299.67
6217.5
7088.3
7902.35
8647.42
9308.98
9871.15
10318.8
10638.8
10819.3
10849
10732.8
10465.9
10053.8
9506.17
8836.45
8059.3
7189.9
6243.23
5233.09
4171.3
3068.8
1936.53
784.948
-380.381
-1535.62
-2663.4
-3744.78
-4759.02
-5686.6
-6509.86
-7212.88
-7783.12
-8211.35
-8491.34
-8619.69
-8601.59
-8445.47
-8158.44
-7751.82
-7238.74
-6633.99
-5954.23
-5217.71
-4442.88
-3648.26
-2851.91
-2070.62
-1319.56
-611.809
44.2905
642.593
1178.97
1654.56
2074.32
2445.71
2778.5
3083.94
3373.2
3655.74
3939.59
4230.03
4531.07
4837.34
-8854.64
-9639.7
-10204.2
-10503.9
-10591.6
-10454.1
-10118.9
-9605.07
-8935.11
-8129.9
-7223.62
-6248.13
-5218.77
-4152.15
-3062.7
-1964.75
-881.04
190.656
1279.46
2335.95
3361.49
4356.56
5317.37
6239.36
7115.79
7936.96
8690.44
9361.32
9933.02
10389.5
10716.8
10902.2
10933.8
10816.9
10546.3
10127.8
9571.85
8892.69
8105.76
7226.95
6271.63
5253.64
4184.63
3075.14
1935.64
776.276
-397.748
-1562.47
-2700.3
-3791.87
-4815.91
-5752.31
-6583.02
-7291.82
-7865.99
-8296.41
-8577.05
-8701.91
-8681.28
-8520.79
-8228.12
-7814.8
-7294.08
-6680.81
-5991.83
-5245.55
-4460.67
-3656.04
-2850.07
-2059.94
-1301.21
-587.202
73.1334
673.709
1210.51
1684.27
2100.55
2467.11
2794.21
3093.71
3377.47
3655.51
3936.37
4225.74
4527.41
4837.19
-9059.75
-9824.22
-10365
-10641.7
-10706.8
-10547.2
-10193.1
-9662.78
-8979.15
-8162.64
-7245.68
-6261.47
-5225.32
-4153.31
-3059.63
-1958.54
-872.393
201.405
1291.12
2349.07
3376.14
4373.55
5337.88
6264.97
7148.49
7978.86
8743.3
9426.3
10010.3
10478.2
10814.8
11006.7
11040.7
10922.7
10647.3
10220.6
9654.13
8962.96
8163.66
7272.99
6306.85
5279.11
4201.17
3083.05
1934.61
765.573
-419.349
-1595.98
-2746.5
-3850.94
-4887.37
-5834.93
-6675.04
-7391.1
-7970.16
-8403.26
-8685.25
-8804.56
-8781.37
-8615.34
-8315.6
-7893.88
-7363.55
-6739.61
-6039.03
-5280.48
-4482.97
-3665.73
-2847.62
-2046.34
-1277.9
-556.022
109.716
713.228
1250.42
1721.85
2133.69
2494.1
2813.96
3105.9
3382.65
3654.97
3931.93
4219.7
4522.25
4836.01
-9298.1
-10051.2
-10572.3
-10830.6
-10873.4
-10693.4
-10317.8
-9766.97
-9064.79
-8232.04
-7299.86
-6301.63
-5253.52
-4171.35
-3069.15
-1961.17
-869.418
209.194
1301.77
2362.79
3392.62
4393.25
5362.06
6295.47
7187.61
8028.98
8806.58
9504.24
10103.2
10585
10933.2
11132.9
11170.1
11050.6
10769.2
10332.6
9753.12
9047.24
8232.85
7327.82
6348.67
5309.34
4220.83
3092.53
1933.51
752.938
-445.112
-1636.13
-2802.06
-3922.18
-4973.69
-5934.82
-6786.34
-7511.16
-8096.08
-8532.24
-8814.41
-8930.05
-8902.45
-8729.47
-8421.13
-7989.28
-7447.39
-6810.58
-6096.01
-5322.65
-4509.86
-3677.34
-2844.53
-2029.7
-1249.45
-518.004
154.371
761.416
1298.99
1767.59
2173.97
2526.81
2837.76
3120.36
3388.44
3653.74
3925.85
4211.72
4515.39
4833.91
-9560.52
-10298.9
-10797.2
-11031
-11051.3
-10846.7
-10447.2
-9874.08
-9152
-8302
-7353.68
-6340.99
-5280.84
-4188.52
-3077.86
-1963.08
-865.843
217.56
1312.9
2377.12
3409.89
4414.22
5388.16
6328.89
7231.26
8085.84
8879.32
9594.65
10211.7
10710.2
11072.2
11281.5
11322.6
11201.2
10912.6
10464.1
9868.95
9145.49
8313.16
7391.21
6396.88
5344.15
4243.54
3103.6
1932.44
738.498
-474.928
-1682.9
-2867.05
-4005.75
-5075.17
-6052.38
-6917.39
-7652.5
-8244.22
-8683.65
-8964.87
-9079.02
-9044.66
-8863.44
-8545.01
-8101.29
-7545.84
-6893.93
-6162.95
-5372.16
-4541.37
-3690.84
-2840.66
-2009.8
-1215.57
-472.712
207.547
818.752
1356.63
1821.87
2221.69
2565.45
2865.72
3137.1
3394.74
3651.51
3917.78
4201.27
4506.22
4830.09
-9862.36
-10590.8
-11068.9
-11282.6
-11274.7
-11043
-10616
-10016.5
-9269.99
-8398.3
-7429.82
-6398.33
-5322.09
-4215.98
-3093.68
-1969.39
-864.444
225.571
1324.8
2393.05
3429.3
4437.74
5417.41
6366.39
7280.3
8149.93
8961.73
9697.61
10335.8
10854.1
11232.5
11453.2
11498.8
11375
11078
10615.3
10001.8
9257.62
8404.34
7462.82
6451.14
5383.28
4269.15
3116.25
1931.5
722.43
-508.656
-1736.2
-2941.52
-4101.89
-5192.19
-6188.15
-7068.79
-7815.79
-8415.26
-8858.28
-9138.96
-9250.33
-9208.37
-9017.65
-8687.61
-8230.23
-7659.22
-6989.96
-6240.07
-5429.2
-4577.62
-3706.25
-2835.92
-1986.46
-1175.97
-419.758
269.717
885.742
1423.73
1885.13
2277.2
2610.21
2897.88
3155.99
3401.23
3647.87
3907.21
4187.82
4494.17
4824.29
-10191.5
-10909.7
-11363.4
-11547.1
-11517.5
-11255.8
-10798.8
-10170.6
-9397.58
-8502.43
-7512.32
-6460.66
-5367.28
-4246.48
-3111.76
-1977.28
-864.057
233.193
1336.67
2409.27
3449.21
4462.11
5448.03
6406.2
7333.18
8220.08
9053.02
9812.75
10475.6
11017
11414.6
11648.7
11699.9
11572.7
11265.9
10786.7
10151.7
9383.56
8506.12
7542.27
6511.07
5426.46
4297.56
3130.55
1930.87
704.959
-546.116
-1795.96
-3025.55
-4210.87
-5325.2
-6342.69
-7241.22
-8001.75
-8609.93
-9056.86
-9336.96
-9444.43
-9393.93
-9192.49
-8849.3
-8376.48
-7787.86
-7098.96
-6327.64
-5493.95
-4618.7
-3723.54
-2830.17
-1959.41
-1130.25
-358.574
341.487
963.047
1500.81
1957.9
2340.92
2661.38
2934.38
3176.96
3407.67
3642.43
3893.62
4170.76
4478.67
4815.88
-10562.2
-11273.2
-11701.6
-11883.3
-11801.2
-11504.9
-11014
-10352.9
-9549.26
-8626.61
-7611.31
-6535.89
-5422.09
-4283.71
-3134.1
-1987.39
-864.266
241.561
1349.92
2427.26
3471.01
4488.4
5480.76
6448.68
7389.92
8296.03
9152.89
9939.82
10631
11199.2
11619.1
11868.9
11926.8
11794.9
11477
10978.9
10319
9523.14
8618.11
7629.05
6576.18
5473.31
4328.58
3146.51
1930.76
686.367
-587.076
-1862.06
-3119.22
-4332.98
-5474.73
-6516.75
-7435.55
-8211.28
-8829.17
-9280.33
-9559.37
-9662.2
-9601.82
-9388.46
-9030.56
-8540.48
-7932.19
-7221.32
-6425.98
-5566.66
-4664.75
-3742.75
-2823.31
-1928.41
-1078.1
-288.569
423.488
1050.95
1588.88
2040.74
2413.33
2719.23
2975.31
3199.87
3413.74
3634.62
3876.3
4149.35
4458.98
4804.3
-10966.6
-11671.4
-12067
-12218.9
-12109.4
-11776.9
-11249.1
-10552.2
-9715.08
-8762.44
-7719.93
-6618.79
-5482.85
-4325.4
-3159.59
-1999.54
-865.556
249.874
1363.54
2445.82
3493.38
4515.3
5514.29
6492.63
7449.45
8376.96
9260.77
10078.6
10802.2
11401.1
11846.7
12114.9
12181.5
12042.3
11712.4
11192.3
10503.8
9676.2
8739.85
7722.61
6645.91
5523.44
4362.05
3164.23
1931.41
667.029
-631.254
-1934.36
-3222.6
-4468.58
-5641.38
-6711.11
-7652.68
-8445.34
-9073.95
-9529.69
-9806.57
-9898.95
-9832.46
-9606.08
-9231.88
-8722.7
-8092.65
-7357.45
-6535.44
-5647.6
-4715.94
-3763.86
-2815.16
-1893.14
-1019.08
-209.002
516.357
1150.4
1689.15
2133.93
2494.98
2784.12
3020.89
3224.62
3419.04
3623.89
3854.54
4122.77
4434.26
4788.5
-11414.8
-12116.3
-12471.7
-12597
-12453.7
-12081.4
-11512.7
-10775.9
-9901.17
-8914.68
-7841.68
-6711.82
-5550.88
-4371.89
-3187.83
-2012.82
-866.728
259.621
1378.91
2466.1
3517.19
4543.24
5548.59
6537.56
7510.94
8461.9
9375.73
10228.4
10989
11623.1
12098.3
12387.4
12464.4
12315.1
11972.7
11427.6
10706.2
9842.35
8870.67
7822.1
6719.47
5576.27
4397.77
3183.81
1933.22
647.405
-678.277
-2012.67
-3335.76
-4618.09
-5825.9
-6926.79
-7893.78
-8705.15
-9345.53
-9806.43
-10079.6
-10165.7
-10087.1
-9846.04
-9453.85
-8923.69
-8269.77
-7507.84
-6656.46
-5737.12
-4772.48
-3786.97
-2805.63
-1853.29
-952.91
-119.002
620.864
1262.5
1801.55
2239.21
2586.12
2856.81
3070.76
3250.98
3422.97
3609.51
3827.44
4090.02
4403.51
4768.27
-11902.3
-12592.3
-12921.7
-13012.2
-12829.1
-12413.2
-11799.8
-11019.4
-10103.7
-9080.33
-7974.32
-6813.52
-5625.35
-4422.97
-3219.07
-2027.77
-868.555
270.334
1395.49
2487.44
3541.76
4571.49
5582.86
6582.61
7573.55
8550.03
9497.25
10388.9
11191.5
11865.8
12374.6
12687.8
12781.8
12613.9
12259.8
11686
10926.8
10021.6
9010.09
7926.79
6796.07
5631.3
4435.53
3205.4
1936.48
627.97
-727.874
-2096.9
-3458.97
-4782.11
-6029.17
-7164.91
-8160.08
-8991.9
-9645.11
-10111.9
-10379
-10456.9
-10366.3
-10109
-9697.06
-9144.02
-8464.1
-7673.01
-6789.48
-5835.55
-4834.58
-3812.07
-2794.51
-1808.41
-879.392
-17.2314
737.972
1388.14
1927.06
2357.2
2687.89
2937.53
3125.42
3278.97
3425.17
3590.89
3794.09
4050.02
4365.64
4742.62
-12264.7
-12941.7
-13261.4
-13321.9
-13107.9
-12659.1
-12012.3
-11199.4
-10253.1
-9202.13
-8071.58
-6888.07
-5679.68
-4459.94
-3241.33
-2038.04
-869.39
279.353
1408.3
2503.08
3559.17
4590.72
5605.53
6612.37
7615.66
8610.88
9583.1
10504.5
11339.2
12044.4
12579.3
12910.5
13011.7
12842
12473.1
11876.4
11087.8
10150.7
9109.1
8000.01
6849.04
5669.37
4462.1
3221.21
1939.69
614.985
-763.28
-2158.18
-3549.62
-4903.7
-6180.53
-7342.6
-8358.82
-9205.59
-9868.04
-10339.3
-10600.1
-10672.8
-10572.6
-10303
-9876.53
-9306.72
-8607.74
-7795.26
-6888.01
-5908.5
-4880.55
-3830.49
-2785.7
-1774.03
-821.231
57.4188
826.382
1483.08
2021.96
2445.81
2764.86
2997.67
3166.04
3298.75
3425.02
3574.28
3766.25
4017.03
4334.36
4720.1
-12460.3
-13130.5
-13444
-13488.7
-13257.9
-12791.2
-12126.5
-11296
-10333.3
-9267.44
-8123.67
-6928.01
-5708.78
-4479.72
-3253.22
-2043.49
-869.84
284.408
1415.29
2511.45
3568.37
4600.72
5617.19
6627.66
7637.48
8642.78
9628.54
10566.1
11418.4
12140.5
12689.6
13030.7
13134.7
12966.4
12588.3
11979
11174.2
10219.7
9161.67
8038.62
6876.83
5689.32
4476.11
3229.71
1941.66
608.369
-781.964
-2190.84
-3598.25
-4969.18
-6262.24
-7438.65
-8466.27
-9321.05
-9988.43
-10462.1
-10719.1
-10789.3
-10683.8
-10407.5
-9973.18
-9394.37
-8685.15
-7861.17
-6941.16
-5947.87
-4905.37
-3840.38
-2780.85
-1755.36
-789.726
98.0472
874.409
1534.66
2073.51
2493.93
2806.58
3030.24
3187.92
3309.22
3424.61
3564.74
3750.61
3998.56
4316.79
4707.3
-12662.2
-13325.4
-13632.2
-13660.9
-13412.5
-12927.4
-12244
-11395.4
-10415.7
-9334.53
-8177.14
-6969.03
-5738.61
-4499.96
-3265.31
-2048.99
-870.311
289.858
1422.59
2520.06
3577.74
4610.74
5628.74
6642.75
7659.11
8674.72
9674.47
10628.8
11499.4
12239.3
12803.4
13154.8
13262.1
13094.3
12707.3
12084.6
11262.9
10290.2
9215.07
8077.57
6904.71
5709.38
4490.38
3238.66
1944.14
602.181
-800.628
-2223.96
-3647.99
-5036.51
-6346.5
-7537.81
-8577.23
-9440.25
-10112.7
-10589.1
-10841.7
-10909.2
-10798.2
-10515.1
-10072.7
-9484.62
-8764.89
-7929.1
-6995.98
-5988.5
-4930.94
-3850.52
-2775.87
-1736.01
-757.062
140.336
924.267
1588.22
2127.03
2543.89
2849.83
3063.96
3210.46
3319.83
3423.82
3554.36
3733.88
3978.81
4297.92
4693.73
-12870.7
-13526.3
-13825.9
-13838.3
-13571.6
-13067.3
-12364.8
-11497.4
-10500.3
-9403.29
-8231.91
-7011.07
-5769.16
-4520.63
-3277.62
-2054.53
-870.84
295.758
1430.19
2528.85
3587.2
4620.69
5640.05
6657.52
7680.49
8706.65
9720.85
10692.6
11582.4
12340.8
12920.5
13282.8
13394.5
13226.3
12830.2
12193.4
11354
10362.3
9269.27
8116.84
6932.75
5729.62
4505.03
3248.14
1947.17
596.475
-819.27
-2257.58
-3698.91
-5105.75
-6433.35
-7640.14
-8691.78
-9563.27
-10240.8
-10720.2
-10967.7
-11032.7
-10916
-10625.7
-10175
-9577.5
-8846.99
-7999.09
-7052.48
-6030.35
-4957.3
-3861.08
-2770.65
-1715.87
-723.171
184.315
976.037
1643.82
2182.59
2595.72
2894.64
3098.86
3233.66
3330.58
3422.64
3543.12
3715.99
3957.72
4277.74
4679.05
-13086.2
-13733.4
-14025.4
-14021.2
-13735.3
-13211.2
-12488.9
-11602.2
-10587
-9473.75
-8287.95
-7054.08
-5800.36
-4541.69
-3290.07
-2060.03
-871.4
302.263
1438.18
2537.9
3596.8
4630.58
5651.1
6671.91
7701.5
8738.46
9767.59
10757.4
11667.2
12445.1
13041.2
13414.8
13530.8
13362
12956.8
12305.3
11447.3
10435.7
9324.19
8156.41
6960.88
5750.05
4519.99
3258.07
1950.68
591.141
-837.973
-2291.78
-3751.06
-5176.95
-6522.88
-7745.75
-8810.04
-9690.24
-10372.9
-10855.6
-11097.1
-11159.7
-11037.2
-10739.6
-10280.3
-9673.05
-8931.5
-8071.18
-7110.67
-6073.5
-4984.56
-3871.89
-2765.09
-1694.95
-688.088
230.024
1029.79
1701.53
2240.25
2649.49
2941.08
3134.96
3257.53
3341.42
3421.01
3530.93
3696.86
3935.21
4256.15
4663.15
-13308.5
-13947.1
-14231
-14209.4
-13903.6
-13359
-12616.3
-11709.5
-10675.9
-9545.86
-8345.25
-7098.08
-5832.23
-4563.14
-3302.67
-2065.5
-872.09
309.421
1446.53
2547.18
3606.55
4640.41
5661.89
6685.89
7722.12
8770.13
9814.67
10823.3
11753.9
12552.1
13165.4
13551.1
13672.5
13502
13087.4
12420.5
11543
10510.6
9379.79
8196.14
6989
5770.44
4535.13
3268.34
1954.62
586.197
-856.751
-2326.54
-3804.45
-5250.15
-6615.17
-7854.75
-8932.14
-9821.25
-10509.1
-10995.6
-11229.8
-11290.4
-11161.8
-10856.5
-10388.5
-9771.31
-9018.44
-8145.34
-7170.63
-6118.04
-5012.62
-3882.92
-2759.36
-1673.28
-651.728
277.509
1085.58
1761.42
2300.08
2705.27
2989.19
3172.3
3282.08
3352.35
3418.89
3517.74
3676.39
3911.18
4233.08
4646.12
-13537.9
-14167.3
-14442.7
-14403.3
-14076.7
-13510.8
-12747
-11819.6
-10767
-9619.62
-8403.76
-7143.02
-5864.71
-4584.92
-3315.36
-2070.86
-872.932
317.42
1455.29
2556.71
3616.45
4650.14
5672.33
6699.34
7742.19
8801.48
9861.96
10890.2
11842.4
12661.9
13293.3
13691.4
13817.6
13646
13221.8
12538.8
11641
10586.8
9435.93
8235.89
7016.92
5790.73
4550.39
3279.03
1959.06
581.768
-875.524
-2361.78
-3859.04
-5325.4
-6710.31
-7967.24
-9058.16
-9956.4
-10649.3
-11140.3
-11365.8
-11424.8
-11289.8
-10976.7
-10499.6
-9872.29
-9107.83
-8221.68
-7232.42
-6163.9
-5041.5
-3894.38
-2753.44
-1650.82
-614.053
326.822
1143.46
1823.56
2362.13
2763.1
3039.02
3210.91
3307.34
3363.41
3416.29
3503.52
3654.56
3885.58
4208.46
4627.45
-13783.3
-14402.3
-14668.3
-14609.8
-14260.8
-13672
-12885.9
-11936.3
-10863.5
-9697.67
-8465.61
-7190.53
-5899
-4607.85
-3328.6
-2076.29
-874.084
326.648
1464.76
2566.85
3626.86
4660.12
5682.77
6712.71
7762.41
8833.63
9911.15
10960.4
11936.1
12778.6
13429.5
13841.4
13973.8
13799.7
13365.3
12664.7
11744.7
10666.9
9494.42
8276.87
7045.5
5811.59
4566.34
3290.54
1964.22
577.764
-894.932
-2398.73
-3916.87
-5405.47
-6811.87
-8087.43
-9192.81
-10100.8
-10798.8
-11291.6
-11513.4
-11568.1
-11426
-11104.4
-10617.8
-9979.68
-9202.99
-8303.05
-7298.22
-6212.77
-5072.39
-3906.6
-2747.04
-1626.74
-573.67
379.827
1205.61
1890.27
2428.76
2825.16
3092.45
3252.23
3334.22
3374.91
3413.02
3487.63
3630.46
3857.34
4181.26
4606.92
-14045.5
-14652.7
-14909.3
-14830
-14456.6
-13843.2
-13033.3
-12059.9
-10965.8
-9780.23
-8530.91
-7240.69
-5935.13
-4631.89
-3342.33
-2081.64
-875.762
337.602
1475.01
2577.64
3637.82
4670.32
5693.13
6725.84
7782.54
8866.35
9962.06
11034
12034.9
12902.4
13574.7
14001.5
14140.1
13963.8
13518.2
12798.5
11854.4
10751.1
9555.31
8319.13
7074.72
5832.99
4583.01
3302.99
1970.26
574.375
-914.897
-2437.54
-3978.15
-5490.82
-6920.35
-8215.98
-9336.82
-10255.1
-10958
-11449.9
-11673.9
-11720.5
-11570.8
-11240.3
-10743.4
-10094
-9304.33
-8389.72
-7368.42
-6264.99
-5105.36
-3919.63
-2740.16
-1600.91
-530.313
436.833
1272.46
1961.96
2500.35
2891.83
3149.8
3296.49
3362.85
3386.91
3408.97
3469.82
3603.78
3826.1
4151.16
4584
-14319.1
-14911
-15158.1
-15056.8
-14658.1
-14019
-13184.7
-12186.6
-11070.5
-9864.62
-8597.55
-7291.88
-5971.93
-4656.27
-3356.08
-2086.65
-874.152
346.248
1485.69
2588.73
3648.97
4680.34
5702.92
6738.09
7801.67
8898.3
10012.8
11108.5
12136
13029.7
13724.4
14166.8
14312.3
14133.2
13676.2
12936.4
11966.9
10836.7
9616.43
8360.92
7103.47
5854.15
4599.83
3316.02
1976.98
571.748
-934.837
-2476.91
-4040.86
-5578.68
-7032.33
-8348.8
-9485.74
-10414.6
-11122.2
-11613.5
-11838.6
-11877.3
-11719.8
-11379.9
-10872.6
-10211.6
-9408.62
-8478.98
-7440.83
-6318.86
-5139.39
-3933.1
-2733.03
-1574.13
-485.291
496.088
1341.97
2036.48
2574.74
2961.09
3209.32
3342.33
3392.3
3398.93
3404.2
3450.79
3575.01
3792.7
4118.91
4559.34
-14599.7
-15175.5
-15415.2
-15290.7
-14865.2
-14199.4
-13340.1
-12316.2
-11177.6
-9950.8
-8665.47
-7344.05
-6009.36
-4680.94
-3369.79
-2091.25
-871.187
354.641
1496.69
2600.29
3660.38
4690.26
5712.24
6749.58
7819.96
8929.69
10063.7
11184
12239
13160.3
13878.6
14337.6
14491.2
14308.3
13839
13077.9
12081.7
10923.4
9677.79
8402.32
7131.52
5874.94
4616.73
3329.59
1984.53
570.095
-954.491
-2516.54
-4105.03
-5669.06
-7148
-8486.12
-9639.74
-10579.4
-11291.6
-11782.4
-12007.7
-12038.5
-11872.9
-11523.3
-11005.3
-10332.6
-9515.98
-8570.96
-7515.42
-6374.42
-5174.55
-3947.02
-2725.62
-1546.38
-438.544
557.68
1414.19
2113.9
2652.02
3033
3271.09
3389.8
3422.62
3410.97
3398.67
3430.46
3544.05
3757.04
4084.48
4532.82
-14896.9
-15451.2
-15682.1
-15530.8
-15078
-14384.3
-13499.5
-12448.6
-11287.3
-10038.7
-8734.68
-7397.2
-6047.41
-4705.89
-3383.44
-2095.4
-867.182
363.141
1508.12
2612.41
3671.94
4699.97
5720.89
6759.99
7837.08
8960.21
10114.4
11260.3
12344
13294.2
14037.3
14513.6
14672.7
14488.6
14006.6
13223.2
12199
11011.2
9739.18
8443.3
7159.06
5895.52
4634.01
3343.98
1993.11
569.303
-973.85
-2556.74
-4170.61
-5762.1
-7267.3
-8627.89
-9798.82
-10749.7
-11466.5
-11956.4
-12181.6
-12204.3
-12030.2
-11670.7
-11141.6
-10456.9
-9626.43
-8665.7
-7592.35
-6431.77
-5210.86
-3961.44
-2717.98
-1517.7
-390.013
621.681
1489.24
2194.34
2732.27
3107.67
3335.17
3438.97
3453.79
3423.06
3392.28
3408.52
3510.99
3718.97
4047.68
4504.26
-15184
-15735.7
-15956.4
-15780.2
-15296.5
-14573.8
-13663.2
-12583.8
-11399.4
-10128.4
-8805.13
-7451.28
-6086.05
-4731.06
-3396.97
-2099.05
-862.248
371.986
1520.15
2625.03
3683.73
4709.53
5728.94
6769.38
7852.92
8989.56
10164.4
11337.2
12451
13431.5
14200.8
14695.5
14865.6
14675.7
14180.4
13373.4
12319.5
11100.5
9800.25
8482.99
7185.66
5915.39
4651.32
3358.84
2002.68
569.53
-992.833
-2597.09
-4237.35
-5857.64
-7390.31
-8774.54
-9963.47
-10925.5
-11647.4
-12135.1
-12360.2
-12374.5
-12191.5
-11821.9
-11281.4
-10584.4
-9739.95
-8763.15
-7671.65
-6490.96
-5248.37
-3976.36
-2710.08
-1488.03
-339.604
688.151
1567.23
2277.88
2815.62
3185.18
3401.63
3489.88
3485.85
3435.14
3385.01
3384.87
3475.69
3678.35
4008.4
4473.75
-15493.1
-16052.4
-16245.4
-16031.2
-15520.5
-14768.5
-13831.2
-12722.3
-11514.1
-10219.8
-8876.82
-7506.29
-6125.25
-4756.38
-3410.26
-2102.09
-856.401
381.328
1532.82
2638.15
3695.67
4718.86
5736.28
6777.65
7867.46
9017.78
10213.9
11414.5
12559.7
13572.1
14368.9
14882.9
15059.8
14867.7
14358.1
13526.3
12441.5
11190
9861.11
8522.23
7211.31
5934.93
4668.85
3374.65
2013.66
571.445
-1011.56
-2637.95
-4306.29
-5956.53
-7517.46
-8925.89
-10132.6
-11106.2
-11833.9
-12318.9
-12543.8
-12549.1
-12357.2
-11977
-11425
-10715.7
-9856.62
-8863.29
-7753.16
-6551.9
-5287.11
-3991.81
-2701.93
-1457.43
-287.273
757.129
1648.23
2364.6
2902.15
3265.62
3470.56
3542.59
3518.81
3447.14
3376.75
3359.4
3438.02
3635.05
3966.47
4440.82
-15774
-16352.1
-16528.9
-16297.4
-15756
-14965.6
-14003.3
-12864.3
-11631.7
-10313.1
-8949.78
-7562.35
-6165.11
-4781.91
-3423.35
-2104.53
-849.616
391.339
1546.22
2651.85
3707.86
4727.95
5742.65
6784.3
7880.05
9044.32
10262.8
11492.7
12670.5
13716.2
14542
15076.4
15262.5
15066.2
14542.1
13683.9
12566.2
11280.8
9922.36
8561
7236.53
5954.18
4686.53
3391.2
2025.51
574.537
-1030.06
-2678.6
-4375.86
-6057.56
-7648.11
-9081.93
-10307.8
-11293.8
-12027.3
-12508.3
-12732.5
-12726.7
-12527.5
-12136.2
-11572.1
-10850.4
-9976.82
-8966.77
-7837.18
-6614.55
-5326.94
-4007.79
-2693.52
-1425.9
-232.859
828.72
1732.39
2454.62
2991.95
3349.1
3542.05
3597.2
3552.75
3459.16
3367.5
3332.09
3397.86
3588.89
3921.7
4405.62
-14881.1
-14078.9
-13664.3
-13955.6
-14360.9
-14577.1
-14179.6
-13006.7
-11751.1
-10408.5
-9023.93
-7619.13
-6205.33
-4807.67
-3436.46
-2106.51
-841.971
402.033
1560.4
2666.2
3720.41
4737.02
5748.45
6789.79
7891.15
9069.32
10310.4
11570.5
12782.8
13863.7
14720.1
15275.9
15471.7
15271.2
14731.9
13846.2
12694.1
11372.9
9982.26
8597.21
7259.46
5972.02
4703.88
3408.28
2038.83
574.639
-1041.82
-2718.84
-4447.42
-6163.15
-7785.47
-9245.42
-10489.3
-11485.7
-12221.8
-12699.9
-12926.3
-12916.6
-12704.7
-12298.9
-11722.2
-10988.6
-10100.4
-9073.46
-7924.68
-6679.9
-5368.05
-4024.33
-2684.93
-1393.52
-176.4
902.94
1819.76
2548.05
3085.14
3435.72
3616.18
3653.66
3587.43
3471.04
3357.1
3302.71
3355.02
3539.73
3873.8
4367.83
-3809.22
-2284.72
-2074.23
-2868.25
-4725.73
-7500.05
-10417.5
-11736
-11750
-10505.9
-9099.51
-7676.54
-6245.53
-4833.33
-3449.2
-2108.19
-833.592
413.412
1575.28
2680.93
3732.82
4745.69
5753.56
6794.13
7900.97
9093.36
10357.7
11648.7
12896.6
14014.2
14903.1
15481.6
15689.2
15483.1
14927.2
14012.5
12824
11464.7
10040.6
8631.89
7280.82
5989.56
4722.15
3427.18
2054.13
575.697
-1054.27
-2761.04
-4521.28
-6269.32
-7917.55
-9382.53
-10580.2
-11395.6
-11753.2
-11745.5
-11632.7
-11618.9
-11724.8
-11812.6
-11695.5
-11131.8
-10226.9
-9182.08
-8014.66
-6748.58
-5412.12
-4041.71
-2676.03
-1359.44
-118.568
979.757
1910.43
2644.97
3181.81
3525.57
3693.03
3712.2
3623.36
3483.28
3345.54
3271.31
3309.45
3487.39
3823.14
4327.46
-1.79296
0.515921
-16.5985
-42.6655
-127.36
-430.822
-1432.03
-4154.94
-7409.41
-9099.79
-9040.64
-7735.92
-6286.57
-4858.76
-3461.21
-2108.79
-824.009
425.711
1591.16
2696.48
3745.39
4753.54
5756.76
6795.94
7908.16
9115.3
10404
11727.8
13012.7
14168.5
15091.4
15693.6
15911.1
15701.4
15127.9
14182.2
12955.1
11556.4
10098.5
8666.26
7301.82
6006.77
4740.48
3446.29
2069.54
577.842
-1066.36
-2799.97
-4589.35
-6361.88
-7973.4
-9091.65
-8971.18
-7251.75
-5646.82
-4607.45
-4162.41
-4239.71
-4813.43
-5853.37
-7227.96
-8529.62
-9096.45
-9054.77
-8106.55
-6817.38
-5458.62
-4061.95
-2667.78
-1323.79
-58.9863
1059.3
2004.36
2745.33
3282.01
3618.76
3772.7
3772.74
3659.92
3494.25
3332.6
3237.6
3260.88
3431.83
3768.99
4284.03
28.6042
25.2233
21.7087
18.7912
14.6932
7.42509
-15.4053
-126.451
-679.095
-2735.28
-5409.93
-6607.62
-6245.05
-4885.88
-3474.14
-2109.2
-812.984
439.166
1608.31
2713.19
3759.05
4761.81
5758.71
6795.02
7911.39
9133
10447.5
11806.6
13130.8
14326.6
15285.2
15912.3
16137.1
15926.3
15334.5
14355.9
13088.8
11650.1
10156.9
8699.3
7321.45
6022.95
4758.64
3466.38
2087.41
584.474
-1074.02
-2833.49
-4630.19
-6224.77
-6483.26
-4316.63
-2176.67
-1026.58
-486.074
-242.743
-151.78
-145.817
-197.313
-332.417
-670.679
-1522.16
-3156.33
-5095.17
-6429.63
-6494.64
-5503.61
-4082.34
-2660.57
-1288.08
2.37634
1141.73
2101.98
2849.25
3385.61
3715.16
3855.19
3835.48
3697.76
3506.57
3319.01
3201.51
3209.19
3372.82
3711.2
4237.5
28.4478
25.3058
22.1053
19.45
16.6461
14.3668
11.9116
8.37469
-2.70276
-64.5468
-428.41
-1876.84
-3630.26
-4090.76
-3437.82
-2112.12
-803.292
452.335
1626.42
2730.66
3773.22
4770.69
5761.18
6793.74
7913.07
9148.28
10488.1
11883
13249.3
14487.9
15484.5
16137.9
16379.2
16159.6
15549.4
14537.2
13227.9
11745.7
10213.4
8728.2
7337.18
6036.73
4776.13
3487.72
2108.08
595.001
-1072.9
-2807.12
-4113.61
-3181.04
-1320.88
-333.784
-3.6772
9.04146
8.30977
8.17051
7.99971
7.61399
6.36428
3.28828
-4.16596
-24.4453
-95.2097
-367.429
-1338.05
-2954.02
-4072.55
-3822.1
-2650.53
-1252.07
64.9058
1226.98
2203.56
2957.3
3493.2
3815.06
3940.4
3900
3735.96
3517.56
3302.58
3162.81
3154.23
3310.11
3650.47
4188.56
27.8616
24.8572
21.8015
19.4239
16.6391
14.4189
12.1436
10.2865
8.59984
6.23322
0.19503
-34.7704
-241.26
-993.013
-1737.65
-1559.36
-743.27
463.55
1643.77
2747.58
3787.56
4779.09
5763.02
6791.8
7914.94
9164.5
10529.6
11959.3
13368.1
14651.3
15688.8
16370.3
16624.3
16399.8
15770.4
14722.4
13365.8
11836.4
10264.4
8752.93
7349.84
6049.17
4795.17
3512.54
2136.13
626.865
-943.154
-1744.56
-1015.16
-246.88
8.30011
9.55706
10.0323
10.969
10.7168
10.8733
10.9488
10.7894
10.4885
10.0402
9.34859
8.59059
7.17787
2.13561
-17.1565
-118.147
-588.675
-1451.03
-1743.18
-1069.98
131.108
1315.16
2309.6
3069.86
3605.32
3919.11
4029.17
3967.37
3776.44
3529.48
3285.38
3122.06
3096.55
3244.14
3585.81
4136.62
27.408
24.5089
21.5013
18.9049
16.3844
14.2656
12.1177
10.3161
8.60629
6.98134
5.79609
4.16976
3.54148
2.55187
1.96821
21.8297
192.113
828.485
1730.58
2765.11
3801.21
4785.9
5762.48
6786.81
7913.54
9178.04
10571
12038.6
13490.4
14817.9
15898
16609.2
16874.4
16646.2
15995.1
14908.6
13503.2
11926
10314.2
8777.74
7363.18
6063.65
4818
3547.47
2201.86
885.43
173.854
-8.26343
7.24026
8.76177
9.61043
9.4267
9.86246
10.6325
10.5425
10.713
10.793
10.73
10.4555
10.0364
9.44559
8.96995
8.51958
7.526
6.89275
5.83673
4.65313
4.31745
8.48994
110.652
634.131
1501.96
2420.68
3186.72
3722.38
4027.51
4121.33
4037.15
3816.24
3540.45
3266.99
3080
3034.38
3171.92
3515.43
4080.56
26.9067
24.1101
21.2199
18.7437
16.2342
14.0941
11.9571
10.2182
8.60689
7.01413
5.67993
4.11825
3.62765
3.78553
9.64027
49.3497
249.152
895.952
1783.74
2800.68
3822.56
4793.41
5758.76
6776.56
7906.07
9185.81
10608
12116.6
13615.4
14989.8
16113.6
16854.8
17133
16900.8
16226.1
15099.7
13644.6
12018.5
10365
8801.37
7374.73
6076.47
4837.4
3576.39
2241.22
931.914
209.668
5.56904
8.68179
8.38302
9.35079
9.24769
9.70172
10.4041
10.3754
10.5377
10.5968
10.4603
10.2428
9.85785
9.31413
8.83218
8.37134
7.41642
6.65029
5.68716
5.19985
7.54261
27.0097
154.059
718.064
1624.67
2544.95
3310.39
3842.66
4140.08
4218.31
4112.99
3867.47
3557.83
3253.67
3037.64
2973.49
3105.99
3453.41
4026.42
26.4367
23.7312
20.9021
18.4333
16.0313
13.9556
11.8829
10.1312
8.49895
6.93868
5.67646
4.17922
3.34788
2.3697
1.98585
3.78424
15.6633
76.7617
330.743
1137.84
2474.16
3899.63
5300.35
6599.73
7884.72
9186.64
10640.2
12191.7
13740.1
15164.7
16335.4
17108.3
17401.3
17164.5
16464.5
15297.3
13790.6
12111.7
10411.2
8807.39
7316.96
5802.17
3961.4
2041.8
691.319
54.8399
-0.67622
5.29039
8.23905
8.0724
9.0994
9.10744
9.54688
10.178
10.2102
10.3663
10.4143
10.3619
10.0711
9.69076
9.16659
8.68319
8.20044
7.29851
6.50491
5.4403
4.28848
3.26777
3.2918
10.3441
52.7362
253.264
882.442
1883.23
2669.52
3097.89
3170.08
2959.69
2554.71
2081.23
1657.31
1362.63
1268.37
1416.31
1849.67
2647.26
25.9526
23.3493
20.6169
18.211
15.8466
13.7879
11.7637
10.0465
8.44977
6.89686
5.62721
4.1897
3.34678
2.33783
1.41765
0.698426
0.568074
3.28659
15.4217
62.2018
226.362
702.241
1942.48
3908.96
6323.38
8673.48
10652.5
12264.5
13866
15341.6
16563
17369.7
17675.6
17437.3
16710.3
15500.2
13936.3
12188.8
10358.9
8196.5
5186.2
2468.84
899.955
119.154
0.390467
0.560489
-0.342084
5.04815
7.87766
7.8111
8.8772
8.96589
9.39526
9.9676
10.0453
10.1872
10.2306
10.1309
9.8935
9.52923
9.01996
8.54136
8.03175
7.17431
6.37043
5.32683
4.14344
2.83007
1.32278
0.436717
1.37072
8.95268
38.4188
123.266
281.721
450.037
516.43
449.096
308.49
179.381
105.061
77.132
69.8582
80.1332
117.515
237.671
25.479
22.964
20.3019
17.9444
15.6557
13.6379
11.6574
9.95241
8.38389
6.87555
5.61072
4.206
3.31868
2.32642
1.42587
0.597211
-0.271815
-0.67928
-0.557416
1.36261
8.98446
32.4505
104.842
339.191
1236.94
4158.81
8368.97
11870.7
13989.9
15521
16796.1
17638.7
17964.6
17723.6
16961.6
15696.6
14031.7
11835.4
7705.16
3151.3
882.584
51.0949
-1.46176
-1.68498
0.159826
0.631576
0.0580124
4.83083
7.54733
7.59538
8.65011
8.82168
9.24558
9.76716
9.87826
10.013
10.0524
9.96572
9.7184
9.36816
8.87472
8.40431
7.87032
7.05113
6.23464
5.22129
4.06058
2.75822
1.24945
-0.107035
-1.46026
-2.62735
-3.31988
-2.95044
-0.949755
1.9178
3.98315
4.29281
3.74467
3.51158
3.49063
3.40515
3.62878
4.27738
5.43851
9.61619
25.0101
22.5895
20.008
17.701
15.458
13.4724
11.5373
9.85929
8.30308
6.81866
5.56829
4.23598
3.3158
2.33346
1.43237
0.599849
-0.260621
-0.821457
-1.3913
-1.87019
-1.79199
-0.690415
2.69031
13.2038
53.7062
258.733
1552.61
6531.07
12256.2
15543.4
17022.5
17903
18302.9
17994
17172.1
15712.7
12683.2
6236.52
1548.66
46.1076
-3.84596
-2.9454
-1.62913
-1.5205
0.0677341
0.677408
0.411039
4.6451
7.23188
7.40589
8.42672
8.676
9.09365
9.57438
9.71162
9.84167
9.87588
9.80113
9.55254
9.20916
8.73155
8.26778
7.71825
6.93098
6.11165
5.12265
3.98117
2.71234
1.24794
-0.114196
-1.50843
-2.75259
-3.8164