/*--------------------------------*- C++ -*----------------------------------*\
| =========                 |                                                 |
| \\      /  F ield         | OpenFOAM: The Open Source CFD Toolbox           |
|  \\    /   O peration     | Version:  v1912                                 |
|   \\  /    A nd           | Website:  www.openfoam.com                      |
|    \\/     M anipulation  |                                                 |
\*---------------------------------------------------------------------------*/
FoamFile
{
    version     2.0;
    format      ascii;
    class       surfaceScalarField;
    location    "60";
    object      phi;
}
// * * * * * * * * * * * * * * * * * * * * * * * * * * * * * * * * * * * * * //

dimensions      [0 3 -1 0 0 0 0];
oriented        oriented;


internalField   nonuniform List<scalar> 
28285
(
-0.0697956
0.00478075
-0.0732396
0.00344405
-0.0751871
0.00194746
-0.0756343
0.000447207
-0.074687
-0.000947282
-0.0724464
-0.00224063
-0.0690484
-0.00339801
-0.064653
-0.00439542
-0.0594105
-0.00524244
-0.0534519
-0.00595866
-0.0469372
-0.00651467
-0.0400283
-0.00690895
-0.0328596
-0.0071686
-0.0255516
-0.00730808
-0.0182088
-0.00734281
-0.010921
-0.00728771
-0.00375068
-0.00717036
0.00324455
-0.00699523
0.0100405
-0.00679594
0.0166243
-0.00658386
0.0229945
-0.00637014
0.0291578
-0.00616331
0.0351126
-0.00595476
0.0408459
-0.0057333
0.0463208
-0.0054749
0.0514692
-0.00514841
0.0561941
-0.00472492
0.0603765
-0.0041824
0.063879
-0.00350252
0.0665724
-0.00269338
0.0683392
-0.0017668
0.0690879
-0.000748702
0.0687831
0.000304757
0.0674262
0.00135697
0.0650095
0.00241663
0.0616117
0.00339787
0.0573389
0.0042728
0.0523114
0.00502744
0.0466525
0.00565896
0.0404802
0.0061723
0.0338859
0.00659424
0.0269546
0.00693127
0.019749
0.00720564
0.0123254
0.00742355
0.00475153
0.00757392
-0.00291018
0.00766171
-0.0105585
0.00764832
-0.0180924
0.00753393
-0.0253761
0.00728364
-0.0322709
0.00689479
-0.0386355
0.00636462
-0.0443323
0.00569677
-0.049247
0.00491475
-0.0532851
0.00403808
-0.0563771
0.003092
-0.0584881
0.00211104
-0.0596127
0.00112461
-0.0597207
0.000107969
-0.0588742
-0.000846501
-0.0571297
-0.00174451
-0.0545535
-0.00257625
-0.0512299
-0.00332352
-0.0472473
-0.00398264
-0.0427127
-0.00453463
-0.0377403
-0.00497235
-0.0324528
-0.00528749
-0.0269792
-0.00547365
-0.0214531
-0.00552609
-0.0160026
-0.0054505
-0.0107468
-0.0052558
-0.005804
-0.00494278
-0.00126245
-0.00454156
0.00281369
-0.00407614
0.00638963
-0.00357593
0.00945759
-0.00306797
0.0120435
-0.00258586
0.0142007
-0.00215729
0.0160072
-0.00180643
0.0175558
-0.00154862
0.0189477
-0.0013919
0.0202793
-0.00133165
0.0216269
-0.00134752
0.0230291
-0.00140227
0.0245195
-0.00149034
0.0259766
-0.00145709
-0.00152968
0.0275062
-0.0702833
0.00938297
-0.0735189
0.00667968
-0.0752648
0.0036933
-0.0755114
0.000693866
-0.074405
-0.00205369
-0.0720282
-0.00461743
-0.0685223
-0.00690393
-0.0640445
-0.00887323
-0.0587474
-0.0105395
-0.0527922
-0.0119138
-0.0463245
-0.0129824
-0.0394782
-0.0137552
-0.0323938
-0.0142531
-0.0251853
-0.0145166
-0.0179494
-0.0145786
-0.0107683
-0.0144689
-0.00369672
-0.0142419
0.00321402
-0.013906
0.00994287
-0.0135248
0.0164791
-0.0131201
0.0228219
-0.0127129
0.0289763
-0.0123177
0.0349384
-0.0119168
0.0406926
-0.0114876
0.046199
-0.0109813
0.0513855
-0.0103349
0.0561511
-0.00949056
0.0603749
-0.00840612
0.063918
-0.00704566
0.0666463
-0.00542168
0.0684425
-0.00356297
0.069217
-0.00152327
0.0689237
0.000598133
0.0675698
0.00271084
0.065148
0.00483836
0.0617384
0.00680753
0.0574498
0.00856139
0.0524053
0.0100719
0.0467305
0.0113338
0.0405444
0.0123584
0.0339386
0.0132
0.0269976
0.0138723
0.019783
0.0144202
0.0123501
0.0148564
0.00476513
0.0151589
-0.00290934
0.0153362
-0.0105736
0.0153126
-0.0181263
0.0150866
-0.0254303
0.0145877
-0.0323455
0.01381
-0.0387295
0.0127487
-0.0444434
0.0114107
-0.0493722
0.0098435
-0.0534207
0.00808661
-0.0565188
0.0061901
-0.0586321
0.00422432
-0.0597554
0.00224793
-0.0598578
0.000210348
-0.0590042
-0.00170008
-0.0572502
-0.00349857
-0.0546623
-0.00516414
-0.0513255
-0.0066603
-0.0473279
-0.00798017
-0.0427769
-0.00908569
-0.037787
-0.00996227
-0.0324811
-0.0105934
-0.0269886
-0.0109661
-0.0214439
-0.0110708
-0.0159755
-0.0109189
-0.0107037
-0.0105276
-0.00574766
-0.00989881
-0.00119687
-0.00909235
0.0028844
-0.00815741
0.00646117
-0.00715271
0.00952568
-0.00613248
0.0121041
-0.00516425
0.0142507
-0.00430389
0.0160442
-0.00359995
0.0175789
-0.00308335
0.0189574
-0.00277035
0.0202787
-0.00265294
0.0216278
-0.00269667
0.0230789
-0.00285337
0.0246883
-0.00309975
0.0263519
-0.00312065
-0.00299809
0.0278203
-0.0703315
0.0140338
-0.073603
0.0099511
-0.0753723
0.00546264
-0.0756682
0.000989817
-0.0745452
-0.00317677
-0.0721642
-0.00699841
-0.0686549
-0.0104132
-0.0641741
-0.0133541
-0.0588803
-0.0158334
-0.0529192
-0.0178749
-0.0464343
-0.0194673
-0.0395819
-0.0206075
-0.0324898
-0.0213451
-0.0252703
-0.0217362
-0.0180209
-0.021828
-0.0108248
-0.021665
-0.00373825
-0.0213285
0.00318798
-0.0208322
0.00992889
-0.0202657
0.0164756
-0.0196669
0.0228281
-0.0190654
0.0289938
-0.0184834
0.0349702
-0.0178932
0.0407427
-0.0172601
0.0462724
-0.0165109
0.0514873
-0.0155499
0.0562865
-0.0142898
0.0605481
-0.0126677
0.0641293
-0.0106269
0.066894
-0.00818634
0.0687199
-0.00538886
0.0695078
-0.00231122
0.0692209
0.000885024
0.067864
0.00406776
0.0654255
0.00727692
0.0619883
0.0102447
0.0576661
0.0128836
0.0525864
0.0151517
0.0468785
0.0170416
0.0406637
0.0185732
0.0340343
0.0198294
0.0270748
0.0208319
0.0198436
0.0216514
0.0123936
0.0223065
0.00478843
0.0227641
-0.00291175
0.0230364
-0.0106075
0.0230083
-0.0181965
0.0226756
-0.0255402
0.0219315
-0.0324959
0.0207657
-0.038919
0.0191717
-0.0446671
0.0171588
-0.0496234
0.0147998
-0.0536921
0.0121552
-0.0568019
0.00929991
-0.0589191
0.00634159
-0.0600392
0.00336803
-0.0601312
0.000302342
-0.0592622
-0.00256907
-0.0574888
-0.00527197
-0.0548777
-0.0077753
-0.0515143
-0.0100237
-0.0474868
-0.0120076
-0.0429029
-0.0136696
-0.0378775
-0.0149876
-0.0325344
-0.0159366
-0.0270039
-0.0164966
-0.0214223
-0.0166524
-0.0159185
-0.0164226
-0.0106155
-0.0158307
-0.00563442
-0.0148799
-0.00106522
-0.0136616
0.00302703
-0.0122497
0.00660554
-0.0107312
0.00966328
-0.00919022
0.0122268
-0.00772772
0.0143518
-0.00642895
0.0161192
-0.00536735
0.0176258
-0.00458998
0.0189771
-0.00412165
0.0202751
-0.00395092
0.0216047
-0.00402629
0.0230302
-0.00427882
0.0245682
-0.00463779
0.0262612
-0.0048136
-0.00475694
0.02802
-0.0710264
0.0185942
-0.0741683
0.013093
-0.0758093
0.00710373
-0.0758973
0.00107779
-0.074657
-0.00441709
-0.0721432
-0.00951217
-0.0685149
-0.0140415
-0.0639349
-0.017934
-0.0585625
-0.0212058
-0.0525611
-0.0238762
-0.0460771
-0.0259514
-0.0392408
-0.0274439
-0.0321838
-0.0284021
-0.0250138
-0.0289061
-0.017823
-0.0290188
-0.0106898
-0.0287982
-0.00366449
-0.0283538
0.00320736
-0.027704
0.00990521
-0.0269636
0.0164215
-0.0261832
0.0227565
-0.0254004
0.0289184
-0.0246453
0.0349067
-0.0238815
0.0407079
-0.0230613
0.0462831
-0.0220861
0.0515577
-0.0208244
0.056428
-0.0191601
0.0607655
-0.0170052
0.0644208
-0.0142823
0.0672511
-0.0110166
0.0691288
-0.00726655
0.0699554
-0.00313782
0.0696773
0.00116315
0.068312
0.00543304
0.0658457
0.00974323
0.0623658
0.0137246
0.0579923
0.0172572
0.052859
0.020285
0.0471017
0.0227989
0.0408456
0.0248293
0.0341823
0.0264927
0.0271942
0.0278199
0.0199369
0.0289087
0.0124595
0.0297839
0.00482231
0.0304012
-0.00291706
0.0307757
-0.0106599
0.0307511
-0.0183037
0.0303194
-0.0257076
0.0293353
-0.0327241
0.0277822
-0.0392056
0.0256532
-0.045005
0.0229582
-0.0500026
0.0197974
-0.0541012
0.0162539
-0.0572283
0.012427
-0.0593515
0.00846486
-0.0604668
0.00448325
-0.0605415
0.000377122
-0.0596507
-0.00345989
-0.0578485
-0.00707423
-0.0552024
-0.0104214
-0.0517991
-0.013427
-0.0477267
-0.01608
-0.0430934
-0.0183029
-0.0380153
-0.0200658
-0.0326165
-0.0213353
-0.0270293
-0.0220839
-0.0213916
-0.02229
-0.0158336
-0.0219807
-0.0104823
-0.0211819
-0.00546196
-0.0199002
-0.000863494
-0.01826
0.00324359
-0.0163567
0.00682424
-0.0143119
0.00987149
-0.0122375
0.0124121
-0.0102684
0.0145045
-0.00852129
0.0162323
-0.0070952
0.0176964
-0.00605407
0.0190067
-0.00543199
0.0202706
-0.00521479
0.0215793
-0.00533499
0.023011
-0.00571054
0.0245927
-0.00621947
0.02637
-0.00659085
-0.00655442
0.0281674
-0.0716609
0.0231853
-0.0748042
0.0162362
-0.0763995
0.00869907
-0.0765149
0.00119322
-0.0751736
-0.00575839
-0.0725886
-0.0120972
-0.0688893
-0.0177409
-0.064241
-0.0225823
-0.0588105
-0.0266363
-0.0527537
-0.029933
-0.0462113
-0.0324938
-0.0393294
-0.0343257
-0.0322354
-0.0354961
-0.0250349
-0.0361067
-0.0178195
-0.0362342
-0.0106672
-0.0359505
-0.00362652
-0.0353944
0.00325568
-0.0345862
0.00995903
-0.0336669
0.0164791
-0.0327033
0.022819
-0.0317403
0.0289908
-0.0308171
0.0349971
-0.0298877
0.0408263
-0.0288905
0.0464426
-0.0277024
0.0517719
-0.0261538
0.0567104
-0.0240985
0.061126
-0.0214207
0.0648607
-0.018017
0.0677645
-0.0139204
0.0697008
-0.00920284
0.070561
-0.00399805
0.0702943
0.00142986
0.0689178
0.00680959
0.0664128
0.0122482
0.0628739
0.0172635
0.0584301
0.0217009
0.053224
0.0254912
0.0473992
0.0286237
0.0410849
0.0311436
0.0343739
0.0332036
0.0273481
0.0348457
0.0200584
0.0361984
0.0125468
0.0372955
0.00486964
0.0380784
-0.0029208
0.0385662
-0.0107267
0.038557
-0.0184447
0.0380374
-0.0259299
0.0368205
-0.0330287
0.034881
-0.0395891
0.0322136
-0.0454574
0.0288265
-0.0505105
0.0248505
-0.0546497
0.0203931
-0.0577999
0.0155771
-0.0599308
0.0105957
-0.0610384
0.00559089
-0.0610925
0.000431198
-0.0601704
-0.004382
-0.0583291
-0.00891554
-0.0556362
-0.0131142
-0.0521796
-0.0168836
-0.0480472
-0.0202124
-0.0433478
-0.0230023
-0.0381984
-0.0252152
-0.0327246
-0.0268091
-0.0270611
-0.0277475
-0.0213478
-0.0280033
-0.0157176
-0.0276109
-0.0103034
-0.0265961
-0.00523082
-0.0249728
-0.00059448
-0.0228964
0.0035337
-0.0204849
0.00711739
-0.0178955
0.0101508
-0.0152709
0.0126608
-0.0127784
0.0147088
-0.0105694
0.0163829
-0.00876927
0.017789
-0.00746015
0.0190428
-0.00668583
0.0202576
-0.0064296
0.0215306
-0.00660794
0.0229435
-0.00712341
0.0245159
-0.00779188
0.0263194
-0.00839443
-0.00850061
0.0282656
-0.0726894
0.0277512
-0.0757573
0.0193042
-0.0772546
0.0101964
-0.0771586
0.00109721
-0.0757056
-0.0072114
-0.0729708
-0.0148321
-0.0691259
-0.0215857
-0.0643457
-0.0273624
-0.0587998
-0.0321822
-0.0526567
-0.0360761
-0.0460644
-0.0390861
-0.0391515
-0.0412386
-0.0320464
-0.0426013
-0.0248516
-0.0433015
-0.0176548
-0.043431
-0.0105309
-0.0430744
-0.00352403
-0.0424012
0.00332387
-0.0414341
0.009997
-0.04034
0.0164943
-0.0392006
0.0228205
-0.0380665
0.0289917
-0.0369884
0.0350166
-0.0359126
0.0408865
-0.0347604
0.0465675
-0.0333835
0.0519843
-0.0315706
0.0570275
-0.0291416
0.0615567
-0.02595
0.0654031
-0.0218634
0.0684059
-0.0169232
0.0704206
-0.0112175
0.0713288
-0.00490621
0.0710739
0.00168472
0.0696799
0.00820359
0.0671239
0.0148042
0.0635085
0.0208788
0.0589745
0.026235
0.0536751
0.0307905
0.0477656
0.0345332
0.0413805
0.0375287
0.0346132
0.039971
0.0275422
0.0419166
0.0202128
0.0435278
0.0126609
0.0448474
0.00493215
0.0458071
-0.00292344
0.0464218
-0.0108089
0.0464425
-0.0186201
0.0458487
-0.026208
0.0444084
-0.0334109
0.0420838
-0.0400711
0.0388739
-0.0460268
0.0347822
-0.0511498
0.0299736
-0.0553396
0.0245829
-0.0585186
0.0187561
-0.0606591
0.0127361
-0.0617557
0.00668753
-0.061782
0.000457458
-0.0608222
-0.00534176
-0.0589322
-0.0108056
-0.0561807
-0.0158657
-0.0526573
-0.020407
-0.0484499
-0.0244198
-0.0436677
-0.0277845
-0.0384294
-0.0304535
-0.032862
-0.0323765
-0.0271027
-0.0335067
-0.0212922
-0.0338138
-0.0155711
-0.0333319
-0.0100784
-0.0320889
-0.00493806
-0.0301131
-0.00025169
-0.0275827
0.00390303
-0.0246396
0.00748976
-0.0214823
0.0105049
-0.018286
0.0129756
-0.0152491
0.0149672
-0.0125609
0.0165728
-0.0103749
0.017905
-0.00879238
0.0190869
-0.0078677
0.0202392
-0.00758188
0.0214676
-0.00783634
0.0228612
-0.00851705
0.0244528
-0.00938344
0.0263085
-0.0102502
-0.0105156
0.0283235
-0.0738372
0.0323554
-0.0768989
0.0223659
-0.0783084
0.0116059
-0.0781918
0.000980553
-0.0765851
-0.00881807
-0.073719
-0.0176982
-0.0697423
-0.0255624
-0.0648354
-0.0322694
-0.0591759
-0.0378418
-0.0529305
-0.0423214
-0.0462409
-0.0457757
-0.0392456
-0.0482339
-0.0320736
-0.0497733
-0.0248253
-0.0505498
-0.0175869
-0.0506693
-0.0104333
-0.0502281
-0.0034066
-0.0494279
0.00345023
-0.048291
0.0101242
-0.047014
0.0166182
-0.0456946
0.0229413
-0.0443896
0.0291171
-0.0431642
0.03516
-0.0419555
0.041065
-0.0406653
0.0468047
-0.0391231
0.052305
-0.037071
0.0574548
-0.0342914
0.0621071
-0.0306023
0.0660796
-0.0258358
0.0691973
-0.0200409
0.0713028
-0.0133231
0.0722671
-0.00587044
0.0720251
0.0019267
0.0706084
0.00962029
0.0679884
0.0174242
0.064278
0.0245892
0.0596323
0.0308807
0.0542185
0.0362043
0.0482055
0.0405462
0.041734
0.0440002
0.0348985
0.0468065
0.0277741
0.049041
0.020398
0.050904
0.0127959
0.0524494
0.00500814
0.0535949
-0.00292199
0.0543519
-0.0109024
0.0544229
-0.0188268
0.0537731
-0.02654
0.0521216
-0.0338703
0.0494141
-0.0406526
0.0456561
-0.0467148
0.0408444
-0.0519229
0.0351816
-0.0561743
0.0288343
-0.0593875
0.0219694
-0.0615393
0.0148879
-0.0626205
0.00776874
-0.062616
0.000452909
-0.061608
-0.00634968
-0.0596587
-0.0127549
-0.0568367
-0.0186877
-0.0532329
-0.0240108
-0.0489351
-0.0287177
-0.0440531
-0.0326664
-0.0387071
-0.0357995
-0.0330261
-0.0380576
-0.0271498
-0.0393829
-0.0212216
-0.0397421
-0.0153927
-0.0391608
-0.00980423
-0.0376774
-0.0045808
-0.0353365
0.000164584
-0.0323281
0.00435181
-0.0288269
0.00794244
-0.0250729
0.0109355
-0.0212791
0.0133581
-0.0176717
0.0152803
-0.0144831
0.0168016
-0.0118963
0.0180428
-0.0100335
0.0191356
-0.0089605
0.02021
-0.00865633
0.0213815
-0.00900781
0.0227452
-0.00988072
0.0243386
-0.0109769
0.0262253
-0.0121368
-0.0126239
0.0283336
-0.075282
0.0369791
-0.0782965
0.0253804
-0.0796046
0.0129139
-0.0792827
0.000658675
-0.077539
-0.0105618
-0.074491
-0.0207462
-0.0703316
-0.0297218
-0.0652518
-0.0373492
-0.0594349
-0.0436586
-0.0530573
-0.048699
-0.0462694
-0.0525637
-0.0391985
-0.0553048
-0.0319741
-0.0569977
-0.0246934
-0.0578305
-0.0174399
-0.0579228
-0.0102862
-0.0573818
-0.0032699
-0.0564442
0.0035703
-0.0551312
0.0102251
-0.0536688
0.0167027
-0.0521721
0.0230149
-0.0507018
0.0291913
-0.0493406
0.0352559
-0.04802
0.0412108
-0.0466202
0.0470341
-0.0449464
0.0526489
-0.0426858
0.0579387
-0.0395812
0.062747
-0.0354106
0.0668742
-0.0299631
0.0701316
-0.0232983
0.0723471
-0.0155386
0.0733783
-0.00690167
0.0731502
0.00215481
0.0717043
0.0110662
0.0690056
0.0201229
0.0651796
0.0284152
0.0603981
0.0356621
0.0548461
0.0417564
0.0487089
0.0466834
0.0421354
0.0505738
0.035221
0.0537209
0.0280378
0.0562242
0.0206122
0.0583296
0.0129594
0.0601021
0.00510467
0.0614497
-0.00291344
0.06237
-0.0110064
0.0625159
-0.0190653
0.061832
-0.0269274
0.0599837
-0.0344093
0.056896
-0.0413366
0.0525835
-0.0475252
0.047033
-0.0528339
0.0404903
-0.0571569
0.0331573
-0.0604104
0.0252228
-0.0625749
0.0170525
-0.0636356
0.00882945
-0.0635924
0.00040965
-0.0625296
-0.00741244
-0.0605109
-0.0147736
-0.0576062
-0.0215924
-0.0539083
-0.0277087
-0.0495048
-0.0331212
-0.0445061
-0.0376651
-0.039034
-0.0412716
-0.0332198
-0.0438718
-0.0272051
-0.0453976
-0.0211396
-0.0458076
-0.0151802
-0.0451202
-0.00947511
-0.0433824
-0.0041567
-0.040655
0.000660131
-0.0371449
0.00488689
-0.0330536
0.0084814
-0.0286674
0.011447
-0.0242447
0.0138121
-0.0200367
0.015651
-0.016322
0.0170714
-0.0133167
0.0182031
-0.0111652
0.0191886
-0.00994599
0.0201688
-0.00963656
0.02127
-0.010109
0.0225952
-0.011206
0.0241933
-0.0125749
0.0261225
-0.014066
-0.0148134
0.028312
-0.0769269
0.041661
-0.0799381
0.0283916
-0.0811301
0.0141059
-0.0807265
0.000255126
-0.0787891
-0.0124992
-0.0755556
-0.0239798
-0.0712065
-0.0340708
-0.0659424
-0.0426133
-0.0599559
-0.0496451
-0.0534268
-0.0552281
-0.046502
-0.0594884
-0.0393126
-0.0624942
-0.0319907
-0.0643196
-0.0246317
-0.0651896
-0.017318
-0.0652365
-0.0101225
-0.0645773
-0.0030811
-0.0634856
0.00376695
-0.0619792
0.0104176
-0.0603195
0.0168843
-0.0586389
0.0231847
-0.0570021
0.0293581
-0.0555141
0.0354385
-0.0541004
0.0414351
-0.0526168
0.0473363
-0.0508477
0.0530677
-0.0484173
0.0585083
-0.0450218
0.0634904
-0.0403927
0.0677977
-0.0342703
0.0712179
-0.0267186
0.0735621
-0.0178828
0.0746719
-0.00801146
0.0744593
0.00236737
0.0729783
0.0125473
0.0701852
0.022916
0.0662207
0.0323797
0.0612781
0.0406047
0.055563
0.0474715
0.0492806
0.0529657
0.0425908
0.0572636
0.0355885
0.0607232
0.0283421
0.0634706
0.0208637
0.065808
0.0131502
0.0678156
0.00522285
0.0693771
-0.00289358
0.0704864
-0.011116
0.0707383
-0.0193311
0.0700471
-0.0273675
0.06802
-0.0350272
0.0645557
-0.0421244
0.0596807
-0.0484608
0.0533695
-0.0538863
0.0459158
-0.058292
0.037563
-0.0615908
0.0285216
-0.0637695
0.0192312
-0.0648047
0.00986461
-0.064717
0.00032204
-0.063589
-0.00854049
-0.06149
-0.0168726
-0.0584904
-0.024592
-0.0546849
-0.0315142
-0.0501604
-0.0376457
-0.0450276
-0.0427979
-0.03941
-0.0468892
-0.0334407
-0.0498411
-0.0272642
-0.0515742
-0.0210398
-0.052032
-0.0149314
-0.0512285
-0.00909358
-0.0492203
-0.00366383
-0.0460847
0.00123679
-0.0420456
0.00551112
-0.037328
0.00911006
-0.0322664
0.0120425
-0.0271771
0.0143402
-0.0223344
0.0160811
-0.0180629
0.0173821
-0.0146177
0.0183845
-0.0121675
0.019243
-0.0108045
0.0201114
-0.010505
0.0211286
-0.0111261
0.0224064
-0.0124838
0.024002
-0.0141705
0.02597
-0.016034
-0.0170863
0.0282429
-0.0788455
0.0463953
-0.0818281
0.0313741
-0.0828905
0.0151684
-0.0822889
-0.000346562
-0.0801645
-0.0146235
-0.0767041
-0.0274402
-0.0721249
-0.0386501
-0.0666396
-0.0480986
-0.0604492
-0.0558355
-0.0537417
-0.0619356
-0.0466721
-0.0665581
-0.0393639
-0.0698024
-0.0319502
-0.0717334
-0.0245239
-0.0726159
-0.0171644
-0.0725959
-0.00994268
-0.071799
-0.00289094
-0.0705373
0.00395379
-0.068824
0.0105913
-0.066957
0.017042
-0.0650896
0.0233271
-0.0632872
0.0294959
-0.0616829
0.0355971
-0.0602017
0.0416498
-0.0586694
0.0476504
-0.0568483
0.0535249
-0.0542918
0.0591454
-0.0506423
0.0643334
-0.0455807
0.06885
-0.038787
0.0724603
-0.0303288
0.074954
-0.0203765
0.0761559
-0.00921343
0.0759587
0.00256457
0.0744333
0.0140727
0.0715278
0.0258215
0.0673996
0.036508
0.0622657
0.0457386
0.0563589
0.0533783
0.0499084
0.0594162
0.0430852
0.0640867
0.0359847
0.0678238
0.028669
0.0707863
0.0211369
0.0733402
0.0133713
0.0755811
0.0053664
0.077382
-0.0028605
0.0787133
-0.01123
0.0791078
-0.0196242
0.0784413
-0.0278611
0.0762569
-0.0357268
0.0724214
-0.0430201
0.066974
-0.0495267
0.0598761
-0.0550859
0.0514749
-0.0595852
0.0420623
-0.0629342
0.0318707
-0.0651275
0.0214245
-0.0661319
0.010869
-0.0659905
0.000180638
-0.0647894
-0.00974158
-0.0625996
-0.0190624
-0.0594928
-0.0276988
-0.0555656
-0.0354415
-0.0509045
-0.0423067
-0.0456194
-0.048083
-0.0398361
-0.0526726
-0.0336892
-0.0559879
-0.0273307
-0.0579327
-0.020928
-0.0584348
-0.0146478
-0.0575087
-0.00865186
-0.0552162
-0.00309134
-0.0516452
0.00190146
-0.0470384
0.00623055
-0.0416571
0.00983642
-0.0358722
0.012728
-0.0300687
0.0149479
-0.0245543
0.0165744
-0.0196895
0.0177365
-0.0157798
0.0185878
-0.0130188
0.0192977
-0.0115145
0.0200351
-0.0112424
0.0209521
-0.0120431
0.0221719
-0.0137036
0.0237612
-0.0157598
0.0257733
-0.0180461
-0.0194499
0.0281369
-0.0810104
0.0512105
-0.0839878
0.0343515
-0.084919
0.0160996
-0.0841466
-0.00111896
-0.0817989
-0.0169712
-0.0780959
-0.0311432
-0.0732674
-0.0434786
-0.0675401
-0.0538258
-0.0611246
-0.0622511
-0.0542156
-0.0688446
-0.0469689
-0.0738048
-0.0395063
-0.077265
-0.031964
-0.0792757
-0.0244336
-0.0801463
-0.0169942
-0.0800354
-0.00971705
-0.0790761
-0.0026336
-0.0776208
0.00421938
-0.0756769
0.0108474
-0.073585
0.017279
-0.0715211
0.0235409
-0.0695492
0.029695
-0.067837
0.0358054
-0.0663121
0.0419029
-0.0647669
0.048
-0.0629454
0.0540269
-0.0603187
0.0598494
-0.0564648
0.0652711
-0.0510023
0.0700304
-0.0435463
0.0738614
-0.0341598
0.0765308
-0.0230459
0.0778383
-0.0105209
0.0776619
0.00274099
0.0760858
0.0156488
0.0730479
0.0288593
0.0687268
0.0408291
0.0633703
0.0510951
0.0572406
0.059508
0.0505982
0.0660586
0.0436244
0.0710605
0.0364203
0.0750279
0.0290403
0.0781663
0.021455
0.0809255
0.0136276
0.0834085
0.00553829
0.0854713
-0.00280706
0.0870587
-0.0113426
0.0876434
-0.0199409
0.0870395
-0.0284069
0.084723
-0.0365091
0.0805235
-0.0440269
0.0744918
-0.0507281
0.0665773
-0.0564388
0.0571856
-0.0610422
0.0466657
-0.0644462
0.0352747
-0.0666553
0.0236335
-0.0676202
0.0118339
-0.0674188
-2.07303e-05
-0.0661333
-0.0110271
-0.0638405
-0.0213551
-0.0606137
-0.0309256
-0.0565511
-0.0395041
-0.051738
-0.0471198
-0.0462829
-0.053538
-0.0403117
-0.0586438
-0.0339659
-0.0623337
-0.0274045
-0.0644941
-0.0207993
-0.06504
-0.0143242
-0.0639838
-0.00815078
-0.0613896
-0.0024422
-0.0573538
0.00265852
-0.0521391
0.00704677
-0.0460453
0.0106632
-0.0394887
0.0135093
-0.0329147
0.0156385
-0.0266835
0.0171338
-0.0211848
0.0181345
-0.0167806
0.0188108
-0.0136951
0.0193484
-0.0120521
0.0199336
-0.0118276
0.0207342
-0.0128437
0.0218856
-0.014855
0.0234641
-0.0173384
0.0255221
-0.0201041
-0.0219112
0.0279834
-0.0834618
0.0561104
-0.0864045
0.0372942
-0.087176
0.0168711
-0.086202
-0.00209292
-0.0835985
-0.0195748
-0.0796133
-0.0351283
-0.0744986
-0.0485933
-0.0684959
-0.0598285
-0.0618251
-0.0689219
-0.0546896
-0.0759801
-0.0472519
-0.0812426
-0.039629
-0.0848878
-0.0319569
-0.0869478
-0.024326
-0.0877772
-0.0168125
-0.0875489
-0.00948625
-0.0864023
-0.00237669
-0.0847304
0.0044811
-0.0825347
0.0110958
-0.0801997
0.0175053
-0.0779306
0.0237427
-0.0757865
0.0298806
-0.0739749
0.0360028
-0.0724343
0.0421559
-0.07092
0.0483655
-0.069155
0.0545677
-0.0665208
0.0606206
-0.0625178
0.0663106
-0.0566923
0.0713454
-0.0485811
0.0754282
-0.0382426
0.078301
-0.0259187
0.0797348
-0.0119547
0.0795775
0.00289828
0.0779366
0.0172897
0.0747437
0.0320522
0.0701974
0.0453755
0.0645789
0.0567135
0.0581908
0.0658961
0.051327
0.0729224
0.0441855
0.078202
0.0368671
0.0823462
0.029418
0.0856154
0.02179
0.0885535
0.0139182
0.0912803
0.00574718
0.0936423
-0.00273026
0.0955361
-0.0114491
0.0963623
-0.0202777
0.0958681
-0.029004
0.0934492
-0.0373759
0.0888954
-0.0451488
0.0822648
-0.0520706
0.0734992
-0.0579527
0.0630677
-0.0626708
0.0513838
-0.0661343
0.0387381
-0.068358
0.0258572
-0.0692753
0.0127511
-0.0690046
-0.000291357
-0.0676257
-0.012406
-0.0652187
-0.0237621
-0.0618589
-0.0342854
-0.057646
-0.043717
-0.0526641
-0.0521017
-0.0470191
-0.059183
-0.0408421
-0.0648208
-0.0342806
-0.0688952
-0.0274937
-0.071281
-0.0206586
-0.0718751
-0.0139601
-0.0706823
-0.00758321
-0.0677665
-0.00170395
-0.0632331
0.00351802
-0.0573611
0.00797404
-0.0505013
0.0116006
-0.0431153
0.0143941
-0.0357082
0.0164165
-0.0287058
0.0177651
-0.0225335
0.0185813
-0.0175968
0.0190567
-0.0141704
0.0193947
-0.0123901
0.0198044
-0.0122372
0.0204694
-0.0135087
0.0215397
-0.0159253
0.0231026
-0.0189012
0.0252106
-0.0222121
-0.0244826
0.027782
-0.0862091
0.0611255
-0.0890969
0.0401821
-0.0897303
0.0175045
-0.0885246
-0.00329857
-0.0856381
-0.0224613
-0.0813441
-0.0394223
-0.0759155
-0.0540219
-0.0696105
-0.0661335
-0.0626583
-0.0758741
-0.0552707
-0.0833676
-0.0476142
-0.088899
-0.0398024
-0.0926996
-0.0319713
-0.0947789
-0.0242117
-0.0955368
-0.0165989
-0.0951617
-0.0092026
-0.0937986
-0.00205307
-0.0918799
0.00481413
-0.0894019
0.011413
-0.0867986
0.017792
-0.0843096
0.0239905
-0.0819851
0.0300956
-0.08008
0.0362138
-0.0785525
0.0424111
-0.0771173
0.0487335
-0.0754774
0.0551268
-0.0729141
0.0614417
-0.0688327
0.0674389
-0.0626894
0.0727969
-0.0539392
0.0771768
-0.0426224
0.0802824
-0.0290243
0.0818526
-0.0135249
0.0817259
0.00302501
0.0800131
0.0190024
0.0766401
0.0354252
0.071831
0.0501846
0.0659108
0.0626337
0.0592257
0.0725813
0.0521129
0.0800352
0.0447857
0.0855292
0.0373571
0.0897749
0.0298464
0.0931261
0.0221759
0.096224
0.0142412
0.099215
0.0059825
0.101901
-0.00262612
0.104145
-0.0115495
0.105286
-0.0206362
0.104955
-0.0296561
0.102469
-0.0383335
0.0975729
-0.0463936
0.0903248
-0.0535625
0.0806681
-0.0596355
0.0691407
-0.0644772
0.0562255
-0.0680023
0.0422633
-0.0702398
0.0280947
-0.0710991
0.0136104
-0.0707506
-0.000639875
-0.0692637
-0.013893
-0.0667274
-0.0262985
-0.063222
-0.0377907
-0.0588487
-0.0480903
-0.0536885
-0.0572619
-0.0478431
-0.0650284
-0.0414429
-0.071221
-0.0346375
-0.0757006
-0.0275932
-0.0783253
-0.0205007
-0.0789675
-0.0135554
-0.0776276
-0.00695241
-0.0743695
-0.000879859
-0.0693056
0.00447813
-0.062719
0.00901125
-0.0550344
0.0126488
-0.0467529
0.0153898
-0.0384492
0.0172874
-0.0306034
0.0184612
-0.0237072
0.0190697
-0.0182053
0.0193164
-0.0144171
0.0194298
-0.0125036
0.0196385
-0.0124458
0.0201485
-0.0140187
0.0211252
-0.016902
0.0226685
-0.0204445
0.0248307
-0.0243743
-0.0271763
0.0275245
-0.0892784
0.0662819
-0.0920604
0.042964
-0.0925504
0.0179945
-0.091079
-0.00476992
-0.0878713
-0.0256691
-0.0832305
-0.044063
-0.077452
-0.0598004
-0.0708124
-0.0727731
-0.0635488
-0.0831377
-0.0558816
-0.0910349
-0.047984
-0.0967966
-0.0399724
-0.100711
-0.0319757
-0.102776
-0.0240859
-0.103427
-0.0163769
-0.102871
-0.00891539
-0.10126
-0.00173342
-0.0990619
0.00513689
-0.0962722
0.0117112
-0.0933729
0.0180497
-0.0906481
0.0242009
-0.0881363
0.030264
-0.0861431
0.0363722
-0.0846607
0.0426177
-0.0833629
0.049064
-0.0819237
0.0556693
-0.0795195
0.0622803
-0.0754437
0.068626
-0.0690351
0.0743504
-0.0596635
0.079066
-0.0473381
0.082438
-0.0323963
0.0841772
-0.0152641
0.084087
0.00311513
0.0822849
0.0208045
0.0787076
0.0390026
0.0735943
0.0552979
0.0673196
0.0689084
0.0602894
0.0796115
0.0528889
0.0874357
0.0453528
0.0930653
0.0378021
0.0973256
0.0302404
0.100688
0.0225504
0.103914
0.0146048
0.107161
0.0062743
0.110232
-0.00247982
0.112899
-0.0116214
0.114427
-0.0209925
0.114326
-0.030338
0.111815
-0.0393587
0.106594
-0.0477431
0.0987092
-0.0551925
0.0881175
-0.0614797
0.0754278
-0.0664551
0.061201
-0.0700451
0.0458532
-0.0722901
0.0303398
-0.0730796
0.0143998
-0.0726399
-0.00107955
-0.0710318
-0.015501
-0.0683566
-0.0289737
-0.064697
-0.0414504
-0.0601536
-0.0526337
-0.054803
-0.0626124
-0.0487356
-0.0710958
-0.0420868
-0.0778698
-0.0350206
-0.0827668
-0.0277067
-0.0856392
-0.0203367
-0.0863375
-0.013115
-0.0848494
-0.00625776
-0.0812268
2.5349e-05
-0.0755887
0.00553704
-0.0682307
0.0101598
-0.0596572
0.0138066
-0.0503996
0.0164746
-0.0411172
0.0182406
-0.0323694
0.0192201
-0.0246868
0.01959
-0.0185751
0.0195731
-0.0144002
0.0194308
-0.0123614
0.0194111
-0.0124261
0.0197429
-0.0143506
0.0206097
-0.0177688
0.0221294
-0.0219642
0.0243521
-0.0265971
-0.0300173
0.0271931
-0.0324109
0.0681569
-0.0333709
0.043924
-0.03351
0.0181336
-0.0329202
-0.00535978
-0.0316998
-0.0268895
-0.0299659
-0.0457969
-0.0278283
-0.061938
-0.02539
-0.0752114
-0.0227364
-0.0857913
-0.0199472
-0.0938241
-0.0170843
-0.0996595
-0.0141925
-0.103603
-0.0113144
-0.105654
-0.00848268
-0.106258
-0.00572339
-0.10563
-0.00305971
-0.103924
-0.000504281
-0.101617
0.0019311
-0.0987076
0.00425292
-0.0956947
0.00648517
-0.0928804
0.00864682
-0.0902979
0.0107765
-0.0882727
0.0129287
-0.0868129
0.0151441
-0.0855783
0.0174519
-0.0842314
0.0198418
-0.0819094
0.0222578
-0.0778597
0.0245959
-0.0713732
0.0267202
-0.0617878
0.0284799
-0.0490978
0.0297473
-0.0336636
0.0304091
-0.0159259
0.0303886
0.00313566
0.0297277
0.0214655
0.0284069
0.0403233
0.0265162
0.0571886
0.0242009
0.0712236
0.0216206
0.0821918
0.0189258
0.0901305
0.016206
0.0957852
0.0135067
0.100025
0.0108218
0.103373
0.00810138
0.106634
0.00528536
0.109977
0.00232182
0.113195
-0.00080787
0.116029
-0.00410077
0.11772
-0.00749478
0.11772
-0.0108918
0.115212
-0.0141796
0.109881
-0.0172375
0.101767
-0.0199526
0.0908326
-0.0222385
0.0777138
-0.024037
0.0629994
-0.0253266
0.0471429
-0.0261232
0.0311364
-0.0263839
0.0146605
-0.0262035
-0.00125987
-0.0256014
-0.0161032
-0.0246156
-0.0299595
-0.0232771
-0.0427889
-0.0216212
-0.0542896
-0.0196737
-0.0645599
-0.0174668
-0.0733028
-0.0150499
-0.0802867
-0.012481
-0.0853357
-0.00982044
-0.0882997
-0.00713975
-0.0890182
-0.00451315
-0.087476
-0.00201545
-0.0837245
0.000263688
-0.0778679
0.00225344
-0.0702205
0.0039101
-0.0613139
0.00520437
-0.0516939
0.0061335
-0.0420463
0.00672163
-0.0329575
0.00701595
-0.0249811
0.00708191
-0.0186411
0.00700497
-0.0143232
0.00688451
-0.0122409
0.00681471
-0.0123563
0.00688472
-0.0144206
0.00716072
-0.0180448
0.00769075
-0.0224942
0.00849021
-0.0273965
-0.0310591
0.00953207
-0.032867
0.070051
-0.0338029
0.0448599
-0.0339147
0.0182454
-0.033283
-0.00599149
-0.0320134
-0.028159
-0.0302281
-0.0475822
-0.0280395
-0.0641266
-0.0255534
-0.0776976
-0.022856
-0.0884886
-0.0200294
-0.0966507
-0.0171369
-0.102552
-0.0142174
-0.106523
-0.0113136
-0.108557
-0.00845977
-0.109112
-0.00568225
-0.108408
-0.00300385
-0.106602
-0.000438298
-0.104183
0.00200126
-0.101147
0.00432336
-0.0980168
0.00655285
-0.0951098
0.00870957
-0.0924546
0.0108333
-0.0903965
0.0129826
-0.0889622
0.0152024
-0.0877981
0.0175244
-0.0865534
0.0199414
-0.0843265
0.0223977
-0.0803159
0.0247844
-0.0737599
0.0269611
-0.0639645
0.0287698
-0.0509065
0.0300743
-0.0349681
0.0307577
-0.0166093
0.0307396
0.00315369
0.0300615
0.0221435
0.0287061
0.0416787
0.0267663
0.0591285
0.0243959
0.0735941
0.0217657
0.084822
0.019033
0.0928632
0.0162872
0.098531
0.0135754
0.102737
0.0108893
0.106059
0.00817114
0.109353
0.00535455
0.112793
0.00238284
0.116167
-0.000768695
0.11918
-0.0040971
0.121048
-0.00753675
0.12116
-0.0109868
0.118662
-0.0143287
0.113223
-0.0174356
0.104874
-0.0201918
0.0935888
-0.0225092
0.0800312
-0.024326
0.0648162
-0.0256237
0.0484405
-0.0264194
0.0319321
-0.0266706
0.0149117
-0.0264775
-0.00145302
-0.0258578
-0.0167229
-0.0248512
-0.030966
-0.0234895
-0.0441506
-0.0218078
-0.0559714
-0.0198322
-0.0665354
-0.0175925
-0.0755425
-0.0151366
-0.0827427
-0.0125247
-0.0879476
-0.00982021
-0.0910043
-0.00709742
-0.091741
-0.00443234
-0.090141
-0.0019014
-0.0862554
0.000413372
-0.0801826
0.00243292
-0.07224
0.00410137
-0.0629824
0.0053953
-0.0529878
0.00631312
-0.0429641
0.0068805
-0.0335249
0.00714507
-0.0252457
0.00717434
-0.0186704
0.00705755
-0.0142065
0.00689796