/*--------------------------------*- C++ -*----------------------------------*\
| =========                 |                                                 |
| \\      /  F ield         | OpenFOAM: The Open Source CFD Toolbox           |
|  \\    /   O peration     | Version:  v1912                                 |
|   \\  /    A nd           | Website:  www.openfoam.com                      |
|    \\/     M anipulation  |                                                 |
\*---------------------------------------------------------------------------*/
FoamFile
{
    version     2.0;
    format      ascii;
    class       volScalarField;
    location    "90";
    object      k;
}
// * * * * * * * * * * * * * * * * * * * * * * * * * * * * * * * * * * * * * //

dimensions      [0 2 -2 0 0 0 0];


internalField   nonuniform List<scalar> 
14268
(
2.71474e-12
2.71827e-12
2.72164e-12
2.72486e-12
2.72792e-12
2.73085e-12
2.73363e-12
2.73629e-12
2.73881e-12
2.74122e-12
2.74351e-12
2.7457e-12
2.74777e-12
2.74975e-12
2.75163e-12
2.75342e-12
2.75512e-12
2.75673e-12
2.75827e-12
2.75973e-12
2.76111e-12
2.76243e-12
2.76368e-12
2.76486e-12
2.76599e-12
2.76706e-12
2.76807e-12
2.76903e-12
2.76994e-12
2.7708e-12
2.77162e-12
2.77239e-12
2.77313e-12
2.77382e-12
2.77448e-12
2.7751e-12
2.77569e-12
2.77625e-12
2.77677e-12
2.77727e-12
2.77774e-12
2.77819e-12
2.77861e-12
2.779e-12
2.77938e-12
2.77973e-12
2.78007e-12
2.78038e-12
2.78068e-12
2.78096e-12
2.78122e-12
2.78147e-12
2.7817e-12
2.78192e-12
2.78213e-12
2.78233e-12
2.78251e-12
2.78268e-12
2.78285e-12
2.783e-12
2.78314e-12
2.78328e-12
2.7834e-12
2.78352e-12
2.78364e-12
2.78374e-12
2.78384e-12
2.78393e-12
2.78402e-12
2.7841e-12
2.78417e-12
2.78424e-12
2.78431e-12
2.78437e-12
2.78443e-12
2.78449e-12
2.78454e-12
2.78458e-12
2.78463e-12
2.78467e-12
2.78471e-12
2.78474e-12
2.78478e-12
2.78481e-12
2.78484e-12
2.78486e-12
2.78489e-12
2.78491e-12
2.78493e-12
2.78495e-12
2.78497e-12
2.78499e-12
2.785e-12
2.78502e-12
2.78503e-12
2.78504e-12
2.78505e-12
2.78506e-12
2.78507e-12
2.78507e-12
2.78509e-12
2.78508e-12
2.7851e-12
2.78509e-12
2.78511e-12
2.78509e-12
2.78512e-12
2.78509e-12
2.78512e-12
2.78509e-12
2.78512e-12
2.78509e-12
2.78512e-12
2.78508e-12
2.78512e-12
2.78509e-12
2.78513e-12
2.78509e-12
2.78514e-12
2.78509e-12
2.78516e-12
2.78508e-12
2.78518e-12
2.78506e-12
2.78518e-12
2.78502e-12
2.78519e-12
2.78498e-12
2.78522e-12
2.78497e-12
2.78526e-12
2.78501e-12
2.78534e-12
2.78507e-12
2.78538e-12
2.78514e-12
2.78541e-12
2.78517e-12
2.78541e-12
2.78529e-12
2.78541e-12
2.78532e-12
2.7854e-12
2.78533e-12
2.78538e-12
2.78532e-12
2.78536e-12
2.78531e-12
2.78534e-12
2.78529e-12
2.78532e-12
2.78528e-12
2.78531e-12
2.78527e-12
2.78529e-12
2.78526e-12
2.78529e-12
2.78526e-12
2.78529e-12
2.78527e-12
2.78536e-12
2.78535e-12
2.78752e-12
2.82528e-12
8.02755e-11
8.03811e-11
8.0482e-11
8.05783e-11
8.06701e-11
8.07576e-11
8.0841e-11
8.09205e-11
8.09962e-11
8.10683e-11
8.11369e-11
8.12023e-11
8.12645e-11
8.13236e-11
8.13799e-11
8.14335e-11
8.14843e-11
8.15327e-11
8.15787e-11
8.16224e-11
8.16639e-11
8.17033e-11
8.17407e-11
8.17762e-11
8.18099e-11
8.18419e-11
8.18722e-11
8.19009e-11
8.19282e-11
8.1954e-11
8.19785e-11
8.20017e-11
8.20237e-11
8.20445e-11
8.20642e-11
8.20828e-11
8.21004e-11
8.21171e-11
8.21329e-11
8.21478e-11
8.21619e-11
8.21752e-11
8.21878e-11
8.21997e-11
8.22109e-11
8.22215e-11
8.22314e-11
8.22409e-11
8.22498e-11
8.22581e-11
8.2266e-11
8.22735e-11
8.22805e-11
8.22871e-11
8.22933e-11
8.22992e-11
8.23047e-11
8.23098e-11
8.23147e-11
8.23193e-11
8.23236e-11
8.23276e-11
8.23314e-11
8.2335e-11
8.23383e-11
8.23415e-11
8.23444e-11
8.23472e-11
8.23498e-11
8.23522e-11
8.23545e-11
8.23566e-11
8.23586e-11
8.23604e-11
8.23622e-11
8.23638e-11
8.23653e-11
8.23668e-11
8.23681e-11
8.23693e-11
8.23705e-11
8.23715e-11
8.23725e-11
8.23735e-11
8.23743e-11
8.23751e-11
8.23759e-11
8.23766e-11
8.23772e-11
8.23778e-11
8.23783e-11
8.23788e-11
8.23793e-11
8.23797e-11
8.23801e-11
8.23804e-11
8.23808e-11
8.2381e-11
8.23813e-11
8.23815e-11
8.23818e-11
8.23818e-11
8.23822e-11
8.23819e-11
8.23825e-11
8.2382e-11
8.23827e-11
8.2382e-11
8.23828e-11
8.23819e-11
8.23829e-11
8.23818e-11
8.23829e-11
8.23818e-11
8.23829e-11
8.23818e-11
8.2383e-11
8.23819e-11
8.23834e-11
8.2382e-11
8.23839e-11
8.23818e-11
8.23845e-11
8.2381e-11
8.23847e-11
8.23798e-11
8.23849e-11
8.23788e-11
8.23857e-11
8.23785e-11
8.2387e-11
8.23794e-11
8.23893e-11
8.23813e-11
8.23906e-11
8.23834e-11
8.23912e-11
8.23845e-11
8.23912e-11
8.23878e-11
8.23912e-11
8.23886e-11
8.23909e-11
8.23889e-11
8.23904e-11
8.23888e-11
8.23899e-11
8.23884e-11
8.23893e-11
8.23879e-11
8.23887e-11
8.23875e-11
8.23883e-11
8.23872e-11
8.23879e-11
8.2387e-11
8.23877e-11
8.23869e-11
8.23878e-11
8.23873e-11
8.23897e-11
8.23897e-11
8.24535e-11
8.34836e-11
5.49111e-10
5.49818e-10
5.50493e-10
5.51138e-10
5.51752e-10
5.52337e-10
5.52895e-10
5.53427e-10
5.53933e-10
5.54415e-10
5.54874e-10
5.55311e-10
5.55727e-10
5.56123e-10
5.56499e-10
5.56858e-10
5.57198e-10
5.57521e-10
5.57829e-10
5.58121e-10
5.58398e-10
5.58662e-10
5.58912e-10
5.59149e-10
5.59375e-10
5.59589e-10
5.59791e-10
5.59984e-10
5.60166e-10
5.60339e-10
5.60502e-10
5.60657e-10
5.60804e-10
5.60943e-10
5.61075e-10
5.612e-10
5.61317e-10
5.61429e-10
5.61534e-10
5.61634e-10
5.61728e-10
5.61817e-10
5.61901e-10
5.61981e-10
5.62056e-10
5.62127e-10
5.62193e-10
5.62256e-10
5.62316e-10
5.62372e-10
5.62425e-10
5.62474e-10
5.62521e-10
5.62565e-10
5.62607e-10
5.62646e-10
5.62683e-10
5.62717e-10
5.6275e-10
5.62781e-10
5.62809e-10
5.62836e-10
5.62862e-10
5.62886e-10
5.62908e-10
5.62929e-10
5.62949e-10
5.62967e-10
5.62984e-10
5.63001e-10
5.63016e-10
5.6303e-10
5.63043e-10
5.63056e-10
5.63067e-10
5.63078e-10
5.63088e-10
5.63098e-10
5.63107e-10
5.63115e-10
5.63123e-10
5.6313e-10
5.63137e-10
5.63143e-10
5.63149e-10
5.63154e-10
5.63159e-10
5.63163e-10
5.63168e-10
5.63172e-10
5.63175e-10
5.63179e-10
5.63182e-10
5.63185e-10
5.63187e-10
5.63189e-10
5.63192e-10
5.63193e-10
5.63195e-10
5.63196e-10
5.63199e-10
5.63198e-10
5.63201e-10
5.63199e-10
5.63203e-10
5.632e-10
5.63204e-10
5.632e-10
5.63205e-10
5.63199e-10
5.63206e-10
5.63199e-10
5.63206e-10
5.63198e-10
5.63206e-10
5.63198e-10
5.63207e-10
5.63199e-10
5.63209e-10
5.632e-10
5.63213e-10
5.63198e-10
5.63216e-10
5.63193e-10
5.63218e-10
5.63185e-10
5.63219e-10
5.63178e-10
5.63225e-10
5.63177e-10
5.63233e-10
5.63183e-10
5.63248e-10
5.63195e-10
5.63257e-10
5.63209e-10
5.63261e-10
5.63216e-10
5.63261e-10
5.63239e-10
5.63261e-10
5.63243e-10
5.63259e-10
5.63245e-10
5.63256e-10
5.63244e-10
5.63252e-10
5.63242e-10
5.63248e-10
5.63239e-10
5.63245e-10
5.63236e-10
5.63241e-10
5.63234e-10
5.63239e-10
5.63233e-10
5.63238e-10
5.63233e-10
5.63238e-10
5.63235e-10
5.63251e-10
5.63251e-10
5.63677e-10
5.69932e-10
1.86447e-09
1.86677e-09
1.86896e-09
1.87105e-09
1.87305e-09
1.87495e-09
1.87676e-09
1.87849e-09
1.88013e-09
1.8817e-09
1.88319e-09
1.88461e-09
1.88596e-09
1.88724e-09
1.88847e-09
1.88963e-09
1.89073e-09
1.89178e-09
1.89278e-09
1.89373e-09
1.89463e-09
1.89549e-09
1.8963e-09
1.89707e-09
1.8978e-09
1.89849e-09
1.89915e-09
1.89978e-09
1.90037e-09
1.90093e-09
1.90146e-09
1.90196e-09
1.90244e-09
1.90289e-09
1.90332e-09
1.90372e-09
1.9041e-09
1.90447e-09
1.90481e-09
1.90513e-09
1.90544e-09
1.90573e-09
1.906e-09
1.90626e-09
1.9065e-09
1.90673e-09
1.90695e-09
1.90715e-09
1.90734e-09
1.90753e-09
1.9077e-09
1.90786e-09
1.90801e-09
1.90815e-09
1.90829e-09
1.90841e-09
1.90853e-09
1.90865e-09
1.90875e-09
1.90885e-09
1.90894e-09
1.90903e-09
1.90911e-09
1.90919e-09
1.90926e-09
1.90933e-09
1.9094e-09
1.90946e-09
1.90951e-09
1.90957e-09
1.90961e-09
1.90966e-09
1.9097e-09
1.90974e-09
1.90978e-09
1.90982e-09
1.90985e-09
1.90988e-09
1.90991e-09
1.90994e-09
1.90996e-09
1.90998e-09
1.91001e-09
1.91003e-09
1.91004e-09
1.91006e-09
1.91008e-09
1.91009e-09
1.91011e-09
1.91012e-09
1.91013e-09
1.91014e-09
1.91015e-09
1.91016e-09
1.91017e-09
1.91018e-09
1.91018e-09
1.91019e-09
1.9102e-09
1.9102e-09
1.91021e-09
1.91021e-09
1.91022e-09
1.91021e-09
1.91022e-09
1.91021e-09
1.91023e-09
1.91021e-09
1.91023e-09
1.91021e-09
1.91023e-09
1.91021e-09
1.91023e-09
1.91021e-09
1.91023e-09
1.91021e-09
1.91023e-09
1.91021e-09
1.91024e-09
1.91021e-09
1.91025e-09
1.91021e-09
1.91026e-09
1.91019e-09
1.91027e-09
1.91016e-09
1.91027e-09
1.91014e-09
1.91029e-09
1.91014e-09
1.91032e-09
1.91016e-09
1.91037e-09
1.9102e-09
1.91039e-09
1.91024e-09
1.91041e-09
1.91026e-09
1.91041e-09
1.91034e-09
1.91041e-09
1.91035e-09
1.9104e-09
1.91036e-09
1.91039e-09
1.91036e-09
1.91038e-09
1.91035e-09
1.91037e-09
1.91034e-09
1.91036e-09
1.91033e-09
1.91035e-09
1.91032e-09
1.91034e-09
1.91032e-09
1.91033e-09
1.91032e-09
1.91034e-09
1.91032e-09
1.91038e-09
1.91038e-09
1.91175e-09
1.93025e-09
4.36128e-09
4.36628e-09
4.37105e-09
4.3756e-09
4.37994e-09
4.38407e-09
4.38801e-09
4.39177e-09
4.39534e-09
4.39874e-09
4.40198e-09
4.40507e-09
4.408e-09
4.41079e-09
4.41345e-09
4.41597e-09
4.41837e-09
4.42065e-09
4.42282e-09
4.42488e-09
4.42684e-09
4.42869e-09
4.43046e-09
4.43213e-09
4.43372e-09
4.43522e-09
4.43665e-09
4.43801e-09
4.43929e-09
4.44051e-09
4.44166e-09
4.44275e-09
4.44379e-09
4.44477e-09
4.4457e-09
4.44657e-09
4.4474e-09
4.44819e-09
4.44893e-09
4.44963e-09
4.4503e-09
4.45092e-09
4.45151e-09
4.45207e-09
4.4526e-09
4.4531e-09
4.45357e-09
4.45401e-09
4.45443e-09
4.45483e-09
4.4552e-09
4.45555e-09
4.45588e-09
4.45619e-09
4.45648e-09
4.45676e-09
4.45702e-09
4.45726e-09
4.45749e-09
4.45771e-09
4.45791e-09
4.4581e-09
4.45828e-09
4.45844e-09
4.4586e-09
4.45875e-09
4.45889e-09
4.45902e-09
4.45914e-09
4.45925e-09
4.45936e-09
4.45946e-09
4.45955e-09
4.45964e-09
4.45972e-09
4.4598e-09
4.45987e-09
4.45994e-09
4.46e-09
4.46006e-09
4.46011e-09
4.46016e-09
4.46021e-09
4.46025e-09
4.4603e-09
4.46033e-09
4.46037e-09
4.4604e-09
4.46043e-09
4.46046e-09
4.46048e-09
4.46051e-09
4.46053e-09
4.46055e-09
4.46057e-09
4.46058e-09
4.4606e-09
4.46061e-09
4.46062e-09
4.46063e-09
4.46065e-09
4.46064e-09
4.46066e-09
4.46065e-09
4.46068e-09
4.46066e-09
4.46069e-09
4.46065e-09
4.46069e-09
4.46065e-09
4.4607e-09
4.46065e-09
4.4607e-09
4.46064e-09
4.4607e-09
4.46065e-09
4.4607e-09
4.46065e-09
4.46072e-09
4.46065e-09
4.46075e-09
4.46064e-09
4.46077e-09
4.46061e-09
4.46078e-09
4.46055e-09
4.46079e-09
4.4605e-09
4.46083e-09
4.46049e-09
4.46089e-09
4.46053e-09
4.461e-09
4.46062e-09
4.46105e-09
4.46072e-09
4.46108e-09
4.46077e-09
4.46108e-09
4.46093e-09
4.46108e-09
4.46096e-09
4.46107e-09
4.46097e-09
4.46105e-09
4.46097e-09
4.46102e-09
4.46095e-09
4.46099e-09
4.46093e-09
4.46097e-09
4.46091e-09
4.46095e-09
4.4609e-09
4.46093e-09
4.46089e-09
4.46092e-09
4.46089e-09
4.46093e-09
4.4609e-09
4.46101e-09
4.46102e-09
4.46401e-09
4.50108e-09
8.10094e-09
8.10933e-09
8.11734e-09
8.12498e-09
8.13226e-09
8.13921e-09
8.14582e-09
8.15212e-09
8.15811e-09
8.16382e-09
8.16926e-09
8.17443e-09
8.17935e-09
8.18403e-09
8.18848e-09
8.19272e-09
8.19674e-09
8.20057e-09
8.2042e-09
8.20765e-09
8.21093e-09
8.21404e-09
8.217e-09
8.2198e-09
8.22246e-09
8.22499e-09
8.22738e-09
8.22965e-09
8.2318e-09
8.23384e-09
8.23577e-09
8.2376e-09
8.23933e-09
8.24097e-09
8.24253e-09
8.244e-09
8.24539e-09
8.2467e-09
8.24795e-09
8.24912e-09
8.25023e-09
8.25128e-09
8.25227e-09
8.25321e-09
8.2541e-09
8.25493e-09
8.25572e-09
8.25646e-09
8.25716e-09
8.25782e-09
8.25844e-09
8.25903e-09
8.25958e-09
8.2601e-09
8.26059e-09
8.26105e-09
8.26149e-09
8.2619e-09
8.26228e-09
8.26264e-09
8.26298e-09
8.2633e-09
8.2636e-09
8.26388e-09
8.26414e-09
8.26439e-09
8.26462e-09
8.26484e-09
8.26504e-09
8.26523e-09
8.26541e-09
8.26558e-09
8.26574e-09
8.26588e-09
8.26602e-09
8.26615e-09
8.26627e-09
8.26638e-09
8.26649e-09
8.26658e-09
8.26667e-09
8.26676e-09
8.26684e-09
8.26691e-09
8.26698e-09
8.26704e-09
8.2671e-09
8.26716e-09
8.26721e-09
8.26725e-09
8.2673e-09
8.26733e-09
8.26737e-09
8.2674e-09
8.26743e-09
8.26746e-09
8.26749e-09
8.26751e-09
8.26753e-09
8.26754e-09
8.26757e-09
8.26756e-09
8.2676e-09
8.26758e-09
8.26762e-09
8.26758e-09
8.26764e-09
8.26758e-09
8.26765e-09
8.26757e-09
8.26765e-09
8.26757e-09
8.26765e-09
8.26756e-09
8.26765e-09
8.26756e-09
8.26766e-09
8.26757e-09
8.26769e-09
8.26758e-09
8.26773e-09
8.26756e-09
8.26778e-09
8.2675e-09
8.26779e-09
8.2674e-09
8.26781e-09
8.26732e-09
8.26788e-09
8.2673e-09
8.26798e-09
8.26738e-09
8.26815e-09
8.26753e-09
8.26825e-09
8.26769e-09
8.2683e-09
8.26778e-09
8.2683e-09
8.26804e-09
8.2683e-09
8.26809e-09
8.26827e-09
8.26812e-09
8.26824e-09
8.26811e-09
8.26819e-09
8.26808e-09
8.26815e-09
8.26805e-09
8.26811e-09
8.26801e-09
8.26807e-09
8.26799e-09
8.26805e-09
8.26797e-09
8.26803e-09
8.26797e-09
8.26804e-09
8.268e-09
8.26819e-09
8.2682e-09
8.27322e-09
8.33122e-09
1.28448e-08
1.28565e-08
1.28676e-08
1.28783e-08
1.28884e-08
1.28981e-08
1.29073e-08
1.29161e-08
1.29244e-08
1.29324e-08
1.29399e-08
1.29471e-08
1.2954e-08
1.29605e-08
1.29667e-08
1.29726e-08
1.29782e-08
1.29835e-08
1.29885e-08
1.29933e-08
1.29979e-08
1.30022e-08
1.30063e-08
1.30102e-08
1.30139e-08
1.30174e-08
1.30207e-08
1.30239e-08
1.30269e-08
1.30297e-08
1.30324e-08
1.30349e-08
1.30373e-08
1.30396e-08
1.30418e-08
1.30438e-08
1.30457e-08
1.30476e-08
1.30493e-08
1.30509e-08
1.30525e-08
1.30539e-08
1.30553e-08
1.30566e-08
1.30578e-08
1.3059e-08
1.30601e-08
1.30611e-08
1.30621e-08
1.3063e-08
1.30639e-08
1.30647e-08
1.30655e-08
1.30662e-08
1.30669e-08
1.30675e-08
1.30681e-08
1.30687e-08
1.30692e-08
1.30697e-08
1.30702e-08
1.30706e-08
1.3071e-08
1.30714e-08
1.30718e-08
1.30721e-08
1.30725e-08
1.30728e-08
1.3073e-08
1.30733e-08
1.30736e-08
1.30738e-08
1.3074e-08
1.30742e-08
1.30744e-08
1.30746e-08
1.30747e-08
1.30749e-08
1.3075e-08
1.30752e-08
1.30753e-08
1.30754e-08
1.30755e-08
1.30756e-08
1.30757e-08
1.30758e-08
1.30759e-08
1.3076e-08
1.3076e-08
1.30761e-08
1.30762e-08
1.30762e-08
1.30763e-08
1.30763e-08
1.30764e-08
1.30764e-08
1.30764e-08
1.30765e-08
1.30765e-08
1.30765e-08
1.30765e-08
1.30765e-08
1.30766e-08
1.30766e-08
1.30766e-08
1.30766e-08
1.30766e-08
1.30766e-08
1.30767e-08
1.30766e-08
1.30767e-08
1.30765e-08
1.30767e-08
1.30765e-08
1.30767e-08
1.30765e-08
1.30767e-08
1.30766e-08
1.30767e-08
1.30766e-08
1.30768e-08
1.30765e-08
1.30768e-08
1.30764e-08
1.30769e-08
1.30763e-08
1.30769e-08
1.30762e-08
1.3077e-08
1.30762e-08
1.30771e-08
1.30763e-08
1.30774e-08
1.30765e-08
1.30775e-08
1.30767e-08
1.30776e-08
1.30768e-08
1.30776e-08
1.30772e-08
1.30776e-08
1.30773e-08
1.30775e-08
1.30773e-08
1.30775e-08
1.30773e-08
1.30774e-08
1.30773e-08
1.30774e-08
1.30772e-08
1.30773e-08
1.30772e-08
1.30773e-08
1.30771e-08
1.30772e-08
1.30771e-08
1.30772e-08
1.30771e-08
1.30772e-08
1.30771e-08
1.30774e-08
1.30774e-08
1.30844e-08
1.31604e-08
1.81381e-08
1.81521e-08
1.81656e-08
1.81784e-08
1.81906e-08
1.82022e-08
1.82133e-08
1.82238e-08
1.82338e-08
1.82434e-08
1.82525e-08
1.82611e-08
1.82693e-08
1.82772e-08
1.82846e-08
1.82917e-08
1.82984e-08
1.83048e-08
1.83108e-08
1.83166e-08
1.8322e-08
1.83272e-08
1.83322e-08
1.83368e-08
1.83413e-08
1.83455e-08
1.83495e-08
1.83532e-08
1.83568e-08
1.83602e-08
1.83634e-08
1.83665e-08
1.83694e-08
1.83721e-08
1.83747e-08
1.83771e-08
1.83795e-08
1.83816e-08
1.83837e-08
1.83857e-08
1.83875e-08
1.83893e-08
1.83909e-08
1.83925e-08
1.83939e-08
1.83953e-08
1.83966e-08
1.83979e-08
1.8399e-08
1.84001e-08
1.84012e-08
1.84022e-08
1.84031e-08
1.84039e-08
1.84048e-08
1.84055e-08
1.84062e-08
1.84069e-08
1.84076e-08
1.84082e-08
1.84087e-08
1.84093e-08
1.84098e-08
1.84102e-08
1.84107e-08
1.84111e-08
1.84115e-08
1.84118e-08
1.84122e-08
1.84125e-08
1.84128e-08
1.84131e-08
1.84133e-08
1.84136e-08
1.84138e-08
1.8414e-08
1.84142e-08
1.84144e-08
1.84146e-08
1.84147e-08
1.84149e-08
1.8415e-08
1.84151e-08
1.84153e-08
1.84154e-08
1.84155e-08
1.84156e-08
1.84157e-08
1.84158e-08
1.84158e-08
1.84159e-08
1.8416e-08
1.8416e-08
1.84161e-08
1.84161e-08
1.84162e-08
1.84162e-08
1.84163e-08
1.84163e-08
1.84163e-08
1.84164e-08
1.84164e-08
1.84164e-08
1.84164e-08
1.84165e-08
1.84164e-08
1.84165e-08
1.84164e-08
1.84165e-08
1.84164e-08
1.84165e-08
1.84164e-08
1.84165e-08
1.84164e-08
1.84165e-08
1.84164e-08
1.84165e-08
1.84164e-08
1.84166e-08
1.84164e-08
1.84166e-08
1.84164e-08
1.84167e-08
1.84162e-08
1.84167e-08
1.84161e-08
1.84168e-08
1.84159e-08
1.84169e-08
1.84159e-08
1.84171e-08
1.8416e-08
1.84174e-08
1.84163e-08
1.84175e-08
1.84166e-08
1.84176e-08
1.84167e-08
1.84176e-08
1.84172e-08
1.84176e-08
1.84173e-08
1.84176e-08
1.84173e-08
1.84175e-08
1.84173e-08
1.84174e-08
1.84172e-08
1.84173e-08
1.84172e-08
1.84173e-08
1.84171e-08
1.84172e-08
1.84171e-08
1.84172e-08
1.8417e-08
1.84171e-08
1.8417e-08
1.84172e-08
1.84171e-08
1.84174e-08
1.84174e-08
1.84258e-08
1.85125e-08
2.34551e-08
2.347e-08
2.34843e-08
2.34979e-08
2.35109e-08
2.35232e-08
2.3535e-08
2.35462e-08
2.35569e-08
2.3567e-08
2.35767e-08
2.35858e-08
2.35946e-08
2.36029e-08
2.36108e-08
2.36183e-08
2.36254e-08
2.36322e-08
2.36386e-08
2.36447e-08
2.36505e-08
2.3656e-08
2.36612e-08
2.36662e-08
2.36709e-08
2.36753e-08
2.36796e-08
2.36836e-08
2.36874e-08
2.3691e-08
2.36944e-08
2.36976e-08
2.37007e-08
2.37036e-08
2.37063e-08
2.37089e-08
2.37114e-08
2.37137e-08
2.37159e-08
2.3718e-08
2.37199e-08
2.37218e-08
2.37235e-08
2.37252e-08
2.37267e-08
2.37282e-08
2.37296e-08
2.37309e-08
2.37321e-08
2.37333e-08
2.37344e-08
2.37354e-08
2.37364e-08
2.37373e-08
2.37382e-08
2.3739e-08
2.37398e-08
2.37405e-08
2.37412e-08
2.37418e-08
2.37424e-08
2.3743e-08
2.37435e-08
2.3744e-08
2.37445e-08
2.37449e-08
2.37453e-08
2.37457e-08
2.3746e-08
2.37464e-08
2.37467e-08
2.3747e-08
2.37473e-08
2.37475e-08
2.37478e-08
2.3748e-08
2.37482e-08
2.37484e-08
2.37486e-08
2.37488e-08
2.37489e-08
2.37491e-08
2.37492e-08
2.37493e-08
2.37495e-08
2.37496e-08
2.37497e-08
2.37498e-08
2.37499e-08
2.37499e-08
2.375e-08
2.37501e-08
2.37502e-08
2.37502e-08
2.37503e-08
2.37503e-08
2.37504e-08
2.37504e-08
2.37504e-08
2.37505e-08
2.37505e-08
2.37505e-08
2.37506e-08
2.37505e-08
2.37506e-08
2.37505e-08
2.37506e-08
2.37505e-08
2.37506e-08
2.37505e-08
2.37506e-08
2.37505e-08
2.37506e-08
2.37505e-08
2.37506e-08
2.37505e-08
2.37507e-08
2.37505e-08
2.37507e-08
2.37505e-08
2.37508e-08
2.37505e-08
2.37509e-08
2.37504e-08
2.37509e-08
2.37502e-08
2.37509e-08
2.375e-08
2.37511e-08
2.375e-08
2.37512e-08
2.37501e-08
2.37516e-08
2.37504e-08
2.37517e-08
2.37507e-08
2.37518e-08
2.37509e-08
2.37518e-08
2.37514e-08
2.37518e-08
2.37515e-08
2.37518e-08
2.37515e-08
2.37517e-08
2.37515e-08
2.37516e-08
2.37514e-08
2.37516e-08
2.37514e-08
2.37515e-08
2.37513e-08
2.37514e-08
2.37513e-08
2.37514e-08
2.37512e-08
2.37513e-08
2.37512e-08
2.37514e-08
2.37513e-08
2.37516e-08
2.37517e-08
2.37605e-08
2.38489e-08
2.83337e-08
2.83482e-08
2.83621e-08
2.83754e-08
2.8388e-08
2.84e-08
2.84114e-08
2.84223e-08
2.84327e-08
2.84425e-08
2.84519e-08
2.84608e-08
2.84693e-08
2.84774e-08
2.8485e-08
2.84923e-08
2.84992e-08
2.85058e-08
2.8512e-08
2.8518e-08
2.85236e-08
2.8529e-08
2.8534e-08
2.85388e-08
2.85434e-08
2.85477e-08
2.85518e-08
2.85557e-08
2.85594e-08
2.85629e-08
2.85662e-08
2.85694e-08
2.85723e-08
2.85751e-08
2.85778e-08
2.85803e-08
2.85827e-08
2.85849e-08
2.85871e-08
2.85891e-08
2.8591e-08
2.85928e-08
2.85945e-08
2.85961e-08
2.85976e-08
2.8599e-08
2.86004e-08
2.86016e-08
2.86028e-08
2.8604e-08
2.8605e-08
2.8606e-08
2.8607e-08
2.86079e-08
2.86087e-08
2.86095e-08
2.86102e-08
2.86109e-08
2.86116e-08
2.86122e-08
2.86128e-08
2.86133e-08
2.86139e-08
2.86143e-08
2.86148e-08
2.86152e-08
2.86156e-08
2.8616e-08
2.86163e-08
2.86167e-08
2.8617e-08
2.86172e-08
2.86175e-08
2.86178e-08
2.8618e-08
2.86182e-08
2.86184e-08
2.86186e-08
2.86188e-08
2.8619e-08
2.86191e-08
2.86193e-08
2.86194e-08
2.86195e-08
2.86196e-08
2.86198e-08
2.86199e-08
2.86199e-08
2.862e-08
2.86201e-08
2.86202e-08
2.86203e-08
2.86203e-08
2.86204e-08
2.86204e-08
2.86205e-08
2.86205e-08
2.86205e-08
2.86206e-08
2.86206e-08
2.86207e-08
2.86206e-08
2.86207e-08
2.86207e-08
2.86207e-08
2.86207e-08
2.86208e-08
2.86207e-08
2.86208e-08
2.86207e-08
2.86208e-08
2.86206e-08
2.86208e-08
2.86206e-08
2.86208e-08
2.86206e-08
2.86208e-08
2.86207e-08
2.86209e-08
2.86207e-08
2.86209e-08
2.86206e-08
2.8621e-08
2.86205e-08
2.8621e-08
2.86203e-08
2.86211e-08
2.86202e-08
2.86212e-08
2.86202e-08
2.86214e-08
2.86203e-08
2.86217e-08
2.86205e-08
2.86219e-08
2.86208e-08
2.86219e-08
2.8621e-08
2.8622e-08
2.86215e-08
2.86219e-08
2.86216e-08
2.86219e-08
2.86216e-08
2.86218e-08
2.86216e-08
2.86218e-08
2.86215e-08
2.86217e-08
2.86215e-08
2.86216e-08
2.86214e-08
2.86215e-08
2.86214e-08
2.86215e-08
2.86214e-08
2.86215e-08
2.86214e-08
2.86215e-08
2.86214e-08
2.86217e-08
2.86218e-08
2.86302e-08
2.87122e-08
3.24749e-08
3.24879e-08
3.25004e-08
3.25123e-08
3.25236e-08
3.25344e-08
3.25447e-08
3.25545e-08
3.25638e-08
3.25726e-08
3.2581e-08
3.2589e-08
3.25966e-08
3.26039e-08
3.26108e-08
3.26173e-08
3.26235e-08
3.26294e-08
3.2635e-08
3.26403e-08
3.26454e-08
3.26502e-08
3.26547e-08
3.2659e-08
3.26631e-08
3.2667e-08
3.26707e-08
3.26741e-08
3.26774e-08
3.26806e-08
3.26835e-08
3.26864e-08
3.2689e-08
3.26915e-08
3.26939e-08
3.26962e-08
3.26983e-08
3.27003e-08
3.27022e-08
3.2704e-08
3.27057e-08
3.27073e-08
3.27089e-08
3.27103e-08
3.27116e-08
3.27129e-08
3.27141e-08
3.27153e-08
3.27163e-08
3.27174e-08
3.27183e-08
3.27192e-08
3.27201e-08
3.27209e-08
3.27216e-08
3.27223e-08
3.2723e-08
3.27236e-08
3.27242e-08
3.27247e-08
3.27253e-08
3.27258e-08
3.27262e-08
3.27266e-08
3.2727e-08
3.27274e-08
3.27278e-08
3.27281e-08
3.27284e-08
3.27287e-08
3.2729e-08
3.27293e-08
3.27295e-08
3.27297e-08
3.27299e-08
3.27301e-08
3.27303e-08
3.27305e-08
3.27306e-08
3.27308e-08
3.27309e-08
3.27311e-08
3.27312e-08
3.27313e-08
3.27314e-08
3.27315e-08
3.27316e-08
3.27317e-08
3.27317e-08
3.27318e-08
3.27319e-08
3.27319e-08
3.2732e-08
3.27321e-08
3.27321e-08
3.27321e-08
3.27322e-08
3.27322e-08
3.27323e-08
3.27323e-08
3.27323e-08
3.27323e-08
3.27324e-08
3.27323e-08
3.27324e-08
3.27323e-08
3.27324e-08
3.27323e-08
3.27324e-08
3.27323e-08
3.27324e-08
3.27323e-08
3.27324e-08
3.27323e-08
3.27324e-08
3.27323e-08
3.27324e-08
3.27323e-08
3.27325e-08
3.27323e-08
3.27326e-08
3.27323e-08
3.27326e-08
3.27322e-08
3.27327e-08
3.2732e-08
3.27327e-08
3.27319e-08
3.27328e-08
3.27318e-08
3.2733e-08
3.27319e-08
3.27333e-08
3.27322e-08
3.27334e-08
3.27325e-08
3.27335e-08
3.27326e-08
3.27335e-08
3.2733e-08
3.27335e-08
3.27331e-08
3.27334e-08
3.27332e-08
3.27334e-08
3.27332e-08
3.27333e-08
3.27331e-08
3.27332e-08
3.27331e-08
3.27332e-08
3.2733e-08
3.27331e-08
3.2733e-08
3.27331e-08
3.27329e-08
3.2733e-08
3.27329e-08
3.2733e-08
3.2733e-08
3.27333e-08
3.27333e-08
3.27407e-08
3.2811e-08
3.57553e-08
3.57662e-08
3.57767e-08
3.57867e-08
3.57961e-08
3.58052e-08
3.58137e-08
3.58219e-08
3.58297e-08
3.58371e-08
3.58441e-08
3.58508e-08
3.58572e-08
3.58632e-08
3.58689e-08
3.58744e-08
3.58796e-08
3.58845e-08
3.58892e-08
3.58936e-08
3.58978e-08
3.59018e-08
3.59056e-08
3.59092e-08
3.59127e-08
3.59159e-08
3.5919e-08
3.59219e-08
3.59246e-08
3.59272e-08
3.59297e-08
3.59321e-08
3.59343e-08
3.59364e-08
3.59384e-08
3.59403e-08
3.5942e-08
3.59437e-08
3.59453e-08
3.59468e-08
3.59482e-08
3.59496e-08
3.59508e-08
3.5952e-08
3.59532e-08
3.59542e-08
3.59552e-08
3.59562e-08
3.59571e-08
3.59579e-08
3.59587e-08
3.59595e-08
3.59602e-08
3.59609e-08
3.59615e-08
3.59621e-08
3.59626e-08
3.59631e-08
3.59636e-08
3.59641e-08
3.59645e-08
3.59649e-08
3.59653e-08
3.59657e-08
3.5966e-08
3.59663e-08
3.59666e-08
3.59669e-08
3.59672e-08
3.59674e-08
3.59676e-08
3.59679e-08
3.59681e-08
3.59682e-08
3.59684e-08
3.59686e-08
3.59687e-08
3.59689e-08
3.5969e-08
3.59691e-08
3.59693e-08
3.59694e-08
3.59695e-08
3.59696e-08
3.59696e-08
3.59697e-08
3.59698e-08
3.59699e-08
3.59699e-08
3.597e-08
3.59701e-08
3.59701e-08
3.59701e-08
3.59702e-08
3.59702e-08
3.59703e-08
3.59703e-08
3.59703e-08
3.59704e-08
3.59704e-08
3.59704e-08
3.59704e-08
3.59704e-08
3.59704e-08
3.59705e-08
3.59704e-08
3.59705e-08
3.59704e-08
3.59705e-08
3.59704e-08
3.59705e-08
3.59704e-08
3.59705e-08
3.59704e-08
3.59705e-08
3.59704e-08
3.59705e-08
3.59704e-08
3.59706e-08
3.59704e-08
3.59706e-08
3.59704e-08
3.59707e-08
3.59703e-08
3.59707e-08
3.59701e-08
3.59708e-08
3.597e-08
3.59709e-08
3.597e-08
3.5971e-08
3.59701e-08
3.59712e-08
3.59703e-08
3.59714e-08
3.59705e-08
3.59714e-08
3.59706e-08
3.59714e-08
3.5971e-08
3.59714e-08
3.59711e-08
3.59714e-08
3.59711e-08
3.59713e-08
3.59711e-08
3.59712e-08
3.59711e-08
3.59712e-08
3.5971e-08
3.59711e-08
3.5971e-08
3.59711e-08
3.5971e-08
3.5971e-08
3.59709e-08
3.5971e-08
3.59709e-08
3.5971e-08
3.5971e-08
3.59712e-08
3.59712e-08
3.59772e-08
3.60339e-08
3.81957e-08
3.82043e-08
3.82125e-08
3.82203e-08
3.82278e-08
3.82348e-08
3.82416e-08
3.8248e-08
3.82541e-08
3.82599e-08
3.82654e-08
3.82707e-08
3.82757e-08
3.82804e-08
3.82849e-08
3.82892e-08
3.82933e-08
3.82971e-08
3.83008e-08
3.83043e-08
3.83076e-08
3.83107e-08
3.83137e-08
3.83165e-08
3.83192e-08
3.83217e-08
3.83241e-08
3.83264e-08
3.83286e-08
3.83306e-08
3.83326e-08
3.83344e-08
3.83362e-08
3.83378e-08
3.83394e-08
3.83408e-08
3.83422e-08
3.83435e-08
3.83448e-08
3.8346e-08
3.83471e-08
3.83481e-08
3.83491e-08
3.83501e-08
3.8351e-08
3.83518e-08
3.83526e-08
3.83533e-08
3.8354e-08
3.83547e-08
3.83553e-08
3.83559e-08
3.83565e-08
3.8357e-08
3.83575e-08
3.83579e-08
3.83584e-08
3.83588e-08
3.83592e-08
3.83595e-08
3.83599e-08
3.83602e-08
3.83605e-08
3.83608e-08
3.8361e-08
3.83613e-08
3.83615e-08
3.83617e-08
3.83619e-08
3.83621e-08
3.83623e-08
3.83625e-08
3.83626e-08
3.83628e-08
3.83629e-08
3.8363e-08
3.83632e-08
3.83633e-08
3.83634e-08
3.83635e-08
3.83636e-08
3.83636e-08
3.83637e-08
3.83638e-08
3.83639e-08
3.83639e-08
3.8364e-08
3.8364e-08
3.83641e-08
3.83641e-08
3.83642e-08
3.83642e-08
3.83643e-08
3.83643e-08
3.83643e-08
3.83643e-08
3.83644e-08
3.83644e-08
3.83644e-08
3.83644e-08
3.83645e-08
3.83644e-08
3.83645e-08
3.83645e-08
3.83645e-08
3.83645e-08
3.83645e-08
3.83645e-08
3.83645e-08
3.83645e-08
3.83645e-08
3.83644e-08
3.83645e-08
3.83644e-08
3.83645e-08
3.83644e-08
3.83646e-08
3.83644e-08
3.83646e-08
3.83644e-08
3.83646e-08
3.83644e-08
3.83647e-08
3.83643e-08
3.83647e-08
3.83642e-08
3.83648e-08
3.83641e-08
3.83648e-08
3.83641e-08
3.8365e-08
3.83641e-08
3.83652e-08
3.83643e-08
3.83653e-08
3.83645e-08
3.83653e-08
3.83646e-08
3.83653e-08
3.83649e-08
3.83653e-08
3.83649e-08
3.83652e-08
3.8365e-08
3.83652e-08
3.8365e-08
3.83651e-08
3.8365e-08
3.83651e-08
3.83649e-08
3.8365e-08
3.83649e-08
3.8365e-08
3.83649e-08
3.83649e-08
3.83649e-08
3.83649e-08
3.83649e-08
3.83649e-08
3.83649e-08
3.83651e-08
3.83651e-08
3.83696e-08
3.84135e-08
3.99077e-08
3.9914e-08
3.99201e-08
3.9926e-08
3.99315e-08
3.99368e-08
3.99418e-08
3.99466e-08
3.99511e-08
3.99554e-08
3.99595e-08
3.99634e-08
3.99672e-08
3.99707e-08
3.9974e-08
3.99772e-08
3.99802e-08
3.99831e-08
3.99859e-08
3.99884e-08
3.99909e-08
3.99932e-08
3.99954e-08
3.99976e-08
3.99995e-08
4.00014e-08
4.00032e-08
4.00049e-08
4.00065e-08
4.00081e-08
4.00095e-08
4.00109e-08
4.00122e-08
4.00134e-08
4.00145e-08
4.00156e-08
4.00167e-08
4.00177e-08
4.00186e-08
4.00195e-08
4.00203e-08
4.00211e-08
4.00218e-08
4.00225e-08
4.00232e-08
4.00238e-08
4.00244e-08
4.00249e-08
4.00254e-08
4.00259e-08
4.00264e-08
4.00268e-08
4.00272e-08
4.00276e-08
4.0028e-08
4.00283e-08
4.00287e-08
4.0029e-08
4.00293e-08
4.00295e-08
4.00298e-08
4.003e-08
4.00302e-08
4.00304e-08
4.00306e-08
4.00308e-08
4.0031e-08
4.00312e-08
4.00313e-08
4.00315e-08
4.00316e-08
4.00317e-08
4.00318e-08
4.00319e-08
4.0032e-08
4.00321e-08
4.00322e-08
4.00323e-08
4.00324e-08
4.00325e-08
4.00325e-08
4.00326e-08
4.00327e-08
4.00327e-08
4.00328e-08
4.00328e-08
4.00328e-08
4.00329e-08
4.00329e-08
4.0033e-08
4.0033e-08
4.0033e-08
4.0033e-08
4.00331e-08
4.00331e-08
4.00331e-08
4.00331e-08
4.00331e-08
4.00332e-08
4.00332e-08
4.00332e-08
4.00332e-08
4.00332e-08
4.00332e-08
4.00332e-08
4.00332e-08
4.00333e-08
4.00332e-08
4.00333e-08
4.00332e-08
4.00333e-08
4.00332e-08
4.00333e-08
4.00332e-08
4.00333e-08
4.00332e-08
4.00333e-08
4.00332e-08
4.00333e-08
4.00332e-08
4.00334e-08
4.00331e-08
4.00334e-08
4.00331e-08
4.00334e-08
4.0033e-08
4.00335e-08
4.00329e-08
4.00335e-08
4.00329e-08
4.00336e-08
4.00329e-08
4.00338e-08
4.0033e-08
4.00338e-08
4.00332e-08
4.00339e-08
4.00332e-08
4.00339e-08
4.00335e-08
4.00338e-08
4.00335e-08
4.00338e-08
4.00336e-08
4.00338e-08
4.00336e-08
4.00337e-08
4.00336e-08
4.00337e-08
4.00336e-08
4.00336e-08
4.00335e-08
4.00336e-08
4.00335e-08
4.00336e-08
4.00335e-08
4.00336e-08
4.00335e-08
4.00336e-08
4.00335e-08
4.00337e-08
4.00337e-08
4.00369e-08
4.00705e-08
4.161e-08
4.16136e-08
4.16171e-08
4.16205e-08
4.16237e-08
4.16267e-08
4.16296e-08
4.16324e-08
4.1635e-08
4.16375e-08
4.16398e-08
4.16421e-08
4.16442e-08
4.16463e-08
4.16482e-08
4.165e-08
4.16518e-08
4.16534e-08
4.1655e-08
4.16565e-08
4.16579e-08
4.16593e-08
4.16605e-08
4.16618e-08
4.16629e-08
4.1664e-08
4.1665e-08
4.1666e-08
4.16669e-08
4.16678e-08
4.16687e-08
4.16694e-08
4.16702e-08
4.16709e-08
4.16716e-08
4.16722e-08
4.16728e-08
4.16734e-08
4.16739e-08
4.16744e-08
4.16749e-08
4.16753e-08
4.16758e-08
4.16762e-08
4.16765e-08
4.16769e-08
4.16772e-08
4.16776e-08
4.16779e-08
4.16781e-08
4.16784e-08
4.16787e-08
4.16789e-08
4.16791e-08
4.16793e-08
4.16795e-08
4.16797e-08
4.16799e-08
4.16801e-08
4.16802e-08
4.16804e-08
4.16805e-08
4.16806e-08
4.16807e-08
4.16809e-08
4.1681e-08
4.16811e-08
4.16812e-08
4.16812e-08
4.16813e-08
4.16814e-08
4.16815e-08
4.16815e-08
4.16816e-08
4.16817e-08
4.16817e-08
4.16818e-08
4.16818e-08
4.16819e-08
4.16819e-08
4.16819e-08
4.1682e-08
4.1682e-08
4.1682e-08
4.16821e-08
4.16821e-08
4.16821e-08
4.16821e-08
4.16822e-08
4.16822e-08
4.16822e-08
4.16822e-08
4.16822e-08
4.16823e-08
4.16823e-08
4.16823e-08
4.16823e-08
4.16823e-08
4.16823e-08
4.16823e-08
4.16823e-08
4.16823e-08
4.16823e-08
4.16823e-08
4.16824e-08
4.16823e-08
4.16824e-08
4.16823e-08
4.16824e-08
4.16823e-08
4.16824e-08
4.16823e-08
4.16824e-08
4.16823e-08
4.16824e-08
4.16823e-08
4.16824e-08
4.16823e-08
4.16824e-08
4.16823e-08
4.16825e-08
4.16822e-08
4.16825e-08
4.16822e-08
4.16825e-08
4.16821e-08
4.16825e-08
4.16821e-08
4.16826e-08
4.1682e-08
4.16826e-08
4.16821e-08
4.16827e-08
4.16821e-08
4.16828e-08
4.16822e-08
4.16828e-08
4.16823e-08
4.16828e-08
4.16824e-08
4.16827e-08
4.16825e-08
4.16827e-08
4.16825e-08
4.16827e-08
4.16825e-08
4.16826e-08
4.16825e-08
4.16826e-08
4.16825e-08
4.16826e-08
4.16825e-08
4.16826e-08