/*--------------------------------*- C++ -*----------------------------------*\
| =========                 |                                                 |
| \\      /  F ield         | OpenFOAM: The Open Source CFD Toolbox           |
|  \\    /   O peration     | Version:  v1912                                 |
|   \\  /    A nd           | Website:  www.openfoam.com                      |
|    \\/     M anipulation  |                                                 |
\*---------------------------------------------------------------------------*/
FoamFile
{
    version     2.0;
    format      ascii;
    class       volScalarField;
    location    "90";
    object      p_rgh;
}
// * * * * * * * * * * * * * * * * * * * * * * * * * * * * * * * * * * * * * //

dimensions      [1 -1 -2 0 0 0 0];


internalField   nonuniform List<scalar> 
14268
(
0.00342162
0.00322444
0.00303798
0.00286152
0.0026947
0.00253693
0.00238783
0.00224691
0.00211378
0.00198803
0.00186929
0.00175718
0.00165138
0.00155154
0.00145736
0.00136854
0.00128479
0.00120585
0.00113145
0.00106136
0.000995344
0.000933178
0.000874655
0.000819576
0.000767753
0.000719005
0.000673162
0.000630064
0.000589556
0.000551494
0.00051574
0.000482163
0.000450639
0.000421051
0.000393288
0.000367245
0.000342823
0.000319927
0.000298467
0.00027836
0.000259527
0.000241891
0.000225381
0.000209931
0.000195476
0.000181958
0.000169318
0.000157503
0.000146464
0.000136153
0.000126524
0.000117536
0.000109148
0.000101324
9.40267e-05
8.72241e-05
8.08847e-05
7.49787e-05
6.94786e-05
6.43582e-05
5.9593e-05
5.51598e-05
5.10371e-05
4.72045e-05
4.36429e-05
4.03344e-05
3.7262e-05
3.44101e-05
3.17638e-05
2.93092e-05
2.70333e-05
2.49241e-05
2.29699e-05
2.11602e-05
1.94849e-05
1.79348e-05
1.6501e-05
1.51754e-05
1.39504e-05
1.28188e-05
1.17739e-05
1.08095e-05
9.91988e-06
9.09957e-06
8.34353e-06
7.64706e-06
7.00578e-06
6.41561e-06
5.87276e-06
5.3737e-06
4.91515e-06
4.49405e-06
4.1076e-06
3.7531e-06
3.42825e-06
3.13053e-06
2.8583e-06
2.6089e-06
2.38156e-06
2.17325e-06
1.98432e-06
1.81073e-06
1.6549e-06
1.51033e-06
1.3834e-06
1.26268e-06
1.1615e-06
1.05978e-06
9.82308e-07
8.94968e-07
8.3991e-07
7.6258e-07
7.30017e-07
6.56632e-07
6.47623e-07
5.76438e-07
5.88365e-07
5.17546e-07
5.49768e-07
4.76151e-07
5.2941e-07
4.49386e-07
5.2463e-07
4.35273e-07
5.3302e-07
4.3317e-07
5.52915e-07
4.43334e-07
5.82611e-07
4.6616e-07
6.2003e-07
5.01056e-07
6.62207e-07
5.45671e-07
7.05378e-07
5.96505e-07
7.46349e-07
6.50126e-07
7.83611e-07
7.04246e-07
8.16556e-07
7.53314e-07
8.4478e-07
7.95886e-07
8.68324e-07
8.31485e-07
8.87547e-07
8.60378e-07
9.02934e-07
8.83258e-07
9.15013e-07
9.00978e-07
9.24276e-07
9.14379e-07
9.31129e-07
9.2418e-07
9.35871e-07
9.30965e-07
9.38686e-07
9.35119e-07
9.39591e-07
9.36814e-07
9.38092e-07
9.35613e-07
0.0034212
0.00322404
0.0030376
0.00286116
0.00269436
0.00253661
0.00238753
0.00224662
0.00211351
0.00198778
0.00186905
0.00175696
0.00165117
0.00155134
0.00145717
0.00136836
0.00128462
0.00120569
0.0011313
0.00106122
0.00099521
0.000933053
0.000874537
0.000819465
0.000767648
0.000718906
0.00067307
0.000629977
0.000589475
0.000551418
0.000515668
0.000482095
0.000450575
0.000420991
0.000393232
0.000367193
0.000342774
0.00031988
0.000298424
0.00027832
0.000259489
0.000241855
0.000225348
0.0002099
0.000195447
0.00018193
0.000169292
0.00015748
0.000146442
0.000136132
0.000126505
0.000117518
0.000109131
0.000101308
9.40119e-05
8.72104e-05
8.08719e-05
7.49668e-05
6.94675e-05
6.43478e-05
5.95833e-05
5.51508e-05
5.10288e-05
4.71968e-05
4.36357e-05
4.03276e-05
3.72558e-05
3.44043e-05
3.17584e-05
2.93042e-05
2.70287e-05
2.49198e-05
2.29659e-05
2.11565e-05
1.94815e-05
1.79316e-05
1.64981e-05
1.51727e-05
1.39479e-05
1.28164e-05
1.17717e-05
1.08075e-05
9.91803e-06
9.09786e-06
8.34195e-06
7.6456e-06
7.00443e-06
6.41436e-06
5.87161e-06
5.37263e-06
4.91417e-06
4.49314e-06
4.10676e-06
3.75232e-06
3.42754e-06
3.12987e-06
2.85769e-06
2.60834e-06
2.38104e-06
2.17277e-06
1.98387e-06
1.81032e-06
1.65452e-06
1.50998e-06
1.38307e-06
1.26238e-06
1.16122e-06
1.05953e-06
9.82068e-07
8.94752e-07
8.39704e-07
7.62398e-07
7.29839e-07
6.56478e-07
6.47472e-07
5.76308e-07
5.88236e-07
5.17438e-07
5.49657e-07
4.76062e-07
5.29314e-07
4.49314e-07
5.24548e-07
4.35214e-07
5.3295e-07
4.33123e-07
5.52858e-07
4.43298e-07
5.82566e-07
4.66131e-07
6.19996e-07
5.01033e-07
6.62186e-07
5.45649e-07
7.05364e-07
5.9648e-07
7.46338e-07
6.50099e-07
7.836e-07
7.04214e-07
8.16541e-07
7.53277e-07
8.44757e-07
7.95845e-07
8.68295e-07
8.31439e-07
8.8751e-07
8.60328e-07
9.02891e-07
8.83205e-07
9.14965e-07
9.00922e-07
9.24224e-07
9.1432e-07
9.31072e-07
9.24119e-07
9.35812e-07
9.30901e-07
9.38624e-07
9.35054e-07
9.39527e-07
9.36747e-07
9.38026e-07
9.35544e-07
0.00342078
0.00322364
0.00303722
0.0028608
0.00269402
0.00253629
0.00238722
0.00224634
0.00211324
0.00198752
0.00186881
0.00175673
0.00165095
0.00155114
0.00145698
0.00136818
0.00128445
0.00120553
0.00113115
0.00106108
0.000995075
0.000932925
0.000874417
0.000819353
0.000767542
0.000718807
0.000672976
0.000629889
0.000589392
0.000551339
0.000515595
0.000482026
0.000450511
0.000420931
0.000393175
0.000367139
0.000342724
0.000319833
0.00029838
0.000278279
0.00025945
0.000241819
0.000225314
0.000209868
0.000195417
0.000181902
0.000169266
0.000157455
0.000146419
0.000136111
0.000126485
0.000117499
0.000109114
0.000101291
9.39967e-05
8.71962e-05
8.08586e-05
7.49544e-05
6.94559e-05
6.4337e-05
5.95732e-05
5.51414e-05
5.102e-05
4.71886e-05
4.36281e-05
4.03205e-05
3.72491e-05
3.43981e-05
3.17526e-05
2.92988e-05
2.70237e-05
2.49151e-05
2.29615e-05
2.11524e-05
1.94777e-05
1.79281e-05
1.64948e-05
1.51696e-05
1.3945e-05
1.28137e-05
1.17692e-05
1.08052e-05
9.91584e-06
9.09581e-06
8.34003e-06
7.6438e-06
7.00274e-06
6.41278e-06
5.87012e-06
5.37123e-06
4.91285e-06
4.4919e-06
4.10559e-06
3.75121e-06
3.42649e-06
3.12888e-06
2.85675e-06
2.60745e-06
2.38019e-06
2.17196e-06
1.9831e-06
1.80958e-06
1.65382e-06
1.50931e-06
1.38242e-06
1.26176e-06
1.16062e-06
1.05895e-06
9.81507e-07
8.94216e-07
8.39177e-07
7.61896e-07
7.2934e-07
6.56004e-07
6.47001e-07
5.75859e-07
5.87788e-07
5.1701e-07
5.49227e-07
4.75654e-07
5.28899e-07
4.48922e-07
5.24146e-07
4.34836e-07
5.32561e-07
4.32757e-07
5.52482e-07
4.42942e-07
5.82204e-07
4.65783e-07
6.19652e-07
5.0069e-07
6.61847e-07
5.45308e-07
7.05032e-07
5.96138e-07
7.46009e-07
6.49753e-07
7.83272e-07
7.03865e-07
8.16207e-07
7.52924e-07
8.44417e-07
7.95486e-07
8.67948e-07
8.31076e-07
8.87156e-07
8.59961e-07
9.02531e-07
8.82834e-07
9.14599e-07
9.00548e-07
9.23854e-07
9.13944e-07
9.30699e-07
9.23741e-07
9.35435e-07
9.30521e-07
9.38245e-07
9.34671e-07
9.39145e-07
9.36362e-07
9.37642e-07
9.35155e-07
0.00342035
0.00322323
0.00303683
0.00286044
0.00269367
0.00253596
0.00238691
0.00224604
0.00211296
0.00198726
0.00186856
0.0017565
0.00165073
0.00155093
0.00145678
0.00136799
0.00128428
0.00120536
0.001131
0.00106093
0.000994938
0.000932796
0.000874295
0.000819238
0.000767434
0.000718705
0.00067288
0.000629799
0.000589307
0.00055126
0.00051552
0.000481956
0.000450444
0.000420869
0.000393117
0.000367085
0.000342672
0.000319785
0.000298334
0.000278236
0.00025941
0.000241781
0.000225279
0.000209835
0.000195387
0.000181873
0.000169239
0.00015743
0.000146395
0.000136088
0.000126464
0.000117479
0.000109095
0.000101274
9.39805e-05
8.7181e-05
8.08444e-05
7.49411e-05
6.94435e-05
6.43254e-05
5.95623e-05
5.51312e-05
5.10104e-05
4.71796e-05
4.36196e-05
4.03126e-05
3.72417e-05
3.43911e-05
3.17461e-05
2.92927e-05
2.70179e-05
2.49096e-05
2.29564e-05
2.11476e-05
1.94732e-05
1.79238e-05
1.64907e-05
1.51658e-05
1.39414e-05
1.28103e-05
1.1766e-05
1.08021e-05
9.91292e-06
9.09303e-06
8.33739e-06
7.64128e-06
7.00033e-06
6.41048e-06
5.86792e-06
5.36912e-06
4.91082e-06
4.48995e-06
4.10372e-06
3.7494e-06
3.42474e-06
3.12719e-06
2.8551e-06
2.60585e-06
2.37864e-06
2.17046e-06
1.98163e-06
1.80815e-06
1.65241e-06
1.50793e-06
1.38107e-06
1.26044e-06
1.15932e-06
1.05768e-06
9.80248e-07
8.92982e-07
8.37952e-07
7.60698e-07
7.28144e-07
6.54834e-07
6.45833e-07
5.74713e-07
5.86643e-07
5.15887e-07
5.481e-07
4.7455e-07
5.27788e-07
4.47835e-07
5.23048e-07
4.33764e-07
5.31476e-07
4.31696e-07
5.5141e-07
4.41891e-07
5.81144e-07
4.64742e-07
6.18599e-07
4.99654e-07
6.60812e-07
5.44274e-07
7.04005e-07
5.95102e-07
7.44985e-07
6.48715e-07
7.8225e-07
7.02823e-07
8.1518e-07
7.51877e-07
8.43384e-07
7.94435e-07
8.66907e-07
8.3002e-07
8.86108e-07
8.589e-07
9.01477e-07
8.8177e-07
9.1354e-07
8.9948e-07
9.2279e-07
9.12873e-07
9.29631e-07
9.22667e-07
9.34364e-07
9.29446e-07
9.37171e-07
9.33594e-07
9.38069e-07
9.35282e-07
9.36564e-07
9.34064e-07
0.00341991
0.00322282
0.00303644
0.00286007
0.00269332
0.00253563
0.0023866
0.00224575
0.00211268
0.00198699
0.00186831
0.00175626
0.00165051
0.00155072
0.00145659
0.00136781
0.0012841
0.0012052
0.00113084
0.00106078
0.000994798
0.000932664
0.000874171
0.000819121
0.000767324
0.000718601
0.000672782
0.000629706
0.00058922
0.000551178
0.000515443
0.000481884
0.000450377
0.000420805
0.000393057
0.000367028
0.000342619
0.000319735
0.000298287
0.000278192
0.000259369
0.000241742
0.000225242
0.000209801
0.000195354
0.000181843
0.00016921
0.000157403
0.00014637
0.000136065
0.000126442
0.000117459
0.000109076
0.000101256
9.39632e-05
8.71647e-05
8.0829e-05
7.49267e-05
6.94299e-05
6.43126e-05
5.95503e-05
5.51199e-05
5.09997e-05
4.71695e-05
4.36101e-05
4.03036e-05
3.72332e-05
3.43831e-05
3.17385e-05
2.92855e-05
2.70111e-05
2.49032e-05
2.29503e-05
2.11418e-05
1.94676e-05
1.79185e-05
1.64857e-05
1.5161e-05
1.39368e-05
1.28059e-05
1.17617e-05
1.0798e-05
9.909e-06
9.08926e-06
8.33375e-06
7.63776e-06
6.99694e-06
6.40719e-06
5.86473e-06
5.36602e-06
4.90781e-06
4.48701e-06
4.10085e-06
3.74661e-06
3.42201e-06
3.12451e-06
2.85248e-06
2.60328e-06
2.37612e-06
2.16797e-06
1.97919e-06
1.80574e-06
1.65004e-06
1.50559e-06
1.37875e-06
1.25815e-06
1.15705e-06
1.05543e-06
9.78017e-07
8.90777e-07
8.35756e-07
7.58529e-07
7.25978e-07
6.52693e-07
6.43696e-07
5.72598e-07
5.84528e-07
5.13795e-07
5.46005e-07
4.72478e-07
5.25709e-07
4.4578e-07
5.20983e-07
4.31722e-07
5.29424e-07
4.29667e-07
5.4937e-07
4.39872e-07
5.7912e-07
4.62729e-07
6.16595e-07
4.97648e-07
6.58812e-07
5.42271e-07
7.02011e-07
5.93099e-07
7.42995e-07
6.46707e-07
7.8026e-07
7.00814e-07
8.13185e-07
7.49864e-07
8.41382e-07
7.92417e-07
8.64899e-07
8.27998e-07
8.84093e-07
8.56874e-07
8.99456e-07
8.79739e-07
9.11514e-07
8.97447e-07
9.2076e-07
9.10837e-07
9.27597e-07
9.20629e-07
9.32327e-07
9.27405e-07
9.35131e-07
9.31551e-07
9.36026e-07
9.33237e-07
9.34513e-07
9.31997e-07
0.00341947
0.0032224
0.00303605
0.00285969
0.00269297
0.0025353
0.00238628
0.00224545
0.0021124
0.00198673
0.00186806
0.00175602
0.00165028
0.00155051
0.00145638
0.00136762
0.00128392
0.00120503
0.00113068
0.00106063
0.000994656
0.00093253
0.000874044
0.000819001
0.000767211
0.000718495
0.000672682
0.000629612
0.000589131
0.000551095
0.000515364
0.000481809
0.000450307
0.000420739
0.000392995
0.00036697
0.000342564
0.000319683
0.000298239
0.000278146
0.000259326
0.000241702
0.000225204
0.000209765
0.000195321
0.000181811
0.000169181
0.000157375
0.000146344
0.00013604
0.000126418
0.000117436
0.000109055
0.000101236
9.39447e-05
8.71472e-05
8.08125e-05
7.49111e-05
6.94152e-05
6.42987e-05
5.95371e-05
5.51074e-05
5.09879e-05
4.71583e-05
4.35995e-05
4.02935e-05
3.72236e-05
3.4374e-05
3.17298e-05
2.92772e-05
2.70032e-05
2.48956e-05
2.29431e-05
2.11349e-05
1.9461e-05
1.79122e-05
1.64796e-05
1.51551e-05
1.39311e-05
1.28004e-05
1.17564e-05
1.07929e-05
9.90406e-06
9.08447e-06
8.32909e-06
7.63323e-06
6.99252e-06
6.40288e-06
5.86052e-06
5.36191e-06
4.90379e-06
4.48307e-06
4.09698e-06
3.74281e-06
3.41827e-06
3.12083e-06
2.84885e-06
2.5997e-06
2.37258e-06
2.16448e-06
1.97573e-06
1.80232e-06
1.64665e-06
1.50223e-06
1.37543e-06
1.25485e-06
1.15377e-06
1.05218e-06
9.74781e-07
8.87568e-07
8.32554e-07
7.55356e-07
7.22807e-07
6.49547e-07
6.40553e-07
5.69478e-07
5.81409e-07
5.10698e-07
5.42905e-07
4.69401e-07
5.22624e-07
4.42721e-07
5.17912e-07
4.28678e-07
5.26366e-07
4.26634e-07
5.46326e-07
4.36849e-07
5.76088e-07
4.59716e-07
6.13569e-07
4.94641e-07
6.55805e-07
5.39266e-07
6.99014e-07
5.90094e-07
7.40001e-07
6.43703e-07
7.77267e-07
6.97804e-07
8.10189e-07
7.46849e-07
8.3838e-07
7.89397e-07
8.61888e-07
8.24973e-07
8.81076e-07
8.53844e-07
8.96432e-07
8.76706e-07
9.08484e-07
8.9441e-07
9.17726e-07
9.07797e-07
9.24559e-07
9.17586e-07
9.29286e-07
9.2436e-07
9.32087e-07
9.28504e-07
9.32981e-07
9.30188e-07
9.31468e-07
9.28933e-07
0.00341902
0.00322197
0.00303565
0.00285931
0.00269261
0.00253495
0.00238596
0.00224514
0.00211211
0.00198645
0.0018678
0.00175578
0.00165005
0.00155029
0.00145618
0.00136742
0.00128374
0.00120485
0.00113051
0.00106048
0.000994511
0.000932393
0.000873915
0.00081888
0.000767096
0.000718387
0.00067258
0.000629516
0.000589041
0.000551009
0.000515284
0.000481734
0.000450235
0.000420672
0.000392932
0.00036691
0.000342508
0.000319631
0.000298189
0.000278099
0.000259281
0.00024166
0.000225165
0.000209728
0.000195286
0.000181778
0.00016915
0.000157346
0.000146316
0.000136014
0.000126394
0.000117413
0.000109033
0.000101215
9.39251e-05
8.71288e-05
8.0795e-05
7.48945e-05
6.93995e-05
6.42838e-05
5.9523e-05
5.5094e-05
5.09752e-05
4.71462e-05
4.3588e-05
4.02825e-05
3.72131e-05
3.4364e-05
3.17202e-05
2.9268e-05
2.69944e-05
2.48872e-05
2.2935e-05
2.11271e-05
1.94535e-05
1.79049e-05
1.64726e-05
1.51484e-05
1.39246e-05
1.27941e-05
1.17503e-05
1.0787e-05
9.89828e-06
9.07883e-06
8.32359e-06
7.62786e-06
6.98727e-06
6.39774e-06
5.85549e-06
5.35697e-06
4.89893e-06
4.47829e-06
4.09228e-06
3.73818e-06
3.4137e-06
3.11633e-06
2.8444e-06
2.5953e-06
2.36823e-06
2.16017e-06
1.97146e-06
1.79809e-06
1.64245e-06
1.49807e-06
1.37128e-06
1.25074e-06
1.14968e-06
1.04812e-06
9.70731e-07
8.83546e-07
8.2854e-07
7.51371e-07
7.18824e-07
6.4559e-07
6.366e-07
5.65547e-07
5.77479e-07
5.0679e-07
5.38994e-07
4.65515e-07
5.18731e-07
4.38852e-07
5.14033e-07
4.24822e-07
5.22499e-07
4.22791e-07
5.42472e-07
4.33016e-07
5.7225e-07
4.5589e-07
6.09754e-07
4.90821e-07
6.51994e-07
5.35451e-07
6.95209e-07
5.86278e-07
7.36201e-07
6.39879e-07
7.73468e-07
6.93986e-07
8.06383e-07
7.43027e-07
8.34567e-07
7.8557e-07
8.5807e-07
8.21141e-07
8.77251e-07
8.50008e-07
8.92601e-07
8.72866e-07
9.04648e-07
8.90566e-07
9.13885e-07
9.0395e-07
9.20714e-07
9.13737e-07
9.25438e-07
9.20509e-07
9.28237e-07
9.24651e-07
9.29128e-07
9.26331e-07
9.27609e-07
9.25058e-07
0.00341857
0.00322155
0.00303524
0.00285893
0.00269224
0.00253461
0.00238563
0.00224483
0.00211182
0.00198618
0.00186754
0.00175553
0.00164982
0.00155007
0.00145597
0.00136723
0.00128355
0.00120468
0.00113035
0.00106032
0.000994364
0.000932254
0.000873785
0.000818756
0.00076698
0.000718277
0.000672477
0.000629419
0.000588949
0.000550923
0.000515202
0.000481657
0.000450163
0.000420603
0.000392867
0.00036685
0.000342451
0.000319577
0.000298138
0.000278051
0.000259236
0.000241618
0.000225125
0.00020969
0.00019525
0.000181745
0.000169118
0.000157316
0.000146288
0.000135987
0.000126368
0.000117389
0.000109011
0.000101194
9.39049e-05
8.71096e-05
8.07769e-05
7.48774e-05
6.93832e-05
6.42683e-05
5.95083e-05
5.508e-05
5.09619e-05
4.71335e-05
4.35759e-05
4.0271e-05
3.72021e-05
3.43534e-05
3.17101e-05
2.92584e-05
2.69852e-05
2.48783e-05
2.29264e-05
2.11188e-05
1.94456e-05
1.78973e-05
1.64652e-05
1.51412e-05
1.39176e-05
1.27874e-05
1.17437e-05
1.07806e-05
9.89204e-06
9.07274e-06
8.31765e-06
7.62205e-06
6.98158e-06
6.39216e-06
5.85001e-06
5.35159e-06
4.89364e-06
4.47308e-06
4.08715e-06
3.73311e-06
3.4087e-06
3.11139e-06
2.83952e-06
2.59047e-06
2.36344e-06
2.15543e-06
1.96676e-06
1.79342e-06
1.63782e-06
1.49347e-06
1.36671e-06
1.2462e-06
1.14516e-06
1.04362e-06
9.66254e-07
8.79097e-07
8.24099e-07
7.46959e-07
7.14414e-07
6.41206e-07
6.3222e-07
5.6119e-07
5.73123e-07
5.02457e-07
5.34658e-07
4.61203e-07
5.14411e-07
4.34558e-07
5.09727e-07
4.20543e-07
5.18207e-07
4.18523e-07
5.38195e-07
4.28758e-07
5.67984e-07
4.51643e-07
6.05494e-07
4.86581e-07
6.47754e-07
5.31213e-07
6.90979e-07
5.82042e-07
7.31973e-07
6.35648e-07
7.69242e-07
6.89744e-07
8.02154e-07
7.3878e-07
8.30333e-07
7.8132e-07
8.53827e-07
8.16886e-07
8.73001e-07
8.45748e-07
8.88345e-07
8.68601e-07
9.00387e-07
8.86298e-07
9.09619e-07
8.99679e-07
9.16445e-07
9.09463e-07
9.21166e-07
9.16233e-07
9.23961e-07
9.20372e-07
9.2485e-07
9.2205e-07
9.23331e-07
9.20768e-07
0.00341811
0.00322111
0.00303483
0.00285854
0.00269188
0.00253426
0.00238531
0.00224452
0.00211153
0.0019859
0.00186728
0.00175528
0.00164958
0.00154985
0.00145576
0.00136703
0.00128336
0.0012045
0.00113018
0.00106016
0.000994215
0.000932114
0.000873652
0.000818631
0.000766862
0.000718166
0.000672372
0.00062932
0.000588856
0.000550835
0.000515119
0.000481579
0.000450089
0.000420534
0.000392802
0.000366788
0.000342393
0.000319522
0.000298087
0.000278003
0.000259191
0.000241575
0.000225084
0.000209652
0.000195214
0.000181711
0.000169086
0.000157285
0.000146259
0.00013596
0.000126343
0.000117365
0.000108988
0.000101173
9.38846e-05
8.70904e-05
8.07587e-05
7.486e-05
6.93668e-05
6.42527e-05
5.94935e-05
5.50659e-05
5.09485e-05
4.71208e-05
4.35637e-05
4.02594e-05
3.71911e-05
3.43428e-05
3.17e-05
2.92487e-05
2.69758e-05
2.48694e-05
2.29178e-05
2.11105e-05
1.94376e-05
1.78895e-05
1.64577e-05
1.5134e-05
1.39106e-05
1.27806e-05
1.17371e-05
1.07741e-05
9.88577e-06
9.06663e-06
8.31168e-06
7.61621e-06
6.97587e-06
6.38656e-06
5.84451e-06
5.34619e-06
4.88833e-06
4.46786e-06
4.082e-06
3.72804e-06
3.40369e-06
3.10644e-06
2.83463e-06
2.58563e-06
2.35865e-06
2.15068e-06
1.96205e-06
1.78876e-06
1.63318e-06
1.48887e-06
1.36214e-06
1.24166e-06
1.14064e-06
1.03913e-06
9.61775e-07
8.74647e-07
8.19656e-07
7.42548e-07
7.10004e-07
6.36822e-07
6.27841e-07
5.56833e-07
5.68768e-07
4.98125e-07
5.30323e-07
4.56893e-07
5.10092e-07
4.30265e-07
5.05424e-07
4.16264e-07
5.13916e-07
4.14257e-07
5.33915e-07
4.24502e-07
5.63724e-07
4.47391e-07
6.01257e-07
4.82337e-07
6.43521e-07
5.26975e-07
6.86754e-07
5.77803e-07
7.27755e-07
6.31397e-07
7.65024e-07
6.85506e-07
7.97928e-07
7.3454e-07
8.261e-07
7.77073e-07
8.49589e-07
8.12634e-07
8.68755e-07
8.41492e-07
8.84093e-07
8.64341e-07
8.96129e-07
8.82034e-07
9.05357e-07
8.95412e-07
9.12179e-07
9.05193e-07
9.16897e-07
9.11961e-07
9.1969e-07
9.16098e-07
9.20576e-07
9.17773e-07
9.19058e-07
9.16492e-07
0.00341765
0.00322068
0.00303441
0.00285815
0.0026915
0.00253391
0.00238497
0.00224421
0.00211123
0.00198562
0.00186701
0.00175503
0.00164935
0.00154962
0.00145555
0.00136683
0.00128318
0.00120432
0.00113001
0.00106001
0.000994065
0.000931973
0.000873519
0.000818506
0.000766744
0.000718054
0.000672267
0.000629221
0.000588762
0.000550747
0.000515036
0.0004815
0.000450016
0.000420465
0.000392737
0.000366726
0.000342335
0.000319467
0.000298035
0.000277954
0.000259145
0.000241532
0.000225044
0.000209613
0.000195178
0.000181677
0.000169054
0.000157255
0.000146231
0.000135933
0.000126317
0.000117341
0.000108965
0.000101151
9.38643e-05
8.70712e-05
8.07406e-05
7.48429e-05
6.93505e-05
6.42374e-05
5.94789e-05
5.50521e-05
5.09353e-05
4.71083e-05
4.35518e-05
4.02481e-05
3.71802e-05
3.43325e-05
3.16901e-05
2.92392e-05
2.69668e-05
2.48607e-05
2.29095e-05
2.11026e-05
1.94299e-05
1.78821e-05
1.64506e-05
1.51271e-05
1.39039e-05
1.27741e-05
1.17309e-05
1.0768e-05
9.87985e-06
9.06087e-06
8.30606e-06
7.61073e-06
6.9705e-06
6.38131e-06
5.83937e-06
5.34115e-06
4.88338e-06
4.463e-06
4.07721e-06
3.72332e-06
3.39905e-06
3.10185e-06
2.8301e-06
2.58115e-06
2.35422e-06
2.1463e-06
1.95771e-06
1.78445e-06
1.62891e-06
1.48463e-06
1.35793e-06
1.23748e-06
1.13648e-06
1.035e-06
9.57662e-07
8.70564e-07
8.1558e-07
7.38503e-07
7.05961e-07
6.32805e-07
6.23829e-07
5.52844e-07
5.64781e-07
4.94161e-07
5.26355e-07
4.5295e-07
5.06142e-07
4.26341e-07
5.01487e-07
4.12355e-07
5.09995e-07
4.10357e-07
5.30011e-07
4.20612e-07
5.59829e-07
4.43516e-07
5.97369e-07
4.78469e-07
6.39652e-07
5.23111e-07
6.82895e-07
5.73942e-07
7.23898e-07
6.27546e-07
7.61169e-07
6.81639e-07
7.94074e-07
7.30666e-07
8.22239e-07
7.73197e-07
8.45719e-07
8.08753e-07
8.6488e-07
8.37605e-07
8.80211e-07
8.6045e-07
8.92242e-07
8.7814e-07
9.01465e-07
8.91514e-07
9.08283e-07
9.01294e-07
9.12998e-07
9.08058e-07
9.15788e-07
9.12193e-07
9.16672e-07
9.13866e-07
9.15159e-07
9.12598e-07
0.00341718
0.00322023
0.003034
0.00285775
0.00269113
0.00253356
0.00238464
0.00224389
0.00211093
0.00198534
0.00186674
0.00175478
0.00164911
0.0015494
0.00145534
0.00136663
0.00128299
0.00120414
0.00112985
0.00105985
0.000993914
0.00093183
0.000873385
0.000818379
0.000766624
0.000717942
0.000672161
0.000629121
0.000588668
0.000550658
0.000514953
0.000481422
0.000449942
0.000420395
0.000392671
0.000366665
0.000342276
0.000319412
0.000297984
0.000277906
0.000259099
0.000241489
0.000225003
0.000209575
0.000195142
0.000181643
0.000169022
0.000157225
0.000146203
0.000135907
0.000126292
0.000117318
0.000108943
0.00010113
9.38445e-05
8.70525e-05
8.07229e-05
7.48262e-05
6.93348e-05
6.42225e-05
5.94648e-05
5.50387e-05
5.09227e-05
4.70963e-05
4.35404e-05
4.02373e-05
3.717e-05
3.43227e-05
3.16808e-05
2.92303e-05
2.69583e-05
2.48526e-05
2.29017e-05
2.10951e-05
1.94228e-05
1.78753e-05
1.6444e-05
1.51207e-05
1.38978e-05
1.27682e-05
1.17252e-05
1.07625e-05
9.87452e-06
9.05569e-06
8.30103e-06
7.60583e-06
6.96573e-06
6.37666e-06
5.83483e-06
5.33671e-06
4.87903e-06
4.45873e-06
4.07303e-06
3.71921e-06
3.395e-06
3.09787e-06
2.82617e-06
2.57728e-06
2.3504e-06
2.14252e-06
1.95397e-06
1.78075e-06
1.62525e-06
1.481e-06
1.35433e-06
1.23391e-06
1.13293e-06
1.03148e-06
9.54158e-07
8.6709e-07
8.12113e-07
7.35069e-07
7.02527e-07
6.29398e-07
6.20428e-07
5.49465e-07
5.61403e-07
4.90807e-07
5.22998e-07
4.49618e-07
5.02802e-07
4.23027e-07
4.98165e-07
4.09054e-07
5.06683e-07
4.07073e-07
5.26709e-07
4.17338e-07
5.56545e-07
4.40248e-07
5.94107e-07
4.75207e-07
6.36399e-07
5.19854e-07
6.79652e-07
5.70684e-07
7.20659e-07
6.24277e-07
7.57931e-07
6.78385e-07
7.90829e-07
7.27411e-07
8.18989e-07
7.69933e-07
8.42464e-07
8.05484e-07
8.61616e-07
8.34332e-07
8.76941e-07
8.57172e-07
8.88966e-07
8.74858e-07
8.98184e-07
8.88229e-07
9.04999e-07
8.98005e-07
9.0971e-07
9.04767e-07
9.12498e-07
9.089e-07
9.13381e-07
9.10571e-07
9.11878e-07
9.09324e-07
0.00341671
0.00321979
0.00303357
0.00285735
0.00269075
0.0025332
0.0023843
0.00224357
0.00211063
0.00198505
0.00186647
0.00175452
0.00164887
0.00154917
0.00145512
0.00136642
0.00128279
0.00120396
0.00112967
0.00105968
0.000993763
0.000931687
0.00087325
0.000818252
0.000766505
0.000717829
0.000672054
0.000629021
0.000588574
0.000550569
0.000514869
0.000481343
0.000449867
0.000420325
0.000392605
0.000366603
0.000342218
0.000319358
0.000297932
0.000277857
0.000259054
0.000241446
0.000224963
0.000209537
0.000195106
0.000181609
0.00016899
0.000157196
0.000146175
0.00013588
0.000126268
0.000117295
0.000108921
0.00010111
9.38252e-05
8.70343e-05
8.07058e-05
7.48101e-05
6.93195e-05
6.42081e-05
5.94512e-05
5.50259e-05
5.09106e-05
4.70848e-05
4.35296e-05
4.0227e-05
3.71603e-05
3.43136e-05
3.16721e-05
2.92221e-05
2.69505e-05
2.48451e-05
2.28946e-05
2.10883e-05
1.94163e-05
1.78691e-05
1.64381e-05
1.51151e-05
1.38924e-05
1.2763e-05
1.17201e-05
1.07577e-05
9.86985e-06
9.05118e-06
8.29666e-06
7.60161e-06
6.96164e-06
6.37268e-06
5.83096e-06
5.33294e-06
4.87535e-06
4.45514e-06
4.06952e-06
3.71578e-06
3.39163e-06
3.09457e-06
2.82293e-06
2.57409e-06
2.34726e-06
2.13943e-06
1.95092e-06
1.77775e-06
1.62227e-06
1.47806e-06
1.35142e-06
1.23103e-06
1.13007e-06
1.02866e-06
9.51346e-07
8.64309e-07
8.09338e-07
7.32327e-07
6.99787e-07
6.26684e-07
6.17719e-07
5.46779e-07
5.5872e-07
4.88147e-07
5.20335e-07
4.46979e-07
5.00157e-07
4.20409e-07
4.95532e-07
4.06454e-07
5.04065e-07
4.04481e-07
5.24108e-07
4.14756e-07
5.53957e-07
4.37676e-07
5.91531e-07
4.72643e-07
6.3384e-07
5.17296e-07
6.77103e-07
5.68129e-07
7.18115e-07
6.21728e-07
7.55388e-07
6.75828e-07
7.88283e-07
7.24849e-07
8.16436e-07
7.67369e-07
8.39902e-07
8.02914e-07
8.5905e-07
8.31755e-07
8.74368e-07
8.54592e-07
8.86387e-07
8.72273e-07
8.95601e-07
8.85641e-07
9.02412e-07
8.95414e-07
9.0712e-07
9.02174e-07
9.09905e-07
9.06304e-07
9.10786e-07
9.07973e-07
9.09292e-07
9.06747e-07
0.00341624
0.00321934
0.00303315
0.00285695
0.00269037
0.00253284
0.00238396
0.00224325
0.00211032
0.00198476
0.0018662
0.00175427
0.00164862
0.00154894
0.0014549
0.00136622
0.0012826
0.00120378
0.0011295
0.00105952
0.00099361
0.000931543
0.000873114
0.000818124
0.000766384
0.000717715
0.000671948
0.00062892
0.000588479
0.00055048
0.000514785
0.000481264
0.000449793
0.000420255
0.00039254
0.000366541
0.00034216
0.000319303
0.000297881
0.000277809
0.000259008
0.000241403
0.000224923
0.0002095
0.000195071
0.000181576
0.000168959
0.000157166
0.000146147
0.000135855
0.000126244
0.000117272
0.0001089
0.00010109
9.38064e-05
8.70166e-05
8.06891e-05
7.47944e-05
6.93048e-05
6.41943e-05
5.94382e-05
5.50137e-05
5.08991e-05
4.7074e-05
4.35194e-05
4.02174e-05
3.71512e-05
3.4305e-05
3.1664e-05
2.92144e-05
2.69432e-05
2.48382e-05
2.28881e-05
2.10822e-05
1.94104e-05
1.78635e-05
1.64328e-05
1.511e-05
1.38876e-05
1.27584e-05
1.17158e-05
1.07535e-05
9.86582e-06
9.04732e-06
8.29295e-06
7.59804e-06
6.9582e-06
6.36936e-06
5.82775e-06
5.32983e-06
4.87234e-06
4.45222e-06
4.06668e-06
3.71301e-06
3.38894e-06
3.09194e-06
2.82036e-06
2.57157e-06
2.34479e-06
2.13701e-06
1.94854e-06
1.77541e-06
1.61997e-06
1.4758e-06
1.34918e-06
1.22883e-06
1.12789e-06
1.02651e-06
9.4921e-07
8.62204e-07
8.07239e-07
7.30263e-07
6.97723e-07
6.24647e-07
6.15689e-07
5.44771e-07
5.56714e-07
4.86164e-07
5.1835e-07
4.45022e-07
4.98188e-07
4.1847e-07
4.9358e-07
4.04528e-07
5.02127e-07
4.02569e-07
5.22182e-07
4.12854e-07
5.52048e-07
4.35782e-07
5.8964e-07
4.70756e-07
6.31963e-07
5.15415e-07
6.75235e-07
5.66249e-07
7.16252e-07
6.19842e-07
7.53526e-07
6.73951e-07
7.86416e-07
7.22969e-07
8.14563e-07
7.65483e-07
8.38023e-07
8.01024e-07
8.57162e-07
8.29861e-07
8.72475e-07
8.52691e-07
8.84489e-07
8.70368e-07
8.93698e-07
8.83733e-07
9.00505e-07
8.93502e-07
9.0521e-07
9.0026e-07
9.07992e-07
9.04388e-07
9.08871e-07
9.06055e-07
9.07387e-07
9.04851e-07
0.00341576
0.00321889
0.00303272
0.00285655
0.00268999
0.00253248
0.00238362
0.00224292
0.00211002
0.00198447
0.00186593
0.00175401
0.00164838
0.00154871
0.00145469
0.00136601
0.00128241
0.0012036
0.00112933
0.00105936
0.000993456
0.000931398
0.000872978
0.000817995
0.000766263
0.000717601
0.00067184
0.000628819
0.000588384
0.00055039
0.000514701
0.000481185
0.000449719
0.000420185
0.000392474
0.000366479
0.000342102
0.000319249
0.00029783
0.000277761
0.000258963
0.000241361
0.000224883
0.000209463
0.000195036
0.000181543
0.000168928
0.000157137
0.00014612
0.000135829
0.00012622
0.000117249
0.000108879
0.00010107
9.37879e-05
8.69993e-05
8.06729e-05
7.47792e-05
6.92906e-05
6.41809e-05
5.94257e-05
5.50019e-05
5.0888e-05
4.70636e-05
4.35097e-05
4.02082e-05
3.71426e-05
3.42969e-05
3.16564e-05
2.92073e-05
2.69365e-05
2.48319e-05
2.28821e-05
2.10765e-05
1.94051e-05
1.78585e-05
1.6428e-05
1.51055e-05
1.38833e-05
1.27543e-05
1.17119e-05
1.07499e-05
9.86236e-06
9.04402e-06
8.28981e-06
7.59503e-06
6.95532e-06
6.36661e-06
5.82511e-06
5.32729e-06
4.8699e-06
4.44987e-06
4.06441e-06
3.71082e-06
3.38682e-06
3.08988e-06
2.81836e-06
2.56963e-06
2.3429e-06
2.13516e-06
1.94674e-06
1.77365e-06
1.61825e-06
1.47411e-06
1.34752e-06
1.2272e-06
1.12629e-06
1.02493e-06
9.47653e-07
8.60679e-07
8.0572e-07
7.28778e-07
6.96239e-07
6.2319e-07
6.14238e-07
5.43342e-07
5.5529e-07
4.84764e-07
5.16945e-07
4.43644e-07
4.96801e-07
4.17111e-07
4.92207e-07
4.03186e-07
5.00768e-07
4.01237e-07
5.20839e-07
4.11532e-07
5.5072e-07
4.3447e-07
5.88325e-07
4.69452e-07
6.30666e-07
5.14116e-07
6.7395e-07
5.64952e-07
7.14971e-07
6.18547e-07
7.52247e-07
6.72656e-07
7.85133e-07
7.21671e-07
8.13273e-07
7.64181e-07
8.36726e-07
7.99716e-07
8.55858e-07
8.28548e-07
8.71163e-07
8.51374e-07
8.83172e-07
8.69046e-07
8.92377e-07
8.82406e-07
8.99179e-07
8.92173e-07
9.0388e-07
8.98928e-07
9.06661e-07
9.03054e-07
9.07538e-07
9.04719e-07
9.06066e-07
9.03537e-07
0.00341503
0.0032182
0.00303207
0.00285593
0.00268941
0.00253193
0.0023831
0.00224243
0.00210955
0.00198403
0.00186551
0.00175362
0.00164801
0.00154836
0.00145436
0.0013657
0.00128211
0.00120332
0.00112907
0.00105911
0.000993224
0.000931179
0.000872771
0.000817801
0.00076608
0.000717429
0.000671678
0.000628666
0.00058824
0.000550255
0.000514574
0.000481065
0.000449606
0.00042008
0.000392375
0.000366386
0.000342015
0.000319166
0.000297752
0.000277689
0.000258895
0.000241297
0.000224823
0.000209406
0.000194983
0.000181494
0.000168882
0.000157094
0.00014608
0.000135791
0.000126184
0.000117216
0.000108847
0.000101041
9.37605e-05
8.69737e-05
8.06489e-05
7.47568e-05
6.92696e-05
6.41612e-05
5.94073e-05
5.49847e-05
5.08719e-05
4.70485e-05
4.34955e-05
4.0195e-05
3.71302e-05
3.42853e-05
3.16455e-05
2.91971e-05
2.6927e-05
2.4823e-05
2.28738e-05
2.10687e-05
1.93977e-05
1.78516e-05
1.64215e-05
1.50994e-05
1.38776e-05
1.27489e-05
1.17068e-05
1.0745e-05
9.8578e-06
9.03971e-06
8.28573e-06
7.59117e-06
6.95166e-06
6.36313e-06
5.8218e-06
5.32414e-06
4.8669e-06
4.447e-06
4.06167e-06
3.70819e-06
3.3843e-06
3.08746e-06
2.81603e-06
2.56739e-06
2.34073e-06
2.13307e-06
1.94472e-06
1.77169e-06
1.61634e-06
1.47226e-06
1.34571e-06
1.22544e-06
1.12456e-06
1.02325e-06
9.45995e-07
8.59069e-07
8.0412e-07
7.27231e-07
6.94693e-07
6.21684e-07
6.12744e-07
5.41884e-07
5.5383e-07
4.83343e-07
5.15519e-07
4.4226e-07
4.954e-07
4.15756e-07
4.90831e-07
4.01853e-07
4.99414e-07
3.99923e-07
5.19506e-07
4.10233e-07
5.4941e-07
4.33185e-07
5.87043e-07
4.68178e-07
6.29405e-07
5.12852e-07
6.72706e-07
5.63691e-07
7.13734e-07
6.17284e-07
7.51013e-07
6.71401e-07
7.83893e-07
7.20411e-07
8.12023e-07
7.62914e-07
8.35465e-07
7.98441e-07
8.54586e-07
8.27265e-07
8.69882e-07
8.50082e-07
8.81882e-07
8.67749e-07
8.91078e-07
8.81103e-07
8.97876e-07
8.90864e-07
9.02573e-07
8.97614e-07
9.05349e-07
9.01737e-07
9.06224e-07
9.03401e-07
9.04774e-07
9.02251e-07
0.00341405
0.00321727
0.00303119
0.0028551
0.00268862
0.00253118
0.00238239
0.00224177
0.00210892
0.00198344
0.00186495
0.00175308
0.00164751
0.00154788
0.00145391
0.00136528
0.00128171
0.00120294