/*--------------------------------*- C++ -*----------------------------------*\
| =========                 |                                                 |
| \\      /  F ield         | OpenFOAM: The Open Source CFD Toolbox           |
|  \\    /   O peration     | Version:  v1912                                 |
|   \\  /    A nd           | Website:  www.openfoam.com                      |
|    \\/     M anipulation  |                                                 |
\*---------------------------------------------------------------------------*/
FoamFile
{
    version     2.0;
    format      ascii;
    class       surfaceScalarField;
    location    "80";
    object      alphaPhi0.water;
}
// * * * * * * * * * * * * * * * * * * * * * * * * * * * * * * * * * * * * * //

dimensions      [0 3 -1 0 0 0 0];
oriented        oriented;


internalField   nonuniform List<scalar> 
28285
(
0.117906
-0.00371914
0.119707
-0.00180114
0.119649
5.81041e-05
0.117499
0.00215033
0.113073
0.00442584
0.106371
0.00670183
0.0974784
0.00889286
0.0864786
0.0109997
0.0736194
0.0128593
0.0591905
0.0144288
0.043533
0.0156575
0.0270246
0.0165084
0.0100644
0.0169602
-0.00692166
0.0169861
-0.023469
0.0165473
-0.0391649
0.0156959
-0.0536124
0.0144475
-0.066458
0.0128456
-0.0774534
0.0109954
-0.0864097
0.00895631
-0.0932555
0.00684577
-0.0980304
0.00477497
-0.100764
0.00273328
-0.101613
0.000849227
-0.100762
-0.00085115
-0.0983434
-0.00241839
-0.0946051
-0.00373835
-0.0897752
-0.00482983
-0.0837827
-0.00599255
-0.0771207
-0.00666202
-0.0695881
-0.00753261
-0.0614054
-0.00818266
-0.0528292
-0.0085762
-0.0434796
-0.00934958
-0.0339979
-0.00948178
-0.0239705
-0.0100273
-0.01379
-0.0101805
-0.00354282
-0.0102472
0.00685849
-0.0104013
0.0168914
-0.010033
0.0267721
-0.00988062
0.035967
-0.00919492
0.0445265
-0.0085595
0.0521259
-0.00759942
0.0586578
-0.00653187
0.0638939
-0.00523613
0.067771
-0.0038771
0.0700434
-0.00227236
0.0707695
-0.00072618
0.0698229
0.000946658
0.0672581
0.00256477
0.0630519
0.00420626
0.0572751
0.00577679
0.0501133
0.00716177
0.0417013
0.00841201
0.0322616
0.00943969
0.0220575
0.0102041
0.0113421
0.0107154
0.000456158
0.010886
-0.0103023
0.0107584
-0.0205613
0.010259
-0.0300169
0.00945561
-0.0383169
0.00829998
-0.0452111
0.00689419
-0.0504355
0.00522445
-0.0538337
0.00339817
-0.0552869
0.00145323
-0.0547261
-0.000560799
-0.0522615
-0.00246461
-0.0481005
-0.00416103
-0.042496
-0.00560448
-0.0357841
-0.00671188
-0.0283501
-0.00743398
-0.0205924
-0.0077577
-0.0128555
-0.00773698
-0.00550896
-0.00734651
0.00124786
-0.00675682
0.00720646
-0.0059586
0.0123591
-0.00515267
0.0166483
-0.00428917
0.0202187
-0.0035704
0.0231179
-0.00289918
0.025504
-0.00238613
0.0275716
-0.00206757
0.029297
-0.00172545
-0.00170382
0.0310009
0.118687
-0.00716708
0.120135
-0.00325001
0.11962
0.000573724
0.117039
0.00473086
0.112211
0.00925422
0.105178
0.0137348
0.0960445
0.0180263
0.0850154
0.0220289
0.0722169
0.0256577
0.0579155
0.0287302
0.0424177
0.0311553
0.0260939
0.0328322
0.00932138
0.0337327
-0.00748423
0.0337917
-0.0238928
0.0329558
-0.0394761
0.0312793
-0.0538414
0.0288129
-0.0666351
0.0256393
-0.0776044
0.0219646
-0.086552
0.017904
-0.0934007
0.0136945
-0.0981868
0.00956109
-0.100935
0.00548101
-0.101783
0.00169785
-0.100952
-0.00168256
-0.0985342
-0.00483599
-0.0947958
-0.00747674
-0.0899634
-0.00966215
-0.0839606
-0.0119954
-0.0772876
-0.0133351
-0.0697378
-0.0150824
-0.0615332
-0.0163872
-0.0529407
-0.0171688
-0.0435653
-0.018725
-0.0340627
-0.0189844
-0.0240136
-0.0200764
-0.013809
-0.0203851
-0.00354145
-0.0205147
0.00688641
-0.0208292
0.0169409
-0.0200874
0.02685
-0.0197898
0.03607
-0.018415
0.0446559
-0.0171453
0.0522821
-0.0152257
0.0588376
-0.0130874
0.0640958
-0.0104943
0.0679902
-0.0077715
0.0702746
-0.00455685
0.0710181
-0.00146959
0.0700662
0.00189849
0.0674949
0.00513606
0.0632767
0.00842453
0.0574819
0.0115715
0.0502971
0.0143466
0.041855
0.0168541
0.0323803
0.0189144
0.0221356
0.0204488
0.0113758
0.0214752
0.000442868
0.0218189
-0.0103656
0.0215669
-0.0206723
0.0205657
-0.0301745
0.0189578
-0.0385164
0.0166419
-0.0454474
0.0138252
-0.0506985
0.0104755
-0.0541128
0.00681251
-0.0555685
0.00290886
-0.0549961
-0.00113316
-0.0525066
-0.00495412
-0.0483082
-0.00835943
-0.0426566
-0.0112561
-0.0358911
-0.0134774
-0.0284017
-0.0149233
-0.020591
-0.0155685
-0.0128084
-0.0155195
-0.00542619
-0.0147287
0.00135231
-0.0135353
0.00731968
-0.011926
0.0124677
-0.0103007
0.0167506
-0.00857209
0.0203383
-0.00715812
0.0233178
-0.00587865
0.0258988
-0.00496714
0.0282079
-0.00437668
0.0300923
-0.00360987
-0.00297083
0.0313593
0.11838
-0.0106703
0.119893
-0.00476229
0.119565
0.00090086
0.117107
0.00718941
0.112436
0.0139249
0.105531
0.0206399
0.0965032
0.0270543
0.0854738
0.0330583
0.0726569
0.0384746
0.0583263
0.0430608
0.042782
0.0466997
0.0263649
0.0492493
0.0094742
0.0506234
-0.00746415
0.0507301
-0.0240028
0.0494944
-0.0397153
0.0469918
-0.0541994
0.043297
-0.0670921
0.0385319
-0.0781358
0.0330083
-0.0871288
0.026897
-0.0939943
0.02056
-0.0987748
0.0143416
-0.101493
0.00819903
-0.102323
0.00252798
-0.101427
-0.00257814
-0.0989515
-0.00731189
-0.0951658
-0.0112624
-0.0902926
-0.0145353
-0.0842458
-0.0180422
-0.0775419
-0.0200389
-0.0699604
-0.0226639
-0.0617216
-0.024626
-0.0531079
-0.0257825
-0.0436957
-0.0281372
-0.0341663
-0.0285138
-0.0240863
-0.0301564
-0.0138398
-0.0306316
-0.00353845
-0.0308161
0.00694415
-0.0313118
0.0170407
-0.030184
0.0270085
-0.0297575
0.0362786
-0.0276851
0.0449176
-0.0257843
0.0525976
-0.0229057
0.0592002
-0.0196899
0.0645017
-0.0157957
0.0684322
-0.011702
0.070737
-0.00686164
0.0714794
-0.00221203
0.0705342
0.00284366
0.0679554
0.00771493
0.0637134
0.0126665
0.057881
0.0174039
0.05065
0.0215776
0.0421484
0.0253557
0.0326044
0.0284584
0.0222797
0.0307735
0.0114321
0.0323228
0.000406014
0.0328449
-0.0105008
0.0324737
-0.0209029
0.0309678
-0.0304988
0.0285536
-0.0389219
0.025065
-0.0459199
0.0208232
-0.0512218
0.0157774
-0.0546676
0.0102584
-0.0561287
0.00436995
-0.0555338
-0.00172809
-0.0529937
-0.00749423
-0.0487195
-0.0126336
-0.042973
-0.0170026
-0.0360996
-0.0203507
-0.0284989
-0.0225241
-0.0205812
-0.0234862
-0.0127064
-0.0233943
-0.00525251
-0.0221826
0.00157141
-0.0203592
0.00755979
-0.0179143
0.0127043
-0.0154451
0.0169619
-0.0128297
0.0205005
-0.0106967
0.0234079
-0.00878613
0.025863
-0.00742226
0.0279973
-0.00651097
0.0299327
-0.00554524
-0.00480303
0.0317649
0.119359
-0.014026
0.120685
-0.00608794
0.120089
0.00149679
0.117413
0.00986494
0.112496
0.0188423
0.105371
0.0277646
0.0961685
0.0362568
0.0850704
0.0441564
0.0722212
0.0513238
0.0578752
0.0574068
0.042342
0.0622329
0.025961
0.0656303
0.00909521
0.0674892
-0.00784899
0.0676743
-0.0244314
0.0660769
-0.0402104
0.0627708
-0.0547705
0.057857
-0.0677351
0.0514965
-0.0788371
0.0441104
-0.0878664
0.0359263
-0.0947461
0.0274397
-0.099529
0.0191245
-0.102227
0.0108966
-0.102983
0.00328429
-0.102069
-0.00349182
-0.099536
-0.00984516
-0.0956956
-0.0151028
-0.0907723
-0.0194586
-0.0846658
-0.0241488
-0.0779174
-0.0267872
-0.0702901
-0.0302913
-0.0620023
-0.0329138
-0.0533613
-0.0344235
-0.043897
-0.0376015
-0.0343277
-0.038083
-0.0241995
-0.0402847
-0.0138925
-0.0409386
-0.00353984
-0.0411687
0.00702678
-0.0418784
0.0171869
-0.0403441
0.0272416
-0.0398122
0.0365872
-0.0370307
0.0453058
-0.0345029
0.0530669
-0.0306668
0.059741
-0.0263641
0.0651091
-0.0211638
0.0690937
-0.0156866
0.071434
-0.00920192
0.0722132
-0.00299126
0.0712543
0.00380263
0.0686564
0.0103128
0.0643763
0.0169465
0.058486
0.0232943
0.0511835
0.0288801
0.0425898
0.0339494
0.0329389
0.0381093
0.0224912
0.0412212
0.0115094
0.0433046
0.000341155
0.0440132
-0.0107116
0.0435265
-0.0212532
0.0415094
-0.0309852
0.0382857
-0.0395303
0.0336101
-0.0466358
0.0279288
-0.0520161
0.0211577
-0.0555102
0.0137524
-0.0569787
0.00583844
-0.05635
-0.00235679
-0.0537338
-0.0101104
-0.0493456
-0.0170218
-0.0434551
-0.0228931
-0.0364179
-0.0273879
-0.0286481
-0.0302939
-0.0205687
-0.0315656
-0.0125542
-0.0314088
-0.00499242
-0.0297444
0.00189946
-0.0272511
0.00791812
-0.023933
0.0130576
-0.0205846
0.017289
-0.0170611
0.020785
-0.0141927
0.0236458
-0.0116469
0.0260758
-0.00985227
0.0282369
-0.00867209
0.0302214
-0.00752972
-0.00654498
0.0319633
0.119972
-0.017466
0.121349
-0.00746538
0.120802
0.0020435
0.118114
0.0125536
0.113221
0.0237349
0.106132
0.0348537
0.0969488
0.04544
0.0857817
0.0553235
0.0728339
0.0642716
0.0583628
0.0718779
0.04267
0.0779257
0.0261006
0.0821997
0.00903563
0.0845542
-0.00811137
0.0848213
-0.0248949
0.0828604
-0.0408706
0.0787465
-0.0556111
0.0725975
-0.068726
0.0646115
-0.0799392
0.0553235
-0.0890293
0.0450163
-0.0959192
0.0343296
-0.100673
0.0238782
-0.103296
0.0135195
-0.103975
0.0039633
-0.102949
-0.00451807
-0.100305
-0.0124889
-0.0963696
-0.019038
-0.0913667
-0.0244615
-0.085177
-0.0303385
-0.0783721
-0.0335921
-0.0706919
-0.0379715
-0.0623451
-0.0412606
-0.0536727
-0.0430959
-0.0441462
-0.047128
-0.034529
-0.0477002
-0.0243468
-0.0504669
-0.0139577
-0.0513276
-0.00353899
-0.0515875
0.00713922
-0.0525566
0.017382
-0.0505868
0.0275532
-0.0499835
0.0370003
-0.0464778
0.0458257
-0.0433283
0.0536965
-0.0385376
0.0604663
-0.0331338
0.0659228
-0.0266204
0.0699802
-0.019744
0.0723645
-0.0115862
0.0731654
-0.00379213
0.0722115
0.00475649
0.069594
0.0129303
0.0652654
0.0212752
0.0592981
0.0292615
0.051901
0.0362773
0.0431859
0.0426645
0.0333938
0.0479015
0.0227825
0.0518325
0.0116222
0.0544649
0.000264474
0.0553708
-0.0109853
0.0547762
-0.0217187
0.0522428
-0.0316402
0.0482072
-0.0403525
0.0423224
-0.0475972
0.0351734
-0.0530832
0.0266438
-0.0566445
0.0173137
-0.0581225
0.00731639
-0.0574451
-0.00303423
-0.0547259
-0.0128295
-0.0501835
-0.0215643
-0.0440988
-0.0289778
-0.0368408
-0.0346459
-0.0288421
-0.0382926
-0.0205441
-0.0398636
-0.0123415
-0.0396114
-0.00463356
-0.0374524
0.00234899
-0.0342337
0.00840661
-0.0299906
0.0135346
-0.0257126
0.0177181
-0.0212447
0.0211363
-0.0176108
0.0239097
-0.0144204
0.0262419
-0.0121844
0.0283011
-0.0107313
0.0302573
-0.00948587
-0.00847969
0.032192
0.121298
-0.0208535
0.122559
-0.00872694
0.121904
0.00269848
0.119114
0.015344
0.114058
0.0287902
0.106788
0.0421245
0.0974306
0.054797
0.0861285
0.0666256
0.0730622
0.0773379
0.0584883
0.0864517
0.0426973
0.0937168
0.0260156
0.0988814
0.00880642
0.101763
-0.00852181
0.102149
-0.0255148
0.0998533
-0.0417076
0.0949394
-0.0566517
0.0875416
-0.0699355
0.0778953
-0.0812709
0.0666589
-0.0904269
0.0541724
-0.0973319
0.0412346
-0.102065
0.0286115
-0.104605
0.0160589
-0.105155
0.00451366
-0.104046
-0.00562674
-0.101276
-0.0152596
-0.097224
-0.0230897
-0.0921194
-0.029566
-0.0858211
-0.0366368
-0.0789385
-0.0404747
-0.0711907
-0.0457193
-0.0627705
-0.0496808
-0.0540604
-0.0518059
-0.0444603
-0.0567282
-0.034784
-0.0573765
-0.0245365
-0.0607144
-0.0140485
-0.0618156
-0.00354546
-0.0620905
0.00727605
-0.0633781
0.0176219
-0.0609327
0.0279382
-0.0602998
0.037514
-0.0560535
0.0464732
-0.0522875
0.0544814
-0.0465459
0.0613721
-0.0400245
0.0669407
-0.0321889
0.0710907
-0.023894
0.0735327
-0.0140282
0.0743733
-0.00463275
0.0734132
0.00571659
0.0707692
0.0155743
0.0663799
0.0256645
0.0603159
0.0353255
0.052799
0.0437942
0.0439303
0.0515332
0.0339594
0.0578723
0.0231419
0.06265
0.0117565
0.0658503
0.000155293
0.0669721
-0.0113374
0.066269
-0.0223092
0.0632146
-0.0324637
0.0583617
-0.0413834
0.051242
-0.0488098
0.0425998
-0.0544305
0.0322644
-0.0580739
0.0209572
-0.0595619
0.00880436
-0.0588273
-0.00376882
-0.0559807
-0.0156761
-0.0512437
-0.0263012
-0.0449128
-0.0353088
-0.0373744
-0.0421842
-0.0290848
-0.0465822
-0.020509
-0.0484394
-0.0120674
-0.048053
-0.00417344
-0.0453463
0.00292163
-0.0413287
0.00902665
-0.0360957
0.0141379
-0.0308238
0.0182612
-0.025368
0.0215833
-0.0209329
0.024251
-0.0170881
0.0264865
-0.0144198
0.0284939
-0.0127388
0.0304439
-0.0114359
-0.0103939
0.0323581
0.122698
-0.0243729
0.124055
-0.0100839
0.123382
0.00337156
0.120557
0.0181695
0.115462
0.0338847
0.108134
0.0494526
0.0986869
0.0642442
0.0872178
0.0780947
0.0739587
0.0905969
0.0591679
0.101243
0.0431375
0.109747
0.0261972
0.115822
0.00871192
0.119249
-0.00891045
0.119772
-0.0262094
0.117152
-0.0427071
0.111437
-0.0579327
0.102767
-0.0714499
0.0914125
-0.0829527
0.0781616
-0.0921943
0.0634141
-0.0991084
0.0481487
-0.103796
0.0332986
-0.106196
0.0184592
-0.106606
0.00492356
-0.105348
-0.00688444
-0.102408
-0.0181992
-0.0982095
-0.0272886
-0.0929819
-0.0347936
-0.0865581
-0.0430606
-0.0795873
-0.0474455
-0.071769
-0.0535376
-0.0632651
-0.0581847
-0.054511
-0.06056
-0.0448279
-0.0664112
-0.0350815
-0.0671229
-0.0247627
-0.0710333
-0.0141561
-0.0724222
-0.00355558
-0.072691
0.00743798
-0.0743717
0.0179102
-0.0714049
0.0284018
-0.0707914
0.0381338
-0.0657855
0.0472529
-0.0614066
0.0554286
-0.0547216
0.0624664
-0.0470623
0.0681708
-0.0378933
0.0724332
-0.0281565
0.0749453
-0.0165403
0.0758318
-0.0055192
0.0748687
0.00667966
0.0721937
0.0182493
0.0677327
0.0301255
0.0615517
0.0415065
0.053888
0.0514579
0.0448346
0.0605865
0.0346516
0.0680554
0.0235868
0.0737148
0.0119322
0.0775049
3.8873e-05
0.0788654
-0.0117509
0.0780587
-0.0230145
0.0744782
-0.0334555
0.0688027
-0.0426329
0.0604194
-0.050281
0.050248
-0.0560646
0.0380479
-0.0598079
0.0247005
-0.0613122
0.0103087
-0.0605084
-0.0045726
-0.0575064
-0.0186782
-0.0525309
-0.0312767
-0.0458977
-0.041942
-0.038016
-0.050066
-0.0293697
-0.0552285
-0.0204534
-0.0573557
-0.0117184
-0.0567879
-0.00359901
-0.0534658
0.00363386
-0.0485616
0.00979357
-0.0422554
0.0148796
-0.0359098
0.0189245
-0.0294129
0.0221215
-0.0241299
0.0246517
-0.0196183
0.0267509
-0.016519
0.0286418
-0.0146297
0.0305292
-0.0133233
-0.0123506
0.032486
0.124525
-0.0279329
0.125828
-0.0113875
0.125126
0.00407374
0.122256
0.0210397
0.117031
0.0391094
0.109541
0.056943
0.0999139
0.0738709
0.0882523
0.0897563
0.0747939
0.104055
0.0597938
0.116243
0.0435342
0.126007
0.0263336
0.133022
0.00855035
0.137032
-0.009405
0.137727
-0.0270598
0.134807
-0.043913
0.12829
-0.059464
0.118318
-0.0732463
0.105195
-0.0849361
0.0898515
-0.0942726
0.0727506
-0.1012
0.0550762
-0.105843
0.0379411
-0.10806
0.0206762
-0.108308
0.00517196
-0.10689
-0.00830205
-0.10375
-0.0213393
-0.0993709
-0.031668
-0.0939899
-0.0401747
-0.0874138
-0.0496366
-0.0803327
-0.0545267
-0.0724373
-0.061433
-0.0638412
-0.0667809
-0.0550336
-0.0693676
-0.0452571
-0.0761877
-0.0354281
-0.0769519
-0.0250344
-0.0814269
-0.0142897
-0.083167
-0.00357414
-0.0834065
0.00761549
-0.0855613
0.0182454
-0.0820349
0.02894
-0.081486
0.0388564
-0.0757019
0.0481623
-0.0707126
0.0565364
-0.0630956
0.0637483
-0.0542742
0.0696113
-0.0437564
0.0740073
-0.0325525
0.0766051
-0.019138
0.0775459
-0.00646002
0.0765798
0.00764569
0.0738678
0.0209613
0.0693235
0.0346699
0.0630048
0.0478252
0.0551685
0.0592942
0.045898
0.069857
0.0354647
0.0784887
0.0241095
0.08507
0.012139
0.0894754
-7.10178e-05
0.0910754
-0.0122379
0.0902256
-0.0238485
0.0860888
-0.03463
0.0795843
-0.0441133
0.0699027
-0.0520196
0.0581543
-0.0579914
0.0440198
-0.0618581
0.0285672
-0.063381
0.0118315
-0.0624978
-0.00545583
-0.0593137
-0.0218623
-0.054055
-0.0365353
-0.0470611
-0.0489358
-0.038769
-0.0583581
-0.0296947
-0.0643028
-0.0203722
-0.0666783
-0.0112892
-0.0658708
-0.0029029
-0.0618521
0.00449327
-0.0559578
0.0107152
-0.0484773
0.0157633
-0.040958
0.0197102
-0.0333599
0.022755
-0.0271747
0.025116
-0.0219793
0.0270555
-0.0184585
0.0288259
-0.0164001
0.030659
-0.0151563
-0.0142927
0.032601
0.126627
-0.0316749
0.128053
-0.0128133
0.127327
0.00479999
0.124404
0.0239627
0.119104
0.0444097
0.111499
0.0645475
0.101687
0.0836831
0.0897792
0.101664
0.0760491
0.117785
0.0607561
0.131536
0.0441817
0.142581
0.0266379
0.150566
0.00847674
0.155193
-0.00989279
0.156097
-0.0279854
0.1529
-0.0452759
0.145581
-0.0612291
0.134271
-0.0753391
0.119305
-0.0872565
0.101769
-0.0967031
0.0821972
-0.103638
0.0620112
-0.108216
0.0425194
-0.110183
0.0226428
-0.110253
0.005242
-0.108631
-0.00992415
-0.105256
-0.0247138
-0.100668
-0.036256
-0.0951114
-0.0457317
-0.0883659
-0.0563821
-0.081158
-0.0617346
-0.0731892
-0.0694017
-0.0645025
-0.0754677
-0.055627
-0.0782431
-0.0457491
-0.0860656
-0.0358214
-0.0868797
-0.0253508
-0.0918975
-0.0144497
-0.0940681
-0.0036054
-0.0942508
0.00780566
-0.0969724
0.0186268
-0.092856
0.0295512
-0.0924103
0.0396836
-0.0858343
0.0492033
-0.0802322
0.0578055
-0.0716979
0.0652208
-0.0616894
0.071268
-0.0498037
0.0758191
-0.0371036
0.0785171
-0.0218359
0.07952
-0.00746302
0.078553
0.00861277
0.0757998
0.0237145
0.0711618
0.0393078
0.0646853
0.0543017
0.0566494
0.0673301
0.0471274
0.079379
0.0364055
0.0892107
0.0247154
0.0967601
0.0123831
0.101808
-0.000212964
0.103671
-0.0127966
0.102809
-0.0248086
0.0981008
-0.0359824
0.0907581
-0.0458198
0.0797401
-0.0540256
0.0663601
-0.060221
0.0502152
-0.0642347
0.0325809
-0.0657846
0.0133815
-0.0648105
-0.0064299
-0.0614163
-0.0252565
-0.0558265
-0.0421251
-0.04841
-0.0563523
-0.0396359
-0.0671322
-0.0300573
-0.0738814
-0.0202555
-0.0764801
-0.0107641
-0.0753623
-0.00206603
-0.0705502
0.00551013
-0.0635339
0.0118033
-0.0547704
0.0168029
-0.0459576
0.0206268
-0.0371838
0.023488
-0.030036
0.0256426
-0.0241339
0.0273883
-0.0202042
0.0290024
-0.0180142
0.0307447
-0.0168986
-0.0162167
0.0326688
0.129069
-0.0355576
0.130534
-0.0142786
0.129774
0.00555998
0.126852
0.0268844
0.121444
0.0498183
0.113673
0.0723178
0.103631
0.0937256
0.0914558
0.113839
0.0774319
0.131809
0.0618217
0.147146
0.0449014
0.159502
0.0269742
0.168493
0.00838455
0.173783
-0.0104569
0.174938
-0.0290526
0.171495
-0.0468468
0.163375
-0.0632621
0.150687
-0.0777481
0.133791
-0.0899255
0.113946
-0.099497
0.0917686
-0.106444
0.0689581
-0.11094
0.047016
-0.11262
0.0243223
-0.112475
0.00509706
-0.110616
-0.0117827
-0.106969
-0.0283611
-0.102133
-0.0410918
-0.0963653
-0.0514999
-0.0894261
-0.0633213
-0.0820632
-0.0690975
-0.074026
-0.077439
-0.0652518
-0.0842418
-0.0563055
-0.0871895
-0.0463287
-0.0960423
-0.0362741
-0.0969343
-0.0257227
-0.102449
-0.0146451
-0.105146
-0.00365797
-0.105238
0.00800144
-0.108632
0.0190581
-0.103913
0.030235
-0.103587
0.0406153
-0.0962146
0.0503751
-0.089992
0.0592395
-0.0805623
0.0668895
-0.0693394
0.0731419
-0.0560561
0.0778698
-0.0418315
0.0806908
-0.0246569
0.0817661
-0.00853827
0.0808038
0.00957505
0.0780001
0.0265182
0.0732539
0.044054
0.0665965
0.0609591
0.0583373
0.0755892
0.0485335
0.0891829
0.037481
0.100263
0.0254091
0.108832
0.0126637
0.114553
-0.000373635
0.116709
-0.0134259
0.115862
-0.0258999
0.110575
-0.0375247
0.102383
-0.0477671
0.0899825
-0.0563151
0.074908
-0.0627706
0.0566707
-0.0669581
0.0367684
-0.0685367
0.01496
-0.0674628
-0.00750377
-0.0638311
-0.0288882
-0.0578603
-0.0480959
-0.0499549
-0.0642578
-0.0406217
-0.0764653
-0.0304566
-0.0840465
-0.0200993
-0.0868374
-0.0101364
-0.0853251
-0.00107996
-0.0796066
0.0067039
-0.0713178
0.0130736
-0.0611401
0.0180141
-0.050898
0.02168
-0.0408496
0.0243228
-0.0326788
0.0262291
-0.0260403
0.0277442
-0.0217193
0.0291756
-0.0194456
0.0308145
-0.0185375
-0.0181031
0.0327008
0.131859
-0.0396824
0.133479
-0.0158983
0.132719
0.00632011
0.129725
0.0298787
0.124223
0.0553205
0.116292
0.0802478
0.105978
0.10404
0.093484
0.126333
0.0791095
0.146184
0.0631255
0.16313
0.0458035
0.176824
0.027433
0.186864
0.00834762
0.192868
-0.0110437
0.19433
-0.0302277
0.190679
-0.0486117
0.181759
-0.0655686
0.167644
-0.0804914
0.148714
-0.0929638
0.126419
-0.102673
0.101478
-0.10963
0.0759155
-0.113985
0.0513702
-0.115361
0.0256984
-0.114953
0.00468961
-0.112824
-0.0139124
-0.108873
-0.0323115
-0.103755
-0.0462098
-0.0977452
-0.0575097
-0.0905955
-0.070471
-0.0830495
-0.0766435
-0.0749402
-0.0855483
-0.0660634
-0.0931186
-0.0570747
-0.0961781
-0.0470304
-0.106087
-0.0367992
-0.107166
-0.0261579
-0.11309
-0.0148904
-0.116413
-0.00374556
-0.116383
0.00818468
-0.120562
0.0195222
-0.11525
0.030977
-0.115042
0.0416466
-0.106884
0.0516733
-0.100019
0.0608264
-0.0897154
0.0687425
-0.0772555
0.0752263
-0.0625399
0.0801642
-0.0467694
0.083128
-0.0276207
0.0842811
-0.00969139
0.0833254
0.0105308
0.0804615
0.0293821
0.0755931
0.0489223
0.0687328
0.0678194
0.0602259
0.0840961
0.0501104
0.0992984
0.0386901
0.111683
0.0261851
0.121337
0.0129747
0.127763
-0.000557576
0.130241
-0.0141406
0.129445
-0.0271326
0.123567
-0.0392584
0.114509
-0.0499561
0.10068
-0.058896
0.083848
-0.0656535
0.0634282
-0.0700406
0.0411555
-0.0716593
0.0165787
-0.0704756
-0.00868751
-0.0665789
-0.0327848
-0.0601757
-0.0544992
-0.0517109
-0.0727226
-0.0417352
-0.086441
-0.0308941
-0.0948877
-0.019894
-0.0978374
-0.00938615
-0.095833
7.13432e-05
-0.0890641
0.00809051
-0.079337
0.0145405
-0.0675902
0.0194135
-0.055771
0.0228792
-0.0443153
0.0252544
-0.035054
0.0268692
-0.0276551
0.028114
-0.022964
0.0293329
-0.0206644
0.0308393
-0.0200439
-0.0199343
0.0326704
0.134986
-0.0440489
0.136733
-0.0176454
0.135968
0.00708516
0.132936
0.0329113
0.127329
0.0609271
0.119207
0.0883697
0.108589
0.114658
0.095749
0.139173
0.0809918
0.160941
0.0645992
0.179522
0.0468379
0.194585
0.0279815
0.20572
0.00834835
0.212501
-0.0116566
0.214335
-0.0315062
0.210529
-0.0505646
0.200817
-0.0681446
0.185224
-0.0835739
0.164143
-0.096383
0.139228
-0.106254
0.111349
-0.113242
0.082904
-0.11735
0.0554781
-0.118456
0.0268042
-0.117732
0.00396567
-0.115268
-0.0163768
-0.110976
-0.0366034
-0.105535
-0.0516502
-0.0992458
-0.0637993
-0.09187
-0.0778468
-0.0841279
-0.0843856
-0.0759166
-0.0937596
-0.0669322
-0.102103
-0.0578936
-0.105217
-0.0478312
-0.116149
-0.0374264
-0.11757
-0.0266772
-0.123839
-0.0152038
-0.127887
-0.00385866
-0.127728
0.00834536
-0.132766
0.0199936
-0.126899
0.0317741
-0.126823
0.042781
-0.117891
0.0531024
-0.11034
0.0625848
-0.0991978
0.0708129
-0.0854836
0.077549
-0.069276
0.0827197
-0.0519401
0.0858467
-0.0307477
0.0870803
-0.010925
0.0861355
0.0114756
0.0832038
0.0323138
0.0782037
0.0539225
0.0711206
0.0749026
0.0623411
0.0928756
0.0518862
0.109753
0.0400589
0.123511
0.0270756
0.13432
0.0133427
0.141496
-0.000745812
0.14433
-0.0149175
0.143616
-0.0284938
0.137143
-0.0411786
0.127193
-0.0523895
0.111891
-0.0617858
0.0932443
-0.0688815
0.0705239
-0.0735059
0.0457799
-0.0751653
0.0182381
-0.0738614
-0.00999143
-0.0696772
-0.036969
-0.0627925
-0.0613838
-0.0536905
-0.0818245
-0.0429723
-0.0971592
-0.0313647
-0.106495
-0.0196382
-0.109564
-0.00851218
-0.106959
0.00140735
-0.0989837
0.00971119
-0.0876408
0.016239
-0.074118
0.0210107
-0.0605426
0.0242446
-0.0475493
0.0262829
-0.0370923
0.0275594
-0.0289316
0.0284819
-0.0238865
0.0294612
-0.0216437
0.0308165
-0.0213993
-0.0216982
0.0325805
0.138501
-0.0487353
0.140459
-0.0196032
0.139702
0.00784222
0.136635
0.0359783
0.130888
0.0666744
0.122576
0.096681
0.111618
0.125617
0.0983767
0.152414
0.0831768
0.176141
0.0663161
0.196383
0.0480552
0.212846
0.0286444
0.225131
0.00838582
0.23276
-0.0123202
0.235041
-0.0329317
0.23114
-0.0527604
0.220646
-0.0710446
0.203508
-0.0870344
0.180133
-0.100199
0.152393
-0.110238
0.121387
-0.117271
0.0899371
-0.120973
0.0591799
-0.121859
0.0276905
-0.120735
0.0028413
-0.117886
-0.0192255
-0.113218
-0.041272
-0.107414
-0.0574536
-0.100813
-0.0704004
-0.0931989
-0.0854608
-0.0852261
-0.0923584
-0.0768851
-0.102101
-0.0678291
-0.111159
-0.0587205
-0.114325
-0.0486935
-0.126176
-0.0381425
-0.128121
-0.0272747
-0.134707
-0.0155947
-0.139567
-0.00402165
-0.139301
0.00845583
-0.145244
0.0204429
-0.138886
0.0325937
-0.138973
0.0439901
-0.129287
0.0546518
-0.121002
0.0645044
-0.10905
0.0730794
-0.0940586
0.0800863
-0.0762829
0.0855195
-0.0573733
0.0888331
-0.0340613
0.0901364
-0.0122284
0.0892152
0.0123969
0.0862186
0.0353104
0.0810783
0.0590628
0.0737463
0.0822345
0.0646638
0.101958
0.0538367
0.12058
0.0415664
0.135781
0.0280537
0.147833
0.0137487
0.155801
-0.000942191
0.15902
-0.0157633
0.158437
-0.029982
0.151362
-0.0432852
0.140497
-0.0550806
0.123687
-0.0649817
0.103145
-0.072462
0.0780043
-0.077368
0.0506858
-0.0790893
0.0199594
-0.0776341
-0.0114467
-0.07312
-0.0414831
-0.0657058
-0.068798
-0.0558861
-0.0916442
-0.0443258
-0.10872
-0.0318499
-0.118971
-0.019291
-0.122123
-0.00746791
-0.118782
0.00297866
-0.10943
0.0115807
-0.0962428
0.0181709
-0.0807082
0.022788
-0.0651598
0.025743
-0.0505042
0.0274175
-0.0387667
0.0282964
-0.0298104
0.0288497
-0.0244398
0.0295356
-0.0223297
0.0307189
-0.0225826
-0.0233855
0.0324062
0.142378
-0.0537641
0.144549
-0.0217747
0.143792
0.00859974
0.140701
0.0390694
0.134752
0.0726235
0.126173
0.105259
0.114829
0.136961
0.101137
0.166106
0.0854536
0.191824
0.0680985
0.213738
0.0493199
0.231624
0.0293428
0.245108
0.00843585
0.253667
-0.0130077
0.256484
-0.0344346
0.252567
-0.0551066
0.241318
-0.0741769
0.222578
-0.0908053
0.196761
-0.104382
0.165969
-0.114608
0.131614
-0.12167
0.0969986
-0.124898
0.0624082
-0.125518
0.0283108
-0.12392
0.00124297
-0.120599
-0.0225469
-0.1155
-0.0463706
-0.10927
-0.0636842
-0.102309
-0.0773612
-0.0944262
-0.0933435
-0.0861554
-0.100629
-0.0776582
-0.110598
-0.0685956
-0.120222
-0.0594314
-0.12349
-0.0494557
-0.136152
-0.0388
-0.138777
-0.0278179
-0.145689
-0.0159353
-0.151449
-0.00414656
-0.15109
0.00857168
-0.157962
0.020922
-0.151236
0.0334472
-0.151498
0.0452835
-0.141124
0.0563111
-0.132029
0.0665841
-0.119323
0.0755472
-0.103022
0.0828225
-0.0835582
0.0885505
-0.0631013
0.0920779
-0.0375887
0.0934727
-0.0136232
0.0925714
0.0132983
0.0895014
0.0383804
0.0842102
0.0643539
0.0766096
0.0898351
0.0672029
0.111365
0.0559897
0.131794
0.0432492
0.148522
0.0291789
0.161903
0.0142607
0.17072
-0.00108833
0.174369
-0.0165811
0.17393
-0.0315081
0.166289
-0.0454867
0.154475
-0.0579271
0.136127
-0.06846
0.113678
-0.0763803
0.0859246
-0.0816175
0.055923
-0.0833905
0.0217324
-0.0817828
-0.0130543
-0.076894
-0.0463719
-0.0688638
-0.0768282
-0.0582482
-0.10226
-0.0457739
-0.121194
-0.0322635
-0.132482
-0.0187792
-0.135607
-0.00618698
-0.131374
0.00483263
-0.12045
0.0137161
-0.105126
0.0203472
-0.0873393
0.0247925
-0.0696051
0.0274084
-0.0531202
0.0286389
-0.0399972
0.0290513
-0.0302228
0.0292006
-0.0245891
0.0295662
-0.0226953
0.0305453
-0.0235617
-0.0250023
0.0321622
0.0513997
-0.0556319
0.0522261
-0.0226012
0.0519565
0.00886936
0.0508551
0.0401708
0.0487098
0.0747688
0.0456132
0.108356
0.0415258
0.141049
0.036584
0.171048
0.0309212
0.197487
0.0246533
0.220006
0.0178702
0.238408
0.0106398
0.252339
0.00306388
0.261243
-0.00471748
0.264266
-0.0125191
0.260369
-0.0200636
0.248863
-0.0270325
0.229547
-0.0331042
0.202833
-0.0380353
0.1709
-0.041723
0.135302
-0.0442168
0.0994925
-0.0452772
0.0634686
-0.0454233
0.0284569
-0.0447282
0.000547842
-0.0434157
-0.0238594
-0.0415
-0.0482863
-0.0391744
-0.0660098
-0.0365959
-0.0799397
-0.0337309
-0.0962085
-0.030722
-0.103638
-0.0276453
-0.113674
-0.0244185
-0.123448
-0.0211579
-0.12675
-0.0176364
-0.139673
-0.0138404
-0.142573
-0.00991127
-0.149618
-0.00565334
-0.155707
-0.00142873
-0.155314
0.00312083
-0.162511
0.0075825
-0.155698
0.0121025
-0.156018
0.0164005
-0.145422
0.0203894
-0.136018
0.0241211
-0.123055
0.0273853
-0.106286
0.0300285
-0.0862014
0.0321253
-0.0651982
0.0334296
-0.038893
0.0339461
-0.0141397
0.0336336
0.0136108
0.032535
0.0394789
0.0306284
0.0662605
0.0278708
0.0925927
0.0244677
0.114768
0.0204068
0.135854
0.0157838
0.153145
0.0106666
0.16702
0.00523449
0.176152
-0.000361748
0.179966
-0.00602146
0.17959
-0.0114845
0.171752
-0.0166158
0.159607
-0.0212141
0.140725
-0.0251344
0.117599
-0.0280652
0.0888554
-0.0299892
0.057847
-0.0306452
0.0223884
-0.0300515
-0.013648
-0.0282052
-0.0482182
-0.0251982
-0.0798353
-0.0212181
-0.10624
-0.0165439
-0.125868
-0.0115005
-0.137525
-0.00647536
-0.140632
-0.00179553
-0.136054
0.00224694
-0.124492
0.00545385
-0.108333
0.00780997
-0.0896955
0.00933145
-0.0711265
0.0101574
-0.0539461
0.0104677
-0.0403076
0.0104826
-0.0302377
0.0104213
-0.0245278
0.0104666
-0.0227405
0.0107613
-0.0238565
-0.0255568
0.0113158
0.0519568
-0.0575556
0.0528228
-0.0234672
0.052559
0.00913313
0.0514572
0.0412726
0.049276
0.07695
0.0461148
0.111517
0.0419662
0.145197
0.0369444
0.17607
0.0311986
0.203233
0.0248579
0.226347
0.018012
0.245253
0.0107311
0.259619
0.00309205
0.268882
-0.00478686
0.272144
-0.0127097
0.268292
-0.0203936
0.256546
-0.0274973
0.236651
-0.0336809
0.209016
-0.0386819
0.175901
-0.0423981
0.139018
-0.0448661
0.10196
-0.0458775
0.06448
-0.045982
0.0285614
-0.0452124
-0.000221752
-0.0438282
-0.0252436
-0.0418623
-0.0502522
-0.039481
-0.0683911
-0.0368443
-0.0825764
-0.0339508
-0.099102
-0.0308876
-0.106701
-0.0277815
-0.116781
-0.0245468
-0.126683
-0.0212606
-0.130036
-0.0177514
-0.143182
-0.0139242
-0.1464
-0.00995517
-0.153587
-0.0056668
-0.159995
-0.00139924
-0.159582
0.00319761
-0.167108
0.00771184
-0.160212
0.0122936
-0.1606
0.0166417
-0.14977
0.0206767
-0.140053
0.0244626
-0.126841
0.0277772
-0.109601
0.0304416
-0.0888658
0.032579
-0.0673355
0.0339094
-0.0402234
0.0344369
-0.0146672
0.0341291
0.0139187
0.033018
0.04059
0.0310928
0.0681858
0.0283055
0.09538
0.0248514
0.118222
0.0207394
0.139966
0.0160595
0.157824
0.0108679
0.172212
0.00534869
0.181671
-0.000350761
0.185665
-0.00611497
0.185354
-0.0116959
0.177333
-0.0169367
0.164847
-0.0216515
0.14544
-0.0256766
0.121624
-0.0286438
0.0918225
-0.0306195
0.0598227
-0.0312693
0.0230382
-0.0306547
-0.0142625
-0.0287702
-0.0501027
-0.0256642
-0.0829414
-0.0215632
-0.110341
-0.016738
-0.130693
-0.0115336
-0.142729
-0.00635782
-0.145808
-0.00155575
-0.140856
0.00255981
-0.128608
0.00581161
-0.111585
0.00818096
-0.0920648
0.00966523
-0.0726108
0.01043
-0.0547109
0.0106693
-0.0405468
0.0106116
-0.0301801
0.0104864
-0.0244026
0.0104837
-0.0227378
0.0107518
-0.0241246
-0.0261041
0.0112991
0.0525378
-0.0595374
0.0534443
-0.0243736
0.0531861
0.00939132
0.0520843
0.0423744
0.0498856
0.0791487
0.0466819
0.114721
0.0424908
0.149389
0.0374192
0.181141
0.0316217
0.20903
0.025225
0.232744
0.0183143
0.252164
0.010936
0.266998
0.00317672
0.276641
-0.00483657
0.280158
-0.0129132
0.276368
-0.0207511
0.264384
-0.0279947
0.243894
-0.0342872
0.215309
-0.0393527
0.180967
-0.0430901
0.142755
-0.0455075
0.104378
-0.0464787
0.0654511
-0.0465279
0.0286106
-0.0456833
-0.00106632
-0.0442177
-0.0267092
-0.0421997
-0.0522702
-0.039762
-0.0708288
-0.0370581
-0.0852803
-0.0341372
-0.102023
-0.0310382
-0.1098
-0.0279007
-0.119918