/*--------------------------------*- C++ -*----------------------------------*\
| =========                 |                                                 |
| \\      /  F ield         | OpenFOAM: The Open Source CFD Toolbox           |
|  \\    /   O peration     | Version:  v1912                                 |
|   \\  /    A nd           | Website:  www.openfoam.com                      |
|    \\/     M anipulation  |                                                 |
\*---------------------------------------------------------------------------*/
FoamFile
{
    version     2.0;
    format      ascii;
    class       volScalarField;
    location    "60";
    object      omega;
}
// * * * * * * * * * * * * * * * * * * * * * * * * * * * * * * * * * * * * * //

dimensions      [0 0 -1 0 0 0 0];


internalField   nonuniform List<scalar> 
14268
(
0.00938509
0.00938039
0.00937669
0.00937564
0.00938273
0.00939636
0.00941384
0.00943461
0.0094581
0.00948324
0.00950999
0.00953771
0.00956636
0.0095956
0.00962495
0.00965411
0.00968246
0.00970913
0.00973328
0.0097489
0.00975584
0.00975476
0.00974558
0.00972858
0.00970603
0.00968142
0.00966039
0.00964551
0.00963753
0.0096356
0.00963719
0.00963998
0.00964144
0.00963992
0.00963497
0.00963006
0.00962583
0.00962386
0.00962447
0.00962729
0.00963495
0.00964361
0.00965381
0.00966295
0.0096701
0.00967481
0.00967825
0.009681
0.0096834
0.00968587
0.00968874
0.00969078
0.00969269
0.00969622
0.00969901
0.00970176
0.00970513
0.00970747
0.00971066
0.00971092
0.00971346
0.00971261
0.00971568
0.00972079
0.00972977
0.00974142
0.00975596
0.00977325
0.00979238
0.00981444
0.00983869
0.00986544
0.00989566
0.00992745
0.00996126
0.00999488
0.0100275
0.0100578
0.0100838
0.0101064
0.0101279
0.0101552
0.0101991
0.0102277
0.0102394
0.0102548
0.159179
0.160014
0.160209
0.159833
0.159119
0.158133
0.156908
0.155514
0.153996
0.152403
0.150764
0.149105
0.147455
0.145818
0.144225
0.142707
0.141229
0.139812
0.138523
0.137453
0.136671
0.136304
0.136303
0.136646
0.137203
0.137785
0.13824
0.138457
0.13839
0.138038
0.137506
0.136963
0.136577
0.136414
0.136556
0.137149
0.138269
0.139875
0.141811
0.144019
0.146141
0.148253
0.150051
0.151386
0.152568
0.153354
0.15404
0.154411
0.154734
0.155002
0.155
0.155538
0.155954
0.156517
0.157238
0.157901
0.158728
0.159472
0.160148
0.160777
0.161095
0.161364
0.161321
0.161228
0.16091
0.160459
0.159821
0.159025
0.158055
0.156919
0.155612
0.154171
0.152568
0.150885
0.149143
0.14736
0.145656
0.143985
0.142633
0.141459
0.140544
0.139899
0.139855
0.141639
0.145025
0.149497
0.205248
0.205454
0.205459
0.205331
0.205099
0.204755
0.204317
0.203812
0.203263
0.202692
0.202115
0.201543
0.200981
0.200423
0.19986
0.199297
0.198729
0.198165
0.197643
0.197204
0.196886
0.196749
0.196769
0.196947
0.197217
0.197484
0.197682
0.197764
0.197719
0.197547
0.197302
0.197072
0.196927
0.196888
0.196963
0.197223
0.197695
0.198351
0.199122
0.199973
0.20076
0.201514
0.202111
0.202539
0.202901
0.203171
0.203384
0.203505
0.203638
0.203722
0.203754
0.203944
0.204093
0.204299
0.204527
0.204743
0.205
0.205216
0.20542
0.205595
0.205683
0.205768
0.205761
0.205753
0.205658
0.205518
0.205306
0.205043
0.204715
0.204331
0.203892
0.203412
0.20289
0.202345
0.201773
0.201165
0.200568
0.199969
0.19948
0.199055
0.198748
0.198576
0.198655
0.19936
0.200544
0.201974
0.214882
0.214924
0.214919
0.214891
0.214843
0.214738
0.214585
0.2144
0.214198
0.213995
0.213804
0.213631
0.213475
0.21332
0.213152
0.212968
0.212779
0.212595
0.212432
0.212307
0.212231
0.212215
0.212249
0.212333
0.212441
0.212529
0.212577
0.212567
0.212496
0.212372
0.212229
0.212105
0.212038
0.212018
0.212027
0.212091
0.212221
0.212412
0.212639
0.212904
0.213142
0.213376
0.21353
0.213624
0.213704
0.213778
0.213842
0.213886
0.213944
0.213972
0.214002
0.214073
0.214125
0.214201
0.214263
0.214321
0.214386
0.214421
0.214464
0.214487
0.214485
0.214499
0.214484
0.214481
0.214433
0.21437
0.214272
0.214159
0.214018
0.213861
0.213687
0.213505
0.213327
0.213152
0.212976
0.21278
0.212579
0.212379
0.212217
0.212081
0.211984
0.211917
0.211937
0.212115
0.212499
0.212887
0.217649
0.217656
0.217656
0.217661
0.217666
0.217621
0.217533
0.217419
0.217295
0.217177
0.217083
0.217016
0.216976
0.216951
0.216921
0.216869
0.216816
0.216768
0.21674
0.216733
0.216751
0.216779
0.216817
0.216866
0.216916
0.216927
0.216899
0.216822
0.216712
0.216584
0.216441
0.216318
0.216245
0.216216
0.216194
0.216187
0.216192
0.216216
0.216257
0.21633
0.216393
0.216457
0.216481
0.216479
0.216492
0.216522
0.21653
0.216545
0.21658
0.216585
0.216621
0.216651
0.216663
0.216694
0.216695
0.216696
0.216704
0.216663
0.216659
0.216612
0.216576
0.216545
0.216512
0.216498
0.216461
0.216416
0.216341
0.216264
0.216167
0.216063
0.215957
0.215851
0.215768
0.215697
0.215625
0.215543
0.215453
0.215369
0.215303
0.215263
0.215229
0.215175
0.215113
0.215127
0.215272
0.215468
0.219304
0.219314
0.219317
0.21933
0.219343
0.219313
0.219228
0.219101
0.218953
0.218812
0.218695
0.218616
0.218574
0.218564
0.218569
0.218566
0.218568
0.218574
0.218599
0.218635
0.218669
0.218697
0.218728
0.218755
0.218782
0.218771
0.21872
0.218621
0.218492
0.218323
0.218159
0.218022
0.217946
0.217899
0.217854
0.217814
0.217779
0.217748
0.217743
0.217758
0.217786
0.217804
0.217772
0.217736
0.217707
0.217696
0.217676
0.217695
0.21772
0.217731
0.217771
0.21779
0.217786
0.217815
0.217796
0.217787
0.217782
0.217715
0.217704
0.21763
0.217579
0.217524
0.217481
0.21745
0.217406
0.217355
0.217269
0.217186
0.217081
0.216972
0.216861
0.216749
0.216666
0.216596
0.216531
0.216472
0.216407
0.216359
0.216326
0.216306
0.216281
0.21621
0.216163
0.216137
0.216199
0.216253
0.22108
0.221091
0.221103
0.221118
0.22111
0.221077
0.220968
0.220794
0.220584
0.220371
0.220183
0.220039
0.219945
0.219899
0.219891
0.219899
0.219923
0.219958
0.219996
0.220029
0.220062
0.220091
0.220124
0.220161
0.220205
0.220187
0.220113
0.21998
0.219811
0.219615
0.21941
0.219235
0.219137
0.219074
0.219007
0.218947
0.218892
0.21885
0.218842
0.218857
0.218905
0.218936
0.218942
0.218901
0.218857
0.218834
0.218799
0.218787
0.218827
0.218838
0.218883
0.218899
0.218874
0.218896
0.218861
0.21884
0.218819
0.218725
0.218708
0.218596
0.21853
0.218442
0.218382
0.218312
0.218262
0.218203
0.218109
0.218015
0.217898
0.217772
0.217646
0.217511
0.217409
0.217319
0.217238
0.217164
0.217094
0.217044
0.217017
0.216984
0.216935
0.216849
0.216743
0.216667
0.216674
0.216801
0.223645
0.22368
0.223702
0.223707
0.223659
0.223592
0.22344
0.223202
0.222894
0.222558
0.222238
0.221971
0.221771
0.221659
0.2216
0.221583
0.221577
0.221574
0.221578
0.221585
0.221597
0.221605
0.221629
0.221661
0.221706
0.2217
0.221628
0.221479
0.221278
0.221035
0.220773
0.220558
0.22043
0.220338
0.220248
0.220177
0.220117
0.220081
0.220093
0.220152
0.220267
0.220368
0.220419
0.220367
0.220318
0.220246
0.220186
0.22017
0.220192
0.220235
0.220265
0.220287
0.220253
0.220282
0.220242
0.220222
0.220187
0.22007
0.220059
0.219912
0.219835
0.219716
0.21963
0.219521
0.21944
0.219355
0.219243
0.219133
0.218985
0.218834
0.218677
0.218508
0.218368
0.218238
0.218111
0.218029
0.217945
0.217857
0.217775
0.217724
0.217621
0.217522
0.217372
0.217246
0.217226
0.217388
0.227114
0.227179
0.227198
0.227168
0.227062
0.226949
0.226734
0.226429
0.226015
0.225551
0.225073
0.224654
0.224302
0.224044
0.223869
0.223779
0.223718
0.223667
0.223617
0.223574
0.223547
0.223526
0.223544
0.223598
0.223697
0.223703
0.22363
0.223448
0.223183
0.222857
0.222511
0.222233
0.222057
0.221913
0.221786
0.221706
0.221663
0.221662
0.221746
0.221913
0.222164
0.222372
0.222482
0.222464
0.222344
0.222266
0.222191
0.222133
0.222183
0.222204
0.222244
0.22228
0.222247
0.222292
0.222274
0.222269
0.222257
0.222121
0.222109
0.221946
0.221845
0.221701
0.221574
0.22142
0.221295
0.221129
0.220967
0.220807
0.220603
0.220392
0.22018
0.219947
0.219758
0.219583
0.219405
0.219248
0.219092
0.218922
0.218784
0.218641
0.218524
0.218365
0.218147
0.217974
0.217893
0.218103
0.231822
0.231936
0.231973
0.231884
0.231685
0.231439
0.231072
0.230641
0.230051
0.229391
0.228723
0.228115
0.227566
0.227133
0.226815
0.226614
0.226454
0.226313
0.226197
0.226112
0.226055
0.226015
0.226037
0.226124
0.22624
0.2263
0.226219
0.225985
0.225634
0.225208
0.224768
0.224412
0.224174
0.223973
0.22381
0.223717
0.223702
0.223779
0.223989
0.224336
0.224776
0.225157
0.225368
0.225413
0.225287
0.225105
0.225006
0.224931
0.22491
0.22492
0.224915
0.22499
0.225017
0.225111
0.225117
0.225162
0.225214
0.225118
0.225167
0.225031
0.224926
0.224825
0.224665
0.224478
0.224296
0.224056
0.223769
0.223481
0.223119
0.222805
0.222476
0.222149
0.221845
0.221527
0.22123
0.220947
0.22068
0.220391
0.220154
0.21993
0.219715
0.219496
0.219197
0.218974
0.218838
0.21909
0.238635
0.238908
0.239
0.238807
0.238382
0.237817
0.237166
0.236396
0.235503
0.234531
0.233579
0.232679
0.231843
0.231152
0.230609
0.230223
0.229913
0.229667
0.229478
0.229337
0.22925
0.229231
0.229304
0.229454
0.229689
0.229743
0.229647
0.22934
0.228866
0.228278
0.22768
0.227214
0.226908
0.226641
0.226434
0.226362
0.226413
0.226597
0.226989
0.227582
0.228284
0.228885
0.2293
0.229399
0.229324
0.229112
0.228889
0.228752
0.228686
0.228627
0.228554
0.228662
0.228781
0.228938
0.22907
0.229236
0.229391
0.229422
0.229546
0.229538
0.229426
0.229391
0.229243
0.229052
0.228814
0.228416
0.227955
0.227491
0.226908
0.22635
0.225785
0.225237
0.224736
0.224239
0.223716
0.223295
0.222839
0.222399
0.221981
0.221694
0.221385
0.221103
0.220677
0.22034
0.22014
0.220393
0.249057
0.249639
0.249819
0.249411
0.248554
0.247448
0.246171
0.244801
0.24333
0.241811
0.240357
0.239006
0.237748
0.236679
0.235794
0.235143
0.234622
0.234205
0.23388
0.233641
0.233468
0.233415
0.233494
0.233793
0.234157
0.234355
0.234251
0.233857
0.233246
0.232503
0.231733
0.231128
0.230689
0.230317
0.230047
0.229934
0.230043
0.230419
0.231099
0.232056
0.233161
0.234132
0.234774
0.234927
0.23488
0.234558
0.234363
0.234089
0.233905
0.233743
0.233578
0.233734
0.233936
0.234194
0.234478
0.234831
0.235234
0.235508
0.235822
0.236089
0.236043
0.236146
0.235974
0.235712
0.235314
0.234716
0.233946
0.233157
0.232239
0.231334
0.230428
0.229547
0.228726
0.22792
0.227118
0.226395
0.225701
0.225016
0.224482
0.223965
0.223566
0.22321
0.222639
0.222225
0.221904
0.222142
0.266644
0.267974
0.2683
0.267409
0.265454
0.262973
0.260259
0.257505
0.254818
0.252251
0.249931
0.247844
0.245931
0.244304
0.242923
0.241878
0.241043
0.24038
0.23988
0.239544
0.239364
0.239387
0.239599
0.240046
0.240596
0.240856
0.240766
0.240245
0.239337
0.238227
0.237132
0.236279
0.235698
0.235164
0.234835
0.234866
0.235219
0.23594
0.237122
0.238748
0.240602
0.242195
0.243137
0.24344
0.243443
0.243077
0.242862
0.242456
0.242155
0.241859
0.241565
0.241941
0.242334
0.242806
0.243462
0.244169
0.245186
0.246122
0.246892
0.247788
0.248015
0.248488
0.248446
0.248015
0.2472
0.246023
0.244423
0.242794
0.241019
0.239319
0.237673
0.236096
0.234645
0.233229
0.231927
0.23076
0.229604
0.228551
0.227664
0.226898
0.226363
0.225872
0.225155
0.224824
0.224489
0.22474
0.30508
0.308752
0.309498
0.306776
0.301091
0.294152
0.286964
0.280129
0.274005
0.268716
0.264336
0.260687
0.257555
0.255004
0.252882
0.251285
0.250022
0.249006
0.248205
0.24763
0.247341
0.24735
0.247759
0.24865
0.249657
0.250151
0.250089
0.249508
0.248431
0.247129
0.245712
0.244579
0.243793
0.243152
0.242687
0.242704
0.243452
0.244903
0.247078
0.249966
0.253272
0.256266
0.258033
0.258624
0.258775
0.258738
0.258483
0.258134
0.257855
0.257426
0.256932
0.257993
0.25906
0.260206
0.261779
0.263529
0.266585
0.269378
0.271653
0.274705
0.275932
0.277586
0.278172
0.277315
0.275209
0.272105
0.267912
0.26364
0.259085
0.254877
0.250994
0.247464
0.244421
0.241722
0.239447
0.237447
0.235658
0.234058
0.232657
0.231564
0.230828
0.230062
0.229061
0.22887
0.228743
0.229174
0.366636
0.383158
0.389518
0.382427
0.367484
0.349675
0.331803
0.315516
0.301671
0.290495
0.281933
0.275334
0.270049
0.265942
0.26263
0.260163
0.258247
0.256739
0.255536
0.254606
0.2541
0.25414
0.25477
0.256215
0.257849
0.258923
0.258882
0.258186
0.256825
0.255079
0.253278
0.25183
0.250603
0.2497
0.249344
0.249439
0.250425
0.252464
0.255518
0.259589
0.264413
0.269045
0.27215
0.273701
0.274715
0.275396
0.275577
0.275412
0.275278
0.274625
0.273815
0.275972
0.278286
0.280871
0.284597
0.289262
0.297436
0.305931
0.314124
0.324922
0.331241
0.337085
0.339144
0.337403
0.332438
0.32501
0.314751
0.304218
0.292967
0.282549
0.273018
0.264508
0.257472
0.251783
0.247574
0.244195
0.241445
0.238894
0.237026
0.235432
0.234415
0.233457
0.232326
0.232178
0.232267
0.232917
0.450929
0.482023
0.492492
0.47913
0.45091
0.417693
0.384946
0.355721
0.331426
0.312391
0.29841
0.288224
0.280538
0.274836
0.270359
0.267058
0.264525
0.262557
0.261015
0.259885
0.259232
0.259337
0.260262
0.262168
0.264453
0.266017
0.266473
0.265552
0.263696
0.261272
0.25881
0.256712
0.255051
0.2538
0.253398
0.253815
0.255176
0.257653
0.261436
0.266711
0.273377
0.280181
0.285529
0.289026
0.29179
0.293824
0.29483
0.295269
0.295754
0.294901
0.293534
0.297019
0.301251
0.306055
0.313179
0.32231
0.337776
0.353827
0.369238
0.388303
0.399596
0.409525
0.413192
0.410599
0.402294
0.389839
0.372486
0.354422
0.335084
0.31694
0.300133
0.284885
0.272057
0.261896
0.254713
0.249629
0.245716
0.242498
0.239921
0.238001
0.236768
0.23554
0.234341
0.234385
0.234603
0.235565
0.594704
0.644007
0.660096
0.636403
0.584599
0.524831
0.467197
0.417016
0.376117
0.344516
0.321554
0.305258
0.293502
0.285311
0.279264
0.274978
0.271779
0.269336
0.267409
0.266033
0.265338
0.265545
0.266752
0.269046
0.271681
0.274046
0.274558
0.273402
0.271134
0.268467
0.265699
0.263335
0.2614
0.259856
0.259073
0.259343
0.260945
0.264121
0.269269
0.276816
0.286907
0.298327
0.30854
0.316094
0.322258
0.32673
0.328994
0.330398
0.332039
0.331087
0.329207
0.335121
0.342488
0.351101
0.363801
0.379187
0.404017
0.428388
0.451303
0.47857
0.494841
0.509756
0.515669
0.512571
0.499706
0.480802
0.454078
0.425885
0.395575
0.367105
0.340559
0.316027
0.294831
0.277539
0.265303
0.257031
0.251349
0.247089
0.24377
0.241306
0.239734
0.23821
0.236843
0.237085
0.237667
0.239289
0.849107
0.944678
0.980759
0.933781
0.832507
0.719122
0.61268
0.523192
0.452864
0.399658
0.361111
0.333752
0.314126
0.300727
0.291291
0.285009
0.280653
0.277518
0.275155
0.273537
0.272739
0.273101
0.274701
0.277857
0.282211
0.285487
0.28629
0.28521
0.282254
0.278413
0.274451
0.271226
0.268737
0.266903
0.266089
0.266424
0.268481
0.272855
0.280342
0.291913
0.308052
0.32749
0.345819
0.359692
0.370855
0.3787
0.38286
0.385992
0.389824
0.388986
0.386457
0.395146
0.406849
0.420622
0.439993
0.463457
0.500693
0.537518
0.573689
0.616563
0.644475
0.670261
0.679914
0.67692
0.656188
0.627059
0.585107
0.540189
0.492093
0.446919
0.405308
0.366651
0.332728
0.304061
0.282959
0.268558
0.259085
0.252628
0.248287
0.245235
0.243412
0.241654
0.240363
0.240798
0.242047
0.244896
1.39624
1.59162
1.64199
1.51994
1.29763
1.07033
0.866442
0.701487
0.578071
0.488418
0.424686
0.379864
0.347579
0.325251
0.309447
0.299074
0.292268
0.287806
0.284715
0.28272
0.281884
0.282656
0.285281
0.290159
0.296267
0.301268
0.30419
0.303634
0.29928
0.292815
0.286251
0.280863
0.277086
0.274575
0.273688
0.274751
0.278188
0.284891
0.296508
0.314976
0.341026
0.372112
0.401444
0.424283
0.442629
0.455341
0.462506
0.467928
0.474383
0.474409
0.471937
0.485129
0.502876
0.524396
0.553622
0.589068
0.645588
0.70233
0.76011
0.825968
0.871571
0.914353
0.929063
0.928752
0.896099
0.852458
0.787615
0.71435
0.637276
0.565846
0.501292
0.442183
0.390556
0.34621
0.312487
0.288575
0.272557
0.262003
0.254984
0.250639
0.248154
0.246118
0.24485
0.246015
0.248235
0.253424
3.25505
3.94104
3.76956
3.03663
2.2704
1.7454
1.33298
1.01696
0.791401
0.63555
0.527394
0.453687
0.401459
0.365175
0.338906
0.321118
0.309396
0.302036
0.297517
0.294955
0.29416
0.295766
0.300314
0.30801
0.317159
0.326659
0.332244
0.332233
0.326122
0.316343
0.306223
0.297857
0.291606
0.28737
0.285415
0.286659
0.292013
0.302706
0.321067
0.350192
0.390433
0.436936
0.480481
0.515747
0.545032
0.565916
0.578681
0.58779
0.596947
0.598692
0.596818
0.615966
0.642092
0.674417
0.716866
0.7695
0.852347
0.937515
1.02695
1.12745
1.20351
1.27688
1.30296
1.31327
1.26463
1.20401
1.10921
0.99018
0.864978
0.747524
0.64526
0.55347
0.475376
0.408216
0.356421
0.318873
0.293297
0.276414
0.265382
0.258821
0.255172
0.25268
0.251382
0.253599
0.257648
0.266667
7.63477
10.0323
10.6767
7.83144
5.02602
3.27318
2.20738
1.58721
1.16343
0.885633
0.695568
0.570867
0.485805
0.428064
0.386302
0.357409
0.3377
0.325144
0.317549
0.313593
0.312645
0.315668
0.323291
0.335556
0.351565
0.367963
0.377247
0.376819
0.366844
0.351158
0.334783
0.32134
0.311653
0.305458
0.302901
0.304854
0.313017
0.329496
0.357523
0.401024
0.459157
0.524904
0.587365
0.641369
0.687124
0.719987
0.740366
0.75463
0.766971
0.773398
0.773708
0.803862
0.843119
0.890902
0.951285
1.03036
1.15049
1.28264
1.42606
1.58762
1.72236
1.84944
1.89985
1.9245
1.84703
1.75872
1.61969
1.42562
1.22309
1.02775
0.863859
0.718384
0.599808
0.499718
0.42242
0.365232
0.325441
0.298437
0.28094
0.270595
0.265163
0.262053
0.261145
0.264979
0.27188
0.286721
22.2333
30.8576
29.2234
21.6079
14.9044
8.06658
4.3385
2.7008
1.84509
1.33809
0.98809
0.767999
0.623127
0.527697
0.460309
0.413971
0.382197
0.362101
0.350428
0.34469
0.34373
0.349076
0.36179
0.382122
0.409563
0.436422
0.450514
0.449456
0.432833
0.407251
0.380482
0.357935
0.3416
0.331598
0.328199
0.332067
0.344954
0.369834
0.411137
0.473183
0.553567
0.643026
0.729874
0.808969
0.876108
0.923582
0.953605
0.974646
0.989839
1.00729
1.01555
1.06689
1.13125
1.20722
1.30358
1.4369
1.63883
1.87805
2.15034
2.45269
2.70618
2.90984
2.98278
2.98275
2.83845
2.67821
2.47929
2.16817
1.82412
1.48395
1.216
0.972355
0.785636
0.633565
0.518927
0.434801
0.375744
0.334693
0.307601
0.29106
0.281972
0.27756
0.277005
0.283577
0.294489
0.318099
43.938
79.5116
175.709
59.482
50.3227
27.674
13.5868
5.88355
3.24361
2.17664
1.51563
1.11095
0.855204
0.694186
0.582193
0.504806
0.452077
0.41977
0.402419
0.394882
0.394597
0.404057
0.425362
0.459752
0.50572
0.549166
0.57155
0.56926
0.5387
0.495579
0.45369
0.417981
0.390868
0.373532
0.36714
0.372493
0.391802
0.428318
0.486686
0.571241
0.677425
0.793596
0.909699
1.02082
1.12067
1.19795
1.25594
1.30214
1.3327
1.36655
1.39349
1.48622
1.60926
1.75811
1.96074
2.24608
2.65097
3.23025
4.1288
5.37922
6.53488
7.40972
7.46827
6.76461
5.69212
4.70377
4.03692
3.46533
2.85253
2.27017
1.81974
1.38435
1.07967
0.836738
0.660439
0.535101
0.448188
0.387647
0.347608
0.322902
0.309089
0.30249
0.30226
0.312735
0.329359
0.365242
33.6911
30.7052
24.4517
32.5246
89.9822
54.1984
51.1595
22.9443
8.58499
4.03321
2.48786
1.72284
1.23031
0.959385
0.78313
0.655733
0.561942
0.507568
0.480194
0.470119
0.471614
0.488894
0.52599
0.58557
0.663184
0.736192
0.783905
0.78285
0.716197
0.630549
0.556495
0.501173
0.461028
0.434239
0.423264
0.429621
0.456432
0.507089
0.585028
0.693412
0.826687
0.976083
1.13367
1.29813
1.46237
1.60164
1.70633
1.78798
1.85218
1.92634
1.99813
2.15347
2.35336
2.57961
2.88672
3.37418
4.00727
4.81411
6.81067
9.20434
9.62372
10.5133
11.2906
12.1415
12.6986
13.0839
10.8815
7.36639
4.88983
3.62068
2.8458
2.05152
1.55139
1.14996
0.869599
0.679531
0.552372
0.464156
0.405099
0.368453
0.348447
0.339209
0.339546
0.355493
0.380365
0.43311
16.5525
11.468
10.2702
11.9143
17.6701
33.8861
114.383
59.1667
35.4976
13.6714
5.16917
3.03282
1.84997
1.36622
1.119
0.934377
0.752915
0.652175
0.606489
0.590906
0.595053
0.626467
0.693263
0.80052
0.93853
1.07322
1.19883
1.20909
1.05235
0.869225
0.717019
0.615427
0.55336
0.515271
0.498864
0.505765
0.540345
0.606085
0.70436
0.839687
1.01352
1.21795
1.44882
1.70361
1.94891
2.17828
2.50678
2.85023
3.03247
3.07633
3.18558
3.41278
3.74488
3.90293
4.01531
4.58083
6.83248
8.13942
9.6155
10.9294
11.8561
12.7781
12.7321
13.8915
14.715
16.7617
18.2519
17.8089
14.9461
8.03761
4.80957
3.12145
2.33974
1.6469
1.18648
0.883791
0.695179
0.571343
0.487904
0.434964
0.406321
0.393618
0.394815
0.418353
0.455441
0.532304
7.8258
5.43327
4.75492
4.9837
6.37989
9.75239
18.7983
57.4186
67.7661
40.9642
23.901
9.16733
3.45931
1.97479
1.73242
1.55687
1.13385
0.891917
0.810267
0.786972
0.800039
0.860097
0.98152
1.17013
1.40495
1.64251
2.02591
2.06538
1.68723
1.31737
1.00739
0.793287
0.676563
0.617185
0.593176
0.60031
0.642652
0.724119
0.847984
1.0298
1.27874
1.58488
1.91378
2.2183
2.48962
2.73431
3.2809
4.00353
4.60759
4.91302
5.14964
5.3651
7.47289
7.11158
6.74208
7.14707
7.99141
8.93797
9.49349
9.90451
10.5475
11.2151
11.9957
14.482
16.9774
19.7946
21.0945
22.0067
24.4323
24.6701
13.8255
5.58726
3.69689
2.45241
1.70489
1.19957
0.893349
0.712956
0.599434
0.527544
0.488914
0.472474
0.475379
0.50932
0.564258
0.67742
4.04649
2.88082
2.48989
2.46055
2.8762
3.85159
5.91412
11.247
28.1166
68.8178
40.2671
50.8016
25.7609
3.10328
2.99318
3.24903
2.19365
1.34416
1.12436
1.08762
1.11189
1.20929
1.4005
1.69558
2.07546
2.50938
3.70713
3.70331
2.77863
2.1056
1.5555
1.12352
0.869456
0.750504
0.708885
0.715111
0.766813
0.872252
1.04514
1.31819
1.72289
2.17323
2.44214
2.71938
3.26445
3.7139
4.3589
5.00723
5.66737
6.27651
6.71571
6.82945
7.0291
7.12942
7.47305
7.85209
8.37372
8.71021
8.50104
8.06133
7.32498
7.04893
7.60445
8.20732
9.60755
13.0585
18.0972
22.8776
30.8976
42.4675
32.5467
19.4315
7.69905
3.70836
2.56642
1.72653
1.2057
0.908663
0.74416
0.64882
0.599974
0.581573
0.588555
0.637783
0.721555
0.8958
2.23224
1.63932
1.43062
1.39704
1.55012
1.90532
2.51772
3.68705
6.73377
14.858
40.8629
75.9724
143.637
10.7967
6.5698
7.74552
5.53227
2.80628
1.64753
1.49482
1.5409
1.71662
2.0523
2.62859
3.56774
5.1013
9.10597
7.52669
4.52383
3.28855
2.45879
1.75358
1.2427
0.975756
0.875727
0.872568
0.940525
1.09619
1.3669
1.84794
2.57146
2.94567
5.52625
4.2834
4.26166
5.05746
5.70574
6.11542
6.38
6.63179
6.96173
7.38618
7.78793
7.99921
7.93202
7.5547
7.06129
6.04369
4.71911
4.09636
3.69598
3.59666
3.82751
4.28202
5.17803
6.68783
9.88908
12.483
21.1832
66.486
51.7564
36.8091
24.3347
7.38463
4.20912
2.5689
1.74058
1.22303
0.945351
0.805881
0.743969
0.727328
0.745284
0.822666
0.961117
1.25099
1.3611
1.07602
0.970986
0.95099
1.01361
1.17215
1.42547
1.82769
2.75012
5.4533
23.6973
66.5551
145.794
22.612
17.7656
17.8396
14.7179
9.49675
3.72043
2.32345
2.32639
2.58397
3.09337
4.15104
6.32722
12.6919
23.0887
25.8995
11.8401
5.34837
3.67004
2.7416
1.94826
1.41023
1.17892
1.14378
1.23529
1.48384
1.97385
2.8835
4.24238
24.3326
6.47289
5.14663
5.99102
6.57124
6.90216
7.07736
7.11092
7.13392
7.16009
7.25914
7.30741
6.96062
6.22409
4.83029
3.69001
3.0019
2.5086
2.38648
2.26945
2.18848
2.2576
2.44293
2.93753
3.55764
4.35127
5.80925
8.71351
12.5262
39.2472
53.2571
32.0874
30.135
11.9336
3.87109
2.59093
1.77765
1.28384
1.04108
0.945669
0.93142
0.974943
1.10928
1.35469
1.86885
0.951606
0.810791
0.754414
0.742196
0.775259
0.866344
1.00651
1.201
1.4957
2.09539
8.05385
5.85227
8.90639
20.5196
17.997
21.0703
27.4592
38.3298
32.6794
4.91039
3.65838
3.80753
4.44131
6.82781
25.15
49.4915
163.463
61.4959
33.8321
17.8354
5.96371
3.94362
3.06515
2.20748
1.73647
1.63396
1.76519
2.20547
3.12461
4.80365
21.5882
46.0419
5.36562
5.73873
5.89016
5.70095
5.28658
4.87781
4.62635
4.68181
4.77137
4.68069
4.38117
3.86351
3.26539
2.5089
2.04553
1.90484
1.67649
1.66147
1.57495
1.52911
1.58474
1.69265
1.9754
2.27834
2.62397
3.10534
3.92437
4.82525
8.55721
18.4689
29.782
48.695
74.6084
6.94791
3.75673
2.66842
1.88273
1.45149
1.28003
1.25902
1.34687
1.58511
2.05025
2.96828
0.741269
0.660135
0.621323
0.609767
0.631053
0.694377
0.791631
0.916042
1.10221
1.43951
2.01087
2.75401
3.8489
7.90519
9.75028
14.6176
26.9024
59.5319
694.294
67.341
8.71562
6.93802
10.1527
14.8417
23.5887
19.3171
18.2147
57.0264
50.078
52.7755
30.9804
5.74869
4.26154
3.51633
2.74731
2.51412
2.72129
3.49042
4.94701
7.34631
71.9809
15.8203
5.18423
5.07115
4.28302
3.42535
2.78476
2.50885
2.40454
2.46202
2.50551
2.45861
2.31313
2.10587
1.92466
1.63193
1.39557
1.35302
1.20296
1.18577
1.14139
1.13955
1.19495
1.2775
1.43362
1.60249
1.81212
2.09004
2.54145
3.02714
4.95209
7.1646
12.9478
36.5141
93.13
36.9111
5.69683
3.8607
2.85526
2.16256
1.85354
1.81208
1.97382
2.42284
3.27682
4.92212
0.608646
0.552414
0.522122
0.511766
0.525872
0.570974
0.640518
0.724324
0.844558
1.05745
1.39449
1.8024
2.33473
3.16976
4.3512
6.58764
11.7626
23.3762
47.9991
83.3631
314.53
14.4857
10.4875
13.2353
11.9099
7.00568
7.46797
9.36278
21.1509
87.4041
91.1283
21.3738
5.79421
4.79463
4.32108
4.00996
4.28456
5.27479
6.86931
57.6814
53.0544
6.23233
4.52816
3.5633
2.62072
2.11479
1.78767
1.67759
1.57108
1.58925
1.59584
1.55839
1.48673
1.3921
1.32189
1.1667
1.02487
0.985141
0.902248
0.875902
0.86361
0.875384
0.917418
0.978139
1.06355
1.16646
1.30058
1.46378
1.71111
2.05665
2.99433
3.94126
6.30854
15.8172
85.9631
69.9038
15.9221
5.75035
4.19185
3.31236
2.82353
2.75818
3.05914
3.81628
5.26327
11.4972
0.512406
0.469596
0.445348
0.436891
0.446792
0.479596
0.530128
0.590303
0.673752
0.815924
1.03158
1.2766
1.5714
1.9857
2.49284
3.38587
5.42289
8.78537
12.5655
16.004
16.8192
8.88652
8.88839
7.79623
5.35161
4.53047
5.239
6.37713
8.04764
14.7877
56.4088
71.9674
15.3234
6.11082
5.60576
5.6365
5.88646
6.69484
42.4541
80.7261
19.705
4.34108
3.26653
2.27718
1.74878
1.44207
1.27054
1.23513
1.18943
1.18019
1.17566
1.1438
1.09593
1.03687
0.988667
0.884891
0.791374
0.752868
0.695651
0.671818
0.665799
0.678425
0.711475
0.758005
0.814527
0.886105
0.977209
1.07742
1.21893
1.47082
1.9093
2.44199
3.44147
5.96657
51.4588
76.8033
25.985
15.8128
6.28275
4.9731
4.43509
4.35513
4.70142
5.62273
9.3805
70.4526
0.438563
0.40566
0.386763
0.38012
0.38735
0.410943
0.447594
0.491331
0.551409
0.651194
0.798163
0.957434
1.13723
1.38067
1.6339
1.96569
2.52517
3.27808
4.12447
4.97414
5.97585
6.08277
5.54126
4.36652
3.50638
3.3216
3.53063
4.09647
5.19738
7.12432
11.4854
19.2165
45.7137
26.3699
6.41286
6.06755
7.19941
26.74
108.985
44.8198
7.24685
3.16933
2.0876
1.54133
1.25031
1.09393
1.0115
0.999341
0.976569
0.946283
0.932266
0.89381
0.847409
0.793395
0.752241
0.671494
0.600952
0.570132
0.530961
0.513778
0.511249
0.521852
0.547265
0.582496
0.624913
0.678154
0.74555
0.816256
0.908755
1.08084
1.33376
1.7071
2.28279
3.25371
5.16368
9.42732
21.2378
43.3309
28.1132
7.39192
6.07739
5.81787
5.78646
9.26377
61.6836
70.829
0.382793
0.357917
0.343539
0.338559
0.343818
0.360785
0.387087
0.418684
0.461729
0.531655
0.632899
0.740206
0.856028
1.01745
1.18716
1.40183
1.74886
2.18835
2.6566
3.11384
3.63846
3.6573
3.23625
2.63547
2.22133
2.22315
2.47196
2.83609
3.59825
4.9481
7.40208
12.5614
23.0899
87.0275
126.534
51.051
54.4142
97.0549
87.0609
16.018
3.70266
2.10799
1.44118
1.16777
1.0067
0.904039
0.845029
0.822317
0.782782
0.741592
0.722688
0.681845
0.640087
0.593283
0.562714
0.508651
0.46266
0.444295
0.421514
0.411052
0.410339
0.418036
0.435405
0.459773
0.489388
0.526457
0.573517
0.622115
0.682359
0.800354
0.977644
1.22996
1.60543
2.23686
3.36304
5.72185
12.1396
39.93
361.828
36.8566
10.2658
9.50801
24.0824
62.8653
48.2281
34.4502
0.340667
0.322211
0.311556
0.30799
0.311894
0.324268
0.343314
0.366279
0.397267
0.446125
0.514989
0.586256
0.659703
0.763173
0.873262
1.00941
1.22589
1.48172
1.73278
1.95619
2.17133
2.16653
1.96085
1.65125
1.48575
1.58081
1.806
2.01824
2.50715
3.38646
4.83223
7.80298
14.2224
30.8782
123.185
140.628
110.051
82.6379
33.8183
6.49237
2.28097
1.46637
1.12551
0.964158
0.839704
0.739564
0.674356
0.634808
0.590744
0.556784
0.541854
0.511544
0.482761
0.452332
0.433234
0.402874
0.376416
0.367466
0.353903
0.347626
0.347527
0.352769
0.364405
0.380714
0.400653
0.425384
0.456938
0.48883
0.525643
0.599622
0.717777
0.891561
1.15242
1.55323
2.25995
3.63792
6.40091
11.9096
23.9539
55.6991
174.852
82.7449
68.241
41.6216
22.0511
9.74809
0.309316
0.295993
0.288253
0.285732
0.288666
0.297597
0.311458
0.328291
0.350746
0.384994
0.431759
0.478952
0.52509
0.588251
0.654165
0.734139
0.86396
1.01391
1.15241
1.26739
1.35961
1.34451
1.23955
1.08029
1.03715
1.16459
1.33459
1.48051
1.78287
2.3673
3.27597
5.08809
8.95068
17.6328
38.7072
63.5895
56.4031
35.8149
11.8904
3.12219
1.57165
1.14573
0.932848
0.795526
0.672235
0.562621
0.499993
0.471535
0.446398
0.426094
0.416876
0.399232
0.382329
0.365132
0.354069
0.338151
0.323325
0.319444
0.31124
0.307757
0.308091
0.31148
0.319239
0.330233
0.343629
0.359927
0.380803
0.401545
0.423981
0.468939
0.543745
0.65756
0.834063
1.1052
1.5304
2.33516
3.9441
6.98764
12.028
19.3832
28.6295
38.5967
30.974
17.0115
7.91377
3.28798
0.286573
0.277213
0.271677
0.26992
0.272034
0.278613
0.288799
0.301271
0.317716
0.342013
0.374114
0.405734
0.435136
0.472948
0.510411
0.553384
0.622574
0.704794
0.780961
0.839594
0.879529
0.866765
0.815344
0.74705
0.767658
0.903689
1.04558
1.14273
1.32839
1.68385
2.21743
3.23976
5.3562
9.30418
15.0654
21.1872
21.8798
13.4301
4.8533
1.85672
1.21024
0.94389
0.756992
0.620425
0.50404
0.424405
0.386185
0.371443
0.359385
0.348484
0.343113
0.333709
0.324169
0.315012
0.308641
0.299881
0.291931
0.289122
0.285204
0.282366
0.283222
0.284987
0.290061
0.297483
0.306437
0.317239
0.331237
0.345011
0.358761
0.385401
0.431458
0.502594
0.616655
0.793221
1.05759
1.51716
2.40181
4.02157
6.67016
10.2137
13.7669
15.6051
12.0581
6.77908
2.98898
1.67898
0.270089
0.263605
0.259625
0.258339
0.259906
0.26474
0.272337
0.281716
0.293931
0.311454
0.334011
0.35598
0.375576
0.39894
0.420298
0.442106
0.474246
0.512007
0.54773
0.576404
0.595501
0.588908
0.571061
0.553779
0.603971
0.735124
0.8569
0.917471
1.03529
1.25663
1.56158
2.09393
3.19991
5.28208
7.93202
10.0123
9.31864
5.52606
2.40537
1.33461
0.982555
0.759491
0.584443
0.471852
0.3916
0.343708
0.323104
0.315859
0.309973
0.304029
0.30067
0.295181
0.289473
0.284043
0.280162
0.274978
0.270309
0.268945
0.266762
0.264757
0.265331
0.266738
0.269882
0.275125
0.281185
0.288594
0.298186
0.307811
0.31661
0.332618
0.361258
0.405786
0.476599
0.586094
0.74412
1.00796
1.4894
2.33684
3.70625
5.40476
6.75857
6.77222
4.87839
2.74307
1.46524
1.17051
0.258255
0.253841
0.250937
0.249985
0.251059
0.254636
0.26038
0.267548
0.27677
0.289649
0.305916
0.321746
0.33551
0.350791
0.363798
0.374931
0.388352
0.40308
0.416243
0.426767