/*--------------------------------*- C++ -*----------------------------------*\
| =========                 |                                                 |
| \\      /  F ield         | OpenFOAM: The Open Source CFD Toolbox           |
|  \\    /   O peration     | Version:  v1912                                 |
|   \\  /    A nd           | Website:  www.openfoam.com                      |
|    \\/     M anipulation  |                                                 |
\*---------------------------------------------------------------------------*/
FoamFile
{
    version     2.0;
    format      ascii;
    class       volScalarField;
    location    "60";
    object      p_rgh;
}
// * * * * * * * * * * * * * * * * * * * * * * * * * * * * * * * * * * * * * //

dimensions      [1 -1 -2 0 0 0 0];


internalField   nonuniform List<scalar> 
14268
(
-9837.32
-10529.1
-10889.8
-10919.9
-10659.7
-10122.3
-9342.59
-8371.31
-7255.48
-6040.1
-4765.66
-3470.04
-2188.15
-953.492
213.348
1290.74
2251.16
3080.88
3774.48
4332.97
4764.28
5087.9
5331.25
5531.65
5727.83
5950.31
6223.75
6563.84
6967.87
7415.25
7869.96
8285.19
8608.78
8791.22
8791.5
8591.93
8174.02
7538.22
6700.82
5694.45
4565.34
3368.61
2156.67
970.959
-147.611
-1180.34
-2113.61
-2951.5
-3704.82
-4388.69
-5021.56
-5616.15
-6184.84
-6734.38
-7262.84
-7764.98
-8225.86
-8627.24
-8950.52
-9172.05
-9273.05
-9234.18
-9045.93
-8696.83
-8183.3
-7503.93
-6662.08
-5662.64
-4517.85
-3244.65
-1866.95
-416.946
1075.04
2606.7
4088.79
5475.24
6724.79
7797.77
8664.71
9299.02
9682.32
9803.51
9687.14
9337.67
8786.96
8066.32
-9879.12
-10574.5
-10936.2
-10966.5
-10702.3
-10159.6
-9374.12
-8397.75
-7276.67
-6055.99
-4776.27
-3475.5
-2188.72
-949.347
221.881
1303.14
2266.97
3098.65
3792.84
4350.46
4779.41
5099.33
5337.91
5533.04
5724.35
5943.25
6214.68
6555.01
6961.64
7413.78
7874.83
8297.26
8628
8816.61
8822.8
8623.53
8204.91
7565.87
6723
5709.55
4572.72
3368.59
2150.25
959.65
-161.866
-1195.65
-2128.46
-2964.7
-3715.67
-4397.02
-5027.62
-5620.55
-6188.38
-6738.02
-7267.5
-7771.47
-8234.81
-8638.89
-8965.08
-9189.21
-9292.46
-9255.76
-9068.91
-8720.69
-8207.66
-7528.39
-6686.21
-5685.91
-4539.62
-3264.12
-1883.18
-429.033
1068.12
2606.14
4095.07
5488.68
6745.21
7824.39
8696.32
9333.99
9718.68
9839.88
9719.79
9364.92
8806.38
8075.04
-9969.58
-10668.5
-11028.4
-11052.8
-10782.4
-10230.6
-9434.08
-8446.23
-7314.25
-6083.06
-4793.18
-3482.66
-2186.71
-938.525
240.885
1329.39
2299.46
3134.62
3829.84
4385.7
4809.87
5122.28
5351.22
5535.63
5716.43
5928.68
6196.08
6536.87
6948.75
7410.29
7884.3
8321.25
8666.33
8867.09
8879.68
8683.74
8264.22
7618.82
6764.92
5737.28
4584.99
3366.19
2135.24
935.205
-191.822
-1227.37
-2158.95
-2991.65
-3737.76
-4413.96
-5040
-5629.56
-6195.64
-6745.48
-7277.01
-7784.66
-8252.89
-8662.39
-8994.38
-9223.69
-9331.42
-9300.15
-9115.24
-8768.67
-8256.61
-7577.53
-6734.7
-5732.68
-4583.4
-3303.3
-1915.9
-453.438
1054.07
2604.86
4107.48
5515.47
6786.01
7877.65
8759.6
9404
9791.36
9909.78
9785.31
9420.97
8849.24
8100.01
-10107.4
-10812.1
-11169.5
-11187.6
-10905.2
-10338.2
-9524.28
-8519.24
-7371.06
-6124.12
-4818.93
-3493.67
-2183.85
-922.13
269.532
1369.21
2348.66
3188.97
3885.79
4439.05
4856.03
5157.12
5371.61
5539.59
5705.95
5906.29
6167.74
6509.09
6928.85
7404.85
7898.32
8357.35
8724.33
8943.9
8972.35
8776.89
8355.66
7700.09
6828.99
5779.37
4603.34
3362.19
2112.25
897.728
-237.422
-1275.48
-2205.07
-3032.27
-3770.87
-4439.14
-5058.16
-5642.59
-6206.04
-6756.23
-7290.93
-7804.2
-8279.86
-8697.58
-9038.34
-9275.45
-9389.67
-9365.77
-9184.48
-8840.55
-8330.01
-7651.27
-6807.52
-5802.98
-4649.29
-3362.36
-1965.32
-490.452
1032.56
2602.59
4125.88
5555.59
6847.33
7957.88
8855.07
9509.73
9901.35
10017.9
9884.66
9505.43
8913.11
8139.4
-10294
-11005.7
-11357.8
-11365
-11067.2
-10479.8
-9643.83
-8615.88
-7445.78
-6177.76
-4852.25
-3507.47
-2179.25
-899.982
308.201
1423.3
2414.69
3262.14
3961.23
4511.07
4918.37
5203.99
5399.2
5544.25
5687.87
5874.22
6128.19
6470.13
6900.63
7396.52
7916.18
8405.19
8801.86
9046.69
9093.65
8900.97
8478.8
7809.49
6914.98
5835.49
4627.22
3355.84
2080.44
846.059
-299.625
-1340.74
-2267.36
-3086.89
-3815.21
-4472.66
-5082.15
-5659.61
-6219.49
-6770.1
-7309.06
-7829.95
-8315.69
-8744.56
-9097.21
-9344.85
-9467.4
-9455.73
-9277.56
-8937.05
-8428.5
-7750.19
-6905.25
-5897.43
-4737.95
-3442
-2032.14
-540.795
1003
2598.88
4149.85
5608.77
6929.08
8065.17
8982.96
9651.53
10048.9
10161.5
10017.3
9618.43
8998.92
8194.43
-10531.8
-11252.2
-11596.8
-11591.3
-11272.4
-10658
-9793.48
-8736.73
-7539.19
-6244.77
-4893.83
-3524.59
-2173.25
-872.17
357.151
1491.85
2498.08
3354.73
4056.9
4602.57
4997.73
5263.63
5434.05
5550.38
5667.33
5832.45
6076.73
6419.06
6863.07
7383.97
7937.47
8464.93
8899.76
9176.83
9247.85
9061.03
8635.32
7948.21
7023.61
5905.82
4656.29
3346.36
2039.16
778.833
-379.395
-1423.93
-2346.43
-3155.81
-3870.71
-4514.13
-5111.31
-5679.78
-6235.11
-6786.29
-7330.81
-7861.52
-8360.13
-8803.25
-9171
-9432.05
-9566.69
-9566.18
-9393.7
-9057.9
-8551.96
-7874.28
-7027.98
-6016.22
-4849.71
-3542.65
-2116.89
-605.173
964.697
2593.19
4179.02
5674.88
7031.49
8200.09
9144.16
9830.52
10235.3
10344
10185.5
9762.02
9108.96
8264.36
-10822.7
-11553.3
-11886.8
-11864.2
-11519.6
-10872.3
-9973.09
-8881.78
-7651.06
-6324.87
-4943.44
-3544.91
-2165.84
-838.758
416.672
1575.14
2599.38
3467.46
4173.65
4714.53
5095.06
5337.4
5475.44
5557.15
5640.38
5778.81
6011.38
6353.6
6814.19
7366.03
7961.27
8536.18
9018.19
9335.15
9432.99
9258.67
8827.02
8117.51
7155.56
5990.29
4689.73
3332.38
1987.1
693.964
-478.201
-1526.28
-2443.16
-3239.51
-3937.63
-4563.5
-5145.33
-5702.73
-6252.43
-6804.33
-7355.73
-7898.58
-8413.03
-8873.77
-9260.04
-9537.76
-9688.35
-9699.54
-9534.25
-9204.04
-8701.18
-8024.28
-7176.44
-6160.17
-4985.47
-3665.34
-2220.55
-684.744
916.7
2584.79
4212.7
5753.51
7154.44
8362.9
9339.26
10047.6
10461.5
10565.4
10389.6
9935.97
9241.79
8349.55
-11170.5
-11912.9
-12231
-12187.7
-11811.2
-11124.1
-10183.4
-9051.27
-7781.6
-6418.24
-5001.25
-3568.52
-2157.04
-799.844
487.329
1673.41
2719.26
3601.25
4312.66
4848.2
5211.43
5426.51
5524.73
5564.55
5606.76
5713.01
5929.25
6271.7
6752.09
7341.08
7986.66
8618.89
9157.97
9523.32
9654.47
9493.73
9055.51
8318.91
7311.73
6088.96
4726.76
3312.14
1918.07
594.112
-597.533
-1649.13
-2558.55
-3338.51
-4015.9
-4620.35
-5183.38
-5727.36
-6270.38
-6823.2
-7383.03
-7940.62
-8474.1
-8956.07
-9364.43
-9662.05
-9830.61
-9855.83
-9699
-9375.52
-8876.33
-8200.42
-7351
-6329.8
-5145.94
-3810.92
-2344.02
-780.608
857.66
2572.87
4250.14
5844.3
7298.1
8554.2
9569.33
10304
10729.2
10827.3
10631.2
10141.7
9399.13
8450.13
-11578.5
-12335
-12630.1
-12562.3
-12147.9
-11414
-10424.7
-9245.37
-7930.86
-6524.89
-5067.29
-3595.52
-2146.92
-756.041
569.972
1786.97
2858.34
3757.1
4475.14
5005.07
5347.99
5531.21
5582.8
5572.14
5564.91
5632.98
5827.47
6170.37
6674
7307.02
8012.34
8712.62
9319.71
9742.8
9910.65
9769.37
9322.69
8554.23
7493.15
6201.78
4766.26
3283.79
1832.89
473.734
-739.722
-1794.25
-2693.87
-3453.41
-4105.85
-4684.35
-5225.03
-5753.03
-6288.01
-6841.91
-7411.91
-7987.1
-8543.1
-9050.32
-9484.51
-9805.47
-9994.38
-10038.2
-9888.84
-9573.22
-9078.15
-8403.39
-7552.39
-6526
-5332.2
-3980.75
-2489.1
-893.523
786.379
2555.54
4290.54
5946.73
7462.36
8774.6
9835.44
10601.4
11039.9
11131.9
10911.5
10380.1
9581.24
8565.7
-12051.5
-12826.2
-13084.8
-12991.4
-12531.6
-11743
-10697.5
-9464.28
-8098.9
-6644.84
-5141.6
-3625.97
-2135.32
-705.507
663.349
1916.13
3017.08
3936.29
4662.69
5187.09
5508.7
5651.07
5650.23
5579.64
5513.72
5535.82
5703.81
6046.48
6577.05
7261.42
8036.83
8817.11
9504.32
9996.12
10213.3
10090.2
9630.51
8825.54
7701.02
6328.71
4806.88
3245.15
1729.41
329.603
-907.82
-1963.54
-2850.52
-3584.97
-4207.3
-4754.97
-5268.96
-5778.13
-6303.91
-6859.21
-7441.36
-8037.37
-8619.7
-9156.51
-9620.54
-9968.51
-10180
-10225.5
-10103.9
-9797.66
-9307.15
-8633.78
-7781.29
-6749.67
-5545.39
-4176.16
-2657.25
-1025.36
701.356
2531.47
4332.69
6060.09
7647.2
9024.64
10138.8
10941.4
11395.5
11481.1
11232.5
10652.5
9788.95
8696.61
-12593.6
-13391.5
-13600.4
-13478.4
-12964.1
-12112
-11002.3
-9708.17
-8285.79
-6778.13
-5224.26
-3660.05
-2122.25
-646.789
766.218
2061.16
3195.73
4140.34
4876.87
5396.05
5695.68
5787.36
5727.17
5586.46
5450.9
5417.16
5554.09
5895.81
6456.97
7201.14
8058.17
8931.62
9712.34
10284.7
10559
10460.4
9981.53
9135.34
7936.6
6469.33
4846.83
3193.38
1604.59
157.196
-1103.94
-2159.54
-3030.18
-3733.91
-4320.7
-4831.66
-5314.59
-5801.63
-6316.99
-6873.64
-7470.29
-8090.68
-8703.59
-9274.95
-9773.03
-10152.2
-10390.6
-10459.3
-10347.1
-10049.9
-9564.1
-8892.24
-8038.35
-7001.8
-5786.75
-4398.84
-2850.32
-1178.09
600.691
2499.02
4375.16
6183.6
7852.38
9305.1
10480.8
11325.9
11798.4
11877.5
11596.1
10959.8
10022.7
8842.68
-13210.8
-14021.9
-14199.6
-14028.3
-13447.4
-12522
-11339.3
-9977.17
-8491.55
-6924.73
-5315.35
-3698.01
-2108.04
-581.335
880.254
2222.71
3394.75
4370.86
5119.7
5634.4
5909.32
5945.22
5815.15
5592.23
5375.22
5274.6
5374.77
5714.21
6310.16
7121.9
8073.94
9055.72
9945.01
10611.4
10953.2
10885.8
10378.6
9486.27
8201.53
6623.4
4884.04
3124.81
1453.39
-46.9482
-1330.76
-2384.52
-3234.93
-3901.3
-4445.62
-4913.7
-5360.04
-5821.58
-6324.03
-6883.48
-7497.46
-8146.27
-8794.58
-9405.7
-9942.38
-10357.4
-10626.8
-10718.5
-10618.9
-10330.7
-9849.62
-9179.48
-8324.43
-7283.51
-6057.75
-4650.54
-3070.54
-1353.84
482.209
2456.03
4416.15
6316.11
8077.7
9616.6
10863.1
11757.2
12251.1
12324.2
12004.6
11303.9
10283.3
9003.63
-13908
-14720.4
-14882
-14642.9
-13983
-12974.1
-11709.1
-10271.4
-8716.23
-7084.66
-5414.95
-3740.08
-2092.95
-509.625
1006.26
2399.45
3616.5
4629.37
5393.33
5909.48
6147.96
6125.38
5914.46
5596.5
5283.23
5103.43
5159.29
5494.69
6129.13
7020.57
8081.74
9188.03
10202.4
10977.4
11395.7
11371.5
10823.2
9882.19
8497.54
6790.18
4915.08
3034.96
1271.55
-287.303
-1595.07
-2645.09
-3465.45
-4086.44
-4582.72
-5000.29
-5404.31
-5835.9
-6324.39
-6887.3
-7521.56
-8203.52
-8892.59
-9549.26
-10129.5
-10585.2
-10889.5
-11005.8
-10920.9
-10641.3
-10164.7
-9496.41
-8640.22
-7596.05
-6359.99
-4933.34
-3320.77
-1555.11
343.523
2400.02
4453.51
6456.46
8322.42
9959.58
11287
12237.3
12755.6
12821.3
12459.9
11685.5
10571.1
9179.34
-14701.1
-15516.3
-15652.3
-15326
-14573.4
-13469.6
-12111.6
-10590.9
-8959.5
-7257.47
-5522.84
-3786.5
-2077.59
-432.475
1143.23
2592.68
3864
4915.19
5699.62
6224.79
6415.28
6331.28
6027.4
5598.1
5173.05
4899.73
4903.69
5230.86
5910.78
6892.83
8078.22
9327.98
10486.4
11386.9
11892.6
11914.6
11335.2
10327.8
8828.14
6970.24
4938.32
2919.11
1052.35
-569.269
-1900.61
-2942.66
-3721.87
-4293.43
-4729.97
-5090.29
-5444.99
-5842.82
-6316.16
-6881.12
-7540.84
-8260.66
-8997.07
-9705.53
-10334.5
-10836.7
-11179.2
-11322.5
-11252.4
-10981.7
-10509.4
-9843.13
-8986.11
-7940.57
-6694.91
-5248.99
-3604.07
-1784.78
182.362
2327.78
4484.92
6603.04
8586.53
10335.1
11754.8
12769.4
13315.7
13379.1
12967.1
12108.7
10887.5
9371.38
-15304.8
-16114.1
-16220.6
-15838
-15011
-13834.3
-12405.1
-10824.5
-9136.86
-7383.35
-5601.88
-3821.59
-2067.66
-376.823
1243.74
2736.23
4050.28
5127.5
5938.8
6458.53
6621.48
6489.74
6113.92
5596.53
5082.94
4734.64
4695.38
5016.35
5729.08
6782.04
8064.97
9426.64
10697
11695.2
12269.2
12321.8
11731.8
10664
9072.71
7094.71
4940.07
2815.39
872.379
-793.349
-2139.42
-3171
-3918.15
-4450.43
-4836.61
-5153.14
-5469.33
-5841.15
-6302.78
-6871.3
-7547.04
-8299.26
-9072.31
-9819.89
-10485.8
-11023.9
-11393.9
-11557.9
-11499.6
-11233.5
-10762.9
-10099.7
-9242.78
-8198.76
-6947.2
-5489.18
-3821.98
-1962.01
56.0551
2265.28
4499.88
6705.13
8777.67
10611.6
12102.6
13167.1
13733.9
13796.9
13346.6
12422.5
11118.1
9506.63
-15635.7
-16448.3
-16548.4
-16113.9
-15246.9
-14030.7
-12562.7
-10949.9
-9232
-7450.88
-5644.4
-3840.71
-2062.64
-347.098
1297.8
2813.68
4151.17
5242.04
6070.01
6584.61
6734.38
6576.5
6161.22
5595.1
5032.39
4642.89
4579
4896.37
5627.32
6719.21
8055.72
9478.85
10810.6
11862.5
12473.7
12543.4
11947.2
10846.3
9204.31
7160.14
4938.42
2756.21
771.885
-917.288
-2270.86
-3295.44
-4024.65
-4534.85
-4894.11
-5185.69
-5481.07
-5838.64
-6293.92
-6864.51
-7549.88
-8318.87
-9111.97
-9880.62
-10566.8
-11124.9
-11510
-11686.6
-11632.5
-11369
-10899.1
-10236.6
-9379.47
-8338.53
-7084.12
-5619.43
-3939.93
-2060.01
-13.5547
2229.7
4506.23
6758.89
8879.78
10760.4
12290.3
13382.2
13960.1
14022.9
13551.4
12591.8
11241.7
9578.3
-15979
-16788.6
-16863.9
-16401.5
-15490.3
-14232.5
-12724.5
-11078.6
-9329.34
-7519.9
-5687.88
-3860.44
-2057.7
-316.672
1353.36
2893.43
4255.4
5359.97
6206.4
6715.99
6852.35
6667.36
6210.62
5593.24
4979.33
4545.46
4455.72
4768.64
5519.7
6651.34
8043.85
9531.45
10927.7
12035.9
12686.5
12774.8
12171.3
11035
9340.55
7227.52
4935.36
2692.38
665.153
-1047.79
-2408.82
-3425.21
-4135.71
-4622.09
-4953.34
-5217.92
-5491.69
-5834.27
-6282.87
-6855.21
-7551.89
-8337.19
-9151.57
-9942.43
-10649.9
-11228.8
-11629
-11815.6
-11769.3
-11508.2
-11039.1
-10377
-9519.07
-8479.84
-7225.87
-5754.97
-4061.21
-2162.94
-86.8338
2191
4510.95
6812.77
8983.88
10913
12483.7
13604.5
14193.6
14257.5
13763.4
12766.5
11368.6
9651.74
-16336.8
-17149.5
-17223.1
-16696.1
-15738.4
-14440.1
-12890.3
-11211.2
-9428.98
-7590.4
-5732.41
-3880.91
-2053.02
-285.753
1410.25
2975.51
4360.9
5483.1
6348.42
6852.7
6975.32
6762.4
6262.23
5590.87
4922.37
4441.93
4324.91
4632.78
5404.51
6577.94
8029.07
9584.23
11047.9
12215.2
12907.3
13015.9
12405.2
11231.6
9483.04
7297.07
4930.2
2623.32
551.614
-1185.54
-2553.62
-3560.65
-4251.35
-4711.96
-5013.85
-5250.08
-5501.19
-5828.22
-6269.92
-6844.34
-7553.66
-8357.3
-9194.86
-10008.8
-10737.6
-11337.8
-11753.3
-11955.3
-11909.7
-11651.1
-11182.5
-10521.6
-9663.18
-8624.38
-7368.51
-5897.03
-4186.5
-2270
-163.877
2149
4514.03
6866.86
9090.16
11069.8
12683
13834.1
14434.5
14500.8
13983.4
12947.4
11500.5
9727.78
-16660
-17403.1
-17422.5
-16978
-16005.2
-14653.7
-13059.8
-11347.2
-9531.84
-7662.56
-5777.91
-3902.13
-2048.56
-254.213
1468.57
3059.67
4467.95
5611.94
6496.62
6995.06
7103.45
6861.77
6316.2
5587.8
4860.98
4331.91
4185.17
4487.7
5280.76
6498.48
8011.3
9637.36
11171.7
12400.8
13136.1
13265.9
12648.3
11435.2
9630.31
7367.12
4922.11
2548.77
430.978
-1330.9
-2705.46
-3702.14
-4371.34
-4804.34
-5075.97
-5282.67
-5509.63
-5820.25
-6254.67
-6830.94
-7552.19
-8375.15
-9235.2
-10072.3
-10823.9
-11446.9
-11877.5
-12088.7
-12053.4
-11797.1
-11328.9
-10669.5
-9810.43
-8774.83
-7514.68
-6037.55
-4319.09
-2381.11
-244.912
2103.27
4514.96
6920.77
9198.45
11230.8
12888.5
14071.3
14682.7
14752.7
14209.9
13133.8
11634.8
9804.74
-13585.9
-10884.7
-10725.8
-12606.4
-14352.9
-14712.2
-13231
-11484.6
-9637.81
-7737.69
-5824.9
-3924.22
-2044.52
-222.302
1528.15
3145.95
4578.39
5748.08
6646.13
7143.71
7236.8
6965.72
6372.45
5583.76
4796.26
4214.86
4037.56
4333.46
5148.71
6412.53
7989.87
9690.33
11298.9
12592.9
13373.9
13526.2
12901.4
11645.4
9782.8
7438.39
4910.79
2467.7
302.425
-1484.05
-2864.5
-3848.94
-4496.34
-4898.85
-5138.32
-5314.64
-5516.54
-5810.39
-6237.38
-6815.94
-7551.16
-8395.31
-9282.16
-10145.4
-10920.3
-11566.5
-12011.5
-12236.6
-12206.7
-11945.4
-11478.8
-10821
-9961.19
-8929.28
-7666.23
-6180.88
-4459.34
-2497.89
-329.806
2054.11
4513.84
6974.41
9308.44
11395.5
13099.8
14316.4
14938.4
15014.5
14443.8
13325.7
11772.4
9883.6
-2511.6
-1315.09
-1260.41
-2307.05
-5309.01
-9717.89
-12089.9
-11624.9
-9742.34
-7815.74
-5874.54
-3947.69
-2041.22
-190.004
1588.96
3234.22
4692.39
5891.96
6797.35
7299.87
7376.08
7074.62
6431.68
5579.77
4727.23
4090.73
3880.74
4169.89
5007.7
6319.81
7964.69
9743.08
11429.2
12791.4
13620.2
13797.2
13166.4
11863.6
9941.22
7509.59
4894.27
2380.05
166.122
-1644.45
-3029.4
-4000.49
-4625.66
-4996.67
-5202.45
-5347.04
-5522.31
-5798.61
-6217.86
-6798.82
-7547.92
-8413.05
-9322.98
-10206
-10991.5
-11630.5
-12039
-12221.8
-12187.2
-12042.1
-11633.1
-10977.5
-10115.5
-9085.54
-7821.72
-6334.26
-4597.95
-2620.53
-419.84
2000.98
4510.6
7027.99
9420.71
11564.6
13317.4
14569.5
15201.2
15285.5
14684.7
13522.8
11913.8
9963.68
-0.750271
4.01876
-10.2755
-51.7294
-253.912
-1264.52
-4842.98
-8922.33
-9583.72
-7893
-5926.9
-3973.32
-2037.98
-156.068
1653.44
3327.75
4814.03
6044.4
6959.29
7467.98
7525.58
7192.76
6496.12
5575.32
4650.55
3954.68
3708.11
3990.25
4852.1
6216.69
7934.81
9797.85
11567.9
13003.8
13884.3
14087.4
13452.7
12095.1
10108.3
7581.28
4873.41
2283.45
18.0086
-1817.1
-3209.56
-4166.53
-4763.06
-5098.02
-5266.57
-5376.74
-5523.53
-5780.22
-6189.9
-6769.44
-7522.28
-8378.98
-9214.87
-9816.58
-9887.17
-9194.64
-8249.24
-7710.21
-7733.48
-8235.57
-8962.25
-9437.23
-9630.15
-9212.03
-7985.98
-6499.47
-4746.9
-2747.56
-516.539
1942.21
4504.26
7082.4
9538.34
11743.7
13549.3
14840.5
15480.8
15578.2
14941.8
13733.2
12063.4
10047.1
30.8602
27.5195
23.3575
19.4167
12.8068
-13.61
-225.183
-1635.92
-5321.47
-7061.64
-5978.09
-3999.98
-2035.63
-119.969
1721.84
3426.88
4943.77
6207.46
7132.91
7650.85
7691.67
7321.78
6565.66
5568.47
4565.19
3804.62
3519.4
3792.44
4680.35
6101.34
7898.67
9853.6
11714.9
13231.1
14168.2
14398.8
13763.8
12340.3
10285.8
7657.43
4849.28
2174.81
-144.854
-2004.44
-3394.69
-4322.68
-4879.24
-5171.48
-5299.82
-5372.71
-5486.46
-5712.64
-6085.1
-6589.34
-7111.28
-7234.74
-6172.25
-4483.36
-2828.09
-1596.69
-1010.28
-749.392
-756.927
-999.593
-1630.32
-2822.51
-4471.4
-6220.54
-6965.98
-6581.55
-4908.36
-2884.94
-618.636
1878.51
4495.33
7137.99
9661.57
11933
13795.6
15130.5
15777.7
15895
15216.7
13957.5
12222.2
10134.8
30.5937
27.5257
23.7119
20.1972
17.0516
14.3528
7.18873
-29.026
-389.014
-2439.07
-4513.15
-3967.97
-2036.56
-85.1034
1791.74
3528.78
5078.26
6374.62
7315.54
7839.15
7853.96
7455.54
6636.97
5559.56
4474.43
3645.75
3319.29
3582.36
4497.48
5977.32
7857.3
9908.2
11865
13465.3
14461.6
14721.7
14091.2
12593.7
10469.5
7734.7
4815.44
2055.79
-309.709
-2169.4
-3478.81
-4214.79
-4530.89
-4642.33
-4682.42
-4709.42
-4734.87
-4738.54
-4594.35
-4040.07
-3095.56
-1894.61
-905.414
-326.333
-52.6609
-8.05633
-7.44348
-6.40506
-6.57908
-11.7493
-27.176
-71.4128
-216.925
-705.751
-2134.93
-3947.1
-4388.77
-3030.05
-726.387
1811.48
4483.57
7192.77
9786.91
12126.7
14049
15430.8
16081.1
16223.8
15499.1
14186.4
12383.4
10222.2
29.9982
26.9558
23.2764
20.1672
17.1318
14.3869
10.7543
8.76087
1.85145
-71.0573
-714.604
-2077.18
-1766.41
-54.5701
1859.91
3632.44
5218.61
6542.42
7511.68
8038.84
8094.69
7598.6
6714.25
5552.33
4379.24
3475.63
3103.46
3358.92
4302.95
5844.46
7810.44
9961.62
12018
13706.4
14764.4
15053.8
14433.7
12854.2
10653.8
7804.05
4773.75
1938
-425.394
-1924.1
-1988.18
-1597.53
-1313.74
-1177.51
-1146.27
-1151.21
-1113.01
-983.423
-741.982
-460.495
-191.669
-19.7654
7.13134
6.79059
8.0881
9.12678
9.20778
9.57261
9.76066
9.93469
9.90602
8.94962
6.28574
-1.67769
-44.6875
-292.904
-1328.67
-2117.96
-833.934
1735.31
4469.19
7245.91
9913.25
12323.8
14308.6
15741.8
16408.9
16550.3
15791.3
14422.6
12549.2
10311.5
29.5034
26.569
22.9314
19.7344
16.8607
14.2968
10.8828
8.85893
7.38009
3.64343
-2.07547
-45.931
-208.379
365.529
1927.14
3734.24
5360.87
6715.07
7713.6
8243.71
8247.08
7747.34
6796.11
5544.79
4279.34
3300.78
2895.54
3121.33
4095.66
5702.18
7757.98
10012.9
12173
13953.3
15075.7
15393.8
14791
13118.7
10834.9
7870.09
4736.03
1860.17
112.664
-155.988
-73.5381
-23.8397
-6.11312
-1.11159
-0.908488
-2.00091
-1.85665
0.520342
4.89449
5.44603
5.14955
5.92287
7.30847
7.2191
8.49573
9.28272
9.35756
9.75074
9.9757
10.186
10.3591
10.2184
10.1309
10.6764
9.97621
8.51198
-2.94866
-104.661
-53.4599
1669.42
4444.3
7298.35
10039.9
12524.1
14573.3
16062.9
16761
16870.1
16092.5
14666.9
12717.5
10401.1
28.9786
26.1366
22.6211
19.6008
16.6495
14.0194
10.8727
8.92308
7.12893
3.87152
2.73185
7.51299
79.2816
745.946
2139.55
3855.97
5503.59
6892.91
7922.95
8462.5
8480.95
7905.36
6881.48
5538.31
4185.02
3156.22
2712.94
2945.61
3904.36
5542.77
7698.69
10062.8
12329.8
14205.5
15394.6
15741.1
15145
13406.2
11019.8
7941.72
4697.97
1895.07
401.036
45.3213
9.84129
8.97039
7.94252
7.08648
6.25355
5.39321
4.5214
3.87324
4.84214
5.35695
5.19861
6.03768
7.18723
7.09675
8.28059
9.06729
9.21455
9.5731
9.80072
10.046
10.2287
10.0915
9.98031
10.2863
9.81887
9.87426
10.6124
24.5138
285.18
1792.59
4412.17
7344.82
10166.7
12726.9
14843
16393.4
17121
17197.2
16400
14915.7
12884
10488.8
28.525
25.7179
22.264
19.3043
16.4395
13.875
10.8336
8.79158
7.05133
3.95814
2.14781
1.91458
4.31815
64.1954
790.813
3139.32
5439.12
7066.31
8139.42
8681.16
8642.78
8053.17
6922.56
5269.75
3234.53
1782.94
1243.98
1493.55
2712.69
5036.52
7619
10110.2
12487.1
14463.4
15721.7
16095.6
15492.5
13719.8
11210.6
7993.19
4025.44
636.953
11.763
11.9785
9.46946
8.64135
7.71203
6.92041
6.15285
5.35295
4.56738
4.0678
4.89843
5.34055
5.25995
6.00042
7.05413
7.09952
8.19632
8.89019
9.10047
9.44215
9.65256
9.86601
10.0199
9.91484
9.79781
10.086
9.62047
9.18163
8.46526
7.74629
26.534
475.32
3723.33
7376.43
10295.3
12929.3
15118.2
16733.9
17490
17531.7
16712.4
15170.7
13053.7
10577.1
28.0421
25.3078
21.9605
19.0737
16.2225
13.6892
10.8043
8.70013
6.90282
4.06282
2.24999
1.28863
-0.770024
-0.0837811
33.3305
434.74
2786.9
5865.62
7820.84
8671.17
8639.7
7686.96
5292.2
2289.67
678.994
151.378
73.4587
95.9741
298.906
1918.86
6323.59
10129.7
12647.8
14721.8
16054.7
16459.1
15854.7
14039
11375.8
7242.23
1227.83
-3.40162
11.239
11.0064
9.01437
8.29071
7.45017
6.73476
6.03886
5.31312
4.599
4.17006
4.88859
5.29165
5.29181
6.01069
6.93982
7.04746
8.08575
8.72735
8.97407
9.29884
9.52758
9.72878
9.86714
9.76067
9.65759
9.84813
9.40582
8.94289
8.06463
6.11304
6.93301
28.4947
764.957
6104.36
10416.7
13142.8
15387.8
17084.6
17870
17874.8
17032.5
15433.7
13226.3
10623.1
27.5715
24.8861
21.6107
18.8018
16.0138
13.5093
10.7417
8.64516
6.82139
4.11564
2.27773
1.23311
-0.950949
-3.23496
-3.13615
10.6547
154.857
1122.84
3572.7
5149.6
5025.45
3218.75
1155.82
67.9394
6.44113
6.26589
6.39676
8.03439
16.4485
99.7132
1470.98
8018.3
12769
14987
16388.2
16840.2
16217.6
14320.5
10979.6
2832.31
-4.20037
-3.22702
9.65614
10.1325
8.57454
7.96348
7.26625
6.60675
5.94657
5.27226
4.61984
4.25461
4.88547
5.24663
5.29725
5.99426
6.83503
7.00747
7.97224
8.5742
8.84424
9.15788
9.37362
9.56738
9.6955
9.60199
9.51344
9.62112
9.20802
8.70654
7.78749
5.9733
5.51352
5.79024
36.0333
1397.16
8905.48
13361.8
15676.3
17420.7
18259.9
18233.8
17362.6
15693.7
13338.5
9369.69
27.0981
24.4833
21.2978
18.5468
15.7993
13.3322
10.67
8.54739
6.71456
4.1991
2.34477
1.17003
-0.915732
-3.20456
-4.69264
-5.8722
-2.77687
38.4228
250.456
630.831
601.255
120.845
-4.46809
-1.75474
0.928264
2.27647
3.83925
3.51307
3.52618
5.88786
63.3051
1637.13
9930.96
15156
16699.6
17164.7
16525
14123
5807.67
165.76
-8.5443
-2.63386
8.35093
9.34915
8.2551
7.72005
7.09566
6.48128
5.8615
5.22932
4.63162
4.3231
4.86892
5.20343
5.29702
5.96929
6.73613
6.9634
7.85784
8.42515
8.71192
9.03253
9.23054
9.40913
9.52159
9.43593
9.35198
9.39332
8.99893
8.4754
7.56192
5.93665
5.22401
4.28486
3.02127
59.9959
2578.16
11753.9
15975
17778.8
18669.7
18589.1
17664.3
15862.9
11816.4
3170.23
26.6271
24.0672
20.9641
18.284
15.5934
13.1589
10.5864
8.46549
6.60957
4.22241
2.38377
1.14659
-0.857584
-3.0758
-4.64083
-6.32368
-8.77839
-10.3438
-10.9508
-10.6653
-9.97725
-8.23534
-5.04704
-1.81922
0.712084
1.95174
3.21901
3.26901
2.72896
1.49905
1.43272
65.6964
1980.45
11153.9
16442.6
17096.3
15878.7
8357.33
733.57
-4.4746
-7.6276
-2.23524
7.29371
8.69232
7.93645
7.48197
6.92574
6.35438
5.77307
5.18279
4.63768
4.3768
4.85103
5.1648
5.29681
5.94029
6.63959
6.91325
7.74312
8.27977
8.5812
8.87613
9.08509
9.2507
9.35118
9.26955
9.18487
9.1702
8.78497
8.23952
7.33575
5.84573
4.99668
3.82221
1.15161
0.173437
121.225
3992.18
13935.8
18033.1
18982
18805.6
17757.4
13770.3
4030.54
20.8819
26.1622
23.6658
20.6433
18.0348
15.3841
12.9933
10.5107
8.39674
6.5336
4.25417
2.41519
1.11982
-0.796635
-2.92047
-4.50693
-6.16566
-8.44849
-9.93746
-10.5383
-10.3124
-9.79657
-7.77469
-4.85937
-1.92336
0.549676
1.78962
2.93278
3.02085
2.53835
1.08822
-1.66692
-3.89762
69.56
1763.77
8516.5
11023.4
7532.87
1319.49
-12.3974
-5.19526
-6.77208
-1.86954
6.38166
8.09153
7.61578
7.24372
6.75422
6.22651
5.68539
5.13632
4.64059
4.42035
4.8324
5.12701
5.29138
5.90497
6.54779
6.85954
7.63188
8.13888
8.45235
8.7344
8.94367
9.09611
9.18377
9.1079
9.0175
8.95446
8.56939
8.00505
7.11162
5.71658
4.77175
3.52491
0.856676
-3.08956
-2.59762
198.585
4471.81
13954.9
17745.6
17547.1
13241.3
4334.77
66.195
-15.1052
25.6964
23.2586
20.3186
17.765
15.1726
12.8167
10.4128
8.31034
6.45413
4.28158
2.46126
1.10806
-0.745787
-2.78652
-4.38013
-6.00691
-8.12684
-9.53785
-10.1053
-9.91007
-9.24635
-7.50219
-4.75293
-1.9672
0.383551
1.59892
2.64329
2.72822
2.23769
0.842199
-1.99309
-6.71724
-10.9419
51.2451
761.78
1613.08
702.787
-8.44453
-12.7026
-6.00546
-6.28481
-1.54605
5.63244
7.52897
7.29438
6.99981
6.57599
6.09598
5.59598
5.08709
4.63903
4.45396
4.81151
5.0898
5.2812
5.86557
6.46322
6.80407
7.52431
8.00775
8.32676
8.60194
8.80653
8.94783
9.02189
8.95137
8.85198
8.74994
8.36565
7.7825
6.88774
5.57037
4.53864
3.23175
0.644054
-3.36451
-8.65678
-5.50628
198.215
2416.08
6801.88
6809.03
2981.05
86.4189
-7.88526
-14.095
25.2374
22.8595
19.9981
17.4975
14.9664
12.6502
10.3147
8.22617
6.37651
4.28724
2.48366
1.10091
-0.689314
-2.64926
-4.23336
-5.82594
-7.81783
-9.16143
-9.71038
-9.54237
-9.04493
-7.18023
-4.65479
-1.9992
0.209617
1.3988
2.35748
2.44046
1.9329
0.530074
-2.22716
-6.7504
-13.1915
-19.7893
-24.5435
-26.5062
-26.1185
-23.4267
-12.9275
-6.53971
-5.82217
-1.36264
5.00352
7.00258
6.96886
6.75875
6.40088
5.9665
5.50481
5.03528
4.63265
4.47819
4.78914
5.05342
5.26834
5.82431
6.38266
6.74669
7.41727
7.88189
8.20234
8.47001
8.67026
8.80312
8.86523
8.79769
8.68943
8.55633
8.16999
7.56854
6.67768
5.42628
4.31672
2.92435
0.36297
-3.49088
-8.81027
-14.5036
-12.4173
80.5241
342.97
280.19
-0.223245
-12.3528
-8.6406
-13.1873
24.7793
22.4601
19.6777
17.232
14.7565
12.4834
10.2162
8.14978
6.31356
4.30071
2.51526
1.09945
-0.639333
-2.53038
-4.10136
-5.64885
-7.50995
-8.79266
-9.31057
-9.16235
-8.5242
-6.88197
-4.55131
-2.03687
0.0419881
1.19264
2.08268
2.1485
1.62541
0.222204
-2.47718
-6.82607
-12.9472
-19.3169
-23.9651
-25.8275
-25.3611
-22.5004
-12.8919
-6.91161
-5.40669
-1.21481
4.45027
6.50625
6.65031
6.5227
6.22581
5.83697
5.41442
4.98243
4.6217
4.49331
4.76508
5.01731
5.25142
5.77957
6.30545
6.68536
7.3121
7.75999
8.08003
8.33887
8.53572
8.66023
8.71201
8.64555
8.52831
8.36816
7.97653
7.36322
6.48454
5.25847
4.10343
2.68414
0.134615
-3.63083
-8.6087
-14.5143
-20.8821
-24.515
-25.064
-24.1862
-19.182
-12.5046
-9.12225
-12.3198
24.3266
22.0653
19.3592
16.9679
14.548
12.3125
10.1041
8.06171
6.24031
4.2954
2.53548
1.10572
-0.585167
-2.40887
-3.9637
-5.47593
-7.22195
-8.4437
-8.93982
-8.80562
-8.18833
-6.60148
-4.44723
-2.0707
-0.114985
0.999613
1.81556
1.87601
1.33747
-0.0733811
-2.70989
-6.87283
-12.6231
-18.5642
-23.0916
-24.9419
-24.4034
-21.2328
-12.7066
-7.0983
-5.12864
-1.1156
3.95919
6.04513
6.34165
6.29121
6.05387
5.70981
5.32509
4.92864
4.60609
4.49981
4.73949
4.98165
5.23003
5.73166
6.23099
6.62017
7.20803
7.64111
7.95837
8.20795
8.4033
8.51946
8.56202
8.49542
8.36966
8.18671
7.78796
7.1662
6.29288
5.09386
3.91192
2.4434
-0.0624818
-3.70315
-8.46545
-14.2455
-20.0059
-23.6476
-24.426
-23.4377
-18.81
-12.5715
-9.40358
-11.5707
23.8766
21.6731
19.0419
16.706
14.3403
12.1497
9.998
7.98287
6.17906
4.29369
2.5566
1.11285
-0.536964
-2.30042
-3.83033
-5.30248
-6.94577
-8.10237
-8.57844
-8.4582
-7.86343
-6.34275
-4.34293
-2.10031
-0.263183
0.814439
1.56413
1.61119
1.05176
-0.348173
-2.91874
-6.90679
-12.3061
-17.8744
-22.0985
-23.8156
-23.1423
-20.1392
-12.4616
-7.18502
-4.90202
-1.06075
3.52708
5.61357
6.04724
6.06896
5.88774
5.5857
5.23683
4.87416
4.58657
4.49903
4.71274
4.94625
5.20448
5.68148
6.15756
6.55257
7.10642
7.5244
7.83938
8.08004
8.27094
8.38063
8.41431
8.34632
8.21213
8.01034
7.60607
6.97935
6.11238
4.94021
3.72433
2.2252
-0.233206
-3.74774
-8.31161
-13.8597
-19.1433
-22.5369
-23.4807
-22.3777
-18.1064
-12.5337
-9.5924
-10.8979
23.4311
21.2843
18.7261
16.4446
14.1318
11.9817
9.8828
7.89707
6.11226
4.28094
2.57145
1.12511
-0.484267
-2.18876
-3.69751
-5.13392
-6.68526
-7.78707
-8.24314
-8.13289
-7.55414
-6.09704
-4.23746
-2.12983
-0.404179
0.635343
1.31626
1.35536
0.781591
-0.606488
-3.09862
-6.90431
-11.9906
-17.2067
-21.1259
-22.7132
-21.9564
-19.1248
-12.1362
-7.24532
-4.71551
-1.03068
3.15118
5.21825
5.76395
5.85466
5.72498
5.46307
5.14882
4.81859
4.56314
4.49178
4.68488
4.91078
5.17545
5.62995
6.0867
6.48312
7.00605
7.41015
7.71967
7.95542
8.13725
8.24263
8.26768
8.19799
8.05606
7.83629
7.42678
6.79531
5.93557
4.78847
3.55212
2.02389
-0.394953
-3.78266
-8.14149
-13.4515
-18.3686
-21.4977
-22.4819
-21.4154
-17.4629
-12.4649
-9.68316
-10.2935
22.9894
20.899
18.412
16.1855
13.9242
11.8168
9.76799
7.81449
6.05139
4.26926
2.58611
1.13781
-0.437485
-2.08775
-3.56559
-4.96249
-6.43204
-7.48056
-7.92029
-7.82208
-7.26229
-5.87522
-4.13893
-2.15572
-0.53296
0.465973
1.09963
1.11536
0.522643
-0.852443
-3.26465
-6.88193
-11.6602
-16.5384
-20.1903
-21.5899
-20.9186
-18.1247
-11.8332
-7.25205
-4.55313
-1.01983
2.81738
4.86046
5.49255
5.64586
5.5647
5.34179
5.06108
4.76181
4.53605
4.47908
4.65577
4.87486
5.14361
5.57762
6.01761
6.41149
6.90635
7.29817
7.60113
7.83097
8.00561
8.10598
8.12306
8.05064
7.90244
7.66611
7.2515
6.61797
5.76446
4.63738
3.38344
1.83184
-0.54606
-3.8133
-7.96055
-12.9875
-17.6329
-20.5216
-21.4538
-20.4796
-16.8536
-12.3264
-9.68186
-9.78134
22.5519
20.5172
18.0996
15.9264
13.7168
11.6521
9.64956
7.72794
5.98718
4.25003
2.59584
1.15357
-0.386202
-1.98602
-3.4385
-4.79823
-6.19162
-7.19083
-7.61383
-7.52535
-6.98438
-5.66832
-4.04448
-2.18016
-0.652615
0.302398
0.882686
0.882415
0.280636
-1.07612
-3.41458
-6.86235
-11.3378
-15.881
-19.2769
-20.5565
-19.9597
-17.2045
-11.5428
-7.21628
-4.41131
-1.02817
2.51898
4.52803
5.23287
5.44299
5.40715
5.22167
4.97305
4.70383
4.50582
4.46184
4.62524
4.83853
5.10945
5.52372
5.94845
6.3384
6.8078
7.1872
7.48333
7.70738
7.87444
7.97008
7.97993
7.90471
7.74918
7.49972
7.07954
6.44453
5.59709
4.4881
3.22483
1.65962
-0.676658
-3.84064
-7.81179
-12.5543
-16.8896