/*--------------------------------*- C++ -*----------------------------------*\
| =========                 |                                                 |
| \\      /  F ield         | OpenFOAM: The Open Source CFD Toolbox           |
|  \\    /   O peration     | Version:  v1912                                 |
|   \\  /    A nd           | Website:  www.openfoam.com                      |
|    \\/     M anipulation  |                                                 |
\*---------------------------------------------------------------------------*/
FoamFile
{
    version     2.0;
    format      ascii;
    class       surfaceScalarField;
    location    "90";
    object      alphaPhi0.water;
}
// * * * * * * * * * * * * * * * * * * * * * * * * * * * * * * * * * * * * * //

dimensions      [0 3 -1 0 0 0 0];
oriented        oriented;


internalField   nonuniform List<scalar> 
28285
(
0.00922646
-0.00217606
0.0114827
-0.00225621
0.0138122
-0.00232953
0.0162036
-0.00239135
0.0186392
-0.00243561
0.0211068
-0.00246765
0.0235855
-0.00247866
0.0260532
-0.00246772
0.0284907
-0.00243754
0.0308673
-0.00237663
0.0331623
-0.00229499
0.0353468
-0.00218449
0.0373913
-0.00204445
0.0392725
-0.00188125
0.0409572
-0.00168467
0.0424209
-0.00146367
0.0436388
-0.00121791
0.0445839
-0.000945105
0.0452389
-0.000655075
0.0455822
-0.000343221
0.0456024
-2.02187e-05
0.0452892
0.000313233
0.0446564
0.000632778
0.0436883
0.000968087
0.0423861
0.00130217
0.0407691
0.001617
0.0388587
0.00191046
0.0366815
0.00217712
0.034272
0.00240957
0.0316672
0.0026048
0.0289085
0.00275867
0.0260412
0.00286734
0.023108
0.00293315
0.0201558
0.00295217
0.0172246
0.00293123
0.0143551
0.0028695
0.0115788
0.00277631
0.00892649
0.0026523
0.00641892
0.00250758
0.0040675
0.00235141
0.00189544
0.00217207
-0.000113267
0.00200871
-0.0019469
0.00183363
-0.00360725
0.00166035
-0.00513625
0.001529
-0.00648802
0.00135177
-0.00775143
0.00126341
-0.00885773
0.0011063
-0.00991333
0.0010556
-0.0108369
0.000923591
-0.011735
0.00089808
-0.0125359
0.000800915
-0.0133153
0.000779419
-0.0140396
0.000724256
-0.0147417
0.000702151
-0.0154113
0.000669515
-0.0160718
0.000660545
-0.0166991
0.000627346
-0.017304
0.000604892
-0.0179185
0.000614509
-0.0184494
0.000530805
-0.0189876
0.000538207
-0.0194556
0.000468037
-0.0198749
0.000419276
-0.0202289
0.000354013
-0.0205162
0.000287363
-0.0207234
0.000207176
-0.0208519
0.000128461
-0.02089
3.81577e-05
-0.0208411
-4.88964e-05
-0.0206955
-0.000145614
-0.0204572
-0.000238342
-0.0201128
-0.00034443
-0.0196726
-0.000440187
-0.019128
-0.000544619
-0.0184909
-0.00063709
-0.0177565
-0.000734376
-0.0169283
-0.000828194
-0.0160147
-0.000913607
-0.0150104
-0.00100427
-0.0139211
-0.00108931
-0.012744
-0.00117714
-0.0114839
-0.00126002
-0.0101196
-0.00136433
-0.00870479
-0.00141482
-0.0071583
-0.0015465
-0.00557
-0.0015883
-0.0038834
-0.0016866
-0.00213722
-0.00174617
-0.000329119
-0.0018081
0.00150162
-0.00183073
0.00334886
-0.00184724
0.00521129
-0.00186243
0.00703169
-0.0018204
0.00874574
-0.00171406
0.0103599
-0.00161412
0.011859
-0.00149914
0.0131995
-0.00134054
0.014405
-0.00120544
0.0154302
-0.00102525
0.0161585
-0.000728303
0.0165331
-0.000374526
0.0165244
8.63859e-06
0.016136
0.000388444
0.0154253
0.00071063
0.0144203
0.00100505
0.0131824
0.00123793
0.0117347
0.00144769
0.0100436
0.00169105
0.00809292
0.00195072
0.00591094
0.00218197
0.0036086
0.00230234
0.00136262
0.00224598
-0.000657153
0.00201977
-0.00233565
0.0016785
-0.00359173
0.00125608
-0.00440118
0.000809444
-0.0047949
0.000393721
-0.00487005
7.51566e-05
-0.00474687
-0.000123184
-0.00449657
-0.000250296
-0.00415485
-0.00034172
-0.00377577
-0.000379082
-0.00342404
-0.000351735
-0.00312275
-0.000301281
-0.0028457
-0.000277051
-0.00256262
-0.000283086
-0.00227772
-0.000284895
-0.00198636
-0.000291364
-0.00168756
-0.000298799
-0.00138577
-0.000301791
-0.00108441
-0.000301363
-0.000794512
-0.000289894
-0.000258586
-0.000535926
0.00933173
-0.00435526
0.0115908
-0.00451532
0.0139232
-0.00466192
0.0163171
-0.00478524
0.0187549
-0.00487337
0.0212244
-0.00493719
0.0237043
-0.00495854
0.0261727
-0.0049361
0.0286101
-0.00487492
0.0309856
-0.00475217
0.0332785
-0.00458788
0.0354599
-0.0043659
0.0375002
-0.00408475
0.0393762
-0.00375723
0.0410545
-0.00336298
0.0425109
-0.00292002
0.0437205
-0.00242761
0.0446564
-0.00188098
0.0453013
-0.0013
0.0456337
-0.000675604
0.0456426
-2.90657e-05
0.045315
0.000640763
0.044668
0.00127986
0.0436845
0.00195151
0.0423674
0.00261932
0.0407362
0.00324817
0.0388125
0.00383422
0.0366233
0.00436631
0.0342029
0.00482999
0.0315887
0.00521896
0.0288225
0.00552482
0.0259494
0.00574051
0.0230128
0.00586973
0.020059
0.00590597
0.017128
0.00586219
0.0142605
0.00573707
0.0114877
0.00554909
0.00884027
0.00529972
0.00633837
0.00500947
0.00399394
0.00469585
0.00182915
0.00433686
-0.000172913
0.00401077
-0.00199843
0.00365915
-0.00365129
0.00331321
-0.00517287
0.00305057
-0.00651775
0.00269666
-0.00777477
0.00252042
-0.00887533
0.00220686
-0.00992578
0.00210605
-0.0108451
0.00184294
-0.0117393
0.00179228
-0.0125371
0.00159866
-0.0133138
0.00155619
-0.014036
0.00144646
-0.0147365
0.00140261
-0.0154047
0.00133771
-0.0160645
0.00132032
-0.0166913
0.00125414
-0.0172959
0.00120958
-0.0179104
0.00122895
-0.0184404
0.00106078
-0.0189781
0.00107599
-0.0194458
0.000935716
-0.0198644
0.000837799
-0.0202178
0.000707432
-0.0205042
0.000573774
-0.0207105
0.000413465
-0.0208377
0.00025567
-0.0208759
7.63853e-05
-0.0208244
-0.000100412
-0.0206766
-0.000293358
-0.0204359
-0.000479052
-0.0200896
-0.000690758
-0.0196476
-0.000882197
-0.019101
-0.00109119
-0.0184624
-0.00127574
-0.0177266
-0.00147021
-0.0168974
-0.00165734
-0.0159825
-0.00182854
-0.0149777
-0.00200904
-0.0138876
-0.00217938
-0.0127102
-0.00235456
-0.0114497
-0.00252054
-0.0100855
-0.00272852
-0.00867047
-0.00282986
-0.00712385
-0.00309312
-0.0055358
-0.00317635
-0.00384994
-0.00337246
-0.00210433
-0.00349179
-0.000297096
-0.00361533
0.00153133
-0.00365916
0.00337678
-0.00369269
0.00523725
-0.0037229
0.00705512
-0.00363827
0.00876592
-0.00342486
0.0103766
-0.00322477
0.0118719
-0.00299442
0.0132082
-0.00267686
0.0144103
-0.00240755
0.0154326
-0.00204752
0.0161572
-0.00145292
0.0165284
-0.000745766
0.0165167
2.03386e-05
0.0161244
0.000780728
0.01541
0.00142501
0.0144014
0.00201369
0.0131611
0.00247821
0.0117122
0.00289662
0.01002
0.00338324
0.00806827
0.00390244
0.00588569
0.00436455
0.00358469
0.00460334
0.00134178
0.00448889
-0.000673876
0.00403543
-0.00234818
0.0033528
-0.0035998
0.0025077
-0.00440525
0.00161489
-0.00479575
0.000784218
-0.00486864
0.000148046
-0.00474418
-0.000247641
-0.00449333
-0.000501151
-0.00415152
-0.000683528
-0.00377275
-0.000757849
-0.00342149
-0.000702997
-0.00312053
-0.000602239
-0.00284334
-0.000554238
-0.00256014
-0.000566291
-0.00227511
-0.000569918
-0.00198378
-0.000582698
-0.0016849
-0.000597681
-0.00138245
-0.000604239
-0.0010841
-0.000599716
-0.000801453
-0.000572539
-0.000514694
-0.000545344
0.00939956
-0.00654217
0.0116666
-0.00678232
0.0140073
-0.00700271
0.01641
-0.00718787
0.0188565
-0.00731987
0.0213351
-0.00741579
0.0238236
-0.00744703
0.0263004
-0.00741293
0.0287457
-0.00732016
0.0311281
-0.00713461
0.0334275
-0.00688726
0.0356139
-0.00655233
0.0376581
-0.00612897
0.0395368
-0.00563589
0.041216
-0.0050422
0.0426718
-0.0043758
0.0438788
-0.00363464
0.0448099
-0.00281207
0.045448
-0.00193806
0.0457708
-0.000998418
0.0457676
-2.58978e-05
0.0454285
0.000979869
0.0447684
0.00193998
0.04377
0.00294995
0.0424366
0.00395273
0.0407882
0.00489655
0.0388466
0.00577579
0.0366389
0.00657404
0.0341999
0.00726892
0.0315678
0.00785108
0.0287847
0.00830793
0.0258959
0.00862933
0.0229455
0.00882015
0.0199801
0.00887133
0.01704
0.00880229
0.0141658
0.0086113
0.0113883
0.00832659
0.00873973
0.00794828
0.00623887
0.00751033
0.00389725
0.00703747
0.00173689
0.00649721
-0.000259145
0.0060068
-0.00207745
0.00547745
-0.003723
0.00495877
-0.00523796
0.00456554
-0.0065747
0.0040334
-0.00782626
0.00377197
-0.00891969
0.00330029
-0.00996587
0.00315223
-0.0108796
0.00275668
-0.0117708
0.00268348
-0.0125647
0.00239257
-0.0133389
0.00233041
-0.0140588
0.00216635
-0.0147578
0.00210158
-0.0154249
0.00200478
-0.016084
0.00197946
-0.0167113
0.00188144
-0.0173156
0.00181384
-0.0179318
0.00184519
-0.0184607
0.00158969
-0.0189989
0.00161415
-0.0194665
0.00140331
-0.019884
0.00125527
-0.0202364
0.00105992
-0.0205212
0.000858523
-0.0207254
0.000617674
-0.0208503
0.000380573
-0.0208837
0.000109786
-0.0208319
-0.000152233
-0.0206825
-0.000442699
-0.0204398
-0.00072184
-0.0200913
-0.00103918
-0.0196473
-0.00132624
-0.0190988
-0.00163965
-0.0184581
-0.00191643
-0.0177205
-0.0022078
-0.0168893
-0.00248857
-0.0159728
-0.00274505
-0.0149664
-0.00301545
-0.0138747
-0.00327106
-0.012696
-0.00353327
-0.011434
-0.00378255
-0.0100684
-0.00409414
-0.00865219
-0.00424605
-0.00710385
-0.00464145
-0.00551447
-0.00476573
-0.00382728
-0.00505965
-0.00207968
-0.00523939
-0.000270697
-0.00542432
0.00155804
-0.0054879
0.00340412
-0.00553877
0.00526559
-0.00558437
0.00708432
-0.005457
0.008795
-0.00513554
0.0104053
-0.00483503
0.0118993
-0.00448846
0.013233
-0.00401057
0.0144337
-0.00360819
0.0154555
-0.00306939
0.0161783
-0.00217568
0.0165452
-0.00111263
0.0165265
3.89596e-05
0.0161274
0.00117987
0.0154067
0.00214567
0.0143933
0.00302713
0.0131509
0.00372057
0.0117013
0.00434624
0.010008
0.00507656
0.0080544
0.00585604
0.00586967
0.00654929
0.00356616
0.00690685
0.0013215
0.00673355
-0.000693815
0.00605074
-0.00236672
0.0050257
-0.00361594
0.00375692
-0.00441838
0.00241733
-0.00480558
0.00117142
-0.00487567
0.000218137
-0.00474937
-0.000373943
-0.00449763
-0.00075289
-0.00415557
-0.00102559
-0.00377655
-0.00113687
-0.00342477
-0.00105477
-0.00312322
-0.000903788
-0.00284487
-0.000832593
-0.00256027
-0.000850888
-0.00227441
-0.000855779
-0.00198302
-0.000874094
-0.00168501
-0.000895686
-0.00138408
-0.000905171
-0.00108384
-0.00089995
-0.00079579
-0.000860593
-0.000773785
-0.000536699
0.00943446
-0.00873864
0.0117116
-0.00905947
0.0140637
-0.00935481
0.0164784
-0.00960256
0.0189373
-0.00977877
0.0214291
-0.0099076
0.0239309
-0.0099488
0.0264213
-0.00990338
0.02888
-0.00977881
0.0312749
-0.00952958
0.0335865
-0.00919882
0.0357836
-0.00874946
0.0378371
-0.00818247
0.0397237
-0.00752242
0.0414088
-0.0067273
0.0428687
-0.00583578
0.0440776
-0.00484353
0.045008
-0.00374247
0.0456428
-0.00257282
0.0459596
-0.00131523
0.0459469
-1.3221e-05
0.0455968
0.00132996
0.0449229
0.00261393
0.0439073
0.00396552
0.042554
0.00530603
0.0408836
0.00656697
0.0389185
0.00774086
0.0366863
0.00880628
0.0342226
0.0097326
0.0315661
0.0105076
0.0287596
0.0111144
0.0258494
0.0115396
0.0228799
0.0117896
0.019898
0.0118532
0.0169449
0.0117554
0.0140607
0.0114955
0.0112776
0.0111097
0.00862567
0.0106002
0.00612464
0.0100114
0.00378575
0.00937637
0.00163007
0.00865289
-0.000360372
0.00799725
-0.00217056
0.00728764
-0.00380766
0.00659587
-0.00531448
0.00607236
-0.00664122
0.00536014
-0.00788552
0.00501627
-0.00897012
0.0043849
-0.0100109
0.00419299
-0.0109175
0.00366325
-0.0118044
0.00357038
-0.012593
0.00318123
-0.0133637
0.00310112
-0.0140808
0.00288344
-0.0147776
0.00279837
-0.0154427
0.00266984
-0.0161008
0.00263756
-0.0167283
0.00250901
-0.0173329
0.00241841
-0.0179501
0.00246237
-0.0184788
0.00211839
-0.0190171
0.00215243
-0.0194855
0.00187171
-0.0199027
0.0016725
-0.0202554
0.00141264
-0.0205399
0.00114303
-0.0207441
0.000821829
-0.0208685
0.000504996
-0.0209046
0.000145916
-0.0208486
-0.000208261
-0.0206973
-0.000593999
-0.0204525
-0.000966658
-0.0201023
-0.00138942
-0.0196559
-0.00177255
-0.0191053
-0.00219025
-0.0184623
-0.0025595
-0.0177224
-0.00294769
-0.0168891
-0.0033219
-0.0159705
-0.00366365
-0.0149623
-0.00402359
-0.0138688
-0.00436459
-0.0126889
-0.00471316
-0.0114251
-0.0050463
-0.010058
-0.00546131
-0.00864048
-0.00566354
-0.00708983
-0.0061921
-0.00549851
-0.00635705
-0.00380953
-0.00674863
-0.00205917
-0.00698975
-0.000248059
-0.00723543
0.00158216
-0.00731812
0.00342947
-0.00738608
0.00529264
-0.00744754
0.0071126
-0.00727696
0.00882287
-0.00684582
0.0104326
-0.00644472
0.0119259
-0.00598179
0.0132576
-0.00534225
0.0144581
-0.00480873
0.0154809
-0.00409219
0.0162021
-0.00289682
0.0165668
-0.0014774
0.0165447
6.1071e-05
0.0161404
0.00158416
0.0154151
0.00287095
0.0143966
0.00404571
0.0131504
0.0049667
0.0116988
0.00579789
0.010003
0.00677237
0.00804545
0.00781356
0.00585614
0.00873859
0.00354819
0.00921481
0.00130122
0.00898051
-0.000713415
0.00806538
-0.00238458
0.00669687
-0.00363066
0.00500301
-0.00442928
0.00321595
-0.00481255
0.0015547
-0.00487939
0.000284976
-0.00475126
-0.000502076
-0.0044987
-0.00100545
-0.00415593
-0.00136836
-0.00377575
-0.00151705
-0.00342272
-0.0014078
-0.00311991
-0.00120661
-0.00284073
-0.00111177
-0.00255589
-0.00113573
-0.00227029
-0.00114138
-0.00197955
-0.00116483
-0.00168244
-0.00119279
-0.00138264
-0.00120497
-0.00108533
-0.00119726
-0.000802667
-0.00114325
-0.00103043
-0.000546026
0.00943709
-0.0109465
0.0117267
-0.0113491
0.0140928
-0.0117209
0.0165228
-0.0120325
0.0189978
-0.0122538
0.0215073
-0.0124171
0.024027
-0.0124685
0.0265359
-0.0124123
0.029013
-0.0122559
0.0314258
-0.0119424
0.033755
-0.0115281
0.0359682
-0.0109626
0.0380365
-0.0102508
0.0399365
-0.00942237
0.0416329
-0.00842377
0.043102
-0.00730482
0.0443171
-0.00605864
0.0452507
-0.00467605
0.0458855
-0.00320761
0.0461988
-0.00162861
0.0461797
5.90795e-06
0.045817
0.00169269
0.0451278
0.00330308
0.0440935
0.00499989
0.0427179
0.00668156
0.0410225
0.00826245
0.0390299
0.00973346
0.0367681
0.0110681
0.0342737
0.0122269
0.0315865
0.0131948
0.02875
0.0139509
0.0258113
0.0144783
0.0228158
0.0147851
0.0198116
0.0148574
0.01684
0.014727
0.0139419
0.0143937
0.0111481
0.0139035
0.00849158
0.0132567
0.00598847
0.0125145
0.00365035
0.0117145
0.00150048
0.0108028
-0.000483703
0.00998143
-0.00228455
0.00908849
-0.00391183
0.00822314
-0.00540908
0.0075696
-0.00672421
0.00667527
-0.00795972
0.00625178
-0.00903413
0.0054593
-0.0100679
0.00522673
-0.0109659
0.00456128
-0.0118477
0.00445221
-0.0126303
0.00396378
-0.0133966
0.0038674
-0.0141101
0.00359702
-0.0148044
0.0034926
-0.0154673
0.00333273
-0.0161243
0.00329462
-0.0167531
0.00313778
-0.0173579
0.0030232
-0.0179776
0.00308206
-0.0185059
0.00264674
-0.0190453
0.00269178
-0.0195151
0.00234151
-0.0199321
0.00208953
-0.0202849
0.00176539
-0.0205687
0.00142691
-0.0207714
0.00102451
-0.0208943
0.000627896
-0.0209246
0.000176201
-0.0208703
-0.000262571
-0.0207178
-0.000746525
-0.0204711
-0.00121336
-0.0201188
-0.00174167
-0.0196705
-0.00222088
-0.0191176
-0.00274312
-0.0184722
-0.00320494
-0.01773
-0.00368982
-0.0168941
-0.00415785
-0.0159735
-0.00458424
-0.0149634
-0.00503372
-0.0138679
-0.0054601
-0.0126863
-0.0058947
-0.0114205
-0.00631211
-0.0100514
-0.00683042
-0.00863258
-0.00708237
-0.00707932
-0.00774536
-0.00548616
-0.00795021
-0.00379575
-0.00843905
-0.00204255
-0.00874294
-0.000228908
-0.00904907
0.00160415
-0.00915117
0.00345359
-0.00923552
0.00531986
-0.00931382
0.00714293
-0.00910002
0.00885411
-0.008557
0.0104638
-0.00805445
0.0119562
-0.00747414
0.0132848
-0.00667088
0.0144851
-0.00600906
0.0155107
-0.00511777
0.0162326
-0.00361873
0.0165952
-0.00183999
0.0165687
8.75665e-05
0.016159
0.00199392
0.015427
0.00360292
0.0144017
0.00507097
0.0131518
0.00621657
0.0116989
0.00725083
0.0100009
0.00847042
0.00803948
0.00977495
0.00584524
0.0109328
0.00353216
0.0115279
0.00128187
0.0112308
-0.000732999
0.0100802
-0.00240286
0.00836673
-0.00364618
0.00624632
-0.00444119
0.00401096
-0.00482035
0.00193386
-0.00488363
0.000348255
-0.00475332
-0.000632384
-0.00449954
-0.00125923
-0.00415547
-0.00171243
-0.00377374
-0.00189878
-0.00341943
-0.0017621
-0.00311555
-0.00151049
-0.00283532
-0.00139199
-0.00254985
-0.0014212
-0.00226435
-0.00142688
-0.00197458
-0.0014546
-0.00167928
-0.00148809
-0.00138193
-0.00150233
-0.0010853
-0.00149389
-0.000800134
-0.00142842
-0.00128894
-0.000541617
0.00940954
-0.0131672
0.0117136
-0.0136531
0.0140962
-0.0141036
0.0165445
-0.0144808
0.0190392
-0.0147485
0.0215702
-0.0149481
0.024112
-0.0150103
0.0266442
-0.0149444
0.0291447
-0.0147564
0.0315807
-0.0143784
0.033933
-0.0138804
0.0361677
-0.0131973
0.038256
-0.0123391
0.0401742
-0.0113406
0.0418864
-0.010136
0.0433692
-0.00878759
0.044595
-0.0072844
0.0455355
-0.00561655
0.0461731
-0.00384526
0.0464848
-0.00194034
0.0464592
3.15482e-05
0.0460854
0.00206652
0.0453814
0.00400704
0.0443276
0.00605366
0.0429278
0.00808137
0.0412039
0.00998637
0.0391794
0.0117579
0.0368833
0.0133643
0.0343531
0.0147571
0.0316296
0.0159183
0.0287575
0.016823
0.0257848
0.0174511
0.0227581
0.0178119
0.0197261
0.0178893
0.0167312
0.017722
0.0138146
0.0173102
0.0110078
0.0167103
0.00834318
0.0159213
0.00583711
0.0150205
0.00349969
0.0140519
0.00135502
0.0129474
-0.000623096
0.0119595
-0.0024138
0.0108792
-0.00403019
0.00983952
-0.00551643
0.00905585
-0.00681832
0.00797716
-0.00804343
0.00747689
-0.00910615
0.00652203
-0.0101317
0.00625222
-0.0110198
0.00544939
-0.0118955
0.00532792
-0.0126705
0.00473878
-0.0134317
0.00462866
-0.0141413
0.00430658
-0.0148322
0.00418357
-0.0154918
0.00399225
-0.0161477
0.00395054
-0.0167768
0.00376693
-0.0173833
0.0036297
-0.0180045
0.00370327
-0.0185334
0.00317562
-0.0190738
0.00323215
-0.0195456
0.00281327
-0.019963
0.00250699
-0.0203165
0.00211893
-0.0206006
0.00171094
-0.0208035
0.00122741
-0.0209261
0.000750497
-0.0209601
0.000210265
-0.0209009
-0.000321861
-0.0207462
-0.00090122
-0.0204972
-0.00146229
-0.020143
-0.00209589
-0.0196923
-0.00267163
-0.0191368
-0.00329861
-0.0184886
-0.00385307
-0.017744
-0.00443442
-0.0169056
-0.00499628
-0.0159831
-0.00550679
-0.0149706
-0.00604614
-0.0138733
-0.00655745
-0.0126903
-0.00707765
-0.0114228
-0.00757958
-0.0100521
-0.00820113
-0.00863256
-0.00850195
-0.00707658
-0.00930134
-0.00548123
-0.00954556
-0.00378744
-0.0101328
-0.00203044
-0.0104999
-0.000212951
-0.0108666
0.00162312
-0.0109872
0.00347509
-0.0110875
0.00534506
-0.0111838
0.00717202
-0.010927
0.00888473
-0.0102697
0.0104951
-0.00966484
0.0119871
-0.00896608
0.0133127
-0.00799654
0.0145137
-0.00721008
0.0155437
-0.00614771
0.0162672
-0.00434226
0.0166295
-0.00220232
0.0165991
0.000117959
0.0161826
0.00241043
0.0154435
0.00434209
0.0144109
0.00610356
0.0131568
0.00747066
0.0117029
0.00870476
0.0100031
0.0101702
0.00803787
0.0117401
0.00583807
0.0131326
0.0035187
0.0138473
0.00126419
0.0134853
-0.000751287
0.0120957
-0.0024198
0.0100352
-0.00365995
0.00748647
-0.00445081
0.00480182
-0.00482528
0.00230833
-0.00488439
0.000407368
-0.00475138
-0.000765399
-0.00449628
-0.00151433
-0.00415133
-0.00205738
-0.00376836
-0.00228175
-0.00341295
-0.00211752
-0.0031085
-0.00181493
-0.00282812
-0.00167237
-0.00254298
-0.00170634
-0.00225803
-0.00171184
-0.00196916
-0.00174347
-0.00167518
-0.00178207
-0.00137947
-0.00179804
-0.00108541
-0.00178795
-0.000803838
-0.00170999
-0.00154606
-0.000546717
0.0093584
-0.0154026
0.0116792
-0.0159739
0.0140811
-0.0165055
0.016551
-0.0169507
0.0190691
-0.0172667
0.021626
-0.0175049
0.0241949
-0.0175792
0.0267555
-0.0175051
0.0292849
-0.0172857
0.0317494
-0.0168429
0.0341306
-0.0162616
0.0363923
-0.015459
0.0385063
-0.0144531
0.0404479
-0.0132822
0.0421812
-0.0118693
0.0436827
-0.0102891
0.0449233
-0.00852501
0.0458747
-0.00656789
0.0465184
-0.00448904
0.0468313
-0.0022532
0.0468016
6.12172e-05
0.0464181
0.00245008
0.0456984
0.00472676
0.0446225
0.00712952
0.0431946
0.00950923
0.0414383
0.0117427
0.0393776
0.0138187
0.0370416
0.0157003
0.0344695
0.0173292
0.0317029
0.0186848
0.028788
0.0197379
0.0257742
0.0204649
0.0227093
0.0208767
0.0196437
0.0209549
0.0166203
0.0207453
0.0136814
0.0202491
0.0108583
0.0195334
0.00818273
0.0185968
0.00567154
0.0175317
0.00333318
0.0163903
0.00119465
0.0150859
-0.000776721
0.0139309
-0.002556
0.0126585
-0.00416082
0.0114443
-0.00563393
0.010529
-0.00692156
0.00926479
-0.00813366
0.00868899
-0.00918379
0.00757216
-0.0101988
0.0072672
-0.0110762
0.00632682
-0.0119441
0.00619585
-0.0127108
0.00550542
-0.0134661
0.00538397
-0.0141713
0.00501182
-0.0148585
0.00487072
-0.0155139
0.00464766
-0.0161683
0.00460498
-0.0167976
0.00439624
-0.0174075
0.00423953
-0.0180303
0.0043261
-0.0185605
0.00370584
-0.0191024
0.00377402
-0.0195767
0.00328764
-0.0199947
0.00292493
-0.0203491
0.0024733
-0.0206334
0.00199533
-0.020836
0.00142994
-0.020958
0.000872572
-0.0209867
0.00023896
-0.0209296
-0.000379011
-0.0207739
-0.00105695
-0.0205231
-0.00171306
-0.020167
-0.00245196
-0.0197142
-0.00312448
-0.0191565
-0.00385628
-0.0185059
-0.00450368
-0.017759
-0.00518129
-0.0169178
-0.00583748
-0.0159929
-0.00643168
-0.0149787
-0.00706038
-0.0138796
-0.00765652
-0.0126952
-0.0082621
-0.011426
-0.00884879
-0.0100532
-0.00957388
-0.00863251
-0.00992265
-0.00707336
-0.0108605
-0.00547585
-0.0111431
-0.00378048
-0.0118282
-0.00201984
-0.0122606
-0.000198797
-0.0126876
0.00164061
-0.0128267
0.00349539
-0.0129423
0.00536996
-0.0130584
0.00720215
-0.0127592
0.00891704
-0.0119846
0.0105284
-0.0112762
0.0120199
-0.0104576
0.0133421
-0.00931869
0.0145441
-0.00841211
0.0155802
-0.00718375
0.0163072
-0.00506927
0.0166697
-0.00256487
0.0166353
0.000152407
0.0162115
0.00283422
0.0154642
0.0050894
0.0144235
0.00714418
0.0131657
0.00872847
0.0117121
0.0101584
0.0100112
0.0118712
0.00804165
0.0137097
0.00583502
0.0153393
0.00350811
0.0161742
0.0012485
0.0157449
-0.000767982
0.0141122
-0.00243548
0.0117027
-0.00367289
0.00872387
-0.00445991
0.00558884
-0.00482962
0.00267803
-0.00488433
0.000462087
-0.00474859
-0.00090114
-0.00449201
-0.00177091
-0.00414569
-0.0024037
-0.00376129
-0.00266614
-0.00340518
-0.00247364
-0.00310107
-0.00211904
-0.0028215
-0.00195194
-0.00253729
-0.00199055
-0.00225315
-0.00199598
-0.00196515
-0.00203147
-0.00167224
-0.00207498
-0.00137782
-0.00209246
-0.0010851
-0.00208066
-0.000803957
-0.00199114
-0.0018032
-0.000546824
0.00927856
-0.0176541
0.0116181
-0.0183134
0.0140419
-0.0189293
0.0165366
-0.0194454
0.019082
-0.019812
0.0216687
-0.0200917
0.0242694
-0.0201798
0.0268634
-0.020099
0.0294263
-0.0198487
0.0319247
-0.0193413
0.0343404
-0.0186773
0.0366348
-0.0177533
0.0387797
-0.016598
0.0407499
-0.0152524
0.0425098
-0.0136292
0.0440349
-0.0118142
0.0452951
-0.00978524
0.0462613
-0.00753409
0.0469143
-0.005142
0.0472304
-0.00256935
0.047196
9.56265e-05
0.0468005
0.00284561
0.0460637
0.00546355
0.0449655
0.00822777
0.0435088
0.0109659
0.0417174
0.0135341
0.0396159
0.0159202
0.037235
0.0180811
0.0346151
0.0199491
0.0317995
0.0215004
0.0288356
0.0227017
0.0257747
0.0235258
0.0226665
0.0239849
0.0195619
0.0240595
0.0165058
0.0238014
0.0135404
0.0232145
0.0106974
0.0223764
0.00801037
0.0212839
0.00549312
0.020049
0.00315448
0.0187289
0.00102044
0.01722
-0.00094372
0.0158951
-0.00271064
0.0144254
-0.00430231
0.013036
-0.00575959
0.0119862
-0.00703274
0.0105379
-0.00822924
0.00988549
-0.00926558
0.0086085
-0.0102677
0.00826933
-0.0111338
0.00719295
-0.0119926
0.00705456
-0.0127503
0.00626321
-0.0134987
0.00613232
-0.0141989
0.00571205
-0.0148818
0.0055536
-0.0155328
0.0052987
-0.0161857
0.00525789
-0.0168156
0.0050261
-0.0174286
0.00485255
-0.0180529
0.00495041
-0.0185859
0.00423877
-0.0191293
0.00431748
-0.0196069
0.0037652
-0.0200259
0.00334395
-0.0203818
0.00282919
-0.0206669
0.00228044
-0.0208698
0.00163283
-0.0209918
0.000994547
-0.0210236
0.000270733
-0.0209624
-0.000440165
-0.0208047
-0.00121467
-0.0205514
-0.00196632
-0.0201935
-0.00280987
-0.0197383
-0.00357964
-0.019178
-0.0044166
-0.0185245
-0.00515724
-0.0177749
-0.00593091
-0.0169308
-0.00668152
-0.0160036
-0.00735888
-0.0149873
-0.00807666
-0.0138865
-0.00875739
-0.0127006
-0.00944794
-0.0114297
-0.0101197
-0.0100553
-0.0109483
-0.00863432
-0.0113436
-0.00707306
-0.0124218
-0.00547347
-0.0127427
-0.0037759
-0.0135258
-0.0020115
-0.014025
-0.000185507
-0.0145136
0.00165798
-0.0146701
0.00351604
-0.0148003
0.0053957
-0.014938
0.00723363
-0.0145971
0.00895107
-0.013702
0.0105639
-0.012889
0.0120554
-0.0119491
0.0133739
-0.0106372
0.0145776
-0.00961584
0.0156215
-0.00822757
0.0163529
-0.00580068
0.0167164
-0.00292836
0.0166782
0.000190566
0.016247
0.00326542
0.0154912
0.00584519
0.0144419
0.00819346
0.0131799
0.00999055
0.0117263
0.0116119
0.0100238
0.0135737
0.00804969
0.0156838
0.00583593
0.017553
0.00350052
0.0185096
0.00123467
0.0180108
-0.000783428
0.0161303
-0.00245016
0.0133695
-0.00368476
0.00995847
-0.00446765
0.00637173
-0.00483212
0.0030425
-0.00488183
0.000511805
-0.0047429
-0.00104008
-0.00448464
-0.00202917
-0.00413707
-0.00275127
-0.00375168
-0.00305153
-0.00339554
-0.00282978
-0.00309257
-0.00242201
-0.00281453
-0.00222998
-0.00253189
-0.00227319
-0.00224906
-0.00227881
-0.0019622
-0.00231833
-0.00167027
-0.00236691
-0.00137673
-0.00238601
-0.00108531
-0.00237208
-0.000806129
-0.00227032
-0.00205953
-0.000549792
0.00917476
-0.0199234
0.0115355
-0.0206742
0.0139838
-0.0213776
0.0165068
-0.0219684
0.0190835
-0.0223887
0.0217046
-0.0227129
0.0243423
-0.0228175
0.0269754
-0.0227321
0.0295779
-0.0224512
0.0321165
-0.0218799
0.0345723
-0.0211331
0.0369057
-0.0200868
0.0390879
-0.0187801
0.0410928
-0.0172573
0.0428846
-0.0154211
0.0444378
-0.0133674
0.0457219
-0.0110693
0.0467067
-0.00851895
0.0473723
-0.00580757
0.0476947
-0.00289176
0.04766
0.000130342
0.0472571
0.00324851
0.0465044
0.00621625
0.0453815
0.00935072
0.0438907
0.0124566
0.0420587
0.0153661
0.0399113
0.0180676
0.0374792
0.0205132
0.0348046
0.0226238
0.0319322
0.0243728
0.0289117
0.0257222
0.0257959
0.0266416
0.0226361
0.0271447
0.019486
0.0272096
0.0163907
0.0268968
0.0133938
0.0262114
0.0105279
0.0252423
0.00782579
0.023986
0.0053
0.0225748
0.0029618
0.0210671
0.000833694
0.0193481
-0.00112168
0.0178505
-0.00287591
0.0161796
-0.00445531
0.0146154
-0.00589386
0.0134248
-0.00715101
0.0117951
-0.00832857
0.011063
-0.00935051
0.00963044
-0.0103379
0.00925667
-0.0111918
0.00804685
-0.0120391
0.00790188
-0.0127871
0.00701121
-0.0135274
0.00687268
-0.014222
0.00640667
-0.0149
0.00623154
-0.0155461
0.00594481
-0.0161972
0.00590897
-0.0168276
0.00565651
-0.0174448
0.00546973
-0.0180703
0.00557591
-0.0186067
0.00477524
-0.0191518
0.00486252
-0.0196329
0.00424629
-0.020053
0.00376404
-0.02041
0.00318617
-0.0206959
0.00256642
-0.0208991
0.00183598
-0.0210209
0.0011164
-0.0210494
0.000299178
-0.0209889
-0.000500608
-0.0208299
-0.0013737
-0.0205747
-0.00222159
-0.0202151
-0.00316946
-0.0197576
-0.00403708
-0.0191952
-0.00497899
-0.0185392
-0.00581323
-0.0177875
-0.00668264
-0.0169406
-0.0075284
-0.0160114
-0.00828813
-0.0149933
-0.00909478
-0.0138908
-0.00985984
-0.0127041
-0.0106346
-0.0114318
-0.011392
-0.0100565
-0.0123236
-0.00863532
-0.0127648
-0.0070712
-0.0139859
-0.0054694
-0.0143445
-0.00377026
-0.0152249
-0.00200209
-0.0157931
-0.000172909
-0.0163428
0.00167512
-0.0165182
0.00353628
-0.0166615
0.00542133
-0.0168231
0.00726594
-0.0164417
0.00898653
-0.0154226
0.0106012
-0.0145036
0.0120929
-0.0134408
0.0134074
-0.0119517
0.0146131
-0.0108216
0.0156664
-0.00928079
0.016404
-0.00653828
0.0167697
-0.00329407
0.0167276
0.000232599
0.0162884
0.00370468
0.015523
0.00661062
0.014464
0.0092524
0.0131977
0.0112568
0.0117456
0.013064
0.0100424
0.0152769
0.00806321
0.0176629
0.00584088
0.0197753
0.00349567
0.0208548
0.00122315
0.0202833
-0.000796827
0.0181503
-0.00246335
0.015036
-0.0036956
0.0111907
-0.00447445
0.00715058
-0.0048334
0.00340145
-0.00487782
0.000556225
-0.00473563
-0.00118227
-0.00447583
-0.00228897
-0.00412695
-0.00310015
-0.00374057
-0.00343791
-0.00338476
-0.00318559
-0.00308351
-0.00272326
-0.00280754
-0.00250595
-0.00252683
-0.0025539
-0.00224554
-0.00256011
-0.00195994
-0.00260392
-0.00166898
-0.00265787
-0.00137614
-0.00267884
-0.00108555
-0.00266267
-0.000807017
-0.00254886
-0.00231522
-0.000551332
0.00904027
-0.0222116
0.0114237
-0.0230577
0.0138989
-0.0238528
0.0164531
-0.0245225
0.0190648
-0.0250004
0.0217245
-0.0253726
0.0244035
-0.0254966
0.0270808
-0.0254094
0.0297282
-0.0250986
0.0323123
-0.024464
0.0348137
-0.0236346
0.0371912
-0.0224643
0.0394162
-0.0210051
0.041461
-0.0193021
0.0432896
-0.0172496
0.0448765
-0.0149544
0.0461901
-0.0123829
0.0471988
-0.00952764
0.0478809
-0.00648964
0.048212
-0.0032229
0.0481749
0.000167431
0.0477587
0.0036647
0.0469856
0.00698931
0.045836
0.0105003
0.0443113
0.0139814
0.0424373
0.0172401
0.0402395
0.0202654
0.0377512
0.0230015
0.0350158
0.0253591
0.0320812
0.0273074
0.0289983
0.0288052
0.0258223
0.0298176
0.0226067
0.0303604
0.0194064
0.0304099
0.0162691
0.0300341
0.0132375
0.0292429
0.0103454
0.0281344
0.00762675
0.0267047
0.0050935
0.025108
0.00275407
0.0234066
0.000632653
0.0214695
-0.001311
0.0197941
-0.00304883
0.0179174
-0.00461392
0.0161805
-0.00603243
0.0148433
-0.00727503
0.0130377
-0.00843216
0.0122202
-0.00943776
0.010636
-0.0104059
0.0102248
-0.0112477
0.00888869
-0.0120816
0.00873578
-0.0128194
0.00774899
-0.01355
0.00760331
-0.0142381
0.00709477
-0.0149105
0.00690389
-0.0155508
0.00658516
-0.0161994
0.00655751
-0.0168303
0.00628745
-0.0174518
0.00609122
-0.0180773
0.00620139
-0.0186187
0.0053167
-0.0191652
0.00540898
-0.01965
0.00473108
-0.0200715
0.00418556
-0.0204299
0.00354459
-0.0207165
0.00285302
-0.0209199
0.00203937
-0.0210415
0.00123796
-0.0210704
0.000328173
-0.0210078
-0.000563245
-0.0208473
-0.00153425
-0.0205897
-0.00247909
-0.0202282
-0.00353102
-0.0197687
-0.00449659
-0.0192041
-0.00554358
-0.0185453
-0.00647204
-0.0177909
-0.00743703
-0.0169415
-0.00837783
-0.0160105
-0.0092191
-0.0149913
-0.010114
-0.0138879
-0.0109633
-0.0127011
-0.0118214
-0.011428
-0.0126651
-0.0100522
-0.0136993
-0.00863147
-0.0141856
-0.00706606
-0.0155513
-0.00546313
-0.0159474
-0.00376249
-0.0169256
-0.00198952
-0.0175661
-0.000155101
-0.0181772
0.00169732
-0.0183706
0.00356187
-0.018526
0.00545273
-0.0187139
0.00730487
-0.0182939
0.00902924
-0.017147
0.0106461
-0.0161205
0.012138
-0.0149327
0.0134477
-0.0132615
0.0146553
-0.0120292
0.0157185
-0.010344
0.0164628
-0.00728258
0.0168308
-0.00366204
0.0167852
0.000278178
0.0163373
0.00415252
0.015562
0.00738598
0.0144935
0.0103209
0.0132237
0.0125266
0.0117742
0.0145135
0.010071
0.0169801
0.00808669
0.0196473
0.00585506
0.022007
0.0034986
0.0232112
0.00121725
0.0225646