/*--------------------------------*- C++ -*----------------------------------*\
| =========                 |                                                 |
| \\      /  F ield         | OpenFOAM: The Open Source CFD Toolbox           |
|  \\    /   O peration     | Version:  v1912                                 |
|   \\  /    A nd           | Website:  www.openfoam.com                      |
|    \\/     M anipulation  |                                                 |
\*---------------------------------------------------------------------------*/
FoamFile
{
    version     2.0;
    format      ascii;
    class       volScalarField;
    location    "90";
    object      p_rgh;
}
// * * * * * * * * * * * * * * * * * * * * * * * * * * * * * * * * * * * * * //

dimensions      [1 -1 -2 0 0 0 0];


internalField   nonuniform List<scalar> 
14268
(
895.646
1326.92
1774.05
2234.62
2705.85
3184.72
3667.5
4150.27
4628.79
5098.33
5554.23
5991.43
6404.86
6789.6
7140.78
7453.43
7722.68
7943.98
8113.28
8226.93
8281.88
8275.62
8204.22
8072.82
7878.8
7621.97
7304.43
6929.32
6500.79
6023.85
5504.29
4948.61
4364.34
3759.66
3142.46
2520.62
1901.53
1291.99
698.011
124.401
-424.867
-947.285
-1438.06
-1901.23
-2336.98
-2743.93
-3127.45
-3486.8
-3828.03
-4151.53
-4462.59
-4762.47
-5054.47
-5339.89
-5620.67
-5897.34
-6170.73
-6439.69
-6704.21
-6963.25
-7214.05
-7456.7
-7686.52
-7902.67
-8102.17
-8282.74
-8441.95
-8577.75
-8688.03
-8771.11
-8825.51
-8849.15
-8839.33
-8797.37
-8721.01
-8609.21
-8460.46
-8273.45
-8046.65
-7778.21
-7466.32
-7108.86
-6703.31
-6247.6
-5739.63
-5175.27
-4556.07
-3879.18
-3146.28
-2362.17
-1524.2
-633.89
290.739
1239.43
2200.04
3164.13
4113.45
5033.15
5918.81
6750.93
7507.31
8168.84
8701.44
9078.43
9268.93
9274.23
9077.03
8669.45
8049.35
7219.15
6173.95
4917.4
3516.23
2061.94
615.005
-710.727
-1860.38
-2778.05
-3467.42
-3989.92
-4378.81
-4631.64
-4780.58
-4891.61
-5038.47
-5197.02
-5284.29
-5249.24
-5084.98
-4817.55
-4487.58
-4135.62
-3787.27
-3463.34
900.72
1332.72
1780.6
2241.95
2713.96
3193.61
3677.15
4160.67
4639.88
5110.07
5566.53
6004.21
6418
6803
7154.3
7466.92
7735.97
7956.9
8125.65
8238.57
8292.71
8285.25
8212.52
8079.67
7884.08
7625.53
7306.18
6929.2
6498.78
6019.96
5498.59
4941.2
4355.39
3749.35
3130.99
2508.26
1888.55
1278.65
684.587
111.134
-437.755
-959.534
-1449.81
-1912.16
-2347.08
-2753.19
-3135.9
-3494.46
-3834.98
-4157.84
-4468.35
-4767.77
-5059.42
-5344.57
-5625.16
-5901.69
-6175.02
-6443.92
-6708.41
-6967.41
-7218.18
-7460.78
-7690.52
-7906.55
-8105.91
-8286.3
-8445.28
-8580.84
-8690.89
-8773.76
-8827.7
-8850.97
-8840.77
-8798.46
-8721.73
-8609.58
-8460.47
-8273.12
-8045.97
-7777.19
-7464.96
-7107.16
-6701.27
-6245.2
-5736.87
-5172.14
-4552.55
-3875.27
-3141.96
-2357.42
-1519.02
-628.299
296.664
1245.64
2206.47
3170.72
4120
5039.57
5925.09
6757.04
7513.18
8174.41
8708.28
9082.68
9272.09
9276.12
9077.62
8668.82
8047.49
7216.08
6169.65
4911.93
3510
2055.22
608.464
-716.691
-1865.41
-2781.92
-3470.14
-3991.84
-4380.17
-4632.5
-4781.02
-4891.85
-5038.77
-5197.38
-5284.51
-5249.22
-5084.75
-4817.2
-4487.22
-4135.31
-3787.14
-3463.7
900.752
1333.89
1783.02
2245.69
2719.14
3200.31
3685.43
4170.56
4651.42
5123.22
5581.26
6020.42
6435.61
6821.85
7174.22
7487.71
7757.39
7978.68
8147.47
8260.08
8313.61
8305.04
8230.91
8096.32
7898.68
7637.76
7315.78
6935.97
6502.54
6020.65
5496.22
4935.88
4347.3
3738.78
3118.27
2493.78
1872.71
1261.88
667.315
93.7695
-454.827
-975.934
-1465.6
-1926.88
-2360.66
-2765.56
-3147.07
-3504.45
-3843.88
-4165.72
-4475.39
-4774.1
-5065.18
-5349.9
-5630.2
-5906.54
-6179.8
-6448.67
-6713.19
-6972.28
-7223.12
-7465.81
-7695.6
-7911.63
-8110.94
-8291.23
-8450.06
-8585.39
-8695.12
-8777.5
-8831.35
-8854.33
-8843.81
-8801.16
-8724.09
-8611.6
-8462.17
-8274.5
-8047.04
-7777.96
-7465.44
-7107.37
-6701.2
-6244.85
-5736.24
-5171.17
-4551.24
-3873.56
-3139.77
-2354.68
-1515.69
-624.346
301.215
1250.78
2212.16
3176.92
4126.49
5046.15
5931.86
6764.02
7520.37
8181.78
8712.53
9088.88
9277.64
9280.4
9080.49
8670.27
8047.46
7214.48
6166.32
4906.64
3503.09
2047.36
600.539
-724.162
-1871.87
-2786.92
-3473.61
-3994.29
-4381.98
-4633.71
-4781.57
-4892.02
-5039.04
-5197.84
-5284.88
-5249.33
-5084.61
-4816.9
-4486.86
-4134.98
-3786.88
-3463.48
895.732
1330.41
1781.28
2245.86
2721.4
3204.83
3692.34
4180
4663.42
5137.83
5598.47
6040.15
6457.73
6846.23
7200.64
7515.9
7787.03
8009.38
8178.8
8291.53
8344.27
8335.08
8259.42
8122.79
7922.62
7658.63
7333.14
6949.44
6511.89
6025.72
5496.97
4932.42
4339.87
3727.73
3104.09
2476.99
1853.89
1241.62
646.21
72.3638
-476.014
-996.407
-1485.28
-1945.26
-2377.57
-2780.91
-3160.84
-3516.63
-3854.61
-4175.08
-4483.6
-4781.31
-5071.63
-5355.77
-5635.69
-5911.81
-6184.98
-6453.89
-6718.53
-6977.81
-7228.87
-7471.77
-7701.75
-7917.91
-8117.31
-8297.62
-8456.4
-8591.66
-8701.3
-8783.72
-8836.96
-8859.57
-8848.68
-8805.68
-8728.28
-8615.46
-8465.72
-8277.76
-8050.03
-7780.7
-7467.94
-7109.65
-6703.26
-6246.67
-5737.83
-5172.46
-4552.16
-3874.06
-3139.71
-2353.98
-1514.21
-622.038
304.385
1254.84
2217.11
3182.76
4132.9
5052.91
5939.13
6771.89
7528.9
8191.04
8724.92
9098.14
9286.21
9287.39
9085.78
8673.9
8049.3
7214.4
6164.08
4901.69
3495.46
2038.52
591.417
-733.006
-1879.68
-2793.05
-3477.82
-3997.23
-4384.21
-4635.21
-4782.21
-4892.13
-5039.29
-5198.41
-5285.43
-5249.59
-5084.57
-4816.65
-4486.52
-4134.65
-3786.66
-3463.53
885.605
1322.24
1775.33
2242.4
2720.69
3207.14
3697.87
4188.94
4675.9
5153.91
5618.16
6063.39
6484.42
6876.19
7233.6
7551.54
7824.95
8049.09
8219.74
8333.1
8386.19
8375.78
8298.45
8159.54
7956.39
7688.71
7358.89
6970.34
6527.54
6035.88
5501.56
4931.51
4333.74
3716.81
3088.94
2458.28
1832.36
1218.05
621.348
46.9412
-501.317
-1020.97
-1508.85
-1967.3
-2397.82
-2799.22
-3177.16
-3530.97
-3867.11
-4185.85
-4492.9
-4789.37
-5078.72
-5362.16
-5641.61
-5917.49
-6190.6
-6459.59
-6724.45
-6984.03
-7235.43
-7478.68
-7708.98
-7925.38
-8124.97
-8305.37
-8464.15
-8599.3
-8708.68
-8790.59
-8843.9
-8866.28
-8855.1
-8811.8
-8734.1
-8620.99
-8470.98
-8282.76
-8054.81
-7785.27
-7472.34
-7113.9
-6707.36
-6250.6
-5741.61
-5175.97
-4555.31
-3876.76
-3141.79
-2355.31
-1514.57
-621.365
306.184
1257.84
2221.34
3188.23
4139.25
5059.84
5946.88
6780.64
7538.77
8202.12
8734.4
9109.23
9296.84
9296.32
9092.87
8679.17
8052.56
7215.47
6162.56
4896.82
3487.42
2028.72
581.078
-743.228
-1888.83
-2800.3
-3482.78
-4000.7
-4386.87
-4637.04
-4782.97
-4892.17
-5039.5
-5199.09
-5286.13
-5249.99
-5084.61
-4816.44
-4486.19
-4134.32
-3786.41
-3463.34
870.314
1309.31
1765.12
2235.25
2716.97
3207.2
3701.98
4197.37
4688.83
5171.46
5640.37
6090.2
6515.71
6911.76
7273.16
7594.71
7871.23
8097.91
8270.39
8384.8
8438.08
8426.94
8347.89
8206.43
7999.82
7727.77
7392.79
6998.39
6549.23
6050.87
5509.7
4932.88
4328.63
3705.73
3072.56
2437.43
1807.95
1191
592.606
17.3927
-530.834
-1049.68
-1536.37
-1993.06
-2421.45
-2820.54
-3196.1
-3547.54
-3881.44
-4198.09
-4503.37
-4798.33
-5086.52
-5369.11
-5648.02
-5923.62
-6196.72
-6465.84
-6731
-6991
-7242.86
-7486.6
-7717.36
-7934.13
-8134.03
-8314.63
-8473.53
-8608.72
-8718.14
-8800.15
-8852.86
-8874.88
-8863.36
-8819.73
-8741.72
-8628.32
-8478.06
-8289.6
-8061.45
-7791.76
-7478.69
-7120.16
-6713.54
-6256.65
-5747.57
-5181.71
-4560.69
-3881.69
-3146.03
-2358.67
-1516.8
-622.341
306.597
1259.77
2224.84
3193.34
4145.53
5066.96
5955.11
6790.26
7549.98
8215.1
8749.37
9123.06
9310.4
9307.99
9102.43
8686.66
8057.73
7218.05
6162.05
4892.25
3478.89
2017.95
569.501
-754.856
-1899.36
-2808.68
-3488.48
-4004.68
-4389.98
-4639.2
-4783.84
-4892.14
-5039.69
-5199.88
-5287
-5250.52
-5084.74
-4816.27
-4485.88
-4133.99
-3786.17
-3463.3
849.768
1291.53
1750.55
2224.32
2710.15
3204.91
3704.6
4205.24
4702.18
5190.44
5665.08
6120.56
6551.62
6952.99
7319.38
7645.47
7925.97
8155.92
8330.86
8446.74
8500.07
8488.7
8407.8
8263.5
8052.94
7775.85
7434.83
7033.56
6576.87
6070.55
5521.23
4936.32
4324.33
3694.26
3054.74
2414.23
1780.43
1160.29
559.819
-16.4138
-564.672
-1082.63
-1567.89
-2022.55
-2448.44
-2844.85
-3217.59
-3566.24
-3897.5
-4211.71
-4514.89
-4808.08
-5094.91
-5376.52
-5654.82
-5930.11
-6203.21
-6472.52
-6738.1
-6998.62
-7251.09
-7495.43
-7726.8
-7944.06
-8144.37
-8325.25
-8484.32
-8619.54
-8728.79
-8810.44
-8863.19
-8885
-8873.2
-8829.28
-8750.99
-8637.34
-8486.86
-8298.2
-8069.9
-7800.09
-7486.96
-7128.4
-6721.77
-6264.82
-5755.72
-5189.67
-4568.31
-3888.85
-3152.41
-2364.08
-1520.89
-624.96
305.631
1260.62
2227.61
3198.1
4151.76
5074.25
5963.83
6800.74
7562.53
8229.94
8765.6
9139.25
9326.51
9322.04
9114.19
8696.18
8064.67
7222.03
6162.49
4887.92
3469.84
2006.2
556.675
-767.89
-1911.26
-2818.18
-3494.91
-4009.16
-4393.51
-4641.68
-4784.8
-4892.04
-5039.84
-5200.78
-5288.04
-5251.2
-5084.97
-4816.15
-4485.58
-4133.67
-3785.91
-3463.13
823.863
1268.79
1731.51
2209.49
2700.11
3200.19
3705.64
4212.48
4715.89
5210.84
5692.26
6154.49
6592.17
6999.92
7372.31
7703.9
7989.26
8223.26
8401.29
8519.15
8573.41
8561.34
8478.44
8331.02
8116
7833.13
7485.16
7075.94
6610.53
6094.97
5536.15
4941.81
4320.76
3682.32
3035.36
2388.53
1749.69
1125.79
522.867
-54.5914
-602.927
-1119.83
-1603.46
-2055.82
-2478.81
-2872.17
-3241.64
-3587.09
-3915.27
-4226.69
-4527.45
-4818.62
-5103.89
-5384.38
-5661.99
-5936.97
-6210.09
-6479.67
-6745.77
-7006.94
-7260.17
-7505.26
-7737.38
-7955.26
-8156.11
-8337.39
-8496.73
-8632.11
-8741.46
-8823.14
-8875.44
-8896.95
-8884.84
-8840.63
-8762.07
-8648.17
-8497.49
-8308.67
-8080.26
-7810.38
-7497.22
-7138.69
-6732.11
-6275.15
-5766.07
-5199.89
-4578.19
-3898.25
-3160.97
-2371.55
-1526.85
-629.24
303.264
1260.39
2229.65
3202.51
4157.93
5081.73
5973.03
6812.07
7576.42
8246.66
8784.05
9157.83
9345.24
9338.51
9128.14
8707.7
8073.34
7227.43
6163.89
4883.84
3460.26
1993.44
542.594
-782.344
-1924.52
-2828.8
-3502.07
-4014.15
-4397.48
-4644.48
-4785.87
-4891.86
-5039.96
-5201.8
-5289.24
-5252.02
-5085.28
-4816.07
-4485.29
-4133.33
-3785.65
-3463.06
792.459
1240.94
1707.83
2190.61
2686.71
3192.88
3704.98
4218.97
4729.87
5232.59
5721.88
6191.95
6637.36
7052.57
7432
7770.07
8061.18
8300.04
8481.81
8602.15
8657.43
8644.95
8559.89
8409.02
8189
7899.62
7543.8
7125.54
6650.17
6124.03
5554.34
4949.18
4317.75
3669.7
3014.21
2360.15
1715.52
1087.32
481.582
-97.2945
-645.752
-1161.4
-1643.19
-2092.93
-2512.6
-2902.52
-3268.23
-3610.08
-3934.76
-4243.03
-4541.01
-4829.91
-5113.42
-5392.68
-5669.53
-5944.18
-6217.36
-6487.26
-6753.99
-7015.93
-7270.08
-7516.04
-7749.07
-7967.69
-8169.18
-8350.94
-8510.62
-8646.17
-8755.49
-8837.03
-8889.22
-8910.5
-8898.12
-8853.65
-8774.86
-8660.73
-8509.9
-8320.95
-8092.46
-7822.57
-7509.45
-7151.01
-6744.56
-6287.64
-5778.65
-5212.36
-4590.32
-3909.9
-3171.71
-2381.1
-1534.69
-635.175
299.501
1259.08
2230.97
3206.58
4164.06
5089.4
5982.68
6824.22
7591.65
8265.28
8804.96
9178.83
9366.62
9357.41
9144.31
8721.26
8083.81
7234.3
6166.3
4880.04
3450.15
1979.68
527.235
-798.247
-1939.18
-2840.57
-3509.96
-4019.63
-4401.88
-4647.61
-4787.03
-4891.61
-5040.05
-5202.92
-5290.6
-5252.97
-5085.68
-4816.03
-4485.01
-4133
-3785.4
-3462.88
755.406
1207.82
1679.36
2167.51
2669.78
3182.84
3702.48
4224.6
4744.04
5255.61
5753.9
6232.94
6687.2
7110.97
7498.5
7844.07
8141.87
8386.39
8572.59
8695.93
8752.63
8739.76
8652.42
8497.83
8272.28
7975.62
7610.97
7182.53
6695.93
6157.84
5575.84
4958.42
4315.21
3656.28
2991.13
2328.89
1677.72
1044.68
435.782
-144.681
-693.302
-1207.4
-1687.19
-2133.94
-2549.85
-2935.94
-3297.38
-3635.21
-3955.9
-4260.66
-4555.52
-4841.89
-5123.43
-5401.34
-5677.37
-5951.69
-6224.96
-6495.27
-6762.74
-7025.59
-7280.83
-7527.79
-7761.88
-7981.39
-8183.64
-8365.98
-8526.08
-8661.9
-8771.35
-8852.82
-8904.76
-8925.79
-8913.13
-8868.4
-8789.36
-8675.02
-8524.03
-8334.97
-8106.45
-7836.59
-7523.57
-7165.3
-6759.06
-6302.28
-5793.46
-5227.16
-4604.78
-3923.82
-3184.64
-2392.72
-1544.44
-642.793
294.313
1256.65
2231.55
3210.31
4170.14
5097.25
5992.78
6837.17
7608.2
8285.78
8827.86
9202.19
9390.69
9378.76
9162.71
8736.88
8096.06
7242.6
6169.67
4876.48
3439.48
1964.89
510.603
-815.575
-1955.19
-2853.41
-3518.6
-4025.58
-4406.7
-4651.06
-4788.3
-4891.27
-5040.09
-5204.16
-5292.14
-5254.07
-5086.17
-4816.04
-4484.75
-4132.68
-3785.14
-3462.8
712.516
1169.22
1645.88
2139.97
2649.11
3169.84
3697.94
4229.2
4758.24
5279.8
5788.23
6277.39
6741.67
7175.11
7571.85
7925.96
8231.41
8482.46
8673.82
8800.67
8859.16
8846
8756.18
8597.52
8365.84
8061.11
7686.65
7246.86
6747.71
6196.23
5600.44
4969.3
4312.89
3641.78
2965.83
2294.46
1636.02
997.629
385.249
-196.942
-745.779
-1257.91
-1735.48
-2178.88
-2590.59
-2972.44
-3329.04
-3662.44
-3978.66
-4279.55
-4570.92
-4854.51
-5133.87
-5410.32
-5685.49
-5959.47
-6232.91
-6503.53
-6772.04
-7035.92
-7292.42
-7540.53
-7775.83
-7996.36
-8199.47
-8382.5
-8543.09
-8679.22
-8788.82
-8870.28
-8921.98
-8942.76
-8929.82
-8884.82
-8805.55
-8691
-8539.87
-8350.73
-8122.19
-7852.4
-7539.51
-7181.47
-6775.53
-6318.95
-5810.34
-5244.16
-4621.46
-3939.99
-3199.77
-2406.44
-1556.08
-652.078
287.715
1253.12
2231.41
3213.71
4176.18
5105.29
6003.31
6850.9
7626.08
8308.2
8853.82
9228.04
9417.63
9402.7
9183.41
8754.58
8110.1
7252.3
6173.95
4873.05
3428.12
1949.01
492.705
-834.283
-1972.55
-2867.39
-3527.75
-4032.06
-4411.98
-4654.85
-4789.67
-4890.85
-5040.12
-5205.53
-5293.84
-5255.31
-5086.76
-4816.09
-4484.51
-4132.35
-3784.87
-3462.6
663.589
1124.94
1607.15
2107.75
2624.46
3153.69
3691.19
4232.61
4772.36
5305.05
5824.78
6325.27
6800.72
7245
7652.07
8015.8
8329.91
8588.39
8785.63
8916.59
8977.18
8963.88
8871.49
8708.44
8470.08
8156.47
7771.16
7318.82
6805.71
6239.36
5628.22
4981.79
4310.69
3626.03
2938.1
2256.64
1590.18
945.921
329.758
-254.276
-803.53
-1312.97
-1788.14
-2227.87
-2634.88
-3012.03
-3363.19
-3691.73
-4003
-4299.67
-4587.22
-4867.77
-5144.77
-5419.65
-5693.89
-5967.54
-6240.98
-6512.3
-6781.74
-7046.79
-7304.76
-7554.15
-7790.86
-8012.55
-8216.65
-8400.47
-8561.64
-8698.16
-8807.92
-8889.32
-8940.84
-8961.39
-8948.19
-8902.95
-8823.46
-8708.72
-8557.49
-8368.3
-8139.76
-7870.08
-7557.38
-7199.63
-6794.07
-6337.76
-5829.38
-5263.38
-4640.37
-3958.45
-3217.13
-2422.27
-1569.65
-663.066
279.671
1248.47
2230.54
3216.79
4182.2
5113.54
6014.24
6865.34
7645.24
8332.52
8881.72
9256.12
9447.11
9428.79
9206.03
8774.08
8125.69
7263.22
6179
4869.72
3416.1
1932.08
473.594
-854.423
-1991.35
-2882.62
-3538.11
-4039
-4417.69
-4658.96
-4791.14
-4890.35
-5040.1
-5207.01
-5295.72
-5256.69
-5087.43
-4816.19
-4484.28
-4132.03
-3784.59
-3462.53
608.392
1074.71
1562.91
2070.57
2595.56
3134.09
3681.96
4234.6
4786.2
5331.22
5863.46
6376.47
6864.32
7320.62
7739.21
8113.69
8437.51
8704.37
8908.3
9043.88
9105.65
9093.57
8998.44
8830.67
8584.98
8261.61
7864.43
7398.23
6869.75
6286.96
5658.89
4995.57
4308.28
3608.69
2907.59
2215.06
1539.87
889.242
269.056
-316.845
-866.896
-1372.42
-1845.38
-2280.97
-2682.76
-3054.71
-3399.85
-3723.04
-4028.75
-4320.85
-4604.16
-4881.39
-5155.83
-5429.01
-5702.25
-5975.58
-6249.23
-6521.38
-6791.82
-7058.18
-7317.89
-7568.72
-7807.01
-8030
-8235.23
-8419.93
-8581.79
-8718.75
-8828.8
-8910.32
-8961.54
-8981.81
-8968.33
-8922.87
-8843.17
-8728.25
-8576.95
-8387.75
-8159.27
-7889.75
-7577.3
-7219.91
-6814.8
-6358.83
-5850.73
-5285.01
-4661.69
-3979.26
-3236.77
-2440.27
-1585.22
-675.825
270.048
1242.52
2228.79
3219.45
4188.13
5121.93
6025.57
6880.51
7665.7
8358.72
8910.85
9286.38
9479.37
9457.33
9230.9
8795.72
8143.22
7275.81
6185.31
4866.84
3403.62
1914.18
453.183
-876.122
-2011.64
-2898.92
-3548.42
-4046.42
-4423.83
-4663.4
-4792.71
-4889.75
-5040.04
-5208.61
-5297.76
-5258.22
-5088.19
-4816.34
-4484.07
-4131.71
-3784.33
-3462.3
546.683
1018.25
1512.85
2028.12
2562.09
3110.76
3669.98
4234.93
4799.57
5358.13
5904.11
6430.93
6932.38
7401.94
7833.22
8219.63
8554.26
8830.5
9042
9183.09
9249.53
9236.06
9137.83
8964.98
8711.37
8377.4
7967.18
7485.86
6940.43
6339.55
5692.75
5010.78
4305.58
3589.54
2873.97
2169.38
1484.71
827.245
202.791
-384.859
-933.781
-1438.81
-1907.39
-2338.29
-2734.33
-3100.49
-3439.04
-3756.36
-4055.96
-4343.03
-4621.72
-4895.38
-5167.02
-5438.47
-5710.71
-5983.83
-6257.92
-6530.7
-6802.57
-7070.34
-7332
-7584.42
-7824.42
-8048.85
-8255.3
-8440.96
-8603.55
-8741
-8851.3
-8932.89
-8983.85
-9003.85
-8990.13
-8944.46
-8864.59
-8749.52
-8598.17
-8408.98
-8180.59
-7911.28
-7599.11
-7242.12
-6837.57
-6382.02
-5874.21
-5308.91
-4685.29
-4002.35
-3258.65
-2460.4
-1602.72
-690.273
259.029
1235.45
2226.2
3221.61
4193.83
5130.31
6036.95
6896
7687.26
8386.84
8945.44
9319.33
9514.91
9488.78
9258.37
8819.74
8162.8
7289.99
6192.61
4864.07
3390.39
1895.12
431.417
-899.355
-2033.4
-2916.56
-3560.48
-4054.35
-4430.4
-4668.17
-4794.35
-4889.03
-5039.91
-5210.31
-5299.97
-5259.88
-5089.04
-4816.52
-4483.86
-4131.38
-3784.06
-3462.25
494.111
969.842
1469.59
1991.08
2532.51
3089.69
3658.54
4234.01
4809.86
5380.13
5938.07
6476.96
6990.38
7471.65
7914.3
8311.45
8655.96
8940.89
9159.53
9305.85
9372.76
9362.32
9261.75
9084.87
8824.39
8481.12
8059.36
7564.4
7003.7
6386.31
5722.38
5023.26
4301.57
3570.29
2841.3
2125.44
1431.89
767.99
139.539
-449.815
-998.078
-1502.09
-1966.97
-2393.46
-2784.07
-3144.67
-3476.98
-3788.63
-4082.39
-4364.62
-4638.84
-4909.08
-5178.1
-5447.92
-5719.31
-5992.33
-6266.75
-6540.46
-6813.78
-7083.1
-7346.91
-7601.17
-7843.08
-8069.18
-8277.06
-8463.9
-8627.42
-8765.58
-8876.35
-8958.08
-9008.91
-9028.72
-9014.96
-8969.24
-8889.36
-8774.29
-8623.08
-8434.13
-8206.05
-7937.19
-7625.59
-7269.3
-6865.69
-6410.94
-5903.74
-5339.29
-4715.57
-4032.24
-3287.22
-2486.93
-1625.8
-709.351
244.654
1226.65
2223.87
3226.18
4203.64
5144.26
6055.45
6920.99
7722.43
8433.27
8997.11
9374.24
9575.86
9542.95
9306.23
8862.11
8197.36
7314.34
6203.31
4854.2
3358.09
1849.34
378.429
-957.045
-2088.76
-2962.44
-3589.98
-4072.82
-4450.54
-4683.38
-4800.08
-4887.2
-5040.45
-5217.84
-5309.4
-5266.57
-5091.2
-4814.18
-4478.15
-4123.62
-3775.29
-3452.8
454.919
933.445
1436.76
1962.65
2509.49
3072.92
3648.96
4232.39
4816.83
5396.16
5963.41
6511.79
7034.74
7525.47
7977.39
8383.49
8736.35
9028.79
9253.8
9405.14
9478.65
9466
9363.96
9184.3
8918.73
8568.23
8137.3
7631.29
7058
6426.79
5748.36
5034.52
4298.51
3553.83
2812.89
2086.87
1385.19
715.262
82.8894
-508.292
-1056.4
-1559.49
-2021.41
-2444.14
-2829.98
-3185.59
-3512.25
-3818.62
-4106.97
-4384.65
-4654.65
-4921.67
-5188.16
-5456.49
-5727.12
-6000.13
-6274.94
-6549.71
-6824.52
-7095.62
-7361.82
-7618.19
-7862.28
-8090.34
-8299.96
-8488.3
-8653.08
-8792.24
-8903.8
-8986.08
-9037.2
-9056.98
-9043.47
-8998.02
-8918.44
-8803.74
-8653.08
-8464.83
-8237.54
-7969.66
-7659.23
-7304.31
-6902.38
-6449.12
-5943.15
-5380.47
-4757.21
-4074.08
-3328.02
-2525.31
-1660.89
-739.238
220.565
1209.95
2216.66
3229.1
4214.28
5161.1
6078.99
6954.01
7771.41
8501.35
9081.21
9463.26
9669.03
9630.97
9386.29
8936.81
8262.33
7365.64
6234.38
4850.66
3312.82
1777.8
292.227
-1055.65
-2187.55
-3049.68
-3661.29
-4170.19
-4491.55
-4714.32
-4811.31
-4879.81
-5037.81
-5234.14
-5333.83
-5288.13
-5105.31
-4820.2
-4477.67
-4119.59
-3770.15
-3448.32
413.607
894.961
1401.9
1932.33
2484.76
3054.71
3638.26
4230.02
4823.48
5412.32
5989.33
6547.67
7080.6
7581.27
8042.97
8458.52
8820.26
9120.69
9352.49
9509.16
9585.51
9574.87
9471.55
9289
9018.22
8660.23
8219.7
7702.15
7115.56
6469.75
5775.89
5046.39
4295.09
3536.13
2782.46
2045.68
1335.4
659.12
22.6594
-570.363
-1118.35
-1620.13
-2078.92
-2497.66
-2878.37
-3228.56
-3549.25
-3849.97
-4132.54
-4405.36
-4670.81
-4934.41
-5198.23
-5464.94
-5734.76
-6007.63
-6282.89
-6558.84
-6835.21
-7108.62
-7377.45
-7636.14
-7882.6
-8112.83
-8324.35
-8514.22
-8680.48
-8820.85
-8933.53
-9023.12
-9067.45
-9087.22
-9074.06
-9028.93
-8949.69
-8835.4
-8685.33
-8497.84
-8271.42
-8004.67
-7695.62
-7342.87
-6943.13
-6491.71
-5987.08
-5426.5
-4803.69
-4121.05
-3374.09
-2568.94
-1700.88
-773.665
192.335
1189.58
2206.74
3230.62
4224.91
5178.88
6103.58
6988.96
7824.78
8577.12
9174.5
9567.43
9771.47
9731.43
9478.35
9024.4
8339.59
7427.7
6273.26
4847.76
3258.87
1692.78
190.64
-1173.04
-2303.77
-3144.99
-3702.27
-4104.21
-4521.56
-4753.1
-4824.52
-4867.4
-5032.12
-5255.43
-5366.83
-5318.12
-5125.71
-4829.93
-4478.56
-4115.17
-3763.35
-3440.99
370.106
854.325
1364.96
1900.05
2458.24
3034.97
3626.34
4226.82
4829.72
5428.51
6015.75
6584.53
7127.92
7639.01
8111.01
8536.53
8907.69
9216.64
9455.72
9618.05
9698.01
9689.17
9584.62
9398.95
9122.78
8756.94
8306.39
7776.67
7176.03
6514.78
5804.55
5058.45
4290.98
3516.91
2749.83
2001.72
1282.43
599.546
-41.1422
-636.049
-1183.85
-1684
-2139.47
-2554.01
-2929.16
-3273.5
-3587.85
-3882.47
-4158.91
-4426.53
-4687.08
-4946.89
-5207.89
-5473
-5742.07
-6015.06
-6290.85
-6568.16
-6846.21
-7121.95
-7393.59
-7654.84
-7903.89
-8136.45
-8350.01
-8541.63
-8709.39
-8850.88
-8963.9
-9042.79
-9099.17
-9119.41
-9106.74
-9061.98
-8983.13
-8869.29
-8719.9
-8533.27
-8307.8
-8042.3
-7734.76
-7383.9
-6986.58
-6537.7
-6035.76
-5477.9
-4855.51
-4173.4
-3425.6
-2617.87
-1745.96
-812.749
159.784
1165.57
2194.74
3231.17
4235.3
5197.02
6128.17
7024.7
7881.8
8661.23
9281.16
9688.34
9891.78
9847.63
9582.86
9124.47
8428.79
7499.48
6317.95
4844.03
3195.1
1594.12
74.4844
-1310.4
-2443.15
-3270.01
-3808.97
-4333.16
-4636.63
-4802.45
-4840.25
-4848.94
-5022.06
-5283.81
-5409.8
-5356.85
-5152.42
-4843.38
-4480.83
-4110.57
-3755.77
-3433.19
324.362
811.471
1325.86
1865.71
2429.86
3013.6
3613.12
4222.7
4835.49
5444.67
6042.61
6622.32
7176.66
7698.68
8181.5
8617.55
8998.67
9316.66
9563.49
9731.9
9815.69
9808.95
9703.28
9514.26
9232.49
8858.52
8397.43
7854.92
7239.53
6561.98
5834.47
5070.86
4286.25
3496.21
2714.91
1954.84
1226.04
536.242
-108.846
-705.611
-1253.08
-1751.22
-2203.32
-2612.9
-2982.35
-3320.46
-3628.08
-3916.13
-4186.07
-4447.85
-4703.27
-4959.35
-5217.42
-5480.96
-5749.36
-6022.74
-6299.08
-6577.88
-6857.65
-7135.71
-7410.46
-7674.49
-7926.39
-8161.51
-8377.36
-8571.16
-8740.67
-8883.66
-8998.18
-9081.67
-9134.91
-9153.59
-9141.53
-9097.23
-9018.88
-8905.62
-8757.04
-8571.47
-8347.14
-8083.03
-7777.17
-7427.82
-7033.09
-6587.04
-6087.14
-5533
-4913.37
-4231.73
-3482.75
-2672.17
-1796.17
-856.73
122.728
1137.69
2180.22
3230.68
4245.61
5215.63
6152.42
7059.96
7941.85
8753.08
9396.78
9815.41
10019
9969.11
9694.41
9233.97
8528.56
7580.92
6370.3
4841.46
3120.13
1478.79
-58.1263
-1471.57
-2601.67
-3402.44
-3852.48
-4151.01
-4588.27
-4843.14
-4858.09
-4821.68
-5005.19
-5319.41
-5463.66
-5405.06
-5185.92
-4860.54
-4484.29
-4105.43
-3746.55
-3423.03
276.358
766.37
1284.54
1829.27
2399.55
2990.57
3598.55
4217.64
4840.79
5460.85
6069.96
6661.05
7226.81
7760.25
8254.42
8701.55
9093.23
9420.84
9675.92
9850.82
9938.98
9934.43
9827.78
9635.07
9347.61
8965.17
8493.07
7937.14
7306.22
6611.46
5865.62
5083.43
4280.64
3473.66
2677.38
1904.75
1166.06
469.109
-180.402
-779.015
-1326.09
-1822.02
-2270.6
-2674.37
-3038.12
-3369.41
-3669.54
-3950.61
-4213.7
-4469.63
-4719.75
-4972.04
-5226.97
-5488.78
-5756.56
-6030.25
-6307.15
-6587.58
-6869.19
-7150.06
-7428.08
-7695.11
-7949.92
-8187.55
-8405.66
-8601.31
-8772.5
-8916.65
-9031.73
-9114.76
-9165.32
-9189.08
-9178.39
-9134.66
-9056.81
-8944.15
-8796.46
-8612.05
-8388.99
-8126.44
-7822.48
-7475.33
-7083.8
-6640.83
-6141.97
-5591.52
-4974.09
-4296.39
-3546.4
-2732.46
-1851.51
-905.447
81.2627
1106.04
2163.16
3229.16
4257.13
5236.32
6177.64
7095.53
8004.27
8853.23
9526.14
9962.51
10165.3
10107.9
9820.51
9357.73
8643.69
7675.8
6432.4
4840.03
3034.29
1347.78
-202.121
-1644.58
-2785.13
-3562.18
-3978.57
-4494.59
-4851.39
-4954.89
-4896.39
-4792.68
-4980.04
-5365.19
-5529.67
-5462.88
-5225.37
-4880.2
-4487.65
-4098.77
-3735.73
-3411.55
225.976
718.898
1240.87
1790.59
2367.18
2965.72
3582.48
4211.5
4845.51
5476.91
6097.71
6700.71
7278.36
7823.71
8329.75
8788.56
9191.38
9529.18
9793.05
9974.89
10067.7
10065.6
9958.1
9761.19
9468.01
9076.78
8593.18
8023.13
7375.84
6662.84
5897.57
5095.71
4273.78
3448.94
2636.96
1851.22
1102.21
397.811
-256.317
-856.589
-1402.95
-1896.34
-2340.83
-2738.97
-3095.42
-3419.68
-3712.35
-3986.24
-4242.23
-4492.24
-4736.65
-4984.65
-5236.31
-5496.43
-5763.63
-6037.73
-6315.32
-6597.46
-6881.07
-7165.17
-7446.93
-7717.29
-7975.53
-8216.13
-8436.88
-8634.91
-8808.14
-8953.93
-9070.94
-9156.35
-9213.17
-9231.39
-9218.43
-9173.78
-9096.21
-8984.34
-8837.76
-8654.75
-8433.17
-8172.32
-7870.48
-7525.68
-7137.66
-6698.46
-6201.77
-5655.16
-5038.01
-4363.29
-3615.08
-2798.11
-1912.23
-959.201
35.1925
1070.2
2143.36
3226.27
4269.28
5259.31
6203.73
7131
8068.12
8961.41
9665.78
10123.5
10326.4
10261.9
9959.77
9494.85
8774.53
7784.43
6506.62
4842.51
2933.05
1194.45
-361.027
-1868.74
-3025.61
-3736.2
-4050.28
-4238.26
-4674.9
-4952.77
-4882.44
-4701.17
-4915.01
-5419.66
-5604.55
-5529.81
-5271.54
-4903.07
-4491.24
-4090.04
-3721.83
-3397.67
170.516
666.475
1192.44
1747.44
2330.85
2937.58
3563.9
4203.81
4849.76
5493.62
6127.23
6743.32
7334.08
7892.55
8411.71
8883.48
9298.74
9647.94
9921.66
10111.3
10209.5
10210.1
10102.3
9899.97
9600.9
9200
8703.63
8117.93
7452.56
6719.37
5932.51
5108.9
4265.66
3420.94
2591.46
1791.17
1030.79
318.23
-340.958
-942.846
-1488.24
-1978.71
-2418.51
-2809.46
-3158.43
-3475.19
-3760
-4025.51
-4273.29
-4516.17
-4754.16
-4997.45
-5245.49
-5503.69
-5770.54
-6045.29
-6323.56
-6607.71
-6893.4
-7180.82
-7466.34
-7739.96
-8001.23
-8244.41
-8467.49
-8667.36
-8842.53
-8989.51
-9107.01
-9189.73
-9232.47
-9255.02
-9247.6
-9209.74
-9138.19
-9028.77
-8883.68
-8702.64
-8483.05
-8224.07
-7924.37
-7582.63
-7198
-6763.85
-6269.55
-5727.81
-5114.37
-4438.37
-3691.97
-2873.6
-1982.82
-1022.37
-19.4804
1027.37
2119.14
3221.21
4282.01
5283.96
6229.31
7165.6
8136.56
9086.08
9829.38
10309.8
10509.9
10435.2
10117.5
9652
8929.8
7911.21
6590.64
4831.42
2800.4
1009.4
-526.303
-2057.95
-3166.81
-3882.81
-4162.35
-4634.88
-5143.78
-5179.9
-5008.26
-4725.04
-4969.01
-5513.89
-5718.05
-5620.37
-5327.06
-4928
-4492.09
-4076.43
-3703.66
-3380.8
109.622
608.718
1138.8
1699.37
2289.99
2905.56
3542.36
4194.34
4853.5
5511.03
6158.71
6789.13
7394.25
7967.09
8500.72
8986.88
9416.04
9778.06
10062.9
10261.5
10366
10370.6
10263.2
10053.4
9748.61
9337.15
8826.7
8223.79
7538.44
6782.78
5971.53
5123.36
4255.98
3388.73
2539.55
1723.01
950.206
228.954
-435.474
-1038.73
-1582.12
-2068.47
-2500.83
-2883.98
-3224.48
-3529.92
-3803.42
-4056.5
-4292.69
-4523.85
-4750.62
-4982.57
-5219.06
-5464.31
-5715.14
-5966.97
-6214.38
-6453.92
-6681.37
-6880.79
-7041.87
-7162.48
-7224.02
-7226.11
-7177.44
-7083.29
-6956.73
-6812.86
-6673.61
-6568.95
-6507.92
-6484.21
-6502.64
-6558.09
-6644.16
-6750.73
-6854.9
-6947.45
-7033.22
-7097.81
-7125.51
-7097.79
-6983.88
-6749.81
-6346.23
-5809.2
-5202.24
-4529.78
-3780.22
-2959.94
-2065.43
-1096.46
-84.5938
975.052
2088.87
3213.18
4299.44
5314.29
6255.58
7198.07
8211.02
9227.58
10019.3
10542.7
10730
10640.1
10301.7
9834.78
9122.91
8059.99
6693.4
4831.12
2642.97
797.218
-688.398
-2348.99
-3409.97
-3849.91
-3800.13
-3865.41
-4330.85
-4659.76
-4575.35
-4216.29
-4447.86
-5535.03
-5833.08
-5713.23
-5390.65
-4958.24
-4491.37
-4056.11
-3675.96
-3353.84
45.8896
548.122
1082.28
1648.53
2246.71
2871.24
3518.68
4183.16
4856.2
5528.01
6190.38
6835.79
7455.86
8043.66
8592.45
9093.76
9537.69
9913.34
10210.1
10418.3
10529.4
10537.1
10431.8
10212.3
9902.67
9480.4
8955.17
8334.05
7627.55
6847.79
6010.26
5135.86
4242.84
3351.86
2482.43
1649.62
864.852
136.268
-530.471
-1130.19
-1664.68
-2138.5
-2553.56
-2915.14
-3226.31
-3497.33
-3730.23
-3934.3
-4114.89
-4276.31
-4420.28
-4542.52
-4636.72
-4688.69
-4678.22
-4576.07
-4369.56
-4091.46
-3783.97
-3443.04
-3084.77
-2729.23
-2381.88
-2059.51
-1766.7
-1510.03
-1290.54
-1121.07
-996.476
-910.051
-856.635
-833.358
-840.178
-877.124
-950.333
-1067.32
-1238.85
-1468.73
-1755.98
-2101.81
-2509.2
-2968.03
-3468.72
-3968.24
-4390.49
-4554.18
-4533.19
-4321.16
-3838.28
-3053.24
-2154.95
-1175.8
-154.445
918.106
2053.85
3202.83
4316.99
5347.34
6280.09
7224.95
8278.41
9374.79
10224.1
10788.3
10960.1
10858.8
10497.2
10026.2
9327.76
8239.26
6810.27
4848.59
2497.5
669.845
-594.518
-1317.88
-61.8999
423.141
322.999
-540.9
-1608.5
-1751.11
-1511.71
-1183.76
-1975.23
-3301.98
-3978.83
-4383.24
-4508.88
-4479.02
-4298.2
-3995.34
-3643.01
-3323.13
-23.1469
483.165
1021.6
1593.53
2200.05
2834.32
3492.78
4170.31
4857.97
5544.58
6222.21
6883.25
7518.87
8122.21
8686.9
9204.12
9663.71
10053.8
10363.3
10581.6
10699.6
10711.4
10610.1
10377.8
10063.6
9630.09
9088.93
8448.34
7719.53
6914.29
6048.82
5147.13
4227.62
3312.79
2424.4
1579.12
789.697
67.8433
-574.093
-1120.09
-1559.82
-1887.8
-2098.4
-2193.75
-2184.9
-2108.58
-2017.76
-1917.1
-1810.98
-1695.01
-1571.78
-1434.71
-1285.3
-1123.49
-953.987
-786.626
-638.93
-513.093
-398.108
-297.136
-212.665
-143.784
-92.2587
-56.3596
-32.3189
-19.116
-14.8903
-13.9141
-12.971
-12.1561
-11.3285
-10.7384
-10.6036
-10.9654
-12.0892
-14.1542
-17.4237
-22.671
-30.8134
-43.7869
-65.3961
-100.883
-163.078
-273.191
-469.953
-805.883
-1237.63
-1705.19
-2115.8
-2188.91
-1866.46
-1214.67
-229.718
855.379
2014.67
3189.61
4336.59
5384.31
6301.6
7237.63
8350.22
9525.35
10439.4
11058.7
11223.9
11092.7
10708.3
10243.1
9544.66
8450.76
6933.47
4886.69
2845.37
2522.93
2246.62
2113.16
2214.21
2034.15
1627.42
1054.48
742.878
401.288
-540.34
53.7608
1637.94
432.857
-165.081
-526.579
-910.972
-1326.85
-1746.13
-2085.62
-2268.6
-2288.8
354.107
686.423
1085.49
1567.36
2145.91
2790.84
3462.12
4154.06
4857.87
5560.6
6254.18
6931.5
7583.18
8202.45
8783.76
9317.64
9793.91
10199.5
10522.6
10752.2
10878.4
10893.7
10799
10549.3
10231.2
9786.46
9228.32
8567.13
7815.14
6983.45
6088.76
5159.96
4215.41
3281.71
2388.25
1566.39
861.662
338.798
59.1452
-74.104
-144.025
-170.379
-167.214
-146
-118.09
-95.4234
-77.4204
-62.5887
-49.7933
-38.578
-28.4858
-19.5
-11.6493
-5.39872
-0.701059
2.953
3.53464
3.03271
3.03282
3.10088
3.15972
3.30578
3.4532
3.56078
3.70889
3.85529
3.95964
4.00295
4.0628
4.10289
4.13848
4.22836
4.33444
4.4734
4.57728
4.66483
4.76251
4.83215
4.9541
5.12256
5.21524
5.31545
5.25114
4.76596
3.80506
1.92058
-2.63096
-13.8262
-42.3683
-110.701
-192.903
-179.512
173.659
917.466
1970.33
3175.99
4359.54
5423.78
6318.36
7256.09
8402.14
9677.62
10660.6
11336.3
11530
11342
10951
10528.5
9812.08
8734.46
7155.98
5608.23
4661.17
3793.59
2871.91
2064.88
1400.01
827.854
400.228