/*--------------------------------*- C++ -*----------------------------------*\
| =========                 |                                                 |
| \\      /  F ield         | OpenFOAM: The Open Source CFD Toolbox           |
|  \\    /   O peration     | Version:  v1912                                 |
|   \\  /    A nd           | Website:  www.openfoam.com                      |
|    \\/     M anipulation  |                                                 |
\*---------------------------------------------------------------------------*/
FoamFile
{
    version     2.0;
    format      ascii;
    class       surfaceScalarField;
    location    "10";
    object      alphaPhi0.water;
}
// * * * * * * * * * * * * * * * * * * * * * * * * * * * * * * * * * * * * * //

dimensions      [0 3 -1 0 0 0 0];
oriented        oriented;


internalField   nonuniform List<scalar> 
28285
(
-8.9934e-226
-3.17023e-227
-6.82655e-229
-2.41092e-230
-4.96193e-232
-1.75576e-233
-3.45361e-235
-1.22444e-236
-2.30181e-238
-8.17713e-240
-1.46905e-241
-5.22939e-243
-8.97792e-245
-3.20248e-246
-5.2539e-248
-1.87803e-249
-2.9441e-251
-1.05462e-252
-1.57973e-254
-5.67105e-256
-8.11654e-258
-2.9201e-259
-3.9931e-261
-1.43977e-262
-1.88103e-264
-6.79746e-266
-8.48439e-268
-3.0729e-269
-3.66421e-271
-1.33013e-272
-1.5152e-274
-5.51288e-276
-5.99906e-278
-2.18773e-279
-2.27412e-281
-8.31253e-283
-8.25386e-285
-3.02408e-286
-2.8682e-288
-1.05334e-289
-9.54256e-292
-3.51281e-293
-3.03965e-295
-1.12163e-296
-9.27004e-299
-3.42884e-300
-2.70671e-302
-1.00358e-303
-7.56666e-306
-2.81234e-307
-2.02523e-309
-7.54562e-311
-5.18992e-313
-1.9384e-314
-1.27343e-316
-4.76784e-318
-2.99157e-320
-1.12153e-321
-4.94066e-324
0
0
0
0
0
0
0
0
0
0
0
0
0
0
0
0
0
0
0
0
0
0
0
0
0
0
0
0
0
0
0
0
0
0
0
0
0
0
0
0
0
0
0
0
0
0
0
0
0
0
0
0
0
0
0
0
0
0
0
0
0
0
0
0
0
0
0
0
0
0
0
0
0
0
0
0
0
0
0
0
0
0
0
0
0
0
0
0
0
0
0
0
0
0
0
0
0
0
0
0
0
0
0
0
0
0
0
0
0
0
0
0
0
0
0
0
0
0
0
0
0
0
0
0
0
0
0
0
0
0
0
0
0
0
0
0
0
0
0
0
0
0
0
0
0
0
0
0
0
0
0
0
0
0
0
0
0
0
0
0
0
0
0
0
0
0
0
0
0
0
0
0
0
0
0
0
0
0
0
0
0
0
0
0
0
0
0
0
0
0
0
0
0
0
0
0
0
0
0
0
0
0
0
0
0
0
0
0
0
0
0
0
0
0
0
0
0
0
0
0
0
0
0
0
0
0
0
0
0
0
0
0
0
0
0
0
0
0
0
0
0
-2.86793e-225
-2.02415e-226
-2.06606e-228
-1.46093e-229
-1.42643e-231
-1.01058e-232
-9.43897e-235
-6.70032e-236
-5.98695e-238
-4.25836e-239
-3.64029e-241
-2.59451e-242
-2.12211e-244
-1.51559e-245
-1.18619e-247
-8.48945e-249
-6.3586e-251
-4.56046e-252
-3.2693e-254
-2.34983e-255
-1.61254e-257
-1.16155e-258
-7.63153e-261
-5.50929e-262
-3.46612e-264
-2.5078e-265
-1.51112e-267
-1.09579e-268
-6.32526e-271
-4.59715e-272
-2.54262e-274
-1.85219e-275
-9.8178e-278
-7.16835e-279
-3.64235e-281
-2.6656e-282
-1.29864e-284
-9.52613e-286
-4.45076e-288
-3.27254e-289
-1.46661e-291
-1.08092e-292
-4.64747e-295
-3.43345e-296
-1.4165e-298
-1.04898e-299
-4.15308e-302
-3.08296e-303
-1.17146e-305
-8.71716e-307
-3.17916e-309
-2.37146e-310
-8.30107e-313
-6.20721e-314
-2.08536e-316
-1.56317e-317
-5.03996e-320
-3.78948e-321
-9.88131e-324
0
0
0
0
0
0
0
0
0
0
0
0
0
0
0
0
0
0
0
0
0
0
0
0
0
0
0
0
0
0
0
0
0
0
0
0
0
0
0
0
0
0
0
0
0
0
0
0
0
0
0
0
0
0
0
0
0
0
0
0
0
0
0
0
0
0
0
0
0
0
0
0
0
0
0
0
0
0
0
0
0
0
0
0
0
0
0
0
0
0
0
0
0
0
0
0
0
0
0
0
0
0
0
0
0
0
0
0
0
0
0
0
0
0
0
0
0
0
0
0
0
0
0
0
0
0
0
0
0
0
0
0
0
0
0
0
0
0
0
0
0
0
0
0
0
0
0
0
0
0
0
0
0
0
0
0
0
0
0
0
0
0
0
0
0
0
0
0
0
0
0
0
0
0
0
0
0
0
0
0
0
0
0
0
0
0
0
0
0
0
0
0
0
0
0
0
0
0
0
0
0
0
0
0
0
0
0
0
0
0
0
0
0
0
0
0
0
0
0
0
0
0
0
0
0
0
0
0
0
0
0
0
0
0
0
0
0
0
0
0
0
-9.24709e-226
-9.7924e-227
-6.54649e-229
-6.94555e-230
-4.44962e-232
-4.72992e-233
-2.9044e-235
-3.09341e-236
-1.82106e-238
-1.94344e-239
-1.09711e-241
-1.17322e-242
-6.35267e-245
-6.8074e-246
-3.53652e-248
-3.79762e-249
-1.89339e-251
-2.0375e-252
-9.75164e-255
-1.05165e-255
-4.83294e-258
-5.22336e-259
-2.30546e-261
-2.49719e-262
-1.0588e-264
-1.14941e-265
-4.68244e-268
-5.0946e-269
-1.99432e-271
-2.17479e-272
-8.18136e-275
-8.94214e-276
-3.23284e-278
-3.54161e-279
-1.23045e-281
-1.35111e-282
-4.51059e-285
-4.96449e-286
-1.59234e-288
-1.75671e-289
-5.41245e-292
-5.98531e-293
-1.77097e-295
-1.96308e-296
-5.57664e-299
-6.1964e-300
-1.68948e-302
-1.88177e-303
-4.9229e-306
-5.49647e-307
-1.37923e-309
-1.54366e-310
-3.71413e-313
-4.1671e-314
-9.61048e-317
-1.0809e-317
-2.38881e-320
-2.69266e-321
-4.94066e-324
0
0
0
0
0
0
0
0
0
0
0
0
0
0
0
0
0
0
0
0
0
0
0
0
0
0
0
0
0
0
0
0
0
0
0
0
0
0
0
0
0
0
0
0
0
0
0
0
0
0
0
0
0
0
0
0
0
0
0
0
0
0
0
0
0
0
0
0
0
0
0
0
0
0
0
0
0
0
0
0
0
0
0
0
0
0
0
0
0
0
0
0
0
0
0
0
0
0
0
0
0
0
0
0
0
0
0
0
0
0
0
0
0
0
0
0
0
0
0
0
0
0
0
0
0
0
0
0
0
0
0
0
0
0
0
0
0
0
0
0
0
0
0
0
0
0
0
0
0
0
0
0
0
0
0
0
0
0
0
0
0
0
0
0
0
0
0
0
0
0
0
0
0
0
0
0
0
0
0
0
0
0
0
0
0
0
0
0
0
0
0
0
0
0
0
0
0
0
0
0
0
0
0
0
0
0
0
0
0
0
0
0
0
0
0
0
0
0
0
0
0
0
0
0
0
0
0
0
0
0
0
0
0
0
0
0
0
0
0
0
0
-1.41904e-225
-2.00379e-226
-1.05518e-228
-1.49281e-229
-7.52343e-232
-1.06641e-232
-5.14363e-235
-7.30519e-236
-3.37215e-238
-4.79884e-239
-2.12002e-241
-3.02311e-242
-1.27816e-244
-1.82642e-245
-7.39029e-248
-1.05825e-248
-4.09808e-251
-5.88072e-252
-2.1795e-254
-3.13433e-255
-1.11174e-257
-1.60229e-258
-5.43921e-261
-7.85655e-262
-2.55248e-264
-3.69512e-265
-1.14893e-267
-1.66701e-268
-4.96066e-271
-7.21394e-272
-2.05449e-274
-2.99457e-275
-8.16195e-278
-1.19242e-278
-3.11036e-281
-4.55468e-282
-1.13699e-284
-1.66887e-285
-3.98682e-288
-5.86568e-289
-1.34098e-291
-1.97763e-292
-4.32645e-295
-6.3958e-296
-1.33892e-298
-1.98408e-299
-3.97442e-302
-5.90379e-303
-1.13158e-305
-1.68498e-306
-3.09008e-309
-4.61255e-310
-8.09312e-313
-1.21102e-313
-2.03286e-316
-3.04939e-317
-4.89718e-320
-7.36158e-321
-9.88131e-324
0
0
0
0
0
0
0
0
0
0
0
0
0
0
0
0
0
0
0
0
0
0
0
0
0
0
0
0
0
0
0
0
0
0
0
0
0
0
0
0
0
0
0
0
0
0
0
0
0
0
0
0
0
0
0
0
0
0
0
0
0
0
0
0
0
0
0
0
0
0
0
0
0
0
0
0
0
0
0
0
0
0
0
0
0
0
0
0
0
0
0
0
0
0
0
0
0
0
0
0
0
0
0
0
0
0
0
0
0
0
0
0
0
0
0
0
0
0
0
0
0
0
0
0
0
0
0
0
0
0
0
0
0
0
0
0
0
0
0
0
0
0
0
0
0
0
0
0
0
0
0
0
0
0
0
0
0
0
0
0
0
0
0
0
0
0
0
0
0
0
0
0
0
0
0
0
0
0
0
0
0
0
0
0
0
0
0
0
0
0
0
0
0
0
0
0
0
0
0
0
0
0
0
0
0
0
0
0
0
0
0
0
0
0
0
0
0
0
0
0
0
0
0
0
0
0
0
0
0
0
0
0
0
0
0
0
0
0
0
0
0
-5.5847e-226
-9.85832e-227
-4.18334e-229
-7.39852e-230
-3.00715e-232
-5.32862e-233
-2.07438e-235
-3.683e-236
-1.37313e-238
-2.44287e-239
-8.72229e-242
-1.55491e-242
-5.31667e-245
-9.49763e-246
-3.10986e-248
-5.56714e-249
-1.74556e-251
-3.13152e-252
-9.40208e-255
-1.69038e-255
-4.85968e-258
-8.75632e-259
-2.41038e-261
-4.35274e-262
-1.14724e-264
-2.07637e-265
-5.23972e-268
-9.50481e-269
-2.29638e-271
-4.17515e-272
-9.65722e-275
-1.75987e-275
-3.89693e-278
-7.11804e-279
-1.50884e-281
-2.76247e-282
-5.60526e-285
-1.02867e-285
-1.99787e-288
-3.67519e-289
-6.83188e-292
-1.25976e-292
-2.24125e-295
-4.14271e-296
-7.0534e-299
-1.3069e-299
-2.12931e-302
-3.95494e-303
-6.16578e-306
-1.14802e-306
-1.71245e-309
-3.19629e-310
-4.56142e-313
-8.53494e-314
-1.16522e-316
-2.18567e-317
-2.85422e-320
-5.36555e-321
-4.94066e-324
0
0
0
0
0
0
0
0
0
0
0
0
0
0
0
0
0
0
0
0
0
0
0
0
0
0
0
0
0
0
0
0
0
0
0
0
0
0
0
0
0
0
0
0
0
0
0
0
0
0
0
0
0
0
0
0
0
0
0
0
0
0
0
0
0
0
0
0
0
0
0
0
0
0
0
0
0
0
0
0
0
0
0
0
0
0
0
0
0
0
0
0
0
0
0
0
0
0
0
0
0
0
0
0
0
0
0
0
0
0
0
0
0
0
0
0
0
0
0
0
0
0
0
0
0
0
0
0
0
0
0
0
0
0
0
0
0
0
0
0
0
0
0
0
0
0
0
0
0
0
0
0
0
0
0
0
0
0
0
0
0
0
0
0
0
0
0
0
0
0
0
0
0
0
0
0
0
0
0
0
0
0
0
0
0
0
0
0
0
0
0
0
0
0
0
0
0
0
0
0
0
0
0
0
0
0
0
0
0
0
0
0
0
0
0
0
0
0
0
0
0
0
0
0
0
0
0
0
0
0
0
0
0
0
0
0
0
0
0
0
0
-2.51785e-226
-5.33383e-227
-1.93506e-229
-4.10699e-230
-1.4274e-232
-3.0354e-233
-1.01051e-235
-2.15312e-236
-6.86495e-239
-1.46568e-239
-4.47499e-242
-9.57375e-243
-2.79876e-245
-6.00012e-246
-1.67926e-248
-3.60771e-249
-9.66527e-252
-2.08094e-252
-5.33597e-255
-1.15134e-255
-2.8254e-258
-6.10975e-259
-1.43475e-261
-3.10946e-262
-6.98655e-265
-1.51757e-265
-3.26218e-268
-7.10201e-269
-1.4604e-271
-3.18671e-272
-6.26792e-275
-1.37087e-275
-2.57884e-278
-5.65342e-279
-1.01705e-281
-2.23485e-282
-3.84451e-285
-8.46793e-286
-1.39281e-288
-3.07513e-289
-4.83572e-292
-1.07022e-292
-1.60886e-295
-3.56927e-296
-5.12899e-299
-1.14064e-299
-1.56666e-302
-3.49263e-303
-4.58478e-306
-1.02462e-306
-1.28539e-309
-2.87971e-310
-3.45221e-313
-7.75335e-314
-8.88141e-317
-1.99966e-317
-2.18871e-320
-4.94066e-321
-4.94066e-324
0
0
0
0
0
0
0
0
0
0
0
0
0
0
0
0
0
0
0
0
0
0
0
0
0
0
0
0
0
0
0
0
0
0
0
0
0
0
0
0
0
0
0
0
0
0
0
0
0
0
0
0
0
0
0
0
0
0
0
0
0
0
0
0
0
0
0
0
0
0
0
0
0
0
0
0
0
0
0
0
0
0
0
0
0
0
0
0
0
0
0
0
0
0
0
0
0
0
0
0
0
0
0
0
0
0
0
0
0
0
0
0
0
0
0
0
0
0
0
0
0
0
0
0
0
0
0
0
0
0
0
0
0
0
0
0
0
0
0
0
0
0
0
0
0
0
0
0
0
0
0
0
0
0
0
0
0
0
0
0
0
0
0
0
0
0
0
0
0
0
0
0
0
0
0
0
0
0
0
0
0
0
0
0
0
0
0
0
0
0
0
0
0
0
0
0
0
0
0
0
0
0
0
0
0
0
0
0
0
0
0
0
0
0
0
0
0
0
0
0
0
0
0
0
0
0
0
0
0
0
0
0
0
0
0
0
0
0
0
0
0
-9.54685e-227
-2.35953e-227
-7.4479e-230
-1.84425e-230
-5.57496e-233
-1.38315e-233
-4.00368e-236
-9.95278e-237
-2.75843e-239
-6.87105e-240
-1.82319e-242
-4.55076e-243
-1.15599e-245
-2.89142e-246
-7.03093e-249
-1.76234e-249
-4.102e-252
-1.0304e-252
-2.29559e-255
-5.77897e-256
-1.23226e-258
-3.10895e-259
-6.34467e-262
-1.60431e-262
-3.13338e-265
-7.94093e-266
-1.48426e-268
-3.77014e-269
-6.74372e-272
-1.71689e-272
-2.93886e-275
-7.49943e-276
-1.22842e-278
-3.14204e-279
-4.92502e-282
-1.26268e-282
-1.89391e-285
-4.86718e-286
-6.98564e-289
-1.79953e-289
-2.47142e-292
-6.38182e-293
-8.38656e-296
-2.17086e-296
-2.72971e-299
-7.08309e-300
-8.52211e-303
-2.21674e-303
-2.55195e-306
-6.65441e-307
-7.32977e-310
-1.91602e-310
-2.01928e-313
-5.29159e-314
-5.3356e-317
-1.40171e-317
-1.35226e-320
-3.56221e-321
-4.94066e-324
0
0
0
0
0
0
0
0
0
0
0
0
0
0
0
0
0
0
0
0
0
0
0
0
0
0
0
0
0
0
0
0
0
0
0
0
0
0
0
0
0
0
0
0
0
0
0
0
0
0
0
0
0
0
0
0
0
0
0
0
0
0
0
0
0
0
0
0
0
0
0
0
0
0
0
0
0
0
0
0
0
0
0
0
0
0
0
0
0
0
0
0
0
0
0
0
0
0
0
0
0
0
0
0
0
0
0
0
0
0
0
0
0
0
0
0
0
0
0
0
0
0
0
0
0
0
0
0
0
0
0
0
0
0
0
0
0
0
0
0
0
0
0
0
0
0
0
0
0
0
0
0
0
0
0
0
0
0
0
0
0
0
0
0
0
0
0
0
0
0
0
0
0
0
0
0
0
0
0
0
0
0
0
0
0
0
0
0
0
0
0
0
0
0
0
0
0
0
0
0
0
0
0
0
0
0
0
0
0
0
0
0
0
0
0
0
0
0
0
0
0
0
0
0
0
0
0
0
0
0
0
0
0
0
0
0
0
0
0
0
0
-2.90383e-227
-8.20223e-228
-2.28234e-230
-6.45896e-231
-1.72103e-233
-4.8799e-234
-1.24507e-236
-3.53732e-237
-8.64163e-240
-2.46011e-240
-5.7544e-243
-1.64153e-243
-3.6763e-246
-1.05091e-246
-2.25336e-249
-6.45517e-250
-1.32516e-252
-3.80434e-253
-7.47705e-256
-2.15122e-256
-4.04782e-259
-1.16717e-259
-2.10255e-262
-6.07615e-263
-1.04789e-265
-3.03512e-266
-5.01107e-269
-1.45472e-269
-2.2993e-272
-6.69026e-273
-1.01231e-275
-2.95235e-276
-4.27648e-279
-1.25013e-279
-1.73345e-282
-5.07929e-283
-6.74192e-286
-1.98019e-286
-2.51593e-289
-7.4073e-290
-9.0084e-293
-2.6586e-293
-3.09469e-296
-9.15534e-297
-1.01999e-299
-3.02489e-300
-3.22523e-303
-9.58823e-304
-9.78348e-307
-2.91569e-307
-2.84688e-310
-8.50534e-311
-7.94624e-314
-2.37993e-314
-2.12735e-317
-6.38743e-318
-5.46437e-321
-1.64524e-321
0
0
0
0
0
0
0
0
0
0
0
0
0
0
0
0
0
0
0
0
0
0
0
0
0
0
0
0
0
0
0
0
0
0
0
0
0
0
0
0
0
0
0
0
0
0
0
0
0
0
0
0
0
0
0
0
0
0
0
0
0
0
0
0
0
0
0
0
0
0
0
0
0
0
0
0
0
0
0
0
0
0
0
0
0
0
0
0
0
0
0
0
0
0
0
0
0
0
0
0
0
0
0
0
0
0
0
0
0
0
0
0
0
0
0
0
0
0
0
0
0
0
0
0
0
0
0
0
0
0
0
0
0
0
0
0
0
0
0
0
0
0
0
0
0
0
0
0
0
0
0
0
0
0
0
0
0
0
0
0
0
0
0
0
0
0
0
0
0
0
0
0
0
0
0
0
0
0
0
0
0
0
0
0
0
0
0
0
0
0
0
0
0
0
0
0
0
0
0
0
0
0
0
0
0
0
0
0
0
0
0
0
0
0
0
0
0
0
0
0
0
0
0
0
0
0
0
0
0
0
0
0
0
0
0
0
0
0
0
0
0
0
-7.79048e-228
-2.47561e-228
-6.1729e-231
-1.96531e-231
-4.69418e-234
-1.49742e-234
-3.42601e-237
-1.09504e-237
-2.39987e-240
-7.68607e-241
-1.6135e-243
-5.17818e-244
-1.04122e-246
-3.34855e-247
-6.44934e-250
-2.07851e-250
-3.83439e-253
-1.23841e-253
-2.1882e-256
-7.08277e-257
-1.19865e-259
-3.88834e-260
-6.30237e-263
-2.04902e-263
-3.18069e-266
-1.03644e-266
-1.54076e-269
-5.03206e-270
-7.16364e-273
-2.34499e-273
-3.19668e-276
-1.04885e-276
-1.36904e-279
-4.50241e-280
-5.62673e-283
-1.85486e-283
-2.21921e-286
-7.33302e-287
-8.39866e-290
-2.78185e-290
-3.04972e-293
-1.01258e-293
-1.06246e-296
-3.53617e-297
-3.55084e-300
-1.1847e-300
-1.13835e-303
-3.8073e-304
-3.50026e-307
-1.17358e-307
-1.0322e-310
-3.46938e-311
-2.91893e-314
-9.83538e-315
-7.91462e-318
-2.67352e-318
-2.05531e-321
-6.96633e-322
0
0
0
0
0
0
0
0
0
0
0
0
0
0
0
0
0
0
0
0
0
0
0
0
0
0
0
0
0
0
0
0
0
0
0
0
0
0
0
0
0
0
0
0
0
0
0
0
0
0
0
0
0
0
0
0
0
0
0
0
0
0
0
0
0
0
0
0
0
0
0
0
0
0
0
0
0
0
0
0
0
0
0
0
0
0
0
0
0
0
0
0
0
0
0
0
0
0
0
0
0
0
0
0
0
0
0
0
0
0
0
0
0
0
0
0
0
0
0
0
0
0
0
0
0
0
0
0
0
0
0
0
0
0
0
0
0
0
0
0
0
0
0
0
0
0
0
0
0
0
0
0
0
0
0
0
0
0
0
0
0
0
0
0
0
0
0
0
0
0
0
0
0
0
0
0
0
0
0
0
0
0
0
0
0
0
0
0
0
0
0
0
0
0
0
0
0
0
0
0
0
0
0
0
0
0
0
0
0
0
0
0
0
0
0
0
0
0
0
0
0
0
0
0
0
0
0
0
0
0
0
0
0
0
0
0
0
0
0
0
0
0
-2.15206e-228
-7.59872e-229
-1.73369e-231
-6.13309e-232
-1.34116e-234
-4.7537e-235
-9.96289e-238
-3.5383e-238
-7.1068e-241
-2.52906e-241
-4.86786e-244
-1.73586e-244
-3.20155e-247
-1.14405e-247
-2.02172e-250
-7.23979e-251
-1.22574e-253
-4.39882e-254
-7.13448e-257
-2.56594e-257
-3.9864e-260
-1.43689e-260
-2.13807e-263
-7.72382e-264
-1.10064e-266
-3.98505e-267
-5.43762e-270
-1.97327e-270
-2.57794e-273
-9.37669e-274
-1.17271e-276
-4.27538e-277
-5.1182e-280
-1.87033e-280
-2.14291e-283
-7.84926e-284
-8.60608e-287
-3.15981e-287
-3.3149e-290
-1.22001e-290
-1.22448e-293
-4.51741e-294
-4.3371e-297
-1.60395e-297
-1.47288e-300
-5.46028e-301
-4.79519e-304
-1.78204e-304
-1.49648e-307
-5.57509e-308
-4.47623e-311
-1.67174e-311
-1.28318e-314
-4.80426e-315
-3.52497e-318
-1.32306e-318
-9.28843e-322
-3.50787e-322
0
0
0
0
0
0
0
0
0
0
0
0
0
0
0
0
0
0
0
0
0
0
0
0
0
0
0
0
0
0
0
0
0
0
0
0
0
0
0
0
0
0
0
0
0
0
0
0
0
0
0
0
0
0
0
0
0
0
0
0
0
0
0
0
0
0
0
0
0
0
0
0
0
0
0
0
0
0
0
0
0
0
0
0
0
0
0
0
0
0
0
0
0
0
0
0
0
0
0
0
0
0
0
0
0
0
0
0
0
0
0
0
0
0
0
0
0
0
0
0
0
0
0
0
0
0
0
0
0
0
0
0
0
0
0
0
0
0
0
0
0
0
0
0
0
0
0
0
0
0
0
0
0
0
0
0
0
0
0
0
0
0
0
0
0
0
0
0
0
0
0
0
0
0
0
0
0
0
0
0
0
0
0
0
0
0
0
0
0
0
0
0
0
0
0
0
0
0
0
0
0
0
0
0
0
0
0
0
0
0
0
0
0
0
0
0
0
0
0
0
0
0
0
0
0
0
0
0
0
0
0
0
0
0
0
0
0
0
0
0
0
0
-6.27734e-229
-2.43819e-229
-5.14099e-232
-2.00061e-232
-4.04226e-235
-1.57609e-235
-3.05123e-238
-1.19204e-238
-2.21088e-241
-8.65481e-242
-1.53764e-244
-6.03168e-245
-1.02636e-247
-4.03453e-248
-6.57457e-251
-2.58988e-251
-4.04118e-254
-1.59534e-254
-2.38331e-257
-9.42913e-258
-1.34846e-260
-5.34673e-261
-7.31881e-264
-2.90843e-264
-3.81014e-267
-1.51753e-267
-1.90237e-270
-7.5942e-271
-9.10877e-274
-3.64456e-274
-4.18208e-277
-1.6772e-277
-1.84099e-280
-7.40047e-281
-7.7695e-284
-3.13059e-284
-3.14326e-287
-1.26953e-287
-1.21891e-290
-4.93484e-291
-4.53032e-294
-1.83855e-294
-1.61367e-297
-6.56471e-298
-5.50802e-301
-2.24623e-301
-1.8015e-304
-7.36471e-305
-5.64541e-308
-2.31359e-308
-1.69492e-311
-6.96331e-312
-4.87484e-315
-2.00774e-315
-1.34308e-318
-5.54544e-319
-3.55727e-322
-1.4822e-322
0
0
0
0
0
0
0
0
0
0
0
0
0
0
0
0
0
0
0
0
0
0
0
0
0
0
0
0
0
0
0
0
0
0
0
0
0
0
0
0
0
0
0
0
0
0
0
0
0
0
0
0
0
0
0
0
0
0
0
0
0
0
0
0
0
0
0
0
0
0
0
0
0
0
0
0
0
0
0
0
0
0
0
0
0
0
0
0
0
0
0
0
0
0
0
0
0
0
0
0
0
0
0
0
0
0
0
0
0
0
0
0
0
0
0
0
0
0
0
0
0
0
0
0
0
0
0
0
0
0
0
0
0
0
0
0
0
0
0
0
0
0
0
0
0
0
0
0
0
0
0
0
0
0
0
0
0
0
0
0
0
0
0
0
0
0
0
0
0
0
0
0
0
0
0
0
0
0
0
0
0
0
0
0
0
0
0
0
0
0
0
0
0
0
0
0
0
0
0
0
0
0
0
0
0
0
0
0
0
0
0
0
0
0
0
0
0
0
0
0
0
0
0
0
0
0
0
0
0
0
0
0
0
0
0
0
0
0
0
0
0
0
-1.78498e-229
-7.56368e-230
-1.47446e-232
-6.25971e-233
-1.16861e-235
-4.9709e-236
-8.88616e-239
-3.78737e-239
-6.48223e-242
-2.76837e-242
-4.53592e-245
-1.94114e-245
-3.04439e-248
-1.30556e-248
-1.95971e-251
-8.42193e-252
-1.20978e-254
-5.21027e-255
-7.1616e-258
-3.09107e-258
-4.06504e-261
-1.75842e-261
-2.21228e-264
-9.59103e-265
-1.15425e-267
-5.0154e-268
-5.77319e-271
-2.51426e-271
-2.76792e-274
-1.20822e-274
-1.27199e-277
-5.56526e-278
-5.60247e-281
-2.45695e-281
-2.36487e-284
-1.03956e-284
-9.56627e-288
-4.21516e-288
-3.70815e-291
-1.63782e-291
-1.37729e-294
-6.09789e-295
-4.90137e-298
-2.17533e-298
-1.67114e-301
-7.43498e-302
-5.45868e-305
-2.43455e-305
-1.70811e-308
-7.63688e-309
-5.12005e-312
-2.29483e-312
-1.47008e-315
-6.60539e-316
-4.04294e-319
-1.82113e-319
-1.08694e-322
-4.94066e-323
0
0
0
0
0
0
0
0
0
0
0
0
0
0
0
0
0
0
0
0
0
0
0
0
0
0
0
0
0
0
0
0
0
0
0
0
0
0
0
0
0
0
0
0
0
0
0
0
0
0
0
0
0
0
0
0
0
0
0
0
0
0
0
0
0
0
0
0
0
0
0
0
0
0
0
0
0
0
0
0
0
0
0
0
0
0
0
0
0
0
0
0
0
0
0
0
0
0
0
0
0
0
0
0
0
0
0
0
0
0
0
0
0
0
0
0
0
0
0
0
0
0
0
0
0
0
0
0
0
0
0
0
0
0
0
0
0
0
0
0
0
0
0
0
0
0
0
0
0
0
0
0
0
0
0
0
0
0
0
0
0
0
0
0
0
0
0
0
0
0
0
0
0
0
0
0
0
0
0
0
0
0
0
0
0
0
0
0
0
0
0
0
0
0
0
0
0
0
0
0
0
0
0
0
0
0
0
0
0
0
0
0
0
0
0
0
0
0
0
0
0
0
0
0
0
0
0
0
0
0
0
0
0
0
0
0
0
0
0
0
0
0
-4.6635e-230
-2.14088e-230
-3.85928e-233
-1.77505e-233
-3.06288e-236
-1.41148e-236
-2.33107e-239
-1.07637e-239
-1.7012e-242
-7.87112e-243
-1.19043e-245
-5.51923e-246
-7.98692e-249
-3.71074e-249
-5.13753e-252
-2.39197e-252
-3.16814e-255
-1.47823e-255
-1.87287e-258
-8.7577e-259
-1.0613e-261
-4.97371e-262
-5.76473e-265
-2.70763e-265
-3.00126e-268
-1.41284e-268
-1.49758e-271
-7.06592e-272
-7.16177e-275
-3.38686e-275
-3.28225e-278
-1.55581e-278
-1.44153e-281
-6.84897e-282
-6.06681e-285
-2.88925e-285
-2.44658e-288
-1.16793e-288
-9.45373e-292
-4.52374e-292
-3.50004e-295
-1.67886e-295
-1.24151e-298
-5.96958e-299
-4.21912e-302
-2.03363e-302
-1.37362e-305
-6.63715e-306
-4.28419e-309
-2.07517e-309
-1.28001e-312
-6.21549e-313
-3.66342e-316
-1.78332e-316
-1.00434e-319
-4.90113e-320
-2.47033e-323
-1.4822e-323
0
0
0
0
0
0
0
0
0
0
0
0
0
0
0
0
0
0
0
0
0
0
0
0
0
0
0
0
0
0
0
0
0
0
0
0
0
0
0
0
0
0
0
0
0
0
0
0
0
0
0
0
0
0
0
0
0
0
0
0
0
0
0
0
0
0
0
0
0
0
0
0
0
0
0
0
0
0
0
0
0
0
0
0
0
0
0
0
0
0
0
0
0
0
0
0
0
0
0
0
0
0
0
0
0
0
0
0
0
0
0
0
0
0
0
0
0
0
0
0
0
0
0
0
0
0
0
0
0
0
0
0
0
0
0
0
0
0
0
0
0
0
0
0
0
0
0
0
0
0
0
0
0
0
0
0
0
0
0
0
0
0
0
0
0
0
0
0
0
0
0
0
0
0
0
0
0
0
0
0
0
0
0
0
0
0
0
0
0
0
0
0
0
0
0
0
0
0
0
0
0
0
0
0
0
0
0
0
0
0
0
0
0
0
0
0
0
0
0
0
0
0
0
0
0
0
0
0
0
0
0
0
0
0
0
0
0
0
0
0
0
0
-1.10229e-230
-5.44988e-231
-9.10471e-234
-4.51004e-234
-7.21005e-237
-3.57844e-237
-5.47389e-240
-2.72215e-240
-3.98403e-243
-1.98525e-243
-2.77974e-246
-1.388e-246
-1.85919e-249
-9.30284e-250
-1.19198e-252
-5.97695e-253
-7.32519e-256
-3.681e-256
-4.31484e-259
-2.17299e-259
-2.43607e-262
-1.22953e-262
-1.31819e-265
-6.66806e-266
-6.83629e-269
-3.46594e-269
-3.39781e-272
-1.72659e-272
-1.61846e-275
-8.2431e-276
-7.38782e-279
-3.77148e-279
-3.23168e-282
-1.65364e-282
-1.35465e-285
-6.94804e-286
-5.44123e-289
-2.79746e-289
-2.09425e-292
-1.07928e-292
-7.72345e-296
-3.98992e-296
-2.72918e-299
-1.41331e-299
-9.2402e-303
-4.79672e-303
-2.99742e-306
-1.55982e-306
-9.31584e-310
-4.85981e-310
-2.77392e-313
-1.45067e-313
-7.91328e-317
-4.14869e-317
-2.16253e-320
-1.13685e-320
-4.94066e-324
-4.94066e-324
0
0
0
0
0
0
0
0
0
0
0
0
0
0
0
0
0
0
0
0
0
0
0
0
0
0
0
0
0
0
0
0
0
0
0
0
0
0
0
0
0
0
0
0
0
0
0
0
0
0
0
0
0
0
0
0
0
0
0
0
0
0
0
0
0
0
0
0
0
0
0
0
0
0
0
0
0
0
0
0
0
0
0
0
0
0
0
0
0
0
0
0
0
0
0
0
0
0
0
0
0
0
0
0
0
0
0
0
0
0
0
0
0
0
0
0
0
0
0
0
0
0
0
0
0
0
0
0
0
0
0
0
0
0
0
0
0
0
0
0
0
0
0
0
0
0
0
0
0
0
0
0
0
0
0
0
0
0
0
0
0
0
0
0
0
0
0
0
0
0
0
0
0
0
0
0
0
0
0
0
0
0
0
0
0
0
0
0
0
0
0
0
0
0
0
0
0
0
0
0
0
0
0
0
0
0
0
0
0
0
0
0
0
0
0
0
0
0
0
0
0
0
0
0
0
0
0
0
0
0
0
0
0
0
0
0
0
0
0
0
0
0
-2.60406e-231
-7.35751e-232
-2.14183e-234
-6.063e-235
-1.68871e-237
-4.78961e-238
-1.2763e-240
-3.62709e-241
-9.24642e-244
-2.63303e-244
-6.42108e-247
-1.83224e-247
-4.27416e-250
-1.22217e-250
-2.72704e-253
-7.81439e-254
-1.66773e-256
-4.78921e-257
-9.77569e-260
-2.8134e-260
-5.49221e-263
-1.58412e-263
-2.95746e-266
-8.54928e-267
-1.52635e-269
-4.42228e-270
-7.55008e-273
-2.19246e-273
-3.57932e-276
-1.04179e-276
-1.62628e-279
-4.74442e-280
-7.08162e-283
-2.07079e-283
-2.95532e-286
-8.66229e-287
-1.18197e-289
-3.4727e-290
-4.53039e-293
-1.33424e-293
-1.66413e-296
-4.91282e-297
-5.85808e-300
-1.73361e-300
-1.97624e-303
-5.86266e-304
-6.38903e-307
-1.90001e-307
-1.97944e-310
-5.90109e-311
-5.87701e-314
-1.7564e-314
-1.67217e-317
-5.00988e-318
-4.56023e-321
-1.36856e-321
0
0
0
0
0
0
0
0
0
0
0
0
0
0
0
0
0
0
0
0
0
0
0
0
0
0
0
0
0
0
0
0
0
0
0
0
0
0
0
0
0
0
0
0
0
0
0
0
0
0
0
0
0
0
0
0
0
0
0
0
0
0
0
0
0
0
0
0
0
0
0
0
0
0
0
0
0
0
0
0
0
0
0
0
0
0
0
0
0
0
0
0
0
0
0
0
0
0
0
0
0
0
0
0
0
0
0
0
0
0
0
0
0
0
0
0
0
0
0
0
0
0
0
0
0
0
0
0
0
0
0
0
0
0
0
0
0
0
0
0
0
0
0
0
0
0
0
0
0
0
0
0
0
0
0
0
0
0
0
0
0
0
0
0
0
0
0
0
0
0
0
0
0
0
0
0
0
0
0
0
0
0
0
0
0
0
0
0
0
0
0
0
0
0
0
0
0
0
0
0
0
0
0
0
0
0
0
0
0
0
0
0
0
0
0
0
0
0
0
0
0
0
0
0
0
0
0
0
0
0
0
0
0
0
0
0
0
0
0
0
0
0
0
0
-2.95014e-232
-9.3784e-233
-2.4144e-235
-7.68989e-236
-1.89407e-238
-6.04435e-239
-1.42431e-241
-4.55424e-242
-1.02667e-244
-3.28941e-245
-7.09371e-248
-2.27749e-248
-4.69826e-251
-1.51157e-251
-2.98277e-254
-9.61681e-255
-1.81519e-257
-5.86499e-258
-1.05887e-260
-3.42874e-261
-5.92084e-264
-1.92147e-264
-3.17353e-267
-1.0322e-267
-1.63051e-270
-5.31525e-271
-8.03019e-274
-2.62371e-274
-3.79097e-277
-1.24148e-277
-1.71554e-280
-5.63116e-281
-7.44178e-284
-2.44845e-284
-3.09445e-287
-1.02052e-287
-1.23345e-290
-4.07748e-291
-4.713e-294
-1.56173e-294
-1.72629e-297
-5.73417e-298
-6.06147e-301
-2.0183e-301
-2.04029e-304
-6.8102e-305
-6.58364e-308
-2.20292e-308
-2.0366e-311
-6.83136e-312
-6.03971e-315
-2.03093e-315
-1.71715e-318
-5.78852e-319
-4.69362e-322
-1.58101e-322
0
0
0
0
0
0
0
0
0
0
0
0
0
0
0
0
0
0
0
0
0
0
0
0
0
0
0
0
0
0
0
0
0
0
0
0
0
0
0
0
0
0
0
0
0
0
0
0
0
0
0
0
0
0
0
0
0
0
0
0
0
0
0
0
0
0
0
0
0
0
0
0
0
0
0
0
0
0
0
0
0
0
0
0
0
0
0
0
0
0
0
0
0
0
0
0
0
0
0
0
0
0
0
0
0
0
0
0
0
0
0
0
0
0
0
0
0
0
0
0
0
0
0
0
0
0
0
0
0
0
0
0
0
0
0
0
0
0
0
0
0
0
0
0
0
0
0
0
0
0
0
0
0
0
0
0
0
0
0
0
0
0
0
0
0
0
0
0
0
0
0
0
0
0
0
0
0
0
0
0
0
0
0
0
0
0
0
0
0
0
0
0
0
0
0
0
0
0
0
0
0
0
0
0
0
0
0
0
0
0
0
0
0
0
0
0
0
0
0
0
0
0
0
0
0
0
0
0
0
0
0
0
0
0
0
0
0
0
0
0
0
0
0
0
-1.79849e-229
-6.35345e-230
-1.39647e-232
-4.9426e-233
-1.03795e-235
-3.68081e-236
-7.38509e-239
-2.62412e-239
-5.03013e-242
-1.79095e-242
-3.27987e-245
-1.17019e-245
-2.04738e-248
-7.31989e-249
-1.22354e-251
-4.38373e-252
-7.00036e-255
-2.51352e-255
-3.83463e-258
-1.37985e-258
-2.01112e-261
-7.2528e-262
-1.00991e-264
-3.65022e-265
-4.85591e-268
-1.75909e-268
-2.23575e-271
-8.11767e-272
-9.85745e-275
-3.58733e-275
-4.16216e-278
-1.51822e-278
-1.68312e-281
-6.15384e-282
-6.51907e-285
-2.38914e-285
-2.41864e-288
-8.88506e-289
-8.59639e-292
-3.16551e-292
-2.9273e-295
-1.08054e-295
-9.55175e-299
-3.53435e-299
-2.98692e-302
-1.10792e-302
-8.95285e-306
-3.32899e-306
-2.5726e-309
-9.58945e-310
-7.08826e-313
-2.64873e-313
-1.87308e-316
-7.01675e-317
-4.74797e-320
-1.78308e-320
-9.88131e-324
-4.94066e-324
0
0
0
0
0
0
0
0
0
0
0
0
0
0
0
0
0
0
0
0
0
0
0
0
0
0
0
0
0
0
0
0
0
0
0
0
0
0
0
0
0
0
0
0
0
0
0
0
0
0
0
0
0
0
0
0
0
0
0
0
0
0
0
0
0
0
0
0
0
0
0
0
0
0
0
0
0
0
0
0
0
0
0
0
0
0
0
0
0
0
0
0
0
0
0
0
0
0
0
0
0
0
0
0
0
0
0
0
0
0
0
0
0
0
0
0
0
0
0
0
0
0
0
0
0
0
0
0
0
0
0
0
0
0
0
0
0
0
0
0
0
0
0
0
0
0
0
0
0
0
0
0
0
0
0
0
0
0
0
0
0
0
0
0
0
0
0
0
0
0
0
0
0
0
0
0
0
0
0
0
0
0
0
0
0
0
0
0
0
0
0
0
0
0
0
0
0
0
0
0
0
0
0
0
0
0
0
0
0
0
0
0
0
0
0
0
0
0
0
0
0
0
0
0
0
0
0
0
0
0
0
0
0
0
0
0
0
0
0
0
0
0
-1.42631e-229
-5.5433e-230
-1.10073e-232
-4.28605e-233
-8.13178e-236
-3.17253e-236
-5.75102e-239
-2.24815e-239
-3.89374e-242
-1.52519e-242
-2.52384e-245
-9.90633e-246
-1.56618e-248
-6.16027e-249
-9.30499e-252
-3.66773e-252
-5.29297e-255
-2.09081e-255
-2.88274e-258
-1.14122e-258
-1.50331e-261
-5.96444e-262
-7.50661e-265
-2.98494e-265
-3.58934e-268
-1.4305e-268
-1.64354e-271
-6.56512e-272
-7.20718e-275
-2.88555e-275
-3.02692e-278
-1.21471e-278
-1.21764e-281
-4.89785e-282
-4.69196e-285
-1.89176e-285
-1.73202e-288
-7.00001e-289
-6.1258e-292
-2.48169e-292
-2.07605e-295
-8.4308e-296
-6.74278e-299
-2.74488e-299
-2.09911e-302
-8.56602e-303
-6.26474e-306
-2.56278e-306
-1.79277e-309
-7.35197e-310
-4.92027e-313
-2.02277e-313
-1.29537e-316
-5.33867e-317
-3.2722e-320
-1.35176e-320
-9.88131e-324
-4.94066e-324
0
0
0
0
0
0
0
0
0
0
0
0
0
0
0
0
0
0
0
0
0
0
0
0
0
0
0
0
0
0
0
0
0
0
0
0
0
0
0
0
0
0
0
0
0
0
0
0
0
0
0
0
0
0
0
0
0
0
0
0
0
0
0
0
0
0
0
0
0
0
0
0
0
0
0
0
0
0
0
0
0
0
0
0
0
0
0
0
0
0
0
0
0
0
0
0
0
0
0
0
0
0
0
0
0
0
0
0
0
0
0
0
0
0
0
0
0
0
0
0
0
0
0
0
0
0
0
0
0
0
0
0
0
0
0
0
0
0
0
0
0
0
0
0
0
0
0
0
0
0
0
0
0
0
0
0
0
0
0
0
0
0
0
0
0
0
0
0
0
0
0
0
0
0
0
0
0
0
0
0
0
0
0
0
0
0
0
0
0
0
0
0
0
0
0
0
0
0
0
0
0
0
0
0
0
0
0
0
0
0
0
0
0
0
0
0
0
0
0
0
0
0
0
0
0
0
0
0
0
0
0
0
0
0
0
0
0
0
0
0
0
0
-6.11285e-230
-2.59208e-230
-4.6889e-233
-1.99204e-233
-3.44319e-236
-1.46566e-236
-2.42062e-239
-1.03242e-239
-1.62921e-242
-6.96282e-243
-1.04984e-245
-4.49598e-246
-6.47704e-249
-2.77963e-249
-3.82606e-252
-1.64545e-252
-2.16402e-255
-9.32673e-256
-1.17198e-258
-5.06217e-259
-6.07782e-262
-2.63101e-262
-3.01828e-265
-1.3095e-265
-1.43542e-268
-6.24172e-269
-6.53779e-272
-2.84935e-272
-2.85195e-275
-1.24583e-275
-1.19165e-278
-5.21761e-279
-4.76959e-282
-2.09326e-282
-1.82888e-285
-8.04548e-286
-6.71907e-289
-2.96284e-289
-2.3654e-292
-1.04555e-292
-7.98053e-296
-3.53604e-296
-2.58082e-299
-1.1463e-299
-8.00125e-303
-3.56251e-303
-2.37855e-306
-1.06164e-306
-6.78127e-310
-3.03421e-310
-1.85459e-313
-8.31878e-314
-4.8666e-317
-2.18836e-317
-1.22578e-320
-5.52365e-321
-4.94066e-324
0
0
0
0
0
0
0
0
0
0
0
0
0
0
0
0
0
0
0
0
0
0
0
0
0
0
0
0
0
0
0
0
0
0
0
0
0
0
0
0
0
0
0
0
0
0
0
0
0
0
0
0
0
0
0
0
0
0
0
0
0
0
0
0
0
0
0
0
0
0
0
0
0
0
0
0
0
0
0
0
0
0
0
0
0
0
0
0
0
0
0
0
0
0
0
0
0
0
0
0
0
0
0
0
0
0
0
0
0
0
0
0
0
0
0
0
0
0
0
0
0
0
0
0
0
0
0
0
0
0
0
0
0
0
0
0
0
0
0
0
0
0
0
0
0
0
0
0
0
0
0
0
0
0
0
0
0
0
0
0
0
0
0
0
0
0
0
0
0
0
0
0
0
0
0
0
0
0
0
0
0
0
0
0
0
0
0
0
0
0
0
0
0
0
0
0
0
0
0
0
0
0
0
0
0
0
0
0
0
0
0
0
0
0
0
0
0
0
0
0
0
0
0
0
0
0
0
0
0
0
0
0
0
0
0
0
0
0
0
0
0
0
0
-1.90695e-230
-8.76117e-231
-1.45415e-233
-6.69355e-234
-1.06161e-236
-4.89614e-237
-7.42015e-240
-3.42897e-240
-4.96555e-243
-2.29931e-243
-3.18156e-246
-1.47626e-246
-1.95184e-249
-9.0756e-250
-1.14655e-252
-5.34252e-253
-6.44912e-256
-3.01154e-256
-3.47364e-259
-1.62562e-259
-1.79169e-262
-8.40346e-263
-8.85029e-266
-4.16028e-266
-4.18689e-269
-1.97259e-269
-1.89711e-272
-8.95839e-273
-8.23367e-276
-3.897e-276
-3.42316e-279
-1.62395e-279
-1.36344e-282
-6.48334e-283
-5.20313e-286
-2.48e-286
-1.90268e-289
-9.09046e-290
-6.66802e-293
-3.19343e-293
-2.23987e-296
-1.0753e-296
-7.21301e-300
-3.47117e-300
-2.22719e-303
-1.07442e-303
-6.59522e-307
-3.18944e-307
-1.87339e-310
-9.08209e-311
-5.10569e-314
-2.48135e-314
-1.3354e-317
-6.50618e-318
-3.35471e-321
-1.63536e-321
0
0
0
0
0
0
0
0
0
0
0
0
0
0
0
0
0
0
0
0
0
0
0
0
0
0
0
0
0
0
0
0
0
0
0
0
0
0
0
0
0
0
0
0
0
0
0
0
0
0
0
0
0
0
0
0
0
0
0
0
0
0
0
0
0
0
0
0
0
0
0
0
0
0
0
0
0
0
0
0
0
0
0
0
0
0
0
0
0
0
0
0
0
0
0
0
0
0
0
0
0
0
0
0
0
0
0
0
0
0
0
0
0
0
0
0
0
0
0
0
0
0
0
0
0
0
0
0
0
0
0
0
0
0
0
0
0
0
0
0
0
0
0
0
0
0
0
0
0
0
0
0
0
0
0
0
0
0
0
0
0
0
0
0
0
0
0
0
0
0
0
0
0
0
0
0
0
0
0
0
0
0
0
0
0
0
0
0
0
0
0
0
0
0
0
0
0
0
0
0
0
0
0
0
0
0
0
0
0
0
0
0
0
0
0
0
0
0
0
0
0
0
0
0
0
0
0
0
0
0
0
0
0
0
0
0
0
0
0
0
0
0
0
0
-4.93211e-231
-2.44035e-231
-3.74011e-234
-1.85408e-234
-2.71541e-237
-1.34872e-237
-1.88754e-240
-9.39379e-241
-1.25625e-243
-6.26469e-244
-8.00557e-247
-4.00044e-247
-4.88489e-250
-2.44612e-250
-2.85417e-253
-1.43227e-253
-1.59692e-256
-8.03085e-257
-8.5562e-260
-4.31228e-260
-4.39031e-263
-2.21758e-263
-2.15749e-266
-1.0922e-266
-1.01547e-269
-5.15231e-270
-4.57805e-273
-2.32812e-273
-1.97707e-276
-1.00773e-276
-8.17957e-280
-4.1789e-280
-3.24227e-283
-1.66034e-283
-1.23148e-286
-6.32118e-287
-4.48248e-290
-2.30633e-290
-1.56382e-293
-8.06546e-294
-5.22999e-297
-2.70389e-297
-1.67701e-300
-8.69116e-301
-5.15677e-304
-2.67903e-304
-1.52095e-307
-7.92098e-308
-4.30371e-311
-2.24687e-311
-1.1686e-314
-6.11615e-315
-3.04574e-318
-1.59803e-318
-7.60861e-322
-4.00193e-322
0
0
0
0
0
0
0
0
0
0
0
0
0
0
0
0
0
0
0
0
0
0
0
0
0
0
0
0
0
0
0
0
0
0
0
0
0
0
0
0
0
0
0
0
0
0
0
0
0
0
0
0
0
0
0
0
0
0
0
0
0
0
0
0
0
0
0
0
0
0
0
0
0
0
0
0
0
0
0
0
0
0
0
0
0
0
0
0
0
0
0
0
0
0
0
0
0
0
0
0
0
0
0
0
0
0
0
0
0
0
0
0
0
0
0
0
0
0
0
0
0
0
0
0
0
0
0
0
0
0
0
0
0
0
0
0
0
0
0
0
0
0
0
0
0
0
0
0
0
0
0
0
0
0
0
0
0
0
0
0
0
0
0
0
0
0
0
0
0
0
0
0
0
0
0
0
0
0
0
0
0
0
0
0
0
0
0
0
0
0
0
0
0
0
0
0
0
0
0
0
0
0
0
0
0
0
0
0
0
0
0
0
0
0
0
0
0
0
0
0
0
0
0
0
0
0
0
0
0
0
0
0
0
0
0
0
0
0
0
0
0
0
0
0
-1.04977e-231
-1.2695e-232
-7.87545e-235
-9.58576e-236
-5.65657e-238
-6.93025e-239
-3.88989e-241
-4.79748e-242
-2.56119e-244
-3.18002e-245
-1.61465e-247
-2.01843e-248
-9.74677e-251
-1.2268e-251
-5.63386e-254
-7.1405e-255
-3.11838e-257
-3.9801e-258
-1.65292e-260
-2.12465e-261
-8.39061e-264
-1.08626e-264
-4.07925e-267
-5.31927e-268
-1.8995e-270
-2.49501e-271
-8.47229e-274
-1.12106e-274
-3.61995e-277
-4.8256e-278
-1.48179e-280
-1.99015e-281
-5.81159e-284
-7.86457e-285
-2.18416e-287
-2.97833e-288
-7.86704e-291
-1.08103e-291
-2.71608e-294
-3.7613e-295
-8.9898e-298
-1.25471e-298
-2.85308e-301
-4.01359e-302
-8.68406e-305
-1.23139e-305
-2.53554e-308
-3.62434e-309
-7.10324e-312
-1.0236e-312
-1.9098e-315
-2.77464e-316
-4.92919e-319
-7.22028e-320
-1.23516e-322
-1.97626e-323
0
0
0
0
0
0
0
0
0
0
0
0
0
0
0
0
0
0
0
0
0
0
0
0
0
0
0
0
0
0
0
0
0
0
0
0
0
0
0
0
0
0
0
0
0
0
0
0
0
0
0
0
0
0
0
0
0
0
0
0
0
0
0
0
0
0
0
0
0
0
0
0
0
0
0
0
0
0
0
0
0
0
0
0
0
0
0
0
0
0
0
0
0
0
0
0
0
0
0
0
0
0
0
0
0
0
0
0
0
0
0
0
0
0
0
0
0
0
0
0
0
0
0
0
0
0
0
0
0
0
0
0
0
0
0
0
0
0
0
0
0
0
0
0
0
0
0
0
0
0
0
0
0
0
0
0
0
0
0
0
0
0
0
0
0
0
0
0
0
0
0
0
0
0
0
0
0
0
0
0
0
0
0
0
0
0
0
0
0
0
0
0
0
0
0
0
0
0
0
0
0
0
0
0
0
0
0
0
0
0
0
0
0
0
0
0
0
0
0
0
0
0
0
0
0
0
0
0
0
0
0
0
0
0
0
0
0
0
0
0
0
0
0
0
-3.56115e-233
-5.81425e-234
-2.64843e-236
-4.34785e-237
-1.88574e-239
-3.11304e-240
-1.28554e-242
-2.1342e-243
-8.39099e-246
-1.40101e-246
-5.24418e-249
-8.80674e-250
-3.1383e-252
-5.30116e-253
-1.79838e-255
-3.0558e-256
-9.86858e-259
-1.68692e-259
-5.18606e-262
-8.91873e-263
-2.61007e-265
-4.51617e-266
-1.25813e-268
-2.1904e-269
-5.80882e-272
-1.01764e-272
-2.56905e-275
-4.52911e-276
-1.08848e-278
-1.93117e-279
-4.41845e-282
-7.8897e-283
-1.71861e-285
-3.08874e-286
-6.40612e-289
-1.15889e-289
-2.28869e-292
-4.16774e-293
-7.83832e-296
-1.43692e-296
-2.57383e-299
-4.75017e-300
-8.10483e-303
-1.50598e-303
-2.44797e-306
-4.5799e-307
-7.09359e-310
-1.33634e-310
-1.97256e-313
-3.74204e-314
-5.26512e-317
-1.00587e-317
-1.34929e-320
-2.59384e-321
-4.94066e-324
0