/*--------------------------------*- C++ -*----------------------------------*\
| =========                 |                                                 |
| \\      /  F ield         | OpenFOAM: The Open Source CFD Toolbox           |
|  \\    /   O peration     | Version:  v1912                                 |
|   \\  /    A nd           | Website:  www.openfoam.com                      |
|    \\/     M anipulation  |                                                 |
\*---------------------------------------------------------------------------*/
FoamFile
{
    version     2.0;
    format      ascii;
    class       volScalarField;
    location    "50";
    object      p_rgh;
}
// * * * * * * * * * * * * * * * * * * * * * * * * * * * * * * * * * * * * * //

dimensions      [1 -1 -2 0 0 0 0];


internalField   nonuniform List<scalar> 
14268
(
-168.87
-141.099
-105.584
-55.374
14.7354
98.8064
179.702
232.738
244.142
215.632
169.342
131.779
116.942
124.019
138.352
147.427
154.834
173.615
207.611
246.745
261.158
234.582
166.21
100.244
62.8354
60.1701
81.1183
103.452
126.921
160.208
196.92
203.256
165.109
102.94
47.3656
16.1852
-26.1254
-64.1193
-148.417
-256.341
-286.627
-269.753
-238.225
-180.681
-168.87
-141.1
-105.586
-55.376
14.7342
98.807
179.705
232.742
244.146
215.634
169.342
131.777
116.94
124.018
138.352
147.427
154.833
173.614
207.611
246.747
261.162
234.585
166.211
100.241
62.8319
60.1681
81.1176
103.451
126.92
160.208
196.922
203.26
165.111
102.939
47.3636
16.1845
-26.1267
-64.122
-148.424
-256.349
-286.632
-269.755
-238.225
-181.414
-168.871
-141.102
-105.589
-55.3799
14.7319
98.8083
179.71
232.749
244.153
215.638
169.34
131.773
116.936
124.017
138.352
147.427
154.831
173.611
207.611
246.752
261.17
234.592
166.211
100.236
62.825
60.1641
81.1162
103.45
126.918
160.21
196.927
203.267
165.115
102.937
47.36
16.1835
-26.1278
-64.129
-148.436
-256.364
-286.643
-269.759
-238.236
-181.525
-168.873
-141.105
-105.594
-55.3857
14.7284
98.8102
179.718
232.761
244.164
215.643
169.338
131.766
116.93
124.014
138.352
147.426
154.828
173.607
207.611
246.759
261.182
234.601
166.212
100.228
62.8147
60.1581
81.1142
103.448
126.916
160.212
196.935
203.279
165.121
102.934
47.3544
16.1819
-26.1305
-64.1372
-148.453
-256.387
-286.658
-269.764
-238.237
-182.142
-168.876
-141.109
-105.601
-55.3935
14.7238
98.8128
179.729
232.777
244.179
215.65
169.336
131.758
116.922
124.011
138.353
147.426
154.824
173.602
207.611
246.768
261.198
234.613
166.213
100.217
62.8009
60.1502
81.1115
103.446
126.913
160.214
196.945
203.295
165.129
102.93
47.3471
16.1794
-26.135
-64.1476
-148.479
-256.419
-286.68
-269.772
-238.254
-182.358
-168.879
-141.114
-105.609
-55.4032
14.7181
98.816
179.743
232.797
244.198
215.659
169.332
131.748
116.912
124.008
138.353
147.426
154.819
173.595
207.611
246.78
261.217
234.628
166.214
100.204
62.7836
60.1403
81.1081
103.444
126.909
160.217
196.958
203.315
165.139
102.924
47.3378
16.1767
-26.1396
-64.1634
-148.509
-256.457
-286.705
-269.782
-238.26
-182.873
-168.882
-141.12
-105.619
-55.4148
14.7112
98.8198
179.759
232.821
244.221
215.669
169.328
131.735
116.9
124.003
138.354
147.425
154.813
173.587
207.612
246.795
261.241
234.647
166.216
100.188
62.7629
60.1284
81.1041
103.441
126.905
160.221
196.973
203.338
165.15
102.918
47.3267
16.1739
-26.143
-64.1803
-148.546
-256.503
-286.737
-269.793
-238.279
-183.176
-168.887
-141.127
-105.63
-55.4284
14.7031
98.8243
179.778
232.849
244.247
215.681
169.324
131.72
116.887
123.998
138.355
147.425
154.805
173.578
207.612
246.811
261.269
234.668
166.218
100.169
62.7387
60.1146
81.0994
103.437
126.899
160.226
196.991
203.366
165.164
102.911
47.3138
16.1687
-26.1492
-64.2006
-148.588
-256.557
-286.773
-269.806
-238.295
-183.611
-168.891
-141.134
-105.643
-55.4439
14.6939
98.8294
179.799
232.881
244.277
215.696
169.318
131.704
116.871
123.991
138.356
147.424
154.797
173.567
207.612
246.831
261.301
234.693
166.22
100.148
62.7111
60.0987
81.094
103.433
126.893
160.231
197.012
203.397
165.18
102.902
47.2991
16.1647
-26.1563
-64.2238
-148.637
-256.619
-286.815
-269.82
-238.316
-183.975
-168.897
-141.143
-105.658
-55.4614
14.6835
98.8352
179.823
232.917
244.311
215.711
169.312
131.685
116.853
123.985
138.357
147.423
154.788
173.555
207.612
246.852
261.336
234.721
166.222
100.124
62.6801
60.0809
81.088
103.428
126.886
160.237
197.035
203.433
165.198
102.892
47.2824
16.1604
-26.1638
-64.2496
-148.691
-256.688
-286.861
-269.836
-238.339
-184.354
-168.903
-141.153
-105.674
-55.4807
14.672
98.8416
179.85
232.957
244.349
215.729
169.305
131.664
116.833
123.977
138.358
147.423
154.778
173.542
207.612
246.876
261.376
234.752
166.225
100.097
62.6456
60.0611
81.0813
103.423
126.879
160.243
197.06
203.472
165.218
102.882
47.2636
16.1545
-26.1725
-64.2784
-148.752
-256.764
-286.912
-269.852
-238.363
-184.744
-168.91
-141.163
-105.693
-55.5021
14.6594
98.8487
179.88
233.001
244.39
215.748
169.298
131.641
116.812
123.969
138.359
147.422
154.766
173.527
207.612
246.902
261.42
234.785
166.228
100.068
62.6076
60.0393
81.0739
103.417
126.87
160.25
197.088
203.515
165.24
102.87
47.2434
16.149
-26.1818
-64.3098
-148.818
-256.847
-286.968
-269.871
-238.392
-185.117
-168.917
-141.175
-105.712
-55.5254
14.6455
98.8564
179.912
233.049
244.435
215.769
169.29
131.616
116.788
123.959
138.361
147.421
154.754
173.511
207.612
246.931
261.468
234.822
166.231
100.036
62.5662
60.0155
81.0659
103.411
126.861
160.258
197.119
203.563
165.264
102.857
47.2215
16.1423
-26.192
-64.344
-148.889
-256.937
-287.028
-269.888
-238.42
-185.501
-168.925
-141.188
-105.734
-55.5507
14.6306
98.8647
179.947
233.101
244.484
215.792
169.281
131.589
116.762
123.95
138.362
147.42
154.741
173.494
207.612
246.962
261.519
234.862
166.234
100.001
62.5212
59.9898
81.0571
103.405
126.851
160.266
197.152
203.614
165.29
102.843
47.1974
16.135
-26.2029
-64.3808
-148.965
-257.034
-287.092
-269.91
-238.452
-185.87
-168.937
-141.208
-105.768
-55.5914
14.6064
98.8782
180.003
233.186
244.564
215.829
169.267
131.545
116.721
123.934
138.365
147.418
154.72
173.466
207.612
247.012
261.603
234.927
166.24
99.9454
62.4488
59.9483
81.0432
103.394
126.835
160.28
197.206
203.697
165.332
102.821
47.1578
16.1238
-26.2201
-64.4395
-149.088
-257.188
-287.194
-269.935
-238.501
-186.429
-168.957
-141.239
-105.821
-55.6536
14.5695
98.8988
180.09
233.314
244.684
215.885
169.245
131.478
116.657
123.909
138.368
147.415
154.686
173.423
207.613
247.089
261.73
235.026
166.249
99.86
62.3381
59.8847
81.0216
103.377
126.81
160.301
197.288
203.822
165.395
102.783
47.0978
16.1062
-26.2459
-64.5277
-149.271
-257.423
-287.342
-270.003
-238.552
-187.142
-168.978
-141.273
-105.88
-55.7235
14.528
98.9219
180.186
233.458
244.82
215.949
169.221
131.403
116.586
123.882
138.373
147.413
154.65
173.374
207.613
247.175
261.873
235.137
166.258
99.7638
62.2136
59.8137
80.9978
103.359
126.783
160.324
197.38
203.965
165.467
102.744
47.033
16.0865
-26.2737
-64.6268
-149.473
-257.684
-287.503
-270.092
-238.584
-187.83
-169.003
-141.313
-105.946
-55.8014
14.4817
98.9475
180.294
233.618
244.97
216.019
169.194
131.318
116.507
123.851
138.377
147.41
154.608
173.32
207.613
247.27
262.032
235.26
166.269
99.6568
62.0751
59.734
80.9708
103.338
126.752
160.35
197.482
204.122
165.547
102.708
46.9597
16.0648
-26.3029
-64.7342
-149.691
-257.967
-287.669
-270.214
-238.618
-188.479
-169.029
-141.355
-106.018
-55.887
14.4308
98.9756
180.413
233.794
245.137
216.096
169.164
131.227
116.42
123.818
138.383
147.407
154.564
173.261
207.613
247.376
262.208
235.396
166.28
99.5391
61.9227
59.6475
80.9419
103.316
126.718
160.379
197.595
204.296
165.635
102.651
46.8769
16.0412
-26.3329
-64.8468
-149.92
-258.267
-287.841
-270.265
-238.683
-189.09
-169.058
-141.402
-106.098
-55.9806
14.3752
99.0064
180.542
233.987
245.317
216.181
169.132
131.124
116.324
123.781
138.388
147.402
154.514
173.196
207.614
247.49
262.399
235.544
166.294
99.4112
61.7564
59.5516
80.9096
103.291
126.681
160.41
197.717
204.485
165.734
102.613
46.7883
16.0162
-26.3632
-64.9712
-150.181
-258.589
-288.021
-270.337
-238.777
-189.659
-169.089
-141.452
-106.182
-56.0819
14.315
99.0397
180.682
234.196
245.516
216.271
169.096
131.02
116.222
123.742
138.395
147.4
154.461
173.126
207.614
247.616
262.607
235.703
166.303
99.272
61.5792
59.4495
80.8756
103.265
126.641
160.444
197.852
204.692
165.822
102.519
46.6927
15.9836
-26.4022
-65.1084
-150.49
-258.958
-288.202
-270.351
-238.875
-190.18
-169.34
-141.856
-106.867
-56.883
13.8366
99.2974
181.78
235.83
247.044
216.955
168.784
130.106
115.404
123.425
138.439
147.36
154.033
172.569
207.61
248.591
264.242
236.941
166.327
98.1316
60.1177
58.6298
80.5993
103.049
126.317
160.703
198.888
206.305
166.294
101.104
45.9142
15.8598
-26.5138
-66.0815
-152.878
-261.76
-289.68
-271.118
-239.619
-193.615
-170.22
-143.316
-109.299
-59.8265
12.0783
100.272
185.889
241.933
252.849
219.62
167.792
127.158
112.419
122.296
138.671
147.271
152.478
170.501
207.603
252.239
270.312
241.638
166.712
94.0958
55.1224
55.6713
79.6395
102.276
125.112
161.704
202.782
212.395
169.637
100.774
43.1338
14.6828
-27.0594
-70.5041
-163.245
-269.843
-292.779
-269.438
-241.42
-196.896
-171.502
-145.512
-113.244
-64.3869
9.29242
101.664
192.106
251.221
261.619
223.539
166.031
121.911
107.798
120.618
139.098
147.157
150.044
167.202
207.515
257.847
279.747
248.819
167.218
87.5508
46.7179
51.1708
78.2994
101.1
123.094
162.772
209.181
221.654
173.729
97.3314
39.4688
14.51
-28.4614
-71.3738
-160.549
-272.397
-294.019
-273.677
-242.105
-198.819
-173.05
-148.334
-118.286
-70.6504
5.38935
103.512
200.496
263.836
273.714
229.312
163.576
115.105
101.446
118.431
139.947
147.174
146.667
162.382
207.109
265.23
292.917
258.835
168.139
78.9781
35.8115
45.1285
76.7059
99.5708
120.077
163.9
217.761
235.049
180.933
95.8299
36.3408
15.775
-25.7812
-73.4431
-160.492
-268.222
-280.607
-260.292
-235.109
-197.739
94.389
113.684
136.052
170.135
227.074
306.762
389.827
444.795
452.113
411.087
352.269
312.265
303.089
320.697
340.587
344.65
340.416
351.07
390.506
444.667
471.99
442.961
365.062
290.093
258.409
270.588
299.468
318.616
335.313
373.425
420.568
435.465
389.628
327.403
305.268
325.033
311.73
293.392
273.404
207.159
153.792
125.613
95.141
78.8038
744.91
757.688
771.779
795.4
837.648
898.779
964.722
1009.3
1012.73
976.808
926.843
892.715
888.309
905.496
923.749
926.701
920.951
926.826
959.287
1005.74
1030.27
1003.18
934.75
870.401
844.684
858.683
883.499
895.512
903.829
933.946
975.373
989.962
946.67
889.395
861.219
865.093
846.967
822.768
796.739
763.82
755.708
758.36
746.939
736.454
158.109
167.967
179.382
194.239
219.625
259.729
307.202
340.662
342.43
313.341
275.703
252.458
251.678
266.217
281.678
285.289
281.673
285.472
309.498
344.591
362.095
333.773
275.692
228.695
212.387
222.573
239.464
245.552
248.227
268.502
298
306.998
268.083
224.874
201.175
189.594
165.181
145.957
141.019
161.042
184.454
199.108
182.968
166.878
0.115668
0.116864
0.123263
0.104592
0.0386614
-0.070872
-0.19086
-0.255901
-0.236506
-0.141023
-0.0140499
0.0559996
0.0696505
0.0240304
-0.0192352
-0.0106187
0.019799
0.019829
-0.0589951
-0.176742
-0.240604
-0.181708
-0.0260242
0.13951
0.174239
0.116704
0.04974
0.0317351
0.0184735
-0.0635871
-0.183525
-0.222551
-0.114538
0.0370363
0.0913232
0.0552529
0.0747231
0.128268
0.149918
0.089232
-0.0417252
-0.0833468
-0.0426786
-0.0291292
0.113374
0.109455
0.109142
0.099253
0.0452571
-0.0557497
-0.169732
-0.246027
-0.247492
-0.145245
-0.0233582
0.0801835
0.0759117
0.0295355
-0.0144317
-0.0178605
0.0134494
0.017227
-0.0534506
-0.161269
-0.231483
-0.187919
-0.0476944
0.11297
0.179406
0.126701
0.0522118
0.0294371
0.0315479
-0.0374946
-0.15593
-0.214693
-0.131999
0.00873355
0.0756103
0.0619647
0.0866111
0.162428
0.21696
0.128536
-0.0391952
-0.131336
-0.162505
-0.179213
0.10743
0.103833
0.0999886
0.0814707
0.0254269
-0.0612223
-0.151292
-0.202786
-0.187897
-0.117979
-0.0254063
0.0313797
0.045217
0.0163401
-0.0117782
-0.0104077
0.00529607
-0.00231507
-0.0590204
-0.141298
-0.18051
-0.136879
-0.0257855
0.0929494
0.129962
0.0940737
0.0471115
0.0243203
0.00534271
-0.0554075
-0.135712
-0.160912
-0.092281
0.0154226
0.064821
0.0559366
0.0719624
0.104217
0.100873
0.0771121
-0.0222974
-0.0571329
-0.0572923
-0.0341918
0.103694
0.096809
0.0888912
0.0703379
0.0243837
-0.0487067
-0.12819
-0.176444
-0.186888
-0.116357
-0.0337891
0.0316233
0.0424962
0.0189299
-0.00750017
-0.0133617
-0.00138825
-0.0083592
-0.054351
-0.122538
-0.162213
-0.130912
-0.0376344
0.0680349
0.112284
0.0953596
0.0476004
0.0236205
0.0111539
-0.0352538
-0.109421
-0.14231
-0.0943738
-0.00412423
0.0491624
0.0537162
0.0773523
0.120283
0.163547
0.101242
-0.0153597
-0.0795122
-0.116002
-0.120519
0.0980128
0.0913616
0.0822476
0.0615123
0.0169735
-0.0497362
-0.117667
-0.155623
-0.137621
-0.0981282
-0.0328316
0.0162316
0.0263617
0.00985328
-0.00857435
-0.0121326
-0.00594987
-0.0156874
-0.0551073
-0.109821
-0.134385
-0.103904
-0.0259023
0.0592732
0.0934578
0.0710316
0.0405908
0.0186491
-0.00221169
-0.045542
-0.0972098
-0.116013
-0.0728442
0.00243724
0.0450226
0.0508591
0.0661978
0.0852167
0.0792727
0.0562102
-0.00916621
-0.0353935
-0.0583231
-0.00846607
0.0937188
0.0854683
0.0735784
0.0530362
0.0130489
-0.0422026
-0.0988551
-0.133024
-0.138779
-0.0939041
-0.0371671
0.00500576
0.0204192
0.00937925
-0.00654637
-0.0121417
-0.0106109
-0.0204399
-0.052449
-0.0963723
-0.11739
-0.0935928
-0.0304539
0.0411661
0.0739693
0.0689365
0.0397678
0.0185288
0.0014009
-0.0329076
-0.0785632
-0.0970645
-0.0661075
-0.00703144
0.0337681
0.0468352
0.0653385
0.0904839
0.114807
0.0803591
-0.00476485
-0.0468127
-0.0815418
-0.0867172
0.0884593
0.0800742
0.0681644
0.0474619
0.0104287
-0.0394046
-0.0902955
-0.119945
-0.115614
-0.0831433
-0.0362191
0.00227092
0.0118415
0.00387556
-0.0081404
-0.0130019
-0.013051
-0.0233242
-0.0502826
-0.0860213
-0.101377
-0.079238
-0.0250612
0.0355101
0.0634538
0.0561766
0.0332568
0.0142851
-0.0052962
-0.0373035
-0.0709965
-0.0829182
-0.0564293
-0.00508608
0.0305004
0.0435459
0.0579776
0.069423
0.0647772
0.0450174
-0.00146369
-0.0243896
-0.0497087
-0.0360356
0.0842453
0.0752951
0.0620727
0.0415064
0.00806128
-0.0353736
-0.0774321
-0.102145
-0.101106
-0.076229
-0.0373324
-0.00888064
0.00621987
0.001891
-0.00786641
-0.0131101
-0.0160131
-0.0257726
-0.0482176
-0.0763475
-0.0880502
-0.0693254
-0.0251963
0.0245354
0.0491505
0.047639
0.0301378
0.0129737
-0.0043111
-0.0284826
-0.0569277
-0.0683892
-0.0476926
-0.00663697
0.0248996
0.0398673
0.0542278
0.0691796
0.0813687
0.0598314
0.000975319
-0.0293462
-0.0591443
-0.068426
0.0794964
0.0703504
0.0572008
0.0375362
0.00684726
-0.0316418
-0.0690105
-0.0919388
-0.0919237
-0.0695433
-0.0365128
-0.00694766
0.0013163
-0.00141395
-0.00919501
-0.014001
-0.0171929
-0.0265833
-0.0454824
-0.0681097
-0.0769181
-0.0605755
-0.0234211
0.0192693
0.0417421
0.0414407
0.0265253
0.011005
-0.00578228
-0.0290936
-0.0516259
-0.0594199
-0.0415052
-0.00709163
0.0209788
0.0362206
0.0487919
0.0564871
0.0524382
0.0379438
0.00243482
-0.0174553
-0.0379564
-0.0472756
0.0756077
0.0664846
0.0530704
0.0338358
0.00587317
-0.0281192
-0.0605835
-0.0798642
-0.0796126
-0.0631144
-0.0358369
-0.0136473
-0.00275354
-0.00369055
-0.00970327
-0.0143601
-0.0190193
-0.0278013
-0.0434236
-0.0611665
-0.0676106
-0.0533357
-0.0222167
0.0134177
0.0327236
0.0337453
0.0224121
0.00889865
-0.00621567
-0.0244792
-0.0421681
-0.0489031
-0.034541
-0.00655223
0.0183603
0.0332377
0.0447754
0.0534032
0.0586345
0.0433312
0.00375933
-0.019713
-0.0451247
-0.0561821
0.0714265
0.0621128
0.0489835
0.0307014
0.00520455
-0.0249612
-0.0533668
-0.0707266
-0.071915
-0.0582038
-0.0349792
-0.0149733
-0.00599601
-0.00595549
-0.0108029
-0.0151183
-0.0193708
-0.0273606
-0.0406246
-0.0549209
-0.0596317
-0.047163
-0.0209717
0.00913319
0.0266282
0.0286995
0.0196155
0.00747026
-0.00624936
-0.0224812
-0.037432
-0.0426014
-0.0301226
-0.0065365
0.0153733
0.0294
0.039812
0.0461139
0.0440611
0.0316989
0.00398481
-0.0138046
-0.033167
-0.048169
0.0679562
0.0589624
0.0460564
0.028494
0.00508913
-0.0218525
-0.0469243
-0.0623925
-0.0637844
-0.0523224
-0.033573
-0.0167084
-0.00846986
-0.00771266
-0.0113769
-0.0153161
-0.0201048
-0.0275886
-0.0386049
-0.04979
-0.0530108
-0.0420579
-0.019938
0.00550838
0.0209656
0.0233859
0.0163231
0.00589853
-0.0062306
-0.0199906
-0.0316542
-0.0354263
-0.025099
-0.00564035
0.0136985
0.0270627
0.036816
0.0422655
0.0430168
0.0315787
0.00444764
-0.014794
-0.0355023
-0.0483386
0.0643418
0.0552257
0.0426964
0.026108
0.00479654
-0.0192054
-0.0413268
-0.0551814
-0.0569463
-0.0489107
-0.0324848
-0.0181852
-0.0106486
-0.00947824
-0.0124028
-0.0160446
-0.020369
-0.0269966
-0.0362024
-0.0450927
-0.0472355
-0.0376104
-0.0188833
0.00269837
0.0164235
0.0191718
0.0137044
0.00461799
-0.00608133
-0.0178907
-0.0274896
-0.0305803
-0.0216672
-0.00515962
0.0117152
0.0239324
0.0323376
0.0369292
0.0347218
0.0252682
0.00419827
-0.0118325
-0.0291402
-0.0443037
0.0613155
0.0526227
0.0405508
0.0247855
0.00512692
-0.0165297
-0.0362497
-0.0487436
-0.0507709
-0.0418773
-0.0307495
-0.0186729
-0.0119779
-0.0105517
-0.012657
-0.0159975
-0.0202852
-0.0263341
-0.0340856
-0.0411226
-0.0424045
-0.0339307
-0.0180114
0.00032434
0.0124754
0.0153714
0.0112091
0.00346393
-0.00585804
-0.0158824
-0.0236503
-0.0258037
-0.0182198
-0.0043374
0.0103737
0.0217629
0.0295073
0.0336284
0.0321359
0.0233944
0.0040884
-0.0121395
-0.0292108
-0.0424957
0.0582125
0.0495138
0.0378628
0.0230254
0.00508907
-0.0143075
-0.031873
-0.0432004
-0.0455991
-0.0409989
-0.0295941
-0.0193971
-0.013572
-0.0120582
-0.0136614
-0.0165784
-0.0204085
-0.0257096
-0.0321472
-0.0376447
-0.0382298
-0.0307389
-0.0171402
-0.00150701
0.00925316
0.0122126
0.00905201
0.00244603
-0.00562434
-0.014221
-0.0205419
-0.0221283
-0.0155784
-0.00369954
0.00910114
0.0194374
0.026036
0.0294555
0.0271449
0.0194061
0.0036177
-0.0105835
-0.0253456
-0.0395072
0.0556156
0.0473301
0.0362069
0.0221998
0.00559562
-0.0120414
-0.0278449
-0.0381605
-0.0406545
-0.0351327
-0.0278597
-0.0192764
-0.0139546
-0.0124275
-0.0136697
-0.0163546
-0.0199819
-0.0247349
-0.0301693
-0.0344985
-0.0345981
-0.0279909
-0.0163385
-0.00298573
0.00650075
0.00946175
0.0071201
0.00157317
-0.0053631
-0.012632
-0.0177505
-0.0187956
-0.0131565
-0.00299017
0.00808102
0.0174895
0.0234753
0.0265817
0.0243535
0.0173637
0.00319229
-0.0106001
-0.0248063
-0.0374086
0.052968
0.0447911
0.0341038
0.0209477
0.00574393
-0.0101797
-0.0244
-0.0338733
-0.0367549
-0.0341746
-0.0267066
-0.0194638
-0.0149412
-0.0135132
-0.0144248
-0.0167106
-0.0199105
-0.0240272
-0.0285308
-0.0318772
-0.0315715
-0.0256973
-0.0156461
-0.00418252
0.00419162
0.0071028
0.00540814
0.000796598
-0.00512511
-0.0112909
-0.0154734
-0.0161084
-0.0112086
-0.00243838
0.00718854
0.015682
0.0208439
0.0233843
0.0210621
0.0145707
0.00260663
-0.00968809
-0.0222209
-0.0349494
0.0507544
0.0429412
0.0327843
0.0204091
0.00629408
-0.00827345
-0.0211758
-0.0298729
-0.032704
-0.0305657
-0.0250411
-0.0189985
-0.0149781
-0.0135948
-0.01433
-0.016404
-0.0193432
-0.022984
-0.0267679
-0.0293693
-0.028803
-0.0235976
-0.0149142
-0.00507648
0.00232999
0.00514698
0.00396469
0.000142325
-0.00487394
-0.0100581
-0.0134272
-0.0137254
-0.00946478
-0.00186446
0.00646376
0.0140829
0.0186371
0.0209013
0.0186572
0.0127596
0.00205174
-0.00959484
-0.0215528
-0.0329238
0.0485066
0.0408797
0.0311565
0.0195329
0.00654001
-0.00672163
-0.0184531
-0.0265421
-0.0297509
-0.0284466
-0.0238549
-0.018825
-0.015418
-0.0141953
-0.0147616
-0.0165338
-0.019108
-0.0222405
-0.0253666
-0.0273407
-0.0265594
-0.0219057
-0.0143541
-0.00586432
0.000700722
0.00340747
0.00265515
-0.000469065
-0.0046883
-0.00902387
-0.0117576
-0.0117855
-0.0080671
-0.00146208
0.00580376
0.0126006
0.0165734
0.0184337
0.0162711
0.0107167
0.00141737
-0.00901523
-0.0197063
-0.030774
0.0466148
0.0393047
0.0300773
0.0191584
0.00707422
-0.0051216
-0.0158451
-0.0233068
-0.0262601
-0.0257111
-0.0222799
-0.0181675
-0.0152386
-0.0141207
-0.014592
-0.0161744
-0.0184852
-0.0212208
-0.0238297
-0.0253266
-0.0244233
-0.0202778
-0.0137039
-0.00636755
-0.000553828
0.00201251
0.00158635
-0.000950373
-0.00446088
-0.00805858
-0.0102486
-0.0100605
-0.00679902
-0.00103494
0.00528242
0.0113106
0.0147857
0.0163563
0.0142963
0.00920501
0.000856577
-0.00888979
-0.019026
-0.0289876
0.0447212
0.037637
0.0288246
0.0185552
0.0073619
-0.00383354
-0.0136878
-0.0207307
-0.0241271
-0.023764
-0.0210972
-0.0177579
-0.0153114
-0.0143581
-0.0147514
-0.016122
-0.0181376
-0.0204799
-0.0226229
-0.0237179
-0.0227167
-0.0189917
-0.0132306
-0.00684954
-0.00166489
0.00075662
0.000641096
-0.00140691
-0.00431785
-0.00727156
-0.00903025
-0.00867091
-0.0058021
-0.000769017
0.00476446
0.0100867
0.0131167
0.0143857
0.0124496
0.00768819
0.000250947
-0.00851413
-0.0176403
-0.0270956
0.043093
0.0362901
0.0279293
0.0182812
0.00785195
-0.00249091
-0.0115542
-0.0180499
-0.0210007
-0.0215452
-0.0196599
-0.0170043
-0.0149677
-0.0141469
-0.0144954
-0.0157151
-0.0174991
-0.0195239
-0.0212966
-0.0220873
-0.0210477
-0.0177126
-0.0126627
-0.00710514
-0.00250517
-0.000233467
-0.000134809
-0.00174651
-0.00412772
-0.00652794
-0.00791888
-0.00743278
-0.0048818
-0.000472747
0.00435973
0.00904081
0.0116846
0.0127009
0.0108612
0.0064675
-0.000257371
-0.0083846
-0.0169929
-0.0255671
0.0415063
0.0349346
0.026957
0.0178615
0.00814668
-0.00142517
-0.00984398
-0.0160969
-0.0194546
-0.0198674
-0.0185196
-0.0164514
-0.0148069
-0.0141419
-0.014458
-0.0155271
-0.0170798
-0.0188055
-0.0202482
-0.0207815
-0.0197122
-0.0167016
-0.0122446
-0.00737181
-0.00326879
-0.00111565
-0.000849396
-0.00208488
-0.00401245
-0.00592796
-0.00702386
-0.00644274
-0.00416097
-0.000310477
0.00393701
0.00803239
0.01033
0.0111095
0.0093796
0.00530436
-0.00080133
-0.00814354
-0.0159249
-0.0239345
0.0400967
0.0337792
0.0262057
0.0176517
0.00857988
-0.000297888
-0.00807538
-0.0138311
-0.0171526
-0.0180368
-0.0172198
-0.0156538
-0.0143427
-0.0138148
-0.0141204
-0.0150792
-0.0164458
-0.0179272
-0.0191082
-0.0194507
-0.0183903
-0.0156828
-0.0117501
-0.00747178
-0.00381266
-0.00180028
-0.00139605
-0.00231712
-0.00385877
-0.0053696
-0.00621031
-0.00556788
-0.00350888
-0.000127695
0.00359512
0.00717293
0.00916923
0.00974924
0.00810049
0.00433149
-0.00122288
-0.00801795
-0.0153246
-0.0226345
0.0387625
0.0326665
0.0254389
0.0173552
0.00886102
0.000581962
-0.00672024
-0.0123838
-0.0154882
-0.0165638
-0.0161516
-0.0150318
-0.0140368
-0.0136484
-0.0139456
-0.0147953
-0.0159836
-0.0172397
-0.0181874
-0.0183661
-0.0173136
-0.014859
-0.0113644
-0.00758217
-0.00430287
-0.00241544
-0.00190008
-0.00254598
-0.00375554
-0.00491186
-0.00554183
-0.00486157
-0.00298669
-3.45842e-05
0.00324411
0.00634918
0.00807212
0.00846783
0.00690341
0.00341359
-0.00169429
-0.00786024
-0.0144879
-0.021257
0.0375432
0.0316764
0.0248043
0.0171868
0.00923427
0.00152935
-0.00522338
-0.0103885
-0.0136802
-0.0150254
-0.0149745
-0.0142204
-0.0134927
-0.0132343
-0.0135435
-0.0143177
-0.0153664
-0.0164422
-0.0172088
-0.0172722
-0.0162545
-0.0140384
-0.0109349
-0.00758642
-0.00465004
-0.00288229
-0.00229163
-0.00271078
-0.00363992
-0.00450549
-0.00495266
-0.00425231
-0.00254059
5.73384e-05
0.00293292
0.0056296
0.00711388
0.00736159
0.00586792
0.00263639
-0.00203301
-0.00774867
-0.013939
-0.0201423
0.0364046
0.0307466
0.0241852
0.0169706
0.00948916
0.00225271
-0.00415273
-0.00904903
-0.0122511
-0.0137466
-0.0139976
-0.0135775
-0.0130982
-0.0129583
-0.0132713
-0.0139659
-0.0148786
-0.0157862
-0.0163886
-0.0163494
-0.0153595
-0.0133422
-0.0105669
-0.00758307
-0.00494039
-0.00327954
-0.00263368
-0.00285329
-0.00354724
-0.00416435
-0.00445393
-0.00375192
-0.00217808
0.000101643
0.00263182
0.00496122
0.00622684
0.00633299
0.00490161
0.00189646
-0.0024226
-0.00763616
-0.0132845
-0.0190046
0.0353513
0.029899
0.0236462
0.0168291
0.00980431
0.00304891
-0.00288461
-0.00756047
-0.0107876
-0.012436
-0.0129299
-0.0127777
-0.0125114
-0.0124902
-0.0128291
-0.0134764
-0.0142894
-0.0150685
-0.0155491
-0.0154443
-0.0145014
-0.0126728
-0.0101929
-0.0075297
-0.0051528
-0.00359113
-0.00290864
-0.00296232
-0.00346045
-0.00386977
-0.00402443
-0.00332802
-0.00188047
0.000129969
0.00234771
0.00435804
0.00542942
0.00542783
0.00405559
0.00126779
-0.00270266
-0.0075331
-0.0127823
-0.0180397
0.0343671
0.0291073
0.0231324
0.0166625
0.010026
0.0036389
-0.00204876
-0.00644998
-0.0095779
-0.0113362
-0.0120484
-0.0121395
-0.0120613
-0.0121354
-0.0124833
-0.0130732
-0.0137848
-0.0144407
-0.014808
-0.0146427
-0.0137392
-0.0120712
-0.00984328
-0.00745418
-0.00530886
-0.00383749
-0.0031351
-0.00304744
-0.00338442
-0.00362085
-0.00365944
-0.00297879
-0.00164484
0.000128742
0.00207402
0.00380451
0.0047018
0.00460002
0.00327304
0.000670133
-0.00301266
-0.00745204
-0.0122741
-0.01712
0.0334511
0.0283772
0.0226703
0.0165384
0.0102874
0.00430833
-0.000990622
-0.00529528
-0.00836886
-0.0102069
-0.0110847
-0.0113747
-0.0114674
-0.0116467
-0.0120274
-0.0125899
-0.0132323
-0.0137985
-0.014085
-0.013884
-0.0130287
-0.0115084
-0.00950394
-0.00735426
-0.00541502
-0.00402645
-0.00331478
-0.00311121
-0.00331377
-0.00340711
-0.0033468
-0.00268512
-0.00145752
0.000113393
0.00181379
0.00329965
0.00404036
0.00385823
0.00257835
0.000154416
-0.00324767
-0.00735675
-0.0118262
-0.0162943
0.0325911
0.027693
0.0222321
0.0163999
0.0104722
0.00478826
-0.00023929
-0.00434188
-0.00735345
-0.00926216
-0.0102892
-0.0107491
-0.0109783
-0.0112319
-0.0116246
-0.0121487
-0.0127197
-0.0132008
-0.0134148
-0.013185
-0.012376
-0.0109873
-0.00917902
-0.00723741
-0.00548013
-0.00416788
-0.0034555
-0.0031584
-0.0032487
-0.00322699
-0.0030837
-0.00244642
-0.00131713
7.55166e-05
0.00156081
0.00283287
0.00343367
0.00318293
0.00194395
-0.000327812
-0.00349188
-0.00729122
-0.0114145
-0.0155365
0.0317862
0.0270567
0.0218299
0.0162863
0.0106843
0.0053442
0.000548636
-0.00339235
-0.00633689
-0.00828679
-0.00943057
-0.0100414
-0.0104067
-0.0107487
-0.0111734
-0.0116813
-0.0122029
-0.0126195
-0.0127788
-0.0125317
-0.0117698
-0.0105002
-0.00886552
-0.00710625
-0.00550962
-0.00426924
-0.00356213
-0.00319128
-0.00318699
-0.0030724
-0.00285943
-0.0022475
-0.00121022
2.90724e-05
0.00132189
0.0024051
0.00288207
0.00257528
0.00137502
-0.000754798
-0.00369012
-0.00720888
-0.0110337
-0.0148452
0.0310261
0.0264565
0.0214467
0.0161617
0.0108316
0.00573825
0.00119216
-0.00259382
-0.00548168
-0.00746669
-0.00870397
-0.00942825
-0.00989163
-0.010294
-0.0107362
-0.0112246
-0.0117013
-0.0120629
-0.0121786
-0.0119216
-0.0112063
-0.0100444
-0.00856326
-0.00696447
-0.00550941
-0.00433689
-0.00364007
-0.00321245
-0.00312935
-0.00294248
-0.00267346
-0.00209006
-0.00113843
-3.58819e-05
0.00108765
0.00200536
0.00237266
0.00202008
0.000856826
-0.00114591
-0.00388292
-0.00715197
-0.0106941
-0.0142195
0.0303103
0.0258939
0.0210898
0.0160525
0.010998
0.0061694
0.00183523
-0.00180259
-0.0046246
-0.0066313
-0.00795292
-0.00878985
-0.00935557
-0.00982448
-0.0102909
-0.0107678
-0.0112094
-0.0115272
-0.0116095
-0.0113496
-0.0106801
-0.00961574
-0.00827092
-0.00681428
-0.00548416
-0.00437622
-0.00369379
-0.00322351
-0.0030742
-0.00283124
-0.00251697
-0.00196095
-0.00108936
-0.00010518
0.000867813
0.0016399
0.00191091
0.00151979
0.000390019
-0.00149755
-0.0040497
-0.00708636
-0.0103766
-0.0136481
0.0296299
0.0253591
0.0207465
0.0159331
0.0111103
0.00651256
0.00237112
-0.00113386
-0.0038941
-0.00590656
-0.00728205
-0.00819681
-0.00883886
-0.0093609
-0.00984827
-0.0103168
-0.01073
-0.0110128
-0.0110701
-0.0108124
-0.0101874
-0.00921181
-0.00798859
-0.00665792
-0.00543875
-0.00439186
-0.00372683
-0.00322644
-0.0030225
-0.00273809
-0.00239012
-0.00186254
-0.00106637
-0.000189591
0.000651574
0.00129569
0.00148058
0.00105847
-3.66864e-05
-0.00181826
-0.00420502
-0.00703478
-0.0100942
-0.0131324
0.0289851
0.0248538
0.0204228
0.0158236
0.011237
0.00685782
0.00289934
-0.000477225
-0.0031779
-0.00519884
-0.00662949
-0.00761851
-0.00832997
-0.00890009
-0.00940763
-0.00987128
-0.0102625
-0.0105178
-0.0105574
-0.0103061
-0.00972418
-0.00882963
-0.00771535
-0.006497
-0.00537713
-0.00438795
-0.00374222
-0.00322233
-0.00297314
-0.00265853
-0.00228593
-0.00178423
-0.00105758
-0.000274751
0.000449802
0.000979744
0.00109025
0.000642484
-0.000422259
-0.00210906
-0.00434443
-0.0069829
-0.00983407
-0.0126647
0.028368
0.0243697
0.0201082
0.0157036
0.0113148
0.00713522
0.00334484
9.00519e-05
-0.00254414
-0.00455442
-0.00601896
-0.00706528
-0.00783451
-0.00844616
-0.00897237
-0.00943351
-0.00980782
-0.0100422
-0.0100698
-0.00982809
-0.00928773
-0.00846706
-0.00745064
-0.00633241
-0.00530224
-0.00436809
-0.00374273
-0.00321253
-0.00292708
-0.00259178
-0.00220429
-0.00172794
-0.00106742
-0.000371627
0.000249999
0.000680288
0.000724107
0.000255909
-0.000776572
-0.00237449
-0.00447214
-0.00693955
-0.00959976
-0.0122408
0.0277793
0.0239084
0.0198082
0.0155901
0.0114027
0.00740841
0.003773
0.000628348
-0.00194766
-0.00394876
-0.00544073
-0.00653423
-0.00735215
-0.00800002
-0.00854358
-0.00900424
-0.00936599
-0.00958485
-0.00960551
-0.00937594
-0.00887569
-0.00812281
-0.00719406
-0.0061661
-0.00521659
-0.00433512
-0.00373082
-0.00319777
-0.0028836
-0.00253476
-0.00214036
-0.00168654
-0.00108757
-0.000468316
6.30527e-05
0.000404399
0.000390849
-9.41203e-05
-0.00109778
-0.00261685
-0.00459019
-0.00690073
-0.00938941
-0.0118606
0.0272122
0.0234631
0.0195138
0.0154657
0.011453
0.0076318
0.00414618
0.00111253
-0.00140089
-0.00338528
-0.00489545
-0.00602628
-0.00688457
-0.00756345
-0.00812281
-0.00858442
-0.00893728
-0.0091451
-0.00916287
-0.00894749
-0.00848569
-0.00779469
-0.00694533
-0.00599905
-0.00512248
-0.00429145
-0.00370863
-0.00317908
-0.00284326
-0.00248737
-0.002093
-0.00166177
-0.0011207
-0.000572332
-0.000120979
0.000142825
7.7981e-05
-0.000419984
-0.00139433
-0.00283873
-0.00469764
-0.00686583
-0.00919648
-0.0115143
0.0266673
0.0230354
0.01923
0.0153457
0.0115055
0.00784115
0.0044895
0.00155683
-0.000895854
-0.00285991
-0.00438108
-0.00554089
-0.00643239
-0.00713759
-0.00771119
-0.00817484
-0.00852173
-0.00872246
-0.00874048
-0.00854069
-0.00811539
-0.00748159
-0.00670408
-0.00583223
-0.00502186
-0.00423948
-0.0036779
-0.00315706
-0.0028059
-0.00244816
-0.00205874
-0.00164869
-0.00116018