/*--------------------------------*- C++ -*----------------------------------*\
| =========                 |                                                 |
| \\      /  F ield         | OpenFOAM: The Open Source CFD Toolbox           |
|  \\    /   O peration     | Version:  v1912                                 |
|   \\  /    A nd           | Website:  www.openfoam.com                      |
|    \\/     M anipulation  |                                                 |
\*---------------------------------------------------------------------------*/
FoamFile
{
    version     2.0;
    format      ascii;
    class       volScalarField;
    location    "70";
    object      alpha.water;
}
// * * * * * * * * * * * * * * * * * * * * * * * * * * * * * * * * * * * * * //

dimensions      [0 0 0 0 0 0 0];


internalField   nonuniform List<scalar> 
114144
(
1
1
1
1
1
1
1
1
1
1
1
1
1
1
1
1
1
1
1
1
1
1
1
1
1
1
1
1
1
1
1
1
1
1
1
1
1
1
1
1
1
1
1
1
1
1
1
1
1
1
1
1
1
1
1
1
1
1
1
1
1
1
1
1
1
1
1
1
1
1
1
1
1
1
1
1
1
1
1
1
1
1
1
1
1
1
1
1
1
1
1
1
1
1
1
1
1
1
1
1
1
1
1
1
1
1
1
1
1
1
1
1
1
1
1
1
1
1
1
1
1
1
1
1
1
1
1
1
1
1
1
1
1
1
1
1
1
1
1
1
1
1
1
1
1
1
1
1
1
1
1
1
1
1
1
1
1
1
1
1
1
1
1
1
1
1
1
1
1
1
1
1
1
1
1
1
1
1
1
1
1
1
1
1
1
1
1
1
1
1
1
1
1
1
1
1
1
1
1
1
1
1
1
1
1
1
1
1
1
1
1
1
1
1
1
1
1
1
1
1
1
1
1
1
1
1
1
1
1
1
1
1
1
1
1
1
1
1
1
1
1
1
1
1
1
1
1
1
1
1
1
1
1
1
1
1
1
1
1
1
1
1
1
1
1
1
1
1
1
1
1
1
1
1
1
1
1
1
1
1
1
1
1
1
1
1
1
1
1
1
1
1
1
1
1
1
1
1
1
1
1
1
1
1
1
1
1
1
1
1
1
1
1
1
1
1
1
1
1
1
1
1
1
1
1
1
1
1
1
1
1
1
1
1
1
1
1
1
1
1
1
1
1
1
1
1
1
1
1
1
1
1
1
1
1
1
1
1
1
1
1
1
1
1
1
1
1
1
1
1
1
1
1
1
1
1
1
1
1
1
1
1
1
1
1
1
1
1
1
1
1
1
1
1
1
1
1
1
1
1
1
1
1
1
1
1
1
1
1
1
1
1
1
1
1
1
1
1
1
1
1
1
1
1
1
1
1
1
1
1
1
1
1
1
1
1
1
1
1
1
1
1
1
1
1
1
1
1
1
1
1
1
1
1
1
1
1
1
1
1
1
1
1
1
1
1
1
1
1
1
1
1
1
1
1
1
1
1
1
1
1
1
1
1
1
1
1
1
1
1
1
1
1
1
1
1
1
1
1
1
1
1
1
1
1
1
1
1
1
1
1
1
1
1
1
1
1
1
1
1
1
1
1
1
1
1
1
1
1
1
1
1
1
1
1
1
1
1
1
1
1
1
1
1
1
1
1
1
1
1
1
1
1
1
1
1
1
1
1
1
1
1
1
1
1
1
1
1
1
1
1
1
1
1
1
1
1
1
1
1
1
1
1
1
1
1
1
1
1
1
1
1
1
1
1
1
1
1
1
1
1
1
1
1
1
1
1
1
1
1
1
1
1
1
1
1
1
1
1
1
1
1
1
1
1
1
1
1
1
1
1
1
1
1
1
1
1
1
1
1
1
1
1
1
1
1
1
1
1
1
1
1
1
1
1
1
1
1
1
1
1
1
1
1
1
1
1
1
1
1
1
1
1
1
1
1
1
1
1
1
1
1
1
1
1
1
1
1
1
1
1
1
1
1
1
1
1
1
1
1
1
1
1
1
1
1
1
1
1
1
1
1
1
1
1
1
1
1
1
1
1
1
1
1
1
1
1
1
1
1
1
1
1
1
1
1
1
1
1
1
1
1
1
1
1
1
1
1
1
1
1
1
1
1
1
1
1
1
1
1
1
1
1
1
1
1
1
1
1
1
1
1
1
1
1
1
1
1
1
1
1
1
1
1
1
1
1
1
1
1
1
1
1
1
1
1
1
1
1
1
1
1
1
1
1
1
1
1
1
1
1
1
1
1
1
1
1
1
1
1
1
1
1
1
1
1
1
1
1
1
1
1
1
1
1
1
1
1
1
1
1
1
1
1
1
1
1
1
1
1
1
1
1
1
1
1
1
1
1
1
1
1
1
1
1
1
1
1
1
1
1
1
1
1
1
1
1
1
1
1
1
1
1
1
1
1
1
1
1
1
1
1
1
1
1
1
1
1
1
1
1
1
1
1
1
1
1
1
1
1
1
1
1
1
1
1
1
1
1
1
1
1
1
1
1
1
1
1
1
1
1
1
1
1
1
1
1
1
1
1
1
1
1
1
1
1
1
1
1
1
1
1
1
1
1
1
1
1
1
1
1
1
1
1
1
1
1
1
1
1
1
1
1
1
1
1
1
1
1
1
1
1
1
1
1
1
1
1
1
1
1
1
1
1
1
1
1
1
1
1
1
1
1
1
1
1
1
1
1
1
1
1
1
1
1
1
1
1
1
1
1
1
1
1
1
1
1
1
1
1
1
1
1
1
1
1
1
1
1
1
1
1
1
1
1
1
1
1
1
1
1
1
1
1
1
1
1
1
1
1
1
1
1
1
1
1
1
1
1
1
1
1
1
1
1
1
1
1
1
1
1
1
1
1
1
1
1
1
1
1
1
1
1
1
1
1
1
1
1
1
1
1
1
1
1
1
1
1
1
1
1
1
1
1
1
1
1
1
1
1
1
1
1
1
1
1
1
1
1
1
1
1
1
1
1
1
1
1
1
1
1
1
1
1
1
1
1
1
1
1
1
1
1
1
1
1
1
1
1
1
1
1
1
1
1
1
1
1
1
1
1
1
1
1
1
1
1
1
1
1
1
1
1
1
1
1
1
1
1
1
1
1
1
1
1
1
1
1
1
1
1
1
1
1
1
1
1
1
1
1
1
1
1
1
1
1
1
1
1
1
1
1
1
1
1
1
1
1
1
1
1
1
1
1
1
1
1
1
1
1
1
1
1
1
1
1
1
1
1
1
1
1
1
1
1
1
1
1
1
1
1
1
1
1
1
1
1
1
1
1
1
1
1
1
1
1
1
1
1
1
1
1
1
1
1
1
1
1
1
1
1
1
1
1
1
1
1
1
1
1
1
1
1
1
1
1
1
1
1
1
1
1
1
1
1
1
1
1
1
1
1
1
1
1
1
1
1
1
1
1
1
1
1
1
1
1
1
1
1
1
1
1
1
1
1
1
1
1
1
1
1
1
1
1
1
1
1
1
1
1
1
1
1
1
1
1
1
1
1
1
1
1
1
1
1
1
1
1
1
1
1
1
1
1
1
1
1
1
1
1
1
1
1
1
1
1
1
1
1
1
1
1
1
1
1
1
1
1
1
1
1
1
1
1
1
1
1
1
1
1
1
1
1
1
1
1
1
1
1
1
1
1
1
1
1
1
1
1
1
1
1
1
1
1
1
1
1
1
1
1
1
1
1
1
1
1
1
1
1
1
1
1
1
1
1
1
1
1
1
1
1
1
1
1
1
1
1
1
1
1
1
1
1
1
1
1
1
1
1
1
1
1
1
1
1
1
1
1
1
1
1
1
1
1
1
1
1
1
1
1
1
1
1
1
1
1
1
1
1
1
1
1
1
1
1
1
1
1
1
1
1
1
1
1
1
1
1
1
1
1
1
1
1
1
1
1
1
1
1
1
1
1
1
1
1
1
1
1
1
1
1
1
1
1
1
1
1
1
1
1
1
1
1
1
1
1
1
1
1
1
1
1
1
1
1
1
1
1
1
1
1
1
1
1
1
1
1
1
1
1
1
1
1
1
1
1
1
1
1
1
1
1
1
1
1
1
1
1
1
1
1
1
1
1
1
1
1
1
1
1
1
1
1
1
1
1
1
1
1
1
1
1
1
1
1
1
1
1
1
1
1
1
1
1
1
1
1
1
1
1
1
1
1
1
1
1
1
1
1
1
1
1
1
1
1
1
1
1
1
1
1
1
1
1
1
1
1
1
1
1
1
1
1
1
1
1
1
1
1
1
1
1
1
1
1
1
1
1
1
1
1
1
1
1
1
1
1
1
1
1
1
1
1
1
1
1
1
1
1
1
1
1
1
1
1
1
1
1
1
1
1
1
1
1
1
1
1
1
1
1
1
1
1
1
1
1
1
1
1
1
1
1
1
1
1
1
1
1
1
1
1
1
1
1
1
1
1
1
1
1
1
1
1
1
1
1
1
1
1
1
1
1
1
1
1
1
1
1
1
1
1
1
1
1
1
1
1
1
1
1
1
1
1
1
1
1
1
1
1
1
1
1
1
1
1
1
1
1
1
1
1
1
1
1
1
1
1
1
1
1
1
1
1
1
1
1
1
1
1
1
1
1
1
1
1
1
1
1
1
1
1
1
1
1
1
1
1
1
1
1
1
1
1
1
1
1
1
1
1
1
1
1
1
1
1
1
1
1
1
1
1
1
1
1
1
1
1
1
1
1
1
1
1
1
1
1
1
1
1
1
1
1
1
1
1
1
1
1
1
1
1
1
1
1
1
1
1
1
1
1
1
1
1
1
1
1
1
1
1
1
1
1
1
1
1
1
1
1
1
1
1
1
1
1
1
1
1
1
1
1
1
1
1
1
1
1
1
1
1
1
1
1
1
1
1
1
1
1
1
1
1
1
1
1
1
1
1
1
1
1
1
1
1
1
1
1
1
1
1
1
1
1
1
1
1
1
1
1
1
1
1
1
1
1
1
1
1
1
1
1
1
1
1
1
1
1
1
1
1
1
1
1
1
1
1
1
1
1
1
1
1
1
1
1
1
1
1
1
1
1
1
1
1
1
1
1
1
1
1
1
1
1
1
1
1
1
1
1
1
1
1
1
1
1
1
1
1
1
1
1
1
1
1
1
1
1
1
1
1
1
1
1
1
1
1
1
1
1
1
1
1
1
1
1
1
1
1
1
1
1
1
1
1
1
1
1
1
1
1
1
1
1
1
1
1
1
1
1
1
1
1
1
1
1
1
1
1
1
1
1
1
1
1
1
1
1
1
1
1
1
1
1
1
1
1
1
1
1
1
1
1
1
1
1
1
1
1
1
1
1
1
1
1
1
1
1
1
1
1
1
1
1
1
1
1
1
1
1
1
1
1
1
1
1
1
1
1
1
1
1
1
1
1
1
1
1
1
1
1
1
1
1
1
1
1
1
1
1
1
1
1
1
1
1
1
1
1
1
1
1
1
1
1
1
1
1
1
1
1
1
1
1
1
1
1
1
1
1
1
1
1
1
1
1
1
1
1
1
1
1
1
1
1
1
1
1
1
1
1
1
1
1
1
1
1
1
1
1
1
1
1
1
1
1
1
1
1
1
1
1
1
1
1
1
1
1
1
1
1
1
1
1
1
1
1
1
1
1
1
1
1
1
1
1
1
1
1
1
1
1
1
1
1
1
1
1
1
1
1
1
1
1
1
1
1
1
1
1
1
1
1
1
1
1
1
1
1
1
1
1
1
1
1
1
1
1
1
1
1
1
1
1
1
1
1
1
1
1
1
1
1
1
1
1
1
1
1
1
1
1
1
1
1
1
1
1
1
1
1
1
1
1
1
1
1
1
1
1
1
1
1
1
1
1
1
1
1
1
1
1
1
1
1
1
1
1
1
1
1
1
1
1
1
1
1
1
1
1
1
1
1
1
1
1
1
1
1
1
1
1
1
1
1
1
1
1
1
1
1
1
1
1
1
1
1
1
1
1
1
1
1
1
1
1
1
1
1
1
1
1
1
1
1
1
1
1
1
1
1
1
1
1
1
1
1
1
1
1
1
1
1
1
1
1
1
1
1
1
1
1
1
1
1
1
1
1
1
1
1
1
1
1
1
1
1
1
1
1
1
1
1
1
1
1
1
1
1
1
1
1
1
1
1
1
1
1
1
1
1
1
1
1
1
1
1
1
1
1
1
1
1
1
1
1
1
1
1
1
1
1
1
1
1
1
1
1
1
1
1
1
1
1
1
1
1
1
1
1
1
1
1
1
1
1
1
1
1
1
1
1
1
1
1
1
1
1
1
1
1
1
1
1
1
1
1
1
1
1
1
1
1
1
1
1
1
1
1
1
1
1
1
1
1
1
1
1
1
1
1
1
1
1
1
1
1
1
1
1
1
1
1
1
1
1
1
1
1
1
1
1
1
1
1
1
1
1
1
1
1
1
1
1
1
1
1
1
1
1
1
1
1
1
1
1
1
1
1
1
1
1
1
1
1
1
1
1
1
1
1
1
1
1
1
1
1
1
1
1
1
1
1
1
1
1
1
1
1
1
1
1
1
1
1
1
1
1
1
1
1
1
1
1
1
1
1
1
1
1
1
1
1
1
1
1
1
1
1
1
1
1
1
1
1
1
1
1
1
1
1
1
1
1
1
1
1
1
1
1
1
1
1
1
1
1
1
1
1
1
1
1
1
1
1
1
1
1
1
1
1
1
1
1
1
1
1
1
1
1
1
1
1
1
1
1
1
1
1
1
1
1
1
1
1
1
1
1
1
1
1
1
1
1
1
1
1
1
1
1
1
1
1
1
1
1
1
1
1
1
1
1
1
1
1
1
1
1
1
1
1
1
1
1
1
1
1
1
1
1
1
1
1
1
1
1
1
1
1
1
1
1
1
1
1
1
1
1
1
1
1
1
1
1
1
1
1
1
1
1
1
1
1
1
1
1
1
1
1
1
1
1
1
1
1
1
1
1
1
1
1
1
1
1
1
1
1
1
1
1
1
1
1
1
1
1
1
1
1
1
1
1
1
1
1
1
1
1
1
1
1
1
1
1
1
1
1
1
1
1
1
1
1
1
1
1
1
1
1
1
1
1
1
1
1
1
1
1
1
1
1
1
1
1
1
1
1
1
1
1
1
1
1
1
1
1
1
1
1
1
1
1
1
1
1
1
1
1
1
1
1
1
1
1
1
1
1
1
1
1
1
1
1
1
1
1
1
1
1
1
1
1
1
1
1
1
1
1
1
1
1
1
1
1
1
1
1
1
1
1
1
1
1
1
1
1
1
1
1
1
1
1
1
1
1
1
1
1
1
1
1
1
1
1
1
1
1
1
1
1
1
1
1
1
1
1
1
1
1
1
1
1
1
1
1
1
1
1
1
1
1
1
1
1
1
1
1
1
1
1
1
1
1
1
1
1
1
1
1
1
1
1
1
1
1
1
1
1
1
1
1
1
1
1
1
1
1
1
1
1
1
1
1
1
1
1
1
1
1
1
1
1
1
1
1
1
1
1
1
1
1
1
1
1
1
1
1
1
1
1
1
1
1
1
1
1
1
1
1
1
1
1
1
1
1
1
1
1
1
1
1
1
1
1
1
1
1
1
1
1
1
1
1
1
1
1
1
1
1
1
1
1
1
1
1
1
1
1
1
1
1
1
1
1
1
1
1
1
1
1
1
1
1
1
1
1
1
1
1
1
1
1
1
1
1
1
1
1
1
1
1
1
1
1
1
1
1
1
1
1
1
1
1
1
1
1
1
1
1
1
1
1
1
1
1
1
1
1
1
1
1
1
0.998128
0.980924
0.962419
0.949966
0.948186
0.9615
0.990137
0.99992
0.99993
0.999961
0.999987
1
1
1
1
1
1
1
1
1
1
1
1
1
1
1
1
1
1
1
1
1
1
1
1
1
1
1
1
1
1
1
1
1
1
1
1
1
1
1
1
1
1
1
1
1
1
1
1
1
1
1
1
1
1
1
1
1
1
1
1
1
1
1
1
1
1
1
1
1
1
1
1
1
1
1
1
1
1
1
1
1
1
1
1
1
1
1
1
1
1
1
1
1
1
1
1
1
1
1
1
1
1
1
1
1
1
1
1
1
1
1
1
1
1
1
1
1
1
1
1
1
1
1
1
1
1
1
1
1
1
1
1
1
1
1
1
1
1
1
1
1
1
1
1
1
1
1
1
1
1
1
1
1
1
1
1
1
1
1
1
1
1
1
1
1
1
1
1
1
1
1
1
1
1
1
1
1
1
1
1
1
1
1
1
1
1
1
1
1
1
1
1
1
1
1
1
1
1
1
1
1
1
1
1
1
1
1
1
1
1
1
1
1
1
1
1
1
1
1
1
1
1
1
1
1
1
1
1
1
1
0.992649
0.82114
0.610848
0.447098
0.325824
0.237983
0.171898
0.116017
0.0615327
0.0097983
2.25157e-05
-1.42082e-46
-7.61975e-51
1.30299e-47
-1.11798e-23
0.00577254
0.127493
0.32959
0.581194
0.870487
0.999555
0.999815
1
1
1
1
1
1
1
1
1
1
1
1
1
1
1
1
1
1
1
1
1
1
1
1
1
1
1
1
1
1
1
1
1
1
1
1
1
1
1
1
1
1
1
1
1
1
1
1
1
1
1
1
1
1
1
1
1
1
1
1
1
1
1
1
1
1
1
1
1
1
1
1
1
1
1
1
1
1
1
1
1
1
1
1
1
1
1
1
1
1
1
1
1
1
1
1
1
1
1
1
1
1
1
1
1
1
1
1
1
1
1
1
1
1
1
1
1
1
1
1
1
1
1
1
1
1
1
1
1
1
1
1
1
1
1
1
1
1
1
1
1
1
1
1
1
1
1
1
1
1
1
1
1
1
1
1
1
1
1
1
1
1
1
1
1
1
1
1
1
1
1
1
1
1
1
1
1
1
1
1
1
1
1
1
1
1
1
1
1
1
1
1
1
1
1
1
1
1
1
1
1
1
1
1
1
1
1
1
1
1
1
1
1
1
1
1
1
1
1
1
1
1
1
1
1
1
1
0.365423
0.0813334
3.22959e-05
2.19497e-05
1.56707e-05
9.56561e-06
4.66642e-06
1.11281e-06
-1.51538e-22
-1.24791e-27
-1.33348e-31
-3.26432e-38
-1.69695e-42
-8.30019e-47
-2.37803e-51
-2.6027e-27
-4.04197e-33
-6.67225e-43
-1.33427e-46
-6.5751e-51
0.00114924
0.191131
0.525904
0.866092
0.999391
0.999788
1
1
1
1
1
1
1
1
1
1
1
1
1
1
1
1
1
1
1
1
1
1
1
1
1
1
1
1
1
1
1
1
1
1
1
1
1
1
1
1
1
1
1
1
1
1
1
1
1
1
1
1
1
1
1
1
1
1
1
1
1
1
1
1
1
1
1
1
1
1
1
1
1
1
1
1
1
1
1
1
1
1
1
1
1
1
1
1
1
1
1
1
1
1
1
1
1
1
1
1
1
1
1
1
1
1
1
1
1
1
1
1
1
1
1
1
1
1
1
1
1
1
1
1
1
1
1
1
1
1
1
1
1
1
1
1
1
1
1
1
1
1
1
1
1
1
1
1
1
1
1
1
1
1
1
1
1
1
1
1
1
1
1
1
1
1
1
1
1
1
1
1
1
1
1
1
1
1
1
1
1
1
1
1
1
1
1
1
1
1
1
1
1
1
1
1
1
1
1
1
1
1
1
1
1
1
1
1
1
1
1
1
1
1
1
1
1
1
1
1
1
1
1
1
1.15176e-06
3.55008e-15
3.21357e-19
1.68498e-18
1.44188e-18
9.30016e-19
4.49651e-19
1.0063e-19
1.73576e-36
-1.32524e-31
-3.13558e-36
-7.49354e-41
-2.80639e-46
-3.94399e-51
-5.00746e-56
-7.7139e-33
-3.80108e-36
-9.96092e-40
-1.29725e-43
-7.42131e-48
-5.43321e-52
3.95806e-43
-1.87545e-23
0.00267478
0.217663
0.57271
0.917849
0.999353
1
1
1
1
1
1
1
1
1
1
1
1
1
1
1
1
1
1
1
1
1
1
1
1
1
1
1
1
1
1
1
1
1
1
1
1
1
1
1
1
1
1
1
1
1
1
1
1
1
1
1
1
1
1
1
1
1
1
1
1
1
1
1
1
1
1
1
1
1
1
1
1
1
1
1
1
1
1
1
1
1
1
1
1
1
1
1
1
1
1
1
1
1
1
1
1
1
1
1
1
1
1
1
1
1
1
1
1
1
1
1
1
1
1
1
1
1
1
1
1
1
1
1
1
1
1
1
1
1
1
1
1
1
1
1
1
1
1
1
1
1
1
1
1
1
1
1
1
1
1
1
1
1
1
1
1
1
1
1
1
1
1
1
1
1
1
1
1
1
1
1
1
1
1
1
1
1
1
1
1
1
1
1
1
1
1
1
1
1
1
1
1
1
1
1
1
1
1
1
1
1
1
1
1
1
1
1
1
1
1
1
1
1
1
1
1
1
1
1
1
1
1
0
0
0
0
-4.75947e-261
-3.17121e-207
-1.55468e-80
4.13093e-76
4.0711e-43
-2.11428e-36
-6.07298e-41
-5.20815e-46
-5.07703e-51
-5.32545e-56
-6.94681e-61
-2.66079e-36
-1.265e-39
-2.08337e-43
-1.85198e-47
-8.00663e-52
-3.98749e-56
-1.85697e-60
-2.8518e-65
-3.74571e-70
-1.93839e-45
-4.38639e-23
0.0229247
0.338629
0.771868
0.998984
1
1
1
1
1
1
1
1
1
1
1
1
1
1
1
1
1
1
1
1
1
1
1
1
1
1
1
1
1
1
1
1
1
1
1
1
1
1
1
1
1
1
1
1
1
1
1
1
1
1
1
1
1
1
1
1
1
1
1
1
1
1
1
1
1
1
1
1
1
1
1
1
1
1
1
1
1
1
1
1
1
1
1
1
1
1
1
1
1
1
1
1
1
1
1
1
1
1
1
1
1
1
1
1
1
1
1
0.999997
0.999969
0.999748
0.998782
0.996268
0.994321
0.997523
1
1
1
1
1
1
1
1
1
1
1
1
1
1
1
1
1
1
1
1
1
1
1
1
1
1
1
1
1
1
1
1
1
1
1
1
1
1
1
1
1
1
1
1
1
1
1
1
1
1
1
1
1
1
1
1
1
1
1
1
1
1
1
1
1
1
1
1
1
1
1
1
1
1
1
1
1
1
1
1
1
1
1
1
1
1
1
1
1
1
1
1
1
1
1
1
1
1
1
1
1
1
1
1
1
1
0
0
0
0
-2.68587e-262
-1.56728e-208
-2.37092e-84
-1.09036e-99
1.69976e-46
-3.45936e-41
-3.32236e-46
-6.50471e-51
-5.13609e-56
-4.60124e-61
-2.03593e-65
-4.40107e-40
-1.69691e-43
-1.8269e-47
-1.12337e-51
-3.61734e-56
-1.21173e-60
-3.37639e-65
-2.86749e-70
-7.8656e-75
-2.94721e-78
4.45519e-40
4.65938e-29
7.6773e-25
8.14608e-05
0.257255
0.790261
0.999086
1
1
1
1
1
1
1
1
1
1
1
1
1
1
1
1
1
1
1
1
1
1
1
1
1
1
1
1
1
1
1
1
1
1
1
1
1
1
1
1
1
1
1
1
1
1
1
1
1
1
1
1
1
1
1
1
1
1
1
1
1
1
1
1
1
1
1
1
1
1
1
1
1
1
1
1
1
1
1
1
1
1
1
1
1
1
1
1
1
1
1
1
1
1
1
1
1
1
1
1
1
0.999994
0.999788
0.994583
0.932866
0.717451
0.529749
0.421423
0.386442
0.424611
0.515407
0.64076
0.785389
0.912092
0.955933
0.973944
0.991289
1
1
1
1
1
1
1
1
1
1
1
1
1
1
1
1
1
1
1
1
1
1
1
1
1
1
1
1
1
1
1
1
1
1
1
1
1
1
1
1
1
1
1
1
1
1
1
1
1
1
1
1
1
1
1
1
1
1
1
1
1
1
1
1
1
1
1
1
1
1
1
1
1
1
1
1
1
1
1
1
1
1
1
1
1
1
1
1
1
1
1
1
1
1
1
1
1
1
1
1
1
0
0
0
0
-7.17911e-264
-3.70064e-210
-1.46395e-88
-2.38843e-94
-1.27579e-90
-1.51661e-46
-3.33501e-51
-4.64083e-56
-2.77931e-61
-1.03987e-65
-3.91883e-70
-3.3598e-44
-8.16235e-48
-5.835e-52
-2.47087e-56
-5.67392e-61
-1.17697e-65
-1.578e-70
-1.66331e-75
-4.70494e-79
-1.44155e-82
4.94073e-58
-8.85101e-99
-1.1431e-83
2.45492e-60
-3.1962e-23
0.00647379
0.403019
0.940238
0.999998
1
1
1
1
1
1
1
1
1
1
1
1
1
1
1
1
1
1
1
1
1
1
1
1
1
1
1
1
1
1
1
1
1
1
1
1
1
1
1
1
1
1
1
1
1
1
1
1
1
1
1
1
1
1
1
1
1
1
1
1
1
1
1
1
1
1
1
1
1
1
1
1
1
1
1
1
1
1
1
1
1
1
1
1
1
1
1
1
1
1
1
1
1
1
1
1
1
0.99999
0.999494
0.983052
0.770889
0.390924
0.0971411
0.0298459
0.0141635
0.00608927
0.00231052
0.000223402
0.00113952
0.00523101
0.0216091
0.0731993
0.215998
0.397342
0.584366
0.77242
0.912598
0.961316
0.992042
1
1
1
1
1
1
1
1
1
1
1
1
1
1
1
1
1
1
1
1
1
0.999999
0.999997
0.999989
0.999968
0.999913
0.999786
0.999524
0.999027
0.998132
0.996573
0.99396
0.989794
0.983692
0.975654
0.966239
0.956514
0.947779
0.940976
0.936691
0.934913
0.935974
0.939656
0.945808
0.954419
0.964625
0.975615
0.985751
0.993884
0.998704
1
1
1
1
1
1
1
1
1
1
1
1
1
1
1
1
1
1
1
1
1
1
1
1
1
1
1
1
1
1
1
1
1
1
1
1
1
1
1
1
1
1
1
1
1
1
1
0
0
0
0
-1.21172e-265
-5.56006e-212
-8.88777e-94
-4.72246e-98
-2.21912e-95
-1.21225e-51
-1.86526e-56
-1.52392e-61
-4.71069e-66
-1.47763e-70
-5.19388e-75
-1.0053e-48
-6.78838e-53
-3.16711e-57
-8.86124e-62
-1.30941e-66
-1.30253e-71
-6.29986e-77
-1.36524e-80
-3.25464e-84
-8.25866e-88
-1.17559e-91
-1.66163e-95
-2.4707e-99
1.22149e-102
2.46931e-64
2.51569e-64
3.25765e-18
0.119288
0.75604
0.999042
1
1
1
1
1
1
1
1
1
1
1
1
1
1
1
1
1
1
1
1
1
1
1
1
1
1
1
1
1
1
1
1
1
1
1
1
1
1
1
1
1
1
1
1
1
1
1
1
1
1
1
1
1
1
1
1
1
1
1
1
1
1
1
1
1
1
1
1
1
1
1
1
1
1
1
1
1
1
1
1
1
1
1
1
1
1
1
1
1
1
1
1
1
1
0.999995
0.99962
0.983149
0.730573
0.292271
0.0421353
0.00645654
1.25708e-11
4.1942e-12
9.20295e-12
1.40146e-10
1.84496e-09
1.64037e-08
1.71108e-07
1.53348e-06
1.27122e-05
0.000101042
0.000632913
0.00308009
0.0130747
0.0474698
0.156054
0.378874
0.625819
0.85122
0.946503
0.989407
1
1
1
1
1
1
1
1
1
1
1
1
0.999999
0.999999
0.999999
0.999998
0.999995
0.999987
0.999964
0.999894
0.999694
0.99916
0.997829
0.994724
0.987944
0.974496
0.950321
0.910445
0.850525
0.771127
0.691759
0.621232
0.562533
0.516984
0.484571
0.463474
0.45184
0.447592
0.45129
0.462382
0.4815
0.509886
0.547601
0.594206
0.647291
0.704311
0.760071
0.810015
0.851909
0.889961
0.92422
0.953918
0.977794
0.993694
0.999954
1
1
1
1
1
1
1
1
1
1
1
1
1
1
1
1
1
1
1
1
1
1
1
1
1
1
1
1
1
1
1
1
1
1
1
1
1
1
1
0
0
0
0
-1.358e-267
-5.58372e-214
-8.30747e-98
-5.18844e-102
-6.47457e-101
-4.85747e-57
-3.85299e-62
-1.68475e-66
-4.42673e-71
-1.28631e-75
-4.39251e-80
-5.59296e-54
-1.64523e-58
-4.93777e-63
-8.52333e-68
-6.31243e-73
-8.08289e-79
-2.01321e-82
-3.17119e-86
-5.20548e-90
-8.71262e-94
-8.64831e-98
-8.18781e-102
-7.83093e-106
-6.78647e-110
1.74683e-80
-5.43515e-101
-1.50996e-103
-1.05964e-23
0.0118758
0.476333
0.977232
1
1
1
1
1
1
1
1
1
1
1
1
1
1
1
1
1
1
1
1
1
1
1
1
1
1
1
1
1
1
1
1
1
1
1
1
1
1
1
1
1
1
1
1
1
1
1
1
1
1
1
1
1
1
1
1
1
1
1
1
1
1
1
1
1
1
1
1
1
1
1
1
1
1
1
1
1
1
1
1
1
1
1
1
1
1
1
1
1
1
1
0.999996
0.999671
0.981872
0.710506
0.276347
0.0374449
0.00136486
9.90229e-05
5.59202e-06
2.65462e-14
1.62371e-14
1.2913e-13
1.82809e-12
1.82139e-11
1.19231e-10
5.96268e-10
2.94536e-09
2.01716e-08
1.43826e-07
1.21135e-06
8.89241e-06
5.37447e-05
0.000282904
0.00140357
0.00693957
0.0316244
0.116058
0.340697
0.606068
0.839413
0.93951
0.984803
1
1
0.999999
0.999999
0.999998
0.999996
0.999994
0.99999
0.999985
0.999978
0.999969
0.999952
0.999914
0.999823
0.999586
0.998915
0.996889
0.990597
0.971964
0.92491
0.828082
0.687283
0.547717
0.417875
0.304688
0.214123
0.153845
0.111751
0.0813129
0.060195
0.0462849
0.037594
0.0325454
0.0301344
0.0295613
0.0302266
0.0319406
0.0350454
0.0402027
0.0483305
0.0606661
0.0790605
0.106032
0.144396
0.197579
0.264282
0.338122
0.418781
0.50609
0.599225
0.694117
0.782514
0.851323
0.908357
0.954593
0.985901
0.99951
1
1
1
1
1
1
1
1
1
1
1
1
1
1
1
1
1
1
1
1
1
1
1
1
1
1
1
1
1
1
1
1
1
1
0
0
0
0
-1.14911e-269
-4.25995e-216
-6.24424e-102
-3.75253e-106
-5.35124e-105
-6.6095e-63
-2.93012e-67
-9.95699e-72
-2.43933e-76
-6.92911e-81
-2.19801e-85
-7.13763e-90
-3.17675e-94
-1.77193e-98
-7.91606e-103
-2.86508e-107
-1.36326e-111
-9.5178e-116
-6.41076e-120
-5.66823e-124
-6.10522e-128
-5.04147e-132
-4.78528e-136
-5.47662e-140
-6.85513e-144
7.51005e-141
9.94459e-141
2.61795e-143
-2.26342e-108
3.1901e-35
1.00117e-07
0.201226
0.840467
0.999235
1
1
1
1
1
1
1
1
1
1
1
1
1
1
1
1
1
1
1
1
1
1
1
1
1
1
1
1
1
1
1
1
1
1
1
1
1
1
1
1
1
1
1
1
1
1
1
1
1
1
1
1
1
1
1
1
1
1
1
1
1
1
1
1
1
1
1
1
1
1
1
1
1
1
1
1
1
1
1
1
1
1
1
1
1
1
1
0.999999
0.999835
0.985506
0.708401
0.257186
0.0358949
0.000270282
2.59903e-22
-2.98387e-25
2.26955e-27
-1.77069e-27
1.85569e-20
4.30749e-19
9.87184e-18
1.56421e-16
2.43138e-15
4.23064e-14
5.9412e-13
5.04103e-12
4.10297e-11
3.92652e-10
3.8773e-09
2.79659e-08
1.43785e-07
9.0324e-07
6.17873e-06
3.8123e-05
0.000216717
0.00115259
0.00618483
0.0305322
0.114302
0.32978
0.574723
0.790525
0.90823
0.959175
0.990592
0.999952
0.999912
0.999852
0.999769
0.999657
0.999509
0.999324
0.998996
0.998251
0.996372
0.990949
0.973441
0.919498
0.776555
0.565864
0.358961
0.199881
0.110134
0.0544579
0.0217822
0.00526066
0.000912773
0.000984891
0.00103733
0.00106934
0.00108673
0.00109477
0.00109733
0.00109698
0.00109385
0.00108909
0.00111001
0.0011625
0.00125908
0.00142599
0.00169408
0.00210509
0.00273221
0.00368365
0.00512008
0.00728732
0.0105983
0.015736
0.0239046
0.0372615
0.0595316
0.0969271
0.159428
0.256834
0.373551
0.503624
0.639423
0.766421
0.858687
0.925666
0.972387
0.996568
1
1
1
1
1
1
1
1
1
1
1
1
1
1
1
1
1
1
1
1
1
1
1
1
1
1
1
1
1
1
0
0
0
0
-7.64739e-272
-2.56932e-218
-3.56141e-106
-1.53593e-110
-3.07774e-109
-3.04163e-68
-1.00861e-72
-2.92662e-77
-7.03283e-82
-1.84851e-86
-5.11299e-91
-1.47156e-95
-5.56767e-100
-2.50207e-104
-9.29224e-109
-3.09337e-113
-1.45196e-117
-9.79793e-122
-6.1394e-126
-4.59601e-130
-3.90222e-134
-2.54584e-138
-1.80366e-142
-1.47204e-146
-1.28111e-150
-4.40821e-154
-4.10608e-156
-4.27639e-158
-1.09708e-136
-3.58879e-139
3.27245e-63
-4.59147e-22
0.0368803
0.554748
0.988283
1
1
1
1
1
1
1
1
1
1
1
1
1
1
1
1
1
1
1
1
1
1
1
1
1
1
1
1
1
1
1
1
1
1
1
1
1
1
1
1
1
1
1
1
1
1
1
1
1
1
1
1
1
1
1
1
1
1
1
1
1
1
1
1
1
1
1
1
1
1
1
1
1
1
1
1
1
1
1
1
1
1
1
1
1
0.999971
0.994997
0.774971
0.283973
0.0371285
6.34038e-05
5.45868e-18
3.4979e-21
-4.16744e-24
-1.19525e-25
-1.11775e-27
1.99868e-26
2.13653e-24
1.27255e-22
5.97994e-21
1.69124e-19
3.49904e-18
6.35186e-17
9.07101e-16
1.01559e-14
1.2522e-13
1.61723e-12
1.42532e-11
9.73934e-11
6.67167e-10
4.82255e-09
3.23693e-08
1.66454e-07
9.97196e-07
6.62323e-06
4.14882e-05
0.000240338
0.00122243
0.00601815
0.0255227
0.084462
0.236491
0.435552
0.623564
0.788388
0.886464
0.931687
0.96138
0.978549
0.985546
0.984203
0.97655
0.95835
0.912805
0.796845
0.593817
0.359398
0.170043
0.0641116
0.0129849
2.88902e-05
3.09526e-05
3.24243e-05
3.36748e-05
3.54849e-05
3.79378e-05
4.04275e-05
4.25675e-05
4.41436e-05
4.51631e-05
4.56815e-05
4.58393e-05
4.58322e-05
4.56948e-05
4.55439e-05
4.63236e-05
4.81829e-05
5.18262e-05
5.88662e-05
7.10989e-05
9.0351e-05
0.000119589
0.000164015
0.000230399
0.000325186
0.000458962
0.000653249
0.00094997
0.00142469
0.00220264
0.00352175
0.00589266
0.0103808
0.0191371
0.0367897
0.0727172
0.143638
0.267984
0.415327
0.570638
0.720257
0.835811
0.914243
0.968986
0.996673
1
1
1
1
1
1
1
1
1
1
1
1
1
1
1
1
1
1
1
1
1
1
1
1
1
1
0
0
0
0
-4.1167e-274
-1.25882e-220
-1.21318e-110
-4.60839e-115
-1.45522e-113
-4.05046e-74
-1.04008e-78
-2.58418e-83
-5.32544e-88
-1.0936e-92
-2.31566e-97
-5.12388e-102
-1.38119e-106
-4.06111e-111
-9.33927e-116
-1.70028e-120
-3.22489e-125
-5.98845e-130
-6.84426e-135
-4.37071e-140
-3.00107e-164
-2.98795e-166
-2.58647e-168
-2.07231e-170
-1.4776e-172
-9.28486e-175
-4.58794e-177
-1.93794e-179
-6.22844e-182
2.32812e-202
-6.60898e-115
3.22824e-98
-6.34244e-59
5.91715e-06
0.213902
0.802386
0.998432
1
1
1
1
1
1
1
1
1
1
1
1
1
1
1
1
1
1
1
1
1
1
1
1
1
1
1
1
1
1
1
1
1
1
1
1
1
1
1
1
1
1
1
1
1
1
1
1
1
1
1
1
1
1
1
1
1
1
1
1
1
1
1
1
1
1
1
1
1
1
1
1
1
1
1
1
1
1
1
1
1
0.999999
0.999525
0.90854
0.408192
0.0492478
0.000674029
-1.64374e-21
1.8091e-24
2.38319e-38
5.45826e-41
-4.69257e-25
-1.10427e-26
-1.54111e-28
1.25023e-28
6.55828e-30
7.13686e-28
8.51761e-26
8.39684e-24
5.56863e-22
2.87829e-20
9.16413e-19
1.61077e-17
2.29237e-16
2.89232e-15
2.73663e-14
2.43248e-13
2.31696e-12
1.74302e-11
1.09287e-10
6.82182e-10
4.47042e-09
3.01551e-08
1.68306e-07
1.00299e-06
6.37809e-06
3.80817e-05
0.00019086
0.000766096
0.00289572
0.00987733
0.0295367
0.0779119
0.181907
0.321432
0.444035
0.53772
0.590535
0.594823
0.548297
0.452378
0.313957
0.169862
0.070553
0.013109
1.48588e-06
1.54061e-06
1.49596e-06
1.39897e-06
1.30492e-06
1.23622e-06
1.2054e-06
1.21216e-06
1.27209e-06
1.37373e-06
1.4864e-06
1.58712e-06
1.65789e-06
1.70649e-06
1.7248e-06
1.72814e-06
1.73069e-06
1.75353e-06
1.81384e-06
1.89067e-06
2.01186e-06
2.26856e-06
2.77716e-06
3.63911e-06
4.91189e-06
6.83138e-06
9.96907e-06
1.45107e-05
2.08939e-05
3.00233e-05
4.44407e-05
6.8518e-05
0.00010869
0.000176524
0.000293599
0.000489265
0.00081536
0.00141873
0.00262944
0.00515481
0.0107365
0.0232806
0.0510349
0.110241
0.227776
0.385368
0.555646
0.720702
0.843042
0.922202
0.973687
0.997613
1
1
1
1
1
1
1
1
1
1
1
1
1
1
1
1
1
1
1
1
1
1
0
0
0
0
-1.82957e-276
-5.10925e-223
-3.04351e-115
-1.79254e-119
-6.06541e-118
-2.04031e-122
-7.04371e-127
-2.07569e-131
-4.61961e-136
-9.01667e-141
-1.51536e-145
-2.22303e-150
-4.099e-155
-1.12722e-157
-7.31189e-159
-3.14781e-160
-1.07898e-161
-3.05494e-163
-5.83079e-165
-9.25879e-167
-1.27679e-168
-1.21164e-170
-9.94034e-173
-7.47874e-175
-5.00519e-177
-2.9464e-179
-1.37986e-181
-5.5116e-184
-1.70054e-186
-5.08971e-189
6.26869e-96
6.92105e-97
8.25486e-114
-9.01771e-85
1.82026e-33
0.0108474
0.389846
0.896952
0.998706
1
1
1
1
1
1
1
1
1
1
1
1
1
1
1
1
1
1
1
1
1
1
1
1
1
1
1
1
1
1
1
1
1
1
1
1
1
1
1
1
1
1
1
1
1
1
1
1
1
1
1
1
1
1
1
1
1
1
1
1
1
1
1
1
1
1
1
1
1
1
1
1
1
1
1
1
1
1
0.999985
0.992508
0.657033
0.125427
0.00859223
3.07506e-18
4.71068e-21
-1.7079e-24
-1.81899e-25
-3.28269e-27
-1.7544e-26
-2.37979e-26
-7.32314e-28
-1.39993e-29
-8.8006e-48
2.34356e-49
1.37702e-33
2.45104e-31
2.37986e-29
1.25606e-27
5.44697e-26
2.58295e-24
1.00724e-22
3.03107e-21
1.02058e-19
2.90775e-18
5.66732e-17
7.32206e-16
6.38451e-15
5.02424e-14
4.12063e-13
3.48573e-12
2.53987e-11
1.60976e-10
1.24163e-09
8.7788e-09
5.0075e-08
2.31913e-07
1.01014e-06
5.16153e-06
2.58678e-05
0.000108832
0.000396803
0.00130228
0.0038328
0.00956782
0.019869
0.0335562
0.0453788
0.0432869
0.0260191
0.00564352
5.86357e-08
8.13002e-08
9.23243e-08
9.1009e-08
8.11488e-08
7.06159e-08
6.06915e-08
5.21235e-08
4.61519e-08
4.2229e-08
3.99609e-08
3.97569e-08
4.20668e-08
4.61145e-08
5.0715e-08
5.39128e-08
5.66266e-08
5.84501e-08
6.00491e-08
6.08269e-08
6.2609e-08
6.65754e-08
7.06534e-08
7.37946e-08
7.91685e-08
9.44764e-08
1.28081e-07
1.80141e-07
2.68849e-07
6.14028e-07
8.10788e-07
1.07524e-06
1.33612e-06
1.90494e-06
3.05836e-06
5.20788e-06
8.86293e-06
1.52235e-05
2.57779e-05
4.22122e-05
7.18659e-05
0.000130215
0.000243494
0.000467728
0.000920166
0.00185768
0.003888
0.00856666
0.0198871
0.0472208
0.110286
0.239743
0.405402
0.575425
0.731716
0.844934
0.921776
0.974517
0.99872
1
1
1
1
1
1
1
1
1
1
1
1
1
1
1
1
1
1
0
0
0
0
-6.81781e-279
-1.74344e-225
-1.01008e-119
-8.55868e-124
-2.08163e-122
-5.7943e-127
-1.67518e-131
-4.18986e-136
-7.68507e-141
-1.15613e-145
-1.4728e-150
-1.85089e-155
-5.09099e-160
-7.50572e-162
-4.38409e-163
-1.72728e-164
-5.40417e-166
-1.3888e-167
-2.47525e-169
-3.65551e-171
-4.64735e-173
-4.18918e-175
-3.25195e-177
-2.29739e-179
-1.443e-181
-7.9613e-184
-3.53101e-186
-1.33341e-188
-3.94179e-191
-1.10488e-193
-3.6176e-191
-3.11663e-134
-5.98707e-130
-8.47143e-84
-1.72115e-53
-1.28672e-43
2.03546e-22
0.0409766
0.470666
0.931028
0.998919
1
1
1
1
1
1
1
1
1
1
1
1
1
1
1
1
1
1
1
1
1
1
1
1
1
1
1
1
1
1
1
1
1
1
1
1
1
1
1
1
1
1
1
1
1
1
1
1
1
1
1
1
1
1
1
1
1
1
1
1
1
1
1
1
1
1
1
1
1
1
1
1
1
1
1
0.999829
0.914162
0.367429
0.0332548
-1.11116e-20
-1.23035e-22
5.28171e-38
-1.1956e-40
-9.25099e-25
-2.85302e-26
-6.97114e-28
-3.33992e-27
-1.22584e-27
-4.84293e-29
-1.22313e-30
-2.19639e-32
-2.9066e-34
5.63953e-54
1.64701e-47
1.68993e-44
4.4631e-44
3.03989e-41
5.83378e-41
7.35756e-41
-4.03662e-41
-2.03764e-39
-2.12267e-38
-2.60838e-37
7.05771e-56
-3.5699e-54
4.36223e-53
9.70653e-52
2.35211e-30
2.35424e-30
2.35698e-30
3.64708e-25
2.04611e-24
9.08663e-23
2.94984e-22
1.50121e-19
3.44174e-18
7.53025e-17
1.27261e-15
2.59553e-14
2.87878e-13
1.34391e-12
4.76594e-12
1.45275e-11
6.83397e-11
2.55282e-10
6.99085e-10
1.53071e-09
2.70727e-09
3.9635e-09
4.97103e-09
5.38543e-09
5.19304e-09
4.41257e-09
3.49365e-09
2.64287e-09
1.98528e-09
1.59762e-09
1.38484e-09
1.24141e-09
1.17868e-09
1.21109e-09
1.31148e-09
1.49227e-09
1.62686e-09
1.72054e-09
1.78265e-09
1.89325e-09
1.93525e-09
1.98499e-09
2.15564e-09
2.36395e-09
2.50903e-09
2.48059e-09
2.77495e-09
4.02668e-09
9.79145e-09
4.57536e-08
4.47904e-07
3.56536e-07
2.54312e-07
1.22189e-07
7.21804e-08
9.92886e-08
1.7896e-07
3.23729e-07
5.60754e-07
9.79697e-07
1.68649e-06
2.9369e-06
5.47359e-06
1.05231e-05
2.07306e-05
4.18021e-05
8.55606e-05
0.000177414
0.000368787
0.000781336
0.00172212
0.00392908
0.00927982
0.0222911
0.0523767
0.117508
0.243169
0.403875
0.578234
0.747554
0.867484
0.946151
0.990169
1
1
1
1
1
1
1
1
1
1
1
1
1
1
1
0
0
0
0
-2.15619e-281
-5.05899e-228
-4.28109e-124
-4.12409e-128
-5.5753e-127
-1.31262e-131
-3.20378e-136
-6.44899e-141
-9.13398e-146
-1.03265e-150
-1.08124e-155
-1.66302e-160
-1.18277e-164
-4.30233e-166
-2.24457e-167
-8.06724e-169
-2.30092e-170
-5.37051e-172
-8.91232e-174
-1.22262e-175
-1.43424e-177
-1.22419e-179
-8.97601e-182
-5.95194e-184
-3.50709e-186
-1.81344e-188
-7.60863e-191
-2.71539e-193
-7.67316e-196
-2.01723e-198
-2.76344e-191
-3.42196e-155
-2.56513e-129
-3.96311e-83
-3.75108e-55
5.06457e-46
2.32305e-57
-1.20608e-27
7.96094e-24
0.0670028
0.539515
0.966579
0.99967
1
1
1
1
1
1
1
1
1
1
1
1
1
1
1
1
1
1
1
1
1
1
1
1
1
1
1
1
1
1
1
1
1
1
1
1
1
1
1
1
1
1
1
1
1
1
1
1
1
1
1
1
1
1
1
1
1
1
1
1
1
1
1
1
1
1
1
1
1
1
1
0.999995
0.995752
0.686391
0.135095
0.00563719
2.9477e-18
1.18239e-35
-6.04457e-24
-2.9425e-26
-2.40382e-26
-7.26679e-26
-2.68781e-27
-1.03682e-28
-4.17037e-28
-7.43386e-29
-3.48781e-30
-1.04399e-31
-2.3056e-33
-4.07448e-35
-5.28663e-37
-6.88444e-39
-8.88526e-41
-1.07301e-42
2.37965e-61
2.87185e-57
-2.79151e-43
-2.1741e-41
-7.3468e-40
-1.02346e-38
-3.73633e-39
5.71357e-36
2.65248e-34
2.42159e-33
5.30075e-32
4.0666e-31
4.50826e-29
2.22241e-27
1.35099e-26
2.82324e-24
2.07055e-23
1.33622e-21
1.49385e-20
3.84116e-19
8.37009e-18
1.44898e-16
7.30493e-15
8.05847e-14
3.65617e-13
2.48266e-12
1.00043e-11
3.236e-11
6.88607e-11
8.71963e-11
1.18781e-10
1.81905e-10
2.65748e-10
3.18443e-10
3.49298e-10
3.39827e-10
2.89426e-10
2.26068e-10
1.63682e-10
1.1362e-10
8.49236e-11
7.06006e-11
6.03136e-11
5.28498e-11
5.0457e-11
5.11346e-11
5.81797e-11
6.47817e-11
7.00094e-11
7.31344e-11
8.08345e-11
8.60361e-11
8.70334e-11
9.37105e-11
1.18804e-10
2.76324e-10
2.59761e-10
1.88392e-10
4.46388e-10
9.85181e-08
1.39227e-06
3.63042e-06
2.87025e-06
1.11324e-06
7.64506e-08
2.79573e-09
3.57312e-09
6.49376e-09
1.28777e-08
2.4055e-08
4.49394e-08
8.31276e-08
1.48446e-07
2.66939e-07
4.77719e-07
8.63153e-07
1.66681e-06
3.4067e-06
7.12901e-06
1.52421e-05
3.37907e-05
7.75876e-05
0.000178767
0.000401295
0.00087608
0.00190632
0.00417401
0.00934658
0.0218176
0.0525266
0.127449
0.281691
0.471959
0.662501
0.812487
0.899509
0.954811
0.986373
0.999118
1
1
1
1
1
1
1
1
1
1
0
0
0
0
-5.84333e-284
-1.25963e-230
-2.00252e-128
-1.31672e-132
-1.1851e-131
-2.38308e-136
-4.65842e-141
-7.06563e-146
-7.47352e-151
-6.7627e-156
-8.12584e-161
-2.12246e-165
-4.11326e-169
-2.08556e-170
-9.69136e-172
-3.16786e-173
-8.22533e-175
-1.74418e-176
-2.68792e-178
-3.42081e-180
-3.70457e-182
-2.98538e-184
-2.06378e-186
-1.28365e-188
-7.09127e-191
-3.43555e-193
-1.36188e-195
-4.59002e-198
-1.237e-200
-3.05187e-203
-5.89892e-206
-6.54224e-181
-9.6904e-144
-6.19477e-109
-4.52841e-82
2.44611e-62
2.3109e-57
1.68639e-69
1.12109e-47
5.11261e-30
6.92547e-13
0.131138
0.688418
0.99704
1
1
1
1
1
1
1
1
1
1
1
1
1
1
1
1
1
1
1
1
1
1
1
1
1
1
1
1
1
1
1
1
1
1
1
1
1
1
1
1
1
1
1
1
1
1
1
1
1
1
1
1
1
1
1
1
1
1
1
1
1
1
1
1
1
1
1
1
1
0.999732
0.887481
0.367202
0.035299
4.0244e-20
-7.62288e-23
3.87546e-37
-1.48361e-25
-2.50115e-25
-1.51813e-27
-5.87632e-27
-4.89294e-27
-2.13136e-28
-1.42106e-29
-4.00988e-29
-5.08558e-30
-2.55854e-31
-8.28564e-33
-2.02035e-34
-4.11146e-36
-7.03467e-38
-1.0916e-39
-1.54178e-41
-1.93731e-43
-2.21873e-45
-1.58082e-45
-1.11689e-43
-6.20311e-42
-1.95647e-40
-2.54532e-39
-2.78894e-39
5.37484e-37
3.98592e-36
2.89879e-35
3.44635e-33
4.79795e-32
5.35058e-31
4.04646e-29
2.46419e-27
1.29472e-25
5.31253e-24
1.56318e-22
3.88591e-21
8.68957e-20
1.65178e-18
2.6684e-17
3.29873e-15
3.02223e-14
8.86256e-14
2.07666e-12
9.06396e-12
2.2262e-11
3.75566e-11
5.92823e-11
8.71817e-11
1.21509e-10
1.50643e-10
1.61796e-10
1.53434e-10
1.25658e-10
9.07549e-11
5.98665e-11
3.64577e-11
2.13877e-11
1.38046e-11
1.0687e-11
8.9798e-12
7.71107e-12
7.33694e-12
7.28289e-12
8.22049e-12
9.31297e-12
1.04028e-11
1.11451e-11
1.25575e-11
1.38534e-11
1.36685e-11
1.43454e-11
4.5858e-11
2.8506e-10
2.62973e-10
1.44177e-10
6.33859e-10
8.06696e-07
4.49066e-06
5.68955e-06
5.68962e-06
2.547e-06
1.18449e-07
1.20069e-10
1.53886e-10
2.84213e-10
5.6301e-10
1.07975e-09
2.12236e-09
4.19264e-09
7.79004e-09
1.40647e-08
2.47555e-08
4.35468e-08
8.21552e-08
1.66092e-07
3.45921e-07
7.29855e-07
1.56803e-06
3.49382e-06
8.01278e-06
1.83457e-05
4.11587e-05
9.05209e-05
0.000192906
0.000400896
0.000849468
0.0018825
0.00442608
0.0113356
0.0305797
0.0803297
0.190865
0.348442
0.501424
0.638987
0.754976
0.841502
0.908927
0.963724
0.996407
1
1
1
1
1
1
0
0
0
0
-1.36759e-286
-2.71075e-233
-6.28258e-133
-2.61395e-137
-2.01103e-136
-3.2736e-141
-4.78479e-146
-5.27892e-151
-4.37612e-156
-4.30949e-161
-8.79557e-166
-3.07255e-170
-1.59186e-173
-8.40173e-175
-3.46944e-176
-1.02803e-177
-2.42555e-179
-4.67144e-181
-6.66724e-183
-7.85948e-185
-7.85773e-187
-5.96225e-189
-3.87902e-191