/*--------------------------------*- C++ -*----------------------------------*\
| =========                 |                                                 |
| \\      /  F ield         | OpenFOAM: The Open Source CFD Toolbox           |
|  \\    /   O peration     | Version:  v1912                                 |
|   \\  /    A nd           | Website:  www.openfoam.com                      |
|    \\/     M anipulation  |                                                 |
\*---------------------------------------------------------------------------*/
FoamFile
{
    version     2.0;
    format      ascii;
    class       volScalarField;
    location    "90";
    object      alpha.water;
}
// * * * * * * * * * * * * * * * * * * * * * * * * * * * * * * * * * * * * * //

dimensions      [0 0 0 0 0 0 0];


internalField   nonuniform List<scalar> 
114144
(
1
1
1
1
1
1
1
1
1
1
1
1
1
1
1
1
1
1
1
1
1
1
1
1
1
1
1
1
1
1
1
1
1
1
1
1
1
1
1
1
1
1
1
1
1
1
1
1
1
1
1
1
1
1
1
1
1
1
1
1
1
1
1
1
1
1
1
1
1
1
1
1
1
1
1
1
1
1
1
1
1
1
1
1
1
1
1
1
1
1
1
1
1
1
1
1
1
1
1
1
1
1
1
1
1
1
1
1
1
1
1
1
1
1
1
1
1
1
1
1
1
1
1
1
1
1
1
1
1
1
1
1
1
1
1
1
1
1
1
1
1
1
1
1
1
1
1
1
1
1
1
1
1
1
1
1
1
1
1
1
1
1
1
1
1
1
1
1
1
1
1
1
1
1
1
1
1
1
1
1
1
1
1
1
1
1
1
1
1
1
1
1
1
1
1
1
1
1
1
1
1
1
1
1
1
1
1
1
1
1
1
1
1
1
1
1
1
1
1
1
1
1
1
1
1
1
1
1
1
1
1
1
1
1
1
1
1
1
1
1
1
1
1
1
1
1
1
1
1
1
1
1
1
1
1
1
1
1
1
1
1
1
1
1
1
1
1
1
1
1
1
1
1
1
1
1
1
1
1
1
1
1
1
1
1
1
1
1
1
1
1
1
1
1
1
1
1
1
1
1
1
1
1
1
1
1
1
1
1
1
1
1
1
1
1
1
1
1
1
1
1
1
1
1
1
1
1
1
1
1
1
1
1
1
1
1
1
1
1
1
1
1
1
1
1
1
1
1
1
1
1
1
1
1
1
1
1
1
1
1
1
1
1
1
1
1
1
1
1
1
1
1
1
1
1
1
1
1
1
1
1
1
1
1
1
1
1
1
1
1
1
1
1
1
1
1
1
1
1
1
1
1
1
1
1
1
1
1
1
1
1
1
1
1
1
1
1
1
1
1
1
1
1
1
1
1
1
1
1
1
1
1
1
1
1
1
1
1
1
1
1
1
1
1
1
1
1
1
1
1
1
1
1
1
1
1
1
1
1
1
1
1
1
1
1
1
1
1
1
1
1
1
1
1
1
1
1
1
1
1
1
1
1
1
1
1
1
1
1
1
1
1
1
1
1
1
1
1
1
1
1
1
1
1
1
1
1
1
1
1
1
1
1
1
1
1
1
1
1
1
1
1
1
1
1
1
1
1
1
1
1
1
1
1
1
1
1
1
1
1
1
1
1
1
1
1
1
1
1
1
1
1
1
1
1
1
1
1
1
1
1
1
1
1
1
1
1
1
1
1
1
1
1
1
1
1
1
1
1
1
1
1
1
1
1
1
1
1
1
1
1
1
1
1
1
1
1
1
1
1
1
1
1
1
1
1
1
1
1
1
1
1
1
1
1
1
1
1
1
1
1
1
1
1
1
1
1
1
1
1
1
1
1
1
1
1
1
1
1
1
1
1
1
1
1
1
1
1
1
1
1
1
1
1
1
1
1
1
1
1
1
1
1
1
1
1
1
1
1
1
1
1
1
1
1
1
1
1
1
1
1
1
1
1
1
1
1
1
1
1
1
1
1
1
1
1
1
1
1
1
1
1
1
1
1
1
1
1
1
1
1
1
1
1
1
1
1
1
1
1
1
1
1
1
1
1
1
1
1
1
1
1
1
1
1
1
1
1
1
1
1
1
1
1
1
1
1
1
1
1
1
1
1
1
1
1
1
1
1
1
1
1
1
1
1
1
1
1
1
1
1
1
1
1
1
1
1
1
1
1
1
1
1
1
1
1
1
1
1
1
1
1
1
1
1
1
1
1
1
1
1
1
1
1
1
1
1
1
1
1
1
1
1
1
1
1
1
1
1
1
1
1
1
1
1
1
1
1
1
1
1
1
1
1
1
1
1
1
1
1
1
1
1
1
1
1
1
1
1
1
1
1
1
1
1
1
1
1
1
1
1
1
1
1
1
1
1
1
1
1
1
1
1
1
1
1
1
1
1
1
1
1
1
1
1
1
1
1
1
1
1
1
1
1
1
1
1
1
1
1
1
1
1
1
1
1
1
1
1
1
1
1
1
1
1
1
1
1
1
1
1
1
1
1
1
1
1
1
1
1
1
1
1
1
1
1
1
1
1
1
1
1
1
1
1
1
1
1
1
1
1
1
1
1
1
1
1
1
1
1
1
1
1
1
1
1
1
1
1
1
1
1
1
1
1
1
1
1
1
1
1
1
1
1
1
1
1
1
1
1
1
1
1
1
1
1
1
1
1
1
1
1
1
1
1
1
1
1
1
1
1
1
1
1
1
1
1
1
1
1
1
1
1
1
1
1
1
1
1
1
1
1
1
1
1
1
1
1
1
1
1
1
1
1
1
1
1
1
1
1
1
1
1
1
1
1
1
1
1
1
1
1
1
1
1
1
1
1
1
1
1
1
1
1
1
1
1
1
1
1
1
1
1
1
1
1
1
1
1
1
1
1
1
1
1
1
1
1
1
1
1
1
1
1
1
1
1
1
1
1
1
1
1
1
1
1
1
1
1
1
1
1
1
1
1
1
1
1
1
1
1
1
1
1
1
1
1
1
1
1
1
1
1
1
1
1
1
1
1
1
1
1
1
1
1
1
1
1
1
1
1
1
1
1
1
1
1
1
1
1
1
1
1
1
1
1
1
1
1
1
1
1
1
1
1
1
1
1
1
1
1
1
1
1
1
1
1
1
1
1
1
1
1
1
1
1
1
1
1
1
1
1
1
1
1
1
1
1
1
1
1
1
1
1
1
1
1
1
1
1
1
1
1
1
1
1
1
1
1
1
1
1
1
1
1
1
1
1
1
1
1
1
1
1
1
1
1
1
1
1
1
1
1
1
1
1
1
1
1
1
1
1
1
1
1
1
1
1
1
1
1
1
1
1
1
1
1
1
1
1
1
1
1
1
1
1
1
1
1
1
1
1
1
1
1
1
1
1
1
1
1
1
1
1
1
1
1
1
1
1
1
1
1
1
1
1
1
1
1
1
1
1
1
1
1
1
1
1
1
1
1
1
1
1
1
1
1
1
1
1
1
1
1
1
1
1
1
1
1
1
1
1
1
1
1
1
1
1
1
1
1
1
1
1
1
1
1
1
1
1
1
1
1
1
1
1
1
1
1
1
1
1
1
1
1
1
1
1
1
1
1
1
1
1
1
1
1
1
1
1
1
1
1
1
1
1
1
1
1
1
1
1
1
1
1
1
1
1
1
1
1
1
1
1
1
1
1
1
1
1
1
1
1
1
1
1
1
1
1
1
1
1
1
1
1
1
1
1
1
1
1
1
1
1
1
1
1
1
1
1
1
1
1
1
1
1
1
1
1
1
1
1
1
1
1
1
1
1
1
1
1
1
1
1
1
1
1
1
1
1
1
1
1
1
1
1
1
1
1
1
1
1
1
1
1
1
1
1
1
1
1
1
1
1
1
1
1
1
1
1
1
1
1
1
1
1
1
1
1
1
1
1
1
1
1
1
1
1
1
1
1
1
1
1
1
1
1
1
1
1
1
1
1
1
1
1
1
1
1
1
1
1
1
1
1
1
1
1
1
1
1
1
1
1
1
1
1
1
1
1
1
1
1
1
1
1
1
1
1
1
1
1
1
1
1
1
1
1
1
1
1
1
1
1
1
1
1
1
1
1
1
1
1
1
1
1
1
1
1
1
1
1
1
1
1
1
1
1
1
1
1
1
1
1
1
1
1
1
1
1
1
1
1
1
1
1
1
1
1
1
1
1
1
1
1
1
1
1
1
1
1
1
1
1
1
1
1
1
1
1
1
1
1
1
1
1
1
1
1
1
1
1
1
1
1
1
1
1
1
1
1
1
1
1
1
1
1
1
1
1
1
1
1
1
1
1
1
1
1
1
1
1
1
1
1
1
1
1
1
1
1
1
1
1
1
1
1
1
1
1
1
1
1
1
1
1
1
1
1
1
1
1
1
1
1
1
1
1
1
1
1
1
1
1
1
1
1
1
1
1
1
1
1
1
1
1
1
1
1
1
1
1
1
1
1
1
1
1
1
1
1
1
1
1
1
1
1
1
1
1
1
1
1
1
1
1
1
1
1
1
1
1
1
1
1
1
1
1
1
1
1
1
1
1
1
1
1
1
1
1
1
1
1
1
1
1
1
1
1
1
1
1
1
1
1
1
1
1
1
1
1
1
1
1
1
1
1
1
1
1
1
1
1
1
1
1
1
1
1
1
1
1
1
1
1
1
1
1
1
1
1
1
1
1
1
1
1
1
1
1
1
1
1
1
1
1
1
1
1
1
1
1
1
1
1
1
1
1
1
1
1
1
1
1
1
1
1
1
1
1
1
1
1
1
1
1
1
1
1
1
1
1
1
1
1
1
1
1
1
1
1
1
1
1
1
1
1
1
1
1
1
1
1
1
1
1
1
1
1
1
1
1
1
1
1
1
1
1
1
1
1
1
1
1
1
1
1
1
1
1
1
1
1
1
1
1
1
1
1
1
1
1
1
1
1
1
1
1
1
1
1
1
1
1
1
1
1
1
1
1
1
1
1
1
1
1
1
1
1
1
1
1
1
1
1
1
1
1
1
1
1
1
1
1
1
1
1
1
1
1
1
1
1
1
1
1
1
1
1
1
1
1
1
1
1
1
1
1
1
1
1
1
1
1
1
1
1
1
1
1
1
1
1
1
1
1
1
1
1
1
1
1
1
1
1
1
1
1
1
1
1
1
1
1
1
1
1
1
1
1
1
1
1
1
1
1
1
1
1
1
1
1
1
1
1
1
1
1
1
1
1
1
1
1
1
1
1
1
1
1
1
1
1
1
1
1
1
1
1
1
1
1
1
1
1
1
1
1
1
1
1
1
1
1
1
1
1
1
1
1
1
1
1
1
1
1
1
1
1
1
1
1
1
1
1
1
1
1
1
1
1
1
1
1
1
1
1
1
1
1
1
1
1
1
1
1
1
1
1
1
1
1
1
1
1
1
1
1
1
1
1
1
1
1
1
1
1
1
1
1
1
1
1
1
1
1
1
1
1
1
1
1
1
1
1
1
1
1
1
1
1
1
1
1
1
1
1
1
1
1
1
1
1
1
1
1
1
1
1
1
1
1
1
1
1
1
1
1
1
1
1
1
1
1
1
1
1
1
1
1
1
1
1
1
1
1
1
1
1
1
1
1
1
1
1
1
1
1
1
1
1
1
1
1
1
1
1
1
1
1
1
1
1
1
1
1
1
1
1
1
1
1
1
1
1
1
1
1
1
1
1
1
1
1
1
1
1
1
1
1
1
1
1
1
1
1
1
1
1
1
1
1
1
1
1
1
1
1
1
1
1
1
1
1
1
1
1
1
1
1
1
1
1
1
1
1
1
1
1
1
1
1
1
1
1
1
1
1
1
1
1
1
1
1
1
1
1
1
1
1
1
1
1
1
1
1
1
1
1
1
1
1
1
1
1
1
1
1
1
1
1
1
1
1
1
1
1
1
1
1
1
1
1
1
1
1
1
1
1
1
1
1
1
1
1
1
1
1
1
1
1
1
1
1
1
1
1
1
1
1
1
1
1
1
1
1
1
1
1
1
1
1
1
1
1
1
1
1
1
1
1
1
1
1
1
1
1
1
1
1
1
1
1
1
1
1
1
1
1
1
1
1
1
1
1
1
1
1
1
1
1
1
1
1
1
1
1
1
1
1
1
1
1
1
1
1
1
1
1
1
1
1
1
1
1
1
1
1
1
1
1
1
1
1
1
1
1
1
1
1
1
1
1
1
1
1
1
1
1
1
1
1
1
1
1
1
1
1
1
1
1
1
1
1
1
1
1
1
1
1
1
1
1
1
1
1
1
1
1
1
1
1
1
1
1
1
1
1
1
1
1
1
1
1
1
1
1
1
1
1
1
1
1
1
1
1
1
1
1
1
1
1
1
1
1
1
1
1
1
1
1
1
1
1
1
1
1
1
1
1
1
1
1
1
1
1
1
1
1
1
1
1
1
1
1
1
1
1
1
1
1
1
1
1
1
1
1
1
1
1
1
1
1
1
1
1
1
1
1
1
1
1
1
1
1
1
1
1
1
1
1
1
1
1
1
1
1
1
1
1
1
1
1
1
1
1
1
1
1
1
1
1
1
1
1
1
1
1
1
1
1
1
1
1
1
1
1
1
1
1
1
1
1
1
1
1
1
1
1
1
1
1
1
1
1
1
1
1
1
1
1
1
1
1
1
1
1
1
1
1
1
1
1
1
1
1
1
1
1
1
1
1
1
1
1
1
1
1
1
1
1
1
1
1
1
1
1
1
1
1
1
1
1
1
1
1
1
1
1
1
1
1
1
1
1
1
1
1
1
1
1
1
1
1
1
1
1
1
1
1
1
1
1
1
1
1
1
1
1
1
1
1
1
1
1
1
1
1
1
1
1
1
1
1
1
1
1
1
1
1
1
1
1
1
1
1
1
1
1
1
1
1
1
1
1
1
1
1
1
1
1
1
1
1
1
1
1
1
1
1
1
1
1
1
1
1
1
1
1
1
1
1
1
1
1
1
1
1
1
1
1
1
1
1
1
1
1
1
1
1
1
1
1
1
1
1
1
1
1
1
1
1
1
1
1
1
1
1
1
1
1
1
1
1
1
1
1
1
1
1
1
1
1
1
1
1
1
1
1
1
1
1
1
1
1
1
1
1
1
1
1
1
1
1
1
1
1
1
1
1
1
1
1
1
1
1
1
1
1
1
1
1
1
1
1
1
1
1
1
1
1
1
1
1
1
1
1
1
1
1
1
1
1
1
1
1
1
1
1
1
1
1
1
1
1
1
1
1
1
1
1
1
1
1
1
1
1
1
1
1
1
1
1
1
1
1
1
1
1
1
1
1
1
1
1
1
1
1
1
1
1
1
1
1
1
1
1
1
1
1
1
1
1
1
1
1
1
1
1
1
1
1
1
1
1
1
1
1
1
1
1
1
1
1
1
1
1
1
1
1
1
1
1
1
1
1
1
1
1
1
1
1
1
1
1
1
1
1
1
1
1
1
1
1
1
1
1
1
1
1
1
1
1
1
1
1
1
1
1
1
1
1
1
1
1
1
1
1
1
1
1
1
1
1
1
1
1
1
1
1
1
1
1
1
1
1
1
1
1
1
1
1
1
1
1
1
1
1
1
1
1
1
1
1
1
1
1
1
1
1
1
1
1
1
1
1
1
1
1
1
1
1
1
1
1
1
1
1
1
1
1
1
1
1
1
1
1
1
1
1
1
1
1
1
1
1
1
1
1
1
1
1
1
1
1
1
1
1
1
1
1
1
1
1
1
1
1
1
1
1
1
1
1
1
1
1
1
1
1
1
0.999999
1
1
1
1
1
1
1
1
1
1
1
1
1
1
1
1
1
1
1
1
1
1
1
1
1
1
1
1
1
1
1
1
1
1
1
1
1
1
1
1
1
1
1
1
1
1
1
1
1
1
1
1
1
1
1
1
1
1
1
1
1
1
1
1
1
1
1
1
1
1
1
1
1
1
1
1
1
1
1
1
1
1
1
1
1
1
1
1
1
1
1
0.999995
1
1
1
1
1
1
1
1
1
1
1
1
1
1
1
1
1
1
1
1
1
1
1
1
1
1
1
1
1
1
1
1
1
1
1
1
1
1
1
1
1
1
1
1
1
1
1
1
1
1
1
1
1
1
1
1
1
1
1
1
1
1
1
1
1
1
1
1
1
1
1
1
1
1
1
1
1
1
1
1
1
1
1
1
1
1
1
1
1
1
1
1
1
1
1
1
1
1
1
1
1
1
1
1
1
1
1
1
1
1
1
1
1
1
1
1
1
1
1
1
1
1
1
1
1
1
1
1
1
1
1
1
1
1
1
1
1
1
1
1
1
1
1
1
1
1
1
1
1
1
1
1
1
1
1
1
1
0.826535
1
1
1
1
1
1
1
1
1
1
1
1
1
1
1
1
1
1
1
1
1
1
1
1
1
1
1
1
1
1
1
1
1
1
1
1
1
1
1
1
1
1
1
1
1
1
1
1
1
1
1
1
1
1
1
1
1
1
1
1
1
1
1
1
1
1
1
1
1
1
1
1
1
1
1
1
1
1
1
1
1
1
1
1
1
1
1
1
1
1
0.99994
0.996929
0.999692
1
1
1
1
1
1
1
1
1
1
1
1
1
1
1
1
1
1
1
1
1
1
1
1
1
1
1
1
1
1
1
1
1
1
1
1
1
1
1
1
1
1
1
1
1
1
1
1
1
1
1
1
1
1
1
1
1
1
1
1
1
1
1
1
1
1
1
1
1
1
1
1
1
1
1
1
1
1
1
1
1
1
1
1
1
1
1
1
1
1
1
1
1
1
1
1
1
1
1
1
1
1
1
1
1
1
1
1
1
1
1
1
1
1
1
1
1
1
1
1
1
1
1
1
1
1
1
1
1
1
1
1
1
1
1
1
1
1
1
1
1
1
1
1
1
1
1
1
1
1
1
1
1
1
1
1
0.0835357
0.871237
1
1
1
1
1
1
1
1
1
1
1
1
1
1
1
1
1
1
1
1
1
1
1
1
1
1
1
1
1
1
1
1
1
1
1
1
1
1
1
1
1
1
1
1
1
0.999999
0.999825
1
1
1
1
1
1
1
1
1
1
1
1
1
1
1
1
1
1
1
1
1
1
1
1
1
1
1
1
1
1
1
1
1
1
1
1
1
1
1
1
1
0.973614
0.559021
0.363992
0.725541
0.996097
1
1
1
1
1
1
1
1
1
1
1
1
1
1
1
1
1
1
1
1
1
1
1
1
1
1
1
1
1
1
1
1
1
1
1
1
1
1
1
1
1
1
1
1
1
1
1
1
1
1
1
1
1
1
1
1
1
1
1
1
1
1
1
1
1
1
1
1
1
1
1
1
1
1
1
1
1
1
1
1
1
1
1
1
1
1
1
1
1
1
1
1
1
1
1
1
1
1
1
1
1
1
1
1
1
1
1
1
1
1
1
1
1
1
1
1
1
1
1
1
1
1
1
1
1
1
1
1
1
1
1
1
1
1
1
1
1
1
1
1
1
1
1
1
1
1
1
1
1
1
1
1
1
1
1
-2.25151e-23
0.209508
0.981545
1
1
1
1
1
1
1
1
1
1
1
1
1
1
1
1
1
1
1
1
1
1
1
1
1
1
1
1
1
1
1
1
1
1
1
1
1
1
1
1
1
1
1
0.999885
0.888113
0.692076
0.832118
0.996334
1
1
1
1
1
1
1
1
1
1
1
1
1
1
1
1
1
1
1
1
1
1
1
1
1
1
1
1
1
1
1
1
1
1
1
1
1
1
0.983641
0.33163
0.00454291
9.98873e-07
0.0219294
0.646858
1
1
1
1
1
1
1
1
1
1
1
1
1
1
1
1
1
1
1
1
1
1
1
1
1
1
1
1
1
1
1
1
1
0.999999
0.999978
0.999923
1
1
1
1
1
1
1
1
1
1
1
1
1
1
1
1
1
1
1
1
1
1
1
1
1
1
1
1
1
1
1
1
1
1
1
1
1
1
1
1
1
1
1
1
1
1
1
1
1
1
1
1
1
1
1
1
0.999999
0.99998
0.999934
0.99991
0.999912
0.999969
0.999999
1
1
1
1
1
1
1
1
1
1
1
1
1
1
1
1
1
1
1
1
1
1
1
1
1
1
1
1
1
1
1
1
1
1
1
1
1
1
1
1
1
1
1
1
1
1
1
1
1
1
1
1
1
1
1
1
-3.69609e-81
6.4045e-06
0.523756
1
1
1
1
1
1
1
1
1
1
1
1
1
1
1
1
1
1
1
1
1
1
1
1
1
1
1
1
1
1
1
1
1
1
1
1
1
1
1
1
1
1
0.908776
0.37662
0.00925981
8.00343e-23
0.00152438
0.417351
0.98158
1
1
1
1
1
1
1
1
1
1
1
1
1
1
1
1
1
1
1
1
1
1
1
1
1
1
1
1
1
1
1
1
1
1
1
1
0.997458
0.531896
0.00162943
-2.97664e-22
2.66785e-11
1.18394e-05
0.0536222
0.851535
1
1
1
1
1
1
1
1
1
1
1
1
1
1
1
1
1
1
1
1
1
1
1
1
1
1
1
1
1
0.999999
0.999903
0.993925
0.902201
0.701833
0.639098
0.752177
0.932686
0.989029
1
1
1
1
1
1
1
1
1
1
1
1
1
1
1
1
1
1
1
1
1
1
1
1
1
1
1
1
1
1
1
1
1
1
1
1
1
1
1
1
1
1
1
1
1
1
1
1
1
0.999999
0.999986
0.999866
0.999372
0.998158
0.996656
0.996127
0.996994
0.997976
0.998966
0.999623
0.999923
0.999994
1
1
1
1
1
1
1
1
1
1
1
1
1
1
1
1
1
1
1
1
1
1
1
1
1
1
1
1
1
1
1
1
1
1
1
1
1
1
1
1
1
1
1
1
1
1
1
1
1
1
1
1
1
1
-1.13836e-86
1.26708e-22
0.0344754
0.868375
1
1
1
1
1
1
1
1
1
1
1
1
1
1
1
1
1
1
1
1
1
1
1
1
1
1
1
1
1
1
1
1
1
1
1
1
1
1
1
0.992648
0.606646
0.0720842
0.000214112
-2.50652e-29
-7.66674e-32
-1.89506e-34
0.000742842
0.4444
0.999163
1
1
1
1
1
1
1
1
1
1
1
1
1
1
1
1
1
1
1
1
1
1
1
1
1
1
1
1
1
1
1
1
1
1
0.999976
0.843821
0.0286019
3.32106e-14
1.52957e-23
8.5877e-16
2.10111e-09
0.00177268
0.27291
0.996718
1
1
1
1
1
1
1
1
1
1
1
1
1
1
1
1
1
1
1
1
1
1
1
1
1
1
1
0.999998
0.999359
0.934297
0.470041
0.0975959
0.0324833
0.0119712
0.0140528
0.140767
0.55556
0.932661
1
1
1
1
1
1
1
1
1
1
1
1
1
1
1
1
1
1
1
1
1
1
1
1
1
1
1
1
1
1
1
1
1
1
1
1
1
1
1
1
1
1
1
1
1
1
0.999999
0.999994
0.999949
0.999571
0.9975
0.990706
0.975722
0.960044
0.957727
0.971751
0.990209
0.997117
0.998619
0.999483
0.999873
0.999988
1
1
1
1
1
1
1
1
1
1
1
1
1
1
1
1
1
1
1
1
1
1
1
1
1
1
1
1
1
1
1
1
1
1
1
1
1
1
1
1
1
1
1
1
1
1
1
1
1
1
1
1
1
-1.63101e-92
-1.23595e-81
7.77362e-07
0.312612
0.999941
1
1
1
1
1
1
1
1
1
1
1
1
1
1
1
1
1
1
1
1
1
1
1
1
1
1
1
1
1
1
1
1
1
1
1
1
0.94569
0.622632
0.182488
0.00153981
4.88949e-21
-9.43362e-26
-3.02199e-27
-1.01376e-29
-2.61743e-32
1.55918e-16
0.00562971
0.73782
1
1
1
1
1
1
1
1
1
1
1
1
1
1
1
1
1
1
1
1
1
1
1
1
1
1
1
1
1
1
1
1
1
1
0.993376
0.260237
2.25836e-06
-5.33004e-26
8.89847e-25
5.88395e-20
7.4159e-13
4.37736e-07
0.0126759
0.732306
1
1
1
1
1
1
1
1
1
1
1
1
1
1
1
1
1
1
1
1
1
1
1
1
1
1
0.999999
0.999301
0.893228
0.238085
0.0176992
3.18886e-14
1.51088e-09
1.41737e-07
8.2013e-06
0.000411345
0.0202854
0.26276
0.827947
0.997061
1
1
1
1
1
1
1
1
1
1
1
1
1
1
1
1
1
1
1
1
1
1
1
1
1
1
1
1
1
1
1
1
1
1
1
1
1
1
1
1
1
1
1
0.999997
0.999983
0.999887
0.999199
0.994154
0.962252
0.852538
0.673415
0.570438
0.548461
0.601849
0.707008
0.824417
0.914603
0.976818
0.999685
0.999923
0.999991
1
1
1
1
1
1
1
1
1
1
1
1
1
1
1
1
1
1
1
1
1
1
1
1
1
1
1
1
1
1
1
1
1
1
1
1
1
1
1
1
1
1
1
1
1
1
1
1
1
1
1
1
-2.38763e-197
-1.63508e-168
-5.08812e-146
0.000484394
0.734595
1
1
1
1
1
1
1
1
1
1
1
1
1
1
1
1
1
1
1
1
1
1
1
1
1
1
1
1
1
1
1
1
0.999971
0.862127
0.517014
0.241777
0.0263889
0.00173649
1.74903e-12
6.1743e-15
-1.99319e-34
8.24524e-61
-6.38242e-41
-1.39007e-43
-4.44252e-46
-1.29819e-45
1.69283e-07
0.159248
0.982566
1
1
1
1
1
1
1
1
1
1
1
1
1
1
1
1
1
1
1
1
1
1
1
1
1
1
1
1
1
1
1
1
0.999423
0.68718
0.00142574
2.20032e-18
-3.42495e-25
-7.36852e-45
6.66687e-24
1.68695e-16
3.5231e-10
0.000361274
0.188984
0.993539
1
1
1
1
1
1
1
1
1
1
1
1
1
1
1
1
1
1
1
1
1
1
1
1
1
0.999804
0.937398
0.218205
4.90521e-06
1.83764e-12
3.18217e-14
3.19626e-12
2.55311e-10
2.03227e-08
1.03208e-06
5.10221e-05
0.00385465
0.121764
0.694073
0.974227
1
1
1
1
1
1
1
1
1
1
1
1
1
1
1
1
1
1
1
1
1
1
1
1
1
1
1
1
1
1
1
1
1
1
1
1
1
1
1
1
0.999999
0.999992
0.999957
0.99975
0.998302
0.984577
0.875111
0.535213
0.246038
0.11581
0.0633796
0.0468911
0.0616153
0.106698
0.215228
0.396189
0.60525
0.794448
0.907016
0.973824
0.999318
1
1
1
1
1
1
1
1
1
1
1
1
1
1
1
1
1
1
1
1
1
1
1
1
1
1
1
1
1
1
1
1
0.999998
0.999981
0.999858
0.999257
0.996696
0.988327
0.96826
0.933209
0.891727
0.863728
0.859023
0.876478
0.910399
0.950584
0.986128
1
1
1
1
-6.34516e-204
-3.48529e-167
-6.8447e-152
5.67992e-36
0.1635
0.977471
1
1
1
1
1
1
1
1
1
1
1
1
1
1
1
1
1
1
1
1
1
1
1
1
1
1
1
1
1
1
0.922998
0.375938
0.0112696
0.00133107
3.97632e-05
3.37247e-06
1.50182e-07
5.09004e-16
3.94972e-19
5.0448e-36
-2.64879e-55
-1.02277e-56
-1.45964e-59
-1.76314e-62
-4.20482e-65
7.98677e-20
0.00101958
0.598055
1
1
1
1
1
1
1
1
1
1
1
1
1
1
1
1
1
1
1
1
1
1
1
1
1
1
1
1
1
1
1
1
0.947001
0.11676
1.14017e-06
1.22886e-22
4.78129e-42
3.19698e-34
3.94718e-26
3.16769e-19
2.74821e-13
1.67997e-07
0.00814037
0.699584
1
1
1
1
1
1
1
1
1
1
1
1
1
1
1
1
1
1
1
1
1
1
1
1
0.999976
0.983614
0.349153
0.00104898
1.69174e-13
2.70786e-15
1.79167e-15
9.79104e-14
4.29772e-12
1.7548e-10
5.59786e-09
2.37485e-07
1.3572e-05
0.00108606
0.0514132
0.483559
0.905133
0.981917
0.99909
0.998327
0.987374
0.964945
0.897314
0.817714
0.87837
0.974847
1
1
1
1
1
1
1
1
1
1
1
1
1
1
1
1
1
1
1
1
1
1
1
1
1
1
1
1
1
0.999996
0.999971
0.999839
0.999137
0.99457
0.953074
0.688881
0.274673
0.0683744
0.0051641
0.00193519
0.00151283
0.00156001
0.00209101
0.0037243
0.00841968
0.0225777
0.0644982
0.175541
0.373398
0.579335
0.758636
0.870396
0.94159
0.985205
1
1
1
1
1
1
1
1
1
1
1
1
1
1
1
1
1
1
1
1
1
1
1
1
1
1
1
0.999999
0.999992
0.999913
0.999338
0.995604
0.974547
0.891269
0.70535
0.52716
0.391536
0.309492
0.277751
0.276609
0.310084
0.38361
0.49457
0.641695
0.798662
0.916092
0.988846
1
0
0
0
8.51878e-269
9.15557e-06
0.522153
1
1
1
1
1
1
1
1
1
1
1
1
1
1
1
1
1
1
1
1
1
1
1
1
1
1
1
1
1
0.848491
0.127634
0.000794421
2.36414e-21
-3.98245e-26
-2.19728e-28
3.25149e-45
6.35151e-48
-1.11964e-64
6.81056e-64
3.3032e-65
-4.55017e-51
-1.55499e-53
-1.73714e-56
-1.61961e-59
-1.62297e-62
1.79048e-60
1.71872e-09
0.101775
0.964661
1
1
1
1
1
1
1
1
1
1
1
1
1
1
1
1
1
1
1
1
1
1
1
1
1
1
1
1
1
1
0.998465
0.404144
0.000414824
7.04599e-24
1.77536e-24
4.36644e-27
3.51545e-34
9.47186e-32
4.74499e-24
6.68857e-17
1.21378e-10
0.000126538
0.154774
0.986693
1
1
1
1
1
1
1
1
1
1
1
1
1
1
1
1
1
1
1
1
1
1
0.999999
0.997448
0.622442
0.0079464
7.66774e-23
1.20028e-19
5.34797e-18
1.42156e-18
8.59844e-17
5.17801e-15
2.85257e-13
1.49949e-11
6.09677e-10
3.11943e-08
2.02935e-06
0.000167211
0.0107999
0.169552
0.517489
0.706631
0.69763
0.513518
0.251228
0.0720966
0.0592857
0.172401
0.547285
0.941916
1
1
1
1
1
1
1
1
1
1
1
1
1
1
1
1
1
1
1
1
1
1
1
1
1
1
0.999999
0.999991
0.999914
0.999423
0.996782
0.97951
0.861162
0.473566
0.132455
0.00662615
0.000252302
3.06943e-05
3.78276e-05
4.31631e-05
4.75329e-05
6.65181e-05
0.000123692
0.000273954
0.000692837
0.00195475
0.0059092
0.0181446
0.0526156
0.135391
0.288108
0.459254
0.63358
0.792183
0.900538
0.976139
1
1
1
1
1
1
1
1
1
1
1
1
1
1
1
1
1
1
1
1
1
1
1
0.999999
0.999986
0.999825
0.998222
0.983697
0.877481
0.575695
0.287459
0.132118
0.0599742
0.0264209
0.0141678
0.0111105
0.010828
0.0130751
0.019339
0.03448
0.0727431
0.173813
0.390589
0.656451
0.908537
0
0
0
4.64185e-250
1.5816e-269
0.0353124
0.857775
1
1
1
1
1
1
1
1
1
1
1
1
1
1
1
1
1
1
1
1
1
1
1
1
1
1
1
0.875283
0.104417
1.96402e-18
2.90164e-21
4.01392e-39
-6.33446e-28
-3.46551e-30
-6.65445e-33
-1.11148e-35
-1.57081e-38
-1.9795e-41
-2.18057e-44
-2.04209e-47
-1.67919e-50
-1.19189e-53
-7.9544e-57
-5.11972e-60
1.08976e-41
1.24465e-20
0.000502879
0.565841
1
1
1
1
1
1
1
1
1
1
1
1
1
1
1
1
1
1
1
1
1
1
1
1
1
1
1
1
1
0.999813
0.649745
0.00720639
4.18509e-19
4.71755e-35
4.72765e-35
4.9818e-29
3.36392e-31
6.82882e-36
4.79518e-28
1.12026e-20
6.54843e-14
4.70288e-08
0.00422438
0.645684
1
1
1
1
1
1
1
1
1
1
1
1
1
1
1
1
1
1
1
1
1
1
0.999914
0.922872
0.0762446
1.38833e-17
8.16611e-37
6.09783e-26
1.28273e-23
1.68702e-21
1.66868e-19
1.41044e-17
7.49649e-16
3.04947e-14
1.15445e-12
4.45305e-11
2.39e-09
1.31054e-07
8.85044e-06
0.000331056
0.00155301
0.00217506
0.000173299
0.000115686
0.000232813
0.000383882
0.000766751
0.00313244
0.0363785
0.436061
0.971468
1
1
1
1
1
1
1
1
1
1
1
1
1
1
1
1
1
1
1
1
1
1
1
1
0.999999
0.999988
0.999833
0.998317
0.986394
0.909975
0.622643
0.250834
0.0439288
0.000172112
8.40778e-07
8.73904e-07
9.45365e-07
1.22979e-06
1.57296e-06
1.74899e-06
2.43975e-06
4.88152e-06
1.09062e-05
2.73984e-05
8.00835e-05
0.000235586
0.000668032
0.00179755
0.00458106
0.0115295
0.0286926
0.069774
0.167588
0.352355
0.585977
0.819564
0.959321
1
1
1
1
1
1
1
1
1
1
1
1
1
1
1
1
1
1
1
1
0.999999
0.999985
0.999767
0.997054
0.957956
0.672122
0.269665
0.0746633
0.00483596
0.000330458
0.000358302
0.000363388
0.000374539
0.000412304
0.000424877
0.000505064
0.000723029
0.00121687
0.00239256
0.00584584
0.020062
0.0778857
0.366584
0
0
0
0
0
-2.76152e-39
0.249542
0.994299
1
1
1
1
1
1
1
1
1
1
1
1
1
1
1
1
1
1
1
1
1
1
1
1
1
0.948481
0.172246
-3.66228e-20
5.51075e-37
1.28029e-40
-1.91342e-28
-6.16359e-30
-3.14011e-32
-7.7551e-35
-1.37458e-37
-1.94237e-40
-2.24009e-43
-2.11147e-46
-1.69951e-49
-1.22076e-52
-7.60087e-56
-4.37078e-59
-2.41635e-62
-1.63192e-65
1.51498e-30
1.11086e-09
0.103374
0.971863
1
1
1
1
1
1
1
1
1
1
1
1
1
1
1
1
1
1
0.99999
0.877295
0.47167
0.326353
0.460196
0.78147
0.999192
1
1
0.999841
0.669622
0.0411624
-2.97385e-22
1.67955e-32
1.68042e-32
1.26644e-33
7.73562e-45
1.23174e-33
7.52022e-36
6.14663e-32
1.60425e-24
1.53102e-17
2.84397e-11
2.8959e-05
0.113295
0.968042
1
1
1
1
1
1
1
1
1
1
1
1
1
1
1
1
1
1
1
1
0.999999
0.997066
0.387245
0.00092334
1.35146e-19
9.22197e-22
1.66907e-26
1.67585e-26
2.25084e-24
2.86433e-22
2.01367e-20
1.17022e-18
5.29535e-17
1.37722e-15
3.13983e-14
1.02144e-12
1.35122e-11
1.28478e-10
4.53905e-10
2.34387e-09
2.12501e-08
1.5118e-07
7.01786e-07
2.03827e-06
4.79552e-06
1.16296e-05
5.36004e-05
0.000720985
0.0253455
0.561514
1
1
1
1
1
1
1
1
1
1
1
1
1
1
1
1
1
1
1
1
1
1
1
0.999999
0.99999
0.999813
0.996909
0.955151
0.686136
0.318099
0.0909129
0.00152011
3.05555e-08
2.79719e-08
2.67206e-08
2.93239e-08
3.3686e-08
4.15979e-08
5.69457e-08
7.10248e-08
1.04302e-07
2.21035e-07
5.46285e-07
1.46185e-06
4.38238e-06
1.27375e-05
3.73199e-05
0.000102546
0.000253243
0.000582619
0.0012787
0.0027606
0.00633498
0.0171062
0.0553814
0.202589
0.516663
0.841719
0.992105
1
1
1
1
1
1
1
1
1
1
1
1
1
1
1
1
1
1
0.999989
0.999792
0.996486
0.933018
0.486743
0.116998
0.00290168
1.21766e-05
1.3739e-05
1.37801e-05
1.52759e-05
1.51271e-05
1.4826e-05
1.83577e-05
1.90944e-05
2.29065e-05
3.35668e-05
5.54783e-05
0.000102157
0.000242314
0.00081723
0.00253844
0.0172446
0
0
0
0
0
4.90282e-121
5.49197e-06
0.571698
0.999996
1
1
1
1
1
1
1
1
1
1
1
1
1
1
1
1
1
1
1
1
1
1
1
0.997009
0.329939
3.26442e-05
1.89671e-22
1.01045e-39
-6.21795e-60
-3.81781e-30
-4.70583e-32
-2.18303e-34
-5.72005e-37
-9.74387e-40
-1.27909e-42
-1.31982e-45
-1.08181e-48
-7.58643e-52
-4.73794e-55
-2.54193e-58
-1.24774e-61
-6.86966e-65
1.09754e-68
-1.5049e-87
0
9.86715e-05
0.598558
0.999939
1
1
1
1
1
1
1
1
1
1
1
1
1
1
1
1
0.99995
0.725369
0.0624605
0.00395395
0.000741929
0.000835076
6.20666e-05
0.163251
0.458414
0.537337
0.30209
0.0189286
9.79016e-19
1.35799e-36
5.35672e-32
1.37119e-32
8.4862e-35
2.44978e-46
-6.74194e-59
6.99166e-39
4.21266e-36
1.63568e-28
2.56721e-21
1.27132e-14
9.11919e-09
0.00141831
0.536534
0.999685
1
1
1
1
1
1
1
1
1
1
1
1
1
1
1
1
1
1
1
0.999981
0.874435
0.0253944
5.84598e-18
3.54586e-21
2.01607e-22
3.64255e-24
2.57125e-29
2.16951e-27
1.91797e-25
1.47206e-23
7.85566e-22
2.54674e-20
4.18996e-19
3.95934e-18
2.51387e-17
2.04684e-16
5.44078e-15
2.12689e-13
6.55075e-12
1.26298e-10
1.12175e-09
7.08679e-09
2.92983e-08
8.71929e-08
2.73369e-07
1.25999e-06
1.4463e-05
0.000659191
0.050803
0.822926
1
1
1
1
1
1
1
1
1
1
1
1
1
1
1
1
1
1
1
1
1
1
0.999994
0.999878
0.997194
0.923517
0.460854
0.11933
0.00764406
1.27058e-09
1.16291e-09
1.18018e-09
1.23334e-09
1.33958e-09
1.53247e-09
1.78454e-09
2.22264e-09
3.16327e-09
4.18746e-09
6.32437e-09
1.36224e-08
3.44232e-08
9.11293e-08
2.62419e-07
6.57174e-07
1.69109e-06
4.56677e-06
1.13043e-05
2.64987e-05
5.75972e-05
0.000120939
0.000267221
0.000669147
0.00199279
0.0074655
0.038904
0.237697
0.677222
0.963947
1
1
1
1
1
1
1
1
1
1
1
1
1
1
1
1
0.999994
0.999868
0.99711
0.921397
0.39165
0.0449621
5.66491e-07
5.33013e-07
3.91045e-07
5.56876e-07
5.11986e-07
6.26556e-07
6.80518e-07
5.71925e-07
8.07949e-07
8.5614e-07
1.00649e-06
1.44604e-06
2.26709e-06
3.77924e-06
9.37257e-06
3.17571e-05
7.15867e-05
0.000566184
0
0
0
0
0
0
-4.99738e-185
0.0375711
0.836635
1
1
1
1
1
1
1
1
1
1
1
1
1
1
1
1
1
1
1
1
1
1
1
0.551971
0.000859246
1.01156e-22
1.18473e-24
3.36685e-42
-6.11044e-62
-3.84835e-32
-3.0532e-34
-1.2703e-36
-3.17147e-39
-4.90292e-42
-5.81139e-45
-5.35911e-48
-3.85283e-51
-2.34334e-54
-1.25088e-57
-5.69949e-61
-2.59936e-64
-2.92363e-67
-1.28662e-69
-7.64265e-72
-1.01086e-67
4.68612e-10
0.12778
0.98247
1
1
1
1
1
1
1
1
1
1
1
1
1
1
1
1
0.776592
0.0404624
4.75352e-20
2.76735e-20
1.19767e-22
-6.46015e-39
-1.91358e-41
-3.85839e-47
0.00110426
0.00424993
0.000764389
1.03874e-22
3.70865e-35
1.38529e-36
1.63867e-32
1.89189e-33
2.55345e-36
2.19846e-51
-4.53039e-44
-1.07334e-58
3.5987e-40
1.89416e-32
3.26015e-25
2.52324e-18
4.20851e-12
2.71368e-06
0.0536887
0.890496
1
1
1
1
1
1
1
1
1
1
1
1
1
1
1
1
1
1
1
0.997819
0.312645
0.000263756
1.80788e-19
3.97227e-21
1.17828e-24
3.21374e-25
1.32799e-29
1.19708e-30
7.69571e-29
3.48786e-27
8.30348e-26
1.18985e-24
1.38393e-23
2.36405e-22
7.20676e-21
3.60859e-19
2.53897e-17
1.5295e-15
4.80578e-14
9.72372e-13
1.1732e-11
8.76121e-11
4.49522e-10
1.60161e-09
5.82663e-09
3.0915e-08
3.32203e-07
1.25585e-05
0.00208412
0.215616
0.975328
1
1
1
1
1
1
1
1
1
1
1
1
1
1
1
1
1
1
1
1
0.999996
0.999936
0.998498
0.940239
0.363378
0.0365543
5.59979e-11
6.79503e-11
6.79455e-11
9.30233e-11
1.37702e-10
1.82466e-10
2.09609e-10
2.20321e-10
2.27722e-10
2.48142e-10
3.24168e-10
4.23477e-10
5.95039e-10
1.1793e-09
2.8079e-09
7.11229e-09
2.09846e-08
4.9099e-08
1.0173e-07
2.24175e-07
4.84831e-07
1.10871e-06
2.46509e-06
5.36584e-06
1.20655e-05
3.02546e-05
8.97967e-05
0.000316873
0.00145708
0.00929054
0.088923
0.534189
0.942793
1
1
1
1
1
1
1
1
1
1
1
1
1
1
0.999997
0.999933
0.998321
0.94112
0.36711
0.0211336
1.94357e-08
1.87142e-08
2.36982e-08
1.90976e-08
2.11875e-08
2.17026e-08
2.30207e-08
2.83381e-08
2.55396e-08
3.02069e-08
3.63421e-08
4.47148e-08
6.6407e-08
1.02584e-07
1.57984e-07
3.76958e-07
1.17398e-06
1.44576e-06
1.4798e-05
0
0
0
0
0
0
-9.00639e-185
-1.7996e-64
0.178716
0.964236
1
1
1
1
1
1
1
1
1
1
1
1
1
1
1
1
1
1
1
1
1
0.749101
0.0189019
-1.00368e-21
-1.11451e-25
-2.44893e-43
-2.53234e-35
-2.96556e-37
-2.75481e-34
-1.71787e-36
-6.19857e-39
-1.38303e-41
-1.90551e-44
-2.03112e-47
-1.67138e-50
-1.04611e-53
-5.42577e-57
-2.4358e-60
-9.87046e-64
-7.4842e-67
-2.57613e-69
-1.35354e-71
-7.47441e-74
3.18621e-49
2.3044e-27
8.40159e-07
0.630291
0.999812
1
1
1
1
1
1
1
1
1
1
1
1
1
1
0.911407
0.102104
3.82044e-20
-9.06876e-23
9.71373e-40
1.30467e-39
-2.28027e-35
-1.09959e-36
-1.83801e-38
1.08062e-20
1.33097e-19
9.93113e-21
1.49919e-39
-3.02399e-35
-2.58917e-36
6.37921e-35
1.92385e-37
2.45803e-37
2.14675e-38
-8.17611e-58
-6.77761e-48
4.41572e-44
9.81199e-37
2.54436e-29
2.66223e-22
9.00667e-16
6.84097e-10
0.000506472
0.292723
0.983188
1
1
1
1
1
1
1
1
1
1
1
1
1
1
1
1
1
0.999991
0.874925
0.0199846
5.44349e-21
1.31174e-21
4.99426e-22
7.46454e-24
7.15233e-28
2.31436e-29
4.73827e-33
4.75147e-33
1.29651e-31
3.76572e-30
1.4008e-28
7.20872e-27
5.62533e-25
5.34982e-23
4.45032e-21
3.19311e-19
1.62943e-17
6.26459e-16
1.25388e-14
1.47505e-13
1.16345e-12
6.21791e-12
2.49965e-11
1.02348e-10
6.25005e-10
7.48776e-09
2.44419e-07
3.32463e-05
0.0100476
0.614613
0.999182
1
1
1
1
1
1
1
1
1
1
0.999999
0.999999
0.999999
0.999999
0.999999
1
1
0.999999
0.999996
0.999961
0.999313
0.974715
0.432472
0.0174325
5.59678e-11
5.59833e-11
6.74655e-11
9.15359e-11
1.04582e-10
1.11242e-10
1.13164e-10
1.03555e-10
8.80054e-11
7.18987e-11
6.33504e-11
7.12015e-11
9.31567e-11
1.29835e-10
2.18722e-10
3.90404e-10
7.53001e-10
1.92248e-09
4.16549e-09
7.66295e-09
1.38751e-08
2.44756e-08
4.96303e-08
1.04259e-07
2.20307e-07
4.8693e-07
1.25097e-06
3.88066e-06
1.37091e-05
6.2778e-05
0.000393138
0.00328025
0.0444704
0.46782
0.944735
1
1
1
1
1
1
1
1
1
1
1
1
0.999999
0.999972
0.999248
0.971311
0.438035
0.0184946
1.00024e-09
8.48572e-10
7.80419e-10
1.2872e-09
1.22472e-09
1.13024e-09
1.0805e-09
1.10082e-09
1.36037e-09
1.2412e-09
1.37572e-09
1.6726e-09
2.15204e-09
3.46826e-09
5.33101e-09
7.61306e-09
1.65188e-08
4.38544e-08
2.8067e-08
2.51363e-07
0
0
0
0
0
0
0
3.92545e-259
-7.59854e-107
0.376665
0.999361
1
1
1
1
1
1
1
1
1
1
1
1
1
1
1
1
1
1
1
0.856445
0.0800226
3.41784e-21
-1.60954e-24
-3.34499e-27
-2.33328e-30
-1.29544e-33
-8.54056e-37
-1.58867e-36
-8.21844e-39
-2.50947e-41
-4.90027e-44
-6.03596e-47
-5.77048e-50
-4.18045e-53
-2.23533e-56
-9.72049e-60
-3.76717e-63
-2.1219e-66
-5.3204e-69
-2.50533e-71
-1.23843e-73
-6.21424e-76
1.1099e-91
4.36872e-66
2.96974e-17
0.137615
0.98147
1
1
1
1
1
1
1
1
1
1
1
1
1
0.994801
0.295405
8.87922e-05
-2.47057e-24
-1.79157e-24
-7.21223e-27
-2.31953e-29
-6.7751e-32
-1.64745e-34
-3.02576e-37
-3.46916e-40
-2.0314e-52
-7.96096e-49
-7.0785e-34
-5.4863e-35
-2.71882e-36
-7.3246e-54
-3.17848e-40
-1.94504e-56
1.20145e-39
3.9024e-41
5.13044e-48
4.08106e-48
7.54706e-41
1.85654e-33
1.69689e-26
8.12975e-20
1.25731e-13
3.16258e-08
0.00223577
0.569657
0.996796
1
1
1
1
1
1
1
1
1
1
1
1
1
1
1
1
0.998388
0.331902
0.000456958
-5.26611e-24
-1.10723e-40
1.40694e-40
3.57965e-25
2.98749e-27
7.46408e-30
8.88369e-32
3.16382e-35
3.17094e-35
3.4316e-33
3.99074e-31
4.28619e-29
4.16747e-27
3.7686e-25
3.8966e-23
3.06927e-21
1.58545e-19
5.95218e-18
1.44314e-16
1.77002e-15
1.60742e-14
9.69584e-14
4.14744e-13
1.99331e-12
1.16134e-11
1.49681e-10
5.27674e-09
6.09872e-07
0.00022122
0.0802897
0.897071
1
1
1
1
1
1
1
1
0.999999
0.999996
0.999988
0.999983
0.999987
0.999991
0.999994
0.999996
0.999996
0.999992
0.999962
0.999583
0.990402
0.626265
0.0405265
5.46421e-11
5.49831e-11
7.84514e-11
9.44459e-11
9.77527e-11
9.44229e-11
8.28846e-11
6.80787e-11
4.69429e-11
2.7897e-11
1.64199e-11
1.401e-11
1.70319e-11
3.17746e-11
6.55352e-11
1.16517e-10
1.6524e-10
2.05033e-10
2.89806e-10
4.37141e-10
6.49802e-10
9.62344e-10
1.37265e-09
2.3264e-09
4.53487e-09
9.61807e-09
2.1685e-08
5.71893e-08
1.80911e-07
6.18572e-07
2.83461e-06
1.76282e-05
0.000142213
0.00169048
0.0334491
0.484153
0.968192
1
1
1
1
1
1
1
1
1
1
1
0.99999
0.999723
0.990154
0.602718
0.039433
1.26873e-10
1.3744e-10
2.48239e-10
2.07075e-10
2.26721e-10
2.13824e-10
1.60487e-10
1.23695e-10
1.03798e-10
1.14092e-10
9.90081e-11
9.97254e-11
1.12683e-10
1.39924e-10
2.23034e-10
3.39177e-10
4.53193e-10
9.11502e-10
2.18559e-09
8.37289e-10
4.73215e-09
0
0
0
0
0
0
0
2.10197e-258
-8.71457e-106
3.07169e-07
0.571886
0.999825
1
1
1
1
1
1
1
1
1
1
1
1
1
1
1
1
1
0.877
0.129711
6.14821e-19
8.697e-37
-3.15582e-26
-3.67356e-29
-2.55576e-32
-1.86983e-35
-1.88157e-38
-7.56374e-39
-3.27921e-41
-8.4946e-44
-1.45744e-46
-1.60927e-49
-1.36091e-52
-8.48807e-56
-3.81235e-59
-1.42276e-62
-6.81922e-66
-1.23934e-68
-4.9358e-71
-2.21545e-73
-1.00482e-75
-4.60814e-78
8.62293e-73
9.5311e-48
1.59318e-47
9.21244e-07
0.601936
0.999572
1
1
1
1
1
1
1
1
1
1
1
1
0.602914
0.00297065
6.15006e-24
-5.40578e-25
-4.15639e-26
-2.34767e-28
-9.60505e-31
-3.15395e-33
-8.25187e-36
-1.64646e-38
-2.23212e-41
-1.51654e-44
-3.64369e-33
-4.29592e-34
-2.39842e-35
-9.65466e-37
-2.64558e-38
-6.51057e-40
-1.12308e-41
6.45296e-59
5.18626e-43
1.01506e-44
3.44381e-51
6.25072e-45
4.03773e-38
5.90274e-31
3.04672e-24
4.52253e-18
2.4539e-12
4.53893e-07
0.0302952
0.700581
0.99674
1
1
1
1
1
1
1
1
1
1
1
1
1
1
0.999995
0.893604
0.0265581
2.60386e-21
-9.38486e-24
-5.49587e-25
-1.013e-26
1.92051e-43
7.30682e-29
3.60978e-31
1.29897e-32
2.9424e-34
3.3981e-37
1.36067e-35
1.7856e-33
2.40649e-31
2.63161e-29
2.72978e-27
2.63148e-25
2.63311e-23
1.52758e-21
5.54255e-20
1.53697e-18
2.31307e-17
2.25999e-16
1.81421e-15
1.03953e-14
6.39579e-14
5.15262e-13
5.63242e-12
1.6164e-10
1.59817e-08
4.04949e-06
0.0036635
0.404597
0.991084
1
1
1
1
1
1
0.999996
0.999926
0.998851
0.987742
0.963834
0.978737
0.999396
0.999908
0.999941
0.999951
0.999907
0.999546
0.994147
0.815103
0.117225
5.01434e-11
5.01703e-11
7.83903e-11
9.09393e-11
9.22963e-11
8.40415e-11
6.66215e-11
4.88739e-11
3.06435e-11
1.29313e-11
4.65288e-12
3.19768e-12
2.87123e-12
5.25269e-12
1.95702e-11
5.78146e-11
1.08598e-10
1.48126e-10
1.63503e-10
1.66351e-10
1.55939e-10
1.39519e-10
1.2907e-10
1.27461e-10
1.59529e-10
2.55278e-10
4.91444e-10
1.06642e-09
2.79281e-09
9.20004e-09
3.27009e-08
1.53505e-07
9.23376e-07
6.57796e-06
7.60162e-05
0.00133643
0.0385392
0.58338
0.992155
1
1
1
1
1
1
1
1
1
0.999996
0.999906
0.997134
0.830338
0.106518
1.14335e-10
1.14335e-10
1.57952e-10
1.61128e-10
1.10224e-10
1.05969e-10
8.27106e-11
5.22201e-11
3.49099e-11
2.43839e-11
2.34881e-11
1.89269e-11