/*--------------------------------*- C++ -*----------------------------------*\
| =========                 |                                                 |
| \\      /  F ield         | OpenFOAM: The Open Source CFD Toolbox           |
|  \\    /   O peration     | Version:  v1912                                 |
|   \\  /    A nd           | Website:  www.openfoam.com                      |
|    \\/     M anipulation  |                                                 |
\*---------------------------------------------------------------------------*/
FoamFile
{
    version     2.0;
    format      ascii;
    class       surfaceScalarField;
    location    "100";
    object      phi;
}
// * * * * * * * * * * * * * * * * * * * * * * * * * * * * * * * * * * * * * //

dimensions      [0 3 -1 0 0 0 0];
oriented        oriented;


internalField   nonuniform List<scalar> 
28285
(
-0.000117392
7.52639e-05
-0.000195509
7.81168e-05
-0.000268153
7.26436e-05
-0.000332917
6.47644e-05
-0.000387966
5.50495e-05
-0.000432928
4.49611e-05
-0.000469281
3.63538e-05
-0.00049754
2.82582e-05
-0.000517429
1.98893e-05
-0.000529942
1.25128e-05
-0.000537262
7.32032e-06
-0.000539038
1.77568e-06
-0.000535076
-3.96164e-06
-0.000528318
-6.7579e-06
-0.00051918
-9.1378e-06
-0.0005116
-7.58041e-06
-0.000509032
-2.56777e-06
-0.000510485
1.45239e-06
-0.000518662
8.17728e-06
-0.000528679
1.00172e-05
-0.00054004
1.13612e-05
-0.000555549
1.55086e-05
-0.000580232
2.46831e-05
-0.000616473
3.62412e-05
-0.000665769
4.92961e-05
-0.000716965
5.11954e-05
-0.000756412
3.9447e-05
-0.000778063
2.16515e-05
-0.000788412
1.03488e-05
-0.000794277
5.86523e-06
-0.000805157
1.08802e-05
-0.000820645
1.54878e-05
-0.000833456
1.28103e-05
-0.000840263
6.80769e-06
-0.000843809
3.5453e-06
-0.000844177
3.68875e-07
-0.000844769
5.91699e-07
-0.000851582
6.8127e-06
-0.000859519
7.93761e-06
-0.000865396
5.87641e-06
-0.000866163
7.67627e-07
-0.000854016
-1.21477e-05
-0.000791941
-6.20748e-05
-0.000122839
-0.000669102
-0.000116816
0.000150899
-0.000194669
0.00015597
-0.000267401
0.000145376
-0.00033229
0.000129653
-0.000387537
0.000110296
-0.000432708
9.01315e-05
-0.000469261
7.29072e-05
-0.000497695
5.66925e-05
-0.000517701
3.98956e-05
-0.000530263
2.50744e-05
-0.000537662
1.47192e-05
-0.000539029
3.14247e-06
-0.000535393
-7.59706e-06
-0.000528042
-1.41095e-05
-0.00051852
-1.86596e-05
-0.000510579
-1.55213e-05
-0.000507371
-5.7756e-06
-0.000508861
2.94214e-06
-0.000516448
1.57643e-05
-0.000525856
1.94255e-05
-0.000536743
2.22482e-05
-0.000552032
3.07969e-05
-0.000576292
4.89439e-05
-0.000612221
7.21694e-05
-0.000660444
9.75198e-05
-0.000710826
0.000101577
-0.000749731
7.83519e-05
-0.000771427
4.33478e-05
-0.00078177
2.06919e-05
-0.000788026
1.21205e-05
-0.000798785
2.16401e-05
-0.000813744
3.04463e-05
-0.000825941
2.50075e-05
-0.000831892
1.27585e-05
-0.000834853
6.50688e-06
-0.000834889
4.04705e-07
-0.000836156
1.85808e-06
-0.000843848
1.45049e-05
-0.000851479
1.55688e-05
-0.000855091
9.48794e-06
-0.000849938
-4.38521e-06
-0.000834303
-2.77823e-05
-0.000772051
-0.000124327
-0.000239634
-0.000655256
-0.000118164
0.000226524
-0.000195472
0.000233278
-0.000268065
0.000217969
-0.000332761
0.000194349
-0.000387855
0.000165391
-0.000432922
0.000135198
-0.000469445
0.00010943
-0.000497904
8.51516e-05
-0.000518012
6.00034e-05
-0.000530768
3.78302e-05
-0.000538425
2.23763e-05
-0.000539951
4.66892e-06
-0.000536911
-1.06368e-05
-0.000529831
-2.11896e-05
-0.000520887
-2.76039e-05
-0.000513443
-2.29654e-05
-0.000510429
-8.79006e-06
-0.000512542
5.05548e-06
-0.00052024
2.34624e-05
-0.000530203
2.9389e-05
-0.000541501
3.35454e-05
-0.000557007
4.6303e-05
-0.000581353
7.32897e-05
-0.000617539
0.000108356
-0.0006664
0.000146381
-0.000717719
0.000152896
-0.000756819
0.000117452
-0.000778631
6.51595e-05
-0.000788837
3.08983e-05
-0.000795366
1.8649e-05
-0.000806353
3.26275e-05
-0.000821588
4.56809e-05
-0.000834429
3.7849e-05
-0.00084114
1.94694e-05
-0.000844332
9.69902e-06
-0.000844392
4.64238e-07
-0.000845433
2.89984e-06
-0.000852079
2.11508e-05
-0.00086001
2.34989e-05
-0.00086601
1.54887e-05
-0.000866376
-4.01903e-06
-0.00085282
-4.13382e-05
-0.000784821
-0.000192327
-0.000359785
-0.00066467
-0.000117624
0.00030231
-0.000194637
0.000310291
-0.000267194
0.000290525
-0.000331834
0.000258988
-0.000386951
0.000220508
-0.000432055
0.000180303
-0.000468605
0.00014598
-0.000497049
0.000113595
-0.000517071
8.0025e-05
-0.000529662
5.04217e-05
-0.000536973
2.96869e-05
-0.000538292
5.98738e-06
-0.000534968
-1.39601e-05
-0.000527439
-2.87189e-05
-0.000518067
-3.69755e-05
-0.00051014
-3.08929e-05
-0.000506604
-1.23256e-05
-0.000508445
6.89631e-06
-0.000515528
3.05448e-05
-0.000525046
3.89076e-05
-0.000536005
4.45044e-05
-0.000551502
6.18e-05
-0.000575863
9.76506e-05
-0.000611841
0.000144333
-0.000660004
0.000194544
-0.000710674
0.000203566
-0.000749426
0.000156204
-0.000771309
8.70429e-05
-0.000781722
4.13114e-05
-0.000788281
2.52076e-05
-0.000798962
4.33087e-05
-0.000813805
6.05236e-05
-0.000826178
5.02221e-05
-0.000832732
2.60234e-05
-0.000835688
1.26555e-05
-0.000835895
6.7092e-07
-0.000837448
4.45265e-06
-0.000844288
2.79906e-05
-0.000851823
3.10345e-05
-0.00085531
1.89754e-05
-0.000852102
-7.22654e-06
-0.000839201
-5.424e-05
-0.000776263
-0.000255264
-0.000472457
-0.000663591
-0.000118538
0.000378189
-0.00019533
0.000387082
-0.000267898
0.000363094
-0.000332518
0.000323608
-0.000387634
0.000275624
-0.000432751
0.000225421
-0.000469352
0.000182581
-0.000497899
0.000142143
-0.000518107
0.000100233
-0.000530978
6.32931e-05
-0.000538586
3.72945e-05
-0.000540267
7.66919e-06
-0.000537244
-1.69839e-05
-0.000530127
-3.58354e-05
-0.00052122
-4.58823e-05
-0.000513786
-3.83267e-05
-0.000510688
-1.54245e-05
-0.000512911
9.11978e-06
-0.000520307
3.79411e-05
-0.000530256
4.88565e-05
-0.000541501
5.57493e-05
-0.000557032
7.7331e-05
-0.000581353
0.000121972
-0.000617519
0.000180499
-0.000666354
0.000243379
-0.000717796
0.000255008
-0.000756782
0.00019519
-0.000778545
0.000108806
-0.000788621
5.13876e-05
-0.000795192
3.1778e-05
-0.000806105
5.42219e-05
-0.000821211
7.56293e-05
-0.000833919
6.29302e-05
-0.00084077
3.28751e-05
-0.000843703
1.55886e-05
-0.000843851
8.18587e-07
-0.000845214
5.81576e-06
-0.000851772
3.45484e-05
-0.00085986
3.91221e-05
-0.000865458
2.45733e-05
-0.000865401
-7.28354e-06
-0.000851405
-6.82357e-05
-0.000783235
-0.000323434
-0.000588346
-0.000667346
-0.000118506
0.00045408
-0.00019511
0.000463687
-0.000267584
0.000435568
-0.000332104
0.000388128
-0.000387173
0.000330693
-0.000432257
0.000270505
-0.000468811
0.000219134
-0.00049725
0.000170582
-0.000517254
0.000120237
-0.000529831
7.587e-05
-0.00053702
4.44841e-05
-0.000538484
9.13266e-06
-0.000535162
-2.03053e-05
-0.000527732
-4.32658e-05
-0.000518476
-5.51383e-05
-0.000510648
-4.61541e-05
-0.00050719
-1.88833e-05
-0.000509163
1.10932e-05
-0.000516231
4.5009e-05
-0.000525918
5.85436e-05
-0.000537089
6.69205e-05
-0.000552773
9.30149e-05
-0.000577276
0.000146475
-0.000613402
0.000216624
-0.000661657
0.000291635
-0.000712344
0.000305696
-0.000751064
0.000233909
-0.00077321
0.000130952
-0.000783799
6.19766e-05
-0.000790563
3.85419e-05
-0.000801361
6.50202e-05
-0.000816254
9.05224e-05
-0.000828658
7.53334e-05
-0.000835401
3.96183e-05
-0.000838347
1.85349e-05
-0.000838597
1.06799e-06
-0.000840049
7.26862e-06
-0.000846458
4.09567e-05
-0.000853924
4.65886e-05
-0.000857936
2.85847e-05
-0.000856468
-8.7517e-06
-0.000844364
-8.03393e-05
-0.00078053
-0.000387268
-0.000697497
-0.000671378
-0.00011891
0.000530077
-0.00019542
0.000540197
-0.000267939
0.000508087
-0.000332491
0.000452679
-0.000387593
0.000385796
-0.000432708
0.000315619
-0.000469314
0.000255741
-0.00049787
0.000199137
-0.000518083
0.00014045
-0.00053096
8.87471e-05
-0.000538471
5.19946e-05
-0.000540213
1.08746e-05
-0.000537103
-2.3415e-05
-0.000529961
-5.04075e-05
-0.000520988
-6.41119e-05
-0.000513443
-5.36983e-05
-0.000510197
-2.213e-05
-0.000512211
1.31078e-05
-0.000519305
5.21028e-05
-0.000529059
6.82981e-05
-0.000540223
7.8084e-05
-0.000555815
0.000108606
-0.000580103
0.000170763
-0.000616013
0.000252534
-0.000664444
0.000340066
-0.000715871
0.000357122
-0.000755119
0.000273157
-0.000777176
0.000153009
-0.000787429
7.22296e-05
-0.000793923
4.5036e-05
-0.00080456
7.56571e-05
-0.000819544
0.000105506
-0.000832303
8.80933e-05
-0.000839361
4.66763e-05
-0.000842379
2.1553e-05
-0.0008427
1.38895e-06
-0.000844183
8.75141e-06
-0.000850592
4.73657e-05
-0.000858383
5.43793e-05
-0.000863366
3.35675e-05
-0.000863097
-9.02008e-06
-0.000849988
-9.34485e-05
-0.000783643
-0.000453614
-0.000808613
-0.000672527
-0.000119189
0.000606094
-0.000195608
0.000616616
-0.000268043
0.000580522
-0.000332514
0.00051715
-0.000387581
0.000440863
-0.000432675
0.000360713
-0.000469248
0.000292314
-0.00049772
0.000227609
-0.000517779
0.000160509
-0.000530432
0.0001014
-0.000537629
5.91914e-05
-0.00053923
1.24758e-05
-0.000535957
-2.66886e-05
-0.000528655
-5.77098e-05
-0.000519503
-7.32633e-05
-0.000511802
-6.13994e-05
-0.000508531
-2.54014e-05
-0.000510677
1.52543e-05
-0.000517826
5.92517e-05
-0.000527578
7.80504e-05
-0.000538856
8.93617e-05
-0.0005547
0.00012445
-0.000579362
0.000195425
-0.000615552
0.000288724
-0.000663797
0.000388312
-0.000714505
0.00040783
-0.000753164
0.000311816
-0.000775309
0.000175154
-0.000785941
8.28618e-05
-0.000792795
5.18906e-05
-0.00080363
8.64916e-05
-0.00081847
0.000120346
-0.000830825
0.000100448
-0.000837689
5.35409e-05
-0.000840721
2.4585e-05
-0.000841053
1.72137e-06
-0.000842445
1.01426e-05
-0.000848668
5.35887e-05
-0.000856203
6.19145e-05
-0.000860761
3.81253e-05
-0.000860367
-9.41404e-06
-0.000848089
-0.000105726
-0.00078382
-0.000517883
-0.000913986
-0.000678447
-0.000119447
0.000682149
-0.000195785
0.000692955
-0.000268247
0.000652984
-0.00033273
0.000581633
-0.000387804
0.000495937
-0.000432899
0.000405808
-0.000469486
0.000328902
-0.00049802
0.000256143
-0.000518203
0.000180692
-0.000531039
0.000114236
-0.000538445
6.65976e-05
-0.000540173
1.42044e-05
-0.000536956
-2.99058e-05
-0.000529755
-6.49108e-05
-0.000520739
-8.22798e-05
-0.000513157
-6.89814e-05
-0.000509841
-2.8717e-05
-0.000511706
1.71187e-05
-0.000518645
6.61916e-05
-0.000528351
8.77564e-05
-0.000539568
0.000100579
-0.000555314
0.000140196
-0.000579799
0.000219911
-0.000615856
0.000324781
-0.000664175
0.000436631
-0.000715338
0.000458992
-0.000754481
0.000350959
-0.000776714
0.000197386
-0.00078714
9.32882e-05
-0.000793676
5.84264e-05
-0.000804296
9.71117e-05
-0.000819279
0.000135329
-0.000832014
0.000113182
-0.000839122
6.06495e-05
-0.000842153
2.76153e-05
-0.000842534
2.10303e-06
-0.000844006
1.16146e-05
-0.000850208
5.97908e-05
-0.000857757
6.94626e-05
-0.000862439
4.28079e-05
-0.000862323
-9.52977e-06
-0.000849912
-0.000118137
-0.000785185
-0.00058261
-0.00102044
-0.00067873
-0.000119771
0.000758252
-0.000196082
0.000769266
-0.00026849
0.000725392
-0.000332929
0.000646071
-0.000387996
0.000551004
-0.000433099
0.000450911
-0.000469681
0.000365483
-0.000498173
0.000284635
-0.000518269
0.000200788
-0.00053097
0.000126937
-0.000538197
7.38246e-05
-0.000539945
1.59525e-05
-0.000536776
-3.30752e-05
-0.000529581
-7.2106e-05
-0.000520459
-9.14016e-05
-0.000512773
-7.66674e-05
-0.000509544
-3.19455e-05
-0.000511682
1.9256e-05
-0.00051876
7.32698e-05
-0.000528453
9.74493e-05
-0.000539754
0.00011188
-0.000555689
0.000156131
-0.00058035
0.000244571
-0.000616367
0.000360798
-0.00066441
0.000484674
-0.000715218
0.0005098
-0.000754122
0.000389863
-0.000776421
0.000219686
-0.000787111
0.000103978
-0.000793933
6.52477e-05
-0.000804634
0.000107813
-0.000819359
0.000150054
-0.000831719
0.000125543
-0.000838735
6.76655e-05
-0.000841915
3.0795e-05
-0.000842373
2.56171e-06
-0.000843754
1.29956e-05
-0.000849827
6.58635e-05
-0.000857327
7.69622e-05
-0.000862046
4.75271e-05
-0.000862312
-9.26388e-06
-0.000850376
-0.000130073
-0.000786573
-0.000646413
-0.00112213
-0.000684888
-0.000120038
0.00083436
-0.000196261
0.000845489
-0.00026867
0.000797801
-0.000333107
0.000710508
-0.000388169
0.000606067
-0.000433263
0.000496004
-0.000469855
0.000402076
-0.000498399
0.000313179
-0.000518589
0.000220977
-0.000531431
0.000139779
-0.000538796
8.11898e-05
-0.000540518
1.76749e-05
-0.000537224
-3.63694e-05
-0.000529996
-7.93339e-05
-0.000520989
-0.000100408
-0.000513457
-8.42e-05
-0.000510198
-3.52044e-05
-0.000512049
2.11071e-05
-0.000518933
8.01542e-05
-0.000528611
0.000107127
-0.000539886
0.000123155
-0.000555788
0.000172033
-0.00058043
0.000269213
-0.000616533
0.000396901
-0.000664691
0.000532833
-0.000715628
0.000560737
-0.000754718
0.000428953
-0.000777107
0.000242075
-0.0007877
0.00011457
-0.000794324
7.18722e-05
-0.000804944
0.000118433
-0.000819852
0.000164962
-0.000832522
0.000138213
-0.000839689
7.48321e-05
-0.000842793
3.38998e-05
-0.000843252
3.02062e-06
-0.000844677
1.442e-05
-0.000850671
7.18578e-05
-0.000858085
8.43766e-05
-0.000862713
5.21544e-05
-0.00086295
-9.02664e-06
-0.000850987
-0.000142035
-0.000787286
-0.000710115
-0.00122436
-0.000685055
-0.000120351
0.000910535
-0.000196584
0.000921721
-0.000268954
0.000870171
-0.00033336
0.000774914
-0.000388424
0.000661131
-0.00043353
0.00054111
-0.000470114
0.000438661
-0.000498621
0.000341685
-0.000518739
0.000241096
-0.000531458
0.000152498
-0.000538674
8.84057e-05
-0.000540483
1.94846e-05
-0.000537355
-3.94974e-05
-0.000530213
-8.6476e-05
-0.000521105
-0.000109516
-0.000513422
-9.18827e-05
-0.000510201
-3.84259e-05
-0.000512292
2.31977e-05
-0.000519292
8.71551e-05
-0.000528949
0.000116784
-0.000540299
0.000134505
-0.000556343
0.000188076
-0.000581088
0.000293958
-0.000617079
0.000432892
-0.000664948
0.000580702
-0.000715644
0.000611433
-0.000754607
0.000467916
-0.000777059
0.000264527
-0.000787862
0.000125374
-0.000794701
7.87105e-05
-0.000805329
0.000129062
-0.000819964
0.000179596
-0.000832287
0.000150536
-0.000839384
8.19291e-05
-0.000842685
3.72012e-05
-0.000843262
3.59701e-06
-0.000844628
1.57862e-05
-0.000850531
7.77613e-05
-0.000857925
9.17706e-05
-0.000862712
5.69409e-05
-0.000863491
-8.24712e-06
-0.000851969
-0.000153558
-0.00078896
-0.000773124
-0.00132247
-0.000690841
-0.000120658
0.000986696
-0.000196793
0.000997857
-0.000269155
0.000942532
-0.000333553
0.000839313
-0.000388607
0.000716185
-0.000433697
0.000586201
-0.000470293
0.000475257
-0.000498856
0.000370248
-0.000519072
0.000261311
-0.000531949
0.000165374
-0.000539335
9.57918e-05
-0.000541113
2.12631e-05
-0.00053782
-4.27908e-05
-0.000530604
-9.36917e-05
-0.000521606
-0.000118514
-0.000514103
-9.93863e-05
-0.000510878
-4.16507e-05
-0.000512696
2.50156e-05
-0.000519505
9.39647e-05
-0.000529135
0.000126413
-0.000540442
0.000145813
-0.000556462
0.000204096
-0.000581216
0.000318712
-0.000617315
0.00046899
-0.000665302
0.000628689
-0.000716103
0.000662234
-0.000755227
0.000507041
-0.000777762
0.000287061
-0.000788465
0.000136077
-0.000795107
8.53522e-05
-0.000805677
0.000139632
-0.000820505
0.000194424
-0.00083314
0.000163171
-0.000840388
8.91778e-05
-0.000843599
4.04118e-05
-0.000844148
4.14615e-06
-0.000845536
1.71741e-05
-0.000851338
8.35636e-05
-0.000858606
9.90385e-05
-0.000863256
6.15905e-05
-0.000863963
-7.53963e-06
-0.000852476
-0.000165046
-0.000789703
-0.000835896
-0.00142084
-0.000691338
-0.000120914
0.00106293
-0.000197138
0.00107408
-0.000269473
0.00101487
-0.000333862
0.000903702
-0.000388924
0.000771247
-0.000434029
0.000631305
-0.000470612
0.00051184
-0.000499133
0.000398769
-0.000519281
0.00028146
-0.000532022
0.000178115
-0.000539239
0.000103009
-0.000541056
2.30804e-05
-0.000537955
-4.58928e-05
-0.000530833
-0.000100814
-0.000521743
-0.000127604
-0.000514086
-0.000107043
-0.000510875
-4.48608e-05
-0.000512935
2.70747e-05
-0.00051987
0.0001009
-0.000529488
0.000136031
-0.00054089
0.000157215
-0.00055707
0.000220276
-0.000581947
0.00034359
-0.000617935
0.000504978
-0.000665605
0.000676359
-0.000716118
0.000712747
-0.000755091
0.000546014
-0.000777688
0.000309658
-0.00078864
0.000147029
-0.000795522
9.22347e-05
-0.000806113
0.000150222
-0.000820645
0.000208957
-0.000832878
0.000175403
-0.000839997
9.62967e-05
-0.000843409
4.38241e-05
-0.000844079
4.81583e-06
-0.000845411
1.85067e-05
-0.000851158
8.93102e-05
-0.000858454
0.000106334
-0.000863345
6.64814e-05
-0.000864614
-6.27012e-06
-0.000853543
-0.000176117
-0.000791385
-0.000898054
-0.00151573
-0.000696499
-0.000242325
0.00121509
-0.000395233
0.00122699
-0.000539874
0.00115951
-0.000668772
0.0010326
-0.000778843
0.000881317
-0.000868936
0.000721399
-0.000942064
0.000584967
-0.000999279
0.000455984
-0.00103992
0.000322103
-0.00106588
0.000204072
-0.00108114
0.00011827
-0.00108418
2.61158e-05
-0.00107763
-5.24425e-05
-0.00106304
-0.000115395
-0.00104524
-0.000145413
-0.00103059
-0.000121684
-0.00102413
-5.13252e-05
-0.00102733
3.02709e-05
-0.00104063
0.000114204
-0.00105975
0.000155153
-0.00108236
0.000179818
-0.00111448
0.000252402
-0.00116408
0.000393191
-0.00123635
0.000577245
-0.00133239
0.000772397
-0.00143422
0.00081458
-0.00151312
0.000624911
-0.00155828
0.000354817
-0.00157947
0.000168221
-0.00159218
0.000104949
-0.00161309
0.000171131
-0.00164305
0.000238915
-0.00166895
0.0002013
-0.00168363
0.000110984
-0.00169044
5.06257e-05
-0.00169162
6.00121e-06
-0.00169424
2.11251e-05
-0.00170541
0.000100479
-0.00171911
0.000120035
-0.00172846
7.58363e-05
-0.00173054
-4.19603e-06
-0.00170826
-0.000198396
-0.00158535
-0.00102096
-0.00170585
-0.00139523
-0.000243557
0.00136773
-0.000396778
0.00138021
-0.000541261
0.00130399
-0.000670023
0.00116136
-0.000780083
0.000991377
-0.000870245
0.000811561
-0.000943309
0.000658032
-0.00100024
0.000512916
-0.0010404
0.000362262
-0.00106564
0.000229311
-0.0010801
0.000132733
-0.00108374
2.9752e-05
-0.00107812
-5.80571e-05
-0.00106401
-0.000129508
-0.00104567
-0.000163749
-0.00103024
-0.000137115
-0.00102397
-5.75979e-05
-0.00102846
3.47553e-05
-0.00104238
0.000128124
-0.00106148
0.000174258
-0.00108459
0.000202932
-0.00111759
0.000285396
-0.00116796
0.000443565
-0.00123972
0.000648999
-0.00133393
0.000866605
-0.00143381
0.000914463
-0.00151156
0.000702663
-0.00155717
0.000400429
-0.00157987
0.000190919
-0.00159413
0.00011921
-0.00161521
0.000192208
-0.00164339
0.000267098
-0.00166705
0.000224957
-0.00168116
0.000125098
-0.0016888
5.82632e-05
-0.00169043
7.62927e-06
-0.0016929
2.35989e-05
-0.0017041
0.000111679
-0.00171828
0.000134212
-0.00172895
8.65036e-05
-0.00173374
5.93723e-07
-0.00171292
-0.000219212
-0.00159167
-0.00114221
-0.00188456
-0.00141296
-0.000244934
0.00152021
-0.000397627
0.0015329
-0.000542079
0.00144844
-0.000670855
0.00129014
-0.000780912
0.00110143
-0.000871018
0.000901667
-0.000944186
0.0007312
-0.00100151
0.000570239
-0.00104232
0.00040307
-0.0010685
0.000255496
-0.00108394
0.000148167
-0.00108713
3.29475e-05
-0.0010806
-6.45891e-05
-0.00106606
-0.000144049
-0.00104834
-0.000181467
-0.00103387
-0.000151586
-0.00102752
-6.39512e-05
-0.00103059
3.7829e-05
-0.00104361
0.000141139
-0.00106261
0.000193263
-0.00108541
0.000225731
-0.00111806
0.000318049
-0.00116816
0.000493663
-0.0012404
0.000721241
-0.00133542
0.000961621
-0.00143612
0.00101517
-0.00151508
0.000781617
-0.00156111
0.000446462
-0.00158297
0.000212781
-0.00159588
0.000132122
-0.00161662
0.000212948
-0.00164609
0.000296561
-0.00167154
0.000250414
-0.00168632
0.000139873
-0.00169346
6.54068e-05
-0.00169498
9.14149e-06
-0.00169748
2.61049e-05
-0.00170794
0.000122137
-0.00172113
0.000147406
-0.00173084
9.62124e-05
-0.00173498
4.7346e-06
-0.00171463
-0.000239566
-0.00159396
-0.00126288
-0.00206246
-0.00141606
-0.000246238
0.00167327
-0.000399231
0.0016859
-0.000543605
0.00159282
-0.000672281
0.00141881
-0.000782355
0.00121151
-0.000872573
0.000991884
-0.000945724
0.000804351
-0.0010028
0.000627318
-0.00104314
0.000443405
-0.00106852
0.00028088
-0.00108304
0.000162683
-0.00108687
3.67821e-05
-0.00108138
-7.0086e-05
-0.00106738
-0.000158049
-0.0010491
-0.000199744
-0.00103378
-0.000166904
-0.0010276
-7.01311e-05
-0.00103197
4.21991e-05
-0.00104565
0.000154814
-0.00106469
0.000212305
-0.00108804
0.000249082
-0.00112154
0.000351553
-0.00117235
0.000544463
-0.0012439
0.000792799
-0.00133717
0.00105489
-0.00143649
0.00111449
-0.00151444
0.000859562
-0.00156049
0.000492521
-0.00158354
0.000235825
-0.00159795
0.000146533
-0.00161877
0.000233767
-0.00164645
0.000324246
-0.00166982
0.000273785
-0.00168417
0.000154219
-0.00169219
7.34259e-05
-0.00169423
1.11842e-05
-0.00169663
2.85074e-05
-0.0017071
0.000132605
-0.00172075
0.000161057
-0.00173184
0.000107299
-0.00173919
1.20819e-05
-0.00172081
-0.000257937
-0.00160211
-0.00138158
-0.00223138
-0.00143319
-0.000247745
0.00182614
-0.000400167
0.00183832
-0.000544438
0.00173709
-0.000673085
0.00154746
-0.000783153
0.00132158
-0.000873319
0.00108205
-0.000946589
0.00087762
-0.00100409
0.000684817
-0.00104511
0.00048443
-0.00107154
0.000307309
-0.00108712
0.000178267
-0.00109053
4.01922e-05
-0.00108401
-7.66106e-05
-0.00106956
-0.000172496
-0.00105196
-0.000217348
-0.00103764
-0.000181225
-0.0010314
-7.63659e-05
-0.00103441
4.52094e-05
-0.00104721
0.000167609
-0.00106613
0.000231225
-0.00108914
0.000272092
-0.00112229
0.000384709
-0.00117283
0.000595001
-0.00124492
0.000864889
-0.00133893
0.00114889
-0.00143881
0.00121437
-0.00151791
0.000938663
-0.00156467
0.00053929
-0.00158705
0.000258198
-0.00160001
0.000159492
-0.00162038
0.000254139
-0.00164926
0.000353129
-0.00167441
0.000298933
-0.00168946
0.000169266
-0.001697
8.09692e-05
-0.00169877
1.29532e-05
-0.00170102
3.0756e-05
-0.00171072
0.000142312
-0.00172346
0.000173798
-0.00173349
0.000117321
-0.00174058
1.91794e-05
-0.00172743
-0.00027109
-0.00161669
-0.00149233
-0.00240599
-0.00144208
-0.000248666
0.00197962
-0.000401516
0.00199117
-0.000545843
0.00188142
-0.000674513
0.00167613
-0.00078463
0.00143169
-0.000874889
0.00117231
-0.000948076
0.000950808
-0.00100528
0.000742023
-0.00104586
0.000525012
-0.00107152
0.000332966
-0.00108619
0.000192938
-0.00109015
4.41484e-05
-0.00108467
-8.20853e-05
-0.00107081
-0.000186361
-0.00105279
-0.00023537
-0.00103778
-0.000196234
-0.00103169
-8.24546e-05
-0.00103558
4.91044e-05
-0.00104877
0.000180792
-0.00106782
0.000250277
-0.00109151
0.000295781
-0.00112589
0.000419095
-0.00117779
0.000646901
-0.00124958
0.000936675
-0.00134168
0.00124099
-0.00143986
0.00131255
-0.00151756
0.00101636
-0.00156368
0.000585412
-0.00158697
0.000281491
-0.00160199
0.000174508
-0.00162337
0.000275517
-0.0016508
0.00038056
-0.0016735
0.000321634
-0.0016877
0.000183467
-0.00169581
8.90767e-05
-0.001698
1.51415e-05
-0.00170014
3.29041e-05
-0.00171001
0.000152179
-0.00172381
0.000187597
-0.00173662
0.00013013
-0.00174757
3.01314e-05
-0.00174696
-0.000271704
-0.00165019
-0.00158909
-0.00258986
-0.00146632
-0.000250989
0.00213326
-0.000404334
0.00214451
-0.000548463
0.00202554
-0.000676657
0.00180433
-0.000786531
0.00154157
-0.000876782
0.00126256
-0.000950183
0.00102421
-0.00100788
0.000799723
-0.00104905
0.000566175
-0.00107553
0.000359453
-0.00109153
0.000208933
-0.00109519
4.78083e-05
-0.00108913
-8.81427e-05
-0.00107446
-0.000201031
-0.00105633
-0.000253496
-0.00104169
-0.000210877
-0.00103546
-8.86836e-05
-0.00103871
5.23488e-05
-0.00105159
0.000193672
-0.00107036
0.000269054
-0.00109342
0.000318836
-0.00112644
0.000452114
-0.00117671
0.000697174
-0.0012486
0.00100857
-0.00134223
0.00133461
-0.00144173
0.00141205
-0.00152132
0.00109595
-0.00156915
0.000633243
-0.00159218
0.000304523
-0.00160437
0.000186698
-0.00162335
0.000294496
-0.00165149
0.000408703
-0.00167671
0.00034685
-0.00169209
0.000198854
-0.00170044
9.74253e-05
-0.00170261
1.73078e-05
-0.00170467
3.49698e-05
-0.00171386
0.00016136
-0.00172605
0.00019979
-0.00173755
0.000141634
-0.00175748
5.00565e-05
-0.0017777
-0.00025148
-0.00168013
-0.00168667
-0.002794
-0.00147598
-0.00352627
0.00433161
-0.00573954
0.00435778
-0.00768351
0.00396951
-0.00938353
0.00350435
-0.0108486
0.00300666
-0.0120647
0.00247864
-0.013034
0.00199354
-0.0137918
0.00155745
-0.0143305
0.00110497
-0.0146082
0.000637132
-0.0146691
0.000269852
-0.0147746
0.000153291
-0.0148905
2.77794e-05
-0.0147553
-0.000336272
-0.0144935
-0.000515347
-0.0142717
-0.00043261
-0.0143029
-5.75083e-05
-0.0146563
0.000405714
-0.0149254
0.000462825
-0.0152842
0.000627838
-0.0158461
0.000880762
-0.0166284
0.00123435
-0.017539
0.00160785
-0.0184566
0.0019261
-0.0192522
0.00213026
-0.0200035
0.00216331
-0.0208703
0.00196282
-0.021643
0.00140593
-0.0222681
0.000929612
-0.0228252
0.000743814
-0.0231301
0.000599359
-0.0231955
0.000474152
-0.0231637
0.000315018
-0.0230972
0.000132378
-0.0232468
0.000246936
-0.0232583
2.88117e-05
-0.0232906
6.73326e-05
-0.0234519
0.000322668
-0.0238298
0.000577629
-0.0244133
0.000725164
-0.025122
0.000758751
-0.025186
-0.000187472
-0.0235523
-0.00332034
-0.00573341
-0.0206129
-0.00391289
0.0065467
-0.00606777
0.00651266
-0.00803215
0.00593389
-0.0098089
0.0052811
-0.0113592
0.00455692
-0.0126252
0.00374467
-0.0136507
0.00301904
-0.014493
0.00239978
-0.0151748
0.00178678
-0.0156778
0.00114007
-0.0159912
0.000583253
-0.0160005
0.000162642
-0.0157785
-0.000194226
-0.0156157
-0.00049907
-0.0154611
-0.00066993
-0.0152945
-0.000599254
-0.0150685
-0.000283537
-0.0147898
0.000127069
-0.0148577
0.000530754
-0.0151295
0.000899613
-0.0154837
0.00123493
-0.0159078
0.00165847
-0.016564
0.002264
-0.0176577
0.00301988
-0.0192533
0.00372578
-0.0208994
0.00380944
-0.0220341
0.00309748
-0.0225668
0.00193866
-0.0226893
0.00105215
-0.0226386
0.000693057
-0.0228144
0.000775211
-0.0232681
0.000927832
-0.0239081
0.000955
-0.024403
0.000627267
-0.024512
0.000356015
-0.0244599
-2.33039e-05
-0.0242491
-0.00014347
-0.0240316
0.00010511
-0.0240805
0.000626548
-0.0244503
0.00109499
-0.0247184
0.00102682
-0.0244398
-0.000466006
-0.0234343
-0.00432586
-0.00703259
-0.0221351
-0.0040328
0.00891718
-0.00637096
0.00885082
-0.00845483
0.00801777
-0.0102756
0.00710191
-0.011828
0.00610932
-0.0131172
0.0050338
-0.0141574
0.00405922
-0.0149739
0.00321635
-0.0155609
0.0023737
-0.0159119
0.00149112
-0.0160677
0.000739039
-0.0161662
0.000261148
-0.0161932
-0.000167226
-0.0160032
-0.000689044
-0.015731
-0.000942116
-0.0155374
-0.000792924
-0.0155923
-0.000228594
-0.015897
0.000431744
-0.0161847
0.000818451
-0.0164941
0.00120901
-0.0168699
0.00161072
-0.0173727
0.00216131
-0.0180637
0.00295502
-0.0188597
0.00381587
-0.0198728
0.00473882
-0.0210016
0.00493833
-0.0219804
0.00407621
-0.0225185
0.00247681
-0.0228461
0.00137968
-0.0231354
0.000982421
-0.0233612
0.00100097
-0.0234946
0.0010613
-0.0235858
0.00104618
-0.0236735
0.000714945
-0.0238171
0.000499613
-0.0238169
-2.34742e-05
-0.0237502
-0.000210215
-0.0238447
0.000199664
-0.0241317
0.000913547
-0.024596
0.00155922
-0.0250365
0.0014673
-0.0250154
-0.000487057
-0.0238444
-0.00549689
-0.00857357
-0.0223034
-0.00448504
0.011626
-0.00687653
0.0112423
-0.00891016
0.0100514
-0.0107153
0.00890706
-0.0123091
0.00770315
-0.0136396
0.00636424
-0.0147493
0.0051689
-0.0156884
0.00415547
-0.0164475
0.0031328
-0.016994
0.00203764
-0.0172962
0.00104128
-0.0173019
0.000266853
-0.0171183
-0.000350878
-0.0169528
-0.000854567
-0.0167789
-0.00111594
-0.0166255
-0.000946339
-0.0164147
-0.000439392
-0.0161164
0.0001334
-0.0160448
0.000746867
-0.0162045
0.00136868
-0.0165204
0.00192666
-0.0169616
0.00260253
-0.0176523
0.00364567
-0.0187524
0.00491599
-0.0201057
0.00609208
-0.0213753
0.00620802
-0.0222355
0.0049364
-0.0227519
0.00299317
-0.0229148
0.00154264
-0.0230041
0.00107164
-0.0232112
0.00120812
-0.0235418
0.00139191
-0.0239341
0.00143846
-0.0242083
0.000989128
-0.0242205
0.000511834
-0.0240814
-0.000162572
-0.0239141
-0.000377547
-0.0237769
6.24886e-05
-0.0239268
0.00106347
-0.0243534
0.00198575
-0.0246608
0.00177474
-0.0244956
-0.000652238
-0.0241885
-0.00580401
-0.00912253
-0.0236396
-0.00447597
0.0145106
-0.00702914
0.0137955
-0.00927718
0.0122994
-0.0112835
0.0109134
-0.0129852
0.00940488
-0.014363
0.00774198
-0.0154656
0.00627155
-0.0163389
0.00502871
-0.0169867
0.00378064
-0.0174174
0.00246839
-0.0176521
0.00127589
-0.0177631
0.000377923
-0.0177197
-0.000394277
-0.017455
-0.00111925
-0.0171346
-0.00143643
-0.0168881
-0.00119277
-0.0167589
-0.00056861
-0.0168265
0.000201
-0.0170208
0.00094117
-0.0173113
0.00165915
-0.0176478
0.00226316
-0.0181114
0.00306609
-0.0187446
0.0042789
-0.0194128
0.00558419
-0.0203069
0.0069862
-0.0212319
0.00713298
-0.0219953
0.00569979
-0.0224314
0.00342934
-0.0227035
0.00181468
-0.0229969
0.00136504
-0.0231695
0.00138078
-0.0232439
0.00146633
-0.0232416
0.00143608
-0.0232424
0.000989997
-0.023272
0.00054138
-0.0233298
-0.000104735
-0.0233682
-0.000339116
-0.0235687
0.000262922
-0.0238674
0.00136223
-0.0242776
0.0023959
-0.0247384
0.00223559
-0.025129
-0.000261672
-0.024778
-0.00615498
-0.0105161
-0.0233845
-0.00494933
0.0180365
-0.00762854
0.0164747
-0.00982343
0.0144943
-0.0117288
0.0128187
-0.013367
0.0110431
-0.0147292
0.0091041
-0.0158717
0.00741406
-0.0168355
0.00599254
-0.0176111
0.00455624
-0.0181775
0.00303483
-0.0185037
0.00160201
-0.0185189
0.000393138
-0.0183479
-0.000565233
-0.0181369
-0.00133027
-0.0178778
-0.00169555
-0.0176312
-0.00143939
-0.0174345
-0.000765283
-0.0172554
2.19181e-05
-0.0171651
0.000850863
-0.0171756
0.00166969
-0.0173212
0.00240875
-0.0176124
0.00335724
-0.0181206
0.0047871
-0.019034
0.00649764
-0.020108
0.00806019
-0.021232
0.00825694
-0.0219473
0.00641513
-0.0222944
0.00377644
-0.022449
0.00196929
-0.0225779
0.00149391
-0.0227253
0.00152821
-0.0228663
0.00160736
-0.0230303
0.00159999
-0.0231656
0.00112537
-0.0231464
0.00052213
-0.0230386
-0.000212486
-0.0229665
-0.0004112
-0.0229234
0.00021976
-0.0231464
0.00158521
-0.0236248
0.0028743
-0.0241099
0.00272076
-0.0242695
-0.000102121
-0.0246408
-0.00578366
-0.0108682
-0.0242887
-0.00590391
0.0217667
-0.00867203
0.0192428
-0.0109501
0.0167724
-0.0129834
0.014852
-0.0147526
0.0128124
-0.0162171
0.0105686
-0.0174285
0.00862542
-0.0183705
0.00693453
-0.0189915
0.00517731
-0.0193206
0.0033639
-0.0194203
0.00170169
-0.0193839
0.000356728
-0.0192159
-0.000733178
-0.0188393
-0.0017069
-0.0184307
-0.0021041
-0.0181007
-0.00176945
-0.0178538
-0.00101216
-0.017736
-9.58769e-05
-0.0176767
0.000791563
-0.0177483