/*--------------------------------*- C++ -*----------------------------------*\
| =========                 |                                                 |
| \\      /  F ield         | OpenFOAM: The Open Source CFD Toolbox           |
|  \\    /   O peration     | Version:  v1912                                 |
|   \\  /    A nd           | Website:  www.openfoam.com                      |
|    \\/     M anipulation  |                                                 |
\*---------------------------------------------------------------------------*/
FoamFile
{
    version     2.0;
    format      ascii;
    class       surfaceScalarField;
    location    "50";
    object      phi;
}
// * * * * * * * * * * * * * * * * * * * * * * * * * * * * * * * * * * * * * //

dimensions      [0 3 -1 0 0 0 0];
oriented        oriented;


internalField   nonuniform List<scalar> 
28285
(
-0.0391597
-0.00278921
-0.0362597
-0.00289999
-0.0332554
-0.00300426
-0.0301538
-0.00310166
-0.0269617
-0.00319211
-0.0236873
-0.00327435
-0.0203385
-0.00334879
-0.0169243
-0.00341423
-0.0134547
-0.00346956
-0.00994078
-0.00351395
-0.00639433
-0.00354645
-0.00282662
-0.00356771
0.000748024
-0.00357465
0.00431245
-0.00356443
0.00785134
-0.00353889
0.0113479
-0.00349655
0.0147837
-0.00343581
0.0181401
-0.00335636
0.0213969
-0.00325687
0.0245343
-0.00313739
0.0275315
-0.00299721
0.0303677
-0.00283618
0.0330226
-0.00265487
0.0354758
-0.00245324
0.0377084
-0.00223258
0.0397022
-0.00199378
0.0414406
-0.00173841
0.0429086
-0.00146801
0.0440934
-0.00118485
0.0449846
-0.000891219
0.0455744
-0.000589731
0.0458576
-0.000283179
0.0458327
2.48595e-05
0.0455014
0.000331296
0.0448812
0.000620196
0.0439672
0.000914042
0.0427635
0.0012037
0.0412873
0.00147612
0.0395573
0.00173002
0.037594
0.00196337
0.0354201
0.00217391
0.0330605
0.00235957
0.0305419
0.0025186
0.0278921
0.00264979
0.0251401
0.00275203
0.0223149
0.00282515
0.0194458
0.00286916
0.0165609
0.0028849
0.0136874
0.00287342
0.0108522
0.00283522
0.00807982
0.00277241
0.00539166
0.00268816
0.00280859
0.00258307
0.000346556
0.00246203
-0.00197618
0.00232273
-0.00415034
0.00217416
-0.00616601
0.00201567
-0.00801619
0.00185018
-0.0096963
0.00168011
-0.0112042
0.00150788
-0.0125397
0.00133552
-0.0137046
0.00116494
-0.0147024
0.000997756
-0.0155377
0.000835352
-0.0162165
0.00067878
-0.0167455
0.000528934
-0.0171321
0.000386633
-0.0173844
0.000252298
-0.0175107
0.000126307
-0.0175197
8.9519e-06
-0.0174204
-9.92807e-05
-0.0172201
-0.000200263
-0.0169256
-0.000294542
-0.0165472
-0.000378377
-0.0160927
-0.000454489
-0.0155694
-0.000523254
-0.0149846
-0.000584811
-0.0143448
-0.000639809
-0.0136565
-0.000688297
-0.0129256
-0.000730978
-0.0121574
-0.000768124
-0.0113576
-0.000799821
-0.0105305
-0.00082707
-0.00968123
-0.000849309
-0.00881347
-0.000867758
-0.00793154
-0.000881932
-0.00703911
-0.000892421
-0.00613961
-0.000899509
-0.00523666
-0.000902944
-0.00433306
-0.000903605
-0.00343221
-0.000900844
-0.00253712
-0.000895089
-0.00165039
-0.000886733
-0.000775192
-0.000875199
8.62429e-05
-0.000861435
0.000929723
-0.00084348
0.00175295
-0.000823224
0.00255288
-0.000799935
0.00332635
-0.000773466
0.0040701
-0.000743751
0.00478073
-0.000710633
0.00545476
-0.000674029
0.00608856
-0.000633798
0.00667839
-0.000589832
0.00722052
-0.000542134
0.00771123
-0.000490709
0.00814684
-0.000435607
0.00852379
-0.000376954
0.0088388
-0.000315007
0.00908878
-0.000249976
0.00927123
-0.000182454
0.00938421
-0.000112975
0.00942629
-4.20874e-05
0.00939677
2.95221e-05
0.00929602
0.000100755
0.00912512
0.000170899
0.00888621
0.000238909
0.00858252
0.000303687
0.00821841
0.000364112
0.00779933
0.00041908
0.00733254
0.000466794
0.00682634
0.000506193
0.00628556
0.00054078
0.00571982
0.000565744
0.00513884
0.000580976
0.00455238
0.000586464
0.00397018
0.000582196
0.00340171
0.000568477
0.0028562
0.000545502
0.00234116
0.000515045
0.00186417
0.000476991
0.00142983
0.000434342
0.00104281
0.000387014
0.000339485
0.000703327
-0.0390201
-0.0055822
-0.0361168
-0.00580327
-0.0331093
-0.00601174
-0.0300053
-0.0062057
-0.0268113
-0.00638608
-0.0235345
-0.0065512
-0.0201845
-0.00669876
-0.0167692
-0.0068295
-0.0132995
-0.00693931
-0.00978511
-0.00702832
-0.00623933
-0.00709223
-0.00267342
-0.00713361
0.0008994
-0.00714747
0.00446181
-0.00712684
0.00799823
-0.0070753
0.0114916
-0.00698989
0.0149235
-0.00686777
0.0182754
-0.00670827
0.0215272
-0.00650863
0.0246588
-0.00626896
0.0276494
-0.00598786
0.0304784
-0.00566515
0.0331254
-0.00530185
0.0355703
-0.00489812
0.0377937
-0.00445604
0.0397776
-0.0039777
0.0415055
-0.00346629
0.0429626
-0.00292504
0.0441362
-0.00235848
0.0450158
-0.00177081
0.0455939
-0.00116785
0.0458661
-0.000555388
0.04583
6.09528e-05
0.0454872
0.000674165
0.0448563
0.00125105
0.0439313
0.00183901
0.0427173
0.00241768
0.0412317
0.0029618
0.0394929
0.0034688
0.0375216
0.00393463
0.0353408
0.00435476
0.0329753
0.00472507
0.0304517
0.00504212
0.0277982
0.00530328
0.0250435
0.00550674
0.0222169
0.00565179
0.0193471
0.00573894
0.016463
0.00576905
0.0135916
0.00574477
0.0107597
0.00566712
0.00799108
0.00554103
0.00530714
0.0053721
0.00272897
0.00516125
0.000272954
0.00491805
-0.00204486
0.00464055
-0.00421305
0.00434235
-0.00622254
0.00402516
-0.0080664
0.00369403
-0.00974012
0.00335383
-0.0112417
0.00300944
-0.012571
0.00266484
-0.0137299
0.00232386
-0.0147219
0.00198976
-0.0155519
0.00166528
-0.0162255
0.00135244
-0.0167497
0.00105315
-0.017132
0.000768917
-0.0173804
0.000500705
-0.0175032
0.000249101
-0.0175093
1.50146e-05
-0.0174071
-0.000201504
-0.0172043
-0.000403059
-0.0169077
-0.000591153
-0.0165275
-0.000758517
-0.0160715
-0.000910505
-0.0155471
-0.0010477
-0.0149614
-0.00117051
-0.0143209
-0.00128029
-0.013632
-0.00137716
-0.0129007
-0.00146227
-0.0121325
-0.00153634
-0.0113327
-0.00159965
-0.0105059
-0.00165389
-0.00965694
-0.00169823
-0.00878971
-0.00173499
-0.00790845
-0.00176319
-0.00701672
-0.00178416
-0.00611804
-0.00179818
-0.00521578
-0.00180521
-0.00431295
-0.00180643
-0.00341305
-0.00180074
-0.00251887
-0.00178928
-0.00163342
-0.00177218
-0.000759207
-0.00174941
0.000100613
-0.00172125
0.000942898
-0.00168577
0.00176489
-0.00164521
0.00256357
-0.00159862
0.00333576
-0.00154566
0.00407825
-0.00148624
0.00478762
-0.00142
0.00546035
-0.00134676
0.00609289
-0.00126634
0.00668157
-0.00117851
0.00722261
-0.00108317
0.00771222
-0.000980317
0.00814668
-0.000870065
0.0085225
-0.000752777
0.00883636
-0.000628863
0.00908536
-0.000498974
0.00926687
-0.000363967
0.00937893
-0.000225036
0.00942021
-8.33699e-05
0.00939004
5.96949e-05
0.00928878
0.00020201
0.00911753
0.000342149
0.0088784
0.000478044
0.00857456
0.000607529
0.00821038
0.000728289
0.00779134
0.000838121
0.00732472
0.000933416
0.00681881
0.0010121
0.0062784
0.00108119
0.0057131
0.00113104
0.00513264
0.00116144
0.00454676
0.00117235
0.00396518
0.00116377
0.00339735
0.00113631
0.00285249
0.00109036
0.00233808
0.00102945
0.0018617
0.000953369
0.00142795
0.000868098
0.00104148
0.000773484
0.000678555
0.000702407
-0.0389647
-0.00838402
-0.0360535
-0.00871446
-0.0330385
-0.00902676
-0.0299266
-0.00931758
-0.0267248
-0.00958789
-0.0234417
-0.00983434
-0.0200842
-0.0100562
-0.0166626
-0.0102512
-0.0131862
-0.0104157
-0.00966523
-0.0105493
-0.00611194
-0.0106455
-0.00253938
-0.0107062
0.00103786
-0.0107247
0.00460546
-0.0106944
0.00814674
-0.0106166
0.0116445
-0.0104876
0.0150803
-0.0103036
0.0184353
-0.0100633
0.0216895
-0.00976281
0.0248225
-0.00940193
0.0278138
-0.00897918
0.0306424
-0.00849377
0.0332879
-0.00794739
0.0357301
-0.00734032
0.0379498
-0.00667573
0.039929
-0.00595685
0.0416512
-0.00518846
0.0431013
-0.00437521
0.0442669
-0.00352403
0.0451374
-0.00264136
0.0457055
-0.00173593
0.045966
-0.000815849
0.0459181
0.000108846
0.0455635
0.00102877
0.0449208
0.00189367
0.0439829
0.002777
0.0427559
0.00364467
0.0412572
0.00446042
0.0395057
0.0052203
0.0375221
0.00591828
0.0353293
0.00654757
0.0329525
0.00710188
0.0304184
0.00757625
0.0277551
0.00796654
0.0249915
0.00827031
0.022157
0.00848629
0.0192807
0.00861531
0.0163907
0.00865905
0.0135152
0.00862027
0.0106793
0.00850299
0.0079076
0.00831272
0.00522309
0.00805661
0.00264365
0.0077407
0.000188163
0.00737353
-0.00212633
0.00695504
-0.00429176
0.00650778
-0.00629788
0.00603129
-0.00813787
0.00553402
-0.00980735
0.00502332
-0.0113044
0.00450647
-0.012629
0.00398948
-0.0137832
0.00347803
-0.0147704
0.00297702
-0.0155957
0.00249049
-0.0162647
0.0020215
-0.0167845
0.0015729
-0.0171624
0.0011469
-0.0174067
0.000744963
-0.0175256
0.000368015
-0.0175277
1.71022e-05
-0.0174225
-0.00030669
-0.0172165
-0.000609061
-0.0169171
-0.000890583
-0.0165344
-0.00114121
-0.0160761
-0.00136877
-0.0155496
-0.00157419
-0.014962
-0.00175815
-0.0143199
-0.00192239
-0.0136297
-0.00206733
-0.0128972
-0.0021948
-0.0121279
-0.00230556
-0.0113271
-0.00240046
-0.0104996
-0.00248143
-0.00964964
-0.00254819
-0.00878178
-0.00260285
-0.00789977
-0.0026452
-0.00700766
-0.00267627
-0.00610855
-0.00269729
-0.00520627
-0.00270749
-0.00430338
-0.00270933
-0.00340344
-0.00270068
-0.00250945
-0.00268327
-0.00162384
-0.00265779
-0.000749781
-0.00262347
0.000110033
-0.00258107
0.000952182
-0.00252792
0.00177399
-0.00246702
0.00257244
-0.00239707
0.00334437
-0.00231759
0.00408654
-0.00222841
0.00479556
-0.00212902
0.00546794
-0.00201914
0.00610003
-0.00189843
0.00668812
-0.00176659
0.00722849
-0.00162355
0.00771747
-0.0014693
0.00815144
-0.00130403
0.0085268
-0.00112814
0.00884028
-0.000942349
0.00908869
-0.000747384
0.00926965
-0.000544929
0.0093813
-0.000336683
0.00942213
-0.000124197
0.00939142
9.04059e-05
0.00928958
0.000303842
0.00911771
0.000514021
0.00887803
0.000717726
0.00857383
0.000911731
0.00820939
0.00109272
0.00779015
0.00125736
0.0073234
0.00140017
0.00681738
0.00151811
0.00627692
0.00162166
0.00571163
0.00169633
0.00513123
0.00174183
0.00454546
0.00175813
0.00396402
0.00174521
0.00339634
0.00170399
0.00285166
0.00163504
0.00233742
0.0015437
0.0018612
0.00142959
0.00142756
0.00130173
0.00104116
0.00115988
0.00101748
0.000702239
-0.0389454
-0.0111954
-0.0360244
-0.0116355
-0.0329998
-0.0120513
-0.0298786
-0.0124388
-0.0266679
-0.0127986
-0.023376
-0.0131263
-0.0200092
-0.013423
-0.0165785
-0.0136819
-0.0130926
-0.0139015
-0.0095639
-0.014078
-0.00600105
-0.0142084
-0.0024205
-0.0142867
0.00116509
-0.0143103
0.00474096
-0.0142703
0.00829038
-0.014166
0.0117958
-0.0139931
0.015239
-0.0137467
0.0186006
-0.0134249
0.0218607
-0.0130229
0.024999
-0.0125402
0.0279945
-0.0119747
0.0308263
-0.0113256
0.0334738
-0.0105949
0.0359167
-0.00978319
0.0381357
-0.00889482
0.0401129
-0.00793404
0.0418315
-0.00690705
0.0432766
-0.00582035
0.0444357
-0.00468313
0.0452983
-0.00350388
0.0458569
-0.00229453
0.0461064
-0.00106541
0.0460466
0.000168713
0.045679
0.0013963
0.0450233
0.00254943
0.0440704
0.00372988
0.0428281
0.00488702
0.0413138
0.00597469
0.0395465
0.00698755
0.0375472
0.0079176
0.0353392
0.00875562
0.0329477
0.00949334
0.0303997
0.0101243
0.0277234
0.0106429
0.0249479
0.0110458
0.0221027
0.0113314
0.0192168
0.0115013
0.0163192
0.0115567
0.0134367
0.0115027
0.0105962
0.0113435
0.0078209
0.011088
0.00513381
0.0107437
0.00255468
0.0103198
9.83379e-05
0.00982988
-0.00221471
0.00926809
-0.00437802
0.00867109
-0.00638114
0.00803441
-0.00821739
0.00737027
-0.00988252
0.00668845
-0.0113748
0.00599871
-0.0126943
0.00530898
-0.0138431
0.00462686
-0.0148249
0.00395884
-0.0156447
0.00331025
-0.0163084
0.0026852
-0.016823
0.00208748
-0.017196
0.00151991
-0.0174355
0.000984532
-0.0175501
0.000482534
-0.0175483
1.5361e-05
-0.0174391
-0.000415901
-0.0172293
-0.000818847
-0.0169267
-0.00119322
-0.0165411
-0.00152682
-0.0160802
-0.00182968
-0.0155513
-0.00210307
-0.0149615
-0.00234794
-0.0143175
-0.00256637
-0.0136257
-0.00275919
-0.0128916
-0.00292882
-0.012121
-0.00307617
-0.0113191
-0.0032024
-0.0104906
-0.00330992
-0.00963988
-0.00339892
-0.00877145
-0.00347127
-0.00788924
-0.00352742
-0.00699671
-0.0035688
-0.00609749
-0.0035965
-0.00519483
-0.00361015
-0.00429226
-0.0036119
-0.00339224
-0.00360069
-0.00249773
-0.00357777
-0.00161214
-0.00354338
-0.00073846
-0.00349716
0.000121138
-0.00344067
0.000963131
-0.00336991
0.00178474
-0.00328863
0.00258295
-0.00319528
0.00335462
-0.00308925
0.00409651
-0.0029703
0.00480519
-0.00283771
0.00547718
-0.00269113
0.00610892
-0.00253017
0.00669675
-0.00235442
0.00723692
-0.00216372
0.00772563
-0.00195802
0.00815916
-0.00173756
0.00853396
-0.00150294
0.0088467
-0.00125509
0.00909457
-0.000995245
0.0092749
-0.000725267
0.00938566
-0.000447439
0.00942568
-0.000164221
0.00939434
0.000121751
0.00929203
0.000406149
0.00911987
0.000686184
0.00887993
0.000957663
0.00857524
0.00121642
0.00821019
0.00145777
0.00779041
0.00167715
0.00732326
0.00186732
0.00681703
0.00202434
0.00627648
0.00216221
0.00571112
0.00226169
0.00513065
0.0023223
0.00454483
0.00234394
0.00396341
0.00232664
0.00339577
0.00227162
0.00285115
0.00217966
0.00233699
0.00205786
0.00186085
0.00190572
0.0014273
0.00173529
0.00104098
0.00154621
0.00135633
0.000702122
-0.0389572
-0.0140179
-0.0360249
-0.0145678
-0.0329899
-0.0150863
-0.029858
-0.0155708
-0.0266371
-0.0160195
-0.0233336
-0.0164298
-0.0199565
-0.0168
-0.0165147
-0.0171238
-0.0130175
-0.0173987
-0.00947748
-0.017618
-0.00590336
-0.0177825
-0.00231129
-0.0178788
0.00128545
-0.0179071
0.00487272
-0.0178576
0.0084334
-0.0177267
0.0119499
-0.0175096
0.0154038
-0.0172005
0.0187755
-0.0167967
0.0220452
-0.0162927
0.025192
-0.0156869
0.0281952
-0.0149779
0.0310335
-0.0141639
0.0336862
-0.0132476
0.036133
-0.01223
0.0383544
-0.0111162
0.0403318
-0.00991151
0.0420492
-0.00862444
0.0434912
-0.00726231
0.0446449
-0.0058369
0.0455007
-0.00435968
0.0460508
-0.00284455
0.0462904
-0.00130505
0.0462181
0.000241004
0.0458367
0.00177767
0.0451669
0.00321922
0.0441977
0.00469909
0.0429382
0.00614653
0.0414062
0.00750671
0.0396208
0.00877294
0.0376033
0.00993511
0.0353771
0.0109818
0.0329679
0.0119025
0.0304027
0.0126895
0.0277102
0.0133353
0.0249196
0.0138364
0.0220606
0.0141904
0.0191624
0.0143995
0.0162538
0.0144653
0.013362
0.0143945
0.0105139
0.0141915
0.00773265
0.0138693
0.00504134
0.013435
0.00245955
0.0129016
3.70166e-06
0.0122857
-0.00231116
0.011583
-0.00447335
0.0108333
-0.00647414
0.0100352
-0.00830712
0.00920325
-0.00996825
0.00834958
-0.0114559
0.00748633
-0.0127703
0.00662343
-0.0139138
0.00577034
-0.0148901
0.00493516
-0.0157042
0.00412438
-0.0163624
0.00334333
-0.0168714
0.00259655
-0.0172391
0.00188756
-0.0174735
0.00121899
-0.0175832
0.000592198
-0.0175769
9.06753e-06
-0.0174635
-0.000529313
-0.0172496
-0.00103277
-0.0169433
-0.00149953
-0.0165543
-0.00191577
-0.0160904
-0.00229364
-0.0155587
-0.00263471
-0.0149666
-0.00294009
-0.0143204
-0.00321254
-0.0136265
-0.00345312
-0.0128907
-0.00366456
-0.0121188
-0.00384814
-0.0113156
-0.00400562
-0.0104859
-0.0041396
-0.00963457
-0.00425024
-0.0087652
-0.00434064
-0.00788218
-0.00441045
-0.00698881
-0.00446217
-0.00608893
-0.00449638
-0.00518582
-0.00451327
-0.00428225
-0.00451546
-0.00338188
-0.00450107
-0.00248733
-0.00447232
-0.00160149
-0.00442922
-0.000727408
-0.00437124
0.000131992
-0.00430007
0.000974045
-0.00421196
0.00179568
-0.00411026
0.00259387
-0.00399347
0.00336546
-0.00386084
0.00410719
-0.00371203
0.00481567
-0.00354619
0.00548746
-0.00336292
0.00611896
-0.00316167
0.0067064
-0.00294187
0.007246
-0.00270331
0.007734
-0.00244601
0.00816679
-0.00217035
0.00854085
-0.001877
0.00885303
-0.00156727
0.00910018
-0.0012424
0.00927985
-0.000904934
0.00939023
-0.000557815
0.00943001
-0.000203999
0.00939828
0.000153474
0.00929547
0.000508965
0.00912259
0.000859055
0.0088818
0.00119846
0.00857642
0.0015218
0.008211
0.00182319
0.007791
0.00209716
0.00732364
0.00233468
0.00681703
0.00253095
0.00627613
0.00270311
0.00571066
0.00282716
0.00513018
0.00290278
0.00454432
0.0029298
0.00396286
0.0029081
0.00339523
0.00283924
0.00285066
0.00272423
0.00233657
0.00257195
0.00186052
0.00238177
0.00142707
0.00216874
0.00104084
0.00193244
0.00169514
0.000702028
-0.0390037
-0.0168531
-0.0360596
-0.017512
-0.0330116
-0.0181343
-0.0298678
-0.0187145
-0.026634
-0.0192533
-0.0233179
-0.0197458
-0.0199281
-0.0201898
-0.0164739
-0.020578
-0.0129642
-0.0209084
-0.00940876
-0.0211734
-0.00582314
-0.0213681
-0.00221678
-0.0214851
0.00139549
-0.0215193
0.00499714
-0.0214592
0.00857243
-0.021302
0.0121033
-0.0210404
0.0155713
-0.0206685
0.0189567
-0.0201821
0.0222392
-0.0195752
0.0253984
-0.0188461
0.0284127
-0.0179922
0.0312611
-0.0170123
0.0339223
-0.0159088
0.0363756
-0.0146833
0.0386019
-0.0133424
0.0405826
-0.0118922
0.0423008
-0.0103427
0.0437414
-0.0087029
0.0448917
-0.00698722
0.0457415
-0.00520945
0.0462831
-0.00338618
0.0465121
-0.00153404
0.0464277
0.000325386
0.0460321
0.00217334
0.0453473
0.00390402
0.0443602
0.00568611
0.0430817
0.00742503
0.0415298
0.00905864
0.0397238
0.0105789
0.0376853
0.0119737
0.035438
0.0132291
0.0330081
0.0143325
0.0304227
0.0152749
0.0277108
0.0160472
0.024902
0.0166452
0.0220261
0.0170663
0.0191126
0.0173131
0.0161906
0.0173873
0.0132873
0.0172978
0.0104292
0.0170496
0.00764079
0.0166578
0.00494297
0.0161328
0.00235746
0.0154871
-9.97969e-05
0.014743
-0.00241631
0.0138995
-0.00457789
0.0129949
-0.00657665
0.012034
-0.00840648
0.0110331
-0.0100635
0.0100066
-0.0115463
0.00896912
-0.0128553
0.00793245
-0.013993
0.006908
-0.0149632
0.0059054
-0.0157712
0.00493237
-0.0164232
0.0039953
-0.0169262
0.00309951
-0.017288
0.00224936
-0.0175168
0.0014478
-0.0176209
0.000696345
-0.0176094
-2.43416e-06
-0.0174916
-0.000647084
-0.017273
-0.00125146
-0.0169626
-0.00180985
-0.01657
-0.00230843
-0.0161026
-0.00276096
-0.0155681
-0.00316929
-0.0149731
-0.00353503
-0.0143245
-0.00386117
-0.0136285
-0.00414911
-0.0128908
-0.00440225
-0.0121171
-0.00462184
-0.0113124
-0.00481034
-0.0104815
-0.00497049
-0.00962861
-0.00510312
-0.00875832
-0.00521092
-0.00787434
-0.00529443
-0.00698048
-0.00535603
-0.00608025
-0.00539661
-0.00517666
-0.00541685
-0.00427277
-0.00541936
-0.00337209
-0.00540175
-0.00247762
-0.00536679
-0.00159162
-0.00531522
-0.000717233
-0.00524563
0.000142178
-0.00515948
0.000984239
-0.00505402
0.00180582
-0.00493184
0.00260393
-0.00479158
0.0033754
-0.00463232
0.00411699
-0.00445362
0.00482536
-0.00425455
0.00549693
-0.00403449
0.00612806
-0.00379279
0.00671509
-0.00352889
0.00725435
-0.00324258
0.00774213
-0.00293379
0.00817473
-0.00260295
0.00854861
-0.00225088
0.00886038
-0.00187904
0.00910713
-0.00148916
0.00928648
-0.00108428
0.00939636
-0.000667696
0.00943518
-0.000242821
0.0094024
0.000186258
0.00929851
0.000612853
0.00912471
0.00103285
0.00888346
0.00143972
0.00857793
0.00182733
0.00821228
0.00218884
0.00779183
0.0025176
0.00732399
0.00280252
0.00681707
0.00303787
0.00627593
0.00324425
0.00571029
0.0033928
0.00512977
0.00348331
0.00454387
0.0035157
0.00396239
0.00348958
0.0033948
0.00340684
0.00285026
0.00326877
0.00233623
0.00308598
0.00186026
0.00285774
0.00142686
0.00260214
0.0010407
0.0023186
0.00203391
0.000701929
-0.0390829
-0.0197024
-0.0361245
-0.0204703
-0.0330629
-0.0211959
-0.0299053
-0.0218721
-0.0266575
-0.0225012
-0.0233272
-0.0230761
-0.0199233
-0.0235937
-0.0164531
-0.0240482
-0.0129273
-0.0244343
-0.00935724
-0.0247434
-0.00575351
-0.0249718
-0.00213124
-0.0251074
0.0014982
-0.0251488
0.00511746
-0.0250785
0.00871048
-0.024895
0.0122592
-0.0245891
0.0157447
-0.024154
0.0191474
-0.0235848
0.0224466
-0.0228745
0.0256216
-0.0220211
0.0286506
-0.0210212
0.0315121
-0.0198738
0.0341851
-0.0185817
0.0366486
-0.0171469
0.0388828
-0.0155766
0.0408689
-0.0138783
0.0425902
-0.0120639
0.0440313
-0.010144
0.0451794
-0.00813536
0.0460243
-0.00605431
0.0465584
-0.00392029
0.0467773
-0.00175298
0.0466798
0.000422879
0.046269
0.00258417
0.0455682
0.0046048
0.0445619
0.00669245
0.0432625
0.00872442
0.0416885
0.0106327
0.0398594
0.012408
0.0377972
0.0140358
0.0355261
0.0155002
0.0330723
0.0167863
0.0304637
0.0178835
0.0277293
0.0187816
0.0248993
0.0194752
0.0220035
0.0199621
0.019072
0.0202445
0.0161334
0.0203259
0.0132161
0.0202151
0.010346
0.0199197
0.00754703
0.0194567
0.00484245
0.0188374
0.0022499
0.0180797
-0.000210555
0.0172034
-0.00252879
0.0162177
-0.00469062
0.0151567
-0.00668805
0.0140314
-0.0085152
0.0128602
-0.0101684
0.0116599
-0.0116466
0.0104472
-0.0129502
0.00923611
-0.014082
0.00803979
-0.015046
0.00686939
-0.0158475
0.00573386
-0.0164929
0.00464071
-0.0169894
0.00359604
-0.0173448
0.00260479
-0.0175675
0.00167043
-0.017666
0.000794912
-0.017649
-1.94693e-05
-0.017526
-0.00077014
-0.0173021
-0.00147531
-0.0169873
-0.00212463
-0.0165906
-0.00270512
-0.0161196
-0.00323199
-0.0155816
-0.00370732
-0.0149836
-0.00413295
-0.0143323
-0.0045125
-0.0136338
-0.00484765
-0.0128941
-0.00514198
-0.0121184
-0.0053975
-0.011312
-0.00561671
-0.0104795
-0.00580299
-0.00962573
-0.0059569
-0.00875443
-0.00608223
-0.00786949
-0.00617937
-0.00697466
-0.00625086
-0.00607344
-0.00629782
-0.00516923
-0.00632107
-0.00426496
-0.00632362
-0.00336381
-0.00630289
-0.00246886
-0.00626174
-0.00158269
-0.00620139
-0.000708234
-0.00612008
0.000151538
-0.00601925
0.000993716
-0.0058962
0.00181538
-0.00575351
0.00261353
-0.00558972
0.00338501
-0.0054038
0.0041266
-0.00519521
0.00483484
-0.00496279
0.00550625
-0.0047059
0.0061373
-0.00442385
0.00672427
-0.00411586
0.00726337
-0.00378167
0.00775085
-0.00342127
0.00818304
-0.00303514
0.00855643
-0.00262427
0.00886766
-0.00219027
0.00911403
-0.00173553
0.0092926
-0.00126285
0.00940141
-0.000776508
0.00943968
-0.000281095
0.00940662
0.000219326
0.00930255
0.000716918
0.00912869
0.00120671
0.00888709
0.00168132
0.00858061
0.00213381
0.00821387
0.00255559
0.00779278
0.00293869
0.00732475
0.00327054
0.00681765
0.00354497
0.00627606
0.00378584
0.00570994
0.00395892
0.00512922
0.00406403
0.00454329
0.00410163
0.00396184
0.00407102
0.00339433
0.00397435
0.00284984
0.00381326
0.00233586
0.00359997
0.00185996
0.00333364
0.00142663
0.00303546
0.00104055
0.00270468
0.00237262
0.000701845
-0.039196
-0.022567
-0.0362224
-0.0234439
-0.0331461
-0.0242722
-0.029973
-0.0250452
-0.02671
-0.0257642
-0.0233635
-0.0264225
-0.0199423
-0.027015
-0.0164548
-0.0275357
-0.0129124
-0.0279767
-0.00932371
-0.0283321
-0.00570024
-0.0285953
-0.00205844
-0.0287492
0.00159126
-0.0287985
0.00523134
-0.0287186
0.00884535
-0.028509
0.0124152
-0.028159
0.0159219
-0.0276607
0.0193454
-0.0270083
0.022665
-0.0261941
0.0258593
-0.0252155
0.0289067
-0.0240686
0.0317851
-0.0227522
0.0344732
-0.0212698
0.0369497
-0.0196233
0.0391945
-0.0178214
0.0411888
-0.0158726
0.0429154
-0.0137905
0.0443589
-0.0115875
0.0455063
-0.00928273
0.0463474
-0.00689538
0.0468743
-0.00444722
0.0470829
-0.00196163
0.0469723
0.000533539
0.0465457
0.00301073
0.0458277
0.00532284
0.0448003
0.00771986
0.043478
0.0100467
0.0418794
0.0122312
0.0400246
0.0142628
0.0379358
0.0161247
0.0356377
0.0177983
0.0331569
0.019267
0.0305216
0.0205187
0.0277616
0.0215416
0.0249071
0.0223297
0.0219883
0.022881
0.0190355
0.0231973
0.016078
0.0232834
0.0131441
0.023149
0.0102596
0.0228043
0.00744877
0.0222676
0.00473473
0.0215514
0.00213516
0.0206792
-0.000330257
0.0196689
-0.00265091
0.0185384
-0.00481341
0.0173192
-0.00680975
0.0160277
-0.00863428
0.0146848
-0.0102837
0.0133092
-0.0117568
0.0119204
-0.0130547
0.0105339
-0.01418
0.00916517
-0.0151373
0.00782662
-0.0159318
0.00652837
-0.0165701
0.00527904
-0.0170596
0.00408551
-0.0174081
0.00295331
-0.0176241
0.00188642
-0.0177159
0.00088675
-0.0176931
-4.23318e-05
-0.0175646
-0.000898587
-0.0173351
-0.00170482
-0.0170155
-0.00244422
-0.0166143
-0.00310632
-0.0161393
-0.00370706
-0.0155976
-0.00424901
-0.0149962
-0.00473429
-0.0143419
-0.0051668
-0.0136408
-0.00554874
-0.0128986
-0.00588425
-0.012121
-0.00617509
-0.0113126
-0.00642508
-0.0104786
-0.00663697
-0.0096233
-0.00681223
-0.00875059
-0.00695494
-0.00786469
-0.00706527
-0.00696907
-0.00714648
-0.00606726
-0.00719962
-0.00516217
-0.00722616
-0.00425766
-0.00722813
-0.00335607
-0.00720449
-0.00246036
-0.00715745
-0.00157405
-0.00708771
-0.000699414
-0.00699472
0.000160609
-0.00687927
0.00100296
-0.00673855
0.00182475
-0.0065753
0.00262297
-0.00638795
0.0033945
-0.00617532
0.00413604
-0.00593676
0.00484423
-0.00567098
0.00551559
-0.00537726
0.00614645
-0.00505471
0.00673313
-0.00470254
0.00727196
-0.0043205
0.00775917
-0.00390848
0.00819108
-0.00346705
0.00856413
-0.00299732
0.00887513
-0.00250127
0.00912081
-0.0019812
0.00929891
-0.00144096
0.00940766
-0.000885252
0.00944563
-0.000319063
0.00941201
0.000252939
0.00930723
0.000821704
0.00913222
0.00138172
0.00888928
0.00192425
0.00858217
0.00244092
0.00821528
0.00292248
0.00779382
0.00336015
0.00732507
0.0037393
0.00681715
0.00405289
0.0062752
0.00432779
0.00570923
0.00452488
0.00512863
0.00464463
0.00454279
0.00468746
0.0039614
0.00465242
0.00339387
0.00454188
0.00284939
0.00435773
0.00233546
0.0041139
0.00185967
0.00380944
0.00142644
0.0034687
0.00104042
0.00309069
0.00271129
0.000701753
-0.0393421
-0.0254488
-0.0363524
-0.0264336
-0.0332592
-0.0273654
-0.0300692
-0.0282352
-0.026789
-0.0290444
-0.0234243
-0.0297873
-0.0199858
-0.0304534
-0.0164792
-0.0310423
-0.0129157
-0.0315402
-0.00930614
-0.0319417
-0.00566208
-0.0322394
-0.00199755
-0.0324138
0.00167562
-0.0324716
0.00533971
-0.0323827
0.00897812
-0.0321474
0.0125726
-0.0317536
0.016104
-0.0311921
0.019552
-0.0304563
0.0228957
-0.0295377
0.0261131
-0.0284329
0.0291821
-0.0271376
0.0320812
-0.0256512
0.0347878
-0.0239764
0.0372805
-0.0221161
0.039539
-0.0200799
0.0415439
-0.0178775
0.0432782
-0.0155248
0.0447259
-0.0130353
0.0458739
-0.0104306
0.0467123
-0.00773383
0.0472326
-0.00496755
0.0474312
-0.00216024
0.0473071
0.000657735
0.0468638
0.00345398
0.0461273
0.00605932
0.0450774
0.00876979
0.0437302
0.0113939
0.0421049
0.0138565
0.0402217
0.016146
0.0381035
0.0182428
0.0357754
0.0201264
0.0332645
0.0217779
0.0305996
0.0231836
0.0278107
0.0243305
0.0249285
0.0252119
0.0219838
0.0258256
0.019007
0.0261741
0.0160279
0.0262626
0.0130747
0.0261021
0.0101737
0.0257053
0.00734917
0.0250921
0.00462366
0.0242769
0.00201604
0.0232869
-0.000456318
0.0221412
-0.00278049
0.0208625
-0.00494444
0.0194831
-0.00694027
0.0180236
-0.00876258
0.0165071
-0.0104083
0.014955
-0.0118766
0.0133887
-0.0131687
0.011826
-0.0142876
0.010284
-0.0152378
0.00877686
-0.0160249
0.00731548
-0.0166557
0.00590987
-0.0171377
0.00456746
-0.0174789
0.00329452
-0.0176877
0.0020952
-0.017773
0.000972079
-0.0177434
-7.19212e-05
-0.0176089
-0.00103309
-0.0173733
-0.00194048
-0.0170485
-0.00276903
-0.0166425
-0.00351232
-0.0161629
-0.00418664
-0.0156172
-0.00479466
-0.0150123
-0.00533925
-0.0143547
-0.00582435
-0.0136506
-0.00625281
-0.0129059
-0.00662902
-0.0121259
-0.00695503
-0.0113155
-0.00723547
-0.0104799
-0.0074726
-0.00962286
-0.00766928
-0.00874905
-0.00782875
-0.00786184
-0.00795248
-0.00696518
-0.00804315
-0.00606224
-0.00810256
-0.00515647
-0.00813193
-0.00425129
-0.00813331
-0.00334911
-0.00810667
-0.0024529
-0.00805366
-0.00156618
-0.00797443
-0.000691211
-0.00786968
0.000169092
-0.00773958
0.00101166
-0.00758111
0.00183363
-0.00739728
0.00263199
-0.00718631
0.0034036
-0.00694693
0.00414519
-0.00667835
0.0048534
-0.00637919
0.0055247
-0.00604856
0.00615554
-0.00568555
0.00674218
-0.00528918
0.00728088
-0.00485919
0.00776787
-0.00439547
0.00819947
-0.00389866
0.00857221
-0.00337005
0.0088826
-0.00281166
0.00912793
-0.00222653
0.00930566
-0.00161869
0.00941378
-0.000993375
0.00945095
-0.000356232
0.00941648
0.000287408
0.00931087
0.000927319
0.00913523
0.00155735
0.00889213
0.00216735
0.00858499
0.00274807
0.00821771
0.00328976
0.00779572
0.00378214
0.00732654
0.00420848
0.00681844
0.00456099
0.00627648
0.00486976
0.00570995
0.00509141
0.00512834
0.00522624
0.00454213
0.00527367
0.00396092
0.00523363
0.00339347
0.00510933
0.00284902
0.00490218
0.00233512
0.00462779
0.00185935
0.00428521
0.00142615
0.0039019
0.00104027
0.00347657
0.00304991
0.000701648
-0.0395217
-0.0283488
-0.0365149
-0.0294404
-0.0334032
-0.0304771
-0.0301951
-0.0314432
-0.0268964
-0.0323431
-0.0235125
-0.0331711
-0.0200525
-0.0339134
-0.0165257
-0.0345691
-0.0129393
-0.0351267
-0.00930806
-0.0355729
-0.00563764
-0.0359098
-0.00194741
-0.036104
0.00175076
-0.0361698
0.005442
-0.0360739
0.00910818
-0.0358136
0.0127308
-0.0353762
0.0162905
-0.0347517
0.0197668
-0.0339327
0.023138
-0.0329089
0.0263823
-0.0316772
0.0294769
-0.0302322
0.0324002
-0.0285745
0.0351286
-0.0267047
0.0376408
-0.0246283
0.0399159
-0.0223551
0.0419344
-0.019896
0.0436785
-0.0172689
0.0451323
-0.0144891
0.0462825
-0.0115809
0.0471192
-0.0085705
0.0476335
-0.00548186
0.0478219
-0.00234866
0.0476841
0.000795583
0.047223
0.00391503
0.0464671
0.00681523
0.0453928
0.00984412
0.0440186
0.0127681
0.0423641
0.015511
0.0404499
0.0180603
0.0382994
0.0203934
0.0359381
0.0224877
0.0333938
0.0243222
0.0306958
0.0258816
0.0278746
0.0271516
0.0249615
0.0281251
0.0219876
0.0287994
0.018984
0.0291778
0.01598
0.0292665
0.0130049
0.0290773
0.0100849
0.0286253
0.00724489
0.0279321
0.00450633
0.0270155
0.00188796
0.0259052
-0.000591145
0.0246203
-0.00291968
0.0231911
-0.00508561
0.0216491
-0.00708132
0.0200193
-0.00890149
0.0183272
-0.0105434
0.0165969
-0.0120067
0.014852
-0.0132926
0.0131119
-0.0144044
0.0113959
-0.0153472
0.00971958
-0.0161264
0.00809472
-0.0167492
0.00653264
-0.0172231
0.0050414
-0.0175564
0.00362779
-0.0177575
0.00229629
-0.0178352
0.00104982
-0.0177988
-0.00010831
-0.0176579
-0.00117403
-0.0174157
-0.00218272
-0.0170852
-0.0030995
-0.016674
-0.0039235
-0.0161897
-0.00467098
-0.0156397
-0.00534464
-0.0150309
-0.00594807
-0.0143698
-0.00648544
-0.0136625
-0.00696012
-0.012915
-0.00737647
-0.0121325
-0.00773755
-0.0113199
-0.00804803
-0.0104823
-0.00831021
-0.00962356
-0.00852804
-0.00874815
-0.00870417
-0.00785967
-0.00884095
-0.00696187
-0.00894094
-0.00605803
-0.0090064
-0.00515147
-0.00903849
-0.00424557
-0.0090392
-0.00334277
-0.00900947
-0.002446
-0.00895043
-0.00155883
-0.0088616
-0.000683456
-0.00874506
0.000177174
-0.00860021
0.00102002
-0.00842396
0.00184223
-0.00821949
0.00264078
-0.00798486
0.00341255
-0.00771869
0.00415428
-0.00742008
0.00486257
-0.00708748
0.00553393
-0.00671993
0.00616474
-0.00631635
0.00675127
-0.00587572
0.0072898
-0.00539772
0.00777657
-0.00488224
0.0082079
-0.00432999