/*--------------------------------*- C++ -*----------------------------------*\
| =========                 |                                                 |
| \\      /  F ield         | OpenFOAM: The Open Source CFD Toolbox           |
|  \\    /   O peration     | Version:  v1912                                 |
|   \\  /    A nd           | Website:  www.openfoam.com                      |
|    \\/     M anipulation  |                                                 |
\*---------------------------------------------------------------------------*/
FoamFile
{
    version     2.0;
    format      ascii;
    class       surfaceScalarField;
    location    "70";
    object      alphaPhi0.water;
}
// * * * * * * * * * * * * * * * * * * * * * * * * * * * * * * * * * * * * * //

dimensions      [0 3 -1 0 0 0 0];
oriented        oriented;


internalField   nonuniform List<scalar> 
28285
(
1.71796e-07
-5.42075e-08
1.81875e-07
-5.29768e-09
1.28436e-07
4.86572e-08
8.06742e-08
1.02174e-07
1.23604e-07
3.92252e-08
2.02801e-07
-2.14654e-08
2.84255e-07
-3.77242e-08
4.06011e-07
-1.1811e-07
5.73046e-07
-2.57437e-07
3.06715e-07
-4.9852e-08
2.74199e-07
3.25156e-08
2.32795e-07
4.14042e-08
4.90151e-07
9.42301e-08
-2.87512e-08
5.18436e-07
-1.36646e-07
1.07456e-07
3.30747e-08
-1.70195e-07
1.22227e-07
-8.86971e-08
6.88391e-08
5.38413e-08
3.20319e-08
1.1414e-08
6.3517e-08
-2.64711e-08
7.3028e-08
-2.83262e-08
6.87154e-08
6.69666e-10
7.80189e-08
1.78449e-09
1.19773e-07
-2.44256e-08
1.84662e-07
-4.75448e-08
2.55105e-07
-6.86879e-08
2.36599e-07
1.78577e-09
9.59098e-08
1.33479e-07
-7.71127e-08
1.80233e-07
-1.06218e-07
1.37351e-08
-8.25009e-08
-1.37252e-08
-4.17677e-08
-1.6356e-08
-7.6075e-10
-1.662e-08
4.04445e-08
-1.6679e-08
8.43241e-08
-1.93591e-08
1.3433e-07
-2.11802e-08
1.97314e-07
-2.51153e-08
2.83443e-07
-3.28067e-08
3.70357e-07
-5.07972e-08
3.73434e-07
-3.95114e-08
3.91207e-07
2.89903e-09
3.50628e-07
1.20421e-08
3.48671e-07
2.17655e-08
3.25425e-07
3.32713e-10
3.31307e-07
-3.68278e-08
3.14859e-07
-2.84045e-08
2.75313e-07
1.98491e-10
2.41878e-07
2.87787e-09
2.00986e-07
5.59685e-09
1.53943e-07
4.41266e-09
1.21509e-07
1.76305e-09
1.09007e-07
8.51276e-11
1.05164e-07
-1.49125e-09
1.02902e-07
-1.16711e-09
1.03371e-07
-7.68248e-10
1.06023e-07
-3.46791e-10
8.70516e-08
1.97511e-08
-2.58564e-07
1.39823e-07
-8.60161e-07
5.14224e-07
-8.09619e-07
2.77385e-08
-8.99466e-07
1.97302e-09
-7.92019e-07
-1.95734e-08
-8.40445e-07
-2.8238e-08
-7.28331e-07
-4.25301e-08
-7.06897e-07
-9.77719e-08
-5.76904e-07
-8.87901e-08
-4.2576e-07
-1.29084e-07
-2.75115e-07
-8.90396e-08
-1.73959e-07
-6.19058e-08
-9.27518e-08
-5.36895e-08
-2.61823e-08
-4.59461e-08
2.47786e-08
-3.37156e-08
4.31149e-08
-1.31145e-08
5.21654e-08
-5.82052e-09
5.67932e-08
-4.30729e-09
4.9411e-08
3.30993e-09
3.44584e-08
7.46819e-09
2.63956e-08
2.47537e-09
4.32328e-08
-1.94112e-08
6.66345e-08
-2.49782e-08
9.41407e-08
-2.62327e-08
1.34468e-07
-3.27996e-08
1.7428e-07
-2.16193e-08
2.25566e-07
-1.72237e-08
2.50591e-07
-1.86698e-08
2.5519e-07
1.70495e-09
2.04282e-07
2.09065e-08
1.33341e-07
1.90128e-08
1.14245e-07
4.44803e-09
1.22538e-07
-4.18059e-10
1.85644e-07
-9.3959e-10
3.89147e-07
-2.76507e-09
5.66182e-07
-5.04621e-09
5.63974e-07
8.08653e-09
5.97525e-07
-2.76698e-08
6.2975e-07
-6.15722e-08
6.50986e-07
-5.67697e-08
6.73975e-07
-6.41948e-08
5.31316e-07
-4.46008e-08
1.49276e-07
1.80462e-09
9.66074e-09
1.01875e-08
1.22862e-08
8.15983e-10
1.51071e-08
-3.50599e-10
1.74353e-08
-7.70438e-10
2.01788e-08
-1.18684e-09
2.38088e-08
-3.50631e-10
2.98062e-08
-2.36474e-10
3.64093e-08
1.74195e-10
4.13612e-08
4.03983e-10
4.41267e-08
4.40449e-10
4.96004e-08
7.62868e-10
7.57636e-08
1.67106e-09
1.01012e-07
5.52645e-09
9.36541e-08
7.11432e-09
9.15034e-08
2.39394e-09
8.60484e-08
-3.20923e-09
3.82732e-08
-2.78553e-09
2.81241e-23
1.07149e-10
-2.06285e-27
2.58092e-23
-6.5278e-30
-4.87393e-31
-8.09331e-31
-5.27491e-32
-1.45647e-31
-7.18764e-33
-4.88899e-32
-2.09853e-33
-2.23804e-32
-9.05871e-34
-9.52785e-33
-3.77339e-34
-3.68638e-33
-1.45421e-34
-1.33843e-33
-5.27274e-35
-4.64745e-34
-1.8226e-35
-1.54783e-34
-6.04125e-36
-4.91782e-35
-1.91785e-36
-1.48063e-35
-5.80246e-37
-4.2045e-36
-1.66132e-37
-1.12393e-36
-4.47003e-38
-2.82911e-37
-1.12885e-38
-6.71623e-38
-2.69436e-39
-1.50711e-38
-6.10453e-40
-3.20456e-39
-1.31629e-40
-6.47192e-40
-2.69897e-41
-1.24411e-40
-5.2507e-42
-2.28016e-41
-9.68594e-43
-3.98773e-42
-1.69867e-43
-6.6536e-43
-2.84961e-44
-1.05778e-43
-4.58062e-45
-1.5992e-44
-7.0121e-46
-2.29384e-45
-1.01997e-46
-3.1153e-46
-1.39167e-47
-3.99494e-47
-1.8246e-48
-4.83138e-48
-2.19226e-49
-5.49228e-49
-2.60054e-50
-2.68743e-51
-5.87263e-50
6.78969e-07
-1.29397e-07
5.75863e-07
1.24237e-07
4.24611e-07
8.00971e-07
4.19018e-07
8.54649e-07
4.76525e-07
5.72954e-09
4.58473e-07
-2.72989e-08
5.81048e-07
-6.99029e-08
7.76415e-07
-1.29186e-07
9.93217e-07
-2.89869e-07
8.78827e-07
-3.91812e-10
3.3168e-07
1.18334e-07
2.49933e-07
1.23151e-07
3.96183e-07
1.03093e-07
1.53887e-07
7.60303e-07
8.50657e-08
2.40925e-08
1.6996e-07
-2.55537e-07
1.48292e-07
-6.7755e-08
6.95051e-08
9.83264e-09
2.16195e-08
7.73248e-11
2.63111e-08
-1.35919e-08
4.30006e-08
-1.17464e-08
6.97318e-08
1.92672e-08
7.45517e-08
7.31686e-09
5.2064e-08
-2.2532e-08
6.91361e-08
-4.20678e-08
1.33139e-07
-3.49333e-08
1.61187e-07
-6.77943e-10
1.86465e-07
1.15411e-07
1.76658e-07
1.82829e-07
1.32345e-07
-6.35622e-08
5.70766e-08
-3.19152e-08
4.50908e-08
-8.74772e-09
4.60522e-08
-4.89789e-09
5.77903e-08
-1.8496e-09
5.52333e-08
-2.15861e-09
4.98503e-08
-2.00683e-09
5.12243e-08
-7.34595e-09
6.70788e-08
-1.22169e-08
1.35036e-07
-1.51667e-08
2.65573e-07
-1.0718e-08
3.76788e-07
1.37035e-09
3.92611e-07
1.31417e-08
3.85434e-07
4.7092e-09
3.87073e-07
-2.36513e-08
3.71551e-07
-6.36491e-08
3.47596e-07
-4.59914e-08
3.28902e-07
-1.28598e-08
3.06229e-07
4.72676e-09
2.77201e-07
1.05621e-08
2.38271e-07
5.89281e-09
1.89938e-07
5.02761e-10
1.35102e-07
-6.0667e-09
7.54618e-08
-3.00107e-09
2.85284e-08
-2.63767e-10
7.58503e-09
-1.52361e-11
6.66879e-09
-5.3318e-18
1.53392e-08
9.20111e-16
4.55871e-09
3.91497e-08
-4.36736e-07
5.29529e-07
-5.86218e-07
9.0296e-13
-3.39534e-07
-2.28479e-07
-1.61778e-07
-8.99284e-08
-8.95391e-08
-4.55956e-08
-1.19927e-07
-1.58063e-08
-1.08473e-07
-2.78211e-08
3.88816e-08
-8.94769e-08
1.19869e-07
-6.55513e-08
1.31678e-07
-2.71042e-08
1.41516e-07
-1.70266e-08
1.44427e-07
-1.43549e-08
1.38909e-07
-1.33967e-08
1.29388e-07
-1.1489e-08
1.22175e-07
-6.00234e-09
1.17343e-07
-2.05725e-09
1.14743e-07
-4.52344e-14
1.28086e-07
-3.9819e-13
1.48936e-07
2.98295e-09
1.54902e-07
5.76229e-09
1.39023e-07
-1.85196e-09
1.23078e-07
-6.17222e-09
1.07417e-07
-4.24462e-09
8.60099e-08
-1.70312e-08
6.06831e-08
-1.15774e-08
6.0552e-08
-7.36276e-09
8.45905e-08
-9.00935e-09
1.02021e-07
-5.85186e-10
7.77075e-08
3.24807e-09
2.04817e-08
-6.47556e-14
3.87555e-09
5.75408e-10
3.75381e-09
-3.1086e-10
4.96069e-09
-9.91844e-10
1.49792e-08
-1.50124e-09
9.80347e-08
-4.33946e-09
2.78942e-07
-9.93191e-09
3.1371e-07
-1.59842e-08
2.74684e-07
-2.24502e-08
2.2637e-07
-2.77324e-08
2.4247e-07
-3.82092e-08
2.97769e-07
-3.51758e-08
2.5382e-07
1.77513e-09
3.35128e-08
5.47303e-08
3.00726e-09
4.07954e-10
3.30926e-09
-4.30919e-10
4.14949e-09
-1.55956e-09
4.76565e-09
-2.256e-09
4.65004e-09
-1.38212e-09
5.66213e-09
-4.18646e-10
9.69059e-09
-8.17667e-12
1.44234e-08
4.04662e-14
1.7449e-08
1.04881e-10
1.99938e-08
5.44492e-10
2.921e-08
2.57191e-10
5.37022e-08
1.38257e-09
7.13302e-08
5.13571e-09
6.77803e-08
2.00172e-09
6.10618e-08
-1.91988e-09
3.97013e-08
-2.21138e-09
6.59299e-09
7.88016e-10
7.75378e-22
2.13434e-10
5.27524e-32
2.2318e-23
-2.09697e-41
3.28583e-36
-1.17031e-31
-1.14074e-32
-9.86422e-32
-8.44696e-33
-5.02759e-32
-4.07022e-33
-1.95256e-32
-1.54754e-33
-6.32854e-33
-4.99663e-34
-1.82217e-33
-1.43679e-34
-4.92661e-34
-3.86706e-35
-1.31156e-34
-1.02459e-35
-3.53354e-35
-2.75817e-36
-9.6326e-36
-7.55571e-37
-2.60769e-36
-2.06245e-37
-6.86367e-37
-5.4638e-38
-1.7311e-37
-1.38264e-38
-4.15334e-38
-3.33497e-39
-9.45719e-39
-7.66778e-40
-2.04405e-39
-1.68049e-40
-4.19856e-40
-3.50475e-41
-8.20648e-41
-6.93234e-42
-1.52791e-41
-1.29917e-42
-2.71062e-42
-2.31116e-43
-4.5795e-43
-3.92591e-44
-7.3568e-44
-6.37668e-45
-1.12156e-44
-9.8438e-46
-1.61897e-45
-1.44084e-46
-2.20871e-46
-1.97517e-47
-2.84086e-47
-2.59669e-48
-3.44131e-48
-3.12626e-49
-3.91475e-49
-3.70916e-50
-3.83439e-51
-4.18474e-50
1.30073e-06
-1.01207e-07
1.25246e-06
6.43264e-08
9.12479e-07
4.84557e-07
5.3848e-07
4.82598e-07
3.44609e-07
1.20657e-07
2.42349e-07
-9.43804e-09
6.50974e-08
-6.63842e-09
8.91822e-08
-4.0799e-08
6.01464e-07
-1.42023e-07
1.12037e-06
-3.20931e-07
5.98427e-07
1.98491e-07
3.32764e-07
2.93542e-07
3.02605e-07
8.73483e-08
3.72835e-07
6.89614e-07
1.07548e-07
5.86331e-08
6.80012e-08
-1.11826e-07
1.6008e-07
-1.60566e-07
1.3165e-08
5.41082e-08
6.49639e-09
7.67677e-09
1.18949e-08
-1.99212e-08
1.55823e-08
-1.4503e-08
5.11812e-08
2.57653e-08
3.6116e-08
3.52906e-08
3.58623e-08
-2.22629e-08
5.54408e-08
-6.16617e-08
7.39553e-08
-5.34324e-08
7.60923e-08
-2.83039e-09
2.30462e-07
7.88278e-08
2.59769e-07
2.91614e-08
1.45504e-07
-8.30192e-08
4.02778e-08
-1.75358e-08
2.01269e-08
-6.76627e-09
1.92522e-08
-2.66556e-09
1.71379e-08
-6.07643e-10
1.57312e-08
6.23989e-10
1.30609e-08
-5.00418e-10
1.60727e-08
-6.9313e-09
1.93987e-08
-1.25999e-08
2.53863e-08
-1.51466e-08
4.45596e-08
-1.26837e-08
1.23459e-07
-5.23222e-09
2.44412e-07
1.31642e-09
2.87873e-07
1.77942e-09
2.84333e-07
-1.79451e-08
2.10186e-07
-3.35255e-08
1.29124e-07
-1.78603e-08
1.12345e-07
-7.07773e-09
1.20301e-07
-1.52968e-09
1.45291e-07
9.12346e-10
1.51765e-07
1.77618e-09
1.44641e-07
7.8999e-10
1.04523e-07
3.75132e-11
4.91688e-08
8.64949e-11
7.3631e-09
7.71155e-12
2.04158e-10
1.32509e-14
7.0775e-11
1.08027e-15
6.42412e-11
1.27366e-12
9.71093e-09
2.74163e-13
-2.42412e-07
2.15749e-07
-2.63563e-07
3.56308e-08
9.75978e-08
-3.3456e-07
8.96076e-08
-7.50261e-08
9.00372e-08
-1.81685e-08
8.63638e-08
-9.19066e-09
8.72824e-08
-1.48538e-08
6.13299e-08
-3.57929e-08
3.81965e-08
-3.3868e-08
2.64603e-08
-1.0949e-08
2.75488e-08
-4.63615e-09
2.98102e-08
-2.72199e-09
3.20201e-08
-2.50372e-09
3.40538e-08
-2.07482e-09
3.91951e-08
-1.21866e-09
4.23021e-08
-1.21608e-09
4.03641e-08
-3.0367e-12
3.4052e-08
-2.00268e-14
3.33905e-08
-3.82298e-14
4.17129e-08
-3.65955e-14
5.33714e-08
-2.13942e-14
9.21588e-08
1.51902e-09
1.03899e-07
1.18152e-08
7.23427e-08
4.93748e-09
3.01352e-08
-5.4456e-09
1.82105e-08
-4.36229e-09
1.88556e-08
-2.28479e-09
1.80222e-08
-1.57797e-10
5.46119e-09
1.203e-09
1.48317e-09
1.42868e-09
1.09166e-09
2.01377e-10
1.73725e-09
-1.5165e-09
2.18118e-09
-4.57275e-09
2.16916e-09
-4.63111e-09
1.53219e-08
1.08836e-13
5.01925e-08
-7.43017e-09
6.72173e-08
-1.49533e-08
7.13508e-08
-1.85877e-08
7.56424e-08
-2.68194e-08
1.0519e-07
-2.74557e-08
2.20558e-07
-2.8083e-08
1.88539e-07
8.48294e-11
2.60447e-08
7.15133e-08
1.35827e-09
3.81082e-09
2.71571e-09
1.58182e-11
4.2445e-09
-1.85541e-09
4.09694e-09
-3.00305e-09
4.41966e-09
-2.59674e-09
4.61954e-09
-1.37584e-10
8.29631e-09
3.05437e-10
8.42313e-09
8.63987e-10
8.59733e-09
9.15021e-10
9.10275e-09
1.0169e-09
9.30132e-09
1.85333e-09
1.2528e-08
1.14461e-09
2.53448e-08
5.00755e-14
3.50549e-08
5.33411e-10
3.62507e-08
3.45186e-11
3.43681e-08
-4.52293e-10
1.26718e-08
1.81228e-11
3.39599e-21
1.14063e-09
2.54565e-34
3.21228e-22
2.5834e-35
5.0111e-36
-2.61603e-32
-3.76815e-33
-2.82137e-32
-3.61321e-33
-1.7678e-32
-2.14673e-33
-8.47176e-33
-1.00777e-33
-3.43973e-33
-4.07653e-34
-1.24213e-33
-1.47017e-34
-4.09944e-34
-4.82999e-35
-1.25879e-34
-1.47604e-35
-3.6433e-35
-4.26863e-36
-1.00345e-35
-1.18141e-36
-2.64651e-36
-3.14174e-37
-6.70433e-37
-8.01027e-38
-1.63194e-37
-1.95635e-38
-3.81123e-38
-4.59305e-39
-8.52027e-39
-1.03685e-39
-1.81928e-39
-2.24483e-40
-3.70399e-40
-4.64056e-41
-7.18293e-41
-9.10651e-42
-1.32607e-41
-1.69223e-42
-2.32962e-42
-2.98101e-43
-3.89196e-43
-5.00737e-44
-6.1757e-44
-8.03358e-45
-9.29379e-45
-1.2242e-45
-1.32412e-45
-1.76854e-46
-1.78349e-46
-2.3936e-47
-2.26615e-47
-3.10853e-48
-2.71394e-48
-3.70014e-49
-3.0549e-49
-4.34364e-50
-4.44709e-51
-3.23399e-50
1.08409e-07
-1.192e-09
4.82949e-07
8.92502e-10
4.91108e-07
1.31936e-07
3.56334e-07
1.3056e-07
1.08545e-07
5.34847e-09
9.29734e-09
-9.02935e-15
8.13523e-09
-5.81491e-09
3.27216e-08
-5.78034e-08
1.3647e-07
-1.65224e-07
6.60228e-07
-2.85161e-07
8.95277e-07
1.18548e-07
2.97099e-07
6.51802e-07
1.41639e-07
1.13519e-07
3.49504e-07
2.39699e-07
1.07307e-07
6.00272e-08
3.89063e-08
-1.50634e-08
1.58552e-07
-1.96099e-07
9.29225e-08
7.60192e-08
4.24664e-08
7.06894e-08
2.17114e-08
-6.05154e-08
2.30667e-08
-3.05956e-08
6.88487e-08
4.28733e-08
4.70876e-08
7.3511e-08
4.29153e-08
-1.95728e-08
7.09102e-08
-2.01965e-07
6.75379e-08
-5.00755e-08
7.27324e-08
-8.00944e-09
1.04508e-07
1.39358e-07
1.91685e-07
1.33434e-11
8.32856e-08
-5.37283e-08
2.15618e-08
-3.17316e-09
1.82954e-08
-3.62016e-09
1.70434e-08
-2.15094e-09
1.57806e-08
1.56448e-09
1.27266e-08
2.87943e-09
1.16002e-08
1.76376e-09
1.54169e-08
-8.53785e-09
1.46266e-08
-8.50147e-09
1.60845e-08
-7.59463e-09
2.35353e-08
-8.24275e-09
4.2166e-08
-7.23881e-09
8.10413e-08
-2.78624e-09
1.07366e-07
-3.53611e-09
1.03251e-07
-1.01379e-08
7.64886e-08
-1.91354e-08
4.31432e-08
-2.40412e-08
3.71767e-08
-3.79304e-09
3.95352e-08
-1.20638e-09
4.81467e-08
6.22507e-15
6.80828e-08
1.54131e-10
7.16571e-08
6.07656e-10
6.25222e-08
5.11669e-10
3.15555e-08
4.3721e-10
3.90627e-09
1.35888e-10
7.48331e-13
1.0195e-11
6.50896e-13
1.0126e-13
1.21798e-12
7.03834e-13
1.88521e-11
-2.26556e-11
-2.58748e-07
1.13805e-07
-2.28097e-08
-1.50915e-07
4.79863e-08
-3.39231e-07
4.93724e-08
-8.38691e-08
5.47027e-08
-1.3993e-08
4.60618e-08
-2.03196e-09
2.98947e-08
-1.27023e-08
2.3825e-08
-4.79326e-08
1.89376e-08
-5.50874e-08
8.89853e-09
-1.86807e-08
8.57996e-09
-4.18951e-09
9.35384e-09
-3.60513e-09
9.80648e-09
-2.82773e-09
1.02987e-08
-2.67702e-09
1.08281e-08
-1.61888e-09
1.35408e-08
2.04724e-10
1.47626e-08
-2.06517e-10
1.18884e-08
1.70856e-10
6.85731e-09
8.57298e-10
5.61238e-09
3.46333e-10
7.44558e-09
4.55346e-10
3.10627e-08
2.47513e-13
5.72262e-08
7.59795e-09
4.64115e-08
4.54651e-09
1.64761e-08
-8.48041e-10
4.30584e-09
-1.46974e-09
4.05464e-09
-1.0047e-09
4.10208e-09
-1.80061e-10
2.81629e-09
2.51212e-09
6.05827e-09
9.06532e-09
3.7496e-08
1.6137e-08
5.7308e-08
-1.56696e-08
6.5571e-08
-3.76302e-08
4.02388e-08
-5.50164e-08
2.59414e-08
-2.27127e-08
2.53121e-08
-2.45689e-08
3.68189e-08
-8.02594e-09
4.41745e-08
-1.2115e-08
4.95728e-08
-2.9645e-08
5.15985e-08
-2.69218e-08
1.94356e-07
-1.50782e-09
1.64475e-07
5.88671e-08
4.40998e-08
1.14355e-07
1.98022e-09
1.26079e-08
2.18192e-09
-3.67109e-10
2.69237e-09
-9.88061e-11
4.98037e-09
-3.00866e-10
7.3454e-09
-1.36715e-09
1.01225e-08
-9.73396e-10
1.33421e-08
3.79564e-11
1.7533e-08
4.90649e-10
1.69461e-08
3.00082e-09
1.53934e-08
1.84784e-09
9.08373e-09
3.10417e-09
8.85265e-09
2.87201e-09
9.06485e-09
1.27938e-09
1.48809e-08
1.87956e-13
2.40708e-08
9.89344e-11
2.61628e-08
1.89825e-10
1.30211e-08
8.0256e-10
1.25909e-09
2.91097e-09
7.80264e-23
6.51351e-11
3.76951e-33
1.78773e-24
-2.20822e-43
1.358e-36
-2.5377e-32
-4.32111e-33
-1.48627e-32
-2.40633e-33
-5.90418e-33
-9.36903e-34
-2.08402e-33
-3.29491e-34
-7.20128e-34
-1.13704e-34
-2.45892e-34
-3.86471e-35
-8.11777e-35
-1.26975e-35
-2.54997e-35
-3.9853e-36
-7.58094e-36
-1.19056e-36
-2.13234e-36
-3.37655e-37
-5.67918e-37
-9.05072e-38
-1.43313e-37
-2.29156e-38
-3.42726e-38
-5.50904e-39
-7.76754e-39
-1.26078e-39
-1.66845e-39
-2.74591e-40
-3.39735e-40
-5.67716e-41
-6.56078e-41
-1.10938e-41
-1.20231e-41
-2.04636e-42
-2.09182e-42
-3.56997e-43
-3.45533e-43
-5.92918e-44
-5.41552e-44
-9.39561e-45
-8.04536e-45
-1.4134e-45
-1.13143e-45
-2.01542e-46
-1.50453e-46
-2.69301e-47
-1.88817e-47
-3.45424e-48
-2.23474e-48
-4.06351e-49
-2.4877e-49
-4.7173e-50
-4.77959e-51
-2.60622e-50
1.16702e-09
-2.15205e-10
5.32376e-08
-1.91002e-11
1.11774e-07
2.69261e-10
8.45199e-08
2.88423e-10
5.29206e-09
1.55387e-10
3.00413e-09
1.60708e-13
8.42394e-09
-9.10816e-09
5.24463e-08
-7.11939e-08
1.1526e-07
-1.57044e-07
6.12279e-07
-1.58068e-07
8.36025e-07
5.1946e-08
5.21693e-07
5.45342e-07
1.45429e-07
3.60865e-07
1.56421e-07
6.44146e-08
5.16472e-08
3.07334e-08
1.08752e-08
7.70333e-09
6.21294e-08
-3.86728e-08
8.74608e-08
9.44038e-08
8.1802e-08
4.41882e-08
7.19333e-08
-1.1411e-07
9.1325e-08
-5.67378e-08
1.21498e-07
4.7525e-08
7.77483e-08
1.23168e-07
1.08606e-07
-8.25275e-08
2.70886e-07
-5.27387e-07
1.17093e-07
-1.81841e-07
9.76955e-08
-2.27544e-08
1.37401e-07
2.23977e-07
1.45148e-07
2.80555e-08
1.69334e-08
-2.78406e-08
4.98847e-09
-4.76461e-10
2.04203e-08
-9.89287e-10
3.05425e-08
-2.98205e-09
2.80256e-08
1.02028e-08
2.47985e-08
1.1557e-08
2.11884e-08
5.95936e-11
1.36938e-08
-3.83771e-09
4.82633e-09
-8.90343e-10
5.43364e-09
-1.03978e-09
1.19483e-08
-1.94563e-09
2.72874e-08
-4.86104e-09
4.05902e-08
-6.15077e-09
4.86792e-08
-1.07796e-08
4.31345e-08
-9.03918e-09
4.3837e-08
-2.49652e-08
5.98579e-08
-3.05905e-08
6.21471e-08
-2.70964e-08
3.0358e-08
-1.18273e-08
2.47087e-08
3.1272e-10
2.77053e-08
1.05052e-10
2.85816e-08
6.33816e-10
2.68507e-08
3.92195e-10
1.6242e-08
4.46317e-10
3.76788e-09
3.06115e-10
3.99691e-11
1.27914e-10
3.88973e-11
1.19946e-11
1.69171e-10
1.3043e-10
2.2788e-11
1.50698e-10
-2.10485e-07
8.89658e-08
-3.09828e-09
-3.57803e-07
4.04822e-08
-3.41113e-07
4.59566e-08
-9.27204e-08
4.10452e-08
-1.26513e-08
1.01178e-07
-4.30646e-09
1.22398e-07
-1.76683e-08
1.30961e-07
-8.74856e-08
1.25941e-07
-9.3099e-08
6.72894e-08
-7.26595e-08
1.49486e-08
-3.11413e-08
1.05667e-08
-1.61429e-08
9.93217e-09
-1.07312e-08
9.99554e-09
-5.07814e-09
9.60127e-09
-2.89095e-09
7.25111e-09
-1.34304e-09
4.35878e-09
-3.14901e-10
4.08002e-09
5.14983e-10
4.1815e-09
7.53361e-10
4.17091e-09
4.20077e-10
3.8188e-09
8.05131e-10
5.67314e-09
1.46219e-09
1.90468e-08
1.34679e-09
1.50592e-08
1.42755e-10
4.25779e-09
-8.18223e-11
2.99929e-09
-1.8958e-09
2.70996e-09
-2.51783e-09
2.52427e-09
-2.92225e-14
8.30815e-09
1.01186e-08
6.11855e-08
7.78558e-08
1.66837e-07
7.73053e-08
1.81685e-07
-2.73467e-08
1.98036e-07
-4.36623e-08
1.85334e-07
-1.68751e-07
7.01113e-08
-9.51425e-08
5.34071e-08
-9.42538e-09
8.33027e-08
-6.80589e-09
1.2592e-07
-1.37676e-08
1.50059e-07
-4.01996e-08
1.47643e-07
-4.12517e-08
1.80667e-07
-9.65579e-09
1.99008e-07
5.99386e-08
1.60007e-07
2.70675e-07
2.80088e-08
7.93214e-08
2.89624e-11
-1.1839e-09
9.21428e-11
-1.95324e-11
3.46917e-10
-3.228e-11
3.10646e-09
-1.85917e-10
7.86683e-09
-4.54907e-10
1.09331e-08
6.14658e-11
1.54218e-08
6.44901e-11
2.1226e-08
1.05853e-09
2.17517e-08
2.79919e-09
1.87619e-08
3.47292e-09
9.30588e-09
6.39827e-09
8.6594e-09
3.85795e-09
8.82298e-09
1.76957e-09
1.4227e-08
1.10795e-10
1.59909e-08
2.31193e-10
1.47901e-08
4.97342e-10
4.92979e-09
1.19759e-09
1.4242e-21
8.26784e-10
1.07722e-34
3.30274e-22
7.16563e-36
2.75061e-35
-1.79786e-32
-3.81889e-33
-1.68808e-32
-3.41612e-33
-8.68831e-33
-1.72394e-33
-3.28481e-33
-6.49416e-34
-1.04683e-33
-2.06684e-34
-3.08155e-34
-6.05602e-35
-8.87487e-35
-1.73571e-35
-2.54909e-35
-4.98123e-36
-7.23415e-36
-1.42049e-36
-1.99294e-36
-3.94574e-37
-5.25905e-37
-1.04788e-37
-1.32004e-37
-2.63896e-38
-3.1424e-38
-6.31515e-39
-7.08769e-39
-1.43833e-39
-1.51436e-39
-3.11597e-40
-3.06554e-40
-6.40456e-41
-5.88183e-41
-1.24343e-41
-1.07026e-41
-2.27736e-42
-1.84778e-42
-3.94237e-43
-3.02712e-43
-6.49389e-44
-4.70348e-44
-1.02018e-44
-6.9255e-45
-1.52105e-45
-9.65199e-46
-2.14942e-46
-1.27202e-46
-2.84644e-47
-1.58242e-47
-3.61904e-48
-1.85697e-48
-4.22132e-49
-2.05037e-49
-4.86056e-50
-4.8864e-51
-2.13135e-50
2.82007e-10
-2.40578e-10
3.15432e-10
-5.12111e-11
3.55328e-10
2.37785e-10
3.25567e-10
3.20468e-10
2.54257e-10
2.36398e-10
3.55394e-09
3.49372e-09
2.50198e-08
-1.83331e-08
5.04124e-08
-3.55772e-08
5.67776e-08
-8.91474e-08
2.21467e-07
-6.57091e-08
7.65875e-07
5.0496e-08
7.80182e-07
5.43756e-07
4.65766e-08
9.69891e-07
2.99639e-08
2.03675e-10
1.61202e-08
-8.87658e-13
6.16436e-09
-8.3727e-14
1.56029e-08
-1.38292e-08
7.43082e-08
2.97869e-08
1.55646e-08
-3.46427e-13
1.92839e-08
-9.95935e-09
1.14575e-07
-3.04577e-08
1.55904e-07
3.87632e-08
9.64275e-08
1.68633e-07
2.07851e-07
-2.45277e-07
3.40217e-07
-5.44585e-07
3.34953e-07
-5.81106e-07
2.59633e-07
-7.5944e-08
2.40384e-07
3.79802e-07
1.07732e-07
-3.2835e-08
9.38858e-10
-7.83042e-09
9.51996e-10
-2.9703e-10
5.07072e-09
-2.37534e-10
3.97342e-08
-2.32842e-10
4.4813e-08
6.04762e-09
4.07492e-08
1.64571e-08
1.92726e-08
5.14497e-09
1.02526e-09
-4.53698e-10
6.4147e-10
-5.10865e-10
7.48183e-10
-5.01746e-10
2.35252e-09
-4.20904e-10
1.51141e-08
-1.51041e-09
4.41595e-08
-5.39094e-09
1.10018e-07
-1.38424e-08
1.44517e-07
-2.12567e-08
1.36404e-07
-1.95584e-08
1.29467e-07
-2.09475e-08
1.36085e-07
-3.64206e-08
1.15118e-07
-2.66096e-08
4.39876e-08
-1.14417e-09
6.80085e-09
2.90375e-09
6.10146e-09
9.26114e-10
6.0051e-09
1.01473e-10
3.75603e-09
2.9283e-10
8.14014e-10
5.68346e-10
7.00681e-10
2.15566e-10
1.11507e-09
3.23411e-10
1.75958e-09
2.4967e-09
2.17145e-10
2.156e-09
-1.44067e-07
7.6434e-08
-5.45895e-10
-5.01822e-07
4.24562e-08
-3.46392e-07
5.76022e-08
-5.2188e-08
1.10809e-07
-1.81966e-08
1.80715e-07
-7.35804e-09
1.96544e-07
-4.25527e-08
2.16196e-07
-9.80825e-08
2.39709e-07
-1.25667e-07
1.99949e-07
-1.55942e-07
9.78392e-08
-2.76425e-08
8.05569e-08
-5.74534e-08
7.21633e-08
-6.22309e-08
5.76211e-08
-3.94328e-08
5.14183e-08
-2.34895e-08
4.16963e-08
-1.09758e-08
2.79569e-08
-1.55163e-09
1.17186e-08
3.62081e-09
4.92489e-09
2.3569e-09
3.94573e-09
1.39903e-09
3.662e-09
1.14975e-09
3.18902e-09
1.93496e-09
2.94758e-09
2.75237e-09
6.70278e-09
8.52737e-09
1.65958e-08
1.4752e-09
9.88559e-09
-2.10041e-09
5.3348e-09
-2.21341e-09
7.93413e-09
-3.52183e-10
3.9334e-08
5.29525e-08
1.94079e-07
1.38673e-07
2.37179e-07
3.11625e-08
2.57276e-07
-3.5248e-08
2.81886e-07
-8.04677e-08
2.87062e-07
-1.61732e-07
1.90279e-07
-1.20904e-07
7.9875e-08
-6.18783e-08
1.11504e-07
6.06988e-09
1.78214e-07
-4.68976e-08
1.95061e-07
-6.34629e-08
2.16956e-07
-8.50218e-08
2.12314e-07
-2.71909e-08
2.19459e-07
3.3381e-08
1.54139e-07
5.20783e-08
2.46429e-08
1.96096e-08
3.28754e-11
-2.93473e-10
1.50334e-11
-1.69044e-12
3.03351e-11
-2.72881e-11
3.61506e-10
-4.4835e-11
3.09442e-09
-1.54176e-10
6.99999e-09
3.18357e-11
9.40363e-09
4.55721e-11
1.3614e-08
2.32865e-13
1.94556e-08
1.06429e-09
2.11467e-08
4.05193e-09
1.74798e-08
6.36811e-09
9.93247e-09
7.61159e-09
7.36031e-09
1.91288e-09
7.9893e-09
2.90078e-10
8.6183e-09
2.43912e-10
7.8136e-09
3.9671e-10
3.8893e-09
4.36715e-10
2.56396e-10
3.35834e-10
4.8823e-24
5.00078e-12
3.81889e-33
1.2153e-27
1.75509e-44
4.46774e-45
-6.20675e-33
-1.50715e-33
-3.80139e-33
-9.05297e-34
-1.63926e-33
-3.8899e-34
-6.01072e-34
-1.42437e-34
-2.01963e-34
-4.76367e-35
-6.45367e-35
-1.51483e-35
-1.98496e-35
-4.6552e-36
-5.86428e-36
-1.38197e-36
-1.65368e-36
-3.92932e-37
-4.4273e-37
-1.05868e-37
-1.12191e-37
-2.69166e-38
-2.68741e-38
-6.48142e-39
-6.08342e-39
-1.48156e-39
-1.30166e-39
-3.21425e-40
-2.63403e-40
-6.60425e-41
-5.04492e-41
-1.2799e-41
-9.15349e-42
-2.3374e-42
-1.57456e-42
-4.0315e-43
-2.56879e-43
-6.61311e-44
-3.9735e-44
-1.03427e-44
-5.82369e-45
-1.53497e-45
-8.07872e-46
-2.15899e-46
-1.05978e-46
-2.84597e-47
-1.31247e-47
-3.60215e-48
-1.53347e-48
-4.18342e-49
-1.68616e-49
-4.79684e-50
-4.80298e-51
-1.74575e-50
2.84086e-10
-2.82035e-10
3.20122e-10
-7.99786e-11
3.29445e-10
2.29841e-10
3.03679e-10
3.54606e-10
2.21417e-10
3.20983e-10
9.25308e-09
1.20285e-08
1.75716e-08
-4.79646e-09
2.17605e-08
-1.29342e-08
3.36517e-08
-1.12316e-07
9.27205e-08
-1.65159e-08
5.8004e-07
2.26595e-08
7.42869e-07
3.68207e-07
1.52228e-07
1.14219e-06
5.3537e-09
1.09698e-07
5.67247e-09
7.9442e-09
3.04507e-09
7.54481e-13
4.55716e-09
-7.51681e-09
1.31779e-08
-3.16774e-13
1.84895e-09
1.11896e-09
2.23761e-09
-4.79581e-09
1.46897e-08
-5.16786e-09
1.76303e-07
7.44872e-10
1.65569e-07
1.93555e-07
2.45359e-07
-2.04427e-07
3.0827e-07
-2.79031e-07
4.70784e-07
-7.35473e-07
4.71292e-07
-8.45996e-08
3.49997e-07
5.17703e-08
4.87533e-08
-7.33508e-08
7.14636e-10
-1.70145e-09
7.08072e-10
-2.07549e-10
1.26178e-09
-1.02263e-10
9.30562e-09
1.01231e-15
2.47872e-08
2.11803e-09
2.19058e-08
5.00742e-09
4.10498e-09
3.4729e-10
6.18192e-10
-2.07142e-10
5.07352e-10
-3.95624e-10
5.7072e-10
-5.57771e-10
6.47749e-10
-4.93599e-10
3.01007e-09
-6.27816e-10
2.20272e-08
-1.12868e-09
4.79668e-08
-2.52583e-09
5.14855e-08
-2.91934e-09
5.49769e-08
-3.24716e-09
8.71447e-08
-4.43534e-09
1.19559e-07
-1.69172e-08
1.39296e-07
-2.5039e-08
1.09395e-07
-1.77395e-09
2.88298e-08
1.2693e-08
3.58636e-09
2.22354e-09
2.73371e-09
7.66258e-10
2.58673e-09
6.27676e-10
2.74591e-09
1.19791e-09
5.89602e-09
2.09515e-09
9.99048e-09
3.38786e-09
1.07246e-08
1.29017e-08
1.65981e-09
1.30168e-08
-2.72319e-08
2.68541e-08
5.3057e-08
-5.81613e-07
2.06029e-08
-2.80278e-07
2.66608e-08
-2.19443e-08
5.53411e-08
-1.23199e-08
7.07512e-08
-8.33548e-09
8.35438e-08
-3.23376e-08
8.61537e-08
-6.37296e-08
7.40766e-08
-4.12664e-08
1.20699e-07
-4.3062e-08
1.74663e-07
-7.40442e-08
1.74419e-07
-6.47714e-08
1.83444e-07
-6.36943e-08
1.58129e-07
-1.14534e-07
1.27373e-07
-7.18139e-08
1.04843e-07
-4.30426e-08
7.18107e-08
-2.31774e-09
3.76101e-08
4.78868e-09
7.72575e-09
1.08894e-08
4.15285e-09
2.48904e-09
3.6718e-09
1.63059e-09
3.15651e-09
2.513e-09
1.92997e-09
3.9789e-09
1.40493e-08
2.47964e-08
2.39221e-08
4.20641e-09
1.59175e-08
-1.83417e-12
1.37333e-08
-9.98478e-10
3.51927e-08
-1.37385e-09
1.00112e-07
1.90157e-07
1.88621e-07
1.80482e-07
1.09662e-07
1.0872e-08
4.45923e-08
-2.42013e-09
4.92611e-08
-4.55574e-09
1.46846e-07
-3.86854e-08
1.84131e-07
-2.69989e-07
1.65472e-07
-1.93232e-07
5.45501e-08
-2.33954e-08
6.19381e-08
-3.73839e-08
1.03962e-07
-2.32691e-08
1.52178e-07
-4.68032e-08
1.719e-07
-1.38262e-08
1.67323e-07
2.41978e-08
7.75207e-08
2.87884e-08
5.74627e-09
5.13644e-09
1.75172e-11
-9.99611e-11
1.67817e-11
-9.54909e-13
2.27051e-11
-3.32115e-11
8.61888e-11
-1.11589e-13
1.07705e-09
-6.95995e-11
4.29929e-09
1.00019e-11
7.27776e-09
5.40085e-11
9.19292e-09
5.85842e-13
1.52462e-08
6.90631e-13
2.14998e-08
1.48489e-09
2.13262e-08
6.2925e-09
1.61528e-08
7.71754e-09
4.94651e-09
5.94261e-09
3.75131e-09
1.25562e-09
3.59896e-09
1.66228e-10
2.76839e-09
2.06712e-10
1.3031e-09
1.29954e-10
1.5229e-10
5.21787e-11
1.78038e-24
4.33795e-12
-2.02654e-31
1.78223e-24
-2.49736e-33
-7.40992e-34
-2.0231e-33
-5.73048e-34
-1.33514e-33
-3.70976e-34
-6.93468e-34
-1.92001e-34
-3.01516e-34
-8.3366e-35
-1.16856e-34
-3.2158e-35
-4.16976e-35
-1.1419e-35
-1.3893e-35
-3.8014e-36
-4.34123e-36
-1.1936e-36
-1.27283e-36
-3.52855e-37
-3.50098e-37
-9.76717e-38
-9.03752e-38
-2.52967e-38
-2.19173e-38
-6.16697e-39
-5.00024e-39
-1.42075e-39
-1.07473e-39
-3.09629e-40
-2.17959e-40
-6.37583e-41
-4.17704e-41
-1.23636e-41
-7.57571e-42
-2.25694e-42
-1.30186e-42
-3.88883e-43
-2.12124e-43
-6.37115e-44
-3.27698e-44
-9.95152e-45
-4.79699e-45
-1.47512e-45
-6.64725e-46
-2.07255e-46
-8.71176e-47
-2.72947e-47
-1.07805e-47
-3.45197e-48
-1.25874e-48
-4.00643e-49
-1.38337e-49
-4.5915e-50
-4.59526e-51
-1.43164e-50
3.70342e-10
-1.3452e-08
3.07013e-10
-1.59687e-11
3.25252e-10
2.18869e-10
2.98749e-10
3.82489e-10
2.21042e-10
4.07063e-10
4.44623e-09
6.45141e-10
4.5967e-09
-2.75737e-09
2.60923e-09
-6.28028e-09
9.95019e-08
-3.46188e-07
1.71922e-07
-3.41553e-08
2.50138e-07
1.68545e-08
6.11204e-07
2.33383e-07
4.91309e-07
1.32662e-06
2.64421e-08
4.57538e-07
4.47611e-09
4.3867e-08
2.27681e-09
9.29835e-12
2.18243e-09
-3.12742e-09
1.61904e-09
1.77776e-09
1.27515e-09
1.45088e-09
2.03233e-09
-5.53615e-09
2.39433e-09
-5.54027e-09
5.93089e-08
2.13258e-09
1.50282e-07
1.16715e-07
1.82116e-07
-1.72397e-07
4.99706e-08
-3.4809e-08
4.17276e-07
-5.9929e-07
5.31897e-07
-1.91073e-07
3.22764e-07
1.66818e-10
1.96945e-08
-7.27497e-08
7.42023e-10
3.20885e-10
6.64919e-10
-4.89138e-11
6.75727e-10
-2.95084e-11
1.00336e-09
2.1666e-11
3.16166e-09
1.70938e-10
2.77931e-09
3.52398e-10
5.29381e-10
1.89644e-10
4.71474e-10
-1.44804e-10
4.87511e-10
-4.0432e-10
5.69249e-10
-6.35123e-10
6.50564e-10
-5.67461e-10
8.59378e-10
-3.65324e-10
2.98839e-09
-5.68366e-10
5.22955e-09
-8.03169e-10
5.41168e-09
-7.99672e-10
4.51595e-09
-7.52667e-10
6.2321e-09
-1.09567e-09
3.4869e-08
-4.18267e-09
1.26414e-07
-2.14558e-08
1.07413e-07
-1.35611e-08
6.41487e-08
8.8983e-09
4.58381e-09
9.15102e-09
3.77393e-09
1.74275e-09
4.93867e-09
2.32162e-09
1.1897e-08
5.39523e-09
2.24125e-08
8.1905e-09
2.87096e-08
8.25802e-09
3.06922e-08
3.29811e-09
6.38252e-09
7.46837e-08
1.50763e-09
3.45864e-08
1.5022e-07
-1.70649e-07
9.0392e-09
-1.06285e-07
1.0819e-08
-5.41847e-09
4.2537e-08
-6.38813e-09
6.23484e-08
-1.01972e-08
6.40135e-08
-3.03854e-08
3.93718e-08
-5.29035e-08
2.52705e-08
-2.8892e-08
3.05135e-08
-1.19783e-08
1.06168e-07
-1.47721e-08
1.45115e-07
-2.66288e-08
1.42926e-07
-3.07116e-08
1.24919e-07
-2.75047e-08
1.15469e-07
-1.1646e-08
1.36071e-07
-4.4949e-09
1.36521e-07
-2.38381e-09
1.32846e-07
8.77373e-09
4.66133e-08
3.13469e-08
3.64901e-09
1.2376e-08
3.87862e-09
3.8462e-09
3.15408e-09
3.23754e-09
1.13943e-09
6.05852e-09
2.06322e-08
5.1305e-08
2.48163e-08
7.26915e-09
1.89123e-08
-5.35718e-10
2.60241e-08
-2.14385e-12
9.88606e-08
-8.84374e-10
1.62676e-07
2.4269e-07
1.79514e-07
4.05853e-08
1.70554e-08
1.32235e-09
2.16032e-09
-3.51205e-10
2.31512e-09
-7.27705e-10
2.44192e-08
-5.49004e-09
1.62112e-07
-9.98145e-08
2.5339e-07
-2.2655e-07
9.91608e-08
-1.63529e-08
3.87615e-08
-9.44062e-09
3.98556e-08
-2.0632e-08
5.72874e-08
-3.44745e-08
9.40725e-08
-5.2324e-09
8.58193e-08
9.0985e-09
3.13307e-08
1.22583e-08
5.86731e-10
5.23067e-13
1.47599e-10
-1.76662e-11
1.91582e-10
-3.95809e-10
1.29323e-10
-5.25293e-10
7.47057e-11
-3.71658e-12
4.70248e-10
-7.84159e-11
2.72993e-09
1.89122e-11
5.77804e-09
1.13272e-10
7.80951e-09
1.15183e-10
9.85305e-09
5.03281e-12
1.83613e-08
6.38103e-10
2.16121e-08
3.29095e-09
2.07973e-08
8.28309e-09
9.95025e-09
1.03613e-08
1.07504e-09
2.3362e-09
4.48062e-10
8.87786e-13
3.10615e-10
6.65656e-17
1.36235e-10
4.43426e-17
1.36226e-11
1.60604e-17
2.59417e-14
2.96627e-16
2.8399e-29
1.5325e-16
-9.57218e-36
2.83918e-29
-4.02081e-34
-1.30126e-34
-4.34826e-34
-1.38071e-34
-2.89017e-34
-9.14516e-35
-1.50132e-34
-4.74393e-35
-6.67226e-35
-2.0984e-35
-2.64359e-35
-8.27334e-36
-9.52187e-36
-2.97743e-36
-3.14821e-36
-9.89202e-37