/*--------------------------------*- C++ -*----------------------------------*\
| =========                 |                                                 |
| \\      /  F ield         | OpenFOAM: The Open Source CFD Toolbox           |
|  \\    /   O peration     | Version:  v1912                                 |
|   \\  /    A nd           | Website:  www.openfoam.com                      |
|    \\/     M anipulation  |                                                 |
\*---------------------------------------------------------------------------*/
FoamFile
{
    version     2.0;
    format      ascii;
    class       volScalarField;
    location    "60";
    object      k;
}
// * * * * * * * * * * * * * * * * * * * * * * * * * * * * * * * * * * * * * //

dimensions      [0 2 -2 0 0 0 0];


internalField   nonuniform List<scalar> 
14268
(
8.36763e-12
8.36904e-12
8.37038e-12
8.37167e-12
8.37289e-12
8.37405e-12
8.37516e-12
8.37621e-12
8.37722e-12
8.37817e-12
8.37908e-12
8.37994e-12
8.38076e-12
8.38155e-12
8.38229e-12
8.383e-12
8.38366e-12
8.3843e-12
8.38491e-12
8.38548e-12
8.38603e-12
8.38655e-12
8.38704e-12
8.3875e-12
8.38795e-12
8.38837e-12
8.38876e-12
8.38914e-12
8.3895e-12
8.38984e-12
8.39016e-12
8.39046e-12
8.39075e-12
8.39102e-12
8.39128e-12
8.39152e-12
8.39175e-12
8.39197e-12
8.39218e-12
8.39237e-12
8.39256e-12
8.39273e-12
8.3929e-12
8.39305e-12
8.3932e-12
8.39334e-12
8.39347e-12
8.39359e-12
8.39371e-12
8.39382e-12
8.39392e-12
8.39402e-12
8.39411e-12
8.39419e-12
8.39428e-12
8.39435e-12
8.39442e-12
8.39449e-12
8.39456e-12
8.39462e-12
8.39467e-12
8.39472e-12
8.39477e-12
8.39482e-12
8.39486e-12
8.3949e-12
8.39494e-12
8.39498e-12
8.39501e-12
8.39504e-12
8.39507e-12
8.3951e-12
8.39513e-12
8.39515e-12
8.39517e-12
8.3952e-12
8.39521e-12
8.39523e-12
8.39525e-12
8.39527e-12
8.39528e-12
8.39529e-12
8.39531e-12
8.39532e-12
8.39533e-12
8.39534e-12
8.39535e-12
8.39536e-12
8.39537e-12
8.39537e-12
8.39538e-12
8.39538e-12
8.39539e-12
8.39539e-12
8.3954e-12
8.3954e-12
8.3954e-12
8.3954e-12
8.39541e-12
8.39541e-12
8.39541e-12
8.3954e-12
8.39541e-12
8.3954e-12
8.39541e-12
8.39539e-12
8.39541e-12
8.39538e-12
8.39541e-12
8.39536e-12
8.39541e-12
8.39535e-12
8.39541e-12
8.39534e-12
8.39541e-12
8.39533e-12
8.39542e-12
8.39532e-12
8.39544e-12
8.39531e-12
8.39546e-12
8.39529e-12
8.39549e-12
8.39525e-12
8.3955e-12
8.39519e-12
8.39551e-12
8.39514e-12
8.39555e-12
8.39512e-12
8.39563e-12
8.39516e-12
8.39571e-12
8.39524e-12
8.39577e-12
8.39533e-12
8.39579e-12
8.39538e-12
8.39579e-12
8.39553e-12
8.39578e-12
8.39557e-12
8.39576e-12
8.39559e-12
8.39573e-12
8.39559e-12
8.3957e-12
8.39558e-12
8.39567e-12
8.39557e-12
8.39564e-12
8.39555e-12
8.39562e-12
8.39554e-12
8.3956e-12
8.39554e-12
8.39559e-12
8.39555e-12
8.39559e-12
8.39558e-12
8.39571e-12
8.39573e-12
8.40038e-12
8.49375e-12
2.46646e-10
2.46688e-10
2.46728e-10
2.46766e-10
2.46802e-10
2.46837e-10
2.4687e-10
2.46902e-10
2.46931e-10
2.4696e-10
2.46987e-10
2.47013e-10
2.47037e-10
2.4706e-10
2.47083e-10
2.47104e-10
2.47124e-10
2.47143e-10
2.47161e-10
2.47178e-10
2.47194e-10
2.4721e-10
2.47224e-10
2.47238e-10
2.47251e-10
2.47264e-10
2.47276e-10
2.47287e-10
2.47298e-10
2.47308e-10
2.47317e-10
2.47326e-10
2.47335e-10
2.47343e-10
2.47351e-10
2.47358e-10
2.47365e-10
2.47371e-10
2.47377e-10
2.47383e-10
2.47389e-10
2.47394e-10
2.47399e-10
2.47403e-10
2.47408e-10
2.47412e-10
2.47416e-10
2.4742e-10
2.47423e-10
2.47426e-10
2.47429e-10
2.47432e-10
2.47435e-10
2.47438e-10
2.4744e-10
2.47442e-10
2.47444e-10
2.47446e-10
2.47448e-10
2.4745e-10
2.47452e-10
2.47453e-10
2.47455e-10
2.47456e-10
2.47457e-10
2.47459e-10
2.4746e-10
2.47461e-10
2.47462e-10
2.47463e-10
2.47464e-10
2.47465e-10
2.47465e-10
2.47466e-10
2.47467e-10
2.47467e-10
2.47468e-10
2.47468e-10
2.47469e-10
2.47469e-10
2.4747e-10
2.4747e-10
2.47471e-10
2.47471e-10
2.47471e-10
2.47472e-10
2.47472e-10
2.47472e-10
2.47472e-10
2.47473e-10
2.47473e-10
2.47473e-10
2.47473e-10
2.47473e-10
2.47473e-10
2.47473e-10
2.47474e-10
2.47474e-10
2.47474e-10
2.47474e-10
2.47474e-10
2.47473e-10
2.47474e-10
2.47473e-10
2.47474e-10
2.47473e-10
2.47474e-10
2.47473e-10
2.47474e-10
2.47472e-10
2.47474e-10
2.47472e-10
2.47474e-10
2.47472e-10
2.47474e-10
2.47471e-10
2.47474e-10
2.47471e-10
2.47474e-10
2.47471e-10
2.47475e-10
2.4747e-10
2.47476e-10
2.47469e-10
2.47476e-10
2.47467e-10
2.47477e-10
2.47466e-10
2.47478e-10
2.47465e-10
2.4748e-10
2.47466e-10
2.47482e-10
2.47469e-10
2.47484e-10
2.47471e-10
2.47485e-10
2.47473e-10
2.47485e-10
2.47477e-10
2.47485e-10
2.47478e-10
2.47484e-10
2.47479e-10
2.47483e-10
2.47479e-10
2.47482e-10
2.47479e-10
2.47481e-10
2.47478e-10
2.4748e-10
2.47478e-10
2.4748e-10
2.47478e-10
2.47479e-10
2.47478e-10
2.47479e-10
2.47478e-10
2.47479e-10
2.47479e-10
2.47482e-10
2.47483e-10
2.47619e-10
2.50111e-10
1.66133e-09
1.66161e-09
1.66187e-09
1.66212e-09
1.66236e-09
1.66258e-09
1.6628e-09
1.66301e-09
1.6632e-09
1.66339e-09
1.66356e-09
1.66373e-09
1.66389e-09
1.66404e-09
1.66419e-09
1.66433e-09
1.66446e-09
1.66458e-09
1.6647e-09
1.66481e-09
1.66492e-09
1.66502e-09
1.66511e-09
1.6652e-09
1.66529e-09
1.66537e-09
1.66545e-09
1.66552e-09
1.66559e-09
1.66566e-09
1.66572e-09
1.66578e-09
1.66584e-09
1.66589e-09
1.66594e-09
1.66599e-09
1.66603e-09
1.66608e-09
1.66612e-09
1.66615e-09
1.66619e-09
1.66622e-09
1.66626e-09
1.66629e-09
1.66631e-09
1.66634e-09
1.66637e-09
1.66639e-09
1.66641e-09
1.66643e-09
1.66646e-09
1.66647e-09
1.66649e-09
1.66651e-09
1.66652e-09
1.66654e-09
1.66655e-09
1.66657e-09
1.66658e-09
1.66659e-09
1.6666e-09
1.66661e-09
1.66662e-09
1.66663e-09
1.66664e-09
1.66665e-09
1.66665e-09
1.66666e-09
1.66667e-09
1.66667e-09
1.66668e-09
1.66669e-09
1.66669e-09
1.66669e-09
1.6667e-09
1.6667e-09
1.66671e-09
1.66671e-09
1.66671e-09
1.66672e-09
1.66672e-09
1.66672e-09
1.66673e-09
1.66673e-09
1.66673e-09
1.66673e-09
1.66673e-09
1.66674e-09
1.66674e-09
1.66674e-09
1.66674e-09
1.66674e-09
1.66674e-09
1.66674e-09
1.66674e-09
1.66674e-09
1.66674e-09
1.66674e-09
1.66675e-09
1.66674e-09
1.66675e-09
1.66674e-09
1.66675e-09
1.66674e-09
1.66675e-09
1.66674e-09
1.66675e-09
1.66674e-09
1.66675e-09
1.66674e-09
1.66675e-09
1.66673e-09
1.66674e-09
1.66673e-09
1.66675e-09
1.66673e-09
1.66675e-09
1.66673e-09
1.66675e-09
1.66673e-09
1.66676e-09
1.66672e-09
1.66676e-09
1.66671e-09
1.66676e-09
1.6667e-09
1.66677e-09
1.66669e-09
1.66677e-09
1.66669e-09
1.66679e-09
1.6667e-09
1.6668e-09
1.66671e-09
1.66681e-09
1.66673e-09
1.66682e-09
1.66674e-09
1.66682e-09
1.66677e-09
1.66681e-09
1.66677e-09
1.66681e-09
1.66678e-09
1.66681e-09
1.66678e-09
1.6668e-09
1.66678e-09
1.66679e-09
1.66677e-09
1.66679e-09
1.66677e-09
1.66678e-09
1.66677e-09
1.66678e-09
1.66677e-09
1.66678e-09
1.66677e-09
1.66678e-09
1.66678e-09
1.6668e-09
1.66681e-09
1.66768e-09
1.68217e-09
5.46907e-09
5.46992e-09
5.47073e-09
5.4715e-09
5.47224e-09
5.47294e-09
5.47361e-09
5.47424e-09
5.47485e-09
5.47542e-09
5.47597e-09
5.47649e-09
5.47699e-09
5.47746e-09
5.4779e-09
5.47833e-09
5.47873e-09
5.47912e-09
5.47948e-09
5.47983e-09
5.48016e-09
5.48047e-09
5.48077e-09
5.48105e-09
5.48131e-09
5.48157e-09
5.48181e-09
5.48203e-09
5.48225e-09
5.48245e-09
5.48265e-09
5.48283e-09
5.483e-09
5.48317e-09
5.48332e-09
5.48347e-09
5.48361e-09
5.48374e-09
5.48386e-09
5.48398e-09
5.48409e-09
5.4842e-09
5.4843e-09
5.48439e-09
5.48448e-09
5.48456e-09
5.48464e-09
5.48471e-09
5.48478e-09
5.48485e-09
5.48491e-09
5.48497e-09
5.48503e-09
5.48508e-09
5.48513e-09
5.48517e-09
5.48522e-09
5.48526e-09
5.4853e-09
5.48533e-09
5.48537e-09
5.4854e-09
5.48543e-09
5.48545e-09
5.48548e-09
5.48551e-09
5.48553e-09
5.48555e-09
5.48557e-09
5.48559e-09
5.48561e-09
5.48562e-09
5.48564e-09
5.48565e-09
5.48567e-09
5.48568e-09
5.48569e-09
5.4857e-09
5.48571e-09
5.48572e-09
5.48573e-09
5.48574e-09
5.48575e-09
5.48576e-09
5.48576e-09
5.48577e-09
5.48577e-09
5.48578e-09
5.48578e-09
5.48579e-09
5.48579e-09
5.48579e-09
5.4858e-09
5.4858e-09
5.4858e-09
5.4858e-09
5.48581e-09
5.48581e-09
5.48581e-09
5.48581e-09
5.48581e-09
5.48581e-09
5.48581e-09
5.4858e-09
5.48581e-09
5.4858e-09
5.48581e-09
5.48579e-09
5.48581e-09
5.48578e-09
5.48581e-09
5.48577e-09
5.48581e-09
5.48577e-09
5.48581e-09
5.48576e-09
5.48581e-09
5.48576e-09
5.48583e-09
5.48575e-09
5.48584e-09
5.48574e-09
5.48586e-09
5.48571e-09
5.48586e-09
5.48568e-09
5.48587e-09
5.48565e-09
5.48589e-09
5.48564e-09
5.48593e-09
5.48566e-09
5.48598e-09
5.48571e-09
5.48601e-09
5.48576e-09
5.48603e-09
5.48579e-09
5.48602e-09
5.48588e-09
5.48602e-09
5.4859e-09
5.48601e-09
5.48591e-09
5.48599e-09
5.48591e-09
5.48598e-09
5.48591e-09
5.48596e-09
5.4859e-09
5.48594e-09
5.48589e-09
5.48593e-09
5.48589e-09
5.48592e-09
5.48589e-09
5.48591e-09
5.48589e-09
5.48591e-09
5.48591e-09
5.48598e-09
5.486e-09
5.48868e-09
5.52869e-09
1.22252e-08
1.22269e-08
1.22285e-08
1.22301e-08
1.22315e-08
1.2233e-08
1.22343e-08
1.22356e-08
1.22368e-08
1.2238e-08
1.22391e-08
1.22401e-08
1.22411e-08
1.2242e-08
1.22429e-08
1.22438e-08
1.22446e-08
1.22454e-08
1.22461e-08
1.22468e-08
1.22475e-08
1.22481e-08
1.22487e-08
1.22493e-08
1.22498e-08
1.22503e-08
1.22508e-08
1.22513e-08
1.22517e-08
1.22521e-08
1.22525e-08
1.22529e-08
1.22532e-08
1.22535e-08
1.22538e-08
1.22541e-08
1.22544e-08
1.22547e-08
1.22549e-08
1.22552e-08
1.22554e-08
1.22556e-08
1.22558e-08
1.2256e-08
1.22562e-08
1.22563e-08
1.22565e-08
1.22566e-08
1.22568e-08
1.22569e-08
1.2257e-08
1.22572e-08
1.22573e-08
1.22574e-08
1.22575e-08
1.22576e-08
1.22577e-08
1.22577e-08
1.22578e-08
1.22579e-08
1.2258e-08
1.2258e-08
1.22581e-08
1.22581e-08
1.22582e-08
1.22582e-08
1.22583e-08
1.22583e-08
1.22584e-08
1.22584e-08
1.22584e-08
1.22585e-08
1.22585e-08
1.22585e-08
1.22586e-08
1.22586e-08
1.22586e-08
1.22586e-08
1.22587e-08
1.22587e-08
1.22587e-08
1.22587e-08
1.22587e-08
1.22587e-08
1.22588e-08
1.22588e-08
1.22588e-08
1.22588e-08
1.22588e-08
1.22588e-08
1.22588e-08
1.22588e-08
1.22588e-08
1.22588e-08
1.22588e-08
1.22588e-08
1.22588e-08
1.22588e-08
1.22589e-08
1.22588e-08
1.22589e-08
1.22588e-08
1.22589e-08
1.22588e-08
1.22589e-08
1.22588e-08
1.22589e-08
1.22588e-08
1.22589e-08
1.22588e-08
1.22589e-08
1.22588e-08
1.22588e-08
1.22588e-08
1.22589e-08
1.22588e-08
1.22589e-08
1.22587e-08
1.22589e-08
1.22587e-08
1.22589e-08
1.22587e-08
1.2259e-08
1.22587e-08
1.2259e-08
1.22586e-08
1.2259e-08
1.22585e-08
1.2259e-08
1.22585e-08
1.22591e-08
1.22585e-08
1.22592e-08
1.22586e-08
1.22593e-08
1.22588e-08
1.22593e-08
1.22588e-08
1.22593e-08
1.2259e-08
1.22593e-08
1.2259e-08
1.22592e-08
1.22591e-08
1.22592e-08
1.22591e-08
1.22592e-08
1.2259e-08
1.22591e-08
1.2259e-08
1.22591e-08
1.2259e-08
1.22591e-08
1.2259e-08
1.22591e-08
1.2259e-08
1.22591e-08
1.2259e-08
1.22591e-08
1.2259e-08
1.22592e-08
1.22592e-08
1.22646e-08
1.23378e-08
2.14409e-08
2.14434e-08
2.14459e-08
2.14483e-08
2.14505e-08
2.14526e-08
2.14546e-08
2.14566e-08
2.14584e-08
2.14601e-08
2.14618e-08
2.14634e-08
2.14649e-08
2.14663e-08
2.14677e-08
2.1469e-08
2.14702e-08
2.14713e-08
2.14725e-08
2.14735e-08
2.14745e-08
2.14754e-08
2.14763e-08
2.14772e-08
2.1478e-08
2.14788e-08
2.14795e-08
2.14802e-08
2.14808e-08
2.14815e-08
2.14821e-08
2.14826e-08
2.14831e-08
2.14836e-08
2.14841e-08
2.14845e-08
2.1485e-08
2.14854e-08
2.14857e-08
2.14861e-08
2.14864e-08
2.14868e-08
2.14871e-08
2.14873e-08
2.14876e-08
2.14879e-08
2.14881e-08
2.14883e-08
2.14885e-08
2.14887e-08
2.14889e-08
2.14891e-08
2.14893e-08
2.14894e-08
2.14896e-08
2.14897e-08
2.14899e-08
2.149e-08
2.14901e-08
2.14902e-08
2.14903e-08
2.14904e-08
2.14905e-08
2.14906e-08
2.14907e-08
2.14907e-08
2.14908e-08
2.14909e-08
2.14909e-08
2.1491e-08
2.1491e-08
2.14911e-08
2.14911e-08
2.14912e-08
2.14912e-08
2.14913e-08
2.14913e-08
2.14913e-08
2.14914e-08
2.14914e-08
2.14914e-08
2.14915e-08
2.14915e-08
2.14915e-08
2.14915e-08
2.14915e-08
2.14916e-08
2.14916e-08
2.14916e-08
2.14916e-08
2.14916e-08
2.14916e-08
2.14916e-08
2.14916e-08
2.14916e-08
2.14917e-08
2.14917e-08
2.14917e-08
2.14917e-08
2.14917e-08
2.14917e-08
2.14917e-08
2.14917e-08
2.14916e-08
2.14917e-08
2.14916e-08
2.14917e-08
2.14916e-08
2.14917e-08
2.14916e-08
2.14917e-08
2.14916e-08
2.14917e-08
2.14915e-08
2.14917e-08
2.14915e-08
2.14917e-08
2.14915e-08
2.14917e-08
2.14915e-08
2.14918e-08
2.14915e-08
2.14918e-08
2.14914e-08
2.14918e-08
2.14913e-08
2.14919e-08
2.14912e-08
2.14919e-08
2.14911e-08
2.1492e-08
2.14912e-08
2.14922e-08
2.14913e-08
2.14923e-08
2.14915e-08
2.14923e-08
2.14916e-08
2.14923e-08
2.14919e-08
2.14923e-08
2.14919e-08
2.14923e-08
2.1492e-08
2.14922e-08
2.1492e-08
2.14922e-08
2.1492e-08
2.14921e-08
2.14919e-08
2.14921e-08
2.14919e-08
2.1492e-08
2.14919e-08
2.1492e-08
2.14919e-08
2.1492e-08
2.14919e-08
2.1492e-08
2.1492e-08
2.14922e-08
2.14922e-08
2.15003e-08
2.16024e-08
3.18258e-08
3.18289e-08
3.18319e-08
3.18348e-08
3.18375e-08
3.18401e-08
3.18425e-08
3.18449e-08
3.18471e-08
3.18492e-08
3.18512e-08
3.18532e-08
3.1855e-08
3.18567e-08
3.18584e-08
3.18599e-08
3.18614e-08
3.18628e-08
3.18642e-08
3.18655e-08
3.18667e-08
3.18678e-08
3.18689e-08
3.18699e-08
3.18709e-08
3.18719e-08
3.18727e-08
3.18736e-08
3.18744e-08
3.18751e-08
3.18758e-08
3.18765e-08
3.18771e-08
3.18778e-08
3.18783e-08
3.18789e-08
3.18794e-08
3.18799e-08
3.18803e-08
3.18808e-08
3.18812e-08
3.18816e-08
3.18819e-08
3.18823e-08
3.18826e-08
3.18829e-08
3.18832e-08
3.18835e-08
3.18837e-08
3.1884e-08
3.18842e-08
3.18844e-08
3.18846e-08
3.18848e-08
3.1885e-08
3.18852e-08
3.18853e-08
3.18855e-08
3.18856e-08
3.18857e-08
3.18859e-08
3.1886e-08
3.18861e-08
3.18862e-08
3.18863e-08
3.18864e-08
3.18865e-08
3.18866e-08
3.18866e-08
3.18867e-08
3.18868e-08
3.18868e-08
3.18869e-08
3.18869e-08
3.1887e-08
3.1887e-08
3.18871e-08
3.18871e-08
3.18872e-08
3.18872e-08
3.18872e-08
3.18873e-08
3.18873e-08
3.18873e-08
3.18873e-08
3.18874e-08
3.18874e-08
3.18874e-08
3.18874e-08
3.18874e-08
3.18875e-08
3.18875e-08
3.18875e-08
3.18875e-08
3.18875e-08
3.18875e-08
3.18875e-08
3.18875e-08
3.18875e-08
3.18875e-08
3.18875e-08
3.18875e-08
3.18875e-08
3.18875e-08
3.18875e-08
3.18875e-08
3.18875e-08
3.18875e-08
3.18875e-08
3.18874e-08
3.18875e-08
3.18874e-08
3.18875e-08
3.18874e-08
3.18875e-08
3.18873e-08
3.18875e-08
3.18873e-08
3.18876e-08
3.18873e-08
3.18876e-08
3.18873e-08
3.18877e-08
3.18872e-08
3.18877e-08
3.1887e-08
3.18878e-08
3.18869e-08
3.18878e-08
3.18869e-08
3.1888e-08
3.1887e-08
3.18882e-08
3.18871e-08
3.18883e-08
3.18873e-08
3.18883e-08
3.18875e-08
3.18883e-08
3.18878e-08
3.18883e-08
3.18879e-08
3.18883e-08
3.18879e-08
3.18882e-08
3.18879e-08
3.18881e-08
3.18879e-08
3.18881e-08
3.18879e-08
3.1888e-08
3.18878e-08
3.1888e-08
3.18878e-08
3.18879e-08
3.18878e-08
3.18879e-08
3.18878e-08
3.18879e-08
3.18879e-08
3.18882e-08
3.18882e-08
3.1898e-08
3.20145e-08
4.18897e-08
4.18929e-08
4.18959e-08
4.18989e-08
4.19017e-08
4.19043e-08
4.19068e-08
4.19093e-08
4.19115e-08
4.19137e-08
4.19158e-08
4.19178e-08
4.19196e-08
4.19214e-08
4.19231e-08
4.19247e-08
4.19262e-08
4.19277e-08
4.19291e-08
4.19304e-08
4.19316e-08
4.19328e-08
4.19339e-08
4.1935e-08
4.1936e-08
4.1937e-08
4.19379e-08
4.19387e-08
4.19396e-08
4.19403e-08
4.19411e-08
4.19418e-08
4.19424e-08
4.1943e-08
4.19436e-08
4.19442e-08
4.19447e-08
4.19452e-08
4.19457e-08
4.19461e-08
4.19465e-08
4.19469e-08
4.19473e-08
4.19477e-08
4.1948e-08
4.19483e-08
4.19486e-08
4.19489e-08
4.19492e-08
4.19494e-08
4.19497e-08
4.19499e-08
4.19501e-08
4.19503e-08
4.19505e-08
4.19507e-08
4.19508e-08
4.1951e-08
4.19511e-08
4.19513e-08
4.19514e-08
4.19515e-08
4.19516e-08
4.19517e-08
4.19518e-08
4.19519e-08
4.1952e-08
4.19521e-08
4.19522e-08
4.19522e-08
4.19523e-08
4.19524e-08
4.19524e-08
4.19525e-08
4.19525e-08
4.19526e-08
4.19526e-08
4.19527e-08
4.19527e-08
4.19528e-08
4.19528e-08
4.19528e-08
4.19529e-08
4.19529e-08
4.19529e-08
4.19529e-08
4.1953e-08
4.1953e-08
4.1953e-08
4.1953e-08
4.1953e-08
4.1953e-08
4.1953e-08
4.19531e-08
4.19531e-08
4.19531e-08
4.19531e-08
4.19531e-08
4.19531e-08
4.19531e-08
4.19531e-08
4.19531e-08
4.19531e-08
4.19531e-08
4.19531e-08
4.1953e-08
4.19531e-08
4.1953e-08
4.19531e-08
4.1953e-08
4.19531e-08
4.19529e-08
4.19531e-08
4.19529e-08
4.19531e-08
4.19529e-08
4.19531e-08
4.19529e-08
4.19532e-08
4.19529e-08
4.19532e-08
4.19528e-08
4.19533e-08
4.19527e-08
4.19533e-08
4.19526e-08
4.19533e-08
4.19525e-08
4.19534e-08
4.19524e-08
4.19536e-08
4.19525e-08
4.19537e-08
4.19527e-08
4.19539e-08
4.19529e-08
4.19539e-08
4.1953e-08
4.19539e-08
4.19533e-08
4.19539e-08
4.19534e-08
4.19539e-08
4.19535e-08
4.19538e-08
4.19535e-08
4.19537e-08
4.19535e-08
4.19537e-08
4.19534e-08
4.19536e-08
4.19534e-08
4.19535e-08
4.19534e-08
4.19535e-08
4.19534e-08
4.19535e-08
4.19534e-08
4.19535e-08
4.19535e-08
4.19537e-08
4.19538e-08
4.19638e-08
4.20772e-08
5.04993e-08
5.05022e-08
5.0505e-08
5.05076e-08
5.05102e-08
5.05126e-08
5.05149e-08
5.05171e-08
5.05191e-08
5.05211e-08
5.0523e-08
5.05248e-08
5.05265e-08
5.05281e-08
5.05297e-08
5.05311e-08
5.05325e-08
5.05339e-08
5.05351e-08
5.05363e-08
5.05374e-08
5.05385e-08
5.05395e-08
5.05405e-08
5.05414e-08
5.05423e-08
5.05431e-08
5.05439e-08
5.05446e-08
5.05453e-08
5.0546e-08
5.05466e-08
5.05472e-08
5.05478e-08
5.05483e-08
5.05488e-08
5.05493e-08
5.05498e-08
5.05502e-08
5.05506e-08
5.0551e-08
5.05514e-08
5.05517e-08
5.0552e-08
5.05523e-08
5.05526e-08
5.05529e-08
5.05531e-08
5.05534e-08
5.05536e-08
5.05538e-08
5.0554e-08
5.05542e-08
5.05544e-08
5.05546e-08
5.05547e-08
5.05549e-08
5.0555e-08
5.05552e-08
5.05553e-08
5.05554e-08
5.05555e-08
5.05556e-08
5.05557e-08
5.05558e-08
5.05559e-08
5.0556e-08
5.0556e-08
5.05561e-08
5.05562e-08
5.05562e-08
5.05563e-08
5.05564e-08
5.05564e-08
5.05565e-08
5.05565e-08
5.05565e-08
5.05566e-08
5.05566e-08
5.05567e-08
5.05567e-08
5.05567e-08
5.05567e-08
5.05568e-08
5.05568e-08
5.05568e-08
5.05568e-08
5.05568e-08
5.05569e-08
5.05569e-08
5.05569e-08
5.05569e-08
5.05569e-08
5.05569e-08
5.05569e-08
5.05569e-08
5.05569e-08
5.05569e-08
5.0557e-08
5.05569e-08
5.0557e-08
5.05569e-08
5.0557e-08
5.05569e-08
5.0557e-08
5.05569e-08
5.0557e-08
5.05569e-08
5.0557e-08
5.05569e-08
5.0557e-08
5.05568e-08
5.0557e-08
5.05568e-08
5.0557e-08
5.05568e-08
5.0557e-08
5.05568e-08
5.0557e-08
5.05567e-08
5.05571e-08
5.05567e-08
5.05571e-08
5.05566e-08
5.05572e-08
5.05565e-08
5.05572e-08
5.05564e-08
5.05573e-08
5.05563e-08
5.05574e-08
5.05564e-08
5.05576e-08
5.05566e-08
5.05577e-08
5.05568e-08
5.05577e-08
5.05569e-08
5.05577e-08
5.05572e-08
5.05577e-08
5.05573e-08
5.05576e-08
5.05573e-08
5.05576e-08
5.05573e-08
5.05575e-08
5.05573e-08
5.05575e-08
5.05573e-08
5.05574e-08
5.05572e-08
5.05574e-08
5.05572e-08
5.05573e-08
5.05572e-08
5.05573e-08
5.05572e-08
5.05573e-08
5.05573e-08
5.05576e-08
5.05576e-08
5.05663e-08
5.06634e-08
5.71268e-08
5.71292e-08
5.71315e-08
5.71337e-08
5.71357e-08
5.71377e-08
5.71396e-08
5.71414e-08
5.71431e-08
5.71447e-08
5.71462e-08
5.71477e-08
5.71491e-08
5.71504e-08
5.71517e-08
5.71529e-08
5.7154e-08
5.71551e-08
5.71561e-08
5.71571e-08
5.7158e-08
5.71589e-08
5.71597e-08
5.71605e-08
5.71612e-08
5.7162e-08
5.71626e-08
5.71633e-08
5.71639e-08
5.71645e-08
5.7165e-08
5.71655e-08
5.7166e-08
5.71665e-08
5.71669e-08
5.71673e-08
5.71677e-08
5.71681e-08
5.71684e-08
5.71688e-08
5.71691e-08
5.71694e-08
5.71696e-08
5.71699e-08
5.71702e-08
5.71704e-08
5.71706e-08
5.71708e-08
5.7171e-08
5.71712e-08
5.71714e-08
5.71716e-08
5.71717e-08
5.71719e-08
5.7172e-08
5.71721e-08
5.71722e-08
5.71724e-08
5.71725e-08
5.71726e-08
5.71727e-08
5.71728e-08
5.71728e-08
5.71729e-08
5.7173e-08
5.71731e-08
5.71731e-08
5.71732e-08
5.71733e-08
5.71733e-08
5.71734e-08
5.71734e-08
5.71734e-08
5.71735e-08
5.71735e-08
5.71736e-08
5.71736e-08
5.71736e-08
5.71737e-08
5.71737e-08
5.71737e-08
5.71737e-08
5.71738e-08
5.71738e-08
5.71738e-08
5.71738e-08
5.71738e-08
5.71738e-08
5.71739e-08
5.71739e-08
5.71739e-08
5.71739e-08
5.71739e-08
5.71739e-08
5.71739e-08
5.71739e-08
5.71739e-08
5.71739e-08
5.71739e-08
5.71739e-08
5.71739e-08
5.71739e-08
5.71739e-08
5.71739e-08
5.7174e-08
5.71739e-08
5.71739e-08
5.71739e-08
5.71739e-08
5.71739e-08
5.71739e-08
5.71738e-08
5.71739e-08
5.71738e-08
5.71739e-08
5.71738e-08
5.7174e-08
5.71738e-08
5.7174e-08
5.71738e-08
5.7174e-08
5.71737e-08
5.71741e-08
5.71736e-08
5.71741e-08
5.71735e-08
5.71741e-08
5.71735e-08
5.71742e-08
5.71734e-08
5.71743e-08
5.71735e-08
5.71744e-08
5.71736e-08
5.71745e-08
5.71738e-08
5.71746e-08
5.71739e-08
5.71745e-08
5.71741e-08
5.71745e-08
5.71742e-08
5.71745e-08
5.71742e-08
5.71745e-08
5.71742e-08
5.71744e-08
5.71742e-08
5.71744e-08
5.71742e-08
5.71743e-08
5.71742e-08
5.71743e-08
5.71742e-08
5.71742e-08
5.71742e-08
5.71742e-08
5.71742e-08
5.71742e-08
5.71742e-08
5.71744e-08
5.71745e-08
5.71813e-08
5.72556e-08
6.17826e-08
6.17844e-08
6.17861e-08
6.17877e-08
6.17892e-08
6.17907e-08
6.17921e-08
6.17934e-08
6.17947e-08
6.17959e-08
6.17971e-08
6.17982e-08
6.17992e-08
6.18002e-08
6.18011e-08
6.1802e-08
6.18028e-08
6.18037e-08
6.18044e-08
6.18051e-08
6.18058e-08
6.18065e-08
6.18071e-08
6.18077e-08
6.18083e-08
6.18088e-08
6.18093e-08
6.18098e-08
6.18102e-08
6.18106e-08
6.1811e-08
6.18114e-08
6.18118e-08
6.18121e-08
6.18125e-08
6.18128e-08
6.18131e-08
6.18133e-08
6.18136e-08
6.18138e-08
6.18141e-08
6.18143e-08
6.18145e-08
6.18147e-08
6.18149e-08
6.18151e-08
6.18152e-08
6.18154e-08
6.18155e-08
6.18157e-08
6.18158e-08
6.18159e-08
6.1816e-08
6.18161e-08
6.18162e-08
6.18163e-08
6.18164e-08
6.18165e-08
6.18166e-08
6.18167e-08
6.18167e-08
6.18168e-08
6.18169e-08
6.18169e-08
6.1817e-08
6.1817e-08
6.18171e-08
6.18171e-08
6.18172e-08
6.18172e-08
6.18173e-08
6.18173e-08
6.18173e-08
6.18173e-08
6.18174e-08
6.18174e-08
6.18174e-08
6.18175e-08
6.18175e-08
6.18175e-08
6.18175e-08
6.18175e-08
6.18175e-08
6.18176e-08
6.18176e-08
6.18176e-08
6.18176e-08
6.18176e-08
6.18176e-08
6.18176e-08
6.18176e-08
6.18176e-08
6.18177e-08
6.18177e-08
6.18177e-08
6.18177e-08
6.18177e-08
6.18177e-08
6.18177e-08
6.18177e-08
6.18177e-08
6.18177e-08
6.18177e-08
6.18177e-08
6.18177e-08
6.18176e-08
6.18177e-08
6.18176e-08
6.18177e-08
6.18176e-08
6.18177e-08
6.18176e-08
6.18177e-08
6.18176e-08
6.18177e-08
6.18176e-08
6.18177e-08
6.18176e-08
6.18177e-08
6.18175e-08
6.18178e-08
6.18175e-08
6.18178e-08
6.18175e-08
6.18178e-08
6.18174e-08
6.18178e-08
6.18173e-08
6.18179e-08
6.18173e-08
6.1818e-08
6.18173e-08
6.18181e-08
6.18174e-08
6.18181e-08
6.18175e-08
6.18182e-08
6.18176e-08
6.18182e-08
6.18178e-08
6.18181e-08
6.18178e-08
6.18181e-08
6.18179e-08
6.18181e-08
6.18179e-08
6.1818e-08
6.18179e-08
6.1818e-08
6.18179e-08
6.1818e-08
6.18178e-08
6.18179e-08
6.18178e-08
6.18179e-08
6.18178e-08
6.18179e-08
6.18178e-08
6.18179e-08
6.18179e-08
6.1818e-08
6.18181e-08
6.18229e-08
6.18745e-08
6.47981e-08
6.47993e-08
6.48005e-08
6.48016e-08
6.48027e-08
6.48037e-08
6.48046e-08
6.48056e-08
6.48064e-08
6.48073e-08
6.48081e-08
6.48088e-08
6.48095e-08
6.48102e-08
6.48108e-08
6.48115e-08
6.4812e-08
6.48126e-08
6.48131e-08
6.48136e-08
6.48141e-08
6.48145e-08
6.4815e-08
6.48154e-08
6.48157e-08
6.48161e-08
6.48165e-08
6.48168e-08
6.48171e-08
6.48174e-08
6.48177e-08
6.48179e-08
6.48182e-08
6.48184e-08
6.48186e-08
6.48188e-08
6.4819e-08
6.48192e-08
6.48194e-08
6.48196e-08
6.48197e-08
6.48199e-08
6.482e-08
6.48202e-08
6.48203e-08
6.48204e-08
6.48205e-08
6.48206e-08
6.48207e-08
6.48208e-08
6.48209e-08
6.4821e-08
6.48211e-08
6.48212e-08
6.48212e-08
6.48213e-08
6.48214e-08
6.48214e-08
6.48215e-08
6.48215e-08
6.48216e-08
6.48216e-08
6.48217e-08
6.48217e-08
6.48217e-08
6.48218e-08
6.48218e-08
6.48218e-08
6.48219e-08
6.48219e-08
6.48219e-08
6.48219e-08
6.4822e-08
6.4822e-08
6.4822e-08
6.4822e-08
6.4822e-08
6.48221e-08
6.48221e-08
6.48221e-08
6.48221e-08
6.48221e-08
6.48221e-08
6.48221e-08
6.48221e-08
6.48221e-08
6.48222e-08
6.48222e-08
6.48222e-08
6.48222e-08
6.48222e-08
6.48222e-08
6.48222e-08
6.48222e-08
6.48222e-08
6.48222e-08
6.48222e-08
6.48222e-08
6.48222e-08
6.48222e-08
6.48222e-08
6.48222e-08
6.48222e-08
6.48222e-08
6.48222e-08
6.48222e-08
6.48222e-08
6.48222e-08
6.48222e-08
6.48222e-08
6.48222e-08
6.48221e-08
6.48222e-08
6.48221e-08
6.48222e-08
6.48221e-08
6.48222e-08
6.48221e-08
6.48222e-08
6.48221e-08
6.48223e-08
6.48221e-08
6.48223e-08
6.4822e-08
6.48223e-08
6.4822e-08
6.48223e-08
6.48219e-08
6.48224e-08
6.48219e-08
6.48225e-08
6.48219e-08
6.48225e-08
6.4822e-08
6.48226e-08
6.48221e-08
6.48226e-08
6.48221e-08
6.48226e-08
6.48222e-08
6.48225e-08
6.48223e-08
6.48225e-08
6.48223e-08
6.48225e-08
6.48223e-08
6.48225e-08
6.48223e-08
6.48224e-08
6.48223e-08
6.48224e-08
6.48223e-08
6.48224e-08
6.48223e-08
6.48224e-08
6.48223e-08
6.48224e-08
6.48223e-08
6.48224e-08
6.48223e-08
6.48224e-08
6.48225e-08
6.48256e-08
6.48585e-08
6.66102e-08
6.6611e-08
6.66118e-08
6.66125e-08
6.66132e-08
6.66138e-08
6.66144e-08
6.6615e-08
6.66156e-08
6.66161e-08
6.66166e-08
6.66171e-08
6.66176e-08
6.6618e-08
6.66184e-08
6.66188e-08
6.66192e-08
6.66195e-08
6.66199e-08
6.66202e-08
6.66205e-08
6.66208e-08
6.66211e-08
6.66213e-08
6.66216e-08
6.66218e-08
6.6622e-08
6.66222e-08
6.66224e-08
6.66226e-08
6.66228e-08
6.6623e-08
6.66231e-08
6.66233e-08
6.66234e-08
6.66236e-08
6.66237e-08
6.66238e-08
6.66239e-08
6.6624e-08
6.66241e-08
6.66242e-08
6.66243e-08
6.66244e-08
6.66245e-08
6.66246e-08
6.66246e-08
6.66247e-08
6.66248e-08
6.66248e-08
6.66249e-08
6.66249e-08
6.6625e-08
6.6625e-08
6.66251e-08
6.66251e-08
6.66252e-08
6.66252e-08
6.66252e-08
6.66253e-08
6.66253e-08
6.66253e-08
6.66254e-08
6.66254e-08
6.66254e-08
6.66254e-08
6.66254e-08
6.66255e-08
6.66255e-08
6.66255e-08
6.66255e-08
6.66255e-08
6.66255e-08
6.66256e-08
6.66256e-08
6.66256e-08
6.66256e-08
6.66256e-08
6.66256e-08
6.66256e-08
6.66256e-08
6.66256e-08
6.66256e-08
6.66257e-08
6.66257e-08
6.66257e-08
6.66257e-08
6.66257e-08
6.66257e-08
6.66257e-08
6.66257e-08
6.66257e-08
6.66257e-08
6.66257e-08
6.66257e-08
6.66257e-08
6.66257e-08
6.66257e-08
6.66257e-08
6.66257e-08
6.66257e-08
6.66257e-08
6.66257e-08
6.66257e-08
6.66257e-08
6.66257e-08
6.66257e-08
6.66257e-08
6.66257e-08
6.66257e-08
6.66257e-08
6.66257e-08
6.66257e-08
6.66256e-08
6.66257e-08
6.66256e-08
6.66257e-08
6.66256e-08
6.66257e-08
6.66256e-08
6.66258e-08
6.66256e-08
6.66258e-08
6.66256e-08
6.66258e-08
6.66255e-08
6.66258e-08
6.66255e-08
6.66259e-08
6.66254e-08
6.66259e-08
6.66255e-08
6.6626e-08
6.66255e-08
6.6626e-08
6.66256e-08
6.6626e-08
6.66256e-08
6.6626e-08
6.66257e-08
6.6626e-08
6.66257e-08
6.66259e-08
6.66258e-08
6.66259e-08
6.66258e-08
6.66259e-08
6.66258e-08
6.66259e-08
6.66258e-08
6.66258e-08
6.66258e-08
6.66258e-08
6.66258e-08
6.66258e-08
6.66258e-08
6.66258e-08
6.66258e-08
6.66258e-08
6.66258e-08
6.66259e-08
6.66258e-08
6.66277e-08
6.66472e-08
6.76201e-08
6.76206e-08
6.76211e-08
6.76215e-08
6.76219e-08
6.76223e-08
6.76227e-08
6.76231e-08
6.76234e-08
6.76237e-08
6.7624e-08
6.76243e-08
6.76246e-08
6.76249e-08
6.76251e-08
6.76254e-08
6.76256e-08
6.76258e-08
6.7626e-08
6.76262e-08
6.76264e-08
6.76266e-08
6.76268e-08
6.76269e-08
6.76271e-08
6.76272e-08
6.76274e-08
6.76275e-08
6.76276e-08
6.76277e-08
6.76278e-08
6.76279e-08
6.7628e-08
6.76281e-08
6.76282e-08
6.76283e-08
6.76284e-08
6.76285e-08
6.76285e-08
6.76286e-08
6.76287e-08
6.76287e-08
6.76288e-08
6.76288e-08
6.76289e-08
6.76289e-08
6.7629e-08
6.7629e-08
6.7629e-08
6.76291e-08
6.76291e-08
6.76292e-08
6.76292e-08
6.76292e-08
6.76292e-08
6.76293e-08
6.76293e-08
6.76293e-08
6.76293e-08
6.76294e-08
6.76294e-08
6.76294e-08
6.76294e-08
6.76294e-08
6.76294e-08
6.76295e-08
6.76295e-08
6.76295e-08
6.76295e-08
6.76295e-08
6.76295e-08
6.76295e-08
6.76295e-08
6.76295e-08
6.76295e-08
6.76296e-08
6.76296e-08
6.76296e-08
6.76296e-08
6.76296e-08
6.76296e-08
6.76296e-08
6.76296e-08
6.76296e-08
6.76296e-08
6.76296e-08
6.76296e-08
6.76296e-08
6.76296e-08
6.76296e-08
6.76296e-08
6.76296e-08
6.76296e-08
6.76296e-08
6.76296e-08
6.76296e-08
6.76296e-08
6.76296e-08
6.76296e-08
6.76296e-08
6.76296e-08
6.76296e-08
6.76296e-08
6.76296e-08
6.76296e-08
6.76296e-08
6.76296e-08
6.76296e-08
6.76296e-08
6.76296e-08
6.76296e-08
6.76296e-08
6.76296e-08
6.76296e-08
6.76296e-08
6.76296e-08
6.76297e-08
6.76296e-08
6.76297e-08
6.76295e-08
6.76297e-08
6.76295e-08
6.76297e-08
6.76295e-08
6.76297e-08
6.76295e-08
6.76297e-08
6.76294e-08
6.76298e-08
6.76294e-08
6.76298e-08
6.76294e-08
6.76298e-08
6.76294e-08
6.76298e-08
6.76295e-08
6.76298e-08
6.76295e-08
6.76298e-08
6.76296e-08
6.76298e-08
6.76296e-08
6.76298e-08
6.76296e-08
6.76298e-08
6.76296e-08
6.76297e-08
6.76297e-08
6.76297e-08
6.76297e-08
6.76297e-08
6.76297e-08
6.76297e-08
6.76297e-08
6.76297e-08
6.76297e-08
6.76297e-08
6.76297e-08
6.76297e-08
6.76297e-08
6.76297e-08
6.76297e-08
6.76307e-08
6.76416e-08
6.8389e-08
6.83892e-08
6.83894e-08
6.83896e-08
6.83898e-08
6.839e-08
6.83901e-08
6.83903e-08
6.83904e-08
6.83906e-08
6.83907e-08
6.83908e-08
6.8391e-08
6.83911e-08
6.83912e-08
6.83913e-08
6.83914e-08
6.83915e-08
6.83916e-08
6.83917e-08
6.83917e-08
6.83918e-08
6.83919e-08
6.8392e-08
6.8392e-08
6.83921e-08
6.83922e-08
6.83922e-08
6.83923e-08
6.83923e-08
6.83924e-08
6.83924e-08
6.83925e-08
6.83925e-08
6.83925e-08
6.83926e-08
6.83926e-08
6.83926e-08
6.83927e-08
6.83927e-08
6.83927e-08
6.83927e-08
6.83928e-08
6.83928e-08
6.83928e-08
6.83928e-08
6.83929e-08
6.83929e-08
6.83929e-08
6.83929e-08
6.83929e-08
6.83929e-08
6.83929e-08
6.8393e-08
6.8393e-08
6.8393e-08
6.8393e-08
6.8393e-08
6.8393e-08
6.8393e-08
6.8393e-08
6.8393e-08
6.8393e-08
6.8393e-08
6.83931e-08
6.83931e-08
6.83931e-08
6.83931e-08
6.83931e-08
6.83931e-08
6.83931e-08
6.83931e-08
6.83931e-08
6.83931e-08
6.83931e-08
6.83931e-08
6.83931e-08
6.83931e-08
6.83931e-08
6.83931e-08
6.83931e-08
6.83931e-08
6.83931e-08
6.83931e-08
6.83931e-08
6.83931e-08
6.83931e-08
6.83931e-08
6.83931e-08
6.83931e-08
6.83931e-08
6.83931e-08
6.83931e-08
6.83931e-08
6.83931e-08
6.83931e-08
6.83931e-08
6.83931e-08
6.83931e-08
6.83931e-08
6.83931e-08
6.83931e-08
6.83931e-08
6.83931e-08
6.83931e-08
6.83931e-08
6.83931e-08
6.83931e-08
6.83931e-08
6.83931e-08
6.83931e-08
6.83931e-08
6.83931e-08
6.83931e-08
6.83932e-08
6.83931e-08
6.83932e-08
6.83931e-08
6.83932e-08
6.83931e-08
6.83932e-08
6.8393e-08
6.83932e-08
6.8393e-08
6.83932e-08
6.8393e-08
6.83932e-08
6.8393e-08
6.83932e-08
6.8393e-08
6.83933e-08
6.8393e-08
6.83933e-08
6.8393e-08
6.83933e-08
6.8393e-08
6.83933e-08
6.8393e-08
6.83933e-08
6.8393e-08
6.83933e-08
6.83931e-08
6.83932e-08
6.83931e-08
6.83932e-08
6.83931e-08
6.83932e-08
6.83931e-08
6.83932e-08
6.83931e-08
6.83932e-08
6.83931e-08