/*--------------------------------*- C++ -*----------------------------------*\
| =========                 |                                                 |
| \\      /  F ield         | OpenFOAM: The Open Source CFD Toolbox           |
|  \\    /   O peration     | Version:  v1912                                 |
|   \\  /    A nd           | Website:  www.openfoam.com                      |
|    \\/     M anipulation  |                                                 |
\*---------------------------------------------------------------------------*/
FoamFile
{
    version     2.0;
    format      ascii;
    class       volScalarField;
    location    "60";
    object      nut;
}
// * * * * * * * * * * * * * * * * * * * * * * * * * * * * * * * * * * * * * //

dimensions      [0 2 -1 0 0 0 0];


internalField   nonuniform List<scalar> 
14268
(
1.8765e-13
1.87682e-13
1.87712e-13
1.87741e-13
1.87768e-13
1.87794e-13
1.87819e-13
1.87843e-13
1.87865e-13
1.87887e-13
1.87907e-13
1.87926e-13
1.87945e-13
1.87962e-13
1.87979e-13
1.87995e-13
1.8801e-13
1.88024e-13
1.88038e-13
1.88051e-13
1.88063e-13
1.88074e-13
1.88085e-13
1.88096e-13
1.88106e-13
1.88115e-13
1.88124e-13
1.88133e-13
1.88141e-13
1.88148e-13
1.88155e-13
1.88162e-13
1.88169e-13
1.88175e-13
1.88181e-13
1.88186e-13
1.88191e-13
1.88196e-13
1.88201e-13
1.88205e-13
1.88209e-13
1.88213e-13
1.88217e-13
1.8822e-13
1.88224e-13
1.88227e-13
1.8823e-13
1.88232e-13
1.88235e-13
1.88237e-13
1.8824e-13
1.88242e-13
1.88244e-13
1.88246e-13
1.88248e-13
1.88249e-13
1.88251e-13
1.88253e-13
1.88254e-13
1.88255e-13
1.88257e-13
1.88258e-13
1.88259e-13
1.8826e-13
1.88261e-13
1.88262e-13
1.88263e-13
1.88264e-13
1.88264e-13
1.88265e-13
1.88266e-13
1.88266e-13
1.88267e-13
1.88267e-13
1.88268e-13
1.88268e-13
1.88269e-13
1.88269e-13
1.8827e-13
1.8827e-13
1.8827e-13
1.88271e-13
1.88271e-13
1.88271e-13
1.88271e-13
1.88272e-13
1.88272e-13
1.88272e-13
1.88272e-13
1.88272e-13
1.88273e-13
1.88273e-13
1.88273e-13
1.88273e-13
1.88273e-13
1.88273e-13
1.88273e-13
1.88273e-13
1.88273e-13
1.88273e-13
1.88273e-13
1.88273e-13
1.88273e-13
1.88273e-13
1.88273e-13
1.88273e-13
1.88273e-13
1.88272e-13
1.88273e-13
1.88272e-13
1.88273e-13
1.88272e-13
1.88273e-13
1.88272e-13
1.88273e-13
1.88271e-13
1.88273e-13
1.88271e-13
1.88274e-13
1.88271e-13
1.88274e-13
1.88271e-13
1.88275e-13
1.8827e-13
1.88275e-13
1.88268e-13
1.88276e-13
1.88267e-13
1.88276e-13
1.88267e-13
1.88278e-13
1.88268e-13
1.8828e-13
1.88269e-13
1.88281e-13
1.88271e-13
1.88282e-13
1.88273e-13
1.88282e-13
1.88276e-13
1.88282e-13
1.88277e-13
1.88281e-13
1.88277e-13
1.8828e-13
1.88277e-13
1.8828e-13
1.88277e-13
1.88279e-13
1.88277e-13
1.88278e-13
1.88276e-13
1.88278e-13
1.88276e-13
1.88277e-13
1.88276e-13
1.88277e-13
1.88276e-13
1.88277e-13
1.88277e-13
1.8828e-13
1.8828e-13
1.88385e-13
1.90479e-13
3.12919e-11
3.12977e-11
3.13032e-11
3.13084e-11
3.13134e-11
3.13181e-11
3.13226e-11
3.1327e-11
3.1331e-11
3.13349e-11
3.13386e-11
3.13422e-11
3.13455e-11
3.13487e-11
3.13517e-11
3.13546e-11
3.13573e-11
3.136e-11
3.13624e-11
3.13648e-11
3.1367e-11
3.13691e-11
3.13711e-11
3.1373e-11
3.13748e-11
3.13765e-11
3.13782e-11
3.13797e-11
3.13811e-11
3.13825e-11
3.13838e-11
3.13851e-11
3.13863e-11
3.13874e-11
3.13884e-11
3.13894e-11
3.13904e-11
3.13912e-11
3.13921e-11
3.13929e-11
3.13936e-11
3.13943e-11
3.1395e-11
3.13956e-11
3.13962e-11
3.13968e-11
3.13973e-11
3.13978e-11
3.13983e-11
3.13988e-11
3.13992e-11
3.13996e-11
3.14e-11
3.14003e-11
3.14006e-11
3.1401e-11
3.14012e-11
3.14015e-11
3.14018e-11
3.1402e-11
3.14023e-11
3.14025e-11
3.14027e-11
3.14029e-11
3.1403e-11
3.14032e-11
3.14034e-11
3.14035e-11
3.14036e-11
3.14038e-11
3.14039e-11
3.1404e-11
3.14041e-11
3.14042e-11
3.14043e-11
3.14044e-11
3.14045e-11
3.14045e-11
3.14046e-11
3.14047e-11
3.14047e-11
3.14048e-11
3.14048e-11
3.14049e-11
3.14049e-11
3.1405e-11
3.1405e-11
3.14051e-11
3.14051e-11
3.14051e-11
3.14051e-11
3.14052e-11
3.14052e-11
3.14052e-11
3.14052e-11
3.14052e-11
3.14052e-11
3.14052e-11
3.14053e-11
3.14053e-11
3.14053e-11
3.14052e-11
3.14053e-11
3.14052e-11
3.14053e-11
3.14052e-11
3.14053e-11
3.14051e-11
3.14053e-11
3.14051e-11
3.14053e-11
3.1405e-11
3.14053e-11
3.1405e-11
3.14053e-11
3.14049e-11
3.14053e-11
3.14049e-11
3.14054e-11
3.14049e-11
3.14055e-11
3.14048e-11
3.14056e-11
3.14046e-11
3.14056e-11
3.14044e-11
3.14057e-11
3.14042e-11
3.14058e-11
3.14042e-11
3.14061e-11
3.14043e-11
3.14064e-11
3.14046e-11
3.14066e-11
3.1405e-11
3.14067e-11
3.14052e-11
3.14067e-11
3.14057e-11
3.14067e-11
3.14059e-11
3.14066e-11
3.14059e-11
3.14065e-11
3.1406e-11
3.14064e-11
3.14059e-11
3.14063e-11
3.14059e-11
3.14061e-11
3.14058e-11
3.14061e-11
3.14058e-11
3.1406e-11
3.14058e-11
3.14059e-11
3.14058e-11
3.1406e-11
3.14059e-11
3.14064e-11
3.14065e-11
3.14239e-11
3.17586e-11
6.11128e-10
6.11244e-10
6.11354e-10
6.11459e-10
6.11559e-10
6.11655e-10
6.11745e-10
6.11832e-10
6.11914e-10
6.11992e-10
6.12066e-10
6.12137e-10
6.12205e-10
6.12269e-10
6.12329e-10
6.12387e-10
6.12442e-10
6.12495e-10
6.12544e-10
6.12591e-10
6.12636e-10
6.12678e-10
6.12719e-10
6.12757e-10
6.12793e-10
6.12828e-10
6.1286e-10
6.12891e-10
6.1292e-10
6.12948e-10
6.12975e-10
6.12999e-10
6.13023e-10
6.13045e-10
6.13067e-10
6.13086e-10
6.13105e-10
6.13123e-10
6.1314e-10
6.13156e-10
6.13171e-10
6.13186e-10
6.13199e-10
6.13212e-10
6.13224e-10
6.13235e-10
6.13246e-10
6.13256e-10
6.13265e-10
6.13274e-10
6.13283e-10
6.13291e-10
6.13298e-10
6.13305e-10
6.13312e-10
6.13318e-10
6.13324e-10
6.1333e-10
6.13335e-10
6.1334e-10
6.13344e-10
6.13349e-10
6.13353e-10
6.13357e-10
6.1336e-10
6.13364e-10
6.13367e-10
6.1337e-10
6.13372e-10
6.13375e-10
6.13377e-10
6.1338e-10
6.13382e-10
6.13384e-10
6.13386e-10
6.13387e-10
6.13389e-10
6.13391e-10
6.13392e-10
6.13393e-10
6.13394e-10
6.13396e-10
6.13397e-10
6.13398e-10
6.13398e-10
6.13399e-10
6.134e-10
6.13401e-10
6.13401e-10
6.13402e-10
6.13402e-10
6.13403e-10
6.13403e-10
6.13404e-10
6.13404e-10
6.13404e-10
6.13405e-10
6.13405e-10
6.13405e-10
6.13405e-10
6.13405e-10
6.13404e-10
6.13405e-10
6.13404e-10
6.13406e-10
6.13403e-10
6.13405e-10
6.13403e-10
6.13405e-10
6.13402e-10
6.13405e-10
6.134e-10
6.13405e-10
6.13399e-10
6.13405e-10
6.13399e-10
6.13406e-10
6.13398e-10
6.13407e-10
6.13398e-10
6.13409e-10
6.13396e-10
6.13411e-10
6.13393e-10
6.13412e-10
6.13388e-10
6.13413e-10
6.13384e-10
6.13415e-10
6.13383e-10
6.13421e-10
6.13386e-10
6.13427e-10
6.13392e-10
6.13431e-10
6.13399e-10
6.13433e-10
6.13403e-10
6.13433e-10
6.13414e-10
6.13432e-10
6.13417e-10
6.13431e-10
6.13418e-10
6.13429e-10
6.13418e-10
6.13426e-10
6.13418e-10
6.13424e-10
6.13417e-10
6.13422e-10
6.13416e-10
6.1342e-10
6.13415e-10
6.13419e-10
6.13415e-10
6.13418e-10
6.13415e-10
6.13419e-10
6.13417e-10
6.13427e-10
6.13429e-10
6.13766e-10
6.19725e-10
4.18633e-09
4.18714e-09
4.1879e-09
4.18864e-09
4.18933e-09
4.19e-09
4.19063e-09
4.19123e-09
4.1918e-09
4.19235e-09
4.19286e-09
4.19336e-09
4.19383e-09
4.19427e-09
4.1947e-09
4.1951e-09
4.19548e-09
4.19585e-09
4.19619e-09
4.19652e-09
4.19683e-09
4.19713e-09
4.19741e-09
4.19767e-09
4.19793e-09
4.19817e-09
4.19839e-09
4.19861e-09
4.19881e-09
4.19901e-09
4.19919e-09
4.19936e-09
4.19953e-09
4.19968e-09
4.19983e-09
4.19997e-09
4.2001e-09
4.20022e-09
4.20034e-09
4.20045e-09
4.20056e-09
4.20066e-09
4.20075e-09
4.20084e-09
4.20092e-09
4.201e-09
4.20108e-09
4.20115e-09
4.20121e-09
4.20128e-09
4.20134e-09
4.20139e-09
4.20144e-09
4.20149e-09
4.20154e-09
4.20158e-09
4.20162e-09
4.20166e-09
4.2017e-09
4.20173e-09
4.20176e-09
4.20179e-09
4.20182e-09
4.20185e-09
4.20187e-09
4.2019e-09
4.20192e-09
4.20194e-09
4.20196e-09
4.20198e-09
4.20199e-09
4.20201e-09
4.20202e-09
4.20204e-09
4.20205e-09
4.20206e-09
4.20207e-09
4.20208e-09
4.20209e-09
4.2021e-09
4.20211e-09
4.20212e-09
4.20213e-09
4.20213e-09
4.20214e-09
4.20215e-09
4.20215e-09
4.20216e-09
4.20216e-09
4.20216e-09
4.20217e-09
4.20217e-09
4.20217e-09
4.20218e-09
4.20218e-09
4.20218e-09
4.20218e-09
4.20218e-09
4.20218e-09
4.20218e-09
4.20219e-09
4.20218e-09
4.20219e-09
4.20218e-09
4.20219e-09
4.20217e-09
4.20219e-09
4.20217e-09
4.20219e-09
4.20216e-09
4.20219e-09
4.20215e-09
4.20218e-09
4.20215e-09
4.20218e-09
4.20214e-09
4.20219e-09
4.20214e-09
4.2022e-09
4.20214e-09
4.20221e-09
4.20213e-09
4.20223e-09
4.2021e-09
4.20223e-09
4.20207e-09
4.20224e-09
4.20204e-09
4.20226e-09
4.20204e-09
4.20229e-09
4.20206e-09
4.20234e-09
4.2021e-09
4.20236e-09
4.20215e-09
4.20237e-09
4.20218e-09
4.20237e-09
4.20225e-09
4.20237e-09
4.20227e-09
4.20236e-09
4.20228e-09
4.20235e-09
4.20228e-09
4.20233e-09
4.20227e-09
4.20232e-09
4.20227e-09
4.2023e-09
4.20226e-09
4.20229e-09
4.20226e-09
4.20228e-09
4.20225e-09
4.20228e-09
4.20226e-09
4.20228e-09
4.20227e-09
4.20234e-09
4.20235e-09
4.20462e-09
4.24115e-09
1.60966e-08
1.60996e-08
1.61025e-08
1.61053e-08
1.61079e-08
1.61104e-08
1.61128e-08
1.61151e-08
1.61172e-08
1.61193e-08
1.61212e-08
1.61231e-08
1.61249e-08
1.61266e-08
1.61281e-08
1.61297e-08
1.61311e-08
1.61325e-08
1.61338e-08
1.6135e-08
1.61362e-08
1.61373e-08
1.61384e-08
1.61394e-08
1.61403e-08
1.61412e-08
1.61421e-08
1.61429e-08
1.61437e-08
1.61444e-08
1.61451e-08
1.61457e-08
1.61464e-08
1.6147e-08
1.61475e-08
1.6148e-08
1.61485e-08
1.6149e-08
1.61494e-08
1.61499e-08
1.61503e-08
1.61506e-08
1.6151e-08
1.61513e-08
1.61516e-08
1.61519e-08
1.61522e-08
1.61525e-08
1.61527e-08
1.6153e-08
1.61532e-08
1.61534e-08
1.61536e-08
1.61538e-08
1.6154e-08
1.61541e-08
1.61543e-08
1.61544e-08
1.61546e-08
1.61547e-08
1.61548e-08
1.61549e-08
1.6155e-08
1.61551e-08
1.61552e-08
1.61553e-08
1.61554e-08
1.61555e-08
1.61555e-08
1.61556e-08
1.61557e-08
1.61557e-08
1.61558e-08
1.61558e-08
1.61559e-08
1.61559e-08
1.6156e-08
1.6156e-08
1.61561e-08
1.61561e-08
1.61561e-08
1.61562e-08
1.61562e-08
1.61562e-08
1.61562e-08
1.61563e-08
1.61563e-08
1.61563e-08
1.61563e-08
1.61563e-08
1.61563e-08
1.61564e-08
1.61564e-08
1.61564e-08
1.61564e-08
1.61564e-08
1.61564e-08
1.61564e-08
1.61564e-08
1.61564e-08
1.61564e-08
1.61564e-08
1.61564e-08
1.61564e-08
1.61564e-08
1.61564e-08
1.61564e-08
1.61563e-08
1.61564e-08
1.61563e-08
1.61564e-08
1.61563e-08
1.61564e-08
1.61563e-08
1.61564e-08
1.61562e-08
1.61564e-08
1.61562e-08
1.61565e-08
1.61562e-08
1.61565e-08
1.61562e-08
1.61566e-08
1.61561e-08
1.61566e-08
1.6156e-08
1.61566e-08
1.61559e-08
1.61567e-08
1.61558e-08
1.61568e-08
1.61559e-08
1.6157e-08
1.61561e-08
1.61571e-08
1.61563e-08
1.61571e-08
1.61564e-08
1.61571e-08
1.61566e-08
1.61571e-08
1.61567e-08
1.61571e-08
1.61567e-08
1.6157e-08
1.61568e-08
1.61569e-08
1.61567e-08
1.61569e-08
1.61567e-08
1.61568e-08
1.61567e-08
1.61568e-08
1.61567e-08
1.61568e-08
1.61567e-08
1.61567e-08
1.61567e-08
1.61568e-08
1.61567e-08
1.6157e-08
1.6157e-08
1.61654e-08
1.62891e-08
4.26532e-08
4.26607e-08
4.26679e-08
4.26747e-08
4.26812e-08
4.26874e-08
4.26933e-08
4.26989e-08
4.27042e-08
4.27093e-08
4.27141e-08
4.27187e-08
4.27231e-08
4.27273e-08
4.27312e-08
4.2735e-08
4.27386e-08
4.27419e-08
4.27452e-08
4.27482e-08
4.27511e-08
4.27539e-08
4.27565e-08
4.2759e-08
4.27613e-08
4.27636e-08
4.27657e-08
4.27677e-08
4.27696e-08
4.27714e-08
4.27731e-08
4.27747e-08
4.27763e-08
4.27777e-08
4.27791e-08
4.27804e-08
4.27816e-08
4.27828e-08
4.27839e-08
4.27849e-08
4.27859e-08
4.27868e-08
4.27877e-08
4.27885e-08
4.27893e-08
4.27901e-08
4.27908e-08
4.27914e-08
4.2792e-08
4.27926e-08
4.27932e-08
4.27937e-08
4.27942e-08
4.27946e-08
4.27951e-08
4.27955e-08
4.27959e-08
4.27962e-08
4.27966e-08
4.27969e-08
4.27972e-08
4.27975e-08
4.27977e-08
4.2798e-08
4.27982e-08
4.27984e-08
4.27986e-08
4.27988e-08
4.2799e-08
4.27992e-08
4.27993e-08
4.27995e-08
4.27996e-08
4.27997e-08
4.27999e-08
4.28e-08
4.28001e-08
4.28002e-08
4.28003e-08
4.28003e-08
4.28004e-08
4.28005e-08
4.28006e-08
4.28006e-08
4.28007e-08
4.28007e-08
4.28008e-08
4.28008e-08
4.28009e-08
4.28009e-08
4.28009e-08
4.2801e-08
4.2801e-08
4.2801e-08
4.28011e-08
4.28011e-08
4.28011e-08
4.28011e-08
4.28011e-08
4.28011e-08
4.28011e-08
4.28011e-08
4.28011e-08
4.28011e-08
4.28012e-08
4.2801e-08
4.28011e-08
4.2801e-08
4.28011e-08
4.28009e-08
4.28011e-08
4.28008e-08
4.28011e-08
4.28008e-08
4.28011e-08
4.28007e-08
4.28011e-08
4.28007e-08
4.28012e-08
4.28007e-08
4.28014e-08
4.28006e-08
4.28015e-08
4.28004e-08
4.28016e-08
4.28001e-08
4.28016e-08
4.27998e-08
4.28018e-08
4.27997e-08
4.28021e-08
4.27999e-08
4.28025e-08
4.28003e-08
4.28027e-08
4.28008e-08
4.28028e-08
4.2801e-08
4.28028e-08
4.28017e-08
4.28028e-08
4.28019e-08
4.28027e-08
4.2802e-08
4.28026e-08
4.2802e-08
4.28025e-08
4.28019e-08
4.28023e-08
4.28019e-08
4.28022e-08
4.28018e-08
4.28021e-08
4.28018e-08
4.2802e-08
4.28018e-08
4.2802e-08
4.28018e-08
4.2802e-08
4.28019e-08
4.28025e-08
4.28027e-08
4.28234e-08
4.31041e-08
8.62498e-08
8.6263e-08
8.62757e-08
8.62878e-08
8.62992e-08
8.63102e-08
8.63206e-08
8.63305e-08
8.63399e-08
8.63489e-08
8.63574e-08
8.63656e-08
8.63733e-08
8.63807e-08
8.63876e-08
8.63943e-08
8.64006e-08
8.64066e-08
8.64123e-08
8.64177e-08
8.64228e-08
8.64277e-08
8.64323e-08
8.64367e-08
8.64409e-08
8.64448e-08
8.64486e-08
8.64521e-08
8.64555e-08
8.64587e-08
8.64617e-08
8.64645e-08
8.64672e-08
8.64698e-08
8.64722e-08
8.64745e-08
8.64767e-08
8.64788e-08
8.64807e-08
8.64825e-08
8.64843e-08
8.64859e-08
8.64875e-08
8.64889e-08
8.64903e-08
8.64916e-08
8.64928e-08
8.6494e-08
8.64951e-08
8.64961e-08
8.64971e-08
8.6498e-08
8.64989e-08
8.64997e-08
8.65005e-08
8.65012e-08
8.65019e-08
8.65025e-08
8.65031e-08
8.65037e-08
8.65042e-08
8.65047e-08
8.65052e-08
8.65056e-08
8.6506e-08
8.65064e-08
8.65068e-08
8.65071e-08
8.65074e-08
8.65077e-08
8.6508e-08
8.65083e-08
8.65085e-08
8.65087e-08
8.65089e-08
8.65091e-08
8.65093e-08
8.65095e-08
8.65097e-08
8.65098e-08
8.651e-08
8.65101e-08
8.65102e-08
8.65103e-08
8.65104e-08
8.65105e-08
8.65106e-08
8.65107e-08
8.65108e-08
8.65108e-08
8.65109e-08
8.65109e-08
8.6511e-08
8.6511e-08
8.65111e-08
8.65111e-08
8.65111e-08
8.65111e-08
8.65112e-08
8.65112e-08
8.65112e-08
8.65111e-08
8.65112e-08
8.65111e-08
8.65112e-08
8.6511e-08
8.65112e-08
8.65109e-08
8.65112e-08
8.65108e-08
8.65112e-08
8.65107e-08
8.65112e-08
8.65106e-08
8.65112e-08
8.65105e-08
8.65112e-08
8.65104e-08
8.65114e-08
8.65104e-08
8.65116e-08
8.65102e-08
8.65119e-08
8.65098e-08
8.6512e-08
8.65093e-08
8.65121e-08
8.65088e-08
8.65124e-08
8.65087e-08
8.6513e-08
8.6509e-08
8.65136e-08
8.65097e-08
8.65141e-08
8.65106e-08
8.65143e-08
8.65111e-08
8.65143e-08
8.65122e-08
8.65142e-08
8.65126e-08
8.6514e-08
8.65127e-08
8.65138e-08
8.65127e-08
8.65136e-08
8.65126e-08
8.65133e-08
8.65125e-08
8.65131e-08
8.65124e-08
8.65129e-08
8.65124e-08
8.65128e-08
8.65123e-08
8.65127e-08
8.65124e-08
8.65127e-08
8.65126e-08
8.65137e-08
8.6514e-08
8.65507e-08
8.70153e-08
1.4148e-07
1.41498e-07
1.41515e-07
1.41531e-07
1.41546e-07
1.41561e-07
1.41575e-07
1.41588e-07
1.41601e-07
1.41613e-07
1.41624e-07
1.41635e-07
1.41645e-07
1.41655e-07
1.41664e-07
1.41673e-07
1.41681e-07
1.41689e-07
1.41697e-07
1.41704e-07
1.41711e-07
1.41718e-07
1.41724e-07
1.4173e-07
1.41735e-07
1.4174e-07
1.41745e-07
1.4175e-07
1.41755e-07
1.41759e-07
1.41763e-07
1.41767e-07
1.4177e-07
1.41774e-07
1.41777e-07
1.4178e-07
1.41783e-07
1.41786e-07
1.41788e-07
1.41791e-07
1.41793e-07
1.41795e-07
1.41797e-07
1.41799e-07
1.41801e-07
1.41803e-07
1.41804e-07
1.41806e-07
1.41807e-07
1.41809e-07
1.4181e-07
1.41811e-07
1.41813e-07
1.41814e-07
1.41815e-07
1.41816e-07
1.41816e-07
1.41817e-07
1.41818e-07
1.41819e-07
1.4182e-07
1.4182e-07
1.41821e-07
1.41821e-07
1.41822e-07
1.41823e-07
1.41823e-07
1.41823e-07
1.41824e-07
1.41824e-07
1.41825e-07
1.41825e-07
1.41825e-07
1.41826e-07
1.41826e-07
1.41826e-07
1.41826e-07
1.41827e-07
1.41827e-07
1.41827e-07
1.41827e-07
1.41827e-07
1.41828e-07
1.41828e-07
1.41828e-07
1.41828e-07
1.41828e-07
1.41828e-07
1.41828e-07
1.41828e-07
1.41829e-07
1.41829e-07
1.41829e-07
1.41829e-07
1.41829e-07
1.41829e-07
1.41829e-07
1.41829e-07
1.41829e-07
1.41829e-07
1.41829e-07
1.41829e-07
1.41829e-07
1.41829e-07
1.41829e-07
1.41829e-07
1.41829e-07
1.41829e-07
1.41829e-07
1.41828e-07
1.41829e-07
1.41828e-07
1.41829e-07
1.41828e-07
1.41829e-07
1.41828e-07
1.41829e-07
1.41828e-07
1.41829e-07
1.41828e-07
1.4183e-07
1.41828e-07
1.4183e-07
1.41827e-07
1.4183e-07
1.41826e-07
1.4183e-07
1.41826e-07
1.41831e-07
1.41826e-07
1.41831e-07
1.41826e-07
1.41832e-07
1.41827e-07
1.41833e-07
1.41828e-07
1.41833e-07
1.41829e-07
1.41833e-07
1.4183e-07
1.41833e-07
1.41831e-07
1.41833e-07
1.41831e-07
1.41833e-07
1.41831e-07
1.41832e-07
1.41831e-07
1.41832e-07
1.41831e-07
1.41832e-07
1.41831e-07
1.41831e-07
1.41831e-07
1.41831e-07
1.41831e-07
1.41831e-07
1.41831e-07
1.41831e-07
1.41831e-07
1.41832e-07
1.41833e-07
1.41881e-07
1.42468e-07
1.97358e-07
1.97377e-07
1.97395e-07
1.97412e-07
1.97428e-07
1.97444e-07
1.97458e-07
1.97472e-07
1.97486e-07
1.97498e-07
1.9751e-07
1.97522e-07
1.97533e-07
1.97543e-07
1.97553e-07
1.97562e-07
1.97571e-07
1.9758e-07
1.97588e-07
1.97595e-07
1.97603e-07
1.9761e-07
1.97616e-07
1.97622e-07
1.97628e-07
1.97634e-07
1.97639e-07
1.97644e-07
1.97649e-07
1.97653e-07
1.97658e-07
1.97662e-07
1.97665e-07
1.97669e-07
1.97673e-07
1.97676e-07
1.97679e-07
1.97682e-07
1.97684e-07
1.97687e-07
1.9769e-07
1.97692e-07
1.97694e-07
1.97696e-07
1.97698e-07
1.977e-07
1.97702e-07
1.97703e-07
1.97705e-07
1.97706e-07
1.97708e-07
1.97709e-07
1.9771e-07
1.97711e-07
1.97712e-07
1.97713e-07
1.97714e-07
1.97715e-07
1.97716e-07
1.97717e-07
1.97718e-07
1.97718e-07
1.97719e-07
1.9772e-07
1.9772e-07
1.97721e-07
1.97721e-07
1.97722e-07
1.97722e-07
1.97723e-07
1.97723e-07
1.97724e-07
1.97724e-07
1.97724e-07
1.97724e-07
1.97725e-07
1.97725e-07
1.97725e-07
1.97726e-07
1.97726e-07
1.97726e-07
1.97726e-07
1.97726e-07
1.97726e-07
1.97727e-07
1.97727e-07
1.97727e-07
1.97727e-07
1.97727e-07
1.97727e-07
1.97727e-07
1.97727e-07
1.97727e-07
1.97727e-07
1.97728e-07
1.97728e-07
1.97728e-07
1.97728e-07
1.97728e-07
1.97728e-07
1.97728e-07
1.97728e-07
1.97728e-07
1.97728e-07
1.97728e-07
1.97727e-07
1.97728e-07
1.97727e-07
1.97728e-07
1.97727e-07
1.97728e-07
1.97727e-07
1.97728e-07
1.97727e-07
1.97728e-07
1.97727e-07
1.97728e-07
1.97727e-07
1.97728e-07
1.97726e-07
1.97728e-07
1.97726e-07
1.97729e-07
1.97726e-07
1.97729e-07
1.97725e-07
1.97729e-07
1.97724e-07
1.97729e-07
1.97724e-07
1.9773e-07
1.97725e-07
1.97731e-07
1.97726e-07
1.97732e-07
1.97727e-07
1.97732e-07
1.97728e-07
1.97732e-07
1.97729e-07
1.97732e-07
1.9773e-07
1.97732e-07
1.9773e-07
1.97731e-07
1.9773e-07
1.97731e-07
1.9773e-07
1.97731e-07
1.9773e-07
1.9773e-07
1.97729e-07
1.9773e-07
1.97729e-07
1.9773e-07
1.97729e-07
1.9773e-07
1.97729e-07
1.9773e-07
1.9773e-07
1.97731e-07
1.97732e-07
1.97782e-07
1.9837e-07
2.44184e-07
2.442e-07
2.44216e-07
2.44231e-07
2.44245e-07
2.44258e-07
2.44271e-07
2.44284e-07
2.44295e-07
2.44306e-07
2.44317e-07
2.44327e-07
2.44337e-07
2.44346e-07
2.44354e-07
2.44363e-07
2.4437e-07
2.44378e-07
2.44385e-07
2.44392e-07
2.44398e-07
2.44404e-07
2.4441e-07
2.44415e-07
2.4442e-07
2.44425e-07
2.4443e-07
2.44434e-07
2.44438e-07
2.44442e-07
2.44446e-07
2.4445e-07
2.44453e-07
2.44456e-07
2.44459e-07
2.44462e-07
2.44465e-07
2.44467e-07
2.4447e-07
2.44472e-07
2.44474e-07
2.44476e-07
2.44478e-07
2.4448e-07
2.44482e-07
2.44483e-07
2.44485e-07
2.44486e-07
2.44488e-07
2.44489e-07
2.4449e-07
2.44491e-07
2.44492e-07
2.44493e-07
2.44494e-07
2.44495e-07
2.44496e-07
2.44497e-07
2.44498e-07
2.44498e-07
2.44499e-07
2.445e-07
2.445e-07
2.44501e-07
2.44501e-07
2.44502e-07
2.44502e-07
2.44503e-07
2.44503e-07
2.44503e-07
2.44504e-07
2.44504e-07
2.44504e-07
2.44505e-07
2.44505e-07
2.44505e-07
2.44505e-07
2.44506e-07
2.44506e-07
2.44506e-07
2.44506e-07
2.44506e-07
2.44506e-07
2.44507e-07
2.44507e-07
2.44507e-07
2.44507e-07
2.44507e-07
2.44507e-07
2.44507e-07
2.44507e-07
2.44507e-07
2.44507e-07
2.44507e-07
2.44508e-07
2.44508e-07
2.44508e-07
2.44508e-07
2.44508e-07
2.44508e-07
2.44508e-07
2.44508e-07
2.44508e-07
2.44507e-07
2.44508e-07
2.44507e-07
2.44508e-07
2.44507e-07
2.44508e-07
2.44507e-07
2.44508e-07
2.44507e-07
2.44508e-07
2.44507e-07
2.44508e-07
2.44507e-07
2.44508e-07
2.44507e-07
2.44508e-07
2.44507e-07
2.44508e-07
2.44506e-07
2.44509e-07
2.44506e-07
2.44509e-07
2.44505e-07
2.44509e-07
2.44505e-07
2.44509e-07
2.44504e-07
2.4451e-07
2.44505e-07
2.44511e-07
2.44506e-07
2.44511e-07
2.44507e-07
2.44512e-07
2.44507e-07
2.44512e-07
2.44509e-07
2.44511e-07
2.44509e-07
2.44511e-07
2.4451e-07
2.44511e-07
2.4451e-07
2.44511e-07
2.44509e-07
2.4451e-07
2.44509e-07
2.4451e-07
2.44509e-07
2.4451e-07
2.44509e-07
2.4451e-07
2.44509e-07
2.4451e-07
2.44509e-07
2.4451e-07
2.44509e-07
2.44511e-07
2.44511e-07
2.44554e-07
2.45042e-07
2.77954e-07
2.77967e-07
2.77979e-07
2.7799e-07
2.78001e-07
2.78011e-07
2.78021e-07
2.7803e-07
2.78039e-07
2.78048e-07
2.78056e-07
2.78063e-07
2.78071e-07
2.78077e-07
2.78084e-07
2.7809e-07
2.78096e-07
2.78102e-07
2.78107e-07
2.78112e-07
2.78117e-07
2.78122e-07
2.78126e-07
2.7813e-07
2.78134e-07
2.78138e-07
2.78141e-07
2.78145e-07
2.78148e-07
2.78151e-07
2.78154e-07
2.78156e-07
2.78159e-07
2.78161e-07
2.78164e-07
2.78166e-07
2.78168e-07
2.7817e-07
2.78171e-07
2.78173e-07
2.78175e-07
2.78176e-07
2.78178e-07
2.78179e-07
2.78181e-07
2.78182e-07
2.78183e-07
2.78184e-07
2.78185e-07
2.78186e-07
2.78187e-07
2.78188e-07
2.78189e-07
2.78189e-07
2.7819e-07
2.78191e-07
2.78191e-07
2.78192e-07
2.78193e-07
2.78193e-07
2.78194e-07
2.78194e-07
2.78194e-07
2.78195e-07
2.78195e-07
2.78196e-07
2.78196e-07
2.78196e-07
2.78197e-07
2.78197e-07
2.78197e-07
2.78197e-07
2.78198e-07
2.78198e-07
2.78198e-07
2.78198e-07
2.78198e-07
2.78199e-07
2.78199e-07
2.78199e-07
2.78199e-07
2.78199e-07
2.78199e-07
2.78199e-07
2.78199e-07
2.78199e-07
2.782e-07
2.782e-07
2.782e-07
2.782e-07
2.782e-07
2.782e-07
2.782e-07
2.782e-07
2.782e-07
2.782e-07
2.782e-07
2.782e-07
2.782e-07
2.782e-07
2.782e-07
2.782e-07
2.782e-07
2.782e-07
2.782e-07
2.782e-07
2.782e-07
2.782e-07
2.782e-07
2.782e-07
2.782e-07
2.782e-07
2.782e-07
2.78199e-07
2.782e-07
2.78199e-07
2.782e-07
2.78199e-07
2.782e-07
2.78199e-07
2.78201e-07
2.78199e-07
2.78201e-07
2.78199e-07
2.78201e-07
2.78198e-07
2.78201e-07
2.78198e-07
2.78201e-07
2.78197e-07
2.78202e-07
2.78198e-07
2.78203e-07
2.78198e-07
2.78203e-07
2.78199e-07
2.78203e-07
2.782e-07
2.78203e-07
2.78201e-07
2.78203e-07
2.78201e-07
2.78203e-07
2.78201e-07
2.78203e-07
2.78202e-07
2.78202e-07
2.78201e-07
2.78202e-07
2.78201e-07
2.78202e-07
2.78201e-07
2.78202e-07
2.78201e-07
2.78202e-07
2.78201e-07
2.78202e-07
2.78201e-07
2.78202e-07
2.78202e-07
2.78203e-07
2.78203e-07
2.78234e-07
2.78584e-07
2.99639e-07
2.99648e-07
2.99656e-07
2.99664e-07
2.99671e-07
2.99678e-07
2.99685e-07
2.99691e-07
2.99697e-07
2.99703e-07
2.99708e-07
2.99713e-07
2.99718e-07
2.99723e-07
2.99728e-07
2.99732e-07
2.99736e-07
2.9974e-07
2.99743e-07
2.99747e-07
2.9975e-07
2.99753e-07
2.99756e-07
2.99759e-07
2.99762e-07
2.99764e-07
2.99766e-07
2.99769e-07
2.99771e-07
2.99773e-07
2.99775e-07
2.99777e-07
2.99778e-07
2.9978e-07
2.99782e-07
2.99783e-07
2.99784e-07
2.99786e-07
2.99787e-07
2.99788e-07
2.99789e-07
2.9979e-07
2.99791e-07
2.99792e-07
2.99793e-07
2.99794e-07
2.99795e-07
2.99795e-07
2.99796e-07
2.99797e-07
2.99797e-07
2.99798e-07
2.99799e-07
2.99799e-07
2.998e-07
2.998e-07
2.998e-07
2.99801e-07
2.99801e-07
2.99802e-07
2.99802e-07
2.99802e-07
2.99803e-07
2.99803e-07
2.99803e-07
2.99803e-07
2.99804e-07
2.99804e-07
2.99804e-07
2.99804e-07
2.99804e-07
2.99804e-07
2.99805e-07
2.99805e-07
2.99805e-07
2.99805e-07
2.99805e-07
2.99805e-07
2.99805e-07
2.99805e-07
2.99806e-07
2.99806e-07
2.99806e-07
2.99806e-07
2.99806e-07
2.99806e-07
2.99806e-07
2.99806e-07
2.99806e-07
2.99806e-07
2.99806e-07
2.99806e-07
2.99806e-07
2.99806e-07
2.99806e-07
2.99806e-07
2.99806e-07
2.99806e-07
2.99806e-07
2.99806e-07
2.99806e-07
2.99806e-07
2.99806e-07
2.99806e-07
2.99806e-07
2.99806e-07
2.99806e-07
2.99806e-07
2.99806e-07
2.99806e-07
2.99806e-07
2.99806e-07
2.99806e-07
2.99806e-07
2.99806e-07
2.99806e-07
2.99806e-07
2.99806e-07
2.99807e-07
2.99806e-07
2.99807e-07
2.99805e-07
2.99807e-07
2.99805e-07
2.99807e-07
2.99805e-07
2.99807e-07
2.99804e-07
2.99807e-07
2.99804e-07
2.99808e-07
2.99804e-07
2.99808e-07
2.99805e-07
2.99809e-07
2.99805e-07
2.99809e-07
2.99806e-07
2.99809e-07
2.99807e-07
2.99809e-07
2.99807e-07
2.99808e-07
2.99807e-07
2.99808e-07
2.99807e-07
2.99808e-07
2.99807e-07
2.99808e-07
2.99807e-07
2.99808e-07
2.99807e-07
2.99808e-07
2.99807e-07
2.99807e-07
2.99807e-07
2.99807e-07
2.99807e-07
2.99807e-07
2.99807e-07
2.99808e-07
2.99808e-07
2.99829e-07
3.00051e-07
3.12341e-07
3.12346e-07
3.12351e-07
3.12356e-07
3.1236e-07
3.12365e-07
3.12369e-07
3.12373e-07
3.12377e-07
3.1238e-07
3.12384e-07
3.12387e-07
3.1239e-07
3.12393e-07
3.12396e-07
3.12399e-07
3.12401e-07
3.12404e-07
3.12406e-07
3.12408e-07
3.1241e-07
3.12412e-07
3.12414e-07
3.12416e-07
3.12417e-07
3.12419e-07
3.1242e-07
3.12422e-07
3.12423e-07
3.12424e-07
3.12426e-07
3.12427e-07
3.12428e-07
3.12429e-07
3.1243e-07
3.12431e-07
3.12432e-07
3.12432e-07
3.12433e-07
3.12434e-07
3.12435e-07
3.12435e-07
3.12436e-07
3.12437e-07
3.12437e-07
3.12438e-07
3.12438e-07
3.12439e-07
3.12439e-07
3.12439e-07
3.1244e-07
3.1244e-07
3.12441e-07
3.12441e-07
3.12441e-07
3.12441e-07
3.12442e-07
3.12442e-07
3.12442e-07
3.12442e-07
3.12443e-07
3.12443e-07
3.12443e-07
3.12443e-07
3.12443e-07
3.12443e-07
3.12444e-07
3.12444e-07
3.12444e-07
3.12444e-07
3.12444e-07
3.12444e-07
3.12444e-07
3.12444e-07
3.12444e-07
3.12445e-07
3.12445e-07
3.12445e-07
3.12445e-07
3.12445e-07
3.12445e-07
3.12445e-07
3.12445e-07
3.12445e-07
3.12445e-07
3.12445e-07
3.12445e-07
3.12445e-07
3.12445e-07
3.12445e-07
3.12445e-07
3.12445e-07
3.12445e-07
3.12445e-07
3.12445e-07
3.12445e-07
3.12445e-07
3.12445e-07
3.12445e-07
3.12445e-07
3.12445e-07
3.12445e-07
3.12445e-07
3.12445e-07
3.12445e-07
3.12445e-07
3.12445e-07
3.12445e-07
3.12445e-07
3.12445e-07
3.12445e-07
3.12445e-07
3.12445e-07
3.12445e-07
3.12445e-07
3.12445e-07
3.12445e-07
3.12445e-07
3.12446e-07
3.12445e-07
3.12446e-07
3.12445e-07
3.12446e-07
3.12444e-07
3.12446e-07
3.12444e-07
3.12446e-07
3.12444e-07
3.12446e-07
3.12444e-07
3.12447e-07
3.12444e-07
3.12447e-07
3.12444e-07
3.12447e-07
3.12444e-07
3.12447e-07
3.12445e-07
3.12447e-07
3.12445e-07
3.12447e-07
3.12446e-07
3.12447e-07
3.12446e-07
3.12447e-07
3.12446e-07
3.12446e-07
3.12446e-07
3.12446e-07
3.12446e-07
3.12446e-07
3.12446e-07
3.12446e-07
3.12446e-07
3.12446e-07
3.12446e-07
3.12446e-07
3.12446e-07
3.12446e-07
3.12446e-07
3.12446e-07
3.12446e-07
3.12458e-07
3.12589e-07
3.19195e-07
3.19198e-07
3.19201e-07
3.19204e-07
3.19207e-07
3.19209e-07
3.19212e-07
3.19214e-07
3.19217e-07
3.19219e-07
3.19221e-07
3.19223e-07
3.19225e-07
3.19226e-07
3.19228e-07
3.1923e-07
3.19231e-07
3.19233e-07
3.19234e-07
3.19235e-07
3.19236e-07
3.19238e-07
3.19239e-07
3.1924e-07
3.19241e-07
3.19242e-07
3.19243e-07
3.19244e-07
3.19244e-07
3.19245e-07
3.19246e-07
3.19246e-07
3.19247e-07
3.19248e-07
3.19248e-07
3.19249e-07
3.19249e-07
3.1925e-07
3.1925e-07
3.19251e-07
3.19251e-07
3.19252e-07
3.19252e-07
3.19252e-07
3.19253e-07
3.19253e-07
3.19253e-07
3.19254e-07
3.19254e-07
3.19254e-07
3.19254e-07
3.19254e-07
3.19255e-07
3.19255e-07
3.19255e-07
3.19255e-07
3.19255e-07
3.19256e-07
3.19256e-07
3.19256e-07
3.19256e-07
3.19256e-07
3.19256e-07
3.19256e-07
3.19256e-07
3.19256e-07
3.19257e-07
3.19257e-07
3.19257e-07
3.19257e-07
3.19257e-07
3.19257e-07
3.19257e-07
3.19257e-07
3.19257e-07
3.19257e-07
3.19257e-07
3.19257e-07
3.19257e-07
3.19257e-07
3.19257e-07
3.19257e-07
3.19257e-07
3.19257e-07
3.19257e-07
3.19257e-07
3.19257e-07
3.19257e-07
3.19257e-07
3.19257e-07
3.19257e-07
3.19258e-07
3.19258e-07
3.19258e-07
3.19258e-07
3.19258e-07
3.19258e-07
3.19258e-07
3.19258e-07
3.19258e-07
3.19258e-07
3.19258e-07
3.19258e-07
3.19258e-07
3.19258e-07
3.19258e-07
3.19258e-07
3.19257e-07
3.19258e-07
3.19257e-07
3.19258e-07
3.19257e-07
3.19258e-07
3.19257e-07
3.19258e-07
3.19257e-07
3.19258e-07
3.19257e-07
3.19258e-07
3.19257e-07
3.19258e-07
3.19257e-07
3.19258e-07
3.19257e-07
3.19258e-07
3.19257e-07
3.19258e-07
3.19256e-07
3.19258e-07
3.19256e-07
3.19259e-07
3.19256e-07
3.19259e-07
3.19256e-07
3.19259e-07
3.19257e-07
3.19259e-07
3.19257e-07
3.19259e-07
3.19257e-07
3.19259e-07
3.19257e-07
3.19259e-07
3.19258e-07
3.19258e-07
3.19258e-07
3.19258e-07
3.19258e-07
3.19258e-07
3.19258e-07
3.19258e-07
3.19258e-07
3.19258e-07
3.19258e-07
3.19258e-07
3.19258e-07
3.19258e-07
3.19258e-07
3.19258e-07
3.19258e-07
3.19258e-07
3.19258e-07
3.19265e-07
3.19342e-07
3.24223e-07
3.24224e-07
3.24225e-07
3.24226e-07
3.24227e-07
3.24229e-07
3.2423e-07
3.24231e-07
3.24232e-07
3.24233e-07
3.24233e-07
3.24234e-07
3.24235e-07
3.24236e-07
3.24236e-07
3.24237e-07
3.24238e-07
3.24238e-07
3.24239e-07
3.24239e-07
3.2424e-07
3.2424e-07
3.24241e-07
3.24241e-07
3.24242e-07
3.24242e-07
3.24242e-07
3.24243e-07
3.24243e-07
3.24243e-07
3.24244e-07
3.24244e-07
3.24244e-07
3.24245e-07
3.24245e-07
3.24245e-07
3.24245e-07
3.24245e-07
3.24246e-07
3.24246e-07
3.24246e-07
3.24246e-07
3.24246e-07
3.24246e-07
3.24247e-07
3.24247e-07
3.24247e-07
3.24247e-07
3.24247e-07
3.24247e-07
3.24247e-07
3.24247e-07
3.24247e-07
3.24248e-07
3.24248e-07
3.24248e-07
3.24248e-07
3.24248e-07
3.24248e-07
3.24248e-07
3.24248e-07
3.24248e-07
3.24248e-07
3.24248e-07
3.24248e-07
3.24248e-07
3.24248e-07
3.24248e-07
3.24248e-07
3.24248e-07
3.24248e-07
3.24248e-07
3.24248e-07
3.24248e-07
3.24248e-07
3.24248e-07
3.24248e-07
3.24248e-07
3.24248e-07
3.24249e-07
3.24249e-07
3.24249e-07
3.24249e-07
3.24249e-07
3.24249e-07
3.24249e-07
3.24249e-07
3.24249e-07
3.24249e-07
3.24249e-07
3.24249e-07
3.24249e-07
3.24249e-07
3.24249e-07
3.24249e-07
3.24249e-07
3.24249e-07
3.24249e-07
3.24249e-07
3.24249e-07
3.24249e-07
3.24249e-07
3.24249e-07
3.24249e-07
3.24249e-07
3.24249e-07
3.24249e-07
3.24249e-07
3.24249e-07
3.24249e-07
3.24249e-07
3.24248e-07
3.24249e-07
3.24248e-07
3.24249e-07
3.24248e-07
3.24249e-07
3.24248e-07
3.24249e-07
3.24248e-07
3.24249e-07
3.24248e-07
3.24249e-07
3.24248e-07
3.24249e-07
3.24248e-07
3.24249e-07
3.24248e-07
3.24249e-07
3.24248e-07
3.24249e-07
3.24248e-07
3.2425e-07
3.24248e-07
3.2425e-07
3.24248e-07
3.2425e-07
3.24248e-07
3.24249e-07
3.24248e-07
3.24249e-07
3.24248e-07
3.24249e-07
3.24248e-07
3.24249e-07
3.24248e-07
3.24249e-07
3.24249e-07
3.24249e-07
3.24249e-07
3.24249e-07
3.24249e-07
3.24249e-07
3.24249e-07
3.24249e-07