/*--------------------------------*- C++ -*----------------------------------*\
| =========                 |                                                 |
| \\      /  F ield         | OpenFOAM: The Open Source CFD Toolbox           |
|  \\    /   O peration     | Version:  v1912                                 |
|   \\  /    A nd           | Website:  www.openfoam.com                      |
|    \\/     M anipulation  |                                                 |
\*---------------------------------------------------------------------------*/
FoamFile
{
    version     2.0;
    format      ascii;
    class       volScalarField;
    location    "60";
    object      p_rgh;
}
// * * * * * * * * * * * * * * * * * * * * * * * * * * * * * * * * * * * * * //

dimensions      [1 -1 -2 0 0 0 0];


internalField   nonuniform List<scalar> 
14268
(
0.000358328
0.000337591
0.000317969
0.000299426
0.000281893
0.000265328
0.000249676
0.000234892
0.00022093
0.000207747
0.000195304
0.000183561
0.000172482
0.000162031
0.000152176
0.000142884
0.000134125
0.000125871
0.000118095
0.00011077
0.000103873
9.73789e-05
9.1267e-05
8.55159e-05
8.01055e-05
7.50171e-05
7.02327e-05
6.57353e-05
6.15088e-05
5.75379e-05
5.38082e-05
5.03059e-05
4.70181e-05
4.39325e-05
4.10375e-05
3.83221e-05
3.57758e-05
3.33888e-05
3.11518e-05
2.90559e-05
2.70928e-05
2.52547e-05
2.35341e-05
2.1924e-05
2.04177e-05
1.9009e-05
1.7692e-05
1.6461e-05
1.53109e-05
1.42366e-05
1.32334e-05
1.22971e-05
1.14233e-05
1.06082e-05
9.84808e-06
9.13948e-06
8.47914e-06
7.86397e-06
7.29107e-06
6.75774e-06
6.26142e-06
5.79969e-06
5.37031e-06
4.97115e-06
4.60023e-06
4.25567e-06
3.93573e-06
3.63875e-06
3.3632e-06
3.10763e-06
2.8707e-06
2.65112e-06
2.44772e-06
2.25938e-06
2.08507e-06
1.92381e-06
1.77469e-06
1.63686e-06
1.50954e-06
1.39197e-06
1.28348e-06
1.1834e-06
1.09116e-06
1.00618e-06
9.27938e-07
8.55958e-07
7.89788e-07
7.29007e-07
6.73227e-07
6.22089e-07
5.7526e-07
5.32429e-07
4.93316e-07
4.5765e-07
4.25208e-07
3.95727e-07
3.69094e-07
3.44945e-07
3.23468e-07
3.03837e-07
2.87116e-07
2.71167e-07
2.59086e-07
2.45978e-07
2.38535e-07
2.27408e-07
2.24881e-07
2.15354e-07
2.17702e-07
2.0911e-07
2.16984e-07
2.08301e-07
2.22734e-07
2.12659e-07
2.35057e-07
2.21861e-07
2.54031e-07
2.35529e-07
2.79579e-07
2.53141e-07
3.1134e-07
2.74222e-07
3.48639e-07
2.98758e-07
3.90823e-07
3.27616e-07
4.37801e-07
3.62417e-07
4.89252e-07
4.04627e-07
5.4378e-07
4.5448e-07
6.00106e-07
5.10546e-07
6.54033e-07
5.69769e-07
7.03682e-07
6.29126e-07
7.47944e-07
6.88035e-07
7.86683e-07
7.40097e-07
8.19678e-07
7.84838e-07
8.47219e-07
8.22085e-07
8.69804e-07
8.52268e-07
8.88043e-07
8.76229e-07
9.02558e-07
8.9491e-07
9.13916e-07
9.09215e-07
9.22617e-07
9.19932e-07
9.29026e-07
9.27676e-07
9.33405e-07
9.32893e-07
9.3579e-07
9.35811e-07
9.35507e-07
9.35751e-07
0.000358284
0.000337548
0.000317929
0.000299388
0.000281858
0.000265295
0.000249644
0.000234862
0.000220901
0.00020772
0.000195279
0.000183537
0.00017246
0.00016201
0.000152156
0.000142865
0.000134107
0.000125854
0.000118079
0.000110755
0.000103858
9.73656e-05
9.12545e-05
8.55041e-05
8.00944e-05
7.50067e-05
7.02229e-05
6.5726e-05
6.15001e-05
5.75297e-05
5.38004e-05
5.02986e-05
4.70113e-05
4.39261e-05
4.10315e-05
3.83164e-05
3.57705e-05
3.33838e-05
3.1147e-05
2.90514e-05
2.70887e-05
2.52508e-05
2.35304e-05
2.19205e-05
2.04145e-05
1.9006e-05
1.76891e-05
1.64583e-05
1.53084e-05
1.42342e-05
1.32312e-05
1.2295e-05
1.14213e-05
1.06063e-05
9.84634e-06
9.13785e-06
8.4776e-06
7.86252e-06
7.28972e-06
6.75647e-06
6.26021e-06
5.79856e-06
5.36924e-06
4.97015e-06
4.59928e-06
4.25477e-06
3.93488e-06
3.63795e-06
3.36244e-06
3.10691e-06
2.87001e-06
2.65047e-06
2.44711e-06
2.2588e-06
2.08451e-06
1.92328e-06
1.77418e-06
1.63638e-06
1.50907e-06
1.39153e-06
1.28305e-06
1.183e-06
1.09077e-06
1.0058e-06
9.27575e-07
8.55608e-07
7.89449e-07
7.28678e-07
6.72909e-07
6.21781e-07
5.7496e-07
5.32137e-07
4.93032e-07
4.57373e-07
4.24938e-07
3.95463e-07
3.68835e-07
3.44692e-07
3.2322e-07
3.03593e-07
2.86877e-07
2.70932e-07
2.58854e-07
2.4575e-07
2.3831e-07
2.27188e-07
2.24663e-07
2.1514e-07
2.1749e-07
2.08903e-07
2.16778e-07
2.08101e-07
2.22533e-07
2.12465e-07
2.34861e-07
2.21674e-07
2.53839e-07
2.35349e-07
2.79391e-07
2.52968e-07
3.11156e-07
2.74054e-07
3.48459e-07
2.98595e-07
3.90648e-07
3.27457e-07
4.37633e-07
3.62263e-07
4.89091e-07
4.04476e-07
5.43626e-07
4.5433e-07
5.99957e-07
5.10395e-07
6.53888e-07
5.69615e-07
7.03536e-07
6.28967e-07
7.47798e-07
6.8787e-07
7.8653e-07
7.39926e-07
8.19518e-07
7.84661e-07
8.47051e-07
8.21903e-07
8.69629e-07
8.52081e-07
8.87862e-07
8.76039e-07
9.02371e-07
8.94717e-07
9.13725e-07
9.09019e-07
9.22423e-07
9.19733e-07
9.28829e-07
9.27476e-07
9.33205e-07
9.3269e-07
9.35588e-07
9.35605e-07
9.35305e-07
9.35547e-07
0.000358238
0.000337505
0.000317888
0.000299349
0.000281821
0.00026526
0.000249611
0.00023483
0.000220872
0.000207692
0.000195252
0.000183512
0.000172436
0.000161988
0.000152134
0.000142845
0.000134088
0.000125836
0.000118062
0.000110739
0.000103843
9.73513e-05
9.12409e-05
8.54913e-05
8.00823e-05
7.49952e-05
7.0212e-05
6.57158e-05
6.14903e-05
5.75205e-05
5.37917e-05
5.02904e-05
4.70035e-05
4.39187e-05
4.10245e-05
3.83098e-05
3.57642e-05
3.33778e-05
3.11414e-05
2.90461e-05
2.70836e-05
2.5246e-05
2.35258e-05
2.19162e-05
2.04103e-05
1.9002e-05
1.76853e-05
1.64547e-05
1.53049e-05
1.42309e-05
1.32281e-05
1.2292e-05
1.14184e-05
1.06036e-05
9.84369e-06
9.1353e-06
8.47515e-06
7.86016e-06
7.28744e-06
6.75427e-06
6.25809e-06
5.79651e-06
5.36725e-06
4.96822e-06
4.59741e-06
4.25296e-06
3.93311e-06
3.63623e-06
3.36076e-06
3.10528e-06
2.86842e-06
2.64891e-06
2.44557e-06
2.2573e-06
2.08304e-06
1.92183e-06
1.77276e-06
1.63498e-06
1.5077e-06
1.39017e-06
1.28171e-06
1.18167e-06
1.08946e-06
1.00451e-06
9.26295e-07
8.5434e-07
7.88193e-07
7.27433e-07
6.71674e-07
6.20555e-07
5.73742e-07
5.30928e-07
4.9183e-07
4.56177e-07
4.23749e-07
3.9428e-07
3.67658e-07
3.4352e-07
3.22053e-07
3.02431e-07
2.85718e-07
2.69779e-07
2.57704e-07
2.44605e-07
2.37166e-07
2.26049e-07
2.23526e-07
2.14008e-07
2.16359e-07
2.07778e-07
2.15652e-07
2.06983e-07
2.21413e-07
2.11354e-07
2.33746e-07
2.2057e-07
2.52728e-07
2.34252e-07
2.78284e-07
2.51877e-07
3.10052e-07
2.72969e-07
3.47358e-07
2.97516e-07
3.89551e-07
3.26384e-07
4.36541e-07
3.61195e-07
4.88009e-07
4.03411e-07
5.42552e-07
4.53267e-07
5.98893e-07
5.09329e-07
6.52828e-07
5.68543e-07
7.02477e-07
6.27888e-07
7.46739e-07
6.86788e-07
7.85464e-07
7.38839e-07
8.18444e-07
7.83569e-07
8.4597e-07
8.20805e-07
8.6854e-07
8.50979e-07
8.86766e-07
8.74932e-07
9.01269e-07
8.93606e-07
9.12618e-07
9.07905e-07
9.21311e-07
9.18616e-07
9.27714e-07
9.26357e-07
9.32088e-07
9.31569e-07
9.3447e-07
9.34484e-07
9.342e-07
9.34432e-07
0.00035819
0.000337459
0.000317844
0.000299308
0.000281782
0.000265223
0.000249576
0.000234797
0.00022084
0.000207662
0.000195224
0.000183485
0.00017241
0.000161963
0.000152111
0.000142822
0.000134067
0.000125816
0.000118043
0.000110721
0.000103826
9.73348e-05
9.12252e-05
8.54763e-05
8.0068e-05
7.49816e-05
7.01991e-05
6.57034e-05
6.14785e-05
5.75092e-05
5.37809e-05
5.02801e-05
4.69936e-05
4.39093e-05
4.10154e-05
3.83011e-05
3.57558e-05
3.33698e-05
3.11337e-05
2.90387e-05
2.70764e-05
2.52391e-05
2.35192e-05
2.19097e-05
2.04041e-05
1.8996e-05
1.76795e-05
1.64491e-05
1.52994e-05
1.42256e-05
1.32229e-05
1.2287e-05
1.14136e-05
1.05988e-05
9.83903e-06
9.13076e-06
8.4707e-06
7.85581e-06
7.28317e-06
6.75009e-06
6.25398e-06
5.79247e-06
5.36329e-06
4.96432e-06
4.59356e-06
4.24917e-06
3.92937e-06
3.63253e-06
3.35712e-06
3.10167e-06
2.86485e-06
2.64538e-06
2.44208e-06
2.25383e-06
2.0796e-06
1.91842e-06
1.76937e-06
1.63162e-06
1.50436e-06
1.38685e-06
1.27841e-06
1.17839e-06
1.08619e-06
1.00125e-06
9.23057e-07
8.51116e-07
7.8498e-07
7.24232e-07
6.68483e-07
6.17374e-07
5.7057e-07
5.27764e-07
4.88674e-07
4.53029e-07
4.20607e-07
3.91144e-07
3.64528e-07
3.40396e-07
3.18933e-07
2.99316e-07
2.82608e-07
2.66673e-07
2.54602e-07
2.41507e-07
2.34071e-07
2.22959e-07
2.20439e-07
2.10924e-07
2.13277e-07
2.04701e-07
2.12576e-07
2.03912e-07
2.18341e-07
2.0829e-07
2.30679e-07
2.17513e-07
2.49667e-07
2.31202e-07
2.75227e-07
2.48834e-07
3.06998e-07
2.69932e-07
3.44308e-07
2.94483e-07
3.86507e-07
3.23355e-07
4.33503e-07
3.58169e-07
4.84978e-07
4.00389e-07
5.39529e-07
4.50248e-07
5.95876e-07
5.06309e-07
6.49814e-07
5.6552e-07
6.99463e-07
6.24862e-07
7.43725e-07
6.83756e-07
7.82443e-07
7.358e-07
8.15415e-07
7.80525e-07
8.42934e-07
8.17756e-07
8.65497e-07
8.47925e-07
8.83717e-07
8.71874e-07
8.98215e-07
8.90545e-07
9.09559e-07
9.04841e-07
9.18249e-07
9.1555e-07
9.2465e-07
9.23289e-07
9.2902e-07
9.28498e-07
9.31399e-07
9.31409e-07
9.31115e-07
9.31326e-07
0.000358139
0.00033741
0.000317798
0.000299264
0.00028174
0.000265183
0.000249538
0.00023476
0.000220805
0.000207629
0.000195192
0.000183455
0.000172381
0.000161936
0.000152085
0.000142798
0.000134043
0.000125793
0.000118021
0.0001107
0.000103806
9.73158e-05
9.12071e-05
8.54589e-05
8.00513e-05
7.49656e-05
7.01837e-05
6.56886e-05
6.14643e-05
5.74955e-05
5.37677e-05
5.02673e-05
4.69813e-05
4.38974e-05
4.1004e-05
3.829e-05
3.57451e-05
3.33594e-05
3.11236e-05
2.90289e-05
2.70669e-05
2.52298e-05
2.35102e-05
2.1901e-05
2.03955e-05
1.89876e-05
1.76714e-05
1.64411e-05
1.52916e-05
1.4218e-05
1.32154e-05
1.22796e-05
1.14063e-05
1.05917e-05
9.83203e-06
9.12386e-06
8.46391e-06
7.84911e-06
7.27656e-06
6.74356e-06
6.24753e-06
5.78609e-06
5.35697e-06
4.95807e-06
4.58737e-06
4.24303e-06
3.92329e-06
3.6265e-06
3.35112e-06
3.09572e-06
2.85894e-06
2.6395e-06
2.43623e-06
2.24802e-06
2.07382e-06
1.91266e-06
1.76364e-06
1.62591e-06
1.49867e-06
1.38119e-06
1.27277e-06
1.17276e-06
1.08058e-06
9.95659e-07
9.17476e-07
8.45547e-07
7.79424e-07
7.18687e-07
6.62949e-07
6.11848e-07
5.65054e-07
5.22256e-07
4.83174e-07
4.47536e-07
4.15121e-07
3.85664e-07
3.59053e-07
3.34927e-07
3.13469e-07
2.93857e-07
2.77153e-07
2.61223e-07
2.49154e-07
2.36065e-07
2.28631e-07
2.17523e-07
2.15005e-07
2.05496e-07
2.0785e-07
1.99279e-07
2.07154e-07
1.98497e-07
2.12925e-07
2.02883e-07
2.25267e-07
2.12113e-07
2.44259e-07
2.25809e-07
2.69823e-07
2.43447e-07
3.01598e-07
2.64551e-07
3.38912e-07
2.89108e-07
3.81114e-07
3.17984e-07
4.28115e-07
3.52804e-07
4.79601e-07
3.95026e-07
5.34159e-07
4.44887e-07
5.90515e-07
5.00946e-07
6.44458e-07
5.60153e-07
6.94108e-07
6.19489e-07
7.38369e-07
6.78381e-07
7.77081e-07
7.30419e-07
8.10046e-07
7.75138e-07
8.37557e-07
8.12364e-07
8.60112e-07
8.42527e-07
8.78325e-07
8.66472e-07
8.92817e-07
8.85139e-07
9.04157e-07
8.99432e-07
9.12843e-07
9.10138e-07
9.1924e-07
9.17874e-07
9.23608e-07
9.23082e-07
9.25986e-07
9.25992e-07
9.25705e-07
9.25888e-07
0.000358085
0.000337359
0.000317749
0.000299217
0.000281695
0.00026514
0.000249497
0.000234722
0.000220768
0.000207594
0.000195159
0.000183423
0.000172351
0.000161906
0.000152057
0.00014277
0.000134017
0.000125769
0.000117997
0.000110677
0.000103784
9.72946e-05
9.11867e-05
8.54393e-05
8.00325e-05
7.49474e-05
7.01661e-05
6.56716e-05
6.14479e-05
5.74797e-05
5.37524e-05
5.02525e-05
4.69669e-05
4.38834e-05
4.09904e-05
3.82768e-05
3.57323e-05
3.33469e-05
3.11114e-05
2.9017e-05
2.70553e-05
2.52185e-05
2.34991e-05
2.18901e-05
2.03849e-05
1.89772e-05
1.76611e-05
1.64311e-05
1.52818e-05
1.42082e-05
1.32058e-05
1.22702e-05
1.1397e-05
1.05825e-05
9.82298e-06
9.11492e-06
8.45507e-06
7.84037e-06
7.26791e-06
6.73499e-06
6.23904e-06
5.77768e-06
5.34863e-06
4.94978e-06
4.57915e-06
4.23487e-06
3.91517e-06
3.61844e-06
3.34311e-06
3.08775e-06
2.851e-06
2.63161e-06
2.42837e-06
2.24019e-06
2.06602e-06
1.90489e-06
1.7559e-06
1.61819e-06
1.49098e-06
1.37351e-06
1.26511e-06
1.16513e-06
1.07296e-06
9.88054e-07
9.09886e-07
8.37971e-07
7.71861e-07
7.11136e-07
6.55408e-07
6.04318e-07
5.57533e-07
5.14744e-07
4.7567e-07
4.40039e-07
4.07631e-07
3.78181e-07
3.51576e-07
3.27455e-07
3.06003e-07
2.86396e-07
2.69697e-07
2.53771e-07
2.41706e-07
2.28621e-07
2.2119e-07
2.10086e-07
2.07572e-07
1.98065e-07
2.00422e-07
1.91855e-07
1.99732e-07
1.9108e-07
2.05507e-07
1.95472e-07
2.17855e-07
2.04709e-07
2.36851e-07
2.18413e-07
2.62419e-07
2.36059e-07
2.94199e-07
2.57168e-07
3.31517e-07
2.81728e-07
3.73724e-07
3.10607e-07
4.20733e-07
3.45429e-07
4.72221e-07
3.87655e-07
5.2679e-07
4.3752e-07
5.83152e-07
4.9358e-07
6.37097e-07
5.52787e-07
6.86748e-07
6.12118e-07
7.31009e-07
6.71006e-07
7.69714e-07
7.23037e-07
8.02672e-07
7.6775e-07
8.30175e-07
8.04971e-07
8.52724e-07
8.35129e-07
8.70931e-07
8.5907e-07
8.85418e-07
8.77734e-07
8.96753e-07
8.92025e-07
9.05436e-07
9.02728e-07
9.1183e-07
9.10462e-07
9.16195e-07
9.15667e-07
9.18569e-07
9.1857e-07
9.18268e-07
9.18427e-07
0.00035803
0.000337307
0.000317699
0.000299169
0.00028165
0.000265097
0.000249455
0.000234682
0.00022073
0.000207558
0.000195124
0.000183389
0.000172319
0.000161875
0.000152027
0.000142742
0.00013399
0.000125743
0.000117972
0.000110653
0.000103761
9.72724e-05
9.11653e-05
8.54186e-05
8.00125e-05
7.49281e-05
7.01475e-05
6.56537e-05
6.14305e-05
5.74628e-05
5.37361e-05
5.02366e-05
4.69515e-05
4.38685e-05
4.09759e-05
3.82626e-05
3.57185e-05
3.33334e-05
3.10983e-05
2.90041e-05
2.70427e-05
2.52062e-05
2.34871e-05
2.18783e-05
2.03733e-05
1.89659e-05
1.765e-05
1.64201e-05
1.52709e-05
1.41976e-05
1.31953e-05
1.22598e-05
1.13868e-05
1.05724e-05
9.813e-06
9.10505e-06
8.44531e-06
7.8307e-06
7.25833e-06
6.7255e-06
6.22963e-06
5.76834e-06
5.33936e-06
4.94058e-06
4.57001e-06
4.22578e-06
3.90614e-06
3.60946e-06
3.33417e-06
3.07886e-06
2.84215e-06
2.6228e-06
2.4196e-06
2.23145e-06
2.05731e-06
1.89621e-06
1.74724e-06
1.60956e-06
1.48236e-06
1.36492e-06
1.25654e-06
1.15657e-06
1.06443e-06
9.79535e-07
9.01381e-07
8.2948e-07
7.63382e-07
7.02669e-07
6.46952e-07
5.95873e-07
5.49097e-07
5.06317e-07
4.67251e-07
4.31627e-07
3.99226e-07
3.69783e-07
3.43184e-07
3.19068e-07
2.97621e-07
2.78019e-07
2.61324e-07
2.45403e-07
2.33342e-07
2.20261e-07
2.12833e-07
2.01733e-07
1.99222e-07
1.89719e-07
1.92078e-07
1.83516e-07
1.91393e-07
1.82748e-07
1.97174e-07
1.87147e-07
2.09526e-07
1.96392e-07
2.28527e-07
2.10102e-07
2.54099e-07
2.27755e-07
2.85882e-07
2.4887e-07
3.23204e-07
2.73435e-07
3.65414e-07
3.02318e-07
4.12428e-07
3.37144e-07
4.63928e-07
3.79372e-07
5.18504e-07
4.2924e-07
5.74875e-07
4.853e-07
6.28825e-07
5.44504e-07
6.78475e-07
6.03831e-07
7.22735e-07
6.62717e-07
7.61434e-07
7.14742e-07
7.94386e-07
7.59448e-07
8.21881e-07
7.96664e-07
8.44423e-07
8.26817e-07
8.62623e-07
8.50754e-07
8.77105e-07
8.69414e-07
8.88436e-07
8.83701e-07
8.97115e-07
8.94402e-07
9.03506e-07
9.02133e-07
9.07868e-07
9.07336e-07
9.1024e-07
9.10236e-07
9.0993e-07
9.10076e-07
0.000357974
0.000337254
0.000317649
0.000299121
0.000281604
0.000265053
0.000249414
0.000234642
0.000220692
0.000207521
0.000195089
0.000183356
0.000172287
0.000161845
0.000151998
0.000142714
0.000133963
0.000125717
0.000117947
0.000110629
0.000103738
9.72503e-05
9.1144e-05
8.53981e-05
7.99927e-05
7.4909e-05
7.0129e-05
6.56358e-05
6.14133e-05
5.74461e-05
5.37199e-05
5.0221e-05
4.69363e-05
4.38537e-05
4.09615e-05
3.82487e-05
3.57048e-05
3.33202e-05
3.10853e-05
2.89915e-05
2.70304e-05
2.51941e-05
2.34752e-05
2.18667e-05
2.0362e-05
1.89547e-05
1.7639e-05
1.64093e-05
1.52603e-05
1.41871e-05
1.31851e-05
1.22497e-05
1.13768e-05
1.05626e-05
9.80324e-06
9.0954e-06
8.43576e-06
7.82125e-06
7.24898e-06
6.71623e-06
6.22045e-06
5.75923e-06
5.33032e-06
4.93161e-06
4.5611e-06
4.21693e-06
3.89734e-06
3.60071e-06
3.32547e-06
3.0702e-06
2.83354e-06
2.61422e-06
2.41105e-06
2.22294e-06
2.04883e-06
1.88776e-06
1.73882e-06
1.60116e-06
1.47399e-06
1.35657e-06
1.24821e-06
1.14826e-06
1.05613e-06
9.71254e-07
8.93115e-07
8.21228e-07
7.55143e-07
6.94442e-07
6.38736e-07
5.87667e-07
5.40901e-07
4.9813e-07
4.59072e-07
4.23457e-07
3.91063e-07
3.61626e-07
3.35033e-07
3.10924e-07
2.89482e-07
2.69885e-07
2.53194e-07
2.37278e-07
2.25221e-07
2.12144e-07
2.04719e-07
1.93623e-07
1.91115e-07
1.81616e-07
1.83978e-07
1.75419e-07
1.83298e-07
1.74658e-07
1.89084e-07
1.79064e-07
2.0144e-07
1.88316e-07
2.20446e-07
2.02034e-07
2.46022e-07
2.19694e-07
2.7781e-07
2.40814e-07
3.15135e-07
2.65383e-07
3.57351e-07
2.94269e-07
4.04373e-07
3.29097e-07
4.5588e-07
3.71329e-07
5.10463e-07
4.21201e-07
5.6684e-07
4.77262e-07
6.20793e-07
5.36467e-07
6.70444e-07
5.95788e-07
7.14705e-07
6.54671e-07
7.53397e-07
7.0669e-07
7.86341e-07
7.51391e-07
8.13829e-07
7.886e-07
8.36364e-07
8.18749e-07
8.54559e-07
8.42681e-07
8.69035e-07
8.61338e-07
8.80362e-07
8.75622e-07
8.89037e-07
8.8632e-07
8.95425e-07
8.94049e-07
8.99785e-07
8.99249e-07
9.02152e-07
9.02144e-07
9.01838e-07
9.01983e-07
0.00035792
0.000337202
0.000317599
0.000299074
0.000281559
0.00026501
0.000249373
0.000234603
0.000220655
0.000207485
0.000195055
0.000183323
0.000172255
0.000161815
0.00015197
0.000142687
0.000133937
0.000125692
0.000117923
0.000110606
0.000103716
9.72292e-05
9.11237e-05
8.53786e-05
7.9974e-05
7.4891e-05
7.01117e-05
6.56191e-05
6.13971e-05
5.74305e-05
5.37048e-05
5.02064e-05
4.69222e-05
4.384e-05
4.09482e-05
3.82358e-05
3.56923e-05
3.3308e-05
3.10735e-05
2.898e-05
2.70192e-05
2.51832e-05
2.34645e-05
2.18563e-05
2.03517e-05
1.89447e-05
1.76292e-05
1.63997e-05
1.52509e-05
1.41779e-05
1.31759e-05
1.22407e-05
1.1368e-05
1.05538e-05
9.79466e-06
9.08693e-06
8.4274e-06
7.81299e-06
7.24081e-06
6.70815e-06
6.21244e-06
5.7513e-06
5.32247e-06
4.92382e-06
4.55337e-06
4.20926e-06
3.88973e-06
3.59314e-06
3.31795e-06
3.06273e-06
2.8261e-06
2.60682e-06
2.40369e-06
2.21561e-06
2.04153e-06
1.88049e-06
1.73158e-06
1.59395e-06
1.4668e-06
1.3494e-06
1.24106e-06
1.14113e-06
1.04902e-06
9.64157e-07
8.86034e-07
8.14161e-07
7.48089e-07
6.87399e-07
6.31705e-07
5.80646e-07
5.3389e-07
4.91127e-07
4.52078e-07
4.1647e-07
3.84083e-07
3.54653e-07
3.28066e-07
3.03962e-07
2.82526e-07
2.62934e-07
2.46248e-07
2.30336e-07
2.18283e-07
2.05211e-07
1.97788e-07
1.86696e-07
1.84193e-07
1.74696e-07
1.77061e-07
1.68507e-07
1.76386e-07
1.67752e-07
1.82177e-07
1.72166e-07
1.94538e-07
1.81425e-07
2.13548e-07
1.9515e-07
2.39129e-07
2.12817e-07
2.7092e-07
2.33943e-07
3.0825e-07
2.58517e-07
3.50469e-07
2.87407e-07
3.97495e-07
3.22239e-07
4.49012e-07
3.64474e-07
5.03605e-07
4.14348e-07
5.59992e-07
4.7041e-07
6.1395e-07
5.29613e-07
6.63601e-07
5.88932e-07
7.07861e-07
6.47812e-07
7.46547e-07
6.99824e-07
7.79484e-07
7.44519e-07
8.06965e-07
7.81722e-07
8.29492e-07
8.11866e-07
8.4768e-07
8.35794e-07
8.62151e-07
8.54446e-07
8.73473e-07
8.68727e-07
8.82145e-07
8.79423e-07
8.88529e-07
8.87149e-07
8.92886e-07
8.92347e-07
8.95252e-07
8.95239e-07
8.94953e-07
8.95109e-07
0.000357866
0.000337151
0.000317551
0.000299028
0.000281515
0.000264968
0.000249333
0.000234565
0.000220619
0.000207451
0.000195022
0.000183292
0.000172226
0.000161787
0.000151943
0.000142661
0.000133913
0.000125668
0.000117901
0.000110585
0.000103695
9.72095e-05
9.11048e-05
8.53606e-05
7.99567e-05
7.48744e-05
7.00958e-05
6.56038e-05
6.13824e-05
5.74164e-05
5.36912e-05
5.01933e-05
4.69096e-05
4.38279e-05
4.09365e-05
3.82244e-05
3.56814e-05
3.32974e-05
3.10632e-05
2.897e-05
2.70095e-05
2.51737e-05
2.34554e-05
2.18474e-05
2.03431e-05
1.89362e-05
1.76209e-05
1.63916e-05
1.5243e-05
1.41702e-05
1.31684e-05
1.22333e-05
1.13607e-05
1.05467e-05
9.78764e-06
9.08003e-06
8.4206e-06
7.80629e-06
7.23421e-06
6.70163e-06
6.20601e-06
5.74495e-06
5.31619e-06
4.91761e-06
4.54722e-06
4.20317e-06
3.88369e-06
3.58716e-06
3.31202e-06
3.05683e-06
2.82025e-06
2.60101e-06
2.39792e-06
2.20987e-06
2.03582e-06
1.87481e-06
1.72593e-06
1.58832e-06
1.46119e-06
1.34382e-06
1.23549e-06
1.13558e-06
1.04349e-06
9.58647e-07
8.80538e-07
8.08679e-07
7.4262e-07
6.81943e-07
6.2626e-07
5.75211e-07
5.28465e-07
4.85711e-07
4.4667e-07
4.1107e-07
3.7869e-07
3.49267e-07
3.22686e-07
2.98588e-07
2.77157e-07
2.57571e-07
2.40889e-07
2.24982e-07
2.12932e-07
1.99865e-07
1.92445e-07
1.81357e-07
1.78857e-07
1.69364e-07
1.71731e-07
1.63182e-07
1.71062e-07
1.62435e-07
1.76858e-07
1.66855e-07
1.89224e-07
1.76122e-07
2.08238e-07
1.89855e-07
2.33823e-07
2.07529e-07
2.65618e-07
2.28662e-07
3.02951e-07
2.53239e-07
3.45175e-07
2.82132e-07
3.9221e-07
3.16967e-07
4.43737e-07
3.59206e-07
4.98334e-07
4.09084e-07
5.54731e-07
4.65146e-07
6.08694e-07
5.24348e-07
6.58347e-07
5.83658e-07
7.02608e-07
6.4254e-07
7.41288e-07
6.94548e-07
7.74217e-07
7.39237e-07
8.01689e-07
7.76435e-07
8.24209e-07
8.06572e-07
8.42391e-07
8.30495e-07
8.56856e-07
8.49144e-07
8.68172e-07
8.63421e-07
8.7684e-07
8.74113e-07
8.83222e-07
8.81837e-07
8.87576e-07
8.87033e-07
8.8994e-07
8.89922e-07
8.89659e-07
8.89829e-07
0.000357814
0.000337101
0.000317503
0.000298983
0.000281472
0.000264927
0.000249294
0.000234528
0.000220584
0.000207418
0.000194991
0.000183262
0.000172197
0.00016176
0.000151917
0.000142637
0.000133889
0.000125646
0.00011788
0.000110565
0.000103676
9.71912e-05
9.10874e-05
8.5344e-05
7.99409e-05
7.48593e-05
7.00813e-05
6.559e-05
6.13692e-05
5.74037e-05
5.36791e-05
5.01817e-05
4.68985e-05
4.38172e-05
4.09262e-05
3.82146e-05
3.56719e-05
3.32883e-05
3.10544e-05
2.89616e-05
2.70013e-05
2.51659e-05
2.34478e-05
2.184e-05
2.03359e-05
1.89293e-05
1.76142e-05
1.63851e-05
1.52367e-05
1.4164e-05
1.31624e-05
1.22274e-05
1.1355e-05
1.05411e-05
9.78219e-06
9.0747e-06
8.41538e-06
7.80117e-06
7.22918e-06
6.6967e-06
6.20116e-06
5.74017e-06
5.31148e-06
4.91297e-06
4.54265e-06
4.19866e-06
3.87924e-06
3.58275e-06
3.30766e-06
3.05252e-06
2.81598e-06
2.59678e-06
2.39373e-06
2.20571e-06
2.0317e-06
1.87072e-06
1.72186e-06
1.58427e-06
1.45717e-06
1.33982e-06
1.23152e-06
1.13163e-06
1.03955e-06
9.54724e-07
8.76631e-07
8.04786e-07
7.3874e-07
6.78075e-07
6.22403e-07
5.71365e-07
5.24629e-07
4.81884e-07
4.42851e-07
4.07259e-07
3.74886e-07
3.4547e-07
3.18896e-07
2.94803e-07
2.73378e-07
2.53796e-07
2.37119e-07
2.21217e-07
2.09171e-07
1.96109e-07
1.88691e-07
1.77608e-07
1.75111e-07
1.65622e-07
1.67991e-07
1.59447e-07
1.67328e-07
1.58707e-07
1.73128e-07
1.63135e-07
1.85498e-07
1.72409e-07
2.04517e-07
1.86149e-07
2.30107e-07
2.03829e-07
2.61906e-07
2.24968e-07
2.99243e-07
2.49551e-07
3.4147e-07
2.7845e-07
3.88507e-07
3.1329e-07
4.40039e-07
3.55531e-07
4.94651e-07
4.05412e-07
5.5106e-07
4.61475e-07
6.05028e-07
5.20675e-07
6.54682e-07
5.79983e-07
6.98942e-07
6.38864e-07
7.37617e-07
6.90863e-07
7.70541e-07
7.35544e-07
7.98007e-07
7.72737e-07
8.20518e-07
8.0287e-07
8.38691e-07
8.26788e-07
8.53151e-07
8.45431e-07
8.64463e-07
8.59705e-07
8.73126e-07
8.70394e-07
8.79504e-07
8.78115e-07
8.83857e-07
8.83309e-07
8.8622e-07
8.86197e-07
8.85959e-07
8.86144e-07
0.000357762
0.000337052
0.000317457
0.000298939
0.00028143
0.000264888
0.000249257
0.000234493
0.00022055
0.000207386
0.00019496
0.000183233
0.00017217
0.000161734
0.000151892
0.000142613
0.000133867
0.000125625
0.00011786
0.000110546
0.000103658
9.71741e-05
9.10712e-05
8.53285e-05
7.99262e-05
7.48453e-05
7.00681e-05
6.55774e-05
6.13572e-05
5.73923e-05
5.36683e-05
5.01713e-05
4.68886e-05
4.38078e-05
4.09173e-05
3.8206e-05
3.56637e-05
3.32804e-05
3.10469e-05
2.89544e-05
2.69945e-05
2.51593e-05
2.34414e-05
2.18339e-05
2.03301e-05
1.89237e-05
1.76088e-05
1.63799e-05
1.52316e-05
1.41591e-05
1.31577e-05
1.22229e-05
1.13506e-05
1.05369e-05
9.77804e-06
9.07067e-06
8.41146e-06
7.79735e-06
7.22546e-06
6.69306e-06
6.19761e-06
5.7367e-06
5.30809e-06
4.90964e-06
4.53939e-06
4.19545e-06
3.87609e-06
3.57966e-06
3.30462e-06
3.04952e-06
2.81303e-06
2.59386e-06
2.39085e-06
2.20287e-06
2.02888e-06
1.86793e-06
1.7191e-06
1.58154e-06
1.45447e-06
1.33713e-06
1.22885e-06
1.12898e-06
1.03692e-06
9.52114e-07
8.74037e-07
8.02206e-07
7.36174e-07
6.75521e-07
6.19861e-07
5.68833e-07
5.22106e-07
4.79371e-07
4.40346e-07
4.04762e-07
3.72397e-07
3.42986e-07
3.16419e-07
2.92332e-07
2.70912e-07
2.51336e-07
2.34663e-07
2.18766e-07
2.06724e-07
1.93667e-07
1.86251e-07
1.75172e-07
1.72679e-07
1.63194e-07
1.65565e-07
1.57026e-07
1.64907e-07
1.56294e-07
1.70713e-07
1.60729e-07
1.83089e-07
1.7001e-07
2.02111e-07
1.83759e-07
2.27703e-07
2.01448e-07
2.59505e-07
2.22594e-07
2.96845e-07
2.47181e-07
3.39077e-07
2.76082e-07
3.86123e-07
3.10925e-07
4.37666e-07
3.53169e-07
4.92283e-07
4.03054e-07
5.48705e-07
4.59117e-07
6.0268e-07
5.18313e-07
6.52335e-07
5.77613e-07
6.96597e-07
6.365e-07
7.35265e-07
6.88495e-07
7.68179e-07
7.33173e-07
7.95636e-07
7.70357e-07
8.18142e-07
8.00482e-07
8.3631e-07
8.24395e-07
8.50762e-07
8.43035e-07
8.62068e-07
8.57304e-07
8.70728e-07
8.67989e-07
8.77102e-07
8.75708e-07
8.81452e-07
8.80899e-07
8.83815e-07
8.83788e-07
8.8358e-07
8.83776e-07
0.000357711
0.000337004
0.000317411
0.000298895
0.000281389
0.000264849
0.00024922
0.000234458
0.000220517
0.000207354
0.00019493
0.000183205
0.000172143
0.000161708
0.000151868
0.000142591
0.000133846
0.000125605
0.000117841
0.000110528
0.000103641
9.71579e-05
9.10558e-05
8.53139e-05
7.99124e-05
7.48323e-05
7.00557e-05
6.55656e-05
6.13461e-05
5.73818e-05
5.36583e-05
5.01619e-05
4.68796e-05
4.37992e-05
4.09092e-05
3.81983e-05
3.56564e-05
3.32735e-05
3.10403e-05
2.89481e-05
2.69885e-05
2.51536e-05
2.3436e-05
2.18288e-05
2.03252e-05
1.8919e-05
1.76043e-05
1.63756e-05
1.52275e-05
1.41552e-05
1.31539e-05
1.22193e-05
1.13471e-05
1.05335e-05
9.77483e-06
9.06758e-06
8.40848e-06
7.79448e-06
7.22268e-06
6.69038e-06
6.19501e-06
5.73418e-06
5.30564e-06
4.90727e-06
4.53708e-06
4.1932e-06
3.8739e-06
3.57752e-06
3.30253e-06
3.04748e-06
2.81103e-06
2.5919e-06
2.38892e-06
2.20098e-06
2.02703e-06
1.86611e-06
1.7173e-06
1.57977e-06
1.45272e-06
1.33541e-06
1.22715e-06
1.1273e-06
1.03526e-06
9.50467e-07
8.72405e-07
8.00589e-07
7.3457e-07
6.7393e-07
6.18281e-07
5.67264e-07
5.20547e-07
4.77821e-07
4.38805e-07
4.03229e-07
3.70871e-07
3.41468e-07
3.14906e-07
2.90826e-07
2.69411e-07
2.49841e-07
2.33173e-07
2.1728e-07
2.05242e-07
1.9219e-07
1.84777e-07
1.73702e-07
1.71213e-07
1.61731e-07
1.64104e-07
1.5557e-07
1.63452e-07
1.54844e-07
1.69263e-07
1.59288e-07
1.81642e-07
1.68579e-07
2.00668e-07
1.82334e-07
2.26266e-07
2.00029e-07
2.58072e-07
2.21181e-07
2.95416e-07
2.45773e-07
3.37651e-07
2.74679e-07
3.847e-07
3.09526e-07
4.3625e-07
3.51773e-07
4.9088e-07
4.01662e-07
5.47315e-07
4.57726e-07
6.01296e-07
5.16921e-07
6.50952e-07
5.76216e-07
6.95214e-07
6.35105e-07
7.33876e-07
6.87094e-07
7.66784e-07
7.31764e-07
7.94235e-07
7.68943e-07
8.16731e-07
7.99064e-07
8.34891e-07
8.2297e-07
8.49338e-07
8.41603e-07
8.6064e-07
8.55869e-07
8.69295e-07
8.66552e-07
8.75666e-07
8.74267e-07
8.80013e-07
8.79456e-07
8.82377e-07
8.82344e-07
8.82165e-07
8.82368e-07
0.00035766
0.000336955
0.000317365
0.000298852
0.000281348
0.00026481
0.000249183
0.000234423
0.000220484
0.000207323
0.000194901
0.000183178
0.000172117
0.000161684
0.000151845
0.000142568
0.000133825
0.000125585
0.000117822
0.00011051
0.000103624
9.71421e-05
9.10409e-05
8.52998e-05
7.98991e-05
7.48197e-05
7.00438e-05
6.55544e-05
6.13355e-05
5.73718e-05
5.36488e-05
5.01529e-05
4.68712e-05
4.37913e-05
4.09016e-05
3.81912e-05
3.56497e-05
3.32672e-05
3.10343e-05
2.89424e-05
2.69831e-05
2.51485e-05
2.34312e-05
2.18242e-05
2.03209e-05
1.89149e-05
1.76005e-05
1.63719e-05
1.5224e-05
1.41519e-05
1.31508e-05
1.22163e-05
1.13443e-05
1.05308e-05
9.77225e-06
9.06511e-06
8.40613e-06
7.79223e-06
7.22053e-06
6.68832e-06
6.19304e-06
5.73229e-06
5.30383e-06
4.90553e-06
4.5354e-06
4.19159e-06
3.87234e-06
3.57602e-06
3.30107e-06
3.04607e-06
2.80966e-06
2.59058e-06
2.38764e-06
2.19973e-06
2.02581e-06
1.86492e-06
1.71615e-06
1.57864e-06
1.45162e-06
1.33433e-06
1.22609e-06
1.12626e-06
1.03424e-06
9.49461e-07
8.71414e-07
7.99613e-07
7.33608e-07
6.7298e-07
6.17343e-07
5.66337e-07
5.1963e-07
4.76913e-07
4.37906e-07
4.02338e-07
3.69987e-07
3.40591e-07
3.14036e-07
2.89962e-07
2.68552e-07
2.48987e-07
2.32324e-07
2.16436e-07
2.04402e-07
1.91356e-07
1.83944e-07
1.72874e-07
1.70388e-07
1.6091e-07
1.63286e-07
1.54757e-07
1.62638e-07
1.5404e-07
1.68454e-07
1.5849e-07
1.80839e-07
1.67787e-07
1.99869e-07
1.81551e-07
2.2547e-07
1.99255e-07
2.57279e-07
2.20413e-07
2.94626e-07
2.4501e-07
3.36866e-07
2.73919e-07
3.83923e-07
3.08768e-07
4.35483e-07
3.51019e-07
4.90121e-07
4.00911e-07
5.46569e-07
4.56976e-07
6.00556e-07
5.16169e-07
6.50215e-07
5.75457e-07
6.94477e-07
6.34351e-07
7.33133e-07
6.86336e-07
7.66033e-07
7.31001e-07
7.93474e-07
7.68173e-07
8.15964e-07
7.98287e-07
8.34117e-07
8.22188e-07
8.48557e-07
8.40817e-07
8.59854e-07
8.55077e-07
8.68505e-07
8.65756e-07
8.74873e-07
8.73469e-07
8.79217e-07
8.78656e-07
8.81581e-07
8.81544e-07
8.81395e-07
8.816e-07
0.000357583
0.000336883
0.000317297
0.000298787
0.000281287
0.000264752
0.000249128
0.000234371
0.000220435
0.000207277
0.000194857
0.000183136
0.000172078
0.000161647
0.00015181
0.000142535
0.000133793
0.000125555
0.000117794
0.000110484
0.0001036
9.71187e-05
9.10189e-05
8.52791e-05
7.98795e-05
7.48012e-05
7.00264e-05
6.5538e-05
6.132e-05
5.73572e-05
5.36351e-05
5.014e-05
4.6859e-05
4.37798e-05
4.08908e-05
3.8181e-05
3.56401e-05
3.32581e-05
3.10258e-05
2.89344e-05
2.69756e-05
2.51414e-05
2.34245e-05
2.18179e-05
2.03149e-05
1.89093e-05
1.75952e-05
1.63669e-05
1.52194e-05
1.41475e-05
1.31466e-05
1.22123e-05
1.13405e-05
1.05273e-05
9.76893e-06
9.06198e-06
8.40316e-06
7.78943e-06
7.21788e-06
6.68581e-06
6.19066e-06
5.73003e-06
5.30168e-06
4.90349e-06
4.53346e-06
4.18974e-06
3.87058e-06
3.57434e-06
3.29947e-06
3.04454e-06
2.8082e-06
2.58918e-06
2.3863e-06
2.19844e-06
2.02457e-06
1.86373e-06
1.715e-06
1.57753e-06
1.45054e-06
1.33329e-06
1.22509e-06
1.12529e-06
1.03329e-06
9.48541e-07
8.70519e-07
7.9874e-07
7.32755e-07
6.72147e-07
6.16528e-07
5.65538e-07
5.18847e-07
4.76144e-07
4.3715e-07
4.01594e-07
3.69255e-07
3.39869e-07
3.13324e-07
2.89259e-07
2.67858e-07
2.48301e-07
2.31645e-07
2.15765e-07
2.03736e-07
1.90698e-07
1.8329e-07
1.72226e-07
1.69747e-07
1.60273e-07
1.62653e-07
1.54133e-07
1.62014e-07
1.53425e-07
1.67836e-07
1.57888e-07
1.80226e-07
1.67198e-07
1.99264e-07
1.80973e-07
2.24871e-07
1.98687e-07
2.56687e-07
2.19855e-07
2.94039e-07
2.44459e-07
3.36284e-07
2.73373e-07
3.83349e-07
3.08227e-07
4.3492e-07
3.50483e-07
4.89575e-07
4.00381e-07
5.46045e-07
4.56448e-07
6.00041e-07
5.15639e-07
6.49702e-07
5.74921e-07
6.93965e-07
6.3382e-07
7.32612e-07
6.85796e-07
7.65502e-07
7.30451e-07
7.92932e-07
7.67615e-07
8.15408e-07
7.9772e-07
8.33551e-07
8.21611e-07
8.47983e-07
8.40232e-07
8.59272e-07
8.54487e-07