/*--------------------------------*- C++ -*----------------------------------*\
| =========                 |                                                 |
| \\      /  F ield         | OpenFOAM: The Open Source CFD Toolbox           |
|  \\    /   O peration     | Version:  v1912                                 |
|   \\  /    A nd           | Website:  www.openfoam.com                      |
|    \\/     M anipulation  |                                                 |
\*---------------------------------------------------------------------------*/
FoamFile
{
    version     2.0;
    format      ascii;
    class       surfaceScalarField;
    location    "30";
    object      alphaPhi0.water;
}
// * * * * * * * * * * * * * * * * * * * * * * * * * * * * * * * * * * * * * //

dimensions      [0 3 -1 0 0 0 0];
oriented        oriented;


internalField   nonuniform List<scalar> 
28285
(
-1.68237e-05
-2.94337e-06
-4.30128e-06
-1.25224e-05
1.52425e-05
-1.95438e-05
3.79116e-05
-2.26691e-05
5.9237e-05
-2.13254e-05
7.56953e-05
-1.64583e-05
8.50069e-05
-9.31155e-06
8.65243e-05
-1.51738e-06
8.13134e-05
5.21088e-06
7.21321e-05
9.18126e-06
6.22293e-05
9.90282e-06
5.45079e-05
7.72146e-06
5.03229e-05
4.18494e-06
4.88033e-05
1.51966e-06
4.71658e-05
1.63745e-06
4.25873e-05
4.5785e-06
3.40533e-05
8.53395e-06
2.35485e-05
1.05049e-05
1.49119e-05
8.63661e-06
1.07876e-05
4.12428e-06
1.01148e-05
6.72821e-07
7.54888e-06
2.56589e-06
-3.60055e-06
1.11494e-05
-2.68319e-05
2.32314e-05
-5.94029e-05
3.25709e-05
-9.45659e-05
3.5163e-05
-0.000127383
3.28167e-05
-0.000157529
3.01469e-05
-0.000186173
2.86439e-05
-0.000209044
2.2871e-05
-0.000216549
7.50434e-06
-0.000201496
-1.50532e-05
-0.000165438
-3.60572e-05
-0.000120211
-4.52278e-05
-7.26009e-05
-4.76097e-05
-9.73652e-06
-6.28643e-05
9.28509e-05
-0.000102587
0.00021796
-0.000125109
0.000317037
-9.90772e-05
0.000382635
-6.55984e-05
0.000430799
-4.81636e-05
0.000463575
-3.27758e-05
0.000466055
-2.48045e-06
3.3292e-05
0.000432763
-1.68405e-05
-5.88687e-06
-4.31751e-06
-2.50454e-05
1.52262e-05
-3.90875e-05
3.78955e-05
-4.53384e-05
5.92212e-05
-4.26511e-05
7.56798e-05
-3.29169e-05
8.49913e-05
-1.86231e-05
8.65088e-05
-3.03484e-06
8.12983e-05
1.04214e-05
7.21167e-05
1.83629e-05
6.22136e-05
1.98059e-05
5.44921e-05
1.54429e-05
5.03071e-05
8.36991e-06
4.87874e-05
3.03936e-06
4.71503e-05
3.27458e-06
4.2572e-05
9.1568e-06
3.4038e-05
1.7068e-05
2.35328e-05
2.101e-05
1.48961e-05
1.72733e-05
1.07718e-05
8.24863e-06
1.00993e-05
1.34528e-06
7.53403e-06
5.13118e-06
-3.61543e-06
2.22989e-05
-2.68464e-05
4.64623e-05
-5.94177e-05
6.51423e-05
-9.45809e-05
7.03262e-05
-0.000127397
6.56332e-05
-0.000157545
6.02941e-05
-0.000186189
5.72879e-05
-0.00020906
4.57426e-05
-0.000216565
1.50091e-05
-0.000201512
-3.01063e-05
-0.000165455
-7.21136e-05
-0.000120227
-9.04562e-05
-7.26175e-05
-9.52193e-05
-9.75214e-06
-0.00012573
9.28362e-05
-0.000205176
0.000217953
-0.000250225
0.000316997
-0.000198122
0.000382722
-0.000131323
0.0004308
-9.6242e-05
0.00046343
-6.54056e-05
0.000466778
-5.82837e-06
6.69276e-05
0.000433142
-1.68565e-05
-8.83051e-06
-4.3327e-06
-3.75692e-05
1.52114e-05
-5.86316e-05
3.78819e-05
-6.80089e-05
5.92087e-05
-6.39779e-05
7.56677e-05
-4.93759e-05
8.49793e-05
-2.79347e-05
8.64968e-05
-4.55226e-06
8.12858e-05
1.56323e-05
7.21034e-05
2.75453e-05
6.21996e-05
2.97097e-05
5.44779e-05
2.31647e-05
5.02932e-05
1.25546e-05
4.87739e-05
4.55872e-06
4.71372e-05
4.91127e-06
4.25592e-05
1.37348e-05
3.40247e-05
2.56025e-05
2.35189e-05
3.15158e-05
1.48817e-05
2.59105e-05
1.07575e-05
1.23728e-05
1.00859e-05
2.01686e-06
7.52174e-06
7.69539e-06
-3.62682e-06
3.34474e-05
-2.68586e-05
6.96941e-05
-5.94315e-05
9.77151e-05
-9.45958e-05
0.000105491
-0.000127413
9.845e-05
-0.000157559
9.04405e-05
-0.000186205
8.5934e-05
-0.000209079
6.86162e-05
-0.000216584
2.25144e-05
-0.00020153
-4.51602e-05
-0.000165472
-0.000108172
-0.000120241
-0.000135687
-7.26321e-05
-0.000142828
-9.76914e-06
-0.000188593
9.28299e-05
-0.000307775
0.000217954
-0.00037535
0.000317021
-0.000297188
0.000382697
-0.000196999
0.000430738
-0.000144283
0.00046341
-9.80768e-05
0.000467031
-9.44941e-06
0.0001004
0.000433558
-1.68646e-05
-1.17743e-05
-4.3399e-06
-5.00939e-05
1.52054e-05
-7.8177e-05
3.78773e-05
-9.06808e-05
5.92054e-05
-8.5306e-05
7.56652e-05
-6.58357e-05
8.49769e-05
-3.72464e-05
8.64938e-05
-6.06923e-06
8.1282e-05
2.08441e-05
7.20986e-05
3.67287e-05
6.2194e-05
3.96143e-05
5.44718e-05
3.08868e-05
5.02875e-05
1.67389e-05
4.87687e-05
6.07753e-06
4.71327e-05
6.5472e-06
4.25551e-05
1.83125e-05
3.402e-05
3.41376e-05
2.35132e-05
4.20226e-05
1.48753e-05
3.45484e-05
1.07515e-05
1.64966e-05
1.00813e-05
2.68701e-06
7.51893e-06
1.02578e-05
-3.62864e-06
4.4595e-05
-2.68613e-05
9.29268e-05
-5.9436e-05
0.00013029
-9.46018e-05
0.000140656
-0.000127419
0.000131267
-0.000157565
0.000120587
-0.000186213
0.000114582
-0.00020909
9.14925e-05
-0.000216597
3.00214e-05
-0.000201542
-6.02151e-05
-0.000165479
-0.000144235
-0.000120247
-0.000180919
-7.26405e-05
-0.000190435
-9.77981e-06
-0.000251453
9.28257e-05
-0.00041038
0.000217957
-0.000500481
0.000317061
-0.000396292
0.000382668
-0.000262607
0.000430642
-0.000192257
0.000463434
-0.000130868
0.000467679
-1.36948e-05
0.000134225
0.000433854
-1.68698e-05
-1.47183e-05
-4.34397e-06
-6.26198e-05
1.52029e-05
-9.77238e-05
3.78766e-05
-0.000113354
5.92062e-05
-0.000106636
7.5667e-05
-8.22966e-05
8.4979e-05
-4.65584e-05
8.64955e-05
-7.5857e-06
8.12828e-05
2.60567e-05
7.20982e-05
4.59134e-05
6.21921e-05
4.95204e-05
5.44694e-05
3.86096e-05
5.02853e-05
2.09229e-05
4.87675e-05
7.59533e-06
4.71325e-05
8.18222e-06
4.2555e-05
2.28899e-05
3.40195e-05
4.26731e-05
2.35114e-05
5.25306e-05
1.48726e-05
4.31872e-05
1.07492e-05
2.062e-05
1.0081e-05
3.35517e-06
7.52097e-06
1.28178e-05
-3.62548e-06
5.57415e-05
-2.6859e-05
0.00011616
-5.94361e-05
0.000162867
-9.46038e-05
0.000175824
-0.000127421
0.000164084
-0.000157567
0.000150733
-0.000186218
0.000143232
-0.000209098
0.000114373
-0.000216607
3.7531e-05
-0.000201551
-7.52711e-05
-0.000165484
-0.000180302
-0.00012025
-0.000226153
-7.2648e-05
-0.000238037
-9.79153e-06
-0.00031431
9.28209e-05
-0.000512993
0.000217962
-0.000625622
0.000317099
-0.000495429
0.000382636
-0.000328143
0.000430572
-0.000240194
0.000463465
-0.000163761
0.000467935
-1.81654e-05
0.000168054
0.000434106
-1.68749e-05
-1.76624e-05
-4.34775e-06
-7.51469e-05
1.52011e-05
-0.000117273
3.7877e-05
-0.00013603
5.92084e-05
-0.000127967
7.56704e-05
-9.87586e-05
8.49828e-05
-5.58707e-05
8.64986e-05
-9.10156e-06
8.12848e-05
3.12706e-05
7.20987e-05
5.50994e-05
6.21911e-05
5.94279e-05
5.44675e-05
4.63332e-05
5.02839e-05
2.51066e-05
4.87675e-05
9.11171e-06
4.71337e-05
9.81597e-06
4.25565e-05
2.74672e-05
3.40201e-05
5.12095e-05
2.35104e-05
6.30403e-05
1.48704e-05
5.18272e-05
1.07477e-05
2.47428e-05
1.0082e-05
4.02085e-06
7.52501e-06
1.53748e-05
-3.62012e-06
6.68866e-05
-2.68548e-05
0.000139395
-5.94345e-05
0.000195447
-9.46043e-05
0.000210994
-0.000127422
0.000196902
-0.000157569
0.00018088
-0.000186222
0.000171885
-0.000209106
0.000137257
-0.000216619
4.50437e-05
-0.000201561
-9.03284e-05
-0.00016549
-0.000216374
-0.000120254
-0.000271388
-7.26573e-05
-0.000285634
-9.80545e-06
-0.000377162
9.28173e-05
-0.000615615
0.00021797
-0.000750775
0.000317142
-0.000594601
0.000382609
-0.00039361
0.000430483
-0.000288067
0.000463506
-0.000196785
0.000468477
-2.31363e-05
0.000202053
0.000434478
-1.68807e-05
-2.06068e-05
-4.35199e-06
-8.76757e-05
1.51992e-05
-0.000136824
3.78778e-05
-0.000158709
5.92114e-05
-0.000149301
7.56748e-05
-0.000115222
8.49875e-05
-6.51834e-05
8.65026e-05
-1.06167e-05
8.12869e-05
3.64863e-05
7.20989e-05
6.42874e-05
6.219e-05
6.93369e-05
5.44656e-05
5.40576e-05
5.02825e-05
2.92897e-05
4.87677e-05
1.06266e-05
4.71355e-05
1.14482e-05
4.25587e-05
3.2044e-05
3.40208e-05
5.97474e-05
2.35093e-05
7.35518e-05
1.48681e-05
6.04684e-05
1.07461e-05
2.88647e-05
1.00835e-05
4.68354e-06
7.5302e-06
1.79281e-05
-3.61319e-06
7.803e-05
-2.68495e-05
0.000162631
-5.94324e-05
0.000228029
-9.46047e-05
0.000246166
-0.000127423
0.00022972
-0.00015757
0.000211027
-0.000186225
0.000200541
-0.000209115
0.000160147
-0.000216632
5.25605e-05
-0.000201574
-0.000105387
-0.000165496
-0.000252452
-0.000120257
-0.000316627
-7.26678e-05
-0.000333223
-9.82547e-06
-0.000440004
9.28112e-05
-0.000718252
0.000217981
-0.000875944
0.000317187
-0.000693808
0.000382577
-0.000459
0.000430405
-0.000335896
0.000463545
-0.000229924
0.000468763
-2.83541e-05
0.000235945
0.00043487
-1.68875e-05
-2.35516e-05
-4.35696e-06
-0.000100206
1.51969e-05
-0.000156378
3.78787e-05
-0.000181391
5.92148e-05
-0.000170637
7.56799e-05
-0.000131687
8.49931e-05
-7.44965e-05
8.65073e-05
-1.21309e-05
8.12897e-05
4.17039e-05
7.20993e-05
7.34778e-05
6.21884e-05
7.92478e-05
5.44635e-05
6.17825e-05
5.02811e-05
3.34721e-05
4.87677e-05
1.21399e-05
4.71374e-05
1.30785e-05
4.25612e-05
3.66201e-05
3.40218e-05
6.82868e-05
2.3508e-05
8.40656e-05
1.48653e-05
6.91112e-05
1.07444e-05
3.29856e-05
1.00853e-05
5.34272e-06
7.53618e-06
2.04772e-05
-3.60487e-06
8.9171e-05
-2.68432e-05
0.00018587
-5.943e-05
0.000260616
-9.46054e-05
0.000281342
-0.000127424
0.000262538
-0.000157571
0.000241174
-0.00018623
0.000229201
-0.000209127
0.000183043
-0.000216648
6.00815e-05
-0.000201588
-0.000120447
-0.000165503
-0.000288536
-0.000120262
-0.000361868
-7.26794e-05
-0.000380806
-9.84713e-06
-0.000502836
9.28042e-05
-0.000820903
0.000217992
-0.00100113
0.000317235
-0.000793051
0.000382548
-0.000524313
0.000430312
-0.00038366
0.000463604
-0.000263216
0.000469203
-3.39527e-05
0.000269706
0.000435442
-1.68952e-05
-2.64967e-05
-4.3626e-06
-0.000112739
1.51944e-05
-0.000175935
3.78796e-05
-0.000204076
5.92188e-05
-0.000191976
7.56859e-05
-0.000148154
8.49994e-05
-8.38101e-05
8.65127e-05
-1.36442e-05
8.12929e-05
4.69237e-05
7.21e-05
8.26707e-05
6.21869e-05
8.91609e-05
5.44609e-05
6.95085e-05
5.02793e-05
3.76538e-05
4.87679e-05
1.36513e-05
4.71396e-05
1.47068e-05
4.25641e-05
4.11957e-05
3.40229e-05
7.6828e-05
2.35066e-05
9.45819e-05
1.48622e-05
7.77556e-05
1.07423e-05
3.71055e-05
1.00872e-05
5.99781e-06
7.54306e-06
2.30213e-05
-3.59586e-06
0.00010031
-2.68362e-05
0.00020911
-5.94278e-05
0.000293208
-9.46066e-05
0.00031652
-0.000127425
0.000295357
-0.000157572
0.000271321
-0.000186236
0.000257865
-0.00020914
0.000205946
-0.000216665
6.76072e-05
-0.000201603
-0.000135509
-0.000165512
-0.000324628
-0.000120267
-0.000407112
-7.26943e-05
-0.000428379
-9.87264e-06
-0.000565658
9.27972e-05
-0.000923573
0.000218004
-0.00112634
0.000317281
-0.000892328
0.000382514
-0.000589546
0.000430223
-0.00043137
0.000463652
-0.000296645
0.000469486
-3.97861e-05
0.000303253
0.000435939
-1.69039e-05
-2.94421e-05
-4.36895e-06
-0.000125274
1.51915e-05
-0.000195495
3.78808e-05
-0.000226765
5.92232e-05
-0.000213318
7.56924e-05
-0.000164623
8.50065e-05
-9.31242e-05
8.65187e-05
-1.51563e-05
8.12965e-05
5.21458e-05
7.21008e-05
9.18665e-05
6.21851e-05
9.90765e-05
5.4458e-05
7.72356e-05
5.02772e-05
4.18345e-05
4.87681e-05
1.51604e-05
4.71421e-05
1.63329e-05
4.25672e-05
4.57705e-05
3.40243e-05
8.53708e-05
2.35052e-05
0.000105101
1.48587e-05
8.64021e-05
1.07401e-05
4.12241e-05
1.00895e-05
6.64837e-06
7.55074e-06
2.55601e-05
-3.58664e-06
0.000111447
-2.68281e-05
0.000232352
-5.94247e-05
0.000325804
-9.46074e-05
0.000351703
-0.000127427
0.000328176
-0.000157573
0.000301467
-0.000186243
0.000286535
-0.000209155
0.000228858
-0.000216685
7.51381e-05
-0.000201621
-0.000150573
-0.000165521
-0.000360728
-0.000120273
-0.00045236
-7.27101e-05
-0.000475942
-9.90077e-06
-0.000628467
9.27866e-05
-0.00102626
0.000218014
-0.00125157
0.000317324
-0.000991637
0.000382477
-0.000654699
0.000430125
-0.000479018
0.000463726
-0.000330246
0.000469906
-4.59659e-05
0.000336602
0.000436557
-1.69135e-05
-3.2388e-05
-4.37599e-06
-0.000137811
1.51883e-05
-0.00021506
3.7882e-05
-0.000249459
5.92281e-05
-0.000234664
7.56997e-05
-0.000181095
8.50145e-05
-0.000102439
8.65254e-05
-1.66672e-05
8.13005e-05
5.73707e-05
7.21016e-05
0.000101065
6.21831e-05
0.000108995
5.44548e-05
8.49639e-05
5.0275e-05
4.60142e-05
4.87684e-05
1.6667e-05
4.71448e-05
1.79565e-05
4.25706e-05
5.03447e-05
3.40256e-05
9.39158e-05
2.35034e-05
0.000115623
1.48549e-05
9.50506e-05
1.07375e-05
4.53415e-05
1.00918e-05
7.29402e-06
7.55924e-06
2.80927e-05
-3.57556e-06
0.000122582
-2.68194e-05
0.000255595
-5.9422e-05
0.000358407
-9.46093e-05
0.00038689
-0.000127429
0.000360996
-0.000157574
0.000331613
-0.00018625
0.000315211
-0.000209171
0.000251778
-0.000216708
8.26748e-05
-0.000201641
-0.000165639
-0.000165531
-0.000396838
-0.000120279
-0.000497612
-7.27279e-05
-0.000523493
-9.92976e-06
-0.000691265
9.27793e-05
-0.00112897
0.000218026
-0.00137681
0.000317357
-0.00109097
0.000382423
-0.000719765
0.000430028
-0.000526623
0.000463785
-0.000364004
0.000470224
-5.24042e-05
0.000369745
0.000437081
-1.69242e-05
-3.53344e-05
-4.38376e-06
-0.000150352
1.51849e-05
-0.000234628
3.78834e-05
-0.000272157
5.92335e-05
-0.000256014
7.57077e-05
-0.000197569
8.50231e-05
-0.000111754
8.65328e-05
-1.81769e-05
8.1305e-05
6.25985e-05
7.21024e-05
0.000110268
6.21808e-05
0.000118917
5.44511e-05
9.26937e-05
5.02725e-05
5.01928e-05
4.87687e-05
1.81708e-05
4.71478e-05
1.95774e-05
4.25745e-05
5.4918e-05
3.40274e-05
0.000102463
2.35017e-05
0.000126149
1.48507e-05
0.000103702
1.07348e-05
4.94573e-05
1.00947e-05
7.93411e-06
7.56872e-06
3.06187e-05
-3.56304e-06
0.000133714
-2.68092e-05
0.000278841
-5.94179e-05
0.000391016
-9.46102e-05
0.000422083
-0.000127431
0.000393816
-0.000157576
0.000361758
-0.000186259
0.000343894
-0.000209189
0.000274709
-0.000216732
9.0218e-05
-0.000201663
-0.000180709
-0.000165542
-0.000432958
-0.000120287
-0.000542868
-7.27478e-05
-0.000571032
-9.96498e-06
-0.000754048
9.27699e-05
-0.0012317
0.000218041
-0.00150208
0.000317384
-0.00119031
0.00038235
-0.000784731
0.000429909
-0.000574182
0.000463862
-0.000397957
0.000470638
-5.91807e-05
0.000402674
0.000437709
-1.69358e-05
-3.82813e-05
-4.39221e-06
-0.000162895
1.51811e-05
-0.000254201
3.78849e-05
-0.000294861
5.92394e-05
-0.000277369
7.57164e-05
-0.000214046
8.50326e-05
-0.000121071
8.65408e-05
-1.96851e-05
8.13098e-05
6.78295e-05
7.21033e-05
0.000119475
6.21785e-05
0.000128841
5.44473e-05
0.000100425
5.02699e-05
5.43703e-05
4.8769e-05
1.96717e-05
4.7151e-05
2.11954e-05
4.25786e-05
5.94904e-05
3.4029e-05
0.000111013
2.34995e-05
0.000136678
1.4846e-05
0.000112355
1.07315e-05
5.35718e-05
1.00973e-05
8.56829e-06
7.57886e-06
3.31372e-05
-3.54902e-06
0.000144842
-2.67989e-05
0.000302091
-5.94148e-05
0.000423632
-9.46124e-05
0.00045728
-0.000127433
0.000426637
-0.000157578
0.000391902
-0.000186268
0.000372584
-0.000209209
0.00029765
-0.00021676
9.77686e-05
-0.000201687
-0.000195782
-0.000165554
-0.000469091
-0.000120294
-0.000588129
-7.27685e-05
-0.000618557
-1.00012e-05
-0.000816815
9.27581e-05
-0.00133446
0.000218053
-0.00162738
0.000317402
-0.00128966
0.000382251
-0.00084958
0.00042977
-0.000621702
0.000463916
-0.000432102
0.000470967
-6.62313e-05
0.000435414
0.000438227
-1.69485e-05
-4.12287e-05
-4.40136e-06
-0.000175442
1.51772e-05
-0.00027378
3.78874e-05
-0.000317572
5.9247e-05
-0.000298729
7.5727e-05
-0.000230526
8.50437e-05
-0.000130387
8.655e-05
-2.11915e-05
8.13154e-05
7.30641e-05
7.2105e-05
0.000128685
6.21765e-05
0.00013877
5.44434e-05
0.000108158
5.0267e-05
5.85467e-05
4.87694e-05
2.11693e-05
4.71546e-05
2.28102e-05
4.25832e-05
6.40618e-05
3.40314e-05
0.000119564
2.34976e-05
0.000147212
1.4841e-05
0.000121012
1.07284e-05
5.76844e-05
1.01009e-05
9.19585e-06
7.59006e-06
3.5648e-05
-3.53402e-06
0.000155966
-2.67863e-05
0.000325344
-5.94083e-05
0.000456254
-9.46107e-05
0.000492483
-0.000127432
0.000459459
-0.000157581
0.00042205
-0.000186275
0.000401278
-0.000209227
0.000320603
-0.000216789
0.00010533
-0.000201713
-0.000210858
-0.000165561
-0.000505243
-0.000120296
-0.000633394
-7.2787e-05
-0.000666066
-1.00408e-05
-0.000879562
9.27451e-05
-0.00143725
0.000218084
-0.00175272
0.000317407
-0.00138898
0.000382122
-0.000914295
0.000429597
-0.000669176
0.000463985
-0.000466491
0.000471377
-7.36232e-05
0.000467937
0.000438855
-3.39377e-05
-4.71253e-05
-8.83231e-06
-0.000200548
3.0341e-05
-0.000312953
7.57797e-05
-0.00036301
0.000118514
-0.000341463
0.000151484
-0.000263496
0.000170121
-0.000149024
0.000173128
-2.41988e-05
0.000162646
8.35464e-05
0.000144212
0.000147119
0.000124343
0.000158638
0.000108872
0.000123629
0.000100524
6.6895e-05
9.75402e-05
2.41529e-05
9.43208e-05
2.60296e-05
8.5181e-05
7.32016e-05
6.80674e-05
0.000136678
4.69863e-05
0.000168293
2.9665e-05
0.000138333
2.14458e-05
6.59035e-05
2.02113e-05
1.04304e-05
1.52158e-05
4.06435e-05
-7.02324e-06
0.000178205
-5.35377e-05
0.000371858
-0.000118809
0.000521525
-0.000189233
0.000562907
-0.000254878
0.000525104
-0.000315164
0.000482337
-0.000372585
0.000458699
-0.000418532
0.000366549
-0.000433676
0.000120474
-0.000403512
-0.000241021
-0.000331171
-0.000577584
-0.000240624
-0.000723941
-0.000145654
-0.000761037
-2.02104e-05
-0.00100501
0.000185501
-0.00164296
0.000436191
-0.00200341
0.00063481
-0.0015876
0.000763798
-0.00104328
0.000858632
-0.00076401
0.00092807
-0.000535929
0.000943785
-8.93381e-05
0.000532496
0.000879226
-3.39995e-05
-5.3025e-05
-8.87743e-06
-0.00022567
3.03202e-05
-0.000352151
7.57868e-05
-0.000408477
0.000118545
-0.000384221
0.00015153
-0.000296482
0.000170171
-0.000167665
0.000173172
-2.7199e-05
0.000162672
9.40466e-05
0.000144216
0.000165575
0.00012433
0.000178525
0.000108851
0.000139107
0.000100509
7.5237e-05
9.75425e-05
2.71197e-05
9.43399e-05
2.92322e-05
8.52052e-05
8.23362e-05
6.80788e-05
0.000153804
4.69765e-05
0.000189396
2.964e-05
0.00015567
2.14306e-05
7.41129e-05
2.02289e-05
1.16321e-05
1.52713e-05
4.56011e-05
-6.94861e-06
0.000200425
-5.34793e-05
0.000418389
-0.000118787
0.000586832
-0.000189241
0.000633362
-0.000254892
0.000590754
-0.000315172
0.000542617
-0.000372634
0.00051616
-0.000418639
0.000412555
-0.000433818
0.000135653
-0.000403638
-0.000271201
-0.000331242
-0.000649979
-0.000240669
-0.000814514
-0.000145772
-0.000855934
-2.0394e-05
-0.00113038
0.000185517
-0.00184887
0.000436219
-0.00225411
0.000634771
-0.00178615
0.000763106
-0.00117162
0.000857628
-0.000858533
0.000928058
-0.000606358
0.000945269
-0.000106549
0.000596385
0.00088138
-3.4069e-05
-5.89282e-05
-8.92849e-06
-0.00025081
3.0297e-05
-0.000391376
7.57959e-05
-0.000453976
0.00011858
-0.000427005
0.000151582
-0.000329484
0.000170228
-0.000186311
0.000173219
-3.01893e-05
0.000162699
0.000104566
0.000144222
0.000184052
0.000124316
0.000198431
0.000108828
0.000154595
0.000100492
8.35728e-05
9.75431e-05
3.00688e-05
9.43579e-05
3.24175e-05
8.52279e-05
9.14662e-05
6.80863e-05
0.000170946
4.69626e-05
0.000210519
2.96116e-05
0.000173021
2.14105e-05
8.2314e-05
2.02442e-05
1.27984e-05
1.53315e-05
5.05138e-05
-6.87101e-06
0.000222627
-5.34181e-05
0.000464936
-0.000118769
0.000652183
-0.000189255
0.000703847
-0.000254907
0.000656407
-0.000315183
0.000602894
-0.000372689
0.000573666
-0.000418761
0.000458626
-0.000433981
0.000150873
-0.000403782
-0.0003014
-0.000331316
-0.000722445
-0.000240714
-0.000905116
-0.000145895
-0.000950753
-2.05575e-05
-0.00125572
0.000185447
-0.00205488
0.000436098
-0.00250476
0.000634476
-0.00198453
0.000762125
-0.00129927
0.000856295
-0.000952704
0.000927465
-0.000677527
0.000946093
-0.000125177
0.000659613
0.000882864
-3.41464e-05
-6.48342e-05
-8.98466e-06
-0.000275972
3.02717e-05
-0.000430633
7.5806e-05
-0.00049951
0.000118619
-0.000469819
0.000151641
-0.000362505
0.000170292
-0.000204963
0.000173275
-3.31717e-05
0.000162733
0.000115108
0.000144229
0.000202556
0.000124301
0.000218359
0.000108802
0.000170094
0.000100475
9.18999e-05
9.75471e-05
3.29969e-05
9.43823e-05
3.55822e-05
8.52589e-05
0.00010059
6.81013e-05
0.000188104
4.69508e-05
0.00023167
2.95809e-05
0.00019039
2.13921e-05
9.05028e-05
2.02671e-05
1.39234e-05
1.54015e-05
5.53794e-05
-6.77962e-06
0.000244809
-5.33425e-05
0.000511499
-0.000118738
0.000717578
-0.00018926
0.00077437
-0.000254919
0.000722066
-0.000315194
0.000663169
-0.000372747
0.000631219
-0.000418892
0.000504771
-0.000434159
0.000166141
-0.000403941
-0.000331619
-0.000331399
-0.000794987
-0.000240764
-0.000995751
-0.000146032
-0.00104549
-2.0699e-05
-0.00138105
0.000185172
-0.00226075
0.000435521
-0.00275511
0.000633499
-0.00218251
0.000760542
-0.00142631
0.000854398
-0.00104656
0.000926514
-0.000749643
0.000946941
-0.000145605
0.000722308
0.000884247
-3.42315e-05
-7.07452e-05
-9.04771e-06
-0.000301156
3.02428e-05
-0.000469923
7.5816e-05
-0.000545083
0.000118662
-0.000512665
0.000151704
-0.000395547
0.00017036
-0.000223619
0.000173329
-3.61404e-05
0.000162766
0.000125671
0.000144235
0.000221087
0.000124282
0.000238312
0.000108774
0.000185603
0.000100454
0.00010022
9.75469e-05
3.5904e-05
9.44037e-05
3.87254e-05
8.52859e-05
0.000109707
6.811e-05
0.00020528
4.69334e-05
0.000252847
2.9546e-05
0.000207778
2.1367e-05
9.86818e-05
2.02848e-05
1.50055e-05
1.54747e-05
6.01896e-05
-6.68218e-06
0.000266965
-5.32692e-05
0.000558086
-0.000118718
0.000783026
-0.000189278
0.00084493
-0.000254938
0.000787726
-0.000315208
0.000723439
-0.000372814
0.000688825
-0.000419039
0.000550997
-0.000434358
0.00018146
-0.000404117
-0.00036186
-0.00033149
-0.000867613
-0.000240821
-0.00108642
-0.000146178
-0.00114013
-2.08475e-05
-0.00150638
0.000184166
-0.00246576
0.000433751
-0.0030047
0.000631652
-0.00238041
0.000758091
-0.00155275
0.000851769
-0.00114024
0.00092463
-0.000822504
0.000946791
-0.000167767
0.000784172
0.000884927
-3.43249e-05
-7.66586e-05
-9.11456e-06
-0.000326366
3.02134e-05
-0.000509251
7.58283e-05
-0.000590698
0.000118709
-0.000555545
0.000151774
-0.000428612
0.000170437
-0.000242283
0.000173398
-3.91012e-05
0.000162806
0.000136263
0.000144243
0.000239649
0.000124263
0.000258292
0.000108742
0.000201124
0.000100433
0.000108528
9.75509e-05
3.87864e-05
9.44324e-05
4.18439e-05
8.53231e-05
0.000118817
6.81278e-05
0.000222475
4.69183e-05
0.000274056
2.9508e-05
0.000225188
2.13447e-05
0.000106845
2.03121e-05
1.60381e-05
1.55583e-05
6.49433e-05
-6.56967e-06
0.000289093
-5.31777e-05
0.000604694
-0.000118679
0.000848527
-0.000189282
0.000915533
-0.000254951
0.000853394
-0.000315221
0.00078371
-0.000372882
0.000746485
-0.000419196
0.000597311
-0.000434572
0.000196836
-0.000404308
-0.000392124
-0.000331592
-0.000940328
-0.000240891
-0.00117712
-0.000146321
-0.0012347
-2.10331e-05
-0.00163167
0.000182812
-0.00266961
0.000431071
-0.00325295
0.000628508
-0.00257785
0.000754211
-0.00167845
0.000847694
-0.00123372
0.000921795
-0.000896605
0.000946259
-0.000192231
0.000845086
0.000885345
-3.44256e-05
-8.25782e-05
-9.19055e-06
-0.000351601
3.0174e-05
-0.000548616
7.58362e-05
-0.00063636
0.000118757
-0.000598467
0.000151846
-0.000461701
0.000170513
-0.000260949
0.000173455
-4.20436e-05
0.000162839
0.000146879
0.000144245
0.000258243
0.000124235
0.000278302
0.0001087
0.000216659
0.0001004
0.000116828
9.75416e-05
4.16445e-05
9.44483e-05
4.49372e-05
8.53454e-05
0.00012792
6.81306e-05
0.00023969
4.68904e-05
0.000295296
2.94586e-05
0.00024262
2.13066e-05
0.000114997
2.03254e-05
1.70193e-05
1.56373e-05
6.96315e-05
-6.46212e-06
0.000311193
-5.30957e-05
0.000651327
-0.000118653
0.000914084
-0.000189294
0.000986175
-0.000254962
0.000919062
-0.000315254
0.000844001
-0.000372953
0.000804184
-0.000419355
0.000643713
-0.00043481
0.000212291
-0.000404522
-0.000422413
-0.000331672
-0.00101318
-0.000240924
-0.00126787
-0.000146432
-0.00132919
-2.12588e-05
-0.00175685
0.000181675
-0.00287254
0.000428255
-0.00349953
0.00062402
-0.00277361
0.000748464
-0.00180289
0.00084188
-0.00132714
0.000917271
-0.000971996
0.000944291
-0.000219252
0.000904509
0.000884868
-0.000480023
-0.000163518
-0.000132922
-0.000698702
0.000407939
-0.00108948
0.00103508
-0.0012635
0.00162411
-0.00118749
0.00207783
-0.000915426
0.00233332
-0.000516442
0.00237249
-8.12133e-05
0.00222428
0.000295095
0.00196705
0.000515475
0.00169111
0.000554238
0.001478
0.00042977
0.00136609
0.000228742
0.00133009
7.76427e-05
0.0012908
8.42203e-05
0.00116769
0.000251037
0.000930737
0.000476638
0.000637431
0.000588603
0.000397215
0.000482836
0.000287846
0.000224366
0.000280208
2.46573e-05
0.000222958
0.000126881
-7.52854e-05
0.000609437
-0.00071329
0.00128933
-0.00161319
0.00181398
-0.00258119
0.00195417
-0.00347715
0.00181503
-0.00429825
0.0016651
-0.00509136
0.00159729
-0.0057342
0.00128655
-0.00595131
0.000429404
-0.00553598
-0.000837743
-0.00453252
-0.00201663
-0.00329024
-0.00251015
-0.00201442
-0.002605
-0.000316244
-0.00345503
0.00235306
-0.00554184
0.00546167
-0.00660814
0.00789884
-0.00521079
0.00946989
-0.00337394
0.0107059
-0.00256311
0.01187
-0.00213615
0.0125157
-0.000864905
0.00153191
0.0118883
-0.000519604
-0.000247221
-0.000162095
-0.00105621
0.000394995
-0.00164657
0.00104063
-0.00190914
0.00164493
-0.00179179
0.00210786
-0.00137835
0.00236401
-0.000772595
0.00239795
-0.000115158
0.00224023
0.00045282
0.00197047
0.000785235
0.00168315
0.000841559
0.00146503
0.000647888
0.00135715
0.000336617
0.00133141
0.00010339
0.00130243
0.0001132
0.0011823
0.000371167
0.000936901
0.000722036
0.000630545
0.000894958
0.000381522
0.000731859
0.000277666
0.000328221
0.000290651
1.16728e-05
0.000258786
0.000158746
-2.84704e-05
0.000896693
-0.000676815
0.00193768
-0.00160127
0.00273844
-0.00258738
0.00294028
-0.00348389
0.00271154
-0.00430496
0.00248617
-0.00512091
0.00241324
-0.00580111
0.00196675
-0.00604275
0.000671041
-0.00561541
-0.00126508
-0.00457954
-0.0030525
-0.00333507
-0.00375462
-0.002125
-0.00381507
-0.00059218
-0.00498785
0.00158109
-0.00771512
0.0038873
-0.00891436
0.00562995
-0.00695343
0.00673449
-0.00447849
0.00766642
-0.00349504
0.00875971
-0.00322944
0.00997241
-0.0020776
0.00142975
0.0100746
-0.00058173
-0.000332096
-0.000207575
-0.00143037
0.000373404
-0.00222755
0.00104593
-0.00258167
0.00167228
-0.00241813
0.00214997
-0.00185605
0.00241209
-0.00103471
0.00243771
-0.000140785
0.00226117
0.000629363
0.00197024
0.00107616
0.00166504
0.00114676
0.00143903
0.000873902
0.00133751
0.000438129
0.00132776
0.000113148
0.00131539
0.000125567
0.00120059
0.00048596
0.000942188
0.000980442
0.000614831
0.00122232
0.000351554
0.000995136
0.000256674
0.000423101
0.000301803
-3.34563e-05
0.000308894
0.000151656
4.11222e-05
0.00116446
-0.000623365
0.00260216
-0.00158479
0.00369987
-0.00259896
0.00395444
-0.00349641
0.00360899
-0.00431994
0.00330971
-0.00517032
0.00326362
-0.00590846
0.00270489
-0.00618768
0.000950263
-0.00574749
-0.00170527
-0.00464157
-0.00415843
-0.00339614
-0.00500005
-0.00243312
-0.00477809
-0.00171055
-0.00571042
-0.00173371
-0.00769196
-0.00288808
-0.00775998
-0.00361358
-0.00622794
-0.00320833
-0.00488374
-0.00251908
-0.00418428
-0.0010919
-0.00465662
0.000912874
-0.00408238
-0.000832767
0.0031754
-0.000702641
-0.000421941
-0.000311081
-0.00182193
0.00029553
-0.00283416
0.000996956
-0.00328309
0.00164299
-0.00306417
0.00213089
-0.00234395
0.00239167
-0.00129549
0.00240761
-0.000156726
0.0022109
0.000826073
0.00189486
0.0013922
0.0015673
0.00147433
0.00133203
0.00110917
0.0012406
0.000529561
0.00125312
0.000100628
0.00126389
0.000114797
0.00115607
0.000593779
0.000879277
0.00125723
0.000522519
0.00157907
0.000238445
0.00127921
0.000152185
0.000509361
0.000239897
-0.000121169
0.000300387
9.11656e-05
5.92093e-05
0.00140564
-0.000625685
0.00328706
-0.00163736
0.00471155
-0.00268835
0.00500544
-0.0035834
0.00450404
-0.0044083
0.00413461
-0.0053047
0.00416002
-0.00613143
0.00353161
-0.00648482
0.00130365
-0.00603913
-0.00215096
-0.00493405
-0.00526351
-0.00398587
-0.00594824
-0.00409607
-0.00466788
-0.00600506
-0.00380098
-0.0105094
-0.003181
-0.0149283
-0.00333772
-0.0170451
-0.00411223
-0.0177368
-0.0041926
-0.0173427
-0.00457732
-0.0161182
-0.0058789
-0.0144944
-0.00570859
-0.00299108
-0.0123477
-0.00123832
-0.00040967
-0.000860064
-0.00178461
-0.000288754
-0.00272932
0.000361532
-0.00310133
0.000958862
-0.00283676
0.00139542
-0.002121
0.00161676
-0.00114436
0.00161817
-0.000116973
0.00143188
0.000764361
0.00113821
0.00128889
0.000835177
0.00137994
0.000621389
0.00103962
0.000548543
0.000474872
0.000577116
5.47961e-05
0.000606423
6.47576e-05
0.000514758
0.00053933
0.000247238
0.0012129
-0.000114413
0.00156459
-0.000409945
0.00128568
-0.000483408
0.000477678
-0.000367053
-0.000192193
-0.000269548
-9.37969e-06
-0.000473345
0.00130525
-0.00114929
0.00326741
-0.00216081
0.00484971
-0.0032026
0.00527225
-0.00405796
0.00477261
-0.00487042
0.00447076
-0.00583606
0.00469227
-0.00680643
0.00417034
-0.00732814
0.00171417
-0.00706725
-0.00232124
-0.00626243
-0.00577307
-0.00579502
-0.00591581
-0.00683543
-0.00320975
-0.0104198
-2.41375e-05
-0.0148114
0.00129954
-0.0179781
0.000122949
-0.0202314
-0.00149576
-0.0213424
-0.00260529
-0.0212734
-0.00384457
-0.0215283
-0.00456665
-0.0234532
-0.00298525
-0.00053851
-0.0261086
-0.00159779
-0.000130443
-0.00133132
-0.000537083
-0.000946885
-0.000730417
-0.000540887
-0.000714816
-0.000192002
-0.000563744
5.41708e-05
-0.000373224
0.000178022
-0.000185349
0.000173659
-1.42209e-05
6.20112e-05
0.00018821
-0.000122692
0.000321205
-0.000322077
0.000351245
-0.00046621
0.00026637
-0.000506085
0.000114557
-0.000476574
1.48014e-06
-0.000450511
4.24515e-06
-0.000506757
0.000134256
-0.000692595
0.000323704
-0.000954073
0.000431431
-0.00117565
0.000361435
-0.00122116
0.000125141
-0.0011157
-8.11729e-05
-0.00102739
-3.34012e-05
-0.00112567
0.000330108
-0.00157781
0.000906657
-0.00231032
0.00142645
-0.00309449
0.00163756
-0.00372886
0.00153812
-0.00436222
0.0015209
-0.00524366
0.00173886
-0.00629926
0.00170292
-0.00686193
0.000800591
-0.00662986
-0.00141659
-0.00554293
-0.00307274
-0.00435761
-0.00239482
-0.00384816
-0.00104066
-0.00370823
-7.85604e-05
-0.00341176
0.00033254
-0.0029691
-0.000111434
-0.0028231
-0.000429354
-0.00318616
-0.000543124
-0.00352832
-0.000781663
-0.00351326
-0.000869837
-0.00258802
-0.000554156
-0.000134982
-0.00213812
-0.000483335
6.06165e-127
-0.000388877
6.14019e-128
-0.000264553
2.70413e-129
-0.000151392
3.03984e-131
-7.4938e-05
1.63873e-133
-3.24732e-05
3.65627e-136
-1.48244e-05
1.93401e-139
-1.74272e-05
1.06478e-143
-4.01145e-05
0