/*--------------------------------*- C++ -*----------------------------------*\
| =========                 |                                                 |
| \\      /  F ield         | OpenFOAM: The Open Source CFD Toolbox           |
|  \\    /   O peration     | Version:  v1912                                 |
|   \\  /    A nd           | Website:  www.openfoam.com                      |
|    \\/     M anipulation  |                                                 |
\*---------------------------------------------------------------------------*/
FoamFile
{
    version     2.0;
    format      ascii;
    class       surfaceScalarField;
    location    "100";
    object      phi;
}
// * * * * * * * * * * * * * * * * * * * * * * * * * * * * * * * * * * * * * //

dimensions      [0 3 -1 0 0 0 0];
oriented        oriented;


internalField   nonuniform List<scalar> 
28285
(
0.0976937
0.00835104
0.0891812
0.00851251
0.0808817
0.00829944
0.0729896
0.00789212
0.0654723
0.00751733
0.0581052
0.0073671
0.050493
0.00761215
0.0421221
0.00837089
0.0325065
0.0096156
0.0212714
0.0112352
0.00823968
0.0130317
-0.00651389
0.0147536
-0.0225389
0.016025
-0.0391507
0.0166119
-0.0553633
0.0162125
-0.0701995
0.0148362
-0.0827793
0.0125798
-0.0924927
0.00971341
-0.0990917
0.00659905
-0.102711
0.00361879
-0.103589
0.00087804
-0.102282
-0.00130674
-0.0993673
-0.00291446
-0.0953275
-0.00403979
-0.0905758
-0.00475178
-0.0854426
-0.0051332
-0.0801409
-0.0053017
-0.0748365
-0.00530435
-0.0695935
-0.00524299
-0.0644348
-0.00515869
-0.059374
-0.00506083
-0.0542927
-0.00508129
-0.0491793
-0.00511342
-0.043927
-0.00525233
-0.0384845
-0.00544252
-0.032796
-0.00568845
-0.0268337
-0.0059623
-0.0205758
-0.00625793
-0.0140048
-0.00657102
-0.00710901
-0.00689574
0.000144508
-0.00725352
0.00778311
-0.0076386
0.0158382
-0.00805507
0.0243164
-0.00847826
0.0331969
-0.00888043
0.0424031
-0.0092062
0.0518095
-0.00940648
0.0612132
-0.00940364
0.0703499
-0.00913671
0.0789204
-0.00857051
0.0865626
-0.00764221
0.0929433
-0.00638068
0.0977094
-0.00476606
0.1006
-0.00289041
0.101395
-0.000794913
0.100087
0.00130759
0.0966184
0.00346872
0.0910125
0.00560582
0.0834997
0.00751283
0.0744267
0.00907303
0.0640536
0.010373
0.0528529
0.0112007
0.041107
0.0117459
0.029188
0.0119189
0.0173531
0.0118349
0.00582265
0.0115304
-0.00523441
0.0110571
-0.015714
0.0104796
-0.02559
0.00987593
-0.0347786
0.00918867
-0.0433696
0.00859098
-0.0513188
0.00794922
-0.0586822
0.00736332
-0.065528
0.00684581
-0.0718208
0.00629288
-0.0776718
0.00585096
-0.0830359
0.00536409
-0.0879574
0.00492146
-0.092404
0.00444662
-0.0963588
0.00395486
-0.0997635
0.00340468
-0.102565
0.00280183
-0.104674
0.00210867
-0.105762
0.00108838
-0.105507
-0.000255006
-0.00229691
-0.10321
0.0977608
0.0167716
0.089193
0.0170803
0.0808634
0.016629
0.0729696
0.015786
0.0654792
0.0150077
0.0581599
0.0146864
0.050613
0.015159
0.0423118
0.0166721
0.0327546
0.0191728
0.0215523
0.0224374
0.0085166
0.0260674
-0.00628582
0.029556
-0.022408
0.0321471
-0.0391546
0.0333586
-0.0555106
0.0325685
-0.0704792
0.0298048
-0.0831617
0.0252623
-0.0929304
0.0194821
-0.0995344
0.013203
-0.10312
0.00720435
-0.103927
0.0016853
-0.102552
-0.00268167
-0.0995689
-0.00589787
-0.0954673
-0.00814135
-0.0906644
-0.00955474
-0.085491
-0.0103066
-0.0801601
-0.0106326
-0.0748372
-0.0106272
-0.0695836
-0.0104966
-0.064423
-0.0103193
-0.0593675
-0.0101163
-0.0542952
-0.0101536
-0.0491925
-0.0102161
-0.0439509
-0.010494
-0.038516
-0.0108773
-0.0328337
-0.0113708
-0.0268751
-0.0119208
-0.0206203
-0.0125127
-0.0140524
-0.013139
-0.00716108
-0.013787
8.93617e-05
-0.014504
0.00772437
-0.0152736
0.0157786
-0.0161093
0.0242609
-0.0169606
0.0331521
-0.0177716
0.0423775
-0.0184316
0.051812
-0.018841
0.0612524
-0.018844
0.0704327
-0.018317
0.0790514
-0.0171891
0.0867425
-0.0153333
0.0931691
-0.0128074
0.0979753
-0.00957222
0.100895
-0.00581039
0.101719
-0.00161903
0.100405
0.00262156
0.0969215
0.00695261
0.0912874
0.01124
0.083735
0.0150653
0.0746137
0.0181943
0.0641894
0.0207973
0.0529373
0.0224529
0.0411451
0.0235381
0.0291852
0.0238788
0.0173178
0.0237024
0.0057633
0.0230849
-0.00531049
0.0221309
-0.0157999
0.0209691
-0.0256802
0.0197562
-0.03487
0.0183785
-0.0434578
0.0171788
-0.0514035
0.0158949
-0.0587619
0.0147217
-0.0656032
0.0136871
-0.0718929
0.0125826
-0.0777429
0.0117009
-0.0831091
0.0107304
-0.0880342
0.0098465
-0.092481
0.00889343
-0.0964187
0.00789259
-0.099763
0.00674893
-0.102415
0.00545362
-0.104257
0.00395129
-0.10505
0.00188126
-0.105239
-6.61387e-05
-0.0032144
-0.104322
0.0978189
0.0253527
0.0891382
0.025761
0.0807544
0.0250128
0.0728685
0.0236719
0.0654492
0.022427
0.0582512
0.0218844
0.0508405
0.0225698
0.0426691
0.0248435
0.0332085
0.0286334
0.0220469
0.033599
0.00898078
0.0391335
-0.00593136
0.0444681
-0.0222429
0.0484586
-0.0392401
0.0503558
-0.0558737
0.0492021
-0.0710907
0.0450218
-0.0839519
0.0381234
-0.0938025
0.0293327
-0.100392
0.0197924
-0.103893
0.0107054
-0.104552
0.00234408
-0.103037
-0.00419652
-0.0999185
-0.00901617
-0.0956999
-0.01236
-0.090803
-0.0144516
-0.085557
-0.0155526
-0.0801748
-0.0160148
-0.0748224
-0.0159797
-0.0695543
-0.0157647
-0.0643936
-0.01548
-0.059349
-0.0151608
-0.0542926
-0.0152101
-0.0492088
-0.0152999
-0.0439876
-0.0157152
-0.0385687
-0.0162962
-0.0328978
-0.0170418
-0.0269466
-0.017872
-0.0206971
-0.0187622
-0.0141351
-0.0197011
-0.0072494
-0.0206727
-5.49904e-06
-0.0217479
0.00761994
-0.022899
0.015672
-0.0241614
0.0241619
-0.0254505
0.0330741
-0.0266838
0.0423375
-0.027695
0.0518281
-0.0283315
0.0613421
-0.0283581
0.0706095
-0.0275844
0.079325
-0.0259046
0.0871163
-0.0231246
0.0936378
-0.0193289
0.0985236
-0.014458
0.1015
-0.00878719
0.102331
-0.00244913
0.101025
0.00392678
0.0975192
0.0104588
0.0918276
0.0169316
0.084193
0.0226998
0.0749752
0.0274122
0.0644477
0.0313247
0.0530943
0.0338063
0.0412112
0.0354212
0.0291716
0.0359184
0.0172412
0.0356328
0.00563912
0.034687
-0.00546581
0.0332358
-0.0159721
0.0314754
-0.0258591
0.0296432
-0.0350474
0.0275668
-0.0436286
0.02576
-0.0515655
0.0238319
-0.0589126
0.0220688
-0.0657447
0.0205192
-0.0720259
0.0188638
-0.0778699
0.0175449
-0.0832342
0.0160946
-0.0881606
0.0147729
-0.0926124
0.0133452
-0.096564
0.0118442
-0.0999525
0.0101374
-0.102716
0.00821711
-0.104815
0.00605042
-0.106044
0.0031105
-0.106345
0.000234831
-0.00470256
-0.104857
0.0979191
0.0341691
0.0890687
0.0346114
0.0806019
0.0334796
0.0727202
0.0315536
0.0653878
0.0297594
0.0583653
0.028907
0.0511675
0.0297676
0.0432041
0.0328069
0.0339033
0.0379342
0.0228153
0.044687
0.00971194
0.0522369
-0.00536202
0.0595421
-0.0219665
0.0650631
-0.0393568
0.067746
-0.0564193
0.0662647
-0.0720145
0.060617
-0.0851534
0.0512624
-0.095137
0.0393162
-0.101713
0.0263681
-0.105083
0.0140762
-0.105524
0.00278494
-0.103797
-0.00592355
-0.100471
-0.0123425
-0.0960714
-0.0167595
-0.0910294
-0.0194936
-0.0856725
-0.0209096
-0.0802102
-0.0214771
-0.0748092
-0.0213806
-0.0695159
-0.021058
-0.064355
-0.0206409
-0.0593306
-0.0201852
-0.0543053
-0.0202354
-0.0492545
-0.0203507
-0.0440652
-0.0209045
-0.0386696
-0.0216917
-0.0330144
-0.0226971
-0.0270733
-0.0238131
-0.0208317
-0.0250038
-0.014278
-0.0262547
-0.00740442
-0.0275463
-0.000172069
-0.0289802
0.00744164
-0.0305128
0.0154903
-0.0322101
0.0239913
-0.0339515
0.0329348
-0.0356273
0.0422552
-0.0370154
0.0518299
-0.0379062
0.0614552
-0.0379835
0.0708553
-0.0369845
0.0797176
-0.0347669
0.0876593
-0.0310663
0.0943236
-0.0259932
0.099333
-0.0194675
0.102401
-0.0118552
0.103305
-0.00335359
0.101981
0.00525143
0.0984269
0.0140127
0.0926438
0.0227146
0.0848828
0.0304609
0.0755149
0.03678
0.0648273
0.0420123
0.0533168
0.0453169
0.0412938
0.0474442
0.0291333
0.0480789
0.0171086
0.0476574
0.00543612
0.0463595
-0.005716
0.0443879
-0.0162474
0.0420067
-0.0261441
0.0395399
-0.0353294
0.0367521
-0.0438994
0.03433
-0.0518226
0.0317551
-0.0591522
0.0293983
-0.0659692
0.0273362
-0.0722367
0.0251313
-0.0780717
0.0233799
-0.0834333
0.0214562
-0.0883652
0.0197048
-0.092834
0.0178141
-0.0968152
0.0158253
-0.10024
0.0135626
-0.10302
0.0109973
-0.105091
0.00812145
-0.106202
0.00422088
-0.106739
0.000771544
-0.00532754
-0.106114
0.0980154
0.043313
0.0889311
0.0436957
0.0803462
0.0420645
0.0724708
0.039429
0.0652914
0.0369388
0.058513
0.0356853
0.051602
0.0366786
0.0439163
0.0404926
0.0348283
0.0470222
0.0238396
0.0556757
0.0106872
0.0653892
-0.00460259
0.0748319
-0.0215987
0.0820592
-0.0395111
0.0856585
-0.057152
0.0839055
-0.0732607
0.0767257
-0.0867729
0.0647746
-0.0969278
0.0494712
-0.103476
0.0329166
-0.106638
0.0172376
-0.106803
0.00294975
-0.10478
-0.00794591
-0.101176
-0.0159462
-0.096541
-0.0213951
-0.0913122
-0.0247223
-0.0858131
-0.0264087
-0.0802505
-0.0270396
-0.0747925
-0.0268387
-0.0694718
-0.0263787
-0.064312
-0.0258007
-0.0593102
-0.025187
-0.0543181
-0.0252276
-0.0493058
-0.0253629
-0.0441585
-0.0260518
-0.0387949
-0.0270554
-0.0331614
-0.0283306
-0.0272334
-0.0297411
-0.0210003
-0.0312369
-0.0144561
-0.032799
-0.00759732
-0.034405
-0.00038203
-0.0361955
0.00721593
-0.0381107
0.0152581
-0.0402522
0.0237719
-0.0424653
0.0327555
-0.0446109
0.0421511
-0.046411
0.0518387
-0.0475938
0.061613
-0.0477578
0.0711905
-0.046562
0.0802508
-0.0438271
0.0883973
-0.0392127
0.0952555
-0.0328514
0.10043
-0.0246416
0.103616
-0.0150419
0.104561
-0.00429873
0.103248
0.0065647
0.0996468
0.0176141
0.0937471
0.0286143
0.0858169
0.0383911
0.0762482
0.0463487
0.065347
0.0529135
0.0536265
0.0570374
0.0414163
0.0596544
0.0290932
0.060402
0.0169414
0.0598093
0.00517394
0.058127
-0.0060404
0.0556022
-0.0166048
0.0525712
-0.0265131
0.0494482
-0.0356949
0.0459339
-0.0442511
0.0428862
-0.0521556
0.0396596
-0.0594624
0.0367051
-0.06626
0.0341338
-0.0725101
0.0313814
-0.0783328
0.0292026
-0.08369
0.0268134
-0.0886262
0.024641
-0.0931081
0.022296
-0.0971133
0.0198305
-0.100582
0.0170312
-0.103435
0.01385
-0.105675
0.0103622
-0.107069
0.00561461
-0.107801
0.00150332
-0.00600125
-0.107127
0.0981185
0.0528723
0.0887323
0.0530819
0.0799965
0.0508003
0.0721326
0.0472929
0.0651411
0.0439303
0.0586764
0.0421499
0.0521396
0.0432155
0.0448198
0.0478123
0.0360139
0.0558281
0.02516
0.0665296
0.0119533
0.078596
-0.00360263
0.0903878
-0.0210983
0.0995549
-0.0396873
0.104247
-0.0580789
0.102297
-0.0748563
0.0935031
-0.088854
0.0787722
-0.0992294
0.0598466
-0.105753
0.0394402
-0.108608
0.0200922
-0.108435
0.0027774
-0.106029
-0.0103523
-0.102069
-0.019906
-0.0971305
-0.0263335
-0.0916623
-0.0301906
-0.0859816
-0.0320894
-0.0802896
-0.0327316
-0.0747537
-0.0323745
-0.0693939
-0.0317385
-0.0642361
-0.0309584
-0.0592709
-0.0301522
-0.054334
-0.0301645
-0.0493795
-0.0303174
-0.044288
-0.0311433
-0.0389646
-0.0323788
-0.0333564
-0.0339388
-0.027443
-0.0356545
-0.0212197
-0.0374601
-0.0146883
-0.0393304
-0.0078491
-0.0412442
-0.000657901
-0.0433867
0.00691782
-0.0456864
0.0149495
-0.048284
0.023477
-0.0509927
0.0325092
-0.0536431
0.0419978
-0.0558996
0.0518259
-0.0574219
0.0617881
-0.05772
0.0715918
-0.0563658
0.0809027
-0.053138
0.0893081
-0.0476181
0.0964124
-0.0399558
0.101799
-0.0300278
0.105141
-0.0183846
0.10618
-0.00533737
0.104851
0.00789411
0.101177
0.0212878
0.0951235
0.0346676
0.0869765
0.0465381
0.0771502
0.056175
0.0659754
0.0640883
0.0539877
0.0690251
0.0415405
0.0721015
0.0290138
0.0729287
0.0167044
0.0721186
0.00482056
0.0700108
-0.00646916
0.066892
-0.0170732
0.0631752
-0.0269937
0.0593686
-0.0361672
0.0551075
-0.044702
0.051421
-0.0525806
0.0475382
-0.0598574
0.0439819
-0.0666289
0.0409053
-0.0728555
0.0376081
-0.0786631
0.0350101
-0.0840154
0.0321657
-0.0889598
0.0295855
-0.0934663
0.0268025
-0.097517
0.0238812
-0.101052
0.0205663
-0.103969
0.0167673
-0.106263
0.0126554
-0.107666
0.00701843
-0.108447
0.00228364
-0.00606292
-0.108385
0.0981971
0.0629503
0.0884328
0.0628461
0.07951
0.0597231
0.0716738
0.0551291
0.06492
0.0506841
0.0588511
0.0482188
0.0527844
0.0492823
0.0459226
0.0546741
0.0374718
0.0642789
0.0267924
0.077209
0.0135265
0.0918618
-0.00235146
0.106266
-0.0204736
0.117677
-0.0398985
0.123672
-0.0592127
0.121611
-0.0768147
0.111105
-0.0914085
0.093366
-0.102041
0.0704795
-0.108527
0.0459253
-0.11096
0.0225254
-0.110389
0.00220638
-0.107504
-0.0132373
-0.103106
-0.0243035
-0.0978078
-0.031632
-0.0920594
-0.0359389
-0.086168
-0.0379808
-0.0803296
-0.0385701
-0.0747117
-0.0379924
-0.0693149
-0.0371353
-0.0641631
-0.0361103
-0.059236
-0.0350793
-0.0543557
-0.0350448
-0.0494631
-0.03521
-0.0444389
-0.0361674
-0.0391663
-0.0376514
-0.0335899
-0.0395152
-0.0276922
-0.0415522
-0.0214784
-0.0436739
-0.0149595
-0.0458493
-0.00814115
-0.0480626
-0.000978971
-0.0505489
0.00656745
-0.0532328
0.0145827
-0.0562992
0.0231233
-0.0595333
0.0322109
-0.0627308
0.0418098
-0.0654985
0.0518076
-0.0674196
0.0619971
-0.0679095
0.0720752
-0.0664439
0.0816928
-0.0627556
0.0904165
-0.0563419
0.0978228
-0.047362
0.103469
-0.0356741
0.107002
-0.0219173
0.108138
-0.00647369
0.106806
0.00922661
0.103048
0.0250449
0.096809
0.040907
0.088395
0.0549522
0.0782542
0.0663158
0.0667466
0.0755959
0.0544318
0.0813399
0.0416963
0.084837
0.028923
0.085702
0.0164227
0.084619
0.00439879
0.0820347
-0.00698029
0.078271
-0.0176304
0.0738253
-0.0275606
0.0692988
-0.0367239
0.0642708
-0.0452328
0.0599298
-0.0530778
0.0553833
-0.0603183
0.0512224
-0.0670572
0.0476441
-0.0732559
0.0438068
-0.0790451
0.0407993
-0.0843926
0.0375132
-0.0893468
0.0345396
-0.0938784
0.0313341
-0.0979729
0.0279757
-0.101571
0.0241641
-0.104554
0.0197508
-0.106976
0.0150774
-0.108573
0.00861513
-0.109543
0.0032535
-0.00588305
-0.109723
0.098235
0.0736595
0.0880112
0.07307
0.0788703
0.0688639
0.071066
0.0629335
0.0646049
0.0571452
0.0590224
0.0538014
0.0535333
0.0547714
0.047236
0.0609714
0.0392273
0.0722876
0.0287739
0.0876624
0.0154636
0.105172
-0.000765034
0.122495
-0.019652
0.136564
-0.040108
0.144128
-0.0605676
0.142071
-0.0791864
0.129724
-0.0945102
0.10869
-0.105438
0.0814071
-0.111864
0.0523516
-0.113797
0.0244588
-0.112677
0.00108631
-0.109225
-0.0166898
-0.104314
-0.0292141
-0.0985879
-0.0373584
-0.0925059
-0.042021
-0.0863639
-0.0441227
-0.08035
-0.044584
-0.0746284
-0.0437139
-0.0691818
-0.0425819
-0.0640359
-0.0412562
-0.059164
-0.0399511
-0.0543682
-0.0398406
-0.049563
-0.0400152
-0.0446221
-0.0411083
-0.0394077
-0.0428658
-0.0338641
-0.0450589
-0.0279811
-0.0474352
-0.0217758
-0.0498792
-0.0152713
-0.0523539
-0.00848128
-0.0548526
-0.00135849
-0.0576717
0.00614788
-0.0607392
0.0141369
-0.0642882
0.0226859
-0.0680823
0.0318337
-0.0718786
0.0415587
-0.0752236
0.0517548
-0.0776157
0.0622129
-0.0783676
0.0726183
-0.0768493
0.082601
-0.0727383
0.0917053
-0.0654462
0.0994748
-0.0551315
0.105434
-0.0416338
0.109197
-0.02568
0.110454
-0.00773037
0.109116
0.0105643
0.105257
0.0289043
0.0987932
0.0473708
0.0900625
0.0636828
0.0795415
0.0768368
0.067632
0.0875054
0.05493
0.0940419
0.0418521
0.0979149
0.028789
0.0987651
0.0160683
0.0973397
0.00388321
0.0942198
-0.0075967
0.089751
-0.0182981
0.0845267
-0.0282394
0.0792401
-0.0373835
0.0734149
-0.0458568
0.0684031
-0.0536608
0.0631873
-0.0608569
0.0584185
-0.0675554
0.0543427
-0.0737201
0.0499714
-0.0794883
0.0465676
-0.0848292
0.0428541
-0.0897949
0.0395054
-0.0943605
0.0358996
-0.0985185
0.0321337
-0.102207
0.0278523
-0.105272
0.0228161
-0.107786
0.017591
-0.109432
0.0102612
-0.110549
0.00437116
-0.00536111
-0.111071
0.0982063
0.0851186
0.087449
0.0838272
0.0779882
0.0783248
0.0702476
0.070674
0.0641692
0.0632236
0.0591783
0.0587923
0.0543892
0.0595605
0.0487801
0.0665805
0.0413089
0.0797589
0.0311273
0.097844
0.0177924
0.118507
0.00113735
0.13915
-0.0186661
0.156367
-0.0403319
0.165794
-0.0621407
0.16388
-0.0819715
0.149555
-0.0981691
0.124887
-0.109444
0.0926819
-0.115711
0.0586182
-0.117073
0.0258212
-0.115325
-0.000661888
-0.111187
-0.020828
-0.105655
-0.0347455
-0.0994393
-0.0435744
-0.092985
-0.0484753
-0.086569
-0.0505388
-0.0803679
-0.0507851
-0.0745452
-0.0495367
-0.0690593
-0.0480679
-0.0639309
-0.0463845
-0.0591196
-0.0447625
-0.0544112
-0.044549
-0.0496954
-0.044731
-0.0448519
-0.0459518
-0.0397106
-0.0480071
-0.034205
-0.0505645
-0.0283364
-0.0533038
-0.0221351
-0.0560805
-0.0156424
-0.0588467
-0.00888004
-0.0616149
-0.0017992
-0.0647525
0.00565815
-0.0681966
0.0136131
-0.0722432
0.0221689
-0.076638
0.0313832
-0.0810929
0.0412518
-0.0850922
0.0516749
-0.0880387
0.062442
-0.0891347
0.0732278
-0.0876351
0.0836392
-0.0831496
0.0931912
-0.0749982
0.101387
-0.0633276
0.107717
-0.0479634
0.111752
-0.0297151
0.11316
-0.00913797
0.111808
0.011916
0.107828
0.0328838
0.1011
0.0540993
0.0919819
0.0728007
0.081015
0.0878037
0.0686404
0.0998801
0.0554769
0.107205
0.0420012
0.111391
0.0286052
0.112161
0.0156282
0.110317
0.00326462
0.106583
-0.00832785
0.101343
-0.0190802
0.095279
-0.0290188
0.0891788
-0.0381434
0.0825395
-0.0465729
0.0768325
-0.0543213
0.0709357
-0.0614658
0.065563
-0.0681138
0.0609907
-0.0742406
0.0560982
-0.0799848
0.0523119
-0.0853236
0.0481928
-0.0903062
0.044488
-0.0949111
0.0405045
-0.0991396
0.0363622
-0.102923
0.031636
-0.106063
0.0259557
-0.108663
0.0201908
-0.110415
0.012014
-0.111766
0.00572175
-0.00467367
-0.112453
0.0981046
0.0974487
0.0866292
0.0953026
0.0768599
0.0880941
0.0692337
0.0783003
0.0635774
0.0688798
0.0592977
0.063072
0.0553519
0.0635064
0.0505569
0.0713754
0.0437408
0.086575
0.0339559
0.107629
0.0206319
0.131831
0.00342625
0.156355
-0.0173859
0.17718
-0.0405359
0.188944
-0.0640051
0.187349
-0.0852878
0.170838
-0.102513
0.142112
-0.114219
0.104388
-0.120104
0.0645035
-0.120954
0.0266717
-0.118304
-0.00331259
-0.113346
-0.0257852
-0.107141
-0.0409506
-0.100383
-0.050333
-0.09351
-0.055348
-0.0867844
-0.0572644
-0.0803723
-0.0571972
-0.0744328
-0.0554761
-0.0688989
-0.0536018
-0.0637841
-0.0514993
-0.0590466
-0.0495
-0.0544573
-0.0491383
-0.0498631
-0.0493252
-0.045131
-0.0506839
-0.0400613
-0.0530768
-0.034587
-0.0560388
-0.0287245
-0.0591662
-0.0225241
-0.0622809
-0.0160474
-0.0653233
-0.00932167
-0.0683406
-0.00230077
-0.0717734
0.00509023
-0.0755876
0.0129937
-0.0801467
0.0215448
-0.0851891
0.0308253
-0.0903734
0.0408517
-0.0951185
0.0515351
-0.0987222
0.0626611
-0.100261
0.0738898
-0.0988638
0.0847972
-0.094057
0.094869
-0.08507
0.103564
-0.0720222
0.110327
-0.0547266
0.114683
-0.0340711
0.116255
-0.0107105
0.1149
0.0132711
0.110778
0.0370061
0.103736
0.0611416
0.0941892
0.0823472
0.0826989
0.0992939
0.0697734
0.112806
0.0560983
0.12088
0.0421683
0.125321
0.0283941
0.125935
0.0151384
0.123572
0.00256874
0.119153
-0.00914246
0.113055
-0.0199574
0.106094
-0.0299104
0.0991318
-0.0390033
0.0916324
-0.0473826
0.0852118
-0.0550772
0.0786304
-0.0621628
0.0726486
-0.0687533
0.0675811
-0.0748386
0.0621835
-0.0805597
0.0580329
-0.0858945
0.0535275
-0.0908975
0.049491
-0.0955584
0.0451654
-0.0998839
0.0406878
-0.103785
0.0355375
-0.107017
0.0291875
-0.109659
0.0228321
-0.111536
0.0138917
-0.112975
0.0071609
-0.0038976
-0.113752
0.0977988
0.11088
0.0855776
0.107524
0.0755074
0.0981644
0.0679389
0.0858688
0.0628066
0.0740121
0.05936
0.0665186
0.0563979
0.0664685
0.0525962
0.075177
0.0466096
0.0925616
0.0373454
0.116893
0.0239534
0.145223
0.00609395
0.174215
-0.0158674
0.199141
-0.0406895
0.213766
-0.0660612
0.21272
-0.0890482
0.193825
-0.107456
0.16052
-0.119795
0.116726
-0.125063
0.0697719
-0.125215
0.0268239
-0.121658
-0.0068702
-0.11578
-0.0316633
-0.108757
-0.0479726
-0.101376
-0.0577141
-0.0940526
-0.0626716
-0.0870065
-0.0643105
-0.0803928
-0.0638108
-0.07437
-0.061499
-0.0688214
-0.0591504
-0.0637437
-0.056577
-0.0590942
-0.0541495
-0.0546286
-0.0536038
-0.0501566
-0.0537973
-0.0455442
-0.0552962
-0.0405543
-0.0580667
-0.0351125
-0.0614806
-0.0292522
-0.0650264
-0.0230432
-0.06849
-0.0165702
-0.0717964
-0.00988066
-0.0750301
-0.00292588
-0.0787282
0.00438796
-0.0829014
0.0122243
-0.087983
0.0207645
-0.0937293
0.0301189
-0.0997278
0.0403257
-0.105325
0.051304
-0.1097
0.0628363
-0.111793
0.0745697
-0.110597
0.0860505
-0.105538
0.0967276
-0.0957471
0.106001
-0.0812954
0.113267
-0.0619932
0.117992
-0.0387954
0.119773
-0.0124918
0.118395
0.0146491
0.114112
0.0412893
0.106722
0.0685312
0.0966498
0.0924195
0.0845637
0.11138
0.0710323
0.126337
0.0567397
0.135173
0.0422876
0.139773
0.0280868
0.140136
0.0144963
0.137163
0.00170812
0.131941
-0.0101527
0.124915
-0.0210365
0.116978
-0.0309814
0.109077
-0.040068
0.100719
-0.048391
0.0935348
-0.0560102
0.0862496
-0.0630335
0.0796719
-0.0695519
0.0740995
-0.0755963
0.068228
-0.0812947
0.0637313
-0.0866484
0.0588813
-0.0916806
0.0545233
-0.0963948
0.0498796
-0.100814
0.0451072
-0.104875
0.0395978
-0.108229
0.0325416
-0.110861
0.0254645
-0.11279
0.0158211
-0.114249
0.00861974
-0.00315621
-0.114991
0.0973798
0.125514
0.0842975
0.120606
0.0737745
0.108687
0.0663003
0.093343
0.0617563
0.0785561
0.0592996
0.0689753
0.0575764
0.0681916
0.0550442
0.0777092
0.0500057
0.0976001
0.0412162
0.125683
0.0277925
0.158647
0.00937233
0.192635
-0.0139244
0.222438
-0.0408334
0.240675
-0.0685771
0.240464
-0.0935912
0.218839
-0.113308
0.180238
-0.126209
0.129626
-0.130886
0.0744495
-0.130148
0.0260854
-0.125299
-0.011719
-0.11824
-0.0387226
-0.110369
-0.0558435
-0.10237
-0.0657132
-0.094578
-0.0704632
-0.0872029
-0.0716856
-0.0804032
-0.0706106
-0.0743314
-0.0675708
-0.068782
-0.0646998
-0.0637392
-0.0616198
-0.0591847
-0.058704
-0.0548685
-0.05792
-0.0505435
-0.0581223
-0.0460545
-0.0597852
-0.0411298
-0.0629914
-0.0356924
-0.066918
-0.029803
-0.0709158
-0.0235682
-0.0747248
-0.0171036
-0.078261
-0.0104639
-0.0816699
-0.00359891
-0.0855932
0.00361313
-0.0901134
0.011353
-0.0957229
0.0198576
-0.102234
0.0292699
-0.10914
0.0396586
-0.115714
0.0509615
-0.121003
0.0629561
-0.123788
0.0752714
-0.122913
0.0874109
-0.117677
0.0987792
-0.107115
0.10872
-0.0912366
0.11658
-0.0698523
0.121751
-0.0439672
0.123775
-0.0145154
0.122391
0.0160331
0.117924
0.0457564
0.110112
0.0763429
0.0994498
0.103082
0.0866443
0.124186
0.0723421
0.140639
0.0573392
0.150176
0.0422622
0.15485
0.027545
0.154853
0.0135901
0.151118
0.00053714
0.144994
-0.0114714
0.136924
-0.0224408
0.127947
-0.0324109
0.119047
-0.041445
0.109753
-0.049687
0.101777
-0.0572244
0.093787
-0.0641344
0.0865819
-0.0705271
0.0804922
-0.0764588
0.0741597
-0.0820606
0.0693331
-0.0873232
0.0641438
-0.092304
0.0595041
-0.0970489
0.0546245
-0.10158
0.0496383
-0.105782
0.0438003
-0.109292
0.0360508
-0.111939
0.0281117
-0.113998
0.0178804
-0.115257
0.00987843
-0.00247913
-0.115934
0.096714
0.141555
0.0826135
0.134707
0.0716061
0.119695
0.0642334
0.100716
0.060446
0.0823435
0.0592608
0.0701605
0.0590309
0.0684216
0.0578526
0.0788875
0.053879
0.101574
0.0457528
0.133809
0.0324096
0.17199
0.0133095
0.211735
-0.0115219
0.247269
-0.0407168
0.26987
-0.0711033
0.270851
-0.0985046
0.24624
-0.11996
0.201693
-0.13329
0.142957
-0.137604
0.0787628
-0.13545
0.0239319
-0.129245
-0.0179237
-0.121004
-0.0469643
-0.112115
-0.0647325
-0.103333
-0.0744948
-0.0950046
-0.0787916
-0.0872664
-0.0794239
-0.080333
-0.077544
-0.0741337
-0.07377
-0.0685339
-0.0702997
-0.063537
-0.0666167
-0.0591069
-0.063134
-0.0549834
-0.0620436
-0.0508538
-0.0622518
-0.0465296
-0.0641094
-0.0417319
-0.0677891
-0.0363472
-0.0723027
-0.0304445
-0.0768185
-0.0241795
-0.0809898
-0.0177174
-0.084723
-0.011137
-0.0882503
-0.00439005
-0.0923401
0.00268113
-0.0971846
0.0102874
-0.103329
0.0187228
-0.110669
0.0281781
-0.118595
0.0387498
-0.126286
0.0503883
-0.132642
0.0628711
-0.13627
0.0758147
-0.135856
0.0886861
-0.130549
0.100846
-0.119275
0.111554
-0.101945
0.120074
-0.0783727
0.125724
-0.0496171
0.127996
-0.0167869
0.126555
0.0174733
0.121829
0.0504828
0.113511
0.0846609
0.102121
0.114472
0.0884729
0.137833
0.0733604
0.155752
0.0576011
0.165935
0.0419194
0.170531
0.026772
0.170001
0.0125363
0.165353
-0.00062439
0.158155
-0.0126235
0.148923
-0.0235016
0.138825
-0.0332852
0.12883
-0.0421583
0.118626
-0.0502008
0.109819
-0.0575402
0.101126
-0.0642668
0.0933086
-0.0704227
0.086648
-0.0761686
0.0799057
-0.0816156
0.07478
-0.0868201
0.0693483
-0.0917479
0.0644319
-0.0964718
0.0593485
-0.101062
0.0542287
-0.105504
0.0482421
-0.109374
0.0399203
-0.112148
0.0308861
-0.114237
0.0199698
-0.115361
0.0110026
-0.00175666
-0.116084
0.095849
0.159181
0.0805417
0.150014
0.0689036
0.131333
0.0616887
0.107931
0.0588288
0.0852034
0.0590754
0.0699139
0.0604856
0.0670114
0.0608588
0.0785143
0.0581308
0.104302
0.0507094
0.14123
0.0374529
0.185246
0.017644
0.231544
-0.00892942
0.273842
-0.0409675
0.301908
-0.0746079
0.304491
-0.104692
0.276324
-0.128152
0.225153
-0.141536
0.156341
-0.145175
0.0824018
-0.141538
0.0202941
-0.133663
-0.0257979
-0.123799
-0.0568292
-0.113691
-0.0748404
-0.104085
-0.084101
-0.0951886
-0.0876875
-0.0870386
-0.0875739
-0.0796985
-0.0848842
-0.0732807
-0.0801878
-0.0677277
-0.0758527
-0.0628025
-0.0715419
-0.0585121
-0.0674245
-0.0546037
-0.065952
-0.0506843
-0.0661712
-0.0465428
-0.0682509
-0.0418911
-0.0724408
-0.0365907
-0.0776031
-0.0307312
-0.082678
-0.0245025
-0.0872184
-0.0180959
-0.0911297
-0.0116127
-0.0947335
-0.00501951
-0.0989334
0.00186967
-0.104074
0.00931693
-0.110776
0.0176503
-0.119003
0.0271246
-0.12807
0.0378703
-0.137031
0.0498549
-0.144627
0.0628524
-0.149268
0.0764645
-0.149468
0.0901127
-0.144197
0.1031
-0.132262
0.11462
-0.113465
0.123878
-0.0876309
0.130115
-0.0558539
0.132726
-0.0193981
0.131327
0.0188731
0.126423
0.0553864
0.117634
0.09345
0.10557
0.126536
0.0911819
0.152222
0.0752798
0.171654
0.058801
0.182414
0.0425593
0.186773
0.0270038
0.185556
0.0125284
0.179829
-0.00073593
0.171419
-0.0126881
0.160875
-0.023451
0.149588
-0.0330715
0.138451
-0.0417586
0.127313
-0.0495949
0.117656
-0.0567395
0.108271
-0.0632887
0.0998578
-0.0692848
0.0926441
-0.074922
0.0855428
-0.0801878
0.0800458
-0.0851762
0.0743368
-0.0899152
0.0691708
-0.0945526
0.0639859
-0.0991447
0.0588207
-0.103668
0.0527653
-0.10786
0.0441127
-0.110987
0.0340133
-0.113234
0.0222166
-0.114255
0.0120231
-0.00131117
-0.1147
0.0337225
0.165848
0.0279584
0.155778
0.0236599
0.135631
0.0211371
0.110453
0.0203575
0.085983
0.0208084
0.0694629
0.0217481
0.0660718
0.0223241
0.0779383
0.021712
0.104914
0.0192904
0.143652
0.0146389
0.189898
0.0074795
0.238703
-0.00225397
0.283576
-0.0141688
0.313823
-0.0268515
0.317174
-0.0383579
0.28783
-0.0473881
0.234183
-0.0523114
0.161264
-0.0533751
0.0834656
-0.0515672
0.0184861
-0.0481851
-0.02918
-0.0443285
-0.0606858
-0.0404596
-0.0787093
-0.0368508
-0.0877098
-0.0335629
-0.0909754
-0.0305748
-0.0905619
-0.0279351
-0.0875239
-0.0256845
-0.0824384
-0.0237038
-0.0778334
-0.0219342
-0.0733115
-0.0204185
-0.0689402
-0.019068
-0.0673025
-0.0177291
-0.0675101
-0.0163026
-0.0696774
-0.0146894
-0.0740541
-0.0128349
-0.0794576
-0.0107668
-0.0847461
-0.0085605
-0.0894247
-0.00629727
-0.0933929
-0.0040223
-0.0970084
-0.00173017
-0.101225
0.000654395
-0.106458
0.00323652
-0.113359
0.00614175
-0.121908
0.00947854
-0.131407
0.0133036
-0.140856
0.0176099
-0.148933
0.0223164
-0.153974
0.0272781
-0.15443
0.0322838
-0.149203
0.0370801
-0.137059
0.0413662
-0.117751
0.044838
-0.0911027
0.0472005
-0.0582165
0.0482219
-0.0204195
0.0477242
0.0193707
0.0459272
0.0571834
0.0426979
0.0966794
0.0382547
0.130979
0.0329435
0.157533
0.0271208
0.177476
0.0211082
0.188427
0.0152114
0.19267
0.0096151
0.191152
0.00443762
0.185006
-0.00026819
0.176125
-0.00448244
0.16509
-0.00825577
0.153362
-0.0116067
0.141802
-0.0146105
0.130317
-0.0172982
0.120343
-0.0197716
0.110745
-0.0220555
0.102142
-0.0240962
0.0946849
-0.0259672
0.0874138
-0.0277086
0.0817872
-0.0293565
0.0759846
-0.0309127
0.070727
-0.0324553
0.0655286
-0.0339794
0.0603448
-0.0355206
0.0543065
-0.0370482
0.0456403
-0.0382379
0.035203
-0.0390045
0.0229832
-0.0392524
0.012271
-0.00118768
-0.0393759
0.0335039
0.172792
0.0275684
0.161714
0.0231871
0.140013
0.0206868
0.112954
0.0200557
0.0866141
0.0207344
0.0687843
0.0219411
0.0648651
0.0227847
0.0770947
0.0223918
0.105307
0.0201284
0.145915
0.0156036
0.194423
0.00848974
0.245817
-0.00143926
0.293505
-0.0139397
0.326324
-0.0274524
0.330686
-0.0393922
0.29977
-0.0486057
0.243397
-0.0535836
0.166242
-0.0543984
0.0842804
-0.0521771
0.0162648
-0.0485755
-0.0327815
-0.0444957
-0.0647656
-0.0405205
-0.0826846
-0.0368573
-0.091373
-0.033546
-0.0942867
-0.0305548
-0.0935532
-0.0278985
-0.0901802
-0.0255863
-0.0847506
-0.0235593
-0.0798604
-0.0217867
-0.0750841
-0.0202817
-0.0704451
-0.0189578
-0.0686264
-0.0176445
-0.0688235
-0.0162252
-0.0710966
-0.0145938
-0.0756854
-0.0127014
-0.08135
-0.0105996
-0.0868479
-0.00837348
-0.0916508
-0.00610203
-0.0956644
-0.00383248
-0.099278
-0.00155986
-0.103498
0.000800041
-0.108818
0.00335514
-0.115914
0.0062389
-0.124792
0.00956956
-0.134737
0.0134088
-0.144696
0.0177525
-0.153277
0.0225198
-0.158741
0.0275612
-0.159472
0.0326607
-0.154302
0.0375605
-0.141958
0.0419487
-0.122139
0.0455098
-0.0946638
0.0479425
-0.0606492
0.0490025
-0.0214795
0.0485118
0.0198615
0.046694
0.0590011
0.0434121
0.0999612
0.038877
0.135514
0.033458
0.162952
0.0275216
0.183413
0.0214051
0.194543
0.0154267
0.198648
0.00976176
0.196817
0.00454158
0.190227
-0.000186063
0.180853
-0.00438239
0.169286
-0.00810345
0.157083
-0.0113914
0.14509
-0.0143178
0.133243
-0.0169699
0.122995
-0.0194093
0.113184
-0.0215832
0.104315
-0.0235095
0.0966111
-0.0252677
0.089172
-0.0268836
0.0834032
-0.0283964
0.0774975
-0.0298188
0.0721494
-0.0312399
0.0669497
-0.0326542
0.0617591
-0.0340781
0.0557304
-0.0355591
0.0471213
-0.0367894
0.0364334
-0.037624
0.0238178
-0.0377313
0.0123783
-0.00107046
-0.0378485
0.0333377
0.179982
0.0271857
0.167866
0.0226812
0.144517
0.0202091
0.115426
0.019738
0.0870852
0.0206552
0.067867
0.0221477
0.0633726
0.0232761
0.0759663
0.02314
0.105443
0.0210746
0.147981
0.0165763
0.198921
0.0091844
0.253209
-0.00132957
0.304019
-0.0142306
0.339225
-0.0278754
0.344331
-0.0402153
0.31211
-0.0499907
0.253172
-0.0551744
0.171426
-0.0556329
0.0847389
-0.0529563
0.0135881
-0.0487343
-0.0370035
-0.0442953
-0.0692046
-0.0401354
-0.0868444
-0.0364444
-0.095064
-0.0331446
-0.0975865
-0.0301822
-0.0965155
-0.0275499
-0.0928125
-0.0252412
-0.0870593
-0.023213
-0.0818887
-0.0214518
-0.0768453
-0.0199752
-0.0719217
-0.0186917
-0.0699099
-0.0174258
-0.0700894
-0.0160458
-0.0724765
-0.0144447
-0.0772866
-0.0125643
-0.0832304
-0.0104463
-0.0889659
-0.00821309
-0.093884
-0.00595221
-0.0979253
-0.00369628