/*--------------------------------*- C++ -*----------------------------------*\
| =========                 |                                                 |
| \\      /  F ield         | OpenFOAM: The Open Source CFD Toolbox           |
|  \\    /   O peration     | Version:  v1912                                 |
|   \\  /    A nd           | Website:  www.openfoam.com                      |
|    \\/     M anipulation  |                                                 |
\*---------------------------------------------------------------------------*/
FoamFile
{
    version     2.0;
    format      ascii;
    class       volSymmTensorField;
    location    "10";
    object      R;
}
// * * * * * * * * * * * * * * * * * * * * * * * * * * * * * * * * * * * * * //

dimensions      [0 2 -2 0 0 0 0];


internalField   nonuniform List<symmTensor> 
14268
(
(5.88656e-08 -1.29138e-09 0 5.8863e-08 0 5.88652e-08)
(5.88644e-08 -1.29105e-09 0 5.88552e-08 0 5.88605e-08)
(5.88626e-08 -1.29058e-09 0 5.88439e-08 0 5.88539e-08)
(5.886e-08 -1.28992e-09 0 5.88281e-08 0 5.88446e-08)
(5.88564e-08 -1.28901e-09 0 5.88063e-08 0 5.88317e-08)
(5.88513e-08 -1.2878e-09 0 5.87768e-08 0 5.88144e-08)
(5.88441e-08 -1.28638e-09 0 5.87387e-08 0 5.87915e-08)
(5.88351e-08 -1.28435e-09 0 5.86894e-08 0 5.87622e-08)
(5.88236e-08 -1.28183e-09 0 5.86283e-08 0 5.87258e-08)
(5.88093e-08 -1.27885e-09 0 5.85556e-08 0 5.86821e-08)
(5.87921e-08 -1.27546e-09 0 5.84729e-08 0 5.86321e-08)
(5.87728e-08 -1.2718e-09 0 5.83838e-08 0 5.85777e-08)
(5.87516e-08 -1.26822e-09 0 5.82946e-08 0 5.85224e-08)
(5.87303e-08 -1.26491e-09 0 5.82127e-08 0 5.84706e-08)
(5.87101e-08 -1.26233e-09 0 5.81473e-08 0 5.84276e-08)
(5.86926e-08 -1.26095e-09 0 5.81084e-08 0 5.83992e-08)
(5.86807e-08 -1.26092e-09 0 5.81025e-08 0 5.83903e-08)
(5.86854e-08 -1.2632e-09 0 5.81443e-08 0 5.84135e-08)
(5.87363e-08 -1.26989e-09 0 5.82644e-08 0 5.84989e-08)
(5.88317e-08 -1.28078e-09 0 5.84598e-08 0 5.8644e-08)
(5.89648e-08 -1.29509e-09 0 5.87196e-08 0 5.88403e-08)
(5.91292e-08 -1.31206e-09 0 5.90331e-08 0 5.9079e-08)
(5.93164e-08 -1.33101e-09 0 5.93885e-08 0 5.93504e-08)
(5.95248e-08 -1.35163e-09 0 5.97817e-08 0 5.9651e-08)
(5.97472e-08 -1.37344e-09 0 6.0205e-08 0 5.99738e-08)
(5.99817e-08 -1.39603e-09 0 6.06525e-08 0 6.03142e-08)
(6.02076e-08 -1.4173e-09 0 6.10859e-08 0 6.06432e-08)
(6.04032e-08 -1.43598e-09 0 6.14799e-08 0 6.0939e-08)
(6.05426e-08 -1.44687e-09 0 6.17454e-08 0 6.11381e-08)
(6.0561e-08 -1.44882e-09 0 6.18443e-08 0 6.12038e-08)
(6.05203e-08 -1.4389e-09 0 6.17416e-08 0 6.1123e-08)
(6.03475e-08 -1.4218e-09 0 6.14678e-08 0 6.09113e-08)
(6.02594e-08 -1.40493e-09 0 6.11916e-08 0 6.07214e-08)
(6.0126e-08 -1.38948e-09 0 6.09574e-08 0 6.05401e-08)
(6.00796e-08 -1.38616e-09 0 6.09008e-08 0 6.04889e-08)
(6.02312e-08 -1.39875e-09 0 6.12171e-08 0 6.07145e-08)
(6.05115e-08 -1.43451e-09 0 6.18618e-08 0 6.11932e-08)
(6.11052e-08 -1.48397e-09 0 6.29548e-08 0 6.20053e-08)
(6.16381e-08 -1.55349e-09 0 6.43564e-08 0 6.30245e-08)
(6.33747e-08 -1.68831e-09 0 6.76582e-08 0 6.54662e-08)
(6.69984e-08 -2.10251e-09 0 7.73018e-08 0 7.22362e-08)
(7.60232e-08 -3.0088e-09 0 1.04259e-07 0 8.98828e-08)
(8.25879e-08 -4.07223e-09 0 1.36689e-07 0 1.09453e-07)
(8.29155e-08 -8.56605e-09 0 1.39204e-07 0 1.10772e-07)
(2.37962e-07 -1.47861e-08 0 2.38036e-07 0 2.38015e-07)
(2.37963e-07 -1.47851e-08 0 2.38007e-07 0 2.38002e-07)
(2.37966e-07 -1.47837e-08 0 2.37965e-07 0 2.37983e-07)
(2.37969e-07 -1.47816e-08 0 2.37907e-07 0 2.37957e-07)
(2.37974e-07 -1.47788e-08 0 2.37828e-07 0 2.37921e-07)
(2.37981e-07 -1.47748e-08 0 2.37722e-07 0 2.37873e-07)
(2.37989e-07 -1.47695e-08 0 2.37583e-07 0 2.37809e-07)
(2.37999e-07 -1.47627e-08 0 2.37405e-07 0 2.37728e-07)
(2.38011e-07 -1.4754e-08 0 2.37185e-07 0 2.37625e-07)
(2.38022e-07 -1.47432e-08 0 2.3692e-07 0 2.37502e-07)
(2.38032e-07 -1.47305e-08 0 2.36617e-07 0 2.37359e-07)
(2.3804e-07 -1.47161e-08 0 2.36285e-07 0 2.372e-07)
(2.38043e-07 -1.47006e-08 0 2.35943e-07 0 2.37034e-07)
(2.38038e-07 -1.46848e-08 0 2.35616e-07 0 2.36872e-07)
(2.38022e-07 -1.46698e-08 0 2.35334e-07 0 2.36726e-07)
(2.37992e-07 -1.46572e-08 0 2.35129e-07 0 2.36611e-07)
(2.37948e-07 -1.4648e-08 0 2.35028e-07 0 2.3654e-07)
(2.37882e-07 -1.46426e-08 0 2.35042e-07 0 2.36515e-07)
(2.37769e-07 -1.46403e-08 0 2.3515e-07 0 2.36513e-07)
(2.37608e-07 -1.46407e-08 0 2.35348e-07 0 2.36532e-07)
(2.374e-07 -1.46437e-08 0 2.35625e-07 0 2.3657e-07)
(2.37156e-07 -1.46491e-08 0 2.35975e-07 0 2.36625e-07)
(2.36874e-07 -1.46565e-08 0 2.36383e-07 0 2.36693e-07)
(2.36569e-07 -1.46655e-08 0 2.36853e-07 0 2.36778e-07)
(2.36232e-07 -1.46766e-08 0 2.37376e-07 0 2.36876e-07)
(2.35887e-07 -1.46895e-08 0 2.37953e-07 0 2.36994e-07)
(2.35539e-07 -1.47034e-08 0 2.38536e-07 0 2.37114e-07)
(2.352e-07 -1.47177e-08 0 2.39092e-07 0 2.37231e-07)
(2.34977e-07 -1.47303e-08 0 2.39532e-07 0 2.37332e-07)
(2.34744e-07 -1.47381e-08 0 2.39766e-07 0 2.37363e-07)
(2.34821e-07 -1.47419e-08 0 2.39814e-07 0 2.37393e-07)
(2.34785e-07 -1.47339e-08 0 2.3951e-07 0 2.37266e-07)
(2.34911e-07 -1.47199e-08 0 2.39102e-07 0 2.37101e-07)
(2.34993e-07 -1.47062e-08 0 2.38872e-07 0 2.37033e-07)
(2.3487e-07 -1.4702e-08 0 2.38815e-07 0 2.36953e-07)
(2.34819e-07 -1.47107e-08 0 2.39518e-07 0 2.37234e-07)
(2.33987e-07 -1.47318e-08 0 2.40337e-07 0 2.37311e-07)
(2.33785e-07 -1.47694e-08 0 2.42254e-07 0 2.38023e-07)
(2.31788e-07 -1.48226e-08 0 2.44429e-07 0 2.38355e-07)
(2.30379e-07 -1.48669e-08 0 2.49649e-07 0 2.39941e-07)
(2.21059e-07 -1.49694e-08 0 2.64866e-07 0 2.43453e-07)
(2.07124e-07 -1.51789e-08 0 3.07036e-07 0 2.5651e-07)
(1.93738e-07 -1.57042e-08 0 3.62429e-07 0 2.77074e-07)
(1.9053e-07 -3.41692e-08 0 3.70577e-07 0 2.82335e-07)
(2.59703e-07 -1.7631e-08 0 2.59698e-07 0 2.597e-07)
(2.59719e-07 -1.76309e-08 0 2.59683e-07 0 2.597e-07)
(2.59741e-07 -1.76307e-08 0 2.59661e-07 0 2.59698e-07)
(2.59771e-07 -1.76304e-08 0 2.59629e-07 0 2.59696e-07)
(2.59812e-07 -1.763e-08 0 2.59584e-07 0 2.59693e-07)
(2.59867e-07 -1.76294e-08 0 2.59522e-07 0 2.59688e-07)
(2.5994e-07 -1.76286e-08 0 2.5944e-07 0 2.59681e-07)
(2.60031e-07 -1.76274e-08 0 2.59335e-07 0 2.59672e-07)
(2.60144e-07 -1.76258e-08 0 2.59203e-07 0 2.5966e-07)
(2.60278e-07 -1.76238e-08 0 2.59045e-07 0 2.59646e-07)
(2.60431e-07 -1.76212e-08 0 2.58863e-07 0 2.59629e-07)
(2.60596e-07 -1.7618e-08 0 2.58666e-07 0 2.5961e-07)
(2.60765e-07 -1.76144e-08 0 2.58467e-07 0 2.59592e-07)
(2.60924e-07 -1.76104e-08 0 2.58282e-07 0 2.59575e-07)
(2.61055e-07 -1.76065e-08 0 2.5813e-07 0 2.59561e-07)
(2.61144e-07 -1.76028e-08 0 2.58033e-07 0 2.59552e-07)
(2.61174e-07 -1.75999e-08 0 2.58006e-07 0 2.59551e-07)
(2.61136e-07 -1.75979e-08 0 2.58055e-07 0 2.59554e-07)
(2.6102e-07 -1.75964e-08 0 2.58185e-07 0 2.59558e-07)
(2.60831e-07 -1.75953e-08 0 2.58394e-07 0 2.59565e-07)
(2.60569e-07 -1.7595e-08 0 2.58676e-07 0 2.59573e-07)
(2.60253e-07 -1.75949e-08 0 2.59018e-07 0 2.59582e-07)
(2.59875e-07 -1.75954e-08 0 2.59422e-07 0 2.59593e-07)
(2.59466e-07 -1.75962e-08 0 2.59868e-07 0 2.59607e-07)
(2.58994e-07 -1.75974e-08 0 2.60372e-07 0 2.59621e-07)
(2.58514e-07 -1.75991e-08 0 2.6091e-07 0 2.59642e-07)
(2.58012e-07 -1.76016e-08 0 2.61467e-07 0 2.59664e-07)
(2.5753e-07 -1.76055e-08 0 2.61987e-07 0 2.59683e-07)
(2.57202e-07 -1.76103e-08 0 2.62411e-07 0 2.59712e-07)
(2.56897e-07 -1.7615e-08 0 2.62648e-07 0 2.59702e-07)
(2.56983e-07 -1.76208e-08 0 2.62721e-07 0 2.5974e-07)
(2.57026e-07 -1.76202e-08 0 2.6249e-07 0 2.5969e-07)
(2.57321e-07 -1.76165e-08 0 2.62225e-07 0 2.59674e-07)
(2.57484e-07 -1.7609e-08 0 2.62069e-07 0 2.59678e-07)
(2.57384e-07 -1.76004e-08 0 2.62046e-07 0 2.59628e-07)
(2.57121e-07 -1.75907e-08 0 2.62634e-07 0 2.59737e-07)
(2.5602e-07 -1.75833e-08 0 2.6334e-07 0 2.59628e-07)
(2.55217e-07 -1.75719e-08 0 2.65016e-07 0 2.59906e-07)
(2.52576e-07 -1.75387e-08 0 2.66761e-07 0 2.59704e-07)
(2.50282e-07 -1.7436e-08 0 2.71301e-07 0 2.60416e-07)
(2.36609e-07 -1.70409e-08 0 2.86025e-07 0 2.61545e-07)
(2.18384e-07 -1.67871e-08 0 3.2573e-07 0 2.70893e-07)
(2.00129e-07 -1.39076e-08 0 3.74056e-07 0 2.86672e-07)
(2.02256e-07 -3.60454e-08 0 4.04586e-07 0 3.01168e-07)
(2.60953e-07 -1.80104e-08 0 2.60874e-07 0 2.60926e-07)
(2.60968e-07 -1.80106e-08 0 2.60855e-07 0 2.60925e-07)
(2.6099e-07 -1.80108e-08 0 2.60829e-07 0 2.60924e-07)
(2.61021e-07 -1.80111e-08 0 2.60793e-07 0 2.60922e-07)
(2.61064e-07 -1.80115e-08 0 2.60743e-07 0 2.6092e-07)
(2.61122e-07 -1.80119e-08 0 2.60678e-07 0 2.60918e-07)
(2.61199e-07 -1.80124e-08 0 2.60593e-07 0 2.60916e-07)
(2.61297e-07 -1.80129e-08 0 2.60484e-07 0 2.60912e-07)
(2.61419e-07 -1.80134e-08 0 2.60351e-07 0 2.60909e-07)
(2.61563e-07 -1.80137e-08 0 2.60191e-07 0 2.60904e-07)
(2.61729e-07 -1.80138e-08 0 2.60008e-07 0 2.60899e-07)
(2.61908e-07 -1.80134e-08 0 2.5981e-07 0 2.60894e-07)
(2.62091e-07 -1.80126e-08 0 2.59609e-07 0 2.60888e-07)
(2.62262e-07 -1.80112e-08 0 2.59418e-07 0 2.60882e-07)
(2.62402e-07 -1.80091e-08 0 2.59258e-07 0 2.60876e-07)
(2.62494e-07 -1.80067e-08 0 2.59147e-07 0 2.6087e-07)
(2.62521e-07 -1.80041e-08 0 2.591e-07 0 2.60864e-07)
(2.62475e-07 -1.80012e-08 0 2.59134e-07 0 2.6086e-07)
(2.6235e-07 -1.79984e-08 0 2.59248e-07 0 2.60855e-07)
(2.62148e-07 -1.79959e-08 0 2.59441e-07 0 2.60851e-07)
(2.61874e-07 -1.79937e-08 0 2.59701e-07 0 2.60846e-07)
(2.61539e-07 -1.7992e-08 0 2.60028e-07 0 2.60842e-07)
(2.61147e-07 -1.79906e-08 0 2.60393e-07 0 2.60834e-07)
(2.60709e-07 -1.79892e-08 0 2.60819e-07 0 2.6083e-07)
(2.60226e-07 -1.79882e-08 0 2.61284e-07 0 2.60824e-07)
(2.5971e-07 -1.79879e-08 0 2.61799e-07 0 2.60825e-07)
(2.59193e-07 -1.79888e-08 0 2.6231e-07 0 2.60824e-07)
(2.58687e-07 -1.79918e-08 0 2.62798e-07 0 2.60823e-07)
(2.58335e-07 -1.7997e-08 0 2.63184e-07 0 2.60831e-07)
(2.58012e-07 -1.80037e-08 0 2.63379e-07 0 2.60803e-07)
(2.58081e-07 -1.80112e-08 0 2.63419e-07 0 2.60824e-07)
(2.58131e-07 -1.80161e-08 0 2.63185e-07 0 2.60782e-07)
(2.5843e-07 -1.80136e-08 0 2.62906e-07 0 2.60766e-07)
(2.58602e-07 -1.8008e-08 0 2.62754e-07 0 2.60782e-07)
(2.5848e-07 -1.79936e-08 0 2.627e-07 0 2.60707e-07)
(2.58201e-07 -1.79808e-08 0 2.63278e-07 0 2.60807e-07)
(2.57052e-07 -1.79597e-08 0 2.63941e-07 0 2.6065e-07)
(2.56224e-07 -1.79399e-08 0 2.65608e-07 0 2.60909e-07)
(2.53498e-07 -1.78784e-08 0 2.67293e-07 0 2.60632e-07)
(2.50908e-07 -1.77139e-08 0 2.71817e-07 0 2.61258e-07)
(2.37307e-07 -1.7089e-08 0 2.86189e-07 0 2.622e-07)
(2.18059e-07 -1.64959e-08 0 3.25356e-07 0 2.71e-07)
(2.01476e-07 -1.41401e-08 0 3.77876e-07 0 2.88379e-07)
(1.98249e-07 -3.83299e-08 0 3.89853e-07 0 2.95481e-07)
(2.61028e-07 -1.80429e-08 0 2.60974e-07 0 2.60999e-07)
(2.61045e-07 -1.80431e-08 0 2.6096e-07 0 2.61e-07)
(2.6107e-07 -1.80435e-08 0 2.6094e-07 0 2.61001e-07)
(2.61104e-07 -1.80439e-08 0 2.60911e-07 0 2.61002e-07)
(2.6115e-07 -1.80445e-08 0 2.60869e-07 0 2.61004e-07)
(2.61212e-07 -1.80453e-08 0 2.60814e-07 0 2.61005e-07)
(2.61293e-07 -1.80462e-08 0 2.60739e-07 0 2.61007e-07)
(2.61397e-07 -1.80472e-08 0 2.60644e-07 0 2.61009e-07)
(2.61525e-07 -1.80482e-08 0 2.60524e-07 0 2.61012e-07)
(2.61677e-07 -1.80492e-08 0 2.60381e-07 0 2.61014e-07)
(2.6185e-07 -1.80499e-08 0 2.60218e-07 0 2.61017e-07)
(2.62039e-07 -1.80502e-08 0 2.6004e-07 0 2.61021e-07)
(2.62232e-07 -1.80498e-08 0 2.59861e-07 0 2.61025e-07)
(2.62413e-07 -1.80487e-08 0 2.59696e-07 0 2.6103e-07)
(2.62565e-07 -1.80467e-08 0 2.59562e-07 0 2.61035e-07)
(2.62668e-07 -1.80438e-08 0 2.59478e-07 0 2.6104e-07)
(2.62705e-07 -1.80403e-08 0 2.59458e-07 0 2.61044e-07)
(2.62667e-07 -1.80366e-08 0 2.59509e-07 0 2.61047e-07)
(2.62546e-07 -1.80328e-08 0 2.59637e-07 0 2.61049e-07)
(2.62351e-07 -1.80293e-08 0 2.5984e-07 0 2.6105e-07)
(2.6208e-07 -1.8026e-08 0 2.60113e-07 0 2.61049e-07)
(2.6175e-07 -1.80231e-08 0 2.60446e-07 0 2.61049e-07)
(2.61361e-07 -1.80204e-08 0 2.60842e-07 0 2.6105e-07)
(2.60935e-07 -1.80181e-08 0 2.61279e-07 0 2.61053e-07)
(2.60454e-07 -1.80158e-08 0 2.6176e-07 0 2.61053e-07)
(2.5995e-07 -1.80145e-08 0 2.62292e-07 0 2.61061e-07)
(2.59439e-07 -1.80147e-08 0 2.62826e-07 0 2.61069e-07)
(2.58936e-07 -1.80175e-08 0 2.63337e-07 0 2.61074e-07)
(2.58597e-07 -1.80233e-08 0 2.63747e-07 0 2.61094e-07)
(2.58286e-07 -1.80311e-08 0 2.6398e-07 0 2.61079e-07)
(2.5837e-07 -1.8041e-08 0 2.64054e-07 0 2.61116e-07)
(2.5843e-07 -1.80464e-08 0 2.63839e-07 0 2.61081e-07)
(2.58751e-07 -1.80459e-08 0 2.63597e-07 0 2.6109e-07)
(2.58922e-07 -1.80375e-08 0 2.63447e-07 0 2.61102e-07)
(2.58826e-07 -1.80225e-08 0 2.63425e-07 0 2.61056e-07)
(2.5853e-07 -1.80007e-08 0 2.63991e-07 0 2.61136e-07)
(2.57405e-07 -1.79787e-08 0 2.6467e-07 0 2.61006e-07)
(2.56526e-07 -1.79449e-08 0 2.66276e-07 0 2.61215e-07)
(2.53813e-07 -1.78691e-08 0 2.6795e-07 0 2.60952e-07)
(2.51201e-07 -1.76395e-08 0 2.7261e-07 0 2.61579e-07)
(2.37493e-07 -1.68463e-08 0 2.8674e-07 0 2.62402e-07)
(2.1852e-07 -1.62691e-08 0 3.26002e-07 0 2.7129e-07)
(1.99729e-07 -1.09873e-08 0 3.75368e-07 0 2.86816e-07)
(2.03805e-07 -4.09926e-08 0 4.03072e-07 0 3.01681e-07)
(2.61007e-07 -1.80452e-08 0 2.60922e-07 0 2.60978e-07)
(2.61022e-07 -1.80456e-08 0 2.60904e-07 0 2.60977e-07)
(2.61045e-07 -1.8046e-08 0 2.60878e-07 0 2.60976e-07)
(2.61076e-07 -1.80466e-08 0 2.60843e-07 0 2.60975e-07)
(2.6112e-07 -1.80474e-08 0 2.60795e-07 0 2.60974e-07)
(2.61179e-07 -1.80484e-08 0 2.60731e-07 0 2.60972e-07)
(2.61257e-07 -1.80495e-08 0 2.60647e-07 0 2.60971e-07)
(2.61357e-07 -1.80508e-08 0 2.60541e-07 0 2.60969e-07)
(2.6148e-07 -1.80522e-08 0 2.6041e-07 0 2.60967e-07)
(2.61627e-07 -1.80534e-08 0 2.60254e-07 0 2.60965e-07)
(2.61795e-07 -1.80544e-08 0 2.60076e-07 0 2.60963e-07)
(2.61978e-07 -1.80548e-08 0 2.59882e-07 0 2.6096e-07)
(2.62164e-07 -1.80544e-08 0 2.59685e-07 0 2.60957e-07)
(2.62338e-07 -1.80531e-08 0 2.59499e-07 0 2.60955e-07)
(2.62481e-07 -1.80507e-08 0 2.59343e-07 0 2.60951e-07)
(2.62575e-07 -1.80474e-08 0 2.59235e-07 0 2.60947e-07)
(2.62603e-07 -1.80434e-08 0 2.59189e-07 0 2.60942e-07)
(2.62556e-07 -1.80389e-08 0 2.59221e-07 0 2.60937e-07)
(2.62429e-07 -1.80343e-08 0 2.59333e-07 0 2.60931e-07)
(2.62226e-07 -1.80299e-08 0 2.59524e-07 0 2.60926e-07)
(2.61952e-07 -1.8026e-08 0 2.59784e-07 0 2.6092e-07)
(2.61616e-07 -1.80225e-08 0 2.60112e-07 0 2.60916e-07)
(2.61222e-07 -1.80194e-08 0 2.60476e-07 0 2.60906e-07)
(2.60784e-07 -1.80163e-08 0 2.60903e-07 0 2.60902e-07)
(2.603e-07 -1.80137e-08 0 2.61371e-07 0 2.60896e-07)
(2.59784e-07 -1.8012e-08 0 2.61888e-07 0 2.60896e-07)
(2.59266e-07 -1.80122e-08 0 2.62403e-07 0 2.60895e-07)
(2.58761e-07 -1.80157e-08 0 2.62896e-07 0 2.60895e-07)
(2.58409e-07 -1.80227e-08 0 2.63287e-07 0 2.60904e-07)
(2.58086e-07 -1.80325e-08 0 2.63485e-07 0 2.60876e-07)
(2.58156e-07 -1.8044e-08 0 2.63529e-07 0 2.60898e-07)
(2.58209e-07 -1.80523e-08 0 2.63294e-07 0 2.60857e-07)
(2.58508e-07 -1.80497e-08 0 2.63018e-07 0 2.60844e-07)
(2.58686e-07 -1.80421e-08 0 2.62869e-07 0 2.60864e-07)
(2.58564e-07 -1.80205e-08 0 2.62819e-07 0 2.60789e-07)
(2.58282e-07 -1.79988e-08 0 2.63389e-07 0 2.60885e-07)
(2.57129e-07 -1.7966e-08 0 2.64054e-07 0 2.60726e-07)
(2.56296e-07 -1.79312e-08 0 2.65719e-07 0 2.60979e-07)
(2.5356e-07 -1.78321e-08 0 2.67397e-07 0 2.60692e-07)
(2.50925e-07 -1.75614e-08 0 2.7194e-07 0 2.61296e-07)
(2.37264e-07 -1.65888e-08 0 2.86149e-07 0 2.62139e-07)
(2.18189e-07 -1.58573e-08 0 3.25588e-07 0 2.71069e-07)
(2.00091e-07 -9.78465e-09 0 3.77977e-07 0 2.87715e-07)
(2.0182e-07 -4.45009e-08 0 3.93119e-07 0 2.98122e-07)
(2.6103e-07 -1.80454e-08 0 2.60976e-07 0 2.61001e-07)
(2.61047e-07 -1.80458e-08 0 2.60961e-07 0 2.61002e-07)
(2.61071e-07 -1.80464e-08 0 2.60941e-07 0 2.61003e-07)
(2.61105e-07 -1.80471e-08 0 2.60911e-07 0 2.61004e-07)
(2.61151e-07 -1.8048e-08 0 2.60869e-07 0 2.61005e-07)
(2.61213e-07 -1.80491e-08 0 2.60812e-07 0 2.61006e-07)
(2.61294e-07 -1.80505e-08 0 2.60736e-07 0 2.61008e-07)
(2.61397e-07 -1.8052e-08 0 2.60639e-07 0 2.61009e-07)
(2.61524e-07 -1.80536e-08 0 2.60518e-07 0 2.61011e-07)
(2.61675e-07 -1.80551e-08 0 2.60373e-07 0 2.61013e-07)
(2.61848e-07 -1.80562e-08 0 2.60206e-07 0 2.61015e-07)
(2.62036e-07 -1.80568e-08 0 2.60026e-07 0 2.61018e-07)
(2.62228e-07 -1.80564e-08 0 2.59843e-07 0 2.6102e-07)
(2.62408e-07 -1.80548e-08 0 2.59675e-07 0 2.61024e-07)
(2.62558e-07 -1.80521e-08 0 2.59537e-07 0 2.61028e-07)
(2.6266e-07 -1.80481e-08 0 2.59449e-07 0 2.61031e-07)
(2.62697e-07 -1.80432e-08 0 2.59428e-07 0 2.61035e-07)
(2.62658e-07 -1.80379e-08 0 2.59479e-07 0 2.61038e-07)
(2.62538e-07 -1.80324e-08 0 2.59609e-07 0 2.6104e-07)
(2.62342e-07 -1.80274e-08 0 2.59813e-07 0 2.61041e-07)
(2.62072e-07 -1.80227e-08 0 2.60084e-07 0 2.6104e-07)
(2.61741e-07 -1.80186e-08 0 2.60417e-07 0 2.61039e-07)
(2.61351e-07 -1.80148e-08 0 2.60812e-07 0 2.6104e-07)
(2.60925e-07 -1.80115e-08 0 2.61248e-07 0 2.61042e-07)
(2.60443e-07 -1.80082e-08 0 2.61727e-07 0 2.61041e-07)
(2.59937e-07 -1.80065e-08 0 2.62256e-07 0 2.61048e-07)
(2.59426e-07 -1.80067e-08 0 2.62786e-07 0 2.61054e-07)
(2.58921e-07 -1.80109e-08 0 2.63292e-07 0 2.61058e-07)
(2.58578e-07 -1.80195e-08 0 2.637e-07 0 2.61077e-07)
(2.58269e-07 -1.80309e-08 0 2.63928e-07 0 2.61061e-07)
(2.58351e-07 -1.80452e-08 0 2.63997e-07 0 2.61097e-07)
(2.58412e-07 -1.80539e-08 0 2.63786e-07 0 2.61063e-07)
(2.58733e-07 -1.80527e-08 0 2.63543e-07 0 2.61072e-07)
(2.58902e-07 -1.80415e-08 0 2.63393e-07 0 2.61081e-07)
(2.58805e-07 -1.80196e-08 0 2.63367e-07 0 2.61034e-07)
(2.58507e-07 -1.79907e-08 0 2.63933e-07 0 2.61111e-07)
(2.57376e-07 -1.79567e-08 0 2.64604e-07 0 2.60975e-07)
(2.56495e-07 -1.79106e-08 0 2.66205e-07 0 2.61182e-07)
(2.53774e-07 -1.77993e-08 0 2.67867e-07 0 2.60909e-07)
(2.51095e-07 -1.74725e-08 0 2.72532e-07 0 2.61516e-07)
(2.37438e-07 -1.63336e-08 0 2.86539e-07 0 2.62291e-07)
(2.18271e-07 -1.54659e-08 0 3.2576e-07 0 2.71116e-07)
(1.99057e-07 -8.76927e-09 0 3.76704e-07 0 2.86993e-07)
(2.05316e-07 -4.58131e-08 0 4.01522e-07 0 3.01975e-07)
(2.61007e-07 -1.80456e-08 0 2.60922e-07 0 2.60977e-07)
(2.61022e-07 -1.80461e-08 0 2.60904e-07 0 2.60977e-07)
(2.61045e-07 -1.80467e-08 0 2.60879e-07 0 2.60976e-07)
(2.61077e-07 -1.80475e-08 0 2.60844e-07 0 2.60975e-07)
(2.61121e-07 -1.80486e-08 0 2.60797e-07 0 2.60974e-07)
(2.6118e-07 -1.80499e-08 0 2.60734e-07 0 2.60973e-07)
(2.61259e-07 -1.80514e-08 0 2.60652e-07 0 2.60972e-07)
(2.61359e-07 -1.80532e-08 0 2.60548e-07 0 2.60972e-07)
(2.61483e-07 -1.80551e-08 0 2.60419e-07 0 2.6097e-07)
(2.61632e-07 -1.80568e-08 0 2.60265e-07 0 2.60969e-07)
(2.61801e-07 -1.80582e-08 0 2.6009e-07 0 2.60968e-07)
(2.61985e-07 -1.80588e-08 0 2.59899e-07 0 2.60967e-07)
(2.62172e-07 -1.80583e-08 0 2.59706e-07 0 2.60965e-07)
(2.62348e-07 -1.80566e-08 0 2.59524e-07 0 2.60964e-07)
(2.62492e-07 -1.80534e-08 0 2.59372e-07 0 2.60962e-07)
(2.62588e-07 -1.80489e-08 0 2.59268e-07 0 2.6096e-07)
(2.62617e-07 -1.80435e-08 0 2.59226e-07 0 2.60956e-07)
(2.62571e-07 -1.80374e-08 0 2.59257e-07 0 2.60951e-07)
(2.62444e-07 -1.80312e-08 0 2.59369e-07 0 2.60946e-07)
(2.62242e-07 -1.80253e-08 0 2.5956e-07 0 2.60941e-07)
(2.61967e-07 -1.80202e-08 0 2.5982e-07 0 2.60935e-07)
(2.61632e-07 -1.80154e-08 0 2.60148e-07 0 2.60932e-07)
(2.61238e-07 -1.80113e-08 0 2.60513e-07 0 2.60922e-07)
(2.60801e-07 -1.80072e-08 0 2.60941e-07 0 2.60919e-07)
(2.60317e-07 -1.80037e-08 0 2.6141e-07 0 2.60914e-07)
(2.59803e-07 -1.80016e-08 0 2.61928e-07 0 2.60915e-07)
(2.59286e-07 -1.8002e-08 0 2.62447e-07 0 2.60915e-07)
(2.58783e-07 -1.80068e-08 0 2.62943e-07 0 2.60917e-07)
(2.58433e-07 -1.80166e-08 0 2.63341e-07 0 2.60929e-07)
(2.58113e-07 -1.80303e-08 0 2.63544e-07 0 2.60904e-07)
(2.58186e-07 -1.80461e-08 0 2.63595e-07 0 2.6093e-07)
(2.58242e-07 -1.80576e-08 0 2.63359e-07 0 2.6089e-07)
(2.58542e-07 -1.80545e-08 0 2.63084e-07 0 2.60877e-07)
(2.58717e-07 -1.80438e-08 0 2.62931e-07 0 2.60895e-07)
(2.58596e-07 -1.80157e-08 0 2.62882e-07 0 2.60821e-07)
(2.58309e-07 -1.79859e-08 0 2.63445e-07 0 2.60911e-07)
(2.5716e-07 -1.79431e-08 0 2.64115e-07 0 2.60757e-07)
(2.56319e-07 -1.78936e-08 0 2.65772e-07 0 2.61002e-07)
(2.53586e-07 -1.77636e-08 0 2.67442e-07 0 2.60714e-07)
(2.50925e-07 -1.73895e-08 0 2.72032e-07 0 2.61315e-07)
(2.3727e-07 -1.60755e-08 0 2.86124e-07 0 2.62105e-07)
(2.18093e-07 -1.50359e-08 0 3.25575e-07 0 2.70996e-07)
(1.99147e-07 -8.08344e-09 0 3.7821e-07 0 2.87507e-07)
(2.0369e-07 -4.66571e-08 0 3.96177e-07 0 2.99874e-07)
(2.6103e-07 -1.80457e-08 0 2.60976e-07 0 2.61001e-07)
(2.61047e-07 -1.80462e-08 0 2.60961e-07 0 2.61002e-07)
(2.61071e-07 -1.8047e-08 0 2.6094e-07 0 2.61002e-07)
(2.61105e-07 -1.80479e-08 0 2.60909e-07 0 2.61003e-07)
(2.6115e-07 -1.80491e-08 0 2.60866e-07 0 2.61004e-07)
(2.61212e-07 -1.80506e-08 0 2.60808e-07 0 2.61005e-07)
(2.61292e-07 -1.80524e-08 0 2.60732e-07 0 2.61006e-07)
(2.61395e-07 -1.80544e-08 0 2.60633e-07 0 2.61007e-07)
(2.61522e-07 -1.80565e-08 0 2.6051e-07 0 2.61009e-07)
(2.61672e-07 -1.80585e-08 0 2.60363e-07 0 2.6101e-07)
(2.61844e-07 -1.806e-08 0 2.60194e-07 0 2.61011e-07)
(2.62031e-07 -1.80607e-08 0 2.60011e-07 0 2.61013e-07)
(2.62222e-07 -1.80602e-08 0 2.59826e-07 0 2.61015e-07)
(2.62401e-07 -1.80582e-08 0 2.59654e-07 0 2.61017e-07)
(2.6255e-07 -1.80547e-08 0 2.59512e-07 0 2.61019e-07)
(2.6265e-07 -1.80496e-08 0 2.5942e-07 0 2.61022e-07)
(2.62686e-07 -1.80432e-08 0 2.59394e-07 0 2.61024e-07)
(2.62646e-07 -1.80363e-08 0 2.59445e-07 0 2.61026e-07)
(2.62526e-07 -1.80292e-08 0 2.59573e-07 0 2.61027e-07)
(2.6233e-07 -1.80227e-08 0 2.59778e-07 0 2.61028e-07)
(2.62059e-07 -1.80167e-08 0 2.6005e-07 0 2.61028e-07)
(2.61728e-07 -1.80115e-08 0 2.60383e-07 0 2.61027e-07)
(2.61339e-07 -1.80067e-08 0 2.60777e-07 0 2.61027e-07)
(2.60912e-07 -1.80024e-08 0 2.61213e-07 0 2.61029e-07)
(2.60431e-07 -1.79981e-08 0 2.61692e-07 0 2.61028e-07)
(2.59923e-07 -1.79961e-08 0 2.62221e-07 0 2.61035e-07)
(2.59412e-07 -1.79965e-08 0 2.62749e-07 0 2.61041e-07)
(2.58907e-07 -1.8002e-08 0 2.63255e-07 0 2.61045e-07)
(2.58564e-07 -1.80135e-08 0 2.63662e-07 0 2.61062e-07)
(2.58254e-07 -1.80288e-08 0 2.63886e-07 0 2.61046e-07)
(2.58335e-07 -1.80473e-08 0 2.63953e-07 0 2.61081e-07)
(2.58397e-07 -1.80589e-08 0 2.6374e-07 0 2.61047e-07)
(2.58718e-07 -1.80579e-08 0 2.63497e-07 0 2.61056e-07)
(2.58884e-07 -1.80434e-08 0 2.63345e-07 0 2.61063e-07)
(2.58782e-07 -1.80141e-08 0 2.63314e-07 0 2.61009e-07)
(2.58486e-07 -1.79769e-08 0 2.63883e-07 0 2.61089e-07)
(2.57347e-07 -1.79327e-08 0 2.64545e-07 0 2.60945e-07)
(2.56472e-07 -1.7874e-08 0 2.66152e-07 0 2.61157e-07)
(2.53745e-07 -1.77316e-08 0 2.67804e-07 0 2.60874e-07)
(2.51001e-07 -1.72979e-08 0 2.72439e-07 0 2.61453e-07)
(2.37389e-07 -1.58219e-08 0 2.86318e-07 0 2.62179e-07)
(2.18097e-07 -1.46798e-08 0 3.25628e-07 0 2.70993e-07)
(1.98543e-07 -7.42359e-09 0 3.77739e-07 0 2.87191e-07)
(2.05081e-07 -4.66219e-08 0 4.01015e-07 0 3.01906e-07)
(2.61006e-07 -1.80458e-08 0 2.60922e-07 0 2.60977e-07)
(2.61022e-07 -1.80464e-08 0 2.60904e-07 0 2.60976e-07)
(2.61045e-07 -1.80472e-08 0 2.6088e-07 0 2.60976e-07)
(2.61077e-07 -1.80483e-08 0 2.60846e-07 0 2.60975e-07)
(2.61121e-07 -1.80496e-08 0 2.608e-07 0 2.60975e-07)
(2.61181e-07 -1.80513e-08 0 2.60738e-07 0 2.60974e-07)
(2.6126e-07 -1.80533e-08 0 2.60657e-07 0 2.60974e-07)
(2.61361e-07 -1.80555e-08 0 2.60554e-07 0 2.60974e-07)
(2.61486e-07 -1.80579e-08 0 2.60427e-07 0 2.60973e-07)
(2.61635e-07 -1.80601e-08 0 2.60274e-07 0 2.60973e-07)
(2.61805e-07 -1.80618e-08 0 2.60101e-07 0 2.60972e-07)
(2.6199e-07 -1.80626e-08 0 2.59913e-07 0 2.60972e-07)
(2.62179e-07 -1.80621e-08 0 2.59721e-07 0 2.60971e-07)
(2.62356e-07 -1.80599e-08 0 2.59541e-07 0 2.60971e-07)
(2.62499e-07 -1.80559e-08 0 2.59395e-07 0 2.60971e-07)
(2.62599e-07 -1.80503e-08 0 2.59293e-07 0 2.6097e-07)
(2.62628e-07 -1.80434e-08 0 2.59256e-07 0 2.60968e-07)
(2.62584e-07 -1.80358e-08 0 2.59289e-07 0 2.60964e-07)
(2.62457e-07 -1.8028e-08 0 2.59404e-07 0 2.60959e-07)
(2.62256e-07 -1.80206e-08 0 2.59594e-07 0 2.60955e-07)
(2.6198e-07 -1.80141e-08 0 2.59855e-07 0 2.6095e-07)
(2.61647e-07 -1.80081e-08 0 2.6018e-07 0 2.60946e-07)
(2.61253e-07 -1.80029e-08 0 2.6055e-07 0 2.60938e-07)
(2.60817e-07 -1.79979e-08 0 2.60977e-07 0 2.60935e-07)
(2.60335e-07 -1.79936e-08 0 2.61446e-07 0 2.6093e-07)
(2.5982e-07 -1.79909e-08 0 2.61967e-07 0 2.60933e-07)
(2.59304e-07 -1.79915e-08 0 2.62486e-07 0 2.60934e-07)
(2.58802e-07 -1.7998e-08 0 2.62985e-07 0 2.60937e-07)
(2.58453e-07 -1.80104e-08 0 2.63384e-07 0 2.6095e-07)
(2.58137e-07 -1.80277e-08 0 2.63592e-07 0 2.60928e-07)
(2.58211e-07 -1.80482e-08 0 2.63646e-07 0 2.60955e-07)
(2.58267e-07 -1.8062e-08 0 2.63411e-07 0 2.60915e-07)
(2.5857e-07 -1.80594e-08 0 2.63139e-07 0 2.60906e-07)
(2.58739e-07 -1.8045e-08 0 2.6298e-07 0 2.60917e-07)
(2.58622e-07 -1.80107e-08 0 2.62932e-07 0 2.60847e-07)
(2.58328e-07 -1.79712e-08 0 2.63489e-07 0 2.6093e-07)
(2.57185e-07 -1.79199e-08 0 2.64163e-07 0 2.60781e-07)
(2.56334e-07 -1.78576e-08 0 2.65804e-07 0 2.61015e-07)
(2.53604e-07 -1.76938e-08 0 2.67468e-07 0 2.60726e-07)
(2.50899e-07 -1.72146e-08 0 2.72116e-07 0 2.61324e-07)
(2.3728e-07 -1.55635e-08 0 2.86035e-07 0 2.62051e-07)
(2.1803e-07 -1.41871e-08 0 3.25681e-07 0 2.70967e-07)
(1.98519e-07 -6.8155e-09 0 3.78912e-07 0 2.87574e-07)
(2.04214e-07 -4.68409e-08 0 3.9872e-07 0 3.00974e-07)
(2.6103e-07 -1.8046e-08 0 2.60976e-07 0 2.61001e-07)
(2.61047e-07 -1.80466e-08 0 2.60961e-07 0 2.61002e-07)
(2.61071e-07 -1.80475e-08 0 2.60939e-07 0 2.61002e-07)
(2.61104e-07 -1.80487e-08 0 2.60907e-07 0 2.61003e-07)
(2.6115e-07 -1.80502e-08 0 2.60864e-07 0 2.61003e-07)
(2.61211e-07 -1.8052e-08 0 2.60806e-07 0 2.61004e-07)
(2.61291e-07 -1.80542e-08 0 2.60728e-07 0 2.61005e-07)
(2.61393e-07 -1.80567e-08 0 2.60628e-07 0 2.61006e-07)
(2.6152e-07 -1.80593e-08 0 2.60504e-07 0 2.61007e-07)
(2.6167e-07 -1.80618e-08 0 2.60357e-07 0 2.61008e-07)
(2.61842e-07 -1.80637e-08 0 2.60186e-07 0 2.61009e-07)
(2.62028e-07 -1.80646e-08 0 2.60002e-07 0 2.6101e-07)
(2.62219e-07 -1.8064e-08 0 2.59814e-07 0 2.61011e-07)
(2.62397e-07 -1.80616e-08 0 2.59641e-07 0 2.61013e-07)
(2.62544e-07 -1.80572e-08 0 2.59497e-07 0 2.61014e-07)
(2.62644e-07 -1.8051e-08 0 2.59401e-07 0 2.61015e-07)
(2.62678e-07 -1.80432e-08 0 2.59371e-07 0 2.61016e-07)
(2.62637e-07 -1.80347e-08 0 2.5942e-07 0 2.61018e-07)
(2.62517e-07 -1.8026e-08 0 2.59546e-07 0 2.61018e-07)
(2.6232e-07 -1.8018e-08 0 2.5975e-07 0 2.61019e-07)
(2.62048e-07 -1.80105e-08 0 2.60024e-07 0 2.61018e-07)
(2.61719e-07 -1.80044e-08 0 2.60356e-07 0 2.61017e-07)
(2.6133e-07 -1.79984e-08 0 2.60745e-07 0 2.61016e-07)
(2.609e-07 -1.79932e-08 0 2.61183e-07 0 2.61017e-07)
(2.6042e-07 -1.79881e-08 0 2.61661e-07 0 2.61017e-07)
(2.59913e-07 -1.79854e-08 0 2.62188e-07 0 2.61023e-07)
(2.59398e-07 -1.79861e-08 0 2.62719e-07 0 2.61029e-07)
(2.58896e-07 -1.79931e-08 0 2.63223e-07 0 2.61033e-07)
(2.58552e-07 -1.80073e-08 0 2.63631e-07 0 2.61051e-07)
(2.58242e-07 -1.80262e-08 0 2.63852e-07 0 2.61034e-07)
(2.58323e-07 -1.80493e-08 0 2.63919e-07 0 2.61069e-07)
(2.58383e-07 -1.80638e-08 0 2.63703e-07 0 2.61033e-07)
(2.58701e-07 -1.80623e-08 0 2.63453e-07 0 2.61038e-07)
(2.58868e-07 -1.80453e-08 0 2.63303e-07 0 2.61047e-07)
(2.58762e-07 -1.80079e-08 0 2.63269e-07 0 2.60988e-07)
(2.58468e-07 -1.79634e-08 0 2.6384e-07 0 2.61071e-07)
(2.57324e-07 -1.79091e-08 0 2.64496e-07 0 2.6092e-07)
(2.56455e-07 -1.78387e-08 0 2.66112e-07 0 2.61138e-07)
(2.53723e-07 -1.76606e-08 0 2.6775e-07 0 2.60845e-07)
(2.50907e-07 -1.71208e-08 0 2.72395e-07 0 2.61405e-07)
(2.37377e-07 -1.53094e-08 0 2.86106e-07 0 2.6208e-07)
(2.17886e-07 -1.35706e-08 0 3.25593e-07 0 2.70877e-07)
(1.97987e-07 -6.16382e-09 0 3.78686e-07 0 2.87353e-07)
(2.04727e-07 -4.70201e-08 0 4.01225e-07 0 3.02049e-07)
(2.61006e-07 -1.80461e-08 0 2.60922e-07 0 2.60977e-07)
(2.61022e-07 -1.80468e-08 0 2.60904e-07 0 2.60976e-07)
(2.61045e-07 -1.80477e-08 0 2.6088e-07 0 2.60976e-07)
(2.61077e-07 -1.8049e-08 0 2.60847e-07 0 2.60976e-07)
(2.61122e-07 -1.80507e-08 0 2.60801e-07 0 2.60975e-07)
(2.61182e-07 -1.80527e-08 0 2.6074e-07 0 2.60975e-07)
(2.61261e-07 -1.80551e-08 0 2.6066e-07 0 2.60975e-07)
(2.61362e-07 -1.80578e-08 0 2.60558e-07 0 2.60975e-07)
(2.61488e-07 -1.80607e-08 0 2.60431e-07 0 2.60975e-07)
(2.61637e-07 -1.80634e-08 0 2.6028e-07 0 2.60975e-07)
(2.61808e-07 -1.80655e-08 0 2.60107e-07 0 2.60975e-07)
(2.61993e-07 -1.80665e-08 0 2.59921e-07 0 2.60975e-07)
(2.62184e-07 -1.80659e-08 0 2.5973e-07 0 2.60975e-07)
(2.6236e-07 -1.80633e-08 0 2.59553e-07 0 2.60976e-07)
(2.62507e-07 -1.80584e-08 0 2.59405e-07 0 2.60976e-07)
(2.62603e-07 -1.80516e-08 0 2.59311e-07 0 2.60976e-07)
(2.62634e-07 -1.80433e-08 0 2.59275e-07 0 2.60975e-07)
(2.62593e-07 -1.8034e-08 0 2.59308e-07 0 2.60972e-07)
(2.62466e-07 -1.80246e-08 0 2.59427e-07 0 2.60968e-07)
(2.62266e-07 -1.80157e-08 0 2.59617e-07 0 2.60965e-07)
(2.6199e-07 -1.80079e-08 0 2.5988e-07 0 2.60959e-07)
(2.61656e-07 -1.80007e-08 0 2.60204e-07 0 2.60955e-07)
(2.61267e-07 -1.79945e-08 0 2.60576e-07 0 2.60949e-07)
(2.60827e-07 -1.79885e-08 0 2.61011e-07 0 2.60947e-07)
(2.60348e-07 -1.79834e-08 0 2.61475e-07 0 2.60943e-07)
(2.59833e-07 -1.79802e-08 0 2.62001e-07 0 2.60947e-07)
(2.59319e-07 -1.7981e-08 0 2.6252e-07 0 2.60949e-07)
(2.58816e-07 -1.79888e-08 0 2.63019e-07 0 2.60952e-07)
(2.58468e-07 -1.8004e-08 0 2.63419e-07 0 2.60966e-07)
(2.58155e-07 -1.8025e-08 0 2.63631e-07 0 2.60946e-07)
(2.58229e-07 -1.80498e-08 0 2.63685e-07 0 2.60974e-07)
(2.58283e-07 -1.80665e-08 0 2.6345e-07 0 2.60933e-07)
(2.5859e-07 -1.80638e-08 0 2.63181e-07 0 2.60926e-07)
(2.58756e-07 -1.80461e-08 0 2.63019e-07 0 2.60934e-07)
(2.58641e-07 -1.8005e-08 0 2.6297e-07 0 2.60865e-07)
(2.58342e-07 -1.79571e-08 0 2.63523e-07 0 2.60944e-07)
(2.57202e-07 -1.78972e-08 0 2.64198e-07 0 2.60797e-07)
(2.56342e-07 -1.78194e-08 0 2.65824e-07 0 2.61021e-07)
(2.53615e-07 -1.76246e-08 0 2.67477e-07 0 2.6073e-07)
(2.50848e-07 -1.70371e-08 0 2.72166e-07 0 2.61315e-07)
(2.37312e-07 -1.50515e-08 0 2.85916e-07 0 2.61991e-07)
(2.17735e-07 -1.30945e-08 0 3.25439e-07 0 2.70773e-07)
(1.97725e-07 -5.44114e-09 0 3.79531e-07 0 2.87546e-07)
(2.0494e-07 -4.79826e-08 0 4.00903e-07 0 3.02138e-07)
(2.6103e-07 -1.80463e-08 0 2.60976e-07 0 2.61001e-07)
(2.61047e-07 -1.8047e-08 0 2.6096e-07 0 2.61002e-07)
(2.61071e-07 -1.80481e-08 0 2.60938e-07 0 2.61002e-07)
(2.61104e-07 -1.80495e-08 0 2.60906e-07 0 2.61002e-07)
(2.61149e-07 -1.80513e-08 0 2.60862e-07 0 2.61003e-07)
(2.6121e-07 -1.80535e-08 0 2.60804e-07 0 2.61004e-07)