/*--------------------------------*- C++ -*----------------------------------*\
| =========                 |                                                 |
| \\      /  F ield         | OpenFOAM: The Open Source CFD Toolbox           |
|  \\    /   O peration     | Version:  v1912                                 |
|   \\  /    A nd           | Website:  www.openfoam.com                      |
|    \\/     M anipulation  |                                                 |
\*---------------------------------------------------------------------------*/
FoamFile
{
    version     2.0;
    format      ascii;
    class       volVectorField;
    location    "10";
    object      U;
}
// * * * * * * * * * * * * * * * * * * * * * * * * * * * * * * * * * * * * * //

dimensions      [0 1 -1 0 0 0 0];


internalField   nonuniform List<vector> 
14268
(
(-0.000562479 -3.709e-06 0)
(-0.000890324 -3.53117e-06 0)
(-0.00135841 -3.14241e-06 0)
(-0.00201367 -2.50845e-06 0)
(-0.00291239 -1.60457e-06 0)
(-0.00411812 -4.40779e-07 0)
(-0.00569735 1.08717e-06 0)
(-0.00771052 2.90972e-06 0)
(-0.0101998 4.75e-06 0)
(-0.0131681 6.49698e-06 0)
(-0.0165643 7.82252e-06 0)
(-0.0202682 8.2562e-06 0)
(-0.0240749 7.48686e-06 0)
(-0.0276962 5.10659e-06 0)
(-0.0308022 1.16902e-06 0)
(-0.0330511 -4.1518e-06 0)
(-0.034149 -1.02754e-05 0)
(-0.0339063 -1.59422e-05 0)
(-0.0322328 -2.44113e-05 0)
(-0.0291361 -3.23939e-05 0)
(-0.0247234 -3.96914e-05 0)
(-0.0190987 -4.60409e-05 0)
(-0.0123976 -5.28699e-05 0)
(-0.00468827 -5.87529e-05 0)
(0.00392073 -6.38185e-05 0)
(0.0132058 -6.74995e-05 0)
(0.022858 -6.73926e-05 0)
(0.0316846 -6.25046e-05 0)
(0.0395389 -5.20811e-05 0)
(0.0438611 -3.58035e-05 0)
(0.0459553 -1.59944e-05 0)
(0.0437072 -4.45739e-06 0)
(0.0407591 -3.40533e-06 0)
(0.0377077 -1.5764e-05 0)
(0.039166 -3.53951e-05 0)
(0.0441594 -5.91806e-05 0)
(0.0532922 -7.49253e-05 0)
(0.0656857 -7.92824e-05 0)
(0.074438 -7.0555e-05 0)
(0.0869423 -9.32294e-05 0)
(0.0987323 -0.000253019 0)
(0.175155 -0.000569508 0)
(0.283553 -0.000340621 0)
(0.379639 -0.00217029 0)
(-0.000584849 9.02477e-06 0)
(-0.00091269 1.12806e-05 0)
(-0.00138077 1.41935e-05 0)
(-0.00203603 1.79233e-05 0)
(-0.00293474 2.2622e-05 0)
(-0.00414045 2.84108e-05 0)
(-0.00571967 3.51661e-05 0)
(-0.00773283 4.2726e-05 0)
(-0.0102221 5.08216e-05 0)
(-0.0131904 5.85833e-05 0)
(-0.0165866 6.48849e-05 0)
(-0.0202905 6.85746e-05 0)
(-0.0240973 6.83501e-05 0)
(-0.0277186 6.33232e-05 0)
(-0.0308246 5.30788e-05 0)
(-0.0330735 3.749e-05 0)
(-0.0341715 1.81716e-05 0)
(-0.0339288 -4.98444e-06 0)
(-0.0322552 -2.66089e-05 0)
(-0.0291585 -4.72885e-05 0)
(-0.0247458 -6.61571e-05 0)
(-0.0191211 -8.33418e-05 0)
(-0.01242 -9.80176e-05 0)
(-0.00471053 -0.000112004 0)
(0.00389847 -0.00012426 0)
(0.0131836 -0.000131483 0)
(0.022836 -0.000128209 0)
(0.0316628 -0.000111166 0)
(0.0395173 -7.81539e-05 0)
(0.0438395 -2.73758e-05 0)
(0.0459337 2.02134e-05 0)
(0.0436854 5.83352e-05 0)
(0.0407371 6.59074e-05 0)
(0.0376854 2.87416e-05 0)
(0.0391438 -3.42569e-05 0)
(0.044137 -9.90171e-05 0)
(0.0532703 -0.000141863 0)
(0.0656639 -0.000154819 0)
(0.0744164 -0.000126153 0)
(0.0869194 -0.000171325 0)
(0.098708 -0.000634463 0)
(0.175135 -0.00144119 0)
(0.283716 -0.00170508 0)
(0.380279 9.66099e-06 0)
(-0.000595787 2.81851e-06 0)
(-0.00092362 5.65703e-06 0)
(-0.0013917 9.60114e-06 0)
(-0.00204694 1.48785e-05 0)
(-0.00294564 2.16887e-05 0)
(-0.00415135 3.0129e-05 0)
(-0.00573057 4.0278e-05 0)
(-0.00774374 5.18259e-05 0)
(-0.0102331 6.39379e-05 0)
(-0.0132014 7.55049e-05 0)
(-0.0165977 8.47217e-05 0)
(-0.0203016 8.94693e-05 0)
(-0.0241084 8.77916e-05 0)
(-0.0277299 7.79445e-05 0)
(-0.030836 5.95682e-05 0)
(-0.033085 3.27786e-05 0)
(-0.034183 1.01935e-08 0)
(-0.0339403 -3.49233e-05 0)
(-0.0322667 -7.23877e-05 0)
(-0.02917 -0.000108207 0)
(-0.0247571 -0.000140999 0)
(-0.0191323 -0.000170339 0)
(-0.0124311 -0.000198137 0)
(-0.00472163 -0.000223422 0)
(0.00388746 -0.000245428 0)
(0.0131728 -0.000259575 0)
(0.0228254 -0.000255899 0)
(0.0316525 -0.000229184 0)
(0.0395073 -0.00017585 0)
(0.0438296 -9.37722e-05 0)
(0.0459238 -1.009e-05 0)
(0.0436751 5.27594e-05 0)
(0.0407264 6.31368e-05 0)
(0.037674 4.2538e-08 0)
(0.0391323 -0.000101879 0)
(0.0441257 -0.000212282 0)
(0.0532595 -0.000285317 0)
(0.0656537 -0.000305937 0)
(0.0744063 -0.000259739 0)
(0.0869068 -0.000348983 0)
(0.0986912 -0.00112449 0)
(0.175122 -0.00254041 0)
(0.283796 -0.00242716 0)
(0.380507 -0.00373828 0)
(-0.000597106 1.39494e-05 0)
(-0.00092493 1.85801e-05 0)
(-0.00139299 2.47316e-05 0)
(-0.00204822 3.27574e-05 0)
(-0.00294691 4.29859e-05 0)
(-0.00415261 5.56485e-05 0)
(-0.00573181 7.06015e-05 0)
(-0.00774497 8.74504e-05 0)
(-0.0102343 0.000105378 0)
(-0.0132026 0.000122535 0)
(-0.016599 0.000136341 0)
(-0.020303 0.000144024 0)
(-0.0241099 0.000142673 0)
(-0.0277315 0.000130113 0)
(-0.0308377 0.000105592 0)
(-0.0330868 6.90627e-05 0)
(-0.0341848 2.44849e-05 0)
(-0.0339422 -2.65064e-05 0)
(-0.0322686 -7.82438e-05 0)
(-0.0291718 -0.000127674 0)
(-0.024759 -0.000172834 0)
(-0.0191341 -0.000213644 0)
(-0.0124329 -0.000250091 0)
(-0.00472337 -0.000284168 0)
(0.00388581 -0.000313952 0)
(0.0131713 -0.000332257 0)
(0.0228242 -0.00032582 0)
(0.0316516 -0.000287075 0)
(0.0395067 -0.000210829 0)
(0.0438293 -9.31674e-05 0)
(0.0459234 2.30926e-05 0)
(0.0436742 0.00011126 0)
(0.0407247 0.000127173 0)
(0.0376717 4.01366e-05 0)
(0.0391296 -0.000104489 0)
(0.0441231 -0.00025771 0)
(0.0532576 -0.000359228 0)
(0.0656526 -0.000389848 0)
(0.0744045 -0.000324705 0)
(0.0869006 -0.000438118 0)
(0.0986787 -0.00152056 0)
(0.175112 -0.00347727 0)
(0.283943 -0.00372746 0)
(0.381122 -0.00241438 0)
(-0.00059715 9.19315e-06 0)
(-0.000924955 1.46416e-05 0)
(-0.001393 2.20816e-05 0)
(-0.0020482 3.19352e-05 0)
(-0.00294686 4.45791e-05 0)
(-0.00415253 6.02221e-05 0)
(-0.00573171 7.89213e-05 0)
(-0.00774485 0.000100134 0)
(-0.0102342 0.000122476 0)
(-0.0132025 0.00014385 0)
(-0.0165989 0.000160984 0)
(-0.020303 0.000170121 0)
(-0.0241101 0.00016767 0)
(-0.0277318 0.000150564 0)
(-0.0308382 0.000118028 0)
(-0.0330874 7.01468e-05 0)
(-0.0341856 1.12087e-05 0)
(-0.0339429 -5.39278e-05 0)
(-0.0322693 -0.00012103 0)
(-0.0291725 -0.000185118 0)
(-0.0247596 -0.000243695 0)
(-0.0191347 -0.00029631 0)
(-0.0124334 -0.000345017 0)
(-0.0047238 -0.000389728 0)
(0.00388548 -0.000428628 0)
(0.0131712 -0.00045329 0)
(0.0228244 -0.000445903 0)
(0.0316522 -0.000397037 0)
(0.0395078 -0.00030019 0)
(0.0438306 -0.000151258 0)
(0.0459244 -3.06881e-06 0)
(0.0436747 0.000109788 0)
(0.0407242 0.000129295 0)
(0.0376702 1.64457e-05 0)
(0.0391278 -0.000168844 0)
(0.0441216 -0.000367162 0)
(0.0532567 -0.000498412 0)
(0.0656527 -0.000535606 0)
(0.0744041 -0.000450968 0)
(0.0868943 -0.000606517 0)
(0.0986626 -0.00200834 0)
(0.1751 -0.00451764 0)
(0.284054 -0.00454056 0)
(0.38146 -0.00530429 0)
(-0.000597131 1.90001e-05 0)
(-0.000924919 2.6043e-05 0)
(-0.00139294 3.5476e-05 0)
(-0.00204811 4.7846e-05 0)
(-0.00294674 6.36559e-05 0)
(-0.00415237 8.32452e-05 0)
(-0.00573152 0.000106448 0)
(-0.00774465 0.000132632 0)
(-0.010234 0.000160426 0)
(-0.0132024 0.000186995 0)
(-0.0165988 0.000208303 0)
(-0.0203031 0.000219952 0)
(-0.0241103 0.000217414 0)
(-0.0277321 0.000197212 0)
(-0.0308387 0.000158243 0)
(-0.033088 0.000100498 0)
(-0.0341862 3.02212e-05 0)
(-0.0339437 -4.83754e-05 0)
(-0.0322701 -0.00012988 0)
(-0.0291733 -0.000207731 0)
(-0.0247602 -0.000278891 0)
(-0.0191353 -0.000343013 0)
(-0.012434 -0.000401231 0)
(-0.00472436 -0.000455275 0)
(0.00388503 -0.000502446 0)
(0.013171 -0.000531814 0)
(0.0228246 -0.000522221 0)
(0.031653 -0.000461851 0)
(0.0395092 -0.000342638 0)
(0.0438323 -0.000158774 0)
(0.0459259 2.50466e-05 0)
(0.0436755 0.000163805 0)
(0.0407236 0.00018842 0)
(0.0376685 5.12731e-05 0)
(0.0391256 -0.000175144 0)
(0.0441196 -0.00041626 0)
(0.0532557 -0.000576025 0)
(0.0656529 -0.000623742 0)
(0.0744033 -0.000521697 0)
(0.0868859 -0.000703727 0)
(0.098643 -0.00240497 0)
(0.175083 -0.00549567 0)
(0.284187 -0.00576019 0)
(0.382097 -0.00478692 0)
(-0.000597032 1.54788e-05 0)
(-0.000924792 2.35123e-05 0)
(-0.00139278 3.44184e-05 0)
(-0.00204792 4.88143e-05 0)
(-0.0029465 6.72547e-05 0)
(-0.00415209 9.00614e-05 0)
(-0.0057312 0.00011727 0)
(-0.0077443 0.000148106 0)
(-0.0102336 0.000180647 0)
(-0.013202 0.000211803 0)
(-0.0165986 0.000236831 0)
(-0.0203029 0.000250344 0)
(-0.0241104 0.000247118 0)
(-0.0277324 0.000222778 0)
(-0.0308392 0.000176158 0)
(-0.0330887 0.000107352 0)
(-0.0341871 2.26223e-05 0)
(-0.0339446 -7.24457e-05 0)
(-0.032271 -0.000169257 0)
(-0.029174 -0.000261762 0)
(-0.024761 -0.00034631 0)
(-0.0191359 -0.000422423 0)
(-0.0124346 -0.000492065 0)
(-0.00472486 -0.000556352 0)
(0.00388468 -0.000612382 0)
(0.013171 -0.000647601 0)
(0.0228251 -0.000636583 0)
(0.0316541 -0.000565684 0)
(0.039511 -0.000425375 0)
(0.0438344 -0.000209376 0)
(0.0459277 4.64927e-06 0)
(0.0436765 0.000167534 0)
(0.040723 0.000195947 0)
(0.0376664 3.30839e-05 0)
(0.039123 -0.000235051 0)
(0.0441174 -0.000521299 0)
(0.0532546 -0.00071076 0)
(0.0656532 -0.000764971 0)
(0.0744028 -0.000642602 0)
(0.0868764 -0.000862949 0)
(0.0986188 -0.00288511 0)
(0.175064 -0.00651839 0)
(0.284309 -0.00665279 0)
(0.382597 -0.00699853 0)
(-0.000596988 2.41825e-05 0)
(-0.000924723 3.36699e-05 0)
(-0.00139268 4.64221e-05 0)
(-0.00204777 6.31781e-05 0)
(-0.00294631 8.46149e-05 0)
(-0.00415186 0.000111178 0)
(-0.00573092 0.000142684 0)
(-0.00774399 0.000178261 0)
(-0.0102333 0.000215977 0)
(-0.0132018 0.000252017 0)
(-0.0165984 0.000280892 0)
(-0.0203029 0.000296567 0)
(-0.0241106 0.000292891 0)
(-0.0277329 0.000265067 0)
(-0.0308399 0.000211624 0)
(-0.0330896 0.000132538 0)
(-0.0341881 3.61753e-05 0)
(-0.0339457 -7.05651e-05 0)
(-0.0322721 -0.000181802 0)
(-0.0291751 -0.000288009 0)
(-0.0247619 -0.000385073 0)
(-0.0191368 -0.000472378 0)
(-0.0124354 -0.000552308 0)
(-0.00472561 -0.000626187 0)
(0.00388408 -0.000690558 0)
(0.0131708 -0.000730869 0)
(0.0228255 -0.000717994 0)
(0.0316552 -0.000635835 0)
(0.0395129 -0.000473515 0)
(0.0438367 -0.000223421 0)
(0.0459298 2.66965e-05 0)
(0.0436775 0.000215951 0)
(0.0407222 0.000249391 0)
(0.037664 6.22967e-05 0)
(0.0391198 -0.000246291 0)
(0.0441147 -0.000575339 0)
(0.0532532 -0.000793355 0)
(0.0656535 -0.000857637 0)
(0.0744017 -0.000717993 0)
(0.0868649 -0.00096929 0)
(0.0985913 -0.00329273 0)
(0.175042 -0.00750859 0)
(0.284438 -0.0078204 0)
(0.383277 -0.00706132 0)
(-0.000596862 2.16254e-05 0)
(-0.000924562 3.22144e-05 0)
(-0.00139248 4.65543e-05 0)
(-0.00204752 6.54583e-05 0)
(-0.002946 8.96596e-05 0)
(-0.00415149 0.000119593 0)
(-0.00573051 0.000155267 0)
(-0.00774353 0.000195676 0)
(-0.0102328 0.000238356 0)
(-0.0132014 0.000279217 0)
(-0.0165981 0.000312054 0)
(-0.0203028 0.000329855 0)
(-0.0241107 0.000325771 0)
(-0.0277332 0.000294131 0)
(-0.0308405 0.000233386 0)
(-0.0330905 0.000143684 0)
(-0.0341892 3.34513e-05 0)
(-0.0339468 -9.07941e-05 0)
(-0.0322732 -0.00021731 0)
(-0.0291761 -0.000338233 0)
(-0.0247629 -0.000448766 0)
(-0.0191377 -0.000548405 0)
(-0.0124362 -0.000639063 0)
(-0.00472628 -0.000723031 0)
(0.0038836 -0.000796312 0)
(0.0131707 -0.000842235 0)
(0.0228261 -0.000827745 0)
(0.0316566 -0.000734974 0)
(0.0395152 -0.000551353 0)
(0.0438396 -0.000268432 0)
(0.0459323 1.24153e-05 0)
(0.0436788 0.000225572 0)
(0.0407214 0.000262875 0)
(0.0376613 4.99048e-05 0)
(0.0391164 -0.000300922 0)
(0.0441118 -0.000675079 0)
(0.0532516 -0.000922795 0)
(0.0656538 -0.000994274 0)
(0.0744009 -0.000834109 0)
(0.0868521 -0.00111913 0)
(0.0985591 -0.00376141 0)
(0.175016 -0.00852316 0)
(0.284565 -0.00876396 0)
(0.383867 -0.00883871 0)
(-0.000596799 2.94968e-05 0)
(-0.000924465 4.14506e-05 0)
(-0.00139233 5.75451e-05 0)
(-0.00204733 7.87119e-05 0)
(-0.00294575 0.000105802 0)
(-0.00415118 0.000139369 0)
(-0.00573014 0.000179215 0)
(-0.00774314 0.000224233 0)
(-0.0102325 0.00027193 0)
(-0.013201 0.000317522 0)
(-0.0165979 0.000354052 0)
(-0.0203028 0.000373846 0)
(-0.024111 0.000369128 0)
(-0.0277338 0.000333772 0)
(-0.0308414 0.000265941 0)
(-0.0330917 0.000165576 0)
(-0.0341905 4.30027e-05 0)
(-0.0339483 -9.27478e-05 0)
(-0.0322746 -0.000233747 0)
(-0.0291775 -0.000368343 0)
(-0.0247641 -0.000491336 0)
(-0.0191388 -0.000601858 0)
(-0.0124372 -0.00070341 0)
(-0.00472724 -0.00079706 0)
(0.00388283 -0.000878585 0)
(0.0131704 -0.000929763 0)
(0.0228266 -0.000913501 0)
(0.031658 -0.000809482 0)
(0.0395177 -0.000603923 0)
(0.0438426 -0.000287372 0)
(0.0459349 2.86453e-05 0)
(0.0436801 0.000268146 0)
(0.0407203 0.000310416 0)
(0.0376583 7.33173e-05 0)
(0.0391123 -0.000317625 0)
(0.0441083 -0.000734709 0)
(0.0532499 -0.00101104 0)
(0.0656543 -0.00109179 0)
(0.0743997 -0.000914097 0)
(0.0868374 -0.00123318 0)
(0.0985235 -0.00417981 0)
(0.174986 -0.00951776 0)
(0.284693 -0.0098997 0)
(0.384536 -0.00925071 0)
(-0.000596649 2.76528e-05 0)
(-0.000924271 4.07817e-05 0)
(-0.00139209 5.85381e-05 0)
(-0.00204702 8.19302e-05 0)
(-0.00294537 0.000111869 0)
(-0.00415073 0.000148904 0)
(-0.00572963 0.00019301 0)
(-0.00774257 0.000242952 0)
(-0.0102319 0.000295728 0)
(-0.0132005 0.000346244 0)
(-0.0165975 0.000386833 0)
(-0.0203027 0.000408862 0)
(-0.0241111 0.000403847 0)
(-0.0277343 0.000364826 0)
(-0.0308423 0.000289854 0)
(-0.0330928 0.000179127 0)
(-0.0341919 4.33084e-05 0)
(-0.0339497 -0.000109329 0)
(-0.0322761 -0.00026552 0)
(-0.0291788 -0.000414812 0)
(-0.0247653 -0.000551285 0)
(-0.0191399 -0.000674368 0)
(-0.0124382 -0.000786146 0)
(-0.0047281 -0.000889835 0)
(0.00388223 -0.000980378 0)
(0.0131704 -0.00103707 0)
(0.0228274 -0.00101918 0)
(0.0316598 -0.000904558 0)
(0.0395207 -0.000677683 0)
(0.0438461 -0.000327983 0)
(0.045938 1.9781e-05 0)
(0.0436817 0.000283473 0)
(0.0407194 0.000329711 0)
(0.0376549 6.67169e-05 0)
(0.039108 -0.000366739 0)
(0.0441047 -0.000828777 0)
(0.0532479 -0.00113476 0)
(0.0656548 -0.00122335 0)
(0.0743986 -0.00102539 0)
(0.0868213 -0.00137585 0)
(0.0984834 -0.00463805 0)
(0.174954 -0.0105385 0)
(0.284823 -0.0108893 0)
(0.385159 -0.0107978 0)
(-0.000596564 3.49086e-05 0)
(-0.000924145 4.93396e-05 0)
(-0.00139191 6.87903e-05 0)
(-0.00204677 9.43858e-05 0)
(-0.00294506 0.000127151 0)
(-0.00415034 0.000167744 0)
(-0.00572916 0.000215958 0)
(-0.00774207 0.000270449 0)
(-0.0102314 0.000328157 0)
(-0.0132001 0.000383332 0)
(-0.0165973 0.000427555 0)
(-0.0203026 0.000451508 0)
(-0.0241114 0.000445796 0)
(-0.027735 0.000402965 0)
(-0.0308433 0.000320826 0)
(-0.0330943 0.000199299 0)
(-0.0341935 5.07145e-05 0)
(-0.0339515 -0.000114563 0)
(-0.0322778 -0.000285361 0)
(-0.0291805 -0.000448412 0)
(-0.0247668 -0.000597391 0)
(-0.0191412 -0.000731251 0)
(-0.0124395 -0.000854299 0)
(-0.00472926 -0.000967711 0)
(0.00388131 -0.00106643 0)
(0.01317 -0.00112844 0)
(0.022828 -0.00110878 0)
(0.0316616 -0.000982904 0)
(0.0395237 -0.000734092 0)
(0.0438498 -0.000350965 0)
(0.0459412 3.12023e-05 0)
(0.0436833 0.000320798 0)
(0.0407181 0.000371891 0)
(0.0376511 8.46182e-05 0)
(0.0391031 -0.000388905 0)
(0.0441004 -0.000894134 0)
(0.0532458 -0.00122877 0)
(0.0656553 -0.00132597 0)
(0.0743972 -0.00110976 0)
(0.0868034 -0.00149505 0)
(0.0984397 -0.00506554 0)
(0.174918 -0.0115419 0)
(0.284954 -0.011993 0)
(0.385823 -0.0113865 0)
(-0.000596391 3.3596e-05 0)
(-0.00092392 4.92545e-05 0)
(-0.00139162 7.04128e-05 0)
(-0.00204642 9.82745e-05 0)
(-0.00294461 0.000133931 0)
(-0.00414981 0.00017805 0)
(-0.00572856 0.000230571 0)
(-0.00774141 0.000290027 0)
(-0.0102307 0.000352884 0)
(-0.0131995 0.000413041 0)
(-0.0165968 0.000461364 0)
(-0.0203025 0.000487601 0)
(-0.0241116 0.00048163 0)
(-0.0277356 0.000435196 0)
(-0.0308444 0.000345948 0)
(-0.0330956 0.000214109 0)
(-0.0341951 5.2512e-05 0)
(-0.0339532 -0.000128393 0)
(-0.0322795 -0.000314238 0)
(-0.029182 -0.000491835 0)
(-0.0247682 -0.00065418 0)
(-0.0191425 -0.000800551 0)
(-0.0124406 -0.00093361 0)
(-0.00473029 -0.00105701 0)
(0.00388056 -0.00116476 0)
(0.0131699 -0.00123227 0)
(0.0228289 -0.001211 0)
(0.0316637 -0.00107452 0)
(0.0395272 -0.000804365 0)
(0.0438541 -0.000387904 0)
(0.0459449 2.66298e-05 0)
(0.0436853 0.000340978 0)
(0.0407169 0.000396202 0)
(0.0376471 8.32814e-05 0)
(0.0390979 -0.000432689 0)
(0.044096 -0.000982606 0)
(0.0532434 -0.00134701 0)
(0.0656558 -0.00145242 0)
(0.0743958 -0.00121567 0)
(0.0867841 -0.00163252 0)
(0.0983916 -0.00551694 0)
(0.174878 -0.0125433 0)
(0.285091 -0.0130245 0)
(0.386495 -0.01286 0)
(-0.000596285 4.0395e-05 0)
(-0.000923764 5.73144e-05 0)
(-0.0013914 8.01378e-05 0)
(-0.00204612 0.000110181 0)
(-0.00294424 0.000148641 0)
(-0.00414934 0.000196276 0)
(-0.00572801 0.00025288 0)
(-0.00774081 0.000316873 0)
(-0.0102301 0.000384622 0)
(-0.013199 0.000449412 0)
(-0.0165965 0.000501362 0)
(-0.0203024 0.000529506 0)
(-0.024112 0.000522831 0)
(-0.0277364 0.000472554 0)
(-0.0308456 0.000376129 0)
(-0.0330973 0.000233484 0)
(-0.0341971 5.89867e-05 0)
(-0.0339553 -0.000135701 0)
(-0.0322816 -0.00033632 0)
(-0.029184 -0.000527889 0)
(-0.02477 -0.000702931 0)
(-0.0191441 -0.000860311 0)
(-0.0124421 -0.00100465 0)
(-0.00473165 -0.00113786 0)
(0.00387949 -0.00125389 0)
(0.0131695 -0.00132674 0)
(0.0228296 -0.00130369 0)
(0.0316658 -0.00115599 0)
(0.0395308 -0.000863943 0)
(0.0438585 -0.000414198 0)
(0.0459488 3.4324e-05 0)
(0.0436871 0.000374018 0)
(0.0407154 0.000433938 0)
(0.0376426 9.63787e-05 0)
(0.039092 -0.000459997 0)
(0.044091 -0.00105347 0)
(0.0532409 -0.00144652 0)
(0.0656563 -0.00156041 0)
(0.0743942 -0.00130618 0)
(0.086763 -0.00175542 0)
(0.0983398 -0.0059492 0)
(0.174833 -0.013545 0)
(0.285236 -0.0141022 0)
(0.387202 -0.0134377 0)
(-0.000595988 3.89976e-05 0)
(-0.000923377 5.77974e-05 0)
(-0.00139091 8.3196e-05 0)
(-0.0020455 0.000116638 0)
(-0.00294346 0.000159436 0)
(-0.00414841 0.000212389 0)
(-0.00572696 0.000275438 0)
(-0.00773965 0.000346818 0)
(-0.0102289 0.000422275 0)
(-0.0131979 0.000494497 0)
(-0.0165957 0.000552531 0)
(-0.0203021 0.000584061 0)
(-0.0241123 0.000576947 0)
(-0.0277374 0.000521265 0)
(-0.0308474 0.000414183 0)
(-0.0330997 0.000256022 0)
(-0.0341999 6.21368e-05 0)
(-0.0339583 -0.000154519 0)
(-0.0322846 -0.000377471 0)
(-0.0291868 -0.000590442 0)
(-0.0247725 -0.000785105 0)
(-0.0191464 -0.000960603 0)
(-0.0124441 -0.00112026 0)
(-0.00473346 -0.00126829 0)
(0.00387819 -0.00139752 0)
(0.0131694 -0.0014786 0)
(0.0228312 -0.00145312 0)
(0.0316696 -0.00128938 0)
(0.039537 -0.000965146 0)
(0.0438659 -0.000465156 0)
(0.0459553 3.26781e-05 0)
(0.0436906 0.000410365 0)
(0.0407134 0.000476769 0)
(0.0376356 0.000101231 0)
(0.039083 -0.000518301 0)
(0.0440833 -0.00117838 0)
(0.0532368 -0.00161577 0)
(0.0656574 -0.00174224 0)
(0.0743919 -0.00145654 0)
(0.0867291 -0.00195436 0)
(0.0982557 -0.00661592 0)
(0.174759 -0.0151137 0)
(0.285482 -0.0156635 0)
(0.388399 -0.0158341 0)
(-0.000595714 5.20843e-05 0)
(-0.00092298 7.33798e-05 0)
(-0.00139035 0.00010211 0)
(-0.00204475 0.000139932 0)
(-0.00294252 0.000188352 0)
(-0.00414725 0.000248326 0)
(-0.00572558 0.000319589 0)
(-0.00773816 0.000400158 0)
(-0.0102275 0.000485468 0)
(-0.0131966 0.000567059 0)
(-0.0165949 0.000632476 0)
(-0.020302 0.00066791 0)
(-0.0241132 0.000659485 0)
(-0.0277394 0.000596146 0)
(-0.0308505 0.000474701 0)
(-0.0331038 0.000294991 0)
(-0.0342047 7.51924e-05 0)
(-0.0339634 -0.000169825 0)
(-0.0322896 -0.000422524 0)
(-0.0291915 -0.000663878 0)
(-0.0247768 -0.000884434 0)
(-0.0191503 -0.00108286 0)
(-0.0124478 -0.00126454 0)
(-0.00473681 -0.00143241 0)
(0.00387555 -0.00157876 0)
(0.0131684 -0.0016707 0)
(0.022833 -0.00164184 0)
(0.0316746 -0.00145602 0)
(0.0395458 -0.00108827 0)
(0.0438766 -0.000521766 0)
(0.0459647 4.30124e-05 0)
(0.0436952 0.000470759 0)
(0.0407097 0.000546333 0)
(0.0376244 0.000121037 0)
(0.0390686 -0.000579866 0)
(0.0440709 -0.0013277 0)
(0.0532304 -0.00182296 0)
(0.0656588 -0.00196562 0)
(0.074388 -0.00164115 0)
(0.0866771 -0.00220465 0)
(0.0981284 -0.00749194 0)
(0.174663 -0.0171001 0)
(0.285827 -0.0178826 0)
(0.390187 -0.0170122 0)
(-0.000595228 5.05509e-05 0)
(-0.00092234 7.43695e-05 0)
(-0.00138953 0.000106534 0)
(-0.00204371 0.000148882 0)
(-0.00294121 0.000203087 0)
(-0.00414569 0.000270182 0)
(-0.00572381 0.000350034 0)
(-0.0077362 0.000440416 0)
(-0.0102255 0.000536016 0)
(-0.0131948 0.000627515 0)
(-0.0165936 0.000701024 0)
(-0.0203016 0.000740967 0)
(-0.0241138 0.00073193 0)
(-0.0277413 0.000661392 0)
(-0.0308537 0.000525735 0)
(-0.033108 0.000325266 0)
(-0.0342095 7.96295e-05 0)
(-0.0339686 -0.000195879 0)
(-0.0322948 -0.000478304 0)
(-0.0291963 -0.00074805 0)
(-0.0247811 -0.000994518 0)
(-0.0191542 -0.00121637 0)
(-0.0124514 -0.00141894 0)
(-0.00473997 -0.00160641 0)
(0.00387326 -0.00176998 0)
(0.0131681 -0.0018727 0)
(0.0228357 -0.00184041 0)
(0.031681 -0.00163279 0)
(0.0395564 -0.00122179 0)
(0.0438893 -0.000588285 0)
(0.0459758 4.50854e-05 0)
(0.043701 0.000523629 0)
(0.0407061 0.000608042 0)
(0.0376125 0.00013202 0)
(0.039053 -0.000654047 0)
(0.0440577 -0.00149037 0)
(0.0532235 -0.00204432 0)
(0.0656606 -0.00220343 0)
(0.0743841 -0.00183944 0)
(0.0866191 -0.0024631 0)
(0.0979789 -0.00837362 0)
(0.174548 -0.019076 0)
(0.286103 -0.0199853 0)
(0.391879 -0.0199673 0)
(-0.000594864 6.32764e-05 0)
(-0.000921821 8.95656e-05 0)
(-0.0013888 0.000125048 0)
(-0.00204275 0.000171766 0)
(-0.00294001 0.000231572 0)
(-0.00414421 0.000305631 0)
(-0.00572206 0.000393669 0)
(-0.00773432 0.000493236 0)
(-0.0102236 0.000598624 0)
(-0.0131932 0.000699448 0)
(-0.0165926 0.000780324 0)
(-0.0203014 0.000824147 0)
(-0.0241148 0.00081381 0)
(-0.0277437 0.000735609 0)
(-0.0308575 0.000585662 0)
(-0.0331131 0.000363898 0)
(-0.0342155 9.29494e-05 0)
(-0.033975 -0.000209203 0)
(-0.032301 -0.00052145 0)
(-0.0292022 -0.0008197 0)
(-0.0247865 -0.00109225 0)
(-0.0191591 -0.0013376 0)
(-0.0124559 -0.00156172 0)
(-0.0047441 -0.00176912 0)
(0.00387002 -0.0019501 0)
(0.013167 -0.00206384 0)
(0.022838 -0.00202836 0)
(0.0316875 -0.00179903 0)
(0.0395674 -0.0013448 0)
(0.0439029 -0.000644953 0)
(0.0459876 5.07044e-05 0)
(0.0437069 0.000579932 0)
(0.0407015 0.000673562 0)
(0.0375986 0.0001481 0)
(0.039035 -0.000716342 0)
(0.0440423 -0.00164136 0)
(0.0532156 -0.00225461 0)
(0.0656623 -0.00243166 0)
(0.0743795 -0.00202386 0)
(0.0865543 -0.00272006 0)
(0.0978159 -0.00925353 0)
(0.174437 -0.0212636 0)
(0.28624 -0.022416 0)
(0.393281 -0.0218366 0)
(-0.000594289 6.21011e-05 0)
(-0.00092106 9.0938e-05 0)
(-0.00138783 0.000129869 0)
(-0.0020415 0.000181124 0)
(-0.00293843 0.000246739 0)
(-0.00414233 0.000327982 0)
(-0.00571991 0.000424644 0)
(-0.00773195 0.000534024 0)
(-0.0102212 0.000649766 0)
(-0.0131911 0.000760519 0)
(-0.016591 0.000849427 0)
(-0.0203008 0.000897649 0)
(-0.0241156 0.000886454 0)
(-0.027746 0.000800723 0)
(-0.0308613 0.000636007 0)
(-0.0331182 0.000392494 0)
(-0.0342214 9.43017e-05 0)
(-0.0339813 -0.000237787 0)
(-0.0323074 -0.000579695 0)
(-0.0292081 -0.000906171 0)
(-0.0247919 -0.00120443 0)
(-0.0191639 -0.00147269 0)
(-0.0124603 -0.00171813 0)
(-0.00474801 -0.00194495 0)
(0.0038672 -0.00214269 0)
(0.0131665 -0.00226698 0)
(0.0228412 -0.00222787 0)
(0.0316953 -0.00197624 0)
(0.0395802 -0.00147751 0)
(0.0439183 -0.000707954 0)
(0.0460011 5.82631e-05 0)
(0.043714 0.000636895 0)
(0.0406971 0.000739181 0)
(0.0375839 0.000160487 0)
(0.0390159 -0.000793986 0)
(0.044026 -0.00180669 0)
(0.0532071 -0.00247678 0)
(0.0656644 -0.0026659 0)
(0.0743744 -0.00221764 0)
(0.0864823 -0.00294513 0)
(0.0976454 -0.0101216 0)
(0.174396 -0.0230346 0)
(0.28628 -0.0241252 0)
(0.394304 -0.0242947 0)
(-0.000593834 7.44731e-05 0)
(-0.000920418 0.000105762 0)
(-0.00138694 0.000148017 0)
(-0.00204033 0.000203676 0)
(-0.00293697 0.000274948 0)
(-0.00414053 0.000363214 0)
(-0.0057178 0.00046823 0)
(-0.00772967 0.000587089 0)
(-0.0102189 0.000712908 0)
(-0.0131891 0.000833423 0)
(-0.0165898 0.000930332 0)
(-0.0203007 0.000983197 0)
(-0.0241168 0.000971672 0)
(-0.0277489 0.000879327 0)
(-0.0308659 0.000701491 0)
(-0.0331243 0.000438047 0)
(-0.0342286 0.000114875 0)
(-0.0339889 -0.000248539 0)
(-0.0323149 -0.000620472 0)
(-0.0292152 -0.000975972 0)
(-0.0247983 -0.00130109 0)
(-0.0191698 -0.00159416 0)
(-0.0124657 -0.00186205 0)
(-0.00475291 -0.0021103 0)
(0.00386338 -0.00232683 0)
(0.0131652 -0.00246243 0)
(0.022844 -0.00242073 0)
(0.031703 -0.00215014 0)
(0.0395937 -0.00161201 0)
(0.0439348 -0.000780539 0)
(0.0460154 6.14918e-05 0)
(0.043721 0.000693491 0)
(0.0406916 0.000807092 0)
(0.037567 0.000183591 0)
(0.0389943 -0.000849876 0)
(0.0440076 -0.00195266 0)
(0.0531976 -0.00268615 0)
(0.0656659 -0.00288179 0)
(0.0743697 -0.002418 0)
(0.0863998 -0.0032568 0)
(0.0974859 -0.0110652 0)
(0.17432 -0.0254403 0)
(0.286091 -0.026866 0)
(0.394849 -0.0267383 0)
(-0.000593172 7.34477e-05 0)
(-0.000919536 0.000107174 0)
(-0.0013858 0.000152679 0)
(-0.00203887 0.000212574 0)
(-0.00293513 0.000289235 0)
(-0.00413832 0.00038415 0)
(-0.00571527 0.00049699 0)
(-0.00772687 0.000624601 0)
(-0.0102161 0.000759619 0)
(-0.0131865 0.000888707 0)
(-0.0165879 0.000992112 0)
(-0.0203 0.00104784 0)
(-0.0241177 0.00103398 0)
(-0.0277515 0.00093289 0)
(-0.0308704 0.000739463 0)
(-0.0331303 0.000454001 0)
(-0.0342357 0.000106534 0)
(-0.0339966 -0.000278219 0)
(-0.0323225 -0.000678435 0)
(-0.0292222 -0.00105984 0)
(-0.0248047 -0.00140773 0)
(-0.0191755 -0.0017203 0)
(-0.012471 -0.00200581 0)
(-0.00475763 -0.00226984 0)
(0.00385987 -0.00250047 0)
(0.0131644 -0.00264559 0)
(0.0228476 -0.00259837 0)
(0.0317119 -0.00230058 0)
(0.0396085 -0.00171402 0)
(0.0439529 -0.00081385 0)
(0.0460315 6.5482e-05 0)
(0.0437294 0.000742662 0)
(0.0406865 0.000859132 0)
(0.0375497 0.00017972 0)
(0.0389718 -0.000934203 0)
(0.0439879 -0.00211834 0)
(0.0531882 -0.00289675 0)
(0.0656675 -0.00311947 0)
(0.0743669 -0.0025628 0)
(0.0863283 -0.00339571 0)
(0.0974768 -0.0117704 0)
(0.17433 -0.0273481 0)
(0.285636 -0.0287308 0)
(0.395213 -0.028801 0)
(-0.000589223 0.000168096 0)
(-0.000913996 0.000223031 0)
(-0.00137817 0.000297612 0)
(-0.00202886 0.000396194 0)
(-0.00292259 0.00052267 0)
(-0.00412302 0.000679504 0)
(-0.00569726 0.000867023 0)
(-0.00770742 0.00108021 0)
(-0.0101969 0.00130647 0)
(-0.0131698 0.001525 0)
(-0.016577 0.00170386 0)
(-0.0202984 0.0018067 0)
(-0.0241285 0.00179825 0)
(-0.0277765 0.00165013 0)
(-0.0309096 0.00135514 0)
(-0.033182 0.000902067 0)
(-0.0342951 0.000294682 0)
(-0.0340596 -0.000378365 0)
(-0.0323853 -0.00104037 0)
(-0.0292809 -0.00167973 0)
(-0.0248579 -0.00226989 0)
(-0.019224 -0.00280527 0)
(-0.0125157 -0.00329689 0)
(-0.0047981 -0.00375487 0)
(0.00382927 -0.00415942 0)
(0.0131562 -0.00442577 0)
(0.0228742 -0.00438883 0)
(0.0317803 -0.00396146 0)
(0.0397243 -0.00306579 0)
(0.044089 -0.00154794 0)
(0.046149 0.00016606 0)
(0.0437878 0.00131487 0)
(0.0406393 0.00157485 0)
(0.0374058 0.000525764 0)
(0.0387896 -0.00135899 0)
(0.0438344 -0.00337038 0)
(0.053123 -0.00478188 0)
(0.0657041 -0.00531194 0)
(0.07435 -0.0045917 0)
(0.0857106 -0.00630434 0)
(0.0972464 -0.0207194 0)
(0.173113 -0.038033 0)
(0.279577 -0.0469327 0)
(0.387702 -0.0452651 0)
(-0.000569852 0.000141562 0)
(-0.000887751 0.000223157 0)
(-0.00134349 0.000333124 0)
(-0.00198396 0.000477858 0)
(-0.00286594 0.000663154 0)
(-0.00405428 0.000892798 0)
(-0.00561763 0.00116588 0)
(-0.0076195 0.00147493 0)
(-0.0101069 0.00180263 0)
(-0.0130886 0.00211644 0)
(-0.0165176 0.00236764 0)
(-0.0202744 0.0025021 0)
(-0.0241523 0.00246456 0)
(-0.0278547 0.0022096 0)
(-0.0310473 0.00172738 0)
(-0.0333851 0.00104277 0)
(-0.0345462 0.000212514 0)
(-0.0343191 -0.000719161 0)
(-0.0326354 -0.00168722 0)
(-0.0295185 -0.00260697 0)
(-0.0250763 -0.00344198 0)
(-0.0194236 -0.00419019 0)
(-0.0127006 -0.00487367 0)
(-0.00496705 -0.00550776 0)
(0.00369581 -0.00606205 0)
(0.0131044 -0.00640993 0)
(0.0229535 -0.00628006 0)
(0.0320237 -0.00552675 0)
(0.0401862 -0.0040859 0)
(0.0447449 -0.00196986 0)
(0.0467305 0.000140044 0)
(0.0440739 0.00176601 0)
(0.0404988 0.00203459 0)
(0.0368484 0.000347614 0)
(0.0380245 -0.00236773 0)
(0.0431523 -0.00522893 0)
(0.0526773 -0.00707995 0)
(0.0656243 -0.00737963 0)
(0.0739385 -0.00571819 0)
(0.0823783 -0.00770942 0)
(0.0876514 -0.0276082 0)
(0.153804 -0.0734817 0)
(0.226083 -0.0729723 0)
(0.320251 -0.0750299 0)
(-0.000549518 0.000328863 0)
(-0.000859921 0.000455113 0)
(-0.00130628 0.000626165 0)
(-0.00193571 0.000852039 0)
(-0.00280548 0.00114188 0)
(-0.00398115 0.0015015 0)
(-0.00553314 0.00193062 0)
(-0.00752811 0.00241764 0)
(-0.0100165 0.00293418 0)
(-0.0130114 0.00343073 0)
(-0.0164694 0.00383069 0)
(-0.0202723 0.00404868 0)
(-0.0242121 0.00400245 0)
(-0.0279852 0.00362529 0)
(-0.0312388 0.00288126 0)
(-0.03361 0.00179538 0)
(-0.0347938 0.000475799 0)
(-0.0345966 -0.000997316 0)
(-0.0329189 -0.00252498 0)
(-0.0297784 -0.00398086 0)
(-0.0253105 -0.00530039 0)
(-0.0196418 -0.00648231 0)
(-0.0129151 -0.0075665 0)
(-0.00518372 -0.00858197 0)
(0.00349513 -0.00948567 0)
(0.0129708 -0.010072 0)
(0.0229022 -0.00993599 0)
(0.032078 -0.00884259 0)
(0.0403172 -0.00655567 0)
(0.0448169 -0.0030291 0)
(0.0467059 0.000590751 0)
(0.0438622 0.00323016 0)
(0.0397428 0.00376212 0)
(0.0357481 0.00107268 0)
(0.0366846 -0.00341561 0)
(0.0419946 -0.00812072 0)
(0.0515429 -0.0112531 0)
(0.0647244 -0.0119031 0)
(0.0712866 -0.008383 0)
(0.075089 -0.00966321 0)
(0.0674924 -0.041106 0)
(0.0756207 -0.0765425 0)
(-0.0714834 -0.0887301 0)
(-0.149413 -0.0884623 0)
(-0.000515889 0.000270246 0)
(-0.000811262 0.000410495 0)
(-0.00123888 0.00060076 0)
(-0.00184582 0.000852799 0)
(-0.00269004 0.00117764 0)
(-0.00383896 0.00158321 0)
(-0.00536613 0.00207016 0)
(-0.00734308 0.00262759 0)
(-0.00982742 0.00322724 0)
(-0.0128415 0.00381527 0)
(-0.0163488 0.00430579 0)
(-0.0202314 0.00460097 0)
(-0.024277 0.00461048 0)
(-0.0281761 0.00425322 0)
(-0.0315683 0.00344588 0)
(-0.0340693 0.002189 0)
(-0.0353486 0.000587769 0)
(-0.0352888 -0.00114486 0)
(-0.0339633 -0.00287196 0)
(-0.0314502 -0.00452812 0)
(-0.0278598 -0.00603599 0)
(-0.0232962 -0.00739104 0)
(-0.0178775 -0.00863599 0)
(-0.0116123 -0.0098137 0)
(-0.0045295 -0.0108839 0)
(0.00333732 -0.0116489 0)
(0.0117894 -0.0116441 0)
(0.0197802 -0.0106141 0)
(0.0270883 -0.00817992 0)
(0.0313055 -0.00411507 0)
(0.032634 0.000428531 0)
(0.029697 0.00350192 0)
(0.0245676 0.00431568 0)
(0.0203782 0.00136246 0)
(0.0197436 -0.00384103 0)