/*--------------------------------*- C++ -*----------------------------------*\
| =========                 |                                                 |
| \\      /  F ield         | OpenFOAM: The Open Source CFD Toolbox           |
|  \\    /   O peration     | Version:  v1912                                 |
|   \\  /    A nd           | Website:  www.openfoam.com                      |
|    \\/     M anipulation  |                                                 |
\*---------------------------------------------------------------------------*/
FoamFile
{
    version     2.0;
    format      ascii;
    class       volVectorField;
    location    "30";
    object      U;
}
// * * * * * * * * * * * * * * * * * * * * * * * * * * * * * * * * * * * * * //

dimensions      [0 1 -1 0 0 0 0];


internalField   nonuniform List<vector> 
14268
(
(0.038612 0.00196159 0)
(0.0325384 0.00165451 1.26198e-27)
(0.026063 0.00133634 5.80184e-27)
(0.0179984 0.00094412 0)
(0.00751924 0.00042555 0)
(-0.00238749 -6.58665e-05 0)
(-0.0143078 -0.000646829 0)
(-0.0285364 -0.00130962 0)
(0.0385497 0.00203601 0)
(0.0324848 0.00172583 1.2006e-26)
(0.0260165 0.00142169 1.01424e-26)
(0.0179596 0.00104798 0)
(0.0074903 0.000536724 0)
(-0.00240744 5.37575e-05 0)
(-0.0143233 -0.000510039 0)
(-0.0285455 -0.00122776 0)
(0.0385256 0.00209836 0)
(0.0324604 0.00178116 0)
(0.0259908 0.00148796 6.34669e-27)
(0.0179315 0.00113579 0)
(0.00746114 0.000635064 0)
(-0.00243572 0.000159824 0)
(-0.0143496 -0.000376621 0)
(-0.0285641 -0.0010108 0)
(0.0385128 0.00217501 -7.373e-26)
(0.0324477 0.00185448 0)
(0.0259772 0.00157541 3.48292e-27)
(0.0179155 0.00124191 -1.78698e-26)
(0.00744324 0.000748103 0)
(-0.0024566 0.000279249 0)
(-0.0143744 -0.000237009 0)
(-0.0285792 -0.000905293 0)
(0.0385052 0.00223721 -9.595e-26)
(0.0324405 0.00190983 0)
(0.0259692 0.00164153 0)
(0.0179053 0.00132931 -3.99605e-34)
(0.00743095 0.000845708 0)
(-0.00246969 0.000388318 0)
(-0.0143918 -0.000103808 0)
(-0.0285873 -0.000713582 0)
(0.0384974 0.00231461 0)
(0.0324332 0.00198306 0)
(0.0259616 0.00172876 0)
(0.0178959 0.00143457 2.64522e-26)
(0.00741864 0.000957981 0)
(-0.00248012 0.000504209 0)
(-0.0144065 3.31941e-05 0)
(-0.0285913 -0.000581987 0)
(0.0384909 0.0023756 1.38903e-25)
(0.0324272 0.0020388 0)
(0.0259553 0.0017958 0)
(0.0178872 0.00152443 0)
(0.00740905 0.0010604 0)
(-0.00249169 0.000616772 -3.24822e-26)
(-0.0144195 0.000170084 0)
(-0.0285947 -0.000416346 0)
(0.0384832 0.00245578 1.60188e-25)
(0.0324202 0.00211331 1.06657e-25)
(0.0259481 0.00188394 0)
(0.017878 0.00162713 0)
(0.0074005 0.00116425 0)
(-0.00250233 0.000730368 -3.76713e-26)
(-0.0144317 0.000304923 0)
(-0.0285962 -0.000259463 0)
(0.0384769 0.00251318 0)
(0.0324144 0.00216615 1.2257e-25)
(0.0259424 0.00194795 6.39587e-27)
(0.0178697 0.00172171 0)
(0.00738896 0.00127637 0)
(-0.00251278 0.000844073 0)
(-0.0144448 0.000444704 0)
(-0.0285988 -0.000106432 0)
(0.0384689 0.00259706 0)
(0.0324071 0.00224589 0)
(0.025935 0.00204087 5.03135e-27)
(0.017862 0.00181914 0)
(0.00737954 0.00137565 0)
(-0.0025227 0.000958222 0)
(-0.0144571 0.000571988 0)
(-0.0286011 3.657e-05 3.81475e-28)
(0.0384634 0.00265059 0)
(0.0324018 0.00229009 0)
(0.0259301 0.00209947 0)
(0.0178541 0.00191374 0)
(0.00736921 0.00148524 0)
(-0.00253168 0.00107117 0)
(-0.0144669 0.000723045 0)
(-0.0286016 0.000220388 1.21701e-26)
(0.0384599 0.00274264 -2.42117e-25)
(0.0323964 0.00238254 0)
(0.0259226 0.00219901 0)
(0.0178446 0.00201713 0)
(0.00736101 0.00158803 0)
(-0.00255027 0.00118494 0)
(-0.0144828 0.000844702 0)
(-0.0286042 0.000335752 0)
(0.038481 0.00278185 -3.92632e-33)
(0.0324036 0.00241095 0)
(0.0259228 0.0022485 0)
(0.0178347 0.00210437 0)
(0.00734469 0.0016937 0)
(-0.00253241 0.00129639 0)
(-0.0144929 0.000983944 0)
(-0.0286067 0.000528811 0)
(0.0385275 0.00290059 2.8095e-25)
(0.0324124 0.00252554 0)
(0.0259093 0.00236197 0)
(0.0177916 0.00221749 0)
(0.00727592 0.00180687 0)
(-0.00264448 0.0014193 0)
(-0.0145851 0.00113425 0)
(-0.0285764 0.000660198 0)
(0.0388003 0.0029421 0)
(0.0326187 0.00254045 0)
(0.0262751 0.00247486 9.74126e-27)
(0.0181175 0.00242265 0)
(0.00772714 0.00202994 0)
(-0.00263066 0.00160566 0)
(-0.0146495 0.00129673 0)
(-0.0288744 0.000903095 0)
(0.0386295 0.00380903 0)
(0.0325111 0.0032977 0)
(0.0262338 0.0031264 -1.54906e-27)
(0.0181195 0.00301426 0)
(0.00796572 0.00260795 -3.06708e-26)
(-0.00231557 0.00215603 0)
(-0.0140669 0.00190764 2.54869e-25)
(-0.0287755 0.00126856 0)
(0.0385268 0.00377961 -3.78902e-25)
(0.0323811 0.00324357 0)
(0.0261371 0.00324693 1.84934e-27)
(0.0180357 0.00328822 0)
(0.0078815 0.00286898 -1.02959e-26)
(-0.00231362 0.00237976 4.59387e-26)
(-0.0137959 0.00205714 2.45825e-25)
(-0.0285873 0.00159908 3.28749e-26)
(0.0385809 0.00477099 -8.10555e-25)
(0.0324792 0.00407771 0)
(0.0262263 0.00393675 -1.14657e-26)
(0.0180958 0.00390682 0)
(0.00797276 0.00349766 -4.00436e-26)
(-0.00215627 0.00297961 1.58619e-25)
(-0.0133693 0.00279103 0)
(-0.028206 0.00202639 5.71455e-26)
(0.0383845 0.00458332 -5.42851e-25)
(0.0322611 0.00392808 0)
(0.0260688 0.0040046 0)
(0.0179478 0.00412128 0)
(0.00775808 0.00365604 0)
(-0.00240764 0.0030887 6.08277e-26)
(-0.0136493 0.00275643 0)
(-0.0282236 0.00229758 0)
(0.0385556 0.00579807 0)
(0.0324729 0.004883 0)
(0.0262786 0.00477684 0)
(0.0181054 0.00485192 0)
(0.00795856 0.00443115 0)
(-0.00213831 0.00381796 0)
(-0.0133489 0.00364658 0)
(-0.0280688 0.00280837 0)
(0.0382415 0.0053418 0)
(0.0321618 0.00458919 0)
(0.0260508 0.00473004 0)
(0.0179202 0.00490157 0)
(0.00767572 0.00439509 0)
(-0.00246602 0.00376599 0)
(-0.013522 0.00343452 0)
(-0.0281722 0.00294235 0)
(0.0379153 0.00940618 0)
(0.0322233 0.00769599 0)
(0.0260117 0.0075771 -1.34457e-26)
(0.017663 0.00823084 0)
(0.00707911 0.00835704 6.9324e-27)
(-0.00279051 0.00782878 0)
(-0.0139457 0.00914966 -7.53991e-26)
(-0.0276678 0.00731092 -5.35251e-26)
(0.0361585 0.00659279 0)
(0.0306067 0.00604886 0)
(0.0255141 0.00693334 2.71743e-26)
(0.0179839 0.0077402 0)
(0.00663274 0.00707968 -1.83117e-26)
(-0.00240739 0.00648232 0)
(-0.0147833 0.00573683 -3.61602e-26)
(-0.029781 0.0075773 -8.09954e-30)
(-0.00939824 0.0129701 0)
(-0.010828 0.0101237 0)
(-0.0114012 0.0112144 9.1152e-26)
(-0.012571 0.0137909 0)
(-0.0158405 0.01425 0)
(-0.0204746 0.0140011 0)
(-0.0285047 0.0172421 0)
(-0.0378215 0.0165224 1.96377e-25)
(-0.375314 0.00678992 0)
(-0.359039 0.00418299 0)
(-0.342609 0.00444177 -1.42595e-25)
(-0.3161 0.00606122 0)
(-0.28151 0.00680552 0)
(-0.244908 0.0079645 0)
(-0.199914 0.00880054 0)
(-0.139839 0.0113284 -2.29659e-25)
(0.320858 0.000475469 0)
(0.375106 0.00315394 -2.52834e-26)
(0.429529 0.002775 0)
(0.473597 0.000329577 5.72603e-25)
(0.518667 -0.0020906 0)
(0.54823 -0.00505627 0)
(0.581308 -0.00736838 0)
(0.584075 -0.014356 -1.20658e-24)
(3.62247 0.00433621 0)
(3.72261 0.002919 -1.14133e-26)
(3.81763 0.00492079 0)
(3.90934 0.00906736 -4.13436e-24)
(3.99447 0.0144764 -5.4466e-24)
(4.06953 0.020585 0)
(4.14482 0.0265891 0)
(4.23808 0.0492001 0)
(4.22725 -0.0271697 0)
(4.16847 -0.0208559 1.038e-26)
(4.10473 -0.018507 0)
(4.0486 -0.0187513 0)
(3.98342 -0.0178643 8.67551e-27)
(3.95027 -0.0122244 -7.81048e-23)
(3.86899 -0.0403692 0)
(3.85716 0.0148515 -1.0088e-22)
(1.45349 0.0134126 0)
(1.37719 0.0130345 1.03882e-22)
(1.30042 0.0112024 9.94871e-23)
(1.23021 0.0140251 0)
(1.19303 0.0124333 9.20189e-23)
(1.1812 0.0218609 -8.80981e-23)
(1.19093 0.0185108 8.40774e-23)
(1.21408 0.028138 -8.65185e-23)
(2.36179 0.0111247 0)
(2.35813 0.0161712 0)
(2.34893 0.0180552 1.42756e-27)
(2.33721 0.00790867 0)
(2.31897 -0.00660836 1.51108e-24)
(2.29781 -0.0159659 0)
(2.26134 -0.043706 9.46096e-28)
(2.23002 -0.0357079 0)
(1.1528 0.0112405 2.16704e-23)
(1.12383 0.0150974 0)
(1.09455 0.0148314 1.62213e-23)
(1.06136 0.0196485 0)
(1.0464 0.0185489 -1.23853e-23)
(1.04724 0.0325331 1.09866e-23)
(1.04826 0.0288437 -5.59209e-28)
(1.05233 0.0252332 4.52185e-24)
(1.26972 0.0246238 3.61399e-23)
(1.24767 0.0259637 0)
(1.21534 0.0286735 0)
(1.17779 0.0164774 0)
(1.13517 -0.00882561 -3.78121e-23)
(1.0972 -0.022412 4.03204e-23)
(1.0546 -0.0444491 -4.11783e-23)
(1.00155 -0.051858 4.09688e-23)
(0.825521 0.0206719 0)
(0.822488 0.0298116 0)
(0.813968 0.034221 0)
(0.79588 0.0406955 0)
(0.753596 0.0387792 -3.80255e-23)
(0.716762 0.0508726 -3.80461e-23)
(0.670864 0.0512665 3.91269e-23)
(0.628225 0.0523225 0)
(0.5071 0.018421 0)
(0.495538 0.0226313 -4.23937e-23)
(0.475921 0.0287528 0)
(0.452564 0.0268089 0)
(0.402688 0.00910508 0)
(0.369594 -0.000845797 -4.06697e-23)
(0.322503 -0.0198634 -7.54145e-28)
(0.27129 -0.0285473 -3.98371e-23)
(0.267196 0.0271793 0)
(0.258544 0.0384927 -4.14923e-23)
(0.239667 0.0468643 0)
(0.232353 0.0618808 0)
(0.193135 0.060407 0)
(0.167055 0.0683314 0)
(0.127254 0.0735507 -2.84944e-23)
(0.0921186 0.0708898 -2.21176e-23)
(0.0446628 0.0189102 0)
(0.0427565 0.0256226 0)
(0.0275663 0.0309979 0)
(0.0241204 0.0364903 0)
(0.00212822 0.0243731 0)
(-0.0067378 0.0187127 0)
(-0.0177261 0.00390448 -1.00198e-23)
(-0.0215111 -0.00635095 0)
(-0.0568249 0.0308636 -1.82337e-23)
(-0.0541233 0.0435005 0)
(-0.0562165 0.0517192 1.26667e-23)
(-0.0465303 0.0655633 0)
(-0.0451623 0.0645213 4.04217e-24)
(-0.0421197 0.0682087 0)
(-0.0416848 0.0717207 1.55281e-28)
(-0.0372722 0.0676878 0)
(-0.113279 0.0150048 7.57531e-28)
(-0.105445 0.0221264 -3.88138e-24)
(-0.0998105 0.0263836 1.94658e-24)
(-0.0870365 0.0333635 -3.91699e-25)
(-0.0765892 0.0254372 -2.2814e-24)
(-0.0698609 0.0223337 0)
(-0.0618606 0.00764208 -3.55447e-24)
(-0.052575 -0.00143662 4.10092e-24)
(-0.10893 0.0283811 2.02323e-24)
(-0.100249 0.0399166 6.43483e-28)
(-0.0928184 0.0468598 2.15084e-25)
(-0.0790103 0.0575517 -1.94299e-24)
(-0.0673891 0.0564603 0)
(-0.0589009 0.0597754 0)
(-0.0519686 0.0621116 0)
(-0.0490036 0.059311 3.85151e-24)
(-0.115121 0.0103539 0)
(-0.105901 0.0181419 6.09506e-25)
(-0.0976645 0.0223621 1.94217e-25)
(-0.085917 0.0289629 0)
(-0.076011 0.0225943 0)
(-0.0695555 0.0221784 0)
(-0.0612663 0.00970325 -1.98151e-24)
(-0.0550538 0.0023478 0)
(-0.107117 0.0246376 -1.53323e-24)
(-0.0986795 0.034241 -6.76295e-25)
(-0.0910653 0.0401608 1.83398e-25)
(-0.0783637 0.0488946 1.37606e-24)
(-0.0688723 0.0489299 -2.10876e-24)
(-0.0606117 0.0521621 2.43531e-24)
(-0.0541691 0.053677 -7.11158e-29)
(-0.0535595 0.0524496 2.65131e-24)
(-0.109012 0.00616975 6.08823e-28)
(-0.100663 0.0141503 -4.41781e-25)
(-0.0935495 0.0180852 1.69206e-25)
(-0.0830512 0.0245492 5.04224e-28)
(-0.0745515 0.0197697 -1.71367e-24)
(-0.0680338 0.0214168 1.84265e-24)
(-0.0609891 0.0115532 2.0116e-24)
(-0.0562901 0.00644533 1.99573e-24)
(-0.103844 0.0202342 1.41086e-24)
(-0.0959663 0.0286995 0)
(-0.088881 0.0341684 0)
(-0.0782841 0.0415845 -9.30076e-25)
(-0.070307 0.0422181 0)
(-0.0626709 0.0454197 1.87976e-24)
(-0.0564936 0.0466063 0)
(-0.0564611 0.0463653 0)
(-0.103388 0.00291767 0)
(-0.0958981 0.0107361 0)
(-0.0894249 0.0144518 -1.88427e-26)
(-0.0803913 0.0207689 0)
(-0.0730741 0.0173784 1.25977e-24)
(-0.0669359 0.0204511 1.38223e-24)
(-0.0611117 0.0131851 -1.52202e-24)
(-0.0571528 0.0104164 0)
(-0.100489 0.0159139 0)
(-0.0931504 0.0235372 0)
(-0.0867015 0.0287658 -4.60301e-28)
(-0.0775601 0.0352807 0)
(-0.0709251 0.0362103 1.14383e-24)
(-0.0640692 0.0395558 0)
(-0.0588568 0.0402969 -7.22808e-29)
(-0.058445 0.0409085 0)
(-0.0982714 6.94217e-05 1.31604e-24)
(-0.0915653 0.00759957 7.21048e-25)
(-0.0856807 0.01136 -2.53149e-25)
(-0.0777665 0.0175889 -4.59639e-25)
(-0.0715187 0.015469 0)
(-0.0658032 0.0194292 -9.57305e-25)
(-0.0606223 0.0147316 7.85116e-25)
(-0.0574695 0.0137874 -5.59662e-25)
(-0.0969281 0.0119257 1.39265e-24)
(-0.0902338 0.0189014 7.66402e-25)
(-0.08446 0.0238578 -2.24666e-25)
(-0.0764702 0.0297723 -3.65061e-25)
(-0.0707911 0.0308897 0)
(-0.0648151 0.0343183 -1.03436e-24)
(-0.0601182 0.0348931 0)
(-0.0592123 0.0360785 -9.51801e-25)
(-0.0935787 -0.00252123 0)
(-0.0875351 0.00473869 0)
(-0.0821874 0.00870755 -2.68947e-25)
(-0.0752497 0.01485 0)
(-0.069835 0.0139147 0)
(-0.0646828 0.0184088 0)
(-0.0601789 0.0156998 4.76464e-25)
(-0.0573112 0.0164511 0)
(-0.0931168 0.00829764 6.811e-25)
(-0.0871799 0.0147458 4.12074e-25)
(-0.0820249 0.0194336 -3.3751e-25)
(-0.0750421 0.0249414 -7.76487e-26)
(-0.0700869 0.0262335 2.61294e-25)
(-0.0648125 0.029772 0)
(-0.0606769 0.0302944 8.01809e-25)
(-0.0590122 0.03184 -3.20414e-25)
(-0.089341 -0.0049025 6.85747e-25)
(-0.0838457 0.00217585 8.27875e-25)
(-0.0789764 0.00640147 -1.97949e-25)
(-0.0729019 0.0124434 -6.70005e-27)
(-0.0681669 0.0125473 1.32232e-28)
(-0.0635096 0.0173727 0)
(-0.0595422 0.0161221 0)
(-0.056833 0.0182851 6.04127e-26)
(-0.0893364 0.00512104 0)
(-0.0840656 0.0110209 8.60579e-25)
(-0.0794453 0.0154823 -4.37153e-25)
(-0.073302 0.0207044 -1.51361e-28)
(-0.0689112 0.0221936 -1.43529e-25)
(-0.0642514 0.0258625 -2.21256e-25)
(-0.0604964 0.0263676 2.57512e-25)
(-0.0583349 0.028281 0)
(-0.0855125 -0.00716393 -6.85489e-25)
(-0.080466 -0.000147813 8.7732e-25)
(-0.0760365 0.00434407 -2.51932e-25)
(-0.0707037 0.0102758 -1.60302e-25)
(-0.0665429 0.0112825 2.27597e-26)
(-0.0622818 0.0162507 -9.93644e-29)
(-0.0587134 0.0160725 9.81834e-27)
(-0.0561665 0.0192382 -1.59047e-25)
(-0.0855299 0.00224966 -6.46785e-25)
(-0.0809067 0.00768454 -1.62132e-28)
(-0.0768504 0.0119896 2.62477e-25)
(-0.0713968 0.0169991 -8.68799e-26)
(-0.0673974 0.0187044 1.18669e-28)
(-0.0630801 0.0224965 1.06563e-25)
(-0.0597221 0.0230792 -1.31862e-25)
(-0.0573293 0.0254208 6.41688e-26)
(-0.081901 -0.00904465 0)
(-0.0773334 -0.00224058 -9.31002e-25)
(-0.073328 0.00248171 2.96571e-25)
(-0.0686149 0.00826665 0)
(-0.0649235 0.00999577 6.11273e-26)
(-0.0609185 0.0149939 0)
(-0.0577701 0.0156415 5.44324e-26)
(-0.0552478 0.0193755 -1.67329e-25)
(-0.0816888 -0.000449918 -6.37752e-25)
(-0.0777421 0.00477596 1.47641e-28)
(-0.0742118 0.00893095 0)
(-0.0693312 0.0137563 -1.51224e-25)
(-0.0656477 0.0156777 0)
(-0.0616207 0.0195753 9.38969e-27)
(-0.0585505 0.0204071 0)
(-0.0560156 0.0231583 -1.05031e-25)
(-0.0785186 -0.010629 -6.5448e-25)
(-0.0743995 -0.00418865 1.03195e-24)
(-0.0706965 0.00076844 0)
(-0.0665095 0.00638214 -2.00108e-25)
(-0.0631599 0.00866722 0)
(-0.0595407 0.0136019 9.31618e-29)
(-0.0566403 0.0148644 0)
(-0.0541233 0.0188464 -1.66618e-25)
(-0.0780206 -0.00291847 0)
(-0.0745664 0.00229153 9.00801e-25)
(-0.0714757 0.00623891 -3.3002e-25)
(-0.0671459 0.0109012 2.04768e-25)
(-0.0637077 0.0130816 -1.15021e-25)
(-0.0600133 0.0170537 7.21033e-26)
(-0.057106 0.0182062 0)
(-0.0545242 0.0213482 0)
(-0.0752437 -0.0119922 6.36252e-25)
(-0.0715671 -0.00590772 4.95005e-25)
(-0.0681359 -0.000806096 -3.56257e-25)
(-0.0643486 0.0046116 2.40651e-25)
(-0.0613376 0.00732708 -1.70337e-25)
(-0.0580265 0.0121273 0)
(-0.0553133 0.0138183 0)
(-0.0528018 0.0178835 0)
(-0.0745052 -0.00518682 -1.26757e-28)
(-0.0714252 -3.47362e-05 0)
(-0.0686774 0.00385241 0)
(-0.0648853 0.0083815 0)
(-0.0617106 0.0108233 0)
(-0.0582587 0.0148364 0)
(-0.0555141 0.0163396 0)
(-0.0529466 0.0197618 0)
(-0.0720879 -0.0131491 -6.22474e-25)
(-0.068832 -0.00734506 0)
(-0.0656522 -0.00230221 -4.21006e-25)
(-0.0621926 0.00297837 0)
(-0.0594304 0.00600073 0)
(-0.0563857 0.0106435 0)
(-0.0538339 0.0126639 1.56973e-25)
(-0.0513471 0.0167498 0)
(-0.0711027 -0.00727434 0)
(-0.0683391 -0.00218015 0)
(-0.0658903 0.00182193 1.12665e-28)
(-0.0625774 0.00613532 0)
(-0.0596494 0.00881009 -2.15345e-25)
(-0.0564363 0.0128263 0)
(-0.0538254 0.0146561 3.38656e-25)
(-0.0512891 0.018203 0)
(-0.0690249 -0.0141239 0)
(-0.0661278 -0.00858536 0)
(-0.0632269 -0.00374769 3.99122e-25)
(-0.0600623 0.00148054 0)
(-0.0574715 0.00471903 -2.36967e-25)
(-0.0546579 0.00921677 0)
(-0.0522447 0.0115108 1.84063e-25)
(-0.0498013 0.015573 0)
(-0.0678392 -0.00919318 -2.96443e-25)
(-0.0653726 -0.00415338 -2.42151e-25)
(-0.0631219 -8.68762e-05 0)
(-0.0602135 0.00410175 0)
(-0.0575491 0.00697919 0)
(-0.0545651 0.0109619 -1.03329e-25)
(-0.0520725 0.0130686 0)
(-0.0495747 0.0166539 -1.02752e-25)
(-0.0660431 -0.0149616 -2.97752e-25)
(-0.0634571 -0.00966075 -2.46965e-25)
(-0.0608331 -0.0049526 0)
(-0.057931 0.000117905 0)
(-0.0554711 0.00350321 0)
(-0.0528674 0.0078705 -1.08713e-25)
(-0.0505777 0.0103845 0)
(-0.0481957 0.0143826 -1.0479e-25)
(-0.0646964 -0.010942 0)
(-0.0625038 -0.00596931 0)
(-0.0604009 -0.00185929 1.95967e-25)
(-0.0578471 0.00226516 -1.54503e-25)
(-0.0554288 0.0052942 -1.34142e-25)
(-0.0526569 0.00922071 0)
(-0.0502696 0.0115536 1.05701e-25)
(-0.047829 0.015136 0)
(-0.0631314 -0.015693 2.9043e-25)
(-0.0608251 -0.0106021 0)
(-0.0584689 -0.00602806 2.05702e-25)
(-0.0557907 -0.00116482 -1.78957e-25)
(-0.0534456 0.00235542 -1.38839e-25)
(-0.0510336 0.00660151 0)
(-0.0488561 0.00928529 1.09053e-25)
(-0.0465493 0.0131941 0)
(-0.0616836 -0.0125207 2.82681e-25)
(-0.0597032 -0.00763401 0)
(-0.057767 -0.00347922 -2.00217e-25)
(-0.0554901 0.000663529 1.62532e-25)
(-0.0532962 0.00373897 0)
(-0.0507302 0.00759556 0)
(-0.0484403 0.0101088 0)
(-0.0460709 0.0136638 0)
(-0.060295 -0.0163473 0)
(-0.058222 -0.0114405 -2.42359e-25)
(-0.0561062 -0.00699647 -2.05751e-25)
(-0.0536535 -0.00237654 3.44441e-25)
(-0.0514335 0.00127747 1.43683e-25)
(-0.0491716 0.00540114 0)
(-0.0470962 0.00821169 0)
(-0.0448735 0.0120183 -1.06698e-25)
(-0.0587936 -0.0139446 0)
(-0.0569898 -0.00914448 -4.7495e-25)
(-0.0552088 -0.00497024 2.01938e-25)
(-0.0531487 -0.000847391 -4.23559e-29)
(-0.0511456 0.00229225 2.91477e-25)
(-0.0487946 0.00607862 -1.25991e-25)
(-0.0465971 0.00873148 0)
(-0.0443096 0.0122436 -1.05992e-25)
(-0.0575086 -0.0169485 -1.37684e-25)
(-0.0556725 -0.012196 -2.38738e-25)
(-0.0537415 -0.00786892 2.04843e-25)
(-0.0515293 -0.00341931 -1.75316e-25)
(-0.0494337 0.00026794 1.48269e-25)
(-0.0472962 0.0042656 -1.27563e-25)
(-0.045316 0.0071657 0)
(-0.0431828 0.0108645 0)
(-0.0560054 -0.0152166 -1.34598e-25)
(-0.0543592 -0.0105128 0)
(-0.052703 -0.00634549 1.00864e-25)
(-0.0508301 -0.00225762 0)
(-0.049 0.000963033 -7.26257e-26)
(-0.0468553 0.00466368 0)
(-0.0447494 0.00741932 5.76328e-26)
(-0.0425506 0.010878 0)
(-0.054782 -0.017499 0)
(-0.0531577 -0.0128842 0)
(-0.0514112 -0.00865632 1.01646e-25)
(-0.0494157 -0.00435917 0)
(-0.0474494 -0.000721885 -1.60391e-25)
(-0.0454256 0.00318984 6.50366e-26)
(-0.0435315 0.00614896 -1.88503e-29)
(-0.0414834 0.00973735 0)
(-0.0532869 -0.0163532 1.31201e-25)
(-0.0517849 -0.01175 0)
(-0.0502526 -0.0076077 0)
(-0.0485427 -0.00355843 0)
(-0.0468655 -0.000232885 -7.24308e-26)
(-0.0449042 0.00334653 1.29056e-25)
(-0.042901 0.00616924 1.88246e-29)
(-0.0407884 0.00956567 5.12893e-26)
(-0.0520947 -0.017997 1.951e-25)
(-0.0506528 -0.0135074 0)
(-0.0490804 -0.00936721 5.02295e-26)
(-0.0472781 -0.00520979 0)
(-0.0454609 -0.00163855 3.81511e-26)
(-0.0435572 0.00217468 6.48609e-26)
(-0.0417281 0.00516115 8.63178e-26)
(-0.0397565 0.00863845 5.07344e-26)
(-0.0505958 -0.0173766 6.38769e-26)
(-0.0492376 -0.0128706 0)
(-0.0478292 -0.00876347 -9.13077e-30)
(-0.0462658 -0.0047594 0)
(-0.0447267 -0.00137163 3.7241e-26)
(-0.0429257 0.00211371 0)
(-0.0410231 0.0049749 2.85434e-26)
(-0.0390003 0.00830726 0)
(-0.0494089 -0.0184349 0)
(-0.0481231 -0.0140605 0)
(-0.0467125 -0.0100034 -7.42165e-26)
(-0.0450936 -0.00598098 0)
(-0.0434365 -0.0024649 -1.88869e-26)
(-0.0416484 0.00121301 0)
(-0.0398681 0.00420141 1.42162e-26)
(-0.0379749 0.00757928 0)
(-0.0479794 -0.0183109 0)
(-0.0467617 -0.0138914 0)
(-0.045478 -0.00982304 -2.4491e-26)
(-0.0440534 -0.00586519 0)
(-0.0426367 -0.0024341 -1.86871e-26)
(-0.0409765 0.000962711 0)
(-0.0391718 0.00382943 1.40591e-26)
(-0.0372465 0.00710522 0)
(-0.044972 -0.0197724 0)
(-0.0438496 -0.0158007 0)
(-0.0425231 -0.0120226 0)
(-0.0409608 -0.00824996 0)
(-0.0393085 -0.00474481 0)
(-0.0376331 -0.00103639 0)
(-0.0360492 0.00217435 0)
(-0.0344229 0.00550406 0)
(-0.0387624 -0.0203024 0)
(-0.0379325 -0.0163387 0)
(-0.0370197 -0.0125966 0)
(-0.0359823 -0.00897709 0)
(-0.0348731 -0.00567911 0)
(-0.0336154 -0.00245492 0)
(-0.032258 0.000435652 0)
(-0.0307758 0.00340362 0)
(-0.0336793 -0.0216618 0)
(-0.0329975 -0.0180526 0)
(-0.0321812 -0.0145747 0)
(-0.0312161 -0.0111562 0)
(-0.0301608 -0.00790766 0)
(-0.0290188 -0.00468827 0)
(-0.0278222 -0.00171267 0)
(-0.0265629 0.00124487 0)
(-0.0284837 -0.0221309 0)
(-0.0279546 -0.0186287 0)
(-0.0273341 -0.0152535 0)
(-0.0266051 -0.0119732 0)
(-0.0258003 -0.00886515 0)
(-0.0248997 -0.00584648 0)
(-0.0239301 -0.003024 0)
(-0.0228868 -0.00026779 0)
(-0.023744 -0.0228267 0)
(-0.0233354 -0.0195343 0)
(-0.0228327 -0.0163339 0)
(-0.0222289 -0.0132038 0)
(-0.0215521 -0.0101927 0)
(-0.0207981 -0.00725739 0)
(-0.0199878 -0.00447429 0)
(-0.0191165 -0.00177141 0)
(-0.0191219 -0.0232078 0)
(-0.0188093 -0.0200185 0)
(-0.0184232 -0.0169092 0)
(-0.0179606 -0.0138752 0)
(-0.0174393 -0.0109533 0)
(-0.0168547 -0.00812103 0)
(-0.0162208 -0.00542369 0)
(-0.0155358 -0.00282213 0)
(-0.0146859 -0.0235381 0)
(-0.0144616 -0.0204644 0)
(-0.0141806 -0.0174595 0)
(-0.0138399 -0.0145233 0)
(-0.0134506 -0.0116811 0)
(-0.013011 -0.00892304 0)
(-0.0125314 -0.00628034 0)
(-0.0120113 -0.00373381 0)
(-0.0103645 -0.0237578 0)
(-0.0102158 -0.0207589 0)
(-0.010026 -0.0178202 0)
(-0.00979445 -0.0149463 0)
(-0.0095285 -0.0121577 0)
(-0.00922721 -0.00945335 0)
(-0.00889724 -0.00685581 0)
(-0.00853872 -0.00435735 0)
(-0.00625351 -0.023883 0)
(-0.00616362 -0.0209351 0)
(-0.00604802 -0.0180427 0)
(-0.00590815 -0.0152129 0)
(-0.00574727 -0.0124632 0)
(-0.00556673 -0.00979621 0)
(-0.00536953 -0.00722994 0)
(-0.00515666 -0.00476224 0)
(-0.00228282 -0.023972 0)
(-0.00223964 -0.021049 0)
(-0.00218982 -0.0181788 0)
(-0.00213291 -0.0153701 0)
(-0.00207042 -0.0126384 0)
(-0.00200185 -0.00998876 0)
(-0.00192866 -0.00743644 0)
(-0.00185044 -0.00498273 0)
(-0.0441653 8.09403e-05 0)
(-0.0557163 5.71728e-05 0)
(-0.0633621 5.62227e-05 0)
(-0.0693478 3.43654e-05 0)
(-0.0729464 2.62332e-05 0)
(-0.0724964 -1.24834e-05 0)
(-0.0711161 -1.48721e-05 0)
(-0.0688524 -1.54596e-05 0)
(-0.0669991 -1.39507e-05 0)
(-0.0649361 -1.35788e-05 0)
(-0.062566 -1.50449e-05 0)
(-0.0594699 -1.78696e-05 0)
(-0.05623 -1.74746e-05 0)
(-0.0531422 -1.48866e-05 0)
(-0.0506734 -1.25134e-05 0)
(-0.0482334 -1.3753e-05 0)
(-0.0451019 -1.9107e-05 0)
(-0.040281 -2.70027e-05 0)
(-0.0340771 -3.06495e-05 0)
(-0.0278343 -2.7126e-05 0)
(-0.0228785 -1.9743e-05 0)
(-0.019521 -1.0888e-05 0)
(-0.0176958 -3.79781e-06 0)
(-0.0168843 5.80485e-07 0)
(-0.016617 2.42869e-06 0)
(-0.0164883 2.52479e-06 0)
(-0.0164008 2.40581e-06 0)
(-0.0163988 2.93327e-06 0)
(-0.0166768 3.65534e-06 0)
(-0.0171406 3.67125e-06 0)
(-0.0173872 1.62663e-06 0)
(-0.0169703 -2.43252e-06 0)
(-0.0158447 -5.57038e-06 0)
(-0.0143822 -5.70367e-06 0)
(-0.0130527 -3.7731e-06 0)
(-0.0123078 2.72299e-07 0)
(-0.0125646 5.02169e-06 0)
(-0.0137284 8.31427e-06 0)
(-0.0151773 8.30162e-06 0)
(-0.0162234 5.43815e-06 0)
(-0.0164769 1.02996e-06 0)
(-0.0159372 -2.67065e-06 0)
(-0.0149114 -4.45731e-06 0)
(-0.0137127 -4.60804e-06 0)
(-0.0125329 -4.16442e-06 0)
(-0.0114337 -3.91968e-06 0)
(-0.010399 -3.77331e-06 0)
(-0.0093819 -3.545e-06 0)
(-0.00836323 -3.12385e-06 0)
(-0.00736669 -2.64339e-06 0)
(-0.00644905 -2.02874e-06 0)
(-0.00566831 -1.21282e-06 0)
(-0.00506046 -3.28272e-07 0)
(-0.00462708 5.58042e-07 0)
(-0.00433152 1.18092e-06 0)
(-0.00410739 1.43717e-06 0)
(-0.00389993 1.42753e-06 0)
(-0.00369007 1.52138e-06 0)
(-0.0034686 1.68431e-06 0)
(-0.00325169 1.65132e-06 0)
(-0.00306178 2.12772e-06 0)
(-0.00291365 2.61623e-06 0)
(-0.00281658 2.85196e-06 0)
(-0.00275403 3.1801e-06 0)
(-0.00270233 3.15313e-06 0)
(-0.00260761 2.83753e-06 0)
(-0.00244272 2.30673e-06 0)
(-0.0022163 2.04253e-06 0)
(-0.00192276 2.09783e-06 0)
(-0.00157944 1.9192e-06 0)
(-0.00127259 1.79275e-06 0)
(-0.00106822 1.98398e-06 0)
(-0.000973765 2.42236e-06 0)
(-0.000976724 2.32661e-06 0)
(-0.00110439 2.85976e-06 0)
(-0.00136489 3.38888e-06 0)
(-0.00173151 3.72351e-06 0)
(-0.00216166 3.88279e-06 0)
(-0.00261684 4.20659e-06 0)
(-0.00312357 4.27629e-06 0)
(-0.00364748 4.33609e-06 0)
(-0.004216 4.28507e-06 0)
(-0.00482037 4.77171e-06 0)
(-0.00546787 5.29448e-06 0)
(-0.00622882 5.03566e-06 0)
(-0.00729605 5.51914e-06 0)
(-0.00868297 6.64e-06 0)
(-0.0103126 7.53242e-06 0)
(-0.0122256 8.54416e-06 0)
(-0.0144005 9.71103e-06 0)
(-0.0167931 1.07265e-05 0)
(-0.0193506 1.09338e-05 0)
(-0.0218943 1.03451e-05 0)
(-0.0242629 9.04617e-06 0)
(-0.0262416 6.23894e-06 0)
(-0.027739 3.69351e-06 0)
(-0.0287451 8.10073e-07 0)
(-0.0290947 -2.30957e-06 0)
(-0.0287259 -6.68428e-06 0)
(-0.0274769 -1.14467e-05 0)
(-0.0252905 -1.63642e-05 0)
(-0.0221494 -2.10313e-05 0)
(-0.0182227 -2.42908e-05 0)
(-0.013775 -2.67908e-05 0)
(-0.00887277 -2.93839e-05 0)
(-0.00330846 -3.31518e-05 0)
(0.00292701 -3.65269e-05 0)
(0.00981119 -3.7716e-05 0)
(0.0164691 -3.36282e-05 0)
(0.0217285 -2.85808e-05 0)
(0.0265388 -2.80061e-05 0)
(0.0316219 -3.05947e-05 0)
(0.0371979 -3.27382e-05 0)
(0.043209 -3.40832e-05 0)
(0.0501012 -3.84815e-05 0)
(0.0572169 -3.50401e-05 0)
(0.0620045 -1.6771e-05 0)
(0.0629957 3.9216e-06 0)
(0.0602762 2.44883e-05 0)
(0.0516916 4.96185e-05 0)
(0.0394914 5.32079e-05 0)
(0.0312776 1.86724e-05 0)
(0.0318887 -2.56844e-05 0)
(0.0405347 -5.21766e-05 0)
(0.0521485 -4.54515e-05 0)
(0.0564845 5.96132e-06 0)
(0.0488133 4.29689e-05 0)
(0.0402361 2.56281e-05 0)
(0.0403326 -1.73978e-05 0)
(0.0460876 -3.63444e-05 0)
(0.0536445 -4.11539e-05 0)
(0.0614041 -3.90077e-05 0)
(0.0678588 -2.45061e-05 0)
(0.0692551 5.70938e-06 0)
(0.0641565 4.41855e-05 0)
(0.051418 8.28869e-05 0)
(0.0316884 0.000111215 0)
(0.00823133 0.000120204 0)
(-0.0147957 0.000109232 0)
(-0.03356 7.91361e-05 0)
(-0.0452282 3.77885e-05 0)
(-0.0484637 -6.64606e-06 0)
(-0.0431233 -5.07433e-05 0)
(-0.0297353 -8.78617e-05 0)
(-0.0098603 -0.000113733 0)
(0.0138144 -0.000127274 0)
(0.0381655 -0.000123096 0)
(0.0601617 -0.000101813 0)
(0.0766221 -6.5153e-05 0)
(0.0848625 -1.74789e-05 0)
(0.083201 3.51145e-05 0)
(0.0717091 8.10086e-05 0)
(0.0523439 0.000109398 0)
(0.029256 0.0001127 0)
(0.00833558 8.61171e-05 0)
(-0.00449738 3.58671e-05 0)
(-0.0441711 0.00020386 0)
(-0.0557288 0.000141598 0)
(-0.0633773 8.17996e-05 0)
(-0.0693634 6.75086e-05 0)
(-0.0729624 7.45495e-06 0)
(-0.0725126 -7.48604e-06 0)
(-0.0711318 -2.48518e-05 0)
(-0.0688682 -2.8789e-05 0)
(-0.0670149 -2.75521e-05 0)
(-0.064952 -3.12011e-05 0)
(-0.0625819 -4.04915e-05 0)
(-0.059486 -4.86975e-05 0)
(-0.056246 -5.06317e-05 0)
(-0.0531582 -4.47998e-05 0)
(-0.0506894 -3.93345e-05 0)
(-0.0482496 -4.32863e-05 0)
(-0.0451181 -6.16893e-05 0)
(-0.0402972 -8.72733e-05 0)
(-0.0340932 -9.93951e-05 0)
(-0.0278503 -9.00871e-05 0)
(-0.0228944 -6.84732e-05 0)
(-0.0195369 -4.41812e-05 0)
(-0.0177117 -2.42836e-05 0)
(-0.0169003 -1.14437e-05 0)
(-0.016633 -5.64412e-06 0)
(-0.0165044 -4.30534e-06 0)
(-0.0164169 -4.08082e-06 0)
(-0.0164148 -1.38391e-06 0)
(-0.0166928 3.05284e-06 0)
(-0.0171567 4.59349e-06 0)
(-0.0174034 -1.90383e-06 0)
(-0.0169864 -1.29423e-05 0)
(-0.0158608 -2.20557e-05 0)
(-0.0143982 -2.33548e-05 0)
(-0.0130687 -1.89731e-05 0)
(-0.0123238 -7.11685e-06 0)
(-0.0125806 8.36144e-06 0)
(-0.0137445 1.85127e-05 0)
(-0.0151934 1.83863e-05 0)
(-0.0162396 9.46815e-06 0)
(-0.0164931 -3.81037e-06 0)
(-0.0159533 -1.41208e-05 0)
(-0.0149275 -1.95855e-05 0)
(-0.0137288 -2.10408e-05 0)
(-0.012549 -1.99692e-05 0)
(-0.0114497 -1.83239e-05 0)
(-0.0104151 -1.75503e-05 0)
(-0.00939797 -1.77171e-05 0)
(-0.00837929 -1.81007e-05 0)
(-0.00738275 -1.77049e-05 0)
(-0.0064651 -1.61023e-05 0)
(-0.00568436 -1.36098e-05 0)
(-0.00507651 -1.07874e-05 0)
(-0.00464313 -8.34684e-06 0)
(-0.00434758 -6.66601e-06 0)
(-0.00412345 -5.8884e-06 0)
(-0.00391599 -5.74097e-06 0)
(-0.00370613 -6.09268e-06 0)
(-0.00348466 -6.41449e-06 0)
(-0.00326775 -6.13468e-06 0)
(-0.00307782 -5.87129e-06 0)
(-0.0029297 -5.34941e-06 0)
(-0.00283263 -4.64463e-06 0)
(-0.00277008 -4.42136e-06 0)
(-0.00271838 -4.64553e-06 0)
(-0.00262367 -5.50686e-06 0)
(-0.00245878 -6.45141e-06 0)
(-0.00223234 -7.62424e-06 0)
(-0.0019388 -8.85505e-06 0)
(-0.00159549 -8.85031e-06 0)
(-0.00128863 -7.38624e-06 0)
(-0.00108424 -5.28262e-06 0)
(-0.000989792 -3.51579e-06 0)
(-0.000992745 -1.08825e-06 0)
(-0.00112041 9.53217e-07 0)
(-0.00138091 2.89275e-06 0)
(-0.00174753 4.28698e-06 0)
(-0.00217768 5.08215e-06 0)
(-0.00263285 5.52646e-06 0)
(-0.00313959 6.22468e-06 0)
(-0.00366349 6.79938e-06 0)
(-0.00423202 7.66417e-06 0)
(-0.00483637 8.10636e-06 0)
(-0.00548388 8.7843e-06 0)
(-0.00624482 1.35208e-05 0)
(-0.00731202 1.96919e-05 0)
(-0.00869893 2.42902e-05 0)
(-0.0103285 2.88085e-05 0)
(-0.0122415 3.34793e-05 0)
(-0.0144164 3.7263e-05 0)
(-0.016809 4.02472e-05 0)
(-0.0193665 4.16291e-05 0)
(-0.0219102 4.0145e-05 0)
(-0.0242788 3.56876e-05 0)
(-0.0262576 2.93832e-05 0)
(-0.027755 2.18659e-05 0)
(-0.0287611 1.2878e-05 0)
(-0.0291106 2.01404e-06 0)
(-0.0287419 -1.07101e-05 0)
(-0.0274928 -2.49449e-05 0)
(-0.0253064 -4.01741e-05 0)
(-0.0221654 -5.34109e-05 0)
(-0.0182386 -6.32692e-05 0)
(-0.0137909 -7.06799e-05 0)
(-0.00888871 -7.84469e-05 0)
(-0.00332437 -8.99231e-05 0)
(0.00291108 -0.000100101 0)
(0.00979531 -0.000104052 0)
(0.0164532 -9.16533e-05 0)
(0.0217127 -7.65194e-05 0)
(0.0265228 -7.47974e-05 0)
(0.0316058 -8.26634e-05 0)
(0.0371818 -8.91869e-05 0)
(0.043193 -9.23421e-05 0)
(0.0500852 -0.000104867 0)
(0.0572012 -9.50166e-05 0)
(0.061989 -4.16231e-05 0)
(0.0629805 1.91683e-05 0)
(0.0602612 8.0255e-05 0)
(0.0516761 0.000155921 0)
(0.0394756 0.000167825 0)
(0.0312613 6.60339e-05 0)
(0.0318724 -6.69034e-05 0)
(0.0405189 -0.000151217 0)
(0.0521331 -0.000141556 0)
(0.0564694 1.5431e-05 0)
(0.0487975 0.000129706 0)
(0.0402194 7.99285e-05 0)
(0.0403159 -4.69814e-05 0)
(0.0460713 -0.000101789 0)
(0.0536285 -0.000114352 0)
(0.0613883 -0.000106778 0)
(0.0678433 -6.27969e-05 0)
(0.0692399 2.79819e-05 0)
(0.0641415 0.000141986 0)
(0.051403 0.000254606 0)
(0.0316731 0.00033497 0)
(0.00821583 0.000357738 0)
(-0.0148116 0.000324935 0)
(-0.0335762 0.000235706 0)
(-0.0452446 0.000113482 0)
(-0.04848 -1.65003e-05 0)
(-0.0431396 -0.000147141 0)
(-0.0297515 -0.000257669 0)
(-0.00987624 -0.000335089 0)
(0.0137987 -0.000374766 0)
(0.0381504 -0.000362774 0)
(0.0601464 -0.000299978 0)
(0.0766076 -0.000191122 0)
(0.084848 -4.89157e-05 0)
(0.0831866 0.000108294 0)
(0.0716945 0.000245993 0)
(0.0523286 0.000330041 0)
(0.0292405 0.000338224 0)
(0.00831961 0.00025779 0)