/*--------------------------------*- C++ -*----------------------------------*\
| =========                 |                                                 |
| \\      /  F ield         | OpenFOAM: The Open Source CFD Toolbox           |
|  \\    /   O peration     | Version:  v1912                                 |
|   \\  /    A nd           | Website:  www.openfoam.com                      |
|    \\/     M anipulation  |                                                 |
\*---------------------------------------------------------------------------*/
FoamFile
{
    version     2.0;
    format      ascii;
    class       volVectorField;
    location    "50";
    object      U;
}
// * * * * * * * * * * * * * * * * * * * * * * * * * * * * * * * * * * * * * //

dimensions      [0 1 -1 0 0 0 0];


internalField   nonuniform List<vector> 
14268
(
(0.0567182 8.03068e-05 0)
(0.0417998 6.60391e-05 0)
(0.0309292 4.13422e-05 0)
(0.025517 1.3204e-05 0)
(0.0255939 -1.24218e-05 0)
(0.029982 -2.91321e-05 0)
(0.0366425 -3.62001e-05 0)
(0.0437726 -3.50148e-05 0)
(0.0499394 -2.88312e-05 0)
(0.0545946 -2.02942e-05 0)
(0.0574948 -1.01112e-05 0)
(0.058332 1.73488e-06 0)
(0.0567399 1.53236e-05 0)
(0.0525386 2.88413e-05 0)
(0.0457821 3.91974e-05 0)
(0.0374102 4.24375e-05 0)
(0.0290659 3.54253e-05 0)
(0.0232061 1.95489e-05 0)
(0.0209912 -1.18306e-06 0)
(0.0231093 -2.20026e-05 0)
(0.0287828 -3.87243e-05 0)
(0.0372857 -4.90925e-05 0)
(0.0472249 -5.5624e-05 0)
(0.0580493 -6.23092e-05 0)
(0.0711054 -7.85243e-05 0)
(0.0878653 -0.000111298 0)
(0.115391 -0.000177478 0)
(0.154183 -0.000250477 0)
(0.213629 -0.000370942 0)
(0.288361 -0.000409858 0)
(0.362507 -0.000137768 0)
(0.33719 0.000178295 0)
(0.293029 0.000247581 0)
(0.246773 0.000190437 0)
(0.223921 0.000103915 0)
(0.211857 4.4039e-05 0)
(0.208565 1.64746e-05 0)
(0.207881 -1.00252e-07 0)
(0.206906 7.73987e-06 0)
(0.204793 1.28601e-05 0)
(0.200267 3.86604e-05 0)
(0.193753 1.39921e-05 0)
(0.183429 0.000182912 0)
(0.162079 -0.000389098 0)
(0.0567059 0.000240824 0)
(0.0417874 0.000198395 0)
(0.0309167 0.000124722 0)
(0.0255045 4.0018e-05 0)
(0.0255815 -3.69375e-05 0)
(0.0299697 -8.77937e-05 0)
(0.0366305 -0.000107709 0)
(0.0437608 -0.00010295 0)
(0.0499274 -8.41071e-05 0)
(0.0545828 -5.86827e-05 0)
(0.057483 -2.86498e-05 0)
(0.0583202 6.80908e-06 0)
(0.0567282 4.7778e-05 0)
(0.0525268 8.9771e-05 0)
(0.0457703 0.000121383 0)
(0.0373983 0.000130978 0)
(0.0290537 0.000109701 0)
(0.0231938 6.14727e-05 0)
(0.0209788 -1.04612e-06 0)
(0.023097 -6.2754e-05 0)
(0.0287706 -0.000111723 0)
(0.0372735 -0.000142248 0)
(0.0472125 -0.000160938 0)
(0.0580368 -0.000181612 0)
(0.0710926 -0.000231318 0)
(0.0878521 -0.000330273 0)
(0.115378 -0.000528435 0)
(0.15417 -0.000740145 0)
(0.213619 -0.00107268 0)
(0.288356 -0.00115426 0)
(0.362506 -0.000309178 0)
(0.337185 0.000546748 0)
(0.293021 0.000673658 0)
(0.246763 0.000501562 0)
(0.223911 0.000275539 0)
(0.211848 0.000108459 0)
(0.208556 3.191e-05 0)
(0.207871 1.7935e-05 0)
(0.206897 1.9623e-05 0)
(0.204783 5.11334e-05 0)
(0.200259 7.58958e-05 0)
(0.193744 0.000159579 0)
(0.183489 0.000159748 0)
(0.162656 0.000585566 0)
(0.0566937 0.000400634 0)
(0.0417746 0.000329747 0)
(0.0309037 0.000206897 0)
(0.0254913 6.60234e-05 0)
(0.0255687 -6.21079e-05 0)
(0.0299573 -0.000146277 0)
(0.0366185 -0.000180362 0)
(0.0437489 -0.000173031 0)
(0.0499159 -0.000141639 0)
(0.0545712 -9.9084e-05 0)
(0.0574717 -4.8736e-05 0)
(0.058309 1.00589e-05 0)
(0.056717 7.83303e-05 0)
(0.0525155 0.000147457 0)
(0.0457588 0.000199864 0)
(0.0373864 0.000216023 0)
(0.0290414 0.000180735 0)
(0.0231812 0.00010071 0)
(0.0209662 -3.55898e-06 0)
(0.0230846 -0.000106865 0)
(0.0287587 -0.000189033 0)
(0.0372617 -0.000240059 0)
(0.0472014 -0.0002716 0)
(0.0580259 -0.000305384 0)
(0.0710818 -0.000387342 0)
(0.0878414 -0.000551935 0)
(0.115368 -0.000885674 0)
(0.154161 -0.00124282 0)
(0.213612 -0.00179478 0)
(0.288358 -0.00196039 0)
(0.362517 -0.00057552 0)
(0.337185 0.000917001 0)
(0.293013 0.00115233 0)
(0.246754 0.000869799 0)
(0.223901 0.000476981 0)
(0.211838 0.000194235 0)
(0.208546 6.44347e-05 0)
(0.207862 1.69477e-05 0)
(0.206888 3.49974e-05 0)
(0.204775 7.69179e-05 0)
(0.200251 0.000153126 0)
(0.193736 0.000189022 0)
(0.183493 0.000510396 0)
(0.162758 -8.664e-05 0)
(0.0566874 0.000562751 0)
(0.0417675 0.000464066 0)
(0.0308961 0.000292227 0)
(0.0254837 9.44463e-05 0)
(0.0255613 -8.59166e-05 0)
(0.0299506 -0.000204109 0)
(0.0366124 -0.000250767 0)
(0.0437432 -0.000240086 0)
(0.0499105 -0.000196192 0)
(0.0545659 -0.000136731 0)
(0.0574665 -6.6495e-05 0)
(0.058304 1.57283e-05 0)
(0.0567121 0.000111325 0)
(0.0525103 0.000208919 0)
(0.0457535 0.000282645 0)
(0.0373805 0.000305297 0)
(0.0290349 0.000255819 0)
(0.0231743 0.000143498 0)
(0.0209592 -2.91156e-06 0)
(0.0230779 -0.000146979 0)
(0.0287523 -0.000261413 0)
(0.0372559 -0.000332618 0)
(0.047196 -0.000376281 0)
(0.0580205 -0.000424311 0)
(0.0710762 -0.000540336 0)
(0.087835 -0.000770273 0)
(0.115361 -0.00122826 0)
(0.154154 -0.00171637 0)
(0.21361 -0.00252184 0)
(0.288367 -0.0027248 0)
(0.362539 -0.000762561 0)
(0.337191 0.00127217 0)
(0.293011 0.0016146 0)
(0.246746 0.00120344 0)
(0.223892 0.000659783 0)
(0.211831 0.00026318 0)
(0.208541 8.15157e-05 0)
(0.207858 3.68093e-05 0)
(0.206884 4.79176e-05 0)
(0.204771 0.000115933 0)
(0.200248 0.000191689 0)
(0.193732 0.000330484 0)
(0.183545 0.000503356 0)
(0.163183 0.00073071 0)
(0.0566847 0.000723606 0)
(0.0417638 0.000594859 0)
(0.0308917 0.000373336 0)
(0.0254794 0.000119574 0)
(0.0255574 -0.000111696 0)
(0.0299476 -0.000263378 0)
(0.0366099 -0.00032473 0)
(0.0437414 -0.000311065 0)
(0.049909 -0.00025438 0)
(0.0545646 -0.000177852 0)
(0.0574654 -8.73391e-05 0)
(0.058303 1.80962e-05 0)
(0.0567112 0.000141168 0)
(0.0525093 0.000266158 0)
(0.045752 0.000360836 0)
(0.0373784 0.000389953 0)
(0.029032 0.000326517 0)
(0.0231708 0.00018239 0)
(0.0209555 -5.8721e-06 0)
(0.0230744 -0.000191744 0)
(0.0287494 -0.000339259 0)
(0.0372534 -0.000430933 0)
(0.0471938 -0.000487417 0)
(0.0580182 -0.000548159 0)
(0.0710731 -0.000693875 0)
(0.0878301 -0.000988973 0)
(0.115354 -0.00158631 0)
(0.154146 -0.00223475 0)
(0.213607 -0.0032342 0)
(0.28838 -0.00351113 0)
(0.362566 -0.00100906 0)
(0.337202 0.00164 0)
(0.293011 0.00205395 0)
(0.246738 0.00154722 0)
(0.223884 0.000849327 0)
(0.211826 0.000343658 0)
(0.208539 0.000111838 0)
(0.207856 3.31314e-05 0)
(0.206883 6.17565e-05 0)
(0.20477 0.00014132 0)
(0.200247 0.000267287 0)
(0.193732 0.000365778 0)
(0.183566 0.000824644 0)
(0.163377 0.000236982 0)
(0.0566834 0.000882686 0)
(0.0417612 0.00072846 0)
(0.0308884 0.000458214 0)
(0.025476 0.000147376 0)
(0.0255546 -0.000135155 0)
(0.0299458 -0.000320812 0)
(0.0366091 -0.000394139 0)
(0.0437413 -0.000377775 0)
(0.0499093 -0.000308842 0)
(0.054565 -0.000215334 0)
(0.057466 -0.000104987 0)
(0.0583038 2.4705e-05 0)
(0.0567121 0.000174812 0)
(0.05251 0.00032767 0)
(0.0457522 0.000443311 0)
(0.0373777 0.000478923 0)
(0.0290303 0.000401122 0)
(0.0231684 0.000224704 0)
(0.0209529 -5.0627e-06 0)
(0.023072 -0.000231591 0)
(0.0287475 -0.000411863 0)
(0.0372521 -0.000523746 0)
(0.0471927 -0.000592354 0)
(0.0580167 -0.000666899 0)
(0.0710703 -0.0008495 0)
(0.087825 -0.00121052 0)
(0.115347 -0.00194438 0)
(0.154137 -0.00271466 0)
(0.213605 -0.00395407 0)
(0.288396 -0.00429172 0)
(0.362601 -0.00121757 0)
(0.337216 0.00200612 0)
(0.293011 0.00252743 0)
(0.246729 0.0018954 0)
(0.223876 0.00103877 0)
(0.211821 0.000417021 0)
(0.208536 0.000130835 0)
(0.207855 5.62475e-05 0)
(0.206883 7.62216e-05 0)
(0.204771 0.000179838 0)
(0.200249 0.000307606 0)
(0.193733 0.000498609 0)
(0.183614 0.000846263 0)
(0.163711 0.000875099 0)
(0.0566824 0.00104369 0)
(0.0417587 0.000858917 0)
(0.030885 0.000539344 0)
(0.0254724 0.000172672 0)
(0.025552 -0.000161602 0)
(0.0299442 -0.000380625 0)
(0.0366086 -0.000468584 0)
(0.0437417 -0.000448762 0)
(0.0499101 -0.000367086 0)
(0.054566 -0.000256674 0)
(0.0574671 -0.000125884 0)
(0.0583053 2.65014e-05 0)
(0.0567138 0.000204114 0)
(0.0525114 0.000384873 0)
(0.0457529 0.000521565 0)
(0.0373773 0.000563624 0)
(0.0290288 0.000471918 0)
(0.023166 0.000263447 0)
(0.0209502 -8.30906e-06 0)
(0.0230696 -0.000276341 0)
(0.0287458 -0.000489257 0)
(0.0372511 -0.000621796 0)
(0.0471919 -0.000703479 0)
(0.058015 -0.000792249 0)
(0.0710671 -0.00100468 0)
(0.0878189 -0.00143415 0)
(0.115339 -0.00228814 0)
(0.154127 -0.00321289 0)
(0.213601 -0.0046755 0)
(0.288415 -0.00507094 0)
(0.362644 -0.00144509 0)
(0.337232 0.00237328 0)
(0.29301 0.00298875 0)
(0.246719 0.00224121 0)
(0.223867 0.00122994 0)
(0.211816 0.000494587 0)
(0.208534 0.000159424 0)
(0.207854 4.85898e-05 0)
(0.206883 8.80748e-05 0)
(0.204772 0.000205252 0)
(0.200251 0.000379926 0)
(0.193736 0.000542915 0)
(0.183642 0.00112803 0)
(0.163949 0.000559641 0)
(0.0566814 0.0012052 0)
(0.0417558 0.000992535 0)
(0.0308811 0.000624113 0)
(0.0254685 0.000200496 0)
(0.0255489 -0.000184354 0)
(0.0299424 -0.000437682 0)
(0.0366082 -0.000538625 0)
(0.0437423 -0.000516049 0)
(0.0499112 -0.000421824 0)
(0.0545674 -0.000294295 0)
(0.0574687 -0.000143848 0)
(0.0583072 3.28197e-05 0)
(0.0567157 0.000237814 0)
(0.0525132 0.000446288 0)
(0.0457539 0.000603992 0)
(0.037377 0.000652447 0)
(0.0290271 0.000546346 0)
(0.0231634 0.000305857 0)
(0.0209472 -7.50819e-06 0)
(0.0230669 -0.000316813 0)
(0.0287439 -0.000562549 0)
(0.0372498 -0.000715142 0)
(0.047191 -0.000808898 0)
(0.0580132 -0.000910645 0)
(0.0710636 -0.00115741 0)
(0.087812 -0.00164963 0)
(0.115328 -0.00264572 0)
(0.154114 -0.00370876 0)
(0.213597 -0.00539238 0)
(0.288438 -0.00585238 0)
(0.362692 -0.00166448 0)
(0.337251 0.00273698 0)
(0.29301 0.00344263 0)
(0.246707 0.00258332 0)
(0.223856 0.00141499 0)
(0.211809 0.000568892 0)
(0.208532 0.000179076 0)
(0.207853 7.62929e-05 0)
(0.206884 0.000105073 0)
(0.204773 0.000244047 0)
(0.200254 0.00042473 0)
(0.193738 0.000665278 0)
(0.183686 0.00118686 0)
(0.164239 0.00103188 0)
(0.0566802 0.00136517 0)
(0.0417526 0.00112457 0)
(0.0308767 0.000706275 0)
(0.0254639 0.000226587 0)
(0.0255456 -0.000210899 0)
(0.0299405 -0.000497355 0)
(0.0366078 -0.000611944 0)
(0.043743 -0.000586167 0)
(0.0499123 -0.000479452 0)
(0.054569 -0.000335015 0)
(0.0574705 -0.000164061 0)
(0.0583092 3.55577e-05 0)
(0.056718 0.00026772 0)
(0.0525153 0.000503979 0)
(0.045755 0.000682798 0)
(0.0373767 0.000737918 0)
(0.0290253 0.00061799 0)
(0.0231603 0.000345436 0)
(0.0209438 -1.00268e-05 0)
(0.0230639 -0.000360501 0)
(0.0287417 -0.000639051 0)
(0.0372485 -0.000812295 0)
(0.0471899 -0.000918932 0)
(0.0580112 -0.0010341 0)
(0.0710595 -0.00131394 0)
(0.0878042 -0.00187173 0)
(0.115317 -0.00299569 0)
(0.154101 -0.0041976 0)
(0.213593 -0.00611579 0)
(0.288463 -0.00663441 0)
(0.362749 -0.00189022 0)
(0.337272 0.00309991 0)
(0.293009 0.00390423 0)
(0.246694 0.00292684 0)
(0.223844 0.00160558 0)
(0.211801 0.000646963 0)
(0.208529 0.000208775 0)
(0.207853 6.33569e-05 0)
(0.206884 0.000113633 0)
(0.204775 0.000269543 0)
(0.200256 0.000492205 0)
(0.193742 0.000720433 0)
(0.183717 0.00142306 0)
(0.16453 0.000873889 0)
(0.0566789 0.00152629 0)
(0.041749 0.00125705 0)
(0.0308717 0.000790123 0)
(0.0254589 0.000253536 0)
(0.0255416 -0.000234339 0)
(0.0299383 -0.00055496 0)
(0.0366072 -0.000682815 0)
(0.0437438 -0.000654182 0)
(0.0499137 -0.000534826 0)
(0.0545708 -0.000373312 0)
(0.0574725 -0.000182655 0)
(0.0583116 4.08006e-05 0)
(0.0567205 0.000300492 0)
(0.0525176 0.000564725 0)
(0.0457563 0.000764535 0)
(0.0373764 0.000825923 0)
(0.0290231 0.000691636 0)
(0.0231568 0.000386837 0)
(0.0209399 -1.01423e-05 0)
(0.0230604 -0.000402053 0)
(0.0287392 -0.000713296 0)
(0.037247 -0.000906581 0)
(0.0471888 -0.00102519 0)
(0.058009 -0.00115438 0)
(0.0710549 -0.00146677 0)
(0.0877952 -0.00209148 0)
(0.115304 -0.00335307 0)
(0.154084 -0.00470647 0)
(0.213588 -0.00683388 0)
(0.288492 -0.00741381 0)
(0.362811 -0.0021064 0)
(0.337296 0.0034686 0)
(0.293008 0.00436216 0)
(0.246679 0.00327368 0)
(0.22383 0.00179311 0)
(0.211793 0.000719059 0)
(0.208526 0.000225562 0)
(0.207851 9.69334e-05 0)
(0.206885 0.000134818 0)
(0.204777 0.000308649 0)
(0.20026 0.000542269 0)
(0.193745 0.000830427 0)
(0.183758 0.00152257 0)
(0.164803 0.00120474 0)
(0.0566774 0.00168683 0)
(0.041745 0.00138918 0)
(0.0308662 0.000872747 0)
(0.0254533 0.000279862 0)
(0.0255372 -0.000259984 0)
(0.0299359 -0.00061418 0)
(0.0366067 -0.000755665 0)
(0.0437446 -0.000723865 0)
(0.0499152 -0.000591933 0)
(0.0545728 -0.000413467 0)
(0.0574747 -0.000202436 0)
(0.0583142 4.44168e-05 0)
(0.0567233 0.000331356 0)
(0.0525202 0.000623139 0)
(0.0457577 0.000844026 0)
(0.037376 0.000912115 0)
(0.0290207 0.000763852 0)
(0.0231529 0.000427185 0)
(0.0209357 -1.2072e-05 0)
(0.0230567 -0.000444875 0)
(0.0287365 -0.000788954 0)
(0.0372453 -0.00100311 0)
(0.0471875 -0.00113503 0)
(0.0580065 -0.00127809 0)
(0.07105 -0.00162113 0)
(0.0877854 -0.00231159 0)
(0.11529 -0.00369983 0)
(0.154068 -0.00518344 0)
(0.213582 -0.00754901 0)
(0.288523 -0.00819663 0)
(0.36288 -0.00233528 0)
(0.337322 0.00383833 0)
(0.293007 0.00483111 0)
(0.246663 0.00362089 0)
(0.223815 0.00198531 0)
(0.211783 0.000800479 0)
(0.208523 0.000258619 0)
(0.207851 7.71935e-05 0)
(0.206885 0.000137954 0)
(0.204778 0.000332071 0)
(0.200263 0.000603478 0)
(0.193749 0.000897508 0)
(0.183792 0.00171208 0)
(0.165092 0.00118106 0)
(0.0566759 0.00184761 0)
(0.0417405 0.00152173 0)
(0.0308602 0.000956467 0)
(0.0254471 0.000306882 0)
(0.0255324 -0.000284282 0)
(0.0299332 -0.000672116 0)
(0.0366061 -0.000827244 0)
(0.0437455 -0.00079232 0)
(0.0499169 -0.000647718 0)
(0.0545749 -0.000452209 0)
(0.0574772 -0.000221281 0)
(0.0583171 4.90509e-05 0)
(0.0567264 0.000363179 0)
(0.052523 0.000683265 0)
(0.0457593 0.000925255 0)
(0.0373755 0.000999799 0)
(0.0290181 0.000837307 0)
(0.0231487 0.000468109 0)
(0.0209309 -1.23173e-05 0)
(0.0230525 -0.000487052 0)
(0.0287335 -0.000863755 0)
(0.0372434 -0.00109695 0)
(0.0471862 -0.00124018 0)
(0.0580037 -0.00139501 0)
(0.0710443 -0.00177378 0)
(0.0877744 -0.00252914 0)
(0.115274 -0.00405073 0)
(0.154048 -0.00567947 0)
(0.213575 -0.00827485 0)
(0.288557 -0.00898023 0)
(0.362956 -0.00254744 0)
(0.33735 0.00419429 0)
(0.293006 0.00527128 0)
(0.246645 0.0039571 0)
(0.223797 0.0021686 0)
(0.211773 0.000868019 0)
(0.208518 0.000273237 0)
(0.207849 0.000118548 0)
(0.206886 0.000165916 0)
(0.204781 0.000375275 0)
(0.200267 0.000661156 0)
(0.193753 0.000995543 0)
(0.18383 0.00185075 0)
(0.165344 0.00139228 0)
(0.0566741 0.0020083 0)
(0.0417356 0.0016545 0)
(0.0308537 0.00103899 0)
(0.0254404 0.00033315 0)
(0.0255271 -0.000309444 0)
(0.0299302 -0.000731367 0)
(0.0366054 -0.000899261 0)
(0.0437465 -0.000861521 0)
(0.0499188 -0.000704661 0)
(0.0545772 -0.000492278 0)
(0.0574799 -0.000240872 0)
(0.0583203 5.2857e-05 0)
(0.0567297 0.000394971 0)
(0.052526 0.000742119 0)
(0.0457611 0.00100473 0)
(0.0373751 0.00108529 0)
(0.0290153 0.000908757 0)
(0.0231441 0.00050829 0)
(0.0209258 -1.47166e-05 0)
(0.0230479 -0.000530211 0)
(0.0287302 -0.000940228 0)
(0.0372414 -0.00119601 0)
(0.0471847 -0.00135279 0)
(0.0580005 -0.00152259 0)
(0.071038 -0.00193301 0)
(0.0877623 -0.00275396 0)
(0.115257 -0.00441317 0)
(0.154025 -0.00618648 0)
(0.213568 -0.0090109 0)
(0.288593 -0.00976773 0)
(0.363037 -0.00278475 0)
(0.337381 0.00457465 0)
(0.293004 0.00576186 0)
(0.246625 0.00431764 0)
(0.223778 0.0023639 0)
(0.211761 0.00095523 0)
(0.208515 0.000304502 0)
(0.207849 8.9583e-05 0)
(0.206886 0.000160521 0)
(0.204782 0.000392527 0)
(0.200271 0.00071318 0)
(0.193757 0.00107228 0)
(0.183865 0.0019983 0)
(0.16564 0.00148141 0)
(0.0566721 0.0021693 0)
(0.0417305 0.00178618 0)
(0.0308465 0.0011226 0)
(0.0254331 0.000359978 0)
(0.0255214 -0.000334128 0)
(0.029927 -0.00078924 0)
(0.0366048 -0.000971647 0)
(0.0437474 -0.000930512 0)
(0.0499208 -0.000760158 0)
(0.0545799 -0.000530138 0)
(0.0574829 -0.000259739 0)
(0.0583237 5.81931e-05 0)
(0.0567335 0.000426655 0)
(0.0525293 0.000802735 0)
(0.0457629 0.00108783 0)
(0.0373746 0.00117596 0)
(0.0290122 0.000985119 0)
(0.0231391 0.000551211 0)
(0.0209202 -1.30025e-05 0)
(0.0230429 -0.000569935 0)
(0.0287266 -0.00101159 0)
(0.0372391 -0.00128496 0)
(0.047183 -0.00145318 0)
(0.0579973 -0.00163641 0)
(0.0710314 -0.00208179 0)
(0.0877495 -0.00297021 0)
(0.115239 -0.00475583 0)
(0.154001 -0.0066886 0)
(0.213559 -0.00970402 0)
(0.288631 -0.0105403 0)
(0.363124 -0.00298328 0)
(0.337414 0.00492578 0)
(0.293004 0.00619041 0)
(0.246604 0.00463697 0)
(0.223758 0.00254157 0)
(0.211749 0.00101469 0)
(0.208509 0.000325427 0)
(0.207848 0.000141626 0)
(0.206887 0.000198856 0)
(0.204784 0.000443907 0)
(0.200275 0.000781434 0)
(0.193762 0.00116462 0)
(0.183902 0.0021687 0)
(0.165907 0.001596 0)
(0.056669 0.00241085 0)
(0.0417221 0.00198557 0)
(0.0308349 0.00124768 0)
(0.0254215 0.000399983 0)
(0.0255122 -0.000371757 0)
(0.0299219 -0.000878065 0)
(0.0366036 -0.00107957 0)
(0.0437491 -0.00103438 0)
(0.0499241 -0.000847943 0)
(0.054584 -0.000594742 0)
(0.0574876 -0.000291276 0)
(0.0583291 5.97926e-05 0)
(0.0567395 0.000471144 0)
(0.0525346 0.00088706 0)
(0.0457659 0.00120012 0)
(0.0373738 0.00129567 0)
(0.0290072 0.00108397 0)
(0.0231312 0.000604392 0)
(0.0209113 -2.37639e-05 0)
(0.0230347 -0.000642811 0)
(0.0287209 -0.00113638 0)
(0.0372355 -0.00144517 0)
(0.0471804 -0.00163436 0)
(0.0579918 -0.00183951 0)
(0.0710206 -0.00231796 0)
(0.0877288 -0.00329687 0)
(0.115208 -0.00527799 0)
(0.153966 -0.00736966 0)
(0.213542 -0.0107836 0)
(0.288696 -0.0117105 0)
(0.363272 -0.0033587 0)
(0.337469 0.00551737 0)
(0.293 0.00693089 0)
(0.246567 0.00521595 0)
(0.223723 0.00284952 0)
(0.211728 0.00115874 0)
(0.208503 0.000355512 0)
(0.207847 7.94481e-05 0)
(0.206886 0.000172035 0)
(0.204787 0.000454091 0)
(0.200282 0.000841537 0)
(0.19377 0.00127579 0)
(0.183956 0.00234144 0)
(0.166384 0.00186078 0)
(0.0566642 0.00273301 0)
(0.0417092 0.00225103 0)
(0.0308174 0.00141417 0)
(0.0254036 0.000453824 0)
(0.0254981 -0.000420161 0)
(0.0299141 -0.000993808 0)
(0.0366018 -0.00122285 0)
(0.0437516 -0.00117 0)
(0.049929 -0.000953156 0)
(0.0545901 -0.000661668 0)
(0.0574948 -0.000322506 0)
(0.0583375 7.93003e-05 0)
(0.0567486 0.000542567 0)
(0.0525425 0.00101712 0)
(0.0457703 0.00137826 0)
(0.0373724 0.00149035 0)
(0.0289997 0.00124979 0)
(0.023119 0.000702202 0)
(0.0208975 -8.35888e-06 0)
(0.0230221 -0.00070954 0)
(0.0287118 -0.0012644 0)
(0.0372302 -0.00160691 0)
(0.0471762 -0.00181689 0)
(0.0579847 -0.00204371 0)
(0.0710049 -0.0026178 0)
(0.0876967 -0.00374515 0)
(0.115161 -0.00600667 0)
(0.153906 -0.00845675 0)
(0.21352 -0.0123044 0)
(0.28879 -0.0133211 0)
(0.363491 -0.00373442 0)
(0.337552 0.00618821 0)
(0.292996 0.00777955 0)
(0.246513 0.00582106 0)
(0.223672 0.00319306 0)
(0.211697 0.00126969 0)
(0.208487 0.00042069 0)
(0.207843 0.000204323 0)
(0.20689 0.000270492 0)
(0.204794 0.000575517 0)
(0.200293 0.000997736 0)
(0.193782 0.00147324 0)
(0.184025 0.00270846 0)
(0.1668 0.00200895 0)
(0.0566589 0.00305311 0)
(0.0416946 0.00251443 0)
(0.0307975 0.00157889 0)
(0.0253836 0.000504564 0)
(0.0254823 -0.00047372 0)
(0.0299053 -0.00111478 0)
(0.0366 -0.0013707 0)
(0.0437545 -0.00131498 0)
(0.0499349 -0.00107974 0)
(0.0545969 -0.000759445 0)
(0.0575031 -0.000375435 0)
(0.058347 6.84365e-05 0)
(0.0567588 0.000589704 0)
(0.0525518 0.00111704 0)
(0.0457759 0.001514 0)
(0.037371 0.00163539 0)
(0.028991 0.0013672 0)
(0.0231053 0.000759244 0)
(0.0208821 -3.67408e-05 0)
(0.0230086 -0.000821546 0)
(0.0287022 -0.00144689 0)
(0.0372241 -0.00183676 0)
(0.0471718 -0.00207536 0)
(0.0579747 -0.00233684 0)
(0.0709858 -0.00294242 0)
(0.0876615 -0.00417703 0)
(0.115112 -0.00670475 0)
(0.153844 -0.00934749 0)
(0.213496 -0.0136313 0)
(0.288896 -0.0148292 0)
(0.363736 -0.00426205 0)
(0.337639 0.00700764 0)
(0.292981 0.00879739 0)
(0.246445 0.00659922 0)
(0.223613 0.00359697 0)
(0.211661 0.00145012 0)
(0.208479 0.000435522 0)
(0.207841 0.000104832 0)
(0.206889 0.000215706 0)
(0.204798 0.000572238 0)
(0.200304 0.00106177 0)
(0.193796 0.00160214 0)
(0.184098 0.00291437 0)
(0.16737 0.0023539 0)
(0.0566529 0.00338004 0)
(0.0416786 0.00278309 0)
(0.0307754 0.00174987 0)
(0.0253612 0.000562468 0)
(0.0254646 -0.000515915 0)
(0.0298955 -0.0012247 0)
(0.0365978 -0.00150678 0)
(0.0437574 -0.00143911 0)
(0.0499408 -0.00117 0)
(0.0546046 -0.000809698 0)
(0.057512 -0.000389768 0)
(0.0583575 0.000107712 0)
(0.0567703 0.000680097 0)
(0.0525616 0.00126645 0)
(0.0457812 0.00171251 0)
(0.0373694 0.00185075 0)
(0.0289815 0.00155324 0)
(0.02309 0.000876581 0)
(0.0208647 -1.23775e-06 0)
(0.0229931 -0.000867743 0)
(0.0286907 -0.0015534 0)
(0.0372172 -0.0019779 0)
(0.0471668 -0.00223783 0)
(0.057967 -0.00251422 0)
(0.0709672 -0.00322042 0)
(0.0876206 -0.00461252 0)
(0.115052 -0.00735503 0)
(0.153753 -0.0104154 0)
(0.213447 -0.0151614 0)
(0.289 -0.016464 0)
(0.364007 -0.00458576 0)
(0.33774 0.00765848 0)
(0.292968 0.00960108 0)
(0.246372 0.00719211 0)
(0.223545 0.00395025 0)
(0.211619 0.00158371 0)
(0.208456 0.000533135 0)
(0.207833 0.000247914 0)
(0.206892 0.000337058 0)
(0.204807 0.000714272 0)
(0.200318 0.0012368 0)
(0.19381 0.00182427 0)
(0.184165 0.00327992 0)
(0.167749 0.00258433 0)
(0.0566467 0.00369404 0)
(0.0416606 0.00304243 0)
(0.0307513 0.00190783 0)
(0.0253368 0.000607096 0)
(0.0254453 -0.000581502 0)
(0.0298847 -0.0013579 0)
(0.0365955 -0.00166802 0)
(0.0437616 -0.0016019 0)
(0.049948 -0.00131746 0)
(0.0546133 -0.000929402 0)
(0.0575219 -0.000466148 0)
(0.0583691 7.01373e-05 0)
(0.0567827 0.000701485 0)
(0.0525731 0.00134067 0)
(0.045788 0.0018226 0)
(0.0373679 0.00197041 0)
(0.0289709 0.00164599 0)
(0.0230732 0.000909288 0)
(0.0208459 -5.59494e-05 0)
(0.0229767 -0.00100624 0)
(0.0286792 -0.00176305 0)
(0.0372098 -0.00223326 0)
(0.0471607 -0.00252134 0)
(0.0579536 -0.00283665 0)
(0.070942 -0.003562 0)
(0.0875768 -0.00506499 0)
(0.114964 -0.00817014 0)
(0.153655 -0.0113576 0)
(0.213396 -0.0166104 0)
(0.289122 -0.0180115 0)
(0.364297 -0.00519462 0)
(0.337841 0.00850789 0)
(0.292941 0.0106854 0)
(0.246283 0.0079966 0)
(0.223466 0.00434116 0)
(0.211569 0.00173025 0)
(0.208442 0.000506518 0)
(0.207828 0.000126667 0)
(0.206889 0.000254304 0)
(0.204812 0.000685158 0)
(0.200332 0.00127802 0)
(0.193825 0.00191898 0)
(0.184234 0.00346906 0)
(0.16827 0.00283827 0)
(0.0566395 0.00403063 0)
(0.0416415 0.00331912 0)
(0.0307246 0.00208945 0)
(0.0253096 0.000674663 0)
(0.025424 -0.000605318 0)
(0.0298729 -0.00144892 0)
(0.0365924 -0.00178405 0)
(0.0437647 -0.00170189 0)
(0.0499546 -0.0013808 0)
(0.0546225 -0.000951978 0)
(0.0575325 -0.000449967 0)
(0.0583814 0.000142713 0)
(0.0567964 0.000824449 0)
(0.0525848 0.00152263 0)
(0.0457943 0.00205296 0)
(0.0373658 0.00221697 0)
(0.0289596 0.0018624 0)
(0.0230547 0.00105703 0)
(0.0208249 1.22173e-05 0)
(0.0229577 -0.00102059 0)
(0.0286655 -0.00183736 0)
(0.0372011 -0.00234349 0)
(0.0471543 -0.00264976 0)
(0.0579426 -0.00298219 0)
(0.070909 -0.00382237 0)
(0.0875291 -0.0054676 0)
(0.11489 -0.00873532 0)
(0.153544 -0.012358 0)
(0.213357 -0.0179903 0)
(0.289262 -0.0195931 0)
(0.364625 -0.00539896 0)
(0.337961 0.00913827 0)
(0.292927 0.0114468 0)
(0.246195 0.00856146 0)
(0.223377 0.00471454 0)
(0.21151 0.00190534 0)
(0.208408 0.000651277 0)
(0.207815 0.000294012 0)
(0.206891 0.000407786 0)
(0.204821 0.00085794 0)
(0.200347 0.00148003 0)
(0.19384 0.00218069 0)
(0.184295 0.00383287 0)
(0.168599 0.0031934 0)
(0.0566317 0.00433059 0)
(0.0416202 0.00356335 0)
(0.0306959 0.00223142 0)
(0.0252808 0.000703285 0)
(0.0254015 -0.000696937 0)
(0.0298599 -0.00160932 0)
(0.0365893 -0.00197377 0)
(0.0437695 -0.00189757 0)
(0.0499632 -0.00156342 0)
(0.0546322 -0.00110719 0)
(0.0575432 -0.000565233 0)
(0.058394 6.54102e-05 0)
(0.0568102 0.000806647 0)
(0.0525977 0.001558 0)
(0.0458018 0.00212575 0)
(0.0373635 0.00229998 0)
(0.028946 0.00191816 0)
(0.0230336 0.00105216 0)
(0.0208014 -8.14222e-05 0)
(0.0229367 -0.00119688 0)
(0.028649 -0.00208523 0)
(0.0371885 -0.00263568 0)
(0.0471383 -0.00297449 0)
(0.0579154 -0.00334053 0)
(0.0708633 -0.00421175 0)
(0.0874675 -0.00596834 0)
(0.114797 -0.00955913 0)
(0.153429 -0.0133915 0)
(0.213303 -0.0195487 0)
(0.289413 -0.0211675 0)
(0.364977 -0.00616583 0)
(0.338085 0.0100281 0)
(0.292908 0.0125896 0)
(0.246088 0.0094121 0)
(0.223271 0.00507795 0)
(0.211441 0.00199847 0)
(0.208385 0.000569191 0)
(0.207803 0.000143509 0)
(0.206885 0.000287283 0)
(0.204826 0.000790885 0)
(0.200364 0.00148833 0)
(0.193858 0.00222625 0)
(0.184361 0.00400324 0)
(0.168941 0.00332935 0)
(0.0565689 0.00698636 0)
(0.041456 0.0058157 0)
(0.0304707 0.00374137 0)
(0.0250467 0.00137955 0)
(0.0252176 -0.000639338 0)
(0.0297588 -0.00202664 0)
(0.0365617 -0.00255767 0)
(0.0437911 -0.00231131 0)
(0.0500169 -0.0016948 0)
(0.0547101 -0.00094147 0)
(0.057634 -9.4342e-05 0)
(0.058499 0.000927812 0)
(0.0569287 0.002041 0)
(0.0526978 0.00322541 0)
(0.0458529 0.00413912 0)
(0.0373432 0.00443745 0)
(0.0288496 0.0038504 0)
(0.0228752 0.00247552 0)
(0.0206215 0.000744111 0)
(0.0227759 -0.000984492 0)
(0.0285328 -0.00231177 0)
(0.0371192 -0.0031476 0)
(0.0470941 -0.0036294 0)
(0.0578468 -0.00416955 0)
(0.0706815 -0.00552961 0)
(0.087053 -0.00850355 0)
(0.114215 -0.0140714 0)
(0.152609 -0.0202922 0)
(0.212966 -0.0296931 0)
(0.290688 -0.0334515 0)
(0.368086 -0.00615892 0)
(0.339476 0.0142487 0)
(0.293211 0.017234 0)
(0.245529 0.0130338 0)
(0.222631 0.00799474 0)
(0.211009 0.00372045 0)
(0.208126 0.00205872 0)
(0.20772 0.00160497 0)
(0.20694 0.00171469 0)
(0.204965 0.00237892 0)
(0.200556 0.00325136 0)
(0.194058 0.00454871 0)
(0.184875 0.00675085 0)
(0.170571 0.00680103 0)
(0.0563608 0.010896 0)
(0.0408413 0.00888862 0)
(0.0296308 0.00544808 0)
(0.0242446 0.00149722 0)
(0.0246039 -0.00220839 0)
(0.0294079 -0.00456884 0)
(0.036533 -0.0055112 0)
(0.0439949 -0.00539921 0)
(0.0503071 -0.00460451 0)
(0.055018 -0.00347143 0)
(0.0579952 -0.00209368 0)
(0.058908 -0.000507957 0)
(0.0573565 0.00142268 0)
(0.0531037 0.00335336 0)
(0.0461011 0.00480471 0)
(0.037301 0.00523861 0)
(0.0284782 0.00424515 0)
(0.0222963 0.00203167 0)
(0.0199836 -0.000900626 0)
(0.0222136 -0.00377691 0)
(0.028145 -0.00608691 0)
(0.0368847 -0.00748112 0)
(0.0469129 -0.00831767 0)
(0.0574229 -0.00916817 0)
(0.0698281 -0.0113455 0)
(0.0853859 -0.0155687 0)
(0.111878 -0.024614 0)
(0.149888 -0.0343796 0)
(0.212071 -0.0511726 0)
(0.295705 -0.0545446 0)
(0.378504 -0.0182179 0)
(0.343168 0.0280066 0)
(0.29232 0.0344796 0)
(0.243299 0.0254312 0)
(0.220814 0.012595 0)
(0.210079 0.00436238 0)
(0.208112 0.000379021 0)
(0.207776 -0.000820724 0)
(0.207008 -0.000334767 0)
(0.20513 0.00105117 0)
(0.200932 0.00302565 0)
(0.194576 0.00463671 0)
(0.185826 0.00850957 0)
(0.173743 0.00767406 0)
(0.0559818 0.0161484 0)
(0.0399146 0.0133287 0)
(0.0283765 0.00842953 0)
(0.0228846 0.00285088 0)
(0.0235157 -0.00208327 0)
(0.0288249 -0.0053567 0)
(0.0363258 -0.0065868 0)
(0.0440503 -0.00608761 0)
(0.050569 -0.00471779 0)
(0.0554229 -0.00300985 0)
(0.0584661 -0.00107872 0)
(0.0594867 0.00121496 0)
(0.0580215 0.00385208 0)
(0.0536599 0.00664738 0)
(0.0463868 0.00880527 0)
(0.0371844 0.00950383 0)
(0.0279432 0.00810313 0)
(0.021418 0.00487556 0)
(0.0189826 0.000762027 0)
(0.0213162 -0.00331425 0)
(0.0274979 -0.00644956 0)
(0.0364981 -0.00835681 0)
(0.0466396 -0.0093673 0)
(0.0570191 -0.010461 0)
(0.0688761 -0.0133189 0)
(0.0833343 -0.0197508 0)
(0.108805 -0.0327635 0)
(0.145571 -0.0480101 0)
(0.21083 -0.072108 0)
(0.30236 -0.081161 0)
(0.395912 -0.0171263 0)
(0.350898 0.0380234 0)
(0.291639 0.0449736 0)
(0.238973 0.0328787 0)
(0.217018 0.0181429 0)
(0.207824 0.0073377 0)
(0.207342 0.00300378 0)
(0.207391 0.00199383 0)
(0.207179 0.00238862 0)
(0.205701 0.00403455 0)
(0.201674 0.006302 0)
(0.195398 0.00894901 0)
(0.186531 0.0128121 0)
(0.17492 0.0142006 0)
(0.0555741 0.0202475 0)
(0.0386513 0.0165057 0)
(0.0266523 0.0100527 0)
(0.0212767 0.00263155 0)
(0.0223 -0.00413257 0)
(0.0281324 -0.00840511 0)
(0.036315 -0.00999914 0)
(0.044519 -0.00959037 0)
(0.0511889 -0.00798674 0)
(0.0560564 -0.0058846 0)
(0.0591903 -0.0034075 0)
(0.0602939 -0.000490704 0)
(0.0588733 0.00303524 0)
(0.0544894 0.00667299 0)
(0.0469057 0.00946763 0)
(0.0371126 0.0103589 0)
(0.0271884 0.0085366 0)
(0.0202387 0.00438371 0)
(0.0176796 -0.00109022 0)
(0.0201672 -0.00643292 0)
(0.0267122 -0.0106076 0)
(0.0360497 -0.0130225 0)
(0.0463203 -0.0142617 0)
(0.0563383 -0.0154135 0)
(0.0671632 -0.0188897 0)
(0.0800624 -0.0264531 0)
(0.10401 -0.0427357 0)
(0.139704 -0.0621214 0)
(0.209054 -0.0971623 0)
(0.307594 -0.107921 0)
(0.410135 -0.0301578 0)
(0.356663 0.0580942 0)
(0.290673 0.0660898 0)
(0.234813 0.0447669 0)
(0.212662 0.0211582 0)
(0.205342 0.00677709 0)
(0.20685 0.000698028 0)
(0.207324 -0.000975043 0)
(0.20731 -0.00013957 0)
(0.206048 0.00233233 0)
(0.202316 0.00583631 0)
(0.19623 0.00889526 0)
(0.18765 0.0146139 0)
(0.176326 0.0141115 0)
(0.0548844 0.0262562 0)
(0.0370237 0.0215607 0)
(0.0244372 0.0134586 0)
(0.0188726 0.00430132 0)
(0.0204157 -0.00389109 0)
(0.0271616 -0.00914628 0)
(0.0359849 -0.0110007 0)
(0.044621 -0.0100688 0)
(0.0516269 -0.00779485 0)
(0.0567215 -0.00506976 0)
(0.0599768 -0.0020658 0)
(0.0612881 0.00147277 0)
(0.060045 0.00573354 0)
(0.0554882 0.0103653 0)
(0.0474299 0.0140046 0)
(0.0369191 0.0152322 0)
(0.0262555 0.0129428 0)
(0.0186891 0.00762858 0)
(0.015925 0.000857697 0)
(0.0186335 -0.00580659 0)
(0.0256498 -0.010829 0)
(0.0354687 -0.0137186 0)
(0.0459592 -0.0149484 0)
(0.0557802 -0.0160731 0)
(0.0657057 -0.0198452 0)
(0.0767822 -0.0293518 0)
(0.0987304 -0.0500613 0)
(0.132052 -0.0769094 0)
(0.204904 -0.121781 0)
(0.303445 -0.137152 0)
(0.415887 -0.0275936 0)
(0.355326 0.07009 0)
(0.281953 0.0772035 0)
(0.225653 0.0562318 0)
(0.207162 0.0276195 0)
(0.202274 0.00926744 0)
(0.205463 0.00285027 0)
(0.20669 0.00198139 0)
(0.207743 0.00272639 0)
(0.206981 0.00543787 0)
(0.203522 0.00922463 0)
(0.197568 0.0133192 0)
(0.188367 0.0185526 0)
(0.176713 0.0212031 0)
(0.0542505 0.0305653 0)
(0.0350249 0.0247863 0)
(0.0217419 0.0148102 0)
(0.0163826 0.00331163 0)
(0.0185355 -0.00685404 0)
(0.0261242 -0.0131254 0)
(0.0360211 -0.0152253 0)
(0.0454183 -0.0142761 0)
(0.0526303 -0.0116617 0)
(0.0577024 -0.00852414 0)
(0.0610475 -0.00496743 0)
(0.0624934 -0.000687827 0)