/*--------------------------------*- C++ -*----------------------------------*\
| =========                 |                                                 |
| \\      /  F ield         | OpenFOAM: The Open Source CFD Toolbox           |
|  \\    /   O peration     | Version:  v1912                                 |
|   \\  /    A nd           | Website:  www.openfoam.com                      |
|    \\/     M anipulation  |                                                 |
\*---------------------------------------------------------------------------*/
FoamFile
{
    version     2.0;
    format      ascii;
    class       volScalarField;
    location    "60";
    object      p_rgh;
}
// * * * * * * * * * * * * * * * * * * * * * * * * * * * * * * * * * * * * * //

dimensions      [1 -1 -2 0 0 0 0];


internalField   nonuniform List<scalar> 
14268
(
88.9901
85.4182
67.0953
38.9088
10.2889
-10.7847
-24.2361
-31.0515
-34.6054
-39.2568
-45.6819
-52.6945
-56.7534
-55.4526
-49.5158
-41.9362
-38.6477
-42.8046
-52.6321
-64.6082
-72.5148
-76.9125
-78.767
-84.7322
-96.4563
-115.078
-140.063
-177.556
-212.856
-219.336
-205.989
-172.61
-135.592
-102.759
-70.092
-38.1952
-10.1701
11.0924
24.5078
30.3494
30.146
25.6132
17.4227
7.60024
88.9918
85.4197
67.0961
38.9088
10.2883
-10.7855
-24.2368
-31.0518
-34.6054
-39.2566
-45.6819
-52.6948
-56.754
-55.453
-49.5159
-41.9358
-38.647
-42.8041
-52.632
-64.6085
-72.5152
-76.9127
-78.7668
-84.7319
-96.4562
-115.079
-140.064
-177.558
-212.859
-219.338
-205.991
-172.611
-135.592
-102.759
-70.092
-38.1949
-10.1694
11.0932
24.5086
30.35
30.1465
25.6135
17.4229
7.56503
88.9951
85.4227
67.0978
38.9089
10.2871
-10.7871
-24.2382
-31.0524
-34.6053
-39.2563
-45.6819
-52.6955
-56.7551
-55.454
-49.5161
-41.9349
-38.6457
-42.803
-52.6318
-64.6092
-72.516
-76.913
-78.7663
-84.7312
-96.4559
-115.078
-140.064
-177.561
-212.863
-219.344
-205.994
-172.613
-135.593
-102.76
-70.0923
-38.1943
-10.1681
11.0948
24.5101
30.3513
30.1474
25.6142
17.4232
7.56349
89.0002
85.4272
67.1004
38.9091
10.2854
-10.7896
-24.2402
-31.0533
-34.6052
-39.2559
-45.6819
-52.6965
-56.7567
-55.4553
-49.5164
-41.9336
-38.6436
-42.8013
-52.6315
-64.6101
-72.5171
-76.9135
-78.7656
-84.73
-96.4551
-115.079
-140.066
-177.567
-212.87
-219.352
-205.999
-172.615
-135.594
-102.761
-70.0924
-38.1933
-10.1661
11.0973
24.5125
30.3531
30.1488
25.6151
17.424
7.53146
89.007
85.4332
67.1038
38.9093
10.2831
-10.7928
-24.243
-31.0545
-34.605
-39.2553
-45.6819
-52.6977
-56.7588
-55.4572
-49.5167
-41.9319
-38.6408
-42.799
-52.631
-64.6114
-72.5187
-76.9142
-78.7647
-84.7284
-96.454
-115.079
-140.068
-177.574
-212.879
-219.363
-206.006
-172.618
-135.597
-102.762
-70.0927
-38.1921
-10.1635
11.1006
24.5157
30.3557
30.1506
25.6164
17.4245
7.52846
89.0155
85.4407
67.1081
38.9096
10.2802
-10.7968
-24.2463
-31.056
-34.6047
-39.2545
-45.6818
-52.6993
-56.7615
-55.4594
-49.5171
-41.9297
-38.6374
-42.7962
-52.6305
-64.6129
-72.5206
-76.915
-78.7634
-84.7264
-96.4532
-115.078
-140.071
-177.583
-212.89
-219.376
-206.015
-172.623
-135.599
-102.764
-70.0931
-38.1904
-10.1601
11.1048
24.5196
30.3588
30.153
25.618
17.4258
7.49968
89.0256
85.4496
67.1132
38.9099
10.2768
-10.8016
-24.2504
-31.0578
-34.6045
-39.2536
-45.6818
-52.7012
-56.7647
-55.4622
-49.5176
-41.927
-38.6332
-42.7928
-52.6298
-64.6148
-72.5229
-76.916
-78.762
-84.724
-96.4522
-115.079
-140.074
-177.593
-212.904
-219.393
-206.025
-172.628
-135.602
-102.766
-70.0935
-38.1885
-10.1561
11.1098
24.5244
30.3626
30.1558
25.62
17.4267
7.49504
89.0375
85.4601
67.1192
38.9103
10.2728
-10.8072
-24.2551
-31.0599
-34.6041
-39.2525
-45.6817
-52.7034
-56.7685
-55.4653
-49.5182
-41.9239
-38.6284
-42.7889
-52.629
-64.617
-72.5256
-76.9172
-78.7603
-84.7212
-96.45
-115.079
-140.077
-177.605
-212.92
-219.412
-206.037
-172.634
-135.605
-102.769
-70.0939
-38.1862
-10.1515
11.1156
24.5299
30.367
30.1592
25.6222
17.4284
7.46971
89.051
85.4721
67.1261
38.9108
10.2682
-10.8136
-24.2606
-31.0623
-34.6037
-39.2513
-45.6816
-52.706
-56.7728
-55.469
-49.5189
-41.9204
-38.6228
-42.7844
-52.6281
-64.6195
-72.5287
-76.9186
-78.7584
-84.718
-96.4483
-115.078
-140.081
-177.619
-212.938
-219.433
-206.05
-172.64
-135.609
-102.772
-70.0945
-38.1836
-10.1461
11.1223
24.5362
30.3721
30.1629
25.6248
17.4298
7.46318
89.0664
85.4856
67.1338
38.9113
10.2631
-10.8208
-24.2666
-31.065
-34.6032
-39.2499
-45.6815
-52.7088
-56.7776
-55.473
-49.5196
-41.9164
-38.6166
-42.7793
-52.6271
-64.6223
-72.5321
-76.9201
-78.7562
-84.7146
-96.4468
-115.08
-140.086
-177.635
-212.958
-219.458
-206.066
-172.648
-135.614
-102.775
-70.0951
-38.1807
-10.1401
11.1298
24.5434
30.3777
30.1672
25.6277
17.4318
7.4415
89.0832
85.5006
67.1424
38.9118
10.2573
-10.8288
-24.2734
-31.068
-34.6028
-39.2484
-45.6815
-52.712
-56.7829
-55.4776
-49.5205
-41.9121
-38.6097
-42.7736
-52.626
-64.6254
-72.536
-76.9218
-78.7538
-84.7107
-96.4437
-115.078
-140.09
-177.653
-212.981
-219.485
-206.083
-172.657
-135.619
-102.779
-70.0957
-38.1775
-10.1335
11.1382
24.5513
30.384
30.1719
25.631
17.4337
7.43296
89.1021
85.5171
67.1518
38.9125
10.251
-10.8376
-24.2809
-31.0712
-34.6022
-39.2467
-45.6813
-52.7155
-56.7888
-55.4826
-49.5214
-41.9072
-38.602
-42.7674
-52.6248
-64.6289
-72.5402
-76.9236
-78.7511
-84.7065
-96.4414
-115.079
-140.097
-177.672
-213.006
-219.514
-206.101
-172.666
-135.624
-102.783
-70.0965
-38.1739
-10.1262
11.1473
24.56
30.391
30.1771
25.6345
17.4361
7.41491
89.122
85.535
67.1621
38.9131
10.2441
-10.8472
-24.289
-31.0748
-34.6017
-39.2449
-45.6813
-52.7193
-56.7953
-55.4881
-49.5224
-41.9019
-38.5938
-42.7607
-52.6234
-64.6326
-72.5449
-76.9256
-78.7483
-84.7016
-96.4381
-115.079
-140.103
-177.693
-213.033
-219.547
-206.122
-172.676
-135.63
-102.787
-70.0973
-38.17
-10.1182
11.1573
24.5695
30.3985
30.1827
25.6384
17.4385
7.40456
89.1446
85.5545
67.1732
38.9139
10.2367
-10.8576
-24.2978
-31.0786
-34.6009
-39.2428
-45.6811
-52.7234
-56.8022
-55.4939
-49.5234
-41.8961
-38.5847
-42.7533
-52.622
-64.6367
-72.5499
-76.9278
-78.7451
-84.6963
-96.4357
-115.077
-140.108
-177.715
-213.063
-219.582
-206.144
-172.687
-135.636
-102.792
-70.0982
-38.1658
-10.1095
11.1682
24.5798
30.4068
30.1889
25.6427
17.4413
7.38965
89.1791
85.586
67.1912
38.915
10.2246
-10.8745
-24.3121
-31.0851
-34.6003
-39.2398
-45.681
-52.7302
-56.8136
-55.5036
-49.5254
-41.887
-38.5703
-42.7415
-52.6197
-64.6433
-72.558
-76.9313
-78.7401
-84.6882
-96.4321
-115.082
-140.122
-177.753
-213.111
-219.639
-206.18
-172.705
-135.647
-102.8
-70.0996
-38.159
-10.0955
11.1856
24.5963
30.42
30.1988
25.6495
17.4455
7.37253
89.2358
85.634
67.2187
38.9168
10.2063
-10.9001
-24.3336
-31.0942
-34.5979
-39.2344
-45.6804
-52.7401
-56.8306
-55.5179
-49.5277
-41.8725
-38.5479
-42.7233
-52.616
-64.6533
-72.5703
-76.9367
-78.7323
-84.6754
-96.422
-115.081
-140.138
-177.809
-213.183
-219.726
-206.234
-172.732
-135.662
-102.812
-70.1017
-38.1486
-10.074
11.2126
24.6218
30.4403
30.214
25.66
17.4525
7.34899
89.2935
85.6879
67.2495
38.9187
10.1855
-10.929
-24.3582
-31.1054
-34.5972
-39.2296
-45.6804
-52.7518
-56.8501
-55.5346
-49.5312
-41.8571
-38.5232
-42.7031
-52.6121
-64.6647
-72.5843
-76.9428
-78.7236
-84.661
-96.4148
-115.078
-140.152
-177.871
-213.265
-219.823
-206.295
-172.762
-135.68
-102.824
-70.1041
-38.137
-10.0503
11.2422
24.6501
30.4628
30.2309
25.6716
17.46
7.32639
89.3661
85.748
67.2839
38.921
10.1626
-10.9611
-24.3851
-31.1167
-34.5937
-39.2225
-45.6795
-52.7642
-56.8714
-55.5525
-49.5339
-41.8389
-38.4951
-42.6803
-52.6076
-64.6771
-72.5997
-76.9495
-78.7139
-84.645
-96.4047
-115.077
-140.177
-177.943
-213.356
-219.933
-206.364
-172.795
-135.699
-102.839
-70.1068
-38.1239
-10.0232
11.2761
24.6821
30.4883
30.25
25.685
17.4687
7.30699
89.4347
85.8139
67.3215
38.9233
10.1372
-10.9965
-24.4152
-31.1306
-34.5933
-39.2168
-45.6796
-52.7785
-56.8954
-55.573
-49.5385
-41.8201
-38.4649
-42.6556
-52.6028
-64.6911
-72.6167
-76.957
-78.7036
-84.6287
-96.3955
-115.08
-140.198
-178.02
-213.457
-220.052
-206.439
-172.833
-135.719
-102.855
-70.1098
-38.1099
-9.99441
11.3123
24.7165
30.5157
30.2706
25.699
17.4782
7.28717
89.5237
85.8862
67.3628
38.926
10.1096
-11.035
-24.4474
-31.1438
-34.5887
-39.2081
-45.6785
-52.7934
-56.9207
-55.5943
-49.5414
-41.798
-38.4311
-42.6281
-52.5973
-64.7059
-72.6351
-76.9651
-78.6924
-84.6072
-96.3871
-115.082
-140.221
-178.103
-213.566
-220.183
-206.521
-172.873
-135.744
-102.872
-70.1129
-38.0939
-9.96168
11.3531
24.755
30.5464
30.2935
25.7155
17.4888
7.27073
89.6036
85.9641
67.4073
38.9287
10.0794
-11.0771
-24.4833
-31.1606
-34.5887
-39.2015
-45.6787
-52.8105
-56.9494
-55.6189
-49.5471
-41.7758
-38.3952
-42.5988
-52.5917
-64.7228
-72.6565
-76.9742
-78.6798
-84.5986
-96.3743
-115.077
-140.249
-178.195
-213.686
-220.324
-206.61
-172.916
-135.768
-102.891
-70.1164
-38.0775
-9.9278
11.3957
24.7956
30.5787
30.3178
25.7318
17.5003
7.25434
90.3655
86.5818
67.761
38.954
9.84673
-11.4023
-24.7562
-31.2712
-34.5445
-39.1222
-45.6669
-52.9354
-57.164
-55.7988
-49.5712
-41.5838
-38.1026
-42.3598
-52.5422
-64.8528
-72.8263
-77.0384
-78.5707
-84.6332
-96.24
-115.066
-140.443
-178.938
-214.608
-221.42
-207.313
-173.249
-135.921
-103.071
-70.1515
-37.9454
-9.64975
11.7432
25.1243
30.8405
30.5141
25.8752
17.5923
7.15355
92.8013
88.8439
69.0492
39.0225
8.95935
-12.6325
-25.7939
-31.759
-34.583
-38.9504
-45.6739
-53.4353
-57.9994
-56.5155
-49.7331
-40.9404
-37.0575
-41.5099
-52.386
-65.3425
-73.427
-77.2956
-78.1989
-83.8829
-95.8451
-115.086
-141.337
-181.696
-217.905
-226.564
-209.306
-174.484
-136.48
-103.536
-70.2591
-37.486
-8.66919
12.9933
26.3145
31.7897
31.2264
26.3739
17.9634
7.25842
96.9201
92.3133
71.0049
39.1103
7.5973
-14.494
-27.3299
-32.349
-34.2526
-38.453
-45.5941
-54.1488
-59.2328
-57.5545
-49.8801
-39.8634
-35.4116
-40.1718
-52.1464
-66.1011
-74.3519
-77.6807
-77.6054
-83.0275
-95.3647
-114.995
-142.226
-186.052
-223.778
-231.024
-214.807
-176.506
-137.532
-104.228
-70.2231
-36.6132
-7.07467
14.9396
28.122
33.2094
32.2865
27.1434
18.5182
7.60078
101.932
96.99
73.6193
39.1708
5.67657
-17.1009
-29.489
-33.3562
-34.2217
-37.9892
-45.5498
-55.1862
-61.0086
-59.104
-50.2421
-38.4783
-33.1624
-38.3591
-51.8587
-67.2009
-75.6779
-78.2139
-76.7608
-81.7785
-94.5927
-115.696
-145.327
-191.504
-231.942
-243.315
-217.651
-178.359
-138.477
-105.519
-70.8475
-35.8207
-5.0418
17.5415
30.5332
35.1
33.6863
28.155
19.3049
8.20538
109.495
103.074
76.9623
39.1858
3.14794
-20.4641
-32.1862
-34.1706
-33.5921
-36.9897
-45.3242
-56.4531
-63.2618
-61.0407
-50.5112
-36.5327
-30.1502
-35.931
-51.5072
-68.6814
-77.4511
-78.911
-75.6097
-80.0813
-93.4454
-115.431
-147.012
-198.002
-240.281
-250.031
-228.518
-181.95
-141.218
-106.561
-70.7277
-34.3974
-2.29293
20.934
33.6042
37.4554
35.4344
29.4436
20.3118
9.18901
116.841
110.52
81.0128
39.0637
-0.148738
-24.8071
-35.6759
-35.9254
-33.2182
-35.9462
-45.1202
-58.1234
-66.2386
-63.7025
-51.2086
-34.2037
-26.3461
-32.902
-51.1439
-70.677
-79.8116
-79.7779
-74.0851
-78.002
-92.1187
-115.08
-148.909
-207.872
-252.887
-260.651
-235.796
-185.349
-142.09
-109.216
-71.9047
-33.03
1.07197
25.1562
37.3416
40.2836
37.4733
30.9472
21.4683
10.3942
129.508
119.741
85.8948
38.7779
-4.28423
-30.1305
-39.755
-36.6629
-31.9108
-34.1097
-44.5886
-60.0753
-69.8655
-66.9091
-51.5254
-31.0854
-21.4754
-29.0462
-50.7355
-73.2304
-82.8203
-80.834
-72.118
-75.2361
-90.396
-115.079
-151.231
-212.409
-261.166
-270.536
-241.955
-190.126
-145.837
-110.125
-72.0045
-31.0077
5.22387
30.2827
41.7644
43.542
39.8658
32.6949
22.9081
12.0684
138.03
130.537
91.5616
38.17
-9.51837
-36.8044
-44.8834
-39.0693
-31.0127
-32.0578
-44.0331
-62.5343
-74.4864
-71.1697
-52.9283
-27.553
-15.5169
-24.3644
-50.3876
-76.6218
-86.7842
-82.1252
-69.5814
-71.964
-88.3546
-115.022
-157.737
-224.274
-268.782
-277.465
-248.027
-188.757
-146.367
-114.88
-73.8579
-29.2413
10.361
36.4656
46.9666
47.2626
42.4677
34.6707
24.4972
14.1715
159.806
143.716
98.2137
37.1806
-15.946
-44.8069
-50.7665
-40.3502
-28.7419
-28.7649
-42.9431
-65.364
-80.0741
-76.2912
-53.1142
-22.6794
-7.95096
-18.5317
-50.0094
-80.8737
-91.7072
-83.6017
-66.3027
-67.3653
-86.5059
-113.95
-152.407
-219.388
-274.679
-282.362
-248.403
-193.519
-150.326
-115.91
-74.985
-27.0121
16.5656
43.5463
52.7735
51.3906
45.4001
36.7164
26.2347
16.6011
166.8
158.733
105.772
35.5534
-23.9385
-54.7136
-57.9274
-42.6833
-26.6044
-25.0375
-41.6857
-68.8451
-87.0609
-82.932
-55.9491
-17.5258
1.21167
-11.5144
-49.8005
-86.4665
-98.1878
-85.4151
-62.3743
-63.012
-83.5906
-115.842
-157.06
-224.677
-269.345
-276.83
-244.757
-188.248
-150.817
-123.848
-78.4194
-24.5785
24.0531
52.2573
59.5183
55.8294
48.4848
39.1452
28.3006
20.3664
201.338
177.035
114.554
33.1027
-33.5873
-66.5956
-66.1417
-44.1885
-22.7154
-19.2169
-39.6924
-72.8549
-95.5936
-91.1233
-57.0025
-9.5491
12.7546
-2.89466
-49.644
-93.5089
-106.366
-87.409
-56.9822
-56.2462
-82.4831
-118.859
-156.047
-218.691
-269.456
-280.663
-242.62
-191.273
-157.1
-127.11
-80.6881
-21.6976
32.027
61.3073
66.5449
61.0498
51.6129
41.3903
30.3765
24.6024
214.758
197.781
124.521
30.0489
-45.6782
-80.9114
-76.2802
-46.6741
-18.5731
-15.0951
-37.1014
-77.6531
-105.921
-101.312
-59.8252
-2.22046
27.045
7.58963
-49.7028
-102.505
-116.629
-90.5882
-51.3858
-49.0416
-80.8429
-124.229
-163.696
-214.304
-265.073
-270.92
-239.836
-189.296
-160.451
-138.196
-86.1314
-18.4914
41.125
71.5575
73.5211
64.4026
54.643
43.3422
32.204
28.2284
232.919
221.834
135.358
25.3905
-60.5452
-97.9609
-86.1236
-47.9901
-12.1871
-6.19242
-33.4676
-83.4651
-118.714
-113.031
-62.0861
7.94896
43.4181
20.4933
-50.1449
-114.189
-129.181
-93.3049
-43.8215
-28.7938
-54.7961
-100.741
-129.446
-164.631
-217.349
-254.322
-232.997
-188.163
-164.085
-138.9
-84.4529
-11.4899
55.4887
87.3773
88.8576
78.2259
65.3205
52.3508
39.8316
43.4957
512.269
497.954
432.371
353.152
294.582
270.161
282.38
314.92
345.901
355.259
339.131
305.692
284.292
292.108
332.782
386.488
417.482
409.421
364.714
321.865
317.178
352.47
392.023
398.067
382.138
372.014
378.591
396.168
387.94
395.524
335.227
270.477
235.693
219.042
232.278
270.731
306.121
312.923
302.686
286.673
273.807
261.022
243.003
230.582
943.598
921.181
852.331
771.803
712.73
690.259
704.433
740.844
773.858
784.22
765.04
728.094
702.38
707.223
749.509
806.132
838.81
824.546
771.992
723.952
717.735
752.996
795.855
805.126
781.869
756.108
751.527
759.627
749.912
757.43
729.352
695.653
672.841
665.604
683.765
721.25
755.315
763.707
753.653
740.188
730.109
719.23
704.457
694.737
194.749
184.479
152.876
122.127
104.347
99.9677
106.948
121.645
137.433
146.012
142.671
129.142
120.62
122.694
136.16
157.208
170.893
162.604
137.459
118.398
115.325
125.376
141.761
149.393
138.092
118.999
113.123
123.633
119.068
129.562
137.307
122.663
102.749
94.8592
96.2751
99.7672
100.993
96.8152
89.7973
84.1411
78.3537
70.7161
52.4802
51.6021
-0.454531
-0.414161
-0.238949
-0.00779281
0.161104
0.207454
0.155938
0.045347
-0.0565801
-0.0909923
-0.0299528
0.0942592
0.173159
0.15599
0.0424301
-0.112167
-0.197757
-0.151272
0.0224963
0.177841
0.201778
0.0845038
-0.0440751
-0.06298
0.0578057
0.19207
0.205279
0.101418
-0.0244573
-0.0384137
0.0383539
0.0736393
0.14319
0.151941
0.087722
-0.0595925
-0.230555
-0.307338
-0.315496
-0.29316
-0.265069
-0.24218
-0.172104
-0.0581393
-0.443408
-0.401634
-0.237357
-0.022602
0.14207
0.211949
0.158164
0.0562465
-0.0374559
-0.0764613
-0.0448274
0.061031
0.142371
0.145226
0.0494041
-0.0957584
-0.18986
-0.145466
0.0160924
0.163364
0.21732
0.106429
-0.0304044
-0.0717627
0.0305921
0.1718
0.215447
0.108344
0.020944
-0.0384515
-0.0610099
-0.019684
0.0871496
0.13582
0.097345
-0.0305628
-0.193866
-0.298528
-0.324319
-0.316715
-0.305974
-0.310015
-0.280434
-0.263296
-0.362517
-0.332929
-0.200905
-0.027008
0.108351
0.146063
0.11879
0.0419316
-0.030328
-0.0569241
-0.0123762
0.0731388
0.127527
0.113594
0.0326899
-0.0763777
-0.137236
-0.103075
0.0183514
0.132974
0.141023
0.0738929
-0.00928604
-0.0217885
0.0560197
0.149798
0.161645
0.0915489
0.0021619
-0.0109502
0.0185308
0.0515308
0.100828
0.110405
0.0563599
-0.0546343
-0.185467
-0.261647
-0.276634
-0.267535
-0.248891
-0.224953
-0.186912
-0.0660859
-0.324772
-0.305789
-0.192742
-0.0425005
0.0789904
0.134366
0.112249
0.0492113
-0.0112877
-0.0374504
-0.0151539
0.0434813
0.0937527
0.0955604
0.034573
-0.0566486
-0.110657
-0.0883218
0.0131918
0.109449
0.14115
0.0910685
0.006164
-0.0156064
0.0409203
0.126503
0.156497
0.0939826
0.037464
-0.0109378
-0.0235678
0.00598253
0.0570858
0.0793621
0.042573
-0.0470595
-0.156771
-0.237358
-0.264566
-0.266356
-0.257157
-0.250377
-0.232152
-0.179787
-0.28486
-0.265066
-0.171117
-0.0435988
0.060306
0.104054
0.0872829
0.038632
-0.00998608
-0.0289835
-0.00554135
0.0506312
0.091824
0.0827959
0.0270054
-0.0464291
-0.0883369
-0.0645881
0.0156987
0.0949941
0.115472
0.0675446
0.0142152
0.00448721
0.0522213
0.114032
0.125158
0.0808216
0.0198116
0.00694189
0.0186762
0.0378324
0.0675678
0.0721184
0.0310153
-0.0503074
-0.14925
-0.216093
-0.241053
-0.240646
-0.228569
-0.204004
-0.175957
-0.0791205
-0.247951
-0.237987
-0.160876
-0.0526745
0.0377324
0.0821899
0.0766493
0.0396624
0.001403
-0.0150176
0.00128812
0.036603
0.0664479
0.064658
0.0250551
-0.0326054
-0.0663033
-0.0505949
0.0141317
0.0782811
0.0974563
0.0737645
0.025641
0.0141926
0.0475847
0.098928
0.117312
0.0793496
0.0406941
0.00796196
-0.00450943
0.0158623
0.0381091
0.0448911
0.0107162
-0.0557476
-0.135542
-0.195468
-0.22121
-0.224209
-0.218647
-0.207083
-0.187511
-0.160626
-0.219841
-0.213286
-0.148229
-0.0549797
0.0250332
0.0641483
0.0616601
0.0328897
0.00255725
-0.00970383
0.00460245
0.0378385
0.0629037
0.0573669
0.022421
-0.0247351
-0.052123
-0.0373053
0.0145622
0.0689389
0.0862793
0.0635715
0.0277429
0.0216196
0.0491586
0.0879851
0.0970213
0.0692476
0.0293746
0.0173257
0.0196284
0.0290457
0.0432622
0.0430277
0.0106727
-0.0500117
-0.123115
-0.178981
-0.205238
-0.2098
-0.204609
-0.18455
-0.156422
-0.112131
-0.195263
-0.192918
-0.138473
-0.0589334
0.0106635
0.0481753
0.0507992
0.0306507
0.00733313
-0.00198428
0.0086043
0.0319605
0.0496376
0.0465026
0.020062
-0.0169393
-0.0385476
-0.0265631
0.0150519
0.0593056
0.073616
0.0600198
0.0351556
0.0284695
0.0492625
0.0797477
0.0920334
0.0682455
0.0412955
0.0165889
0.00548806
0.0171816
0.0251687
0.0231883
-0.00698033
-0.0589653
-0.117659
-0.164624
-0.188685
-0.193747
-0.190649
-0.177282
-0.159018
-0.135744
-0.175303
-0.17744
-0.130516
-0.0616807
0.000400206
0.0353913
0.0407282
0.0267405
0.00900351
0.00193538
0.0102828
0.0301187
0.0458796
0.0420726
0.0192252
-0.0105401
-0.0276328
-0.017864
0.0155798
0.0521596
0.0660454
0.0562811
0.0347788
0.0312302
0.0477131
0.0709257
0.0771086
0.0592621
0.0343289
0.0224022
0.0199096
0.0225072
0.0264724
0.0218202
-0.00501533
-0.0509379
-0.105475
-0.150106
-0.17486
-0.181387
-0.178232
-0.16432
-0.137906
-0.116574
-0.160283
-0.163759
-0.123797
-0.0638231
-0.0083442
0.0245562
0.0324775
0.0236528
0.0104517
0.00548074
0.0124818
0.0279472
0.0389701
0.035601
0.0177099
-0.00564365
-0.0195376
-0.0107118
0.0163705
0.0466646
0.058893
0.0527938
0.0389431
0.03541
0.0481623
0.0662775
0.0768961
0.060543
0.0386865
0.0205585
0.0110556
0.0153441
0.0157248
0.00939037
-0.0166887
-0.0580374
-0.102979
-0.140362
-0.162513
-0.168907
-0.166995
-0.155352
-0.139152
-0.119162
-0.149582
-0.15642
-0.119077
-0.0656913
-0.0160105
0.0153376
0.0250364
0.0203492
0.0112238
0.00773457
0.0135976
0.0256959
0.0346478
0.0320361
0.0173221
-0.00127469
-0.0118811
-0.00464169
0.0170524
0.0419935
0.0530169
0.049463
0.0381389
0.035732
0.0457698
0.0592003
0.0624315
0.0509384
0.0355711
0.0238515
0.0191651
0.0170653
0.0150514
0.0070284
-0.0163201
-0.0519939
-0.0932493
-0.128099
-0.150247
-0.157217
-0.155722
-0.144968
-0.125413
-0.110397
-0.142465
-0.150471
-0.115226
-0.0669352
-0.0213664
0.00801096
0.0191824
0.0175943
0.0115997
0.00948708
0.0146814
0.0245376
0.0312489
0.0287555
0.0168393
0.00206623
-0.00651286
-0.000614778
0.0177994
0.0385405
0.0485229
0.0467416
0.0394835
0.0380515
0.0458141
0.0563381
0.0624897
0.0521099
0.0356351
0.0221197
0.0134884
0.0126592
0.00872988
8.30488e-05
-0.0220897
-0.0550115
-0.090605
-0.120748
-0.14063
-0.147468
-0.146604
-0.137594
-0.123023
-0.107162
-0.140871
-0.148872
-0.11309
-0.0682629
-0.0266745
0.00155346
0.0138162
0.0149071
0.0116148
0.0106738
0.0150434
0.0228129
0.028177
0.0261665
0.0165619
0.00491938
-0.00141456
0.00394342
0.0184902
0.0355756
0.044439
0.0440997
0.0388331
0.0373361
0.0433421
0.0510061
0.0531197
0.0450156
0.0337681
0.0232928
0.0175607
0.012678
0.00728623
-0.00282347
-0.0233461
-0.0521564
-0.0839361
-0.111156
-0.13023
-0.137174
-0.136666
-0.128561
-0.114535
-0.101469
-0.141328
-0.149249
-0.111391
-0.0692571
-0.0304546
-0.00341522
0.00965073
0.0126544
0.0114404
0.0115055
0.0154856
0.0219767
0.0260532
0.0241679
0.0164619
0.00727728
0.00232103
0.0066375
0.0190975
0.0333353
0.0413501
0.0418391
0.0385429
0.038178
0.0429618
0.048835
0.0516279
0.0445412
0.0327863
0.022012
0.0139666
0.00981379
0.00364699
-0.00661473
-0.0255027
-0.0517661
-0.0804331
-0.104851
-0.122272
-0.129158
-0.129059
-0.122362
-0.110175
-0.0973344
-0.149209
-0.152311
-0.111037
-0.0703141
-0.0337188
-0.00766757
0.00600845
0.0106257
0.0111049
0.0120072
0.015538
0.0207666
0.0240872
0.0226002
0.0164228
0.00918244
0.00557613
0.00951449
0.019679
0.0314834
0.0385878
0.0397611
0.0377793
0.0372074
0.0407203
0.0448573
0.0459261
0.0398394
0.0309501
0.0217741
0.0156155
0.00907012
0.00189613
-0.0090076
-0.0268579
-0.0504941
-0.0759188
-0.0976413
-0.113735
-0.120469
-0.120607
-0.114771
-0.104064
-0.0927052
-0.161209
-0.156404
-0.110862
-0.0705683
-0.0358812
-0.0108394
0.0031301
0.00893718
0.0107332
0.0123254
0.015649
0.0201012
0.022693
0.0214042
0.0164896
0.0108361
0.0081962
0.0114853
0.0200742
0.0299658
0.0363055
0.037898
0.0369006
0.0370123
0.0398855
0.0429926
0.0438506
0.0385375
0.0297315
0.0208258
0.0130587
0.00719534
-0.000245834
-0.0110768
-0.0277192
-0.0492001
-0.072179
-0.0920088
-0.106911
-0.113606
-0.114085
-0.109124
-0.0995328
-0.0888556
-0.176644
-0.161489
-0.111349
-0.0707977
-0.0375127
-0.013332
0.000818559
0.00752038
0.0103391
0.0124774
0.0155664
0.0192936
0.0214704
0.0204711
0.01657
0.0121454
0.0102776
0.0132654
0.0205102
0.028835
0.0344185
0.0362524
0.0359172
0.0360095
0.0380155
0.0399943
0.0400049
0.0351338
0.0279462
0.0199186
0.0133656
0.00616402
-0.00177276
-0.0127027
-0.0283309
-0.0478788
-0.0686536
-0.0864975
-0.0999958
-0.106372
-0.10702
-0.102824
-0.0945238
-0.0850566
-0.194562
-0.165965
-0.111339
-0.0703487
-0.0381864
-0.0150537
-0.000935606
0.00639348
0.00998215
0.0125548
0.0155225
0.0187554
0.0205512
0.0197688
0.0167099
0.0133097
0.0120461
0.0146513
0.0207374
0.0277575
0.0327314
0.0347092
0.0348675
0.0352213
0.0368651
0.0383049
0.038011
0.0336395
0.0266738
0.0189128
0.0116216
0.00482289
-0.00324681
-0.0139762
-0.0286622
-0.0464782
-0.0653077
-0.0815614
-0.0940475
-0.100404
-0.101319
-0.0977414
-0.0903448
-0.0815286
-0.212211
-0.168873
-0.110647
-0.0695959
-0.0383215
-0.0161248
-0.00218789
0.00554222
0.00968448
0.0125743
0.015429
0.0182488
0.0198073
0.0192338
0.0168462
0.0142268
0.0134101
0.0157904
0.0210072
0.02697
0.0313809
0.0333689
0.033806
0.0341801
0.0352573
0.0359906
0.0351723
0.0310264
0.0250111
0.0178588
0.0112271
0.00392502
-0.00441541
-0.0149297
-0.0287564
-0.0450854
-0.0622565
-0.0770661
-0.0884403
-0.0943856
-0.0954282
-0.0924186
-0.0860416
-0.078198
-0.224911
-0.169592
-0.109199
-0.0679846
-0.0377988
-0.0165988
-0.00298295
0.0049474
0.00946646
0.0125764
0.015343
0.0178538
0.0192251
0.0188343
0.0170014
0.0150397
0.01459
0.0167091
0.0211144
0.0261973
0.0300796
0.0320725
0.0327296
0.0331604
0.0339897
0.0343952
0.03339
0.0295291
0.0237501
0.016836
0.00995963
0.0028398
-0.00543753
-0.0156453
-0.028674
-0.0436794
-0.0593161
-0.0728689
-0.0833193
-0.0891571
-0.0904312
-0.0879463
-0.0822746
-0.0751199
-0.230835
-0.167161
-0.105975
-0.065558
-0.0366758
-0.0165338
-0.00336394
0.00460248
0.00934197
0.0125888
0.0152709
0.0175391
0.0187736
0.0185421
0.0171561
0.0156949
0.0154966
0.0174265
0.0212469
0.0256273
0.0290871
0.0309501
0.0316799
0.0320855
0.0325767
0.0325322
0.0312145
0.0274785
0.0222406
0.0157807
0.00924994
0.00211365
-0.00622848
-0.0161342
-0.028414
-0.0422649
-0.0565809
-0.0690256
-0.0786163
-0.0841294
-0.0854752
-0.0833897
-0.0785259
-0.0721878
-0.230528
-0.161555
-0.101843
-0.0625156
-0.03499
-0.0159841
-0.00338236
0.00448379
0.00931528
0.0126279
0.0152234
0.0172955
0.0184264
0.01833
0.0173054
0.0162537
0.0162671
0.018006
0.021267
0.0250067
0.0280463
0.0298443
0.030643
0.0310178
0.031314
0.0310376
0.0296163
0.0260513
0.0210184
0.0148279
0.00828215
0.00123445
-0.0069292
-0.0164932
-0.0280647
-0.0408809
-0.0539998
-0.065455
-0.0742895
-0.0795723
-0.0810875
-0.079454
-0.0751642
-0.0694424
-0.224462
-0.154057
-0.0959625
-0.0584059
-0.0327112
-0.0149864
-0.00305448
0.00457761
0.00938499
0.0127064
0.0152064
0.0171155
0.0181661
0.0181835
0.0174507
0.0167195
0.016875
0.0184534
0.0212913
0.0245495
0.0272159
0.0288755
0.0296429
0.0299639
0.0300431
0.0294894
0.027898
0.0244205
0.019679
0.0138363
0.00749789
0.00062616
-0.00743091
-0.0166656
-0.0275758
-0.0394802
-0.0515425
-0.0621251
-0.0702874
-0.075299
-0.0768801
-0.0755381
-0.0718701
-0.0668152
-0.214181
-0.14277
-0.088963
-0.0540568
-0.0300962
-0.0136329
-0.00245882
0.0048557
0.00960955
0.0128279
0.0152217
0.0169909
0.017976
0.0180852
0.0175848
0.017104
0.0173666
0.018797
0.0212491
0.0240394
0.0264029
0.0279211
0.0286698
0.0289188
0.02885
0.0281119
0.0264626
0.0231086
0.0185375
0.0129573
0.00672029
-4.8958e-05
-0.00788689
-0.0167792
-0.0270632
-0.0381387
-0.0492542
-0.0590417
-0.0666032
-0.0713614
-0.0730341
-0.0720636
-0.0688729
-0.0643565
-0.199669
-0.130157
-0.0811101
-0.0487061
-0.0269424
-0.0119245
-0.0016041
0.00529183
0.0099062
0.0129973
0.0152725
0.0169147
0.0178428
0.0180251
0.0177092
0.0174228
0.0177579
0.0190534
0.0211894
0.0236292
0.0256998
0.0270675
0.0277382
0.0279102
0.0277071
0.0267879
0.0250556
0.0217785
0.0173727
0.0120623
0.00598593
-0.000576875
-0.00818352
-0.0167412
-0.0264452
-0.0367827
-0.0470574
-0.0561351
-0.063169
-0.0676848
-0.0694112
-0.0686747
-0.0659538
-0.0619901
-0.182154
-0.116166
-0.0718637
-0.0429033
-0.0234552
-0.00996852
-0.000516938
0.00587289
0.0102259
0.013206
0.0153567
0.0168812
0.0177567
0.0179937
0.0178209
0.0176829
0.018064
0.019237
0.0210984
0.0231983
0.025014
0.0262329
0.0268392
0.0269287
0.0266125
0.0255484
0.0237725
0.0205999
0.0163336
0.01126
0.00532453
-0.00108112
-0.00844588
-0.0166718
-0.0258334
-0.0354884
-0.0450057
-0.0534351
-0.0599949
-0.0642826
-0.0660536
-0.0656008
-0.063279
-0.0597642
-0.163827
-0.100592
-0.062753
-0.0373729
-0.0198869
-0.00781917
0.00070752
0.00657355
0.0106392
0.013458
0.0154733
0.0168842
0.0177077
0.0179834
0.0179204
0.0178934
0.0182998
0.0193584
0.0209809
0.0228064
0.0243947
0.025462
0.02598
0.025988
0.0255693
0.0243981
0.0225686
0.0194831
0.0153274
0.0104692
0.00470217
-0.00152115
-0.0086118
-0.0164982
-0.0251555
-0.0341999
-0.043045
-0.0508887
-0.0570249
-0.0610992
-0.0629012
-0.0626415
-0.0606847
-0.057623
-0.143734
-0.0853422
-0.0532346
-0.0308734
-0.016076
-0.0054756
0.00207331
0.00745473
0.0111287
0.01375
0.0156192
0.0169187
0.0176891
0.0179888
0.0180074
0.018061
0.0184761
0.0194294
0.0208457
0.0224248
0.0238005
0.0247371
0.0251568
0.025082
0.0245647
0.0233077
0.0214395
0.0184422
0.0143939
0.00973287
0.00415694
-0.00190263
-0.00872796
-0.0162874
-0.0244788
-0.0329587
-0.0411909
-0.0485066
-0.0542642
-0.0581468
-0.0599673
-0.0599167
-0.0582838
-0.0555932
-0.123391
-0.0703772
-0.043563
-0.024966
-0.0120136
-0.00305776
0.00352445
0.00838432
0.0116811
0.0140755
0.0157901
0.0169783
0.0176938
0.0180047
0.0180813
0.0181906
0.0186015
0.0194552
0.0206868
0.0220476
0.0232364
0.0240367
0.0243676
0.0242165
0.0236127
0.0223011
0.0203869
0.01748
0.0135273
0.0090362
0.0036541
-0.00223827
-0.00879584
-0.0160285
-0.0237839
-0.0317458
-0.0394342
-0.0462668
-0.0516782
-0.0553747
-0.057205
-0.0573132
-0.055972
-0.0536473
-0.103785
-0.0553844
-0.0342901
-0.0184199
-0.00806173
-0.000579493
0.00518657
0.00928541
0.0122672
0.0144272
0.0159817
0.0170586
0.0177172
0.0180272
0.0181426
0.018288
0.0186844
0.0194463
0.020518
0.0216922
0.0227102
0.0233802
0.0236169
0.0233881
0.0226943
0.0213508
0.0193841
0.0165678
0.0127145
0.00838065
0.00319891
-0.00251962
-0.00881875
-0.0157302
-0.0230798
-0.030567
-0.0377554
-0.0441568
-0.0492582
-0.0527955
-0.0546292
-0.0548902
-0.0538058
-0.0517921
-0.0841303
-0.0395767
-0.0250338
-0.0122951
-0.00423776
0.00209776
0.00682505
0.0102642
0.0128794
0.0147982
0.0161891
0.0171548
0.0177527
0.0180529
0.0181907
0.0183554
0.0187294
0.0194033
0.0203273
0.0213272
0.0221876
0.0227413
0.0228889
0.0225973
0.021823
0.020472
0.0184553
0.0157255
0.0119776
0.00777386
0.00279011
-0.00275656
-0.00880951
-0.0154098
-0.0223804
-0.029432
-0.0361775
-0.0421794
-0.0469885
-0.0503668
-0.0521956
-0.0525841
-0.0517325
-0.0500103
-0.0646483
-0.0250009
-0.0147852
-0.0064076
-0.000204625
0.00467838
0.00832899
0.0112561
0.0135041
0.0151817
0.0164077
0.0172626
0.0177975
0.0180791
0.0182263
0.0183979
0.0187433
0.0193362
0.0201337
0.0209876
0.0217109
0.0221445
0.0222069
0.0218442
0.0209916
0.0196346
0.0175714
0.0149218
0.0112813
0.00719932
0.00241075
-0.00295096
-0.00876561
-0.0150617
-0.0216738
-0.0283248
-0.0346582
-0.0403013
-0.0448564
-0.0480975
-0.0499202
-0.0504219
-0.0497736
-0.0483057
-0.0456036
-0.0137137
-0.0059408
-0.000400221
0.00362839
0.00691959
0.00982351
0.0122393
0.0141305
0.0155701
0.0166326
0.0173768
0.0178471
0.018103
0.0182484
0.0184159
0.0187282
0.0192426
0.0199188
0.0206315
0.0212212
0.0215565
0.0215341
0.021121
0.0201994
0.0188562
0.0167514
0.0141806
0.0106567
0.00667594
0.00207299
-0.00310182
-0.00869265
-0.0147031
-0.0209826
-0.0272664
-0.0332318
-0.0385436
-0.0428516
-0.0459581
-0.047766
-0.0483654
-0.0479015
-0.0466687
-0.0281385
-0.0037536
0.000750468
0.00412945
0.00672201
0.00904884
0.0112785
0.0131979
0.0147499
0.0159569
0.0168592
0.0174939
0.0178986
0.0181233
0.0182584
0.018414
0.0186901
0.0191322
0.0197063
0.0203028
0.0207819
0.0210128
0.020916
0.0204409
0.0194452
0.0181256
0.015971
0.0134721
0.0100645
0.00618281
0.00175916
-0.00322376