/*--------------------------------*- C++ -*----------------------------------*\
| =========                 |                                                 |
| \\      /  F ield         | OpenFOAM: The Open Source CFD Toolbox           |
|  \\    /   O peration     | Version:  v1912                                 |
|   \\  /    A nd           | Website:  www.openfoam.com                      |
|    \\/     M anipulation  |                                                 |
\*---------------------------------------------------------------------------*/
FoamFile
{
    version     2.0;
    format      ascii;
    class       volVectorField;
    location    "60";
    object      U;
}
// * * * * * * * * * * * * * * * * * * * * * * * * * * * * * * * * * * * * * //

dimensions      [0 1 -1 0 0 0 0];


internalField   nonuniform List<vector> 
14268
(
(-0.02183 -1.14806e-07 0)
(-0.0200788 -1.81241e-05 0)
(-0.015096 -3.12906e-05 0)
(-0.00815727 -3.57789e-05 0)
(-0.0011467 -3.19181e-05 0)
(0.00437143 -2.2925e-05 0)
(0.00787136 -1.25912e-05 0)
(0.00933636 -4.74533e-06 0)
(0.00975923 -2.41485e-06 0)
(0.0101164 -4.64443e-06 0)
(0.0113006 -8.93531e-06 0)
(0.0133024 -1.21453e-05 0)
(0.0159086 -1.17564e-05 0)
(0.0179013 -8.78263e-06 0)
(0.0194679 -6.07009e-06 0)
(0.0201925 -7.23435e-06 0)
(0.0219912 -1.33587e-05 0)
(0.0247583 -2.11943e-05 0)
(0.0297802 -3.07323e-05 0)
(0.0362037 -4.01597e-05 0)
(0.0453941 -5.52373e-05 0)
(0.0574984 -7.72716e-05 0)
(0.0757605 -0.000116354 0)
(0.102075 -0.000167931 0)
(0.140562 -0.00023736 0)
(0.192177 -0.000298873 0)
(0.261155 -0.000422096 0)
(0.343295 -0.000413378 0)
(0.399808 -0.000260941 0)
(0.440854 -7.97837e-05 0)
(0.419441 0.000149543 0)
(0.380831 0.000244711 0)
(0.326804 0.00027391 0)
(0.281797 0.000227288 0)
(0.248098 0.000173043 0)
(0.222397 0.000126501 0)
(0.203334 9.63132e-05 0)
(0.189554 6.48649e-05 0)
(0.179615 4.77243e-05 0)
(0.173317 1.57197e-05 0)
(0.168154 4.78314e-05 0)
(0.164513 -1.76459e-05 0)
(0.159509 0.000142832 0)
(0.145255 -0.000362625 0)
(-0.0218412 -2.21906e-06 0)
(-0.0200898 -5.50009e-05 0)
(-0.0151069 -9.36336e-05 0)
(-0.00816798 -0.000107286 0)
(-0.00115719 -9.58229e-05 0)
(0.00436089 -6.97718e-05 0)
(0.0078609 -3.81829e-05 0)
(0.00932577 -1.41909e-05 0)
(0.00974847 -6.61065e-06 0)
(0.0101056 -1.27626e-05 0)
(0.0112898 -2.59893e-05 0)
(0.0132917 -3.58646e-05 0)
(0.0158979 -3.50381e-05 0)
(0.0178906 -2.55011e-05 0)
(0.0194572 -1.59872e-05 0)
(0.0201816 -1.91518e-05 0)
(0.0219802 -3.71689e-05 0)
(0.0247473 -6.21986e-05 0)
(0.0297691 -9.07765e-05 0)
(0.0361925 -0.000118526 0)
(0.0453828 -0.000163945 0)
(0.0574866 -0.000230781 0)
(0.0757484 -0.000348324 0)
(0.102062 -0.000503332 0)
(0.14055 -0.000704768 0)
(0.192166 -0.000948058 0)
(0.261146 -0.00118726 0)
(0.343289 -0.00104503 0)
(0.399804 -0.000691138 0)
(0.440856 -0.00015738 0)
(0.419439 0.000509593 0)
(0.380825 0.000700037 0)
(0.326795 0.000713217 0)
(0.281791 0.00059752 0)
(0.248092 0.000450283 0)
(0.222391 0.000345339 0)
(0.203327 0.000244909 0)
(0.189547 0.000184579 0)
(0.179607 0.000120006 0)
(0.173309 0.000102107 0)
(0.168146 4.53485e-05 0)
(0.164506 9.82521e-05 0)
(0.159567 6.68128e-05 0)
(0.145714 0.000420734 0)
(-0.0218532 -2.65423e-06 0)
(-0.0201017 -9.14033e-05 0)
(-0.0151184 -0.000156305 0)
(-0.00817929 -0.000178917 0)
(-0.00116814 -0.000159724 0)
(0.0043501 -0.000115652 0)
(0.00785014 -6.34041e-05 0)
(0.00931474 -2.37437e-05 0)
(0.0097373 -1.15163e-05 0)
(0.0100942 -2.2134e-05 0)
(0.0112785 -4.39168e-05 0)
(0.0132806 -6.01872e-05 0)
(0.015887 -5.8562e-05 0)
(0.0178796 -4.30809e-05 0)
(0.0194462 -2.81814e-05 0)
(0.0201706 -3.37218e-05 0)
(0.021969 -6.40443e-05 0)
(0.0247361 -0.000104565 0)
(0.0297582 -0.000152165 0)
(0.0361816 -0.000198671 0)
(0.0453721 -0.000274142 0)
(0.0574757 -0.000385091 0)
(0.0757379 -0.000580579 0)
(0.102052 -0.000838791 0)
(0.140541 -0.00118244 0)
(0.192158 -0.00151159 0)
(0.261141 -0.00200036 0)
(0.343289 -0.00183697 0)
(0.399809 -0.00119955 0)
(0.440866 -0.000309001 0)
(0.419443 0.000811717 0)
(0.380825 0.00119884 0)
(0.326793 0.00126114 0)
(0.281784 0.00103692 0)
(0.248083 0.00078598 0)
(0.222382 0.000591534 0)
(0.203318 0.000433757 0)
(0.189537 0.000311862 0)
(0.179598 0.000213698 0)
(0.1733 0.000132381 0)
(0.168137 0.000138967 0)
(0.164497 6.46944e-05 0)
(0.159571 0.000339759 0)
(0.145781 -0.000242962 0)
(-0.0218604 -4.3231e-06 0)
(-0.0201089 -0.000127842 0)
(-0.0151251 -0.000218081 0)
(-0.00818541 -0.000249771 0)
(-0.00117393 -0.000222843 0)
(0.00434462 -0.000161696 0)
(0.00784462 -8.82666e-05 0)
(0.00930894 -3.26394e-05 0)
(0.00973127 -1.5306e-05 0)
(0.0100879 -2.97591e-05 0)
(0.0112723 -6.03532e-05 0)
(0.0132745 -8.32125e-05 0)
(0.0158812 -8.11821e-05 0)
(0.0178738 -5.92322e-05 0)
(0.0194404 -3.75416e-05 0)
(0.0201646 -4.50453e-05 0)
(0.0219629 -8.70302e-05 0)
(0.0247299 -0.000144905 0)
(0.0297522 -0.000211396 0)
(0.0361757 -0.000276509 0)
(0.0453661 -0.000382258 0)
(0.0574694 -0.000537486 0)
(0.0757313 -0.000810599 0)
(0.102046 -0.00117161 0)
(0.140534 -0.00163178 0)
(0.192151 -0.00220681 0)
(0.261139 -0.00281443 0)
(0.343293 -0.0025267 0)
(0.39982 -0.00165091 0)
(0.440886 -0.000399354 0)
(0.419454 0.00116309 0)
(0.380828 0.00165469 0)
(0.326793 0.00172484 0)
(0.281779 0.0014342 0)
(0.248076 0.00107936 0)
(0.222375 0.000820805 0)
(0.203311 0.000587965 0)
(0.18953 0.000435304 0)
(0.179592 0.000289007 0)
(0.173294 0.000220484 0)
(0.168133 0.00014048 0)
(0.164492 0.000175864 0)
(0.15962 0.000277797 0)
(0.146137 0.000442771 0)
(-0.0218644 -5.06532e-06 0)
(-0.0201126 -0.000164508 0)
(-0.0151284 -0.000281056 0)
(-0.00818792 -0.00032173 0)
(-0.00117588 -0.00028718 0)
(0.00434299 -0.000208009 0)
(0.00784285 -0.000113809 0)
(0.0093069 -4.24166e-05 0)
(0.00972886 -2.04324e-05 0)
(0.0100852 -3.94501e-05 0)
(0.0112696 -7.86977e-05 0)
(0.013272 -0.000108037 0)
(0.0158789 -0.000105084 0)
(0.0178716 -7.7009e-05 0)
(0.0194381 -5.00588e-05 0)
(0.020162 -6.03912e-05 0)
(0.0219601 -0.000115136 0)
(0.0247271 -0.000187879 0)
(0.0297493 -0.000273423 0)
(0.0361728 -0.000356332 0)
(0.0453629 -0.000492213 0)
(0.0574654 -0.000692029 0)
(0.0757263 -0.00104403 0)
(0.10204 -0.00150454 0)
(0.140527 -0.00213041 0)
(0.192147 -0.00276504 0)
(0.261138 -0.00359538 0)
(0.343299 -0.00325742 0)
(0.399834 -0.0021367 0)
(0.440912 -0.000535467 0)
(0.419468 0.00147836 0)
(0.380833 0.00212989 0)
(0.326793 0.00221839 0)
(0.281775 0.00184245 0)
(0.24807 0.00139974 0)
(0.222368 0.00105693 0)
(0.203305 0.000772052 0)
(0.189526 0.000560267 0)
(0.179588 0.000379775 0)
(0.173291 0.000250572 0)
(0.16813 0.000228576 0)
(0.164491 0.000149148 0)
(0.159639 0.000525578 0)
(0.146283 -0.000104891 0)
(-0.021867 -6.7457e-06 0)
(-0.020115 -0.000201032 0)
(-0.0151302 -0.000343035 0)
(-0.00818876 -0.000392834 0)
(-0.001176 -0.000350468 0)
(0.0043432 -0.000254316 0)
(0.00784306 -0.000139013 0)
(0.0093067 -5.15989e-05 0)
(0.00972818 -2.42895e-05 0)
(0.0100841 -4.71071e-05 0)
(0.0112684 -9.50814e-05 0)
(0.0132711 -0.000130917 0)
(0.0158784 -0.00012781 0)
(0.0178712 -9.34978e-05 0)
(0.0194375 -5.95694e-05 0)
(0.0201609 -7.08469e-05 0)
(0.0219587 -0.000136589 0)
(0.0247255 -0.000227717 0)
(0.0297478 -0.000332228 0)
(0.0361709 -0.000434837 0)
(0.0453605 -0.000600414 0)
(0.0574618 -0.000844085 0)
(0.0757214 -0.00127293 0)
(0.102034 -0.00184373 0)
(0.14052 -0.00257844 0)
(0.192138 -0.00337719 0)
(0.261135 -0.00439329 0)
(0.343306 -0.0039891 0)
(0.399852 -0.00260744 0)
(0.440945 -0.000642329 0)
(0.419487 0.00181628 0)
(0.38084 0.00261413 0)
(0.326792 0.0027435 0)
(0.28177 0.00226472 0)
(0.248063 0.00170386 0)
(0.222362 0.00129479 0)
(0.2033 0.000929932 0)
(0.189522 0.000682914 0)
(0.179585 0.000457408 0)
(0.173288 0.000336561 0)
(0.168129 0.000236936 0)
(0.16449 0.000250645 0)
(0.159684 0.000488632 0)
(0.14658 0.000452087 0)
(-0.0218694 -7.5953e-06 0)
(-0.0201171 -0.000237736 0)
(-0.0151315 -0.000406037 0)
(-0.00818904 -0.000464758 0)
(-0.00117533 -0.000414926 0)
(0.00434419 -0.000300826 0)
(0.00784399 -0.000164647 0)
(0.00930716 -6.14835e-05 0)
(0.00972802 -2.97971e-05 0)
(0.0100836 -5.71936e-05 0)
(0.0112677 -0.000114187 0)
(0.0132708 -0.000156696 0)
(0.0158784 -0.000152145 0)
(0.0178715 -0.000111469 0)
(0.0194375 -7.22801e-05 0)
(0.0201604 -8.75365e-05 0)
(0.0219577 -0.000166786 0)
(0.0247242 -0.000272121 0)
(0.0297465 -0.000395777 0)
(0.0361693 -0.000515357 0)
(0.0453581 -0.000711948 0)
(0.0574579 -0.00100148 0)
(0.0757157 -0.00151061 0)
(0.102026 -0.00218016 0)
(0.140512 -0.00307045 0)
(0.192128 -0.00409102 0)
(0.261131 -0.00523374 0)
(0.343314 -0.00471137 0)
(0.399873 -0.00308419 0)
(0.440984 -0.000763226 0)
(0.419509 0.00214478 0)
(0.380847 0.00308321 0)
(0.326792 0.00320919 0)
(0.281766 0.00266388 0)
(0.248056 0.00202034 0)
(0.222356 0.00152332 0)
(0.203295 0.00111016 0)
(0.189519 0.000811397 0)
(0.179583 0.000546258 0)
(0.173286 0.00036989 0)
(0.168128 0.000316621 0)
(0.164491 0.000234586 0)
(0.15971 0.000702081 0)
(0.146761 4.16745e-05 0)
(-0.0218719 -8.81381e-06 0)
(-0.0201194 -0.000273902 0)
(-0.0151328 -0.000467776 0)
(-0.00818914 -0.000535702 0)
(-0.00117441 -0.000477947 0)
(0.00434557 -0.000346392 0)
(0.0078453 -0.000189257 0)
(0.00930793 -6.99347e-05 0)
(0.00972798 -3.24868e-05 0)
(0.0100831 -6.37222e-05 0)
(0.0112671 -0.000128905 0)
(0.0132706 -0.00017773 0)
(0.0158786 -0.000173912 0)
(0.0178719 -0.000127124 0)
(0.0194376 -8.09981e-05 0)
(0.0201597 -9.59791e-05 0)
(0.0219567 -0.000185556 0)
(0.024723 -0.000309702 0)
(0.0297452 -0.000452358 0)
(0.0361675 -0.000593058 0)
(0.0453554 -0.000819321 0)
(0.0574535 -0.00115134 0)
(0.0757093 -0.00173725 0)
(0.102018 -0.00250844 0)
(0.140501 -0.00349697 0)
(0.192123 -0.0045452 0)
(0.26113 -0.00597081 0)
(0.343325 -0.00542974 0)
(0.399898 -0.00355476 0)
(0.44103 -0.00088173 0)
(0.419534 0.00247249 0)
(0.380856 0.0035551 0)
(0.326791 0.00371468 0)
(0.28176 0.00308267 0)
(0.248049 0.00232355 0)
(0.222349 0.0017674 0)
(0.20329 0.00127157 0)
(0.189515 0.000928549 0)
(0.179581 0.000624919 0)
(0.173284 0.000452241 0)
(0.168128 0.000334909 0)
(0.164492 0.000323984 0)
(0.159752 0.000697786 0)
(0.147019 0.000456224 0)
(-0.0218749 -1.05171e-05 0)
(-0.0201219 -0.000311457 0)
(-0.0151343 -0.000531439 0)
(-0.0081893 -0.000608215 0)
(-0.00117327 -0.000542826 0)
(0.0043472 -0.000394106 0)
(0.00784681 -0.000215857 0)
(0.00930885 -8.1099e-05 0)
(0.00972797 -3.9885e-05 0)
(0.0100826 -7.56417e-05 0)
(0.0112665 -0.000150443 0)
(0.0132703 -0.000206081 0)
(0.0158789 -0.000199751 0)
(0.0178725 -0.000146508 0)
(0.0194377 -9.52095e-05 0)
(0.0201593 -0.000115405 0)
(0.0219556 -0.00021902 0)
(0.0247215 -0.000356779 0)
(0.0297436 -0.000518239 0)
(0.0361654 -0.000673505 0)
(0.0453523 -0.000930033 0)
(0.0574484 -0.0013077 0)
(0.0757018 -0.00197208 0)
(0.102008 -0.00284767 0)
(0.140487 -0.00403309 0)
(0.192104 -0.0053048 0)
(0.261124 -0.00681625 0)
(0.343335 -0.00615919 0)
(0.399926 -0.00403282 0)
(0.44108 -0.00099582 0)
(0.419562 0.0028055 0)
(0.380865 0.00403092 0)
(0.32679 0.00421095 0)
(0.281754 0.00348476 0)
(0.24804 0.00263973 0)
(0.222342 0.00199317 0)
(0.203284 0.0014509 0)
(0.189511 0.00106318 0)
(0.179578 0.000713215 0)
(0.173282 0.000488661 0)
(0.168127 0.000402941 0)
(0.164493 0.000320068 0)
(0.159781 0.000871355 0)
(0.147236 0.000189874 0)
(-0.0218781 -1.02919e-05 0)
(-0.0201248 -0.00034611 0)
(-0.0151359 -0.000591712 0)
(-0.0081894 -0.000677791 0)
(-0.00117206 -0.000604844 0)
(0.004349 -0.000437749 0)
(0.00784848 -0.000238766 0)
(0.00930986 -8.74257e-05 0)
(0.00972797 -3.97669e-05 0)
(0.010082 -7.94255e-05 0)
(0.0112658 -0.000161806 0)
(0.0132701 -0.000223671 0)
(0.0158792 -0.000219145 0)
(0.017873 -0.000159878 0)
(0.0194378 -0.000101378 0)
(0.0201584 -0.000120135 0)
(0.0219542 -0.000233756 0)
(0.0247199 -0.000391182 0)
(0.0297419 -0.0005721 0)
(0.0361632 -0.000751167 0)
(0.0453489 -0.00103793 0)
(0.0574427 -0.00145967 0)
(0.0756935 -0.00220241 0)
(0.101997 -0.00318277 0)
(0.140478 -0.00444876 0)
(0.192095 -0.00589633 0)
(0.26112 -0.00762984 0)
(0.343346 -0.00689932 0)
(0.399956 -0.00450968 0)
(0.441136 -0.00111627 0)
(0.419592 0.0031375 0)
(0.380875 0.00451348 0)
(0.326789 0.00471487 0)
(0.281747 0.00390426 0)
(0.248031 0.00294433 0)
(0.222333 0.0022346 0)
(0.203277 0.00160892 0)
(0.189506 0.00117474 0)
(0.179575 0.000793494 0)
(0.17328 0.000569745 0)
(0.168127 0.000434498 0)
(0.164494 0.000396291 0)
(0.159818 0.000903333 0)
(0.147496 0.00046202 0)
(-0.0218817 -1.42447e-05 0)
(-0.0201279 -0.000386143 0)
(-0.0151377 -0.000657982 0)
(-0.00818949 -0.000752777 0)
(-0.00117074 -0.000671697 0)
(0.00435101 -0.000488256 0)
(0.00785038 -0.00026794 0)
(0.00931101 -0.000101641 0)
(0.00972804 -5.09868e-05 0)
(0.0100814 -9.51504e-05 0)
(0.0112649 -0.000187763 0)
(0.0132697 -0.000256489 0)
(0.0158795 -0.000248354 0)
(0.0178737 -0.000182563 0)
(0.0194381 -0.000119253 0)
(0.0201579 -0.000144427 0)
(0.0219528 -0.000272218 0)
(0.0247179 -0.000442113 0)
(0.0297399 -0.000641252 0)
(0.0361606 -0.000831633 0)
(0.045345 -0.00114862 0)
(0.0574364 -0.00161453 0)
(0.0756842 -0.00243399 0)
(0.101984 -0.00351757 0)
(0.140461 -0.00493015 0)
(0.192084 -0.00640031 0)
(0.261119 -0.00833882 0)
(0.343361 -0.00757577 0)
(0.399991 -0.00497887 0)
(0.441199 -0.00122847 0)
(0.419627 0.00346519 0)
(0.380886 0.0049755 0)
(0.326789 0.00518591 0)
(0.28174 0.0043073 0)
(0.24802 0.00326174 0)
(0.222324 0.00246645 0)
(0.203269 0.00179393 0)
(0.1895 0.00131304 0)
(0.179571 0.000877632 0)
(0.173277 0.000604551 0)
(0.168126 0.000487689 0)
(0.164496 0.000405295 0)
(0.159849 0.00103492 0)
(0.147723 0.000334087 0)
(-0.0218857 -1.07305e-05 0)
(-0.0201315 -0.00041721 0)
(-0.0151398 -0.000714492 0)
(-0.00818957 -0.000818776 0)
(-0.0011693 -0.000730707 0)
(0.00435319 -0.000528175 0)
(0.00785247 -0.000287267 0)
(0.00931215 -0.000103773 0)
(0.00972804 -4.57712e-05 0)
(0.0100807 -9.38091e-05 0)
(0.0112641 -0.000193462 0)
(0.0132695 -0.000268427 0)
(0.0158799 -0.000263295 0)
(0.0178744 -0.000191407 0)
(0.0194382 -0.000120368 0)
(0.0201569 -0.000142844 0)
(0.0219512 -0.000280658 0)
(0.0247159 -0.000471641 0)
(0.0297379 -0.000691044 0)
(0.0361578 -0.00090992 0)
(0.0453408 -0.00125524 0)
(0.0574293 -0.00176469 0)
(0.0756738 -0.00266727 0)
(0.10197 -0.00386021 0)
(0.140442 -0.00544084 0)
(0.192057 -0.00726687 0)
(0.261107 -0.00931432 0)
(0.343374 -0.00838408 0)
(0.400027 -0.0054609 0)
(0.441267 -0.00135622 0)
(0.419664 0.00379681 0)
(0.380898 0.00546161 0)
(0.326788 0.00570504 0)
(0.281731 0.00472299 0)
(0.248008 0.00356152 0)
(0.222314 0.00269952 0)
(0.20326 0.001946 0)
(0.189494 0.00142326 0)
(0.179567 0.000964516 0)
(0.173274 0.000689939 0)
(0.168126 0.000535322 0)
(0.164497 0.000468354 0)
(0.159884 0.00110341 0)
(0.147962 0.000476512 0)
(-0.02189 -1.91942e-05 0)
(-0.0201353 -0.000462176 0)
(-0.0151419 -0.000785905 0)
(-0.00818969 -0.000898632 0)
(-0.00116771 -0.000801716 0)
(0.00435557 -0.000583316 0)
(0.00785478 -0.000321076 0)
(0.00931351 -0.000123492 0)
(0.00972816 -6.35103e-05 0)
(0.0100799 -0.00011621 0)
(0.0112631 -0.000226635 0)
(0.013269 -0.000308414 0)
(0.0158802 -0.000298257 0)
(0.0178752 -0.000220093 0)
(0.0194387 -0.000144915 0)
(0.0201563 -0.000175046 0)
(0.0219495 -0.000326964 0)
(0.0247136 -0.000528917 0)
(0.0297354 -0.000765581 0)
(0.0361547 -0.000990614 0)
(0.0453359 -0.00137061 0)
(0.0574212 -0.00192712 0)
(0.0756626 -0.00289947 0)
(0.101957 -0.00417222 0)
(0.140425 -0.00580952 0)
(0.192053 -0.00760849 0)
(0.26111 -0.00993844 0)
(0.343392 -0.00903344 0)
(0.400068 -0.0059334 0)
(0.441341 -0.00145626 0)
(0.419703 0.00413222 0)
(0.380911 0.00592897 0)
(0.326786 0.0061837 0)
(0.281721 0.00513581 0)
(0.247995 0.0038872 0)
(0.222302 0.00294162 0)
(0.203251 0.00213568 0)
(0.189487 0.00155958 0)
(0.179563 0.00103967 0)
(0.173271 0.000717769 0)
(0.168125 0.000571344 0)
(0.164498 0.000488687 0)
(0.159915 0.0011945 0)
(0.148192 0.000467143 0)
(-0.0218948 -9.79355e-06 0)
(-0.0201394 -0.000486903 0)
(-0.0151443 -0.000835893 0)
(-0.00818981 -0.000958343 0)
(-0.00116601 -0.000855171 0)
(0.00435813 -0.000617294 0)
(0.00785732 -0.000334196 0)
(0.00931475 -0.000118318 0)
(0.00972817 -5.00934e-05 0)
(0.0100792 -0.000106367 0)
(0.0112622 -0.000223256 0)
(0.0132687 -0.000311353 0)
(0.0158807 -0.000305676 0)
(0.017876 -0.000221044 0)
(0.0194388 -0.000137367 0)
(0.020155 -0.0001637 0)
(0.0219474 -0.000325694 0)
(0.0247112 -0.00055016 0)
(0.029733 -0.00080792 0)
(0.0361511 -0.00106512 0)
(0.0453311 -0.00146933 0)
(0.0574136 -0.00206633 0)
(0.0756509 -0.00312498 0)
(0.101941 -0.00452731 0)
(0.140398 -0.00644673 0)
(0.192021 -0.00838983 0)
(0.261096 -0.0108018 0)
(0.343402 -0.00977738 0)
(0.40011 -0.0064025 0)
(0.441421 -0.00159388 0)
(0.419747 0.00445789 0)
(0.380925 0.00641483 0)
(0.326784 0.00671166 0)
(0.28171 0.00553828 0)
(0.247981 0.00417686 0)
(0.22229 0.00316405 0)
(0.203241 0.00228717 0)
(0.18948 0.00167676 0)
(0.179558 0.00113798 0)
(0.173268 0.000813142 0)
(0.168124 0.000636712 0)
(0.164499 0.000542692 0)
(0.159948 0.00129673 0)
(0.148423 0.000505324 0)
(-0.0219024 -3.35831e-05 0)
(-0.020146 -0.000566332 0)
(-0.0151481 -0.000955445 0)
(-0.00818995 -0.00109088 0)
(-0.00116321 -0.000973702 0)
(0.00436235 -0.000712738 0)
(0.00786134 -0.000397741 0)
(0.00931721 -0.000161927 0)
(0.00972845 -9.15662e-05 0)
(0.0100778 -0.000155634 0)
(0.0112604 -0.000289761 0)
(0.0132678 -0.00038815 0)
(0.0158813 -0.00037319 0)
(0.0178773 -0.00027935 0)
(0.0194396 -0.000190386 0)
(0.0201542 -0.000229502 0)
(0.0219445 -0.00041275 0)
(0.0247073 -0.00065175 0)
(0.0297287 -0.000934373 0)
(0.0361458 -0.00119748 0)
(0.0453227 -0.00165356 0)
(0.0573997 -0.00232134 0)
(0.0756309 -0.00349158 0)
(0.101916 -0.00503424 0)
(0.140388 -0.00690057 0)
(0.191984 -0.00935434 0)
(0.261069 -0.0121751 0)
(0.343419 -0.0109478 0)
(0.400176 -0.00715933 0)
(0.441545 -0.00173613 0)
(0.419814 0.00496479 0)
(0.380946 0.0071033 0)
(0.326782 0.00737092 0)
(0.281691 0.00615723 0)
(0.247955 0.00467768 0)
(0.222268 0.00354087 0)
(0.203223 0.00256131 0)
(0.189468 0.00186032 0)
(0.179551 0.00122941 0)
(0.173262 0.000834591 0)
(0.168121 0.000663273 0)
(0.164501 0.000576761 0)
(0.159995 0.00137846 0)
(0.148805 0.000622403 0)
(-0.0219143 -1.28555e-06 0)
(-0.0201563 -0.000601457 0)
(-0.0151541 -0.00104061 0)
(-0.00819018 -0.00119441 0)
(-0.00115909 -0.00106497 0)
(0.00436878 -0.000763982 0)
(0.00786729 -0.000407615 0)
(0.00932005 -0.000134481 0)
(0.00972821 -4.71279e-05 0)
(0.0100755 -0.000117252 0)
(0.011258 -0.000263311 0)
(0.0132672 -0.000374171 0)
(0.0158827 -0.000369392 0)
(0.0178792 -0.000262647 0)
(0.0194395 -0.000155788 0)
(0.0201504 -0.000186291 0)
(0.0219398 -0.000389453 0)
(0.024702 -0.000675472 0)
(0.0297234 -0.00100145 0)
(0.0361379 -0.00133058 0)
(0.0453109 -0.00183982 0)
(0.0573804 -0.00259401 0)
(0.0756023 -0.00392497 0)
(0.101876 -0.00567443 0)
(0.140329 -0.0080865 0)
(0.191948 -0.0104317 0)
(0.261069 -0.0134938 0)
(0.343466 -0.0122915 0)
(0.400281 -0.00803776 0)
(0.441735 -0.00202616 0)
(0.419912 0.00562052 0)
(0.380972 0.00810269 0)
(0.32677 0.00849769 0)
(0.281663 0.00699478 0)
(0.24792 0.00525307 0)
(0.222237 0.00398045 0)
(0.203196 0.00288881 0)
(0.189449 0.00212759 0)
(0.179539 0.00145259 0)
(0.173254 0.00105077 0)
(0.168119 0.000822321 0)
(0.164504 0.000691876 0)
(0.160056 0.00162296 0)
(0.149252 0.000599134 0)
(-0.0219271 -4.52579e-05 0)
(-0.0201675 -0.0007204 0)
(-0.0151606 -0.00121327 0)
(-0.00819035 -0.00138528 0)
(-0.00115437 -0.0012368 0)
(0.00437601 -0.000905411 0)
(0.00787443 -0.000506114 0)
(0.00932461 -0.000207112 0)
(0.00972895 -0.000117466 0)
(0.010073 -0.000199234 0)
(0.0112551 -0.000368751 0)
(0.0132658 -0.000493324 0)
(0.0158837 -0.000475335 0)
(0.0178815 -0.000356355 0)
(0.0194411 -0.000243268 0)
(0.0201493 -0.00029129 0)
(0.0219346 -0.000523179 0)
(0.0246948 -0.000827153 0)
(0.0297154 -0.00118465 0)
(0.0361283 -0.00152324 0)
(0.0452962 -0.00209842 0)
(0.0573563 -0.00293646 0)
(0.0755677 -0.00441776 0)
(0.101828 -0.00639081 0)
(0.140265 -0.00888979 0)
(0.19187 -0.0117965 0)
(0.261019 -0.0152445 0)
(0.343493 -0.0137689 0)
(0.400392 -0.00906738 0)
(0.441965 -0.00218173 0)
(0.42003 0.00630419 0)
(0.381003 0.00899816 0)
(0.326761 0.00934393 0)
(0.281631 0.0078068 0)
(0.247879 0.00591873 0)
(0.222202 0.00446757 0)
(0.203166 0.00321705 0)
(0.189429 0.00233279 0)
(0.179528 0.00154662 0)
(0.173245 0.0010556 0)
(0.168115 0.000836522 0)
(0.164506 0.000719365 0)
(0.160117 0.00169381 0)
(0.149792 0.000767532 0)
(-0.0219421 2.66385e-06 0)
(-0.0201806 -0.000739435 0)
(-0.0151682 -0.00128264 0)
(-0.00819063 -0.00147237 0)
(-0.00114917 -0.0013123 0)
(0.00438407 -0.000940725 0)
(0.00788193 -0.000499891 0)
(0.00932791 -0.000161788 0)
(0.00972851 -5.42242e-05 0)
(0.0100704 -0.000140535 0)
(0.0112521 -0.000322087 0)
(0.0132649 -0.000459626 0)
(0.0158854 -0.000452882 0)
(0.0178839 -0.000320337 0)
(0.0194411 -0.000187828 0)
(0.0201447 -0.000226957 0)
(0.0219286 -0.000478338 0)
(0.0246882 -0.000830753 0)
(0.0297088 -0.00123419 0)
(0.0361189 -0.00163412 0)
(0.0452822 -0.0022661 0)
(0.0573318 -0.00320459 0)
(0.0755287 -0.00484248 0)
(0.101772 -0.00698484 0)
(0.140178 -0.00987982 0)
(0.191802 -0.0129195 0)
(0.260978 -0.016931 0)
(0.343519 -0.0153272 0)
(0.400509 -0.00997921 0)
(0.44223 -0.00252492 0)
(0.42017 0.00694761 0)
(0.381038 0.0100327 0)
(0.326739 0.0104535 0)
(0.281594 0.00860555 0)
(0.247833 0.00649365 0)
(0.222162 0.00493959 0)
(0.20313 0.00359978 0)
(0.189404 0.0026546 0)
(0.179512 0.00180823 0)
(0.173233 0.0013012 0)
(0.168111 0.0010183 0)
(0.16451 0.000858714 0)
(0.160174 0.00195136 0)
(0.150269 0.000776494 0)
(-0.0219576 -6.04373e-05 0)
(-0.0201943 -0.000878111 0)
(-0.0151758 -0.00147463 0)
(-0.00819096 -0.00168306 0)
(-0.0011435 -0.00150279 0)
(0.0043928 -0.0011005 0)
(0.00789057 -0.000616983 0)
(0.00933396 -0.000255659 0)
(0.00972936 -0.000146818 0)
(0.0100673 -0.00024672 0)
(0.0112482 -0.00045148 0)
(0.0132632 -0.000602021 0)
(0.0158867 -0.00058096 0)
(0.0178868 -0.000437052 0)
(0.0194427 -0.000299946 0)
(0.0201434 -0.000356454 0)
(0.0219223 -0.000637129 0)
(0.0246793 -0.00100675 0)
(0.0296987 -0.00143834 0)
(0.0361068 -0.00185483 0)
(0.0452642 -0.00254404 0)
(0.0573 -0.00355004 0)
(0.0754711 -0.00536421 0)
(0.101673 -0.00778832 0)
(0.140067 -0.0108345 0)
(0.191696 -0.0142904 0)
(0.260965 -0.0183077 0)
(0.343576 -0.0166105 0)
(0.400643 -0.0109584 0)
(0.442522 -0.00261552 0)
(0.420331 0.00764122 0)
(0.381088 0.0108731 0)
(0.32672 0.0114314 0)
(0.281549 0.00948582 0)
(0.24778 0.00715065 0)
(0.222116 0.00537631 0)
(0.203091 0.00385541 0)
(0.189376 0.00279135 0)
(0.179495 0.00185246 0)
(0.173219 0.00127052 0)
(0.168105 0.00100716 0)
(0.164512 0.000852093 0)
(0.160232 0.00199278 0)
(0.15083 0.000892551 0)
(-0.0219756 1.01953e-05 0)
(-0.0202101 -0.000874468 0)
(-0.0151853 -0.00152211 0)
(-0.00819147 -0.00174768 0)
(-0.00113711 -0.00155668 0)
(0.00440246 -0.00111387 0)
(0.00789911 -0.000587802 0)
(0.00933755 -0.000184266 0)
(0.0097286 -5.70675e-05 0)
(0.0100645 -0.000159616 0)
(0.0112447 -0.000376994 0)
(0.0132618 -0.000541411 0)
(0.0158882 -0.000532013 0)
(0.0178896 -0.000373405 0)
(0.0194429 -0.000215364 0)
(0.0201375 -0.000263828 0)
(0.0219145 -0.000563713 0)
(0.0246704 -0.000981737 0)
(0.0296901 -0.00146243 0)
(0.0360935 -0.0019281 0)
(0.0452413 -0.00268197 0)
(0.0572533 -0.00380344 0)
(0.0754082 -0.00572841 0)
(0.101559 -0.00818466 0)
(0.139879 -0.0117221 0)
(0.191587 -0.0155092 0)
(0.260899 -0.0201179 0)
(0.343603 -0.0182048 0)
(0.400788 -0.0118821 0)
(0.44285 -0.00301957 0)
(0.420511 0.0083085 0)
(0.381138 0.0119766 0)
(0.326706 0.012308 0)
(0.281503 0.0102318 0)
(0.247721 0.00775511 0)
(0.222061 0.00591684 0)
(0.203042 0.00432647 0)
(0.18934 0.00319177 0)
(0.179471 0.00217241 0)
(0.173202 0.00155691 0)
(0.168098 0.00121658 0)
(0.164514 0.00103162 0)
(0.160285 0.00224837 0)
(0.151265 0.000959689 0)
(-0.021995 -7.89466e-05 0)
(-0.0202268 -0.00103929 0)
(-0.0151947 -0.00174008 0)
(-0.00819234 -0.00198626 0)
(-0.00113119 -0.00177541 0)
(0.00441195 -0.00130289 0)
(0.00790899 -0.000734224 0)
(0.00934454 -0.00030891 0)
(0.00972912 -0.00018002 0)
(0.0100597 -0.000298341 0)
(0.0112388 -0.000538943 0)
(0.0132592 -0.000715663 0)
(0.0158896 -0.000692707 0)
(0.0178921 -0.000523133 0)
(0.0194433 -0.000360661 0)
(0.0201346 -0.000424884 0)
(0.0219058 -0.000754232 0)
(0.0246581 -0.0011908 0)
(0.0296744 -0.00169776 0)
(0.0360667 -0.00219551 0)
(0.0452023 -0.00300616 0)
(0.0572008 -0.00419261 0)
(0.0753461 -0.00632647 0)
(0.101423 -0.00921853 0)
(0.139704 -0.0127429 0)
(0.191488 -0.01663 0)
(0.260851 -0.0216769 0)
(0.343644 -0.0195358 0)
(0.400964 -0.0129938 0)
(0.443249 -0.00307519 0)
(0.420729 0.0089756 0)
(0.381213 0.0127689 0)
(0.326673 0.0134964 0)
(0.281426 0.0111936 0)
(0.247644 0.00838861 0)
(0.221997 0.00627248 0)
(0.202987 0.00447887 0)
(0.189301 0.0032396 0)
(0.179444 0.00215094 0)
(0.17318 0.00147937 0)
(0.168088 0.00117234 0)
(0.164515 0.000974245 0)
(0.160339 0.00227748 0)
(0.151678 0.00102119 0)
(-0.0221514 0.000648271 0)
(-0.0203624 -0.000803145 0)
(-0.0152758 -0.00187048 0)
(-0.0081965 -0.00220402 0)
(-0.00107612 -0.00189148 0)
(0.00449326 -0.00110874 0)
(0.00797966 -0.000248026 0)
(0.00936762 0.000475886 0)
(0.00971675 0.000732311 0)
(0.0100289 0.000613008 0)
(0.0112091 0.000282786 0)
(0.0132513 -2.20845e-06 0)
(0.0159063 -4.88956e-05 0)
(0.0179153 0.000224657 0)
(0.01944 0.000532583 0)
(0.0200851 0.000515216 0)
(0.0218416 4.81101e-05 0)
(0.0245888 -0.000722086 0)
(0.0296093 -0.00158272 0)
(0.0359882 -0.00237547 0)
(0.0450738 -0.00366813 0)
(0.0570008 -0.00556477 0)
(0.0751615 -0.00876012 0)
(0.101213 -0.0123752 0)
(0.139024 -0.0186333 0)
(0.190442 -0.0263808 0)
(0.260481 -0.0328957 0)
(0.344031 -0.0323118 0)
(0.40255 -0.0179771 0)
(0.4464 -0.00574205 0)
(0.422653 0.0138221 0)
(0.381938 0.021417 0)
(0.327058 0.0200049 0)
(0.281487 0.0152642 0)
(0.247288 0.0126155 0)
(0.221583 0.0108152 0)
(0.202586 0.00874168 0)
(0.188973 0.00685592 0)
(0.179217 0.00499474 0)
(0.173044 0.00394329 0)
(0.168075 0.00297891 0)
(0.164591 0.00270593 0)
(0.160794 0.00412192 0)
(0.15396 0.00188151 0)
(-0.0226804 -0.000791616 0)
(-0.0208229 -0.00331071 0)
(-0.0155237 -0.00513303 0)
(-0.00819559 -0.00579277 0)
(-0.000866172 -0.00521766 0)
(0.00481118 -0.0040182 0)
(0.00829709 -0.00252649 0)
(0.00960249 -0.00148697 0)
(0.00977882 -0.00121311 0)
(0.00995148 -0.00158118 0)
(0.0110909 -0.00224268 0)
(0.0131825 -0.002691 0)
(0.0159443 -0.00256321 0)
(0.0180316 -0.00211593 0)
(0.0195236 -0.0017225 0)
(0.0200473 -0.00195306 0)
(0.0216256 -0.00284031 0)
(0.024269 -0.00390103 0)
(0.0292793 -0.00512211 0)
(0.0355624 -0.00632819 0)
(0.0444554 -0.00830605 0)
(0.0559774 -0.0113102 0)
(0.0735637 -0.0167273 0)
(0.099115 -0.0240809 0)
(0.136793 -0.0329636 0)
(0.188564 -0.042412 0)
(0.259635 -0.0567331 0)
(0.346561 -0.0484884 0)
(0.407908 -0.0356384 0)
(0.456611 -0.00754612 0)
(0.428386 0.0244358 0)
(0.384049 0.0320754 0)
(0.325731 0.0353244 0)
(0.280431 0.0305697 0)
(0.24651 0.021694 0)
(0.2207 0.0150262 0)
(0.201698 0.00990192 0)
(0.188304 0.00672711 0)
(0.178837 0.00412179 0)
(0.172722 0.00244818 0)
(0.167878 0.00202493 0)
(0.164488 0.00135416 0)
(0.161168 0.00382928 0)
(0.156916 0.00251245 0)
(-0.0235501 0.000615993 0)
(-0.0215902 -0.00288727 0)
(-0.0159881 -0.00543372 0)
(-0.00822535 -0.00625244 0)
(-0.000564896 -0.00545902 0)
(0.00526059 -0.0036204 0)
(0.00869552 -0.00152738 0)
(0.00973945 0.000123155 0)
(0.00970189 0.000661192 0)
(0.0097579 0.000260538 0)
(0.0109045 -0.000635278 0)
(0.0131444 -0.00132573 0)
(0.0160548 -0.00133424 0)
(0.0181657 -0.000654131 0)
(0.0195135 6.5727e-05 0)
(0.0197805 -4.28224e-05 0)
(0.0212749 -0.00120204 0)
(0.023915 -0.00291777 0)
(0.028914 -0.00480164 0)
(0.0350642 -0.00652345 0)
(0.0436777 -0.0093346 0)
(0.0546663 -0.0135528 0)
(0.0717173 -0.0210169 0)
(0.0967532 -0.030635 0)
(0.133448 -0.0443422 0)
(0.184451 -0.0602116 0)
(0.259307 -0.0774815 0)
(0.349367 -0.0752399 0)
(0.416462 -0.048147 0)
(0.464991 -0.010678 0)
(0.433185 0.0333849 0)
(0.384413 0.0495838 0)
(0.325656 0.0477289 0)
(0.279129 0.0378751 0)
(0.243818 0.0300535 0)
(0.21884 0.0239498 0)
(0.200439 0.0180825 0)
(0.187593 0.0134955 0)
(0.178284 0.00940428 0)
(0.172304 0.0070172 0)
(0.167704 0.00533739 0)
(0.164639 0.00452507 0)
(0.161634 0.00629931 0)
(0.158526 0.00412741 0)
(-0.0246539 -0.000885433 0)
(-0.0225434 -0.00561315 0)
(-0.0164879 -0.00900117 0)
(-0.00820803 -0.0101539 0)
(-0.0001255 -0.00901015 0)
(0.00591687 -0.00664913 0)
(0.00934606 -0.00381843 0)
(0.0102214 -0.00183017 0)
(0.00981309 -0.00131872 0)
(0.00955562 -0.00204699 0)
(0.010629 -0.00332657 0)
(0.0130106 -0.00421604 0)
(0.0161483 -0.00400886 0)
(0.0183987 -0.00307101 0)
(0.0196531 -0.00218575 0)
(0.0196816 -0.00252924 0)
(0.0208435 -0.00415646 0)
(0.0232917 -0.00621869 0)
(0.0282991 -0.00839064 0)
(0.0342672 -0.010442 0)
(0.0424809 -0.013794 0)
(0.0526265 -0.0190091 0)
(0.0686313 -0.0287153 0)
(0.0925418 -0.0414095 0)
(0.129022 -0.0577066 0)
(0.180134 -0.0787083 0)
(0.255491 -0.106498 0)
(0.349599 -0.0922484 0)
(0.422448 -0.0673222 0)
(0.464162 -0.0139342 0)
(0.427204 0.0501166 0)
(0.377856 0.0630393 0)
(0.319204 0.0650676 0)
(0.275026 0.0533287 0)
(0.24025 0.0380943 0)
(0.215689 0.0269797 0)
(0.197756 0.0184889 0)
(0.185443 0.0129208 0)
(0.176921 0.00831844 0)
(0.171405 0.00542962 0)
(0.167212 0.00420503 0)
(0.16438 0.00293369 0)
(0.161683 0.00573541 0)
(0.159093 0.0039272 0)
(-0.0261909 0.000631734 0)
(-0.0238864 -0.00523123 0)
(-0.017301 -0.00943541 0)
(-0.00824268 -0.0107327 0)
(0.000441003 -0.00930779 0)
(0.00673688 -0.006176 0)
(0.0100511 -0.00261875 0)
(0.0104427 0.000113482 0)
(0.00966014 0.000881584 0)
(0.00922638 7.66942e-05 0)
(0.0103135 -0.00158586 0)
(0.0129217 -0.00279977 0)
(0.01635 -0.00272309 0)
(0.0187018 -0.00145708 0)
(0.0197142 -0.000141424 0)
(0.0192453 -0.000331042 0)
(0.0202072 -0.00227889 0)
(0.022672 -0.00504479 0)
(0.0277055 -0.00790129 0)
(0.0334981 -0.0103479 0)
(0.0412672 -0.0143816 0)
(0.0504841 -0.0207231 0)
(0.065644 -0.0323458 0)
(0.0886382 -0.0475564 0)
(0.123533 -0.0690948 0)
(0.17444 -0.0944412 0)
(0.252181 -0.124559 0)
(0.334477 -0.121591 0)
(0.413511 -0.0779551 0)
(0.423966 -0.009046 0)
(0.401238 0.0544832 0)
(0.356265 0.0783929 0)
(0.306134 0.0739144 0)
(0.264807 0.0615522 0)
(0.233667 0.0480599 0)
(0.21205 0.0367024 0)