/*--------------------------------*- C++ -*----------------------------------*\
| =========                 |                                                 |
| \\      /  F ield         | OpenFOAM: The Open Source CFD Toolbox           |
|  \\    /   O peration     | Version:  v1912                                 |
|   \\  /    A nd           | Website:  www.openfoam.com                      |
|    \\/     M anipulation  |                                                 |
\*---------------------------------------------------------------------------*/
FoamFile
{
    version     2.0;
    format      ascii;
    class       surfaceScalarField;
    location    "50";
    object      alphaPhi0.water;
}
// * * * * * * * * * * * * * * * * * * * * * * * * * * * * * * * * * * * * * //

dimensions      [0 3 -1 0 0 0 0];
oriented        oriented;


internalField   nonuniform List<scalar> 
28285
(
5.91241e-08
-2.0619e-08
1.10597e-08
-5.91616e-09
1.57045e-08
-3.16215e-09
2.10936e-08
-3.9065e-09
2.14215e-08
-7.57704e-10
1.07067e-08
6.18821e-09
5.64503e-09
1.05538e-08
1.18225e-09
9.95857e-09
-5.061e-10
3.47104e-09
2.66103e-10
-6.71385e-10
1.52106e-09
-1.31337e-09
2.66955e-09
6.31654e-11
3.62104e-09
-5.57776e-10
3.41863e-09
5.35866e-12
3.67914e-09
-7.24326e-10
5.22228e-09
-1.04869e-09
6.07186e-09
-1.1102e-09
7.07435e-09
-5.08697e-10
8.26764e-09
-5.47637e-10
9.84544e-09
-2.28659e-10
1.13972e-08
-2.88668e-10
1.25688e-08
-8.82408e-10
1.38076e-08
-1.32263e-09
1.46503e-08
-1.1671e-09
1.52857e-08
-6.35432e-10
1.49788e-08
3.06937e-10
1.46038e-08
3.74972e-10
1.32556e-08
1.34822e-09
8.28544e-08
1.41488e-08
2.34967e-08
5.98016e-08
1.48246e-08
8.22822e-09
4.16439e-08
-2.95293e-08
6.97578e-08
-1.18396e-08
1.21537e-07
-8.26668e-09
2.24877e-07
-1.41156e-08
2.87657e-07
-4.89906e-08
3.35878e-07
-3.46714e-08
2.67183e-07
-4.00799e-08
1.69628e-07
1.19906e-08
6.45477e-08
9.93796e-09
6.62961e-08
8.30857e-09
5.84073e-08
7.9631e-09
5.85612e-08
-8.82462e-11
5.75952e-08
-1.04922e-09
5.38009e-08
-1.21826e-09
4.70432e-08
-9.46063e-10
4.22693e-08
-1.17809e-09
4.65509e-08
-1.78773e-09
5.98695e-08
-2.60819e-09
1.13753e-07
-1.72484e-09
1.75066e-07
6.66645e-09
1.4597e-07
2.03337e-08
1.36856e-07
1.78756e-08
1.20497e-07
3.00831e-10
1.08317e-07
-4.83013e-09
1.16784e-07
-6.75819e-09
1.31319e-07
-3.59899e-09
1.51403e-07
1.04145e-09
1.68455e-07
6.86864e-10
1.79674e-07
-2.16339e-09
1.84589e-07
-6.02317e-09
1.95403e-07
-1.0814e-08
2.03062e-07
-7.65883e-09
2.0049e-07
2.57273e-09
7.24935e-08
3.75855e-10
8.50342e-22
2.72168e-09
-3.04671e-28
8.49886e-22
-1.01832e-29
-9.01394e-31
-5.89273e-31
-2.6512e-32
-9.07558e-32
-2.2504e-33
-7.42368e-32
-1.18622e-33
-5.63716e-32
-6.74379e-34
-3.77919e-32
-3.7949e-34
-2.31906e-32
-2.14171e-34
-1.33294e-32
-1.21971e-34
-7.275e-33
-6.963e-35
-3.79868e-33
-3.94623e-35
-1.90393e-33
-2.19515e-35
-9.16622e-34
-1.18113e-35
-4.23552e-34
-6.08719e-36
-1.8756e-34
-2.98724e-36
-7.94557e-35
-1.39072e-36
-3.21457e-35
-6.11923e-37
-1.24013e-35
-2.54434e-37
-4.55586e-36
-9.98906e-38
-1.59193e-36
-3.70342e-38
-5.28546e-37
-1.29661e-38
-1.66588e-37
-4.28609e-39
-4.98015e-38
-1.33822e-39
-1.4111e-38
-3.94122e-40
-3.78693e-39
-1.09598e-40
-9.61962e-40
-2.8757e-41
-2.31167e-40
-7.11502e-42
-5.25254e-41
-1.66068e-42
-1.12794e-41
-3.65474e-43
-2.28823e-42
-7.5839e-44
-4.38369e-43
-1.48379e-44
-7.92795e-44
-2.73669e-45
-1.35308e-44
-4.75766e-46
-2.17876e-45
-7.79363e-47
-3.30907e-46
-1.20295e-47
-4.73931e-47
-1.7493e-48
-6.39948e-48
-2.39679e-49
-8.14534e-49
-3.0934e-50
-9.77078e-50
-3.76084e-51
-1.10442e-50
-4.30555e-52
-1.17613e-51
-4.64154e-53
-1.17987e-52
-4.71036e-54
-1.11485e-53
-4.50012e-55
-9.921e-55
-4.04692e-56
-8.3138e-56
-3.42591e-57
-6.56003e-57
-2.7299e-58
-4.87333e-58
-2.04736e-59
-3.40813e-59
-1.44524e-60
-2.24353e-60
-9.59955e-62
-1.39004e-61
-6.00085e-63
-8.10516e-63
-3.52871e-64
-4.44722e-64
-1.95259e-65
-2.296e-65
-1.01613e-66
-1.11523e-66
-4.97516e-68
-5.09605e-68
-2.29059e-69
-2.19046e-69
-9.92009e-71
-8.856e-71
-4.03964e-72
-3.36742e-72
-1.54695e-73
-1.20415e-73
-5.57022e-75
-4.04903e-75
-1.88555e-76
-1.28018e-76
-6.00169e-78
-3.80546e-78
-1.79535e-79
-1.06346e-79
-5.04988e-81
-2.79369e-81
-1.33461e-82
-6.89827e-83
-3.3161e-84
-1.60095e-84
-7.74087e-86
-3.49178e-86
-1.69848e-87
-7.15684e-88
-3.50105e-89
-1.37834e-89
-6.78142e-91
-2.49416e-91
-1.23397e-92
-4.24015e-93
-2.10934e-94
-6.7717e-95
-3.38714e-96
-1.01585e-96
-5.10825e-98
-1.43136e-98
-7.23617e-100
-1.89412e-100
-9.62532e-102
-2.35383e-102
-1.20237e-103
-2.74669e-104
-1.41015e-105
-3.00936e-106
-1.55285e-107
-3.09546e-108
-1.60539e-109
-2.98893e-110
-1.55837e-111
-2.7089e-112
-1.42018e-113
-2.3039e-114
-1.21645e-115
-1.83814e-116
-9.80037e-118
-7.17239e-120
-1.37758e-118
1.59699e-07
-1.27203e-07
3.63599e-08
-1.90262e-08
5.08085e-08
-4.52083e-08
6.52165e-08
-2.85957e-08
5.03639e-08
-8.69083e-09
1.14468e-08
2.49454e-08
5.30742e-09
2.70037e-08
3.2359e-09
3.15754e-08
-3.30405e-09
3.1669e-08
-1.44993e-10
-2.12012e-09
1.19121e-09
-2.31991e-09
2.24218e-09
-1.08657e-09
2.74036e-09
-7.27428e-10
2.9623e-09
-4.25712e-10
3.75815e-09
-6.28623e-10
4.72965e-09
-2.50273e-09
6.67199e-09
-1.58715e-09
1.4023e-08
-1.67027e-09
2.36847e-08
-2.16976e-09
2.86037e-08
-2.30274e-09
3.21502e-08
-1.36093e-09
3.575e-08
-4.35869e-09
3.85724e-08
-3.36258e-09
4.14598e-08
-3.06276e-09
4.10818e-08
-1.33242e-09
3.4262e-08
1.63865e-09
2.3637e-08
1.70552e-09
2.03154e-08
4.66979e-09
7.61497e-08
4.26278e-10
1.02991e-07
5.44637e-08
9.82067e-08
-2.28636e-08
5.46038e-08
-2.8482e-08
1.99906e-08
-8.47548e-09
1.88148e-08
-2.62688e-09
3.24829e-08
-4.28785e-09
1.6322e-07
-1.31175e-08
3.45287e-07
-4.21483e-08
2.34035e-07
-3.78115e-08
1.41651e-07
1.55118e-08
2.91289e-08
2.72272e-08
2.143e-08
7.76537e-10
1.63638e-08
8.27745e-10
1.0959e-08
-3.48611e-10
1.0522e-08
-4.42972e-10
1.01e-08
-3.86008e-10
9.3439e-09
-2.18502e-10
8.25019e-09
-7.43512e-10
7.77698e-09
-1.57627e-09
9.04881e-09
-2.75723e-09
1.39696e-08
-1.76879e-09
5.19359e-08
1.07419e-14
1.23115e-07
5.50954e-09
1.26767e-07
9.14774e-09
1.01703e-07
2.61918e-09
5.80138e-08
-1.29633e-09
4.07668e-08
-3.48492e-09
4.30764e-08
-3.26846e-09
5.53356e-08
-7.32418e-11
5.91516e-08
-3.63368e-14
5.47481e-08
-9.8357e-15
5.18249e-08
-2.3947e-09
6.31933e-08
-5.76968e-09
1.32436e-07
-7.90516e-09
1.65649e-07
1.16909e-09
8.93323e-08
1.63644e-09
5.31145e-09
1.09493e-08
0
1.27069e-10
-4.91956e-32
-3.39659e-33
-3.67724e-31
-3.01279e-32
-4.3086e-31
-2.02403e-32
-3.39854e-31
-1.0623e-32
-2.13782e-31
-5.08225e-33
-1.17168e-31
-2.3511e-33
-5.95898e-32
-1.10143e-33
-2.93709e-32
-5.38061e-34
-1.43444e-32
-2.74851e-34
-6.96139e-33
-1.44768e-34
-3.32831e-33
-7.68207e-35
-1.54986e-33
-3.99901e-35
-6.96234e-34
-2.004e-35
-2.99757e-34
-9.56205e-36
-1.23186e-34
-4.31812e-36
-4.82034e-35
-1.83746e-36
-1.79346e-35
-7.36763e-37
-6.33908e-36
-2.78285e-37
-2.12734e-36
-9.90876e-38
-6.77582e-37
-3.32794e-38
-2.04774e-37
-1.05479e-38
-5.87041e-38
-3.15803e-39
-1.59606e-38
-8.92438e-40
-4.11448e-39
-2.38384e-40
-1.00545e-39
-6.01709e-41
-2.32852e-40
-1.4347e-41
-5.10914e-41
-3.23365e-42
-1.06178e-41
-6.88696e-43
-2.08932e-42
-1.38617e-43
-3.89135e-43
-2.63661e-44
-6.85751e-44
-4.73853e-45
-1.14298e-44
-8.04476e-46
-1.80116e-45
-1.28971e-46
-2.68255e-46
-1.95205e-47
-3.77454e-47
-2.78882e-48
-5.01587e-48
-3.76033e-49
-6.29281e-49
-4.78382e-50
-7.45101e-50
-5.74067e-51
-8.32386e-51
-6.49561e-52
-8.77095e-52
-6.92857e-53
-8.71503e-53
-6.96442e-54
-8.16368e-54
-6.59602e-55
-7.20783e-55
-5.88526e-56
-5.99699e-56
-4.94652e-57
-4.70103e-57
-3.91582e-58
-3.47138e-58
-2.91921e-59
-2.41428e-59
-2.04925e-60
-1.58118e-60
-1.35425e-61
-9.7502e-62
-8.42511e-63
-5.66008e-63
-4.93264e-64
-3.09277e-64
-2.71797e-65
-1.5905e-65
-1.40901e-66
-7.69704e-67
-6.87292e-68
-3.50486e-68
-3.15344e-69
-1.50148e-69
-1.36107e-70
-6.05105e-71
-5.52495e-72
-2.29377e-72
-2.1092e-73
-8.17786e-74
-7.57204e-75
-2.7419e-75
-2.55586e-76
-8.64462e-77
-8.11187e-78
-2.5626e-78
-2.42006e-79
-7.1419e-80
-6.78801e-81
-1.87114e-81
-1.78934e-82
-4.60807e-83
-4.43379e-84
-1.06663e-84
-1.03236e-85
-2.32031e-86
-2.2591e-87
-4.74337e-88
-4.64478e-89
-9.11148e-90
-8.97293e-91
-1.64445e-91
-1.62852e-92
-2.7883e-93
-2.77647e-94
-4.4413e-95
-4.44666e-96
-6.64495e-97
-6.68848e-98
-9.33791e-99
-9.44922e-100
-1.23237e-100
-1.25355e-101
-1.52732e-102
-1.56164e-103
-1.77736e-104
-1.82652e-105
-1.94196e-106
-2.00578e-107
-1.99196e-108
-2.06789e-109
-1.91801e-110
-2.0017e-111
-1.73338e-112
-1.819e-113
-1.47001e-114
-1.55371e-115
-1.16945e-116
-1.24795e-117
-9.10887e-120
-8.73875e-119
1.75403e-07
-1.41016e-07
1.27393e-07
-6.24975e-08
1.44666e-07
-1.26317e-07
1.58796e-07
-7.89005e-08
1.50051e-07
-6.33827e-08
3.09342e-08
8.80375e-08
9.99222e-09
9.44864e-08
5.12338e-09
9.09623e-08
-3.42689e-09
2.73273e-08
5.80211e-10
-3.30326e-09
4.4898e-09
-2.40438e-08
2.29269e-09
-1.46175e-08
2.74037e-09
-2.43981e-09
4.17415e-09
-1.68844e-09
1.06355e-08
-7.99772e-09
1.74178e-08
-1.15953e-08
2.2379e-08
-1.06562e-08
2.86687e-08
-8.06678e-09
4.37759e-08
-5.29263e-09
5.23011e-08
-7.75322e-09
6.04232e-08
-6.40551e-09
6.62726e-08
-7.13328e-09
6.95055e-08
-5.11993e-09
7.79416e-08
-1.87402e-09
8.32587e-08
-8.27629e-10
8.1619e-08
3.30477e-09
7.84705e-08
4.82757e-09
5.08517e-08
2.43498e-08
5.42474e-08
4.83971e-09
8.92634e-08
1.35612e-08
6.63088e-08
-2.55107e-08
3.42265e-08
-1.69109e-08
1.21356e-08
-3.30088e-09
6.45016e-09
-3.89876e-10
6.23127e-09
-8.02156e-10
2.77209e-08
-2.17035e-09
1.61515e-07
-1.04287e-08
2.61535e-07
-3.59069e-08
2.55023e-07
2.8629e-08
4.15085e-08
6.79607e-08
6.53442e-09
5.2672e-09
6.15173e-09
8.23849e-10
5.65322e-09
-2.37503e-10
5.26299e-09
-4.39332e-10
5.24595e-09
7.26991e-11
5.38823e-09
7.06793e-11
5.79421e-09
-7.1788e-10
6.43738e-09
-1.78782e-09
7.6331e-09
-3.52131e-09
8.70528e-09
-2.4093e-09
1.33617e-08
1.00495e-13
4.13445e-08
1.54351e-13
5.19561e-08
1.78798e-09
4.32864e-08
1.42573e-09
1.93954e-08
9.85959e-11
1.24403e-08
-8.24216e-10
1.55923e-08
-1.01955e-09
2.90564e-08
2.70357e-11
3.09144e-08
4.2387e-10
2.51287e-08
4.77607e-11
1.49718e-08
-1.21555e-09
1.62256e-08
-2.51594e-09
4.74724e-08
-4.86045e-09
1.18154e-07
3.93438e-10
1.05034e-07
1.03298e-09
2.06052e-08
2.20968e-08
0
2.16533e-09
-6.37442e-34
2.9591e-33
-4.30949e-32
-5.01411e-33
-4.73505e-32
-3.21567e-33
-3.45195e-32
-1.59261e-33
-2.09713e-32
-7.44607e-34
-1.16569e-32
-3.5091e-34
-6.28345e-33
-1.74434e-34
-3.39584e-33
-9.34401e-35
-1.85565e-33
-5.33914e-35
-1.01537e-33
-3.16984e-35
-5.46987e-34
-1.89527e-35
-2.8554e-34
-1.10628e-35
-1.42801e-34
-6.17327e-36
-6.79301e-35
-3.25471e-36
-3.06101e-35
-1.61147e-36
-1.30371e-35
-7.46229e-37
-5.24289e-36
-3.23375e-37
-1.99017e-36
-1.31168e-37
-7.13094e-37
-4.98643e-38
-2.41222e-37
-1.77858e-38
-7.70551e-38
-5.95821e-39
-2.32484e-38
-1.87739e-39
-6.62626e-39
-5.56161e-40
-1.78436e-39
-1.5518e-40
-4.54006e-40
-4.07819e-41
-1.09147e-40
-1.0094e-41
-2.47918e-41
-2.35514e-42
-5.32007e-42
-5.1792e-43
-1.07839e-42
-1.07384e-43
-2.06449e-43
-2.09942e-44
-3.73194e-44
-3.87034e-45
-6.36858e-45
-6.72739e-46
-1.02573e-45
-1.10229e-46
-1.55883e-46
-1.70239e-47
-2.23478e-47
-2.47803e-48
-3.02158e-48
-3.39957e-49
-3.85208e-49
-4.39476e-50
-4.62933e-50
-5.35263e-51
-5.24333e-51
-6.14052e-52
-5.59595e-52
-6.63386e-53
-5.6265e-53
-6.74761e-54
-5.32875e-54
-6.46119e-55
-4.75302e-55
-5.82399e-56
-3.99213e-56
-4.94149e-57
-3.15699e-57
-3.94626e-58
-2.35025e-58
-2.96592e-59
-1.64692e-59
-2.09776e-60
-1.08616e-60
-1.39602e-61
-6.74098e-62
-8.74092e-63
-3.93655e-63
-5.14815e-64
-2.16281e-64
-2.85222e-65
-1.11787e-65
-1.4861e-66
-5.43482e-67
-7.28227e-68
-2.4852e-68
-3.35542e-69
-1.06875e-69
-1.45378e-70
-4.32209e-71
-5.92185e-72
-1.64351e-72
-2.26779e-73
-5.87595e-74
-8.16418e-75
-1.97502e-75
-2.76262e-76
-6.24052e-77
-8.78723e-78
-1.85348e-78
-2.62664e-79
-5.17414e-80
-7.37936e-81
-1.3575e-81
-1.948e-82
-3.34699e-83
-4.83238e-84
-7.75451e-85
-1.12625e-85
-1.68811e-86
-2.46626e-87
-3.45274e-88
-5.07342e-89
-6.63449e-90
-9.80404e-91
-1.19758e-91
-1.77963e-92
-2.03053e-93
-3.03401e-94
-3.23371e-95
-4.85822e-96
-4.83657e-97
-7.3051e-98
-6.79342e-99
-1.03154e-99
-8.96015e-101
-1.36764e-101
-1.10965e-102
-1.7025e-103
-1.29022e-104
-1.9896e-105
-1.40836e-106
-2.18277e-107
-1.44309e-108
-2.24798e-109
-1.38792e-110
-2.17352e-111
-1.25276e-112
-1.97269e-113
-1.06101e-114
-1.68279e-115
-8.42898e-117
-1.34966e-117
-9.83746e-120
-6.28933e-119
8.41108e-08
-7.89702e-08
1.59748e-07
-1.19487e-07
2.38719e-07
-2.23935e-07
2.91044e-07
-1.39643e-07
2.86259e-07
-6.75173e-08
2.20557e-07
1.44422e-07
6.58537e-08
1.31446e-07
1.89694e-09
6.53817e-08
-9.08794e-10
1.16455e-08
-9.18998e-11
-6.52706e-09
1.69258e-08
-3.5053e-08
1.93236e-08
-5.81276e-08
1.72734e-08
-3.75326e-08
2.10103e-08
-1.36839e-08
3.31696e-08
-1.91967e-08
4.28285e-08
-1.92326e-08
4.92743e-08
-1.59797e-08
5.13537e-08
-1.74092e-08
5.37239e-08
-4.69728e-08
3.7043e-08
-8.70839e-09
2.72333e-08
-1.89783e-09
1.45356e-08
-9.57094e-10
3.91669e-09
-3.51846e-10
3.78356e-09
-2.27682e-10
8.26922e-09
-8.88857e-11
2.85436e-08
1.52711e-15
5.70257e-08
1.87335e-09
6.17565e-08
1.16387e-08
5.19738e-08
1.51294e-08
5.55332e-08
2.16529e-09
4.02623e-08
-1.95059e-08
2.46436e-08
-1.0561e-08
9.87027e-09
7.44975e-13
1.73703e-09
1.06205e-11
1.56839e-09
-1.73196e-10
3.22295e-09
-4.1934e-10
2.62421e-08
-2.15534e-09
1.83187e-07
-1.59256e-08
2.20233e-07
6.9939e-09
9.3018e-08
5.76777e-08
6.19208e-09
2.91848e-08
6.09269e-09
1.09617e-09
1.20878e-08
1.30081e-10
1.60568e-08
-5.51475e-10
1.68948e-08
8.4075e-10
1.49971e-08
1.73655e-10
7.80426e-09
-7.89966e-14
7.0867e-09
-3.00408e-09
9.16967e-09
-9.41075e-09
8.75357e-09
-4.29666e-09
1.1747e-08
-1.3688e-12
1.75573e-08
4.44644e-10
1.70137e-08
-1.6917e-14
1.03647e-08
9.75411e-15
4.75395e-09
1.89357e-14
3.98622e-09
-2.93351e-10
4.68356e-09
3.04971e-11
1.0071e-08
-2.39681e-11
1.15376e-08
4.1739e-10
9.311e-09
1.7586e-10
5.25277e-09
-6.2382e-10
5.65418e-09
-1.37876e-09
2.08997e-08
-2.54968e-09
7.93436e-08
6.05103e-10
9.04907e-08
2.38911e-09
2.82729e-08
3.23524e-08
1.05805e-20
6.08349e-09
1.1313e-32
2.13725e-21
1.78163e-40
6.299e-33
-3.28823e-32
-2.90619e-33
-4.10541e-32
-2.50192e-33
-2.96965e-32
-1.40328e-33
-1.62081e-32
-6.51079e-34
-7.40721e-33
-2.74541e-34
-3.02916e-33
-1.11267e-34
-1.17854e-33
-4.52504e-35
-4.64295e-34
-1.93357e-35
-1.9432e-34
-8.98172e-36
-8.7309e-35
-4.51346e-36
-4.10307e-35
-2.3673e-36
-1.94309e-35
-1.24259e-36
-9.0039e-36
-6.32594e-37
-4.00911e-36
-3.062e-37
-1.69838e-36
-1.3976e-37
-6.81005e-37
-5.98793e-38
-2.57796e-37
-2.40492e-38
-9.2021e-38
-9.05129e-39
-3.09572e-38
-3.19321e-39
-9.81382e-39
-1.05716e-39
-2.93167e-39
-3.28228e-40
-8.25328e-40
-9.57409e-41
-2.18978e-40
-2.62371e-41
-5.47602e-41
-6.75487e-42
-1.29071e-41
-1.63542e-42
-2.86744e-42
-3.72327e-43
-6.00401e-43
-7.97409e-44
-1.18479e-43
-1.60693e-44
-2.20318e-44
-3.04741e-45
-3.86029e-45
-5.43857e-46
-6.37227e-46
-9.13307e-47
-9.9087e-47
-1.44322e-47
-1.45122e-47
-2.14612e-48
-2.00161e-48
-3.00341e-49
-2.59958e-49
-3.95535e-50
-3.17864e-50
-4.90152e-51
-3.65885e-51
-5.71453e-52
-3.96422e-52
-6.26735e-53
-4.04237e-53
-6.46518e-54
-3.87914e-54
-6.27266e-55
-3.50283e-55
-5.72398e-56
-2.9761e-56
-4.91277e-57
-2.37895e-57
-3.96573e-58
-1.78894e-58
-3.01069e-59
-1.26545e-59
-2.14955e-60
-8.4196e-61
-1.44315e-61
-5.2687e-62
-9.11075e-63
-3.10061e-63
-5.40757e-64
-1.71588e-64
-3.01761e-65
-8.92877e-66
-1.58294e-66
-4.36845e-67
-7.80586e-68
-2.00941e-68
-3.618e-69
-8.6892e-70
-1.57621e-70
-3.53214e-71
-6.45377e-72
-1.34961e-72
-2.48342e-73
-4.84695e-74
-8.98073e-75
-1.63601e-75
-3.05174e-76
-5.18966e-77
-9.74485e-78
-1.54701e-78
-2.92359e-79
-4.33338e-80
-8.2416e-81
-1.14054e-81
-2.18258e-82
-2.82043e-83
-5.43032e-84
-6.55268e-85
-1.26914e-85
-1.43016e-86
-2.7863e-87
-2.93222e-88
-5.74566e-89
-5.64696e-90
-1.1128e-90
-1.02146e-91
-2.0242e-92
-1.7353e-93
-3.4577e-94
-2.76859e-95
-5.54674e-96
-4.14795e-97
-8.35463e-98
-5.83543e-99
-1.18161e-99
-7.70803e-101
-1.56893e-101
-9.55904e-103
-1.95578e-103
-1.11289e-104
-2.28854e-105
-1.21626e-106
-2.51376e-107
-1.24766e-108
-2.59179e-109
-1.20121e-110
-2.50857e-111
-1.08531e-112
-2.27902e-113
-9.20027e-115
-1.94591e-115
-7.31524e-117
-1.56197e-117
-1.13944e-119
-5.46271e-119
3.33002e-08
-3.74856e-08
1.13695e-07
-7.00046e-08
7.60303e-08
-7.47782e-08
6.04677e-08
-2.74781e-08
1.74889e-07
-4.32787e-08
2.00098e-07
7.11141e-08
5.70855e-08
1.0623e-07
2.38327e-09
9.56226e-09
-1.46501e-09
1.05958e-08
2.10131e-10
-2.32993e-08
2.74522e-08
-5.90572e-08
4.35333e-08
-8.22023e-08
5.28097e-08
-3.88155e-08
5.60706e-08
-3.95767e-08
6.1117e-08
-3.5962e-08
6.97723e-08
-1.41005e-08
8.09886e-08
-7.19639e-09
8.54863e-08
-7.20547e-09
4.64096e-08
-1.54729e-08
1.63023e-08
-6.99295e-09
2.18919e-09
-2.47909e-09
5.78174e-10
-5.36734e-10
4.2659e-10
-2.12124e-10
4.46811e-10
-1.34892e-10
7.48012e-10
-2.54451e-11
2.52638e-09
9.50135e-12
7.34699e-09
2.17584e-15
3.0047e-08
1.29321e-09
3.68389e-08
1.25648e-08
3.59383e-08
3.57663e-09
2.78843e-08
-1.21294e-08
2.2055e-08
-5.49562e-09
1.10519e-08
5.26944e-10
9.35665e-10
2.42853e-10
5.1493e-10
-1.3005e-10
5.7392e-10
-2.52016e-10
4.07519e-09
-6.28082e-10
6.45849e-08
-4.66014e-09
1.62332e-07
1.06261e-08
1.69155e-07
8.32864e-08
5.94082e-08
5.47601e-08
2.51771e-08
3.87115e-09
8.14998e-09
-8.12445e-10
1.20996e-08
-9.30728e-11
1.23251e-08
3.26234e-10
1.0109e-08
5.41236e-11
1.19565e-08
-2.08431e-09
2.40553e-08
-1.05723e-08
3.10072e-08
-2.20044e-08
2.23768e-08
-2.16326e-08
7.69464e-09
-1.66122e-10
6.53592e-09
5.82246e-11
4.95792e-09
1.29455e-09
4.08223e-09
1.13012e-09
3.22723e-09
6.45325e-10
3.34985e-09
-6.63166e-10
3.82484e-09
-3.52806e-10
3.83115e-09
-7.13239e-11
3.92373e-09
4.70719e-10
3.82634e-09
1.27334e-10
3.8294e-09
-4.21779e-10
4.30268e-09
-2.00332e-09
9.17207e-09
-7.74184e-12
4.78407e-08
3.70442e-10
7.30521e-08
3.30895e-09
5.83431e-08
4.67652e-09
1.66092e-09
1.7521e-08
0
3.62909e-11
1.8872e-30
-5.30346e-30
-1.98135e-30
-2.15341e-31
-4.61312e-31
-3.49695e-32
-1.03392e-31
-6.10525e-33
-3.88307e-32
-1.95169e-33
-1.77291e-32
-8.22273e-34
-7.63457e-33
-3.50841e-34
-2.98581e-33
-1.43375e-34
-1.07981e-33
-5.6224e-35
-3.72125e-34
-2.15052e-35
-1.26513e-34
-8.17914e-36
-4.39001e-35
-3.16831e-36
-1.59192e-35
-1.27349e-36
-6.05447e-36
-5.3206e-37
-2.37738e-36
-2.2708e-37
-9.40427e-37
-9.67726e-38
-3.66237e-37
-4.02671e-38
-1.38038e-37
-1.61019e-38
-4.97929e-38
-6.12405e-39
-1.70719e-38
-2.20182e-39
-5.54063e-39
-7.46251e-40
-1.69808e-39
-2.37702e-40
-4.90763e-40
-7.11788e-41
-1.33644e-40
-2.002e-41
-3.42762e-41
-5.28613e-42
-8.27711e-42
-1.31119e-42
-1.88163e-42
-3.05454e-43
-4.02636e-43
-6.68543e-44
-8.10911e-44
-1.375e-44
-1.53704e-44
-2.65788e-45
-2.74165e-45
-4.82884e-46
-4.60178e-46
-8.24541e-47
-7.2677e-47
-1.32334e-47
-1.07994e-47
-1.99655e-48
-1.50973e-48
-2.83198e-49
-1.9855e-49
-3.77666e-50
-2.45629e-50
-4.73501e-51
-2.85826e-51
-5.58071e-52
-3.12829e-52
-6.18277e-53
-3.22013e-53
-6.43824e-54
-3.1173e-54
-6.30146e-55
-2.83794e-55
-5.79734e-56
-2.42956e-56
-5.01361e-57
-1.95583e-57
-4.07578e-58
-1.48044e-58
-3.11462e-59
-1.05363e-59
-2.23735e-60
-7.05016e-61
-1.51064e-61
-4.43505e-62
-9.58713e-63
-2.62279e-63
-5.71822e-64
-1.45805e-64
-3.20544e-65
-7.61905e-66
-1.68855e-66
-3.74218e-67
-8.35903e-68
-1.72754e-68
-3.88837e-69
-7.49518e-70
-1.69962e-70
-3.05613e-71
-6.98049e-72
-1.17103e-72
-2.6937e-73
-4.21656e-74
-9.76649e-75
-1.42664e-75
-3.32669e-76
-4.53541e-77
-1.06461e-77
-1.3547e-78
-3.20041e-79
-3.80164e-80
-9.03839e-81
-1.00226e-81
-2.39761e-82
-2.48223e-83
-5.9743e-84
-5.77484e-85
-1.3982e-85
-1.26195e-86
-3.07342e-87
-2.59022e-88
-6.34481e-89
-4.99327e-90
-1.23005e-90
-9.04008e-92
-2.23946e-92
-1.53697e-93
-3.82838e-94
-2.45381e-95
-6.14554e-96
-3.67849e-97
-9.26197e-98
-5.17756e-99
-1.31058e-99
-6.84187e-101
-1.74091e-101
-8.48774e-103
-2.17089e-103
-9.88426e-105
-2.54092e-105
-1.08044e-106
-2.79152e-107
-1.10847e-108
-2.87854e-109
-1.06728e-110
-2.7863e-111
-9.64301e-113
-2.53135e-113
-8.17407e-115
-2.16128e-115
-6.49861e-117
-1.7346e-117
-1.2652e-119
-4.85214e-119
8.88209e-09
-1.37507e-08
2.18985e-08
-1.69346e-08
1.86466e-08
-4.55623e-08
2.06962e-08
-4.02002e-08
6.38511e-08
-1.16707e-08
8.54028e-08
2.71783e-08
2.4381e-08
3.89861e-08
1.16613e-09
3.29195e-08
-1.2273e-08
3.8839e-08
-1.61054e-09
-6.86068e-08
1.02982e-08
-8.58753e-08
3.19867e-08
-1.59847e-08
4.1434e-08
-1.07418e-08
2.82678e-08
-3.83649e-09
5.92184e-09
-5.60122e-09
6.28331e-09
-7.83838e-09
7.0646e-09
-7.78161e-09
8.33108e-09
-8.4412e-09
1.68165e-08
-5.38711e-09
1.8506e-08
-6.23905e-09
3.78416e-09
-8.72784e-10
4.11975e-10
-1.01167e-09
2.26366e-10
-6.74558e-11
3.3302e-10
-1.69659e-10
3.2524e-10
-3.27648e-11
3.5047e-10
2.98713e-11
4.09698e-10
3.34866e-11
5.27206e-09
2.43415e-14
1.92057e-08
2.80963e-09
2.16275e-08
2.94518e-09
1.81052e-08
-6.3344e-09
1.70895e-08
-2.07399e-09
1.2339e-08
9.45955e-10
1.85993e-09
5.82487e-10
4.69426e-10
-1.60699e-11
4.90879e-10
-2.71145e-10
8.40877e-10
-2.88186e-10
1.49354e-08
-1.34474e-09
1.13295e-07
3.20123e-09
1.4585e-07
3.29232e-08
1.332e-07
4.93383e-08
3.08676e-08
7.42908e-10
4.65024e-09
-5.1465e-10
4.57105e-09
-1.96603e-11
5.32022e-09
4.91106e-10
9.89071e-09
1.00604e-09
2.88894e-08
-8.53828e-09
3.6552e-08
-1.80457e-08
4.12275e-08
-2.68691e-08
4.59032e-08
-2.61191e-08
1.56894e-08
-4.28404e-10
4.31774e-09
4.76941e-09
4.42236e-09
1.44151e-09
3.20664e-09
2.59885e-09
1.15995e-08
2.76883e-09
1.91851e-08
-6.33243e-09
1.56587e-08
-6.59545e-09
4.92294e-09
-1.09614e-10
3.54903e-09
8.68192e-10
3.8441e-09
3.57175e-10
5.45124e-09
-1.06798e-09
5.85402e-09
-3.30045e-09
9.92904e-09
-7.30454e-10
2.28642e-08
-2.37919e-11
5.60583e-08
2.95831e-09
5.20407e-08
5.22098e-09
2.28307e-08
5.09712e-09
1.41282e-21
5.1629e-09
-2.73794e-29
1.41273e-21
-9.23198e-30
-1.29765e-30
-8.59785e-31
-7.80741e-32
-2.05491e-31
-1.45694e-32
-8.20655e-32
-4.95411e-33
-3.02501e-32
-1.68485e-33
-9.73801e-33
-5.37277e-34
-2.82559e-33
-1.62857e-34
-7.68708e-34
-4.80318e-35
-2.06419e-34
-1.43163e-35
-5.86867e-35
-4.55449e-36
-1.89277e-35
-1.64011e-36
-7.05227e-36
-6.77369e-37
-2.90124e-36
-3.06085e-37
-1.23822e-36
-1.4197e-37
-5.24391e-37
-6.47683e-38
-2.14984e-37
-2.83701e-38
-8.4229e-38
-1.17925e-38
-3.13225e-38
-4.62365e-39
-1.10138e-38
-1.70486e-39
-3.65382e-39
-5.90628e-40
-1.14213e-39
-1.91878e-40
-3.36122e-40
-5.85064e-41
-9.30857e-41
-1.67348e-41
-2.42522e-41
-4.48863e-42
-5.94324e-42
-1.12986e-42
-1.3698e-42
-2.66857e-43
-2.96908e-43
-5.91626e-44
-6.05201e-44
-1.2315e-44
-1.16004e-44
-2.40728e-45
-2.09085e-45
-4.41933e-46
-3.54358e-46
-7.61954e-47
-5.64696e-47
-1.23393e-47
-8.4612e-48
-1.87721e-48
-1.19201e-48
-2.68329e-49
-1.57887e-49
-3.60397e-50
-1.96614e-50
-4.54832e-51
-2.30183e-51
-5.39331e-52
-2.53341e-52
-6.00864e-53
-2.62123e-53
-6.28917e-54
-2.54953e-54
-6.18466e-55
-2.33111e-55
-5.71454e-56
-2.00357e-56
-4.96159e-57
-1.61873e-57
-4.04807e-58
-1.22931e-58
-3.10361e-59
-8.77507e-60
-2.23608e-60
-5.88747e-61
-1.51386e-61
-3.71261e-62
-9.63079e-63
-2.20033e-63
-5.75676e-64
-1.22556e-64
-3.23327e-65
-6.41513e-66
-1.70614e-66
-3.1556e-67
-8.45874e-68
-1.45865e-68
-3.93991e-69
-6.3357e-70
-1.72408e-70
-2.58581e-71
-7.08771e-72
-9.91604e-73
-2.73724e-73
-3.57278e-74
-9.93072e-75
-1.20942e-75
-3.38433e-76
-3.84628e-77
-1.08345e-77
-1.14914e-78
-3.25786e-79
-3.22521e-80
-9.2018e-81
-8.50305e-82
-2.44102e-82
-2.10573e-83
-6.08196e-84
-4.89808e-85
-1.42316e-85
-1.07008e-86
-3.12745e-87
-2.19563e-88
-6.45417e-89
-4.23083e-90
-1.25073e-90
-7.65597e-92
-2.27599e-92
-1.30092e-93
-3.88866e-94
-2.07567e-95
-6.23845e-96
-3.10952e-97
-9.39568e-98
-4.37354e-99
-1.32854e-99
-5.77491e-101
-1.76339e-101
-7.15823e-103
-2.19712e-103
-8.32881e-105
-2.56941e-105
-9.09594e-107
-2.82027e-107
-9.32323e-109
-2.90548e-109
-8.96807e-111
-2.80966e-111
-8.09466e-113
-2.55003e-113
-6.85455e-115
-2.17503e-115
-5.44386e-117
-1.74376e-117
-1.27052e-119
-4.06026e-119
3.38589e-09
-7.92387e-09
5.13547e-09
-1.25716e-10
1.24164e-08
-5.04502e-08
2.60327e-08
-1.28101e-07
2.35647e-08
-3.03869e-08
2.45124e-08
4.64432e-09
7.30363e-09
4.5585e-08
1.05886e-09
3.90219e-08
-1.86225e-08
1.62631e-07
4.51556e-09
-1.12156e-07
5.93405e-09
-1.76841e-07
3.98278e-09
-9.11703e-09
5.08886e-09
-6.96697e-09
3.97834e-09
-2.52856e-09
4.48487e-09
-6.07394e-09
5.65439e-09
-8.81616e-09
6.83832e-09
-8.92977e-09
8.24422e-09
-9.65103e-09
9.06465e-09
-6.17626e-09
1.4612e-08
-2.6408e-09
1.11483e-08
-4.81767e-09
1.94492e-09
-7.36055e-10
4.09751e-10
-1.42335e-10
2.86484e-10
-7.99604e-11
3.26781e-10
-3.21534e-11
3.15576e-10
3.58681e-11
3.22116e-10
5.71995e-11
6.3683e-10
1.0371e-10
5.84761e-09
1.87467e-13
9.94882e-09
8.26832e-10
9.08079e-09
-2.99051e-09
1.01822e-08
-4.50543e-10
8.5539e-09
8.60821e-10
1.97789e-09
5.83763e-10
5.35606e-10
-3.50699e-12
4.98823e-10
-2.32433e-10
5.25725e-10
-3.12764e-10
3.43995e-09
-3.54679e-10
4.03498e-08
6.35086e-10
7.26902e-08
1.01806e-08
7.07037e-08
7.06581e-09
3.39891e-08
1.96927e-10
4.55852e-09
-2.00982e-10
4.37608e-09
1.6856e-10
4.1887e-09
6.73062e-10
1.99659e-08
5.35243e-10
2.34646e-08
-4.73508e-09
1.9854e-08
-4.65344e-09
2.36497e-08
-3.79176e-09
4.25899e-08
-2.5961e-08
3.05197e-08
-4.74161e-09
7.40288e-09
1.11779e-08
4.36727e-09
4.72724e-09
5.577e-09
7.50764e-09
3.43263e-08
8.86122e-09
5.41875e-08
-1.29531e-08
5.4853e-08
-1.95098e-08
1.82395e-08
-4.17624e-10
1.02631e-08
3.94792e-09
1.54361e-08
1.87638e-09
2.24043e-08
-3.23014e-09
2.4634e-08
-8.2968e-09
1.39391e-08
-4.02951e-09
1.57611e-08
3.52902e-09
2.79826e-08
8.76164e-10
3.48153e-08
6.00258e-09
2.14451e-08
5.33683e-09
3.3406e-09
2.23235e-09
0
8.37034e-11
-1.99602e-32
-2.22289e-33
-1.79241e-31
-1.9026e-32
-1.0823e-31
-8.96253e-33
-4.03401e-32
-2.84307e-33
-1.21042e-32
-7.86866e-34
-3.35226e-33
-2.1583e-34
-9.30702e-34
-6.25852e-35
-2.6783e-34
-1.95227e-35
-8.06309e-35
-6.52438e-36
-2.59331e-35
-2.34861e-36
-9.23617e-36
-9.3409e-37
-3.69383e-36
-4.14093e-37
-1.60565e-36
-1.97692e-37
-7.18648e-37
-9.61486e-38
-3.17177e-37
-4.57099e-38
-1.34642e-37
-2.07314e-38
-5.42988e-38
-8.87009e-39
-2.06837e-38
-3.56243e-39
-7.42214e-39
-1.34049e-39
-2.50579e-39
-4.72594e-40
-7.95432e-40
-1.55914e-40
-2.37339e-40
-4.81996e-41
-6.65539e-41
-1.39597e-41
-1.75382e-41
-3.78711e-42
-4.34301e-42
-9.63276e-43
-1.01063e-42
-2.29705e-43
-2.21001e-43
-5.13777e-44
-4.54154e-44
-1.07818e-44
-8.7705e-45
-2.1234e-45
-1.5917e-45
-3.92506e-46
-2.71468e-46
-6.81017e-47
-4.35112e-47
-1.10924e-47
-6.55409e-48
-1.69646e-48
-9.27797e-49
-2.43664e-49
-1.23431e-49
-3.28707e-50
-1.54319e-50
-4.16493e-51
-1.81318e-51
-4.95651e-52
-2.00209e-52
-5.53993e-53
-2.07753e-53
-5.81549e-54
-2.02596e-54
-5.73374e-55
-1.85668e-55
-5.31016e-56
-1.59905e-56
-4.61989e-57
-1.29422e-57
-3.77602e-58
-9.84389e-59
-2.89952e-59
-7.03612e-60
-2.09182e-60
-4.72606e-61
-1.41778e-61
-2.983e-62
-9.02798e-63
-1.76925e-63
-5.40052e-64
-9.86032e-65
-3.03497e-65
-5.16359e-66
-1.6022e-66
-2.54071e-67
-7.94575e-68
-1.17462e-68
-3.70158e-69
-5.10217e-70
-1.61986e-70
-2.08222e-71
-6.65877e-72
-7.98348e-73
-2.57114e-73
-2.8757e-74
-9.32561e-75
-9.73111e-76
-3.177e-76
-3.09341e-77
-1.01663e-77
-9.23743e-79
-3.05542e-79
-2.59113e-80
-8.6251e-81
-6.82708e-82
-2.28663e-82
-1.68955e-83
-5.69341e-84
-3.92718e-85
-1.33129e-85
-8.57318e-87
-2.92334e-87
-1.75769e-88
-6.0282e-89
-3.38417e-90
-1.16722e-90
-6.11872e-92
-2.12225e-92
-1.03881e-93
-3.62287e-94
-1.65602e-95
-5.80697e-96
-2.47865e-97
-8.73811e-98
-3.48311e-99
-1.23446e-99
-4.59506e-101
-1.63706e-101
-5.69067e-103
-2.03789e-103
-6.61539e-105
-2.3811e-105
-7.21835e-107
-2.61128e-107
-7.39229e-109
-2.68784e-109
-7.10461e-111
-2.59699e-111
-6.40732e-113
-2.35504e-113
-5.42126e-115
-2.00709e-115
-4.30212e-117
-1.6078e-117
-1.17054e-119
-3.20621e-119
2.76028e-09
-8.72104e-09
4.17672e-09
-2.16261e-08
7.90208e-08
-1.09557e-07
1.43366e-07
-4.98795e-07
1.83561e-08
-2.87041e-08
1.35235e-08
9.52271e-09
5.8137e-09
5.3249e-08
1.47035e-09
1.83091e-07
-2.77656e-08
3.62351e-07
2.56909e-09
-1.2208e-07
3.39176e-08
-2.55029e-07
5.16794e-09
-8.19693e-08
2.94287e-09
-4.54456e-09
3.33137e-09
-2.88256e-09
4.17324e-09
-6.72311e-09
5.28205e-09
-9.88606e-09
6.0951e-09
-9.55018e-09
8.7779e-09
-2.03593e-08
8.87924e-09
-6.07672e-09
9.43288e-09
-3.16792e-09
1.06492e-08
8.03659e-10
4.4505e-09
7.66127e-10
3.26647e-10
-9.12582e-14
3.21833e-10
-1.83454e-11
3.25061e-10
-3.54742e-11
3.54411e-10
4.70742e-11
3.94092e-10
1.05046e-10
4.18355e-10
1.822e-10
1.42769e-09
8.23836e-13
4.20685e-09
1.36007e-10
4.32531e-09
-1.20551e-09
5.31823e-09
1.86696e-11
4.51298e-09
6.88505e-10
1.34461e-09
4.64662e-10
4.63435e-10
2.95858e-11
4.71649e-10
-2.38323e-10
5.44134e-10
-3.83321e-10
6.76544e-10
-3.9953e-10
5.25479e-09
2.38752e-14
1.95395e-08
-1.84754e-14
1.97892e-08
-6.37657e-14
1.76723e-08
4.97571e-13
1.18773e-08
-2.6286e-09
5.31152e-09
5.79204e-10
5.34685e-09
2.65273e-09
1.19104e-08
3.20685e-13
8.10632e-09
-3.02243e-09
1.38918e-09
-1.5234e-09
1.46061e-09
-5.44344e-10
2.28496e-08
-8.53344e-09
3.11602e-08
-4.64307e-09
9.78847e-09
8.79073e-09
4.09563e-09
7.94342e-09
1.03887e-08
1.36191e-08
6.47707e-08
1.43015e-09
7.48987e-08
-2.1323e-08
7.65459e-08
-2.29151e-08
5.12273e-08
-1.00165e-09
3.38214e-08
1.34934e-08
3.83326e-08
6.15159e-09
4.76128e-08
-1.02372e-08
4.92081e-08
-3.25054e-08
3.3042e-08
-1.12899e-08
9.63513e-09
5.71486e-09
1.1475e-08
8.25938e-12
1.35064e-08
1.84982e-09
9.51239e-09
1.94566e-09
1.96144e-09
6.27345e-10
0
5.12755e-11
-1.40238e-33
0
-1.07458e-32
-1.30607e-33
-6.40248e-33
-6.06327e-34
-2.51307e-33
-2.02482e-34
-8.63348e-34
-6.41517e-35
-2.95485e-34
-2.17424e-35
-1.0561e-34
-8.11547e-36
-3.97767e-35
-3.31317e-36
-1.60075e-35
-1.4803e-36
-7.01802e-36
-7.26524e-37
-3.34185e-36
-3.86384e-37
-1.66986e-36
-2.14008e-37
-8.38209e-37
-1.17971e-37
-4.09034e-37
-6.25502e-38
-1.90433e-37
-3.13669e-38
-8.38007e-38
-1.47473e-38
-3.47081e-38
-6.48015e-39
-1.35052e-38
-2.65848e-39
-4.93337e-39
-1.01833e-39
-1.69145e-39
-3.64593e-40
-5.4429e-40
-1.2193e-40
-1.64391e-40
-3.81549e-41
-4.66052e-41
-1.1172e-41
-1.24035e-41
-3.06099e-42
-3.09918e-42
-7.85597e-43
-7.27086e-43
-1.88867e-43
-1.60178e-43
-4.25573e-44
-3.31382e-44
-8.99107e-45
-6.43872e-45
-1.78156e-45
-1.175e-45
-3.31143e-46
-2.01404e-46
-5.7743e-47
-3.24274e-47
-9.44777e-48
-4.90444e-48
-1.45082e-48
-6.96813e-49
-2.09146e-49
-9.3005e-50
-2.83065e-50
-1.16619e-50