/*--------------------------------*- C++ -*----------------------------------*\
| =========                 |                                                 |
| \\      /  F ield         | OpenFOAM: The Open Source CFD Toolbox           |
|  \\    /   O peration     | Version:  v1912                                 |
|   \\  /    A nd           | Website:  www.openfoam.com                      |
|    \\/     M anipulation  |                                                 |
\*---------------------------------------------------------------------------*/
FoamFile
{
    version     2.0;
    format      ascii;
    class       surfaceScalarField;
    location    "50";
    object      phi;
}
// * * * * * * * * * * * * * * * * * * * * * * * * * * * * * * * * * * * * * //

dimensions      [0 3 -1 0 0 0 0];
oriented        oriented;


internalField   nonuniform List<scalar> 
28285
(
0.000788533
-0.000726823
0.00117916
-0.000390628
-0.000256176
0.00143534
-0.00183094
0.00157477
-0.00181075
-2.01942e-05
-0.0011127
-0.000698064
-0.000447017
-0.000665699
-0.000155463
-0.000291558
-0.000390294
0.000234833
-0.00087799
0.000487703
-0.00112625
0.000248263
-0.000863559
-0.000262687
-0.000784395
-7.91626e-05
-0.00107561
0.000291213
-0.00115224
7.66293e-05
-0.00126435
0.000112101
-0.00093394
-0.000330418
-0.000129323
-0.000804623
0.000221779
-0.000351102
-1.80437e-05
0.000239823
-0.000186942
0.000168898
-0.000328216
0.000141277
-0.000676204
0.00034799
-0.000810937
0.000134735
-0.0007007
-0.000110237
-0.000618625
-8.20738e-05
-0.000621143
2.51852e-06
-0.000644194
2.30518e-05
-0.000662611
1.84173e-05
-0.000812532
0.000149921
-0.000981954
0.000169423
-0.00107106
8.91096e-05
-0.00114131
7.02479e-05
-0.00118324
4.19283e-05
-0.00108527
-9.79682e-05
-0.000981943
-0.000103331
-0.000957167
-2.47754e-05
-0.00107636
0.000119194
-0.000991088
-8.5273e-05
-0.00102661
3.55238e-05
-0.00114364
0.000117024
-0.00119153
4.7894e-05
-0.00116169
-2.98379e-05
-0.00112711
-3.45775e-05
-0.00113
2.89091e-06
-0.00113679
6.78544e-06
-0.00110662
-3.0173e-05
-0.00101106
-9.55564e-05
-0.000897137
-0.000113924
-0.000849463
-4.76739e-05
-0.000814596
-3.48676e-05
-0.000714168
-0.000100428
-0.000648314
-6.58539e-05
-0.000580272
-6.80421e-05
-0.000466958
-0.000113314
-0.000334726
-0.000132232
-0.000250659
-8.4067e-05
-0.000234399
-1.62599e-05
-0.000219816
-1.45829e-05
1.07902e-05
-0.000230606
0.000221124
-0.000210334
0.000122837
9.82862e-05
-6.89425e-05
0.00019178
-0.000169962
0.000101019
-0.000191426
2.14646e-05
-0.000101981
-8.94461e-05
3.76173e-05
-0.000139599
0.000189344
-0.000151727
0.000360112
-0.000170768
3.38872e-06
0.000356725
-0.000669677
0.000673066
-0.000886935
0.000217257
-0.000656654
-0.000230281
-0.000361197
-0.00029546
-9.73234e-05
-0.000263875
0.000136395
-0.000233718
0.000317273
-0.00018088
0.000611491
-0.000294218
0.00107334
-0.000461843
0.00121451
-0.000141166
0.000478094
0.00073642
-0.000231904
0.000709999
-0.000326342
9.44413e-05
-0.000654817
0.000328477
-0.000908856
0.000254038
-0.000690611
-0.000218247
-0.000158819
-0.000531791
0.000395812
-0.000554628
0.000441065
-4.52499e-05
7.84893e-05
0.000362578
-0.000279996
0.000358488
-0.000310237
3.02425e-05
-0.000225395
-8.48428e-05
-0.000125429
-9.99658e-05
3.14972e-05
-0.000156927
0.000210184
-0.000178687
0.000339887
-0.000129703
0.000411848
-7.19609e-05
0.000568763
-0.000156915
0.000684497
-0.000115734
0.000745896
-6.13994e-05
0.000848653
-0.000102757
0.000866264
-1.76112e-05
0.000364823
0.00050144
0.000370462
-0.00141949
0.000875727
-0.000895892
-0.000180234
0.00249129
-0.00153125
0.00292578
-0.00169013
0.000138684
-0.00125357
-0.00113464
-0.000591504
-0.00132776
-0.00033578
-0.000547279
-0.000675746
0.000574804
-0.0010364
0.000848356
-0.00111522
0.000327085
-0.000887517
-0.000490389
-0.000902142
-6.45428e-05
-0.0011067
0.000495761
-0.00106578
3.57123e-05
-0.00111055
0.000156863
-0.000883956
-0.000557016
-0.000241356
-0.00144722
3.71373e-05
-0.000629594
-0.000149471
0.000426433
-0.000318826
0.000338254
-0.000460275
0.000282728
-0.000702683
0.0005904
-0.000755136
0.000187188
-0.000657244
-0.000208127
-0.000585244
-0.000154073
-0.000563972
-1.87528e-05
-0.000569404
2.84841e-05
-0.000599893
4.89056e-05
-0.000745098
0.000295126
-0.000918088
0.000342413
-0.00103124
0.000202266
-0.00110873
0.000147735
-0.00115137
8.45618e-05
-0.00106737
-0.000181963
-0.000973839
-0.000196862
-0.000986722
-1.1893e-05
-0.00106824
0.00020071
-0.000974719
-0.000178792
-0.000987756
4.85603e-05
-0.0011027
0.000231965
-0.00117289
0.000118086
-0.00116411
-3.86126e-05
-0.00114843
-5.0257e-05
-0.00113986
-5.68316e-06
-0.0011136
-1.94742e-05
-0.00110461
-3.91627e-05
-0.00106321
-0.000136956
-0.00100599
-0.000171141
-0.00097997
-7.36975e-05
-0.000925807
-8.90309e-05
-0.000817377
-0.000208858
-0.000731065
-0.000152167
-0.000633253
-0.000165854
-0.000509771
-0.000236796
-0.000387417
-0.000254586
-0.000261364
-0.00021012
-0.000180638
-9.6986e-05
-0.000132954
-6.22669e-05
1.09364e-05
-0.000374495
0.000149898
-0.000349296
0.000110612
0.000137572
4.68131e-05
0.000255578
1.54557e-05
0.000132376
-7.3846e-05
0.000110766
-5.49769e-05
-0.000108316
4.48508e-05
-0.000239426
0.000158136
-0.000265012
0.000305176
-0.000317808
0.00015184
0.00051006
-0.000410456
0.00123536
-0.000739577
0.000546376
-0.000601443
-0.000368415
-0.000344424
-0.000552477
-0.000116643
-0.000491656
0.000112124
-0.000462484
0.000313462
-0.000382214
0.000556711
-0.000537463
0.000838439
-0.000743562
0.000905538
-0.000208262
0.000309423
0.00133254
-0.000294335
0.00131376
-0.00042178
0.000221888
-0.000654119
0.000560817
-0.000788193
0.000388115
-0.000628806
-0.000377632
-0.000257863
-0.000902731
0.000129211
-0.000941703
0.000156906
-7.29416e-05
-0.000107629
0.000627114
-0.000358129
0.000608988
-0.000373944
4.60573e-05
-0.000266698
-0.000192089
-0.000151116
-0.000215548
1.01446e-05
-0.000318187
0.000203348
-0.00037189
0.000368828
-0.000295184
0.00043011
-0.000133243
0.000482111
-0.000208916
0.00050965
-0.000143274
0.000570953
-0.000122702
0.000691617
-0.000223422
0.000657627
1.63783e-05
0.000689845
0.000332604
0.00070581
-0.00243281
0.00104916
-0.00123925
-0.000184039
0.00372449
-0.00153133
0.00427307
-0.00163896
0.000246301
-0.00128599
-0.0014876
-0.000869472
-0.00174428
-0.000509601
-0.000907143
-0.000574909
0.000640117
-0.000908057
0.00118151
-0.00104238
0.000461406
-0.000856808
-0.000675961
-0.000896777
-2.45789e-05
-0.00114977
0.000748753
-0.00117168
5.76134e-05
-0.00116229
0.000147466
-0.000862195
-0.000857112
-0.00024465
-0.00206477
0.000115752
-0.000989994
1.58944e-05
0.000526292
-0.000230745
0.000584896
-0.000435006
0.000486991
-0.00066868
0.000824077
-0.000738669
0.000257178
-0.000677717
-0.000269079
-0.000623971
-0.000207818
-0.000637071
-5.65221e-06
-0.000687888
7.9301e-05
-0.00075198
0.000112998
-0.000903005
0.000446152
-0.00103363
0.000473041
-0.00107127
0.000239898
-0.00114186
0.000218327
-0.00121607
0.000158777
-0.00112866
-0.000269383
-0.000985102
-0.000340416
-0.000972514
-2.44808e-05
-0.00106279
0.000290989
-0.00101867
-0.000222912
-0.00103256
6.24516e-05
-0.00111463
0.000314033
-0.00115263
0.000156083
-0.00114264
-4.85955e-05
-0.00112461
-6.82875e-05
-0.00112736
-2.934e-06
-0.00114443
-2.41101e-06
-0.00113067
-5.29168e-05
-0.00103656
-0.000231072
-0.000931082
-0.000276616
-0.000882854
-0.000121925
-0.000826761
-0.000145124
-0.000728874
-0.000306745
-0.000656814
-0.000224226
-0.000587992
-0.000234676
-0.000481285
-0.000343503
-0.000351003
-0.000384868
-0.000245054
-0.000316069
-0.00023932
-0.00010272
-0.000196356
-0.000105232
2.56916e-05
-0.000596545
0.000230998
-0.000554603
0.00020694
0.00016163
2.81954e-05
0.000434322
-0.000109263
0.000269834
-0.000163395
0.000164898
-8.97674e-05
-0.000181944
4.7463e-05
-0.000376657
0.000188742
-0.000406291
0.000328773
-0.000457838
0.000154155
0.000684678
-0.000451214
0.00184073
-0.000762312
0.000857473
-0.000590457
-0.00054027
-0.000343759
-0.000799176
-9.43309e-05
-0.000741082
0.000151829
-0.000708642
0.000349358
-0.000579735
0.000605084
-0.00079319
0.000927633
-0.0010661
0.000998194
-0.000278819
0.000337542
0.0019932
-0.000265215
0.00191652
-0.00034916
0.000305835
-0.000626559
0.000838218
-0.000842208
0.000603766
-0.000668884
-0.000550957
-0.000172143
-0.00139947
0.000340223
-0.00145406
0.00037815
-0.000110865
-5.66456e-06
0.00101093
-0.000345062
0.000948386
-0.000344356
4.53516e-05
-0.000238302
-0.000298143
-0.000131607
-0.000322244
4.879e-05
-0.000498584
0.000228405
-0.000551505
0.000344567
-0.000411345
0.000407903
-0.000196579
0.000515139
-0.000316152
0.000594896
-0.000223032
0.000655971
-0.000183778
0.000775991
-0.000343443
0.000767389
2.49796e-05
0.00101242
0.000444816
0.000683317
-0.00334717
0.00100577
-0.00156169
-0.000201344
0.00493159
-0.00131671
0.00538843
-0.0015108
0.000440384
-0.00132311
-0.00167529
-0.000980141
-0.00208725
-0.000784541
-0.00110274
-0.00082111
0.00067669
-0.00101809
0.00137849
-0.0010563
0.000499622
-0.000866253
-0.00086601
-0.000855202
-3.56326e-05
-0.00104096
0.000934504
-0.0010316
4.82478e-05
-0.00104364
0.000159501
-0.000824898
-0.00107585
-0.00026106
-0.0026286
9.60898e-05
-0.00134714
-1.29958e-05
0.000635381
-0.0002763
0.000848202
-0.000508856
0.00071955
-0.000789013
0.00110423
-0.000885053
0.000353219
-0.000790477
-0.000363653
-0.000656363
-0.000341932
-0.000598608
-6.34066e-05
-0.000587357
6.80502e-05
-0.000621086
0.000146726
-0.000765357
0.000590423
-0.00090162
0.000609304
-0.000982434
0.000320711
-0.00110625
0.000342142
-0.00117337
0.000225898
-0.001121
-0.000321752
-0.00104427
-0.000417146
-0.00103278
-3.59734e-05
-0.001072
0.000330214
-0.000996519
-0.000298396
-0.000998142
6.40747e-05
-0.00111491
0.000430797
-0.0012033
0.000244476
-0.00120334
-4.85556e-05
-0.00117608
-9.55435e-05
-0.00116335
-1.56672e-05
-0.00114523
-2.05344e-05
-0.00112397
-7.41719e-05
-0.0010694
-0.000285643
-0.00100224
-0.000343779
-0.000982972
-0.00014119
-0.000937377
-0.000190719
-0.000833473
-0.00041065
-0.000740195
-0.000317504
-0.000638508
-0.000336364
-0.00050931
-0.0004727
-0.000373484
-0.000520694
-0.000263881
-0.000425672
-0.000214108
-0.000152493
-0.000145755
-0.000173584
-6.22648e-07
-0.000741675
0.000123697
-0.000678923
0.000142031
0.000143295
7.31648e-05
0.000503189
-6.04821e-06
0.000349047
-9.1539e-05
0.000250388
-7.12892e-05
-0.000202194
3.29662e-05
-0.000480912
0.00014048
-0.000513804
0.000272571
-0.000589927
0.000167386
0.000789862
-0.000360814
0.00236893
-0.000680194
0.00117685
-0.00056727
-0.000653195
-0.000344429
-0.00102202
-0.000113199
-0.000972315
0.000109471
-0.000931313
0.000316009
-0.000786277
0.000579956
-0.00105713
0.000806853
-0.00129299
0.000828916
-0.000300881
0.000314571
0.00250755
-0.000243222
0.00247432
-0.000402433
0.000465047
-0.000639195
0.00107498
-0.000841295
0.000805868
-0.000687995
-0.000704255
-0.000205839
-0.00188162
0.000206776
-0.00186668
0.000208927
-0.000113014
-0.000105631
0.00132549
-0.000403284
0.00124604
-0.000380665
2.27322e-05
-0.00026214
-0.000416667
-0.000152979
-0.000431405
7.82133e-06
-0.000659384
0.000173009
-0.000716693
0.000298698
-0.000537034
0.000369407
-0.000267288
0.000473766
-0.00042051
0.000570725
-0.000319992
0.000637134
-0.000250186
0.00073041
-0.000436719
0.000719124
3.62656e-05
0.00127739
0.000454152
0.000174571
-0.00383963
0.000387037
-0.00177415
-0.000400041
0.00571866
-0.0012959
0.00628428
-0.00149204
0.000636524
-0.00126618
-0.00190115
-0.000874908
-0.00247852
-0.000743862
-0.00123378
-0.000782504
0.000715334
-0.000949665
0.00154565
-0.00104037
0.00059033
-0.00085053
-0.00105585
-0.000777172
-0.000108993
-0.00108131
0.00123863
-0.00120577
0.000172709
-0.00120797
0.000161694
-0.000895007
-0.00138882
-0.000141966
-0.00338165
0.000241555
-0.00173066
-2.19067e-05
0.000898844
-0.000360158
0.00118645
-0.000518487
0.00087788
-0.000693012
0.00127876
-0.000786466
0.000446673
-0.0007687
-0.000381419
-0.00068814
-0.000422491
-0.000619156
-0.00013239
-0.000554004
2.89797e-06
-0.000572686
0.000165409
-0.000648035
0.000665772
-0.000671417
0.000632686
-0.000726601
0.000375894
-0.000877461
0.000493002
-0.000970713
0.000319149
-0.000954522
-0.000337943
-0.000987008
-0.000384661
-0.00105763
3.46507e-05
-0.00108886
0.000361443
-0.00102822
-0.000359043
-0.00103651
7.23721e-05
-0.00112879
0.000523079
-0.00114693
0.000262609
-0.00111216
-8.33252e-05
-0.00111247
-9.52338e-05
-0.00113822
1.00816e-05
-0.00114005
-1.87057e-05
-0.00110588
-0.000108336
-0.00102692
-0.000364606
-0.000958645
-0.000412053
-0.000936199
-0.000163636
-0.000878774
-0.000248144
-0.000784503
-0.000504921
-0.000714786
-0.000387221
-0.000627509
-0.000423641
-0.00049584
-0.000604369
-0.000351888
-0.000664647
-0.000240211
-0.000537349
-0.000226137
-0.000166568
-0.000145679
-0.000254044
5.86617e-05
-0.000946018
0.000200787
-0.000821048
0.000187515
0.000156566
1.20523e-05
0.000678651
-0.000121871
0.00048297
-0.000142836
0.000271353
-7.11326e-05
-0.000273898
6.39382e-05
-0.000615983
0.000193649
-0.000643515
0.00031442
-0.0007107
0.000203773
0.000900509
-0.000322748
0.00289545
-0.000689286
0.00154339
-0.000595191
-0.000747288
-0.000360072
-0.00125714
-0.000111536
-0.00122085
0.000127436
-0.00117028
0.000331409
-0.000990242
0.000607346
-0.00133308
0.000888148
-0.00157379
0.000898428
-0.000311158
0.000352881
0.0030531
-0.000203259
0.00303046
-0.000375361
0.000637151
-0.000612501
0.00131212
-0.000773345
0.000966713
-0.000599667
-0.000877931
-0.000179402
-0.00230188
0.000246669
-0.00229275
0.000301077
-0.00016742
-6.06962e-05
0.00168726
-0.000279484
0.00146483
-0.000219822
-3.69297e-05
-0.000213592
-0.000422897
-0.000127256
-0.000517741
5.76985e-05
-0.000844339
0.000216508
-0.000875503
0.000323424
-0.00064395
0.000406586
-0.000350452
0.000508444
-0.000522369
0.000594149
-0.000405698
0.00065019
-0.000306228
0.000754898
-0.000541428
0.00077511
1.60533e-05
0.00155735
0.000495148
-0.000243762
-0.00430974
0.000104573
-0.00212249
-0.000591715
0.00641495
-0.00135761
0.00705016
-0.00155096
0.000829872
-0.00131972
-0.0021324
-0.000894912
-0.00290332
-0.000705217
-0.00142347
-0.000817888
0.000828006
-0.00100908
0.00173684
-0.00108921
0.000670469
-0.000936516
-0.00120855
-0.000875496
-0.000170015
-0.00106579
0.00142893
-0.00112127
0.000228187
-0.00110299
0.000143411
-0.000856664
-0.00163515
-0.000233202
-0.00400511
0.000140892
-0.00210476
-0.000119022
0.00115876
-0.000453754
0.00152119
-0.00060964
0.00103377
-0.000725892
0.00139502
-0.000726291
0.000447073
-0.000700114
-0.000407594
-0.000722774
-0.00039983
-0.000668758
-0.000186406
-0.000565307
-0.000100553
-0.000575819
0.000175921
-0.000653037
0.00074299
-0.000693402
0.00067305
-0.000772972
0.000455464
-0.000916265
0.000636294
-0.00100049
0.000403374
-0.000962301
-0.000376132
-0.000933772
-0.00041319
-0.00103279
0.000133669
-0.00109925
0.000427907
-0.00101885
-0.000439447
-0.00102051
7.40387e-05
-0.00109718
0.000599745
-0.00112564
0.000291072
-0.00113358
-7.53843e-05
-0.00117452
-5.42993e-05
-0.00116872
4.28038e-06
-0.0010814
-0.000106019
-0.00100665
-0.000183088
-0.000956742
-0.000414518
-0.000912399
-0.000456396
-0.000896541
-0.000179494
-0.000846834
-0.00029785
-0.000751978
-0.000599777
-0.000692667
-0.000446532
-0.000639576
-0.000476732
-0.00054614
-0.000697804
-0.000412064
-0.000798723
-0.000243905
-0.000705508
-0.000174902
-0.00023557
-0.000132811
-0.000296135
3.69855e-06
-0.00108253
0.000116429
-0.000933777
0.00013599
0.000137005
4.68608e-05
0.000767779
-4.95562e-05
0.000579386
-0.000104937
0.000326734
-7.21863e-05
-0.000306649
3.51703e-05
-0.000723339
0.000135955
-0.0007443
0.000263784
-0.000838525
0.000195773
0.000968519
-0.000290349
0.00338157
-0.00068294
0.00193598
-0.000610029
-0.000820203
-0.000330373
-0.0015368
-3.80823e-05
-0.00151314
0.000151594
-0.00135996
0.000287655
-0.0011263
0.000557093
-0.0016025
0.000832257
-0.00184896
0.000839249
-0.00031815
0.000358229
0.00353413
-0.000164618
0.00355331
-0.000390447
0.000862981
-0.000612938
0.00153461
-0.000690056
0.00104383
-0.00052816
-0.00103983
-0.000198316
-0.00263172
0.000197923
-0.00268899
0.000237008
-0.000206502
-0.00012289
0.00204716
-0.000154309
0.00149625
-7.06665e-05
-0.000120572
-0.00019084
-0.000302724
-0.000123436
-0.000585145
7.6987e-05
-0.00104476
0.000279889
-0.0010784
0.000359466
-0.000723527
0.000377373
-0.000368356
0.000459412
-0.000604407
0.000504092
-0.000450378
0.000525879
-0.000328015
0.000650185
-0.000665735
0.000722803
-5.65648e-05
0.00179243
0.000487727
-0.000180373
-0.00487627
0.000240485
-0.00254335
-0.000603692
0.00725912
-0.00137867
0.00782514
-0.00158416
0.00103536
-0.0012122
-0.00250436
-0.000694131
-0.00342141
-0.000620315
-0.00149729
-0.000783477
0.00099117
-0.00098699
0.00194035
-0.00111598
0.000799462
-0.00102218
-0.00130236
-0.000966841
-0.000225358
-0.0011017
0.00156378
-0.00116352
0.000290006
-0.00101786
-2.26451e-06
-0.000739081
-0.00191392
-0.000357985
-0.0043862
-2.20229e-05
-0.00244072
-0.000146798
0.00128354
-0.000395975
0.00177037
-0.000572693
0.00121049
-0.000743251
0.00156557
-0.000681097
0.000384919
-0.000594021
-0.000494667
-0.000648332
-0.000345519
-0.000681033
-0.000153703
-0.000624286
-0.0001573
-0.000635845
0.00018748
-0.000751303
0.000858449
-0.000772111
0.000693858
-0.000841433
0.000524786
-0.00103226
0.000827119
-0.00111223
0.000483349
-0.000983961
-0.000504404
-0.000836193
-0.000560958
-0.000910652
0.000208128
-0.00104791
0.000565168
-0.0010007
-0.000486659
-0.00101365
8.69838e-05
-0.00110502
0.000691114
-0.00113683
0.000322886
-0.00111511
-9.71013e-05
-0.00108182
-8.75912e-05
-0.00107263
-4.90752e-06
-0.00104809
-0.000130564
-0.00102889
-0.000202291
-0.000964156
-0.000479247
-0.000867192
-0.00055336
-0.000865398
-0.000181288
-0.000841179
-0.00032207
-0.000746824
-0.000694133
-0.00068336
-0.000509995
-0.000630129
-0.000529963
-0.000530447
-0.000797486
-0.000370593
-0.000958577
-0.000193735
-0.000882366
-0.00016879
-0.000260516
-0.000115083
-0.000349843
3.41663e-05
-0.00123177
0.000158614
-0.00105823
0.000174226
0.000121394
1.71513e-05
0.000924853
-0.000122486
0.000719024
-0.000119312
0.000323559
-2.64981e-05
-0.000399463
6.96333e-05
-0.00081947
0.000166016
-0.000840683
0.000285997
-0.000958512
0.000216204
0.00103831
-0.000272257
0.00387004
-0.000680044
0.00234376
-0.000520422
-0.000979823
-0.000184789
-0.00187242
-2.53386e-07
-0.00169767
0.000190325
-0.00155054
0.000360333
-0.00129631
0.000528275
-0.00177044
0.000815452
-0.00213612
0.000870524
-0.000373218
0.000392979
0.00401168
-0.000125213
0.0040715
-0.00036646
0.00110423
-0.000585627
0.00175378
-0.000696284
0.00115449
-0.000516668
-0.00121944
-0.000191033
-0.00295735
0.000196255
-0.00307627
0.000301331
-0.000311575
-7.22457e-05
0.00242074
-9.1019e-05
0.00151502
-3.51731e-05
-0.000176418
-0.000210179
-0.000127718
-0.000128264
-0.00066706
7.12321e-05
-0.00124426
0.000283198
-0.00129037
0.00041953
-0.000859859
0.000435952
-0.000384781
0.00048895
-0.000657408
0.0005469
-0.000508328
0.000549107
-0.000330222
0.000643794
-0.000760421
0.000727678
-0.000140449
0.00200482
0.000515281
-0.000146747
-0.00530856
0.000287108
-0.00297719
-0.000557949
0.00810418
-0.00139283
0.00866003
-0.00155868
0.00120121
-0.00109041
-0.00297266
-0.000587426
-0.00392439
-0.000546752
-0.00153797
-0.00074096
0.00118538
-0.000980679
0.00218007
-0.00116712
0.000985905
-0.00111294
-0.00135655
-0.00106164
-0.000276659
-0.00112063
0.00162277
-0.0011057
0.000275068
-0.00095598
-0.000151985
-0.000738455
-0.00213145
-0.000294358
-0.00483031
8.54134e-05
-0.00282049
-0.000106985
0.00147594
-0.000403779
0.00206716
-0.00060546
0.00141217
-0.000676814
0.00163693
-0.000568525
0.00027663
-0.000553114
-0.000510078
-0.000600324
-0.000298308
-0.000669339
-8.46874e-05
-0.000642307
-0.000184332
-0.000605962
0.000151136
-0.000684968
0.000937455
-0.00073771
0.000746599
-0.000907035
0.000694111
-0.00117074
0.00109082
-0.00120942
0.000522029
-0.00103594
-0.000677884
-0.000883195
-0.000713705
-0.00091848
0.000243412
-0.00104887
0.000695561
-0.00103124
-0.00050429
-0.00103503
9.07682e-05
-0.00111407
0.000770158
-0.0011274
0.000336213
-0.00108263
-0.000141871
-0.00106954
-0.00010068
-0.00110487
3.04267e-05
-0.00113734
-9.81003e-05
-0.00109838
-0.000241252
-0.0010018
-0.000575824
-0.000939711
-0.00061545
-0.000918905
-0.000202094
-0.000851085
-0.000389889
-0.000734267
-0.000810951
-0.000664346
-0.000579917
-0.000608671
-0.000585638
-0.000514763
-0.000891395
-0.00035035
-0.00112299
-0.000248526
-0.00098419
-0.000187323
-0.000321719
1.79181e-05
-0.000555085
5.83256e-05
-0.00127218
7.82925e-05
-0.00107819
0.000146408
5.32782e-05
1.75364e-05
0.00105372
-7.85742e-05
0.000815133
-7.83229e-05
0.000323307
-4.33054e-05
-0.000434481
4.55802e-05
-0.000908356
0.000121437
-0.000916539
0.000239688
-0.00107676
0.000207153
0.00107085
-0.000254485
0.00433167
-0.000605602
0.00269488
-0.000406879
-0.00117854
-0.000160008
-0.0021193
-2.8802e-05
-0.00182888
0.000192447
-0.00177178
0.000411353
-0.00151521
0.000507143
-0.00186624
0.000684878
-0.00231386
0.000785775
-0.000474113
0.000380603
0.00441685
-0.000110538
0.00456265
-0.000357606
0.0013513
-0.00055616
0.00195234
-0.000679072
0.00127741
-0.000545227
-0.00135329
-0.000216475
-0.0032861
0.00010817
-0.00340091
0.000196157
-0.000399562
7.60417e-05
0.00254085
4.01129e-05
0.00155095
-0.0001057
-3.06053e-05
-0.000164298
-6.91212e-05
-1.61075e-05
-0.000815251
0.000133226
-0.00139359
0.000283353
-0.0014405
0.00042568
-0.00100219
0.000444367
-0.000403467
0.000448505
-0.000661544
0.000498689
-0.000558514
0.000512613
-0.000344146
0.000598545
-0.000846354
0.000685096
-0.000227001
0.00219001
0.000499909
-0.00013922
-0.00573587
0.000268942
-0.00338536
-0.00044702
0.00882014
-0.00127609
0.0094891
-0.0014159
0.00134101
-0.00108022
-0.00330833
-0.000675533
-0.00432907
-0.00053656
-0.00167693
-0.000670146
0.00131897
-0.000949242
0.00245917
-0.00113149
0.00116815
-0.00109718
-0.00139086
-0.00105231
-0.000321529
-0.00111723
0.00168768
-0.00106324
0.000221076
-0.000875954
-0.000339273
-0.000738501
-0.00226889
-0.000252584
-0.00531621
0.00011071
-0.00318378
-0.00014073
0.00172738
-0.000398292
0.00232472
-0.000598341
0.00161222
-0.000576102
0.00161469
-0.000496998
0.000197527
-0.0006045
-0.000402575
-0.00055545
-0.000347358
-0.000585409
-5.47283e-05
-0.000632278
-0.000137462
-0.000618466
0.000137324
-0.000693555
0.00101254
-0.000758463
0.000811507
-0.000890456
0.000826103
-0.00109623
0.0012966
-0.00112487
0.000550672
-0.000999964
-0.00080279
-0.000927043
-0.000786628
-0.000977219
0.00029359
-0.00105952
0.000777863
-0.000997107
-0.000566705
-0.000997601
9.12618e-05
-0.00111771
0.000890265
-0.0011694
0.000387902
-0.0011318
-0.000179462
-0.00109329
-0.000139194
-0.00109406
3.11973e-05
-0.0010563
-0.00013586
-0.000984604
-0.000312949
-0.000926067
-0.00063436
-0.000879599
-0.000661918
-0.000872476
-0.000209217
-0.000847676
-0.000414689
-0.000766245
-0.000892382
-0.000697252
-0.00064891
-0.000630865
-0.000652025
-0.000528291
-0.000993969
-0.000358177
-0.0012931
-0.000174588
-0.00116778
-8.50407e-05
-0.000411266
1.22744e-05
-0.000652398
6.45059e-05
-0.00132441
0.00011479
-0.00112848
0.000166715
1.35281e-06
2.00462e-05
0.00120039
-9.18848e-05
0.000927065
-8.8355e-05
0.000319777
-3.45412e-05
-0.000488294
8.51294e-05
-0.00102803
0.000168297
-0.000999707
0.000254061
-0.00116252
0.000198958
0.00112595
-0.000226147
0.00475678
-0.000456081
0.00292481
-0.000292789
-0.00134184
-0.000174314
-0.00223777
1.35286e-06
-0.00200454
0.000220888
-0.00199132
0.000423884
-0.00171821
0.000529824
-0.00197217
0.00063398
-0.00241802
0.000711337
-0.000551472
0.000385586
0.00474261
-8.53714e-05
0.00503361
-0.00034701
0.00161294
-0.0005347
0.00214003
-0.000642556
0.00138526
-0.000492777
-0.00150306
-0.000179987
-0.0035989
0.000113958
-0.00369486
0.00019306
-0.000478663
0.00019194
0.00254197
0.000165727
0.00157716
0.000101539
3.35831e-05
0.000187077
-0.00015466
0.000213651
-0.000841825
0.000195198
-0.00137514
0.000291732
-0.00153703
0.000435039
-0.00114549
0.00048665
-0.000455078
0.00047965
-0.000654545
0.000497009
-0.000575873
0.000506343
-0.00035348
0.00058299
-0.000923001
0.000677748
-0.000321759
0.00237282
0.000494935
-0.000370525
-0.00603425
7.63331e-05
-0.00383222
-0.000381728
0.0092782
-0.00124133
0.0103487
-0.00145882
0.00155849
-0.00120902
-0.00355815
-0.00075871
-0.00477938
-0.000626708
-0.00180893
-0.000747218
0.00143948
-0.000952083
0.00266404
-0.00110515
0.00132122
-0.00108848
-0.00140753
-0.00106954
-0.000340474
-0.00111248
0.00173062
-0.00105315
0.000161743
-0.000928255
-0.00046417
-0.000735688
-0.00246148
-0.000195106
-0.00585684
0.000103562
-0.00348244
-0.000111242
0.00194218
-0.000322888
0.00253637
-0.000535843
0.00182517
-0.000679468
0.00175832
-0.000716524
0.000234583
-0.000713743
-0.000405355
-0.000588049
-0.000473052
-0.000560293
-8.24831e-05
-0.000615738
-8.20181e-05
-0.000666023
0.000187611
-0.000728768
0.00107529
-0.000773958
0.000856696
-0.000866104
0.00091825
-0.00102304
0.00145353
-0.00104467
0.000572302
-0.00093619
-0.000911272
-0.000888295
-0.000834522
-0.000976133
0.000381426
-0.00104971
0.00085144
-0.000979151
-0.000637261
-0.00100301
0.000115119
-0.00113184
0.0010191
-0.00116413
0.000420186
-0.00114319
-0.000200402
-0.00113619
-0.00014619
-0.00109086
-1.41331e-05
-0.000962875
-0.000263846
-0.000934323
-0.000341501
-0.000941989
-0.000626695
-0.000841064
-0.000762842
-0.000842835
-0.000207447
-0.000787595
-0.000469929
-0.000672748
-0.00100723
-0.000679869
-0.000641789
-0.000620638
-0.000711257
-0.000475146
-0.00113946
-0.000318312
-0.00144994
-0.000133161
-0.00135293
-0.000125725
-0.000418703
-8.27275e-05
-0.000695397
6.23774e-05
-0.00146952
7.43998e-05
-0.0011405
9.83994e-05
-2.26461e-05
6.7023e-05
0.00123177
-3.35134e-05
0.0010276
-8.53062e-05
0.000371569
-2.24126e-05
-0.000551188
8.41113e-05
-0.00113455
0.000178456
-0.00109405
0.000246079
-0.00123015
0.000169443
0.00120258
-0.000196561
0.00512278
-0.00042052
0.00314877
-0.00034063
-0.00142172
-0.000209004
-0.0023694
1.39272e-05
-0.00222748
0.000238711
-0.0022161
0.000403786
-0.00188328
0.000554394
-0.00212279
0.000615424
-0.00247902
0.000599308
-0.000535349
0.000355915
0.00498601
-7.1362e-05
0.00546089
-0.000350599
0.00189218
-0.000542745
0.00233218
-0.000598229
0.00144075
-0.000454765
-0.00164652
-0.000199186
-0.00385446
8.91206e-05
-0.00398314
0.00018364
-0.000573185
0.000240053
0.00248556
0.000202269
0.00161495
0.000210532
2.53194e-05
0.0003118
-0.000255928
0.000270652
-0.000800677
0.000285062
-0.00138955
0.000345384
-0.00159735
0.000431109
-0.00123122
0.000487468
-0.000511439
0.000466545
-0.000633625
0.000448984
-0.000558313
0.000467435
-0.000371931
0.000551132
-0.0010067
0.00065948
-0.000430108
0.00254658
0.000485724
-0.000485391
-0.00628282
-0.000106487
-0.00421111
-0.000432853
0.00960456
-0.00122929
0.0111451
-0.00123525
0.00156443
-0.00112915
-0.00366426
-0.000984862
-0.00492365
-0.000666987
-0.0021268
-0.000690496
0.00146299
-0.000941066
0.0029146
-0.00104864
0.00142879
-0.00100468
-0.00145149
-0.000990737
-0.000354421
-0.00101607
0.00175595
-0.00103861
0.00018427
-0.000990221
-0.000512558
-0.000629898
-0.00282179
-0.000176053
-0.00631067
4.2521e-05
-0.00370102
8.19085e-05
0.0019028
-0.000102772
0.00272105
-0.000418986
0.00214139
-0.00073714
0.00207648
-0.000775127
0.000272571
-0.000685006
-0.000495476
-0.000607272
-0.000550785
-0.00052168
-0.000168075
-0.000587161
-1.65375e-05
-0.000691999
0.000292448
-0.000742113
0.0011254
-0.000777073
0.000891656
-0.000848036
0.000989212
-0.000997192
0.00160269
-0.00096405
0.000539158
-0.000803915
-0.00107141
-0.000753932
-0.000884505
-0.000907725
0.000535219
-0.00104786
0.000991575
-0.000995768
-0.000689354
-0.00100308
0.000122429
-0.00107159
0.00108761
-0.000945381
0.000293978
-0.000901654
-0.000244128
-0.00103702
-1.08183e-05
-0.00101752
-3.36421e-05
-0.000937782
-0.00034358
-0.00096477
-0.000314513
-0.000985388
-0.000606077
-0.000924033
-0.000824198
-0.000818244
-0.000313235
-0.000637482
-0.000650692
-0.000501698
-0.00114301
-0.000470127
-0.00067336
-0.000402039
-0.000779344
-0.0002728
-0.0012687
-8.47033e-05
-0.00163804
-3.77752e-05
-0.00139986
-0.000194236
-0.000262241
-8.8582e-05
-0.00080105
0.00010645
-0.00166455
0.000118494
-0.00115254
9.24529e-05
3.3945e-06
4.64856e-05
0.00127774
-4.55125e-05
0.0011196
-8.16051e-05
0.000407662
-2.95951e-06
-0.000629834
9.8771e-05
-0.00123628
0.000199581
-0.00119486
0.000236527
-0.00126709
0.000169718
0.00126939
-0.000164774
0.00545727
-0.00044348
0.00342747
-0.000340674
-0.00152453
-0.000136114
-0.00257396
6.39089e-06
-0.00236998
0.000197972
-0.00240768
0.000399309
-0.00208462
0.000597693
-0.00232116
0.000667256
-0.0025486
0.000566645
-0.00043474
0.000294057
0.0052586
-8.6124e-05
0.00584107
-0.000359518
0.00216557
-0.000557509
0.00253017
-0.00057581
0.00145905
-0.000433773
-0.00178857
-0.000200899
-0.00408735
0.000116239
-0.00430033
0.00026592
-0.000722867
0.000294942
0.00245654
0.000170048
0.00173984
0.00018187
1.3498e-05
0.000309541
-0.0003836
0.000269211
-0.000760347
0.000310357
-0.0014307
0.000361108
-0.0016481
0.000433375
-0.00130348
0.000505161
-0.000583223
0.000477501
-0.00060596
0.000428736
-0.000509548
0.000446463
-0.000389659
0.000545154
-0.00110539
0.000662148
-0.000547102
0.0027185
0.000490221
-0.000510573
-0.00643358
-0.000321855
-0.00439983
-0.000533957
0.00981666
-0.0012964
0.0119076
-0.00111068
0.00137872
-0.00107079
-0.00370412
-0.0015292
-0.00446525
-0.00109904
-0.00255696
-0.000744565
0.00110853
-0.000975522
0.00314557
-0.00104073
0.00149401
-0.000948272
-0.00154395
-0.000914646
-0.000388051
-0.00100178
0.00184308
-0.0010782
0.000260687
-0.00101291
-0.000577853
-0.00058803
-0.00324668
-0.00030099
-0.00659769
-4.39078e-05
-0.00395809
0.000209225
0.00164966
-3.62179e-05
0.0029665
-0.000354909
0.00246008
-0.000631324
0.00235289
-0.000621912
0.00026316
-0.00058994
-0.000527446
-0.000637172
-0.000503553
-0.000579652
-0.000225594
-0.000619076
2.28868e-05
-0.000713608
0.00038698
-0.000762343
0.00117414
-0.00077757
0.000906883
-0.000829211
0.00104085
-0.000957484
0.00173096
-0.000844282
0.000425956
-0.000655622
-0.00126007
-0.000714882
-0.000825245
-0.000884375
0.000704713
-0.00100965
0.00111685
-0.00101351
-0.000685495
-0.00103022
0.000139134
-0.00101124
0.00106863
-0.000829667
0.000112407