/*--------------------------------*- C++ -*----------------------------------*\
| =========                 |                                                 |
| \\      /  F ield         | OpenFOAM: The Open Source CFD Toolbox           |
|  \\    /   O peration     | Version:  v1912                                 |
|   \\  /    A nd           | Website:  www.openfoam.com                      |
|    \\/     M anipulation  |                                                 |
\*---------------------------------------------------------------------------*/
FoamFile
{
    version     2.0;
    format      ascii;
    class       volSymmTensorField;
    location    "50";
    object      R;
}
// * * * * * * * * * * * * * * * * * * * * * * * * * * * * * * * * * * * * * //

dimensions      [0 2 -2 0 0 0 0];


internalField   nonuniform List<symmTensor> 
14268
(
(0.0351526 0.00728387 0 0.0913711 0 0.043684)
(0.044471 0.0175421 0 0.0587144 0 0.0443394)
(0.0234635 0.00582823 0 0.0223331 0 0.0204079)
(0.0238891 -0.00738011 0 0.0293998 0 0.0186403)
(0.0585577 -0.0202065 0 0.132809 0 0.0526747)
(0.0657638 -0.0101009 0 0.207255 0 0.0709707)
(0.0679887 0.00771304 0 0.217873 0 0.077621)
(0.0613678 0.0178008 0 0.157849 0 0.0655298)
(0.0418096 0.0156031 0 0.0699701 0 0.0403662)
(0.0157194 0.00452698 0 0.0184318 0 0.0145216)
(0.0141266 -0.000574654 0 0.0256887 0 0.0132579)
(0.0226342 -0.00555885 0 0.0637609 0 0.0231237)
(0.0209876 -0.000667182 0 0.0610204 0 0.0218455)
(0.0151105 0.000252613 0 0.0328208 0 0.0138285)
(0.0207096 -0.00217033 0 0.0371993 0 0.0196329)
(0.0256973 -0.00571516 0 0.0452485 0 0.0243047)
(0.0427664 -0.0120317 0 0.0928783 0 0.0431626)
(0.0453927 -0.00295871 0 0.123715 0 0.0535029)
(0.0362586 0.0101702 0 0.0708749 0 0.0384654)
(0.00550829 0.00161219 0 0.00713246 0 0.00471423)
(0.00700017 0.00111273 0 0.0185389 0 0.00583684)
(0.0138348 0.00486144 0 0.0327944 0 0.0125676)
(0.00884073 0.00126867 0 0.0147719 0 0.00773599)
(0.0126928 -0.00278469 0 0.0197928 0 0.0121586)
(0.0175522 -0.00392567 0 0.0303504 0 0.0179722)
(0.0164677 -0.00264277 0 0.0319535 0 0.0175947)
(0.0120248 -0.00299014 0 0.024532 0 0.0120465)
(0.00910614 -0.00217228 0 0.0187888 0 0.0085064)
(0.00689041 -0.00107775 0 0.0175964 0 0.00634109)
(0.00520338 -0.000481779 0 0.0144464 0 0.0046475)
(0.00495483 -0.00111004 0 0.0123135 0 0.00424945)
(0.00542568 -0.00103584 0 0.00769332 0 0.004613)
(0.00708443 -0.00124658 0 0.00452337 0 0.00588821)
(0.0139594 -0.00317085 0 0.0140827 0 0.0120648)
(0.017057 -0.00362518 0 0.0219141 0 0.0154434)
(0.0160173 -0.00346823 0 0.0260481 0 0.0147112)
(0.0109412 -0.00209242 0 0.0218569 0 0.00970547)
(0.0102227 -0.0014275 0 0.0244597 0 0.00949414)
(0.0156973 -0.00226555 0 0.0395456 0 0.0154895)
(0.0156739 -0.00223494 0 0.0381992 0 0.0152665)
(0.0136989 -0.00306543 0 0.0266721 0 0.0124179)
(0.0149673 -0.00310506 0 0.0279495 0 0.0141108)
(0.0173055 -0.00358558 0 0.032822 0 0.0167668)
(0.016671 -0.00310439 0 0.0317641 0 0.0161058)
(0.0122621 -0.00152872 0 0.0225876 0 0.0115787)
(0.00985883 -0.00127865 0 0.0190941 0 0.00924267)
(0.00942863 -0.00163552 0 0.0242494 0 0.0091565)
(0.0094687 -0.0012966 0 0.0252537 0 0.00959961)
(0.00905789 -0.00038067 0 0.0251416 0 0.00946318)
(0.00863581 9.89762e-05 0 0.0246556 0 0.00901531)
(0.00865738 0.000155462 0 0.025296 0 0.00927467)
(0.00954559 -0.000499494 0 0.0275635 0 0.0103172)
(0.0103484 -0.000589652 0 0.0306567 0 0.0110521)
(0.0120917 -0.0010297 0 0.0353944 0 0.0128906)
(0.0138009 -0.00126762 0 0.0398219 0 0.0148878)
(0.0150882 -0.00139858 0 0.0419837 0 0.0162741)
(0.0143512 -0.00192987 0 0.033029 0 0.0151888)
(0.0148123 -0.00290198 0 0.0212034 0 0.0148967)
(0.0228933 -0.00515784 0 0.0304808 0 0.0223305)
(0.0350302 -0.00927348 0 0.0620563 0 0.0349884)
(0.0256319 -0.00156885 0 0.0465813 0 0.0271144)
(0.00787494 0.000199974 0 0.00578886 0 0.00805765)
(0.0036008 -0.000409735 0 0.00200512 0 0.00303246)
(0.00633296 -0.000723244 0 0.000787279 0 0.00554723)
(0.0190655 -0.00355544 0 0.0257648 0 0.0181369)
(0.0257845 -0.00410106 0 0.0444446 0 0.0264317)
(0.027626 -0.00415873 0 0.0501039 0 0.029066)
(0.0256509 -0.00275038 0 0.0458023 0 0.0274159)
(0.0212085 -0.000397668 0 0.0352128 0 0.023725)
(0.0053977 0.00036954 0 0.00504256 0 0.00538995)
(0.0054107 -0.00131791 0 0.00293745 0 0.0042777)
(0.0248064 -0.00642016 0 0.0318108 0 0.0215962)
(0.0423454 -0.00994425 0 0.085614 0 0.0426825)
(0.0464615 -0.00745144 0 0.102364 0 0.0514859)
(0.0533558 -0.00662461 0 0.120189 0 0.0606702)
(0.0536455 -0.00648585 0 0.120974 0 0.0616713)
(0.0563458 -0.00888073 0 0.125683 0 0.0643498)
(0.0616022 -0.00894497 0 0.142041 0 0.0714682)
(0.0598738 -0.00222085 0 0.141425 0 0.0700801)
(0.0440184 0.00871211 0 0.0875759 0 0.0483284)
(0.0147898 0.0042975 0 0.0184043 0 0.0140078)
(0.00290671 0.000261372 0 0.0028682 0 0.0024181)
(0.00647095 -3.58309e-05 0 0.00557653 0 0.00557318)
(0.00434101 0.000467483 0 0.0026092 0 0.00375569)
(0.0156872 -0.00420323 0 0.0237336 0 0.0142851)
(0.0424416 -0.0093605 0 0.0720777 0 0.0438075)
(0.0532985 -0.00732392 0 0.109291 0 0.0611042)
(0.0494975 0.00149866 0 0.105206 0 0.0595671)
(0.0221836 0.00397586 0 0.0472003 0 0.024271)
(0.00913465 0.00301147 0 0.0190998 0 0.00812827)
(0.00807787 0.00201415 0 0.020589 0 0.00716869)
(0.00924481 0.000527749 0 0.0278189 0 0.00947981)
(0.0087593 -0.000708835 0 0.0270888 0 0.00944212)
(0.0117023 -0.00123086 0 0.0348122 0 0.0128204)
(0.0139603 -0.00190449 0 0.0384609 0 0.0156548)
(0.0171721 -0.00290065 0 0.0426901 0 0.0189957)
(0.0209926 -0.00408036 0 0.0446641 0 0.022635)
(0.0244411 -0.00570963 0 0.0478972 0 0.0250531)
(0.0250292 -0.00361012 0 0.0516752 0 0.0259872)
(0.0228825 0.00106003 0 0.0453538 0 0.0242953)
(0.0194422 0.00400431 0 0.0339038 0 0.021176)
(0.0145772 0.00296983 0 0.030163 0 0.0159246)
(0.00994388 0.00199568 0 0.0201106 0 0.0101526)
(0.00296325 0.00104605 0 0.00447078 0 0.00278346)
(0.0787832 0.0215795 0 0.301106 0 0.10705)
(0.112557 0.0532823 0 0.137582 0 0.107352)
(0.0881749 0.0304106 0 0.0683367 0 0.0669077)
(0.0987377 -0.0496557 0 0.139549 0 0.0571828)
(0.16854 -0.104664 0 0.644899 0 0.132546)
(0.141513 -0.050261 0 0.873929 0 0.15943)
(0.142223 0.0322563 0 0.866137 0 0.177041)
(0.162781 0.10685 0 0.720799 0 0.17922)
(0.147349 0.0838184 0 0.356218 0 0.13553)
(0.0560075 0.0181771 0 0.084521 0 0.0487338)
(0.0388801 -0.00576591 0 0.102027 0 0.035402)
(0.0478837 -0.0202626 0 0.240545 0 0.0498329)
(0.0424862 -0.00704174 0 0.229454 0 0.0445763)
(0.0430509 -0.00855828 0 0.157971 0 0.0356811)
(0.063633 -0.00850793 0 0.164842 0 0.0604315)
(0.0734927 -0.0169641 0 0.198048 0 0.070187)
(0.10758 -0.0455068 0 0.340303 0 0.108501)
(0.105734 -0.0124131 0 0.460196 0 0.136018)
(0.106161 0.0422656 0 0.292668 0 0.115441)
(0.0180775 0.00508973 0 0.0301143 0 0.0127777)
(0.0175754 0.00160334 0 0.0887635 0 0.0111217)
(0.0362706 0.0205249 0 0.137824 0 0.0296694)
(0.0266945 0.00399438 0 0.068803 0 0.022108)
(0.0365195 -0.0108905 0 0.0777072 0 0.0347553)
(0.0459735 -0.0130199 0 0.101318 0 0.048164)
(0.0403508 -0.00789425 0 0.106872 0 0.045889)
(0.0284516 -0.00948108 0 0.0825852 0 0.0298043)
(0.0210746 -0.00534611 0 0.0579434 0 0.0194378)
(0.0147416 0.000694128 0 0.0577023 0 0.0132619)
(0.0111462 0.00319089 0 0.061729 0 0.00973066)
(0.0108343 0.000139177 0 0.0607703 0 0.00913735)
(0.0163722 -0.00303965 0 0.0337483 0 0.0130037)
(0.0287235 -0.00638484 0 0.00751661 0 0.0215007)
(0.0431368 -0.0130559 0 0.0276977 0 0.0342524)
(0.0502188 -0.0146564 0 0.0557784 0 0.0423666)
(0.044307 -0.0136398 0 0.0798375 0 0.0382629)
(0.0281834 -0.00840799 0 0.0688068 0 0.0227145)
(0.0231098 -0.00571895 0 0.0772634 0 0.0199009)
(0.0360822 -0.00806068 0 0.146932 0 0.0354551)
(0.0375339 -0.00659792 0 0.167458 0 0.0369415)
(0.0374218 -0.0108765 0 0.138762 0 0.0329497)
(0.0468447 -0.0156456 0 0.15322 0 0.0427471)
(0.0554065 -0.0198733 0 0.171833 0 0.052426)
(0.053568 -0.017706 0 0.163035 0 0.0502387)
(0.0384391 -0.00836158 0 0.109735 0 0.034676)
(0.0266323 -0.00418349 0 0.0718033 0 0.0239302)
(0.0193125 -0.00391159 0 0.0767945 0 0.018402)
(0.0185328 -0.00388973 0 0.0644662 0 0.0186687)
(0.0176116 -0.00332588 0 0.05958 0 0.0182075)
(0.0167459 -0.002591 0 0.0603965 0 0.0173959)
(0.0165002 -0.00246613 0 0.0630606 0 0.0181949)
(0.0178491 -0.00394667 0 0.0677722 0 0.0200575)
(0.0187726 -0.00431989 0 0.0789199 0 0.0208299)
(0.0220517 -0.00507088 0 0.0999217 0 0.0246765)
(0.0258597 -0.0055036 0 0.126497 0 0.0297822)
(0.0306036 -0.00715056 0 0.155024 0 0.0352524)
(0.0343715 -0.011661 0 0.130404 0 0.0377493)
(0.0470449 -0.0145699 0 0.0915428 0 0.0481167)
(0.0791214 -0.0241828 0 0.147225 0 0.0778055)
(0.116992 -0.0489292 0 0.311223 0 0.116761)
(0.0872913 -0.0132495 0 0.240402 0 0.0938654)
(0.0289957 -0.000288539 0 0.0101623 0 0.0303528)
(0.0158942 -0.00263473 0 0.00592793 0 0.0124967)
(0.0253733 -0.00265326 0 1e-15 0 0.0210654)
(0.0641696 -0.00988098 0 0.132613 0 0.0617638)
(0.0830169 -0.0158713 0 0.2224 0 0.088157)
(0.0882238 -0.0197813 0 0.247272 0 0.0970025)
(0.0843642 -0.0150707 0 0.229596 0 0.0943218)
(0.0704806 -0.00465313 0 0.171169 0 0.083538)
(0.0199398 0.0026482 0 0.00955821 0 0.0204774)
(0.0242786 -0.00412322 0 0.00690853 0 0.016927)
(0.0735848 -0.0238372 0 0.117497 0 0.058822)
(0.105122 -0.0373964 0 0.316843 0 0.106947)
(0.101731 -0.0259334 0 0.331791 0 0.121164)
(0.11124 -0.0229855 0 0.37043 0 0.138901)
(0.112967 -0.0258088 0 0.381408 0 0.14409)
(0.118813 -0.033265 0 0.397022 0 0.150635)
(0.130702 -0.0347783 0 0.456824 0 0.168959)
(0.13361 -0.0141463 0 0.488764 0 0.173283)
(0.112084 0.0278313 0 0.322555 0 0.12786)
(0.0511557 0.0203083 0 0.0644028 0 0.0438326)
(0.0110778 0.000597392 0 0.00818122 0 0.00808053)
(0.0228954 -0.00186101 0 0.0122336 0 0.0169614)
(0.0172588 0.00181285 0 0.00642111 0 0.0134833)
(0.0427474 -0.016609 0 0.0890825 0 0.0367461)
(0.102615 -0.0304505 0 0.21151 0 0.107932)
(0.125463 -0.0278323 0 0.346556 0 0.15488)
(0.116032 -0.00172651 0 0.332098 0 0.153322)
(0.049959 0.00457222 0 0.158489 0 0.0563572)
(0.0233918 0.00672266 0 0.0931713 0 0.0175146)
(0.0176704 0.00805659 0 0.0927404 0 0.0145221)
(0.0167244 0.0012972 0 0.0844113 0 0.0174903)
(0.0151449 -0.00353514 0 0.0771511 0 0.0172875)
(0.0209836 -0.00501578 0 0.119313 0 0.0252734)
(0.0268826 -0.00786717 0 0.131971 0 0.0334159)
(0.0362796 -0.0124922 0 0.146796 0 0.0434564)
(0.0475297 -0.0147212 0 0.1428 0 0.0546356)
(0.0577369 -0.0198981 0 0.151838 0 0.0610793)
(0.0597633 -0.0152102 0 0.164027 0 0.0628595)
(0.0551978 0.000305127 0 0.138254 0 0.059696)
(0.0478029 0.0118714 0 0.0950743 0 0.0541333)
(0.032704 0.00869498 0 0.0861239 0 0.0373892)
(0.024066 0.0035576 0 0.0770751 0 0.0244284)
(0.00964886 0.00266671 0 0.0162152 0 0.0080777)
(0.156398 0.0470215 0 0.765223 0 0.202826)
(0.182303 0.0886357 0 0.171402 0 0.167258)
(0.151243 0.0580297 0 0.142429 0 0.110277)
(0.141522 -0.0740117 0 0.350891 0 0.0828396)
(0.222111 -0.134634 0 1.01235 0 0.174767)
(0.158724 -0.0534445 0 0.999698 0 0.178946)
(0.144862 0.00246499 0 0.927961 0 0.179688)
(0.195511 0.0692449 0 1.1125 0 0.220636)
(0.185993 0.0910468 0 0.615148 0 0.175764)
(0.0848691 0.0180498 0 0.202215 0 0.0746549)
(0.0587588 -0.00838606 0 0.179817 0 0.053239)
(0.0559882 -0.0154567 0 0.269042 0 0.0593925)
(0.0520042 -0.0134696 0 0.255956 0 0.0538516)
(0.0715527 -0.0445992 0 0.334461 0 0.0548135)
(0.097064 -0.0227978 0 0.324943 0 0.0909817)
(0.103053 -0.0213964 0 0.30584 0 0.0992198)
(0.141162 -0.0534505 0 0.459662 0 0.144007)
(0.146378 -0.0224477 0 0.678823 0 0.185468)
(0.136542 0.0359682 0 0.420556 0 0.150837)
(0.0332946 0.00633943 0 0.109066 0 0.0232024)
(0.0264508 0.00666185 0 0.220255 0 0.0151727)
(0.0462169 0.0208703 0 0.234386 0 0.0368781)
(0.0422988 0.00384173 0 0.109317 0 0.0348863)
(0.052193 -0.0105815 0 0.0818752 0 0.0494644)
(0.0641175 -0.0130436 0 0.0946324 0 0.0675747)
(0.0558379 -0.00896061 0 0.106612 0 0.0643055)
(0.0402849 -0.0137014 0 0.0753224 0 0.0428452)
(0.0324515 -0.0098395 0 0.0418923 0 0.0288984)
(0.0220959 -0.00206113 0 0.0300362 0 0.0185217)
(0.0147332 0.000830084 0 0.0413752 0 0.0125435)
(0.0157188 -0.0017605 0 0.0418516 0 0.012952)
(0.0258227 -0.00616365 0 0.0237908 0 0.0195989)
(0.0540406 -0.0167746 0 0.02136 0 0.0380254)
(0.0773878 -0.0300383 0 0.052265 0 0.0573949)
(0.0932006 -0.0361176 0 0.106716 0 0.0725805)
(0.0721302 -0.0277676 0 0.128857 0 0.0590902)
(0.0437343 -0.014132 0 0.0881645 0 0.0337746)
(0.0351298 -0.00792439 0 0.0924207 0 0.0291276)
(0.0481311 -0.00976587 0 0.174902 0 0.0464636)
(0.0480376 -0.0096573 0 0.209713 0 0.0469647)
(0.0509428 -0.0174794 0 0.263537 0 0.0447373)
(0.0652441 -0.0250554 0 0.337379 0 0.0599427)
(0.079742 -0.03581 0 0.374915 0 0.0750733)
(0.0787256 -0.0354395 0 0.358467 0 0.0727201)
(0.0582336 -0.0196476 0 0.257858 0 0.0514659)
(0.0384242 -0.00739035 0 0.101574 0 0.0335601)
(0.0283635 -0.00472403 0 0.041461 0 0.0259616)
(0.028555 -0.00729939 0 0.0324141 0 0.0274827)
(0.0278978 -0.0076847 0 0.033273 0 0.0275879)
(0.0260348 -0.00646677 0 0.0391895 0 0.0259296)
(0.0248688 -0.00437341 0 0.044235 0 0.0268667)
(0.0264959 -0.00594151 0 0.0508883 0 0.0293183)
(0.026548 -0.0055456 0 0.0650906 0 0.0293484)
(0.0294129 -0.00519222 0 0.089652 0 0.0329802)
(0.0328245 -0.00533911 0 0.115297 0 0.0379815)
(0.0378163 -0.00970771 0 0.16571 0 0.0438057)
(0.0454741 -0.020437 0 0.205688 0 0.0499425)
(0.0706166 -0.0288262 0 0.20761 0 0.0715908)
(0.12066 -0.0458319 0 0.340643 0 0.117389)
(0.166084 -0.078655 0 0.584894 0 0.165602)
(0.128004 -0.0323905 0 0.507417 0 0.13714)
(0.0483547 -0.00322607 0 0.0263153 0 0.0519936)
(0.0263689 -0.00355435 0 0.00643537 0 0.0209491)
(0.0408554 -0.00465102 0 0.0136039 0 0.0331419)
(0.0927703 -0.0136963 0 0.30721 0 0.0903827)
(0.117974 -0.0273862 0 0.437781 0 0.126503)
(0.12534 -0.0357608 0 0.473932 0 0.138859)
(0.120323 -0.0289023 0 0.452859 0 0.135772)
(0.100835 -0.015983 0 0.35204 0 0.120223)
(0.0361286 0.00363387 0 0.0246662 0 0.0375172)
(0.0319484 -0.00310878 0 0.00624016 0 0.0229975)
(0.105895 -0.030942 0 0.204719 0 0.0843295)
(0.136652 -0.0428033 0 0.455211 0 0.141831)
(0.129339 -0.0293665 0 0.407973 0 0.156416)
(0.146176 -0.0330907 0 0.486129 0 0.18526)
(0.149813 -0.0365476 0 0.52257 0 0.195469)
(0.153449 -0.0432989 0 0.520477 0 0.200106)
(0.166276 -0.044727 0 0.588187 0 0.220071)
(0.173245 -0.0296229 0 0.6525 0 0.226559)
(0.149742 0.0172477 0 0.502212 0 0.172668)
(0.0739264 0.0221615 0 0.118618 0 0.0641663)
(0.021744 -0.000223485 0 0.00898065 0 0.0151642)
(0.0375394 -0.00726353 0 0.0448969 0 0.0245279)
(0.028438 0.00293961 0 0.0229931 0 0.0206488)
(0.0598013 -0.0215689 0 0.137703 0 0.0507217)
(0.151576 -0.0469954 0 0.31968 0 0.158913)
(0.206107 -0.0612958 0 0.663879 0 0.252892)
(0.192111 -0.0104052 0 0.656815 0 0.256786)
(0.0676978 -0.000979577 0 0.225547 0 0.0774816)
(0.0330451 0.00217718 0 0.18344 0 0.0232926)
(0.0251148 0.00643923 0 0.159876 0 0.0204072)
(0.0225439 0.00103086 0 0.0599935 0 0.0227209)
(0.0203546 -0.00445471 0 0.0451772 0 0.0224681)
(0.0245931 -0.00466096 0 0.111162 0 0.0302677)
(0.032252 -0.00867826 0 0.134452 0 0.041232)
(0.045697 -0.0149573 0 0.175836 0 0.056099)
(0.065744 -0.0214232 0 0.183752 0 0.0764333)
(0.0837133 -0.033549 0 0.209083 0 0.0885502)
(0.0885454 -0.0304688 0 0.235431 0 0.0921417)
(0.0807527 -0.00650367 0 0.186025 0 0.0869369)
(0.0682949 0.0149441 0 0.0981568 0 0.0783585)
(0.0443157 0.0115027 0 0.0582991 0 0.0508832)
(0.0321619 0.00151439 0 0.0922037 0 0.0329501)
(0.0171064 -0.00151358 0 0.0206608 0 0.0140999)
(0.146094 0.0993126 0 1.24851 0 0.197674)
(0.36436 0.21081 0 0.360283 0 0.302573)
(0.194949 0.0936369 0 0.224529 0 0.134367)
(0.147445 -0.0715213 0 0.531424 0 0.0868581)
(0.204064 -0.120516 0 0.987131 0 0.156908)
(0.127674 -0.0345287 0 0.76045 0 0.147012)
(0.113279 -0.030967 0 0.678619 0 0.142526)
(0.147441 0.00183665 0 0.995323 0 0.171169)
(0.175566 0.0564348 0 0.724738 0 0.167983)
(0.0992633 0.0129156 0 0.329938 0 0.0877116)
(0.0656548 -0.00941495 0 0.234119 0 0.0589912)
(0.0536188 -0.00596522 0 0.186423 0 0.0576453)
(0.0527141 -0.00867111 0 0.174827 0 0.0542991)
(0.0779353 -0.0610594 0 0.511073 0 0.0573394)
(0.113666 -0.0312514 0 0.446078 0 0.10702)
(0.117364 -0.0183525 0 0.309549 0 0.114078)
(0.154369 -0.0581187 0 0.498884 0 0.15644)
(0.137204 -0.0223939 0 0.747773 0 0.180925)
(0.147072 0.0338562 0 0.422473 0 0.163825)
(0.0425681 0.0187873 0 0.264904 0 0.0288239)
(0.0287961 0.0177319 0 0.39495 0 0.01486)
(0.0474382 0.0248846 0 0.327708 0 0.0362345)
(0.052367 -0.00347659 0 0.144136 0 0.0416836)
(0.0748691 -0.0226461 0 0.0317994 0 0.0661307)
(0.0925513 -0.0310449 0 0.0674205 0 0.0902365)
(0.071927 -0.0171471 0 0.0741831 0 0.0813239)
(0.0538679 -0.0210922 0 0.0363957 0 0.0568686)
(0.0463118 -0.0176706 0 0.0305572 0 0.0403761)
(0.0329471 -0.00763005 0 0.0340265 0 0.026062)
(0.0201928 0.000783428 0 0.00403398 0 0.0168831)
(0.0211495 -0.000116601 0 1e-15 0 0.0172479)
(0.0412153 -0.00599992 0 1e-15 0 0.0298448)
(0.0731304 -0.0277197 0 0.0651935 0 0.0494036)
(0.103683 -0.0499353 0 0.160882 0 0.0734166)
(0.125245 -0.0608241 0 0.245524 0 0.0927838)
(0.099861 -0.05474 0 0.260329 0 0.0758257)
(0.059046 -0.0276613 0 0.135244 0 0.0423933)
(0.0427218 -0.0117932 0 0.10136 0 0.0334654)
(0.0547371 -0.0115281 0 0.164821 0 0.0517094)
(0.0529987 -0.0106584 0 0.180709 0 0.0509091)
(0.050947 -0.0157878 0 0.240553 0 0.0435946)
(0.0662893 -0.029145 0 0.370232 0 0.0595997)
(0.0873905 -0.0542864 0 0.50589 0 0.0796731)
(0.0884981 -0.0556486 0 0.516954 0 0.0788979)
(0.0671714 -0.0346034 0 0.398805 0 0.0574379)
(0.0483914 -0.0165869 0 0.128213 0 0.0406149)
(0.0409454 -0.0111685 0 0.015363 0 0.0350773)
(0.0420687 -0.01516 0 0.041476 0 0.0383244)
(0.0396966 -0.0163009 0 0.0672133 0 0.0374794)
(0.0359293 -0.0139889 0 0.0749278 0 0.0343887)
(0.0332515 -0.00998703 0 0.0767057 0 0.0349442)
(0.0342227 -0.0122109 0 0.0756053 0 0.0368604)
(0.0323224 -0.00966785 0 0.0699055 0 0.0354687)
(0.0333128 -0.00636787 0 0.0749051 0 0.0376842)
(0.0353374 -0.00374701 0 0.0770077 0 0.0416787)
(0.0374667 -0.00643535 0 0.102262 0 0.0444578)
(0.0439497 -0.0200534 0 0.183917 0 0.0492864)
(0.0837862 -0.0450957 0 0.342563 0 0.0838468)
(0.141832 -0.0673747 0 0.509916 0 0.135643)
(0.181985 -0.106618 0 0.758832 0 0.177588)
(0.139441 -0.0531425 0 0.701269 0 0.14806)
(0.0636277 -0.0101582 0 0.0758242 0 0.0693248)
(0.0351274 -0.00455645 0 0.00399182 0 0.0282565)
(0.0518631 -0.00610661 0 0.0530206 0 0.041021)
(0.106283 -0.0186009 0 0.452205 0 0.103383)
(0.130167 -0.0399279 0 0.587846 0 0.139884)
(0.137073 -0.0519173 0 0.628492 0 0.152603)
(0.13147 -0.0428817 0 0.606279 0 0.14981)
(0.112128 -0.0292593 0 0.480744 0 0.135221)
(0.048364 0.000198603 0 0.0829697 0 0.0509844)
(0.0425639 -0.00341261 0 0.00436999 0 0.030557)
(0.121728 -0.0389802 0 0.249722 0 0.0929825)
(0.140427 -0.0383717 0 0.450305 0 0.147331)
(0.135894 -0.0330576 0 0.394007 0 0.168025)
(0.152916 -0.0428552 0 0.522004 0 0.199898)
(0.152586 -0.0452169 0 0.571094 0 0.209511)
(0.160646 -0.0546729 0 0.558502 0 0.218786)
(0.172038 -0.0512841 0 0.622817 0 0.237837)
(0.17341 -0.0303759 0 0.650307 0 0.235885)
(0.157004 0.012685 0 0.556288 0 0.183584)
(0.0835707 0.023859 0 0.152 0 0.0728712)
(0.032096 7.98505e-05 0 0.00138478 0 0.0219165)
(0.0459317 -0.0147288 0 0.134625 0 0.0262031)
(0.0363205 0.0031683 0 0.0600438 0 0.0248042)
(0.0701255 -0.0317404 0 0.171734 0 0.0568436)
(0.192396 -0.0870464 0 0.470899 0 0.192838)
(0.232887 -0.0975777 0 0.993409 0 0.288302)
(0.21267 -0.00593631 0 0.992181 0 0.297836)
(0.072061 0.00438286 0 0.227471 0 0.0847776)
(0.0331814 0.00706377 0 0.26364 0 0.0222236)
(0.0214108 0.00385084 0 0.14888 0 0.0165994)
(0.030937 -0.000696035 0 1e-15 0 0.0288096)
(0.0257803 -0.00474104 0 0.0123226 0 0.0269222)
(0.0235622 -0.00110324 0 0.0390319 0 0.0301902)
(0.030666 -0.00582512 0 0.0614647 0 0.0411938)
(0.0458757 -0.0158376 0 0.117823 0 0.0579642)
(0.076643 -0.036563 0 0.220088 0 0.0884595)
(0.10861 -0.0638491 0 0.316605 0 0.110591)
(0.113506 -0.058863 0 0.382973 0 0.114488)
(0.100862 -0.0115566 0 0.304112 0 0.108801)
(0.0895457 0.0275146 0 0.139446 0 0.1028)
(0.0591832 0.0243364 0 0.0109015 0 0.0675719)
(0.0366366 0.0068656 0 0.0633984 0 0.0378999)
(0.0210499 -0.00142304 0 0.0272779 0 0.017638)
(0.181087 0.110168 0 1.68678 0 0.228609)
(0.426197 0.244859 0 0.651433 0 0.353554)
(0.184111 0.0904063 0 0.303766 0 0.125294)
(0.136389 -0.0515292 0 0.575522 0 0.0799276)
(0.198618 -0.074417 0 0.901928 0 0.158596)
(0.140492 -0.0232151 0 0.566794 0 0.158004)
(0.118447 -0.0376767 0 0.459734 0 0.144102)
(0.130005 -0.0199057 0 0.706709 0 0.149776)
(0.168757 -0.00165957 0 0.764009 0 0.161292)
(0.111649 -0.000622968 0 0.427563 0 0.0980039)
(0.0791604 -0.0168157 0 0.292912 0 0.0700242)
(0.0597424 -0.000765928 0 0.101989 0 0.0629005)
(0.0603303 0.00371019 0 0.0828915 0 0.0609367)
(0.0685024 -0.0386368 0 0.399399 0 0.0498116)
(0.129762 -0.0456412 0 0.506645 0 0.121441)
(0.141856 -0.0196848 0 0.360047 0 0.139689)
(0.203144 -0.100306 0 0.720416 0 0.196787)
(0.175422 -0.0246898 0 1.01151 0 0.222805)
(0.179948 0.0601054 0 0.484372 0 0.198829)
(0.0559078 0.0344454 0 0.435873 0 0.0394478)
(0.0303786 0.012392 0 0.530598 0 0.0147047)
(0.052227 0.01774 0 0.439214 0 0.0401753)
(0.0626657 -0.0166129 0 0.250073 0 0.0491283)
(0.110085 -0.0451087 0 0.0337672 0 0.0911972)
(0.136478 -0.0633436 0 0.183011 0 0.122457)
(0.0985583 -0.0362055 0 0.15474 0 0.106119)
(0.07409 -0.0342395 0 0.055947 0 0.0758216)
(0.056303 -0.0241978 0 0.0653136 0 0.0501142)
(0.0399867 -0.0135985 0 0.143136 0 0.0321421)
(0.0267526 -0.00198414 0 0.051422 0 0.0223514)
(0.0272045 -0.000278157 0 1e-15 0 0.0230024)
(0.0454787 -0.00687442 0 1e-15 0 0.0339842)
(0.0735549 -0.0276082 0 0.0897406 0 0.0504627)
(0.107799 -0.0503507 0 0.236365 0 0.0774916)
(0.1377 -0.0637372 0 0.32076 0 0.102444)
(0.116333 -0.0715189 0 0.408988 0 0.0866535)
(0.0806475 -0.0560002 0 0.275944 0 0.0538335)
(0.0548645 -0.0238238 0 0.190486 0 0.0406659)
(0.0659179 -0.0191098 0 0.248718 0 0.0608888)
(0.0607946 -0.0139221 0 0.200694 0 0.0573825)
(0.0590805 -0.0130428 0 0.203884 0 0.0507542)
(0.0741903 -0.03046 0 0.348212 0 0.0661172)
(0.0970402 -0.0624109 0 0.59296 0 0.0876064)
(0.0974288 -0.0670068 0 0.622223 0 0.0854031)
(0.0766488 -0.0485432 0 0.505947 0 0.0641586)
(0.0596657 -0.0304216 0 0.195951 0 0.0484105)
(0.0550832 -0.0235858 0 0.0887316 0 0.0453704)
(0.0532439 -0.026516 0 0.169238 0 0.0474207)
(0.0500456 -0.0301455 0 0.216049 0 0.0458357)
(0.0461626 -0.0297383 0 0.225606 0 0.0420839)
(0.0422747 -0.0241278 0 0.223859 0 0.0424609)
(0.044095 -0.027638 0 0.215234 0 0.0451824)
(0.0419984 -0.0246638 0 0.195103 0 0.0439245)
(0.0415736 -0.0182358 0 0.180108 0 0.0454873)
(0.0423029 -0.00943276 0 0.152953 0 0.0495753)
(0.0418667 -0.0054483 0 0.0955035 0 0.0501523)
(0.0479077 -0.0179425 0 0.131708 0 0.0534742)
(0.0948248 -0.0558591 0 0.474979 0 0.0940497)
(0.160522 -0.081453 0 0.657235 0 0.152313)
(0.199872 -0.122012 0 0.902039 0 0.193584)
(0.156106 -0.0701729 0 0.855495 0 0.163937)
(0.0777037 -0.023403 0 0.166587 0 0.0847688)
(0.0458185 -0.00680476 0 1e-15 0 0.0365767)
(0.0624947 -0.00593317 0 0.0952999 0 0.0481409)
(0.119907 -0.0184807 0 0.58735 0 0.117388)
(0.144605 -0.0483402 0 0.734591 0 0.155884)
(0.153281 -0.0642663 0 0.781191 0 0.170595)
(0.147562 -0.0541064 0 0.756965 0 0.168377)
(0.126778 -0.0418955 0 0.607737 0 0.152553)
(0.0588189 -0.00768469 0 0.18705 0 0.0625331)
(0.0511516 -0.00423316 0 0.0125255 0 0.0361979)
(0.136411 -0.0381327 0 0.277493 0 0.102983)
(0.152062 -0.035693 0 0.418956 0 0.159388)
(0.151133 -0.0436061 0 0.427197 0 0.186906)
(0.178716 -0.0632544 0 0.709489 0 0.232599)
(0.179084 -0.0673266 0 0.776951 0 0.246514)
(0.185466 -0.0790326 0 0.739135 0 0.254519)
(0.191026 -0.0671805 0 0.760218 0 0.267379)
(0.189727 -0.0289141 0 0.683371 0 0.261191)
(0.168486 0.00676044 0 0.561056 0 0.196767)
(0.0938384 0.0200948 0 0.191013 0 0.0818387)
(0.0407246 -0.000235187 0 1e-15 0 0.0267118)
(0.0533306 -0.0223739 0 0.239841 0 0.0277873)
(0.0434715 -0.00110341 0 0.128927 0 0.0285254)
(0.0814038 -0.0390987 0 0.222067 0 0.0652786)
(0.225843 -0.117249 0 0.694462 0 0.221586)
(0.263888 -0.116798 0 1.28502 0 0.324359)
(0.240122 -0.0192172 0 1.27152 0 0.336991)
(0.0779528 0.000872491 0 0.187605 0 0.093693)
(0.0364469 0.00116152 0 0.341754 0 0.0248646)
(0.0256297 0.0004859 0 0.107575 0 0.0211702)
(0.0482135 -0.00513208 0 1e-15 0 0.0421785)
(0.0339165 -0.008674 0 0.0700725 0 0.0332213)
(0.0251026 -0.000554546 0 0.0137747 0 0.0326523)
(0.0312805 -0.00448748 0 0.0289823 0 0.0438199)
(0.0525033 -0.0217197 0 0.146783 0 0.0664387)
(0.0940715 -0.058464 0 0.373785 0 0.105648)
(0.1325 -0.0968699 0 0.53137 0 0.131204)
(0.1356 -0.0902039 0 0.640665 0 0.133711)
(0.1192 -0.0245467 0 0.532259 0 0.127686)
(0.11079 0.0338687 0 0.288837 0 0.126292)
(0.0802879 0.0375921 0 0.0331201 0 0.091873)
(0.0417925 0.0123855 0 0.0358301 0 0.0433658)
(0.0242133 -0.00243607 0 0.0432131 0 0.0199006)
(0.149783 0.0486453 0 1.7838 0 0.192824)
(0.358564 0.184909 0 0.59325 0 0.305384)
(0.145655 0.063644 0 0.23164 0 0.0960518)
(0.133748 -0.0407545 0 0.40094 0 0.0767644)
(0.189424 -0.048043 0 0.732662 0 0.150888)
(0.140041 -0.0250188 0 0.370328 0 0.152284)
(0.120722 -0.0390746 0 0.301487 0 0.142623)
(0.139005 -0.0121429 0 0.464286 0 0.155268)
(0.155429 -0.00988222 0 0.623961 0 0.147179)
(0.125553 -0.0128675 0 0.510516 0 0.109809)
(0.0869073 -0.0291184 0 0.382485 0 0.0752482)
(0.0711021 -0.0115448 0 0.071692 0 0.0710772)
(0.0810052 0.0168756 0 0.0948441 0 0.0781191)
(0.0824235 -0.0147435 0 0.281732 0 0.0667051)
(0.148493 -0.0663089 0 0.613344 0 0.138193)
(0.167491 -0.0376156 0 0.556152 0 0.165643)
(0.230139 -0.151629 0 1.04275 0 0.212514)
(0.165393 -0.0359193 0 1.164 0 0.210819)
(0.219663 0.096175 0 0.722432 0 0.239343)
(0.0599101 0.0443975 0 0.578185 0 0.0425855)
(0.0207784 0.00330068 0 0.46252 0 0.00419018)
(0.0425527 -0.000398571 0 0.439902 0 0.0293313)
(0.0675792 -0.0289745 0 0.387117 0 0.0522319)
(0.138327 -0.071636 0 0.113612 0 0.11262)
(0.157958 -0.0859503 0 0.402767 0 0.139371)
(0.118432 -0.0601307 0 0.365082 0 0.124197)
(0.0986297 -0.054897 0 0.158046 0 0.0957439)
(0.0650379 -0.0300599 0 0.103099 0 0.05774)
(0.0425151 -0.0145858 0 0.201807 0 0.0340924)
(0.029494 -0.00752473 0 0.176792 0 0.0244383)
(0.034502 -0.00551487 0 0.00502036 0 0.0298088)
(0.0486775 -0.0104296 0 1e-15 0 0.0377746)
(0.0671417 -0.0189575 0 0.0443478 0 0.0479012)
(0.102418 -0.0347902 0 0.175677 0 0.0759535)
(0.141284 -0.053493 0 0.268743 0 0.105837)
(0.118995 -0.0688133 0 0.433987 0 0.0887781)
(0.0928512 -0.0792809 0 0.47006 0 0.0596139)
(0.0620527 -0.0440029 0 0.372857 0 0.0422241)
(0.0718172 -0.0329627 0 0.434829 0 0.0648063)
(0.0672029 -0.0271895 0 0.336697 0 0.062034)
(0.0645933 -0.0176463 0 0.28455 0 0.0545174)
(0.0773169 -0.027824 0 0.374378 0 0.0684518)
(0.0957468 -0.0552072 0 0.602825 0 0.0867154)
(0.0988015 -0.0708421 0 0.6544 0 0.0852841)
(0.0821216 -0.0635889 0 0.579365 0 0.0664875)
(0.067129 -0.0437485 0 0.288026 0 0.0530043)
(0.0610487 -0.0308148 0 0.181709 0 0.0499579)
(0.0544917 -0.0276755 0 0.260415 0 0.0489322)
(0.051443 -0.0346585 0 0.311065 0 0.0469704)
(0.0484268 -0.0375896 0 0.365169 0 0.0437306)
(0.043336 -0.0296237 0 0.33809 0 0.0433771)
(0.0441303 -0.0328698 0 0.310232 0 0.0451893)
(0.0425369 -0.0336626 0 0.331577 0 0.0444479)
(0.0425589 -0.0306422 0 0.351464 0 0.0461622)
(0.0431962 -0.0221158 0 0.318536 0 0.0504109)
(0.0437382 -0.0142547 0 0.196346 0 0.0525821)
(0.0497869 -0.0208695 0 0.108168 0 0.0544047)
(0.097759 -0.0568005 0 0.571797 0 0.0973878)
(0.167193 -0.0908321 0 0.758207 0 0.157299)
(0.202562 -0.13947 0 0.990431 0 0.19189)
(0.155606 -0.0816325 0 0.938642 0 0.162241)
(0.0876944 -0.0398766 0 0.274593 0 0.0958282)
(0.0565889 -0.0115746 0 1e-15 0 0.0448816)
(0.0710796 -0.00653434 0 0.158026 0 0.0529656)
(0.125228 -0.0190879 0 0.702539 0 0.122543)
(0.147676 -0.0572113 0 0.855039 0 0.159525)
(0.155276 -0.0753171 0 0.901362 0 0.173389)
(0.148725 -0.0655969 0 0.874949 0 0.170866)
(0.130604 -0.0545892 0 0.719516 0 0.158203)
(0.0652791 -0.0170597 0 0.299575 0 0.0700255)
(0.0583121 -0.00568849 0 0.0277322 0 0.0402806)
(0.142471 -0.0379619 0 0.267336 0 0.104062)
(0.16286 -0.0464326 0 0.413229 0 0.168013)
(0.16274 -0.0631513 0 0.564176 0 0.199772)
(0.178995 -0.0774345 0 0.92687 0 0.238432)
(0.175216 -0.0784215 0 0.996006 0 0.252354)
(0.191666 -0.11327 0 1.02497 0 0.269481)
(0.198627 -0.101793 0 1.02501 0 0.28274)
(0.195102 -0.0337545 0 0.812163 0 0.274923)
(0.173259 0.0153532 0 0.549551 0 0.204408)
(0.0964788 0.0196565 0 0.21477 0 0.0832109)
(0.0503009 -0.00278179 0 1e-15 0 0.0311543)
(0.0552954 -0.0262093 0 0.332964 0 0.0251972)
(0.0464385 -0.00669092 0 0.197048 0 0.0287581)
(0.0871379 -0.0427567 0 0.238333 0 0.0691752)
(0.228366 -0.116136 0 0.813376 0 0.226025)
(0.263673 -0.11923 0 1.39662 0 0.327183)
(0.247254 -0.0412852 0 1.46228 0 0.350435)
(0.083305 0.00276782 0 0.122401 0 0.104308)
(0.0275787 -0.000192757 0 0.300697 0 0.0160982)
(0.0266274 -0.00115447 0 0.0513893 0 0.0230237)
(0.0552177 -0.0123619 0 0.0310356 0 0.0497987)
(0.0356948 -0.0101702 0 0.169683 0 0.0345417)
(0.0271716 -0.0032843 0 0.0582179 0 0.0355075)
(0.0306913 -0.00418818 0 0.0610616 0 0.0452732)
(0.0497591 -0.0222059 0 0.20061 0 0.0661022)
(0.0945273 -0.0677716 0 0.525464 0 0.10832)
(0.144846 -0.125411 0 0.73234 0 0.140442)
(0.144638 -0.115752 0 0.842789 0 0.139751)
(0.12691 -0.038494 0 0.719065 0 0.134744)
(0.121468 0.0302344 0 0.449974 0 0.138523)
(0.0925262 0.0412681 0 0.126855 0 0.108235)
(0.0470249 0.0177937 0 0.016602 0 0.0489844)
(0.0254717 -0.000720754 0 0.0275576 0 0.020802)
(0.093958 -0.00292394 0 1.4154 0 0.131795)
(0.336717 0.159542 0 0.435828 0 0.291901)
(0.114838 0.0350706 0 0.136374 0 0.075878)
(0.160512 -0.0363865 0 0.270817 0 0.098908)
(0.193162 -0.0398227 0 0.56324 0 0.150914)
(0.156263 -0.059529 0 0.304642 0 0.154267)
(0.127075 -0.0258556 0 0.457259 0 0.147912)
(0.1605 0.0227003 0 0.336668 0 0.171466)
(0.161773 0.00525532 0 0.438817 0 0.152402)
(0.140648 -0.0275241 0 0.607972 0 0.122382)
(0.10244 -0.0466813 0 0.531689 0 0.0877895)
(0.0956636 -0.0416015 0 0.177942 0 0.0888453)
(0.106018 0.0126766 0 0.360709 0 0.0989299)
(0.103058 -0.0109938 0 0.303466 0 0.0879954)