/*--------------------------------*- C++ -*----------------------------------*\
| =========                 |                                                 |
| \\      /  F ield         | OpenFOAM: The Open Source CFD Toolbox           |
|  \\    /   O peration     | Version:  v1912                                 |
|   \\  /    A nd           | Website:  www.openfoam.com                      |
|    \\/     M anipulation  |                                                 |
\*---------------------------------------------------------------------------*/
FoamFile
{
    version     2.0;
    format      ascii;
    class       volScalarField;
    location    "100";
    object      omega;
}
// * * * * * * * * * * * * * * * * * * * * * * * * * * * * * * * * * * * * * //

dimensions      [0 0 -1 0 0 0 0];


internalField   nonuniform List<scalar> 
14268
(
58.1873
54.131
53.1152
54.1506
56.4041
59.1712
60.9267
58.3295
50.7409
45.1425
44.0688
44.2691
44.5677
44.592
44.5917
44.5916
44.5916
44.5916
44.5916
44.5916
44.5916
44.5916
44.5916
44.5916
44.5916
44.5916
44.5916
44.5916
44.5916
44.5916
44.5916
44.5916
44.5916
44.5916
44.5916
44.5916
44.5916
44.5916
44.5916
44.5916
44.5916
44.5916
44.5916
44.5916
44.5916
44.5916
44.5916
44.5916
44.5916
44.5916
44.5916
44.5916
44.5916
44.5916
44.5916
44.5916
44.5916
44.5916
44.5916
44.5916
44.5916
44.5916
44.5916
44.5916
44.5916
44.5916
44.5916
44.5916
44.5916
44.5916
44.5916
44.5916
44.5916
44.5916
44.5916
44.5916
44.5916
44.5916
44.5916
44.5916
44.5916
44.5916
44.5916
44.5916
44.5916
44.5916
44.5916
44.5916
44.5916
44.5916
44.5916
44.5916
44.5916
44.5916
44.5916
44.5916
44.5916
44.5916
44.5916
44.5916
44.5916
44.5916
44.5916
44.5916
44.5916
44.5916
44.5916
44.5916
44.5916
44.5916
44.5916
44.5916
44.5916
44.5916
44.5916
44.5916
44.5916
44.5916
44.5916
44.5916
44.5916
44.5916
44.5916
44.5916
44.5916
44.5916
44.5916
44.5916
44.5916
44.5916
44.5916
44.5916
44.5916
44.5916
44.5916
44.5916
44.5916
44.5916
44.5916
44.5916
44.5916
44.5916
44.5916
44.5916
44.5916
44.5916
44.5916
44.5916
44.5916
44.5916
44.5916
44.5916
44.5916
44.5916
44.5916
44.5916
44.5916
44.5916
44.5916
44.5916
44.5916
44.5916
44.5916
44.5916
18.8339
17.5235
17.6022
17.811
18.266
19.6298
20.3245
19.0481
15.483
13.1978
13.503
12.8658
11.4722
10.5658
10.0864
9.77199
9.54474
9.40024
9.30946
9.24338
9.19066
9.13612
9.07465
9.01484
8.95726
8.89633
8.84475
8.80631
8.77223
8.73745
8.70167
8.66593
8.63097
8.59686
8.56363
8.53143
8.50048
8.47095
8.44281
8.41588
8.38997
8.36497
8.34082
8.31752
8.29505
8.27346
8.25274
8.23288
8.21388
8.1957
8.17831
8.16171
8.14586
8.13074
8.11634
8.10263
8.08958
8.07717
8.06538
8.05418
8.04355
8.03349
8.02396
8.01494
8.00642
7.99837
7.99078
7.98362
7.97686
7.97051
7.96452
7.95889
7.9536
7.94863
7.94396
7.93958
7.93547
7.93162
7.92802
7.92464
7.92148
7.91853
7.91577
7.91319
7.91078
7.90853
7.90643
7.90448
7.90266
7.90096
7.89938
7.89791
7.89654
7.89527
7.89409
7.893
7.89198
7.89104
7.89016
7.88935
7.8886
7.88791
7.88726
7.88667
7.88612
7.88561
7.88514
7.88471
7.88431
7.88394
7.8836
7.88329
7.88301
7.88274
7.8825
7.88228
7.88207
7.88188
7.88171
7.88155
7.88141
7.88128
7.88116
7.88105
7.88095
7.88086
7.88077
7.8807
7.88063
7.88057
7.88051
7.88046
7.88041
7.88037
7.88033
7.88029
7.88026
7.88023
7.88021
7.88017
7.88015
7.88012
7.8801
7.88007
7.88006
7.88004
7.88002
7.88001
7.88
7.88
7.87999
7.87998
7.87998
7.87998
7.87997
7.87997
7.87996
7.87996
7.87995
7.87996
7.87995
7.87995
7.8799
7.87534
11.5275
10.6751
10.7511
10.6937
10.9422
12.0099
12.8747
12.1419
9.73186
7.34109
7.07825
6.59765
5.41792
4.57813
4.20279
3.98155
3.82639
3.72287
3.65362
3.60477
3.56724
3.53002
3.49021
3.45069
3.41207
3.37197
3.33727
3.31021
3.28623
3.26229
3.23811
3.2141
3.19062
3.16778
3.14564
3.1243
3.10389
3.08448
3.06602
3.0484
3.03152
3.01531
2.99972
2.98475
2.97041
2.95667
2.94355
2.93102
2.91906
2.90766
2.8968
2.88646
2.87663
2.86728
2.85839
2.84996
2.84196
2.83437
2.82718
2.82037
2.81393
2.80784
2.80209
2.79666
2.79154
2.78671
2.78216
2.77788
2.77385
2.77006
2.7665
2.76315
2.76001
2.75707
2.7543
2.75171
2.74928
2.74701
2.74488
2.74289
2.74103
2.73929
2.73767
2.73615
2.73474
2.73342
2.73218
2.73104
2.72997
2.72897
2.72805
2.72719
2.72639
2.72564
2.72495
2.72431
2.72372
2.72317
2.72265
2.72218
2.72174
2.72134
2.72096
2.72061
2.72029
2.71999
2.71972
2.71947
2.71923
2.71902
2.71882
2.71864
2.71847
2.71832
2.71818
2.71805
2.71793
2.71782
2.71772
2.71763
2.71754
2.71746
2.71739
2.71733
2.71727
2.71722
2.71717
2.71713
2.71709
2.71705
2.71702
2.71699
2.71696
2.71693
2.71691
2.71689
2.71687
2.71685
2.71684
2.71682
2.71681
2.71679
2.71678
2.71676
2.71675
2.71674
2.71673
2.71672
2.71672
2.71671
2.71671
2.71671
2.7167
2.7167
2.7167
2.7167
2.71669
2.7167
2.71669
2.71669
2.71669
2.71669
2.71663
2.71387
8.59595
7.98299
7.78085
7.677
7.85468
8.70966
9.79831
9.52437
7.74739
5.5747
4.72069
4.13135
3.33781
2.765
2.48115
2.30923
2.18762
2.10419
2.04769
2.00824
1.97712
1.94649
1.91457
1.88274
1.85136
1.81914
1.7909
1.76802
1.74762
1.72759
1.70761
1.68793
1.66876
1.65018
1.63226
1.61507
1.59869
1.58316
1.56842
1.55439
1.541
1.5282
1.51595
1.50424
1.49306
1.48241
1.47226
1.4626
1.45342
1.4447
1.43642
1.42856
1.4211
1.41403
1.40734
1.401
1.395
1.38933
1.38397
1.3789
1.37412
1.36962
1.36537
1.36136
1.35759
1.35405
1.35071
1.34757
1.34462
1.34185
1.33925
1.33682
1.33453
1.33238
1.33038
1.32849
1.32673
1.32509
1.32355
1.3221
1.32076
1.3195
1.31833
1.31723
1.31621
1.31526
1.31437
1.31354
1.31277
1.31206
1.31139
1.31077
1.3102
1.30966
1.30916
1.3087
1.30828
1.30788
1.30751
1.30717
1.30685
1.30656
1.30629
1.30604
1.30581
1.3056
1.3054
1.30522
1.30505
1.3049
1.30476
1.30463
1.30451
1.3044
1.3043
1.3042
1.30412
1.30404
1.30397
1.3039
1.30384
1.30379
1.30373
1.30369
1.30365
1.30361
1.30357
1.30354
1.30351
1.30349
1.30346
1.30344
1.30342
1.30341
1.30339
1.30337
1.30336
1.30335
1.30334
1.30332
1.30331
1.3033
1.30329
1.30328
1.30327
1.30326
1.30326
1.30325
1.30325
1.30324
1.30324
1.30324
1.30324
1.30324
1.30323
1.30323
1.30323
1.30323
1.30323
1.30323
1.30323
1.30323
1.30316
1.30133
7.02043
6.56414
6.24954
6.05553
6.09776
6.71486
7.72243
7.76564
6.54629
4.76449
3.71545
2.96823
2.32518
1.93382
1.72283
1.58902
1.49267
1.42558
1.3798
1.34687
1.31943
1.29233
1.26444
1.23679
1.20943
1.18164
1.15712
1.1367
1.11837
1.10059
1.08306
1.06594
1.04935
1.03337
1.01804
1.00342
0.98955
0.976437
0.964035
0.952277
0.941102
0.930466
0.920343
0.910713
0.901562
0.892875
0.884635
0.876826
0.869428
0.862424
0.855797
0.849528
0.843602
0.838002
0.832714
0.827723
0.823013
0.81857
0.814382
0.810436
0.80672
0.803223
0.799933
0.796839
0.793931
0.791198
0.788633
0.786224
0.783964
0.781844
0.779857
0.777995
0.77625
0.774616
0.773087
0.771656
0.770318
0.769067
0.767897
0.766805
0.765785
0.764833
0.763945
0.763116
0.762344
0.761624
0.760953
0.760329
0.759748
0.759207
0.758705
0.758237
0.757803
0.7574
0.757025
0.756678
0.756356
0.756057
0.75578
0.755524
0.755286
0.755067
0.754864
0.754676
0.754503
0.754342
0.754195
0.754058
0.753932
0.753817
0.75371
0.753612
0.753521
0.753438
0.753362
0.753292
0.753227
0.753168
0.753114
0.753065
0.75302
0.752978
0.75294
0.752906
0.752875
0.752846
0.75282
0.752796
0.752775
0.752755
0.752738
0.752722
0.752708
0.752694
0.752684
0.75267
0.752663
0.752649
0.752644
0.75263
0.752626
0.752611
0.752608
0.752596
0.752592
0.752583
0.752581
0.752575
0.752573
0.752569
0.752568
0.752566
0.752565
0.752564
0.752563
0.752563
0.752561
0.752562
0.75256
0.752561
0.752557
0.752558
0.752494
0.75117
6.09585
5.68462
5.3811
5.14778
5.11289
5.40504
5.91799
6.12171
5.49975
4.22513
3.17359
2.36716
1.78725
1.47321
1.3081
1.20219
1.12491
1.07031
1.0323
1.00349
0.978302
0.953322
0.927797
0.902808
0.878045
0.853231
0.831258
0.812621
0.795826
0.779688
0.763954
0.74871
0.734047
0.720018
0.706652
0.693975
0.68201
0.670746
0.660139
0.650129
0.640664
0.631702
0.623216
0.615185
0.60759
0.600413
0.593636
0.587239
0.581204
0.575513
0.570147
0.565091
0.560327
0.555841
0.551617
0.547642
0.543902
0.540385
0.537077
0.533969
0.531048
0.528305
0.52573
0.523313
0.521046
0.518919
0.516925
0.515056
0.513305
0.511665
0.51013
0.508692
0.507347
0.506089
0.504912
0.503813
0.502785
0.501825
0.500928
0.500091
0.49931
0.498581
0.497902
0.497269
0.496679
0.496129
0.495617
0.495141
0.494697
0.494285
0.493902
0.493546
0.493215
0.492908
0.492623
0.492359
0.492113
0.491886
0.491676
0.491481
0.4913
0.491133
0.490979
0.490836
0.490704
0.490583
0.49047
0.490367
0.490271
0.490183
0.490102
0.490027
0.489959
0.489896
0.489838
0.489785
0.489736
0.489691
0.48965
0.489612
0.489578
0.489547
0.489518
0.489492
0.489468
0.489446
0.489427
0.489409
0.489393
0.489378
0.489365
0.489353
0.489343
0.489332
0.489324
0.489314
0.489308
0.489298
0.489294
0.489282
0.489279
0.489268
0.489265
0.489255
0.489253
0.489245
0.489244
0.489239
0.489238
0.489235
0.489234
0.489232
0.489232
0.489231
0.48923
0.48923
0.489229
0.489229
0.489228
0.489229
0.489226
0.489226
0.489166
0.488166
5.51486
5.12282
4.84361
4.62615
4.56017
4.68598
4.83646
4.74792
4.4382
3.70498
2.82073
2.00785
1.4722
1.1939
1.05372
0.966661
0.902677
0.856571
0.823436
0.797003
0.773246
0.749673
0.72573
0.702667
0.679818
0.657278
0.63726
0.620114
0.60465
0.589917
0.575696
0.562039
0.549003
0.536623
0.524908
0.513869
0.503509
0.493807
0.484718
0.476186
0.468162
0.460608
0.453494
0.446797
0.440495
0.434569
0.428998
0.423764
0.418847
0.414228
0.409891
0.405818
0.401995
0.398407
0.39504
0.391881
0.388918
0.386138
0.383531
0.381087
0.378797
0.37665
0.374639
0.372756
0.370992
0.36934
0.367795
0.366348
0.364995
0.363729
0.362545
0.361438
0.360404
0.359437
0.358534
0.357691
0.356904
0.356169
0.355483
0.354844
0.354247
0.353691
0.353173
0.35269
0.35224
0.351822
0.351432
0.351069
0.350732
0.350419
0.350128
0.349857
0.349606
0.349373
0.349156
0.348955
0.348769
0.348597
0.348437
0.348289
0.348153
0.348026
0.347909
0.347801
0.347701
0.347609
0.347524
0.347445
0.347373
0.347306
0.347245
0.347188
0.347136
0.347088
0.347044
0.347004
0.346967
0.346933
0.346902
0.346874
0.346848
0.346824
0.346802
0.346782
0.346765
0.346748
0.346733
0.34672
0.346708
0.346696
0.346687
0.346677
0.34667
0.346662
0.346656
0.346648
0.346644
0.346636
0.346633
0.346624
0.346622
0.346612
0.346611
0.346602
0.346601
0.346595
0.346593
0.346589
0.346589
0.346586
0.346586
0.346585
0.346585
0.346584
0.346584
0.346583
0.346583
0.346583
0.346582
0.346582
0.34658
0.34658
0.346526
0.34576
5.10998
4.74469
4.48514
4.2863
4.20648
4.2626
4.26016
3.98605
3.65713
3.22871
2.55276
1.77291
1.26223
1.01037
0.887039
0.811584
0.75613
0.715227
0.684773
0.659643
0.636885
0.614341
0.591659
0.570117
0.548892
0.52822
0.509868
0.494085
0.479876
0.466454
0.453623
0.441409
0.429847
0.41895
0.408714
0.399135
0.390202
0.381887
0.374141
0.366914
0.360157
0.353832
0.34791
0.342365
0.337175
0.33232
0.327777
0.323529
0.319555
0.315838
0.312362
0.309111
0.30607
0.303226
0.300566
0.298078
0.295751
0.293575
0.29154
0.289637
0.287857
0.286194
0.284638
0.283185
0.281826
0.280556
0.279369
0.278261
0.277225
0.276258
0.275355
0.274511
0.273724
0.272989
0.272303
0.271663
0.271066
0.270509
0.26999
0.269507
0.269056
0.268636
0.268244
0.26788
0.267541
0.267226
0.266932
0.266659
0.266406
0.26617
0.265951
0.265747
0.265558
0.265383
0.265221
0.26507
0.26493
0.264801
0.264681
0.26457
0.264467
0.264373
0.264285
0.264204
0.264129
0.26406
0.263996
0.263937
0.263883
0.263833
0.263786
0.263744
0.263705
0.263669
0.263636
0.263606
0.263579
0.263553
0.26353
0.263509
0.263489
0.263471
0.263455
0.26344
0.263427
0.263415
0.263404
0.263393
0.263385
0.263376
0.263369
0.263362
0.263356
0.26335
0.263346
0.26334
0.263337
0.263331
0.263329
0.263321
0.26332
0.263313
0.263311
0.263305
0.263304
0.263299
0.263298
0.263295
0.263294
0.263293
0.263293
0.263291
0.263291
0.263291
0.263291
0.26329
0.26329
0.26329
0.26329
0.26329
0.263288
0.263288
0.263241
0.262659
4.80641
4.48164
4.23921
4.04898
3.96015
3.97059
3.89237
3.54709
3.17732
2.85572
2.32078
1.60458
1.11124
0.879866
0.769693
0.702569
0.652557
0.614769
0.585775
0.561431
0.539471
0.517778
0.496293
0.476056
0.456309
0.437297
0.420472
0.406002
0.393031
0.380884
0.369382
0.358533
0.34835
0.33883
0.329958
0.321715
0.314081
0.307022
0.300488
0.29443
0.288802
0.283566
0.278693
0.274156
0.269933
0.266003
0.262345
0.25894
0.25577
0.252818
0.250069
0.247508
0.245122
0.242899
0.240827
0.238895
0.237094
0.235415
0.233849
0.232389
0.231026
0.229756
0.228571
0.227466
0.226435
0.225474
0.224577
0.22374
0.22296
0.222233
0.221554
0.220921
0.220331
0.219781
0.219269
0.218791
0.218346
0.217931
0.217544
0.217184
0.216849
0.216537
0.216247
0.215977
0.215725
0.215491
0.215274
0.215072
0.214884
0.21471
0.214548
0.214397
0.214258
0.214128
0.214008
0.213897
0.213794
0.213698
0.21361
0.213528
0.213452
0.213382
0.213318
0.213258
0.213202
0.213151
0.213104
0.213061
0.213021
0.212984
0.21295
0.212919
0.21289
0.212864
0.21284
0.212817
0.212797
0.212778
0.212761
0.212745
0.212731
0.212718
0.212706
0.212695
0.212685
0.212676
0.212668
0.212661
0.212654
0.212648
0.212643
0.212637
0.212634
0.212629
0.212626
0.212621
0.21262
0.212614
0.212613
0.212608
0.212607
0.212601
0.2126
0.212595
0.212594
0.21259
0.21259
0.212587
0.212587
0.212586
0.212586
0.212585
0.212585
0.212585
0.212585
0.212584
0.212584
0.212584
0.212584
0.212584
0.212583
0.212583
0.212545
0.212113
4.54691
4.27484
4.05449
3.87103
3.77188
3.75079
3.63048
3.25708
2.84655
2.58442
2.13242
1.47318
0.99726
0.782375
0.682421
0.62143
0.575037
0.539233
0.511154
0.487437
0.466167
0.44536
0.425029
0.406025
0.387692
0.370242
0.354882
0.341712
0.329976
0.319086
0.308875
0.299332
0.290454
0.282225
0.274618
0.267606
0.26116
0.255242
0.249802
0.244792
0.240168
0.235894
0.231941
0.228284
0.224898
0.221765
0.218865
0.216179
0.21369
0.211384
0.209245
0.207262
0.205421
0.203713
0.202127
0.200653
0.199284
0.198011
0.196828
0.195728
0.194705
0.193753
0.192867
0.192043
0.191275
0.190561
0.189897
0.189278
0.188702
0.188165
0.187666
0.187201
0.186768
0.186365
0.185989
0.18564
0.185314
0.185012
0.18473
0.184467
0.184223
0.183997
0.183785
0.183589
0.183407
0.183237
0.183079
0.182933
0.182797
0.182671
0.182553
0.182445
0.182344
0.18225
0.182163
0.182083
0.182008
0.181939
0.181876
0.181816
0.181762
0.181711
0.181665
0.181621
0.181582
0.181545
0.181511
0.181479
0.181451
0.181424
0.1814
0.181377
0.181356
0.181337
0.18132
0.181304
0.181289
0.181276
0.181263
0.181252
0.181242
0.181232
0.181224
0.181216
0.181209
0.181202
0.181196
0.181191
0.181186
0.181182
0.181178
0.181174
0.181172
0.181168
0.181166
0.181163
0.181161
0.181158
0.181157
0.181153
0.181152
0.181148
0.181147
0.181143
0.181143
0.18114
0.18114
0.181138
0.181138
0.181137
0.181137
0.181136
0.181136
0.181136
0.181136
0.181136
0.181136
0.181135
0.181135
0.181135
0.181134
0.181134
0.181105
0.1808
4.31554
4.10374
3.90886
3.72971
3.6213
3.57479
3.42372
3.04113
2.61124
2.38476
1.9814
1.3654
0.907087
0.706737
0.614892
0.558339
0.514455
0.480014
0.452619
0.429512
0.408949
0.38908
0.369904
0.352136
0.335199
0.319265
0.305341
0.293465
0.282961
0.273306
0.264343
0.256046
0.248399
0.241373
0.234934
0.229048
0.223679
0.218787
0.214323
0.210241
0.2065
0.203066
0.199911
0.19701
0.194341
0.191885
0.189625
0.187542
0.185623
0.183854
0.182221
0.180713
0.17932
0.178032
0.176841
0.175739
0.174719
0.173774
0.172899
0.172087
0.171334
0.170636
0.169988
0.169386
0.168828
0.168309
0.167827
0.16738
0.166964
0.166577
0.166218
0.165884
0.165573
0.165285
0.165016
0.164767
0.164535
0.164319
0.164118
0.163932
0.163758
0.163597
0.163448
0.163308
0.163179
0.163059
0.162948
0.162844
0.162748
0.162659
0.162576
0.162499
0.162428
0.162362
0.162301
0.162244
0.162192
0.162143
0.162098
0.162057
0.162018
0.161983
0.16195
0.16192
0.161892
0.161866
0.161842
0.16182
0.161799
0.161781
0.161764
0.161748
0.161733
0.16172
0.161707
0.161696
0.161686
0.161676
0.161668
0.16166
0.161653
0.161646
0.16164
0.161634
0.161629
0.161625
0.161621
0.161617
0.161614
0.16161
0.161608
0.161605
0.161603
0.161601
0.1616
0.161597
0.161596
0.161594
0.161593
0.16159
0.16159
0.161586
0.161586
0.161583
0.161583
0.161581
0.161581
0.161579
0.161579
0.161578
0.161579
0.161578
0.161578
0.161578
0.161578
0.161578
0.161578
0.161578
0.161578
0.161578
0.161577
0.161577
0.161555
0.161361
4.09387
3.94517
3.7828
3.60845
3.49084
3.42373
3.25439
2.87699
2.4352
2.22841
1.86712
1.28262
0.838021
0.647717
0.56153
0.508011
0.465764
0.432194
0.405342
0.382887
0.363101
0.344233
0.326246
0.309743
0.294205
0.279766
0.267253
0.256657
0.247363
0.238906
0.231134
0.224011
0.217508
0.211588
0.206212
0.201338
0.196931
0.192946
0.189338
0.186064
0.183085
0.18037
0.177892
0.175629
0.173561
0.17167
0.169939
0.168354
0.166901
0.165569
0.164345
0.163221
0.162187
0.161236
0.16036
0.159553
0.158809
0.158122
0.157488
0.156902
0.15636
0.155859
0.155396
0.154967
0.15457
0.154202
0.153861
0.153545
0.153252
0.152981
0.152728
0.152494
0.152277
0.152076
0.151889
0.151715
0.151553
0.151404
0.151265
0.151135
0.151015
0.150904
0.150801
0.150705
0.150616
0.150533
0.150456
0.150385
0.150319
0.150257
0.150201
0.150148
0.150099
0.150054
0.150012
0.149973
0.149937
0.149904
0.149873
0.149845
0.149818
0.149794
0.149771
0.149751
0.149732
0.149714
0.149697
0.149682
0.149669
0.149656
0.149644
0.149633
0.149623
0.149614
0.149606
0.149598
0.149591
0.149584
0.149578
0.149573
0.149568
0.149564
0.149559
0.149556
0.149552
0.149549
0.149546
0.149544
0.149542
0.149539
0.149538
0.149536
0.149535
0.149533
0.149532
0.14953
0.14953
0.149528
0.149528
0.149525
0.149525
0.149523
0.149523
0.149521
0.14952
0.149519
0.149519
0.149518
0.149518
0.149517
0.149517
0.149517
0.149517
0.149517
0.149517
0.149517
0.149517
0.149517
0.149517
0.149517
0.149516
0.149516
0.1495
0.149412
3.88671
3.78952
3.65876
3.49164
3.36448
3.27915
3.10419
2.74295
2.30549
2.09675
1.78073
1.22047
0.785705
0.600897
0.518783
0.467123
0.425768
0.392707
0.366365
0.34465
0.325733
0.30793
0.291171
0.275959
0.261818
0.248839
0.2377
0.228346
0.220218
0.212898
0.206242
0.200203
0.194743
0.189821
0.185392
0.181413
0.177845
0.174646
0.171774
0.169188
0.166852
0.16474
0.162825
0.161089
0.159513
0.158081
0.156778
0.155593
0.154513
0.153527
0.152628
0.151805
0.151053
0.150364
0.149733
0.149153
0.148621
0.148132
0.147683
0.147269
0.146887
0.146536
0.146212
0.145913
0.145637
0.145382
0.145147
0.144929
0.144727
0.144541
0.144368
0.144208
0.14406
0.143923
0.143796
0.143678
0.143569
0.143468
0.143374
0.143286
0.143206
0.143131
0.143061
0.142997
0.142937
0.142881
0.14283
0.142782
0.142738
0.142697
0.142659
0.142624
0.142591
0.142561
0.142533
0.142507
0.142484
0.142461
0.142441
0.142422
0.142404
0.142388
0.142373
0.142359
0.142347
0.142335
0.142324
0.142314
0.142305
0.142296
0.142289
0.142281
0.142275
0.142269
0.142263
0.142258
0.142253
0.142249
0.142245
0.142241
0.142238
0.142235
0.142232
0.14223
0.142228
0.142225
0.142224
0.142222
0.14222
0.142219
0.142218
0.142217
0.142216
0.142215
0.142214
0.142213
0.142213
0.142211
0.142211
0.14221
0.14221
0.142208
0.142208
0.142207
0.142206
0.142205
0.142205
0.142205
0.142205
0.142204
0.142204
0.142204
0.142204
0.142204
0.142204
0.142204
0.142204
0.142204
0.142204
0.142204
0.142204
0.142204
0.142192
0.142226
3.70426
3.63138
3.53043
3.37301
3.23877
3.14084
2.97365
2.6372
2.203
1.98022
1.70087
1.17301
0.744724
0.5669
0.485777
0.433509
0.392157
0.359368
0.333618
0.31275
0.294783
0.278101
0.262605
0.248702
0.23595
0.224402
0.214596
0.206438
0.199422
0.193173
0.187551
0.182504
0.177988
0.173956
0.170362
0.167163
0.164319
0.161791
0.15954
0.157528
0.155726
0.154107
0.152651
0.151339
0.150156
0.149089
0.148124
0.147251
0.14646
0.145743
0.145091
0.144499
0.14396
0.143469
0.14302
0.142611
0.142237
0.141894
0.141581
0.141293
0.141029
0.140787
0.140564
0.14036
0.140171
0.139998
0.139838
0.13969
0.139554
0.139428
0.139312
0.139205
0.139106
0.139015
0.13893
0.138851
0.138779
0.138712
0.138649
0.138592
0.138539
0.138489
0.138443
0.138401
0.138362
0.138325
0.138292
0.13826
0.138231
0.138205
0.13818
0.138157
0.138135
0.138116
0.138098
0.138081
0.138065
0.138051
0.138037
0.138025
0.138014
0.138003
0.137993
0.137984
0.137976
0.137968
0.137961
0.137955
0.137949
0.137943
0.137938
0.137934
0.137929
0.137925
0.137922
0.137918
0.137915
0.137912
0.13791
0.137908
0.137905
0.137903
0.137902
0.1379
0.137899
0.137897
0.137896
0.137895
0.137894
0.137893
0.137892
0.137891
0.137891
0.13789
0.13789
0.137889
0.137889
0.137888
0.137888
0.137887
0.137887
0.137886
0.137886
0.137885
0.137885
0.137884
0.137884
0.137884
0.137884
0.137883
0.137883
0.137883
0.137883
0.137883
0.137883
0.137883
0.137883
0.137883
0.137883
0.137883
0.137883
0.137883
0.137874
0.138082
3.46668
3.40977
3.3368
3.20123
3.06848
2.96219
2.80659
2.50227
2.0843
1.82928
1.57377
1.11985
0.70846
0.526723
0.441174
0.387958
0.347583
0.316319
0.292152
0.272849
0.2565
0.241653
0.228158
0.216287
0.205637
0.196195
0.188315
0.181865
0.176408
0.171629
0.167397
0.163657
0.16036
0.157459
0.154908
0.152667
0.1507
0.148973
0.147452
0.146109
0.144918
0.143861
0.142919
0.14208
0.14133
0.14066
0.140059
0.139521
0.139038
0.138604
0.138213
0.13786
0.137542
0.137254
0.136994
0.136758
0.136543
0.136349
0.136172
0.136011
0.135864
0.13573
0.135607
0.135495
0.135393
0.135299
0.135213
0.135135
0.135062
0.134996
0.134935
0.134879
0.134827
0.134779
0.134736
0.134695
0.134658
0.134624
0.134592
0.134562
0.134535
0.13451
0.134487
0.134466
0.134446
0.134428
0.134411
0.134396
0.134381
0.134368
0.134355
0.134344
0.134334
0.134324
0.134315
0.134306
0.134299
0.134292
0.134285
0.134279
0.134274
0.134268
0.134264
0.134259
0.134255
0.134251
0.134248
0.134245
0.134242
0.134239
0.134236
0.134234
0.134232
0.13423
0.134228
0.134227
0.134225
0.134224
0.134223
0.134221
0.13422
0.134219
0.134218
0.134218
0.134217
0.134216
0.134216
0.134215
0.134215
0.134214
0.134214
0.134213
0.134213
0.134213
0.134213
0.134212
0.134212
0.134212
0.134212
0.134211
0.134211
0.134211
0.134211
0.13421
0.13421
0.13421
0.13421
0.13421
0.13421
0.134209
0.13421
0.134209
0.134209
0.134209
0.134209
0.134209
0.134209
0.134209
0.134209
0.134209
0.134209
0.134209
0.134204
0.134826
3.19129
3.16397
3.11246
3.01923
2.90925
2.80388
2.65904
2.38426
1.97761
1.67767
1.40195
1.00501
0.637193
0.465295
0.385536
0.337066
0.300916
0.273262
0.251962
0.235128
0.221171
0.208847
0.197948
0.188588
0.180407
0.173329
0.167539
0.162886
0.159022
0.155697
0.152802
0.150284
0.148097
0.1462
0.144555
0.143129
0.141893
0.140821
0.139888
0.139072
0.13836
0.137731
0.137178
0.136691
0.13626
0.135879
0.135541
0.135242
0.134976
0.134739
0.134528
0.13434
0.134172
0.134022
0.133887
0.133766
0.133658
0.133561
0.133473
0.133394
0.133323
0.133259
0.133201
0.133148
0.133101
0.133058
0.133019
0.132983
0.132951
0.132921
0.132895
0.13287
0.132848
0.132828
0.132809
0.132792
0.132777
0.132763
0.132749
0.132738
0.132727
0.132716
0.132707
0.132699
0.132691
0.132684
0.132677
0.132671
0.132665
0.13266
0.132655
0.132651
0.132647
0.132643
0.13264
0.132637
0.132634
0.132631
0.132629
0.132626
0.132624
0.132622
0.13262
0.132619
0.132617
0.132616
0.132615
0.132613
0.132612
0.132611
0.13261
0.132609
0.132609
0.132608
0.132607
0.132607
0.132606
0.132606
0.132605
0.132605
0.132604
0.132604
0.132604
0.132603
0.132603
0.132603
0.132603
0.132602
0.132602
0.132602
0.132602
0.132602
0.132602
0.132601
0.132601
0.132601
0.132601
0.132601
0.132601
0.132601
0.132601
0.132601
0.132601
0.1326
0.1326
0.1326
0.1326
0.1326
0.1326
0.1326
0.1326
0.1326
0.1326
0.1326
0.1326
0.1326
0.1326
0.1326
0.1326
0.1326
0.1326
0.1326
0.132598
0.1345
2.96818
2.96293
2.94568
2.88983
2.79593
2.68935
2.54539
2.29156
1.90232
1.56464
1.24797
0.860012
0.550506
0.40739
0.339337
0.29679
0.265184
0.24123
0.222858
0.208534
0.196922
0.186942
0.178329
0.171089
0.164904
0.159662
0.155444
0.152104
0.149371
0.14705
0.145053
0.143335
0.141858
0.140589
0.139498
0.138559
0.137753
0.137057
0.136453
0.13594
0.135475
0.135086
0.134742
0.134436
0.13417
0.133936
0.13373
0.133549
0.133389
0.133248
0.133124
0.133014
0.132917
0.13283
0.132754
0.132686
0.132626
0.132572
0.132525
0.132483
0.132445
0.132411
0.132381
0.132354
0.13233
0.132309
0.13229
0.132273
0.132257
0.132243
0.132231
0.13222
0.13221
0.132201
0.132193
0.132185
0.132179
0.132173
0.132167
0.132162
0.132158
0.132154
0.13215
0.132147
0.132144
0.132141
0.132139
0.132136
0.132134
0.132132
0.132131
0.132129
0.132128
0.132126
0.132125
0.132124
0.132123
0.132122
0.132121
0.13212
0.13212
0.132119
0.132118
0.132118
0.132117
0.132117
0.132116
0.132116
0.132115
0.132115
0.132115
0.132114
0.132114
0.132114
0.132114
0.132113
0.132113
0.132113
0.132113
0.132113
0.132113
0.132113
0.132112
0.132112
0.132112
0.132112
0.132112
0.132112
0.132112
0.132112
0.132112
0.132112
0.132112
0.132112
0.132112
0.132112
0.132112
0.132112
0.132112
0.132111
0.132112
0.132111
0.132111
0.132111
0.132111
0.132111
0.132111
0.132111
0.132111
0.132111
0.132111
0.132111
0.132111
0.132111
0.132111
0.132111
0.132111
0.132111
0.132111
0.132111
0.132111
0.132111
0.132113
0.135923
2.80969
2.80809
2.81851
2.78994
2.71081
2.60529
2.46374
2.22608
1.84989
1.47749
1.12281
0.738556
0.483299
0.363174
0.303314
0.265515
0.237988
0.217487
0.201911
0.189963
0.18048
0.172515
0.165782
0.160221
0.155553
0.151655
0.148552
0.146121
0.144146
0.142479
0.141051
0.139827
0.138778
0.137878
0.137105
0.136439
0.13587
0.135378
0.134951
0.13459
0.134262
0.133987
0.133746
0.133531
0.133345
0.133181
0.133037
0.132911
0.1328
0.132702
0.132616
0.13254
0.132474
0.132415
0.132364
0.132318
0.132278
0.132242
0.132211
0.132184
0.132159
0.132138
0.132119
0.132102
0.132088
0.132075
0.132063
0.132053
0.132044
0.132036
0.132029
0.132023
0.132018
0.132013
0.132009
0.132005
0.132002
0.131999
0.131996
0.131994
0.131992
0.13199
0.131988
0.131987
0.131985
0.131984
0.131983
0.131982
0.131982
0.131981
0.13198
0.13198
0.131979
0.131979
0.131978
0.131978
0.131977
0.131977
0.131977
0.131977
0.131976
0.131976
0.131976
0.131976
0.131976
0.131975
0.131975
0.131975
0.131975
0.131975
0.131975
0.131975
0.131975
0.131975
0.131974
0.131974
0.131974
0.131974
0.131974
0.131974
0.131974
0.131974
0.131974
0.131974
0.131974
0.131974
0.131974
0.131974
0.131974
0.131974
0.131974
0.131974
0.131974
0.131974
0.131974
0.131974
0.131974
0.131974
0.131974
0.131974
0.131974
0.131974
0.131974
0.131974
0.131974
0.131974
0.131974
0.131974
0.131974
0.131974
0.131974
0.131974
0.131974
0.131974
0.131974
0.131974
0.131974
0.131974
0.131974
0.131974
0.131974
0.131974
0.13198
0.137167
2.69859
2.69586
2.72013
2.70664
2.64065
2.53656
2.39467
2.17111
1.8075
1.41126
1.02293
0.656289
0.433917
0.328011
0.274721
0.24135
0.21758
0.200195
0.187117
0.177232
0.169523
0.163173
0.157903
0.153602
0.150035
0.147085
0.14474
0.142893
0.141385
0.140113
0.139025
0.138089
0.137285
0.136592
0.135995
0.13548
0.135036
0.134651
0.134316
0.134029
0.13377
0.133549
0.133355
0.133183
0.133033
0.1329
0.132783
0.132681
0.13259
0.132511
0.132441
0.13238
0.132325
0.132278
0.132236
0.132199
0.132167
0.132138
0.132113
0.132091
0.132072
0.132055
0.13204
0.132027
0.132016
0.132006
0.131997
0.13199
0.131983
0.131977
0.131972
0.131968
0.131964
0.13196
0.131957
0.131955
0.131953
0.131951
0.131949
0.131947
0.131946
0.131945
0.131944
0.131943
0.131943
0.131942
0.131942
0.131941
0.131941
0.13194
0.13194
0.13194
0.13194
0.131939
0.131939
0.131939
0.131939
0.131939
0.131939
0.131939
0.131939
0.131938
0.131938
0.131938
0.131938
0.131938
0.131938
0.131938
0.131938
0.131938
0.131938
0.131938
0.131938
0.131938
0.131938
0.131938
0.131938
0.131938
0.131938
0.131938
0.131938
0.131938
0.131938
0.131938
0.131938
0.131938
0.131938
0.131938
0.131938
0.131938
0.131938
0.131938
0.131938
0.131938
0.131938
0.131938
0.131938
0.131938
0.131938
0.131938
0.131938
0.131938
0.131938
0.131938
0.131938
0.131938
0.131938
0.131938
0.131938
0.131938
0.131938
0.131938
0.131938
0.131938
0.131938
0.131938
0.131938
0.131938
0.131938
0.131938
0.131938
0.131938
0.131947
0.1377
2.60585
2.60862
2.64446
2.64095
2.58273
2.4811
2.34322
2.13144
1.77629
1.35847
0.942761
0.596869
0.397773
0.302205
0.252827
0.222452
0.202009
0.187453
0.176588
0.16847
0.162239
0.157183
0.153031
0.149656
0.146845
0.144496
0.142616
0.141137
0.139931
0.138906
0.138019
0.137249
0.136582
0.136003
0.1355
0.135061
0.13468
0.134348
0.134056
0.133803
0.133577
0.13338
0.133207
0.133054
0.132919
0.132799
0.132694
0.132601
0.132519
0.132447
0.132383
0.132327
0.132278
0.132234
0.132196
0.132162
0.132133
0.132107
0.132084
0.132064
0.132046
0.132031
0.132018
0.132006
0.131996
0.131987
0.131979
0.131972
0.131966
0.131961
0.131956
0.131953
0.131949
0.131946
0.131944
0.131942
0.13194
0.131938
0.131937
0.131936
0.131935
0.131934
0.131933
0.131932
0.131932
0.131931
0.131931
0.131931
0.13193
0.13193
0.13193
0.13193
0.13193
0.13193
0.131929
0.131929
0.131929
0.131929
0.131929
0.131929
0.131929
0.131929
0.131929
0.131929
0.131929
0.131929
0.131929
0.131929
0.131929
0.131929
0.131929
0.131929
0.131929
0.131929
0.131929
0.131929
0.131929
0.131929
0.131929
0.131929
0.131929
0.131929
0.131929
0.131929
0.131929
0.131929
0.131929
0.131929
0.131929
0.131929
0.131929
0.131929
0.131929
0.131929
0.131929
0.131929
0.131929
0.131929
0.131929
0.131929
0.131929
0.131929
0.131929
0.131929
0.131929
0.131929
0.131929
0.131929
0.131929
0.131929
0.131929
0.131929
0.131929
0.131929
0.131929
0.131929
0.131929
0.131929
0.131929
0.131929
0.131929
0.131929
0.131939
0.137861
2.52705
2.53854
2.58783
2.58844
2.53691
2.43322
2.29438
2.09474
1.75102
1.3163
0.881404
0.555649
0.373073
0.283486
0.236694
0.208617
0.190622
0.178439
0.169433
0.162765
0.157681
0.153573
0.150182
0.147388
0.145052
0.143092
0.141507
0.140248
0.139212
0.138324
0.137547
0.136866
0.136269
0.135747
0.135289
0.134887
0.134535
0.134226
0.133954
0.133716
0.133504
0.133318
0.133153
0.133007
0.132879
0.132764
0.132664
0.132574
0.132496
0.132426
0.132365
0.132311
0.132263
0.132221
0.132184
0.132151
0.132123
0.132098
0.132076
0.132056
0.132039
0.132024
0.132011
0.132
0.13199
0.131981
0.131974
0.131967
0.131962
0.131957
0.131952
0.131949
0.131946
0.131943
0.13194
0.131938
0.131937
0.131935
0.131934
0.131933
0.131932
0.131931
0.13193
0.13193
0.131929
0.131929
0.131928
0.131928
0.131928
0.131928
0.131928
0.131928
0.131927
0.131927
0.131927
0.131927
0.131927