/*--------------------------------*- C++ -*----------------------------------*\
| =========                 |                                                 |
| \\      /  F ield         | OpenFOAM: The Open Source CFD Toolbox           |
|  \\    /   O peration     | Version:  v1912                                 |
|   \\  /    A nd           | Website:  www.openfoam.com                      |
|    \\/     M anipulation  |                                                 |
\*---------------------------------------------------------------------------*/
FoamFile
{
    version     2.0;
    format      ascii;
    class       volScalarField;
    location    "90";
    object      k;
}
// * * * * * * * * * * * * * * * * * * * * * * * * * * * * * * * * * * * * * //

dimensions      [0 2 -2 0 0 0 0];


internalField   nonuniform List<scalar> 
14268
(
5.57507e-07
5.5648e-07
5.55581e-07
5.54612e-07
5.53844e-07
5.52927e-07
5.52193e-07
5.51303e-07
5.50617e-07
5.49714e-07
5.49103e-07
5.48161e-07
5.47809e-07
5.46727e-07
5.46367e-07
5.45302e-07
5.44794e-07
5.43834e-07
5.42986e-07
5.42288e-07
5.41242e-07
5.404e-07
5.39537e-07
5.38507e-07
5.37523e-07
5.36467e-07
5.35301e-07
5.34022e-07
5.32901e-07
5.31242e-07
5.30118e-07
5.28473e-07
5.27012e-07
5.25263e-07
5.23661e-07
5.2174e-07
5.19956e-07
5.17933e-07
5.16267e-07
5.14279e-07
5.12515e-07
5.10555e-07
5.0875e-07
5.06707e-07
5.0493e-07
5.0279e-07
5.00828e-07
4.98718e-07
4.96503e-07
4.94453e-07
4.92169e-07
4.89911e-07
4.87731e-07
4.85378e-07
4.83064e-07
4.80911e-07
4.78661e-07
4.76269e-07
4.74231e-07
4.71944e-07
4.69599e-07
4.67564e-07
4.6532e-07
4.63009e-07
4.60945e-07
4.58776e-07
4.56379e-07
4.5451e-07
4.52269e-07
4.49787e-07
4.47962e-07
4.45681e-07
4.43264e-07
4.41584e-07
4.39057e-07
4.36533e-07
4.35257e-07
4.32379e-07
4.2969e-07
4.28222e-07
4.25686e-07
4.22777e-07
4.20843e-07
4.18649e-07
4.15792e-07
4.13595e-07
4.11162e-07
4.08679e-07
4.06315e-07
4.04098e-07
4.01908e-07
3.99833e-07
3.97853e-07
3.95863e-07
3.94012e-07
3.92162e-07
3.90306e-07
3.88424e-07
3.86613e-07
3.84861e-07
3.82961e-07
3.81083e-07
3.78938e-07
3.76819e-07
3.745e-07
3.7221e-07
3.6983e-07
3.67414e-07
3.64256e-07
3.61462e-07
3.57897e-07
3.53409e-07
3.49214e-07
3.43667e-07
3.37589e-07
3.30351e-07
3.22522e-07
3.14081e-07
3.04547e-07
2.94738e-07
2.83721e-07
2.70844e-07
2.55725e-07
2.3878e-07
2.19404e-07
1.98238e-07
1.72248e-07
1.42624e-07
1.06699e-07
6.93115e-08
3.83444e-08
1.77691e-08
7.57608e-09
3.22582e-09
2.63971e-07
2.64589e-07
2.65263e-07
2.66137e-07
2.66906e-07
2.6801e-07
2.69012e-07
2.70127e-07
2.71271e-07
2.72603e-07
2.73791e-07
2.75265e-07
2.76642e-07
2.78309e-07
2.79665e-07
2.81454e-07
2.82847e-07
2.84582e-07
2.86221e-07
2.87767e-07
2.89586e-07
2.91149e-07
2.92841e-07
2.94607e-07
2.96113e-07
2.97646e-07
2.99138e-07
3.00408e-07
3.01622e-07
3.02753e-07
3.0365e-07
3.04696e-07
3.05369e-07
3.05951e-07
3.06332e-07
3.0644e-07
3.06358e-07
3.06112e-07
3.0568e-07
3.05192e-07
3.04583e-07
3.03825e-07
3.02927e-07
3.01935e-07
3.00793e-07
2.99643e-07
2.98293e-07
2.96958e-07
2.95521e-07
2.94043e-07
2.92606e-07
2.90961e-07
2.89425e-07
2.87745e-07
2.8605e-07
2.84389e-07
2.82536e-07
2.80735e-07
2.78802e-07
2.7672e-07
2.7463e-07
2.72344e-07
2.69879e-07
2.67376e-07
2.6466e-07
2.61783e-07
2.58885e-07
2.5585e-07
2.52728e-07
2.4962e-07
2.46456e-07
2.43277e-07
2.40152e-07
2.37039e-07
2.33972e-07
2.3105e-07
2.28253e-07
2.25541e-07
2.23039e-07
2.20779e-07
2.18662e-07
2.16778e-07
2.1518e-07
2.13815e-07
2.12696e-07
2.11798e-07
2.11114e-07
2.10724e-07
2.10391e-07
2.10257e-07
2.10275e-07
2.1042e-07
2.10771e-07
2.11206e-07
2.1179e-07
2.12571e-07
2.13396e-07
2.14424e-07
2.1551e-07
2.16726e-07
2.181e-07
2.19586e-07
2.21207e-07
2.22913e-07
2.24729e-07
2.26595e-07
2.28544e-07
2.30552e-07
2.32636e-07
2.34666e-07
2.36668e-07
2.38658e-07
2.40442e-07
2.42143e-07
2.43488e-07
2.44439e-07
2.44677e-07
2.4401e-07
2.42163e-07
2.39054e-07
2.34582e-07
2.28413e-07
2.20055e-07
2.09098e-07
1.95459e-07
1.78972e-07
1.59027e-07
1.34978e-07
1.07337e-07
7.91825e-08
5.33121e-08
3.3834e-08
2.12697e-08
1.24304e-08
1.04863e-07
1.05309e-07
1.0578e-07
1.06368e-07
1.06884e-07
1.07597e-07
1.08241e-07
1.08954e-07
1.09681e-07
1.10533e-07
1.11287e-07
1.1224e-07
1.13114e-07
1.14199e-07
1.15053e-07
1.16245e-07
1.17134e-07
1.18308e-07
1.19412e-07
1.20445e-07
1.2173e-07
1.22789e-07
1.24002e-07
1.25297e-07
1.26371e-07
1.27542e-07
1.28717e-07
1.29724e-07
1.3075e-07
1.31762e-07
1.3255e-07
1.33601e-07
1.34264e-07
1.34987e-07
1.35584e-07
1.35987e-07
1.36317e-07
1.36551e-07
1.36624e-07
1.36709e-07
1.36658e-07
1.36528e-07
1.36309e-07
1.36045e-07
1.3566e-07
1.35319e-07
1.34796e-07
1.34331e-07
1.3378e-07
1.33214e-07
1.32696e-07
1.32026e-07
1.31444e-07
1.30764e-07
1.30075e-07
1.2941e-07
1.28629e-07
1.27887e-07
1.27045e-07
1.26117e-07
1.25187e-07
1.24109e-07
1.22937e-07
1.21744e-07
1.20398e-07
1.18977e-07
1.17556e-07
1.16037e-07
1.14491e-07
1.1297e-07
1.1141e-07
1.09879e-07
1.08411e-07
1.06956e-07
1.05551e-07
1.0425e-07
1.03037e-07
1.01885e-07
1.00847e-07
9.99757e-08
9.9176e-08
9.84797e-08
9.79769e-08
9.75823e-08
9.7328e-08
9.72098e-08
9.71833e-08
9.7382e-08
9.75452e-08
9.78603e-08
9.82501e-08
9.87046e-08
9.92894e-08
9.9923e-08
1.00652e-07
1.01523e-07
1.02435e-07
1.035e-07
1.0465e-07
1.05911e-07
1.07324e-07
1.08845e-07
1.10521e-07
1.12332e-07
1.14299e-07
1.16429e-07
1.18675e-07
1.21141e-07
1.23716e-07
1.26525e-07
1.29482e-07
1.32619e-07
1.35944e-07
1.39354e-07
1.42857e-07
1.46331e-07
1.49749e-07
1.53005e-07
1.56028e-07
1.58613e-07
1.60566e-07
1.61601e-07
1.61482e-07
1.59552e-07
1.54647e-07
1.46437e-07
1.34845e-07
1.19549e-07
1.00474e-07
7.87464e-08
5.85531e-08
4.22848e-08
3.25925e-08
2.30193e-08
6.05719e-08
6.07685e-08
6.09852e-08
6.12366e-08
6.14778e-08
6.17832e-08
6.20783e-08
6.23885e-08
6.27182e-08
6.30879e-08
6.34349e-08
6.38462e-08
6.42509e-08
6.47234e-08
6.51271e-08
6.56536e-08
6.60764e-08
6.66156e-08
6.71337e-08
6.7629e-08
6.82314e-08
6.87484e-08
6.93288e-08
6.99611e-08
7.05021e-08
7.10878e-08
7.16866e-08
7.22102e-08
7.27466e-08
7.32812e-08
7.37139e-08
7.42879e-08
7.46741e-08
7.50941e-08
7.54568e-08
7.57188e-08
7.59475e-08
7.61303e-08
7.62292e-08
7.63403e-08
7.63804e-08
7.63784e-08
7.63318e-08
7.62582e-08
7.61257e-08
7.60118e-08
7.58139e-08
7.56396e-08
7.54267e-08
7.52046e-08
7.50092e-08
7.47411e-08
7.45154e-08
7.42432e-08
7.39651e-08
7.36992e-08
7.33739e-08
7.30656e-08
7.27075e-08
7.23055e-08
7.19003e-08
7.14198e-08
7.08922e-08
7.03536e-08
6.97406e-08
6.90915e-08
6.84404e-08
6.77465e-08
6.70524e-08
6.63785e-08
6.56939e-08
6.50298e-08
6.43967e-08
6.37712e-08
6.31751e-08
6.26323e-08
6.21309e-08
6.16628e-08
6.12547e-08
6.09196e-08
6.06205e-08
6.03722e-08
6.02078e-08
6.00946e-08
6.00461e-08
6.00532e-08
6.01235e-08
6.02609e-08
6.04122e-08
6.06128e-08
6.08461e-08
6.11175e-08
6.14404e-08
6.17956e-08
6.22009e-08
6.26619e-08
6.31619e-08
6.3733e-08
6.4359e-08
6.50499e-08
6.58248e-08
6.66747e-08
6.76202e-08
6.86575e-08
6.98052e-08
7.1069e-08
7.24418e-08
7.39747e-08
7.56251e-08
7.74589e-08
7.94355e-08
8.15848e-08
8.3939e-08
8.64428e-08
8.91612e-08
9.2024e-08
9.50262e-08
9.80636e-08
1.01105e-07
1.04089e-07
1.06821e-07
1.09085e-07
1.10608e-07
1.11253e-07
1.10933e-07
1.09151e-07
1.05217e-07
9.87553e-08
8.87294e-08
7.52324e-08
6.1295e-08
5.03131e-08
4.23094e-08
3.33574e-08
4.77493e-08
4.7821e-08
4.79145e-08
4.79999e-08
4.811e-08
4.82155e-08
4.83445e-08
4.846e-08
4.86012e-08
4.8738e-08
4.88953e-08
4.90486e-08
4.92357e-08
4.94114e-08
4.96064e-08
4.9803e-08
5.00043e-08
5.02262e-08
5.04528e-08
5.06819e-08
5.09355e-08
5.11768e-08
5.1443e-08
5.17251e-08
5.19804e-08
5.22491e-08
5.25282e-08
5.27778e-08
5.3035e-08
5.32852e-08
5.35056e-08
5.3772e-08
5.39695e-08
5.41712e-08
5.43517e-08
5.44853e-08
5.46041e-08
5.4699e-08
5.47575e-08
5.48172e-08
5.48479e-08
5.48545e-08
5.48421e-08
5.48142e-08
5.47644e-08
5.47176e-08
5.46376e-08
5.4565e-08
5.44775e-08
5.43856e-08
5.43032e-08
5.41885e-08
5.4094e-08
5.39798e-08
5.38613e-08
5.37471e-08
5.3608e-08
5.34736e-08
5.33179e-08
5.31433e-08
5.2964e-08
5.27525e-08
5.25204e-08
5.22807e-08
5.20114e-08
5.17275e-08
5.14418e-08
5.11408e-08
5.08391e-08
5.05437e-08
5.0248e-08
4.99662e-08
4.97023e-08
4.94508e-08
4.92212e-08
4.90172e-08
4.88324e-08
4.86702e-08
4.85376e-08
4.84281e-08
4.83399e-08
4.82852e-08
4.82469e-08
4.82394e-08
4.82648e-08
4.82903e-08
4.83693e-08
4.8432e-08
4.85368e-08
4.86378e-08
4.87545e-08
4.88928e-08
4.90366e-08
4.91971e-08
4.93843e-08
4.95742e-08
4.98061e-08
5.00489e-08
5.0327e-08
5.06368e-08
5.09796e-08
5.13681e-08
5.1804e-08
5.22916e-08
5.28498e-08
5.34678e-08
5.41726e-08
5.49655e-08
5.58521e-08
5.68568e-08
5.79817e-08
5.92455e-08
6.06616e-08
6.22113e-08
6.39321e-08
6.5822e-08
6.7892e-08
7.01598e-08
7.25937e-08
7.50937e-08
7.75567e-08
7.97802e-08
8.15386e-08
8.2695e-08
8.31321e-08
8.27705e-08
8.13257e-08
7.84699e-08
7.46161e-08
6.93451e-08
6.27071e-08
5.64527e-08
5.03015e-08
4.17401e-08
4.3978e-08
4.39998e-08
4.40398e-08
4.40602e-08
4.41122e-08
4.41335e-08
4.41902e-08
4.42246e-08
4.42846e-08
4.43221e-08
4.43922e-08
4.44341e-08
4.45178e-08
4.45648e-08
4.46567e-08
4.47079e-08
4.48012e-08
4.48758e-08
4.49655e-08
4.50718e-08
4.51537e-08
4.52588e-08
4.53684e-08
4.54736e-08
4.5589e-08
4.56987e-08
4.58161e-08
4.59262e-08
4.60346e-08
4.61351e-08
4.62445e-08
4.63504e-08
4.64523e-08
4.65412e-08
4.66273e-08
4.66884e-08
4.67408e-08
4.67845e-08
4.68171e-08
4.68421e-08
4.68578e-08
4.68588e-08
4.68534e-08
4.68411e-08
4.68216e-08
4.67988e-08
4.6763e-08
4.67271e-08
4.66858e-08
4.66451e-08
4.66102e-08
4.65592e-08
4.65165e-08
4.64639e-08
4.64126e-08
4.63641e-08
4.62975e-08
4.62417e-08
4.61733e-08
4.60907e-08
4.60169e-08
4.59236e-08
4.58163e-08
4.57192e-08
4.56015e-08
4.54779e-08
4.53659e-08
4.52471e-08
4.51314e-08
4.50294e-08
4.4931e-08
4.48389e-08
4.47566e-08
4.46805e-08
4.46151e-08
4.45635e-08
4.4521e-08
4.44878e-08
4.4485e-08
4.44674e-08
4.44719e-08
4.45025e-08
4.45092e-08
4.45492e-08
4.45957e-08
4.46286e-08
4.4695e-08
4.47313e-08
4.48014e-08
4.48565e-08
4.49088e-08
4.49772e-08
4.50321e-08
4.50977e-08
4.51786e-08
4.52417e-08
4.53402e-08
4.54246e-08
4.55297e-08
4.56489e-08
4.57721e-08
4.59255e-08
4.60945e-08
4.62889e-08
4.65255e-08
4.67858e-08
4.71104e-08
4.74639e-08
4.78988e-08
4.83873e-08
4.89598e-08
4.9629e-08
5.03996e-08
5.12914e-08
5.22989e-08
5.34313e-08
5.46973e-08
5.60967e-08
5.76218e-08
5.92564e-08
6.10213e-08
6.29349e-08
6.48541e-08
6.64504e-08
6.74143e-08
6.76796e-08
6.7345e-08
6.6634e-08
6.59412e-08
6.50763e-08
6.38844e-08
6.18363e-08
5.74745e-08
4.81275e-08
4.28816e-08
4.28872e-08
4.29044e-08
4.29038e-08
4.29317e-08
4.2924e-08
4.29511e-08
4.29563e-08
4.29822e-08
4.29849e-08
4.30184e-08
4.30205e-08
4.30601e-08
4.30631e-08
4.31089e-08
4.31121e-08
4.31586e-08
4.31767e-08
4.32115e-08
4.32675e-08
4.32891e-08
4.33324e-08
4.33863e-08
4.34208e-08
4.34727e-08
4.352e-08
4.35687e-08
4.3619e-08
4.36664e-08
4.37005e-08
4.37538e-08
4.37893e-08
4.38438e-08
4.38814e-08
4.39176e-08
4.39417e-08
4.39606e-08
4.39706e-08
4.39849e-08
4.39939e-08
4.40013e-08
4.3998e-08
4.39907e-08
4.3975e-08
4.39689e-08
4.39587e-08
4.39434e-08
4.39239e-08
4.39001e-08
4.38797e-08
4.38603e-08
4.38409e-08
4.38233e-08
4.3795e-08
4.37717e-08
4.37502e-08
4.37208e-08
4.36924e-08
4.36612e-08
4.36269e-08
4.35922e-08
4.3552e-08
4.351e-08
4.34649e-08
4.34182e-08
4.33734e-08
4.33258e-08
4.32801e-08
4.32422e-08
4.31999e-08
4.31646e-08
4.31472e-08
4.31308e-08
4.31162e-08
4.31233e-08
4.31346e-08
4.31562e-08
4.31731e-08
4.32201e-08
4.32497e-08
4.32946e-08
4.33503e-08
4.33925e-08
4.34517e-08
4.35061e-08
4.35522e-08
4.36075e-08
4.36471e-08
4.36977e-08
4.37391e-08
4.37715e-08
4.38112e-08
4.38384e-08
4.38681e-08
4.38959e-08
4.39111e-08
4.39419e-08
4.39556e-08
4.3976e-08
4.39941e-08
4.4008e-08
4.40364e-08
4.40654e-08
4.41057e-08
4.4167e-08
4.42291e-08
4.43403e-08
4.44476e-08
4.46208e-08
4.48077e-08
4.50551e-08
4.53596e-08
4.57228e-08
4.61903e-08
4.67485e-08
4.74298e-08
4.82186e-08
4.91322e-08
5.01652e-08
5.13192e-08
5.25703e-08
5.38673e-08
5.50979e-08
5.63127e-08
5.73843e-08
5.80895e-08
5.85995e-08
5.92868e-08
6.06315e-08
6.30507e-08
6.59141e-08
6.59414e-08
6.28152e-08
5.33373e-08
4.25928e-08
4.25936e-08
4.26015e-08
4.25965e-08
4.26149e-08
4.26003e-08
4.26155e-08
4.26107e-08
4.26206e-08
4.26129e-08
4.26306e-08
4.26193e-08
4.26402e-08
4.26258e-08
4.2652e-08
4.26361e-08
4.26633e-08
4.26604e-08
4.26716e-08
4.26997e-08
4.26962e-08
4.27164e-08
4.27404e-08
4.27459e-08
4.27679e-08
4.27852e-08
4.28012e-08
4.28243e-08
4.28428e-08
4.2852e-08
4.28789e-08
4.28852e-08
4.29137e-08
4.29301e-08
4.29446e-08
4.29551e-08
4.2961e-08
4.29556e-08
4.2964e-08
4.29632e-08
4.29651e-08
4.29603e-08
4.29541e-08
4.29349e-08
4.2938e-08
4.2921e-08
4.29202e-08
4.29058e-08
4.2889e-08
4.28841e-08
4.28647e-08
4.28631e-08
4.28463e-08
4.28318e-08
4.28256e-08
4.28066e-08
4.28008e-08
4.2783e-08
4.27613e-08
4.27562e-08
4.27369e-08
4.27117e-08
4.27076e-08
4.26861e-08
4.26606e-08
4.26612e-08
4.26454e-08
4.26285e-08
4.26448e-08
4.26465e-08
4.265e-08
4.26802e-08
4.27054e-08
4.27282e-08
4.27701e-08
4.2815e-08
4.28631e-08
4.29098e-08
4.29772e-08
4.30333e-08
4.30965e-08
4.31641e-08
4.32246e-08
4.32921e-08
4.33531e-08
4.34077e-08
4.34604e-08
4.35021e-08
4.35461e-08
4.35832e-08
4.36122e-08
4.36355e-08
4.36495e-08
4.36605e-08
4.36659e-08
4.36621e-08
4.36583e-08
4.3648e-08
4.36357e-08
4.36188e-08
4.35989e-08
4.35773e-08
4.35525e-08
4.35304e-08
4.35055e-08
4.34798e-08
4.34791e-08
4.34557e-08
4.34865e-08
4.35037e-08
4.35685e-08
4.3668e-08
4.37948e-08
4.39888e-08
4.42324e-08
4.45612e-08
4.49785e-08
4.55113e-08
4.61587e-08
4.69096e-08
4.7733e-08
4.8586e-08
4.94782e-08
5.03684e-08
5.11876e-08
5.20288e-08
5.30766e-08
5.47171e-08
5.77136e-08
6.26412e-08
6.76341e-08
6.82937e-08
6.57277e-08
5.65482e-08
4.25403e-08
4.25421e-08
4.25459e-08
4.25411e-08
4.25571e-08
4.25426e-08
4.25535e-08
4.25476e-08
4.25511e-08
4.25409e-08
4.25523e-08
4.25398e-08
4.25526e-08
4.25327e-08
4.25526e-08
4.253e-08
4.25505e-08
4.25399e-08
4.25425e-08
4.25565e-08
4.25432e-08
4.25565e-08
4.25659e-08
4.25588e-08
4.257e-08
4.25739e-08
4.25747e-08
4.25841e-08
4.2589e-08
4.25862e-08
4.26004e-08
4.25951e-08
4.26156e-08
4.26199e-08
4.26212e-08
4.26234e-08
4.2624e-08
4.26101e-08
4.26158e-08
4.26088e-08
4.26119e-08
4.26062e-08
4.26021e-08
4.25823e-08
4.25892e-08
4.25712e-08
4.25791e-08
4.25633e-08
4.25536e-08
4.25585e-08
4.25378e-08
4.2548e-08
4.25318e-08
4.25268e-08
4.2533e-08
4.25135e-08
4.25227e-08
4.25118e-08
4.24952e-08
4.25042e-08
4.24953e-08
4.24767e-08
4.24891e-08
4.24831e-08
4.24654e-08
4.24862e-08
4.2487e-08
4.24807e-08
4.25094e-08
4.25209e-08
4.25308e-08
4.25698e-08
4.26044e-08
4.264e-08
4.26881e-08
4.27414e-08
4.27981e-08
4.28519e-08
4.29256e-08
4.29876e-08
4.30547e-08
4.31267e-08
4.31907e-08
4.32619e-08
4.33256e-08
4.33813e-08
4.34354e-08
4.34788e-08
4.35198e-08
4.35493e-08
4.35699e-08
4.35901e-08
4.36033e-08
4.36124e-08
4.3614e-08
4.35979e-08
4.35853e-08
4.35634e-08
4.35416e-08
4.35148e-08
4.3481e-08
4.34475e-08
4.34057e-08
4.33674e-08
4.33251e-08
4.3278e-08
4.32439e-08
4.31863e-08
4.31743e-08
4.31356e-08
4.31272e-08
4.31408e-08
4.31648e-08
4.32361e-08
4.33331e-08
4.34769e-08
4.36763e-08
4.39542e-08
4.43254e-08
4.48133e-08
4.54305e-08
4.61624e-08
4.6961e-08
4.77839e-08
4.86548e-08
4.96528e-08
5.09996e-08
5.32297e-08
5.70904e-08
6.30054e-08
6.80819e-08
6.90428e-08
6.64492e-08
5.73467e-08
4.25606e-08
4.25685e-08
4.25685e-08
4.25646e-08
4.25802e-08
4.25653e-08
4.25723e-08
4.25723e-08
4.25705e-08
4.25577e-08
4.25672e-08
4.25539e-08
4.25673e-08
4.25456e-08
4.2563e-08
4.25373e-08
4.25575e-08
4.25463e-08
4.2544e-08
4.25559e-08
4.25392e-08
4.25512e-08
4.25597e-08
4.25489e-08
4.25595e-08
4.25592e-08
4.25549e-08
4.25588e-08
4.25599e-08
4.25546e-08
4.25661e-08
4.2552e-08
4.25687e-08
4.25696e-08
4.25652e-08
4.25627e-08
4.25592e-08
4.25404e-08
4.25467e-08
4.25379e-08
4.25406e-08
4.25349e-08
4.25334e-08
4.25131e-08
4.25229e-08
4.25051e-08
4.25175e-08
4.25026e-08
4.24959e-08
4.25076e-08
4.24868e-08
4.25023e-08
4.24885e-08
4.2487e-08
4.25001e-08
4.24813e-08
4.24959e-08
4.24895e-08
4.24752e-08
4.24887e-08
4.24839e-08
4.24674e-08
4.24844e-08
4.24833e-08
4.24679e-08
4.24939e-08
4.25001e-08
4.24984e-08
4.25339e-08
4.25526e-08
4.25699e-08
4.26181e-08
4.26642e-08
4.27124e-08
4.27728e-08
4.28403e-08
4.29106e-08
4.29791e-08
4.30647e-08
4.31403e-08
4.32187e-08
4.3297e-08
4.33664e-08
4.34391e-08
4.35029e-08
4.35549e-08
4.3601e-08
4.36321e-08
4.36694e-08
4.37038e-08
4.37317e-08
4.37588e-08
4.37848e-08
4.38104e-08
4.38193e-08
4.38003e-08
4.37885e-08
4.3756e-08
4.3728e-08
4.3695e-08
4.3648e-08
4.36037e-08
4.35395e-08
4.34812e-08
4.34187e-08
4.33482e-08
4.33092e-08
4.32344e-08
4.32059e-08
4.3141e-08
4.31062e-08
4.30861e-08
4.30694e-08
4.30953e-08
4.31386e-08
4.32034e-08
4.33004e-08
4.34413e-08
4.3622e-08
4.38626e-08
4.4193e-08
4.4631e-08
4.51974e-08
4.59082e-08
4.67889e-08
4.79023e-08
4.95069e-08
5.21377e-08
5.65789e-08
6.31322e-08
6.80805e-08
6.89635e-08
6.62852e-08
5.71453e-08
4.26535e-08
4.26677e-08
4.26717e-08
4.26659e-08
4.26843e-08
4.26724e-08
4.26741e-08
4.26753e-08
4.26724e-08
4.26542e-08
4.26636e-08
4.26508e-08
4.26609e-08
4.26379e-08
4.26544e-08
4.26275e-08
4.26422e-08
4.26312e-08
4.26197e-08
4.26296e-08
4.26111e-08
4.26211e-08
4.26249e-08
4.26091e-08
4.26134e-08
4.26121e-08
4.26047e-08
4.26053e-08
4.26016e-08
4.25878e-08
4.26e-08
4.25852e-08
4.25983e-08
4.2597e-08
4.25888e-08
4.25842e-08
4.25802e-08
4.25586e-08
4.25646e-08
4.25554e-08
4.25575e-08
4.25528e-08
4.25518e-08
4.25309e-08
4.25427e-08
4.25246e-08
4.25395e-08
4.25251e-08
4.25197e-08
4.25362e-08
4.25149e-08
4.25328e-08
4.25207e-08
4.25202e-08
4.25383e-08
4.25204e-08
4.25388e-08
4.2536e-08
4.25247e-08
4.25415e-08
4.25402e-08
4.25262e-08
4.25481e-08
4.2554e-08
4.25427e-08
4.25772e-08
4.25937e-08
4.2601e-08
4.26478e-08
4.26778e-08
4.27055e-08
4.27627e-08
4.28166e-08
4.28694e-08
4.29308e-08
4.29948e-08
4.30582e-08
4.31168e-08
4.31937e-08
4.32613e-08
4.33319e-08
4.34047e-08
4.34703e-08
4.35405e-08
4.36019e-08
4.36532e-08
4.37034e-08
4.37396e-08
4.37806e-08
4.38184e-08
4.38472e-08
4.38714e-08
4.38805e-08
4.38767e-08
4.38682e-08
4.38448e-08
4.38285e-08
4.38012e-08
4.37793e-08
4.37568e-08
4.37246e-08
4.36954e-08
4.36478e-08
4.36065e-08
4.3559e-08
4.34977e-08
4.34648e-08
4.3391e-08
4.33694e-08
4.33065e-08
4.32671e-08
4.32377e-08
4.31995e-08
4.31969e-08
4.32137e-08
4.32518e-08
4.33403e-08
4.34785e-08
4.36532e-08
4.38797e-08
4.41747e-08
4.45608e-08
4.50641e-08
4.57118e-08
4.65577e-08
4.76934e-08
4.93494e-08
5.20476e-08
5.65324e-08
6.29496e-08
6.73799e-08
6.80166e-08
6.52303e-08
5.62117e-08
4.28173e-08
4.28377e-08
4.28424e-08
4.28354e-08
4.28557e-08
4.28485e-08
4.28385e-08
4.28347e-08
4.28284e-08
4.28043e-08
4.28118e-08
4.28045e-08
4.28105e-08
4.27834e-08
4.27932e-08
4.27634e-08
4.27738e-08
4.27602e-08
4.27427e-08
4.27509e-08
4.27284e-08
4.27378e-08
4.27415e-08
4.27175e-08
4.27199e-08
4.27153e-08
4.26987e-08
4.26966e-08
4.26928e-08
4.26767e-08
4.26847e-08
4.26665e-08
4.26811e-08
4.26782e-08
4.26618e-08
4.26559e-08
4.26521e-08
4.26286e-08
4.2638e-08
4.26288e-08
4.26312e-08
4.26296e-08
4.26291e-08
4.26073e-08
4.26232e-08
4.26045e-08
4.26235e-08
4.26098e-08
4.26063e-08
4.26301e-08
4.26072e-08
4.26277e-08
4.26178e-08
4.2617e-08
4.2641e-08
4.26236e-08
4.26445e-08
4.26459e-08
4.26363e-08
4.26559e-08
4.2658e-08
4.26452e-08
4.26689e-08
4.26771e-08
4.2662e-08
4.26962e-08
4.271e-08
4.27074e-08
4.27469e-08
4.27663e-08
4.27781e-08
4.28166e-08
4.28583e-08
4.2897e-08
4.29478e-08
4.30043e-08
4.30626e-08
4.31148e-08
4.31885e-08
4.32524e-08
4.33182e-08
4.33858e-08
4.34444e-08
4.35108e-08
4.35682e-08
4.36144e-08
4.36613e-08
4.36935e-08
4.37242e-08
4.37453e-08
4.37542e-08
4.37698e-08
4.37795e-08
4.37847e-08
4.37808e-08
4.3764e-08
4.37539e-08
4.37319e-08
4.37087e-08
4.3684e-08
4.3656e-08
4.36299e-08
4.35963e-08
4.3568e-08
4.35357e-08
4.34971e-08
4.34789e-08
4.34242e-08
4.34201e-08
4.33768e-08
4.33591e-08
4.33492e-08
4.33284e-08
4.33439e-08
4.33557e-08
4.33681e-08
4.34095e-08
4.3508e-08
4.36577e-08
4.38857e-08
4.41975e-08
4.46137e-08
4.51448e-08
4.57927e-08
4.66013e-08
4.77092e-08
4.938e-08
5.20836e-08
5.64763e-08
6.22634e-08
6.56089e-08
6.59155e-08
6.27337e-08
5.40271e-08
4.30328e-08
4.30615e-08
4.30716e-08
4.30701e-08
4.30907e-08
4.30867e-08
4.30727e-08
4.30742e-08
4.30704e-08
4.30486e-08
4.30507e-08
4.30491e-08
4.30508e-08
4.30259e-08
4.30306e-08
4.30006e-08
4.30055e-08
4.2992e-08
4.29656e-08
4.29709e-08
4.29449e-08
4.29491e-08
4.2952e-08
4.29228e-08
4.29183e-08
4.29105e-08
4.28846e-08
4.28731e-08
4.28617e-08
4.28412e-08
4.28498e-08
4.28234e-08
4.2834e-08
4.28304e-08
4.2806e-08
4.27959e-08
4.27867e-08
4.27572e-08
4.27688e-08
4.27606e-08
4.27594e-08
4.27605e-08
4.27585e-08
4.27324e-08
4.27508e-08
4.27298e-08
4.27496e-08
4.27354e-08
4.2732e-08
4.2761e-08
4.27338e-08
4.27534e-08
4.27455e-08
4.27402e-08
4.27677e-08
4.27474e-08
4.2769e-08
4.27721e-08
4.27574e-08
4.27761e-08
4.27703e-08
4.274e-08
4.27536e-08
4.27541e-08
4.2722e-08
4.27441e-08
4.2752e-08
4.2733e-08
4.27658e-08
4.27796e-08
4.27827e-08
4.28197e-08
4.2857e-08
4.28903e-08
4.29372e-08
4.29875e-08
4.3038e-08
4.30809e-08
4.31464e-08
4.32015e-08
4.32574e-08
4.33153e-08
4.33626e-08
4.3419e-08
4.34645e-08
4.34985e-08
4.35378e-08
4.35562e-08
4.35802e-08
4.36009e-08
4.36082e-08
4.3622e-08
4.36328e-08
4.36457e-08
4.36462e-08
4.36282e-08
4.36146e-08
4.35864e-08
4.3548e-08
4.35075e-08
4.3465e-08
4.34208e-08
4.33723e-08
4.33224e-08
4.32698e-08
4.3228e-08
4.32028e-08
4.31607e-08
4.31668e-08
4.31515e-08
4.3171e-08
4.32058e-08
4.3243e-08
4.33194e-08
4.33959e-08
4.34787e-08
4.35672e-08
4.36825e-08
4.38152e-08
4.39642e-08
4.41736e-08
4.4479e-08
4.49268e-08
4.55582e-08
4.64156e-08
4.75689e-08
4.92483e-08
5.18905e-08
5.59968e-08
6.06512e-08
6.27729e-08
6.2509e-08
5.86338e-08
5.09953e-08
4.31738e-08
4.32098e-08
4.32233e-08
4.32279e-08
4.32527e-08
4.32546e-08
4.32332e-08
4.32429e-08
4.32479e-08
4.32378e-08
4.32415e-08
4.32501e-08
4.32504e-08
4.32328e-08
4.32324e-08
4.32126e-08
4.32135e-08
4.32017e-08
4.31757e-08
4.31828e-08
4.31614e-08
4.31649e-08
4.31717e-08
4.31412e-08
4.31348e-08
4.31277e-08
4.30979e-08
4.3083e-08
4.30686e-08
4.30415e-08
4.30477e-08
4.30186e-08
4.30206e-08
4.30166e-08
4.29869e-08
4.29684e-08
4.29576e-08
4.29181e-08
4.29298e-08
4.2923e-08
4.29142e-08
4.2915e-08
4.29118e-08
4.28795e-08
4.28976e-08
4.2873e-08
4.28896e-08
4.28762e-08
4.28596e-08
4.2886e-08
4.28573e-08
4.28718e-08
4.2866e-08
4.28437e-08
4.28693e-08
4.2845e-08
4.28556e-08
4.28511e-08
4.28199e-08
4.28284e-08
4.2817e-08
4.27781e-08
4.27813e-08
4.2777e-08
4.27369e-08
4.27503e-08
4.27546e-08
4.27293e-08
4.27568e-08
4.2766e-08
4.27611e-08
4.27873e-08
4.28136e-08
4.28349e-08
4.28705e-08
4.29084e-08
4.29514e-08
4.29851e-08
4.30471e-08
4.30993e-08
4.31546e-08
4.32178e-08
4.32702e-08
4.33363e-08
4.33894e-08
4.34285e-08
4.34786e-08
4.35039e-08
4.35361e-08
4.35626e-08
4.35712e-08
4.35872e-08
4.35911e-08
4.35792e-08
4.35675e-08
4.35437e-08
4.3525e-08
4.34953e-08
4.34557e-08
4.34144e-08
4.33706e-08
4.33249e-08
4.32698e-08
4.32109e-08
4.31424e-08
4.30788e-08
4.30277e-08
4.29544e-08
4.29234e-08
4.28745e-08
4.28553e-08
4.28518e-08
4.28627e-08
4.29241e-08
4.30218e-08
4.31774e-08
4.33874e-08
4.36344e-08
4.39e-08
4.41926e-08
4.45151e-08
4.48892e-08
4.53566e-08
4.59444e-08
4.66943e-08
4.77406e-08
4.92968e-08
5.16814e-08
5.50528e-08
5.72718e-08
5.75203e-08
5.60474e-08
5.18113e-08
4.72309e-08
4.3196e-08
4.32392e-08
4.32546e-08
4.32644e-08
4.32936e-08
4.32988e-08
4.32735e-08
4.32909e-08
4.3303e-08
4.33046e-08
4.33083e-08
4.33248e-08
4.3331e-08
4.33221e-08
4.33194e-08
4.33095e-08
4.33108e-08
4.33045e-08
4.32808e-08
4.32924e-08
4.32776e-08
4.32845e-08
4.3301e-08
4.32695e-08
4.32683e-08
4.32657e-08
4.32301e-08
4.32127e-08
4.31996e-08
4.31741e-08
4.31795e-08
4.31465e-08
4.31513e-08
4.3147e-08
4.31083e-08
4.30938e-08
4.30825e-08
4.30339e-08
4.30469e-08
4.30387e-08
4.3018e-08
4.30181e-08
4.30113e-08
4.2968e-08
4.29851e-08
4.29538e-08
4.29683e-08
4.29488e-08
4.2915e-08
4.29397e-08
4.29061e-08
4.29135e-08
4.29079e-08
4.28698e-08
4.28903e-08
4.28592e-08
4.28645e-08
4.2859e-08
4.28236e-08
4.2829e-08
4.2816e-08
4.27749e-08
4.27735e-08
4.27661e-08
4.2721e-08
4.2726e-08
4.27239e-08
4.26906e-08
4.27124e-08
4.27178e-08
4.27103e-08
4.27367e-08
4.27696e-08
4.28012e-08
4.28524e-08
4.29038e-08
4.29616e-08
4.30127e-08
4.30894e-08
4.31572e-08
4.32282e-08
4.33057e-08
4.33705e-08
4.34466e-08
4.3508e-08
4.35504e-08
4.36051e-08
4.3627e-08
4.3653e-08
4.3679e-08
4.36779e-08
4.36885e-08
4.36896e-08
4.36778e-08
4.36673e-08
4.36355e-08
4.36106e-08
4.357e-08
4.35154e-08
4.34602e-08
4.34049e-08
4.33503e-08
4.32843e-08
4.32172e-08
4.31385e-08
4.30628e-08
4.29994e-08
4.28977e-08
4.28441e-08
4.27585e-08
4.27033e-08
4.26546e-08
4.25991e-08
4.2589e-08
4.25822e-08
4.2626e-08
4.27052e-08
4.2836e-08
4.30198e-08
4.32583e-08
4.35496e-08
4.38774e-08
4.42275e-08
4.45984e-08
4.49833e-08
4.53899e-08
4.58338e-08
4.61972e-08
4.62864e-08
4.60285e-08
4.54577e-08
4.47863e-08
4.39897e-08
4.31606e-08
4.31642e-08
4.3212e-08
4.32353e-08
4.32495e-08
4.32825e-08
4.32904e-08
4.32598e-08
4.32803e-08
4.33009e-08
4.33064e-08
4.331e-08
4.3332e-08
4.33399e-08
4.33353e-08
4.3332e-08
4.33266e-08
4.33282e-08
4.33244e-08
4.33035e-08
4.33156e-08
4.3307e-08
4.33148e-08
4.33396e-08
4.33146e-08
4.33176e-08
4.33219e-08
4.32885e-08
4.32686e-08
4.32552e-08
4.32278e-08
4.32322e-08
4.31985e-08
4.32006e-08
4.31964e-08
4.31532e-08
4.31375e-08
4.31223e-08
4.30684e-08
4.30753e-08
4.30658e-08
4.30392e-08
4.30378e-08
4.30266e-08
4.29774e-08
4.29919e-08
4.29588e-08
4.29702e-08
4.29496e-08
4.29112e-08
4.29349e-08
4.28994e-08
4.29038e-08
4.28977e-08
4.28549e-08
4.28729e-08
4.28389e-08
4.28426e-08
4.28363e-08
4.27984e-08
4.28021e-08
4.27886e-08
4.2745e-08
4.27414e-08
4.27355e-08
4.269e-08
4.27004e-08
4.27084e-08
4.26832e-08
4.27177e-08
4.27377e-08
4.27489e-08
4.27965e-08
4.28526e-08
4.2911e-08
4.2995e-08
4.30808e-08
4.31726e-08
4.32587e-08
4.33676e-08
4.34666e-08
4.35668e-08
4.36693e-08
4.37575e-08
4.38532e-08
4.39282e-08
4.39767e-08
4.40406e-08
4.4053e-08
4.40604e-08
4.40778e-08
4.40491e-08
4.40399e-08
4.40182e-08
4.39802e-08
4.39459e-08
4.38934e-08
4.38464e-08
4.3788e-08
4.37042e-08
4.36223e-08
4.35427e-08
4.34618e-08
4.33734e-08
4.328e-08
4.31792e-08
4.30825e-08
4.30025e-08
4.28824e-08
4.28138e-08
4.2705e-08
4.2623e-08
4.25504e-08
4.24549e-08
4.24076e-08
4.23381e-08
4.2318e-08
4.22999e-08
4.23107e-08
4.23461e-08
4.24155e-08
4.2528e-08
4.26859e-08
4.28921e-08
4.31266e-08
4.33996e-08
4.36448e-08
4.37326e-08
4.37159e-08
4.35803e-08
4.34087e-08
4.32737e-08
4.31075e-08
4.28476e-08
4.24037e-08
4.31013e-08
4.31558e-08
4.31816e-08
4.32104e-08
4.32451e-08
4.32553e-08
4.32154e-08
4.32363e-08
4.32676e-08
4.32822e-08
4.32784e-08
4.33084e-08
4.33199e-08
4.33223e-08
4.33166e-08
4.33144e-08
4.33123e-08
4.33126e-08
4.32924e-08
4.33026e-08
4.32973e-08
4.33069e-08
4.33389e-08
4.33179e-08
4.33216e-08
4.33305e-08
4.33008e-08
4.32814e-08
4.32676e-08
4.32391e-08
4.32431e-08
4.3209e-08
4.32064e-08
4.32034e-08
4.31592e-08
4.31454e-08
4.31324e-08
4.30714e-08
4.30761e-08
4.30651e-08
4.30314e-08
4.30307e-08
4.30162e-08
4.29612e-08
4.29751e-08
4.29393e-08
4.29479e-08
4.29238e-08
4.28819e-08
4.29065e-08
4.28704e-08
4.28744e-08
4.28729e-08
4.28305e-08
4.2854e-08
4.28223e-08
4.28319e-08
4.28309e-08
4.27968e-08
4.28061e-08
4.2799e-08
4.27612e-08
4.27673e-08
4.27732e-08
4.27372e-08
4.27652e-08
4.27931e-08
4.27894e-08
4.28534e-08
4.29048e-08
4.29493e-08
4.30276e-08
4.31148e-08
4.32037e-08
4.33179e-08
4.34321e-08
4.35515e-08
4.36628e-08
4.37895e-08
4.39053e-08
4.4022e-08
4.41505e-08
4.42619e-08
4.43793e-08
4.44739e-08
4.45383e-08
4.46233e-08
4.46505e-08
4.46691e-08
4.4704e-08
4.46742e-08
4.46604e-08
4.46198e-08
4.45612e-08
4.45074e-08
4.44248e-08
4.43479e-08
4.42563e-08
4.41336e-08
4.40106e-08
4.3892e-08
4.37727e-08
4.3648e-08
4.35177e-08
4.33762e-08
4.32402e-08
4.31193e-08
4.29694e-08
4.28658e-08
4.27315e-08
4.26238e-08
4.25371e-08
4.24272e-08
4.23642e-08
4.22808e-08
4.22508e-08
4.22266e-08
4.22331e-08
4.22586e-08
4.23116e-08
4.23959e-08
4.25064e-08
4.26377e-08
4.27732e-08
4.28552e-08
4.29127e-08
4.3012e-08
4.31427e-08
4.32149e-08
4.32009e-08
4.3104e-08
4.29106e-08
4.25538e-08
4.21247e-08
4.30435e-08
4.30996e-08
4.31321e-08
4.31673e-08
4.32122e-08
4.32269e-08
4.31813e-08
4.32042e-08
4.3244e-08
4.32603e-08
4.32571e-08
4.3288e-08
4.3299e-08
4.33051e-08
4.32971e-08
4.32949e-08
4.32898e-08
4.32902e-08
4.32654e-08
4.32754e-08
4.32752e-08
4.3284e-08
4.33174e-08
4.3297e-08
4.33021e-08
4.33104e-08
4.32717e-08
4.32569e-08
4.32488e-08
4.32175e-08
4.32146e-08
4.31822e-08
4.31802e-08
4.318e-08
4.31342e-08
4.31149e-08
4.30951e-08
4.30348e-08
4.3042e-08
4.30295e-08
4.29961e-08
4.29987e-08
4.29816e-08
4.29315e-08
4.29532e-08
4.29196e-08
4.29349e-08
4.29136e-08
4.28801e-08
4.29128e-08
4.2879e-08
4.2891e-08
4.28976e-08
4.28611e-08
4.28953e-08
4.28687e-08
4.28885e-08
4.28996e-08
4.28743e-08
4.2898e-08
4.29055e-08
4.2882e-08
4.29077e-08
4.29346e-08
4.29167e-08
4.29696e-08
4.30251e-08
4.30489e-08
4.31412e-08
4.32199e-08
4.32922e-08
4.33941e-08
4.35061e-08
4.3617e-08
4.37533e-08
4.38914e-08
4.40382e-08
4.41735e-08
4.43234e-08
4.44648e-08
4.46088e-08
4.4771e-08
4.49139e-08
4.50623e-08
4.51886e-08
4.52802e-08
4.54105e-08
4.54797e-08
4.55369e-08
4.55999e-08
4.56063e-08
4.56177e-08
4.56036e-08
4.55578e-08
4.55238e-08
4.54442e-08
4.537e-08
4.52792e-08
4.51465e-08
4.49966e-08
4.4837e-08
4.46733e-08
4.45025e-08
4.43213e-08
4.41288e-08
4.39407e-08
4.37635e-08
4.35656e-08
4.33974e-08
4.32097e-08
4.30422e-08
4.28984e-08
4.27348e-08
4.26144e-08
4.24763e-08
4.23989e-08
4.23254e-08
4.22868e-08
4.22667e-08
4.22748e-08
4.23123e-08
4.23736e-08
4.24578e-08
4.25462e-08
4.26429e-08
4.27626e-08
4.28539e-08
4.29066e-08
4.29296e-08
4.29266e-08
4.2846e-08
4.26191e-08
4.22519e-08
4.19566e-08
4.29999e-08
4.30586e-08
4.30949e-08
4.31398e-08
4.31926e-08
4.32157e-08
4.31665e-08
4.31939e-08
4.32431e-08
4.32617e-08
4.32586e-08
4.32956e-08
4.33077e-08
4.33119e-08
4.32988e-08
4.3299e-08
4.32939e-08
4.32973e-08
4.32631e-08
4.327e-08
4.32728e-08
4.32848e-08
4.33208e-08
4.32939e-08
4.3303e-08
4.33251e-08
4.32871e-08
4.32502e-08
4.32376e-08
4.32079e-08
4.3204e-08
4.31631e-08
4.31587e-08
4.31572e-08
4.31117e-08
4.31102e-08
4.31007e-08
4.30339e-08
4.30459e-08
4.30367e-08