/*--------------------------------*- C++ -*----------------------------------*\
| =========                 |                                                 |
| \\      /  F ield         | OpenFOAM: The Open Source CFD Toolbox           |
|  \\    /   O peration     | Version:  v1912                                 |
|   \\  /    A nd           | Website:  www.openfoam.com                      |
|    \\/     M anipulation  |                                                 |
\*---------------------------------------------------------------------------*/
FoamFile
{
    version     2.0;
    format      ascii;
    class       volScalarField;
    location    "40";
    object      omega;
}
// * * * * * * * * * * * * * * * * * * * * * * * * * * * * * * * * * * * * * //

dimensions      [0 0 -1 0 0 0 0];


internalField   nonuniform List<scalar> 
14268
(
0.0102932
0.0102847
0.0102786
0.0102741
0.0102742
0.0102834
0.0102996
0.0103218
0.0103488
0.010379
0.0104102
0.0104419
0.0104715
0.010498
0.0105199
0.0105368
0.0105477
0.0105517
0.0105483
0.0105403
0.0105268
0.0105103
0.0104919
0.0104737
0.010455
0.0104388
0.0104236
0.0104116
0.0104008
0.0103914
0.0103821
0.0103759
0.0103751
0.0103808
0.0103918
0.0104088
0.0104316
0.0104592
0.0104894
0.0105206
0.0105505
0.0105766
0.0105977
0.0106123
0.010619
0.0106255
0.0106271
0.0106296
0.0106309
0.0106355
0.0106396
0.0106463
0.0106534
0.0106623
0.0106722
0.010683
0.0106941
0.0107048
0.0107136
0.0107206
0.0107261
0.0107307
0.0107341
0.0107369
0.0107397
0.0107474
0.0107609
0.0107801
0.0108051
0.0108366
0.0108736
0.0109157
0.0109647
0.0110205
0.011083
0.0111511
0.0112227
0.0112955
0.0113663
0.0114325
0.0114915
0.0115402
0.0115807
0.0116208
0.0116374
0.0116263
0.237074
0.238078
0.238616
0.238506
0.237821
0.236758
0.235309
0.233492
0.231443
0.229199
0.226878
0.224569
0.22226
0.220229
0.218215
0.21667
0.215145
0.214205
0.213388
0.213349
0.213781
0.215086
0.216652
0.218823
0.221109
0.223393
0.22549
0.227373
0.228755
0.229707
0.230082
0.229935
0.229444
0.228559
0.22722
0.225497
0.223349
0.220856
0.218178
0.215401
0.212741
0.21032
0.208356
0.206946
0.206174
0.206388
0.207484
0.209718
0.21243
0.216077
0.22001
0.224454
0.229042
0.233617
0.238055
0.242197
0.245969
0.249317
0.252208
0.25464
0.256622
0.258136
0.259218
0.259864
0.260077
0.260067
0.259847
0.259399
0.258724
0.257788
0.256595
0.255131
0.2534
0.251412
0.249203
0.246818
0.244307
0.241703
0.239076
0.236551
0.234274
0.232365
0.230725
0.229501
0.228888
0.227892
0.295721
0.295972
0.296111
0.296087
0.295948
0.295681
0.295268
0.294724
0.294105
0.293423
0.292729
0.292036
0.291383
0.290778
0.290213
0.289735
0.289305
0.288987
0.288754
0.288708
0.288891
0.289298
0.289868
0.290574
0.291358
0.292085
0.292745
0.293281
0.293667
0.293918
0.294014
0.293978
0.293865
0.293665
0.293334
0.292886
0.292314
0.291629
0.290855
0.290015
0.289184
0.288416
0.287788
0.287347
0.287087
0.287183
0.287589
0.288389
0.289348
0.290561
0.291869
0.29325
0.294611
0.295835
0.296905
0.297796
0.298518
0.299084
0.299517
0.299847
0.300088
0.300253
0.300362
0.300417
0.300431
0.300421
0.300348
0.300199
0.299985
0.299694
0.299337
0.298918
0.298448
0.297935
0.297408
0.296887
0.296375
0.295806
0.295186
0.29455
0.29395
0.29344
0.293022
0.292747
0.292741
0.292301
0.306027
0.306136
0.306204
0.306234
0.306253
0.306235
0.30614
0.305974
0.305774
0.305547
0.305326
0.305104
0.304939
0.304754
0.30463
0.304479
0.304401
0.304273
0.304221
0.304133
0.304183
0.304201
0.304362
0.304488
0.304688
0.304825
0.304992
0.305085
0.305167
0.3052
0.305206
0.305201
0.305199
0.305193
0.305149
0.305075
0.30497
0.304841
0.304688
0.304505
0.304315
0.304138
0.303994
0.303888
0.303794
0.303785
0.303829
0.303964
0.304152
0.304375
0.304644
0.304929
0.305232
0.305451
0.305588
0.305642
0.305632
0.305573
0.305483
0.305391
0.305291
0.305202
0.305125
0.305065
0.305025
0.304996
0.304929
0.304817
0.304667
0.30448
0.30426
0.304018
0.303766
0.303516
0.303294
0.30312
0.302992
0.302844
0.302651
0.302431
0.302208
0.302018
0.301851
0.301792
0.301903
0.301607
0.308608
0.308693
0.308739
0.308775
0.308816
0.308852
0.308837
0.308748
0.308626
0.308483
0.308348
0.308223
0.308151
0.30807
0.308059
0.307992
0.308002
0.307901
0.3079
0.307785
0.307788
0.307692
0.307729
0.30769
0.307738
0.307723
0.30775
0.307697
0.30768
0.307613
0.307568
0.307522
0.307499
0.307492
0.307521
0.307547
0.30757
0.307588
0.307586
0.307574
0.307555
0.307545
0.307545
0.307527
0.30749
0.30742
0.307377
0.307269
0.307263
0.307153
0.30718
0.307153
0.307191
0.307166
0.30708
0.306938
0.306766
0.30657
0.306365
0.306183
0.306008
0.305859
0.305733
0.305634
0.305566
0.305528
0.305471
0.30537
0.305237
0.305069
0.304877
0.304668
0.304455
0.304251
0.304083
0.303972
0.303914
0.303835
0.303719
0.303575
0.303423
0.30329
0.303183
0.303087
0.303065
0.302844
0.310137
0.310213
0.310238
0.310268
0.310303
0.310328
0.310326
0.310243
0.310116
0.30996
0.309804
0.309658
0.309561
0.309445
0.309407
0.30931
0.309303
0.309194
0.309171
0.309033
0.309008
0.308867
0.308865
0.30879
0.308781
0.308715
0.308711
0.30863
0.308595
0.308504
0.308445
0.30838
0.30834
0.308323
0.308349
0.308385
0.308419
0.308453
0.308471
0.308487
0.308502
0.308525
0.308527
0.308501
0.308456
0.308353
0.308275
0.308093
0.308042
0.307836
0.307816
0.307703
0.307684
0.307616
0.307486
0.307307
0.307107
0.306885
0.306658
0.306461
0.306268
0.306105
0.305968
0.305857
0.305775
0.305727
0.305667
0.305566
0.305435
0.305269
0.30508
0.304873
0.30466
0.304452
0.304278
0.304158
0.304089
0.304018
0.303916
0.303791
0.303662
0.303552
0.30347
0.303446
0.303479
0.303244
0.311722
0.311789
0.311795
0.311821
0.311844
0.311844
0.311804
0.311715
0.311554
0.311362
0.311155
0.310978
0.310816
0.31067
0.310588
0.310455
0.310412
0.310262
0.310228
0.310078
0.310034
0.309911
0.309886
0.309818
0.3098
0.309741
0.309714
0.309617
0.309577
0.309461
0.309388
0.309285
0.309205
0.309159
0.30916
0.309179
0.309199
0.309218
0.309228
0.309243
0.309249
0.309249
0.309218
0.30915
0.309065
0.308915
0.308801
0.308571
0.308504
0.308255
0.308222
0.308095
0.308067
0.30799
0.307846
0.307648
0.307428
0.307186
0.306933
0.306712
0.30649
0.306301
0.306139
0.306
0.305887
0.305807
0.305753
0.305664
0.30555
0.305395
0.305218
0.305024
0.304819
0.304615
0.30444
0.304315
0.304238
0.304157
0.304058
0.303939
0.30382
0.303724
0.303665
0.303629
0.303583
0.303298
0.313822
0.313917
0.313925
0.313926
0.313898
0.313811
0.313694
0.313529
0.313299
0.313025
0.312745
0.312461
0.312229
0.311991
0.311833
0.311642
0.311561
0.311391
0.31131
0.311152
0.311084
0.310965
0.310912
0.310872
0.310845
0.310782
0.31078
0.310682
0.310655
0.31053
0.310437
0.310299
0.310181
0.310095
0.310072
0.310065
0.310061
0.310058
0.310045
0.310023
0.309975
0.309919
0.309835
0.309717
0.309594
0.309402
0.309272
0.309004
0.308938
0.308661
0.308626
0.308494
0.308463
0.308382
0.308222
0.30801
0.307788
0.30754
0.307282
0.307059
0.306829
0.306634
0.30646
0.306307
0.306172
0.306059
0.305986
0.3059
0.305788
0.305639
0.305462
0.305264
0.305054
0.304839
0.304651
0.304512
0.304413
0.304324
0.304215
0.304099
0.303987
0.303899
0.303849
0.303804
0.30373
0.303444
0.316835
0.316972
0.316966
0.316932
0.316829
0.316652
0.316385
0.316065
0.315672
0.31526
0.314757
0.314388
0.313949
0.313655
0.313385
0.313148
0.31298
0.312772
0.312649
0.312496
0.312381
0.312332
0.312238
0.312292
0.312264
0.312269
0.312259
0.312172
0.312205
0.312043
0.311967
0.311784
0.311617
0.311449
0.311385
0.311321
0.311267
0.311212
0.311153
0.311076
0.310958
0.310826
0.310655
0.310446
0.31024
0.309972
0.309803
0.309495
0.309427
0.309131
0.309106
0.308983
0.308964
0.308897
0.308751
0.308561
0.308352
0.308129
0.30787
0.307653
0.307408
0.307203
0.307016
0.30683
0.306657
0.306504
0.306377
0.306284
0.306184
0.306043
0.305873
0.305674
0.305452
0.305214
0.304996
0.304817
0.304667
0.304558
0.304443
0.304334
0.304245
0.30419
0.304141
0.304055
0.303923
0.303612
0.321064
0.321314
0.321349
0.321309
0.321131
0.320839
0.320368
0.319814
0.31918
0.318452
0.317696
0.317056
0.316353
0.315906
0.315453
0.315151
0.314894
0.314653
0.314444
0.314314
0.314203
0.314197
0.314153
0.314247
0.3143
0.3144
0.314501
0.314521
0.314672
0.314496
0.314421
0.314124
0.313854
0.313532
0.31334
0.313139
0.312957
0.312779
0.312599
0.312388
0.312134
0.311888
0.311613
0.311315
0.311042
0.310702
0.310493
0.310143
0.310081
0.309774
0.309774
0.309677
0.309701
0.30967
0.309544
0.309367
0.309176
0.308958
0.308709
0.308513
0.308269
0.30807
0.307893
0.307676
0.307474
0.307274
0.307088
0.306922
0.306778
0.306644
0.306463
0.306259
0.306023
0.305779
0.305546
0.30534
0.305168
0.304995
0.304827
0.304669
0.304531
0.304433
0.304346
0.304239
0.304081
0.303776
0.326748
0.3272
0.327337
0.327305
0.327047
0.326582
0.325857
0.324999
0.323974
0.322972
0.321757
0.320828
0.31968
0.31903
0.31837
0.317944
0.317567
0.317244
0.316999
0.316895
0.3168
0.316848
0.316876
0.317108
0.317351
0.317557
0.317833
0.317901
0.318085
0.317969
0.317894
0.317586
0.317234
0.316785
0.316482
0.3161
0.315746
0.315375
0.314995
0.314564
0.313987
0.313505
0.313015
0.312539
0.312147
0.311685
0.311403
0.311009
0.310957
0.310659
0.310707
0.310662
0.310746
0.310811
0.310785
0.310701
0.31059
0.31045
0.310258
0.310135
0.309911
0.30973
0.309552
0.309278
0.309039
0.308786
0.308495
0.308211
0.307936
0.307669
0.30744
0.307183
0.306895
0.306597
0.306299
0.306027
0.305795
0.305589
0.3054
0.305244
0.305105
0.304973
0.304832
0.304664
0.304413
0.304042
0.334794
0.335587
0.335943
0.335938
0.335532
0.334716
0.333517
0.33208
0.330596
0.329076
0.327497
0.326019
0.324479
0.323423
0.32241
0.321816
0.321262
0.320915
0.320591
0.32052
0.320476
0.320626
0.32079
0.321153
0.321642
0.321989
0.322423
0.322588
0.322921
0.322871
0.322913
0.322598
0.32218
0.321501
0.320885
0.320119
0.319412
0.318698
0.318012
0.317287
0.316491
0.315777
0.315071
0.314424
0.313851
0.313209
0.312815
0.312326
0.312245
0.311943
0.312051
0.312115
0.312387
0.312636
0.312803
0.31286
0.312855
0.312805
0.312726
0.31274
0.312665
0.312539
0.312462
0.312229
0.312067
0.311801
0.311381
0.31088
0.310326
0.309717
0.309151
0.308617
0.30814
0.307715
0.30729
0.306893
0.306542
0.306231
0.305947
0.305684
0.305431
0.305193
0.304981
0.304779
0.304511
0.304158
0.348198
0.349931
0.35099
0.351228
0.350404
0.348451
0.345748
0.342795
0.339931
0.337314
0.334888
0.33265
0.330597
0.329037
0.327699
0.32686
0.326126
0.325705
0.325387
0.325432
0.325457
0.32594
0.326229
0.327002
0.327866
0.32846
0.329224
0.329702
0.330351
0.330563
0.330815
0.330539
0.330063
0.329085
0.328041
0.326669
0.325345
0.323974
0.32262
0.321272
0.3199
0.318847
0.317742
0.316829
0.316047
0.31523
0.314742
0.314216
0.314141
0.313941
0.314223
0.314578
0.315268
0.315949
0.316613
0.317194
0.317782
0.318364
0.318875
0.319455
0.319968
0.320394
0.320745
0.320819
0.320555
0.319889
0.318835
0.317436
0.315856
0.314261
0.312713
0.311409
0.310387
0.309618
0.308986
0.308405
0.307893
0.307425
0.307022
0.306678
0.306365
0.306082
0.305808
0.305523
0.305098
0.304588
0.375332
0.38001
0.383288
0.384613
0.383155
0.377987
0.370718
0.362951
0.355919
0.350335
0.34576
0.342036
0.339123
0.33679
0.335112
0.333985
0.333126
0.332744
0.332423
0.332512
0.332674
0.333588
0.334191
0.335741
0.337352
0.338602
0.340224
0.341737
0.343515
0.344615
0.34547
0.345507
0.344909
0.343229
0.340985
0.338074
0.335131
0.332239
0.329641
0.327284
0.325232
0.323575
0.322132
0.320911
0.319803
0.318782
0.318189
0.317747
0.31781
0.318034
0.3189
0.320191
0.322095
0.324376
0.327031
0.329965
0.333214
0.336627
0.340007
0.343362
0.346597
0.349399
0.351654
0.353117
0.353378
0.352242
0.349189
0.344319
0.338258
0.331539
0.325198
0.319789
0.315704
0.312958
0.311227
0.310087
0.30925
0.308514
0.307858
0.30729
0.306781
0.306358
0.305995
0.305673
0.305241
0.304736
0.411609
0.42634
0.439665
0.448029
0.445608
0.433489
0.416087
0.397442
0.381129
0.368595
0.359041
0.352313
0.347468
0.343974
0.341692
0.340161
0.339081
0.338587
0.338242
0.338387
0.338671
0.339904
0.340969
0.343479
0.346139
0.348551
0.351935
0.355724
0.360345
0.364307
0.367855
0.369632
0.369086
0.366105
0.361252
0.355102
0.348908
0.343181
0.338258
0.333878
0.330337
0.327795
0.325796
0.324225
0.322881
0.321748
0.321095
0.32078
0.321035
0.321752
0.323285
0.325598
0.328907
0.333143
0.338546
0.345359
0.354156
0.365282
0.378692
0.393761
0.410488
0.426423
0.440477
0.450534
0.453311
0.450672
0.441631
0.426535
0.407075
0.384987
0.36341
0.344269
0.32979
0.320511
0.315301
0.312593
0.311118
0.310071
0.309224
0.308498
0.307797
0.307095
0.306519
0.306078
0.305566
0.305092
0.456336
0.483517
0.507158
0.522006
0.518316
0.498186
0.468709
0.437243
0.409945
0.388918
0.373151
0.36246
0.354932
0.349852
0.346599
0.344416
0.343104
0.342556
0.342287
0.342613
0.34315
0.344742
0.346443
0.350144
0.354225
0.358345
0.364277
0.371114
0.379312
0.38664
0.393287
0.397301
0.397289
0.392646
0.384239
0.373474
0.362584
0.353051
0.345731
0.339755
0.334987
0.331464
0.328678
0.326658
0.325008
0.323764
0.323114
0.322926
0.323406
0.324602
0.326806
0.330239
0.335241
0.341985
0.351609
0.365361
0.384904
0.411241
0.443198
0.477987
0.514752
0.548934
0.577879
0.598773
0.606471
0.602966
0.586705
0.558108
0.519518
0.474743
0.430136
0.388192
0.354913
0.333194
0.321093
0.315091
0.312311
0.310817
0.309795
0.308967
0.308252
0.307716
0.307293
0.306867
0.306221
0.305371
0.528941
0.571713
0.607554
0.629785
0.624669
0.59169
0.543404
0.493205
0.45041
0.417551
0.393278
0.376982
0.365704
0.358611
0.354029
0.351013
0.34926
0.348517
0.348297
0.348791
0.349774
0.352086
0.354996
0.360635
0.367112
0.374108
0.383927
0.39525
0.408561
0.420668
0.432045
0.440068
0.441449
0.43458
0.420866
0.402789
0.383903
0.367118
0.354782
0.345982
0.339761
0.335416
0.332009
0.329519
0.327585
0.32627
0.325678
0.325714
0.326605
0.32863
0.33206
0.337654
0.346084
0.358689
0.378507
0.408393
0.451313
0.507292
0.57065
0.634632
0.697239
0.753178
0.800103
0.834794
0.8496
0.848631
0.822996
0.776709
0.710501
0.631895
0.552557
0.471797
0.404336
0.358949
0.333318
0.320513
0.314646
0.311888
0.310386
0.309373
0.308438
0.307595
0.306909
0.306449
0.305966
0.30546
0.640706
0.711947
0.778207
0.822155
0.815153
0.756235
0.671252
0.585884
0.515627
0.463251
0.425124
0.399293
0.381607
0.370882
0.364035
0.359936
0.357705
0.35684
0.356945
0.358003
0.35979
0.363385
0.368118
0.376762
0.386776
0.39819
0.414222
0.433027
0.455344
0.476674
0.4974
0.512228
0.515844
0.505339
0.483242
0.453664
0.421978
0.392857
0.371204
0.356653
0.347233
0.341151
0.336722
0.333435
0.331072
0.329633
0.329123
0.329555
0.331153
0.334629
0.340382
0.350297
0.365944
0.390904
0.431121
0.49111
0.574516
0.677376
0.786097
0.890266
0.991762
1.08551
1.17005
1.23673
1.27154
1.27494
1.24131
1.16797
1.05817
0.926139
0.792583
0.640095
0.504967
0.411969
0.358404
0.331695
0.319498
0.314101
0.311542
0.310115
0.3092
0.308473
0.307741
0.307084
0.306283
0.305465
0.824176
0.953011
1.07747
1.16251
1.15498
1.047
0.89074
0.737774
0.617186
0.532737
0.474161
0.434275
0.406835
0.390267
0.379584
0.373467
0.370092
0.369026
0.369558
0.371563
0.374666
0.380577
0.388133
0.401749
0.41763
0.436139
0.462233
0.492967
0.52926
0.564081
0.598359
0.623787
0.631338
0.615558
0.580781
0.534121
0.483286
0.434786
0.397158
0.372336
0.357418
0.348567
0.342738
0.338585
0.33563
0.334098
0.33377
0.334936
0.337851
0.344067
0.354476
0.373001
0.402904
0.451065
0.527063
0.635849
0.779791
0.94888
1.12185
1.28701
1.45302
1.60996
1.75207
1.86645
1.93426
1.95576
1.91661
1.81468
1.6419
1.43521
1.23157
0.960049
0.700481
0.517248
0.408959
0.354158
0.329118
0.318111
0.31317
0.310737
0.309417
0.308643
0.308075
0.30753
0.30682
0.305802
1.14471
1.38327
1.61831
1.78733
1.79438
1.59069
1.29583
1.00858
0.786051
0.640017
0.547415
0.486735
0.44498
0.419482
0.403222
0.394199
0.389208
0.387965
0.389195
0.392527
0.39779
0.407392
0.419776
0.442065
0.466888
0.496393
0.538588
0.587775
0.644646
0.698624
0.752765
0.793156
0.806925
0.783578
0.729712
0.657851
0.579914
0.504042
0.442385
0.399762
0.374168
0.35998
0.351416
0.345857
0.342034
0.340379
0.340385
0.342882
0.348342
0.359907
0.379372
0.413985
0.469348
0.556299
0.687297
0.865643
1.09168
1.348
1.60725
1.8579
2.11094
2.34972
2.57062
2.76122
2.90232
2.96916
2.94786
2.82158
2.57803
2.27642
1.99138
1.53585
1.06249
0.717784
0.507677
0.398747
0.348399
0.326686
0.317306
0.312785
0.310208
0.308655
0.307698
0.307102
0.306478
0.305916
1.70142
2.15353
2.64716
3.06007
3.08124
2.60502
2.05511
1.50837
1.08628
0.816085
0.658611
0.565231
0.502735
0.463753
0.438907
0.424973
0.417446
0.415797
0.418512
0.424579
0.433809
0.44954
0.470035
0.505593
0.543411
0.590054
0.658276
0.737437
0.825711
0.909829
0.995856
1.0572
1.07571
1.03787
0.951834
0.83945
0.72162
0.607749
0.512909
0.444137
0.401135
0.377123
0.363569
0.355688
0.350851
0.349178
0.349981
0.355168
0.365685
0.387327
0.423334
0.485498
0.58174
0.727309
0.936625
1.2126
1.5574
1.95199
2.37111
2.80268
3.2748
3.8038
4.3626
4.85565
5.13672
5.18433
4.98669
4.59775
4.10163
3.59385
3.19776
2.51009
1.69124
1.08146
0.692322
0.4851
0.385413
0.34184
0.323874
0.316393
0.312758
0.310577
0.309075
0.308094
0.30719
0.306436
2.91086
4.25373
6.86098
9.17314
7.75591
5.37006
3.61489
2.44533
1.65105
1.13453
0.841337
0.685485
0.590662
0.531598
0.494515
0.473919
0.462986
0.460957
0.46625
0.477377
0.493348
0.519433
0.552677
0.607047
0.665816
0.740876
0.855509
0.984646
1.1151
1.24326
1.38283
1.48152
1.51146
1.44913
1.30446
1.11958
0.934445
0.763596
0.623241
0.518684
0.448944
0.407527
0.383991
0.371223
0.36463
0.363479
0.366395
0.377142
0.397697
0.438042
0.503264
0.610067
0.769609
1.00348
1.32944
1.75822
2.29364
2.864
3.48511
4.36835
5.40452
6.67136
8.32022
10.205
11.4507
12.087
12.433
11.7145
9.00958
6.42066
5.10111
4.05261
2.74434
1.72424
1.03195
0.653004
0.459934
0.373728
0.336849
0.321462
0.315238
0.312374
0.310697
0.309577
0.308637
0.308003
4.76672
8.16365
16.0829
22.7782
24.4958
18.02
8.88092
4.43766
2.68767
1.7372
1.16942
0.881295
0.726362
0.63379
0.577596
0.54708
0.531717
0.530285
0.541253
0.561636
0.588742
0.630695
0.682796
0.764538
0.858739
0.97836
1.17406
1.37896
1.5642
1.76113
2.00793
2.18833
2.24554
2.13924
1.88451
1.57069
1.26383
0.992513
0.781316
0.631307
0.528689
0.462974
0.423242
0.401224
0.39073
0.389976
0.396728
0.417062
0.454744
0.525699
0.636953
0.81147
1.06625
1.42655
1.91719
2.529
3.10791
3.67098
4.39147
6.73896
8.3501
8.94905
9.65121
10.4707
11.5551
12.9689
14.552
15.9362
16.712
16.6706
11.5981
6.73526
4.42897
2.81361
1.6382
0.978593
0.604692
0.437029
0.365989
0.33458
0.32089
0.315119
0.312483
0.311054
0.310292
0.31024
7.14497
25.356
54.6093
115.977
77.6241
49.1627
32.1911
13.1022
4.8791
2.79651
1.7675
1.21073
0.938908
0.786602
0.701139
0.657241
0.635943
0.634732
0.65489
0.69111
0.73583
0.797576
0.874811
0.994367
1.14112
1.32299
1.65257
1.97422
2.26053
2.60159
3.08223
3.4418
3.5471
3.30477
2.82923
2.29772
1.78927
1.34882
1.00897
0.782775
0.638721
0.545288
0.485758
0.451473
0.435237
0.434976
0.447399
0.482128
0.546141
0.663189
0.843294
1.11552
1.50001
2.03187
2.68429
3.23897
3.65528
5.42897
6.37931
7.34031
7.80733
8.37069
9.11873
10.0825
11.2973
12.9161
14.6675
16.0429
17.0764
19.6826
23.0621
19.2805
8.13872
4.55611
2.65323
1.60387
0.882591
0.552351
0.418026
0.361399
0.33489
0.322717
0.31744
0.315052
0.314361
0.315529
16.2794
24.3772
30.6972
27.4015
29.8793
73.8649
59.3139
46.359
16.8909
5.10237
2.80228
1.78593
1.27773
1.01164
0.872363
0.808714
0.785238
0.786516
0.82131
0.883187
0.954032
1.03464
1.14484
1.32625
1.56733
1.88069
2.46256
3.05841
3.83002
5.17846
7.27284
8.58346
8.38005
6.48617
4.60711
3.44443
2.6111
1.91501
1.37368
1.00552
0.787148
0.656554
0.574289
0.525813
0.503089
0.50436
0.525878
0.58249
0.687098
0.873174
1.15282
1.56238
2.12272
2.81106
3.26068
4.18125
5.38969
6.21827
7.04456
7.80983
8.83379
9.90429
10.9829
11.9425
12.605
13.876
15.9625
17.5836
17.9944
21.6932
28.3168
29.9686
23.9557
9.10307
4.30985
2.79836
1.42908
0.769284
0.508383
0.406524
0.361889
0.339887
0.329369
0.32476
0.324001
0.327508
16.0959
17.2758
12.6857
9.722
10.0405
14.5056
32.5914
106.148
64.0035
22.5596
4.97873
2.79356
1.84966
1.36739
1.13026
1.0231
0.985701
0.989192
1.05136
1.15716
1.27068
1.37714
1.54994
1.85208
2.25078
2.74891
3.61066
4.73825
6.28595
9.63668
15.0123
16.9445
18.6189
19.6242
13.2474
6.21089
3.87534
2.77013
1.95313
1.36669
1.0077
0.808846
0.694396
0.629406
0.601123
0.606979
0.644767
0.736334
0.902806
1.19102
1.6157
2.23236
2.99808
3.47432
7.59255
6.6012
6.25407
7.56907
8.92617
10.0608
10.9991
11.4873
11.7537
11.9122
12.0945
12.6614
14.0462
15.8011
16.8833
22.1177
39.6881
53.3221
34.4412
25.9464
8.41224
4.99707
2.50691
1.18548
0.674184
0.479461
0.403712
0.368861
0.351399
0.343564
0.342801
0.350621
12.6009
8.3638
4.89584
3.60213
3.86811
5.3396
8.64642
21.0527
103.944
77.4653
19.8593
5.17573
2.8599
1.96712
1.59041
1.36233
1.29583
1.30047
1.3904
1.56505
1.75717
1.91691
2.18176
2.59173
3.14188
3.93098
4.88786
7.71456
10.4568
13.2048
18.1298
22.776
28.4208
29.9919
29.5235
21.2463
7.45931
4.00889
2.80417
1.9519
1.3718
1.04446
0.868883
0.77838
0.74453
0.760645
0.827221
0.97449
1.23379
1.67441
2.33308
3.23583
3.97547
12.7084
8.36775
6.47795
7.77272
8.92435
9.29279
8.83362
7.70698
6.56395
5.62991
5.04347
5.04763
5.44593
6.20004
7.51518
9.56209
12.809
25.2151
95.0848
54.2456
37.5681
23.9709
9.70445
4.54238
1.96507
0.98587
0.611921
0.47034
0.414051
0.388129
0.376513
0.376215
0.391909
7.139
3.78884
2.29013
1.82705
1.85579
2.3367
3.24872
5.72124
15.7061
75.2428
103.617
14.1037
5.78971
3.12286
3.45843
2.0855
1.85607
1.85494
2.00039
2.27489
2.55766
2.72427
3.08432
3.70588
4.20105
7.81874
10.2886
13.6682
17.9089
26.0135
48.9658
68.1988
114.446
71.3736
46.0195
33.924
27.6407
7.28535
3.94781
2.79998
1.96378
1.43665
1.15152
1.01179
0.966674
1.00065
1.11309
1.34422
1.74549
2.43836
3.43968
4.6671
39.1555
15.4807
6.94813
7.35147
7.90757
7.48589
6.06117
4.39267
3.3503
3.01134
2.92955
2.96103
3.07086
3.23632
3.49138
3.9244
4.75118
6.33678
8.79796
16.3977
61.2544
55.1237
35.997
25.6752
8.41448
3.33176
1.55044
0.855875
0.587525
0.485109
0.445065
0.4295
0.431599
0.461144
3.683
2.04769
1.4608
1.28716
1.29412
1.43965
1.73542
2.30125
4.11543
13.8509
113.903
19.476
15.3895
9.42966
36.2729
6.57165
3.1051
2.88619
3.05402
3.44531
4.05399
4.19313
4.62923
7.89496
8.56293
10.0992
12.0861
14.5565
16.114
16.4379
14.9357
12.2919
11.9837
24.3098
51.2784
51.0181
46.4195
30.6831
6.29736
3.87837
2.82774
2.05156
1.60328
1.3869
1.32145
1.38013
1.55954
1.92479
2.57377
3.61416
5.05525
34.0202
59.0708
9.18042
6.95922
6.99338
6.08632
4.36953
3.15834
2.60442
2.36625
2.27781
2.24464
2.23373
2.24548
2.28865
2.38766
2.57808
2.91581
3.68111
4.69284
6.46938
14.8929
52.5536
55.4666
30.9369
23.0944
5.555
2.50286
1.29812
0.79962
0.607774
0.536062
0.513209
0.520384
0.572416
2.09795
1.34397
1.07084
0.97959
0.991155
1.09329
1.28021
1.57802
2.12826
3.18363
5.34639
10.0584
16.8188
110.563
508.094
179.652
15.419
6.74467
6.00253
6.87655
44.9984
16.18
8.40204
7.40168
8.75691
10.0636
10.8207
10.6671
8.65413
6.40854
5.51919
5.04574
5.65378
6.58624
10.8066
18.8064
53.9407
69.3426
32.6283
5.67363
3.95449
2.9772
2.29891
1.96505
1.87234
1.97258
2.27244
2.87428
3.83395
5.26075
24.6116
62.3324
25.8286
7.18775
6.3464
5.19557
3.57197
2.61182
2.12517
1.83742
1.6605
1.56035
1.50314
1.47366
1.47897
1.50797
1.57951
1.71477
1.94489
2.42106
3.02326
3.81412
5.54216
12.0858
23.7361
35.4035
38.8107
10.6389
3.89926
2.06708
1.18764
0.825903
0.691692
0.651416
0.665879
0.753431
1.34597
0.974438
0.823292
0.772355
0.787852
0.863168
0.991615
1.18285
1.51243
2.1198
3.34972
6.07482
11.7608
18.9302
32.7132
61.8819
187.419
122.11
99.1297
85.5827
21.1878
8.20355
6.71674
6.89437
7.45905
7.6308
6.92841
5.85138
5.03592
4.34741
3.96783
3.67259
3.76123
4.20003
5.12662
7.49732
16.1723
66.6476
108.438
16.3659
5.66269
4.27487
3.40698
2.9032
2.76357
2.93633
3.42904
4.25284
5.37192
22.2601
60.778
36.6223
10.0256
5.93096
4.70373
3.10402
2.24331
1.72529
1.40301
1.18951
1.05998
0.992975
0.959954
0.947884
0.957372
0.981035
1.0311
1.12028
1.27231
1.57999
1.98406
2.45164
3.19466
5.00333
8.68623
20.0236
46.9068
47.9103
6.11206
3.22939
1.88012
1.22941
0.975573
0.896616
0.915496
1.05504
0.954318
0.752476
0.664039
0.635361
0.650182
0.707012
0.799175
0.928317
1.13205
1.47604
2.1071
3.41692
5.92886
10.0076
16.3614
28.0938
52.5309
65.2756
34.6846
21.5394
7.12315
5.7954
5.41044
5.28586
4.86804
4.62104
4.57611
4.42919
3.88572
3.25937
2.97376
2.75924
2.82234
3.05334
3.5447
4.45663
6.67843
14.9265
95.7042
31.9809
14.2755
6.15118
5.00512
4.42909
4.25866
4.41305
4.89933
5.49499
25.9732
69.1864
40.237
14.4767
6.20416
4.3888
2.83256
1.94851
1.45499
1.10811
0.902429
0.778465
0.710335
0.679104
0.666131
0.663211
0.671522
0.687167
0.718434
0.772655
0.864757
1.0392
1.28355
1.58965
2.06505
2.92167
4.70366
10.0404
40.8204
65.4747
14.639
4.82608
2.98042
1.921
1.45996
1.31159
1.3339
1.56193
0.728521
0.609703
0.555302
0.538897
0.552257
0.595867
0.664866
0.759796
0.898758
1.11048
1.44932
2.06204
3.10273
4.6657
6.47332
7.8359
8.25142
8.22175
7.48652
6.11575
4.80298
4.24301
3.76709
3.33676
3.20122
3.38759
3.64914
3.43518
2.91691
2.48679
2.30974
2.17761
2.21278
2.36053
2.6829
3.22359
4.34876
6.67698
12.256
27.1989
55.1084
18.2645
7.12599
5.82666
5.41177
5.30011
6.04108
34.2012
72.5368
45.0693
17.4622
7.27831
4.19351
2.69622
1.75009
1.24451
0.94017
0.733399
0.622932
0.561102
0.528175
0.514295
0.509894
0.509042
0.514292
0.523523
0.542379
0.574769
0.62941
0.724448
0.864917
1.05994
1.36276
1.86275
2.80751
5.75894
13.1242
51.7291
48.2592
8.21668
4.57593
3.09013
2.30545
2.03114
2.07206
2.47683
0.585749
0.512409
0.478523
0.469115
0.480435
0.513228
0.565356
0.637704
0.740748
0.887445
1.0967
1.42121
1.87985
2.40768
2.87205
3.21143
3.53818
3.81937
3.71186
3.50145
3.15631
2.68448
2.39164
2.26921
2.31442
2.59255
2.8076
2.62297
2.31861
2.03635
1.89311
1.77123
1.77268
1.85638
2.07663
2.44769
3.19374
4.55146
7.52988
16.5465
60.5058
166.107
31.8111
11.5462
9.69837
22.8636
55.6383
71.399
47.1765
19.0814
8.49667
4.32362
2.6424
1.64968
1.10909
0.814547
0.644712
0.533611
0.477092
0.446214
0.429283
0.422376
0.420798
0.42032
0.423192
0.428373
0.439459
0.458509
0.490488
0.543236
0.623935
0.744278
0.93242
1.22073
1.76058
3.2452
5.69529
20.8001
161.16
21.2729
7.23286
4.92703
3.80958
3.35501
3.39706
3.95854
0.491996
0.446404
0.425454
0.420314
0.429185
0.453251
0.491784
0.546669
0.624619
0.733066
0.879035
1.08246
1.3336
1.59913
1.8522
2.06247
2.23326
2.40103
2.3403
2.20619
1.98653
1.73132
1.59503
1.58353
1.69445
1.97983
2.20566
2.11612
1.91125
1.69081
1.54773
1.41462
1.39022
1.4345
1.59117
1.84392
2.35998
3.25793
4.9049
8.1838
15.788
30.7106
75.8616
268.664
79.7756
88.6395
64.8271
42.7028
19.3019
9.0988
4.65499
2.65276
1.62614
1.04048
0.737079
0.57553
0.486566
0.428177
0.398383
0.382455
0.373283
0.369595
0.369119
0.368921
0.37045
0.373326
0.379543
0.39024
0.408227
0.437437
0.482985
0.554151
0.668625
0.837615
1.15509
1.89036
3.32003
6.66675
15.5751
28.9514
19.3167
8.16844
6.03659
5.40284
5.3174
5.50279
0.430036
0.40165
0.388524
0.385585
0.392192
0.409409
0.437277
0.47784
0.536118
0.616908
0.723428
0.863882
1.0254
1.1811
1.32376
1.43468
1.50264
1.56788
1.54649
1.43887
1.30316
1.1756
1.1142
1.14732
1.28812
1.55606
1.77165
1.71839
1.55759
1.37521
1.24289
1.11155
1.06841
1.08229
1.1864
1.36387
1.72744
2.32222
3.38686
5.31641
9.21297
17.7629
34.4468
71.824
54.1352
45.7809
30.7296
17.0411
8.96485
4.80108
2.72544
1.61622
1.02214
0.696734
0.534531
0.44839
0.401925
0.371416
0.3558
0.347379
0.342667
0.34098
0.341047
0.34094
0.341728
0.343211
0.346407
0.351978
0.361415
0.37692
0.401487
0.441208
0.506968
0.60453
0.789744
1.20288
2.14392
4.36884
10.2288
28.491
52.2742
35.6727
10.1229
6.46739
6.63785
15.7672
0.388984
0.371533
0.363453
0.361843
0.366514
0.378343
0.397869
0.426937
0.469392
0.528618
0.606383
0.70526
0.813321
0.911283
0.990792
1.04343
1.06276
1.08163
1.07316
0.99279
0.911808
0.849819
0.825571
0.869169
1.00054
1.22298
1.41098
1.37511
1.25145
1.10949
1.00043
0.884475
0.836445
0.831097
0.889628
0.998872
1.23907
1.64233
2.34423
3.49385
5.48424
8.60868
12.7067
16.8097
19.326
17.3525
12.5387
7.97065
4.64254
2.7026
1.62209
1.01368
0.683882
0.510934
0.426217
0.380921
0.357225
0.341958
0.33389
0.329817
0.32743
0.326643
0.326957
0.326663
0.326907
0.327547
0.329068
0.331644
0.33623
0.343953
0.35643
0.377324
0.412606
0.465832
0.57022
0.812357
1.39035
2.81323
6.42734
18.136
56.4968
238.227
399.586
77.3106
67.4019
89.8632
0.362365
0.351916
0.346916
0.34592
0.349093
0.357104
0.370382
0.390575
0.42045
0.462749
0.518605
0.588694
0.661899
0.723253
0.768099
0.794061
0.794742
0.792715
0.782392
0.726811
0.680297
0.649166
0.641019
0.684918
0.795072
0.971501
1.1212
1.0894
0.996733
0.893627
0.807998
0.711546
0.669653
0.658107
0.691165
0.754015
0.901664
1.15163
1.60988
2.34523
3.52257
5.2162
7.0977
8.63355
9.20359
8.16749
6.16694
4.13546
2.5631
1.56451
1.00428
0.67783
0.50189
0.413633
0.370655
0.347442
0.335627
0.328492
0.3241
0.321473
0.320131
0.319216
0.319324
0.318961
0.318755
0.318932
0.319628
0.32094
0.323155
0.326839
0.332831
0.343285
0.361301
0.38866
0.443299
0.575617
0.905809
1.74816
3.89137
9.26209
20.8904
40.9305
95.4632
227.092
100.318
58.6431
0.345202
0.339032
0.335854
0.335247
0.33734
0.342681
0.35168
0.365393
0.385978
0.415402
0.454483
0.503498
0.55385
0.593511
0.618738
0.629354
0.623203
0.614407
0.602351
0.565411
0.538577
0.52228
0.521297
0.557042
0.642575
0.777476
0.889243
0.864618
0.799656
0.725032
0.657932
0.583348
0.550638
0.538484
0.557277
0.592191
0.678486
0.821887
1.09708
1.55004
2.25968
3.19377
4.13946
4.81967
4.8653
4.24616
3.26801
2.27392
1.46663
0.952943
0.668243
0.498909
0.409541
0.365608
0.344081
0.33197
0.32535
0.320839
0.317988
0.315586
0.314606
0.31387
0.313779
0.313762
0.313542
0.313648
0.314034
0.314725
0.315817
0.317631
0.320444
0.325625
0.334585
0.348061
0.374986
0.441924
0.615061
1.07381
2.27093
5.24123
11.5491
21.9493
35.4338
47.2567
30.4609
22.2383
0.334437
0.330927
0.328772
0.328333
0.329678
0.333218
0.339218
0.348436
0.362322
0.382429
0.409187
0.442789
0.477505
0.503671
0.518158
0.521249
0.51124
0.501212
0.489923
0.465421
0.449922
0.441333
0.443702
0.46912
0.528752
0.625092
0.707725
0.691679
0.645339
0.592437
0.54582
0.493372
0.47
0.459692
0.470114
0.488821
0.538353
0.616023