/*--------------------------------*- C++ -*----------------------------------*\
| =========                 |                                                 |
| \\      /  F ield         | OpenFOAM: The Open Source CFD Toolbox           |
|  \\    /   O peration     | Version:  v1912                                 |
|   \\  /    A nd           | Website:  www.openfoam.com                      |
|    \\/     M anipulation  |                                                 |
\*---------------------------------------------------------------------------*/
FoamFile
{
    version     2.0;
    format      ascii;
    class       volScalarField;
    location    "30";
    object      alpha.water;
}
// * * * * * * * * * * * * * * * * * * * * * * * * * * * * * * * * * * * * * //

dimensions      [0 0 0 0 0 0 0];


internalField   nonuniform List<scalar> 
14268
(
1
1
1
1
1
1
1
1
1
1
1
1
1
1
1
1
1
1
1
1
1
1
1
1
1
1
1
1
1
1
1
1
1
1
1
1
1
1
1
1
1
1
1
1
1
1
1
1
1
1
1
1
1
1
1
1
1
1
1
1
1
1
1
1
1
1
1
1
1
1
1
1
1
1
1
1
1
1
1
1
1
1
1
1
1
1
1
1
1
1
1
1
1
1
1
1
1
1
1
1
1
1
1
1
1
1
1
1
1
1
1
1
1
1
1
1
1
1
1
1
1
1
1
1
1
1
1
1
1
1
1
1
1
1
1
1
1
1
1
1
1
1
1
1
1
1
1
1
1
1
1
1
1
1
1
1
1
1
1
1
1
1
1
1
1
1
1
1
1
1
1
1
1
1
1
1
1
1
1
1
1
1
1
1
1
1
1
1
1
1
1
1
1
1
1
1
1
1
1
1
1
1
1
1
1
1
1
1
1
1
1
1
1
1
1
1
1
1
1
1
1
1
1
1
1
1
1
1
1
1
1
1
1
1
1
1
1
1
1
1
1
1
1
1
1
1
1
1
1
1
1
1
1
1
1
1
1
1
1
1
1
1
1
1
1
1
1
1
1
1
1
1
1
1
1
1
1
1
1
1
1
1
1
1
1
1
1
1
1
1
1
1
1
1
1
1
1
1
1
1
1
1
1
1
1
1
1
1
1
1
1
1
1
1
1
1
1
1
1
1
1
1
1
1
1
1
1
1
1
1
1
1
1
1
1
1
1
1
1
1
1
1
1
1
1
1
1
1
1
1
1
1
1
1
1
1
1
1
1
1
1
1
1
1
1
1
1
1
1
1
1
1
1
1
1
1
1
1
1
1
1
1
1
1
1
1
1
1
1
1
1
1
1
1
1
1
1
1
1
1
1
1
1
1
1
1
1
1
1
1
1
1
1
1
1
1
1
1
1
1
1
1
1
1
1
1
1
1
1
1
1
1
1
1
1
1
1
1
1
1
1
1
1
1
1
1
1
1
1
1
1
1
1
1
1
1
1
1
1
1
1
1
1
1
1
1
1
1
1
1
1
1
1
1
1
1
1
1
1
1
1
1
1
1
1
1
1
1
1
1
1
1
1
1
1
1
1
1
1
1
1
1
1
1
1
1
1
1
1
1
1
1
1
1
1
1
1
1
1
1
1
1
1
1
1
1
1
1
1
1
1
1
1
1
1
1
1
1
1
1
1
1
1
1
1
1
1
1
1
1
1
1
1
1
1
1
1
1
1
1
1
1
1
1
1
1
1
1
1
1
1
1
1
1
1
1
1
1
1
1
1
1
1
1
1
1
1
1
1
1
1
1
1
1
1
1
1
1
1
1
1
1
1
1
1
1
1
1
1
1
1
1
1
1
1
1
1
1
1
1
1
1
1
1
1
1
1
1
1
1
1
1
1
1
1
1
1
1
1
1
1
1
1
1
1
1
1
1
1
1
1
1
1
1
1
1
1
1
1
1
1
1
1
1
1
1
1
1
1
1
1
1
1
1
1
1
1
1
1
1
1
1
1
1
1
1
1
1
1
1
1
1
1
1
1
1
1
1
1
1
1
1
1
1
1
1
1
1
1
1
1
1
1
1
1
1
1
1
1
1
1
1
1
1
1
1
1
1
1
1
1
1
1
1
1
1
1
1
1
1
1
1
1
1
1
1
1
1
1
1
1
1
1
1
1
1
1
1
1
1
1
1
1
1
1
1
1
1
1
1
1
1
1
1
1
1
1
1
1
1
1
1
1
1
1
1
1
1
1
1
1
1
1
1
1
1
1
1
1
1
1
1
1
1
1
1
1
1
1
1
1
1
1
1
1
1
1
1
1
1
1
1
1
1
1
1
1
1
1
1
1
1
1
1
1
1
1
1
1
1
1
1
1
1
1
1
1
1
1
1
1
1
1
1
1
1
1
1
1
1
1
1
1
1
1
1
1
1
1
1
1
1
1
1
1
1
1
1
1
1
1
1
1
1
1
1
1
1
1
1
1
1
1
1
1
1
1
1
1
1
1
1
1
1
1
1
1
1
1
1
1
1
1
1
1
1
1
1
1
1
1
1
1
1
1
1
1
1
1
1
1
1
1
1
1
1
1
1
1
1
1
1
1
1
1
1
1
1
1
1
1
1
1
1
1
1
1
1
1
1
1
1
1
1
1
1
1
1
1
1
1
1
1
1
1
1
1
1
1
1
1
1
1
1
1
1
1
1
1
1
1
1
1
1
1
1
1
1
1
1
1
1
1
1
1
1
1
1
1
1
1
1
1
1
1
1
1
1
1
1
1
1
1
1
1
1
1
1
1
1
1
1
1
1
1
1
1
1
1
1
1
1
1
1
1
1
1
1
1
1
1
1
1
1
1
1
1
1
1
1
1
1
1
1
1
1
1
1
1
1
1
1
1
1
1
1
1
1
1
1
1
1
1
1
1
1
1
1
1
1
1
0.999997
0.999747
0.999294
0.999269
0.999416
0.999432
0.999242
0.999088
0.999243
0.959171
0.956715
0.951465
0.944184
0.9362
0.929101
0.924241
0.92245
0.923776
0.927235
0.931349
0.934709
0.936444
0.936526
0.935863
0.935881
0.937709
0.941109
0.944498
0.946241
0.945657
0.943869
0.943636
0.947483
0.954788
0.962481
0.968241
0.972189
0.97565
0.97896
0.980991
0.980613
0.978017
0.972879
0.966718
0.961478
0.955335
0.946661
0.940656
0.938753
0.936095
0.92894
0.925976
0.940708
0.526397
0.517663
0.499054
0.474189
0.448252
0.426373
0.412089
0.407165
0.411078
0.42111
0.433705
0.444655
0.450587
0.45094
0.448791
0.449057
0.455744
0.468603
0.482373
0.489978
0.487988
0.481401
0.480602
0.496017
0.52886
0.569594
0.605304
0.633391
0.662562
0.697281
0.725944
0.731125
0.709216
0.665773
0.629199
0.624751
0.636474
0.630766
0.601918
0.57047
0.548078
0.515821
0.473015
0.421399
0.0623528
0.058566
0.0513763
0.0432731
0.036297
0.0313669
0.0285442
0.0276788
0.0288384
0.0318695
0.0358177
0.0393527
0.041232
0.041202
0.0403803
0.0404276
0.04281
0.0475828
0.0529497
0.0559948
0.055243
0.0525373
0.0519894
0.0574645
0.0702248
0.087066
0.102439
0.114834
0.129237
0.149103
0.166481
0.165282
0.132003
0.0942537
0.0722953
0.0673213
0.0726893
0.078797
0.0767877
0.0740125
0.0635848
0.0499862
0.0331055
0.0267272
-3.70036e-124
-1.76515e-125
-2.53541e-127
-2.40832e-129
-1.39036e-131
-4.11048e-134
-8.02128e-137
-1.01685e-139
-1.12836e-142
2.92345e-144
-3.1378e-146
-1.09335e-151
-1.15689e-154
-1.51419e-157
-2.77941e-165
-4.74206e-163
-1.00234e-165
4.35099e-167
-1.15121e-168
-2.30339e-173
-5.35216e-174
-1.1674e-174
-1.9727e-176
-1.48122e-178
-8.96719e-181
6.33102e-182
-1.97703e-183
4.30816e-185
-8.05876e-187
1.34276e-188
-5.74249e-193
-1.42913e-190
-7.01513e-191
-6.70286e-192
-2.5378e-193
-5.98118e-195
-1.91566e-196
-1.21106e-154
-2.13604e-154
1.42493e-78
-9.10806e-79
-1.23321e-78
-8.5546e-78
-2.40906e-48
-2.49931e-121
-1.85403e-123
-1.34179e-125
-8.31332e-128
-3.28924e-130
-6.82194e-133
-1.09446e-135
-1.45694e-138
-1.69764e-141
-1.82212e-144
-2.1991e-147
-3.37349e-150
-1.40739e-152
-6.90013e-155
-2.95722e-157
-9.59645e-160
-2.64004e-162
-1.15755e-164
-8.44438e-167
-8.41947e-169
-9.55421e-171
-3.01322e-172
-4.43372e-174
-4.18553e-176
-4.12955e-178
-6.12157e-180
-1.18909e-181
-2.6376e-183
-6.45153e-185
-1.81536e-186
-6.17818e-188
-1.81096e-188
-2.11814e-189
-1.24107e-190
-4.73502e-192
-1.45228e-193
-5.29116e-195
-5.17424e-155
-5.97535e-155
-7.41129e-148
-2.46224e-79
-2.63672e-79
-1.35252e-78
-3.58285e-59
-2.11848e-120
-1.7475e-122
-1.30177e-124
-7.90803e-127
-3.33928e-129
-7.34484e-132
-9.2541e-135
-1.20054e-137
-1.53905e-140
-1.89749e-143
-6.65203e-146
-3.38813e-148
-2.1253e-150
-1.39335e-152
-8.79756e-155
-5.28642e-157
-3.35235e-159
-2.60042e-161
-2.53699e-163
-2.89861e-165
-3.4192e-167
-3.77773e-169
-3.70395e-171
-3.55026e-173
-4.12508e-175
-6.21855e-177
-1.13786e-178
-2.32665e-180
-5.22503e-182
-1.33828e-183
-4.01753e-185
-1.34312e-186
-4.5875e-188
-1.46493e-189
-4.29895e-191
-1.28083e-192
-4.42844e-194
-1.06827e-155
-1.10151e-155
-3.15156e-148
-3.24804e-80
-4.70555e-80
-2.83184e-80
-1.11383e-80
-4.64605e-121
-3.74644e-123
-2.76753e-125
-1.70375e-127
-7.66071e-130
-2.03824e-132
-2.69048e-135
-3.38719e-138
-4.41511e-141
-5.99993e-144
-1.77995e-146
-8.98571e-149
-5.77302e-151
-4.02037e-153
-2.75914e-155
-1.83682e-157
-1.27116e-159
-1.03338e-161
-1.02497e-163
-1.18136e-165
-1.45746e-167
-1.73832e-169
-1.94143e-171
-2.15321e-173
-2.76995e-175
-4.43568e-177
-8.49189e-179
-1.82589e-180
-4.31786e-182
-1.14254e-183
-3.41415e-185
-1.10212e-186
-3.58934e-188
-1.09325e-189
-3.05868e-191
-8.52615e-193
-2.79236e-194
-1.16316e-156
-1.05326e-156
-4.28705e-149
-2.07828e-81
-3.24726e-81
-1.97807e-81
-7.50267e-82
-6.27436e-122
-4.7555e-124
-3.31385e-126
-1.94155e-128
-8.49353e-131
-2.35666e-133
-3.50548e-136
-4.78585e-139
-6.80206e-142
-1.2642e-144
-5.34701e-147
-3.12106e-149
-2.16585e-151
-1.60597e-153
-1.18375e-155
-8.62169e-158
-6.54359e-160
-5.64197e-162
-5.64561e-164
-6.2771e-166
-7.14902e-168
-7.82674e-170
-8.23112e-172
-9.03576e-174
-1.17051e-175
-1.85658e-177
-3.46649e-179
-7.25086e-181
-1.67183e-182
-4.29325e-184
-1.22e-185
-3.7029e-187
-1.13708e-188
-3.3385e-190
-9.34549e-192
-2.69489e-193
-8.91123e-195
-6.66112e-158
-5.33876e-158
-2.33658e-150
-4.66787e-83
-5.53653e-83
-2.90661e-83
-1.01799e-83
-4.37791e-123
-3.19073e-125
-2.1562e-127
-1.24786e-129
-5.61629e-132
-1.74819e-134
-3.22606e-137
-4.43361e-140
-6.44615e-143
-1.27351e-145
-5.66241e-148
-3.45693e-150
-2.48592e-152
-1.90671e-154
-1.47167e-156
-1.13187e-158
-9.08309e-161
-8.08657e-163
-8.12379e-165
-8.89595e-167
-1.00794e-168
-1.13611e-170
-1.27916e-172
-1.53116e-174
-2.12028e-176
-3.49151e-178
-6.63601e-180
-1.40207e-181
-3.24587e-183
-8.23348e-185
-2.24278e-186
-6.51469e-188
-1.91733e-189
-5.45213e-191
-1.49001e-192
-4.17113e-194
-1.32631e-195
-2.10288e-159
-1.47933e-159
-5.61353e-152
-1.53975e-85
-1.38495e-85
-5.96058e-86
-1.69332e-86
-2.64492e-124
-1.83664e-126
-1.19438e-128
-6.72692e-131
-3.0117e-133
-9.76857e-136
-2.12791e-138
-3.37833e-141
-6.30659e-144
-2.10881e-146
-1.01253e-148
-6.09033e-151
-4.14318e-153
-2.95288e-155
-2.1139e-157
-1.53665e-159
-1.18865e-161
-1.02973e-163
-1.00666e-165
-1.0684e-167
-1.16938e-169
-1.27922e-171
-1.43982e-173
-1.78064e-175
-2.5753e-177
-4.38333e-179
-8.48296e-181
-1.80619e-182
-4.17667e-184
-1.04211e-185
-2.74083e-187
-7.68888e-189
-2.19628e-190
-6.15837e-192
-1.69268e-193
-4.83156e-195
-1.54941e-196
-3.03741e-161
-1.92292e-161
-1.46552e-154
-1.04615e-154
-3.98699e-155
-1.03133e-155
-2.32298e-156
-1.07547e-125
-7.16951e-128
-4.49721e-130
-2.47738e-132
-1.11737e-134
-3.86461e-137
-9.91284e-140
-2.02334e-142
-4.43354e-145
-1.46764e-147
-6.86435e-150
-4.00857e-152
-2.64263e-154
-1.84292e-156
-1.32289e-158
-9.88796e-161
-7.9715e-163
-7.14866e-165
-7.09878e-167
-7.54937e-169
-8.30911e-171
-9.38389e-173
-1.11711e-174
-1.47453e-176
-2.2503e-178
-3.97142e-180
-7.85844e-182
-1.69311e-183
-3.91646e-185
-9.59477e-187
-2.45038e-188
-6.66409e-190
-1.84969e-191
-5.05922e-193
-1.35428e-194
-3.72539e-196
-1.13088e-197
-1.77793e-163
-1.01813e-163
-5.42316e-158
-3.87573e-158
-1.47967e-158
-3.80109e-159
-2.27544e-157
-3.89247e-127
-2.494e-129
-1.51842e-131
-8.23095e-134
-3.73554e-136
-1.34582e-138
-3.80665e-141
-9.27018e-144
-2.46921e-146
-9.02636e-149
-4.3625e-151
-2.55245e-153
-1.66891e-155
-1.15484e-157
-8.27121e-160
-6.2188e-162
-5.06648e-164
-4.58183e-166
-4.57368e-168
-4.89246e-170
-5.44437e-172
-6.25668e-174
-7.6462e-176
-1.0432e-177
-1.64289e-179
-2.96349e-181
-5.92604e-183
-1.2768e-184
-2.91694e-186
-6.92393e-188
-1.71335e-189
-4.47848e-191
-1.19395e-192
-3.16128e-194
-8.25618e-196
-2.225e-197
-6.5536e-199
-1.66112e-166
-9.27031e-167
-2.73532e-167
-5.57191e-168
-8.74401e-169
-1.12029e-169
-1.40015e-157
-1.13648e-128
-7.02499e-131
-4.15149e-133
-2.21346e-135
-1.01181e-137
-3.81955e-140
-1.19647e-142
-3.37306e-145
-1.01599e-147
-3.88935e-150
-1.91711e-152
-1.12843e-154
-7.39995e-157
-5.16872e-159
-3.78434e-161
-2.93666e-163
-2.47197e-165
-2.29256e-167
-2.32046e-169
-2.49355e-171
-2.78429e-173
-3.23881e-175
-4.05645e-177
-5.69956e-179
-9.1969e-181
-1.68284e-182
-3.37549e-184
-7.20052e-186
-1.60052e-187
-3.59498e-189
-8.52493e-191
-2.11274e-192
-5.32741e-194
-1.33623e-195
-3.29307e-197
-8.2948e-199
-2.18242e-200
-6.14627e-202
-1.86072e-203
-5.98633e-205
-2.04817e-206
-7.25378e-208
-7.36429e-194
-7.97363e-158
-3.23303e-130
-1.95913e-132
-1.14618e-134
-6.13923e-137
-2.87974e-139
-1.14973e-141
-3.95836e-144
-1.26876e-146
-4.31273e-149
-1.7637e-151
-8.93023e-154
-5.28767e-156
-3.46069e-158
-2.40703e-160
-1.75196e-162
-1.34888e-164
-1.12248e-166
-1.02328e-168
-1.01382e-170
-1.06619e-172
-1.16943e-174
-1.34478e-176
-1.67834e-178
-2.37085e-180
-3.86057e-182
-7.0937e-184
-1.41232e-185
-2.94004e-187
-6.23038e-189
-1.30284e-190
-2.91699e-192
-6.79362e-194
-1.60264e-195
-3.7815e-197
-8.82864e-199
-2.11614e-200
-5.29252e-202
-1.40088e-203
-3.94636e-205
-1.17468e-206
-3.70616e-208
-1.21455e-209
-5.87196e-194
-4.23474e-158
-9.75375e-132
-5.73033e-134
-3.25883e-136
-1.71037e-138
-7.97671e-141
-3.23593e-143
-1.15828e-145
-3.89547e-148
-1.36907e-150
-5.54985e-153
-2.74121e-155
-1.56978e-157
-9.90458e-160
-6.65529e-162
-4.72416e-164
-3.59779e-166
-2.9974e-168
-2.74613e-170
-2.71979e-172
-2.83521e-174
-3.07386e-176
-3.52429e-178
-4.46356e-180
-6.48748e-182
-1.08715e-183
-2.03035e-185
-4.02431e-187
-8.10826e-189
-1.60201e-190
-3.12076e-192
-6.47759e-194
-1.40331e-195
-3.08082e-197
-6.77329e-199
-1.47171e-200
-3.2667e-202
-7.49655e-204
-1.80336e-205
-4.61136e-207
-1.24244e-208
-3.55357e-210
-1.08779e-211
-4.50791e-194
-2.00418e-158
-2.45024e-133
-1.3808e-135
-7.55582e-138
-3.84481e-140
-1.75978e-142
-7.12901e-145
-2.60169e-147
-9.0793e-150
-3.3077e-152
-1.35611e-154
-6.62624e-157
-3.71818e-159
-2.28864e-161
-1.49905e-163
-1.03805e-165
-7.72331e-168
-6.2948e-170
-5.64574e-172
-5.47471e-174
-5.58914e-176
-5.9517e-178
-6.74633e-180
-8.53168e-182
-1.25205e-183
-2.13036e-185
-4.00729e-187
-7.82049e-189
-1.49401e-190
-2.6487e-192
-4.87461e-194
-9.38829e-196
-1.88054e-197
-3.82792e-199
-7.8597e-201
-1.60508e-202
-3.3643e-204
-7.3557e-206
-1.68935e-207
-4.14724e-209
-1.0832e-210
-3.03294e-212
-9.18066e-214
-3.2427e-194
-8.79271e-159
-4.51283e-135
-2.4227e-137
-1.26688e-139
-6.20996e-142
-2.77163e-144
-1.11285e-146
-4.08922e-149
-1.44711e-151
-5.31565e-154
-2.16063e-156
-1.01343e-158
-5.48294e-161
-3.24696e-163
-2.04985e-165
-1.3804e-167
-1.0139e-169
-8.26525e-172
-7.44419e-174
-7.20899e-176
-7.28272e-178
-7.63697e-180
-8.56352e-182
-1.0861e-183
-1.61997e-185
-2.80851e-187
-5.30419e-189
-1.00555e-190
-1.76311e-192
-2.77718e-194
-4.73561e-196
-8.50876e-198
-1.58179e-199
-2.98237e-201
-5.70472e-203
-1.09331e-204
-2.15868e-206
-4.46444e-208
-9.75878e-210
-2.31209e-211
-5.89402e-213
-1.6161e-214
-4.79578e-216
-2.23562e-194
-3.32633e-159
-6.41968e-137
-3.30248e-139
-1.65951e-141
-7.87622e-144
-3.44359e-146
-1.37483e-148
-5.1027e-151
-1.84491e-153
-6.92128e-156
-2.84353e-158
-1.31113e-160
-6.87789e-163
-3.94967e-165
-2.42768e-167
-1.598e-169
-1.14742e-171
-9.11408e-174
-7.96978e-176
-7.47686e-178
-7.30646e-180
-7.41072e-182
-8.0617e-184
-1.00021e-185
-1.47891e-187
-2.55962e-189
-4.75423e-191
-8.48775e-193
-1.28643e-194
-1.9117e-196
-3.01169e-198
-5.0294e-200
-8.82431e-202
-1.58959e-203
-2.94741e-205
-5.57423e-207
-1.10754e-208
-2.36816e-210
-5.44228e-212
-1.36208e-213
-3.64624e-215
-1.0331e-216
-3.10663e-218
-1.43142e-194
-1.14302e-159
-7.15022e-139
-3.51828e-141
-1.69644e-143
-7.77791e-146
-3.31831e-148
-1.30915e-150
-4.85866e-153
-1.76741e-155
-6.65659e-158
-2.72091e-160
-1.23359e-162
-6.19863e-165
-3.41728e-167
-2.03366e-169
-1.30412e-171
-9.15347e-174
-7.11151e-176
-6.06087e-178
-5.50198e-180
-5.16199e-182
-5.00679e-184
-5.24296e-186
-6.36801e-188
-9.33963e-190
-1.59642e-191
-2.83484e-193
-4.50684e-195
-5.74463e-197
-8.0957e-199
-1.23326e-200
-1.99301e-202
-3.40881e-204
-6.11077e-206
-1.16246e-207
-2.31848e-209
-4.90863e-211
-1.11306e-212
-2.66318e-214
-6.78764e-216
-1.81105e-217
-5.00169e-219
-1.44937e-220
-8.67387e-195
-3.23915e-160
-6.72816e-141
-3.17973e-143
-1.47885e-145
-6.58437e-148
-2.75627e-150
-1.08042e-152
-4.03188e-155
-1.48624e-157
-5.67183e-160
-2.33317e-162
-1.05643e-164
-5.27382e-167
-2.8737e-169
-1.68768e-171
-1.05843e-173
-7.13755e-176
-5.27737e-178
-4.24643e-180
-3.63237e-182
-3.22609e-184
-2.99644e-186
-3.04025e-188
-3.55667e-190
-4.91863e-192
-7.73276e-194
-1.21165e-195
-1.54542e-197
-2.04804e-199
-2.95048e-201
-4.66418e-203
-8.05662e-205
-1.50939e-206
-2.98241e-208
-6.19206e-210
-1.31909e-211
-2.8964e-213
-6.6687e-215
-1.59412e-216
-4.00207e-218
-1.04258e-219
-2.79037e-221
-7.74645e-223
-4.84855e-195
-8.01058e-161
-5.34228e-143
-2.42009e-145
-1.08426e-147
-4.68117e-150
-1.91668e-152
-7.42658e-155
-2.7666e-157
-1.0241e-159
-3.92656e-162
-1.61641e-164
-7.28442e-167
-3.60178e-169
-1.93962e-171
-1.12627e-173
-6.99655e-176
-4.63576e-178
-3.28761e-180
-2.52622e-182
-2.0654e-184
-1.78226e-186
-1.64303e-188
-1.64222e-190
-1.82716e-192
-2.29359e-194
-3.11114e-196
-3.94219e-198
-5.02041e-200
-7.21656e-202
-1.15127e-203
-1.99701e-205
-3.68109e-207
-7.13875e-209
-1.42332e-210
-2.93022e-212
-6.13927e-214
-1.31553e-215
-2.94419e-217
-6.80588e-219
-1.64131e-220
-4.09013e-222
-1.0398e-223
-2.74198e-225
-2.52715e-195
-1.50942e-161
-3.88582e-145
-1.70193e-147
-7.40522e-150
-3.13072e-152
-1.2688e-154
-4.92435e-157
-1.85707e-159
-7.00223e-162
-2.73358e-164
-1.13899e-166
-5.15427e-169
-2.54177e-171
-1.35942e-173
-7.82147e-176
-4.81007e-178
-3.15299e-180
-2.20531e-182
-1.6494e-184
-1.32003e-186
-1.12866e-188
-1.02808e-190
-9.96537e-193
-1.03025e-194
-1.14979e-196
-1.36983e-198
-1.7771e-200
-2.49691e-202
-3.78053e-204
-6.12316e-206
-1.05465e-207
-1.90764e-209
-3.61522e-211
-7.03483e-213
-1.41306e-214
-2.8954e-216
-6.05182e-218
-1.31938e-219
-2.9666e-221
-6.91855e-223
-1.66148e-224
-4.05415e-226
-1.01451e-227
-1.19885e-195
-2.28058e-162
-2.60506e-147
-1.11139e-149
-4.72184e-152
-1.95642e-154
-7.80908e-157
-3.00163e-159
-1.12623e-161
-4.23333e-164
-1.64532e-166
-6.7975e-169
-3.03535e-171
-1.47127e-173
-7.71507e-176
-4.3487e-178
-2.62119e-180
-1.68578e-182
-1.15765e-184
-8.50409e-187
-6.68473e-189
-5.6146e-191
-5.02626e-193
-4.7919e-195
-4.87558e-197
-5.32163e-199
-6.26281e-201
-7.96831e-203
-1.09452e-204
-1.61637e-206
-2.54685e-208
-4.26085e-210
-7.47189e-212
-1.37196e-213
-2.58628e-215
-5.02503e-217
-9.98655e-219
-2.02251e-220
-4.26174e-222
-9.23915e-224
-2.06767e-225
-4.75189e-227
-1.10553e-228
-2.92779e-230
-5.19632e-196
-2.15421e-163
-1.72755e-149
-7.11349e-152
-2.92236e-154
-1.17652e-156
-4.59434e-159
-1.74087e-161
-6.48302e-164
-2.4288e-166
-9.41158e-169
-3.86536e-171
-1.70873e-173
-8.16953e-176
-4.21569e-178
-2.33667e-180
-1.38538e-182
-8.76782e-185
-5.92487e-187
-4.27971e-189
-3.30535e-191
-2.72669e-193
-2.39837e-195
-2.24845e-197
-2.25049e-199
-2.41496e-201
-2.7899e-203
-3.4773e-205
-4.66894e-207
-6.72902e-209
-1.03315e-210
-1.68295e-212
-2.87059e-214
-5.12647e-216
-9.40391e-218
-1.77663e-219
-3.44143e-221
-6.77846e-223
-1.38591e-224
-2.90741e-226
-6.25026e-228
-1.37384e-229
-3.0436e-231
-2.97472e-231
-2.01554e-196
-1.23765e-164
-1.03203e-151
-4.08387e-154
-1.61622e-156
-6.29465e-159
-2.39124e-161
-8.86938e-164
-3.25044e-166
-1.20204e-168
-4.59909e-171
-1.86112e-173
-8.08157e-176
-3.78543e-178
-1.9108e-180
-1.0356e-182
-6.00547e-185
-3.71955e-187
-2.4607e-189
-1.74044e-191
-1.31626e-193
-1.06336e-195
-9.16334e-198
-8.4202e-200
-8.26357e-202
-8.69158e-204
-9.8283e-206
-1.19674e-207
-1.56608e-209
-2.19545e-211
-3.27099e-213
-5.1621e-215
-8.51506e-217
-1.46856e-218
-2.60135e-220
-4.73507e-222
-8.85824e-224
-1.68463e-225
-3.31159e-227
-6.67226e-229
-1.3751e-230
-2.89509e-232
-6.13737e-234
-2.90801e-231
-6.97085e-197
-1.02854e-166
-5.80067e-154
-2.21119e-156
-8.44964e-159
-3.1911e-161
-1.18205e-163
-4.30062e-166
-1.55402e-168
-5.68439e-171
-2.15218e-173
-8.60267e-176
-3.67916e-178
-1.69279e-180
-8.37796e-183
-4.44829e-185
-2.52684e-187
-1.53343e-189
-9.94101e-192
-6.88815e-194
-5.10112e-196
-4.03436e-198
-3.40379e-200
-3.06331e-202
-2.94416e-204
-3.03051e-206
-3.34902e-208
-3.97812e-210
-5.06809e-212
-6.90589e-214
-9.98649e-216
-1.52861e-217
-2.44385e-219
-4.083e-221
-7.0119e-223
-1.23592e-224
-2.24295e-226
-4.13222e-228
-7.85098e-230
-1.52455e-231
-3.00584e-233
-6.02025e-235
-1.20792e-236
-2.83124e-231
-2.1084e-197
-4.62562e-169
-2.99283e-156
-1.09649e-158
-4.03461e-161
-1.4721e-163
-5.29158e-166
-1.87719e-168
-6.64076e-171
-2.38367e-173
-8.85871e-176
-3.47082e-178
-1.45166e-180
-6.51851e-183
-3.14456e-185
-1.62661e-187
-9.00324e-190
-5.32581e-192
-3.36643e-194
-2.27438e-196
-1.64214e-198
-1.26626e-200
-1.0419e-202
-9.1479e-205
-8.57848e-207
-8.61057e-209
-9.26683e-211
-1.07017e-212
-1.32282e-214
-1.74565e-216
-2.43937e-218
-3.60202e-220
-5.547e-222
-8.9102e-224
-1.47177e-225
-2.49044e-227
-4.34317e-229
-7.69045e-231
-1.39826e-232
-2.59835e-234
-4.90213e-236
-9.39344e-238
-1.80563e-239
-2.68661e-231
-5.55378e-198
-2.05904e-171
-1.45953e-158
-5.15132e-161
-1.82932e-163
-6.46336e-166
-2.25949e-168
-7.83093e-171
-2.71697e-173
-9.58671e-176
-3.50319e-178
-1.34773e-180
-5.52269e-183
-2.42445e-185
-1.14156e-187
-5.75879e-190
-3.10758e-192
-1.79202e-194
-1.10407e-196
-7.26838e-199
-5.11206e-201
-3.83903e-203
-3.07611e-205
-2.6296e-207
-2.40013e-209
-2.34327e-211
-2.44974e-213
-2.74355e-215
-3.28274e-217
-4.18776e-219
-5.65082e-221
-8.05128e-223
-1.19587e-224
-1.85121e-226
-2.95051e-228
-4.81348e-230
-8.0997e-232
-1.38313e-233
-2.42024e-235
-4.31749e-237
-7.77023e-239
-1.41258e-240
-2.56081e-242
-2.4548e-231
-1.26518e-198
-1.02872e-173
-6.61065e-161
-2.24306e-163
-7.66837e-166
-2.61519e-168
-8.85511e-171
-2.98347e-173
-1.00933e-175
-3.47862e-178
-1.2418e-180
-4.66164e-183
-1.8604e-185
-7.94004e-188
-3.63043e-190
-1.77739e-192
-9.30657e-195
-5.20746e-197
-3.11314e-199
-1.98847e-201
-1.35671e-203
-9.88266e-206
-7.68123e-208
-6.36962e-210
-5.63791e-212
-5.33343e-214
-5.39594e-216
-5.83943e-218
-6.73967e-220
-8.27966e-222
-1.07397e-223
-1.46857e-225
-2.09116e-227
-3.09675e-229
-4.72628e-231
-7.37511e-233
-1.1866e-234
-1.93811e-236
-3.23227e-238
-5.49982e-240
-9.44745e-242
-1.6389e-243
-2.84383e-245
-2.15461e-231
-2.55834e-199
-3.66347e-176
-2.83234e-163
-9.25742e-166
-3.05291e-168
-1.00697e-170
-3.30878e-173
-1.08556e-175
-3.58638e-178
-1.20894e-180
-4.22132e-183
-1.54809e-185
-6.024e-188
-2.50197e-190
-1.1115e-192
-5.28153e-195
-2.68242e-197
-1.45532e-199
-8.43263e-202
-5.21816e-204
-3.44764e-206
-2.43088e-208
-1.82808e-210
-1.46619e-212
-1.25472e-214
-1.14671e-216
-1.11948e-218
-1.16738e-220
-1.29635e-222
-1.53036e-224
-1.90576e-226
-2.4998e-228
-3.41425e-230
-4.84433e-232
-7.09565e-234
-1.06217e-235
-1.63916e-237
-2.56791e-239
-4.10094e-241
-6.66408e-243
-1.0888e-244
-1.78844e-246
-2.96687e-248
-1.79513e-231
-4.82369e-200
-1.3302e-178
-1.13459e-165
-3.56434e-168
-1.13104e-170
-3.59737e-173
-1.14302e-175
-3.63666e-178
-1.16785e-180
-3.83162e-183
-1.30224e-185
-4.6436e-188
-1.7542e-190
-7.06182e-193
-3.03695e-195
-1.39578e-197
-6.85315e-200
-3.59327e-202
-2.0116e-204
-1.2022e-206
-7.66799e-209
-5.21758e-211
-3.78552e-213
-2.92789e-215
-2.4147e-217
-2.12487e-219
-1.99496e-221
-1.99801e-223
-2.12767e-225
-2.40483e-227
-2.86348e-229
-3.58571e-231
-4.67295e-233
-6.31644e-235
-8.82043e-237
-1.25782e-238
-1.84726e-240
-2.75566e-242
-4.17995e-244
-6.45692e-246
-1.00332e-247
-1.56696e-249
-2.48041e-251
-1.41411e-231
-8.97819e-201
-4.82712e-181
-4.30992e-168
-1.30289e-170
-3.98284e-173
-1.22286e-175
-3.76068e-178
-1.16117e-180
-3.62644e-183
-1.15839e-185
-3.83287e-188
-1.32922e-190
-4.87544e-193
-1.90229e-195
-7.91707e-198
-3.51727e-200
-1.66789e-202
-8.43991e-205
-4.55688e-207
-2.6249e-209
-1.61272e-211
-1.05635e-213
-7.37379e-216
-5.48472e-218
-4.34752e-220
-3.67385e-222
-3.30853e-224
-3.17421e-226
-3.234e-228
-3.49305e-230
-3.97117e-232
-4.74257e-234
-5.89557e-236
-7.59599e-238
-1.01224e-239
-1.37733e-241
-1.92828e-243
-2.74259e-245
-3.96138e-247
-5.81312e-249
-8.56646e-251
-1.26455e-252
-1.8772e-254
-1.04126e-231
-1.58291e-201
-4.04538e-183
-1.5457e-170
-4.48676e-173
-1.31828e-175
-3.89744e-178
-1.15685e-180
-3.45578e-183
-1.04617e-185
-3.24274e-188
-1.04119e-190
-3.50104e-193
-1.24346e-195
-4.69118e-198
-1.88539e-200
-8.08057e-203
-3.69378e-205
-1.80066e-207
-9.35977e-210
-5.18702e-212
-3.06424e-214
-1.92894e-216
-1.29348e-218
-9.23706e-221
-7.02461e-223
-5.68978e-225
-4.90562e-227
-4.49936e-229
-4.37566e-231
-4.50383e-233
-4.8739e-235
-5.53211e-237
-6.53509e-239
-7.99053e-241
-1.01073e-242
-1.30495e-244
-1.73165e-246
-2.33588e-248
-3.19496e-250
-4.44184e-252
-6.19888e-254
-8.66538e-256
-1.22339e-257
-7.1328e-232
-2.32479e-202
-6.93545e-185
-5.2975e-173
-1.47667e-175
-4.17022e-178
-1.18702e-180
-3.3994e-183
-9.81839e-186
-2.8787e-188
-8.64967e-191
-2.69228e-193
-8.76887e-196
-3.01283e-198
-1.09795e-200
-4.25681e-203
-1.75806e-205
-7.73749e-208
-3.62904e-210
-1.81377e-212
-9.65818e-215
-5.47817e-217
-3.30852e-219
-2.12703e-221
-1.45536e-223
-1.05954e-225
-8.20746e-228
-6.75969e-230
-5.91534e-232
-5.48309e-234
-5.37233e-236
-5.52909e-238
-5.96095e-240
-6.68908e-242
-7.76266e-244
-9.3239e-246
-1.14313e-247
-1.43865e-249
-1.8408e-251
-2.38618e-253
-3.13787e-255
-4.14338e-257
-5.46711e-259
-7.23056e-261
-4.49062e-232
-2.4209e-203
-1.31463e-186
-1.74597e-175
-4.66618e-178
-1.26457e-180
-3.45983e-183
-9.54307e-186
-2.66002e-188
-7.53881e-191
-2.19162e-193
-6.60056e-196
-2.07886e-198
-6.89922e-201
-2.42548e-203
-9.06079e-206
-3.60206e-208
-1.52476e-210
-6.8738e-213
-3.30034e-215
-1.68734e-217
-9.18371e-220
-5.31959e-222
-3.27779e-224
-2.14787e-226
-1.4967e-228
-1.10864e-230
-8.72033e-233
-7.27753e-235
-6.42435e-237
-5.9865e-239
-5.8543e-241
-5.98899e-243
-6.37566e-245
-7.01062e-247
-7.97728e-249
-9.26449e-251
-1.10321e-252
-1.33625e-254
-1.63813e-256
-2.03746e-258
-2.5414e-260
-3.16803e-262
-4.04164e-264
-2.58239e-232
-1.36669e-204
-1.90116e-188
-5.58517e-178
-1.42998e-180
-3.71568e-183
-9.76147e-186
-2.59019e-188
-6.95895e-191
-1.90396e-193
-5.34841e-196
-1.55681e-198
-4.73677e-201
-1.5173e-203
-5.14301e-206
-1.85045e-208
-7.07867e-211
-2.88104e-213
-1.24786e-215
-5.75244e-218
-2.82219e-220
-1.47321e-222
-8.17967e-225
-4.8295e-227
-3.03081e-229
-2.02052e-231
-1.43051e-233
-1.07449e-235
-8.55273e-238
-7.19324e-240
-6.37824e-242
-5.93063e-244
-5.76203e-246
-5.82511e-248
-6.07768e-250
-6.56053e-252
-7.22886e-254
-8.15843e-256
-9.36734e-258
-1.08798e-259
-1.2801e-261
-1.51217e-263
-1.78167e-265
-7.35124e-266
-1.33653e-232
-2.33207e-206
-2.35237e-190
-1.76802e-180
-4.33242e-183
-1.07827e-185
-2.71706e-188
-6.92719e-191
-1.79127e-193
-4.72372e-196
-1.28012e-198
-3.59576e-201
-1.0555e-203
-3.25986e-206
-1.0645e-208
-3.68688e-211
-1.35672e-213
-5.30903e-216
-2.2099e-218
-9.78536e-221
-4.60904e-223
-2.30889e-225
-1.22978e-227
-6.96142e-230
-4.18593e-232
-2.67259e-234
-1.81087e-236
-1.30067e-238
-9.88928e-241
-7.93647e-243
-6.70765e-245
-5.94128e-247
-5.49288e-249
-5.28361e-251
-5.24129e-253
-5.37727e-255
-5.63286e-257
-6.03846e-259
-6.58827e-261
-7.26796e-263
-8.12057e-265
-9.09782e-267
-1.01704e-268
-7.4684e-266
-6.16606e-233
-2.88193e-208
-2.52937e-192
-5.58544e-183
-1.30912e-185
-3.11885e-188
-7.53304e-191
-1.84403e-193
-4.58632e-196
-1.16494e-198
-3.04358e-201
-8.24483e-204
-2.33357e-206
-6.94557e-209
-2.18437e-211
-7.28185e-214
-2.57778e-216
-9.69938e-219
-3.88113e-221
-1.65179e-223
-7.47586e-226
-3.59789e-228
-1.84024e-230
-9.999e-233
-5.76954e-235
-3.53326e-237
-2.29488e-239
-1.5792e-241
-1.14952e-243
-8.82481e-246
-7.12827e-248
-6.03224e-250
-5.32418e-252
-4.88984e-254
-4.62997e-256
-4.53281e-258
-4.53361e-260
-4.63739e-262
-4.82995e-264
-5.08604e-266
-5.41905e-268
-5.79579e-270
-6.1754e-272
-7.6693e-266
-2.48523e-233
-1.12947e-209
-2.54321e-194
-1.81096e-185
-4.05804e-188
-9.2487e-191
-2.1395e-193
-5.02366e-196
-1.20037e-198
-2.93329e-201
-7.38031e-204
-1.92636e-206
-5.25395e-209
-1.50656e-211
-4.56303e-214
-1.46435e-216
-4.98879e-219
-1.80611e-221
-6.95166e-224
-2.84574e-226
-1.23885e-228
-5.73361e-231
-2.82049e-233
-1.4739e-235
-8.17733e-238
-4.81402e-240
-3.00462e-242
-1.98554e-244
-1.38714e-246
-1.02168e-248
-7.91269e-251
-6.41938e-253
-5.42905e-255
-4.77887e-257
-4.33645e-259
-4.06825e-261
-3.9021e-263
-3.82613e-265
-3.82194e-267
-3.86019e-269
-3.94376e-271
-4.04188e-273
-4.13029e-275
-7.80127e-266
-8.59825e-234
-2.65285e-211
-2.35547e-196
-6.10488e-188
-1.30886e-190
-2.85541e-193
-6.32885e-196
-1.4256e-198
-3.27206e-201
-7.68947e-204
-1.8622e-206
-4.68069e-209
-1.22951e-211
-3.39515e-214
-9.90041e-217
-3.05825e-219
-1.00275e-221
-3.49407e-224
-1.29455e-226
-5.10009e-229
-2.13664e-231
-9.51781e-234
-4.50644e-236
-2.26713e-238
-1.21114e-240
-6.86534e-243
-4.12527e-245
-2.62407e-247
-1.76409e-249
-1.24998e-251
-9.30924e-254
-7.26302e-256
-5.90538e-258
-4.99938e-260
-4.36384e-262
-3.93761e-264
-3.63548e-266
-3.43036e-268
-3.29873e-270
-3.20819e-272
-3.15421e-274
-3.11325e-276
-3.06191e-278
-7.89347e-266
-2.47687e-234
-5.96182e-213
-1.98352e-198
-2.19028e-190
-4.49724e-193
-9.39858e-196
-1.997e-198
-4.31694e-201
-9.51998e-204
-2.15181e-206
-5.01596e-209
-1.21404e-211
-3.07104e-214
-8.16549e-217
-2.29217e-219
-6.81461e-222
-2.15004e-224
-7.20798e-227
-2.56959e-229
-9.74472e-232
-3.9307e-234
-1.6861e-236
-7.69021e-239
-3.72755e-241
-1.91888e-243
-1.04826e-245
-6.07055e-248
-3.72138e-250
-2.41055e-252
-1.64569e-254
-1.18062e-256
-8.87446e-259
-6.95036e-261
-5.66956e-263
-4.76971e-265
-4.14745e-267
-3.69284e-269
-3.35986e-271
-3.11615e-273
-2.92388e-275
-2.77276e-277
-2.63986e-279
-2.51049e-281
-7.96857e-266
-5.73318e-235
-1.25014e-214
-1.48812e-200
-8.41866e-193
-1.66003e-195
-3.33187e-198
-6.80247e-201
-1.41398e-203
-3.00068e-206
-6.53107e-209
-1.46655e-211
-3.41957e-214
-8.33189e-217
-2.13307e-219
-5.76313e-222
-1.64851e-224
-5.00332e-227
-1.61339e-229
-5.53237e-232
-2.01819e-234
-7.83549e-237
-3.23659e-239
-1.4214e-241
-6.63447e-244
-3.28923e-246
-1.73086e-248
-9.6581e-251
-5.70554e-253
-3.56042e-255
-2.34184e-257
-1.61841e-259
-1.17215e-261
-8.84424e-264
-6.95259e-266
-5.63906e-268
-4.72637e-270
-4.05909e-272
-3.56212e-274
-3.18742e-276
-2.88696e-278
-2.64243e-280
-2.42969e-282
-2.25948e-284
-8.00381e-266
-1.00899e-235
-2.43357e-216
-9.94043e-203
-3.47179e-195
-6.59508e-198
-1.27526e-200
-2.50932e-203
-5.02997e-206
-1.03001e-208
-2.16423e-211
-4.69239e-214
-1.05631e-216
-2.48375e-219
-6.13276e-222
-1.59699e-224
-4.39961e-227
-1.28534e-229
-3.98816e-232
-1.31531e-234
-4.61321e-237
-1.72082e-239
-6.82876e-242
-2.88273e-244
-1.29378e-246
-6.16893e-249
-3.12235e-251
-1.67525e-253
-9.5165e-256
-5.7118e-258
-3.61382e-260
-2.40216e-262
-1.674e-264
-1.21527e-266
-9.19308e-269
-7.17845e-271
-5.79211e-273
-4.79251e-275
-4.05319e-277
-3.49681e-279
-3.05584e-281
-2.69897e-283
-2.39583e-285
-1.60273e-286
-7.96348e-266
-1.24762e-236
-4.00573e-218
-5.71752e-205
-1.51332e-197
-2.77848e-200
-5.19316e-203
-9.88091e-206
-1.91624e-208
-3.79839e-211
-7.72853e-214
-1.6228e-216
-3.53703e-219
-8.04824e-222
-1.92164e-224
-4.83475e-227
-1.28574e-229
-3.62239e-232
-1.08298e-234
-3.43954e-237
-1.16117e-239
-4.16779e-242
-1.59045e-244
-6.45185e-247
-2.78191e-249
-1.27401e-251
-6.19143e-254
-3.18936e-256
-1.7393e-258
-1.00181e-260
-6.08245e-263
-3.87879e-265
-2.59326e-267
-1.80642e-269
-1.31155e-271
-9.83564e-274
-7.62304e-276
-6.06398e-278
-4.93282e-280
-4.09548e-282
-3.44743e-284
-2.9339e-286
-2.51137e-288
-1.78084e-286
-7.80131e-266
-9.61229e-238
-5.11369e-220
-2.90737e-207
-6.85972e-200
-1.22034e-202
-2.21049e-205
-4.07792e-208
-7.67255e-211
-1.47637e-213
-2.9173e-216
-5.94981e-219
-1.25937e-221
-2.78151e-224
-6.44167e-227
-1.57057e-229
-4.04393e-232
-1.10208e-234
-3.18423e-237
-9.76251e-240
-3.17886e-242
-1.09977e-244
-4.04201e-247
-1.57777e-249
-6.53966e-252
-2.87689e-254
-1.34222e-256
-6.6327e-259
-3.46788e-261
-1.91389e-263
-1.11285e-265
-6.79376e-268
-4.3486e-270
-2.89987e-272
-2.01566e-274
-1.44792e-276
-1.07504e-278
-8.19971e-281
-6.39973e-283
-5.10135e-285
-4.12724e-287
-3.37779e-289
-2.7826e-291
-2.19995e-286
-7.4907e-266
-4.03274e-239
-4.69208e-222
-1.35166e-209