/*--------------------------------*- C++ -*----------------------------------*\
| =========                 |                                                 |
| \\      /  F ield         | OpenFOAM: The Open Source CFD Toolbox           |
|  \\    /   O peration     | Version:  v1912                                 |
|   \\  /    A nd           | Website:  www.openfoam.com                      |
|    \\/     M anipulation  |                                                 |
\*---------------------------------------------------------------------------*/
FoamFile
{
    version     2.0;
    format      ascii;
    class       volScalarField;
    location    "30";
    object      k;
}
// * * * * * * * * * * * * * * * * * * * * * * * * * * * * * * * * * * * * * //

dimensions      [0 2 -2 0 0 0 0];


internalField   nonuniform List<scalar> 
14268
(
5.09833e-11
5.1003e-11
5.1022e-11
5.10399e-11
5.10571e-11
5.10735e-11
5.10891e-11
5.11039e-11
5.1118e-11
5.11314e-11
5.11442e-11
5.11564e-11
5.1168e-11
5.1179e-11
5.11894e-11
5.11994e-11
5.12088e-11
5.12178e-11
5.12263e-11
5.12344e-11
5.12421e-11
5.12494e-11
5.12563e-11
5.12629e-11
5.12692e-11
5.12751e-11
5.12807e-11
5.1286e-11
5.1291e-11
5.12958e-11
5.13003e-11
5.13046e-11
5.13087e-11
5.13125e-11
5.13162e-11
5.13196e-11
5.13229e-11
5.13259e-11
5.13289e-11
5.13316e-11
5.13342e-11
5.13367e-11
5.1339e-11
5.13412e-11
5.13432e-11
5.13452e-11
5.1347e-11
5.13488e-11
5.13504e-11
5.1352e-11
5.13534e-11
5.13548e-11
5.13561e-11
5.13573e-11
5.13584e-11
5.13595e-11
5.13605e-11
5.13615e-11
5.13624e-11
5.13632e-11
5.1364e-11
5.13648e-11
5.13655e-11
5.13661e-11
5.13667e-11
5.13673e-11
5.13679e-11
5.13684e-11
5.13688e-11
5.13693e-11
5.13697e-11
5.13701e-11
5.13705e-11
5.13708e-11
5.13711e-11
5.13714e-11
5.13717e-11
5.1372e-11
5.13722e-11
5.13725e-11
5.13727e-11
5.13729e-11
5.13731e-11
5.13732e-11
5.13734e-11
5.13735e-11
5.13737e-11
5.13738e-11
5.13739e-11
5.1374e-11
5.13742e-11
5.13743e-11
5.13743e-11
5.13744e-11
5.13745e-11
5.13746e-11
5.13746e-11
5.13747e-11
5.13748e-11
5.13748e-11
5.13749e-11
5.13749e-11
5.13749e-11
5.1375e-11
5.1375e-11
5.13751e-11
5.13751e-11
5.13751e-11
5.13751e-11
5.13752e-11
5.13752e-11
5.13752e-11
5.13752e-11
5.13752e-11
5.13752e-11
5.13752e-11
5.13753e-11
5.13753e-11
5.13753e-11
5.13753e-11
5.13753e-11
5.13753e-11
5.13753e-11
5.13753e-11
5.13752e-11
5.13752e-11
5.13752e-11
5.13752e-11
5.13752e-11
5.13752e-11
5.13751e-11
5.13752e-11
5.13751e-11
5.13752e-11
5.1375e-11
5.13752e-11
5.1375e-11
5.13752e-11
5.1375e-11
5.13754e-11
5.13751e-11
5.13755e-11
5.13753e-11
5.13757e-11
5.13756e-11
5.13758e-11
5.13757e-11
5.13759e-11
5.13758e-11
5.13759e-11
5.13758e-11
5.13758e-11
5.13757e-11
5.13758e-11
5.13757e-11
5.13758e-11
5.13757e-11
5.13758e-11
5.13757e-11
5.13758e-11
5.1376e-11
5.13761e-11
5.13912e-11
5.1798e-11
1.48808e-09
1.48867e-09
1.48924e-09
1.48978e-09
1.49029e-09
1.49078e-09
1.49125e-09
1.49169e-09
1.49211e-09
1.49251e-09
1.4929e-09
1.49326e-09
1.4936e-09
1.49393e-09
1.49425e-09
1.49454e-09
1.49483e-09
1.49509e-09
1.49535e-09
1.49559e-09
1.49582e-09
1.49604e-09
1.49625e-09
1.49644e-09
1.49663e-09
1.49681e-09
1.49697e-09
1.49713e-09
1.49728e-09
1.49743e-09
1.49756e-09
1.49769e-09
1.49781e-09
1.49793e-09
1.49803e-09
1.49814e-09
1.49823e-09
1.49833e-09
1.49841e-09
1.4985e-09
1.49857e-09
1.49865e-09
1.49872e-09
1.49878e-09
1.49884e-09
1.4989e-09
1.49896e-09
1.49901e-09
1.49906e-09
1.4991e-09
1.49915e-09
1.49919e-09
1.49923e-09
1.49926e-09
1.4993e-09
1.49933e-09
1.49936e-09
1.49939e-09
1.49942e-09
1.49944e-09
1.49946e-09
1.49949e-09
1.49951e-09
1.49953e-09
1.49955e-09
1.49956e-09
1.49958e-09
1.49959e-09
1.49961e-09
1.49962e-09
1.49963e-09
1.49965e-09
1.49966e-09
1.49967e-09
1.49968e-09
1.49969e-09
1.49969e-09
1.4997e-09
1.49971e-09
1.49972e-09
1.49972e-09
1.49973e-09
1.49973e-09
1.49974e-09
1.49974e-09
1.49975e-09
1.49975e-09
1.49976e-09
1.49976e-09
1.49976e-09
1.49977e-09
1.49977e-09
1.49977e-09
1.49978e-09
1.49978e-09
1.49978e-09
1.49978e-09
1.49978e-09
1.49979e-09
1.49979e-09
1.49979e-09
1.49979e-09
1.49979e-09
1.49979e-09
1.49979e-09
1.49979e-09
1.4998e-09
1.4998e-09
1.4998e-09
1.4998e-09
1.4998e-09
1.4998e-09
1.4998e-09
1.4998e-09
1.4998e-09
1.4998e-09
1.4998e-09
1.4998e-09
1.4998e-09
1.4998e-09
1.4998e-09
1.4998e-09
1.4998e-09
1.4998e-09
1.4998e-09
1.4998e-09
1.4998e-09
1.4998e-09
1.4998e-09
1.4998e-09
1.4998e-09
1.4998e-09
1.49979e-09
1.4998e-09
1.49979e-09
1.4998e-09
1.49979e-09
1.4998e-09
1.49979e-09
1.4998e-09
1.4998e-09
1.49981e-09
1.4998e-09
1.49981e-09
1.49981e-09
1.49982e-09
1.49981e-09
1.49982e-09
1.49981e-09
1.49982e-09
1.49981e-09
1.49982e-09
1.49981e-09
1.49982e-09
1.49981e-09
1.49981e-09
1.49981e-09
1.49981e-09
1.49981e-09
1.49982e-09
1.49982e-09
1.49983e-09
1.50025e-09
1.51058e-09
9.60752e-09
9.61112e-09
9.61458e-09
9.61786e-09
9.621e-09
9.62398e-09
9.62683e-09
9.62953e-09
9.63211e-09
9.63456e-09
9.63689e-09
9.63911e-09
9.64122e-09
9.64323e-09
9.64514e-09
9.64695e-09
9.64867e-09
9.65031e-09
9.65187e-09
9.65335e-09
9.65475e-09
9.65608e-09
9.65734e-09
9.65854e-09
9.65968e-09
9.66076e-09
9.66178e-09
9.66275e-09
9.66367e-09
9.66454e-09
9.66537e-09
9.66615e-09
9.66689e-09
9.66759e-09
9.66826e-09
9.66888e-09
9.66948e-09
9.67004e-09
9.67057e-09
9.67107e-09
9.67155e-09
9.67199e-09
9.67242e-09
9.67282e-09
9.67319e-09
9.67355e-09
9.67389e-09
9.6742e-09
9.6745e-09
9.67478e-09
9.67505e-09
9.6753e-09
9.67553e-09
9.67576e-09
9.67597e-09
9.67616e-09
9.67635e-09
9.67652e-09
9.67669e-09
9.67684e-09
9.67698e-09
9.67712e-09
9.67725e-09
9.67737e-09
9.67748e-09
9.67758e-09
9.67768e-09
9.67778e-09
9.67786e-09
9.67795e-09
9.67802e-09
9.67809e-09
9.67816e-09
9.67822e-09
9.67828e-09
9.67834e-09
9.67839e-09
9.67844e-09
9.67848e-09
9.67852e-09
9.67856e-09
9.6786e-09
9.67863e-09
9.67866e-09
9.67869e-09
9.67872e-09
9.67875e-09
9.67877e-09
9.67879e-09
9.67881e-09
9.67883e-09
9.67885e-09
9.67887e-09
9.67888e-09
9.67889e-09
9.67891e-09
9.67892e-09
9.67893e-09
9.67894e-09
9.67895e-09
9.67896e-09
9.67897e-09
9.67898e-09
9.67898e-09
9.67899e-09
9.679e-09
9.679e-09
9.67901e-09
9.67901e-09
9.67901e-09
9.67902e-09
9.67902e-09
9.67902e-09
9.67903e-09
9.67903e-09
9.67903e-09
9.67903e-09
9.67903e-09
9.67903e-09
9.67903e-09
9.67903e-09
9.67903e-09
9.67903e-09
9.67903e-09
9.67903e-09
9.67903e-09
9.67902e-09
9.67903e-09
9.67901e-09
9.67902e-09
9.67901e-09
9.67902e-09
9.679e-09
9.67902e-09
9.67899e-09
9.67902e-09
9.67898e-09
9.67903e-09
9.67899e-09
9.67905e-09
9.67901e-09
9.67907e-09
9.67904e-09
9.67911e-09
9.67908e-09
9.67913e-09
9.6791e-09
9.67914e-09
9.67911e-09
9.67914e-09
9.67912e-09
9.67913e-09
9.67911e-09
9.67912e-09
9.67911e-09
9.67912e-09
9.6791e-09
9.67911e-09
9.67911e-09
9.67912e-09
9.67915e-09
9.67918e-09
9.68171e-09
9.73528e-09
2.90358e-08
2.90455e-08
2.90547e-08
2.90635e-08
2.90719e-08
2.90799e-08
2.90875e-08
2.90947e-08
2.91017e-08
2.91082e-08
2.91145e-08
2.91204e-08
2.9126e-08
2.91314e-08
2.91365e-08
2.91414e-08
2.9146e-08
2.91504e-08
2.91545e-08
2.91585e-08
2.91622e-08
2.91658e-08
2.91692e-08
2.91724e-08
2.91754e-08
2.91783e-08
2.9181e-08
2.91836e-08
2.91861e-08
2.91884e-08
2.91906e-08
2.91927e-08
2.91947e-08
2.91966e-08
2.91984e-08
2.92e-08
2.92016e-08
2.92031e-08
2.92046e-08
2.92059e-08
2.92072e-08
2.92084e-08
2.92095e-08
2.92106e-08
2.92116e-08
2.92125e-08
2.92134e-08
2.92143e-08
2.92151e-08
2.92158e-08
2.92165e-08
2.92172e-08
2.92178e-08
2.92184e-08
2.9219e-08
2.92195e-08
2.922e-08
2.92205e-08
2.92209e-08
2.92213e-08
2.92217e-08
2.92221e-08
2.92224e-08
2.92228e-08
2.92231e-08
2.92233e-08
2.92236e-08
2.92239e-08
2.92241e-08
2.92243e-08
2.92245e-08
2.92247e-08
2.92249e-08
2.92251e-08
2.92252e-08
2.92254e-08
2.92255e-08
2.92256e-08
2.92257e-08
2.92259e-08
2.9226e-08
2.92261e-08
2.92261e-08
2.92262e-08
2.92263e-08
2.92264e-08
2.92265e-08
2.92265e-08
2.92266e-08
2.92266e-08
2.92267e-08
2.92267e-08
2.92268e-08
2.92268e-08
2.92269e-08
2.92269e-08
2.92269e-08
2.9227e-08
2.9227e-08
2.9227e-08
2.9227e-08
2.92271e-08
2.92271e-08
2.92271e-08
2.92271e-08
2.92271e-08
2.92271e-08
2.92272e-08
2.92272e-08
2.92272e-08
2.92272e-08
2.92272e-08
2.92272e-08
2.92272e-08
2.92272e-08
2.92272e-08
2.92272e-08
2.92272e-08
2.92272e-08
2.92272e-08
2.92272e-08
2.92272e-08
2.92272e-08
2.92272e-08
2.92272e-08
2.92272e-08
2.92272e-08
2.92272e-08
2.92272e-08
2.92272e-08
2.92272e-08
2.92272e-08
2.92271e-08
2.92272e-08
2.92271e-08
2.92272e-08
2.92271e-08
2.92272e-08
2.92271e-08
2.92273e-08
2.92272e-08
2.92273e-08
2.92273e-08
2.92274e-08
2.92274e-08
2.92275e-08
2.92274e-08
2.92275e-08
2.92274e-08
2.92275e-08
2.92274e-08
2.92275e-08
2.92274e-08
2.92275e-08
2.92274e-08
2.92274e-08
2.92274e-08
2.92274e-08
2.92274e-08
2.92275e-08
2.92275e-08
2.92276e-08
2.92342e-08
2.93571e-08
5.74945e-08
5.75097e-08
5.75245e-08
5.75384e-08
5.75518e-08
5.75644e-08
5.75766e-08
5.7588e-08
5.7599e-08
5.76094e-08
5.76193e-08
5.76287e-08
5.76377e-08
5.76462e-08
5.76544e-08
5.76621e-08
5.76694e-08
5.76763e-08
5.76829e-08
5.76892e-08
5.76952e-08
5.77008e-08
5.77062e-08
5.77113e-08
5.77161e-08
5.77207e-08
5.77251e-08
5.77292e-08
5.77331e-08
5.77368e-08
5.77403e-08
5.77436e-08
5.77468e-08
5.77497e-08
5.77526e-08
5.77552e-08
5.77577e-08
5.77601e-08
5.77624e-08
5.77645e-08
5.77665e-08
5.77684e-08
5.77702e-08
5.77719e-08
5.77735e-08
5.77751e-08
5.77765e-08
5.77778e-08
5.77791e-08
5.77803e-08
5.77814e-08
5.77825e-08
5.77835e-08
5.77844e-08
5.77853e-08
5.77862e-08
5.7787e-08
5.77877e-08
5.77884e-08
5.7789e-08
5.77897e-08
5.77902e-08
5.77908e-08
5.77913e-08
5.77918e-08
5.77922e-08
5.77927e-08
5.7793e-08
5.77934e-08
5.77938e-08
5.77941e-08
5.77944e-08
5.77947e-08
5.7795e-08
5.77952e-08
5.77954e-08
5.77957e-08
5.77959e-08
5.77961e-08
5.77962e-08
5.77964e-08
5.77966e-08
5.77967e-08
5.77968e-08
5.7797e-08
5.77971e-08
5.77972e-08
5.77973e-08
5.77974e-08
5.77975e-08
5.77976e-08
5.77976e-08
5.77977e-08
5.77978e-08
5.77978e-08
5.77979e-08
5.77979e-08
5.7798e-08
5.7798e-08
5.77981e-08
5.77981e-08
5.77982e-08
5.77982e-08
5.77982e-08
5.77982e-08
5.77983e-08
5.77983e-08
5.77983e-08
5.77983e-08
5.77984e-08
5.77984e-08
5.77984e-08
5.77984e-08
5.77984e-08
5.77984e-08
5.77984e-08
5.77984e-08
5.77984e-08
5.77984e-08
5.77984e-08
5.77984e-08
5.77984e-08
5.77984e-08
5.77984e-08
5.77984e-08
5.77984e-08
5.77984e-08
5.77984e-08
5.77984e-08
5.77984e-08
5.77983e-08
5.77984e-08
5.77983e-08
5.77984e-08
5.77982e-08
5.77984e-08
5.77982e-08
5.77984e-08
5.77982e-08
5.77985e-08
5.77984e-08
5.77986e-08
5.77985e-08
5.77988e-08
5.77987e-08
5.77988e-08
5.77987e-08
5.77989e-08
5.77988e-08
5.77989e-08
5.77988e-08
5.77988e-08
5.77988e-08
5.77988e-08
5.77987e-08
5.77988e-08
5.77987e-08
5.77988e-08
5.77987e-08
5.77988e-08
5.77989e-08
5.77991e-08
5.78094e-08
5.79834e-08
8.74034e-08
8.74199e-08
8.74358e-08
8.74508e-08
8.74653e-08
8.74789e-08
8.7492e-08
8.75043e-08
8.75161e-08
8.75273e-08
8.75381e-08
8.75482e-08
8.75579e-08
8.75671e-08
8.75758e-08
8.75841e-08
8.7592e-08
8.75995e-08
8.76066e-08
8.76134e-08
8.76198e-08
8.76259e-08
8.76316e-08
8.76371e-08
8.76423e-08
8.76473e-08
8.7652e-08
8.76564e-08
8.76606e-08
8.76646e-08
8.76684e-08
8.76719e-08
8.76753e-08
8.76785e-08
8.76816e-08
8.76844e-08
8.76872e-08
8.76897e-08
8.76922e-08
8.76944e-08
8.76966e-08
8.76987e-08
8.77006e-08
8.77024e-08
8.77042e-08
8.77058e-08
8.77073e-08
8.77088e-08
8.77102e-08
8.77115e-08
8.77127e-08
8.77138e-08
8.77149e-08
8.77159e-08
8.77169e-08
8.77178e-08
8.77186e-08
8.77194e-08
8.77202e-08
8.77209e-08
8.77216e-08
8.77222e-08
8.77228e-08
8.77233e-08
8.77238e-08
8.77243e-08
8.77248e-08
8.77252e-08
8.77256e-08
8.7726e-08
8.77264e-08
8.77267e-08
8.7727e-08
8.77273e-08
8.77276e-08
8.77278e-08
8.7728e-08
8.77283e-08
8.77285e-08
8.77287e-08
8.77289e-08
8.7729e-08
8.77292e-08
8.77293e-08
8.77295e-08
8.77296e-08
8.77297e-08
8.77298e-08
8.77299e-08
8.773e-08
8.77301e-08
8.77302e-08
8.77303e-08
8.77303e-08
8.77304e-08
8.77305e-08
8.77305e-08
8.77306e-08
8.77306e-08
8.77307e-08
8.77307e-08
8.77308e-08
8.77308e-08
8.77308e-08
8.77309e-08
8.77309e-08
8.77309e-08
8.77309e-08
8.7731e-08
8.7731e-08
8.7731e-08
8.7731e-08
8.7731e-08
8.7731e-08
8.77311e-08
8.77311e-08
8.77311e-08
8.77311e-08
8.77311e-08
8.77311e-08
8.77311e-08
8.77311e-08
8.77311e-08
8.77311e-08
8.77311e-08
8.77311e-08
8.7731e-08
8.77311e-08
8.7731e-08
8.7731e-08
8.77309e-08
8.7731e-08
8.77309e-08
8.7731e-08
8.77308e-08
8.7731e-08
8.77308e-08
8.77311e-08
8.77309e-08
8.77312e-08
8.7731e-08
8.77313e-08
8.77311e-08
8.77314e-08
8.77313e-08
8.77315e-08
8.77314e-08
8.77315e-08
8.77314e-08
8.77315e-08
8.77314e-08
8.77315e-08
8.77314e-08
8.77315e-08
8.77314e-08
8.77315e-08
8.77314e-08
8.77314e-08
8.77314e-08
8.77315e-08
8.77316e-08
8.77318e-08
8.77427e-08
8.79196e-08
1.11883e-07
1.11897e-07
1.11911e-07
1.11924e-07
1.11936e-07
1.11948e-07
1.11959e-07
1.1197e-07
1.1198e-07
1.11989e-07
1.11999e-07
1.12007e-07
1.12016e-07
1.12024e-07
1.12031e-07
1.12038e-07
1.12045e-07
1.12051e-07
1.12057e-07
1.12063e-07
1.12069e-07
1.12074e-07
1.12079e-07
1.12084e-07
1.12088e-07
1.12092e-07
1.12096e-07
1.121e-07
1.12104e-07
1.12107e-07
1.1211e-07
1.12114e-07
1.12116e-07
1.12119e-07
1.12122e-07
1.12124e-07
1.12127e-07
1.12129e-07
1.12131e-07
1.12133e-07
1.12135e-07
1.12136e-07
1.12138e-07
1.1214e-07
1.12141e-07
1.12143e-07
1.12144e-07
1.12145e-07
1.12146e-07
1.12147e-07
1.12149e-07
1.1215e-07
1.1215e-07
1.12151e-07
1.12152e-07
1.12153e-07
1.12154e-07
1.12154e-07
1.12155e-07
1.12156e-07
1.12156e-07
1.12157e-07
1.12157e-07
1.12158e-07
1.12158e-07
1.12159e-07
1.12159e-07
1.12159e-07
1.1216e-07
1.1216e-07
1.1216e-07
1.12161e-07
1.12161e-07
1.12161e-07
1.12161e-07
1.12162e-07
1.12162e-07
1.12162e-07
1.12162e-07
1.12162e-07
1.12162e-07
1.12163e-07
1.12163e-07
1.12163e-07
1.12163e-07
1.12163e-07
1.12163e-07
1.12163e-07
1.12163e-07
1.12163e-07
1.12164e-07
1.12164e-07
1.12164e-07
1.12164e-07
1.12164e-07
1.12164e-07
1.12164e-07
1.12164e-07
1.12164e-07
1.12164e-07
1.12164e-07
1.12164e-07
1.12164e-07
1.12164e-07
1.12164e-07
1.12164e-07
1.12164e-07
1.12164e-07
1.12164e-07
1.12164e-07
1.12164e-07
1.12164e-07
1.12164e-07
1.12164e-07
1.12164e-07
1.12164e-07
1.12164e-07
1.12164e-07
1.12164e-07
1.12164e-07
1.12164e-07
1.12164e-07
1.12164e-07
1.12164e-07
1.12164e-07
1.12164e-07
1.12164e-07
1.12164e-07
1.12164e-07
1.12164e-07
1.12164e-07
1.12164e-07
1.12164e-07
1.12164e-07
1.12164e-07
1.12164e-07
1.12164e-07
1.12164e-07
1.12164e-07
1.12164e-07
1.12164e-07
1.12165e-07
1.12164e-07
1.12165e-07
1.12165e-07
1.12165e-07
1.12165e-07
1.12165e-07
1.12165e-07
1.12165e-07
1.12165e-07
1.12165e-07
1.12165e-07
1.12165e-07
1.12165e-07
1.12165e-07
1.12165e-07
1.12165e-07
1.12165e-07
1.12165e-07
1.12165e-07
1.12165e-07
1.12174e-07
1.12315e-07
1.28356e-07
1.28366e-07
1.28376e-07
1.28385e-07
1.28394e-07
1.28402e-07
1.2841e-07
1.28418e-07
1.28425e-07
1.28432e-07
1.28438e-07
1.28445e-07
1.28451e-07
1.28456e-07
1.28462e-07
1.28467e-07
1.28472e-07
1.28476e-07
1.2848e-07
1.28485e-07
1.28489e-07
1.28492e-07
1.28496e-07
1.28499e-07
1.28502e-07
1.28505e-07
1.28508e-07
1.28511e-07
1.28514e-07
1.28516e-07
1.28518e-07
1.28521e-07
1.28523e-07
1.28525e-07
1.28526e-07
1.28528e-07
1.2853e-07
1.28531e-07
1.28533e-07
1.28534e-07
1.28536e-07
1.28537e-07
1.28538e-07
1.28539e-07
1.2854e-07
1.28541e-07
1.28542e-07
1.28543e-07
1.28544e-07
1.28545e-07
1.28546e-07
1.28546e-07
1.28547e-07
1.28548e-07
1.28548e-07
1.28549e-07
1.28549e-07
1.2855e-07
1.2855e-07
1.28551e-07
1.28551e-07
1.28551e-07
1.28552e-07
1.28552e-07
1.28552e-07
1.28553e-07
1.28553e-07
1.28553e-07
1.28553e-07
1.28554e-07
1.28554e-07
1.28554e-07
1.28554e-07
1.28554e-07
1.28555e-07
1.28555e-07
1.28555e-07
1.28555e-07
1.28555e-07
1.28555e-07
1.28555e-07
1.28556e-07
1.28556e-07
1.28556e-07
1.28556e-07
1.28556e-07
1.28556e-07
1.28556e-07
1.28556e-07
1.28556e-07
1.28556e-07
1.28556e-07
1.28556e-07
1.28556e-07
1.28556e-07
1.28556e-07
1.28556e-07
1.28556e-07
1.28557e-07
1.28557e-07
1.28557e-07
1.28557e-07
1.28557e-07
1.28557e-07
1.28557e-07
1.28557e-07
1.28557e-07
1.28557e-07
1.28557e-07
1.28557e-07
1.28557e-07
1.28557e-07
1.28557e-07
1.28557e-07
1.28557e-07
1.28557e-07
1.28557e-07
1.28557e-07
1.28557e-07
1.28557e-07
1.28557e-07
1.28557e-07
1.28557e-07
1.28557e-07
1.28557e-07
1.28557e-07
1.28557e-07
1.28557e-07
1.28557e-07
1.28557e-07
1.28557e-07
1.28557e-07
1.28557e-07
1.28557e-07
1.28557e-07
1.28557e-07
1.28557e-07
1.28557e-07
1.28557e-07
1.28557e-07
1.28557e-07
1.28557e-07
1.28557e-07
1.28557e-07
1.28557e-07
1.28557e-07
1.28557e-07
1.28557e-07
1.28557e-07
1.28557e-07
1.28557e-07
1.28557e-07
1.28557e-07
1.28557e-07
1.28557e-07
1.28557e-07
1.28557e-07
1.28557e-07
1.28557e-07
1.28557e-07
1.28557e-07
1.28557e-07
1.28563e-07
1.2866e-07
1.37812e-07
1.37818e-07
1.37824e-07
1.3783e-07
1.37836e-07
1.37841e-07
1.37846e-07
1.3785e-07
1.37855e-07
1.37859e-07
1.37863e-07
1.37867e-07
1.37871e-07
1.37874e-07
1.37877e-07
1.3788e-07
1.37883e-07
1.37886e-07
1.37889e-07
1.37891e-07
1.37894e-07
1.37896e-07
1.37898e-07
1.379e-07
1.37902e-07
1.37904e-07
1.37906e-07
1.37908e-07
1.37909e-07
1.37911e-07
1.37912e-07
1.37914e-07
1.37915e-07
1.37916e-07
1.37917e-07
1.37918e-07
1.37919e-07
1.3792e-07
1.37921e-07
1.37922e-07
1.37923e-07
1.37924e-07
1.37924e-07
1.37925e-07
1.37926e-07
1.37926e-07
1.37927e-07
1.37927e-07
1.37928e-07
1.37928e-07
1.37929e-07
1.37929e-07
1.3793e-07
1.3793e-07
1.3793e-07
1.37931e-07
1.37931e-07
1.37931e-07
1.37932e-07
1.37932e-07
1.37932e-07
1.37932e-07
1.37933e-07
1.37933e-07
1.37933e-07
1.37933e-07
1.37933e-07
1.37934e-07
1.37934e-07
1.37934e-07
1.37934e-07
1.37934e-07
1.37934e-07
1.37934e-07
1.37934e-07
1.37934e-07
1.37935e-07
1.37935e-07
1.37935e-07
1.37935e-07
1.37935e-07
1.37935e-07
1.37935e-07
1.37935e-07
1.37935e-07
1.37935e-07
1.37935e-07
1.37935e-07
1.37935e-07
1.37935e-07
1.37935e-07
1.37935e-07
1.37935e-07
1.37935e-07
1.37935e-07
1.37935e-07
1.37935e-07
1.37936e-07
1.37936e-07
1.37936e-07
1.37936e-07
1.37936e-07
1.37936e-07
1.37936e-07
1.37936e-07
1.37936e-07
1.37936e-07
1.37936e-07
1.37936e-07
1.37936e-07
1.37936e-07
1.37936e-07
1.37936e-07
1.37936e-07
1.37936e-07
1.37936e-07
1.37936e-07
1.37936e-07
1.37936e-07
1.37936e-07
1.37936e-07
1.37936e-07
1.37936e-07
1.37936e-07
1.37936e-07
1.37936e-07
1.37936e-07
1.37936e-07
1.37936e-07
1.37936e-07
1.37936e-07
1.37936e-07
1.37936e-07
1.37936e-07
1.37936e-07
1.37936e-07
1.37936e-07
1.37936e-07
1.37936e-07
1.37936e-07
1.37936e-07
1.37936e-07
1.37936e-07
1.37936e-07
1.37936e-07
1.37936e-07
1.37936e-07
1.37936e-07
1.37936e-07
1.37936e-07
1.37936e-07
1.37936e-07
1.37936e-07
1.37936e-07
1.37936e-07
1.37936e-07
1.37936e-07
1.37936e-07
1.37936e-07
1.37936e-07
1.37936e-07
1.37936e-07
1.37939e-07
1.38005e-07
1.42565e-07
1.42568e-07
1.42571e-07
1.42574e-07
1.42577e-07
1.4258e-07
1.42583e-07
1.42585e-07
1.42588e-07
1.4259e-07
1.42592e-07
1.42595e-07
1.42597e-07
1.42598e-07
1.426e-07
1.42602e-07
1.42604e-07
1.42605e-07
1.42607e-07
1.42608e-07
1.42609e-07
1.42611e-07
1.42612e-07
1.42613e-07
1.42614e-07
1.42615e-07
1.42616e-07
1.42617e-07
1.42618e-07
1.42619e-07
1.42619e-07
1.4262e-07
1.42621e-07
1.42621e-07
1.42622e-07
1.42623e-07
1.42623e-07
1.42624e-07
1.42624e-07
1.42625e-07
1.42625e-07
1.42626e-07
1.42626e-07
1.42626e-07
1.42627e-07
1.42627e-07
1.42627e-07
1.42628e-07
1.42628e-07
1.42628e-07
1.42628e-07
1.42629e-07
1.42629e-07
1.42629e-07
1.42629e-07
1.42629e-07
1.4263e-07
1.4263e-07
1.4263e-07
1.4263e-07
1.4263e-07
1.4263e-07
1.4263e-07
1.42631e-07
1.42631e-07
1.42631e-07
1.42631e-07
1.42631e-07
1.42631e-07
1.42631e-07
1.42631e-07
1.42631e-07
1.42631e-07
1.42631e-07
1.42631e-07
1.42631e-07
1.42632e-07
1.42632e-07
1.42632e-07
1.42632e-07
1.42632e-07
1.42632e-07
1.42632e-07
1.42632e-07
1.42632e-07
1.42632e-07
1.42632e-07
1.42632e-07
1.42632e-07
1.42632e-07
1.42632e-07
1.42632e-07
1.42632e-07
1.42632e-07
1.42632e-07
1.42632e-07
1.42632e-07
1.42632e-07
1.42632e-07
1.42632e-07
1.42632e-07
1.42632e-07
1.42632e-07
1.42632e-07
1.42632e-07
1.42632e-07
1.42632e-07
1.42632e-07
1.42632e-07
1.42632e-07
1.42632e-07
1.42632e-07
1.42632e-07
1.42632e-07
1.42632e-07
1.42632e-07
1.42632e-07
1.42632e-07
1.42632e-07
1.42632e-07
1.42632e-07
1.42632e-07
1.42632e-07
1.42632e-07
1.42632e-07
1.42632e-07
1.42632e-07
1.42632e-07
1.42632e-07
1.42632e-07
1.42632e-07
1.42632e-07
1.42632e-07
1.42632e-07
1.42632e-07
1.42632e-07
1.42632e-07
1.42632e-07
1.42632e-07
1.42632e-07
1.42632e-07
1.42632e-07
1.42632e-07
1.42632e-07
1.42632e-07
1.42632e-07
1.42632e-07
1.42632e-07
1.42632e-07
1.42632e-07
1.42632e-07
1.42632e-07
1.42632e-07
1.42632e-07
1.42632e-07
1.42632e-07
1.42632e-07
1.42632e-07
1.42632e-07
1.42632e-07
1.42632e-07
1.42632e-07
1.42634e-07
1.42686e-07
1.44695e-07
1.44697e-07
1.44698e-07
1.447e-07
1.44701e-07
1.44703e-07
1.44704e-07
1.44705e-07
1.44707e-07
1.44708e-07
1.44709e-07
1.4471e-07
1.44711e-07
1.44712e-07
1.44713e-07
1.44714e-07
1.44715e-07
1.44715e-07
1.44716e-07
1.44717e-07
1.44717e-07
1.44718e-07
1.44719e-07
1.44719e-07
1.4472e-07
1.4472e-07
1.44721e-07
1.44721e-07
1.44722e-07
1.44722e-07
1.44723e-07
1.44723e-07
1.44723e-07
1.44724e-07
1.44724e-07
1.44724e-07
1.44724e-07
1.44725e-07
1.44725e-07
1.44725e-07
1.44725e-07
1.44726e-07
1.44726e-07
1.44726e-07
1.44726e-07
1.44726e-07
1.44727e-07
1.44727e-07
1.44727e-07
1.44727e-07
1.44727e-07
1.44727e-07
1.44727e-07
1.44727e-07
1.44728e-07
1.44728e-07
1.44728e-07
1.44728e-07
1.44728e-07
1.44728e-07
1.44728e-07
1.44728e-07
1.44728e-07
1.44728e-07
1.44728e-07
1.44728e-07
1.44728e-07
1.44728e-07
1.44728e-07
1.44728e-07
1.44728e-07
1.44729e-07
1.44729e-07
1.44729e-07
1.44729e-07
1.44729e-07
1.44729e-07
1.44729e-07
1.44729e-07
1.44729e-07
1.44729e-07
1.44729e-07
1.44729e-07
1.44729e-07
1.44729e-07
1.44729e-07
1.44729e-07
1.44729e-07
1.44729e-07
1.44729e-07
1.44729e-07
1.44729e-07
1.44729e-07
1.44729e-07
1.44729e-07
1.44729e-07
1.44729e-07
1.44729e-07
1.44729e-07
1.44729e-07
1.44729e-07
1.44729e-07
1.44729e-07
1.44729e-07
1.44729e-07
1.44729e-07
1.44729e-07
1.44729e-07
1.44729e-07
1.44729e-07
1.44729e-07
1.44729e-07
1.44729e-07
1.44729e-07
1.44729e-07
1.44729e-07
1.44729e-07
1.44729e-07
1.44729e-07
1.44729e-07
1.44729e-07
1.44729e-07
1.44729e-07
1.44729e-07
1.44729e-07
1.44729e-07
1.44729e-07
1.44729e-07
1.44729e-07
1.44729e-07
1.44729e-07
1.44729e-07
1.44729e-07
1.44729e-07
1.44729e-07
1.44729e-07
1.44729e-07
1.44729e-07
1.44729e-07
1.44729e-07
1.44729e-07
1.44729e-07
1.44729e-07
1.44729e-07
1.44729e-07
1.44729e-07
1.44729e-07
1.44729e-07
1.44729e-07
1.44729e-07
1.44729e-07
1.44729e-07
1.44729e-07
1.44729e-07
1.44729e-07
1.44729e-07
1.44729e-07
1.44729e-07
1.44729e-07
1.44729e-07
1.44729e-07
1.44729e-07
1.4473e-07
1.44775e-07
1.45558e-07
1.45559e-07
1.4556e-07
1.45561e-07
1.45561e-07
1.45562e-07
1.45563e-07
1.45563e-07
1.45564e-07
1.45565e-07
1.45565e-07
1.45566e-07
1.45566e-07
1.45567e-07
1.45567e-07
1.45568e-07
1.45568e-07
1.45568e-07
1.45569e-07
1.45569e-07
1.45569e-07
1.4557e-07
1.4557e-07
1.4557e-07
1.45571e-07
1.45571e-07
1.45571e-07
1.45571e-07
1.45572e-07
1.45572e-07
1.45572e-07
1.45572e-07
1.45572e-07
1.45572e-07
1.45573e-07
1.45573e-07
1.45573e-07
1.45573e-07
1.45573e-07
1.45573e-07
1.45573e-07
1.45574e-07
1.45574e-07
1.45574e-07
1.45574e-07
1.45574e-07
1.45574e-07
1.45574e-07
1.45574e-07
1.45574e-07
1.45574e-07
1.45574e-07
1.45574e-07
1.45574e-07
1.45574e-07
1.45574e-07
1.45575e-07
1.45575e-07
1.45575e-07
1.45575e-07
1.45575e-07
1.45575e-07
1.45575e-07
1.45575e-07
1.45575e-07
1.45575e-07
1.45575e-07
1.45575e-07
1.45575e-07
1.45575e-07
1.45575e-07
1.45575e-07
1.45575e-07
1.45575e-07
1.45575e-07
1.45575e-07
1.45575e-07
1.45575e-07
1.45575e-07
1.45575e-07
1.45575e-07
1.45575e-07
1.45575e-07
1.45575e-07
1.45575e-07
1.45575e-07
1.45575e-07
1.45575e-07
1.45575e-07
1.45575e-07
1.45575e-07
1.45575e-07
1.45575e-07
1.45575e-07
1.45575e-07
1.45575e-07
1.45575e-07
1.45575e-07
1.45575e-07
1.45575e-07
1.45575e-07
1.45575e-07
1.45575e-07
1.45575e-07
1.45575e-07
1.45575e-07
1.45575e-07
1.45575e-07
1.45575e-07
1.45575e-07
1.45575e-07
1.45575e-07
1.45575e-07
1.45575e-07
1.45575e-07
1.45575e-07
1.45575e-07
1.45575e-07
1.45575e-07
1.45575e-07
1.45575e-07
1.45575e-07
1.45575e-07
1.45575e-07
1.45575e-07
1.45575e-07
1.45575e-07
1.45575e-07
1.45575e-07
1.45575e-07
1.45575e-07
1.45575e-07
1.45575e-07
1.45575e-07
1.45575e-07
1.45575e-07
1.45575e-07
1.45575e-07
1.45575e-07
1.45575e-07
1.45575e-07
1.45575e-07
1.45575e-07
1.45575e-07
1.45575e-07
1.45575e-07
1.45575e-07
1.45575e-07
1.45575e-07
1.45575e-07
1.45575e-07
1.45575e-07
1.45575e-07
1.45575e-07
1.45575e-07
1.45575e-07
1.45575e-07
1.45575e-07
1.45575e-07
1.45575e-07
1.45575e-07
1.45575e-07
1.45575e-07
1.456e-07
1.45878e-07
1.45878e-07
1.45878e-07
1.45879e-07
1.45879e-07
1.4588e-07
1.4588e-07
1.4588e-07
1.45881e-07
1.45881e-07
1.45881e-07
1.45882e-07
1.45882e-07
1.45882e-07
1.45882e-07
1.45883e-07
1.45883e-07
1.45883e-07
1.45883e-07
1.45883e-07
1.45884e-07
1.45884e-07
1.45884e-07
1.45884e-07
1.45884e-07
1.45884e-07
1.45884e-07
1.45885e-07
1.45885e-07
1.45885e-07
1.45885e-07
1.45885e-07
1.45885e-07
1.45885e-07
1.45885e-07
1.45885e-07
1.45886e-07
1.45886e-07
1.45886e-07
1.45886e-07
1.45886e-07
1.45886e-07
1.45886e-07
1.45886e-07
1.45886e-07
1.45886e-07
1.45886e-07
1.45886e-07
1.45886e-07
1.45886e-07
1.45886e-07
1.45886e-07
1.45886e-07
1.45886e-07
1.45886e-07
1.45886e-07
1.45886e-07
1.45886e-07
1.45886e-07
1.45886e-07
1.45886e-07
1.45887e-07
1.45887e-07
1.45887e-07
1.45887e-07
1.45887e-07
1.45887e-07
1.45887e-07
1.45887e-07
1.45887e-07
1.45887e-07
1.45887e-07
1.45887e-07
1.45887e-07
1.45887e-07
1.45887e-07
1.45887e-07
1.45887e-07
1.45887e-07
1.45887e-07
1.45887e-07
1.45887e-07
1.45887e-07
1.45887e-07
1.45887e-07
1.45887e-07
1.45887e-07
1.45887e-07
1.45887e-07
1.45887e-07
1.45887e-07
1.45887e-07
1.45887e-07
1.45887e-07
1.45887e-07
1.45887e-07
1.45887e-07
1.45887e-07
1.45887e-07
1.45887e-07
1.45887e-07
1.45887e-07
1.45887e-07
1.45887e-07
1.45887e-07
1.45887e-07
1.45887e-07
1.45887e-07
1.45887e-07
1.45887e-07
1.45887e-07
1.45887e-07
1.45887e-07
1.45887e-07
1.45887e-07
1.45887e-07
1.45887e-07
1.45887e-07
1.45887e-07
1.45887e-07
1.45887e-07
1.45887e-07
1.45887e-07
1.45887e-07
1.45887e-07
1.45887e-07
1.45887e-07
1.45887e-07
1.45887e-07
1.45887e-07
1.45887e-07
1.45887e-07
1.45887e-07
1.45887e-07
1.45887e-07
1.45887e-07
1.45887e-07
1.45887e-07
1.45887e-07
1.45887e-07
1.45887e-07
1.45887e-07
1.45887e-07
1.45887e-07
1.45887e-07
1.45887e-07
1.45887e-07
1.45887e-07
1.45887e-07
1.45887e-07
1.45887e-07
1.45887e-07
1.45887e-07
1.45887e-07
1.45887e-07
1.45887e-07
1.45887e-07
1.45887e-07
1.45887e-07
1.45887e-07
1.45887e-07
1.45887e-07
1.45887e-07
1.45839e-07
1.45985e-07
1.45985e-07
1.45986e-07
1.45986e-07
1.45986e-07
1.45986e-07
1.45987e-07
1.45987e-07
1.45987e-07
1.45987e-07
1.45987e-07
1.45988e-07
1.45988e-07
1.45988e-07
1.45988e-07
1.45988e-07
1.45988e-07
1.45989e-07
1.45989e-07
1.45989e-07
1.45989e-07
1.45989e-07
1.45989e-07
1.45989e-07
1.45989e-07
1.45989e-07
1.4599e-07
1.4599e-07
1.4599e-07
1.4599e-07
1.4599e-07
1.4599e-07
1.4599e-07
1.4599e-07
1.4599e-07
1.4599e-07
1.4599e-07
1.4599e-07
1.4599e-07
1.4599e-07
1.4599e-07
1.4599e-07
1.45991e-07
1.45991e-07
1.45991e-07
1.45991e-07
1.45991e-07
1.45991e-07
1.45991e-07
1.45991e-07
1.45991e-07
1.45991e-07
1.45991e-07
1.45991e-07
1.45991e-07
1.45991e-07
1.45991e-07
1.45991e-07
1.45991e-07
1.45991e-07
1.45991e-07
1.45991e-07
1.45991e-07
1.45991e-07
1.45991e-07
1.45991e-07
1.45991e-07
1.45991e-07
1.45991e-07
1.45991e-07
1.45991e-07
1.45991e-07
1.45991e-07
1.45991e-07
1.45991e-07
1.45991e-07
1.45991e-07
1.45991e-07
1.45991e-07
1.45991e-07
1.45991e-07
1.45991e-07
1.45991e-07
1.45991e-07
1.45991e-07
1.45991e-07
1.45991e-07
1.45991e-07
1.45991e-07
1.45991e-07
1.45991e-07
1.45991e-07
1.45991e-07
1.45991e-07
1.45991e-07
1.45991e-07
1.45991e-07
1.45991e-07
1.45991e-07
1.45991e-07
1.45991e-07
1.45991e-07
1.45991e-07
1.45991e-07
1.45991e-07
1.45991e-07
1.45991e-07
1.45991e-07
1.45991e-07
1.45991e-07
1.45991e-07
1.45991e-07
1.45991e-07
1.45991e-07
1.45991e-07
1.45991e-07
1.45991e-07
1.45991e-07
1.45991e-07
1.45991e-07
1.45991e-07
1.45991e-07
1.45991e-07
1.45991e-07
1.45991e-07
1.45991e-07
1.45991e-07
1.45991e-07
1.45991e-07
1.45991e-07
1.45991e-07
1.45991e-07
1.45991e-07
1.45991e-07
1.45991e-07
1.45991e-07
1.45991e-07
1.45991e-07
1.45991e-07
1.45991e-07
1.45991e-07
1.45991e-07
1.45991e-07
1.45991e-07
1.45991e-07
1.45991e-07
1.45991e-07
1.45991e-07
1.45991e-07
1.45991e-07
1.45991e-07
1.45991e-07
1.45991e-07
1.45991e-07
1.45991e-07
1.45991e-07
1.45991e-07
1.45991e-07
1.45991e-07
1.45991e-07
1.45991e-07
1.45991e-07
1.45991e-07
1.45863e-07
1.46029e-07
1.46029e-07
1.46029e-07
1.46029e-07
1.46029e-07
1.46029e-07
1.4603e-07
1.4603e-07
1.4603e-07
1.4603e-07
1.4603e-07
1.4603e-07
1.46031e-07
1.46031e-07
1.46031e-07
1.46031e-07
1.46031e-07
1.46031e-07
1.46031e-07
1.46031e-07
1.46031e-07
1.46032e-07
1.46032e-07
1.46032e-07
1.46032e-07
1.46032e-07
1.46032e-07
1.46032e-07
1.46032e-07
1.46032e-07
1.46032e-07
1.46032e-07
1.46032e-07
1.46032e-07
1.46033e-07
1.46033e-07
1.46033e-07
1.46033e-07
1.46033e-07
1.46033e-07
1.46033e-07
1.46033e-07
1.46033e-07
1.46033e-07
1.46033e-07
1.46033e-07
1.46033e-07
1.46033e-07
1.46033e-07
1.46033e-07
1.46033e-07
1.46033e-07
1.46033e-07
1.46033e-07
1.46033e-07
1.46033e-07
1.46033e-07
1.46033e-07
1.46033e-07
1.46033e-07
1.46033e-07
1.46033e-07
1.46033e-07
1.46033e-07
1.46033e-07
1.46033e-07
1.46033e-07
1.46033e-07
1.46033e-07
1.46033e-07
1.46033e-07
1.46033e-07
1.46033e-07
1.46033e-07
1.46033e-07
1.46033e-07
1.46033e-07
1.46033e-07
1.46033e-07
1.46033e-07
1.46033e-07
1.46033e-07
1.46033e-07
1.46033e-07
1.46033e-07
1.46033e-07
1.46033e-07
1.46033e-07
1.46033e-07
1.46033e-07
1.46033e-07
1.46033e-07
1.46033e-07
1.46033e-07
1.46033e-07
1.46033e-07
1.46033e-07
1.46033e-07
1.46033e-07
1.46033e-07
1.46033e-07
1.46033e-07
1.46033e-07
1.46033e-07
1.46033e-07
1.46033e-07
1.46033e-07
1.46033e-07
1.46033e-07
1.46033e-07
1.46033e-07
1.46033e-07
1.46033e-07
1.46033e-07
1.46033e-07
1.46033e-07
1.46033e-07
1.46033e-07
1.46033e-07
1.46033e-07
1.46033e-07
1.46033e-07
1.46033e-07
1.46033e-07
1.46033e-07
1.46033e-07
1.46033e-07
1.46033e-07
1.46033e-07
1.46033e-07
1.46033e-07
1.46033e-07
1.46033e-07
1.46033e-07
1.46033e-07
1.46033e-07
1.46033e-07
1.46033e-07
1.46033e-07
1.46033e-07
1.46033e-07
1.46033e-07
1.46033e-07
1.46033e-07
1.46033e-07
1.46033e-07
1.46033e-07
1.46033e-07