/*--------------------------------*- C++ -*----------------------------------*\
| =========                 |                                                 |
| \\      /  F ield         | OpenFOAM: The Open Source CFD Toolbox           |
|  \\    /   O peration     | Version:  v1912                                 |
|   \\  /    A nd           | Website:  www.openfoam.com                      |
|    \\/     M anipulation  |                                                 |
\*---------------------------------------------------------------------------*/
FoamFile
{
    version     2.0;
    format      ascii;
    class       volScalarField;
    location    "30";
    object      omega;
}
// * * * * * * * * * * * * * * * * * * * * * * * * * * * * * * * * * * * * * //

dimensions      [0 0 -1 0 0 0 0];


internalField   nonuniform List<scalar> 
14268
(
44.5916
44.5916
44.5916
44.5916
44.5916
44.5916
44.5916
44.5916
44.5916
44.5916
44.5916
44.5916
44.5916
44.5916
44.5916
44.5916
44.5916
44.5916
44.5916
44.5916
44.5916
44.5916
44.5916
44.5916
44.5916
44.5916
44.5916
44.5916
44.5916
44.5916
44.5916
44.5916
44.5916
44.5916
44.5916
44.5916
44.5916
44.5916
44.5916
44.5916
44.5916
44.5916
44.5916
44.5916
44.5916
44.5916
44.5916
44.5916
44.5916
44.5916
44.5916
44.5916
44.5916
44.5916
44.5916
44.5916
44.5916
44.5916
44.5916
44.5916
44.5916
44.5916
44.5916
44.5916
44.5916
44.5916
44.5916
44.5916
44.5916
44.5916
44.5916
44.5916
44.5916
44.5916
44.5916
44.5916
44.5916
44.5916
44.5916
44.5916
44.5916
44.5916
44.5916
44.5916
44.5916
44.5916
44.5916
44.5916
44.5916
44.5916
44.5916
44.5916
44.5916
44.5916
44.5916
44.5916
44.5916
44.5916
44.5916
44.5916
44.5916
44.5916
44.5916
44.5916
44.5916
44.5916
44.5916
44.5916
44.5916
44.5916
44.5916
44.5916
44.5916
44.5916
44.5916
44.5916
44.5916
44.5916
44.5916
44.5916
44.5916
44.5916
44.5916
44.5916
44.5916
44.5916
44.5916
44.5916
44.5916
44.5916
44.5916
44.5916
44.5916
44.5916
44.5916
44.5916
44.5916
44.5916
44.5916
44.5916
44.5916
44.5916
44.5916
44.5916
44.5916
44.5916
44.5916
44.5916
44.5916
44.5916
44.5916
44.5916
44.5916
44.5916
44.5916
44.5916
44.5916
44.5916
44.5916
44.5916
44.5916
44.5916
44.5916
44.5916
7.88984
7.88936
7.8889
7.88846
7.88804
7.88765
7.88727
7.88691
7.88656
7.88624
7.88593
7.88563
7.88535
7.88508
7.88483
7.88459
7.88436
7.88414
7.88393
7.88374
7.88355
7.88337
7.8832
7.88304
7.88289
7.88275
7.88261
7.88248
7.88236
7.88225
7.88214
7.88203
7.88193
7.88184
7.88175
7.88167
7.88159
7.88151
7.88144
7.88138
7.88131
7.88125
7.8812
7.88115
7.8811
7.88105
7.881
7.88096
7.88092
7.88088
7.88085
7.88082
7.88078
7.88075
7.88073
7.8807
7.88068
7.88065
7.88063
7.88061
7.88059
7.88057
7.88056
7.88054
7.88053
7.88051
7.8805
7.88049
7.88047
7.88046
7.88045
7.88044
7.88043
7.88043
7.88042
7.88041
7.8804
7.8804
7.88039
7.88039
7.88038
7.88038
7.88037
7.88037
7.88036
7.88036
7.88036
7.88035
7.88035
7.88035
7.88035
7.88034
7.88034
7.88034
7.88034
7.88034
7.88033
7.88033
7.88033
7.88033
7.88033
7.88033
7.88033
7.88033
7.88032
7.88032
7.88032
7.88032
7.88032
7.88032
7.88032
7.88032
7.88032
7.88032
7.88032
7.88032
7.88032
7.88032
7.88032
7.88032
7.88032
7.88032
7.88032
7.88032
7.88032
7.88032
7.88032
7.88032
7.88032
7.88032
7.88032
7.88032
7.88032
7.88032
7.88032
7.88032
7.88032
7.88032
7.88032
7.88032
7.88032
7.88031
7.88032
7.88031
7.88031
7.88031
7.88031
7.88031
7.88031
7.88031
7.88031
7.88031
7.88031
7.88031
7.88031
7.88031
7.88031
7.88031
7.88031
7.88031
7.88031
7.88031
7.88026
7.8757
2.7256
2.72533
2.72507
2.72483
2.7246
2.72438
2.72417
2.72397
2.72378
2.7236
2.72342
2.72326
2.7231
2.72295
2.72281
2.72268
2.72255
2.72243
2.72232
2.72221
2.7221
2.722
2.72191
2.72182
2.72174
2.72166
2.72158
2.72151
2.72144
2.72138
2.72132
2.72126
2.72121
2.72115
2.7211
2.72106
2.72101
2.72097
2.72093
2.7209
2.72086
2.72083
2.7208
2.72077
2.72074
2.72071
2.72069
2.72067
2.72064
2.72062
2.7206
2.72059
2.72057
2.72055
2.72054
2.72052
2.72051
2.7205
2.72048
2.72047
2.72046
2.72045
2.72044
2.72043
2.72042
2.72042
2.72041
2.7204
2.7204
2.72039
2.72038
2.72038
2.72037
2.72037
2.72037
2.72036
2.72036
2.72035
2.72035
2.72035
2.72035
2.72034
2.72034
2.72034
2.72034
2.72033
2.72033
2.72033
2.72033
2.72033
2.72033
2.72032
2.72032
2.72032
2.72032
2.72032
2.72032
2.72032
2.72032
2.72032
2.72032
2.72032
2.72031
2.72031
2.72031
2.72031
2.72031
2.72031
2.72031
2.72031
2.72031
2.72031
2.72031
2.72031
2.72031
2.72031
2.72031
2.72031
2.72031
2.72031
2.72031
2.72031
2.72031
2.72031
2.72031
2.72031
2.72031
2.72031
2.72031
2.72031
2.72031
2.72031
2.72031
2.72031
2.72031
2.72031
2.72031
2.72031
2.72031
2.72031
2.72031
2.72031
2.72031
2.72031
2.72031
2.72031
2.72031
2.72031
2.72031
2.72031
2.72031
2.72031
2.72031
2.72031
2.72031
2.72031
2.72031
2.72031
2.72031
2.72031
2.72031
2.72031
2.72024
2.71752
1.32182
1.32164
1.32147
1.32131
1.32116
1.32101
1.32087
1.32074
1.32061
1.32049
1.32038
1.32027
1.32017
1.32007
1.31998
1.31989
1.3198
1.31972
1.31965
1.31957
1.31951
1.31944
1.31938
1.31932
1.31926
1.31921
1.31916
1.31911
1.31907
1.31903
1.31899
1.31895
1.31891
1.31888
1.31885
1.31882
1.31879
1.31876
1.31873
1.31871
1.31869
1.31866
1.31864
1.31862
1.31861
1.31859
1.31857
1.31856
1.31854
1.31853
1.31852
1.3185
1.31849
1.31848
1.31847
1.31846
1.31845
1.31844
1.31844
1.31843
1.31842
1.31841
1.31841
1.3184
1.3184
1.31839
1.31839
1.31838
1.31838
1.31837
1.31837
1.31837
1.31836
1.31836
1.31836
1.31836
1.31835
1.31835
1.31835
1.31835
1.31834
1.31834
1.31834
1.31834
1.31834
1.31834
1.31834
1.31833
1.31833
1.31833
1.31833
1.31833
1.31833
1.31833
1.31833
1.31833
1.31833
1.31833
1.31833
1.31833
1.31833
1.31832
1.31832
1.31832
1.31832
1.31832
1.31832
1.31832
1.31832
1.31832
1.31832
1.31832
1.31832
1.31832
1.31832
1.31832
1.31832
1.31832
1.31832
1.31832
1.31832
1.31832
1.31832
1.31832
1.31832
1.31832
1.31832
1.31832
1.31832
1.31832
1.31832
1.31832
1.31832
1.31832
1.31832
1.31832
1.31832
1.31832
1.31832
1.31832
1.31832
1.31832
1.31832
1.31832
1.31832
1.31832
1.31832
1.31832
1.31832
1.31832
1.31832
1.31832
1.31832
1.31832
1.31832
1.31832
1.31832
1.31832
1.31832
1.31832
1.31832
1.31832
1.31826
1.31654
0.793569
0.793452
0.79334
0.793234
0.793132
0.793036
0.792944
0.792857
0.792774
0.792695
0.792619
0.792548
0.79248
0.792415
0.792353
0.792295
0.792239
0.792187
0.792137
0.792089
0.792044
0.792001
0.79196
0.791922
0.791885
0.79185
0.791817
0.791786
0.791757
0.791728
0.791702
0.791677
0.791653
0.79163
0.791609
0.791589
0.79157
0.791552
0.791535
0.791519
0.791503
0.791489
0.791475
0.791463
0.79145
0.791439
0.791428
0.791418
0.791408
0.791399
0.791391
0.791383
0.791375
0.791368
0.791361
0.791355
0.791349
0.791344
0.791338
0.791333
0.791329
0.791324
0.79132
0.791316
0.791313
0.791309
0.791306
0.791303
0.7913
0.791298
0.791295
0.791293
0.791291
0.791289
0.791287
0.791285
0.791284
0.791282
0.791281
0.791279
0.791278
0.791277
0.791276
0.791275
0.791274
0.791273
0.791272
0.791271
0.791271
0.79127
0.791269
0.791269
0.791268
0.791268
0.791267
0.791267
0.791267
0.791266
0.791266
0.791266
0.791265
0.791265
0.791265
0.791265
0.791264
0.791264
0.791264
0.791264
0.791264
0.791264
0.791263
0.791263
0.791263
0.791263
0.791263
0.791263
0.791263
0.791263
0.791263
0.791263
0.791263
0.791263
0.791263
0.791263
0.791263
0.791263
0.791263
0.791263
0.791263
0.791263
0.791264
0.791263
0.791264
0.791263
0.791264
0.791263
0.791264
0.791263
0.791264
0.791262
0.791263
0.791262
0.791262
0.791261
0.791261
0.79126
0.791261
0.79126
0.791261
0.79126
0.791261
0.79126
0.791261
0.791261
0.791261
0.791261
0.791261
0.791261
0.791261
0.791261
0.79126
0.791259
0.791211
0.790121
0.563713
0.563639
0.56357
0.563503
0.56344
0.56338
0.563323
0.563268
0.563217
0.563167
0.56312
0.563076
0.563033
0.562993
0.562955
0.562918
0.562883
0.562851
0.562819
0.56279
0.562762
0.562735
0.562709
0.562685
0.562663
0.562641
0.56262
0.562601
0.562583
0.562565
0.562549
0.562533
0.562518
0.562504
0.562491
0.562478
0.562466
0.562455
0.562444
0.562434
0.562425
0.562416
0.562407
0.562399
0.562392
0.562385
0.562378
0.562372
0.562366
0.56236
0.562355
0.56235
0.562345
0.56234
0.562336
0.562332
0.562329
0.562325
0.562322
0.562319
0.562316
0.562313
0.56231
0.562308
0.562306
0.562304
0.562302
0.5623
0.562298
0.562296
0.562295
0.562294
0.562292
0.562291
0.56229
0.562289
0.562288
0.562287
0.562286
0.562285
0.562284
0.562283
0.562283
0.562282
0.562281
0.562281
0.56228
0.56228
0.562279
0.562279
0.562279
0.562278
0.562278
0.562278
0.562277
0.562277
0.562277
0.562277
0.562276
0.562276
0.562276
0.562276
0.562276
0.562276
0.562275
0.562275
0.562275
0.562275
0.562275
0.562275
0.562275
0.562275
0.562275
0.562275
0.562275
0.562275
0.562275
0.562275
0.562275
0.562275
0.562275
0.562275
0.562275
0.562275
0.562275
0.562275
0.562275
0.562275
0.562275
0.562275
0.562275
0.562275
0.562275
0.562275
0.562275
0.562275
0.562275
0.562275
0.562275
0.562274
0.562275
0.562274
0.562274
0.562273
0.562274
0.562273
0.562273
0.562273
0.562273
0.562273
0.562273
0.562273
0.562273
0.562273
0.562273
0.562273
0.562273
0.562273
0.562273
0.562273
0.562273
0.562272
0.562239
0.561585
0.459593
0.459551
0.459511
0.459473
0.459436
0.459402
0.459369
0.459337
0.459307
0.459279
0.459252
0.459226
0.459201
0.459178
0.459156
0.459135
0.459115
0.459096
0.459078
0.459061
0.459045
0.459029
0.459015
0.459001
0.458988
0.458975
0.458963
0.458952
0.458942
0.458932
0.458922
0.458913
0.458904
0.458896
0.458889
0.458881
0.458875
0.458868
0.458862
0.458856
0.458851
0.458845
0.458841
0.458836
0.458832
0.458827
0.458824
0.45882
0.458816
0.458813
0.45881
0.458807
0.458805
0.458802
0.4588
0.458797
0.458795
0.458793
0.458791
0.458789
0.458788
0.458786
0.458785
0.458783
0.458782
0.458781
0.45878
0.458779
0.458778
0.458777
0.458776
0.458775
0.458774
0.458773
0.458773
0.458772
0.458771
0.458771
0.45877
0.45877
0.458769
0.458769
0.458769
0.458768
0.458768
0.458768
0.458767
0.458767
0.458767
0.458766
0.458766
0.458766
0.458766
0.458766
0.458765
0.458765
0.458765
0.458765
0.458765
0.458765
0.458765
0.458765
0.458765
0.458764
0.458764
0.458764
0.458764
0.458764
0.458764
0.458764
0.458764
0.458764
0.458764
0.458764
0.458764
0.458764
0.458764
0.458764
0.458764
0.458764
0.458764
0.458764
0.458764
0.458764
0.458764
0.458764
0.458764
0.458764
0.458764
0.458764
0.458764
0.458764
0.458764
0.458764
0.458764
0.458764
0.458764
0.458764
0.458764
0.458764
0.458764
0.458763
0.458764
0.458763
0.458763
0.458763
0.458763
0.458763
0.458763
0.458763
0.458763
0.458763
0.458763
0.458763
0.458763
0.458763
0.458763
0.458763
0.458763
0.458763
0.458763
0.458762
0.458743
0.458374
0.413241
0.413219
0.413197
0.413177
0.413158
0.413139
0.413122
0.413105
0.413089
0.413074
0.41306
0.413046
0.413033
0.413021
0.413009
0.412998
0.412987
0.412977
0.412968
0.412959
0.41295
0.412942
0.412934
0.412927
0.41292
0.412913
0.412907
0.412901
0.412896
0.41289
0.412885
0.41288
0.412876
0.412872
0.412868
0.412864
0.41286
0.412857
0.412853
0.41285
0.412847
0.412845
0.412842
0.41284
0.412837
0.412835
0.412833
0.412831
0.412829
0.412828
0.412826
0.412824
0.412823
0.412822
0.41282
0.412819
0.412818
0.412817
0.412816
0.412815
0.412814
0.412813
0.412813
0.412812
0.412811
0.41281
0.41281
0.412809
0.412809
0.412808
0.412808
0.412807
0.412807
0.412807
0.412806
0.412806
0.412806
0.412805
0.412805
0.412805
0.412804
0.412804
0.412804
0.412804
0.412804
0.412803
0.412803
0.412803
0.412803
0.412803
0.412803
0.412803
0.412803
0.412802
0.412802
0.412802
0.412802
0.412802
0.412802
0.412802
0.412802
0.412802
0.412802
0.412802
0.412802
0.412802
0.412802
0.412802
0.412802
0.412802
0.412802
0.412802
0.412802
0.412802
0.412802
0.412802
0.412802
0.412802
0.412802
0.412802
0.412802
0.412802
0.412802
0.412802
0.412802
0.412802
0.412802
0.412802
0.412802
0.412802
0.412802
0.412802
0.412802
0.412802
0.412802
0.412802
0.412802
0.412802
0.412802
0.412801
0.412802
0.412801
0.412801
0.412801
0.412801
0.412801
0.412801
0.412801
0.412801
0.412801
0.412801
0.412801
0.412801
0.412801
0.412801
0.412801
0.412801
0.412801
0.412801
0.412801
0.412801
0.412801
0.412791
0.412578
0.39353
0.393519
0.393509
0.393499
0.393489
0.39348
0.393472
0.393464
0.393456
0.393449
0.393442
0.393435
0.393429
0.393423
0.393417
0.393411
0.393406
0.393401
0.393397
0.393392
0.393388
0.393384
0.39338
0.393377
0.393373
0.39337
0.393367
0.393364
0.393362
0.393359
0.393356
0.393354
0.393352
0.39335
0.393348
0.393346
0.393344
0.393343
0.393341
0.393339
0.393338
0.393337
0.393335
0.393334
0.393333
0.393332
0.393331
0.39333
0.393329
0.393328
0.393328
0.393327
0.393326
0.393326
0.393325
0.393324
0.393324
0.393323
0.393323
0.393322
0.393322
0.393321
0.393321
0.393321
0.39332
0.39332
0.39332
0.39332
0.393319
0.393319
0.393319
0.393319
0.393318
0.393318
0.393318
0.393318
0.393318
0.393318
0.393317
0.393317
0.393317
0.393317
0.393317
0.393317
0.393317
0.393317
0.393317
0.393317
0.393317
0.393316
0.393316
0.393316
0.393316
0.393316
0.393316
0.393316
0.393316
0.393316
0.393316
0.393316
0.393316
0.393316
0.393316
0.393316
0.393316
0.393316
0.393316
0.393316
0.393316
0.393316
0.393316
0.393316
0.393316
0.393316
0.393316
0.393316
0.393316
0.393316
0.393316
0.393316
0.393316
0.393316
0.393316
0.393316
0.393316
0.393316
0.393316
0.393316
0.393316
0.393316
0.393316
0.393316
0.393316
0.393316
0.393316
0.393316
0.393316
0.393316
0.393316
0.393316
0.393316
0.393316
0.393316
0.393316
0.393316
0.393316
0.393316
0.393316
0.393316
0.393316
0.393316
0.393316
0.393316
0.393316
0.393316
0.393316
0.393316
0.393316
0.393316
0.393316
0.393316
0.393315
0.393311
0.393145
0.385626
0.38562
0.385616
0.385611
0.385607
0.385603
0.385599
0.385595
0.385592
0.385588
0.385585
0.385582
0.385579
0.385577
0.385574
0.385572
0.385569
0.385567
0.385565
0.385563
0.385561
0.385559
0.385558
0.385556
0.385554
0.385553
0.385552
0.38555
0.385549
0.385548
0.385547
0.385546
0.385545
0.385544
0.385543
0.385542
0.385541
0.38554
0.38554
0.385539
0.385538
0.385538
0.385537
0.385537
0.385536
0.385536
0.385535
0.385535
0.385534
0.385534
0.385534
0.385533
0.385533
0.385533
0.385532
0.385532
0.385532
0.385532
0.385531
0.385531
0.385531
0.385531
0.385531
0.385531
0.38553
0.38553
0.38553
0.38553
0.38553
0.38553
0.38553
0.38553
0.385529
0.385529
0.385529
0.385529
0.385529
0.385529
0.385529
0.385529
0.385529
0.385529
0.385529
0.385529
0.385529
0.385529
0.385529
0.385529
0.385529
0.385529
0.385529
0.385529
0.385529
0.385528
0.385528
0.385528
0.385528
0.385528
0.385528
0.385528
0.385528
0.385528
0.385528
0.385528
0.385528
0.385528
0.385528
0.385528
0.385528
0.385528
0.385528
0.385528
0.385528
0.385528
0.385528
0.385528
0.385528
0.385528
0.385528
0.385528
0.385528
0.385528
0.385528
0.385528
0.385528
0.385528
0.385528
0.385528
0.385528
0.385528
0.385528
0.385528
0.385528
0.385528
0.385528
0.385528
0.385528
0.385528
0.385528
0.385528
0.385528
0.385528
0.385528
0.385528
0.385528
0.385528
0.385528
0.385528
0.385528
0.385528
0.385528
0.385528
0.385528
0.385528
0.385528
0.385528
0.385528
0.385528
0.385528
0.385528
0.385528
0.385528
0.385526
0.385315
0.382651
0.382648
0.382646
0.382644
0.382642
0.382641
0.382639
0.382637
0.382636
0.382635
0.382633
0.382632
0.382631
0.382629
0.382628
0.382627
0.382626
0.382625
0.382624
0.382623
0.382623
0.382622
0.382621
0.38262
0.38262
0.382619
0.382619
0.382618
0.382617
0.382617
0.382616
0.382616
0.382616
0.382615
0.382615
0.382614
0.382614
0.382614
0.382613
0.382613
0.382613
0.382613
0.382612
0.382612
0.382612
0.382612
0.382611
0.382611
0.382611
0.382611
0.382611
0.382611
0.382611
0.38261
0.38261
0.38261
0.38261
0.38261
0.38261
0.38261
0.38261
0.38261
0.38261
0.382609
0.382609
0.382609
0.382609
0.382609
0.382609
0.382609
0.382609
0.382609
0.382609
0.382609
0.382609
0.382609
0.382609
0.382609
0.382609
0.382609
0.382609
0.382609
0.382609
0.382609
0.382609
0.382609
0.382609
0.382609
0.382609
0.382609
0.382609
0.382609
0.382609
0.382609
0.382609
0.382609
0.382609
0.382609
0.382609
0.382609
0.382609
0.382609
0.382609
0.382609
0.382609
0.382609
0.382609
0.382609
0.382609
0.382609
0.382609
0.382609
0.382609
0.382609
0.382609
0.382609
0.382609
0.382609
0.382609
0.382609
0.382609
0.382609
0.382609
0.382609
0.382609
0.382609
0.382609
0.382609
0.382609
0.382609
0.382609
0.382609
0.382609
0.382609
0.382609
0.382609
0.382609
0.382609
0.382609
0.382609
0.382609
0.382609
0.382609
0.382608
0.382609
0.382608
0.382609
0.382608
0.382608
0.382608
0.382608
0.382608
0.382608
0.382608
0.382608
0.382608
0.382609
0.382608
0.382608
0.382608
0.382608
0.382608
0.382608
0.382249
0.381601
0.3816
0.381599
0.381598
0.381597
0.381597
0.381596
0.381595
0.381595
0.381594
0.381593
0.381593
0.381592
0.381592
0.381591
0.381591
0.38159
0.38159
0.38159
0.381589
0.381589
0.381588
0.381588
0.381588
0.381588
0.381587
0.381587
0.381587
0.381587
0.381586
0.381586
0.381586
0.381586
0.381586
0.381585
0.381585
0.381585
0.381585
0.381585
0.381585
0.381584
0.381584
0.381584
0.381584
0.381584
0.381584
0.381584
0.381584
0.381584
0.381584
0.381584
0.381584
0.381583
0.381583
0.381583
0.381583
0.381583
0.381583
0.381583
0.381583
0.381583
0.381583
0.381583
0.381583
0.381583
0.381583
0.381583
0.381583
0.381583
0.381583
0.381583
0.381583
0.381583
0.381583
0.381583
0.381583
0.381583
0.381583
0.381583
0.381583
0.381583
0.381583
0.381583
0.381583
0.381583
0.381583
0.381583
0.381583
0.381583
0.381583
0.381583
0.381583
0.381583
0.381583
0.381583
0.381583
0.381583
0.381583
0.381583
0.381583
0.381583
0.381583
0.381583
0.381583
0.381583
0.381583
0.381583
0.381583
0.381583
0.381583
0.381583
0.381583
0.381583
0.381583
0.381583
0.381583
0.381583
0.381583
0.381583
0.381583
0.381583
0.381583
0.381583
0.381583
0.381583
0.381583
0.381583
0.381583
0.381583
0.381583
0.381583
0.381583
0.381583
0.381583
0.381583
0.381583
0.381583
0.381583
0.381583
0.381583
0.381583
0.381583
0.381583
0.381583
0.381583
0.381583
0.381583
0.381583
0.381583
0.381583
0.381583
0.381583
0.381583
0.381583
0.381583
0.381583
0.381583
0.381583
0.381583
0.381583
0.381583
0.381583
0.381582
0.380866
0.381254
0.381253
0.381253
0.381252
0.381252
0.381252
0.381251
0.381251
0.381251
0.38125
0.38125
0.38125
0.38125
0.381249
0.381249
0.381249
0.381249
0.381248
0.381248
0.381248
0.381248
0.381248
0.381248
0.381247
0.381247
0.381247
0.381247
0.381247
0.381247
0.381247
0.381247
0.381246
0.381246
0.381246
0.381246
0.381246
0.381246
0.381246
0.381246
0.381246
0.381246
0.381246
0.381246
0.381246
0.381246
0.381246
0.381245
0.381245
0.381245
0.381245
0.381245
0.381245
0.381245
0.381245
0.381245
0.381245
0.381245
0.381245
0.381245
0.381245
0.381245
0.381245
0.381245
0.381245
0.381245
0.381245
0.381245
0.381245
0.381245
0.381245
0.381245
0.381245
0.381245
0.381245
0.381245
0.381245
0.381245
0.381245
0.381245
0.381245
0.381245
0.381245
0.381245
0.381245
0.381245
0.381245
0.381245
0.381245
0.381245
0.381245
0.381245
0.381245
0.381245
0.381245
0.381245
0.381245
0.381245
0.381245
0.381245
0.381245
0.381245
0.381245
0.381245
0.381245
0.381245
0.381245
0.381245
0.381245
0.381245
0.381245
0.381245
0.381245
0.381245
0.381245
0.381245
0.381245
0.381245
0.381245
0.381245
0.381245
0.381245
0.381245
0.381245
0.381245
0.381245
0.381245
0.381245
0.381245
0.381245
0.381245
0.381245
0.381245
0.381245
0.381245
0.381245
0.381245
0.381245
0.381245
0.381245
0.381245
0.381245
0.381245
0.381245
0.381245
0.381245
0.381245
0.381245
0.381245
0.381245
0.381245
0.381245
0.381245
0.381245
0.381245
0.381245
0.381245
0.381245
0.381245
0.381245
0.381245
0.381245
0.381245
0.381244
0.381359
0.381147
0.381147
0.381147
0.381146
0.381146
0.381146
0.381146
0.381145
0.381145
0.381145
0.381145
0.381145
0.381145
0.381144
0.381144
0.381144
0.381144
0.381144
0.381144
0.381144
0.381144
0.381143
0.381143
0.381143
0.381143
0.381143
0.381143
0.381143
0.381143
0.381143
0.381143
0.381143
0.381143
0.381142
0.381142
0.381142
0.381142
0.381142
0.381142
0.381142
0.381142
0.381142
0.381142
0.381142
0.381142
0.381142
0.381142
0.381142
0.381142
0.381142
0.381142
0.381142
0.381142
0.381142
0.381142
0.381142
0.381142
0.381142
0.381142
0.381142
0.381142
0.381142
0.381142
0.381142
0.381142
0.381142
0.381142
0.381142
0.381142
0.381142
0.381142
0.381142
0.381142
0.381142
0.381142
0.381142
0.381142
0.381142
0.381142
0.381142
0.381142
0.381142
0.381142
0.381142
0.381142
0.381142
0.381142
0.381142
0.381142
0.381142
0.381142
0.381142
0.381142
0.381142
0.381142
0.381142
0.381142
0.381142
0.381142
0.381142
0.381142
0.381142
0.381142
0.381142
0.381142
0.381142
0.381142
0.381142
0.381142
0.381142
0.381142
0.381142
0.381142
0.381142
0.381142
0.381142
0.381142
0.381142
0.381142
0.381142
0.381142
0.381142
0.381142
0.381142
0.381142
0.381142
0.381142
0.381142
0.381142
0.381142
0.381142
0.381142
0.381142
0.381142
0.381142
0.381142
0.381142
0.381142
0.381142
0.381142
0.381142
0.381142
0.381142
0.381142
0.381142
0.381142
0.381142
0.381142
0.381142
0.381142
0.381142
0.381142
0.381142
0.381142
0.381142
0.381142
0.381142
0.381142
0.381142
0.381142
0.381142
0.381142
0.381141
0.382332
0.381108
0.381108
0.381107
0.381107
0.381107
0.381107
0.381107
0.381107
0.381106
0.381106
0.381106
0.381106
0.381106
0.381106
0.381106
0.381105
0.381105
0.381105
0.381105
0.381105
0.381105
0.381105
0.381105
0.381105
0.381105
0.381105
0.381105
0.381104
0.381104
0.381104
0.381104
0.381104
0.381104
0.381104
0.381104
0.381104
0.381104
0.381104
0.381104
0.381104
0.381104
0.381104
0.381104
0.381104
0.381104
0.381104
0.381104
0.381104
0.381104
0.381104
0.381104
0.381104
0.381104
0.381104
0.381104
0.381104
0.381104
0.381104
0.381103
0.381103
0.381103
0.381103
0.381103
0.381103
0.381103
0.381103
0.381103
0.381103
0.381103
0.381103
0.381103
0.381103
0.381103
0.381103
0.381103
0.381103
0.381103
0.381103
0.381103
0.381103
0.381103
0.381103
0.381103
0.381103
0.381103
0.381103
0.381103
0.381103
0.381103
0.381103
0.381103
0.381103
0.381103
0.381103
0.381103
0.381103
0.381103
0.381103
0.381103
0.381103
0.381103
0.381103
0.381103
0.381103
0.381103
0.381103
0.381103
0.381103
0.381103
0.381103
0.381103
0.381103
0.381103
0.381103
0.381103
0.381103
0.381103
0.381103
0.381103
0.381103
0.381103
0.381103
0.381103
0.381103
0.381103
0.381103
0.381103
0.381103
0.381103
0.381103
0.381103
0.381103
0.381103
0.381103
0.381103
0.381103
0.381103
0.381103
0.381103
0.381103
0.381103
0.381103
0.381103
0.381103
0.381103
0.381103
0.381103
0.381103
0.381103
0.381103
0.381103
0.381103
0.381103
0.381103
0.381103
0.381103
0.381103
0.381103
0.381103
0.381103
0.381103
0.381103
0.381104
0.382835
0.381102
0.381102
0.381102
0.381102
0.381101
0.381101
0.381101
0.381101
0.381101
0.381101
0.381101
0.3811
0.3811
0.3811
0.3811
0.3811
0.3811
0.3811
0.3811
0.3811
0.3811
0.3811
0.381099
0.381099
0.381099
0.381099
0.381099
0.381099
0.381099
0.381099
0.381099
0.381099
0.381099
0.381099
0.381099
0.381099
0.381099
0.381099
0.381099
0.381099
0.381099
0.381099
0.381099
0.381099
0.381099
0.381098
0.381098
0.381098
0.381098
0.381098
0.381098
0.381098
0.381098
0.381098
0.381098
0.381098
0.381098
0.381098
0.381098
0.381098
0.381098
0.381098
0.381098
0.381098
0.381098
0.381098
0.381098
0.381098
0.381098
0.381098
0.381098
0.381098
0.381098
0.381098
0.381098
0.381098
0.381098
0.381098
0.381098
0.381098
0.381098
0.381098
0.381098
0.381098
0.381098
0.381098
0.381098
0.381098
0.381098
0.381098
0.381098
0.381098
0.381098
0.381098
0.381098
0.381098
0.381098
0.381098
0.381098
0.381098
0.381098
0.381098
0.381098
0.381098
0.381098
0.381098
0.381098
0.381098
0.381098
0.381098
0.381098
0.381098
0.381098
0.381098
0.381098
0.381098
0.381098
0.381098
0.381098
0.381098
0.381098
0.381098
0.381098
0.381098
0.381098
0.381098
0.381098
0.381098
0.381098
0.381098
0.381098
0.381098
0.381098
0.381098
0.381098
0.381098
0.381098
0.381098
0.381098
0.381098
0.381098
0.381098
0.381098
0.381098
0.381098
0.381098
0.381098
0.381098
0.381098
0.381098
0.381098
0.381098
0.381098
0.381098
0.381098
0.381098
0.381098
0.381098
0.381098
0.381098
0.381098
0.381098
0.381099
0.382942
0.381102
0.381102
0.381101
0.381101
0.381101
0.381101
0.381101
0.381101
0.381101
0.3811
0.3811
0.3811
0.3811
0.3811
0.3811
0.3811
0.3811
0.3811
0.381099
0.381099
0.381099
0.381099
0.381099
0.381099
0.381099
0.381099
0.381099
0.381099
0.381099
0.381099
0.381099
0.381099
0.381099
0.381098
0.381098
0.381098
0.381098
0.381098
0.381098
0.381098
0.381098
0.381098
0.381098
0.381098
0.381098
0.381098
0.381098
0.381098
0.381098
0.381098
0.381098
0.381098
0.381098
0.381098
0.381098
0.381098
0.381098
0.381098
0.381098
0.381098
0.381098
0.381098
0.381098
0.381098
0.381098
0.381098
0.381098
0.381098
0.381098
0.381098
0.381098
0.381098
0.381098
0.381098
0.381098
0.381098
0.381098
0.381098
0.381098
0.381098
0.381098
0.381098
0.381098
0.381098
0.381098
0.381098
0.381098
0.381098
0.381098
0.381098
0.381098
0.381098
0.381098
0.381098
0.381098
0.381098
0.381098
0.381098
0.381098
0.381098
0.381098
0.381098
0.381098
0.381098
0.381098
0.381098
0.381098
0.381098
0.381098
0.381098
0.381098
0.381098
0.381098
0.381098
0.381098
0.381098
0.381098
0.381098
0.381098
0.381098
0.381098
0.381098
0.381098
0.381098
0.381098
0.381098
0.381098
0.381098
0.381098
0.381098
0.381098
0.381098
0.381098
0.381098
0.381098
0.381098
0.381098
0.381098
0.381098
0.381098
0.381098
0.381098
0.381098
0.381098
0.381098
0.381098
0.381098
0.381098
0.381098
0.381098
0.381098
0.381098
0.381098
0.381098
0.381098
0.381098
0.381098
0.381098
0.381098
0.381098
0.381098
0.381098
0.381099
0.382957
0.381102
0.381102
0.381101
0.381101
0.381101
0.381101
0.381101
0.381101
0.381101
0.3811
0.3811
0.3811
0.3811
0.3811
0.3811
0.3811
0.3811
0.3811
0.381099
0.381099
0.381099
0.381099
0.381099
0.381099
0.381099
0.381099
0.381099
0.381099
0.381099
0.381099
0.381099
0.381099
0.381099
0.381098
0.381098
0.381098
0.381098
0.381098
0.381098
0.381098
0.381098
0.381098
0.381098
0.381098
0.381098
0.381098
0.381098
0.381098
0.381098
0.381098
0.381098
0.381098
0.381098
0.381098
0.381098
0.381098
0.381098
0.381098
0.381098
0.381098
0.381098
0.381098
0.381098
0.381098
0.381098
0.381098
0.381098
0.381098
0.381098
0.381098
0.381098
0.381098
0.381098
0.381098
0.381098
0.381098
0.381098
0.381098
0.381098
0.381098
0.381098
0.381098
0.381098
0.381098
0.381098
0.381098
0.381098
0.381098
0.381098
0.381098
0.381098
0.381098
0.381098
0.381098
0.381098
0.381098
0.381098
0.381098
0.381098
0.381098
0.381098
0.381098
0.381098
0.381098
0.381098
0.381098
0.381098
0.381098
0.381098
0.381098
0.381098
0.381098
0.381098
0.381098
0.381098
0.381098
0.381098
0.381098
0.381098
0.381098
0.381098
0.381098
0.381098
0.381098
0.381098
0.381098
0.381098
0.381098
0.381098
0.381098
0.381098
0.381098
0.381098
0.381098
0.381098
0.381098
0.381098
0.381098
0.381098
0.381098
0.381098
0.381098
0.381098
0.381098
0.381098
0.381098
0.381098
0.381098
0.381098
0.381098
0.381098
0.381098
0.381098
0.381098
0.381098
0.381098
0.381098
0.381098
0.381098
0.381098
0.381098
0.381098
0.381099
0.382968
0.381102
0.381102
0.381101
0.381101
0.381101
0.381101
0.381101
0.381101
0.381101
0.3811
0.3811
0.3811
0.3811
0.3811
0.3811
0.3811
0.3811
0.3811
0.381099
0.381099
0.381099
0.381099
0.381099
0.381099
0.381099
0.381099
0.381099
0.381099
0.381099
0.381099
0.381099
0.381099
0.381099
0.381098
0.381098
0.381098
0.381098
0.381098
0.381098
0.381098
0.381098
0.381098
0.381098
0.381098
0.381098
0.381098
0.381098
0.381098
0.381098
0.381098
0.381098
0.381098
0.381098
0.381098
0.381098
0.381098
0.381098
0.381098
0.381098
0.381098
0.381098
0.381098
0.381098
0.381098
0.381098
0.381098
0.381098
0.381098
0.381098
0.381098
0.381098
0.381098
0.381098
0.381098
0.381098
0.381098
0.381098
0.381098
0.381098
0.381098
0.381098
0.381098
0.381098
0.381098
0.381098
0.381098
0.381098
0.381098
0.381098
0.381098
0.381098
0.381098
0.381098
0.381098
0.381098
0.381098
0.381098
0.381098
0.381098
0.381098
0.381098
0.381098
0.381098
0.381098
0.381098
0.381098
0.381098
0.381098
0.381098
0.381098
0.381098
0.381098
0.381098
0.381098
0.381098
0.381098
0.381098
0.381098
0.381098
0.381098
0.381098
0.381098
0.381098
0.381098
0.381098
0.381098
0.381098
0.381098
0.381098
0.381098
0.381098
0.381098
0.381098
0.381098
0.381098
0.381098
0.381098
0.381098
0.381098
0.381098
0.381098
0.381098
0.381098
0.381098
0.381098
0.381098
0.381098
0.381098
0.381098
0.381098
0.381098
0.381098
0.381098
0.381098
0.381098
0.381098
0.381098
0.381098
0.381098
0.381098
0.381098
0.381098
0.381099
0.38297
0.381102
0.381102
0.381102
0.381102
0.381101
0.381101
0.381101
0.381101
0.381101
0.381101
0.381101
0.3811
0.3811
0.3811
0.3811
0.3811
0.3811
0.3811
0.3811
0.3811
0.3811
0.381099
0.381099
0.381099
0.381099
0.381099
0.381099
0.381099
0.381099
0.381099
0.381099
0.381099
0.381099
0.381099
0.381099
0.381099
0.381099
0.381099
0.381098
0.381098
0.381098
0.381098
0.381098
0.381098
0.381098
0.381098
0.381098
0.381098
0.381098
0.381098
0.381098
0.381098
0.381098
0.381098
0.381098
0.381098
0.381098
0.381098
0.381098
0.381098
0.381098
0.381098
0.381098
0.381098
0.381098
0.381098
0.381098
0.381098
0.381098
0.381098
0.381098
0.381098
0.381098
0.381098
0.381098
0.381098
0.381098
0.381098
0.381098
0.381098
0.381098
0.381098
0.381098
0.381098
0.381098
0.381098
0.381098
0.381098
0.381098
0.381098
0.381098
0.381098
0.381098
0.381098
0.381098
0.381098
0.381098
0.381098
0.381098
0.381098
0.381098
0.381098
0.381098
0.381098
0.381098
0.381098
0.381098
0.381098
0.381098
0.381098
0.381098
0.381098
0.381098
0.381098
0.381098
0.381098
0.381098
0.381098
0.381098
0.381098
0.381098
0.381098
0.381098
0.381098
0.381098
0.381098
0.381098
0.381098
0.381098
0.381098
0.381098
0.381098
0.381098
0.381098
0.381098
0.381098
0.381098
0.381098
0.381098
0.381098
0.381098
0.381098
0.381098
0.381098
0.381098
0.381098
0.381098
0.381098
0.381098
0.381098
0.381098
0.381098
0.381098
0.381098
0.381098
0.381098
0.381098
0.381098
0.381098
0.381098
0.381098
0.381098
0.381099
0.382976
0.381102
0.381102
0.381102
0.381101
0.381101
0.381101
0.381101
0.381101
0.381101
0.3811
0.3811
0.3811
0.3811
0.3811
0.3811
0.3811
0.3811
0.3811
0.3811
0.381099
0.381099
0.381099
0.381099
0.381099
0.381099
0.381099
0.381099
0.381099
0.381099
0.381099
0.381099
0.381099
0.381099
0.381099
0.381099
0.381098
0.381098
0.381098
0.381098
0.381098
0.381098
0.381098
0.381098
0.381098
0.381098
0.381098
0.381098
0.381098
0.381098
0.381098
0.381098
0.381098
0.381098
0.381098
0.381098
0.381098
0.381098