/*--------------------------------*- C++ -*----------------------------------*\
| =========                 |                                                 |
| \\      /  F ield         | OpenFOAM: The Open Source CFD Toolbox           |
|  \\    /   O peration     | Version:  v1912                                 |
|   \\  /    A nd           | Website:  www.openfoam.com                      |
|    \\/     M anipulation  |                                                 |
\*---------------------------------------------------------------------------*/
FoamFile
{
    version     2.0;
    format      ascii;
    class       volScalarField;
    location    "30";
    object      p;
}
// * * * * * * * * * * * * * * * * * * * * * * * * * * * * * * * * * * * * * //

dimensions      [1 -1 -2 0 0 0 0];


internalField   nonuniform List<scalar> 
14268
(
-147.266
-147.855
-148.444
-149.033
-149.621
-150.21
-150.799
-151.388
-151.976
-152.565
-153.154
-153.743
-154.331
-154.92
-155.509
-156.097
-156.686
-157.275
-157.863
-158.452
-159.041
-159.629
-160.218
-160.807
-161.395
-161.984
-162.573
-163.161
-163.75
-164.339
-164.927
-165.516
-166.105
-166.693
-167.282
-167.87
-168.459
-169.048
-169.636
-170.225
-170.814
-171.402
-171.991
-172.579
-173.168
-173.757
-174.345
-174.934
-175.522
-176.111
-176.7
-177.288
-177.877
-178.466
-179.054
-179.643
-180.231
-180.82
-181.409
-181.997
-182.586
-183.174
-183.763
-184.352
-184.94
-185.529
-186.117
-186.706
-187.295
-187.883
-188.472
-189.06
-189.649
-190.238
-190.826
-191.415
-192.003
-192.592
-193.181
-193.769
-194.358
-194.946
-195.535
-196.124
-196.712
-197.301
-197.889
-198.478
-199.067
-199.655
-200.244
-200.832
-201.421
-202.01
-202.598
-203.187
-203.775
-204.364
-204.953
-205.541
-206.13
-206.718
-207.307
-207.896
-208.484
-209.073
-209.661
-210.25
-210.839
-211.427
-212.016
-212.604
-213.193
-213.782
-214.37
-214.959
-215.547
-216.136
-216.725
-217.313
-217.902
-218.49
-219.079
-219.668
-220.256
-220.845
-221.433
-222.022
-222.611
-223.199
-223.788
-224.376
-224.965
-225.554
-226.142
-226.731
-227.319
-227.908
-228.497
-229.085
-229.674
-230.262
-230.851
-231.44
-232.028
-232.617
-233.205
-233.794
-234.383
-234.971
-235.56
-236.148
-236.737
-237.326
-237.914
-238.503
-239.091
-239.68
-240.269
-240.857
-241.446
-242.034
-242.623
-243.212
-147.388
-147.977
-148.566
-149.154
-149.743
-150.332
-150.921
-151.51
-152.098
-152.687
-153.276
-153.864
-154.453
-155.042
-155.631
-156.219
-156.808
-157.397
-157.985
-158.574
-159.163
-159.751
-160.34
-160.929
-161.517
-162.106
-162.695
-163.283
-163.872
-164.461
-165.049
-165.638
-166.226
-166.815
-167.404
-167.992
-168.581
-169.17
-169.758
-170.347
-170.935
-171.524
-172.113
-172.701
-173.29
-173.879
-174.467
-175.056
-175.644
-176.233
-176.822
-177.41
-177.999
-178.587
-179.176
-179.765
-180.353
-180.942
-181.53
-182.119
-182.708
-183.296
-183.885
-184.473
-185.062
-185.651
-186.239
-186.828
-187.417
-188.005
-188.594
-189.182
-189.771
-190.36
-190.948
-191.537
-192.125
-192.714
-193.303
-193.891
-194.48
-195.068
-195.657
-196.246
-196.834
-197.423
-198.011
-198.6
-199.189
-199.777
-200.366
-200.954
-201.543
-202.132
-202.72
-203.309
-203.897
-204.486
-205.075
-205.663
-206.252
-206.84
-207.429
-208.018
-208.606
-209.195
-209.783
-210.372
-210.961
-211.549
-212.138
-212.726
-213.315
-213.904
-214.492
-215.081
-215.669
-216.258
-216.847
-217.435
-218.024
-218.612
-219.201
-219.79
-220.378
-220.967
-221.555
-222.144
-222.733
-223.321
-223.91
-224.498
-225.087
-225.676
-226.264
-226.853
-227.441
-228.03
-228.619
-229.207
-229.796
-230.384
-230.973
-231.562
-232.15
-232.739
-233.327
-233.916
-234.505
-235.093
-235.682
-236.27
-236.859
-237.448
-238.036
-238.625
-239.213
-239.802
-240.391
-240.979
-241.568
-242.156
-242.745
-243.334
-147.51
-148.099
-148.688
-149.276
-149.865
-150.454
-151.043
-151.631
-152.22
-152.809
-153.398
-153.986
-154.575
-155.164
-155.753
-156.341
-156.93
-157.519
-158.107
-158.696
-159.285
-159.873
-160.462
-161.051
-161.639
-162.228
-162.817
-163.405
-163.994
-164.582
-165.171
-165.76
-166.348
-166.937
-167.526
-168.114
-168.703
-169.292
-169.88
-170.469
-171.057
-171.646
-172.235
-172.823
-173.412
-174
-174.589
-175.178
-175.766
-176.355
-176.944
-177.532
-178.121
-178.709
-179.298
-179.887
-180.475
-181.064
-181.652
-182.241
-182.83
-183.418
-184.007
-184.595
-185.184
-185.773
-186.361
-186.95
-187.538
-188.127
-188.716
-189.304
-189.893
-190.481
-191.07
-191.659
-192.247
-192.836
-193.424
-194.013
-194.602
-195.19
-195.779
-196.367
-196.956
-197.545
-198.133
-198.722
-199.31
-199.899
-200.488
-201.076
-201.665
-202.253
-202.842
-203.431
-204.019
-204.608
-205.196
-205.785
-206.374
-206.962
-207.551
-208.139
-208.728
-209.317
-209.905
-210.494
-211.082
-211.671
-212.26
-212.848
-213.437
-214.025
-214.614
-215.203
-215.791
-216.38
-216.968
-217.557
-218.146
-218.734
-219.323
-219.911
-220.5
-221.089
-221.677
-222.266
-222.854
-223.443
-224.032
-224.62
-225.209
-225.797
-226.386
-226.975
-227.563
-228.152
-228.74
-229.329
-229.918
-230.506
-231.095
-231.683
-232.272
-232.861
-233.449
-234.038
-234.626
-235.215
-235.804
-236.392
-236.981
-237.569
-238.158
-238.747
-239.335
-239.924
-240.512
-241.101
-241.69
-242.278
-242.867
-243.455
-147.632
-148.221
-148.81
-149.398
-149.987
-150.576
-151.165
-151.753
-152.342
-152.931
-153.52
-154.108
-154.697
-155.286
-155.874
-156.463
-157.052
-157.64
-158.229
-158.818
-159.407
-159.995
-160.584
-161.173
-161.761
-162.35
-162.938
-163.527
-164.116
-164.704
-165.293
-165.882
-166.47
-167.059
-167.648
-168.236
-168.825
-169.413
-170.002
-170.591
-171.179
-171.768
-172.357
-172.945
-173.534
-174.122
-174.711
-175.3
-175.888
-176.477
-177.065
-177.654
-178.243
-178.831
-179.42
-180.009
-180.597
-181.186
-181.774
-182.363
-182.952
-183.54
-184.129
-184.717
-185.306
-185.895
-186.483
-187.072
-187.66
-188.249
-188.838
-189.426
-190.015
-190.603
-191.192
-191.781
-192.369
-192.958
-193.546
-194.135
-194.724
-195.312
-195.901
-196.489
-197.078
-197.667
-198.255
-198.844
-199.432
-200.021
-200.61
-201.198
-201.787
-202.375
-202.964
-203.553
-204.141
-204.73
-205.318
-205.907
-206.496
-207.084
-207.673
-208.261
-208.85
-209.439
-210.027
-210.616
-211.204
-211.793
-212.382
-212.97
-213.559
-214.147
-214.736
-215.325
-215.913
-216.502
-217.09
-217.679
-218.268
-218.856
-219.445
-220.033
-220.622
-221.211
-221.799
-222.388
-222.976
-223.565
-224.154
-224.742
-225.331
-225.919
-226.508
-227.097
-227.685
-228.274
-228.862
-229.451
-230.04
-230.628
-231.217
-231.805
-232.394
-232.983
-233.571
-234.16
-234.748
-235.337
-235.926
-236.514
-237.103
-237.691
-238.28
-238.869
-239.457
-240.046
-240.634
-241.223
-241.812
-242.4
-242.989
-243.577
-147.754
-148.343
-148.931
-149.52
-150.109
-150.698
-151.287
-151.875
-152.464
-153.053
-153.642
-154.23
-154.819
-155.408
-155.996
-156.585
-157.174
-157.762
-158.351
-158.94
-159.528
-160.117
-160.706
-161.294
-161.883
-162.472
-163.06
-163.649
-164.238
-164.826
-165.415
-166.004
-166.592
-167.181
-167.769
-168.358
-168.947
-169.535
-170.124
-170.713
-171.301
-171.89
-172.478
-173.067
-173.656
-174.244
-174.833
-175.422
-176.01
-176.599
-177.187
-177.776
-178.365
-178.953
-179.542
-180.13
-180.719
-181.308
-181.896
-182.485
-183.073
-183.662
-184.251
-184.839
-185.428
-186.016
-186.605
-187.194
-187.782
-188.371
-188.959
-189.548
-190.137
-190.725
-191.314
-191.902
-192.491
-193.08
-193.668
-194.257
-194.846
-195.434
-196.023
-196.611
-197.2
-197.789
-198.377
-198.966
-199.554
-200.143
-200.732
-201.32
-201.909
-202.497
-203.086
-203.675
-204.263
-204.852
-205.44
-206.029
-206.618
-207.206
-207.795
-208.383
-208.972
-209.561
-210.149
-210.738
-211.326
-211.915
-212.504
-213.092
-213.681
-214.269
-214.858
-215.447
-216.035
-216.624
-217.212
-217.801
-218.39
-218.978
-219.567
-220.155
-220.744
-221.333
-221.921
-222.51
-223.098
-223.687
-224.276
-224.864
-225.453
-226.041
-226.63
-227.219
-227.807
-228.396
-228.984
-229.573
-230.162
-230.75
-231.339
-231.927
-232.516
-233.105
-233.693
-234.282
-234.87
-235.459
-236.048
-236.636
-237.225
-237.813
-238.402
-238.991
-239.579
-240.168
-240.756
-241.345
-241.934
-242.522
-243.111
-243.699
-147.876
-148.465
-149.053
-149.642
-150.231
-150.82
-151.408
-151.997
-152.586
-153.175
-153.763
-154.352
-154.941
-155.53
-156.118
-156.707
-157.296
-157.884
-158.473
-159.062
-159.65
-160.239
-160.828
-161.416
-162.005
-162.594
-163.182
-163.771
-164.36
-164.948
-165.537
-166.126
-166.714
-167.303
-167.891
-168.48
-169.069
-169.657
-170.246
-170.835
-171.423
-172.012
-172.6
-173.189
-173.778
-174.366
-174.955
-175.543
-176.132
-176.721
-177.309
-177.898
-178.487
-179.075
-179.664
-180.252
-180.841
-181.43
-182.018
-182.607
-183.195
-183.784
-184.373
-184.961
-185.55
-186.138
-186.727
-187.316
-187.904
-188.493
-189.081
-189.67
-190.259
-190.847
-191.436
-192.024
-192.613
-193.202
-193.79
-194.379
-194.967
-195.556
-196.145
-196.733
-197.322
-197.91
-198.499
-199.088
-199.676
-200.265
-200.853
-201.442
-202.031
-202.619
-203.208
-203.796
-204.385
-204.974
-205.562
-206.151
-206.739
-207.328
-207.917
-208.505
-209.094
-209.682
-210.271
-210.86
-211.448
-212.037
-212.625
-213.214
-213.803
-214.391
-214.98
-215.568
-216.157
-216.746
-217.334
-217.923
-218.511
-219.1
-219.689
-220.277
-220.866
-221.454
-222.043
-222.632
-223.22
-223.809
-224.397
-224.986
-225.575
-226.163
-226.752
-227.34
-227.929
-228.518
-229.106
-229.695
-230.283
-230.872
-231.461
-232.049
-232.638
-233.226
-233.815
-234.404
-234.992
-235.581
-236.169
-236.758
-237.347
-237.935
-238.524
-239.112
-239.701
-240.29
-240.878
-241.467
-242.055
-242.644
-243.233
-243.821
-147.998
-148.586
-149.175
-149.764
-150.353
-150.942
-151.53
-152.119
-152.708
-153.297
-153.885
-154.474
-155.063
-155.651
-156.24
-156.829
-157.418
-158.006
-158.595
-159.184
-159.772
-160.361
-160.95
-161.538
-162.127
-162.716
-163.304
-163.893
-164.482
-165.07
-165.659
-166.247
-166.836
-167.425
-168.013
-168.602
-169.191
-169.779
-170.368
-170.956
-171.545
-172.134
-172.722
-173.311
-173.9
-174.488
-175.077
-175.665
-176.254
-176.843
-177.431
-178.02
-178.608
-179.197
-179.786
-180.374
-180.963
-181.551
-182.14
-182.729
-183.317
-183.906
-184.495
-185.083
-185.672
-186.26
-186.849
-187.438
-188.026
-188.615
-189.203
-189.792
-190.381
-190.969
-191.558
-192.146
-192.735
-193.324
-193.912
-194.501
-195.089
-195.678
-196.267
-196.855
-197.444
-198.032
-198.621
-199.21
-199.798
-200.387
-200.975
-201.564
-202.153
-202.741
-203.33
-203.918
-204.507
-205.096
-205.684
-206.273
-206.861
-207.45
-208.039
-208.627
-209.216
-209.804
-210.393
-210.982
-211.57
-212.159
-212.747
-213.336
-213.925
-214.513
-215.102
-215.69
-216.279
-216.868
-217.456
-218.045
-218.633
-219.222
-219.811
-220.399
-220.988
-221.576
-222.165
-222.754
-223.342
-223.931
-224.519
-225.108
-225.697
-226.285
-226.874
-227.462
-228.051
-228.64
-229.228
-229.817
-230.405
-230.994
-231.583
-232.171
-232.76
-233.348
-233.937
-234.526
-235.114
-235.703
-236.291
-236.88
-237.469
-238.057
-238.646
-239.234
-239.823
-240.412
-241
-241.589
-242.177
-242.766
-243.355
-243.943
-148.12
-148.708
-149.297
-149.886
-150.475
-151.064
-151.652
-152.241
-152.83
-153.419
-154.007
-154.596
-155.185
-155.773
-156.362
-156.951
-157.54
-158.128
-158.717
-159.306
-159.894
-160.483
-161.072
-161.66
-162.249
-162.838
-163.426
-164.015
-164.603
-165.192
-165.781
-166.369
-166.958
-167.547
-168.135
-168.724
-169.313
-169.901
-170.49
-171.078
-171.667
-172.256
-172.844
-173.433
-174.021
-174.61
-175.199
-175.787
-176.376
-176.965
-177.553
-178.142
-178.73
-179.319
-179.908
-180.496
-181.085
-181.673
-182.262
-182.851
-183.439
-184.028
-184.616
-185.205
-185.794
-186.382
-186.971
-187.559
-188.148
-188.737
-189.325
-189.914
-190.502
-191.091
-191.68
-192.268
-192.857
-193.445
-194.034
-194.623
-195.211
-195.8
-196.388
-196.977
-197.566
-198.154
-198.743
-199.331
-199.92
-200.509
-201.097
-201.686
-202.274
-202.863
-203.452
-204.04
-204.629
-205.217
-205.806
-206.395
-206.983
-207.572
-208.16
-208.749
-209.338
-209.926
-210.515
-211.103
-211.692
-212.281
-212.869
-213.458
-214.046
-214.635
-215.224
-215.812
-216.401
-216.989
-217.578
-218.167
-218.755
-219.344
-219.932
-220.521
-221.11
-221.698
-222.287
-222.875
-223.464
-224.053
-224.641
-225.23
-225.818
-226.407
-226.996
-227.584
-228.173
-228.761
-229.35
-229.939
-230.527
-231.116
-231.704
-232.293
-232.882
-233.47
-234.059
-234.647
-235.236
-235.825
-236.413
-237.002
-237.59
-238.179
-238.768
-239.356
-239.945
-240.533
-241.122
-241.711
-242.299
-242.888
-243.476
-244.065
-148.242
-148.83
-149.419
-150.008
-150.597
-151.185
-151.774
-152.363
-152.952
-153.54
-154.129
-154.718
-155.307
-155.895
-156.484
-157.073
-157.661
-158.25
-158.839
-159.427
-160.016
-160.605
-161.193
-161.782
-162.371
-162.959
-163.548
-164.137
-164.725
-165.314
-165.903
-166.491
-167.08
-167.669
-168.257
-168.846
-169.434
-170.023
-170.612
-171.2
-171.789
-172.378
-172.966
-173.555
-174.143
-174.732
-175.321
-175.909
-176.498
-177.086
-177.675
-178.264
-178.852
-179.441
-180.03
-180.618
-181.207
-181.795
-182.384
-182.973
-183.561
-184.15
-184.738
-185.327
-185.916
-186.504
-187.093
-187.681
-188.27
-188.859
-189.447
-190.036
-190.624
-191.213
-191.802
-192.39
-192.979
-193.567
-194.156
-194.745
-195.333
-195.922
-196.51
-197.099
-197.688
-198.276
-198.865
-199.453
-200.042
-200.631
-201.219
-201.808
-202.396
-202.985
-203.574
-204.162
-204.751
-205.339
-205.928
-206.517
-207.105
-207.694
-208.282
-208.871
-209.46
-210.048
-210.637
-211.225
-211.814
-212.403
-212.991
-213.58
-214.168
-214.757
-215.346
-215.934
-216.523
-217.111
-217.7
-218.289
-218.877
-219.466
-220.054
-220.643
-221.232
-221.82
-222.409
-222.997
-223.586
-224.175
-224.763
-225.352
-225.94
-226.529
-227.118
-227.706
-228.295
-228.883
-229.472
-230.061
-230.649
-231.238
-231.826
-232.415
-233.004
-233.592
-234.181
-234.769
-235.358
-235.947
-236.535
-237.124
-237.712
-238.301
-238.89
-239.478
-240.067
-240.655
-241.244
-241.833
-242.421
-243.01
-243.598
-244.187
-148.363
-148.952
-149.541
-150.13
-150.719
-151.307
-151.896
-152.485
-153.074
-153.662
-154.251
-154.84
-155.429
-156.017
-156.606
-157.195
-157.783
-158.372
-158.961
-159.549
-160.138
-160.727
-161.315
-161.904
-162.493
-163.081
-163.67
-164.259
-164.847
-165.436
-166.025
-166.613
-167.202
-167.79
-168.379
-168.968
-169.556
-170.145
-170.734
-171.322
-171.911
-172.499
-173.088
-173.677
-174.265
-174.854
-175.443
-176.031
-176.62
-177.208
-177.797
-178.386
-178.974
-179.563
-180.151
-180.74
-181.329
-181.917
-182.506
-183.094
-183.683
-184.272
-184.86
-185.449
-186.037
-186.626
-187.215
-187.803
-188.392
-188.981
-189.569
-190.158
-190.746
-191.335
-191.924
-192.512
-193.101
-193.689
-194.278
-194.867
-195.455
-196.044
-196.632
-197.221
-197.81
-198.398
-198.987
-199.575
-200.164
-200.753
-201.341
-201.93
-202.518
-203.107
-203.696
-204.284
-204.873
-205.461
-206.05
-206.639
-207.227
-207.816
-208.404
-208.993
-209.582
-210.17
-210.759
-211.347
-211.936
-212.525
-213.113
-213.702
-214.29
-214.879
-215.468
-216.056
-216.645
-217.233
-217.822
-218.411
-218.999
-219.588
-220.176
-220.765
-221.354
-221.942
-222.531
-223.119
-223.708
-224.297
-224.885
-225.474
-226.062
-226.651
-227.24
-227.828
-228.417
-229.005
-229.594
-230.183
-230.771
-231.36
-231.948
-232.537
-233.126
-233.714
-234.303
-234.891
-235.48
-236.069
-236.657
-237.246
-237.834
-238.423
-239.012
-239.6
-240.189
-240.777
-241.366
-241.955
-242.543
-243.132
-243.72
-244.309
-148.485
-149.074
-149.663
-150.252
-150.841
-151.429
-152.018
-152.607
-153.196
-153.784
-154.373
-154.962
-155.55
-156.139
-156.728
-157.317
-157.905
-158.494
-159.083
-159.671
-160.26
-160.849
-161.437
-162.026
-162.615
-163.203
-163.792
-164.381
-164.969
-165.558
-166.147
-166.735
-167.324
-167.912
-168.501
-169.09
-169.678
-170.267
-170.856
-171.444
-172.033
-172.621
-173.21
-173.799
-174.387
-174.976
-175.564
-176.153
-176.742
-177.33
-177.919
-178.508
-179.096
-179.685
-180.273
-180.862
-181.451
-182.039
-182.628
-183.216
-183.805
-184.394
-184.982
-185.571
-186.159
-186.748
-187.337
-187.925
-188.514
-189.102
-189.691
-190.28
-190.868
-191.457
-192.045
-192.634
-193.223
-193.811
-194.4
-194.988
-195.577
-196.166
-196.754
-197.343
-197.931
-198.52
-199.109
-199.697
-200.286
-200.874
-201.463
-202.052
-202.64
-203.229
-203.817
-204.406
-204.995
-205.583
-206.172
-206.76
-207.349
-207.938
-208.526
-209.115
-209.703
-210.292
-210.881
-211.469
-212.058
-212.646
-213.235
-213.824
-214.412
-215.001
-215.589
-216.178
-216.767
-217.355
-217.944
-218.532
-219.121
-219.71
-220.298
-220.887
-221.475
-222.064
-222.653
-223.241
-223.83
-224.418
-225.007
-225.596
-226.184
-226.773
-227.361
-227.95
-228.539
-229.127
-229.716
-230.304
-230.893
-231.482
-232.07
-232.659
-233.247
-233.836
-234.425
-235.013
-235.602
-236.19
-236.779
-237.368
-237.956
-238.545
-239.133
-239.722
-240.311
-240.899
-241.488
-242.076
-242.665
-243.254
-243.842
-244.431
-148.607
-149.196
-149.785
-150.374
-150.962
-151.551
-152.14
-152.729
-153.318
-153.906
-154.495
-155.084
-155.672
-156.261
-156.85
-157.439
-158.027
-158.616
-159.205
-159.793
-160.382
-160.971
-161.559
-162.148
-162.737
-163.325
-163.914
-164.503
-165.091
-165.68
-166.268
-166.857
-167.446
-168.034
-168.623
-169.212
-169.8
-170.389
-170.977
-171.566
-172.155
-172.743
-173.332
-173.921
-174.509
-175.098
-175.686
-176.275
-176.864
-177.452
-178.041
-178.629
-179.218
-179.807
-180.395
-180.984
-181.573
-182.161
-182.75
-183.338
-183.927
-184.516
-185.104
-185.693
-186.281
-186.87
-187.459
-188.047
-188.636
-189.224
-189.813
-190.402
-190.99
-191.579
-192.167
-192.756
-193.345
-193.933
-194.522
-195.11
-195.699
-196.288
-196.876
-197.465
-198.053
-198.642
-199.231
-199.819
-200.408
-200.996
-201.585
-202.174
-202.762
-203.351
-203.939
-204.528
-205.117
-205.705
-206.294
-206.882
-207.471
-208.06
-208.648
-209.237
-209.825
-210.414
-211.003
-211.591
-212.18
-212.768
-213.357
-213.946
-214.534
-215.123
-215.711
-216.3
-216.889
-217.477
-218.066
-218.654
-219.243
-219.832
-220.42
-221.009
-221.597
-222.186
-222.775
-223.363
-223.952
-224.54
-225.129
-225.718
-226.306
-226.895
-227.483
-228.072
-228.661
-229.249
-229.838
-230.426
-231.015
-231.604
-232.192
-232.781
-233.369
-233.958
-234.547
-235.135
-235.724
-236.312
-236.901
-237.49
-238.078
-238.667
-239.255
-239.844
-240.433
-241.021
-241.61
-242.198
-242.787
-243.376
-243.964
-244.553
-148.729
-149.318
-149.907
-150.496
-151.084
-151.673
-152.262
-152.851
-153.439
-154.028
-154.617
-155.206
-155.794
-156.383
-156.972
-157.56
-158.149
-158.738
-159.326
-159.915
-160.504
-161.093
-161.681
-162.27
-162.858
-163.447
-164.036
-164.624
-165.213
-165.802
-166.39
-166.979
-167.568
-168.156
-168.745
-169.334
-169.922
-170.511
-171.099
-171.688
-172.277
-172.865
-173.454
-174.042
-174.631
-175.22
-175.808
-176.397
-176.986
-177.574
-178.163
-178.751
-179.34
-179.929
-180.517
-181.106
-181.694
-182.283
-182.872
-183.46
-184.049
-184.637
-185.226
-185.815
-186.403
-186.992
-187.58
-188.169
-188.758
-189.346
-189.935
-190.523
-191.112
-191.701
-192.289
-192.878
-193.466
-194.055
-194.644
-195.232
-195.821
-196.41
-196.998
-197.587
-198.175
-198.764
-199.353
-199.941
-200.53
-201.118
-201.707
-202.296
-202.884
-203.473
-204.061
-204.65
-205.239
-205.827
-206.416
-207.004
-207.593
-208.182
-208.77
-209.359
-209.947
-210.536
-211.125
-211.713
-212.302
-212.89
-213.479
-214.068
-214.656
-215.245
-215.833
-216.422
-217.011
-217.599
-218.188
-218.776
-219.365
-219.954
-220.542
-221.131
-221.719
-222.308
-222.897
-223.485
-224.074
-224.662
-225.251
-225.84
-226.428
-227.017
-227.605
-228.194
-228.783
-229.371
-229.96
-230.548
-231.137
-231.726
-232.314
-232.903
-233.491
-234.08
-234.669
-235.257
-235.846
-236.434
-237.023
-237.612
-238.2
-238.789
-239.377
-239.966
-240.555
-241.143
-241.732
-242.32
-242.909
-243.498
-244.086
-244.675
-148.851
-149.44
-150.029
-150.618
-151.206
-151.795
-152.384
-152.973
-153.561
-154.15
-154.739
-155.328
-155.916
-156.505
-157.094
-157.682
-158.271
-158.86
-159.448
-160.037
-160.626
-161.214
-161.803
-162.392
-162.98
-163.569
-164.158
-164.746
-165.335
-165.924
-166.512
-167.101
-167.69
-168.278
-168.867
-169.455
-170.044
-170.633
-171.221
-171.81
-172.399
-172.987
-173.576
-174.164
-174.753
-175.342
-175.93
-176.519
-177.107
-177.696
-178.285
-178.873
-179.462
-180.051
-180.639
-181.228
-181.816
-182.405
-182.994
-183.582
-184.171
-184.759
-185.348
-185.937
-186.525
-187.114
-187.702
-188.291
-188.88
-189.468
-190.057
-190.645
-191.234
-191.823
-192.411
-193
-193.588
-194.177
-194.766
-195.354
-195.943
-196.531
-197.12
-197.709
-198.297
-198.886
-199.474
-200.063
-200.652
-201.24
-201.829
-202.417
-203.006
-203.595
-204.183
-204.772
-205.36
-205.949
-206.538
-207.126
-207.715
-208.303
-208.892
-209.481
-210.069
-210.658
-211.246
-211.835
-212.424
-213.012
-213.601
-214.189
-214.778
-215.367
-215.955
-216.544
-217.132
-217.721
-218.31
-218.898
-219.487
-220.075
-220.664
-221.253
-221.841
-222.43
-223.018
-223.607
-224.196
-224.784
-225.373
-225.961
-226.55
-227.139
-227.727
-228.316
-228.904
-229.493
-230.082
-230.67
-231.259
-231.847
-232.436
-233.025
-233.613
-234.202
-234.79
-235.379
-235.968
-236.556
-237.145
-237.733
-238.322
-238.911
-239.499
-240.088
-240.676
-241.265
-241.854
-242.442
-243.031
-243.619
-244.208
-244.797
-149.034
-149.623
-150.212
-150.8
-151.389
-151.978
-152.567
-153.156
-153.744
-154.333
-154.922
-155.51
-156.099
-156.688
-157.277
-157.865
-158.454
-159.043
-159.631
-160.22
-160.809
-161.397
-161.986
-162.575
-163.163
-163.752
-164.341
-164.929
-165.518
-166.107
-166.695
-167.284
-167.872
-168.461
-169.05
-169.638
-170.227
-170.816
-171.404
-171.993
-172.581
-173.17
-173.759
-174.347
-174.936
-175.525
-176.113
-176.702
-177.29
-177.879
-178.468
-179.056
-179.645
-180.233
-180.822
-181.411
-181.999
-182.588
-183.176
-183.765
-184.354
-184.942
-185.531
-186.119
-186.708
-187.297
-187.885
-188.474
-189.062
-189.651
-190.24
-190.828
-191.417
-192.006
-192.594
-193.183
-193.771
-194.36
-194.949
-195.537
-196.126
-196.714
-197.303
-197.892
-198.48
-199.069
-199.657
-200.246
-200.835
-201.423
-202.012
-202.6
-203.189
-203.778
-204.366
-204.955
-205.543
-206.132
-206.721
-207.309
-207.898
-208.486
-209.075
-209.664
-210.252
-210.841
-211.429
-212.018
-212.607
-213.195
-213.784
-214.372
-214.961
-215.55
-216.138
-216.727
-217.315
-217.904
-218.493
-219.081
-219.67
-220.258
-220.847
-221.436
-222.024
-222.613
-223.201
-223.79
-224.379
-224.967
-225.556
-226.144
-226.733
-227.322
-227.91
-228.499
-229.087
-229.676
-230.265
-230.853
-231.442
-232.03
-232.619
-233.208
-233.796
-234.385
-234.973
-235.562
-236.151
-236.739
-237.328
-237.916
-238.505
-239.094
-239.682
-240.271
-240.859
-241.448
-242.037
-242.625
-243.214
-243.802
-244.391
-244.98
-149.278
-149.867
-150.456
-151.044
-151.633
-152.222
-152.811
-153.399
-153.988
-154.577
-155.166
-155.754
-156.343
-156.932
-157.52
-158.109
-158.698
-159.286
-159.875
-160.464
-161.053
-161.641
-162.23
-162.818
-163.407
-163.996
-164.584
-165.173
-165.762
-166.35
-166.939
-167.528
-168.116
-168.705
-169.294
-169.882
-170.471
-171.059
-171.648
-172.237
-172.825
-173.414
-174.003
-174.591
-175.18
-175.768
-176.357
-176.946
-177.534
-178.123
-178.711
-179.3
-179.889
-180.477
-181.066
-181.654
-182.243
-182.832
-183.42
-184.009
-184.598
-185.186
-185.775
-186.363
-186.952
-187.541
-188.129
-188.718
-189.306
-189.895
-190.484
-191.072
-191.661
-192.249
-192.838
-193.427
-194.015
-194.604
-195.192
-195.781
-196.37
-196.958
-197.547
-198.135
-198.724
-199.313
-199.901
-200.49
-201.078
-201.667
-202.256
-202.844
-203.433
-204.021
-204.61
-205.199
-205.787
-206.376
-206.964
-207.553
-208.142
-208.73
-209.319
-209.907
-210.496
-211.085
-211.673
-212.262
-212.85
-213.439
-214.028
-214.616
-215.205
-215.793
-216.382
-216.971
-217.559
-218.148
-218.736
-219.325
-219.914
-220.502
-221.091
-221.679
-222.268
-222.857
-223.445
-224.034
-224.622
-225.211
-225.8
-226.388
-226.977
-227.565
-228.154
-228.743
-229.331
-229.92
-230.508
-231.097
-231.686
-232.274
-232.863
-233.451
-234.04
-234.629
-235.217
-235.806
-236.394
-236.983
-237.572
-238.16
-238.749
-239.337
-239.926
-240.515
-241.103
-241.692
-242.28
-242.869
-243.458
-244.046
-244.635
-245.223
-149.522
-150.111
-150.699
-151.288
-151.877
-152.466
-153.054
-153.643
-154.232
-154.821
-155.409
-155.998
-156.587
-157.176
-157.764
-158.353
-158.942
-159.53
-160.119
-160.708
-161.296
-161.885
-162.474
-163.062
-163.651
-164.24
-164.828
-165.417
-166.006
-166.594
-167.183
-167.772
-168.36
-168.949
-169.537
-170.126
-170.715
-171.303
-171.892
-172.481
-173.069
-173.658
-174.246
-174.835
-175.424
-176.012
-176.601
-177.189
-177.778
-178.367
-178.955
-179.544
-180.133
-180.721
-181.31
-181.898
-182.487
-183.076
-183.664
-184.253
-184.841
-185.43
-186.019
-186.607
-187.196
-187.784
-188.373
-188.962
-189.55
-190.139
-190.727
-191.316
-191.905
-192.493
-193.082
-193.67
-194.259
-194.848
-195.436
-196.025
-196.613
-197.202
-197.791
-198.379
-198.968
-199.556
-200.145
-200.734
-201.322
-201.911
-202.499
-203.088
-203.677
-204.265
-204.854
-205.442
-206.031
-206.62
-207.208
-207.797
-208.385
-208.974
-209.563
-210.151
-210.74
-211.328
-211.917
-212.506
-213.094
-213.683
-214.271
-214.86
-215.449
-216.037
-216.626
-217.214
-217.803
-218.392
-218.98
-219.569
-220.157
-220.746
-221.335
-221.923
-222.512
-223.1
-223.689
-224.278
-224.866
-225.455
-226.043
-226.632
-227.221
-227.809
-228.398
-228.986
-229.575
-230.164
-230.752
-231.341
-231.929
-232.518
-233.107
-233.695
-234.284
-234.872
-235.461
-236.05
-236.638
-237.227
-237.815
-238.404
-238.993
-239.581
-240.17
-240.758
-241.347
-241.936
-242.524
-243.113
-243.701
-244.29
-244.879
-245.467
-149.766
-150.354
-150.943
-151.532
-152.121
-152.71
-153.298
-153.887
-154.476
-155.065
-155.653
-156.242
-156.831
-157.419
-158.008
-158.597
-159.185
-159.774
-160.363
-160.952
-161.54
-162.129
-162.718
-163.306
-163.895
-164.483
-165.072
-165.661
-166.249
-166.838
-167.427
-168.015
-168.604
-169.193
-169.781
-170.37
-170.959
-171.547
-172.136
-172.724
-173.313
-173.902
-174.49
-175.079
-175.667
-176.256
-176.845
-177.433
-178.022
-178.611
-179.199
-179.788
-180.376
-180.965
-181.554
-182.142
-182.731
-183.319
-183.908
-184.497
-185.085
-185.674
-186.262
-186.851
-187.44
-188.028
-188.617
-189.205
-189.794
-190.383
-190.971
-191.56
-192.148
-192.737
-193.326
-193.914
-194.503
-195.091
-195.68
-196.269
-196.857
-197.446
-198.034
-198.623
-199.212
-199.8
-200.389
-200.977
-201.566
-202.155
-202.743
-203.332
-203.92
-204.509
-205.098
-205.686
-206.275
-206.863
-207.452
-208.041
-208.629
-209.218
-209.806
-210.395
-210.984
-211.572
-212.161
-212.749
-213.338
-213.927
-214.515
-215.104
-215.692
-216.281
-216.87
-217.458
-218.047
-218.635
-219.224
-219.813
-220.401
-220.99
-221.578
-222.167
-222.756
-223.344
-223.933
-224.521
-225.11
-225.699
-226.287
-226.876
-227.464
-228.053
-228.642
-229.23
-229.819
-230.407
-230.996
-231.585
-232.173
-232.762
-233.35
-233.939
-234.528
-235.116
-235.705
-236.293
-236.882
-237.471
-238.059
-238.648
-239.236
-239.825
-240.414
-241.002
-241.591
-242.179
-242.768
-243.357
-243.945
-244.534
-245.122
-245.711
-150.009
-150.598
-151.187
-151.776
-152.365
-152.953
-153.542
-154.131
-154.72
-155.308
-155.897
-156.486
-157.075
-157.663
-158.252
-158.841
-159.429
-160.018
-160.607
-161.195
-161.784
-162.373
-162.961
-163.55
-164.139
-164.727
-165.316
-165.905
-166.493
-167.082
-167.671
-168.259
-168.848
-169.436
-170.025
-170.614
-171.202
-171.791
-172.38
-172.968
-173.557
-174.145
-174.734
-175.323
-175.911
-176.5
-177.089
-177.677
-178.266
-178.854
-179.443
-180.032
-180.62
-181.209
-181.797
-182.386
-182.975
-183.563
-184.152
-184.74
-185.329
-185.918
-186.506
-187.095
-187.683
-188.272
-188.861
-189.449
-190.038
-190.626
-191.215
-191.804
-192.392
-192.981
-193.569
-194.158
-194.747
-195.335
-195.924
-196.513
-197.101
-197.69
-198.278
-198.867
-199.456
-200.044
-200.633
-201.221
-201.81
-202.399
-202.987
-203.576
-204.164
-204.753
-205.342
-205.93
-206.519
-207.107
-207.696
-208.285
-208.873
-209.462
-210.05
-210.639
-211.228
-211.816
-212.405
-212.993
-213.582
-214.171
-214.759
-215.348
-215.936
-216.525
-217.114
-217.702
-218.291
-218.879
-219.468
-220.057
-220.645
-221.234
-221.822
-222.411
-223
-223.588
-224.177
-224.765
-225.354
-225.943
-226.531
-227.12
-227.708
-228.297
-228.886
-229.474
-230.063
-230.651
-231.24
-231.829
-232.417
-233.006
-233.594
-234.183
-234.772
-235.36
-235.949
-236.537
-237.126
-237.715
-238.303
-238.892
-239.48
-240.069
-240.658
-241.246
-241.835
-242.423
-243.012
-243.601
-244.189
-244.778
-245.366
-245.955
-150.253
-150.842
-151.431
-152.02
-152.608
-153.197
-153.786
-154.375
-154.963
-155.552
-156.141
-156.73
-157.318
-157.907
-158.496
-159.085
-159.673
-160.262
-160.851
-161.439
-162.028
-162.617
-163.205
-163.794
-164.383
-164.971
-165.56
-166.148
-166.737
-167.326
-167.914
-168.503
-169.092
-169.68
-170.269
-170.858
-171.446
-172.035
-172.623
-173.212
-173.801
-174.389
-174.978
-175.567
-176.155
-176.744
-177.332
-177.921
-178.51
-179.098
-179.687
-180.275
-180.864
-181.453
-182.041
-182.63
-183.218
-183.807
-184.396
-184.984
-185.573
-186.162
-186.75
-187.339
-187.927
-188.516
-189.105
-189.693
-190.282
-190.87
-191.459
-192.048
-192.636
-193.225
-193.813
-194.402
-194.991
-195.579
-196.168
-196.756
-197.345
-197.934
-198.522
-199.111
-199.699
-200.288
-200.877
-201.465
-202.054
-202.642
-203.231
-203.82
-204.408
-204.997
-205.585
-206.174
-206.763
-207.351
-207.94
-208.528
-209.117
-209.706
-210.294
-210.883
-211.471
-212.06
-212.649
-213.237
-213.826
-214.414
-215.003
-215.592
-216.18
-216.769
-217.357
-217.946
-218.535
-219.123
-219.712
-220.3
-220.889
-221.478
-222.066
-222.655
-223.243
-223.832
-224.421
-225.009
-225.598
-226.186
-226.775
-227.364
-227.952
-228.541
-229.129
-229.718
-230.307
-230.895
-231.484
-232.072
-232.661
-233.25
-233.838
-234.427
-235.015
-235.604
-236.193
-236.781
-237.37
-237.958
-238.547
-239.136
-239.724
-240.313
-240.901
-241.49
-242.079
-242.667
-243.256
-243.844
-244.433
-245.022