/*--------------------------------*- C++ -*----------------------------------*\
| =========                 |                                                 |
| \\      /  F ield         | OpenFOAM: The Open Source CFD Toolbox           |
|  \\    /   O peration     | Version:  v1912                                 |
|   \\  /    A nd           | Website:  www.openfoam.com                      |
|    \\/     M anipulation  |                                                 |
\*---------------------------------------------------------------------------*/
FoamFile
{
    version     2.0;
    format      ascii;
    class       volScalarField;
    location    "70";
    object      alpha.water;
}
// * * * * * * * * * * * * * * * * * * * * * * * * * * * * * * * * * * * * * //

dimensions      [0 0 0 0 0 0 0];


internalField   nonuniform List<scalar> 
14268
(
0.000155443
0.000152419
0.000152431
0.00015359
0.000223219
0.000347686
0.000470283
0.000492218
0.000490523
0.000315686
0.000213998
0.000213998
0.000723602
0.000866472
0.000866471
0.00086647
0.00085366
0.000853658
0.000663654
0.000457393
0.000319472
0.000261187
0.000370677
0.000428067
0.000428023
0.000433694
0.00044147
0.000520702
0.000520684
0.000512202
0.000482189
0.000463313
0.000463653
0.000466445
0.000466384
0.000462472
0.000462346
0.000474421
0.000496278
0.000501236
0.000501164
0.000501216
0.000501144
0.000483358
0.000466288
0.000429956
0.000378313
0.00034465
0.000326454
0.000292958
0.000246596
0.000214227
0.000198318
0.000187733
0.0001807
0.000174116
0.000175397
0.000302943
0.000888453
0.000888238
0.000888442
0.00088822
0.000888396
0.000888203
0.000888378
0.000888186
0.000881692
0.000784991
0.00068337
0.000618372
0.000560775
0.00050208
0.000442523
0.000423191
0.000403239
0.000385424
0.000369629
0.000339145
0.000326559
0.000320983
0.000311414
0.000305241
0.000311996
0.000344736
0.000367391
0.000367407
0.000355189
0.000290925
0.000237584
0.00023429
0.00027595
0.000462666
0.000767202
0.000817449
0.000817434
0.000780366
0.000703998
0.000637676
0.000527463
0.000272109
3.89561e-05
1.30874e-05
1.48927e-05
1.52132e-05
1.52092e-05
1.59134e-05
1.86131e-05
2.29414e-05
2.72343e-05
2.99062e-05
3.29324e-05
4.60141e-05
8.35349e-05
9.38321e-05
9.38315e-05
9.15536e-05
6.40557e-05
1.43016e-05
3.55613e-24
-1.29007e-26
-1.03345e-27
-1.94115e-28
-6.76153e-29
-3.21561e-29
-1.42346e-29
-5.72642e-30
-2.16139e-30
-7.80006e-31
-2.6994e-31
-8.91193e-32
-2.78864e-32
-8.23289e-33
-2.28866e-33
-5.99165e-34
-1.47967e-34
-3.45528e-35
-7.64958e-36
-1.60949e-36
-3.22481e-37
-6.1618e-38
-1.12361e-38
-1.95517e-39
-3.24312e-40
-5.11848e-41
-7.66887e-42
-1.08815e-42
-1.45928e-43
-1.84509e-44
-2.19705e-45
-2.457e-46
0.000664305
0.000593748
0.000597953
0.000706855
0.000910798
0.000913408
0.000913264
0.000912455
0.000912919
0.000832815
0.000406025
0.000213998
0.000535655
0.000866473
0.000800778
0.000866469
0.000866437
0.000562989
0.000158504
0.000106601
0.000127702
0.000221588
0.000327033
0.000214566
0.000159871
0.000213538
0.000253309
0.000520684
0.000520702
0.000329491
0.000147728
6.52929e-05
6.40519e-05
7.87461e-05
8.30204e-05
7.84926e-05
7.61271e-05
8.40031e-05
0.000127785
0.000246841
0.000386706
0.00046159
0.000453265
0.000439568
0.000396995
0.000339305
0.000297928
0.0002727
0.000254905
0.000228969
0.000188636
0.000139846
8.65246e-05
4.08537e-05
1.3539e-05
5.78047e-06
1.10098e-05
0.00010985
0.000884802
0.000690709
0.000885611
0.00065424
0.000549315
0.000496936
0.000596642
0.000511281
0.000317593
0.000214421
0.000173589
0.000153655
0.000136029
0.000118122
0.000106237
9.71228e-05
9.70104e-05
0.000106651
0.000133663
0.000168307
0.000161581
0.000148761
0.000143258
0.000131233
9.85851e-05
8.63169e-05
0.000101171
0.00013243
0.000121138
5.83329e-05
1.0996e-05
6.17621e-06
6.77302e-06
1.28452e-05
5.75391e-05
0.000199335
0.000258056
0.000233096
0.000170969
0.000161931
0.00019415
0.000198913
8.27123e-05
6.05272e-06
3.22991e-06
3.54156e-06
3.68074e-06
3.66639e-06
3.81984e-06
5.6476e-06
8.93424e-06
1.1685e-05
1.33966e-05
1.8116e-05
3.46186e-05
5.96832e-05
6.493e-05
6.18316e-05
5.11297e-05
1.98241e-05
9.03532e-07
7.17184e-20
1.57423e-38
-1.54474e-28
-1.36058e-28
-7.22492e-29
-2.91998e-29
-9.84501e-30
-2.94786e-30
-8.2847e-31
-2.29158e-31
-6.41354e-32
-1.81658e-32
-5.11173e-33
-1.399e-33
-3.66958e-34
-9.15854e-35
-2.17016e-35
-4.88381e-36
-1.04511e-36
-2.1292e-37
-4.13301e-38
-7.64532e-39
-1.34709e-39
-2.25799e-40
-3.59366e-41
-5.41872e-42
-7.72376e-43
-1.03893e-43
-1.31583e-44
-1.5679e-45
-1.75303e-46
0.00107996
0.00105045
0.0010268
0.00100333
0.000867683
0.00064141
0.000221894
8.96192e-05
0.000277254
0.000791799
0.000636946
0.000264813
0.000318444
0.000866474
0.000601749
0.000594472
0.000866435
0.000273738
6.57271e-05
6.57294e-05
6.57271e-05
0.000221645
0.000173603
0.000135933
0.000135933
0.000135933
0.000135933
0.000384765
0.000405527
0.000259146
0.000103067
2.92655e-05
2.3159e-05
2.31618e-05
2.31588e-05
2.31622e-05
2.52497e-05
2.78603e-05
3.02605e-05
3.9959e-05
8.85758e-05
0.000197679
0.000280032
0.00027347
0.000218299
0.000137797
8.68759e-05
8.72324e-05
9.87656e-05
0.000109678
0.000108412
9.24246e-05
5.66766e-05
1.92676e-05
1.17158e-06
9.83977e-08
5.59417e-08
1.21109e-05
0.000512705
0.000638537
0.000539885
0.000145773
0.000141525
0.000132018
0.000123767
8.68142e-05
5.17083e-05
2.85949e-05
2.3769e-05
2.42572e-05
2.48151e-05
2.50184e-05
2.68292e-05
2.92116e-05
2.84329e-05
2.36962e-05
2.38017e-05
2.84333e-05
3.58422e-05
6.33421e-05
0.000128911
0.000123793
7.16071e-05
3.29845e-05
2.73702e-05
2.60621e-05
1.3806e-05
2.96445e-06
2.6312e-06
3.45337e-06
4.12008e-06
4.11217e-06
1.10559e-05
3.78166e-05
5.8647e-05
5.90567e-05
5.74845e-05
6.61264e-05
0.000147828
0.00015853
7.01251e-05
5.39248e-06
2.6645e-06
3.49588e-06
3.71641e-06
3.71866e-06
3.81317e-06
6.11855e-06
7.06019e-06
7.06268e-06
7.06517e-06
7.06763e-06
8.53085e-06
1.68748e-05
2.72811e-05
3.29722e-05
3.32944e-05
2.17422e-05
3.65027e-06
6.5304e-19
3.32556e-32
-3.45872e-29
-3.8942e-29
-2.54133e-29
-1.26704e-29
-5.35025e-30
-2.00894e-30
-6.89229e-31
-2.1995e-31
-6.61553e-32
-1.89376e-32
-5.19258e-33
-1.36787e-33
-3.46279e-34
-8.41221e-35
-1.95698e-35
-4.35072e-36
-9.22827e-37
-1.86532e-37
-3.59029e-38
-6.57678e-39
-1.14592e-39
-1.89728e-40
-2.98073e-41
-4.43612e-42
-6.24283e-43
-8.29556e-44
-1.03871e-44
-1.22471e-45
-1.35606e-46
6.76121e-05
0.000291997
0.000449874
0.000431208
0.00024557
4.8575e-05
1.25449e-05
2.44627e-05
6.7303e-05
0.000415647
0.000756736
0.000459381
0.00015088
0.000498006
0.000343538
0.000195855
0.000844462
0.000661297
0.000393661
0.000144329
0.000118356
0.000305563
0.000265277
0.000175361
0.000192197
0.000135933
0.000135933
0.000146876
0.000240233
0.000143205
3.41782e-05
2.35913e-05
2.31619e-05
2.31596e-05
2.31619e-05
2.31599e-05
2.5196e-05
2.27627e-05
2.08537e-05
2.40564e-05
3.50055e-05
6.39148e-05
9.7531e-05
9.39863e-05
7.68829e-05
4.48988e-05
3.01436e-05
3.01368e-05
3.22926e-05
4.39508e-05
5.24305e-05
5.00245e-05
3.44509e-05
1.17708e-05
3.35391e-07
8.29395e-10
8.29402e-10
1.57778e-08
0.000259779
0.000884512
0.000165697
6.0749e-05
6.35302e-05
6.52056e-05
4.7822e-05
3.53298e-05
2.71956e-05
1.207e-05
8.32136e-06
8.32163e-06
8.32131e-06
8.32158e-06
8.32126e-06
8.8457e-06
9.88659e-06
8.88941e-06
5.78855e-06
3.94628e-06
4.8267e-06
1.67944e-05
6.38253e-05
6.68849e-05
3.77301e-05
1.3063e-05
5.78919e-06
5.4399e-06
5.43997e-06
1.07285e-05
5.59888e-05
0.000111219
0.000115118
8.07604e-05
3.05377e-05
2.89258e-05
3.49852e-05
4.07214e-05
4.39147e-05
4.39212e-05
0.000123308
0.000145781
7.81871e-05
1.06067e-05
2.49591e-06
2.33453e-06
3.28183e-06
4.53429e-06
5.49107e-06
7.60124e-06
1.47738e-05
1.51286e-05
1.43621e-05
8.53017e-06
7.33641e-06
7.33265e-06
1.01149e-05
1.79907e-05
2.4622e-05
2.29229e-05
7.17774e-06
1.03001e-07
4.20985e-21
1.97744e-40
-3.4981e-29
-2.13808e-29
-8.84228e-30
-3.24587e-30
-1.16584e-30
-4.13685e-31
-1.4191e-31
-4.63215e-32
-1.43129e-32
-4.18559e-33
-1.15928e-33
-3.04257e-34
-7.56912e-35
-1.7852e-35
-3.99264e-36
-8.47007e-37
-1.70494e-37
-3.25753e-38
-5.90967e-39
-1.01809e-39
-1.66494e-40
-2.58219e-41
-3.79327e-42
-5.27013e-43
-6.91682e-44
-8.55906e-45
-9.98019e-46
-1.09358e-46
6.89972e-07
2.09519e-05
8.10722e-05
7.40612e-05
1.7755e-05
4.4112e-06
1.01841e-05
2.95459e-05
5.97649e-05
0.000262248
0.000756339
0.000552287
0.000150554
0.00018883
0.000141814
0.000111192
0.000461721
0.000698526
0.000692845
0.000378246
0.000335292
0.00047298
0.000356365
0.000400642
0.000707375
0.000364006
0.000185414
0.0002291
0.000208706
6.76362e-05
5.6774e-06
1.39108e-05
4.25845e-05
4.26661e-05
4.33178e-05
4.48819e-05
3.10456e-05
1.12716e-05
6.89689e-06
1.02101e-05
2.22963e-05
3.46359e-05
4.17915e-05
4.45767e-05
4.5393e-05
5.92612e-05
5.79827e-05
3.61954e-05
2.00596e-05
1.98681e-05
2.09425e-05
2.06514e-05
1.60697e-05
6.90113e-06
5.90365e-07
4.61061e-08
9.1596e-08
2.88368e-08
0.000127012
0.000887316
9.45884e-05
6.06462e-05
6.06377e-05
0.000118643
0.00016106
0.000169913
0.000157614
0.000100593
3.72349e-05
1.39147e-05
1.05105e-05
9.35325e-06
8.65716e-06
6.91529e-06
4.28442e-06
3.04129e-06
3.0413e-06
3.04114e-06
3.04115e-06
4.08282e-06
2.02374e-05
2.29083e-05
1.44118e-05
4.86496e-06
4.42764e-06
4.46667e-06
1.1681e-05
7.18788e-05
0.000273075
0.00035521
0.000350554
0.000311917
0.000153256
6.28342e-05
7.58032e-05
0.000108549
0.000136195
0.000128511
0.000142519
0.000173045
0.000171719
7.41494e-05
4.64082e-06
8.03686e-08
1.74341e-07
1.24678e-06
4.14864e-06
6.41937e-06
8.63538e-06
1.67313e-05
1.75755e-05
1.71505e-05
9.31976e-06
7.31829e-06
7.31342e-06
1.07109e-05
1.47406e-05
1.47818e-05
1.06093e-05
1.65905e-06
3.01416e-19
9.69147e-33
-2.4803e-29
-2.42714e-29
-1.30058e-29
-5.11681e-30
-1.69615e-30
-5.19045e-31
-1.55324e-31
-4.63498e-32
-1.36688e-32
-3.91456e-33
-1.07417e-33
-2.80414e-34
-6.94406e-35
-1.62989e-35
-3.62596e-36
-7.64716e-37
-1.52937e-37
-2.90139e-38
-5.2231e-39
-8.92415e-40
-1.44682e-40
-2.22397e-41
-3.2377e-42
-4.45807e-43
-5.79982e-44
-7.11589e-45
-8.22994e-46
-8.94774e-47
2.57132e-07
2.57128e-07
2.57107e-07
2.57102e-07
2.57078e-07
3.23799e-06
4.17528e-05
5.38741e-05
4.40362e-05
0.000103355
0.00058197
0.000725301
0.000248227
4.03248e-05
3.63355e-05
3.82814e-05
6.5893e-05
0.000449871
0.000114807
0.000101454
0.000504736
0.000594645
0.000447939
0.00074428
0.000830279
0.000748467
0.000582542
0.000489072
0.000281327
3.04463e-05
1.08624e-06
3.54414e-06
3.32423e-05
6.35584e-05
6.35607e-05
4.53045e-05
1.06258e-05
1.08773e-06
9.53756e-07
1.81821e-06
8.8703e-06
2.93843e-05
5.23356e-05
9.89334e-05
0.000117803
0.000117796
0.000117803
0.000108862
6.00816e-05
1.39347e-05
4.54745e-06
4.54842e-06
3.59636e-06
1.80939e-06
7.40095e-07
9.75944e-07
1.6894e-06
2.29541e-07
5.35734e-05
0.000887317
6.83217e-05
6.19474e-05
9.49414e-05
0.000182874
0.000231672
0.000231649
0.000231672
0.000221634
0.000132368
9.31086e-05
7.55032e-05
5.77274e-05
4.77747e-05
3.86025e-05
2.78514e-05
1.48762e-05
4.47708e-06
3.04129e-06
3.04114e-06
3.04129e-06
3.1947e-06
7.72847e-06
2.96796e-05
2.21162e-05
8.99876e-06
1.18068e-05
4.69928e-05
0.000291943
0.000448433
0.000453896
0.000453927
0.000453896
0.000319956
0.000125017
9.27248e-05
0.000146992
0.000152332
0.000152387
0.000152443
0.000173094
0.000159678
6.62e-05
3.04572e-06
1.77717e-08
2.0435e-08
1.42353e-07
1.29383e-06
3.85468e-06
5.72213e-06
7.83584e-06
1.58725e-05
1.76464e-05
1.68614e-05
8.81157e-06
6.77372e-06
6.86349e-06
7.91927e-06
7.80122e-06
5.57215e-06
1.70806e-06
1.42279e-08
1.8702e-22
1.30692e-41
-8.91892e-30
-5.69387e-30
-2.55474e-30
-9.74131e-31
-3.40223e-31
-1.12969e-31
-3.61022e-32
-1.10845e-32
-3.24955e-33
-9.04687e-34
-2.38431e-34
-5.94126e-35
-1.39957e-35
-3.11805e-36
-6.57365e-37
-1.31233e-37
-2.48251e-38
-4.45271e-39
-7.57614e-40
-1.22278e-40
-1.87092e-41
-2.71106e-42
-3.71571e-43
-4.81232e-44
-5.87855e-45
-6.77065e-46
-7.3317e-47
2.5715e-07
2.57132e-07
2.57128e-07
2.57107e-07
2.57101e-07
7.95615e-06
2.70586e-05
2.29031e-05
2.37927e-05
4.49734e-05
0.00031669
0.000725333
0.000339585
2.4519e-05
1.26717e-05
1.73992e-05
2.39186e-05
8.09476e-05
1.8684e-05
1.13985e-05
2.97112e-05
0.00032897
0.000633233
0.000792386
0.000710789
0.000851285
0.000851305
0.000800416
0.000260678
7.0891e-06
8.20792e-07
1.15083e-06
6.33191e-06
2.81422e-05
3.2328e-05
1.39669e-05
1.36876e-06
7.97937e-07
7.97948e-07
7.97961e-07
1.97228e-06
1.26071e-05
3.90647e-05
4.43772e-05
4.56214e-05
5.87176e-05
0.000101129
0.000111078
0.000101348
4.74045e-05
6.6298e-06
2.48922e-06
2.48875e-06
2.68234e-06
4.64091e-06
8.99295e-06
1.0361e-05
1.32615e-06
8.53523e-06
0.000887316
5.29056e-05
2.75177e-05
4.77873e-05
6.29438e-05
8.05683e-05
7.98838e-05
6.53089e-05
8.93216e-05
0.000155291
0.00015531
0.000155291
0.000147909
0.000120823
9.71733e-05
6.99792e-05
4.23977e-05
1.585e-05
3.25858e-06
3.04129e-06
3.04129e-06
3.04145e-06
1.51188e-05
4.345e-05
3.28845e-05
2.32148e-05
4.29226e-05
0.000163336
0.000325365
0.000248765
9.11503e-05
7.32055e-05
0.000164533
0.000319647
0.000237919
8.04802e-05
4.95058e-05
6.63817e-05
9.60874e-05
0.000114742
0.000132034
9.6432e-05
2.88129e-05
5.29341e-07
1.77717e-08
1.77717e-08
3.92792e-08
4.0037e-07
2.05577e-06
4.22786e-06
5.52982e-06
8.38398e-06
1.75126e-05
1.83867e-05
1.68696e-05
8.38174e-06
3.31201e-06
3.31259e-06
3.00601e-06
1.92642e-06
6.22377e-07
1.68111e-08
-1.87195e-27
-3.95865e-30
-2.91592e-30
-2.00115e-30
-1.08085e-30
-4.88643e-31
-1.96852e-31
-7.2995e-32
-2.52726e-32
-8.20759e-33
-2.50186e-33
-7.15619e-34
-1.9213e-34
-4.84704e-35
-1.15077e-35
-2.57537e-36
-5.44144e-37
-1.08696e-37
-2.05531e-38
-3.6828e-39
-6.2583e-40
-1.00877e-40
-1.54158e-41
-2.2314e-42
-3.0554e-43
-3.95403e-44
-4.82686e-45
-5.55652e-46
-6.01429e-47
1.30883e-06
2.5715e-07
2.57132e-07
2.57128e-07
2.57107e-07
6.82607e-06
6.84781e-06
2.86691e-06
7.49854e-05
9.51582e-05
0.000142479
0.000527553
0.000529663
8.11876e-05
1.24508e-05
1.29472e-05
1.39251e-05
1.31029e-05
1.04789e-05
1.04788e-05
1.04788e-05
0.000203292
0.000633269
0.000621823
0.000106504
0.000688079
0.000851285
0.000611934
0.000177545
1.69387e-06
8.20586e-07
8.20375e-07
1.01802e-06
3.80996e-06
4.14255e-06
1.41527e-06
7.9791e-07
7.97921e-07
7.9794e-07
7.97951e-07
8.33971e-07
1.97038e-06
4.58861e-06
4.7127e-06
3.82508e-06
4.46523e-06
1.60723e-05
7.99715e-05
0.000101271
7.31668e-05
2.16227e-05
3.56771e-06
4.30012e-06
8.68221e-06
1.81918e-05
2.75288e-05
3.00282e-05
7.30396e-06
4.6002e-06
0.000398479
3.09962e-05
1.03835e-05
2.89545e-05
5.52737e-05
5.46505e-05
3.97502e-05
2.01155e-05
2.23783e-05
6.46757e-05
0.000115357
0.000112145
9.72584e-05
7.87298e-05
8.59214e-05
9.7501e-05
9.75019e-05
5.75267e-05
1.16787e-05
3.23983e-06
3.04145e-06
3.04145e-06
2.53278e-05
4.40288e-05
3.32867e-05
3.91347e-05
0.000103148
0.000286424
0.000295861
9.68291e-05
4.58374e-06
3.51928e-06
1.82866e-05
0.000190547
0.000253597
0.000151538
3.84151e-05
3.25063e-05
3.66556e-05
6.15711e-05
6.8439e-05
4.37251e-05
7.43556e-06
1.9831e-07
1.99182e-07
1.51517e-07
5.77021e-08
1.94837e-07
1.19749e-06
3.19933e-06
4.84956e-06
6.0569e-06
1.16723e-05
1.83861e-05
1.83867e-05
1.32035e-05
4.32633e-06
6.35135e-07
4.00838e-07
2.20157e-07
6.53674e-08
2.38321e-09
3.39645e-13
2.94247e-33
-5.7925e-31
-6.51553e-31
-4.50416e-31
-2.43288e-31
-1.12396e-31
-4.62799e-32
-1.73228e-32
-5.95298e-33
-1.8887e-33
-5.55383e-34
-1.51901e-34
-3.87819e-35
-9.27469e-36
-2.08417e-36
-4.41273e-37
-8.82263e-38
-1.66887e-38
-2.99114e-39
-5.08527e-40
-8.20353e-41
-1.25514e-41
-1.81958e-42
-2.49604e-43
-3.23677e-44
-3.95984e-45
-4.56886e-46
-4.95659e-47
2.62913e-05
3.02824e-07
2.5715e-07
2.57132e-07
2.67987e-07
5.62083e-06
4.08576e-06
1.47876e-06
6.42753e-05
0.000167316
0.000142661
0.000196243
0.000529826
0.000131022
1.24159e-05
1.19024e-05
1.04788e-05
1.04789e-05
1.04788e-05
1.04789e-05
1.04788e-05
5.84341e-05
0.000521297
0.00015907
1.44022e-05
0.000232892
0.000775777
0.000574804
0.000124597
8.20586e-07
8.20375e-07
8.20168e-07
7.97973e-07
7.97962e-07
7.97945e-07
7.97936e-07
7.97919e-07
7.97935e-07
7.97943e-07
7.97961e-07
7.97972e-07
9.18001e-07
1.31519e-06
1.28806e-06
1.00973e-06
1.17627e-06
3.94849e-06
2.36149e-05
7.59413e-05
7.91254e-05
4.40989e-05
2.30738e-05
2.99069e-05
4.13143e-05
4.13421e-05
4.1345e-05
3.00472e-05
2.80255e-05
4.60741e-06
8.63257e-05
8.67396e-06
2.69564e-06
1.12184e-05
3.67663e-05
4.13072e-05
3.1728e-05
1.48105e-05
7.2328e-06
1.08154e-05
2.05235e-05
2.19445e-05
1.8606e-05
1.04126e-05
6.99797e-06
9.5225e-06
2.98432e-05
4.43277e-05
2.6802e-05
8.7191e-06
3.84094e-06
5.05849e-06
4.86793e-05
6.41785e-05
5.02309e-05
7.67107e-05
0.000175587
0.000306801
0.000197779
3.62401e-05
8.72324e-07
7.13362e-07
2.52469e-06
3.50928e-05
0.000247847
0.000197149
8.52971e-05
3.24979e-05
3.21948e-05
3.21641e-05
3.11672e-05
1.4239e-05
1.04073e-06
5.80079e-07
1.3506e-06
1.34279e-06
4.5226e-07
2.02829e-07
4.7798e-07
1.86971e-06
3.80452e-06
5.25969e-06
6.77387e-06
1.28263e-05
1.77165e-05
1.77012e-05
8.69656e-06
6.16657e-07
1.30168e-11
3.77745e-12
4.52315e-12
1.33822e-11
5.46317e-12
1.58289e-13
-1.47614e-32
-2.30412e-31
-2.08382e-31
-1.31193e-31
-6.79422e-32
-3.04631e-32
-1.21295e-32
-4.35497e-33
-1.42446e-33
-4.27685e-34
-1.18614e-34
-3.05598e-35
-7.35088e-36
-1.65797e-36
-3.51908e-37
-7.04955e-38
-1.33596e-38
-2.39952e-39
-4.0898e-40
-6.61758e-41
-1.016e-41
-1.47852e-42
-2.03638e-43
-2.65176e-44
-3.2578e-45
-3.77464e-46
-4.11174e-47
5.83524e-05
4.87512e-06
2.57148e-07
2.5715e-07
6.83912e-07
5.4725e-06
2.30007e-06
1.39391e-06
3.46364e-06
0.00023974
0.000174938
0.000174956
0.000467316
0.000466621
4.79719e-05
1.65779e-05
1.77068e-05
1.28024e-05
2.50667e-05
1.95355e-05
1.04788e-05
1.4412e-05
0.000167447
2.96882e-05
1.04433e-05
0.000125244
0.000434237
0.000350147
0.000148316
3.51085e-05
3.74502e-06
2.31982e-06
1.18435e-06
7.97973e-07
7.97964e-07
7.97947e-07
8.73297e-07
8.55985e-06
1.72949e-05
6.64874e-06
8.30837e-07
7.9642e-07
7.9638e-07
7.96297e-07
7.96258e-07
7.9623e-07
2.44738e-06
1.59261e-05
5.05866e-05
7.12341e-05
7.1222e-05
5.73309e-05
4.00506e-05
3.06637e-05
2.39248e-05
1.46313e-05
7.54928e-06
1.30192e-05
1.29192e-05
1.01757e-05
2.12848e-06
1.81261e-06
4.30153e-06
1.76375e-05
2.56123e-05
2.13895e-05
1.08425e-05
4.44745e-06
4.40341e-06
6.80903e-06
8.91546e-06
8.34652e-06
5.27053e-06
4.33599e-06
5.34892e-06
9.6619e-06
4.4698e-05
5.73897e-05
5.14887e-05
1.74677e-05
1.70379e-05
0.000105562
8.41668e-05
9.25619e-05
0.000190439
0.000320941
0.000306972
0.000126776
8.85189e-06
6.90957e-07
6.87589e-07
1.02908e-06
8.1512e-06
0.000115649
0.000232121
0.0001554
8.0813e-05
6.25804e-05
4.59586e-05
1.60337e-05
1.14618e-06
3.99808e-07
1.48908e-06
2.99054e-06
3.09734e-06
1.60595e-06
2.81731e-07
2.65904e-07
8.82957e-07
2.36491e-06
4.59539e-06
4.60088e-06
5.58293e-06
5.94871e-06
6.06638e-06
3.8095e-06
8.25679e-07
2.89195e-14
3.81492e-14
3.51986e-13
9.69204e-13
1.08515e-12
2.25967e-13
-9.87932e-33
-6.3691e-32
-8.4113e-32
-6.68952e-32
-4.00256e-32
-1.96605e-32
-8.3068e-33
-3.10364e-33
-1.04342e-33
-3.19381e-34
-8.98045e-35
-2.33707e-35
-5.66462e-36
-1.28553e-36
-2.74326e-37
-5.52337e-38
-1.05208e-38
-1.89971e-39
-3.25608e-40
-5.29962e-41
-8.18603e-42
-1.1986e-42
-1.66095e-43
-2.17584e-44
-2.68854e-45
-3.13235e-46
-3.42994e-47
7.16476e-06
8.30449e-06
1.49252e-06
2.70633e-07
2.25232e-06
5.41084e-06
1.23704e-06
1.3917e-06
1.93878e-06
0.000257906
0.000456164
0.000191344
0.000221116
0.000286876
0.000144733
2.57045e-05
2.83944e-05
3.46579e-05
0.000130436
0.000137176
2.46552e-05
1.0444e-05
1.15749e-05
1.04435e-05
1.04434e-05
3.99647e-05
0.000176334
0.000191252
0.000201242
0.000150207
5.62519e-05
6.81455e-06
4.51923e-06
2.57947e-06
7.97975e-07
9.06428e-07
7.85126e-06
5.00348e-05
7.86898e-05
4.62626e-05
8.17554e-06
7.96506e-07
7.9642e-07
7.96381e-07
7.96301e-07
7.96298e-07
1.68774e-06
1.35308e-05
3.44146e-05
4.94079e-05
4.78438e-05
3.25206e-05
1.81766e-05
1.01552e-05
4.88663e-06
1.02803e-06
4.22422e-08
2.16357e-06
9.29567e-06
6.44775e-06
1.81261e-06
1.81222e-06
2.36313e-06
1.01012e-05
1.75081e-05
1.53808e-05
6.92658e-06
4.40341e-06
4.40341e-06
4.40341e-06
6.21518e-06
5.98353e-06
3.38624e-06
2.81181e-06
5.5953e-06
8.46976e-06
2.11972e-05
5.12824e-05
9.91188e-05
9.25027e-05
0.000109261
0.000149996
0.000118157
0.00019358
0.000388281
0.000412578
0.000268714
7.60965e-05
1.13228e-06
6.87589e-07
6.8756e-07
6.87465e-07
3.26569e-06
5.3919e-05
0.000239568
0.000239842
0.000183119
0.000109256
6.33644e-05
1.12859e-05
2.21167e-07
3.94815e-07
2.96235e-06
3.14677e-06
3.14688e-06
2.69276e-06
8.28085e-07
2.65815e-07
3.79699e-07
1.13876e-06
2.36369e-06
4.92608e-06
5.02637e-06
6.72843e-06
6.38107e-06
4.24559e-06
9.60242e-07
1.15023e-15
5.44788e-16
3.15582e-15
3.05102e-14
7.29309e-14
5.10217e-14
5.19526e-15
4.29586e-28
1.71321e-48
-2.69856e-32
-2.2606e-32
-1.23235e-32
-5.47853e-33
-2.11837e-33
-7.30976e-34
-2.28358e-34
-6.52647e-35
-1.7213e-35
-4.22001e-36
-9.67519e-37
-2.08446e-37
-4.23582e-38
-8.14218e-39
-1.48361e-39
-2.566e-40
-4.21395e-41
-6.56606e-42
-9.69495e-43
-1.35417e-43
-1.78721e-44
-2.22364e-45
-2.60732e-46
-2.87176e-47
3.38011e-07
1.29452e-06
1.06777e-06
4.84513e-07
7.25622e-06
5.35627e-06
7.07109e-07
3.76872e-06
3.13184e-06
6.66212e-05
0.000456762
0.000274076
0.000105987
0.000106301
6.45181e-05
3.82479e-05
8.02679e-05
9.73231e-05
0.000300295
0.000300344
7.94727e-05
1.04439e-05
1.04437e-05
1.04436e-05
1.25744e-05
1.82748e-05
4.3452e-05
0.000155668
0.000231598
0.00023162
0.000146135
2.51863e-05
2.68293e-06
2.78526e-06
1.34715e-06
2.84056e-06
3.28123e-05
0.0001049
0.0001049
0.000102882
3.96001e-05
2.61719e-06
7.96498e-07
7.96421e-07
7.96384e-07
7.96339e-07
1.05453e-06
9.52938e-06
4.39288e-05
4.2665e-05
2.27408e-05
8.54044e-06
1.81161e-06
2.05676e-07
2.95595e-08
2.78576e-08
2.78575e-08
3.90695e-08
4.19816e-06
4.99162e-06
4.06358e-06
4.00068e-06
5.57425e-06
6.92535e-06
1.20943e-05
1.21364e-05
5.04837e-06
4.40341e-06
4.40341e-06
4.54576e-06
4.41432e-06
4.12085e-06
1.90837e-06
1.2188e-06
7.7384e-06
1.43639e-05
1.43767e-05
1.74619e-05
6.34829e-05
0.000176443
0.00017644
0.000117586
0.000142295
0.00036709
0.000412573
0.000412575
0.000250572
4.96263e-05
6.87651e-07
6.87626e-07
6.87527e-07
6.87502e-07
1.84026e-06
2.13903e-05
0.000211489
0.000245916
0.000245916
0.000181784
8.44471e-05
1.66333e-05
2.21164e-07
7.49608e-07
1.63425e-06
1.27878e-06
1.94761e-06
2.68969e-06
1.58038e-06
3.36697e-07
2.91225e-07
6.95245e-07
1.22836e-06
6.74438e-06
1.06143e-05
1.5566e-05
1.46352e-05
7.74955e-06
1.47992e-06
3.27874e-17
3.51995e-18
1.27891e-17
8.35624e-17
6.3903e-16
2.86799e-15
1.37168e-15
5.54611e-17
1.0662e-30
-8.53788e-50
-9.35594e-33
-6.52781e-33
-3.23717e-33
-1.33585e-33
-4.81092e-34
-1.54925e-34
-4.53148e-35
-1.21797e-35
-3.03557e-36
-7.06525e-37
-1.54406e-37
-3.18132e-38
-6.19795e-39
-1.14418e-39
-2.00395e-40
-3.3305e-41
-5.24789e-42
-7.8291e-43
-1.10389e-43
-1.46934e-44
-1.84209e-45
-2.17467e-46
-2.40963e-47
2.41574e-07
3.70449e-07
9.09376e-07
7.94119e-07
9.09235e-06
4.68953e-06
3.90424e-07
5.50521e-06
8.48945e-06
1.68189e-05
0.000416352
0.000787698
0.000171393
3.98007e-05
3.97917e-05
5.85965e-05
0.000214787
0.000296102
0.000290528
0.000166879
0.000122216
2.02975e-05
1.04439e-05
1.51501e-05
4.66502e-05
2.66052e-05
2.65799e-05
0.000150973
0.000222862
0.000163298
9.17982e-05
3.44122e-05
2.50842e-06
2.01294e-06
1.87875e-06
8.30718e-06
7.4437e-05
0.000104899
0.0001049
0.000104899
8.11575e-05
2.31862e-05
8.65554e-07
7.96501e-07
7.96425e-07
7.96424e-07
7.96409e-07
3.90804e-06
4.27704e-05
5.30754e-05
3.44385e-05
8.59212e-06
2.78573e-08
2.78548e-08
2.78569e-08
2.78559e-08
2.78575e-08
2.78575e-08
7.45714e-07
3.87374e-06
8.98476e-06
1.06925e-05
1.68589e-05
1.50682e-05
9.74075e-06
9.72176e-06
9.13108e-06
6.99038e-06
8.84085e-06
9.02454e-06
7.87833e-06
3.05171e-06
5.88192e-07
4.83424e-07
3.64249e-06
1.98957e-05
1.77705e-05
1.49503e-05
1.52424e-05
0.000129673
0.000176443
0.000117522
0.000212043
0.000412569
0.000412571
0.000368719
0.000196273
3.09604e-05
6.965e-07
6.87605e-07
6.87595e-07
6.87484e-07
1.26127e-06
8.89254e-06
0.000107991
0.000245916
0.000245916
0.000245916
0.000126986
2.35871e-05
2.8385e-07
1.32437e-06
1.25697e-06
4.38364e-07
3.42852e-07
2.04467e-06
1.89971e-06
6.09322e-07
2.91053e-07
1.02342e-06
1.22735e-06
3.41651e-06
1.58103e-05
1.58355e-05
1.58355e-05
1.22042e-05
3.39391e-06
1.55409e-08
2.39021e-20
6.3339e-20
3.61867e-19
2.93579e-18
2.26476e-17
9.12542e-17
2.79712e-17
1.33742e-19
3.30472e-40
-4.4132e-33
-3.39513e-33
-1.8347e-33
-8.04339e-34
-3.02438e-34
-1.00625e-34
-3.02237e-35
-8.31291e-36
-2.11602e-36
-5.02437e-37
-1.11936e-37
-2.34947e-38
-4.65951e-39
-8.74804e-40
-1.5565e-40
-2.62457e-41
-4.19002e-42
-6.32418e-43
-9.00874e-44
-1.20987e-44
-1.52855e-45
-1.8166e-46
-2.02435e-47
2.41593e-07
2.86116e-07
1.53438e-06
2.76794e-06
9.09775e-06
3.50895e-06
3.87554e-07
1.37795e-06
1.83111e-05
1.68803e-05
0.000243425
0.0007892
0.000638457
7.26399e-05
3.98007e-05
0.000152345
0.00058702
0.000585672
2.68125e-05
1.62961e-05
0.000106757
3.86548e-05
1.62295e-05
3.03566e-05
8.61892e-05
6.28962e-05
5.46801e-05
7.77442e-05
0.000110261
5.33712e-05
1.01804e-05
3.67267e-06
1.5376e-06
9.40883e-07
1.96207e-06
2.25699e-05
9.73777e-05
0.0001049
0.0001049
0.0001049
0.0001049
5.87202e-05
1.11017e-05
7.96459e-07
7.96506e-07
7.96463e-07
7.96502e-07
1.86679e-06
2.19919e-05
6.71423e-05
6.22004e-05
2.5815e-05
2.4728e-06
2.78559e-08
2.78543e-08
3.44532e-08
2.78575e-08
4.49927e-08
2.28603e-07
2.78938e-06
1.33405e-05
1.86457e-05
2.63447e-05
2.45446e-05
1.30693e-05
5.87347e-06
9.94573e-06
1.03971e-05
1.03976e-05
1.03971e-05
6.65055e-06
2.35025e-06
1.68135e-07
9.84225e-08
7.48576e-07
1.95478e-05
2.98309e-05
1.73269e-05
1.44349e-05
3.99603e-05
0.000167356
0.000237306
0.000382944
0.000382749
0.000393902
0.000302806
0.000137911
1.56466e-05
6.93694e-07
6.87704e-07
6.87598e-07
6.87588e-07
8.89422e-07
5.0376e-06
4.20822e-05
0.000209924
0.000245916
0.000245916
0.000168941
3.56223e-05
4.95492e-07
1.88359e-06
1.45419e-06
3.30696e-07
2.65236e-07
1.01942e-06
1.87499e-06
9.71143e-07
3.08956e-07
5.64801e-07
1.65735e-06
3.12624e-06
1.0628e-05
1.58355e-05
1.58355e-05
1.58355e-05
7.63393e-06
6.96859e-07
2.18086e-21
4.40599e-22
7.579e-22
4.9017e-21
5.66068e-20
6.17568e-19
2.59498e-18
4.82285e-19
2.95449e-38
-1.47587e-33
-1.53497e-33
-9.57581e-34
-4.55034e-34
-1.80474e-34
-6.25157e-35
-1.9416e-35
-5.50098e-36
-1.43912e-36
-3.50651e-37
-8.00595e-38
-1.7198e-38
-3.48532e-39
-6.67487e-40
-1.20913e-40
-2.07158e-41
-3.35351e-42
-5.12255e-43
-7.37172e-44
-9.98574e-45
-1.27071e-45
-1.5193e-46
-1.70146e-47
2.41586e-07
2.5501e-07
1.14958e-06
5.34499e-06
6.0531e-06
1.97006e-06
1.05946e-06
1.80406e-06
2.82811e-05
3.33318e-05
5.72297e-05
0.000657964
0.00073791
0.00022501
5.36002e-05
0.000593359
0.000691674
0.000346135
2.78444e-05
1.6024e-05
5.07689e-05
4.87516e-05
3.83081e-05
3.99543e-05
0.000118775
0.000200614
0.000234205
0.000220283
0.000116479
2.58622e-05
1.30457e-06
1.28785e-06
9.69116e-07
9.40912e-07
3.01544e-06
4.68191e-05
9.74507e-05
7.86201e-05
7.08407e-05
0.000100984
0.000104899
9.8913e-05
5.30043e-05
1.35579e-05
9.5357e-07
7.96527e-07
7.9652e-07
1.03662e-06
9.25512e-06
8.13648e-05
0.000102089
9.73069e-05
5.5503e-05
1.80394e-05
6.65465e-07
4.22246e-08
2.97236e-08
8.2522e-08
2.76717e-06
2.69072e-06
2.09319e-06
2.2029e-05
2.64866e-05
2.64926e-05
1.78011e-05
4.26158e-06
4.20698e-06
8.95968e-06
9.02283e-06
6.71925e-06
3.06982e-06
9.729e-07
7.72351e-08
2.10168e-08
1.27293e-07
4.74007e-06
4.59936e-05
4.59475e-05
2.56599e-05
2.56876e-05
6.49188e-05
0.00011716
0.000146324
0.000135828
0.000141322
0.000158337
9.34694e-05
1.20806e-05
6.87831e-07
6.87719e-07
6.87704e-07
6.87598e-07
6.87617e-07
2.94936e-06
1.86378e-05
8.76134e-05
0.000204305
0.000245916
0.000232092
9.9678e-05
7.8319e-06
5.55876e-06
2.15379e-06
2.74224e-07
2.65235e-07
6.09223e-07
1.65537e-06
1.18261e-06
4.15947e-07
3.70724e-07
8.0928e-07
2.54691e-06
6.13479e-06
1.45472e-05
1.58355e-05
1.58355e-05
1.33968e-05
4.60446e-06
2.57107e-07
4.40373e-22
4.40282e-22
1.43249e-21
1.08579e-20
6.66859e-20
8.84619e-20
3.9578e-20
1.39775e-21
-2.22912e-40
-3.9789e-34
-3.22508e-34
-1.71318e-34
-7.34455e-35
-2.71403e-35
-8.92726e-36
-2.6665e-36
-7.32965e-37
-1.87098e-37
-4.46157e-38
-9.97602e-39
-2.09644e-39
-4.14651e-40
-7.72522e-41
-1.35574e-41
-2.23953e-42
-3.47887e-43
-5.07556e-44
-6.95282e-45
-8.92672e-46
-1.07503e-46
-1.21052e-47
2.416e-07
2.416e-07
4.01164e-07
2.77596e-06
2.33621e-06
5.9681e-07
2.57875e-06
4.21552e-06
3.62975e-06
5.73771e-05
5.73032e-05
0.000161685
0.000737792
0.000704937
0.000567254
0.000642734
0.00067837
0.000235194
1.96116e-05
1.60052e-05
1.54762e-05
2.1122e-05
1.98294e-05
3.40204e-05
0.000129678
0.000392229
0.000420307
0.000420316
0.000238219
2.30386e-05
9.38932e-07
9.38952e-07
9.38969e-07
9.55695e-07
9.48217e-06
5.788e-05
5.7645e-05
1.65721e-05
6.98899e-06
2.5777e-05
9.85646e-05
0.000104338
0.000102454
6.80349e-05
3.03591e-05
7.33757e-06
8.46306e-07
8.42185e-07
2.208e-06
1.81898e-05
7.26828e-05
9.73084e-05
9.73083e-05
5.06633e-05
5.78894e-06
4.75978e-08
3.19885e-08
1.01562e-07
3.2106e-06
1.39576e-06
6.52662e-07
5.24657e-06
1.39943e-05
1.28464e-05
6.11884e-06
1.06437e-06
3.16989e-07
4.36858e-07
5.92557e-07
5.56708e-07
3.75031e-07
1.81503e-07
5.5076e-08
5.21053e-09
1.22125e-08
5.1145e-07
1.29309e-05
7.56881e-05
7.56919e-05
3.52274e-05
2.08311e-05
3.80692e-05
7.59258e-05
5.96567e-05
4.29109e-05
5.14848e-05
3.4974e-05
6.06605e-06
6.89065e-07
6.87832e-07
6.87711e-07
6.87705e-07
6.87629e-07
1.13512e-06
6.27686e-06
2.5313e-05
5.12114e-05
9.54024e-05
0.000205463
0.000205658
9.36358e-05
4.16802e-05
3.01961e-06
2.65239e-07
2.65239e-07
3.41418e-07
1.21597e-06
1.25586e-06
5.63049e-07
3.15711e-07
4.45986e-07
1.64179e-06
4.06913e-06
7.54335e-06
1.15977e-05
1.47434e-05
1.47371e-05
1.24711e-05
3.65722e-06
2.52147e-08
5.49681e-23
1.08712e-26
2.79646e-26
2.74131e-25
4.26983e-24
5.10989e-23
5.22372e-23
3.8416e-24
-2.92004e-43
-7.11049e-35
-5.6301e-35
-2.87766e-35
-1.18598e-35
-4.23276e-36
-1.35155e-36
-3.93255e-37
-1.0545e-37
-2.62429e-38
-6.08775e-39
-1.32002e-39
-2.68035e-40
-5.10343e-41
-9.11666e-42
-1.52763e-42
-2.40013e-43
-3.53294e-44
-4.87313e-45
-6.28901e-46
-7.60332e-47
-8.58413e-48
2.41595e-07
2.41611e-07
2.4771e-07
5.74762e-07
3.93433e-07
2.75729e-07
2.8684e-06
8.39315e-07
8.28141e-07
4.55269e-05
0.000108044
0.000108299
0.000369698
0.000705311
0.000405336