/*--------------------------------*- C++ -*----------------------------------*\
| =========                 |                                                 |
| \\      /  F ield         | OpenFOAM: The Open Source CFD Toolbox           |
|  \\    /   O peration     | Version:  v1912                                 |
|   \\  /    A nd           | Website:  www.openfoam.com                      |
|    \\/     M anipulation  |                                                 |
\*---------------------------------------------------------------------------*/
FoamFile
{
    version     2.0;
    format      ascii;
    class       volScalarField;
    location    "50";
    object      omega;
}
// * * * * * * * * * * * * * * * * * * * * * * * * * * * * * * * * * * * * * //

dimensions      [0 0 -1 0 0 0 0];


internalField   nonuniform List<scalar> 
14268
(
0.00979098
0.00978688
0.00978453
0.00978392
0.00978448
0.00978536
0.00978548
0.00978637
0.00979461
0.00980914
0.00982887
0.00985387
0.00988156
0.00991283
0.00994522
0.00997792
0.0100096
0.0100396
0.0100659
0.0100866
0.0101008
0.0101072
0.010108
0.0101041
0.0100972
0.0100901
0.0100857
0.0100847
0.0100866
0.0100891
0.0100901
0.0100874
0.0100799
0.0100714
0.0100623
0.0100541
0.0100469
0.0100438
0.010042
0.0100432
0.0100471
0.0100531
0.0100597
0.0100683
0.010075
0.010082
0.0100851
0.0100892
0.0100937
0.010095
0.0101049
0.0101155
0.0101329
0.0101543
0.0101775
0.0102039
0.01023
0.010254
0.0102766
0.0102926
0.010304
0.0103083
0.0103081
0.0103063
0.0103044
0.0103023
0.0103005
0.0102993
0.0102987
0.0102987
0.010299
0.010299
0.0102988
0.010298
0.0102972
0.0102964
0.0102985
0.0103066
0.0103206
0.0103397
0.0103658
0.0104028
0.0104546
0.0105148
0.0105808
0.010633
0.183419
0.185408
0.187432
0.189376
0.191035
0.192231
0.192853
0.192778
0.192233
0.191287
0.189966
0.188312
0.186411
0.18434
0.182151
0.179932
0.17774
0.17563
0.17361
0.171778
0.170188
0.168939
0.167929
0.167204
0.166639
0.166075
0.165461
0.164764
0.163953
0.163127
0.162427
0.162005
0.162006
0.162513
0.163654
0.165368
0.167465
0.170039
0.172594
0.175447
0.178016
0.180426
0.1827
0.184467
0.186246
0.187575
0.188764
0.189649
0.18978
0.19011
0.189276
0.188893
0.188028
0.186721
0.185908
0.18413
0.183111
0.181622
0.180565
0.179639
0.178978
0.178673
0.178655
0.179206
0.18015
0.181537
0.183205
0.185093
0.187074
0.18902
0.190875
0.192519
0.193867
0.19488
0.195481
0.195645
0.195432
0.194959
0.194198
0.193173
0.191877
0.190155
0.187985
0.186516
0.185636
0.184104
0.240476
0.241105
0.241693
0.24223
0.242662
0.242953
0.243088
0.243068
0.242929
0.242638
0.242214
0.241677
0.241056
0.240369
0.239637
0.238898
0.238181
0.237482
0.236795
0.23614
0.235561
0.235082
0.234693
0.234401
0.234171
0.233941
0.233692
0.233413
0.233095
0.232779
0.232525
0.232397
0.23243
0.232672
0.233167
0.233883
0.234731
0.235729
0.236706
0.237753
0.238662
0.239465
0.240172
0.240703
0.2412
0.241562
0.241892
0.242118
0.242136
0.242227
0.24196
0.241854
0.241611
0.241199
0.240959
0.240408
0.240092
0.239641
0.239324
0.239049
0.238858
0.238775
0.238787
0.238991
0.239335
0.239822
0.240401
0.24103
0.241653
0.242234
0.242759
0.243203
0.243552
0.243805
0.243954
0.244001
0.243964
0.243868
0.243684
0.243415
0.243067
0.242605
0.242036
0.24171
0.241513
0.240729
0.252145
0.252368
0.252555
0.252706
0.252809
0.252862
0.25287
0.252858
0.25284
0.252757
0.252617
0.252442
0.252238
0.25201
0.251774
0.251544
0.251353
0.25117
0.250992
0.250799
0.250621
0.25044
0.250283
0.250135
0.249994
0.24984
0.249677
0.249509
0.249345
0.249207
0.249117
0.249085
0.249099
0.249176
0.249327
0.249548
0.249813
0.250113
0.250434
0.25076
0.251061
0.251306
0.251489
0.251632
0.251719
0.251795
0.251852
0.251881
0.251852
0.251869
0.251746
0.251705
0.251623
0.251465
0.251361
0.251168
0.251032
0.250871
0.250756
0.250649
0.250577
0.250528
0.250515
0.250555
0.250648
0.250783
0.250955
0.251148
0.251323
0.251471
0.251591
0.251678
0.251739
0.251777
0.251797
0.251804
0.251808
0.251805
0.251766
0.251695
0.2516
0.251468
0.251297
0.251247
0.25121
0.251211
0.255257
0.255406
0.255492
0.255543
0.25556
0.255539
0.255497
0.255462
0.255447
0.255404
0.255319
0.255228
0.25512
0.255011
0.254904
0.254811
0.254759
0.254725
0.254715
0.25467
0.254625
0.254546
0.25446
0.254346
0.254217
0.254061
0.253897
0.253733
0.253596
0.253484
0.253424
0.253407
0.253409
0.253422
0.253454
0.25351
0.253589
0.253665
0.253789
0.253908
0.254041
0.254132
0.25416
0.254195
0.254157
0.254145
0.254131
0.25407
0.254038
0.253995
0.253912
0.253853
0.253802
0.253713
0.253617
0.253531
0.253414
0.25333
0.253254
0.253179
0.25313
0.253076
0.253047
0.253029
0.253042
0.253073
0.253125
0.25319
0.253234
0.253254
0.253256
0.253239
0.253213
0.253182
0.253155
0.253136
0.25313
0.253139
0.253143
0.253129
0.253103
0.253056
0.252983
0.252974
0.252958
0.252951
0.256874
0.257038
0.257135
0.257187
0.257187
0.257143
0.257065
0.256987
0.256918
0.256856
0.25675
0.256643
0.256533
0.256431
0.25634
0.25626
0.256219
0.256196
0.256211
0.256208
0.256197
0.256143
0.256071
0.255959
0.25582
0.25565
0.25547
0.255297
0.255162
0.255058
0.255006
0.254969
0.254939
0.254928
0.254921
0.254926
0.254964
0.254983
0.255077
0.255144
0.255265
0.255332
0.255305
0.255336
0.255247
0.255221
0.255184
0.255094
0.255064
0.254988
0.254917
0.254823
0.254741
0.25468
0.254535
0.254461
0.2543
0.254205
0.2541
0.253999
0.253923
0.253837
0.253787
0.25373
0.253709
0.2537
0.253713
0.253751
0.253768
0.253764
0.253743
0.253705
0.253663
0.253617
0.253579
0.253553
0.253542
0.253548
0.25356
0.253556
0.253541
0.253508
0.253461
0.25348
0.253491
0.253536
0.258465
0.258674
0.258816
0.258906
0.258924
0.258881
0.258782
0.258653
0.258509
0.258373
0.258202
0.258017
0.257856
0.257725
0.257612
0.257513
0.257454
0.257415
0.257416
0.257427
0.257437
0.257395
0.257322
0.257199
0.257036
0.256838
0.256623
0.256414
0.256255
0.256132
0.256068
0.256003
0.255958
0.255931
0.255925
0.255932
0.255981
0.256001
0.256124
0.256206
0.256337
0.256426
0.256381
0.256405
0.256299
0.256239
0.256202
0.256086
0.256058
0.255938
0.255889
0.255726
0.255606
0.255529
0.255354
0.255253
0.255055
0.25495
0.254797
0.254675
0.254556
0.25444
0.254364
0.254274
0.254236
0.254202
0.254201
0.254231
0.254237
0.254223
0.254187
0.254131
0.254072
0.254005
0.253948
0.253902
0.25387
0.25385
0.25385
0.253864
0.253867
0.253851
0.253818
0.253795
0.253788
0.25376
0.260604
0.260933
0.261207
0.261407
0.261499
0.261517
0.261394
0.261183
0.260888
0.260592
0.260298
0.259939
0.259626
0.259382
0.259173
0.259005
0.258887
0.258795
0.258743
0.258718
0.258729
0.258695
0.258624
0.258496
0.25832
0.258102
0.257862
0.257624
0.257447
0.257314
0.257224
0.257118
0.257013
0.256987
0.25697
0.256991
0.257063
0.25711
0.257281
0.257405
0.257585
0.257714
0.257657
0.257731
0.257569
0.257551
0.257494
0.257357
0.257347
0.257182
0.257103
0.256895
0.256702
0.256635
0.256341
0.256286
0.255985
0.255833
0.255639
0.255442
0.255291
0.255124
0.255016
0.254891
0.254832
0.254774
0.254755
0.25478
0.254788
0.25478
0.254741
0.254679
0.254618
0.254543
0.254476
0.254413
0.254361
0.254319
0.254293
0.254288
0.254291
0.25426
0.254209
0.254141
0.254144
0.254128
0.263511
0.263979
0.264387
0.264705
0.264901
0.264986
0.264878
0.264614
0.264212
0.263729
0.263251
0.262745
0.262238
0.261791
0.261386
0.261066
0.260822
0.260619
0.260475
0.260387
0.260362
0.260334
0.260259
0.260113
0.259908
0.259652
0.259362
0.259055
0.258833
0.258665
0.258545
0.258384
0.258289
0.258227
0.258233
0.258279
0.258409
0.25851
0.258776
0.25898
0.259261
0.259428
0.259427
0.259484
0.259354
0.259268
0.25918
0.259049
0.259024
0.25881
0.258742
0.25841
0.258154
0.257983
0.25762
0.257489
0.257103
0.25691
0.256641
0.2564
0.256192
0.255983
0.255844
0.255694
0.255626
0.25556
0.255557
0.255606
0.255647
0.255673
0.25566
0.255625
0.255593
0.255512
0.25543
0.255345
0.255251
0.255163
0.255085
0.255026
0.254977
0.254915
0.254841
0.254711
0.254659
0.254591
0.26741
0.268082
0.268708
0.269233
0.269615
0.269838
0.269805
0.269506
0.268932
0.268205
0.267452
0.266709
0.265918
0.265191
0.264534
0.263985
0.263544
0.263176
0.262891
0.262692
0.262583
0.262524
0.262443
0.262271
0.262031
0.261744
0.261411
0.261072
0.260823
0.260621
0.260393
0.260135
0.259942
0.259873
0.259887
0.259997
0.260203
0.260421
0.260805
0.261183
0.261568
0.261846
0.261867
0.262008
0.261815
0.261745
0.261698
0.261481
0.261469
0.261217
0.261041
0.260651
0.260265
0.259984
0.259511
0.259227
0.258699
0.258435
0.258029
0.25773
0.257438
0.257171
0.257004
0.25683
0.256765
0.256718
0.256747
0.256852
0.256949
0.257037
0.257081
0.257088
0.257093
0.257028
0.256959
0.256858
0.25674
0.256615
0.256477
0.256353
0.256226
0.25608
0.255866
0.255614
0.25549
0.255453
0.27275
0.273757
0.274728
0.275569
0.27622
0.276617
0.276649
0.276262
0.275443
0.274385
0.27325
0.272096
0.270901
0.269752
0.268751
0.267896
0.267192
0.266634
0.266197
0.265879
0.265678
0.265561
0.265442
0.265225
0.264972
0.264648
0.264242
0.263789
0.263446
0.263181
0.262857
0.262493
0.262232
0.26211
0.262152
0.262312
0.262641
0.263013
0.263565
0.264149
0.264733
0.265181
0.265345
0.265609
0.265395
0.265427
0.265227
0.265064
0.26503
0.264587
0.264218
0.263809
0.263171
0.262809
0.26216
0.261759
0.261035
0.260582
0.260055
0.25961
0.259248
0.25891
0.258712
0.258514
0.25845
0.25844
0.258545
0.258728
0.258932
0.259123
0.259258
0.259332
0.259396
0.259322
0.259249
0.259085
0.25887
0.258639
0.258371
0.258121
0.25787
0.257624
0.257286
0.256862
0.256505
0.256343
0.280461
0.282103
0.283756
0.285245
0.286426
0.287153
0.287275
0.28666
0.28529
0.283512
0.281601
0.27973
0.277865
0.276044
0.27443
0.273146
0.272107
0.271269
0.270631
0.270193
0.26993
0.269778
0.269647
0.269388
0.269039
0.2686
0.268064
0.267495
0.267
0.266525
0.265993
0.265495
0.265183
0.265058
0.265136
0.26542
0.265908
0.266483
0.26733
0.268202
0.269113
0.269807
0.270233
0.270458
0.270489
0.270372
0.270331
0.270027
0.269983
0.269304
0.268665
0.268161
0.267282
0.266758
0.265925
0.265295
0.26443
0.263778
0.263048
0.262422
0.261912
0.261472
0.261221
0.260993
0.260946
0.260976
0.261154
0.261449
0.261787
0.262121
0.262397
0.262614
0.262802
0.262837
0.262841
0.262707
0.262451
0.262109
0.261634
0.261151
0.260672
0.260215
0.259599
0.258927
0.258319
0.257976
0.292345
0.295221
0.298227
0.301126
0.303635
0.305391
0.306153
0.305281
0.302646
0.299022
0.295112
0.291382
0.288027
0.284985
0.282406
0.280367
0.278745
0.277481
0.27652
0.275844
0.275439
0.275256
0.27513
0.274806
0.274353
0.273723
0.272923
0.272006
0.271253
0.27064
0.270037
0.269499
0.269147
0.26906
0.269216
0.26968
0.270515
0.271531
0.272818
0.274352
0.275767
0.276936
0.277669
0.278073
0.27821
0.278097
0.278407
0.278084
0.277955
0.277267
0.276073
0.275348
0.273924
0.272698
0.271573
0.270421
0.269203
0.268175
0.267159
0.266274
0.265596
0.265072
0.2648
0.264622
0.264668
0.264826
0.265213
0.265795
0.266512
0.267297
0.26806
0.268773
0.269389
0.269795
0.270062
0.270038
0.269681
0.268964
0.267899
0.266719
0.265509
0.264356
0.263027
0.261836
0.260738
0.259843
0.313942
0.320023
0.326902
0.33422
0.34123
0.346796
0.349918
0.349229
0.342387
0.332368
0.321958
0.312771
0.305316
0.299295
0.294552
0.290948
0.288282
0.286329
0.284921
0.28399
0.28341
0.283112
0.282873
0.282543
0.282025
0.281185
0.28007
0.278939
0.277885
0.276898
0.275983
0.275238
0.274878
0.274866
0.275313
0.276219
0.277707
0.27963
0.281978
0.284894
0.287346
0.289756
0.290966
0.291713
0.292106
0.292449
0.29336
0.29327
0.293858
0.293039
0.290774
0.289645
0.286518
0.283493
0.281372
0.278828
0.276959
0.275213
0.273814
0.27256
0.271672
0.271064
0.270803
0.270751
0.271051
0.271619
0.272594
0.273987
0.275852
0.278022
0.28038
0.282679
0.284793
0.28661
0.287956
0.288625
0.288203
0.286447
0.283594
0.280339
0.277016
0.273872
0.270555
0.268149
0.266202
0.264483
0.333939
0.344075
0.356964
0.373445
0.393945
0.416392
0.434582
0.437923
0.420787
0.395088
0.369569
0.347616
0.330723
0.318289
0.309339
0.302978
0.298558
0.295303
0.292965
0.291482
0.290557
0.290086
0.289845
0.289582
0.288978
0.287909
0.286405
0.28477
0.283395
0.282235
0.281085
0.280131
0.279603
0.279644
0.280282
0.281707
0.28382
0.286517
0.289868
0.294163
0.29792
0.301955
0.304233
0.306029
0.308205
0.310731
0.314523
0.317149
0.32099
0.321057
0.317039
0.314367
0.307274
0.299816
0.294814
0.288966
0.285315
0.282249
0.279944
0.27812
0.276904
0.276159
0.27593
0.276071
0.276685
0.277763
0.279544
0.282149
0.28587
0.290696
0.296529
0.303298
0.310497
0.317729
0.323756
0.327105
0.326546
0.321986
0.31446
0.305775
0.297202
0.289342
0.281862
0.276959
0.273138
0.270374
0.351928
0.367911
0.390385
0.421956
0.463616
0.510751
0.548935
0.555682
0.522321
0.472624
0.426195
0.387029
0.357479
0.336754
0.322713
0.313293
0.307138
0.302807
0.299613
0.297587
0.296326
0.295661
0.295297
0.294909
0.294142
0.29277
0.290914
0.28885
0.286952
0.285361
0.284186
0.283269
0.282806
0.282933
0.283687
0.28553
0.288087
0.29151
0.29577
0.301652
0.307125
0.313518
0.317807
0.322199
0.32742
0.333896
0.341933
0.348624
0.356288
0.357952
0.351851
0.34696
0.334551
0.320612
0.310994
0.300231
0.293767
0.288701
0.285207
0.282566
0.280936
0.280057
0.279865
0.280228
0.281265
0.283058
0.28602
0.290479
0.297055
0.306134
0.317886
0.331665
0.346211
0.360404
0.37181
0.378093
0.377446
0.369253
0.355511
0.339291
0.32317
0.308287
0.294637
0.286212
0.27986
0.275874
0.382717
0.410219
0.450905
0.508361
0.582929
0.669403
0.74244
0.756312
0.68979
0.595465
0.514303
0.447249
0.397335
0.36349
0.341224
0.326828
0.31756
0.311466
0.3073
0.304683
0.303051
0.302193
0.301646
0.30123
0.300397
0.298781
0.296544
0.294152
0.292036
0.289787
0.287826
0.286559
0.286177
0.286524
0.287636
0.29003
0.293383
0.298203
0.304299
0.313183
0.322451
0.333861
0.342451
0.351883
0.362081
0.374276
0.387507
0.39931
0.411432
0.414703
0.40576
0.397462
0.377327
0.353555
0.337078
0.318386
0.307032
0.298609
0.293065
0.289203
0.286747
0.285718
0.285658
0.286561
0.288552
0.291989
0.297503
0.305905
0.318463
0.335757
0.357537
0.381744
0.405751
0.42801
0.445574
0.455258
0.454817
0.44186
0.419279
0.391914
0.364496
0.338849
0.315214
0.300706
0.290111
0.283848
0.43559
0.482928
0.552909
0.651899
0.788306
0.96488
1.11873
1.15577
1.01122
0.820443
0.672899
0.552483
0.464953
0.408252
0.372267
0.349382
0.334405
0.324957
0.318713
0.314806
0.312301
0.31097
0.310125
0.30941
0.308196
0.305908
0.302845
0.299795
0.297336
0.295328
0.293375
0.291657
0.290961
0.291255
0.292827
0.295911
0.300656
0.307813
0.317401
0.331648
0.348022
0.36756
0.382911
0.399634
0.416805
0.438703
0.460007
0.481987
0.503033
0.509883
0.49655
0.482197
0.450171
0.410508
0.382428
0.350301
0.32972
0.315428
0.305746
0.299558
0.29593
0.294613
0.294974
0.297067
0.301005
0.307628
0.317891
0.333344
0.355731
0.38534
0.421244
0.459971
0.498038
0.534183
0.564287
0.581565
0.583598
0.563564
0.528009
0.482768
0.436777
0.392776
0.351616
0.326095
0.307283
0.296426
0.524817
0.606199
0.732536
0.93168
1.24361
1.64281
1.96586
1.9959
1.64591
1.2367
0.958312
0.733492
0.575152
0.477881
0.420281
0.384368
0.360738
0.345885
0.336402
0.330654
0.327076
0.325025
0.323615
0.322414
0.320498
0.317113
0.312579
0.307979
0.303994
0.300996
0.298769
0.297157
0.296613
0.297184
0.299543
0.303859
0.311115
0.322139
0.33804
0.361252
0.38832
0.418966
0.443686
0.471328
0.501303
0.539538
0.573509
0.611087
0.644166
0.65526
0.636912
0.614007
0.564637
0.500979
0.456468
0.404379
0.368236
0.343995
0.32757
0.317223
0.311356
0.309705
0.31084
0.315014
0.322354
0.334329
0.35233
0.378669
0.415514
0.462533
0.518932
0.580115
0.640044
0.69724
0.746306
0.775564
0.781238
0.752795
0.698292
0.626679
0.554061
0.482403
0.413475
0.369776
0.33681
0.316811
0.68364
0.841367
1.11908
1.62226
2.50006
3.63618
4.56809
4.32498
3.16608
2.08831
1.49503
1.05925
0.765241
0.589871
0.495854
0.439825
0.402668
0.378783
0.363615
0.354634
0.348944
0.34565
0.343609
0.342077
0.339555
0.33473
0.328198
0.321298
0.315398
0.310377
0.306483
0.304127
0.30359
0.304802
0.308594
0.315381
0.327152
0.344693
0.370603
0.407043
0.448672
0.493834
0.531997
0.576442
0.629576
0.692971
0.746436
0.80792
0.858989
0.877692
0.855461
0.820739
0.740276
0.641386
0.572444
0.491819
0.431818
0.39167
0.364301
0.347215
0.337846
0.335229
0.337493
0.344857
0.357544
0.377712
0.407368
0.449786
0.508003
0.580745
0.669517
0.767201
0.861423
0.951348
1.03318
1.08193
1.09972
1.05362
0.969864
0.853252
0.741795
0.628767
0.516236
0.443787
0.388148
0.353264
0.979582
1.30038
1.88126
2.90394
4.6155
7.91937
10.5411
10.9789
7.42236
4.16553
2.52364
1.63886
1.09711
0.773945
0.610919
0.524953
0.469529
0.432583
0.408404
0.394389
0.38619
0.381467
0.377876
0.374524
0.369718
0.361665
0.351268
0.340475
0.331413
0.324217
0.31866
0.315055
0.314215
0.316196
0.322207
0.333206
0.351902
0.379617
0.419243
0.47345
0.534348
0.600158
0.659856
0.731065
0.8225
0.924193
1.01118
1.11435
1.19748
1.23089
1.20553
1.15702
1.01612
0.860503
0.747716
0.623906
0.529864
0.465858
0.4215
0.394657
0.379404
0.37522
0.379363
0.391356
0.412308
0.444848
0.492016
0.558904
0.649482
0.76
0.89779
1.05355
1.19947
1.33961
1.48066
1.56864
1.61297
1.53726
1.40405
1.20824
1.04485
0.866723
0.680255
0.561282
0.46979
0.411476
1.51473
2.09286
2.97825
4.35664
7.264
14.968
18.8574
21.7369
20.8651
11.6554
5.07087
2.70615
1.69394
1.11789
0.795253
0.654771
0.571891
0.516708
0.480314
0.459222
0.44703
0.439956
0.434126
0.428258
0.419705
0.406175
0.389141
0.371406
0.35623
0.344513
0.336165
0.331308
0.330573
0.334129
0.343779
0.361564
0.390524
0.433509
0.49197
0.570414
0.659527
0.758922
0.858266
0.976901
1.1333
1.29976
1.44314
1.62178
1.76176
1.82489
1.81796
1.75489
1.49916
1.23968
1.02794
0.828193
0.681138
0.582839
0.51391
0.471529
0.447154
0.440358
0.44722
0.466835
0.501067
0.553438
0.628267
0.733566
0.874439
1.04127
1.25376
1.50213
1.72762
1.94657
2.19009
2.35048
2.44843
2.33848
2.12168
1.7801
1.56494
1.28788
0.959417
0.754979
0.601677
0.504816
2.32843
2.98242
3.94508
5.71735
17.5357
34.7764
62.8774
56.022
47.722
29.7542
16.0793
5.60877
2.7949
1.90199
1.09942
0.861191
0.731258
0.650071
0.59642
0.565505
0.548258
0.538966
0.53033
0.519442
0.502993
0.479394
0.451661
0.423261
0.398442
0.378829
0.365192
0.357514
0.356434
0.362142
0.377116
0.404794
0.448253
0.512071
0.596791
0.708092
0.840997
0.997785
1.16908
1.37202
1.63979
1.92971
2.18903
2.53389
2.78905
2.93832
2.94253
2.83184
2.36717
1.95983
1.52331
1.16752
0.910596
0.754622
0.656194
0.59509
0.55674
0.545023
0.55499
0.58621
0.640622
0.722844
0.838838
1.00251
1.22195
1.47633
1.81599
2.23707
2.63938
3.05372
3.53084
3.86231
3.99889
3.77525
3.33449
2.70951
2.48467
2.08371
1.46937
1.08896
0.818035
0.652968
2.9811
3.82813
4.99827
14.397
23.6397
34.1406
38.2531
50.7192
120.693
54.6916
37.2894
19.4419
6.24585
4.15332
1.58286
1.1733
0.969965
0.849047
0.771825
0.72878
0.707729
0.698329
0.688445
0.670543
0.639404
0.595731
0.548037
0.502416
0.462846
0.431392
0.409734
0.397524
0.395447
0.403634
0.425596
0.466175
0.528503
0.61813
0.738493
0.8979
1.10364
1.36306
1.6722
2.05548
2.57572
3.16572
3.87753
5.19923
6.34562
6.92024
6.52709
5.53774
4.07659
3.30558
2.43601
1.78793
1.29313
1.00143
0.851153
0.772619
0.717246
0.699357
0.712276
0.759802
0.842342
0.968668
1.1471
1.40269
1.75172
2.16618
2.72697
3.42762
4.43711
5.87162
7.7391
9.77123
10.1804
9.01351
6.69038
4.66344
4.1131
3.58098
2.44699
1.68867
1.16948
0.887372
3.72083
4.90355
14.4301
16.9481
21.7801
20.4419
14.6339
14.5796
20.8703
41.913
72.1502
47.1335
28.7585
14.5611
2.85788
1.61728
1.31325
1.1404
1.03302
0.976227
0.953291
0.949569
0.943791
0.921109
0.868275
0.78772
0.698908
0.619147
0.55552
0.506996
0.474084
0.455407
0.451614
0.462505
0.493016
0.549185
0.634855
0.757002
0.929143
1.16886
1.49631
1.92803
2.44387
2.98905
3.78154
4.7638
6.4307
12.2947
15.0633
17.7093
20.686
21.3597
12.7757
7.12413
4.175
2.98853
2.08223
1.44296
1.12503
1.00058
0.931763
0.903171
0.92229
0.994813
1.12532
1.32512
1.6058
2.00715
2.53646
3.06603
3.79968
4.70704
6.81433
10.5855
12.1302
14.4704
16.7615
18.053
18.795
14.0238
9.1967
6.79061
4.41375
2.87572
1.73411
1.26036
6.61025
16.9215
14.2018
16.0959
15.4449
9.37157
6.43182
5.90149
7.33676
10.6788
21.4415
63.2076
62.3714
60.876
27.5253
2.24546
1.77257
1.54435
1.40997
1.34679
1.3318
1.34599
1.35747
1.33929
1.26166
1.12286
0.9576
0.804626
0.689779
0.610622
0.560919
0.533893
0.527688
0.541362
0.581614
0.655932
0.771002
0.940446
1.19574
1.56884
2.09041
2.72192
3.33074
3.84686
5.39279
13.6933
21.6788
37.1508
58.9111
148.174
36.7324
35.2891
46.4953
64.6501
11.4916
5.55158
3.81841
2.47893
1.67317
1.3646
1.23289
1.19374
1.23612
1.35817
1.57053
1.88816
2.32314
2.85593
3.49539
3.9863
5.47007
9.00339
11.5238
13.8409
18.0823
22.2625
22.7051
23.5574
26.971
25.5312
26.68
19.4763
9.94901
5.45801
2.62189
1.82811
14.0604
13.1837
12.9885
12.9822
8.23348
4.63526
3.44313
3.10645
3.18556
3.73926
7.50363
15.6838
52.4504
138.104
405.257
4.05581
2.43773
2.07121
1.89114
1.83808
1.84967
1.9016
1.959
1.97696
1.89216
1.68651
1.41085
1.12974
0.906634
0.760112
0.676585
0.634652
0.624713
0.641695
0.693635
0.791321
0.95041
1.20157
1.60057
2.20255
2.92524
3.40947
4.04352
7.45797
10.8467
14.3326
19.0547
22.4409
18.7645
15.2296
18.5995
28.9758
71.5881
309.307
34.7502
15.0725
8.14773
5.17558
3.08441
2.09558
1.81619
1.72329
1.77734
1.96606
2.29688
2.76374
3.29071
3.76361
4.53627
7.60947
9.16539
10.3598
11.4377
12.1613
12.8976
14.2995
16.9218
19.288
30.1398
41.854
43.1138
26.8524
24.059
15.3558
4.09477
2.67889
10.5934
10.6515
10.8675
8.03166
4.14924
2.50422
1.96275
1.7588
1.76084
1.9645
3.36017
4.34614
20.102
237.321
438.175
6.81235
4.67771
3.03559
2.5815
2.51528
2.56666
2.67958
2.82562
2.89745
2.80205
2.53747
2.15528
1.70189
1.30005
1.00978
0.845048
0.768469
0.749325
0.770275
0.839789
0.977144
1.21628
1.61698
2.27181
3.15587
3.51565
6.35967
8.06834
9.16685
10.4634
11.014
9.6758
7.37485
5.62601
5.21323
5.72166
7.8715
12.3562
27.8405
141.806
18.2112
19.139
14.543
8.36322
3.75313
2.80625
2.63052
2.68771
2.93477
3.32649
3.89897
4.52096
12.2998
9.95732
8.16939
9.24348
10.0759
9.63602
8.1351
6.76253
6.35209
7.07683
8.31969
11.877
14.624
25.9273
34.124
29.3221
29.676
10.7981
4.28712
8.57494
8.65289
7.39945
4.23653
2.23596
1.4813
1.18827
1.07098
1.09682
1.23724
1.73794
1.87094
2.91137
18.9176
374.778
11.7107
5.90245
5.57947
5.22823
4.79802
4.89117
5.19209
5.60868
5.67795
4.74608
3.8777
3.25902
2.58992
1.99486
1.4844
1.14895
0.983371
0.93401
0.957859
1.05997
1.27245
1.65617
2.33579
3.36499
4.22857
8.83744
8.09393
8.08061
8.16746
7.10057
4.99804
3.66256
2.98722
2.62338
2.61273
2.79111
3.16482
3.85587
4.88254
7.20436
11.6275
19.5967
30.5372
44.2562
16.5381
4.69858
3.9633
3.93104
4.18174
4.94031
9.53142
30.0329
11.0989
8.19126
8.11
8.21627
6.97504
4.93277
3.60023
3.13765
3.03039
3.12135
3.35133
3.86283
5.02117
7.2591
10.8458
18.3192
32.9468
39.867
20.7418
6.8537
6.04999
4.10859
2.29217
1.34977
0.981761
0.828045
0.772102
0.800236
0.906738
1.07569
1.17718
1.52231
2.24079
3.29364
4.52199
5.86425
6.15224
8.60895
9.62092
11.1072
13.1895
15.5704
18.5292
17.0707
10.9177
5.89607
3.87711
2.98044
2.32575
1.72527
1.38136
1.26258
1.28186
1.43448
1.77714
2.42799
3.53208
5.06453
36.9424
11.9015
7.22634
6.80328
5.11086
3.38727
2.53702
2.15468
2.04106
1.95993
1.99173
2.11435
2.3692
2.75619
3.33393
4.54624
6.8082
11.9429
26.8415
71.6253
699.442
31.7662
9.03852
7.33227
10.8047
44.274
64.5107
16.8459
7.89576
7.14614
6.67717
5.13549
3.50294
2.75463
2.38812
2.24679
2.20289
2.21449
2.24164
2.31411
2.47347
3.60384
5.64802
10.3078
25.7001
53.3697
90.2939
4.7975
3.54914
2.28255
1.35892
0.919057
0.735114
0.655063
0.626035
0.645349
0.718317
0.798364
0.899255
1.13572
1.54023
2.21004
3.12523
3.99784
5.4731
8.71737
9.75115
11.489
14.4272
17.7565
24.1816
36.7303
28.3014
28.3112
10.3424
4.21076
3.36458
2.74027
2.10001
1.84437
1.84835
2.08114
2.65347
3.70699
5.4994
24.9039
59.1132
8.12702
5.90066
4.2008
2.72111
2.10915
1.80663
1.66518
1.60825
1.55307
1.56355
1.63327
1.80131
2.03643
2.40162
3.15044
4.38953
6.85226
11.8495
21.2555
41.7101
116.151
214.127
72.13
71.6725
38.7685
20.3901
8.22662
6.3073
5.39247
4.1201
2.90803
2.30085
2.02979
1.86017
1.76969
1.71432
1.67427
1.62904
1.59757
1.57658
1.91347
2.81652
5.4525
12.5533
23.693
73.1517
2.91966
2.05395
1.35271
0.901289
0.690463
0.593043
0.547269
0.530873
0.544244
0.5926
0.648245
0.718584
0.873024
1.14567
1.5624
2.04966
2.60296
3.47974
5.34747
6.32081
8.38569
11.4534
13.3198
18.5886
37.6241
35.3665
57.5761
109.059
9.22892
4.37134
3.80968
3.34498
2.84138
2.80687
3.17442
4.05127
5.60145
11.2296
63.6467
27.4159
5.32061
3.75675
2.47442
1.88981
1.62117
1.41837
1.2989
1.24318
1.18452
1.18814
1.23422
1.35663
1.51918
1.76433
2.2411
2.93292
4.22763
6.88132
12.4273
24.3301
49.1348
76.563
43.7539
30.3537
15.402
7.62057
5.40556
4.46154
3.26478
2.53238
2.02554
1.77927
1.63024
1.50897
1.42035
1.34418
1.26654
1.20029
1.14846
1.09931
1.18757
1.48319
2.6161
5.75102
8.23263
11.2359
1.76398
1.25146
0.889774
0.666663
0.558343
0.500931
0.47114
0.460541
0.470709
0.504763
0.544408
0.593848
0.696149
0.87299
1.1582
1.47191
1.80284
2.24346
2.7533
3.2435
3.81816
4.51134
5.26222
6.64647
8.93145
16.1486
71.4462
174.505
28.8735
7.02183
4.67406
4.47444
4.45389
4.455
4.81687
5.77603
8.21589
74.4383
50.9327
8.15491
3.44116
2.33326
1.76228
1.46097
1.25867
1.06652
0.956679
0.917232
0.877613
0.885711
0.921274
1.00863
1.12043
1.29393
1.6311
2.06685
2.72377
3.80014
5.43614
7.72069
10.4212
12.7454
12.9199
9.91758
6.36408
4.46502
3.50766
2.8109
2.18377
1.84856
1.60033
1.43903
1.30781
1.19063
1.10191
1.02412
0.941301
0.881365
0.834244
0.791307
0.833841
0.934408
1.39158
2.63985
4.48682
7.01731
1.12095
0.838283
0.650955
0.532631
0.469369
0.432861
0.413649
0.407762
0.415886
0.440344
0.469042
0.504348
0.571195
0.683985
0.865877
1.06621
1.27581
1.56461
1.92815
2.33373
2.65786
2.89464
3.16313
3.62774
4.47431
6.79392
74.9305
20.3119
17.9546
26.1666
9.91818
4.95244
4.88632
5.09518
5.48899
7.75183
72.0447
78.4717
20.9185
3.83701
2.29722
1.68058
1.35325
1.11872
0.953004
0.797245
0.712689
0.691909
0.669347
0.677394
0.703024
0.764089
0.83821
0.956995
1.19865
1.50095
1.90917
2.48547
3.21403
4.10079
5.04057
5.6612
5.64352
4.67836
3.59387
2.90271
2.3494
1.97288
1.6623
1.4399
1.25413
1.10031
0.980037
0.884196
0.814682
0.754689
0.689865
0.645766
0.613056
0.583976
0.606924
0.666799
0.967755
1.90242
3.5048
5.04799
0.77458
0.618437
0.515297
0.44662
0.407495
0.384436
0.373035
0.370155
0.376644
0.394214
0.415418
0.44122
0.485283
0.554672
0.664661
0.784842
0.908253
1.07362
1.26394
1.4908
1.7123
1.88132
2.09127
2.48062
3.14811
4.49955
7.01182
9.19161
15.0809
40.0837
122.119
60.7619
11.0728
8.4405
20.4836
73.0477
104.032
39.0322
7.07146
2.41853
1.67666
1.28995
1.04851
0.850521
0.719778
0.608145
0.548614
0.537875
0.524343
0.531831
0.549046
0.591156
0.640943
0.721392
0.894277
1.11087
1.39059
1.75788
2.16506
2.57131
2.93379
3.16693
3.12715
2.80278
2.36528
2.03253
1.72723
1.5091
1.29381
1.09482
0.941683
0.817501
0.733334
0.667954
0.618823
0.574326
0.525903
0.493898
0.471537
0.45265
0.466043
0.500467
0.691038
1.35873
2.68255
3.73145
0.581767
0.49158
0.431378
0.389727
0.365341
0.351043
0.343739
0.342268
0.347166
0.36014
0.375987
0.395112
0.425153
0.468556
0.533258
0.600839
0.669602
0.762121
0.866278
0.988369
1.10762
1.21232
1.37312
1.6812
2.17171
3.01592
4.288
6.24083
9.5364
16.2896
32.3942
114.606
166.056
75.5448
90.3992
101.139
54.8998
13.1918
3.17732
1.74442
1.30172
0.999632
0.805043
0.650976
0.555337
0.477957
0.438943
0.434033
0.425463
0.430686
0.441938
0.469399
0.501851
0.554885
0.674418
0.829369
1.0289
1.29138
1.56967
1.80961
1.98423
2.09072
2.06678
1.93718
1.71299
1.52132
1.31757
1.15189
0.974549
0.815354
0.705849
0.620472
0.565433
0.522102
0.489504
0.458028
0.423118
0.400972
0.386409
0.374505
0.381653
0.399529
0.51147
0.945338
1.9566
2.69381
0.46819
0.413962
0.377197
0.351155
0.335651
0.326294
0.321667
0.32097
0.325177
0.334765
0.346791
0.361446
0.382715
0.410995
0.449866
0.486236
0.521146
0.569712
0.624147
0.689544
0.757145
0.826019
0.940774
1.17534
1.54825
2.13793
2.90513
4.08219
6.21645
10.3483
18.9452
42.4734
160.244
107.797
75.1756
50.7808
18.8849
5.02956
1.94298
1.35318
1.02979
0.776887
0.621834
0.510367
0.443498
0.393648
0.370321
0.368354
0.363489
0.366915
0.373128
0.390139
0.410845
0.443458
0.520598
0.623445
0.760459
0.946964
1.15439
1.3377
1.46296
1.52561
1.50748
1.4324
1.28355
1.14894
0.988286
0.864767
0.73385
0.620902
0.547014
0.492335
0.455974
0.42674
0.405801
0.384115
0.359803
0.345333
0.335278
0.327748
0.331711
0.340711
0.403565
0.662307
1.36453
1.89868
0.3977
0.364188
0.341229
0.32463
0.314565
0.308601
0.30575
0.305796
0.30904
0.316221
0.325267
0.336482
0.352042
0.371425
0.396122
0.416149
0.432075
0.455549
0.481845
0.514673
0.552588
0.599364
0.683187
0.85243
1.13338
1.54709
1.99988
2.64664
3.78772
6.00251
9.92172
16.53
26.4901
37.6107
30.146
18.2487
7.03556
2.44007
1.42732
1.07851
0.812226
0.60657
0.491203
0.416691
0.375123
0.344186
0.330642
0.330891
0.326851
0.328206
0.331479
0.341752
0.354321
0.373486
0.421354
0.485837
0.572826
0.694118
0.834062
0.967725
1.06247
1.11457
1.1015
1.05628
0.945939
0.856146
0.739811
0.655969
0.56539
0.488303
0.438965
0.403232
0.37984
0.36101
0.348676
0.335142
0.319662
0.310555
0.303784
0.299547
0.301988
0.305636
0.338458
0.476148
0.917703
1.29788
0.352441
0.331504
0.316966
0.306357
0.299815
0.295868
0.294087
0.294294
0.296924
0.302323
0.309332
0.31801
0.329609
0.34345
0.360052
0.371804
0.378009
0.38843
0.400017
0.415195
0.436358
0.46907
0.533044
0.661193
0.882643
1.18271
1.46826
1.82079
2.40404
3.52933
5.51452
8.4733
11.7777
14.2956
11.9963
7.13839
3.07186
1.55209
1.12661
0.856202
0.636763
0.482127
0.405191
0.359177
0.335159
0.31494
0.307317
0.307858
0.304081
0.304582
0.306514
0.312471
0.319651
0.330631
0.359175
0.398511
0.452307
0.526988
0.612961
0.698755
0.759723
0.804242
0.796037
0.776764
0.700945
0.646127
0.566305
0.51067
0.450455
0.400411
0.368722
0.346435
0.331872
0.320917
0.313781
0.305513
0.295846
0.290167
0.285942
0.28326
0.284217
0.285956
0.302425
0.369503
0.61618
0.874278
0.322855
0.309713
0.300363
0.293465
0.289168
0.286686
0.285696
0.286092
0.288206
0.292227
0.297545
0.304201
0.313026
0.323222
0.334947
0.342515
0.344081
0.348001
0.352141
0.358246
0.369993
0.393273
0.443103
0.544344
0.726676
0.959429
1.151
1.35098
1.64178
2.17446
3.08709
4.36873
5.64306