/*--------------------------------*- C++ -*----------------------------------*\
| =========                 |                                                 |
| \\      /  F ield         | OpenFOAM: The Open Source CFD Toolbox           |
|  \\    /   O peration     | Version:  v1912                                 |
|   \\  /    A nd           | Website:  www.openfoam.com                      |
|    \\/     M anipulation  |                                                 |
\*---------------------------------------------------------------------------*/
FoamFile
{
    version     2.0;
    format      ascii;
    class       volSymmTensorField;
    location    "50";
    object      R;
}
// * * * * * * * * * * * * * * * * * * * * * * * * * * * * * * * * * * * * * //

dimensions      [0 2 -2 0 0 0 0];


internalField   nonuniform List<symmTensor> 
14268
(
(1.28511e-12 2.8159e-14 0 1.14727e-12 0 1.21551e-12)
(1.43555e-12 3.07264e-14 0 1.28505e-12 0 1.35962e-12)
(1.64639e-12 3.37559e-14 0 1.48041e-12 0 1.56273e-12)
(1.84104e-12 3.61985e-14 0 1.66241e-12 0 1.75106e-12)
(2.02382e-12 3.82169e-14 0 1.8346e-12 0 1.92854e-12)
(2.2042e-12 3.99723e-14 0 2.00561e-12 0 2.10424e-12)
(2.38276e-12 4.14895e-14 0 2.17589e-12 0 2.27866e-12)
(2.55906e-12 4.27787e-14 0 2.34497e-12 0 2.45136e-12)
(2.7327e-12 4.38506e-14 0 2.51237e-12 0 2.62189e-12)
(2.90334e-12 4.47171e-14 0 2.67771e-12 0 2.7899e-12)
(3.07076e-12 4.53912e-14 0 2.84071e-12 0 2.95512e-12)
(3.23478e-12 4.58861e-14 0 3.00111e-12 0 3.11735e-12)
(3.39528e-12 4.6215e-14 0 3.15873e-12 0 3.27643e-12)
(3.55217e-12 4.63909e-14 0 3.31345e-12 0 3.43226e-12)
(3.70544e-12 4.64262e-14 0 3.46516e-12 0 3.58477e-12)
(3.85506e-12 4.6333e-14 0 3.61381e-12 0 3.73392e-12)
(4.00105e-12 4.61224e-14 0 3.75937e-12 0 3.87972e-12)
(4.14347e-12 4.58051e-14 0 3.90181e-12 0 4.02217e-12)
(4.28235e-12 4.53911e-14 0 4.04117e-12 0 4.16131e-12)
(4.41776e-12 4.48897e-14 0 4.17744e-12 0 4.29718e-12)
(4.54978e-12 4.43093e-14 0 4.31068e-12 0 4.42983e-12)
(4.67848e-12 4.36579e-14 0 4.44092e-12 0 4.55932e-12)
(4.80394e-12 4.29429e-14 0 4.56822e-12 0 4.68571e-12)
(4.92623e-12 4.21709e-14 0 4.69261e-12 0 4.80908e-12)
(5.04545e-12 4.13483e-14 0 4.81417e-12 0 4.92948e-12)
(5.16167e-12 4.04808e-14 0 4.93294e-12 0 5.04699e-12)
(5.27498e-12 3.95737e-14 0 5.04898e-12 0 5.16168e-12)
(5.38544e-12 3.86317e-14 0 5.16235e-12 0 5.27361e-12)
(5.49313e-12 3.76594e-14 0 5.2731e-12 0 5.38285e-12)
(5.59813e-12 3.6661e-14 0 5.3813e-12 0 5.48946e-12)
(5.7005e-12 3.56402e-14 0 5.48698e-12 0 5.59351e-12)
(5.80031e-12 3.46005e-14 0 5.59022e-12 0 5.69504e-12)
(5.89762e-12 3.35453e-14 0 5.69104e-12 0 5.79413e-12)
(5.9925e-12 3.24775e-14 0 5.78951e-12 0 5.89082e-12)
(6.08501e-12 3.13998e-14 0 5.88568e-12 0 5.98516e-12)
(6.17519e-12 3.03148e-14 0 5.97958e-12 0 6.07722e-12)
(6.26311e-12 2.92249e-14 0 6.07126e-12 0 6.16703e-12)
(6.34882e-12 2.81323e-14 0 6.16076e-12 0 6.25464e-12)
(6.43236e-12 2.7039e-14 0 6.24813e-12 0 6.34011e-12)
(6.51378e-12 2.59468e-14 0 6.3334e-12 0 6.42347e-12)
(6.59314e-12 2.48575e-14 0 6.41662e-12 0 6.50476e-12)
(6.67046e-12 2.37726e-14 0 6.49781e-12 0 6.58403e-12)
(6.7458e-12 2.26937e-14 0 6.57702e-12 0 6.66131e-12)
(6.8192e-12 2.1622e-14 0 6.65429e-12 0 6.73665e-12)
(6.89068e-12 2.05589e-14 0 6.72962e-12 0 6.81007e-12)
(6.96029e-12 1.95056e-14 0 6.80307e-12 0 6.8816e-12)
(7.0281e-12 1.84628e-14 0 6.87469e-12 0 6.95132e-12)
(7.09412e-12 1.74319e-14 0 6.9445e-12 0 7.01924e-12)
(7.15824e-12 1.64139e-14 0 7.01238e-12 0 7.08525e-12)
(7.22102e-12 1.54077e-14 0 7.0789e-12 0 7.14991e-12)
(7.28183e-12 1.44159e-14 0 7.1434e-12 0 7.21257e-12)
(7.34098e-12 1.34399e-14 0 7.20621e-12 0 7.27355e-12)
(7.39854e-12 1.24789e-14 0 7.26737e-12 0 7.33292e-12)
(7.45453e-12 1.15336e-14 0 7.32692e-12 0 7.39069e-12)
(7.50897e-12 1.06044e-14 0 7.38488e-12 0 7.4469e-12)
(7.5619e-12 9.69177e-15 0 7.44127e-12 0 7.50156e-12)
(7.61333e-12 8.7961e-15 0 7.49611e-12 0 7.5547e-12)
(7.66331e-12 7.91765e-15 0 7.54945e-12 0 7.60636e-12)
(7.71187e-12 7.05666e-15 0 7.6013e-12 0 7.65657e-12)
(7.75902e-12 6.21334e-15 0 7.65171e-12 0 7.70535e-12)
(7.80481e-12 5.38784e-15 0 7.70068e-12 0 7.75274e-12)
(7.84927e-12 4.58027e-15 0 7.74826e-12 0 7.79876e-12)
(7.89242e-12 3.7907e-15 0 7.79448e-12 0 7.84344e-12)
(7.93429e-12 3.01917e-15 0 7.83935e-12 0 7.88682e-12)
(7.97492e-12 2.26563e-15 0 7.88292e-12 0 7.92892e-12)
(8.01432e-12 1.53008e-15 0 7.92521e-12 0 7.96977e-12)
(8.05254e-12 8.1251e-16 0 7.96624e-12 0 8.00939e-12)
(8.08958e-12 1.12869e-16 0 8.00604e-12 0 8.04782e-12)
(8.12549e-12 -5.69022e-16 0 8.04465e-12 0 8.08508e-12)
(8.1603e-12 -1.23331e-15 0 8.08208e-12 0 8.1212e-12)
(8.19402e-12 -1.88013e-15 0 8.11837e-12 0 8.15621e-12)
(8.22669e-12 -2.50965e-15 0 8.15354e-12 0 8.19013e-12)
(8.25833e-12 -3.12207e-15 0 8.18763e-12 0 8.22299e-12)
(8.28897e-12 -3.71758e-15 0 8.22065e-12 0 8.25482e-12)
(8.31863e-12 -4.29641e-15 0 8.25263e-12 0 8.28564e-12)
(8.34734e-12 -4.85879e-15 0 8.28359e-12 0 8.31548e-12)
(8.37512e-12 -5.40499e-15 0 8.31357e-12 0 8.34436e-12)
(8.402e-12 -5.93529e-15 0 8.34259e-12 0 8.37231e-12)
(8.42799e-12 -6.44983e-15 0 8.37067e-12 0 8.39935e-12)
(8.45314e-12 -6.94898e-15 0 8.39783e-12 0 8.4255e-12)
(8.47745e-12 -7.43303e-15 0 8.42411e-12 0 8.4508e-12)
(8.50096e-12 -7.90227e-15 0 8.44953e-12 0 8.47526e-12)
(8.52367e-12 -8.35697e-15 0 8.47409e-12 0 8.4989e-12)
(8.54563e-12 -8.79746e-15 0 8.49785e-12 0 8.52176e-12)
(8.56683e-12 -9.224e-15 0 8.5208e-12 0 8.54384e-12)
(8.58733e-12 -9.63693e-15 0 8.54299e-12 0 8.56518e-12)
(8.60711e-12 -1.00365e-14 0 8.56441e-12 0 8.58578e-12)
(8.62622e-12 -1.04231e-14 0 8.58512e-12 0 8.6057e-12)
(8.64466e-12 -1.0797e-14 0 8.6051e-12 0 8.6249e-12)
(8.66247e-12 -1.11585e-14 0 8.62441e-12 0 8.64347e-12)
(8.67965e-12 -1.15079e-14 0 8.64303e-12 0 8.66136e-12)
(8.69624e-12 -1.18455e-14 0 8.66102e-12 0 8.67865e-12)
(8.71222e-12 -1.21717e-14 0 8.67836e-12 0 8.69532e-12)
(8.72766e-12 -1.24867e-14 0 8.69511e-12 0 8.71141e-12)
(8.74253e-12 -1.27908e-14 0 8.71125e-12 0 8.72691e-12)
(8.75688e-12 -1.30843e-14 0 8.72683e-12 0 8.74188e-12)
(8.77071e-12 -1.33675e-14 0 8.74184e-12 0 8.7563e-12)
(8.78403e-12 -1.36408e-14 0 8.75631e-12 0 8.7702e-12)
(8.79689e-12 -1.39043e-14 0 8.77028e-12 0 8.78361e-12)
(8.80925e-12 -1.41584e-14 0 8.78371e-12 0 8.7965e-12)
(8.82118e-12 -1.44033e-14 0 8.79668e-12 0 8.80896e-12)
(8.83266e-12 -1.46394e-14 0 8.80915e-12 0 8.82093e-12)
(8.84372e-12 -1.48668e-14 0 8.82118e-12 0 8.83248e-12)
(8.85438e-12 -1.50858e-14 0 8.83276e-12 0 8.84359e-12)
(8.86462e-12 -1.52969e-14 0 8.84389e-12 0 8.85428e-12)
(8.8745e-12 -1.54999e-14 0 8.85464e-12 0 8.8646e-12)
(8.88398e-12 -1.56957e-14 0 8.86495e-12 0 8.87449e-12)
(8.89314e-12 -1.58836e-14 0 8.87492e-12 0 8.88406e-12)
(8.9019e-12 -1.6065e-14 0 8.88445e-12 0 8.89321e-12)
(8.91039e-12 -1.62389e-14 0 8.89368e-12 0 8.90206e-12)
(8.9185e-12 -1.64066e-14 0 8.90251e-12 0 8.91053e-12)
(8.92634e-12 -1.65676e-14 0 8.91104e-12 0 8.91872e-12)
(8.93384e-12 -1.67225e-14 0 8.91921e-12 0 8.92655e-12)
(8.94108e-12 -1.68714e-14 0 8.92709e-12 0 8.93411e-12)
(8.94802e-12 -1.70143e-14 0 8.93465e-12 0 8.94136e-12)
(8.95469e-12 -1.71518e-14 0 8.94192e-12 0 8.94833e-12)
(8.96111e-12 -1.72837e-14 0 8.94891e-12 0 8.95504e-12)
(8.96727e-12 -1.74106e-14 0 8.95561e-12 0 8.96147e-12)
(8.97319e-12 -1.75321e-14 0 8.96207e-12 0 8.96766e-12)
(8.97887e-12 -1.76492e-14 0 8.96825e-12 0 8.97358e-12)
(8.98434e-12 -1.77611e-14 0 8.97421e-12 0 8.9793e-12)
(8.98956e-12 -1.78689e-14 0 8.9799e-12 0 8.98476e-12)
(8.99461e-12 -1.7972e-14 0 8.9854e-12 0 8.99003e-12)
(8.99941e-12 -1.80712e-14 0 8.99063e-12 0 8.99505e-12)
(9.00407e-12 -1.81661e-14 0 8.99571e-12 0 8.99992e-12)
(9.00849e-12 -1.82572e-14 0 9.00052e-12 0 9.00453e-12)
(9.01278e-12 -1.83445e-14 0 9.0052e-12 0 9.00902e-12)
(9.01683e-12 -1.84282e-14 0 9.00962e-12 0 9.01326e-12)
(9.02079e-12 -1.85084e-14 0 9.01393e-12 0 9.01739e-12)
(9.02451e-12 -1.85852e-14 0 9.01799e-12 0 9.02128e-12)
(9.02815e-12 -1.86588e-14 0 9.02196e-12 0 9.02508e-12)
(9.03157e-12 -1.87292e-14 0 9.02569e-12 0 9.02866e-12)
(9.03491e-12 -1.87969e-14 0 9.02933e-12 0 9.03215e-12)
(9.03806e-12 -1.88614e-14 0 9.03277e-12 0 9.03544e-12)
(9.04112e-12 -1.89234e-14 0 9.0361e-12 0 9.03863e-12)
(9.04402e-12 -1.89825e-14 0 9.03927e-12 0 9.04167e-12)
(9.04681e-12 -1.90394e-14 0 9.0423e-12 0 9.04458e-12)
(9.04949e-12 -1.90934e-14 0 9.04523e-12 0 9.04738e-12)
(9.05202e-12 -1.91454e-14 0 9.04799e-12 0 9.05004e-12)
(9.05449e-12 -1.91949e-14 0 9.05069e-12 0 9.05262e-12)
(9.05681e-12 -1.92424e-14 0 9.05321e-12 0 9.05504e-12)
(9.05907e-12 -1.92877e-14 0 9.05568e-12 0 9.05741e-12)
(9.06119e-12 -1.93311e-14 0 9.05799e-12 0 9.05962e-12)
(9.06326e-12 -1.93725e-14 0 9.06025e-12 0 9.06178e-12)
(9.0652e-12 -1.9412e-14 0 9.06237e-12 0 9.06381e-12)
(9.06707e-12 -1.94497e-14 0 9.0644e-12 0 9.06576e-12)
(9.06883e-12 -1.94855e-14 0 9.06632e-12 0 9.0676e-12)
(9.07046e-12 -1.95189e-14 0 9.06811e-12 0 9.06931e-12)
(9.07213e-12 -1.95518e-14 0 9.06993e-12 0 9.07106e-12)
(9.07427e-12 -1.95893e-14 0 9.07226e-12 0 9.07329e-12)
(3.85733e-11 1.39684e-12 0 3.17608e-11 0 3.5131e-11)
(4.3145e-11 1.52472e-12 0 3.56909e-11 0 3.93826e-11)
(4.94408e-11 1.67322e-12 0 4.12158e-11 0 4.52938e-11)
(5.52327e-11 1.7924e-12 0 4.63779e-11 0 5.07707e-11)
(6.06743e-11 1.89078e-12 0 5.12893e-11 0 5.59471e-11)
(6.60402e-11 1.97616e-12 0 5.6185e-11 0 6.10779e-11)
(7.13464e-11 2.04973e-12 0 6.10751e-11 0 6.61764e-11)
(7.65808e-11 2.11202e-12 0 6.59449e-11 0 7.12289e-11)
(8.1731e-11 2.16355e-12 0 7.07797e-11 0 7.62221e-11)
(8.67881e-11 2.20493e-12 0 7.55676e-11 0 8.11453e-11)
(9.1745e-11 2.23682e-12 0 8.02989e-11 0 8.59903e-11)
(9.65972e-11 2.25986e-12 0 8.49657e-11 0 9.07507e-11)
(1.01341e-10 2.27471e-12 0 8.95617e-11 0 9.54217e-11)
(1.05975e-10 2.28202e-12 0 9.40819e-11 0 9.99998e-11)
(1.10498e-10 2.28241e-12 0 9.85229e-11 0 1.04483e-10)
(1.1491e-10 2.27646e-12 0 1.02882e-10 0 1.0887e-10)
(1.19212e-10 2.26474e-12 0 1.07158e-10 0 1.1316e-10)
(1.23406e-10 2.24778e-12 0 1.11349e-10 0 1.17353e-10)
(1.27493e-10 2.22606e-12 0 1.15455e-10 0 1.21451e-10)
(1.31475e-10 2.20005e-12 0 1.19476e-10 0 1.25453e-10)
(1.35354e-10 2.17017e-12 0 1.23413e-10 0 1.29363e-10)
(1.39134e-10 2.1368e-12 0 1.27267e-10 0 1.3318e-10)
(1.42816e-10 2.10032e-12 0 1.31037e-10 0 1.36908e-10)
(1.46404e-10 2.06106e-12 0 1.34727e-10 0 1.40547e-10)
(1.49899e-10 2.01932e-12 0 1.38336e-10 0 1.441e-10)
(1.53304e-10 1.97539e-12 0 1.41866e-10 0 1.47569e-10)
(1.56622e-10 1.92952e-12 0 1.45318e-10 0 1.50955e-10)
(1.59855e-10 1.88197e-12 0 1.48695e-10 0 1.54261e-10)
(1.63006e-10 1.83295e-12 0 1.51996e-10 0 1.57487e-10)
(1.66076e-10 1.78266e-12 0 1.55224e-10 0 1.60637e-10)
(1.69068e-10 1.73129e-12 0 1.5838e-10 0 1.63712e-10)
(1.71984e-10 1.67902e-12 0 1.61465e-10 0 1.66713e-10)
(1.74825e-10 1.626e-12 0 1.64481e-10 0 1.69642e-10)
(1.77594e-10 1.57238e-12 0 1.67429e-10 0 1.72502e-10)
(1.80293e-10 1.51831e-12 0 1.70309e-10 0 1.75292e-10)
(1.82923e-10 1.4639e-12 0 1.73124e-10 0 1.78015e-10)
(1.85486e-10 1.40927e-12 0 1.75874e-10 0 1.80672e-10)
(1.87984e-10 1.35452e-12 0 1.78561e-10 0 1.83265e-10)
(1.90417e-10 1.29977e-12 0 1.81185e-10 0 1.85794e-10)
(1.92788e-10 1.24509e-12 0 1.83748e-10 0 1.88262e-10)
(1.95098e-10 1.19058e-12 0 1.86251e-10 0 1.90668e-10)
(1.97348e-10 1.13631e-12 0 1.88694e-10 0 1.93015e-10)
(1.9954e-10 1.08236e-12 0 1.91079e-10 0 1.95304e-10)
(2.01675e-10 1.02878e-12 0 1.93406e-10 0 1.97536e-10)
(2.03753e-10 9.75647e-13 0 1.95677e-10 0 1.9971e-10)
(2.05776e-10 9.23017e-13 0 1.97892e-10 0 2.0183e-10)
(2.07746e-10 8.70926e-13 0 2.00053e-10 0 2.03896e-10)
(2.09664e-10 8.19435e-13 0 2.0216e-10 0 2.05908e-10)
(2.11526e-10 7.68607e-13 0 2.0421e-10 0 2.07865e-10)
(2.13349e-10 7.18376e-13 0 2.0622e-10 0 2.09781e-10)
(2.15113e-10 6.68868e-13 0 2.0817e-10 0 2.11639e-10)
(2.1683e-10 6.20164e-13 0 2.10069e-10 0 2.13447e-10)
(2.185e-10 5.72219e-13 0 2.11919e-10 0 2.15208e-10)
(2.20124e-10 5.25058e-13 0 2.13722e-10 0 2.16921e-10)
(2.21703e-10 4.78708e-13 0 2.15477e-10 0 2.18588e-10)
(2.23237e-10 4.33193e-13 0 2.17184e-10 0 2.20209e-10)
(2.24728e-10 3.88528e-13 0 2.18846e-10 0 2.21786e-10)
(2.26176e-10 3.44728e-13 0 2.20463e-10 0 2.23319e-10)
(2.27583e-10 3.01804e-13 0 2.22035e-10 0 2.24808e-10)
(2.28949e-10 2.59764e-13 0 2.23564e-10 0 2.26256e-10)
(2.30276e-10 2.18617e-13 0 2.2505e-10 0 2.27662e-10)
(2.31563e-10 1.78368e-13 0 2.26494e-10 0 2.29028e-10)
(2.32813e-10 1.3902e-13 0 2.27897e-10 0 2.30355e-10)
(2.34025e-10 1.00573e-13 0 2.2926e-10 0 2.31642e-10)
(2.35201e-10 6.30264e-14 0 2.30584e-10 0 2.32892e-10)
(2.36341e-10 2.63786e-14 0 2.31869e-10 0 2.34105e-10)
(2.37447e-10 -9.37088e-15 0 2.33116e-10 0 2.35282e-10)
(2.38519e-10 -4.42252e-14 0 2.34326e-10 0 2.36423e-10)
(2.39558e-10 -7.81933e-14 0 2.355e-10 0 2.37529e-10)
(2.40565e-10 -1.11283e-13 0 2.36639e-10 0 2.38602e-10)
(2.4154e-10 -1.435e-13 0 2.37743e-10 0 2.39642e-10)
(2.42485e-10 -1.74855e-13 0 2.38813e-10 0 2.4065e-10)
(2.434e-10 -2.05356e-13 0 2.39851e-10 0 2.41626e-10)
(2.44285e-10 -2.35014e-13 0 2.40856e-10 0 2.42571e-10)
(2.45143e-10 -2.63841e-13 0 2.4183e-10 0 2.43487e-10)
(2.45973e-10 -2.91848e-13 0 2.42773e-10 0 2.44374e-10)
(2.46776e-10 -3.19047e-13 0 2.43686e-10 0 2.45232e-10)
(2.47552e-10 -3.45455e-13 0 2.4457e-10 0 2.46062e-10)
(2.48304e-10 -3.71077e-13 0 2.45426e-10 0 2.46866e-10)
(2.4903e-10 -3.95933e-13 0 2.46254e-10 0 2.47643e-10)
(2.49733e-10 -4.20035e-13 0 2.47055e-10 0 2.48395e-10)
(2.50412e-10 -4.43401e-13 0 2.4783e-10 0 2.49122e-10)
(2.51068e-10 -4.66042e-13 0 2.48579e-10 0 2.49825e-10)
(2.51702e-10 -4.87975e-13 0 2.49304e-10 0 2.50504e-10)
(2.52314e-10 -5.09213e-13 0 2.50004e-10 0 2.5116e-10)
(2.52906e-10 -5.29774e-13 0 2.50681e-10 0 2.51795e-10)
(2.53478e-10 -5.49671e-13 0 2.51335e-10 0 2.52407e-10)
(2.5403e-10 -5.6892e-13 0 2.51967e-10 0 2.52999e-10)
(2.54562e-10 -5.87537e-13 0 2.52577e-10 0 2.5357e-10)
(2.55076e-10 -6.05536e-13 0 2.53166e-10 0 2.54122e-10)
(2.55572e-10 -6.22935e-13 0 2.53734e-10 0 2.54654e-10)
(2.56051e-10 -6.39746e-13 0 2.54284e-10 0 2.55169e-10)
(2.56512e-10 -6.55987e-13 0 2.54813e-10 0 2.55664e-10)
(2.56958e-10 -6.7167e-13 0 2.55325e-10 0 2.56143e-10)
(2.57387e-10 -6.86814e-13 0 2.55818e-10 0 2.56604e-10)
(2.57801e-10 -7.01429e-13 0 2.56293e-10 0 2.57049e-10)
(2.582e-10 -7.15532e-13 0 2.56752e-10 0 2.57477e-10)
(2.58585e-10 -7.2914e-13 0 2.57194e-10 0 2.57891e-10)
(2.58956e-10 -7.4226e-13 0 2.57621e-10 0 2.5829e-10)
(2.59312e-10 -7.54917e-13 0 2.58031e-10 0 2.58673e-10)
(2.59657e-10 -7.67112e-13 0 2.58428e-10 0 2.59044e-10)
(2.59988e-10 -7.78869e-13 0 2.58809e-10 0 2.594e-10)
(2.60307e-10 -7.90196e-13 0 2.59176e-10 0 2.59743e-10)
(2.60615e-10 -8.01104e-13 0 2.5953e-10 0 2.60074e-10)
(2.6091e-10 -8.11618e-13 0 2.59871e-10 0 2.60392e-10)
(2.61195e-10 -8.21728e-13 0 2.60199e-10 0 2.60699e-10)
(2.61468e-10 -8.31477e-13 0 2.60514e-10 0 2.60993e-10)
(2.61733e-10 -8.40839e-13 0 2.60819e-10 0 2.61277e-10)
(2.61986e-10 -8.4987e-13 0 2.61111e-10 0 2.6155e-10)
(2.6223e-10 -8.58536e-13 0 2.61393e-10 0 2.61813e-10)
(2.62464e-10 -8.66889e-13 0 2.61663e-10 0 2.62065e-10)
(2.6269e-10 -8.74909e-13 0 2.61924e-10 0 2.62308e-10)
(2.62907e-10 -8.82624e-13 0 2.62174e-10 0 2.62542e-10)
(2.63115e-10 -8.90041e-13 0 2.62415e-10 0 2.62766e-10)
(2.63316e-10 -8.97161e-13 0 2.62646e-10 0 2.62982e-10)
(2.63508e-10 -9.04015e-13 0 2.62868e-10 0 2.6319e-10)
(2.63693e-10 -9.10581e-13 0 2.63082e-10 0 2.63389e-10)
(2.63871e-10 -9.16907e-13 0 2.63287e-10 0 2.6358e-10)
(2.64042e-10 -9.22962e-13 0 2.63484e-10 0 2.63764e-10)
(2.64205e-10 -9.28795e-13 0 2.63673e-10 0 2.63941e-10)
(2.64363e-10 -9.34373e-13 0 2.63856e-10 0 2.64111e-10)
(2.64514e-10 -9.39745e-13 0 2.6403e-10 0 2.64273e-10)
(2.64659e-10 -9.44882e-13 0 2.64198e-10 0 2.6443e-10)
(2.64798e-10 -9.49825e-13 0 2.64358e-10 0 2.64579e-10)
(2.64932e-10 -9.54554e-13 0 2.64514e-10 0 2.64724e-10)
(2.65059e-10 -9.59097e-13 0 2.64661e-10 0 2.64862e-10)
(2.65183e-10 -9.63447e-13 0 2.64804e-10 0 2.64995e-10)
(2.653e-10 -9.67618e-13 0 2.64939e-10 0 2.65121e-10)
(2.65414e-10 -9.71617e-13 0 2.65071e-10 0 2.65244e-10)
(2.65521e-10 -9.75443e-13 0 2.65196e-10 0 2.6536e-10)
(2.65626e-10 -9.79115e-13 0 2.65317e-10 0 2.65473e-10)
(2.65725e-10 -9.82623e-13 0 2.65431e-10 0 2.65579e-10)
(2.65821e-10 -9.85996e-13 0 2.65543e-10 0 2.65683e-10)
(2.65912e-10 -9.89213e-13 0 2.65648e-10 0 2.65781e-10)
(2.66e-10 -9.92307e-13 0 2.6575e-10 0 2.65876e-10)
(2.66084e-10 -9.95252e-13 0 2.65847e-10 0 2.65967e-10)
(2.66164e-10 -9.98087e-13 0 2.6594e-10 0 2.66053e-10)
(2.66241e-10 -1.00078e-12 0 2.66029e-10 0 2.66137e-10)
(2.66315e-10 -1.00338e-12 0 2.66114e-10 0 2.66216e-10)
(2.66386e-10 -1.00585e-12 0 2.66196e-10 0 2.66292e-10)
(2.66452e-10 -1.00821e-12 0 2.66274e-10 0 2.66364e-10)
(2.66518e-10 -1.01047e-12 0 2.66349e-10 0 2.66435e-10)
(2.66579e-10 -1.01263e-12 0 2.6642e-10 0 2.66501e-10)
(2.66638e-10 -1.0147e-12 0 2.66489e-10 0 2.66565e-10)
(2.66694e-10 -1.01667e-12 0 2.66554e-10 0 2.66625e-10)
(2.66748e-10 -1.01855e-12 0 2.66616e-10 0 2.66684e-10)
(2.66799e-10 -1.02034e-12 0 2.66675e-10 0 2.66738e-10)
(2.66846e-10 -1.022e-12 0 2.66729e-10 0 2.66789e-10)
(2.66894e-10 -1.02364e-12 0 2.66785e-10 0 2.66841e-10)
(2.66956e-10 -1.02552e-12 0 2.66857e-10 0 2.66908e-10)
(2.78509e-10 1.31121e-11 0 2.09242e-10 0 2.43456e-10)
(3.12422e-10 1.42782e-11 0 2.3637e-10 0 2.7402e-10)
(3.56952e-10 1.55355e-11 0 2.73151e-10 0 3.14696e-10)
(3.97335e-10 1.65036e-11 0 3.07291e-10 0 3.5196e-10)
(4.35295e-10 1.72832e-11 0 3.39989e-10 0 3.87289e-10)
(4.72586e-10 1.79389e-11 0 3.72631e-10 0 4.22256e-10)
(5.09307e-10 1.84832e-11 0 4.05257e-10 0 4.56933e-10)
(5.45382e-10 1.89225e-11 0 4.37764e-10 0 4.9123e-10)
(5.80738e-10 1.92635e-11 0 4.70054e-10 0 5.2506e-10)
(6.15324e-10 1.95132e-11 0 5.02043e-10 0 5.58356e-10)
(6.49104e-10 1.96786e-11 0 5.33664e-10 0 5.91066e-10)
(6.82056e-10 1.97666e-11 0 5.64864e-10 0 6.23152e-10)
(7.14167e-10 1.97839e-11 0 5.95599e-10 0 6.54585e-10)
(7.45434e-10 1.97371e-11 0 6.25834e-10 0 6.85347e-10)
(7.75861e-10 1.96321e-11 0 6.55545e-10 0 7.15427e-10)
(8.05457e-10 1.94747e-11 0 6.84713e-10 0 7.44821e-10)
(8.34236e-10 1.92701e-11 0 7.13326e-10 0 7.73528e-10)
(8.62215e-10 1.90232e-11 0 7.41376e-10 0 8.01553e-10)
(8.89411e-10 1.87385e-11 0 7.68862e-10 0 8.28905e-10)
(9.15847e-10 1.84201e-11 0 7.95782e-10 0 8.55594e-10)
(9.41542e-10 1.80719e-11 0 8.22139e-10 0 8.81631e-10)
(9.66519e-10 1.76973e-11 0 8.47938e-10 0 9.07029e-10)
(9.90799e-10 1.72995e-11 0 8.73185e-10 0 9.31803e-10)
(1.0144e-09 1.68813e-11 0 8.97887e-10 0 9.55966e-10)
(1.03736e-09 1.64453e-11 0 9.22052e-10 0 9.79534e-10)
(1.05968e-09 1.59941e-11 0 9.45688e-10 0 1.00252e-09)
(1.08138e-09 1.55297e-11 0 9.68805e-10 0 1.02494e-09)
(1.10249e-09 1.50541e-11 0 9.91412e-10 0 1.04681e-09)
(1.12303e-09 1.45692e-11 0 1.01352e-09 0 1.06814e-09)
(1.14301e-09 1.40767e-11 0 1.03513e-09 0 1.08894e-09)
(1.16245e-09 1.3578e-11 0 1.05626e-09 0 1.10923e-09)
(1.18136e-09 1.30745e-11 0 1.07692e-09 0 1.12903e-09)
(1.19977e-09 1.25676e-11 0 1.09711e-09 0 1.14833e-09)
(1.21768e-09 1.20583e-11 0 1.11684e-09 0 1.16716e-09)
(1.2351e-09 1.15478e-11 0 1.13613e-09 0 1.18552e-09)
(1.25207e-09 1.1037e-11 0 1.15497e-09 0 1.20343e-09)
(1.26857e-09 1.05269e-11 0 1.17338e-09 0 1.22089e-09)
(1.28464e-09 1.00181e-11 0 1.19136e-09 0 1.23792e-09)
(1.30027e-09 9.51156e-12 0 1.20893e-09 0 1.25453e-09)
(1.31548e-09 9.00786e-12 0 1.22608e-09 0 1.27072e-09)
(1.33029e-09 8.50765e-12 0 1.24283e-09 0 1.2865e-09)
(1.34469e-09 8.01151e-12 0 1.25919e-09 0 1.30188e-09)
(1.3587e-09 7.51997e-12 0 1.27515e-09 0 1.31687e-09)
(1.37234e-09 7.03347e-12 0 1.29072e-09 0 1.33148e-09)
(1.3856e-09 6.5525e-12 0 1.30592e-09 0 1.34571e-09)
(1.39849e-09 6.07751e-12 0 1.32074e-09 0 1.35957e-09)
(1.41103e-09 5.60866e-12 0 1.33519e-09 0 1.37308e-09)
(1.42323e-09 5.14642e-12 0 1.34929e-09 0 1.38623e-09)
(1.43507e-09 4.69138e-12 0 1.36301e-09 0 1.39901e-09)
(1.44664e-09 4.24253e-12 0 1.37645e-09 0 1.41152e-09)
(1.45784e-09 3.8012e-12 0 1.3895e-09 0 1.42364e-09)
(1.46872e-09 3.36804e-12 0 1.4022e-09 0 1.43544e-09)
(1.4793e-09 2.94247e-12 0 1.41458e-09 0 1.44692e-09)
(1.48958e-09 2.52466e-12 0 1.42663e-09 0 1.45808e-09)
(1.49956e-09 2.11478e-12 0 1.43837e-09 0 1.46895e-09)
(1.50926e-09 1.71297e-12 0 1.44979e-09 0 1.47951e-09)
(1.51867e-09 1.31933e-12 0 1.4609e-09 0 1.48977e-09)
(1.52781e-09 9.3391e-13 0 1.47172e-09 0 1.49975e-09)
(1.53668e-09 5.56754e-13 0 1.48223e-09 0 1.50945e-09)
(1.54529e-09 1.87906e-13 0 1.49245e-09 0 1.51886e-09)
(1.55365e-09 -1.72624e-13 0 1.50239e-09 0 1.52801e-09)
(1.56175e-09 -5.24833e-13 0 1.51204e-09 0 1.53689e-09)
(1.56961e-09 -8.68735e-13 0 1.52142e-09 0 1.54551e-09)
(1.57723e-09 -1.20437e-12 0 1.53053e-09 0 1.55388e-09)
(1.58462e-09 -1.53178e-12 0 1.53938e-09 0 1.562e-09)
(1.59178e-09 -1.85102e-12 0 1.54797e-09 0 1.56987e-09)
(1.59872e-09 -2.16212e-12 0 1.55631e-09 0 1.57751e-09)
(1.60544e-09 -2.46514e-12 0 1.56439e-09 0 1.58492e-09)
(1.61196e-09 -2.76019e-12 0 1.57224e-09 0 1.5921e-09)
(1.61827e-09 -3.04736e-12 0 1.57985e-09 0 1.59906e-09)
(1.62438e-09 -3.32674e-12 0 1.58723e-09 0 1.60581e-09)
(1.63029e-09 -3.59842e-12 0 1.59438e-09 0 1.61234e-09)
(1.63602e-09 -3.86252e-12 0 1.60132e-09 0 1.61867e-09)
(1.64156e-09 -4.11914e-12 0 1.60803e-09 0 1.6248e-09)
(1.64692e-09 -4.3684e-12 0 1.61454e-09 0 1.63074e-09)
(1.65211e-09 -4.61042e-12 0 1.62084e-09 0 1.63648e-09)
(1.65712e-09 -4.84531e-12 0 1.62695e-09 0 1.64204e-09)
(1.66198e-09 -5.07324e-12 0 1.63285e-09 0 1.64742e-09)
(1.66667e-09 -5.2943e-12 0 1.63857e-09 0 1.65263e-09)
(1.6712e-09 -5.50865e-12 0 1.6441e-09 0 1.65766e-09)
(1.67559e-09 -5.71639e-12 0 1.64946e-09 0 1.66253e-09)
(1.67982e-09 -5.9177e-12 0 1.65463e-09 0 1.66724e-09)
(1.68391e-09 -6.11268e-12 0 1.65964e-09 0 1.67178e-09)
(1.68787e-09 -6.30149e-12 0 1.66448e-09 0 1.67618e-09)
(1.69168e-09 -6.48426e-12 0 1.66916e-09 0 1.68043e-09)
(1.69537e-09 -6.66114e-12 0 1.67368e-09 0 1.68453e-09)
(1.69893e-09 -6.83226e-12 0 1.67804e-09 0 1.6885e-09)
(1.70237e-09 -6.99776e-12 0 1.68226e-09 0 1.69233e-09)
(1.70568e-09 -7.15779e-12 0 1.68634e-09 0 1.69602e-09)
(1.70888e-09 -7.31247e-12 0 1.69027e-09 0 1.69959e-09)
(1.71197e-09 -7.46196e-12 0 1.69407e-09 0 1.70303e-09)
(1.71495e-09 -7.60636e-12 0 1.69774e-09 0 1.70635e-09)
(1.71782e-09 -7.74586e-12 0 1.70128e-09 0 1.70956e-09)
(1.72059e-09 -7.88052e-12 0 1.70469e-09 0 1.71265e-09)
(1.72326e-09 -8.01055e-12 0 1.70798e-09 0 1.71563e-09)
(1.72583e-09 -8.13601e-12 0 1.71116e-09 0 1.71851e-09)
(1.72831e-09 -8.25708e-12 0 1.71423e-09 0 1.72128e-09)
(1.7307e-09 -8.37388e-12 0 1.71718e-09 0 1.72395e-09)
(1.73301e-09 -8.48649e-12 0 1.72003e-09 0 1.72653e-09)
(1.73522e-09 -8.5951e-12 0 1.72277e-09 0 1.72901e-09)
(1.73736e-09 -8.69975e-12 0 1.72541e-09 0 1.7314e-09)
(1.73942e-09 -8.80065e-12 0 1.72796e-09 0 1.7337e-09)
(1.7414e-09 -8.89784e-12 0 1.73041e-09 0 1.73592e-09)
(1.74331e-09 -8.99145e-12 0 1.73278e-09 0 1.73806e-09)
(1.74514e-09 -9.08167e-12 0 1.73505e-09 0 1.74011e-09)
(1.74691e-09 -9.16842e-12 0 1.73724e-09 0 1.74209e-09)
(1.74861e-09 -9.25209e-12 0 1.73935e-09 0 1.74399e-09)
(1.75025e-09 -9.33243e-12 0 1.74138e-09 0 1.74583e-09)
(1.75182e-09 -9.40994e-12 0 1.74333e-09 0 1.74759e-09)
(1.75334e-09 -9.48431e-12 0 1.74521e-09 0 1.74929e-09)
(1.75479e-09 -9.556e-12 0 1.74702e-09 0 1.75091e-09)
(1.75619e-09 -9.62485e-12 0 1.74876e-09 0 1.75249e-09)
(1.75753e-09 -9.69107e-12 0 1.75043e-09 0 1.75399e-09)
(1.75883e-09 -9.75477e-12 0 1.75204e-09 0 1.75544e-09)
(1.76007e-09 -9.81588e-12 0 1.75358e-09 0 1.75684e-09)
(1.76126e-09 -9.87475e-12 0 1.75506e-09 0 1.75818e-09)
(1.76241e-09 -9.93113e-12 0 1.75649e-09 0 1.75946e-09)
(1.76351e-09 -9.98549e-12 0 1.75786e-09 0 1.7607e-09)
(1.76457e-09 -1.00375e-11 0 1.75918e-09 0 1.76189e-09)
(1.76558e-09 -1.00876e-11 0 1.76044e-09 0 1.76302e-09)
(1.76656e-09 -1.01355e-11 0 1.76166e-09 0 1.76412e-09)
(1.76749e-09 -1.01817e-11 0 1.76282e-09 0 1.76517e-09)
(1.7684e-09 -1.02259e-11 0 1.76394e-09 0 1.76618e-09)
(1.76925e-09 -1.02684e-11 0 1.76501e-09 0 1.76715e-09)
(1.77009e-09 -1.0309e-11 0 1.76605e-09 0 1.76808e-09)
(1.77087e-09 -1.03481e-11 0 1.76703e-09 0 1.76897e-09)
(1.77164e-09 -1.03855e-11 0 1.76799e-09 0 1.76983e-09)
(1.77237e-09 -1.04214e-11 0 1.76889e-09 0 1.77064e-09)
(1.77307e-09 -1.04558e-11 0 1.76977e-09 0 1.77144e-09)
(1.77374e-09 -1.04887e-11 0 1.7706e-09 0 1.77218e-09)
(1.77439e-09 -1.05204e-11 0 1.77141e-09 0 1.77291e-09)
(1.775e-09 -1.05505e-11 0 1.77217e-09 0 1.7736e-09)
(1.77559e-09 -1.05796e-11 0 1.77292e-09 0 1.77427e-09)
(1.77616e-09 -1.06073e-11 0 1.77362e-09 0 1.7749e-09)
(1.7767e-09 -1.0634e-11 0 1.7743e-09 0 1.77551e-09)
(1.77722e-09 -1.06593e-11 0 1.77495e-09 0 1.7761e-09)
(1.77772e-09 -1.06838e-11 0 1.77557e-09 0 1.77666e-09)
(1.7782e-09 -1.0707e-11 0 1.77616e-09 0 1.77719e-09)
(1.77865e-09 -1.07294e-11 0 1.77673e-09 0 1.7777e-09)
(1.77909e-09 -1.07507e-11 0 1.77728e-09 0 1.7782e-09)
(1.7795e-09 -1.07711e-11 0 1.7778e-09 0 1.77866e-09)
(1.77991e-09 -1.07906e-11 0 1.7783e-09 0 1.77912e-09)
(1.78028e-09 -1.08093e-11 0 1.77877e-09 0 1.77954e-09)
(1.78065e-09 -1.08271e-11 0 1.77923e-09 0 1.77996e-09)
(1.781e-09 -1.08441e-11 0 1.77967e-09 0 1.78035e-09)
(1.78133e-09 -1.08604e-11 0 1.78008e-09 0 1.78072e-09)
(1.78165e-09 -1.08758e-11 0 1.78048e-09 0 1.78108e-09)
(1.78194e-09 -1.08901e-11 0 1.78084e-09 0 1.7814e-09)
(1.78224e-09 -1.09042e-11 0 1.78121e-09 0 1.78174e-09)
(1.78262e-09 -1.09208e-11 0 1.78169e-09 0 1.78217e-09)
(1.01144e-09 5.23441e-11 0 7.02209e-10 0 8.54193e-10)
(1.13788e-09 5.69184e-11 0 7.97016e-10 0 9.65407e-10)
(1.29393e-09 6.13431e-11 0 9.19527e-10 0 1.10488e-09)
(1.43266e-09 6.45591e-11 0 1.0319e-09 0 1.23045e-09)
(1.56315e-09 6.70607e-11 0 1.14023e-09 0 1.34986e-09)
(1.6906e-09 6.90653e-11 0 1.24828e-09 0 1.46762e-09)
(1.81531e-09 7.06252e-11 0 1.35609e-09 0 1.58391e-09)
(1.93708e-09 7.1774e-11 0 1.46334e-09 0 1.69845e-09)
(2.05572e-09 7.25442e-11 0 1.56968e-09 0 1.81098e-09)
(2.17112e-09 7.29685e-11 0 1.67485e-09 0 1.92132e-09)
(2.28322e-09 7.30787e-11 0 1.77866e-09 0 2.02932e-09)
(2.39202e-09 7.29055e-11 0 1.88092e-09 0 2.1349e-09)
(2.49752e-09 7.24778e-11 0 1.9815e-09 0 2.238e-09)
(2.59976e-09 7.18224e-11 0 2.08031e-09 0 2.33858e-09)
(2.6988e-09 7.09643e-11 0 2.17726e-09 0 2.43664e-09)
(2.79473e-09 6.99263e-11 0 2.27231e-09 0 2.53219e-09)
(2.88762e-09 6.87295e-11 0 2.36542e-09 0 2.62525e-09)
(2.97757e-09 6.73927e-11 0 2.45659e-09 0 2.71587e-09)
(3.06467e-09 6.59335e-11 0 2.54581e-09 0 2.80409e-09)
(3.14903e-09 6.43673e-11 0 2.63309e-09 0 2.88996e-09)
(3.23073e-09 6.27084e-11 0 2.71845e-09 0 2.97354e-09)
(3.30988e-09 6.09696e-11 0 2.8019e-09 0 3.0549e-09)
(3.38657e-09 5.91623e-11 0 2.88347e-09 0 3.13408e-09)
(3.4609e-09 5.72969e-11 0 2.96319e-09 0 3.21116e-09)
(3.53295e-09 5.53827e-11 0 3.04111e-09 0 3.28618e-09)
(3.60281e-09 5.34282e-11 0 3.11723e-09 0 3.35922e-09)
(3.67055e-09 5.1441e-11 0 3.19162e-09 0 3.43033e-09)
(3.73626e-09 4.94279e-11 0 3.26428e-09 0 3.49956e-09)
(3.80001e-09 4.7395e-11 0 3.33527e-09 0 3.56698e-09)
(3.86188e-09 4.5348e-11 0 3.40462e-09 0 3.63262e-09)
(3.92191e-09 4.32919e-11 0 3.47235e-09 0 3.69654e-09)
(3.98019e-09 4.12313e-11 0 3.5385e-09 0 3.75879e-09)
(4.03677e-09 3.91702e-11 0 3.60311e-09 0 3.81942e-09)
(4.0917e-09 3.71125e-11 0 3.6662e-09 0 3.87846e-09)
(4.14504e-09 3.50615e-11 0 3.72781e-09 0 3.93596e-09)
(4.19684e-09 3.30202e-11 0 3.78795e-09 0 3.99197e-09)
(4.24714e-09 3.09915e-11 0 3.84667e-09 0 4.04651e-09)
(4.29601e-09 2.89778e-11 0 3.90399e-09 0 4.09963e-09)
(4.34346e-09 2.69814e-11 0 3.95993e-09 0 4.15135e-09)
(4.38956e-09 2.50044e-11 0 4.01453e-09 0 4.20172e-09)
(4.43433e-09 2.30485e-11 0 4.0678e-09 0 4.25077e-09)
(4.47782e-09 2.11155e-11 0 4.11976e-09 0 4.29852e-09)
(4.52006e-09 1.92069e-11 0 4.17045e-09 0 4.345e-09)
(4.56109e-09 1.7324e-11 0 4.21989e-09 0 4.39025e-09)
(4.60093e-09 1.54681e-11 0 4.26809e-09 0 4.43429e-09)
(4.63961e-09 1.36406e-11 0 4.31507e-09 0 4.47714e-09)
(4.67719e-09 1.18415e-11 0 4.36088e-09 0 4.51885e-09)
(4.71368e-09 1.00722e-11 0 4.40552e-09 0 4.55943e-09)
(4.74903e-09 8.33529e-12 0 4.44892e-09 0 4.59882e-09)
(4.78355e-09 6.62515e-12 0 4.49145e-09 0 4.63736e-09)
(4.8169e-09 4.94751e-12 0 4.53268e-09 0 4.67466e-09)
(4.84928e-09 3.3047e-12 0 4.57282e-09 0 4.71093e-09)
(4.8807e-09 1.69389e-12 0 4.6119e-09 0 4.7462e-09)
(4.9112e-09 1.15376e-13 0 4.64995e-09 0 4.78049e-09)
(4.9408e-09 -1.43043e-12 0 4.68698e-09 0 4.81381e-09)
(4.96951e-09 -2.94321e-12 0 4.723e-09 0 4.84618e-09)
(4.99735e-09 -4.42281e-12 0 4.75802e-09 0 4.87763e-09)
(5.02436e-09 -5.86927e-12 0 4.79209e-09 0 4.90817e-09)
(5.05054e-09 -7.28265e-12 0 4.8252e-09 0 4.93782e-09)
(5.07593e-09 -8.66295e-12 0 4.85738e-09 0 4.96661e-09)
(5.10053e-09 -1.00103e-11 0 4.88864e-09 0 4.99456e-09)
(5.12438e-09 -1.13249e-11 0 4.91901e-09 0 5.02167e-09)
(5.14749e-09 -1.26069e-11 0 4.9485e-09 0 5.04798e-09)
(5.16987e-09 -1.38567e-11 0 4.97714e-09 0 5.0735e-09)
(5.19156e-09 -1.50746e-11 0 5.00494e-09 0 5.09825e-09)
(5.21256e-09 -1.62608e-11 0 5.03192e-09 0 5.12224e-09)
(5.2329e-09 -1.74156e-11 0 5.0581e-09 0 5.1455e-09)
(5.25259e-09 -1.85393e-11 0 5.08348e-09 0 5.16805e-09)
(5.27165e-09 -1.96325e-11 0 5.10811e-09 0 5.18989e-09)
(5.2901e-09 -2.06957e-11 0 5.13198e-09 0 5.21106e-09)
(5.30795e-09 -2.17291e-11 0 5.15512e-09 0 5.23156e-09)
(5.32523e-09 -2.27333e-11 0 5.17755e-09 0 5.25141e-09)
(5.34193e-09 -2.37088e-11 0 5.19928e-09 0 5.27063e-09)
(5.35809e-09 -2.4656e-11 0 5.22032e-09 0 5.28924e-09)
(5.37372e-09 -2.55755e-11 0 5.24071e-09 0 5.30725e-09)
(5.38883e-09 -2.64677e-11 0 5.26045e-09 0 5.32467e-09)
(5.40344e-09 -2.73331e-11 0 5.27955e-09 0 5.34153e-09)
(5.41755e-09 -2.81724e-11 0 5.29805e-09 0 5.35784e-09)
(5.4312e-09 -2.8986e-11 0 5.31594e-09 0 5.37361e-09)
(5.44438e-09 -2.97745e-11 0 5.33325e-09 0 5.38886e-09)
(5.45711e-09 -3.05384e-11 0 5.34999e-09 0 5.4036e-09)
(5.46941e-09 -3.12783e-11 0 5.36618e-09 0 5.41784e-09)
(5.48129e-09 -3.19946e-11 0 5.38184e-09 0 5.43161e-09)
(5.49276e-09 -3.26881e-11 0 5.39697e-09 0 5.44491e-09)
(5.50383e-09 -3.33591e-11 0 5.41159e-09 0 5.45776e-09)
(5.51452e-09 -3.40082e-11 0 5.42572e-09 0 5.47017e-09)
(5.52483e-09 -3.46361e-11 0 5.43936e-09 0 5.48215e-09)
(5.53478e-09 -3.52432e-11 0 5.45255e-09 0 5.49372e-09)