/*--------------------------------*- C++ -*----------------------------------*\
| =========                 |                                                 |
| \\      /  F ield         | OpenFOAM: The Open Source CFD Toolbox           |
|  \\    /   O peration     | Version:  v1912                                 |
|   \\  /    A nd           | Website:  www.openfoam.com                      |
|    \\/     M anipulation  |                                                 |
\*---------------------------------------------------------------------------*/
FoamFile
{
    version     2.0;
    format      ascii;
    class       volScalarField;
    location    "30";
    object      k;
}
// * * * * * * * * * * * * * * * * * * * * * * * * * * * * * * * * * * * * * //

dimensions      [0 2 -2 0 0 0 0];


internalField   nonuniform List<scalar> 
14268
(
4.33922e-09
4.27932e-09
4.20232e-09
4.12571e-09
4.03347e-09
3.94542e-09
3.83237e-09
3.78773e-09
8.74271e-08
8.66996e-08
8.53852e-08
8.38503e-08
8.18301e-08
7.9863e-08
7.73121e-08
7.63475e-08
1.36285e-07
1.36012e-07
1.35519e-07
1.34965e-07
1.3416e-07
1.33395e-07
1.32288e-07
1.31859e-07
1.44853e-07
1.44806e-07
1.44702e-07
1.44622e-07
1.4444e-07
1.44318e-07
1.44037e-07
1.43998e-07
1.45946e-07
1.45948e-07
1.45933e-07
1.45958e-07
1.45933e-07
1.46e-07
1.46016e-07
1.46085e-07
1.45912e-07
1.45931e-07
1.45932e-07
1.4598e-07
1.45974e-07
1.46042e-07
1.46038e-07
1.4611e-07
1.46036e-07
1.46045e-07
1.46042e-07
1.46083e-07
1.4608e-07
1.46173e-07
1.46224e-07
1.46317e-07
1.45909e-07
1.45932e-07
1.45938e-07
1.45991e-07
1.45992e-07
1.46074e-07
1.46073e-07
1.46148e-07
1.46036e-07
1.46045e-07
1.46043e-07
1.46085e-07
1.46084e-07
1.46164e-07
1.46216e-07
1.46307e-07
1.45901e-07
1.45928e-07
1.45933e-07
1.45987e-07
1.45994e-07
1.46083e-07
1.46086e-07
1.46164e-07
1.46036e-07
1.46043e-07
1.4604e-07
1.46081e-07
1.46077e-07
1.46161e-07
1.46202e-07
1.46295e-07
1.45908e-07
1.45936e-07
1.45941e-07
1.45996e-07
1.4599e-07
1.46068e-07
1.46074e-07
1.46152e-07
1.46115e-07
1.46136e-07
1.46144e-07
1.46176e-07
1.46152e-07
1.46175e-07
1.46113e-07
1.46226e-07
1.4598e-07
1.46011e-07
1.46085e-07
1.46149e-07
1.46262e-07
1.46291e-07
1.4633e-07
1.46362e-07
1.46024e-07
1.46029e-07
1.46068e-07
1.46093e-07
1.46212e-07
1.46301e-07
1.46831e-07
1.46981e-07
1.45979e-07
1.45989e-07
1.45978e-07
1.46018e-07
1.46041e-07
1.46163e-07
1.46322e-07
1.46511e-07
1.46031e-07
1.46049e-07
1.46063e-07
1.46096e-07
1.46077e-07
1.46158e-07
1.46275e-07
1.46459e-07
1.46002e-07
1.46023e-07
1.46015e-07
1.4605e-07
1.46068e-07
1.4614e-07
1.46162e-07
1.46202e-07
1.46011e-07
1.46027e-07
1.4605e-07
1.46096e-07
1.46073e-07
1.46155e-07
1.462e-07
1.46346e-07
1.46023e-07
1.46048e-07
1.46042e-07
1.46064e-07
1.46076e-07
1.46137e-07
1.46213e-07
1.46257e-07
1.45998e-07
1.46026e-07
1.46052e-07
1.46119e-07
1.46102e-07
1.46221e-07
1.46192e-07
1.46281e-07
1.4602e-07
1.46039e-07
1.46046e-07
1.46091e-07
1.46088e-07
1.46171e-07
1.4619e-07
1.46216e-07
1.45992e-07
1.46038e-07
1.46064e-07
1.46108e-07
1.46113e-07
1.46204e-07
1.4624e-07
1.46282e-07
1.46049e-07
1.4607e-07
1.4611e-07
1.4617e-07
1.46211e-07
1.46317e-07
1.46337e-07
1.46326e-07
1.4595e-07
1.46031e-07
1.46075e-07
1.46127e-07
1.46142e-07
1.46255e-07
1.46306e-07
1.4633e-07
1.46087e-07
1.46105e-07
1.46159e-07
1.46226e-07
1.46296e-07
1.46436e-07
1.46432e-07
1.46358e-07
1.45881e-07
1.46014e-07
1.46088e-07
1.46149e-07
1.46185e-07
1.46323e-07
1.46405e-07
1.46441e-07
1.46149e-07
1.4616e-07
1.4621e-07
1.46272e-07
1.46366e-07
1.46571e-07
1.4658e-07
1.46412e-07
1.45784e-07
1.4598e-07
1.46105e-07
1.46188e-07
1.46247e-07
1.46419e-07
1.46536e-07
1.46637e-07
1.4624e-07
1.46244e-07
1.46261e-07
1.46278e-07
1.46425e-07
1.46727e-07
1.46827e-07
1.46529e-07
1.45683e-07
1.4597e-07
1.46166e-07
1.46259e-07
1.46264e-07
1.46507e-07
1.46726e-07
1.46958e-07
1.47968e-07
1.47022e-07
1.46327e-07
1.46181e-07
1.46459e-07
1.47028e-07
1.47183e-07
1.46844e-07
1.90598e-07
1.76215e-07
1.5962e-07
1.50282e-07
1.45011e-07
1.45256e-07
1.46475e-07
1.4696e-07
3.76652e-07
2.74979e-07
2.23435e-07
1.86605e-07
1.59587e-07
1.31501e-07
1.09464e-07
9.78714e-08
1.39865e-07
1.1726e-07
1.7341e-07
3.83658e-07
5.76697e-07
7.38432e-07
9.53156e-07
1.23031e-06
3.43996e-05
3.63141e-05
3.8182e-05
3.93861e-05
4.02988e-05
4.1321e-05
4.18112e-05
4.09017e-05
4.09904e-06
5.85314e-06
8.19935e-06
1.18567e-05
1.91254e-05
3.26587e-05
8.21309e-05
8.35214e-05
0.000818651
0.00108113
0.00141138
0.00215144
0.00403905
0.00797795
0.0139245
0.0215908
0.000195488
0.000293746
0.000401782
0.000610762
0.000999528
0.00190019
0.00272438
0.00349013
3.33601e-06
7.31913e-06
9.73749e-06
8.91793e-06
9.87275e-06
3.35884e-05
5.15644e-05
7.05242e-05
1.57981e-07
1.96159e-07
2.14293e-07
1.8684e-07
1.5916e-07
2.09038e-07
2.6055e-07
8.77186e-07
1.46208e-07
1.47062e-07
1.48656e-07
1.49493e-07
1.51159e-07
1.4911e-07
1.57693e-07
1.55854e-07
1.36977e-07
1.36934e-07
1.3849e-07
1.40015e-07
1.37744e-07
1.40363e-07
1.45046e-07
1.4752e-07
1.47335e-07
1.47639e-07
1.48364e-07
1.48891e-07
1.47643e-07
1.45612e-07
1.46858e-07
1.51606e-07
1.3839e-07
1.38618e-07
1.39151e-07
1.39585e-07
1.38602e-07
1.3932e-07
1.43309e-07
1.43232e-07
1.48147e-07
1.48403e-07
1.48465e-07
1.48311e-07
1.47363e-07
1.45467e-07
1.45798e-07
1.45371e-07
1.39604e-07
1.39879e-07
1.40154e-07
1.40449e-07
1.40112e-07
1.40538e-07
1.42192e-07
1.43571e-07
1.48557e-07
1.48749e-07
1.4872e-07
1.48245e-07
1.47527e-07
1.4609e-07
1.46093e-07
1.45242e-07
1.40645e-07
1.40921e-07
1.4107e-07
1.41356e-07
1.41266e-07
1.41735e-07
1.42874e-07
1.4434e-07
1.48704e-07
1.48822e-07
1.48591e-07
1.48235e-07
1.47556e-07
1.46488e-07
1.46174e-07
1.45432e-07
1.41561e-07
1.41815e-07
1.4186e-07
1.42209e-07
1.42217e-07
1.42801e-07
1.43614e-07
1.4505e-07
1.48706e-07
1.48769e-07
1.48383e-07
1.48121e-07
1.47479e-07
1.46748e-07
1.46275e-07
1.45706e-07
1.42358e-07
1.4261e-07
1.42592e-07
1.42992e-07
1.43039e-07
1.43773e-07
1.4433e-07
1.45684e-07
1.48597e-07
1.48624e-07
1.48167e-07
1.47987e-07
1.47371e-07
1.46903e-07
1.46366e-07
1.4595e-07
1.43056e-07
1.43302e-07
1.43286e-07
1.43715e-07
1.43776e-07
1.44594e-07
1.44987e-07
1.4619e-07
1.48395e-07
1.48405e-07
1.47936e-07
1.47821e-07
1.47244e-07
1.46936e-07
1.46389e-07
1.46141e-07
1.43668e-07
1.43915e-07
1.43919e-07
1.44358e-07
1.44437e-07
1.45261e-07
1.45551e-07
1.46545e-07
1.4812e-07
1.48132e-07
1.47687e-07
1.47631e-07
1.47094e-07
1.46896e-07
1.4637e-07
1.46324e-07
1.44209e-07
1.44453e-07
1.44489e-07
1.44924e-07
1.4501e-07
1.45788e-07
1.45974e-07
1.46753e-07
1.47794e-07
1.4782e-07
1.47415e-07
1.4741e-07
1.46911e-07
1.46829e-07
1.46344e-07
1.46424e-07
1.44672e-07
1.44919e-07
1.44967e-07
1.45391e-07
1.45459e-07
1.46141e-07
1.4625e-07
1.46848e-07
1.47467e-07
1.47494e-07
1.47127e-07
1.47158e-07
1.46713e-07
1.46737e-07
1.4633e-07
1.46485e-07
1.45081e-07
1.45318e-07
1.45359e-07
1.45747e-07
1.45783e-07
1.46348e-07
1.46381e-07
1.46835e-07
1.47161e-07
1.4719e-07
1.46861e-07
1.4692e-07
1.46557e-07
1.46651e-07
1.4633e-07
1.46527e-07
1.45427e-07
1.45654e-07
1.45682e-07
1.46015e-07
1.46018e-07
1.46453e-07
1.46412e-07
1.46768e-07
1.46895e-07
1.46932e-07
1.46645e-07
1.46727e-07
1.46445e-07
1.46594e-07
1.46367e-07
1.46553e-07
1.45711e-07
1.45922e-07
1.4593e-07
1.46209e-07
1.4618e-07
1.46491e-07
1.46385e-07
1.46695e-07
1.46672e-07
1.46723e-07
1.46487e-07
1.46585e-07
1.46362e-07
1.4655e-07
1.46392e-07
1.46578e-07
1.45939e-07
1.4613e-07
1.4611e-07
1.46345e-07
1.46277e-07
1.46516e-07
1.46385e-07
1.4663e-07
1.46496e-07
1.46562e-07
1.46372e-07
1.46492e-07
1.46327e-07
1.46528e-07
1.46388e-07
1.46593e-07
1.46118e-07
1.46279e-07
1.46238e-07
1.46424e-07
1.46323e-07
1.46525e-07
1.46387e-07
1.46595e-07
1.46381e-07
1.46453e-07
1.46319e-07
1.46455e-07
1.46336e-07
1.46528e-07
1.46395e-07
1.46581e-07
1.46242e-07
1.4637e-07
1.46296e-07
1.46448e-07
1.46341e-07
1.46515e-07
1.464e-07
1.46571e-07
1.46289e-07
1.46386e-07
1.46287e-07
1.4642e-07
1.46328e-07
1.46479e-07
1.46373e-07
1.46541e-07
1.46254e-07
1.46361e-07
1.46273e-07
1.46402e-07
1.46304e-07
1.46459e-07
1.46344e-07
1.46504e-07
1.46265e-07
1.46362e-07
1.46276e-07
1.46405e-07
1.46302e-07
1.46456e-07
1.46342e-07
1.46494e-07
1.46278e-07
1.46374e-07
1.4629e-07
1.46414e-07
1.46325e-07
1.4646e-07
1.46362e-07
1.46499e-07
1.46292e-07
1.4638e-07
1.46312e-07
1.46422e-07
1.46341e-07
1.4647e-07
1.46376e-07
1.46505e-07
1.46304e-07
1.46383e-07
1.46325e-07
1.46418e-07
1.46355e-07
1.46456e-07
1.46386e-07
1.46486e-07
1.46307e-07
1.46369e-07
1.46327e-07
1.46399e-07
1.46352e-07
1.4643e-07
1.46378e-07
1.46454e-07
1.46311e-07
1.46363e-07
1.46333e-07
1.4639e-07
1.46356e-07
1.46417e-07
1.4638e-07
1.46438e-07
1.46312e-07
1.46355e-07
1.46333e-07
1.46379e-07
1.46354e-07
1.46401e-07
1.46374e-07
1.46419e-07
1.46326e-07
1.46361e-07
1.46346e-07
1.46382e-07
1.46366e-07
1.46402e-07
1.46384e-07
1.46418e-07
1.46503e-07
1.46523e-07
1.4651e-07
1.46531e-07
1.46515e-07
1.46536e-07
1.46519e-07
1.46537e-07
1.48636e-07
1.48593e-07
1.48533e-07
1.48487e-07
1.48421e-07
1.48371e-07
1.483e-07
1.48245e-07
1.6984e-07
1.69463e-07
1.69117e-07
1.68718e-07
1.68342e-07
1.6792e-07
1.67508e-07
1.6706e-07
3.43614e-07
3.41998e-07
3.40696e-07
3.39093e-07
3.37765e-07
3.36163e-07
3.34769e-07
3.33141e-07
3.83895e-09
3.97465e-09
4.10526e-09
4.1927e-09
4.26756e-09
4.30569e-09
4.35126e-09
4.38519e-09
4.4227e-09
4.44655e-09
4.46979e-09
4.48339e-09
4.49724e-09
4.50913e-09
4.52482e-09
4.53434e-09
4.53189e-09
4.50652e-09
4.46371e-09
4.41165e-09
4.36161e-09
4.31794e-09
4.28737e-09
4.28094e-09
4.2802e-09
4.28012e-09
4.28027e-09
4.28016e-09
4.27994e-09
4.27931e-09
4.27835e-09
4.27717e-09
4.27607e-09
4.2748e-09
4.27349e-09
4.27217e-09
4.27111e-09
4.27006e-09
4.269e-09
4.26802e-09
4.26715e-09
4.2664e-09
4.26587e-09
4.26563e-09
4.26554e-09
4.26513e-09
4.26497e-09
4.26545e-09
4.26699e-09
4.2694e-09
4.27193e-09
4.27405e-09
4.27504e-09
4.27571e-09
4.27678e-09
4.27846e-09
4.28096e-09
4.28419e-09
4.28792e-09
4.29186e-09
4.29575e-09
4.29915e-09
4.30179e-09
4.30313e-09
4.30476e-09
4.30631e-09
4.30877e-09
4.31188e-09
4.31625e-09
4.32168e-09
4.32787e-09
4.33453e-09
4.34182e-09
4.34966e-09
4.35767e-09
4.36617e-09
4.37555e-09
4.38629e-09
4.39884e-09
4.41314e-09
4.42878e-09
4.44453e-09
4.45956e-09
4.4739e-09
4.48752e-09
4.5008e-09
4.51355e-09
4.52503e-09
4.53443e-09
4.54056e-09
4.54361e-09
4.54349e-09
4.54104e-09
4.53807e-09
4.53592e-09
4.53527e-09
4.53779e-09
4.54245e-09
4.54934e-09
4.55576e-09
4.55733e-09
4.55192e-09
4.53809e-09
4.51778e-09
4.49284e-09
4.46765e-09
4.44313e-09
4.43085e-09
4.42341e-09
4.41652e-09
4.41061e-09
4.41047e-09
4.42303e-09
4.44073e-09
4.46121e-09
4.4837e-09
4.50685e-09
4.53095e-09
4.55801e-09
4.58787e-09
4.61758e-09
4.64257e-09
4.65421e-09
4.64573e-09
4.6122e-09
4.55471e-09
4.50884e-09
4.5008e-09
4.49319e-09
4.48273e-09
4.46468e-09
4.43557e-09
4.39514e-09
4.36568e-09
4.36319e-09
4.35983e-09
4.35451e-09
4.34792e-09
4.34044e-09
4.33219e-09
4.32346e-09
4.31489e-09
4.30727e-09
4.30358e-09
4.30495e-09
4.31208e-09
4.32582e-09
4.3471e-09
4.37664e-09
4.41443e-09
4.45925e-09
4.50887e-09
4.56052e-09
4.61121e-09
4.65803e-09
4.69836e-09
7.73563e-08
8.05046e-08
8.35605e-08
8.55915e-08
8.72529e-08
8.7879e-08
8.83393e-08
8.84891e-08
8.86404e-08
8.86891e-08
8.87506e-08
8.87505e-08
8.87595e-08
8.87308e-08
8.87137e-08
8.86575e-08
8.85832e-08
8.84535e-08
8.83035e-08
8.81432e-08
8.80083e-08
8.78967e-08
8.78223e-08
8.7763e-08
8.77265e-08
8.77066e-08
8.76971e-08
8.76898e-08
8.76858e-08
8.76808e-08
8.7675e-08
8.76635e-08
8.76424e-08
8.7621e-08
8.76016e-08
8.75821e-08
8.75603e-08
8.75346e-08
8.751e-08
8.74892e-08
8.74733e-08
8.74628e-08
8.74568e-08
8.74521e-08
8.7445e-08
8.74328e-08
8.74246e-08
8.74214e-08
8.74224e-08
8.74264e-08
8.74294e-08
8.74261e-08
8.74142e-08
8.7401e-08
8.73902e-08
8.73825e-08
8.73798e-08
8.73822e-08
8.73894e-08
8.74005e-08
8.74137e-08
8.74245e-08
8.74289e-08
8.74262e-08
8.74224e-08
8.74116e-08
8.74015e-08
8.73902e-08
8.73849e-08
8.73859e-08
8.73919e-08
8.74001e-08
8.74122e-08
8.74287e-08
8.74474e-08
8.74694e-08
8.74955e-08
8.75268e-08
8.7566e-08
8.76122e-08
8.7663e-08
8.77132e-08
8.77596e-08
8.78028e-08
8.7844e-08
8.78857e-08
8.79266e-08
8.79633e-08
8.79937e-08
8.80138e-08
8.80241e-08
8.80239e-08
8.80185e-08
8.80139e-08
8.80161e-08
8.80288e-08
8.80578e-08
8.8095e-08
8.81369e-08
8.8172e-08
8.81814e-08
8.81587e-08
8.80969e-08
8.80112e-08
8.79131e-08
8.78231e-08
8.77442e-08
8.76833e-08
8.76477e-08
8.76419e-08
8.76623e-08
8.77012e-08
8.77417e-08
8.77872e-08
8.78518e-08
8.79319e-08
8.80075e-08
8.80648e-08
8.81041e-08
8.81476e-08
8.82095e-08
8.83026e-08
8.84065e-08
8.84664e-08
8.84246e-08
8.82783e-08
8.80413e-08
8.78079e-08
8.76378e-08
8.75433e-08
8.75078e-08
8.75073e-08
8.75137e-08
8.74477e-08
8.72982e-08
8.71118e-08
8.69021e-08
8.66995e-08
8.65189e-08
8.63676e-08
8.62477e-08
8.61601e-08
8.61021e-08
8.6072e-08
8.60668e-08
8.60823e-08
8.61142e-08
8.61593e-08
8.62158e-08
8.62814e-08
8.63534e-08
8.64292e-08
8.65063e-08
8.65817e-08
8.6652e-08
8.67138e-08
1.32322e-07
1.33667e-07
1.34892e-07
1.35651e-07
1.36293e-07
1.36496e-07
1.36693e-07
1.36717e-07
1.36783e-07
1.36775e-07
1.36803e-07
1.36784e-07
1.36789e-07
1.36763e-07
1.3676e-07
1.36731e-07
1.3671e-07
1.36665e-07
1.36622e-07
1.3657e-07
1.36531e-07
1.36494e-07
1.36473e-07
1.36448e-07
1.36434e-07
1.36424e-07
1.36422e-07
1.36419e-07
1.36417e-07
1.36414e-07
1.36412e-07
1.36408e-07
1.36401e-07
1.36393e-07
1.36386e-07
1.36379e-07
1.36373e-07
1.36363e-07
1.36354e-07
1.36347e-07
1.36341e-07
1.36337e-07
1.36336e-07
1.36335e-07
1.36334e-07
1.3633e-07
1.36327e-07
1.36326e-07
1.36327e-07
1.36328e-07
1.36329e-07
1.3633e-07
1.36326e-07
1.36321e-07
1.36317e-07
1.36315e-07
1.36313e-07
1.36313e-07
1.36315e-07
1.36318e-07
1.36323e-07
1.36325e-07
1.36329e-07
1.36326e-07
1.36325e-07
1.36322e-07
1.36319e-07
1.36315e-07
1.36313e-07
1.36312e-07
1.36314e-07
1.36316e-07
1.36319e-07
1.36323e-07
1.36328e-07
1.36335e-07
1.36342e-07
1.36351e-07
1.36363e-07
1.36377e-07
1.36392e-07
1.36407e-07
1.36421e-07
1.36434e-07
1.36446e-07
1.36458e-07
1.36471e-07
1.36481e-07
1.3649e-07
1.36496e-07
1.36499e-07
1.36498e-07
1.36497e-07
1.36495e-07
1.36494e-07
1.36497e-07
1.36507e-07
1.36519e-07
1.36533e-07
1.36544e-07
1.36546e-07
1.36539e-07
1.36518e-07
1.36492e-07
1.36461e-07
1.36434e-07
1.36408e-07
1.36382e-07
1.36366e-07
1.36364e-07
1.36372e-07
1.36386e-07
1.36397e-07
1.36405e-07
1.36421e-07
1.36445e-07
1.36467e-07
1.36481e-07
1.36485e-07
1.36491e-07
1.36506e-07
1.36539e-07
1.36583e-07
1.36616e-07
1.3661e-07
1.36562e-07
1.36464e-07
1.36356e-07
1.36277e-07
1.36236e-07
1.36226e-07
1.36237e-07
1.36259e-07
1.36245e-07
1.36186e-07
1.3611e-07
1.36022e-07
1.35936e-07
1.3586e-07
1.35799e-07
1.35752e-07
1.35721e-07
1.35705e-07
1.35701e-07
1.35707e-07
1.3572e-07
1.35739e-07
1.35763e-07
1.35788e-07
1.35813e-07
1.35839e-07
1.35865e-07
1.35889e-07
1.35913e-07
1.35935e-07
1.35955e-07
1.44094e-07
1.44363e-07
1.44564e-07
1.44698e-07
1.44865e-07
1.44868e-07
1.44949e-07
1.44926e-07
1.44975e-07
1.4496e-07
1.44987e-07
1.44976e-07
1.44992e-07
1.44981e-07
1.44991e-07
1.44983e-07
1.4499e-07
1.44979e-07
1.44976e-07
1.44963e-07
1.44959e-07
1.4495e-07
1.44948e-07
1.44943e-07
1.44941e-07
1.44939e-07
1.44938e-07
1.44937e-07
1.44938e-07
1.44938e-07
1.4494e-07
1.4494e-07
1.44939e-07
1.44937e-07
1.44936e-07
1.44935e-07
1.44934e-07
1.44931e-07
1.4493e-07
1.44928e-07
1.44928e-07
1.44928e-07
1.44928e-07
1.44928e-07
1.44928e-07
1.44927e-07
1.44927e-07
1.44928e-07
1.44928e-07
1.44929e-07
1.4493e-07
1.44929e-07
1.44928e-07
1.44927e-07
1.44927e-07
1.44926e-07
1.44927e-07
1.44929e-07
1.4493e-07
1.44932e-07
1.44933e-07
1.44935e-07
1.44934e-07
1.44934e-07
1.44935e-07
1.44931e-07
1.44931e-07
1.4493e-07
1.4493e-07
1.4493e-07
1.44931e-07
1.44931e-07
1.44931e-07
1.44933e-07
1.44934e-07
1.44936e-07
1.44939e-07
1.44942e-07
1.44945e-07
1.44948e-07
1.44952e-07
1.44955e-07
1.44958e-07
1.4496e-07
1.44962e-07
1.44966e-07
1.44969e-07
1.44971e-07
1.44974e-07
1.44975e-07
1.44976e-07
1.44976e-07
1.44976e-07
1.44975e-07
1.44975e-07
1.44975e-07
1.44977e-07
1.44979e-07
1.44981e-07
1.44984e-07
1.44984e-07
1.44984e-07
1.44979e-07
1.44975e-07
1.44968e-07
1.44963e-07
1.44956e-07
1.44948e-07
1.44944e-07
1.44942e-07
1.44944e-07
1.44949e-07
1.44952e-07
1.44951e-07
1.44952e-07
1.44957e-07
1.44962e-07
1.44963e-07
1.44958e-07
1.44958e-07
1.4496e-07
1.44967e-07
1.44977e-07
1.4499e-07
1.44989e-07
1.44981e-07
1.44956e-07
1.44927e-07
1.44905e-07
1.44894e-07
1.44893e-07
1.44897e-07
1.44906e-07
1.44901e-07
1.44884e-07
1.44866e-07
1.44845e-07
1.44824e-07
1.44806e-07
1.44792e-07
1.44782e-07
1.44777e-07
1.44774e-07
1.44773e-07
1.44774e-07
1.44778e-07
1.44781e-07
1.44784e-07
1.44788e-07
1.44792e-07
1.44796e-07
1.44799e-07
1.44803e-07
1.44806e-07
1.44808e-07
1.44812e-07
1.46063e-07
1.45998e-07
1.45963e-07
1.45937e-07
1.45985e-07
1.45955e-07
1.46007e-07
1.45979e-07
1.46006e-07
1.45983e-07
1.45999e-07
1.45981e-07
1.45988e-07
1.45973e-07
1.45979e-07
1.45972e-07
1.45976e-07
1.45969e-07
1.45971e-07
1.45964e-07
1.45963e-07
1.45958e-07
1.45957e-07
1.45955e-07
1.45957e-07
1.45956e-07
1.45958e-07
1.45958e-07
1.45958e-07
1.45958e-07
1.45958e-07
1.45957e-07
1.45957e-07
1.45958e-07
1.45958e-07
1.45958e-07
1.45959e-07
1.45959e-07
1.45959e-07
1.45959e-07
1.45958e-07
1.45959e-07
1.45959e-07
1.45959e-07
1.4596e-07
1.45959e-07
1.45959e-07
1.45959e-07
1.45959e-07
1.4596e-07
1.45959e-07
1.45961e-07
1.45961e-07
1.45961e-07
1.45961e-07
1.45961e-07
1.4596e-07
1.4596e-07
1.4596e-07
1.4596e-07
1.4596e-07
1.45959e-07
1.45961e-07
1.45959e-07
1.4596e-07
1.45961e-07
1.45962e-07
1.45962e-07
1.45962e-07
1.45962e-07
1.45962e-07
1.45963e-07
1.45963e-07
1.45962e-07
1.45962e-07
1.45962e-07
1.45962e-07
1.45962e-07
1.45962e-07
1.45963e-07
1.45963e-07
1.45964e-07
1.45964e-07
1.45965e-07
1.45965e-07
1.45966e-07
1.45966e-07
1.45966e-07
1.45967e-07
1.45967e-07
1.45967e-07
1.45967e-07
1.45967e-07
1.45967e-07
1.45967e-07
1.45966e-07
1.45967e-07
1.45968e-07
1.45969e-07
1.4597e-07
1.45969e-07
1.45969e-07
1.45967e-07
1.45969e-07
1.45968e-07
1.45967e-07
1.45965e-07
1.4596e-07
1.45958e-07
1.45959e-07
1.45959e-07
1.45961e-07
1.45964e-07
1.45963e-07
1.45963e-07
1.45966e-07
1.45968e-07
1.45968e-07
1.45966e-07
1.45966e-07
1.45966e-07
1.45967e-07
1.4597e-07
1.45976e-07
1.45977e-07
1.45976e-07
1.45967e-07
1.45961e-07
1.45955e-07
1.45954e-07
1.45955e-07
1.45956e-07
1.4596e-07
1.45959e-07
1.45957e-07
1.45957e-07
1.45954e-07
1.45952e-07
1.4595e-07
1.45949e-07
1.45948e-07
1.45946e-07
1.45947e-07
1.45947e-07
1.45947e-07
1.45947e-07
1.45947e-07
1.45948e-07
1.45949e-07
1.45949e-07
1.4595e-07
1.4595e-07
1.4595e-07
1.45951e-07
1.45951e-07
1.45952e-07
1.46085e-07
1.46015e-07
1.45914e-07
1.45884e-07
1.45926e-07
1.45881e-07
1.45931e-07
1.45901e-07
1.45947e-07
1.45933e-07
1.4596e-07
1.45953e-07
1.45971e-07
1.45963e-07
1.45974e-07
1.45968e-07
1.4598e-07
1.45975e-07
1.4598e-07
1.45975e-07
1.45978e-07
1.45975e-07
1.45978e-07
1.45978e-07
1.45979e-07
1.45979e-07
1.45979e-07
1.45978e-07
1.4598e-07
1.45981e-07
1.45983e-07
1.45985e-07
1.45985e-07
1.45985e-07
1.45985e-07
1.45985e-07
1.45985e-07
1.45985e-07
1.45985e-07
1.45985e-07
1.45986e-07
1.45987e-07
1.45987e-07
1.45987e-07
1.45987e-07
1.45987e-07
1.45988e-07
1.45989e-07
1.45989e-07
1.4599e-07
1.45991e-07
1.4599e-07
1.4599e-07
1.4599e-07
1.4599e-07
1.4599e-07
1.45992e-07
1.45994e-07
1.45994e-07
1.45995e-07
1.45996e-07
1.45998e-07
1.45996e-07
1.45997e-07
1.45998e-07
1.45994e-07
1.45994e-07
1.45994e-07
1.45995e-07
1.45995e-07
1.45995e-07
1.45995e-07
1.45995e-07
1.45996e-07
1.45997e-07
1.45998e-07
1.45999e-07
1.46e-07
1.46001e-07
1.46001e-07
1.46002e-07
1.46003e-07
1.46003e-07
1.46003e-07
1.46004e-07
1.46005e-07
1.46006e-07
1.46006e-07
1.46008e-07
1.46008e-07
1.46009e-07
1.46009e-07
1.46009e-07
1.46009e-07
1.46009e-07
1.46007e-07
1.46008e-07
1.46008e-07
1.46009e-07
1.4601e-07
1.4601e-07
1.46011e-07
1.46009e-07
1.46011e-07
1.46009e-07
1.46009e-07
1.46006e-07
1.46002e-07
1.46002e-07
1.46002e-07
1.46002e-07
1.46005e-07
1.46007e-07
1.46006e-07
1.46005e-07
1.46007e-07
1.46008e-07
1.46008e-07
1.46003e-07
1.46003e-07
1.46003e-07
1.46004e-07
1.46006e-07
1.46011e-07
1.46012e-07
1.46012e-07
1.46007e-07
1.46002e-07
1.45998e-07
1.45997e-07
1.45997e-07
1.45997e-07
1.46e-07
1.45997e-07
1.45993e-07
1.45993e-07
1.45992e-07
1.45992e-07
1.45992e-07
1.45991e-07
1.4599e-07
1.45992e-07
1.45992e-07
1.45991e-07
1.4599e-07
1.45989e-07
1.45988e-07
1.45985e-07
1.45983e-07
1.45982e-07
1.4598e-07
1.45979e-07
1.45978e-07
1.45976e-07
1.45975e-07
1.45975e-07
1.46268e-07
1.46156e-07
1.46094e-07
1.46047e-07
1.46082e-07
1.46048e-07
1.46099e-07
1.4607e-07
1.46095e-07
1.46069e-07
1.46085e-07
1.46064e-07
1.4607e-07
1.46054e-07
1.4606e-07
1.46052e-07
1.46057e-07
1.46051e-07
1.46054e-07
1.46049e-07
1.46049e-07
1.46044e-07
1.46045e-07
1.46043e-07
1.46045e-07
1.46044e-07
1.46047e-07
1.46047e-07
1.46048e-07
1.46047e-07
1.46046e-07
1.46046e-07
1.46046e-07
1.46047e-07
1.46047e-07
1.46047e-07
1.46049e-07
1.46049e-07
1.46049e-07
1.46049e-07
1.46049e-07
1.46049e-07
1.46049e-07
1.4605e-07
1.46051e-07
1.46051e-07
1.4605e-07
1.4605e-07
1.4605e-07
1.4605e-07
1.46049e-07
1.46052e-07
1.46052e-07
1.46053e-07
1.46052e-07
1.46053e-07
1.46052e-07
1.46051e-07
1.46051e-07
1.46051e-07
1.4605e-07
1.46049e-07
1.46052e-07
1.4605e-07
1.4605e-07
1.46052e-07
1.46054e-07
1.46054e-07
1.46054e-07
1.46054e-07
1.46055e-07
1.46055e-07
1.46055e-07
1.46054e-07
1.46053e-07
1.46054e-07
1.46053e-07
1.46053e-07
1.46052e-07
1.46052e-07
1.46053e-07
1.46053e-07
1.46053e-07
1.46053e-07
1.46053e-07
1.46053e-07
1.46053e-07
1.46053e-07
1.46053e-07
1.46053e-07
1.46053e-07
1.46053e-07
1.46053e-07
1.46053e-07
1.46053e-07
1.46051e-07
1.46052e-07
1.46053e-07
1.46053e-07
1.46053e-07
1.46053e-07
1.46052e-07
1.46052e-07
1.46054e-07
1.46054e-07
1.46054e-07
1.46052e-07
1.46048e-07
1.46046e-07
1.46047e-07
1.46047e-07
1.46048e-07
1.46052e-07
1.46051e-07
1.4605e-07
1.46053e-07
1.46054e-07
1.46054e-07
1.46051e-07
1.46051e-07
1.46051e-07
1.46052e-07
1.46053e-07
1.46058e-07
1.4606e-07
1.46059e-07
1.46053e-07
1.4605e-07
1.46047e-07
1.46046e-07
1.46047e-07
1.46048e-07
1.46052e-07
1.46052e-07
1.46051e-07
1.46052e-07
1.46051e-07
1.46052e-07
1.46051e-07
1.46052e-07
1.46052e-07
1.46051e-07
1.46052e-07
1.46053e-07
1.46053e-07
1.46052e-07
1.46051e-07
1.46052e-07
1.46052e-07
1.46051e-07
1.4605e-07
1.4605e-07
1.46049e-07
1.46049e-07
1.46049e-07
1.46049e-07
1.46122e-07
1.46029e-07
1.459e-07
1.45872e-07
1.45912e-07
1.45869e-07
1.45917e-07
1.4589e-07
1.45939e-07
1.45928e-07
1.45955e-07
1.45953e-07
1.45971e-07
1.45965e-07
1.45975e-07
1.4597e-07
1.45982e-07
1.45977e-07
1.45981e-07
1.45975e-07
1.45978e-07
1.45975e-07
1.45977e-07
1.45978e-07
1.45979e-07
1.4598e-07
1.45979e-07
1.45978e-07
1.4598e-07
1.45981e-07
1.45985e-07
1.45987e-07
1.45987e-07
1.45987e-07
1.45987e-07
1.45987e-07
1.45987e-07
1.45986e-07
1.45986e-07
1.45986e-07
1.45988e-07
1.45989e-07
1.45989e-07
1.45989e-07
1.45989e-07
1.45989e-07
1.4599e-07
1.45992e-07
1.45991e-07
1.45992e-07
1.45994e-07
1.45992e-07
1.45992e-07
1.45991e-07
1.45992e-07
1.45992e-07
1.45995e-07
1.45997e-07
1.45998e-07
1.45999e-07
1.46e-07
1.46002e-07
1.45999e-07
1.46001e-07
1.46002e-07
1.45997e-07
1.45997e-07
1.45997e-07
1.45997e-07
1.45997e-07
1.45998e-07
1.45997e-07
1.45997e-07
1.45999e-07
1.46e-07
1.46001e-07
1.46003e-07
1.46004e-07
1.46004e-07
1.46005e-07
1.46006e-07
1.46007e-07
1.46007e-07
1.46007e-07
1.46008e-07
1.46009e-07
1.4601e-07
1.46011e-07
1.46012e-07
1.46013e-07
1.46013e-07
1.46014e-07
1.46014e-07
1.46015e-07
1.46014e-07
1.46013e-07
1.46014e-07
1.46015e-07
1.46016e-07
1.46017e-07
1.46017e-07
1.46018e-07
1.46017e-07
1.46018e-07
1.46017e-07
1.46017e-07
1.46014e-07
1.4601e-07
1.46009e-07
1.46009e-07
1.4601e-07
1.46013e-07
1.46015e-07
1.46015e-07
1.46013e-07
1.46015e-07
1.46017e-07
1.46017e-07
1.46013e-07
1.46012e-07
1.46013e-07
1.46014e-07
1.46015e-07
1.46021e-07
1.46021e-07
1.46021e-07
1.46016e-07
1.46012e-07
1.46008e-07
1.46008e-07
1.46008e-07
1.46008e-07
1.46011e-07
1.46008e-07
1.46004e-07
1.46005e-07
1.46004e-07
1.46004e-07
1.46004e-07
1.46003e-07
1.46004e-07
1.46006e-07
1.46005e-07
1.46004e-07
1.46003e-07
1.46002e-07
1.46e-07
1.45997e-07
1.45994e-07
1.45993e-07
1.45992e-07
1.4599e-07
1.45989e-07
1.45987e-07
1.45986e-07
1.45986e-07
1.46248e-07
1.46154e-07
1.46105e-07
1.46055e-07
1.4609e-07
1.46055e-07
1.46108e-07
1.46078e-07
1.46103e-07
1.46075e-07
1.4609e-07
1.46067e-07
1.46072e-07
1.46054e-07
1.4606e-07
1.46053e-07
1.46057e-07
1.46052e-07
1.46055e-07
1.4605e-07
1.46051e-07
1.46046e-07
1.46047e-07
1.46045e-07
1.46047e-07
1.46045e-07
1.46049e-07
1.4605e-07
1.4605e-07
1.46049e-07
1.46048e-07
1.46047e-07
1.46048e-07
1.46048e-07
1.46049e-07
1.46049e-07
1.46051e-07
1.46051e-07
1.46051e-07
1.46051e-07
1.4605e-07
1.46051e-07
1.46051e-07
1.46052e-07
1.46053e-07
1.46053e-07
1.46052e-07
1.46051e-07
1.46052e-07
1.46052e-07
1.46051e-07
1.46055e-07
1.46055e-07
1.46055e-07
1.46055e-07
1.46055e-07
1.46054e-07
1.46053e-07
1.46053e-07
1.46052e-07
1.46052e-07
1.4605e-07
1.46054e-07
1.46051e-07
1.46052e-07
1.46055e-07
1.46056e-07
1.46057e-07
1.46057e-07
1.46057e-07
1.46057e-07
1.46057e-07
1.46057e-07
1.46056e-07
1.46056e-07
1.46056e-07
1.46055e-07
1.46054e-07
1.46054e-07
1.46054e-07
1.46054e-07
1.46054e-07
1.46054e-07
1.46055e-07
1.46055e-07
1.46054e-07
1.46054e-07
1.46054e-07
1.46054e-07
1.46054e-07
1.46054e-07
1.46054e-07
1.46054e-07
1.46054e-07
1.46053e-07
1.46052e-07
1.46052e-07
1.46053e-07
1.46052e-07
1.46053e-07
1.46052e-07
1.46052e-07
1.46052e-07
1.46053e-07
1.46053e-07
1.46053e-07
1.46052e-07
1.46048e-07
1.46046e-07
1.46046e-07
1.46047e-07
1.46048e-07
1.46052e-07
1.4605e-07
1.46049e-07
1.46052e-07
1.46053e-07
1.46053e-07
1.4605e-07
1.46049e-07
1.46049e-07
1.4605e-07
1.46052e-07
1.46056e-07
1.46058e-07
1.46059e-07
1.46052e-07
1.46049e-07
1.46046e-07
1.46045e-07
1.46046e-07
1.46047e-07
1.46051e-07
1.4605e-07
1.46049e-07
1.46051e-07
1.4605e-07
1.4605e-07
1.46051e-07
1.46052e-07
1.46052e-07
1.4605e-07
1.46052e-07
1.46052e-07
1.46052e-07
1.46051e-07
1.4605e-07
1.46051e-07
1.46051e-07
1.4605e-07
1.4605e-07
1.46049e-07
1.46049e-07
1.46049e-07
1.46048e-07
1.46048e-07
1.46133e-07
1.46021e-07
1.45868e-07
1.45849e-07
1.45892e-07
1.45852e-07
1.45899e-07
1.45873e-07
1.45927e-07
1.45918e-07
1.45945e-07
1.45946e-07
1.45965e-07
1.4596e-07
1.45969e-07
1.45964e-07
1.45977e-07
1.45972e-07
1.45976e-07
1.45969e-07
1.45972e-07
1.45969e-07
1.45971e-07
1.45972e-07
1.45973e-07
1.45974e-07
1.45972e-07
1.45971e-07
1.45974e-07
1.45975e-07
1.45979e-07
1.45982e-07
1.45982e-07
1.45981e-07
1.45982e-07
1.45982e-07
1.45981e-07
1.45981e-07
1.45981e-07
1.45981e-07
1.45983e-07
1.45984e-07
1.45984e-07
1.45984e-07
1.45984e-07
1.45984e-07
1.45985e-07
1.45987e-07
1.45987e-07
1.45988e-07
1.4599e-07
1.45987e-07
1.45987e-07
1.45986e-07
1.45988e-07
1.45987e-07
1.4599e-07
1.45993e-07
1.45994e-07
1.45995e-07
1.45996e-07
1.45999e-07
1.45996e-07
1.45998e-07
1.45999e-07
1.45993e-07
1.45993e-07
1.45993e-07
1.45993e-07
1.45993e-07
1.45994e-07
1.45993e-07
1.45993e-07
1.45995e-07
1.45996e-07
1.45997e-07
1.45999e-07
1.46001e-07
1.46001e-07
1.46002e-07
1.46003e-07
1.46004e-07
1.46005e-07
1.46005e-07
1.46005e-07
1.46007e-07
1.46008e-07
1.46009e-07
1.4601e-07
1.46011e-07
1.46012e-07
1.46012e-07
1.46013e-07
1.46014e-07
1.46014e-07
1.46013e-07
1.46014e-07
1.46015e-07
1.46017e-07
1.46018e-07
1.46018e-07
1.46019e-07
1.46018e-07
1.46019e-07
1.46019e-07
1.46019e-07
1.46016e-07
1.46013e-07
1.46012e-07
1.46012e-07
1.46012e-07
1.46015e-07
1.46017e-07
1.46017e-07
1.46016e-07
1.46018e-07
1.46019e-07
1.46019e-07
1.46016e-07
1.46016e-07
1.46016e-07
1.46017e-07
1.46018e-07
1.46024e-07
1.46024e-07
1.46024e-07
1.46018e-07
1.46015e-07
1.46011e-07
1.46011e-07
1.46011e-07
1.46011e-07
1.46013e-07
1.46011e-07
1.46008e-07
1.46008e-07
1.46008e-07
1.46009e-07
1.46008e-07
1.46007e-07
1.46007e-07
1.46009e-07
1.46008e-07
1.46007e-07
1.46006e-07
1.46005e-07
1.46003e-07
1.45999e-07
1.45997e-07
1.45996e-07
1.45994e-07
1.45993e-07
1.45992e-07
1.45991e-07
1.4599e-07
1.4599e-07
1.46249e-07
1.46156e-07
1.4612e-07
1.46065e-07
1.46099e-07
1.46063e-07
1.46116e-07
1.46087e-07
1.4611e-07
1.46082e-07
1.46096e-07
1.46071e-07
1.46075e-07
1.46055e-07
1.46061e-07
1.46054e-07
1.46057e-07
1.46053e-07
1.46057e-07
1.46052e-07
1.46052e-07
1.46048e-07
1.46049e-07
1.46046e-07
1.46049e-07
1.46047e-07
1.46051e-07
1.46052e-07
1.46052e-07
1.46051e-07
1.4605e-07
1.46049e-07
1.46049e-07
1.4605e-07
1.4605e-07
1.4605e-07
1.46053e-07
1.46053e-07
1.46053e-07
1.46053e-07
1.46052e-07
1.46053e-07
1.46053e-07
1.46054e-07
1.46055e-07
1.46055e-07
1.46054e-07
1.46053e-07
1.46054e-07
1.46054e-07
1.46053e-07
1.46057e-07
1.46057e-07
1.46057e-07
1.46057e-07
1.46057e-07
1.46056e-07
1.46055e-07
1.46055e-07
1.46054e-07
1.46054e-07
1.46051e-07
1.46056e-07
1.46053e-07
1.46053e-07
1.46057e-07
1.46059e-07
1.46059e-07
1.46059e-07
1.46059e-07
1.4606e-07
1.4606e-07
1.4606e-07
1.46059e-07
1.46058e-07
1.46058e-07
1.46057e-07
1.46056e-07
1.46056e-07
1.46056e-07
1.46056e-07
1.46056e-07
1.46055e-07
1.46056e-07
1.46056e-07
1.46056e-07
1.46056e-07
1.46055e-07
1.46055e-07
1.46055e-07
1.46055e-07
1.46055e-07
1.46055e-07
1.46055e-07
1.46054e-07
1.46052e-07
1.46053e-07
1.46053e-07
1.46052e-07
1.46052e-07
1.46052e-07
1.46052e-07
1.46052e-07
1.46053e-07
1.46053e-07
1.46052e-07
1.46051e-07
1.46046e-07
1.46045e-07
1.46045e-07
1.46045e-07
1.46046e-07
1.4605e-07
1.46048e-07
1.46047e-07
1.4605e-07
1.46052e-07
1.46051e-07
1.46048e-07
1.46048e-07
1.46048e-07
1.46048e-07
1.4605e-07
1.46055e-07
1.46057e-07
1.46057e-07
1.46051e-07
1.46048e-07
1.46045e-07
1.46044e-07
1.46045e-07
1.46046e-07
1.46051e-07
1.4605e-07
1.46048e-07
1.46049e-07
1.46048e-07
1.46048e-07
1.46048e-07
1.4605e-07
1.4605e-07
1.46049e-07
1.4605e-07
1.46051e-07
1.46051e-07
1.4605e-07
1.46049e-07
1.4605e-07
1.4605e-07
1.46049e-07
1.46048e-07
1.46048e-07
1.46047e-07
1.46046e-07
1.46046e-07
1.46046e-07
1.46106e-07
1.46006e-07
1.45829e-07
1.4582e-07
1.45868e-07
1.45832e-07
1.4588e-07
1.45856e-07
1.45911e-07
1.45903e-07
1.4593e-07
1.45934e-07
1.45955e-07
1.45951e-07
1.45961e-07
1.45956e-07
1.45969e-07
1.45965e-07
1.45968e-07
1.45961e-07
1.45964e-07
1.45961e-07
1.45963e-07
1.45965e-07
1.45965e-07
1.45967e-07
1.45964e-07
1.45963e-07
1.45966e-07
1.45968e-07
1.45972e-07
1.45976e-07
1.45976e-07
1.45975e-07
1.45976e-07
1.45976e-07
1.45975e-07
1.45974e-07
1.45975e-07