/*--------------------------------*- C++ -*----------------------------------*\
| =========                 |                                                 |
| \\      /  F ield         | OpenFOAM: The Open Source CFD Toolbox           |
|  \\    /   O peration     | Version:  v1912                                 |
|   \\  /    A nd           | Website:  www.openfoam.com                      |
|    \\/     M anipulation  |                                                 |
\*---------------------------------------------------------------------------*/
FoamFile
{
    version     2.0;
    format      ascii;
    class       volSymmTensorField;
    location    "30";
    object      R;
}
// * * * * * * * * * * * * * * * * * * * * * * * * * * * * * * * * * * * * * //

dimensions      [0 2 -2 0 0 0 0];


internalField   nonuniform List<symmTensor> 
14268
(
(2.8898e-09 -1.89625e-11 0 2.89562e-09 0 2.89301e-09)
(2.85809e-09 -1.80125e-11 0 2.84755e-09 0 2.853e-09)
(2.81648e-09 -1.69532e-11 0 2.78647e-09 0 2.80169e-09)
(2.77424e-09 -1.61469e-11 0 2.72665e-09 0 2.75053e-09)
(2.72164e-09 -1.53153e-11 0 2.65613e-09 0 2.68918e-09)
(2.67059e-09 -1.47316e-11 0 2.58987e-09 0 2.63037e-09)
(2.60397e-09 -1.40165e-11 0 2.50568e-09 0 2.5551e-09)
(2.57691e-09 -1.52453e-11 0 2.47326e-09 0 2.52528e-09)
(5.81204e-08 -8.10007e-10 0 5.84409e-08 0 5.82927e-08)
(5.78579e-08 -7.80134e-10 0 5.7735e-08 0 5.78063e-08)
(5.7292e-08 -7.37177e-10 0 5.65471e-08 0 5.69313e-08)
(5.65781e-08 -6.9898e-10 0 5.52175e-08 0 5.59051e-08)
(5.55475e-08 -6.589e-10 0 5.35499e-08 0 5.45629e-08)
(5.45144e-08 -6.28356e-10 0 5.19636e-08 0 5.3248e-08)
(5.31224e-08 -5.92796e-10 0 4.99508e-08 0 5.15509e-08)
(5.25822e-08 -6.28225e-10 0 4.92082e-08 0 5.09045e-08)
(9.06239e-08 -2.29669e-09 0 9.10897e-08 0 9.08561e-08)
(9.07929e-08 -2.25641e-09 0 9.05594e-08 0 9.06716e-08)
(9.09855e-08 -2.18721e-09 0 8.9708e-08 0 9.03448e-08)
(9.1175e-08 -2.11084e-09 0 8.87853e-08 0 8.99695e-08)
(9.12452e-08 -2.02307e-09 0 8.76347e-08 0 8.94393e-08)
(9.13089e-08 -1.93918e-09 0 8.65635e-08 0 8.89179e-08)
(9.12444e-08 -1.84526e-09 0 8.51517e-08 0 8.81789e-08)
(9.12161e-08 -1.94236e-09 0 8.46115e-08 0 8.78904e-08)
(9.63821e-08 -2.90013e-09 0 9.67438e-08 0 9.658e-08)
(9.67277e-08 -2.86618e-09 0 9.63394e-08 0 9.65449e-08)
(9.72105e-08 -2.80718e-09 0 9.57161e-08 0 9.64768e-08)
(9.77797e-08 -2.73737e-09 0 9.50465e-08 0 9.64175e-08)
(9.83197e-08 -2.65972e-09 0 9.42551e-08 0 9.63058e-08)
(9.88977e-08 -2.58124e-09 0 9.35178e-08 0 9.62205e-08)
(9.94878e-08 -2.48728e-09 0 9.25421e-08 0 9.6044e-08)
(9.97655e-08 -2.64527e-09 0 9.22186e-08 0 9.60128e-08)
(9.71114e-08 -3.05434e-09 0 9.74865e-08 0 9.72932e-08)
(9.74992e-08 -3.02562e-09 0 9.71054e-08 0 9.7292e-08)
(9.80555e-08 -2.97247e-09 0 9.6528e-08 0 9.72831e-08)
(9.86773e-08 -2.91163e-09 0 9.59448e-08 0 9.72929e-08)
(9.93484e-08 -2.83982e-09 0 9.52342e-08 0 9.72834e-08)
(1.00036e-07 -2.77144e-09 0 9.46485e-08 0 9.73155e-08)
(1.00844e-07 -2.68741e-09 0 9.38626e-08 0 9.73253e-08)
(1.01193e-07 -2.87304e-09 0 9.36133e-08 0 9.73642e-08)
(9.71139e-08 -3.07997e-09 0 9.74226e-08 0 9.72884e-08)
(9.75035e-08 -3.05479e-09 0 9.70615e-08 0 9.72971e-08)
(9.8077e-08 -3.00415e-09 0 9.64878e-08 0 9.7299e-08)
(9.87167e-08 -2.94633e-09 0 9.59179e-08 0 9.73251e-08)
(9.93997e-08 -2.87804e-09 0 9.52188e-08 0 9.73295e-08)
(1.001e-07 -2.81277e-09 0 9.4614e-08 0 9.73702e-08)
(1.00901e-07 -2.72902e-09 0 9.37984e-08 0 9.73763e-08)
(1.01259e-07 -2.9158e-09 0 9.35404e-08 0 9.74216e-08)
(9.71779e-08 -3.08991e-09 0 9.75415e-08 0 9.73529e-08)
(9.75678e-08 -3.06699e-09 0 9.7166e-08 0 9.73564e-08)
(9.81364e-08 -3.01777e-09 0 9.65919e-08 0 9.73562e-08)
(9.87693e-08 -2.96081e-09 0 9.60188e-08 0 9.73774e-08)
(9.94588e-08 -2.89209e-09 0 9.53181e-08 0 9.73835e-08)
(1.00165e-07 -2.82935e-09 0 9.47475e-08 0 9.74335e-08)
(1.00996e-07 -2.74464e-09 0 9.39845e-08 0 9.74665e-08)
(1.01363e-07 -2.92801e-09 0 9.37514e-08 0 9.75203e-08)
(9.71137e-08 -3.08926e-09 0 9.7417e-08 0 9.72869e-08)
(9.75019e-08 -3.06955e-09 0 9.70644e-08 0 9.72986e-08)
(9.80886e-08 -3.02106e-09 0 9.64834e-08 0 9.73033e-08)
(9.87239e-08 -2.96552e-09 0 9.59254e-08 0 9.73326e-08)
(9.94183e-08 -2.89802e-09 0 9.52248e-08 0 9.73417e-08)
(1.00123e-07 -2.83579e-09 0 9.46361e-08 0 9.73892e-08)
(1.00925e-07 -2.74886e-09 0 9.38229e-08 0 9.73986e-08)
(1.01288e-07 -2.92465e-09 0 9.35621e-08 0 9.74456e-08)
(9.71771e-08 -3.09545e-09 0 9.75432e-08 0 9.73521e-08)
(9.75677e-08 -3.07719e-09 0 9.7166e-08 0 9.73557e-08)
(9.81389e-08 -3.03017e-09 0 9.65907e-08 0 9.7356e-08)
(9.8771e-08 -2.97447e-09 0 9.60203e-08 0 9.73781e-08)
(9.94637e-08 -2.90789e-09 0 9.53188e-08 0 9.73852e-08)
(1.00164e-07 -2.84286e-09 0 9.47333e-08 0 9.74303e-08)
(1.00993e-07 -2.75697e-09 0 9.3975e-08 0 9.74634e-08)
(1.01358e-07 -2.92916e-09 0 9.37393e-08 0 9.75159e-08)
(9.71099e-08 -3.09453e-09 0 9.74103e-08 0 9.72826e-08)
(9.74998e-08 -3.07907e-09 0 9.70602e-08 0 9.72959e-08)
(9.80882e-08 -3.03226e-09 0 9.64766e-08 0 9.73005e-08)
(9.87141e-08 -2.97832e-09 0 9.59288e-08 0 9.73305e-08)
(9.94299e-08 -2.90941e-09 0 9.52157e-08 0 9.73426e-08)
(1.00129e-07 -2.84784e-09 0 9.46442e-08 0 9.73932e-08)
(1.0093e-07 -2.75744e-09 0 9.38369e-08 0 9.74049e-08)
(1.01293e-07 -2.92354e-09 0 9.35812e-08 0 9.7453e-08)
(9.71777e-08 -3.11042e-09 0 9.75427e-08 0 9.73515e-08)
(9.75687e-08 -3.09623e-09 0 9.71628e-08 0 9.73544e-08)
(9.81404e-08 -3.04949e-09 0 9.6586e-08 0 9.73544e-08)
(9.87708e-08 -2.99334e-09 0 9.60157e-08 0 9.73761e-08)
(9.94628e-08 -2.92077e-09 0 9.53101e-08 0 9.73819e-08)
(1.00164e-07 -2.8517e-09 0 9.47297e-08 0 9.74283e-08)
(1.00982e-07 -2.75029e-09 0 9.39656e-08 0 9.74563e-08)
(1.01348e-07 -2.91393e-09 0 9.37316e-08 0 9.75098e-08)
(9.71326e-08 -3.22497e-09 0 9.73963e-08 0 9.72872e-08)
(9.75255e-08 -3.22044e-09 0 9.70449e-08 0 9.73013e-08)
(9.81132e-08 -3.17254e-09 0 9.64634e-08 0 9.7306e-08)
(9.87477e-08 -3.10434e-09 0 9.59083e-08 0 9.73358e-08)
(9.94322e-08 -3.00406e-09 0 9.52073e-08 0 9.7341e-08)
(1.00126e-07 -2.88439e-09 0 9.46252e-08 0 9.73847e-08)
(1.00907e-07 -2.69136e-09 0 9.38463e-08 0 9.73949e-08)
(1.01268e-07 -2.84167e-09 0 9.35902e-08 0 9.74446e-08)
(9.73504e-08 -3.92503e-09 0 9.7475e-08 0 9.7404e-08)
(9.77485e-08 -3.99128e-09 0 9.71087e-08 0 9.74149e-08)
(9.83566e-08 -4.00679e-09 0 9.65104e-08 0 9.74219e-08)
(9.89737e-08 -3.88286e-09 0 9.59411e-08 0 9.74379e-08)
(9.9599e-08 -3.5523e-09 0 9.52784e-08 0 9.74264e-08)
(1.00204e-07 -3.08038e-09 0 9.47114e-08 0 9.7434e-08)
(1.00853e-07 -2.30458e-09 0 9.39738e-08 0 9.73988e-08)
(1.01207e-07 -2.3442e-09 0 9.37827e-08 0 9.74619e-08)
(9.7284e-08 -3.96894e-09 0 9.73404e-08 0 9.73363e-08)
(9.77054e-08 -4.07931e-09 0 9.6963e-08 0 9.73536e-08)
(9.84099e-08 -4.54883e-09 0 9.63563e-08 0 9.74037e-08)
(9.90687e-08 -4.46438e-09 0 9.57922e-08 0 9.74379e-08)
(9.99566e-08 -5.07697e-09 0 9.50463e-08 0 9.75207e-08)
(1.00563e-07 -4.4839e-09 0 9.44905e-08 0 9.7528e-08)
(1.01411e-07 -4.62833e-09 0 9.36856e-08 0 9.75645e-08)
(1.01596e-07 -3.98734e-09 0 9.35404e-08 0 9.75881e-08)
(9.71464e-08 -2.97021e-09 0 9.75501e-08 0 9.73524e-08)
(9.74935e-08 -2.89428e-09 0 9.72131e-08 0 9.73512e-08)
(9.81473e-08 -3.25716e-09 0 9.66111e-08 0 9.73767e-08)
(9.87581e-08 -3.12249e-09 0 9.60397e-08 0 9.73882e-08)
(9.96877e-08 -4.07813e-09 0 9.52612e-08 0 9.74747e-08)
(1.00419e-07 -3.94627e-09 0 9.46549e-08 0 9.75282e-08)
(1.01964e-07 -6.15669e-09 0 9.38276e-08 0 9.78711e-08)
(1.02394e-07 -5.79332e-09 0 9.36089e-08 0 9.79595e-08)
(9.71309e-08 -2.99402e-09 0 9.75009e-08 0 9.73253e-08)
(9.74913e-08 -2.96967e-09 0 9.71567e-08 0 9.73295e-08)
(9.80601e-08 -2.91096e-09 0 9.65703e-08 0 9.73261e-08)
(9.8652e-08 -2.82149e-09 0 9.60371e-08 0 9.7346e-08)
(9.93887e-08 -2.853e-09 0 9.53265e-08 0 9.73658e-08)
(1.00098e-07 -2.93375e-09 0 9.47931e-08 0 9.74359e-08)
(1.01161e-07 -3.86076e-09 0 9.39257e-08 0 9.75586e-08)
(1.01854e-07 -4.48945e-09 0 9.34792e-08 0 9.76882e-08)
(9.71812e-08 -3.1521e-09 0 9.75213e-08 0 9.73594e-08)
(9.75435e-08 -3.17182e-09 0 9.71873e-08 0 9.73676e-08)
(9.81389e-08 -3.1329e-09 0 9.66118e-08 0 9.7375e-08)
(9.87373e-08 -3.07096e-09 0 9.60623e-08 0 9.73922e-08)
(9.94269e-08 -3.00773e-09 0 9.53355e-08 0 9.7392e-08)
(1.00097e-07 -2.93242e-09 0 9.47826e-08 0 9.74365e-08)
(1.00973e-07 -2.97922e-09 0 9.40708e-08 0 9.7507e-08)
(1.01598e-07 -3.21542e-09 0 9.37126e-08 0 9.76084e-08)
(9.71518e-08 -3.15622e-09 0 9.75154e-08 0 9.73366e-08)
(9.75365e-08 -3.19517e-09 0 9.71626e-08 0 9.73472e-08)
(9.81121e-08 -3.17149e-09 0 9.65707e-08 0 9.73463e-08)
(9.8706e-08 -3.11733e-09 0 9.60295e-08 0 9.73648e-08)
(9.94288e-08 -3.03621e-09 0 9.53275e-08 0 9.73792e-08)
(1.00081e-07 -2.97955e-09 0 9.47786e-08 0 9.74207e-08)
(1.00877e-07 -2.91239e-09 0 9.39992e-08 0 9.7448e-08)
(1.01402e-07 -3.00675e-09 0 9.35195e-08 0 9.74827e-08)
(9.71677e-08 -3.18446e-09 0 9.75028e-08 0 9.7351e-08)
(9.75371e-08 -3.23295e-09 0 9.7159e-08 0 9.73589e-08)
(9.8138e-08 -3.20638e-09 0 9.65909e-08 0 9.73703e-08)
(9.8751e-08 -3.14463e-09 0 9.60473e-08 0 9.73935e-08)
(9.94327e-08 -3.06709e-09 0 9.53227e-08 0 9.73908e-08)
(1.00102e-07 -2.98949e-09 0 9.47741e-08 0 9.74348e-08)
(1.00909e-07 -2.87456e-09 0 9.40237e-08 0 9.74682e-08)
(1.01485e-07 -2.95525e-09 0 9.36628e-08 0 9.75441e-08)
(9.71504e-08 -3.18603e-09 0 9.75506e-08 0 9.73442e-08)
(9.75405e-08 -3.24775e-09 0 9.71978e-08 0 9.7357e-08)
(9.81339e-08 -3.23688e-09 0 9.65906e-08 0 9.7359e-08)
(9.87269e-08 -3.18083e-09 0 9.60286e-08 0 9.73716e-08)
(9.94412e-08 -3.09912e-09 0 9.53269e-08 0 9.73838e-08)
(1.00087e-07 -2.99999e-09 0 9.47663e-08 0 9.742e-08)
(1.00898e-07 -2.91763e-09 0 9.40584e-08 0 9.74695e-08)
(1.01407e-07 -2.95042e-09 0 9.36056e-08 0 9.75015e-08)
(9.71625e-08 -3.30099e-09 0 9.74848e-08 0 9.73493e-08)
(9.75428e-08 -3.43294e-09 0 9.71457e-08 0 9.73643e-08)
(9.81642e-08 -3.39292e-09 0 9.65619e-08 0 9.73773e-08)
(9.87956e-08 -3.40842e-09 0 9.60291e-08 0 9.7413e-08)
(9.94743e-08 -3.26605e-09 0 9.53187e-08 0 9.74113e-08)
(1.0017e-07 -3.29627e-09 0 9.47968e-08 0 9.74742e-08)
(1.00924e-07 -3.03225e-09 0 9.39868e-08 0 9.74737e-08)
(1.01475e-07 -3.10341e-09 0 9.35622e-08 0 9.75252e-08)
(9.71274e-08 -3.24388e-09 0 9.75666e-08 0 9.73461e-08)
(9.75479e-08 -3.31231e-09 0 9.71739e-08 0 9.73562e-08)
(9.81805e-08 -3.22899e-09 0 9.65494e-08 0 9.73626e-08)
(9.88146e-08 -3.21903e-09 0 9.59795e-08 0 9.73872e-08)
(9.95117e-08 -2.97608e-09 0 9.52714e-08 0 9.73933e-08)
(1.0022e-07 -2.9095e-09 0 9.4681e-08 0 9.74405e-08)
(1.0096e-07 -2.44867e-09 0 9.39632e-08 0 9.74579e-08)
(1.01249e-07 -2.47203e-09 0 9.37135e-08 0 9.74698e-08)
(9.71237e-08 -3.33442e-09 0 9.75195e-08 0 9.73413e-08)
(9.75541e-08 -3.54329e-09 0 9.71548e-08 0 9.73669e-08)
(9.81972e-08 -3.56519e-09 0 9.65454e-08 0 9.73848e-08)
(9.8864e-08 -3.49494e-09 0 9.59423e-08 0 9.74097e-08)
(9.95677e-08 -3.39622e-09 0 9.52365e-08 0 9.74211e-08)
(1.00293e-07 -3.33834e-09 0 9.4643e-08 0 9.7473e-08)
(1.01101e-07 -3.1208e-09 0 9.38773e-08 0 9.75015e-08)
(1.01436e-07 -3.03766e-09 0 9.36052e-08 0 9.75232e-08)
(9.70124e-08 -3.43157e-09 0 9.77279e-08 0 9.73578e-08)
(9.75082e-08 -3.61831e-09 0 9.72612e-08 0 9.7371e-08)
(9.82221e-08 -3.67998e-09 0 9.66018e-08 0 9.73958e-08)
(9.89139e-08 -3.68266e-09 0 9.59939e-08 0 9.74312e-08)
(9.96451e-08 -3.59998e-09 0 9.53118e-08 0 9.74642e-08)
(1.00403e-07 -3.49825e-09 0 9.47046e-08 0 9.75257e-08)
(1.01161e-07 -3.21988e-09 0 9.39661e-08 0 9.75476e-08)
(1.01438e-07 -2.87033e-09 0 9.36775e-08 0 9.7536e-08)
(9.69894e-08 -3.49278e-09 0 9.75892e-08 0 9.73219e-08)
(9.74818e-08 -3.85842e-09 0 9.72112e-08 0 9.73682e-08)
(9.8187e-08 -3.93552e-09 0 9.65652e-08 0 9.73975e-08)
(9.89154e-08 -3.86968e-09 0 9.59092e-08 0 9.74288e-08)
(9.96522e-08 -3.7839e-09 0 9.51847e-08 0 9.74479e-08)
(1.00448e-07 -3.74022e-09 0 9.4548e-08 0 9.75138e-08)
(1.01317e-07 -3.44573e-09 0 9.3747e-08 0 9.7548e-08)
(1.01703e-07 -3.13426e-09 0 9.34026e-08 0 9.75554e-08)
(9.68083e-08 -3.61191e-09 0 9.79932e-08 0 9.73724e-08)
(9.74067e-08 -3.93045e-09 0 9.74168e-08 0 9.73862e-08)
(9.82382e-08 -4.04131e-09 0 9.66594e-08 0 9.742e-08)
(9.89906e-08 -4.06659e-09 0 9.59983e-08 0 9.74633e-08)
(9.97279e-08 -3.99249e-09 0 9.53513e-08 0 9.75137e-08)
(1.00561e-07 -3.91386e-09 0 9.4715e-08 0 9.75962e-08)
(1.01379e-07 -3.53321e-09 0 9.38777e-08 0 9.76076e-08)
(1.01727e-07 -2.85704e-09 0 9.34279e-08 0 9.75597e-08)
(9.67645e-08 -3.67276e-09 0 9.77084e-08 0 9.72888e-08)
(9.73513e-08 -4.21929e-09 0 9.73106e-08 0 9.73661e-08)
(9.81596e-08 -4.34072e-09 0 9.66051e-08 0 9.74114e-08)
(9.89479e-08 -4.23898e-09 0 9.59014e-08 0 9.7448e-08)
(9.97269e-08 -4.15168e-09 0 9.51626e-08 0 9.74802e-08)
(1.00629e-07 -4.14017e-09 0 9.44526e-08 0 9.75646e-08)
(1.01663e-07 -3.7765e-09 0 9.35315e-08 0 9.76148e-08)
(1.02218e-07 -3.29162e-09 0 9.30413e-08 0 9.76226e-08)
(9.65051e-08 -3.79536e-09 0 9.8394e-08 0 9.73981e-08)
(9.72493e-08 -4.2812e-09 0 9.76599e-08 0 9.74113e-08)
(9.82554e-08 -4.42956e-09 0 9.67193e-08 0 9.74452e-08)
(9.90696e-08 -4.45896e-09 0 9.59831e-08 0 9.74906e-08)
(9.97997e-08 -4.40879e-09 0 9.53747e-08 0 9.75567e-08)
(1.00733e-07 -4.39616e-09 0 9.47306e-08 0 9.76784e-08)
(1.01685e-07 -3.92705e-09 0 9.37774e-08 0 9.76986e-08)
(1.02243e-07 -2.84928e-09 0 9.29773e-08 0 9.76033e-08)
(9.64387e-08 -3.86933e-09 0 9.7886e-08 0 9.72425e-08)
(9.71503e-08 -4.64912e-09 0 9.74529e-08 0 9.73571e-08)
(9.81207e-08 -4.79925e-09 0 9.66613e-08 0 9.74276e-08)
(9.89763e-08 -4.60659e-09 0 9.59266e-08 0 9.74737e-08)
(9.97708e-08 -4.51439e-09 0 9.52025e-08 0 9.75198e-08)
(1.00822e-07 -4.57332e-09 0 9.43852e-08 0 9.76322e-08)
(1.02169e-07 -4.20385e-09 0 9.31928e-08 0 9.77093e-08)
(1.03028e-07 -3.56751e-09 0 9.25028e-08 0 9.77423e-08)
(9.60776e-08 -3.98446e-09 0 9.89653e-08 0 9.74372e-08)
(9.70302e-08 -4.67205e-09 0 9.80081e-08 0 9.74502e-08)
(9.82915e-08 -4.83771e-09 0 9.67597e-08 0 9.74708e-08)
(9.91626e-08 -4.83055e-09 0 9.58935e-08 0 9.75e-08)
(9.98489e-08 -4.83966e-09 0 9.5407e-08 0 9.75937e-08)
(1.00898e-07 -4.9772e-09 0 9.47809e-08 0 9.77758e-08)
(1.02069e-07 -4.47756e-09 0 9.37415e-08 0 9.78437e-08)
(1.03048e-07 -2.89234e-09 0 9.23191e-08 0 9.76898e-08)
(9.6044e-08 -4.00057e-09 0 9.81174e-08 0 9.72049e-08)
(9.69191e-08 -5.1136e-09 0 9.76498e-08 0 9.73701e-08)
(9.81196e-08 -5.36131e-09 0 9.67462e-08 0 9.74663e-08)
(9.90014e-08 -4.96979e-09 0 9.60069e-08 0 9.75106e-08)
(9.97262e-08 -4.82818e-09 0 9.5263e-08 0 9.7538e-08)
(1.00951e-07 -4.98669e-09 0 9.4363e-08 0 9.76989e-08)
(1.02856e-07 -4.77165e-09 0 9.27469e-08 0 9.78491e-08)
(1.04202e-07 -4.03652e-09 0 9.17718e-08 0 9.79429e-08)
(9.73054e-08 -1.82685e-09 0 1.00011e-07 0 9.86196e-08)
(9.75234e-08 -2.5062e-09 0 9.85018e-08 0 9.80187e-08)
(9.85271e-08 -3.81e-09 0 9.65611e-08 0 9.75667e-08)
(9.93616e-08 -4.55308e-09 0 9.55147e-08 0 9.74865e-08)
(9.98816e-08 -5.24319e-09 0 9.54156e-08 0 9.76209e-08)
(1.01123e-07 -6.13921e-09 0 9.4971e-08 0 9.79615e-08)
(1.02455e-07 -5.27579e-09 0 9.3857e-08 0 9.80537e-08)
(1.04265e-07 -3.5896e-09 0 9.15218e-08 0 9.79001e-08)
(1.50343e-07 3.50502e-08 0 1.00806e-07 0 1.30046e-07)
(1.33959e-07 3.25076e-08 0 9.91848e-08 0 1.19287e-07)
(1.13834e-07 2.37844e-08 0 9.85037e-08 0 1.06901e-07)
(1.04757e-07 1.51622e-08 0 9.48201e-08 0 1.00986e-07)
(9.66758e-08 6.23663e-09 0 9.73743e-08 0 9.59715e-08)
(9.93624e-08 1.47504e-09 0 9.44532e-08 0 9.6697e-08)
(1.03019e-07 -1.54479e-09 0 9.22838e-08 0 9.76469e-08)
(1.05203e-07 -1.03408e-09 0 9.07628e-08 0 9.79536e-08)
(4.43726e-07 5.27862e-08 0 1e-15 0 3.09577e-07)
(3.19591e-07 3.93227e-08 0 1e-15 0 2.30367e-07)
(2.56685e-07 3.58461e-08 0 1e-15 0 1.90186e-07)
(2.12461e-07 3.28484e-08 0 1e-15 0 1.60749e-07)
(1.79284e-07 2.74578e-08 0 1e-15 0 1.39889e-07)
(1.45116e-07 2.25616e-08 0 1e-15 0 1.17887e-07)
(1.18023e-07 1.83301e-08 0 1e-15 0 1.00906e-07)
(1.03609e-07 1.59569e-08 0 1e-15 0 9.2134e-08)
(1.50134e-07 3.53009e-08 0 1e-15 0 1.29596e-07)
(1.21641e-07 2.94114e-08 0 1e-15 0 1.12878e-07)
(1.89756e-07 -3.13627e-09 0 1e-15 0 1.57064e-07)
(4.44691e-07 -6.34329e-08 0 1e-15 0 3.22625e-07)
(6.74745e-07 -1.04432e-07 0 1e-15 0 4.78649e-07)
(8.62308e-07 -1.5425e-07 0 1e-15 0 6.14556e-07)
(1.11234e-06 -2.34258e-07 0 1e-15 0 7.93973e-07)
(1.42852e-06 -2.5727e-07 0 1e-15 0 1.0321e-06)
(4.07645e-05 -3.93038e-06 0 1e-15 0 2.80347e-05)
(4.30392e-05 -4.15828e-06 0 1e-15 0 2.9589e-05)
(4.52275e-05 -4.26208e-06 0 1e-15 0 3.11366e-05)
(4.66233e-05 -4.28227e-06 0 1e-15 0 3.21488e-05)
(4.76815e-05 -4.31372e-06 0 1e-15 0 3.2916e-05)
(4.88677e-05 -4.34813e-06 0 1e-15 0 3.37743e-05)
(4.94204e-05 -4.21227e-06 0 1e-15 0 3.42021e-05)
(4.83149e-05 -3.76897e-06 0 1e-15 0 3.34885e-05)
(4.65637e-06 1.40261e-06 0 1e-15 0 3.54172e-06)
(6.64405e-06 2.09556e-06 0 1e-15 0 5.06223e-06)
(9.33243e-06 2.73144e-06 0 1e-15 0 7.06628e-06)
(1.35042e-05 4.58459e-06 0 1e-15 0 1.02092e-05)
(2.20096e-05 6.09642e-06 0 1e-15 0 1.62412e-05)
(3.77154e-05 1.3349e-05 0 1e-15 0 2.7602e-05)
(9.59235e-05 1.91217e-05 0 1e-15 0 6.83383e-05)
(9.71168e-05 4.09426e-05 0 1e-15 0 6.9926e-05)
(0.000971815 0.000128749 0 1e-15 0 0.000665488)
(0.00128126 0.000153314 0 1e-15 0 0.000880999)
(0.00167359 0.000189216 0 1e-15 0 0.00114917)
(0.00255239 0.00028881 0 1e-15 0 0.00175048)
(0.00479603 0.000551947 0 1e-15 0 0.00328207)
(0.00947721 0.00111481 0 1e-15 0 0.00647868)
(0.0165679 0.00186269 0 1e-15 0 0.011281)
(0.0256445 0.00297077 0 1e-15 0 0.0175371)
(0.000208625 4.68198e-05 0 4.70029e-05 0 0.000135347)
(0.000315148 7.11303e-05 0 6.69945e-05 0 0.000205351)
(0.000430151 0.000102675 0 9.11281e-05 0 0.000282286)
(0.000640806 0.000170839 0 0.000160228 0 0.000420489)
(0.00103543 0.000277561 0 0.000277606 0 0.000686018)
(0.00196075 0.000503521 0 0.000521608 0 0.00131803)
(0.00279167 0.000735979 0 0.000746398 0 0.00191068)
(0.00353469 0.000942107 0 0.000954187 0 0.00249139)
(3.54781e-06 6.93783e-07 0 7.13932e-07 0 2.41027e-06)
(7.7394e-06 1.748e-06 0 1.7382e-06 0 5.16065e-06)
(1.02122e-05 2.50075e-06 0 2.46188e-06 0 6.80091e-06)
(9.16973e-06 2.33043e-06 0 2.52223e-06 0 6.1439e-06)
(1.00018e-05 2.15878e-06 0 2.82547e-06 0 6.91826e-06)
(3.37185e-05 7.7598e-06 0 9.83457e-06 0 2.36236e-05)
(5.16434e-05 1.19186e-05 0 1.46241e-05 0 3.68612e-05)
(7.0365e-05 1.57083e-05 0 1.92303e-05 0 5.14532e-05)
(1.15263e-07 -4.1725e-10 0 9.29704e-08 0 1.07729e-07)
(1.57446e-07 9.74641e-09 0 1.00619e-07 0 1.34252e-07)
(1.77085e-07 1.48413e-08 0 1.04973e-07 0 1.46528e-07)
(1.48921e-07 8.97122e-09 0 9.78498e-08 0 1.26908e-07)
(1.21567e-07 -1.41117e-08 0 8.89787e-08 0 1.07773e-07)
(1.81887e-07 -5.28434e-09 0 9.41749e-08 0 1.42013e-07)
(2.15925e-07 9.98538e-09 0 1.28596e-07 0 1.76579e-07)
(7.29349e-07 2.24585e-07 0 4.47236e-07 0 5.77787e-07)
(9.46333e-08 -4.1215e-09 0 1.01523e-07 0 9.62596e-08)
(9.50854e-08 -2.82582e-09 0 1.02273e-07 0 9.67662e-08)
(9.94534e-08 -5.34918e-09 0 1.0006e-07 0 9.77993e-08)
(9.64296e-08 -5.34981e-09 0 1.04135e-07 0 9.84214e-08)
(9.21504e-08 -1.42179e-08 0 1.10562e-07 0 9.96051e-08)
(9.29115e-08 -1.28766e-08 0 1.0704e-07 0 9.82696e-08)
(1.09324e-07 -2.37129e-08 0 1.02512e-07 0 1.0355e-07)
(1.13152e-07 -2.19344e-08 0 9.53016e-08 0 1.03254e-07)
(9.16505e-08 -4.01423e-09 0 8.9929e-08 0 9.23752e-08)
(9.2529e-08 -2.54299e-09 0 8.89548e-08 0 9.23832e-08)
(9.52224e-08 -3.70407e-09 0 8.83008e-08 0 9.3456e-08)
(9.53094e-08 -6.90695e-09 0 9.0391e-08 0 9.43289e-08)
(9.08964e-08 -1.49642e-09 0 9.1771e-08 0 9.28204e-08)
(9.95828e-08 7.50782e-09 0 8.69169e-08 0 9.42272e-08)
(1.0852e-07 4.8209e-09 0 8.43926e-08 0 9.71796e-08)
(1.02048e-07 -2.55447e-10 0 9.49289e-08 0 9.80631e-08)
(9.57747e-08 -4.21257e-09 0 1.01777e-07 0 9.71191e-08)
(9.49952e-08 -3.61192e-09 0 1.02997e-07 0 9.72867e-08)
(9.59408e-08 -5.12971e-09 0 1.02995e-07 0 9.77928e-08)
(9.65448e-08 -6.57849e-09 0 1.0306e-07 0 9.81768e-08)
(9.45738e-08 -5.8623e-09 0 1.03311e-07 0 9.74012e-08)
(9.07965e-08 -1.20975e-09 0 1.04203e-07 0 9.62245e-08)
(9.96378e-08 -4.36023e-09 0 9.69583e-08 0 9.71195e-08)
(1.13006e-07 -1.49731e-08 0 8.94893e-08 0 1.00717e-07)
(9.25998e-08 -3.43624e-09 0 9.08804e-08 0 9.33e-08)
(9.27963e-08 -2.22525e-09 0 9.10227e-08 0 9.34165e-08)
(9.34886e-08 -1.24683e-09 0 9.10297e-08 0 9.37846e-08)
(9.40024e-08 -7.23101e-10 0 9.1201e-08 0 9.39676e-08)
(9.24804e-08 6.77047e-10 0 9.13889e-08 0 9.33342e-08)
(9.43989e-08 5.07181e-09 0 9.07085e-08 0 9.35329e-08)
(1.03644e-07 9.30079e-09 0 8.6887e-08 0 9.60872e-08)
(1.00035e-07 2.77519e-09 0 9.10255e-08 0 9.54039e-08)
(9.65708e-08 -4.01913e-09 0 1.02015e-07 0 9.77082e-08)
(9.62959e-08 -3.60965e-09 0 1.02648e-07 0 9.78609e-08)
(9.62881e-08 -3.25348e-09 0 1.02685e-07 0 9.79563e-08)
(9.65255e-08 -3.77252e-09 0 1.02199e-07 0 9.78976e-08)
(9.56945e-08 -3.49802e-09 0 1.01692e-07 0 9.73394e-08)
(9.52295e-08 -2.16277e-10 0 9.95035e-08 0 9.62003e-08)
(1.0074e-07 -1.81721e-09 0 9.42655e-08 0 9.659e-08)
(1.03572e-07 -8.36127e-09 0 9.04563e-08 0 9.67145e-08)
(9.34499e-08 -3.12134e-09 0 9.16968e-08 0 9.40604e-08)
(9.40215e-08 -2.12879e-09 0 9.15299e-08 0 9.42075e-08)
(9.36547e-08 -1.58731e-09 0 9.22546e-08 0 9.43989e-08)
(9.42649e-08 -5.73105e-10 0 9.21515e-08 0 9.44819e-08)
(9.46948e-08 -4.45851e-11 0 9.1276e-08 0 9.42522e-08)
(9.47635e-08 3.29181e-09 0 9.2023e-08 0 9.42887e-08)
(1.00615e-07 2.25777e-09 0 8.8473e-08 0 9.52951e-08)
(1.00064e-07 -4.50241e-10 0 9.1368e-08 0 9.57093e-08)
(9.71477e-08 -3.96238e-09 0 1.01909e-07 0 9.8058e-08)
(9.7094e-08 -3.4781e-09 0 1.02238e-07 0 9.81668e-08)
(9.6978e-08 -3.86829e-09 0 1.02249e-07 0 9.82124e-08)
(9.68873e-08 -2.4632e-09 0 1.01665e-07 0 9.79378e-08)
(9.69144e-08 -3.50142e-09 0 1.00574e-07 0 9.75652e-08)
(9.65084e-08 -1.89807e-09 0 9.89473e-08 0 9.6724e-08)
(1.01127e-07 -2.59584e-09 0 9.41496e-08 0 9.691e-08)
(1.02423e-07 -6.44249e-09 0 9.13785e-08 0 9.6683e-08)
(9.41711e-08 -2.92643e-09 0 9.24373e-08 0 9.46819e-08)
(9.46607e-08 -2.00106e-09 0 9.23614e-08 0 9.48202e-08)
(9.45252e-08 -1.72382e-09 0 9.26891e-08 0 9.49254e-08)
(9.48059e-08 -4.41776e-10 0 9.29024e-08 0 9.50035e-08)
(9.52875e-08 -3.4347e-10 0 9.23236e-08 0 9.49212e-08)
(9.51282e-08 2.0988e-09 0 9.33331e-08 0 9.50095e-08)
(9.99501e-08 1.28258e-09 0 9.01268e-08 0 9.56713e-08)
(1.00202e-07 -1.61267e-09 0 9.22563e-08 0 9.62222e-08)
(9.75872e-08 -3.92094e-09 0 1.01574e-07 0 9.82472e-08)
(9.75961e-08 -3.35299e-09 0 1.01739e-07 0 9.83086e-08)
(9.74765e-08 -3.77746e-09 0 1.01473e-07 0 9.82331e-08)
(9.74092e-08 -2.72534e-09 0 1.01033e-07 0 9.80284e-08)
(9.77688e-08 -3.34853e-09 0 9.96472e-08 0 9.76961e-08)
(9.73932e-08 -2.08138e-09 0 9.84914e-08 0 9.70916e-08)
(1.00806e-07 -2.30179e-09 0 9.44683e-08 0 9.7075e-08)
(1.01477e-07 -5.48964e-09 0 9.25311e-08 0 9.68564e-08)
(9.4851e-08 -2.87981e-09 0 9.30615e-08 0 9.52087e-08)
(9.51981e-08 -2.02249e-09 0 9.31047e-08 0 9.53265e-08)
(9.51334e-08 -1.92712e-09 0 9.32293e-08 0 9.5357e-08)
(9.5381e-08 -7.33931e-10 0 9.35581e-08 0 9.54781e-08)
(9.59829e-08 -8.1935e-10 0 9.29961e-08 0 9.54542e-08)
(9.59916e-08 7.38522e-10 0 9.39732e-08 0 9.56372e-08)
(9.94623e-08 1.52922e-10 0 9.16807e-08 0 9.60844e-08)
(9.98994e-08 -2.3172e-09 0 9.35182e-08 0 9.66834e-08)
(9.79342e-08 -3.91321e-09 0 1.01134e-07 0 9.83441e-08)
(9.79484e-08 -3.3877e-09 0 1.01216e-07 0 9.83732e-08)
(9.78505e-08 -3.71081e-09 0 1.00714e-07 0 9.8202e-08)
(9.7782e-08 -2.81804e-09 0 1.00403e-07 0 9.80561e-08)
(9.82428e-08 -3.24641e-09 0 9.89617e-08 0 9.77543e-08)
(9.80809e-08 -2.4314e-09 0 9.805e-08 0 9.73659e-08)
(1.0045e-07 -2.56275e-09 0 9.48625e-08 0 9.72381e-08)
(1.00694e-07 -4.91249e-09 0 9.36385e-08 0 9.70784e-08)
(9.54317e-08 -2.88747e-09 0 9.36328e-08 0 9.56519e-08)
(9.5695e-08 -2.20566e-09 0 9.37611e-08 0 9.57637e-08)
(9.57025e-08 -2.12136e-09 0 9.37347e-08 0 9.57461e-08)
(9.59613e-08 -1.18308e-09 0 9.41183e-08 0 9.59036e-08)
(9.65698e-08 -1.18903e-09 0 9.36063e-08 0 9.59026e-08)
(9.68222e-08 -3.57606e-10 0 9.45272e-08 0 9.61971e-08)
(9.91759e-08 -9.33172e-10 0 9.2998e-08 0 9.64851e-08)
(9.96321e-08 -2.85043e-09 0 9.46489e-08 0 9.70876e-08)
(9.81588e-08 -3.90489e-09 0 1.00667e-07 0 9.83682e-08)
(9.81758e-08 -3.46089e-09 0 1.00694e-07 0 9.83793e-08)
(9.81416e-08 -3.70601e-09 0 1.00028e-07 0 9.8164e-08)
(9.81322e-08 -2.9664e-09 0 9.97723e-08 0 9.80701e-08)
(9.85314e-08 -3.29455e-09 0 9.84244e-08 0 9.77862e-08)
(9.84369e-08 -2.88833e-09 0 9.78011e-08 0 9.75678e-08)
(1.00146e-07 -3.0683e-09 0 9.52034e-08 0 9.73827e-08)
(1.00121e-07 -4.43168e-09 0 9.45044e-08 0 9.72746e-08)
(9.59192e-08 -2.94586e-09 0 9.41674e-08 0 9.60257e-08)
(9.61139e-08 -2.38167e-09 0 9.43583e-08 0 9.61326e-08)
(9.62301e-08 -2.37176e-09 0 9.42325e-08 0 9.61091e-08)
(9.65032e-08 -1.68066e-09 0 9.46362e-08 0 9.62901e-08)
(9.70115e-08 -1.74053e-09 0 9.42439e-08 0 9.62966e-08)
(9.73794e-08 -1.22029e-09 0 9.51496e-08 0 9.66591e-08)
(9.91494e-08 -1.69689e-09 0 9.39757e-08 0 9.68493e-08)
(9.95654e-08 -3.13084e-09 0 9.5411e-08 0 9.74041e-08)
(9.82655e-08 -3.86358e-09 0 1.00192e-07 0 9.83316e-08)
(9.8278e-08 -3.47864e-09 0 1.00197e-07 0 9.83354e-08)
(9.82874e-08 -3.6614e-09 0 9.9472e-08 0 9.81135e-08)
(9.8338e-08 -3.12094e-09 0 9.92426e-08 0 9.80614e-08)
(9.87408e-08 -3.41497e-09 0 9.79479e-08 0 9.77992e-08)
(9.86693e-08 -2.95616e-09 0 9.75231e-08 0 9.76795e-08)
(9.98848e-08 -3.31749e-09 0 9.54196e-08 0 9.74731e-08)
(9.97346e-08 -4.14825e-09 0 9.51199e-08 0 9.74282e-08)
(9.63275e-08 -2.98752e-09 0 9.46684e-08 0 9.63392e-08)
(9.64758e-08 -2.51232e-09 0 9.49064e-08 0 9.64473e-08)
(9.66539e-08 -2.5616e-09 0 9.47514e-08 0 9.64332e-08)
(9.69036e-08 -2.03075e-09 0 9.51862e-08 0 9.66259e-08)
(9.74983e-08 -2.18586e-09 0 9.4731e-08 0 9.66437e-08)
(9.78211e-08 -1.87981e-09 0 9.56778e-08 0 9.70237e-08)
(9.91229e-08 -2.37176e-09 0 9.48214e-08 0 9.7158e-08)
(9.94863e-08 -3.46957e-09 0 9.59754e-08 0 9.76282e-08)
(9.82728e-08 -3.83614e-09 0 9.97192e-08 0 9.82486e-08)
(9.82947e-08 -3.46367e-09 0 9.97157e-08 0 9.82544e-08)
(9.83499e-08 -3.63098e-09 0 9.89762e-08 0 9.80486e-08)
(9.8412e-08 -3.19062e-09 0 9.88195e-08 0 9.80311e-08)
(9.88371e-08 -3.44456e-09 0 9.75593e-08 0 9.77913e-08)
(9.87673e-08 -3.2018e-09 0 9.72894e-08 0 9.77344e-08)
(9.95731e-08 -3.3983e-09 0 9.56418e-08 0 9.75249e-08)
(9.95001e-08 -4.14497e-09 0 9.55865e-08 0 9.75617e-08)
(9.66613e-08 -3.10912e-09 0 9.51519e-08 0 9.66053e-08)
(9.67993e-08 -2.68414e-09 0 9.53937e-08 0 9.67134e-08)
(9.70127e-08 -2.7692e-09 0 9.52485e-08 0 9.67173e-08)
(9.72298e-08 -2.35933e-09 0 9.57033e-08 0 9.6914e-08)
(9.78462e-08 -2.53589e-09 0 9.52346e-08 0 9.694e-08)
(9.81756e-08 -2.4759e-09 0 9.60961e-08 0 9.7304e-08)
(9.90662e-08 -2.78019e-09 0 9.54952e-08 0 9.73858e-08)
(9.94237e-08 -3.68442e-09 0 9.63218e-08 0 9.77613e-08)
(9.82322e-08 -3.76653e-09 0 9.92268e-08 0 9.81288e-08)
(9.82686e-08 -3.44888e-09 0 9.92278e-08 0 9.81435e-08)
(9.835e-08 -3.58616e-09 0 9.85175e-08 0 9.79617e-08)
(9.84156e-08 -3.23865e-09 0 9.84308e-08 0 9.79733e-08)
(9.8792e-08 -3.39188e-09 0 9.72759e-08 0 9.7754e-08)
(9.88107e-08 -3.35143e-09 0 9.70939e-08 0 9.7754e-08)
(9.93068e-08 -3.4373e-09 0 9.58262e-08 0 9.75555e-08)
(9.92792e-08 -4.02795e-09 0 9.59349e-08 0 9.76336e-08)
(9.69331e-08 -3.1771e-09 0 9.55884e-08 0 9.6822e-08)
(9.70676e-08 -2.8494e-09 0 9.58379e-08 0 9.6933e-08)
(9.73006e-08 -2.92339e-09 0 9.56876e-08 0 9.69463e-08)
(9.75146e-08 -2.65169e-09 0 9.61245e-08 0 9.71424e-08)
(9.80514e-08 -2.78429e-09 0 9.57043e-08 0 9.71624e-08)
(9.8397e-08 -2.88512e-09 0 9.63994e-08 0 9.74863e-08)
(9.90406e-08 -3.10343e-09 0 9.59257e-08 0 9.75339e-08)
(9.92956e-08 -3.82245e-09 0 9.65765e-08 0 9.78245e-08)
(9.81703e-08 -3.69868e-09 0 9.87611e-08 0 9.80018e-08)
(9.82082e-08 -3.42413e-09 0 9.87622e-08 0 9.80177e-08)
(9.82982e-08 -3.515e-09 0 9.8099e-08 0 9.78568e-08)
(9.8373e-08 -3.26856e-09 0 9.80567e-08 0 9.78869e-08)
(9.86865e-08 -3.36245e-09 0 9.70461e-08 0 9.76935e-08)
(9.87617e-08 -3.40971e-09 0 9.69737e-08 0 9.77392e-08)
(9.90728e-08 -3.49816e-09 0 9.60139e-08 0 9.75733e-08)
(9.90911e-08 -4.01664e-09 0 9.62063e-08 0 9.76729e-08)
(9.71824e-08 -3.24963e-09 0 9.59708e-08 0 9.70085e-08)
(9.73049e-08 -2.98742e-09 0 9.62168e-08 0 9.71141e-08)
(9.75253e-08 -3.05934e-09 0 9.60667e-08 0 9.71268e-08)
(9.77246e-08 -2.88809e-09 0 9.64624e-08 0 9.73071e-08)
(9.817e-08 -2.9886e-09 0 9.60811e-08 0 9.73158e-08)
(9.84937e-08 -3.16184e-09 0 9.66157e-08 0 9.75867e-08)
(9.89424e-08 -3.33338e-09 0 9.62182e-08 0 9.76024e-08)
(9.9118e-08 -3.88852e-09 0 9.67285e-08 0 9.78237e-08)
(9.81056e-08 -3.64866e-09 0 9.83357e-08 0 9.78807e-08)
(9.81435e-08 -3.42684e-09 0 9.83395e-08 0 9.78976e-08)
(9.82253e-08 -3.49485e-09 0 9.77418e-08 0 9.77558e-08)
(9.83113e-08 -3.30799e-09 0 9.77323e-08 0 9.77962e-08)
(9.85649e-08 -3.38446e-09 0 9.69056e-08 0 9.76428e-08)
(9.8671e-08 -3.44196e-09 0 9.69172e-08 0 9.7713e-08)
(9.88731e-08 -3.56521e-09 0 9.62035e-08 0 9.75825e-08)
(9.89261e-08 -3.98781e-09 0 9.64351e-08 0 9.76922e-08)
(9.73783e-08 -3.33041e-09 0 9.63124e-08 0 9.71624e-08)
(9.75e-08 -3.11899e-09 0 9.65442e-08 0 9.72632e-08)
(9.77066e-08 -3.19352e-09 0 9.63856e-08 0 9.7272e-08)
(9.78872e-08 -3.08319e-09 0 9.67166e-08 0 9.74259e-08)
(9.82364e-08 -3.19939e-09 0 9.63742e-08 0 9.74244e-08)
(9.85012e-08 -3.34652e-09 0 9.67712e-08 0 9.7634e-08)
(9.87953e-08 -3.49602e-09 0 9.64098e-08 0 9.76187e-08)
(9.89434e-08 -3.88625e-09 0 9.68004e-08 0 9.77915e-08)
(9.80395e-08 -3.62215e-09 0 9.79765e-08 0 9.77749e-08)
(9.80843e-08 -3.43637e-09 0 9.79846e-08 0 9.77952e-08)
(9.81564e-08 -3.49218e-09 0 9.74611e-08 0 9.76731e-08)
(9.82428e-08 -3.35778e-09 0 9.74904e-08 0 9.77217e-08)
(9.84567e-08 -3.42854e-09 0 9.68281e-08 0 9.76044e-08)
(9.8567e-08 -3.49724e-09 0 9.69283e-08 0 9.76918e-08)
(9.87442e-08 -3.62132e-09 0 9.63886e-08 0 9.76019e-08)
(9.8782e-08 -3.92916e-09 0 9.66254e-08 0 9.76994e-08)
(9.75379e-08 -3.40021e-09 0 9.65981e-08 0 9.72865e-08)
(9.76576e-08 -3.24712e-09 0 9.68061e-08 0 9.73806e-08)
(9.7841e-08 -3.31358e-09 0 9.66368e-08 0 9.73815e-08)
(9.79985e-08 -3.24028e-09 0 9.69087e-08 0 9.75104e-08)
(9.82711e-08 -3.35697e-09 0 9.65903e-08 0 9.74979e-08)
(9.84542e-08 -3.48313e-09 0 9.68791e-08 0 9.76489e-08)
(9.86579e-08 -3.61739e-09 0 9.65049e-08 0 9.76074e-08)
(9.87845e-08 -3.90262e-09 0 9.68486e-08 0 9.77567e-08)
(9.79749e-08 -3.5929e-09 0 9.76843e-08 0 9.76852e-08)
(9.80292e-08 -3.44895e-09 0 9.77044e-08 0 9.77123e-08)
(9.80987e-08 -3.50566e-09 0 9.72615e-08 0 9.76135e-08)