/*--------------------------------*- C++ -*----------------------------------*\
| =========                 |                                                 |
| \\      /  F ield         | OpenFOAM: The Open Source CFD Toolbox           |
|  \\    /   O peration     | Version:  v1912                                 |
|   \\  /    A nd           | Website:  www.openfoam.com                      |
|    \\/     M anipulation  |                                                 |
\*---------------------------------------------------------------------------*/
FoamFile
{
    version     2.0;
    format      ascii;
    class       volScalarField;
    location    "100";
    object      k;
}
// * * * * * * * * * * * * * * * * * * * * * * * * * * * * * * * * * * * * * //

dimensions      [0 2 -2 0 0 0 0];


internalField   nonuniform List<scalar> 
14268
(
0.00877117
0.00917094
0.00978153
0.0106262
0.0113119
0.0117983
0.0123775
0.0127103
0.0123027
0.011332
0.0110277
0.0106268
0.00983675
0.00665544
0.00285805
0.0187534
0.0408285
0.0494472
0.0228245
0.00583944
0.00111927
0.000253685
0.000143038
0.000219385
0.000458533
0.000867501
0.00197236
0.00359703
0.00630973
0.0119821
0.0207794
0.0332786
0.0490018
0.0723037
0.107651
0.115783
0.114425
0.135077
0.220597
0.258346
0.146938
0.0257176
0.0119433
0.0133834
0.0140758
0.0115526
0.0108064
0.0123876
0.00849728
0.00430687
0.0036864
0.00558002
0.0192883
0.0365374
0.025086
0.0273918
0.0419868
0.0535474
0.064376
0.0970972
0.158036
0.294705
0.384404
0.443738
0.417687
0.247827
0.0407006
0.00440489
0.00118066
0.00224151
0.00619264
0.00978451
0.0090995
0.00678319
0.00415887
0.00491961
0.0110017
0.0366566
0.0939326
0.122685
0.0968943
0.0307553
0.00488915
0.000972048
0.000408552
0.000371649
0.000444151
0.000508524
0.000404626
0.000306618
0.000333038
0.00046671
0.000745551
0.000966089
0.00111404
0.00133796
0.00164336
0.00251095
0.0058492
0.0193825
0.0121085
0.00604851
0.004006
0.00316578
0.00675678
0.0161808
0.0221549
0.028607
0.0332573
0.0347949
0.0370279
0.0314696
0.0259902
0.0225021
0.0200075
0.019118
0.0188063
0.0172681
0.0140209
0.0129377
0.0118107
0.0104303
0.0077425
0.0078462
0.00771251
0.00707851
0.00644211
0.00579628
0.00376516
0.00121691
0.000745257
0.00131267
0.00152786
0.00105191
0.000446156
0.000309722
0.000400147
0.000806978
0.00164189
0.00196651
0.00184664
0.00155418
0.00162455
0.00223079
0.00421886
0.00793093
0.0131726
0.0134869
0.0107131
0.00620373
0.0196885
0.0207208
0.0221499
0.0243053
0.0265232
0.0285704
0.0309864
0.0334359
0.0344324
0.0315942
0.0302479
0.0290598
0.0269876
0.0171662
0.00262397
0.0607167
0.166651
0.333682
0.18943
0.0473962
0.00882289
3.28527e-05
4.02256e-06
8.56504e-06
4.11554e-05
5.04697e-05
0.000107719
0.000977283
0.00648626
0.0186058
0.0292537
0.0400838
0.0457493
0.0434999
0.038358
0.0470788
0.0713161
0.110679
0.254036
0.695355
0.5777
0.105456
0.074239
0.120048
0.176446
0.172187
0.122848
0.13095
0.0652464
0.0215418
0.0137458
0.0180674
0.0473524
0.105023
0.0930514
0.101467
0.106373
0.0984058
0.106297
0.190648
0.400649
0.605253
0.708356
0.9037
1.1906
0.803323
0.155163
0.0119596
0.00229488
0.012992
0.0322325
0.0473625
0.0447208
0.0328271
0.0206772
0.0217751
0.0479888
0.173881
0.530116
0.681435
0.568462
0.178413
0.0360486
0.00622277
0.0029683
0.00366861
0.00593144
0.0107663
0.00816177
0.00313309
0.00209408
0.00266355
0.00688124
0.0142562
0.0146467
0.0174176
0.0168668
0.0181033
0.0266018
0.0619307
0.0475252
0.023129
0.0167804
0.0138049
0.024323
0.0544554
0.0731613
0.0943956
0.112717
0.12066
0.129846
0.11016
0.0907056
0.0771483
0.0660734
0.0619873
0.0618606
0.0593659
0.0493554
0.0460086
0.0423986
0.0380165
0.0288427
0.028754
0.029058
0.0283899
0.0266322
0.0238741
0.0154694
0.00575752
0.00320096
0.00606058
0.00773517
0.0056412
0.00296166
0.00227269
0.00270541
0.00430608
0.00743243
0.0086793
0.00828606
0.00722119
0.00735094
0.00932608
0.0158845
0.0280352
0.0442853
0.0450487
0.0369747
0.0228766
0.0102673
0.0118324
0.0144664
0.0175564
0.0206828
0.0248657
0.029632
0.0357005
0.041191
0.0375857
0.032431
0.0269454
0.0239494
0.0293486
0.00817746
0.150695
0.408376
0.468213
0.565162
0.295322
0.0980933
0.00718147
0.000554259
0.0168281
0.0366208
0.0291161
0.0140644
0.00451771
0.00162848
0.00155915
0.0027363
0.0052661
0.00678205
0.00705993
0.0118434
0.0308725
0.0595398
0.105958
0.228188
0.492859
0.525082
0.195606
0.256082
0.450384
0.687468
0.747428
0.670713
0.476645
0.16427
0.0365413
0.023301
0.0324837
0.0659237
0.116625
0.168792
0.176049
0.0814295
0.0717143
0.0804979
0.158847
0.330388
0.512379
0.673188
0.934072
1.32607
1.23448
0.322525
0.021134
0.015602
0.0498344
0.0813466
0.0857299
0.0849728
0.0838818
0.0549215
0.0423626
0.109307
0.431097
1.01045
1.19688
1.12583
0.552661
0.178446
0.0954523
0.075884
0.0602515
0.0635859
0.0630698
0.0493504
0.0259163
0.0193436
0.025127
0.0768955
0.153223
0.160121
0.135198
0.0567729
0.0476388
0.0620671
0.10941
0.0867183
0.0435393
0.0320115
0.0253368
0.0408066
0.0883213
0.118003
0.151131
0.185652
0.202734
0.214907
0.177846
0.142776
0.11175
0.0912924
0.0846903
0.0871851
0.0905644
0.0789643
0.0750868
0.0698464
0.0625202
0.0472347
0.0463784
0.0487699
0.0501958
0.0496445
0.0459383
0.0315095
0.0103313
0.00412857
0.00800897
0.0133964
0.0103555
0.0064138
0.00497153
0.0055859
0.00831059
0.0133721
0.0154501
0.0146963
0.0129224
0.0130152
0.015996
0.0258912
0.0438041
0.0674044
0.0684603
0.0566014
0.0364222
0.00379484
0.00433228
0.00609419
0.0113316
0.0127445
0.0173535
0.0204016
0.0253687
0.0355414
0.0305686
0.0161954
0.00754352
0.00460908
0.021721
0.042384
0.280961
0.46653
0.381491
0.419494
0.573646
0.326887
0.086359
0.00749358
0.0957933
0.0761599
0.0360363
0.0021466
0.000573392
0.00090746
0.000365106
0.00029652
0.000224669
0.00075591
0.000603269
0.00190393
0.0049346
0.0163115
0.0461902
0.13379
0.317417
0.61507
0.418484
0.526621
0.570115
0.712067
0.83932
0.913596
0.718628
0.321325
0.105829
0.0897452
0.107188
0.145193
0.110487
0.139397
0.12913
0.0677503
0.136728
0.150802
0.09299
0.199398
0.396027
0.586828
0.87451
1.26536
1.44366
0.563915
0.0789504
0.0694873
0.142643
0.231939
0.188039
0.121083
0.105761
0.109705
0.143377
0.262026
0.659741
1.20979
1.39611
1.38621
0.949974
0.500949
0.267285
0.18931
0.136996
0.0912167
0.0709605
0.0687119
0.0476354
0.0247432
0.0461151
0.16069
0.278505
0.273607
0.221363
0.0869928
0.0556069
0.057404
0.0951401
0.112331
0.0611698
0.0456563
0.0379716
0.0580503
0.119125
0.156316
0.199348
0.247443
0.269878
0.277158
0.216073
0.152084
0.102257
0.0793175
0.0712142
0.0755697
0.089074
0.0910968
0.0976712
0.0929982
0.0826322
0.0612032
0.059087
0.0621042
0.0645947
0.0648302
0.0620069
0.047938
0.0195795
0.00580503
0.00696405
0.0138763
0.0141801
0.0104212
0.0084756
0.00923848
0.01256
0.0184946
0.021012
0.0199099
0.0177915
0.0180302
0.0218707
0.0338457
0.0548905
0.0818164
0.0825332
0.0693307
0.0463587
0.000514316
0.000684517
0.00350243
0.0204718
0.0109655
0.0164291
0.01848
0.0205262
0.0449849
0.0600049
0.0415269
0.0207304
0.00502558
0.00946056
0.0384336
0.282685
0.425776
0.311935
0.346393
0.357793
0.337291
1.24799
0.171532
0.219041
0.0803236
0.00602236
0.0015926
0.01422
0.0397554
0.0448587
0.0171134
0.0234217
0.0760052
0.0609978
0.0606056
0.0159166
0.00764078
0.0116652
0.056545
0.181779
0.332729
0.642535
0.636116
0.566196
0.679358
0.792385
0.918957
0.830035
0.514432
0.323859
0.318127
0.304372
0.31452
0.133542
0.0974491
0.0862591
0.135535
0.670896
0.729805
0.136645
0.115933
0.305431
0.512652
0.792036
1.144
1.36457
0.759665
0.161762
0.150274
0.295232
0.409611
0.360098
0.209575
0.106831
0.136481
0.267018
0.412766
0.821245
1.38962
1.57277
1.58352
1.14845
0.617227
0.328568
0.228491
0.162286
0.147123
0.172365
0.202526
0.186612
0.0885335
0.05418
0.171261
0.304171
0.33839
0.301541
0.156143
0.073959
0.0720649
0.0863329
0.121257
0.083598
0.0615507
0.0510435
0.0742606
0.146032
0.1907
0.245498
0.312338
0.341309
0.335432
0.225447
0.127651
0.0721213
0.0502599
0.0419459
0.0452784
0.0581858
0.0788102
0.114778
0.117329
0.103485
0.0745495
0.0681376
0.0713457
0.0748692
0.0765715
0.0747564
0.0613258
0.0307779
0.00958302
0.00749357
0.0127671
0.0173238
0.0142596
0.0119738
0.0128383
0.016484
0.0230187
0.0259973
0.024869
0.0226411
0.0229775
0.0273578
0.0403033
0.0634525
0.0934535
0.0941707
0.0789641
0.0538762
0.000920909
0.000980137
0.0143003
0.0596392
0.0300373
0.0353643
0.0414157
0.0387919
0.077753
0.140227
0.110276
0.0830631
0.00931907
0.00163794
0.0184896
0.208507
0.359924
0.235298
0.256829
0.231754
0.273815
2.13281
1.00846
0.393637
0.211108
0.044867
0.0324101
0.104637
0.319834
0.450918
0.336444
0.366336
0.559454
0.612729
0.388346
0.0805521
0.00870096
0.0117568
0.032651
0.139072
0.295811
0.6489
0.787211
0.74894
0.807661
0.764844
0.869556
0.802366
0.717011
0.642758
0.676706
0.69385
0.561453
0.219611
0.0527237
0.0322431
0.303103
1.1454
1.35505
0.552164
0.0659536
0.229318
0.452917
0.730711
1.0374
1.15291
0.799732
0.221067
0.225144
0.416702
0.557832
0.578003
0.422879
0.152881
0.141245
0.298191
0.519936
1.01905
1.63541
1.77547
1.82597
1.37367
0.70975
0.356865
0.256202
0.21954
0.303951
0.415189
0.473321
0.436067
0.263498
0.056762
0.124875
0.249974
0.299746
0.300486
0.211073
0.101832
0.0970729
0.0800708
0.112722
0.104745
0.0760764
0.0627944
0.0875396
0.167241
0.216668
0.282357
0.365803
0.399428
0.363111
0.205012
0.0925153
0.05055
0.0411309
0.0323665
0.034971
0.0422372
0.0654389
0.119904
0.136018
0.120362
0.0835078
0.0695409
0.0723176
0.0773543
0.0818463
0.0824951
0.0713311
0.0408107
0.0171173
0.0130602
0.0165925
0.0208025
0.0175446
0.0149157
0.0158504
0.0196967
0.0266474
0.0300703
0.0292194
0.0271796
0.0276075
0.032143
0.0446609
0.0694451
0.103208
0.104119
0.086354
0.0587744
0.00793523
0.125407
0.110168
0.122426
0.102703
0.110163
0.126265
0.149033
0.221682
0.404299
0.587145
0.777656
0.384921
0.113921
0.035392
0.130884
0.294958
0.175331
0.17984
0.148479
0.255445
1.60308
1.97909
1.25678
0.40634
0.0991044
0.151109
0.189294
0.324603
0.49986
0.586265
0.60038
0.903265
1.00107
0.814442
0.247859
0.0211754
0.0119521
0.0890159
0.341064
0.593617
0.770136
1.0854
1.22293
1.21907
0.856437
0.817944
0.769916
0.91905
0.89293
0.885149
1.04656
0.945284
0.419115
0.0507671
0.0528747
0.743326
1.58827
1.7972
0.947623
0.0812941
0.156484
0.364298
0.617902
0.869117
0.943922
0.862366
0.261481
0.277588
0.513684
0.675752
0.745537
0.673884
0.314487
0.155671
0.292937
0.573809
1.26435
1.93657
2.01265
2.11265
1.65951
0.820361
0.370532
0.300515
0.320782
0.495481
0.646395
0.697762
0.62992
0.439525
0.115829
0.0802198
0.164299
0.211836
0.214194
0.181518
0.149974
0.127438
0.0957124
0.0973899
0.115808
0.092407
0.0750313
0.0994094
0.185865
0.240549
0.317597
0.421627
0.461972
0.389426
0.182765
0.0687484
0.0477456
0.0513674
0.0515498
0.0586268
0.0639203
0.0757384
0.124418
0.14821
0.130046
0.0837569
0.0642778
0.0676883
0.0743165
0.0806446
0.0840431
0.0780727
0.0496347
0.0262284
0.0222164
0.024408
0.0257417
0.0205118
0.0174719
0.0184828
0.0223739
0.0290547
0.0327169
0.0323848
0.0309929
0.031603
0.0360608
0.0481857
0.0762372
0.114937
0.116216
0.0956679
0.063227
0.0511379
0.505122
0.814595
1.01316
0.796922
0.700653
0.578921
0.514803
0.553546
0.734774
1.1566
1.52366
1.06221
0.284878
0.0689373
0.0661716
0.220245
0.110809
0.114347
0.0978906
0.333795
1.61803
2.6783
2.22582
0.879586
0.135338
0.107499
0.111005
0.215126
0.39229
0.613341
0.743978
1.13132
1.28497
1.23967
0.557752
0.0676015
0.0126827
0.0871241
0.254871
0.63805
1.00832
1.40579
1.56151
1.56738
1.1057
0.829565
0.819402
1.12742
0.896287
0.74107
1.01545
1.25294
0.71797
0.156231
0.229251
1.35499
1.86792
2.10696
1.27928
0.124096
0.087317
0.265996
0.504898
0.692861
0.741457
0.861341
0.289615
0.316249
0.578611
0.727995
0.83623
0.86622
0.546527
0.223695
0.289744
0.573905
1.36675
2.13141
2.17037
2.31439
1.85431
0.923118
0.379818
0.328022
0.415723
0.645537
0.777786
0.764467
0.642982
0.469564
0.204652
0.0636608
0.0937709
0.126569
0.12916
0.122086
0.158289
0.166593
0.115899
0.0714251
0.0861308
0.0999012
0.0869626
0.108453
0.195887
0.25163
0.341685
0.46845
0.513479
0.407222
0.165617
0.0593538
0.0514838
0.0552571
0.0520916
0.0610538
0.0699981
0.0895563
0.138445
0.158744
0.136529
0.0832195
0.0645564
0.0711501
0.0789821
0.0849627
0.0885826
0.083631
0.0568934
0.0356639
0.0320024
0.0331072
0.0310455
0.0230789
0.0193841
0.0198344
0.0230815
0.0296036
0.0335115
0.033806
0.0336963
0.0345563
0.0385926
0.0519738
0.0835873
0.125248
0.126496
0.104699
0.0682872
0.0818347
0.969363
1.51785
1.39448
0.892195
0.742969
0.603428
0.518431
0.535455
0.674251
1.11302
1.64293
1.40649
0.358744
0.0669188
0.0493987
0.14008
0.0521536
0.0648781
0.0950269
0.485162
1.80918
3.05867
2.74716
1.3337
0.182582
0.0759979
0.0873921
0.147575
0.285285
0.594975
0.843474
1.15587
1.39938
1.58515
0.923213
0.149775
0.0160745
0.0431822
0.162002
0.521881
1.21122
1.6016
1.71068
1.79096
1.41389
1.02822
1.05741
1.19366
0.703408
0.570927
0.864125
1.24675
1.11341
0.451097
0.634105
1.75144
1.85068
2.28827
1.58279
0.2416
0.0695401
0.180284
0.385886
0.541827
0.596771
0.635951
0.293494
0.348245
0.608632
0.70798
0.838157
0.970854
0.739633
0.383404
0.344909
0.603619
1.43739
2.29862
2.3614
2.51559
2.01613
1.04643
0.394616
0.330442
0.467693
0.730112
0.79422
0.707929
0.559837
0.388843
0.19744
0.0814329
0.0652943
0.0716421
0.0793888
0.0885615
0.164972
0.209348
0.130469
0.0555655
0.0491449
0.0880365
0.093956
0.111526
0.198405
0.245565
0.352877
0.516509
0.566243
0.412983
0.149578
0.0641272
0.0679009
0.0716588
0.0580731
0.0501751
0.0602616
0.0902248
0.154116
0.179825
0.15374
0.0944176
0.075858
0.085028
0.0928547
0.0973137
0.0995664
0.0899538
0.0626709
0.0436208
0.0411492
0.0412387
0.0361693
0.0255201
0.0210885
0.0205878
0.0232011
0.0304074
0.034811
0.034963
0.0351282
0.0358754
0.0400445
0.0559959
0.091608
0.135154
0.13625
0.113498
0.0746093
0.0758102
1.39075
1.65798
1.46941
0.834856
0.671481
0.543244
0.454382
0.460218
0.583964
0.986265
1.50267
1.50831
0.312001
0.0747162
0.0909722
0.068171
0.0272524
0.035303
0.1166
0.696636
1.9802
3.36511
3.10519
1.68745
0.237335
0.120996
0.316091
0.302967
0.205409
0.459815
0.670581
1.00256
1.27725
1.7262
1.28129
0.433147
0.0305244
0.0232395
0.0734361
0.382558
1.10031
1.53711
1.64218
1.76496
1.656
1.34597
1.31203
1.10432
0.58637
0.471181
0.74542
1.14938
1.29139
0.718611
0.969132
1.76031
1.6702
2.21884
1.76819
0.405033
0.0713364
0.107016
0.263044
0.391725
0.439126
0.426517
0.288429
0.378736
0.654983
0.687737
0.795416
0.999987
0.887078
0.58555
0.530802
0.732655
1.59407
2.35643
2.3806
2.62122
2.20376
1.23949
0.461883
0.349394
0.450963
0.732631
0.74893
0.620312
0.457883
0.281181
0.126908
0.0637415
0.067506
0.0734676
0.0820556
0.0905785
0.191597
0.238269
0.151384
0.0487947
0.0278547
0.0649394
0.0782228
0.110236
0.207064
0.227108
0.341362
0.549229
0.606851
0.387305
0.120895
0.0677184
0.0886924
0.097908
0.0831285
0.057433
0.0474352
0.0776311
0.147958
0.195083
0.17377
0.109566
0.0878161
0.0968178
0.104464
0.107789
0.109191
0.0965591
0.0665254
0.0486524
0.0485604
0.0482461
0.0408286
0.0279302
0.0231629
0.0222891
0.0249609
0.0329522
0.0378095
0.0369511
0.0354603
0.0360139
0.040954
0.0600354
0.09893
0.143399
0.144295
0.120825
0.0808299
0.0507053
1.68142
1.54094
1.37708
0.984212
0.807703
0.616526
0.448291
0.379635
0.48473
0.874999
1.38512
1.54488
0.278952
0.035104
0.147087
0.0447927
0.0178285
0.0334611
0.132607
0.752093
2.17117
3.62478
3.40109
2.0056
0.357015
0.182648
0.578373
0.70096
0.206062
0.361361
0.576077
0.87975
1.14549
1.67445
1.58087
0.783923
0.11265
0.0226904
0.0263179
0.256756
0.924506
1.4016
1.52406
1.67119
1.72453
1.55011
1.37705
1.03904
0.645245
0.610658
0.650585
1.04153
1.27016
0.936288
1.24809
1.64994
1.55593
2.11251
1.85841
0.559895
0.0772926
0.0677702
0.156969
0.256089
0.290912
0.331709
0.287554
0.407246
0.734347
0.73306
0.742266
0.999868
0.990525
0.772814
0.778067
0.988892
1.84893
2.28083
2.25745
2.59326
2.34509
1.41226
0.570304
0.420424
0.46077
0.705692
0.669809
0.517805
0.343554
0.181428
0.0902979
0.074887
0.0751065
0.0848502
0.100444
0.0974871
0.213711
0.26388
0.164431
0.0619335
0.0235425
0.0411233
0.0544636
0.113094
0.226114
0.227031
0.308157
0.566526
0.603639
0.343219
0.0954766
0.0770954
0.107831
0.118997
0.107672
0.0873372
0.0537676
0.0649168
0.129616
0.189118
0.185159
0.120896
0.0972894
0.107317
0.11475
0.117028
0.117856
0.103926
0.0673866
0.0493392
0.0531009
0.0541365
0.0452981
0.0302823
0.0253981
0.0247181
0.0276711
0.036064
0.0412185
0.0396521
0.0361941
0.0363242
0.0422878
0.0644013
0.106006
0.150624
0.151192
0.127387
0.0866176
0.300675
1.70619
1.37196
1.23615
1.1648
1.469
1.14685
0.70276
0.381822
0.363451
0.738282
1.2641
1.51956
0.200843
0.0444122
0.288001
0.0437504
0.0328221
0.0308647
0.153551
0.7956
2.30184
3.83085
3.6368
2.26396
0.507236
0.274975
0.826704
1.00033
0.358108
0.239091
0.435519
0.747347
1.06857
1.60837
1.72904
1.13513
0.398017
0.111349
0.0806944
0.16085
0.783809
1.24386
1.36606
1.54671
1.67202
1.57365
1.37026
1.05608
1.10351
1.26215
0.743533
0.929446
1.20643
1.07539
1.37493
1.48557
1.42914
1.98933
1.8662
0.742736
0.0903597
0.0589085
0.077869
0.14615
0.215843
0.282876
0.28888
0.433342
0.815108
0.836579
0.688059
0.916625
0.989829
0.934167
0.990845
1.2653
1.97797
2.1284
2.08281
2.47957
2.38164
1.51055
0.654403
0.513927
0.557541
0.643072
0.579664
0.421832
0.25381
0.133771
0.122344
0.0997779
0.0898879
0.100478
0.127234
0.112601
0.210108
0.272977
0.174388
0.0787876
0.0297903
0.0267524
0.0449004
0.120983
0.243341
0.248939
0.263067
0.528795
0.542432
0.284585
0.0835178
0.0938596
0.123055
0.135606
0.125979
0.111259
0.0786862
0.0650216
0.108484
0.166323
0.169619
0.112373
0.102431
0.115054
0.121565
0.122097
0.122884
0.110417
0.0684164
0.044614
0.0504259
0.0541813
0.0475473
0.0323579
0.0275818
0.027249
0.0302934
0.038537
0.0439414
0.0425329
0.0383076
0.0375593
0.0446004
0.0689679
0.112072
0.155843
0.156099
0.132427
0.0911826
0.698668
1.58083
1.19741
1.10977
1.12871
1.71493
1.63147
1.24128
0.740325
0.279376
0.603506
1.11032
1.46508
0.196562
0.154365
0.695878
0.393931
0.384793
0.262706
0.422357
1.02618
2.40333
4.0048
3.83868
2.49245
0.665094
0.41728
1.11275
1.29903
0.734071
0.156015
0.319987
0.703368
1.14386
1.60054
1.76268
1.38604
0.723894
0.483784
0.339362
0.168782
0.667512
1.09106
1.20718
1.39833
1.56606
1.51525
1.3461
1.22184
1.61701
1.70272
1.3534
0.811717
1.13313
1.17833
1.44081
1.3695
1.29571
1.85337
1.81504
0.876716
0.12305
0.0441061
0.0617949
0.107863
0.200782
0.259826
0.292504
0.457286
0.880324
0.928393
0.657668
0.818177
0.956853
1.05261
1.18151
1.45674
1.97526
1.95339
1.94628
2.35732
2.33723
1.55454
0.718381
0.601142
0.654838
0.58509
0.499836
0.346793
0.218471
0.177192
0.154776
0.114095
0.101306
0.111616
0.151854
0.130442
0.190248
0.263585
0.183216
0.0946935
0.0405136
0.0288783
0.0491994
0.13081
0.259575
0.271756
0.238648
0.454854
0.469434
0.230705
0.085448
0.114792
0.138216
0.150776
0.141881
0.130967
0.103438
0.0837702
0.0993762
0.140358
0.14029
0.096708
0.105686
0.11891
0.123581
0.122712
0.12322
0.114053
0.0723193
0.0383102
0.0423541
0.0470675
0.0423597
0.0326108
0.0297292
0.0296932
0.032428
0.0403249
0.0459759
0.0450896
0.0411802
0.0403507
0.0482959
0.0738232
0.117483
0.160448
0.16056
0.136582
0.0943175
0.935009
1.39151
1.02599
0.965776
1.06437
1.70863
1.98095
1.57953
1.07945
0.320947
0.492862
0.972429
1.36266
0.275202
0.255764
0.956556
0.966858
0.861914
0.737311
0.848856
1.37348
2.56722
4.14785
4.00563
2.6851
0.80485
0.578379
1.36885
1.52748
1.0393
0.141757
0.241688
0.827783
1.39365
1.69097
1.80507
1.55094
0.975384
0.707851
0.375863
0.20423
0.5581
0.938271
1.05255
1.25156
1.42494
1.39874
1.28992
1.51785
2.02888
2.07739
1.87768
0.731698
0.985355
1.14834
1.367
1.27616
1.21743
1.731
1.69194
0.86995
0.19395
0.0518024
0.0550458
0.0995956
0.183391
0.244566
0.294466
0.473823
0.907392
0.962443
0.672295
0.718112
0.839628
1.05512
1.30504
1.51802
1.8726
1.78228
1.79952
2.22622
2.26902
1.53271
0.742116
0.655321
0.649141
0.534693
0.436732
0.300333
0.227348
0.217943
0.179548
0.116674
0.104992
0.113791
0.164044
0.153619
0.163564
0.231906
0.189445
0.108652
0.0511146
0.0368248
0.0570767
0.139952
0.273421
0.291224
0.247883
0.372183
0.387035
0.184023
0.0984202
0.133046
0.151691
0.163741
0.155073
0.1439
0.118632
0.105729
0.110655
0.125805
0.123169
0.0939032
0.107967
0.119118
0.12312
0.121713
0.121627
0.11451
0.0769665
0.0364214
0.0338437
0.03702
0.0337985
0.0316783
0.0318652
0.032053
0.0343074
0.0422362
0.0477945
0.0470807
0.0437645
0.0438708
0.0524762
0.078497
0.12185
0.164767
0.164623
0.139822
0.0966806
1.09708
1.11528
0.772025
0.760644
0.953627
1.60654
2.16257
2.02845
1.47669
0.535202
0.388492
0.794104
1.23175
0.297745
0.344821
1.33895
1.47006
1.24212
1.17995
1.32039
1.77157
2.83981
4.29964
4.2112
2.94742
1.03215
0.878807
1.76384
1.89529
1.47614
0.365804
0.371671
1.21922
1.67271
1.91634
1.91269
1.66047
1.09476
0.747525
0.270811
0.149159
0.409635
0.718487
0.834817
1.04428
1.2049
1.19197
1.21176
1.99137
2.49072
2.42468
2.52402
0.73358
0.794578
0.7989
1.01494
1.08729
1.11278
1.56806
1.49889
0.726336
0.254848
0.0656672
0.0666569
0.0972123
0.171426
0.236726
0.295149
0.482497
0.894319
0.908385
0.69525
0.583342
0.676852
1.00117
1.28675
1.43177
1.65097
1.52988
1.5784
2.02403
2.16178
1.48473
0.674092
0.570478
0.551984
0.43574
0.338536
0.262108
0.28266
0.272123
0.20881
0.11472
0.104612
0.120901
0.186276
0.183441
0.140651
0.176001
0.188098
0.127982
0.0653069
0.0477864
0.0674542
0.152291
0.288883
0.310781
0.27827
0.274482
0.272946
0.132091
0.12448
0.159317
0.171875
0.182168
0.171003
0.151176
0.122077
0.127253
0.142388
0.136653
0.131508
0.105709
0.112225
0.120823
0.12547
0.122334
0.12
0.112937
0.082996
0.0406301
0.0257531
0.025576
0.0262632
0.0312695
0.0343384
0.0347937
0.036897
0.0456928
0.0509367
0.0493101
0.046554
0.0484634
0.0583512
0.0849644
0.127959
0.172188
0.171686
0.145052
0.101311
1.03599
0.83502
0.527367
0.485852
0.764286
1.41064
1.99936
2.31295
1.76374
0.769577
0.356092
0.576465
0.840198
0.236792
0.604312
1.6975
1.63638
1.19284
1.15322
1.38763
1.96005
2.97961
4.25712
4.28696
3.18421
1.28242
1.20132
2.14401
2.21931
1.73729
0.721699
0.815919
1.21869
1.57762
1.88165
1.95738
1.54463
0.901131
0.575767
0.141419
0.0729161
0.234151
0.448611
0.547
0.810398
1.00969
1.04147
1.304
2.44664
2.77431
2.72388
2.9126
1.24381
0.550584
0.54258
0.706692
0.81182
0.953326
1.34196
1.21862
0.503538
0.169675
0.14453
0.125625
0.138282
0.209401
0.258392
0.298894
0.447955
0.719479
0.70817
0.546223
0.415521
0.464345
0.69753
0.966151
1.06688
1.23994
1.15393
1.28822
1.72301
1.93404
1.46319
0.603705
0.40361
0.374006
0.287483
0.214901
0.213524
0.301914
0.320277
0.237748
0.114636
0.102761
0.12496
0.206722
0.227182
0.159335
0.134146
0.177545
0.148325
0.0812896
0.0586973
0.0784748
0.163294
0.287261
0.298793
0.301447
0.24119
0.196914
0.125089
0.143513
0.173678
0.18502
0.19199
0.174841
0.131256
0.0928868
0.119117
0.171171
0.183527
0.17236
0.129642
0.125055
0.133248
0.138979
0.133248
0.126558
0.11453
0.088078
0.0499872
0.0305184
0.0267854
0.0267879
0.0304121
0.0334274
0.0340255
0.0376759
0.0501397
0.0561039
0.052918
0.0488125
0.0513731
0.0633225
0.0905876
0.135358
0.183114
0.182199
0.152924
0.108378
0.839049
0.614737
0.542399
0.2906
0.563143
1.19294
1.77367
2.22067
2.05092
0.967132
0.37344
0.475117
0.594147
0.218295
0.933237
1.9222
1.56702
0.994402
0.934287
1.17232
1.7772
2.81489
4.03417
4.21965
3.32502
1.5069
1.51942
2.49481
2.58249
2.17187
0.963662
0.636949
0.979008
1.42721
1.79002
1.93156
1.45468
0.688404
0.395757
0.103088
0.0700739
0.127407
0.236672
0.312644
0.538983
0.743578
0.812637
1.20613
2.3302
2.52372
2.49863
2.88464
2.05999
0.450659
0.307709
0.438547
0.575844
0.800545
1.12818
1.00117
0.389031
0.117096
0.164693
0.202078
0.222346
0.258926
0.289312
0.31635
0.402355
0.538057
0.518031
0.37902
0.26946
0.283755
0.463963
0.692983
0.774335
0.937258
0.847097
0.979106
1.43714
1.6148
1.32268
0.628339
0.316551
0.232177
0.175626
0.155193
0.1581
0.250866
0.333444
0.258341
0.127227
0.101925
0.125269
0.21837
0.248396
0.212234
0.152834
0.187572
0.168596
0.0955297
0.0684663
0.0883549
0.168848
0.26908
0.272943
0.304367
0.2729
0.226215
0.156484
0.13467
0.157551
0.17538
0.178517
0.17902
0.131437
0.0711462
0.100189
0.182873
0.228574
0.212266
0.152077
0.137223
0.143834
0.152714
0.14919
0.141011
0.124084
0.0928312
0.0576785
0.0391925
0.0334962
0.031468
0.0304817
0.0309312
0.0315883
0.0383572
0.0540479
0.0607315
0.0575232
0.0524388
0.0538337
0.0664302
0.0947709
0.143486
0.193585
0.19235
0.161611
0.115539
0.649995
0.478228
0.905535
0.313567
0.363176
0.94593
1.52337
1.94996
2.05548
1.06836
0.307153
0.475105
0.41618
0.293875
1.18195
1.87766
1.36958
0.760603
0.673684
0.899241
1.49815
2.53408
3.73714
4.05677
3.38007
1.73781
1.77438
2.67927
2.81213
2.57343
1.19781
0.451003
0.73536
1.18917
1.56604
1.71905
1.36959
0.549885
0.290713
0.157711
0.0687782
0.0999818
0.133654
0.153146
0.308246
0.47311
0.542381
0.9429
2.03626
2.20351
2.26346
2.67153
2.55116
0.846071
0.166252
0.229592
0.397227
0.626923
0.910612
0.798272
0.376509
0.102288
0.119936
0.195032
0.268201
0.296789
0.316179
0.338156
0.37626
0.424771
0.404043
0.291995
0.183588
0.162118
0.274925
0.447798
0.525442
0.709806
0.607353
0.723195
1.12279
1.24158
1.02789
0.645341
0.342924
0.18056
0.1717
0.175239
0.151582
0.197397
0.30829
0.27104
0.145402
0.0991715
0.123085
0.201333
0.241306
0.229849
0.185548
0.20092
0.183913
0.107669
0.0774603
0.0974762
0.173903
0.266957
0.264913
0.278295
0.297126
0.265529
0.156288
0.0974273
0.111288
0.135628
0.163815
0.196155
0.162406
0.0787651
0.0777256
0.178696
0.260441
0.247016
0.167141
0.132523
0.136597
0.149795
0.156934
0.153785
0.137128
0.100336
0.0626926
0.0456057
0.0399738
0.0374919
0.0344432
0.0317749
0.0324584
0.040766
0.0557396
0.0621178
0.0606102
0.0571064
0.0574716
0.0698761
0.099829
0.151533
0.20182
0.200252
0.168346
0.118717
0.542708
0.422606
1.32683
0.73026
0.237066
0.685629
1.25026
1.67835
1.8448
1.17309
0.207957
0.490971
0.383952
0.411672
1.43079
1.64998
1.14295
0.546535
0.448099
0.643251
1.20838
2.25228
3.43575
3.83801
3.32321
1.96483
1.95648
2.83775
3.02595
2.98104
1.63738
0.416327
0.54682
0.938351
1.31053
1.39294
1.14558
0.69358
0.430431
0.241077
0.0939799
0.0773333
0.0816388
0.0987028
0.160295
0.262194
0.319968
0.66602
1.7038
1.91935
2.00433
2.43902
2.74349
1.37247
0.295412
0.165919
0.25591
0.47289
0.71266
0.649225
0.360376
0.0966682
0.0905205
0.174793
0.284937
0.325249
0.339702
0.358588
0.372013
0.377703
0.358267
0.282912
0.187303
0.11648
0.143651
0.257071
0.371277
0.586972
0.498917
0.535733
0.848453
0.942925
0.760497
0.593563
0.39234
0.208796
0.197111
0.19096
0.156929
0.150398
0.253766
0.263613
0.158102
0.0942824
0.109399
0.164691
0.203199
0.209589
0.174506
0.179879
0.165071
0.112639
0.0864009
0.104626
0.182809
0.289159
0.283837
0.241877
0.28867
0.26426
0.134833
0.0785409
0.0889113
0.117458
0.176331
0.220302
0.190281
0.105637
0.0567654
0.155938
0.279158
0.27968
0.172946
0.109244
0.111786
0.127368
0.148531
0.158198
0.147815
0.110117
0.0678235
0.0507772
0.0461383
0.0434616
0.0402703
0.0365967
0.0371797
0.0417117
0.0519201
0.0579099
0.0589419
0.0601883
0.0627627
0.0754092
0.106834
0.159698
0.207826
0.205906
0.17327
0.119936
0.436116
0.382503
1.43225
0.832756
0.229063
0.470097
0.953337
1.34783
1.52735
1.12075
0.142933
0.421917
0.581738
0.78084
1.31376
1.41365
0.908924
0.409166
0.334648
0.46451
0.951022
1.97276
3.15048
3.59993
3.12975
1.92871
1.90534
2.89882
3.08463
3.2026
2.05409
0.687781
0.426613
0.694971
1.02763
1.10908
0.934946
0.780044
0.539849
0.286327
0.121059
0.063146
0.0464816
0.0561318
0.107816
0.152962
0.203396
0.450566
1.39446
1.63264
1.7674
2.17756
2.60481
1.64683
0.495488
0.186621
0.146298
0.311822
0.507978
0.493933
0.310782
0.0997215
0.0901132
0.136726
0.246783
0.329419
0.35774
0.376055
0.380309
0.369919
0.345205
0.286871
0.219238
0.134388
0.0919494
0.158227
0.306505
0.524264
0.483562
0.422573
0.644407
0.693141
0.554441
0.517774
0.41327
0.248067
0.215356
0.199514
0.163616
0.12585
0.187526
0.226034
0.161815
0.0936686
0.0932282
0.125493
0.157496
0.166592
0.14062
0.137802
0.129007
0.113368
0.0954639
0.110935
0.191609
0.302829
0.306886
0.224291
0.242768
0.219675
0.108093
0.0920022
0.107499
0.137783
0.201052
0.242415
0.213515
0.131075
0.0451519
0.11703
0.259424
0.282667
0.161824
0.0944095
0.100875
0.11516
0.135359
0.150764
0.148957
0.119294
0.0755944
0.0575564
0.0522865
0.0489508
0.0459166
0.0425564
0.0429696
0.0417775
0.0463302
0.0515384
0.0538659
0.0594744
0.0671234
0.0817751
0.113877
0.166614
0.213175
0.210348
0.176113
0.122481
0.334553
0.381603
1.35476
0.707197
0.216612
0.352236
0.733369
1.1052
1.28111
0.972853
0.170668
0.341375
0.596225
0.95113
1.10539
1.18338
0.712668
0.37463
0.383333
0.438291
0.773955
1.72208
2.86526
3.35907
2.98946
1.90601
1.981
2.97688
3.08646
3.35067
2.40607
0.947827
0.372717
0.515619
0.808685
0.88306
0.757421
0.651416
0.502321
0.281055
0.129732
0.0585702
0.0309521
0.0317299
0.0620539
0.0962708
0.148733
0.354482
1.13056
1.37183
1.53029
1.88345
2.32215
1.67797
0.614405
0.215987
0.114074
0.214188
0.361739
0.347694
0.24774
0.101935
0.0958605
0.119748
0.214418
0.320926
0.369829
0.390316
0.39058
0.37462
0.346516
0.293644
0.243323
0.169181
0.11332
0.165576
0.297154
0.482965
0.488194
0.36755
0.51303
0.517844
0.450269
0.456875
0.400447
0.277541
0.248559
0.232911
0.187967
0.130682
0.139442
0.176647
0.158652
0.106171
0.091214
0.104227
0.128905
0.132646
0.110766
0.106589
0.115097
0.120113
0.105205
0.119308
0.198657
0.3021
0.31866
0.234102
0.194404
0.167355
0.0982976
0.116532
0.129831
0.159108
0.224687
0.263222
0.234256
0.153171
0.055276
0.079845
0.212567
0.240175
0.133693
0.099651
0.113061
0.126309
0.134959
0.142162
0.142288
0.124028
0.0852486
0.0655057
0.0585247
0.0537974
0.0508763
0.0481308
0.0482185
0.0440469
0.0456559
0.0504757
0.0519431
0.0566836
0.0669296
0.0857993
0.119985
0.173536
0.220098
0.215576
0.178911
0.126483
0.204244
0.609455
0.845635
0.299451
0.160221
0.211176
0.342844
0.537778
0.606153
0.402614
0.10468
0.1273
0.406126
0.850128
0.655125
0.546739
0.35513
0.487531
0.723407
0.586568
0.492093
0.999656
1.9879
2.63915
2.66776
1.97703
2.43727
2.92945
2.69729
3.17247
2.82559
0.862492
0.161525
0.164852
0.33896
0.403456
0.398221
0.344492
0.288624
0.219353
0.12262
0.0529811
0.0271374
0.0163717
0.016571
0.0269779
0.0608553
0.186209