/*--------------------------------*- C++ -*----------------------------------*\
| =========                 |                                                 |
| \\      /  F ield         | OpenFOAM: The Open Source CFD Toolbox           |
|  \\    /   O peration     | Version:  v1912                                 |
|   \\  /    A nd           | Website:  www.openfoam.com                      |
|    \\/     M anipulation  |                                                 |
\*---------------------------------------------------------------------------*/
FoamFile
{
    version     2.0;
    format      ascii;
    class       surfaceScalarField;
    location    "40";
    object      alphaPhi0.water;
}
// * * * * * * * * * * * * * * * * * * * * * * * * * * * * * * * * * * * * * //

dimensions      [0 3 -1 0 0 0 0];
oriented        oriented;


internalField   nonuniform List<scalar> 
28285
(
-2.76444e-07
-8.84387e-07
-5.35496e-07
9.16111e-07
-7.29497e-07
1.77801e-07
-3.43235e-07
-4.11225e-07
3.55439e-07
-1.18971e-06
6.67746e-07
-3.12304e-07
5.14127e-07
1.53622e-07
-6.21622e-08
7.09826e-08
-1.90334e-07
8.91066e-08
4.58177e-07
-6.47977e-07
8.81131e-07
-4.23488e-07
8.31409e-07
-1.6865e-07
4.22613e-07
3.07582e-07
9.10679e-07
-1.64251e-07
1.27318e-06
-4.5013e-07
1.20912e-06
1.30684e-07
1.28116e-06
-1.5175e-07
2.38614e-06
-1.06134e-06
3.16674e-06
-8.24241e-07
2.33021e-06
8.36638e-07
-8.01269e-08
1.72243e-07
-5.58136e-07
2.21406e-07
-6.86082e-07
1.06985e-07
-9.31017e-07
1.12203e-07
-1.03265e-06
7.05948e-08
-1.1124e-06
7.97378e-08
-1.20658e-06
9.41872e-08
-1.28851e-06
8.19243e-08
-1.15767e-06
4.71477e-08
-9.388e-07
-4.02288e-08
-6.96831e-07
-6.6232e-08
-5.09217e-07
-5.73563e-08
-2.20017e-07
-1.1571e-07
1.95152e-07
-2.76942e-07
4.73984e-07
-2.76024e-07
5.21512e-07
-5.03358e-08
3.12008e-07
8.39447e-08
1.84607e-07
6.19821e-08
1.16873e-07
3.19773e-08
5.59936e-08
1.49953e-08
1.24696e-08
6.5364e-09
-7.25533e-09
7.67868e-09
-1.01903e-08
3.47348e-09
2.1771e-08
-8.04255e-09
4.66355e-08
-3.01629e-09
-2.11784e-09
1.99624e-08
-7.54432e-09
7.31756e-10
2.31111e-09
-6.16861e-09
1.55756e-08
-4.13238e-10
4.31706e-08
-5.2478e-10
1.19494e-08
3.35287e-08
-1.56241e-08
2.5266e-08
-1.35495e-08
3.39455e-09
-1.17632e-08
1.0777e-09
-1.21893e-08
-7.20904e-10
-1.68278e-07
3.75837e-08
-4.01459e-07
8.74428e-08
-4.04741e-07
1.17549e-08
-3.31377e-07
-6.47306e-08
-2.51829e-07
-2.37821e-08
-1.80327e-07
-1.58153e-08
-1.25149e-07
-1.08633e-08
-1.01176e-07
-4.53078e-09
-9.29973e-08
-1.34421e-09
-8.74551e-08
-4.39013e-10
-7.80837e-08
6.12325e-10
-6.9593e-08
8.23703e-10
-5.55112e-08
-1.56731e-09
-3.24539e-08
-3.83295e-09
-2.62908e-09
-4.88012e-09
2.98185e-08
-4.37599e-09
5.69397e-08
-3.35191e-09
8.02309e-08
-2.74936e-09
1.01074e-07
-2.12598e-09
1.2194e-07
-1.85346e-09
1.48921e-07
-2.01268e-09
1.9369e-07
-2.07321e-09
2.50485e-07
-1.44107e-09
3.0067e-07
-7.03784e-10
3.37306e-07
-1.82065e-11
3.59165e-07
7.59453e-09
3.70386e-07
2.0358e-08
3.21114e-07
3.74667e-08
3.37643e-07
1.57058e-08
3.74841e-07
-5.22677e-09
5.81924e-07
-1.24304e-08
7.5716e-07
-1.46145e-08
7.16016e-07
5.29269e-08
5.81924e-07
1.20497e-07
4.95308e-07
9.71881e-08
4.68332e-07
1.33525e-08
4.77741e-07
-1.46677e-08
5.58235e-07
-6.16575e-08
6.56019e-07
-9.63932e-08
7.91265e-07
-1.35246e-07
9.34553e-07
-1.43289e-07
1.00928e-06
-7.47308e-08
4.29721e-07
1.0864e-08
2.60363e-07
6.88673e-08
1.93152e-07
3.93979e-08
2.61645e-07
3.76227e-09
2.96231e-07
-3.46442e-08
3.76623e-07
-8.04402e-08
-1.31607e-08
3.89784e-07
-4.33281e-07
-1.16863e-06
-9.59359e-07
2.06563e-06
-1.42617e-06
2.102e-07
-8.52426e-07
-3.84699e-06
-4.4605e-08
-2.91553e-06
3.38257e-07
-1.73945e-06
2.77118e-07
2.14764e-07
-1.15928e-07
1.16885e-07
-1.47656e-07
2.94825e-07
6.05246e-08
-1.52282e-07
4.1914e-07
-2.8641e-07
6.31468e-07
-2.5811e-07
3.76254e-07
5.39594e-07
8.7179e-07
-6.44108e-07
1.10865e-06
-5.10437e-07
8.6925e-07
1.75106e-07
8.66659e-07
-1.4843e-07
1.56982e-06
-1.8653e-06
2.27609e-06
-1.80005e-06
3.22135e-06
2.89205e-07
8.94059e-07
7.20203e-07
8.88173e-09
4.48405e-08
-4.08599e-08
8.82144e-10
-9.79266e-08
1.2403e-08
-2.5865e-07
-6.52015e-12
-5.27095e-07
3.08095e-08
-6.94627e-07
6.50076e-08
-6.95591e-07
9.08834e-08
-3.25158e-07
3.36932e-08
-1.15679e-07
-6.1312e-09
-7.37761e-08
-1.24244e-08
-5.79012e-08
-1.31232e-08
-4.60499e-08
-2.52872e-08
4.29455e-08
-7.81914e-08
3.10372e-07
-1.60353e-07
5.36681e-07
-2.2817e-07
5.40247e-07
-3.47208e-08
5.02638e-07
2.1285e-10
5.18435e-07
1.92793e-08
4.90724e-07
3.85793e-08
3.84106e-07
3.45465e-08
1.39695e-07
1.73212e-08
1.82198e-08
3.61837e-12
1.28213e-08
-1.62618e-14
3.18199e-08
-3.53226e-09
7.29716e-08
5.32183e-09
4.62276e-08
8.39487e-09
8.99824e-10
5.48073e-13
5.09592e-10
-3.62823e-10
1.26585e-09
-2.41459e-10
4.6178e-08
5.68414e-09
3.50217e-08
3.27835e-08
9.65212e-09
4.16416e-09
1.73716e-10
8.68022e-11
-7.31353e-10
9.07476e-15
-2.23204e-08
2.0133e-09
-8.25192e-08
3.71513e-08
-4.62885e-08
-8.73786e-09
3.98549e-09
-2.49224e-08
9.82798e-09
-5.87612e-09
9.34374e-09
-1.66082e-09
6.31497e-09
-1.7377e-09
5.56547e-09
-8.34771e-10
5.90883e-09
-3.82256e-10
6.42996e-09
-1.95311e-11
6.3923e-09
1.13771e-10
5.94987e-09
-5.66476e-15
4.80022e-09
-2.29921e-10
3.89261e-09
-8.58214e-10
3.64258e-09
-1.7066e-09
4.03715e-09
-2.15512e-09
4.72533e-09
-2.23021e-09
5.39047e-09
-2.09328e-09
5.91879e-09
-1.88239e-09
6.43135e-09
-1.88154e-09
7.44611e-09
-2.5834e-09
9.26466e-09
-3.40651e-09
1.12355e-08
-3.29765e-09
1.25759e-08
-2.18837e-09
1.39061e-08
-1.53445e-09
2.29088e-08
-1.23929e-09
4.81038e-08
8.61056e-12
6.63927e-08
-1.40975e-13
4.68373e-08
-1.52551e-13
2.85752e-08
-1.35015e-14
3.17608e-08
-3.98008e-09
1.08404e-07
-6.9598e-09
5.49463e-07
1.433e-09
8.21666e-07
9.24609e-08
7.72684e-07
1.32547e-07
6.05656e-07
4.37032e-08
2.63281e-07
8.37899e-09
1.8087e-07
-1.36719e-08
2.24539e-07
-2.77149e-08
5.24454e-07
-6.15751e-08
9.40203e-07
-1.36556e-07
9.38515e-07
-1.71937e-07
8.26808e-07
2.31988e-08
2.14482e-07
2.20548e-08
2.10667e-07
-1.20721e-09
2.61412e-07
3.62351e-09
3.09189e-07
-4.84382e-08
3.78171e-07
-1.32319e-07
-3.26167e-08
3.97506e-07
-5.80669e-07
-3.20925e-06
-1.22494e-06
4.19255e-06
-2.26226e-06
1.03124e-06
-1.39802e-06
-7.13563e-07
3.14031e-07
-1.12762e-06
1.30853e-06
-2.82919e-06
1.97907e-07
4.16586e-07
-1.41725e-07
1.1865e-07
-5.66264e-09
2.69808e-08
3.8528e-08
-1.32479e-07
2.4123e-07
-1.00791e-07
9.88546e-07
-2.28416e-07
8.5387e-07
8.19114e-07
7.37601e-07
-4.30521e-07
5.52205e-07
-2.38828e-07
5.19505e-07
2.93255e-07
4.65694e-07
-1.5603e-07
8.80381e-07
-1.66121e-06
2.3864e-06
-2.67494e-06
2.48067e-06
-1.63766e-09
1.4513e-06
6.86612e-07
4.04171e-09
2.00646e-07
-1.06323e-08
1.56405e-08
-1.62434e-08
1.79618e-08
-3.01015e-08
1.24003e-08
-1.30682e-07
1.57982e-08
-2.21671e-07
-6.42623e-12
-1.92277e-07
8.0476e-09
-4.33732e-08
-1.71604e-12
-2.02073e-08
-3.98243e-09
-1.81315e-08
-1.03513e-08
-1.36858e-08
-2.17179e-08
-9.14829e-09
-2.56757e-08
8.2503e-09
-9.48861e-08
6.79969e-08
-5.17634e-08
2.2222e-07
-9.67468e-08
3.38383e-07
-1.07364e-07
2.62568e-07
-3.3791e-08
2.07426e-07
2.21951e-12
2.12884e-07
-2.44549e-12
1.99422e-07
7.03223e-09
7.67848e-08
1.66142e-08
3.67003e-09
1.2073e-10
2.20958e-09
1.4087e-09
1.0747e-08
-3.73027e-09
4.15262e-08
5.71184e-10
2.53836e-08
4.82951e-09
6.00023e-10
3.24051e-11
3.44902e-10
-1.07702e-10
4.8585e-10
-3.82408e-10
9.73446e-09
2.51372e-13
3.69668e-08
7.50132e-09
1.34278e-08
1.17573e-08
-1.03e-09
1.1806e-09
-3.67372e-10
5.1632e-11
-4.22184e-10
2.48014e-12
4.11688e-09
1.03103e-09
1.34421e-08
-1.10405e-09
2.8436e-09
-1.53596e-09
1.3849e-09
-6.4117e-10
9.02909e-10
-4.45171e-10
6.26623e-10
-1.009e-09
3.71695e-10
-6.22643e-10
3.26345e-10
-2.94105e-10
3.0922e-10
-4.05094e-11
3.96409e-10
6.50078e-11
4.83207e-10
-8.80611e-11
7.79018e-10
-4.16746e-10
9.89849e-10
-1.17766e-09
1.24045e-09
-1.84819e-09
1.70327e-09
-2.72658e-09
2.28583e-09
-2.70373e-09
2.87929e-09
-2.7954e-09
3.44327e-09
-2.33734e-09
3.87328e-09
-2.42018e-09
4.38956e-09
-2.99067e-09
6.66357e-09
-5.57956e-09
8.49079e-09
-5.79462e-09
9.07262e-09
-4.53219e-09
8.85535e-09
-3.86821e-09
7.99559e-09
-3.39098e-09
8.1475e-09
-3.84931e-10
7.91933e-09
-1.53002e-11
7.20793e-09
1.54579e-12
5.79921e-09
8.65905e-10
7.36707e-09
-6.11436e-09
3.09893e-08
-3.34401e-13
1.9065e-07
4.94637e-09
5.10511e-07
2.59637e-08
5.50927e-07
7.89765e-08
2.98969e-07
5.01222e-08
6.5571e-08
8.12511e-10
4.74712e-08
-1.69907e-08
5.68319e-08
-3.14947e-08
1.11658e-07
-7.46634e-08
2.96156e-07
-1.27252e-07
5.95474e-07
-9.35677e-08
5.80315e-07
5.14326e-09
3.18952e-07
3.69858e-08
2.00352e-07
4.92196e-08
1.78308e-07
2.5718e-08
1.44588e-07
-3.32418e-08
1.64844e-07
-9.3576e-08
-4.70386e-08
3.28328e-07
-1.72056e-06
-2.17256e-06
-2.50754e-06
7.91616e-06
-4.44329e-07
2.54916e-06
-1.41387e-07
-4.62135e-07
9.90539e-08
-5.06156e-07
9.51992e-07
-4.44791e-06
4.18035e-07
1.71633e-06
-1.95298e-07
1.31674e-06
-1.2444e-08
6.65125e-08
1.66459e-08
-1.55683e-07
5.14073e-08
-1.2999e-07
4.36855e-07
-2.00896e-07
8.9681e-07
5.04361e-07
5.54831e-07
-1.16144e-08
5.35303e-07
-4.08667e-07
6.5024e-07
6.46953e-07
1.47407e-06
-3.12253e-07
2.05411e-06
-2.1192e-06
2.8511e-06
-3.38281e-06
9.27678e-07
-1.00379e-06
5.48082e-07
-3.14646e-07
3.68136e-08
2.50951e-08
-8.24867e-09
6.06508e-08
-1.64957e-08
2.62932e-08
-2.32309e-08
1.90837e-08
-2.94346e-08
2.20865e-08
-2.8888e-08
1.43605e-08
-2.99729e-08
1.22312e-08
-2.65459e-08
1.01585e-10
-4.53234e-08
-2.32706e-08
-5.14949e-08
-8.57556e-08
-4.14588e-08
-8.4566e-08
-1.48382e-08
-1.17604e-07
3.52793e-09
-1.26956e-07
1.9639e-08
-5.41707e-08
7.17792e-08
-9.22782e-08
1.70008e-07
-3.83128e-08
2.00156e-07
-3.85166e-08
1.09791e-07
2.93594e-09
3.31375e-08
5.89429e-12
2.66099e-08
3.57417e-09
1.74258e-08
1.19496e-08
1.14523e-08
4.23379e-08
2.23886e-09
2.54145e-09
5.09175e-09
-9.96245e-10
2.19808e-08
5.46386e-11
1.63102e-08
1.79532e-09
5.86476e-10
1.08396e-09
3.99647e-10
-1.77517e-10
4.89663e-10
-4.72424e-10
9.97187e-10
-5.96251e-11
1.48159e-08
2.23303e-12
1.69356e-08
4.52882e-09
3.2558e-10
4.12595e-09
-1.92346e-10
1.25928e-09
-2.52344e-12
4.00263e-09
2.46463e-10
7.98689e-10
5.3198e-10
-7.24379e-10
5.09848e-10
-1.49731e-09
5.06846e-10
-6.32936e-10
4.53183e-10
-3.74957e-10
1.06504e-09
-1.25327e-09
2.21829e-09
-1.629e-09
3.04052e-09
-1.94638e-09
3.32283e-09
1.3619e-10
3.41274e-09
5.30391e-10
3.42427e-09
-3.15656e-10
3.0555e-09
-2.87579e-09
2.41559e-09
-7.86188e-09
2.96958e-09
-5.5114e-09
4.08373e-09
-7.55202e-09
5.6068e-09
-8.32441e-09
7.44513e-09
-8.22253e-09
9.64778e-09
-7.0244e-09
1.28228e-08
-7.89066e-09
2.47993e-08
-1.31659e-08
3.6582e-08
-1.31078e-08
4.49929e-08
-9.12204e-09
5.00068e-08
-8.81923e-09
5.42307e-08
-1.12732e-08
4.40726e-08
-1.81628e-08
1.4553e-08
-2.00519e-09
7.40601e-09
4.88561e-09
5.68084e-09
7.0507e-09
3.51451e-08
9.28897e-09
6.00814e-08
-3.65078e-08
6.18517e-08
-3.31232e-08
5.96135e-08
1.61413e-09
1.54933e-07
1.77533e-09
2.05187e-07
1.60062e-08
1.30966e-07
1.58655e-08
5.09513e-08
1.90426e-09
4.09194e-08
-3.4108e-09
4.34101e-08
-3.75333e-08
6.90577e-08
-7.89744e-08
1.43121e-07
-1.53287e-07
2.50479e-07
-4.73617e-08
2.85781e-07
4.36181e-10
1.75994e-07
2.45074e-08
9.98258e-08
6.02823e-08
7.71687e-08
4.38892e-08
8.52197e-08
-3.68068e-08
1.24685e-07
-1.37527e-07
-9.84141e-10
1.61213e-07
-9.84782e-07
-5.55363e-07
-3.25034e-06
1.11467e-05
-8.90111e-08
8.30983e-07
3.73058e-10
-4.87314e-07
4.63226e-08
-6.16311e-07
1.73291e-06
-8.04776e-07
9.79918e-07
7.36688e-07
-1.6561e-07
3.16874e-06
-3.10617e-08
9.52206e-09
2.5776e-08
-2.06969e-07
6.29108e-08
-1.61238e-07
3.04273e-07
-1.89142e-07
9.08569e-07
1.03363e-07
8.52331e-07
-1.87823e-07
7.89987e-07
-6.1462e-07
1.00109e-06
2.7171e-07
6.96976e-07
-1.80584e-07
5.97033e-07
-3.21019e-07
1.76799e-06
-1.11966e-06
2.95813e-06
-5.71055e-07
5.9123e-07
5.6241e-07
9.84786e-09
6.13128e-08
-4.02777e-08
2.17279e-07
-6.80337e-08
4.51442e-07
-5.0582e-08
2.43023e-07
-1.52601e-08
8.36936e-08
-2.26078e-08
1.57677e-08
-2.36066e-08
1.91705e-08
-8.44244e-08
1.91685e-08
-2.6825e-07
-4.98819e-08
-2.23541e-07
-2.84488e-07
-1.50365e-07
-1.45773e-07
-6.12773e-08
-1.63664e-07
1.141e-08
-2.3953e-07
2.24367e-08
-1.2172e-07
4.0162e-08
-1.15134e-07
5.6345e-08
-4.93655e-08
8.82001e-08
-1.93433e-08
7.97367e-08
1.45778e-09
3.12575e-08
2.11471e-09
2.30496e-08
1.16751e-08
1.33215e-08
2.17847e-08
1.34685e-08
3.94128e-08
2.12765e-09
6.79834e-09
1.5738e-09
-1.28397e-09
1.15239e-08
1.17423e-10
7.53735e-09
2.01535e-09
5.43473e-10
5.74893e-10
5.67924e-10
-4.50349e-10
6.17706e-10
-5.22207e-10
1.65307e-09
1.51506e-11
5.1987e-09
4.58037e-12
7.3199e-09
2.5111e-09
1.33912e-11
3.73346e-09
-8.62836e-10
3.10532e-09
7.04038e-10
2.49857e-08
2.95994e-10
1.21187e-09
5.17167e-10
-9.29003e-10
5.72455e-10
-1.54736e-09
5.06892e-10
-5.50916e-10
2.39802e-09
-1.53242e-09
5.39582e-09
-2.36147e-09
5.2555e-09
-1.63732e-09
5.48071e-09
-1.88315e-09
4.85862e-09
3.58657e-10
4.99393e-09
7.94706e-10
5.47091e-09
-1.36991e-09
7.19845e-09
-4.09647e-09
9.47845e-09
-1.07654e-08
1.00439e-08
-6.94066e-09
1.36912e-08
-9.8043e-09
1.80391e-08
-1.08645e-08
2.23254e-08
-1.04777e-08
2.62477e-08
-1.04284e-08
3.41683e-08
-5.63446e-08
5.89808e-08
-3.5079e-08
7.2043e-08
-1.34115e-08
7.81344e-08
-1.21236e-08
8.24104e-08
-1.15568e-08
8.51828e-08
-1.55841e-08
8.92264e-08
-2.06679e-08
5.26499e-08
-5.7503e-09
1.86743e-08
2.10595e-08
1.27892e-08
2.94845e-08
1.07976e-07
3.74018e-08
1.6621e-07
-5.49405e-08
1.74739e-07
-1.14394e-07
3.69083e-08
-2.77827e-10
3.76029e-08
-7.43877e-10
3.31639e-08
1.91252e-08
2.8938e-08
1.94502e-08
4.04813e-08
3.18091e-08
8.17695e-08
-2.22758e-08
1.44782e-07
-5.17153e-08
2.99336e-07
-9.52919e-08
4.30932e-07
-8.36169e-08
3.67098e-07
-6.49341e-08
9.79693e-08
3.40076e-08
1.1228e-07
2.21956e-08
8.26127e-08
7.79507e-08
1.53974e-07
1.08019e-07
2.28226e-07
-1.08934e-07
2.06558e-07
-1.65013e-07
-7.89568e-08
1.74928e-07
1.83713e-07
-2.37577e-07
-2.63043e-06
6.92359e-06
-4.08099e-07
-4.67069e-07
-1.3234e-08
-1.34903e-06
1.90536e-08
-5.84393e-07
2.04415e-07
-5.27108e-07
4.72121e-07
3.49514e-07
-3.88201e-08
5.57684e-06
-3.28427e-08
8.93581e-09
2.38021e-08
-2.57995e-07
6.07637e-08
-1.9268e-07
2.12645e-07
-6.93661e-08
5.67203e-07
1.83377e-09
1.10392e-06
-6.41402e-07
1.00289e-06
-3.15585e-07
6.41914e-07
4.65479e-07
1.90493e-07
-9.35981e-08
1.38146e-07
-3.97053e-07
5.46336e-07
-1.61647e-09
1.94854e-06
-7.89959e-07
7.31826e-07
6.2533e-07
3.34841e-08
1.21588e-07
-2.3855e-07
2.17094e-06
-4.58529e-07
1.03707e-06
-3.33726e-07
1.38364e-06
-5.56367e-08
5.77802e-07
-2.41632e-08
9.4922e-08
-5.59174e-08
4.49823e-08
-3.83186e-07
1.49991e-07
-3.81443e-07
-1.22586e-07
-2.8946e-07
-2.19016e-07
-1.81087e-07
-9.5505e-08
-8.27282e-08
-3.79302e-08
1.09226e-08
-8.55328e-08
5.689e-08
-1.08625e-07
8.97941e-08
-2.82163e-07
3.73598e-08
-1.46416e-07
3.33839e-08
-1.43772e-08
3.60028e-08
5.26574e-12
2.59307e-08
5.73056e-09
2.14864e-08
1.61969e-08
1.34473e-08
2.97167e-08
1.34019e-08
4.30015e-08
1.42306e-09
1.08912e-08
1.80174e-09
-8.21066e-10
7.32836e-09
1.94263e-11
3.33149e-09
4.62889e-10
6.93453e-10
3.21111e-09
7.0765e-10
-4.62731e-10
6.10557e-10
-7.30097e-10
9.99014e-10
-9.14158e-11
2.35737e-09
2.4569e-10
3.52683e-09
1.61403e-09
3.60634e-10
1.4297e-08
-1.79758e-09
9.05325e-09
2.25661e-09
2.18152e-08
3.30896e-10
3.9606e-09
4.59869e-10
-1.05284e-09
4.21416e-10
-2.5621e-09
4.29666e-09
-4.46338e-09
7.07048e-09
-2.05766e-09
8.40067e-09
-3.69183e-09
8.23027e-09
-1.46675e-09
5.45629e-09
-9.42926e-11
3.96096e-09
3.84478e-10
3.33946e-09
3.70222e-10
3.58732e-09
-3.21519e-11
6.23683e-09
-2.92118e-10
1.12738e-08
-1.39822e-09
1.78374e-08
-2.73562e-09
2.39297e-08
-3.73751e-09
3.1369e-08
-4.81039e-09
3.84401e-08
-5.39119e-09
4.47082e-08
-4.55514e-09
4.15247e-08
-2.94894e-09
1.25511e-08
-1.18118e-09
8.25585e-09
-4.5591e-10
1.06576e-08
-5.09293e-10
2.28964e-08
-8.77162e-10
4.99601e-08
-2.37031e-09
6.77292e-08
-9.28185e-09
8.38261e-08
-6.59881e-09
5.31934e-08
5.82065e-08
8.97342e-08
6.87468e-08
2.42068e-07
2.42243e-08
2.52609e-07
-7.88481e-08
2.54993e-07
-1.03412e-07
9.90684e-08
-6.00304e-10
3.62261e-08
3.79782e-08
3.06799e-08
2.41273e-08
2.16974e-08
2.89767e-08
1.04023e-07
4.29795e-08
2.03113e-07
-5.16943e-08
2.45405e-07
-5.20345e-08
4.45364e-07
-5.16615e-08
6.06854e-07
-3.2983e-07
5.66667e-07
-1.84952e-07
2.09376e-07
9.74729e-08
9.58389e-08
1.23734e-07
1.36794e-07
2.22824e-07
3.31799e-07
1.26849e-07
3.90271e-07
-8.73047e-08
4.38552e-07
-1.33842e-07
-1.51458e-07
3.33106e-07
5.29647e-08
-2.75317e-07
-1.09506e-06
1.76594e-06
-5.31838e-07
-1.62494e-06
2.64178e-08
-7.71902e-06
-7.11215e-08
-1.24807e-06
3.94985e-08
-8.03124e-07
3.49407e-08
4.45599e-07
-3.27734e-08
1.25912e-05
-2.89252e-08
1.07059e-08
2.43315e-08
-3.05716e-07
6.56142e-08
-2.28344e-07
8.8757e-08
-8.69897e-08
4.40003e-07
3.26217e-08
6.85765e-07
-2.58227e-07
6.70699e-07
-1.94933e-07
3.06604e-07
1.6018e-07
3.00986e-08
-3.63271e-08
6.82405e-08
-6.39035e-07
4.4903e-07
-3.08932e-06
8.03188e-07
-2.04602e-09
6.63263e-07
3.04957e-07
3.09509e-08
1.64075e-07
-2.73457e-07
2.65788e-06
-3.97607e-07
1.24216e-06
-5.50523e-07
4.53843e-07
-3.55882e-07
1.19512e-07
-1.34383e-07
4.75773e-07
-2.49699e-07
4.39246e-07
-4.39495e-07
3.60286e-07
-1.83148e-07
-6.71767e-08
-2.89617e-08
-2.17868e-08
-3.32279e-09
-7.98857e-09
-1.9381e-09
-1.34725e-08
2.42369e-09
-1.43258e-08
1.09141e-07
-2.03841e-07
1.678e-07
-3.52323e-07
1.59027e-07
-1.5359e-07
4.05165e-08
-2.10145e-08
2.36771e-08
1.69888e-09
2.39556e-08
5.11216e-09
4.17098e-08
2.08305e-08
1.39939e-08
6.39036e-08
1.0191e-08
1.75362e-08
9.33284e-09
2.82515e-08
3.13232e-09
-6.87847e-09
4.38184e-09
-1.35106e-10
1.64291e-09
7.8801e-09
5.3816e-10
6.17793e-09
4.31091e-10
-6.11434e-10
5.28328e-10
-8.17664e-10
6.49715e-10
-2.22472e-10
8.05161e-10
3.75869e-10
1.80418e-09
2.83218e-10
3.70697e-10
2.31077e-08
-1.16223e-09
1.94122e-08
4.61678e-09
1.60436e-08
5.58199e-09
9.24139e-09
2.86497e-09
-1.0487e-08
5.57072e-09
-1.53195e-08
8.99362e-09
-9.41629e-09
9.52397e-09
-4.08169e-09
3.37981e-09
-1.45683e-09
1.98049e-10
-2.91788e-11
7.08594e-11
-1.10499e-12
4.39269e-11
7.35974e-18
3.79991e-11
1.07355e-17
4.24238e-11
-1.12303e-12
1.84199e-10
-9.73308e-12
4.50649e-10
-4.28885e-11
6.24197e-10
-1.10995e-10
8.4147e-10
-1.61007e-10
1.31617e-09
-2.42092e-10
1.71912e-09
-2.98691e-10
1.83957e-09
-2.74575e-10
1.03058e-09
-1.82826e-10
2.63568e-10
-6.95275e-11
2.39855e-10
-4.04832e-11
4.3956e-10
-7.4639e-11
1.4297e-09
-2.75224e-10
4.79917e-09
-1.08341e-09
2.01792e-08
-4.46058e-09
1.55459e-07
-6.48269e-09
1.43571e-07
3.69493e-08
1.41068e-07
1.04395e-07
7.93199e-08
1.51873e-09
5.27065e-08
-2.10241e-08
1.56196e-07
-1.04671e-07
1.32025e-07
-1.6929e-08
3.16261e-08
6.62335e-08
3.38089e-08
2.81035e-08
1.1264e-07
5.39746e-08
1.31675e-07
9.44579e-08
6.1227e-08
-2.31231e-08
3.20178e-08
-4.25037e-08
3.59098e-08
-5.48747e-08
1.88246e-07
-1.19208e-07
6.16908e-07
-4.51863e-07
3.71868e-07
1.97067e-07
1.51219e-07
3.3413e-07
2.02623e-07
5.20125e-07
3.30726e-07
1.50923e-07
1.44523e-07
-2.44728e-08
4.75331e-08
-2.34576e-08
-6.01166e-08
1.16484e-07
-1.7191e-07
-2.19768e-07
-4.30774e-07
1.10241e-06
-3.85619e-07
-1.66982e-06
5.72731e-09
-8.11102e-06
-2.12452e-07
-2.41431e-06
-2.60444e-07
-1.60973e-06
-9.29901e-07
9.77803e-07
-4.05545e-08
1.15465e-05
-3.84687e-08
-4.15163e-09
4.24203e-08
-1.63136e-06
4.49529e-08
-2.25358e-07
1.03338e-07
-2.29717e-07
2.71581e-07
1.49774e-07
3.3989e-07
-5.75811e-08
3.52648e-07
-6.1774e-08
1.6452e-07
1.40292e-07
1.35045e-08
1.71724e-08
4.49313e-07
-4.16123e-06
1.60137e-06
-8.09807e-06
3.46945e-07
-8.94489e-07
9.18823e-08
1.05022e-07
1.30626e-08
2.50556e-07
-1.38265e-07
2.96704e-06
-1.56563e-07
2.88214e-07
-3.33654e-07
1.10627e-07
-4.38745e-07
1.56652e-07
-5.44467e-07
4.52366e-07
-7.03541e-07
9.7426e-07
-3.86929e-07
2.72643e-07
-4.17488e-09
-1.86242e-08
-3.81066e-09
-8.28022e-09
-3.16577e-09
-8.61955e-09
-1.5271e-09
-1.3571e-08
4.41216e-10
-1.71837e-08
2.67912e-08
-1.42294e-08
1.01858e-07
-4.0597e-08
1.98922e-07
-2.74571e-07
1.03872e-07
-1.01697e-08
2.73847e-08
1.52807e-09
1.66016e-08
1.56601e-08
1.71764e-08
3.1691e-08
1.53917e-08
9.31009e-08
5.3937e-09
1.33458e-08
1.41117e-08
2.82193e-08
4.94482e-09
-2.28348e-08
1.29813e-09
-2.02777e-10
3.45489e-09
6.61398e-09
9.51691e-10
1.99591e-09
4.1715e-10
-6.72244e-11
4.50943e-10
-8.61126e-10
7.91384e-10
-4.59888e-10
7.81693e-10
6.59909e-10
1.13706e-10
7.07088e-10
1.16352e-09
1.07275e-07
-1.05522e-09
2.41009e-08
2.31168e-09
7.76377e-09
9.94327e-09
4.91993e-09
1.03401e-08
-2.29051e-08
1.18259e-08
-1.90644e-08
1.26133e-08
-1.24399e-08
5.41813e-09
-1.60294e-09
7.89744e-11
-2.07125e-11
2.13313e-12
-8.01691e-13
1.21293e-12
-1.52475e-13
9.87119e-13
2.45937e-16
8.65936e-13
2.99382e-16
1.31544e-12
-1.7625e-13
4.43433e-12
-7.25819e-13
1.21113e-11
-1.81117e-12
2.27062e-11
-3.24331e-12
3.30235e-11
-4.02323e-12
5.96133e-11
-5.13338e-12
8.14401e-11
-6.07376e-12
9.58207e-11
-5.66282e-12
5.47804e-11
-4.06755e-12
1.70871e-11
-2.27568e-12
1.84062e-11
-2.55612e-12
6.96316e-11
-1.46298e-11
4.38173e-10
-9.53633e-11
2.03281e-09
-5.21086e-10
8.79139e-09
-2.66052e-09
5.11474e-08
-3.26893e-09
1.44098e-07
1.78604e-08
1.2408e-07
4.99529e-08
2.96154e-08
4.5023e-09
1.1603e-08
-7.67514e-09
1.02499e-07
-9.49359e-08
1.06702e-07
-5.55053e-12
5.02424e-08
8.7563e-08
3.33002e-08
5.12879e-08
9.63102e-08
5.59653e-08
1.06324e-07
3.74866e-08
2.59159e-08
-4.5406e-10
2.66877e-08
-4.25967e-08
4.60778e-08
-7.49436e-08
8.89042e-08
-4.3337e-08
8.61419e-07
-6.21839e-07
8.43845e-07
3.4282e-07
5.67211e-07
7.80641e-07
3.69254e-07
9.83045e-07
1.10515e-07
1.16988e-07
9.20556e-09
-1.7072e-08
1.01001e-08
-1.82693e-08
-4.56296e-08
5.00423e-08
-8.49269e-08
-2.7975e-07
-1.94869e-08
1.04082e-06
2.54315e-07
-1.1034e-06
8.95709e-08
-7.94562e-06
-1.02541e-06
-2.8883e-06
-1.70586e-06
-5.62955e-06
-1.39561e-06
1.84656e-06
4.40639e-07
9.86337e-06
1.70496e-07
-3.23341e-07
3.98434e-08
-4.96929e-06
1.22561e-08
-2.85373e-07
3.04656e-07
-9.16341e-07
1.88276e-07
2.66267e-07
1.81927e-07
-5.1346e-08
2.52195e-07
5.41599e-08
1.28959e-07
5.04702e-07
4.13873e-08
2.47656e-08
1.01171e-06
-7.59057e-06
2.28816e-06
-1.18527e-05
1.24836e-06
-5.47311e-06
1.20541e-07
7.82207e-07
1.05831e-08
3.32583e-07
-7.57487e-09
1.30778e-06
-2.28424e-08
2.97854e-09
-1.0162e-07
1.99654e-09
-4.89554e-07
1.06547e-07
-5.44534e-07
6.36476e-07
-4.08877e-07
7.09473e-07
-2.39657e-08
1.04162e-07
-4.2851e-09
-7.42465e-09
-4.01656e-09
-8.53746e-09
-3.14652e-09
-9.48801e-09
-1.58699e-09
-1.51044e-08
3.73323e-10
-1.78702e-08
2.31452e-09
-1.61444e-08
8.36455e-09
-1.49753e-08
1.60044e-07
-6.85809e-08
1.75306e-07
-1.48119e-07
4.302e-08
-5.69871e-12
2.3125e-08
2.13745e-08
1.68874e-08
3.77658e-08
1.67791e-08
1.56126e-07
4.17756e-09
2.92406e-08
1.53851e-08
2.54712e-08
4.27186e-09
-3.92758e-09
2.05729e-09
-8.26684e-11
3.81498e-09
5.76565e-09
5.8368e-10
1.06133e-09
4.26891e-10
-2.14592e-14
4.96471e-10
-9.21037e-10
9.87227e-10
-6.03627e-10
1.24273e-09
6.90035e-10
4.01305e-10
1.94384e-09
1.69573e-09
1.26045e-07
-4.99614e-11
2.61259e-08
2.70535e-09
3.34262e-09
5.86543e-09
2.24768e-10
1.55974e-08
-3.26814e-08
1.73333e-08
-2.0756e-08
5.90058e-09
-3.15142e-09
1.36635e-10
-7.36936e-11
2.37517e-12
-5.65794e-13
4.0307e-13
-6.73425e-17
3.40047e-13
-1.17774e-17
2.76911e-13
2.8698e-13
1.74738e-13
2.48541e-13
1.63796e-13
-5.69024e-14
2.16969e-13
-1.79622e-13
4.08676e-13
-4.42458e-13
5.90763e-13
-6.36066e-13
7.49748e-13
-8.16384e-13
1.16346e-12
-9.44999e-13
1.58629e-12
-9.82747e-13
1.87198e-12
-9.11159e-13
1.31076e-12
-8.87771e-13
1.00945e-12
-7.7335e-13
1.26956e-12
-7.07553e-13
1.54254e-11
-5.22602e-12
1.39503e-10
-2.31185e-11
8.82115e-10
-1.50979e-10
4.9353e-09
-1.47939e-09
2.27588e-08
-1.84773e-09
6.31649e-08
6.17257e-09
5.5876e-08
1.3392e-08
1.20465e-08
1.86612e-09
4.61018e-09
-3.42831e-09
8.84755e-08
-4.15284e-08
1.29607e-07
-7.98745e-09
5.74607e-08
1.28867e-07
3.29175e-08
7.11904e-08
2.84645e-08
6.5864e-08
3.85233e-08
5.77152e-08
1.05685e-07
-2.15755e-08
1.50879e-07
-2.05164e-07
7.24272e-08
-2.12636e-07
7.75051e-08
-2.61683e-08
7.07589e-07
-5.10897e-07
9.61223e-07
8.98548e-08
8.39026e-07
9.02169e-07
7.39117e-07
1.08362e-06
1.1682e-07
3.64319e-08
1.05939e-08
-1.38431e-08
1.00124e-08
-1.76455e-08
-5.18101e-08
4.80138e-08
-9.14565e-10
-3.66751e-07
7.32944e-08
9.65659e-07
2.40408e-07
-3.22871e-07
-3.3789e-08
-7.67208e-06
-1.85076e-06
-1.07067e-06
-1.82112e-06
-1.03805e-05
-1.18075e-06
1.12157e-07
1.04557e-07
3.73379e-06
5.59936e-07
-1.41878e-06
-2.70263e-08
-4.49272e-06
-6.44352e-08
-3.47368e-07
4.2486e-07
-9.43684e-07
1.84859e-07
4.3329e-07
1.59261e-07
-2.56352e-08
2.83415e-07
2.0709e-07
1.81204e-07
9.76918e-07
1.68726e-07
2.45788e-07
1.55118e-06
-8.95732e-06
2.26283e-06
-5.62078e-06
3.1941e-06
-4.14194e-06
1.62421e-07
2.33931e-06
1.04973e-08
5.12438e-07
3.25293e-09
1.94748e-07
-1.61185e-09
8.48699e-09
-5.32803e-09
5.69298e-09
-1.68108e-07
2.79559e-12
-3.70249e-07
1.36292e-07
-2.03115e-07
2.8574e-07
-6.49944e-09
1.31044e-08
-4.87643e-09
-5.73268e-09
-5.18867e-09
-8.22501e-09
-3.2648e-09
-1.17986e-08
-1.87993e-09
-1.63084e-08
3.14811e-10
-2.02576e-08
2.25937e-09
-1.78747e-08
4.20834e-09
-1.69194e-08
1.43619e-08
-1.26921e-08
2.05584e-07
-1.45556e-07
1.35892e-07
-1.95606e-09
4.30777e-08
1.07673e-07
1.80939e-08
7.69006e-08
1.9361e-08
2.16456e-07
3.85824e-09
4.14501e-08
6.03804e-09
3.46156e-09
9.01246e-10
-1.3825e-09
8.6041e-10
-4.65858e-11
1.91134e-09
2.18057e-09
4.78869e-10
1.29664e-09
6.05986e-10
-8.23929e-10
5.38285e-10
-2.02172e-09
9.59635e-10
-1.50211e-11
1.0193e-09
9.07453e-10
5.50755e-10
2.519e-09
2.84077e-09
5.76737e-08
-4.05281e-10
2.90952e-08
4.18018e-09
2.78441e-09
1.54953e-09
-2.08218e-09
5.02235e-09
-7.65978e-09
2.05088e-09
-9.60099e-10
5.8693e-10
-1.03041e-10
9.52736e-12
-3.17887e-11
7.88396e-13
-6.8739e-18
6.71549e-13
-1.33622e-17
5.83827e-13
-4.13531e-18
3.02664e-13
6.99461e-13
9.06137e-14
3.25321e-13
5.25477e-14
-5.36012e-18
6.90909e-14
-4.69121e-14
1.0515e-13
-3.29042e-13
1.38843e-13
-4.52197e-13
1.87243e-13
-5.52734e-13
2.49327e-13
-8.02371e-13
3.11662e-13
-8.43074e-13
3.65625e-13
-7.83817e-13
4.15416e-13
-7.614e-13
4.6644e-13
-6.9193e-13
5.3766e-13
-6.44815e-13
6.50477e-12
-3.73653e-12
5.44391e-11
-6.57775e-12
2.98024e-10
-2.29852e-13
2.59596e-09
2.3859e-11
1.06827e-08
-8.94959e-10
1.74264e-08
1.58998e-09
1.54062e-08
2.88415e-09
4.43046e-09
1.36997e-09
2.89669e-09
-1.69669e-09
3.23984e-08
-1.09419e-08
2.01582e-07
-7.60477e-08
9.31919e-08
2.535e-07
3.24399e-08
1.31442e-07
2.88998e-08
1.13138e-07
9.26449e-08
1.38247e-07
3.07786e-07
-3.65952e-08
4.71002e-07
-5.16919e-07
3.10466e-07
-1.00503e-06
1.55178e-07
-1.58622e-07
5.53813e-07
-3.9098e-07
9.32483e-07
3.8517e-08
8.49896e-07
9.85425e-07
7.15554e-07
2.37507e-07
7.99591e-08
4.56723e-08
1.28311e-08
-1.05451e-08
9.76666e-09
-1.44575e-08
-3.03788e-08
3.2999e-08
9.62204e-08
-4.14738e-07
8.07772e-08
9.85556e-07
1.45026e-07
-3.87263e-07
2.23985e-07
-4.56401e-06
-1.6743e-06
8.26952e-07
-1.15214e-06
-1.0902e-05
-1.11982e-07
1.26142e-07
-5.97283e-09
2.65724e-07
3.21046e-07
-1.88272e-06
-5.98126e-09
-4.28506e-06
4.33131e-08
-4.09201e-07
4.67685e-07
-6.34687e-07
3.51144e-07
5.25254e-07
4.06056e-07
-8.12911e-08
5.23753e-07
5.30725e-07
2.86226e-07
1.77288e-06
3.76726e-07
1.11788e-06
1.54771e-06
-1.0144e-05
6.39395e-07
-2.63309e-06
2.33394e-06
-6.27344e-06
5.64663e-08
3.37476e-06
5.86204e-09
1.5301e-06
-1.97036e-10
6.41e-10
-1.86161e-09
9.88177e-09
-3.09221e-09
7.56725e-09
-2.01477e-08
5.39681e-09
-7.2294e-08
6.13587e-09
-1.33181e-08
6.22859e-09
-4.80215e-09
3.56744e-09
-6.35849e-09
-5.27076e-09
-5.3575e-09
-9.06197e-09
-3.5743e-09
-1.34656e-08
-1.60067e-09
-2.06305e-08
3.29974e-10
-2.22028e-08
2.24521e-09
-1.93287e-08
4.19071e-09
-1.86708e-08
5.73953e-09
-1.42409e-08
3.0101e-07
-8.60683e-08
3.95371e-07
-1.21651e-09
3.88967e-07
2.77678e-07
6.46211e-08
7.56033e-07
9.97503e-09
4.4046e-07
6.45818e-10
8.72268e-08
9.5021e-10
2.20783e-11
7.95284e-10
-1.23297e-09
7.97353e-10
-8.94971e-12
8.1074e-10
2.12951e-09
7.36553e-11
2.11056e-09
4.81144e-09
-2.79427e-09
2.21291e-09
-4.9954e-09
6.17222e-10
-1.97887e-10
9.04072e-10
9.07965e-10
4.12436e-10
3.28917e-09
2.03986e-09
2.41133e-08
7.56098e-11
1.66036e-08
7.50704e-09
-4.64702e-09
2.03535e-09
-1.13187e-08
1.36102e-10
-3.8731e-09
1.37568e-10
2.2503e-11
8.35687e-11
-4.67893e-11
6.54772e-11
-5.24491e-15
3.14874e-10
-2.16267e-11
6.75032e-10
-6.56636e-10
6.39273e-10
-8.48907e-11
1.16578e-10
6.72961e-10
1.01661e-13
7.15686e-11
4.17646e-14
6.17763e-18
5.69047e-14
-1.81681e-17
9.11015e-14
-6.40829e-14
1.29895e-13
-1.92436e-13
1.74984e-13
-2.99871e-13
2.2444e-13
-5.54478e-13
2.74238e-13
-6.15361e-13
3.23457e-13
-5.98236e-13
3.84383e-13
-6.92894e-13
4.63224e-13
-6.39835e-13
6.0113e-13
-6.50277e-13
2.78308e-12
-1.67159e-12
1.3621e-10
-1.09213e-10
5.40858e-10
-3.34474e-10
1.64574e-09
-4.94264e-10
3.53723e-09
-6.80031e-10
3.13929e-09
2.10364e-09
2.79357e-09
3.18394e-09
2.49641e-09
1.8328e-09
3.83946e-09
-3.09101e-09
8.89113e-09
-1.53512e-09
2.97161e-07
-6.28189e-08
2.84483e-07
2.43874e-07
8.49156e-08
4.34081e-07
7.39789e-08
3.68256e-07
2.10368e-07
3.31666e-07
4.91538e-07
-3.61012e-08
7.07243e-07
-7.32283e-07
8.02702e-07
-1.14862e-06
2.25241e-07
-1.20731e-07
2.87972e-07
-3.0835e-07
8.10874e-07
4.99053e-08
8.65881e-07
9.29749e-07
4.02396e-07
8.61295e-08
9.87333e-09
1.10936e-08
8.50557e-09
-7.38661e-09
9.62126e-09
-1.55252e-08
-1.50697e-08
1.48634e-08
-1.66115e-08
-5.32226e-07
7.52488e-08
8.92744e-07
1.49196e-07
-4.56756e-07
3.45211e-07
-4.65374e-06
-1.96587e-06
3.25455e-06
-5.49174e-07
-1.09914e-05
9.53381e-08
-3.62714e-07
7.16145e-08
2.89448e-07
2.5979e-07
-1.04891e-06
1.57725e-07
-4.31991e-06
3.27746e-08
-3.92336e-07
1.40528e-07
-4.98938e-07
7.43239e-07
9.71981e-08
1.23775e-06
-3.4956e-08
1.10578e-06
1.83937e-06
4.24826e-07
3.62016e-06
2.33882e-07
3.55675e-06
9.7607e-07
-4.86412e-06
4.35452e-07
-2.08697e-06
1.46745e-06
-4.54161e-06
3.38486e-07
4.12893e-06
1.32552e-07
6.35003e-06
-5.50375e-10
1.43797e-07
-1.78087e-09
1.22766e-08
-2.53668e-09
8.31616e-09
-3.14401e-09
6.59471e-09
-3.47274e-09
6.46043e-09
-3.90859e-09
7.34754e-09
-4.31842e-09
4.05603e-09
-5.89741e-09
-3.06255e-09
-4.04069e-09
-1.08024e-08
-3.57121e-09
-1.29542e-08
-1.65176e-09
-2.14573e-08
2.87027e-10
-2.36778e-08
2.06964e-09
-2.15721e-08
4.11785e-09
-2.02578e-08
5.70877e-09
-1.56377e-08
7.27944e-08
-2.67611e-08
5.01117e-07
-1.46896e-08
5.04499e-07
2.74296e-07