/*--------------------------------*- C++ -*----------------------------------*\
| =========                 |                                                 |
| \\      /  F ield         | OpenFOAM: The Open Source CFD Toolbox           |
|  \\    /   O peration     | Version:  v1912                                 |
|   \\  /    A nd           | Website:  www.openfoam.com                      |
|    \\/     M anipulation  |                                                 |
\*---------------------------------------------------------------------------*/
FoamFile
{
    version     2.0;
    format      ascii;
    class       volScalarField;
    location    "40";
    object      k;
}
// * * * * * * * * * * * * * * * * * * * * * * * * * * * * * * * * * * * * * //

dimensions      [0 2 -2 0 0 0 0];


internalField   nonuniform List<scalar> 
14268
(
0.0356129
0.0399447
0.0402215
0.0583945
0.051316
0.087406
0.0536303
0.0128581
0.0356024
0.049226
0.0545721
0.0411736
0.0164335
0.0121768
0.0213675
0.0223046
0.0315384
0.0464843
0.0349565
0.0106028
0.00398491
0.00617804
0.0104572
0.0135514
0.0150087
0.0156297
0.0171638
0.021907
0.0378352
0.0673715
0.0948872
0.114692
0.131914
0.123293
0.0982668
0.0686213
0.0289938
0.00901553
0.00277791
0.00122877
0.000862716
0.00113952
0.00218377
0.00443557
0.00891418
0.00288047
0.00177079
0.00376614
0.0108694
0.0113578
0.006176
0.00269335
0.00198282
0.00143106
0.00590217
0.00428036
0.00269961
0.00370345
0.00457361
0.00370246
0.0033552
0.00366776
0.00394794
0.00377667
0.00351534
0.00320184
0.0026635
0.00207955
0.00211571
0.00321046
0.00624932
0.00975029
0.012872
0.0152603
0.0177291
0.0203687
0.0206802
0.0193506
0.0169446
0.0139265
0.00999277
0.00567573
0.00431801
0.00469813
0.0100961
0.0168664
0.0138169
0.00701841
0.00349944
0.00340675
0.00487175
0.0112263
0.0277723
0.0384055
0.0401805
0.0322743
0.0176619
0.0141945
0.0136801
0.0139369
0.0178537
0.0310056
0.0484254
0.0416552
0.149709
0.142105
0.12199
0.141469
0.108241
0.250821
0.18009
0.0415233
0.107459
0.188542
0.183365
0.120295
0.0484537
0.0479647
0.0823325
0.0839533
0.119117
0.168514
0.12481
0.0315016
0.0211288
0.0314412
0.0499223
0.0651206
0.0679045
0.0638559
0.0652088
0.0805532
0.142214
0.26797
0.380646
0.456998
0.520127
0.483146
0.369704
0.267709
0.148151
0.0664512
0.0255574
0.0083089
0.00404459
0.00542623
0.00990796
0.019093
0.035784
0.0151048
0.0093982
0.0145657
0.0381717
0.0431733
0.0260802
0.0141323
0.00911731
0.00609211
0.0222789
0.0187566
0.0166721
0.0197794
0.0230652
0.0191948
0.0166133
0.0183416
0.0209459
0.0204903
0.0189186
0.0170992
0.0140224
0.0104705
0.0109212
0.0165542
0.0262757
0.0372824
0.0470331
0.0549614
0.0632232
0.0721783
0.0739711
0.0705885
0.0636008
0.0542679
0.0416313
0.0272784
0.0207244
0.0226983
0.0411254
0.0697811
0.06117
0.0334438
0.015454
0.0151414
0.0202076
0.0413419
0.107611
0.147694
0.146581
0.108863
0.0578247
0.0430946
0.0470555
0.0495973
0.0605445
0.101014
0.156291
0.138831
0.159636
0.241641
0.176228
0.19907
0.143634
0.258401
0.256507
0.0803569
0.177969
0.442956
0.400144
0.191449
0.0620896
0.0805567
0.172253
0.174754
0.235258
0.299244
0.211378
0.0669269
0.0261648
0.0391414
0.103929
0.138708
0.147678
0.138428
0.136325
0.160461
0.266235
0.468725
0.638012
0.756917
0.854502
0.80918
0.636426
0.45234
0.231385
0.0939581
0.0393655
0.0160303
0.00514424
0.00692903
0.0137037
0.0325106
0.0667428
0.0271891
0.0119511
0.0239367
0.0635722
0.075422
0.052786
0.021884
0.0078331
0.0102302
0.0394709
0.0386063
0.0271634
0.0249929
0.0315647
0.0338627
0.0357447
0.0388473
0.0426422
0.0430258
0.0409699
0.0374454
0.0311015
0.0236767
0.0235261
0.0310168
0.045144
0.0618418
0.0766832
0.0890857
0.10201
0.115641
0.11892
0.115032
0.106007
0.0936139
0.0764602
0.0565746
0.0449893
0.0474859
0.0792406
0.127539
0.120856
0.0745732
0.026384
0.0216424
0.0281001
0.0783877
0.19835
0.265183
0.267142
0.201872
0.10545
0.0736027
0.079213
0.0838061
0.0982172
0.163642
0.254535
0.22167
0.104131
0.169576
0.20214
0.436437
0.266358
0.22725
0.188069
0.115478
0.276403
0.644725
0.640307
0.321852
0.0615542
0.132729
0.269632
0.255023
0.262075
0.323433
0.210213
0.109805
0.0308344
0.0452255
0.152546
0.198574
0.215768
0.214735
0.222994
0.257203
0.378958
0.594924
0.780077
0.914384
1.02258
0.988937
0.812254
0.600295
0.321111
0.136637
0.0663274
0.037857
0.0177829
0.011569
0.0181407
0.0436422
0.0878293
0.0431866
0.0146915
0.03134
0.0794755
0.095494
0.0778642
0.0367426
0.00899883
0.0139253
0.0523959
0.0548745
0.0464716
0.0433839
0.0506564
0.051332
0.0524043
0.0542767
0.0575918
0.0574738
0.0546024
0.0496434
0.0410722
0.0312598
0.0314945
0.0406654
0.057283
0.0767671
0.0942156
0.109123
0.124614
0.139879
0.143086
0.138547
0.12811
0.113644
0.0943941
0.0737353
0.0632209
0.0666353
0.103064
0.157474
0.155047
0.112414
0.0600894
0.0393661
0.0492994
0.12356
0.265205
0.345281
0.354283
0.285932
0.164798
0.122888
0.11745
0.117197
0.133936
0.214038
0.32354
0.291485
0.0695417
0.113639
0.140744
0.835936
0.584591
0.274862
0.144199
0.18272
0.468075
0.842936
0.837309
0.502786
0.0887614
0.186371
0.329459
0.280024
0.313858
0.456013
0.246472
0.124985
0.0462265
0.0589341
0.201209
0.240684
0.263246
0.275443
0.299977
0.345658
0.478524
0.701018
0.895698
1.05101
1.1788
1.15187
0.97317
0.732944
0.409649
0.182823
0.0942362
0.0617624
0.0343053
0.0185303
0.0215543
0.0514671
0.104903
0.0577015
0.0206029
0.0380153
0.093958
0.113367
0.0973241
0.0538439
0.0117449
0.0195993
0.0640354
0.0656813
0.0636195
0.0615565
0.0665526
0.0649395
0.0641512
0.0631716
0.0653983
0.0646024
0.061135
0.0551889
0.0448881
0.0332116
0.0338162
0.044875
0.0635346
0.0854197
0.105362
0.122774
0.140736
0.157168
0.160153
0.154731
0.142565
0.125892
0.104267
0.0829562
0.0766948
0.0808196
0.116389
0.171193
0.17165
0.139993
0.0993727
0.0791603
0.0890115
0.168287
0.321679
0.412002
0.414899
0.328337
0.2034
0.180957
0.168966
0.159718
0.167342
0.248478
0.375892
0.355836
0.196897
0.0639771
0.0887178
0.943792
0.823506
0.517812
0.197922
0.236679
0.705919
0.944707
0.964611
0.644031
0.17126
0.197756
0.333624
0.283374
0.465185
0.731015
0.414349
0.162228
0.0463621
0.071357
0.210539
0.21545
0.242948
0.296967
0.355822
0.410422
0.538387
0.74323
0.944562
1.11044
1.25488
1.23569
1.06546
0.819186
0.48137
0.229111
0.123153
0.0834811
0.048958
0.0240219
0.0239437
0.0576681
0.117771
0.0701491
0.0273676
0.0443251
0.104894
0.126928
0.112428
0.067609
0.0182186
0.0263786
0.0718799
0.0650453
0.0760191
0.0748971
0.078716
0.0741462
0.0698579
0.0658456
0.0681299
0.0688547
0.0662769
0.0603137
0.0485622
0.0343312
0.0335318
0.0448444
0.0649796
0.0884758
0.110085
0.129207
0.14938
0.170835
0.176583
0.171107
0.157665
0.138312
0.11263
0.0872605
0.0843455
0.0870859
0.113388
0.16942
0.17145
0.153391
0.132273
0.118365
0.127189
0.199907
0.351479
0.442615
0.433803
0.336628
0.209291
0.219025
0.215094
0.193108
0.171141
0.252536
0.391424
0.385792
0.53406
0.06867
0.0824697
0.911297
0.991729
0.868216
0.433781
0.205607
0.905516
1.07821
1.08836
0.786965
0.27046
0.248947
0.361739
0.338132
0.69801
0.956449
0.584813
0.271277
0.0570272
0.0893455
0.191704
0.171152
0.202161
0.277274
0.37526
0.454129
0.57202
0.777987
1.02563
1.22571
1.38406
1.36084
1.14877
0.884204
0.530657
0.267058
0.151985
0.105481
0.0643359
0.0294809
0.0264852
0.0606082
0.128459
0.0812995
0.034013
0.0501858
0.11622
0.140562
0.125734
0.0791639
0.0256824
0.0337411
0.0768927
0.0599397
0.0789186
0.0837578
0.0861477
0.0765845
0.0704914
0.0692119
0.0752802
0.0781173
0.0761155
0.0699153
0.0567207
0.0402127
0.0384509
0.0499007
0.0715843
0.096807
0.120231
0.141186
0.163885
0.190292
0.198767
0.193213
0.17844
0.156493
0.126939
0.0920108
0.0823197
0.0849905
0.113171
0.184941
0.182245
0.162176
0.157833
0.150646
0.149122
0.219033
0.388545
0.498014
0.49173
0.377085
0.210255
0.236929
0.25592
0.218985
0.165575
0.267759
0.43657
0.42966
0.720122
0.111344
0.0906113
0.80244
0.942958
1.03305
0.57175
0.161344
1.06578
1.15606
1.17389
0.899836
0.360877
0.389156
0.470301
0.465599
0.898569
1.00157
0.559533
0.358692
0.0859605
0.114431
0.154823
0.142092
0.179632
0.243371
0.351931
0.440004
0.559889
0.818482
1.11747
1.33507
1.4966
1.47419
1.23339
0.94791
0.568266
0.293389
0.177218
0.126581
0.0799761
0.035332
0.0300212
0.0597706
0.134866
0.0912813
0.039563
0.0547198
0.125644
0.151654
0.137128
0.0889813
0.0329105
0.0382724
0.0759698
0.0582637
0.073539
0.0841793
0.085036
0.0734021
0.0712596
0.0778872
0.0880439
0.0910293
0.0882585
0.0809844
0.0662331
0.0483231
0.0471422
0.0603736
0.0837168
0.110545
0.13539
0.15767
0.181588
0.208373
0.217102
0.211475
0.196166
0.173591
0.143133
0.100761
0.0775837
0.0801671
0.125129
0.217637
0.207183
0.173676
0.179094
0.179367
0.167063
0.235735
0.432874
0.555629
0.559667
0.444444
0.212292
0.219773
0.245568
0.21246
0.168419
0.307389
0.501457
0.488237
0.870254
0.276552
0.137563
0.704391
0.840108
1.00642
0.493126
0.116243
1.11502
1.10545
1.25383
0.944068
0.452676
0.556343
0.636279
0.665341
1.07655
0.919615
0.468777
0.349167
0.130494
0.144875
0.124697
0.155879
0.20506
0.23586
0.31728
0.407132
0.559398
0.89899
1.22068
1.44247
1.60416
1.5798
1.33052
1.02644
0.614008
0.314757
0.197815
0.149094
0.0979577
0.0430087
0.0341981
0.0575281
0.140045
0.100378
0.0441258
0.0590415
0.135488
0.16303
0.147705
0.0975812
0.0396326
0.0344333
0.070161
0.0622694
0.0710752
0.0766716
0.0774136
0.0719241
0.0779882
0.0895125
0.100032
0.102494
0.0990228
0.0907116
0.0744159
0.0551269
0.054447
0.069217
0.0941219
0.122507
0.148786
0.172396
0.197552
0.224794
0.233756
0.228004
0.212049
0.188627
0.157382
0.11327
0.0815902
0.083515
0.143413
0.250337
0.234868
0.185866
0.197428
0.207253
0.195445
0.267293
0.477414
0.597988
0.616208
0.508375
0.226556
0.188858
0.213462
0.180725
0.170673
0.360021
0.561352
0.545363
0.99147
0.448329
0.263118
0.59792
0.751086
0.879247
0.390142
0.0885924
1.02588
1.00242
1.2938
0.931841
0.523349
0.710344
0.778418
0.835922
1.18815
0.82766
0.372723
0.276902
0.155784
0.177729
0.123142
0.193257
0.249776
0.262689
0.303654
0.389182
0.596168
0.979225
1.3026
1.52858
1.69172
1.66819
1.41408
1.10247
0.671952
0.333672
0.2102
0.167621
0.117602
0.0533922
0.0382438
0.0578412
0.146896
0.108939
0.0488524
0.0633536
0.143857
0.172731
0.157059
0.105212
0.0456999
0.0252494
0.0615418
0.0614003
0.0772433
0.074232
0.0777311
0.0790774
0.0897752
0.101113
0.110784
0.112823
0.108764
0.0995046
0.0816679
0.0609877
0.0606665
0.0767964
0.103123
0.132877
0.160349
0.184976
0.211047
0.238656
0.247856
0.241981
0.225537
0.201564
0.169902
0.125301
0.0921784
0.0950779
0.163037
0.278678
0.262683
0.190759
0.209867
0.234108
0.226303
0.299133
0.493396
0.585374
0.621822
0.551551
0.254852
0.153075
0.174852
0.138626
0.167536
0.403609
0.611017
0.594022
1.0767
0.588265
0.448584
0.506213
0.662028
0.762519
0.2899
0.137961
0.918226
0.931462
1.35111
0.932134
0.567149
0.811393
0.873915
0.940174
1.21895
0.717705
0.323814
0.202217
0.154928
0.208531
0.141025
0.227673
0.291763
0.312
0.33512
0.413001
0.662282
1.0556
1.38073
1.60797
1.77156
1.74837
1.49156
1.17169
0.732549
0.355076
0.205568
0.161563
0.126824
0.065144
0.0421689
0.0615235
0.15528
0.117055
0.0541364
0.0677452
0.15047
0.181304
0.166187
0.11221
0.0514578
0.0212645
0.0539276
0.0544341
0.0837993
0.0822937
0.0891578
0.0916579
0.101593
0.111526
0.120176
0.121893
0.117642
0.107678
0.0883233
0.0662214
0.0661464
0.0835134
0.11115
0.142176
0.170791
0.19642
0.223427
0.251484
0.260936
0.254917
0.237913
0.213239
0.181246
0.136576
0.105222
0.109624
0.182691
0.304493
0.291253
0.189381
0.20711
0.254507
0.252022
0.31881
0.484
0.542962
0.583875
0.567467
0.292088
0.121266
0.135415
0.105409
0.178126
0.444633
0.655369
0.638855
1.09466
0.690952
0.610341
0.40363
0.574101
0.618926
0.248553
0.27414
0.804174
0.849608
1.40115
0.980057
0.586347
0.813702
0.878669
0.978627
1.16707
0.613086
0.362559
0.150704
0.151927
0.203575
0.165595
0.253715
0.325064
0.357959
0.387006
0.468144
0.727162
1.11851
1.44541
1.67543
1.84073
1.81882
1.5592
1.23372
0.787888
0.388743
0.188951
0.137871
0.113631
0.0611885
0.0442004
0.0655043
0.163045
0.124578
0.0593143
0.0714804
0.150362
0.185863
0.174366
0.118343
0.0570883
0.0260222
0.0528748
0.0463847
0.0789834
0.0895317
0.101093
0.103598
0.112005
0.118544
0.123769
0.12536
0.122674
0.113706
0.0938738
0.0708779
0.0710662
0.0895949
0.118446
0.150631
0.180248
0.206694
0.234433
0.262845
0.272539
0.266384
0.248877
0.223516
0.191248
0.146847
0.117502
0.123027
0.19981
0.327321
0.317064
0.196421
0.18194
0.246069
0.247105
0.308074
0.448698
0.489064
0.530763
0.555685
0.325821
0.106402
0.0936806
0.086422
0.20043
0.481592
0.694766
0.679253
1.16676
0.796667
0.731321
0.292515
0.495225
0.520314
0.368364
0.433155
0.740361
0.774276
1.4208
1.06288
0.622229
0.76472
0.791282
0.957441
1.0583
0.563959
0.404309
0.131047
0.147156
0.178091
0.183041
0.276876
0.355422
0.397937
0.435671
0.522769
0.785545
1.17855
1.50728
1.73836
1.90438
1.8835
1.62169
1.28949
0.838886
0.431286
0.184356
0.109373
0.0893173
0.0432546
0.0439537
0.0680268
0.170279
0.131689
0.0640959
0.0748504
0.143892
0.187385
0.181813
0.121654
0.062642
0.0352706
0.0614197
0.037869
0.0667287
0.089193
0.109021
0.112847
0.118283
0.117284
0.115737
0.117265
0.117823
0.113375
0.0955954
0.0736174
0.0750387
0.0950998
0.125167
0.158451
0.189029
0.216268
0.244722
0.273495
0.283422
0.277127
0.25909
0.232768
0.199897
0.156063
0.128465
0.134976
0.215406
0.34514
0.338197
0.216804
0.148603
0.200842
0.203359
0.266171
0.400872
0.434398
0.475568
0.516621
0.352648
0.121401
0.0683718
0.0881198
0.227099
0.516625
0.731255
0.716614
1.28392
0.891977
0.783201
0.216103
0.414959
0.527571
0.514902
0.541833
0.748128
0.696958
1.40196
1.13037
0.662635
0.675637
0.679667
0.845965
0.925884
0.565702
0.44063
0.136391
0.134661
0.148229
0.194416
0.295952
0.381115
0.431593
0.476256
0.568994
0.835719
1.23
1.56095
1.79393
1.96135
1.94179
1.67811
1.33578
0.881866
0.471006
0.206061
0.0858421
0.0643669
0.0272622
0.0421721
0.0687077
0.175405
0.137804
0.0685248
0.0778983
0.133898
0.18639
0.187994
0.122522
0.0680318
0.0447825
0.0706972
0.027468
0.0523698
0.0795365
0.107599
0.115493
0.115384
0.106279
0.100239
0.101595
0.103996
0.102758
0.0896682
0.0717675
0.0765888
0.0994155
0.13115
0.165691
0.197196
0.225111
0.25415
0.283209
0.293354
0.286929
0.26844
0.241072
0.2072
0.163925
0.138262
0.145489
0.228059
0.352784
0.348502
0.237741
0.130076
0.149562
0.15308
0.222853
0.345508
0.376357
0.416352
0.462059
0.359036
0.158046
0.0829355
0.108879
0.25253
0.547767
0.761303
0.748164
1.44373
0.841691
0.816477
0.221102
0.300268
0.673054
0.662225
0.663938
0.803112
0.626112
1.35908
1.21188
0.659724
0.521129
0.508302
0.680229
0.732008
0.586996
0.484505
0.170192
0.112291
0.107685
0.208294
0.32299
0.4174
0.477504
0.531674
0.631284
0.905269
1.3042
1.63842
1.87208
2.0405
2.02279
1.75647
1.391
0.927161
0.519345
0.254799
0.0739173
0.0321373
0.0200544
0.0368685
0.0667918
0.17735
0.143422
0.074575
0.082298
0.121668
0.183875
0.195723
0.12444
0.0761138
0.0579101
0.0786568
0.0159269
0.0316212
0.0573462
0.0933145
0.106837
0.0993744
0.0820921
0.0737823
0.0747679
0.0777282
0.076849
0.0692849
0.0609145
0.0741646
0.102823
0.138217
0.175385
0.208668
0.237646
0.267532
0.296998
0.307439
0.30082
0.281643
0.252925
0.2169
0.174095
0.151477
0.160037
0.243603
0.351754
0.349273
0.25998
0.131673
0.0992016
0.103331
0.17561
0.261718
0.285314
0.322857
0.376541
0.336437
0.214266
0.128569
0.149653
0.288176
0.586446
0.783464
0.778292
1.60095
0.694555
0.795158
0.425159
0.226418
0.824329
0.784395
0.751554
0.699888
0.634621
1.37573
1.245
0.63616
0.360459
0.322991
0.469403
0.517979
0.6445
0.504437
0.216519
0.1046
0.0930602
0.225698
0.347436
0.45291
0.523698
0.587661
0.694688
0.977811
1.3829
1.72098
1.95752
2.12839
2.11359
1.84498
1.45751
0.952169
0.53712
0.306563
0.10205
0.0273235
0.0227424
0.0323339
0.0620469
0.161361
0.138511
0.0796374
0.0865741
0.117239
0.173949
0.199769
0.130968
0.0876235
0.069968
0.0708701
0.0147909
0.0204221
0.0327854
0.061634
0.0776229
0.0677225
0.0512988
0.0454297
0.0462098
0.0487739
0.0489818
0.0455107
0.0478399
0.0691352
0.102659
0.142779
0.184952
0.221786
0.252385
0.283157
0.312959
0.323727
0.3169
0.296907
0.267383
0.229317
0.184351
0.164947
0.174668
0.247701
0.342013
0.33893
0.265783
0.152885
0.0948435
0.0839543
0.117864
0.161527
0.175156
0.20551
0.248235
0.247597
0.217426
0.165515
0.181687
0.319093
0.606965
0.747786
0.768801
1.74499
0.567016
0.77629
0.680493
0.397808
0.971271
0.916763
0.725837
0.540408
0.662352
1.44918
1.26667
0.701001
0.347208
0.236328
0.294947
0.375369
0.692055
0.450644
0.224909
0.137108
0.108536
0.243127
0.370332
0.487994
0.567234
0.638678
0.750966
1.04409
1.45707
1.7992
2.03396
2.20404
2.19176
1.92108
1.53282
0.988762
0.515438
0.325196
0.137346
0.0397611
0.0299811
0.0342777
0.059595
0.135222
0.124983
0.0821639
0.0891919
0.112035
0.160229
0.198114
0.138844
0.0984224
0.0654497
0.0568695
0.0192296
0.024638
0.0246912
0.0371299
0.0477297
0.0416477
0.0343337
0.0341926
0.0352639
0.0367236
0.0388598
0.0411906
0.048913
0.0719586
0.106753
0.149328
0.194457
0.233522
0.265774
0.297618
0.327732
0.338737
0.33173
0.310896
0.280482
0.242252
0.193329
0.175602
0.186554
0.254773
0.355544
0.336929
0.260816
0.17496
0.11309
0.0809997
0.0808086
0.0999414
0.11248
0.141362
0.158877
0.162259
0.168254
0.167414
0.201394
0.338947
0.596785
0.685972
0.721412
1.81263
0.542412
0.643832
0.946567
0.754244
1.08336
1.01307
0.73732
0.400655
0.598826
1.4907
1.27745
0.773744
0.478178
0.235324
0.178115
0.330276
0.66561
0.379285
0.2098
0.215925
0.148436
0.261239
0.391476
0.518865
0.604625
0.682101
0.798358
1.09884
1.51253
1.84965
2.08032
2.25794
2.25095
1.98376
1.60397
1.05978
0.485128
0.315681
0.162205
0.0550222
0.0382306
0.0392022
0.0582372
0.105903
0.110529
0.0843752
0.0904633
0.10333
0.145317
0.191164
0.144455
0.0965459
0.0499694
0.0407362
0.022779
0.0291219
0.026857
0.0294041
0.0308193
0.0297911
0.0296483
0.0307844
0.032092
0.0337593
0.0365692
0.0413863
0.053566
0.0791549
0.115623
0.159599
0.205426
0.245127
0.278245
0.310748
0.341055
0.352238
0.345089
0.323519
0.292225
0.25407
0.202252
0.182387
0.19388
0.27189
0.3919
0.357831
0.257447
0.189275
0.130672
0.0849259
0.0700586
0.0754828
0.0967391
0.134295
0.135337
0.120012
0.127438
0.154209
0.209244
0.34216
0.561223
0.62041
0.656348
1.73486
0.551334
0.50686
1.10867
0.970037
1.12396
1.08348
0.807927
0.303147
0.528862
1.4483
1.28876
0.841432
0.56733
0.206467
0.100502
0.337816
0.56358
0.325454
0.203196
0.223039
0.1853
0.278964
0.412719
0.549621
0.64006
0.722918
0.841889
1.14589
1.54465
1.86354
2.07647
2.27238
2.28659
2.03061
1.669
1.13977
0.48785
0.299084
0.176465
0.0679847
0.0431744
0.0401809
0.0561126
0.0815187
0.0970582
0.0856799
0.0918974
0.108159
0.132107
0.181101
0.146912
0.0796885
0.0321075
0.0249054
0.0252691
0.0320612
0.0291173
0.0293265
0.0279792
0.026994
0.0274976
0.0286724
0.0300772
0.0320344
0.0354791
0.0425605
0.0583668
0.0863159
0.124297
0.169358
0.216132
0.256772
0.290409
0.323189
0.353585
0.364863
0.357595
0.33532
0.30306
0.264956
0.212601
0.185416
0.199469
0.288333
0.409336
0.37333
0.249347
0.191835
0.143971
0.0936473
0.0691603
0.0669906
0.0947911
0.136129
0.130321
0.107419
0.115496
0.153723
0.212296
0.337282
0.514412
0.556185
0.591427
1.59291
0.4805
0.336223
1.0419
0.989119
1.02972
1.04954
0.82554
0.270549
0.46579
1.34634
1.23464
0.845229
0.529589
0.127804
0.0622282
0.335233
0.449798
0.279037
0.194942
0.196225
0.178445
0.296963
0.432408
0.575804
0.670108
0.757376
0.877453
1.17246
1.53702
1.82347
2.00994
2.21694
2.27754
2.0515
1.72342
1.21392
0.542102
0.279535
0.178935
0.0774584
0.0437292
0.0372949
0.0524614
0.0685287
0.0842004
0.0850561
0.0922622
0.110718
0.118637
0.166327
0.145249
0.0611015
0.0207293
0.0160988
0.0251137
0.0309614
0.0292124
0.0292919
0.0274991
0.0259928
0.0260431
0.0269847
0.0284056
0.0306021
0.0348552
0.0441455
0.0628836
0.0929343
0.132314
0.178479
0.226266
0.267846
0.301907
0.334859
0.365227
0.376537
0.369157
0.346257
0.313034
0.274593
0.223695
0.186522
0.200423
0.291013
0.390239
0.353346
0.221686
0.182395
0.149592
0.101384
0.072826
0.0617924
0.0916741
0.136263
0.127064
0.103924
0.104224
0.149458
0.210671
0.323926
0.461537
0.49264
0.526891
1.42774
0.444581
0.220209
0.915692
0.914472
0.929129
0.962375
0.767773
0.284685
0.405601
1.22751
1.11159
0.774044
0.451357
0.0737871
0.0499111
0.310411
0.33744
0.222848
0.17716
0.158216
0.16154
0.314593
0.449682
0.593641
0.696195
0.787598
0.906064
1.17489
1.49303
1.74178
1.91938
2.12618
2.21352
2.03899
1.75902
1.28109
0.613936
0.266122
0.167406
0.0812362
0.0430571
0.0348441
0.0477626
0.0610302
0.0759997
0.0834234
0.0908008
0.102486
0.104933
0.148159
0.137659
0.0549633
0.0212202
0.0157721
0.0230671
0.027278
0.0265712
0.0277691
0.0266217
0.0249908
0.0247762
0.0255832
0.0269912
0.0294483
0.0346417
0.0460642
0.0672445
0.0991253
0.139791
0.187049
0.235885
0.278423
0.312901
0.345983
0.376296
0.387589
0.380096
0.356647
0.322485
0.283517
0.234527
0.191662
0.19853
0.276133
0.350513
0.313201
0.193211
0.165844
0.144753
0.104175
0.0764531
0.0580431
0.0826277
0.120541
0.116476
0.10307
0.0993063
0.138862
0.199408
0.298839
0.404869
0.429235
0.463735
0.558282
0.380943
0.071602
0.267901
0.320783
0.345359
0.380567
0.294401
0.183463
0.161289
0.531232
0.426076
0.279795
0.118185
0.0408937
0.0221848
0.05934
0.0869018
0.0733092
0.0636746
0.0872089
0.248109
0.406031
0.520732
0.634776
0.783505
0.904879
1.01285
1.09671
1.15306
1.23537
1.41219
1.62987
1.77161
1.86107
1.83341
1.5341
0.933499
0.275067
0.101151
0.0751311
0.0546109
0.0361528
0.0272787
0.0300601
0.0492805
0.0717771
0.0722276
0.0468189
0.0402529
0.056227
0.0765417
0.0616323
0.0423941
0.020227
0.0122945
0.0117638
0.0134274
0.0177509
0.0193265
0.0181525
0.0180132
0.01848
0.019678
0.0235427
0.0346821
0.056698
0.0888646
0.128808
0.1756
0.228367
0.282632
0.330008
0.366246
0.3993
0.42881
0.439563
0.43132
0.40552
0.367277
0.324317
0.280374
0.230311
0.184127
0.159489
0.145392
0.128719
0.110114
0.0883032
0.0892466
0.0898682
0.0830957
0.059313
0.0486788
0.055381
0.0713341
0.0903283
0.0977057
0.100472
0.117834
0.143513
0.15214
0.175851
0.21599
0.0852138
0.146444
0.128187
0.0770488
0.043737
0.0457733
0.0572732
0.0544175
0.0502032
0.0595504
0.107934
0.102301
0.0561957
0.0238666
0.0160345
0.0179372
0.0247379
0.0634485
0.0593065
0.0683915
0.161542
0.306351
0.35505
0.401417
0.460557
0.559937
0.666226
0.726852
0.706547
0.643932
0.625002
0.682414
0.81801
1.00312
1.14372
1.23144
1.34289
1.15206
0.605734
0.176141
0.0795748
0.0572314
0.0438835
0.0345645
0.0301767
0.0313273
0.0355519
0.0352965
0.031911
0.0297163
0.0311959
0.0348512
0.0387173
0.0344716
0.0218234
0.0135371
0.0101018
0.00770328
0.00667799
0.00697282
0.0070984
0.00779353
0.0100014
0.016823
0.0320464
0.0566278
0.0887003
0.127027
0.172227
0.224925
0.284965
0.347812
0.403133
0.442181
0.472888
0.500037
0.508068
0.49468
0.464595
0.427089
0.384431
0.338861
0.28874
0.232669
0.158331
0.0957857
0.0884658
0.0942526
0.121909
0.140445
0.142111
0.137952
0.12709
0.100397
0.0768536
0.0731325
0.0778674
0.0920064
0.100214
0.09904
0.0912961
0.0729916
0.0757642
0.092955
0.00645897
0.0171133
0.0475394
0.057841
0.0466808
0.0377166
0.048107
0.0667263
0.0681722
0.0660368
0.0768258
0.0999965
0.11495
0.0813798
0.0414564
0.0387333
0.0515416
0.107654
0.118401
0.126611
0.203001
0.255657
0.259071
0.287097
0.323544
0.378236
0.451149
0.507797
0.53511
0.520231
0.476665
0.399169
0.335213
0.404554
0.542268
0.687542
0.907408
1.07612
0.862906
0.381117
0.122338
0.0666193
0.0508539
0.0391489
0.0310034
0.0254098
0.0221965
0.0198693
0.0174179
0.0153216
0.0157077
0.0176739
0.0201198
0.0198696
0.0160774
0.0111537
0.00700608
0.00424258
0.00313279
0.00343892
0.00636883
0.0143106
0.0277827
0.0464161
0.0691647
0.0959748
0.127951
0.166748
0.213592
0.269473
0.334293
0.403875
0.467255
0.510357
0.539856
0.564627
0.568322
0.550154
0.51319
0.47012
0.428285
0.386843
0.347606
0.310754
0.276159
0.248149
0.231018
0.225012
0.226016
0.228585
0.229119
0.227575
0.223283
0.214385
0.201637
0.188223
0.176176
0.164973
0.153189
0.138307
0.120387
0.0968091
0.0790884
0.0856626
0.014596
0.0120282
0.0118507
0.0141326
0.0149405
0.0134307
0.0158859
0.026785
0.0391198
0.0487152
0.0631444
0.0994827
0.165582
0.171768
0.13976
0.0953497
0.0887124
0.123802
0.168377
0.181381
0.203528
0.211583
0.236076
0.275433
0.317437
0.371397
0.430782
0.489788
0.531815
0.533845
0.500106
0.406432
0.248469
0.162336
0.193086
0.29957
0.515442
0.86256
0.907542
0.611127
0.21805
0.0878766
0.0549671
0.0415638
0.0337423
0.0274494
0.0209715
0.0149857
0.0110495
0.00786148
0.00654138
0.00671166
0.00766963
0.00764817
0.00670533
0.00469471
0.00240692
0.00142109
0.00316488
0.0127836
0.0318894
0.0552335
0.0768348
0.0969347
0.117423
0.140566
0.169336
0.206081
0.252559
0.309178
0.376693
0.451813
0.524045
0.575727
0.609693
0.640009
0.640058
0.606191
0.550665
0.497531
0.454972
0.418461
0.387364
0.362271
0.338007
0.314052
0.296121
0.286107
0.28203
0.281396
0.282367
0.283583
0.281509
0.27529
0.266171
0.255599
0.243327
0.229385
0.214245
0.197728
0.178037
0.154417
0.125831
0.114224
0.0206987
0.0213306
0.0189654
0.0142546
0.0118953
0.0118319
0.0129228
0.0160709
0.0227614
0.0356927
0.0565082
0.0940869
0.166343
0.192622
0.183175
0.161355
0.129284
0.133894
0.162343
0.186739
0.20281
0.202523
0.218011
0.241936
0.26673
0.297218
0.33158
0.369649
0.411474
0.42608
0.415309
0.371137
0.281891
0.15286
0.108726
0.146224
0.267986
0.532466
0.759687
0.64426
0.326105
0.118623
0.0611576
0.045521
0.037262
0.0291283
0.0197695
0.0112763
0.00644021
0.00376287
0.00238989
0.00206379
0.00215623
0.00211481
0.00177518
0.00113518
0.000652359
0.00366201
0.0201843
0.0507612
0.0856249
0.11581
0.137959
0.155995
0.172786
0.191382
0.215549
0.248109
0.291383
0.345937
0.413108
0.491057
0.573647
0.639534
0.684393
0.714907
0.705575
0.650807
0.570714
0.503257
0.457634
0.422309
0.394211
0.37303
0.353272
0.33344
0.319444
0.31175
0.308103
0.308031
0.309129
0.310501
0.310342
0.309821
0.307628
0.301829
0.290816
0.276829
0.262862
0.248143
0.23023
0.20531
0.172733
0.14406
0.0486589
0.0421886
0.0347521
0.0248393
0.0181514
0.0172589
0.0188946
0.025038
0.0376634
0.0555262
0.076505
0.10087
0.129752
0.164643
0.204123
0.211592
0.192813
0.158392
0.164196
0.182589
0.194737
0.192026
0.191266
0.188481
0.185342
0.188539
0.198971
0.217695
0.243942
0.264369
0.26568
0.261674
0.238236
0.187433
0.13546
0.140924
0.219407
0.345644
0.543396
0.547273
0.349646
0.136619
0.0676337
0.0492315
0.0393302
0.0301025
0.0199373
0.010813
0.00536131
0.00256424
0.00130385
0.000829319
0.000696136
0.000604485
0.00046421
0.000368506
0.00394233
0.0250151
0.0634436
0.108877
0.149833
0.180569
0.20213
0.218462
0.231942
0.246258
0.265659
0.293044
0.33076
0.379597
0.442967
0.523341
0.617918
0.701278
0.753143
0.743573
0.699108
0.64156
0.553786
0.480119
0.435754
0.402974
0.37747
0.359043
0.345536
0.334253
0.325385
0.319056
0.314958
0.314613
0.315918
0.317566
0.319699
0.328012
0.336845
0.336301
0.328819
0.316188
0.303209
0.289883
0.273354
0.248915
0.21554
0.174952
0.101661
0.0832373
0.0583861
0.04359
0.0363706
0.035756
0.0395928
0.0523705
0.0774798
0.106691
0.12087
0.129527
0.139949
0.157595
0.192137
0.2198
0.216559
0.187466
0.172366
0.175735
0.178168
0.174439
0.16007
0.132922
0.110048
0.103253
0.106149
0.117107
0.13712
0.161888
0.183773
0.208339
0.213509
0.204886
0.193622
0.19833
0.227881
0.312173
0.371814
0.410251
0.307259
0.135315
0.0684838
0.0508051
0.0407068
0.030646
0.0195756
0.0099917
0.00440253
0.00187793
0.000882049
0.000483843
0.000325004
0.000236761
0.000205255
0.00280642
0.0231243
0.0656942
0.118837
0.171363
0.212742
0.242304
0.2637
0.279959
0.291391
0.301923
0.316512
0.338234
0.369161
0.408885
0.462662
0.545064
0.646656
0.718158
0.719417
0.666671
0.596528
0.542755
0.473778
0.41868
0.382653
0.352492
0.328782
0.311951
0.302714
0.298932
0.297547
0.299121
0.300668
0.301185
0.30066
0.298386
0.297493
0.304926
0.321358
0.334893
0.341135
0.338329
0.329537
0.31764
0.302784
0.279794
0.246326
0.203312
0.161199
0.135008
0.102312
0.0856933
0.0800518
0.0804455
0.0879557
0.109626
0.153225
0.19225
0.196231
0.187725
0.169952
0.167936
0.17845
0.203453
0.228559
0.223463
0.200372
0.182867
0.169535
0.15554
0.137567
0.10857
0.078311
0.0693037
0.0727681
0.0859161
0.107574
0.132881
0.163223
0.201007
0.23278
0.241416
0.241753
0.243674
0.266893
0.307024
0.298739
0.283333
0.233235
0.118886
0.0656034
0.0505519
0.0403781
0.0297479
0.0180913
0.00888785
0.00389939
0.00170151
0.000822296
0.000439098
0.000271702
0.000157786
0.00135152
0.0172915
0.0603914
0.119819
0.182596
0.235771
0.274487
0.301974
0.32422
0.340541
0.348885
0.353802
0.362118
0.377571
0.399692
0.427348
0.465635
0.534668
0.599697
0.603248
0.572949
0.52023
0.455373
0.380284
0.347143
0.32827
0.304434
0.279971
0.260771
0.247467
0.237658
0.235035
0.239848
0.252312
0.270153
0.276408
0.273557
0.26666
0.256857
0.247688
0.25127
0.270454
0.299461
0.326274
0.339928
0.336187
0.322465
0.300827
0.271214
0.230903
0.211911
0.198117
0.181146
0.159957
0.151442
0.152177
0.1616
0.187295
0.231034
0.253118
0.251413
0.236348
0.20593
0.176228
0.171338
0.181073
0.20601
0.223448
0.223131
0.206069
0.178913
0.15623
0.131337
0.0969097
0.0664127
0.0612598
0.0713357
0.0965459
0.12122
0.140941
0.171506
0.227841
0.276471
0.287833
0.284463
0.274324
0.281064
0.303062
0.271871
0.202187
0.148662
0.0871991
0.0594067
0.0485218
0.0384172
0.0274646
0.0162685
0.00823939
0.00375612
0.00170447
0.000837487
0.000460273
0.000223139
0.000460716
0.00888475
0.046344
0.107005
0.177633
0.244786
0.295626
0.331458
0.358344
0.382847
0.398841
0.400493
0.395542
0.394822
0.402241
0.41561
0.427391
0.435994
0.447502
0.446485
0.419038
0.394271
0.360133
0.295798
0.235264
0.234405
0.230896
0.215752
0.197618
0.184089
0.175238
0.168255
0.166876
0.173866
0.195033
0.230151
0.247821
0.246351
0.23643
0.220893
0.200791
0.189178
0.193267
0.213389
0.254622
0.295641
0.320953
0.325651
0.309518
0.283074
0.248988
0.266058
0.267386
0.260414
0.242195
0.220484
0.215033
0.217953
0.229274
0.241158
0.249601
0.250192
0.242714
0.22117
0.191084
0.167296
0.164569
0.17458
0.196717
0.217743
0.219539
0.203251
0.172919
0.139129
0.0979807
0.0711409
0.0752049
0.106637
0.143974
0.157105
0.168615
0.195363
0.25376
0.307917
0.322015
0.317027
0.300114
0.27997
0.271887
0.234967
0.150232
0.0910079
0.0639781
0.0528417
0.0447228
0.0353478
0.0249171
0.0148875