/*--------------------------------*- C++ -*----------------------------------*\
| =========                 |                                                 |
| \\      /  F ield         | OpenFOAM: The Open Source CFD Toolbox           |
|  \\    /   O peration     | Version:  v1912                                 |
|   \\  /    A nd           | Website:  www.openfoam.com                      |
|    \\/     M anipulation  |                                                 |
\*---------------------------------------------------------------------------*/
FoamFile
{
    version     2.0;
    format      ascii;
    class       volScalarField;
    location    "40";
    object      nut;
}
// * * * * * * * * * * * * * * * * * * * * * * * * * * * * * * * * * * * * * //

dimensions      [0 2 -1 0 0 0 0];


internalField   nonuniform List<scalar> 
14268
(
0.000217996
0.000230129
0.000230664
0.000278691
0.000260745
0.000340746
0.000266469
0.000128381
0.000216724
0.000255623
0.000269168
0.00023339
0.000145959
0.000126199
0.000168385
0.000171811
0.000204572
0.000248791
0.000215628
0.000117962
7.0424e-05
8.57997e-05
0.000114046
0.000131142
0.000138553
0.000141512
0.000148612
0.000168655
0.000222868
0.000298468
0.00035468
0.000390162
0.000418703
0.00040518
0.000361532
0.000301965
0.000194995
0.000104958
5.27768e-05
2.98828e-05
2.16901e-05
2.61288e-05
4.17991e-05
6.65714e-05
0.000101105
5.01259e-05
3.36494e-05
5.6869e-05
0.000110351
0.00011441
8.10797e-05
4.76124e-05
3.58119e-05
2.73634e-05
7.60988e-05
6.32199e-05
5.02455e-05
6.20399e-05
7.0453e-05
6.15039e-05
5.71142e-05
5.97398e-05
6.22827e-05
6.05241e-05
5.77859e-05
5.40212e-05
4.72189e-05
3.92297e-05
3.93151e-05
5.23128e-05
8.00916e-05
0.000104366
0.000122284
0.000134512
0.000146143
0.000157716
0.000159205
0.000153909
0.000143536
0.000129215
0.000107607
7.75748e-05
6.59249e-05
6.95393e-05
0.000108736
0.000144801
0.000131223
9.07906e-05
6.02918e-05
5.92661e-05
7.34198e-05
0.000117181
0.000189148
0.000223741
0.000229082
0.000204936
0.000149797
0.000131855
0.000126923
0.000127889
0.000147336
0.000198164
0.000250337
0.000231814
0.0026187
0.00191704
0.00181752
0.00196151
0.001574
0.00317372
0.00247697
0.000789823
0.00162219
0.0021836
0.00216902
0.00181436
0.00102519
0.00138771
0.00183878
0.0016333
0.0019364
0.00239316
0.00204978
0.000726855
0.000410975
0.000555728
0.00104594
0.00135747
0.00142689
0.00134324
0.00133937
0.00147202
0.00203814
0.00300386
0.0037084
0.00408676
0.00444295
0.00436106
0.00377679
0.00339898
0.00235867
0.0012551
0.000647033
0.00031871
0.000176018
0.00023214
0.000388119
0.000702155
0.00116641
0.000588098
0.000359564
0.000564027
0.00110672
0.00124886
0.000888184
0.000494927
0.00034595
0.000291619
0.000824749
0.000646219
0.000444718
0.000517176
0.00064479
0.000645298
0.000643394
0.000715678
0.00080247
0.000809298
0.000776171
0.000736447
0.000647263
0.000531301
0.000560156
0.000792339
0.00109111
0.00131806
0.00145587
0.0015268
0.0015943
0.0016936
0.00172592
0.00168891
0.0016101
0.00150391
0.00132966
0.00105236
0.000768847
0.000779014
0.00119174
0.00175846
0.00167025
0.00111141
0.000526199
0.00048855
0.00060149
0.00106333
0.00195704
0.00228215
0.00225959
0.00194892
0.00139512
0.00107435
0.0011033
0.00112817
0.00131432
0.00181334
0.00237975
0.00226142
0.00395886
0.00472152
0.00388126
0.00389734
0.00303074
0.00501624
0.0052507
0.00195174
0.00367568
0.00689961
0.00676257
0.00422451
0.00193485
0.00320641
0.00569543
0.00500212
0.0055474
0.00613147
0.00505459
0.00214671
0.000639089
0.000900477
0.00308646
0.00416182
0.00447165
0.00421636
0.00410168
0.00427249
0.00564137
0.00799523
0.00963075
0.0105931
0.0115474
0.0116665
0.0104706
0.00934209
0.00627078
0.0032697
0.00171583
0.00078946
0.000258289
0.000403135
0.000834224
0.00195029
0.003503
0.0017836
0.000750965
0.00148215
0.00284902
0.00338321
0.00282587
0.0012207
0.000467414
0.000770093
0.00224867
0.00201841
0.00121191
0.00102069
0.00152535
0.00198131
0.00229909
0.0024851
0.00262902
0.00268911
0.00264738
0.00254981
0.00230158
0.00196451
0.00204959
0.00259109
0.00333341
0.00386749
0.00412893
0.00423581
0.00432919
0.00454919
0.00464643
0.00458913
0.00445131
0.00429132
0.004038
0.00343298
0.00262762
0.00248111
0.0034701
0.00501701
0.00509267
0.00378313
0.00142675
0.00109392
0.00130517
0.00303098
0.00540497
0.00620924
0.00633265
0.00573394
0.00394608
0.00279401
0.00281507
0.00289018
0.00327049
0.00466083
0.00634929
0.00588136
0.00300678
0.00392202
0.00552258
0.0105326
0.00669926
0.00539907
0.00467423
0.00300128
0.00642981
0.012382
0.013808
0.00888976
0.00239604
0.00603777
0.0108232
0.00902721
0.00745984
0.0079462
0.00615707
0.00422486
0.000932876
0.00135111
0.00525285
0.00710981
0.00787248
0.00801995
0.00837468
0.00861122
0.0102544
0.0133106
0.015663
0.0171501
0.0187578
0.0195744
0.018472
0.0171224
0.0121643
0.00680106
0.00399804
0.00242222
0.00116506
0.000819604
0.00143006
0.00344311
0.00609139
0.00380351
0.0012822
0.00251948
0.00460207
0.00553859
0.00537944
0.002848
0.000765647
0.00132482
0.00377719
0.00363289
0.00297871
0.00271104
0.00348778
0.00401144
0.00439404
0.00452082
0.00461654
0.00462454
0.00452408
0.00434267
0.00392692
0.00337994
0.0036623
0.00465173
0.00592592
0.00682173
0.00719194
0.00729607
0.00736734
0.00765285
0.00776016
0.00763351
0.00737877
0.00710534
0.00672324
0.00577837
0.00473195
0.00437813
0.00566553
0.00802897
0.00838542
0.00713498
0.00416671
0.00260776
0.00297554
0.00592913
0.00914822
0.0104055
0.0109959
0.0109192
0.00797502
0.00587238
0.00516769
0.00504118
0.00571896
0.0081406
0.0111117
0.0105273
0.00211605
0.00320638
0.00438958
0.0249186
0.0163624
0.00750782
0.00412723
0.00505747
0.0124596
0.018759
0.0212679
0.0162474
0.00395291
0.00906979
0.0145786
0.0110751
0.0102813
0.0131302
0.00843742
0.0053434
0.00173889
0.00211021
0.00772469
0.00964449
0.0108074
0.0117951
0.0131128
0.0135838
0.0154438
0.0190296
0.0218815
0.0241193
0.0267501
0.0284111
0.0278913
0.0262603
0.0194763
0.0113134
0.00677191
0.00448921
0.0024647
0.00149219
0.0020069
0.0048638
0.00882768
0.0061287
0.00224099
0.0036388
0.00649946
0.00786347
0.00798167
0.00513418
0.00127827
0.00211631
0.00539791
0.00507999
0.00500665
0.00486244
0.0056677
0.0060853
0.00637296
0.00624719
0.00625807
0.00618491
0.0060158
0.00574758
0.0051445
0.00434124
0.0048285
0.00642097
0.00834532
0.00973557
0.0103378
0.0105122
0.0105995
0.0109541
0.0110552
0.0108207
0.0103824
0.00992413
0.00928359
0.00783194
0.00680386
0.00615794
0.00747213
0.0104041
0.0109793
0.0102828
0.00786556
0.00603862
0.00615851
0.00923574
0.0130152
0.0147111
0.0152936
0.0149942
0.0114639
0.00995696
0.00852542
0.00798283
0.00841071
0.0114592
0.0159567
0.0158517
0.00689977
0.00209838
0.00302358
0.0323367
0.0253264
0.0155348
0.00599072
0.00671417
0.0207512
0.0240688
0.0278968
0.0233364
0.00822281
0.00990323
0.0156078
0.0119539
0.017509
0.0253516
0.0162308
0.00741408
0.00197683
0.00287366
0.00862466
0.00925533
0.0107825
0.0140873
0.0174112
0.0181548
0.019878
0.0233629
0.026854
0.0297758
0.0336978
0.0362051
0.0365909
0.034923
0.0270723
0.0164533
0.0098662
0.0065286
0.0036796
0.00206967
0.00252056
0.00622652
0.0115445
0.00852946
0.00345101
0.00482732
0.00833296
0.0101435
0.0105256
0.00744173
0.00228737
0.00304786
0.00677896
0.00567305
0.00687338
0.0068754
0.00774257
0.00791282
0.00785553
0.00741783
0.00747243
0.0075465
0.00746282
0.00720438
0.00643498
0.00525064
0.00568207
0.00768916
0.0103207
0.0123028
0.0132198
0.0135154
0.0137044
0.0145442
0.0149033
0.0145996
0.0139573
0.0131909
0.0119751
0.00956031
0.00850653
0.00739913
0.00819655
0.0118302
0.0125249
0.0125774
0.0114219
0.00975659
0.00948169
0.0120776
0.0160672
0.0180344
0.0182178
0.017466
0.0131328
0.0132113
0.0117904
0.0106716
0.00968346
0.0134698
0.0194695
0.0200964
0.0206444
0.00259111
0.00312824
0.0334152
0.0329305
0.0283911
0.01354
0.00581394
0.0286072
0.0309248
0.0349978
0.0314536
0.0135815
0.0127076
0.0177388
0.0151555
0.0294494
0.0375132
0.025481
0.0129925
0.00261282
0.00391733
0.00845243
0.00795428
0.00975236
0.0142723
0.0199401
0.0219839
0.0234353
0.027534
0.0334332
0.038084
0.0433942
0.0464634
0.0454234
0.0429204
0.0337888
0.0212988
0.0130662
0.00865889
0.00500479
0.00265701
0.00306439
0.00726321
0.0142288
0.0109757
0.00476147
0.00604356
0.0103286
0.0126019
0.0130835
0.00972067
0.00348906
0.00412041
0.00793533
0.00580516
0.00793373
0.00859375
0.00944595
0.00903246
0.00877466
0.00868325
0.00922369
0.00955496
0.00955253
0.00932477
0.00846225
0.00702098
0.00755365
0.00999578
0.0133498
0.0159033
0.0171232
0.0175158
0.0178057
0.0191737
0.0198308
0.0194564
0.0185942
0.0175074
0.015672
0.0114716
0.00926461
0.00796453
0.00913984
0.0146071
0.0149519
0.0145465
0.0145391
0.013138
0.0116873
0.0142425
0.0197224
0.0228761
0.0233663
0.0219521
0.0144102
0.0152947
0.0149138
0.0130693
0.0104128
0.0162759
0.0250892
0.0255766
0.0299637
0.00467402
0.00385132
0.0306029
0.0330458
0.0369505
0.0192031
0.00472835
0.0354884
0.0365511
0.0415586
0.0392233
0.0187102
0.0202153
0.0240358
0.0220125
0.0414157
0.0425323
0.0261196
0.0181418
0.00418073
0.00531034
0.00720364
0.00714113
0.00952466
0.0134506
0.0198735
0.0228065
0.0248931
0.0322561
0.0417079
0.0481069
0.0545482
0.0582291
0.055306
0.0513864
0.0398749
0.0253027
0.0160309
0.0106942
0.00631591
0.00326837
0.00372937
0.00783815
0.0165838
0.013416
0.00600174
0.00715673
0.0122744
0.0150114
0.0156212
0.0119365
0.00469721
0.00482258
0.00844199
0.00624593
0.0080629
0.00944707
0.0101607
0.00943596
0.00968066
0.0106894
0.0118026
0.0121502
0.012058
0.0117733
0.0108468
0.00936143
0.0104125
0.0137148
0.0178151
0.020882
0.0222946
0.0226637
0.0228636
0.0242568
0.0249501
0.024489
0.0234484
0.0222042
0.0200168
0.0140825
0.00966351
0.00821042
0.0111949
0.0192526
0.0189289
0.0168536
0.0173868
0.0162878
0.0136548
0.0162168
0.0241424
0.0286119
0.0300879
0.0289845
0.0157938
0.0149374
0.0149432
0.0133919
0.0115936
0.0211892
0.0331496
0.0329718
0.0379474
0.0120443
0.00627572
0.0279967
0.0305867
0.0377443
0.0176204
0.00337385
0.0389582
0.037251
0.0480685
0.0436987
0.0241333
0.0292695
0.0335533
0.0331226
0.0534764
0.0406716
0.0227837
0.0184629
0.0066822
0.00700378
0.00603158
0.00864349
0.0119891
0.0141102
0.0190636
0.0225251
0.027031
0.0394311
0.0514082
0.0590702
0.0664164
0.0704399
0.0667785
0.0614379
0.0467804
0.0288278
0.0185696
0.0128802
0.00785645
0.00407931
0.00449065
0.00820053
0.0188352
0.015828
0.00716122
0.00829419
0.014355
0.0175677
0.0181795
0.0140898
0.00587583
0.00450791
0.00835685
0.00725438
0.00844024
0.00930977
0.0100112
0.00999375
0.0114201
0.0131913
0.0143909
0.0146614
0.0144766
0.0141301
0.0131342
0.0115989
0.013182
0.0173434
0.0222387
0.0258972
0.0275868
0.0280046
0.0281658
0.0295872
0.0303005
0.0297434
0.0284898
0.0270118
0.0243889
0.0174599
0.0111722
0.00930079
0.0140075
0.0242416
0.0233827
0.0192609
0.0200359
0.0194266
0.0165342
0.0193227
0.0287952
0.0337541
0.0366273
0.0362529
0.0180984
0.0135126
0.0136742
0.0120101
0.0127644
0.0276098
0.0415712
0.040813
0.0449464
0.0199981
0.0122177
0.0247271
0.0286424
0.0334959
0.0147163
0.00260684
0.0373832
0.0350367
0.0534247
0.045207
0.0286357
0.0376279
0.0418843
0.0433154
0.0623319
0.0380097
0.0186906
0.0150489
0.00819145
0.00883675
0.00618084
0.0119038
0.0159925
0.0171098
0.0195018
0.0230291
0.0314889
0.0476311
0.0610248
0.0700371
0.0783444
0.0826865
0.0783708
0.072081
0.0550636
0.0321143
0.0203145
0.0146622
0.00954243
0.00516844
0.00526112
0.00889394
0.0214162
0.0182331
0.00839342
0.00947584
0.0163556
0.0200699
0.020716
0.0161775
0.00698349
0.00347616
0.00783598
0.00766613
0.00985273
0.00969856
0.0108196
0.0117798
0.0139817
0.0157639
0.0168552
0.0170639
0.0167951
0.0163989
0.0153332
0.0137455
0.0158504
0.0208706
0.0265876
0.0308814
0.032892
0.0333885
0.0335349
0.0349962
0.0357239
0.0350551
0.0335668
0.0318287
0.028737
0.0209954
0.0137226
0.0114165
0.0171108
0.0290838
0.0281039
0.0209279
0.022102
0.0225095
0.0196095
0.0226003
0.0317422
0.0355113
0.0399959
0.0422682
0.0217574
0.0115545
0.0117455
0.0096721
0.0134964
0.0338015
0.04976
0.0485398
0.0501713
0.0266693
0.0213353
0.0216956
0.0262028
0.0296632
0.0115649
0.00422624
0.0346542
0.0341941
0.0598886
0.0473241
0.0316871
0.0430828
0.0477997
0.0500144
0.0663777
0.0341819
0.016874
0.0112738
0.00829441
0.0105831
0.00756324
0.0151486
0.0201005
0.0219369
0.0231381
0.0263285
0.0381491
0.0562574
0.0710696
0.0812719
0.0904561
0.0950453
0.0900077
0.0826228
0.0639112
0.0355784
0.020349
0.0142197
0.0102464
0.00630194
0.00603937
0.0101649
0.0242916
0.020616
0.00976573
0.0107092
0.0181986
0.0225008
0.0232976
0.0182144
0.00807356
0.00308723
0.00737485
0.0072215
0.0113373
0.0115087
0.0132897
0.0144568
0.016618
0.018199
0.0191331
0.0192984
0.0190074
0.0185987
0.017468
0.015829
0.0184505
0.0243309
0.0308836
0.0358459
0.0382227
0.0388387
0.0390175
0.0405417
0.0412775
0.0404923
0.0387423
0.036674
0.0330614
0.0245872
0.0168198
0.0140366
0.0203931
0.0338082
0.0331028
0.0218497
0.022492
0.0249899
0.0222836
0.0249513
0.032799
0.0349385
0.0397809
0.0459522
0.0263307
0.00973218
0.00953727
0.00772381
0.0154143
0.0401556
0.05783
0.0562804
0.052202
0.0317535
0.0293155
0.0177276
0.0234313
0.0245582
0.010657
0.00922731
0.0312873
0.032822
0.0667202
0.0524163
0.0334042
0.0433441
0.0486071
0.0528041
0.0650202
0.0303336
0.0207235
0.0088453
0.00830572
0.0104233
0.0097243
0.0179649
0.0237994
0.0268714
0.0286828
0.0322305
0.0453336
0.0647245
0.081038
0.0925384
0.102629
0.107417
0.101535
0.0929816
0.0725127
0.0403081
0.0191189
0.0123228
0.00919726
0.00595829
0.00656671
0.011572
0.0271295
0.0229255
0.0111576
0.0118674
0.0192032
0.0244689
0.0258402
0.0201514
0.00916803
0.00392525
0.00776022
0.00655897
0.01122
0.0132451
0.0158907
0.0170986
0.0190583
0.0200762
0.0204571
0.0206138
0.0205764
0.0204256
0.0194084
0.0178367
0.0209974
0.027743
0.0351371
0.0407871
0.0435583
0.0443183
0.0445513
0.0461467
0.0468852
0.0459714
0.0439347
0.0414833
0.0372934
0.028138
0.0199342
0.0166118
0.0234732
0.0383568
0.0379926
0.0237634
0.0202931
0.0245207
0.0222082
0.02485
0.0317574
0.0331559
0.037987
0.0470934
0.0307689
0.00915009
0.0069729
0.00669524
0.0186434
0.0464647
0.0657649
0.063994
0.0574275
0.0370272
0.0351895
0.0130541
0.0209273
0.0211036
0.0176255
0.0160543
0.0300197
0.0313047
0.0717858
0.0602309
0.0362178
0.0409408
0.0439972
0.0520188
0.0597593
0.0292736
0.0251444
0.00818189
0.00816592
0.0092943
0.0116675
0.0206738
0.0274718
0.0316265
0.0343118
0.0384645
0.0525318
0.0734645
0.0912671
0.10395
0.114929
0.119831
0.113006
0.103054
0.0808219
0.0461025
0.0190513
0.00994515
0.00736432
0.00437317
0.00678873
0.0127772
0.0298957
0.0251773
0.0125109
0.0129871
0.019336
0.0260136
0.0283089
0.0216107
0.0102782
0.00544141
0.00957707
0.00572072
0.00992595
0.0138223
0.0178802
0.0193093
0.0207819
0.0204883
0.019755
0.0199259
0.0204061
0.0210578
0.0205394
0.0194
0.0233496
0.0310922
0.0393526
0.0457062
0.0489013
0.0498364
0.0501532
0.0518308
0.0525665
0.0515113
0.0491668
0.0462434
0.041371
0.0316045
0.0229554
0.019097
0.0264802
0.0423557
0.0424257
0.0274707
0.0171644
0.0203606
0.0185997
0.0220887
0.0295491
0.0309634
0.0357119
0.0454557
0.0345877
0.0111946
0.00542574
0.00728765
0.0224719
0.0528272
0.0736117
0.0716384
0.0660604
0.0415011
0.038157
0.00970142
0.0180822
0.0220597
0.0267999
0.0215619
0.0322908
0.0293046
0.0742599
0.0675428
0.0395094
0.0362185
0.0381879
0.0462689
0.0529078
0.0318475
0.029303
0.00898344
0.00748637
0.00791849
0.0132823
0.0231092
0.0308726
0.0360578
0.0395522
0.0443391
0.0594921
0.0820788
0.101472
0.115399
0.127292
0.132236
0.12436
0.112428
0.0883997
0.051674
0.0217555
0.0079767
0.00550049
0.0028841
0.00678944
0.0136542
0.032272
0.0272402
0.0138176
0.0140654
0.0188972
0.0271797
0.0306347
0.0226221
0.0113873
0.00703011
0.0115486
0.00449308
0.00822839
0.0128674
0.0182871
0.0203476
0.0208265
0.0190964
0.0176547
0.0178207
0.0185736
0.0196767
0.0199488
0.0197405
0.0249971
0.034142
0.0434438
0.0505832
0.0542366
0.0553666
0.0557864
0.0575522
0.0582803
0.057072
0.0544074
0.0509417
0.0452566
0.0348758
0.0258554
0.0214285
0.0291264
0.0450748
0.0455405
0.0314096
0.0156784
0.0155912
0.0143317
0.0190491
0.0264911
0.0282102
0.0328218
0.0420168
0.0363946
0.0154139
0.00706631
0.00972296
0.0264066
0.0589457
0.0809171
0.0788847
0.0787948
0.0395908
0.0400112
0.0101536
0.0138705
0.0318685
0.0374876
0.029064
0.0379096
0.0282602
0.0766715
0.0775758
0.040486
0.0281873
0.0290309
0.0384724
0.0429356
0.0369275
0.0351465
0.0118745
0.00637229
0.00581009
0.0154831
0.0268316
0.0361182
0.0427545
0.0474826
0.0532024
0.0702964
0.0957058
0.117542
0.133243
0.146512
0.151359
0.141653
0.125416
0.0977856
0.0589053
0.0276954
0.00709196
0.00299699
0.00228969
0.00636147
0.0143899
0.0347169
0.0296368
0.0157021
0.0157115
0.018532
0.0287269
0.0339458
0.0242512
0.0131124
0.00924659
0.0136407
0.00304718
0.00548395
0.00992819
0.0166585
0.0195668
0.0186275
0.015397
0.0136648
0.0138016
0.0145881
0.0154741
0.0162827
0.0178661
0.0259251
0.0378128
0.0491872
0.0578567
0.0624073
0.0639138
0.0645441
0.0664622
0.0671658
0.0657002
0.0625124
0.0581927
0.0510269
0.0396362
0.0301467
0.0249276
0.0327989
0.047433
0.0481492
0.0363008
0.0171482
0.0109878
0.0101995
0.0158476
0.0213803
0.0230953
0.0273617
0.035908
0.0354757
0.0223056
0.0123617
0.0150169
0.0323957
0.0675432
0.0894133
0.0880897
0.0928932
0.0339114
0.0389236
0.0200401
0.0116072
0.0453893
0.0483297
0.0365197
0.0354139
0.0313215
0.0841598
0.0865773
0.0404535
0.0199843
0.0189876
0.0277782
0.0316481
0.0461182
0.0399912
0.0157191
0.00615441
0.0051341
0.0181873
0.0306734
0.0419248
0.0504445
0.0567163
0.0636567
0.0835086
0.112952
0.138172
0.156326
0.171475
0.175992
0.163542
0.141657
0.105647
0.0631106
0.0341339
0.0100524
0.00276155
0.0028929
0.00608169
0.0147634
0.0337864
0.0300401
0.0175271
0.0175443
0.0195975
0.0294523
0.03721
0.0271916
0.0156053
0.0112895
0.0129489
0.00358593
0.00435237
0.0064213
0.0117645
0.0149421
0.0133782
0.0103076
0.00915646
0.00932252
0.00997905
0.0107648
0.0117656
0.0155283
0.026422
0.0408979
0.055066
0.0664375
0.0727146
0.0749186
0.0758918
0.0780201
0.0786825
0.0768442
0.0729402
0.067639
0.0586721
0.0452457
0.0351142
0.0288209
0.0351685
0.0489543
0.049635
0.0394095
0.0217219
0.01191
0.00929233
0.01142
0.0144661
0.0158348
0.0192981
0.0252945
0.0271789
0.024
0.0179229
0.0204327
0.0385748
0.0748297
0.0915791
0.093707
0.107064
0.0285861
0.0376761
0.0347063
0.0232496
0.0597963
0.0601487
0.0374201
0.0291094
0.034893
0.0976748
0.0950455
0.0471628
0.0203218
0.0147335
0.0184266
0.0249994
0.0561126
0.0382729
0.0165066
0.00821486
0.00647713
0.0209538
0.0346174
0.0481228
0.0584102
0.0660387
0.074111
0.0969699
0.130592
0.159227
0.17939
0.196343
0.200314
0.184751
0.159098
0.114331
0.0622065
0.0368224
0.0135868
0.00408338
0.00406818
0.00700852
0.0155468
0.0301923
0.0283097
0.0187417
0.0190535
0.0203551
0.0292194
0.0392346
0.0304586
0.0179912
0.0107513
0.010923
0.00552707
0.00642243
0.00572565
0.00772176
0.00974801
0.00877643
0.00760916
0.00774535
0.00803069
0.00847534
0.00966012
0.0121236
0.0178152
0.030012
0.0457766
0.0618306
0.0751497
0.0827724
0.0857849
0.0872499
0.0896226
0.0902282
0.0879752
0.0833057
0.0769385
0.0666444
0.0505948
0.0396523
0.0324435
0.0381033
0.0536741
0.052148
0.0406777
0.0266467
0.0157863
0.00993532
0.00849088
0.0101035
0.0118544
0.015282
0.017479
0.0184654
0.0194415
0.0195131
0.0244988
0.0434646
0.0777836
0.0892376
0.0935092
0.117643
0.0283504
0.0307136
0.0530645
0.0512627
0.0732182
0.0705432
0.0403
0.0229783
0.0327412
0.108702
0.103758
0.0562977
0.0306626
0.0163303
0.012111
0.0251355
0.0593291
0.0341927
0.0153813
0.0133458
0.00974272
0.0238728
0.0383735
0.0539161
0.0658877
0.0748683
0.0840355
0.10983
0.14717
0.178353
0.199936
0.219696
0.22339
0.204883
0.176366
0.127133
0.0598729
0.0362459
0.0160281
0.00564483
0.00537218
0.00863336
0.016459
0.0252576
0.0260453
0.0198721
0.0202048
0.0201944
0.0283982
0.0400858
0.0332661
0.0181283
0.00844409
0.00817587
0.00725306
0.00868939
0.00725697
0.0068652
0.00681222
0.00689383
0.00734694
0.00784446
0.00825995
0.00882662
0.0102996
0.0137186
0.0215588
0.0356674
0.0529388
0.0703442
0.0845893
0.0929428
0.096572
0.0985041
0.101142
0.101683
0.0989817
0.0935175
0.086017
0.074525
0.0560491
0.0433198
0.0352004
0.0423743
0.0621634
0.0583495
0.0420455
0.0304459
0.0197125
0.0113808
0.00807681
0.00879954
0.012169
0.0172062
0.0166939
0.0143446
0.0152858
0.0189376
0.0271491
0.0458649
0.076663
0.0855083
0.090002
0.117838
0.0309038
0.0249667
0.0668602
0.0730331
0.0811608
0.0793723
0.0473341
0.0187156
0.030467
0.11189
0.112239
0.0651382
0.0389421
0.0157676
0.00775317
0.0290029
0.0543613
0.0314171
0.0148618
0.0139037
0.0128456
0.0267938
0.0422943
0.0600216
0.0735185
0.0837795
0.0939679
0.122248
0.161148
0.192912
0.214011
0.238228
0.24379
0.223214
0.192896
0.141243
0.0615615
0.0348078
0.0174684
0.0069626
0.00627746
0.00944547
0.0169551
0.0208732
0.0237589
0.0207831
0.0213535
0.0225936
0.0275612
0.0400341
0.0353086
0.0155871
0.00557443
0.00523015
0.00863535
0.0105164
0.00882505
0.00763648
0.0068166
0.00687748
0.00754863
0.00810507
0.00860733
0.00933649
0.0111456
0.0156792
0.0255966
0.0415614
0.0602258
0.0787925
0.0940359
0.103231
0.107363
0.109675
0.112575
0.113039
0.10986
0.103569
0.0948816
0.082222
0.061958
0.0461219
0.0377615
0.0466218
0.067683
0.0639687
0.0426068
0.032295
0.0230267
0.0134935
0.00879552
0.00888598
0.0138171
0.0199886
0.0180884
0.0137032
0.0146861
0.0199861
0.0290205
0.0471153
0.0733649
0.0810748
0.0856748
0.11215
0.0284071
0.0171038
0.0698983
0.0795172
0.077387
0.0810098
0.0530486
0.0181909
0.0280729
0.109213
0.114764
0.0693003
0.0376824
0.0107797
0.00553
0.031948
0.0467079
0.0290727
0.0139131
0.012556
0.0131764
0.0299088
0.0461776
0.0656507
0.0805729
0.0920834
0.103186
0.132546
0.170361
0.200241
0.21903
0.246834
0.25832
0.238152
0.208102
0.154529
0.0700477
0.0330392
0.0176381
0.00785883
0.00657932
0.00926011
0.0167531
0.0188394
0.0213345
0.0211723
0.0221651
0.0243404
0.0262801
0.0387054
0.0362851
0.0125654
0.00364175
0.00353142
0.00899005
0.0110047
0.00973601
0.00837215
0.00723451
0.00715321
0.00777911
0.00834988
0.00892707
0.00983444
0.0120972
0.0178832
0.029746
0.0474229
0.067377
0.0870545
0.103298
0.113344
0.117988
0.120695
0.12385
0.124225
0.120547
0.113404
0.103509
0.0896515
0.068261
0.0483655
0.0393764
0.0485647
0.0668683
0.0631785
0.039472
0.0320178
0.0251765
0.0155723
0.0101436
0.00911382
0.0149644
0.0223571
0.0196907
0.0143114
0.0140396
0.0205744
0.0302374
0.046827
0.0684869
0.075836
0.0806489
0.10369
0.0276589
0.0114273
0.0670544
0.0776277
0.0739233
0.0780268
0.0539547
0.0209304
0.0255557
0.104506
0.109105
0.0663187
0.0337307
0.00675286
0.00505519
0.0320188
0.0382239
0.0247202
0.0128723
0.0103091
0.0128132
0.0329584
0.0498169
0.0703256
0.0873025
0.100013
0.111669
0.139618
0.174293
0.200886
0.219518
0.248931
0.264299
0.248093
0.220664
0.166885
0.081206
0.0321274
0.01665
0.00824532
0.00669881
0.00904429
0.0159032
0.0178242
0.0198541
0.0212813
0.0224861
0.0236704
0.0246418
0.036195
0.0356276
0.0119439
0.0039228
0.0036523
0.00846667
0.0103499
0.00960227
0.00865059
0.00753382
0.00738076
0.00796334
0.00855504
0.00920282
0.0103184
0.0131545
0.0203024
0.0339997
0.053241
0.07439
0.0951094
0.11234
0.123244
0.128415
0.131529
0.134945
0.135224
0.131032
0.123015
0.111915
0.0968535
0.0746524
0.051627
0.0405282
0.047682
0.0622977
0.0583129
0.0359131
0.0303223
0.0254876
0.0168231
0.0114702
0.00925264
0.0146728
0.0216925
0.019897
0.0155089
0.0141011
0.020002
0.0297778
0.0447289
0.0625143
0.0696837
0.0749463
0.0479055
0.0366566
0.00768313
0.0337483
0.0388081
0.0399875
0.0426526
0.0321952
0.0202553
0.0153027
0.0597915
0.0543495
0.0313736
0.0124555
0.00514506
0.00355405
0.00942149
0.0123214
0.0093234
0.00586366
0.00694706
0.0269768
0.0521813
0.072082
0.0947736
0.124097
0.146806
0.163566
0.172721
0.178915
0.187004
0.210359
0.245133
0.26689
0.280276
0.272022
0.221512
0.13548
0.0390994
0.0126378
0.00928214
0.00875804
0.0100209
0.0107587
0.0115066
0.0150882
0.0206742
0.0210219
0.0141437
0.0131578
0.0182644
0.0242702
0.0183287
0.0120888
0.00634955
0.00511829
0.00605109
0.00690432
0.00815862
0.00847227
0.00837463
0.00884677
0.00955961
0.0107786
0.0138983
0.0224196
0.0388555
0.0613899
0.0873468
0.114087
0.140072
0.162992
0.179467
0.188877
0.195414
0.200584
0.199744
0.192492
0.179347
0.160622
0.137491
0.110441
0.0762284
0.0456484
0.034358
0.0322606
0.0301576
0.0265427
0.0210017
0.0204383
0.0191023
0.0172427
0.012745
0.0114597
0.013947
0.0172041
0.019661
0.0188334
0.0181538
0.0211257
0.0261334
0.0290836
0.0367287
0.0444443
0.00640898
0.0103604
0.0114303
0.00940521
0.00661118
0.00707123
0.0086767
0.00816726
0.00794439
0.0096789
0.0170773
0.0163969
0.00971712
0.00464861
0.00310721
0.00349434
0.00431712
0.00828003
0.00751271
0.00762115
0.0202235
0.0501253
0.0631512
0.0763298
0.0913676
0.112836
0.134793
0.146929
0.142551
0.130394
0.125989
0.135943
0.159783
0.190664
0.209796
0.216054
0.217982
0.177808
0.0929692
0.0259213
0.0116065
0.00988817
0.0116748
0.0135563
0.0141477
0.0144724
0.0147146
0.0142312
0.0134794
0.0138948
0.0148271
0.015408
0.0157229
0.0140938
0.00968682
0.00720618
0.00702048
0.00660229
0.00593552
0.00608421
0.00634397
0.00714044
0.00949836
0.016494
0.0308865
0.052312
0.0775993
0.105009
0.134602
0.166006
0.198152
0.228515
0.25274
0.267819
0.277556
0.284288
0.281086
0.26845
0.247324
0.221354
0.192277
0.160391
0.124479
0.0862627
0.0569602
0.0356836
0.0340998
0.0369295
0.0477522
0.0536406
0.0506168
0.0466922
0.0442833
0.0374789
0.0305487
0.0292383
0.0301623
0.0327523
0.0312255
0.0269548
0.0240934
0.0196567
0.0212055
0.0245849
0.000316672
0.000772797
0.0025915
0.00494072
0.00586564
0.00547167
0.00667691
0.00893887
0.010055
0.0115798
0.013938
0.0174364
0.0201488
0.016327
0.00877396
0.00790186
0.00829767
0.0128195
0.0146249
0.01803
0.0358732
0.0539493
0.0586083
0.0683242
0.0784295
0.0902006
0.105371
0.117356
0.124194
0.123062
0.114577
0.0943388
0.0746321
0.0884556
0.114569
0.13622
0.161613
0.175607
0.139281
0.0620489
0.020997
0.0132556
0.0142565
0.0161195
0.0169691
0.01611
0.0142432
0.0128672
0.0117824
0.0113889
0.012004
0.0127401
0.0129176
0.0125137
0.0109257
0.00901246
0.00725163
0.00545011
0.00443173
0.00499283
0.00909345
0.0193244
0.0346241
0.0529767
0.0725867
0.0937316
0.117353
0.144042
0.174311
0.20842
0.244966
0.281444
0.313081
0.334045
0.34679
0.354631
0.348259
0.329798
0.300595
0.267192
0.23433
0.202401
0.171941
0.143556
0.12684
0.116433
0.110641
0.108357
0.107729
0.106481
0.102371
0.0989962
0.0985297
0.0981456
0.0956928
0.0902542
0.0840502
0.0765841
0.0667992
0.0549994
0.0444063
0.0348996
0.027849
0.0280198
0.00170236
0.00123174
0.00106227
0.00127516
0.00149336
0.00165798
0.00201793
0.00335669
0.00523819
0.00741399
0.00978912
0.0145849
0.0223126
0.0244845
0.0240634
0.0170968
0.0135883
0.0145939
0.0209817
0.0299066
0.0434239
0.0510012
0.0609978
0.0742285
0.085704
0.0977525
0.110463
0.122002
0.130269
0.130451
0.123349
0.100557
0.0563054
0.0357813
0.0439882
0.0657382
0.0994131
0.144589
0.149997
0.105178
0.0417838
0.0205495
0.0174865
0.0176078
0.0177567
0.0174575
0.0157131
0.0127774
0.0104908
0.00847078
0.0077768
0.00796182
0.0085964
0.00851992
0.00799518
0.00652468
0.00400688
0.002607
0.00571919
0.020778
0.0445742
0.0670549
0.0848262
0.0999826
0.115081
0.131791
0.151877
0.176238
0.206248
0.241543
0.281517
0.323301
0.362554
0.39075
0.407692
0.418283
0.407545
0.379447
0.339011
0.297097
0.261254
0.230461
0.204414
0.183763
0.17067
0.160246
0.153138
0.148125
0.145042
0.142641
0.139595
0.137635
0.137534
0.137361
0.13633
0.132255
0.125758
0.1173
0.106525
0.0931739
0.0793252
0.0679625
0.0546857
0.0473737
0.00305215
0.00319819
0.00278902
0.00196176
0.00161133
0.00164098
0.001861
0.00246924
0.00387566
0.00618239
0.00958257
0.0143291
0.0213269
0.0252559
0.0278544
0.0262476
0.0195398
0.0175546
0.0225358
0.0346103
0.0482396
0.0545172
0.0632795
0.0724052
0.079118
0.0850107
0.0905463
0.0958083
0.102083
0.103715
0.100738
0.0911338
0.0693486
0.0351098
0.0250416
0.0340168
0.0553732
0.0919665
0.127118
0.113544
0.0661504
0.030818
0.0208308
0.0190554
0.0189204
0.0184974
0.0161436
0.0116148
0.00797343
0.00543448
0.00391528
0.00356363
0.00374167
0.00371775
0.00326361
0.00222804
0.00134035
0.00732527
0.0344722
0.0693196
0.0974232
0.118235
0.132347
0.143761
0.155026
0.167802
0.184251
0.205634
0.233642
0.268354
0.309649
0.355456
0.402884
0.440504
0.463193
0.470111
0.451151
0.413347
0.361085
0.310637
0.272731
0.24302
0.219966
0.20314
0.191793
0.182188
0.175256
0.170302
0.166656
0.164325
0.162008
0.161401
0.162225
0.164403
0.166278
0.164322
0.158351
0.149754
0.139472
0.127193
0.114407
0.101305
0.0839536
0.0677938
0.00565085
0.00576938
0.00538179
0.00410339
0.00312319
0.00301525
0.00335802
0.00456524
0.00723794
0.0113803
0.0156943
0.019531
0.0217986
0.0238898
0.0292841
0.0312122
0.0280829
0.0221352
0.0242474
0.0340696
0.0476223
0.0543571
0.0583985
0.0587856
0.0571129
0.0558464
0.0560924
0.0573755
0.060594
0.0645457
0.0653041
0.0648238
0.0596577
0.0468784
0.0334788
0.0342042
0.0468301
0.05975
0.0914462
0.0972402
0.0727882
0.0371686
0.0234505
0.0205227
0.0199699
0.018947
0.0161016
0.0112981
0.00704208
0.00409042
0.00239242
0.00165086
0.00143795
0.00128355
0.000998952
0.000806557
0.008236
0.0425753
0.0841611
0.11847
0.144483
0.162472
0.174874
0.184376
0.19273
0.202088
0.214827
0.232817
0.257415
0.289098
0.329281
0.378867
0.435341
0.48277
0.508368
0.486459
0.446633
0.411629
0.357908
0.304246
0.267845
0.240936
0.220989
0.207118
0.198922
0.192856
0.187486
0.18251
0.178071
0.175488
0.173769
0.174153
0.176334
0.183099
0.190302
0.190662
0.18619
0.177747
0.167598
0.155982
0.143536
0.13013
0.11176
0.0882634
0.0108412
0.00993758
0.00835834
0.00726246
0.00667162
0.00685278
0.00773032
0.0104604
0.016309
0.0245825
0.0290885
0.0305785
0.03032
0.0284964
0.0292479
0.0330114
0.0326891
0.0284275
0.0270992
0.0323771
0.0423828
0.0488181
0.0486785
0.0418861
0.0346168
0.0313933
0.030495
0.0313894
0.0344077
0.0399399
0.0456698
0.0519873
0.0534954
0.0516045
0.0492601
0.0493517
0.0495233
0.0519549
0.0604227
0.0722045
0.065172
0.0377181
0.0237653
0.0212378
0.0207265
0.019287
0.0158198
0.0106746
0.00616892
0.00325375
0.00175299
0.00104498
0.000737271
0.000545661
0.00047671
0.00620453
0.0416338
0.0896151
0.129423
0.161868
0.185307
0.201969
0.214002
0.222639
0.228384