/*--------------------------------*- C++ -*----------------------------------*\
| =========                 |                                                 |
| \\      /  F ield         | OpenFOAM: The Open Source CFD Toolbox           |
|  \\    /   O peration     | Version:  v1912                                 |
|   \\  /    A nd           | Website:  www.openfoam.com                      |
|    \\/     M anipulation  |                                                 |
\*---------------------------------------------------------------------------*/
FoamFile
{
    version     2.0;
    format      ascii;
    class       volVectorField;
    location    "40";
    object      U;
}
// * * * * * * * * * * * * * * * * * * * * * * * * * * * * * * * * * * * * * //

dimensions      [0 1 -1 0 0 0 0];


internalField   nonuniform List<vector> 
14268
(
(-0.137185 -0.303597 0)
(-0.0546467 -0.219909 0)
(-0.464459 -0.219059 0)
(-0.283059 -0.215337 0)
(-0.0136618 -0.272377 0)
(0.376389 -0.191507 0)
(0.595992 -0.114896 0)
(0.117488 -0.0777664 0)
(-0.190137 -0.231785 0)
(0.0563969 -0.359169 0)
(0.261926 -0.300347 0)
(0.43339 -0.165658 0)
(0.332717 -0.0958826 0)
(0.159243 -0.0703463 0)
(0.353937 -0.0821531 0)
(0.358388 -0.133765 0)
(0.260452 -0.177059 0)
(0.43866 -0.211714 0)
(0.813801 -0.129855 0)
(0.975949 0.04286 0)
(0.281311 0.00665172 0)
(-0.391927 -0.0925495 0)
(-0.542354 -0.169806 0)
(-0.653338 -0.196772 0)
(-0.72688 -0.224543 0)
(-0.787616 -0.210728 0)
(-0.851462 -0.191592 0)
(-1.01041 -0.230834 0)
(-1.13273 -0.303696 0)
(-1.16318 -0.410214 0)
(-0.97486 -0.441673 0)
(-0.771794 -0.464115 0)
(-0.48345 -0.456614 0)
(-0.00813332 -0.372581 0)
(0.340607 -0.23452 0)
(0.514731 -0.0768816 0)
(0.387386 0.0112772 0)
(0.207982 0.0151949 0)
(0.157353 0.000280025 0)
(0.0821069 -0.00674557 0)
(0.0555211 -6.3108e-05 0)
(-0.0104322 -0.0042335 0)
(-0.022484 -0.00550701 0)
(-0.0302894 -0.00401583 0)
(0.134753 -0.0203361 0)
(0.0520109 0.00471475 0)
(-0.0678032 -0.00821407 0)
(-0.0230291 -0.0339284 0)
(0.0510934 -0.0693501 0)
(0.113766 -0.0578747 0)
(0.159023 -0.00996664 0)
(-0.101673 -0.0158632 0)
(-0.0578416 -0.0161846 0)
(-0.125977 -0.0271088 0)
(-0.0849439 -0.0582016 0)
(-0.120692 -0.0549272 0)
(-0.471837 -0.0591847 0)
(-0.602936 -0.0707727 0)
(-0.511866 -0.057543 0)
(-0.436819 -0.0420958 0)
(-0.397269 -0.0380032 0)
(-0.312803 -0.0267686 0)
(-0.240705 -0.020154 0)
(-0.212033 -0.0187454 0)
(-0.202493 -0.0182984 0)
(-0.202608 -0.0189801 0)
(-0.20819 -0.0197186 0)
(-0.208673 -0.0209101 0)
(-0.163832 -0.0156879 0)
(-0.0810571 -0.00744267 0)
(0.0585144 -0.0054615 0)
(0.177974 -0.0103814 0)
(0.290508 -0.0154791 0)
(0.384802 -0.0201695 0)
(0.470085 -0.0251519 0)
(0.554345 -0.0235476 0)
(0.646427 -0.0132326 0)
(0.731255 0.00274029 0)
(0.772376 0.0201081 0)
(0.783672 0.0383809 0)
(0.769836 0.0557298 0)
(0.743448 0.0642787 0)
(0.669794 0.0515046 0)
(0.5826 0.0191381 0)
(0.613166 -0.00656125 0)
(0.715828 -0.0130955 0)
(0.881054 0.0283942 0)
(0.879629 0.0733252 0)
(0.765442 0.0663291 0)
(0.572423 0.044143 0)
(0.488877 0.0034743 0)
(0.487181 -0.0497971 0)
(0.540325 -0.110532 0)
(0.653095 -0.147146 0)
(0.814419 -0.133653 0)
(1.00937 -0.0428786 0)
(1.15805 0.0272406 0)
(1.18557 0.0283571 0)
(1.11849 0.019025 0)
(0.923279 0.00318107 0)
(0.760619 -0.0140586 0)
(0.783766 -0.0461631 0)
(0.916394 -0.0893518 0)
(1.24801 -0.0029996 0)
(-0.131268 0.251538 0)
(-0.171352 0.189923 0)
(-0.495444 0.105034 0)
(-0.126703 0.125138 0)
(-0.128545 0.198688 0)
(0.0854003 0.179293 0)
(0.327961 0.190056 0)
(0.0340376 0.111258 0)
(-0.126375 0.189627 0)
(-0.0691664 0.309279 0)
(0.124466 0.304492 0)
(0.241584 0.215076 0)
(0.205778 0.153123 0)
(0.191284 0.0989626 0)
(0.3585 0.138331 0)
(0.353042 0.199033 0)
(0.230586 0.208437 0)
(0.389277 0.248826 0)
(0.722208 0.247974 0)
(0.978605 0.164616 0)
(0.705151 0.144505 0)
(0.143832 0.0967042 0)
(-0.0803743 0.120121 0)
(-0.322968 0.110222 0)
(-0.533366 0.105547 0)
(-0.692567 0.0682637 0)
(-0.797205 0.034418 0)
(-0.931522 0.0431742 0)
(-1.05818 0.0800024 0)
(-1.13315 0.14751 0)
(-1.01193 0.184514 0)
(-0.846876 0.233419 0)
(-0.592277 0.260541 0)
(-0.0980545 0.275112 0)
(0.327332 0.239592 0)
(0.73255 0.173582 0)
(1.06272 0.13836 0)
(1.17673 0.135934 0)
(1.11397 0.134377 0)
(0.92569 0.112317 0)
(0.801933 0.0903417 0)
(0.707429 0.0765425 0)
(0.493776 0.053749 0)
(0.276325 0.0250091 0)
(0.320972 0.0601786 0)
(0.308172 0.0417895 0)
(0.268032 0.0307388 0)
(0.169577 0.043105 0)
(0.147684 0.0786811 0)
(0.176804 0.0789153 0)
(0.227275 0.0562425 0)
(0.11412 0.0253558 0)
(0.0670336 0.0170194 0)
(0.0312733 0.0187776 0)
(-0.0204739 0.0447414 0)
(-0.0365116 0.0525005 0)
(-0.152558 0.019928 0)
(-0.231981 -0.011017 0)
(-0.0455197 -0.00306541 0)
(0.0802093 0.00412397 0)
(0.116067 0.00778976 0)
(0.137266 0.00622463 0)
(0.168063 0.0111313 0)
(0.19283 0.0168121 0)
(0.196367 0.0187334 0)
(0.185075 0.0187529 0)
(0.173129 0.0177337 0)
(0.163941 0.0161898 0)
(0.166069 0.0130212 0)
(0.187494 0.0112939 0)
(0.247744 0.0229499 0)
(0.32711 0.0467451 0)
(0.410105 0.071053 0)
(0.484338 0.0937573 0)
(0.551261 0.113735 0)
(0.620738 0.126167 0)
(0.705849 0.13353 0)
(0.800096 0.1389 0)
(0.873584 0.137146 0)
(0.930371 0.129878 0)
(1.00674 0.122256 0)
(1.10929 0.126945 0)
(1.10093 0.135981 0)
(1.01465 0.14505 0)
(0.840747 0.144639 0)
(0.855419 0.150292 0)
(1.00317 0.148946 0)
(1.05908 0.12804 0)
(0.993837 0.123444 0)
(0.878888 0.109974 0)
(0.772472 0.124871 0)
(0.661462 0.162241 0)
(0.637384 0.210312 0)
(0.67277 0.252063 0)
(0.773087 0.258711 0)
(0.935688 0.208834 0)
(1.08809 0.183037 0)
(1.11066 0.195443 0)
(1.06018 0.201032 0)
(0.938505 0.187979 0)
(0.823677 0.172673 0)
(0.819375 0.185892 0)
(0.908642 0.230666 0)
(1.22424 0.228345 0)
(-0.176473 -0.311047 0)
(-0.137701 -0.163489 0)
(-0.494232 -0.187327 0)
(-0.378172 -0.191518 0)
(-0.0662926 -0.240711 0)
(0.15782 -0.18833 0)
(0.355465 -0.0915323 0)
(-0.00146006 -0.0339881 0)
(-0.154732 -0.194482 0)
(0.023189 -0.295846 0)
(0.327243 -0.247064 0)
(0.491798 -0.137378 0)
(0.358144 -0.0696285 0)
(0.277722 -0.0568538 0)
(0.333289 -0.0705179 0)
(0.3096 -0.11234 0)
(0.228711 -0.142236 0)
(0.383797 -0.184139 0)
(0.736526 -0.121438 0)
(1.1438 0.0745121 0)
(1.02468 0.131807 0)
(0.450238 0.0424932 0)
(-0.220168 -0.118278 0)
(-0.445152 -0.160676 0)
(-0.59431 -0.196811 0)
(-0.719651 -0.185492 0)
(-0.824592 -0.171651 0)
(-0.992067 -0.201628 0)
(-1.12423 -0.26937 0)
(-1.16536 -0.352212 0)
(-0.982141 -0.372921 0)
(-0.798949 -0.38541 0)
(-0.534452 -0.376719 0)
(-0.0649075 -0.306685 0)
(0.303871 -0.184377 0)
(0.612826 -0.0485039 0)
(0.968405 0.0638826 0)
(1.26913 0.113331 0)
(1.36247 0.132476 0)
(1.3402 0.135675 0)
(1.2501 0.13189 0)
(1.00807 0.113278 0)
(0.503416 0.0633973 0)
(0.198858 0.0230067 0)
(0.234901 -0.00900301 0)
(0.332261 0.032447 0)
(0.297756 0.036031 0)
(0.0995464 -0.0154645 0)
(0.0987623 -0.0562295 0)
(0.153073 -0.0493768 0)
(0.221165 0.000935996 0)
(0.21118 0.0267865 0)
(0.131072 0.00921943 0)
(-0.0224488 -0.0116653 0)
(-0.0528116 -0.0485908 0)
(-0.0275925 -0.0342529 0)
(0.00885468 -0.00352018 0)
(0.0760633 -0.00484511 0)
(0.152661 -0.00329384 0)
(0.151951 0.00368355 0)
(0.127877 0.00510242 0)
(0.0846776 0.00314969 0)
(0.0509082 0.000246338 0)
(0.0404362 0.00131383 0)
(0.0387515 0.00204383 0)
(0.0388065 0.00234861 0)
(0.0549154 0.00400301 0)
(0.0785164 0.00501575 0)
(0.103459 0.00456374 0)
(0.13725 0.00450542 0)
(0.190217 0.00176734 0)
(0.262287 -0.00111622 0)
(0.345392 -0.00540725 0)
(0.425563 -0.00956682 0)
(0.503019 -0.0136414 0)
(0.584534 -0.0110473 0)
(0.676538 -0.00162867 0)
(0.767599 0.0131851 0)
(0.826791 0.0302725 0)
(0.872265 0.047689 0)
(0.930429 0.0641886 0)
(0.996533 0.0816313 0)
(0.971251 0.0776663 0)
(0.820135 0.0470693 0)
(0.712679 0.0130449 0)
(0.781725 0.000376772 0)
(0.933182 0.0318721 0)
(1.01807 0.0843023 0)
(0.990529 0.101844 0)
(0.910248 0.0932353 0)
(0.754832 0.0459899 0)
(0.588206 -0.0287507 0)
(0.593002 -0.0839692 0)
(0.675506 -0.116931 0)
(0.813371 -0.103832 0)
(0.984012 -0.0243697 0)
(1.14226 0.0351032 0)
(1.15945 0.0420298 0)
(1.08252 0.0414448 0)
(0.905798 0.0306179 0)
(0.783322 0.00873889 0)
(0.799092 -0.0217446 0)
(0.917068 -0.0594735 0)
(1.23131 0.0214147 0)
(-0.168502 0.264266 0)
(-0.172994 0.141663 0)
(-0.511527 0.0875055 0)
(-0.533987 0.0880356 0)
(-0.0195828 0.179993 0)
(0.109519 0.15528 0)
(0.215069 0.138898 0)
(-0.067569 0.0766654 0)
(-0.199151 0.153211 0)
(-0.00986454 0.184937 0)
(0.191509 0.213026 0)
(0.406882 0.202933 0)
(0.307343 0.161447 0)
(0.296523 0.103168 0)
(0.357856 0.115167 0)
(0.407745 0.184096 0)
(0.23837 0.149286 0)
(0.378516 0.14664 0)
(0.694585 0.157051 0)
(1.02082 0.135466 0)
(1.15393 0.202454 0)
(0.588964 0.168952 0)
(-0.104456 0.133743 0)
(-0.379922 0.109969 0)
(-0.58132 0.0988815 0)
(-0.720442 0.0537359 0)
(-0.815874 0.0238247 0)
(-0.961565 0.0261267 0)
(-1.07397 0.0532217 0)
(-1.12193 0.0818064 0)
(-0.985098 0.0932668 0)
(-0.825295 0.124738 0)
(-0.579708 0.1185 0)
(-0.110612 0.124568 0)
(0.284061 0.115875 0)
(0.668207 0.0892431 0)
(1.04829 0.0985836 0)
(1.27874 0.130078 0)
(1.35026 0.147337 0)
(1.35134 0.147575 0)
(1.27736 0.14414 0)
(1.01454 0.133447 0)
(0.489651 0.0854724 0)
(0.231944 0.0341411 0)
(0.272183 0.0448453 0)
(0.340451 0.039551 0)
(0.329219 0.0471588 0)
(0.178536 0.0505223 0)
(0.141513 0.0665052 0)
(0.164916 0.063505 0)
(0.213774 0.0473686 0)
(0.258127 0.0358138 0)
(0.215264 0.0375673 0)
(0.0568804 0.0267883 0)
(-0.0192946 0.0416052 0)
(-0.0150134 0.045116 0)
(0.0143657 0.0239465 0)
(0.0770401 0.00776802 0)
(0.105183 4.14668e-05 0)
(0.099252 0.00842592 0)
(0.105491 0.0126113 0)
(0.107561 0.0105807 0)
(0.115253 0.0119857 0)
(0.129306 0.0140438 0)
(0.131719 0.0150003 0)
(0.120208 0.0141279 0)
(0.114314 0.012311 0)
(0.119518 0.0112104 0)
(0.137525 0.0103808 0)
(0.172596 0.00997695 0)
(0.229503 0.0161506 0)
(0.303754 0.0306134 0)
(0.386614 0.0503074 0)
(0.464613 0.0717804 0)
(0.537167 0.0902744 0)
(0.61306 0.100135 0)
(0.69987 0.106764 0)
(0.790225 0.115739 0)
(0.857938 0.119344 0)
(0.917827 0.116228 0)
(0.998053 0.114141 0)
(1.09121 0.124842 0)
(1.06794 0.143043 0)
(0.942466 0.149736 0)
(0.80068 0.139769 0)
(0.840713 0.122792 0)
(0.972075 0.125371 0)
(1.05482 0.12382 0)
(1.01974 0.118201 0)
(0.940518 0.122585 0)
(0.806929 0.131957 0)
(0.652123 0.158089 0)
(0.623813 0.181089 0)
(0.663842 0.205755 0)
(0.778137 0.199797 0)
(0.943201 0.156032 0)
(1.09863 0.156952 0)
(1.12314 0.18382 0)
(1.06145 0.192994 0)
(0.924887 0.178652 0)
(0.81937 0.161163 0)
(0.825517 0.156239 0)
(0.914855 0.167457 0)
(1.18321 0.190946 0)
(-0.0469541 -0.287621 0)
(-0.142946 -0.0790556 0)
(-0.488058 -0.170194 0)
(0.0809173 -0.16343 0)
(-0.0699011 -0.244068 0)
(0.305509 -0.146729 0)
(0.367167 -0.0301645 0)
(0.0239614 0.0393743 0)
(-0.462504 -0.189416 0)
(0.0348522 -0.205129 0)
(0.273679 -0.191326 0)
(0.456622 -0.120682 0)
(0.383088 -0.0437337 0)
(0.432332 -0.0488425 0)
(0.475716 -0.0419571 0)
(0.450601 -0.0829482 0)
(0.243162 -0.080116 0)
(0.522864 -0.0802882 0)
(0.892352 -0.057029 0)
(1.13298 0.0700075 0)
(1.22483 0.174693 0)
(0.637751 0.138243 0)
(-0.101031 -0.0291431 0)
(-0.334713 -0.106306 0)
(-0.472257 -0.147076 0)
(-0.644181 -0.139153 0)
(-0.810429 -0.137875 0)
(-0.972413 -0.162125 0)
(-1.08315 -0.222729 0)
(-1.09902 -0.292903 0)
(-0.929436 -0.311116 0)
(-0.771712 -0.319754 0)
(-0.534039 -0.305705 0)
(-0.0856498 -0.247929 0)
(0.289851 -0.130881 0)
(0.676508 -0.0288257 0)
(1.06019 0.0628059 0)
(1.28617 0.107965 0)
(1.35593 0.136301 0)
(1.34761 0.144431 0)
(1.26206 0.14705 0)
(0.991488 0.142568 0)
(0.471019 0.0965183 0)
(0.220065 0.0351525 0)
(0.264565 -0.0019284 0)
(0.339032 0.0328879 0)
(0.306236 0.0410182 0)
(0.130077 0.000202167 0)
(0.126444 -0.0430084 0)
(0.172035 -0.0387552 0)
(0.230023 0.00394019 0)
(0.259737 0.0323201 0)
(0.224026 0.0313497 0)
(0.0321158 0.00739489 0)
(-0.0298275 -0.0390754 0)
(-0.0034708 -0.0257881 0)
(0.0334554 -0.00151005 0)
(0.0869584 -0.00506699 0)
(0.122807 -0.000692847 0)
(0.128394 0.0045307 0)
(0.129731 0.0062156 0)
(0.114008 0.00633586 0)
(0.098682 0.00443506 0)
(0.0930496 0.00623625 0)
(0.0870525 0.00752759 0)
(0.0791949 0.00766448 0)
(0.0853039 0.00759974 0)
(0.104234 0.00813733 0)
(0.133381 0.006948 0)
(0.175543 0.00509328 0)
(0.232848 0.00481558 0)
(0.304397 0.00464956 0)
(0.384086 0.00352504 0)
(0.460302 0.00163694 0)
(0.531617 -0.000636948 0)
(0.606162 0.00352883 0)
(0.695814 0.0129733 0)
(0.790126 0.0269944 0)
(0.862953 0.0433587 0)
(0.926256 0.0589552 0)
(0.996255 0.0718111 0)
(1.05599 0.0865877 0)
(1.03528 0.0942106 0)
(0.9216 0.075658 0)
(0.791916 0.0315208 0)
(0.835122 0.0156492 0)
(0.961667 0.039666 0)
(1.06355 0.0920851 0)
(1.02607 0.112413 0)
(0.930684 0.0968495 0)
(0.769218 0.0627622 0)
(0.627271 -0.00381713 0)
(0.640945 -0.0546642 0)
(0.718757 -0.0810795 0)
(0.844177 -0.0704496 0)
(0.974755 -0.0159222 0)
(1.1086 0.034173 0)
(1.1313 0.0543169 0)
(1.04632 0.0633311 0)
(0.890098 0.0580589 0)
(0.832322 0.031426 0)
(0.846292 0.00165297 0)
(0.937355 -0.0350249 0)
(1.1731 0.0282085 0)
(0.413235 0.287139 0)
(-0.163805 0.142741 0)
(-0.552415 0.0961141 0)
(0.268309 0.0704557 0)
(-0.318138 0.06126 0)
(0.407093 0.108917 0)
(0.445854 0.132612 0)
(-0.0236322 0.0601858 0)
(-0.380458 0.0961692 0)
(0.00640483 0.0559467 0)
(0.251566 0.136588 0)
(0.426903 0.164297 0)
(0.406273 0.141725 0)
(0.379688 0.103183 0)
(0.397761 0.0966619 0)
(0.296515 0.180666 0)
(0.177553 0.106071 0)
(0.360967 0.0156436 0)
(0.807767 0.112153 0)
(1.14453 0.133331 0)
(1.28319 0.243697 0)
(0.692809 0.208847 0)
(-0.110942 0.124969 0)
(-0.393216 0.0899348 0)
(-0.556337 0.0797336 0)
(-0.661638 0.0409095 0)
(-0.777169 0.0255431 0)
(-0.950295 0.0194801 0)
(-1.03794 0.0277121 0)
(-1.04367 0.0305036 0)
(-0.948081 0.015606 0)
(-0.797912 0.0294189 0)
(-0.543453 0.000696637 0)
(-0.099563 0.00185125 0)
(0.2794 0.00650507 0)
(0.67291 0.0180105 0)
(1.06303 0.062924 0)
(1.2915 0.114284 0)
(1.3587 0.142003 0)
(1.34647 0.151161 0)
(1.25265 0.15947 0)
(0.961545 0.162666 0)
(0.463213 0.114848 0)
(0.231415 0.041061 0)
(0.273109 0.0315811 0)
(0.334983 0.0365822 0)
(0.31422 0.0529166 0)
(0.17411 0.0518238 0)
(0.14588 0.0553291 0)
(0.167432 0.047395 0)
(0.211636 0.0403492 0)
(0.255277 0.0381851 0)
(0.221413 0.0418174 0)
(0.0549228 0.0314756 0)
(-0.0152842 0.0381478 0)
(-0.0102138 0.0378024 0)
(0.0447132 0.0240192 0)
(0.082656 0.00712261 0)
(0.12277 1.95849e-05 0)
(0.12272 0.00858131 0)
(0.115861 0.0131674 0)
(0.0995788 0.0117611 0)
(0.0930038 0.011302 0)
(0.0979853 0.0116803 0)
(0.0985336 0.0124918 0)
(0.0898315 0.011213 0)
(0.0888766 0.00903262 0)
(0.10157 0.00794193 0)
(0.128887 0.0082333 0)
(0.17 0.00845743 0)
(0.228308 0.0109308 0)
(0.301682 0.0200553 0)
(0.383356 0.035052 0)
(0.461156 0.0537474 0)
(0.534077 0.0696377 0)
(0.615704 0.0774307 0)
(0.709473 0.0835211 0)
(0.803445 0.0947242 0)
(0.876998 0.102305 0)
(0.946904 0.103102 0)
(1.03282 0.106386 0)
(1.09458 0.12287 0)
(1.06887 0.143118 0)
(0.945079 0.150311 0)
(0.792097 0.135806 0)
(0.841856 0.103474 0)
(0.969254 0.105954 0)
(1.07459 0.119352 0)
(1.03887 0.128858 0)
(0.941374 0.132103 0)
(0.810515 0.138926 0)
(0.699835 0.154053 0)
(0.645015 0.153119 0)
(0.673895 0.158031 0)
(0.769166 0.147383 0)
(0.92787 0.13103 0)
(1.10854 0.145682 0)
(1.12351 0.171718 0)
(1.03697 0.183932 0)
(0.94364 0.17113 0)
(0.875011 0.153627 0)
(0.842408 0.131309 0)
(0.90331 0.116237 0)
(1.12925 0.144537 0)
(0.212761 -0.234122 0)
(-0.0695984 -0.0349054 0)
(-0.392543 -0.196043 0)
(0.186466 -0.132317 0)
(-0.156389 -0.147724 0)
(-0.2312 -0.171183 0)
(0.435317 0.0435823 0)
(-0.0987532 0.055495 0)
(-0.258004 -0.141542 0)
(0.0162695 -0.12736 0)
(0.261458 -0.150024 0)
(0.505679 -0.0738563 0)
(0.499619 -0.00377046 0)
(0.427894 -0.0231837 0)
(0.383592 -0.0153705 0)
(0.28107 -0.0709316 0)
(0.142078 -0.075005 0)
(0.159071 -0.0664158 0)
(0.556814 -0.118632 0)
(1.08259 0.0465398 0)
(1.28099 0.213556 0)
(0.693576 0.224622 0)
(-0.165653 0.0516953 0)
(-0.434566 -0.0480365 0)
(-0.556548 -0.0966356 0)
(-0.626047 -0.102778 0)
(-0.661687 -0.109272 0)
(-0.853714 -0.122671 0)
(-0.970504 -0.177519 0)
(-1.05982 -0.24612 0)
(-0.966338 -0.251383 0)
(-0.777183 -0.237312 0)
(-0.51934 -0.227728 0)
(-0.0690285 -0.183429 0)
(0.31135 -0.104439 0)
(0.69333 -0.0358758 0)
(1.06517 0.0399189 0)
(1.28096 0.0963155 0)
(1.35234 0.135552 0)
(1.3404 0.151122 0)
(1.24292 0.165233 0)
(0.93409 0.173592 0)
(0.457245 0.125549 0)
(0.230125 0.0441486 0)
(0.278702 0.00222825 0)
(0.335779 0.031317 0)
(0.304547 0.0499115 0)
(0.1585 0.0158835 0)
(0.144696 -0.0313537 0)
(0.178642 -0.0291953 0)
(0.231395 0.0028964 0)
(0.258612 0.0328741 0)
(0.226956 0.042399 0)
(0.0507096 0.023435 0)
(-0.021432 -0.0301327 0)
(0.00466442 -0.0200872 0)
(0.0640815 -0.00318655 0)
(0.100305 -0.00873167 0)
(0.136055 -0.0034425 0)
(0.125664 0.00483952 0)
(0.118536 0.0078445 0)
(0.110978 0.00748052 0)
(0.10877 0.00585081 0)
(0.109938 0.00750709 0)
(0.104331 0.0091939 0)
(0.0891508 0.0079808 0)
(0.0843933 0.00563842 0)
(0.0979818 0.00338137 0)
(0.130065 0.00135246 0)
(0.17621 -0.000523596 0)
(0.235765 -0.000102418 0)
(0.309312 0.00272766 0)
(0.392135 0.00577595 0)
(0.472334 0.00795924 0)
(0.54748 0.00855325 0)
(0.628901 0.0118811 0)
(0.719204 0.0196436 0)
(0.811509 0.0336461 0)
(0.884006 0.0497685 0)
(0.951276 0.0627528 0)
(1.02922 0.0723331 0)
(1.07717 0.0881858 0)
(1.05467 0.108552 0)
(0.941343 0.0997956 0)
(0.805707 0.0483584 0)
(0.859552 0.0281077 0)
(0.991478 0.0478161 0)
(1.09845 0.0972938 0)
(1.05682 0.122281 0)
(0.94824 0.116864 0)
(0.805415 0.0830258 0)
(0.66111 0.0187769 0)
(0.619838 -0.0273215 0)
(0.693594 -0.0397745 0)
(0.814446 -0.0258344 0)
(0.978189 0.00504268 0)
(1.14107 0.0445923 0)
(1.15049 0.0753548 0)
(1.06558 0.0915238 0)
(0.907799 0.0822365 0)
(0.77643 0.0495193 0)
(0.795628 0.0221315 0)
(0.903464 0.00122964 0)
(1.14639 0.0486744 0)
(-0.161172 0.190208 0)
(-0.0894752 0.149586 0)
(-0.231281 0.108249 0)
(0.0944336 0.0313474 0)
(-0.0889017 -0.0415079 0)
(-0.682832 -0.0369863 0)
(-0.223046 -0.000984746 0)
(-0.133055 0.124341 0)
(-0.318263 0.0943943 0)
(0.120215 0.00288027 0)
(0.150931 0.0558593 0)
(0.434569 0.108944 0)
(0.454885 0.130296 0)
(0.387439 0.0791137 0)
(0.390535 0.0822412 0)
(0.304499 0.161919 0)
(0.0870014 0.0737195 0)
(0.0819868 -0.0960362 0)
(0.425788 -0.0345872 0)
(0.873485 0.0490256 0)
(1.22579 0.235549 0)
(0.65314 0.252107 0)
(-0.183446 0.156322 0)
(-0.406396 0.0869891 0)
(-0.563363 0.0617869 0)
(-0.678659 0.0444858 0)
(-0.715536 0.0364276 0)
(-0.830761 0.0145367 0)
(-1.00096 0.00534893 0)
(-1.16267 -0.015489 0)
(-0.972049 -0.0547397 0)
(-0.79107 -0.0802395 0)
(-0.557312 -0.121389 0)
(-0.104527 -0.11139 0)
(0.281916 -0.0449307 0)
(0.695777 -0.0147924 0)
(1.08266 0.0438096 0)
(1.28221 0.100642 0)
(1.34637 0.136433 0)
(1.33416 0.149833 0)
(1.23364 0.169815 0)
(0.91095 0.187026 0)
(0.449134 0.140253 0)
(0.227721 0.0503614 0)
(0.284711 0.0224753 0)
(0.32795 0.0342968 0)
(0.298625 0.0577079 0)
(0.1751 0.0532659 0)
(0.15585 0.046331 0)
(0.171921 0.0335648 0)
(0.212551 0.033772 0)
(0.253773 0.0369604 0)
(0.228563 0.0504903 0)
(0.0564662 0.0357634 0)
(-0.024419 0.0335283 0)
(0.00266013 0.0292739 0)
(0.0474533 0.0244626 0)
(0.112147 0.00600692 0)
(0.132195 0.000471648 0)
(0.114341 0.0110482 0)
(0.113519 0.013505 0)
(0.111718 0.0111449 0)
(0.104732 0.00897932 0)
(0.0995284 0.00988399 0)
(0.0929759 0.011556 0)
(0.0784395 0.0103644 0)
(0.0728476 0.00671867 0)
(0.0863382 0.00375419 0)
(0.121018 0.00160382 0)
(0.170105 -0.000248217 0)
(0.232382 0.000630902 0)
(0.30845 0.00716245 0)
(0.392862 0.0195781 0)
(0.472804 0.0361848 0)
(0.546958 0.0498641 0)
(0.626558 0.058199 0)
(0.718548 0.0651214 0)
(0.812354 0.0774379 0)
(0.883369 0.0869415 0)
(0.948408 0.0892111 0)
(1.02422 0.0949662 0)
(1.08285 0.118527 0)
(1.05623 0.148716 0)
(0.948148 0.158252 0)
(0.807713 0.127611 0)
(0.847603 0.0731781 0)
(0.971812 0.0776103 0)
(1.09178 0.113777 0)
(1.05966 0.137589 0)
(0.951387 0.140628 0)
(0.786964 0.15345 0)
(0.650195 0.149664 0)
(0.646447 0.127631 0)
(0.704458 0.107323 0)
(0.802218 0.0787641 0)
(0.936691 0.07734 0)
(1.1321 0.126792 0)
(1.13904 0.158542 0)
(1.03509 0.162571 0)
(0.886155 0.156753 0)
(0.812109 0.137544 0)
(0.829243 0.101138 0)
(0.915191 0.0529844 0)
(1.11716 0.0924077 0)
(-0.240814 -0.235058 0)
(-0.0607167 0.0124697 0)
(0.0416185 -0.142213 0)
(0.147271 -0.0731542 0)
(-0.121325 -0.0696595 0)
(-0.472967 -0.256571 0)
(-0.248796 -0.0518942 0)
(-0.251937 0.0619182 0)
(0.417885 -0.0834954 0)
(0.140942 -0.198901 0)
(-0.0905773 -0.152292 0)
(0.363695 -0.0832636 0)
(0.445698 0.0158092 0)
(0.464162 0.000975798 0)
(0.435809 0.000390683 0)
(0.293241 -0.0249134 0)
(0.174079 -0.0211694 0)
(0.157366 -0.0970508 0)
(0.457351 -0.100404 0)
(0.858639 -0.0163335 0)
(1.13462 0.203977 0)
(0.588825 0.271118 0)
(-0.203124 0.11126 0)
(-0.301862 -0.0251956 0)
(-0.513698 -0.0747011 0)
(-0.688694 -0.0967963 0)
(-0.764757 -0.0896699 0)
(-0.872751 -0.0750655 0)
(-1.06122 -0.127349 0)
(-1.10694 -0.218396 0)
(-0.895606 -0.22971 0)
(-0.775788 -0.203524 0)
(-0.549277 -0.211014 0)
(-0.117888 -0.18693 0)
(0.266565 -0.133388 0)
(0.697228 -0.0632733 0)
(1.0955 0.0224822 0)
(1.29738 0.0914524 0)
(1.353 0.135112 0)
(1.33724 0.160619 0)
(1.22887 0.184195 0)
(0.89001 0.203262 0)
(0.438583 0.152143 0)
(0.221306 0.051178 0)
(0.288601 0.00469169 0)
(0.325447 0.0301576 0)
(0.292711 0.0569585 0)
(0.177994 0.0288377 0)
(0.160077 -0.0209796 0)
(0.18091 -0.0218017 0)
(0.225694 0.00274386 0)
(0.256373 0.0329047 0)
(0.230333 0.05257 0)
(0.0457207 0.0404775 0)
(-0.0215747 -0.0217923 0)
(0.0202754 -0.0196307 0)
(0.0556117 -0.00913848 0)
(0.0918765 -0.00744211 0)
(0.115641 -0.000634332 0)
(0.119551 0.00514225 0)
(0.128106 0.00834621 0)
(0.119823 0.0090388 0)
(0.106824 0.00815121 0)
(0.103391 0.00897619 0)
(0.0972852 0.0106525 0)
(0.0800449 0.00898024 0)
(0.0711864 0.00512817 0)
(0.0844456 0.00177571 0)
(0.121503 -0.000463416 0)
(0.173287 -0.00250454 0)
(0.237917 -0.00250166 0)
(0.314975 0.000883195 0)
(0.399479 0.0059262 0)
(0.480618 0.0109694 0)
(0.55744 0.0139903 0)
(0.639862 0.0169351 0)
(0.733509 0.0241797 0)
(0.829054 0.0392741 0)
(0.899142 0.0551227 0)
(0.959593 0.0647909 0)
(1.02183 0.0702735 0)
(1.07023 0.0859678 0)
(1.04937 0.111764 0)
(0.957084 0.112874 0)
(0.823123 0.0633737 0)
(0.858792 0.0337298 0)
(0.98033 0.0454365 0)
(1.10315 0.0969887 0)
(1.07155 0.129484 0)
(0.957729 0.129462 0)
(0.797242 0.0946073 0)
(0.682342 0.0384078 0)
(0.693186 -0.00265407 0)
(0.754806 -0.00824001 0)
(0.828791 0.00738202 0)
(0.930173 0.00698474 0)
(1.1263 0.0455196 0)
(1.14994 0.100439 0)
(1.04916 0.136531 0)
(0.927145 0.114292 0)
(0.890971 0.0664217 0)
(0.861237 0.0370714 0)
(0.912702 0.0142821 0)
(1.10872 0.0433202 0)
(-0.0835311 0.147463 0)
(0.0748134 0.0956079 0)
(0.198221 0.116842 0)
(0.132794 0.00415008 0)
(-0.141605 0.0343244 0)
(-0.41147 -0.0140265 0)
(-0.12881 0.0439334 0)
(-0.383297 0.054103 0)
(0.433782 0.105982 0)
(0.0697669 0.0289745 0)
(-0.21789 -0.0473878 0)
(0.395517 0.0666182 0)
(0.438439 0.10172 0)
(0.516419 0.0884128 0)
(0.422484 0.0801078 0)
(0.357734 0.139584 0)
(0.367132 0.0752643 0)
(0.207819 -0.01527 0)
(0.540183 -0.019231 0)
(0.955225 0.0490278 0)
(1.09435 0.229587 0)
(0.513153 0.303526 0)
(-0.14194 0.159461 0)
(-0.245526 0.094823 0)
(-0.488221 0.0614555 0)
(-0.683233 0.0268757 0)
(-0.832026 0.0224322 0)
(-0.97587 0.0014706 0)
(-1.06933 -0.0240165 0)
(-1.02302 -0.0493852 0)
(-0.921187 -0.0903154 0)
(-0.793603 -0.119573 0)
(-0.561101 -0.169969 0)
(-0.133763 -0.162865 0)
(0.258457 -0.100348 0)
(0.680032 -0.0654653 0)
(1.07872 0.0136367 0)
(1.29029 0.086213 0)
(1.34207 0.133344 0)
(1.323 0.148481 0)
(1.21359 0.187256 0)
(0.868227 0.215306 0)
(0.423656 0.165849 0)
(0.233092 0.0558973 0)
(0.297483 0.0156569 0)
(0.318455 0.0327482 0)
(0.290392 0.061857 0)
(0.189081 0.0557129 0)
(0.169533 0.0394653 0)
(0.176741 0.0231461 0)
(0.21126 0.0267532 0)
(0.250591 0.0356625 0)
(0.226142 0.0582346 0)
(0.0505171 0.0504869 0)
(-0.0100183 0.0315321 0)
(0.00437088 0.023681 0)
(0.0524063 0.0194091 0)
(0.0781936 0.000193462 0)
(0.126628 -0.00127602 0)
(0.134388 0.0106654 0)
(0.128358 0.0134271 0)
(0.111695 0.0120088 0)
(0.104529 0.00924992 0)
(0.102291 0.0100038 0)
(0.0947855 0.0122322 0)
(0.0756707 0.0109968 0)
(0.065076 0.00546103 0)
(0.0796398 0.000811953 0)
(0.120781 -0.00223043 0)
(0.176371 -0.00449545 0)
(0.243802 -0.00434917 0)
(0.322705 0.000756539 0)
(0.408375 0.0114583 0)
(0.489605 0.0264332 0)
(0.564981 0.0381266 0)
(0.646041 0.0448442 0)
(0.738845 0.0510861 0)
(0.834073 0.0645667 0)
(0.90413 0.0765283 0)
(0.965052 0.0811906 0)
(1.02737 0.0887619 0)
(1.0687 0.115613 0)
(1.04487 0.146929 0)
(0.960951 0.161005 0)
(0.827902 0.126528 0)
(0.860306 0.0632662 0)
(0.984714 0.0663294 0)
(1.10674 0.107555 0)
(1.08247 0.143904 0)
(0.967709 0.153256 0)
(0.807131 0.156104 0)
(0.723978 0.14189 0)
(0.732751 0.112753 0)
(0.763379 0.0734069 0)
(0.827986 0.0399658 0)
(0.895198 0.051661 0)
(1.08685 0.101853 0)
(1.13978 0.146389 0)
(1.0508 0.160703 0)
(0.898008 0.16709 0)
(0.860233 0.143657 0)
(0.854417 0.0919283 0)
(0.909949 0.0348704 0)
(1.09941 0.0663946 0)
(0.235903 -0.170537 0)
(-0.0344854 0.0704987 0)
(0.304772 -0.0951342 0)
(0.125062 -0.0463787 0)
(-0.0481065 -0.0603764 0)
(-0.444679 -0.158515 0)
(-0.0428156 -0.0355157 0)
(-0.191326 0.0454031 0)
(0.182445 -0.0663348 0)
(0.0239614 -0.100999 0)
(-0.0783354 -0.0991923 0)
(0.528396 -0.0514959 0)
(0.533104 0.0330826 0)
(0.591932 0.019563 0)
(0.536471 0.0413079 0)
(0.441252 0.0145787 0)
(0.330069 0.0133429 0)
(0.102619 -0.138022 0)
(0.678503 -0.103227 0)
(1.04121 0.0185632 0)
(1.1296 0.234307 0)
(0.432284 0.293713 0)
(0.0460939 0.173665 0)
(-0.234178 0.0224042 0)
(-0.468886 -0.0266763 0)
(-0.650684 -0.0609067 0)
(-0.789455 -0.0798747 0)
(-0.950172 -0.0719557 0)
(-1.01641 -0.10953 0)
(-1.01371 -0.180079 0)
(-0.905719 -0.2118 0)
(-0.767911 -0.198986 0)
(-0.547677 -0.224225 0)
(-0.128774 -0.211988 0)
(0.262295 -0.148297 0)
(0.674734 -0.0897318 0)
(1.07322 -0.00511853 0)
(1.29365 0.0832215 0)
(1.33856 0.13087 0)
(1.30487 0.156668 0)
(1.17801 0.18672 0)
(0.831189 0.216665 0)
(0.406825 0.174654 0)
(0.260007 0.058011 0)
(0.305273 0.00432445 0)
(0.310782 0.0291951 0)
(0.288992 0.0617021 0)
(0.198843 0.0390746 0)
(0.176446 -0.0116375 0)
(0.184105 -0.0166524 0)
(0.218223 0.00243663 0)
(0.254659 0.0327161 0)
(0.222247 0.0604627 0)
(0.051497 0.0485571 0)
(-0.0160168 -0.0142011 0)
(0.0171232 -0.0184578 0)
(0.0801272 -0.0104656 0)
(0.0965846 -0.0165769 0)
(0.134556 -0.00864323 0)
(0.130691 0.00402839 0)
(0.120106 0.00911398 0)
(0.116989 0.0103699 0)
(0.113773 0.00948781 0)
(0.109649 0.010237 0)
(0.0987906 0.0121538 0)
(0.0751071 0.00967863 0)
(0.0609863 0.00405039 0)
(0.0760848 -0.0013654 0)
(0.12055 -0.00460982 0)
(0.179039 -0.00706895 0)
(0.248505 -0.00740984 0)
(0.328569 -0.0038536 0)
(0.415124 0.00257767 0)
(0.4974 0.00987222 0)
(0.573571 0.0144935 0)
(0.655164 0.0174531 0)
(0.748406 0.0241481 0)
(0.844051 0.0401401 0)
(0.912199 0.0563136 0)
(0.968785 0.0638083 0)
(1.02736 0.0677633 0)
(1.07179 0.0869994 0)
(1.04968 0.120248 0)
(0.975536 0.127662 0)
(0.842935 0.0765337 0)
(0.865658 0.0324175 0)
(0.989269 0.03879 0)
(1.11817 0.0995794 0)
(1.10785 0.137499 0)
(0.992007 0.146621 0)
(0.854771 0.121919 0)
(0.805781 0.0705578 0)
(0.764617 0.0199788 0)
(0.759227 0.0168693 0)
(0.834198 0.0157036 0)
(0.906862 0.000147596 0)
(1.0579 0.0351044 0)
(1.13185 0.112624 0)
(1.04754 0.144801 0)
(0.909407 0.12025 0)
(0.886038 0.0772645 0)
(0.870288 0.0488665 0)
(0.914461 0.00983977 0)
(1.09387 0.0321647 0)
(-0.00409382 0.0974213 0)
(-0.0523457 0.0268101 0)
(0.308509 0.0950216 0)
(0.130424 -0.00768774 0)
(-0.0600157 0.0551301 0)
(-0.550283 -0.084126 0)
(0.0020864 0.0519709 0)
(0.446559 0.0852565 0)
(0.0924134 0.052983 0)
(0.0711187 -0.0108524 0)
(0.0350068 -0.0841175 0)
(0.464415 0.0332683 0)
(0.599483 0.103324 0)
(0.667481 0.0757701 0)
(0.530047 0.0701851 0)
(0.441125 0.153961 0)
(0.244413 0.0599338 0)
(-0.0115102 -0.0411135 0)
(0.90006 -0.105556 0)
(1.04582 0.00405403 0)
(1.12027 0.263911 0)
(0.351943 0.322566 0)
(0.102854 0.207612 0)
(-0.226198 0.103395 0)
(-0.471248 0.0645472 0)
(-0.64971 0.0295415 0)
(-0.764455 0.0232094 0)
(-0.904961 0.000897429 0)
(-0.98407 -0.0259527 0)
(-1.02667 -0.0799208 0)
(-0.901352 -0.121636 0)
(-0.775341 -0.14686 0)
(-0.554846 -0.205142 0)
(-0.139036 -0.204362 0)
(0.256066 -0.145751 0)
(0.673699 -0.103001 0)
(1.05294 -0.0157504 0)
(1.29228 0.0770389 0)
(1.34706 0.136961 0)
(1.32009 0.16996 0)
(1.17997 0.210653 0)
(0.803267 0.246664 0)
(0.396237 0.186817 0)
(0.288629 0.0660196 0)
(0.313959 0.013808 0)
(0.304137 0.0319027 0)
(0.286238 0.065746 0)
(0.210845 0.0600393 0)
(0.179553 0.0342206 0)
(0.179544 0.0160737 0)
(0.210913 0.0205643 0)
(0.25455 0.0350823 0)
(0.219072 0.065683 0)
(0.0546372 0.0516046 0)
(-0.00173118 0.0291149 0)
(0.0158067 0.0175654 0)
(0.0617347 0.0170679 0)
(0.108543 0.000461235 0)
(0.137293 0.000869715 0)
(0.127826 0.0124079 0)
(0.128792 0.0143592 0)
(0.127386 0.0133118 0)
(0.123716 0.0102398 0)
(0.11937 0.0115886 0)
(0.106197 0.0135089 0)
(0.0768898 0.0120037 0)
(0.0592177 0.00435489 0)
(0.0747978 -0.00246509 0)
(0.12166 -0.00647325 0)
(0.182416 -0.00921335 0)
(0.253266 -0.00969085 0)
(0.33424 -0.00550682 0)
(0.421415 0.00428163 0)
(0.503953 0.0184445 0)
(0.579806 0.0288876 0)
(0.660933 0.0342655 0)
(0.753946 0.0399204 0)
(0.849561 0.0545586 0)
(0.916506 0.0685678 0)
(0.970754 0.0746753 0)
(1.02583 0.0834614 0)
(1.07209 0.113583 0)
(1.0496 0.14961 0)
(0.979886 0.169828 0)
(0.850125 0.127561 0)
(0.867518 0.0546611 0)
(0.967567 0.0511011 0)
(1.12459 0.105357 0)
(1.11425 0.151117 0)
(1.005 0.152683 0)
(0.869929 0.150685 0)
(0.817432 0.135989 0)
(0.741421 0.103221 0)
(0.760893 0.0677026 0)
(0.832311 0.0489471 0)
(0.933333 0.040677 0)
(1.01644 0.078837 0)
(1.09781 0.135874 0)
(1.01077 0.173374 0)
(0.934015 0.165125 0)
(0.922196 0.137149 0)
(0.87264 0.0830216 0)
(0.91501 0.0223513 0)
(1.08718 0.0425519 0)
(-0.0297115 -0.104535 0)
(0.162564 0.135034 0)
(0.149722 -0.0946895 0)
(0.0561927 -0.0160149 0)
(-0.0751584 -0.0254671 0)
(-0.600183 -0.109276 0)
(0.458407 -0.0608625 0)
(0.377023 0.119281 0)
(0.0425164 -0.0417494 0)
(0.0875521 -0.0832517 0)
(0.0685964 -0.0987635 0)
(0.318552 -0.111117 0)
(0.768644 0.0739121 0)
(0.78122 0.0680553 0)