/*--------------------------------*- C++ -*----------------------------------*\
| =========                 |                                                 |
| \\      /  F ield         | OpenFOAM: The Open Source CFD Toolbox           |
|  \\    /   O peration     | Version:  v1912                                 |
|   \\  /    A nd           | Website:  www.openfoam.com                      |
|    \\/     M anipulation  |                                                 |
\*---------------------------------------------------------------------------*/
FoamFile
{
    version     2.0;
    format      ascii;
    class       volScalarField;
    location    "40";
    object      p_rgh;
}
// * * * * * * * * * * * * * * * * * * * * * * * * * * * * * * * * * * * * * //

dimensions      [1 -1 -2 0 0 0 0];


internalField   nonuniform List<scalar> 
114144
(
228057
327323
386931
427395
455804
474815
485034
486421
474806
452272
417571
370860
313173
246412
173207
96662
20088
-53306.1
-120662
-179690
-228748
-266877
-293767
-309710
-315567
-314959
-298146
-278132
-253502
-225361
-195050
-163889
-133023
-103356
-75498.8
-49745.9
-26094.1
-4304.44
16143.1
35620.7
54601.7
73403.6
92116.9
110554
128245
144494
158476
169382
176548
179620
178368
173426
165348
154995
143269
130976
118697
106712
94988.6
83227.4
70943.3
57576.2
42611.2
25699.4
6756.31
-13960.6
-35844.7
-58154.7
-79829.7
-99876.2
-117440
-131895
-142898
-150382
-154536
-155625
-154446
-150677
-145165
-137978
-129220
-118879
-106901
-93248
-77953.9
-61170
-43189.3
-24440.6
-5456.75
13169.1
30870.1
47082.2
61365.6
73417.5
83067.2
90268
95072.2
97619.4
98035.7
96789.9
94741.4
88825
82628.4
74978.1
66639.3
57520.9
47991.4
38287
28706.5
19516.7
10955.9
3201.57
-3583.81
-9458.65
-14294.9
-18230.4
-21360.2
-23812.5
-25709
-27155.5
-28231.2
-28984.7
-29436.3
-29578.2
-29397.2
-28858.2
-27922.7
-26813.8
-25110.7
-22907.8
-20431.8
-17703.5
-14748.4
-11673.5
-8542.02
-5438.72
-2437.44
389.836
2984.39
5292.86
7273.85
8900.59
10157.1
11034.6
11545
11703.4
11553.7
11098
10408.7
9588.99
8623.07
7537.58
6360.43
5221
3832.62
2640.89
1435.99
300.73
-761.075
-1730.07
-2591.9
-3317.39
-3919.51
-4335.6
-4645.7
-4761.67
-4769.09
-4647.61
-4431.53
-4158.16
-3866.07
-3574.33
-3303.13
-3066.6
-2871.67
-2717.52
-2597.44
-2498.78
-2404.21
-2294.52
-2154.83
-1972.15
-1736.27
-1440.3
-1081.54
-660.972
-186.143
338.625
921.983
1530.38
2155.76
2784.44
3398.01
3977.69
4503.47
4956.72
5321.05
5582.55
5729.8
5753.23
5654.34
5430.48
5087.51
4635.39
4087.7
3461.26
2775.64
2051.49
1309.58
567.502
-163.477
-857.93
-1506.62
-2101.02
-2634.26
-3100.76
-3496.29
-3817.95
-4063.72
-4232.18
-4322.51
-4333.76
-4269.33
-4131.69
-3925.65
-3657.82
-3336
-2969.51
-2568.04
-2141.07
-1697.24
-1244
-787.368
-332.32
118.6
563.834
999.171
1422.32
1830.41
2219.76
2585.92
2923.94
3228.8
3495.68
3720.1
3898.06
4026.48
4103.25
4128.07
4101.43
179291
262896
316564
353225
378503
394776
402836
403206
392016
371982
342227
303053
255386
200775
141289
79339.7
17482.1
-41811.3
-96317
-144253
-184325
-215757
-238282
-252112
-257942
-258068
-244881
-229377
-209952
-187594
-163345
-138226
-113121
-88723.7
-65509.6
-43725.2
-23407
-4416
13519.5
30620.1
47148.4
63266.8
78990.5
94155.5
108419
121295
132225
140673
146204
148625
147653
143935
137779
129780
120547
110622
100398
90071.8
79643.7
68947.2
57703.2
45589.1
32314.5
17697.4
1724.57
-15374.3
-33329.2
-51272.6
-68615.5
-84671
-98833.3
-110640
-119815
-126265
-130074
-131393
-130682
-127759
-123163
-116974
-109302
-100185
-89645.7
-77717.4
-64484.3
-50109.1
-34848.9
-19051.3
-3133.03
12443.6
27258.2
40855.6
52886.9
63101.4
71343.7
77551.5
81741.6
84004.8
84462.8
83359.2
81734.4
76469.6
71100.7
64419.6
57194.3
49312
41103.9
32763
24536
16637.9
9257.72
2537.43
-3429.91
-8546.35
-12862.2
-16417.6
-19283.1
-21551.8
-23313.4
-24647.1
-25613.5
-26252.3
-26583.5
-26606.3
-26319.6
-25700.2
-24732.4
-23629.7
-21993.9
-19924.9
-17633.7
-15141.4
-12462.8
-9694.15
-6887.73
-4116.93
-1445.57
1063.46
3359.32
5393.8
7131.38
8552.65
9639.23
10384.6
10800.2
10899.3
10720.8
10272.6
9596.92
8815.8
7900.61
6871.64
5755.53
4671.74
3352.73
2215.73
1069
-10.0243
-1015.9
-1929.87
-2738.13
-3413.04
-3968.44
-4348.03
-4621.96
-4713.13
-4704.12
-4575.27
-4361.72
-4091.68
-3809.27
-3529.31
-3270.19
-3044.69
-2858.88
-2711.78
-2596.31
-2499.89
-2405.89
-2297.04
-2157.68
-1974.96
-1738.71
-1442.55
-1083.81
-663.324
-188.561
336.192
920.171
1529.27
2155.98
2786.49
3402.3
3984.51
4512.92
4968.79
5335.44
5598.78
5747.28
5771.77
5672.38
5447.52
5102.93
4648.62
4098.31
3468.98
2780.36
2053.27
1308.61
564.053
-168.913
-865.031
-1515.02
-2110.39
-2644.31
-3111.28
-3507.12
-3829
-4074.89
-4243.4
-4333.66
-4344.68
-4279.85
-4141.58
-3934.67
-3665.79
-3342.75
-2974.97
-2572.2
-2144.03
-1699.15
-1245.03
-787.7
-332.114
119.221
564.815
1000.53
1424.12
1832.75
2222.74
2589.63
2928.42
3234.05
3501.65
3726.68
3905.11
4033.83
4110.66
4135.09
4106.4
143116
208076
253892
286114
308358
322446
329166
329272
319393
302175
277274
245036
206245
162123
114265
64509.9
14808.7
-32959.8
-77041.3
-116047
-148939
-175068
-194178
-206393
-212224
-213257
-203701
-192451
-177611
-160067
-140633
-120130
-99274.7
-78650.1
-58673.5
-39592.8
-21498.9
-4340.39
11975.9
27614.5
42695.1
57302.2
71419.1
84902
97478.1
108770
118344
125783
130742
133113
132448
129526
124446
117689
109732
101010
91842.2
82400.5
72705.1
62646.3
52025.1
40605.5
28173.6
14598.8
-117.243
-15792
-32086.1
-48414.9
-64188.6
-78805.8
-91735.8
-102569
-111051
-117084
-120720
-122078
-121521
-118901
-114665
-108896
-101699
-93122.4
-83200.5
-71982.6
-59560.9
-46095.6
-31828.8
-17081.1
-2233.06
12296.2
26119.3
38822.4
50080.7
59659.3
67408.6
73262.8
77230.5
79387.1
79850.3
78791.4
77241.3
72217.2
67150
60804.3
53951.3
46477.1
38697.1
30793.8
22998.7
15513
8513.67
2131.05
-3517.74
-8439.69
-12559.8
-15967.4
-18720.3
-20905
-22602.8
-23886.2
-24810.7
-25413
-25711.9
-25707.4
-25400.1
-24769.4
-23801.7
-22706.8
-21096.1
-19072.8
-16835.5
-14409.2
-11805.7
-9118.39
-6397.25
-3712.69
-1126.22
1301.41
3521.52
5487.32
7164.22
8531.36
9574.01
10283.9
10672.4
10752.9
10561.4
10107.9
9432.5
8651.58
7741.78
6719.58
5613.75
4535.88
3234.45
2104.16
967.99
-102.364
-1099.59
-2005.33
-2805.27
-3472.11
-4018.61
-4384.85
-4651.63
-4735.14
-4716.88
-4579.26
-4359.46
-4084.46
-3796.89
-3514.23
-3254.49
-3030.25
-2847.29
-2704.12
-2593.33
-2502.38
-2413.89
-2308.12
-2171.25
-1990.38
-1755.68
-1460.16
-1101.16
-679.67
-203.287
323.413
910.559
1522.81
2153.64
2788.9
3409.92
3997.68
4531.7
4992.92
5364.23
5631.23
5782.13
5806.84
5707.43
5480.77
5132.98
4674.3
4118.75
3483.62
2789
2056.05
1305.92
556.483
-180.37
-879.712
-1532.19
-2129.41
-2664.62
-3132.45
-3528.88
-3851.15
-4097.28
-4265.87
-4356.01
-4366.6
-4300.93
-4161.39
-3952.76
-3681.75
-3356.26
-2985.89
-2580.53
-2149.95
-1702.94
-1247.06
-788.35
-331.694
120.471
566.77
1003.23
1427.7
1837.41
2228.69
2597.03
2937.37
3244.55
3513.58
3739.84
3919.22
4048.53
4125.57
4149.79
4121.28
113044
160035
196708
223532
242168
253763
258972
258675
250158
236752
217425
192424
162330
128033
90690.6
51651.9
12369.5
-25726.7
-61247.1
-93067.2
-120307
-142372
-158965
-170091
-176038
-177733
-170703
-162353
-150747
-136729
-120955
-104077
-86674
-69218.8
-52063.1
-35434.7
-19449.5
-4128.22
10582.5
24685.6
38231
51235.5
63650.1
75344.9
86106.9
95657.3
103684
109893
114044
116133
115555
113248
109119
103535
96843.5
89356.4
81308.9
72835.4
63968.5
54655.3
44785.1
34224
22855.1
10620.1
-2448.43
-16170.1
-30371.8
-44441.4
-57967.9
-70489.5
-81595.4
-90959.4
-98368.4
-103723
-107039
-108374
-108003
-105735
-101956
-96728.8
-90157.3
-82307.6
-73244
-63045.1
-51823
-39740.3
-27019.6
-13940.3
-824.374
11975.7
24148.6
35337.5
45268.5
53738.4
60611.1
65818.7
69357.2
71280.3
71697.5
70697.2
69252.5
64601.1
60021.4
54240.1
48034.1
41285.7
34283.7
27189.1
20203.6
13499.5
7224.25
1489.92
-3607.11
-8062.27
-11816
-14941.3
-17482.2
-19507.6
-21081.6
-22261.8
-23093
-23605.9
-23818.2
-23732.9
-23356.1
-22672.9
-21686.8
-20588.5
-19016.9
-17079.5
-14956.5
-12677.7
-10248.6
-7755.69
-5242.81
-2773.15
-402.055
1815.69
3836.74
5617.34
7130.75
8352.7
9274.37
9886.9
10202.1
10232.5
10010.7
9551.97
8878.9
8110.42
7226.77
6236.2
5168.73
4121.71
2872.35
1775.67
679.731
-352.809
-1311.93
-2180.17
-2943.25
-3575.07
-4088.62
-4430
-4668.32
-4729.02
-4693.55
-4544.6
-4320.27
-4042.33
-3754.48
-3475.1
-3220.51
-3002.53
-2826.25
-2690.06
-2586.59
-2500.71
-2416.11
-2317.02
-2185.81
-2008.48
-1775.97
-1481.75
-1123.16
-701.103
-223.256
305.534
896.65
1513.17
2149.92
2792.22
3421.12
4017.32
4559.87
5029.2
5407.6
5680.19
5834.83
5861.48
5761
5531.38
5178.61
4713.21
4149.63
3505.66
2801.94
2060.11
1301.75
544.955
-197.736
-901.901
-1558.1
-2158.06
-2695.17
-3164.27
-3561.56
-3884.4
-4130.9
-4299.62
-4389.58
-4399.49
-4332.61
-4191.19
-3979.97
-3705.75
-3376.57
-3002.27
-2592.99
-2158.76
-1708.56
-1250.05
-789.265
-331.021
122.371
569.707
1007.27
1433.04
1844.37
2237.58
2608.12
2950.81
3260.32
3531.51
3759.64
3940.46
4070.68
4148.07
4171.82
4141.71
91707.7
125039
153920
176342
192442
202689
207507
207500
200799
189893
174293
154229
130163
102776
72943.9
41682.9
10102.9
-20745.8
-49684.9
-75840.5
-98484
-117097
-131385
-141285
-146937
-148867
-143907
-137693
-128603
-117362
-104498
-90532.5
-75928.4
-61071.5
-46258.5
-31697.3
-17518.6
-3794.88
9514.32
22275.5
34497.6
46151.6
57168.4
67429.9
76768.5
84976.4
91828.3
97116.1
100670
102548
102093
100231
96822.9
92133
86413.7
79894.8
72752
65093
56957.8
48330.3
39157
29369.7
18912.2
7769.08
-4010.53
-16242.9
-28907.1
-41337.4
-53247.7
-64266.2
-74059.7
-82357.7
-88975.5
-93815.1
-96869.8
-98157.5
-97930
-95902.6
-92471.2
-87672.3
-81604.3
-74340.3
-65957.3
-56547.2
-46229.4
-35163.1
-23555.2
-11656.8
248.241
11852
22884.7
33030.5
42045.7
49747.1
56008.1
60760.2
63992.6
65745.8
66118.8
65166.1
63749.7
59350.6
55114.7
49722.2
43950.3
37685.5
31195.5
24630.2
18172.8
11979.2
6180.52
876.695
-3840.26
-7998.16
-11487.9
-14406.1
-16784.4
-18684.1
-20159.7
-21260.8
-22026
-22482
-22644.7
-22517.8
-22108.9
-21406.6
-20415.8
-19322.5
-17781.2
-15900.5
-13846.2
-11652.7
-9322.19
-6936.89
-4538.13
-2185.03
70.1751
2175.63
4091.02
5773.43
7198.17
8343.15
9199.61
9757.78
10030
10028.9
9783.94
9313.06
8636.55
7864.21
6985.24
6001.74
4947.55
3907.46
2682.73
1595.08
514.119
-506.17
-1452.99
-2309.35
-3060.15
-3679.92
-4179.49
-4503.19
-4725.14
-4773.14
-4721.21
-4556.67
-4319.57
-4030.97
-3733.23
-3448.24
-3191.7
-2975.34
-2803.88
-2674.95
-2579.7
-2504.11
-2431.08
-2337.79
-2211.43
-2039.07
-1809.79
-1516.92
-1158.01
-734.152
-253.246
279.343
876.358
1499.23
2144.32
2796.26
3435.78
4043.38
4597.45
5077.7
5465.65
5745.75
5905.38
5933.88
5832.7
5599.17
5239.72
4765.29
4190.91
3535.05
2819.09
2065.35
1295.94
529.29
-221.206
-931.786
-1592.91
-2196.49
-2736.06
-3206.82
-3605.23
-3928.83
-4175.81
-4344.71
-4434.47
-4443.57
-4375.06
-4231.1
-4016.41
-3737.88
-3403.73
-3024.14
-2609.59
-2170.45
-1715.96
-1253.91
-790.383
-330.054
124.931
573.604
1012.6
1440.1
1853.57
2249.36
2622.86
2968.7
3281.36
3555.47
3786.1
3968.87
4100.33
4178.23
4201.59
4170.89
78162.7
102269
124574
142719
156097
164712
168763
168679
163030
153903
141033
124640
105104
82956.3
58864.9
33602.9
8019.1
-17121.8
-40818.1
-62397.1
-81263
-96970.2
-109242
-117973
-123201
-125190
-121850
-117160
-109992
-100924
-90380.6
-78775.4
-66477.7
-53799.3
-40987.1
-28226.3
-15652.7
-3374.27
8650.7
20172.2
31175.5
41597.2
51353
60334.6
68409.9
75428.2
81233
85686.1
88676.8
90300.4
89937
88383.2
85542.4
81585.4
76687.4
71008.2
64672.3
57761.9
50319.8
42358.4
33870.7
24843.6
15272.6
5178.83
-5375.7
-16261.6
-27428.2
-38298.8
-48663.5
-58232.9
-66747.2
-73989.9
-79806.4
-84104
-86860.6
-88056.2
-87943.1
-86106.4
-82986.8
-78585.9
-72997.6
-66301
-58585.3
-49955.2
-40537.7
-30489.9
-20003.6
-9302.81
1365.93
11738
21589.5
30643.8
38690.2
45567.9
51162.1
55406
58283.7
59824
60115.6
59189.9
57801.2
53602.8
49725.7
44737.7
39420.6
33670.9
27733.2
21745.5
15871
10246.6
4984.34
170.115
-4116.5
-7926.55
-11101.5
-13772
-15953.6
-17698.8
-19051.3
-20050.9
-20728.8
-21107.3
-21200.1
-21012.2
-20553
-19814.9
-18811.3
-17713.1
-16200.9
-14382.6
-12409.7
-10320
-8113.2
-5865.65
-3615.48
-1416.6
682.861
2635.22
4404.39
5949.13
7255.72
8284.74
9045.87
9524.5
9733.69
9685.85
9408.28
8921.44
8239.27
7463.98
6595.23
5626.85
4595.92
3571.67
2385.23
1318.04
264.758
-730.36
-1651.75
-2483.06
-3208.77
-3804.34
-4280.24
-4580.64
-4781.64
-4806.61
-4734.49
-4552.9
-4302.89
-4004.91
-3698.42
-3408.88
-3151.91
-2938.51
-2772.89
-2652.78
-2567.67
-2502
-2436.51
-2355.92
-2239.57
-2073.95
-1849.27
-1558.91
-1200.47
-775.14
-290.851
246.2
849.76
1480.81
2136.46
2800.63
3453.7
4075.78
4644.46
5138.58
5538.68
5828.34
5994.35
6025.38
5923
5684.53
5316.62
4830.75
4242.69
3571.8
2840.36
2071.6
1288.29
509.259
-251.024
-969.596
-1636.85
-2244.85
-2787.43
-3260.18
-3659.94
-3984.46
-4232.04
-4401.21
-4490.76
-4498.82
-4428.36
-4281.26
-4062.2
-3778.23
-3437.78
-3051.48
-2630.26
-2184.9
-1725.01
-1258.55
-791.598
-328.71
128.182
578.464
1019.2
1448.82
1864.95
2263.99
2641.22
2991.06
3307.7
3585.52
3819.34
4004.57
4137.62
4216.16
4239.14
4207.05
68174.1
86062
103270
117741
128616
135646
138873
138623
133613
125799
114990
101395
85328.7
67214.8
47570.2
26986.9
6115.59
-14484.3
-33968
-51819.6
-67555.5
-80799.6
-91299.2
-98928.4
-103663
-105582
-103533
-99913.9
-94229.1
-86881.9
-78209.4
-68536.5
-58155.6
-47315.6
-36218.8
-25026.3
-13871.2
-2891.78
7969.93
18361.1
28259.6
37576.6
46216.7
54080.1
61063.2
67059.9
71967.6
75701.4
78197.3
79569.1
79287.9
77951.5
75556.4
72194.5
67980.4
63018.3
57390.7
51157.1
44359.9
37031.2
29199.4
20893
12146.6
3007.66
-6453.94
-16158.1
-26036.7
-35564
-44599.3
-52920.6
-60327.5
-66648.6
-71755.7
-75562.6
-78038.1
-79131.2
-79117.1
-77428.6
-74579.1
-70533
-65378.5
-59196.8
-52084.4
-44153.7
-35535.5
-26382.8
-16873.9
-7209.76
2393.73
11707.2
20543.7
28658.7
35868.1
42030.1
47040.3
50834.1
53392.2
54734.9
54940
54030.7
52708
48566.4
45032.1
40393
35457.6
30141
24666.6
19163.8
13779.5
8635.77
3829.02
-564.383
-4469.05
-7980.82
-10876.7
-13322
-15321.7
-16921.9
-18158.6
-19064.4
-19664.6
-19977.2
-20014
-19779.9
-19284.8
-18524.4
-17512.2
-16412.9
-14928.2
-13161.4
-11253.6
-9244.47
-7132.81
-4989.94
-2851.98
-768.827
1214.21
3052.46
4712.61
6154
7363.38
8312.26
9001.16
9417.67
9575.66
9487.76
9179.38
8672.69
7980.79
7195.56
6326.46
5361.46
4341.88
3322.07
2160.2
1101.28
62.6999
-920.449
-1829.96
-2649.67
-3363.08
-3946.25
-4407.4
-4689.18
-4867.93
-4874.89
-4780.31
-4576.84
-4306.9
-3992.62
-3671.38
-3372.01
-3110.71
-2898.38
-2738.69
-2628.78
-2555.82
-2504.39
-2453.55
-2384.97
-2278.22
-2120.41
-1900.78
-1612.73
-1254.09
-826.344
-337.318
206.069
816.288
1457.96
2126.42
2805.33
3474.79
4114.47
4700.95
5211.99
5626.9
5928.26
6102.06
6136.18
6032.35
5787.84
5409.64
4909.82
4305.08
3615.87
2865.63
2078.63
1278.5
484.519
-287.55
-1015.68
-1690.2
-2303.39
-2849.44
-3324.49
-3725.78
-4051.38
-4299.7
-4469.22
-4558.59
-4565.53
-4492.73
-4341.87
-4117.53
-3826.94
-3478.83
-3084.35
-2654.98
-2202.06
-1735.61
-1263.83
-792.794
-326.902
132.142
584.259
1027.01
1459.13
1878.44
2281.39
2663.14
3017.85
3339.36
3621.7
3859.41
4047.65
4182.64
4262
4284.55
4251.18
60256.4
73812.7
87154.3
98621.2
107335
112937
115378
114941
110293
103471
94258.5
82840
69484.2
54530.9
38385.2
21503.2
4384.17
-12558.9
-28621.5
-43409.4
-56534
-67681.3
-76627.6
-83242.7
-87471.7
-89308.7
-88125.7
-85307.3
-80772.7
-74795.7
-67640.2
-59559.8
-50783.1
-41505.9
-31890.3
-22071.7
-12172.1
-2305.78
7439.88
16793.7
25685.3
34004.1
41645.7
48517.8
54540
59641.9
63762.9
66860.2
68906.7
70022.3
69803.6
68614.2
66566.4
63690.3
60051.9
55710.1
50711.7
45095.4
38900.1
32172.2
24967.1
17346.6
9376.18
1123.82
-7334.82
-15973.7
-24702.2
-33023.6
-40863
-48056.3
-54454.9
-59927.6
-64371.1
-67707.7
-69901.4
-70875.3
-70940.6
-69364.9
-66750
-63023.1
-58266.1
-52560.7
-46008.6
-38727.7
-30851.4
-22528.3
-13924.6
-5220.75
3394.42
11722.8
19610.8
26842.9
33259.8
38737.4
43181.9
46532.4
48767.1
49900.1
49998.5
49081.4
47797.4
43729.8
40476.1
36158.7
31573.7
26660.7
21622
16579.5
11665
6986.52
2624.97
-1352.84
-4899.75
-8092.91
-10696.3
-12906.1
-14712.8
-16157.6
-17268.6
-18071.8
-18586.4
-18826.4
-18801
-18515.2
-17978.8
-17190.6
-16166.5
-15060.2
-13599.6
-11880.8
-10036.5
-8106.96
-6091.08
-4054.91
-2032.75
-70.4981
1789.52
3505.8
5048.56
6377.46
7488.35
8341.69
8948.19
9293.49
9392.28
9257.33
8912.73
8381.74
7676.33
6879.01
6008.8
5047.79
4041.16
3027.53
1893.64
846.69
-173.343
-1140.2
-2033.53
-2837.38
-3534.29
-4101.01
-4543.33
-4803.99
-4963.43
-4945.58
-4825.99
-4598.62
-4306.8
-3974.56
-3637.81
-3327.06
-3060.74
-2849.28
-2695.9
-2597.53
-2539.07
-2503.17
-2468.58
-2414.39
-2321.46
-2173.68
-1960.79
-1676.11
-1317.72
-887.499
-393.003
159.461
773.955
1429.93
2113.55
2809.89
3498.77
4159.33
4766.96
5298.13
5730.7
6046
6229.14
6266.97
6161.28
5909.62
5519.18
5002.77
4378.22
3667.27
2894.74
2086.2
1266.23
454.688
-331.191
-1070.41
-1753.32
-2372.36
-2922.29
-3399.86
-3802.85
-4129.65
-4378.85
-4548.84
-4638.08
-4643.8
-4568.37
-4413.14
-4182.61
-3884.18
-3526.97
-3122.74
-2683.68
-2221.78
-1747.59
-1269.57
-793.814
-324.508
136.855
590.975
1035.98
1470.93
1893.92
2301.46
2688.56
3049.06
3376.37
3664.1
3906.44
4098.25
4235.56
4315.89
4338.07
4303.14
53713.1
64148.2
74554.2
83612.2
90516.7
94882.1
96623.9
96016.6
91544.2
85491.4
77537.9
67843.5
56635.7
44191.9
30832.6
16910.9
2810.61
-11161.6
-24422.4
-36673.8
-47606.5
-56962.2
-64547.5
-70239.6
-73976.1
-75765.4
-75042.2
-72851.4
-69214.2
-64333.1
-58413.7
-51652.9
-44226.6
-36285.5
-27955.4
-19345.7
-10563.8
-1718.48
7030.45
15436.8
23411.9
30828.1
37574.3
43565
48738.9
53054
56483
59015.6
60653.8
61515.2
61338.3
60245.3
58467.4
55988.9
52837.6
49035.4
44598.8
39547
33913.5
27753.7
21144
14172
6927.82
-505.122
-8045.51
-15729.3
-23439.4
-30686.6
-37459.7
-43644.1
-49135.7
-53838.3
-57671.7
-60567.7
-62489.1
-63338
-63470.7
-61981.8
-59572.2
-56133.5
-51740.3
-46473
-40436.4
-33751.7
-26553.2
-18985
-11201.8
-3366.42
4355.81
11793.2
18822.2
25251.6
30943.9
35791.2
39709.9
42642.6
44566.8
45491.3
45473.3
44529.3
43228.5
39323.7
36255.5
32220.2
27943.1
23388.6
18739
14110.1
9620.37
5365.65
1412.45
-2171.59
-5351.95
-8248.02
-10599.6
-12581.3
-14199.3
-15490.4
-16477.3
-17179.7
-17611.7
-17783.1
-17700.8
-17368.6
-16796.3
-15984.8
-14949.6
-13836.2
-12398.1
-10721.1
-8932.33
-7070.95
-5137.49
-3192.8
-1269.86
588.858
2343.41
3955.07
5396.25
6627.62
7642.51
8420.21
8953.19
9233.81
9276.99
9096.05
8714.2
8155.6
7432.84
6619.76
5742.42
4779.25
3779.54
2766.11
1653.22
612.17
-396.241
-1353.77
-2238.28
-3033.51
-3720.79
-4276.99
-4704.32
-4949.95
-5082.35
-5041.42
-4893.53
-4637.52
-4317.93
-3961.75
-3605.4
-3279.45
-3005.57
-2794.17
-2647.96
-2562.6
-2521.81
-2504.48
-2489.09
-2453.04
-2374.36
-2237.66
-2031.98
-1750.67
-1392.15
-958.908
-458.089
103.411
725.944
1396.96
2097.71
2814.05
3525.41
4210.24
4842.51
5397.21
5850.46
6182.1
6376.21
6418.46
6310.4
6050.46
5645.74
5109.95
4462.26
3725.96
2927.5
2093.97
1251.05
419.297
-382.458
-1134.29
-1826.61
-2452.08
-3006.21
-3486.45
-3891.24
-4219.37
-4469.59
-4640.2
-4729.43
-4733.9
-4655.57
-4495.38
-4257.7
-3950.17
-3582.34
-3166.69
-2716.31
-2243.94
-1760.78
-1275.59
-794.464
-321.383
142.351
598.58
1046.04
1484.11
1911.27
2324.09
2717.41
3084.67
3418.77
3712.81
3960.55
4156.55
4296.54
4378.02
4399.77
4363.12
48156.4
56278.4
64436.9
71577
76992.1
80315.3
81458.3
80714.6
76289.8
70848.3
63906.2
55595.2
46109.8
35679.5
24560.4
13027.8
1376.93
-10164.3
-21113.8
-31251.3
-40334
-48152.8
-54544.9
-59401.1
-62666
-64417.2
-63889.5
-62172.1
-59233.8
-55230.2
-50321.3
-44658.2
-38374.1
-31581
-24371.9
-16830.4
-9044.09
-1095.49
6721.17
14260.8
21401.2
27999.9
33940.6
39144.1
43565
47184.2
50000.6
52028.7
53293.4
53904.4
53745.1
52710.5
51139.8
48986.4
46248.3
42917.9
38985.4
34451.6
29342.8
23719.6
17673.9
11314.2
4749.79
-1923.92
-8618.05
-15445.7
-22247.2
-28530.4
-34345.1
-39619.6
-44287.9
-48285
-51552.4
-54032.2
-55688.9
-56407.4
-56596.9
-55172.6
-52942
-49763.4
-45703.3
-40839.7
-35278.4
-29142.8
-22566.9
-15690.5
-8657.65
-1615.82
5290.08
11911.2
18150.5
23838.6
28857.3
33113.7
36533.8
39064.9
40684.1
41396.6
41250.4
40260.2
38921.3
35195.2
32260.6
28471.9
24468.1
20236.2
15940.7
11691.8
7596.53
3739.09
172.307
-3033.36
-5829.45
-8455.82
-10562.9
-12312.9
-13738.8
-14872.4
-15731.4
-16330
-16677.2
-16778.6
-16638.4
-16259.3
-15650.2
-14814
-13766.1
-12641.6
-11222.8
-9582.45
-7844.38
-6045.37
-4188.55
-2329.71
-500.778
1258.96
2911.74
4421.47
5763.17
6897.9
7823.27
8520.36
8976.8
9189.78
9174.08
8943.52
8520.85
7930.67
7186.48
6355.35
5467.94
4500.52
3506.16
2491.73
1399.03
364.117
-632.938
-1580.98
-2456.71
-3243.42
-3921.12
-4466.58
-4878.68
-5105.78
-5216.88
-5148.1
-4969.09
-4681.29
-4330.45
-3946.59
-3567.58
-3224.47
-2941.18
-2729.3
-2591.01
-2519.7
-2497.9
-2503.57
-2510.64
-2493.2
-2433.83
-2311.08
-2114.09
-1836.79
-1478.15
-1041.58
-533.592
37.7004
670.783
1358.38
2078.31
2817.35
3554.4
4267.03
4927.65
5509.49
5986.65
6337.21
6544.09
6591.6
6480.4
6211.02
5789.89
5231.74
4557.37
3791.89
2963.66
2101.54
1232.48
377.772
-441.955
-1207.89
-1910.54
-2542.92
-3101.44
-3584.44
-3991.06
-4320.6
-4572.01
-4743.43
-4832.81
-4836.07
-4754.63
-4588.92
-4343.12
-4025.14
-3645.06
-3216.24
-2752.77
-2268.35
-1774.92
-1281.62
-794.517
-317.325
148.643
607.041
1057.09
1498.53
1930.33
2349.14
2749.59
3124.65
3466.59
3767.92
4021.92
4222.71
4365.8
4448.57
4469.88
4431.27
43344.7
49713.4
56134.2
61749.4
65950.4
68409.8
69056
68215.9
63750.7
58810.3
52692.5
45503.3
37411
28608.5
19303.6
9712.75
63.3177
-9477.2
-18507.7
-26872.8
-34385.8
-40881
-46224.4
-50324.2
-53137.7
-54804.5
-54389.5
-52980.1
-50577.8
-47275.2
-43193.4
-38446.2
-33131.6
-27329
-21102.1
-14509.4
-7617.1
-468.823
6491.07
13239.7
19620.2
25477.6
30692.2
35190.4
38940.5
41942
44214
45790
46711.5
47078.4
46909.2
45904.3
44490
42601.4
40214.4
37298
33819.9
29763.2
25145.1
20028.6
14516.7
8734.11
2805.24
-3165.26
-9076.94
-15137.3
-21130.9
-26544.7
-31496.3
-35948.3
-39868.1
-43218.1
-45960.1
-48047.3
-49447.7
-50033.2
-50272.2
-48894.8
-46820.6
-43877.7
-40123.1
-35631.4
-30508.3
-24877.8
-18873
-12629
-6280.55
38.3123
6200.27
12075.8
17591.5
22597.4
26992.1
30696.5
33646.1
35793
37115
37614.6
37332
36281
34894.6
31337.6
28502.1
24925.7
21162.1
17217.4
13240.5
9337.37
5604.67
2116.06
-1090.76
-3935.77
-6510.19
-8740.53
-10588.1
-12106.8
-13341
-14316.8
-15048
-15543.4
-15807
-15840.5
-15644.9
-15221.5
-14577.8
-13718.2
-12657.3
-11519.6
-10117.6
-8508.81
-6815.39
-5070.91
-3281.87
-1499.24
245.847
1916.93
3478.08
4895.73
6146.62
7193.06
8037.45
8655.62
9038.7
9186.01
9111.71
8830.29
8364.43
7739.15
6969.44
6117.61
5215.79
4240.24
3247.58
2228.38
1151.96
120.116
-869.73
-1812.41
-2683.96
-3466.86
-4139.53
-4678.11
-5078.16
-5289.33
-5372.21
-5275.53
-5061.76
-4737.34
-4349.78
-3932.72
-3526.53
-3163.3
-2868.54
-2655.59
-2526.16
-2471.58
-2472.62
-2503.83
-2536.94
-2544.02
-2503.01
-2395.56
-2207.83
-1934.77
-1575.73
-1135.52
-619.515
-37.5044
607.85
1313.67
2054.8
2819.24
3585.34
4329.49
5022.4
5635.23
6139.77
6512.01
6733.58
6787.35
6671.98
6392.1
5952.26
5368.56
4663.74
3865
3002.94
2108.46
1209.95
329.439
-510.402
-1291.85
-2005.63
-2645.29
-3208.29
-3693.99
-4102.42
-4433.42
-4686.19
-4858.68
-4948.43
-4950.67
-4865.96
-4694.16
-4439.25
-4109.38
-3715.34
-3271.42
-2792.98
-2294.82
-1789.76
-1287.39
-793.698
-312.113
155.747
616.351
1069
1514.01
1950.91
2376.45
2784.98
3168.94
3519.87
3829.57
4090.7
4296.98
4443.56
4527.77
4548.58
4507.75
39114.8
44131
49195.4
53596.9
56814.3
58567.5
58812.3
57913.6
53352.1
48836.7
43399.3
37126.4
30167.1
22687.4
14859.1
6854.5
-1150.41
-9036.37
-16464.4
-23334.9
-29509
-34859
-39278
-42692.6
-45074.8
-46626.6
-46253.1
-45037.6
-43040.1
-40295
-36889.6
-32907.6
-28418.4
-23473.5
-18110.9
-12365.2
-6280.63
114.252
6323.8
12351.8
18039.8
23224
27782.7
31647.7
34799
37250.7
39037.9
40207.6
40813.5
40944.4
40733.6
39736.5
38436.8
36761.9
34672.6
32120.1
29053
25437.2
21279.7
16642.3
11635.9
6397.39
1062.25
-4257.68
-9445.04
-14822.1
-20087.1
-24718
-28889.8
-32596.5
-35833.4
-38587.6
-40840
-42555.5
-43707.6
-44157.6
-44440.5
-43094.9
-41156.9
-38428.2
-34954.7
-30806.5
-26087.8
-20922.1
-15441.3
-9775.74
-4051.9
1607.87
7091.17
12284.9
17135.5
21511.7
25326.6
28513.3
31016.8
32794.5
33825.4
34110.7
33683.8
32559.4
31121.2
27710.4
24949.1
21553
17999
14309
10618.2
7029.79
3631.66
486.942
-2372.53
-4879.08
-7156.67
-9077.85
-10666.1
-11952.9
-12993.9
-13810.4
-14412.5
-14804
-14984.2
-14950.6
-14700.8
-14234.2
-13556.5
-12673.3
-11598.6
-10444.5
-9055.96
-7473.91
-5819.64
-4123.16
-2394.89
-681.322
987.038
2576.24
4051.93
5382.92
6547.66
7508.96
8276.33
8817.83
9127.32
9208.02
9073.39
8738.57
8226.47
7562.37
6763.1
5888.29
4968.66
3982.25
2988.87
1962.42
900.325
-129.229
-1113.65
-2052.56
-2921.89
-3703.12
-4372.91
-4906.27
-5295.1
-5489.04
-5547.29
-5418.95
-5166.93
-4801.56
-4372.49
-3917.23
-3479.25
-3093.03
-2785
-2570.31
-2450.57
-2415.24
-2441.72
-2502.98
-2566.11
-2601.14
-2582.02
-2491.21
-2314.38
-2045.83
-1686.04
-1241.41
-716.942
-122.749
536.421
1262.16
2026.63
2819.22
3617.83
4397.35
5126.78
5774.78
6310.46
6707.41
6945.77
7007.73
6885.84
6594.65
6133.62
5520.91
4781.55
3945.19
3044.97
2114.16
1182.82
273.509
-588.637
-1386.88
-2112.48
-2759.62
-3327.04
-3815.29
-4225.4
-4557.87
-4812.22
-4986.12
-5076.49
-5077.96
-4989.94
-4811.55
-4546.52
-4203.25
-3793.36
-3332.27
-2836.82
-2323.08
-1804.96
-1292.55
-791.696
-305.375
163.619
626.461
1081.64
1530.36
1972.8
2405.8
2823.44
3217.51
3578.68
3897.89
4167.14
4379.6
4530.1
4615.9
4636.12
4592.73
35350.4
39308.1
43304.9
46738.8
49163
50346.4
50277.5
49344.3
44664.2
40521.7
35651.2
30129.3
24094
17691.9
11068.4
4363.78
-2283.9
-8796.29
-14878.9
-20481.7
-25507.5
-29862
-33462.7
-36254.7
-38225.3
-39637.4
-39251.4
-38148.9
-36451.2
-34146.2
-31292.8
-27950.2
-24164.7
-19964.8
-15365.4
-10379
-5026.91
676.448
6208.57
11578.5
16634.1
21205.9
25171.1
28466.8
31082.8
33045
34399.9
35204.3
35519.7
35424.5
35136
34129.8
32909.6
31404.2
29566.2
27333.8
24639.6
21433.1
17709.4
13526.7
9000.01
4274.71
-506.141
-5225.97
-9749.19
-14514.3
-19115.7
-23040
-26506.6
-29536.3
-32148.2
-34351.9
-36146.7
-37509.1
-38419.7
-38732.1
-39054.9
-37728.5
-35908.9
-33375.7
-30161.7
-26331.5
-21986.5
-17249
-12248.7
-7111.88
-1957.39
3102.13
7966.86
12537.2
16775.9
20570.5
23845.6
26545.9
28625.4
30047.6
30793.3
30863.2
30285.6
29077.2
27585.4
24292.1
21585.3
18339.8
14967.1
11501.1
8065.58
4762.86
1673.09
-1148.93
-3671.99
-5862.18
-7834.06
-9461.15
-10792.1
-11847
-12694.1
-13350.9
-13824
-14112.4
-14210.8
-14112.1
-13810.4
-13302.6
-12592.1
-11685.7
-10596.8
-9423.49
-8044.82
-6485.03
-4864.18
-3208.98
-1534.07
118.168
1717.7
3232.85
4630.54
5881.88
6966.34
7847.41
8542.61
9009.65
9246.83
9261.12
9065.16
8674.71
8113.36
7406.74
6573.93
5673.55
4732.56
3732.63
2736.15
1698.56
648.465
-380.153
-1362.05
-2300.32
-3171.09
-3954.66
-4625.58
-5157.1
-5537.17
-5715.36
-5744.31
-5582.7
-5288.18
-4876.4
-4399.89
-3900.59
-3425.72
-3012.78
-2689.57
-2472.85
-2364.13
-2350.57
-2407.01
-2502.45
-2599.85
-2666.05
-2672.67
-2598.39
-2434.29
-2170.36
-1809.6
-1359.32
-826.048
-218.626
455.79
1202.94
1992.83
2816.39
3651.19
4470.27
5240.75
5928.35
6499.22
6924.08
7181.39
7252.89
7122.15
6819.67
6334.7
5689.22
4910.95
4032.28
3089.3
2117.98
1150.32
208.918
-677.511
-1493.78
-2231.79
-2886.44
-3458.02
-3948.52
-4360.07
-4694
-4950.19
-5125.94
-5217.25
-5218.53
-5127.16
-4941.68
-4665.45
-4307.16
-3879.41
-3398.87
-2884.16
-2352.86
-1820.14
-1296.7
-788.178
-296.657
172.134
637.315
1094.85
1547.32
1995.7
2436.96
2864.81
3270.29
3643.05
3973.02
4251.43
4470.83
4625.68
4713.17
4732.64
4686.39
31965.7
35085.1
38235.9
40897.2
42684.7
43414.4
43110.1
42154.6
37366.4
33560.4
29164.1
24257.5
18974.3
13448.4
7807.23
2168.23
-3355.73
-8724.42
-13671.4
-18192.8
-22227.7
-25711.9
-28584.7
-30808.7
-32386.1
-33636.8
-33197.5
-32151.5
-30670.2
-28709.1
-26303.6
-23494.1
-20308.4
-16756.2
-12832.7
-8528.49
-3845.58
1227.4
6138.23
10903.1
15378.5
19391.4
22818.8
25602.8
27741.7
29269.9
30241.5
30719.2
30768.9
30459.9
30052.1
29023.4
27851.2
26474.5
24844
22891
20535.2
17710.3
14398.3
10650.5
6582.69
2344.1
-1918.71
-6088.31
-10025.2
-14215.6
-18216.5
-21501.2
-24331.5
-26746.8
-28786.5
-30480.8
-31846.3
-32871.3
-33545
-33715.7
-34074
-32755.3
-31037.5
-28683.9
-25711.7
-22178.3
-18180.8
-13838.7
-9279.71
-4625.52
11.3126
4526.12
8829.27
12832.1
16508
19766.5
22539.5
24782.3
26458
27536.6
28002
27855.1
27120.5
25819.3
24272.5
21066.1
18397.3
15275.3
12057.1
8785.69
5575.13
2529.63
-277.809
-2799.73
-5000.2
-6879.99
-8554.77
-9889.85
-10961.7
-11784.7
-12436.5
-12932.8
-13276.4
-13462.3
-13480.1
-13318.4
-12967.3
-12420.5
-11678.8
-10749.5
-9646.55
-8450.98
-7078.39
-5536.7
-3943.51
-2323.07
-694.418
903.793
2441.76
3889.88
5216.07
6393.64
7402.56
8206.04
8835.29
9229.38
9394.71
9342.34
9083.85
8635.45
8021.8
7268.91
6398.58
5469.96
4504.11
3488.42
2487.58
1432.93
393.701
-634.083
-1615.51
-2555.48
-3430.56
-4219.78
-4895.33
-5427.89
-5801.07
-5963.41
-5964.62
-5766.24
-5424.94
-4961.25
-4431.27
-3881.81
-3364.66
-2920.8
-2580.09
-2360.97
-2264.54
-2275.15
-2366.23
-2501.09
-2637.85
-2739.2
-2774.23
-2719.59
-2568.09
-2309.52
-1947.58
-1490.17
-947.166
-325.643
365.417
1135.17
1952.69
2810.11
3684.97
4547.91
5364.36
6096.45
6706.99
7163.33
7441.74
7523.4
7386.81
7068.99
6556.95
5874.59
5052.58
4126.46
3135.66
2119.27
1111.56
134.659
-777.88
-1613.61
-2364.34
-3026.31
-3601.6
-4093.89
-4506.49
-4841.79
-5100.13
-5278.26
-5370.9
-5372.64
-5278.13
-5085.16
-4796.66
-4421.57
-3973.73
-3471.24
-2934.8
-2383.75
-1834.82
-1299.35
-782.8
-285.147
180.931
648.94
1108.47
1564.61
2019.31
2469.65
2908.91
3327.21
3713.06
4055.2
4343.91
4571.07
4730.7
4819.99
4838.71
4789.04
29881.5
32553.1
35253
37499.1
38940.7
39423.6
38995.5
38025.7
33185
29581.2
25449.6
20881.5
16012.3
10970.5
5875.26
832.744
-4050.05
-8769.11
-13056.8
-16944.1