/*--------------------------------*- C++ -*----------------------------------*\
| =========                 |                                                 |
| \\      /  F ield         | OpenFOAM: The Open Source CFD Toolbox           |
|  \\    /   O peration     | Version:  v1912                                 |
|   \\  /    A nd           | Website:  www.openfoam.com                      |
|    \\/     M anipulation  |                                                 |
\*---------------------------------------------------------------------------*/
FoamFile
{
    version     2.0;
    format      ascii;
    class       volVectorField;
    location    "40";
    object      U;
}
// * * * * * * * * * * * * * * * * * * * * * * * * * * * * * * * * * * * * * //

dimensions      [0 1 -1 0 0 0 0];


internalField   nonuniform List<vector> 
114144
(
(0.426285 -0.0461264 0)
(0.450698 -0.0400691 0)
(0.393034 -0.0393248 0)
(0.325584 -0.0399091 0)
(0.25208 -0.0411815 0)
(0.173607 -0.0428482 0)
(0.0906833 -0.0445658 0)
(0.00508821 -0.0460153 0)
(-0.0824737 -0.0465755 0)
(-0.17075 -0.0459309 0)
(-0.256317 -0.0437739 0)
(-0.336458 -0.0399346 0)
(-0.408098 -0.0344132 0)
(-0.468264 -0.0273827 0)
(-0.514343 -0.0191654 0)
(-0.544318 -0.0101937 0)
(-0.556928 -0.000955384 0)
(-0.551753 0.0080695 0)
(-0.529203 0.0164244 0)
(-0.490472 0.0237499 0)
(-0.437412 0.0297866 0)
(-0.372369 0.0343847 0)
(-0.297998 0.0374988 0)
(-0.217057 0.0391746 0)
(-0.131233 0.0395214 0)
(-0.0485189 0.0373572 0)
(0.0328573 0.035837 0)
(0.114598 0.0329958 0)
(0.188785 0.0292513 0)
(0.255481 0.0250652 0)
(0.313761 0.020687 0)
(0.363063 0.0163415 0)
(0.403215 0.0122347 0)
(0.434449 0.00853951 0)
(0.457325 0.00537607 0)
(0.472626 0.00279746 0)
(0.481227 0.000775652 0)
(0.483863 -0.000825689 0)
(0.481175 -0.00208962 0)
(0.473451 -0.00329991 0)
(0.460468 -0.00465537 0)
(0.441736 -0.00632071 0)
(0.416515 -0.00838325 0)
(0.383998 -0.0108296 0)
(0.343518 -0.0135432 0)
(0.294744 -0.0163212 0)
(0.237843 -0.0189061 0)
(0.173576 -0.0210302 0)
(0.103264 -0.0224612 0)
(0.0288995 -0.0230889 0)
(-0.0476186 -0.0226694 0)
(-0.124205 -0.0215217 0)
(-0.198602 -0.0197145 0)
(-0.269306 -0.0175212 0)
(-0.3353 -0.0152453 0)
(-0.396214 -0.0131761 0)
(-0.452256 -0.0115393 0)
(-0.504052 -0.0104567 0)
(-0.552389 -0.0099183 0)
(-0.597896 -0.00977617 0)
(-0.640742 -0.00977129 0)
(-0.680417 -0.00959198 0)
(-0.715661 -0.00894546 0)
(-0.744555 -0.00761721 0)
(-0.76476 -0.00549918 0)
(-0.773854 -0.00265125 0)
(-0.769423 0.00144883 0)
(-0.749716 0.0052413 0)
(-0.713856 0.00912708 0)
(-0.661564 0.012892 0)
(-0.593587 0.0163003 0)
(-0.51152 0.0191523 0)
(-0.417597 0.0213256 0)
(-0.314369 0.0228058 0)
(-0.204592 0.0236148 0)
(-0.0900242 0.024087 0)
(0.0261569 0.0235261 0)
(0.142458 0.0235019 0)
(0.258924 0.0230939 0)
(0.373605 0.0226556 0)
(0.485849 0.0221455 0)
(0.594528 0.0214747 0)
(0.69822 0.0205038 0)
(0.795056 0.0190828 0)
(0.882763 0.0170849 0)
(0.958768 0.0144378 0)
(1.02043 0.0111426 0)
(1.06525 0.00728001 0)
(1.09118 0.00300018 0)
(1.09666 -0.00147702 0)
(1.08125 -0.00594837 0)
(1.0451 -0.0101892 0)
(0.989077 -0.0140055 0)
(0.914783 -0.0172691 0)
(0.824347 -0.0199158 0)
(0.720182 -0.0219413 0)
(0.604785 -0.0234033 0)
(0.480893 -0.0243587 0)
(0.349463 -0.025369 0)
(0.21004 -0.024264 0)
(0.0831438 -0.0238039 0)
(-0.0469306 -0.0233342 0)
(-0.185149 -0.0224559 0)
(-0.31079 -0.0210125 0)
(-0.43144 -0.0190753 0)
(-0.541068 -0.0167697 0)
(-0.639317 -0.0141015 0)
(-0.72389 -0.0111829 0)
(-0.793675 -0.00813063 0)
(-0.847836 -0.00508843 0)
(-0.88621 -0.0021818 0)
(-0.909402 0.000455897 0)
(-0.917893 0.00325986 0)
(-0.913557 0.00400891 0)
(-0.89824 0.0053097 0)
(-0.872794 0.00613663 0)
(-0.839102 0.00664638 0)
(-0.798374 0.00693825 0)
(-0.75153 0.00713595 0)
(-0.699074 0.00734775 0)
(-0.641157 0.00765294 0)
(-0.577677 0.00809096 0)
(-0.50843 0.00865723 0)
(-0.433127 0.00931614 0)
(-0.35199 0.00998704 0)
(-0.264554 0.0106043 0)
(-0.169592 0.0112143 0)
(-0.0766659 0.0112703 0)
(0.0191389 0.0112505 0)
(0.120364 0.0110909 0)
(0.219091 0.0105414 0)
(0.315891 0.00969341 0)
(0.407189 0.00861834 0)
(0.492025 0.00733311 0)
(0.56825 0.00590073 0)
(0.634442 0.00436806 0)
(0.689263 0.00278967 0)
(0.73168 0.00120472 0)
(0.761086 -0.000327005 0)
(0.776914 -0.00183447 0)
(0.779144 -0.00298386 0)
(0.768619 -0.00412453 0)
(0.745338 -0.00500855 0)
(0.710388 -0.00563728 0)
(0.664817 -0.00600484 0)
(0.610023 -0.00610344 0)
(0.547869 -0.00600791 0)
(0.477931 -0.00579997 0)
(0.402337 -0.00458274 0)
(0.325819 -0.00397117 0)
(0.249585 -0.00321717 0)
(0.172747 -0.00242729 0)
(0.0978026 -0.00167842 0)
(0.0254128 -0.000733183 0)
(-0.048329 -0.000433691 0)
(-0.120186 0.000361425 0)
(-0.186888 0.00106763 0)
(-0.248708 0.00182625 0)
(-0.304896 0.00260371 0)
(-0.353929 0.00336176 0)
(-0.395184 0.004015 0)
(-0.426558 0.0044953 0)
(-0.449105 0.00467299 0)
(-0.458076 0.00460307 0)
(-0.457941 0.00386137 0)
(-0.44991 0.00289823 0)
(-0.429339 0.00171881 0)
(-0.403603 0.00051713 0)
(-0.371769 -0.000712368 0)
(-0.338364 -0.00177262 0)
(-0.306295 -0.00228464 0)
(-0.277476 -0.00239932 0)
(-0.253441 -0.00213027 0)
(-0.23505 -0.00155598 0)
(-0.222523 -0.000800648 0)
(-0.215263 -4.08545e-05 0)
(-0.212193 0.000520521 0)
(-0.211648 0.00085406 0)
(-0.211611 0.000973821 0)
(-0.20995 0.000721753 0)
(-0.205021 5.9252e-05 0)
(-0.195451 -0.00096531 0)
(-0.180248 -0.00221574 0)
(-0.15874 -0.00359251 0)
(-0.130687 -0.00500502 0)
(-0.096124 -0.0063986 0)
(-0.0555898 -0.00769031 0)
(-0.00899493 -0.00886401 0)
(0.0428663 -0.00985674 0)
(0.0986592 -0.0106135 0)
(0.157296 -0.011068 0)
(0.217187 -0.0111993 0)
(0.276715 -0.0109562 0)
(0.333889 -0.0103144 0)
(0.386608 -0.00926239 0)
(0.432729 -0.00780615 0)
(0.470345 -0.00600913 0)
(0.497785 -0.00391287 0)
(0.513631 -0.00160324 0)
(0.516922 0.000873491 0)
(0.507536 0.00333536 0)
(0.485125 0.00576177 0)
(0.450506 0.00797104 0)
(0.404965 0.00988541 0)
(0.350172 0.0114333 0)
(0.288246 0.0125732 0)
(0.221323 0.0132908 0)
(0.151662 0.0135953 0)
(0.0813949 0.0135194 0)
(0.01205 0.0131098 0)
(-0.0546003 0.0124216 0)
(-0.116906 0.0115286 0)
(-0.174099 0.0104868 0)
(-0.225605 0.00934714 0)
(-0.271055 0.00814958 0)
(-0.310186 0.00692074 0)
(-0.34288 0.0056764 0)
(-0.369022 0.0044181 0)
(-0.388526 0.00315032 0)
(-0.401304 0.00187208 0)
(-0.407306 0.000567084 0)
(-0.406357 -0.00073173 0)
(-0.398577 -0.00200018 0)
(-0.384227 -0.00321189 0)
(-0.363681 -0.00433163 0)
(-0.337573 -0.00531437 0)
(-0.306669 -0.00614445 0)
(-0.271892 -0.00678426 0)
(-0.234264 -0.00723807 0)
(-0.19474 -0.0075124 0)
(-0.154225 -0.00763282 0)
(-0.113437 -0.0076327 0)
(-0.0729181 -0.00754687 0)
(-0.0330069 -0.00741244 0)
(0.0062678 -0.00725042 0)
(0.0446552 -0.0070809 0)
(0.0821191 -0.0069034 0)
(0.118611 -0.00670736 0)
(0.15399 -0.00647496 0)
(0.187995 -0.00618315 0)
(0.220234 -0.00580954 0)
(0.250221 -0.00533731 0)
(0.277418 -0.00475887 0)
(0.301249 -0.00407362 0)
(0.321202 -0.00328975 0)
(0.33681 -0.00241119 0)
(0.347555 -0.0013903 0)
(0.352806 -0.000273272 0)
(0.353201 0.000925722 0)
(0.344295 0.000369901 0)
(0.451184 0.00112263 0)
(0.454504 0.0211588 0)
(0.394083 0.029359 0)
(0.325886 0.034319 0)
(0.252031 0.0379764 0)
(0.173321 0.0409029 0)
(0.0901438 0.0432329 0)
(0.00429767 0.0448013 0)
(-0.0835329 0.0454713 0)
(-0.172169 0.0452088 0)
(-0.258137 0.0435343 0)
(-0.338687 0.0402846 0)
(-0.41071 0.0353997 0)
(-0.471192 0.0289454 0)
(-0.517487 0.0211168 0)
(-0.547547 0.012227 0)
(-0.560094 0.00267716 0)
(-0.554708 -0.00707139 0)
(-0.531811 -0.0165962 0)
(-0.492614 -0.0254677 0)
(-0.438997 -0.0333224 0)
(-0.373338 -0.039875 0)
(-0.298317 -0.0449211 0)
(-0.216723 -0.0483409 0)
(-0.130763 -0.0501246 0)
(-0.0473566 -0.0522428 0)
(0.0349723 -0.049258 0)
(0.116824 -0.0457883 0)
(0.191202 -0.0418188 0)
(0.258088 -0.0371796 0)
(0.316461 -0.0320899 0)
(0.365751 -0.026802 0)
(0.405798 -0.0215517 0)
(0.436851 -0.0165363 0)
(0.459499 -0.0118932 0)
(0.474557 -0.00768905 0)
(0.482924 -0.00391488 0)
(0.485399 -0.000538156 0)
(0.482628 0.00278639 0)
(0.474881 0.00601877 0)
(0.461955 0.00940369 0)
(0.443335 0.0130911 0)
(0.41824 0.0171696 0)
(0.385813 0.0216371 0)
(0.345328 0.0263828 0)
(0.296408 0.031189 0)
(0.239188 0.0357566 0)
(0.174427 0.0397469 0)
(0.10346 0.0428426 0)
(0.0284103 0.0446688 0)
(-0.0488172 0.0456535 0)
(-0.126086 0.0451314 0)
(-0.20097 0.0436198 0)
(-0.27196 0.041364 0)
(-0.338025 0.0387034 0)
(-0.398823 0.0359682 0)
(-0.454629 0.0334118 0)
(-0.506162 0.0311595 0)
(-0.554301 0.0291891 0)
(-0.599758 0.0273396 0)
(-0.642763 0.0253383 0)
(-0.682829 0.0228368 0)
(-0.718683 0.0194587 0)
(-0.748339 0.0148696 0)
(-0.769358 0.00886229 0)
(-0.778943 0.00144278 0)
(-0.775019 -0.00698817 0)
(-0.755723 -0.0167044 0)
(-0.719576 -0.0268514 0)
(-0.666556 -0.0368003 0)
(-0.597504 -0.045972 0)
(-0.514144 -0.0539076 0)
(-0.418853 -0.0603161 0)
(-0.314321 -0.0650995 0)
(-0.20335 -0.0682941 0)
(-0.0880794 -0.0699258 0)
(0.0287635 -0.0713091 0)
(0.145669 -0.0709301 0)
(0.262327 -0.0702944 0)
(0.37728 -0.0690927 0)
(0.489856 -0.0673079 0)
(0.599005 -0.0647733 0)
(0.703333 -0.0612506 0)
(0.800955 -0.0564752 0)
(0.889535 -0.0502179 0)
(0.966398 -0.0423479 0)
(1.02878 -0.032875 0)
(1.07409 -0.0219685 0)
(1.10017 -0.00994992 0)
(1.10539 0.00279185 0)
(1.08933 0.0155898 0)
(1.0522 0.0281203 0)
(0.994913 0.0398545 0)
(0.919187 0.0504342 0)
(0.827254 0.0596152 0)
(0.721605 0.0672694 0)
(0.604808 0.0733311 0)
(0.479447 0.0778535 0)
(0.347294 0.0802334 0)
(0.207085 0.0835414 0)
(0.0786804 0.0848304 0)
(-0.0524582 0.0831443 0)
(-0.191502 0.0804102 0)
(-0.31791 0.0763772 0)
(-0.439315 0.0711939 0)
(-0.549582 0.0645571 0)
(-0.648252 0.0567387 0)
(-0.732982 0.0479086 0)
(-0.802609 0.0383971 0)
(-0.856279 0.0285685 0)
(-0.893851 0.0188356 0)
(-0.915793 0.00959201 0)
(-0.923529 0.0012639 0)
(-0.918193 -0.00663837 0)
(-0.901341 -0.0132333 0)
(-0.8749 -0.0188547 0)
(-0.8404 -0.0236264 0)
(-0.799101 -0.0277539 0)
(-0.751908 -0.0314805 0)
(-0.69928 -0.0350389 0)
(-0.641304 -0.0386158 0)
(-0.577794 -0.0423252 0)
(-0.508465 -0.0461952 0)
(-0.432962 -0.0501477 0)
(-0.351457 -0.0540581 0)
(-0.263408 -0.0576608 0)
(-0.16778 -0.0606744 0)
(-0.0740147 -0.0634348 0)
(0.0229273 -0.0648109 0)
(0.125204 -0.0647956 0)
(0.224901 -0.0636331 0)
(0.322619 -0.0612042 0)
(0.414696 -0.0574134 0)
(0.500123 -0.0524025 0)
(0.576737 -0.0462517 0)
(0.643084 -0.0391304 0)
(0.69783 -0.0312138 0)
(0.739939 -0.0227081 0)
(0.768787 -0.013818 0)
(0.783904 -0.00472858 0)
(0.78518 0.00422753 0)
(0.773448 0.0127183 0)
(0.748874 0.0208441 0)
(0.712512 0.028218 0)
(0.665474 0.0346648 0)
(0.609191 0.0400875 0)
(0.545584 0.0443059 0)
(0.474696 0.0472416 0)
(0.398094 0.0502277 0)
(0.320494 0.0515016 0)
(0.243664 0.0519507 0)
(0.166393 0.0515654 0)
(0.0912476 0.0505593 0)
(0.0185214 0.0494013 0)
(-0.0554001 0.0466307 0)
(-0.127203 0.0441909 0)
(-0.193984 0.0409535 0)
(-0.255743 0.0370707 0)
(-0.311703 0.0324204 0)
(-0.360262 0.0269778 0)
(-0.400739 0.0207961 0)
(-0.431025 0.014062 0)
(-0.4522 0.00699364 0)
(-0.459735 0.000115772 0)
(-0.458082 -0.00685369 0)
(-0.448563 -0.0122136 0)
(-0.426802 -0.0165388 0)
(-0.400258 -0.0191849 0)
(-0.368059 -0.0203691 0)
(-0.334528 -0.0203062 0)
(-0.302603 -0.018763 0)
(-0.274196 -0.0161831 0)
(-0.250663 -0.0129891 0)
(-0.232773 -0.00963029 0)
(-0.220686 -0.00651023 0)
(-0.213798 -0.00398076 0)
(-0.210986 -0.00228428 0)
(-0.210549 -0.00155096 0)
(-0.210585 -0.001818 0)
(-0.209061 -0.00310775 0)
(-0.204314 -0.00520195 0)
(-0.194951 -0.00795954 0)
(-0.179964 -0.0111369 0)
(-0.158681 -0.0145977 0)
(-0.13085 -0.0181217 0)
(-0.0964885 -0.0215889 0)
(-0.0561264 -0.024791 0)
(-0.00966501 -0.0277198 0)
(0.0421267 -0.0302186 0)
(0.0979306 -0.0321498 0)
(0.156661 -0.0333365 0)
(0.21674 -0.0336938 0)
(0.276542 -0.0330368 0)
(0.334057 -0.0312741 0)
(0.387157 -0.0283257 0)
(0.433659 -0.0241818 0)
(0.471621 -0.0189225 0)
(0.499342 -0.0127124 0)
(0.515404 -0.00580739 0)
(0.518802 0.00143445 0)
(0.509402 0.00868813 0)
(0.486885 0.0159141 0)
(0.452088 0.0225421 0)
(0.406308 0.0283248 0)
(0.35123 0.0330441 0)
(0.288994 0.0365535 0)
(0.221756 0.0388059 0)
(0.151792 0.0398181 0)
(0.0812524 0.0396872 0)
(0.0116715 0.0385499 0)
(-0.0551674 0.0365711 0)
(-0.117613 0.0339761 0)
(-0.174904 0.0309252 0)
(-0.226475 0.0275772 0)
(-0.271964 0.0240406 0)
(-0.31112 0.0203978 0)
(-0.343829 0.0166986 0)
(-0.369984 0.0129451 0)
(-0.389502 0.0091525 0)
(-0.40229 0.00532096 0)
(-0.408295 0.0013999 0)
(-0.407336 -0.00252173 0)
(-0.399527 -0.00634077 0)
(-0.38512 -0.00998673 0)
(-0.364487 -0.0133559 0)
(-0.338269 -0.0163138 0)
(-0.307234 -0.0188101 0)
(-0.272315 -0.0207326 0)
(-0.234547 -0.0220978 0)
(-0.194896 -0.0229216 0)
(-0.154278 -0.0232819 0)
(-0.113411 -0.0232774 0)
(-0.0728406 -0.0230179 0)
(-0.0328995 -0.0226096 0)
(0.0063878 -0.0221246 0)
(0.0447813 -0.021617 0)
(0.0822556 -0.0210867 0)
(0.118768 -0.0205024 0)
(0.154184 -0.019808 0)
(0.188242 -0.0189356 0)
(0.22055 -0.0178175 0)
(0.250614 -0.0164057 0)
(0.277893 -0.0146712 0)
(0.301802 -0.012616 0)
(0.321829 -0.0102641 0)
(0.337512 -0.00764193 0)
(0.348368 -0.00477261 0)
(0.354192 -0.0017872 0)
(0.355404 0.00190893 0)
(0.348363 0.00698394 0)
(0.471504 0.0142624 0)
(0.460024 0.0369981 0)
(0.396286 0.0484029 0)
(0.326891 0.0556344 0)
(0.252432 0.0609669 0)
(0.173299 0.0651517 0)
(0.0897343 0.0683519 0)
(0.00342886 0.07046 0)
(-0.0848489 0.0707685 0)
(-0.173961 0.068886 0)
(-0.260525 0.0649323 0)
(-0.341658 0.0588441 0)
(-0.414203 0.0506746 0)
(-0.475099 0.0406401 0)
(-0.521658 0.0291126 0)
(-0.551805 0.0165865 0)
(-0.564241 0.00363643 0)
(-0.558564 -0.00914304 0)
(-0.535219 -0.0212217 0)
(-0.495435 -0.0321155 0)
(-0.441136 -0.0414423 0)
(-0.374738 -0.0489355 0)
(-0.298964 -0.0544465 0)
(-0.216649 -0.0579522 0)
(-0.130253 -0.0596143 0)
(-0.0457651 -0.0607715 0)
(0.0376583 -0.0570313 0)
(0.119605 -0.0527709 0)
(0.194031 -0.0478744 0)
(0.260918 -0.0423158 0)
(0.319191 -0.0363467 0)
(0.368295 -0.030249 0)
(0.408093 -0.0242753 0)
(0.438864 -0.0186267 0)
(0.461223 -0.0134362 0)
(0.476011 -0.00875779 0)
(0.484138 -0.0045666 0)
(0.486456 -0.000771113 0)
(0.483569 0.00280047 0)
(0.475712 0.00628791 0)
(0.462726 0.00987091 0)
(0.444054 0.0136741 0)
(0.418896 0.0177623 0)
(0.386376 0.0221154 0)
(0.345755 0.0266178 0)
(0.29665 0.0310666 0)
(0.239201 0.0351967 0)
(0.174182 0.0387193 0)
(0.102916 0.0413742 0)
(0.0276826 0.0427839 0)
(-0.0497218 0.0436322 0)
(-0.127195 0.0430103 0)
(-0.202144 0.0415573 0)
(-0.273154 0.0394585 0)
(-0.339199 0.0369928 0)
(-0.399957 0.0344219 0)
(-0.455725 0.031938 0)
(-0.507235 0.0296307 0)
(-0.555373 0.0274748 0)
(-0.600845 0.0253414 0)
(-0.643868 0.0230203 0)
(-0.683947 0.0202508 0)
(-0.719795 0.0167609 0)
(-0.749413 0.0123182 0)
(-0.770332 0.00678405 0)
(-0.7799 0.000169264 0)
(-0.775824 -0.00748035 0)
(-0.756225 -0.015682 0)
(-0.719897 -0.0242323 0)
(-0.666705 -0.0327116 0)
(-0.597487 -0.0406954 0)
(-0.513969 -0.0478217 0)
(-0.418523 -0.0538331 0)
(-0.313842 -0.0585899 0)
(-0.202708 -0.0620896 0)
(-0.0873274 -0.0643626 0)
(0.0296857 -0.065818 0)
(0.1468 -0.0661964 0)
(0.263593 -0.0659313 0)
(0.3787 -0.0649595 0)
(0.4914 -0.0632697 0)
(0.600633 -0.0607568 0)
(0.704994 -0.0572669 0)
(0.802592 -0.0526255 0)
(0.891092 -0.0466806 0)
(0.967825 -0.0393486 0)
(1.03004 -0.030646 0)
(1.07514 -0.0207067 0)
(1.101 -0.00978053 0)
(1.10601 0.00181899 0)
(1.08974 0.0135708 0)
(1.05239 0.0252093 0)
(0.994909 0.0362798 0)
(0.918992 0.0464559 0)
(0.826867 0.0554879 0)
(0.721019 0.0632127 0)
(0.604024 0.0695093 0)
(0.478421 0.0743902 0)
(0.346273 0.0775211 0)
(0.206284 0.0806021 0)
(0.0774159 0.0833728 0)
(-0.0541677 0.0817771 0)
(-0.193118 0.0795554 0)
(-0.31945 0.0758505 0)
(-0.44073 0.0712278 0)
(-0.5509 0.0651559 0)
(-0.649425 0.0579665 0)
(-0.734009 0.0497645 0)
(-0.803492 0.0408409 0)
(-0.857034 0.0315012 0)
(-0.894508 0.0221039 0)
(-0.9165 0.0129853 0)
(-0.923897 0.00419561 0)
(-0.918362 -0.00326709 0)
(-0.901728 -0.0104263 0)
(-0.875199 -0.0167013 0)
(-0.840599 -0.0222234 0)
(-0.799165 -0.0271193 0)
(-0.751806 -0.0315755 0)
(-0.698988 -0.0357773 0)
(-0.640807 -0.0398812 0)
(-0.577089 -0.0439907 0)
(-0.507563 -0.0481438 0)
(-0.431888 -0.052282 0)
(-0.350237 -0.05633 0)
(-0.262101 -0.0600223 0)
(-0.1665 -0.0631801 0)
(-0.072701 -0.0662313 0)
(0.0243198 -0.0677074 0)
(0.126535 -0.0679262 0)
(0.226107 -0.0669689 0)
(0.323698 -0.0648177 0)
(0.415642 -0.061271 0)
(0.500911 -0.0564882 0)
(0.577358 -0.0505124 0)
(0.643525 -0.0435012 0)
(0.698086 -0.0356134 0)
(0.740004 -0.027049 0)
(0.768693 -0.0180099 0)
(0.78358 -0.00864671 0)
(0.784712 0.000509143 0)
(0.772937 0.00958522 0)
(0.748275 0.0183804 0)
(0.711876 0.0265688 0)
(0.664834 0.0339497 0)
(0.608588 0.0404225 0)
(0.544979 0.0458156 0)
(0.474187 0.0499479 0)
(0.397701 0.0541062 0)
(0.320075 0.0566976 0)
(0.243208 0.0582275 0)
(0.1659 0.0588208 0)
(0.0908126 0.0586408 0)
(0.0180145 0.0582391 0)
(-0.0558442 0.0558657 0)
(-0.127383 0.0539434 0)
(-0.193999 0.0511474 0)
(-0.255566 0.0476586 0)
(-0.311401 0.0433046 0)
(-0.359956 0.0379826 0)
(-0.400565 0.0316183 0)
(-0.431172 0.0243161 0)
(-0.452735 0.0161286 0)
(-0.460777 0.00747805 0)
(-0.459478 -0.00156076 0)
(-0.450109 -0.009547 0)
(-0.428426 -0.016617 0)
(-0.401627 -0.0218241 0)
(-0.369056 -0.0250645 0)
(-0.334968 -0.0264624 0)
(-0.302318 -0.0254368 0)
(-0.273205 -0.0225085 0)
(-0.249128 -0.0182242 0)
(-0.230932 -0.013251 0)
(-0.218809 -0.00827756 0)
(-0.212131 -0.00398688 0)
(-0.209746 -0.000997969 0)
(-0.209945 0.000348383 0)
(-0.210687 5.54847e-05 0)
(-0.209777 -0.00193439 0)
(-0.205514 -0.00557184 0)
(-0.19652 -0.0105172 0)
(-0.181788 -0.0162739 0)
(-0.16064 -0.022557 0)
(-0.132824 -0.0289517 0)
(-0.0983779 -0.0352154 0)
(-0.0578655 -0.0409827 0)
(-0.0112087 -0.046212 0)
(0.0408491 -0.050633 0)
(0.0970022 -0.054012 0)
(0.156144 -0.0560485 0)
(0.216697 -0.0566179 0)
(0.277046 -0.0554326 0)
(0.335153 -0.0523543 0)
(0.388872 -0.0472623 0)
(0.435983 -0.0401864 0)
(0.47449 -0.0312855 0)
(0.502643 -0.0208325 0)
(0.518964 -0.00924795 0)
(0.522465 0.00292954 0)
(0.513048 0.015058 0)
(0.490346 0.0271319 0)
(0.455199 0.0381908 0)
(0.408942 0.0478247 0)
(0.353296 0.0556685 0)
(0.29044 0.061486 0)
(0.222574 0.0651999 0)
(0.15201 0.0668418 0)
(0.0809275 0.0665773 0)
(0.0108807 0.0646325 0)
(-0.0563267 0.0612903 0)
(-0.119042 0.0569213 0)
(-0.176524 0.0517994 0)
(-0.228218 0.046187 0)
(-0.273781 0.0402717 0)
(-0.312978 0.034186 0)
(-0.345715 0.0280134 0)
(-0.371894 0.021756 0)
(-0.391438 0.0154343 0)
(-0.404248 0.00904775 0)
(-0.410267 0.00250815 0)
(-0.409289 -0.00402748 0)
(-0.401415 -0.0104028 0)
(-0.386893 -0.0164937 0)
(-0.366087 -0.0221242 0)
(-0.339648 -0.0270642 0)
(-0.30835 -0.0312342 0)
(-0.273146 -0.0344397 0)
(-0.235099 -0.0367075 0)
(-0.195194 -0.0380676 0)
(-0.154364 -0.0386513 0)
(-0.113341 -0.0386246 0)
(-0.0726681 -0.0381793 0)
(-0.0326707 -0.0374829 0)
(0.00664134 -0.0366656 0)
(0.0450452 -0.03582 0)
(0.0825383 -0.0349407 0)
(0.119092 -0.0339755 0)
(0.154581 -0.0328299 0)
(0.188746 -0.0313865 0)
(0.22119 -0.0295321 0)
(0.25141 -0.0271834 0)
(0.278852 -0.0242935 0)
(0.302919 -0.020866 0)
(0.32309 -0.0169438 0)
(0.338894 -0.0125712 0)
(0.349845 -0.00783451 0)
(0.355684 -0.00284241 0)
(0.356407 0.00281086 0)
(0.351073 0.00832963 0)
(0.48946 0.0297232 0)
(0.466245 0.0506241 0)
(0.399582 0.0630659 0)
(0.328857 0.0713609 0)
(0.253677 0.0775322 0)
(0.174021 0.0823504 0)
(0.0899518 0.0859684 0)
(0.00294847 0.0884101 0)
(-0.0864006 0.0884338 0)
(-0.176592 0.085979 0)
(-0.26402 0.0809759 0)
(-0.345961 0.0733251 0)
(-0.419205 0.063091 0)
(-0.480626 0.0505443 0)
(-0.527485 0.0361492 0)
(-0.557677 0.0205207 0)
(-0.5699 0.00436862 0)
(-0.563773 -0.0115417 0)
(-0.539777 -0.0265883 0)
(-0.499192 -0.0401554 0)
(-0.443992 -0.0517711 0)
(-0.376652 -0.0611121 0)
(-0.299948 -0.0680074 0)
(-0.216786 -0.0724507 0)
(-0.129875 -0.0746587 0)
(-0.0444536 -0.0757507 0)
(0.03987 -0.0720721 0)
(0.12202 -0.0678782 0)
(0.196728 -0.0624375 0)
(0.263837 -0.0559229 0)
(0.322217 -0.0486415 0)
(0.371308 -0.0409581 0)
(0.410988 -0.0332196 0)
(0.441562 -0.0257226 0)
(0.463677 -0.0186854 0)
(0.47821 -0.0122245 0)
(0.486111 -0.00634089 0)
(0.488232 -0.000893848 0)
(0.48523 0.0041366 0)
(0.477367 0.00922939 0)
(0.464431 0.0145614 0)
(0.445857 0.0203434 0)
(0.420809 0.0266965 0)
(0.388363 0.0336066 0)
(0.347734 0.0409023 0)
(0.298495 0.0482612 0)
(0.240764 0.055246 0)
(0.175313 0.0613652 0)
(0.103455 0.0661546 0)
(0.0276688 0.0690922 0)
(-0.0503293 0.070617 0)
(-0.128438 0.0700763 0)
(-0.203815 0.067975 0)
(-0.275105 0.0647073 0)
(-0.341259 0.060763 0)
(-0.401981 0.0566273 0)
(-0.457617 0.0526837 0)
(-0.508968 0.0491375 0)
(-0.556992 0.0459738 0)
(-0.602462 0.0429563 0)
(-0.645642 0.0396626 0)
(-0.686057 0.035551 0)
(-0.72241 0.0300503 0)
(-0.752653 0.0226674 0)
(-0.774258 0.013091 0)
(-0.78435 0.00123406 0)
(-0.780692 -0.0121857 0)
(-0.761384 -0.0273357 0)
(-0.72498 -0.0432347 0)
(-0.671394 -0.058999 0)
(-0.601507 -0.0737695 0)
(-0.51712 -0.086828 0)
(-0.420701 -0.0976799 0)
(-0.315035 -0.106099 0)
(-0.202988 -0.1121 0)
(-0.0868466 -0.115943 0)
(0.0307783 -0.117873 0)
(0.148373 -0.118541 0)
(0.265557 -0.118002 0)
(0.38104 -0.116409 0)
(0.494159 -0.113696 0)
(0.60391 -0.109616 0)
(0.708914 -0.103795 0)
(0.807273 -0.0958174 0)
(0.896613 -0.0853174 0)
(0.974189 -0.0720816 0)
(1.03716 -0.0561177 0)
(1.08285 -0.0376865 0)
(1.10904 -0.0172962 0)
(1.11406 0.00442511 0)
(1.09748 0.026388 0)
(1.05953 0.0480669 0)
(1.00118 0.0685569 0)
(0.924216 0.0872322 0)
(0.830936 0.103643 0)
(0.72389 0.117529 0)
(0.605714 0.128755 0)
(0.478918 0.137367 0)
(0.345882 0.143176 0)
(0.205397 0.14748 0)
(0.0751782 0.151048 0)
(-0.0578681 0.148594 0)
(-0.197591 0.144588 0)
(-0.324756 0.137753 0)
(-0.446816 0.128923 0)
(-0.55775 0.117444 0)
(-0.656854 0.103799 0)
(-0.741816 0.0882665 0)
(-0.811412 0.07141 0)
(-0.864779 0.0538579 0)
(-0.901803 0.0363222 0)
(-0.923033 0.019537 0)
(-0.929725 0.00387046 0)
(-0.923363 -0.0101435 0)
(-0.905716 -0.0226447 0)
(-0.87834 -0.0333878 0)
(-0.843036 -0.0426366 0)
(-0.801076 -0.0507161 0)
(-0.753372 -0.0580463 0)
(-0.700365 -0.065035 0)
(-0.642102 -0.0720151 0)
(-0.578344 -0.0791937 0)
(-0.508748 -0.0866258 0)
(-0.43292 -0.0941781 0)
(-0.350966 -0.101634 0)
(-0.262314 -0.108501 0)
(-0.166208 -0.114454 0)
(-0.0716219 -0.119692 0)
(0.0265218 -0.122265 0)
(0.129745 -0.122668 0)
(0.230301 -0.120692 0)
(0.328861 -0.116397 0)
(0.421708 -0.10953 0)
(0.507735 -0.100347 0)
(0.584787 -0.0889844 0)
(0.65137 -0.0757445 0)
(0.706145 -0.0609471 0)
(0.748067 -0.0449732 0)
(0.776534 -0.0281957 0)
(0.790983 -0.0109888 0)
(0.791512 0.00600784 0)
(0.778914 0.0223674 0)
(0.753245 0.0380838 0)
(0.715712 0.0524771 0)
(0.667449 0.0652088 0)
(0.609919 0.0760808 0)
(0.545009 0.0848516 0)
(0.473337 0.0913567 0)
(0.395928 0.0970596 0)
(0.317188 0.100405 0)
(0.239533 0.101927 0)
(0.161623 0.101827 0)
(0.0862054 0.100488 0)
(0.0128191 0.09857 0)
(-0.0614252 0.0939764 0)
(-0.133039 0.0895533 0)
(-0.199959 0.083712 0)
(-0.261741 0.0765782 0)
(-0.317713 0.0679295 0)
(-0.366268 0.0576591 0)
(-0.406654 0.0457938 0)
(-0.436799 0.0326156 0)
(-0.45763 0.0185198 0)
(-0.464675 0.00416119 0)
(-0.462208 -0.0101895 0)
(-0.451574 -0.0221816 0)
(-0.428599 -0.0321057 0)
(-0.400625 -0.038835 0)
(-0.367162 -0.0423196 0)
(-0.332319 -0.0428647 0)
(-0.299049 -0.0402445 0)
(-0.269629 -0.035052 0)
(-0.245512 -0.0282025 0)
(-0.227491 -0.0206892 0)
(-0.215727 -0.0134614 0)
(-0.209607 -0.00741096 0)
(-0.20787 -0.00317432 0)
(-0.208659 -0.00125766 0)
(-0.209949 -0.00173232 0)
(-0.209745 -0.00466101 0)
(-0.206218 -0.00959284 0)
(-0.197811 -0.0162149 0)
(-0.18352 -0.0239827 0)
(-0.162693 -0.0324442 0)
(-0.135087 -0.0410731 0)
(-0.100719 -0.049556 0)
(-0.0601812 -0.0574135 0)
(-0.0134073 -0.0645916 0)
(0.0389024 -0.0707196 0)
(0.0954656 -0.0754763 0)
(0.155162 -0.078428 0)
(0.21642 -0.0793821 0)
(0.277616 -0.0778877 0)
(0.336665 -0.0737377 0)
(0.391369 -0.0667158 0)
(0.439423 -0.0568627 0)
(0.478769 -0.0444039 0)
(0.507596 -0.0297187 0)
(0.524401 -0.013407 0)
(0.52811 0.00380534 0)
(0.518619 0.0209657 0)
(0.495603 0.0380399 0)
(0.459913 0.0536599 0)
(0.412924 0.0672476 0)
(0.356407 0.0782914 0)
(0.292608 0.0864612 0)
(0.223787 0.0916509 0)
(0.152314 0.0939114 0)
(0.0804127 0.0934831 0)
(0.00966503 0.090688 0)
(-0.0580947 0.0859367 0)
(-0.121213 0.0797513 0)
(-0.178976 0.0725202 0)
(-0.230851 0.0646148 0)
(-0.27652 0.056301 0)
(-0.315776 0.0477645 0)
(-0.348552 0.0391154 0)
(-0.374767 0.0303513 0)
(-0.394347 0.021501 0)
(-0.407193 0.0125517 0)
(-0.413223 0.0033821 0)
(-0.41222 -0.00579545 0)
(-0.404258 -0.0147568 0)
(-0.389567 -0.0233237 0)
(-0.368498 -0.0312459 0)
(-0.341727 -0.0381924 0)
(-0.310032 -0.0440548 0)
(-0.274395 -0.0485485 0)
(-0.235924 -0.0517143 0)
(-0.195633 -0.0535971 0)
(-0.154487 -0.0543788 0)
(-0.113229 -0.0543066 0)
(-0.0724038 -0.0536478 0)
(-0.0323224 -0.0526464 0)
(0.00702252 -0.051485 0)
(0.0454379 -0.0503002 0)
(0.0829579 -0.0490787 0)
(0.119572 -0.0477438 0)
(0.155168 -0.0461604 0)
(0.189495 -0.0441617 0)
(0.222147 -0.0415812 0)
(0.252604 -0.0383008 0)
(0.280292 -0.0342559 0)
(0.304597 -0.0294491 0)
(0.324984 -0.0239473 0)
(0.340981 -0.0178171 0)
(0.352108 -0.011195 0)
(0.358231 -0.00419622 0)
(0.35933 0.0033494 0)
(0.354658 0.0120779 0)
(0.502972 0.0441326 0)
(0.47166 0.0607786 0)
(0.402832 0.0725213 0)
(0.330863 0.0810062 0)
(0.254947 0.0875784 0)
(0.174742 0.0928296 0)
(0.0902002 0.0968256 0)
(0.00249437 0.0995808 0)
(-0.0876385 0.0997576 0)
(-0.178602 0.0979153 0)
(-0.267026 0.0931191 0)
(-0.349978 0.0851086 0)
(-0.424163 0.0738726 0)
(-0.486373 0.0596626 0)
(-0.5338 0.042979 0)
(-0.564288 0.024527 0)
(-0.576494 0.00514896 0)
(-0.570065 -0.0141944 0)
(-0.545519 -0.0327433 0)
(-0.504151 -0.0496845 0)
(-0.448007 -0.0643865 0)
(-0.379623 -0.0763952 0)
(-0.301846 -0.085446 0)
(-0.217657 -0.0914753 0)
(-0.129931 -0.094643 0)
(-0.0432289 -0.0956849 0)
(0.0421683 -0.0914614 0)
(0.124683 -0.086462 0)
(0.199877 -0.0795676 0)
(0.267327 -0.0712387 0)
(0.325893 -0.0619022 0)
(0.375011 -0.0520351 0)
(0.414578 -0.0420928 0)
(0.444926 -0.0324699 0)
(0.466744 -0.0234614 0)
(0.480959 -0.0152298 0)
(0.488574 -0.00778269 0)
(0.490454 -0.000946835 0)
(0.487321 0.00537487 0)
(0.479467 0.0117601 0)
(0.466626 0.0184801 0)
(0.448214 0.0258258 0)
(0.423345 0.0339616 0)
(0.391033 0.0428659 0)
(0.350425 0.0523037 0)
(0.301045 0.061839 0)
(0.242976 0.070887 0)
(0.176993 0.0787972 0)
(0.104419 0.0849574 0)
(0.0278763 0.0888299 0)
(-0.0508755 0.0903589 0)
(-0.129721 0.0896046 0)
(-0.205664 0.0867189 0)
(-0.27731 0.0823149 0)
(-0.343605 0.0770529 0)
(-0.404279 0.0715877 0)
(-0.459743 0.0664394 0)
(-0.510883 0.0618912 0)
(-0.558752 0.0579279 0)
(-0.604206 0.0542302 0)
(-0.647569 0.0502239 0)
(-0.688388 0.0451773 0)
(-0.725348 0.0383324 0)
(-0.756339 0.0290524 0)
(-0.778742 0.0169527 0)
(-0.789494 0.00214793 0)
(-0.786346 -0.0150994 0)
(-0.767345 -0.0342748 0)
(-0.730883 -0.0543361 0)
(-0.676896 -0.0741733 0)
(-0.606306 -0.0927054 0)
(-0.520992 -0.109029 0)
(-0.423523 -0.122528 0)
(-0.316792 -0.132927 0)
(-0.203764 -0.140268 0)
(-0.0867331 -0.144929 0)
(0.0315551 -0.146965 0)
(0.149635 -0.147733 0)
(0.267291 -0.146922 0)
(0.383199 -0.144837 0)
(0.496789 -0.141387 0)
(0.60711 -0.136262 0)
(0.712812 -0.128987 0)
(0.811991 -0.119037 0)
(0.902226 -0.105956 0)
(0.980701 -0.0894851 0)
(1.04448 -0.0696436 0)
(1.0908 -0.0467691 0)
(1.11736 -0.0215048 0)
(1.12244 0.0053442 0)
(1.1056 0.0324613 0)
(1.06708 0.0591652 0)
(1.00792 0.0843491 0)
(0.929942 0.107249 0)
(0.83554 0.127321 0)
(0.727323 0.144259 0)
(0.607992 0.157928 0)
(0.480069 0.168393 0)
(0.346067 0.175648 0)
(0.205064 0.180379 0)
(0.0735816 0.184177 0)
(-0.0609132 0.181295 0)
(-0.201402 0.176546 0)
(-0.329419 0.16814 0)
(-0.452217 0.157301 0)
(-0.563902 0.143267 0)
(-0.663577 0.126607 0)
(-0.748931 0.10768 0)
(-0.818682 0.0871654 0)
(-0.871952 0.0658266 0)
(-0.908641 0.044511 0)
(-0.929368 0.0241233 0)
(-0.935207 0.00485513 0)
(-0.928038 -0.0114904 0)
(-0.909757 -0.0267066 0)
(-0.88163 -0.0396785 0)
(-0.845698 -0.0508298 0)
(-0.803244 -0.0605406 0)
(-0.755197 -0.0693239 0)
(-0.701975 -0.0776737 0)
(-0.643593 -0.0859935 0)
(-0.57976 -0.0945337 0)
(-0.510077 -0.10336 0)
(-0.434104 -0.112315 0)
(-0.351889 -0.121139 0)
(-0.262893 -0.129246 0)
(-0.166414 -0.136385 0)
(-0.0711274 -0.14247 0)
(0.027881 -0.145356 0)
(0.131854 -0.145896 0)
(0.233172 -0.143504 0)
(0.332468 -0.138404 0)
(0.426016 -0.130283 0)
(0.512631 -0.119453 0)
(0.590162 -0.106085 0)
(0.657084 -0.0905374 0)
(0.712055 -0.0731842 0)
(0.754024 -0.0544671 0)
(0.782405 -0.034836 0)
(0.796595 -0.0146274 0)
(0.796771 0.00493719 0)
(0.78372 0.0242371 0)
(0.757462 0.0427125 0)
(0.719254 0.059705 0)
(0.670244 0.0748229 0)
(0.611936 0.0878286 0)
(0.546188 0.098493 0)
(0.473838 0.106592 0)
(0.395855 0.11325 0)
(0.316443 0.117629 0)
(0.23818 0.119799 0)
(0.159795 0.120074 0)
(0.0841236 0.118906 0)
(0.0102874 0.116915 0)
(-0.0642214 0.112133 0)
(-0.135826 0.107341 0)
(-0.202944 0.101038 0)
(-0.264924 0.0932578 0)
(-0.321165 0.0837328 0)
(-0.370069 0.0722731 0)
(-0.410822 0.0588171 0)
(-0.44137 0.043608 0)
(-0.462424 0.0269488 0)
(-0.469714 0.0095475 0)
(-0.467014 -0.00790434 0)
(-0.455631 -0.0231767 0)
(-0.431824 -0.0362205 0)
(-0.402619 -0.0455384 0)
(-0.367872 -0.0507761 0)
(-0.331676 -0.0521399 0)
(-0.297101 -0.0493981 0)
(-0.26665 -0.043154 0)
(-0.241907 -0.0345292 0)
(-0.223725 -0.0248358 0)
(-0.212253 -0.0153615 0)
(-0.206774 -0.00734907 0)
(-0.206 -0.0017337 0)
(-0.207998 0.000811569 0)
(-0.210567 5.79728e-05 0)
(-0.2114 -0.00382758 0)
(-0.208608 -0.0105683 0)
(-0.200806 -0.0195275 0)
(-0.18692 -0.0299765 0)
(-0.166273 -0.041316 0)
(-0.138659 -0.0528235 0)
(-0.104123 -0.0640592 0)
(-0.0633093 -0.0744082 0)
(-0.0161891 -0.0837981 0)
(0.036601 -0.0917641 0)
(0.0938005 -0.09792 0)
(0.154271 -0.101716 0)
(0.216451 -0.102916 0)
(0.278728 -0.100961 0)
(0.338969 -0.0955705 0)
(0.394921 -0.0864688 0)
(0.444184 -0.0737045 0)
(0.48461 -0.0575539 0)
(0.514302 -0.0385106 0)
(0.531676 -0.0173456 0)
(0.535634 0.00490559 0)
(0.526086 0.0271169 0)
(0.502661 0.0492548 0)
(0.466241 0.0694973 0)
(0.418265 0.0870922 0)
(0.360576 0.101375 0)
(0.295505 0.111915 0)
(0.2254 0.118581 0)
(0.152705 0.121443 0)
(0.0797034 0.120818 0)
(0.00801785 0.117128 0)