/*--------------------------------*- C++ -*----------------------------------*\
| =========                 |                                                 |
| \\      /  F ield         | OpenFOAM: The Open Source CFD Toolbox           |
|  \\    /   O peration     | Version:  v1912                                 |
|   \\  /    A nd           | Website:  www.openfoam.com                      |
|    \\/     M anipulation  |                                                 |
\*---------------------------------------------------------------------------*/
FoamFile
{
    version     2.0;
    format      ascii;
    class       surfaceScalarField;
    location    "30";
    object      phi;
}
// * * * * * * * * * * * * * * * * * * * * * * * * * * * * * * * * * * * * * //

dimensions      [0 3 -1 0 0 0 0];
oriented        oriented;


internalField   nonuniform List<scalar> 
28285
(
-0.0330579
0.00435594
-0.0366959
0.00363799
-0.0394356
0.00273966
-0.0412437
0.00180811
-0.0420348
0.000791124
-0.0417966
-0.000238163
-0.0405238
-0.00127287
-0.038253
-0.00227076
-0.035047
-0.00320602
-0.0310106
-0.00403632
-0.0262495
-0.00476113
-0.0209216
-0.00532797
-0.0152129
-0.00570861
-0.00931179
-0.00590116
-0.00340541
-0.00590638
0.00232925
-0.00573465
0.00771172
-0.00538247
0.0126271
-0.00491536
0.0169807
-0.00435359
0.0207171
-0.00373645
0.0238139
-0.00309677
0.0262766
-0.00246273
0.0281298
-0.00185322
0.0294106
-0.00128073
0.0301651
-0.000754547
0.0304437
-0.000278541
0.0302865
0.000157145
0.0297266
0.000559911
0.0287923
0.000934329
0.0275117
0.00128059
0.0259084
0.00160328
0.0240056
0.0019028
0.0218282
0.00217739
0.0194068
0.00242138
0.0167785
0.00262831
0.013988
0.0027905
0.011088
0.00289996
0.00813344
0.0029546
0.00518153
0.00295191
0.00228124
0.00290029
-0.000527278
0.00280852
-0.00321935
0.00269207
-0.0057856
0.00256625
-0.00822901
0.00244341
-0.010561
0.00233201
-0.0127958
0.00223476
-0.0149437
0.00214796
-0.0170059
0.00206215
-0.018969
0.00196309
-0.0208051
0.00183613
-0.0224731
0.001668
-0.0239211
0.00144798
-0.0250959
0.00117478
-0.0259466
0.000850747
-0.0264352
0.000488579
-0.0265277
9.25596e-05
-0.0262144
-0.000313358
-0.0255025
-0.00071191
-0.0244106
-0.00109193
-0.022967
-0.00144353
-0.0212053
-0.00176177
-0.019161
-0.00204421
-0.0168678
-0.00229321
-0.0143569
-0.00251089
-0.0116558
-0.00270115
-0.0087899
-0.00286589
-0.00578447
-0.00300543
-0.00266633
-0.00311814
0.000533509
-0.00319984
0.00377944
-0.00324593
0.0070275
-0.00324805
0.0102274
-0.00319993
0.0133232
-0.00309572
0.0162544
-0.0029312
0.018959
-0.00270465
0.0213764
-0.00241736
0.0234501
-0.00207375
0.0251311
-0.00168095
0.0263794
-0.00124834
0.0271661
-0.000786673
0.0274747
-0.000308576
0.0273023
0.000172397
0.0266521
0.000650142
0.0255347
0.00111742
0.0239063
0.00162843
0.00206395
0.0218423
-0.0337731
0.00864624
-0.0372965
0.00716133
-0.0398973
0.00534048
-0.0415484
0.00345924
-0.0421759
0.00141856
-0.0417689
-0.000645146
-0.0403369
-0.00270483
-0.0379237
-0.00468397
-0.0346013
-0.00652845
-0.0304669
-0.00817071
-0.0256719
-0.00955607
-0.0203597
-0.0106402
-0.0147002
-0.0113681
-0.00887275
-0.0117286
-0.00305632
-0.0117228
0.00258144
-0.0113724
0.0078837
-0.0106847
0.0127329
-0.00976453
0.0170383
-0.00865898
0.0207444
-0.00744257
0.0238247
-0.00617705
0.0262799
-0.00491796
0.0281305
-0.00370386
0.0294124
-0.00256264
0.0301696
-0.00151171
0.030446
-0.00055496
0.0302933
0.000309855
0.0297387
0.00111456
0.0288093
0.00186373
0.0275338
0.0025561
0.0259352
0.00320189
0.0240354
0.00380256
0.0218579
0.0043549
0.0194339
0.00484534
0.016801
0.00526126
0.0140039
0.00558753
0.0110963
0.00580758
0.00813383
0.0059171
0.00517481
0.00591093
0.00226881
0.00580629
-0.000543325
0.00562065
-0.00323711
0.00538585
-0.00580327
0.00513241
-0.00824532
0.00488546
-0.0105755
0.00466223
-0.012809
0.0044682
-0.0149569
0.00429589
-0.0170209
0.00412615
-0.0189879
0.00393007
-0.0208298
0.00367801
-0.0225048
0.00334306
-0.0239604
0.00290353
-0.0251423
0.0023567
-0.0259989
0.0017073
-0.0264914
0.000981137
-0.0265854
0.000186516
-0.0262716
-0.000627108
-0.0255572
-0.00142629
-0.0244614
-0.00218774
-0.0230132
-0.00289177
-0.0212464
-0.00352852
-0.0191974
-0.00409326
-0.0168997
-0.00459093
-0.0143847
-0.00502584
-0.0116798
-0.00540605
-0.00881028
-0.00573541
-0.00580081
-0.00601489
-0.00267827
-0.00624069
0.000526915
-0.00640502
0.00377909
-0.0064981
0.00703427
-0.00650324
0.0102422
-0.00640782
0.0133464
-0.00619998
0.0162864
-0.00587118
0.0189997
-0.00541796
0.0214251
-0.00484274
0.0235058
-0.0041545
0.0251925
-0.00336766
0.0264451
-0.00250091
0.0272343
-0.00157584
0.0275447
-0.000619026
0.027372
0.00034515
0.0267255
0.00129666
0.0256191
0.00222379
0.0240578
0.00318972
0.00408203
0.0220397
-0.033696
0.0129439
-0.0372327
0.0106981
-0.039854
0.00796178
-0.0415339
0.00513906
-0.0421844
0.00206911
-0.0418064
-0.00102317
-0.0404058
-0.00410539
-0.0380278
-0.00706198
-0.0347361
-0.00982015
-0.0306351
-0.0122717
-0.0258459
-0.0143452
-0.0205176
-0.0159686
-0.0148294
-0.0170563
-0.00896215
-0.0175958
-0.00309718
-0.0175878
0.00259517
-0.0170648
0.00794756
-0.0160371
0.0128397
-0.0146566
0.0171763
-0.0129956
0.020901
-0.0111672
0.0239877
-0.0092638
0.0264399
-0.00737018
0.0282813
-0.00554525
0.0295503
-0.00383161
0.0302954
-0.0022568
0.0305672
-0.000826811
0.0304
0.000477043
0.0298344
0.0016802
0.0288988
0.00279932
0.0276185
0.00383643
0.0260151
0.00480527
0.0241097
0.00570793
0.0219254
0.00653925
0.0194924
0.00727838
0.0168474
0.00790621
0.0140359
0.00839905
0.0111124
0.00873102
0.00813411
0.00889542
0.00516094
0.00888411
0.00224366
0.00872357
-0.000575726
0.00844004
-0.00327278
0.0080829
-0.00583858
0.00769822
-0.0082777
0.00732457
-0.0106041
0.00698862
-0.0128347
0.00669881
-0.0149824
0.00644359
-0.01705
0.00619377
-0.0190247
0.0059048
-0.0208782
0.00553144
-0.0225675
0.00503241
-0.0240383
0.0043743
-0.0252347
0.00355307
-0.026103
0.00257561
-0.0266034
0.00148155
-0.0267013
0.000284469
-0.0263859
-0.000942518
-0.0256664
-0.00214584
-0.0245626
-0.0032915
-0.0231048
-0.00434962
-0.0213279
-0.00530543
-0.019269
-0.00615209
-0.0169624
-0.00689758
-0.0144394
-0.00754884
-0.011727
-0.00811842
-0.00885015
-0.00861229
-0.00583292
-0.00903213
-0.00270151
-0.00937209
0.000514257
-0.00962079
0.00377884
-0.00976269
0.0070484
-0.0097728
0.0102723
-0.00963171
0.0133937
-0.00932135
0.0163512
-0.00882873
0.0190817
-0.00814848
0.0215233
-0.00728425
0.0236182
-0.00624948
0.0253164
-0.00506582
0.0265772
-0.00376173
0.0273713
-0.00236995
0.0276821
-0.000929808
0.0275085
0.000518703
0.0268603
0.00194489
0.0257454
0.00333868
0.024212
0.00472316
0.00601862
0.0222754
-0.0343918
0.0172345
-0.0378806
0.0141868
-0.0404286
0.0105097
-0.0420062
0.00671667
-0.0425448
0.00260777
-0.0420497
-0.00151824
-0.040526
-0.00562915
-0.0380252
-0.0095628
-0.0346244
-0.013221
-0.0304235
-0.0164726
-0.0255673
-0.0192014
-0.0202056
-0.0213303
-0.0145057
-0.0227562
-0.00864387
-0.0234576
-0.0027976
-0.0234341
0.00286796
-0.0227303
0.00819844
-0.0213676
0.0130722
-0.0195303
0.0173948
-0.0173182
0.0211091
-0.0148815
0.0241876
-0.0123424
0.0266316
-0.00981414
0.0284633
-0.00737691
0.029722
-0.0050903
0.0304552
-0.00299006
0.0307062
-0.00107777
0.0305358
0.000647434
0.029965
0.00225099
0.0290247
0.0037396
0.0277408
0.0051204
0.0261333
0.00641268
0.0242219
0.00761942
0.0220276
0.00873348
0.0195804
0.00972566
0.016917
0.0105695
0.0140837
0.0112324
0.0111363
0.0116784
0.00813393
0.0118978
0.00513925
0.0118788
0.00220486
0.011658
-0.00062549
0.0112704
-0.00332739
0.0107848
-0.00589235
0.0102632
-0.0083266
0.00975882
-0.0106469
0.00930891
-0.0128729
0.00892486
-0.0150201
0.00859076
-0.0170931
0.00826677
-0.0190796
0.00789132
-0.0209506
0.00740245
-0.0226617
0.00674344
-0.0241556
0.0058682
-0.0253737
0.00477122
-0.0262598
0.00346166
-0.0267722
0.00199396
-0.0268746
0.000386891
-0.0265577
-0.00125946
-0.0258304
-0.00287307
-0.0247147
-0.00440726
-0.0232424
-0.00582193
-0.0214502
-0.00709754
-0.0193768
-0.00822558
-0.0170566
-0.00921775
-0.0145215
-0.010084
-0.0117981
-0.0108418
-0.00891027
-0.0115001
-0.0058815
-0.0120609
-0.0027366
-0.012517
0.00049489
-0.0128523
0.00377821
-0.013046
0.00706925
-0.0130638
0.0103171
-0.0128796
0.0134643
-0.0124685
0.0164484
-0.0118128
0.0192051
-0.0109051
0.0216709
-0.00975007
0.0237871
-0.00836572
0.0255027
-0.00678138
0.0267762
-0.0050352
0.0275776
-0.00317138
0.0278917
-0.0012439
0.0277151
0.000695336
0.0270622
0.00259778
0.0259436
0.00445722
0.0244183
0.00624846
0.00793614
0.0225008
-0.034734
0.0215602
-0.0382461
0.017699
-0.0408106
0.0130741
-0.0424055
0.00831163
-0.0429485
0.00315078
-0.0424379
-0.00202886
-0.0409015
-0.00716557
-0.0383852
-0.0120791
-0.034956
-0.0166501
-0.0307218
-0.0207068
-0.0258092
-0.024114
-0.0203706
-0.0267689
-0.0145872
-0.0285397
-0.00863758
-0.0294072
-0.00270345
-0.0293682
0.0030446
-0.0284784
0.00844543
-0.0267684
0.0133741
-0.024459
0.0177323
-0.0216765
0.0214634
-0.0186126
0.0245407
-0.0154197
0.0269695
-0.012243
0.0287774
-0.00918481
0.0300088
-0.00632168
0.0307156
-0.00369692
0.0309509
-0.001313
0.0307529
0.000845422
0.0301636
0.00284028
0.029211
0.00469217
0.0279172
0.00641423
0.0263002
0.00802966
0.0243773
0.00954235
0.022168
0.0109428
0.0197006
0.0121931
0.0170117
0.0132584
0.0141483
0.0140958
0.0111683
0.0146584
0.00813329
0.0149328
0.00510945
0.0149026
0.00215207
0.0146153
-0.000693302
0.0141158
-0.00340177
0.0134933
-0.0059652
0.0128266
-0.00839236
0.012186
-0.0107038
0.0116204
-0.0129233
0.0111443
-0.0150693
0.0107368
-0.0171493
0.0103468
-0.0191516
0.00989356
-0.0210464
0.00929725
-0.0227869
0.00848395
-0.0243123
0.00739358
-0.0255602
0.00601917
-0.0264704
0.00437185
-0.026999
0.00252258
-0.0271089
0.000496753
-0.0267887
-0.00157967
-0.0260506
-0.00361114
-0.0249183
-0.00553954
-0.0234262
-0.00731403
-0.0216134
-0.0089104
-0.01952
-0.0103189
-0.0171819
-0.0115559
-0.0146308
-0.0126351
-0.0118928
-0.0135799
-0.0089906
-0.0144022
-0.00594654
-0.015105
-0.00278408
-0.0156795
0.000468293
-0.0161046
0.00377647
-0.0163542
0.00709634
-0.0163837
0.0103765
-0.0161597
0.0135583
-0.0156503
0.016578
-0.0148326
0.0193696
-0.0136968
0.0218682
-0.0122486
0.0240132
-0.0105107
0.025752
-0.00852019
0.0270422
-0.00632543
0.0278534
-0.00398262
0.0281696
-0.00156002
0.0279899
0.000875012
0.0273281
0.00325953
0.0261975
0.00558788
0.02466
0.00778598
0.00984333
0.0227528
-0.0355222
0.0259286
-0.0390386
0.0212154
-0.0415783
0.0156138
-0.0431126
0.00984595
-0.0435686
0.00360684
-0.0429804
-0.00261715
-0.0413398
-0.00880608
-0.0387066
-0.0147124
-0.0351606
-0.0201961
-0.0308063
-0.0250611
-0.0257894
-0.0291309
-0.0202653
-0.032293
-0.0144077
-0.0343973
-0.00839644
-0.0354185
-0.00241361
-0.035351
0.00337089
-0.0342629
0.00880194
-0.0321995
0.0137531
-0.0294101
0.0181246
-0.026048
0.0218604
-0.0223484
0.0249337
-0.018493
0.0273496
-0.0146589
0.0291366
-0.0109719
0.0303426
-0.00752768
0.031023
-0.00437732
0.0312249
-0.00151486
0.0310131
0.00105716
0.030407
0.00344644
0.029441
0.00565814
0.0281362
0.00771902
0.0265084
0.0096575
0.0245719
0.0114789
0.022344
0.0131706
0.0198515
0.0146856
0.0171307
0.0159792
0.0142294
0.016997
0.0112081
0.0176798
0.00813152
0.0180093
0.00507053
0.0179636
0.00208375
0.0176021
-0.000781138
0.0169806
-0.00349823
0.0162104
-0.00605834
0.0153867
-0.00847518
0.0146028
-0.0107745
0.0139197
-0.0129847
0.0133545
-0.0151288
0.0128809
-0.0172174
0.0124354
-0.0192396
0.0119158
-0.0211647
0.0112224
-0.0229429
0.0102621
-0.0245086
0.00895929
-0.0257945
0.00730507
-0.0267355
0.00531286
-0.0272847
0.00307175
-0.0274026
0.000614642
-0.0270789
-0.00190331
-0.026327
-0.00436306
-0.0251736
-0.00669299
-0.0236562
-0.0088314
-0.021817
-0.0107495
-0.0196988
-0.0124372
-0.0173381
-0.0139166
-0.0147671
-0.0152061
-0.012011
-0.0163359
-0.00909131
-0.0173219
-0.00602834
-0.0181679
-0.00284422
-0.0188636
0.000434147
-0.019383
0.00377348
-0.0196935
0.00712946
-0.0197397
0.0104501
-0.0194803
0.0136755
-0.0188758
0.0167402
-0.0178973
0.0195761
-0.0165327
0.0221159
-0.0147884
0.0242971
-0.0126919
0.0260654
-0.0102884
0.0273768
-0.00763685
0.0282002
-0.00480605
0.0285194
-0.00187923
0.0283346
0.00105988
0.0276599
0.0039342
0.0265126
0.00673513
0.0249516
0.00934699
0.0117636
0.0230313
-0.0362121
0.0303647
-0.03977
0.0247734
-0.0423323
0.0181761
-0.0438804
0.0113941
-0.0443352
0.00406167
-0.0436992
-0.0032532
-0.0420132
-0.0104921
-0.0393225
-0.017403
-0.0356997
-0.0238189
-0.0312563
-0.0295045
-0.026125
-0.0342622
-0.0204677
-0.0379503
-0.014472
-0.040393
-0.00832269
-0.0415678
-0.00220853
-0.0414652
0.00369204
-0.0401635
0.0092192
-0.0377266
0.014243
-0.0344339
0.0186585
-0.0304635
0.0224113
-0.0261011
0.0254771
-0.0215589
0.0278672
-0.017049
0.0296173
-0.0127219
0.0307816
-0.00869199
0.0314202
-0.0050159
0.0315896
-0.00168429
0.0313404
0.00130635
0.0307091
0.00407774
0.0297252
0.00664202
0.0284061
0.00903817
0.0267642
0.0112994
0.0248105
0.0134326
0.0225595
0.0154216
0.0200359
0.0172092
0.0172759
0.0187392
0.0143282
0.0199447
0.0112559
0.0207521
0.00812829
0.0211369
0.0050217
0.0210702
0.00199876
0.0206251
-0.000890339
0.0198697
-0.0036169
0.0189369
-0.00617287
0.0179427
-0.00857569
0.0170056
-0.0108587
0.0162027
-0.0130564
0.0155522
-0.0151972
0.0150216
-0.0172957
0.0145339
-0.0193421
0.0139623
-0.0213047
0.0131849
-0.0231294
0.0120868
-0.0247449
0.0105749
-0.0260779
0.00863805
-0.0270569
0.00629184
-0.0276313
0.00364619
-0.0277599
0.000743159
-0.0274308
-0.0022324
-0.0266612
-0.00513261
-0.0254813
-0.0078729
-0.0239327
-0.01038
-0.0220612
-0.012621
-0.0199125
-0.0145859
-0.0175248
-0.0163043
-0.0149301
-0.0178008
-0.0121528
-0.0191132
-0.0092125
-0.0202622
-0.00612746
-0.021253
-0.00291774
-0.0220733
0.000391629
-0.0226924
0.00376826
-0.0230701
0.00716783
-0.0231393
0.0105375
-0.02285
0.0138158
-0.0221541
0.0169351
-0.0210165
0.0198247
-0.0194224
0.0224147
-0.0173784
0.02464
-0.0149172
0.0264439
-0.0120924
0.027781
-0.00897395
0.028619
-0.00564407
0.0289415
-0.00220166
0.0287498
0.0012515
0.0280578
0.00462621
0.0268867
0.00790623
0.025291
0.0109427
0.0137205
0.0233342
-0.0371774
0.034887
-0.0407798
0.0283757
-0.0433513
0.0207476
-0.0448685
0.0129113
-0.0452509
0.00444408
-0.0445588
-0.00394536
-0.0427758
-0.012275
-0.0399647
-0.0202142
-0.0362079
-0.0275757
-0.0316158
-0.0340966
-0.0263369
-0.0395411
-0.0205372
-0.04375
-0.0144035
-0.0465268
-0.00812552
-0.0478457
-0.00189661
-0.0476941
0.00410031
-0.0461604
0.00970663
-0.043333
0.0147907
-0.039518
0.0192437
-0.0349165
0.0230127
-0.0298701
0.0260743
-0.0246205
0.028442
-0.0194166
0.0301561
-0.0144361
0.0312777
-0.00981359
0.0318721
-0.00561027
0.0319974
-0.00180959
0.0317187
0.00158507
0.03106
0.00473645
0.0300558
0.00764619
0.0287207
0.0103733
0.0270634
0.0129567
0.0250907
0.0154054
0.0228133
0.017699
0.0202537
0.0197688
0.0174476
0.0215454
0.014445
0.0229473
0.0113119
0.0238852
0.0081229
0.0243259
0.00496145
0.0242317
0.00189539
0.0236911
-0.00102158
0.0227867
-0.00375806
0.0216734
-0.00630873
0.0204934
-0.00869436
0.0193913
-0.0109558
0.0184642
-0.0131371
0.0177335
-0.0152726
0.0171572
-0.0173823
0.0166436
-0.0194575
0.0160375
-0.021465
0.0151924
-0.0233458
0.0139676
-0.0250217
0.0122507
-0.0264113
0.0100277
-0.027436
0.00731656
-0.0280407
0.00425081
-0.0281808
0.000883288
-0.0278453
-0.00256784
-0.0270542
-0.00592375
-0.0258422
-0.00908494
-0.0242558
-0.0119664
-0.0223456
-0.0145311
-0.020161
-0.0167705
-0.0177415
-0.0187238
-0.0151194
-0.0204229
-0.012318
-0.0219146
-0.00935443
-0.0232258
-0.0062443
-0.0243631
-0.00300506
-0.0253125
0.000339983
-0.0260374
0.00376022
-0.0264904
0.00721083
-0.0265899
0.0106382
-0.0262773
0.013979
-0.0254949
0.0171628
-0.0242004
0.0201161
-0.0223756
0.0227655
-0.0200278
0.0250429
-0.0171946
0.0268891
-0.0139385
0.0282564
-0.0103413
0.0291116
-0.00649925
0.0294375
-0.00252754
0.0292372
0.00145181
0.0285235
0.00533992
0.0273216
0.00910812
0.0256822
0.0125821
0.0157286
0.0236741
-0.038177
0.0395124
-0.0418448
0.0320435
-0.0444522
0.023355
-0.0459853
0.0144444
-0.0463628
0.00482159
-0.0456061
-0.0047021
-0.0437531
-0.014128
-0.0408499
-0.0231173
-0.0369732
-0.0314524
-0.0322394
-0.0388305
-0.0267901
-0.0449903
-0.0208013
-0.0497388
-0.0144729
-0.0528551
-0.00800312
-0.0543155
-0.00159471
-0.0541025
0.00455687
-0.052312
0.0102894
-0.0490655
0.0154681
-0.0446967
0.0199769
-0.0394252
0.0237654
-0.0336586
0.0268143
-0.0276695
0.029145
-0.0217473
0.0308068
-0.0160979
0.0318697
-0.0108764
0.0324042
-0.00614475
0.0324805
-0.00188594
0.0321543
0.00191126
0.0314637
0.00542701
0.0304369
0.008673
0.0290841
0.0117261
0.0274097
0.0146311
0.0254155
0.0173996
0.023108
0.0200065
0.0205069
0.0223698
0.0176473
0.024405
0.0145803
0.0260143
0.0113755
0.0270899
0.00811422
0.0275872
0.00488807
0.0274578
0.00177133
0.0268079
-0.0011774
0.0257354
-0.00392443
0.0244204
-0.00646726
0.0230362
-0.00883146
0.0217555
-0.0110657
0.0206984
-0.0132254
0.0198933
-0.0153532
0.0192849
-0.0174749
0.0187653
-0.0195836
0.0181461
-0.0216442
0.017253
-0.0235918
0.0159153
-0.0253394
0.0139983
-0.0267966
0.0114849
-0.0278755
0.00839546
-0.0285157
0.00489101
-0.0286695
0.00103711
-0.0283252
-0.00291213
-0.0275077
-0.00674125
-0.026257
-0.0103356
-0.0246257
-0.0135977
-0.02267
-0.0164868
-0.0204435
-0.0189971
-0.0179876
-0.0211797
-0.0153347
-0.0230757
-0.0125065
-0.0247428
-0.0095173
-0.026215
-0.00637948
-0.0275009
-0.00310735
-0.0285847
0.000278112
-0.0294229
0.00374808
-0.0299604
0.0072574
-0.0300992
0.0107514
-0.0297713
0.0141646
-0.0289081
0.0174234
-0.0274592
0.0204507
-0.0254029
0.0231693
-0.0227464
0.0255073
-0.0195326
0.0274026
-0.0158337
0.0288049
-0.0117436
0.0296797
-0.00737408
0.0300092
-0.00285704
0.0297982
0.00166283
0.0290583
0.00607988
0.0278182
0.0103482
0.0261262
0.014274
0.0177998
0.024055
-0.039381
0.044263
-0.0431245
0.035787
-0.0457648
0.0259953
-0.0472878
0.0159674
-0.0476051
0.00513888
-0.046799
-0.0055082
-0.0448477
-0.0160793
-0.0418127
-0.0261523
-0.0377778
-0.0354873
-0.0328605
-0.0437478
-0.0272147
-0.0506362
-0.0210222
-0.0559312
-0.0144887
-0.0593886
-0.00782076
-0.0609835
-0.00122987
-0.0606934
0.00507626
-0.0586181
0.0109347
-0.054924
0.0162091
-0.049971
0.0207762
-0.0439924
0.024588
-0.0374704
0.0276277
-0.0307091
0.029922
-0.0240416
0.0315292
-0.0177051
0.0325288
-0.011876
0.0329979
-0.00661387
0.0330179
-0.00190599
0.0326417
0.00228751
0.0319164
0.00615232
0.030865
0.00972435
0.0294939
0.0130972
0.0278022
0.0163229
0.0257855
0.0194162
0.023445
0.0223471
0.0207975
0.0250173
0.017877
0.0273254
0.0147362
0.0291552
0.0114482
0.030378
0.00810219
0.0309332
0.00480027
0.0307597
0.00162452
0.0299836
-0.00136056
0.0287205
-0.00411854
0.0271784
-0.00664982
0.0255675
-0.00898672
0.0240924
-0.0111872
0.0228988
-0.0133191
0.0220252
-0.0154358
0.0214017
-0.0175703
0.0208998
-0.0197175
0.0202933
-0.0218403
0.0193758
-0.0238665
0.0179414
-0.0256987
0.0158305
-0.0272351
0.0130213
-0.0283774
0.00953778
-0.0290588
0.0055724
-0.0292272
0.00120552
-0.0288724
-0.00326691
-0.0280233
-0.00759038
-0.0267268
-0.0116322
-0.0250426
-0.0152819
-0.0230339
-0.0184954
-0.0207594
-0.0212716
-0.0182624
-0.0236766
-0.0155754
-0.0257628
-0.0127181
-0.0276002
-0.00970139
-0.0292317
-0.00653367
-0.0306686
-0.00322559
-0.0318928
0.000204993
-0.0328535
0.00373082
-0.0334862
0.00730657
-0.0336749
0.0108766
-0.0333413
0.0143725
-0.0324041
0.0177173
-0.030804
0.0208294
-0.028515
0.0236273
-0.0255443
0.0260349
-0.0219402
0.0279864
-0.0177852
0.0294288
-0.013186
0.0303259
-0.00827118
0.0306592
-0.00319038
0.0304352
0.0018869
0.0296642
0.0068508
0.0283786
0.0116338
0.0266255
0.0160272
0.019945
0.0244803
-0.040687
0.0491531
-0.0445203
0.0396203
-0.0472105
0.0286854
-0.0487526
0.0175095
-0.0490601
0.00544642
-0.0481825
-0.00638582
-0.0461423
-0.0181195
-0.0429858
-0.0293087
-0.0387912
-0.0396819
-0.0336816
-0.0488574
-0.0278092
-0.0565085
-0.0213685
-0.062372
-0.014579
-0.066178
-0.00765895
-0.0679036
-0.000832074
-0.0675203
0.00567234
-0.0651225
0.0116916
-0.0609433
0.0170859
-0.0553652
0.0217231
-0.0486297
0.0255573
-0.0413046
0.0285773
-0.0337291
0.0308201
-0.0262844
0.0323558
-0.0192409
0.033275
-0.0127951
0.0336637
-0.00700252
0.0336159
-0.00185826
0.0331806
0.0027229
0.0324171
0.00691572
0.0313399
0.0108016
0.0299503
0.0144868
0.0282412
0.018032
0.0262012
0.0214562
0.0238248
0.0247235
0.0211257
0.0277163
0.0181368
0.0303144
0.0149115
0.0323805
0.0115275
0.0337619
0.00808395
0.0343768
0.00469401
0.0341497
0.00145034
0.0332273
-0.0015756
0.0317465
-0.00434464
0.0299475
-0.00685973
0.0280826
-0.00916184
0.0263945
-0.0113203
0.0250573
-0.0134167
0.0241216
-0.0155181
0.023503
-0.0176655
0.0230472
-0.0198564
0.0224843
-0.0220514
0.0215708
-0.0241692
0.0200592
-0.0261005
0.0177618
-0.0277295
0.0146502
-0.0289455
0.0107539
-0.0296743
0.00630116
-0.0298599
0.00139108
-0.0294906
-0.00363617
-0.0286032
-0.00847774
-0.0272525
-0.0129829
-0.0255066
-0.0170278
-0.0234369
-0.0205652
-0.0211076
-0.0236009
-0.0185649
-0.0262194
-0.0158407
-0.028487
-0.0129524
-0.0304884
-0.00990695
-0.0322772
-0.00670781
-0.0338678
-0.00336083
-0.0352397
0.000119187
-0.0363335
0.00370669
-0.0370737
0.0073569
-0.0373252
0.0110125
-0.036997
0.0146021
-0.0359937
0.0180442
-0.0342461
0.0212526
-0.0317234
0.0241407
-0.0284323
0.0266274
-0.024427
0.0286426
-0.0198004
0.0301302
-0.0146736
0.0310523
-0.0091933
0.0313891
-0.00352711
0.0311502
0.00212576
0.0303435
0.00765747
0.0290048
0.0129725
0.0271817
0.0178503
0.0221744
0.0249523
-0.0421749
0.0542034
-0.0461086
0.043554
-0.0488494
0.0314262
-0.0503946
0.0190546
-0.0506554
0.0057073
-0.0497254
-0.00731587
-0.0475809
-0.020264
-0.0442771
-0.0326125
-0.0398949
-0.0440641
-0.0345608
-0.0541915
-0.0284365
-0.0626329
-0.0217257
-0.0690828
-0.0146592
-0.0732445
-0.00746769
-0.0750951
-0.000383441
-0.0746045
0.0063307
-0.0718366
0.0125223
-0.0671348
0.0180454
-0.0608884
0.0227605
-0.0533448
0.0266211
-0.0451651
0.0296218
-0.0367299
0.0318092
-0.0284718
0.0332665
-0.0206982
0.0340952
-0.0136239
0.0343971
-0.00730437
0.0342688
-0.00172995
0.0337703
0.00322137
0.0329647
0.00772136
0.0318613
0.0119049
0.0304546
0.0158935
0.0287296
0.019757
0.0266666
0.0235192
0.0242524
0.0271377
0.0214969
0.0304718
0.0184317
0.0333795
0.015112
0.0357002
0.0116183
0.0372557
0.0080608
0.0379342
0.00456936
0.0376411
0.00124826
0.0365484
-0.00182445
0.0348192
-0.0046047
0.0327277
-0.00709804
0.0305759
-0.00935617
0.0286526
-0.0114627
0.0271638
-0.0135144
0.0261733
-0.0155951
0.0255837
-0.0177554
0.0252076
-0.0199961
0.0247249
-0.0222746
0.0238493
-0.0244989
0.0222835
-0.0265454
0.0198083
-0.0282818
0.0163866
-0.029583
0.012055
-0.030366
0.00708423
-0.0305681
0.00159314
-0.0301823
-0.004022
-0.0292498
-0.00941022
-0.0278354
-0.0143972
-0.0260179
-0.0188453
-0.0238783
-0.0227049
-0.0214875
-0.0259916
-0.0188942
-0.0288127
-0.0161299
-0.0312513
-0.0132095
-0.0334089
-0.0101344
-0.0353523
-0.00690296
-0.0370992
-0.00351496
-0.0386277
2.00443e-05
-0.0398685
0.00367416
-0.0407278
0.00740692
-0.0410579
0.0111583
-0.0407483
0.014853
-0.0396884
0.0184047
-0.0377978
0.0217217
-0.0350404
0.0247114
-0.031422
0.0272871
-0.0270027
0.0293742
-0.0218875
0.0309129
-0.0162123
0.0318625
-0.0101429
0.032204
-0.0038686
0.0319469
0.00238292
0.0310988
0.00850555
0.0296993
0.014372
0.0277971
0.0197525
0.0244983
0.0254732
-0.0438061
0.0594276
-0.0478508
0.0475987
-0.0506538
0.0342292
-0.0522155
0.0206163
-0.0524659
0.00595769
-0.0514622
-0.00831955
-0.0492143
-0.0225119
-0.0457632
-0.0360636
-0.041183
-0.0486443
-0.0356058
-0.0597687
-0.0291962
-0.0690425
-0.0221718
-0.0761072
-0.0147808
-0.0806355
-0.00726999
-0.0826059
0.00010862
-0.0819831
0.00708059
-0.0788086
0.0134744
-0.0735286
0.0191444
-0.0665584
0.0239468
-0.0581471
0.0278306
-0.0490489
0.0308008
-0.0397001
0.032917
-0.030588
0.0342781
-0.0220592
0.0349966
-0.0143424
0.0351988
-0.00750656
0.0349687
-0.0014999
0.0344035
0.00378654
0.0335544
0.00857054
0.0324252
0.0130341
0.031003
0.0173156
0.0292646
0.0214954
0.02718
0.0256039
0.0247263
0.0295914
0.0219092
0.0332889
0.0187594
0.0365293
0.0153322
0.0391274
0.0117134
0.0408745
0.00802622
0.0416214
0.00441849
0.0412488
0.00100878
0.0399581
-0.00211552
0.0379435
-0.00490612
0.0355183
-0.00737093
0.0330407
-0.00957364
0.0308553
-0.0116155
0.0292057
-0.0136114
0.0281692
-0.0156646
0.0276368
-0.0178371
0.0273801
-0.0201336
0.0270214
-0.0225081
0.0262238
-0.0248559
0.0246313
-0.0270362
0.0219886
-0.0288968
0.0182472
-0.030296
0.0134542
-0.0311406
0.00792885
-0.0313624
0.00181494
-0.0309538
-0.00443057
-0.029967
-0.0103971
-0.0284779
-0.0158863
-0.0265775
-0.0207457
-0.0243578
-0.0249245
-0.0218978
-0.0284516
-0.0192492
-0.0314613
-0.0164426
-0.0340578
-0.0134894
-0.0363621
-0.0103851
-0.0384566
-0.00712115
-0.0403632
-0.00369002
-0.0420589
-9.56125e-05
-0.0434629
0.00363037
-0.0444538
0.00745443
-0.044882
0.0113123
-0.0446062
0.0151244
-0.0435005
0.0187988
-0.0414722
0.0222374
-0.0384789
0.0253411
-0.0345257
0.0280168
-0.0296784
0.0301842
-0.0240549
0.0317794
-0.0178076
0.0327598
-0.0111233
0.0331028
-0.00421158
0.0328266
0.00265906
0.0319328
0.00939936
0.0304647
0.0158401
0.0284739
0.0217433
0.0269276
0.0260446
-0.045617
0.0648433
-0.049781
0.0517627
-0.0526492
0.0370975
-0.0542177
0.0221848
-0.0544385
0.00617846
-0.0533746
-0.00938345
-0.0510157
-0.0248708
-0.0474014
-0.039678
-0.0426018
-0.0534438
-0.0367537
-0.0656168
-0.0300303
-0.0757659
-0.0226634
-0.0834742
-0.0149172
-0.0883817
-0.00705816
-0.0904649
0.00063226
-0.0896735
0.00790129
-0.0860776
0.0145193
-0.0801467
0.0203479
-0.072387
0.0252479
-0.0630471
0.0291567
-0.0529578
0.0320914
-0.0426348
0.0341262
-0.0326228
0.0353758
-0.0233088
0.0359727
-0.0149392
0.0360508
-0.00758467
0.0357123
-0.00116146
0.0350756
0.00442331
0.0341794
0.00946673
0.0330259
0.0141876
0.0315927
0.0187487
0.0298452
0.0232429
0.0277403
0.0277088
0.0252471
0.0320846
0.0223662
0.0361697
0.0191255
0.03977
0.0155791
0.0426738
0.0118183
0.0446354
0.00798426
0.0454554
0.00424417
0.0449889
0.000731451
0.0434708
-0.00245186
0.0411268
-0.00525209
0.0383185
-0.0076807
0.0354693
-0.00981436
0.032989
-0.0117765
0.0311678
-0.0137027
0.0300954
-0.0157194
0.0296535
-0.0179023
0.029563
-0.020261
0.0293801
-0.0227457
0.0287084
-0.0252362
0.0271218
-0.0275713
0.0243238
-0.0295756
0.0202515
-0.031087
0.0149656
-0.0320015
0.00884333
-0.0322405
0.002054
-0.0318065
-0.00486462
-0.030756
-0.0114475
-0.0291799
-0.0174624
-0.0271842
-0.0227414
-0.0248742
-0.0272345
-0.0223375
-0.0309883
-0.0196293
-0.0341694
-0.0167788
-0.0369083
-0.0137934
-0.0393475
-0.0106614
-0.0415886
-0.00736614
-0.0436585
-0.00389197
-0.045533
-0.000239161
-0.0471157
0.0035684
-0.0482613
0.0074924
-0.048806
0.0114678
-0.0485816
0.01541
-0.0474427
0.0192208
-0.045283
0.022795
-0.0420531
0.0260258
-0.0377564
0.0288126
-0.0324652
0.0310696
-0.0263118
0.0327282
-0.0194663
0.0337426
-0.0121377
0.0340915
-0.0045605
0.0337912
0.00295939
0.0328446
0.0103459
0.0312996
0.0173852
0.029211
0.0238319
0.0294715
0.026667
-0.0166128
0.066811
-0.0181196
0.0532695
-0.0191548
0.0381326
-0.0197151
0.0227451
-0.0197913
0.00625467
-0.0193985
-0.00977627
-0.0185371
-0.0257322
-0.0172179
-0.0409971
-0.0154632
-0.0551986
-0.0133226
-0.0677574
-0.0108586
-0.0782299
-0.00815851
-0.0861743
-0.00532026
-0.09122
-0.00244353
-0.0933416
0.000365702
-0.0924828
0.00301853
-0.0887305
0.0054226
-0.0825507
0.00752751
-0.0744919
0.00928831
-0.0648079
0.0106775
-0.0543469
0.0117051
-0.0436624
0.0124019
-0.0333196
0.0128124
-0.0237193
0.0129905
-0.0151173
0.0129803
-0.00757449
0.0128342
-0.00101539
0.01259
0.00466758
0.0122614
0.00979529
0.0118482
0.0146007
0.0113399
0.0192571
0.0107211
0.0238618
0.00997283
0.028457
0.00908131
0.0329761
0.00804538
0.0372057
0.00687416
0.0409412
0.00558618
0.0439618
0.00421579
0.0460058
0.00281792
0.0468533
0.00145695
0.0463499
0.00018463
0.0447431
-0.000958332
0.0422698
-0.00195161
0.0393118
-0.00280046
0.0363182
-0.00353507
0.0337236
-0.00420571
0.0318384
-0.00486644
0.0307561
-0.00556886
0.0303559
-0.00634344
0.0303376
-0.00719502
0.0302317
-0.00810479
0.0296182
-0.00902592
0.0280429
-0.00989558
0.0251934
-0.0106449
0.0210009
-0.011211
0.0155317
-0.0115539
0.00918618
-0.0116434
0.00214347
-0.0114813
-0.00502667
-0.0110908
-0.011838
-0.0105083
-0.0180449
-0.0097753
-0.0234744
-0.00893278
-0.028077
-0.00801413
-0.031907
-0.00703993
-0.0351436
-0.00601998
-0.0379283
-0.00495574
-0.0404118
-0.00384108
-0.0427032
-0.00266763
-0.0448319
-0.00142747
-0.0467732
-0.00011949
-0.0484237
0.00124885
-0.0496297
0.00266394
-0.0502211
0.00410202
-0.0500197
0.00553181
-0.0488725
0.00691683
-0.046668
0.00821789
-0.0433542
0.00939511
-0.0389337
0.010411
-0.0334811
0.0112336
-0.0271344
0.0118374
-0.0200701
0.0122054
-0.0125056
0.0123296
-0.00468478
0.0122174
0.00307165
0.0118687
0.0106945
0.0113019
0.017952
0.0105373
0.0245965
0.0304022
0.00960661
-0.0168772
0.0688048
-0.0183985
0.0547909
-0.0194407
0.0391748
-0.0200004
0.0233048
-0.0200726
0.00632682
-0.0196712
-0.0101776
-0.0187948
-0.0266085
-0.0174532
-0.0423387
-0.0156674
-0.0569844
-0.0134886
-0.0699362
-0.0109804
-0.0807382
-0.00822985
-0.0889248
-0.00533892
-0.0941109
-0.00241053
-0.09627
0.000446053
-0.0953393
0.00314089
-0.0914253
0.00557831
-0.0849881
0.00770572
-0.0766193
0.00947998
-0.0665822
0.0108722
-0.0557392
0.0118937
-0.0446839
0.0125781
-0.034004
0.0129717
-0.0241129
0.0131309
-0.0152766
0.0131007
-0.00754432
0.0129404
-0.000855015
0.0126861
0.00492183
0.0123517
0.0101297
0.0119362
0.0150163
0.0114274
0.0197658
0.0108084
0.0244808
0.0100581
0.0292073
0.00916114
0.0338731
0.00811569
0.0382511
0.00693059
0.0421263
0.00562412
0.0452683
0.00423191
0.047398
0.00281191
0.0482733
0.00143098
0.0477308
0.000143007
0.0460311
-0.00100815
0.0434209
-0.00200188
0.0403055
-0.00284427
0.0371606
-0.00356715
0.0344465
-0.00422464
0.0324959
-0.00487423
0.0314057
-0.00557055
0.0310523
-0.00634643
0.0311135
-0.00720763
0.0310929
-0.00813461
0.0305452
-0.00907801
0.0289863
-0.00997158
0.026087
-0.0107427
0.021772
-0.0113253
0.0161143
-0.0116783
0.00953912
-0.0117702
0.00223544
-0.0116035
-0.00519339
-0.0112027
-0.0122388
-0.0106065
-0.0186412
-0.00985868
-0.0242222
-0.00900226
-0.0289335
-0.00807189
-0.0328374
-0.00708872
-0.0361268
-0.00606249
-0.0389545
-0.00499399
-0.0414803
-0.00387587
-0.0438213