/*--------------------------------*- C++ -*----------------------------------*\
| =========                 |                                                 |
| \\      /  F ield         | OpenFOAM: The Open Source CFD Toolbox           |
|  \\    /   O peration     | Version:  v1912                                 |
|   \\  /    A nd           | Website:  www.openfoam.com                      |
|    \\/     M anipulation  |                                                 |
\*---------------------------------------------------------------------------*/
FoamFile
{
    version     2.0;
    format      ascii;
    class       volSymmTensorField;
    location    "40";
    object      R;
}
// * * * * * * * * * * * * * * * * * * * * * * * * * * * * * * * * * * * * * //

dimensions      [0 2 -2 0 0 0 0];


internalField   nonuniform List<symmTensor> 
14268
(
(4.78496e-07 -7.72709e-08 0 5.43471e-07 0 5.10807e-07)
(4.77004e-07 -7.72547e-08 0 5.43237e-07 0 5.10014e-07)
(4.76279e-07 -7.7304e-08 0 5.42757e-07 0 5.09408e-07)
(4.76137e-07 -7.72899e-08 0 5.41963e-07 0 5.09001e-07)
(4.77324e-07 -7.74614e-08 0 5.40776e-07 0 5.09022e-07)
(4.80377e-07 -7.77482e-08 0 5.39525e-07 0 5.09928e-07)
(4.85483e-07 -7.82099e-08 0 5.37646e-07 0 5.11546e-07)
(4.92647e-07 -7.8771e-08 0 5.34871e-07 0 5.13803e-07)
(5.00626e-07 -7.93453e-08 0 5.32262e-07 0 5.16506e-07)
(5.09276e-07 -7.99157e-08 0 5.29645e-07 0 5.19553e-07)
(5.18021e-07 -8.04908e-08 0 5.2713e-07 0 5.22727e-07)
(5.26392e-07 -8.09921e-08 0 5.2516e-07 0 5.25923e-07)
(5.34592e-07 -8.1477e-08 0 5.22902e-07 0 5.28974e-07)
(5.40945e-07 -8.1824e-08 0 5.21995e-07 0 5.31602e-07)
(5.46595e-07 -8.22166e-08 0 5.2071e-07 0 5.3391e-07)
(5.5006e-07 -8.24089e-08 0 5.20787e-07 0 5.3553e-07)
(5.5385e-07 -8.25952e-08 0 5.19133e-07 0 5.3676e-07)
(5.549e-07 -8.25692e-08 0 5.19004e-07 0 5.3705e-07)
(5.55417e-07 -8.26025e-08 0 5.17701e-07 0 5.36812e-07)
(5.53127e-07 -8.24718e-08 0 5.18503e-07 0 5.35855e-07)
(5.49409e-07 -8.23929e-08 0 5.19378e-07 0 5.34585e-07)
(5.43259e-07 -8.21045e-08 0 5.22251e-07 0 5.32815e-07)
(5.3656e-07 -8.1955e-08 0 5.25075e-07 0 5.31078e-07)
(5.29168e-07 -8.15831e-08 0 5.2888e-07 0 5.2914e-07)
(5.21894e-07 -8.1347e-08 0 5.32273e-07 0 5.27329e-07)
(5.15132e-07 -8.10406e-08 0 5.35822e-07 0 5.25628e-07)
(5.09295e-07 -8.08477e-08 0 5.38516e-07 0 5.24189e-07)
(5.04186e-07 -8.06447e-08 0 5.41276e-07 0 5.22907e-07)
(5.00582e-07 -8.05578e-08 0 5.42628e-07 0 5.21894e-07)
(4.97645e-07 -8.04226e-08 0 5.43717e-07 0 5.20897e-07)
(4.95672e-07 -8.03554e-08 0 5.43769e-07 0 5.20007e-07)
(4.94572e-07 -8.03152e-08 0 5.43655e-07 0 5.19354e-07)
(4.94952e-07 -8.05189e-08 0 5.43113e-07 0 5.19277e-07)
(4.96959e-07 -8.08433e-08 0 5.42269e-07 0 5.198e-07)
(5.00931e-07 -8.13234e-08 0 5.40488e-07 0 5.20924e-07)
(5.06086e-07 -8.18996e-08 0 5.38761e-07 0 5.22609e-07)
(5.13072e-07 -8.25661e-08 0 5.3637e-07 0 5.24917e-07)
(5.21724e-07 -8.3217e-08 0 5.33275e-07 0 5.27712e-07)
(5.3069e-07 -8.38742e-08 0 5.30435e-07 0 5.30779e-07)
(5.40363e-07 -8.44805e-08 0 5.27075e-07 0 5.33976e-07)
(5.49752e-07 -8.49118e-08 0 5.2378e-07 0 5.3704e-07)
(5.57488e-07 -8.52319e-08 0 5.21356e-07 0 5.39722e-07)
(5.64142e-07 -8.5398e-08 0 5.18999e-07 0 5.41915e-07)
(5.68724e-07 -8.5418e-08 0 5.17436e-07 0 5.43424e-07)
(5.70476e-07 -8.53822e-08 0 5.17001e-07 0 5.44165e-07)
(5.71753e-07 -8.52825e-08 0 5.17138e-07 0 5.44751e-07)
(5.70543e-07 -8.50902e-08 0 5.18594e-07 0 5.45018e-07)
(5.67614e-07 -8.49752e-08 0 5.22175e-07 0 5.45145e-07)
(5.63412e-07 -8.48776e-08 0 5.26465e-07 0 5.45456e-07)
(5.58425e-07 -8.4808e-08 0 5.3255e-07 0 5.45759e-07)
(5.5263e-07 -8.4822e-08 0 5.39062e-07 0 5.46306e-07)
(5.46672e-07 -8.48232e-08 0 5.46501e-07 0 5.46893e-07)
(5.40254e-07 -8.49273e-08 0 5.54319e-07 0 5.47684e-07)
(5.34274e-07 -8.50274e-08 0 5.62166e-07 0 5.48579e-07)
(5.28287e-07 -8.51845e-08 0 5.70186e-07 0 5.49592e-07)
(5.22981e-07 -8.53713e-08 0 5.77754e-07 0 5.50691e-07)
(5.18149e-07 -8.5568e-08 0 5.84901e-07 0 5.51822e-07)
(5.1408e-07 -8.57665e-08 0 5.91188e-07 0 5.52904e-07)
(5.10867e-07 -8.5956e-08 0 5.96224e-07 0 5.5383e-07)
(5.08368e-07 -8.61146e-08 0 6.00146e-07 0 5.54597e-07)
(5.06371e-07 -8.62815e-08 0 6.03254e-07 0 5.55203e-07)
(5.04967e-07 -8.6431e-08 0 6.05547e-07 0 5.55727e-07)
(5.04005e-07 -8.65754e-08 0 6.07186e-07 0 5.56114e-07)
(5.03424e-07 -8.67013e-08 0 6.08311e-07 0 5.56436e-07)
(5.03314e-07 -8.68207e-08 0 6.09005e-07 0 5.56744e-07)
(5.03964e-07 -8.7022e-08 0 6.09945e-07 0 5.57521e-07)
(5.0568e-07 -8.73676e-08 0 6.11065e-07 0 5.58887e-07)
(5.08611e-07 -8.78573e-08 0 6.12181e-07 0 5.60852e-07)
(5.1291e-07 -8.84862e-08 0 6.13138e-07 0 5.63412e-07)
(5.18613e-07 -8.92832e-08 0 6.14052e-07 0 5.66675e-07)
(5.26201e-07 -9.02233e-08 0 6.14235e-07 0 5.70529e-07)
(5.35991e-07 -9.13129e-08 0 6.13309e-07 0 5.74977e-07)
(5.47646e-07 -9.25393e-08 0 6.11996e-07 0 5.80174e-07)
(5.60979e-07 -9.38618e-08 0 6.10496e-07 0 5.86131e-07)
(5.75962e-07 -9.52588e-08 0 6.08855e-07 0 5.92819e-07)
(5.92352e-07 -9.6693e-08 0 6.07116e-07 0 6.00135e-07)
(6.09726e-07 -9.81048e-08 0 6.05245e-07 0 6.07878e-07)
(6.27472e-07 -9.94376e-08 0 6.0334e-07 0 6.15792e-07)
(6.44856e-07 -1.00639e-07 0 6.01491e-07 0 6.23564e-07)
(6.61098e-07 -1.0167e-07 0 5.9984e-07 0 6.3087e-07)
(6.75807e-07 -1.02466e-07 0 5.98227e-07 0 6.37407e-07)
(6.86588e-07 -1.03163e-07 0 5.98308e-07 0 6.4287e-07)
(6.96314e-07 -1.03755e-07 0 5.97621e-07 0 6.47427e-07)
(7.05724e-07 -1.05873e-07 0 5.97238e-07 0 6.51939e-07)
(7.0413e-07 -1.07684e-07 0 6.02651e-07 0 6.53723e-07)
(6.97479e-07 -1.10398e-07 0 6.06372e-07 0 6.52921e-07)
(1.7714e-07 -1.78128e-08 0 1.98382e-07 0 1.87771e-07)
(1.75209e-07 -1.77474e-08 0 1.9773e-07 0 1.86458e-07)
(1.74316e-07 -1.78594e-08 0 1.97719e-07 0 1.85944e-07)
(1.747e-07 -1.81956e-08 0 1.98309e-07 0 1.86426e-07)
(1.76348e-07 -1.87049e-08 0 1.99428e-07 0 1.87783e-07)
(1.79066e-07 -1.92998e-08 0 2.00718e-07 0 1.89761e-07)
(1.82786e-07 -1.99684e-08 0 2.02123e-07 0 1.92296e-07)
(1.87473e-07 -2.06728e-08 0 2.0368e-07 0 1.95404e-07)
(1.92771e-07 -2.13724e-08 0 2.05317e-07 0 1.98854e-07)
(1.98605e-07 -2.20605e-08 0 2.07052e-07 0 2.02625e-07)
(2.04618e-07 -2.2708e-08 0 2.08823e-07 0 2.06526e-07)
(2.10734e-07 -2.33175e-08 0 2.10629e-07 0 2.10464e-07)
(2.16759e-07 -2.38665e-08 0 2.12476e-07 0 2.14425e-07)
(2.221e-07 -2.43243e-08 0 2.14255e-07 0 2.17924e-07)
(2.27096e-07 -2.47801e-08 0 2.16105e-07 0 2.21394e-07)
(2.30978e-07 -2.5094e-08 0 2.17703e-07 0 2.24059e-07)
(2.34671e-07 -2.54389e-08 0 2.1919e-07 0 2.26718e-07)
(2.36866e-07 -2.55816e-08 0 2.20353e-07 0 2.28311e-07)
(2.384e-07 -2.57525e-08 0 2.2135e-07 0 2.29647e-07)
(2.37865e-07 -2.56368e-08 0 2.21841e-07 0 2.29537e-07)
(2.35844e-07 -2.54559e-08 0 2.21813e-07 0 2.2859e-07)
(2.31814e-07 -2.50037e-08 0 2.21048e-07 0 2.26134e-07)
(2.27144e-07 -2.45774e-08 0 2.19961e-07 0 2.23352e-07)
(2.21374e-07 -2.39199e-08 0 2.18398e-07 0 2.19627e-07)
(2.15482e-07 -2.33657e-08 0 2.16635e-07 0 2.1586e-07)
(2.09906e-07 -2.27978e-08 0 2.14883e-07 0 2.12157e-07)
(2.0483e-07 -2.23281e-08 0 2.13252e-07 0 2.08854e-07)
(2.00487e-07 -2.19446e-08 0 2.11871e-07 0 2.05943e-07)
(1.97214e-07 -2.17612e-08 0 2.10956e-07 0 2.03886e-07)
(1.94982e-07 -2.1693e-08 0 2.10512e-07 0 2.02507e-07)
(1.93907e-07 -2.18448e-08 0 2.1063e-07 0 2.02043e-07)
(1.94069e-07 -2.2153e-08 0 2.11253e-07 0 2.0241e-07)
(1.95124e-07 -2.25871e-08 0 2.12127e-07 0 2.03376e-07)
(1.97261e-07 -2.31568e-08 0 2.13241e-07 0 2.04977e-07)
(2.00536e-07 -2.38514e-08 0 2.14602e-07 0 2.07302e-07)
(2.04847e-07 -2.46369e-08 0 2.16241e-07 0 2.1026e-07)
(2.10359e-07 -2.55241e-08 0 2.18126e-07 0 2.13952e-07)
(2.16942e-07 -2.64402e-08 0 2.20187e-07 0 2.18268e-07)
(2.24143e-07 -2.73548e-08 0 2.22409e-07 0 2.22965e-07)
(2.31745e-07 -2.82224e-08 0 2.24643e-07 0 2.27882e-07)
(2.3918e-07 -2.89649e-08 0 2.26759e-07 0 2.32648e-07)
(2.45954e-07 -2.95719e-08 0 2.28739e-07 0 2.37027e-07)
(2.51599e-07 -2.99838e-08 0 2.30356e-07 0 2.40667e-07)
(2.55755e-07 -3.01951e-08 0 2.31607e-07 0 2.43365e-07)
(2.57959e-07 -3.01744e-08 0 2.32402e-07 0 2.44903e-07)
(2.57861e-07 -2.98819e-08 0 2.32319e-07 0 2.44776e-07)
(2.55249e-07 -2.93169e-08 0 2.31425e-07 0 2.43126e-07)
(2.50029e-07 -2.84831e-08 0 2.29638e-07 0 2.39539e-07)
(2.43632e-07 -2.75948e-08 0 2.27204e-07 0 2.35275e-07)
(2.3538e-07 -2.64168e-08 0 2.24032e-07 0 2.29467e-07)
(2.26529e-07 -2.53041e-08 0 2.20441e-07 0 2.23351e-07)
(2.16895e-07 -2.4012e-08 0 2.16297e-07 0 2.16418e-07)
(2.07104e-07 -2.28068e-08 0 2.11879e-07 0 2.09364e-07)
(1.97565e-07 -2.15974e-08 0 2.07284e-07 0 2.02301e-07)
(1.88397e-07 -2.04524e-08 0 2.02657e-07 0 1.95413e-07)
(1.79966e-07 -1.94114e-08 0 1.98157e-07 0 1.88946e-07)
(1.72366e-07 -1.84807e-08 0 1.93923e-07 0 1.83025e-07)
(1.65692e-07 -1.76734e-08 0 1.90043e-07 0 1.7774e-07)
(1.59969e-07 -1.69958e-08 0 1.86615e-07 0 1.73154e-07)
(1.55182e-07 -1.64482e-08 0 1.83695e-07 0 1.693e-07)
(1.51297e-07 -1.60269e-08 0 1.8131e-07 0 1.66155e-07)
(1.48335e-07 -1.57446e-08 0 1.79501e-07 0 1.63771e-07)
(1.46236e-07 -1.55827e-08 0 1.78263e-07 0 1.62097e-07)
(1.4499e-07 -1.55568e-08 0 1.77609e-07 0 1.61144e-07)
(1.44605e-07 -1.56766e-08 0 1.77547e-07 0 1.60918e-07)
(1.44791e-07 -1.58668e-08 0 1.77698e-07 0 1.61086e-07)
(1.45483e-07 -1.61181e-08 0 1.77965e-07 0 1.61565e-07)
(1.4672e-07 -1.64358e-08 0 1.78359e-07 0 1.62381e-07)
(1.48545e-07 -1.68255e-08 0 1.78893e-07 0 1.6356e-07)
(1.51048e-07 -1.7297e-08 0 1.79584e-07 0 1.65161e-07)
(1.54275e-07 -1.78473e-08 0 1.80451e-07 0 1.67209e-07)
(1.58291e-07 -1.84796e-08 0 1.81509e-07 0 1.6975e-07)
(1.63154e-07 -1.9193e-08 0 1.82774e-07 0 1.72819e-07)
(1.68881e-07 -1.99777e-08 0 1.84256e-07 0 1.76432e-07)
(1.75487e-07 -2.08205e-08 0 1.85962e-07 0 1.80589e-07)
(1.82912e-07 -2.17004e-08 0 1.87877e-07 0 1.85253e-07)
(1.90996e-07 -2.25911e-08 0 1.89956e-07 0 1.90328e-07)
(1.99503e-07 -2.34598e-08 0 1.9214e-07 0 1.95668e-07)
(2.08103e-07 -2.42693e-08 0 1.94347e-07 0 2.01069e-07)
(2.16395e-07 -2.49825e-08 0 1.96496e-07 0 2.0629e-07)
(2.24006e-07 -2.55664e-08 0 1.98415e-07 0 2.11051e-07)
(2.30427e-07 -2.60191e-08 0 2.00132e-07 0 2.15123e-07)
(2.35935e-07 -2.63717e-08 0 2.01911e-07 0 2.18769e-07)
(2.40318e-07 -2.70676e-08 0 2.03271e-07 0 2.21693e-07)
(2.42469e-07 -2.81176e-08 0 2.04737e-07 0 2.23562e-07)
(2.43463e-07 -2.93461e-08 0 2.05452e-07 0 2.25042e-07)
(8.70975e-08 -5.24419e-09 0 9.73462e-08 0 9.22053e-08)
(8.63569e-08 -5.34188e-09 0 9.74337e-08 0 9.18713e-08)
(8.60139e-08 -5.50074e-09 0 9.76618e-08 0 9.17827e-08)
(8.61547e-08 -5.73089e-09 0 9.78965e-08 0 9.19698e-08)
(8.67099e-08 -6.01132e-09 0 9.81817e-08 0 9.23837e-08)
(8.76526e-08 -6.29769e-09 0 9.83819e-08 0 9.29535e-08)
(8.89546e-08 -6.58719e-09 0 9.85284e-08 0 9.36729e-08)
(9.06316e-08 -6.84777e-09 0 9.86223e-08 0 9.45603e-08)
(9.25313e-08 -7.0677e-09 0 9.87018e-08 0 9.55484e-08)
(9.46546e-08 -7.24545e-09 0 9.87774e-08 0 9.66506e-08)
(9.68357e-08 -7.3782e-09 0 9.88683e-08 0 9.77967e-08)
(9.90804e-08 -7.47767e-09 0 9.90015e-08 0 9.89827e-08)
(1.01287e-07 -7.53178e-09 0 9.91679e-08 0 1.00185e-07)
(1.03267e-07 -7.55396e-09 0 9.93902e-08 0 1.01267e-07)
(1.0513e-07 -7.58278e-09 0 9.96264e-08 0 1.02346e-07)
(1.06589e-07 -7.56979e-09 0 9.98991e-08 0 1.03186e-07)
(1.07931e-07 -7.57763e-09 0 1.00169e-07 0 1.04035e-07)
(1.0875e-07 -7.51206e-09 0 1.0046e-07 0 1.04556e-07)
(1.09294e-07 -7.47696e-09 0 1.00717e-07 0 1.05e-07)
(1.091e-07 -7.34898e-09 0 1.00877e-07 0 1.04948e-07)
(1.08313e-07 -7.21103e-09 0 1.00819e-07 0 1.04568e-07)
(1.06738e-07 -6.99797e-09 0 1.00587e-07 0 1.03644e-07)
(1.04895e-07 -6.82003e-09 0 1.00232e-07 0 1.02594e-07)
(1.02633e-07 -6.56116e-09 0 9.98214e-08 0 1.01238e-07)
(1.0031e-07 -6.39036e-09 0 9.93687e-08 0 9.98863e-08)
(9.81394e-08 -6.22694e-09 0 9.89757e-08 0 9.85966e-08)
(9.61592e-08 -6.10077e-09 0 9.86401e-08 0 9.74712e-08)
(9.44697e-08 -6.03316e-09 0 9.84331e-08 0 9.65051e-08)
(9.31964e-08 -6.04088e-09 0 9.83219e-08 0 9.58356e-08)
(9.23133e-08 -6.08935e-09 0 9.83561e-08 0 9.53952e-08)
(9.1856e-08 -6.22192e-09 0 9.85043e-08 0 9.52501e-08)
(9.18519e-08 -6.40367e-09 0 9.87583e-08 0 9.53652e-08)
(9.21822e-08 -6.62643e-09 0 9.90036e-08 0 9.56551e-08)
(9.28992e-08 -6.90115e-09 0 9.92511e-08 0 9.61287e-08)
(9.40401e-08 -7.2027e-09 0 9.94804e-08 0 9.68207e-08)
(9.55794e-08 -7.52439e-09 0 9.97298e-08 0 9.77099e-08)
(9.75704e-08 -7.86243e-09 0 9.99889e-08 0 9.88369e-08)
(9.99615e-08 -8.16827e-09 0 1.0028e-07 0 1.00181e-07)
(1.02615e-07 -8.43917e-09 0 1.00615e-07 0 1.01675e-07)
(1.05428e-07 -8.65816e-09 0 1.00984e-07 0 1.03272e-07)
(1.08194e-07 -8.80243e-09 0 1.01373e-07 0 1.04851e-07)
(1.10734e-07 -8.8738e-09 0 1.01773e-07 0 1.06325e-07)
(1.12833e-07 -8.85554e-09 0 1.0213e-07 0 1.07557e-07)
(1.14382e-07 -8.766e-09 0 1.02411e-07 0 1.08469e-07)
(1.15157e-07 -8.58094e-09 0 1.02596e-07 0 1.08965e-07)
(1.1496e-07 -8.30011e-09 0 1.02485e-07 0 1.08786e-07)
(1.13681e-07 -7.90892e-09 0 1.02062e-07 0 1.07977e-07)
(1.11373e-07 -7.46071e-09 0 1.01323e-07 0 1.06398e-07)
(1.08582e-07 -7.02633e-09 0 1.00378e-07 0 1.0459e-07)
(1.05157e-07 -6.50643e-09 0 9.9254e-08 0 1.02256e-07)
(1.01571e-07 -6.07048e-09 0 9.80715e-08 0 9.99107e-08)
(9.78215e-08 -5.59478e-09 0 9.68636e-08 0 9.74013e-08)
(9.41614e-08 -5.21257e-09 0 9.56885e-08 0 9.49944e-08)
(9.07328e-08 -4.8656e-09 0 9.46141e-08 0 9.2737e-08)
(8.75688e-08 -4.5768e-09 0 9.36684e-08 0 9.06773e-08)
(8.47688e-08 -4.35814e-09 0 9.28661e-08 0 8.88693e-08)
(8.2341e-08 -4.19174e-09 0 9.22093e-08 0 8.73216e-08)
(8.02801e-08 -4.0756e-09 0 9.16919e-08 0 8.60255e-08)
(7.85673e-08 -4.00308e-09 0 9.12964e-08 0 8.49635e-08)
(7.71679e-08 -3.96155e-09 0 9.10054e-08 0 8.41156e-08)
(7.60509e-08 -3.95322e-09 0 9.08071e-08 0 8.34506e-08)
(7.52011e-08 -3.97198e-09 0 9.06762e-08 0 8.2959e-08)
(7.45916e-08 -4.01326e-09 0 9.06078e-08 0 8.26161e-08)
(7.42072e-08 -4.0797e-09 0 9.05868e-08 0 8.24122e-08)
(7.40494e-08 -4.16874e-09 0 9.06066e-08 0 8.23424e-08)
(7.40547e-08 -4.27838e-09 0 9.05899e-08 0 8.23342e-08)
(7.42199e-08 -4.40029e-09 0 9.05075e-08 0 8.23724e-08)
(7.4549e-08 -4.53408e-09 0 9.03507e-08 0 8.24577e-08)
(7.50584e-08 -4.68582e-09 0 9.01235e-08 0 8.25978e-08)
(7.57701e-08 -4.85082e-09 0 8.98158e-08 0 8.28024e-08)
(7.6702e-08 -5.02411e-09 0 8.94418e-08 0 8.3083e-08)
(7.78718e-08 -5.20692e-09 0 8.90071e-08 0 8.34537e-08)
(7.92948e-08 -5.39105e-09 0 8.8526e-08 0 8.39285e-08)
(8.09743e-08 -5.57034e-09 0 8.80151e-08 0 8.45195e-08)
(8.29191e-08 -5.73761e-09 0 8.75053e-08 0 8.52405e-08)
(8.51128e-08 -5.88665e-09 0 8.70241e-08 0 8.60958e-08)
(8.75e-08 -6.00813e-09 0 8.65867e-08 0 8.7071e-08)
(9.00109e-08 -6.09432e-09 0 8.62164e-08 0 8.81414e-08)
(9.25478e-08 -6.14012e-09 0 8.59207e-08 0 8.92641e-08)
(9.49898e-08 -6.14128e-09 0 8.57072e-08 0 9.03812e-08)
(9.72177e-08 -6.09682e-09 0 8.55572e-08 0 9.14198e-08)
(9.90945e-08 -6.02208e-09 0 8.54681e-08 0 9.23183e-08)
(1.00606e-07 -5.9152e-09 0 8.5499e-08 0 9.30797e-08)
(1.01751e-07 -5.81362e-09 0 8.55331e-08 0 9.36365e-08)
(1.02375e-07 -5.66096e-09 0 8.56439e-08 0 9.40452e-08)
(1.02334e-07 -5.56098e-09 0 8.68262e-08 0 9.45405e-08)
(7.11636e-08 -3.6616e-09 0 7.95755e-08 0 7.53551e-08)
(7.06728e-08 -3.84999e-09 0 7.99834e-08 0 7.53061e-08)
(7.04477e-08 -4.02495e-09 0 8.03388e-08 0 7.53375e-08)
(7.05293e-08 -4.27395e-09 0 8.04467e-08 0 7.54211e-08)
(7.0785e-08 -4.54757e-09 0 8.04575e-08 0 7.55459e-08)
(7.12668e-08 -4.80908e-09 0 8.02697e-08 0 7.56925e-08)
(7.19424e-08 -5.03422e-09 0 7.99533e-08 0 7.58705e-08)
(7.2855e-08 -5.21356e-09 0 7.94724e-08 0 7.6088e-08)
(7.38529e-08 -5.31226e-09 0 7.89617e-08 0 7.63323e-08)
(7.50071e-08 -5.35523e-09 0 7.83808e-08 0 7.66176e-08)
(7.61436e-08 -5.34233e-09 0 7.78138e-08 0 7.69142e-08)
(7.73234e-08 -5.27671e-09 0 7.73155e-08 0 7.7245e-08)
(7.84556e-08 -5.17314e-09 0 7.68105e-08 0 7.75754e-08)
(7.94678e-08 -5.04371e-09 0 7.64847e-08 0 7.78956e-08)
(8.03955e-08 -4.91628e-09 0 7.61243e-08 0 7.82031e-08)
(8.11125e-08 -4.78537e-09 0 7.5974e-08 0 7.84601e-08)
(8.17643e-08 -4.66795e-09 0 7.57558e-08 0 7.87081e-08)
(8.21333e-08 -4.53192e-09 0 7.57654e-08 0 7.88711e-08)
(8.23489e-08 -4.42247e-09 0 7.57433e-08 0 7.89956e-08)
(8.22236e-08 -4.27061e-09 0 7.58899e-08 0 7.89771e-08)
(8.18164e-08 -4.13764e-09 0 7.59533e-08 0 7.88341e-08)
(8.10301e-08 -3.99822e-09 0 7.61898e-08 0 7.85363e-08)
(8.01399e-08 -3.89899e-09 0 7.63171e-08 0 7.81885e-08)
(7.90149e-08 -3.76128e-09 0 7.66516e-08 0 7.77724e-08)
(7.78936e-08 -3.72128e-09 0 7.69209e-08 0 7.73674e-08)
(7.67919e-08 -3.68443e-09 0 7.73139e-08 0 7.70005e-08)
(7.58383e-08 -3.6663e-09 0 7.76042e-08 0 7.66894e-08)
(7.49221e-08 -3.70019e-09 0 7.80401e-08 0 7.64356e-08)
(7.42893e-08 -3.78392e-09 0 7.83124e-08 0 7.62699e-08)
(7.37739e-08 -3.88766e-09 0 7.86546e-08 0 7.61719e-08)
(7.35178e-08 -4.05394e-09 0 7.88644e-08 0 7.61542e-08)
(7.34432e-08 -4.23221e-09 0 7.90491e-08 0 7.62022e-08)
(7.35728e-08 -4.44108e-09 0 7.90946e-08 0 7.62909e-08)
(7.38784e-08 -4.66754e-09 0 7.90681e-08 0 7.64235e-08)
(7.44546e-08 -4.90977e-09 0 7.88534e-08 0 7.66089e-08)
(7.52042e-08 -5.13365e-09 0 7.85798e-08 0 7.68442e-08)
(7.62071e-08 -5.33837e-09 0 7.81834e-08 0 7.71468e-08)
(7.74312e-08 -5.48614e-09 0 7.76974e-08 0 7.7517e-08)
(7.87627e-08 -5.56533e-09 0 7.72158e-08 0 7.79387e-08)
(8.01776e-08 -5.57519e-09 0 7.67257e-08 0 7.84028e-08)
(8.15465e-08 -5.51399e-09 0 7.62979e-08 0 7.88719e-08)
(8.27897e-08 -5.37848e-09 0 7.59329e-08 0 7.93149e-08)
(8.38264e-08 -5.20315e-09 0 7.56327e-08 0 7.96883e-08)
(8.44963e-08 -4.9628e-09 0 7.54786e-08 0 7.99463e-08)
(8.48649e-08 -4.65623e-09 0 7.53435e-08 0 8.00766e-08)
(8.46456e-08 -4.37872e-09 0 7.53651e-08 0 7.99639e-08)
(8.41224e-08 -4.00394e-09 0 7.52354e-08 0 7.96722e-08)
(8.28894e-08 -3.72879e-09 0 7.54004e-08 0 7.91041e-08)
(8.17115e-08 -3.4073e-09 0 7.53278e-08 0 7.8524e-08)
(8.0006e-08 -3.15228e-09 0 7.56066e-08 0 7.77739e-08)
(7.84992e-08 -2.91256e-09 0 7.5699e-08 0 7.70939e-08)
(7.68091e-08 -2.73126e-09 0 7.60217e-08 0 7.63943e-08)
(7.51512e-08 -2.61339e-09 0 7.64034e-08 0 7.57651e-08)
(7.36463e-08 -2.51444e-09 0 7.68298e-08 0 7.52263e-08)
(7.22384e-08 -2.47255e-09 0 7.7341e-08 0 7.47771e-08)
(7.09956e-08 -2.47599e-09 0 7.78843e-08 0 7.44236e-08)
(6.99217e-08 -2.5075e-09 0 7.84307e-08 0 7.41558e-08)
(6.90126e-08 -2.56363e-09 0 7.89585e-08 0 7.39601e-08)
(6.82428e-08 -2.65196e-09 0 7.94619e-08 0 7.38204e-08)
(6.76155e-08 -2.73123e-09 0 7.99016e-08 0 7.37261e-08)
(6.71156e-08 -2.83369e-09 0 8.02877e-08 0 7.36646e-08)
(6.67139e-08 -2.93556e-09 0 8.06161e-08 0 7.36284e-08)
(6.64401e-08 -3.04257e-09 0 8.08592e-08 0 7.36109e-08)
(6.62399e-08 -3.16318e-09 0 8.10585e-08 0 7.36083e-08)
(6.61683e-08 -3.28557e-09 0 8.11457e-08 0 7.36155e-08)
(6.61755e-08 -3.40961e-09 0 8.11499e-08 0 7.36207e-08)
(6.62967e-08 -3.55483e-09 0 8.10273e-08 0 7.36198e-08)
(6.65045e-08 -3.69516e-09 0 8.08032e-08 0 7.36124e-08)
(6.6846e-08 -3.85196e-09 0 8.04365e-08 0 7.36004e-08)
(6.7285e-08 -4.0023e-09 0 7.9966e-08 0 7.35863e-08)
(6.78629e-08 -4.14828e-09 0 7.93623e-08 0 7.35748e-08)
(6.86061e-08 -4.29344e-09 0 7.86071e-08 0 7.35712e-08)
(6.94973e-08 -4.41694e-09 0 7.77345e-08 0 7.35837e-08)
(7.05236e-08 -4.51178e-09 0 7.67725e-08 0 7.36205e-08)
(7.1694e-08 -4.57099e-09 0 7.57472e-08 0 7.36949e-08)
(7.29952e-08 -4.58544e-09 0 7.46854e-08 0 7.38136e-08)
(7.43847e-08 -4.54962e-09 0 7.36253e-08 0 7.39771e-08)
(7.58196e-08 -4.46057e-09 0 7.26047e-08 0 7.4183e-08)
(7.72385e-08 -4.32253e-09 0 7.166e-08 0 7.44207e-08)
(7.8585e-08 -4.13404e-09 0 7.08183e-08 0 7.46745e-08)
(7.97931e-08 -3.91842e-09 0 7.01059e-08 0 7.49226e-08)
(8.07851e-08 -3.68186e-09 0 6.95502e-08 0 7.5142e-08)
(8.15344e-08 -3.43094e-09 0 6.91396e-08 0 7.53154e-08)
(8.19765e-08 -3.20556e-09 0 6.88885e-08 0 7.5419e-08)
(8.21419e-08 -3.10139e-09 0 6.87974e-08 0 7.54739e-08)
(8.18838e-08 -2.8782e-09 0 6.86778e-08 0 7.54093e-08)
(6.80692e-08 -3.73187e-09 0 7.64047e-08 0 7.21958e-08)
(6.7627e-08 -3.96461e-09 0 7.69576e-08 0 7.22422e-08)
(6.74516e-08 -4.16459e-09 0 7.72993e-08 0 7.22998e-08)
(6.74936e-08 -4.4857e-09 0 7.73854e-08 0 7.23548e-08)
(6.76765e-08 -4.80822e-09 0 7.73113e-08 0 7.24054e-08)
(6.80643e-08 -5.12681e-09 0 7.70057e-08 0 7.24475e-08)
(6.8601e-08 -5.37198e-09 0 7.65488e-08 0 7.2486e-08)
(6.93405e-08 -5.56416e-09 0 7.58768e-08 0 7.25239e-08)
(7.01491e-08 -5.63255e-09 0 7.5144e-08 0 7.25627e-08)
(7.10399e-08 -5.64297e-09 0 7.43592e-08 0 7.26187e-08)
(7.19417e-08 -5.56381e-09 0 7.35429e-08 0 7.26717e-08)
(7.28277e-08 -5.44249e-09 0 7.28342e-08 0 7.27582e-08)
(7.37049e-08 -5.25564e-09 0 7.20825e-08 0 7.2835e-08)
(7.44218e-08 -5.06055e-09 0 7.15944e-08 0 7.29362e-08)
(7.51314e-08 -4.86416e-09 0 7.10069e-08 0 7.30195e-08)
(7.56132e-08 -4.67829e-09 0 7.07473e-08 0 7.3112e-08)
(7.60823e-08 -4.5139e-09 0 7.03624e-08 0 7.31825e-08)
(7.62875e-08 -4.31417e-09 0 7.03293e-08 0 7.32461e-08)
(7.64305e-08 -4.1648e-09 0 7.01798e-08 0 7.32723e-08)
(7.63056e-08 -3.97646e-09 0 7.03519e-08 0 7.32741e-08)
(7.60327e-08 -3.83e-09 0 7.04368e-08 0 7.32087e-08)
(7.54758e-08 -3.68917e-09 0 7.08266e-08 0 7.31135e-08)
(7.48679e-08 -3.60709e-09 0 7.1113e-08 0 7.29838e-08)
(7.40612e-08 -3.48123e-09 0 7.17054e-08 0 7.28625e-08)
(7.32774e-08 -3.47962e-09 0 7.21987e-08 0 7.27401e-08)
(7.24805e-08 -3.45229e-09 0 7.28284e-08 0 7.26519e-08)
(7.18026e-08 -3.50212e-09 0 7.33167e-08 0 7.25793e-08)
(7.11075e-08 -3.52502e-09 0 7.39757e-08 0 7.25475e-08)
(7.06329e-08 -3.70881e-09 0 7.43949e-08 0 7.25356e-08)
(7.02281e-08 -3.80038e-09 0 7.48507e-08 0 7.25497e-08)
(7.00183e-08 -4.03085e-09 0 7.51162e-08 0 7.25817e-08)
(6.99343e-08 -4.23091e-09 0 7.53049e-08 0 7.26272e-08)
(7.00056e-08 -4.48736e-09 0 7.53322e-08 0 7.26762e-08)
(7.02243e-08 -4.73159e-09 0 7.52362e-08 0 7.27308e-08)
(7.06432e-08 -5.02211e-09 0 7.49297e-08 0 7.27911e-08)
(7.1217e-08 -5.25129e-09 0 7.44967e-08 0 7.28587e-08)
(7.19944e-08 -5.45298e-09 0 7.38841e-08 0 7.2941e-08)
(7.29219e-08 -5.5861e-09 0 7.31503e-08 0 7.30407e-08)
(7.39258e-08 -5.61658e-09 0 7.23796e-08 0 7.31567e-08)
(7.49764e-08 -5.57052e-09 0 7.15832e-08 0 7.32892e-08)
(7.59641e-08 -5.43763e-09 0 7.08708e-08 0 7.3428e-08)
(7.68511e-08 -5.22288e-09 0 7.02387e-08 0 7.356e-08)
(7.75746e-08 -4.95885e-09 0 6.97343e-08 0 7.36727e-08)
(7.80377e-08 -4.63728e-09 0 6.94146e-08 0 7.37428e-08)
(7.82778e-08 -4.29787e-09 0 6.91985e-08 0 7.3766e-08)
(7.81383e-08 -3.91471e-09 0 6.92514e-08 0 7.37074e-08)
(7.77449e-08 -3.53678e-09 0 6.9321e-08 0 7.3575e-08)
(7.70002e-08 -3.19499e-09 0 6.97419e-08 0 7.33825e-08)
(7.61903e-08 -2.92654e-09 0 7.00439e-08 0 7.3166e-08)
(7.51551e-08 -2.64876e-09 0 7.07057e-08 0 7.2947e-08)
(7.40972e-08 -2.48518e-09 0 7.12864e-08 0 7.27322e-08)
(7.29693e-08 -2.3006e-09 0 7.2098e-08 0 7.25569e-08)
(7.1842e-08 -2.23426e-09 0 7.29204e-08 0 7.24113e-08)
(7.07972e-08 -2.19016e-09 0 7.37751e-08 0 7.23151e-08)
(6.98069e-08 -2.18661e-09 0 7.46687e-08 0 7.2263e-08)
(6.88981e-08 -2.24282e-09 0 7.55632e-08 0 7.22502e-08)
(6.80882e-08 -2.33536e-09 0 7.64175e-08 0 7.22681e-08)
(6.74047e-08 -2.44617e-09 0 7.71939e-08 0 7.23084e-08)
(6.68486e-08 -2.56592e-09 0 7.78719e-08 0 7.2361e-08)
(6.63371e-08 -2.72291e-09 0 7.85015e-08 0 7.24188e-08)
(6.59694e-08 -2.84206e-09 0 7.90012e-08 0 7.24772e-08)
(6.5651e-08 -3.00382e-09 0 7.94289e-08 0 7.2531e-08)
(6.54346e-08 -3.14084e-09 0 7.97468e-08 0 7.25781e-08)
(6.52901e-08 -3.29497e-09 0 7.99737e-08 0 7.26172e-08)
(6.5228e-08 -3.45322e-09 0 8.00957e-08 0 7.26456e-08)
(6.52446e-08 -3.61064e-09 0 8.01154e-08 0 7.26619e-08)
(6.53606e-08 -3.78916e-09 0 8.00116e-08 0 7.26649e-08)
(6.55653e-08 -3.9699e-09 0 7.97803e-08 0 7.2651e-08)
(6.58785e-08 -4.16457e-09 0 7.9417e-08 0 7.26249e-08)
(6.63005e-08 -4.35766e-09 0 7.89077e-08 0 7.2583e-08)
(6.68502e-08 -4.53924e-09 0 7.82542e-08 0 7.25314e-08)
(6.7527e-08 -4.71375e-09 0 7.74566e-08 0 7.24735e-08)
(6.8339e-08 -4.85805e-09 0 7.65195e-08 0 7.2414e-08)
(6.92722e-08 -4.96505e-09 0 7.54673e-08 0 7.236e-08)
(7.03331e-08 -5.02453e-09 0 7.43308e-08 0 7.23243e-08)
(7.15136e-08 -5.01881e-09 0 7.31272e-08 0 7.23123e-08)
(7.27447e-08 -4.94538e-09 0 7.19264e-08 0 7.23272e-08)
(7.40087e-08 -4.79706e-09 0 7.07476e-08 0 7.23697e-08)
(7.52498e-08 -4.58046e-09 0 6.9634e-08 0 7.24356e-08)
(7.64064e-08 -4.30195e-09 0 6.86392e-08 0 7.25188e-08)
(7.7435e-08 -3.9747e-09 0 6.779e-08 0 7.2609e-08)
(7.82534e-08 -3.64662e-09 0 6.71302e-08 0 7.26911e-08)
(7.88919e-08 -3.29432e-09 0 6.66336e-08 0 7.27608e-08)
(7.9264e-08 -2.93679e-09 0 6.63355e-08 0 7.27977e-08)
(7.93171e-08 -2.71627e-09 0 6.62732e-08 0 7.27975e-08)
(7.89229e-08 -2.3436e-09 0 6.66333e-08 0 7.27561e-08)
(6.73579e-08 -4.08078e-09 0 7.59678e-08 0 7.16156e-08)
(6.69682e-08 -4.34063e-09 0 7.65348e-08 0 7.16925e-08)
(6.67876e-08 -4.58863e-09 0 7.68941e-08 0 7.17622e-08)
(6.68203e-08 -5.00142e-09 0 7.69951e-08 0 7.18214e-08)
(6.69803e-08 -5.39203e-09 0 7.694e-08 0 7.1869e-08)
(6.7349e-08 -5.78039e-09 0 7.66312e-08 0 7.18972e-08)
(6.78632e-08 -6.06868e-09 0 7.61465e-08 0 7.1909e-08)
(6.86556e-08 -6.31604e-09 0 7.53387e-08 0 7.19033e-08)
(6.93875e-08 -6.38919e-09 0 7.45786e-08 0 7.18902e-08)
(7.02926e-08 -6.37863e-09 0 7.36492e-08 0 7.18785e-08)
(7.11174e-08 -6.27028e-09 0 7.27644e-08 0 7.18602e-08)
(7.19434e-08 -6.10109e-09 0 7.19678e-08 0 7.18694e-08)
(7.27472e-08 -5.82913e-09 0 7.11268e-08 0 7.1865e-08)
(7.34052e-08 -5.58198e-09 0 7.05724e-08 0 7.19022e-08)
(7.40274e-08 -5.29852e-09 0 6.99452e-08 0 7.19168e-08)
(7.44665e-08 -5.04658e-09 0 6.9639e-08 0 7.19658e-08)
(7.48566e-08 -4.8109e-09 0 6.92398e-08 0 7.19838e-08)
(7.50398e-08 -4.56355e-09 0 6.91672e-08 0 7.20219e-08)
(7.51377e-08 -4.371e-09 0 6.90314e-08 0 7.20241e-08)
(7.50377e-08 -4.15715e-09 0 6.9202e-08 0 7.20392e-08)
(7.47875e-08 -3.99327e-09 0 6.93212e-08 0 7.1998e-08)
(7.43114e-08 -3.84653e-09 0 6.97822e-08 0 7.19739e-08)
(7.37753e-08 -3.7675e-09 0 7.01332e-08 0 7.19093e-08)
(7.30781e-08 -3.62861e-09 0 7.07809e-08 0 7.18735e-08)
(7.23448e-08 -3.68421e-09 0 7.13919e-08 0 7.18345e-08)
(7.17009e-08 -3.6216e-09 0 7.20418e-08 0 7.18307e-08)
(7.10189e-08 -3.7339e-09 0 7.26653e-08 0 7.18241e-08)
(7.04181e-08 -3.74345e-09 0 7.33576e-08 0 7.18568e-08)
(6.99403e-08 -4.01464e-09 0 7.38815e-08 0 7.1893e-08)
(6.95888e-08 -4.08648e-09 0 7.43464e-08 0 7.19389e-08)
(6.93663e-08 -4.38968e-09 0 7.46649e-08 0 7.19896e-08)
(6.92781e-08 -4.60741e-09 0 7.48611e-08 0 7.20377e-08)
(6.93175e-08 -4.9326e-09 0 7.49157e-08 0 7.2085e-08)
(6.95245e-08 -5.19136e-09 0 7.48059e-08 0 7.2127e-08)
(6.99065e-08 -5.55654e-09 0 7.44955e-08 0 7.21666e-08)
(7.04529e-08 -5.80734e-09 0 7.40175e-08 0 7.21981e-08)
(7.12123e-08 -6.01391e-09 0 7.33217e-08 0 7.22284e-08)
(7.20938e-08 -6.14572e-09 0 7.2503e-08 0 7.22608e-08)
(7.30559e-08 -6.11064e-09 0 7.16158e-08 0 7.22951e-08)
(7.40404e-08 -5.99686e-09 0 7.07067e-08 0 7.23354e-08)
(7.49604e-08 -5.74868e-09 0 6.98742e-08 0 7.23784e-08)
(7.57702e-08 -5.43e-09 0 6.91307e-08 0 7.24168e-08)
(7.64034e-08 -5.05426e-09 0 6.85503e-08 0 7.24471e-08)
(7.68442e-08 -4.60691e-09 0 6.81424e-08 0 7.24625e-08)
(7.69916e-08 -4.21198e-09 0 6.79211e-08 0 7.24418e-08)
(7.69379e-08 -3.67095e-09 0 6.79416e-08 0 7.24075e-08)
(7.65175e-08 -3.29874e-09 0 6.80977e-08 0 7.23072e-08)
(7.59873e-08 -2.88706e-09 0 6.85519e-08 0 7.22382e-08)
(7.5166e-08 -2.6239e-09 0 6.90245e-08 0 7.21038e-08)
(7.43907e-08 -2.30046e-09 0 6.97457e-08 0 7.20418e-08)
(7.3331e-08 -2.16576e-09 0 7.05336e-08 0 7.19344e-08)
(7.23897e-08 -1.96534e-09 0 7.14386e-08 0 7.1897e-08)
(7.13463e-08 -1.93888e-09 0 7.23997e-08 0 7.18637e-08)
(7.0359e-08 -1.93468e-09 0 7.33886e-08 0 7.18661e-08)
(6.94274e-08 -1.97e-09 0 7.43964e-08 0 7.19009e-08)
(6.85892e-08 -2.07664e-09 0 7.53623e-08 0 7.19603e-08)
(6.78252e-08 -2.22897e-09 0 7.62823e-08 0 7.20358e-08)
(6.71778e-08 -2.39173e-09 0 7.71122e-08 0 7.21218e-08)
(6.66571e-08 -2.56008e-09 0 7.78213e-08 0 7.22086e-08)
(6.61606e-08 -2.78827e-09 0 7.84803e-08 0 7.22934e-08)
(6.58098e-08 -2.94099e-09 0 7.90027e-08 0 7.2372e-08)
(6.55067e-08 -3.15166e-09 0 7.94408e-08 0 7.24412e-08)
(6.52962e-08 -3.31664e-09 0 7.97727e-08 0 7.24995e-08)
(6.51612e-08 -3.50331e-09 0 8.00044e-08 0 7.25465e-08)
(6.50997e-08 -3.69719e-09 0 8.01337e-08 0 7.25803e-08)
(6.51168e-08 -3.88573e-09 0 8.01579e-08 0 7.26e-08)
(6.52305e-08 -4.09902e-09 0 8.0059e-08 0 7.26059e-08)
(6.54352e-08 -4.31673e-09 0 7.98283e-08 0 7.25937e-08)
(6.57408e-08 -4.55238e-09 0 7.94767e-08 0 7.25703e-08)
(6.61664e-08 -4.7851e-09 0 7.89646e-08 0 7.25285e-08)
(6.67146e-08 -5.00463e-09 0 7.83084e-08 0 7.24754e-08)
(6.73909e-08 -5.21684e-09 0 7.75052e-08 0 7.2414e-08)
(6.82072e-08 -5.39721e-09 0 7.65507e-08 0 7.23479e-08)
(6.91456e-08 -5.53444e-09 0 7.54735e-08 0 7.22836e-08)
(7.02096e-08 -5.61529e-09 0 7.4307e-08 0 7.22339e-08)
(7.13973e-08 -5.62361e-09 0 7.30583e-08 0 7.2203e-08)
(7.26271e-08 -5.55253e-09 0 7.18152e-08 0 7.21954e-08)
(7.38758e-08 -5.39602e-09 0 7.05975e-08 0 7.22103e-08)
(7.5119e-08 -5.14804e-09 0 6.94192e-08 0 7.22444e-08)
(7.62679e-08 -4.82871e-09 0 6.83632e-08 0 7.22933e-08)
(7.72746e-08 -4.44482e-09 0 6.74637e-08 0 7.23484e-08)
(7.80715e-08 -4.04446e-09 0 6.67587e-08 0 7.23973e-08)
(7.86652e-08 -3.5948e-09 0 6.62399e-08 0 7.24348e-08)
(7.89831e-08 -3.17189e-09 0 6.59462e-08 0 7.24486e-08)
(7.9026e-08 -2.79607e-09 0 6.58845e-08 0 7.24355e-08)
(7.8655e-08 -2.32566e-09 0 6.60498e-08 0 7.23536e-08)
(6.70953e-08 -4.49616e-09 0 7.60378e-08 0 7.15106e-08)
(6.67133e-08 -4.76667e-09 0 7.66279e-08 0 7.16033e-08)
(6.65562e-08 -5.06344e-09 0 7.6992e-08 0 7.16875e-08)
(6.65666e-08 -5.56262e-09 0 7.71486e-08 0 7.17643e-08)
(6.67012e-08 -6.0301e-09 0 7.71508e-08 0 7.18272e-08)
(6.70982e-08 -6.50052e-09 0 7.68298e-08 0 7.18631e-08)
(6.76639e-08 -6.84741e-09 0 7.63007e-08 0 7.18767e-08)
(6.84516e-08 -7.15713e-09 0 7.54906e-08 0 7.18683e-08)
(6.92559e-08 -7.24975e-09 0 7.46407e-08 0 7.1844e-08)
(7.01755e-08 -7.27312e-09 0 7.36587e-08 0 7.18151e-08)
(7.09998e-08 -7.15863e-09 0 7.27424e-08 0 7.17789e-08)
(7.18634e-08 -6.97665e-09 0 7.18332e-08 0 7.17564e-08)
(7.26489e-08 -6.67996e-09 0 7.09546e-08 0 7.17243e-08)
(7.3267e-08 -6.38944e-09 0 7.03654e-08 0 7.1728e-08)
(7.38501e-08 -6.10839e-09 0 6.97215e-08 0 7.17156e-08)
(7.42569e-08 -5.81464e-09 0 6.93805e-08 0 7.17361e-08)
(7.4612e-08 -5.57272e-09 0 6.89739e-08 0 7.17334e-08)
(7.47585e-08 -5.26586e-09 0 6.88985e-08 0 7.17528e-08)