/*--------------------------------*- C++ -*----------------------------------*\
| =========                 |                                                 |
| \\      /  F ield         | OpenFOAM: The Open Source CFD Toolbox           |
|  \\    /   O peration     | Version:  v1912                                 |
|   \\  /    A nd           | Website:  www.openfoam.com                      |
|    \\/     M anipulation  |                                                 |
\*---------------------------------------------------------------------------*/
FoamFile
{
    version     2.0;
    format      ascii;
    class       volScalarField;
    location    "60";
    object      p;
}
// * * * * * * * * * * * * * * * * * * * * * * * * * * * * * * * * * * * * * //

dimensions      [1 -1 -2 0 0 0 0];


internalField   nonuniform List<scalar> 
14268
(
87304.2
87190.3
87153.6
87195.7
87317.6
87519.5
87801.2
88161.1
88596.3
89101.9
89671.9
90298.3
90971.7
91678.7
92453.7
93210.8
93953.2
94670.3
95343.7
95955.3
96487.3
96922.4
97245.8
97443.6
97500.8
97405.3
97147.6
96719.5
96109
95334.7
94388.3
93267.9
91980.7
90537.5
88950.7
87239.6
85429.2
83544.7
81613.5
79660.7
77714
75804.7
73954.5
72181.7
70502.1
68926.7
67462.5
66114.1
64881.9
63763.3
62753.4
61845.8
61033.2
60307.5
59661
59085.4
58573.6
58121.3
57715.4
57352.9
57028.6
56737.7
56476.3
56240.6
56027.6
55834.8
55659.8
55500.8
55356.2
55224.7
55105.3
54997.4
54900.5
54814.4
54739
54674.9
54622.8
54583.4
54558.2
54548.7
54557
54585.5
54637.2
54715.5
54824.3
54967.8
55150.8
55378.3
55654.6
55984.6
56382.2
56845
57373.6
57971.7
58637.4
59364.4
60143.1
60955.8
61781.8
62592
63353
64027.6
64580.1
64974.3
65168
65120.9
64790.9
64113.1
63150
61842.6
60161.9
58122.2
55755.7
53155.1
50457.1
47788.2
45262.1
42965.7
40950.6
39228.6
37788.5
36604.4
35640.5
34860.4
34228.8
33716.4
33291
32934.9
32632.3
32370
32137.2
31926.2
31730.4
31546.2
82570.6
82492.6
82492
82570.2
82728.3
82966.5
83284.6
83681.1
84152.9
84695.2
85302
85965.3
86675.3
87413.8
88238.7
89026.9
89805.9
90559.9
91270.1
91918.2
92486.3
92957.1
93315.7
93548.2
93639.3
93577
93351.9
92956.3
92376.7
91633.1
90716.8
89625.8
88367.8
86953.4
85395.3
83713.1
81931.9
80077.2
78176.5
76255.2
74341.1
72465.4
70649.7
68912.3
67268.8
65730
64302.9
62991.8
61797.1
60716
59743.5
58873.2
58097.6
57408.7
56798.3
56259.5
55784.1
55367.7
54997.6
54670.8
54381.9
54126.4
53900.2
53699.6
53521.7
53363.8
53223.7
53099.5
52989.7
52893
52808.4
52735.2
52673
52621.5
52580.9
52551.5
52534
52529.3
52538.8
52563.9
52606.8
52670
52756.4
52869.4
53012.8
53191
53408.8
53671
53982.2
54346.9
54779.4
55277.2
55840.7
56473.8
57174.5
57936.5
58750.3
59597.9
60458.8
61303.8
62099.4
62808.4
63395.2
63823.5
64051.1
64038.4
63740.9
63095.7
62165.5
60890.5
59242.1
57234.8
54901.1
52333.9
49670.1
47036.2
44545.8
42285.3
40306.2
38620.2
37215.9
36067.5
35139
34394.1
33797.6
33320.2
32929.5
32608.1
32340.1
32112.5
31914.2
31737.7
31576.5
31426.6
77819.4
77777
77812
77926.1
78120.2
78394.6
78749.2
79182.4
79691.4
80271.3
80916
81617.6
82366.4
83146
84006.8
84836.6
85655.7
86449.9
87200.3
87888.4
88496.2
89006
89402.9
89672.8
89800.2
89773
89581.4
89217
88668.2
87953.9
87065.8
86001.7
84769.6
83380.4
81847.1
80189.8
78433.9
76605.4
74732.1
72839.3
70955.7
69112.1
67330
65627.5
64020.1
62518.4
61129.1
59856.2
58700
57657.5
56723.6
55891.6
55154.1
54503.1
53930.9
53428.7
52990.4
52610.5
52276.7
51985.9
51732.9
51513.1
51322.4
51157.2
51014.5
50891.8
50786.7
50697.5
50622.6
50560.7
50510.9
50472.5
50445
50428.2
50422.2
50427.4
50444.5
50474.5
50518.5
50578.2
50655.7
50753.4
50874.3
51021.9
51199.9
51412.6
51664.9
51961.8
52307.5
52707.1
53174.3
53706.9
54305.3
54973.4
55709.2
56506.4
57355.5
58238.5
59134.7
60015.1
60846
61590.2
62211.9
62674.8
62936.7
62956.3
62693.3
62081.3
61183.9
59941.3
58324.8
56349.1
54047.2
51512.4
48882.1
46282.6
43827.5
41603
39660.2
38010.6
36642.4
35529.9
34637.1
33927.5
33366.2
32923.7
32567.9
32281.3
32048
31855
31691.2
31549.3
31422.5
31307
73050.7
73043.4
73113.7
73263.2
73493.2
73803.7
74194.8
74665.2
75211.8
75829.9
76513.7
77255.1
78044.6
78867.4
79765.6
80640
81502.5
82340.3
83134.4
83866.1
84517
85069.2
85507.7
85817.8
85983.8
85993.3
85836.4
85504.4
84985.5
84299.5
83437.5
82397.5
81187.9
79820.1
78307.5
76671
74936.6
73130.6
71281.3
69414.1
67558.8
65745.6
63995.9
62327.7
60756.4
59292.1
57941.1
56707.4
55590.7
54587.9
53693.6
52901.1
52202.8
51590.5
51056
50592.3
50192.2
49849.4
49552.4
49298.1
49081.4
48897.5
48742.6
48613.1
48505.8
48418.4
48348.5
48294.4
48254.5
48227.6
48212.6
48208.9
48216.2
48234.1
48262.7
48302.6
48354.3
48418.7
48497.3
48591.4
48703.4
48835.6
48990.9
49172.9
49385.3
49632.5
49919.3
50250.6
50630.8
51064.9
51566.8
52134.1
52767.5
53470.6
54241.6
55074.1
55958.9
56877.6
57809.7
58726.1
59592.9
60372.9
61030.4
61528.7
61825.6
61881.7
61651
61071.8
60206.9
58996
57410.4
55465.2
53193.8
50690.3
48092.6
45527.1
43107.2
40918.9
39012.7
37399.7
36068
34991.7
34134.6
33460.6
32934.5
32527.1
32206.2
31954.4
31755.8
31597.4
31468.3
31360.8
31268.5
31187.5
68264.1
68291.5
68396.7
68581.5
68847
69193.7
69621.4
70129.1
70713.8
71371.1
72094.9
72877.5
73709.4
74576.6
75516.2
76437.2
77346.3
78231.1
79072.4
79851.2
80548.8
81147
81630.1
81983.2
82190.2
82238.2
82117.1
81818.1
81328.8
80669.9
79832.3
78813.9
77623.6
76273.4
74777.5
73157.6
71440.4
69653.2
67824.3
65979.4
64150.2
62365.6
60647.3
59013
57477.7
56051.1
54739.2
53545.5
52469.3
51507.3
50653.9
49902
49243.9
48671.4
48176.5
47751.1
47390
47084.6
46824.9
46607.7
46427.5
46280
46161.2
46067.4
45995.8
45943.8
45909.2
45890.3
45885.4
45893.5
45913.4
45944.6
45986.6
46039.2
46102.5
46176.9
46263.1
46362.1
46475.1
46603.7
46750
46916.6
47106.3
47322.6
47569.3
47850.8
48171.8
48537.4
48952
49420.5
49957
50558.9
51227.1
51965.2
52771.5
53639.7
54560.4
55515.2
56483.7
57436.6
58340
59156.6
59850.4
60384.6
60717
60806.1
60610.7
60064.2
59231.5
58051.7
56496.3
54580.8
52339.3
49866.6
47301.1
44769.6
42385
40233
38363.7
36787.6
35492.6
34452.7
33631.8
32993.4
32502.7
32130.4
31844.4
31627.4
31463.5
31339.8
31245.3
31172.3
31114.5
31067.9
63459.7
63521.4
63661.1
63880.8
64181.6
64564.2
65028.6
65573.9
66197.2
66894.3
67659.3
68484.5
69360.4
70273.3
71258.5
72228.3
73187
74122.1
75014.2
75843.8
76591.8
77239.3
77770.3
78169.4
78419.7
78508
78423.8
78157.9
77697.7
77064.9
76249.7
75250.3
74076
72739.8
71256.5
69648.8
67944.8
66172.4
64360.6
62534.7
60729.2
58971.9
57283.8
55682.9
54183.6
52795.1
51523
50370.3
49335.8
48415.7
47604.2
46894
46277.1
45745.3
45290.3
44904.4
44583.5
44316.1
44094.2
43914.4
43771.3
43660.4
43577.9
43520.2
43484.4
43468
43468.9
43485.2
43515.5
43558.6
43613.5
43679.5
43756.2
43843.5
43941.5
44050.4
44171.2
44304.7
44452.1
44615
44795.6
44996.4
45220.4
45470.8
45751.7
46067.3
46422.5
46822.3
47271
47773.9
48344.7
48981.2
49684.2
50457.4
51299.2
52203.1
53160
54151.3
55156.8
56146.8
57087.5
57941.3
58672.1
59243.1
59611.6
59737.2
59575
59061.2
58260.4
57111.4
55585.4
53698.6
51485.6
49042.4
46508.4
44010.3
41660.9
39545.4
37713.1
36174.2
34916.3
33913.1
33128.3
32525.8
32070.6
31733.5
31482.6
31300.4
31171.2
31082.2
31022.2
30983.9
30960.5
30948.3
58637.2
58732.7
58906.6
59160.8
59496.8
59915.1
60416.2
60999.3
61661.7
62399.3
63206.5
64075.6
64997
65957.1
66992
68012.8
69024.2
70013
70959.5
71843.7
72645.8
73346.2
73928.5
74376.4
74672.5
74803
74756.7
74524.2
74092.5
73484.6
72689.9
71706.7
70545.1
69218.8
67743.8
66144.2
64449.2
62687.8
60889.6
59079.2
57295.4
55563.7
53905
52337
50873.8
49524.1
48292.5
47181.7
46190
45313.1
44544.7
43877.3
43302.8
42812.6
42398.6
42052.5
41773.1
41543.9
41360.4
41218.4
41112.7
41038.8
40992.9
40971.4
40971.6
40991
41027.4
41079.1
41144.6
41222.8
41312.7
41413.6
41525.2
41647.2
41779.7
41923.2
42078.5
42246.4
42428.1
42625.3
42840.2
43075.1
43333.1
43617.7
43932.5
44282.2
44671.3
45105.2
45587.9
46125
46730.1
47401.1
48138.8
48947.1
49824.4
50764.3
51757.7
52785.8
53828.9
54856.6
55835.2
56726.9
57495.5
58103.8
58508.9
58670.2
58542.6
58061.5
57292.5
56173.8
54676.6
52817.4
50632
48217.5
45714.2
43249.2
40934.9
38856
37061
35559.6
34339.1
33372.8
32624.4
32057.9
31638.3
31336.5
31120.6
30973.3
30878.9
30824.6
30799.2
30795.4
30806.6
30828.7
53796.6
53925.5
54133.1
54421.4
54792.2
55246.1
55783.8
56405
57106.8
57885.7
58736.1
59650.4
60618.7
61627.5
62716.3
63790.3
64857.4
65903.6
66908.2
67850.8
68710.7
69467.7
70104.7
70604.5
70948.9
71123.4
71116.3
70917.6
70513.7
69929.5
69153.3
68183.4
67030.8
65710.5
64239.5
62643.3
60952.9
59198.6
57411
55612
53848.1
52140.5
50510.3
48975
47548.1
46237.6
45047.5
43979.7
43031.9
42199.4
41475.3
40851.9
40320.8
39873.3
39501
39195.2
38959
38768
38623.4
38519.7
38451.7
38415.1
38406.1
38421.1
38457.5
38512.7
38584.8
38671.9
38772.8
38886.2
39011.1
39147
39293.3
39450
39617.1
39795.2
39984.9
40187.2
40403.2
40634.6
40883.6
41152.6
41444.7
41763.1
42111.9
42495.4
42918.4
43386.1
43902.6
44473.8
45113.1
45818.4
46590.9
47434.4
48347.2
49323.2
50353.5
51418.9
52499.9
53566
54583.2
55513.5
56320.6
56966.8
57409.2
57606.7
57513.8
57065.3
56327.8
55238.9
53769.6
51937.3
49778.4
47391.8
44918.6
42486.3
40207
38164.9
36407.4
34943.8
33760.9
32831.8
32120.1
31589.6
31205.7
30939.3
30758.5
30646.2
30586.6
30566.9
30576.2
30606.9
30652.6
30709.1
48937.8
49099.5
49340.3
49662.4
50067.6
50556.8
51131.1
51790.4
52531.9
53352.7
54247.5
55208.3
56224.9
57283.8
58430.9
59560.1
60686.2
61793.2
62859.9
63864.8
64786.5
65603.9
66299
66853.9
67249.2
67469.7
67502.9
67338.2
66961.6
66399.9
65639.9
64680.3
63533.2
62214.5
60742.9
59145.7
57455.4
55704.3
53924.2
52132.2
50386.4
48701.8
47099.1
45596.3
44206
42935.4
41787.7
40764.1
39861.5
39074.6
38396.1
37817.9
37331.2
36927.3
36597.9
36334.1
36139.7
35988.4
35883.2
35818.3
35788.5
35789.5
35817.6
35869.3
35942
36033.3
36141.1
36263.9
36400.1
36548.7
36708.8
36879.5
37060.6
37252
37453.8
37666.4
37890.5
38127.1
38377.4
38643
38926
39229
39554.9
39907.2
40289.7
40706.9
41163.6
41665
42215.2
42820.3
43493.6
44233.3
45040.4
45919
46867.6
47879.9
48947.3
50050.4
51170
52274.9
53331.4
54301.1
55147.3
55832.2
56312.4
56546.8
56488.7
56072.8
55366.6
54307
52864.9
51058.4
48925
46565.3
44121.5
41721.6
39477.2
37471.9
35752.3
34326.8
33181.8
32290.1
31615.1
31121
30773
30542
30396.4
30319
30294.2
30309.2
30353.1
30418.4
30498.6
30589.5
44060.5
44254.5
44528
44883.3
45322.7
45846.9
46457.6
47155
47936.6
48799.9
49739.9
50748.7
51814.9
52925.2
54135.1
55321.4
56509.8
57681.5
58814
59885.3
60872.9
61754.7
62511.6
63124.7
63573.8
63842.3
63917.3
63786.9
63436.8
62896.4
62150.2
61197.8
60052.2
58730.9
57254
55650.7
53956
52203.9
50429
48638
46909.8
45246.6
43670.9
42200.4
40847.1
39617.2
38513
37534.8
36678.7
35938.7
35307.1
34775.3
34334.2
33974.8
33689.1
33469.4
33315.2
33205.2
33140.1
33114.3
33123
33161.9
33227.4
33316.1
33425.3
33552.7
33696.5
33854.9
34026.7
34210.6
34405.8
34611.5
34827.4
35053.5
35289.9
35536.9
35795.4
36066.3
36350.7
36650.4
36967.3
37304.2
37663.8
38049.8
38466
38916.7
39406.9
39941.9
40525.7
41164.5
41871.8
42645.6
43487.4
44401.2
45385.6
46434.4
47539.3
48680.4
49839
50983.4
52079.9
53089.7
53975.7
54699.9
55218.5
55489.8
55467
55083.5
54408.4
53377.7
51962.1
50180.5
48071.8
45738
43322.9
40955
38745.4
36777.2
35095.6
33708.5
32601.8
31747.7
31110
30652.1
30340.1
30144.5
30034.1
29991.7
30001.7
30051.5
30130
30229.9
30344.6
30469.9
39164.7
39390.4
39696
40084.1
40557.1
41115.9
41762.7
42498.3
43320.1
44226.4
45212.7
46271
47388
48551
49827.7
51073.1
52327.3
53567.6
54770.1
55911.9
56969.6
57919.8
58742.4
59417.3
59922.7
60241.4
60359.1
60263.5
59939.4
59418.8
58684.3
57735.8
56587.7
55259.1
53771.9
52157.7
50453.7
48696.4
46925.8
45127.2
43417.4
41774.2
40224.8
38786.6
37470.9
36282.6
35223.1
34291.6
33483.3
32791.6
32208.2
31724.1
31329.7
31015.7
30774.5
30600
30486.9
30418.6
30393.9
30407.7
30455.3
30532.5
30635.5
30761.4
30907.3
31071
31250.9
31445
31652.3
31871.7
32102
32342.8
32593.5
32854.3
33125.3
33406.7
33699.6
34004.7
34323.3
34656.8
35007.6
35378.2
35771.5
36191.1
36640.7
37124.9
37648.5
38216.9
38834
39506.5
40247.6
41055.4
41931.8
42880.8
43901.1
44986.6
46129.2
47308.8
48507
49691.5
50828.6
51879.2
52805.8
53570
54127.5
54436.8
54449.2
54098.2
53454
52451.7
51062
49304.3
47218.9
44910
42522.8
40186.4
38011.6
36080.6
34437.5
33089.1
32020.9
31204.7
30604
30182.9
29906.9
29746.9
29671.8
29664.4
29709.3
29793.8
29906.9
30041.4
30190.5
30350.3
34249.9
34506.7
34843.9
35264.2
35770.3
36363.3
37045.8
37819.6
38681.7
39631.3
40664.9
41774.4
42943.9
44162
45505.9
46813.4
48137.7
49450.6
50727.4
51944.1
53076.3
54099.3
54991.5
55731.7
56296.7
56667.9
56830.2
56770.6
56471.3
55969.2
55243.5
54295.5
53140.5
51799.6
50296.8
48666.1
46947.6
45179.9
43401.3
41610.5
39908.8
38283.7
36760
35354.4
34076.9
32931.3
31917.7
31034.4
30275.4
29633.4
29099.6
28664.4
28317.8
28050.2
27853.9
27726.5
27654.9
27628.5
27644.7
27698.6
27785.5
27901.1
28042
28205.2
28387.9
28588.2
28804.1
29034.2
29277.1
29531.8
29797.4
30073.2
30358.8
30654.3
30959.8
31275.7
31602.9
31942.2
32294.8
32662.3
33046.9
33451.1
33878
34331
34813.9
35331.3
35888.2
36489.8
37140.1
37846.1
38620.9
39462.7
40373.6
41357.8
42414.1
43536.5
44717.2
45935.6
47173.9
48399.2
49577.5
50669.6
51637.5
52442.4
53039.4
53387.1
53435
53116.4
52503
51528.6
50163.5
48428.5
46365.3
44080.5
41720.8
39415.9
37275.9
35382.3
33777.8
32468.4
31439
30661
30098.1
29713.3
29473.5
29349.2
29309.3
29337
29416.7
29536
29683.8
29852.9
30036.5
30230.7
29316.6
29603.8
29971.7
30423.6
30962.2
31588.9
32306.5
33118.2
34020.7
35013.7
36095.5
37257.2
38482.9
39770.7
41154.6
42540.8
43940
45329.8
46685.1
47981.1
49192.4
50292.5
51258.7
52067.9
52695.7
53121.9
53330.2
53304.5
53029.8
52545.2
51826
50874.8
49708.6
48350.4
46826.8
45174.4
43436.3
41653.5
39863.2
38078.2
36382.5
34774
33275.7
31902.9
30664.4
29562.8
28596.6
27762.9
27054.8
26464
25981.2
25596.2
25298.6
25078.3
24927.1
24848.9
24818.9
24835
24892.6
24987
25113.4
25267.8
25446.8
25647.5
25867.2
26104
26356.2
26622.2
26900.9
27191.1
27492
27802.8
28123.3
28453.5
28793.6
29143.9
29505.4
29878.9
30265.5
30666.8
31085.1
31522.8
31983.1
32469.4
32985.6
33536.1
34126
34760.8
35444
36183.4
36991.8
37867.4
38812.8
39832.1
40924.4
42083.8
43302.9
44560.6
45839.7
47106.3
48326.6
49461
50470.9
51317.1
51954.3
52340
52424.2
52137.8
51554.6
50607.6
49266.8
47553.8
45512.2
43250.6
40917.6
38643.6
36538.2
34682.2
33116.5
31846.5
30856.2
30116.6
29591.3
29243.4
29039.9
28951.3
28946.8
29009.5
29124.2
29278.2
29460.7
29664.3
29882.5
30111.1
24363.8
24680.5
25078.6
25561.4
26131.8
26791.4
27543.6
28392.9
29335.6
30372.1
31502.8
32717.8
34001.3
35354.8
36793.6
38255.8
39733.1
41204.2
42642.4
44022.5
45317.8
46499.8
47544.3
48426.6
49120.3
49603.7
49858.8
49870.3
49619.7
49151
48435.8
47478
46296
44914.9
43363.9
41683.3
39919.6
38116.5
36311
34527.6
32836.6
31243.7
29770.6
28431.2
27232.7
26176.4
25259.2
24476.8
23821.2
23283.2
22852.8
22519.5
22272
22099.8
21994
21967.5
21979.1
22038.1
22137.7
22272.9
22439.2
22632.7
22850
23088.4
23345.3
23618.8
23907.3
24209.3
24523.7
24849.5
25185.7
25531.7
25887
26251.9
26626.5
27011.3
27407
27814.6
28235.2
28670.3
29122.1
29593.3
30087
30606.5
31155.8
31739.3
32362.1
33029.8
33745.7
34518.4
35360.4
36269.6
37249.4
38303.9
39432.4
40629
41886.7
43183.8
44504.1
45812.6
47075.6
48253
49305.8
50194.1
50872.1
51297.6
51417.5
51163.5
50610.7
49690.8
48373.7
46681.7
44659.9
42419.7
40112.6
37869.2
35798.5
33980.3
32453.8
31223.3
30272.4
29571.5
29084.5
28773.2
28606
28553.2
28584.1
28682
28831.6
29020.3
29237.6
29475.8
29728.5
29991.5
20530.8
20860.4
21271.7
21768.5
22353.5
23028.5
23797.2
24665.9
25630.2
26690.5
27850.4
29097.9
30418.3
31813.8
33292.7
34806.2
36338.8
37868.5
39367.4
40809.5
42167
43409.8
44512.3
45448.2
46189.5
46713.3
47000.5
47035.1
46790.4
46323.5
45597.4
44618.7
43406.8
41989.3
40398.3
38676.9
36874.8
35038.2
33204.5
31406
29704.6
28111.6
26647
25324
24148.4
23119.9
22234.3
21485.6
20864.8
20362.1
19966.7
19667.6
19452.9
19311.8
19237.1
19239.9
19278.1
19363.2
19487.8
19647
19836.4
20052.2
20291.1
20550.4
20827.7
21121.2
21429.2
21750.5
22083.9
22428.5
22783.2
23147.3
23520.7
23903.3
24295.6
24697.8
25110.8
25535.6
25973.1
26424.9
26893.1
27380.7
27890.3
28425.7
28990.8
29589.8
30227.9
30911.1
31642.1
32430.4
33288.2
34213.7
35210.7
36283.5
37431.7
38649.7
39930.8
41252.7
42600.4
43937.8
45231.6
46440.6
47525.3
48444.7
49151.7
49604.6
49746.1
49506.9
48965.1
48049.5
46728.4
45025.6
42989.4
40737.9
38427.9
36191.5
34136.7
32342.1
30842.8
29641.7
28720.6
28048.3
27587.4
27302
27158.8
27128.1
27180.1
27298.2
27467.6
27675.3
27912.4
28169.6
28441.5
28724
17831.1
18157.2
18565.2
19059.2
19641.8
20315
21082.4
21952.1
22919.3
23983.9
25152.5
26410.9
27746.6
29160.6
30658.8
32198.6
33761.4
35324.6
36859
38338.2
39733.5
41013.4
42151.3
43119.2
43887.6
44432.1
44732
44767.4
44519.2
44042.9
43295.7
42286.7
41036.4
39574.2
37934.4
36162.4
34310.8
32428.4
30553.6
28724.7
26997.8
25388.4
23915.4
22591.3
21420.4
20401.4
19528.9
18795.4
18190.9
17704.8
17326.1
17043.1
16843.1
16714.9
16656.8
16667
16716.3
16810.3
16942.9
17109
17304.5
17525.6
17769.1
18032.5
18313.4
18609.9
18920.8
19244.6
19580.2
19926.7
20283.1
20648.6
21023.1
21406.6
21799.5
22202.2
22615.5
23040.4
23477.7
23928.9
24396.3
24882.6
25390.8
25924.5
26487.4
27084
27719.5
28399.8
29127.9
29913.3
30768.8
31692.2
32688.3
33761.7
34912.4
36135.3
37424.8
38757.6
40120.6
41475.7
42790.2
44021.9
45130.2
46073
46801.5
47265.1
47424.9
47186.2
46638.3
45705
44352
42606.2
40520.3
38220
35870.3
33609.8
31546.6
29758.8
28274.3
27092.7
26192.6
25539.9
25095.6
24823.7
24692.8
24670.5
24729.5
24853
25026.3
25237.6
25476.9
25736.4
26010.2
26294.3
15125.5
15447.6
15851.9
16343
16922.8
17593.9
18359.6
19229.8
20199.8
21268.2
22445.6
23714.6
25066.2
26499.4
28018.3
29585.3
31179.5
32777.7
34349.4
35867.5
37302.7
38621.6
39796.7
40798.8
41596.7
42164.8
42481.3
42527.3
42270.9
41783.1
41012.8
39971.4
38679.6
37168
35474.1
33646.4
31741
29809.8
27892.2
26030.7
24277
22651.2
21169.9
19845
18679.5
17671.1
16812.7
16095.6
15508.3
15039.9
14679
14413.1
14228.6
14113.2
14072.8
14091.1
14151.3
14254.7
14395.4
14568.7
14770.5
14997.1
15245.4
15513
15797.5
16097.2
16410.8
16737.1
17074.9
17423.4
17781.6
18148.6
18524.3
18908.8
19302.4
19705.6
20119.1
20543.9
20980.9
21431.4
21897.6
22382.6
22889.1
23420.8
23981.3
24575.1
25207.4
25884.4
26608.9
27391
28243.4
29164.2
30158.9
31232.4
32385.4
33613.4
34911.5
36256
37635.8
39010.4
40348.5
41606.1
42741.6
43711.5
44465.6
44952.9
45128
44891.6
44337.6
43385.1
41996
40197.9
38049.2
35687.7
33290
31001.8
28930.5
27148.4
25682.4
24523.3
23647.7
23017.7
22592.9
22337.1
22220.5
22207.6
22274.4
22404
22582
22797
23039.5
23301.7
23577.6
23863.6
12413.9
12731.5
13131.7
13619.3
14195.9
14864.8
15628.2
16499.1
17471.7
18543.3
19729.5
21008.2
22376.7
23829.8
25370.3
26965.6
28592.4
30227.3
31838.2
33397.5
34874.9
36235.4
37449.9
38488
39316.7
39908.9
40240.9
40291.2
40030.3
39532.1
38737.3
37660.5
36324.1
34760.5
33011
31126.3
29165.5
27183.3
25220.6
23324
21541.9
19899.3
18409.4
17084.4
15924.9
14927.9
14085
13385.2
12816.3
12366.7
12024.4
11776.5
11607.8
11504
11485.5
11512.6
11583.6
11696.8
11846.2
12026.9
12235.3
12467.6
12720.9
12992.8
13281
13583.8
13900.2
14229
14569
14919
15278.9
15647.4
16024.3
16409.6
16803.9
17207.6
17621.3
18046.1
18482.8
18932.5
19397.5
19880.8
20385.4
20914.7
21472.5
22063.1
22691.8
23364.9
24085.4
24863.5
25712.2
26629.8
27622.4
28695.7
29850.8
31083.8
32391
33748.2
35146.3
36542.4
37906.6
39193.1
40359.2
41360.1
42143.5
42656.9
42849.6
42616.3
42054.7
41081.1
39650.4
37791.6
35570.3
33138.8
30687
28367.5
26286.8
24511.8
23066.4
21933.1
21085.7
20481.8
20079.2
19841.4
19741.8
19739.7
19815.7
19952.3
20135.7
20355
20600.9
20866
21144.5
21432.4
9697.24
10009.8
10405.5
10888.1
11460.8
12126.6
12887.1
13758.3
14734.2
15809.1
17004.4
18293.2
19676.9
21151.8
22714.7
24339
25999.5
27672.4
29324.2
30926.7
32448.7
33853.5
35110.4
36187.2
37049
37667
38016.5
38073.7
37806
37295.4
36474.5
35360.9
33978.8
32362.3
30554.7
28608.3
26586
24547.3
22536.5
20602.1
18789.8
17131.7
15634
14310.2
13158
12173.8
11347.7
10666.5
10116.7
9686.77
9364.28
9135.25
8984.62
8893.83
8900.62
8931.04
9013.15
9136.62
9294.9
9483.41
9698.58
9936.87
10195.3
10471.6
10763.7
11069.8
11389
11720.5
12062.9
12414.8
12776.4
13146.3
13524.1
13910.1
14304.2
14708.2
15122.1
15546.8
15983.1
16431.9
16895.5
17377.1
17879.5
18406.2
18961
19547.8
20172.4
20841.1
21557
22330.6
23174.9
24088.7
25078.7
26151.2
27308.1
28546.4
29863
31233.6
32651.7
34071.2
35464.3
36782.8
37983.2
39018.8
39835.4
40378.1
40592.9
40365.8
39794.8
38799.5
37322.6
35394.4
33089.7
30577.6
28062.5
25706.4
23614.5
21848.4
20425.9
19321.9
18506.8
17932.3
17554.7
17336.5
17257.1
17266.7
17353
17497.5
17686.8
17910.7
18160.6
18428.9
18710.1
19000.3
6975.55
7282.33
7673.1
8151.96
8720.53
9380.32
10136
11006.1
11985.4
13062.4
14267.3
15569.7
16967.4
18464.4
20051.2
21705.6
23401.1
25113.6
26808.3
28455.8
30024.5
31475.3
32776.8
33894.5
34791.6
35437.7
35806.5
35874.8
35599.8
35077.2
34229.7
33078
31647.1
29971.3
28096.5
26081.9
23994.5
21898.6
19840.6
17865.3
16024.6
14348.8
12842.1
11519.3
10374.3
9403.05
8594.52
7933.12
7404.14
6995.71
6694.93
6485.39
6351.65
6278.12
6289.77
6344.03
6440.17
6574.1
6741.44
6937.86
7160.01
7404.4
7668.05
7949.02
8244.99
8554.46
8876.65
9210.84
9555.66
9910.19
10273.6
10645
11023.7
11410.3
11804.9
12209
12622.7
13047
13481.8
13929.3
14391.3
14871
15371.1
15895.1
16446.7
17029.5
17649.5
18313.1
19024
19792.3
20631.4
21540.8
22527.4
23598.6
24756.7
26000.4
27326.8
28712
30151.5
31596.2
33020.9
34374.6
35612.7
36686.8
37541.3
38118.7
38364.2
38144.1
37559.1
36539.5
35009.2
33001.7
30602.1
27998.5
25412.1
23015.3
20911.6
19157.3
17760.2
16689.6
15911
15369.7
15020
14826.7
14765.4
14788.8
14886.4
15039.6
15235.5
15464.7
15718.7
15990.6
16274.9
16567.4
4246.15
4544.4
4931.91
5409.3
5974.03
6629.06
7380.25
8243.9
9227.15
10303.7
11515.2
12832.7
14246.7
15766.8
17378.9
19064.3
20796.2
22550.5
24290.3
25985.3
27602.6
29101.7
30450
31611.1
32545.8
33221.7
33610.2
33687.3
33406.2
32871.4
31996.4
30803.2
29318.1
27577
25633.2
23550.7
21397.9
19242.1
17131.5
15109.8
13240.2
11542.6
10028.9
8710.26
7577.7
6626.13
5841.95
5204.94
4698.81
4312.3
4033.15
3843.09
3729.33
3677.18
3715.83
3770.16
3870.39
4010.27
4185.69
4390.2
4619.46
4870.22
5139.42
5424.83
5724.78
6037.65
6362.85
6699.88
7047.29
7404
7769.39
8142.21
8522.08
8909.38
9304.97
9709.27
10122.9
10546.9
10980.7
11426.7
11886.5
12362.6
12859.8
13380.9
13929.2
14507.8
15122.9
15781
16486.4
17249
18082.1
18986.4
19968.8
21038.1
22197.1
23445.9
24782
26182.5
27644.8
29116.8
30576
31968.1
33247.8
34364.3
35259.8
35873.6
36142.7
35938.7
35334.9
34294.8
32710.6
30617.7
28112
25404
22735.6
20292.9
18176.7
16437.8
15068.5
14035.5
13298.2
12793.7
12474.1
12307.7
12266.7
12306.3
12416.5
12579
12781.8
13016.7
13275.4
13551.1
13838.8
14133.9
1660.84
1906.11
2238.39
2645.65
3142.69
3745.49
4471.65
5333.49
6320.49
7395.13
8605.69
9938.44
11368.7
12911.7
14552
16270.7
18041.8
19841
21630
23377.4
25048.3
26600.6
28000.7
29209.7
30186
30895.4
31307.4
31395.6
31106
30554.7
29647.3
28404.6
26858.1
25046.7
23031.4
20872.5
18641.8
16412.5
14240.3
12171.5
10276.4
8559.61
7046.96
5733.33
4613.05
3696.79
2963.65
2399.78
1988.22
1709.15
1525.03
1405.95
1341.2
1318.34
1337.76
1389.68
1471.64
1584.5
1729.12
1903.35
2101.18
2319.56
2556.88
2812.49
3086.76
3379.87
3692.48
4024.79
4373.79
4732.32
5098.69
5472.57
5853.16
6240.74
6636.25
7040.47
7453.45
7876.66
8309.94
8753.94
9210.69
9682.91
10176
10692.6
11234.7
11807.5
12416.6
13067.5
13766.2
14522
15347.3
16245
17221.8
18287.9
19446.9
20700.7
22046.4
23463.3
24950.5
26452.4
27950.4
29386.5
30714.7
31881.8
32826.5
33485.2
33798.2
33615.4
32984.3
31925
30276.8
28071.7
25425.9
22587.5
19820.9
17324.9
15197.3
13480.1
12143.4
11155.5
10467.1
10005.9
9721.45
9589.44
9567.47
9625.02
9749.2
9922.17
10132.5
10373.4
10637
10916.8
11207.7
11505.1
261.625
341.96
464.477
629.49
855.26
1189.03
1706.63
2431.68
3305.54
4331.32
5543.01
6887.08
8336.11
9898.52
11567.4
13322.5
15136.2
16983.5
18824.4
20629.2
22362.5
23974
25431.2
26693.1
27715
28460.8
28897.3
28994.3
28698
28127.3
27185.3
25888.9
24278.3
22392.5
20292.6
18039.4
15714.5
13405.9
11174.6
9057.85
7129.28
5399.46
3880.83
2630.42
1726.69
1138.4
738.23
484.915
338.405
261.24
215.609
187.248
172.584
167.605
173.297
187.676
211.94
248.29
299.534
367.945
449.793
544.678
653.633
778.481
921.984
1088.29
1283.22
1513.69
1783.73
2080.61
2392.65
2719.82
3063.12
3423.67
3803.21
4202.5
4614.4
5035.59
5466.96
5908.39
6361.72
6830.54
7319.01
7830.3
8365.89
8930.65
9529.65
10171.7
10862.2
11609.1
12424.4
13313.6
14282.8
15344
16501.8
17760.4
19115.8
20551.6
22066.7
23603.3
25146.1
26632.3
28015.9
29240.4
30242.1
30953.5
31313.4
31166.3
30488.5
29401.1
27668
25328.6
22527.6
19539.8
16657.6
14099.4
11959.6
10264.4
8972.99
8036.15
7408.21
6999.61
6754.44
6661.45
6661.03
6743.27
6884.08
7068.72
7287.57
7534.74
7803.19
8087.13
8381.22
8680.97
27.8832
31.1323
37.3503
48.9679
73.4759
129.844
262.724
527.127
929.693
1590.22
2602.31
3829.81
5290.19
6874.73
8573.37
10364.3
12220.4
14118.4
16015.1
17878
19671.7
21348.2
22868.8
24188.1
25258.9
26044.4
26508.2
26622.8
26317.8
25724.9
24750.7
23401.1
21724.1
19750.4
17543.6
15187.9
12771.8
10386.3
8094.66
5927.16
3951.1
2316.3
1243
573.349
263.808
134.446
62.2107
31.8298
24.1551
22.9699
22.66
22.4661
22.2958
22.1903
22.1059
22.2879
22.8404
23.8434
25.5784
28.3235
32.3646
38.4243
47.4964
60.9951
81.2556
111.739
157.495
225.281
322.871
444.824
582.161
736.883
913.324
1117.96
1359.72
1648.19
1980.63
2334.65
2708.52
3104.39
3525.3
3975.84
4458.26
4964.45
5493.94
6052.58
6641.91
7272.7
7953.29
8690.71
9494.27
10373.5
11333.1
12387.9
13543.3
14806
16169.3
17625
19170
20746.9
22339
23880
25323.9
26610.9
27674.3
28443.1
28840.6
28749.9
28009.5
26904.1
25090.5
22615.1
19638.7
16468.8
13443.5
10811.3
8668.69
7014.32
5788.06
4917.55
4350.58
3996.58
3798.66
3738.51
3774.83
3867.02
4017.14
4212.31
4440.29
4694.32
4968.52
5257.13
5554.89
5856.9
16.2871
16.6224
17.1141
17.6558
18.2481
20.0288
25.145
38.0124
80.4931
222.265
598.448
1247.4
2391.69
3842.37
5564.87
7394.54
9294.99
11244.9
13201.1
15128
16983.1
18722
20306.8
21690.9
22816.3
23645
24138
24271.6
23962.1
23339.8
22335.5
20925.5
19164.6
17084.6
14776
12329.7
9824.52
7347.6
4976.46
2802.14
1296.23
442.564
150.672
35.9725
17.9455
17.0273
15.9752
16.0278
16.0196
15.1258
14.6585
14.2744
13.915
13.6457
13.3154
13.037
12.7821
12.5446
12.3773
12.2702
12.232
12.2897
12.4736
12.804
13.2906
14.0745
15.3866
17.6946
21.5235
27.503
37.053
52.1149
76.259
114.822
175.391
268.198
399.159
551.418
725.044
927.037
1168.7
1466.72
1836.37
2255.49
2709.72
3207.68
3757.83
4368.92
5038.95
5766.86
6557.94
7425.92
8374.48
9421.54
10573.5
11839.4
13210.1
14687.1
16260.7
17876.2
19520.2
21123
22634.1
23990.6
25122.4
25955.5
26424.4
26406.5
25575.9
24469.4
22581
19931.1
16707.2
13326.6
10158.2
7474.54
5339.59
3750.63
2645.59
1959.14
1577.53
1368.04
1266.5
1243.56
1278.73
1358.49
1478.25
1635.84
1827.43
2044.75
2281.4
2533.97
2799.79
3075.01
12.3411
12.5125
12.6758
12.6893
12.6318
12.9555
13.633
14.2922
15.3019
20.2651
39.816
131.885
510.825
1270.26
2652.2
4397.66
6348.94
8362.48
10378.5
12372.7
14299.5
16105.7
17752.1
19199.9
20382.7
21260.5
21786.5
21937.3
21629
20960.6
19932.8
18443.5
16591.9
14417.4
12022.8
9472.97
6855.05
4282
2034.71
660.374
161.531
22.2892
14.1475
12.1874
13.6421
13.0036
12.2282
12.1783
11.9749
11.3223
10.9109
10.5454
10.2213
9.92496
9.64898
9.32691
9.02146
8.73635
8.4944
8.28269
8.08712
7.90858
7.75139
7.61076
7.4514
7.3445
7.2473
7.25619
7.36085
7.54893
7.89862
8.39408
9.11429
10.2911
12.2351
15.6587
21.6434
31.5289
47.8372
75.4538
122.711
202.73
333.016
504.935
709.109
959.992
1285.32
1725.68
2278.61
2907.03
3623.8
4462.35
5402.26
6443.05
7592.24
8860.88
10238.7
11738.5
13342.1
14999.4
16695.5
18359.5
19943.5
21378
22584.9
23487.8
24013.5
24062
23210.7
22053.5
20067.3
17199.3
13717.1
10139.4
6827.2
4093.77
2112.48
1069.19
540.138
308.328
215.587
167.588
145.004
139.59
148.81
170.571
206.716
260.535
334.965
425.637
528.802
644.623
773.673
915.947
8.80435
8.93485
9.02526
9.06617
9.09358
9.26711
9.61429
9.53446
9.24758
9.78094
10.3044
12.9884
29.7849
134.703
638.942
1691.34
3399.53
5446.7
7548.01
9612.15
11611
13491.6
15210
16723.6
17961.5
18888.9
19449.8
19618.1
19323.5
18599.4
17537.2
15973.6
14039.8
11774.6
9275.5
6599.25
3868.05
1593.08
360.178
37.2444
10.3273
11.2038
10.2244
8.82642
9.45712
9.0527
8.6347
8.55379
8.29113
7.75758
7.37339
7.02293
6.70683
6.41916
6.12515
5.85577
5.56991
5.29384
5.04802
4.82749
4.62269
4.45583
4.32333
4.17698
4.02106
3.82769
3.62265
3.52077
3.4757
3.43846
3.42694
3.36581
3.30426
3.31265
3.34848
3.52284
3.88437
4.37969
4.95134
5.70378
7.26441
10.3757
15.7645
25.556
43.4721
78.1976
146.71
281.126
498.169
780.768
1170.08
1754.61
2538.57
3473.24
4584.32
5862.15
7250.45
8774.37
10408.3
12113.5
13867.9
15597.8
17255.3
18769.9
20058.9
21039.9
21623.8
21710
20920.4
19653.4
17559.8
14468.4
10732.4
6924.37
3455.84
1236.21
338.219
111.622
30.3017
15.8296
13.686
12.7322
12.1426
11.6312
11.2691
11.4176
12.1254
13.6008
16.2701
20.5138
26.6943
35.6218
48.4842
67.1579
5.29001
5.41191
5.52702
5.57279
5.60754
5.73578
5.92115
5.70161
5.51856
5.79028
5.41454
5.15538
5.86071
9.20038
35.63
250.532
1056.37
2608.35
4680.55
6845.9
8921.83
10875.5
12670.3
14261
15558
16536.3
17130.8
17316.5
17046.1
16261.2
15158.1
13528.6
11517.8
9144.06
6504.56
3719.81
1346.85
251.992
19.9491
1.85197
6.14317
7.16537
6.23177
5.23621
5.76562
5.39924
5.06565
4.92765
4.68968
4.25458
3.88917
3.55316
3.24383
2.95737
2.67568
2.39913
2.12351
1.8599
1.62165
1.40568
1.20562
1.03242
0.879747
0.73211
0.579799
0.408597
0.235333
0.125865
0.0570894
-0.00437163
-0.0585298
-0.110582
-0.151724
-0.176112
-0.238051
-0.267234
-0.159604
-0.0459609
-0.0168691
-0.0866295
-0.055654
0.249782
0.761503
1.42633
2.15806
3.09599
5.48305
10.9463
22.4489
49.05
114.103
281.787
594.633
1060.74
1822.15
2917.47
4224.9
5784.13
7457.29
9212.54
11027.1
12832.5