/*--------------------------------*- C++ -*----------------------------------*\
| =========                 |                                                 |
| \\      /  F ield         | OpenFOAM: The Open Source CFD Toolbox           |
|  \\    /   O peration     | Version:  v1912                                 |
|   \\  /    A nd           | Website:  www.openfoam.com                      |
|    \\/     M anipulation  |                                                 |
\*---------------------------------------------------------------------------*/
FoamFile
{
    version     2.0;
    format      ascii;
    class       volScalarField;
    location    "10";
    object      omega;
}
// * * * * * * * * * * * * * * * * * * * * * * * * * * * * * * * * * * * * * //

dimensions      [0 0 -1 0 0 0 0];


internalField   nonuniform List<scalar> 
14268
(
274.133
255.268
225.66
141.87
103.043
91.6923
96.8761
138.328
176.373
180.025
194.078
205.058
232.72
225.223
252.764
300.261
307.223
211.512
114.482
62.0903
54.1062
55.2594
57.3247
58.6859
85.0465
128.219
182.232
217.681
155.618
79.7447
91.7341
207.032
247.906
239.134
207.432
175.663
258.68
263.293
202.425
122.913
77.732
99.0582
252.358
358.781
370.491
362.172
274.603
152.67
99.4615
100.511
128.972
166.176
177.844
114.732
94.4629
193.01
265.815
281.288
262.259
170.072
108.256
109.683
117.192
96.7158
60.1697
51.7188
49.7882
46.4568
37.9584
26.7425
32.9995
45.462
44.6504
44.5945
44.5917
44.5916
44.5916
44.5916
44.5916
44.5916
44.5916
44.5916
44.5916
44.5916
44.5916
44.5916
44.5916
44.5916
44.5916
44.5916
44.5916
44.5916
44.5916
44.5916
44.5916
44.5916
44.5916
44.5916
44.5916
44.5916
44.5916
44.5916
44.5916
44.5916
105.557
109.253
76.1884
60.0621
39.2858
44.0327
39.5232
50.8013
67.8185
83.065
80.5251
80.3617
76.3253
70.7928
78.1209
82.7634
90.1646
89.1147
59.8062
76.6325
111.667
70.6518
35.3629
32.2165
36.0634
46.6508
64.3853
73.1937
67.7635
54.9851
61.0964
82.1965
82.0543
78.2907
72.1839
67.0399
86.9661
95.7635
74.0033
45.9117
44.8438
72.5683
128.922
113.379
103.476
116.908
113.9
80.3236
53.5722
47.4296
52.4001
63.524
66.6432
53.389
62.3788
98.3592
108.644
112.574
130.53
92.5646
54.747
54.3433
56.9304
48.6134
36.8483
32.4928
28.1637
26.9921
29.3152
27.8448
24.2539
22.4031
16.6986
12.258
10.9029
10.3588
10.0506
9.82744
9.65238
9.5088
9.38752
9.28293
9.19136
9.11025
9.03775
8.97244
8.91326
8.85935
8.81001
8.76468
8.72289
8.68424
8.6484
8.61508
8.58403
8.55503
8.52791
8.50248
8.47861
8.45616
8.43504
8.4151
8.39628
8.37855
67.5458
73.0228
47.0651
36.3983
34.087
38.9279
37.6931
36.1501
44.8689
57.6897
52.6085
51.6987
49.5804
44.9078
48.2642
52.5883
54.8923
59.0779
51.9078
55.1084
64.8437
47.3803
31.6365
26.7464
25.626
31.2925
53.0041
49.2526
46.2061
45.1497
50.4119
56.637
55.9645
53.6437
49.4541
45.9406
57.6884
65.0404
51.1687
31.5411
32.4101
59.1834
100.276
71.5939
68.5672
77.4483
79.337
65.1914
45.132
37.7662
37.5443
40.8069
42.1946
39.421
50.5249
71.8943
65.2948
64.9724
85.9845
70.3439
42.3707
40.6307
42.4927
38.3015
32.4439
29.7743
26.2304
24.2785
24.4236
23.9531
21.0339
16.6598
7.97003
4.81695
4.14924
3.90679
3.76934
3.66769
3.58677
3.51978
3.46286
3.41357
3.37032
3.33195
3.29761
3.26666
3.23861
3.21305
3.18965
3.16815
3.14833
3.13
3.11299
3.09718
3.08244
3.06868
3.0558
3.04372
3.03237
3.02169
3.01164
3.00215
2.99318
2.98472
51.3389
57.8529
37.2111
32.4099
38.0748
40.2837
37.4885
29.7116
37.8308
48.4979
41.0697
39.8215
39.6432
35.8228
37.2613
40.8424
42.3841
44.932
46.029
51.9447
56.6605
43.725
41.0461
25.2499
24.5989
33.3332
62.3104
43.6562
39.1783
38.7283
45.3134
48.0106
48.1926
45.7053
41.7463
38.4586
45.594
50.945
44.4064
27.5639
29.268
51.3612
80.6721
58.2533
56.5002
64.1003
62.5163
58.0747
43.0542
32.1141
30.7466
32.2244
32.5083
33.7327
68.6139
63.1346
47.7396
47.1826
60.5683
62.3503
38.632
37.4223
37.7698
33.9649
31.4302
28.9747
26.3075
24.0402
22.1296
21.1174
19.7586
13.673
4.91694
2.54349
2.15464
2.02973
1.95556
1.90072
1.85699
1.82078
1.79001
1.76341
1.74009
1.71944
1.701
1.6844
1.66938
1.65572
1.64323
1.63177
1.62122
1.61148
1.60245
1.59406
1.58625
1.57896
1.57215
1.56576
1.55976
1.55412
1.54881
1.54381
1.53907
1.5346
45.5315
45.3628
41.0126
37.9184
38.492
40.5707
37.9781
28.1486
36.003
44.4793
36.6338
35.701
34.2801
31.861
31.036
34.1484
36.9793
40.0721
42.6153
51.8126
54.9019
42.8532
41.5708
26.0416
26.4948
39.9247
55.4391
40.6964
35.5012
34.5342
41.345
42.5601
48.5492
41.6264
37.1559
34.6225
38.5035
43.4172
39.3611
26.7694
30.099
46.4913
69.4717
50.381
51.4629
56.5023
56.5916
53.5448
40.3534
29.3382
27.6875
28.2099
28.6766
30.2539
51.2872
55.4886
41.8358
42.2934
48.9191
59.0478
39.6189
34.1815
33.0671
32.2898
30.7851
28.4494
26.1867
23.8129
20.8944
18.208
17.3383
11.7605
3.53095
1.65429
1.38296
1.30733
1.26639
1.23682
1.21347
1.19429
1.17814
1.16427
1.1522
1.14158
1.13215
1.12372
1.11613
1.10926
1.10302
1.09731
1.09208
1.08726
1.08282
1.07871
1.07489
1.07134
1.06803
1.06493
1.06204
1.05932
1.05677
1.05436
1.05211
1.04996
42.8287
41.7767
88.8252
40.5341
39.8675
38.8556
36.348
27.7428
36.4156
42.376
34.3436
32.9932
31.7639
28.9854
27.2326
29.6884
33.0713
37.9177
40.871
51.7961
53.7681
43.0614
36.6296
27.0124
29.1321
47.5928
52.9057
42.0891
33.2344
32.8809
41.3287
39.7587
44.8562
40.0127
33.6827
32.609
34.3745
39.1962
36.5858
26.5662
31.0843
45.0706
65.3629
46.141
48.9197
54.1022
53.299
50.3546
39.6626
28.5407
25.842
25.797
26.202
28.6747
45.6189
47.7241
39.1996
40.4663
42.7776
54.3612
43.9136
33.458
30.5225
29.8701
29.3817
28.3174
26.2907
23.9233
20.1264
17.2876
14.5628
9.02416
2.49069
1.22954
1.05704
1.01398
0.992623
0.977653
0.966039
0.956646
0.948837
0.942219
0.936524
0.931567
0.92721
0.923348
0.919903
0.91681
0.914019
0.911488
0.909183
0.907077
0.905145
0.903367
0.901726
0.900208
0.8988
0.897489
0.89627
0.895127
0.894066
0.893058
0.892134
0.891231
39.5838
44.3042
59.0458
40.6674
40.893
36.2694
34.5686
27.4396
34.501
37.8743
33.9607
30.8934
29.5472
27.8075
25.3796
26.4132
29.358
35.0423
40.3749
50.0915
52.6911
43.6985
35.3037
29.8849
30.7012
53.7713
52.4648
40.7714
30.6879
32.0089
39.0013
39.6422
43.6518
38.3703
30.5193
30.965
32.5817
37.1407
35.0797
27.1123
32.2425
44.3108
62.4108
43.5715
48.0351
54.6839
52.1531
47.8883
39.4451
29.2395
24.9847
23.8483
24.2647
27.7449
41.2173
42.3597
37.3733
37.9332
39.2336
48.7365
46.5594
36.4888
29.7655
28.3376
28.2566
27.2112
26.262
24.4238
20.1762
15.8189
12.4296
6.37077
1.80202
1.02599
0.923213
0.899437
0.888749
0.881555
0.87609
0.871754
0.868208
0.865248
0.862738
0.860581
0.858709
0.857068
0.855622
0.854337
0.853189
0.852158
0.851228
0.850386
0.849619
0.84892
0.84828
0.847691
0.84715
0.846649
0.846188
0.845754
0.845363
0.844979
0.844645
0.844304
36.8708
41.0224
55.2479
46.7329
39.464
33.8761
31.1257
26.9438
32.8917
35.1204
32.5808
29.9976
27.895
26.7232
24.4271
24.0402
26.7303
32.4124
39.69
49.316
51.5802
42.8375
34.0815
36.0457
32.3074
52.3525
49.3709
39.3046
28.9553
32.4117
38.1822
41.3607
40.0933
36.0071
28.5083
29.399
31.3629
35.9134
32.9563
28.4229
36.6471
44.1922
51.6103
43.3601
43.5907
49.639
49.7361
46.6026
39.0473
31.4739
24.4006
21.6457
22.3932
27.9843
37.3301
39.1723
35.9939
35.8328
37.1851
43.4735
47.5213
39.7515
32.2794
29.357
27.9384
27.4513
26.4868
24.5646
18.6691
14.3719
11.0817
4.86609
1.44033
0.93406
0.870831
0.857399
0.851944
0.848417
0.84581
0.843757
0.842107
0.84075
0.839614
0.838648
0.837831
0.837096
0.836494
0.835938
0.83546
0.835029
0.834644
0.8343
0.833991
0.83371
0.833457
0.833226
0.833016
0.832821
0.832649
0.83248
0.832338
0.83219
0.832071
0.831942
35.8079
39.4083
53.9869
61.7758
38.1413
32.0391
29.3301
26.5384
35.9999
36.2537
31.0127
28.7043
27.0965
26.4479
23.9819
23.2089
25.7003
31.6872
39.753
48.9608
52.1148
42.9505
32.9857
41.5092
33.6429
51.591
46.1787
36.3289
27.6889
32.6002
38.1643
43.0639
37.4987
34.2884
27.6298
28.4139
30.4467
34.2645
31.5878
29.4714
33.9086
40.8341
43.854
46.1061
42.0253
47.5174
47.3937
45.0467
38.1566
32.1876
24.05
20.1895
20.7407
27.3072
35.9936
37.9263
34.6188
34.3419
35.8792
41.1502
45.534
40.2595
37.544
31.5994
30.3685
31.3088
31.7106
27.8285
18.9943
12.8405
9.43607
3.95026
1.24355
0.894047
0.85141
0.842909
0.839776
0.837801
0.836345
0.835213
0.834307
0.833566
0.83295
0.832431
0.831992
0.831606
0.831284
0.830997
0.830747
0.830526
0.83033
0.830156
0.83
0.829861
0.829736
0.829623
0.829522
0.829429
0.829347
0.829267
0.8292
0.82913
0.829079
0.829018
37.0546
36.9248
58.9394
68.5051
37.9514
30.3592
27.4955
26.3419
35.4487
40.3454
29.6397
27.1103
27.1586
27.2592
24.7913
22.551
24.7329
31.2229
40.2236
50.414
50.5741
40.8865
32.4291
45.0598
33.6654
46.8415
45.5005
33.5791
25.7077
32.8538
35.7251
42.7841
35.1901
33.7861
27.1866
27.9884
29.5553
32.6441
30.3589
30.9819
32.0579
36.8636
38.9013
46.3072
37.6029
45.2538
45.0937
41.7018
36.2354
33.5932
23.9547
19.5099
19.6273
25.3388
34.799
37.6685
33.886
33.1772
35.0379
40.2656
42.3126
41.3217
40.1736
35.3497
28.2977
29.3062
29.2337
24.0651
16.5517
12.1363
7.92541
2.94076
1.10926
0.874613
0.844114
0.83815
0.835989
0.834609
0.833583
0.832781
0.832137
0.831608
0.831168
0.830797
0.830482
0.83021
0.829976
0.829772
0.829594
0.829437
0.829298
0.829175
0.829066
0.828968
0.828881
0.828802
0.828732
0.828668
0.828612
0.828557
0.828512
0.828463
0.828431
0.828389
41.2777
36.1307
74.199
67.0025
37.9625
29.2308
24.9805
25.9388
34.9204
39.2423
28.6502
26.8309
27.8908
28.1373
29.3808
22.671
24.1521
30.6514
39.4411
51.277
41.3207
34.696
31.4946
48.7409
33.8074
44.423
44.0022
32.1583
24.2536
33.888
33.553
39.7744
34.26
32.2891
26.5346
27.368
28.8137
31.4653
29.4323
31.8657
30.9049
34.0105
35.5081
47.4667
34.9388
41.939
43.4136
39.8388
35.4389
33.7819
24.2245
18.8611
18.809
24.1501
33.5824
36.7133
32.4593
32.2482
34.224
40.1899
40.6171
42.4672
43.842
37.1831
27.2306
24.704
22.7699
18.8289
15.305
11.9919
7.0482
2.2888
1.02424
0.86374
0.841175
0.836619
0.834853
0.833687
0.83281
0.832119
0.83156
0.8311
0.830716
0.830391
0.830113
0.829874
0.829667
0.829487
0.829329
0.82919
0.829067
0.828959
0.828862
0.828776
0.828698
0.828629
0.828567
0.82851
0.82846
0.828413
0.828373
0.828329
0.828302
0.828264
44.246
35.7353
76.3801
63.1657
37.018
28.147
23.0136
25.4782
36.4271
39.7874
28.2924
26.2006
28.5595
28.8772
35.1604
23.7174
22.192
28.0961
37.6894
47.8888
36.3662
30.5527
30.4739
48.645
34.1138
44.4451
43.2934
31.373
23.192
31.6507
32.2033
37.8464
33.3351
31.0545
25.8371
26.0267
27.8319
30.3765
28.9707
32.4558
30.2436
31.7091
32.7755
42.4525
32.5053
39.2195
40.9553
37.0686
34.1055
32.0071
23.6132
18.2417
18.2023
23.9953
32.8918
33.933
30.9139
31.538
34.0494
39.4915
40.311
41.9866
44.3921
37.0628
26.418
21.5032
18.2901
16.0696
14.9367
12.0088
6.13434
1.87365
0.969022
0.857174
0.839872
0.836119
0.834516
0.833425
0.832596
0.831941
0.831409
0.830969
0.830601
0.830289
0.830023
0.829793
0.829594
0.82942
0.829268
0.829134
0.829016
0.828911
0.828817
0.828734
0.828659
0.828592
0.828532
0.828477
0.82843
0.828383
0.828345
0.828303
0.828276
0.828239
46.2993
37.6713
66.2866
63.5744
35.2306
27.4206
22.1094
24.6161
38.3711
41.0946
27.8174
25.8597
27.9491
29.4293
35.6671
23.24
20.5114
25.3584
35.8533
39.6108
34.2833
28.7181
29.3643
44.5258
32.9484
41.3916
42.8764
30.4639
22.2768
29.4403
31.5828
35.3217
32.4848
29.8313
25.2071
24.8264
26.6565
29.735
28.5824
33.0433
29.236
29.8637
31.1718
38.5587
30.1846
35.2335
34.0306
34.2468
32.877
30.8895
23.1644
17.5174
17.5968
23.8847
32.408
32.4433
29.4578
30.5999
33.7679
39.814
39.8932
40.2271
40.814
35.2634
26.2654
19.8783
16.0609
15.2592
14.9713
11.7185
5.14713
1.5822
0.933226
0.853069
0.839199
0.83593
0.834404
0.833341
0.83253
0.831886
0.831363
0.830931
0.830568
0.830261
0.829998
0.829771
0.829574
0.829403
0.829252
0.82912
0.829003
0.828899
0.828806
0.828724
0.82865
0.828584
0.828525
0.82847
0.828423
0.828377
0.828339
0.828297
0.828271
0.828235
43.8194
43.1052
58.429
67.5844
34.2096
27.0448
21.7148
22.6872
38.8379
40.0459
27.782
25.1087
26.859
29.5125
37.0959
22.2424
19.497
23.2847
30.3864
33.0506
31.9623
27.8136
27.9276
39.6629
31.7045
36.1318
37.5788
28.8423
21.6262
26.2099
31.2997
29.9561
29.6122
28.4612
24.5012
23.9472
25.4911
28.8328
28.0025
34.1731
28.3948
28.2749
30.416
35.6627
28.9057
33.9166
31.5021
31.453
30.4986
28.7295
22.0586
16.132
16.7049
23.7814
31.1687
30.816
28.2072
29.8695
32.705
38.3229
38.6675
38.1279
38.4377
34.046
25.6136
18.4961
15.1053
15.1675
14.9607
10.9986
4.14718
1.36155
0.908087
0.850136
0.838737
0.835802
0.834328
0.833285
0.832485
0.83185
0.831334
0.830906
0.830547
0.830242
0.829981
0.829757
0.829561
0.829391
0.829242
0.82911
0.828994
0.828891
0.828799
0.828718
0.828644
0.828578
0.82852
0.828466
0.828419
0.828373
0.828336
0.828294
0.828269
0.828232
39.2967
48.801
57.4597
67.2315
33.5027
26.0155
21.163
20.6315
38.0179
35.4465
27.3327
23.1951
25.2203
30.0622
37.0698
20.4152
18.5963
20.9519
24.6803
27.5684
29.0931
25.7712
26.481
31.5777
28.6
32.4185
33.1817
25.8882
20.8266
23.4001
27.5488
25.0316
24.5503
25.8083
23.3324
23.0713
24.6373
27.0756
27.0277
31.7382
26.5858
26.7606
29.5469
32.4274
27.4006
30.6045
29.0542
28.0434
26.9706
24.6892
18.729
14.9039
15.3126
23.5329
29.6657
28.7417
25.8022
27.0988
30.8359
36.2832
35.9729
32.5613
30.473
27.7094
21.5882
15.7645
14.7669
15.4673
14.6746
9.17494
2.88352
1.14726
0.884756
0.847126
0.838309
0.83572
0.834289
0.833258
0.832464
0.831833
0.831318
0.830893
0.830535
0.830232
0.829972
0.829748
0.829554
0.829384
0.829236
0.829105
0.828989
0.828886
0.828795
0.828714
0.828641
0.828575
0.828517
0.828463
0.828417
0.828371
0.828334
0.828292
0.828268
0.82823
35.4961
45.3431
60.676
56.9549
33.7081
25.4847
19.9926
19.5215
36.2791
30.7936
25.5358
21.341
24.3917
29.8106
34.6694
19.9317
18.0914
18.5611
20.6345
23.5309
26.1114
24.0862
25.9389
27.6957
25.6052
28.6308
28.3973
22.6498
20.1137
22.2193
25.6283
22.3967
20.8763
22.6277
22.029
22.5302
23.9872
23.4244
22.736
25.2312
24.4254
26.0098
28.5838
28.7426
26.1004
29.395
27.3008
24.7791
23.7406
21.0772
16.1218
14.0873
14.6237
19.5929
25.9019
24.9131
23.3105
24.408
28.4509
31.9857
28.6621
23.5456
21.0633
18.7652
15.9196
14.508
15.2194
16.0936
13.7565
6.45633
1.95125
1.00288
0.868299
0.84444
0.837892
0.83562
0.834236
0.833219
0.832433
0.831807
0.831297
0.830874
0.830519
0.830218
0.82996
0.829737
0.829544
0.829376
0.829228
0.829098
0.828983
0.828881
0.82879
0.828709
0.828637
0.828572
0.828514
0.82846
0.828414
0.828369
0.828332
0.828289
0.828266
0.828229
32.0316
43.1475
53.1024
48.6009
33.5547
25.312
19.2242
18.6419
29.6475
27.7539
24.287
20.3697
23.4657
29.363
31.6052
19.5332
17.2698
17.3098
18.2617
19.5
22.5847
22.4275
26.0922
26.4694
23.9482
25.885
25.0485
20.3366
18.7289
20.8909
23.3714
20.6325
18.8582
19.9215
20.9053
22.896
23.4606
21.4191
20.5961
21.7006
23.292
25.7814
27.9705
26.5646
25.5589
27.0315
25.7518
22.6089
21.4772
18.8071
14.6374
13.5555
13.872
15.8574
20.0404
21.3303
22.1204
23.8556
26.6261
26.5659
22.5547
19.0647
17.2592
15.251
14.1574
14.5888
16.2579
16.4408
12.0349
4.20775
1.43001
0.92924
0.8584
0.842379
0.83754
0.835512
0.834172
0.833172
0.832396
0.831777
0.831272
0.830853
0.8305
0.830201
0.829945
0.829724
0.829532
0.829365
0.829218
0.829089
0.828975
0.828873
0.828783
0.828703
0.828631
0.828566
0.828509
0.828455
0.82841
0.828365
0.828328
0.828286
0.828263
0.828226
29.1351
40.1867
46.8739
42.4742
29.3748
24.0761
18.5346
17.9891
26.069
26.7184
22.9341
19.5894
22.2227
29.8314
28.6063
18.474
16.7963
16.488
16.9755
17.8563
19.3156
21.1189
24.9195
24.7704
23.1787
24.993
23.8106
18.8014
17.7536
19.549
21.5436
19.0821
17.6161
17.819
18.8324
22.1313
23.0718
20.4805
19.6831
20.4184
22.5315
25.51
27.3966
24.5004
23.559
23.2011
23.8713
21.1094
19.675
17.2121
13.8309
13.1824
13.4063
14.6057
16.6161
19.7014
24.4302
23.6907
22.6925
21.5211
18.2658
16.3305
15.2636
13.7546
13.4505
14.963
17.2892
16.2649
9.48646
2.74539
1.15312
0.890992
0.8518
0.840866
0.837234
0.835381
0.834078
0.833095
0.83233
0.831719
0.83122
0.830807
0.830459
0.830164
0.829912
0.829694
0.829505
0.82934
0.829196
0.829069
0.828956
0.828857
0.828768
0.828689
0.828618
0.828555
0.828498
0.828446
0.828401
0.828357
0.828321
0.82828
0.828257
0.828222
26.2635
31.484
40.5906
38.1433
24.3088
21.9632
17.8187
17.3601
23.3541
25.4944
22.2311
18.9523
21.3371
29.1502
25.4987
17.6002
16.1581
15.6421
16.1091
16.5964
17.6871
19.8282
24.258
23.4835
22.3804
24.2605
23.428
17.7048
17.0219
17.8722
19.6602
17.4891
16.8102
16.5515
17.6613
21.9834
22.9361
20.0966
19.1644
19.6854
21.6979
24.0656
24.1348
22.4259
21.3985
20.6771
22.0378
19.9145
18.3744
16.1458
13.1615
12.7607
13.114
14.1709
15.5131
16.7008
19.3705
22.8861
20.6994
17.2537
14.8304
14.2058
13.6719
12.8221
13.1241
15.6151
17.5534
14.8801
6.52062
1.89061
1.00426
0.870001
0.847326
0.839893
0.837018
0.835287
0.834025
0.833064
0.832313
0.83171
0.831216
0.830806
0.83046
0.830167
0.829916
0.829699
0.829511
0.829347
0.829203
0.829077
0.828964
0.828865
0.828776
0.828697
0.828627
0.828563
0.828506
0.828454
0.828409
0.828365
0.828328
0.828287
0.828264
0.828226
23.9027
26.0032
31.9296
31.9965
20.9165
20.6609
17.3588
16.8644
21.1123
22.5636
21.8688
18.5291
20.8959
28.3772
24.3421
16.7511
15.2735
14.2349
15.112
15.6278
16.5935
18.7758
22.9413
22.699
21.3627
22.6705
22.4803
17.045
16.108
16.799
17.325
16.404
16.3758
15.8112
16.8957
21.1921
21.9906
19.603
18.8649
19.1073
21.0698
22.4022
20.9602
20.4374
19.121
18.4231
20.4963
18.9318
17.3245
15.2307
12.7716
12.5608
12.9411
13.5965
14.3145
14.7965
16.9276
17.4848
16.6725
14.6549
12.5654
12.3018
12.3784
12.1369
12.9776
16.062
16.8434
12.2898
4.25414
1.41909
0.930228
0.858518
0.84415
0.839211
0.836893
0.835266
0.834031
0.833079
0.83233
0.831727
0.831232
0.830821
0.830474
0.830179
0.829927
0.829708
0.829518
0.829352
0.829207
0.829079
0.828965
0.828865
0.828775
0.828695
0.828624
0.828559
0.828502
0.828449
0.828404
0.828359
0.828323
0.828281
0.828259
0.828222
21.6187
23.3354
27.7271
28.0067
18.7046
19.0956
16.8985
16.4981
19.8567
20.6214
20.2987
18.3827
19.7527
27.0855
23.6246
16.3382
13.5872
13.168
13.4936
14.3427
15.7386
18.0182
22.184
21.5849
20.2187
21.5977
21.595
16.4048
15.4115
15.8912
16.0202
15.6548
15.6135
15.1068
16.291
20.326
21.1954
19.2165
18.7571
18.7992
20.6401
20.4042
18.3955
18.093
16.9649
16.8191
19.0483
18.0842
16.5751
14.6249
12.4568
12.1379
12.5327
13.1998
13.5519
13.4088
15.0807
15.4414
14.5713
13.088
11.3256
10.7776
11.0685
11.5279
13.0625
15.8375
14.7797
8.19821
2.45165
1.09848
0.881416
0.849916
0.842159
0.838952
0.836796
0.835163
0.833918
0.832962
0.832214
0.831615
0.831125
0.830719
0.830378
0.830089
0.829841
0.829628
0.829442
0.829281
0.82914
0.829016
0.828906
0.828809
0.828723
0.828646
0.828578
0.828516
0.828462
0.828412
0.828369
0.828326
0.828292
0.828253
0.828231
0.828199
14.4264
12.6879
13.8729
12.9338
12.7872
13.1127
14.0389
14.751
15.363
15.0926
15.0225
14.7111
15.9115
20.6242
23.1816
15.1974
12.4292
12.4054
11.6168
12.0711
14.5367
15.4356
15.4173
15.0345
15.2946
15.507
14.8638
13.8218
12.7955
11.6057
11.9569
12.1584
11.4296
11.444
11.9742
15.7043
18.0724
17.4682
15.2929
13.1493
13.3228
13.302
12.4715
12.4874
12.638
12.8362
13.8031
14.2426
13.4177
12.0559
10.738
10.3029
10.3164
10.535
10.2747
9.57257
9.65328
9.52639
9.46961
7.89421
6.0184
5.54063
5.66436
5.77426
5.46612
4.49408
3.0675
1.675
1.01891
0.870768
0.846361
0.841371
0.839168
0.837654
0.836116
0.834753
0.833646
0.832768
0.832068
0.831502
0.831036
0.830648
0.830321
0.830043
0.829805
0.8296
0.829422
0.829266
0.82913
0.82901
0.828904
0.82881
0.828726
0.828651
0.828585
0.828525
0.828472
0.828422
0.82838
0.828338
0.828304
0.828266
0.828244
0.828208
11.3262
11.3745
12.3879
12.1204
13.1926
12.8084
13.2615
15.1412
17.4449
16.2201
13.0323
14.712
13.5573
11.209
14.2531
15.7265
17.2868
15.9716
13.054
13.0964
12.99
13.2766
14.6996
17.3423
17.5521
13.7401
10.3991
10.9724
11.6996
10.5723
10.3358
9.96129
9.76462
9.77778
9.3331
8.49638
8.70939
8.50233
8.55657
9.90019
11.5468
11.0916
9.8893
9.26375
9.48244
9.69807
9.2562
8.60727
7.9607
7.76677
7.7511
7.50055
7.38668
7.59822
7.50281
6.91679
6.6075
6.55528
6.60207
6.01516
4.6126
3.30363
2.44175
1.9045
1.54194
1.25295
1.03505
0.903491
0.855227
0.843097
0.839764
0.838197
0.837058
0.836034
0.834976
0.833985
0.833118
0.832388
0.831782
0.831277
0.830854
0.830497
0.830193
0.829933
0.829709
0.829516
0.829347
0.8292
0.82907
0.828956
0.828855
0.828766
0.828686
0.828615
0.828552
0.828495
0.828445
0.828398
0.828358
0.828318
0.828286
0.82825
0.828231
0.828197
9.24767
9.17683
9.07676
9.02763
8.84342
9.0998
9.54248
9.70827
9.56681
9.36329
8.90691
8.81505
8.84722
8.90029
9.17059
9.06363
8.5978
7.96926
7.65522
7.7248
7.70555
7.61821
8.27364
10.7253
14.2985
14.2805
13.0212
13.967
15.151
12.2412
9.58861
9.57798
9.41222
9.16817
8.66772
7.68917
6.50678
6.06531
6.11405
6.85689
8.1123
8.41557
8.67
8.56562
8.12064
7.24562
6.11557
5.62691
5.56322
5.55728
5.49206
5.49361
5.74896
6.47628
7.28594
7.20386
6.88224
6.32491
5.69795
4.46534
2.51441
1.53841
1.21141
1.0458
0.948277
0.891315
0.860594
0.846279
0.840264
0.838028
0.83722
0.836528
0.835704
0.834805
0.833946
0.833156
0.832451
0.831843
0.831327
0.830891
0.830522
0.830207
0.829939
0.829708
0.82951
0.829337
0.829187
0.829056
0.828941
0.82884
0.828751
0.828672
0.828601
0.828539
0.828483
0.828433
0.828389
0.828348
0.828313
0.828278
0.82825
0.828219
0.828202
0.828172
10.5964
9.95363
8.97677
8.00943
7.69724
7.62797
7.57678
7.58736
7.49989
7.28067
6.87562
6.5459
6.45722
6.47188
6.52045
6.43319
6.25346
6.03765
5.78348
5.64441
5.43027
5.36289
5.48724
6.03142
7.89072
10.6809
11.5293
12.672
13.189
12.0361
10.593
10.5571
10.5681
10.0557
8.84794
7.22865
6.15113
5.70149
5.54615
5.539
5.50924
5.60708
5.91158
6.07435
6.00975
5.80179
5.41991
5.25432
5.26533
5.34395
5.33602
5.16265
5.0917
5.276
5.75655
6.70435
6.80808
5.80662
4.29384
2.56959
1.48499
1.11236
0.986538
0.92545
0.887324
0.862214
0.847723
0.840855
0.83822
0.837129
0.836365
0.835584
0.834769
0.833995
0.833274
0.832607
0.832008
0.831486
0.831036
0.830651
0.830322
0.83004
0.829797
0.829588
0.829407
0.829249
0.829111
0.828991
0.828885
0.828791
0.828708
0.828635
0.82857
0.828512
0.82846
0.828414
0.828373
0.828334
0.828302
0.828269
0.828243
0.828214
0.828199
0.82817
9.02371
8.57907
8.28212
8.03521
7.70816
7.20456
6.8861
6.69905
6.51826
6.29871
6.10983
5.95616
5.75069
5.58151
5.49913
5.41536
5.29818
5.16272
4.99674
4.87292
4.71741
4.52858
4.49248
4.62381
5.12438
6.22785
7.66257
9.38127
10.5575
10.514
10.3136
10.6083
11.0002
10.6195
9.48522
7.78119
6.86227
6.54077
6.27151
6.03836
5.89092
5.67392
5.37432
5.00486
4.71671
4.63433
4.69838
4.91226
5.37598
5.54658
5.48483
5.26942
5.00382
5.06111
5.53501
6.22093
5.83132
4.14853
2.37774
1.46437
1.06643
0.931255
0.888523
0.866459
0.851518
0.843559
0.84016
0.838389
0.837189
0.836268
0.835445
0.834665
0.83393
0.833257
0.832638
0.832071
0.831565
0.831118
0.830729
0.830393
0.830102
0.829851
0.829634
0.829446
0.829282
0.82914
0.829015
0.828906
0.82881
0.828725
0.82865
0.828583
0.828524
0.828472
0.828425
0.828382
0.828345
0.82831
0.828281
0.828252
0.828229
0.828202
0.828188
0.828162
7.99683
7.64821
7.425
7.33228
7.15513
6.67308
6.32746
6.35502
6.48579
6.47627
6.33925
6.05407
5.64838
5.20839
4.83976
4.49825
4.2239
4.11324
4.11229
4.15441
4.17884
4.21743
4.21305
4.20751
4.28891
4.53965
5.04218
5.85328
6.92143
7.77445
8.35008
8.91958
9.52666
9.64467
9.41273
8.77612
7.86615
7.613
7.40965
7.09257
6.5906
5.93323
5.19342
4.64779
4.4635
4.50454
4.78165
5.51936
6.11234
5.99229
5.38783
4.66766
4.51645
4.65599
5.23499
5.35399
4.34745
2.44888
1.45024
1.07571
0.937306
0.891987
0.871597
0.857232
0.847436
0.841954
0.839066
0.837449
0.836349
0.835447
0.834648
0.833921
0.83326
0.832659
0.832113
0.83162
0.831181
0.830794
0.830455
0.83016
0.829903
0.82968
0.829487
0.829319
0.829172
0.829044
0.828932
0.828833
0.828746
0.82867
0.828602
0.828542
0.828488
0.828441
0.828398
0.82836
0.828327
0.828295
0.828269
0.828242
0.828221
0.828197
0.828185
0.828161
8.12312
7.80545
7.41852
7.09985
6.93025
6.91771
7.08779
7.16642
6.91632
6.23394
5.21285
4.34953
3.85571
3.59267
3.4625
3.42534
3.44906
3.5472
3.72883
3.97127
4.07055
4.16688
4.22869
4.21233
4.14217
4.10472
4.17191
4.39146
4.79714
5.29564
5.86765
6.46172
7.1008
7.95623
8.4717
8.37311
8.00382
7.53999
7.12095
6.6818
6.17559
5.61736
5.06175
4.69276
4.59012
4.65716
4.99172
5.77397
6.19118
5.83416
4.69324
4.02207
4.00962
4.25095
4.43977
3.86149
2.39375
1.41066
1.06164
0.93245
0.881459
0.859664
0.850207
0.845027
0.84204
0.839914
0.83806
0.836665
0.835592
0.83471
0.833953
0.833281
0.832678
0.832137
0.831654
0.831223
0.830841
0.830503
0.830207
0.829948
0.829723
0.829526
0.829354
0.829204
0.829073
0.828958
0.828858
0.828769
0.828691
0.828622
0.828561
0.828507
0.828459
0.828416
0.828378
0.828343
0.828314
0.828284
0.828261
0.828237
0.828219
0.828197
0.828185
0.828164
7.25993
7.26632
7.33719
7.5926
7.72745
7.53673
6.95589
5.95979
4.75091
3.93118
3.43424
3.11586
3.01355
3.0067
3.04314
3.11304
3.24339
3.48671
3.72763
3.95399
3.94207
3.91086
3.93728
3.97317
3.97934
3.98122
3.94783
3.98729
4.12008
4.33813
4.64617
5.04406
5.53705
6.24289
7.26859
7.67177
7.58329
7.32498
6.98511
6.57428
6.02915
5.37707
4.92533
4.72225
4.71357
4.87208
5.47567
6.19723
6.05068
5.038
3.74851
3.42892
3.46162
3.50673
3.14946
2.19026
1.37884
1.03947
0.923912
0.880402
0.861611
0.853944
0.848692
0.844218
0.840923
0.838621
0.837042
0.835832
0.834849
0.834032
0.83333
0.832714
0.832168
0.831685
0.831257
0.830878
0.830543
0.830248
0.829989
0.829761
0.829562
0.829388
0.829236
0.829103
0.828987
0.828884
0.828794
0.828715
0.828645
0.828583
0.828529
0.82848
0.828437
0.828398
0.828364
0.828333
0.828306
0.82828
0.828259
0.828236
0.828221
0.828201
0.82819
0.828171
6.94414
6.88921
6.8039
6.56541
5.79745
4.52809
3.69798
3.28327
3.00673
2.78258
2.66924
2.68203
2.7505
2.86189
3.00872
3.17567
3.39047
3.5432
3.63005
3.62866
3.59251
3.51683
3.52157
3.58925
3.74017
3.81256
3.80708
3.83086
3.89982
4.01285
4.17719
4.41662
4.7578
5.29089
6.18043
7.13276
7.31304
7.22495
6.96522
6.5104
5.8708
5.21091
4.86264
4.77018
4.82563
5.19595
5.98335
6.07317
5.30873
3.59982
2.75907
2.65116
2.58962
2.32894
1.79597
1.29116
1.0181
0.913532
0.875112
0.858464
0.850793
0.847655
0.844556
0.841616
0.839207
0.837438
0.836101
0.835032
0.834152
0.83341
0.83277
0.832213
0.831723
0.831292
0.830913
0.830578
0.830284
0.830024
0.829797
0.829597
0.829422
0.829268
0.829134
0.829016
0.828912
0.828821
0.828741
0.82867
0.828608
0.828553
0.828504
0.82846
0.828421
0.828387
0.828356
0.828328
0.828304
0.82828
0.828262
0.828241
0.828227
0.82821
0.828199
0.828183
5.31695
4.90342
4.46936
3.92374
3.26452
2.85447
2.64848
2.50229
2.42163
2.43501
2.50353
2.64201
2.8653
3.13452
3.35348
3.4742
3.50853
3.50132
3.47822
3.43473
3.34373
3.25602
3.25579
3.33354
3.50797
3.63942
3.75693
3.84425
3.90235
3.96281
4.04968
4.21283
4.49181
4.99166
5.90053
7.0611
7.34028
7.2722
6.98764
6.39222
5.49539
4.86461
4.70011
4.73204
5.00435
5.73347
6.00692
5.50773
3.89492
2.3943
1.97617
1.83801
1.68323
1.44346
1.17121
0.989112
0.90347
0.869907
0.856247
0.850572
0.848204
0.845269
0.842097
0.839628
0.837797
0.836381
0.835242
0.834304
0.833519
0.83285
0.832274
0.831773
0.831335
0.830951
0.830615
0.830319
0.830059
0.829831
0.829631
0.829455
0.829301
0.829166
0.829047
0.828942
0.82885
0.82877
0.828698
0.828635
0.82858
0.82853
0.828487
0.828448
0.828413
0.828382
0.828354
0.828329
0.828308
0.828287
0.82827
0.828251
0.828239
0.828223
0.828212
0.828199
2.58426
2.34408
2.29933
2.25196
2.18574
2.11744
2.08716
2.10686
2.18772
2.32932
2.57622
2.94683
3.3327
3.50836
3.5985
3.60102
3.56961
3.48407
3.369
3.24895
3.1139
3.07588
3.09013
3.17691
3.33855
3.55818
3.77278
3.8592
3.895
3.9292
4.00406
4.18479
4.50472
5.08333
6.14915
7.2882
7.42627
7.25347
6.66076
5.63385
4.76609
4.50071
4.54897
4.82016
5.45679
5.82479
5.52343
4.15885
2.31431
1.61561
1.41531
1.30327
1.18447
1.05942
0.956812
0.896363
0.866901
0.854083
0.849391
0.847621
0.845219
0.842292
0.839936
0.838112
0.836651
0.83546
0.834475
0.83365
0.832951
0.832354
0.831838
0.83139
0.830999
0.830657
0.830359
0.830097
0.829868
0.829667
0.82949
0.829336
0.8292
0.82908
0.828975
0.828883
0.828801
0.82873
0.828666
0.828611
0.828561
0.828517
0.828478
0.828443
0.828412
0.828384
0.82836
0.828337
0.828317
0.828299
0.828284
0.828267
0.828255
0.828241
0.82823
0.828221
1.818
1.78372
1.7783
1.78998
1.80125
1.8243
1.86773
1.97478
2.16118
2.50872
3.01582
3.46618
3.68914
3.7686
3.79162
3.76305
3.65438
3.46557
3.26055
3.12866
3.03104
2.98362
2.99126
3.07192
3.25862
3.58066
3.83084
3.86636
3.85338
3.87085
3.98713
4.23601
4.68405
5.48325
6.91328
7.58437
7.4825
6.87746
5.65718
4.66008
4.36466
4.3952
4.62393
5.14019
5.52723
5.37862
4.28519
2.42873
1.50738
1.22886
1.12115
1.04246
0.974578
0.921195
0.885769
0.86388
0.852063
0.847428
0.846322
0.844575
0.842176
0.840055
0.838324
0.836878
0.835667
0.834651
0.833795
0.83307
0.832451
0.831919
0.831459
0.831059
0.830711
0.830407
0.830142
0.82991
0.829707
0.829529
0.829374
0.829237
0.829117
0.829012
0.828919
0.828837
0.828765
0.828702
0.828645
0.828596
0.828552
0.828512
0.828478
0.828446
0.828419
0.828394
0.828371
0.828351
0.828333
0.828317
0.828302
0.828288
0.828277
0.828264
0.828253
0.828246
1.46852
1.46547
1.465
1.48872
1.53936
1.62656
1.74794
1.9286
2.25914
2.76765
3.36648
3.70782
3.85415
3.93407
3.93377
3.87264
3.71519
3.45546
3.19527
3.04204
2.99079
2.97749
3.01646
3.1077
3.30602
3.67972
3.86505
3.8357
3.79234
3.85757
4.0671
4.48936
5.20246
6.54207
7.60379
7.52311
6.77515
5.39939
4.54822
4.30477
4.32366
4.51692
4.87649
5.15791
5.07516
4.19395
2.50701
1.48107
1.13613
1.01776
0.96099
0.921091
0.891276
0.871619
0.858316
0.849574
0.845751
0.845196
0.844023
0.842044
0.840104
0.838461
0.837055
0.83585
0.834822
0.833947
0.833201
0.832563
0.832015
0.831542
0.831133
0.830777
0.830467
0.830196
0.829961
0.829755
0.829575
0.829418
0.82928
0.829159
0.829053
0.82896
0.828878
0.828805
0.828742
0.828685
0.828635
0.828591
0.828552
0.828517
0.828485
0.828457
0.828433
0.82841
0.82839
0.828372
0.828355
0.82834
0.828327
0.828314
0.828303
0.828292
0.82828
0.828277
1.29503
1.30419
1.31151
1.34102
1.41709
1.53872
1.71341
1.95867
2.3517
2.95176
3.56776
3.82203
3.93309
4.01817
4.02423
3.95479
3.80751
3.51924
3.22069
3.12558
3.09105
3.08633
3.11132
3.20028