/*--------------------------------*- C++ -*----------------------------------*\
| =========                 |                                                 |
| \\      /  F ield         | OpenFOAM: The Open Source CFD Toolbox           |
|  \\    /   O peration     | Version:  v1912                                 |
|   \\  /    A nd           | Website:  www.openfoam.com                      |
|    \\/     M anipulation  |                                                 |
\*---------------------------------------------------------------------------*/
FoamFile
{
    version     2.0;
    format      ascii;
    class       volScalarField;
    location    "70";
    object      k;
}
// * * * * * * * * * * * * * * * * * * * * * * * * * * * * * * * * * * * * * //

dimensions      [0 2 -2 0 0 0 0];


internalField   nonuniform List<scalar> 
14268
(
7.46454e-07
7.53326e-07
7.2416e-07
6.73422e-07
6.42908e-07
6.2744e-07
6.17655e-07
6.09114e-07
5.99883e-07
5.89626e-07
5.78687e-07
5.68621e-07
5.60485e-07
5.5443e-07
5.50706e-07
5.48949e-07
5.48504e-07
5.49107e-07
5.49778e-07
5.50196e-07
5.50606e-07
5.51328e-07
5.517e-07
5.514e-07
5.50915e-07
5.50378e-07
5.49589e-07
5.48229e-07
5.46739e-07
5.45511e-07
5.44527e-07
5.442e-07
5.44975e-07
5.46447e-07
5.48437e-07
5.51612e-07
5.56724e-07
5.63635e-07
5.72058e-07
5.81979e-07
5.93335e-07
6.05843e-07
6.1864e-07
6.31143e-07
6.42832e-07
6.52576e-07
6.58075e-07
6.59267e-07
6.5714e-07
6.52647e-07
6.47163e-07
6.41738e-07
6.36573e-07
6.31798e-07
6.27719e-07
6.24375e-07
6.21706e-07
6.19547e-07
6.1768e-07
6.15901e-07
6.14054e-07
6.12013e-07
6.09706e-07
6.07169e-07
6.0452e-07
6.02068e-07
6.00135e-07
5.9848e-07
5.96916e-07
5.95332e-07
5.93894e-07
5.92791e-07
5.91927e-07
5.91204e-07
5.90545e-07
5.89868e-07
5.89093e-07
5.88147e-07
5.86976e-07
5.85566e-07
5.83958e-07
5.82249e-07
5.80548e-07
5.78952e-07
5.77529e-07
5.76298e-07
5.75239e-07
5.74389e-07
5.74145e-07
5.74715e-07
5.76095e-07
5.7828e-07
5.81219e-07
5.84835e-07
5.89014e-07
5.93595e-07
5.98433e-07
6.03544e-07
6.08541e-07
6.1302e-07
6.16957e-07
6.20264e-07
6.22924e-07
6.24946e-07
6.26407e-07
6.27449e-07
6.28212e-07
6.28809e-07
6.29323e-07
6.29794e-07
6.30211e-07
6.30508e-07
6.30578e-07
6.30279e-07
6.29428e-07
6.28049e-07
6.26567e-07
6.24864e-07
6.22691e-07
6.19948e-07
6.16704e-07
6.13166e-07
6.09602e-07
6.06341e-07
6.03396e-07
6.00865e-07
5.98763e-07
5.96965e-07
5.95332e-07
5.93788e-07
5.92244e-07
5.90667e-07
5.89054e-07
5.8743e-07
5.85847e-07
5.8436e-07
5.8298e-07
5.81703e-07
5.80605e-07
5.80283e-07
5.8099e-07
5.82658e-07
5.85192e-07
5.88429e-07
5.92104e-07
5.96e-07
6.00095e-07
6.04136e-07
6.07959e-07
6.11341e-07
6.14244e-07
6.16749e-07
6.18846e-07
6.2051e-07
6.21727e-07
6.22496e-07
6.22829e-07
6.22763e-07
6.22288e-07
6.21168e-07
6.19838e-07
6.18552e-07
6.17225e-07
6.16588e-07
7.5499e-08
6.8549e-08
8.9039e-08
1.38482e-07
1.98695e-07
2.39244e-07
2.61842e-07
2.72506e-07
2.75938e-07
2.76171e-07
2.74859e-07
2.72632e-07
2.70772e-07
2.69425e-07
2.68404e-07
2.67475e-07
2.66453e-07
2.64544e-07
2.62751e-07
2.61255e-07
2.59687e-07
2.57911e-07
2.5623e-07
2.54883e-07
2.53403e-07
2.51638e-07
2.49503e-07
2.47008e-07
2.44635e-07
2.42684e-07
2.41166e-07
2.40237e-07
2.40011e-07
2.40664e-07
2.42092e-07
2.44269e-07
2.47252e-07
2.5114e-07
2.56007e-07
2.61912e-07
2.68876e-07
2.76772e-07
2.8557e-07
2.94768e-07
3.03849e-07
3.126e-07
3.20577e-07
3.27315e-07
3.32389e-07
3.35589e-07
3.36976e-07
3.36907e-07
3.35848e-07
3.34394e-07
3.32799e-07
3.31083e-07
3.29273e-07
3.27293e-07
3.24958e-07
3.22061e-07
3.18491e-07
3.14261e-07
3.09449e-07
3.0422e-07
2.98901e-07
2.93526e-07
2.88016e-07
2.83164e-07
2.78925e-07
2.75666e-07
2.73228e-07
2.71599e-07
2.70476e-07
2.69649e-07
2.68843e-07
2.67811e-07
2.66415e-07
2.64653e-07
2.62524e-07
2.60017e-07
2.57218e-07
2.54319e-07
2.51538e-07
2.49102e-07
2.47218e-07
2.46053e-07
2.45707e-07
2.46249e-07
2.47456e-07
2.49365e-07
2.51963e-07
2.55244e-07
2.59171e-07
2.63696e-07
2.68752e-07
2.74273e-07
2.80158e-07
2.86331e-07
2.92497e-07
2.98535e-07
3.04302e-07
3.09566e-07
3.14287e-07
3.18426e-07
3.2205e-07
3.25305e-07
3.28393e-07
3.31518e-07
3.3486e-07
3.38527e-07
3.42504e-07
3.46654e-07
3.50679e-07
3.54204e-07
3.56772e-07
3.57874e-07
3.57166e-07
3.54227e-07
3.49028e-07
3.4182e-07
3.33042e-07
3.2328e-07
3.13127e-07
3.02888e-07
2.93198e-07
2.84211e-07
2.7604e-07
2.68684e-07
2.62176e-07
2.56349e-07
2.51115e-07
2.46381e-07
2.421e-07
2.38291e-07
2.35031e-07
2.32426e-07
2.30613e-07
2.29702e-07
2.29942e-07
2.30997e-07
2.32925e-07
2.35748e-07
2.39448e-07
2.43973e-07
2.49239e-07
2.55192e-07
2.6173e-07
2.68476e-07
2.7537e-07
2.82397e-07
2.8938e-07
2.96144e-07
3.02606e-07
3.08654e-07
3.14202e-07
3.19117e-07
3.23207e-07
3.26459e-07
3.28725e-07
3.30006e-07
3.3019e-07
3.29237e-07
3.26932e-07
3.23336e-07
9.38785e-09
1.07807e-08
1.80687e-08
3.54456e-08
6.33187e-08
9.20932e-08
1.09827e-07
1.1905e-07
1.22515e-07
1.23161e-07
1.22494e-07
1.20814e-07
1.19045e-07
1.17568e-07
1.16281e-07
1.1509e-07
1.1386e-07
1.1237e-07
1.10824e-07
1.09263e-07
1.07477e-07
1.0542e-07
1.03264e-07
1.0098e-07
9.85143e-08
9.59242e-08
9.33324e-08
9.08572e-08
8.85993e-08
8.66445e-08
8.50758e-08
8.39909e-08
8.34526e-08
8.35921e-08
8.42918e-08
8.54664e-08
8.71826e-08
8.95047e-08
9.24966e-08
9.62087e-08
1.0067e-07
1.05841e-07
1.11674e-07
1.17938e-07
1.24319e-07
1.30557e-07
1.36305e-07
1.41213e-07
1.44984e-07
1.47475e-07
1.48743e-07
1.49028e-07
1.48676e-07
1.47966e-07
1.47086e-07
1.46126e-07
1.45107e-07
1.43956e-07
1.42531e-07
1.40688e-07
1.38347e-07
1.35518e-07
1.32289e-07
1.2881e-07
1.25276e-07
1.21798e-07
1.18417e-07
1.1549e-07
1.13039e-07
1.11207e-07
1.09892e-07
1.09057e-07
1.08543e-07
1.08217e-07
1.07923e-07
1.07519e-07
1.06911e-07
1.06062e-07
1.04964e-07
1.03645e-07
1.02173e-07
1.00662e-07
9.9227e-08
9.79868e-08
9.70435e-08
9.64746e-08
9.63259e-08
9.66198e-08
9.72187e-08
9.81332e-08
9.93658e-08
1.00922e-07
1.02799e-07
1.0499e-07
1.07476e-07
1.10238e-07
1.13231e-07
1.16415e-07
1.19661e-07
1.22889e-07
1.26015e-07
1.28912e-07
1.31537e-07
1.33863e-07
1.35923e-07
1.37796e-07
1.39599e-07
1.41456e-07
1.43493e-07
1.45789e-07
1.48353e-07
1.51116e-07
1.53902e-07
1.56448e-07
1.58442e-07
1.59519e-07
1.59349e-07
1.5766e-07
1.54395e-07
1.49812e-07
1.44279e-07
1.3824e-07
1.32117e-07
1.26198e-07
1.20775e-07
1.15952e-07
1.11762e-07
1.08157e-07
1.05099e-07
1.02472e-07
1.00199e-07
9.82074e-08
9.64552e-08
9.49351e-08
9.36683e-08
9.26883e-08
9.20453e-08
9.17836e-08
9.20061e-08
9.25362e-08
9.33996e-08
9.46166e-08
9.61913e-08
9.81202e-08
1.0039e-07
1.02992e-07
1.05887e-07
1.08949e-07
1.1215e-07
1.15482e-07
1.18872e-07
1.22235e-07
1.25523e-07
1.28675e-07
1.3163e-07
1.34311e-07
1.36611e-07
1.38484e-07
1.39828e-07
1.4063e-07
1.40759e-07
1.40193e-07
1.38813e-07
1.36637e-07
5.48192e-09
6.25328e-09
9.50059e-09
1.76461e-08
3.19974e-08
4.95584e-08
6.16078e-08
6.81026e-08
7.09943e-08
7.18227e-08
7.17555e-08
7.11941e-08
7.03978e-08
6.96692e-08
6.90627e-08
6.85365e-08
6.8032e-08
6.74829e-08
6.69089e-08
6.63111e-08
6.56212e-08
6.48453e-08
6.40342e-08
6.31853e-08
6.23156e-08
6.14618e-08
6.06701e-08
5.99746e-08
5.939e-08
5.89278e-08
5.86068e-08
5.84349e-08
5.84227e-08
5.85927e-08
5.89154e-08
5.93853e-08
6.00266e-08
6.08672e-08
6.19433e-08
6.32855e-08
6.49216e-08
6.68502e-08
6.90546e-08
7.1458e-08
7.3941e-08
7.63821e-08
7.86294e-08
8.05409e-08
8.20057e-08
8.29791e-08
8.34939e-08
8.36509e-08
8.35789e-08
8.33714e-08
8.30714e-08
8.27262e-08
8.23486e-08
8.19068e-08
8.13418e-08
8.05971e-08
7.96467e-08
7.85068e-08
7.72286e-08
7.58838e-08
7.45529e-08
7.32899e-08
7.21221e-08
7.11713e-08
7.0408e-08
6.98367e-08
6.94338e-08
6.91962e-08
6.90579e-08
6.89775e-08
6.8906e-08
6.88002e-08
6.86312e-08
6.83886e-08
6.80747e-08
6.77037e-08
6.73026e-08
6.69047e-08
6.65435e-08
6.62491e-08
6.60444e-08
6.59414e-08
6.59542e-08
6.60811e-08
6.62941e-08
6.6597e-08
6.69925e-08
6.74864e-08
6.8082e-08
6.87811e-08
6.95819e-08
7.04818e-08
7.14642e-08
7.25169e-08
7.35907e-08
7.4674e-08
7.57342e-08
7.67269e-08
7.76431e-08
7.84757e-08
7.92368e-08
7.99533e-08
8.06633e-08
8.14092e-08
8.22333e-08
8.31625e-08
8.42003e-08
8.53212e-08
8.64589e-08
8.75121e-08
8.83644e-08
8.88594e-08
8.87986e-08
8.80558e-08
8.66183e-08
8.46355e-08
8.23034e-08
7.98402e-08
7.7433e-08
7.52007e-08
7.32581e-08
7.16157e-08
7.02383e-08
6.91019e-08
6.81826e-08
6.74274e-08
6.68042e-08
6.62841e-08
6.58496e-08
6.54956e-08
6.52232e-08
6.50308e-08
6.49176e-08
6.49053e-08
6.50137e-08
6.5186e-08
6.54451e-08
6.57992e-08
6.62549e-08
6.68181e-08
6.7497e-08
6.83035e-08
6.92276e-08
7.02172e-08
7.12747e-08
7.24174e-08
7.36131e-08
7.4826e-08
7.60339e-08
7.72141e-08
7.83434e-08
7.93902e-08
8.03103e-08
8.10888e-08
8.16788e-08
8.20761e-08
8.22014e-08
8.20455e-08
8.15248e-08
8.06271e-08
4.6588e-09
5.24157e-09
7.64695e-09
1.36241e-08
2.42626e-08
3.782e-08
4.74907e-08
5.27446e-08
5.52246e-08
5.61861e-08
5.63757e-08
5.62627e-08
5.59995e-08
5.57367e-08
5.55349e-08
5.53986e-08
5.52967e-08
5.51971e-08
5.50891e-08
5.49667e-08
5.47999e-08
5.46014e-08
5.43844e-08
5.4154e-08
5.39206e-08
5.36961e-08
5.34924e-08
5.33195e-08
5.31888e-08
5.31078e-08
5.30712e-08
5.30828e-08
5.31432e-08
5.32542e-08
5.34041e-08
5.35859e-08
5.38087e-08
5.40866e-08
5.44402e-08
5.48932e-08
5.54762e-08
5.62101e-08
5.7099e-08
5.81258e-08
5.92446e-08
6.03978e-08
6.1498e-08
6.24632e-08
6.32276e-08
6.37596e-08
6.40686e-08
6.41976e-08
6.42094e-08
6.41652e-08
6.40774e-08
6.39702e-08
6.38507e-08
6.37018e-08
6.34919e-08
6.31922e-08
6.2791e-08
6.22974e-08
6.17372e-08
6.11453e-08
6.05609e-08
6.0012e-08
5.95188e-08
5.91458e-08
5.88658e-08
5.86541e-08
5.85213e-08
5.84669e-08
5.84573e-08
5.84722e-08
5.84883e-08
5.84845e-08
5.84461e-08
5.83682e-08
5.82527e-08
5.81083e-08
5.795e-08
5.77944e-08
5.76578e-08
5.75539e-08
5.74919e-08
5.74758e-08
5.7512e-08
5.75928e-08
5.76987e-08
5.78308e-08
5.79911e-08
5.8185e-08
5.84176e-08
5.86944e-08
5.90193e-08
5.93965e-08
5.98208e-08
6.02851e-08
6.07676e-08
6.12719e-08
6.17738e-08
6.22462e-08
6.26822e-08
6.30748e-08
6.34284e-08
6.37571e-08
6.40821e-08
6.44288e-08
6.4824e-08
6.5287e-08
6.58246e-08
6.6426e-08
6.70532e-08
6.76382e-08
6.81067e-08
6.83674e-08
6.83406e-08
6.79644e-08
6.72434e-08
6.62628e-08
6.51304e-08
6.39584e-08
6.28346e-08
6.18214e-08
6.09868e-08
6.03154e-08
5.97614e-08
5.93229e-08
5.8987e-08
5.87234e-08
5.85161e-08
5.83508e-08
5.82204e-08
5.81246e-08
5.80655e-08
5.80403e-08
5.80399e-08
5.80865e-08
5.81759e-08
5.82652e-08
5.83701e-08
5.84929e-08
5.86379e-08
5.88122e-08
5.90291e-08
5.93062e-08
5.96418e-08
6.00049e-08
6.04077e-08
6.08795e-08
6.13973e-08
6.19416e-08
6.24998e-08
6.30601e-08
6.36074e-08
6.41199e-08
6.45675e-08
6.49346e-08
6.51897e-08
6.5332e-08
6.53428e-08
6.52231e-08
6.4915e-08
6.44005e-08
4.31737e-09
4.83596e-09
6.96818e-09
1.22526e-08
2.17042e-08
3.40149e-08
4.31187e-08
4.81018e-08
5.04985e-08
5.15107e-08
5.18786e-08
5.19836e-08
5.19977e-08
5.20028e-08
5.20275e-08
5.20875e-08
5.21661e-08
5.22457e-08
5.23169e-08
5.23793e-08
5.2414e-08
5.24308e-08
5.24375e-08
5.24367e-08
5.2432e-08
5.24292e-08
5.24351e-08
5.24559e-08
5.24964e-08
5.25575e-08
5.26357e-08
5.27281e-08
5.28321e-08
5.29459e-08
5.30621e-08
5.31772e-08
5.3294e-08
5.3419e-08
5.35614e-08
5.37325e-08
5.39454e-08
5.42111e-08
5.45544e-08
5.49752e-08
5.54534e-08
5.59673e-08
5.6474e-08
5.69244e-08
5.7283e-08
5.75331e-08
5.768e-08
5.77454e-08
5.77607e-08
5.77642e-08
5.77522e-08
5.77317e-08
5.77077e-08
5.76713e-08
5.76045e-08
5.7492e-08
5.73317e-08
5.71323e-08
5.69033e-08
5.66623e-08
5.64338e-08
5.62338e-08
5.6073e-08
5.59886e-08
5.59475e-08
5.59217e-08
5.59226e-08
5.59533e-08
5.59936e-08
5.6036e-08
5.60719e-08
5.60956e-08
5.61056e-08
5.61017e-08
5.60889e-08
5.60731e-08
5.60609e-08
5.60587e-08
5.60719e-08
5.61025e-08
5.61491e-08
5.62068e-08
5.62724e-08
5.63411e-08
5.64085e-08
5.64744e-08
5.65399e-08
5.6609e-08
5.6686e-08
5.67754e-08
5.68808e-08
5.70062e-08
5.71514e-08
5.73115e-08
5.74784e-08
5.76581e-08
5.78377e-08
5.80027e-08
5.81542e-08
5.8291e-08
5.84174e-08
5.85401e-08
5.86682e-08
5.88124e-08
5.89823e-08
5.91847e-08
5.9421e-08
5.96849e-08
5.99576e-08
6.02076e-08
6.04018e-08
6.05008e-08
6.04635e-08
6.02568e-08
5.98869e-08
5.94068e-08
5.88744e-08
5.83533e-08
5.78852e-08
5.74945e-08
5.72215e-08
5.70418e-08
5.69105e-08
5.68302e-08
5.67951e-08
5.67875e-08
5.6801e-08
5.68298e-08
5.68733e-08
5.6934e-08
5.70082e-08
5.70864e-08
5.71678e-08
5.72494e-08
5.73229e-08
5.73772e-08
5.74174e-08
5.74435e-08
5.74585e-08
5.74682e-08
5.7484e-08
5.75244e-08
5.75932e-08
5.76636e-08
5.77513e-08
5.78871e-08
5.80513e-08
5.82313e-08
5.842e-08
5.86112e-08
5.88021e-08
5.89814e-08
5.91381e-08
5.92709e-08
5.93681e-08
5.94312e-08
5.94402e-08
5.94103e-08
5.92882e-08
5.90352e-08
4.10809e-09
4.58481e-09
6.5467e-09
1.14466e-08
2.03483e-08
3.23617e-08
4.17453e-08
4.70021e-08
4.9596e-08
5.07368e-08
5.12135e-08
5.14224e-08
5.15364e-08
5.16271e-08
5.17217e-08
5.18401e-08
5.19641e-08
5.20848e-08
5.21953e-08
5.2296e-08
5.23801e-08
5.24496e-08
5.2515e-08
5.25825e-08
5.26523e-08
5.27331e-08
5.28291e-08
5.29429e-08
5.30741e-08
5.3217e-08
5.33625e-08
5.35021e-08
5.36282e-08
5.3734e-08
5.38141e-08
5.38654e-08
5.38895e-08
5.38992e-08
5.39057e-08
5.393e-08
5.39955e-08
5.41176e-08
5.42966e-08
5.45276e-08
5.47905e-08
5.50669e-08
5.53327e-08
5.55708e-08
5.57602e-08
5.58913e-08
5.59671e-08
5.59999e-08
5.60097e-08
5.60245e-08
5.60404e-08
5.60526e-08
5.60638e-08
5.60681e-08
5.60536e-08
5.601e-08
5.59382e-08
5.58481e-08
5.57396e-08
5.56217e-08
5.55144e-08
5.54296e-08
5.53741e-08
5.53706e-08
5.53904e-08
5.54175e-08
5.54555e-08
5.55076e-08
5.55588e-08
5.56046e-08
5.56403e-08
5.56637e-08
5.56755e-08
5.56789e-08
5.56783e-08
5.56791e-08
5.56861e-08
5.5704e-08
5.57359e-08
5.57826e-08
5.58409e-08
5.59066e-08
5.59755e-08
5.60434e-08
5.6104e-08
5.61567e-08
5.62027e-08
5.62454e-08
5.62889e-08
5.63374e-08
5.63937e-08
5.64602e-08
5.65371e-08
5.66203e-08
5.67038e-08
5.67943e-08
5.68857e-08
5.69673e-08
5.70408e-08
5.7106e-08
5.71661e-08
5.72261e-08
5.72933e-08
5.73756e-08
5.74803e-08
5.76125e-08
5.77733e-08
5.79573e-08
5.81498e-08
5.8324e-08
5.84499e-08
5.84979e-08
5.84549e-08
5.83023e-08
5.80478e-08
5.77288e-08
5.73881e-08
5.70656e-08
5.67784e-08
5.65535e-08
5.64121e-08
5.63367e-08
5.62877e-08
5.62728e-08
5.62847e-08
5.63082e-08
5.63407e-08
5.63789e-08
5.64259e-08
5.64857e-08
5.6558e-08
5.66373e-08
5.67245e-08
5.68146e-08
5.69009e-08
5.6966e-08
5.701e-08
5.70308e-08
5.70317e-08
5.70188e-08
5.70019e-08
5.6997e-08
5.70142e-08
5.70252e-08
5.70412e-08
5.70996e-08
5.71855e-08
5.72907e-08
5.74111e-08
5.75399e-08
5.76748e-08
5.78024e-08
5.79092e-08
5.79848e-08
5.80196e-08
5.80135e-08
5.79576e-08
5.78906e-08
5.77638e-08
5.75251e-08
3.93638e-09
4.37704e-09
6.19385e-09
1.07774e-08
1.92748e-08
3.11703e-08
4.1285e-08
4.69525e-08
4.97429e-08
5.09897e-08
5.15257e-08
5.17845e-08
5.19491e-08
5.20894e-08
5.22236e-08
5.23782e-08
5.25231e-08
5.26626e-08
5.27927e-08
5.29188e-08
5.30459e-08
5.31705e-08
5.33027e-08
5.34471e-08
5.35989e-08
5.37692e-08
5.39588e-08
5.41649e-08
5.43803e-08
5.45949e-08
5.47988e-08
5.49822e-08
5.51361e-08
5.52484e-08
5.53122e-08
5.53273e-08
5.52859e-08
5.51952e-08
5.50714e-08
5.49362e-08
5.48174e-08
5.47427e-08
5.47366e-08
5.48027e-08
5.49272e-08
5.5093e-08
5.52697e-08
5.54244e-08
5.55396e-08
5.56113e-08
5.56454e-08
5.56544e-08
5.56556e-08
5.5668e-08
5.56942e-08
5.57185e-08
5.57417e-08
5.57574e-08
5.57567e-08
5.57322e-08
5.56847e-08
5.5626e-08
5.55532e-08
5.54741e-08
5.5408e-08
5.53649e-08
5.53514e-08
5.53774e-08
5.54226e-08
5.54812e-08
5.55453e-08
5.56143e-08
5.56748e-08
5.57226e-08
5.57562e-08
5.57753e-08
5.57838e-08
5.57885e-08
5.57948e-08
5.58093e-08
5.58367e-08
5.58822e-08
5.59488e-08
5.60332e-08
5.61275e-08
5.62222e-08
5.63093e-08
5.63841e-08
5.6442e-08
5.64823e-08
5.65066e-08
5.65205e-08
5.65296e-08
5.65391e-08
5.65528e-08
5.6574e-08
5.66057e-08
5.66461e-08
5.66913e-08
5.67382e-08
5.67821e-08
5.68151e-08
5.68399e-08
5.68591e-08
5.68772e-08
5.69e-08
5.69342e-08
5.69853e-08
5.70562e-08
5.71472e-08
5.72555e-08
5.73756e-08
5.74946e-08
5.75937e-08
5.76544e-08
5.7663e-08
5.76016e-08
5.74575e-08
5.7243e-08
5.69876e-08
5.673e-08
5.65043e-08
5.63124e-08
5.61811e-08
5.61306e-08
5.61272e-08
5.61441e-08
5.61916e-08
5.62525e-08
5.63141e-08
5.63849e-08
5.64612e-08
5.65473e-08
5.66464e-08
5.67553e-08
5.68731e-08
5.69952e-08
5.71101e-08
5.72085e-08
5.72792e-08
5.73228e-08
5.73366e-08
5.73169e-08
5.7272e-08
5.72132e-08
5.71557e-08
5.7114e-08
5.70686e-08
5.70291e-08
5.70269e-08
5.70431e-08
5.70718e-08
5.71102e-08
5.71526e-08
5.71974e-08
5.7238e-08
5.72682e-08
5.7283e-08
5.72801e-08
5.72606e-08
5.72078e-08
5.71663e-08
5.70888e-08
5.69112e-08
3.7664e-09
4.17057e-09
5.84098e-09
1.01047e-08
1.82022e-08
2.99587e-08
4.07383e-08
4.72228e-08
5.03777e-08
5.18183e-08
5.24661e-08
5.2795e-08
5.30281e-08
5.32328e-08
5.34212e-08
5.36101e-08
5.3759e-08
5.38986e-08
5.4028e-08
5.41562e-08
5.43043e-08
5.44546e-08
5.46189e-08
5.48036e-08
5.49946e-08
5.52077e-08
5.54374e-08
5.56782e-08
5.59219e-08
5.61614e-08
5.63896e-08
5.65989e-08
5.67804e-08
5.69171e-08
5.69955e-08
5.70064e-08
5.69318e-08
5.67778e-08
5.65631e-08
5.63044e-08
5.60379e-08
5.57992e-08
5.5621e-08
5.55179e-08
5.54846e-08
5.55071e-08
5.55634e-08
5.56294e-08
5.56784e-08
5.57026e-08
5.57046e-08
5.56926e-08
5.56836e-08
5.56928e-08
5.57214e-08
5.57526e-08
5.57834e-08
5.58061e-08
5.58119e-08
5.5795e-08
5.57555e-08
5.5707e-08
5.56479e-08
5.55885e-08
5.55489e-08
5.55391e-08
5.55661e-08
5.56314e-08
5.57143e-08
5.58116e-08
5.59079e-08
5.59979e-08
5.60688e-08
5.61183e-08
5.6149e-08
5.6161e-08
5.61624e-08
5.61627e-08
5.61703e-08
5.61911e-08
5.62291e-08
5.62879e-08
5.63717e-08
5.64757e-08
5.65856e-08
5.66933e-08
5.67919e-08
5.68715e-08
5.69261e-08
5.69543e-08
5.69591e-08
5.69474e-08
5.69272e-08
5.69042e-08
5.6882e-08
5.68636e-08
5.68544e-08
5.68554e-08
5.6866e-08
5.68777e-08
5.68883e-08
5.68931e-08
5.68939e-08
5.68921e-08
5.68933e-08
5.69039e-08
5.69312e-08
5.698e-08
5.70533e-08
5.7151e-08
5.72679e-08
5.73939e-08
5.7513e-08
5.76049e-08
5.76497e-08
5.76376e-08
5.75504e-08
5.73858e-08
5.716e-08
5.69018e-08
5.66495e-08
5.64356e-08
5.62625e-08
5.61568e-08
5.61259e-08
5.61355e-08
5.61688e-08
5.62307e-08
5.63065e-08
5.63718e-08
5.64376e-08
5.64988e-08
5.65671e-08
5.66468e-08
5.67414e-08
5.6852e-08
5.69789e-08
5.71103e-08
5.72377e-08
5.73355e-08
5.74027e-08
5.74368e-08
5.74284e-08
5.73876e-08
5.73269e-08
5.72606e-08
5.72066e-08
5.7157e-08
5.71044e-08
5.7093e-08
5.71023e-08
5.71257e-08
5.7162e-08
5.72045e-08
5.72505e-08
5.72908e-08
5.7317e-08
5.73208e-08
5.7299e-08
5.72513e-08
5.71644e-08
5.70957e-08
5.69953e-08
5.67978e-08
3.5838e-09
3.95037e-09
5.46708e-09
9.38623e-09
1.70343e-08
2.85412e-08
4.00336e-08
4.71915e-08
5.12645e-08
5.29936e-08
5.37966e-08
5.42064e-08
5.45077e-08
5.47794e-08
5.49976e-08
5.52161e-08
5.53386e-08
5.54409e-08
5.55352e-08
5.56267e-08
5.57554e-08
5.5879e-08
5.60174e-08
5.6186e-08
5.63709e-08
5.65896e-08
5.68283e-08
5.70859e-08
5.73589e-08
5.76425e-08
5.79275e-08
5.82011e-08
5.84495e-08
5.8653e-08
5.87895e-08
5.88407e-08
5.87744e-08
5.85917e-08
5.83151e-08
5.79439e-08
5.75285e-08
5.71183e-08
5.67562e-08
5.64699e-08
5.62679e-08
5.61469e-08
5.6079e-08
5.60429e-08
5.60136e-08
5.59799e-08
5.59407e-08
5.59064e-08
5.58903e-08
5.58975e-08
5.59283e-08
5.59688e-08
5.60114e-08
5.60437e-08
5.60568e-08
5.60472e-08
5.60148e-08
5.59744e-08
5.59301e-08
5.58933e-08
5.58825e-08
5.59081e-08
5.5974e-08
5.60763e-08
5.61964e-08
5.63329e-08
5.64655e-08
5.65824e-08
5.66686e-08
5.67226e-08
5.67511e-08
5.67569e-08
5.675e-08
5.6742e-08
5.67471e-08
5.67716e-08
5.68232e-08
5.69058e-08
5.70216e-08
5.7161e-08
5.73063e-08
5.74447e-08
5.75651e-08
5.76557e-08
5.77077e-08
5.77204e-08
5.76945e-08
5.76445e-08
5.75808e-08
5.75102e-08
5.74363e-08
5.73631e-08
5.72983e-08
5.72454e-08
5.72093e-08
5.71744e-08
5.71402e-08
5.71028e-08
5.70658e-08
5.70353e-08
5.70148e-08
5.70095e-08
5.70251e-08
5.707e-08
5.71451e-08
5.7248e-08
5.737e-08
5.7499e-08
5.76171e-08
5.77035e-08
5.77385e-08
5.77148e-08
5.76108e-08
5.74294e-08
5.71861e-08
5.69134e-08
5.66469e-08
5.64224e-08
5.62514e-08
5.61594e-08
5.61458e-08
5.61792e-08
5.62434e-08
5.633e-08
5.64268e-08
5.65105e-08
5.65905e-08
5.66691e-08
5.67554e-08
5.68545e-08
5.69752e-08
5.71187e-08
5.72807e-08
5.74432e-08
5.7596e-08
5.77165e-08
5.77988e-08
5.78384e-08
5.78233e-08
5.7766e-08
5.76822e-08
5.75862e-08
5.74914e-08
5.74044e-08
5.73128e-08
5.72584e-08
5.723e-08
5.72167e-08
5.72203e-08
5.72337e-08
5.72512e-08
5.72656e-08
5.72686e-08
5.72509e-08
5.72083e-08
5.7148e-08
5.70487e-08
5.697e-08
5.68617e-08
5.66599e-08
3.37848e-09
3.70628e-09
5.05991e-09
8.60021e-09
1.57086e-08
2.67872e-08
3.89524e-08
4.68376e-08
5.15042e-08
5.3959e-08
5.48651e-08
5.54293e-08
5.58816e-08
5.62927e-08
5.65753e-08
5.6834e-08
5.69482e-08
5.69947e-08
5.70213e-08
5.70614e-08
5.71452e-08
5.72377e-08
5.73575e-08
5.75196e-08
5.77243e-08
5.79723e-08
5.82539e-08
5.85696e-08
5.89167e-08
5.92878e-08
5.96704e-08
6.00451e-08
6.0391e-08
6.06796e-08
6.08828e-08
6.09704e-08
6.09107e-08
6.07096e-08
6.03781e-08
5.99045e-08
5.93492e-08
5.87765e-08
5.82313e-08
5.77424e-08
5.73414e-08
5.7038e-08
5.68205e-08
5.66647e-08
5.65462e-08
5.64496e-08
5.63689e-08
5.6311e-08
5.62834e-08
5.629e-08
5.63258e-08
5.63765e-08
5.64303e-08
5.64708e-08
5.64879e-08
5.64785e-08
5.64432e-08
5.63965e-08
5.63542e-08
5.63213e-08
5.63213e-08
5.63699e-08
5.64647e-08
5.66011e-08
5.67642e-08
5.695e-08
5.71333e-08
5.72924e-08
5.74056e-08
5.74717e-08
5.75025e-08
5.75039e-08
5.74884e-08
5.74696e-08
5.74679e-08
5.74939e-08
5.75612e-08
5.76754e-08
5.78301e-08
5.80073e-08
5.81892e-08
5.83601e-08
5.85045e-08
5.8609e-08
5.86597e-08
5.86515e-08
5.85915e-08
5.84993e-08
5.83875e-08
5.82625e-08
5.81262e-08
5.79932e-08
5.78676e-08
5.77553e-08
5.76589e-08
5.75705e-08
5.74863e-08
5.74002e-08
5.73181e-08
5.72504e-08
5.72035e-08
5.71834e-08
5.7194e-08
5.7239e-08
5.73156e-08
5.74202e-08
5.75482e-08
5.76883e-08
5.78176e-08
5.79076e-08
5.79352e-08
5.78937e-08
5.77608e-08
5.7545e-08
5.72689e-08
5.6969e-08
5.6685e-08
5.64501e-08
5.62705e-08
5.61869e-08
5.61946e-08
5.62535e-08
5.63472e-08
5.64545e-08
5.65638e-08
5.66554e-08
5.67323e-08
5.67998e-08
5.68682e-08
5.6951e-08
5.70621e-08
5.72085e-08
5.73885e-08
5.75817e-08
5.7779e-08
5.79476e-08
5.80681e-08
5.81282e-08
5.812e-08
5.80564e-08
5.79585e-08
5.78457e-08
5.77288e-08
5.76173e-08
5.75154e-08
5.74372e-08
5.73875e-08
5.7354e-08
5.73427e-08
5.73446e-08
5.73491e-08
5.73502e-08
5.73395e-08
5.7306e-08
5.7242e-08
5.71562e-08
5.7029e-08
5.69302e-08
5.68036e-08
5.65864e-08
3.1494e-09
3.43784e-09
4.62173e-09
7.75456e-09
1.42266e-08
2.46999e-08
3.72572e-08
4.60777e-08
5.12843e-08
5.4304e-08
5.5881e-08
5.65319e-08
5.7141e-08
5.76852e-08
5.80896e-08
5.84368e-08
5.85836e-08
5.86049e-08
5.85853e-08
5.85856e-08
5.86315e-08
5.87072e-08
5.88284e-08
5.90113e-08
5.92705e-08
5.96016e-08
5.99983e-08
6.04537e-08
6.09557e-08
6.14863e-08
6.20266e-08
6.2549e-08
6.30198e-08
6.33931e-08
6.36303e-08
6.36706e-08
6.35097e-08
6.31788e-08
6.26816e-08
6.20554e-08
6.13422e-08
6.05924e-08
5.98828e-08
5.92184e-08
5.86341e-08
5.8154e-08
5.77741e-08
5.74767e-08
5.72412e-08
5.7056e-08
5.69162e-08
5.68222e-08
5.67859e-08
5.67939e-08
5.68389e-08
5.69051e-08
5.69688e-08
5.70128e-08
5.70277e-08
5.70106e-08
5.69578e-08
5.68833e-08
5.68183e-08
5.67796e-08
5.67797e-08
5.68396e-08
5.69623e-08
5.71421e-08
5.73651e-08
5.76205e-08
5.78777e-08
5.81001e-08
5.82582e-08
5.83491e-08
5.83887e-08
5.83898e-08
5.83675e-08
5.83435e-08
5.83424e-08
5.8385e-08
5.84886e-08
5.86567e-08
5.8879e-08
5.9134e-08
5.93895e-08
5.96183e-08
5.98002e-08
5.99142e-08
5.9943e-08
5.98793e-08
5.97508e-08
5.95891e-08
5.94056e-08
5.92062e-08
5.89953e-08
5.87854e-08
5.85807e-08
5.83929e-08
5.8209e-08
5.80437e-08
5.79016e-08
5.77818e-08
5.76706e-08
5.7569e-08
5.74908e-08
5.7449e-08
5.74501e-08
5.75e-08
5.75999e-08
5.77361e-08
5.78897e-08
5.80379e-08
5.81596e-08
5.82315e-08
5.82332e-08
5.81544e-08
5.79704e-08
5.77154e-08
5.74022e-08
5.706e-08
5.67421e-08
5.64794e-08
5.62848e-08
5.62146e-08
5.62507e-08
5.63389e-08
5.64721e-08
5.66092e-08
5.67407e-08
5.6848e-08
5.69337e-08
5.70058e-08
5.70712e-08
5.71489e-08
5.72524e-08
5.73964e-08
5.75873e-08
5.78005e-08
5.80254e-08
5.82367e-08
5.84042e-08
5.85009e-08
5.85131e-08
5.84424e-08
5.83211e-08
5.81742e-08
5.80189e-08
5.78699e-08
5.77311e-08
5.76248e-08
5.75505e-08
5.74963e-08
5.74613e-08
5.74403e-08
5.74238e-08
5.74031e-08
5.73713e-08
5.73174e-08
5.72316e-08
5.71264e-08
5.69799e-08
5.6865e-08
5.67212e-08
5.64868e-08
2.90081e-09
3.1505e-09
4.16319e-09
6.87259e-09
1.26275e-08
2.23246e-08
3.48848e-08
4.47506e-08
5.07143e-08
5.41574e-08
5.62329e-08
5.76448e-08
5.85501e-08
5.92919e-08
5.98457e-08
6.02653e-08
6.04792e-08
6.05184e-08
6.04828e-08
6.04504e-08
6.04632e-08
6.05342e-08
6.0678e-08
6.09266e-08
6.1303e-08
6.18109e-08
6.24444e-08
6.31872e-08
6.40078e-08
6.48766e-08
6.5759e-08
6.65912e-08
6.7296e-08
6.77878e-08
6.80412e-08
6.79001e-08
6.73488e-08
6.64725e-08
6.55e-08
6.45259e-08
6.35674e-08
6.25739e-08
6.16161e-08
6.07304e-08
5.99305e-08
5.92632e-08
5.87182e-08
5.82847e-08
5.79473e-08
5.7686e-08
5.74943e-08
5.73738e-08
5.73369e-08
5.73522e-08
5.7413e-08
5.75e-08
5.75756e-08
5.76197e-08
5.76248e-08
5.75882e-08
5.75008e-08
5.73723e-08
5.72506e-08
5.71939e-08
5.71943e-08
5.7273e-08
5.74434e-08
5.76963e-08
5.80139e-08
5.83736e-08
5.87359e-08
5.90493e-08
5.92764e-08
5.94121e-08
5.9473e-08
5.94814e-08
5.94597e-08
5.94426e-08
5.94593e-08
5.95364e-08
5.96924e-08
5.99265e-08
6.02242e-08
6.05577e-08
6.08893e-08
6.11851e-08
6.14155e-08
6.15585e-08
6.1597e-08
6.15025e-08
6.12972e-08
6.10077e-08
6.06721e-08
6.03286e-08
6.00138e-08
5.96975e-08
5.93588e-08
5.90528e-08
5.87969e-08
5.8578e-08
5.83934e-08
5.82055e-08
5.80221e-08
5.78582e-08
5.77305e-08
5.76554e-08
5.76439e-08
5.77032e-08
5.78387e-08
5.80294e-08
5.82443e-08
5.84432e-08
5.85921e-08
5.86623e-08
5.86386e-08
5.85125e-08
5.82799e-08
5.79613e-08
5.75793e-08
5.71856e-08
5.68423e-08
5.65584e-08
5.63644e-08
5.63056e-08
5.63614e-08
5.64936e-08
5.66773e-08
5.68611e-08
5.70189e-08
5.71217e-08
5.71573e-08
5.7158e-08
5.7149e-08
5.71612e-08
5.72168e-08
5.73348e-08
5.75227e-08
5.77554e-08
5.8017e-08
5.82817e-08
5.851e-08
5.86682e-08
5.87406e-08
5.87098e-08
5.85998e-08
5.84405e-08
5.82612e-08
5.80853e-08
5.79148e-08
5.77829e-08
5.7688e-08
5.76167e-08
5.75674e-08
5.75337e-08
5.75073e-08
5.74752e-08
5.74277e-08
5.73545e-08
5.72405e-08
5.71044e-08
5.69267e-08
5.67847e-08
5.66135e-08
5.63504e-08
2.63985e-09
2.85266e-09
3.70112e-09
5.98811e-09
1.09753e-08
1.97466e-08
3.18752e-08
4.27467e-08
4.96305e-08
5.3696e-08
5.61073e-08
5.7804e-08
5.92723e-08
6.04236e-08
6.13843e-08
6.21516e-08
6.26514e-08
6.28741e-08
6.29205e-08
6.29014e-08
6.29109e-08
6.3015e-08
6.32359e-08
6.36283e-08
6.42061e-08
6.4957e-08
6.58427e-08
6.67933e-08
6.77444e-08
6.86535e-08
6.94981e-08
7.02757e-08
7.0963e-08
7.15147e-08
7.19151e-08
7.21581e-08
7.20355e-08
7.13111e-08
6.97834e-08
6.78426e-08
6.60838e-08
6.47062e-08
6.34342e-08
6.23067e-08
6.13433e-08
6.05172e-08
5.9811e-08
5.92249e-08
5.87563e-08
5.8402e-08
5.81465e-08
5.79883e-08
5.79376e-08
5.79553e-08
5.80343e-08
5.8148e-08
5.82424e-08
5.82872e-08
5.82789e-08
5.82159e-08
5.80911e-08
5.79063e-08
5.77332e-08
5.76863e-08
5.77277e-08
5.78375e-08
5.80541e-08
5.83638e-08
5.87542e-08
5.9198e-08
5.96364e-08
6.00213e-08
6.0315e-08
6.05019e-08
6.05859e-08
6.05832e-08
6.05239e-08
6.04549e-08
6.0412e-08
6.04327e-08
6.05411e-08
6.07404e-08
6.10204e-08
6.13562e-08
6.171e-08
6.20476e-08
6.23361e-08
6.25528e-08
6.269e-08
6.2739e-08
6.26712e-08
6.24962e-08
6.22152e-08
6.18069e-08
6.12996e-08
6.07835e-08
6.03112e-08
5.98781e-08
5.95127e-08
5.91957e-08
5.88927e-08
5.85889e-08
5.83033e-08
5.8059e-08
5.7876e-08
5.7772e-08
5.77565e-08
5.78377e-08
5.80207e-08
5.82732e-08
5.85534e-08
5.8813e-08
5.90083e-08
5.9104e-08
5.90817e-08
5.89282e-08
5.8649e-08
5.82602e-08
5.78052e-08
5.7337e-08
5.69149e-08
5.65687e-08
5.63628e-08
5.63299e-08
5.6423e-08
5.65919e-08
5.67842e-08
5.69537e-08
5.70692e-08
5.7121e-08
5.7128e-08
5.70815e-08
5.70196e-08
5.69707e-08
5.69529e-08
5.7008e-08
5.71565e-08
5.73811e-08
5.76666e-08
5.80079e-08
5.83451e-08
5.86186e-08
5.87778e-08
5.88163e-08
5.87504e-08
5.86156e-08
5.84386e-08
5.82542e-08
5.80613e-08
5.79119e-08
5.78041e-08
5.77223e-08
5.76625e-08
5.76158e-08
5.75729e-08
5.75221e-08
5.74543e-08
5.73607e-08
5.72227e-08
5.70611e-08
5.68523e-08
5.66868e-08
5.64849e-08
5.61909e-08
2.46034e-09
2.65039e-09
3.39268e-09
5.40084e-09
9.86225e-09
1.79625e-08
2.96475e-08
4.11598e-08
4.8704e-08
5.32513e-08
5.59365e-08
5.77654e-08
5.9302e-08
6.07306e-08
6.19054e-08
6.28844e-08
6.36197e-08
6.40682e-08
6.42803e-08
6.43549e-08
6.4407e-08
6.45229e-08
6.47179e-08
6.50423e-08
6.54902e-08
6.60449e-08
6.66922e-08
6.7386e-08
6.807e-08
6.87445e-08
6.94247e-08
7.0093e-08
7.07654e-08
7.14352e-08
7.21168e-08
7.28867e-08
7.34894e-08
7.37006e-08
7.32543e-08
7.16179e-08
6.88763e-08
6.6433e-08
6.47262e-08
6.3345e-08
6.22328e-08
6.12826e-08
6.048e-08
5.97972e-08
5.92352e-08
5.88001e-08
5.85067e-08
5.83479e-08
5.83097e-08
5.83531e-08
5.84628e-08
5.86043e-08
5.87205e-08
5.87701e-08
5.87521e-08
5.86683e-08
5.85164e-08
5.82931e-08
5.80871e-08
5.79946e-08
5.79704e-08
5.80307e-08
5.82156e-08
5.85253e-08
5.89333e-08
5.93919e-08
5.98495e-08
6.02562e-08
6.05704e-08
6.07685e-08
6.08478e-08
6.08164e-08
6.07107e-08
6.05838e-08
6.04825e-08
6.04468e-08
6.0505e-08
6.06409e-08
6.08423e-08
6.10928e-08
6.13832e-08
6.17089e-08
6.20456e-08
6.23599e-08
6.26402e-08
6.28484e-08
6.29637e-08
6.29793e-08
6.29036e-08
6.27417e-08
6.24227e-08
6.19212e-08
6.13167e-08
6.06867e-08
6.01225e-08
5.96381e-08
5.92205e-08
5.88162e-08
5.84491e-08
5.81475e-08
5.79312e-08
5.78148e-08
5.78059e-08
5.79117e-08
5.81358e-08
5.84392e-08
5.87722e-08
5.90772e-08
5.93047e-08
5.94153e-08
5.93915e-08
5.92194e-08
5.89027e-08
5.84589e-08
5.79479e-08
5.74096e-08
5.69308e-08
5.65574e-08
5.63472e-08
5.63105e-08
5.64045e-08
5.65739e-08
5.67646e-08
5.6931e-08
5.7038e-08
5.7075e-08
5.70334e-08
5.69185e-08
5.6761e-08
5.65777e-08
5.63908e-08
5.62368e-08
5.61442e-08
5.61829e-08
5.64225e-08
5.68759e-08
5.74406e-08
5.79978e-08
5.84312e-08
5.86728e-08
5.87278e-08
5.86431e-08
5.84882e-08
5.83151e-08
5.8119e-08
5.79669e-08
5.7857e-08
5.77757e-08
5.77153e-08
5.76681e-08
5.76244e-08
5.75676e-08
5.74873e-08
5.73772e-08