/*--------------------------------*- C++ -*----------------------------------*\
| =========                 |                                                 |
| \\      /  F ield         | OpenFOAM: The Open Source CFD Toolbox           |
|  \\    /   O peration     | Version:  v1912                                 |
|   \\  /    A nd           | Website:  www.openfoam.com                      |
|    \\/     M anipulation  |                                                 |
\*---------------------------------------------------------------------------*/
FoamFile
{
    version     2.0;
    format      ascii;
    class       volVectorField;
    location    "40";
    object      U;
}
// * * * * * * * * * * * * * * * * * * * * * * * * * * * * * * * * * * * * * //

dimensions      [0 1 -1 0 0 0 0];


internalField   nonuniform List<vector> 
114144
(
(-0.963397 -0.00296343 0)
(-0.933995 -0.00275987 0)
(-0.900838 -0.00256329 0)
(-0.870106 -0.00238057 0)
(-0.84171 -0.00221399 0)
(-0.815741 -0.00203403 0)
(-0.792461 -0.00180891 0)
(-0.772304 -0.00152994 0)
(-0.755849 -0.00118897 0)
(-0.743781 -0.000780239 0)
(-0.736832 -0.000302177 0)
(-0.735715 0.000230188 0)
(-0.741087 0.0008297 0)
(-0.753485 0.00147554 0)
(-0.773266 0.00214674 0)
(-0.800578 0.00282056 0)
(-0.835323 0.00347205 0)
(-0.877139 0.00407469 0)
(-0.925393 0.00460189 0)
(-0.979192 0.00503004 0)
(-1.03741 0.00534345 0)
(-1.0987 0.00556281 0)
(-1.16159 0.00567798 0)
(-1.22455 0.0056658 0)
(-1.2861 0.0055204 0)
(-1.34486 0.00524827 0)
(-1.39959 0.00486307 0)
(-1.44925 0.00438186 0)
(-1.49299 0.00382229 0)
(-1.5302 0.00320056 0)
(-1.56038 0.00252974 0)
(-1.58319 0.00181851 0)
(-1.59834 0.00107024 0)
(-1.60557 0.000289374 0)
(-1.60463 -0.000517373 0)
(-1.59522 -0.00135776 0)
(-1.57711 -0.00222726 0)
(-1.55013 -0.00311449 0)
(-1.51425 -0.00400345 0)
(-1.46962 -0.00487378 0)
(-1.41663 -0.00570256 0)
(-1.35588 -0.00646718 0)
(-1.28822 -0.00714878 0)
(-1.21462 -0.00773551 0)
(-1.13614 -0.0082246 0)
(-1.05378 -0.00862347 0)
(-0.968397 -0.0089487 0)
(-0.88064 -0.00922354 0)
(-0.790878 -0.00947392 0)
(-0.699215 -0.009724 0)
(-0.605535 -0.00999175 0)
(-0.509588 -0.0102857 0)
(-0.411101 -0.0106035 0)
(-0.309884 -0.0109321 0)
(-0.205927 -0.0112505 0)
(-0.0994762 -0.0115337 0)
(0.00902943 -0.0117674 0)
(0.118859 -0.0119124 0)
(0.229247 -0.011979 0)
(0.339359 -0.0119654 0)
(0.44847 -0.0118851 0)
(0.556052 -0.0117609 0)
(0.661837 -0.0116201 0)
(0.765829 -0.01149 0)
(0.868274 -0.0113926 0)
(0.969585 -0.0113413 0)
(1.07025 -0.0113389 0)
(1.17071 -0.0113776 0)
(1.27129 -0.0114419 0)
(1.37214 -0.011512 0)
(1.47321 -0.0115687 0)
(1.57429 -0.0115978 0)
(1.67506 -0.0115926 0)
(1.77522 -0.0115558 0)
(1.87451 -0.0114977 0)
(1.97281 -0.0114339 0)
(2.07015 -0.0113807 0)
(2.16673 -0.0113503 0)
(2.2628 -0.0113465 0)
(2.3586 -0.0113619 0)
(2.45425 -0.0113772 0)
(2.54966 -0.0113626 0)
(2.64443 -0.0112814 0)
(2.73782 -0.0110951 0)
(2.82879 -0.0107686 0)
(2.91604 -0.0102758 0)
(2.99808 -0.00960318 0)
(3.07343 -0.00875012 0)
(3.14064 -0.00772978 0)
(3.19848 -0.00656619 0)
(3.24597 -0.00529057 0)
(3.28241 -0.0039372 0)
(3.3074 -0.00254001 0)
(3.32077 -0.00113329 0)
(3.32232 0.000276405 0)
(3.3129 0.00161768 0)
(3.29262 0.00298199 0)
(3.26181 0.00428906 0)
(3.22088 0.00553692 0)
(3.17044 0.00671451 0)
(3.11115 0.00780624 0)
(3.04381 0.00879481 0)
(2.96931 0.00966436 0)
(2.88863 0.0104054 0)
(2.80285 0.01102 0)
(2.71302 0.0115264 0)
(2.62029 0.0119405 0)
(2.52574 0.012258 0)
(2.43009 0.0124926 0)
(2.33391 0.0126615 0)
(2.23755 0.0127832 0)
(2.14124 0.0128734 0)
(2.04508 0.0129413 0)
(1.94918 0.0129879 0)
(1.85365 0.0130063 0)
(1.7587 0.0129839 0)
(1.66466 0.0129058 0)
(1.57196 0.0127594 0)
(1.4811 0.0125385 0)
(1.3926 0.0122463 0)
(1.3069 0.011899 0)
(1.22429 0.011526 0)
(1.14481 0.0111632 0)
(1.06826 0.0108461 0)
(0.994121 0.0106121 0)
(0.921615 0.0104971 0)
(0.84974 0.0105297 0)
(0.77735 0.0107271 0)
(0.703241 0.0110938 0)
(0.626242 0.0116224 0)
(0.545291 0.0122955 0)
(0.459498 0.0130884 0)
(0.368186 0.0139717 0)
(0.270926 0.0149133 0)
(0.167352 0.0158903 0)
(0.056851 0.0169088 0)
(-0.0593683 0.0178307 0)
(-0.181006 0.0187839 0)
(-0.308688 0.0196727 0)
(-0.441541 0.0205024 0)
(-0.579051 0.0212621 0)
(-0.720618 0.0219399 0)
(-0.865568 0.0225241 0)
(-1.01316 0.0230029 0)
(-1.16257 0.0233652 0)
(-1.31296 0.023601 0)
(-1.46342 0.0237026 0)
(-1.61306 0.0236654 0)
(-1.76099 0.0234881 0)
(-1.90635 0.0231725 0)
(-2.04835 0.0227232 0)
(-2.18625 0.0221482 0)
(-2.31942 0.0214594 0)
(-2.44732 0.0206662 0)
(-2.5694 0.0197841 0)
(-2.68535 0.0188426 0)
(-2.79496 0.0178716 0)
(-2.89813 0.0168855 0)
(-2.99482 0.015891 0)
(-3.08512 0.0148885 0)
(-3.16888 0.013869 0)
(-3.24542 0.0127716 0)
(-3.31559 0.0115128 0)
(-3.38129 0.0102645 0)
(-3.43395 0.0086053 0)
(-3.47426 0.00663979 0)
(-3.50731 0.00471 0)
(-3.52787 0.0025304 0)
(-3.53756 -0.000630496 0)
(-3.52827 -0.00362963 0)
(-3.49996 -0.00684445 0)
(-3.45254 -0.0100939 0)
(-3.38702 -0.0131918 0)
(-3.3052 -0.0159328 0)
(-3.20923 -0.0182143 0)
(-3.10178 -0.0200005 0)
(-2.98581 -0.0212846 0)
(-2.86457 -0.0220918 0)
(-2.74066 -0.0223491 0)
(-2.61659 -0.0222782 0)
(-2.49432 -0.021827 0)
(-2.37527 -0.0211043 0)
(-2.26029 -0.0201103 0)
(-2.14979 -0.0194963 0)
(-2.04379 -0.0187865 0)
(-1.94203 -0.0181587 0)
(-1.84415 -0.0176143 0)
(-1.7497 -0.0171521 0)
(-1.65826 -0.0167555 0)
(-1.5695 -0.0164049 0)
(-1.48311 -0.0160863 0)
(-1.39889 -0.0157835 0)
(-1.31671 -0.0154723 0)
(-1.23648 -0.0151513 0)
(-1.15811 -0.0148201 0)
(-1.08156 -0.0144763 0)
(-1.00682 -0.0141218 0)
(-0.933812 -0.013755 0)
(-0.862485 -0.0133898 0)
(-0.79281 -0.0130336 0)
(-0.724812 -0.012685 0)
(-0.658522 -0.0123566 0)
(-0.593927 -0.012076 0)
(-0.530974 -0.0118291 0)
(-0.469601 -0.0115773 0)
(-0.409755 -0.0113109 0)
(-0.351383 -0.0110349 0)
(-0.294431 -0.0107553 0)
(-0.238817 -0.0104843 0)
(-0.18444 -0.0102294 0)
(-0.131193 -0.00999488 0)
(-0.0789782 -0.00978393 0)
(-0.027631 -0.00959315 0)
(0.0228861 -0.0094184 0)
(0.072655 -0.00926364 0)
(0.121871 -0.00912883 0)
(0.170556 -0.00901473 0)
(0.218808 -0.00892149 0)
(0.266688 -0.00884118 0)
(0.314227 -0.00876939 0)
(0.361423 -0.00869905 0)
(0.408239 -0.00861823 0)
(0.454612 -0.00852621 0)
(0.500465 -0.00841803 0)
(0.545722 -0.00829224 0)
(0.59032 -0.00815855 0)
(0.634225 -0.00802426 0)
(0.677415 -0.00788014 0)
(0.719869 -0.0077375 0)
(0.761555 -0.00759575 0)
(0.802433 -0.00741413 0)
(0.842474 -0.00726592 0)
(0.881701 -0.00704275 0)
(0.920203 -0.00685448 0)
(0.958146 -0.00688383 0)
(0.99581 -0.00699712 0)
(1.0336 -0.00714004 0)
(1.072 -0.00732059 0)
(1.11155 -0.00753427 0)
(1.15276 -0.00784305 0)
(1.19603 -0.00821195 0)
(1.24154 -0.00866925 0)
(1.28913 -0.00879007 0)
(1.33853 -0.00937739 0)
(1.38867 -0.00903981 0)
(1.43919 -0.00883626 0)
(1.48701 -0.00898945 0)
(1.53309 -0.00810405 0)
(1.5722 0.000358966 0)
(1.56851 0.0041178 0)
(-0.963375 -0.0171888 0)
(-0.933715 -0.0159128 0)
(-0.900577 -0.0147475 0)
(-0.869862 -0.0136619 0)
(-0.841465 -0.0126018 0)
(-0.815462 -0.0114695 0)
(-0.792125 -0.0101558 0)
(-0.771897 -0.00858442 0)
(-0.755362 -0.00669834 0)
(-0.743209 -0.00446395 0)
(-0.736182 -0.00188428 0)
(-0.73499 0.00104644 0)
(-0.740297 0.00427621 0)
(-0.752653 0.00772819 0)
(-0.772419 0.0113048 0)
(-0.799746 0.0148922 0)
(-0.834538 0.0183647 0)
(-0.876433 0.0215899 0)
(-0.924797 0.0244366 0)
(-0.978731 0.0267852 0)
(-1.03709 0.0285447 0)
(-1.09853 0.0296789 0)
(-1.16157 0.0301394 0)
(-1.2247 0.0298918 0)
(-1.28642 0.0289493 0)
(-1.34532 0.0273649 0)
(-1.40018 0.0252191 0)
(-1.44994 0.0226072 0)
(-1.49376 0.019626 0)
(-1.53103 0.0163626 0)
(-1.56126 0.0128855 0)
(-1.5841 0.00923947 0)
(-1.59929 0.00544444 0)
(-1.60655 0.00151607 0)
(-1.60564 -0.00255096 0)
(-1.59626 -0.00675774 0)
(-1.57817 -0.0110821 0)
(-1.55119 -0.015472 0)
(-1.51529 -0.0198481 0)
(-1.47062 -0.0241071 0)
(-1.41755 -0.0281325 0)
(-1.35671 -0.0318106 0)
(-1.28893 -0.035048 0)
(-1.2152 -0.0377884 0)
(-1.1366 -0.040023 0)
(-1.05413 -0.0417952 0)
(-0.968667 -0.0431946 0)
(-0.880863 -0.0443432 0)
(-0.791085 -0.0453751 0)
(-0.699432 -0.0464128 0)
(-0.605779 -0.0475461 0)
(-0.509863 -0.048816 0)
(-0.411395 -0.0502075 0)
(-0.310177 -0.0516534 0)
(-0.206189 -0.0530478 0)
(-0.0996807 -0.054267 0)
(0.00891222 -0.0552086 0)
(0.118845 -0.0557569 0)
(0.229334 -0.0559005 0)
(0.339538 -0.055652 0)
(0.448715 -0.055084 0)
(0.556333 -0.0543109 0)
(0.66212 -0.0534683 0)
(0.766083 -0.0526885 0)
(0.868477 -0.0520771 0)
(0.96973 -0.0516957 0)
(1.07034 -0.0515536 0)
(1.17076 -0.0516102 0)
(1.27132 -0.0517871 0)
(1.37218 -0.0519878 0)
(1.47328 -0.0521202 0)
(1.57439 -0.0521164 0)
(1.67521 -0.0519477 0)
(1.77541 -0.0516283 0)
(1.87471 -0.0512109 0)
(1.973 -0.0507713 0)
(2.07033 -0.0503878 0)
(2.16688 -0.0501186 0)
(2.26292 -0.049982 0)
(2.3587 -0.0499438 0)
(2.45437 -0.0499146 0)
(2.54983 -0.0497581 0)
(2.6447 -0.0493081 0)
(2.73824 -0.0483922 0)
(2.82939 -0.0468562 0)
(2.91682 -0.0445884 0)
(2.99907 -0.0415342 0)
(3.0746 -0.0377003 0)
(3.14198 -0.0331536 0)
(3.19996 -0.0280083 0)
(3.24754 -0.0224082 0)
(3.28402 -0.0165072 0)
(3.30902 -0.0104516 0)
(3.32237 -0.00437161 0)
(3.32388 0.00173935 0)
(3.31442 0.00743059 0)
(3.29407 0.0131571 0)
(3.26318 0.0186378 0)
(3.22217 0.0238456 0)
(3.17162 0.0287357 0)
(3.11221 0.0332477 0)
(3.04473 0.0373149 0)
(2.97008 0.0408742 0)
(2.88924 0.0438787 0)
(2.8033 0.0463106 0)
(2.71334 0.0481962 0)
(2.62049 0.049627 0)
(2.52583 0.0506583 0)
(2.43009 0.0513491 0)
(2.33385 0.0517787 0)
(2.23744 0.0520294 0)
(2.1411 0.052168 0)
(2.04492 0.0522317 0)
(1.94899 0.0522225 0)
(1.85341 0.0521094 0)
(1.75841 0.0518389 0)
(1.6643 0.0513505 0)
(1.57152 0.050594 0)
(1.48059 0.0495471 0)
(1.39202 0.0482269 0)
(1.30628 0.0466948 0)
(1.22365 0.0450538 0)
(1.14421 0.0434422 0)
(1.06774 0.0420231 0)
(0.993718 0.0409574 0)
(0.921362 0.0403838 0)
(0.849656 0.0404055 0)
(0.777442 0.0410803 0)
(0.703502 0.0424166 0)
(0.626651 0.044376 0)
(0.545821 0.046881 0)
(0.460115 0.0498273 0)
(0.368852 0.0530967 0)
(0.271609 0.0565674 0)
(0.168034 0.0601403 0)
(0.0574736 0.0637784 0)
(-0.0588159 0.0671034 0)
(-0.180516 0.0704519 0)
(-0.308301 0.0735297 0)
(-0.441261 0.076345 0)
(-0.578891 0.0788547 0)
(-0.720589 0.0810155 0)
(-0.865681 0.082785 0)
(-1.01342 0.0841231 0)
(-1.163 0.0849947 0)
(-1.31354 0.0853719 0)
(-1.46417 0.0852374 0)
(-1.61396 0.0845876 0)
(-1.76203 0.0834316 0)
(-1.90753 0.0817909 0)
(-2.04965 0.0796963 0)
(-2.18764 0.0771903 0)
(-2.32089 0.0743272 0)
(-2.44884 0.0711504 0)
(-2.57095 0.067714 0)
(-2.6869 0.0641044 0)
(-2.79648 0.0604109 0)
(-2.89961 0.0566722 0)
(-2.99625 0.0529024 0)
(-3.0865 0.0490999 0)
(-3.17021 0.0452434 0)
(-3.24672 0.0411517 0)
(-3.3169 0.0365738 0)
(-3.38265 0.0320944 0)
(-3.43535 0.0265048 0)
(-3.47569 0.0197083 0)
(-3.50882 0.0128827 0)
(-3.52949 0.00545179 0)
(-3.53929 -0.00445276 0)
(-3.53001 -0.0139562 0)
(-3.5016 -0.0239821 0)
(-3.45404 -0.0336859 0)
(-3.38832 -0.0428502 0)
(-3.3062 -0.0510305 0)
(-3.20986 -0.0579638 0)
(-3.10204 -0.0633308 0)
(-2.98573 -0.0670487 0)
(-2.86418 -0.0691289 0)
(-2.74002 -0.069881 0)
(-2.61575 -0.0693541 0)
(-2.49335 -0.0679642 0)
(-2.37423 -0.0660147 0)
(-2.25921 -0.0638507 0)
(-2.14875 -0.0611949 0)
(-2.04285 -0.0587167 0)
(-1.94122 -0.0563902 0)
(-1.84348 -0.0542837 0)
(-1.74918 -0.0524129 0)
(-1.65788 -0.050761 0)
(-1.56925 -0.0492962 0)
(-1.483 -0.0479849 0)
(-1.39888 -0.0467968 0)
(-1.31679 -0.0456873 0)
(-1.23662 -0.0446541 0)
(-1.15828 -0.0436897 0)
(-1.08175 -0.0427504 0)
(-1.007 -0.0418304 0)
(-0.933977 -0.0409522 0)
(-0.862619 -0.0400879 0)
(-0.792908 -0.0391921 0)
(-0.724876 -0.0382554 0)
(-0.658557 -0.0372909 0)
(-0.59394 -0.0363044 0)
(-0.530968 -0.0353197 0)
(-0.469574 -0.0343829 0)
(-0.409702 -0.0335076 0)
(-0.351305 -0.032686 0)
(-0.29433 -0.0319186 0)
(-0.238701 -0.0312114 0)
(-0.184319 -0.0305679 0)
(-0.131077 -0.0299859 0)
(-0.0788716 -0.029466 0)
(-0.0275392 -0.029002 0)
(0.0229616 -0.0285997 0)
(0.0727142 -0.0282559 0)
(0.121914 -0.0279701 0)
(0.170585 -0.0277234 0)
(0.218824 -0.0275158 0)
(0.266696 -0.027332 0)
(0.314232 -0.0271472 0)
(0.361429 -0.02695 0)
(0.408252 -0.0267205 0)
(0.454634 -0.0264474 0)
(0.500496 -0.0261255 0)
(0.545759 -0.0257711 0)
(0.590363 -0.0253845 0)
(0.63427 -0.0249876 0)
(0.677462 -0.024572 0)
(0.719918 -0.024155 0)
(0.761609 -0.0236904 0)
(0.802493 -0.0232567 0)
(0.842548 -0.0228064 0)
(0.881767 -0.0224837 0)
(0.920216 -0.0221717 0)
(0.958089 -0.0217837 0)
(0.995683 -0.0215919 0)
(1.0334 -0.0217033 0)
(1.07172 -0.0221581 0)
(1.11121 -0.0229932 0)
(1.15238 -0.0241023 0)
(1.19564 -0.0253673 0)
(1.24117 -0.0266505 0)
(1.28884 -0.0278962 0)
(1.33829 -0.0286968 0)
(1.38873 -0.0288268 0)
(1.43906 -0.0293678 0)
(1.48828 -0.0256429 0)
(1.53284 -0.026301 0)
(1.5754 -0.014068 0)
(1.60684 -0.00982156 0)
(-0.962715 -0.0309675 0)
(-0.933065 -0.0286296 0)
(-0.899984 -0.0265258 0)
(-0.869296 -0.0245689 0)
(-0.840883 -0.0226313 0)
(-0.814818 -0.020564 0)
(-0.79137 -0.0182022 0)
(-0.770994 -0.0153975 0)
(-0.754286 -0.0120457 0)
(-0.741952 -0.00808589 0)
(-0.734738 -0.0034984 0)
(-0.733374 0.00171363 0)
(-0.738549 0.0074337 0)
(-0.750816 0.0135375 0)
(-0.770547 0.0198587 0)
(-0.797902 0.0261997 0)
(-0.832787 0.032342 0)
(-0.874845 0.0380563 0)
(-0.923436 0.0431153 0)
(-0.977652 0.0473093 0)
(-1.03634 0.0504677 0)
(-1.09813 0.0524603 0)
(-1.16154 0.053205 0)
(-1.22504 0.0526819 0)
(-1.28711 0.0509357 0)
(-1.34633 0.0480697 0)
(-1.40144 0.0442314 0)
(-1.45141 0.039592 0)
(-1.4954 0.0343244 0)
(-1.53278 0.0285839 0)
(-1.56311 0.0224913 0)
(-1.58603 0.0161247 0)
(-1.60128 0.00951982 0)
(-1.60861 0.00270676 0)
(-1.60777 -0.00436699 0)
(-1.59845 -0.011667 0)
(-1.5804 -0.0191611 0)
(-1.55344 -0.0267626 0)
(-1.5175 -0.0343338 0)
(-1.47273 -0.0416936 0)
(-1.41951 -0.0486371 0)
(-1.35846 -0.0549639 0)
(-1.29043 -0.0605104 0)
(-1.21643 -0.0651781 0)
(-1.13757 -0.0689535 0)
(-1.05488 -0.0719154 0)
(-0.969256 -0.074224 0)
(-0.881356 -0.0760964 0)
(-0.791551 -0.0777704 0)
(-0.699928 -0.0794626 0)
(-0.606339 -0.0813312 0)
(-0.510494 -0.0834474 0)
(-0.412075 -0.0857838 0)
(-0.310859 -0.0882209 0)
(-0.206812 -0.090572 0)
(-0.100182 -0.0926199 0)
(0.00858697 -0.0941647 0)
(0.118729 -0.0950502 0)
(0.229429 -0.0952184 0)
(0.33982 -0.0947027 0)
(0.449134 -0.0936329 0)
(0.556823 -0.092211 0)
(0.662608 -0.090675 0)
(0.766508 -0.0892558 0)
(0.868795 -0.088137 0)
(0.969923 -0.0874246 0)
(1.07041 -0.0871324 0)
(1.17075 -0.0871874 0)
(1.27128 -0.0874508 0)
(1.37215 -0.087753 0)
(1.47331 -0.0879329 0)
(1.5745 -0.0878727 0)
(1.67541 -0.0875228 0)
(1.77567 -0.0869102 0)
(1.875 -0.0861279 0)
(1.97329 -0.0853095 0)
(2.07057 -0.0845931 0)
(2.16705 -0.0840813 0)
(2.26302 -0.0838075 0)
(2.35877 -0.0837139 0)
(2.45447 -0.0836478 0)
(2.55003 -0.0833757 0)
(2.64509 -0.0826132 0)
(2.7389 -0.0810664 0)
(2.83039 -0.0784732 0)
(2.91821 -0.0746452 0)
(3.00085 -0.0694925 0)
(3.07675 -0.0630304 0)
(3.14446 -0.0553764 0)
(3.20269 -0.0467278 0)
(3.25044 -0.0373309 0)
(3.28703 -0.0274473 0)
(3.31206 -0.0173218 0)
(3.32539 -0.00716512 0)
(3.32682 0.00303672 0)
(3.31726 0.0125286 0)
(3.29682 0.0219789 0)
(3.2658 0.0310544 0)
(3.22463 0.0396756 0)
(3.1739 0.0477673 0)
(3.11429 0.0552311 0)
(3.04656 0.0619574 0)
(2.97164 0.0678395 0)
(2.89052 0.0727898 0)
(2.80429 0.0767594 0)
(2.71406 0.0797715 0)
(2.621 0.0820243 0)
(2.52615 0.0836224 0)
(2.43026 0.0846618 0)
(2.33391 0.0852772 0)
(2.23743 0.0856083 0)
(2.14104 0.0857671 0)
(2.04483 0.0858145 0)
(1.94885 0.0857518 0)
(1.85322 0.0855249 0)
(1.75812 0.0850425 0)
(1.66389 0.0842015 0)
(1.57097 0.0829166 0)
(1.47989 0.0811487 0)
(1.3912 0.078925 0)
(1.30538 0.0763494 0)
(1.22274 0.0735993 0)
(1.14335 0.0709078 0)
(1.06701 0.0685354 0)
(0.993194 0.0667418 0)
(0.921101 0.0657549 0)
(0.849697 0.0657453 0)
(0.777798 0.066808 0)
(0.704165 0.0689564 0)
(0.627591 0.0721257 0)
(0.54699 0.0761876 0)
(0.461458 0.0809702 0)
(0.370312 0.0862795 0)
(0.27313 0.0919199 0)
(0.16958 0.0977231 0)
(0.0589456 0.103578 0)
(-0.0574238 0.109074 0)
(-0.179193 0.114469 0)
(-0.307116 0.119465 0)
(-0.440222 0.124045 0)
(-0.578016 0.128134 0)
(-0.7199 0.131665 0)
(-0.865197 0.134568 0)
(-1.01316 0.136778 0)
(-1.16297 0.138238 0)
(-1.31377 0.138901 0)
(-1.46465 0.138737 0)
(-1.61469 0.13774 0)
(-1.76301 0.135921 0)
(-1.90874 0.133315 0)
(-2.05106 0.129971 0)
(-2.18924 0.125955 0)
(-2.32264 0.121355 0)
(-2.45072 0.116235 0)
(-2.57291 0.110683 0)
(-2.6889 0.104847 0)
(-2.79848 0.0988905 0)
(-2.90158 0.0928818 0)
(-2.99819 0.0868517 0)
(-3.0884 0.0808015 0)
(-3.17209 0.0746987 0)
(-3.24862 0.0682513 0)
(-3.3189 0.0610322 0)
(-3.38483 0.0539444 0)
(-3.43777 0.0452082 0)
(-3.47844 0.0344607 0)
(-3.51191 0.0233052 0)
(-3.53279 0.0109746 0)
(-3.5428 -0.00545277 0)
(-3.53397 -0.0212828 0)
(-3.50568 -0.0379584 0)
(-3.45792 -0.0543423 0)
(-3.39185 -0.0698554 0)
(-3.30925 -0.0836663 0)
(-3.21236 -0.0952879 0)
(-3.10389 -0.104302 0)
(-2.98688 -0.110616 0)
(-2.86468 -0.114308 0)
(-2.73993 -0.115476 0)
(-2.61518 -0.114753 0)
(-2.49243 -0.112372 0)
(-2.37312 -0.108942 0)
(-2.2581 -0.104886 0)
(-2.14768 -0.10083 0)
(-2.04183 -0.0968417 0)
(-1.94029 -0.0931626 0)
(-1.84263 -0.0898955 0)
(-1.74841 -0.0870526 0)
(-1.65718 -0.0845758 0)
(-1.5686 -0.0823794 0)
(-1.48237 -0.0803932 0)
(-1.39827 -0.078556 0)
(-1.31617 -0.0767816 0)
(-1.23598 -0.075073 0)
(-1.15763 -0.0734117 0)
(-1.08107 -0.0717534 0)
(-1.0063 -0.0701035 0)
(-0.933272 -0.0684756 0)
(-0.861915 -0.0668592 0)
(-0.792211 -0.0652433 0)
(-0.724185 -0.0636002 0)
(-0.657877 -0.06196 0)
(-0.593279 -0.0604098 0)
(-0.530341 -0.0589593 0)
(-0.468995 -0.0575532 0)
(-0.409177 -0.0561674 0)
(-0.350833 -0.0548005 0)
(-0.293909 -0.0534736 0)
(-0.238328 -0.0522207 0)
(-0.183988 -0.0510636 0)
(-0.130782 -0.05001 0)
(-0.0786094 -0.0490687 0)
(-0.0273054 -0.0482253 0)
(0.0231707 -0.0474763 0)
(0.0728992 -0.0468265 0)
(0.122078 -0.046275 0)
(0.170732 -0.0458062 0)
(0.218961 -0.045419 0)
(0.266832 -0.0450805 0)
(0.314378 -0.0447612 0)
(0.361594 -0.0444328 0)
(0.408441 -0.0440452 0)
(0.454849 -0.0435936 0)
(0.500734 -0.043059 0)
(0.546015 -0.0424541 0)
(0.59063 -0.0418042 0)
(0.634543 -0.0411418 0)
(0.677741 -0.0404397 0)
(0.720204 -0.0397491 0)
(0.761905 -0.0390118 0)
(0.802799 -0.038199 0)
(0.842845 -0.0373207 0)
(0.882067 -0.0363314 0)
(0.920509 -0.0357099 0)
(0.958299 -0.0354801 0)
(0.995741 -0.0354936 0)
(1.03327 -0.0358678 0)
(1.07141 -0.0367146 0)
(1.11074 -0.0380329 0)
(1.1518 -0.0398211 0)
(1.19502 -0.0418781 0)
(1.24059 -0.0440785 0)
(1.28839 -0.0457445 0)
(1.33802 -0.0474938 0)
(1.38887 -0.0473829 0)
(1.43949 -0.0469082 0)
(1.48935 -0.044801 0)
(1.53552 -0.041096 0)
(1.57781 -0.02563 0)
(1.61018 -0.0209693 0)
(-0.961582 -0.044976 0)
(-0.932038 -0.0415767 0)
(-0.899052 -0.0385358 0)
(-0.868405 -0.0357179 0)
(-0.839967 -0.0329279 0)
(-0.813802 -0.0299417 0)
(-0.790182 -0.0265279 0)
(-0.769573 -0.0224742 0)
(-0.752595 -0.0176248 0)
(-0.739966 -0.0118829 0)
(-0.732457 -0.00521104 0)
(-0.730831 0.0023355 0)
(-0.735795 0.0106276 0)
(-0.74792 0.0194809 0)
(-0.767594 0.0286545 0)
(-0.794988 0.0378631 0)
(-0.830017 0.0467906 0)
(-0.872325 0.055105 0)
(-0.92127 0.0624763 0)
(-0.975932 0.0685961 0)
(-1.03513 0.0732012 0)
(-1.09749 0.0760916 0)
(-1.1615 0.0771517 0)
(-1.22559 0.0763598 0)
(-1.2882 0.0737878 0)
(-1.34791 0.0695922 0)
(-1.40343 0.0639923 0)
(-1.45373 0.0572415 0)
(-1.49797 0.0495951 0)
(-1.53554 0.0412808 0)
(-1.566 0.0324752 0)
(-1.58903 0.0232901 0)
(-1.60438 0.0137747 0)
(-1.61182 0.0039723 0)
(-1.61109 -0.00621909 0)
(-1.60187 -0.0167319 0)
(-1.5839 -0.027528 0)
(-1.55695 -0.0384852 0)
(-1.52096 -0.0494039 0)
(-1.47605 -0.0600194 0)
(-1.42258 -0.0700307 0)
(-1.3612 -0.079143 0)
(-1.29277 -0.0871151 0)
(-1.21836 -0.0938019 0)
(-1.13909 -0.0991836 0)
(-1.05605 -0.103376 0)
(-0.97017 -0.106617 0)
(-0.882122 -0.109227 0)
(-0.792279 -0.111557 0)
(-0.700708 -0.113927 0)
(-0.607227 -0.11657 0)
(-0.5115 -0.119591 0)
(-0.413163 -0.122948 0)
(-0.311955 -0.126465 0)
(-0.207818 -0.129865 0)
(-0.100996 -0.132827 0)
(0.00805044 -0.135047 0)
(0.118521 -0.136312 0)
(0.229557 -0.136521 0)
(0.340244 -0.135728 0)
(0.449774 -0.134125 0)
(0.557572 -0.13201 0)
(0.663354 -0.129734 0)
(0.76715 -0.127639 0)
(0.869265 -0.125993 0)
(0.970192 -0.12495 0)
(1.0705 -0.12453 0)
(1.1707 -0.124622 0)
(1.27117 -0.12502 0)
(1.37207 -0.125472 0)
(1.47331 -0.125739 0)
(1.57464 -0.125646 0)
(1.67568 -0.125123 0)
(1.77605 -0.124209 0)
(1.87543 -0.123044 0)
(1.9737 -0.121828 0)
(2.07091 -0.120767 0)
(2.16728 -0.120015 0)
(2.26314 -0.119625 0)
(2.35884 -0.119514 0)
(2.45457 -0.119461 0)
(2.55029 -0.119125 0)
(2.64564 -0.118091 0)
(2.73988 -0.115929 0)
(2.8319 -0.112255 0)
(2.92033 -0.106797 0)
(3.00358 -0.0994239 0)
(3.08007 -0.0901598 0)
(3.14828 -0.0791782 0)
(3.20691 -0.0667684 0)
(3.25495 -0.05329 0)
(3.29169 -0.0391232 0)
(3.31678 -0.0246223 0)
(3.33008 -0.0100893 0)
(3.3314 0.00447568 0)
(3.32168 0.0181698 0)
(3.30107 0.0315979 0)
(3.26987 0.0445341 0)
(3.22847 0.0568355 0)
(3.17748 0.068387 0)
(3.11754 0.0790469 0)
(3.04945 0.0886548 0)
(2.9741 0.0970515 0)
(2.89253 0.104102 0)
(2.80584 0.109733 0)
(2.71521 0.114016 0)
(2.62181 0.117198 0)
(2.52667 0.119404 0)
(2.43055 0.120801 0)
(2.33403 0.121598 0)
(2.23745 0.122006 0)
(2.141 0.122186 0)
(2.04473 0.122226 0)
(1.94869 0.122124 0)
(1.85296 0.121801 0)
(1.75772 0.121117 0)
(1.66329 0.119921 0)
(1.57015 0.118085 0)
(1.47885 0.11555 0)
(1.38996 0.112352 0)
(1.30401 0.108641 0)
(1.22133 0.10467 0)
(1.14203 0.100776 0)
(1.0659 0.0973393 0)
(0.992408 0.0947371 0)
(0.920732 0.0932988 0)
(0.849808 0.0932694 0)
(0.778412 0.0947846 0)
(0.705266 0.0978612 0)
(0.629131 0.102404 0)
(0.548896 0.108224 0)
(0.463641 0.115073 0)
(0.372676 0.122669 0)
(0.275589 0.13073 0)
(0.172061 0.139006 0)
(0.0613523 0.147291 0)
(-0.0551457 0.155252 0)
(-0.177067 0.162868 0)
(-0.305193 0.169958 0)
(-0.438529 0.176454 0)
(-0.576588 0.182247 0)
(-0.718769 0.187238 0)
(-0.864395 0.191328 0)
(-1.01271 0.194426 0)
(-1.16291 0.196451 0)
(-1.31411 0.197335 0)
(-1.46539 0.197038 0)
(-1.61584 0.19555 0)
(-1.76455 0.192893 0)
(-1.91064 0.189115 0)
(-2.0533 0.184286 0)
(-2.19177 0.178501 0)
(-2.32542 0.171889 0)
(-2.45371 0.164547 0)
(-2.57604 0.156598 0)
(-2.69209 0.148252 0)
(-2.80167 0.139739 0)
(-2.90473 0.131145 0)
(-3.00127 0.122501 0)
(-3.09142 0.113802 0)
(-3.17507 0.105007 0)
(-3.25165 0.0957041 0)
(-3.32208 0.0852862 0)
(-3.38826 0.075077 0)
(-3.44152 0.0625572 0)
(-3.48268 0.0470102 0)
(-3.51678 0.0311443 0)
(-3.53813 0.0136201 0)
(-3.54851 -0.00931662 0)
(-3.53986 -0.0315753 0)
(-3.51161 -0.0549764 0)
(-3.46373 -0.0777966 0)
(-3.3972 -0.0994034 0)
(-3.31389 -0.118675 0)
(-3.21599 -0.134956 0)
(-3.10647 -0.147537 0)
(-2.98845 -0.156241 0)
(-2.86529 -0.161181 0)
(-2.73972 -0.162936 0)
(-2.61433 -0.161691 0)
(-2.4911 -0.158341 0)
(-2.37147 -0.153536 0)
(-2.25629 -0.147918 0)
(-2.14586 -0.141966 0)
(-2.04011 -0.13623 0)
(-1.93872 -0.130926 0)
(-1.84125 -0.126168 0)
(-1.74719 -0.121976 0)
(-1.6561 -0.118293 0)
(-1.56762 -0.115028 0)
(-1.48146 -0.112098 0)
(-1.39741 -0.109429 0)
(-1.31534 -0.10691 0)
(-1.23517 -0.104521 0)
(-1.15682 -0.102262 0)
(-1.08026 -0.100024 0)
(-1.0055 -0.0978107 0)
(-0.932472 -0.0956889 0)
(-0.861127 -0.0935995 0)
(-0.791444 -0.0914569 0)
(-0.723445 -0.0892519 0)
(-0.657169 -0.0870012 0)
(-0.592611 -0.0847369 0)
(-0.52972 -0.0824814 0)
(-0.468419 -0.0803228 0)
(-0.408631 -0.0782909 0)
(-0.3503 -0.0763636 0)
(-0.29338 -0.0745424 0)
(-0.237805 -0.0728503 0)
(-0.183483 -0.0713007 0)
(-0.130309 -0.0698985 0)
(-0.0781787 -0.068642 0)
(-0.0269204 -0.0675183 0)
(0.0235071 -0.0665364 0)
(0.0731903 -0.0656921 0)
(0.122326 -0.0649854 0)
(0.170941 -0.0643762 0)
(0.219137 -0.0638739 0)
(0.266986 -0.0634332 0)
(0.314525 -0.0629992 0)
(0.36175 -0.0625399 0)
(0.40862 -0.062002 0)
(0.455058 -0.0613624 0)
(0.500974 -0.0606033 0)
(0.546279 -0.0597649 0)
(0.590911 -0.0588487 0)
(0.634834 -0.0579145 0)
(0.678038 -0.0569384 0)
(0.720512 -0.0559536 0)
(0.762234 -0.0548892 0)
(0.803152 -0.0538448 0)
(0.843201 -0.0529271 0)
(0.88233 -0.0521436 0)
(0.920635 -0.0509753 0)
(0.958284 -0.050086 0)
(0.995565 -0.0497833 0)
(1.03289 -0.0501873 0)
(1.07082 -0.0513703 0)
(1.10996 -0.0533198 0)
(1.1509 -0.0558971 0)
(1.19406 -0.0588759 0)
(1.23967 -0.0619853 0)
(1.28766 -0.0646244 0)
(1.3376 -0.0668978 0)
(1.38888 -0.0672454 0)
(1.44021 -0.0674786 0)
(1.49099 -0.062285 0)
(1.53781 -0.0599693 0)
(1.58415 -0.0423619 0)
(1.62549 -0.0349151 0)
(-0.960013 -0.058982 0)
(-0.930636 -0.054528 0)
(-0.897787 -0.0505652 0)
(-0.8672 -0.0469097 0)
(-0.838726 -0.043298 0)
(-0.812422 -0.0394252 0)
(-0.788564 -0.034985 0)
(-0.767635 -0.0296973 0)
(-0.750278 -0.0233492 0)
(-0.737241 -0.0158092 0)
(-0.729334 -0.00705138 0)
(-0.727347 0.00286055 0)
(-0.732018 0.0137667 0)
(-0.743944 0.0254216 0)
(-0.763536 0.0375076 0)
(-0.79098 0.0496487 0)
(-0.826205 0.0614278 0)
(-0.868854 0.0724063 0)
(-0.918283 0.0821477 0)
(-0.973557 0.0902402 0)
(-1.03348 0.0963261 0)
(-1.09663 0.100138 0)
(-1.16145 0.101523 0)
(-1.22634 0.100454 0)
(-1.28971 0.0970317 0)
(-1.35008 0.0914671 0)
(-1.40617 0.0840572 0)
(-1.45692 0.0751435 0)
(-1.50149 0.0650685 0)
(-1.5393 0.0541372 0)
(-1.56994 0.0425838 0)
(-1.59312 0.0305542 0)
(-1.60861 0.0181102 0)
(-1.61619 0.00528971 0)
(-1.61562 -0.00803294 0)
(-1.60654 -0.0217845 0)
(-1.58867 -0.0359197 0)
(-1.56176 -0.0502803 0)
(-1.5257 -0.0646034 0)
(-1.48059 -0.0785355 0)
(-1.42678 -0.0916728 0)
(-1.36494 -0.103619 0)
(-1.29597 -0.114048 0)
(-1.22097 -0.122764 0)
(-1.14114 -0.12974 0)
(-1.05762 -0.135131 0)
(-0.971388 -0.139258 0)
(-0.88314 -0.142553 0)
(-0.793251 -0.14549 0)
(-0.701761 -0.148501 0)
(-0.608437 -0.151901 0)
(-0.512881 -0.15583 0)
(-0.414666 -0.160232 0)
(-0.313474 -0.164867 0)
(-0.209216 -0.16936 0)
(-0.10213 -0.173273 0)
(0.00730118 -0.1762 0)
(0.118228 -0.177849 0)
(0.229732 -0.178083 0)
(0.34083 -0.176974 0)
(0.450658 -0.174782 0)
(0.558605 -0.171911 0)
(0.664379 -0.168834 0)
(0.768027 -0.166011 0)
(0.869897 -0.163803 0)
(0.970541 -0.162418 0)
(1.07059 -0.161876 0)
(1.17061 -0.162025 0)
(1.271 -0.162584 0)
(1.37193 -0.16321 0)
(1.4733 -0.163578 0)
(1.57482 -0.163453 0)
(1.67605 -0.162739 0)
(1.77656 -0.161492 0)
(1.87602 -0.159903 0)
(1.97426 -0.158247 0)
(2.07136 -0.156807 0)
(2.16757 -0.155796 0)
(2.26328 -0.155289 0)
(2.35889 -0.155183 0)
(2.45465 -0.155182 0)
(2.55059 -0.154833 0)
(2.64634 -0.15358 0)
(2.74116 -0.150849 0)
(2.83391 -0.14613 0)
(2.92316 -0.139057 0)
(3.00726 -0.129459 0)
(3.08455 -0.11737 0)
(3.15345 -0.103026 0)
(3.21262 -0.0868149 0)
(3.26104 -0.0692163 0)
(3.298 -0.0507361 0)
(3.32315 -0.0318429 0)
(3.3364 -0.0129293 0)
(3.3376 0.0060097 0)
(3.32766 0.0238457 0)
(3.30679 0.0413504 0)
(3.27535 0.058075 0)
(3.23366 0.074017 0)
(3.1823 0.0889986 0)
(3.12194 0.102828 0)
(3.05335 0.115291 0)
(2.97744 0.126169 0)
(2.89525 0.135279 0)
(2.80795 0.142539 0)
(2.71678 0.148096 0)
(2.62291 0.152149 0)
(2.52736 0.154878 0)
(2.43093 0.156541 0)
(2.33419 0.157436 0)
(2.23748 0.157847 0)
(2.14095 0.157993 0)
(2.04463 0.157988 0)
(1.94852 0.157827 0)
(1.85266 0.157396 0)
(1.75722 0.156508 0)
(1.66254 0.154954 0)
(1.56909 0.152559 0)
(1.47748 0.149239 0)
(1.38832 0.145039 0)
(1.30219 0.140152 0)
(1.21947 0.134913 0)
(1.14028 0.129766 0)
(1.06443 0.125212 0)
(0.991374 0.121747 0)
(0.920265 0.119806 0)
(0.849988 0.11971 0)
(0.779273 0.121634 0)
(0.706786 0.125598 0)
(0.631244 0.131473 0)
(0.551503 0.139008 0)
(0.466622 0.147874 0)
(0.375907 0.157702 0)
(0.27895 0.168125 0)
(0.175448 0.178814 0)
(0.06466 0.189476 0)
(-0.0519999 0.19979 0)
(-0.174132 0.209576 0)
(-0.302515 0.218698 0)
(-0.436147 0.227056 0)
(-0.574549 0.234507 0)
(-0.717116 0.240923 0)
(-0.863172 0.246178 0)
(-1.01196 0.250152 0)
(-1.16266 0.25274 0)
(-1.31439 0.253855 0)
(-1.46621 0.253443 0)
(-1.6172 0.251495 0)
(-1.76642 0.248038 0)
(-1.913 0.24314 0)
(-2.05611 0.236892 0)
(-2.19497 0.229423 0)
(-2.32895 0.220906 0)
(-2.4575 0.211448 0)
(-2.58002 0.201187 0)
(-2.69616 0.190401 0)
(-2.80574 0.179433 0)
(-2.90876 0.168401 0)
(-3.00525 0.157358 0)
(-3.09534 0.146315 0)
(-3.17897 0.135244 0)
(-3.25562 0.123635 0)
(-3.32628 0.110682 0)
(-3.39281 0.0979632 0)
(-3.44658 0.0824582 0)
(-3.48841 0.0628254 0)
(-3.52317 0.0426976 0)
(-3.54499 0.0199792 0)
(-3.55581 -0.00951045 0)
(-3.54811 -0.038752 0)
(-3.52018 -0.0691936 0)
(-3.47196 -0.0990693 0)
(-3.40459 -0.12729 0)
(-3.32025 -0.15239 0)
(-3.22128 -0.173475 0)
(-3.11039 -0.189753 0)
(-2.99102 -0.201105 0)
(-2.86659 -0.207548 0)
(-2.73986 -0.209393 0)
(-2.61352 -0.207833 0)
(-2.48965 -0.203329 0)
(-2.36963 -0.19701 0)
(-2.25426 -0.189683 0)
(-2.14382 -0.182104 0)
(-2.03815 -0.174834 0)
(-1.9369 -0.168148 0)
(-1.83957 -0.162163 0)
(-1.74564 -0.156914 0)
(-1.65465 -0.152317 0)
(-1.56624 -0.148252 0)
(-1.48012 -0.144603 0)
(-1.39605 -0.141248 0)
(-1.31395 -0.138032 0)
(-1.23372 -0.13496 0)
(-1.15532 -0.131998 0)
(-1.07872 -0.129062 0)
(-1.00392 -0.126135 0)
(-0.930879 -0.123229 0)
(-0.859549 -0.120354 0)
(-0.789897 -0.117443 0)
(-0.721941 -0.114467 0)
(-0.65572 -0.111492 0)
(-0.591243 -0.108658 0)
(-0.528459 -0.106021 0)
(-0.467277 -0.10348 0)
(-0.40761 -0.100989 0)
(-0.349397 -0.0985455 0)
(-0.292583 -0.0961791 0)
(-0.237103 -0.0939457 0)
(-0.182866 -0.0918807 0)
(-0.129767 -0.0900104 0)
(-0.0777023 -0.0883396 0)
(-0.0265053 -0.0868484 0)
(0.0238709 -0.08553 0)
(0.0735045 -0.0843921 0)
(0.122598 -0.0834322 0)
(0.171177 -0.08262 0)
(0.21935 -0.0819568 0)
(0.267195 -0.0813772 0)
(0.314751 -0.0808366 0)
(0.362013 -0.080274 0)
(0.408933 -0.0795902 0)
(0.455421 -0.0787835 0)
(0.501382 -0.0778101 0)
(0.54672 -0.0767074 0)
(0.591373 -0.0755248 0)
(0.635307 -0.0743197 0)
(0.678519 -0.0730703 0)
(0.721 -0.0718571 0)
(0.762743 -0.070509 0)
(0.803681 -0.0691056 0)
(0.843779 -0.0672742 0)
(0.882939 -0.0656823 0)
(0.921122 -0.0647309 0)
(0.958511 -0.0641374 0)
(0.995459 -0.0640066 0)
(1.03245 -0.0645162 0)
(1.07008 -0.0659671 0)
(1.10895 -0.0684598 0)
(1.14967 -0.0717983 0)
(1.19271 -0.0756435 0)
(1.23835 -0.0797155 0)
(1.28656 -0.0831653 0)
(1.33691 -0.0860931 0)
(1.38891 -0.0866857 0)
(1.44091 -0.085787 0)
(1.49279 -0.0824531 0)
(1.54191 -0.0754162 0)
(1.58841 -0.0587023 0)
(1.63093 -0.052563 0)
(-0.958016 -0.0729063 0)
(-0.928865 -0.0674077 0)
(-0.896196 -0.0625472 0)
(-0.865691 -0.0580893 0)