/*--------------------------------*- C++ -*----------------------------------*\
| =========                 |                                                 |
| \\      /  F ield         | OpenFOAM: The Open Source CFD Toolbox           |
|  \\    /   O peration     | Version:  v1912                                 |
|   \\  /    A nd           | Website:  www.openfoam.com                      |
|    \\/     M anipulation  |                                                 |
\*---------------------------------------------------------------------------*/
FoamFile
{
    version     2.0;
    format      ascii;
    class       volScalarField;
    location    "40";
    object      nut;
}
// * * * * * * * * * * * * * * * * * * * * * * * * * * * * * * * * * * * * * //

dimensions      [0 2 -1 0 0 0 0];


internalField   nonuniform List<scalar> 
14268
(
8.3887e-05
8.3812e-05
8.26375e-05
8.13054e-05
8.04395e-05
7.97035e-05
7.89676e-05
7.81952e-05
7.74014e-05
7.66415e-05
7.59612e-05
7.5411e-05
7.50325e-05
7.48389e-05
7.47788e-05
7.4799e-05
7.48618e-05
7.4934e-05
7.49919e-05
7.50237e-05
7.50045e-05
7.49232e-05
7.4785e-05
7.46355e-05
7.44925e-05
7.43792e-05
7.43175e-05
7.43098e-05
7.43408e-05
7.4381e-05
7.44361e-05
7.45638e-05
7.47923e-05
7.5135e-05
7.55876e-05
7.61233e-05
7.67076e-05
7.73203e-05
7.7927e-05
7.8501e-05
7.89994e-05
7.93796e-05
7.96169e-05
7.96981e-05
7.96342e-05
7.94442e-05
7.91719e-05
7.88567e-05
7.85355e-05
7.82221e-05
7.79254e-05
7.76581e-05
7.74305e-05
7.7248e-05
7.71095e-05
7.70096e-05
7.69374e-05
7.6879e-05
7.68231e-05
7.67568e-05
7.66817e-05
7.66035e-05
7.65311e-05
7.64756e-05
7.64463e-05
7.64486e-05
7.64828e-05
7.65363e-05
7.66006e-05
7.67345e-05
7.69514e-05
7.72439e-05
7.75877e-05
7.79496e-05
7.8315e-05
7.8658e-05
7.90064e-05
7.93329e-05
7.96042e-05
7.98533e-05
8.00893e-05
8.03187e-05
8.05448e-05
8.07663e-05
8.09773e-05
8.11665e-05
8.13197e-05
8.14238e-05
8.14687e-05
8.14524e-05
8.13988e-05
8.13283e-05
8.12382e-05
8.11301e-05
8.1009e-05
8.08793e-05
8.0743e-05
8.05994e-05
8.04542e-05
8.03033e-05
8.01493e-05
7.99996e-05
7.98492e-05
7.96972e-05
7.95524e-05
7.94181e-05
7.92924e-05
7.91729e-05
7.90575e-05
7.89405e-05
7.88198e-05
7.87011e-05
7.85996e-05
7.85277e-05
7.84767e-05
7.84374e-05
7.83992e-05
7.83457e-05
7.82952e-05
7.82352e-05
7.81576e-05
7.80742e-05
7.79972e-05
7.79035e-05
7.78049e-05
7.77097e-05
7.76279e-05
7.75687e-05
7.7536e-05
7.75307e-05
7.75511e-05
7.75963e-05
7.76677e-05
7.77547e-05
7.78559e-05
7.79648e-05
7.80734e-05
7.81748e-05
7.82621e-05
7.83265e-05
7.83588e-05
7.83537e-05
7.83082e-05
7.82244e-05
7.81093e-05
7.79957e-05
7.78843e-05
7.77743e-05
7.76671e-05
7.75645e-05
7.74674e-05
7.73705e-05
7.72728e-05
7.71726e-05
7.70682e-05
7.69623e-05
7.6858e-05
7.67545e-05
7.6655e-05
7.65608e-05
7.64703e-05
7.63791e-05
7.62829e-05
7.61998e-05
7.12445e-08
1.21487e-07
3.09697e-07
6.94648e-07
1.02197e-06
1.17852e-06
1.23096e-06
1.24015e-06
1.23171e-06
1.21311e-06
1.19485e-06
1.18147e-06
1.16898e-06
1.15314e-06
1.13654e-06
1.11933e-06
1.10137e-06
1.08335e-06
1.06547e-06
1.04536e-06
1.0246e-06
1.00373e-06
9.82775e-07
9.62387e-07
9.43482e-07
9.27079e-07
9.14135e-07
9.05425e-07
9.01591e-07
9.04157e-07
9.12701e-07
9.25282e-07
9.42077e-07
9.63315e-07
9.89227e-07
1.01997e-06
1.05554e-06
1.09566e-06
1.14064e-06
1.19042e-06
1.24128e-06
1.29291e-06
1.34242e-06
1.38705e-06
1.42416e-06
1.45187e-06
1.4692e-06
1.47609e-06
1.47127e-06
1.45631e-06
1.43459e-06
1.40887e-06
1.38067e-06
1.35105e-06
1.32138e-06
1.29217e-06
1.26299e-06
1.23207e-06
1.19668e-06
1.15894e-06
1.11909e-06
1.0785e-06
1.03898e-06
1.0024e-06
9.70746e-07
9.46047e-07
9.30144e-07
9.24042e-07
9.28144e-07
9.37942e-07
9.52943e-07
9.72773e-07
9.96781e-07
1.02407e-06
1.05348e-06
1.08376e-06
1.11599e-06
1.14882e-06
1.18017e-06
1.21186e-06
1.24392e-06
1.27709e-06
1.31163e-06
1.34753e-06
1.38428e-06
1.42061e-06
1.45449e-06
1.48336e-06
1.50472e-06
1.51683e-06
1.51645e-06
1.50099e-06
1.47158e-06
1.43143e-06
1.38393e-06
1.33227e-06
1.27912e-06
1.2278e-06
1.17638e-06
1.12704e-06
1.08246e-06
1.04228e-06
1.00597e-06
9.73417e-07
9.44497e-07
9.19686e-07
8.99292e-07
8.83686e-07
8.7328e-07
8.68141e-07
8.68331e-07
8.74001e-07
8.83308e-07
8.94127e-07
9.06227e-07
9.19264e-07
9.32827e-07
9.46199e-07
9.59316e-07
9.71351e-07
9.82113e-07
9.92285e-07
1.00242e-06
1.01214e-06
1.02204e-06
1.03267e-06
1.04471e-06
1.05885e-06
1.07556e-06
1.09513e-06
1.11769e-06
1.14337e-06
1.17248e-06
1.20465e-06
1.23999e-06
1.27802e-06
1.31829e-06
1.3601e-06
1.40228e-06
1.44335e-06
1.48145e-06
1.5146e-06
1.54093e-06
1.55904e-06
1.56683e-06
1.56137e-06
1.54195e-06
1.51115e-06
1.47173e-06
1.42824e-06
1.38204e-06
1.33653e-06
1.29511e-06
1.25891e-06
1.22885e-06
1.20441e-06
1.18552e-06
1.17089e-06
1.159e-06
1.14831e-06
1.13756e-06
1.12644e-06
1.11302e-06
1.09969e-06
2.79508e-08
4.89807e-08
1.23063e-07
2.64943e-07
3.89171e-07
4.4689e-07
4.66095e-07
4.69354e-07
4.65861e-07
4.57821e-07
4.48706e-07
4.40167e-07
4.32332e-07
4.2503e-07
4.17921e-07
4.10876e-07
4.03873e-07
3.96961e-07
3.90097e-07
3.829e-07
3.75402e-07
3.67696e-07
3.59884e-07
3.52209e-07
3.44967e-07
3.38548e-07
3.33368e-07
3.29834e-07
3.28154e-07
3.28435e-07
3.30245e-07
3.33173e-07
3.37243e-07
3.42477e-07
3.48906e-07
3.56557e-07
3.65448e-07
3.75498e-07
3.86525e-07
3.9843e-07
4.10878e-07
4.23395e-07
4.35166e-07
4.45541e-07
4.53882e-07
4.59752e-07
4.62979e-07
4.63957e-07
4.62603e-07
4.59165e-07
4.54418e-07
4.48929e-07
4.43104e-07
4.37258e-07
4.31634e-07
4.26251e-07
4.20916e-07
4.15277e-07
4.08901e-07
4.01946e-07
3.94584e-07
3.87148e-07
3.80009e-07
3.73551e-07
3.6814e-07
3.64105e-07
3.617e-07
3.61024e-07
3.62218e-07
3.64528e-07
3.67819e-07
3.7204e-07
3.7708e-07
3.82798e-07
3.88935e-07
3.95247e-07
4.0163e-07
4.07734e-07
4.13811e-07
4.19919e-07
4.26046e-07
4.32416e-07
4.39131e-07
4.46218e-07
4.53572e-07
4.60922e-07
4.6783e-07
4.73698e-07
4.77945e-07
4.80182e-07
4.80035e-07
4.77015e-07
4.71443e-07
4.63972e-07
4.5529e-07
4.46037e-07
4.36731e-07
4.27824e-07
4.19379e-07
4.11613e-07
4.04762e-07
3.98784e-07
3.93523e-07
3.88925e-07
3.84955e-07
3.81663e-07
3.79069e-07
3.77216e-07
3.76154e-07
3.75854e-07
3.76309e-07
3.77645e-07
3.79571e-07
3.81775e-07
3.8424e-07
3.8689e-07
3.89631e-07
3.92311e-07
3.94925e-07
3.9725e-07
3.99148e-07
4.00892e-07
4.0265e-07
4.04414e-07
4.06304e-07
4.08402e-07
4.10768e-07
4.13526e-07
4.16759e-07
4.20533e-07
4.24918e-07
4.29955e-07
4.35678e-07
4.4214e-07
4.49331e-07
4.57165e-07
4.65559e-07
4.74366e-07
4.83365e-07
4.92229e-07
5.00547e-07
5.07881e-07
5.13783e-07
5.17897e-07
5.19917e-07
5.19218e-07
5.1571e-07
5.09958e-07
5.02592e-07
4.94457e-07
4.8609e-07
4.78123e-07
4.71061e-07
4.65069e-07
4.60266e-07
4.5652e-07
4.5375e-07
4.51667e-07
4.5003e-07
4.48548e-07
4.47109e-07
4.45551e-07
4.43585e-07
4.41475e-07
2.3576e-08
4.02162e-08
9.55924e-08
1.93773e-07
2.73635e-07
3.08767e-07
3.1975e-07
3.21719e-07
3.20101e-07
3.16619e-07
3.13239e-07
3.10588e-07
3.0868e-07
3.07052e-07
3.05633e-07
3.04313e-07
3.0304e-07
3.01848e-07
3.00701e-07
2.99469e-07
2.98202e-07
2.9696e-07
2.95766e-07
2.94686e-07
2.93901e-07
2.93497e-07
2.93509e-07
2.93918e-07
2.94724e-07
2.9584e-07
2.97205e-07
2.98815e-07
3.00697e-07
3.02883e-07
3.05398e-07
3.08268e-07
3.11518e-07
3.15113e-07
3.18968e-07
3.23103e-07
3.27473e-07
3.31861e-07
3.35943e-07
3.39515e-07
3.42371e-07
3.44396e-07
3.45583e-07
3.46161e-07
3.46113e-07
3.45547e-07
3.44703e-07
3.43759e-07
3.42844e-07
3.42033e-07
3.41372e-07
3.40844e-07
3.4038e-07
3.39903e-07
3.3934e-07
3.38724e-07
3.3811e-07
3.37578e-07
3.37205e-07
3.37048e-07
3.37111e-07
3.37367e-07
3.37848e-07
3.38495e-07
3.39225e-07
3.40033e-07
3.40921e-07
3.41901e-07
3.42981e-07
3.4415e-07
3.45414e-07
3.46747e-07
3.48119e-07
3.49443e-07
3.50811e-07
3.52244e-07
3.53675e-07
3.55171e-07
3.5674e-07
3.5838e-07
3.60062e-07
3.61721e-07
3.63253e-07
3.64516e-07
3.65374e-07
3.65782e-07
3.65676e-07
3.64916e-07
3.63623e-07
3.61978e-07
3.60163e-07
3.58323e-07
3.56547e-07
3.54917e-07
3.53455e-07
3.52241e-07
3.51392e-07
3.50638e-07
3.50012e-07
3.49586e-07
3.49312e-07
3.49192e-07
3.49191e-07
3.49277e-07
3.49425e-07
3.49628e-07
3.49863e-07
3.50101e-07
3.5036e-07
3.50625e-07
3.50928e-07
3.5126e-07
3.51594e-07
3.51948e-07
3.52311e-07
3.52673e-07
3.53014e-07
3.5335e-07
3.53687e-07
3.54038e-07
3.54411e-07
3.54803e-07
3.55245e-07
3.55763e-07
3.56379e-07
3.57113e-07
3.57978e-07
3.58984e-07
3.6014e-07
3.6145e-07
3.62918e-07
3.64562e-07
3.66383e-07
3.6833e-07
3.70351e-07
3.72372e-07
3.74303e-07
3.76035e-07
3.77463e-07
3.78508e-07
3.7908e-07
3.78969e-07
3.78158e-07
3.76783e-07
3.75026e-07
3.731e-07
3.71158e-07
3.69395e-07
3.67931e-07
3.6682e-07
3.66062e-07
3.65499e-07
3.65043e-07
3.64752e-07
3.64579e-07
3.64471e-07
3.64405e-07
3.64437e-07
3.64057e-07
3.63664e-07
2.19102e-08
3.68693e-08
8.76292e-08
1.7824e-07
2.5012e-07
2.80982e-07
2.90704e-07
2.93128e-07
2.93033e-07
2.91813e-07
2.90773e-07
2.90294e-07
2.90256e-07
2.90456e-07
2.90818e-07
2.91285e-07
2.91821e-07
2.92452e-07
2.93154e-07
2.93846e-07
2.94594e-07
2.95449e-07
2.96414e-07
2.975e-07
2.98649e-07
2.99795e-07
3.00865e-07
3.01817e-07
3.02602e-07
3.03259e-07
3.03932e-07
3.04615e-07
3.05371e-07
3.06255e-07
3.07302e-07
3.08534e-07
3.09962e-07
3.11598e-07
3.13406e-07
3.15435e-07
3.17705e-07
3.20131e-07
3.22498e-07
3.24652e-07
3.2643e-07
3.27712e-07
3.28457e-07
3.28859e-07
3.2905e-07
3.2907e-07
3.28998e-07
3.28897e-07
3.28813e-07
3.28783e-07
3.28819e-07
3.28908e-07
3.2902e-07
3.29129e-07
3.29205e-07
3.29256e-07
3.29276e-07
3.29278e-07
3.2929e-07
3.29361e-07
3.2951e-07
3.29719e-07
3.30012e-07
3.3042e-07
3.30997e-07
3.31629e-07
3.32311e-07
3.33053e-07
3.33872e-07
3.34776e-07
3.35746e-07
3.36751e-07
3.37746e-07
3.38704e-07
3.39652e-07
3.40652e-07
3.41672e-07
3.42781e-07
3.44e-07
3.4534e-07
3.46773e-07
3.48232e-07
3.49594e-07
3.50689e-07
3.51356e-07
3.51534e-07
3.51398e-07
3.50984e-07
3.50357e-07
3.49592e-07
3.48767e-07
3.47931e-07
3.47103e-07
3.46314e-07
3.45569e-07
3.44947e-07
3.44481e-07
3.44032e-07
3.43622e-07
3.43264e-07
3.42938e-07
3.42659e-07
3.42429e-07
3.4224e-07
3.42097e-07
3.42035e-07
3.42102e-07
3.42262e-07
3.42491e-07
3.42698e-07
3.42853e-07
3.42974e-07
3.43041e-07
3.43105e-07
3.43179e-07
3.43231e-07
3.43274e-07
3.43274e-07
3.43265e-07
3.4327e-07
3.43304e-07
3.43362e-07
3.4347e-07
3.4363e-07
3.43837e-07
3.44092e-07
3.44414e-07
3.44809e-07
3.45298e-07
3.45912e-07
3.4667e-07
3.47571e-07
3.48619e-07
3.4978e-07
3.51009e-07
3.52246e-07
3.53395e-07
3.5435e-07
3.55005e-07
3.55308e-07
3.55374e-07
3.55176e-07
3.54725e-07
3.54091e-07
3.53348e-07
3.52576e-07
3.51826e-07
3.51208e-07
3.5074e-07
3.504e-07
3.50178e-07
3.49999e-07
3.49832e-07
3.49697e-07
3.49587e-07
3.49506e-07
3.49454e-07
3.49466e-07
3.49234e-07
3.49158e-07
2.10409e-08
3.51186e-08
8.41964e-08
1.74321e-07
2.47094e-07
2.78254e-07
2.88222e-07
2.90993e-07
2.91783e-07
2.91867e-07
2.92294e-07
2.93253e-07
2.94534e-07
2.95905e-07
2.97292e-07
2.98668e-07
3.00031e-07
3.01432e-07
3.02879e-07
3.04295e-07
3.05739e-07
3.0723e-07
3.08715e-07
3.10141e-07
3.11458e-07
3.12657e-07
3.13742e-07
3.14669e-07
3.15393e-07
3.15948e-07
3.16332e-07
3.16571e-07
3.16744e-07
3.16943e-07
3.17232e-07
3.17669e-07
3.18277e-07
3.19069e-07
3.20036e-07
3.2122e-07
3.22564e-07
3.24009e-07
3.25399e-07
3.26629e-07
3.2759e-07
3.28213e-07
3.28497e-07
3.28653e-07
3.28763e-07
3.28847e-07
3.28937e-07
3.29061e-07
3.29236e-07
3.29471e-07
3.29763e-07
3.30103e-07
3.30484e-07
3.30904e-07
3.31359e-07
3.3186e-07
3.32397e-07
3.32972e-07
3.33626e-07
3.34376e-07
3.35176e-07
3.35974e-07
3.3676e-07
3.37454e-07
3.37999e-07
3.38438e-07
3.38785e-07
3.39067e-07
3.39325e-07
3.39595e-07
3.39905e-07
3.40266e-07
3.40661e-07
3.41122e-07
3.41565e-07
3.42074e-07
3.42613e-07
3.43223e-07
3.4391e-07
3.44675e-07
3.45501e-07
3.46341e-07
3.47112e-07
3.47703e-07
3.4802e-07
3.48071e-07
3.47986e-07
3.47794e-07
3.47532e-07
3.47237e-07
3.46948e-07
3.46674e-07
3.46407e-07
3.46152e-07
3.45909e-07
3.45736e-07
3.45685e-07
3.45616e-07
3.45564e-07
3.45549e-07
3.45554e-07
3.45635e-07
3.45771e-07
3.45943e-07
3.46124e-07
3.46284e-07
3.4641e-07
3.46482e-07
3.46472e-07
3.46425e-07
3.46278e-07
3.46124e-07
3.46026e-07
3.45958e-07
3.4591e-07
3.45878e-07
3.45869e-07
3.45876e-07
3.45893e-07
3.45916e-07
3.45951e-07
3.45998e-07
3.4606e-07
3.46127e-07
3.46185e-07
3.46231e-07
3.46281e-07
3.46344e-07
3.46442e-07
3.46575e-07
3.46763e-07
3.47006e-07
3.47315e-07
3.47671e-07
3.48044e-07
3.48413e-07
3.48744e-07
3.48986e-07
3.49111e-07
3.49141e-07
3.49122e-07
3.49022e-07
3.48852e-07
3.48636e-07
3.48404e-07
3.48175e-07
3.47962e-07
3.47835e-07
3.47779e-07
3.47827e-07
3.4798e-07
3.48104e-07
3.48152e-07
3.48211e-07
3.48275e-07
3.4838e-07
3.48488e-07
3.48682e-07
3.48629e-07
3.48761e-07
2.04946e-08
3.38585e-08
8.19168e-08
1.73706e-07
2.51064e-07
2.84694e-07
2.95843e-07
2.99308e-07
3.01026e-07
3.0228e-07
3.03756e-07
3.05462e-07
3.07191e-07
3.08851e-07
3.10391e-07
3.11814e-07
3.1314e-07
3.14432e-07
3.15722e-07
3.16982e-07
3.18265e-07
3.1957e-07
3.20841e-07
3.22044e-07
3.23153e-07
3.24142e-07
3.24979e-07
3.25673e-07
3.26238e-07
3.26627e-07
3.26812e-07
3.26798e-07
3.26669e-07
3.26504e-07
3.26369e-07
3.26322e-07
3.26408e-07
3.26633e-07
3.2701e-07
3.27596e-07
3.28366e-07
3.29295e-07
3.30258e-07
3.31137e-07
3.31816e-07
3.32217e-07
3.32342e-07
3.3241e-07
3.32472e-07
3.32544e-07
3.32647e-07
3.32806e-07
3.33029e-07
3.33311e-07
3.33643e-07
3.34012e-07
3.34411e-07
3.34842e-07
3.35301e-07
3.35797e-07
3.36323e-07
3.36869e-07
3.37421e-07
3.37982e-07
3.38551e-07
3.39181e-07
3.39841e-07
3.40463e-07
3.40984e-07
3.41364e-07
3.41614e-07
3.4177e-07
3.41881e-07
3.42003e-07
3.42169e-07
3.42389e-07
3.42646e-07
3.42991e-07
3.43317e-07
3.43718e-07
3.44174e-07
3.44719e-07
3.45358e-07
3.46089e-07
3.46892e-07
3.4772e-07
3.48484e-07
3.49063e-07
3.49355e-07
3.4938e-07
3.49289e-07
3.49112e-07
3.48878e-07
3.48615e-07
3.48348e-07
3.48081e-07
3.47805e-07
3.4753e-07
3.4726e-07
3.47034e-07
3.46888e-07
3.46729e-07
3.46574e-07
3.46428e-07
3.46281e-07
3.46145e-07
3.46049e-07
3.46011e-07
3.4602e-07
3.46056e-07
3.4612e-07
3.46183e-07
3.46184e-07
3.46175e-07
3.4603e-07
3.45869e-07
3.45752e-07
3.4564e-07
3.45526e-07
3.45412e-07
3.4532e-07
3.45245e-07
3.45182e-07
3.45126e-07
3.45095e-07
3.45105e-07
3.45151e-07
3.45222e-07
3.45298e-07
3.45381e-07
3.45488e-07
3.45626e-07
3.45826e-07
3.46082e-07
3.46416e-07
3.46823e-07
3.47304e-07
3.47834e-07
3.48378e-07
3.48905e-07
3.49358e-07
3.49669e-07
3.49776e-07
3.49736e-07
3.49615e-07
3.49424e-07
3.4918e-07
3.48897e-07
3.48603e-07
3.48314e-07
3.48043e-07
3.47852e-07
3.47735e-07
3.47682e-07
3.47661e-07
3.47614e-07
3.47527e-07
3.47436e-07
3.4732e-07
3.47243e-07
3.47143e-07
3.47113e-07
3.46898e-07
3.46891e-07
2.0091e-08
3.27055e-08
7.95898e-08
1.73898e-07
2.58301e-07
2.96003e-07
3.08709e-07
3.12742e-07
3.14693e-07
3.16155e-07
3.17527e-07
3.18926e-07
3.2026e-07
3.21499e-07
3.22605e-07
3.23593e-07
3.24506e-07
3.25407e-07
3.26319e-07
3.27187e-07
3.28047e-07
3.28914e-07
3.29768e-07
3.30586e-07
3.31346e-07
3.32032e-07
3.32706e-07
3.33325e-07
3.33823e-07
3.34147e-07
3.34256e-07
3.34161e-07
3.33904e-07
3.33575e-07
3.33253e-07
3.32973e-07
3.32814e-07
3.32804e-07
3.3295e-07
3.33277e-07
3.33739e-07
3.34314e-07
3.34907e-07
3.35449e-07
3.35842e-07
3.36012e-07
3.35992e-07
3.3598e-07
3.36e-07
3.36051e-07
3.36151e-07
3.36318e-07
3.36549e-07
3.36828e-07
3.37142e-07
3.37481e-07
3.37839e-07
3.38217e-07
3.38624e-07
3.39061e-07
3.39528e-07
3.40015e-07
3.40529e-07
3.41082e-07
3.4177e-07
3.42574e-07
3.43391e-07
3.44124e-07
3.44673e-07
3.45027e-07
3.45199e-07
3.45216e-07
3.45156e-07
3.45086e-07
3.45051e-07
3.45075e-07
3.45148e-07
3.45321e-07
3.45497e-07
3.45762e-07
3.461e-07
3.46536e-07
3.47075e-07
3.47711e-07
3.48419e-07
3.49154e-07
3.49831e-07
3.50326e-07
3.50539e-07
3.50522e-07
3.50401e-07
3.50206e-07
3.49962e-07
3.49685e-07
3.49397e-07
3.49105e-07
3.48805e-07
3.48517e-07
3.4824e-07
3.47992e-07
3.47819e-07
3.47638e-07
3.47466e-07
3.47317e-07
3.47198e-07
3.47156e-07
3.47191e-07
3.47289e-07
3.47421e-07
3.47547e-07
3.47642e-07
3.47665e-07
3.47574e-07
3.47465e-07
3.47329e-07
3.47152e-07
3.46996e-07
3.46864e-07
3.46753e-07
3.46662e-07
3.46593e-07
3.46548e-07
3.46517e-07
3.46504e-07
3.46516e-07
3.4657e-07
3.46655e-07
3.46757e-07
3.4685e-07
3.46936e-07
3.4703e-07
3.47134e-07
3.47282e-07
3.4746e-07
3.47686e-07
3.47956e-07
3.4827e-07
3.48613e-07
3.48958e-07
3.49276e-07
3.49523e-07
3.49643e-07
3.49613e-07
3.49506e-07
3.49335e-07
3.49102e-07
3.48823e-07
3.48515e-07
3.48206e-07
3.47911e-07
3.47638e-07
3.47447e-07
3.4732e-07
3.47277e-07
3.47346e-07
3.47362e-07
3.47344e-07
3.47334e-07
3.47281e-07
3.4727e-07
3.47236e-07
3.47285e-07
3.47153e-07
3.47266e-07
1.97032e-08
3.15272e-08
7.65553e-08
1.71027e-07
2.62325e-07
3.0506e-07
3.19776e-07
3.24254e-07
3.25894e-07
3.26952e-07
3.27791e-07
3.28657e-07
3.29516e-07
3.3029e-07
3.30961e-07
3.31554e-07
3.32099e-07
3.32644e-07
3.33205e-07
3.33727e-07
3.34253e-07
3.34801e-07
3.35353e-07
3.35882e-07
3.36393e-07
3.36991e-07
3.37619e-07
3.38213e-07
3.38714e-07
3.39073e-07
3.39238e-07
3.39195e-07
3.38936e-07
3.38532e-07
3.38103e-07
3.37716e-07
3.37404e-07
3.3723e-07
3.37224e-07
3.37414e-07
3.37747e-07
3.38187e-07
3.38635e-07
3.39012e-07
3.39233e-07
3.39235e-07
3.39128e-07
3.39038e-07
3.38997e-07
3.38989e-07
3.39027e-07
3.39123e-07
3.39278e-07
3.39484e-07
3.39722e-07
3.39982e-07
3.40255e-07
3.40542e-07
3.40856e-07
3.41193e-07
3.41563e-07
3.41976e-07
3.42429e-07
3.4298e-07
3.4374e-07
3.44628e-07
3.45539e-07
3.46378e-07
3.47004e-07
3.47399e-07
3.47554e-07
3.47512e-07
3.47348e-07
3.47138e-07
3.46943e-07
3.46812e-07
3.46747e-07
3.46784e-07
3.46856e-07
3.47035e-07
3.47306e-07
3.47693e-07
3.48198e-07
3.48809e-07
3.49489e-07
3.50186e-07
3.50819e-07
3.51262e-07
3.51416e-07
3.51366e-07
3.51211e-07
3.50988e-07
3.50716e-07
3.50406e-07
3.50074e-07
3.49733e-07
3.49392e-07
3.49066e-07
3.48741e-07
3.48445e-07
3.48229e-07
3.48003e-07
3.47788e-07
3.47587e-07
3.47411e-07
3.47311e-07
3.47278e-07
3.47303e-07
3.4737e-07
3.47443e-07
3.47502e-07
3.47511e-07
3.47397e-07
3.47247e-07
3.47089e-07
3.4692e-07
3.46729e-07
3.46542e-07
3.46366e-07
3.46209e-07
3.46078e-07
3.45974e-07
3.45889e-07
3.45835e-07
3.45833e-07
3.45888e-07
3.45986e-07
3.46113e-07
3.46243e-07
3.46376e-07
3.46525e-07
3.46692e-07
3.46906e-07
3.47156e-07
3.47458e-07
3.47813e-07
3.48219e-07
3.48656e-07
3.49088e-07
3.49477e-07
3.49768e-07
3.499e-07
3.4986e-07
3.49721e-07
3.49493e-07
3.49195e-07
3.48843e-07
3.48451e-07
3.48048e-07
3.47652e-07
3.47276e-07
3.46985e-07
3.46767e-07
3.46635e-07
3.46597e-07
3.46498e-07
3.46383e-07
3.46259e-07
3.46071e-07
3.45898e-07
3.45683e-07
3.45534e-07
3.45265e-07
3.45238e-07
1.92873e-08
3.02606e-08
7.30405e-08
1.66034e-07
2.62037e-07
3.09733e-07
3.26608e-07
3.31477e-07
3.32909e-07
3.33639e-07
3.34112e-07
3.34626e-07
3.3511e-07
3.35568e-07
3.35945e-07
3.36282e-07
3.36575e-07
3.36878e-07
3.37197e-07
3.3747e-07
3.37744e-07
3.38051e-07
3.38375e-07
3.38698e-07
3.39163e-07
3.39767e-07
3.40445e-07
3.41122e-07
3.41733e-07
3.42226e-07
3.42547e-07
3.42654e-07
3.42519e-07
3.4214e-07
3.41664e-07
3.41185e-07
3.40765e-07
3.40458e-07
3.40287e-07
3.40324e-07
3.40506e-07
3.40805e-07
3.4112e-07
3.41352e-07
3.41417e-07
3.41286e-07
3.41102e-07
3.40932e-07
3.40801e-07
3.40703e-07
3.40645e-07
3.40649e-07
3.40723e-07
3.40857e-07
3.41042e-07
3.41249e-07
3.41465e-07
3.41694e-07
3.41956e-07
3.42236e-07
3.42542e-07
3.42922e-07
3.43361e-07
3.44011e-07
3.44924e-07
3.45982e-07
3.47063e-07
3.48067e-07
3.48817e-07
3.49292e-07
3.49491e-07
3.49445e-07
3.49209e-07
3.48881e-07
3.48532e-07
3.48233e-07
3.48015e-07
3.47895e-07
3.47864e-07
3.47961e-07
3.4817e-07
3.4852e-07
3.49007e-07
3.49615e-07
3.50304e-07
3.51e-07
3.51598e-07
3.51991e-07
3.52082e-07
3.52006e-07
3.51821e-07
3.51548e-07
3.51215e-07
3.5084e-07
3.50444e-07
3.5005e-07
3.49668e-07
3.49291e-07
3.48921e-07
3.48603e-07
3.48317e-07
3.48031e-07
3.47753e-07
3.47496e-07
3.47298e-07
3.47183e-07
3.47146e-07
3.47183e-07
3.47271e-07
3.47373e-07
3.47447e-07
3.47457e-07
3.47351e-07
3.47155e-07
3.46968e-07
3.46785e-07
3.46595e-07
3.46403e-07
3.4621e-07
3.46035e-07
3.45887e-07
3.45771e-07
3.45682e-07
3.45633e-07
3.45647e-07
3.45727e-07
3.45854e-07
3.46016e-07
3.46188e-07
3.46366e-07
3.46561e-07
3.46764e-07
3.46999e-07
3.47259e-07
3.47552e-07
3.47879e-07
3.48238e-07
3.48613e-07
3.48972e-07
3.49277e-07
3.49471e-07
3.49497e-07
3.49412e-07
3.49215e-07
3.48935e-07
3.48576e-07
3.48149e-07
3.47665e-07
3.47148e-07
3.46628e-07
3.46139e-07
3.45742e-07
3.45428e-07
3.45249e-07
3.45202e-07
3.45107e-07
3.4501e-07
3.44915e-07
3.44749e-07
3.44587e-07
3.44362e-07
3.4421e-07
3.43988e-07
3.44042e-07
1.88178e-08
2.89e-08
6.89157e-08
1.59614e-07
2.58951e-07
3.10844e-07
3.30016e-07
3.35671e-07
3.36992e-07
3.37405e-07
3.37589e-07
3.37861e-07
3.38083e-07
3.3831e-07
3.38501e-07
3.38688e-07
3.38834e-07
3.3898e-07
3.39139e-07
3.39249e-07
3.39377e-07
3.39546e-07
3.39725e-07
3.39999e-07
3.40503e-07
3.41205e-07
3.42043e-07
3.42918e-07
3.43742e-07
3.44447e-07
3.44987e-07
3.45298e-07
3.45337e-07
3.45056e-07
3.44582e-07
3.44039e-07
3.43512e-07
3.43059e-07
3.42707e-07
3.42545e-07
3.42539e-07
3.42655e-07
3.42797e-07
3.42844e-07
3.42711e-07
3.42489e-07
3.42246e-07
3.42018e-07
3.4183e-07
3.41663e-07
3.41534e-07
3.41477e-07
3.41509e-07
3.41625e-07
3.41785e-07
3.41959e-07
3.4213e-07
3.42304e-07
3.42512e-07
3.42755e-07
3.42952e-07
3.43302e-07
3.43713e-07
3.44418e-07
3.45459e-07
3.46698e-07
3.47978e-07
3.49174e-07
3.50118e-07
3.50729e-07
3.51005e-07
3.50984e-07
3.50717e-07
3.50319e-07
3.49845e-07
3.49389e-07
3.49008e-07
3.4872e-07
3.48596e-07
3.48618e-07
3.48767e-07
3.49079e-07
3.49548e-07
3.50147e-07
3.50833e-07
3.51518e-07
3.52082e-07
3.52407e-07
3.52449e-07
3.52343e-07
3.52127e-07
3.51817e-07
3.51426e-07
3.50982e-07
3.50524e-07
3.50078e-07
3.49644e-07
3.4921e-07
3.48783e-07
3.4836e-07
3.47959e-07
3.4756e-07
3.47187e-07
3.4687e-07
3.46629e-07
3.46473e-07
3.46403e-07
3.46415e-07
3.46486e-07
3.46577e-07
3.4664e-07
3.46652e-07
3.46551e-07
3.46317e-07
3.46083e-07
3.45848e-07
3.45602e-07
3.45355e-07
3.45111e-07
3.44876e-07
3.44664e-07
3.44484e-07
3.44343e-07
3.44259e-07
3.44262e-07
3.44351e-07
3.44505e-07
3.44701e-07
3.44928e-07
3.45178e-07
3.45452e-07
3.45743e-07
3.46054e-07
3.46396e-07
3.46764e-07
3.47155e-07
3.47569e-07
3.4799e-07
3.48381e-07
3.48697e-07
3.48872e-07
3.48868e-07
3.48756e-07
3.48499e-07
3.48134e-07
3.47671e-07
3.47117e-07
3.46478e-07
3.45795e-07
3.45104e-07
3.44466e-07
3.43946e-07
3.43517e-07
3.4327e-07
3.43155e-07
3.43025e-07
3.42912e-07
3.42771e-07
3.42525e-07
3.42218e-07
3.41856e-07
3.41521e-07
3.41145e-07
3.41102e-07
1.82958e-08
2.74637e-08
6.42932e-08
1.51584e-07
2.54095e-07
3.09707e-07
3.31004e-07
3.37468e-07
3.38977e-07
3.3936e-07
3.39428e-07
3.39501e-07
3.39549e-07
3.39696e-07
3.39847e-07
3.39981e-07
3.40063e-07
3.40113e-07
3.40162e-07
3.40148e-07
3.40141e-07
3.40151e-07
3.40126e-07
3.40317e-07
3.4081e-07
3.41579e-07
3.42561e-07
3.43639e-07
3.447e-07
3.45638e-07
3.46407e-07
3.46966e-07
3.47254e-07
3.47237e-07
3.46911e-07
3.46414e-07
3.45844e-07
3.45297e-07
3.44809e-07
3.44352e-07
3.44079e-07
3.43964e-07
3.43894e-07
3.43743e-07
3.43522e-07
3.43253e-07
3.42957e-07
3.42666e-07
3.42424e-07
3.42222e-07
3.4206e-07
3.41975e-07
3.41986e-07
3.42098e-07
3.42227e-07
3.42345e-07
3.42446e-07
3.42556e-07
3.42682e-07
3.42812e-07
3.4292e-07
3.43147e-07
3.43476e-07
3.44195e-07
3.45305e-07
3.46716e-07
3.48245e-07
3.49694e-07
3.50899e-07
3.51765e-07
3.52213e-07
3.52261e-07
3.5198e-07
3.51519e-07
3.50959e-07
3.50377e-07
3.49857e-07
3.49381e-07
3.49121e-07
3.49056e-07
3.49146e-07
3.49409e-07
3.49868e-07
3.5049e-07
3.51196e-07
3.51878e-07
3.52406e-07
3.52666e-07
3.52669e-07
3.52532e-07
3.52276e-07
3.51912e-07
3.51457e-07
3.50948e-07
3.50424e-07
3.49896e-07
3.49355e-07
3.48802e-07
3.48245e-07
3.47697e-07
3.47177e-07
3.46669e-07
3.46198e-07
3.45825e-07
3.4555e-07
3.45372e-07
3.4529e-07
3.45299e-07
3.45365e-07
3.45462e-07
3.45539e-07
3.45559e-07
3.45457e-07
3.45204e-07
3.44939e-07
3.44673e-07
3.44398e-07
3.4412e-07
3.43847e-07
3.43584e-07
3.43342e-07
3.43123e-07
3.42932e-07
3.4282e-07
3.42816e-07
3.42926e-07
3.43116e-07
3.43367e-07
3.43657e-07
3.43975e-07
3.44317e-07
3.44676e-07
3.4504e-07
3.45429e-07
3.45835e-07
3.46246e-07
3.46664e-07
3.47074e-07
3.47439e-07
3.47708e-07
3.47815e-07
3.47783e-07
3.47626e-07
3.47298e-07
3.46834e-07
3.4625e-07
3.45561e-07
3.44764e-07
3.43909e-07
3.43043e-07
3.42233e-07
3.41574e-07
3.41043e-07
3.4074e-07
3.40594e-07
3.40473e-07
3.40361e-07
3.40209e-07
3.39934e-07
3.39559e-07
3.39164e-07
3.3876e-07
3.38339e-07
3.38302e-07
1.77325e-08
2.59828e-08
5.93405e-08
1.421e-07
2.47185e-07
3.07177e-07
3.30767e-07
3.37945e-07
3.39781e-07
3.40226e-07
3.40303e-07
3.40344e-07
3.40316e-07
3.40359e-07
3.40431e-07
3.40463e-07
3.40417e-07
3.4031e-07
3.40188e-07
3.39982e-07
3.39703e-07
3.39388e-07
3.39089e-07
3.39079e-07
3.39453e-07
3.40176e-07
3.41185e-07
3.42389e-07
3.43686e-07
3.44956e-07
3.4607e-07
3.46966e-07
3.47565e-07
3.47885e-07
3.47953e-07
3.47731e-07
3.47296e-07
3.46801e-07
3.46263e-07
3.45713e-07
3.45226e-07
3.44854e-07
3.44569e-07
3.44324e-07
3.44064e-07
3.43744e-07
3.43376e-07
3.43017e-07
3.42707e-07
3.4245e-07
3.4222e-07
3.42065e-07
3.41994e-07
3.4205e-07
3.42116e-07
3.42151e-07
3.42157e-07
3.42154e-07
3.42128e-07
3.42077e-07
3.42022e-07
3.42018e-07
3.42209e-07
3.42823e-07
3.43915e-07
3.45417e-07
3.47139e-07
3.48884e-07
3.50444e-07
3.51668e-07
3.52396e-07
3.52639e-07
3.52501e-07
3.52143e-07
3.51592e-07
3.50938e-07
3.50311e-07
3.49741e-07
3.49355e-07
3.49219e-07
3.49282e-07
3.4957e-07
3.50076e-07
3.50746e-07
3.51486e-07
3.52166e-07
3.52647e-07
3.52823e-07
3.52792e-07
3.52621e-07
3.52315e-07
3.51879e-07
3.51333e-07
3.50719e-07
3.50064e-07
3.49387e-07
3.48696e-07
3.47994e-07
3.47298e-07
3.46637e-07
3.46005e-07
3.45383e-07
3.44794e-07
3.44324e-07
3.43967e-07
3.43717e-07
3.43587e-07
3.43569e-07
3.4362e-07
3.43712e-07
3.43814e-07
3.43868e-07
3.43784e-07
3.43526e-07
3.4323e-07
3.42932e-07
3.42624e-07
3.42307e-07
3.41983e-07
3.41665e-07
3.41362e-07
3.4108e-07
3.40834e-07
3.40673e-07
3.40656e-07
3.40788e-07
3.41045e-07
3.41358e-07
3.41736e-07
3.42146e-07
3.42577e-07
3.43028e-07
3.43468e-07
3.43926e-07
3.4439e-07
3.44846e-07
3.4529e-07
3.45709e-07
3.46065e-07
3.46295e-07
3.46371e-07
3.46317e-07
3.46104e-07
3.45694e-07
3.45111e-07
3.44377e-07
3.43526e-07
3.42528e-07
3.41452e-07
3.40383e-07
3.39377e-07
3.38562e-07
3.37929e-07
3.37643e-07
3.37497e-07
3.37407e-07
3.37306e-07
3.37127e-07
3.36794e-07
3.36322e-07
3.35791e-07
3.35222e-07
3.34624e-07
3.34489e-07
1.71426e-08
2.44903e-08
5.42345e-08
1.31591e-07
2.38042e-07
3.02897e-07
3.2917e-07
3.37594e-07
3.39746e-07
3.40125e-07
3.40053e-07
3.39932e-07
3.39775e-07
3.39771e-07
3.39797e-07
3.39717e-07
3.39541e-07
3.3928e-07
3.38973e-07
3.38563e-07
3.37977e-07
3.37277e-07
3.36553e-07
3.36152e-07
3.36201e-07
3.36719e-07
3.37674e-07
3.38986e-07
3.40533e-07
3.42174e-07
3.43789e-07
3.45243e-07
3.46413e-07
3.47297e-07
3.47763e-07
3.47843e-07
3.4758e-07
3.47143e-07
3.46631e-07
3.46086e-07
3.45581e-07
3.45173e-07
3.44839e-07
3.44527e-07
3.44193e-07
3.43788e-07
3.4332e-07
3.42871e-07
3.42448e-07
3.42088e-07
3.4176e-07
3.41498e-07
3.413e-07
3.41236e-07
3.41224e-07
3.41177e-07
3.41075e-07
3.40928e-07
3.40731e-07
3.40463e-07
3.40155e-07
3.39841e-07
3.39683e-07
3.40015e-07
3.40895e-07
3.42322e-07
3.44218e-07
3.46356e-07
3.48444e-07
3.50164e-07
3.51303e-07
3.51896e-07
3.52014e-07
3.51886e-07
3.51535e-07
3.50993e-07
3.50368e-07
3.49774e-07
3.49335e-07
3.49139e-07
3.49177e-07
3.49481e-07
3.5004e-07
3.5078e-07
3.51581e-07
3.52286e-07
3.52743e-07
3.52865e-07
3.52805e-07
3.526e-07
3.52234e-07
3.51699e-07
3.51012e-07
3.50227e-07
3.49386e-07
3.48529e-07
3.47659e-07
3.46797e-07
3.45969e-07
3.45191e-07
3.44439e-07
3.4368e-07
3.42939e-07
3.42316e-07
3.41829e-07
3.41466e-07
3.41252e-07
3.41183e-07
3.41215e-07
3.41317e-07
3.4148e-07
3.41593e-07
3.41556e-07
3.41325e-07
3.41017e-07
3.407e-07
3.40365e-07
3.40015e-07
3.39652e-07
3.39285e-07
3.38919e-07
3.38565e-07
3.38247e-07
3.38014e-07
3.37976e-07
3.3814e-07
3.38454e-07
3.38915e-07
3.39417e-07
3.39966e-07
3.40522e-07
3.41092e-07
3.41637e-07
3.42181e-07
3.42711e-07
3.43212e-07
3.43668e-07
3.44067e-07
3.44378e-07
3.44548e-07
3.44605e-07
3.44512e-07
3.4423e-07
3.43723e-07
3.43009e-07
3.42112e-07
3.41066e-07
3.39865e-07
3.38575e-07
3.37292e-07
3.3611e-07
3.35112e-07
3.34376e-07
3.34054e-07
3.33871e-07
3.33831e-07
3.3376e-07
3.33565e-07
3.33177e-07
3.3263e-07
3.31988e-07
3.31277e-07
3.3056e-07
3.30352e-07
1.67428e-08
2.35016e-08
5.0824e-08
1.2435e-07
2.31122e-07
2.99374e-07
3.27664e-07
3.36963e-07
3.3938e-07
3.39631e-07
3.39358e-07
3.39054e-07
3.38761e-07
3.38776e-07
3.3888e-07
3.38782e-07
3.38526e-07
3.38163e-07
3.37723e-07
3.37169e-07
3.36379e-07
3.35409e-07
3.34237e-07
3.33336e-07
3.33013e-07
3.33231e-07
3.33925e-07
3.3501e-07
3.36385e-07
3.37983e-07
3.39733e-07
3.41552e-07
3.43363e-07
3.45097e-07
3.46511e-07
3.47453e-07
3.4769e-07
3.47267e-07
3.46725e-07
3.46206e-07
3.45683e-07
3.45242e-07
3.4488e-07
3.4453e-07
3.44143e-07
3.4367e-07
3.43114e-07
3.42584e-07
3.4206e-07
3.41606e-07
3.41204e-07
3.40864e-07
3.40565e-07
3.40403e-07
3.40335e-07
3.40234e-07
3.40063e-07
3.39813e-07
3.39487e-07
3.39056e-07
3.3853e-07
3.37948e-07
3.37496e-07
3.37498e-07
3.38087e-07
3.3936e-07
3.41352e-07
3.43808e-07
3.4638e-07
3.48612e-07
3.50207e-07
3.5109e-07
3.51311e-07
3.51208e-07
3.50953e-07
3.5055e-07
3.50023e-07
3.49459e-07
3.49048e-07
3.4887e-07
3.48968e-07
3.49358e-07
3.5001e-07
3.50837e-07
3.51694e-07
3.52407e-07
3.52823e-07
3.52891e-07
3.52796e-07
3.52562e-07
3.52146e-07
3.51521e-07
3.50706e-07
3.4979e-07
3.48813e-07
3.47829e-07
3.46829e-07
3.45855e-07
3.44933e-07
3.44066e-07
3.43214e-07
3.4234e-07
3.41476e-07
3.40713e-07
3.4009e-07
3.396e-07
3.39271e-07
3.391e-07
3.39048e-07
3.39091e-07
3.39266e-07
3.39412e-07
3.39403e-07
3.39194e-07
3.38883e-07
3.3856e-07
3.38227e-07
3.37868e-07
3.37474e-07
3.37053e-07
3.36622e-07
3.36195e-07
3.35789e-07
3.35485e-07
3.3541e-07
3.35585e-07
3.35987e-07
3.36518e-07
3.37181e-07
3.37864e-07
3.38564e-07
3.39265e-07
3.3993e-07
3.40581e-07
3.41204e-07
3.41788e-07
3.4231e-07
3.42755e-07
3.43076e-07
3.4327e-07
3.43337e-07
3.43221e-07
3.42893e-07
3.42312e-07
3.41494e-07
3.40476e-07
3.39279e-07
3.3793e-07
3.36485e-07
3.35046e-07
3.33727e-07
3.32568e-07
3.31762e-07
3.31381e-07