/*--------------------------------*- C++ -*----------------------------------*\
| =========                 |                                                 |
| \\      /  F ield         | OpenFOAM: The Open Source CFD Toolbox           |
|  \\    /   O peration     | Version:  v1912                                 |
|   \\  /    A nd           | Website:  www.openfoam.com                      |
|    \\/     M anipulation  |                                                 |
\*---------------------------------------------------------------------------*/
FoamFile
{
    version     2.0;
    format      ascii;
    class       surfaceScalarField;
    location    "80";
    object      phi;
}
// * * * * * * * * * * * * * * * * * * * * * * * * * * * * * * * * * * * * * //

dimensions      [0 3 -1 0 0 0 0];
oriented        oriented;


internalField   nonuniform List<scalar> 
28285
(
0.000685564
-6.16193e-05
0.000716864
-3.13001e-05
0.000730868
-1.40041e-05
0.000736589
-5.72081e-06
0.000750318
-1.37292e-05
0.000768141
-1.78226e-05
0.000789376
-2.12351e-05
0.000819575
-3.01987e-05
0.000863621
-4.40467e-05
0.000870269
-6.6479e-06
0.000789449
8.08199e-05
0.000727173
6.22766e-05
0.000738808
-1.16351e-05
0.000772361
-3.35529e-05
0.00078308
-1.0719e-05
0.000756646
2.64339e-05
0.000723021
3.36246e-05
0.000712678
1.03427e-05
0.000754632
-4.19534e-05
0.000871585
-0.000116953
0.00105896
-0.000187377
0.00125532
-0.000196361
0.00137125
-0.000115926
0.00140882
-3.7568e-05
0.00137076
3.80556e-05
0.00128425
8.65124e-05
0.00114076
0.000143494
0.00100141
0.000139346
0.000910392
9.10175e-05
0.000859186
5.12068e-05
0.000836671
2.25141e-05
0.000823125
1.35467e-05
0.000806694
1.64303e-05
0.000783206
2.34885e-05
0.000750524
3.26823e-05
0.00071372
3.68033e-05
0.000680461
3.32595e-05
0.000651986
2.8475e-05
0.00062618
2.58062e-05
0.000602053
2.41267e-05
0.000579179
2.28741e-05
0.000557361
2.18179e-05
0.000536494
2.08673e-05
0.000516507
1.99867e-05
0.000497346
1.91608e-05
0.000478964
1.8382e-05
0.000461319
1.76456e-05
0.00044437
1.69484e-05
0.000428083
1.62871e-05
0.000412424
1.56591e-05
0.000397362
1.50622e-05
0.000382867
1.44948e-05
0.000368912
1.39545e-05
0.000355473
1.34396e-05
0.000342525
1.29479e-05
0.000330047
1.24782e-05
0.000318018
1.20286e-05
0.000306419
1.15991e-05
0.000295232
1.11874e-05
0.000284437
1.07946e-05
0.00027402
1.04171e-05
0.000263964
1.00562e-05
0.000254255
9.70877e-06
0.00024488
9.3749e-06
0.000235826
9.05427e-06
0.000227083
8.74248e-06
0.000218641
8.44273e-06
0.000210486
8.15482e-06
0.000202609
7.87664e-06
0.000195002
7.60758e-06
0.000187654
7.34749e-06
0.000180558
7.09607e-06
0.000173705
6.85299e-06
0.000167087
6.61786e-06
0.000160697
6.39036e-06
0.000154527
6.17016e-06
0.00014857
5.95699e-06
0.000142819
5.75062e-06
0.000137268
5.5507e-06
0.000131911
5.35713e-06
0.000126741
5.16965e-06
0.000121753
4.98804e-06
0.000116941
4.81218e-06
0.0001123
4.64161e-06
0.000107823
4.47659e-06
0.000103506
4.31665e-06
9.93447e-05
4.16174e-06
9.5333e-05
4.01162e-06
9.14668e-05
3.86628e-06
8.77413e-05
3.72542e-06
8.41522e-05
3.58913e-06
8.06952e-05
3.45699e-06
7.7366e-05
3.32927e-06
7.41606e-05
3.20537e-06
7.10748e-05
3.08578e-06
6.81051e-05
2.96966e-06
6.52474e-05
2.8578e-06
6.24983e-05
2.74904e-06
5.98538e-05
2.64451e-06
5.73111e-05
2.54272e-06
5.48659e-05
2.44514e-06
5.2516e-05
2.34996e-06
5.0257e-05
2.25894e-06
4.80871e-05
2.17004e-06
4.60017e-05
2.0852e-06
4.39996e-05
2.0023e-06
4.20762e-05
1.92323e-06
4.02303e-05
1.84606e-06
3.84577e-05
1.77237e-06
3.67573e-05
1.70067e-06
3.5125e-05
1.63201e-06
3.35598e-05
1.5655e-06
3.20579e-05
1.50155e-06
3.06183e-05
1.43991e-06
2.92376e-05
1.38045e-06
2.79145e-05
1.32332e-06
2.66462e-05
1.26814e-06
2.54312e-05
1.21519e-06
2.4267e-05
1.16408e-06
2.31521e-05
1.11498e-06
2.20843e-05
1.06775e-06
2.10621e-05
1.02224e-06
2.00834e-05
9.78631e-07
1.91469e-05
9.36496e-07
1.82507e-05
8.96247e-07
1.73934e-05
8.57294e-07
1.65732e-05
8.20168e-07
1.5789e-05
7.84179e-07
1.5039e-05
7.50002e-07
1.43223e-05
7.16715e-07
1.3637e-05
6.85363e-07
1.29824e-05
6.5451e-07
1.23566e-05
6.25862e-07
1.17594e-05
5.9723e-07
1.11882e-05
5.71097e-07
1.06437e-05
5.44579e-07
1.01229e-05
5.20681e-07
9.62684e-06
4.96271e-07
9.15228e-06
4.74278e-07
8.70064e-06
4.51998e-07
8.26861e-06
4.31614e-07
7.85764e-06
4.11425e-07
7.4647e-06
3.92469e-07
7.09092e-06
3.74237e-07
6.73381e-06
3.56684e-07
6.39392e-06
3.4027e-07
6.06929e-06
3.24306e-07
5.75962e-06
3.09929e-07
5.46437e-06
2.9506e-07
2.75631e-07
5.18887e-06
0.000794689
-0.000127146
0.000835195
-7.18061e-05
0.000842662
-2.14712e-05
0.000828986
7.95477e-06
0.000813487
1.76959e-06
0.000805892
-1.02272e-05
0.000809565
-2.49082e-05
0.000827788
-4.84218e-05
0.00086969
-8.59486e-05
0.00088958
-2.65377e-05
0.00084898
0.00012142
0.000816927
9.43289e-05
0.000833855
-2.85625e-05
0.00086706
-6.67584e-05
0.000876225
-1.98832e-05
0.000840718
6.19409e-05
0.000788178
8.61645e-05
0.000759165
3.9355e-05
0.000781757
-6.45454e-05
0.000873889
-0.000209084
0.00104161
-0.000355093
0.00122099
-0.000375751
0.00132767
-0.000222603
0.00135926
-6.91531e-05
0.00133314
6.41747e-05
0.00125357
0.00016608
0.00112355
0.000273517
0.00101266
0.000250229
0.000950207
0.000153474
0.00090374
9.76739e-05
0.000869014
5.72403e-05
0.000839902
4.26588e-05
0.000810539
4.5793e-05
0.000779594
5.44336e-05
0.000745421
6.68558e-05
0.000710736
7.14877e-05
0.000679353
6.46427e-05
0.000651364
5.64634e-05
0.00062567
5.15009e-05
0.000601569
4.82276e-05
0.000578703
4.574e-05
0.000556891
4.36302e-05
0.000536029
4.17287e-05
0.000516049
3.99669e-05
0.000496896
3.83143e-05
0.000478522
3.67562e-05
0.000460884
3.52829e-05
0.000443945
3.38881e-05
0.000427666
3.25652e-05
0.000412016
3.13091e-05
0.000396964
3.01152e-05
0.000382478
2.89801e-05
0.000368533
2.78995e-05
0.000355103
2.68699e-05
0.000342164
2.58865e-05
0.000329695
2.49471e-05
0.000317676
2.40479e-05
0.000306086
2.31889e-05
0.000294908
2.23658e-05
0.000284122
2.15801e-05
0.000273714
2.08254e-05
0.000263666
2.01038e-05
0.000253966
1.94089e-05
0.0002446
1.87414e-05
0.000235554
1.81002e-05
0.00022682
1.74768e-05
0.000218385
1.68775e-05
0.000210238
1.63018e-05
0.000202369
1.57456e-05
0.000194769
1.52076e-05
0.000187429
1.46876e-05
0.00018034
1.4185e-05
0.000173494
1.36989e-05
0.000166883
1.32289e-05
0.000160499
1.2774e-05
0.000154335
1.23338e-05
0.000148385
1.19076e-05
0.000142641
1.14949e-05
0.000137096
1.10953e-05
0.000131745
1.07084e-05
0.000126581
1.03335e-05
0.000121598
9.97048e-06
0.000116792
9.61889e-06
0.000112155
9.27791e-06
0.000107684
8.948e-06
0.000103372
8.6283e-06
9.92155e-05
8.3186e-06
9.52086e-05
8.01853e-06
9.1347e-05
7.72794e-06
8.7626e-05
7.44641e-06
8.40412e-05
7.17388e-06
8.05884e-05
6.90984e-06
7.72632e-05
6.65439e-06
7.40618e-05
6.40689e-06
7.09798e-05
6.16763e-06
6.80138e-05
5.93577e-06
6.51596e-05
5.71186e-06
6.2414e-05
5.49481e-06
5.97728e-05
5.28547e-06
5.72334e-05
5.08245e-06
5.47913e-05
4.8869e-06
5.24444e-05
4.69718e-06
5.01883e-05
4.51468e-06
4.80212e-05
4.33759e-06
4.59385e-05
4.16739e-06
4.3939e-05
4.00229e-06
4.20181e-05
3.84366e-06
4.01747e-05
3.68995e-06
3.84044e-05
3.54219e-06
3.67063e-05
3.39927e-06
3.50761e-05
3.26172e-06
3.3513e-05
3.12899e-06
3.20132e-05
3.00106e-06
3.05755e-05
2.8779e-06
2.91966e-05
2.75905e-06
2.78753e-05
2.64484e-06
2.66087e-05
2.5346e-06
2.53953e-05
2.4287e-06
2.42327e-05
2.3266e-06
2.31193e-05
2.22845e-06
2.2053e-05
2.13402e-06
2.10321e-05
2.04312e-06
2.00548e-05
1.95586e-06
1.91196e-05
1.87178e-06
1.82246e-05
1.79118e-06
1.73685e-05
1.71349e-06
1.65495e-05
1.6391e-06
1.57664e-05
1.56739e-06
1.50174e-05
1.49882e-06
1.43017e-05
1.43262e-06
1.36173e-05
1.36954e-06
1.29637e-05
1.30839e-06
1.23387e-05
1.25051e-06
1.17423e-05
1.19402e-06
1.1172e-05
1.14096e-06
1.06283e-05
1.08884e-06
1.01082e-05
1.04019e-06
9.6128e-06
9.92263e-07
9.13891e-06
9.4752e-07
8.68791e-06
9.03659e-07
8.25649e-06
8.62394e-07
7.8461e-06
8.2241e-07
7.45372e-06
7.84315e-07
7.08047e-06
7.47946e-07
6.72387e-06
7.12905e-07
6.38446e-06
6.79987e-07
6.0603e-06
6.48233e-07
5.75105e-06
6.1935e-07
5.45626e-06
5.89731e-07
5.50864e-07
5.1811e-06
0.000761832
-0.000191022
0.000797199
-0.000107173
0.000800553
-2.48247e-05
0.000787817
2.06909e-05
0.000780005
9.58076e-06
0.000784046
-1.42674e-05
0.000798005
-3.88673e-05
0.000826403
-7.68203e-05
0.000869228
-0.000128773
0.000883281
-4.0591e-05
0.000841149
0.000163552
0.000802699
0.000132779
0.000809031
-3.48942e-05
0.000832017
-8.97448e-05
0.000835768
-2.36339e-05
0.000800403
9.73055e-05
0.000753202
0.000133365
0.000737534
5.50237e-05
0.000775477
-0.000102488
0.000881786
-0.000315394
0.00105811
-0.000531416
0.00124393
-0.000561571
0.00135956
-0.000338236
0.00138893
-9.85255e-05
0.00135724
9.58689e-05
0.001268
0.00025532
0.00112504
0.000416477
0.00101289
0.000362383
0.000961457
0.000204903
0.000921542
0.000137589
0.000880194
9.85881e-05
0.000843608
7.9244e-05
0.000809993
7.94087e-05
0.000776426
8.80005e-05
0.000741987
0.000101294
0.000708742
0.000104733
0.000678397
9.49877e-05
0.000650755
8.41058e-05
0.000625166
7.70892e-05
0.000601102
7.22917e-05
0.000578255
6.85867e-05
0.000556458
6.54274e-05
0.000535611
6.25759e-05
0.000515645
5.99331e-05
0.000496505
5.7454e-05
0.000478144
5.51168e-05
0.00046052
5.2907e-05
0.000443594
5.0815e-05
0.000427328
4.88308e-05
0.00041169
4.6947e-05
0.000396649
4.51564e-05
0.000382175
4.34541e-05
0.000368241
4.18336e-05
0.000354821
4.02895e-05
0.000341893
3.88148e-05
0.000329434
3.74061e-05
0.000317424
3.60578e-05
0.000305843
3.47696e-05
0.000294674
3.35354e-05
0.000283897
3.23572e-05
0.000273497
3.12254e-05
0.000263457
3.01434e-05
0.000253765
2.91014e-05
0.000244406
2.81005e-05
0.000235367
2.7139e-05
0.000226639
2.62043e-05
0.000218211
2.53056e-05
0.000210071
2.44424e-05
0.000202208
2.36084e-05
0.000194614
2.28017e-05
0.000187279
2.2022e-05
0.000180196
2.12682e-05
0.000173356
2.05395e-05
0.00016675
1.98346e-05
0.000160371
1.91526e-05
0.000154213
1.84925e-05
0.000148267
1.78535e-05
0.000142527
1.72347e-05
0.000136987
1.66356e-05
0.00013164
1.60553e-05
0.00012648
1.54934e-05
0.000121501
1.4949e-05
0.000116698
1.44218e-05
0.000112066
1.39106e-05
0.000107598
1.34159e-05
0.00010329
1.29365e-05
9.9136e-05
1.24722e-05
9.51322e-05
1.20223e-05
9.12736e-05
1.15865e-05
8.75556e-05
1.11645e-05
8.39736e-05
1.07558e-05
8.05236e-05
1.036e-05
7.7201e-05
9.97689e-06
7.40021e-05
9.60588e-06
7.09226e-05
9.24704e-06
6.79589e-05
8.89953e-06
6.5107e-05
8.56367e-06
6.23636e-05
8.23841e-06
5.97245e-05
7.92433e-06
5.7187e-05
7.62016e-06
5.47469e-05
7.32672e-06
5.24019e-05
7.04255e-06
5.01476e-05
6.76863e-06
4.79821e-05
6.50342e-06
4.59012e-05
6.24792e-06
4.39032e-05
6.00069e-06
4.19838e-05
5.76257e-06
4.01419e-05
5.53237e-06
3.8373e-05
5.3106e-06
3.66762e-05
5.09652e-06
3.50474e-05
4.89014e-06
3.34855e-05
4.69125e-06
3.19869e-05
4.49937e-06
3.05503e-05
4.31475e-06
2.91726e-05
4.13656e-06
2.78523e-05
3.96529e-06
2.65867e-05
3.80004e-06
2.53743e-05
3.64125e-06
2.42126e-05
3.48818e-06
2.31001e-05
3.34103e-06
2.20346e-05
3.19944e-06
2.10146e-05
3.06319e-06
2.00381e-05
2.93231e-06
1.91036e-05
2.80631e-06
1.82093e-05
2.68539e-06
1.73539e-05
2.56901e-06
1.65355e-05
2.45738e-06
1.57531e-05
2.34997e-06
1.50047e-05
2.24703e-06
1.42896e-05
2.14794e-06
1.36057e-05
2.05317e-06
1.29526e-05
1.96175e-06
1.23282e-05
1.87465e-06
1.17323e-05
1.79032e-06
1.11624e-05
1.71037e-06
1.06191e-05
1.63267e-06
1.00994e-05
1.55927e-06
9.60447e-06
1.48785e-06
9.13096e-06
1.42038e-06
8.68032e-06
1.35495e-06
8.24925e-06
1.29283e-06
7.83919e-06
1.23306e-06
7.44713e-06
1.17584e-06
7.07419e-06
1.12135e-06
6.71787e-06
1.06884e-06
6.37874e-06
1.01943e-06
6.05484e-06
9.71897e-07
5.74584e-06
9.28521e-07
5.4513e-06
8.84155e-07
8.25862e-07
5.17638e-06
0.000772636
-0.000255425
0.000811831
-0.000146368
0.000820904
-3.38982e-05
0.00081486
2.67354e-05
0.000806543
1.78977e-05
0.000802916
-1.06405e-05
0.000807794
-4.37457e-05
0.000827303
-9.63291e-05
0.000866431
-0.000167901
0.000881466
-5.56259e-05
0.000842607
0.000202411
0.00080883
0.000166556
0.000818953
-4.50173e-05
0.000845969
-0.000116761
0.000852697
-3.03616e-05
0.00082001
0.000129993
0.000771447
0.000181928
0.00074968
7.67913e-05
0.000779406
-0.000132215
0.000877074
-0.000413062
0.00104702
-0.000701356
0.00122537
-0.000739922
0.00133355
-0.000446423
0.00136177
-0.000126748
0.00133605
0.000121597
0.00125296
0.000338407
0.00111889
0.000550545
0.00101178
0.000469497
0.000958721
0.000257959
0.000920864
0.000175446
0.00088089
0.000138562
0.000843126
0.000117008
0.0008085
0.000114034
0.000774173
0.000122327
0.000740025
0.000135442
0.000707568
0.00013719
0.000677693
0.000124863
0.000650252
0.000111547
0.00062474
0.000102601
0.00060071
9.63218e-05
0.000577885
9.14123e-05
0.000556105
8.72072e-05
0.000535274
8.3407e-05
0.000515323
7.9884e-05
0.000496198
7.65792e-05
0.000477851
7.34636e-05
0.00046024
7.05178e-05
0.000443326
6.77293e-05
0.000427072
6.50844e-05
0.000411446
6.25735e-05
0.000396415
6.01869e-05
0.000381951
5.79179e-05
0.000368027
5.57579e-05
0.000354617
5.36999e-05
0.000341697
5.17343e-05
0.000329247
4.98567e-05
0.000317245
4.80596e-05
0.000305672
4.63427e-05
0.000294509
4.46977e-05
0.000283739
4.31274e-05
0.000273346
4.16188e-05
0.000263312
4.01767e-05
0.000253626
3.87879e-05
0.000244272
3.74539e-05
0.000235239
3.61723e-05
0.000226517
3.49265e-05
0.000218094
3.37286e-05
0.000209958
3.25781e-05
0.0002021
3.14665e-05
0.00019451
3.03914e-05
0.00018718
2.93521e-05
0.000180101
2.83475e-05
0.000173264
2.73762e-05
0.000166662
2.64367e-05
0.000160287
2.55277e-05
0.000154132
2.46478e-05
0.000148189
2.37961e-05
0.000142452
2.29714e-05
0.000136915
2.21728e-05
0.000131571
2.13994e-05
0.000126414
2.06504e-05
0.000121438
1.99248e-05
0.000116638
1.92221e-05
0.000112008
1.85407e-05
0.000107542
1.78814e-05
0.000103236
1.72425e-05
9.90848e-05
1.66235e-05
9.50832e-05
1.60239e-05
9.12266e-05
1.54431e-05
8.75105e-05
1.48806e-05
8.39304e-05
1.43359e-05
8.04821e-05
1.38083e-05
7.71613e-05
1.32977e-05
7.3964e-05
1.28032e-05
7.08861e-05
1.23249e-05
6.7924e-05
1.18618e-05
6.50735e-05
1.1414e-05
6.23315e-05
1.09806e-05
5.96937e-05
1.05619e-05
5.71575e-05
1.01566e-05
5.47187e-05
9.76531e-06
5.23748e-05
9.38672e-06
5.01216e-05
9.02143e-06
4.79573e-05
8.66815e-06
4.58774e-05
8.32741e-06
4.38805e-05
7.99809e-06
4.1962e-05
7.68051e-06
4.0121e-05
7.37387e-06
3.8353e-05
7.07813e-06
3.66571e-05
6.79291e-06
3.50291e-05
6.51774e-06
3.3468e-05
6.25272e-06
3.19701e-05
5.99692e-06
3.05343e-05
5.75087e-06
2.91572e-05
5.51337e-06
2.78376e-05
5.28509e-06
2.65726e-05
5.06486e-06
2.53608e-05
4.85319e-06
2.41997e-05
4.64919e-06
2.30878e-05
4.45305e-06
2.20228e-05
4.26432e-06
2.10033e-05
4.08275e-06
2.00273e-05
3.90827e-06
1.90933e-05
3.74037e-06
1.81994e-05
3.57916e-06
1.73445e-05
3.42409e-06
1.65265e-05
3.27524e-06
1.57444e-05
3.13216e-06
1.49964e-05
2.99486e-06
1.42817e-05
2.86291e-06
1.35981e-05
2.73645e-06
1.29454e-05
2.61478e-06
1.23212e-05
2.49848e-06
1.17256e-05
2.38632e-06
1.1156e-05
2.27949e-06
1.0613e-05
2.17622e-06
1.00936e-05
2.07809e-06
9.59889e-06
1.98319e-06
9.12562e-06
1.893e-06
8.67521e-06
1.80602e-06
8.24436e-06
1.72304e-06
7.83451e-06
1.6435e-06
7.44265e-06
1.56717e-06
7.06989e-06
1.49457e-06
6.71376e-06
1.42459e-06
6.37479e-06
1.3587e-06
6.05106e-06
1.2954e-06
5.74221e-06
1.23754e-06
5.44783e-06
1.17842e-06
1.10071e-06
5.17306e-06
0.000771542
-0.000317068
0.000803447
-0.000178274
0.00080605
-3.6501e-05
0.000795314
3.74714e-05
0.000786022
2.71897e-05
0.00078697
-1.15888e-05
0.000798798
-5.55734e-05
0.000826166
-0.000123697
0.000869266
-0.000211001
0.000884128
-7.04878e-05
0.000844147
0.000242391
0.000808148
0.000202555
0.000814155
-5.10234e-05
0.000836799
-0.000139405
0.000840964
-3.45269e-05
0.000806389
0.000164568
0.000760281
0.000228036
0.000746566
9.05066e-05
0.000785424
-0.000171073
0.000889567
-0.000517205
0.00106113
-0.00087292
0.00124217
-0.000920964
0.00135494
-0.000559193
0.00138301
-0.00015482
0.00135006
0.00015455
0.00125869
0.000429783
0.00111675
0.000692477
0.00100646
0.000579788
0.000956271
0.000308151
0.000921881
0.000209836
0.000882388
0.000178055
0.000842895
0.000156501
0.000807193
0.000149737
0.000772559
0.000156961
0.000738662
0.000169339
0.000706689
0.000169163
0.000677117
0.000154435
0.000649821
0.000138843
0.000624373
0.000128049
0.000600375
0.00012032
0.000577571
0.000114216
0.000555809
0.000108969
0.000534995
0.000104222
0.000515059
9.98195e-05
0.000495948
9.569e-05
0.000477615
9.17969e-05
0.000460017
8.81162e-05
0.000443114
8.46319e-05
0.000426871
8.13272e-05
0.000411255
7.81898e-05
0.000396234
7.52077e-05
0.00038178
7.23727e-05
0.000367864
6.96739e-05
0.000354461
6.71023e-05
0.000341549
6.46464e-05
0.000329105
6.23004e-05
0.00031711
6.00549e-05
0.000305543
5.79096e-05
0.000294387
5.58541e-05
0.000283622
5.3892e-05
0.000273234
5.2007e-05
0.000263206
5.02051e-05
0.000253524
4.84697e-05
0.000244175
4.68028e-05
0.000235146
4.52014e-05
0.000226428
4.36447e-05
0.000218009
4.21479e-05
0.000209877
4.07102e-05
0.000202022
3.93212e-05
0.000194436
3.79777e-05
0.000187109
3.6679e-05
0.000180032
3.54237e-05
0.000173199
3.421e-05
0.000166599
3.3036e-05
0.000160227
3.19001e-05
0.000154074
3.08007e-05
0.000148134
2.97364e-05
0.000142399
2.87058e-05
0.000136864
2.77078e-05
0.000131522
2.67414e-05
0.000126367
2.58054e-05
0.000121393
2.48987e-05
0.000116595
2.40206e-05
0.000111967
2.31691e-05
0.000107503
2.23452e-05
0.000103198
2.15468e-05
9.90486e-05
2.07734e-05
9.50485e-05
2.00241e-05
9.11933e-05
1.92983e-05
8.74786e-05
1.85953e-05
8.38998e-05
1.79146e-05
8.04528e-05
1.72554e-05
7.71331e-05
1.66172e-05
7.3937e-05
1.59994e-05
7.08602e-05
1.54016e-05
6.78991e-05
1.48229e-05
6.50497e-05
1.42633e-05
6.23086e-05
1.37218e-05
5.96718e-05
1.31984e-05
5.71366e-05
1.26921e-05
5.46986e-05
1.2203e-05
5.23555e-05
1.17301e-05
5.01032e-05
1.12734e-05
4.79396e-05
1.08321e-05
4.58604e-05
1.04062e-05
4.38642e-05
9.99478e-06
4.19464e-05
9.59778e-06
4.01061e-05
9.21472e-06
3.83387e-05
8.84503e-06
3.66433e-05
8.48871e-06
3.50159e-05
8.14477e-06
3.34554e-05
7.81364e-06
3.1958e-05
7.49396e-06
3.05227e-05
7.1865e-06
2.9146e-05
6.88971e-06
2.78269e-05
6.60443e-06
2.65624e-05
6.32923e-06
2.5351e-05
6.06471e-06
2.41903e-05
5.80979e-06
2.30788e-05
5.56468e-06
2.20142e-05
5.32883e-06
2.0995e-05
5.10195e-06
2.00193e-05
4.88388e-06
1.90857e-05
4.67411e-06
1.81921e-05
4.47261e-06
1.73375e-05
4.27888e-06
1.65198e-05
4.09282e-06
1.5738e-05
3.91408e-06
1.49902e-05
3.74244e-06
1.42757e-05
3.57763e-06
1.35924e-05
3.4195e-06
1.29399e-05
3.26757e-06
1.2316e-05
3.12209e-06
1.17206e-05
2.98212e-06
1.11512e-05
2.84842e-06
1.06084e-05
2.71957e-06
1.00891e-05
2.59674e-06
9.5946e-06
2.47835e-06
9.1215e-06
2.36545e-06
8.67125e-06
2.25693e-06
8.24055e-06
2.1531e-06
7.83085e-06
2.0538e-06
7.43912e-06
1.95836e-06
7.0665e-06
1.86765e-06
6.71049e-06
1.78021e-06
6.37165e-06
1.69784e-06
6.04803e-06
1.61879e-06
5.73929e-06
1.54645e-06
5.44502e-06
1.47257e-06
1.37545e-06
5.17036e-06
0.000775848
-0.000381275
0.000811326
-0.000213752
0.000816521
-4.16961e-05
0.000809134
4.48587e-05
0.000801384
3.49398e-05
0.000799391
-9.5965e-06
0.000806161
-6.23433e-05
0.000827484
-0.00014502
0.00086661
-0.000250126
0.000883137
-8.70146e-05
0.000849175
0.000276353
0.000815807
0.000235923
0.000820244
-5.54613e-05
0.000841307
-0.000160468
0.000844261
-3.74806e-05
0.000811791
0.000197037
0.000767195
0.000272632
0.000751331
0.000106371
0.000784779
-0.000204521
0.000883067
-0.000615494
0.00105183
-0.00104169
0.00122867
-0.0010978
0.00133551
-0.000666036
0.00136256
-0.000181868
0.00133454
0.000182576
0.00124622
0.000518101
0.0011058
0.000832892
0.00100765
0.000677938
0.000969524
0.00034628
0.000932031
0.000247329
0.000885293
0.000224793
0.000842287
0.000199508
0.000805977
0.000186047
0.000771313
0.000191624
0.000737598
0.000203054
0.00070595
0.000200812
0.000676619
0.000183766
0.000649441
0.00016602
0.000624049
0.000153441
0.000600082
0.000144287
0.0005773
0.000136998
0.000555557
0.000130712
0.000534759
0.00012502
0.000514838
0.00011974
0.000495741
0.000114787
0.00047742
0.000110118
0.000459833
0.000105703
0.000442941
0.000101524
0.000426708
9.75601e-05
0.000411101
9.3797e-05
0.000396088
9.02202e-05
0.000381641
8.68197e-05
0.000367733
8.35825e-05
0.000354337
8.0498e-05
0.000341431
7.75521e-05
0.000328994
7.47381e-05
0.000317004
7.20446e-05
0.000305442
6.94713e-05
0.000294291
6.70056e-05
0.000283531
6.4652e-05
0.000273147
6.23909e-05
0.000263122
6.02294e-05
0.000253445
5.81476e-05
0.000244099
5.61481e-05
0.000235074
5.42271e-05
0.000226359
5.23596e-05
0.000217942
5.0564e-05
0.000209813
4.88394e-05
0.000201961
4.71731e-05
0.000194378
4.55615e-05
0.000187053
4.40035e-05
0.000179979
4.24976e-05
0.000173148
4.10415e-05
0.000166551
3.96332e-05
0.00016018
3.82705e-05
0.000154029
3.69515e-05
0.000148091
3.56746e-05
0.000142358
3.44384e-05
0.000136825
3.32412e-05
0.000131485
3.20818e-05
0.000126331
3.09589e-05
0.000121359
2.98711e-05
0.000116562
2.88177e-05
0.000111935
2.77962e-05
0.000107472
2.68077e-05
0.000103169
2.58499e-05
9.90204e-05
2.4922e-05
9.50214e-05
2.40231e-05
9.11673e-05
2.31524e-05
8.74537e-05
2.2309e-05
8.38759e-05
2.14923e-05
8.04298e-05
2.07015e-05
7.71111e-05
1.99359e-05
7.39159e-05
1.91947e-05
7.08399e-05
1.84775e-05
6.78797e-05
1.77833e-05
6.5031e-05
1.71119e-05
6.22907e-05
1.64623e-05
5.96546e-05
1.58343e-05
5.712e-05
1.52269e-05
5.46827e-05
1.46401e-05
5.23403e-05
1.40728e-05
5.00885e-05
1.35248e-05
4.79255e-05
1.29955e-05
4.58469e-05
1.24844e-05
4.38512e-05
1.19909e-05
4.1934e-05
1.15145e-05
4.00941e-05
1.10551e-05
3.83272e-05
1.06115e-05
3.66323e-05
1.01841e-05
3.50053e-05
9.77136e-06
3.34452e-05
9.37414e-06
3.19482e-05
8.99059e-06
3.05133e-05
8.62174e-06
2.91371e-05
8.26568e-06
2.78183e-05
7.92341e-06
2.65541e-05
7.59326e-06
2.5343e-05
7.2759e-06
2.41826e-05
6.97008e-06
2.30714e-05
6.67602e-06
2.20071e-05
6.39305e-06
2.09882e-05
6.12087e-06
2.00128e-05
5.85924e-06
1.90794e-05
5.60759e-06
1.81861e-05
5.36582e-06
1.73317e-05
5.13343e-06
1.65142e-05
4.91018e-06
1.57326e-05
4.69578e-06
1.49851e-05
4.48981e-06
1.42707e-05
4.29215e-06
1.35877e-05
4.10235e-06
1.29353e-05
3.92019e-06
1.23116e-05
3.74553e-06
1.17163e-05
3.57775e-06
1.11471e-05
3.41718e-06
1.06044e-05
3.26278e-06
1.00853e-05
3.11523e-06
9.59093e-06
2.97338e-06
9.11795e-06
2.83778e-06
8.66783e-06
2.70771e-06
8.23725e-06
2.58305e-06
7.82766e-06
2.46398e-06
7.43605e-06
2.34944e-06
7.06353e-06
2.24063e-06
6.70762e-06
2.13573e-06
6.36887e-06
2.0369e-06
6.04534e-06
1.94209e-06
5.73669e-06
1.85527e-06
5.44251e-06
1.76664e-06
1.65009e-06
5.16794e-06
0.000773877
-0.00044702
0.000811255
-0.00025113
0.000816482
-4.69227e-05
0.000805498
5.58432e-05
0.000794618
4.58188e-05
0.000793448
-8.42605e-06
0.000802862
-7.1757e-05
0.000827194
-0.000169352
0.000869772
-0.000292705
0.000887119
-0.000104361
0.000849335
0.000314137
0.000811922
0.000273336
0.000814512
-5.80512e-05
0.000835529
-0.000181486
0.000839952
-4.19029e-05
0.000808966
0.000228023
0.000767555
0.000314042
0.000755375
0.000118552
0.000790191
-0.000239337
0.000891032
-0.000716335
0.00106324
-0.0012139
0.00124254
-0.0012771
0.00135166
-0.000775158
0.00137834
-0.000208543
0.00134691
0.000214001
0.0012545
0.000610515
0.00112566
0.00096173
0.00104045
0.000763151
0.000994353
0.000392374
0.000939559
0.000302123
0.000884175
0.000280177
0.000841027
0.000242655
0.000804807
0.000222267
0.000770191
0.000226241
0.000736717
0.000236528
0.000705302
0.000232227
0.000676172
0.000212896
0.0006491
0.000193092
0.000623761
0.00017878
0.000599824
0.000168224
0.000577063
0.000159759
0.000555338
0.000152438
0.000534555
0.000145803
0.000514648
0.000139647
0.000495563
0.000133872
0.000477254
0.000128427
0.000459678
0.000123279
0.000442795
0.000118406
0.000426571
0.000113784
0.000410972
0.000109396
0.000395967
0.000105225
0.000381526
0.00010126
0.000367624
9.74849e-05
0.000354234
9.38879e-05
0.000341334
9.04525e-05
0.000328901
8.71708e-05
0.000316916
8.40296e-05
0.000305359
8.10286e-05
0.000294211
7.81531e-05
0.000283455
7.54083e-05
0.000273075
7.27712e-05
0.000263054
7.02504e-05
0.000253379
6.78224e-05
0.000244037
6.54904e-05
0.000235014
6.325e-05
0.000226301
6.10719e-05
0.000217888
5.89777e-05
0.000209761
5.69663e-05
0.000201911
5.50228e-05
0.00019433
5.31431e-05
0.000187007
5.1326e-05
0.000179935
4.95695e-05
0.000173105
4.78712e-05
0.00016651
4.62286e-05
0.000160141
4.46392e-05
0.000153992
4.31008e-05
0.000148055
4.16115e-05
0.000142324
4.01695e-05
0.000136792
3.87731e-05
0.000131453
3.74209e-05
0.000126301
3.61111e-05
0.00012133
3.48423e-05
0.000116534
3.36137e-05
0.000111908
3.24221e-05
0.000107446
3.12692e-05
0.000103144
3.0152e-05
9.89964e-05
2.90697e-05
9.49984e-05
2.80211e-05
9.11452e-05
2.70055e-05
8.74324e-05
2.60219e-05
8.38554e-05
2.50693e-05
8.04101e-05
2.41468e-05
7.70922e-05
2.32538e-05
7.38977e-05
2.23893e-05
7.08224e-05
2.15526e-05
6.78629e-05
2.0743e-05
6.50148e-05
1.99598e-05
6.22752e-05
1.92021e-05
5.96397e-05
1.84696e-05
5.71057e-05
1.77612e-05
5.46689e-05
1.70766e-05
5.2327e-05
1.6415e-05
5.00758e-05
1.57757e-05
4.79133e-05
1.51584e-05
4.58351e-05
1.45621e-05
4.38399e-05
1.39866e-05
4.19231e-05
1.34309e-05
4.00836e-05
1.2895e-05
3.83171e-05
1.23775e-05
3.66226e-05
1.1879e-05
3.4996e-05
1.13976e-05
3.34362e-05
1.09343e-05
3.19396e-05
1.04869e-05
3.0505e-05
1.00566e-05
2.91291e-05
9.64133e-06
2.78106e-05
9.24209e-06
2.65467e-05
8.857e-06
2.53359e-05
8.48681e-06
2.41758e-05
8.1301e-06
2.30648e-05
7.78709e-06
2.20008e-05
7.45703e-06
2.09821e-05
7.13956e-06
2.00069e-05
6.83436e-06
1.90738e-05
6.54085e-06
1.81807e-05
6.25883e-06
1.73264e-05
5.98779e-06
1.65091e-05
5.72734e-06
1.57277e-05
5.4773e-06
1.49804e-05
5.23701e-06
1.42662e-05
5.0065e-06
1.35833e-05
4.78505e-06
1.29311e-05
4.57266e-06
1.23075e-05
4.36883e-06
1.17124e-05
4.17323e-06
1.11433e-05
3.98581e-06
1.06008e-05
3.80586e-06
1.00818e-05
3.63361e-06
9.58752e-06
3.46829e-06
9.11466e-06
3.30999e-06
8.66465e-06
3.15838e-06
8.23418e-06
3.01288e-06
7.82469e-06
2.87406e-06
7.43317e-06
2.74043e-06
7.06074e-06
2.61352e-06
6.70492e-06
2.49117e-06
6.36626e-06
2.37587e-06
6.04281e-06
2.26531e-06
5.73422e-06
2.16402e-06
5.44012e-06
2.06062e-06
1.92466e-06
5.16563e-06
0.000775587
-0.000511472
0.000814876
-0.00029042
0.000823224
-5.52707e-05
0.000815288
6.37795e-05
0.000804408
5.66986e-05
0.000798573
-2.59027e-06
0.000802799
-7.59837e-05
0.000822124
-0.000188677
0.000858418
-0.000328999
0.000873228
-0.000119171
0.000840642
0.000346723
0.00080951
0.000304467
0.000814849
-6.33902e-05
0.000836261
-0.000202898
0.000840946
-4.65881e-05
0.000810832
0.000258138
0.000768705
0.000356169
0.000752893
0.000134364
0.000784298
-0.000270743
0.000884915
-0.000816952
0.00105744
-0.00138642
0.0012343
-0.00145396
0.00133947
-0.000880327
0.00136613
-0.000235201
0.00134236
0.00023777
0.00126941
0.000683465
0.00117368
0.00105746
0.00109552
0.000841311
0.0010201
0.000467789
0.000943207
0.000379018
0.000883018
0.000340367
0.000839889
0.000285784
0.00080377
0.000258386
0.000769211
0.0002608
0.000735963
0.000269776
0.000704735
0.000263455
0.000675763
0.000241867
0.000648789
0.000220067
0.0006235
0.000204069
0.000599592
0.000192131
0.000576853
0.000182498
0.000555144
0.000174147
0.000534375
0.000166571
0.000514482
0.000159541
0.000495408
0.000152945
0.00047711
0.000146726
0.000459543
0.000140846
0.000442669
0.00013528
0.000426452
0.000130001
0.00041086
0.000124988
0.000395861
0.000120224
0.000381427
0.000115694
0.00036753
0.000111382
0.000354145
0.000107273
0.00034125
0.000103348
0.000328821
9.95992e-05
0.00031684
9.60107e-05
0.000305287
9.25822e-05
0.000294143
8.92971e-05
0.00028339
8.61613e-05
0.000273012
8.31485e-05
0.000262994
8.02686e-05
0.000253322
7.74945e-05
0.000243982
7.48303e-05
0.000234962
7.22705e-05
0.000226252
6.97819e-05
0.00021784
6.73893e-05
0.000209715
6.50912e-05
0.000201867
6.28706e-05
0.000194288
6.07229e-05
0.000186967
5.86467e-05
0.000179896
5.66398e-05
0.000173068
5.46994e-05
0.000166474
5.28225e-05
0.000160107
5.10065e-05
0.000153959
4.92488e-05
0.000148023
4.75471e-05
0.000142294
4.58994e-05
0.000136763
4.43039e-05
0.000131425
4.27588e-05
0.000126274
4.12622e-05
0.000121303
3.98125e-05
0.000116509
3.84086e-05
0.000111884
3.70471e-05
0.000107423
3.57298e-05
0.000103122
3.44532e-05
9.8975e-05
3.32165e-05
9.49777e-05
3.20184e-05
9.11253e-05
3.08579e-05
8.74132e-05
2.97339e-05
8.3837e-05
2.86455e-05
8.03924e-05
2.75914e-05
7.70751e-05
2.6571e-05
7.38813e-05
2.55832e-05
7.08066e-05
2.46272e-05
6.78477e-05
2.37021e-05
6.50002e-05
2.28071e-05
6.22611e-05
2.19414e-05
5.96261e-05
2.11043e-05
5.70926e-05
2.0295e-05
5.46563e-05
1.95126e-05
5.23149e-05
1.87567e-05
5.00641e-05
1.80262e-05
4.79021e-05
1.73208e-05
4.58243e-05
1.66394e-05
4.38295e-05
1.59819e-05
4.19131e-05
1.53468e-05
4.0074e-05
1.47346e-05
3.83079e-05
1.41432e-05
3.66137e-05
1.35736e-05
3.49874e-05
1.30235e-05
3.3428e-05
1.24941e-05
3.19316e-05
1.19829e-05
3.04973e-05
1.14913e-05
2.91217e-05
1.10167e-05
2.78035e-05
1.05605e-05
2.65399e-05
1.01205e-05
2.53293e-05
9.69747e-06
2.41695e-05
9.28987e-06
2.30587e-05
8.89794e-06
2.19949e-05
8.52078e-06
2.09765e-05
8.15804e-06
2.00015e-05
7.80928e-06
1.90685e-05
7.47392e-06
1.81756e-05
7.15164e-06
1.73215e-05
6.84196e-06
1.65044e-05
6.54434e-06
1.57232e-05
6.25865e-06
1.4976e-05
5.98404e-06
1.4262e-05
5.7207e-06
1.35792e-05
5.4676e-06
1.29272e-05
5.22498e-06
1.23037e-05
4.99199e-06
1.17087e-05
4.76859e-06
1.11397e-05
4.55432e-06
1.05973e-05
4.34881e-06
1.00785e-05
4.15187e-06
9.5843e-06
3.96308e-06
9.11155e-06
3.78209e-06
8.66163e-06
3.60895e-06
8.23125e-06
3.44263e-06
7.82185e-06
3.28405e-06
7.43042e-06
3.13133e-06
7.05808e-06
2.98632e-06
6.70234e-06
2.84653e-06
6.36375e-06
2.71476e-06
6.04037e-06
2.58845e-06
5.73185e-06
2.47271e-06
5.43783e-06
2.35453e-06
2.19914e-06
5.16342e-06
0.000770311
-0.000574375
0.0008092
-0.000329309
0.00081777
-6.38416e-05
0.000810423
7.11265e-05
0.000801194
6.59278e-05
0.000798672
-6.82212e-08
0.000806733
-8.4044e-05
0.000828422
-0.000210366
0.000864061
-0.000364638
0.000875954
-0.000131064
0.000841531
0.000381146
0.000810015
0.000335984
0.000813975
-6.73502e-05
0.000833314
-0.000222236
0.000837517
-5.07918e-05
0.000808337
0.000287318
0.000767976
0.000396531
0.000754247
0.000148093
0.000789621
-0.000306117
0.000892648
-0.000919979