/*--------------------------------*- C++ -*----------------------------------*\
| =========                 |                                                 |
| \\      /  F ield         | OpenFOAM: The Open Source CFD Toolbox           |
|  \\    /   O peration     | Version:  v1912                                 |
|   \\  /    A nd           | Website:  www.openfoam.com                      |
|    \\/     M anipulation  |                                                 |
\*---------------------------------------------------------------------------*/
FoamFile
{
    version     2.0;
    format      ascii;
    class       volScalarField;
    location    "30";
    object      nut;
}
// * * * * * * * * * * * * * * * * * * * * * * * * * * * * * * * * * * * * * //

dimensions      [0 2 -1 0 0 0 0];


internalField   nonuniform List<scalar> 
14268
(
7.79986e-05
7.82187e-05
7.87248e-05
7.90268e-05
7.90986e-05
7.90951e-05
7.9076e-05
7.90782e-05
7.91071e-05
7.91541e-05
7.92087e-05
7.92574e-05
7.92799e-05
7.92763e-05
7.92526e-05
7.92185e-05
7.91806e-05
7.91671e-05
7.92226e-05
7.93327e-05
7.94857e-05
7.96703e-05
7.98748e-05
8.00852e-05
8.02936e-05
8.04935e-05
8.06758e-05
8.08345e-05
8.09698e-05
8.10881e-05
8.11984e-05
8.13102e-05
8.143e-05
8.15626e-05
8.1709e-05
8.18603e-05
8.19944e-05
8.20866e-05
8.21161e-05
8.20816e-05
8.20272e-05
8.19599e-05
8.18795e-05
8.18108e-05
8.17647e-05
8.17472e-05
8.1756e-05
8.17835e-05
8.18173e-05
8.18485e-05
8.18655e-05
8.18536e-05
8.18228e-05
8.17839e-05
8.17423e-05
8.17016e-05
8.1664e-05
8.16299e-05
8.15982e-05
8.15674e-05
8.15362e-05
8.15053e-05
8.1499e-05
8.15701e-05
8.17128e-05
8.19156e-05
8.21634e-05
8.24368e-05
8.2714e-05
8.29761e-05
8.32127e-05
8.34192e-05
8.35937e-05
8.37348e-05
8.38487e-05
8.39436e-05
8.40285e-05
8.41102e-05
8.41919e-05
8.42731e-05
8.43491e-05
8.44141e-05
8.44609e-05
8.44817e-05
8.44719e-05
8.44295e-05
8.43592e-05
8.4256e-05
8.41184e-05
8.3972e-05
8.38429e-05
8.37371e-05
8.36527e-05
8.35838e-05
8.35204e-05
8.345e-05
8.33586e-05
8.32561e-05
8.31442e-05
8.30186e-05
8.28804e-05
8.27345e-05
8.25906e-05
8.24561e-05
8.23348e-05
8.22283e-05
8.21343e-05
8.20496e-05
8.19608e-05
8.18589e-05
8.17428e-05
8.16132e-05
8.14727e-05
8.13259e-05
8.11794e-05
8.10584e-05
8.09981e-05
8.09888e-05
8.10228e-05
8.10885e-05
8.11752e-05
8.12712e-05
8.13652e-05
8.14442e-05
8.14973e-05
8.15113e-05
8.14761e-05
8.13939e-05
8.12759e-05
8.11339e-05
8.09794e-05
8.08221e-05
8.06704e-05
8.05322e-05
8.04116e-05
8.03072e-05
8.02123e-05
8.01149e-05
8.00015e-05
7.98629e-05
7.96988e-05
7.9536e-05
7.93787e-05
7.92294e-05
7.90905e-05
7.89626e-05
7.8845e-05
7.87349e-05
7.86238e-05
7.85088e-05
7.83915e-05
7.82893e-05
7.82398e-05
7.82362e-05
7.82711e-05
7.83306e-05
7.83997e-05
7.84653e-05
7.85154e-05
7.85386e-05
7.85307e-05
7.84856e-05
7.84196e-05
7.83267e-05
2.23613e-07
5.92547e-07
1.09664e-06
1.37761e-06
1.4358e-06
1.39329e-06
1.31408e-06
1.22918e-06
1.14903e-06
1.0774e-06
1.01575e-06
9.64659e-07
9.24114e-07
8.93822e-07
8.73386e-07
8.62326e-07
8.60136e-07
8.65204e-07
8.73479e-07
8.84961e-07
8.99547e-07
9.17094e-07
9.37337e-07
9.59933e-07
9.84511e-07
1.01081e-06
1.03856e-06
1.06745e-06
1.09732e-06
1.12814e-06
1.16017e-06
1.19421e-06
1.23134e-06
1.27247e-06
1.31777e-06
1.36618e-06
1.4148e-06
1.45941e-06
1.49494e-06
1.51568e-06
1.51398e-06
1.48548e-06
1.43121e-06
1.35799e-06
1.27364e-06
1.18611e-06
1.10252e-06
1.0278e-06
9.64678e-07
9.13727e-07
8.7442e-07
8.44955e-07
8.23041e-07
8.06244e-07
7.92126e-07
7.78573e-07
7.64383e-07
7.49499e-07
7.34807e-07
7.21941e-07
7.12813e-07
7.08884e-07
7.10529e-07
7.1457e-07
7.21283e-07
7.30781e-07
7.42876e-07
7.57543e-07
7.74526e-07
7.93331e-07
8.13072e-07
8.32722e-07
8.51436e-07
8.68768e-07
8.8477e-07
8.99641e-07
9.13755e-07
9.27427e-07
9.40897e-07
9.54154e-07
9.66998e-07
9.79049e-07
9.89667e-07
9.98465e-07
1.00524e-06
1.01003e-06
1.01328e-06
1.01718e-06
1.02342e-06
1.03191e-06
1.04246e-06
1.05526e-06
1.07035e-06
1.08737e-06
1.1054e-06
1.12306e-06
1.13868e-06
1.14827e-06
1.14909e-06
1.13982e-06
1.11992e-06
1.09007e-06
1.05166e-06
1.0071e-06
9.5937e-07
9.11376e-07
8.65596e-07
8.23797e-07
7.87243e-07
7.56771e-07
7.32904e-07
7.15912e-07
7.05838e-07
7.02418e-07
7.05952e-07
7.14627e-07
7.25198e-07
7.37751e-07
7.52332e-07
7.68962e-07
7.87534e-07
8.07808e-07
8.29448e-07
8.51978e-07
8.74967e-07
8.98241e-07
9.2143e-07
9.43905e-07
9.65122e-07
9.85004e-07
1.00399e-06
1.02287e-06
1.04237e-06
1.06296e-06
1.08497e-06
1.10852e-06
1.13309e-06
1.15764e-06
1.1807e-06
1.20045e-06
1.21419e-06
1.21814e-06
1.21196e-06
1.19642e-06
1.17403e-06
1.14815e-06
1.12235e-06
1.09985e-06
1.08343e-06
1.07534e-06
1.07721e-06
1.0886e-06
1.10622e-06
1.1298e-06
1.15846e-06
1.19064e-06
1.22495e-06
1.2599e-06
1.29361e-06
1.32397e-06
1.34944e-06
1.36917e-06
1.38207e-06
1.38416e-06
8.0365e-08
1.98458e-07
3.75213e-07
4.84079e-07
5.15985e-07
5.13813e-07
5.00085e-07
4.846e-07
4.70259e-07
4.5811e-07
4.48311e-07
4.40729e-07
4.35109e-07
4.31172e-07
4.28663e-07
4.27375e-07
4.27159e-07
4.27782e-07
4.28774e-07
4.30176e-07
4.3199e-07
4.34214e-07
4.3683e-07
4.39817e-07
4.43158e-07
4.46838e-07
4.50829e-07
4.55097e-07
4.5966e-07
4.64568e-07
4.69848e-07
4.75595e-07
4.81952e-07
4.89042e-07
4.9689e-07
5.05335e-07
5.13915e-07
5.21867e-07
5.28314e-07
5.32251e-07
5.31906e-07
5.2627e-07
5.15666e-07
5.01673e-07
4.86092e-07
4.7066e-07
4.56645e-07
4.4477e-07
4.35372e-07
4.28347e-07
4.23291e-07
4.1971e-07
4.17176e-07
4.15301e-07
4.13765e-07
4.12343e-07
4.10927e-07
4.09523e-07
4.08219e-07
4.07148e-07
4.06456e-07
4.06248e-07
4.0647e-07
4.06847e-07
4.0745e-07
4.0831e-07
4.09426e-07
4.10844e-07
4.12566e-07
4.14564e-07
4.16754e-07
4.19009e-07
4.2121e-07
4.23282e-07
4.2521e-07
4.27013e-07
4.28744e-07
4.30421e-07
4.32073e-07
4.33701e-07
4.35265e-07
4.36713e-07
4.37991e-07
4.39042e-07
4.39818e-07
4.4032e-07
4.40615e-07
4.41047e-07
4.41886e-07
4.43109e-07
4.44664e-07
4.46567e-07
4.48826e-07
4.51389e-07
4.54129e-07
4.56853e-07
4.5932e-07
4.60862e-07
4.60994e-07
4.59514e-07
4.56375e-07
4.51749e-07
4.4593e-07
4.39385e-07
4.32665e-07
4.26331e-07
4.20765e-07
4.16146e-07
4.12522e-07
4.09851e-07
4.08049e-07
4.07011e-07
4.06614e-07
4.06805e-07
4.0754e-07
4.08675e-07
4.09998e-07
4.1155e-07
4.13361e-07
4.15463e-07
4.17857e-07
4.20531e-07
4.23468e-07
4.26622e-07
4.29932e-07
4.3337e-07
4.36878e-07
4.40355e-07
4.4372e-07
4.46956e-07
4.50117e-07
4.53314e-07
4.56645e-07
4.60173e-07
4.63963e-07
4.68039e-07
4.72328e-07
4.76663e-07
4.80797e-07
4.84424e-07
4.87033e-07
4.87864e-07
4.8685e-07
4.84146e-07
4.80233e-07
4.75765e-07
4.71414e-07
4.67721e-07
4.65116e-07
4.6393e-07
4.64394e-07
4.66437e-07
4.69545e-07
4.73719e-07
4.78797e-07
4.845e-07
4.90617e-07
4.96904e-07
5.03024e-07
5.08575e-07
5.13262e-07
5.17015e-07
5.19571e-07
5.19776e-07
5.71506e-08
1.40486e-07
2.72193e-07
3.59767e-07
3.91377e-07
3.97295e-07
3.95651e-07
3.92227e-07
3.89083e-07
3.86738e-07
3.85138e-07
3.84184e-07
3.83695e-07
3.83511e-07
3.835e-07
3.83578e-07
3.83684e-07
3.83757e-07
3.83797e-07
3.83867e-07
3.83975e-07
3.84139e-07
3.84365e-07
3.84663e-07
3.85045e-07
3.85521e-07
3.86095e-07
3.86768e-07
3.87562e-07
3.88534e-07
3.89691e-07
3.91053e-07
3.92653e-07
3.94521e-07
3.96658e-07
3.99009e-07
4.01431e-07
4.03668e-07
4.05412e-07
4.06427e-07
4.0631e-07
4.04762e-07
4.01976e-07
3.98461e-07
3.94777e-07
3.9138e-07
3.88533e-07
3.86332e-07
3.84784e-07
3.83847e-07
3.83313e-07
3.82995e-07
3.82815e-07
3.82706e-07
3.82638e-07
3.82609e-07
3.82633e-07
3.82729e-07
3.82903e-07
3.83136e-07
3.83398e-07
3.83643e-07
3.83797e-07
3.83838e-07
3.83829e-07
3.8378e-07
3.83722e-07
3.83685e-07
3.83693e-07
3.83762e-07
3.83898e-07
3.84088e-07
3.84306e-07
3.84525e-07
3.84734e-07
3.84948e-07
3.85172e-07
3.8539e-07
3.85604e-07
3.85811e-07
3.86004e-07
3.8617e-07
3.863e-07
3.86391e-07
3.86428e-07
3.86406e-07
3.86333e-07
3.86283e-07
3.86335e-07
3.86481e-07
3.86715e-07
3.87039e-07
3.87448e-07
3.87921e-07
3.88422e-07
3.88905e-07
3.89334e-07
3.89584e-07
3.89552e-07
3.89183e-07
3.88495e-07
3.87545e-07
3.86406e-07
3.85191e-07
3.84018e-07
3.83013e-07
3.82318e-07
3.81928e-07
3.81791e-07
3.81842e-07
3.82019e-07
3.82254e-07
3.82495e-07
3.82702e-07
3.82862e-07
3.82945e-07
3.8299e-07
3.83035e-07
3.83095e-07
3.83194e-07
3.83333e-07
3.83521e-07
3.83771e-07
3.84089e-07
3.84473e-07
3.84919e-07
3.85398e-07
3.85888e-07
3.86376e-07
3.86868e-07
3.87389e-07
3.87963e-07
3.88582e-07
3.89241e-07
3.89963e-07
3.90756e-07
3.91607e-07
3.92471e-07
3.93294e-07
3.94009e-07
3.94486e-07
3.94526e-07
3.9412e-07
3.93313e-07
3.9223e-07
3.91052e-07
3.89958e-07
3.89095e-07
3.88527e-07
3.88275e-07
3.88371e-07
3.88826e-07
3.89533e-07
3.90461e-07
3.91589e-07
3.9286e-07
3.94252e-07
3.95719e-07
3.97196e-07
3.98527e-07
3.99625e-07
4.00605e-07
4.01209e-07
4.00901e-07
5.22622e-08
1.27636e-07
2.49753e-07
3.34382e-07
3.67252e-07
3.75935e-07
3.77218e-07
3.76758e-07
3.76207e-07
3.75913e-07
3.76012e-07
3.7637e-07
3.76866e-07
3.7739e-07
3.77854e-07
3.78198e-07
3.78388e-07
3.78402e-07
3.78281e-07
3.78125e-07
3.77943e-07
3.7775e-07
3.77554e-07
3.77367e-07
3.77201e-07
3.77065e-07
3.7697e-07
3.76929e-07
3.76962e-07
3.77133e-07
3.77444e-07
3.77898e-07
3.78501e-07
3.79262e-07
3.80171e-07
3.81181e-07
3.82203e-07
3.83095e-07
3.83697e-07
3.83999e-07
3.83938e-07
3.83406e-07
3.82514e-07
3.81451e-07
3.80423e-07
3.79566e-07
3.78948e-07
3.78567e-07
3.78427e-07
3.78531e-07
3.78727e-07
3.78917e-07
3.79083e-07
3.79216e-07
3.79339e-07
3.79488e-07
3.79705e-07
3.80011e-07
3.804e-07
3.80835e-07
3.81262e-07
3.8161e-07
3.81808e-07
3.81832e-07
3.81767e-07
3.81623e-07
3.81433e-07
3.81215e-07
3.80992e-07
3.80786e-07
3.80619e-07
3.80495e-07
3.80404e-07
3.80331e-07
3.80272e-07
3.80235e-07
3.80221e-07
3.80216e-07
3.80209e-07
3.80197e-07
3.80172e-07
3.8013e-07
3.80068e-07
3.79984e-07
3.79879e-07
3.79753e-07
3.7959e-07
3.79426e-07
3.79311e-07
3.79256e-07
3.79257e-07
3.79309e-07
3.79396e-07
3.79494e-07
3.7958e-07
3.79635e-07
3.79661e-07
3.79632e-07
3.79524e-07
3.79319e-07
3.79033e-07
3.78691e-07
3.7832e-07
3.77955e-07
3.77632e-07
3.77411e-07
3.77396e-07
3.77574e-07
3.77893e-07
3.78291e-07
3.78712e-07
3.79106e-07
3.79429e-07
3.79645e-07
3.79747e-07
3.79708e-07
3.79578e-07
3.79413e-07
3.79222e-07
3.7902e-07
3.7881e-07
3.78603e-07
3.78407e-07
3.78227e-07
3.78075e-07
3.77957e-07
3.7785e-07
3.77748e-07
3.77658e-07
3.77585e-07
3.77545e-07
3.77556e-07
3.77603e-07
3.77652e-07
3.77703e-07
3.77769e-07
3.77846e-07
3.77907e-07
3.7795e-07
3.77962e-07
3.77911e-07
3.77739e-07
3.77439e-07
3.77038e-07
3.76579e-07
3.76158e-07
3.7583e-07
3.75646e-07
3.75582e-07
3.75593e-07
3.75692e-07
3.75874e-07
3.76091e-07
3.76298e-07
3.76501e-07
3.76717e-07
3.76992e-07
3.7731e-07
3.77628e-07
3.77914e-07
3.78175e-07
3.78321e-07
3.78605e-07
3.78335e-07
5.06117e-08
1.22652e-07
2.41922e-07
3.27343e-07
3.61714e-07
3.71469e-07
3.73488e-07
3.73707e-07
3.73718e-07
3.73854e-07
3.74311e-07
3.74937e-07
3.75631e-07
3.76303e-07
3.76876e-07
3.77297e-07
3.77534e-07
3.77572e-07
3.77437e-07
3.77247e-07
3.77019e-07
3.7677e-07
3.76506e-07
3.76234e-07
3.75962e-07
3.75695e-07
3.75444e-07
3.75229e-07
3.75078e-07
3.75058e-07
3.75182e-07
3.75453e-07
3.75863e-07
3.76405e-07
3.77067e-07
3.77801e-07
3.78518e-07
3.79103e-07
3.79443e-07
3.79598e-07
3.79548e-07
3.79257e-07
3.78803e-07
3.78293e-07
3.77832e-07
3.7749e-07
3.77301e-07
3.77256e-07
3.77373e-07
3.77651e-07
3.77957e-07
3.78217e-07
3.78419e-07
3.78563e-07
3.78682e-07
3.78825e-07
3.79039e-07
3.79361e-07
3.79794e-07
3.80294e-07
3.80798e-07
3.81224e-07
3.81494e-07
3.81559e-07
3.81513e-07
3.81387e-07
3.81203e-07
3.8098e-07
3.80737e-07
3.805e-07
3.80293e-07
3.80125e-07
3.79986e-07
3.79861e-07
3.79749e-07
3.79653e-07
3.79582e-07
3.79528e-07
3.79475e-07
3.79408e-07
3.79324e-07
3.79219e-07
3.79091e-07
3.78945e-07
3.78785e-07
3.78616e-07
3.78422e-07
3.78219e-07
3.78074e-07
3.77978e-07
3.77942e-07
3.77954e-07
3.77994e-07
3.78034e-07
3.78048e-07
3.78018e-07
3.77962e-07
3.77864e-07
3.77709e-07
3.77501e-07
3.77253e-07
3.76977e-07
3.76694e-07
3.76426e-07
3.76193e-07
3.76043e-07
3.7608e-07
3.76296e-07
3.76646e-07
3.77075e-07
3.77524e-07
3.77941e-07
3.78286e-07
3.78526e-07
3.78652e-07
3.78635e-07
3.78503e-07
3.78327e-07
3.78118e-07
3.77888e-07
3.77641e-07
3.77384e-07
3.77127e-07
3.76871e-07
3.76621e-07
3.76384e-07
3.76142e-07
3.75895e-07
3.75671e-07
3.75476e-07
3.75309e-07
3.75193e-07
3.75119e-07
3.7506e-07
3.74986e-07
3.74907e-07
3.7481e-07
3.74691e-07
3.74548e-07
3.74383e-07
3.74192e-07
3.73954e-07
3.73669e-07
3.7337e-07
3.73085e-07
3.72838e-07
3.7267e-07
3.72637e-07
3.72719e-07
3.72859e-07
3.73041e-07
3.73251e-07
3.73422e-07
3.73528e-07
3.73557e-07
3.73546e-07
3.73543e-07
3.73534e-07
3.73528e-07
3.73517e-07
3.73516e-07
3.7346e-07
3.73649e-07
3.73439e-07
4.95069e-08
1.18938e-07
2.36561e-07
3.23558e-07
3.59385e-07
3.69819e-07
3.72227e-07
3.72619e-07
3.72755e-07
3.72988e-07
3.7354e-07
3.74231e-07
3.7498e-07
3.75722e-07
3.76366e-07
3.76857e-07
3.77159e-07
3.77249e-07
3.77147e-07
3.76958e-07
3.7671e-07
3.76447e-07
3.7616e-07
3.75859e-07
3.75547e-07
3.75232e-07
3.74926e-07
3.74646e-07
3.74426e-07
3.74333e-07
3.74399e-07
3.74621e-07
3.75002e-07
3.75518e-07
3.76152e-07
3.76852e-07
3.77519e-07
3.78026e-07
3.78284e-07
3.7839e-07
3.7832e-07
3.78069e-07
3.77701e-07
3.77298e-07
3.76944e-07
3.76703e-07
3.76608e-07
3.76644e-07
3.7684e-07
3.77178e-07
3.77515e-07
3.77813e-07
3.78022e-07
3.78148e-07
3.78228e-07
3.78334e-07
3.78525e-07
3.78847e-07
3.79304e-07
3.79855e-07
3.80434e-07
3.80951e-07
3.81322e-07
3.81464e-07
3.8145e-07
3.81353e-07
3.81189e-07
3.80979e-07
3.80736e-07
3.80483e-07
3.80253e-07
3.80061e-07
3.799e-07
3.79753e-07
3.79621e-07
3.79501e-07
3.79401e-07
3.79323e-07
3.79242e-07
3.79154e-07
3.79049e-07
3.78916e-07
3.78748e-07
3.78552e-07
3.78348e-07
3.7813e-07
3.77895e-07
3.77648e-07
3.77454e-07
3.77333e-07
3.77286e-07
3.77301e-07
3.77346e-07
3.77387e-07
3.77393e-07
3.77341e-07
3.77256e-07
3.77125e-07
3.76935e-07
3.76688e-07
3.76404e-07
3.76096e-07
3.75781e-07
3.7548e-07
3.75214e-07
3.75026e-07
3.75027e-07
3.75214e-07
3.75544e-07
3.75964e-07
3.76418e-07
3.76845e-07
3.77202e-07
3.77464e-07
3.77619e-07
3.77638e-07
3.77531e-07
3.77375e-07
3.77192e-07
3.76991e-07
3.76772e-07
3.76537e-07
3.76295e-07
3.76051e-07
3.75804e-07
3.75554e-07
3.75289e-07
3.75003e-07
3.74739e-07
3.7451e-07
3.74309e-07
3.74153e-07
3.74053e-07
3.73993e-07
3.73919e-07
3.73831e-07
3.73708e-07
3.73559e-07
3.73371e-07
3.73143e-07
3.72883e-07
3.72594e-07
3.72269e-07
3.71959e-07
3.71669e-07
3.71421e-07
3.71267e-07
3.71292e-07
3.71481e-07
3.71765e-07
3.72093e-07
3.72426e-07
3.72679e-07
3.72853e-07
3.72898e-07
3.7287e-07
3.72802e-07
3.72697e-07
3.72609e-07
3.72535e-07
3.72436e-07
3.72285e-07
3.72391e-07
3.72193e-07
4.84136e-08
1.15125e-07
2.3112e-07
3.20053e-07
3.57589e-07
3.6879e-07
3.71465e-07
3.71898e-07
3.72025e-07
3.72239e-07
3.72819e-07
3.73528e-07
3.74293e-07
3.75084e-07
3.75787e-07
3.76346e-07
3.76719e-07
3.76887e-07
3.76866e-07
3.76694e-07
3.76448e-07
3.76197e-07
3.75916e-07
3.75601e-07
3.75266e-07
3.74913e-07
3.74555e-07
3.7422e-07
3.73953e-07
3.73805e-07
3.73839e-07
3.74057e-07
3.74452e-07
3.75001e-07
3.75661e-07
3.76374e-07
3.77029e-07
3.77491e-07
3.77723e-07
3.77821e-07
3.7774e-07
3.77485e-07
3.77115e-07
3.76721e-07
3.76389e-07
3.76174e-07
3.76112e-07
3.76175e-07
3.76395e-07
3.76738e-07
3.77038e-07
3.77306e-07
3.77473e-07
3.77542e-07
3.77557e-07
3.77611e-07
3.77768e-07
3.78074e-07
3.78548e-07
3.79156e-07
3.7982e-07
3.80443e-07
3.80931e-07
3.81184e-07
3.81212e-07
3.81142e-07
3.80995e-07
3.808e-07
3.80583e-07
3.80353e-07
3.80129e-07
3.79935e-07
3.79767e-07
3.79608e-07
3.79462e-07
3.79324e-07
3.79205e-07
3.79113e-07
3.79022e-07
3.78918e-07
3.7879e-07
3.78625e-07
3.78416e-07
3.78186e-07
3.77937e-07
3.77665e-07
3.77381e-07
3.77102e-07
3.76856e-07
3.76713e-07
3.76663e-07
3.76686e-07
3.76747e-07
3.76804e-07
3.76816e-07
3.76755e-07
3.76651e-07
3.76491e-07
3.76265e-07
3.75973e-07
3.75636e-07
3.7527e-07
3.74895e-07
3.74525e-07
3.74188e-07
3.73933e-07
3.73876e-07
3.74013e-07
3.74302e-07
3.74689e-07
3.75124e-07
3.75542e-07
3.75895e-07
3.76177e-07
3.76362e-07
3.76419e-07
3.76352e-07
3.76215e-07
3.76056e-07
3.75882e-07
3.75694e-07
3.75487e-07
3.75272e-07
3.75054e-07
3.74823e-07
3.74573e-07
3.74302e-07
3.74004e-07
3.73718e-07
3.73474e-07
3.73266e-07
3.73104e-07
3.73018e-07
3.72985e-07
3.72957e-07
3.72901e-07
3.72789e-07
3.72641e-07
3.7244e-07
3.72186e-07
3.71887e-07
3.71555e-07
3.71178e-07
3.70817e-07
3.70492e-07
3.70193e-07
3.70025e-07
3.70113e-07
3.70415e-07
3.70856e-07
3.71349e-07
3.71819e-07
3.72202e-07
3.72471e-07
3.72569e-07
3.72553e-07
3.72453e-07
3.72298e-07
3.72171e-07
3.72054e-07
3.71903e-07
3.71705e-07
3.71739e-07
3.71525e-07
4.72495e-08
1.11001e-07
2.25081e-07
3.16124e-07
3.55588e-07
3.6762e-07
3.7047e-07
3.7086e-07
3.70888e-07
3.71021e-07
3.7155e-07
3.7224e-07
3.73068e-07
3.73903e-07
3.7467e-07
3.75314e-07
3.75808e-07
3.76126e-07
3.76239e-07
3.76109e-07
3.75892e-07
3.75655e-07
3.75414e-07
3.75125e-07
3.74793e-07
3.74426e-07
3.74048e-07
3.73688e-07
3.7339e-07
3.73205e-07
3.73219e-07
3.73444e-07
3.7387e-07
3.74475e-07
3.7519e-07
3.75944e-07
3.76605e-07
3.7703e-07
3.77257e-07
3.77346e-07
3.77239e-07
3.76957e-07
3.7656e-07
3.76137e-07
3.75776e-07
3.75546e-07
3.7547e-07
3.75499e-07
3.75697e-07
3.76023e-07
3.76271e-07
3.76504e-07
3.76633e-07
3.7666e-07
3.76632e-07
3.76629e-07
3.76738e-07
3.7702e-07
3.77497e-07
3.78151e-07
3.78905e-07
3.79653e-07
3.80289e-07
3.8069e-07
3.80807e-07
3.80782e-07
3.80669e-07
3.80494e-07
3.80279e-07
3.80056e-07
3.79852e-07
3.7967e-07
3.79504e-07
3.7934e-07
3.79184e-07
3.79038e-07
3.78903e-07
3.788e-07
3.78701e-07
3.78584e-07
3.78434e-07
3.78232e-07
3.7799e-07
3.77722e-07
3.7742e-07
3.77094e-07
3.76762e-07
3.76436e-07
3.76151e-07
3.75988e-07
3.75942e-07
3.75984e-07
3.76073e-07
3.76156e-07
3.76181e-07
3.76113e-07
3.75989e-07
3.758e-07
3.75533e-07
3.75194e-07
3.74796e-07
3.74359e-07
3.73906e-07
3.73452e-07
3.73028e-07
3.72685e-07
3.72552e-07
3.72624e-07
3.72857e-07
3.73197e-07
3.7359e-07
3.73976e-07
3.74327e-07
3.74624e-07
3.74836e-07
3.74933e-07
3.74909e-07
3.74783e-07
3.74627e-07
3.74458e-07
3.74279e-07
3.74084e-07
3.73885e-07
3.73684e-07
3.73473e-07
3.73226e-07
3.72945e-07
3.72641e-07
3.72337e-07
3.72076e-07
3.71861e-07
3.71703e-07
3.71645e-07
3.71667e-07
3.71717e-07
3.71723e-07
3.71649e-07
3.7152e-07
3.71321e-07
3.71055e-07
3.70713e-07
3.70321e-07
3.69865e-07
3.69426e-07
3.69028e-07
3.68629e-07
3.68422e-07
3.6858e-07
3.69018e-07
3.69643e-07
3.70344e-07
3.7102e-07
3.71589e-07
3.71997e-07
3.72196e-07
3.72217e-07
3.72115e-07
3.71925e-07
3.71763e-07
3.71608e-07
3.71424e-07
3.71167e-07
3.71143e-07
3.70858e-07
4.60023e-08
1.06517e-07
2.18213e-07
3.11487e-07
3.53094e-07
3.65988e-07
3.68943e-07
3.69258e-07
3.69106e-07
3.69143e-07
3.69615e-07
3.70257e-07
3.71065e-07
3.71899e-07
3.72691e-07
3.73409e-07
3.74053e-07
3.74583e-07
3.7495e-07
3.75101e-07
3.75024e-07
3.74856e-07
3.74645e-07
3.74394e-07
3.74092e-07
3.73739e-07
3.7335e-07
3.72962e-07
3.72637e-07
3.72418e-07
3.72407e-07
3.72645e-07
3.73124e-07
3.73806e-07
3.7461e-07
3.75435e-07
3.76128e-07
3.76548e-07
3.76783e-07
3.76856e-07
3.767e-07
3.76353e-07
3.75877e-07
3.75373e-07
3.74948e-07
3.74652e-07
3.74491e-07
3.74428e-07
3.74587e-07
3.74901e-07
3.75182e-07
3.75451e-07
3.7558e-07
3.7557e-07
3.75474e-07
3.75385e-07
3.75407e-07
3.75618e-07
3.76067e-07
3.76757e-07
3.77616e-07
3.78529e-07
3.79365e-07
3.79961e-07
3.80234e-07
3.80255e-07
3.80176e-07
3.80015e-07
3.79816e-07
3.79601e-07
3.79405e-07
3.79239e-07
3.79081e-07
3.78916e-07
3.78754e-07
3.786e-07
3.7846e-07
3.78354e-07
3.78256e-07
3.78133e-07
3.77958e-07
3.77722e-07
3.77442e-07
3.77115e-07
3.76751e-07
3.76368e-07
3.75986e-07
3.75613e-07
3.75306e-07
3.75126e-07
3.75092e-07
3.75166e-07
3.75297e-07
3.75416e-07
3.75456e-07
3.7538e-07
3.75236e-07
3.75019e-07
3.74706e-07
3.74312e-07
3.73838e-07
3.73311e-07
3.7276e-07
3.72198e-07
3.71651e-07
3.71178e-07
3.70934e-07
3.70911e-07
3.71066e-07
3.71345e-07
3.71683e-07
3.72037e-07
3.72388e-07
3.72704e-07
3.72947e-07
3.73083e-07
3.73103e-07
3.73004e-07
3.72867e-07
3.72725e-07
3.72565e-07
3.72368e-07
3.7215e-07
3.7193e-07
3.71722e-07
3.71464e-07
3.71151e-07
3.70818e-07
3.70493e-07
3.70208e-07
3.69978e-07
3.69834e-07
3.69823e-07
3.69919e-07
3.70065e-07
3.70161e-07
3.70137e-07
3.70046e-07
3.69879e-07
3.6962e-07
3.69225e-07
3.68746e-07
3.68169e-07
3.67595e-07
3.67039e-07
3.66499e-07
3.66256e-07
3.66459e-07
3.67014e-07
3.67847e-07
3.68822e-07
3.69809e-07
3.70677e-07
3.71325e-07
3.71645e-07
3.71654e-07
3.71514e-07
3.71301e-07
3.71115e-07
3.7092e-07
3.70704e-07
3.70349e-07
3.70291e-07
3.69913e-07
4.46681e-08
1.01677e-07
2.1041e-07
3.05938e-07
3.49908e-07
3.63706e-07
3.66718e-07
3.66894e-07
3.66444e-07
3.66288e-07
3.66606e-07
3.67127e-07
3.6782e-07
3.68556e-07
3.69254e-07
3.69942e-07
3.7074e-07
3.71596e-07
3.7237e-07
3.72928e-07
3.73188e-07
3.73241e-07
3.73218e-07
3.73115e-07
3.7294e-07
3.7267e-07
3.72324e-07
3.71963e-07
3.71656e-07
3.71472e-07
3.71486e-07
3.71778e-07
3.7232e-07
3.73078e-07
3.73968e-07
3.74866e-07
3.75582e-07
3.76011e-07
3.76261e-07
3.76307e-07
3.76082e-07
3.75647e-07
3.75065e-07
3.74439e-07
3.73862e-07
3.73394e-07
3.73054e-07
3.72848e-07
3.73002e-07
3.73397e-07
3.73778e-07
3.7409e-07
3.74216e-07
3.74138e-07
3.73916e-07
3.73669e-07
3.73531e-07
3.73623e-07
3.74031e-07
3.7477e-07
3.75765e-07
3.76878e-07
3.77959e-07
3.78842e-07
3.79404e-07
3.79577e-07
3.79573e-07
3.79431e-07
3.79216e-07
3.78997e-07
3.78821e-07
3.78669e-07
3.78511e-07
3.78344e-07
3.78175e-07
3.78016e-07
3.77877e-07
3.77776e-07
3.77691e-07
3.77571e-07
3.77378e-07
3.77098e-07
3.7676e-07
3.76378e-07
3.75961e-07
3.7551e-07
3.7505e-07
3.74627e-07
3.743e-07
3.74124e-07
3.7412e-07
3.74242e-07
3.74434e-07
3.7461e-07
3.7468e-07
3.74598e-07
3.74432e-07
3.74174e-07
3.73795e-07
3.73314e-07
3.72737e-07
3.7209e-07
3.71407e-07
3.70701e-07
3.69996e-07
3.69363e-07
3.68986e-07
3.68845e-07
3.68888e-07
3.69058e-07
3.69284e-07
3.69546e-07
3.69821e-07
3.70085e-07
3.70283e-07
3.70394e-07
3.7041e-07
3.7034e-07
3.70243e-07
3.70186e-07
3.70134e-07
3.70047e-07
3.69898e-07
3.69693e-07
3.69435e-07
3.69148e-07
3.68805e-07
3.68426e-07
3.68058e-07
3.67738e-07
3.67482e-07
3.67324e-07
3.67334e-07
3.67485e-07
3.67697e-07
3.67846e-07
3.67842e-07
3.67769e-07
3.67615e-07
3.67322e-07
3.66832e-07
3.66201e-07
3.65429e-07
3.64605e-07
3.63772e-07
3.62968e-07
3.62531e-07
3.62606e-07
3.63176e-07
3.6415e-07
3.65383e-07
3.66739e-07
3.68089e-07
3.69291e-07
3.70161e-07
3.70576e-07
3.7061e-07
3.70363e-07
3.70107e-07
3.69828e-07
3.69589e-07
3.69176e-07
3.6907e-07
3.68609e-07
4.32559e-08
9.65311e-08
2.01661e-07
2.99308e-07
3.45785e-07
3.60561e-07
3.63599e-07
3.63438e-07
3.62496e-07
3.61925e-07
3.61855e-07
3.62004e-07
3.6224e-07
3.62441e-07
3.62562e-07
3.62797e-07
3.6378e-07
3.65405e-07
3.6724e-07
3.68789e-07
3.69822e-07
3.70353e-07
3.70638e-07
3.70791e-07
3.70862e-07
3.70803e-07
3.70597e-07
3.70315e-07
3.70036e-07
3.69858e-07
3.69897e-07
3.70321e-07
3.7108e-07
3.72088e-07
3.73197e-07
3.74218e-07
3.74962e-07
3.7543e-07
3.75713e-07
3.75717e-07
3.75391e-07
3.74811e-07
3.74041e-07
3.73173e-07
3.72326e-07
3.71566e-07
3.70925e-07
3.70486e-07
3.70571e-07
3.71007e-07
3.7151e-07
3.71867e-07
3.71926e-07
3.71719e-07
3.71301e-07
3.70811e-07
3.70424e-07
3.70332e-07
3.70639e-07
3.71356e-07
3.72406e-07
3.73648e-07
3.74909e-07
3.76088e-07
3.77043e-07
3.77633e-07
3.78004e-07
3.78195e-07
3.78198e-07
3.78092e-07
3.77959e-07
3.77831e-07
3.77688e-07
3.77541e-07
3.77393e-07
3.7726e-07
3.77148e-07
3.77075e-07
3.77021e-07
3.76908e-07
3.76678e-07
3.7635e-07
3.75953e-07
3.75512e-07
3.75031e-07
3.74516e-07
3.73977e-07
3.73497e-07
3.73136e-07
3.72973e-07
3.73017e-07
3.73211e-07
3.73485e-07
3.73724e-07
3.73816e-07
3.73718e-07
3.73517e-07
3.73198e-07
3.72739e-07
3.7215e-07
3.71447e-07
3.70653e-07
3.69799e-07
3.68901e-07
3.67976e-07
3.67115e-07
3.66481e-07
3.66061e-07
3.6581e-07
3.65648e-07
3.65519e-07
3.65434e-07
3.6539e-07
3.65408e-07
3.65449e-07
3.6553e-07
3.65653e-07
3.65786e-07
3.65944e-07
3.66184e-07
3.66409e-07
3.66528e-07
3.6652e-07
3.66393e-07
3.66135e-07
3.65772e-07
3.65321e-07
3.64877e-07
3.64478e-07
3.64134e-07
3.63847e-07
3.63654e-07
3.63667e-07
3.63867e-07
3.64156e-07
3.64381e-07
3.64434e-07
3.64405e-07
3.64272e-07
3.6395e-07
3.63363e-07
3.62522e-07
3.6147e-07
3.60255e-07
3.58994e-07
3.57753e-07
3.56868e-07
3.56463e-07
3.56635e-07
3.57434e-07
3.58791e-07
3.60541e-07
3.62444e-07
3.64307e-07
3.65917e-07
3.67121e-07
3.67961e-07
3.68349e-07
3.68376e-07
3.68186e-07
3.67804e-07
3.67143e-07
3.66737e-07
3.66036e-07
4.17744e-08
9.11348e-08
1.91968e-07
2.91372e-07
3.40291e-07
3.55897e-07
3.58638e-07
3.57445e-07
3.55129e-07
3.53071e-07
3.51409e-07
3.4986e-07
3.48184e-07
3.46004e-07
3.43864e-07
3.42447e-07
3.43444e-07
3.47249e-07
3.52641e-07
3.57809e-07
3.61765e-07
3.64331e-07
3.65945e-07
3.66949e-07
3.67564e-07
3.67913e-07
3.67987e-07
3.67849e-07
3.67621e-07
3.67412e-07
3.6738e-07
3.67843e-07
3.68854e-07
3.7021e-07
3.71694e-07
3.73047e-07
3.74018e-07
3.74661e-07
3.7503e-07
3.74995e-07
3.74522e-07
3.7371e-07
3.7262e-07
3.71357e-07
3.70075e-07
3.68833e-07
3.67684e-07
3.66809e-07
3.66615e-07
3.66862e-07
3.67182e-07
3.67123e-07
3.66616e-07
3.65922e-07
3.65061e-07
3.64066e-07
3.6317e-07
3.62642e-07
3.62626e-07
3.63014e-07
3.63687e-07
3.64628e-07
3.65687e-07
3.67233e-07
3.69345e-07
3.7158e-07
3.73525e-07
3.74904e-07
3.75688e-07
3.76057e-07
3.76185e-07
3.76192e-07
3.76135e-07
3.76043e-07
3.75944e-07
3.75862e-07
3.75812e-07
3.75819e-07
3.75853e-07
3.75826e-07
3.75654e-07
3.75354e-07
3.74945e-07
3.74456e-07
3.73904e-07
3.733e-07
3.72658e-07
3.72082e-07
3.71654e-07
3.71495e-07
3.71597e-07
3.71888e-07
3.72271e-07
3.72597e-07
3.72732e-07
3.72622e-07
3.72378e-07
3.71981e-07
3.71414e-07
3.7067e-07
3.69782e-07
3.68761e-07
3.6761e-07
3.66326e-07
3.64953e-07
3.63321e-07
3.61854e-07
3.60483e-07
3.59091e-07
3.57641e-07
3.5607e-07
3.54462e-07
3.5299e-07
3.51938e-07
3.51504e-07
3.51885e-07
3.52975e-07
3.54389e-07
3.5605e-07
3.5777e-07
3.59289e-07
3.60359e-07
3.60906e-07
3.60999e-07
3.60747e-07
3.60297e-07
3.5976e-07
3.59279e-07
3.58906e-07
3.58582e-07
3.58265e-07
3.58005e-07
3.57979e-07
3.58178e-07
3.58509e-07
3.58804e-07
3.58923e-07
3.58959e-07
3.58894e-07
3.58591e-07
3.57862e-07
3.56641e-07
3.54996e-07
3.52984e-07
3.50768e-07
3.48419e-07
3.4624e-07
3.44308e-07
3.43045e-07
3.42998e-07
3.44454e-07
3.47209e-07
3.50596e-07
3.54098e-07
3.5739e-07
3.60082e-07
3.6211e-07
3.63401e-07
3.64045e-07
3.64191e-07
3.63909e-07
3.63172e-07
3.62524e-07
3.61552e-07
4.02708e-08
8.54317e-08
1.81366e-07
2.81721e-07
3.32266e-07
3.47648e-07
3.48259e-07
3.4342e-07
3.36312e-07
3.28688e-07
3.20985e-07
3.13134e-07
3.04727e-07
2.95485e-07
2.86829e-07
2.80872e-07
2.8046e-07
2.88028e-07
3.03189e-07
3.20077e-07
3.34487e-07
3.44967e-07
3.52042e-07
3.56946e-07
3.60173e-07
3.62101e-07
3.63114e-07
3.63569e-07
3.63702e-07
3.63677e-07
3.6369e-07
3.64197e-07
3.65428e-07
3.67225e-07
3.69168e-07
3.7086e-07
3.72121e-07
3.73062e-07
3.73678e-07
3.73753e-07
3.73143e-07
3.71957e-07
3.70313e-07
3.68349e-07
3.66139e-07
3.63697e-07
3.61053e-07
3.58565e-07
3.56715e-07
3.5531e-07
3.53426e-07
3.49858e-07
3.46007e-07
3.43795e-07
3.42356e-07
3.4084e-07
3.38789e-07
3.37055e-07
3.35445e-07
3.33266e-07
3.30748e-07
3.29024e-07
3.27941e-07
3.29525e-07
3.35809e-07
3.45526e-07
3.55535e-07
3.63569e-07
3.68683e-07
3.71383e-07
3.72589e-07
3.73049e-07
3.73155e-07
3.73145e-07
3.73126e-07
3.73152e-07
3.73234e-07
3.73393e-07
3.73607e-07
3.7379e-07
3.73833e-07
3.73695e-07
3.7336e-07
3.72863e-07
3.72221e-07
3.71447e-07
3.70568e-07
3.69728e-07
3.69154e-07
3.69027e-07
3.69281e-07
3.69774e-07
3.70353e-07
3.70817e-07
3.71012e-07
3.70868e-07
3.70533e-07
3.69992e-07
3.69201e-07
3.68141e-07
3.66858e-07
3.65277e-07
3.63206e-07
3.60629e-07
3.57482e-07
3.53018e-07
3.48057e-07
3.42739e-07
3.3686e-07
3.3014e-07
3.22454e-07
3.14431e-07
3.07213e-07
3.02265e-07
3.00558e-07
3.03396e-07
3.09244e-07
3.16417e-07
3.24374e-07
3.32573e-07
3.39955e-07
3.45587e-07
3.49157e-07
3.5092e-07
3.51339e-07
3.50933e-07
3.50273e-07
3.49801e-07
3.49582e-07
3.49407e-07
3.49114e-07
3.48704e-07
3.48485e-07
3.48523e-07
3.48781e-07
3.49094e-07
3.49232e-07
3.49276e-07
3.49284e-07
3.49039e-07
3.48177e-07
3.46362e-07
3.4358e-07
3.39981e-07
3.35817e-07
3.31087e-07
3.25821e-07
3.19988e-07
3.14848e-07
3.12228e-07
3.13389e-07
3.17993e-07
3.24463e-07
3.31769e-07
3.39159e-07
3.4558e-07
3.5046e-07
3.5364e-07
3.55468e-07
3.56276e-07
3.56252e-07
3.55457e-07
3.54319e-07
3.52678e-07
3.92916e-08
8.15033e-08
1.74022e-07
2.74644e-07
3.25855e-07
3.40521e-07
3.38912e-07
3.30352e-07
3.184e-07
3.04628e-07
2.88905e-07
2.70465e-07
2.48343e-07
2.23195e-07
1.99138e-07
1.80901e-07
1.73682e-07
1.80079e-07
2.0429e-07
2.38225e-07
2.71511e-07
2.98218e-07
3.18038e-07
3.33303e-07
3.44357e-07
3.51272e-07
3.55119e-07
3.57119e-07
3.58118e-07
3.5859e-07
3.58849e-07
3.59615e-07
3.61329e-07
3.63682e-07
3.66378e-07
3.68766e-07
3.70415e-07
3.71647e-07
3.72509e-07
3.72702e-07
3.72002e-07
3.70497e-07
3.68376e-07
3.65787e-07
3.62732e-07
3.5908e-07
3.5482e-07
3.50245e-07
3.45682e-07
3.40664e-07
3.33734e-07
3.22691e-07
3.13174e-07
3.09484e-07
3.08966e-07
3.0755e-07
3.03445e-07
2.97966e-07
2.89629e-07
2.75374e-07
2.58337e-07
2.44993e-07
2.38023e-07
2.38937e-07
2.5176e-07
2.7577e-07
3.04146e-07
3.29848e-07
3.4842e-07
3.59488e-07
3.64966e-07
3.67455e-07
3.6856e-07
3.69074e-07
3.69385e-07
3.69706e-07
3.70123e-07
3.70615e-07
3.71166e-07
3.71699e-07
3.72084e-07
3.72194e-07
3.71972e-07
3.71499e-07
3.70795e-07
3.69866e-07
3.68753e-07
3.67626e-07
3.66927e-07
3.66838e-07
3.67286e-07
3.68014e-07
3.68783e-07
3.69361e-07
3.69587e-07
3.69399e-07
3.68974e-07
3.6829e-07
3.67287e-07
3.65927e-07
3.64261e-07
3.62126e-07
3.59101e-07
3.55155e-07
3.50029e-07
3.42401e-07
3.33063e-07
3.22047e-07
3.0839e-07
2.90497e-07
2.67435e-07
2.40848e-07
2.15737e-07
1.9814e-07
1.92591e-07
2.00795e-07
2.15511e-07
2.33186e-07
2.52683e-07
2.74335e-07
2.95116e-07
3.12473e-07
3.2512e-07
3.33132e-07
3.37367e-07
3.38996e-07
3.39329e-07
3.39428e-07
3.39549e-07
3.39491e-07
3.39057e-07
3.38304e-07
3.37766e-07
3.37717e-07
3.38231e-07
3.39073e-07
3.39793e-07
3.40349e-07
3.40747e-07
3.40779e-07
3.39911e-07
3.37635e-07
3.33843e-07
3.28748e-07
3.22561e-07
3.14956e-07
3.05208e-07
2.92361e-07
2.78319e-07
2.67781e-07
2.65823e-07
2.73024e-07
2.84907e-07