/*--------------------------------*- C++ -*----------------------------------*\
| =========                 |                                                 |
| \\      /  F ield         | OpenFOAM: The Open Source CFD Toolbox           |
|  \\    /   O peration     | Version:  v1912                                 |
|   \\  /    A nd           | Website:  www.openfoam.com                      |
|    \\/     M anipulation  |                                                 |
\*---------------------------------------------------------------------------*/
FoamFile
{
    version     2.0;
    format      ascii;
    class       volVectorField;
    location    "30";
    object      U;
}
// * * * * * * * * * * * * * * * * * * * * * * * * * * * * * * * * * * * * * //

dimensions      [0 1 -1 0 0 0 0];


internalField   nonuniform List<vector> 
14268
(
(1.04029 -0.000299422 0)
(1.02771 0.0095752 0)
(0.964633 0.0195445 0)
(0.860533 0.0289098 0)
(0.719409 0.0370301 0)
(0.547618 0.0433869 0)
(0.353287 0.0476467 0)
(0.145647 0.0496605 0)
(-0.0661006 0.0494747 0)
(-0.273029 0.0473177 0)
(-0.466873 0.0434 0)
(-0.640903 0.0380519 0)
(-0.789757 0.0316186 0)
(-0.909498 0.0244334 0)
(-0.997556 0.0167996 0)
(-1.05259 0.00898929 0)
(-1.07439 0.0012726 0)
(-1.06377 -0.00617345 0)
(-1.02246 -0.013074 0)
(-0.953153 -0.0192325 0)
(-0.859388 -0.0244664 0)
(-0.745406 -0.0286299 0)
(-0.615963 -0.0316375 0)
(-0.47601 -0.0334845 0)
(-0.330336 -0.0342587 0)
(-0.183125 -0.0341385 0)
(-0.0377317 -0.0333776 0)
(0.103305 -0.0323298 0)
(0.239232 -0.03112 0)
(0.370552 -0.0299929 0)
(0.497727 -0.0291189 0)
(0.621624 -0.0284522 0)
(0.742675 -0.0277996 0)
(0.860235 -0.0268509 0)
(0.972141 -0.0252172 0)
(1.07456 -0.0224851 0)
(1.16217 -0.0182987 0)
(1.22864 -0.0125295 0)
(1.26739 -0.00533123 0)
(1.27247 0.00311172 0)
(1.23976 0.0122052 0)
(1.16747 0.0213574 0)
(1.05692 0.0298301 0)
(0.912528 0.0369335 0)
(0.741444 0.0421221 0)
(0.552847 0.0450206 0)
(0.356667 0.0454758 0)
(0.162245 0.0437927 0)
(-0.0214005 0.0405344 0)
(-0.187974 0.0363171 0)
(-0.335175 0.0316586 0)
(-0.462683 0.0272189 0)
(-0.57247 0.0234386 0)
(-0.668129 0.0205551 0)
(-0.75372 0.0186614 0)
(-0.832702 0.0175088 0)
(-0.907099 0.0166266 0)
(-0.976911 0.0154854 0)
(-1.03999 0.0135646 0)
(-1.09243 0.0105207 0)
(-1.12918 0.00628762 0)
(-1.14511 0.000901336 0)
(-1.13588 -0.00526761 0)
(-1.09878 -0.0117602 0)
(-1.03364 -0.0180152 0)
(-0.942675 -0.0234748 0)
(-0.830406 -0.0276774 0)
(-0.703099 -0.0303278 0)
(-0.567777 -0.0312962 0)
(-0.431339 -0.0306825 0)
(-0.299832 -0.0288474 0)
(-0.177854 -0.0262193 0)
(-0.0674499 -0.0232404 0)
(0.0291146 -0.0204397 0)
(0.11263 -0.0179044 0)
(0.186794 -0.0158416 0)
(0.253027 -0.0142676 0)
(0.313332 -0.0130753 0)
(0.369068 -0.0121072 0)
(0.42074 -0.0111678 0)
(0.468026 -0.0100755 0)
(0.510007 -0.00873234 0)
(0.545558 -0.00714207 0)
(0.5738 -0.00540297 0)
(0.594486 -0.0036911 0)
(0.608221 -0.00223977 0)
(0.616473 -0.0012612 0)
(0.621438 -0.000852567 0)
(0.625716 -0.00103062 0)
(0.631793 -0.00170878 0)
(0.641558 -0.00270167 0)
(0.655824 -0.00374253 0)
(0.67402 -0.00451074 0)
(0.694096 -0.0046383 0)
(0.7128 -0.00382103 0)
(0.726 -0.00199642 0)
(0.728898 0.00088815 0)
(0.716928 0.00467584 0)
(0.686055 0.00923136 0)
(0.633474 0.0142383 0)
(0.557866 0.019336 0)
(0.459574 0.024148 0)
(0.340616 0.0283231 0)
(0.204531 0.0315704 0)
(0.055904 0.0336945 0)
(-0.0998499 0.0345899 0)
(-0.256937 0.0341848 0)
(-0.409675 0.0325757 0)
(-0.552741 0.029878 0)
(-0.681529 0.0262493 0)
(-0.792078 0.0218778 0)
(-0.881422 0.0169524 0)
(-0.947421 0.0116571 0)
(-0.988589 0.00624499 0)
(-1.00472 0.000698962 0)
(-0.995795 -0.00466328 0)
(-0.962892 -0.0096756 0)
(-0.907975 -0.0141958 0)
(-0.833655 -0.0180547 0)
(-0.743334 -0.0210872 0)
(-0.641261 -0.0231537 0)
(-0.532083 -0.0241425 0)
(-0.420286 -0.024077 0)
(-0.310192 -0.0230444 0)
(-0.206227 -0.0211985 0)
(-0.111645 -0.0187779 0)
(-0.0286484 -0.0160301 0)
(0.0403469 -0.0135386 0)
(0.0969623 -0.0111768 0)
(0.144632 -0.00935024 0)
(0.185339 -0.00816882 0)
(0.222218 -0.00762569 0)
(0.257992 -0.0075947 0)
(0.294551 -0.00789537 0)
(0.33268 -0.00820512 0)
(0.371776 -0.00820768 0)
(0.409797 -0.00761124 0)
(0.443397 -0.00620407 0)
(0.46849 -0.00390688 0)
(0.48074 -0.000780565 0)
(0.476654 0.00289524 0)
(0.454299 0.006783 0)
(0.413221 0.0105103 0)
(0.355324 0.0135986 0)
(0.284474 0.0156677 0)
(0.20639 0.0164463 0)
(0.127625 0.0157951 0)
(0.054743 0.0137 0)
(-0.00544386 0.0104406 0)
(-0.0471907 0.00620284 0)
(-0.0669714 0.00143208 0)
(-0.0629918 -0.00339358 0)
(-0.0366945 -0.00775534 0)
(0.009968 -0.0112043 0)
(0.0715668 -0.0136337 0)
(0.141769 -0.0147938 0)
(0.21531 -0.0147158 0)
(0.286137 -0.013486 0)
(0.348913 -0.0112547 0)
(0.399009 -0.00821801 0)
(0.432886 -0.00457715 0)
(0.447766 -0.000531964 0)
(0.442451 0.00375826 0)
(0.415551 0.00815003 0)
(1.04654 -0.000695416 0)
(1.03455 0.0250999 0)
(0.971296 0.0510752 0)
(0.866556 0.0754382 0)
(0.724392 0.0965454 0)
(0.551268 0.113082 0)
(0.355439 0.12419 0)
(0.14627 0.129474 0)
(-0.0669061 0.129017 0)
(-0.275108 0.123376 0)
(-0.470041 0.113157 0)
(-0.644924 0.099213 0)
(-0.7944 0.0824414 0)
(-0.914547 0.0637083 0)
(-1.00282 0.0438056 0)
(-1.05788 0.0234414 0)
(-1.07956 0.0032854 0)
(-1.06866 -0.0161239 0)
(-1.02691 -0.0341339 0)
(-0.957044 -0.0502208 0)
(-0.862599 -0.0639029 0)
(-0.747855 -0.0747955 0)
(-0.617617 -0.0826708 0)
(-0.476896 -0.0875122 0)
(-0.330545 -0.0895451 0)
(-0.182807 -0.0892333 0)
(-0.0371008 -0.0872326 0)
(0.104083 -0.0844281 0)
(0.240029 -0.0812553 0)
(0.371218 -0.0783582 0)
(0.498214 -0.0760999 0)
(0.622016 -0.0743719 0)
(0.743148 -0.0726777 0)
(0.861035 -0.0702012 0)
(0.973552 -0.0659239 0)
(1.07686 -0.0587934 0)
(1.16552 -0.0479418 0)
(1.23305 -0.0329859 0)
(1.27273 -0.0141068 0)
(1.27849 0.0079991 0)
(1.24605 0.0318757 0)
(1.17355 0.0559356 0)
(1.0623 0.0782261 0)
(0.916773 0.0969164 0)
(0.744236 0.110521 0)
(0.553997 0.118099 0)
(0.356229 0.119392 0)
(0.160526 0.115071 0)
(-0.0239856 0.106486 0)
(-0.191033 0.0953192 0)
(-0.338301 0.0830324 0)
(-0.46549 0.0713267 0)
(-0.57472 0.0613977 0)
(-0.669706 0.0539597 0)
(-0.754678 0.0490602 0)
(-0.833298 0.0460325 0)
(-0.907689 0.043701 0)
(-0.977868 0.0407039 0)
(-1.04162 0.0357306 0)
(-1.09488 0.0278566 0)
(-1.13247 0.0166862 0)
(-1.14907 0.0025368 0)
(-1.14023 -0.0137669 0)
(-1.10318 -0.030931 0)
(-1.03769 -0.0474857 0)
(-0.946021 -0.0619455 0)
(-0.83278 -0.0730798 0)
(-0.704352 -0.0801001 0)
(-0.567898 -0.0826809 0)
(-0.43049 -0.0811309 0)
(-0.298293 -0.0763291 0)
(-0.175931 -0.0693975 0)
(-0.0654813 -0.0615252 0)
(0.0309147 -0.0540032 0)
(0.114169 -0.0472873 0)
(0.187993 -0.0418238 0)
(0.253921 -0.0376469 0)
(0.314017 -0.034546 0)
(0.369668 -0.032061 0)
(0.421391 -0.0296278 0)
(0.468828 -0.0267712 0)
(0.510992 -0.0232332 0)
(0.546691 -0.0190278 0)
(0.574985 -0.014428 0)
(0.595576 -0.00990763 0)
(0.609057 -0.00605269 0)
(0.616945 -0.00340228 0)
(0.621505 -0.00226716 0)
(0.625401 -0.00271314 0)
(0.631189 -0.00451101 0)
(0.640819 -0.00715681 0)
(0.655157 -0.00992761 0)
(0.673665 -0.011952 0)
(0.694291 -0.0122998 0)
(0.713674 -0.0102317 0)
(0.727584 -0.00543415 0)
(0.731172 0.00219156 0)
(0.719785 0.012305 0)
(0.689337 0.0244951 0)
(0.636954 0.0379144 0)
(0.561292 0.0515966 0)
(0.462696 0.0645341 0)
(0.343214 0.0757849 0)
(0.206439 0.0845641 0)
(0.057019 0.090324 0)
(-0.0995917 0.0928291 0)
(-0.257528 0.0918176 0)
(-0.411044 0.08757 0)
(-0.554795 0.0803929 0)
(-0.684154 0.0707076 0)
(-0.795149 0.0590147 0)
(-0.884815 0.0458162 0)
(-0.951005 0.0315986 0)
(-0.992288 0.0170054 0)
(-1.00842 0.00209728 0)
(-0.999317 -0.0123756 0)
(-0.966161 -0.0259261 0)
(-0.910875 -0.0381707 0)
(-0.836067 -0.0486475 0)
(-0.745149 -0.0569035 0)
(-0.642387 -0.0625591 0)
(-0.532484 -0.0653641 0)
(-0.419997 -0.0653089 0)
(-0.30929 -0.0625971 0)
(-0.204845 -0.0576601 0)
(-0.109941 -0.0511443 0)
(-0.026921 -0.0437035 0)
(0.0419504 -0.0368901 0)
(0.0983456 -0.0304608 0)
(0.145611 -0.025473 0)
(0.185873 -0.0222367 0)
(0.222351 -0.0207393 0)
(0.257824 -0.0206914 0)
(0.294254 -0.0215815 0)
(0.332477 -0.022507 0)
(0.371881 -0.0225911 0)
(0.410391 -0.0210507 0)
(0.44459 -0.0172915 0)
(0.47029 -0.0110794 0)
(0.48306 -0.00255883 0)
(0.479276 0.00754342 0)
(0.456974 0.01825 0)
(0.415658 0.0285782 0)
(0.357239 0.0372135 0)
(0.285632 0.0431007 0)
(0.206635 0.0454686 0)
(0.126877 0.0439421 0)
(0.0530725 0.0384354 0)
(-0.00789972 0.0295443 0)
(-0.0502328 0.017946 0)
(-0.070285 0.00476473 0)
(-0.0662375 -0.00865735 0)
(-0.0395263 -0.0209498 0)
(0.00775256 -0.0307902 0)
(0.0701093 -0.0378479 0)
(0.14116 -0.0414247 0)
(0.21552 -0.0415304 0)
(0.287099 -0.038403 0)
(0.350526 -0.0324344 0)
(0.401153 -0.0241569 0)
(0.435434 -0.0141278 0)
(0.450639 -0.0028927 0)
(0.445522 0.00884525 0)
(0.418721 0.0211182 0)
(1.0587 -0.000936973 0)
(1.04764 0.0411372 0)
(0.984003 0.0834947 0)
(0.878018 0.123184 0)
(0.733868 0.157538 0)
(0.558219 0.184449 0)
(0.359555 0.20253 0)
(0.14747 0.211156 0)
(-0.0684672 0.210418 0)
(-0.279128 0.201148 0)
(-0.476137 0.184434 0)
(-0.652655 0.161662 0)
(-0.803322 0.134294 0)
(-0.924244 0.103738 0)
(-1.01291 0.0712858 0)
(-1.06805 0.0380946 0)
(-1.08948 0.00520135 0)
(-1.07805 -0.026425 0)
(-1.03547 -0.0557979 0)
(-0.964524 -0.0820527 0)
(-0.868774 -0.104394 0)
(-0.752567 -0.122186 0)
(-0.620798 -0.135046 0)
(-0.478595 -0.142939 0)
(-0.330936 -0.146228 0)
(-0.182175 -0.145668 0)
(-0.0358296 -0.142326 0)
(0.105637 -0.137579 0)
(0.241566 -0.132348 0)
(0.37249 -0.127669 0)
(0.499165 -0.12403 0)
(0.622796 -0.12127 0)
(0.744093 -0.118585 0)
(0.86262 -0.114628 0)
(0.976309 -0.107722 0)
(1.08127 -0.0961645 0)
(1.17192 -0.0785892 0)
(1.24153 -0.0543014 0)
(1.28307 -0.0234359 0)
(1.29015 0.0127434 0)
(1.25824 0.0519449 0)
(1.18535 0.0915086 0)
(1.07274 0.128184 0)
(0.924987 0.158926 0)
(0.749595 0.181254 0)
(0.556225 0.193662 0)
(0.355433 0.195866 0)
(0.157186 0.188828 0)
(-0.0290998 0.174598 0)
(-0.197079 0.156005 0)
(-0.344447 0.135668 0)
(-0.470987 0.116344 0)
(-0.57906 0.100105 0)
(-0.672715 0.0880974 0)
(-0.756555 0.0802174 0)
(-0.834518 0.0753487 0)
(-0.908897 0.0716131 0)
(-0.979749 0.0667891 0)
(-1.04475 0.058773 0)
(-1.09963 0.0460061 0)
(-1.13888 0.0277207 0)
(-1.15682 0.00450596 0)
(-1.14878 -0.0224273 0)
(-1.11182 -0.0508009 0)
(-1.04564 -0.0781893 0)
(-0.952572 -0.102112 0)
(-0.837409 -0.120514 0)
(-0.706778 -0.132058 0)
(-0.568131 -0.13629 0)
(-0.428836 -0.133766 0)
(-0.295261 -0.12584 0)
(-0.172122 -0.114357 0)
(-0.0615165 -0.101315 0)
(0.0345613 -0.0886901 0)
(0.117245 -0.0775705 0)
(0.190394 -0.0685445 0)
(0.255694 -0.0617248 0)
(0.315341 -0.0567594 0)
(0.370828 -0.0528032 0)
(0.422668 -0.0488948 0)
(0.470411 -0.0442511 0)
(0.512946 -0.0384457 0)
(0.548937 -0.0315055 0)
(0.577323 -0.0238972 0)
(0.597731 -0.0164174 0)
(0.610741 -0.0100092 0)
(0.61793 -0.0055457 0)
(0.621679 -0.00360724 0)
(0.6248 -0.00433114 0)
(0.630003 -0.0073383 0)
(0.639373 -0.0117754 0)
(0.653869 -0.0164173 0)
(0.672999 -0.0197757 0)
(0.694658 -0.0204307 0)
(0.715363 -0.0171807 0)
(0.730712 -0.00933728 0)
(0.735709 0.00324969 0)
(0.725524 0.0200909 0)
(0.695937 0.0404115 0)
(0.643952 0.0628157 0)
(0.568174 0.0856758 0)
(0.468958 0.107305 0)
(0.348408 0.126124 0)
(0.210219 0.140817 0)
(0.0591868 0.150446 0)
(-0.0991613 0.154682 0)
(-0.258834 0.153028 0)
(-0.413933 0.14597 0)
(-0.559079 0.134017 0)
(-0.689598 0.117875 0)
(-0.801497 0.0983748 0)
(-0.891813 0.076352 0)
(-0.958393 0.0526151 0)
(-0.999865 0.0281471 0)
(-1.01594 0.00335254 0)
(-1.00649 -0.0208158 0)
(-0.972797 -0.0434637 0)
(-0.916729 -0.0639406 0)
(-0.840902 -0.0814681 0)
(-0.748747 -0.0952785 0)
(-0.644593 -0.104735 0)
(-0.533224 -0.109481 0)
(-0.419305 -0.109429 0)
(-0.307328 -0.104881 0)
(-0.201894 -0.0965852 0)
(-0.106337 -0.0856262 0)
(-0.023227 -0.0731384 0)
(0.0453846 -0.0615301 0)
(0.101273 -0.0507293 0)
(0.147695 -0.0423473 0)
(0.187034 -0.0369276 0)
(0.222662 -0.0344529 0)
(0.257496 -0.0345187 0)
(0.29367 -0.036165 0)
(0.332114 -0.0378694 0)
(0.372181 -0.0381081 0)
(0.411715 -0.0355886 0)
(0.447165 -0.0292933 0)
(0.474125 -0.0188193 0)
(0.487968 -0.0044218 0)
(0.484793 0.0127297 0)
(0.462555 0.0308858 0)
(0.420674 0.0484217 0)
(0.36108 0.0630713 0)
(0.287803 0.0730294 0)
(0.206841 0.0769837 0)
(0.125007 0.0743594 0)
(0.0492437 0.0650442 0)
(-0.0133409 0.049826 0)
(-0.0567727 0.0300537 0)
(-0.0772588 0.00767846 0)
(-0.0729595 -0.0150929 0)
(-0.0452979 -0.0358761 0)
(0.00337427 -0.0525115 0)
(0.0673923 -0.0643217 0)
(0.140267 -0.070242 0)
(0.216379 -0.0702659 0)
(0.289536 -0.0648136 0)
(0.354301 -0.0545631 0)
(0.405984 -0.0404273 0)
(0.441042 -0.0233527 0)
(0.456721 -0.00425944 0)
(0.451861 0.0156852 0)
(0.425166 0.036416 0)
(1.07689 -0.00156573 0)
(1.06703 0.0570496 0)
(1.00285 0.116146 0)
(0.895009 0.17151 0)
(0.747903 0.219394 0)
(0.568497 0.256849 0)
(0.365623 0.281947 0)
(0.149218 0.293856 0)
(-0.0708202 0.292723 0)
(-0.28513 0.279669 0)
(-0.485207 0.256279 0)
(-0.664134 0.224499 0)
(-0.816551 0.18637 0)
(-0.93861 0.143853 0)
(-1.02786 0.0987366 0)
(-1.08309 0.052627 0)
(-1.10417 0.00692951 0)
(-1.09193 -0.0369999 0)
(-1.04814 -0.0778058 0)
(-0.975593 -0.114289 0)
(-0.87791 -0.145332 0)
(-0.759529 -0.170035 0)
(-0.625483 -0.187851 0)
(-0.481074 -0.198716 0)
(-0.331464 -0.203133 0)
(-0.181177 -0.202161 0)
(-0.0338723 -0.197299 0)
(0.108004 -0.190449 0)
(0.243869 -0.183037 0)
(0.374374 -0.176498 0)
(0.500549 -0.171503 0)
(0.623901 -0.167836 0)
(0.745423 -0.164372 0)
(0.864886 -0.159205 0)
(0.980312 -0.149958 0)
(1.08774 -0.134213 0)
(1.18136 -0.110017 0)
(1.25407 -0.0763531 0)
(1.29839 -0.03346 0)
(1.30747 0.0170029 0)
(1.2764 0.0718107 0)
(1.20293 0.127192 0)
(1.08829 0.178555 0)
(0.937214 0.221589 0)
(0.757564 0.252813 0)
(0.559517 0.270099 0)
(0.354205 0.273039 0)
(0.152139 0.262979 0)
(-0.0368275 0.242761 0)
(-0.206192 0.216363 0)
(-0.353668 0.187641 0)
(-0.479176 0.160488 0)
(-0.585474 0.137879 0)
(-0.677129 0.121293 0)
(-0.759262 0.110596 0)
(-0.836233 0.104193 0)
(-0.910593 0.0994148 0)
(-0.982454 0.0930999 0)
(-1.04933 0.0822622 0)
(-1.10663 0.0646794 0)
(-1.14837 0.0393892 0)
(-1.16836 0.00703892 0)
(-1.16155 -0.0306923 0)
(-1.12472 -0.0705476 0)
(-1.05751 -0.109024 0)
(-0.962346 -0.142603 0)
(-0.844285 -0.168367 0)
(-0.710347 -0.184422 0)
(-0.568431 -0.190209 0)
(-0.426319 -0.18651 0)
(-0.29068 -0.175216 0)
(-0.166384 -0.158937 0)
(-0.0555448 -0.140505 0)
(0.0400389 -0.122689 0)
(0.121838 -0.107102 0)
(0.193941 -0.094538 0)
(0.258265 -0.085236 0)
(0.317245 -0.078555 0)
(0.372503 -0.0732587 0)
(0.424528 -0.0679932 0)
(0.472747 -0.061641 0)
(0.515851 -0.0535932 0)
(0.552294 -0.0438881 0)
(0.580828 -0.033191 0)
(0.60097 -0.0226394 0)
(0.613279 -0.0135806 0)
(0.619418 -0.00725986 0)
(0.62194 -0.00452204 0)
(0.623886 -0.00557827 0)
(0.628199 -0.00990276 0)
(0.637169 -0.016287 0)
(0.651906 -0.022981 0)
(0.671951 -0.0278855 0)
(0.695133 -0.0290479 0)
(0.717817 -0.0247444 0)
(0.735332 -0.0139391 0)
(0.742462 0.00361601 0)
(0.734084 0.0271702 0)
(0.705786 0.0556681 0)
(0.6544 0.087114 0)
(0.578449 0.11921 0)
(0.478302 0.149578 0)
(0.35615 0.175997 0)
(0.215842 0.196612 0)
(0.0624 0.210098 0)
(-0.0985422 0.216033 0)
(-0.260809 0.213708 0)
(-0.418265 0.203815 0)
(-0.565484 0.187084 0)
(-0.697722 0.164506 0)
(-0.810958 0.137253 0)
(-0.902232 0.106491 0)
(-0.96941 0.0733514 0)
(-1.01113 0.0391132 0)
(-1.0271 0.00456159 0)
(-1.01716 -0.0291603 0)
(-0.982664 -0.0607952 0)
(-0.925437 -0.0894166 0)
(-0.848093 -0.113931 0)
(-0.754091 -0.133251 0)
(-0.647859 -0.14647 0)
(-0.534303 -0.153103 0)
(-0.418239 -0.153 0)
(-0.304358 -0.146564 0)
(-0.197444 -0.134849 0)
(-0.100922 -0.119372 0)
(-0.0176626 -0.101795 0)
(0.050557 -0.0852811 0)
(0.105658 -0.0700844 0)
(0.150812 -0.0583049 0)
(0.188757 -0.0507332 0)
(0.223083 -0.0473808 0)
(0.256937 -0.0477232 0)
(0.292721 -0.0502922 0)
(0.331493 -0.0529878 0)
(0.372555 -0.0536073 0)
(0.413625 -0.0503042 0)
(0.450955 -0.0416389 0)
(0.47981 -0.0270244 0)
(0.495271 -0.00682166 0)
(0.493028 0.0173962 0)
(0.470907 0.0430192 0)
(0.428198 0.0678439 0)
(0.366864 0.088618 0)
(0.291105 0.102779 0)
(0.207216 0.108456 0)
(0.122293 0.104852 0)
(0.0435908 0.0918556 0)
(-0.0214363 0.0704217 0)
(-0.0665279 0.0425101 0)
(-0.0876852 0.0109595 0)
(-0.0830289 -0.0211583 0)
(-0.0539295 -0.0504764 0)
(-0.00318523 -0.0739969 0)
(0.063305 -0.0906068 0)
(0.138871 -0.098928 0)
(0.217565 -0.0989775 0)
(0.293047 -0.0913458 0)
(0.359777 -0.0769892 0)
(0.413015 -0.0572052 0)
(0.449223 -0.0333461 0)
(0.465722 -0.00668174 0)
(0.461297 0.0211904 0)
(0.434771 0.0501382 0)
(1.10132 -0.00289696 0)
(1.09292 0.0728698 0)
(1.02802 0.1493 0)
(0.917686 0.220872 0)
(0.766609 0.282702 0)
(0.582162 0.330972 0)
(0.373653 0.363202 0)
(0.151481 0.378351 0)
(-0.0740282 0.376667 0)
(-0.293197 0.359598 0)
(-0.497339 0.329254 0)
(-0.679448 0.288179 0)
(-0.83417 0.239017 0)
(-0.957717 0.184294 0)
(-1.04773 0.126296 0)
(-1.10308 0.0670662 0)
(-1.12367 0.00839189 0)
(-1.11036 -0.0480085 0)
(-1.06497 -0.100411 0)
(-0.990294 -0.147272 0)
(-0.890038 -0.187138 0)
(-0.768754 -0.218823 0)
(-0.63166 -0.241596 0)
(-0.484293 -0.255357 0)
(-0.332069 -0.260745 0)
(-0.179737 -0.25914 0)
(-0.0311477 -0.252504 0)
(0.111254 -0.243307 0)
(0.246986 -0.233525 0)
(0.376879 -0.225029 0)
(0.502332 -0.218709 0)
(0.625257 -0.214302 0)
(0.74703 -0.210339 0)
(0.867714 -0.204315 0)
(0.985449 -0.193087 0)
(1.09618 -0.173449 0)
(1.1938 -0.142795 0)
(1.27071 -0.0997381 0)
(1.31881 -0.044567 0)
(1.33062 0.0206081 0)
(1.3007 0.0915937 0)
(1.22649 0.163413 0)
(1.10913 0.230066 0)
(0.953582 0.285887 0)
(0.7682 0.3263 0)
(0.563849 0.348512 0)
(0.352445 0.351984 0)
(0.14523 0.338489 0)
(-0.0473548 0.311746 0)
(-0.218559 0.27694 0)
(-0.366113 0.239288 0)
(-0.490155 0.203928 0)
(-0.593994 0.174727 0)
(-0.682904 0.153585 0)
(-0.762695 0.140306 0)
(-0.8383 0.132761 0)
(-0.912627 0.127402 0)
(-0.985856 0.120035 0)
(-1.05529 0.1067 0)
(-1.11586 0.0844604 0)
(-1.16097 0.0520645 0)
(-1.18379 0.0103136 0)
(-1.17869 -0.0386137 0)
(-1.14207 -0.0904388 0)
(-1.07347 -0.140504 0)
(-0.97545 -0.184149 0)
(-0.853461 -0.217527 0)
(-0.71506 -0.238183 0)
(-0.568741 -0.245421 0)
(-0.422837 -0.240279 0)
(-0.284426 -0.225249 0)
(-0.15859 -0.203771 0)
(-0.0474672 -0.179462 0)
(0.0474102 -0.156461 0)
(0.127973 -0.136132 0)
(0.198609 -0.12004 0)
(0.261586 -0.108367 0)
(0.319671 -0.100139 0)
(0.374633 -0.0936994 0)
(0.426931 -0.0872405 0)
(0.475819 -0.0792706 0)
(0.519724 -0.068978 0)
(0.556803 -0.0564139 0)
(0.585561 -0.0424657 0)
(0.605354 -0.0286499 0)
(0.616721 -0.0167633 0)
(0.621434 -0.00846388 0)
(0.622285 -0.00490164 0)
(0.622621 -0.00636293 0)
(0.625709 -0.0121666 0)
(0.634122 -0.0207528 0)
(0.649166 -0.0297788 0)
(0.670428 -0.0365457 0)
(0.695651 -0.038444 0)
(0.721002 -0.0332409 0)
(0.741466 -0.0195201 0)
(0.751499 0.00302825 0)
(0.745526 0.0336252 0)
(0.719007 0.070509 0)
(0.668425 0.111339 0)
(0.592241 0.153025 0)
(0.490839 0.192462 0)
(0.366529 0.226757 0)
(0.223364 0.253493 0)
(0.0666821 0.270946 0)
(-0.0977366 0.278563 0)
(-0.263478 0.275574 0)
(-0.424088 0.26275 0)
(-0.574071 0.241091 0)
(-0.7086 0.211912 0)
(-0.823611 0.176726 0)
(-0.916155 0.137039 0)
(-0.984138 0.0943105 0)
(-1.02618 0.0501851 0)
(-1.04199 0.00560841 0)
(-1.0314 -0.0378319 0)
(-0.995842 -0.0786422 0)
(-0.937071 -0.115593 0)
(-0.8577 -0.147266 0)
(-0.761225 -0.172232 0)
(-0.65221 -0.189304 0)
(-0.535719 -0.197848 0)
(-0.41677 -0.197639 0)
(-0.300321 -0.189191 0)
(-0.191408 -0.173854 0)
(-0.0935942 -0.153596 0)
(-0.0100958 -0.130668 0)
(0.057592 -0.108901 0)
(0.111583 -0.0890862 0)
(0.155007 -0.073773 0)
(0.19104 -0.0640124 0)
(0.223563 -0.0599072 0)
(0.256071 -0.0607454 0)
(0.291318 -0.0645138 0)
(0.330524 -0.0685043 0)
(0.372944 -0.0697981 0)
(0.416113 -0.0658885 0)
(0.456012 -0.0548957 0)
(0.487463 -0.0360272 0)
(0.505144 -0.00975242 0)
(0.504192 0.0219851 0)
(0.482244 0.0555342 0)
(0.438407 0.0881389 0)
(0.374706 0.115454 0)
(0.295565 0.134099 0)
(0.207696 0.141606 0)
(0.118592 0.136956 0)
(0.0358904 0.120063 0)
(-0.0324266 0.0919708 0)
(-0.079774 0.0553845 0)
(-0.101805 0.0141397 0)
(-0.0966548 -0.0278236 0)
(-0.0655802 -0.0661963 0)
(-0.012012 -0.096944 0)
(0.0578703 -0.118484 0)
(0.13709 -0.129179 0)
(0.219282 -0.1291 0)
(0.297905 -0.119019 0)
(0.367282 -0.100208 0)
(0.422586 -0.0743978 0)
(0.460295 -0.0433562 0)
(0.477751 -0.00880744 0)
(0.473834 0.027225 0)
(0.447535 0.0645967 0)
(1.13222 -0.00519548 0)
(1.12559 0.0886209 0)
(1.05976 0.183144 0)
(0.94626 0.271627 0)
(0.790139 0.347953 0)
(0.5993 0.407391 0)
(0.383661 0.446899 0)
(0.154215 0.46524 0)
(-0.078179 0.4628 0)
(-0.303444 0.441405 0)
(-0.512661 0.403741 0)
(-0.698723 0.352992 0)
(-0.856291 0.292437 0)
(-0.981666 0.225184 0)
(-1.0726 0.154016 0)
(-1.12808 0.0813972 0)
(-1.14807 0.00951265 0)
(-1.13342 -0.0595801 0)
(-1.08602 -0.123802 0)
(-1.00869 -0.181247 0)
(-0.905202 -0.230102 0)
(-0.780261 -0.268872 0)
(-0.639316 -0.296615 0)
(-0.488203 -0.313176 0)
(-0.332666 -0.319334 0)
(-0.177749 -0.316808 0)
(-0.0275432 -0.308063 0)
(0.115487 -0.296192 0)
(0.250983 -0.283783 0)
(0.380023 -0.2732 0)
(0.504471 -0.265593 0)
(0.626763 -0.260661 0)
(0.748773 -0.256566 0)
(0.870941 -0.250146 0)
(0.991571 -0.237409 0)
(1.1065 -0.214267 0)
(1.20922 -0.177365 0)
(1.2915 -0.124883 0)
(1.34446 -0.0571189 0)
(1.35982 0.0233233 0)
(1.33143 0.111263 0)
(1.25632 0.200355 0)
(1.13551 0.283114 0)
(0.974273 0.35238 0)
(0.78158 0.402377 0)
(0.569187 0.429586 0)
(0.350015 0.433328 0)
(0.136243 0.41585 0)
(-0.0609404 0.38186 0)
(-0.23444 0.337852 0)
(-0.381995 0.290538 0)
(-0.504059 0.246435 0)
(-0.604664 0.210363 0)
(-0.68998 0.184696 0)
(-0.766708 0.169148 0)
(-0.840525 0.16098 0)
(-0.914792 0.155656 0)
(-0.989779 0.14782 0)
(-1.06251 0.132416 0)
(-1.1273 0.105719 0)
(-1.17679 0.0660988 0)
(-1.20326 0.0145606 0)
(-1.20039 -0.0461323 0)
(-1.16408 -0.110564 0)
(-1.0937 -0.172865 0)
(-0.992039 -0.227119 0)
(-0.865019 -0.268466 0)
(-0.72091 -0.293832 0)
(-0.568971 -0.302368 0)
(-0.41824 -0.295413 0)
(-0.276322 -0.276146 0)
(-0.148523 -0.248934 0)
(-0.0371943 -0.218274 0)
(0.0566991 -0.189749 0)
(0.13574 -0.164475 0)
(0.204369 -0.14488 0)
(0.26559 -0.130976 0)
(0.32253 -0.121439 0)
(0.377133 -0.11412 0)
(0.429817 -0.106686 0)
(0.479607 -0.0972192 0)
(0.524585 -0.0846775 0)
(0.562525 -0.0691276 0)
(0.591602 -0.0517087 0)
(0.61097 -0.0343677 0)
(0.621135 -0.0194117 0)
(0.624012 -0.00897722 0)
(0.622702 -0.00454458 0)
(0.620946 -0.00649782 0)
(0.622442 -0.0140337 0)
(0.630109 -0.0251482 0)
(0.645518 -0.0368947 0)
(0.66831 -0.0459057 0)
(0.696128 -0.0488488 0)
(0.724872 -0.0429354 0)
(0.74912 -0.0263807 0)
(0.762825 0.00114918 0)
(0.759988 0.0391026 0)
(0.735732 0.0847533 0)
(0.686169 0.135388 0)
(0.60969 0.187096 0)
(0.506692 0.236004 0)
(0.379638 0.278506 0)
(0.232845 0.311596 0)
(0.0720432 0.333142 0)
(-0.0967499 0.342385 0)
(-0.266853 0.338675 0)
(-0.43145 0.322833 0)
(-0.584904 0.296114 0)
(-0.722293 0.260135 0)
(-0.83952 0.216798 0)
(-0.933641 0.167981 0)
(-1.00262 0.115447 0)
(-1.04505 0.0613342 0)
(-1.06066 0.00650817 0)
(-1.04927 -0.0468129 0)
(-1.01239 -0.0969846 0)
(-0.951691 -0.142456 0)
(-0.869777 -0.181467 0)
(-0.770188 -0.212226 0)
(-0.657662 -0.233241 0)
(-0.537459 -0.243707 0)
(-0.414852 -0.243304 0)
(-0.295143 -0.232665 0)
(-0.183684 -0.21344 0)
(-0.0842443 -0.18806 0)
(-0.000418415 -0.159461 0)
(0.0665924 -0.132055 0)
(0.119114 -0.107366 0)
(0.160304 -0.0883623 0)
(0.193855 -0.0763873 0)
(0.224024 -0.0716979 0)
(0.254783 -0.0733013 0)
(0.289324 -0.0786516 0)
(0.329066 -0.0843353 0)
(0.373226 -0.0866904 0)
(0.419102 -0.08246 0)
(0.462312 -0.0692659 0)
(0.497115 -0.046085 0)
(0.517669 -0.0135018 0)
(0.518421 0.02618 0)
(0.49673 0.0681347 0)
(0.451464 0.109045 0)
(0.384752 0.143375 0)
(0.301296 0.166862 0)
(0.208344 0.176396 0)
(0.113921 0.170725 0)
(0.02608 0.149792 0)
(-0.0464618 0.114603 0)
(-0.0965803 0.0689755 0)
(-0.119787 0.017484 0)
(-0.113978 -0.0348633 0)
(-0.0803926 -0.0827162 0)
(-0.0231895 -0.121069 0)
(0.0510446 -0.147686 0)
(0.134888 -0.160773 0)
(0.221494 -0.160494 0)
(0.304068 -0.147849 0)
(0.376751 -0.124425 0)
(0.43463 -0.0923914 0)
(0.474188 -0.0541614 0)
(0.492885 -0.0116735 0)
(0.489632 0.0327191 0)
(0.463602 0.0785939 0)
(1.16989 -0.00858633 0)
(1.16538 0.104239 0)
(1.09841 0.217865 0)
(0.981002 0.324137 0)
(0.818687 0.415641 0)
(0.620016 0.486683 0)
(0.395665 0.533643 0)
(0.157361 0.55511 0)
(-0.0833866 0.551653 0)
(-0.316018 0.525539 0)
(-0.531334 0.480094 0)
(-0.722117 0.419197 0)
(-0.883061 0.346805 0)
(-1.01059 0.266623 0)
(-1.10259 0.181935 0)
(-1.15821 0.0956035 0)
(-1.17745 0.0102303 0)
(-1.1612 -0.0718407 0)
(-1.1114 -0.14816 0)
(-1.03087 -0.21645 0)
(-0.923466 -0.274512 0)
(-0.794077 -0.320502 0)
(-0.648435 -0.353238 0)
(-0.492741 -0.372486 0)
(-0.333149 -0.379163 0)
(-0.175074 -0.375352 0)
(-0.0229122 -0.364072 0)
(0.120831 -0.34911 0)
(0.255945 -0.333748 0)
(0.383826 -0.320909 0)
(0.506913 -0.312058 0)
(0.628291 -0.306867 0)
(0.750468 -0.303103 0)
(0.874361 -0.29687 0)
(0.998487 -0.283225 0)
(1.11855 -0.257072 0)
(1.22758 -0.214195 0)
(1.31653 -0.152254 0)
(1.37554 -0.0715069 0)
(1.39537 0.0249321 0)
(1.36894 0.130742 0)
(1.29276 0.238198 0)
(1.16776 0.338098 0)
(0.999519 0.421646 0)
(0.797809 0.481735 0)
(0.57549 0.514035 0)
(0.346735 0.517717 0)
(0.124897 0.495569 0)
(-0.0779196 0.453406 0)
(-0.254174 0.399187 0)
(-0.401595 0.341278 0)
(-0.521068 0.287748 0)
(-0.617535 0.244461 0)
(-0.698277 0.214311 0)
(-0.771115 0.196894 0)
(-0.842653 0.188767 0)
(-0.916822 0.184261 0)
(-0.994 0.176695 0)
(-1.07085 0.159771 0)
(-1.14094 0.128854 0)
(-1.19592 0.0818945 0)
(-1.22699 0.0201073 0)
(-1.22695 -0.0530808 0)
(-1.19104 -0.130994 0)
(-1.11849 -0.206377 0)
(-1.01231 -0.27194 0)
(-0.879058 -0.3217 0)
(-0.727884 -0.351899 0)
(-0.569005 -0.361531 0)
(-0.412337 -0.352292 0)
(-0.26614 -0.32815 0)
(-0.136005 -0.294529 0)
(-0.0244985 -0.257053 0)
(0.0681018 -0.222268 0)
(0.1451 -0.191958 0)
(0.211183 -0.168881 0)
(0.27019 -0.152939 0)
(0.325709 -0.142404 0)
(0.379896 -0.134545 0)
(0.43311 -0.126417 0)
(0.484085 -0.115608 0)
(0.530465 -0.10081 0)
(0.569537 -0.0821096 0)
(0.59906 -0.0609368 0)
(0.61793 -0.0397345 0)
(0.626611 -0.0213869 0)
(0.627192 -0.00860114 0)
(0.623193 -0.00324744 0)
(0.618797 -0.00580344 0)
(0.618263 -0.0153815 0)
(0.624968 -0.0294479 0)
(0.640792 -0.0444088 0)
(0.665447 -0.0561378 0)
(0.696453 -0.0605207 0)
(0.729369 -0.0541436 0)
(0.758236 -0.034822 0)
(0.776535 -0.00209107 0)
(0.777655 0.0434224 0)
(0.756128 0.0982916 0)
(0.707819 0.159259 0)
(0.63098 0.221544 0)
(0.526023 0.280435 0)
(0.395602 0.331564 0)
(0.244367 0.371304 0)
(0.0785029 0.397103 0)
(-0.0956179 0.407959 0)
(-0.270977 0.403389 0)
(-0.440387 0.384365 0)
(-0.598045 0.352405 0)
(-0.738898 0.309441 0)
(-0.858781 0.257698 0)
(-0.954788 0.199451 0)
(-1.02495 0.136805 0)
(-1.06782 0.0725416 0)
(-1.0832 0.00721883 0)
(-1.07086 -0.0562062 0)
(-1.0324 -0.11599 0)
(-0.969383 -0.170236 0)
(-0.884401 -0.216826 0)
(-0.781037 -0.253569 0)
(-0.664243 -0.278656 0)
(-0.539512 -0.29107 0)
(-0.412435 -0.290379 0)
(-0.288732 -0.277334 0)
(-0.174142 -0.253882 0)
(-0.0727236 -0.222944 0)
(0.0115262 -0.188259 0)
(0.0776556 -0.154752 0)
(0.1284 -0.124805 0)
(0.166746 -0.101913 0)
(0.197173 -0.087698 0)
(0.224373 -0.082621 0)
(0.252932 -0.0853471 0)
(0.286563 -0.0927311 0)
(0.326948 -0.100632 0)
(0.373258 -0.104525 0)
(0.422508 -0.10033 0)
(0.469848 -0.0850763 0)
(0.508854 -0.0574794 0)
(0.533004 -0.0182473 0)
(0.53594 0.0299384 0)
(0.514613 0.0810045 0)
(0.467597 0.130908 0)
(0.397183 0.172873 0)
(0.308409 0.201651 0)
(0.209193 0.213437 0)
(0.108227 0.206726 0)
(0.014024 0.181517 0)
(-0.0637718 0.138661 0)
(-0.117221 0.0833698 0)
(-0.141887 0.0207746 0)
(-0.1352 -0.042596 0)
(-0.0985667 -0.100494 0)
(-0.0368476 -0.146975 0)
(0.042802 -0.17886 0)
(0.132316 -0.194328 0)
(0.224306 -0.19369 0)
(0.311687 -0.178192 0)
(0.388392 -0.149683 0)
(0.449303 -0.111212 0)
(0.491006 -0.0655078 0)
(0.511155 -0.0147822 0)
(0.508659 0.038178 0)
(0.48296 0.0926808 0)
(1.21475 -0.013312 0)
(1.21272 0.119737 0)
(1.14435 0.253664 0)
(1.02224 0.378788 0)
(0.852487 0.48629 0)
(0.644436 0.569456 0)
(0.409683 0.624069 0)
(0.160846 0.648567 0)
(-0.089794 0.643768 0)
(-0.331104 0.612449 0)
(-0.553558 0.558659 0)
(-0.749824 0.487043 0)
(-0.914656 0.402281 0)
(-1.04463 0.308699 0)
(-1.13784 0.210082 0)
(-1.19357 0.109724 0)
(-1.21194 0.0104247 0)
(-1.19382 -0.084916 0)
(-1.14121 -0.173668 0)
(-1.05692 -0.253122 0)
(-0.944906 -0.320657 0)
(-0.810241 -0.374042 0)
(-0.659 -0.411804 0)
(-0.497831 -0.433608 0)
(-0.333387 -0.4405 0)
(-0.171544 -0.43496 0)
(-0.0170708 -0.420622 0)
(0.127452 -0.40205 0)
(0.261984 -0.383322 0)
(0.388319 -0.368014 0)
(0.509591 -0.357964 0)
(0.629685 -0.35284 0)
(0.751888 -0.349974 0)
(0.877714 -0.344651 0)
(1.00596 -0.330843 0)
(1.13217 -0.302298 0)
(1.24881 -0.253795 0)
(1.34587 -0.182365 0)
(1.4123 -0.0881736 0)
(1.43763 0.0249997 0)
(1.41363 0.150125 0)
(1.3363 0.277117 0)
(1.20628 0.395441 0)
(1.02961 0.494302 0)
(0.817019 0.565108 0)
(0.582708 0.602619 0)
(0.342386 0.605834 0)
(0.110841 0.578109 0)
(-0.0987144 0.52674 0)
(-0.278182 0.461 0)
(-0.425265 0.391359 0)
(-0.541404 0.327555 0)
(-0.632671 0.276629 0)
(-0.707698 0.242054 0)
(-0.775681 0.223272 0)
(-0.844366 0.216015 0)
(-0.918381 0.213301 0)
(-0.998234 0.206928 0)
(-1.08015 0.189165 0)
(-1.15675 0.154322 0)
(-1.21849 0.0998948 0)
(-1.25525 0.0272664 0)
(-1.25869 -0.0593023 0)
(-1.22334 -0.151776 0)
(-1.14816 -0.241303 0)
(-1.03651 -0.319043 0)
(-0.8957 -0.377763 0)
(-0.735963 -0.412943 0)
(-0.568694 -0.423417 0)
(-0.404883 -0.411305 0)
(-0.253591 -0.381491 0)
(-0.120766 -0.34062 0)
(-0.00914368 -0.295615 0)
(0.0817608 -0.253957 0)
(0.156098 -0.218367 0)
(0.218997 -0.191835 0)
(0.275269 -0.17411 0)
(0.329061 -0.162974 0)
(0.382782 -0.155004 0)
(0.436713 -0.146534 0)
(0.489222 -0.134575 0)
(0.537403 -0.117511 0)
(0.577939 -0.095452 0)
(0.608072 -0.070169 0)
(0.626383 -0.0446851 0)
(0.633269 -0.022552 0)
(0.631052 -0.00717644 0)
(0.62373 -0.00071736 0)
(0.616079 -0.00408589 0)
(0.613007 -0.0160719 0)
(0.618505 -0.0336126 0)
(0.63478 -0.0523901 0)
(0.661649 -0.0674283 0)
(0.696486 -0.0737395 0)
(0.734427 -0.0672065 0)
(0.768922 -0.0451861 0)
(0.79272 -0.00692795 0)
(0.798605 0.0463635 0)
(0.78039 0.110948 0)