/*--------------------------------*- C++ -*----------------------------------*\
| =========                 |                                                 |
| \\      /  F ield         | OpenFOAM: The Open Source CFD Toolbox           |
|  \\    /   O peration     | Version:  v1912                                 |
|   \\  /    A nd           | Website:  www.openfoam.com                      |
|    \\/     M anipulation  |                                                 |
\*---------------------------------------------------------------------------*/
FoamFile
{
    version     2.0;
    format      ascii;
    class       volVectorField;
    location    "100";
    object      U;
}
// * * * * * * * * * * * * * * * * * * * * * * * * * * * * * * * * * * * * * //

dimensions      [0 1 -1 0 0 0 0];


internalField   uniform (0 0 0);

boundaryField
{
    atmosphere
    {
        type            pressureInletOutletVelocity;
        value           nonuniform List<vector> 
164
(
(0.0135462 0.028345 0)
(0.0134914 0.0110274 0)
(0 -0.00615498 0)
(0 -0.0231096 0)
(0 -0.0397629 0)
(0 -0.0560087 0)
(0 -0.0717697 0)
(0 -0.0869472 0)
(0 -0.101466 0)
(0 -0.115225 0)
(0 -0.128148 0)
(0 -0.140138 0)
(0 -0.151116 0)
(0 -0.160995 0)
(0 -0.169695 0)
(0 -0.177142 0)
(0 -0.183256 0)
(0 -0.187982 0)
(0 -0.191249 0)
(0 -0.193013 0)
(0 -0.193226 0)
(0 -0.191849 0)
(0 -0.188864 0)
(0 -0.184256 0)
(0 -0.178041 0)
(0 -0.170225 0)
(0 -0.160857 0)
(0 -0.149977 0)
(0 -0.137659 0)
(0 -0.123985 0)
(0 -0.109053 0)
(0 -0.0929812 0)
(0 -0.0758938 0)
(0 -0.0579377 0)
(0 -0.0392642 0)
(0 -0.0200342 0)
(0 -0.000401512 0)
(-0.011821 0.0194431 0)
(-0.0116985 0.0393033 0)
(-0.0114394 0.0590213 0)
(-0.0110439 0.0784138 0)
(-0.0105241 0.0973194 0)
(-0.00987877 0.115586 0)
(-0.00913146 0.13304 0)
(-0.00828116 0.149585 0)
(-0.00735609 0.165034 0)
(-0.00635606 0.179358 0)
(-0.00530911 0.19236 0)
(-0.00421832 0.204078 0)
(-0.00310668 0.214313 0)
(-0.00198382 0.223159 0)
(-0.000862754 0.230432 0)
(0.000239997 0.236268 0)
(0.00132892 0.240517 0)
(0.00237167 0.243324 0)
(0.00338432 0.244597 0)
(0.00433863 0.244466 0)
(0.00524965 0.242912 0)
(0.0060967 0.240041 0)
(0.00689329 0.235884 0)
(0.0076244 0.230525 0)
(0.00830068 0.224042 0)
(0.00891412 0.216491 0)
(0.00947049 0.207983 0)
(0.00997084 0.198556 0)
(0.0104135 0.188329 0)
(0.0108095 0.17734 0)
(0.0111504 0.16569 0)
(0.0114516 0.153438 0)
(0.0117054 0.140639 0)
(0.0119244 0.127389 0)
(0.0121072 0.113691 0)
(0.0122593 0.099675 0)
(0.0123894 0.0852961 0)
(0.012491 0.0707113 0)
(0.0125865 0.0558392 0)
(0.0126569 0.0408441 0)
(0.0127348 0.0256349 0)
(0.0127904 0.0103523 0)
(0 -0.00506629 0)
(0 -0.0205368 0)
(0 -0.0360965 0)
(0 -0.0517257 0)
(0 -0.0673909 0)
(0 -0.0831461 0)
(0 -0.0989125 0)
(0 -0.114779 0)
(0 -0.130645 0)
(0 -0.146606 0)
(0 -0.162556 0)
(0 -0.17858 0)
(0 -0.194575 0)
(0 -0.210599 0)
(0 -0.226558 0)
(0 -0.24247 0)
(0 -0.258255 0)
(0 -0.273877 0)
(0 -0.289272 0)
(0 -0.30434 0)
(0 -0.319038 0)
(0 -0.333193 0)
(0 -0.346783 0)
(0 -0.359556 0)
(0 -0.371511 0)
(0 -0.382322 0)
(0 -0.391985 0)
(0 -0.400144 0)
(0 -0.406741 0)
(0 -0.411455 0)
(0 -0.41413 0)
(0 -0.414528 0)
(0 -0.412391 0)
(0 -0.407563 0)
(0 -0.399771 0)
(0 -0.388903 0)
(0 -0.374741 0)
(0 -0.357229 0)
(0 -0.336257 0)
(0 -0.311865 0)
(0 -0.284105 0)
(0 -0.253156 0)
(0 -0.219256 0)
(0 -0.182756 0)
(0 -0.144086 0)
(0 -0.103765 0)
(0 -0.0623819 0)
(0 -0.0205302 0)
(-0.0252449 0.021107 0)
(-0.0242533 0.0617381 0)
(-0.0227957 0.100756 0)
(-0.0209326 0.13755 0)
(-0.0187177 0.171606 0)
(-0.0162236 0.202449 0)
(-0.0135104 0.229768 0)
(-0.0106887 0.253087 0)
(-0.00781877 0.272419 0)
(-0.00497799 0.287722 0)
(-0.00220748 0.299151 0)
(0.000422796 0.306623 0)
(0.00288422 0.31049 0)
(0.00512274 0.310739 0)
(0.0071458 0.307863 0)
(0.00890956 0.301886 0)
(0.0104478 0.293409 0)
(0.0117292 0.282408 0)
(0.0127984 0.269566 0)
(0.0136373 0.254787 0)
(0.0142917 0.238798 0)
(0.0147568 0.22142 0)
(0.015068 0.203386 0)
(0.0152375 0.184455 0)
(0.0152814 0.165315 0)
(0.0152304 0.145706 0)
(0.0150793 0.126222 0)
(0.0148718 0.106624 0)
(0.0145877 0.0873814 0)
(0.0142765 0.0683111 0)
(0.0139089 0.04974 0)
(0.0135328 0.0315568 0)
(0.0131186 0.0139526 0)
(0 -0.00311397 0)
(0 -0.0195529 0)
(0 -0.0354009 0)
(0 -0.050634 0)
)
;
    }
    inlet
    {
        type            waveVelocity;
        refValue        nonuniform 0();
        refGradient     uniform ( 0 0 0 );
        valueFraction   uniform 1;
        value           nonuniform 0();
    }
    outlet
    {
        type            pressureInletOutletVelocity;
        value           nonuniform 0();
    }
    bottom
    {
        type            slip;
    }
    frontBack
    {
        type            empty;
    }
    procBoundary2to1
    {
        type            processor;
        value           uniform (0 0 0);
    }
    procBoundary2to3
    {
        type            processor;
        value           uniform (0 0 0);
    }
}


// ************************************************************************* //
