/*--------------------------------*- C++ -*----------------------------------*\
| =========                 |                                                 |
| \\      /  F ield         | OpenFOAM: The Open Source CFD Toolbox           |
|  \\    /   O peration     | Version:  v1912                                 |
|   \\  /    A nd           | Website:  www.openfoam.com                      |
|    \\/     M anipulation  |                                                 |
\*---------------------------------------------------------------------------*/
FoamFile
{
    version     2.0;
    format      ascii;
    class       volScalarField;
    location    "80";
    object      omega;
}
// * * * * * * * * * * * * * * * * * * * * * * * * * * * * * * * * * * * * * //

dimensions      [0 0 -1 0 0 0 0];


internalField   nonuniform List<scalar> 
14268
(
0.0152403
0.015325
0.0154069
0.0154921
0.0155851
0.0156714
0.0157477
0.0158244
0.0159192
0.0160369
0.0161667
0.0162961
0.0164206
0.0165468
0.0166824
0.0168285
0.0169797
0.0171341
0.0172747
0.0174056
0.0175218
0.0176245
0.0177184
0.0178039
0.0178744
0.0179416
0.0180193
0.0181057
0.0181988
0.0183088
0.0184306
0.0185839
0.018779
0.0190192
0.0192953
0.0195906
0.0198878
0.0201826
0.0204747
0.0207575
0.0210276
0.0212792
0.021501
0.0217142
0.0219251
0.0221581
0.0223426
0.0226046
0.0229901
0.0241284
0.0388869
0.165985
0.598452
1.35741
2.33177
3.40638
4.46904
5.46358
6.20962
6.74595
7.17551
7.61526
8.17389
9.02358
10.3824
12.1483
14.1681
16.1924
17.7663
18.4321
17.9321
16.4811
14.1898
11.1921
8.5226
6.92842
6.27329
6.0105
5.80943
5.32836
4.72214
4.82633
5.84183
7.98201
11.2397
15.1525
18.6082
21.3473
23.5483
25.0686
25.9201
24.6117
22.5393
20.7255
19.0308
17.3272
15.4202
13.1137
10.24
6.71559
3.17255
1.14944
0.41191
0.161674
0.0839422
0.0679913
0.0676198
0.0700342
0.0727722
0.075674
0.0784149
0.0806864
0.0828047
0.0857589
0.0900781
0.0954972
0.1024
0.111301
0.120637
0.131252
0.143894
0.159204
0.17833
0.202659
0.237101
0.291383
0.387182
0.56981
0.909322
1.4917
2.41417
3.7847
5.66611
8.27877
0.0937153
0.0929504
0.0924464
0.0922713
0.0922949
0.0926713
0.093679
0.095274
0.0967153
0.0972248
0.0971051
0.0966644
0.0961829
0.0957144
0.0949842
0.0936854
0.0917505
0.0893471
0.0877491
0.0870826
0.0871615
0.0882175
0.0904739
0.0932341
0.0957022
0.0981545
0.100719
0.103342
0.105949
0.108062
0.109433
0.110101
0.109809
0.108197
0.105193
0.100969
0.0958518
0.0903033
0.0847815
0.0801195
0.0766506
0.0746086
0.0735524
0.072854
0.072319
0.0718004
0.0710815
0.0698893
0.0679759
0.0647869
0.064122
0.0706683
0.116605
0.243026
0.477412
0.839577
1.33348
1.9302
2.40727
2.73529
3.03257
3.36051
3.75541
4.22145
4.6423
4.81722
4.70151
4.42156
4.38106
4.25106
4.00412
3.60242
3.01237
2.30044
1.78912
1.62772
1.68136
1.71731
1.57391
1.17726
1.02362
1.36594
2.77511
5.41982
7.7626
8.55678
8.51469
8.40077
8.21479
7.89436
7.37014
6.74151
6.24869
5.738
5.15846
4.40122
3.54769
2.66333
1.77832
0.969018
0.398442
0.176101
0.122055
0.102409
0.0909467
0.0845819
0.0821026
0.0817661
0.082609
0.0848974
0.0884924
0.0931762
0.0991167
0.106844
0.117375
0.132623
0.150435
0.160399
0.15958
0.153808
0.146357
0.141822
0.141808
0.149057
0.16784
0.204727
0.272239
0.389277
0.573328
0.822522
1.10537
1.4279
1.91118
2.75953
0.150664
0.150228
0.149939
0.149846
0.149891
0.150143
0.150752
0.151675
0.152641
0.153045
0.15301
0.152777
0.152628
0.152487
0.152126
0.151428
0.150442
0.149232
0.148424
0.148091
0.14821
0.148934
0.150392
0.152108
0.153628
0.155039
0.156406
0.157706
0.158962
0.160037
0.160708
0.161069
0.160988
0.160277
0.158812
0.156611
0.153715
0.150135
0.14606
0.142476
0.139747
0.138005
0.136993
0.136217
0.135518
0.134941
0.134392
0.133366
0.130942
0.127343
0.129169
0.137376
0.157987
0.208882
0.316641
0.501755
0.775312
1.12417
1.4333
1.66023
1.86929
2.09032
2.3371
2.58726
2.75472
2.75035
2.60955
2.45997
2.39998
2.31905
2.18667
1.96525
1.64561
1.28103
1.03151
0.955801
0.978171
0.981745
0.89691
0.683105
0.63477
0.8958
1.96668
4.14461
5.66406
5.70715
5.32965
5.08445
4.8862
4.63415
4.24768
3.86003
3.53729
3.18345
2.78905
2.31075
1.80425
1.31703
0.87687
0.519277
0.28817
0.20007
0.172677
0.156027
0.140908
0.12793
0.119127
0.114879
0.113989
0.115006
0.118661
0.125377
0.135647
0.149926
0.168739
0.191536
0.205399
0.204105
0.196324
0.182554
0.167871
0.151837
0.146684
0.147968
0.153574
0.166856
0.196109
0.24969
0.330131
0.436262
0.570411
0.763401
1.08404
1.63399
0.169637
0.169493
0.169403
0.169384
0.169413
0.169544
0.169841
0.170274
0.170766
0.171011
0.171094
0.171074
0.171031
0.170942
0.17074
0.170367
0.169941
0.169445
0.16916
0.169122
0.169343
0.169965
0.170917
0.171875
0.172562
0.173255
0.173916
0.174567
0.175273
0.176083
0.176884
0.177445
0.177661
0.177551
0.177041
0.176206
0.175148
0.173758
0.171853
0.169952
0.168573
0.167906
0.167942
0.168391
0.169595
0.171612
0.173319
0.173799
0.173814
0.176314
0.18396
0.196326
0.212572
0.242735
0.308139
0.427496
0.610401
0.847491
1.07376
1.24956
1.41261
1.5815
1.76285
1.93371
2.03737
2.02993
1.95087
1.88993
1.8758
1.84003
1.74899
1.57852
1.33731
1.07304
0.884075
0.802196
0.791563
0.780267
0.72158
0.588728
0.572174
0.779303
1.62249
3.40616
4.52863
4.41645
4.04996
3.8501
3.7035
3.52651
3.29356
3.02188
2.73158
2.39946
2.05496
1.68377
1.3148
0.978187
0.689606
0.464084
0.316728
0.233601
0.197659
0.183557
0.17312
0.16369
0.156572
0.152554
0.151467
0.152324
0.155993
0.163663
0.175921
0.192263
0.211894
0.228399
0.23296
0.232096
0.237632
0.203819
0.188439
0.172144
0.162317
0.159079
0.159557
0.164724
0.178253
0.204697
0.246345
0.307498
0.397772
0.537817
0.77068
1.17537
0.17602
0.176022
0.176024
0.176044
0.176098
0.176198
0.176341
0.176524
0.176777
0.176902
0.177007
0.177055
0.177092
0.177077
0.177001
0.176823
0.17666
0.176475
0.176408
0.176488
0.176781
0.177306
0.177906
0.178326
0.178758
0.179156
0.179696
0.180609
0.181943
0.183587
0.18527
0.186445
0.186935
0.186795
0.186015
0.184685
0.183306
0.182229
0.181331
0.18076
0.180677
0.180935
0.18198
0.184161
0.187342
0.190774
0.19344
0.196579
0.202409
0.21454
0.231906
0.248535
0.263316
0.28529
0.331186
0.417292
0.551994
0.728394
0.907462
1.05412
1.19113
1.33168
1.47998
1.61689
1.70495
1.72121
1.69872
1.70284
1.74109
1.73324
1.65675
1.49991
1.28422
1.05614
0.883572
0.784806
0.746395
0.723495
0.679447
0.592142
0.587986
0.756206
1.44265
2.93994
3.85046
3.72306
3.43118
3.28329
3.18844
3.07671
2.94441
2.75431
2.46782
2.11676
1.77656
1.45175
1.14964
0.883393
0.661483
0.491135
0.367738
0.272297
0.216654
0.197931
0.188843
0.181524
0.175932
0.172835
0.172178
0.173314
0.177509
0.185898
0.19942
0.218523
0.237746
0.246213
0.244581
0.277518
0.299952
0.23437
0.202837
0.188162
0.179236
0.174549
0.17117
0.171167
0.176838
0.191149
0.215282
0.255316
0.322481
0.429734
0.61008
0.931715
0.178259
0.178283
0.17831
0.178318
0.178348
0.178433
0.178558
0.178765
0.179018
0.179213
0.17928
0.179283
0.179253
0.179202
0.17911
0.179007
0.178956
0.178949
0.178992
0.179191
0.179575
0.180074
0.180443
0.180797
0.181233
0.18207
0.183466
0.185508
0.188035
0.190789
0.194604
0.200391
0.205523
0.206826
0.204729
0.198906
0.191644
0.187421
0.185509
0.185103
0.185309
0.186265
0.1883
0.191344
0.195221
0.199874
0.20608
0.217424
0.239846
0.268865
0.290539
0.302715
0.313377
0.329896
0.364535
0.430582
0.535688
0.674704
0.822835
0.951406
1.07241
1.19607
1.32572
1.44766
1.53604
1.57847
1.607
1.67312
1.75917
1.77096
1.69471
1.53472
1.32503
1.11051
0.939619
0.823037
0.76013
0.727186
0.691324
0.63286
0.633696
0.771199
1.33909
2.6141
3.40277
3.30513
3.08937
2.98553
2.93974
2.88993
2.83815
2.70234
2.41825
2.03363
1.67489
1.37097
1.10609
0.879168
0.693721
0.548036
0.42815
0.318269
0.23854
0.20901
0.19902
0.192909
0.188565
0.186308
0.185894
0.186957
0.190896
0.199234
0.213434
0.233183
0.24984
0.254647
0.255762
0.333418
0.366877
0.294565
0.21276
0.199208
0.189431
0.185601
0.182451
0.179464
0.180376
0.187546
0.202808
0.231293
0.284105
0.369871
0.515674
0.780619
0.179487
0.179542
0.179594
0.179644
0.179705
0.17982
0.180158
0.180784
0.181524
0.181771
0.181633
0.181333
0.180969
0.180644
0.180343
0.180149
0.180049
0.180041
0.180072
0.180256
0.180567
0.180955
0.181405
0.182038
0.18319
0.185471
0.189523
0.195501
0.203578
0.2164
0.240959
0.279713
0.315552
0.32504
0.313636
0.281288
0.236867
0.206319
0.193092
0.189448
0.189392
0.190373
0.192496
0.195894
0.201106
0.210405
0.231046
0.273715
0.328866
0.358058
0.363138
0.362931
0.365904
0.376339
0.402619
0.455019
0.540238
0.654388
0.780842
0.897462
1.00835
1.12171
1.24056
1.35618
1.4504
1.5185
1.59267
1.72524
1.86822
1.8904
1.80065
1.62374
1.40693
1.19528
1.02106
0.888888
0.804526
0.760944
0.731102
0.692551
0.694842
0.805667
1.27924
2.37703
3.09181
3.04642
2.91108
2.8447
2.83965
2.85099
2.86922
2.77964
2.49625
2.06803
1.66987
1.36963
1.12568
0.921955
0.756206
0.620145
0.495694
0.371254
0.266925
0.219773
0.205537
0.199333
0.195448
0.193553
0.19332
0.194463
0.198493
0.207002
0.221484
0.242601
0.25633
0.261609
0.277195
0.395314
0.439874
0.363687
0.225269
0.206874
0.196517
0.190998
0.188436
0.185982
0.184823
0.18831
0.197617
0.219333
0.261913
0.332636
0.454056
0.680012
0.181438
0.18163
0.18187
0.182196
0.182776
0.183948
0.186193
0.189872
0.193397
0.19433
0.193435
0.191001
0.187493
0.18433
0.182431
0.181527
0.180845
0.180691
0.180679
0.180862
0.181273
0.181964
0.18322
0.185835
0.191602
0.204016
0.225113
0.254875
0.300812
0.379489
0.500297
0.643466
0.769148
0.817663
0.788542
0.669188
0.483527
0.32575
0.239509
0.205848
0.196544
0.195523
0.197185
0.203129
0.218366
0.255838
0.336002
0.44351
0.491637
0.477981
0.449225
0.428563
0.421574
0.425403
0.443934
0.485867
0.556323
0.653225
0.763729
0.871821
0.976177
1.08308
1.19555
1.30913
1.41178
1.50282
1.61681
1.81654
2.0216
2.04242
1.9317
1.73097
1.50207
1.29095
1.1133
0.969398
0.867224
0.81309
0.787709
0.763106
0.765167
0.852646
1.24776
2.19779
2.86951
2.88758
2.83328
2.79771
2.82858
2.89922
2.99121
2.94018
2.6531
2.17989
1.72345
1.41435
1.18189
0.991984
0.836572
0.702201
0.569855
0.431266
0.302919
0.233873
0.21228
0.204872
0.201008
0.19892
0.198378
0.199178
0.202893
0.211643
0.227666
0.248288
0.261416
0.26894
0.31297
0.463453
0.520022
0.439776
0.26768
0.211202
0.202225
0.194675
0.191316
0.189224
0.187981
0.189552
0.195977
0.212899
0.24902
0.308721
0.412143
0.608043
0.192589
0.194027
0.195601
0.1979
0.201823
0.208811
0.221068
0.239983
0.261002
0.269164
0.266064
0.253753
0.232984
0.211077
0.196406
0.188316
0.18385
0.182096
0.181507
0.181701
0.182765
0.185738
0.193051
0.210068
0.246566
0.316534
0.424158
0.567162
0.762873
0.981744
1.10593
1.17902
1.25559
1.34572
1.43237
1.42889
1.25792
0.88707
0.504554
0.315729
0.243598
0.227707
0.23151
0.25726
0.329813
0.476538
0.688866
0.760201
0.705541
0.610629
0.538205
0.497947
0.479318
0.476772
0.488119
0.521063
0.580021
0.663621
0.762649
0.864271
0.964381
1.06741
1.17631
1.28938
1.40004
1.50909
1.66121
1.92056
2.17778
2.19894
2.06439
1.83498
1.59541
1.38663
1.20841
1.05653
0.940791
0.877009
0.854205
0.840619
0.841714
0.908885
1.23667
2.05917
2.70023
2.79304
2.82707
2.81992
2.88163
3.0255
3.19816
3.16534
2.86994
2.35432
1.82389
1.49272
1.26407
1.08078
0.929368
0.792101
0.650764
0.498022
0.346281
0.251635
0.218636
0.208421
0.204146
0.202262
0.201852
0.202682
0.206571
0.215901
0.232428
0.256197
0.264159
0.273547
0.357139
0.53808
0.607841
0.524015
0.333584
0.214324
0.20585
0.198503
0.193346
0.191015
0.190355
0.191255
0.196058
0.210022
0.241008
0.292421
0.381974
0.555285
0.255074
0.263993
0.27332
0.286175
0.307196
0.341743
0.395935
0.479607
0.579521
0.629184
0.624027
0.577061
0.482548
0.371335
0.28686
0.231752
0.202155
0.190602
0.187573
0.188646
0.195507
0.215473
0.262394
0.356585
0.525151
0.791443
1.13972
1.47407
1.66235
1.64936
1.52285
1.40136
1.38807
1.43817
1.57928
1.80128
1.90971
1.82016
1.45507
0.904891
0.579571
0.499849
0.519118
0.637175
0.892235
1.2169
1.23493
1.09433
0.882343
0.720542
0.623467
0.56819
0.539139
0.529391
0.534933
0.559615
0.609012
0.682129
0.771905
0.868203
0.965813
1.06664
1.17369
1.28695
1.40256
1.52505
1.70964
2.01439
2.31061
2.36328
2.19667
1.92624
1.67871
1.47551
1.30015
1.14447
1.01951
0.948181
0.926844
0.922181
0.922771
0.972733
1.2416
1.94982
2.56706
2.74308
2.86704
2.89554
2.99078
3.2197
3.51018
3.44942
3.13157
2.57628
1.96209
1.59645
1.36684
1.18454
1.03231
0.889341
0.738403
0.571345
0.397012
0.274717
0.226787
0.212132
0.206557
0.204249
0.203795
0.204652
0.209273
0.220357
0.238706
0.261471
0.266645
0.278876
0.407056
0.619233
0.703576
0.616879
0.407318
0.220481
0.207975
0.201966
0.195624
0.192256
0.191364
0.19211
0.196215
0.208994
0.236487
0.281438
0.360086
0.514571
0.539143
0.569241
0.599051
0.640756
0.708608
0.81382
0.96146
1.14087
1.29991
1.37969
1.38738
1.3433
1.21605
0.995649
0.718329
0.473801
0.321425
0.255756
0.240324
0.249651
0.293943
0.401596
0.602545
0.906425
1.3057
1.76857
2.10508
2.18371
2.10035
1.8912
1.62161
1.42429
1.34104
1.34602
1.42319
1.62804
1.9904
2.27421
2.30315
2.15863
1.87583
1.77053
1.79881
1.93734
1.98611
1.87069
1.57942
1.22858
0.970943
0.803608
0.699939
0.637027
0.600203
0.583298
0.583776
0.60101
0.641934
0.706363
0.788726
0.88044
0.975692
1.07523
1.18108
1.29393
1.41208
1.54595
1.7528
2.08419
2.43365
2.57685
2.3531
2.00883
1.75006
1.55349
1.38402
1.22873
1.09946
1.02334
1.00349
1.00594
1.00772
1.04309
1.25882
1.86247
2.45906
2.71812
2.95212
3.02759
3.16731
3.49931
3.9696
3.80991
3.43538
2.83918
2.13744
1.72396
1.49034
1.30355
1.14561
0.994197
0.832823
0.65114
0.455004
0.303458
0.23711
0.21673
0.209554
0.206393
0.205582
0.206728
0.213075
0.225847
0.243402
0.266186
0.268421
0.289136
0.462676
0.70686
0.807268
0.718571
0.489574
0.245135
0.210001
0.204376
0.198241
0.193674
0.192832
0.193692
0.197362
0.209351
0.233958
0.273945
0.343677
0.482833
1.07636
1.15368
1.20661
1.25996
1.32954
1.42175
1.5284
1.6335
1.70211
1.74213
1.75785
1.75451
1.72069
1.64347
1.49421
1.24065
0.890597
0.662503
0.595202
0.621372
0.752478
1.02009
1.42669
1.91468
2.29652
2.44774
2.42423
2.26568
2.02521
1.77289
1.53986
1.36241
1.26109
1.2346
1.26094
1.36
1.57763
1.99064
2.51876
2.74545
2.77962
2.77124
2.72863
2.60378
2.3338
1.94476
1.53202
1.22222
1.00822
0.864127
0.767709
0.703782
0.661959
0.63861
0.633896
0.645038
0.678049
0.734781
0.810723
0.898625
0.992126
1.09072
1.19548
1.30727
1.42435
1.56644
1.79377
2.13686
2.58037
2.74173
2.49453
2.09069
1.81103
1.62008
1.45886
1.30735
1.17792
1.10011
1.0822
1.09085
1.09585
1.11921
1.28742
1.79371
2.36555
2.70528
3.06136
3.2046
3.42185
3.88165
4.69587
4.29179
3.77713
3.13146
2.34757
1.87465
1.63357
1.43739
1.27021
1.10736
0.934281
0.737415
0.520061
0.338288
0.249816
0.221119
0.211698
0.208203
0.207373
0.208557
0.21575
0.230485
0.247866
0.264859
0.271671
0.308982
0.524255
0.800879
0.918853
0.829173
0.580617
0.295816
0.213711
0.206593
0.201468
0.195942
0.194084
0.194827
0.198514
0.209935
0.233009
0.268924
0.331535
0.457098
1.28767
1.42096
1.49771
1.54961
1.59216
1.63371
1.66299
1.66362
1.64149
1.61584
1.6195
1.64527
1.69194
1.74521
1.7896
1.79978
1.73541
1.55767
1.43698
1.45384
1.63596
2.01635
2.40607
2.56917
2.57535
2.46122
2.21662
1.93337
1.72706
1.56562
1.41674
1.28924
1.19943
1.15402
1.15217
1.18865
1.29016
1.494
1.85522
2.35331
2.54543
2.53109
2.41524
2.1908
1.90643
1.61944
1.37011
1.17238
1.0237
0.912297
0.829867
0.769051
0.724203
0.695353
0.68518
0.691244
0.716979
0.766441
0.836463
0.920623
1.01268
1.1108
1.21447
1.32314
1.43812
1.58293
1.83013
2.19107
2.6544
2.75472
2.55635
2.16384
1.86469
1.67749
1.52499
1.38001
1.25355
1.17681
1.1614
1.17612
1.18675
1.20017
1.32585
1.74376
2.28078
2.69074
3.16005
3.38594
3.71368
4.3944
5.8677
4.95903
4.16278
3.4507
2.594
2.05064
1.79676
1.58669
1.40653
1.22997
1.0432
0.830184
0.592086
0.379589
0.265841
0.226597
0.214153
0.209856
0.208913
0.2105
0.219198
0.235849
0.253849
0.265146
0.275936
0.337682
0.591681
0.901125
1.03809
0.948733
0.680778
0.357793
0.221494
0.209252
0.203882
0.198428
0.195685
0.196139
0.200054
0.21113
0.233289
0.265927
0.32269
0.436401
0.996704
1.20303
1.33192
1.38926
1.39439
1.38182
1.35585
1.32404
1.28763
1.27138
1.27748
1.30069
1.34732
1.42255
1.5416
1.72586
1.95065
2.06551
2.0906
2.13265
2.25927
2.43638
2.50437
2.47894
2.33451
2.08096
1.80859
1.62558
1.50072
1.40448
1.31386
1.22788
1.15607
1.10617
1.08411
1.09024
1.128
1.21733
1.37889
1.62007
1.79323
1.81419
1.77665
1.68214
1.5448
1.39031
1.24818
1.13134
1.03587
0.955762
0.88913
0.833355
0.787102
0.753509
0.73772
0.739358
0.758325
0.800727
0.864911
0.945295
1.03551
1.13307
1.23575
1.33948
1.44984
1.598
1.85258
2.23829
2.66958
2.77608
2.59728
2.22491
1.91503
1.72821
1.58345
1.44664
1.32521
1.25201
1.23964
1.26043
1.28042
1.28503
1.37391
1.70864
2.2027
2.66615
3.22239
3.52521
3.99134
5.06862
7.13295
5.80792
4.597
3.79958
2.87733
2.25654
1.98372
1.75475
1.55606
1.36323
1.16002
0.929521
0.670978
0.427695
0.28577
0.233305
0.21696
0.211494
0.210245
0.211821
0.220146
0.238206
0.256192
0.266206
0.28144
0.372963
0.664744
1.00744
1.16465
1.07695
0.790322
0.428304
0.237751
0.213778
0.206611
0.200671
0.197555
0.198092
0.202345
0.213265
0.233973
0.26426
0.316614
0.420055
0.804127
0.933736
1.0335
1.09007
1.11352
1.12009
1.11845
1.1109
1.09933
1.09915
1.10944
1.13135
1.16766
1.224
1.31132
1.44373
1.62849
1.86153
2.0336
2.13152
2.23615
2.29892
2.26965
2.14679
1.94761
1.73261
1.56724
1.45366
1.37319
1.31038
1.24972
1.18853
1.13081
1.08289
1.05167
1.04123
1.05232
1.09272
1.17402
1.29426
1.40593
1.44005
1.43268
1.39808
1.3356
1.25608
1.17567
1.10835
1.04924
0.993732
0.941486
0.891956
0.846146
0.809128
0.788357
0.786127
0.79969
0.835757
0.894323
0.970834
1.05915
1.15576
1.25658
1.35504
1.45855
1.6113
1.86277
2.28191
2.64906
2.74082
2.60828
2.29139
1.96523
1.7774
1.63959
1.51276
1.39896
1.33229
1.3245
1.35292
1.38779
1.38601
1.43922
1.68827
2.12042
2.62042
3.23294
3.63321
4.36694
6.09181
8.01423
6.84457
5.25498
4.29767
3.30501
2.59006
2.28154
2.02533
1.79243
1.57283
1.34442
1.08856
0.801994
0.513953
0.325113
0.246914
0.222533
0.215089
0.213405
0.215396
0.228746
0.250598
0.270604
0.27598
0.30615
0.462753
0.841547
1.26899
1.48792
1.42178
1.10612
0.652705
0.316066
0.234472
0.220393
0.213329
0.209246
0.209127
0.214881
0.227828
0.246701
0.265854
0.287018
0.325103
0.729273
0.825332
0.906
0.957323
0.985049
0.998909
1.00573
1.00798
1.00888
1.01523
1.0282
1.04845
1.07821
1.12133
1.18512
1.28006
1.41725
1.60752
1.80754
1.9292
1.99894
2.00133
1.94481
1.82213
1.67008
1.53413
1.42807
1.35187
1.29681
1.25285
1.20926
1.16306
1.11545
1.07105
1.0361
1.01514
1.01168
1.02731
1.06879
1.13667
1.21015
1.24301
1.24822
1.23885
1.21302
1.17442
1.13213
1.09652
1.06267
1.02651
0.987133
0.944697
0.900984
0.86178
0.836836
0.830865
0.840356
0.87078
0.924005
0.996432
1.08234
1.1776
1.27584
1.36816
1.46456
1.61397
1.85713
2.24814
2.53512
2.64271
2.56747
2.32458
2.0174
1.82551
1.69409
1.5771
1.47373
1.41533
1.41309
1.45029
1.50668
1.50523
1.52541
1.68954
2.04144
2.55343
3.19163
3.75215
4.87437
7.29094
8.95568
7.86086
6.24866
4.97493
3.94011
3.19723
2.82819
2.5243
2.19078
1.89597
1.62149
1.32787
1.00657
0.666854
0.407126
0.277558
0.234023
0.222098
0.219912
0.222468
0.232778
0.253041
0.269716
0.293039
0.368908
0.629251
1.15364
1.73618
2.08517
2.09593
1.79223
1.24006
0.637341
0.318661
0.253399
0.239362
0.233322
0.233322
0.242284
0.26236
0.28919
0.313931
0.333242
0.347016
0.686566
0.759395
0.824989
0.871153
0.900589
0.919022
0.931635
0.940794
0.949709
0.96089
0.975354
0.994022
1.01891
1.0528
1.10072
1.16887
1.26549
1.39881
1.55232
1.65371
1.69476
1.69022
1.65135
1.5755
1.48186
1.39654
1.32781
1.27757
1.2405
1.20982
1.17863
1.14371
1.10502
1.06529
1.02947
1.00206
0.986471
0.987559
1.00565
1.04223
1.08942
1.12023
1.13491
1.13845
1.13287
1.11951
1.10342
1.0913
1.07768
1.0578
1.03026
0.995491
0.955434
0.91502
0.88619
0.876199
0.882162
0.90722
0.954937
1.02279
1.10557
1.19831
1.2935
1.37895
1.46984
1.6128
1.83071
2.15104
2.40381
2.56615
2.53934
2.33904
2.05803
1.86907
1.74445
1.63583
1.54313
1.49346
1.49508
1.54079
1.62057
1.62731
1.62463
1.71102
1.98014
2.47452
3.13638
3.86568
5.26581
7.68936
8.59079
7.89903
6.95589
5.60772
4.61487
4.03905
3.75452
3.42816
2.80692
2.28471
1.93058
1.58967
1.23419
0.853896
0.526361
0.334386
0.257245
0.234298
0.228887
0.229262
0.235197
0.249791
0.272742
0.319596
0.457586
0.82452
1.49739
2.24539
2.71927
2.81185
2.57184
2.00698
1.25283
0.605354
0.329584
0.276869
0.264556
0.26351
0.27531
0.303975
0.34171
0.372606
0.386566
0.38956
0.66527
0.721071
0.774334
0.815439
0.84507
0.86659
0.883711
0.898722
0.91296
0.927233
0.942416
0.959605
0.98069
1.00768
1.04407
1.09465
1.16442
1.25659
1.36468
1.43882
1.4689
1.46942
1.45047
1.40828
1.35233
1.29906
1.25534
1.22307
1.19924
1.17901
1.1571
1.13086
1.09955
1.06503
1.03027
0.999285
0.97521
0.964277
0.969052
0.987639
1.01728
1.04438
1.06298
1.07485
1.08116
1.08352
1.08607
1.09194
1.0951
1.08806
1.07086
1.04379
1.00827
0.968451
0.93609
0.921903
0.924773
0.94481
0.986956
1.04977
1.12858
1.21795
1.30925
1.38742
1.47293
1.60507
1.78932
2.04796
2.30494
2.48533
2.50284
2.33395
2.08377
1.90856
1.79124
1.69089
1.60712
1.56642
1.5701
1.62224
1.72379
1.7503
1.73101
1.75769
1.94958
2.40989
3.10535
3.97316
5.53826
7.51636
7.91309
7.8568
7.17967
6.08105
5.12728
5.01756
5.42113
5.31002
3.9779
2.77813
2.26116
1.86663
1.47885
1.0702
0.683459
0.429739
0.310946
0.270113
0.256967
0.251596
0.251163
0.257933
0.285279
0.363928
0.571601
1.04479
1.86269
2.77257
3.33532
3.48962
3.34622
2.86702
2.09461
1.22214
0.572236
0.341637
0.302581
0.299409
0.315596
0.365862
0.444454
0.5073
0.507455
0.467016
0.659224
0.703303
0.746765
0.783189
0.812202
0.835924
0.856572
0.875653
0.893379
0.909358
0.92484
0.940847
0.958952
0.98067
1.00869
1.04654
1.09795
1.16474
1.24206
1.29548
1.31959
1.32301
1.31467
1.29283
1.26167
1.22963
1.20277
1.18389
1.1706
1.15879
1.14439
1.12487
1.0998
1.0708
1.03891
1.00602
0.975358
0.954757
0.949593
0.957272
0.975253
0.997201
1.01715
1.03402
1.04828
1.0618
1.07749
1.09749
1.11524
1.11772
1.10895
1.08918
1.05875
1.02108
0.98607
0.967778
0.967802
0.983248
1.01987
1.07725
1.1513
1.2367
1.32296
1.39398
1.47447
1.59456
1.75068
1.96209
2.20531
2.39449
2.43249
2.30934
2.09658
1.94223
1.83411
1.74309
1.66728
1.63351
1.63844
1.69348
1.81134
1.86908
1.84522
1.82474
1.95887
2.39393
3.14214
4.12952
5.64824
6.91524
7.41752
7.333
7.19236
6.4309
5.49482
5.84467
7.22516
6.96882
5.59883
3.37772
2.59202
2.14051
1.73255
1.30912
0.876637
0.565771
0.408367
0.352156
0.336261
0.331455
0.323302
0.310078
0.3303
0.433206
0.705776
1.27803
2.23104
3.29615
3.91259
4.0668
4.01655
3.69309
3.03917
2.13642
1.17448
0.536823
0.363555
0.349482
0.394828
0.528441
0.759808
1.002
1.06044
0.868916
0.66603
0.700583
0.737223
0.770101
0.798491
0.82346
0.845961
0.8675
0.887354
0.904212
0.919738
0.934887
0.950643
0.968182
0.990021
1.01928
1.05827
1.10819
1.1657
1.205
1.22278
1.22732
1.22415
1.21379
1.19756
1.18001
1.16576
1.15697
1.15257
1.1483
1.1401
1.12631
1.10753
1.08357
1.0542
1.02073
0.985664
0.957318
0.943054
0.943669
0.953632
0.970464
0.989825
1.00949
1.02922
1.05051
1.07574
1.10688
1.1368
1.14825
1.14507
1.13163
1.10638
1.07192
1.0357
1.01359
1.01074
1.02231
1.05351
1.10514
1.17389
1.25462
1.33507
1.3988
1.47343
1.58046
1.71151
1.88483
2.10699
2.30303
2.35697
2.2668
2.09862
1.96762
1.87298
1.79298
1.72463
1.69469
1.70007
1.75463
1.88028
1.97731
1.96136
1.90917
2.00159
2.41777
3.24296
4.38101
5.80987
6.34392
6.8538
6.8871
7.11749
6.72149
6.08058
7.07053
8.29916
7.75509
6.44441
3.89386
2.89235
2.39684
1.98264
1.55853
1.10228
0.738738
0.543431
0.475366
0.464535
0.471467
0.468581
0.434436
0.433615
0.537174
0.856931
1.51478
2.60258
3.83368
4.55149
4.59906
4.53475
4.38258
3.94072
3.19308
2.16886
1.09711
0.552003
0.485879
0.590861
0.891325
1.4134
2.01062
2.29135
2.04149
0.687901
0.713423
0.742174
0.771481
0.799168
0.824909
0.84883
0.872596
0.89444
0.911531
0.926685
0.94039
0.953465
0.967614
0.985129
1.00852
1.03939
1.07846
1.12199
1.15099
1.16326
1.16662
1.16567
1.16126
1.15406
1.14627
1.14139
1.14112
1.14468
1.1473
1.14471
1.13648
1.12339
1.1035
1.07585
1.04195
1.00411
0.970033
0.948564
0.942418
0.947036
0.959173
0.976766
0.997461
1.02059
1.04733
1.07997
1.11994
1.15984
1.17946
1.18038
1.17159
1.15101
1.12012
1.08437
1.05902
1.05321
1.0616
1.08767
1.13341
1.19639
1.27184
1.34603
1.40237
1.46983
1.56324
1.672
1.81785
2.01904
2.20991
2.27935
2.21692
2.09312
1.98749
1.90793
1.8403
1.77972
1.75114
1.75535
1.80645
1.93118
2.06753
2.0711
2.00961
2.07382
2.47459
3.37379
4.68991
5.84918
5.91787
6.25789
6.47177
6.89778
6.89595
7.03446
8.20122
8.68697
8.12311
6.791
4.3319
3.157
2.62771
2.22033
1.809
1.35196
0.944044
0.710084
0.631318
0.628582
0.658839
0.67085
0.626412
0.59191
0.680518
1.02091
1.75153
2.99417
4.35319
5.03641
5.02831
4.97471
4.9162
4.68611
4.19554
3.35703
2.13225
1.0856
0.817401
0.965024
1.48896
2.39807
3.43234
4.01401
3.91846
0.728628
0.746222
0.767831
0.793326
0.820133
0.847142
0.872277
0.897264
0.919776
0.935337
0.948813
0.960209
0.970041
0.980397
0.993533
1.01216
1.03793
1.07034
1.10304
1.12285
1.12992
1.13034
1.12913
1.12732
1.12534
1.12489
1.12736
1.13471
1.14697
1.15665
1.15912
1.15678
1.14876
1.13211
1.10558
1.07074
1.03079
0.992612
0.965796
0.953278
0.953186
0.960689
0.975532
0.995824
1.02077
1.0516
1.09047
1.13769
1.18634
1.21354
1.21829
1.21239
1.1956
1.16831
1.13438
1.10646
1.09766
1.10327
1.12432
1.16381
1.22039
1.28964
1.35715
1.40563
1.46439
1.54247
1.63158
1.75717
1.93954
2.12416
2.20025
2.1663
2.0854
2.00851
1.94301
1.88772
1.83676
1.80731
1.80861
1.85342
1.97163
2.1347
2.17689
2.12599
2.171
2.54272
3.44975
4.82041
5.53226
5.47349
5.69968
6.0308
6.69816
7.16077
7.74653
8.54328
8.50369
8.2215
7.00974
4.68542
3.40788
2.84706
2.4545
2.0675
1.63103
1.19142
0.918486
0.827843
0.834775
0.899956
0.940175
0.893503
0.814004
0.87339
1.20937
2.01016
3.35224
4.75359
5.40648
5.43506
5.40536
5.38199
5.29928
5.0787
4.56889
3.54888
2.10449
1.44677
1.59006
2.37324
3.72138
5.1602
5.99292
6.15354
0.802895
0.810508
0.823
0.844679
0.87171
0.901592
0.926936
0.950169
0.970152
0.981344
0.990265
0.997905
1.00356
1.00962
1.01907
1.03488
1.05843
1.08772
1.11116
1.12233
1.12358
1.12012
1.1151
1.11377
1.11457
1.11848
1.12743
1.14269
1.16412
1.18041
1.18819
1.18968
1.18481
1.17046
1.1448
1.10901
1.06721
1.02669
0.996433
0.97927
0.974395
0.977784
0.988815
1.0071
1.03232
1.06563
1.1088
1.1613
1.21674
1.25128
1.26012
1.25574
1.24116
1.21654
1.18493
1.15542
1.14369
1.14695
1.16331
1.19647
1.24606
1.30843
1.36887
1.40922
1.45787
1.52124
1.59336
1.70468
1.87288
2.04707
2.12899
2.12035
2.07772
2.02435
1.97604
1.93423
1.89456
1.86425
1.85991
1.89618
2.00174
2.17135
2.26662
2.2457
2.27782
2.58701
3.38175
4.58486
4.94851
4.96851
5.15558
5.61904
6.6237
7.2162
7.87886
8.32456
8.46438
8.45488
7.04519
4.81415
3.61642
3.04749
2.67384
2.32367
1.9238
1.47992
1.17
1.06499
1.08204
1.18884
1.27576
1.23503
1.10932
1.11922
1.41864
2.22008
3.48485
4.70733
5.13472
5.26754
5.441
5.67212
5.72458
5.6965
5.5456
4.98571
3.65678
2.46066
2.50099
3.4993
5.30391
7.08598
7.89266
8.12746
0.947712
0.935141
0.927372
0.944819
0.974665
1.01179
1.03471
1.04879
1.05584
1.05445
1.05357
1.05486
1.05514
1.05638
1.06246
1.07757
1.10335
1.13389
1.14956
1.15149
1.14645
1.13528
1.12349
1.12018
1.12166
1.12831
1.14292
1.16675
1.19818
1.22072
1.23114
1.23453
1.23084
1.21744
1.19221
1.15611
1.11358
1.07272
1.0411
1.0212
1.0124
1.01244
1.01878
1.03355
1.05752
1.09174
1.13714
1.19202
1.25104
1.29151
1.30473
1.30161
1.28796
1.26417
1.23398
1.20341
1.18896
1.1903
1.20259
1.22988
1.27256
1.32782
1.38152
1.41383
1.45272
1.50335
1.56449
1.66548
1.82035
1.98446
2.07257
2.08216
2.0631
2.02847
2.00122
1.97664
1.94998
1.92191
1.90954
1.93499
2.02321
2.18037
2.324
2.34189
2.37144
2.59882
3.19344
4.06359
4.33522
4.44151
4.65663
5.18481
6.6247
7.32886
7.70545
7.79892
7.9391
7.84819
6.65414
4.8439
3.72202
3.18947
2.85952
2.55307
2.19842
1.77705
1.44121
1.32328
1.34864
1.49187
1.64187
1.61706
1.45847
1.40214
1.6298
2.33242
3.45055
4.42773
4.72663
5.02503
5.27356
5.61627
5.88748
5.99691
6.06662
5.95933
5.20481
3.80224
3.63003
4.70503
6.79142
8.89539
9.97794
10.0364
1.28831
1.21999
1.14596
1.15311
1.1875
1.241
1.25225
1.23571
1.20142
1.16867
1.14891
1.13949
1.13139
1.12608
1.1299
1.14694
1.18047
1.216
1.22373
1.21787
1.20221
1.17741
1.15483
1.14711
1.14822
1.15703
1.17756
1.21123
1.25429
1.28149
1.29279
1.29487
1.29028
1.27618
1.25137
1.21606
1.17513
1.13651
1.10582
1.08503
1.07314
1.06896
1.07086
1.08084
1.10209
1.13606
1.1822
1.23733
1.29616
1.33815
1.35432
1.35263
1.33947
1.31501
1.28427
1.25221
1.23465
1.23413
1.24298
1.26483
1.30077
1.3488
1.39581
1.4206
1.4511
1.49266
1.54799
1.6414
1.78283
1.93463
2.02469
2.05063
2.04863
2.02856
2.02024
2.01687
2.00385
1.98203
1.9614
1.97333
2.04101
2.17576
2.34079
2.40526
2.44581
2.59799
2.97226
3.51594
3.78995
3.95355
4.17945
4.80567
6.3165
6.80922
6.87994
7.19351
7.54349
7.32316
6.31558
4.83852
3.77904
3.26515
3.00351
2.75165
2.44872
2.06893
1.72264
1.5947
1.62471
1.79238
2.01137
2.01664
1.85509
1.71594
1.85301
2.3971
3.31795
4.07608
4.47078
4.85716
5.19738
5.56809
5.90774
6.09129
6.25036
6.39137
6.20073
5.24661
4.89672
5.68993
7.36928
8.93293
9.5181
10.0703
2.22087
1.98486
1.68917
1.64412
1.67733
1.76016
1.73368
1.63014
1.46944
1.3562
1.29808
1.26936
1.24768
1.23324
1.23494
1.25632
1.30536
1.34865
1.34865
1.33313
1.30106
1.25492
1.21502
1.20012
1.19983
1.20974
1.23614
1.28219
1.34059
1.37281
1.38192
1.38096
1.37085
1.35308
1.32871
1.29663
1.26203
1.2309
1.20482
1.18522
1.17042
1.15948
1.153
1.156
1.17252
1.20498
1.25159
1.30755
1.36508
1.40426
1.41831
1.4156
1.40056
1.37343
1.34058
1.30586
1.28397
1.28048
1.28649
1.30321
1.3324
1.373
1.4133
1.43091
1.4544
1.49137
1.54437
1.63265
1.76071
1.89767
1.98621
2.0273
2.0393
2.03325
2.03887
2.05824
2.05927
2.0448
2.01924
2.01613
2.05923
2.16645
2.32435
2.43488
2.49232
2.59579
2.81365
3.1317
3.36524
3.53504
3.77446
4.39925
5.67035
6.01308
6.32586
6.82523
6.95671
6.73725
5.93129
4.69536
3.75753
3.32577
3.11245
2.9156
2.66841
2.34003
2.00109
1.86948
1.89995
2.076
2.35397
2.41133
2.27705
2.06927
2.10679
2.46735
3.14132
3.75632
4.25793
4.74527
5.19109
5.57064
5.87803
6.09254
6.27347
6.4967
6.61644
6.30052
6.04216
6.43072
7.42235
8.18543
8.40275
8.70346
4.63143
4.01889
3.12904
2.87222
2.85933