/*--------------------------------*- C++ -*----------------------------------*\
| =========                 |                                                 |
| \\      /  F ield         | OpenFOAM: The Open Source CFD Toolbox           |
|  \\    /   O peration     | Version:  v1912                                 |
|   \\  /    A nd           | Website:  www.openfoam.com                      |
|    \\/     M anipulation  |                                                 |
\*---------------------------------------------------------------------------*/
FoamFile
{
    version     2.0;
    format      ascii;
    class       volScalarField;
    location    "10";
    object      p_rgh;
}
// * * * * * * * * * * * * * * * * * * * * * * * * * * * * * * * * * * * * * //

dimensions      [1 -1 -2 0 0 0 0];


internalField   nonuniform List<scalar> 
14268
(
2.61996e-05
2.46946e-05
2.32722e-05
2.1928e-05
2.06577e-05
1.94578e-05
1.83242e-05
1.7254e-05
1.62434e-05
1.52896e-05
1.43893e-05
1.35402e-05
1.2739e-05
1.19836e-05
1.12712e-05
1.05999e-05
9.96716e-06
9.37112e-06
8.80958e-06
8.28087e-06
7.78305e-06
7.31452e-06
6.87363e-06
6.45884e-06
6.06876e-06
5.70193e-06
5.35715e-06
5.03308e-06
4.72865e-06
4.44266e-06
4.17415e-06
3.92202e-06
3.68545e-06
3.46343e-06
3.25522e-06
3.05993e-06
2.87689e-06
2.70531e-06
2.54458e-06
2.39399e-06
2.25302e-06
2.12101e-06
1.99752e-06
1.88195e-06
1.77388e-06
1.67283e-06
1.57838e-06
1.49013e-06
1.40768e-06
1.33072e-06
1.25884e-06
1.1918e-06
1.12923e-06
1.07091e-06
1.01651e-06
9.65838e-07
9.18613e-07
8.74655e-07
8.33718e-07
7.95636e-07
7.60202e-07
7.27267e-07
6.96647e-07
6.68208e-07
6.4179e-07
6.17268e-07
5.94513e-07
5.73419e-07
5.53857e-07
5.35744e-07
5.18965e-07
5.03446e-07
4.89089e-07
4.75826e-07
4.63577e-07
4.52277e-07
4.41861e-07
4.32272e-07
4.23454e-07
4.15349e-07
4.0792e-07
4.01114e-07
3.949e-07
3.89232e-07
3.84084e-07
3.79419e-07
3.75212e-07
3.71437e-07
3.6807e-07
3.65093e-07
3.62486e-07
3.60236e-07
3.58329e-07
3.56756e-07
3.55507e-07
3.54579e-07
3.53968e-07
3.53673e-07
3.53699e-07
3.54048e-07
3.5473e-07
3.55753e-07
3.57133e-07
3.58883e-07
3.61028e-07
3.6358e-07
3.66585e-07
3.70025e-07
3.74027e-07
3.7844e-07
3.83631e-07
3.89051e-07
3.95717e-07
4.02054e-07
4.10635e-07
4.17547e-07
4.28715e-07
4.35471e-07
4.50137e-07
4.5561e-07
4.74851e-07
4.77678e-07
5.02622e-07
5.01599e-07
5.33434e-07
5.28121e-07
5.67292e-07
5.58131e-07
6.0465e-07
5.92486e-07
6.44949e-07
6.31148e-07
6.86496e-07
6.72918e-07
7.27396e-07
7.15866e-07
7.65996e-07
7.57948e-07
8.01247e-07
7.97383e-07
8.3249e-07
8.32302e-07
8.59313e-07
8.61885e-07
8.81807e-07
8.86023e-07
9.00192e-07
9.05101e-07
9.14888e-07
9.19733e-07
9.26355e-07
9.30594e-07
9.34975e-07
9.38321e-07
9.41031e-07
9.43452e-07
9.44574e-07
9.46258e-07
9.45609e-07
9.46611e-07
9.4339e-07
9.436e-07
9.3292e-07
9.31122e-07
2.618e-05
2.46752e-05
2.32529e-05
2.19089e-05
2.06388e-05
1.9439e-05
1.83056e-05
1.72355e-05
1.6225e-05
1.52713e-05
1.43712e-05
1.35221e-05
1.2721e-05
1.19658e-05
1.12535e-05
1.05823e-05
9.94957e-06
9.35361e-06
8.79214e-06
8.2635e-06
7.76574e-06
7.29728e-06
6.85644e-06
6.44171e-06
6.05168e-06
5.6849e-06
5.34017e-06
5.01614e-06
4.71176e-06
4.4258e-06
4.15733e-06
3.90524e-06
3.6687e-06
3.44671e-06
3.23853e-06
3.04327e-06
2.86026e-06
2.68869e-06
2.52799e-06
2.37742e-06
2.23647e-06
2.10448e-06
1.981e-06
1.86545e-06
1.7574e-06
1.65636e-06
1.56192e-06
1.47369e-06
1.39125e-06
1.3143e-06
1.24243e-06
1.1754e-06
1.11284e-06
1.05453e-06
1.00013e-06
9.49471e-07
9.02254e-07
8.58289e-07
8.17357e-07
7.7928e-07
7.4385e-07
7.1092e-07
6.80304e-07
6.51867e-07
6.25463e-07
6.0097e-07
5.78221e-07
5.57132e-07
5.37575e-07
5.19467e-07
5.02691e-07
4.87177e-07
4.72823e-07
4.59564e-07
4.47317e-07
4.3602e-07
4.25607e-07
4.16021e-07
4.07197e-07
3.99093e-07
3.91666e-07
3.84861e-07
3.78649e-07
3.72982e-07
3.67835e-07
3.63171e-07
3.58965e-07
3.55191e-07
3.51825e-07
3.48849e-07
3.46243e-07
3.43994e-07
3.42087e-07
3.40514e-07
3.39267e-07
3.38339e-07
3.37729e-07
3.37435e-07
3.37461e-07
3.37811e-07
3.38494e-07
3.39517e-07
3.40898e-07
3.42648e-07
3.44794e-07
3.47347e-07
3.50353e-07
3.53793e-07
3.57798e-07
3.62209e-07
3.67404e-07
3.72829e-07
3.79496e-07
3.85828e-07
3.94418e-07
4.01319e-07
4.12492e-07
4.19239e-07
4.33908e-07
4.39343e-07
4.58612e-07
4.61418e-07
4.86368e-07
4.85357e-07
5.17141e-07
5.11884e-07
5.51014e-07
5.41898e-07
5.88388e-07
5.76255e-07
6.28713e-07
6.14918e-07
6.70266e-07
6.56686e-07
7.11169e-07
6.99629e-07
7.49769e-07
7.41684e-07
7.85017e-07
7.81121e-07
8.16257e-07
8.16077e-07
8.43075e-07
8.45671e-07
8.65547e-07
8.69808e-07
8.83924e-07
8.88884e-07
8.98653e-07
9.03513e-07
9.10125e-07
9.14366e-07
9.18749e-07
9.22095e-07
9.248e-07
9.27218e-07
9.28343e-07
9.30016e-07
9.2938e-07
9.30329e-07
9.27128e-07
9.27329e-07
9.16368e-07
9.14515e-07
2.61063e-05
2.46017e-05
2.31796e-05
2.18357e-05
2.05657e-05
1.93661e-05
1.82328e-05
1.71628e-05
1.61524e-05
1.51989e-05
1.42988e-05
1.34499e-05
1.26489e-05
1.18937e-05
1.11815e-05
1.05104e-05
9.87775e-06
9.28186e-06
8.72046e-06
8.19189e-06
7.69419e-06
7.22579e-06
6.78501e-06
6.37033e-06
5.98035e-06
5.61362e-06
5.26892e-06
4.94494e-06
4.64059e-06
4.35467e-06
4.08623e-06
3.83418e-06
3.59767e-06
3.37571e-06
3.16756e-06
2.97232e-06
2.78933e-06
2.61779e-06
2.45711e-06
2.30656e-06
2.16563e-06
2.03366e-06
1.9102e-06
1.79466e-06
1.68662e-06
1.5856e-06
1.49118e-06
1.40295e-06
1.32053e-06
1.24359e-06
1.17174e-06
1.10472e-06
1.04216e-06
9.83856e-07
9.29473e-07
8.78818e-07
8.31608e-07
7.87672e-07
7.46748e-07
7.08678e-07
6.73255e-07
6.40331e-07
6.09721e-07
5.81291e-07
5.54877e-07
5.30344e-07
5.07595e-07
4.86506e-07
4.66949e-07
4.48841e-07
4.32066e-07
4.16552e-07
4.02198e-07
3.88939e-07
3.76693e-07
3.65396e-07
3.54983e-07
3.45393e-07
3.36582e-07
3.2848e-07
3.21053e-07
3.14249e-07
3.08037e-07
3.02371e-07
2.97225e-07
2.92562e-07
2.88356e-07
2.84583e-07
2.81217e-07
2.78242e-07
2.75636e-07
2.73388e-07
2.71482e-07
2.6991e-07
2.68663e-07
2.67736e-07
2.67126e-07
2.66833e-07
2.6686e-07
2.6721e-07
2.67894e-07
2.68918e-07
2.703e-07
2.72051e-07
2.74198e-07
2.76752e-07
2.79759e-07
2.83202e-07
2.87205e-07
2.91622e-07
2.96812e-07
3.02235e-07
3.089e-07
3.15251e-07
3.23825e-07
3.30756e-07
3.41914e-07
3.48692e-07
3.63349e-07
3.68863e-07
3.88078e-07
3.90936e-07
4.15866e-07
4.14852e-07
4.46712e-07
4.41379e-07
4.8057e-07
4.71395e-07
5.17927e-07
5.05755e-07
5.58221e-07
5.44421e-07
5.99772e-07
5.86192e-07
6.40675e-07
6.2914e-07
6.79272e-07
6.71231e-07
7.14517e-07
7.10656e-07
7.45752e-07
7.45535e-07
7.72566e-07
7.75093e-07
7.95058e-07
7.9922e-07
8.13435e-07
8.1829e-07
8.28096e-07
8.32913e-07
8.39549e-07
8.43774e-07
8.48156e-07
8.51498e-07
8.54205e-07
8.56628e-07
8.57741e-07
8.59433e-07
8.58774e-07
8.59805e-07
8.5657e-07
8.56762e-07
8.45965e-07
8.43986e-07
2.59964e-05
2.4492e-05
2.307e-05
2.17263e-05
2.04564e-05
1.9257e-05
1.81238e-05
1.7054e-05
1.60437e-05
1.50903e-05
1.41904e-05
1.33415e-05
1.25406e-05
1.17855e-05
1.10734e-05
1.04023e-05
9.76979e-06
9.17398e-06
8.61265e-06
8.08415e-06
7.58651e-06
7.11816e-06
6.67744e-06
6.26281e-06
5.87288e-06
5.50619e-06
5.16155e-06
4.8376e-06
4.5333e-06
4.24742e-06
3.97901e-06
3.72699e-06
3.49051e-06
3.26858e-06
3.06046e-06
2.86525e-06
2.68228e-06
2.51077e-06
2.35011e-06
2.19958e-06
2.05867e-06
1.92672e-06
1.80327e-06
1.68775e-06
1.57973e-06
1.47872e-06
1.38431e-06
1.2961e-06
1.21369e-06
1.13676e-06
1.06491e-06
9.97903e-07
9.35359e-07
8.77061e-07
8.22686e-07
7.72038e-07
7.24835e-07
6.80886e-07
6.39966e-07
6.019e-07
5.6648e-07
5.3356e-07
5.02953e-07
4.74525e-07
4.48127e-07
4.2365e-07
4.00909e-07
3.79828e-07
3.60278e-07
3.42177e-07
3.25407e-07
3.09899e-07
2.95551e-07
2.82297e-07
2.70056e-07
2.58763e-07
2.48355e-07
2.38766e-07
2.29946e-07
2.21845e-07
2.14421e-07
2.07619e-07
2.01409e-07
1.95744e-07
1.90599e-07
1.85937e-07
1.81733e-07
1.77961e-07
1.74596e-07
1.71622e-07
1.69017e-07
1.6677e-07
1.64865e-07
1.63293e-07
1.62047e-07
1.6112e-07
1.60512e-07
1.60219e-07
1.60247e-07
1.60597e-07
1.61282e-07
1.62306e-07
1.63689e-07
1.65441e-07
1.67589e-07
1.70143e-07
1.73151e-07
1.76593e-07
1.806e-07
1.85012e-07
1.90212e-07
1.95636e-07
2.0231e-07
2.08643e-07
2.17235e-07
2.24135e-07
2.35315e-07
2.42057e-07
2.56726e-07
2.62159e-07
2.81426e-07
2.84241e-07
3.09174e-07
3.08185e-07
3.39939e-07
3.34718e-07
3.73826e-07
3.64739e-07
4.11218e-07
3.99103e-07
4.51555e-07
4.37768e-07
4.93118e-07
4.79534e-07
5.34027e-07
5.22469e-07
5.72625e-07
5.64515e-07
6.07869e-07
6.0394e-07
6.39101e-07
6.38907e-07
6.65908e-07
6.68506e-07
6.88372e-07
6.92638e-07
7.06738e-07
7.11705e-07
7.21466e-07
7.26328e-07
7.32935e-07
7.37171e-07
7.41556e-07
7.44897e-07
7.47598e-07
7.50013e-07
7.51138e-07
7.52801e-07
7.52174e-07
7.53098e-07
7.49901e-07
7.50084e-07
7.39523e-07
7.37526e-07
2.59183e-05
2.44141e-05
2.29923e-05
2.16487e-05
2.0379e-05
1.91797e-05
1.80467e-05
1.69769e-05
1.59668e-05
1.50135e-05
1.41137e-05
1.32649e-05
1.24641e-05
1.17091e-05
1.09971e-05
1.03261e-05
9.69364e-06
9.0979e-06
8.53663e-06
8.0082e-06
7.51062e-06
7.04233e-06
6.60166e-06
6.18709e-06
5.79721e-06
5.43057e-06
5.08597e-06
4.76206e-06
4.4578e-06
4.17195e-06
3.90358e-06
3.65159e-06
3.41514e-06
3.19325e-06
2.98515e-06
2.78996e-06
2.60703e-06
2.43553e-06
2.27489e-06
2.12439e-06
1.98349e-06
1.85156e-06
1.72813e-06
1.61263e-06
1.50462e-06
1.40363e-06
1.30923e-06
1.22103e-06
1.13863e-06
1.06171e-06
9.89882e-07
9.22882e-07
8.60347e-07
8.02058e-07
7.4769e-07
6.9705e-07
6.49854e-07
6.05924e-07
5.65013e-07
5.26955e-07
4.91542e-07
4.58629e-07
4.28029e-07
3.99608e-07
3.73197e-07
3.48676e-07
3.25933e-07
3.04851e-07
2.85301e-07
2.67199e-07
2.5043e-07
2.3492e-07
2.20572e-07
2.07317e-07
1.95076e-07
1.83783e-07
1.73374e-07
1.63789e-07
1.54979e-07
1.46879e-07
1.39456e-07
1.32655e-07
1.26445e-07
1.20782e-07
1.15638e-07
1.10977e-07
1.06774e-07
1.03003e-07
9.96395e-08
9.66662e-08
9.40623e-08
9.18159e-08
8.99115e-08
8.8341e-08
8.70953e-08
8.61694e-08
8.55614e-08
8.52693e-08
8.52979e-08
8.5649e-08
8.63339e-08
8.7359e-08
8.87422e-08
9.04948e-08
9.26429e-08
9.51981e-08
9.82061e-08
1.01651e-07
1.05656e-07
1.10075e-07
1.15266e-07
1.20695e-07
1.27359e-07
1.33716e-07
1.4229e-07
1.49227e-07
1.6038e-07
1.67171e-07
1.81831e-07
1.8735e-07
2.06574e-07
2.0943e-07
2.34372e-07
2.33358e-07
2.65227e-07
2.59891e-07
2.99083e-07
2.89914e-07
3.36442e-07
3.24281e-07
3.7675e-07
3.6295e-07
4.18308e-07
4.04722e-07
4.59213e-07
4.47667e-07
4.97809e-07
4.8975e-07
5.33049e-07
5.29172e-07
5.64275e-07
5.64038e-07
5.91077e-07
5.93572e-07
6.13551e-07
6.17685e-07
6.31917e-07
6.3675e-07
6.46566e-07
6.51368e-07
6.5801e-07
6.62224e-07
6.66609e-07
6.69946e-07
6.72649e-07
6.75071e-07
6.76178e-07
6.77871e-07
6.77207e-07
6.78236e-07
6.75011e-07
6.75194e-07
6.64977e-07
6.63114e-07
2.58802e-05
2.43761e-05
2.29545e-05
2.16111e-05
2.03415e-05
1.91424e-05
1.80095e-05
1.69399e-05
1.59299e-05
1.49767e-05
1.4077e-05
1.32284e-05
1.24277e-05
1.16728e-05
1.09608e-05
1.029e-05
9.65758e-06
9.06192e-06
8.50074e-06
7.97237e-06
7.47487e-06
7.00664e-06
6.56604e-06
6.15152e-06
5.76169e-06
5.39511e-06
5.05056e-06
4.7267e-06
4.42248e-06
4.13668e-06
3.86835e-06
3.6164e-06
3.37998e-06
3.15812e-06
2.95005e-06
2.7549e-06
2.57199e-06
2.40052e-06
2.2399e-06
2.08942e-06
1.94854e-06
1.81663e-06
1.69322e-06
1.57774e-06
1.46975e-06
1.36877e-06
1.27438e-06
1.1862e-06
1.10381e-06
1.0269e-06
9.5508e-07
8.88089e-07
8.25563e-07
7.67282e-07
7.12923e-07
6.6229e-07
6.15101e-07
5.71172e-07
5.30265e-07
4.9221e-07
4.56802e-07
4.23891e-07
3.93293e-07
3.64874e-07
3.38479e-07
3.13993e-07
2.91259e-07
2.70184e-07
2.50639e-07
2.32542e-07
2.15777e-07
2.00273e-07
1.85929e-07
1.72678e-07
1.6044e-07
1.4915e-07
1.38745e-07
1.2916e-07
1.20346e-07
1.12248e-07
1.04826e-07
9.80251e-08
9.18169e-08
8.6154e-08
8.10105e-08
7.635e-08
7.21471e-08
6.83762e-08
6.50127e-08
6.20396e-08
5.94358e-08
5.71896e-08
5.52853e-08
5.3715e-08
5.24697e-08
5.15443e-08
5.09369e-08
5.06454e-08
5.0675e-08
5.1027e-08
5.17131e-08
5.27393e-08
5.41241e-08
5.5878e-08
5.80277e-08
6.05844e-08
6.35943e-08
6.70395e-08
7.10486e-08
7.54647e-08
8.06657e-08
8.60899e-08
9.2769e-08
9.91043e-08
1.07701e-07
1.14606e-07
1.25789e-07
1.32537e-07
1.47192e-07
1.52668e-07
1.7189e-07
1.74758e-07
1.99643e-07
1.987e-07
2.30434e-07
2.25241e-07
2.64337e-07
2.55271e-07
3.01746e-07
2.89641e-07
3.42092e-07
3.28309e-07
3.83667e-07
3.70073e-07
4.24582e-07
4.13001e-07
4.6318e-07
4.55042e-07
4.98419e-07
4.94442e-07
5.29641e-07
5.29389e-07
5.56436e-07
5.5899e-07
5.78895e-07
5.83118e-07
5.97249e-07
6.02173e-07
6.11944e-07
6.16789e-07
6.234e-07
6.27628e-07
6.3201e-07
6.35346e-07
6.3805e-07
6.40459e-07
6.41587e-07
6.43247e-07
6.42619e-07
6.43566e-07
6.40374e-07
6.40544e-07
6.30148e-07
6.28401e-07
2.58661e-05
2.43622e-05
2.29408e-05
2.15976e-05
2.03282e-05
1.91292e-05
1.79964e-05
1.6927e-05
1.59171e-05
1.4964e-05
1.40644e-05
1.32159e-05
1.24153e-05
1.16605e-05
1.09487e-05
1.02779e-05
9.6456e-06
9.05002e-06
8.48891e-06
7.96062e-06
7.46318e-06
6.99502e-06
6.55448e-06
6.14002e-06
5.75025e-06
5.38371e-06
5.03921e-06
4.7154e-06
4.41122e-06
4.12546e-06
3.85717e-06
3.60526e-06
3.36888e-06
3.14705e-06
2.93901e-06
2.74389e-06
2.56101e-06
2.38956e-06
2.22897e-06
2.07851e-06
1.93767e-06
1.80578e-06
1.68238e-06
1.56692e-06
1.45894e-06
1.35798e-06
1.26361e-06
1.17545e-06
1.09307e-06
1.01618e-06
9.44369e-07
8.77391e-07
8.14877e-07
7.56607e-07
7.02258e-07
6.51635e-07
6.04454e-07
5.60536e-07
5.19638e-07
4.81593e-07
4.46192e-07
4.1329e-07
3.827e-07
3.54289e-07
3.27895e-07
3.034e-07
2.80667e-07
2.59594e-07
2.40052e-07
2.21958e-07
2.05196e-07
1.89694e-07
1.75352e-07
1.62104e-07
1.49868e-07
1.3858e-07
1.28177e-07
1.18595e-07
1.09786e-07
1.0169e-07
9.42709e-08
8.74733e-08
8.12676e-08
7.56074e-08
7.04664e-08
6.58084e-08
6.16079e-08
5.78392e-08
5.4478e-08
5.15069e-08
4.8905e-08
4.66605e-08
4.47578e-08
4.31889e-08
4.19447e-08
4.10203e-08
4.04136e-08
4.01227e-08
4.01525e-08
4.05047e-08
4.11907e-08
4.22168e-08
4.3601e-08
4.53545e-08
4.75035e-08
5.00597e-08
5.30689e-08
5.65141e-08
6.05214e-08
6.494e-08
7.01353e-08
7.55666e-08
8.22326e-08
8.85887e-08
9.71725e-08
1.04101e-07
1.15265e-07
1.22046e-07
1.36732e-07
1.42206e-07
1.61482e-07
1.6429e-07
1.89281e-07
1.88225e-07
2.20116e-07
2.1476e-07
2.5397e-07
2.44786e-07
2.91329e-07
2.79157e-07
3.31645e-07
3.17831e-07
3.73206e-07
3.59608e-07
4.14113e-07
4.02557e-07
4.52708e-07
4.44641e-07
4.87943e-07
4.84079e-07
5.19161e-07
5.18955e-07
5.45954e-07
5.4847e-07
5.68415e-07
5.72571e-07
5.86771e-07
5.91632e-07
6.01438e-07
6.0624e-07
6.1288e-07
6.17089e-07
6.21476e-07
6.24809e-07
6.27506e-07
6.29925e-07
6.3103e-07
6.32713e-07
6.32051e-07
6.33039e-07
6.29811e-07
6.2997e-07
6.19678e-07
6.18014e-07
2.58594e-05
2.43557e-05
2.29344e-05
2.15914e-05
2.03222e-05
1.91233e-05
1.79907e-05
1.69214e-05
1.59116e-05
1.49587e-05
1.40592e-05
1.32108e-05
1.24103e-05
1.16556e-05
1.09439e-05
1.02732e-05
9.64094e-06
9.04544e-06
8.48441e-06
7.95619e-06
7.45882e-06
6.99072e-06
6.55023e-06
6.13583e-06
5.74611e-06
5.37963e-06
5.03518e-06
4.71141e-06
4.40727e-06
4.12155e-06
3.8533e-06
3.60142e-06
3.36508e-06
3.14327e-06
2.93527e-06
2.74017e-06
2.55731e-06
2.38589e-06
2.22533e-06
2.07489e-06
1.93406e-06
1.80219e-06
1.67881e-06
1.56336e-06
1.4554e-06
1.35445e-06
1.2601e-06
1.17194e-06
1.08958e-06
1.01269e-06
9.40893e-07
8.73922e-07
8.11415e-07
7.53152e-07
6.9881e-07
6.48193e-07
6.01018e-07
5.57103e-07
5.16209e-07
4.78166e-07
4.42769e-07
4.09868e-07
3.7928e-07
3.5087e-07
3.24478e-07
2.99987e-07
2.77259e-07
2.56188e-07
2.36648e-07
2.18556e-07
2.01795e-07
1.86294e-07
1.71953e-07
1.58705e-07
1.4647e-07
1.35182e-07
1.24779e-07
1.15197e-07
1.06388e-07
9.82918e-08
9.08714e-08
8.40727e-08
7.78659e-08
7.22046e-08
6.70625e-08
6.24033e-08
5.82016e-08
5.44319e-08
5.10696e-08
4.80975e-08
4.54948e-08
4.32496e-08
4.13465e-08
3.97773e-08
3.85331e-08
3.76089e-08
3.70027e-08
3.67126e-08
3.67435e-08
3.70971e-08
3.77848e-08
3.88129e-08
4.01994e-08
4.19554e-08
4.41071e-08
4.66662e-08
4.96784e-08
5.31266e-08
5.71376e-08
6.15581e-08
6.67596e-08
7.21884e-08
7.88676e-08
8.52121e-08
9.38051e-08
1.00725e-07
1.11901e-07
1.18669e-07
1.33301e-07
1.38827e-07
1.58002e-07
1.60924e-07
1.85765e-07
1.84871e-07
2.16582e-07
2.1142e-07
2.50499e-07
2.41457e-07
2.87927e-07
2.75833e-07
3.2829e-07
3.14504e-07
3.69877e-07
3.56268e-07
4.10797e-07
3.99191e-07
4.49396e-07
4.4122e-07
4.8463e-07
4.80596e-07
5.15842e-07
5.1552e-07
5.42624e-07
5.45121e-07
5.65071e-07
5.69241e-07
5.83414e-07
5.88284e-07
5.98077e-07
6.02892e-07
6.09516e-07
6.13728e-07
6.18112e-07
6.21441e-07
6.24146e-07
6.26555e-07
6.27679e-07
6.29347e-07
6.28714e-07
6.29686e-07
6.26503e-07
6.26661e-07
6.1644e-07
6.14826e-07
2.58555e-05
2.4352e-05
2.29309e-05
2.15881e-05
2.0319e-05
1.91203e-05
1.79878e-05
1.69186e-05
1.5909e-05
1.49562e-05
1.40569e-05
1.32086e-05
1.24082e-05
1.16536e-05
1.09419e-05
1.02713e-05
9.63918e-06
9.04376e-06
8.4828e-06
7.95465e-06
7.45735e-06
6.98932e-06
6.5489e-06
6.13456e-06
5.74489e-06
5.37846e-06
5.03406e-06
4.71034e-06
4.40625e-06
4.12057e-06
3.85235e-06
3.60052e-06
3.36421e-06
3.14244e-06
2.93447e-06
2.7394e-06
2.55657e-06
2.38518e-06
2.22464e-06
2.07423e-06
1.93342e-06
1.80157e-06
1.67822e-06
1.56279e-06
1.45485e-06
1.35392e-06
1.25958e-06
1.17144e-06
1.0891e-06
1.01223e-06
9.40441e-07
8.73485e-07
8.10991e-07
7.52741e-07
6.9841e-07
6.47804e-07
6.0064e-07
5.56738e-07
5.15854e-07
4.77823e-07
4.42434e-07
4.09544e-07
3.78965e-07
3.50565e-07
3.24182e-07
2.99698e-07
2.76975e-07
2.55911e-07
2.36377e-07
2.18292e-07
2.01537e-07
1.86043e-07
1.71708e-07
1.58466e-07
1.46237e-07
1.34955e-07
1.24557e-07
1.14981e-07
1.06177e-07
9.80858e-08
9.06709e-08
8.38774e-08
7.76759e-08
7.20194e-08
6.68821e-08
6.22274e-08
5.80301e-08
5.42645e-08
5.0906e-08
4.79375e-08
4.5338e-08
4.30958e-08
4.11951e-08
3.96281e-08
3.83856e-08
3.74627e-08
3.68575e-08
3.65677e-08
3.65986e-08
3.69517e-08
3.76386e-08
3.86652e-08
4.00502e-08
4.18041e-08
4.39537e-08
4.65101e-08
4.95202e-08
5.29648e-08
5.69747e-08
6.13906e-08
6.65923e-08
7.20168e-08
7.86961e-08
8.50384e-08
9.3639e-08
1.00551e-07
1.1174e-07
1.18497e-07
1.33219e-07
1.38657e-07
1.57968e-07
1.60745e-07
1.85765e-07
1.84682e-07
2.166e-07
2.11217e-07
2.50452e-07
2.41246e-07
2.87811e-07
2.75622e-07
3.28131e-07
3.14302e-07
3.69697e-07
3.56084e-07
4.10606e-07
3.99037e-07
4.49199e-07
4.41126e-07
4.84431e-07
4.80574e-07
5.15641e-07
5.15452e-07
5.42425e-07
5.4496e-07
5.64876e-07
5.69047e-07
5.83225e-07
5.88097e-07
5.97889e-07
6.02701e-07
6.09328e-07
6.1354e-07
6.17922e-07
6.21251e-07
6.2395e-07
6.26357e-07
6.27467e-07
6.29132e-07
6.28473e-07
6.2944e-07
6.26204e-07
6.26344e-07
6.16199e-07
6.14624e-07
2.58518e-05
2.43485e-05
2.29276e-05
2.15849e-05
2.0316e-05
1.91174e-05
1.79851e-05
1.69161e-05
1.59065e-05
1.49539e-05
1.40546e-05
1.32064e-05
1.24061e-05
1.16517e-05
1.09401e-05
1.02696e-05
9.63753e-06
9.04219e-06
8.48131e-06
7.95323e-06
7.45599e-06
6.98802e-06
6.54766e-06
6.13337e-06
5.74376e-06
5.37738e-06
5.03302e-06
4.70935e-06
4.40529e-06
4.11965e-06
3.85148e-06
3.59967e-06
3.36339e-06
3.14165e-06
2.93371e-06
2.73867e-06
2.55586e-06
2.38449e-06
2.22397e-06
2.07358e-06
1.93279e-06
1.80096e-06
1.67762e-06
1.5622e-06
1.45428e-06
1.35336e-06
1.25903e-06
1.17091e-06
1.08857e-06
1.01171e-06
9.39928e-07
8.72978e-07
8.10491e-07
7.52246e-07
6.97922e-07
6.4732e-07
6.00161e-07
5.5626e-07
5.15379e-07
4.77349e-07
4.41963e-07
4.09074e-07
3.78496e-07
3.50095e-07
3.23711e-07
2.9923e-07
2.76508e-07
2.55444e-07
2.35911e-07
2.17824e-07
2.01068e-07
1.85572e-07
1.71235e-07
1.57992e-07
1.4576e-07
1.34476e-07
1.24075e-07
1.14496e-07
1.05688e-07
9.75943e-08
9.01756e-08
8.33786e-08
7.71731e-08
7.15132e-08
6.6372e-08
6.17138e-08
5.7513e-08
5.3744e-08
5.03824e-08
4.7411e-08
4.48091e-08
4.25646e-08
4.06623e-08
3.90939e-08
3.78506e-08
3.69276e-08
3.63226e-08
3.60339e-08
3.60662e-08
3.64216e-08
3.71111e-08
3.81413e-08
3.95299e-08
4.12885e-08
4.34426e-08
4.60046e-08
4.90193e-08
5.24712e-08
5.64838e-08
6.09098e-08
6.61107e-08
7.15485e-08
7.82221e-08
8.45802e-08
9.31671e-08
1.00102e-07
1.11263e-07
1.18053e-07
1.32665e-07
1.38219e-07
1.57376e-07
1.60322e-07
1.85144e-07
1.8428e-07
2.15957e-07
2.10832e-07
2.49894e-07
2.40875e-07
2.8734e-07
2.75257e-07
3.27719e-07
3.13932e-07
3.69318e-07
3.55696e-07
4.10245e-07
3.98616e-07
4.48843e-07
4.40637e-07
4.84073e-07
4.80001e-07
5.15275e-07
5.14915e-07
5.42048e-07
5.44499e-07
5.64483e-07
5.68615e-07
5.82814e-07
5.87657e-07
5.97466e-07
6.02254e-07
6.08893e-07
6.13088e-07
6.17477e-07
6.208e-07
6.23502e-07
6.25912e-07
6.27031e-07
6.28702e-07
6.2807e-07
6.29039e-07
6.25865e-07
6.26013e-07
6.16072e-07
6.14536e-07
2.58483e-05
2.43451e-05
2.29244e-05
2.15819e-05
2.03132e-05
1.91147e-05
1.79826e-05
1.69137e-05
1.59043e-05
1.49518e-05
1.40527e-05
1.32046e-05
1.24044e-05
1.165e-05
1.09385e-05
1.02681e-05
9.63616e-06
9.0409e-06
8.48009e-06
7.95209e-06
7.45492e-06
6.98702e-06
6.54672e-06
6.1325e-06
5.74294e-06
5.37661e-06
5.0323e-06
4.70868e-06
4.40467e-06
4.11908e-06
3.85094e-06
3.59917e-06
3.36293e-06
3.14123e-06
2.93332e-06
2.73831e-06
2.55554e-06
2.3842e-06
2.22371e-06
2.07334e-06
1.93257e-06
1.80077e-06
1.67745e-06
1.56205e-06
1.45415e-06
1.35325e-06
1.25894e-06
1.17083e-06
1.08851e-06
1.01167e-06
9.39905e-07
8.72971e-07
8.10498e-07
7.52267e-07
6.97954e-07
6.47365e-07
6.00216e-07
5.56328e-07
5.15459e-07
4.7744e-07
4.42064e-07
4.09185e-07
3.78617e-07
3.50226e-07
3.23853e-07
2.99379e-07
2.76664e-07
2.55608e-07
2.36083e-07
2.18004e-07
2.01256e-07
1.85768e-07
1.71439e-07
1.58203e-07
1.45978e-07
1.34701e-07
1.24308e-07
1.14735e-07
1.05935e-07
9.78482e-08
9.04368e-08
8.36466e-08
7.74482e-08
7.17947e-08
6.66602e-08
6.20082e-08
5.78135e-08
5.40502e-08
5.0694e-08
4.77278e-08
4.51303e-08
4.28901e-08
4.09912e-08
3.94259e-08
3.8185e-08
3.72636e-08
3.66597e-08
3.63712e-08
3.64033e-08
3.67573e-08
3.74452e-08
3.84728e-08
3.98587e-08
4.16134e-08
4.37641e-08
4.63213e-08
4.93327e-08
5.27782e-08
5.67899e-08
6.12064e-08
6.64111e-08
7.18354e-08
7.85197e-08
8.48607e-08
9.34674e-08
1.00377e-07
1.11578e-07
1.18329e-07
1.33061e-07
1.38493e-07
1.5782e-07
1.60586e-07
1.85625e-07
1.8453e-07
2.16467e-07
2.11065e-07
2.50318e-07
2.41098e-07
2.8768e-07
2.7548e-07
3.28007e-07
3.14165e-07
3.6958e-07
3.55951e-07
4.10493e-07
3.98907e-07
4.49087e-07
4.40998e-07
4.84314e-07
4.80448e-07
5.15515e-07
5.15312e-07
5.4229e-07
5.44813e-07
5.6473e-07
5.68891e-07
5.83068e-07
5.8793e-07
5.97725e-07
6.02528e-07
6.09156e-07
6.1336e-07
6.17742e-07
6.21066e-07
6.23763e-07
6.26165e-07
6.27274e-07
6.28933e-07
6.28273e-07
6.2923e-07
6.25998e-07
6.26125e-07
6.16224e-07
6.14721e-07
2.58447e-05
2.43418e-05
2.29213e-05
2.15789e-05
2.03103e-05
1.91121e-05
1.79801e-05
1.69113e-05
1.59021e-05
1.49497e-05
1.40507e-05
1.32027e-05
1.24026e-05
1.16483e-05
1.0937e-05
1.02666e-05
9.63474e-06
9.03956e-06
8.47884e-06
7.9509e-06
7.4538e-06
6.98597e-06
6.54572e-06
6.13156e-06
5.74205e-06
5.37578e-06
5.03152e-06
4.70794e-06
4.40397e-06
4.11841e-06
3.85031e-06
3.59858e-06
3.36237e-06
3.1407e-06
2.93282e-06
2.73783e-06
2.55508e-06
2.38376e-06
2.22329e-06
2.07294e-06
1.9322e-06
1.80041e-06
1.67711e-06
1.56173e-06
1.45384e-06
1.35295e-06
1.25865e-06
1.17055e-06
1.08824e-06
1.0114e-06
9.39647e-07
8.72718e-07
8.10252e-07
7.52026e-07
6.97719e-07
6.47135e-07
5.99991e-07
5.56105e-07
5.15238e-07
4.77221e-07
4.41848e-07
4.08969e-07
3.78402e-07
3.50011e-07
3.23637e-07
2.99162e-07
2.76447e-07
2.5539e-07
2.35863e-07
2.17783e-07
2.01033e-07
1.85542e-07
1.7121e-07
1.57971e-07
1.45743e-07
1.34463e-07
1.24066e-07
1.1449e-07
1.05686e-07
9.75948e-08
9.01787e-08
8.33843e-08
7.71811e-08
7.15233e-08
6.63841e-08
6.17278e-08
5.75287e-08
5.37613e-08
5.04013e-08
4.74314e-08
4.48309e-08
4.25876e-08
4.06866e-08
3.91195e-08
3.78775e-08
3.69557e-08
3.63519e-08
3.60646e-08
3.60982e-08
3.6455e-08
3.71459e-08
3.81776e-08
3.95678e-08
4.1328e-08
4.34839e-08
4.60476e-08
4.90643e-08
5.25182e-08
5.6533e-08
6.09611e-08
6.61644e-08
7.16049e-08
7.82808e-08
8.46423e-08
9.3231e-08
1.0017e-07
1.11331e-07
1.1813e-07
1.32742e-07
1.38305e-07
1.57448e-07
1.60414e-07
1.85216e-07
1.8438e-07
2.16023e-07
2.10935e-07
2.49982e-07
2.40982e-07
2.87447e-07
2.7537e-07
3.27842e-07
3.1405e-07
3.69454e-07
3.55816e-07
4.10387e-07
3.98734e-07
4.48986e-07
4.40749e-07
4.84211e-07
4.80105e-07
5.15405e-07
5.15025e-07
5.42168e-07
5.44593e-07
5.64591e-07
5.68698e-07
5.82909e-07
5.87731e-07
5.97549e-07
6.02321e-07
6.08965e-07
6.13149e-07
6.1754e-07
6.20857e-07
6.23557e-07
6.25964e-07
6.27082e-07
6.28752e-07
6.28121e-07
6.29089e-07
6.25925e-07
6.26063e-07
6.16362e-07
6.14896e-07
2.58411e-05
2.43383e-05
2.2918e-05
2.15758e-05
2.03074e-05
1.91093e-05
1.79774e-05
1.69088e-05
1.58997e-05
1.49474e-05
1.40485e-05
1.32007e-05
1.24007e-05
1.16465e-05
1.09353e-05
1.0265e-05
9.63323e-06
9.03814e-06
8.47749e-06
7.94963e-06
7.45261e-06
6.98484e-06
6.54466e-06
6.13055e-06
5.74111e-06
5.37489e-06
5.03068e-06
4.70715e-06
4.40323e-06
4.11771e-06
3.84966e-06
3.59796e-06
3.36179e-06
3.14016e-06
2.93231e-06
2.73736e-06
2.55464e-06
2.38335e-06
2.22291e-06
2.07259e-06
1.93187e-06
1.8001e-06
1.67682e-06
1.56146e-06
1.45359e-06
1.35273e-06
1.25845e-06
1.17037e-06
1.08807e-06
1.01125e-06
9.39514e-07
8.72602e-07
8.1015e-07
7.51939e-07
6.97644e-07
6.47071e-07
5.99938e-07
5.56064e-07
5.15208e-07
4.77203e-07
4.41838e-07
4.0897e-07
3.78413e-07
3.50032e-07
3.23667e-07
2.99203e-07
2.76497e-07
2.5545e-07
2.35931e-07
2.17859e-07
2.01118e-07
1.85636e-07
1.71312e-07
1.58082e-07
1.45862e-07
1.3459e-07
1.24201e-07
1.14633e-07
1.05836e-07
9.77529e-08
9.03449e-08
8.35578e-08
7.73625e-08
7.17117e-08
6.65799e-08
6.19303e-08
5.7738e-08
5.39769e-08
5.06228e-08
4.76585e-08
4.50628e-08
4.28243e-08
4.09271e-08
3.93634e-08
3.81239e-08
3.72039e-08
3.66013e-08
3.63141e-08
3.63474e-08
3.67026e-08
3.73917e-08
3.84204e-08
3.98074e-08
4.15633e-08
4.37152e-08
4.62736e-08
4.92864e-08
5.27332e-08
5.67466e-08
6.11645e-08
6.63714e-08
7.1797e-08
7.84845e-08
8.48262e-08
9.34374e-08
1.00348e-07
1.11554e-07
1.18304e-07
1.33038e-07
1.38473e-07
1.57812e-07
1.60572e-07
1.85629e-07
1.84522e-07
2.1648e-07
2.11059e-07
2.50328e-07
2.41098e-07
2.87692e-07
2.75485e-07
3.28029e-07
3.14175e-07
3.69613e-07
3.55965e-07
4.10532e-07
3.98923e-07
4.49126e-07
4.41015e-07
4.84349e-07
4.80463e-07
5.15541e-07
5.15308e-07
5.42306e-07
5.44806e-07
5.64733e-07
5.68878e-07
5.83059e-07
5.87907e-07
5.97707e-07
6.02498e-07
6.09129e-07
6.13324e-07
6.17707e-07
6.21025e-07
6.23721e-07
6.26119e-07
6.27226e-07
6.2888e-07
6.28219e-07
6.29169e-07
6.25946e-07
6.26064e-07
6.16424e-07
6.14988e-07
2.58376e-05
2.43351e-05
2.29149e-05
2.15729e-05
2.03047e-05
1.91067e-05
1.7975e-05
1.69065e-05
1.58976e-05
1.49454e-05
1.40466e-05
1.31989e-05
1.2399e-05
1.1645e-05
1.09338e-05
1.02636e-05
9.63193e-06
9.03692e-06
8.47635e-06
7.94856e-06
7.4516e-06
6.9839e-06
6.54378e-06
6.12973e-06
5.74034e-06
5.37417e-06
5.03e-06
4.70652e-06
4.40264e-06
4.11717e-06
3.84915e-06
3.59749e-06
3.36135e-06
3.13974e-06
2.93192e-06
2.737e-06
2.5543e-06
2.38304e-06
2.22261e-06
2.07231e-06
1.93161e-06
1.79986e-06
1.6766e-06
1.56125e-06
1.4534e-06
1.35254e-06
1.25827e-06
1.1702e-06
1.08791e-06
1.0111e-06
9.39369e-07
8.72462e-07
8.10016e-07
7.51808e-07
6.97518e-07
6.46951e-07
5.99825e-07
5.55954e-07
5.15101e-07
4.77096e-07
4.41735e-07
4.08869e-07
3.78314e-07
3.49933e-07
3.23568e-07
2.99102e-07
2.76395e-07
2.55346e-07
2.35826e-07
2.17751e-07
2.01007e-07
1.85522e-07
1.71195e-07
1.57961e-07
1.45738e-07
1.34461e-07
1.24068e-07
1.14496e-07
1.05695e-07
9.76065e-08
9.01931e-08
8.34014e-08
7.72004e-08
7.1545e-08
6.64077e-08
6.17533e-08
5.7556e-08
5.37903e-08
5.04319e-08
4.74634e-08
4.48643e-08
4.26224e-08
4.07227e-08
3.91569e-08
3.79161e-08
3.69956e-08
3.63931e-08
3.6107e-08
3.6142e-08
3.65002e-08
3.71924e-08
3.82256e-08
3.96173e-08
4.13791e-08
4.35366e-08
4.61022e-08
4.91206e-08
5.25765e-08
5.65934e-08
6.10237e-08
6.62292e-08
7.16723e-08
7.83505e-08
8.47153e-08
9.33061e-08
1.0025e-07
1.11412e-07
1.18217e-07
1.32832e-07
1.38399e-07
1.57536e-07
1.60515e-07
1.85299e-07
1.84488e-07
2.16097e-07
2.11044e-07
2.50078e-07
2.41096e-07
2.87563e-07
2.75489e-07
3.27976e-07
3.14174e-07
3.696e-07
3.55944e-07
4.1054e-07
3.98862e-07
4.4914e-07
4.4087e-07
4.84361e-07
4.80225e-07
5.15545e-07
5.15148e-07
5.42299e-07
5.44702e-07
5.6471e-07
5.68795e-07
5.83017e-07
5.87819e-07
5.97645e-07
6.02402e-07
6.0905e-07
6.13224e-07
6.17616e-07
6.20927e-07
6.23627e-07
6.26031e-07
6.27147e-07
6.28815e-07
6.28185e-07
6.29149e-07
6.26002e-07
6.26135e-07
6.16684e-07
6.15284e-07
2.58316e-05
2.43294e-05
2.29095e-05
2.15678e-05
2.02998e-05
1.91021e-05
1.79706e-05
1.69024e-05
1.58936e-05
1.49417e-05
1.40431e-05
1.31955e-05
1.23958e-05
1.16419e-05
1.09309e-05
1.02609e-05
9.62933e-06
9.03446e-06
8.47401e-06
7.94634e-06
7.4495e-06
6.9819e-06
6.54189e-06
6.12793e-06
5.73864e-06
5.37255e-06
5.02847e-06
4.70506e-06
4.40126e-06
4.11586e-06
3.84791e-06
3.59631e-06
3.36023e-06
3.13869e-06
2.93092e-06
2.73605e-06
2.55341e-06
2.38219e-06
2.22181e-06
2.07155e-06
1.93089e-06
1.79918e-06
1.67596e-06
1.56065e-06
1.45282e-06
1.352e-06
1.25777e-06
1.16973e-06
1.08747e-06
1.01069e-06
9.38981e-07
8.72102e-07
8.09679e-07
7.51494e-07
6.97223e-07
6.46675e-07
5.99566e-07
5.55716e-07
5.14882e-07
4.769e-07
4.41558e-07
4.08704e-07
3.78161e-07
3.49794e-07
3.23444e-07
2.98994e-07
2.76302e-07
2.55268e-07
2.35761e-07
2.17702e-07
2.00972e-07
1.85501e-07
1.71188e-07
1.57968e-07
1.45758e-07
1.34495e-07
1.24115e-07
1.14556e-07
1.05768e-07
9.76923e-08
9.02925e-08
8.35128e-08
7.73251e-08
7.16811e-08
6.65563e-08
6.1913e-08
5.77269e-08
5.39717e-08
5.0623e-08
4.76639e-08
4.50729e-08
4.28388e-08
4.09454e-08
3.93851e-08
3.81486e-08
3.72309e-08
3.66303e-08
3.63443e-08
3.63786e-08
3.67341e-08
3.74232e-08
3.84512e-08
3.98376e-08
4.15921e-08
4.37428e-08
4.62993e-08
4.93111e-08
5.2755e-08
5.67692e-08
6.11822e-08
6.63935e-08
7.18116e-08
7.85088e-08
8.48393e-08
9.34679e-08
1.00361e-07
1.11598e-07
1.1832e-07
1.33119e-07
1.38492e-07
1.57945e-07
1.60591e-07
1.85813e-07
1.84538e-07
2.16711e-07
2.11066e-07
2.50486e-07
2.41105e-07
2.8779e-07
2.75499e-07
3.28104e-07
3.14199e-07
3.69681e-07
3.56007e-07
4.10599e-07
3.9899e-07
4.49191e-07
4.4113e-07
4.84409e-07
4.80617e-07
5.15591e-07
5.154e-07
5.42347e-07
5.44862e-07
5.64764e-07
5.68912e-07
5.83082e-07
5.8793e-07
5.97724e-07
6.02514e-07
6.09141e-07
6.13333e-07
6.17713e-07
6.21024e-07
6.23717e-07
6.26103e-07