/*--------------------------------*- C++ -*----------------------------------*\
| =========                 |                                                 |
| \\      /  F ield         | OpenFOAM: The Open Source CFD Toolbox           |
|  \\    /   O peration     | Version:  v1912                                 |
|   \\  /    A nd           | Website:  www.openfoam.com                      |
|    \\/     M anipulation  |                                                 |
\*---------------------------------------------------------------------------*/
FoamFile
{
    version     2.0;
    format      ascii;
    class       volScalarField;
    location    "100";
    object      p;
}
// * * * * * * * * * * * * * * * * * * * * * * * * * * * * * * * * * * * * * //

dimensions      [1 -1 -2 0 0 0 0];


internalField   nonuniform List<scalar> 
14268
(
-180.459
-181.048
-181.637
-182.226
-182.815
-183.404
-183.993
-184.582
-185.171
-185.76
-186.349
-186.937
-187.526
-188.115
-188.704
-189.293
-189.882
-190.47
-191.059
-191.648
-192.237
-192.825
-193.414
-194.003
-194.592
-195.18
-195.769
-196.358
-196.946
-197.535
-198.124
-198.712
-199.301
-199.89
-200.478
-201.067
-201.656
-202.244
-202.833
-203.422
-204.01
-204.599
-205.188
-205.776
-206.365
-206.953
-207.542
-208.131
-208.719
-209.308
-209.897
-210.485
-211.074
-211.662
-212.251
-212.84
-213.428
-214.017
-214.606
-215.194
-215.783
-216.371
-216.96
-217.549
-218.137
-218.726
-219.314
-219.903
-220.492
-221.08
-221.669
-222.257
-222.846
-223.435
-224.023
-224.612
-225.2
-225.789
-226.378
-226.966
-227.555
-228.143
-228.732
-229.321
-229.909
-230.498
-231.086
-231.675
-232.264
-232.852
-233.441
-234.029
-234.618
-235.207
-235.795
-236.384
-236.972
-237.561
-238.15
-238.738
-239.327
-239.915
-240.504
-241.093
-241.681
-242.27
-242.858
-243.447
-244.036
-244.624
-245.213
-245.801
-246.39
-246.979
-247.567
-248.156
-248.744
-249.333
-249.922
-250.51
-251.099
-251.687
-252.276
-252.865
-253.453
-254.042
-254.63
-255.219
-255.808
-256.396
-256.985
-257.573
-258.162
-258.751
-259.339
-259.928
-260.516
-261.105
-261.694
-262.282
-262.871
-263.459
-264.048
-264.637
-265.225
-265.814
-266.402
-266.991
-267.58
-268.168
-268.757
-269.345
-269.934
-270.523
-271.111
-271.7
-272.288
-272.877
-273.466
-274.054
-274.643
-275.231
-275.82
-276.409
-180.581
-181.17
-181.759
-182.348
-182.937
-183.526
-184.115
-184.704
-185.293
-185.882
-186.471
-187.059
-187.648
-188.237
-188.826
-189.415
-190.003
-190.592
-191.181
-191.77
-192.359
-192.947
-193.536
-194.125
-194.713
-195.302
-195.891
-196.48
-197.068
-197.657
-198.246
-198.834
-199.423
-200.012
-200.6
-201.189
-201.778
-202.366
-202.955
-203.544
-204.132
-204.721
-205.309
-205.898
-206.487
-207.075
-207.664
-208.253
-208.841
-209.43
-210.018
-210.607
-211.196
-211.784
-212.373
-212.962
-213.55
-214.139
-214.727
-215.316
-215.905
-216.493
-217.082
-217.67
-218.259
-218.848
-219.436
-220.025
-220.614
-221.202
-221.791
-222.379
-222.968
-223.557
-224.145
-224.734
-225.322
-225.911
-226.5
-227.088
-227.677
-228.265
-228.854
-229.443
-230.031
-230.62
-231.208
-231.797
-232.386
-232.974
-233.563
-234.151
-234.74
-235.329
-235.917
-236.506
-237.094
-237.683
-238.272
-238.86
-239.449
-240.037
-240.626
-241.215
-241.803
-242.392
-242.98
-243.569
-244.158
-244.746
-245.335
-245.923
-246.512
-247.101
-247.689
-248.278
-248.866
-249.455
-250.044
-250.632
-251.221
-251.809
-252.398
-252.987
-253.575
-254.164
-254.752
-255.341
-255.93
-256.518
-257.107
-257.695
-258.284
-258.873
-259.461
-260.05
-260.638
-261.227
-261.816
-262.404
-262.993
-263.581
-264.17
-264.759
-265.347
-265.936
-266.524
-267.113
-267.702
-268.29
-268.879
-269.467
-270.056
-270.645
-271.233
-271.822
-272.41
-272.999
-273.588
-274.176
-274.765
-275.353
-275.942
-276.531
-180.703
-181.292
-181.881
-182.47
-183.059
-183.648
-184.237
-184.826
-185.415
-186.004
-186.592
-187.181
-187.77
-188.359
-188.948
-189.537
-190.125
-190.714
-191.303
-191.892
-192.48
-193.069
-193.658
-194.247
-194.835
-195.424
-196.013
-196.601
-197.19
-197.779
-198.368
-198.956
-199.545
-200.134
-200.722
-201.311
-201.9
-202.488
-203.077
-203.665
-204.254
-204.843
-205.431
-206.02
-206.609
-207.197
-207.786
-208.375
-208.963
-209.552
-210.14
-210.729
-211.318
-211.906
-212.495
-213.084
-213.672
-214.261
-214.849
-215.438
-216.027
-216.615
-217.204
-217.792
-218.381
-218.97
-219.558
-220.147
-220.735
-221.324
-221.913
-222.501
-223.09
-223.678
-224.267
-224.856
-225.444
-226.033
-226.621
-227.21
-227.799
-228.387
-228.976
-229.564
-230.153
-230.742
-231.33
-231.919
-232.507
-233.096
-233.685
-234.273
-234.862
-235.451
-236.039
-236.628
-237.216
-237.805
-238.394
-238.982
-239.571
-240.159
-240.748
-241.337
-241.925
-242.514
-243.102
-243.691
-244.28
-244.868
-245.457
-246.045
-246.634
-247.223
-247.811
-248.4
-248.988
-249.577
-250.166
-250.754
-251.343
-251.931
-252.52
-253.109
-253.697
-254.286
-254.874
-255.463
-256.052
-256.64
-257.229
-257.817
-258.406
-258.995
-259.583
-260.172
-260.76
-261.349
-261.938
-262.526
-263.115
-263.703
-264.292
-264.881
-265.469
-266.058
-266.646
-267.235
-267.824
-268.412
-269.001
-269.589
-270.178
-270.767
-271.355
-271.944
-272.532
-273.121
-273.71
-274.298
-274.887
-275.475
-276.064
-276.653
-180.825
-181.414
-182.003
-182.592
-183.181
-183.77
-184.359
-184.948
-185.537
-186.126
-186.714
-187.303
-187.892
-188.481
-189.07
-189.659
-190.247
-190.836
-191.425
-192.014
-192.602
-193.191
-193.78
-194.369
-194.957
-195.546
-196.135
-196.723
-197.312
-197.901
-198.489
-199.078
-199.667
-200.255
-200.844
-201.433
-202.021
-202.61
-203.199
-203.787
-204.376
-204.965
-205.553
-206.142
-206.731
-207.319
-207.908
-208.496
-209.085
-209.674
-210.262
-210.851
-211.44
-212.028
-212.617
-213.205
-213.794
-214.383
-214.971
-215.56
-216.148
-216.737
-217.326
-217.914
-218.503
-219.092
-219.68
-220.269
-220.857
-221.446
-222.035
-222.623
-223.212
-223.8
-224.389
-224.978
-225.566
-226.155
-226.743
-227.332
-227.921
-228.509
-229.098
-229.686
-230.275
-230.864
-231.452
-232.041
-232.629
-233.218
-233.807
-234.395
-234.984
-235.572
-236.161
-236.75
-237.338
-237.927
-238.515
-239.104
-239.693
-240.281
-240.87
-241.458
-242.047
-242.636
-243.224
-243.813
-244.401
-244.99
-245.579
-246.167
-246.756
-247.344
-247.933
-248.522
-249.11
-249.699
-250.287
-250.876
-251.465
-252.053
-252.642
-253.23
-253.819
-254.408
-254.996
-255.585
-256.173
-256.762
-257.351
-257.939
-258.528
-259.116
-259.705
-260.294
-260.882
-261.471
-262.059
-262.648
-263.237
-263.825
-264.414
-265.002
-265.591
-266.18
-266.768
-267.357
-267.945
-268.534
-269.123
-269.711
-270.3
-270.888
-271.477
-272.066
-272.654
-273.243
-273.831
-274.42
-275.009
-275.597
-276.186
-276.774
-180.947
-181.536
-182.125
-182.714
-183.303
-183.892
-184.481
-185.07
-185.659
-186.247
-186.836
-187.425
-188.014
-188.603
-189.192
-189.78
-190.369
-190.958
-191.547
-192.136
-192.724
-193.313
-193.902
-194.49
-195.079
-195.668
-196.257
-196.845
-197.434
-198.023
-198.611
-199.2
-199.789
-200.377
-200.966
-201.555
-202.143
-202.732
-203.321
-203.909
-204.498
-205.087
-205.675
-206.264
-206.853
-207.441
-208.03
-208.618
-209.207
-209.796
-210.384
-210.973
-211.562
-212.15
-212.739
-213.327
-213.916
-214.505
-215.093
-215.682
-216.27
-216.859
-217.448
-218.036
-218.625
-219.213
-219.802
-220.391
-220.979
-221.568
-222.156
-222.745
-223.334
-223.922
-224.511
-225.1
-225.688
-226.277
-226.865
-227.454
-228.043
-228.631
-229.22
-229.808
-230.397
-230.986
-231.574
-232.163
-232.751
-233.34
-233.929
-234.517
-235.106
-235.694
-236.283
-236.872
-237.46
-238.049
-238.637
-239.226
-239.815
-240.403
-240.992
-241.58
-242.169
-242.758
-243.346
-243.935
-244.523
-245.112
-245.701
-246.289
-246.878
-247.466
-248.055
-248.644
-249.232
-249.821
-250.409
-250.998
-251.587
-252.175
-252.764
-253.352
-253.941
-254.53
-255.118
-255.707
-256.295
-256.884
-257.473
-258.061
-258.65
-259.238
-259.827
-260.416
-261.004
-261.593
-262.181
-262.77
-263.359
-263.947
-264.536
-265.124
-265.713
-266.302
-266.89
-267.479
-268.067
-268.656
-269.245
-269.833
-270.422
-271.01
-271.599
-272.188
-272.776
-273.365
-273.953
-274.542
-275.131
-275.719
-276.308
-276.896
-181.069
-181.658
-182.247
-182.836
-183.425
-184.014
-184.603
-185.192
-185.78
-186.369
-186.958
-187.547
-188.136
-188.725
-189.314
-189.902
-190.491
-191.08
-191.669
-192.257
-192.846
-193.435
-194.024
-194.612
-195.201
-195.79
-196.379
-196.967
-197.556
-198.145
-198.733
-199.322
-199.911
-200.499
-201.088
-201.677
-202.265
-202.854
-203.443
-204.031
-204.62
-205.209
-205.797
-206.386
-206.974
-207.563
-208.152
-208.74
-209.329
-209.918
-210.506
-211.095
-211.683
-212.272
-212.861
-213.449
-214.038
-214.627
-215.215
-215.804
-216.392
-216.981
-217.57
-218.158
-218.747
-219.335
-219.924
-220.513
-221.101
-221.69
-222.278
-222.867
-223.456
-224.044
-224.633
-225.221
-225.81
-226.399
-226.987
-227.576
-228.164
-228.753
-229.342
-229.93
-230.519
-231.107
-231.696
-232.285
-232.873
-233.462
-234.05
-234.639
-235.228
-235.816
-236.405
-236.993
-237.582
-238.171
-238.759
-239.348
-239.936
-240.525
-241.114
-241.702
-242.291
-242.879
-243.468
-244.057
-244.645
-245.234
-245.822
-246.411
-247
-247.588
-248.177
-248.765
-249.354
-249.943
-250.531
-251.12
-251.708
-252.297
-252.886
-253.474
-254.063
-254.651
-255.24
-255.829
-256.417
-257.006
-257.594
-258.183
-258.772
-259.36
-259.949
-260.537
-261.126
-261.715
-262.303
-262.892
-263.48
-264.069
-264.658
-265.246
-265.835
-266.423
-267.012
-267.601
-268.189
-268.778
-269.366
-269.955
-270.544
-271.132
-271.721
-272.309
-272.898
-273.487
-274.075
-274.664
-275.252
-275.841
-276.43
-277.018
-181.191
-181.78
-182.369
-182.958
-183.547
-184.136
-184.725
-185.314
-185.902
-186.491
-187.08
-187.669
-188.258
-188.847
-189.435
-190.024
-190.613
-191.202
-191.791
-192.379
-192.968
-193.557
-194.146
-194.734
-195.323
-195.912
-196.5
-197.089
-197.678
-198.267
-198.855
-199.444
-200.033
-200.621
-201.21
-201.799
-202.387
-202.976
-203.565
-204.153
-204.742
-205.33
-205.919
-206.508
-207.096
-207.685
-208.274
-208.862
-209.451
-210.039
-210.628
-211.217
-211.805
-212.394
-212.983
-213.571
-214.16
-214.748
-215.337
-215.926
-216.514
-217.103
-217.691
-218.28
-218.869
-219.457
-220.046
-220.635
-221.223
-221.812
-222.4
-222.989
-223.578
-224.166
-224.755
-225.343
-225.932
-226.521
-227.109
-227.698
-228.286
-228.875
-229.464
-230.052
-230.641
-231.229
-231.818
-232.407
-232.995
-233.584
-234.172
-234.761
-235.35
-235.938
-236.527
-237.115
-237.704
-238.293
-238.881
-239.47
-240.058
-240.647
-241.236
-241.824
-242.413
-243.001
-243.59
-244.179
-244.767
-245.356
-245.944
-246.533
-247.122
-247.71
-248.299
-248.887
-249.476
-250.065
-250.653
-251.242
-251.83
-252.419
-253.008
-253.596
-254.185
-254.773
-255.362
-255.951
-256.539
-257.128
-257.716
-258.305
-258.894
-259.482
-260.071
-260.659
-261.248
-261.837
-262.425
-263.014
-263.602
-264.191
-264.78
-265.368
-265.957
-266.545
-267.134
-267.723
-268.311
-268.9
-269.488
-270.077
-270.666
-271.254
-271.843
-272.431
-273.02
-273.609
-274.197
-274.786
-275.374
-275.963
-276.552
-277.14
-181.313
-181.902
-182.491
-183.08
-183.669
-184.258
-184.847
-185.435
-186.024
-186.613
-187.202
-187.791
-188.38
-188.969
-189.557
-190.146
-190.735
-191.324
-191.913
-192.501
-193.09
-193.679
-194.268
-194.856
-195.445
-196.034
-196.622
-197.211
-197.8
-198.388
-198.977
-199.566
-200.155
-200.743
-201.332
-201.92
-202.509
-203.098
-203.686
-204.275
-204.864
-205.452
-206.041
-206.63
-207.218
-207.807
-208.396
-208.984
-209.573
-210.161
-210.75
-211.339
-211.927
-212.516
-213.105
-213.693
-214.282
-214.87
-215.459
-216.048
-216.636
-217.225
-217.813
-218.402
-218.991
-219.579
-220.168
-220.756
-221.345
-221.934
-222.522
-223.111
-223.699
-224.288
-224.877
-225.465
-226.054
-226.642
-227.231
-227.82
-228.408
-228.997
-229.586
-230.174
-230.763
-231.351
-231.94
-232.529
-233.117
-233.706
-234.294
-234.883
-235.472
-236.06
-236.649
-237.237
-237.826
-238.415
-239.003
-239.592
-240.18
-240.769
-241.358
-241.946
-242.535
-243.123
-243.712
-244.301
-244.889
-245.478
-246.066
-246.655
-247.244
-247.832
-248.421
-249.009
-249.598
-250.187
-250.775
-251.364
-251.952
-252.541
-253.13
-253.718
-254.307
-254.895
-255.484
-256.073
-256.661
-257.25
-257.838
-258.427
-259.016
-259.604
-260.193
-260.781
-261.37
-261.959
-262.547
-263.136
-263.724
-264.313
-264.902
-265.49
-266.079
-266.667
-267.256
-267.845
-268.433
-269.022
-269.61
-270.199
-270.788
-271.376
-271.965
-272.553
-273.142
-273.731
-274.319
-274.908
-275.496
-276.085
-276.674
-277.262
-181.435
-182.024
-182.613
-183.202
-183.791
-184.38
-184.968
-185.557
-186.146
-186.735
-187.324
-187.913
-188.502
-189.091
-189.679
-190.268
-190.857
-191.446
-192.034
-192.623
-193.212
-193.801
-194.389
-194.978
-195.567
-196.156
-196.744
-197.333
-197.922
-198.51
-199.099
-199.688
-200.276
-200.865
-201.454
-202.042
-202.631
-203.22
-203.808
-204.397
-204.986
-205.574
-206.163
-206.752
-207.34
-207.929
-208.517
-209.106
-209.695
-210.283
-210.872
-211.461
-212.049
-212.638
-213.226
-213.815
-214.404
-214.992
-215.581
-216.17
-216.758
-217.347
-217.935
-218.524
-219.113
-219.701
-220.29
-220.878
-221.467
-222.056
-222.644
-223.233
-223.821
-224.41
-224.999
-225.587
-226.176
-226.764
-227.353
-227.942
-228.53
-229.119
-229.707
-230.296
-230.885
-231.473
-232.062
-232.65
-233.239
-233.828
-234.416
-235.005
-235.593
-236.182
-236.771
-237.359
-237.948
-238.536
-239.125
-239.714
-240.302
-240.891
-241.479
-242.068
-242.657
-243.245
-243.834
-244.422
-245.011
-245.6
-246.188
-246.777
-247.365
-247.954
-248.543
-249.131
-249.72
-250.308
-250.897
-251.486
-252.074
-252.663
-253.251
-253.84
-254.429
-255.017
-255.606
-256.194
-256.783
-257.372
-257.96
-258.549
-259.137
-259.726
-260.315
-260.903
-261.492
-262.08
-262.669
-263.258
-263.846
-264.435
-265.023
-265.612
-266.201
-266.789
-267.378
-267.966
-268.555
-269.144
-269.732
-270.321
-270.909
-271.498
-272.087
-272.675
-273.264
-273.852
-274.441
-275.03
-275.618
-276.207
-276.795
-277.384
-181.556
-182.145
-182.734
-183.323
-183.912
-184.501
-185.09
-185.679
-186.268
-186.857
-187.446
-188.035
-188.624
-189.212
-189.801
-190.39
-190.979
-191.568
-192.156
-192.745
-193.334
-193.923
-194.511
-195.1
-195.689
-196.278
-196.866
-197.455
-198.044
-198.632
-199.221
-199.81
-200.398
-200.987
-201.576
-202.164
-202.753
-203.342
-203.93
-204.519
-205.108
-205.696
-206.285
-206.874
-207.462
-208.051
-208.639
-209.228
-209.817
-210.405
-210.994
-211.583
-212.171
-212.76
-213.348
-213.937
-214.526
-215.114
-215.703
-216.291
-216.88
-217.469
-218.057
-218.646
-219.234
-219.823
-220.412
-221
-221.589
-222.178
-222.766
-223.355
-223.943
-224.532
-225.121
-225.709
-226.298
-226.886
-227.475
-228.064
-228.652
-229.241
-229.829
-230.418
-231.007
-231.595
-232.184
-232.772
-233.361
-233.95
-234.538
-235.127
-235.715
-236.304
-236.893
-237.481
-238.07
-238.658
-239.247
-239.836
-240.424
-241.013
-241.601
-242.19
-242.779
-243.367
-243.956
-244.544
-245.133
-245.722
-246.31
-246.899
-247.487
-248.076
-248.665
-249.253
-249.842
-250.43
-251.019
-251.608
-252.196
-252.785
-253.373
-253.962
-254.551
-255.139
-255.728
-256.316
-256.905
-257.494
-258.082
-258.671
-259.259
-259.848
-260.437
-261.025
-261.614
-262.202
-262.791
-263.38
-263.968
-264.557
-265.145
-265.734
-266.323
-266.911
-267.5
-268.088
-268.677
-269.266
-269.854
-270.443
-271.031
-271.62
-272.209
-272.797
-273.386
-273.974
-274.563
-275.152
-275.74
-276.329
-276.917
-277.506
-181.678
-182.267
-182.856
-183.445
-184.034
-184.623
-185.212
-185.801
-186.39
-186.979
-187.568
-188.157
-188.746
-189.334
-189.923
-190.512
-191.101
-191.69
-192.278
-192.867
-193.456
-194.045
-194.633
-195.222
-195.811
-196.399
-196.988
-197.577
-198.166
-198.754
-199.343
-199.932
-200.52
-201.109
-201.698
-202.286
-202.875
-203.464
-204.052
-204.641
-205.23
-205.818
-206.407
-206.995
-207.584
-208.173
-208.761
-209.35
-209.939
-210.527
-211.116
-211.704
-212.293
-212.882
-213.47
-214.059
-214.648
-215.236
-215.825
-216.413
-217.002
-217.591
-218.179
-218.768
-219.356
-219.945
-220.534
-221.122
-221.711
-222.299
-222.888
-223.477
-224.065
-224.654
-225.242
-225.831
-226.42
-227.008
-227.597
-228.185
-228.774
-229.363
-229.951
-230.54
-231.128
-231.717
-232.306
-232.894
-233.483
-234.071
-234.66
-235.249
-235.837
-236.426
-237.014
-237.603
-238.192
-238.78
-239.369
-239.958
-240.546
-241.135
-241.723
-242.312
-242.901
-243.489
-244.078
-244.666
-245.255
-245.844
-246.432
-247.021
-247.609
-248.198
-248.787
-249.375
-249.964
-250.552
-251.141
-251.73
-252.318
-252.907
-253.495
-254.084
-254.673
-255.261
-255.85
-256.438
-257.027
-257.616
-258.204
-258.793
-259.381
-259.97
-260.559
-261.147
-261.736
-262.324
-262.913
-263.502
-264.09
-264.679
-265.267
-265.856
-266.445
-267.033
-267.622
-268.21
-268.799
-269.388
-269.976
-270.565
-271.153
-271.742
-272.331
-272.919
-273.508
-274.096
-274.685
-275.274
-275.862
-276.451
-277.039
-277.628
-181.8
-182.389
-182.978
-183.567
-184.156
-184.745
-185.334
-185.923
-186.512
-187.101
-187.69
-188.279
-188.867
-189.456
-190.045
-190.634
-191.223
-191.811
-192.4
-192.989
-193.578
-194.167
-194.755
-195.344
-195.933
-196.521
-197.11
-197.699
-198.287
-198.876
-199.465
-200.054
-200.642
-201.231
-201.82
-202.408
-202.997
-203.586
-204.174
-204.763
-205.351
-205.94
-206.529
-207.117
-207.706
-208.295
-208.883
-209.472
-210.06
-210.649
-211.238
-211.826
-212.415
-213.004
-213.592
-214.181
-214.769
-215.358
-215.947
-216.535
-217.124
-217.713
-218.301
-218.89
-219.478
-220.067
-220.656
-221.244
-221.833
-222.421
-223.01
-223.599
-224.187
-224.776
-225.364
-225.953
-226.542
-227.13
-227.719
-228.307
-228.896
-229.485
-230.073
-230.662
-231.25
-231.839
-232.428
-233.016
-233.605
-234.193
-234.782
-235.371
-235.959
-236.548
-237.136
-237.725
-238.314
-238.902
-239.491
-240.079
-240.668
-241.257
-241.845
-242.434
-243.022
-243.611
-244.2
-244.788
-245.377
-245.965
-246.554
-247.143
-247.731
-248.32
-248.908
-249.497
-250.086
-250.674
-251.263
-251.851
-252.44
-253.029
-253.617
-254.206
-254.794
-255.383
-255.972
-256.56
-257.149
-257.737
-258.326
-258.915
-259.503
-260.092
-260.68
-261.269
-261.858
-262.446
-263.035
-263.623
-264.212
-264.801
-265.389
-265.978
-266.566
-267.155
-267.744
-268.332
-268.921
-269.509
-270.098
-270.687
-271.275
-271.864
-272.452
-273.041
-273.63
-274.218
-274.807
-275.395
-275.984
-276.573
-277.161
-277.75
-181.922
-182.511
-183.1
-183.689
-184.278
-184.867
-185.456
-186.045
-186.634
-187.223
-187.812
-188.401
-188.989
-189.578
-190.167
-190.756
-191.345
-191.933
-192.522
-193.111
-193.7
-194.288
-194.877
-195.466
-196.055
-196.643
-197.232
-197.821
-198.409
-198.998
-199.587
-200.175
-200.764
-201.353
-201.941
-202.53
-203.119
-203.707
-204.296
-204.885
-205.473
-206.062
-206.651
-207.239
-207.828
-208.417
-209.005
-209.594
-210.182
-210.771
-211.36
-211.948
-212.537
-213.126
-213.714
-214.303
-214.891
-215.48
-216.069
-216.657
-217.246
-217.834
-218.423
-219.012
-219.6
-220.189
-220.777
-221.366
-221.955
-222.543
-223.132
-223.72
-224.309
-224.898
-225.486
-226.075
-226.664
-227.252
-227.841
-228.429
-229.018
-229.607
-230.195
-230.784
-231.372
-231.961
-232.55
-233.138
-233.727
-234.315
-234.904
-235.493
-236.081
-236.67
-237.258
-237.847
-238.436
-239.024
-239.613
-240.201
-240.79
-241.379
-241.967
-242.556
-243.144
-243.733
-244.322
-244.91
-245.499
-246.087
-246.676
-247.265
-247.853
-248.442
-249.03
-249.619
-250.208
-250.796
-251.385
-251.973
-252.562
-253.151
-253.739
-254.328
-254.916
-255.505
-256.094
-256.682
-257.271
-257.859
-258.448
-259.037
-259.625
-260.214
-260.802
-261.391
-261.98
-262.568
-263.157
-263.745
-264.334
-264.923
-265.511
-266.1
-266.688
-267.277
-267.866
-268.454
-269.043
-269.631
-270.22
-270.809
-271.397
-271.986
-272.574
-273.163
-273.752
-274.34
-274.929
-275.517
-276.106
-276.695
-277.283
-277.872
-182.044
-182.633
-183.222
-183.811
-184.4
-184.989
-185.578
-186.167
-186.756
-187.345
-187.934
-188.522
-189.111
-189.7
-190.289
-190.878
-191.467
-192.055
-192.644
-193.233
-193.822
-194.41
-194.999
-195.588
-196.177
-196.765
-197.354
-197.943
-198.531
-199.12
-199.709
-200.297
-200.886
-201.475
-202.063
-202.652
-203.241
-203.829
-204.418
-205.007
-205.595
-206.184
-206.773
-207.361
-207.95
-208.538
-209.127
-209.716
-210.304
-210.893
-211.482
-212.07
-212.659
-213.247
-213.836
-214.425
-215.013
-215.602
-216.191
-216.779
-217.368
-217.956
-218.545
-219.134
-219.722
-220.311
-220.899
-221.488
-222.077
-222.665
-223.254
-223.842
-224.431
-225.02
-225.608
-226.197
-226.785
-227.374
-227.963
-228.551
-229.14
-229.728
-230.317
-230.906
-231.494
-232.083
-232.671
-233.26
-233.849
-234.437
-235.026
-235.614
-236.203
-236.792
-237.38
-237.969
-238.557
-239.146
-239.735
-240.323
-240.912
-241.5
-242.089
-242.678
-243.266
-243.855
-244.443
-245.032
-245.621
-246.209
-246.798
-247.386
-247.975
-248.564
-249.152
-249.741
-250.329
-250.918
-251.507
-252.095
-252.684
-253.272
-253.861
-254.45
-255.038
-255.627
-256.215
-256.804
-257.393
-257.981
-258.57
-259.158
-259.747
-260.336
-260.924
-261.513
-262.101
-262.69
-263.279
-263.867
-264.456
-265.044
-265.633
-266.222
-266.81
-267.399
-267.987
-268.576
-269.165
-269.753
-270.342
-270.93
-271.519
-272.108
-272.696
-273.285
-273.873
-274.462
-275.051
-275.639
-276.228
-276.816
-277.405
-277.994
-182.227
-182.816
-183.405
-183.994
-184.583
-185.172
-185.761
-186.35
-186.939
-187.528
-188.117
-188.705
-189.294
-189.883
-190.472
-191.061
-191.649
-192.238
-192.827
-193.416
-194.005
-194.593
-195.182
-195.771
-196.359
-196.948
-197.537
-198.126
-198.714
-199.303
-199.892
-200.48
-201.069
-201.658
-202.246
-202.835
-203.424
-204.012
-204.601
-205.19
-205.778
-206.367
-206.955
-207.544
-208.133
-208.721
-209.31
-209.899
-210.487
-211.076
-211.664
-212.253
-212.842
-213.43
-214.019
-214.608
-215.196
-215.785
-216.373
-216.962
-217.551
-218.139
-218.728
-219.316
-219.905
-220.494
-221.082
-221.671
-222.259
-222.848
-223.437
-224.025
-224.614
-225.203
-225.791
-226.38
-226.968
-227.557
-228.146
-228.734
-229.323
-229.911
-230.5
-231.089
-231.677
-232.266
-232.854
-233.443
-234.032
-234.62
-235.209
-235.797
-236.386
-236.975
-237.563
-238.152
-238.74
-239.329
-239.918
-240.506
-241.095
-241.683
-242.272
-242.861
-243.449
-244.038
-244.626
-245.215
-245.804
-246.392
-246.981
-247.569
-248.158
-248.747
-249.335
-249.924
-250.512
-251.101
-251.69
-252.278
-252.867
-253.455
-254.044
-254.633
-255.221
-255.81
-256.398
-256.987
-257.576
-258.164
-258.753
-259.341
-259.93
-260.519
-261.107
-261.696
-262.284
-262.873
-263.462
-264.05
-264.639
-265.227
-265.816
-266.405
-266.993
-267.582
-268.17
-268.759
-269.348
-269.936
-270.525
-271.113
-271.702
-272.291
-272.879
-273.468
-274.056
-274.645
-275.234
-275.822
-276.411
-276.999
-277.588
-278.177
-182.471
-183.06
-183.649
-184.238
-184.827
-185.416
-186.005
-186.594
-187.183
-187.772
-188.36
-188.949
-189.538
-190.127
-190.716
-191.305
-191.893
-192.482
-193.071
-193.66
-194.248
-194.837
-195.426
-196.015
-196.603
-197.192
-197.781
-198.369
-198.958
-199.547
-200.135
-200.724
-201.313
-201.901
-202.49
-203.079
-203.667
-204.256
-204.845
-205.433
-206.022
-206.611
-207.199
-207.788
-208.377
-208.965
-209.554
-210.142
-210.731
-211.32
-211.908
-212.497
-213.086
-213.674
-214.263
-214.851
-215.44
-216.029
-216.617
-217.206
-217.794
-218.383
-218.972
-219.56
-220.149
-220.738
-221.326
-221.915
-222.503
-223.092
-223.681
-224.269
-224.858
-225.446
-226.035
-226.624
-227.212
-227.801
-228.389
-228.978
-229.567
-230.155
-230.744
-231.332
-231.921
-232.51
-233.098
-233.687
-234.275
-234.864
-235.453
-236.041
-236.63
-237.218
-237.807
-238.396
-238.984
-239.573
-240.161
-240.75
-241.339
-241.927
-242.516
-243.104
-243.693
-244.282
-244.87
-245.459
-246.047
-246.636
-247.225
-247.813
-248.402
-248.99
-249.579
-250.168
-250.756
-251.345
-251.933
-252.522
-253.111
-253.699
-254.288
-254.876
-255.465
-256.054
-256.642
-257.231
-257.819
-258.408
-258.997
-259.585
-260.174
-260.762
-261.351
-261.94
-262.528
-263.117
-263.705
-264.294
-264.883
-265.471
-266.06
-266.648
-267.237
-267.826
-268.414
-269.003
-269.591
-270.18
-270.769
-271.357
-271.946
-272.534
-273.123
-273.712
-274.3
-274.889
-275.477
-276.066
-276.655
-277.243
-277.832
-278.42
-182.715
-183.304
-183.893
-184.482
-185.071
-185.66
-186.249
-186.838
-187.426
-188.015
-188.604
-189.193
-189.782
-190.371
-190.96
-191.548
-192.137
-192.726
-193.315
-193.903
-194.492
-195.081
-195.67
-196.258
-196.847
-197.436
-198.025
-198.613
-199.202
-199.791
-200.379
-200.968
-201.557
-202.145
-202.734
-203.323
-203.911
-204.5
-205.089
-205.677
-206.266
-206.855
-207.443
-208.032
-208.62
-209.209
-209.798
-210.386
-210.975
-211.564
-212.152
-212.741
-213.329
-213.918
-214.507
-215.095
-215.684
-216.272
-216.861
-217.45
-218.038
-218.627
-219.216
-219.804
-220.393
-220.981
-221.57
-222.159
-222.747
-223.336
-223.924
-224.513
-225.102
-225.69
-226.279
-226.867
-227.456
-228.045
-228.633
-229.222
-229.81
-230.399
-230.988
-231.576
-232.165
-232.753
-233.342
-233.931
-234.519
-235.108
-235.696
-236.285
-236.874
-237.462
-238.051
-238.639
-239.228
-239.817
-240.405
-240.994
-241.582
-242.171
-242.76
-243.348
-243.937
-244.525
-245.114
-245.703
-246.291
-246.88
-247.468
-248.057
-248.646
-249.234
-249.823
-250.411
-251
-251.589
-252.177
-252.766
-253.354
-253.943
-254.532
-255.12
-255.709
-256.297
-256.886
-257.475
-258.063
-258.652
-259.24
-259.829
-260.418
-261.006
-261.595
-262.183
-262.772
-263.361
-263.949
-264.538
-265.126
-265.715
-266.304
-266.892
-267.481
-268.069
-268.658
-269.247
-269.835
-270.424
-271.012
-271.601
-272.19
-272.778
-273.367
-273.955
-274.544
-275.133
-275.721
-276.31
-276.898
-277.487
-278.076
-278.664
-182.959
-183.548
-184.137
-184.726
-185.315
-185.904
-186.493
-187.081
-187.67
-188.259
-188.848
-189.437
-190.026
-190.615
-191.203
-191.792
-192.381
-192.97
-193.559
-194.147
-194.736
-195.325
-195.914
-196.502
-197.091
-197.68
-198.268
-198.857
-199.446
-200.034
-200.623
-201.212
-201.8
-202.389
-202.978
-203.566
-204.155
-204.744
-205.332
-205.921
-206.51
-207.098
-207.687
-208.276
-208.864
-209.453
-210.042
-210.63
-211.219
-211.807
-212.396
-212.985
-213.573
-214.162
-214.75
-215.339
-215.928
-216.516
-217.105
-217.694
-218.282
-218.871
-219.459
-220.048
-220.637
-221.225
-221.814
-222.402
-222.991
-223.58
-224.168
-224.757
-225.345
-225.934
-226.523
-227.111
-227.7
-228.288
-228.877
-229.466
-230.054
-230.643
-231.231
-231.82
-232.409
-232.997
-233.586
-234.174
-234.763
-235.352
-235.94
-236.529
-237.118
-237.706
-238.295
-238.883
-239.472
-240.061
-240.649
-241.238
-241.826
-242.415
-243.004
-243.592
-244.181
-244.769
-245.358
-245.947
-246.535
-247.124
-247.712
-248.301
-248.89
-249.478
-250.067
-250.655
-251.244
-251.833
-252.421
-253.01
-253.598
-254.187
-254.776
-255.364
-255.953
-256.541
-257.13
-257.719
-258.307
-258.896
-259.484
-260.073
-260.662
-261.25
-261.839
-262.427
-263.016
-263.605
-264.193
-264.782
-265.37
-265.959
-266.548
-267.136
-267.725
-268.313
-268.902
-269.491
-270.079
-270.668
-271.256
-271.845
-272.434
-273.022
-273.611
-274.199
-274.788
-275.377
-275.965
-276.554
-277.142
-277.731
-278.32
-278.908
-183.202
-183.791
-184.38
-184.969
-185.558
-186.147
-186.736
-187.325
-187.914
-188.503
-189.092
-189.681
-190.27
-190.858
-191.447
-192.036
-192.625
-193.214
-193.802
-194.391
-194.98
-195.569
-196.157
-196.746
-197.335
-197.924
-198.512
-199.101
-199.69
-200.278
-200.867
-201.456
-202.044
-202.633
-203.222
-203.81
-204.399
-204.988
-205.576
-206.165
-206.754
-207.342
-207.931
-208.519
-209.108
-209.697
-210.285
-210.874
-211.463
-212.051
-212.64
-213.228
-213.817
-214.406
-214.994
-215.583
-216.172
-216.76
-217.349
-217.937
-218.526
-219.115
-219.703
-220.292
-220.88
-221.469
-222.058
-222.646
-223.235
-223.823
-224.412
-225.001
-225.589
-226.178
-226.767
-227.355
-227.944
-228.532
-229.121
-229.71
-230.298
-230.887
-231.475
-232.064
-232.653
-233.241
-233.83
-234.418
-235.007
-235.596
-236.184
-236.773
-237.361
-237.95
-238.539
-239.127
-239.716
-240.304
-240.893
-241.482
-242.07
-242.659
-243.247
-243.836
-244.425
-245.013
-245.602
-246.19
-246.779
-247.368
-247.956
-248.545
-249.133
-249.722
-250.311
-250.899
-251.488
-252.076
-252.665
-253.254
-253.842
-254.431
-255.019
-255.608
-256.197
-256.785
-257.374
-257.962
-258.551
-259.14
-259.728
-260.317
-260.905
-261.494
-262.083
-262.671
-263.26
-263.848
-264.437
-265.026
-265.614
-266.203
-266.791
-267.38
-267.969
-268.557
-269.146
-269.734
-270.323
-270.912
-271.5
-272.089
-272.677
-273.266
-273.855
-274.443
-275.032
-275.62
-276.209
-276.798
-277.386
-277.975
-278.563
-279.152
-183.446
-184.035
-184.624
-185.213
-185.802
-186.391
-186.98
-187.569
-188.158
-188.747
-189.336
-189.925
-190.513
-191.102
-191.691
-192.28
-192.869
-193.457
-194.046
-194.635
-195.224
-195.812
-196.401
-196.99
-197.579
-198.167
-198.756
-199.345
-199.933
-200.522
-201.111
-201.7
-202.288
-202.877
-203.466
-204.054
-204.643
-205.231
-205.82
-206.409
-206.997
-207.586
-208.175
-208.763
-209.352
-209.941
-210.529
-211.118
-211.706
-212.295
-212.884
-213.472
-214.061
-214.65
-215.238
-215.827
-216.415
-217.004
-217.593
-218.181
-218.77
-219.358
-219.947
-220.536
-221.124
-221.713
-222.302
-222.89
-223.479
-224.067
-224.656
-225.245
-225.833
-226.422
-227.01
-227.599
-228.188
-228.776
-229.365
-229.953
-230.542
-231.131
-231.719
-232.308
-232.896
-233.485
-234.074
-234.662
-235.251
-235.839
-236.428
-237.017
-237.605
-238.194
-238.782
-239.371
-239.96
-240.548
-241.137
-241.725
-242.314
-242.903
-243.491
-244.08
-244.668
-245.257
-245.846
-246.434
-247.023
-247.611
-248.2
-248.789
-249.377
-249.966
-250.554
-251.143
-251.732
-252.32
-252.909
-253.497
-254.086
-254.675
-255.263
-255.852
-256.44
-257.029
-257.618
-258.206
-258.795
-259.383
-259.972
-260.561
-261.149
-261.738
-262.326
-262.915
-263.504
-264.092
-264.681
-265.269
-265.858
-266.447
-267.035
-267.624
-268.212
-268.801
-269.39
-269.978
-270.567
-271.155
-271.744
-272.333
-272.921
-273.51
-274.098
-274.687
-275.276
-275.864
-276.453
-277.041
-277.63
-278.219
-278.807