/*--------------------------------*- C++ -*----------------------------------*\
| =========                 |                                                 |
| \\      /  F ield         | OpenFOAM: The Open Source CFD Toolbox           |
|  \\    /   O peration     | Version:  v1912                                 |
|   \\  /    A nd           | Website:  www.openfoam.com                      |
|    \\/     M anipulation  |                                                 |
\*---------------------------------------------------------------------------*/
FoamFile
{
    version     2.0;
    format      ascii;
    class       volScalarField;
    location    "90";
    object      p;
}
// * * * * * * * * * * * * * * * * * * * * * * * * * * * * * * * * * * * * * //

dimensions      [1 -1 -2 0 0 0 0];


internalField   nonuniform List<scalar> 
14268
(
12199.4
11970.4
11741.2
11509.7
11277.3
11040
10798.7
10561.3
10341.2
10125.6
9928.82
9732.36
9536.62
9347.39
9162.94
8979.1
8795.25
8607.39
8412.05
8200.42
7971.67
7736.34
7513.04
7314.37
7114.99
6919.3
6720.14
6533.96
6361.98
6196.71
6028.48
5842.51
5662.69
5477.61
5336.95
5152.36
5030.88
4902.79
4749.69
4573.45
4546.67
4352.19
4197.46
3928.32
3784.93
3431.55
3218.51
3182.35
2968.52
3022.23
3171.9
3131.74
2304.85
2495.67
2373.33
2151.07
1950.03
1956.9
1965.98
1756.4
1672.7
1459.01
1561.16
1353.89
1336.86
1291.49
1300.38
1186.93
1090.24
1069.32
964.856
891.624
890.124
831.288
766.011
674.416
649.171
649.158
637.796
579.993
488.656
514.343
512.635
510.787
517.197
452.29
433.028
482.059
397.906
240.705
231.139
260.079
215.115
167.422
154.328
136.96
140.047
171.674
215.277
209.476
163.655
143.052
127.404
95.7554
12097.6
11868.4
11639.2
11407.6
11175
10937.3
10695.8
10458.3
10238
10023.1
9826.69
9630.36
9434.62
9245.14
9060.33
8876.13
8692.13
8504.46
8309.21
8097.47
7868.49
7633.16
7410.34
7212.11
7013.08
6817.47
6618.28
6432.23
6260.24
6094.73
5925.49
5735.65
5551.29
5361.26
5218.3
5041.52
4920.57
4773.23
4608.81
4426.37
4418.49
4229.99
4012.58
3773.07
3652.91
3287.15
3052.25
2975.18
2781.1
2825.38
2891.95
2882.59
2164.82
2400.62
2245.19
2066.42
1876.98
1835.35
1835.92
1634.27
1556.28
1373.99
1455.05
1296.18
1281.72
1225.18
1248.64
1136.08
1023.26
993.851
893.861
832.996
850.143
769.43
700.615
626.26
609.951
603.717
593.274
537.74
453.187
499.687
495.964
490.469
493.062
437.76
422.65
459.083
374.143
221.918
215.807
238.247
199.735
161.737
149.91
128.992
129.126
161.617
203.96
196.749
150.371
129.312
116.463
87.499
11996
11767
11537.7
11306.1
11073.5
10835.8
10594.3
10357
10137.4
9921.67
9725.32
9528.98
9333.24
9143.94
8959.19
8775.03
8591.06
8403.28
8207.9
7995.99
7767.02
7531.74
7308.87
7110.74
6911.68
6716.18
6517.03
6330.9
6158.98
5993.55
5824.04
5635.76
5454.24
5266.38
5123.24
4947.91
4826.76
4682.28
4518.43
4332.77
4326.77
4136.78
3913.88
3693.89
3579.27
3209.01
2961.84
2874.93
2713.21
2770.07
2860.56
2816.16
2069.07
2330.62
2169.16
2002.62
1804.9
1762.33
1767.94
1571.03
1486.84
1322.74
1421.7
1245.56
1232.89
1179.57
1205.34
1087.38
994.096
956.309
867.671
783.18
835.269
748.833
661.942
602.139
588.077
586.035
576.611
522.482
428.982
488.228
488.225
480.27
489.411
431.866
415.376
449.13
370.362
207.112
196.024
216.036
191.768
156.288
147.458
127.488
127.198
158.37
200.499
192.766
144.366
120.186
103.322
82.6826
11894.3
11665.2
11435.9
11204.1
10971.4
10733.6
10491.9
10254.4
10034.1
9819.59
9623.36
9427.12
9231.41
9041.92
8857.01
8672.72
8488.67
8301.01
8105.75
7893.79
7664.5
7429.06
7206.56
7008.69
6809.9
6614.4
6415.24
6229.33
6057.39
5891.79
5721.38
5530.5
5347.14
5155.63
5012.46
4842.53
4722.58
4568.19
4395.17
4189.93
4195.9
4011.53
3766.79
3568.03
3465.28
3097.26
2826.44
2699.62
2430.04
2587.97
2667.11
2674.37
1924.7
2154.23
1979.18
1933.97
1750.32
1698.96
1709.15
1479.15
1450.95
1250.63
1306.9
1205.5
1128.57
1040.02
1172.15
1067.91
966.167
924.707
815.251
748.955
780.886
695.772
565.16
579.755
557.491
553.564
550.458
501.402
421.337
478.226
476.367
403.024
453.746
419.862
402.525
431.774
352.554
194.054
162.656
163.123
174.243
149.322
143.375
119.618
124.036
137.862
173.406
184.402
138.125
113.446
88.646
66.1369
11792.8
11563.7
11334.4
11102.7
10869.9
10632.1
10390.5
10153.2
9934.06
9718.2
9522.06
9325.78
9130.07
8940.81
8755.94
8571.69
8387.72
8199.98
8004.54
7792.38
7563
7327.64
7105.08
6907.34
6708.52
6513.2
6314.02
6127.98
5956.17
5790.7
5620.04
5431.12
5248.21
5058.05
4914.38
4746.39
4627.43
4481.27
4308.85
4095.73
4095.29
3901.31
3652.93
3469.7
3378.18
3032.48
2760.32
2673.24
2403.37
2370.57
2607.06
2507.01
1892.95
2156.36
1947.08
1897.53
1728.18
1665.47
1673.24
1472.6
1395.1
1221.84
1157.18
1162.82
1147.06
1014.47
1147.76
1052.22
915.848
884.016
779.504
746.95
739.286
585.642
575.204
559.425
542.596
534.812
504.657
457.545
390.474
473.758
465.201
384.797
388.246
418.503
398.767
400.142
337.887
195.797
166.495
168.785
167.093
144.012
139.539
118.947
118.584
75.343
89.113
162.065
133.147
112.39
89.6745
44.9951
11691.2
11462
11232.6
11000.8
10768
10530.1
10288.3
10050.9
9830.57
9616.21
9420.22
9224.03
9028.32
8838.85
8653.96
8469.71
8285.66
8097.96
7902.69
7690.34
7460.8
7225.17
7002.88
6805.41
6606.81
6411.43
6212.25
6026.43
5854.63
5689.03
5517.37
5324.27
5136.48
4943.22
4801.62
4641.67
4520.68
4363.9
4179.87
3949.38
3948.55
3759.54
3480.59
3327.15
3253.31
2917.59
2654.62
2461.22
2302.24
2180.84
2376.38
2047.29
1813.43
2111.11
1870.8
1838.6
1667.16
1573.93
1597.03
1327.01
1144.94
1073.89
1147.16
1145.71
1168.02
1066.4
1114.44
1019.27
736.567
699.114
732.477
711.691
705.703
530.536
562.357
504.856
499.376
468.393
448.637
424.059
322.244
449.772
448.366
400.228
360.661
402.396
380.231
369.64
293.19
184.157
163.661
175.934
165.623
138.534
128.221
109.793
73.7524
31.1333
66.5113
73.573
119.244
108.487
91.201
46.5457
11589.6
11360.5
11131.1
10899.3
10666.5
10428.5
10186.8
9949.49
9730.84
9514.82
9318.86
9122.64
8926.94
8737.76
8552.77
8368.5
8184.54
7996.89
7801.41
7588.92
7359.17
7123.56
6901.29
6703.97
6505.41
6310.26
6110.98
5925.03
5753.3
5587.72
5415.33
5222.37
5036.41
4846.75
4707.12
4549.11
4425.59
4268.03
4080.35
3876.56
3848.65
3647.09
3354.59
3255.7
3169.47
2848.72
2617.35
2281.41
2296.6
2222.68
1862.67
2026.03
1740.8
2047.05
1758.29
1784.88
1633.57
1425.81
1532.48
970.551
979.879
1171.1
1212.11
1114.44
1142.91
1109.6
1086.35
955.564
708.432
621.574
680.151
673.023
693.804
553.772
592.186
501.105
441.262
375.804
476.033
450.596
339.498
427.501
394.825
432.154
423.411
397.058
344.079
372.174
223.087
174.799
158.04
187.923
163.24
133.898
119.174
87.6974
-15.3357
38.4329
77.6147
-8.57135
97.6538
106.441
94.5277
60.8313
11488
11258.8
11029.4
10797.5
10564.7
10326.7
10084.8
9847.35
9627.14
9412.79
9217.05
9020.91
8825.21
8635.84
8451
8266.74
8082.75
7895.05
7699.71
7487.06
7257.09
7021.22
6799.15
6602.13
6403.77
6208.5
6009.25
5823.5
5651.75
5485.58
5310.77
5113.81
4930.11
4739.46
4601.44
4448.89
4322.58
4146.54
3951.75
3762.72
3714.42
3490.93
3246.03
3153.17
3055.89
2724.81
2527.09
1892.89
2079.15
2202.77
1689.67
2072.8
1610.07
1912.38
1617.7
1709.94
1578.62
1306.92
1436.39
844.498
988.596
1092.11
1229.07
1093.96
1109.29
1082.02
1058.42
781.97
759.305
646.762
591.596
622.879
599.391
558.101
502.314
484.507
307.947
381.84
492.841
451.868
355.066
394.614
275.005
425.464
442.626
379.51
329.835
369.78
226.038
161.441
149.905
179.493
151.4
131.344
119.777
54.733
-56.847
47.3829
80.9165
12.0627
56.3709
103.312
89.0705
62.0001
11386.5
11157.3
10927.8
10696
10463.1
10225.1
9983.16
9745.85
9527.58
9311.4
9115.65
8919.51
8723.81
8534.74
8349.7
8165.51
7981.58
7794
7598.52
7385.62
7155.38
6919.45
6697.44
6500.6
6302.36
6107.3
5907.92
5722.07
5550.35
5383.61
5205.46
5011.27
4835.19
4645.11
4506.07
4353.85
4225.24
4042.99
3860.02
3697.48
3616.77
3425.22
3180.65
3044.2
2951.8
2626.66
2469.91
1897.19
1736.88
2220.08
1799.08
2170.78
1471.98
1822.27
1653.78
1533.58
1543.63
1303
1414.02
892.686
1037.09
1037.11
1092.67
1063.03
1052.92
1053.22
1028.18
795.025
810.598
655.543
510.568
562.068
571.605
628.294
291.864
470.79
316.947
424.833
484.035
437.139
354.884
338.299
281.973
410.695
437.429
342.256
359.977
370.076
236.974
143.62
146.911
172.693
142
127.167
123.134
67.0472
29.1748
59.2485
89.3121
36.604
3.655
96.6682
84.7516
60.4322
11284.9
11055.6
10826.1
10594.3
10361.4
10123.3
9881.23
9643.84
9423.78
9209.48
9013.87
8817.8
8622.11
8432.85
8248.04
8063.85
7879.93
7692.3
7496.86
7283.81
7053.34
6817.15
6595.31
6398.84
6200.79
6005.55
5806.24
5620.52
5448.88
5281.73
5100.8
4906.17
4730.59
4534.74
4390.37
4246.66
4117.08
3910.12
3751.2
3589.32
3476.89
3365.28
3088.07
2887.71
2810.62
2477.43
2369.6
1874.33
1552
2140.03
1908.65
2336.27
1342.26
1756.67
1649.91
1397.05
1521.58
1288.51
1385.86
905.363
1092.81
931.476
929.345
787.311
766.47
1008.16
891.189
855.25
814.965
683.584
406.669
450.976
552.989
563.558
267.298
432.042
332.883
450.114
470.958
421.703
337.003
308.548
321.65
410.254
415.507
334.404
361.117
364.911
234.694
133.403
143.636
164.474
117.515
123.471
120.939
96.6471
79.2749
76.5686
99.1434
66.7136
-47.8998
65.2611
79.6947
54.6887
11183.3
10954
10724.6
10492.7
10259.8
10021.7
9779.58
9542.23
9324.27
9107.9
8912.4
8716.34
8520.66
8331.72
8146.7
7962.6
7778.73
7591.24
7395.75
7182.38
6951.57
6715.26
6493.5
6297.23
6099.36
5904.4
5704.84
5519.08
5347.51
5180.68
5000.09
4808.49
4631.72
4429.17
4280.25
4141.47
4014.21
3801.26
3665.94
3525.8
3379.45
3265.27
3051.94
2815.29
2689.8
2392.81
2285.06
1895.23
1584.25
2114.53
2268.18
2289.42
1346.35
1704.41
1689.74
1544.33
1487.48
1286.7
1366.02
938.912
1092.68
550.894
909.448
468.955
608.598
863.076
673.975
885.701
779.001
707.031
274.007
453.777
560.441
504.236
317.307
391.722
353.078
446.038
459.921
408.084
330.151
318.326
366.125
404.042
409.069
338.839
359.253
344.753
234.963
139.394
140.91
161.067
116.082
115.29
107.475
95.3279
82.6738
79.6088
105.711
107.465
-27.3057
9.49056
72.8659
39.3567
11081.7
10852.4
10622.9
10391
10158.1
9919.89
9677.7
9440.29
9220.46
9006.01
8810.69
8614.68
8418.97
8229.89
8045.1
7861.03
7677.18
7489.67
7294.13
7080.6
6849.54
6612.98
6391.39
6195.52
5997.86
5802.61
5603.2
5417.52
5246.1
5079.47
4900.09
4707.48
4524.91
4316.47
4159.56
4027.29
3906.25
3687.12
3553.14
3383.44
3263.86
3114.58
2856.26
2732.89
2565.16
2305.98
2219.34
1879.38
1549.73
2009.74
2250.57
2178.48
1331.54
1633.27
1576.23
1537.73
1458.66
1244.5
1308.86
960.227
1010.22
329.963
990.319
521.576
521.188
793.538
730.298
844.115
753.137
700.958
217.893
496.574
559.437
425.504
362.686
391.073
380.061
442.14
442.947
400.996
311.376
329.479
379.526
389.99
373.02
360.94
350.363
302.951
222.724
132.167
137.822
153.219
115.717
91.1255
71.4409
75.6583
78.0318
75.3311
102.143
111.917
26.3889
-35.7586
62.3395
42.0673
10980.1
10750.9
10521.3
10289.4
10056.6
9818.3
9576.02
9338.6
9121.02
8904.39
8709.11
8513.18
8317.5
8128.73
7943.74
7759.75
7575.93
7388.59
7193.07
6979.17
6747.75
6511.02
6289.5
6093.86
5896.42
5701.49
5501.77
5316.05
5144.7
4978.46
4800.62
4609.77
4428.11
4222.54
4066.76
3922.57
3806.66
3608.55
3482.33
3314.31
3166.62
2978.72
2607.61
2658.54
2440.63
2259.18
2156.09
1898.81
1565.59
1869.2
2085.82
2022.51
1326.01
1570.27
1307.06
1462.67
1330.04
1243.33
1253.16
1024.31
889.688
400.132
1056.07
598.84
453.565
799.639
832.807
734.387
709.363
681.042
246.661
520.158
568.193
351.319
397.763
417.339
383.929
427.956
437.534
393.488
275.348
340.41
373.628
385.403
277.699
364.121
344.59
267.861
216.474
111.185
135.663
142.898
118.473
90.4336
38.4274
61.0424
75.9801
71.4553
95.7848
102.247
72.2469
-28.4683
46.604
47.7372
10878.5
10649.2
10419.6
10187.7
9954.92
9716.57
9474.17
9236.69
9017.28
8802.48
8607.42
8411.52
8215.82
8026.95
7842.18
7658.22
7474.46
7287.12
7091.5
6877.42
6645.74
6408.77
6187.4
5992.19
5794.98
5599.74
5400.16
5214.49
5043.28
4877.27
4700.55
4508.53
4325.52
4121.52
3964.83
3812.1
3703.46
3517.2
3392.2
3220.88
3054.77
2842.93
2528.78
2573.38
2312.74
2190.13
2082.05
1910.39
1539.99
1627.47
1742.04
1437.58
1306.82
1498.46
1186.81
1392.46
1057.73
1200.72
1190.91
1013.66
682.885
444.47
1042.56
658.924
539.067
767.681
834.173
600.787
574.853
653.978
265.254
499.11
559.56
287.307
311.78
403.945
380.063
409.684
421.551
378.278
290.986
341.784
364.727
368.676
193.542
312.135
332.624
269.619
210.683
118.888
131.551
125.242
111.18
95.0085
72.3868
79.1093
71.4444
67.4995
90.6775
97.6097
83.4012
-15.0027
23.9974
41.9732
10726.2
10496.9
10267.3
10035.4
9802.64
9564.2
9321.62
9084.09
8867.57
8649.98
8455.01
8259.22
8063.57
7875.13
7690.14
7506.28
7322.59
7135.44
6939.91
6725.28
6493.05
6255.75
6034.48
5839.67
5642.85
5448.02
5248
5062.25
4891.2
4725.55
4550.33
4359.93
4180.24
3978.86
3827.99
3661.02
3554.85
3398.29
3282.44
3141.41
2943.3
2561.58
2475.42
2444.2
2216.21
2120.35
1997.98
1972.48
1565.98
1459.96
536.767
714.138
1302.94
1397.09
1227.51
1268.05
1065.11
1109.45
1136.85
957.739
672.218
609.594
1020.43
745.018
742.418
610.105
673.807
646.927
606.677
626.079
324.857
459.265
496.106
262.429
352.497
369.67
358.661
397.667
345.725
324.578
306.661
330.757
340.059
259.466
131.502
173.035
253.819
270.784
196.553
129.318
111.361
126.931
100.275
93.9194
92.8849
82.3447
68.9309
61.6917
85.388
91.3161
78.5754
7.37277
-8.66056
34.5236
10523
10293.7
10063.9
9832.05
9599.39
9360.85
9117.97
8880.21
8660.73
8446.08
8251.56
8055.89
7860.23
7671.69
7487.1
7303.45
7119.9
6932.81
6736.92
6521.9
6289.17
6051.46
5830.39
5636.51
5440.17
5244.74
5044.66
4859.09
4688.27
4522.94
4348.52
4155.91
3975.17
3777.3
3628.82
3456.45
3331.35
3206.68
3089.02
2938.24
2806.83
2263.3
2363.31
2277.89
2091.63
1948.79
1841.64
1884.37
1579.64
1467.32
431.962
890.781
1216.76
1255.48
1107.25
691.53
1140.99
999.41
1051.88
905.159
695.65
756.191
929.144
723.042
790.216
574.178
688.215
707.247
658.945
611.378
365.642
403.908
392.38
195.962
379.168
339.061
312.953
340.911
71.205
-25.6516
281.178
302.334
307.976
-53.5027
108.411
152.837
195.523
237.785
177.718
117.505
117.785
128.622
86.6044
82.9975
76.1852
63.3928
62.8793
54.2665
74.4097
80.2232
75.4924
40.7705
-38.9072
-17.7798
10319.8
10090.5
9860.76
9629.01
9396.46
9157.75
8914.5
8676.5
8461.18
8242.6
8048.28
7852.79
7657.2
7469.07
7284.39
7100.93
6917.48
6730.72
6534.86
6319.05
6085.78
5847.83
5626.26
5433.28
5237.54
5042.44
4841.98
4655.91
4485.51
4320.48
4146.65
3956.7
3778.03
3583.28
3438.52
3247.53
3106.39
3005.64
2889.08
2766.62
2711.43
2168.14
2276.72
2123.99
1976.91
1848.54
1707.76
1773.61
1522.23
1582.29
632.216
928.928
1099.66
1141.6
1004.53
224.673
1108.22
784.421
982.612
860.792
710.954
769.052
892.876
687.201
748.437
716.57
706.46
687.525
620.02
568.098
370.01
336.98
158.731
238.232
350.765
329.801
290.977
273.321
-156.549
-217.105
184.685
277.612
256.372
-249.322
37.2927
206.459
219.674
188.298
161.545
99.3508
119.479
121.014
52.5617
63.9615
36.0971
63.0623
60.7013
46.1018
45.4263
53.6694
66.9172
53.7334
-23.8569
-37.6353
10116.7
9887.31
9657.34
9425.7
9193.35
8954.54
8710.86
8472.46
8253.83
8038.58
7844.78
7649.39
7453.8
7265.88
7081.45
6898.41
6715.03
6528.3
6332.11
6115.94
5882.39
5644.29
5422.73
5230.73
5035.04
4839.33
4638.03
4452.6
4282.42
4117.7
3943.83
3753.24
3573.27
3382.17
3223.49
3013.24
2872.87
2787.31
2668.36
2530.49
2521.06
2090.13
2126.5
1972.51
1853.11
1706.84
1592.73
1670.18
1426.31
1533.16
730.865
958.371
1014.27
1065.69
902.352
57.7152
891.807
3.41813
745.242
791.399
679.851
598.527
761.372
647.489
718.778
746.047
668.839
649.853
561.311
516.959
337.864
387.178
231.492
316.73
308.388
286.917
230.627
85.894
-224.082
-153.679
-199.961
202.576
0.0767894
-249.757
-135.571
224.347
232.711
112.095
140.219
92.0831
110.801
93.5794
9.81948
46.2731
-0.556388
45.5387
55.9677
43.0288
10.3546
-24.6567
52.8252
53.32
-7.0585
-17.2264
9913.45
9684.14
9454.27
9222.78
8990.59
8751.54
8507.32
8268.58
8054.32
7834.98
7641.5
7446.28
7250.73
7063.05
6878.76
6695.9
6512.55
6326.41
6130.15
5913.58
5679.67
5441.44
5219.05
5027.69
4832.63
4637.08
4435.7
4249.33
4079.68
3915.46
3742.61
3554.97
3376.71
3186.82
3030.22
2798.78
2671.14
2614.31
2509.09
2386.39
2362.35
2027.17
1989.39
1814.49
1727.95
1594.53
1471.53
1588.2
1350.92
1405.44
895.98
926.682
923.664
1015.34
942.166
259.019
333.401
-107.967
183.227
745.786
625.876
589.581
475.75
613.831
690.496
693.7
588.699
563.607
462.107
453.11
302.748
353.038
357.064
341.092
192.967
180.547
65.5926
-197.829
-184.242
41.3004
-99.3699
-17.5154
-335.032
-202.582
-193.268
136.488
184.108
41.3868
109.388
95.0169
103.652
30.2569
18.954
23.6945
4.15755
24.196
51.2407
42.9133
-3.06883
-32.5358
26.689
54.5886
14.6885
9.49721
9710.27
9480.92
9250.8
9019.52
8787.62
8548.44
8303.67
8064.47
7847.22
7630.88
7437.96
7242.89
7047.35
6859.69
6676.3
6493.51
6310.36
6124.22
5927.71
5711.21
5477.63
5239.31
5016.69
4825.88
4630.27
4433.77
4231.88
4045.95
3876.51
3713.65
3541.8
3354.15
3176.69
2989.94
2825.42
2596.65
2486.89
2445.23
2345.87
2205.02
2174.39
1954.34
1872.19
1649.21
1591.23
1479.14
1310.91
1518.98
1272.22
1211.06
761.736
878.164
794.651
976.457
849.387
596.285
697.715
404.08
120.572
698.163
584.965
564.299
445.849
590.481
662.238
539.938
418.474
416.033
279.693
257.675
271.68
249.245
333.658
262.826
52.0739
6.13459
-98.7019
-347.334
-150.354
108.172
93.9696
-239.724
-395.155
-164.985
-179.231
-182.258
-46.4351
34.7648
96.1053
88.2139
93.8131
6.26035
36.4118
-3.85068
6.9128
1.71214
45.4604
37.584
3.3477
-15.3959
0.115263
48.59
26.4937
16.0525
9507.07
9277.84
9047.85
8816.81
8585.09
8345.56
8100.1
7860.76
7647.84
7427.3
7234.86
7039.83
6844.26
6656.9
6473.52
6290.75
6108.14
5922.75
5726.25
5510.09
5277.01
5038.4
4814.03
4623.26
4428.27
4231.92
4029.21
3842.71
3674.07
3512.99
3343.19
3159.88
2984.58
2801.09
2655.26
2429.54
2323.43
2272.65
2186.89
2077.27
2049.42
1857.78
1739.28
1504.16
1447
1389.17
1174.85
1457.5
1195.72
1089.3
747.81
850.882
739.588
909.666
822.344
721.883
819.566
597.477
226.547
644.639
552.339
540.985
517.7
572.527
634.903
479.736
274.981
328.55
229.912
168.797
251.367
221.167
312.892
202.289
-2.45888
-51.4672
-79.0857
-337.154
-123.36
77.8385
109.878
-268.07
-337.132
-129.438
-151.73
-284.259
-138.745
24.8824
101.525
83.533
82.4052
13.4047
42.5058
-2.97336
10.1116
-0.247184
35.4981
33.0728
21.4867
-13.4369
-0.848422
40.5329
26.9533
14.2724
8284.71
8056.88
7828.01
7600.75
7372.74
7134.42
6887.5
6647.28
6421.13
6218.54
6031
5840.55
5648.5
5465.09
5285.4
5107.44
4929.33
4748.17
4555.94
4345.58
4120.64
3894.08
3677.78
3475.32
3278.36
3084.97
2897.83
2724.52
2570.15
2426.36
2282.56
2131.67
1978.78
1830.2
1699.78
1614.96
1506.91
1442.74
1369.93
1237.24
1334.35
1296
1149.4
972.577
866.285
790.582
797.605
975.883
804.43
660.789
636.115
557.291
486.56
561.062
405.042
585.547
418.093
512.347
292.686
329.361
318.056
321.657
328.885
374.326
359.578
326.928
265.394
314.846
269.433
193.89
154.377
180.995
168.362
156.06
100.189
69.0121
1.5526
5.93698
102.31
100.373
100.965
72.8864
87.5165
114.247
92.9755
66.4908
25.7609
55.7079
58.8291
46.2471
35.4126
32.382
32.812
26.1295
14.866
11.4992
10.4356
10.5457
13.3407
17.371
20.9906
17.2871
11.3282
7.29959
6047.05
5828.47
5611.06
5392.91
5164.82
4922.94
4674.99
4441.95
4227.07
4028.46
3837.71
3646.39
3456.36
3278.89
3119.21
2966.01
2814.66
2658.25
2482.04
2293.05
2098.77
1910.22
1738.06
1567.44
1399.4
1249.98
1127.78
1029.1
942.649
845.614
749.776
661.369
591.26
573.654
544.033
493.32
445.993
392.202
360.166
278.093
252.428
309.918
295.348
241.818
128.325
62.7495
96.2096
179.725
159.611
107.471
94.5103
84.6039
112.05
115.916
77.409
48.9505
84.4989
111.947
119.722
64.6914
33.4648
24.4668
68.1786
114.073
46.5157
-0.533798
20.111
27.0927
25.3387
46.9224
37.0727
15.818
-1.47445
2.65305
3.18255
5.04163
30.3531
19.3275
7.7051
21.8957
20.2584
18.939
11.2172
-2.30733
-4.43513
-15.797
-12.4319
-4.46322
5.15239
13.3629
0.550855
-19.2976
-18.0873
-19.8934
-17.3186
-14.1085
-11.0345
-10.3223
-10.7671
-10.8817
-11.0539
-9.91498
-5.78968
-8.88463
3815.24
3596.08
3385.79
3185.07
2981.03
2767.89
2552.58
2337.7
2131.65
1945.47
1772.43
1621.09
1489.83
1370.44
1253.66
1141.28
1035.4
925.05
810.898
714.802
633.282
548.565
463.235
379.693
305.395
247.59
208.645
182.299
155.416
124.329
91.513
70.3517
66.5912
71.6078
66.7608
59.9212
54.1317
39.4039
18.6892
12.4289
24.6952
47.1518
37.5601
16.2887
-6.9002
-5.8408
8.2511
22.4097
19.0993
6.20631
-2.8688
-2.74082
3.7443
14.9415
-7.37653
-19.373
-8.42767
2.51565
0.166379
-5.96085
-8.99501
-5.93217
2.3262
12.3218
-20.7618
-31.7157
-17.1252
-4.19807
2.63617
3.73268
-1.87931
-11.6206
-25.4901
-29.6784
-21.0799
-14.4912
-14.3075
-16.7327
-18.002
-15.4441
-14.2572
-14.8316
-19.7474
-23.6686
-21.6573
-18.5945
-19.0187
-16.6249
-10.5803
-11.0515
-20.7369
-30.4716
-27.5501
-23.3429
-20.5497
-18.4964
-17.0108
-16.9839
-18.6351
-20.864
-20.9181
-18.9915
-19.2282
-23.6803
1730.02
1573.08
1418.63
1269.7
1129.22
994.235
862.081
743.195
633.979
536.138
450.565
384.029
333.522
295.476
258.848
211.571
162.437
119.436
86.1884
68.4502
62.8212
59.1956
53.6951
47.1967
35.544
27.1478
19.848
15.3052
10.4521
5.84758
1.87802
0.510255
1.35103
2.81142
3.56222
3.05431
0.78526
-2.69597
-5.39409
-6.32719
-5.73785
-3.58911
-5.63944
-9.37544
-12.5707
-12.4789
-9.35742
-5.08297
-4.04255
-6.09662
-7.09015
-7.14043
-7.40806
-7.90728
-15.4822
-18.5663
-15.5612
-12.1376
-9.21985
-9.92244
-12.8148
-13.4052
-12.091
-12.0347
-20.4677
-23.6375
-18.9739
-12.5712
-8.44372
-8.64137
-9.46257
-15.5624
-22.4574
-24.653
-22.4692
-17.8693
-15.547
-15.9607
-18.4343
-19.9874
-19.4565
-19.6205
-23.2193
-26.0393
-26.9811
-26.732
-25.6043
-23.3288
-21.3838
-21.2848
-24.6979
-26.5395
-26.2143
-24.996
-23.7626
-22.6494
-21.6137
-21.0107
-21.2354
-21.6099
-22.1935
-22.7689
-24.7264
-27.9846
428.325
358.533
295.678
239.747
192.276
153.644
121.31
94.4637
72.8714
58.892
48.7229
43.1089
36.017
29.3261
22.8233
14.9419
7.34377
2.27935
0.716987
-0.587591
0.226792
1.07182
0.997336
-0.0853356
-2.14776
-3.63197
-4.43164
-5.1004
-5.89029
-6.74807
-7.53365
-7.99915
-7.89616
-7.30217
-6.73147
-7.20374
-8.32759
-9.49753
-10.8733
-11.6449
-11.2585
-10.5623
-10.5087
-11.5154
-12.7
-13.3942
-12.3446
-10.9091
-10.645
-12.1827
-13.5185
-14.307
-13.6608
-13.4411
-14.3966
-16.3376
-16.1288
-14.1477
-13.8142
-15.2025
-16.1293
-16.3096
-15.6521
-15.0087
-16.3906
-19.8034
-19.0146
-15.8705
-14.8947
-14.7716
-15.3948
-17.8852
-20.6572
-22.9287
-22.7387
-21.4593
-21.3263
-21.618
-22.4913
-23.1779
-23.1221
-24.0182
-25.8122
-27.575
-28.1215
-27.5206
-26.8423
-25.7741
-25.0236
-24.2595
-25.9286
-27.5385
-28.0223
-27.0963
-26.0713
-25.3471
-24.8537
-24.7537
-24.6037
-25.3235
-26.2609
-26.4868
-27.3535
-29.2863
41.9173
33.735
26.8129
20.5985
15.104
10.7442
7.09689
4.27429
2.27528
0.957918
0.275692
-0.67429
-1.85726
-2.89472
-4.13512
-5.83246
-7.54973
-8.84123
-9.55642
-9.52522
-8.71349
-7.75171
-7.07674
-6.94574
-7.10233
-7.56367
-7.98707
-8.47877
-8.926
-9.503
-10.0193
-10.4476
-10.4984
-10.3593
-10.2169
-10.465
-10.9924
-11.7321
-12.4671
-12.9141
-12.9254
-13.2486
-13.3067
-14.0835
-14.674
-14.7421
-14.5108
-14.079
-14.0494
-14.4992
-15.092
-15.4715
-15.8252
-16.2651
-16.3764
-17.4809
-17.5018
-17.3123
-17.4774
-17.7477
-18.4382
-18.9233
-18.8191
-18.96
-19.3072
-20.318
-20.1643
-18.9743
-18.4297
-18.3082
-18.7661
-20.3356
-22.2031
-23.9969
-24.3203
-24.2418
-23.728
-23.6975
-24.303
-25.2343
-25.9282
-26.7287
-27.9878
-29.2242
-29.9701
-30.1849
-30.0198
-29.1515
-28.3802
-27.8179
-28.1594
-28.8419
-28.827
-28.588
-28.3555
-28.1543
-28.2101
-27.6963
-27.4491
-27.8542
-28.2853
-28.6424
-29.5463
-30.7127
-2.74541
-3.71074
-4.79074
-5.74044
-6.14959
-6.33607
-6.50493
-6.60302
-6.62453
-6.6666
-6.71231
-6.87966
-7.04684
-7.49863
-8.2399
-9.07499
-9.97328
-10.7654
-11.3502
-11.2095
-10.7845
-10.3954
-10.2053
-10.2977
-10.613
-11.1089
-11.6044
-12.0632
-12.454
-12.8075
-13.1365
-13.391
-13.5593
-13.676
-13.8198
-14.135
-14.6108
-15.142
-15.6376
-15.9797
-16.2148
-16.3765
-16.5205
-16.8484
-17.1162
-17.3527
-17.4167
-17.3241
-17.5116
-18.06
-18.6124
-19.0499
-19.1647
-19.2815
-19.4275
-20.0745
-20.1693
-20.0949
-20.117
-20.5997
-21.1004
-21.5159
-21.3713
-21.412
-21.5033
-22.1591
-22.1236
-21.5542
-21.4136
-21.5091
-22.0578
-23.2254
-24.5213
-25.6509
-26.0811
-26.2263
-26.303
-26.6998
-27.2566
-27.9364
-28.5593
-29.3072
-30.3079
-31.2892
-31.9057
-32.1736
-32.0728
-31.6124
-30.9654
-30.6225
-30.5625
-30.9807
-31.105
-31.0476
-30.871
-30.7032
-30.8166
-30.3033
-30.3416
-30.6149
-31.1546
-31.62
-32.3245
-33.1317
-8.21561
-8.55426
-8.76351
-8.89902
-8.99639
-9.11292
-9.26134
-9.42149
-9.57634
-9.75004
-9.98655
-10.3036
-10.7145
-11.2549
-11.8254
-12.389
-12.9406
-13.3823
-13.646
-13.7159
-13.6503
-13.5624
-13.5329
-13.6088
-13.8096
-14.1074
-14.4023
-14.6901
-14.9515
-15.2545
-15.5562
-15.8335
-16.0623
-16.1939
-16.3326
-16.573
-16.8817
-17.2797
-17.715
-18.0227
-18.2664
-18.4721
-18.6824
-19.062
-19.2745
-19.4997
-19.632
-19.6486
-19.796
-20.0632
-20.3766
-20.6
-20.9364
-21.2904
-21.5604
-21.899
-22.0612
-22.2436
-22.4799
-22.8093
-23.1106
-23.4381
-23.5637
-23.7238
-23.8143
-24.2212
-24.1484
-24.0102
-24.0758
-24.2009
-24.6979
-25.5346
-26.481
-27.3779
-27.9416
-28.3096
-28.5585
-28.8458
-29.3268
-29.9974
-30.6797
-31.4675
-32.3433
-33.1548
-33.588
-33.9758
-33.8636
-33.6034
-33.2592
-32.9607
-32.8229
-32.9861
-32.9556
-32.8113
-32.8236
-32.9038
-32.8301
-32.7845
-32.9103
-33.1792
-33.5718
-33.9685
-34.5411
-35.1092
-11.0176
-11.3221
-11.5931
-11.8671
-12.1071
-12.3056
-12.4727
-12.6225
-12.759
-12.9409
-13.1551
-13.447
-13.776
-14.1236
-14.5134
-14.9271
-15.3329
-15.6994
-15.9643
-16.0837
-16.1189
-16.1111
-16.1353
-16.2518
-16.4499
-16.7198
-17.0214
-17.3239
-17.6247
-17.9107
-18.1796
-18.4131
-18.6326
-18.8411
-19.0701
-19.3622
-19.7116
-20.0684
-20.4037
-20.6989
-20.9559
-21.185
-21.3879
-21.6056
-21.8312
-22.0336
-22.2058
-22.3717
-22.6226
-22.9611
-23.3224
-23.6429
-23.9141
-24.1403
-24.2912
-24.5629
-24.8052
-24.932
-25.1195
-25.4041
-25.7209
-25.9868
-26.092
-26.187
-26.2152
-26.4475
-26.5691
-26.6188
-26.8116
-27.037
-27.4986
-28.1861
-28.8972
-29.5702
-30.0926
-30.496
-30.825
-31.2258
-31.7412
-32.3627
-33.0018
-33.7058
-34.4385
-35.1336
-35.7087
-35.9012
-35.8555
-35.6887
-35.4352
-35.1731
-35.0257
-35.0807
-35.0885
-35.1411
-35.1794
-35.2616
-35.2304
-35.2867
-35.4161
-35.6317
-35.9724
-36.4082
-36.9372
-37.4146
-13.879
-14.1803
-14.4265
-14.6313
-14.8041
-14.9486
-15.0928
-15.2481
-15.4156
-15.6101
-15.8426
-16.1125
-16.4231
-16.7665
-17.122
-17.4967
-17.8416
-18.1383
-18.366
-18.4835
-18.5807
-18.6545
-18.7551
-18.9112
-19.1226
-19.3663
-19.6196
-19.8676
-20.1143
-20.3573
-20.6021
-20.8402
-21.0737
-21.2764
-21.4923
-21.7451
-22.0132
-22.3012
-22.6039
-22.8681
-23.115
-23.3391
-23.5769
-23.8007
-24.0517
-24.2763
-24.4934
-24.6456
-24.8788
-25.0993
-25.3511
-25.577
-25.8345
-26.0872
-26.3332
-26.556
-26.7494
-26.9983
-27.2598
-27.5119
-27.7817
-28.0215
-28.2031
-28.3532
-28.467
-28.6442
-28.8057
-28.9337
-29.1207
-29.4048
-29.8295
-30.4166
-31.0547
-31.6688
-32.2005
-32.6425
-33.046
-33.4751
-33.9778
-34.542
-35.1641
-35.7992
-36.4164
-36.9498
-37.3516
-37.5938
-37.6252
-37.5527
-37.3949
-37.2404
-37.1472
-37.1518
-37.1212
-37.1365
-37.2138
-37.3306
-37.3797
-37.5165
-37.6897
-37.9241
-38.218
-38.6222
-39.0352
-39.4844
-16.4143
-16.6797
-16.9161
-17.1362
-17.338
-17.5207
-17.6963
-17.8719
-18.0574
-18.2682
-18.5102
-18.7822
-19.0774
-19.3713
-19.6765
-19.9808
-20.2641
-20.5266
-20.7392
-20.8937
-21.0392
-21.1662
-21.3072
-21.4744
-21.6737
-21.8989
-22.1404
-22.3857
-22.6318
-22.8828
-23.1278
-23.3681
-23.6013
-23.8323
-24.0767
-24.3475
-24.6333
-24.9223
-25.2089
-25.4689
-25.7188
-25.9482
-26.1709
-26.3789
-26.6016
-26.8048
-27.0168
-27.2303
-27.4808
-27.7599
-28.0457
-28.3179
-28.5834
-28.8156
-29.0258
-29.2523
-29.4666
-29.6753
-29.8958
-30.1379
-30.3754
-30.5629
-30.7161
-30.8519
-30.9647
-31.1725
-31.3402
-31.517
-31.7591
-32.0658
-32.4576
-32.9352
-33.4483
-33.9632
-34.4472
-34.8816
-35.307
-35.7484
-36.2516
-36.7945
-37.364
-37.9265
-38.4654
-38.9529
-39.326
-39.5616
-39.6134
-39.5741
-39.4586
-39.3531
-39.282
-39.267
-39.2779
-39.3572
-39.4768
-39.5961
-39.6842
-39.8193
-39.9912
-40.2155
-40.4847
-40.8871
-41.3
-41.8079
-19
-19.2658
-19.5043
-19.7196
-19.9165
-20.1005
-20.2824
-20.4698
-20.6683
-20.8837
-21.1192
-21.3736
-21.6452
-21.9228
-22.2075
-22.4915
-22.7595
-23.0048
-23.2098
-23.3898
-23.5513
-23.7036
-23.8659
-24.0468
-24.251
-24.4702
-24.6989
-24.9271
-25.1608
-25.3935
-25.6242
-25.851
-26.0757
-26.3009
-26.5321
-26.7683
-27.0116
-27.2609
-27.5104
-27.7477
-27.9835
-28.2063
-28.4335
-28.6531
-28.8907
-29.112
-29.3446
-29.5475
-29.7845
-30.0135
-30.2333
-30.4597
-30.6858
-30.9121
-31.1298
-31.3433
-31.5626
-31.7882
-32.0129
-32.2354
-32.4593
-32.6683
-32.8488
-33.0198
-33.186
-33.363
-33.5734
-33.7935
-34.0629
-34.3872
-34.7791
-35.2377
-35.7252
-36.2103
-36.6747
-37.1137
-37.5433
-37.9865
-38.4607
-38.9649
-39.483
-39.9746
-40.4331
-40.8547
-41.1651
-41.318
-41.4427
-41.4738
-41.4277
-41.3971
-41.3652
-41.3644
-41.3924
-41.4623
-41.5862
-41.7125
-41.8466
-42.0142
-42.2061
-42.438
-42.7171
-43.072
-43.4685
-43.95
-21.5572
-21.8089
-22.0436
-22.2653
-22.4755
-22.6785
-22.8789
-23.0804
-23.2899
-23.5117
-23.7482
-23.9965
-24.2558
-24.5126
-24.7729
-25.0283
-25.27
-25.4962
-25.6981
-25.8859
-26.06
-26.2312
-26.4082
-26.5947
-26.7955
-27.0068
-27.2262
-27.4467
-27.6745
-27.903
-28.1302
-28.3588
-28.587
-28.8176
-29.0548
-29.3007
-29.5529
-29.8074
-30.0615
-30.3018
-30.5385
-30.7632
-30.9836
-31.1977
-31.4149
-31.6292
-31.8472
-32.0695
-32.3122
-32.5574
-32.8071
-33.0534
-33.2963
-33.5226
-33.7407
-33.9594
-34.1743
-34.3884
-34.6057
-34.8224
-35.0313
-35.2232
-35.4031
-35.5719
-35.7394
-35.9288
-36.1304
-36.3509
-36.6105
-36.91
-37.2615
-37.6598
-38.0867
-38.5227
-38.9559
-39.3808
-39.8042
-40.2398
-40.6964
-41.1677
-41.638
-42.093
-42.518
-42.8914
-43.1931
-43.4195
-43.4953
-43.5261
-43.5088
-43.5046
-43.4919
-43.5067
-43.5673
-43.6783
-43.8052
-43.9407
-44.0761
-44.2429
-44.4414
-44.6913
-44.9852
-45.357
-45.7889
-46.2656
-24.179
-24.4266
-24.6597
-24.8795
-25.0891
-25.2923
-25.4939
-25.6975
-25.9069
-26.125
-26.3528
-26.5894
-26.8321
-27.0748
-27.3213
-27.5631
-27.795
-28.0148