/*--------------------------------*- C++ -*----------------------------------*\
| =========                 |                                                 |
| \\      /  F ield         | OpenFOAM: The Open Source CFD Toolbox           |
|  \\    /   O peration     | Version:  v1912                                 |
|   \\  /    A nd           | Website:  www.openfoam.com                      |
|    \\/     M anipulation  |                                                 |
\*---------------------------------------------------------------------------*/
FoamFile
{
    version     2.0;
    format      ascii;
    class       volScalarField;
    location    "90";
    object      p_rgh;
}
// * * * * * * * * * * * * * * * * * * * * * * * * * * * * * * * * * * * * * //

dimensions      [1 -1 -2 0 0 0 0];


internalField   nonuniform List<scalar> 
14268
(
50386.5
29972.4
5699.17
1268.36
1666.26
1754.88
1206.5
187.772
11.9425
10.3773
10.0684
10.9612
11.8101
12.5224
12.4469
11.6622
9.04434
6.74781
6.11308
5.94332
5.7655
5.68764
5.67623
6.35794
7.12936
7.67757
7.99939
8.51064
10.2178
10.1473
10.1755
10.2916
10.1738
9.81394
9.27797
8.68722
7.6142
5.47273
3.19612
2.58784
2.48417
2.45169
2.69801
2.69777
2.72245
2.66825
2.67456
2.69493
2.72716
2.80134
2.93248
3.06922
3.15465
3.15062
3.07723
2.95689
2.82428
2.7572
3.63115
5.67165
6.27835
6.27095
6.02731
3.44372
1.42891
1.14795
1.13325
1.10931
1.15881
2.00608
6.68162
9.5842
9.6092
9.49985
9.11035
8.9424
8.96838
8.98032
8.97626
7.66119
2.89713
0.764682
0.693584
0.671365
0.650585
0.630614
0.611082
0.592128
0.573653
0.555601
0.53795
0.520686
0.503792
0.487278
0.47111
0.455327
0.43986
0.424802
0.410026
0.39569
0.381592
0.367972
0.35454
0.341631
0.328861
0.316655
0.304546
0.293022
0.281569
0.270703
0.2599
0.249671
0.239502
0.229897
0.220333
0.211355
0.202348
0.194013
0.185508
0.177833
0.169775
0.162766
0.155119
0.148759
0.141509
0.135754
0.128906
0.123697
0.117263
0.112542
0.106525
0.102243
0.0966358
0.0927547
0.0875468
0.0840256
0.0792148
0.0760015
0.0715993
0.0686316
0.0646552
0.0618738
0.0583303
0.0556957
0.0525685
0.0500686
0.0473165
0.044962
0.0425299
0.0403416
36507.8
29411.2
8810.52
1083.75
979.154
1316.28
1281.47
310.369
15.4705
24.8825
23.6805
25.5876
25.3386
25.0021
25.8169
25.9083
25.4201
22.7581
21.0162
19.0406
13.6227
6.97588
4.39751
4.37173
4.23022
4.13522
4.2116
5.43042
7.5891
9.52822
8.67015
7.04655
5.44538
4.82543
4.19766
3.87756
3.69404
3.46554
2.88155
2.52232
2.42627
2.19659
2.10623
2.53791
2.76612
3.07603
3.38006
3.55424
3.60425
3.5903
3.67894
3.92425
4.00535
3.81399
3.68144
3.50927
3.14341
2.5062
2.3244
2.26457
2.7461
4.3727
5.34369
4.70138
2.59987
1.24385
1.09691
1.06456
1.08088
1.56217
4.18322
6.55992
6.24458
4.74693
3.07848
2.70409
2.95449
3.90678
5.30297
5.86642
4.59783
1.80941
0.698164
0.671317
0.650539
0.630569
0.611041
0.592088
0.573615
0.555564
0.537914
0.52065
0.503757
0.487244
0.471076
0.455295
0.439828
0.424771
0.409996
0.395661
0.381563
0.367944
0.354512
0.341604
0.328835
0.31663
0.304521
0.292998
0.281546
0.270681
0.259878
0.24965
0.239481
0.229877
0.220313
0.211337
0.20233
0.193996
0.185491
0.177817
0.169759
0.162751
0.155104
0.148745
0.141495
0.135741
0.128893
0.123686
0.117251
0.112531
0.106514
0.102233
0.0966256
0.0927455
0.0875375
0.0840172
0.0792063
0.0759938
0.0715915
0.0686244
0.0646481
0.0618673
0.058324
0.0556897
0.0525628
0.0500631
0.0473113
0.044957
0.0425252
0.0403371
20693.1
22741.5
12195.4
2400.94
436.592
620.428
878.038
377.557
32.309
37.6926
32.9752
22.0583
12.915
8.48258
9.24778
15.5
35.5983
41.9969
42.1398
42.265
27.5145
13.2871
5.72663
4.94538
4.94847
5.47204
5.25609
5.04079
5.53839
6.57047
6.19493
6.25639
7.37513
10.2545
10.7736
9.1548
5.90676
3.60019
3.11103
2.66574
2.43575
2.18435
2.20524
3.0271
4.3362
4.99368
5.03033
4.96535
4.72406
4.67979
4.8596
4.99072
5.08201
4.78399
5.02302
4.94891
4.84491
4.53536
3.2357
2.31773
2.2599
2.50292
3.45243
3.90365
3.45927
2.06694
1.22572
1.1008
1.06873
1.18777
2.18155
3.32259
3.22529
2.52528
1.63729
1.17292
1.1763
1.36483
2.03452
3.02952
3.42602
2.4181
0.961047
0.671266
0.650485
0.63052
0.610998
0.592048
0.573576
0.555525
0.537876
0.520614
0.503722
0.487209
0.471042
0.455262
0.439796
0.42474
0.409965
0.395631
0.381534
0.367915
0.354484
0.341577
0.328809
0.316604
0.304496
0.292974
0.281522
0.270658
0.259856
0.249628
0.239461
0.229857
0.220294
0.211318
0.202312
0.193979
0.185474
0.1778
0.169743
0.162736
0.155089
0.148731
0.141481
0.135728
0.12888
0.123674
0.117239
0.11252
0.106503
0.102223
0.0966155
0.0927362
0.0875281
0.0840086
0.0791978
0.0759859
0.0715837
0.0686172
0.0646411
0.0618606
0.0583176
0.0556835
0.052557
0.0500575
0.047306
0.0449519
0.0425204
0.0403325
20279.3
20265.5
14786.8
3602.8
435.844
387.702
665.286
420.46
46.6529
22.4008
11.5619
7.89207
5.6013
4.68801
4.48843
4.61934
8.13781
19.4809
20.3379
16.9339
18.9874
18.5036
15.6303
11.5059
10.9619
11.8484
10.464
6.20553
4.3342
4.23159
4.5904
7.98506
15.3072
18.4518
18.46
18.1204
12.0899
5.12433
2.67503
2.58847
2.53609
2.36813
3.11848
6.58608
7.12681
5.7842
3.03255
2.33034
2.38251
2.68829
3.19324
4.02906
4.40423
4.47005
3.19589
2.69719
2.59393
2.88512
3.6261
3.58393
3.01443
2.35833
2.43574
2.60783
2.62114
2.31476
1.91199
1.65684
1.31988
1.20171
1.29967
1.65323
1.6784
1.48459
1.14138
0.915534
0.878007
0.876501
0.980457
1.50569
2.19915
2.20313
1.20156
0.678833
0.650431
0.630469
0.610954
0.592006
0.573536
0.555486
0.537838
0.520577
0.503686
0.487174
0.471008
0.455228
0.439763
0.424708
0.409934
0.3956
0.381504
0.367886
0.354456
0.34155
0.328783
0.316579
0.304471
0.29295
0.281499
0.270635
0.259834
0.249607
0.23944
0.229837
0.220274
0.211299
0.202293
0.193961
0.185456
0.177784
0.169727
0.162721
0.155074
0.148717
0.141467
0.135715
0.128867
0.123662
0.117227
0.112509
0.106491
0.102213
0.0966053
0.0927268
0.0875188
0.0839999
0.0791892
0.0759779
0.0715759
0.0686098
0.064634
0.0618538
0.0583112
0.0556773
0.0525511
0.0500518
0.0473007
0.0449467
0.0425156
0.0403278
12855.2
13107.1
11214.3
5744.87
889.456
282.552
536.961
564.181
130.081
9.03764
7.20543
6.82583
5.52356
4.67392
4.46639
4.38694
4.7227
5.68075
6.2448
8.95967
19.6977
31.1235
30.5568
25.3384
22.2057
22.8111
20.0827
10.8981
3.66029
3.4523
5.54832
12.3594
12.4006
12.6906
15.8285
18.1512
16.8385
8.73736
3.07185
2.57952
3.81709
4.15274
6.87669
7.21628
5.65922
3.05791
2.83403
3.4586
4.13222
4.84555
4.6454
3.85235
3.78012
4.63422
5.1879
5.06323
4.2281
2.59517
2.33609
2.35653
2.364
2.24703
2.01401
1.95218
2.09925
2.39582
2.3916
2.3649
2.21199
1.49862
1.09809
1.06429
1.04723
0.998335
0.910178
0.860014
0.84698
0.823911
0.824163
1.02612
1.58452
1.79849
1.26695
0.720058
0.650374
0.630417
0.610909
0.591963
0.573494
0.555447
0.5378
0.52054
0.503649
0.487139
0.470973
0.455194
0.43973
0.424676
0.409903
0.39557
0.381474
0.367857
0.354428
0.341522
0.328756
0.316552
0.304446
0.292925
0.281475
0.270612
0.259811
0.249585
0.239418
0.229817
0.220254
0.21128
0.202275
0.193943
0.185439
0.177767
0.169711
0.162705
0.155059
0.148703
0.141453
0.135702
0.128854
0.123649
0.117215
0.112498
0.10648
0.102202
0.096595
0.0927171
0.0875094
0.0839911
0.0791806
0.0759698
0.0715681
0.0686023
0.0646269
0.0618469
0.0583047
0.055671
0.0525453
0.0500461
0.0472954
0.0449415
0.0425107
0.0403231
12591.1
12288.3
7635.86
2289.34
286.193
245.174
403.186
564.31
255.346
10.0571
6.32897
6.73049
6.257
5.3357
5.4595
6.22039
5.75112
6.13987
10.3517
22.0936
42.5705
42.8467
42.9054
43.0723
37.7824
32.0387
27.7883
18.4896
4.89001
3.54795
5.54478
5.37596
4.21912
3.78562
4.27185
11.5719
16.8199
11.6543
4.87281
2.5371
2.85342
7.31528
7.37609
6.45905
3.39911
3.26468
4.98092
5.69837
5.76172
4.14009
2.34421
1.92116
1.9872
2.2108
3.84245
5.59315
5.51334
4.60841
2.51304
1.85202
1.80289
1.79986
1.69488
1.61632
1.64401
1.76298
1.89634
2.09189
2.15896
2.05231
1.35621
0.941183
0.920679
0.921214
0.934008
0.941244
0.910273
0.842828
0.8069
0.875391
1.26248
1.56555
1.23933
0.748709
0.650312
0.630362
0.610862
0.591919
0.573452
0.555406
0.53776
0.520501
0.503612
0.487102
0.470938
0.45516
0.439697
0.424643
0.409871
0.395539
0.381444
0.367828
0.354399
0.341495
0.328729
0.316526
0.30442
0.2929
0.281451
0.270589
0.259788
0.249563
0.239397
0.229796
0.220234
0.211261
0.202256
0.193925
0.185421
0.177751
0.169694
0.16269
0.155044
0.148688
0.141439
0.135688
0.128841
0.123637
0.117203
0.112486
0.106469
0.102192
0.0965847
0.0927074
0.0874999
0.0839821
0.079172
0.0759615
0.0715602
0.0685947
0.0646197
0.0618399
0.0582982
0.0556646
0.0525394
0.0500402
0.04729
0.0449362
0.0425058
0.0403183
10369.8
12273.2
7864.23
2350.34
200.35
149.503
251.526
385.85
132.084
8.0738
5.9134
6.35812
6.81762
6.56082
7.60469
8.96555
8.93564
8.88712
17.9811
27.1149
26.9383
32.563
36.8938
34.8731
20.9568
8.6072
8.07304
7.95571
5.1679
5.00894
4.70826
3.7893
3.34836
3.30149
3.22351
4.40244
13.7475
14.3366
8.47923
3.71521
2.89771
4.54309
6.70604
4.06179
3.53597
5.42804
6.03546
4.88082
2.28997
1.54872
1.6099
1.7061
1.77534
1.77569
1.75541
2.18166
4.33663
4.77873
4.06175
2.17386
1.43176
1.40634
1.39538
1.38985
1.36558
1.33531
1.21966
1.14115
1.25624
1.76272
1.65483
1.11296
0.917866
0.940169
1.04398
1.13789
1.12269
0.990978
0.828545
0.83655
1.04548
1.36942
1.32676
0.808058
0.650247
0.630306
0.610813
0.591874
0.573409
0.555365
0.53772
0.520462
0.503574
0.487066
0.470902
0.455125
0.439663
0.42461
0.409839
0.395507
0.381413
0.367798
0.35437
0.341466
0.328701
0.316499
0.304394
0.292875
0.281426
0.270565
0.259765
0.24954
0.239376
0.229775
0.220214
0.211241
0.202237
0.193907
0.185403
0.177734
0.169678
0.162674
0.155028
0.148673
0.141425
0.135675
0.128828
0.123624
0.117191
0.112474
0.106458
0.102181
0.0965744
0.0926974
0.0874904
0.0839729
0.0791633
0.0759531
0.0715523
0.0685869
0.0646126
0.0618328
0.0582917
0.0556581
0.0525334
0.0500343
0.0472846
0.0449309
0.0425008
0.0403135
7052.46
11535.8
9377.21
4207.93
647.389
72.9353
119.671
157.951
49.3095
7.30099
5.7341
5.6562
7.21321
7.15987
6.28479
6.94196
10.2192
10.2736
9.03639
6.88244
6.66612
11.6687
15.0037
17.4343
17.303
19.3349
15.6124
7.60417
6.39714
4.24075
3.61911
3.65122
3.65618
3.33499
3.16273
3.53092
9.84188
14.3432
12.8853
8.45846
3.77921
2.8317
3.1093
2.99073
5.88202
6.52281
5.00314
2.04097
1.44715
1.4895
1.56299
1.65543
1.72432
1.72306
1.67471
1.61928
1.93714
4.00686
4.24413
3.1139
1.60239
1.25939
1.24351
1.2753
1.28285
1.25382
1.15241
1.05597
1.05261
1.30896
1.59
1.34815
1.02731
1.01445
1.14097
1.22065
1.20928
1.14784
0.916835
0.829125
0.897822
1.14199
1.20621
0.894561
0.666858
0.630248
0.610764
0.591828
0.573366
0.555323
0.53768
0.520423
0.503536
0.487028
0.470866
0.45509
0.439628
0.424576
0.409806
0.395476
0.381383
0.367768
0.354341
0.341438
0.328673
0.316472
0.304368
0.29285
0.281402
0.270541
0.259742
0.249518
0.239354
0.229754
0.220194
0.211221
0.202218
0.193888
0.185386
0.177716
0.169661
0.162658
0.155013
0.148658
0.14141
0.135661
0.128815
0.123611
0.117178
0.112463
0.106447
0.10217
0.096564
0.0926874
0.0874809
0.0839637
0.0791546
0.0759445
0.0715444
0.068579
0.0646054
0.0618255
0.0582852
0.0556515
0.0525275
0.0500283
0.0472791
0.0449255
0.0424958
0.0403086
5231.48
8821.81
9982.09
6819.81
1708.77
52.0607
41.812
51.9944
16.948
7.16522
5.719
5.39188
5.96929
5.73498
4.66578
4.19543
4.38543
5.51107
5.31419
4.47229
4.75127
9.96366
22.1079
28.8179
35.9109
39.852
34.9059
16.6096
4.86806
3.38931
3.38273
5.08277
5.45873
4.72129
3.4434
3.34862
6.85785
14.3469
14.3161
14.2645
7.35216
2.78757
2.67034
3.38262
6.67958
5.80247
2.48355
1.42085
1.44119
1.48551
1.56075
1.65381
1.72043
1.71913
1.6684
1.58712
1.55994
2.23742
3.88774
3.50511
2.07034
1.27434
1.22217
1.23105
1.22909
1.19194
1.09303
1.03309
1.0056
1.04002
1.29279
1.34419
1.2952
1.06284
0.889667
0.877093
0.967604
1.08538
0.974656
0.827637
0.823195
0.922765
1.04256
1.02429
0.746656
0.630261
0.610713
0.591781
0.573321
0.55528
0.537638
0.520383
0.503497
0.486991
0.470829
0.455054
0.439593
0.424543
0.409773
0.395443
0.381351
0.367738
0.354311
0.341409
0.328645
0.316445
0.304342
0.292824
0.281377
0.270517
0.259719
0.249495
0.239332
0.229733
0.220173
0.211201
0.202199
0.19387
0.185368
0.177699
0.169644
0.162642
0.154997
0.148643
0.141396
0.135647
0.128801
0.123598
0.117166
0.112451
0.106435
0.102159
0.0965536
0.0926771
0.0874714
0.0839542
0.0791459
0.0759358
0.0715365
0.068571
0.0645981
0.0618182
0.0582786
0.0556448
0.0525215
0.0500222
0.0472736
0.04492
0.0424908
0.0403037
5223.05
5619.5
9125.78
9149.79
3503.04
204.899
9.13643
10.6307
7.86353
7.06654
5.6987
5.26048
5.19914
4.8572
4.34131
4.13742
4.0592
4.03499
3.99411
3.90052
4.28573
7.49862
31.2779
47.7128
47.7887
47.9249
47.6096
31.2615
5.68914
3.3749
3.92799
5.92391
5.91328
5.48135
4.49566
3.30154
4.49085
11.0139
13.7723
12.6128
10.8415
3.63825
2.65135
5.52623
6.68541
3.3778
1.46351
1.38804
1.41055
1.45834
1.53106
1.62107
1.68349
1.67946
1.63248
1.55172
1.48584
1.63173
3.07732
3.63026
2.74568
1.52126
1.21704
1.19373
1.16544
1.10545
1.04323
1.02067
0.999567
0.966104
1.00205
1.10774
1.06916
0.949691
0.843384
0.823958
0.838677
0.964997
0.968621
0.841857
0.771852
0.792611
0.843407
0.829396
0.724614
0.636179
0.610661
0.591733
0.573275
0.555236
0.537596
0.520342
0.503457
0.486952
0.470792
0.455018
0.439558
0.424508
0.40974
0.395411
0.38132
0.367707
0.354282
0.34138
0.328617
0.316418
0.304315
0.292798
0.281352
0.270492
0.259695
0.249472
0.23931
0.229711
0.220152
0.211181
0.202179
0.193851
0.185349
0.177681
0.169627
0.162625
0.154981
0.148628
0.141381
0.135633
0.128788
0.123585
0.117154
0.112438
0.106424
0.102148
0.0965432
0.0926667
0.0874618
0.0839447
0.0791371
0.075927
0.0715285
0.0685629
0.0645909
0.0618107
0.058272
0.055638
0.0525154
0.0500161
0.047268
0.0449144
0.0424857
0.0402987
8217.41
3979.86
5523.22
7894.72
5477.42
922.852
7.87181
6.6649
7.7191
7.02899
5.68253
5.18191
4.83108
4.53381
4.27386
4.11905
4.03432
4.0058
3.95592
3.97297
4.30653
5.03643
8.6193
27.667
33.4854
16.6509
9.15881
12.1327
6.19298
3.36311
4.38021
5.54256
4.04968
2.88369
2.93951
3.30867
4.08254
7.43547
7.40362
5.27003
7.60536
4.25645
2.95741
8.19546
5.15634
1.82894
1.40616
1.38252
1.41811
1.45856
1.52802
1.61789
1.6848
1.67733
1.62573
1.54671
1.47221
1.48954
2.4408
3.63369
3.56534
2.6169
1.54449
1.22697
1.0812
1.05416
1.03113
1.0254
1.04927
1.00703
0.929246
0.900984
0.880671
0.854622
0.829653
0.816558
0.811078
0.894287
0.93421
0.817455
0.734424
0.726669
0.726027
0.705547
0.671205
0.633165
0.610608
0.591684
0.573229
0.555192
0.537553
0.520301
0.503417
0.486913
0.470754
0.454981
0.439522
0.424473
0.409706
0.395378
0.381288
0.367676
0.354251
0.34135
0.328589
0.31639
0.304288
0.292772
0.281326
0.270467
0.259671
0.249449
0.239287
0.229689
0.220131
0.211161
0.202159
0.193832
0.185331
0.177664
0.16961
0.162609
0.154966
0.148613
0.141367
0.135618
0.128774
0.123572
0.117141
0.112426
0.106413
0.102136
0.0965327
0.0926562
0.0874522
0.0839349
0.0791283
0.075918
0.0715205
0.0685547
0.0645836
0.0618032
0.0582653
0.0556311
0.0525093
0.0500099
0.0472624
0.0449088
0.0424805
0.0402937
3370.7
2237.92
2547.08
5041.82
5455.82
2212.81
73.6736
6.59723
7.67505
6.98447
5.6689
5.16485
4.80046
4.51027
4.24248
4.07997
3.99266
3.97228
4.06572
4.54873
4.8444
4.80254
5.25037
10.7608
11.6531
6.60836
5.83264
11.4206
6.65509
3.38265
5.05013
4.23065
3.00884
2.82063
2.71998
3.85401
4.12507
4.68774
4.02498
3.09232
7.00281
7.51891
7.89474
8.56713
3.56275
1.44339
1.38449
1.36468
1.38277
1.42404
1.49677
1.58432
1.6445
1.64256
1.59627
1.51824
1.44395
1.41383
1.74337
3.14066
3.60423
3.58359
3.09244
1.67819
1.08427
1.06682
1.03227
0.998632
1.05869
1.11774
1.01489
0.925735
0.881043
0.857025
0.836051
0.836621
0.88129
0.935399
0.887404
0.807625
0.72767
0.703348
0.68951
0.669713
0.650014
0.630236
0.610597
0.591633
0.573181
0.555146
0.53751
0.520259
0.503377
0.486874
0.470716
0.454944
0.439486
0.424438
0.409672
0.395345
0.381255
0.367644
0.354221
0.34132
0.32856
0.316362
0.304261
0.292745
0.281301
0.270442
0.259647
0.249425
0.239265
0.229667
0.22011
0.21114
0.20214
0.193812
0.185312
0.177646
0.169593
0.162592
0.15495
0.148597
0.141352
0.135604
0.128761
0.123558
0.117129
0.112413
0.106401
0.102125
0.0965221
0.0926455
0.0874425
0.0839251
0.0791195
0.0759089
0.0715125
0.0685463
0.0645763
0.0617955
0.0582586
0.0556241
0.0525032
0.0500036
0.0472568
0.0449031
0.0424754
0.0402886
1241.95
948.222
1008.58
1884.7
3736.6
3757.82
509.547
6.50194
7.63594
6.9514
5.67844
5.16
4.79402
4.50178
4.23312
4.06476
3.9661
4.13426
4.98593
6.58483
8.2073
8.16524
6.62681
5.8333
5.67448
5.54273
5.42398
10.9309
10.766
4.47937
6.16105
3.69889
2.89779
2.80216
2.7018
2.86336
3.3428
3.24631
3.08187
2.97119
5.07654
9.47124
9.40267
7.86105
2.42222
1.41612
1.37828
1.35768
1.38444
1.42096
1.49353
1.58041
1.63723
1.63707
1.58974
1.51348
1.43682
1.46447
1.71612
2.14326
2.85629
2.96846
2.34201
1.45801
1.12428
1.1124
1.06489
1.00368
1.01418
1.26931
1.23737
1.19921
1.04107
0.95001
0.958117
0.978088
1.0094
0.99911
0.943026
0.835784
0.736253
0.702852
0.68931
0.669585
0.649633
0.629935
0.610505
0.591583
0.573133
0.5551
0.537466
0.520216
0.503335
0.486834
0.470677
0.454906
0.43945
0.424403
0.409637
0.395311
0.381223
0.367612
0.35419
0.34129
0.328531
0.316333
0.304234
0.292718
0.281275
0.270417
0.259623
0.249402
0.239242
0.229645
0.220089
0.211119
0.20212
0.193793
0.185294
0.177627
0.169575
0.162575
0.154934
0.148581
0.141337
0.135589
0.128747
0.123545
0.117116
0.112401
0.10639
0.102113
0.0965115
0.0926347
0.0874328
0.0839151
0.0791106
0.0758997
0.0715044
0.0685378
0.0645689
0.0617878
0.0582519
0.0556171
0.052497
0.0499972
0.0472511
0.0448974
0.0424702
0.0402835
705.712
643.917
452.447
583.515
1127.13
1844.16
715.545
15.3591
7.5945
7.09232
6.21785
5.29439
4.7819
4.48914
4.2099
4.03102
3.92538
4.32007
6.15646
9.9413
14.2695
17.7332
15.4244
7.41406
5.55227
5.41493
5.33344
8.99503
10.9044
8.62929
7.37918
3.20393
2.86913
2.76821
2.66427
2.65075
2.81624
2.71865
3.105
3.4563
3.43894
9.35349
9.41965
5.6185
1.79269
1.4039
1.36461
1.34037
1.35766
1.39509
1.46701
1.55249
1.61688
1.61211
1.56512
1.48981
1.411
1.60708
2.01109
1.86794
1.82688
1.74548
1.4406
1.21212
1.1738
1.17215
1.15482
1.08408
1.01682
1.07733
1.45301
1.43055
1.2722
1.15851
1.19826
1.257
1.2513
1.16681
1.01133
0.85781
0.743657
0.70253
0.689138
0.669467
0.649548
0.629859
0.610439
0.59153
0.573084
0.555053
0.537421
0.520173
0.503294
0.486793
0.470638
0.454868
0.439413
0.424367
0.409602
0.395277
0.38119
0.36758
0.354159
0.34126
0.328501
0.316304
0.304206
0.292691
0.281249
0.270392
0.259599
0.249378
0.239219
0.229623
0.220067
0.211098
0.202099
0.193773
0.185275
0.177609
0.169558
0.162558
0.154918
0.148565
0.141322
0.135574
0.128733
0.123531
0.117104
0.112388
0.106378
0.102101
0.0965009
0.0926237
0.0874231
0.0839049
0.0791018
0.0758904
0.0714963
0.0685293
0.0645615
0.0617799
0.0582451
0.0556099
0.0524908
0.0499908
0.0472454
0.0448916
0.0424649
0.0402783
494.411
512.107
357.197
305.615
392.075
587.253
711.043
60.3305
7.57865
8.71843
8.39595
6.19984
4.79808
4.47819
4.32143
4.87359
5.44741
5.46115
7.5054
15.3462
24.6378
32.6703
31.9589
19.4758
9.25374
11.0967
8.67595
6.76579
10.0332
10.0466
5.21271
3.64792
3.46789
3.75328
3.46207
3.54701
3.32541
3.10483
4.96182
8.98821
6.40618
6.52051
8.10534
3.95986
1.53
1.39452
1.35669
1.33553
1.36186
1.39899
1.45623
1.53437
1.60622
1.60536
1.55508
1.48208
1.40384
1.36496
1.96338
2.38212
2.00506
1.40836
1.21495
1.19631
1.20365
1.34341
1.53466
1.52122
1.30999
1.0992
1.12015
1.25644
1.35394
1.62764
1.61308
1.67434
1.68294
1.51821
1.16018
0.88896
0.741037
0.702073
0.688901
0.669298
0.649421
0.629754
0.610351
0.591449
0.573009
0.554982
0.537352
0.520107
0.50323
0.486732
0.470578
0.45481
0.439356
0.424312
0.409549
0.395225
0.381139
0.367531
0.354111
0.341214
0.328457
0.316261
0.304164
0.29265
0.281209
0.270353
0.259561
0.249342
0.239184
0.229589
0.220034
0.211066
0.202069
0.193744
0.185247
0.177581
0.169532
0.162532
0.154893
0.148541
0.1413
0.135551
0.128713
0.12351
0.117085
0.112368
0.10636
0.102083
0.0964848
0.092607
0.0874084
0.0838895
0.0790884
0.0758762
0.0714841
0.0685162
0.0645504
0.061768
0.058235
0.0555991
0.0524814
0.049981
0.0472368
0.0448828
0.0424569
0.0402704
312.618
327.578
247.413
110.952
109.344
108.828
387.372
196.088
11.3853
10.629
10.1185
7.81519
5.10601
4.50987
4.73899
7.53761
10.2016
8.59371
8.83692
16.6609
30.3618
37.0662
37.2947
37.0547
31.7702
32.0226
26.535
8.9274
5.19272
5.07869
4.21786
4.37206
5.21965
8.02195
7.69822
5.69401
4.49793
4.23458
9.03209
14.8103
13.3711
4.73809
3.10491
1.82198
1.43545
1.37623
1.34264
1.32619
1.33423
1.36425
1.40891
1.49129
1.55695
1.559
1.51584
1.44584
1.37226
1.31031
1.5649
2.95369
2.96089
2.29514
1.50206
1.30857
1.37279
1.64325
2.13408
2.20806
1.9833
1.33709
1.00076
0.979567
1.00804
1.13673
1.55862
1.79284
1.785
1.77164
1.57104
1.04695
0.747354
0.70144
0.688575
0.669064
0.649243
0.629609
0.610228
0.591338
0.572905
0.554884
0.537258
0.520017
0.503143
0.486648
0.470497
0.454731
0.439279
0.424237
0.409477
0.395155
0.381071
0.367465
0.354047
0.341151
0.328396
0.316202
0.304107
0.292594
0.281155
0.270301
0.259511
0.249292
0.239137
0.229542
0.21999
0.211023
0.202027
0.193703
0.185208
0.177544
0.169496
0.162497
0.15486
0.148508
0.141269
0.135521
0.128684
0.123482
0.117058
0.112342
0.106336
0.102059
0.0964626
0.0925848
0.087388
0.0838691
0.0790697
0.0758573
0.0714671
0.0684988
0.064535
0.061752
0.0582209
0.0555845
0.0524686
0.0499678
0.047225
0.0448709
0.0424461
0.0402598
284.735
256.102
142.588
35.0385
40.2406
36.1574
133.317
104.902
14.0454
11.8177
10.1487
9.6701
6.60931
4.89174
5.96358
11.9626
15.2727
14.9814
9.49311
7.046
6.77705
8.3004
25.2385
37.952
37.8232
37.9473
38.0199
20.0148
4.16053
3.92089
4.2668
5.40889
8.72017
12.0942
12.03
8.34184
7.47009
11.688
14.8891
14.8865
14.9398
10.2309
2.6727
1.50464
1.42602
1.3805
1.36807
1.34569
1.36335
1.34852
1.40045
1.47978
1.54349
1.5444
1.51248
1.46438
1.41899
1.33636
1.33049
1.96166
3.8985
3.87267
3.49717
2.78765
2.40895
2.0466
2.20284
2.24877
2.2251
1.78183
1.09071
0.935907
0.925403
0.9399
1.0862
1.13489
1.18606
1.53552
1.59269
1.29263
0.827456
0.700689
0.688204
0.668811
0.649056
0.629456
0.6101
0.591223
0.572798
0.554783
0.537162
0.519924
0.503053
0.486561
0.470413
0.45465
0.439201
0.424161
0.409403
0.395083
0.381002
0.367397
0.353981
0.341087
0.328334
0.316141
0.304049
0.292538
0.281101
0.270247
0.25946
0.249242
0.239088
0.229495
0.219945
0.210979
0.201985
0.193662
0.185168
0.177505
0.169459
0.162461
0.154826
0.148475
0.141237
0.13549
0.128655
0.123453
0.117032
0.112316
0.106312
0.102034
0.0964401
0.0925621
0.0873673
0.0838481
0.0790509
0.0758379
0.07145
0.0684809
0.0645195
0.0617356
0.0582068
0.0555696
0.0524556
0.0499542
0.047213
0.0448587
0.0424351
0.0402489
182.76
140.651
54.8115
9.28489
18.8226
25.2871
18.682
30.8092
18.8721
9.8667
7.57745
7.66513
7.28323
6.31199
9.36708
15.2459
15.3303
15.3505
14.4957
7.68254
6.73108
6.73451
9.01453
30.2311
37.99
38.0959
37.8598
34.9571
10.1033
3.8867
5.33558
7.74183
12.1655
12.1313
12.0594
11.5609
7.59526
8.96105
8.79021
6.73236
11.9992
12.8953
5.5283
1.98522
1.41955
1.39064
1.35045
1.28757
1.27986
1.30919
1.36594
1.44507
1.5097
1.51155
1.47119
1.44694
1.42125
1.36181
1.32018
1.42201
2.54218
4.2154
4.20681
4.20227
2.81311
1.50958
1.37615
1.6349
2.13353
2.08251
1.42843
0.960743
0.923582
0.999637
1.00703
0.935848
0.923774
1.00758
1.51364
1.51089
1.0351
0.724823
0.6878
0.668546
0.64886
0.629299
0.609967
0.591104
0.572687
0.554678
0.537062
0.519829
0.502962
0.486473
0.470327
0.454567
0.439121
0.424083
0.409327
0.39501
0.38093
0.367327
0.353914
0.341021
0.328271
0.31608
0.303989
0.29248
0.281045
0.270193
0.259407
0.249191
0.23904
0.229448
0.219899
0.210935
0.201942
0.193621
0.185128
0.177467
0.169422
0.162425
0.154791
0.148441
0.141205
0.135459
0.128626
0.123424
0.117005
0.112288
0.106287
0.102009
0.0964173
0.0925388
0.0873465
0.0838266
0.0790319
0.0758181
0.0714327
0.0684626
0.0645037
0.0617188
0.0581924
0.0555543
0.0524425
0.0499405
0.0472009
0.0448464
0.042424
0.0402379
90.8721
63.2473
17.5902
8.01529
12.7458
20.4564
6.21411
6.49367
12.8691
8.28748
5.8264
5.67265
6.00554
7.80525
14.9157
15.4547
15.4223
15.4432
15.4445
13.4422
7.43884
6.7601
6.70721
14.3927
29.5434
25.32
17.4099
18.4568
18.4049
13.7948
6.82909
10.322
12.2328
12.1862
12.1094
12.068
7.43134
5.82863
4.61554
3.16025
4.78951
12.9466
12.8792
4.55683
1.44616
1.38739
1.32448
1.27261
1.28544
1.31361
1.40133
1.4966
1.54538
1.50504
1.46023
1.39585
1.33496
1.32861
1.39398
1.38353
1.57084
2.61865
3.3836
2.85799
1.81952
1.17358
1.07199
1.07635
1.41899
2.02463
1.92949
1.51753
1.32162
1.29052
1.1454
0.947067
0.916321
0.905098
1.15374
1.51358
1.38288
0.875914
0.687494
0.668271
0.648659
0.629135
0.60983
0.59098
0.572573
0.554571
0.53696
0.519731
0.502868
0.486382
0.47024
0.454483
0.439039
0.424004
0.40925
0.394935
0.380858
0.367257
0.353847
0.340955
0.328207
0.316017
0.303929
0.292421
0.280989
0.270138
0.259354
0.249139
0.238989
0.229399
0.219852
0.210889
0.201898
0.193578
0.185088
0.177427
0.169384
0.162388
0.154756
0.148406
0.141173
0.135426
0.128596
0.123393
0.116977
0.11226
0.106262
0.101983
0.0963944
0.0925151
0.0873255
0.0838047
0.0790128
0.0757978
0.0714154
0.068444
0.0644879
0.0617017
0.0581779
0.0555388
0.0524292
0.0499265
0.0471887
0.0448337
0.0424126
0.0402266
33.4993
21.195
9.59781
7.90055
9.7594
15.7289
4.9331
6.46935
9.66874
7.23769
5.47095
5.01864
4.95419
6.50039
10.3986
14.8716
15.4901
15.5022
15.4991
15.4813
11.0483
6.79961
6.43497
8.17703
14.5112
14.1626
13.4831
11.5459
15.0028
10.6685
5.32897
4.63374
7.75847
12.1448
12.1368
12.0966
9.16127
4.06225
2.53475
2.28162
2.43312
6.94304
7.97941
3.22972
1.50078
1.3584
1.2852
1.24888
1.27163
1.38062
1.50558
1.6956
1.73112
1.59207
1.43691
1.36984
1.30549
1.26843
1.31651
1.28098
1.23081
1.42428
1.67028
1.47918
1.19306
1.054
1.02703
1.01059
1.1212
1.73614
1.98547
1.96534
1.95931
1.84634
1.35741
1.23102
1.12272
0.950869
0.961112
1.281
1.38478
1.16471
0.754474
0.668023
0.648459
0.628969
0.609688
0.590853
0.572456
0.554461
0.536856
0.519631
0.502772
0.48629
0.470151
0.454397
0.438956
0.423924
0.409173
0.394859
0.380785
0.367185
0.353777
0.340887
0.328142
0.315953
0.303868
0.292361
0.280931
0.270081
0.2593
0.249087
0.238939
0.22935
0.219805
0.210843
0.201855
0.193535
0.185047
0.177386
0.169346
0.16235
0.154721
0.148371
0.141141
0.135393
0.128566
0.123363
0.11695
0.112232
0.106237
0.101957
0.0963714
0.092491
0.0873045
0.0837824
0.0789936
0.0757772
0.0713979
0.068425
0.064472
0.0616843
0.0581633
0.0555229
0.0524157
0.0499121
0.0471762
0.0448209
0.0424011
0.0402152
14.5708
13.1092
9.37246
7.94487
7.70694
10.4707
6.64083
6.47048
8.42808
6.64787
5.42855
4.94491
4.62421
5.11575
6.22896
8.12001
11.7824
13.0115
12.7097
13.5139
13.0604
8.65942
6.46834
6.6084
7.9308
12.2355
13.2395
9.80918
7.53664
5.30226
3.43093
3.50544
5.01057
7.0152
10.5812
12.1369
9.87575
3.74544
2.44097
2.23719
2.18349
2.77519
2.80299
1.87522
1.44317
1.32814
1.27869
1.25983
1.38777
1.54584
1.69379
2.05265
2.10334
1.81064
1.49093
1.36187
1.29864
1.24378
1.31037
1.24394
1.20797
1.21663
1.17563
1.12169
1.07885
1.04895
1.02125
0.989585
1.11308
1.40551
1.80093
1.8166
1.55621
1.44566
1.64748
1.86909
1.7295
1.28102
0.930485
0.921343
1.20113
1.19909
0.907634
0.686521
0.648263
0.628799
0.609542
0.590722
0.572335
0.554347
0.536748
0.519528
0.502673
0.486195
0.470059
0.454307
0.438871
0.423839
0.409091
0.39478
0.380709
0.367112
0.353706
0.340818
0.328075
0.315888
0.303805
0.292299
0.280872
0.270024
0.259246
0.249034
0.238888
0.2293
0.219757
0.210796
0.20181
0.193491
0.185005
0.177345
0.169307
0.162312
0.154685
0.148335
0.141108
0.13536
0.128536
0.123332
0.116922
0.112203
0.106211
0.10193
0.0963476
0.0924658
0.0872827
0.0837591
0.0789738
0.0757558
0.0713799
0.0684052
0.0644556
0.0616663
0.0581483
0.0555066
0.0524019
0.0498974
0.0471634
0.0448077
0.0423893
0.0402035
9.25971
12.2152
17.3497
11.7897
7.68717
7.43973
7.76521
9.09847
7.76411
6.18504
5.33944
4.85631
4.53582
4.67544
5.37869
5.99282
6.48531
6.87557
6.56644
6.16611
7.16659
8.5015
6.51972
6.33439
8.59238
12.7523
13.3119
8.43899
4.04924
2.86173
2.71921
3.14637
4.64889
5.16942
5.08853
6.7306
8.79174
6.44964
4.22699
4.36051
3.71442
2.36937
1.74737
1.51501
1.37235
1.29928
1.26758
1.38833
1.69823
1.84692
1.98914
2.13884
2.20742
2.14993
1.72364
1.35024
1.25078
1.1985
1.25506
1.47151
1.45885
1.31948
1.15761
1.10049
1.06025
1.01762
0.994883
0.96459
1.07637
1.37156
1.38957
1.24109
1.14266
1.2151
2.13483
2.77848
2.57799
1.74952
0.9723
0.737873
0.792076
0.895975
0.865253
0.727334
0.649232
0.62849
0.609285
0.590498
0.572133
0.554163
0.536578
0.519369
0.502525
0.486055
0.469928
0.454184
0.438757
0.423725
0.408983
0.394679
0.380612
0.367019
0.353618
0.340734
0.327996
0.315812
0.303734
0.292231
0.280809
0.269963
0.259189
0.248978
0.238837
0.229252
0.219713
0.210754
0.201772
0.193455
0.184972
0.177314
0.16928
0.162285
0.154663
0.148313
0.14109
0.135342
0.128523
0.123317
0.116912
0.112193
0.106205
0.101923
0.0963447
0.0924622
0.0872831
0.0837588
0.0789772
0.0757586
0.0713863
0.0684115
0.0644651
0.0616762
0.0581613
0.0555209
0.0524192
0.0499173
0.0471871
0.0448361
0.042424
0.0402484
17.9196
23.2537
23.0794
16.8693
9.20411
7.50298
7.49927
6.86288
6.40201
5.89456
5.25385
4.80241
4.4665
4.3624
4.34271
4.22855
4.171
4.39521
4.52856
4.26351
4.00463
4.32258
5.57892
6.44325
6.76745
7.1895
10.8388
7.33355
3.50817
2.66934
2.59925
3.14561
4.14152
3.76245
3.00037
2.75909
2.94239
3.61996
5.96062
10.6726
9.23963
4.11705
1.74747
1.43078
1.35044
1.29927
1.45786
1.87599
2.07354
2.08093
1.9801
1.89787
2.08475
2.16704
2.04506
1.56373
1.2444
1.17773
1.17348
1.59079
2.09193
2.07471
1.7877
1.33633
1.11702
1.10218
1.09577
1.05657
1.02498
1.01317
1.00387
1.54742
1.79649
2.36663
2.78102
2.79868
2.79205
2.42108
1.29519
0.721141
0.701462
0.698435
0.701611
0.677718
0.649141
0.627951
0.608836
0.590106
0.57178
0.553838
0.536276
0.519087
0.502259
0.485805
0.469691
0.45396
0.438545
0.423528
0.408799
0.3945
0.380438
0.366852
0.35346
0.340583
0.327854
0.315677
0.303607
0.29211
0.280695
0.269855
0.259088
0.248882
0.238748
0.229166
0.219633
0.210678
0.201701
0.193388
0.18491
0.177255
0.169226
0.162233
0.154616
0.148268
0.14105
0.135302
0.128488
0.123283
0.116884
0.112163
0.106181
0.101898
0.0963247
0.0924411
0.0872667