/*--------------------------------*- C++ -*----------------------------------*\
| =========                 |                                                 |
| \\      /  F ield         | OpenFOAM: The Open Source CFD Toolbox           |
|  \\    /   O peration     | Version:  v1912                                 |
|   \\  /    A nd           | Website:  www.openfoam.com                      |
|    \\/     M anipulation  |                                                 |
\*---------------------------------------------------------------------------*/
FoamFile
{
    version     2.0;
    format      ascii;
    class       volScalarField;
    location    "70";
    object      k;
}
// * * * * * * * * * * * * * * * * * * * * * * * * * * * * * * * * * * * * * //

dimensions      [0 2 -2 0 0 0 0];


internalField   nonuniform List<scalar> 
14268
(
6.72004e-07
6.72533e-07
6.72873e-07
6.73168e-07
6.73269e-07
6.73257e-07
6.73107e-07
6.72755e-07
6.72295e-07
6.71665e-07
6.70802e-07
6.69898e-07
6.68729e-07
6.67478e-07
6.66068e-07
6.64454e-07
6.62795e-07
6.61e-07
6.59255e-07
6.57433e-07
6.55698e-07
6.53847e-07
6.52049e-07
6.50236e-07
6.48408e-07
6.46535e-07
6.44723e-07
6.42856e-07
6.40978e-07
6.3915e-07
6.37271e-07
6.35396e-07
6.33533e-07
6.31673e-07
6.29755e-07
6.27896e-07
6.25983e-07
6.24055e-07
6.22116e-07
6.2027e-07
6.18426e-07
6.16815e-07
6.15279e-07
6.13977e-07
6.1273e-07
6.11702e-07
6.10778e-07
6.09964e-07
6.09325e-07
6.08756e-07
6.08304e-07
6.0793e-07
6.07465e-07
6.07188e-07
6.06684e-07
6.05962e-07
6.05257e-07
6.04003e-07
6.02568e-07
6.00913e-07
5.98628e-07
5.96316e-07
5.93939e-07
5.91236e-07
5.88729e-07
5.86042e-07
5.82991e-07
5.80118e-07
5.76955e-07
5.73449e-07
5.70284e-07
5.66947e-07
5.63546e-07
5.60641e-07
5.576e-07
5.54582e-07
5.52096e-07
5.49553e-07
5.4695e-07
5.44722e-07
5.42621e-07
5.40021e-07
5.37609e-07
5.3535e-07
5.32514e-07
5.29772e-07
5.27298e-07
5.24338e-07
5.21412e-07
5.18672e-07
5.15849e-07
5.13311e-07
5.10981e-07
5.08708e-07
5.06609e-07
5.04655e-07
5.02707e-07
5.00786e-07
4.98855e-07
4.97099e-07
4.95063e-07
4.93171e-07
4.90986e-07
4.8884e-07
4.86447e-07
4.83985e-07
4.81365e-07
4.78469e-07
4.75364e-07
4.72016e-07
4.68377e-07
4.64279e-07
4.59664e-07
4.54477e-07
4.48775e-07
4.42393e-07
4.35371e-07
4.27518e-07
4.18591e-07
4.08525e-07
3.9718e-07
3.84243e-07
3.69675e-07
3.53079e-07
3.33636e-07
3.10891e-07
2.84151e-07
2.51157e-07
2.11322e-07
1.64067e-07
1.1091e-07
6.40932e-08
3.02948e-08
1.2321e-08
2.85777e-07
2.89071e-07
2.92381e-07
2.95425e-07
2.9844e-07
3.0133e-07
3.03931e-07
3.06418e-07
3.0869e-07
3.10756e-07
3.12637e-07
3.14211e-07
3.15695e-07
3.16911e-07
3.17835e-07
3.18614e-07
3.19146e-07
3.19437e-07
3.19446e-07
3.19318e-07
3.18946e-07
3.18354e-07
3.17637e-07
3.16766e-07
3.15669e-07
3.14544e-07
3.13242e-07
3.11841e-07
3.1046e-07
3.08926e-07
3.0752e-07
3.06106e-07
3.04708e-07
3.03562e-07
3.02419e-07
3.01436e-07
3.00853e-07
3.00211e-07
3.00079e-07
3.00164e-07
3.0051e-07
3.01115e-07
3.02028e-07
3.03157e-07
3.04712e-07
3.06425e-07
3.08588e-07
3.10937e-07
3.13625e-07
3.16575e-07
3.19621e-07
3.23087e-07
3.264e-07
3.29905e-07
3.33502e-07
3.36691e-07
3.39871e-07
3.42703e-07
3.44855e-07
3.46577e-07
3.47521e-07
3.47517e-07
3.46751e-07
3.44906e-07
3.41869e-07
3.38045e-07
3.33086e-07
3.27165e-07
3.20799e-07
3.13394e-07
3.05617e-07
2.97774e-07
2.89248e-07
2.80974e-07
2.7286e-07
2.64694e-07
2.57147e-07
2.50054e-07
2.43283e-07
2.37253e-07
2.31886e-07
2.2698e-07
2.22821e-07
2.19387e-07
2.16422e-07
2.14041e-07
2.1234e-07
2.11028e-07
2.10211e-07
2.09991e-07
2.09972e-07
2.10228e-07
2.10744e-07
2.11434e-07
2.12317e-07
2.13395e-07
2.14647e-07
2.16026e-07
2.17532e-07
2.19287e-07
2.21053e-07
2.23125e-07
2.25184e-07
2.27486e-07
2.29776e-07
2.32277e-07
2.34823e-07
2.37492e-07
2.4034e-07
2.4334e-07
2.46417e-07
2.49589e-07
2.52865e-07
2.56242e-07
2.59686e-07
2.63135e-07
2.66495e-07
2.69689e-07
2.72556e-07
2.74882e-07
2.76364e-07
2.76636e-07
2.75223e-07
2.71468e-07
2.64671e-07
2.54113e-07
2.39182e-07
2.18954e-07
1.92279e-07
1.58887e-07
1.22413e-07
8.99143e-08
6.30135e-08
3.63094e-08
1.09975e-07
1.11333e-07
1.12735e-07
1.14028e-07
1.15351e-07
1.1665e-07
1.17828e-07
1.19002e-07
1.20097e-07
1.21119e-07
1.2209e-07
1.22924e-07
1.23765e-07
1.24485e-07
1.25083e-07
1.25652e-07
1.26101e-07
1.26445e-07
1.2664e-07
1.26793e-07
1.26797e-07
1.26706e-07
1.2656e-07
1.26325e-07
1.25967e-07
1.25618e-07
1.25155e-07
1.24658e-07
1.24177e-07
1.23608e-07
1.23125e-07
1.22627e-07
1.22141e-07
1.21791e-07
1.21436e-07
1.21166e-07
1.21103e-07
1.21012e-07
1.2119e-07
1.21476e-07
1.21879e-07
1.22398e-07
1.23057e-07
1.2381e-07
1.24772e-07
1.25792e-07
1.27038e-07
1.28376e-07
1.29896e-07
1.3156e-07
1.33274e-07
1.35254e-07
1.37144e-07
1.39182e-07
1.41321e-07
1.4324e-07
1.45234e-07
1.47079e-07
1.48559e-07
1.49901e-07
1.50839e-07
1.51225e-07
1.51185e-07
1.50504e-07
1.4908e-07
1.47144e-07
1.44531e-07
1.41347e-07
1.37963e-07
1.34049e-07
1.29982e-07
1.25995e-07
1.21758e-07
1.17775e-07
1.14022e-07
1.10366e-07
1.07113e-07
1.04182e-07
1.01487e-07
9.91862e-08
9.72301e-08
9.55109e-08
9.41126e-08
9.30197e-08
9.21065e-08
9.14333e-08
9.10233e-08
9.07538e-08
9.06719e-08
9.08092e-08
9.10127e-08
9.13073e-08
9.16943e-08
9.21482e-08
9.26824e-08
9.32944e-08
9.39794e-08
9.47374e-08
9.55708e-08
9.65055e-08
9.7491e-08
9.86058e-08
9.97734e-08
1.01082e-07
1.02461e-07
1.03984e-07
1.05618e-07
1.07406e-07
1.0932e-07
1.11419e-07
1.13687e-07
1.16144e-07
1.1884e-07
1.21762e-07
1.24937e-07
1.28377e-07
1.3207e-07
1.3599e-07
1.40127e-07
1.44473e-07
1.4898e-07
1.53513e-07
1.57939e-07
1.62069e-07
1.65673e-07
1.67693e-07
1.67566e-07
1.64636e-07
1.5632e-07
1.40812e-07
1.17981e-07
9.12177e-08
7.25658e-08
5.20859e-08
6.97924e-08
7.02468e-08
7.0716e-08
7.11655e-08
7.16223e-08
7.20806e-08
7.25053e-08
7.29265e-08
7.33291e-08
7.37086e-08
7.40701e-08
7.43907e-08
7.47109e-08
7.49921e-08
7.52295e-08
7.54544e-08
7.56421e-08
7.57853e-08
7.58764e-08
7.59475e-08
7.59646e-08
7.59437e-08
7.59031e-08
7.58271e-08
7.57085e-08
7.55891e-08
7.54327e-08
7.52602e-08
7.50908e-08
7.4896e-08
7.47258e-08
7.45563e-08
7.43943e-08
7.42789e-08
7.4167e-08
7.40914e-08
7.40819e-08
7.40812e-08
7.41605e-08
7.42951e-08
7.4467e-08
7.46858e-08
7.49552e-08
7.5271e-08
7.56566e-08
7.60816e-08
7.65873e-08
7.71425e-08
7.77742e-08
7.84674e-08
7.91993e-08
8.00366e-08
8.08576e-08
8.17488e-08
8.26931e-08
8.35619e-08
8.44722e-08
8.53311e-08
8.60405e-08
8.66975e-08
8.71828e-08
8.74233e-08
8.74602e-08
8.71975e-08
8.6588e-08
8.57431e-08
8.4593e-08
8.32047e-08
8.17388e-08
8.00687e-08
7.83768e-08
7.67517e-08
7.50775e-08
7.35454e-08
7.21376e-08
7.08268e-08
6.97008e-08
6.87226e-08
6.78743e-08
6.71795e-08
6.66109e-08
6.61502e-08
6.57998e-08
6.55326e-08
6.53419e-08
6.52313e-08
6.51622e-08
6.51606e-08
6.52172e-08
6.53006e-08
6.54248e-08
6.55634e-08
6.5718e-08
6.58987e-08
6.60975e-08
6.63188e-08
6.6555e-08
6.68215e-08
6.71175e-08
6.74293e-08
6.77909e-08
6.81705e-08
6.86091e-08
6.90722e-08
6.96017e-08
7.01722e-08
7.08124e-08
7.15178e-08
7.23126e-08
7.3206e-08
7.42071e-08
7.53157e-08
7.65613e-08
7.79636e-08
7.95488e-08
8.13326e-08
8.33445e-08
8.56069e-08
8.81434e-08
9.09615e-08
9.40693e-08
9.74598e-08
1.00992e-07
1.04457e-07
1.07547e-07
1.10609e-07
1.1352e-07
1.15335e-07
1.15854e-07
1.14082e-07
1.05817e-07
8.96258e-08
7.44311e-08
6.00264e-08
6.02748e-08
6.04095e-08
6.05429e-08
6.06896e-08
6.08278e-08
6.09737e-08
6.11182e-08
6.12545e-08
6.13933e-08
6.15251e-08
6.16468e-08
6.17649e-08
6.1875e-08
6.19772e-08
6.20683e-08
6.21474e-08
6.22208e-08
6.22714e-08
6.23088e-08
6.23334e-08
6.23434e-08
6.23378e-08
6.23221e-08
6.22944e-08
6.22567e-08
6.22097e-08
6.21576e-08
6.20982e-08
6.20363e-08
6.19759e-08
6.1916e-08
6.1862e-08
6.18151e-08
6.17759e-08
6.17438e-08
6.17297e-08
6.17208e-08
6.1746e-08
6.17708e-08
6.18351e-08
6.19034e-08
6.19931e-08
6.20922e-08
6.22199e-08
6.23549e-08
6.25288e-08
6.27143e-08
6.29318e-08
6.31762e-08
6.34405e-08
6.37427e-08
6.40716e-08
6.44189e-08
6.47856e-08
6.51804e-08
6.55609e-08
6.59505e-08
6.63306e-08
6.66511e-08
6.69436e-08
6.717e-08
6.72838e-08
6.73048e-08
6.71999e-08
6.69323e-08
6.65651e-08
6.60791e-08
6.54792e-08
6.4865e-08
6.41877e-08
6.3494e-08
6.28607e-08
6.22375e-08
6.16807e-08
6.12062e-08
6.07961e-08
6.0463e-08
6.01944e-08
6.00013e-08
5.9867e-08
5.97544e-08
5.97056e-08
5.9705e-08
5.96739e-08
5.97056e-08
5.97672e-08
5.97855e-08
5.98511e-08
5.99306e-08
5.99808e-08
6.00523e-08
6.01203e-08
6.01784e-08
6.02444e-08
6.03032e-08
6.03665e-08
6.04244e-08
6.04898e-08
6.0561e-08
6.06203e-08
6.07097e-08
6.0781e-08
6.08948e-08
6.09995e-08
6.11521e-08
6.13012e-08
6.14965e-08
6.17095e-08
6.19582e-08
6.22346e-08
6.25595e-08
6.29401e-08
6.33977e-08
6.39483e-08
6.4593e-08
6.53459e-08
6.62416e-08
6.73032e-08
6.85497e-08
7.00057e-08
7.1698e-08
7.36373e-08
7.58871e-08
7.84643e-08
8.11951e-08
8.37079e-08
8.59734e-08
8.78502e-08
8.94738e-08
9.00988e-08
8.91666e-08
8.36595e-08
7.39374e-08
6.31356e-08
5.80422e-08
5.80735e-08
5.80981e-08
5.8144e-08
5.81776e-08
5.8218e-08
5.82643e-08
5.83018e-08
5.83471e-08
5.83887e-08
5.8425e-08
5.8467e-08
5.84995e-08
5.85301e-08
5.85625e-08
5.85827e-08
5.86074e-08
5.86199e-08
5.86303e-08
5.86343e-08
5.86344e-08
5.86296e-08
5.86198e-08
5.86058e-08
5.85926e-08
5.85701e-08
5.85522e-08
5.85318e-08
5.85071e-08
5.84904e-08
5.84672e-08
5.84488e-08
5.84414e-08
5.84253e-08
5.84191e-08
5.84271e-08
5.84175e-08
5.84416e-08
5.84464e-08
5.84783e-08
5.85054e-08
5.85434e-08
5.85766e-08
5.86326e-08
5.86739e-08
5.8747e-08
5.88092e-08
5.88955e-08
5.89937e-08
5.90901e-08
5.92205e-08
5.93399e-08
5.94896e-08
5.96474e-08
5.98068e-08
5.99808e-08
6.01505e-08
6.03179e-08
6.0467e-08
6.05963e-08
6.06993e-08
6.07543e-08
6.07633e-08
6.07138e-08
6.05913e-08
6.04215e-08
6.01971e-08
5.99373e-08
5.96668e-08
5.93782e-08
5.91186e-08
5.88588e-08
5.86479e-08
5.84794e-08
5.83085e-08
5.82256e-08
5.81769e-08
5.81117e-08
5.81401e-08
5.81895e-08
5.8204e-08
5.829e-08
5.83831e-08
5.84425e-08
5.85343e-08
5.86314e-08
5.87002e-08
5.87755e-08
5.88533e-08
5.89109e-08
5.89643e-08
5.90119e-08
5.90452e-08
5.90699e-08
5.90877e-08
5.91026e-08
5.91089e-08
5.91122e-08
5.91128e-08
5.91048e-08
5.91051e-08
5.90955e-08
5.90969e-08
5.90921e-08
5.91054e-08
5.91083e-08
5.91347e-08
5.91579e-08
5.91995e-08
5.9253e-08
5.93291e-08
5.94217e-08
5.95364e-08
5.96871e-08
5.98835e-08
6.01368e-08
6.04643e-08
6.08917e-08
6.14329e-08
6.2114e-08
6.29257e-08
6.39262e-08
6.51649e-08
6.6628e-08
6.848e-08
7.05326e-08
7.21815e-08
7.37613e-08
7.56163e-08
7.70157e-08
7.72918e-08
7.60904e-08
7.17916e-08
6.43586e-08
5.75328e-08
5.75282e-08
5.75203e-08
5.753e-08
5.7529e-08
5.75348e-08
5.75477e-08
5.75534e-08
5.75682e-08
5.75808e-08
5.75903e-08
5.76082e-08
5.76173e-08
5.76247e-08
5.76396e-08
5.76415e-08
5.76516e-08
5.76523e-08
5.76546e-08
5.76527e-08
5.76497e-08
5.76472e-08
5.764e-08
5.76315e-08
5.76282e-08
5.76121e-08
5.7607e-08
5.7599e-08
5.75869e-08
5.75842e-08
5.75741e-08
5.75677e-08
5.7575e-08
5.75674e-08
5.7569e-08
5.75849e-08
5.75761e-08
5.76008e-08
5.75991e-08
5.7622e-08
5.76371e-08
5.76588e-08
5.76724e-08
5.77055e-08
5.77142e-08
5.77537e-08
5.77742e-08
5.78139e-08
5.78606e-08
5.78981e-08
5.79651e-08
5.80074e-08
5.80792e-08
5.81657e-08
5.8235e-08
5.83265e-08
5.84168e-08
5.84955e-08
5.85764e-08
5.86419e-08
5.86845e-08
5.87129e-08
5.8716e-08
5.86761e-08
5.86153e-08
5.85245e-08
5.83872e-08
5.82795e-08
5.81257e-08
5.79705e-08
5.78787e-08
5.77186e-08
5.76413e-08
5.76033e-08
5.75048e-08
5.7533e-08
5.7572e-08
5.75676e-08
5.76707e-08
5.77733e-08
5.78343e-08
5.79598e-08
5.80813e-08
5.81669e-08
5.82755e-08
5.8384e-08
5.84651e-08
5.85479e-08
5.86274e-08
5.86873e-08
5.87398e-08
5.87811e-08
5.88094e-08
5.88318e-08
5.88468e-08
5.88552e-08
5.88473e-08
5.88362e-08
5.88196e-08
5.879e-08
5.8767e-08
5.87259e-08
5.86891e-08
5.86414e-08
5.85978e-08
5.85447e-08
5.84975e-08
5.8453e-08
5.84128e-08
5.83767e-08
5.83488e-08
5.83274e-08
5.83153e-08
5.83159e-08
5.83352e-08
5.83896e-08
5.84802e-08
5.86107e-08
5.87979e-08
5.90609e-08
5.9457e-08
5.99784e-08
6.06354e-08
6.14089e-08
6.21167e-08
6.30995e-08
6.46547e-08
6.63732e-08
6.82215e-08
7.02523e-08
7.15182e-08
7.14368e-08
6.9517e-08
6.4675e-08
5.74664e-08
5.74506e-08
5.7433e-08
5.74302e-08
5.74191e-08
5.74113e-08
5.7411e-08
5.74056e-08
5.74077e-08
5.74072e-08
5.74054e-08
5.74126e-08
5.74126e-08
5.74094e-08
5.74181e-08
5.74124e-08
5.74167e-08
5.74116e-08
5.74095e-08
5.7405e-08
5.73987e-08
5.73975e-08
5.73899e-08
5.73814e-08
5.73812e-08
5.73648e-08
5.73641e-08
5.73592e-08
5.73523e-08
5.73541e-08
5.73488e-08
5.7346e-08
5.73595e-08
5.73552e-08
5.73614e-08
5.73806e-08
5.73737e-08
5.74021e-08
5.73976e-08
5.74196e-08
5.74316e-08
5.74493e-08
5.74562e-08
5.74834e-08
5.74793e-08
5.75104e-08
5.75156e-08
5.75412e-08
5.75696e-08
5.75846e-08
5.76291e-08
5.76431e-08
5.76859e-08
5.77441e-08
5.77767e-08
5.78316e-08
5.78916e-08
5.79302e-08
5.7983e-08
5.80256e-08
5.8039e-08
5.80587e-08
5.80602e-08
5.80125e-08
5.79831e-08
5.79188e-08
5.78052e-08
5.77599e-08
5.76391e-08
5.75377e-08
5.75133e-08
5.73863e-08
5.73765e-08
5.73945e-08
5.73305e-08
5.74102e-08
5.74855e-08
5.75085e-08
5.76407e-08
5.77664e-08
5.78446e-08
5.79862e-08
5.81231e-08
5.82207e-08
5.83406e-08
5.84596e-08
5.85482e-08
5.86368e-08
5.87207e-08
5.87816e-08
5.88331e-08
5.88783e-08
5.89145e-08
5.89379e-08
5.89363e-08
5.89182e-08
5.88902e-08
5.88668e-08
5.88404e-08
5.88051e-08
5.87781e-08
5.87278e-08
5.86885e-08
5.86271e-08
5.85777e-08
5.85069e-08
5.84407e-08
5.83686e-08
5.82978e-08
5.82229e-08
5.81499e-08
5.80832e-08
5.80206e-08
5.79643e-08
5.79166e-08
5.78835e-08
5.78696e-08
5.788e-08
5.79191e-08
5.79959e-08
5.81379e-08
5.82865e-08
5.85271e-08
5.8967e-08
5.96744e-08
6.03199e-08
6.09741e-08
6.19067e-08
6.31933e-08
6.52969e-08
6.78249e-08
6.83981e-08
6.73711e-08
6.42097e-08
5.75056e-08
5.74836e-08
5.74592e-08
5.7452e-08
5.74368e-08
5.74243e-08
5.74185e-08
5.74082e-08
5.74061e-08
5.74018e-08
5.73939e-08
5.73966e-08
5.73934e-08
5.73811e-08
5.73883e-08
5.73764e-08
5.73768e-08
5.73681e-08
5.73619e-08
5.7356e-08
5.73444e-08
5.73459e-08
5.73369e-08
5.73287e-08
5.73321e-08
5.73138e-08
5.73163e-08
5.73111e-08
5.73066e-08
5.73083e-08
5.73067e-08
5.73047e-08
5.73221e-08
5.73185e-08
5.73263e-08
5.73477e-08
5.73432e-08
5.73742e-08
5.73702e-08
5.73929e-08
5.74066e-08
5.74234e-08
5.74313e-08
5.74596e-08
5.74539e-08
5.74854e-08
5.74874e-08
5.75114e-08
5.75355e-08
5.75449e-08
5.75848e-08
5.75918e-08
5.76272e-08
5.76756e-08
5.76938e-08
5.77357e-08
5.77831e-08
5.78012e-08
5.78387e-08
5.7871e-08
5.78656e-08
5.78818e-08
5.78807e-08
5.78212e-08
5.7808e-08
5.77501e-08
5.76413e-08
5.76251e-08
5.75114e-08
5.74322e-08
5.74341e-08
5.73137e-08
5.73265e-08
5.73634e-08
5.73e-08
5.73931e-08
5.74778e-08
5.74982e-08
5.76322e-08
5.7761e-08
5.78331e-08
5.79717e-08
5.81092e-08
5.81988e-08
5.83111e-08
5.84282e-08
5.85091e-08
5.85894e-08
5.8673e-08
5.87368e-08
5.87957e-08
5.884e-08
5.88542e-08
5.88383e-08
5.88438e-08
5.8843e-08
5.88233e-08
5.88016e-08
5.87742e-08
5.87365e-08
5.8706e-08
5.86545e-08
5.86095e-08
5.85426e-08
5.8489e-08
5.84168e-08
5.83489e-08
5.82769e-08
5.82041e-08
5.81271e-08
5.80528e-08
5.79775e-08
5.79139e-08
5.7861e-08
5.78116e-08
5.77635e-08
5.77327e-08
5.77231e-08
5.774e-08
5.77942e-08
5.78884e-08
5.80596e-08
5.82978e-08
5.86045e-08
5.8993e-08
5.95575e-08
6.02306e-08
6.09951e-08
6.20972e-08
6.37299e-08
6.54777e-08
6.60471e-08
6.53019e-08
6.33607e-08
5.75881e-08
5.75599e-08
5.75302e-08
5.7516e-08
5.74956e-08
5.74792e-08
5.74665e-08
5.74517e-08
5.74459e-08
5.74377e-08
5.74265e-08
5.74274e-08
5.74231e-08
5.7405e-08
5.74133e-08
5.73986e-08
5.73981e-08
5.73882e-08
5.73799e-08
5.7375e-08
5.73597e-08
5.7364e-08
5.73534e-08
5.73452e-08
5.73505e-08
5.733e-08
5.7334e-08
5.73286e-08
5.73264e-08
5.7327e-08
5.73307e-08
5.73287e-08
5.73484e-08
5.73475e-08
5.73595e-08
5.7381e-08
5.73801e-08
5.74158e-08
5.74144e-08
5.74386e-08
5.74555e-08
5.74734e-08
5.74842e-08
5.75146e-08
5.75091e-08
5.75423e-08
5.75443e-08
5.75685e-08
5.75897e-08
5.75956e-08
5.76346e-08
5.76359e-08
5.76696e-08
5.77169e-08
5.77292e-08
5.77672e-08
5.78109e-08
5.78233e-08
5.78562e-08
5.7885e-08
5.787e-08
5.78832e-08
5.78791e-08
5.78094e-08
5.77992e-08
5.77394e-08
5.76273e-08
5.76185e-08
5.75031e-08
5.74279e-08
5.74351e-08
5.73134e-08
5.73309e-08
5.73723e-08
5.73071e-08
5.7406e-08
5.74985e-08
5.75189e-08
5.7662e-08
5.7801e-08
5.78766e-08
5.80252e-08
5.81751e-08
5.82723e-08
5.83935e-08
5.85199e-08
5.86043e-08
5.86865e-08
5.87646e-08
5.8809e-08
5.88435e-08
5.88751e-08
5.8905e-08
5.89482e-08
5.89613e-08
5.89834e-08
5.89964e-08
5.89994e-08
5.89878e-08
5.89414e-08
5.89077e-08
5.88406e-08
5.87878e-08
5.87103e-08
5.86462e-08
5.85667e-08
5.84955e-08
5.84152e-08
5.83327e-08
5.82548e-08
5.81716e-08
5.80817e-08
5.79876e-08
5.78945e-08
5.78141e-08
5.77377e-08
5.76779e-08
5.76362e-08
5.76113e-08
5.75981e-08
5.75986e-08
5.76364e-08
5.7702e-08
5.78216e-08
5.79936e-08
5.82839e-08
5.876e-08
5.95059e-08
6.05798e-08
6.20695e-08
6.38394e-08
6.45326e-08
6.41398e-08
6.26228e-08
5.77181e-08
5.76848e-08
5.76528e-08
5.76269e-08
5.76016e-08
5.75818e-08
5.7561e-08
5.75414e-08
5.75304e-08
5.75176e-08
5.75018e-08
5.74981e-08
5.74927e-08
5.74682e-08
5.74774e-08
5.74576e-08
5.74554e-08
5.7444e-08
5.74318e-08
5.74275e-08
5.7406e-08
5.7415e-08
5.74012e-08
5.73927e-08
5.74004e-08
5.73769e-08
5.73832e-08
5.73761e-08
5.73782e-08
5.73771e-08
5.73884e-08
5.73852e-08
5.74091e-08
5.74135e-08
5.74275e-08
5.74506e-08
5.74586e-08
5.74949e-08
5.74998e-08
5.75248e-08
5.75461e-08
5.75648e-08
5.75816e-08
5.7611e-08
5.76087e-08
5.76448e-08
5.76475e-08
5.76724e-08
5.76876e-08
5.76908e-08
5.77279e-08
5.77265e-08
5.7757e-08
5.77972e-08
5.78042e-08
5.78373e-08
5.78735e-08
5.78782e-08
5.79068e-08
5.79304e-08
5.79086e-08
5.79185e-08
5.79114e-08
5.78356e-08
5.7826e-08
5.77637e-08
5.76492e-08
5.7644e-08
5.75249e-08
5.74529e-08
5.7468e-08
5.73432e-08
5.7367e-08
5.74181e-08
5.73477e-08
5.74581e-08
5.75599e-08
5.75755e-08
5.77303e-08
5.78787e-08
5.79522e-08
5.8106e-08
5.82632e-08
5.83573e-08
5.84772e-08
5.86116e-08
5.86975e-08
5.87828e-08
5.88759e-08
5.89368e-08
5.89891e-08
5.90384e-08
5.90752e-08
5.90994e-08
5.91021e-08
5.90751e-08
5.90191e-08
5.89816e-08
5.89509e-08
5.8916e-08
5.88938e-08
5.88457e-08
5.88118e-08
5.87524e-08
5.87065e-08
5.86432e-08
5.85891e-08
5.85208e-08
5.84369e-08
5.83514e-08
5.82642e-08
5.81847e-08
5.81105e-08
5.80282e-08
5.79418e-08
5.78593e-08
5.77835e-08
5.77211e-08
5.76901e-08
5.76923e-08
5.77232e-08
5.78084e-08
5.79231e-08
5.80839e-08
5.8268e-08
5.85564e-08
5.89545e-08
5.94573e-08
6.00639e-08
6.11218e-08
6.2413e-08
6.30307e-08
6.28841e-08
6.18235e-08
5.78597e-08
5.7813e-08
5.77759e-08
5.7743e-08
5.77122e-08
5.7687e-08
5.76585e-08
5.76358e-08
5.76203e-08
5.76027e-08
5.75867e-08
5.75795e-08
5.75729e-08
5.75416e-08
5.75546e-08
5.75316e-08
5.75276e-08
5.75162e-08
5.75012e-08
5.75023e-08
5.7475e-08
5.74904e-08
5.74743e-08
5.74665e-08
5.74777e-08
5.74538e-08
5.74642e-08
5.74533e-08
5.74616e-08
5.74572e-08
5.74777e-08
5.74744e-08
5.75022e-08
5.7512e-08
5.75294e-08
5.75523e-08
5.75663e-08
5.76038e-08
5.76205e-08
5.7645e-08
5.76737e-08
5.76889e-08
5.7716e-08
5.77473e-08
5.77501e-08
5.77886e-08
5.77908e-08
5.78211e-08
5.78278e-08
5.78301e-08
5.78645e-08
5.78618e-08
5.78887e-08
5.79226e-08
5.79219e-08
5.79498e-08
5.798e-08
5.79742e-08
5.79972e-08
5.80142e-08
5.79809e-08
5.7987e-08
5.7976e-08
5.7889e-08
5.78796e-08
5.78137e-08
5.7691e-08
5.76895e-08
5.75649e-08
5.74851e-08
5.75022e-08
5.73656e-08
5.73839e-08
5.74369e-08
5.73529e-08
5.74617e-08
5.75643e-08
5.75679e-08
5.77203e-08
5.78681e-08
5.79316e-08
5.80804e-08
5.82376e-08
5.83244e-08
5.84373e-08
5.8573e-08
5.86542e-08
5.87333e-08
5.88308e-08
5.8894e-08
5.89502e-08
5.8997e-08
5.9012e-08
5.89965e-08
5.90037e-08
5.90105e-08
5.8989e-08
5.89653e-08
5.89406e-08
5.88995e-08
5.88753e-08
5.88245e-08
5.87863e-08
5.87237e-08
5.86797e-08
5.86181e-08
5.85645e-08
5.85072e-08
5.84409e-08
5.83707e-08
5.82995e-08
5.82265e-08
5.81627e-08
5.80942e-08
5.80142e-08
5.79351e-08
5.78607e-08
5.77839e-08
5.77096e-08
5.76516e-08
5.76208e-08
5.76296e-08
5.77135e-08
5.78943e-08
5.81666e-08
5.851e-08
5.89185e-08
5.94067e-08
6.00777e-08
6.07218e-08
6.10886e-08
6.12509e-08
6.12014e-08
6.06623e-08
5.80884e-08
5.80206e-08
5.79813e-08
5.79328e-08
5.7895e-08
5.78613e-08
5.78203e-08
5.77961e-08
5.77699e-08
5.77446e-08
5.77246e-08
5.77104e-08
5.77057e-08
5.76651e-08
5.76778e-08
5.76497e-08
5.76426e-08
5.76278e-08
5.76055e-08
5.76091e-08
5.75727e-08
5.75946e-08
5.75729e-08
5.75637e-08
5.75777e-08
5.75501e-08
5.75586e-08
5.75444e-08
5.75576e-08
5.75451e-08
5.75778e-08
5.75705e-08
5.75991e-08
5.76169e-08
5.76349e-08
5.76582e-08
5.76816e-08
5.77161e-08
5.77514e-08
5.77732e-08
5.78112e-08
5.78255e-08
5.78664e-08
5.78933e-08
5.7902e-08
5.79444e-08
5.79524e-08
5.79903e-08
5.79962e-08
5.8002e-08
5.80369e-08
5.80292e-08
5.80521e-08
5.80853e-08
5.80757e-08
5.80958e-08
5.81183e-08
5.81002e-08
5.81153e-08
5.81259e-08
5.80792e-08
5.80786e-08
5.80629e-08
5.79613e-08
5.79481e-08
5.78749e-08
5.77354e-08
5.77322e-08
5.7597e-08
5.75057e-08
5.75218e-08
5.73745e-08
5.7394e-08
5.74478e-08
5.7357e-08
5.74749e-08
5.75818e-08
5.7583e-08
5.77456e-08
5.78961e-08
5.7956e-08
5.81087e-08
5.8268e-08
5.83496e-08
5.84616e-08
5.85985e-08
5.86712e-08
5.87406e-08
5.88257e-08
5.88671e-08
5.88981e-08
5.89335e-08
5.89585e-08
5.89784e-08
5.89787e-08
5.89857e-08
5.89906e-08
5.8981e-08
5.89587e-08
5.89007e-08
5.88612e-08
5.8787e-08
5.87332e-08
5.86509e-08
5.85861e-08
5.85049e-08
5.84294e-08
5.8351e-08
5.82792e-08
5.82097e-08
5.81395e-08
5.80714e-08
5.79984e-08
5.79345e-08
5.78869e-08
5.78449e-08
5.78164e-08
5.77964e-08
5.77879e-08
5.77808e-08
5.77692e-08
5.77703e-08
5.77703e-08
5.78047e-08
5.78938e-08
5.80537e-08
5.83809e-08
5.89416e-08
5.95162e-08
5.98716e-08
6.00597e-08
6.00631e-08
5.99901e-08
5.99111e-08
5.83164e-08
5.82213e-08
5.81828e-08
5.81207e-08
5.80745e-08
5.80299e-08
5.79722e-08
5.79445e-08
5.79124e-08
5.7876e-08
5.78563e-08
5.78314e-08
5.78274e-08
5.77771e-08
5.7792e-08
5.77592e-08
5.77479e-08
5.77328e-08
5.77029e-08
5.77145e-08
5.76675e-08
5.76976e-08
5.76729e-08
5.7662e-08
5.76819e-08
5.76542e-08
5.76642e-08
5.7648e-08
5.76715e-08
5.76495e-08
5.76949e-08
5.76797e-08
5.77107e-08
5.77369e-08
5.77486e-08
5.77701e-08
5.77971e-08
5.78225e-08
5.78681e-08
5.78809e-08
5.79305e-08
5.7937e-08
5.79896e-08
5.80102e-08
5.80232e-08
5.80694e-08
5.80805e-08
5.81271e-08
5.81368e-08
5.81474e-08
5.81877e-08
5.81841e-08
5.82087e-08
5.82471e-08
5.82427e-08
5.82609e-08
5.82821e-08
5.82566e-08
5.82625e-08
5.82692e-08
5.82111e-08
5.81993e-08
5.8174e-08
5.80544e-08
5.80321e-08
5.7946e-08
5.77852e-08
5.77768e-08
5.7628e-08
5.75277e-08
5.7542e-08
5.73874e-08
5.74101e-08
5.74639e-08
5.73679e-08
5.74891e-08
5.75921e-08
5.75813e-08
5.77387e-08
5.78828e-08
5.7927e-08
5.80726e-08
5.82321e-08
5.83051e-08
5.841e-08
5.85539e-08
5.86267e-08
5.86941e-08
5.87949e-08
5.8848e-08
5.88897e-08
5.89366e-08
5.8959e-08
5.8967e-08
5.89714e-08
5.89609e-08
5.89177e-08
5.88846e-08
5.88554e-08
5.88102e-08
5.87851e-08
5.87243e-08
5.8681e-08
5.8607e-08
5.85505e-08
5.84717e-08
5.84005e-08
5.83207e-08
5.82329e-08
5.81419e-08
5.80498e-08
5.79623e-08
5.78751e-08
5.77992e-08
5.77349e-08
5.76729e-08
5.76179e-08
5.75898e-08
5.75935e-08
5.76347e-08
5.77152e-08
5.78212e-08
5.79586e-08
5.8141e-08
5.83638e-08
5.8648e-08
5.88881e-08
5.90687e-08
5.9287e-08
5.94349e-08
5.95347e-08
5.95519e-08
5.9509e-08
5.95921e-08
5.84648e-08
5.83675e-08
5.83385e-08
5.82684e-08
5.82346e-08
5.81894e-08
5.81235e-08
5.80994e-08
5.80634e-08
5.80196e-08
5.80006e-08
5.79674e-08
5.79642e-08
5.7901e-08
5.79161e-08
5.78788e-08
5.7864e-08
5.78466e-08
5.78081e-08
5.78259e-08
5.77664e-08
5.78031e-08
5.77739e-08
5.77585e-08
5.77677e-08
5.7737e-08
5.77504e-08
5.77219e-08
5.7743e-08
5.77057e-08
5.77589e-08
5.77341e-08
5.77613e-08
5.77891e-08
5.77953e-08
5.78107e-08
5.78446e-08
5.78631e-08
5.79226e-08
5.79267e-08
5.79877e-08
5.79833e-08
5.80479e-08
5.80664e-08
5.8088e-08
5.81354e-08
5.81453e-08
5.81977e-08
5.8208e-08
5.82217e-08
5.82646e-08
5.82619e-08
5.82862e-08
5.83346e-08
5.83335e-08
5.83562e-08
5.83834e-08
5.83598e-08
5.83642e-08
5.83682e-08
5.8301e-08
5.82798e-08
5.82452e-08
5.81107e-08
5.80789e-08
5.79804e-08
5.78096e-08
5.77953e-08
5.76386e-08
5.75402e-08
5.755e-08
5.73888e-08
5.74141e-08
5.74628e-08
5.7356e-08
5.7479e-08
5.75846e-08
5.75621e-08
5.77348e-08
5.78967e-08
5.79467e-08
5.81134e-08
5.83033e-08
5.8392e-08
5.85129e-08
5.86824e-08
5.87646e-08
5.88343e-08
5.89473e-08
5.89968e-08
5.90293e-08
5.90747e-08
5.9095e-08
5.90986e-08
5.90939e-08
5.90907e-08
5.90673e-08
5.90453e-08
5.90198e-08
5.89621e-08
5.89284e-08
5.88645e-08
5.88193e-08
5.87454e-08
5.8691e-08
5.86121e-08
5.85415e-08
5.8464e-08
5.83793e-08
5.82877e-08
5.81898e-08
5.80918e-08
5.79913e-08
5.78903e-08
5.7784e-08
5.76811e-08
5.75887e-08
5.75099e-08
5.74479e-08
5.74077e-08
5.7394e-08
5.74099e-08
5.74588e-08
5.75387e-08
5.76498e-08
5.77651e-08
5.79098e-08
5.80829e-08
5.82731e-08
5.84385e-08
5.85423e-08
5.85597e-08
5.85036e-08
5.83995e-08
5.85101e-08
5.84009e-08
5.83784e-08
5.83064e-08
5.82793e-08
5.82343e-08
5.81634e-08
5.81475e-08
5.81176e-08
5.80781e-08
5.80608e-08
5.80292e-08
5.80418e-08
5.79806e-08
5.79937e-08
5.79552e-08
5.794e-08
5.79228e-08
5.78766e-08
5.78894e-08
5.78172e-08
5.78507e-08
5.78113e-08
5.77976e-08
5.78073e-08
5.77693e-08
5.77695e-08
5.77374e-08
5.77655e-08
5.77094e-08
5.77723e-08
5.77352e-08
5.7761e-08
5.77971e-08
5.78027e-08
5.78196e-08
5.78609e-08
5.78745e-08
5.79484e-08
5.79502e-08
5.80227e-08
5.80099e-08
5.80875e-08
5.8103e-08
5.81362e-08
5.8182e-08
5.81907e-08
5.82468e-08
5.82547e-08
5.8271e-08
5.83118e-08
5.83049e-08
5.83254e-08
5.83699e-08
5.83654e-08
5.83839e-08
5.84052e-08
5.83749e-08
5.83801e-08
5.83842e-08
5.83117e-08
5.82922e-08
5.82598e-08
5.81213e-08
5.80894e-08
5.79881e-08
5.78172e-08
5.7801e-08
5.7638e-08
5.75454e-08
5.75487e-08
5.73747e-08
5.74142e-08
5.74617e-08
5.7348e-08
5.75015e-08
5.76241e-08
5.76098e-08
5.78375e-08
5.80374e-08
5.81023e-08
5.83122e-08
5.85331e-08
5.86308e-08
5.87579e-08
5.89492e-08
5.9033e-08
5.90972e-08
5.92252e-08
5.92787e-08
5.93072e-08
5.93562e-08
5.93761e-08
5.93728e-08
5.93621e-08
5.93505e-08
5.93087e-08
5.92713e-08
5.92322e-08
5.91536e-08
5.9104e-08
5.90243e-08
5.89679e-08
5.88779e-08
5.88128e-08
5.8723e-08
5.86412e-08
5.85551e-08
5.84736e-08
5.83882e-08
5.83011e-08
5.82162e-08
5.81256e-08
5.8038e-08
5.79562e-08
5.78762e-08
5.78e-08
5.77368e-08
5.76868e-08
5.76546e-08
5.76436e-08
5.76543e-08
5.76933e-08
5.77755e-08
5.78992e-08
5.80741e-08
5.82889e-08
5.84742e-08
5.85754e-08
5.86053e-08
5.85902e-08
5.85318e-08
5.83969e-08
5.81122e-08
5.8543e-08
5.84093e-08
5.83952e-08
5.83258e-08
5.82904e-08
5.82433e-08
5.81668e-08
5.81536e-08
5.81182e-08
5.80661e-08
5.80485e-08
5.79992e-08
5.80059e-08
5.79296e-08
5.79453e-08
5.79012e-08
5.7887e-08
5.7871e-08
5.78207e-08
5.78514e-08
5.77685e-08
5.7811e-08
5.77736e-08
5.77602e-08
5.77811e-08
5.77538e-08
5.77592e-08
5.77271e-08
5.77699e-08
5.77124e-08
5.77916e-08
5.77582e-08
5.77888e-08
5.78395e-08
5.78516e-08
5.78641e-08
5.79152e-08
5.79223e-08
5.80154e-08
5.80109e-08
5.80994e-08
5.80771e-08
5.81707e-08
5.81771e-08
5.8223e-08
5.82716e-08
5.82749e-08
5.83366e-08
5.83425e-08
5.83633e-08
5.84028e-08
5.84018e-08
5.8417e-08
5.84585e-08
5.84539e-08
5.84671e-08
5.84841e-08
5.84479e-08
5.84445e-08
5.84419e-08
5.83601e-08
5.83342e-08
5.82961e-08
5.81529e-08
5.81161e-08
5.80058e-08
5.78363e-08
5.78129e-08
5.76366e-08
5.75554e-08
5.75532e-08
5.73719e-08
5.74351e-08
5.74886e-08
5.7378e-08
5.75769e-08
5.77119e-08
5.77e-08
5.79547e-08
5.81419e-08
5.81911e-08
5.84119e-08
5.86219e-08
5.87111e-08
5.88486e-08
5.90417e-08
5.91281e-08
5.91921e-08
5.93354e-08
5.9399e-08
5.94356e-08
5.95e-08
5.95287e-08
5.95338e-08
5.95293e-08
5.95257e-08
5.94907e-08
5.94609e-08
5.94287e-08
5.93457e-08
5.92982e-08
5.92045e-08
5.91407e-08
5.90332e-08
5.89558e-08
5.88469e-08
5.87495e-08
5.8645e-08
5.85428e-08
5.84327e-08
5.83215e-08
5.82162e-08
5.81063e-08
5.7998e-08
5.79036e-08
5.78076e-08
5.77198e-08
5.76459e-08
5.75868e-08
5.75435e-08
5.75267e-08
5.75385e-08
5.75807e-08
5.76495e-08
5.77306e-08
5.78237e-08
5.7922e-08
5.80559e-08
5.82618e-08
5.85176e-08
5.86712e-08
5.86796e-08
5.85385e-08
5.82533e-08
5.85819e-08
5.84445e-08
5.84218e-08
5.83441e-08
5.83233e-08
5.82764e-08
5.82002e-08
5.81974e-08
5.81724e-08
5.81232e-08
5.81147e-08
5.80716e-08
5.80875e-08
5.8009e-08
5.80231e-08
5.79773e-08
5.79596e-08
5.79415e-08
5.78837e-08
5.79138e-08
5.78205e-08
5.78623e-08
5.78173e-08
5.78021e-08
5.78145e-08
5.77841e-08
5.77924e-08
5.77556e-08
5.77993e-08
5.77275e-08
5.78133e-08
5.7773e-08
5.77984e-08
5.78622e-08
5.78729e-08
5.78847e-08
5.79525e-08
5.7952e-08
5.80685e-08
5.80626e-08
5.81674e-08
5.81381e-08
5.8249e-08
5.8247e-08
5.83076e-08
5.8354e-08
5.83511e-08
5.84153e-08
5.8414e-08
5.84368e-08
5.84733e-08
5.84745e-08
5.84803e-08
5.85201e-08
5.85121e-08
5.85213e-08
5.85347e-08
5.84928e-08
5.84891e-08
5.84858e-08
5.84011e-08
5.83754e-08
5.83344e-08
5.81873e-08
5.81483e-08
5.80254e-08
5.78616e-08
5.78339e-08
5.76462e-08
5.75854e-08
5.75832e-08
5.73995e-08
5.74987e-08
5.7558e-08
5.74514e-08
5.76821e-08
5.7812e-08
5.77963e-08
5.80661e-08
5.82543e-08
5.831e-08
5.85629e-08
5.87895e-08
5.88924e-08
5.90643e-08
5.92801e-08
5.93829e-08
5.94546e-08
5.96172e-08
5.9688e-08
5.97258e-08
5.97994e-08
5.98338e-08
5.98405e-08
5.98353e-08
5.98324e-08
5.97978e-08
5.97683e-08
5.97418e-08
5.96629e-08
5.96224e-08
5.95327e-08
5.94763e-08
5.93743e-08
5.93046e-08
5.92014e-08
5.91111e-08
5.90085e-08
5.8907e-08
5.88003e-08
5.86864e-08
5.85736e-08
5.84585e-08
5.83417e-08
5.82289e-08
5.81118e-08
5.80023e-08
5.79036e-08
5.78149e-08
5.77481e-08
5.76968e-08
5.76717e-08
5.76711e-08
5.77095e-08
5.78035e-08
5.7939e-08
5.81006e-08
5.82525e-08
5.83582e-08
5.84359e-08
5.84805e-08
5.84521e-08
5.82987e-08
5.80299e-08
5.86553e-08
5.84864e-08
5.8449e-08
5.83525e-08
5.83209e-08
5.82575e-08
5.81646e-08
5.81542e-08
5.81209e-08
5.80628e-08
5.80574e-08
5.80164e-08
5.80406e-08
5.79565e-08
5.79716e-08
5.79341e-08
5.79321e-08
5.79233e-08
5.78674e-08
5.791e-08
5.78159e-08
5.78622e-08
5.78267e-08
5.7818e-08
5.78351e-08
5.7816e-08
5.78294e-08
5.77967e-08
5.78662e-08
5.77934e-08
5.79075e-08
5.78771e-08
5.79099e-08
5.79996e-08
5.80365e-08
5.80502e-08
5.814e-08
5.81338e-08
5.82829e-08
5.82703e-08