/*--------------------------------*- C++ -*----------------------------------*\
| =========                 |                                                 |
| \\      /  F ield         | OpenFOAM: The Open Source CFD Toolbox           |
|  \\    /   O peration     | Version:  v1912                                 |
|   \\  /    A nd           | Website:  www.openfoam.com                      |
|    \\/     M anipulation  |                                                 |
\*---------------------------------------------------------------------------*/
FoamFile
{
    version     2.0;
    format      ascii;
    class       volScalarField;
    location    "100";
    object      k;
}
// * * * * * * * * * * * * * * * * * * * * * * * * * * * * * * * * * * * * * //

dimensions      [0 2 -2 0 0 0 0];


internalField   nonuniform List<scalar> 
14268
(
5.48885e-10
5.26327e-10
5.08462e-10
4.97703e-10
4.93814e-10
4.93163e-10
5.16939e-10
5.03303e-10
5.5893e-09
5.34584e-09
5.14628e-09
5.00936e-09
4.92784e-09
4.86742e-09
4.98291e-09
4.88583e-09
1.70951e-08
1.65305e-08
1.6019e-08
1.5622e-08
1.53396e-08
1.50535e-08
1.52014e-08
1.47513e-08
2.65287e-08
2.5956e-08
2.54175e-08
2.50115e-08
2.47711e-08
2.45565e-08
2.50425e-08
2.53334e-08
3.22174e-08
3.18723e-08
3.16101e-08
3.15432e-08
3.18784e-08
3.23298e-08
3.43538e-08
3.56926e-08
3.67185e-08
3.67476e-08
3.69529e-08
3.76173e-08
3.91202e-08
4.17841e-08
4.82357e-08
5.60982e-08
4.24099e-08
4.33131e-08
4.48296e-08
4.74998e-08
5.32788e-08
6.30003e-08
8.86934e-08
1.19453e-07
5.45241e-08
5.81844e-08
6.37736e-08
7.33998e-08
9.20454e-08
1.26414e-07
2.09356e-07
3.3241e-07
6.54109e-08
7.34866e-08
8.60026e-08
1.06929e-07
1.45968e-07
2.19674e-07
3.67759e-07
6.50537e-07
6.81329e-08
7.81873e-08
9.39895e-08
1.20376e-07
1.68648e-07
2.61959e-07
4.19574e-07
7.57291e-07
5.86242e-08
6.75569e-08
8.2043e-08
1.0614e-07
1.491e-07
2.30558e-07
3.32477e-07
4.94373e-07
4.85761e-08
5.3358e-08
6.13232e-08
7.47504e-08
9.81028e-08
1.40917e-07
1.86075e-07
2.40019e-07
4.44646e-08
4.74053e-08
5.23061e-08
6.05394e-08
7.46886e-08
9.81018e-08
1.26635e-07
1.60604e-07
4.31611e-08
4.54217e-08
4.91663e-08
5.54702e-08
6.62606e-08
8.32084e-08
1.08238e-07
1.41796e-07
4.18857e-08
4.36484e-08
4.66092e-08
5.16596e-08
6.07208e-08
7.54218e-08
1.03924e-07
1.40578e-07
3.98823e-08
4.08842e-08
4.26646e-08
4.57796e-08
5.15482e-08
6.11322e-08
7.76644e-08
1.01559e-07
3.9125e-08
3.95912e-08
4.05354e-08
4.23401e-08
4.5946e-08
5.22553e-08
6.34677e-08
8.37033e-08
3.89766e-08
3.92551e-08
3.98551e-08
4.10347e-08
4.35686e-08
4.82579e-08
5.73115e-08
7.4963e-08
3.9041e-08
3.92334e-08
3.9643e-08
4.0438e-08
4.2186e-08
4.53788e-08
5.21671e-08
6.69227e-08
3.86883e-08
3.89359e-08
3.93352e-08
3.9969e-08
4.11899e-08
4.31863e-08
4.79386e-08
5.89268e-08
3.81975e-08
3.82381e-08
3.8419e-08
3.87671e-08
3.95501e-08
4.07939e-08
4.36708e-08
5.09965e-08
3.80154e-08
3.79086e-08
3.78423e-08
3.78229e-08
3.80324e-08
3.83122e-08
3.92587e-08
4.15136e-08
3.80016e-08
3.7892e-08
3.77608e-08
3.76547e-08
3.75924e-08
3.74922e-08
3.75463e-08
3.76486e-08
3.81979e-08
3.79992e-08
3.78125e-08
3.765e-08
3.75133e-08
3.73394e-08
3.7256e-08
3.71247e-08
3.94639e-08
3.9238e-08
3.90016e-08
3.87689e-08
3.85412e-08
3.82986e-08
3.81116e-08
3.79099e-08
4.12476e-08
4.09011e-08
4.05458e-08
4.02109e-08
3.98899e-08
3.95368e-08
3.9257e-08
3.88724e-08
4.40047e-08
4.38488e-08
4.35937e-08
4.32763e-08
4.28725e-08
4.24199e-08
4.20229e-08
4.14856e-08
4.52923e-08
4.5399e-08
4.5411e-08
4.53495e-08
4.512e-08
4.48087e-08
4.42884e-08
4.37302e-08
4.46287e-08
4.50443e-08
4.53248e-08
4.54747e-08
4.54218e-08
4.52925e-08
4.47607e-08
4.4237e-08
3.95052e-08
4.07315e-08
4.1757e-08
4.25093e-08
4.29231e-08
4.31903e-08
4.2816e-08
4.24505e-08
3.11191e-08
3.24784e-08
3.36019e-08
3.45668e-08
3.54514e-08
3.63214e-08
3.65316e-08
3.66614e-08
2.57746e-08
2.73597e-08
2.7735e-08
2.77518e-08
2.77063e-08
2.81587e-08
2.8908e-08
3.02169e-08
3.00006e-08
2.76024e-08
2.59768e-08
2.46677e-08
2.35452e-08
2.3019e-08
2.35412e-08
2.54467e-08
6.96351e-08
5.16918e-08
3.95393e-08
3.13636e-08
2.58603e-08
2.35121e-08
2.38319e-08
2.7215e-08
3.22494e-07
2.2305e-07
1.49303e-07
1.04982e-07
7.48407e-08
5.32577e-08
4.77893e-08
5.99933e-08
8.55973e-06
4.58374e-06
1.89197e-06
8.53849e-07
5.0383e-07
3.44593e-07
2.59589e-07
3.0865e-07
0.000259638
0.000192021
0.000110206
5.69436e-05
2.86406e-05
1.24426e-05
4.04206e-06
1.17037e-06
0.00200109
0.0015541
0.00102112
0.00064892
0.000399523
0.00022155
0.000106729
3.76754e-05
0.00611834
0.00561346
0.00460668
0.00335716
0.00230115
0.00144068
0.000837108
0.000378221
0.00865843
0.00851358
0.00805669
0.00731986
0.00646964
0.0055282
0.00434046
0.00284807
0.00917527
0.00926181
0.0091957
0.00896068
0.00874257
0.00871696
0.00871464
0.0087121
0.00803309
0.0081874
0.00820979
0.00827512
0.00857134
0.0091329
0.00999532
0.0112483
0.0068234
0.00719489
0.00730008
0.00748084
0.00789631
0.00854523
0.00935356
0.0104787
0.00587833
0.0065566
0.00689012
0.00721552
0.00765523
0.00825975
0.00888409
0.00960944
0.00494828
0.00600045
0.0066926
0.00724358
0.00778433
0.00837913
0.00885372
0.0093656
0.00380107
0.0051865
0.00635309
0.00724249
0.00790054
0.00858448
0.00909378
0.00962887
0.00270779
0.0039121
0.00538493
0.00675287
0.00769847
0.00850811
0.00912387
0.00974943
0.00181786
0.00271005
0.00384445
0.00524396
0.00652121
0.0074913
0.00834352
0.00926009
0.00114634
0.00176123
0.00256325
0.00356633
0.00461489
0.00550414
0.00638182
0.00750827
0.000679812
0.00107093
0.00159787
0.00229405
0.00308487
0.00383613
0.00461477
0.00567968
0.000379912
0.000609069
0.000927139
0.00137952
0.00193441
0.00251395
0.00315654
0.00410332
0.00020148
0.000327589
0.000505394
0.000775279
0.0011341
0.00153806
0.00202088
0.00278097
0.00010161
0.00016719
0.000260768
0.000409165
0.000622069
0.000876052
0.00120273
0.001748
4.88827e-05
8.11622e-05
0.000128231
0.000203919
0.000320507
0.000466217
0.000665402
0.00101461
2.26002e-05
3.78133e-05
6.05755e-05
9.69806e-05
0.00015685
0.000234791
0.000346071
0.000548822
1.00145e-05
1.68661e-05
2.74345e-05
4.41186e-05
7.31418e-05
0.000112479
0.000170104
0.000278182
4.26342e-06
7.20847e-06
1.19086e-05
1.92461e-05
3.25888e-05
5.14732e-05
7.94442e-05
0.000133149
1.75822e-06
2.96819e-06
4.96662e-06
8.08238e-06
1.39304e-05
2.25565e-05
3.54568e-05
6.05906e-05
7.08173e-07
1.18425e-06
1.99996e-06
3.26952e-06
5.70733e-06
9.44229e-06
1.5107e-05
2.6186e-05
2.88585e-07
4.67506e-07
7.85815e-07
1.28179e-06
2.25322e-06
3.79439e-06
6.1669e-06
1.07984e-05
1.27547e-07
1.9189e-07
3.10451e-07
4.96349e-07
8.66244e-07
1.47095e-06
2.41562e-06
4.24996e-06
6.85347e-08
9.07078e-08
1.32884e-07
1.99539e-07
3.34329e-07
5.59602e-07
9.18371e-07
1.60792e-06
4.78671e-08
5.51734e-08
6.94949e-08
9.23606e-08
1.39265e-07
2.19097e-07
3.48831e-07
5.94714e-07
4.09544e-08
4.3271e-08
4.79165e-08
5.53961e-08
7.09948e-08
9.78842e-08
1.42526e-07
2.2577e-07
3.87653e-08
3.94732e-08
4.09068e-08
4.32439e-08
4.81888e-08
5.68067e-08
7.14057e-08
9.81536e-08
3.81204e-08
3.83308e-08
3.87442e-08
3.94512e-08
4.09322e-08
4.35714e-08
4.80922e-08
5.62653e-08
3.79497e-08
3.80189e-08
3.81188e-08
3.83412e-08
3.87434e-08
3.9532e-08
4.08413e-08
4.32284e-08
3.79151e-08
3.79504e-08
3.79559e-08
3.80466e-08
3.81258e-08
3.83773e-08
3.87085e-08
3.93977e-08
3.79124e-08
3.79372e-08
3.792e-08
3.79759e-08
3.79668e-08
3.80712e-08
3.81142e-08
3.83448e-08
3.79133e-08
3.79271e-08
3.79075e-08
3.79482e-08
3.7929e-08
3.7985e-08
3.79499e-08
3.80673e-08
3.79122e-08
3.79077e-08
3.7895e-08
3.79285e-08
3.79106e-08
3.79479e-08
3.78923e-08
3.79857e-08
3.78904e-08
3.78811e-08
3.78866e-08
3.78995e-08
3.7892e-08
3.79188e-08
3.78614e-08
3.79498e-08
3.78705e-08
3.78611e-08
3.78777e-08
3.786e-08
3.78751e-08
3.78899e-08
3.78427e-08
3.79245e-08
3.78649e-08
3.78572e-08
3.78726e-08
3.78481e-08
3.78682e-08
3.78744e-08
3.78327e-08
3.79118e-08
3.78671e-08
3.78663e-08
3.78863e-08
3.78523e-08
3.78751e-08
3.78703e-08
3.7827e-08
3.79074e-08
3.78945e-08
3.78664e-08
3.79088e-08
3.78531e-08
3.78915e-08
3.78682e-08
3.78489e-08
3.79066e-08
3.79171e-08
3.78764e-08
3.7921e-08
3.78672e-08
3.79121e-08
3.78914e-08
3.78739e-08
3.79199e-08
3.79268e-08
3.79192e-08
3.79259e-08
3.79119e-08
3.79217e-08
3.79368e-08
3.79066e-08
3.79341e-08
3.79246e-08
3.79861e-08
3.79145e-08
3.79871e-08
3.78994e-08
3.79809e-08
3.79351e-08
3.79487e-08
3.79918e-08
3.80124e-08
3.80005e-08
3.79972e-08
3.80171e-08
3.79761e-08
3.80195e-08
3.79575e-08
3.82213e-08
3.81353e-08
3.8211e-08
3.81114e-08
3.8185e-08
3.80944e-08
3.81422e-08
3.80668e-08
3.90191e-08
3.90036e-08
3.89086e-08
3.88951e-08
3.88053e-08
3.87821e-08
3.87106e-08
3.86822e-08
4.26257e-08
4.24303e-08
4.22726e-08
4.20587e-08
4.19007e-08
4.16859e-08
4.15282e-08
4.13253e-08
5.68246e-08
5.63734e-08
5.58736e-08
5.53655e-08
5.48197e-08
5.42771e-08
5.37218e-08
5.31824e-08
1.08156e-07
1.07291e-07
1.06299e-07
1.05199e-07
1.04003e-07
1.02725e-07
1.014e-07
1.0003e-07
2.71038e-07
2.70534e-07
2.6965e-07
2.68449e-07
2.66917e-07
2.65105e-07
2.63041e-07
2.60752e-07
6.83768e-07
6.88242e-07
6.91942e-07
6.94973e-07
6.97294e-07
6.99005e-07
7.00081e-07
7.00601e-07
4.53433e-10
4.12823e-10
3.70179e-10
3.46814e-10
3.34389e-10
3.21476e-10
3.04396e-10
2.81822e-10
2.6071e-10
2.47681e-10
2.45358e-10
2.44295e-10
2.5158e-10
2.61912e-10
2.73615e-10
2.87674e-10
3.01107e-10
3.12512e-10
3.22162e-10
3.28942e-10
3.33256e-10
3.35334e-10
3.3622e-10
3.36819e-10
3.36495e-10
3.34849e-10
3.31408e-10
3.25807e-10
3.17074e-10
3.06047e-10
2.92671e-10
2.77615e-10
2.62027e-10
2.50643e-10
2.45548e-10
2.47309e-10
2.58035e-10
2.73352e-10
2.89843e-10
3.0552e-10
3.18914e-10
3.29867e-10
3.39481e-10
3.50779e-10
3.64684e-10
3.79992e-10
3.95472e-10
4.10308e-10
4.23492e-10
4.34384e-10
4.43116e-10
4.49888e-10
4.53637e-10
4.52079e-10
4.41258e-10
4.31893e-10
4.23969e-10
4.16596e-10
4.10575e-10
4.06164e-10
4.03123e-10
4.0156e-10
4.01859e-10
4.03466e-10
4.04833e-10
4.09818e-10
4.19285e-10
4.2871e-10
4.34577e-10
4.36306e-10
4.37202e-10
4.39307e-10
4.40363e-10
4.42812e-10
4.52636e-10
4.62263e-10
4.73039e-10
4.82861e-10
4.87191e-10
4.85903e-10
4.87179e-10
4.88082e-10
4.95443e-10
5.09374e-10
5.23663e-10
5.35216e-10
5.38862e-10
5.31063e-10
5.13761e-10
4.93592e-10
4.80669e-10
4.74015e-10
4.71576e-10
4.66412e-10
4.54674e-10
4.3335e-10
4.03173e-10
3.73184e-10
3.53263e-10
3.41605e-10
3.35173e-10
3.28968e-10
3.19011e-10
3.04117e-10
2.88954e-10
2.80829e-10
2.82157e-10
2.94056e-10
3.10765e-10
3.2457e-10
3.3471e-10
3.44272e-10
3.55864e-10
3.7259e-10
3.93316e-10
4.1353e-10
4.31477e-10
4.47722e-10
4.63532e-10
4.79659e-10
4.95933e-10
5.12013e-10
5.27953e-10
5.439e-10
5.60095e-10
5.76308e-10
5.92261e-10
6.08023e-10
6.24176e-10
6.40728e-10
6.5588e-10
6.66082e-10
6.70508e-10
6.68185e-10
6.61415e-10
6.52868e-10
6.43117e-10
6.30839e-10
6.14228e-10
5.92865e-10
5.67429e-10
5.39342e-10
5.09985e-10
4.79994e-10
4.50034e-10
4.20927e-10
3.93398e-10
3.67788e-10
3.44093e-10
3.22115e-10
3.02085e-10
2.85165e-10
2.73285e-10
2.68212e-10
2.70475e-10
2.78584e-10
4.47306e-09
4.07737e-09
3.65578e-09
3.38038e-09
3.22426e-09
3.08862e-09
2.93539e-09
2.7446e-09
2.5657e-09
2.44074e-09
2.41407e-09
2.40106e-09
2.45129e-09
2.52596e-09
2.61094e-09
2.71178e-09
2.81061e-09
2.89153e-09
2.9565e-09
2.99788e-09
3.01876e-09
3.02221e-09
3.0167e-09
3.01444e-09
3.01205e-09
3.00993e-09
3.00545e-09
2.99592e-09
2.97367e-09
2.94127e-09
2.89526e-09
2.83582e-09
2.7655e-09
2.72268e-09
2.72354e-09
2.78081e-09
2.91389e-09
3.10046e-09
3.31488e-09
3.53975e-09
3.76261e-09
3.97949e-09
4.19333e-09
4.43385e-09
4.70076e-09
4.97024e-09
5.22244e-09
5.44279e-09
5.62162e-09
5.75611e-09
5.85178e-09
5.91379e-09
5.93708e-09
5.88425e-09
5.73298e-09
5.59865e-09
5.47929e-09
5.37096e-09
5.28305e-09
5.21823e-09
5.17389e-09
5.14786e-09
5.13747e-09
5.13562e-09
5.13213e-09
5.16092e-09
5.2339e-09
5.30174e-09
5.33401e-09
5.32691e-09
5.28651e-09
5.2554e-09
5.20586e-09
5.18498e-09
5.21478e-09
5.25694e-09
5.30686e-09
5.34793e-09
5.34066e-09
5.26874e-09
5.21678e-09
5.1799e-09
5.20111e-09
5.28941e-09
5.38148e-09
5.45008e-09
5.44668e-09
5.33661e-09
5.13759e-09
4.91649e-09
4.78192e-09
4.71591e-09
4.69845e-09
4.66384e-09
4.58034e-09
4.41866e-09
4.17634e-09
3.91819e-09
3.76376e-09
3.6943e-09
3.6748e-09
3.66808e-09
3.61881e-09
3.51452e-09
3.38498e-09
3.31321e-09
3.31919e-09
3.41177e-09
3.56643e-09
3.72025e-09
3.84462e-09
3.97082e-09
4.12856e-09
4.34545e-09
4.60326e-09
4.85113e-09
5.07108e-09
5.26957e-09
5.46051e-09
5.64987e-09
5.83296e-09
6.0034e-09
6.15987e-09
6.30373e-09
6.43385e-09
6.54687e-09
6.63954e-09
6.71381e-09
6.7785e-09
6.83865e-09
6.88464e-09
6.89647e-09
6.85369e-09
6.75954e-09
6.63549e-09
6.51072e-09
6.38741e-09
6.25443e-09
6.09382e-09
5.89949e-09
5.67476e-09
5.43178e-09
5.18727e-09
4.95126e-09
4.73149e-09
4.52841e-09
4.3459e-09
4.18575e-09
4.04604e-09
3.92251e-09
3.81354e-09
3.7249e-09
3.6703e-09
3.66102e-09
3.70142e-09
3.78734e-09
1.35812e-08
1.24476e-08
1.11804e-08
1.01615e-08
9.52924e-09
9.1011e-09
8.76011e-09
8.45008e-09
8.20398e-09
8.03123e-09
8.01883e-09
8.02726e-09
8.21392e-09
8.44862e-09
8.69908e-09
8.98598e-09
9.23292e-09
9.43319e-09
9.59105e-09
9.68486e-09
9.72313e-09
9.71157e-09
9.66827e-09
9.62622e-09
9.58175e-09
9.53667e-09
9.48463e-09
9.41794e-09
9.31453e-09
9.18342e-09
9.0155e-09
8.81213e-09
8.58253e-09
8.43535e-09
8.41228e-09
8.52409e-09
8.83113e-09
9.29935e-09
9.86841e-09
1.05006e-08
1.11768e-08
1.18993e-08
1.26743e-08
1.3545e-08
1.44929e-08
1.54357e-08
1.62932e-08
1.70047e-08
1.75576e-08
1.79636e-08
1.82456e-08
1.84247e-08
1.85039e-08
1.842e-08
1.81172e-08
1.78424e-08
1.75934e-08
1.73642e-08
1.71773e-08
1.70401e-08
1.69468e-08
1.68913e-08
1.68679e-08
1.68579e-08
1.68452e-08
1.68969e-08
1.7046e-08
1.71885e-08
1.72548e-08
1.7238e-08
1.71403e-08
1.70589e-08
1.69275e-08
1.68656e-08
1.69134e-08
1.699e-08
1.7082e-08
1.71571e-08
1.71209e-08
1.694e-08
1.67926e-08
1.66796e-08
1.67035e-08
1.68757e-08
1.70506e-08
1.71755e-08
1.71432e-08
1.68771e-08
1.64033e-08
1.58388e-08
1.54596e-08
1.52571e-08
1.51789e-08
1.50566e-08
1.4799e-08
1.43278e-08
1.36307e-08
1.28667e-08
1.23652e-08
1.2097e-08
1.19716e-08
1.18431e-08
1.16172e-08
1.12359e-08
1.07775e-08
1.04934e-08
1.04383e-08
1.05916e-08
1.09174e-08
1.12919e-08
1.16517e-08
1.20532e-08
1.25563e-08
1.32121e-08
1.39573e-08
1.4681e-08
1.53442e-08
1.596e-08
1.6561e-08
1.71482e-08
1.77052e-08
1.8215e-08
1.86719e-08
1.90776e-08
1.94296e-08
1.97216e-08
1.99485e-08
2.0114e-08
2.02357e-08
2.03279e-08
2.03855e-08
2.03772e-08
2.0278e-08
2.00915e-08
1.98527e-08
1.9608e-08
1.93676e-08
1.90986e-08
1.87676e-08
1.8358e-08
1.78678e-08
1.73126e-08
1.67167e-08
1.60986e-08
1.54762e-08
1.48779e-08
1.43229e-08
1.38173e-08
1.33567e-08
1.29297e-08
1.25326e-08
1.21849e-08
1.19282e-08
1.18015e-08
1.18127e-08
1.1955e-08
2.40762e-08
2.25216e-08
2.07737e-08
1.92737e-08
1.82257e-08
1.73996e-08
1.67423e-08
1.63627e-08
1.62346e-08
1.62059e-08
1.63691e-08
1.65657e-08
1.69901e-08
1.74252e-08
1.78056e-08
1.82235e-08
1.85736e-08
1.88449e-08
1.90534e-08
1.91736e-08
1.9223e-08
1.92088e-08
1.91517e-08
1.90858e-08
1.9011e-08
1.89291e-08
1.88324e-08
1.8712e-08
1.85335e-08
1.83106e-08
1.80262e-08
1.76791e-08
1.72727e-08
1.69798e-08
1.68975e-08
1.70438e-08
1.75285e-08
1.82891e-08
1.91978e-08
2.01669e-08
2.11482e-08
2.21426e-08
2.31473e-08
2.41884e-08
2.52067e-08
2.61078e-08
2.68549e-08
2.74572e-08
2.79178e-08
2.82485e-08
2.84715e-08
2.8613e-08
2.86714e-08
2.86014e-08
2.8341e-08
2.81064e-08
2.78932e-08
2.76926e-08
2.75271e-08
2.74081e-08
2.73322e-08
2.72919e-08
2.72782e-08
2.72813e-08
2.72775e-08
2.73263e-08
2.74591e-08
2.75809e-08
2.7639e-08
2.76282e-08
2.75477e-08
2.7469e-08
2.73563e-08
2.73008e-08
2.73403e-08
2.74015e-08
2.74765e-08
2.75359e-08
2.7501e-08
2.73415e-08
2.7211e-08
2.7115e-08
2.71455e-08
2.73043e-08
2.74577e-08
2.75651e-08
2.75325e-08
2.72968e-08
2.68797e-08
2.63731e-08
2.6025e-08
2.58401e-08
2.57694e-08
2.56547e-08
2.54206e-08
2.49798e-08
2.43064e-08
2.35154e-08
2.29659e-08
2.26746e-08
2.25356e-08
2.23922e-08
2.21357e-08
2.16828e-08
2.10821e-08
2.06459e-08
2.05198e-08
2.06829e-08
2.1114e-08
2.16442e-08
2.21452e-08
2.26855e-08
2.333e-08
2.41243e-08
2.49631e-08
2.57077e-08
2.63439e-08
2.69e-08
2.74062e-08
2.78834e-08
2.8326e-08
2.87227e-08
2.90738e-08
2.93842e-08
2.96531e-08
2.98726e-08
3.0038e-08
3.01557e-08
3.02406e-08
3.03057e-08
3.03462e-08
3.03399e-08
3.02621e-08
3.0117e-08
2.99328e-08
2.97466e-08
2.95642e-08
2.936e-08
2.91051e-08
2.87865e-08
2.84005e-08
2.79554e-08
2.74685e-08
2.69558e-08
2.64316e-08
2.59145e-08
2.54198e-08
2.49541e-08
2.45146e-08
2.40891e-08
2.36735e-08
2.32979e-08
2.30213e-08
2.28915e-08
2.291e-08
2.30737e-08
3.38174e-08
3.17136e-08
2.92212e-08
2.70786e-08
2.56555e-08
2.46454e-08
2.38998e-08
2.34023e-08
2.32514e-08
2.32846e-08
2.35666e-08
2.39291e-08
2.45173e-08
2.50418e-08
2.54394e-08
2.58493e-08
2.61847e-08
2.64286e-08
2.66051e-08
2.67072e-08
2.67558e-08
2.67567e-08
2.67259e-08
2.66873e-08
2.6641e-08
2.65839e-08
2.65189e-08
2.64369e-08
2.63132e-08
2.61554e-08
2.59528e-08
2.57118e-08
2.54317e-08
2.52463e-08
2.52205e-08
2.53732e-08
2.57822e-08
2.63849e-08
2.70768e-08
2.77924e-08
2.85045e-08
2.92292e-08
2.99604e-08
3.07063e-08
3.1426e-08
3.20672e-08
3.26036e-08
3.30277e-08
3.3354e-08
3.36043e-08
3.37835e-08
3.38861e-08
3.39184e-08
3.38676e-08
3.3688e-08
3.35292e-08
3.33879e-08
3.32615e-08
3.31638e-08
3.30946e-08
3.30495e-08
3.30245e-08
3.30175e-08
3.30244e-08
3.30258e-08
3.30643e-08
3.31545e-08
3.32436e-08
3.32864e-08
3.32816e-08
3.32315e-08
3.31821e-08
3.31037e-08
3.30605e-08
3.30812e-08
3.31136e-08
3.31586e-08
3.31938e-08
3.31719e-08
3.30711e-08
3.299e-08
3.29315e-08
3.29558e-08
3.30582e-08
3.31542e-08
3.32225e-08
3.32039e-08
3.30514e-08
3.27884e-08
3.24742e-08
3.22531e-08
3.21408e-08
3.20986e-08
3.20306e-08
3.18848e-08
3.16026e-08
3.1169e-08
3.06374e-08
3.02678e-08
3.00705e-08
2.99768e-08
2.98759e-08
2.96947e-08
2.93796e-08
2.89645e-08
2.86536e-08
2.85559e-08
2.86731e-08
2.89918e-08
2.93828e-08
2.97219e-08
3.00717e-08
3.04839e-08
3.09814e-08
3.15032e-08
3.19822e-08
3.24009e-08
3.27692e-08
3.31096e-08
3.34334e-08
3.37357e-08
3.40083e-08
3.42465e-08
3.44527e-08
3.46281e-08
3.47681e-08
3.48706e-08
3.49442e-08
3.49985e-08
3.50355e-08
3.50488e-08
3.50419e-08
3.49873e-08
3.48961e-08
3.47853e-08
3.46763e-08
3.45672e-08
3.44471e-08
3.42943e-08
3.41051e-08
3.38785e-08
3.36176e-08
3.33325e-08
3.30319e-08
3.27263e-08
3.24279e-08
3.21471e-08
3.18858e-08
3.16389e-08
3.13974e-08
3.11573e-08
3.09305e-08
3.07487e-08
3.06492e-08
3.0651e-08
3.07545e-08
5.51329e-08
5.10078e-08
4.47858e-08
3.90783e-08
3.55994e-08
3.32846e-08
3.15046e-08
3.01735e-08
2.94533e-08
2.91018e-08
2.91588e-08
2.9315e-08
2.97553e-08
3.01659e-08
3.05304e-08
3.08192e-08
3.10131e-08
3.11743e-08
3.13152e-08
3.14039e-08
3.14511e-08
3.14593e-08
3.14464e-08
3.14318e-08
3.14163e-08
3.13973e-08
3.13704e-08
3.13362e-08
3.12665e-08
3.11849e-08
3.10759e-08
3.09444e-08
3.07857e-08
3.06817e-08
3.06726e-08
3.07739e-08
3.10403e-08
3.14307e-08
3.18786e-08
3.23521e-08
3.28209e-08
3.3292e-08
3.37618e-08
3.42334e-08
3.46852e-08
3.50888e-08
3.54249e-08
3.56953e-08
3.58944e-08
3.6021e-08
3.60917e-08
3.61448e-08
3.61626e-08
3.61224e-08
3.60131e-08
3.59246e-08
3.58459e-08
3.57625e-08
3.56973e-08
3.56567e-08
3.56333e-08
3.56188e-08
3.56119e-08
3.56112e-08
3.56049e-08
3.56306e-08
3.56929e-08
3.574e-08
3.57586e-08
3.57473e-08
3.57151e-08
3.56872e-08
3.56413e-08
3.56134e-08
3.56318e-08
3.56485e-08
3.5676e-08
3.56984e-08
3.5687e-08
3.5624e-08
3.55793e-08
3.55413e-08
3.55513e-08
3.56116e-08
3.56672e-08
3.57028e-08
3.56846e-08
3.55976e-08
3.54518e-08
3.52774e-08
3.51681e-08
3.51215e-08
3.51188e-08
3.51047e-08
3.50409e-08
3.48988e-08
3.46784e-08
3.4415e-08
3.42305e-08
3.41379e-08
3.41054e-08
3.40749e-08
3.3998e-08
3.38396e-08
3.3627e-08
3.34859e-08
3.34495e-08
3.34954e-08
3.36059e-08
3.37389e-08
3.38987e-08
3.40969e-08
3.43357e-08
3.4621e-08
3.49244e-08
3.51967e-08
3.5435e-08
3.56435e-08
3.58343e-08
3.60159e-08
3.61831e-08
3.63358e-08
3.64731e-08
3.65944e-08
3.67007e-08
3.67823e-08
3.68366e-08
3.6877e-08
3.69131e-08
3.69375e-08
3.69413e-08
3.69389e-08
3.68986e-08
3.68396e-08
3.67695e-08
3.67036e-08
3.66365e-08
3.6564e-08
3.64709e-08
3.63609e-08
3.62343e-08
3.60896e-08
3.59393e-08
3.57831e-08
3.56306e-08
3.5487e-08
3.53525e-08
3.52372e-08
3.51323e-08
3.50306e-08
3.49301e-08
3.48368e-08
3.47691e-08
3.4742e-08
3.4751e-08
3.47981e-08
1.13013e-07
9.70186e-08
7.52819e-08
5.77337e-08
4.83119e-08
4.31127e-08
3.97686e-08
3.72441e-08
3.541e-08
3.40244e-08
3.34554e-08
3.31234e-08
3.31949e-08
3.33576e-08
3.35464e-08
3.37494e-08
3.38865e-08
3.3984e-08
3.40629e-08
3.4123e-08
3.41696e-08
3.41946e-08
3.41999e-08
3.42035e-08
3.41959e-08
3.42059e-08
3.41996e-08
3.41786e-08
3.41368e-08
3.40999e-08
3.40511e-08
3.40033e-08
3.39495e-08
3.39327e-08
3.39591e-08
3.40365e-08
3.41824e-08
3.4377e-08
3.45919e-08
3.48265e-08
3.50742e-08
3.53291e-08
3.55843e-08
3.5845e-08
3.61123e-08
3.63574e-08
3.65626e-08
3.67299e-08
3.68715e-08
3.69991e-08
3.71e-08
3.7158e-08
3.71799e-08
3.71408e-08
3.70608e-08
3.69926e-08
3.6935e-08
3.68798e-08
3.68393e-08
3.68154e-08
3.68016e-08
3.67928e-08
3.6792e-08
3.67948e-08
3.67935e-08
3.68169e-08
3.68656e-08
3.69027e-08
3.6916e-08
3.68993e-08
3.68819e-08
3.68763e-08
3.6843e-08
3.68272e-08
3.68489e-08
3.68585e-08
3.6872e-08
3.68828e-08
3.68619e-08
3.68151e-08
3.68081e-08
3.67811e-08
3.67854e-08
3.68284e-08
3.68714e-08
3.68925e-08
3.68764e-08
3.68117e-08
3.67254e-08
3.66235e-08
3.65541e-08
3.65111e-08
3.64908e-08
3.64669e-08
3.64283e-08
3.63495e-08
3.62464e-08
3.61321e-08
3.60611e-08
3.60268e-08
3.60062e-08
3.59791e-08
3.59356e-08
3.58768e-08
3.58014e-08
3.5729e-08
3.56957e-08
3.5719e-08
3.5791e-08
3.58723e-08
3.59558e-08
3.60571e-08
3.61747e-08
3.63144e-08
3.64614e-08
3.65953e-08
3.66973e-08
3.67948e-08
3.69041e-08
3.70057e-08
3.71071e-08
3.72071e-08
3.72952e-08
3.73736e-08
3.74406e-08
3.74931e-08
3.75297e-08
3.75605e-08
3.75911e-08
3.7613e-08
3.76233e-08
3.76259e-08
3.76027e-08
3.75701e-08
3.75285e-08
3.74886e-08
3.74486e-08
3.74045e-08
3.73497e-08
3.7285e-08
3.72139e-08
3.71343e-08
3.70604e-08
3.69856e-08
3.69207e-08
3.68697e-08
3.68195e-08
3.67833e-08
3.67519e-08
3.67234e-08
3.66922e-08
3.66692e-08
3.6657e-08
3.66527e-08
3.66599e-08
3.6677e-08
3.17807e-07
2.57146e-07
1.80271e-07
1.15906e-07
8.18607e-08
6.49646e-08
5.56821e-08
4.90253e-08
4.38597e-08
3.9932e-08
3.77348e-08
3.61803e-08
3.57221e-08
3.54791e-08
3.54502e-08
3.54834e-08
3.55277e-08
3.55611e-08
3.55915e-08
3.5613e-08
3.56408e-08
3.56715e-08
3.56924e-08
3.57102e-08
3.57435e-08
3.57517e-08
3.57707e-08
3.57888e-08
3.57943e-08
3.58024e-08
3.58017e-08
3.58142e-08
3.58253e-08
3.58447e-08
3.58787e-08
3.59198e-08
3.59783e-08
3.60504e-08
3.6125e-08
3.62095e-08
3.6305e-08
3.64149e-08
3.65436e-08
3.6697e-08
3.68534e-08
3.69948e-08
3.71215e-08
3.72331e-08
3.73227e-08
3.73829e-08
3.74126e-08
3.74359e-08
3.74482e-08
3.74552e-08
3.74107e-08
3.73683e-08
3.73249e-08
3.72809e-08
3.72404e-08
3.72169e-08
3.72041e-08
3.7199e-08
3.72054e-08
3.72151e-08
3.72144e-08
3.72254e-08
3.72574e-08
3.72804e-08
3.72904e-08
3.72784e-08
3.72696e-08
3.72751e-08
3.72509e-08
3.72448e-08
3.72655e-08
3.72705e-08
3.72807e-08
3.72913e-08
3.72619e-08
3.72331e-08
3.72522e-08
3.7247e-08
3.72552e-08
3.72807e-08
3.73148e-08
3.7325e-08
3.73294e-08
3.72619e-08
3.72161e-08
3.71963e-08
3.71482e-08
3.71491e-08
3.7167e-08
3.71677e-08
3.71517e-08
3.71135e-08
3.70768e-08
3.70595e-08
3.70538e-08
3.70548e-08
3.70646e-08
3.70844e-08
3.70988e-08
3.71079e-08
3.7113e-08
3.71157e-08
3.71205e-08
3.71184e-08
3.71111e-08
3.71141e-08
3.71268e-08
3.71462e-08
3.71703e-08
3.71997e-08
3.72364e-08
3.72766e-08
3.73251e-08
3.73751e-08
3.74214e-08
3.74756e-08
3.75354e-08
3.75955e-08
3.76534e-08
3.77055e-08
3.77514e-08
3.77873e-08
3.78135e-08
3.7835e-08
3.78542e-08
3.78684e-08
3.7876e-08
3.78741e-08
3.7855e-08
3.78288e-08
3.77981e-08
3.77689e-08
3.774e-08
3.77078e-08
3.76703e-08
3.76272e-08
3.75849e-08
3.75429e-08
3.75079e-08
3.74756e-08
3.74577e-08
3.74585e-08
3.74665e-08
3.74835e-08
3.75066e-08
3.75334e-08
3.75628e-08
3.75935e-08
3.76221e-08
3.76418e-08
3.76486e-08
3.76445e-08
7.78042e-07
6.63005e-07
4.54221e-07
2.55283e-07
1.47385e-07
1.01668e-07
8.09499e-08
6.75334e-08
5.69344e-08
4.85356e-08
4.33415e-08
3.96992e-08
3.81019e-08
3.70728e-08
3.65847e-08
3.64047e-08
3.63543e-08
3.63606e-08
3.63888e-08
3.64078e-08
3.64285e-08
3.6452e-08
3.64777e-08
3.65051e-08
3.65253e-08
3.65512e-08
3.6577e-08
3.66059e-08
3.66277e-08
3.66669e-08
3.67163e-08
3.6788e-08
3.68588e-08
3.69294e-08
3.69904e-08
3.70209e-08
3.7028e-08
3.70027e-08
3.69507e-08
3.69218e-08
3.69077e-08
3.69179e-08
3.69547e-08
3.70042e-08
3.70785e-08
3.71671e-08
3.72551e-08
3.73356e-08
3.74157e-08
3.74916e-08
3.7538e-08
3.75579e-08
3.75717e-08
3.75664e-08
3.75143e-08
3.74745e-08
3.745e-08
3.74158e-08
3.73984e-08
3.73908e-08
3.73884e-08
3.73788e-08
3.73807e-08
3.73718e-08
3.73744e-08
3.74102e-08
3.74422e-08
3.74697e-08
3.74841e-08
3.74817e-08
3.74764e-08
3.74757e-08
3.74516e-08
3.74413e-08
3.74404e-08
3.74342e-08
3.74391e-08
3.7452e-08
3.74593e-08
3.74313e-08
3.74258e-08
3.74187e-08
3.74372e-08
3.74616e-08
3.74879e-08
3.74916e-08
3.74834e-08
3.74675e-08
3.74242e-08
3.73869e-08
3.73847e-08
3.73863e-08
3.74065e-08
3.74184e-08
3.74218e-08
3.74253e-08
3.74328e-08
3.74533e-08
3.74794e-08
3.75039e-08
3.75244e-08
3.75492e-08
3.7585e-08
3.76412e-08
3.77074e-08
3.77592e-08
3.77792e-08
3.77628e-08
3.77138e-08
3.76722e-08
3.76262e-08
3.75731e-08
3.75294e-08
3.74863e-08
3.74613e-08
3.74576e-08
3.74768e-08
3.7501e-08
3.7524e-08
3.75616e-08
3.76105e-08
3.76619e-08
3.77131e-08
3.77605e-08
3.78005e-08
3.78348e-08
3.78641e-08
3.78895e-08
3.79121e-08
3.793e-08
3.79416e-08
3.79413e-08
3.79266e-08
3.79042e-08
3.78796e-08
3.78544e-08
3.78291e-08
3.78037e-08
3.77736e-08
3.77393e-08
3.7707e-08
3.76813e-08
3.76645e-08
3.76573e-08
3.7661e-08
3.76795e-08
3.77106e-08
3.77507e-08
3.7797e-08
3.78483e-08
3.79057e-08
3.79669e-08
3.8023e-08
3.80612e-08
3.80736e-08
3.80611e-08
1.06244e-06
9.94624e-07
7.8168e-07
4.79243e-07
2.49768e-07
1.5183e-07
1.157e-07
9.51545e-08
7.73274e-08
6.18723e-08
5.11214e-08
4.40625e-08
4.04225e-08
3.84605e-08
3.75286e-08
3.71143e-08
3.69083e-08
3.681e-08
3.67901e-08
3.68039e-08
3.6831e-08
3.68484e-08
3.68779e-08
3.69182e-08
3.69369e-08
3.69733e-08
3.70061e-08
3.70313e-08
3.70668e-08
3.71209e-08
3.71889e-08
3.7289e-08
3.74121e-08
3.75256e-08
3.7587e-08
3.75866e-08
3.75352e-08
3.74336e-08
3.73099e-08
3.72162e-08
3.71464e-08
3.71072e-08
3.7092e-08
3.71026e-08
3.71528e-08
3.72254e-08
3.73046e-08
3.73846e-08
3.7453e-08
3.75003e-08
3.75369e-08
3.75712e-08
3.7586e-08
3.75643e-08
3.75382e-08
3.75163e-08
3.74846e-08
3.74439e-08
3.74203e-08
3.74089e-08
3.74042e-08
3.74038e-08
3.73976e-08
3.74055e-08
3.74152e-08
3.74309e-08
3.74488e-08
3.74655e-08
3.74746e-08
3.74699e-08
3.74649e-08
3.74696e-08
3.7447e-08
3.74417e-08
3.7451e-08
3.74526e-08
3.7456e-08
3.74578e-08
3.74678e-08
3.74428e-08
3.74701e-08
3.74418e-08
3.74481e-08
3.74642e-08
3.74966e-08
3.75113e-08
3.74908e-08
3.74828e-08
3.74579e-08
3.74341e-08
3.74433e-08
3.74509e-08
3.74667e-08
3.74814e-08
3.75026e-08
3.75299e-08
3.75641e-08
3.76212e-08
3.76826e-08
3.77257e-08
3.77559e-08
3.77896e-08
3.78341e-08
3.79042e-08
3.79962e-08
3.80578e-08
3.80709e-08
3.80498e-08
3.79912e-08
3.7912e-08
3.7836e-08
3.77726e-08
3.77013e-08
3.76381e-08
3.7601e-08
3.75859e-08
3.75919e-08
3.76014e-08
3.76237e-08
3.76551e-08
3.76968e-08
3.7744e-08
3.77899e-08
3.78319e-08
3.78678e-08
3.78979e-08
3.79237e-08
3.7943e-08
3.7959e-08
3.79711e-08
3.79768e-08
3.79738e-08
3.79583e-08
3.79369e-08
3.79124e-08
3.78882e-08
3.78645e-08
3.78401e-08
3.78117e-08
3.77821e-08
3.77539e-08
3.77332e-08
3.77236e-08
3.77263e-08
3.77418e-08
3.77723e-08
3.78172e-08
3.78723e-08
3.79326e-08
3.79939e-08
3.80569e-08
3.81193e-08
3.81742e-08
3.82095e-08
3.82193e-08
3.82049e-08
9.04223e-07
9.77583e-07
8.59758e-07
5.75821e-07
3.07896e-07
1.81322e-07
1.36799e-07
1.14151e-07
9.32231e-08
7.31473e-08
5.80967e-08
4.79066e-08
4.24288e-08
3.94466e-08
3.8014e-08
3.73944e-08
3.71501e-08
3.70627e-08
3.70244e-08
3.69765e-08
3.69836e-08
3.7035e-08
3.70814e-08
3.71217e-08
3.71626e-08
3.719e-08
3.72174e-08
3.72578e-08
3.72995e-08
3.73567e-08
3.74282e-08
3.75271e-08
3.76397e-08
3.77393e-08
3.77914e-08
3.77827e-08
3.77235e-08
3.76119e-08
3.7475e-08
3.73647e-08
3.72693e-08
3.72071e-08
3.71798e-08
3.71866e-08
3.72261e-08
3.72907e-08
3.73682e-08
3.74454e-08
3.75128e-08
3.75718e-08
3.76131e-08
3.76294e-08
3.76254e-08
3.76289e-08
3.75829e-08
3.75411e-08
3.75036e-08
3.7476e-08
3.74552e-08
3.74415e-08
3.74335e-08
3.74282e-08
3.74364e-08
3.74522e-08
3.7461e-08
3.74766e-08
3.75011e-08
3.75252e-08
3.75371e-08
3.75304e-08
3.75227e-08
3.75213e-08
3.75097e-08
3.75036e-08
3.7514e-08
3.75069e-08
3.75084e-08
3.75311e-08
3.75076e-08
3.74958e-08
3.75166e-08
3.75004e-08
3.75148e-08
3.75365e-08
3.75424e-08
3.7572e-08
3.75656e-08
3.75337e-08
3.75251e-08
3.75096e-08
3.74908e-08
3.74897e-08
3.74979e-08
3.75039e-08
3.75114e-08
3.75321e-08
3.75803e-08
3.76552e-08
3.77254e-08
3.77792e-08
3.78187e-08
3.78628e-08
3.79275e-08
3.80236e-08
3.81399e-08
3.82188e-08
3.82404e-08
3.82062e-08
3.81163e-08
3.80196e-08
3.79315e-08
3.78565e-08
3.77809e-08
3.77093e-08
3.76586e-08
3.76322e-08
3.76215e-08
3.76223e-08
3.76366e-08
3.76573e-08
3.7689e-08
3.77295e-08
3.77716e-08
3.78087e-08
3.78394e-08
3.78672e-08
3.78941e-08
3.79178e-08
3.79381e-08
3.79541e-08
3.79646e-08
3.79632e-08
3.79493e-08
3.79293e-08
3.79077e-08
3.78859e-08
3.78635e-08
3.78396e-08
3.78135e-08
3.77863e-08
3.77608e-08
3.77418e-08
3.77357e-08
3.77436e-08
3.77654e-08
3.78028e-08
3.78537e-08
3.79147e-08
3.79834e-08
3.8057e-08
3.81332e-08
3.82058e-08
3.82674e-08
3.83073e-08
3.83183e-08
3.83005e-08
4.27923e-07
5.26362e-07
5.63638e-07
4.84448e-07
3.11769e-07
1.90501e-07
1.4413e-07
1.21375e-07
1.00422e-07
7.9248e-08
6.19973e-08
5.01891e-08
4.36472e-08
4.01075e-08
3.84229e-08
3.76592e-08
3.72723e-08
3.70987e-08
3.70436e-08
3.70561e-08
3.70865e-08
3.71177e-08
3.71578e-08
3.72101e-08
3.72498e-08
3.72964e-08
3.73184e-08
3.73714e-08
3.74163e-08
3.74835e-08
3.75742e-08
3.77012e-08
3.78438e-08
3.79675e-08
3.80408e-08
3.80407e-08
3.79626e-08
3.7799e-08
3.7609e-08
3.74604e-08
3.73382e-08
3.7254e-08
3.72086e-08
3.72048e-08
3.72361e-08
3.72857e-08
3.73487e-08
3.74166e-08