/*--------------------------------*- C++ -*----------------------------------*\
| =========                 |                                                 |
| \\      /  F ield         | OpenFOAM: The Open Source CFD Toolbox           |
|  \\    /   O peration     | Version:  v1912                                 |
|   \\  /    A nd           | Website:  www.openfoam.com                      |
|    \\/     M anipulation  |                                                 |
\*---------------------------------------------------------------------------*/
FoamFile
{
    version     2.0;
    format      ascii;
    class       volSymmTensorField;
    location    "100";
    object      R;
}
// * * * * * * * * * * * * * * * * * * * * * * * * * * * * * * * * * * * * * //

dimensions      [0 2 -2 0 0 0 0];


internalField   nonuniform List<symmTensor> 
14268
(
(3.24203e-10 -1.13203e-11 0 4.07804e-10 0 3.65763e-10)
(3.12991e-10 -8.93843e-12 0 3.89009e-10 0 3.50654e-10)
(3.043e-10 -8.34032e-12 0 3.73816e-10 0 3.38808e-10)
(2.99012e-10 -7.91964e-12 0 3.64648e-10 0 3.31745e-10)
(2.97855e-10 -6.89044e-12 0 3.6084e-10 0 3.28933e-10)
(2.96649e-10 -7.63257e-12 0 3.60785e-10 0 3.28893e-10)
(3.08797e-10 -5.3894e-12 0 3.80843e-10 0 3.44239e-10)
(3.02787e-10 2.24962e-12 0 3.6849e-10 0 3.35329e-10)
(3.2491e-09 -1.04201e-10 0 4.20455e-09 0 3.72496e-09)
(3.13796e-09 -7.80571e-11 0 3.99229e-09 0 3.56144e-09)
(3.04868e-09 -7.35186e-11 0 3.8148e-09 0 3.42909e-09)
(2.98376e-09 -7.3675e-11 0 3.6954e-09 0 3.33957e-09)
(2.94991e-09 -5.74182e-11 0 3.62321e-09 0 3.28256e-09)
(2.90372e-09 -5.88598e-11 0 3.58525e-09 0 3.24586e-09)
(2.95018e-09 -1.58943e-11 0 3.69745e-09 0 3.31818e-09)
(2.90989e-09 7.97678e-11 0 3.61384e-09 0 3.24794e-09)
(9.94743e-09 -4.58885e-11 0 1.28604e-08 0 1.13824e-08)
(9.73584e-09 -3.51987e-12 0 1.23209e-08 0 1.10043e-08)
(9.54837e-09 -1.58216e-11 0 1.18231e-08 0 1.06665e-08)
(9.36452e-09 -4.84391e-11 0 1.14665e-08 0 1.0413e-08)
(9.22769e-09 1.24315e-12 0 1.12429e-08 0 1.02086e-08)
(9.0416e-09 4.28198e-11 0 1.10285e-08 0 1.00368e-08)
(9.05237e-09 2.15162e-10 0 1.12478e-08 0 1.01027e-08)
(8.89523e-09 4.86779e-10 0 1.07753e-08 0 9.8321e-09)
(1.54806e-08 -9.10258e-11 0 1.99152e-08 0 1.76615e-08)
(1.53353e-08 -1.87867e-11 0 1.93048e-08 0 1.72719e-08)
(1.52241e-08 -2.85902e-11 0 1.86931e-08 0 1.69178e-08)
(1.50543e-08 -6.36827e-11 0 1.83227e-08 0 1.6646e-08)
(1.49592e-08 4.29308e-11 0 1.81083e-08 0 1.64746e-08)
(1.48132e-08 1.41287e-10 0 1.79505e-08 0 1.63494e-08)
(1.50934e-08 7.11549e-10 0 1.83225e-08 0 1.66691e-08)
(1.53981e-08 1.23889e-09 0 1.84596e-08 0 1.68091e-08)
(1.89017e-08 3.67171e-10 0 2.40475e-08 0 2.14856e-08)
(1.89107e-08 4.10694e-10 0 2.35875e-08 0 2.12464e-08)
(1.90327e-08 4.56113e-10 0 2.31124e-08 0 2.10751e-08)
(1.91328e-08 5.54232e-10 0 2.29058e-08 0 2.10478e-08)
(1.94429e-08 8.58709e-10 0 2.30628e-08 0 2.12512e-08)
(1.99056e-08 1.41243e-09 0 2.3149e-08 0 2.1605e-08)
(2.14396e-08 2.48007e-09 0 2.44362e-08 0 2.28319e-08)
(2.28286e-08 4.1019e-09 0 2.48238e-08 0 2.37327e-08)
(2.17799e-08 2.10759e-09 0 2.72191e-08 0 2.4438e-08)
(2.20291e-08 2.21635e-09 0 2.70047e-08 0 2.44614e-08)
(2.25605e-08 2.4685e-09 0 2.6749e-08 0 2.45963e-08)
(2.33272e-08 2.97343e-09 0 2.68823e-08 0 2.5025e-08)
(2.46873e-08 3.89877e-09 0 2.75674e-08 0 2.59858e-08)
(2.72486e-08 5.66463e-09 0 2.85951e-08 0 2.77245e-08)
(3.37947e-08 9.36081e-09 0 3.06665e-08 0 3.20102e-08)
(4.10306e-08 1.35359e-08 0 3.41334e-08 0 3.70324e-08)
(2.6581e-08 7.29439e-09 0 3.00277e-08 0 2.8211e-08)
(2.77221e-08 7.86784e-09 0 3.0109e-08 0 2.87952e-08)
(2.9449e-08 8.70147e-09 0 3.04301e-08 0 2.97801e-08)
(3.24003e-08 1.02309e-08 0 3.10498e-08 0 3.15496e-08)
(3.78232e-08 1.31075e-08 0 3.34783e-08 0 3.5256e-08)
(4.74967e-08 1.81785e-08 0 3.67588e-08 0 4.17451e-08)
(7.2472e-08 2.82521e-08 0 4.66536e-08 0 5.82612e-08)
(1.02438e-07 4.15979e-08 0 5.80433e-08 0 7.84251e-08)
(3.80688e-08 1.73084e-08 0 3.49279e-08 0 3.60516e-08)
(4.20876e-08 1.9156e-08 0 3.58515e-08 0 3.84298e-08)
(4.79308e-08 2.15512e-08 0 3.75481e-08 0 4.20684e-08)
(5.77981e-08 2.55503e-08 0 4.06538e-08 0 4.83478e-08)
(7.61191e-08 3.33767e-08 0 4.75058e-08 0 6.04659e-08)
(1.09274e-07 4.72615e-08 0 6.06559e-08 0 8.2898e-08)
(1.91763e-07 7.84351e-08 0 8.98965e-08 0 1.37052e-07)
(3.10895e-07 1.26199e-07 0 1.36788e-07 0 2.17136e-07)
(4.90165e-08 2.40339e-08 0 3.86699e-08 0 4.31354e-08)
(5.74627e-08 2.78824e-08 0 4.11113e-08 0 4.83992e-08)
(7.03286e-08 3.33001e-08 0 4.51199e-08 0 5.65566e-08)
(9.16734e-08 4.17388e-08 0 5.19592e-08 0 7.02257e-08)
(1.3022e-07 5.689e-08 0 6.62111e-08 0 9.55054e-08)
(2.03545e-07 8.57946e-08 0 9.17943e-08 0 1.44008e-07)
(3.49639e-07 1.39345e-07 0 1.45922e-07 0 2.39957e-07)
(6.27211e-07 2.47214e-07 0 2.49189e-07 0 4.24674e-07)
(5.18564e-08 2.49272e-08 0 3.95302e-08 0 4.48793e-08)
(6.23077e-08 2.96708e-08 0 4.26462e-08 0 5.14205e-08)
(7.85409e-08 3.64509e-08 0 4.77271e-08 0 6.1711e-08)
(1.05476e-07 4.69358e-08 0 5.63519e-08 0 7.89249e-08)
(1.53766e-07 6.54546e-08 0 7.31766e-08 0 1.10352e-07)
(2.46238e-07 1.01241e-07 0 1.0641e-07 0 1.71269e-07)
(4.03934e-07 1.57633e-07 0 1.61187e-07 0 2.74026e-07)
(7.35078e-07 2.85455e-07 0 2.8477e-07 0 4.94735e-07)
(4.28564e-08 1.73023e-08 0 3.56304e-08 0 3.87617e-08)
(5.21919e-08 2.18095e-08 0 3.83378e-08 0 4.45843e-08)
(6.71634e-08 2.83154e-08 0 4.28945e-08 0 5.40281e-08)
(9.18616e-08 3.80281e-08 0 5.06577e-08 0 6.97613e-08)
(1.34756e-07 5.40017e-08 0 6.58466e-08 0 9.75971e-08)
(2.16363e-07 8.55663e-08 0 9.35418e-08 0 1.51211e-07)
(3.17654e-07 1.18956e-07 0 1.30148e-07 0 2.17151e-07)
(4.66904e-07 1.78802e-07 0 1.99332e-07 0 3.2251e-07)
(3.2985e-08 8.95818e-09 0 3.19928e-08 0 3.21744e-08)
(3.81338e-08 1.13669e-08 0 3.33005e-08 0 3.52817e-08)
(4.65445e-08 1.48734e-08 0 3.56346e-08 0 4.04673e-08)
(6.04862e-08 1.99619e-08 0 3.97869e-08 0 4.92278e-08)
(8.4254e-08 2.77968e-08 0 4.74653e-08 0 6.44863e-08)
(1.26046e-07 4.3949e-08 0 6.34432e-08 0 9.23442e-08)
(1.71963e-07 5.47284e-08 0 7.82862e-08 0 1.21901e-07)
(2.16161e-07 6.99982e-08 0 1.05977e-07 0 1.579e-07)
(2.93849e-08 4.06647e-09 0 2.99422e-08 0 2.96021e-08)
(3.27399e-08 5.26864e-09 0 3.05459e-08 0 3.15248e-08)
(3.81058e-08 7.00205e-09 0 3.17798e-08 0 3.47266e-08)
(4.69013e-08 9.36354e-09 0 3.40459e-08 0 4.01316e-08)
(6.14515e-08 1.26146e-08 0 3.85694e-08 0 4.93563e-08)
(8.46333e-08 1.9527e-08 0 4.67156e-08 0 6.48547e-08)
(1.13152e-07 2.12852e-08 0 5.65834e-08 0 8.35341e-08)
(1.40102e-07 2.12737e-08 0 7.56777e-08 0 1.05429e-07)
(2.82331e-08 3.66816e-10 0 2.93753e-08 0 2.87138e-08)
(3.0933e-08 7.16532e-10 0 2.97243e-08 0 3.01861e-08)
(3.51693e-08 1.24058e-09 0 3.05379e-08 0 3.26253e-08)
(4.2066e-08 1.83007e-09 0 3.21162e-08 0 3.67582e-08)
(5.35084e-08 2.38213e-09 0 3.51659e-08 0 4.38468e-08)
(7.01927e-08 3.73747e-09 0 4.12685e-08 0 5.49557e-08)
(9.4833e-08 -5.83222e-10 0 5.055e-08 0 7.10921e-08)
(1.26806e-07 -6.58305e-09 0 6.28318e-08 0 9.39547e-08)
(2.72751e-08 -5.02893e-09 0 2.86306e-08 0 2.78657e-08)
(2.95733e-08 -5.65539e-09 0 2.87039e-08 0 2.90196e-08)
(3.3146e-08 -6.5022e-09 0 2.9121e-08 0 3.09514e-08)
(3.89638e-08 -7.89235e-09 0 3.00905e-08 0 3.42649e-08)
(4.88886e-08 -1.07827e-08 0 3.24205e-08 0 4.01326e-08)
(6.46623e-08 -1.47445e-08 0 3.63244e-08 0 4.9857e-08)
(9.53663e-08 -2.86495e-08 0 4.38521e-08 0 6.86299e-08)
(1.31266e-07 -3.68746e-08 0 5.81649e-08 0 9.17238e-08)
(2.5054e-08 -5.82194e-09 0 2.81357e-08 0 2.65749e-08)
(2.65376e-08 -6.67893e-09 0 2.80026e-08 0 2.72282e-08)
(2.8867e-08 -7.74336e-09 0 2.80721e-08 0 2.83901e-08)
(3.26026e-08 -8.93648e-09 0 2.85231e-08 0 3.04334e-08)
(3.90241e-08 -1.09326e-08 0 2.99211e-08 0 3.41511e-08)
(4.95683e-08 -1.3028e-08 0 3.22142e-08 0 4.04818e-08)
(6.63932e-08 -2.11059e-08 0 3.80052e-08 0 5.09304e-08)
(9.06695e-08 -1.90584e-08 0 4.54594e-08 0 6.69898e-08)
(2.38681e-08 -4.8089e-09 0 2.83541e-08 0 2.60279e-08)
(2.47561e-08 -5.32821e-09 0 2.8093e-08 0 2.63333e-08)
(2.61577e-08 -6.0551e-09 0 2.79635e-08 0 2.69496e-08)
(2.84685e-08 -6.96956e-09 0 2.80726e-08 0 2.81392e-08)
(3.25851e-08 -8.32362e-09 0 2.88377e-08 0 3.04692e-08)
(3.9715e-08 -9.30915e-09 0 3.01128e-08 0 3.46829e-08)
(5.14884e-08 -1.51634e-08 0 3.34252e-08 0 4.20218e-08)
(7.07873e-08 -1.41923e-08 0 4.16337e-08 0 5.49856e-08)
(2.35693e-08 -5.23434e-09 0 2.84535e-08 0 2.59304e-08)
(2.42363e-08 -5.73683e-09 0 2.81632e-08 0 2.61107e-08)
(2.52458e-08 -6.50313e-09 0 2.7964e-08 0 2.65005e-08)
(2.68737e-08 -7.54935e-09 0 2.79139e-08 0 2.72819e-08)
(2.98078e-08 -9.16012e-09 0 2.84283e-08 0 2.89012e-08)
(3.51266e-08 -1.10348e-08 0 2.94129e-08 0 3.19763e-08)
(4.42355e-08 -1.68734e-08 0 3.2707e-08 0 3.76804e-08)
(6.23294e-08 -1.88436e-08 0 3.82857e-08 0 4.9311e-08)
(2.36512e-08 -5.37947e-09 0 2.845e-08 0 2.59809e-08)
(2.42489e-08 -5.87207e-09 0 2.80981e-08 0 2.61199e-08)
(2.50912e-08 -6.47317e-09 0 2.77977e-08 0 2.63971e-08)
(2.63426e-08 -7.27655e-09 0 2.75913e-08 0 2.69422e-08)
(2.85e-08 -8.47999e-09 0 2.77921e-08 0 2.80799e-08)
(3.23195e-08 -9.74445e-09 0 2.8222e-08 0 3.0216e-08)
(3.95259e-08 -1.38806e-08 0 3.01443e-08 0 3.46641e-08)
(5.35837e-08 -1.5366e-08 0 3.63518e-08 0 4.391e-08)
(2.31711e-08 -4.76065e-09 0 2.84314e-08 0 2.57741e-08)
(2.37764e-08 -5.28796e-09 0 2.81761e-08 0 2.59194e-08)
(2.45258e-08 -5.9385e-09 0 2.79776e-08 0 2.61669e-08)
(2.55099e-08 -6.85307e-09 0 2.78435e-08 0 2.65846e-08)
(2.70316e-08 -8.00222e-09 0 2.79831e-08 0 2.7365e-08)
(2.97004e-08 -9.38568e-09 0 2.79122e-08 0 2.87601e-08)
(3.45767e-08 -1.22299e-08 0 2.94713e-08 0 3.18292e-08)
(4.72793e-08 -1.57223e-08 0 3.12287e-08 0 3.93456e-08)
(2.2593e-08 -3.65724e-09 0 2.83359e-08 0 2.54661e-08)
(2.30285e-08 -3.98444e-09 0 2.79598e-08 0 2.54878e-08)
(2.35044e-08 -4.34321e-09 0 2.77464e-08 0 2.55873e-08)
(2.40983e-08 -4.86911e-09 0 2.76401e-08 0 2.57958e-08)
(2.49942e-08 -5.69993e-09 0 2.78485e-08 0 2.62576e-08)
(2.65407e-08 -6.83774e-09 0 2.79717e-08 0 2.70753e-08)
(2.94096e-08 -8.68459e-09 0 2.90274e-08 0 2.89046e-08)
(3.71097e-08 -1.20704e-08 0 3.12583e-08 0 3.36249e-08)
(2.241e-08 -3.05527e-09 0 2.82802e-08 0 2.53407e-08)
(2.26802e-08 -3.18789e-09 0 2.78554e-08 0 2.52817e-08)
(2.29634e-08 -3.31484e-09 0 2.74756e-08 0 2.52456e-08)
(2.3245e-08 -3.4973e-09 0 2.71557e-08 0 2.52451e-08)
(2.3665e-08 -3.83303e-09 0 2.70306e-08 0 2.53692e-08)
(2.42248e-08 -4.3055e-09 0 2.68116e-08 0 2.5588e-08)
(2.50516e-08 -4.98451e-09 0 2.72974e-08 0 2.61685e-08)
(2.72415e-08 -6.7882e-09 0 2.81724e-08 0 2.76133e-08)
(2.21938e-08 -2.23944e-09 0 2.85028e-08 0 2.53065e-08)
(2.23953e-08 -2.09031e-09 0 2.81646e-08 0 2.52241e-08)
(2.26433e-08 -2.06498e-09 0 2.77415e-08 0 2.51369e-08)
(2.27839e-08 -2.02978e-09 0 2.74517e-08 0 2.50737e-08)
(2.29726e-08 -1.87671e-09 0 2.71939e-08 0 2.50182e-08)
(2.30149e-08 -1.727e-09 0 2.70103e-08 0 2.49593e-08)
(2.31451e-08 -1.46836e-09 0 2.69765e-08 0 2.4971e-08)
(2.29649e-08 -1.48884e-09 0 2.73353e-08 0 2.49971e-08)
(2.24763e-08 -3.06401e-09 0 2.84034e-08 0 2.55161e-08)
(2.2621e-08 -2.91601e-09 0 2.79946e-08 0 2.53829e-08)
(2.27731e-08 -2.75624e-09 0 2.75951e-08 0 2.52567e-08)
(2.2863e-08 -2.5855e-09 0 2.72891e-08 0 2.51479e-08)
(2.30553e-08 -2.40208e-09 0 2.69208e-08 0 2.50504e-08)
(2.30757e-08 -2.22025e-09 0 2.66539e-08 0 2.49493e-08)
(2.3253e-08 -1.86777e-09 0 2.63746e-08 0 2.48844e-08)
(2.32293e-08 -1.51222e-09 0 2.62291e-08 0 2.4791e-08)
(2.35199e-08 -4.34934e-09 0 2.89614e-08 0 2.64465e-08)
(2.3571e-08 -4.21199e-09 0 2.86339e-08 0 2.62711e-08)
(2.36307e-08 -4.05342e-09 0 2.82759e-08 0 2.60965e-08)
(2.36705e-08 -3.86678e-09 0 2.79364e-08 0 2.59308e-08)
(2.37819e-08 -3.6691e-09 0 2.75292e-08 0 2.57714e-08)
(2.37784e-08 -3.3395e-09 0 2.72178e-08 0 2.56011e-08)
(2.3967e-08 -3.12651e-09 0 2.67763e-08 0 2.54799e-08)
(2.39136e-08 -2.69499e-09 0 2.66101e-08 0 2.52961e-08)
(2.5515e-08 -4.81252e-09 0 2.89052e-08 0 2.8075e-08)
(2.54575e-08 -4.83665e-09 0 2.85524e-08 0 2.77923e-08)
(2.53565e-08 -4.79577e-09 0 2.82262e-08 0 2.75089e-08)
(2.52752e-08 -4.64858e-09 0 2.7911e-08 0 2.72356e-08)
(2.52535e-08 -4.55706e-09 0 2.75326e-08 0 2.69938e-08)
(2.51574e-08 -4.34993e-09 0 2.71966e-08 0 2.67195e-08)
(2.53064e-08 -4.28581e-09 0 2.66331e-08 0 2.65744e-08)
(2.51202e-08 -4.00346e-09 0 2.64272e-08 0 2.61974e-08)
(2.88085e-08 -3.89979e-09 0 2.84952e-08 0 3.07056e-08)
(2.88454e-08 -4.17271e-09 0 2.83256e-08 0 3.05267e-08)
(2.87381e-08 -4.32466e-09 0 2.81719e-08 0 3.02775e-08)
(2.86164e-08 -4.39346e-09 0 2.79494e-08 0 2.99868e-08)
(2.84925e-08 -4.43206e-09 0 2.75932e-08 0 2.96593e-08)
(2.8221e-08 -4.32604e-09 0 2.7359e-08 0 2.92597e-08)
(2.83171e-08 -4.28657e-09 0 2.66864e-08 0 2.90423e-08)
(2.78145e-08 -4.52801e-09 0 2.66808e-08 0 2.8476e-08)
(3.09951e-08 -2.38659e-09 0 2.73239e-08 0 3.22655e-08)
(3.13097e-08 -2.7413e-09 0 2.71701e-08 0 3.23184e-08)
(3.15176e-08 -2.98813e-09 0 2.69985e-08 0 3.23059e-08)
(3.16214e-08 -3.15591e-09 0 2.68587e-08 0 3.22189e-08)
(3.16085e-08 -3.37171e-09 0 2.66081e-08 0 3.20233e-08)
(3.14629e-08 -3.4438e-09 0 2.64337e-08 0 3.17209e-08)
(3.14998e-08 -3.49156e-09 0 2.56754e-08 0 3.14015e-08)
(3.09361e-08 -4.07577e-09 0 2.57216e-08 0 3.08027e-08)
(3.18094e-08 8.97592e-11 0 2.49008e-08 0 3.25472e-08)
(3.23088e-08 -6.64965e-10 0 2.50191e-08 0 3.27606e-08)
(3.25808e-08 -1.18982e-09 0 2.51983e-08 0 3.28704e-08)
(3.27601e-08 -1.53355e-09 0 2.52862e-08 0 3.29031e-08)
(3.28521e-08 -1.91864e-09 0 2.51745e-08 0 3.2817e-08)
(3.28553e-08 -2.13889e-09 0 2.51114e-08 0 3.26183e-08)
(3.28585e-08 -2.26226e-09 0 2.4387e-08 0 3.22758e-08)
(3.23657e-08 -2.99071e-09 0 2.43715e-08 0 3.17368e-08)
(3.08413e-08 5.94323e-09 0 1.75205e-08 0 3.06486e-08)
(3.17731e-08 4.73444e-09 0 1.83347e-08 0 3.13552e-08)
(3.24232e-08 3.72463e-09 0 1.92134e-08 0 3.18775e-08)
(3.28552e-08 2.76182e-09 0 1.99886e-08 0 3.21748e-08)
(3.30586e-08 1.78611e-09 0 2.05145e-08 0 3.2273e-08)
(3.31644e-08 1.01281e-09 0 2.09721e-08 0 3.22441e-08)
(3.31966e-08 6.11234e-10 0 2.04692e-08 0 3.19662e-08)
(3.28426e-08 -1.5105e-10 0 2.04492e-08 0 3.16091e-08)
(2.74824e-08 1.36528e-08 0 7.77022e-09 0 2.69855e-08)
(2.84737e-08 1.23059e-08 0 8.69005e-09 0 2.7793e-08)
(2.93108e-08 1.09876e-08 0 9.48461e-09 0 2.84084e-08)
(2.98715e-08 9.60667e-09 0 1.04648e-08 0 2.87973e-08)
(3.0246e-08 7.76548e-09 0 1.16278e-08 0 2.90292e-08)
(3.05956e-08 5.98726e-09 0 1.2782e-08 0 2.92652e-08)
(3.08714e-08 5.19542e-09 0 1.28376e-08 0 2.93542e-08)
(3.0912e-08 4.37391e-09 0 1.30139e-08 0 2.93968e-08)
(2.56769e-08 2.20432e-08 0 1.31336e-11 0 2.58591e-08)
(2.60264e-08 2.10829e-08 0 2.48454e-09 0 2.62085e-08)
(2.61155e-08 1.87828e-08 0 3.26077e-09 0 2.60938e-08)
(2.60741e-08 1.68681e-08 0 3.53685e-09 0 2.58926e-08)
(2.5832e-08 1.47977e-08 0 4.06749e-09 0 2.55132e-08)
(2.59105e-08 1.20463e-08 0 4.9396e-09 0 2.54673e-08)
(2.65348e-08 1.06573e-08 0 5.41843e-09 0 2.58629e-08)
(2.74608e-08 9.49644e-09 0 6.36921e-09 0 2.66039e-08)
(2.88566e-08 5.34529e-08 0 1e-15 0 3.11447e-08)
(2.65756e-08 4.06351e-08 0 1e-15 0 2.86291e-08)
(2.5085e-08 3.26482e-08 0 1e-15 0 2.68686e-08)
(2.39265e-08 2.65997e-08 0 1e-15 0 2.5409e-08)
(2.28574e-08 2.30114e-08 0 1e-15 0 2.42331e-08)
(2.23275e-08 2.02192e-08 0 1e-15 0 2.37106e-08)
(2.30124e-08 1.79557e-08 0 1e-15 0 2.407e-08)
(2.48313e-08 1.65315e-08 0 6.44126e-10 0 2.5418e-08)
(6.72629e-08 1.83662e-07 0 1e-15 0 7.20073e-08)
(4.81598e-08 1.38666e-07 0 1e-15 0 5.52238e-08)
(3.59063e-08 1.02646e-07 0 1e-15 0 4.31724e-08)
(2.83391e-08 7.29083e-08 0 1e-15 0 3.43882e-08)
(2.33628e-08 5.30529e-08 0 1e-15 0 2.83578e-08)
(2.14973e-08 3.99983e-08 0 1e-15 0 2.55269e-08)
(2.22056e-08 3.47918e-08 0 1e-15 0 2.54582e-08)
(2.60384e-08 3.66553e-08 0 1e-15 0 2.83915e-08)
(2.81858e-07 9.25098e-07 0 1e-15 0 3.63129e-07)
(2.03878e-07 5.89037e-07 0 1e-15 0 2.42222e-07)
(1.39808e-07 3.74152e-07 0 1e-15 0 1.58797e-07)
(1.00549e-07 2.42111e-07 0 1e-15 0 1.09415e-07)
(7.2199e-08 1.67161e-07 0 1e-15 0 7.74825e-08)
(5.03133e-08 1.2643e-07 0 1e-15 0 5.62021e-08)
(4.57434e-08 1.09199e-07 0 1e-15 0 4.98353e-08)
(6.04473e-08 1.24575e-07 0 1e-15 0 5.95393e-08)
(7.12625e-06 9.1155e-06 0 1e-15 0 9.99321e-06)
(3.62087e-06 5.74992e-06 0 1e-15 0 5.54661e-06)
(1.30391e-06 3.18674e-06 0 1e-15 0 2.48003e-06)
(5.21289e-07 1.90972e-06 0 1e-15 0 1.18641e-06)
(3.49778e-07 1.17682e-06 0 1e-15 0 6.57882e-07)
(2.93892e-07 7.49385e-07 0 1e-15 0 3.95294e-07)
(2.54188e-07 5.01914e-07 0 1e-15 0 2.64991e-07)
(3.35955e-07 5.53453e-07 0 1e-15 0 2.81345e-07)
(0.000267563 0.000134995 0 1e-15 0 0.000251713)
(0.000194138 0.000108414 0 1e-15 0 0.000189904)
(0.000108669 6.86636e-05 0 1e-15 0 0.000111743)
(5.44399e-05 3.99858e-05 0 1e-15 0 5.94474e-05)
(2.67833e-05 2.23475e-05 0 1e-15 0 3.04979e-05)
(1.13176e-05 1.11533e-05 0 1e-15 0 1.35677e-05)
(3.20071e-06 5.73347e-06 0 1e-15 0 4.88342e-06)
(5.92903e-07 4.09036e-06 0 1e-15 0 1.74784e-06)
(0.00214499 0.000700303 0 0.000190571 0 0.00166661)
(0.00171204 0.000567276 0 3.48644e-05 0 0.0013613)
(0.00112078 0.000379956 0 1e-15 0 0.000921462)
(0.00070074 0.000246182 0 1e-15 0 0.0005971)
(0.000423904 0.00016087 0 1e-15 0 0.000375141)
(0.000228572 0.000103623 0 1e-15 0 0.000214528)
(0.000105769 6.50455e-05 0 1e-15 0 0.00010769)
(3.5899e-05 2.96043e-05 0 1e-15 0 3.94518e-05)
(0.00563118 0.00192576 0 0.00240645 0 0.00419905)
(0.00515964 0.00174831 0 0.0021609 0 0.00390637)
(0.00425459 0.00140894 0 0.001677 0 0.00328176)
(0.00314703 0.0010048 0 0.00109414 0 0.00247314)
(0.00221667 0.000685266 0 0.000616993 0 0.00176864)
(0.00144644 0.000434334 0 0.000262478 0 0.00117243)
(0.000873576 0.000268178 0 7.96165e-05 0 0.000721023)
(0.000402215 0.000143216 0 6.45181e-06 0 0.000347774)
(0.00783124 0.00289872 0 0.00374445 0 0.00574118)
(0.00764973 0.00283939 0 0.00371562 0 0.00566181)
(0.00717478 0.00264808 0 0.00356295 0 0.00537566)
(0.00646795 0.00233097 0 0.00327493 0 0.00489684)
(0.00568066 0.00199004 0 0.00291844 0 0.00434018)
(0.00481657 0.00165188 0 0.0025074 0 0.00373243)
(0.00376511 0.00127644 0 0.00193172 0 0.00298409)
(0.00249385 0.000884784 0 0.00115886 0 0.00204343)
(0.00826852 0.00310742 0 0.00403855 0 0.00604347)
(0.00831258 0.00311258 0 0.00410826 0 0.00610278)
(0.00822551 0.00307303 0 0.00410597 0 0.00605992)
(0.00797742 0.00297845 0 0.00404235 0 0.00590159)
(0.00771167 0.00291035 0 0.00402749 0 0.00574597)
(0.00761276 0.00292363 0 0.00409473 0 0.00572642)
(0.00754206 0.00293439 0 0.00414922 0 0.005738)
(0.00746296 0.00298733 0 0.00419214 0 0.0057691)
(0.00702464 0.00270588 0 0.00375532 0 0.00528621)
(0.00717928 0.00268562 0 0.0038011 0 0.00539443)
(0.00716202 0.00266171 0 0.00384174 0 0.00541582)
(0.00719242 0.00269119 0 0.00389414 0 0.00546368)
(0.00744227 0.0028342 0 0.00403862 0 0.00566179)
(0.00792474 0.00308433 0 0.00431234 0 0.00602871)
(0.00866553 0.00344537 0 0.0047381 0 0.00658701)
(0.00964378 0.00399683 0 0.00547277 0 0.00738012)
(0.00575299 0.00223908 0 0.00340417 0 0.00448965)
(0.00607599 0.00229289 0 0.00358107 0 0.00473272)
(0.00603873 0.00229855 0 0.00375868 0 0.00480275)
(0.00609002 0.00235919 0 0.00395161 0 0.00492006)
(0.00636541 0.00252245 0 0.00423476 0 0.00519245)
(0.00683536 0.00278382 0 0.00463328 0 0.00562182)
(0.00748711 0.00310103 0 0.00506013 0 0.00615989)
(0.0084759 0.0036259 0 0.00556409 0 0.00691738)
(0.00488425 0.00188812 0 0.00297988 0 0.00389252)
(0.00538725 0.00206124 0 0.00339237 0 0.00433358)
(0.00550814 0.00214214 0 0.00371875 0 0.00455335)
(0.00566313 0.00223724 0 0.00400259 0 0.00476532)
(0.00596372 0.00238869 0 0.00428841 0 0.00505832)
(0.006376 0.00262442 0 0.00468664 0 0.00545685)
(0.00675193 0.002846 0 0.00515158 0 0.00586468)
(0.00719958 0.00318046 0 0.00568854 0 0.00633075)
(0.004039 0.00160593 0 0.00259208 0 0.00326548)
(0.00477324 0.0019257 0 0.0032675 0 0.00396016)
(0.00514336 0.00211724 0 0.00382496 0 0.00441689)
(0.00542003 0.00226771 0 0.00428892 0 0.00477822)
(0.00578661 0.00239677 0 0.00464382 0 0.00513823)
(0.00624886 0.00262261 0 0.00497568 0 0.00553372)
(0.00658552 0.00278211 0 0.00527644 0 0.00584547)
(0.00689805 0.00302092 0 0.00564324 0 0.00618992)
(0.00306971 0.00128758 0 0.00202989 0 0.00250255)
(0.00408903 0.00175867 0 0.00286759 0 0.00341637)
(0.00480437 0.00213468 0 0.0037112 0 0.00419061)
(0.00541069 0.00236266 0 0.00429592 0 0.00477837)
(0.00590526 0.00252974 0 0.00468052 0 0.0052153)
(0.00642517 0.00278332 0 0.00507574 0 0.00566805)
(0.00676549 0.00296115 0 0.00541673 0 0.00600534)
(0.00710517 0.0031741 0 0.00579898 0 0.00635359)
(0.0021989 0.000925839 0 0.00142661 0 0.00179007)
(0.00311593 0.00137835 0 0.00212573 0 0.00258253)
(0.00413576 0.00190409 0 0.00308397 0 0.00355013)
(0.00515407 0.00238455 0 0.00389737 0 0.00445431)
(0.00591217 0.00266557 0 0.00440522 0 0.00507955)
(0.00651675 0.00293469 0 0.00488334 0 0.00561613)
(0.00691017 0.00312281 0 0.00531586 0 0.00602171)
(0.00734092 0.00336252 0 0.00572199 0 0.00643594)
(0.00149244 0.000613386 0 0.000943405 0 0.00119987)
(0.00217017 0.000955677 0 0.00146046 0 0.00178948)
(0.00299936 0.00139981 0 0.00215367 0 0.00253587)
(0.00410699 0.00194028 0 0.00292076 0 0.00346018)
(0.00515723 0.00240498 0 0.00358609 0 0.00429911)
(0.00590509 0.00276192 0 0.00413652 0 0.00494098)
(0.00649426 0.00306153 0 0.00468905 0 0.00550373)
(0.00715442 0.00338226 0 0.00525533 0 0.00611044)
(0.000941755 0.000379598 0 0.000593619 0 0.000757303)
(0.00139911 0.00060981 0 0.000960053 0 0.00116329)
(0.00199956 0.000913748 0 0.00143722 0 0.00168971)
(0.00280393 0.00129914 0 0.00197508 0 0.00235365)
(0.00366438 0.00170686 0 0.00252141 0 0.00304398)
(0.00433713 0.00204527 0 0.00303927 0 0.00363189)
(0.00498021 0.00237282 0 0.00357028 0 0.00421315)
(0.00583913 0.0027938 0 0.00422127 0 0.00495613)
(0.000554923 0.000217263 0 0.000355876 0 0.000448825)
(0.000848948 0.000356461 0 0.000587077 0 0.000705838)
(0.00124 0.000555183 0 0.000902495 0 0.00105324)
(0.00177966 0.000807297 0 0.001295 0 0.00151344)
(0.00241426 0.00110879 0 0.00172018 0 0.00203531)
(0.00297212 0.00139639 0 0.00217122 0 0.00252892)
(0.00355019 0.00167999 0 0.00263438 0 0.00304496)
(0.00436873 0.00208045 0 0.0032437 0 0.00374693)
(0.000308586 0.000115992 0 0.000200213 0 0.000251025)
(0.000483532 0.000193623 0 0.000332474 0 0.000402133)
(0.000727034 0.000313891 0 0.000513982 0 0.000613261)
(0.00107456 0.000473797 0 0.000775086 0 0.000909406)
(0.00151358 0.000683236 0 0.00107831 0 0.00127692)
(0.00194704 0.00090933 0 0.00142347 0 0.00165739)
(0.00243504 0.00114456 0 0.00179589 0 0.00208216)
(0.00318052 0.00150074 0 0.00231851 0 0.00270762)
(0.000163965 6.1179e-05 0 0.000105512 0 0.000133484)
(0.000262368 0.000101523 0 0.000176166 0 0.000216643)
(0.000401135 0.000164013 0 0.000275035 0 0.000334619)
(0.000611147 0.000259597 0 0.000427027 0 0.000512383)
(0.000893961 0.000393488 0 0.000623052 0 0.000751193)
(0.00120011 0.000553696 0 0.00085916 0 0.00101685)
(0.00157611 0.000731303 0 0.00112977 0 0.00133587)
(0.00218698 0.00102147 0 0.00153589 0 0.00183907)
(8.23524e-05 3.06405e-05 0 5.34909e-05 0 6.73765e-05)
(0.000132755 5.19064e-05 0 9.07923e-05 0 0.000110832)
(0.000205155 8.21361e-05 0 0.00014384 0 0.000172541)
(0.000320089 0.000133676 0 0.000227584 0 0.000270657)
(0.000485192 0.000208751 0 0.000347446 0 0.000411499)
(0.00067821 0.00030832 0 0.000494553 0 0.000579342)
(0.000934248 0.000427231 0 0.000676816 0 0.000794394)
(0.0013698 0.00063244 0 0.000970783 0 0.00115543)
(3.97921e-05 1.32587e-05 0 2.58006e-05 0 3.21728e-05)
(6.4576e-05 2.33689e-05 0 4.42249e-05 0 5.35236e-05)
(0.000101958 3.84524e-05 0 6.9868e-05 0 8.46361e-05)
(0.000160224 6.3745e-05 0 0.00011301 0 0.000134604)
(0.000249756 0.000103501 0 0.000179776 0 0.000211483)
(0.000360353 0.000157753 0 0.000264014 0 0.000308066)
(0.000517266 0.000229007 0 0.00037446 0 0.000439078)
(0.000794405 0.000356073 0 0.000564615 0 0.000670197)
(1.83299e-05 6.43962e-06 0 1.18221e-05 0 1.50484e-05)
(3.02714e-05 1.07388e-05 0 2.03282e-05 0 2.5027e-05)
(4.86126e-05 1.77617e-05 0 3.22174e-05 0 4.0321e-05)
(7.59877e-05 2.90525e-05 0 5.35519e-05 0 6.44216e-05)
(0.00012175 4.89211e-05 0 8.78545e-05 0 0.000104095)
(0.00018107 7.62641e-05 0 0.000132655 0 0.000155857)
(0.000268913 0.000114495 0 0.000193945 0 0.000229283)
(0.000430344 0.0001858 0 0.000303793 0 0.000363506)
(8.1859e-06 2.8109e-06 0 5.19215e-06 0 6.65105e-06)
(1.36319e-05 4.94706e-06 0 8.90255e-06 0 1.11978e-05)
(2.20602e-05 7.94414e-06 0 1.46735e-05 0 1.81353e-05)
(3.48276e-05 1.2989e-05 0 2.42629e-05 0 2.91466e-05)
(5.72949e-05 2.23407e-05 0 4.06524e-05 0 4.83363e-05)
(8.73393e-05 3.56569e-05 0 6.32683e-05 0 7.43498e-05)
(0.00013322 5.51903e-05 0 9.45315e-05 0 0.000112456)
(0.00021892 9.18109e-05 0 0.000153596 0 0.000183849)
(3.44501e-06 1.04697e-06 0 2.28824e-06 0 2.79359e-06)
(5.78062e-06 1.93874e-06 0 3.87492e-06 0 4.76139e-06)
(9.55586e-06 3.32e-06 0 6.39068e-06 0 7.87066e-06)
(1.51718e-05 5.56064e-06 0 1.05457e-05 0 1.27745e-05)
(2.5451e-05 9.83437e-06 0 1.80842e-05 0 2.16424e-05)
(3.98213e-05 1.59672e-05 0 2.89983e-05 0 3.41269e-05)
(6.18371e-05 2.50504e-05 0 4.43955e-05 0 5.26558e-05)
(0.000104075 4.27119e-05 0 7.40443e-05 0 8.81784e-05)
(1.44477e-06 5.02042e-07 0 8.88482e-07 0 1.18319e-06)
(2.41052e-06 7.94834e-07 0 1.56231e-06 0 1.96357e-06)
(4.007e-06 1.37158e-06 0 2.61716e-06 0 3.30909e-06)
(6.40251e-06 2.21142e-06 0 4.41259e-06 0 5.34967e-06)
(1.09465e-05 4.01178e-06 0 7.69593e-06 0 9.21829e-06)
(1.75523e-05 6.84139e-06 0 1.25984e-05 0 1.49623e-05)
(2.76836e-05 1.07813e-05 0 1.97791e-05 0 2.34509e-05)
(4.77101e-05 1.8965e-05 0 3.33743e-05 0 4.00969e-05)
(5.73923e-07 1.59125e-07 0 3.79218e-07 0 4.63205e-07)
(9.50895e-07 3.17389e-07 0 6.29892e-07 0 7.87714e-07)
(1.60663e-06 5.28755e-07 0 1.07432e-06 0 1.31897e-06)
(2.61524e-06 9.15104e-07 0 1.75231e-06 0 2.17148e-06)
(4.47079e-06 1.63074e-06 0 3.15822e-06 0 3.78565e-06)
(7.3472e-06 2.79422e-06 0 5.28187e-06 0 6.2555e-06)
(1.18486e-05 4.58251e-06 0 8.33748e-06 0 1.00279e-05)
(2.05103e-05 8.13106e-06 0 1.44937e-05 0 1.7368e-05)
(2.32121e-07 6.88957e-08 0 1.52034e-07 0 1.93016e-07)
(3.7707e-07 1.087e-07 0 2.49607e-07 0 3.08335e-07)
(6.33124e-07 2.03728e-07 0 4.15197e-07 0 5.2331e-07)
(1.01387e-06 3.31442e-07 0 7.01694e-07 0 8.48016e-07)
(1.77537e-06 6.2191e-07 0 1.23636e-06 0 1.4947e-06)
(2.946e-06 1.10379e-06 0 2.12534e-06 0 2.51744e-06)
(4.82227e-06 1.79764e-06 0 3.43305e-06 0 4.07849e-06)
(8.46413e-06 3.2375e-06 0 5.99367e-06 0 7.13897e-06)
(1.00252e-07 2.17443e-08 0 7.04373e-08 0 8.44042e-08)
(1.50697e-07 4.11008e-08 0 1.05376e-07 0 1.27708e-07)
(2.4617e-07 7.05998e-08 0 1.69472e-07 0 2.0526e-07)
(3.94499e-07 1.23791e-07 0 2.68306e-07 0 3.29894e-07)
(6.76846e-07 2.26909e-07 0 4.81344e-07 0 5.743e-07)
(1.14806e-06 4.11445e-07 0 8.18407e-07 0 9.75443e-07)
(1.89413e-06 6.98305e-07 0 1.33264e-06 0 1.60447e-06)
(3.32937e-06 1.26741e-06 0 2.35082e-06 0 2.81972e-06)
(5.1273e-08 7.48498e-09 0 4.01749e-08 0 4.56215e-08)
(6.90986e-08 1.27563e-08 0 5.21752e-08 0 6.01418e-08)
(1.03119e-07 2.49271e-08 0 7.41879e-08 0 8.84611e-08)
(1.54744e-07 4.19824e-08 0 1.12129e-07 0 1.32205e-07)
(2.60981e-07 8.06282e-08 0 1.8558e-07 0 2.22097e-07)
(4.32773e-07 1.48257e-07 0 3.15098e-07 0 3.71332e-07)
(7.16639e-07 2.50357e-07 0 5.12226e-07 0 6.07878e-07)
(1.25599e-06 4.64258e-07 0 8.94748e-07 0 1.0651e-06)
(3.42976e-08 2.05434e-09 0 2.95571e-08 0 3.18795e-08)
(3.99047e-08 3.86308e-09 0 3.37296e-08 0 3.67126e-08)
(5.14372e-08 7.59241e-09 0 4.13804e-08 0 4.61722e-08)
(6.94308e-08 1.38371e-08 0 5.38578e-08 0 6.14325e-08)
(1.0553e-07 2.65932e-08 0 8.05884e-08 0 9.24113e-08)
(1.67359e-07 5.03138e-08 0 1.25381e-07 0 1.45455e-07)
(2.70144e-07 8.834e-08 0 1.95842e-07 0 2.31675e-07)
(4.61542e-07 1.62092e-07 0 3.33639e-07 0 3.94247e-07)
(2.85074e-08 2.59985e-10 0 2.61047e-08 0 2.72967e-08)
(3.02112e-08 7.04219e-10 0 2.75141e-08 0 2.88167e-08)
(3.39154e-08 2.0353e-09 0 3.00006e-08 0 3.1917e-08)
(3.96316e-08 3.94748e-09 0 3.43087e-08 0 3.68518e-08)
(5.17411e-08 8.32615e-09 0 4.30069e-08 0 4.72416e-08)
(7.22676e-08 1.62248e-08 0 5.84442e-08 0 6.50566e-08)
(1.07609e-07 2.87472e-08 0 8.28823e-08 0 9.45605e-08)
(1.7235e-07 5.42187e-08 0 1.29334e-07 0 1.49857e-07)
(2.66613e-08 -3.58327e-10 0 2.50222e-08 0 2.58472e-08)
(2.70785e-08 -3.23759e-10 0 2.55672e-08 0 2.63007e-08)
(2.81896e-08 1.2585e-10 0 2.63639e-08 0 2.72601e-08)
(2.98936e-08 7.29783e-10 0 2.77856e-08 0 2.88087e-08)
(3.35792e-08 2.13652e-09 0 3.07138e-08 0 3.20847e-08)
(4.00355e-08 4.69962e-09 0 3.57736e-08 0 3.78043e-08)
(5.16174e-08 8.82501e-09 0 4.36993e-08 0 4.74947e-08)
(7.21619e-08 1.67057e-08 0 5.89692e-08 0 6.51761e-08)
(2.60906e-08 -6.03211e-10 0 2.47333e-08 0 2.54169e-08)
(2.61343e-08 -6.96711e-10 0 2.49817e-08 0 2.55457e-08)
(2.64149e-08 -5.15542e-10 0 2.52465e-08 0 2.5827e-08)
(2.68628e-08 -3.50743e-10 0 2.57489e-08 0 2.62908e-08)
(2.78424e-08 1.52628e-10 0 2.67446e-08 0 2.72775e-08)
(2.96361e-08 9.35637e-10 0 2.84842e-08 0 2.90224e-08)
(3.319e-08 2.21573e-09 0 3.09716e-08 0 3.20227e-08)
(3.9357e-08 4.6329e-09 0 3.57322e-08 0 3.74414e-08)
(2.59391e-08 -7.43171e-10 0 2.46596e-08 0 2.53007e-08)
(2.58743e-08 -8.73407e-10 0 2.48241e-08 0 2.53394e-08)
(2.58924e-08 -7.72669e-10 0 2.49327e-08 0 2.54125e-08)
(2.59938e-08 -7.5715e-10 0 2.51339e-08 0 2.55546e-08)
(2.61265e-08 -5.39859e-10 0 2.5535e-08 0 2.58253e-08)
(2.64631e-08 -3.15944e-10 0 2.62577e-08 0 2.63432e-08)
(2.74553e-08 1.03852e-10 0 2.70103e-08 0 2.72169e-08)
(2.91362e-08 7.76531e-10 0 2.85293e-08 0 2.87913e-08)
(2.59162e-08 -8.49649e-10 0 2.46381e-08 0 2.52758e-08)
(2.58162e-08 -9.88805e-10 0 2.47906e-08 0 2.5294e-08)
(2.57462e-08 -9.19045e-10 0 2.48616e-08 0 2.5304e-08)
(2.5772e-08 -9.60174e-10 0 2.49631e-08 0 2.5358e-08)
(2.56592e-08 -8.48105e-10 0 2.51748e-08 0 2.54176e-08)
(2.55726e-08 -8.00869e-10 0 2.56084e-08 0 2.55736e-08)
(2.57746e-08 -6.10465e-10 0 2.5835e-08 0 2.58074e-08)
(2.6144e-08 -4.57538e-10 0 2.64042e-08 0 2.62473e-08)
(2.5923e-08 -9.39101e-10 0 2.46286e-08 0 2.52731e-08)
(2.57988e-08 -1.0791e-09 0 2.47899e-08 0 2.52856e-08)
(2.57085e-08 -1.02785e-09 0 2.48522e-08 0 2.52793e-08)
(2.57075e-08 -1.08711e-09 0 2.49341e-08 0 2.53101e-08)
(2.55587e-08 -1.03705e-09 0 2.50617e-08 0 2.53132e-08)
(2.53645e-08 -1.04644e-09 0 2.5409e-08 0 2.53688e-08)
(2.53154e-08 -9.1281e-10 0 2.54985e-08 0 2.54144e-08)
(2.53384e-08 -9.11905e-10 0 2.58027e-08 0 2.55484e-08)