/*--------------------------------*- C++ -*----------------------------------*\
| =========                 |                                                 |
| \\      /  F ield         | OpenFOAM: The Open Source CFD Toolbox           |
|  \\    /   O peration     | Version:  v1912                                 |
|   \\  /    A nd           | Website:  www.openfoam.com                      |
|    \\/     M anipulation  |                                                 |
\*---------------------------------------------------------------------------*/
FoamFile
{
    version     2.0;
    format      ascii;
    class       volSymmTensorField;
    location    "40";
    object      R;
}
// * * * * * * * * * * * * * * * * * * * * * * * * * * * * * * * * * * * * * //

dimensions      [0 2 -2 0 0 0 0];


internalField   nonuniform List<symmTensor> 
14268
(
(4.61594e-07 -8.22297e-08 0 6.18096e-07 0 5.41491e-07)
(4.61555e-07 -8.21957e-08 0 6.17307e-07 0 5.4098e-07)
(4.59975e-07 -8.21797e-08 0 6.18024e-07 0 5.40685e-07)
(4.59201e-07 -8.21365e-08 0 6.17868e-07 0 5.40246e-07)
(4.59132e-07 -8.20161e-08 0 6.16898e-07 0 5.39671e-07)
(4.58628e-07 -8.19832e-08 0 6.17543e-07 0 5.39907e-07)
(4.59168e-07 -8.2015e-08 0 6.18598e-07 0 5.40533e-07)
(4.60441e-07 -8.23013e-08 0 6.20295e-07 0 5.41917e-07)
(4.63007e-07 -8.27089e-08 0 6.21392e-07 0 5.4367e-07)
(4.6635e-07 -8.31489e-08 0 6.22748e-07 0 5.45844e-07)
(4.71035e-07 -8.36966e-08 0 6.2357e-07 0 5.48475e-07)
(4.76056e-07 -8.42415e-08 0 6.24881e-07 0 5.51468e-07)
(4.81834e-07 -8.48769e-08 0 6.2598e-07 0 5.54744e-07)
(4.88194e-07 -8.55265e-08 0 6.26829e-07 0 5.58189e-07)
(4.94794e-07 -8.6167e-08 0 6.27519e-07 0 5.61688e-07)
(5.01507e-07 -8.67874e-08 0 6.28037e-07 0 5.65167e-07)
(5.08163e-07 -8.73731e-08 0 6.28369e-07 0 5.68543e-07)
(5.14603e-07 -8.79063e-08 0 6.28536e-07 0 5.71741e-07)
(5.20681e-07 -8.83698e-08 0 6.28599e-07 0 5.74721e-07)
(5.26134e-07 -8.87662e-08 0 6.28807e-07 0 5.77459e-07)
(5.31157e-07 -8.91015e-08 0 6.2883e-07 0 5.79906e-07)
(5.35621e-07 -8.93646e-08 0 6.2883e-07 0 5.82072e-07)
(5.39522e-07 -8.95779e-08 0 6.28847e-07 0 5.8398e-07)
(5.42958e-07 -8.976e-08 0 6.28846e-07 0 5.85658e-07)
(5.4613e-07 -8.99238e-08 0 6.28713e-07 0 5.87143e-07)
(5.4927e-07 -9.00728e-08 0 6.28335e-07 0 5.88491e-07)
(5.52521e-07 -9.02238e-08 0 6.27702e-07 0 5.8977e-07)
(5.55658e-07 -9.04315e-08 0 6.2713e-07 0 5.91023e-07)
(5.58438e-07 -9.065e-08 0 6.26861e-07 0 5.92238e-07)
(5.61356e-07 -9.08696e-08 0 6.26318e-07 0 5.93391e-07)
(5.64287e-07 -9.11287e-08 0 6.25669e-07 0 5.94487e-07)
(5.6726e-07 -9.14049e-08 0 6.24912e-07 0 5.95564e-07)
(5.70302e-07 -9.17121e-08 0 6.24017e-07 0 5.96623e-07)
(5.73494e-07 -9.20449e-08 0 6.22912e-07 0 5.97666e-07)
(5.76718e-07 -9.23734e-08 0 6.2177e-07 0 5.98719e-07)
(5.80124e-07 -9.27063e-08 0 6.20597e-07 0 5.99852e-07)
(5.83802e-07 -9.30487e-08 0 6.19447e-07 0 6.01129e-07)
(5.87737e-07 -9.3394e-08 0 6.18362e-07 0 6.02555e-07)
(5.91984e-07 -9.37563e-08 0 6.17205e-07 0 6.04095e-07)
(5.96598e-07 -9.41641e-08 0 6.15918e-07 0 6.05747e-07)
(6.01761e-07 -9.46167e-08 0 6.14367e-07 0 6.07526e-07)
(6.07367e-07 -9.50914e-08 0 6.12711e-07 0 6.09452e-07)
(6.13242e-07 -9.55684e-08 0 6.11094e-07 0 6.11516e-07)
(6.19394e-07 -9.60326e-08 0 6.0943e-07 0 6.13686e-07)
(6.25712e-07 -9.64718e-08 0 6.07718e-07 0 6.15911e-07)
(6.31826e-07 -9.68718e-08 0 6.06123e-07 0 6.18094e-07)
(6.37626e-07 -9.72369e-08 0 6.04696e-07 0 6.20207e-07)
(6.43155e-07 -9.75781e-08 0 6.03394e-07 0 6.22249e-07)
(6.48301e-07 -9.79063e-08 0 6.02305e-07 0 6.24214e-07)
(6.53161e-07 -9.82238e-08 0 6.01355e-07 0 6.26112e-07)
(6.57753e-07 -9.85292e-08 0 6.00535e-07 0 6.27949e-07)
(6.62081e-07 -9.88239e-08 0 5.99842e-07 0 6.29723e-07)
(6.66223e-07 -9.91133e-08 0 5.99255e-07 0 6.3147e-07)
(6.70168e-07 -9.93972e-08 0 5.98772e-07 0 6.33176e-07)
(6.7399e-07 -9.96803e-08 0 5.98352e-07 0 6.3486e-07)
(6.77732e-07 -9.99645e-08 0 5.97975e-07 0 6.36534e-07)
(6.81388e-07 -1.00249e-07 0 5.97639e-07 0 6.3819e-07)
(6.85004e-07 -1.00536e-07 0 5.97326e-07 0 6.39842e-07)
(6.88577e-07 -1.00825e-07 0 5.97027e-07 0 6.41487e-07)
(6.9213e-07 -1.01119e-07 0 5.96736e-07 0 6.43132e-07)
(6.95643e-07 -1.01409e-07 0 5.96463e-07 0 6.44768e-07)
(6.99092e-07 -1.01693e-07 0 5.96218e-07 0 6.4639e-07)
(7.02442e-07 -1.01972e-07 0 5.95998e-07 0 6.47978e-07)
(7.05742e-07 -1.02248e-07 0 5.95788e-07 0 6.49555e-07)
(7.08934e-07 -1.02516e-07 0 5.95594e-07 0 6.51085e-07)
(7.12052e-07 -1.02788e-07 0 5.95417e-07 0 6.52599e-07)
(7.15097e-07 -1.03035e-07 0 5.95228e-07 0 6.54057e-07)
(7.17964e-07 -1.03284e-07 0 5.95086e-07 0 6.5546e-07)
(7.20751e-07 -1.0352e-07 0 5.94927e-07 0 6.56802e-07)
(7.23454e-07 -1.03728e-07 0 5.94749e-07 0 6.58103e-07)
(7.26007e-07 -1.03944e-07 0 5.94579e-07 0 6.59349e-07)
(7.28422e-07 -1.04166e-07 0 5.94473e-07 0 6.60554e-07)
(7.30891e-07 -1.044e-07 0 5.94318e-07 0 6.61766e-07)
(7.33412e-07 -1.04635e-07 0 5.94179e-07 0 6.63012e-07)
(7.36104e-07 -1.04905e-07 0 5.9396e-07 0 6.64309e-07)
(7.38714e-07 -1.05151e-07 0 5.93951e-07 0 6.65653e-07)
(7.41841e-07 -1.05406e-07 0 5.93602e-07 0 6.67118e-07)
(7.44961e-07 -1.05819e-07 0 5.93495e-07 0 6.68698e-07)
(7.48752e-07 -1.05968e-07 0 5.93204e-07 0 6.70534e-07)
(7.5234e-07 -1.0648e-07 0 5.93208e-07 0 6.72386e-07)
(7.57482e-07 -1.06999e-07 0 5.92452e-07 0 6.74872e-07)
(7.61082e-07 -1.07115e-07 0 5.93105e-07 0 6.7683e-07)
(7.67111e-07 -1.07656e-07 0 5.92649e-07 0 6.79883e-07)
(7.71857e-07 -1.08905e-07 0 5.91868e-07 0 6.82556e-07)
(7.82862e-07 -1.07862e-07 0 5.90987e-07 0 6.86736e-07)
(7.91119e-07 -1.18681e-07 0 5.8675e-07 0 6.92182e-07)
(9.1957e-08 -5.99493e-09 0 1.42128e-07 0 1.16827e-07)
(9.0818e-08 -5.82303e-09 0 1.41453e-07 0 1.15861e-07)
(8.99893e-08 -5.7265e-09 0 1.41165e-07 0 1.15287e-07)
(8.93965e-08 -5.69703e-09 0 1.41181e-07 0 1.15034e-07)
(8.94971e-08 -5.7702e-09 0 1.41655e-07 0 1.15283e-07)
(8.96849e-08 -5.91055e-09 0 1.42167e-07 0 1.15708e-07)
(9.01139e-08 -6.06123e-09 0 1.42716e-07 0 1.16187e-07)
(9.08674e-08 -6.21961e-09 0 1.43166e-07 0 1.16796e-07)
(9.17057e-08 -6.36908e-09 0 1.43653e-07 0 1.1747e-07)
(9.28462e-08 -6.53667e-09 0 1.44082e-07 0 1.18255e-07)
(9.41641e-08 -6.71378e-09 0 1.44488e-07 0 1.1913e-07)
(9.56762e-08 -6.89947e-09 0 1.44905e-07 0 1.20099e-07)
(9.73674e-08 -7.07803e-09 0 1.45295e-07 0 1.21147e-07)
(9.91831e-08 -7.24976e-09 0 1.45712e-07 0 1.22267e-07)
(1.01108e-07 -7.41595e-09 0 1.46104e-07 0 1.23434e-07)
(1.03087e-07 -7.57294e-09 0 1.46515e-07 0 1.24633e-07)
(1.05075e-07 -7.71931e-09 0 1.46926e-07 0 1.25838e-07)
(1.07038e-07 -7.85496e-09 0 1.47339e-07 0 1.27031e-07)
(1.08943e-07 -7.98225e-09 0 1.47744e-07 0 1.2819e-07)
(1.10767e-07 -8.09963e-09 0 1.48117e-07 0 1.293e-07)
(1.12485e-07 -8.20749e-09 0 1.48483e-07 0 1.30351e-07)
(1.14096e-07 -8.3112e-09 0 1.48832e-07 0 1.3134e-07)
(1.15601e-07 -8.41088e-09 0 1.49167e-07 0 1.32269e-07)
(1.17009e-07 -8.50268e-09 0 1.49483e-07 0 1.3314e-07)
(1.18315e-07 -8.59876e-09 0 1.49796e-07 0 1.33958e-07)
(1.19557e-07 -8.68473e-09 0 1.50081e-07 0 1.3473e-07)
(1.20754e-07 -8.75364e-09 0 1.50332e-07 0 1.35466e-07)
(1.21831e-07 -8.88087e-09 0 1.50627e-07 0 1.36159e-07)
(1.2288e-07 -8.9508e-09 0 1.50833e-07 0 1.36799e-07)
(1.23841e-07 -9.01892e-09 0 1.50999e-07 0 1.37374e-07)
(1.24693e-07 -9.11323e-09 0 1.51178e-07 0 1.37895e-07)
(1.2549e-07 -9.24533e-09 0 1.51348e-07 0 1.38393e-07)
(1.26258e-07 -9.38273e-09 0 1.51522e-07 0 1.38877e-07)
(1.2701e-07 -9.51891e-09 0 1.51706e-07 0 1.39356e-07)
(1.27786e-07 -9.664e-09 0 1.51901e-07 0 1.39854e-07)
(1.28657e-07 -9.82289e-09 0 1.52137e-07 0 1.40418e-07)
(1.29681e-07 -9.99718e-09 0 1.52421e-07 0 1.4108e-07)
(1.30878e-07 -1.01855e-08 0 1.5276e-07 0 1.41853e-07)
(1.32234e-07 -1.03808e-08 0 1.53174e-07 0 1.42732e-07)
(1.33737e-07 -1.05774e-08 0 1.53665e-07 0 1.43716e-07)
(1.35383e-07 -1.07778e-08 0 1.54218e-07 0 1.44802e-07)
(1.37167e-07 -1.09871e-08 0 1.54832e-07 0 1.45989e-07)
(1.39075e-07 -1.12062e-08 0 1.55507e-07 0 1.4727e-07)
(1.41086e-07 -1.14335e-08 0 1.56239e-07 0 1.48633e-07)
(1.43166e-07 -1.16676e-08 0 1.5702e-07 0 1.50057e-07)
(1.4528e-07 -1.19063e-08 0 1.5783e-07 0 1.51516e-07)
(1.47359e-07 -1.21432e-08 0 1.58641e-07 0 1.52958e-07)
(1.49373e-07 -1.23756e-08 0 1.59437e-07 0 1.54361e-07)
(1.51348e-07 -1.26059e-08 0 1.60226e-07 0 1.55741e-07)
(1.53299e-07 -1.28368e-08 0 1.61012e-07 0 1.57108e-07)
(1.55239e-07 -1.30706e-08 0 1.61798e-07 0 1.5847e-07)
(1.57178e-07 -1.33095e-08 0 1.62586e-07 0 1.59831e-07)
(1.59124e-07 -1.35552e-08 0 1.63378e-07 0 1.612e-07)
(1.61085e-07 -1.38054e-08 0 1.64176e-07 0 1.62579e-07)
(1.63068e-07 -1.40616e-08 0 1.64981e-07 0 1.63972e-07)
(1.65076e-07 -1.43224e-08 0 1.65795e-07 0 1.65383e-07)
(1.67113e-07 -1.45864e-08 0 1.66619e-07 0 1.66812e-07)
(1.69183e-07 -1.48546e-08 0 1.67449e-07 0 1.68262e-07)
(1.71283e-07 -1.51262e-08 0 1.68291e-07 0 1.69732e-07)
(1.73415e-07 -1.54005e-08 0 1.6914e-07 0 1.71222e-07)
(1.75576e-07 -1.56778e-08 0 1.69999e-07 0 1.7273e-07)
(1.77762e-07 -1.59582e-08 0 1.70866e-07 0 1.74255e-07)
(1.79963e-07 -1.62417e-08 0 1.7174e-07 0 1.75789e-07)
(1.82179e-07 -1.65287e-08 0 1.72614e-07 0 1.77335e-07)
(1.84401e-07 -1.68175e-08 0 1.73497e-07 0 1.78883e-07)
(1.86629e-07 -1.71051e-08 0 1.74381e-07 0 1.80439e-07)
(1.88856e-07 -1.73943e-08 0 1.75249e-07 0 1.81989e-07)
(1.91055e-07 -1.76893e-08 0 1.76108e-07 0 1.83524e-07)
(1.93252e-07 -1.79741e-08 0 1.76943e-07 0 1.85053e-07)
(1.95427e-07 -1.82733e-08 0 1.77835e-07 0 1.86574e-07)
(1.97593e-07 -1.85766e-08 0 1.78734e-07 0 1.88099e-07)
(1.9976e-07 -1.8869e-08 0 1.79605e-07 0 1.89617e-07)
(2.01962e-07 -1.91626e-08 0 1.80463e-07 0 1.91147e-07)
(2.04195e-07 -1.947e-08 0 1.81374e-07 0 1.92717e-07)
(2.06546e-07 -1.97971e-08 0 1.82301e-07 0 1.9435e-07)
(2.09024e-07 -2.01811e-08 0 1.83275e-07 0 1.96076e-07)
(2.11665e-07 -2.05337e-08 0 1.84333e-07 0 1.97905e-07)
(2.14633e-07 -2.10136e-08 0 1.8531e-07 0 1.99899e-07)
(2.17688e-07 -2.13697e-08 0 1.86622e-07 0 2.02022e-07)
(2.21266e-07 -2.20366e-08 0 1.87625e-07 0 2.04393e-07)
(2.24906e-07 -2.22067e-08 0 1.89246e-07 0 2.06901e-07)
(2.29323e-07 -2.32927e-08 0 1.90288e-07 0 2.09747e-07)
(2.33928e-07 -2.33856e-08 0 1.92454e-07 0 2.12946e-07)
(2.39832e-07 -2.46578e-08 0 1.93632e-07 0 2.16764e-07)
(2.48149e-07 -2.64081e-08 0 1.98439e-07 0 2.22712e-07)
(2.66335e-07 -3.08588e-08 0 2.05815e-07 0 2.37078e-07)
(6.18734e-08 -2.45721e-09 0 9.49148e-08 0 7.82913e-08)
(6.16064e-08 -2.52936e-09 0 9.52586e-08 0 7.83051e-08)
(6.14605e-08 -2.55629e-09 0 9.54733e-08 0 7.83248e-08)
(6.1249e-08 -2.63583e-09 0 9.57374e-08 0 7.83686e-08)
(6.1162e-08 -2.67902e-09 0 9.59284e-08 0 7.84151e-08)
(6.11043e-08 -2.74272e-09 0 9.6043e-08 0 7.84571e-08)
(6.11271e-08 -2.78478e-09 0 9.60521e-08 0 7.84777e-08)
(6.14679e-08 -2.89371e-09 0 9.56941e-08 0 7.84753e-08)
(6.16073e-08 -2.95409e-09 0 9.55216e-08 0 7.84694e-08)
(6.19842e-08 -3.03946e-09 0 9.50885e-08 0 7.84455e-08)
(6.23379e-08 -3.08928e-09 0 9.46738e-08 0 7.84186e-08)
(6.28054e-08 -3.13576e-09 0 9.41426e-08 0 7.83878e-08)
(6.34252e-08 -3.16503e-09 0 9.34583e-08 0 7.83563e-08)
(6.38603e-08 -3.1768e-09 0 9.29795e-08 0 7.83364e-08)
(6.45064e-08 -3.17817e-09 0 9.23096e-08 0 7.83244e-08)
(6.51421e-08 -3.1663e-09 0 9.16658e-08 0 7.83226e-08)
(6.57822e-08 -3.14583e-09 0 9.10507e-08 0 7.83364e-08)
(6.63923e-08 -3.11886e-09 0 9.04876e-08 0 7.83617e-08)
(6.69826e-08 -3.08856e-09 0 8.99633e-08 0 7.83967e-08)
(6.75495e-08 -3.05844e-09 0 8.94939e-08 0 7.8444e-08)
(6.8076e-08 -3.03087e-09 0 8.9074e-08 0 7.84967e-08)
(6.85676e-08 -3.00602e-09 0 8.86974e-08 0 7.85537e-08)
(6.90203e-08 -2.98635e-09 0 8.83613e-08 0 7.86122e-08)
(6.94385e-08 -2.97302e-09 0 8.80573e-08 0 7.867e-08)
(6.98285e-08 -2.96509e-09 0 8.77749e-08 0 7.87254e-08)
(7.01941e-08 -2.96302e-09 0 8.75088e-08 0 7.87777e-08)
(7.05474e-08 -2.96274e-09 0 8.72481e-08 0 7.88277e-08)
(7.08708e-08 -2.96342e-09 0 8.70137e-08 0 7.88749e-08)
(7.11612e-08 -2.97113e-09 0 8.68017e-08 0 7.8918e-08)
(7.14452e-08 -2.97619e-09 0 8.65781e-08 0 7.89545e-08)
(7.16638e-08 -2.9754e-09 0 8.6403e-08 0 7.89807e-08)
(7.18589e-08 -2.98245e-09 0 8.62246e-08 0 7.89992e-08)
(7.2087e-08 -2.99893e-09 0 8.59954e-08 0 7.90138e-08)
(7.22959e-08 -3.01657e-09 0 8.57891e-08 0 7.90243e-08)
(7.25058e-08 -3.03858e-09 0 8.56127e-08 0 7.90484e-08)
(7.27373e-08 -3.06464e-09 0 8.5452e-08 0 7.90915e-08)
(7.30105e-08 -3.09317e-09 0 8.5291e-08 0 7.91528e-08)
(7.33386e-08 -3.11967e-09 0 8.51186e-08 0 7.92337e-08)
(7.37205e-08 -3.14342e-09 0 8.49334e-08 0 7.93341e-08)
(7.41483e-08 -3.1698e-09 0 8.47325e-08 0 7.94527e-08)
(7.46119e-08 -3.20008e-09 0 8.4536e-08 0 7.95905e-08)
(7.5109e-08 -3.2323e-09 0 8.43558e-08 0 7.97497e-08)
(7.56389e-08 -3.26457e-09 0 8.41889e-08 0 7.99299e-08)
(7.61968e-08 -3.29435e-09 0 8.4031e-08 0 8.01287e-08)
(7.67716e-08 -3.32047e-09 0 8.38843e-08 0 8.03421e-08)
(7.73506e-08 -3.34408e-09 0 8.37498e-08 0 8.05649e-08)
(7.79177e-08 -3.36611e-09 0 8.36289e-08 0 8.0789e-08)
(7.84615e-08 -3.38795e-09 0 8.35216e-08 0 8.10085e-08)
(7.89916e-08 -3.41184e-09 0 8.34241e-08 0 8.12264e-08)
(7.95135e-08 -3.43762e-09 0 8.3336e-08 0 8.1445e-08)
(8.00307e-08 -3.46481e-09 0 8.32558e-08 0 8.16653e-08)
(8.05443e-08 -3.49449e-09 0 8.31856e-08 0 8.18883e-08)
(8.10616e-08 -3.52683e-09 0 8.31169e-08 0 8.21155e-08)
(8.1579e-08 -3.56091e-09 0 8.30589e-08 0 8.23469e-08)
(8.21039e-08 -3.5976e-09 0 8.30048e-08 0 8.25842e-08)
(8.26375e-08 -3.63595e-09 0 8.29546e-08 0 8.28283e-08)
(8.31794e-08 -3.67627e-09 0 8.29111e-08 0 8.30791e-08)
(8.37317e-08 -3.71832e-09 0 8.2872e-08 0 8.33373e-08)
(8.4293e-08 -3.76211e-09 0 8.28387e-08 0 8.36026e-08)
(8.48652e-08 -3.80795e-09 0 8.28077e-08 0 8.38753e-08)
(8.54445e-08 -3.85366e-09 0 8.27838e-08 0 8.41543e-08)
(8.60326e-08 -3.89865e-09 0 8.2762e-08 0 8.44398e-08)
(8.66227e-08 -3.94493e-09 0 8.27501e-08 0 8.47298e-08)
(8.72192e-08 -3.99176e-09 0 8.27397e-08 0 8.50255e-08)
(8.78159e-08 -4.03842e-09 0 8.27386e-08 0 8.53242e-08)
(8.84178e-08 -4.08773e-09 0 8.274e-08 0 8.56284e-08)
(8.90159e-08 -4.13558e-09 0 8.27588e-08 0 8.59349e-08)
(8.96152e-08 -4.18206e-09 0 8.27933e-08 0 8.62463e-08)
(9.02131e-08 -4.22562e-09 0 8.28339e-08 0 8.65599e-08)
(9.0798e-08 -4.26974e-09 0 8.28359e-08 0 8.68637e-08)
(9.13754e-08 -4.31831e-09 0 8.286e-08 0 8.71678e-08)
(9.19591e-08 -4.37082e-09 0 8.29016e-08 0 8.74783e-08)
(9.25565e-08 -4.42817e-09 0 8.29508e-08 0 8.77982e-08)
(9.31634e-08 -4.4999e-09 0 8.3012e-08 0 8.81299e-08)
(9.37983e-08 -4.56549e-09 0 8.30748e-08 0 8.84763e-08)
(9.44799e-08 -4.68235e-09 0 8.31307e-08 0 8.88469e-08)
(9.52005e-08 -4.72825e-09 0 8.32122e-08 0 8.92435e-08)
(9.60236e-08 -4.90201e-09 0 8.32628e-08 0 8.96808e-08)
(9.69033e-08 -4.94476e-09 0 8.33424e-08 0 9.01636e-08)
(9.78857e-08 -5.12613e-09 0 8.34168e-08 0 9.06892e-08)
(9.89275e-08 -5.21445e-09 0 8.35718e-08 0 9.126e-08)
(1.00252e-07 -5.41185e-09 0 8.34735e-08 0 9.19585e-08)
(1.01422e-07 -5.49495e-09 0 8.39513e-08 0 9.26392e-08)
(1.03183e-07 -5.93794e-09 0 8.38769e-08 0 9.36112e-08)
(1.05357e-07 -6.20016e-09 0 8.45107e-08 0 9.48557e-08)
(1.09092e-07 -6.88605e-09 0 8.57683e-08 0 9.77192e-08)
(5.95313e-08 -2.38994e-09 0 9.19223e-08 0 7.55765e-08)
(5.95451e-08 -2.42415e-09 0 9.21853e-08 0 7.5661e-08)
(5.93395e-08 -2.48405e-09 0 9.25255e-08 0 7.57356e-08)
(5.9167e-08 -2.55799e-09 0 9.27624e-08 0 7.57813e-08)
(5.91801e-08 -2.63257e-09 0 9.27991e-08 0 7.57893e-08)
(5.9019e-08 -2.72706e-09 0 9.28746e-08 0 7.57985e-08)
(5.9053e-08 -2.82244e-09 0 9.27391e-08 0 7.57581e-08)
(5.91758e-08 -2.91706e-09 0 9.2469e-08 0 7.56892e-08)
(5.93456e-08 -3.00516e-09 0 9.20964e-08 0 7.55968e-08)
(5.95994e-08 -3.08003e-09 0 9.15793e-08 0 7.54669e-08)
(5.98982e-08 -3.13576e-09 0 9.09754e-08 0 7.53196e-08)
(6.02682e-08 -3.18001e-09 0 9.02699e-08 0 7.51544e-08)
(6.06352e-08 -3.21691e-09 0 8.95523e-08 0 7.4987e-08)
(6.10933e-08 -3.20212e-09 0 8.87409e-08 0 7.48089e-08)
(6.15164e-08 -3.18405e-09 0 8.79687e-08 0 7.46411e-08)
(6.19829e-08 -3.154e-09 0 8.71766e-08 0 7.44783e-08)
(6.24341e-08 -3.1072e-09 0 8.64195e-08 0 7.43281e-08)
(6.28832e-08 -3.05289e-09 0 8.56913e-08 0 7.41903e-08)
(6.33138e-08 -2.99592e-09 0 8.50075e-08 0 7.40662e-08)
(6.37135e-08 -2.93987e-09 0 8.43801e-08 0 7.39565e-08)
(6.40804e-08 -2.88813e-09 0 8.38157e-08 0 7.38617e-08)
(6.44118e-08 -2.84433e-09 0 8.33111e-08 0 7.37799e-08)
(6.47182e-08 -2.80747e-09 0 8.28506e-08 0 7.3708e-08)
(6.50096e-08 -2.77577e-09 0 8.24199e-08 0 7.36432e-08)
(6.52846e-08 -2.74966e-09 0 8.20165e-08 0 7.35836e-08)
(6.55373e-08 -2.72816e-09 0 8.16446e-08 0 7.3528e-08)
(6.57649e-08 -2.7105e-09 0 8.13067e-08 0 7.34772e-08)
(6.59844e-08 -2.69566e-09 0 8.09858e-08 0 7.34305e-08)
(6.61847e-08 -2.68362e-09 0 8.06913e-08 0 7.3388e-08)
(6.63685e-08 -2.67319e-09 0 8.04236e-08 0 7.33479e-08)
(6.65338e-08 -2.66098e-09 0 8.01812e-08 0 7.33126e-08)
(6.66717e-08 -2.65096e-09 0 7.99677e-08 0 7.32799e-08)
(6.68075e-08 -2.6476e-09 0 7.97322e-08 0 7.32379e-08)
(6.69727e-08 -2.65822e-09 0 7.9434e-08 0 7.31828e-08)
(6.71367e-08 -2.67514e-09 0 7.91715e-08 0 7.31423e-08)
(6.72996e-08 -2.69246e-09 0 7.89435e-08 0 7.31172e-08)
(6.74734e-08 -2.70739e-09 0 7.87189e-08 0 7.30985e-08)
(6.7672e-08 -2.72046e-09 0 7.84801e-08 0 7.3082e-08)
(6.7892e-08 -2.73045e-09 0 7.82354e-08 0 7.30699e-08)
(6.81801e-08 -2.73521e-09 0 7.79457e-08 0 7.30637e-08)
(6.84883e-08 -2.73232e-09 0 7.765e-08 0 7.30636e-08)
(6.88084e-08 -2.72727e-09 0 7.73521e-08 0 7.3069e-08)
(6.91452e-08 -2.7218e-09 0 7.70462e-08 0 7.30792e-08)
(6.95e-08 -2.71361e-09 0 7.67279e-08 0 7.30931e-08)
(6.98632e-08 -2.70159e-09 0 7.64063e-08 0 7.31105e-08)
(7.0219e-08 -2.68777e-09 0 7.60936e-08 0 7.31297e-08)
(7.05544e-08 -2.6741e-09 0 7.58016e-08 0 7.31498e-08)
(7.08718e-08 -2.66221e-09 0 7.55304e-08 0 7.31712e-08)
(7.1181e-08 -2.65269e-09 0 7.52683e-08 0 7.31935e-08)
(7.14784e-08 -2.64569e-09 0 7.50201e-08 0 7.32175e-08)
(7.17725e-08 -2.64082e-09 0 7.47783e-08 0 7.32431e-08)
(7.20561e-08 -2.64014e-09 0 7.45527e-08 0 7.32709e-08)
(7.2353e-08 -2.64272e-09 0 7.43147e-08 0 7.33005e-08)
(7.26331e-08 -2.64692e-09 0 7.41004e-08 0 7.33324e-08)
(7.29254e-08 -2.65418e-09 0 7.3877e-08 0 7.33669e-08)
(7.32176e-08 -2.66196e-09 0 7.36593e-08 0 7.34038e-08)
(7.35096e-08 -2.66967e-09 0 7.34488e-08 0 7.34436e-08)
(7.38125e-08 -2.67817e-09 0 7.32311e-08 0 7.34865e-08)
(7.41119e-08 -2.68694e-09 0 7.30242e-08 0 7.3532e-08)
(7.44215e-08 -2.69568e-09 0 7.28116e-08 0 7.35806e-08)
(7.47302e-08 -2.70338e-09 0 7.26062e-08 0 7.36319e-08)
(7.50448e-08 -2.71001e-09 0 7.24005e-08 0 7.3686e-08)
(7.53535e-08 -2.7162e-09 0 7.22074e-08 0 7.37422e-08)
(7.56753e-08 -2.72305e-09 0 7.20038e-08 0 7.38017e-08)
(7.59789e-08 -2.72889e-09 0 7.18274e-08 0 7.38619e-08)
(7.62967e-08 -2.73315e-09 0 7.16341e-08 0 7.39253e-08)
(7.66036e-08 -2.73536e-09 0 7.14586e-08 0 7.39888e-08)
(7.69178e-08 -2.74082e-09 0 7.12536e-08 0 7.4051e-08)
(7.72037e-08 -2.75022e-09 0 7.11046e-08 0 7.41159e-08)
(7.74963e-08 -2.75747e-09 0 7.09738e-08 0 7.41886e-08)
(7.77999e-08 -2.75656e-09 0 7.08193e-08 0 7.42611e-08)
(7.80928e-08 -2.76168e-09 0 7.06671e-08 0 7.43316e-08)
(7.83807e-08 -2.77644e-09 0 7.05173e-08 0 7.44029e-08)
(7.86732e-08 -2.80251e-09 0 7.03727e-08 0 7.44774e-08)
(7.89758e-08 -2.83245e-09 0 7.02367e-08 0 7.45586e-08)
(7.93114e-08 -2.88039e-09 0 7.0083e-08 0 7.46489e-08)
(7.96663e-08 -2.91322e-09 0 6.99334e-08 0 7.47449e-08)
(8.00959e-08 -2.99142e-09 0 6.97191e-08 0 7.48629e-08)
(8.04608e-08 -3.01028e-09 0 6.96284e-08 0 7.49697e-08)
(8.10797e-08 -3.11629e-09 0 6.92499e-08 0 7.51345e-08)
(8.14636e-08 -3.11834e-09 0 6.92297e-08 0 7.52544e-08)
(8.21854e-08 -3.27341e-09 0 6.8811e-08 0 7.54626e-08)
(8.27136e-08 -3.25215e-09 0 6.87446e-08 0 7.56317e-08)
(8.34918e-08 -3.52139e-09 0 6.83257e-08 0 7.5885e-08)
(8.4052e-08 -3.65065e-09 0 6.85115e-08 0 7.61133e-08)
(8.53895e-08 -4.35039e-09 0 6.79509e-08 0 7.67329e-08)
(5.93232e-08 -2.39098e-09 0 9.161e-08 0 7.5347e-08)
(5.93462e-08 -2.44533e-09 0 9.18546e-08 0 7.5432e-08)
(5.91673e-08 -2.52825e-09 0 9.21557e-08 0 7.5502e-08)
(5.89351e-08 -2.6904e-09 0 9.24404e-08 0 7.55559e-08)
(5.896e-08 -2.7975e-09 0 9.24917e-08 0 7.55704e-08)
(5.88e-08 -2.94638e-09 0 9.26124e-08 0 7.55918e-08)
(5.88902e-08 -3.05771e-09 0 9.24501e-08 0 7.55451e-08)
(5.9e-08 -3.13857e-09 0 9.21933e-08 0 7.54748e-08)
(5.91389e-08 -3.23106e-09 0 9.18268e-08 0 7.53745e-08)
(5.93965e-08 -3.2992e-09 0 9.12586e-08 0 7.52248e-08)
(5.96556e-08 -3.36733e-09 0 9.0654e-08 0 7.50695e-08)
(6.00323e-08 -3.45308e-09 0 8.9915e-08 0 7.48848e-08)
(6.04326e-08 -3.53134e-09 0 8.91319e-08 0 7.46919e-08)
(6.08179e-08 -3.49758e-09 0 8.83563e-08 0 7.45053e-08)
(6.12721e-08 -3.44971e-09 0 8.75218e-08 0 7.43116e-08)
(6.16942e-08 -3.43567e-09 0 8.67255e-08 0 7.41279e-08)
(6.21336e-08 -3.38542e-09 0 8.59343e-08 0 7.39522e-08)
(6.25561e-08 -3.32678e-09 0 8.51873e-08 0 7.37907e-08)
(6.29597e-08 -3.2577e-09 0 8.4491e-08 0 7.3645e-08)
(6.33354e-08 -3.1904e-09 0 8.38582e-08 0 7.35167e-08)
(6.36761e-08 -3.12977e-09 0 8.32913e-08 0 7.34052e-08)
(6.39899e-08 -3.07981e-09 0 8.27795e-08 0 7.3308e-08)
(6.42801e-08 -3.03946e-09 0 8.23129e-08 0 7.3222e-08)
(6.45525e-08 -3.00716e-09 0 8.18792e-08 0 7.31435e-08)
(6.4804e-08 -2.98369e-09 0 8.14763e-08 0 7.30703e-08)
(6.50368e-08 -2.9647e-09 0 8.11008e-08 0 7.30019e-08)
(6.52538e-08 -2.94828e-09 0 8.07512e-08 0 7.29391e-08)
(6.54647e-08 -2.93505e-09 0 8.04174e-08 0 7.28814e-08)
(6.56614e-08 -2.92566e-09 0 8.0105e-08 0 7.28275e-08)
(6.58409e-08 -2.91522e-09 0 7.98186e-08 0 7.27764e-08)
(6.60023e-08 -2.90175e-09 0 7.95568e-08 0 7.27317e-08)
(6.61323e-08 -2.89593e-09 0 7.93276e-08 0 7.26916e-08)
(6.62512e-08 -2.88806e-09 0 7.9097e-08 0 7.26461e-08)
(6.6418e-08 -2.89455e-09 0 7.87879e-08 0 7.25863e-08)
(6.65864e-08 -2.90529e-09 0 7.85013e-08 0 7.25368e-08)
(6.67416e-08 -2.91619e-09 0 7.82697e-08 0 7.25024e-08)
(6.69095e-08 -2.92007e-09 0 7.80469e-08 0 7.24761e-08)
(6.71011e-08 -2.92168e-09 0 7.7799e-08 0 7.24504e-08)
(6.73317e-08 -2.9166e-09 0 7.75069e-08 0 7.2422e-08)
(6.75842e-08 -2.9103e-09 0 7.71953e-08 0 7.23944e-08)
(6.78518e-08 -2.90616e-09 0 7.6881e-08 0 7.23711e-08)
(6.81354e-08 -2.89947e-09 0 7.6564e-08 0 7.23524e-08)
(6.84443e-08 -2.88954e-09 0 7.62279e-08 0 7.23361e-08)
(6.8774e-08 -2.87578e-09 0 7.58724e-08 0 7.2321e-08)
(6.91137e-08 -2.85605e-09 0 7.55073e-08 0 7.23067e-08)
(6.94295e-08 -2.83334e-09 0 7.51654e-08 0 7.22933e-08)
(6.97282e-08 -2.80954e-09 0 7.48413e-08 0 7.22809e-08)
(7.00055e-08 -2.7872e-09 0 7.45424e-08 0 7.22707e-08)
(7.02885e-08 -2.76829e-09 0 7.42369e-08 0 7.22609e-08)
(7.05423e-08 -2.75336e-09 0 7.39662e-08 0 7.22537e-08)
(7.08034e-08 -2.74048e-09 0 7.36905e-08 0 7.22481e-08)
(7.10352e-08 -2.73279e-09 0 7.34509e-08 0 7.22449e-08)
(7.13229e-08 -2.72798e-09 0 7.31498e-08 0 7.22413e-08)
(7.15369e-08 -2.72638e-09 0 7.29342e-08 0 7.2241e-08)
(7.18032e-08 -2.72689e-09 0 7.26661e-08 0 7.22417e-08)
(7.20561e-08 -2.72768e-09 0 7.24148e-08 0 7.22444e-08)
(7.23065e-08 -2.72983e-09 0 7.21707e-08 0 7.22489e-08)
(7.25723e-08 -2.73318e-09 0 7.19151e-08 0 7.22552e-08)
(7.28245e-08 -2.73632e-09 0 7.16799e-08 0 7.22641e-08)
(7.30987e-08 -2.74082e-09 0 7.14267e-08 0 7.22755e-08)
(7.33548e-08 -2.74269e-09 0 7.11993e-08 0 7.22891e-08)
(7.36361e-08 -2.74279e-09 0 7.09475e-08 0 7.2305e-08)
(7.38977e-08 -2.74241e-09 0 7.07185e-08 0 7.23215e-08)
(7.41753e-08 -2.74062e-09 0 7.04699e-08 0 7.23388e-08)
(7.44458e-08 -2.74046e-09 0 7.02308e-08 0 7.23566e-08)
(7.46765e-08 -2.74055e-09 0 7.00414e-08 0 7.23756e-08)
(7.49717e-08 -2.74162e-09 0 6.97831e-08 0 7.23978e-08)
(7.51915e-08 -2.73673e-09 0 6.96296e-08 0 7.24235e-08)
(7.54837e-08 -2.72078e-09 0 6.93607e-08 0 7.24455e-08)
(7.57127e-08 -2.70983e-09 0 6.91706e-08 0 7.24672e-08)
(7.59409e-08 -2.71036e-09 0 6.90003e-08 0 7.24928e-08)
(7.61781e-08 -2.72173e-09 0 6.88314e-08 0 7.25221e-08)
(7.64151e-08 -2.74107e-09 0 6.86682e-08 0 7.25542e-08)
(7.66582e-08 -2.76437e-09 0 6.84973e-08 0 7.25873e-08)
(7.69125e-08 -2.79421e-09 0 6.83127e-08 0 7.26218e-08)
(7.71814e-08 -2.83957e-09 0 6.81212e-08 0 7.26603e-08)
(7.74655e-08 -2.87064e-09 0 6.79291e-08 0 7.27025e-08)
(7.78003e-08 -2.94681e-09 0 6.76954e-08 0 7.27535e-08)
(7.81412e-08 -2.96914e-09 0 6.74713e-08 0 7.28064e-08)
(7.85842e-08 -3.06368e-09 0 6.7147e-08 0 7.28734e-08)
(7.89178e-08 -3.09849e-09 0 6.69829e-08 0 7.29372e-08)
(7.95398e-08 -3.17472e-09 0 6.64641e-08 0 7.30226e-08)
(7.98555e-08 -3.2112e-09 0 6.64346e-08 0 7.31097e-08)
(8.05538e-08 -3.50328e-09 0 6.58004e-08 0 7.32147e-08)
(8.08703e-08 -3.21586e-09 0 6.5854e-08 0 7.32953e-08)
(8.14703e-08 -3.99611e-09 0 6.54727e-08 0 7.34779e-08)
(5.93038e-08 -2.60534e-09 0 9.16767e-08 0 7.53573e-08)
(5.93263e-08 -2.64743e-09 0 9.19645e-08 0 7.54582e-08)
(5.91226e-08 -2.73453e-09 0 9.23322e-08 0 7.55487e-08)
(5.89699e-08 -2.84749e-09 0 9.25882e-08 0 7.56081e-08)
(5.89922e-08 -2.97979e-09 0 9.2648e-08 0 7.56254e-08)
(5.88077e-08 -3.1724e-09 0 9.2761e-08 0 7.56401e-08)
(5.88884e-08 -3.29642e-09 0 9.25519e-08 0 7.5574e-08)
(5.89876e-08 -3.41512e-09 0 9.22202e-08 0 7.5475e-08)
(5.90961e-08 -3.54277e-09 0 9.18629e-08 0 7.53739e-08)
(5.93615e-08 -3.73322e-09 0 9.13412e-08 0 7.52412e-08)
(5.97006e-08 -3.87916e-09 0 9.06832e-08 0 7.50773e-08)
(6.00376e-08 -3.88346e-09 0 8.99749e-08 0 7.48973e-08)
(6.04228e-08 -3.83038e-09 0 8.92056e-08 0 7.47099e-08)
(6.08542e-08 -3.90139e-09 0 8.83686e-08 0 7.45064e-08)
(6.12574e-08 -3.85432e-09 0 8.75645e-08 0 7.43124e-08)
(6.17103e-08 -3.77081e-09 0 8.67309e-08 0 7.41224e-08)
(6.21387e-08 -3.69549e-09 0 8.59448e-08 0 7.39459e-08)
(6.25586e-08 -3.60282e-09 0 8.51913e-08 0 7.3781e-08)
(6.29555e-08 -3.52196e-09 0 8.44913e-08 0 7.36315e-08)
(6.33167e-08 -3.43928e-09 0 8.38565e-08 0 7.34987e-08)
(6.36441e-08 -3.36643e-09 0 8.3286e-08 0 7.33825e-08)
(6.39506e-08 -3.31281e-09 0 8.27692e-08 0 7.32814e-08)
(6.42396e-08 -3.27102e-09 0 8.22952e-08 0 7.3192e-08)
(6.45101e-08 -3.24055e-09 0 8.18554e-08 0 7.31101e-08)
(6.47589e-08 -3.22103e-09 0 8.14478e-08 0 7.30339e-08)
(6.4991e-08 -3.20335e-09 0 8.10683e-08 0 7.29631e-08)
(6.52068e-08 -3.1837e-09 0 8.07163e-08 0 7.28986e-08)
(6.54154e-08 -3.16657e-09 0 8.03802e-08 0 7.28396e-08)
(6.56114e-08 -3.15814e-09 0 8.00642e-08 0 7.27838e-08)
(6.57922e-08 -3.14121e-09 0 7.97743e-08 0 7.27319e-08)
(6.59491e-08 -3.12553e-09 0 7.95198e-08 0 7.26881e-08)
(6.60899e-08 -3.13066e-09 0 7.92894e-08 0 7.26478e-08)
(6.62127e-08 -3.12645e-09 0 7.90549e-08 0 7.26016e-08)
(6.63814e-08 -3.15432e-09 0 7.87544e-08 0 7.25429e-08)
(6.65548e-08 -3.15952e-09 0 7.84572e-08 0 7.249e-08)
(6.67119e-08 -3.14769e-09 0 7.81978e-08 0 7.24493e-08)
(6.68673e-08 -3.14338e-09 0 7.79719e-08 0 7.24197e-08)
(6.70538e-08 -3.15488e-09 0 7.77335e-08 0 7.23946e-08)
(6.72787e-08 -3.1538e-09 0 7.74546e-08 0 7.23672e-08)
(6.75332e-08 -3.14616e-09 0 7.71504e-08 0 7.23401e-08)
(6.78052e-08 -3.14816e-09 0 7.68386e-08 0 7.23162e-08)
(6.80903e-08 -3.15124e-09 0 7.65218e-08 0 7.22953e-08)
(6.83924e-08 -3.13711e-09 0 7.61887e-08 0 7.22752e-08)
(6.87165e-08 -3.1151e-09 0 7.58326e-08 0 7.22553e-08)
(6.9049e-08 -3.08947e-09 0 7.54663e-08 0 7.2235e-08)
(6.93537e-08 -3.06305e-09 0 7.51269e-08 0 7.22156e-08)
(6.96494e-08 -3.03652e-09 0 7.47976e-08 0 7.21968e-08)
(6.99165e-08 -3.01335e-09 0 7.45031e-08 0 7.21809e-08)
(7.01919e-08 -2.99245e-09 0 7.41999e-08 0 7.21654e-08)
(7.04463e-08 -2.97569e-09 0 7.39218e-08 0 7.21525e-08)
(7.06884e-08 -2.96361e-09 0 7.3662e-08 0 7.21422e-08)
(7.09133e-08 -2.957e-09 0 7.34248e-08 0 7.21346e-08)
(7.11911e-08 -2.95479e-09 0 7.31304e-08 0 7.21261e-08)
(7.14012e-08 -2.95417e-09 0 7.29138e-08 0 7.21219e-08)
(7.16782e-08 -2.95743e-09 0 7.26268e-08 0 7.21172e-08)
(7.19066e-08 -2.96086e-09 0 7.23967e-08 0 7.21155e-08)
(7.21376e-08 -2.96352e-09 0 7.21676e-08 0 7.21154e-08)
(7.24224e-08 -2.96652e-09 0 7.18834e-08 0 7.21164e-08)
(7.26547e-08 -2.96938e-09 0 7.16578e-08 0 7.21191e-08)
(7.29281e-08 -2.97061e-09 0 7.13916e-08 0 7.21232e-08)
(7.31825e-08 -2.97134e-09 0 7.11495e-08 0 7.21291e-08)
(7.34322e-08 -2.97138e-09 0 7.09176e-08 0 7.21367e-08)
(7.37102e-08 -2.97152e-09 0 7.06592e-08 0 7.21465e-08)
(7.39423e-08 -2.96748e-09 0 7.04551e-08 0 7.21579e-08)
(7.4225e-08 -2.96128e-09 0 7.0196e-08 0 7.21712e-08)
(7.4483e-08 -2.95369e-09 0 6.99637e-08 0 7.2185e-08)
(7.47226e-08 -2.94048e-09 0 6.9756e-08 0 7.22002e-08)
(7.50025e-08 -2.93395e-09 0 6.95029e-08 0 7.22164e-08)
(7.52048e-08 -2.93435e-09 0 6.93673e-08 0 7.22386e-08)
(7.54603e-08 -2.93188e-09 0 6.91593e-08 0 7.22602e-08)
(7.57007e-08 -2.92957e-09 0 6.89475e-08 0 7.22787e-08)
(7.59183e-08 -2.93196e-09 0 6.87616e-08 0 7.22976e-08)
(7.61348e-08 -2.94513e-09 0 6.85872e-08 0 7.23194e-08)
(7.63564e-08 -2.96769e-09 0 6.84213e-08 0 7.23449e-08)
(7.65976e-08 -2.9981e-09 0 6.82437e-08 0 7.23737e-08)
(7.68637e-08 -3.04297e-09 0 6.80457e-08 0 7.24059e-08)
(7.71381e-08 -3.09048e-09 0 6.78483e-08 0 7.24411e-08)
(7.74738e-08 -3.16642e-09 0 6.75947e-08 0 7.24833e-08)
(7.777e-08 -3.20328e-09 0 6.74042e-08 0 7.25266e-08)
(7.82416e-08 -3.30341e-09 0 6.70263e-08 0 7.2584e-08)
(7.85377e-08 -3.33633e-09 0 6.68789e-08 0 7.26375e-08)
(7.91191e-08 -3.44159e-09 0 6.63946e-08 0 7.27075e-08)
(7.94433e-08 -3.48758e-09 0 6.62621e-08 0 7.27752e-08)
(7.99681e-08 -3.6503e-09 0 6.58182e-08 0 7.28438e-08)
(8.04857e-08 -3.83156e-09 0 6.55809e-08 0 7.29588e-08)
(8.0757e-08 -4.07395e-09 0 6.51972e-08 0 7.29734e-08)
(5.93404e-08 -2.79633e-09 0 9.1823e-08 0 7.54323e-08)
(5.93473e-08 -2.84042e-09 0 9.20945e-08 0 7.55225e-08)
(5.91888e-08 -2.88676e-09 0 9.23648e-08 0 7.55855e-08)
(5.89183e-08 -2.99329e-09 0 9.26343e-08 0 7.56267e-08)
(5.90009e-08 -3.14979e-09 0 9.25887e-08 0 7.56135e-08)
(5.87587e-08 -3.34656e-09 0 9.27386e-08 0 7.56362e-08)
(5.88295e-08 -3.58699e-09 0 9.26074e-08 0 7.56003e-08)
(5.89627e-08 -3.85399e-09 0 9.23488e-08 0 7.55387e-08)
(5.91691e-08 -4.03825e-09 0 9.19472e-08 0 7.54391e-08)
(5.94149e-08 -4.02618e-09 0 9.13964e-08 0 7.52855e-08)
(5.96604e-08 -4.02978e-09 0 9.08052e-08 0 7.51261e-08)
(6.00765e-08 -4.13983e-09 0 8.99701e-08 0 7.49164e-08)
(6.03825e-08 -4.19007e-09 0 8.92411e-08 0 7.47284e-08)
(6.08595e-08 -4.22933e-09 0 8.83693e-08 0 7.45227e-08)
(6.12947e-08 -4.19384e-09 0 8.75414e-08 0 7.43266e-08)
(6.17179e-08 -4.08083e-09 0 8.67376e-08 0 7.41366e-08)
(6.21521e-08 -4.02185e-09 0 8.59379e-08 0 7.39557e-08)