/*--------------------------------*- C++ -*----------------------------------*\
| =========                 |                                                 |
| \\      /  F ield         | OpenFOAM: The Open Source CFD Toolbox           |
|  \\    /   O peration     | Version:  v1912                                 |
|   \\  /    A nd           | Website:  www.openfoam.com                      |
|    \\/     M anipulation  |                                                 |
\*---------------------------------------------------------------------------*/
FoamFile
{
    version     2.0;
    format      ascii;
    class       volVectorField;
    location    "40";
    object      U;
}
// * * * * * * * * * * * * * * * * * * * * * * * * * * * * * * * * * * * * * //

dimensions      [0 1 -1 0 0 0 0];


internalField   nonuniform List<vector> 
14268
(
(-3.43395 0.0086053 0)
(-3.47426 0.00663979 0)
(-3.50731 0.00471 0)
(-3.52787 0.0025304 0)
(-3.53756 -0.000630496 0)
(-3.52827 -0.00362963 0)
(-3.49996 -0.00684445 0)
(-3.45254 -0.0100939 0)
(-3.38702 -0.0131918 0)
(-3.3052 -0.0159328 0)
(-3.20923 -0.0182143 0)
(-3.10178 -0.0200005 0)
(-2.98581 -0.0212846 0)
(-2.86457 -0.0220918 0)
(-2.74066 -0.0223491 0)
(-2.61659 -0.0222782 0)
(-2.49432 -0.021827 0)
(-2.37527 -0.0211043 0)
(-2.26029 -0.0201103 0)
(-2.14979 -0.0194963 0)
(-2.04379 -0.0187865 0)
(-1.94203 -0.0181587 0)
(-1.84415 -0.0176143 0)
(-1.7497 -0.0171521 0)
(-1.65826 -0.0167555 0)
(-1.5695 -0.0164049 0)
(-1.48311 -0.0160863 0)
(-1.39889 -0.0157835 0)
(-1.31671 -0.0154723 0)
(-1.23648 -0.0151513 0)
(-1.15811 -0.0148201 0)
(-1.08156 -0.0144763 0)
(-1.00682 -0.0141218 0)
(-0.933812 -0.013755 0)
(-0.862485 -0.0133898 0)
(-0.79281 -0.0130336 0)
(-0.724812 -0.012685 0)
(-0.658522 -0.0123566 0)
(-0.593927 -0.012076 0)
(-0.530974 -0.0118291 0)
(-0.469601 -0.0115773 0)
(-0.409755 -0.0113109 0)
(-0.351383 -0.0110349 0)
(-0.294431 -0.0107553 0)
(-0.238817 -0.0104843 0)
(-0.18444 -0.0102294 0)
(-0.131193 -0.00999488 0)
(-0.0789782 -0.00978393 0)
(-0.027631 -0.00959315 0)
(0.0228861 -0.0094184 0)
(0.072655 -0.00926364 0)
(0.121871 -0.00912883 0)
(0.170556 -0.00901473 0)
(0.218808 -0.00892149 0)
(0.266688 -0.00884118 0)
(0.314227 -0.00876939 0)
(0.361423 -0.00869905 0)
(0.408239 -0.00861823 0)
(0.454612 -0.00852621 0)
(0.500465 -0.00841803 0)
(0.545722 -0.00829224 0)
(0.59032 -0.00815855 0)
(0.634225 -0.00802426 0)
(0.677415 -0.00788014 0)
(0.719869 -0.0077375 0)
(0.761555 -0.00759575 0)
(0.802433 -0.00741413 0)
(0.842474 -0.00726592 0)
(0.881701 -0.00704275 0)
(0.920203 -0.00685448 0)
(0.958146 -0.00688383 0)
(0.99581 -0.00699712 0)
(1.0336 -0.00714004 0)
(1.072 -0.00732059 0)
(1.11155 -0.00753427 0)
(1.15276 -0.00784305 0)
(1.19603 -0.00821195 0)
(1.24154 -0.00866925 0)
(1.28913 -0.00879007 0)
(1.33853 -0.00937739 0)
(1.38867 -0.00903981 0)
(1.43919 -0.00883626 0)
(1.48701 -0.00898945 0)
(1.53309 -0.00810405 0)
(1.5722 0.000358966 0)
(1.56851 0.0041178 0)
(-3.43535 0.0265048 0)
(-3.47569 0.0197083 0)
(-3.50882 0.0128827 0)
(-3.52949 0.00545179 0)
(-3.53929 -0.00445276 0)
(-3.53001 -0.0139562 0)
(-3.5016 -0.0239821 0)
(-3.45404 -0.0336859 0)
(-3.38832 -0.0428502 0)
(-3.3062 -0.0510305 0)
(-3.20986 -0.0579638 0)
(-3.10204 -0.0633308 0)
(-2.98573 -0.0670487 0)
(-2.86418 -0.0691289 0)
(-2.74002 -0.069881 0)
(-2.61575 -0.0693541 0)
(-2.49335 -0.0679642 0)
(-2.37423 -0.0660147 0)
(-2.25921 -0.0638507 0)
(-2.14875 -0.0611949 0)
(-2.04285 -0.0587167 0)
(-1.94122 -0.0563902 0)
(-1.84348 -0.0542837 0)
(-1.74918 -0.0524129 0)
(-1.65788 -0.050761 0)
(-1.56925 -0.0492962 0)
(-1.483 -0.0479849 0)
(-1.39888 -0.0467968 0)
(-1.31679 -0.0456873 0)
(-1.23662 -0.0446541 0)
(-1.15828 -0.0436897 0)
(-1.08175 -0.0427504 0)
(-1.007 -0.0418304 0)
(-0.933977 -0.0409522 0)
(-0.862619 -0.0400879 0)
(-0.792908 -0.0391921 0)
(-0.724876 -0.0382554 0)
(-0.658557 -0.0372909 0)
(-0.59394 -0.0363044 0)
(-0.530968 -0.0353197 0)
(-0.469574 -0.0343829 0)
(-0.409702 -0.0335076 0)
(-0.351305 -0.032686 0)
(-0.29433 -0.0319186 0)
(-0.238701 -0.0312114 0)
(-0.184319 -0.0305679 0)
(-0.131077 -0.0299859 0)
(-0.0788716 -0.029466 0)
(-0.0275392 -0.029002 0)
(0.0229616 -0.0285997 0)
(0.0727142 -0.0282559 0)
(0.121914 -0.0279701 0)
(0.170585 -0.0277234 0)
(0.218824 -0.0275158 0)
(0.266696 -0.027332 0)
(0.314232 -0.0271472 0)
(0.361429 -0.02695 0)
(0.408252 -0.0267205 0)
(0.454634 -0.0264474 0)
(0.500496 -0.0261255 0)
(0.545759 -0.0257711 0)
(0.590363 -0.0253845 0)
(0.63427 -0.0249876 0)
(0.677462 -0.024572 0)
(0.719918 -0.024155 0)
(0.761609 -0.0236904 0)
(0.802493 -0.0232567 0)
(0.842548 -0.0228064 0)
(0.881767 -0.0224837 0)
(0.920216 -0.0221717 0)
(0.958089 -0.0217837 0)
(0.995683 -0.0215919 0)
(1.0334 -0.0217033 0)
(1.07172 -0.0221581 0)
(1.11121 -0.0229932 0)
(1.15238 -0.0241023 0)
(1.19564 -0.0253673 0)
(1.24117 -0.0266505 0)
(1.28884 -0.0278962 0)
(1.33829 -0.0286968 0)
(1.38873 -0.0288268 0)
(1.43906 -0.0293678 0)
(1.48828 -0.0256429 0)
(1.53284 -0.026301 0)
(1.5754 -0.014068 0)
(1.60684 -0.00982156 0)
(-3.43777 0.0452082 0)
(-3.47844 0.0344607 0)
(-3.51191 0.0233052 0)
(-3.53279 0.0109746 0)
(-3.5428 -0.00545277 0)
(-3.53397 -0.0212828 0)
(-3.50568 -0.0379584 0)
(-3.45792 -0.0543423 0)
(-3.39185 -0.0698554 0)
(-3.30925 -0.0836663 0)
(-3.21236 -0.0952879 0)
(-3.10389 -0.104302 0)
(-2.98688 -0.110616 0)
(-2.86468 -0.114308 0)
(-2.73993 -0.115476 0)
(-2.61518 -0.114753 0)
(-2.49243 -0.112372 0)
(-2.37312 -0.108942 0)
(-2.2581 -0.104886 0)
(-2.14768 -0.10083 0)
(-2.04183 -0.0968417 0)
(-1.94029 -0.0931626 0)
(-1.84263 -0.0898955 0)
(-1.74841 -0.0870526 0)
(-1.65718 -0.0845758 0)
(-1.5686 -0.0823794 0)
(-1.48237 -0.0803932 0)
(-1.39827 -0.078556 0)
(-1.31617 -0.0767816 0)
(-1.23598 -0.075073 0)
(-1.15763 -0.0734117 0)
(-1.08107 -0.0717534 0)
(-1.0063 -0.0701035 0)
(-0.933272 -0.0684756 0)
(-0.861915 -0.0668592 0)
(-0.792211 -0.0652433 0)
(-0.724185 -0.0636002 0)
(-0.657877 -0.06196 0)
(-0.593279 -0.0604098 0)
(-0.530341 -0.0589593 0)
(-0.468995 -0.0575532 0)
(-0.409177 -0.0561674 0)
(-0.350833 -0.0548005 0)
(-0.293909 -0.0534736 0)
(-0.238328 -0.0522207 0)
(-0.183988 -0.0510636 0)
(-0.130782 -0.05001 0)
(-0.0786094 -0.0490687 0)
(-0.0273054 -0.0482253 0)
(0.0231707 -0.0474763 0)
(0.0728992 -0.0468265 0)
(0.122078 -0.046275 0)
(0.170732 -0.0458062 0)
(0.218961 -0.045419 0)
(0.266832 -0.0450805 0)
(0.314378 -0.0447612 0)
(0.361594 -0.0444328 0)
(0.408441 -0.0440452 0)
(0.454849 -0.0435936 0)
(0.500734 -0.043059 0)
(0.546015 -0.0424541 0)
(0.59063 -0.0418042 0)
(0.634543 -0.0411418 0)
(0.677741 -0.0404397 0)
(0.720204 -0.0397491 0)
(0.761905 -0.0390118 0)
(0.802799 -0.038199 0)
(0.842845 -0.0373207 0)
(0.882067 -0.0363314 0)
(0.920509 -0.0357099 0)
(0.958299 -0.0354801 0)
(0.995741 -0.0354936 0)
(1.03327 -0.0358678 0)
(1.07141 -0.0367146 0)
(1.11074 -0.0380329 0)
(1.1518 -0.0398211 0)
(1.19502 -0.0418781 0)
(1.24059 -0.0440785 0)
(1.28839 -0.0457445 0)
(1.33802 -0.0474938 0)
(1.38887 -0.0473829 0)
(1.43949 -0.0469082 0)
(1.48935 -0.044801 0)
(1.53552 -0.041096 0)
(1.57781 -0.02563 0)
(1.61018 -0.0209693 0)
(-3.44152 0.0625572 0)
(-3.48268 0.0470102 0)
(-3.51678 0.0311443 0)
(-3.53813 0.0136201 0)
(-3.54851 -0.00931662 0)
(-3.53986 -0.0315753 0)
(-3.51161 -0.0549764 0)
(-3.46373 -0.0777966 0)
(-3.3972 -0.0994034 0)
(-3.31389 -0.118675 0)
(-3.21599 -0.134956 0)
(-3.10647 -0.147537 0)
(-2.98845 -0.156241 0)
(-2.86529 -0.161181 0)
(-2.73972 -0.162936 0)
(-2.61433 -0.161691 0)
(-2.4911 -0.158341 0)
(-2.37147 -0.153536 0)
(-2.25629 -0.147918 0)
(-2.14586 -0.141966 0)
(-2.04011 -0.13623 0)
(-1.93872 -0.130926 0)
(-1.84125 -0.126168 0)
(-1.74719 -0.121976 0)
(-1.6561 -0.118293 0)
(-1.56762 -0.115028 0)
(-1.48146 -0.112098 0)
(-1.39741 -0.109429 0)
(-1.31534 -0.10691 0)
(-1.23517 -0.104521 0)
(-1.15682 -0.102262 0)
(-1.08026 -0.100024 0)
(-1.0055 -0.0978107 0)
(-0.932472 -0.0956889 0)
(-0.861127 -0.0935995 0)
(-0.791444 -0.0914569 0)
(-0.723445 -0.0892519 0)
(-0.657169 -0.0870012 0)
(-0.592611 -0.0847369 0)
(-0.52972 -0.0824814 0)
(-0.468419 -0.0803228 0)
(-0.408631 -0.0782909 0)
(-0.3503 -0.0763636 0)
(-0.29338 -0.0745424 0)
(-0.237805 -0.0728503 0)
(-0.183483 -0.0713007 0)
(-0.130309 -0.0698985 0)
(-0.0781787 -0.068642 0)
(-0.0269204 -0.0675183 0)
(0.0235071 -0.0665364 0)
(0.0731903 -0.0656921 0)
(0.122326 -0.0649854 0)
(0.170941 -0.0643762 0)
(0.219137 -0.0638739 0)
(0.266986 -0.0634332 0)
(0.314525 -0.0629992 0)
(0.36175 -0.0625399 0)
(0.40862 -0.062002 0)
(0.455058 -0.0613624 0)
(0.500974 -0.0606033 0)
(0.546279 -0.0597649 0)
(0.590911 -0.0588487 0)
(0.634834 -0.0579145 0)
(0.678038 -0.0569384 0)
(0.720512 -0.0559536 0)
(0.762234 -0.0548892 0)
(0.803152 -0.0538448 0)
(0.843201 -0.0529271 0)
(0.88233 -0.0521436 0)
(0.920635 -0.0509753 0)
(0.958284 -0.050086 0)
(0.995565 -0.0497833 0)
(1.03289 -0.0501873 0)
(1.07082 -0.0513703 0)
(1.10996 -0.0533198 0)
(1.1509 -0.0558971 0)
(1.19406 -0.0588759 0)
(1.23967 -0.0619853 0)
(1.28766 -0.0646244 0)
(1.3376 -0.0668978 0)
(1.38888 -0.0672454 0)
(1.44021 -0.0674786 0)
(1.49099 -0.062285 0)
(1.53781 -0.0599693 0)
(1.58415 -0.0423619 0)
(1.62549 -0.0349151 0)
(-3.44658 0.0824582 0)
(-3.48841 0.0628254 0)
(-3.52317 0.0426976 0)
(-3.54499 0.0199792 0)
(-3.55581 -0.00951045 0)
(-3.54811 -0.038752 0)
(-3.52018 -0.0691936 0)
(-3.47196 -0.0990693 0)
(-3.40459 -0.12729 0)
(-3.32025 -0.15239 0)
(-3.22128 -0.173475 0)
(-3.11039 -0.189753 0)
(-2.99102 -0.201105 0)
(-2.86659 -0.207548 0)
(-2.73986 -0.209393 0)
(-2.61352 -0.207833 0)
(-2.48965 -0.203329 0)
(-2.36963 -0.19701 0)
(-2.25426 -0.189683 0)
(-2.14382 -0.182104 0)
(-2.03815 -0.174834 0)
(-1.9369 -0.168148 0)
(-1.83957 -0.162163 0)
(-1.74564 -0.156914 0)
(-1.65465 -0.152317 0)
(-1.56624 -0.148252 0)
(-1.48012 -0.144603 0)
(-1.39605 -0.141248 0)
(-1.31395 -0.138032 0)
(-1.23372 -0.13496 0)
(-1.15532 -0.131998 0)
(-1.07872 -0.129062 0)
(-1.00392 -0.126135 0)
(-0.930879 -0.123229 0)
(-0.859549 -0.120354 0)
(-0.789897 -0.117443 0)
(-0.721941 -0.114467 0)
(-0.65572 -0.111492 0)
(-0.591243 -0.108658 0)
(-0.528459 -0.106021 0)
(-0.467277 -0.10348 0)
(-0.40761 -0.100989 0)
(-0.349397 -0.0985455 0)
(-0.292583 -0.0961791 0)
(-0.237103 -0.0939457 0)
(-0.182866 -0.0918807 0)
(-0.129767 -0.0900104 0)
(-0.0777023 -0.0883396 0)
(-0.0265053 -0.0868484 0)
(0.0238709 -0.08553 0)
(0.0735045 -0.0843921 0)
(0.122598 -0.0834322 0)
(0.171177 -0.08262 0)
(0.21935 -0.0819568 0)
(0.267195 -0.0813772 0)
(0.314751 -0.0808366 0)
(0.362013 -0.080274 0)
(0.408933 -0.0795902 0)
(0.455421 -0.0787835 0)
(0.501382 -0.0778101 0)
(0.54672 -0.0767074 0)
(0.591373 -0.0755248 0)
(0.635307 -0.0743197 0)
(0.678519 -0.0730703 0)
(0.721 -0.0718571 0)
(0.762743 -0.070509 0)
(0.803681 -0.0691056 0)
(0.843779 -0.0672742 0)
(0.882939 -0.0656823 0)
(0.921122 -0.0647309 0)
(0.958511 -0.0641374 0)
(0.995459 -0.0640066 0)
(1.03245 -0.0645162 0)
(1.07008 -0.0659671 0)
(1.10895 -0.0684598 0)
(1.14967 -0.0717983 0)
(1.19271 -0.0756435 0)
(1.23835 -0.0797155 0)
(1.28656 -0.0831653 0)
(1.33691 -0.0860931 0)
(1.38891 -0.0866857 0)
(1.44091 -0.085787 0)
(1.49279 -0.0824531 0)
(1.54191 -0.0754162 0)
(1.58841 -0.0587023 0)
(1.63093 -0.052563 0)
(-3.45267 0.0996314 0)
(-3.49556 0.0752026 0)
(-3.53157 0.0502738 0)
(-3.55444 0.0220639 0)
(-3.56605 -0.0136168 0)
(-3.55855 -0.0493841 0)
(-3.5303 -0.0864196 0)
(-3.48175 -0.122785 0)
(-3.41412 -0.157227 0)
(-3.32873 -0.187858 0)
(-3.22805 -0.21381 0)
(-3.11539 -0.233738 0)
(-2.99418 -0.247258 0)
(-2.86804 -0.2549 0)
(-2.73989 -0.257445 0)
(-2.61244 -0.255173 0)
(-2.48772 -0.249462 0)
(-2.36719 -0.241516 0)
(-2.2516 -0.232334 0)
(-2.14115 -0.222923 0)
(-2.03563 -0.213895 0)
(-1.93457 -0.205566 0)
(-1.83743 -0.198108 0)
(-1.74368 -0.191566 0)
(-1.65283 -0.185834 0)
(-1.56451 -0.180762 0)
(-1.47843 -0.176221 0)
(-1.39437 -0.172089 0)
(-1.31225 -0.168175 0)
(-1.232 -0.16444 0)
(-1.15356 -0.160872 0)
(-1.07695 -0.157306 0)
(-1.00215 -0.15379 0)
(-0.929145 -0.150377 0)
(-0.857872 -0.147023 0)
(-0.7883 -0.143652 0)
(-0.720433 -0.140177 0)
(-0.654301 -0.136607 0)
(-0.589912 -0.133025 0)
(-0.527228 -0.129479 0)
(-0.466149 -0.126112 0)
(-0.406567 -0.122941 0)
(-0.34841 -0.119924 0)
(-0.291631 -0.117059 0)
(-0.236181 -0.114384 0)
(-0.181986 -0.111922 0)
(-0.128947 -0.109695 0)
(-0.0769564 -0.1077 0)
(-0.02584 -0.105914 0)
(0.0244516 -0.104356 0)
(0.0740086 -0.103009 0)
(0.123028 -0.101885 0)
(0.171545 -0.100917 0)
(0.219661 -0.100143 0)
(0.267469 -0.0994677 0)
(0.315015 -0.0988123 0)
(0.362295 -0.0981114 0)
(0.409258 -0.0972794 0)
(0.455806 -0.0962799 0)
(0.501827 -0.095083 0)
(0.547209 -0.0937648 0)
(0.591889 -0.0923121 0)
(0.635829 -0.0908335 0)
(0.679039 -0.0892862 0)
(0.721529 -0.087737 0)
(0.763286 -0.0861216 0)
(0.804247 -0.0844031 0)
(0.844258 -0.0830708 0)
(0.883307 -0.08126 0)
(0.921398 -0.079301 0)
(0.958641 -0.0779307 0)
(0.995337 -0.0775034 0)
(1.03197 -0.0782528 0)
(1.0692 -0.0801443 0)
(1.10773 -0.0831751 0)
(1.14819 -0.0873249 0)
(1.19111 -0.0921922 0)
(1.23681 -0.0973123 0)
(1.28531 -0.101769 0)
(1.33618 -0.10557 0)
(1.38886 -0.106769 0)
(1.44202 -0.106276 0)
(1.49505 -0.10136 0)
(1.5453 -0.0946983 0)
(1.59551 -0.0777205 0)
(1.64096 -0.0659427 0)
(-3.46037 0.120796 0)
(-3.50433 0.0927985 0)
(-3.54128 0.0639894 0)
(-3.56467 0.0304119 0)
(-3.57665 -0.0119508 0)
(-3.57067 -0.0557827 0)
(-3.54349 -0.100492 0)
(-3.49484 -0.144351 0)
(-3.42582 -0.185899 0)
(-3.33871 -0.222936 0)
(-3.23596 -0.253798 0)
(-3.12125 -0.277405 0)
(-2.99814 -0.293772 0)
(-2.87014 -0.302873 0)
(-2.74023 -0.30507 0)
(-2.6113 -0.302157 0)
(-2.48557 -0.295242 0)
(-2.36444 -0.285571 0)
(-2.24858 -0.274627 0)
(-2.13812 -0.263454 0)
(-2.03273 -0.252685 0)
(-1.93186 -0.242784 0)
(-1.83495 -0.234021 0)
(-1.74138 -0.22641 0)
(-1.65066 -0.219789 0)
(-1.56242 -0.213961 0)
(-1.47635 -0.20874 0)
(-1.39226 -0.203931 0)
(-1.31006 -0.199316 0)
(-1.22972 -0.194901 0)
(-1.15119 -0.190629 0)
(-1.07449 -0.186413 0)
(-0.999651 -0.182161 0)
(-0.926631 -0.177984 0)
(-0.855379 -0.173826 0)
(-0.785864 -0.169576 0)
(-0.718088 -0.165269 0)
(-0.652079 -0.160972 0)
(-0.587844 -0.156812 0)
(-0.525325 -0.152945 0)
(-0.464427 -0.149254 0)
(-0.405032 -0.145681 0)
(-0.347059 -0.142189 0)
(-0.290448 -0.138807 0)
(-0.235142 -0.135603 0)
(-0.181068 -0.132628 0)
(-0.128136 -0.129933 0)
(-0.0762404 -0.12754 0)
(-0.0252125 -0.125405 0)
(0.0250037 -0.123529 0)
(0.0744867 -0.121915 0)
(0.123443 -0.120551 0)
(0.171901 -0.119407 0)
(0.219978 -0.118483 0)
(0.267777 -0.117691 0)
(0.315342 -0.116974 0)
(0.362674 -0.116206 0)
(0.409716 -0.11524 0)
(0.456342 -0.114083 0)
(0.502431 -0.112649 0)
(0.547861 -0.111031 0)
(0.592566 -0.109291 0)
(0.636516 -0.107515 0)
(0.679724 -0.105722 0)
(0.72221 -0.10392 0)
(0.763977 -0.101945 0)
(0.804942 -0.0998415 0)
(0.845057 -0.0971292 0)
(0.884079 -0.0951713 0)
(0.922011 -0.0935686 0)
(0.958985 -0.0923035 0)
(0.995317 -0.0917871 0)
(1.03151 -0.0924252 0)
(1.06821 -0.0946597 0)
(1.10619 -0.0984687 0)
(1.14621 -0.103509 0)
(1.18892 -0.109389 0)
(1.23467 -0.115624 0)
(1.28351 -0.121101 0)
(1.33501 -0.125603 0)
(1.38865 -0.127351 0)
(1.44293 -0.126194 0)
(1.49732 -0.122399 0)
(1.54997 -0.112743 0)
(1.6009 -0.0965627 0)
(1.64774 -0.084308 0)
(-3.46844 0.138143 0)
(-3.51399 0.105077 0)
(-3.55292 0.0710179 0)
(-3.57846 0.0308947 0)
(-3.59217 -0.0172033 0)
(-3.58692 -0.0678912 0)
(-3.55902 -0.118849 0)
(-3.50912 -0.169259 0)
(-3.43873 -0.217016 0)
(-3.35018 -0.259553 0)
(-3.24603 -0.295577 0)
(-3.12892 -0.322942 0)
(-3.00308 -0.341222 0)
(-2.87244 -0.351098 0)
(-2.74028 -0.353975 0)
(-2.60979 -0.350462 0)
(-2.48297 -0.341698 0)
(-2.3611 -0.33025 0)
(-2.24497 -0.317299 0)
(-2.13452 -0.304119 0)
(-2.02928 -0.291498 0)
(-1.92867 -0.279952 0)
(-1.83203 -0.269749 0)
(-1.7387 -0.260899 0)
(-1.64814 -0.253195 0)
(-1.55998 -0.246404 0)
(-1.47393 -0.240329 0)
(-1.38979 -0.234794 0)
(-1.30752 -0.229527 0)
(-1.22708 -0.224462 0)
(-1.14847 -0.219573 0)
(-1.07174 -0.214643 0)
(-0.99689 -0.209789 0)
(-0.923921 -0.205016 0)
(-0.852783 -0.200351 0)
(-0.783417 -0.195695 0)
(-0.715805 -0.19092 0)
(-0.649947 -0.186051 0)
(-0.585837 -0.181173 0)
(-0.523456 -0.176336 0)
(-0.462709 -0.17172 0)
(-0.403463 -0.167395 0)
(-0.345614 -0.163299 0)
(-0.289094 -0.159415 0)
(-0.233857 -0.155764 0)
(-0.179852 -0.152396 0)
(-0.126999 -0.149334 0)
(-0.0751953 -0.146595 0)
(-0.0242764 -0.144158 0)
(0.0258263 -0.142021 0)
(0.0752039 -0.140171 0)
(0.124055 -0.138643 0)
(0.172427 -0.137344 0)
(0.220417 -0.136345 0)
(0.268157 -0.135474 0)
(0.315699 -0.134655 0)
(0.363053 -0.133773 0)
(0.410151 -0.132689 0)
(0.456857 -0.131314 0)
(0.503006 -0.129644 0)
(0.548467 -0.127767 0)
(0.593185 -0.125717 0)
(0.637145 -0.123657 0)
(0.680379 -0.121623 0)
(0.72291 -0.119687 0)
(0.764759 -0.117607 0)
(0.805782 -0.115508 0)
(0.845793 -0.113416 0)
(0.884791 -0.110301 0)
(0.922619 -0.107435 0)
(0.959342 -0.105503 0)
(0.99525 -0.104817 0)
(1.03088 -0.105672 0)
(1.06701 -0.108139 0)
(1.10446 -0.112439 0)
(1.14405 -0.118387 0)
(1.18651 -0.125454 0)
(1.23231 -0.132946 0)
(1.28154 -0.13967 0)
(1.33378 -0.145182 0)
(1.38844 -0.147725 0)
(1.44418 -0.146847 0)
(1.50001 -0.142556 0)
(1.55458 -0.132569 0)
(1.60754 -0.116234 0)
(1.6565 -0.0993514 0)
(-3.47878 0.160671 0)
(-3.52622 0.124825 0)
(-3.56673 0.0877943 0)
(-3.59286 0.0432788 0)
(-3.60641 -0.0113756 0)
(-3.60195 -0.0713128 0)
(-3.57513 -0.131228 0)
(-3.52599 -0.190421 0)
(-3.45535 -0.246388 0)
(-3.36503 -0.295938 0)
(-3.25762 -0.337214 0)
(-3.13686 -0.36847 0)
(-3.0079 -0.389513 0)
(-2.87481 -0.401388 0)
(-2.74072 -0.403628 0)
(-2.60829 -0.39832 0)
(-2.47989 -0.388395 0)
(-2.3573 -0.374938 0)
(-2.24087 -0.35989 0)
(-2.13042 -0.344641 0)
(-2.02538 -0.330128 0)
(-1.92508 -0.316975 0)
(-1.82875 -0.305479 0)
(-1.73567 -0.2956 0)
(-1.64527 -0.287057 0)
(-1.55719 -0.279574 0)
(-1.47114 -0.272883 0)
(-1.38693 -0.266694 0)
(-1.30454 -0.26072 0)
(-1.22396 -0.254977 0)
(-1.14522 -0.249368 0)
(-1.06836 -0.243821 0)
(-0.99344 -0.238218 0)
(-0.920455 -0.232668 0)
(-0.849351 -0.227165 0)
(-0.780078 -0.221559 0)
(-0.712605 -0.215886 0)
(-0.646942 -0.210211 0)
(-0.583075 -0.204716 0)
(-0.520942 -0.199594 0)
(-0.460433 -0.194796 0)
(-0.401412 -0.19017 0)
(-0.343786 -0.185662 0)
(-0.287481 -0.181299 0)
(-0.232437 -0.177153 0)
(-0.178598 -0.173288 0)
(-0.125893 -0.169765 0)
(-0.0742282 -0.166647 0)
(-0.0234213 -0.163866 0)
(0.026582 -0.161443 0)
(0.0758651 -0.159358 0)
(0.124637 -0.157587 0)
(0.172918 -0.156118 0)
(0.220848 -0.154933 0)
(0.268541 -0.153976 0)
(0.316086 -0.153121 0)
(0.3635 -0.152174 0)
(0.410706 -0.150966 0)
(0.457531 -0.149465 0)
(0.503803 -0.147594 0)
(0.549352 -0.145476 0)
(0.594111 -0.143167 0)
(0.638082 -0.140749 0)
(0.681314 -0.138271 0)
(0.723876 -0.135789 0)
(0.765774 -0.133218 0)
(0.806962 -0.130094 0)
(0.847159 -0.12696 0)
(0.886043 -0.124497 0)
(0.923601 -0.12209 0)
(0.959918 -0.120075 0)
(0.995272 -0.119144 0)
(1.03021 -0.119899 0)
(1.06553 -0.122809 0)
(1.10223 -0.127732 0)
(1.14125 -0.134647 0)
(1.1834 -0.14291 0)
(1.22923 -0.151738 0)
(1.2789 -0.159757 0)
(1.33197 -0.166442 0)
(1.38785 -0.169825 0)
(1.44513 -0.168747 0)
(1.50266 -0.165071 0)
(1.55952 -0.153433 0)
(1.61401 -0.13671 0)
(1.66461 -0.119045 0)
(-3.48849 0.179401 0)
(-3.53788 0.138275 0)
(-3.58069 0.0949958 0)
(-3.61006 0.0413544 0)
(-3.62662 -0.0203561 0)
(-3.62471 -0.088859 0)
(-3.598 -0.154204 0)
(-3.54751 -0.218931 0)
(-3.47404 -0.280007 0)
(-3.38015 -0.334594 0)
(-3.26917 -0.381217 0)
(-3.14589 -0.41652 0)
(-3.01448 -0.439537 0)
(-2.87842 -0.450947 0)
(-2.74087 -0.453216 0)
(-2.6059 -0.447887 0)
(-2.47631 -0.435845 0)
(-2.35292 -0.419925 0)
(-2.23611 -0.402662 0)
(-2.1257 -0.385167 0)
(-2.02093 -0.368699 0)
(-1.92103 -0.353872 0)
(-1.8251 -0.340969 0)
(-1.73232 -0.329922 0)
(-1.64213 -0.320369 0)
(-1.55413 -0.311982 0)
(-1.46805 -0.304476 0)
(-1.38373 -0.297617 0)
(-1.30118 -0.291046 0)
(-1.22042 -0.284661 0)
(-1.14152 -0.278419 0)
(-1.06458 -0.272078 0)
(-0.989627 -0.265766 0)
(-0.916707 -0.25954 0)
(-0.845777 -0.25346 0)
(-0.776727 -0.24744 0)
(-0.709506 -0.241286 0)
(-0.64408 -0.235055 0)
(-0.580412 -0.228831 0)
(-0.51846 -0.222716 0)
(-0.458135 -0.216899 0)
(-0.399297 -0.211481 0)
(-0.341832 -0.206363 0)
(-0.285663 -0.201492 0)
(-0.230745 -0.196879 0)
(-0.177034 -0.192605 0)
(-0.124463 -0.188732 0)
(-0.0729321 -0.185266 0)
(-0.0222783 -0.182188 0)
(0.0275818 -0.179483 0)
(0.0767191 -0.177145 0)
(0.125335 -0.175209 0)
(0.173475 -0.173621 0)
(0.221278 -0.172419 0)
(0.268906 -0.171456 0)
(0.316458 -0.170557 0)
(0.363938 -0.169564 0)
(0.411256 -0.168267 0)
(0.458226 -0.166535 0)
(0.504628 -0.164352 0)
(0.550274 -0.161895 0)
(0.595093 -0.159323 0)
(0.639086 -0.15684 0)
(0.682307 -0.154462 0)
(0.724851 -0.152037 0)
(0.766771 -0.149383 0)
(0.807867 -0.146844 0)
(0.848083 -0.143316 0)
(0.887137 -0.139078 0)
(0.92469 -0.135255 0)
(0.960691 -0.132435 0)
(0.995437 -0.131105 0)
(1.02957 -0.13183 0)
(1.06404 -0.134891 0)
(1.09988 -0.140723 0)
(1.13821 -0.14876 0)
(1.17997 -0.158436 0)
(1.22581 -0.16881 0)
(1.27595 -0.178376 0)
(1.33001 -0.186139 0)
(1.38725 -0.190584 0)
(1.44629 -0.189868 0)
(1.50567 -0.186229 0)
(1.56471 -0.174112 0)
(1.62129 -0.156358 0)
(1.6734 -0.136886 0)
(-3.50144 0.201288 0)
(-3.55416 0.158418 0)
(-3.60007 0.113474 0)
(-3.63156 0.058535 0)
(-3.64807 -0.00682857 0)
(-3.64511 -0.0835152 0)
(-3.61839 -0.158898 0)
(-3.56735 -0.23475 0)
(-3.493 -0.307647 0)
(-3.39821 -0.372294 0)
(-3.28551 -0.425517 0)
(-3.15802 -0.464429 0)
(-3.02155 -0.489395 0)
(-2.88082 -0.503597 0)
(-2.74031 -0.505766 0)
(-2.60365 -0.49786 0)
(-2.47244 -0.482922 0)
(-2.3478 -0.465347 0)
(-2.23074 -0.445387 0)
(-2.1204 -0.42559 0)
(-2.016 -0.40709 0)
(-1.91656 -0.3906 0)
(-1.82107 -0.37643 0)
(-1.72862 -0.364417 0)
(-1.63863 -0.354097 0)
(-1.55071 -0.345113 0)
(-1.46459 -0.337087 0)
(-1.38015 -0.329609 0)
(-1.29743 -0.322313 0)
(-1.21646 -0.31521 0)
(-1.13738 -0.30817 0)
(-1.06026 -0.301138 0)
(-0.985211 -0.294105 0)
(-0.912258 -0.287173 0)
(-0.84137 -0.280303 0)
(-0.772465 -0.273363 0)
(-0.705467 -0.26635 0)
(-0.640339 -0.259332 0)
(-0.577022 -0.25246 0)
(-0.515414 -0.245983 0)
(-0.455396 -0.239972 0)
(-0.396855 -0.234249 0)
(-0.33968 -0.228739 0)
(-0.283775 -0.223437 0)
(-0.229077 -0.218375 0)
(-0.175548 -0.21361 0)
(-0.123134 -0.209247 0)
(-0.0717518 -0.205375 0)
(-0.0212255 -0.201954 0)
(0.0285167 -0.198962 0)
(0.0775312 -0.196389 0)
(0.126039 -0.194205 0)
(0.174068 -0.192406 0)
(0.221795 -0.190999 0)
(0.269385 -0.189921 0)
(0.316967 -0.189003 0)
(0.364568 -0.187978 0)
(0.412063 -0.186598 0)
(0.459215 -0.184719 0)
(0.505756 -0.182332 0)
(0.551453 -0.179579 0)
(0.59625 -0.176451 0)
(0.640204 -0.17328 0)
(0.683511 -0.170137 0)
(0.726145 -0.167558 0)
(0.768205 -0.164711 0)
(0.809584 -0.161123 0)
(0.849833 -0.157624 0)
(0.888722 -0.153975 0)
(0.926042 -0.150165 0)
(0.961631 -0.146959 0)
(0.995703 -0.145266 0)
(1.02892 -0.145841 0)
(1.06231 -0.149393 0)
(1.09712 -0.155805 0)
(1.13457 -0.164968 0)
(1.17582 -0.176124 0)
(1.22163 -0.188193 0)
(1.27228 -0.199417 0)
(1.32735 -0.208748 0)
(1.38618 -0.214264 0)
(1.4472 -0.213847 0)
(1.5087 -0.210664 0)
(1.57006 -0.197653 0)
(1.62881 -0.178869 0)
(1.6826 -0.15807 0)
(-3.51709 0.227445 0)
(-3.57387 0.178335 0)
(-3.62388 0.125479 0)
(-3.66129 0.0581694 0)
(-3.6839 -0.0211236 0)
(-3.6884 -0.11406 0)
(-3.66355 -0.197786 0)
(-3.611 -0.278853 0)
(-3.5325 -0.353173 0)
(-3.42945 -0.417316 0)
(-3.30709 -0.472682 0)
(-3.17088 -0.515089 0)
(-3.02882 -0.542622 0)
(-2.88476 -0.556109 0)
(-2.74109 -0.55692 0)
(-2.60105 -0.547268 0)
(-2.46728 -0.532076 0)
(-2.34202 -0.510738 0)
(-2.22459 -0.488257 0)
(-2.11442 -0.46592 0)
(-2.01048 -0.44533 0)
(-1.91163 -0.427128 0)
(-1.81668 -0.411524 0)
(-1.72465 -0.398425 0)
(-1.6349 -0.387257 0)
(-1.54706 -0.37747 0)
(-1.46087 -0.368697 0)
(-1.37623 -0.360645 0)
(-1.29322 -0.352906 0)
(-1.21197 -0.345344 0)
(-1.13261 -0.337834 0)
(-1.05535 -0.330211 0)
(-0.980307 -0.322447 0)
(-0.907538 -0.314562 0)
(-0.836955 -0.306746 0)
(-0.768401 -0.299074 0)
(-0.701796 -0.291413 0)
(-0.637035 -0.283793 0)
(-0.574004 -0.276324 0)
(-0.512666 -0.269059 0)
(-0.452949 -0.262141 0)
(-0.394704 -0.25566 0)
(-0.337785 -0.24953 0)
(-0.282095 -0.243697 0)
(-0.227578 -0.238194 0)
(-0.174218 -0.23307 0)
(-0.121967 -0.22842 0)
(-0.070741 -0.224262 0)
(-0.0203839 -0.220575 0)
(0.0291902 -0.217341 0)
(0.0780302 -0.214556 0)
(0.126354 -0.212243 0)
(0.174201 -0.210398 0)
(0.221763 -0.209049 0)
(0.269257 -0.208071 0)
(0.316852 -0.207218 0)
(0.364565 -0.206227 0)
(0.412264 -0.204791 0)
(0.459656 -0.202737 0)
(0.506429 -0.200003 0)
(0.552267 -0.196918 0)
(0.597052 -0.193721 0)
(0.640849 -0.190744 0)
(0.683933 -0.187893 0)
(0.726666 -0.18429 0)
(0.768854 -0.180783 0)
(0.810385 -0.177074 0)
(0.851024 -0.172497 0)
(0.890193 -0.167359 0)
(0.927397 -0.162387 0)
(0.962532 -0.158326 0)
(0.995865 -0.156048 0)
(1.02807 -0.156584 0)
(1.06032 -0.160365 0)
(1.09398 -0.16772 0)
(1.13049 -0.178284 0)
(1.17118 -0.191253 0)
(1.21697 -0.205363 0)
(1.26822 -0.218686 0)
(1.32444 -0.229932 0)
(1.38492 -0.236815 0)
(1.44817 -0.236416 0)
(1.51202 -0.233255 0)
(1.57587 -0.219575 0)
(1.637 -0.199194 0)
(1.6926 -0.176702 0)
(-3.53353 0.240194 0)
(-3.60621 0.188753 0)
(-3.67724 0.135575 0)
(-3.74196 0.0718802 0)
(-3.78858 0.00168109 0)
(-3.81276 -0.0895151 0)
(-3.79658 -0.181704 0)
(-3.73435 -0.273142 0)
(-3.64351 -0.364185 0)
(-3.52006 -0.447749 0)
(-3.37887 -0.517588 0)
(-3.22113 -0.567706 0)
(-3.05658 -0.596331 0)
(-2.89565 -0.611498 0)
(-2.74289 -0.61229 0)
(-2.59752 -0.601472 0)
(-2.46213 -0.580262 0)
(-2.33542 -0.556757 0)
(-2.21771 -0.53109 0)
(-2.10777 -0.50614 0)
(-2.00441 -0.483354 0)
(-1.90617 -0.463493 0)
(-1.81176 -0.446822 0)
(-1.72015 -0.433023 0)
(-1.63067 -0.420997 0)
(-1.54286 -0.410653 0)
(-1.45655 -0.401464 0)
(-1.37174 -0.392811 0)
(-1.28855 -0.384227 0)
(-1.20711 -0.375666 0)
(-1.12764 -0.367025 0)
(-1.05032 -0.358304 0)
(-0.975185 -0.349652 0)
(-0.90226 -0.341183 0)
(-0.83158 -0.332864 0)
(-0.763087 -0.324663 0)
(-0.696754 -0.316236 0)
(-0.632388 -0.307763 0)
(-0.569849 -0.299473 0)
(-0.509008 -0.291616 0)
(-0.449733 -0.284321 0)
(-0.391899 -0.277494 0)
(-0.335365 -0.271017 0)
(-0.280009 -0.26479 0)
(-0.22576 -0.258815 0)
(-0.17262 -0.253163 0)
(-0.120569 -0.247975 0)
(-0.0695525 -0.243349 0)
(-0.0194144 -0.239266 0)
(0.0299434 -0.235677 0)
(0.0785497 -0.232571 0)
(0.126651 -0.229936 0)
(0.174283 -0.227806 0)
(0.221672 -0.226234 0)
(0.269056 -0.225157 0)
(0.316631 -0.224331 0)
(0.364442 -0.223364 0)
(0.412328 -0.22187 0)
(0.459958 -0.219598 0)
(0.506908 -0.216623 0)
(0.552905 -0.212984 0)
(0.597832 -0.209011 0)
(0.641715 -0.20544 0)
(0.684799 -0.202441 0)
(0.727319 -0.200027 0)
(0.769541 -0.197202 0)
(0.811225 -0.193538 0)
(0.851845 -0.189214 0)
(0.890904 -0.184177 0)
(0.927855 -0.178816 0)
(0.962424 -0.174105 0)
(0.994823 -0.171261 0)
(1.02578 -0.171413 0)
(1.05653 -0.175376 0)
(1.08882 -0.183243 0)
(1.12427 -0.194923 0)
(1.16438 -0.209533 0)
(1.21023 -0.225521 0)
(1.26232 -0.240509 0)
(1.32025 -0.252708 0)
(1.38285 -0.261193 0)
(1.44858 -0.262069 0)
(1.51514 -0.259661 0)
(1.58181 -0.245552 0)
(1.64568 -0.223872 0)
(1.70346 -0.199758 0)
(-4.36069 0.275925 0)
(-4.79004 0.225322 0)
(-5.18621 0.167443 0)
(-5.44753 0.0996937 0)
(-5.53486 -0.000943333 0)
(-5.34148 -0.134421 0)
(-5.02716 -0.268814 0)
(-4.66226 -0.389849 0)
(-4.29645 -0.4858 0)
(-3.96055 -0.560964 0)
(-3.66242 -0.609985 0)
(-3.40494 -0.64571 0)
(-3.17785 -0.668188 0)
(-2.96888 -0.673255 0)
(-2.77693 -0.665546 0)
(-2.60591 -0.648964 0)
(-2.45935 -0.628366 0)
(-2.32911 -0.60223 0)
(-2.21038 -0.573821 0)
(-2.10052 -0.545994 0)
(-1.9977 -0.520952 0)
(-1.90009 -0.499326 0)
(-1.80628 -0.481534 0)
(-1.7152 -0.466107 0)
(-1.62594 -0.453492 0)
(-1.53819 -0.442616 0)
(-1.45178 -0.432829 0)
(-1.36668 -0.423733 0)
(-1.28309 -0.414895 0)
(-1.20119 -0.406133 0)
(-1.12124 -0.397258 0)
(-1.04352 -0.387811 0)
(-0.968176 -0.37795 0)
(-0.895275 -0.368223 0)
(-0.824825 -0.358893 0)
(-0.756776 -0.349581 0)
(-0.690798 -0.340473 0)
(-0.626726 -0.331565 0)
(-0.564439 -0.322881 0)
(-0.503861 -0.314521 0)
(-0.444885 -0.306625 0)
(-0.387349 -0.29922 0)
(-0.331094 -0.292261 0)
(-0.276017 -0.285663 0)
(-0.222059 -0.279379 0)
(-0.169216 -0.273452 0)
(-0.117444 -0.268013 0)
(-0.066684 -0.263165 0)
(-0.0167948 -0.25889 0)
(0.0323048 -0.255156 0)
(0.0806433 -0.251945 0)
(0.128443 -0.249276 0)
(0.175753 -0.247203 0)
(0.222844 -0.245779 0)
(0.270016 -0.244903 0)
(0.31752 -0.244239 0)
(0.365391 -0.243394 0)
(0.413433 -0.241907 0)
(0.461237 -0.239487 0)
(0.508313 -0.236101 0)
(0.554275 -0.232036 0)
(0.598901 -0.228083 0)
(0.642553 -0.223898 0)
(0.685513 -0.219863 0)
(0.728155 -0.215793 0)
(0.770554 -0.211712 0)
(0.812569 -0.20712 0)
(0.853661 -0.201506 0)
(0.892991 -0.194982 0)
(0.929859 -0.188217 0)
(0.963887 -0.182342 0)
(0.995249 -0.178561 0)
(1.02483 -0.178202 0)
(1.05396 -0.182504 0)
(1.08437 -0.191758 0)
(1.11807 -0.20544 0)
(1.157 -0.222237 0)
(1.20252 -0.240684 0)
(1.25499 -0.258893 0)
(1.31396 -0.274598 0)
(1.37861 -0.285054 0)
(1.44709 -0.286178 0)
(1.51653 -0.283878 0)
(1.58618 -0.269079 0)
(1.65303 -0.245542 0)
(1.71322 -0.219173 0)
(-4.00098 0.464625 0)
(-4.02913 0.401801 0)
(-2.96053 0.289341 0)
(-2.07586 0.151213 0)
(-2.37877 -0.0294966 0)
(-2.71343 -0.222481 0)
(-3.14429 -0.365301 0)
(-3.51195 -0.48024 0)
(-3.67686 -0.567748 0)
(-3.53448 -0.640225 0)
(-3.41475 -0.690992 0)
(-3.28335 -0.71617 0)
(-3.15098 -0.726048 0)
(-3.01953 -0.728591 0)
(-2.87625 -0.722569 0)
(-2.69448 -0.700633 0)
(-2.49734 -0.668055 0)
(-2.33623 -0.63366 0)
(-2.2084 -0.602452 0)
(-2.09626 -0.573012 0)
(-1.99301 -0.546452 0)
(-1.89547 -0.523754 0)
(-1.80175 -0.504671 0)
(-1.71042 -0.489691 0)
(-1.62142 -0.477196 0)
(-1.53382 -0.465959 0)
(-1.4474 -0.455763 0)
(-1.36224 -0.445986 0)
(-1.27859 -0.436268 0)
(-1.19665 -0.426551 0)
(-1.11668 -0.416918 0)
(-1.03873 -0.407327 0)
(-0.962995 -0.397708 0)
(-0.889826 -0.38781 0)
(-0.819302 -0.377761 0)
(-0.751225 -0.36784 0)
(-0.685458 -0.358006 0)
(-0.62181 -0.348322 0)
(-0.560038 -0.338918 0)
(-0.499939 -0.329966 0)
(-0.441345 -0.32161 0)
(-0.384095 -0.313818 0)
(-0.328049 -0.306485 0)
(-0.273112 -0.299491 0)
(-0.219243 -0.2928 0)
(-0.166442 -0.286474 0)
(-0.114709 -0.280633 0)
(-0.0639911 -0.275419 0)
(-0.0141514 -0.270814 0)
(0.0348967 -0.26676 0)
(0.0831777 -0.26325 0)