/*--------------------------------*- C++ -*----------------------------------*\
| =========                 |                                                 |
| \\      /  F ield         | OpenFOAM: The Open Source CFD Toolbox           |
|  \\    /   O peration     | Version:  v1912                                 |
|   \\  /    A nd           | Website:  www.openfoam.com                      |
|    \\/     M anipulation  |                                                 |
\*---------------------------------------------------------------------------*/
FoamFile
{
    version     2.0;
    format      ascii;
    class       surfaceScalarField;
    location    "20";
    object      alphaPhi0.water;
}
// * * * * * * * * * * * * * * * * * * * * * * * * * * * * * * * * * * * * * //

dimensions      [0 3 -1 0 0 0 0];
oriented        oriented;


internalField   nonuniform List<scalar> 
28285
(
-1.05098e-75
-3.83689e-77
-2.00084e-77
-7.29307e-79
-3.60427e-79
-1.31209e-80
-6.1459e-81
-2.23514e-82
-9.9238e-83
-3.60648e-84
-1.51793e-84
-5.5138e-86
-2.20013e-86
-7.98997e-88
-3.02282e-88
-1.09774e-89
-3.93797e-90
-1.43033e-91
-4.86579e-92
-1.76797e-93
-5.70391e-94
-2.07362e-95
-6.34514e-96
-2.30836e-97
-6.69984e-98
-2.43949e-99
-6.71647e-100
-2.448e-101
-6.39389e-102
-2.33306e-103
-5.7813e-104
-2.11219e-105
-4.96598e-106
-1.8168e-107
-4.05307e-108
-1.485e-109
-3.14366e-110
-1.15362e-111
-2.31757e-112
-8.51895e-114
-1.6242e-114
-5.98076e-116
-1.08224e-116
-3.99242e-118
-6.8571e-119
-2.53445e-120
-4.13191e-121
-1.53022e-122
-2.36814e-123
-8.78813e-125
-1.29111e-125
-4.80137e-127
-6.69679e-128
-2.49578e-129
-3.30496e-130
-1.23443e-131
-1.55207e-132
-5.81017e-134
-6.93651e-135
-2.60267e-136
-2.95056e-137
-1.10968e-138
-1.19465e-139
-4.50371e-141
-4.60468e-142
-1.74011e-143
-1.68974e-144
-6.40117e-146
-5.90399e-147
-2.24214e-148
-1.96438e-149
-7.47877e-151
-6.22453e-152
-2.3758e-153
-1.87862e-154
-7.18875e-156
-5.40104e-157
-2.07211e-158
-1.47938e-159
-5.69043e-161
-3.86111e-162
-1.48908e-163
-9.6038e-165
-3.71362e-166
-2.27694e-167
-8.82734e-169
-5.14666e-170
-2.00067e-171
-1.10933e-172
-4.32395e-174
-2.28069e-175
-8.91371e-177
-4.47364e-178
-1.7532e-179
-8.37492e-181
-3.29103e-182
-1.49683e-183
-5.89807e-185
-2.55504e-186
-1.00955e-187
-4.1671e-189
-1.65104e-190
-6.49633e-192
-2.58102e-193
-9.68497e-195
-3.85856e-196
-1.38144e-197
-5.51905e-199
-1.88613e-200
-7.55632e-202
-2.4662e-203
-9.90787e-205
-3.08952e-206
-1.24469e-207
-3.70967e-209
-1.49873e-210
-4.27082e-212
-1.73029e-213
-4.71557e-215
-1.91587e-216
-4.99437e-218
-2.03488e-219
-5.07439e-221
-2.07334e-222
-4.94572e-224
-2.0265e-225
-4.62337e-227
-1.8998e-228
-4.14446e-230
-1.70786e-231
-3.56139e-233
-1.47177e-234
-2.93253e-236
-1.21535e-237
-2.31282e-239
-9.61257e-241
-1.74627e-242
-7.27864e-244
-1.26162e-245
-5.27366e-247
-8.71728e-249
-3.65435e-250
-5.75771e-252
-2.4206e-253
-3.63354e-255
-1.53198e-256
-2.18989e-258
-9.25964e-260
-1.25994e-261
-5.34283e-263
-6.9173e-265
-2.94178e-266
-3.62269e-268
-1.54511e-269
-1.80922e-271
-7.73887e-273
-8.61373e-275
-3.69513e-276
-3.90851e-278
-1.68154e-279
-1.68985e-281
-7.29124e-283
-6.95991e-285
-3.01173e-286
-2.73019e-288
-1.18486e-289
-1.01985e-291
-4.43884e-293
-3.62712e-295
-1.58328e-296
-1.22801e-298
-5.37596e-300
-3.95722e-302
-1.73744e-303
-1.21359e-305
-5.34382e-307
-3.54154e-309
-1.56402e-310
-9.83325e-313
-4.35511e-314
-2.59739e-316
-1.15377e-317
-6.52611e-320
-2.90511e-321
-1.4822e-323
0
0
0
0
0
0
0
0
0
0
0
0
0
0
0
0
0
0
0
0
0
0
0
0
0
0
0
0
0
0
0
0
0
0
0
0
0
0
0
0
0
0
0
0
0
0
0
0
0
0
0
0
0
0
0
0
0
0
0
0
0
0
0
0
0
0
0
0
0
0
0
0
0
0
0
0
0
0
0
0
0
0
0
0
0
0
0
0
0
0
0
0
0
0
0
0
0
0
0
0
0
0
0
0
0
0
0
0
0
0
0
0
0
0
0
-2.37385e-75
-1.73471e-76
-4.31061e-77
-3.14508e-78
-7.40415e-79
-5.3953e-80
-1.20353e-80
-8.76135e-82
-1.85215e-82
-1.34734e-83
-2.69966e-84
-1.96293e-85
-3.7285e-86
-2.71035e-87
-4.88109e-88
-3.54812e-89
-6.05931e-90
-4.40537e-91
-7.13532e-92
-5.18957e-93
-7.97343e-94
-5.80228e-95
-8.4582e-96
-6.1594e-97
-8.52059e-98
-6.21016e-99
-8.15422e-100
-5.94908e-101
-7.41621e-102
-5.41679e-103
-6.41274e-104
-4.68975e-105
-5.27411e-106
-3.86234e-107
-4.12757e-108
-3.02718e-109
-3.07532e-110
-2.25901e-111
-2.18257e-112
-1.60591e-113
-1.4763e-114
-1.08815e-115
-9.52328e-117
-7.03235e-118
-5.86279e-119
-4.33758e-120
-3.44711e-121
-2.5554e-122
-1.93728e-123
-1.43907e-124
-1.04158e-125
-7.75349e-127
-5.36231e-128
-4.0003e-129
-2.64588e-130
-1.9782e-131
-1.2524e-132
-9.38477e-134
-5.69177e-135
-4.27491e-136
-2.48553e-137
-1.87118e-138
-1.0436e-139
-7.87526e-141
-4.215e-142
-3.18843e-143
-1.63803e-144
-1.24212e-145
-6.12536e-147
-4.6564e-148
-2.20371e-149
-1.67942e-150
-7.62485e-152
-5.82556e-153
-2.53593e-154
-1.94247e-155
-8.10195e-157
-6.22196e-158
-2.4847e-159
-1.91311e-160
-7.30895e-162
-5.64239e-163
-2.06063e-164
-1.59499e-165
-5.56401e-167
-4.31787e-168
-1.43785e-169
-1.11884e-170
-3.55387e-172
-2.77284e-173
-8.39652e-175
-6.56894e-176
-1.89534e-177
-1.48683e-178
-4.08575e-180
-3.21386e-181
-8.40785e-183
-6.63172e-184
-1.65113e-185
-1.30591e-186
-3.09341e-188
-2.45338e-189
-5.5277e-191
-4.39614e-192
-9.41917e-194
-7.51179e-195
-1.53025e-196
-1.22377e-197
-2.36987e-199
-1.9005e-200
-3.49818e-202
-2.81319e-203
-4.92109e-205
-3.96857e-206
-6.59683e-208
-5.33491e-209
-8.42604e-211
-6.8334e-212
-1.02539e-213
-8.33921e-215
-1.18876e-216
-9.69522e-218
-1.31284e-219
-1.07375e-220
-1.38105e-222
-1.13274e-223
-1.38375e-225
-1.13818e-226
-1.32047e-228
-1.08922e-229
-1.20005e-231
-9.92709e-233
-1.03858e-234
-8.6159e-236
-8.55901e-238
-7.12074e-239
-6.71627e-241
-5.60367e-242
-5.01796e-244
-4.19869e-245
-3.5694e-247
-2.99521e-248
-2.41716e-250
-2.03415e-251
-1.55824e-253
-1.31511e-254
-9.5621e-257
-8.09335e-258
-5.58518e-260
-4.74094e-261
-3.10499e-263
-2.64325e-264
-1.64284e-266
-1.40258e-267
-8.27206e-270
-7.08267e-271
-3.96359e-273
-3.40354e-274
-1.80714e-276
-1.55629e-277
-7.83964e-280
-6.77101e-281
-3.23572e-283
-2.80276e-284
-1.27054e-286
-1.10373e-287
-4.74588e-290
-4.13478e-291
-1.68627e-293
-1.47342e-294
-5.6989e-297
-4.99401e-298
-1.83178e-300
-1.60989e-301
-5.59947e-304
-4.93548e-305
-1.62771e-307
-1.43888e-308
-4.49917e-311
-3.98878e-312
-1.18244e-314
-1.05138e-315
-2.95453e-318
-2.63461e-319
-7.01573e-322
-6.42285e-323
0
0
0
0
0
0
0
0
0
0
0
0
0
0
0
0
0
0
0
0
0
0
0
0
0
0
0
0
0
0
0
0
0
0
0
0
0
0
0
0
0
0
0
0
0
0
0
0
0
0
0
0
0
0
0
0
0
0
0
0
0
0
0
0
0
0
0
0
0
0
0
0
0
0
0
0
0
0
0
0
0
0
0
0
0
0
0
0
0
0
0
0
0
0
0
0
0
0
0
0
0
0
0
0
0
0
0
0
0
0
0
0
0
0
-1.45837e-74
-1.59912e-75
-2.7498e-76
-3.01043e-77
-4.92029e-78
-5.37982e-79
-8.36052e-80
-9.13235e-81
-1.34993e-81
-1.47349e-82
-2.07248e-83
-2.26111e-84
-3.02707e-85
-3.3018e-86
-4.20862e-87
-4.59048e-88
-5.57259e-89
-6.07928e-90
-7.03018e-91
-7.67222e-92
-8.45356e-93
-9.2306e-94
-9.69227e-95
-1.05906e-95
-1.05986e-96
-1.15909e-97
-1.10564e-98
-1.21037e-99
-1.10051e-100
-1.20612e-101
-1.04534e-102
-1.1471e-103
-9.47624e-105
-1.0413e-105
-8.19884e-107
-9.02262e-108
-6.77037e-109
-7.46237e-110
-5.33589e-111
-5.89111e-112
-4.01345e-113
-4.43885e-114
-2.88082e-115
-3.19203e-116
-1.9732e-117
-2.19054e-118
-1.28956e-119
-1.43444e-120
-8.0406e-122
-8.96222e-123
-4.78267e-124
-5.34208e-125
-2.7136e-126
-3.03755e-127
-1.4685e-128
-1.64744e-129
-7.57905e-131
-8.52181e-132
-3.73021e-133
-4.20388e-134
-1.75064e-135
-1.97756e-136
-7.83375e-138
-8.87028e-139
-3.34215e-140
-3.79353e-141
-1.35938e-142
-1.54675e-143
-5.27092e-145
-6.01232e-146
-1.94825e-147
-2.22786e-148
-6.86424e-150
-7.86932e-151
-2.30524e-152
-2.64954e-153
-7.37898e-155
-8.503e-156
-2.25123e-157
-2.60091e-158
-6.54596e-160
-7.58262e-161
-1.81402e-162
-2.10687e-163
-4.79089e-165
-5.57874e-166
-1.20582e-167
-1.40792e-168
-2.89223e-170
-3.38607e-171
-6.6108e-173
-7.76049e-174
-1.43991e-175
-1.69491e-176
-2.98858e-178
-3.52744e-179
-5.91062e-181
-6.99544e-182
-1.11386e-183
-1.32191e-184
-2.00005e-186
-2.38018e-187
-3.42182e-189
-4.08343e-190
-5.57783e-192
-6.67479e-193
-8.66268e-195
-1.03952e-195
-1.28176e-197
-1.54238e-198
-1.80681e-200
-2.18028e-201
-2.42638e-203
-2.93612e-204
-3.10404e-206
-3.76671e-207
-3.78273e-209
-4.60322e-210
-4.39112e-212
-5.35866e-213
-4.85537e-215
-5.94196e-216
-5.11362e-218
-6.27573e-219
-5.12951e-221
-6.3131e-222
-4.90057e-224
-6.04849e-225
-4.45885e-227
-5.51897e-228
-3.86352e-230
-4.79573e-231
-3.18793e-233
-3.96844e-234
-2.50484e-236
-3.12702e-237
-1.87402e-239
-2.34622e-240
-1.33496e-242
-1.67613e-243
-9.0541e-246
-1.14006e-246
-5.84625e-249
-7.38257e-250
-3.59371e-252
-4.55117e-253
-2.1029e-255
-2.67084e-256
-1.17133e-258
-1.49197e-259
-6.21011e-262
-7.93293e-263
-3.13369e-265
-4.01463e-266
-1.50495e-268
-1.93359e-269
-6.87812e-272
-8.86281e-273
-2.9914e-275
-3.86575e-276
-1.23797e-278
-1.60446e-279
-4.87466e-282
-6.33611e-283
-1.82622e-285
-2.38064e-286
-6.50892e-289
-8.50963e-290
-2.20689e-292
-2.89364e-293
-7.11769e-296
-9.35981e-297
-2.18351e-299
-2.8797e-300
-6.3709e-303
-8.42668e-304
-1.76784e-306
-2.34512e-307
-4.66502e-310
-6.20637e-311
-1.17058e-313
-1.56191e-314
-2.79288e-317
-3.73735e-318
-6.33392e-321
-8.49793e-322
0
0
0
0
0
0
0
0
0
0
0
0
0
0
0
0
0
0
0
0
0
0
0
0
0
0
0
0
0
0
0
0
0
0
0
0
0
0
0
0
0
0
0
0
0
0
0
0
0
0
0
0
0
0
0
0
0
0
0
0
0
0
0
0
0
0
0
0
0
0
0
0
0
0
0
0
0
0
0
0
0
0
0
0
0
0
0
0
0
0
0
0
0
0
0
0
0
0
0
0
0
0
0
0
0
0
0
0
0
0
0
0
0
0
-7.39985e-75
-1.08196e-75
-1.4107e-76
-2.0594e-77
-2.55897e-78
-3.73096e-79
-4.42004e-80
-6.43804e-81
-7.27434e-82
-1.05879e-82
-1.14132e-83
-1.66043e-84
-1.70792e-85
-2.48414e-86
-2.43857e-87
-3.54678e-88
-3.323e-89
-4.834e-90
-4.32251e-91
-6.2903e-92
-5.36785e-93
-7.81576e-94
-6.36415e-95
-9.27296e-96
-7.20356e-97
-1.05051e-97
-7.78379e-99
-1.13626e-99
-8.02832e-101
-1.17328e-101
-7.90297e-103
-1.15642e-103
-7.42373e-105
-1.08779e-105
-6.65354e-107
-9.76373e-108
-5.68868e-109
-8.36103e-110
-4.63907e-111
-6.82975e-112
-3.60784e-113
-5.32089e-114
-2.67548e-115
-3.95309e-116
-1.89164e-117
-2.8003e-118
-1.275e-119
-1.8912e-120
-8.19176e-122
-1.21756e-122
-5.01647e-124
-7.4718e-125
-2.92781e-126
-4.37027e-127
-1.62849e-128
-2.43618e-129
-8.63173e-131
-1.29421e-131
-4.35979e-133
-6.55195e-134
-2.09831e-135
-3.16077e-136
-9.62275e-138
-1.45297e-138
-4.20476e-140
-6.36426e-141
-1.7506e-142
-2.65618e-143
-6.94428e-145
-1.05627e-145
-2.62456e-147
-4.00215e-148
-9.45082e-150
-1.4448e-150
-3.24235e-152
-4.96945e-153
-1.0598e-154
-1.62852e-155
-3.30031e-157
-5.08459e-158
-9.79151e-160
-1.51249e-160
-2.7676e-162
-4.28645e-163
-7.45269e-165
-1.15726e-165
-1.91193e-167
-2.9769e-168
-4.67277e-170
-7.2952e-171
-1.08796e-172
-1.70314e-173
-2.41316e-175
-3.78792e-176
-5.09897e-178
-8.02565e-179
-1.02635e-180
-1.61987e-181
-1.96796e-183
-3.11455e-184
-3.5945e-186
-5.70445e-187
-6.2539e-189
-9.95238e-190
-1.03644e-191
-1.65396e-192
-1.63608e-194
-2.61816e-195
-2.45995e-197
-3.9475e-198
-3.52284e-200
-5.66898e-201
-4.80499e-203
-7.75398e-204
-6.24185e-206
-1.0101e-206
-7.72218e-209
-1.25319e-209
-9.09825e-212
-1.48067e-212
-1.02083e-214
-1.66603e-215
-1.0907e-217
-1.78511e-218
-1.10969e-220
-1.82136e-221
-1.07504e-223
-1.76951e-224
-9.91644e-227
-1.6369e-227
-8.70915e-230
-1.44172e-230
-7.28226e-233
-1.20896e-233
-5.79705e-236
-9.65152e-237
-4.39316e-239
-7.3352e-240
-3.16925e-242
-5.30685e-243
-2.17632e-245
-3.65471e-246
-1.4225e-248
-2.3957e-249
-8.84967e-252
-1.49472e-252
-5.23985e-255
-8.87573e-256
-2.95261e-258
-5.01588e-259
-1.5833e-261
-2.69749e-262
-8.07913e-265
-1.38045e-265
-3.92271e-268
-6.72204e-269
-1.81218e-271
-3.11443e-272
-7.96495e-275
-1.37284e-275
-3.33046e-278
-5.75714e-279
-1.32476e-281
-2.2967e-282
-5.01249e-285
-8.71539e-286
-1.80395e-288
-3.14576e-289
-6.17478e-292
-1.07992e-292
-2.01008e-295
-3.52575e-296
-6.22261e-299
-1.09466e-299
-1.83175e-302
-3.23179e-303
-5.12698e-306
-9.07218e-307
-1.36437e-309
-2.42131e-310
-3.45175e-313
-6.14378e-314
-8.3015e-317
-1.4819e-317
-1.89771e-320
-3.39917e-321
-4.94066e-324
0
0
0
0
0
0
0
0
0
0
0
0
0
0
0
0
0
0
0
0
0
0
0
0
0
0
0
0
0
0
0
0
0
0
0
0
0
0
0
0
0
0
0
0
0
0
0
0
0
0
0
0
0
0
0
0
0
0
0
0
0
0
0
0
0
0
0
0
0
0
0
0
0
0
0
0
0
0
0
0
0
0
0
0
0
0
0
0
0
0
0
0
0
0
0
0
0
0
0
0
0
0
0
0
0
0
0
0
0
0
0
0
0
-5.64241e-75
-1.03125e-75
-1.11217e-76
-2.02949e-77
-2.08493e-78
-3.79977e-79
-3.71831e-80
-6.76995e-81
-6.31006e-82
-1.14805e-82
-1.01913e-83
-1.85334e-84
-1.56674e-85
-2.84851e-86
-2.29285e-87
-4.16858e-88
-3.19451e-89
-5.8089e-90
-4.23742e-91
-7.70819e-92
-5.35166e-93
-9.74036e-94
-6.43539e-95
-1.17211e-95
-7.36837e-97
-1.3432e-97
-8.03312e-99
-1.46585e-99
-8.33912e-101
-1.52341e-101
-8.24303e-103
-1.50776e-103
-7.75873e-105
-1.42112e-105
-6.9541e-107
-1.27563e-107
-5.93534e-109
-1.09047e-109
-4.82411e-111
-8.87796e-112
-3.73393e-113
-6.88377e-114
-2.75236e-115
-5.08352e-116
-1.93219e-117
-3.57552e-118
-1.29185e-119
-2.39532e-120
-8.22638e-122
-1.52844e-122
-4.98946e-124
-9.28984e-125
-2.88245e-126
-5.37843e-127
-1.58617e-128
-2.96622e-129
-8.31438e-131
-1.55835e-131
-4.15161e-133
-7.79926e-134
-1.97481e-135
-3.7186e-136
-8.94881e-138
-1.6891e-138
-3.86323e-140
-7.30957e-141
-1.58888e-142
-3.01368e-143
-6.22582e-145
-1.18381e-145
-2.32421e-147
-4.43047e-148
-8.26674e-150
-1.57983e-150
-2.80143e-152
-5.36747e-153
-9.04517e-155
-1.73752e-155
-2.78259e-157
-5.35912e-158
-8.15602e-160
-1.57495e-160
-2.27775e-162
-4.41008e-163
-6.06084e-165
-1.17652e-165
-1.53659e-167
-2.99088e-168
-3.71174e-170
-7.24422e-171
-8.54257e-173
-1.67178e-173
-1.87321e-175
-3.67584e-176
-3.9135e-178
-7.70054e-179
-7.78967e-181
-1.53697e-181
-1.4772e-183
-2.92267e-184
-2.6688e-186
-5.29488e-187
-4.59348e-189
-9.13871e-190
-7.53191e-192
-1.50264e-192
-1.1765e-194
-2.35373e-195
-1.75064e-197
-3.5121e-198
-2.48141e-200
-4.99215e-201
-3.35033e-203
-6.75926e-204
-4.30872e-206
-8.71732e-207
-5.27793e-209
-1.07084e-209
-6.15772e-212
-1.25288e-212
-6.84224e-215
-1.39611e-215
-7.24072e-218
-1.48162e-218
-7.29713e-221
-1.49743e-221
-7.0031e-224
-1.44119e-224
-6.39995e-227
-1.32084e-227
-5.56918e-230
-1.15268e-230
-4.61438e-233
-9.57803e-234
-3.64017e-236
-7.5776e-237
-2.73397e-239
-5.70762e-240
-1.95483e-242
-4.0928e-243
-1.33059e-245
-2.79389e-246
-8.62128e-249
-1.81548e-249
-5.31707e-252
-1.12293e-252
-3.12119e-255
-6.61086e-256
-1.74377e-258
-3.70417e-259
-9.27165e-262
-1.97524e-262
-4.69131e-265
-1.00236e-265
-2.25879e-268
-4.84027e-269
-1.03484e-271
-2.22402e-272
-4.51091e-275
-9.72291e-276
-1.87075e-278
-4.04409e-279
-7.38077e-282
-1.60022e-282
-2.77009e-285
-6.02345e-286
-9.8892e-289
-2.1567e-289
-3.35796e-292
-7.34483e-293
-1.08444e-295
-2.37899e-296
-3.33062e-299
-7.32809e-300
-9.72746e-303
-2.14658e-303
-2.70146e-306
-5.97901e-307
-7.1333e-310
-1.58345e-310
-1.79079e-313
-3.98699e-314
-4.27393e-317
-9.54355e-318
-9.69851e-321
-2.17389e-321
0
0
0
0
0
0
0
0
0
0
0
0
0
0
0
0
0
0
0
0
0
0
0
0
0
0
0
0
0
0
0
0
0
0
0
0
0
0
0
0
0
0
0
0
0
0
0
0
0
0
0
0
0
0
0
0
0
0
0
0
0
0
0
0
0
0
0
0
0
0
0
0
0
0
0
0
0
0
0
0
0
0
0
0
0
0
0
0
0
0
0
0
0
0
0
0
0
0
0
0
0
0
0
0
0
0
0
0
0
0
0
0
0
0
-7.25471e-75
-1.59107e-75
-1.45445e-76
-3.18484e-77
-2.76552e-78
-6.04807e-79
-4.9887e-80
-1.08994e-80
-8.53986e-82
-1.86446e-82
-1.38766e-83
-3.02818e-84
-2.14086e-85
-4.67074e-86
-3.13668e-87
-6.84319e-88
-4.36538e-89
-9.52556e-90
-5.77213e-91
-1.25999e-91
-7.25268e-93
-1.58404e-93
-8.66146e-95
-1.89307e-95
-9.83316e-97
-2.15101e-97
-1.0614e-98
-2.32416e-99
-1.0895e-100
-2.38839e-101
-1.06365e-102
-2.33468e-103
-9.87797e-105
-2.17117e-105
-8.72765e-107
-1.92117e-107
-7.33752e-109
-1.61773e-109
-5.87062e-111
-1.29649e-111
-4.47052e-113
-9.89024e-114
-3.24062e-115
-7.1825e-116
-2.23637e-117
-4.96621e-118
-1.46946e-119
-3.26965e-120
-9.19431e-122
-2.04999e-122
-5.47861e-124
-1.2241e-124
-3.10924e-126
-6.96214e-127
-1.68079e-128
-3.77193e-129
-8.65536e-131
-1.94679e-131
-4.24624e-133
-9.57282e-134
-1.98475e-135
-4.48499e-136
-8.83936e-138
-2.00222e-138
-3.75125e-140
-8.51765e-141
-1.51705e-142
-3.45311e-143
-5.84676e-145
-1.33415e-145
-2.14756e-147
-4.91278e-148
-7.51812e-150
-1.72423e-150
-2.50856e-152
-5.76798e-153
-7.97823e-155
-1.83921e-155
-2.41863e-157
-5.5902e-158
-6.98915e-160
-1.61967e-160
-1.92523e-162
-4.47341e-163
-5.05533e-165
-1.1777e-165
-1.26542e-167
-2.95595e-168
-3.01953e-170
-7.07257e-171
-6.86861e-173
-1.61318e-173
-1.48944e-175
-3.50769e-176
-3.07895e-178
-7.27089e-179
-6.06743e-181
-1.43676e-181
-1.1398e-183
-2.70647e-184
-2.04112e-186
-4.8601e-187
-3.48433e-189
-8.31961e-190
-5.6699e-192
-1.35759e-192
-8.79484e-195
-2.11172e-195
-1.30038e-197
-3.13104e-198
-1.83269e-200
-4.42517e-201
-2.46193e-203
-5.96133e-204
-3.15224e-206
-7.65445e-207
-3.84686e-209
-9.36766e-210
-4.47428e-212
-1.09265e-212
-4.95971e-215
-1.21465e-215
-5.2395e-218
-1.28683e-218
-5.27482e-221
-1.29921e-221
-5.0605e-224
-1.25e-224
-4.62626e-227
-1.14602e-227
-4.02993e-230
-1.00117e-230
-3.34486e-233
-8.33373e-234
-2.64516e-236
-6.60945e-237
-1.99295e-239
-4.99421e-240
-1.43052e-242
-3.59517e-243
-9.78175e-246
-2.46549e-246
-6.37155e-249
-1.61062e-249
-3.95326e-252
-1.00223e-252
-2.33626e-255
-5.94019e-256
-1.31498e-258
-3.35326e-259
-7.04888e-262
-1.80276e-262
-3.59831e-265
-9.22975e-266
-1.74915e-268
-4.49979e-269
-8.09609e-272
-2.0889e-272
-3.56791e-275
-9.23284e-276
-1.49697e-278
-3.88523e-279
-5.97919e-282
-1.55642e-282
-2.27336e-285
-5.93524e-286
-8.2273e-289
-2.15434e-289
-2.83385e-292
-7.44257e-293
-9.28949e-296
-2.44697e-296
-2.89779e-299
-7.65591e-300
-8.60135e-303
-2.27924e-303
-2.42914e-306
-6.45617e-307
-6.52664e-310
-1.73983e-310
-1.66816e-313
-4.46024e-314
-4.05562e-317
-1.08762e-317
-9.37737e-321
-2.52468e-321
0
0
0
0
0
0
0
0
0
0
0
0
0
0
0
0
0
0
0
0
0
0
0
0
0
0
0
0
0
0
0
0
0
0
0
0
0
0
0
0
0
0
0
0
0
0
0
0
0
0
0
0
0
0
0
0
0
0
0
0
0
0
0
0
0
0
0
0
0
0
0
0
0
0
0
0
0
0
0
0
0
0
0
0
0
0
0
0
0
0
0
0
0
0
0
0
0
0
0
0
0
0
0
0
0
0
0
0
0
0
0
0
0
0
-6.75565e-75
-1.72853e-75
-1.33494e-76
-3.41029e-77
-2.49923e-78
-6.37655e-79
-4.4351e-80
-1.13047e-80
-7.46366e-82
-1.90106e-82
-1.19162e-83
-3.03375e-84
-1.80564e-85
-4.59593e-86
-2.59779e-87
-6.61209e-88
-3.54985e-89
-9.03698e-90
-4.60886e-91
-1.17373e-91
-5.68718e-93
-1.44914e-93
-6.67188e-95
-1.70126e-95
-7.4434e-97
-1.89963e-97
-7.89917e-99
-2.01798e-99
-7.97602e-101
-2.03994e-101
-7.66456e-103
-1.96276e-103
-7.01098e-105
-1.79786e-105
-6.10589e-107
-1.56809e-107
-5.06382e-109
-1.30253e-109
-3.99985e-111
-1.03058e-111
-3.00964e-113
-7.76815e-114
-2.15751e-115
-5.57901e-116
-1.47374e-117
-3.81818e-118
-9.59328e-120
-2.49039e-120
-5.95172e-122
-1.54822e-122
-3.51958e-124
-9.17483e-125
-1.98403e-126
-5.18318e-127
-1.06623e-128
-2.79166e-129
-5.46293e-131
-1.43358e-131
-2.66871e-133
-7.0194e-134
-1.24308e-135
-3.27731e-136
-5.5212e-138
-1.45912e-138
-2.33842e-140
-6.1949e-141
-9.44448e-143
-2.50817e-143
-3.63753e-145
-9.68427e-146
-1.33603e-147
-3.5659e-148
-4.67958e-150
-1.25217e-150
-1.56308e-152
-4.1933e-153
-4.97896e-155
-1.33918e-155
-1.51243e-157
-4.07858e-158
-4.3811e-160
-1.18458e-160
-1.2102e-162
-3.28091e-163
-3.1878e-165
-8.66478e-166
-8.00703e-168
-2.18232e-168
-1.91774e-170
-5.24098e-171
-4.37958e-173
-1.20015e-173
-9.53646e-176
-2.62044e-176
-1.97988e-178
-5.45526e-179
-3.91898e-181
-1.08279e-181
-7.39561e-184
-2.04901e-184
-1.33053e-186
-3.69658e-187
-2.28197e-189
-6.35761e-190
-3.73088e-192
-1.04234e-192
-5.81448e-195
-1.62901e-195
-8.63754e-198
-2.42671e-198
-1.22301e-200
-3.44574e-201
-1.65049e-203
-4.66329e-204
-2.12283e-206
-6.01488e-207
-2.60208e-209
-7.39377e-210
-3.03955e-212
-8.66142e-213
-3.38343e-215
-9.66889e-216
-3.58876e-218
-1.0285e-218
-3.62702e-221
-1.04245e-221
-3.49263e-224
-1.00671e-224
-3.20427e-227
-9.26258e-228
-2.80063e-230
-8.11917e-231
-2.33191e-233
-6.7799e-234
-1.84958e-236
-5.39313e-237
-1.39738e-239
-4.08642e-240
-1.00557e-242
-2.94919e-243
-6.89197e-246
-2.02721e-246
-4.49863e-249
-1.3271e-249
-2.79639e-252
-8.27354e-253
-1.65528e-255
-4.91174e-256
-9.32976e-259
-2.77659e-259
-5.00693e-262
-1.49447e-262
-2.55826e-265
-7.65848e-266
-1.24441e-268
-3.7363e-269
-5.76232e-272
-1.73524e-272
-2.5399e-275
-7.67124e-276
-1.0656e-278
-3.22798e-279
-4.25495e-282
-1.29278e-282
-1.61692e-285
-4.92734e-286
-5.84718e-289
-1.78717e-289
-2.01202e-292
-6.16809e-293
-6.58743e-296
-2.02551e-296
-2.05193e-299
-6.32825e-300
-6.08046e-303
-1.88089e-303
-1.71397e-306
-5.31789e-307
-4.59547e-310
-1.43012e-310
-1.17186e-313
-3.65793e-314
-2.84189e-317
-8.89771e-318
-6.55131e-321
-2.06025e-321
0
0
0
0
0
0
0
0
0
0
0
0
0
0
0
0
0
0
0
0
0
0
0
0
0
0
0
0
0
0
0
0
0
0
0
0
0
0
0
0
0
0
0
0
0
0
0
0
0
0
0
0
0
0
0
0
0
0
0
0
0
0
0
0
0
0
0
0
0
0
0
0
0
0
0
0
0
0
0
0
0
0
0
0
0
0
0
0
0
0
0
0
0
0
0
0
0
0
0
0
0
0
0
0
0
0
0
0
0
0
0
0
0
0
-8.39212e-75
-2.45397e-75
-1.64075e-76
-4.79029e-77
-3.03721e-78
-8.85615e-79
-5.32617e-80
-1.55153e-80
-8.8532e-82
-2.57713e-82
-1.39557e-83
-4.06058e-84
-2.08729e-85
-6.07178e-86
-2.96336e-87
-8.62008e-88
-3.99526e-89
-1.16239e-89
-5.11725e-91
-1.48938e-91
-6.22904e-93
-1.81397e-93
-7.20861e-95
-2.10073e-95
-7.93356e-97
-2.314e-97
-8.30622e-99
-2.42513e-99
-8.27522e-101
-2.41884e-101
-7.84715e-103
-2.29662e-103
-7.08444e-105
-2.07626e-105
-6.0906e-107
-1.78764e-107
-4.98731e-109
-1.46614e-109
-3.89054e-111
-1.14564e-111
-2.8918e-113
-8.53048e-114
-2.04841e-115
-6.05373e-116
-1.383e-117
-4.09507e-118
-8.90115e-120
-2.64089e-120
-5.46196e-122
-1.62384e-122
-3.19582e-124
-9.52127e-125
-1.78319e-126
-5.32417e-127
-9.48944e-129
-2.83961e-129
-4.81672e-131
-1.44462e-131
-2.33221e-133
-7.01091e-134
-1.07727e-135
-3.24603e-136
-4.74735e-138
-1.4339e-138
-1.99606e-140
-6.0436e-141
-8.00785e-143
-2.43056e-143
-3.06546e-145
-9.32753e-146
-1.11976e-147
-3.4158e-148
-3.90319e-150
-1.19369e-150
-1.29832e-152
-3.98081e-153
-4.12115e-155
-1.26687e-155
-1.24832e-157
-3.84749e-158
-3.60828e-160
-1.11506e-160
-9.95254e-163
-3.08383e-163
-2.61949e-165
-8.13773e-166
-6.57857e-168
-2.04927e-168
-1.57638e-170
-4.92388e-171
-3.60402e-173
-1.12879e-173
-7.86111e-176
-2.46886e-176
-1.63579e-178
-5.15146e-179
-3.24704e-181
-1.02539e-181
-6.14805e-184
-1.94687e-184
-1.11031e-186
-3.52575e-187
-1.9124e-189
-6.08968e-190
-3.14125e-192
-1.00308e-192
-4.92023e-195
-1.57556e-195
-7.34834e-198
-2.35969e-198
-1.04636e-200
-3.36955e-201
-1.42043e-203
-4.58716e-204
-1.83813e-206
-5.95294e-207
-2.2673e-209
-7.36375e-210
-2.66553e-212
-8.68183e-213
-2.98649e-215
-9.75509e-216
-3.18866e-218
-1.04453e-218
-3.24405e-221
-1.06573e-221
-3.14458e-224
-1.03603e-224
-2.90402e-227
-9.59539e-228
-2.55482e-230
-8.466e-231
-2.14097e-233
-7.11521e-234
-1.7089e-236
-5.69578e-237
-1.2991e-239
-4.34253e-240
-9.40489e-243
-3.15296e-243
-6.48359e-246
-2.17997e-246
-4.25593e-249
-1.43516e-249
-2.65984e-252
-8.99571e-253
-1.58258e-255
-5.36809e-256
-8.96375e-259
-3.04947e-259
-4.83275e-262
-1.64896e-262
-2.47997e-265
-8.48683e-266
-1.21118e-268
-4.15713e-269
-5.62925e-272
-1.93787e-272
-2.48964e-275
-8.5961e-276
-1.04769e-278
-3.62821e-279
-4.19471e-282
-1.457e-282
-1.59777e-285
-5.56634e-286
-5.78935e-289
-2.02296e-289
-1.99534e-292
-6.99326e-293
-6.54092e-296
-2.29937e-296
-2.0392e-299
-7.1902e-300
-6.04569e-303
-2.13815e-303
-1.70435e-306
-6.04599e-307
-4.56838e-310
-1.6255e-310
-1.16418e-313
-4.15497e-314
-2.82029e-317
-1.00963e-317
-6.49696e-321
-2.33199e-321
0
0
0
0
0
0
0
0
0
0
0
0
0
0
0
0
0
0
0
0
0
0
0
0
0
0
0
0
0
0
0
0
0
0
0
0
0
0
0
0
0
0
0
0
0
0
0
0
0
0
0
0
0
0
0
0
0
0
0
0
0
0
0
0
0
0
0
0
0
0
0
0
0
0
0
0
0
0
0
0
0
0
0
0
0
0
0
0
0
0
0
0
0
0
0
0
0
0
0
0
0
0
0
0
0
0
0
0
0
0
0
0
0
0
-9.26544e-75
-3.04802e-75
-1.77958e-76
-5.84507e-77
-3.23348e-78
-1.06071e-78
-5.56164e-80
-1.82266e-80
-9.06105e-82
-2.96737e-82
-1.39909e-83
-4.57972e-84
-2.04855e-85
-6.70406e-86
-2.84579e-87
-9.31296e-88
-3.75261e-89
-1.22828e-89
-4.69938e-91
-1.53875e-91
-5.59139e-93
-1.83184e-93
-6.32349e-95
-2.07317e-95
-6.80029e-97
-2.23142e-97
-6.95661e-99
-2.28502e-99
-6.77214e-101
-2.22697e-101
-6.27571e-103
-2.06634e-103
-5.53795e-105
-1.82594e-105
-4.65498e-107
-1.5371e-107
-3.72817e-109
-1.23301e-109
-2.84578e-111
-9.42764e-112
-2.07083e-113
-6.87248e-114
-1.43691e-115
-4.77749e-116
-9.50939e-118
-3.16779e-118
-6.00346e-120
-2.00387e-120
-3.61625e-122
-1.20954e-122
-2.07873e-124
-6.96749e-125
-1.14048e-126
-3.83097e-127
-5.97294e-129
-2.01082e-129
-2.98642e-131
-1.00767e-131
-1.42568e-133
-4.82165e-134
-6.49888e-136
-2.2031e-136
-2.829e-138
-9.61321e-139
-1.17606e-140
-4.00607e-141
-4.66918e-143
-1.59441e-143
-1.77043e-145
-6.06067e-146
-6.41132e-148
-2.20031e-148
-2.21738e-150
-7.62927e-151
-7.32399e-153
-2.52643e-153
-2.31022e-155
-7.9899e-156
-6.95883e-158
-2.41302e-158
-2.00156e-160
-6.95891e-161
-5.4969e-163
-1.91624e-163
-1.44129e-165
-5.03749e-166
-3.6077e-168
-1.26437e-168
-8.62008e-171
-3.02924e-171
-1.96585e-173
-6.92714e-174
-4.27861e-176
-1.51179e-176
-8.88627e-179
-3.14848e-179
-1.76098e-181
-6.25651e-182
-3.32932e-184
-1.18614e-184
-6.00448e-187
-2.14517e-187
-1.03292e-189
-3.70052e-190
-1.69463e-192
-6.08821e-193
-2.6513e-195
-9.55196e-196
-3.95519e-198
-1.42895e-198
-5.62543e-201
-2.03814e-201
-7.62739e-204
-2.77131e-204
-9.85792e-207
-3.59194e-207
-1.21434e-209
-4.43731e-210
-1.4256e-212
-5.22415e-213
-1.59483e-215
-5.86107e-216
-1.70002e-218
-6.26558e-219
-1.72653e-221
-6.38161e-222
-1.67047e-224
-6.19219e-225
-1.53959e-227
-5.72357e-228
-1.35158e-230
-5.03918e-231
-1.13009e-233
-4.22561e-234
-8.99866e-237
-3.37456e-237
-6.82348e-240
-2.56632e-240
-4.92676e-243
-1.85837e-243
-3.38696e-246
-1.28131e-246
-2.21676e-249
-8.41073e-250
-1.3812e-252
-5.25589e-253
-8.1919e-256
-3.12646e-256
-4.62461e-259
-1.77021e-259
-2.48481e-262
-9.53951e-263
-1.27059e-265
-4.89245e-266
-6.18277e-269
-2.38776e-269
-2.86279e-272
-1.10889e-272
-1.26122e-275
-4.89988e-276
-5.28639e-279
-2.05992e-279
-2.10793e-282
-8.2385e-283
-7.99563e-286
-3.13434e-286
-2.88478e-289
-1.13426e-289
-9.89927e-293
-3.904e-293
-3.23065e-296
-1.27793e-296
-1.00263e-299
-3.97805e-300
-2.9588e-303
-1.17751e-303
-8.30204e-307
-3.314e-307
-2.21468e-310
-8.86749e-311
-5.61642e-314
-2.25567e-314
-1.35392e-317
-5.45425e-318
-3.10273e-321
-1.25493e-321
0
0
0
0
0
0
0
0
0
0
0
0
0
0
0
0
0
0
0
0
0
0
0
0
0
0
0
0
0
0
0
0
0
0
0
0
0
0
0
0
0
0
0
0
0
0
0
0
0
0
0
0
0
0
0
0
0
0
0
0
0
0
0
0
0
0
0
0
0
0
0
0
0
0
0
0
0
0
0
0
0
0
0
0
0
0
0
0
0
0
0
0
0
0
0
0
0
0
0
0
0
0
0
0
0
0
0
0
0
0
0
0
0
0
-6.39438e-75
-2.3373e-75
-1.21095e-76
-4.41941e-77
-2.16867e-78
-7.90466e-79
-3.67516e-80
-1.33827e-80
-5.89715e-82
-2.14585e-82
-8.9649e-84
-3.26064e-84
-1.2919e-85
-4.69772e-86
-1.76576e-87
-6.42068e-88
-2.29018e-89
-8.32919e-90
-2.82011e-91
-1.02603e-91
-3.29857e-93
-1.20077e-93
-3.66648e-95
-1.33566e-95
-3.87465e-97
-1.41271e-97
-3.89457e-99
-1.42141e-99
-3.72488e-101
-1.36103e-101
-3.39129e-103
-1.24072e-103
-2.94027e-105
-1.07719e-105
-2.42851e-107
-8.91029e-108
-1.91152e-109
-7.02458e-110
-1.43435e-111
-5.2799e-112
-1.02638e-113
-3.78482e-114
-7.00605e-116
-2.58829e-116
-4.5633e-118
-1.68909e-118
-2.83689e-120
-1.05216e-120
-1.68373e-122
-6.25756e-123
-9.54268e-125
-3.55402e-125
-5.16561e-127
-1.92803e-127
-2.67119e-129
-9.99221e-130
-1.31973e-131
-4.94798e-132
-6.23042e-134
-2.34134e-134
-2.81088e-136
-1.0588e-136
-1.21196e-138
-4.57613e-139
-4.99432e-141
-1.89034e-141
-1.96702e-143
-7.46348e-144
-7.40421e-146
-2.81641e-146
-2.66363e-148
-1.01574e-148
-9.15726e-151
-3.50093e-151
-3.0083e-153
-1.15307e-153
-9.44274e-156
-3.62879e-156
-2.83171e-158
-1.09106e-158
-8.11183e-161
-3.13378e-161
-2.21948e-163
-8.59723e-164
-5.79942e-166
-2.25229e-166
-1.44696e-168
-5.63479e-169
-3.44669e-171
-1.34587e-171
-7.83712e-174
-3.06859e-174
-1.70081e-176
-6.67766e-177
-3.52235e-179
-1.38674e-179
-6.96029e-182
-2.74781e-182
-1.31213e-184
-5.19443e-185
-2.35951e-187
-9.36678e-188
-4.04674e-190
-1.61096e-190
-6.61865e-193
-2.6422e-193
-1.0322e-195
-4.13217e-196
-1.53473e-198
-6.1612e-199
-2.17535e-201
-8.75771e-202
-2.93904e-204
-1.18659e-204
-3.78458e-207
-1.53231e-207
-4.6443e-210
-1.88575e-210
-5.4309e-213
-2.21145e-213
-6.05107e-216
-2.47104e-216
-6.42336e-219
-2.63061e-219
-6.49568e-222
-2.66789e-222
-6.25723e-225
-2.57737e-225
-5.74117e-228
-2.37165e-228
-5.017e-231
-2.07851e-231
-4.17522e-234
-1.73479e-234
-3.30883e-237
-1.37881e-237
-2.49687e-240
-1.0435e-240
-1.79396e-243
-7.51928e-244
-1.22713e-246
-5.15855e-247
-7.99101e-250
-3.36908e-250
-4.95351e-253
-2.0946e-253
-2.92277e-256
-1.23954e-256
-1.6414e-259
-6.98173e-260
-8.7729e-263
-3.74262e-263
-4.4622e-266
-1.90928e-266
-2.15974e-269
-9.26854e-270
-9.94649e-273
-4.28128e-273
-4.35835e-276
-1.88157e-276
-1.81689e-279
-7.86729e-280
-7.20534e-283
-3.12934e-283
-2.71813e-286
-1.18406e-286
-9.75314e-290
-4.26142e-290
-3.32846e-293
-1.45869e-293
-1.08027e-296
-4.7486e-297
-3.33414e-300
-1.47004e-300
-9.78496e-304
-4.32737e-304
-2.7304e-307
-1.21119e-307
-7.24353e-311
-3.223e-311
-1.82683e-314
-8.15335e-315
-4.37958e-318
-1.96065e-318
-9.98013e-322
-4.496e-322
0
0
0
0
0
0
0
0
0
0
0
0
0
0
0
0
0
0
0
0
0
0
0
0
0
0
0
0
0
0
0
0
0
0
0
0
0
0
0
0
0
0
0
0
0
0
0
0
0
0
0
0
0
0
0
0
0
0
0
0
0
0
0
0
0
0
0
0
0
0
0
0
0
0
0
0
0
0
0
0
0
0
0
0
0
0
0
0
0
0
0
0
0
0
0
0
0
0
0
0
0
0
0
0
0
0
0
0
0
0
0
0
0
0
-3.24724e-75
-1.30566e-75
-6.07751e-77
-2.43986e-77
-1.07536e-78
-4.31168e-79
-1.80002e-80
-7.21018e-81
-2.85207e-82
-1.14162e-82
-4.28014e-84
-1.71245e-84
-6.08719e-86
-2.43489e-86
-8.20873e-88
-3.28346e-88
-1.05018e-89
-4.20148e-90
-1.27529e-91
-5.10398e-92
-1.4707e-93
-5.88932e-94
-1.61149e-95
-6.45772e-96
-1.67852e-97
-6.73217e-98
-1.66274e-99
-6.67563e-100
-1.5672e-101
-6.29925e-102
-1.40612e-103
-5.65896e-104
-1.20147e-105
-4.84201e-106
-9.78094e-108
-3.94767e-108
-7.58952e-110
-3.06806e-110
-5.61553e-112
-2.27389e-112
-3.96353e-114
-1.60779e-114
-2.66965e-116
-1.08493e-116
-1.71657e-118
-6.98948e-119
-1.05402e-120
-4.3003e-121
-6.18237e-123
-2.52752e-123
-3.46493e-125
-1.41956e-125
-1.85599e-127
-7.62039e-128
-9.5036e-130
-3.9107e-130
-4.65269e-132
-1.91892e-132
-2.1781e-134
-9.00401e-135
-9.75099e-137
-4.04044e-137
-4.17479e-139
-1.73402e-139
-1.70937e-141
-7.11725e-142
-6.69335e-144
-2.79376e-144
-2.50626e-146
-1.0487e-146
-8.97305e-149
-3.76411e-149
-3.07139e-151
-1.29171e-151
-1.00495e-153
-4.23734e-154
-3.14271e-156
-1.32856e-156
-9.39147e-159
-3.98059e-159
-2.68135e-161
-1.13951e-161
-7.3128e-164
-3.11605e-164
-1.90476e-166
-8.13752e-167
-4.7374e-169
-2.02943e-169
-1.12487e-171
-4.83188e-172
-2.54946e-174
-1.09811e-174