/*--------------------------------*- C++ -*----------------------------------*\
| =========                 |                                                 |
| \\      /  F ield         | OpenFOAM: The Open Source CFD Toolbox           |
|  \\    /   O peration     | Version:  v1912                                 |
|   \\  /    A nd           | Website:  www.openfoam.com                      |
|    \\/     M anipulation  |                                                 |
\*---------------------------------------------------------------------------*/
FoamFile
{
    version     2.0;
    format      ascii;
    class       volScalarField;
    location    "100";
    object      nut;
}
// * * * * * * * * * * * * * * * * * * * * * * * * * * * * * * * * * * * * * //

dimensions      [0 2 -1 0 0 0 0];


internalField   nonuniform List<scalar> 
14268
(
0.000170326
0.000147442
0.000100372
0.000144244
0.000179182
0.000113374
0.000148622
0.000228193
0.000191283
0.000196677
0.000231178
0.000271284
0.000254276
0.000191017
0.000109142
4.17037e-05
0.000108897
0.000227146
0.00024819
0.00021856
0.000182708
0.000135132
0.000120677
0.000130468
0.000125051
0.000116613
0.000106508
8.71906e-05
8.46766e-05
0.00012115
0.000159494
0.000151324
0.000153888
0.000153555
0.000172309
0.000206373
0.000206255
0.000191098
0.000184707
0.00015551
0.000102787
8.91978e-05
5.22487e-05
6.91685e-05
9.04173e-05
0.000197036
0.000273501
0.000233009
0.000224688
0.000208546
0.000146172
6.84872e-05
7.22997e-05
8.87354e-05
0.000101074
0.000101172
0.000100669
9.68232e-05
8.80788e-05
8.44413e-05
9.92291e-05
0.000115376
0.000110255
7.79425e-05
4.06553e-05
3.98871e-05
6.24239e-05
0.000113484
0.000163016
0.000188648
0.000167384
0.000135695
8.59822e-05
7.20685e-05
7.53604e-05
9.63803e-05
9.56893e-05
8.26411e-05
7.77916e-05
7.56862e-05
7.00114e-05
7.17547e-05
8.38777e-05
9.98882e-05
8.25091e-05
6.13036e-05
6.40567e-05
7.25072e-05
8.55234e-05
8.95539e-05
9.09856e-05
8.17174e-05
6.36277e-05
4.51989e-05
3.67492e-05
3.10141e-05
3.05259e-05
3.36346e-05
4.10591e-05
5.27412e-05
5.69288e-05
5.72408e-05
6.04374e-05
6.56365e-05
5.98238e-05
4.8124e-05
4.17014e-05
4.99717e-05
8.15433e-05
9.23633e-05
8.08391e-05
5.25126e-05
2.91132e-05
3.05576e-05
2.48367e-05
1.87482e-05
1.8123e-05
1.77387e-05
1.55928e-05
1.41408e-05
1.512e-05
1.73547e-05
2.07117e-05
2.92473e-05
3.46046e-05
4.28482e-05
5.81572e-05
9.17204e-05
0.000139847
0.000133599
8.92527e-05
4.47063e-05
3.74419e-05
4.39043e-05
6.15601e-05
6.44871e-05
5.53655e-05
4.93589e-05
4.34047e-05
4.67421e-05
4.29512e-05
4.00913e-05
3.60767e-05
4.08375e-05
7.41572e-05
0.000114778
0.000105382
5.75102e-05
3.63866e-05
4.33366e-05
0.00202736
0.00157957
0.00075235
0.00118711
0.00162333
0.00100472
0.00120515
0.00201202
0.00158262
0.00159922
0.00197262
0.00247363
0.00238039
0.00178405
0.000980966
0.000418057
0.000827169
0.00217006
0.0023944
0.00209662
0.00172072
0.00124865
0.00109298
0.00128168
0.00131705
0.00125109
0.00113737
0.000890622
0.000824736
0.0011723
0.0016161
0.0014807
0.00141163
0.00136163
0.00161993
0.00199515
0.0020717
0.00196393
0.0019214
0.00160143
0.00110536
0.000863268
0.000428808
0.000702118
0.00087185
0.00189389
0.00257508
0.00219231
0.00214828
0.00215677
0.00154625
0.000638394
0.000719072
0.000988361
0.00120812
0.00110657
0.000979767
0.000921605
0.000893925
0.000922155
0.00112763
0.00127479
0.0012061
0.000867146
0.000474799
0.000463265
0.000671542
0.00117816
0.00164076
0.002006
0.00189009
0.00138893
0.000852977
0.000697798
0.000800583
0.00115983
0.00120332
0.000932862
0.000853542
0.000819093
0.000738022
0.00061089
0.000617509
0.000685733
0.000701763
0.000555837
0.000598945
0.000718366
0.000958785
0.000974514
0.000888694
0.000794296
0.000665339
0.00046672
0.000372916
0.000328473
0.000342265
0.000393593
0.000483159
0.000633865
0.00070648
0.000649577
0.000602616
0.000613071
0.00054662
0.000513326
0.000465812
0.000575444
0.000949324
0.00112629
0.000956237
0.000609971
0.000306727
0.000345529
0.000318366
0.000256097
0.000241111
0.000226613
0.000201975
0.000187896
0.000200225
0.00022758
0.000289812
0.000401227
0.000470184
0.000521718
0.000663699
0.000988353
0.00149322
0.00152441
0.00100142
0.000517387
0.000453649
0.000528358
0.00077793
0.000820014
0.000711824
0.000558126
0.000449824
0.00043024
0.000438848
0.000484846
0.000473651
0.000520804
0.000838277
0.00125439
0.00115525
0.000647436
0.000376413
0.000491814
0.0068229
0.00521401
0.00181492
0.00209136
0.00347169
0.00279942
0.00296541
0.00519472
0.00397554
0.00412488
0.00502547
0.00590603
0.00564917
0.0043292
0.00249805
0.00111853
0.00209446
0.00537561
0.00593377
0.00529879
0.00443268
0.00330152
0.00288561
0.00336533
0.00363091
0.00377638
0.00361669
0.00296768
0.00223309
0.00279072
0.00360015
0.00340904
0.00271735
0.00253684
0.00338671
0.0048311
0.00526718
0.00509453
0.00504478
0.00434219
0.00320097
0.00243475
0.00101323
0.00174156
0.00238547
0.00467107
0.00626605
0.00514779
0.00527768
0.00554817
0.00453549
0.00188344
0.00160321
0.00289324
0.00390902
0.00336124
0.00266703
0.00244362
0.00238412
0.00270667
0.00352832
0.00387561
0.00369738
0.0027529
0.00149358
0.0012219
0.00182197
0.00309421
0.00414704
0.0052242
0.00548772
0.00422821
0.0023828
0.00154157
0.0023612
0.00346426
0.00368718
0.00325479
0.00280278
0.0027538
0.0025919
0.00134313
0.00130418
0.00124264
0.00116474
0.00101307
0.00115183
0.00152939
0.00262073
0.00281076
0.00223305
0.00184337
0.00144654
0.00100683
0.000789962
0.000683555
0.000797368
0.00108192
0.00148714
0.00206243
0.00222516
0.00162515
0.0014755
0.00118916
0.000932629
0.000895279
0.00107852
0.00158775
0.00274409
0.00338004
0.00297286
0.00182782
0.00081011
0.000537008
0.000665528
0.000649832
0.000579594
0.000517395
0.000425033
0.000349258
0.000370645
0.000457199
0.000821212
0.00125078
0.00144462
0.00160719
0.00188841
0.00266157
0.00392191
0.00423244
0.00308884
0.00175356
0.0013534
0.00191004
0.00264075
0.00277572
0.00247444
0.00163526
0.00100249
0.000822365
0.000812276
0.00118731
0.00150547
0.00165015
0.00243132
0.00346043
0.00330422
0.00175498
0.000655998
0.00118177
0.0128676
0.0108737
0.00343906
0.0021899
0.00366814
0.00439985
0.00551778
0.00951971
0.00736079
0.00746856
0.00859186
0.0086566
0.00817434
0.00650322
0.00323254
0.00122987
0.00340156
0.00871125
0.00958004
0.00868074
0.00739432
0.00545875
0.00463944
0.00510803
0.00556842
0.00669259
0.00709045
0.00671085
0.00517131
0.00449285
0.00477148
0.00456902
0.00315045
0.00300466
0.0042958
0.006897
0.00817149
0.00800812
0.0079678
0.00714169
0.00594895
0.00451874
0.00204341
0.0022423
0.00401488
0.00755846
0.00978791
0.0067746
0.00824692
0.00907187
0.00836563
0.00475293
0.00353241
0.00541286
0.00738427
0.00730974
0.0065871
0.00611054
0.00568698
0.00566053
0.00683843
0.0072693
0.00700925
0.00539652
0.00313707
0.00239777
0.00322763
0.00522432
0.0068622
0.00868356
0.00964189
0.00878166
0.00588802
0.00372005
0.00421698
0.00534139
0.00575987
0.0055332
0.005291
0.00539346
0.00556649
0.0044489
0.00321411
0.00266729
0.0021754
0.00155752
0.00178518
0.0026641
0.00536096
0.00628973
0.00476961
0.00334796
0.00235935
0.00154172
0.00130947
0.00135981
0.00164166
0.00206397
0.00273237
0.00370993
0.00432991
0.00357289
0.00257362
0.00202596
0.00155138
0.00128623
0.00159738
0.00279149
0.00481105
0.00594245
0.00572924
0.00440273
0.00169526
0.00100023
0.000880879
0.00114048
0.00137958
0.00128021
0.0009923
0.000698535
0.000665912
0.000813822
0.00157536
0.00210632
0.00218013
0.0024482
0.00302642
0.00432484
0.00636978
0.00707907
0.00584036
0.00422791
0.00348001
0.00400764
0.00493705
0.0052098
0.00503317
0.00390888
0.00254812
0.00170278
0.00145479
0.00196629
0.00285086
0.00311449
0.00410771
0.00589194
0.00614504
0.00380715
0.000914226
0.00134218
0.0182843
0.0172803
0.0077669
0.00241639
0.0032634
0.00578571
0.00787351
0.013295
0.0110662
0.0104746
0.0109355
0.0109198
0.0101441
0.00767815
0.00343149
0.000948141
0.00494502
0.0115957
0.0125221
0.0121088
0.0107833
0.00810092
0.00639572
0.00541213
0.00585817
0.00830682
0.00977644
0.0101451
0.00864955
0.00736837
0.00598929
0.00524714
0.00436412
0.00394782
0.00495101
0.00816279
0.00986861
0.00980606
0.00992853
0.00905812
0.00864219
0.00720284
0.00384407
0.00239919
0.0051676
0.0104665
0.0120518
0.00730063
0.0105824
0.0129093
0.0123345
0.00800037
0.00567396
0.00768692
0.0103384
0.0107131
0.0104395
0.0101026
0.00940103
0.00892289
0.0102591
0.0105948
0.00988298
0.00745573
0.00437893
0.00376566
0.00476477
0.00737657
0.0097387
0.012485
0.0141235
0.0135565
0.0096386
0.00576472
0.00530427
0.00637032
0.0068967
0.00670062
0.00698405
0.00784103
0.00846791
0.00839144
0.00760868
0.00647702
0.00515293
0.003218
0.00264504
0.00432673
0.00835836
0.0101512
0.00880201
0.00607555
0.00370124
0.00240228
0.00161142
0.00173963
0.00250984
0.0031888
0.00406825
0.00542306
0.00663411
0.00633987
0.00489969
0.00344766
0.00240947
0.00176571
0.00228127
0.00408407
0.00702505
0.00872585
0.00874497
0.00764987
0.00405066
0.00166591
0.0012868
0.00135279
0.00201644
0.00230271
0.00195818
0.00141004
0.00129276
0.00141897
0.00174719
0.00183165
0.00179208
0.00227508
0.00325953
0.00535374
0.00898422
0.0103283
0.00888331
0.00720938
0.00602638
0.00615164
0.0070261
0.00738944
0.00744964
0.00637254
0.00480432
0.00359708
0.00297031
0.00299573
0.00385158
0.00424217
0.00562586
0.00858817
0.00936258
0.00679794
0.00178671
0.00156254
0.0237206
0.0249052
0.0161885
0.00416463
0.00202261
0.00391355
0.00754349
0.0146073
0.0121801
0.0112728
0.0117687
0.0129637
0.0120598
0.00803175
0.00316835
0.00070333
0.0060838
0.0123114
0.0132005
0.0149892
0.0137552
0.0104708
0.00735025
0.00438416
0.00470768
0.00781887
0.00998825
0.0116386
0.0116084
0.0111967
0.00879604
0.00691186
0.00661254
0.00584932
0.00569218
0.00923665
0.0106818
0.0105038
0.0106571
0.00941787
0.0106261
0.00990735
0.00607669
0.0026087
0.00598447
0.0127045
0.0123822
0.00708829
0.0110588
0.0159722
0.0160635
0.0109651
0.00754143
0.0093035
0.0125747
0.0132613
0.0133293
0.0133389
0.0128389
0.0122931
0.0132953
0.0129677
0.0118137
0.00842841
0.00437615
0.00474526
0.00632365
0.00955668
0.0126998
0.0163779
0.0187074
0.018331
0.0127102
0.00715953
0.00662924
0.008454
0.00904297
0.00788218
0.00790347
0.00977771
0.0112776
0.0120815
0.0120935
0.0110659
0.00934431
0.00629768
0.00470594
0.00666362
0.0114934
0.0139496
0.0127652
0.00980289
0.00647764
0.00368777
0.00231186
0.00229529
0.00322001
0.00428583
0.00545492
0.00716956
0.00895539
0.00917758
0.00791203
0.00602205
0.00440741
0.00306857
0.00353182
0.00561558
0.00932697
0.0115835
0.0118059
0.0109279
0.00698938
0.00344612
0.00228639
0.00208108
0.00238749
0.00290537
0.00279756
0.00223394
0.00210162
0.00222908
0.00166751
0.00149746
0.00187404
0.00257676
0.0035678
0.00676648
0.0120103
0.0137968
0.0120909
0.0101711
0.00849579
0.00779266
0.00804603
0.00834618
0.00886763
0.00842365
0.00707131
0.00584343
0.00522928
0.00463825
0.00470283
0.00501625
0.00716281
0.0113901
0.0126833
0.0101088
0.00367933
0.0027738
0.0307947
0.0338671
0.0264708
0.00992009
0.00150292
0.00215492
0.00690187
0.0164809
0.0128724
0.0120002
0.0134648
0.0169758
0.0155843
0.00869556
0.00304622
0.000867613
0.00731845
0.0120035
0.0133119
0.0175877
0.0154044
0.0125362
0.00715585
0.00325711
0.00378218
0.00628565
0.00830395
0.0103433
0.0121999
0.0139959
0.0130893
0.00918481
0.00702034
0.00669176
0.00744643
0.0106403
0.0118543
0.0123154
0.0130744
0.0113885
0.0130596
0.0128253
0.00880258
0.00299188
0.00690249
0.014235
0.0125023
0.00689087
0.0106626
0.0180148
0.0197105
0.0137806
0.00887358
0.0107894
0.0155428
0.0164771
0.0155165
0.0154051
0.0151657
0.0153646
0.0165209
0.0155678
0.0140313
0.00940336
0.00374716
0.00440173
0.00720066
0.0119191
0.0159613
0.0206034
0.0236016
0.0234363
0.0161266
0.00914321
0.009525
0.0125173
0.0131929
0.0107429
0.00871786
0.0110794
0.0138651
0.0155009
0.0161554
0.0153206
0.0135838
0.00982856
0.00739504
0.00943552
0.0147426
0.0177131
0.0166064
0.0134938
0.00967971
0.00582478
0.00381207
0.00348609
0.00414849
0.00536773
0.00683712
0.00890218
0.0112158
0.0118659
0.010777
0.00867166
0.0065955
0.00461574
0.00498004
0.00727087
0.0117414
0.0145716
0.0149294
0.0141246
0.00997187
0.00566799
0.00422747
0.0038466
0.00361793
0.00348622
0.0033282
0.00281135
0.00292096
0.00322439
0.00249804
0.0024239
0.00290971
0.0036303
0.0050608
0.0092416
0.015285
0.0172576
0.0152936
0.0129806
0.0107223
0.00814476
0.00756684
0.00780827
0.00852163
0.00932558
0.00905263
0.00799841
0.00765239
0.00694007
0.00596272
0.00595303
0.00889359
0.0140578
0.0160266
0.0135545
0.00604261
0.00456983
0.0385738
0.0429645
0.0367532
0.0172384
0.0035688
0.00218723
0.00768744
0.0210618
0.0153783
0.0136187
0.0173305
0.0226454
0.0205037
0.00984135
0.00281265
0.00111754
0.00807174
0.0112141
0.0134658
0.0191479
0.0146647
0.0118508
0.00596307
0.00278025
0.00425159
0.00530931
0.00675748
0.00832111
0.0103769
0.0141641
0.0151523
0.00904487
0.00617465
0.00615864
0.012457
0.0133481
0.0137592
0.0159613
0.017662
0.0159885
0.0163661
0.0155725
0.0116104
0.00345526
0.00806188
0.0150677
0.0123206
0.00642021
0.00970164
0.018012
0.0225582
0.0162553
0.00966027
0.0128617
0.0197821
0.0210434
0.0189106
0.0170916
0.0163949
0.0175137
0.0203176
0.0195055
0.017611
0.0118898
0.00419928
0.00383119
0.00778757
0.0142956
0.019035
0.0242693
0.0279982
0.0284814
0.0204025
0.0123306
0.0132809
0.0167396
0.0175685
0.0148193
0.0101085
0.0114506
0.0158063
0.0187507
0.0198652
0.0191285
0.0174797
0.0134393
0.0103899
0.0124246
0.018033
0.0214513
0.0203738
0.0169849
0.0126517
0.00788088
0.00540337
0.00491102
0.00540291
0.00656819
0.00818028
0.0105651
0.013372
0.0143803
0.01343
0.0111555
0.00867171
0.00609439
0.00639125
0.00895567
0.0141832
0.0175785
0.0180585
0.0172477
0.0128269
0.00792998
0.00636055
0.00612354
0.00573762
0.00496532
0.00407645
0.00312296
0.00363611
0.00433787
0.00394514
0.00381389
0.00416827
0.00507434
0.00726715
0.011906
0.0179349
0.0199815
0.0182648
0.0155139
0.0116501
0.00744903
0.00692374
0.00761161
0.00810982
0.00927696
0.0102842
0.0100019
0.00992356
0.0094823
0.00800304
0.00761234
0.0105383
0.0163402
0.0189099
0.0169264
0.00840506
0.00628139
0.0465516
0.0519185
0.0464312
0.024291
0.00818845
0.0045799
0.00987529
0.0275653
0.0188035
0.0165232
0.02301
0.0285735
0.0262588
0.0130229
0.0025871
0.00184652
0.0092703
0.0111552
0.016267
0.0191648
0.0135893
0.0105119
0.00461869
0.00331518
0.00514618
0.00591791
0.00701175
0.00837744
0.00892261
0.0139126
0.014861
0.00768655
0.00771242
0.0074181
0.0202215
0.0197453
0.0173015
0.0184554
0.020091
0.0181302
0.0193268
0.0185154
0.0146044
0.00443609
0.00938696
0.015636
0.0122248
0.00721179
0.00865175
0.0167792
0.0236837
0.0181944
0.0103027
0.0154504
0.0241859
0.0258485
0.0239545
0.0202935
0.0176449
0.0189012
0.0240249
0.0235891
0.0213532
0.0147457
0.00585492
0.00461151
0.00927565
0.016548
0.0215126
0.0268564
0.0312082
0.0329151
0.0248516
0.0160255
0.0171522
0.0207874
0.021744
0.0190219
0.0126551
0.0111122
0.0162071
0.0204242
0.0218339
0.0211628
0.0199979
0.0166413
0.0135212
0.0154672
0.0213295
0.0251897
0.0241402
0.0204549
0.0153961
0.00970301
0.00675682
0.0062962
0.00675081
0.00783305
0.00950443
0.0121997
0.0155186
0.0168555
0.015976
0.0135423
0.010684
0.0075575
0.00779152
0.010666
0.0166826
0.0206338
0.021193
0.0203132
0.0156313
0.0101552
0.00844564
0.00834765
0.00802484
0.00710942
0.00556995
0.00364694
0.00424044
0.00545978
0.00541217
0.00479316
0.00495394
0.00639766
0.009509
0.0144674
0.020111
0.0220621
0.0208
0.0178964
0.0122347
0.00729038
0.00788734
0.00952439
0.0097617
0.00940689
0.0107939
0.0117827
0.0121103
0.0119216
0.01049
0.00988969
0.0120664
0.0187395
0.0216307
0.0200263
0.0107244
0.0078634
0.054319
0.0605796
0.0555629
0.030815
0.0121853
0.00781246
0.0130689
0.0339668
0.0216917
0.020455
0.0262629
0.0309089
0.0317136
0.0180232
0.00333225
0.0028582
0.0103756
0.0139455
0.0227005
0.0178912
0.013636
0.00873961
0.00313117
0.00378074
0.00604714
0.00692334
0.00815026
0.00988804
0.0107988
0.0173324
0.0173954
0.00769359
0.0125673
0.0135344
0.0277433
0.0280021
0.0232024
0.0197862
0.0209574
0.0178105
0.0212202
0.0214361
0.0175472
0.00629938
0.0108062
0.0158167
0.0118502
0.0111234
0.00882167
0.0150722
0.0223454
0.0186076
0.0111376
0.0184191
0.0285155
0.0305272
0.0289727
0.0252137
0.0202173
0.0202114
0.0270841
0.0267338
0.0234688
0.0158634
0.00703151
0.00637416
0.0113702
0.018417
0.0227107
0.0286499
0.0334781
0.0361025
0.0288357
0.0195249
0.0207152
0.0243609
0.0253215
0.0229379
0.0161397
0.0114664
0.0152247
0.0199551
0.0216211
0.0210615
0.0204001
0.0188031
0.0165013
0.0184319
0.024617
0.0289249
0.0278866
0.0239878
0.0182033
0.0114366
0.00790091
0.00746286
0.00805265
0.00912867
0.0108805
0.0139258
0.0177794
0.0194118
0.0185392
0.0158964
0.012639
0.00898692
0.00917502
0.0123637
0.0190646
0.023456
0.0241343
0.0232676
0.0183565
0.0123184
0.0104223
0.0104035
0.0101602
0.00928327
0.00759421
0.00467067
0.00503454
0.00659141
0.00663452
0.00496146
0.00486393
0.00724932
0.0115858
0.0170458
0.0228235
0.0240219
0.0228865
0.0202965
0.0141508
0.00869181
0.0102495
0.0125775
0.0127327
0.0105827
0.0111602
0.013229
0.014217
0.0142403
0.0128871
0.0121552
0.0137375
0.0217234
0.0250009
0.0229776
0.0128703
0.00888022
0.0621282
0.0690781
0.0644315
0.037473
0.0143924
0.010622
0.0159864
0.0403348
0.0259589
0.0253767
0.0253444
0.0293981
0.0359178
0.0241726
0.00637089
0.00367398
0.010562
0.0199807
0.0303473
0.016396
0.0161579
0.00689704
0.00272409
0.00427496
0.00695138
0.00787687
0.00918446
0.0113033
0.0151149
0.0233664
0.0249699
0.0099565
0.0186167
0.0213026
0.0348751
0.0357608
0.031459
0.024507
0.025235
0.0196138
0.0229656
0.024327
0.0206107
0.00831949
0.0122995
0.0158856
0.0113898
0.0161383
0.0120427
0.0155231
0.0203409
0.0168672
0.0123547
0.0215206
0.0327134
0.0351221
0.0338403
0.0304245
0.0243679
0.0217656
0.0294472
0.0283428
0.0235549
0.0146704
0.0068187
0.00826704
0.0134876
0.0195029
0.023402
0.0306299
0.0358034
0.0382876
0.0314419
0.022325
0.023398
0.0264565
0.0268784
0.0254581
0.0196899
0.0138159
0.0143828
0.0185821
0.0210137
0.0217433
0.0217101
0.0205044
0.0185615
0.0211661
0.0278953
0.032669
0.0316401
0.0275336
0.0212355
0.0134089
0.00904335
0.00844256
0.00920397
0.0105238
0.012394
0.0157881
0.0201119
0.0219846
0.0211351
0.0182914
0.0146074
0.0104211
0.0105522
0.0140011
0.0211884
0.0259114
0.0266615
0.0259911
0.0210153
0.0144248
0.0123211
0.0123397
0.0121642
0.0113309
0.00963538
0.00600969
0.00612368
0.00778693
0.00761472
0.00466509
0.00440769
0.00785147
0.0135501
0.0195708
0.0265072
0.026863
0.0248241
0.0227396
0.0166586
0.0107981
0.0128943
0.0155755
0.0158299
0.0129034
0.0116996
0.0143657
0.0162225
0.0164553
0.0151285
0.0139923
0.0159095
0.0253114
0.0289384
0.0259919
0.0149568
0.00992656
0.0689893
0.0765887
0.0726465
0.0440344
0.0128631
0.0104783
0.0170909
0.0441386
0.0310037
0.0282806
0.0223644
0.0261663
0.037369
0.0300871
0.0100898
0.0030555
0.0100958
0.0257766
0.0376337
0.0152599
0.0196507
0.00532541
0.00307542
0.00519609
0.00814285
0.00903431
0.0103511
0.0128331
0.0188721
0.0285773
0.0318224
0.0140347
0.0239165
0.0279075
0.0415317
0.0429482
0.0395189
0.0327118
0.0334207
0.025377
0.0257368
0.0271139
0.0236479
0.0103381
0.0137803
0.0156258
0.0116927
0.0175527
0.0158361
0.0187359
0.019617
0.0150701
0.01396
0.0246037
0.0368642
0.03965
0.0385915
0.0355247
0.0289167
0.0233038
0.0297013
0.0273181
0.0221746
0.012546
0.00619818
0.00997062
0.0154192
0.0195455
0.0240642
0.0328136
0.0382144
0.0401928
0.0324901
0.0235051
0.0245213
0.0263634
0.0265024
0.0257909
0.0221099
0.0172887
0.015543
0.0184294
0.0223216
0.0252287
0.0257859
0.0230647
0.0200744
0.0235594
0.0311052
0.0363855
0.0353573
0.0310269
0.0242839
0.0156539
0.0104218
0.00945803
0.0102321
0.0118909
0.0139965
0.0177163
0.022442
0.0245251
0.0236904
0.0206681
0.0165618
0.0118437
0.0118871
0.0154522
0.0229749
0.0281783
0.0289004
0.0283593
0.023498
0.0164524
0.0141376
0.0141503
0.0139978
0.0132157
0.0115258
0.00709457
0.00717782
0.00897165
0.0081987
0.0043153
0.00427894
0.0086504
0.0153471
0.0216109
0.0301774
0.0307241
0.0265574
0.0244951
0.0178873
0.0118519
0.0153683
0.0183831
0.018753
0.0157323
0.0124946
0.0149754
0.0178254
0.0181745
0.0165058
0.0148036
0.0179366
0.0283483
0.0327548
0.0289809
0.0167747
0.0114454
0.0735282
0.081918
0.0798403
0.0504714
0.0116323
0.00875362
0.0173793
0.0436915
0.03564
0.0271812
0.0185679
0.0219622
0.0360706
0.0345873
0.0134053
0.00195901
0.00962044
0.0313256
0.0431788
0.0166843
0.0236627
0.00609405
0.0042236
0.00645214
0.00953858
0.010521
0.0118056
0.0144221
0.0222115
0.0329974
0.0381291
0.018008
0.0290685
0.0340733
0.0479885
0.0499256
0.0471915
0.0408918
0.0417269
0.0322521
0.0296926
0.0295885
0.0267199
0.0124667
0.0153304
0.015664
0.016224
0.0188462
0.0188653
0.0224635
0.0206604
0.0152046
0.0160221
0.0277305
0.0410401
0.0441312
0.0432645
0.0405127
0.0335807
0.022964
0.0272907
0.0246773
0.0201166
0.0112928
0.00663597
0.0116417
0.0169623
0.0193018
0.0258899
0.0367909
0.0419956
0.0425528
0.0337503
0.0243557
0.0254756
0.0274398
0.0273603
0.0250899
0.0228707
0.0206205
0.0189067
0.0211013
0.0263521
0.0300974
0.030537
0.0266816
0.0222841
0.0259897
0.0342049
0.0400389
0.039
0.0344147
0.0272368
0.017937
0.0120744
0.0107753
0.0114493
0.0132528
0.0155846
0.0196312
0.0247599
0.0270254
0.0262159
0.0230286
0.0184878
0.0132433
0.0131021
0.0166736
0.0249044
0.0307236
0.0312008
0.0304464
0.0257614
0.0184329
0.0158553
0.0155677
0.0154087
0.0146953
0.0131537
0.00769993
0.00783784
0.00986703
0.00785349
0.00396511
0.00452645
0.00953145
0.0165241
0.0234744
0.0337787
0.0347107
0.0272621
0.0241255
0.0168469
0.0119366
0.0178119
0.0210659
0.0215088
0.0186971
0.0138411
0.0150148
0.0182275
0.0186746
0.0168037
0.0150425
0.0193746
0.030614
0.0359029
0.0321014
0.0185954
0.0131703
0.0745547
0.0841334
0.085279
0.0564648
0.0146235
0.00637348
0.0148197
0.040778
0.0355858
0.0241592
0.0145648
0.0179487
0.0327074
0.036412
0.0162306
0.00189004
0.00901725
0.0352962
0.0452287
0.0201342
0.0261452
0.00989106
0.00571659
0.00776215
0.0109731
0.012014
0.0132278
0.0159235
0.0250781
0.0353043
0.0434242
0.0220529
0.0339932
0.0399073
0.0542014
0.0566089
0.054419
0.0484054
0.0494158
0.0374541
0.033144
0.0295511
0.0295716
0.014652
0.0170782
0.0158919
0.0244927
0.0247894
0.0191486
0.0258156
0.0227045
0.0163376
0.0182529
0.0308245
0.0451699
0.0485749
0.0478676
0.045397
0.038566
0.0231725
0.0236862
0.0214272
0.0172084
0.0105477
0.00804513
0.0133407
0.0176663
0.019669
0.0292708
0.0424388
0.0477496
0.046383
0.0364587
0.026267
0.027939
0.0315063
0.0311921
0.0254614
0.0226706
0.0233451
0.0230023
0.0255152
0.0312398
0.034759
0.0349849
0.0305223
0.0251304
0.0286776
0.0372493
0.043609
0.0425148
0.0376392
0.0299964
0.0200812
0.0137393
0.0123199
0.0129284
0.0146998
0.0171345
0.0214794
0.0269314
0.0291803
0.02845
0.025314
0.0204004
0.0145302
0.0140676
0.0178031
0.0272899
0.0338403
0.0339703
0.0325917
0.0278118
0.0203354
0.0174578
0.016804
0.0164856
0.0158108
0.0144439
0.00827506
0.00770637
0.00944005
0.00671714
0.00372152
0.0048829
0.0100291
0.017102
0.0253755
0.0371383
0.0385483
0.0278675
0.0223237
0.0146004
0.0125388
0.0201234
0.0232263
0.023768
0.021485
0.0160644
0.0151453
0.0178147
0.0188572
0.0171609
0.0155573
0.0203476
0.0325848
0.0382238
0.0350529
0.0206035
0.0148433
0.0732138
0.0839652
0.0901118
0.0648185
0.0225909
0.00345314
0.0101207
0.0353799
0.0327136
0.0188205
0.01068
0.0151583
0.0262948
0.0358851
0.0200047
0.00256274
0.00865965
0.0378362
0.045426
0.025255
0.0264472
0.0161871
0.0082471
0.00981408
0.013272
0.0143389
0.0152492
0.0181188
0.0281279
0.0360999
0.0493288
0.0281712
0.0414388
0.0486793
0.063648
0.0667443
0.0653052
0.0596358
0.0608638
0.0429878
0.0347493
0.027013
0.0317281
0.0181814
0.019932
0.0154122
0.0361356
0.0369185
0.0174319
0.0284433
0.0266551
0.0180358
0.021155
0.0355118
0.0514367
0.0553398
0.0548406
0.0527638
0.0463235
0.0283321
0.0196568
0.0169039
0.0129251
0.00888154
0.0101712
0.0158917
0.0180787
0.0215532
0.0355282
0.0515594
0.057724
0.054302
0.0416197
0.0298987
0.0333005
0.0384157
0.0387331
0.0293367
0.0221436
0.0261464
0.0288814
0.0322517
0.0377994
0.0397887
0.0396441
0.0352804
0.029613
0.032888
0.0419318
0.0490409
0.0479623
0.0426412
0.034031
0.0230466
0.0159896
0.0145322
0.0151211
0.0167783
0.0193084
0.0239445
0.029433
0.0311542
0.0306872
0.0283266
0.0233854
0.0164898
0.0153728
0.0198082
0.0314728
0.0392385
0.0389862
0.0362631
0.0308576
0.0231246
0.0198493
0.0190698
0.0184499
0.0177585
0.0164746
0.00997177
0.00632351
0.00712015
0.00479294
0.00375526
0.00597226
0.0105322
0.0179632
0.0286284
0.0411756
0.0436122
0.0306823
0.0201082
0.0123924
0.0147472
0.0226339
0.0245639
0.0252734
0.0246034
0.0200071
0.016765
0.0180666
0.0206395
0.0191555
0.0175908
0.022077
0.0359156
0.0414712
0.0389481
0.0237417
0.0173849
0.0689243
0.0793347
0.087741
0.0708302
0.0319671
0.00480828
0.0104514
0.0305882
0.0265252
0.0122142
0.0131936
0.0203492
0.0193049
0.0316639
0.0210314
0.00354013
0.0109961
0.0335048
0.0450129
0.0259997
0.0217748
0.0159462
0.0103033
0.0123825
0.0162452
0.0174155
0.018251
0.0208921
0.0292024
0.0355992
0.0563618
0.034447
0.0506004
0.0593687
0.0752264
0.0792204
0.0781554
0.071395
0.0734617
0.0515484
0.0303983
0.0220717
0.0281065
0.0216236
0.0200937
0.0137027
0.0489749
0.051032
0.0144352
0.0249948
0.0299029
0.0209834
0.0237479
0.0413844
0.0594553
0.064047
0.0637322
0.062128
0.056148
0.0382541
0.0224183
0.01738
0.0138513
0.00983763
0.01023
0.0182427
0.0191562
0.0254128
0.0440447
0.0629053
0.0704464
0.0655302
0.0486138
0.0355189
0.0408634
0.0469097
0.0480478
0.038653
0.0231808
0.0265717
0.0332378
0.0376176
0.0395938
0.0386278
0.0375268
0.0365286
0.0347452
0.0381961
0.0481049
0.0563799
0.055551
0.0497008
0.039654
0.0264015
0.01629
0.015092
0.0154364
0.0172531
0.0206343
0.0250467
0.0293342
0.030655
0.0305081
0.0297382
0.0266489
0.0194093
0.017801
0.0234368
0.0373964
0.0463373
0.0458737
0.0414027
0.0345728
0.0261898
0.0227656
0.0223584
0.0221108
0.0215491
0.0203517
0.0136593
0.00536288
0.00439606
0.00332662
0.0045327
0.00802117
0.0127256
0.0204943
0.0330962
0.0418772
0.0457068
0.036078
0.0217402
0.0156733
0.0176106
0.0213306
0.0213031
0.0218205
0.0236627
0.0237806
0.0215977
0.0219223
0.0247612
0.0236445
0.0222757
0.0259578
0.0422699
0.0477839
0.0423969
0.0259845
0.0189592
0.0642504
0.0735294
0.0800167
0.0719121
0.0406174
0.0100109
0.0171349
0.0355246
0.0198211
0.00907555
0.0183168
0.0283071
0.0186059
0.0291878
0.0188233
0.00394882
0.0166206
0.0325735
0.0533077
0.023023
0.015899
0.0135169
0.01319
0.0150002
0.0189855
0.0207654
0.0217933
0.0237689
0.0286785
0.0346031
0.0676242
0.0416656
0.0594778
0.0698102
0.084811
0.0904124
0.0873398
0.076819
0.0812256
0.0632595
0.026965
0.0168028
0.0213901
0.018828
0.0184052
0.0144429
0.0612236
0.0637726
0.0171686
0.018958
0.0281484
0.0253909
0.0269069
0.0470706
0.0670686
0.0722855
0.0720882
0.0709947
0.0655011
0.0484631
0.030871
0.0251893
0.0211602
0.0145962
0.0117583
0.0187061
0.0213624
0.0305547
0.0528552
0.0742648
0.0830014
0.0774395
0.0558465
0.0410297
0.0482377
0.055075
0.0571182
0.0480403
0.0287244
0.0226155
0.0309242
0.0359213
0.0356311
0.0333713
0.0335525
0.0370243
0.0393837
0.0431984
0.0544005
0.0640808
0.0633061
0.0569008
0.0458447
0.0304803
0.0152915
0.0128832
0.0131343
0.015005
0.0189643
0.0240508
0.0283605
0.0304932
0.0297705
0.0292033
0.0284691
0.0224991
0.0209791
0.0276859
0.0434524
0.0533651
0.052783
0.0465486
0.0371826
0.0276661
0.0241058
0.0245355
0.0254265
0.0255796
0.0245012
0.0174335
0.00709255
0.0039853
0.00371908
0.00575384
0.00998597
0.0160486
0.0249027
0.036681
0.039929
0.0443526
0.0403969
0.0272876
0.0211987
0.0176106
0.0175166
0.0175736
0.0199265
0.0233698
0.0259956
0.0257854
0.026308
0.0269714
0.0261746
0.0250509
0.0309758
0.0502767
0.0562988
0.0463291
0.0266616
0.019157
0.0591774
0.06733
0.0728727
0.0716208
0.0483568
0.0160359
0.0248929
0.0420534
0.015443
0.00958009
0.0234823
0.0363229
0.0216895
0.0314004
0.0172071
0.00406853
0.0224233
0.0401312
0.0712886
0.0197307
0.0102152
0.0158214
0.0176009
0.0166717
0.0213699
0.0240185
0.0252977
0.0261868
0.0274039
0.0352843
0.0765247
0.0500185
0.0680096
0.079946
0.0911836
0.0981148
0.0882081
0.0752225
0.0811214
0.072638
0.0281003
0.0128828
0.0157383
0.0134105
0.0185043
0.0176864
0.0729379
0.0756533
0.028763
0.0129711
0.0228518
0.0285151
0.0310132
0.0523549
0.0733624
0.07926
0.0791754
0.0786268
0.0735787
0.0577883
0.040454
0.0346975
0.0295454
0.020635
0.0134315
0.0179982
0.0227285
0.035116
0.0612233
0.0853161
0.0953017
0.0898308
0.0635264
0.0455479
0.054389
0.062676
0.0659798
0.0569692
0.037377
0.0191157
0.0238357
0.029917
0.0290114
0.0289322
0.0351765
0.0421071
0.0441681
0.0477362
0.0607762
0.0718253
0.0710226
0.0640529
0.0520313
0.0354909
0.0165748
0.0101902
0.00994784
0.0118382
0.0162874
0.0230634
0.0302051
0.0339185
0.0320584
0.0288164
0.0290205
0.0252269
0.0242925
0.0319454
0.0492002
0.0599557
0.059345
0.0519211
0.0394441
0.0280242
0.0239597
0.0249686
0.0277465
0.0294035
0.0285294
0.020982
0.00938163
0.00521829
0.00488304
0.00690256
0.0115874
0.0193667
0.0297239
0.0372332
0.0380645
0.0419137
0.0429496
0.0335599
0.0251936
0.0159669
0.0151506
0.0177249
0.0230582
0.0273999
0.0286004
0.0286947
0.028879
0.0282549
0.0267367
0.0258997
0.0355671
0.0564315
0.063042
0.0519987
0.0288645
0.0203846
0.0597782
0.0669174
0.0730892
0.0746398
0.0553005
0.0213767
0.030441
0.0407573
0.0179754
0.0132194
0.0291961
0.0444766
0.0273648
0.0361268
0.0194417
0.00471072
0.0223885
0.0498557
0.0828942
0.0212989
0.00746756
0.0175871
0.0168784
0.016927
0.0239462
0.0273022
0.0288131
0.0273968
0.026741
0.0389432
0.0775077
0.0567134
0.075457
0.0892893
0.0989926
0.0997301
0.083623
0.0714398
0.0771338
0.0778161
0.0342157
0.0113892
0.0152525
0.0112825
0.0210264
0.0232629
0.083612
0.0874696
0.0403675
0.0105874
0.0185198
0.03005
0.0352106
0.0566245
0.0769381
0.0840193
0.0844457
0.0843347
0.0795105
0.0653854
0.0491702
0.0434455
0.0373454
0.0264275
0.015049
0.0172072
0.0224887
0.0379889
0.0697309
0.0963971
0.107486
0.102365
0.0723092
0.0488819
0.0583748
0.0682511
0.0734875
0.0654074
0.0458808
0.0229798
0.0181671
0.0226986
0.0232638
0.0295156
0.0424888
0.0501745
0.0491541
0.0521358
0.0673467
0.0794713
0.0786422
0.0711396
0.0581526
0.0405797
0.0198148
0.00959367
0.00816186
0.0103742
0.015805
0.0241659
0.0347515
0.040144
0.0377755
0.0306629