/*--------------------------------*- C++ -*----------------------------------*\
| =========                 |                                                 |
| \\      /  F ield         | OpenFOAM: The Open Source CFD Toolbox           |
|  \\    /   O peration     | Version:  v1912                                 |
|   \\  /    A nd           | Website:  www.openfoam.com                      |
|    \\/     M anipulation  |                                                 |
\*---------------------------------------------------------------------------*/
FoamFile
{
    version     2.0;
    format      ascii;
    class       volScalarField;
    location    "20";
    object      omega;
}
// * * * * * * * * * * * * * * * * * * * * * * * * * * * * * * * * * * * * * //

dimensions      [0 0 -1 0 0 0 0];


internalField   nonuniform List<scalar> 
14268
(
2.98473
2.98473
2.98473
2.98472
2.98472
2.98472
2.98472
2.98472
2.98472
2.98471
2.98471
2.98471
2.98471
2.98472
2.98472
2.98472
2.98472
2.98473
2.98473
2.98473
2.98474
2.98474
2.98474
2.98474
2.98474
2.98475
2.98475
2.98476
2.98477
2.98479
2.98482
2.98486
2.98491
2.98499
2.98512
2.98533
2.9856
2.98593
2.98609
2.98593
2.98562
2.98531
2.985
2.98455
0.691079
0.691074
0.691078
0.691087
0.691099
0.691113
0.691129
0.691143
0.691154
0.69116
0.691155
0.691137
0.691102
0.691048
0.690975
0.690887
0.690784
0.690675
0.690565
0.690466
0.690384
0.690311
0.690242
0.690186
0.690121
0.690052
0.68994
0.689697
0.689289
0.688722
0.687985
0.686958
0.68566
0.683638
0.680668
0.676382
0.67114
0.666081
0.664405
0.667592
0.680664
0.704993
0.756469
0.788073
0.532695
0.532693
0.532692
0.532691
0.532691
0.532691
0.532692
0.532692
0.532693
0.532693
0.532693
0.53269
0.532686
0.53268
0.532672
0.532662
0.532651
0.532639
0.532627
0.532616
0.532604
0.532594
0.532586
0.532578
0.532572
0.532561
0.532546
0.532517
0.532469
0.532418
0.532329
0.532252
0.532085
0.531971
0.531704
0.531626
0.531562
0.532213
0.532981
0.533624
0.534082
0.535729
0.540967
0.546661
0.522574
0.522575
0.522577
0.522579
0.522581
0.522582
0.522584
0.522585
0.522586
0.522588
0.522589
0.52259
0.522591
0.522591
0.522591
0.522591
0.52259
0.522589
0.522589
0.522589
0.52259
0.522592
0.522592
0.522595
0.522595
0.522596
0.522596
0.522595
0.522592
0.522587
0.522584
0.522594
0.522602
0.522673
0.522782
0.523234
0.52387
0.525199
0.526293
0.526594
0.526058
0.525629
0.525653
0.524949
0.52203
0.522032
0.522034
0.522036
0.522038
0.522039
0.522041
0.522043
0.522044
0.522046
0.522048
0.522049
0.522051
0.522053
0.522055
0.522057
0.52206
0.522063
0.522065
0.522068
0.52207
0.522072
0.522077
0.522078
0.522083
0.522083
0.522086
0.522091
0.522097
0.522115
0.522127
0.522175
0.522177
0.522319
0.522428
0.522893
0.523506
0.52492
0.526048
0.52648
0.525899
0.525357
0.524605
0.525987
0.522
0.522002
0.522005
0.522007
0.522009
0.522011
0.522014
0.522015
0.522016
0.522019
0.522021
0.522022
0.522024
0.522027
0.522027
0.522028
0.522028
0.522029
0.52203
0.522032
0.522035
0.522037
0.522039
0.522042
0.522042
0.522044
0.522046
0.522047
0.522048
0.522048
0.522053
0.522069
0.52209
0.52217
0.522296
0.52276
0.523401
0.524713
0.525842
0.526233
0.525672
0.525119
0.524552
0.523877
0.522006
0.522008
0.52201
0.522012
0.522014
0.522016
0.522019
0.522021
0.522022
0.522025
0.522027
0.522028
0.522031
0.522034
0.522035
0.522038
0.522041
0.522044
0.522047
0.52205
0.522053
0.522055
0.522059
0.522061
0.522065
0.522064
0.522067
0.522071
0.522076
0.522092
0.522105
0.52215
0.522152
0.522293
0.522394
0.522864
0.523496
0.52491
0.52606
0.526476
0.525864
0.525317
0.524515
0.525551
0.521998
0.522001
0.522004
0.522006
0.522008
0.52201
0.522013
0.522015
0.522016
0.52202
0.522022
0.522023
0.522026
0.522029
0.522029
0.522031
0.522031
0.522033
0.522033
0.522036
0.522038
0.522041
0.522043
0.522046
0.522045
0.522046
0.522048
0.522047
0.522048
0.522044
0.522048
0.522064
0.522082
0.522167
0.522288
0.522752
0.523386
0.524761
0.525868
0.526264
0.525702
0.52514
0.524538
0.52388
0.522004
0.522007
0.522009
0.522011
0.522014
0.522015
0.522018
0.52202
0.522021
0.522025
0.522027
0.522028
0.522032
0.522035
0.522037
0.52204
0.522043
0.522047
0.52205
0.522053
0.522056
0.522058
0.522062
0.522064
0.522067
0.522065
0.522067
0.522069
0.522072
0.522085
0.522096
0.522139
0.522138
0.522273
0.522365
0.522834
0.523474
0.524764
0.525977
0.526419
0.525808
0.525254
0.524496
0.52524
0.521997
0.522
0.522002
0.522005
0.522007
0.522009
0.522012
0.522014
0.522015
0.522019
0.522022
0.522023
0.522026
0.522029
0.52203
0.522032
0.522033
0.522035
0.522035
0.522038
0.522041
0.522043
0.522045
0.522048
0.522046
0.522046
0.522047
0.522044
0.522043
0.522038
0.522042
0.52206
0.522076
0.522167
0.522282
0.522743
0.523362
0.524813
0.525907
0.52633
0.525753
0.52518
0.524493
0.523801
0.522003
0.522005
0.522008
0.52201
0.522012
0.522014
0.522017
0.522019
0.52202
0.522024
0.522027
0.522028
0.522031
0.522035
0.522037
0.522041
0.522044
0.522048
0.522051
0.522054
0.522057
0.522058
0.522063
0.522064
0.522066
0.522063
0.522063
0.522064
0.522065
0.522075
0.522085
0.522125
0.522122
0.522253
0.522339
0.522805
0.523454
0.524818
0.525883
0.526321
0.525744
0.525246
0.524523
0.524782
0.521995
0.521998
0.522
0.522002
0.522005
0.522007
0.52201
0.522012
0.522013
0.522018
0.522021
0.522021
0.522025
0.522029
0.522029
0.522032
0.522033
0.522035
0.522036
0.522038
0.522041
0.522043
0.522045
0.522047
0.522044
0.522043
0.522043
0.522039
0.522036
0.522034
0.522039
0.522062
0.522074
0.522169
0.522281
0.52274
0.523365
0.524662
0.525924
0.526368
0.525778
0.525179
0.524367
0.523811
0.521999
0.522002
0.522004
0.522006
0.522008
0.52201
0.522013
0.522015
0.522016
0.52202
0.522023
0.522024
0.522028
0.522032
0.522034
0.522038
0.522041
0.522046
0.522048
0.522052
0.522054
0.522056
0.52206
0.52206
0.522061
0.522057
0.522056
0.522055
0.522054
0.522062
0.52207
0.522109
0.522104
0.52223
0.522313
0.522777
0.523402
0.524878
0.526003
0.526384
0.525771
0.525275
0.524604
0.524273
0.521985
0.521987
0.521989
0.521992
0.521994
0.521996
0.521999
0.522001
0.522002
0.522007
0.522009
0.52201
0.522014
0.522017
0.522018
0.52202
0.522022
0.522023
0.522024
0.522026
0.522028
0.52203
0.522031
0.522032
0.522029
0.522027
0.522025
0.52202
0.522016
0.522013
0.522014
0.522038
0.522044
0.522153
0.522254
0.522703
0.523328
0.524608
0.525785
0.526351
0.525791
0.525198
0.52435
0.524275
0.521961
0.521962
0.521964
0.521965
0.521966
0.521967
0.521968
0.52197
0.52197
0.521973
0.521974
0.521975
0.521977
0.521979
0.521981
0.521983
0.521986
0.521989
0.521991
0.521993
0.521994
0.521995
0.521997
0.521998
0.522
0.521996
0.521996
0.521995
0.521995
0.522003
0.522009
0.522051
0.522048
0.522181
0.522283
0.522749
0.523393
0.524751
0.525859
0.526288
0.525718
0.525252
0.524689
0.52379
0.521956
0.521957
0.521958
0.521959
0.521961
0.521962
0.521964
0.521965
0.521966
0.521968
0.52197
0.521971
0.521973
0.521975
0.521975
0.521977
0.521977
0.521978
0.521978
0.521979
0.521981
0.521983
0.521983
0.521984
0.521984
0.521984
0.521983
0.521984
0.521982
0.521989
0.521991
0.52202
0.522031
0.522147
0.522254
0.522715
0.523314
0.524758
0.525979
0.526414
0.525812
0.525224
0.524339
0.524568
0.521964
0.521965
0.521967
0.521968
0.521969
0.52197
0.521972
0.521974
0.521975
0.521977
0.521979
0.52198
0.521982
0.521985
0.521986
0.521989
0.521991
0.521994
0.521997
0.522
0.522002
0.522003
0.522006
0.522007
0.522009
0.522006
0.522006
0.522005
0.522005
0.522013
0.522019
0.522059
0.522052
0.522184
0.522275
0.522735
0.523349
0.524626
0.52592
0.526408
0.525799
0.525283
0.524835
0.523622
0.521958
0.521959
0.52196
0.521962
0.521963
0.521965
0.521967
0.521969
0.52197
0.521973
0.521975
0.521976
0.521978
0.521981
0.521981
0.521983
0.521983
0.521984
0.521985
0.521987
0.521989
0.521991
0.521993
0.521995
0.521993
0.521994
0.521994
0.521992
0.521991
0.521992
0.521995
0.522018
0.522033
0.522132
0.522243
0.522686
0.523403
0.524877
0.525789
0.526325
0.525772
0.525268
0.524395
0.524682
0.521965
0.521966
0.521967
0.521968
0.521969
0.521971
0.521973
0.521975
0.521977
0.521979
0.521981
0.521983
0.521985
0.521988
0.52199
0.521993
0.521995
0.521998
0.522001
0.522005
0.522007
0.52201
0.522014
0.522016
0.522019
0.522016
0.522017
0.522017
0.522018
0.522025
0.52203
0.522069
0.522063
0.522188
0.522278
0.522741
0.523329
0.524401
0.525771
0.52627
0.525758
0.525265
0.52489
0.523829
0.521958
0.521959
0.52196
0.521962
0.521963
0.521966
0.521968
0.52197
0.521972
0.521975
0.521977
0.521979
0.521981
0.521984
0.521985
0.521986
0.521987
0.521988
0.521989
0.521992
0.521995
0.521998
0.522001
0.522005
0.522004
0.522005
0.522007
0.522006
0.522007
0.521999
0.522002
0.522007
0.522037
0.522133
0.522226
0.522661
0.523184
0.524992
0.526207
0.526619
0.525854
0.525372
0.524552
0.524871
0.521963
0.521964
0.521965
0.521967
0.521968
0.521971
0.521973
0.521975
0.521977
0.521979
0.521982
0.521984
0.521986
0.521989
0.52199
0.521993
0.521995
0.521998
0.522001
0.522005
0.522008
0.522011
0.522017
0.52202
0.522024
0.522022
0.522023
0.522025
0.522027
0.522038
0.522047
0.522089
0.522087
0.522183
0.522295
0.522785
0.523511
0.525118
0.525893
0.526389
0.525929
0.525335
0.524824
0.524326
0.52193
0.521929
0.52193
0.52193
0.52193
0.52193
0.52193
0.52193
0.521931
0.521931
0.521931
0.521932
0.521932
0.521932
0.521933
0.521934
0.521934
0.521935
0.521936
0.521937
0.521936
0.521936
0.521938
0.521939
0.521942
0.521942
0.521943
0.521946
0.521945
0.521951
0.521957
0.52198
0.522007
0.522104
0.522202
0.522623
0.523274
0.524565
0.525817
0.526411
0.525884
0.525502
0.524706
0.524798
0.521934
0.521934
0.521934
0.521935
0.521935
0.521935
0.521935
0.521936
0.521936
0.521936
0.521936
0.521936
0.521936
0.521936
0.521937
0.521937
0.521938
0.521939
0.52194
0.521941
0.521942
0.521943
0.521946
0.521947
0.521951
0.521949
0.521947
0.52195
0.521948
0.521964
0.521972
0.522008
0.522024
0.522117
0.522205
0.522592
0.523203
0.524843
0.526199
0.526767
0.526173
0.525722
0.525081
0.523959
0.521934
0.521934
0.521935
0.521935
0.521936
0.521936
0.521937
0.521937
0.521938
0.521938
0.521939
0.521939
0.52194
0.52194
0.52194
0.521941
0.521942
0.521943
0.521945
0.521946
0.521945
0.521947
0.521951
0.521953
0.521955
0.521956
0.52196
0.521966
0.521975
0.521982
0.522003
0.521997
0.522075
0.522057
0.522122
0.522447
0.52317
0.524672
0.526123
0.527049
0.526588
0.526521
0.525931
0.525914
0.521949
0.521949
0.521951
0.521951
0.521952
0.521953
0.521953
0.521953
0.521953
0.521953
0.521954
0.521955
0.521955
0.521955
0.521955
0.521954
0.521954
0.521954
0.521954
0.521955
0.521955
0.521957
0.521962
0.521967
0.521972
0.521968
0.521966
0.521969
0.521971
0.521989
0.521997
0.522034
0.522048
0.522112
0.52219
0.52251
0.523227
0.525113
0.526782
0.527676
0.527199
0.526768
0.525979
0.525798
0.521942
0.521942
0.521943
0.521943
0.521943
0.521944
0.521944
0.521944
0.521944
0.521943
0.521943
0.521943
0.521943
0.521943
0.521943
0.521944
0.521945
0.521947
0.521949
0.521951
0.521954
0.521959
0.521966
0.521969
0.521969
0.521971
0.521981
0.521998
0.522023
0.522046
0.522085
0.522091
0.522206
0.522178
0.52229
0.52245
0.523305
0.525109
0.526998
0.528288
0.52792
0.527994
0.527378
0.527979
0.521972
0.521974
0.521975
0.521976
0.521977
0.521977
0.521977
0.521977
0.521977
0.521978
0.52198
0.521981
0.521982
0.521983
0.521983
0.521983
0.521982
0.521984
0.521987
0.521989
0.521987
0.521986
0.521993
0.522002
0.522006
0.522003
0.522006
0.522009
0.522014
0.522038
0.522049
0.52209
0.522078
0.522145
0.522211
0.522493
0.523289
0.525765
0.527934
0.529245
0.528985
0.528536
0.527833
0.528717
0.521979
0.52198
0.52198
0.521981
0.521981
0.521981
0.521981
0.521981
0.52198
0.521979
0.521978
0.521978
0.521978
0.521977
0.521978
0.521979
0.521982
0.521986
0.521988
0.521991
0.521999
0.522003
0.522002
0.522006
0.522003
0.522009
0.522026
0.52205
0.522091
0.52213
0.522189
0.522207
0.522342
0.522355
0.522505
0.52258
0.523746
0.526414
0.529054
0.530092
0.529825
0.529978
0.529648
0.530928
0.522014
0.522015
0.522016
0.522015
0.522016
0.522016
0.522016
0.522017
0.522018
0.522019
0.522021
0.522022
0.522023
0.522023
0.522023
0.522024
0.522028
0.522035
0.522045
0.522051
0.522047
0.522041
0.522052
0.522066
0.522077
0.522081
0.522091
0.522096
0.522102
0.522126
0.522135
0.522181
0.52215
0.52225
0.522337
0.522509
0.523446
0.526572
0.529948
0.531911
0.531349
0.530935
0.530991
0.532771
0.522032
0.522033
0.522034
0.522036
0.522037
0.522038
0.522039
0.522039
0.522037
0.522036
0.522036
0.522037
0.522039
0.522042
0.522046
0.522052
0.52206
0.52207
0.522076
0.522078
0.522082
0.522077
0.522068
0.522068
0.522077
0.522098
0.522122
0.52215
0.522194
0.522232
0.522306
0.522341
0.522476
0.522481
0.522689
0.522919
0.524824
0.530309
0.536724
0.538608
0.535736
0.534028
0.531438
0.533187
0.522065
0.522066
0.522068
0.522069
0.52207
0.522071
0.522072
0.522072
0.522072
0.522073
0.522074
0.522074
0.522075
0.522077
0.522083
0.522089
0.522098
0.522112
0.52213
0.522139
0.522127
0.522123
0.522132
0.522157
0.522182
0.522185
0.522194
0.522208
0.522218
0.522239
0.522253
0.522301
0.522297
0.522416
0.52254
0.522936
0.525531
0.538942
0.570961
0.580888
0.573378
0.565681
0.552239
0.538575
0.522112
0.522117
0.522122
0.522125
0.522127
0.522129
0.522131
0.522133
0.522133
0.522134
0.522136
0.52214
0.522146
0.522153
0.522162
0.522174
0.522189
0.522204
0.522209
0.522207
0.522204
0.522192
0.522179
0.522203
0.522241
0.522272
0.522289
0.522316
0.522367
0.522419
0.522469
0.522548
0.522701
0.522766
0.523252
0.525728
0.543403
0.618063
0.737487
0.754133
0.749348
0.758244
0.722327
0.628237
0.522139
0.522145
0.522151
0.522156
0.52216
0.522164
0.522167
0.522169
0.522169
0.522167
0.522163
0.52216
0.522161
0.522165
0.522172
0.52218
0.522189
0.522206
0.522232
0.522244
0.522249
0.522274
0.522401
0.522526
0.522568
0.522595
0.522401
0.522409
0.522485
0.522561
0.522794
0.523196
0.523841
0.524881
0.528479
0.560548
0.652024
0.938522
1.15202
1.08126
1.17946
1.43645
1.56425
1.58225
0.524251
0.524288
0.524318
0.524346
0.524373
0.524398
0.524422
0.524441
0.524455
0.524467
0.524485
0.52452
0.524579
0.524666
0.524779
0.524912
0.525069
0.525275
0.525529
0.525792
0.528306
0.537052
0.54713
0.551476
0.551397
0.553087
0.532217
0.52774
0.528436
0.530864
0.535895
0.545013
0.558027
0.576699
0.641665
0.979034
1.14977
1.52109
1.54352
1.56784
1.74001
1.90377
2.10364
2.35471
0.529703
0.529857
0.529995
0.530122
0.530242
0.530352
0.530449
0.53053
0.530597
0.53066
0.530742
0.530869
0.53106
0.531323
0.531657
0.532076
0.532695
0.533872
0.53801
0.568207
1.65848
2.03236
2.06832
1.85935
1.67573
1.74846
0.909862
0.611542
0.604054
0.647978
0.779714
1.04902
1.62244
3.24296
6.92377
3.8897
2.12139
1.8108
1.63557
1.70819
2.05471
2.30044
2.49696
2.72728
0.605194
0.608843
0.612321
0.615594
0.618654
0.621492
0.624102
0.626494
0.628696
0.630755
0.63259
0.634428
0.636713
0.64038
0.647287
0.662222
0.70159
0.845137
1.73399
11.0398
78.9179
32.9427
14.7866
10.1723
9.07384
9.70441
11.613
2.85398
2.14915
2.10933
2.41912
2.59281
2.48522
2.68733
6.69828
10.5167
3.29963
3.20031
3.74703
3.49979
2.89414
2.74795
3.14483
4.18635
0.662805
0.663027
0.663663
0.664224
0.664899
0.665613
0.666344
0.667108
0.66802
0.669347
0.670849
0.67215
0.673974
0.677084
0.683554
0.699661
0.7609
1.06241
2.04087
3.27524
3.71678
2.90058
2.48853
2.37417
2.29723
2.20238
2.13834
2.15018
2.57617
3.30718
3.6655
3.84116
3.8529
3.6451
3.88036
6.40043
4.01531
3.21159
3.41891
3.47373
3.32569
2.86856
3.50585
4.22762
0.570021
0.570738
0.571417
0.572068
0.572702
0.57332
0.573932
0.574508
0.574968
0.575154
0.575521
0.576239
0.576899
0.577892
0.58006
0.586613
0.608822
0.684367
2.34791
131.354
25.2924
12.2964
8.71963
6.90527
5.9068
6.13392
4.10157
2.83563
2.37518
2.16829
1.94218
1.67775
1.32482
0.942304
0.684069
0.628135
0.681657
0.81425
1.04777
1.56241
1.51306
1.92777
1.28285
0.99441
0.522535
0.522541
0.522545
0.522548
0.522556
0.52257
0.522591
0.522619
0.522653
0.522698
0.522755
0.522827
0.522978
0.523279
0.524041
0.526266
0.532248
0.548284
0.618549
1.68557
1.59219
1.52594
1.11244
1.11325
1.13166
1.03635
0.798963
0.699266
0.674665
0.648443
0.624148
0.603189
0.582114
0.560193
0.559417
0.559241
0.560319
0.559356
0.579064
0.662886
0.676172
0.976033
0.894373
0.780991
0.522435
0.522453
0.522472
0.522492
0.522512
0.52253
0.522547
0.522555
0.522572
0.522592
0.522607
0.522628
0.522709
0.522921
0.523334
0.523953
0.525084
0.528141
0.5339
0.549934
0.55128
0.548926
0.54473
0.546142
0.546526
0.540871
0.536864
0.536585
0.537274
0.539176
0.542095
0.544872
0.548737
0.549891
0.552801
0.553346
0.553611
0.550031
0.549281
0.553766
0.557366
0.659254
0.69232
0.749427
0.522394
0.522407
0.522423
0.522439
0.522456
0.522472
0.522485
0.522492
0.522513
0.522537
0.52255
0.5226
0.522741
0.523036
0.523581
0.5246
0.526321
0.529235
0.531594
0.532971
0.533509
0.533764
0.53386
0.533986
0.533717
0.533316
0.533102
0.532994
0.533741
0.536083
0.539018
0.541612
0.544416
0.547023
0.550017
0.550452
0.551218
0.547102
0.549942
0.556893
0.564935
0.610182
0.612193
0.627811
0.522291
0.522306
0.522322
0.52234
0.522359
0.522376
0.522393
0.522402
0.52242
0.522436
0.522434
0.522469
0.522604
0.522809
0.523194
0.523785
0.524783
0.52655
0.528664
0.529301
0.529445
0.529604
0.529444
0.529267
0.528993
0.529031
0.52952
0.530585
0.532287
0.534796
0.537788
0.540326
0.543134
0.54498
0.54693
0.547269
0.547748
0.543721
0.54306
0.543035
0.54789
0.585328
0.633461
0.645977
0.52223
0.52224
0.522254
0.522268
0.522283
0.522297
0.52231
0.522317
0.522337
0.522357
0.522365
0.52244
0.52261
0.522893
0.523387
0.524228
0.525526
0.527512
0.528998
0.529548
0.529961
0.530113
0.530063
0.530004
0.529784
0.529783
0.529878
0.530228
0.531351
0.533524
0.536054
0.538136
0.540399
0.542236
0.544717
0.544673
0.544989
0.541361
0.542097
0.547461
0.545949
0.563855
0.577214
0.590242
0.52218
0.522187
0.522196
0.522206
0.522218
0.52223
0.522243
0.522249
0.522263
0.522276
0.522272
0.522323
0.522448
0.522641
0.52298
0.523492
0.524304
0.525515
0.526925
0.527539
0.527727
0.527801
0.527688
0.527422
0.527249
0.52739
0.527743
0.528821
0.530355
0.532426
0.534813
0.536852
0.538944
0.540507
0.542508
0.541951
0.541908
0.538513
0.537706
0.537361
0.541442
0.561834
0.596748
0.601313
0.522097
0.522101
0.522109
0.522117
0.522126
0.522135
0.522142
0.522144
0.522159
0.522175
0.522189
0.522276
0.522443
0.522709
0.523135
0.523827
0.52479
0.526196
0.527255
0.527573
0.527836
0.527978
0.527888
0.527794
0.527708
0.527666
0.527678
0.528356
0.529506
0.531234
0.533175
0.534839
0.536813
0.538417
0.540612
0.539876
0.539428
0.537019
0.536244
0.54002
0.535731
0.542078
0.55632
0.567767
0.522115
0.522119
0.522127
0.522136
0.522145
0.522154
0.522162
0.522166
0.522174
0.522185
0.52219
0.522229
0.522335
0.522495
0.522771
0.523179
0.523814
0.524656
0.525627
0.526248
0.526322
0.526374
0.526226
0.526021
0.525865
0.525951
0.526453
0.527322
0.52854
0.530121
0.531992
0.533748
0.535756
0.537149
0.538879
0.537757
0.536857
0.534577
0.533264
0.533154
0.53659
0.547479
0.568207
0.572211
0.522027
0.522028
0.522032
0.522036
0.522041
0.522045
0.522052
0.522058
0.522076
0.5221
0.52213
0.522212
0.522369
0.522602
0.522952
0.523505
0.524242
0.525254
0.526067
0.526428
0.526458
0.526524
0.526406
0.526357
0.526232
0.526118
0.526305
0.526863
0.527734
0.529032
0.530717
0.532344
0.534232
0.535421
0.536734
0.53572
0.534804
0.533046
0.53182
0.534712
0.532035
0.534722
0.542529
0.553765
0.522069
0.522072
0.522078
0.522085
0.522093
0.522105
0.522119
0.522131
0.522147
0.522161
0.52217
0.522206
0.522296
0.522431
0.522649
0.522967
0.52346
0.52407
0.524772
0.525266
0.525313
0.525301
0.525133
0.524976
0.524833
0.524892
0.52529
0.525911
0.526875
0.528278
0.530068
0.531835
0.533413
0.534474
0.534897
0.534111
0.532804
0.531261
0.529588
0.530414
0.53322
0.539667
0.549925
0.553448
0.522015
0.522022
0.522032
0.522043
0.522055
0.522068
0.52208
0.522094
0.522121
0.522154
0.522192
0.522263
0.522391
0.52258
0.522857
0.523278
0.523832
0.524538
0.525171
0.525464
0.525486
0.525425
0.525368
0.525294
0.525131
0.524894
0.525021
0.525438
0.526319
0.527661
0.52932
0.530641
0.53199
0.532592
0.533018
0.532109
0.531059
0.530083
0.5286
0.531255
0.529679
0.531861
0.536664
0.542824
0.52208
0.522087
0.522096
0.522106
0.522115
0.522122
0.522128
0.522135
0.522147
0.522162
0.522173
0.522204
0.522273
0.52238
0.522543
0.52278
0.523147
0.523573
0.524076
0.524437
0.524537
0.524391
0.524296
0.524118
0.523988
0.523836
0.524168
0.524874
0.52597
0.527397
0.528857
0.530229
0.530981
0.531768
0.531422
0.530982
0.52948
0.528897
0.527286
0.528296
0.530406
0.535029
0.540289
0.54285
0.52202
0.522032
0.522045
0.522058
0.522071
0.522083
0.522095
0.52211
0.522131
0.522158
0.52219
0.522245
0.522345
0.522495
0.52271
0.523022
0.523437
0.523926
0.524411
0.524635
0.524719
0.524563
0.524496
0.52446
0.524438
0.52423
0.524224
0.52489
0.525901
0.526936
0.528119
0.528932
0.529748
0.530014
0.529911
0.529201
0.528156
0.527751
0.526761
0.528407
0.528324
0.529694
0.532156
0.53658
0.522096
0.522103
0.522111
0.522118
0.522124
0.52213
0.522134
0.522139
0.522147
0.522156
0.522165
0.522182
0.522229
0.522307
0.522423
0.522591
0.522849
0.523141
0.52349
0.523745
0.523812
0.523639
0.523605
0.523609
0.523641
0.523702
0.524077
0.524807
0.525666
0.526683
0.527562
0.528516
0.528797
0.529308
0.52871
0.528571
0.527202
0.527296
0.526088
0.527294
0.528752
0.531842
0.534849
0.536633
0.522025
0.522033
0.522042
0.522052
0.522062
0.522072
0.522083
0.522095
0.522113
0.522136
0.522167
0.522207
0.522282
0.522397
0.522563
0.522787
0.52309
0.523427
0.523779
0.523936
0.523977
0.523869
0.523914
0.523998
0.524166
0.524452
0.524771
0.525137
0.525633
0.526202
0.526968
0.527375
0.527777
0.527764
0.527555
0.527011
0.526297
0.526101
0.525729
0.526646
0.527273
0.527942
0.529744
0.532764
0.522099
0.522102
0.522107
0.522111
0.522115
0.522118
0.52212
0.522122
0.522127
0.522133
0.522142
0.522147
0.522175
0.522227
0.522308
0.522424
0.52259
0.522787
0.523007
0.523162
0.523152
0.523102
0.523202
0.523358
0.523726
0.524146
0.524515
0.524851
0.525281
0.525881
0.526389
0.527024
0.526992
0.527274
0.526656
0.526784
0.525697
0.526074
0.525421
0.526478
0.527443
0.529458
0.531198
0.532105
0.522017
0.522022
0.522029
0.522037
0.522045
0.522053
0.522062
0.522072
0.522087
0.522108
0.522136
0.522166
0.522221
0.522307
0.522431
0.522591
0.5228
0.523025
0.523254
0.523342
0.523296
0.523358
0.523545
0.523892
0.524318
0.524689
0.52491
0.525128
0.525267
0.525486
0.525877
0.526041
0.526198
0.526001
0.525798
0.525446
0.52502
0.52506
0.524865
0.52562
0.526327
0.526761
0.528266
0.529959
0.522086
0.522087
0.522089
0.522091
0.522092
0.522093
0.522093
0.522093
0.522094
0.522099
0.522106
0.52211
0.522125
0.52216
0.522214
0.522294
0.522395
0.522518
0.522629
0.522681
0.52263
0.522835
0.523183
0.523596
0.523999
0.524313
0.524607
0.524716
0.524947
0.525117
0.525315
0.525659
0.52552
0.525748
0.525165
0.525527
0.524721
0.525205
0.525006
0.525741
0.526468
0.527723
0.528843
0.529246
0.522002
0.522006
0.522011
0.522017
0.522023
0.522029
0.522036
0.522044
0.522055
0.522074
0.522101
0.522132
0.522172
0.522237
0.522329
0.522443
0.522585
0.522723
0.522839
0.52282
0.522946
0.523262
0.523637
0.523993
0.5243
0.52458
0.524758
0.524952
0.524883
0.524957
0.524902
0.524869
0.524885
0.5247
0.524567
0.524415
0.524178
0.524317
0.52435
0.524941
0.525518
0.525953
0.527117
0.528255
0.522065
0.522064
0.522065
0.522066
0.522066
0.522066
0.522066
0.522065
0.522064
0.522066
0.522075
0.522086
0.522094
0.522119
0.522159
0.522211
0.522276
0.522338
0.522367
0.522392
0.522709
0.523054
0.523386
0.523674
0.523961
0.524192
0.524417
0.524476
0.524575
0.524463
0.52448
0.524527
0.524349
0.524577
0.524148
0.524664
0.524093
0.524601
0.524603
0.525173
0.525742
0.526456
0.52722
0.527515
0.521995
0.522
0.522006
0.522013
0.52202
0.522027
0.522035
0.522044
0.522054
0.52207
0.522092
0.522122
0.522155
0.522201
0.522269
0.522349
0.522442
0.522522
0.522585
0.52276
0.523059
0.523341
0.523601
0.523853
0.524082
0.524298
0.524417
0.524578
0.524472
0.524491
0.524174
0.524098
0.523934
0.523798
0.523752
0.523808
0.523668
0.52387
0.524007
0.524451
0.524909
0.525292
0.526188
0.52686
0.522044
0.522042
0.522041
0.522041
0.522041
0.522041
0.52204
0.52204
0.522044
0.522052
0.522066
0.522084
0.522101
0.522117
0.522149
0.522191
0.522232
0.522283
0.522372
0.522597
0.522858
0.523104
0.523345
0.523553
0.523761
0.523915
0.524074
0.52408
0.524149
0.523937
0.523865
0.523676
0.523601
0.523757
0.523497
0.524084
0.523727
0.524199
0.52432
0.524744
0.525177
0.525578
0.526178
0.526252
0.522015
0.522018
0.522022
0.522027
0.522032
0.522037
0.522042
0.522048
0.522056
0.522066
0.522083
0.522108
0.522142
0.522182
0.522236
0.522304
0.522383
0.522484
0.522635
0.522822
0.523026
0.523231
0.523421
0.523609
0.523768
0.523916
0.523983
0.524084
0.523946
0.52399
0.523676
0.523677
0.523378
0.523481
0.523272
0.523572
0.523369
0.523672
0.52382
0.524075
0.524436
0.524748
0.525384
0.525769
0.522029
0.522029
0.52203
0.522032
0.522034
0.522038
0.522043
0.522048
0.522055
0.522062
0.522073
0.522088
0.522109
0.522131
0.522159
0.5222
0.522257
0.522349
0.522486
0.522649
0.522836
0.523015
0.523189
0.523338
0.523473
0.523564
0.523661
0.523622
0.523652
0.523445
0.523436
0.523163
0.523215
0.52326
0.523163
0.523621
0.523472
0.523846
0.524059
0.524353
0.524693
0.524963
0.525417
0.525399
0.522029
0.52203
0.522032
0.522034
0.522038
0.522042
0.522047
0.522053
0.52206
0.522068
0.52208
0.5221
0.52213
0.522168
0.522221
0.522288
0.522375
0.522483
0.522614
0.522754
0.522901
0.523047
0.52318
0.52331
0.523408
0.523505
0.523522
0.523575
0.523434
0.52348
0.523253
0.523351
0.523125
0.523443
0.523161
0.523577
0.523379
0.523573
0.523735
0.523786
0.524062
0.524309
0.524761
0.525024
0.522033
0.522034
0.522037
0.522039
0.522042
0.522046
0.522051
0.522056
0.522063
0.522071
0.522079
0.522091
0.522108
0.522132
0.522162
0.522207
0.522273
0.522361
0.522473
0.522604
0.52274
0.522866
0.522982
0.523077
0.523165
0.523201
0.523251
0.523186
0.523199
0.523024
0.523076
0.52288
0.523
0.523119
0.523021
0.523395
0.523322
0.523549
0.523796
0.524041
0.524317
0.524525
0.524819
0.524757
0.522037
0.522038
0.522041
0.522044
0.522047
0.52205
0.522055
0.522061
0.522067
0.522075
0.522084
0.522097
0.522119
0.52215
0.522192
0.52225
0.522328
0.522419
0.522523
0.522634
0.522741
0.522841
0.522923
0.523001
0.523057
0.523092
0.523092
0.523125
0.523019
0.523086
0.522932
0.523107
0.522937
0.523288
0.52305
0.523401
0.523297
0.52346
0.52363
0.523633
0.523831
0.524026
0.524342
0.524498
0.522041
0.522042
0.522045
0.522048
0.522051
0.522055
0.522059
0.522064
0.522071
0.522078
0.522087
0.522096
0.522109
0.522129
0.522156
0.522192
0.522244
0.522318
0.522406
0.522506
0.522608
0.522698
0.522771
0.522822
0.522865
0.52287
0.522889
0.522827
0.522851
0.522722
0.52282
0.522744
0.522851
0.52309
0.522967
0.523292
0.523251
0.523408
0.523582
0.52379
0.524029
0.524191
0.524364
0.524298
0.522044
0.522046
0.522049
0.522052
0.522056
0.522059
0.522063
0.522068
0.522075
0.522082
0.522091
0.522102
0.522115
0.522134
0.522165
0.522208
0.522262
0.522331
0.522409
0.522491
0.522567
0.522636
0.522687
0.522727
0.522765
0.522775
0.522763
0.522788
0.522725
0.522821
0.522725
0.522956
0.52283
0.523132
0.522984
0.523256
0.523223
0.523366
0.523526
0.523591
0.523741
0.523871
0.524067
0.524092
0.522049
0.522051
0.522054
0.522058
0.522062
0.522066
0.52207
0.522075
0.52208
0.522088
0.522096
0.522105
0.522115
0.522127
0.522146
0.522173
0.52221
0.522258
0.522321
0.522394
0.522464
0.522525
0.522572
0.522609
0.522623
0.522615
0.522622
0.522581
0.522627
0.522551
0.522666
0.522795
0.522787
0.523055
0.522958
0.52321
0.523199
0.523334
0.523483
0.52362
0.523797
0.523906
0.523955
0.523899
0.522052
0.522054
0.522057
0.522061
0.522065
0.522069
0.522074
0.522078
0.522083
0.52209
0.522098
0.522108
0.522119
0.522132
0.52215
0.522177
0.522212
0.522253
0.522302
0.522356
0.522406
0.522452
0.522483
0.522531
0.522525
0.522538
0.522543
0.52258
0.522551
0.522675
0.522632
0.522845
0.522784
0.523038
0.522949
0.523178
0.52318
0.523306
0.523439
0.523519
0.523635
0.523676
0.523741
0.523686
0.522053
0.522055
0.522059
0.522063
0.522068
0.522072
0.522077
0.522082
0.522086
0.522094
0.522103
0.522116
0.522122
0.522132
0.522145
0.522161
0.522184
0.522215
0.522252
0.522294
0.522337
0.522375
0.522403
0.522438
0.522435
0.522441
0.52246
0.522441
0.522503
0.522574
0.522618
0.522807
0.522773
0.523007
0.522938
0.523145
0.52316
0.52327
0.523381
0.523461
0.523558
0.523554
0.52355
0.523467
0.522062
0.522065
0.522069
0.522074
0.522079
0.522084
0.522089
0.522095
0.522101
0.522106
0.522111
0.522115
0.522125
0.522137
0.522149
0.522163
0.522182
0.522205
0.522231
0.52226
0.522287
0.522314
0.522338
0.522366
0.522383
0.522408
0.522429
0.522479
0.522488
0.522608
0.522618
0.5228
0.522771
0.522982
0.522929
0.523111
0.523132
0.523231
0.523316
0.523356
0.523396
0.523371
0.523357
0.523268
0.522062
0.522065
0.522069
0.522074
0.522079
0.522084
0.522089
0.522094
0.5221
0.522105
0.522109
0.522121
0.522131
0.52214
0.52215
0.522161
0.522173
0.522189
0.522208
0.522231
0.522256
0.522281
0.522308
0.522332
0.522355
0.522368
0.522399
0.522449
0.522491
0.522599
0.522628
0.522785
0.52277
0.522952
0.522916
0.523068
0.523091
0.523163
0.523223
0.52323
0.523246
0.523217
0.5232
0.523113
0.52206
0.522063
0.522067
0.522074
0.522079
0.522085
0.52209
0.522098
0.522104
0.522111
0.52212
0.522133
0.522136
0.522147
0.522159
0.522171
0.522184
0.522198
0.522213
0.522231
0.52225
0.522271
0.522296
0.522331
0.522352
0.522383
0.522421
0.522474
0.522513
0.522605
0.522639
0.522773
0.522769
0.522923
0.522897
0.523019
0.523041
0.523079
0.523116
0.523108
0.523117
0.523087
0.523064
0.522999
0.522072
0.522076
0.522082
0.522086
0.522092
0.5221
0.522107
0.522115
0.522123
0.52213
0.522133
0.522134
0.522146
0.522158
0.522172
0.522187
0.522202
0.522217
0.522232
0.522248
0.522266
0.522286
0.522302
0.522324
0.522363
0.522399
0.522439
0.522486
0.522527
0.522609
0.522643
0.522764
0.522761
0.522898
0.522875
0.522971
0.522994
0.52301
0.523037
0.523026
0.523031
0.522996
0.522978
0.522916
0.522077
0.522081
0.522084
0.52209
0.522095
0.5221
0.522104
0.522108
0.522116
0.522126
0.522136
0.522152
0.522164
0.522178
0.522194
0.522211
0.52223
0.522248
0.522268
0.522288
0.522311
0.522324
0.522354
0.522359
0.522384
0.522418
0.522456
0.522503
0.522536
0.522622
0.522638
0.522762
0.522747
0.522878
0.522854