/*--------------------------------*- C++ -*----------------------------------*\
| =========                 |                                                 |
| \\      /  F ield         | OpenFOAM: The Open Source CFD Toolbox           |
|  \\    /   O peration     | Version:  v1912                                 |
|   \\  /    A nd           | Website:  www.openfoam.com                      |
|    \\/     M anipulation  |                                                 |
\*---------------------------------------------------------------------------*/
FoamFile
{
    version     2.0;
    format      ascii;
    class       volScalarField;
    location    "20";
    object      p_rgh;
}
// * * * * * * * * * * * * * * * * * * * * * * * * * * * * * * * * * * * * * //

dimensions      [1 -1 -2 0 0 0 0];


internalField   nonuniform List<scalar> 
14268
(
-187.901
-191.673
-194.699
-197.133
-199.14
-200.888
-202.55
-204.312
-206.381
-208.989
-212.382
-216.785
-222.362
-229.166
-237.116
-246.002
-255.528
-265.314
-274.901
-283.784
-291.45
-297.506
-301.607
-303.384
-302.527
-298.917
-292.595
-283.704
-272.429
-258.895
-243.056
-224.56
-202.997
-177.782
-149.291
-118.531
-86.7794
-55.2402
-23.8752
14.6083
54.52
94.5881
129.551
157.932
-187.902
-191.673
-194.699
-197.134
-199.14
-200.888
-202.55
-204.312
-206.381
-208.989
-212.382
-216.785
-222.362
-229.166
-237.116
-246.003
-255.528
-265.314
-274.902
-283.784
-291.45
-297.506
-301.608
-303.384
-302.527
-298.918
-292.596
-283.704
-272.43
-258.895
-243.056
-224.56
-202.998
-177.783
-149.291
-118.531
-86.7796
-55.2406
-23.8758
14.6079
54.5199
94.5884
129.551
157.92
-187.902
-191.673
-194.699
-197.134
-199.14
-200.888
-202.55
-204.312
-206.381
-208.989
-212.382
-216.785
-222.362
-229.165
-237.116
-246.002
-255.528
-265.314
-274.902
-283.784
-291.45
-297.507
-301.608
-303.385
-302.528
-298.918
-292.596
-283.705
-272.43
-258.895
-243.057
-224.561
-202.999
-177.783
-149.291
-118.531
-86.7797
-55.2412
-23.8767
14.6074
54.5201
94.5893
129.553
157.923
-187.902
-191.673
-194.699
-197.134
-199.14
-200.888
-202.55
-204.312
-206.381
-208.989
-212.381
-216.785
-222.361
-229.165
-237.116
-246.002
-255.528
-265.314
-274.902
-283.785
-291.451
-297.507
-301.609
-303.386
-302.529
-298.919
-292.597
-283.706
-272.431
-258.896
-243.058
-224.562
-203
-177.784
-149.292
-118.532
-86.7797
-55.2419
-23.8781
14.6065
54.5204
94.5906
129.555
157.914
-187.903
-191.673
-194.7
-197.134
-199.14
-200.888
-202.55
-204.312
-206.38
-208.988
-212.381
-216.784
-222.361
-229.165
-237.116
-246.002
-255.528
-265.314
-274.902
-283.785
-291.451
-297.508
-301.61
-303.387
-302.53
-298.92
-292.598
-283.707
-272.432
-258.897
-243.059
-224.563
-203.001
-177.786
-149.293
-118.532
-86.7799
-55.243
-23.88
14.6055
54.5208
94.5923
129.559
157.919
-187.903
-191.674
-194.7
-197.134
-199.141
-200.888
-202.55
-204.312
-206.38
-208.988
-212.38
-216.783
-222.36
-229.164
-237.115
-246.002
-255.528
-265.314
-274.903
-283.786
-291.452
-297.509
-301.611
-303.388
-302.531
-298.922
-292.6
-283.708
-272.433
-258.899
-243.061
-224.565
-203.003
-177.788
-149.294
-118.533
-86.78
-55.2443
-23.8824
14.6041
54.5213
94.5945
129.563
157.914
-187.904
-191.674
-194.7
-197.135
-199.141
-200.888
-202.55
-204.311
-206.38
-208.988
-212.38
-216.783
-222.359
-229.163
-237.114
-246.001
-255.528
-265.314
-274.903
-283.787
-291.453
-297.511
-301.613
-303.39
-302.533
-298.923
-292.601
-283.71
-272.434
-258.9
-243.062
-224.567
-203.005
-177.79
-149.296
-118.534
-86.7802
-55.2459
-23.8852
14.6026
54.5219
94.5971
129.568
157.921
-187.904
-191.675
-194.701
-197.135
-199.141
-200.888
-202.55
-204.311
-206.379
-208.987
-212.379
-216.782
-222.358
-229.162
-237.114
-246.001
-255.528
-265.315
-274.904
-283.788
-291.455
-297.512
-301.614
-303.392
-302.535
-298.926
-292.603
-283.711
-272.436
-258.902
-243.064
-224.57
-203.008
-177.792
-149.297
-118.535
-86.7803
-55.2477
-23.8885
14.6007
54.5225
94.6002
129.574
157.918
-187.905
-191.676
-194.701
-197.135
-199.141
-200.888
-202.55
-204.311
-206.379
-208.986
-212.378
-216.781
-222.357
-229.161
-237.113
-246
-255.528
-265.315
-274.904
-283.789
-291.456
-297.514
-301.616
-303.394
-302.537
-298.928
-292.605
-283.713
-272.438
-258.904
-243.066
-224.572
-203.011
-177.795
-149.299
-118.536
-86.7806
-55.2498
-23.8922
14.5986
54.5233
94.6036
129.581
157.926
-187.906
-191.676
-194.702
-197.136
-199.141
-200.888
-202.55
-204.311
-206.378
-208.986
-212.377
-216.78
-222.356
-229.16
-237.112
-246
-255.527
-265.315
-274.905
-283.79
-291.457
-297.516
-301.619
-303.396
-302.54
-298.93
-292.608
-283.716
-272.44
-258.906
-243.069
-224.575
-203.014
-177.798
-149.301
-118.538
-86.7808
-55.2522
-23.8965
14.5962
54.5242
94.6075
129.588
157.928
-187.907
-191.677
-194.703
-197.136
-199.142
-200.888
-202.55
-204.31
-206.378
-208.985
-212.376
-216.779
-222.355
-229.159
-237.111
-245.999
-255.527
-265.315
-274.906
-283.791
-291.459
-297.518
-301.621
-303.399
-302.543
-298.933
-292.611
-283.718
-272.443
-258.908
-243.072
-224.579
-203.018
-177.802
-149.304
-118.539
-86.7811
-55.2548
-23.9012
14.5935
54.5252
94.6119
129.596
157.937
-187.908
-191.678
-194.703
-197.137
-199.142
-200.889
-202.55
-204.31
-206.377
-208.984
-212.375
-216.777
-222.353
-229.158
-237.11
-245.998
-255.527
-265.316
-274.907
-283.793
-291.461
-297.52
-301.624
-303.402
-302.546
-298.937
-292.614
-283.721
-272.445
-258.911
-243.075
-224.582
-203.022
-177.805
-149.306
-118.541
-86.7814
-55.2577
-23.9064
14.5906
54.5262
94.6167
129.606
157.942
-187.909
-191.679
-194.704
-197.137
-199.142
-200.889
-202.549
-204.309
-206.376
-208.983
-212.374
-216.776
-222.352
-229.156
-237.109
-245.997
-255.527
-265.316
-274.908
-283.794
-291.463
-297.523
-301.627
-303.406
-302.55
-298.94
-292.617
-283.724
-272.448
-258.914
-243.079
-224.586
-203.027
-177.81
-149.309
-118.543
-86.7817
-55.2609
-23.912
14.5874
54.5274
94.6219
129.616
157.953
-187.91
-191.68
-194.705
-197.138
-199.143
-200.889
-202.549
-204.309
-206.376
-208.982
-212.372
-216.774
-222.35
-229.155
-237.107
-245.997
-255.526
-265.316
-274.909
-283.796
-291.465
-297.525
-301.63
-303.409
-302.553
-298.944
-292.621
-283.727
-272.452
-258.918
-243.082
-224.591
-203.032
-177.814
-149.312
-118.545
-86.782
-55.2643
-23.9181
14.5839
54.5287
94.6276
129.627
157.962
-187.912
-191.682
-194.706
-197.139
-199.143
-200.889
-202.549
-204.308
-206.374
-208.98
-212.37
-216.771
-222.348
-229.152
-237.105
-245.995
-255.526
-265.317
-274.91
-283.799
-291.469
-297.53
-301.635
-303.415
-302.559
-298.95
-292.626
-283.733
-272.456
-258.923
-243.088
-224.598
-203.039
-177.821
-149.317
-118.548
-86.7826
-55.2698
-23.928
14.5783
54.5307
94.6367
129.644
157.979
-187.915
-191.684
-194.708
-197.14
-199.144
-200.889
-202.549
-204.307
-206.372
-208.977
-212.366
-216.767
-222.343
-229.148
-237.102
-245.993
-255.525
-265.318
-274.913
-283.803
-291.474
-297.536
-301.643
-303.424
-302.569
-298.959
-292.635
-283.741
-272.464
-258.931
-243.097
-224.609
-203.051
-177.833
-149.325
-118.553
-86.7834
-55.2782
-23.9431
14.5697
54.5338
94.6507
129.671
158.009
-187.919
-191.687
-194.71
-197.142
-199.145
-200.89
-202.548
-204.306
-206.37
-208.974
-212.363
-216.763
-222.339
-229.144
-237.099
-245.991
-255.524
-265.318
-274.915
-283.807
-291.481
-297.544
-301.652
-303.434
-302.579
-298.969
-292.645
-283.75
-272.473
-258.94
-243.108
-224.621
-203.065
-177.845
-149.333
-118.559
-86.7844
-55.2877
-23.96
14.5601
54.5374
94.6664
129.701
158.038
-187.922
-191.69
-194.713
-197.144
-199.146
-200.89
-202.548
-204.305
-206.368
-208.971
-212.358
-216.758
-222.334
-229.139
-237.095
-245.988
-255.523
-265.319
-274.919
-283.813
-291.487
-297.552
-301.662
-303.445
-302.591
-298.981
-292.656
-283.761
-272.483
-258.95
-243.119
-224.635
-203.08
-177.859
-149.343
-118.565
-86.7857
-55.2983
-23.979
14.5494
54.5412
94.6839
129.735
158.082
-187.926
-191.694
-194.716
-197.146
-199.147
-200.89
-202.547
-204.303
-206.365
-208.967
-212.353
-216.752
-222.328
-229.134
-237.09
-245.985
-255.522
-265.321
-274.922
-283.818
-291.495
-297.562
-301.673
-303.458
-302.604
-298.994
-292.668
-283.772
-272.493
-258.961
-243.132
-224.649
-203.096
-177.875
-149.353
-118.572
-86.7867
-55.3102
-23.9997
14.5375
54.5455
94.703
129.771
158.117
-187.931
-191.698
-194.719
-197.148
-199.149
-200.891
-202.547
-204.302
-206.363
-208.963
-212.348
-216.747
-222.322
-229.128
-237.086
-245.982
-255.521
-265.322
-274.926
-283.825
-291.503
-297.572
-301.685
-303.471
-302.619
-299.008
-292.681
-283.784
-272.505
-258.973
-243.146
-224.666
-203.114
-177.891
-149.364
-118.579
-86.7876
-55.3224
-24.0223
14.5248
54.5502
94.7242
129.812
158.173
-187.936
-191.702
-194.722
-197.15
-199.15
-200.891
-202.546
-204.3
-206.36
-208.959
-212.343
-216.74
-222.315
-229.122
-237.08
-245.979
-255.52
-265.323
-274.93
-283.831
-291.512
-297.583
-301.698
-303.486
-302.633
-299.022
-292.695
-283.797
-272.517
-258.985
-243.16
-224.683
-203.133
-177.91
-149.377
-118.587
-86.7885
-55.3362
-24.047
14.5107
54.5553
94.7466
129.855
158.217
-187.975
-191.735
-194.748
-197.169
-199.162
-200.896
-202.543
-204.287
-206.336
-208.924
-212.299
-216.689
-222.262
-229.072
-237.04
-245.952
-255.51
-265.333
-274.962
-283.885
-291.582
-297.669
-301.801
-303.601
-302.759
-299.143
-292.809
-283.903
-272.62
-259.099
-243.282
-224.825
-203.289
-178.054
-149.474
-118.652
-86.8033
-55.4464
-24.2405
14.4009
54.5943
94.9299
130.198
158.714
-188.112
-191.847
-194.833
-197.226
-199.193
-200.901
-202.52
-204.233
-206.246
-208.796
-212.135
-216.501
-222.065
-228.888
-236.889
-245.851
-255.474
-265.37
-275.079
-284.08
-291.84
-297.985
-302.177
-304.016
-303.158
-299.572
-293.219
-284.282
-272.973
-259.392
-243.661
-225.297
-203.825
-178.569
-149.824
-118.883
-86.8331
-55.8319
-24.9465
14.0897
54.7539
95.5606
131.476
160.2
-188.335
-192.042
-194.993
-197.348
-199.271
-200.933
-202.503
-204.162
-206.117
-208.607
-211.892
-216.219
-221.771
-228.612
-236.663
-245.701
-255.419
-265.426
-275.255
-284.375
-292.226
-298.461
-302.745
-304.66
-303.897
-300.233
-293.844
-284.864
-273.531
-260.087
-244.393
-226.131
-204.725
-179.392
-150.368
-119.231
-86.8469
-56.4811
-26.089
13.2228
54.9208
96.5902
133.359
163.151
-188.601
-192.257
-195.155
-197.457
-199.332
-200.945
-202.463
-204.059
-205.941
-208.352
-211.565
-215.84
-221.375
-228.242
-236.359
-245.499
-255.344
-265.498
-275.49
-284.767
-292.737
-299.088
-303.494
-305.483
-304.666
-301.093
-294.662
-285.616
-274.226
-260.636
-245.118
-227.061
-205.804
-180.435
-151.07
-119.648
-86.8991
-57.3278
-27.6329
12.7072
55.2393
97.8995
135.858
166.331
-188.984
-192.588
-195.422
-197.655
-199.456
-200.993
-202.429
-203.937
-205.723
-208.033
-211.152
-215.361
-220.874
-227.772
-235.974
-245.242
-255.247
-265.586
-275.785
-285.267
-293.386
-299.885
-304.455
-306.578
-305.928
-302.197
-295.701
-286.572
-275.132
-261.745
-246.318
-228.463
-207.338
-181.844
-151.99
-120.155
-86.7137
-58.51
-29.7199
10.9018
55.3731
99.5379
139.175
171.546
-189.379
-192.913
-195.672
-197.831
-199.561
-201.027
-202.384
-203.796
-205.468
-207.654
-210.658
-214.783
-220.267
-227.202
-235.506
-244.929
-255.126
-265.687
-276.129
-285.848
-294.137
-300.812
-305.576
-307.807
-307.102
-303.502
-296.937
-287.695
-276.155
-262.592
-247.416
-229.91
-209.049
-183.504
-153.094
-120.687
-86.5875
-59.9855
-32.5617
10.0071
55.8639
101.703
142.794
176.583
-189.921
-193.37
-196.03
-198.086
-199.71
-201.073
-202.318
-203.614
-205.155
-207.198
-210.067
-214.094
-219.543
-226.523
-234.949
-244.557
-254.989
-265.824
-276.578
-286.59
-295.064
-301.944
-306.962
-309.382
-308.817
-305.059
-298.393
-289.01
-277.371
-263.993
-249.004
-231.858
-211.198
-185.543
-154.357
-121.18
-86.0757
-61.6935
-35.7121
7.06556
55.6805
103.723
147.898
185.099
-190.467
-193.828
-196.392
-198.357
-199.896
-201.163
-202.296
-203.45
-204.826
-206.691
-209.393
-213.298
-218.702
-225.73
-234.296
-244.107
-254.783
-265.901
-276.999
-287.353
-296.04
-303.16
-308.463
-311.047
-310.669
-306.842
-300.067
-290.501
-278.701
-265.187
-250.517
-233.947
-213.901
-188.113
-156.112
-121.93
-85.8676
-64.1705
-40.5704
5.96074
55.5582
106.904
152.581
191.401
-191.148
-194.38
-196.803
-198.617
-200.026
-201.175
-202.191
-203.212
-204.424
-206.098
-208.615
-212.381
-217.735
-224.833
-233.576
-243.651
-254.641
-266.123
-277.642
-288.367
-297.242
-304.625
-310.302
-313.072
-311.676
-308.835
-301.932
-292.147
-280.167
-266.709
-252.369
-236.329
-216.284
-190.422
-157.698
-121.943
-84.277
-66.6754
-45.975
2.1305
54.6419
109.075
160.063
204.914
-191.889
-195.036
-197.348
-199.045
-200.325
-201.337
-202.194
-203.025
-204.02
-205.454
-207.742
-211.334
-216.607
-223.749
-232.66
-242.992
-254.286
-266.127
-278.144
-289.346
-298.448
-306.132
-312.247
-315.354
-315.475
-311.243
-304.098
-294.021
-281.773
-268.292
-254.346
-239.45
-220.625
-194.316
-160.354
-122.84
-84.2602
-71.3557
-52.4315
-0.82898
54.5696
112.992
165.212
211.742
-192.628
-195.597
-197.734
-199.277
-200.43
-201.329
-202.069
-202.75
-203.544
-204.728
-206.775
-210.2
-215.423
-222.663
-231.813
-242.484
-254.16
-266.435
-278.993
-290.633
-299.866
-307.884
-314.526
-317.653
-317.378
-313.636
-306.323
-295.938
-283.399
-269.727
-256.232
-241.874
-223.38
-197.307
-162.133
-122.174
-80.056
-72.9519
-60.2748
-7.65826
53.8008
115.718
176.477
233.56
-193.711
-196.534
-198.498
-199.858
-200.83
-201.548
-202.089
-202.536
-203.059
-203.925
-205.629
-208.786
-213.877
-221.165
-230.539
-241.556
-253.604
-266.331
-279.649
-291.959
-301.331
-309.723
-317.093
-321.017
-320.923
-316.812
-309.131
-298.274
-285.257
-271.608
-258.765
-246.37
-228.688
-202.228
-166.03
-122.645
-80.4412
-79.9722
-65.8213
-9.05907
55.3129
120.245
181.827
238.414
-194.415
-197.063
-198.86
-200.079
-200.936
-201.553
-201.981
-202.259
-202.544
-203.146
-204.588
-207.549
-212.58
-219.982
-229.638
-241.047
-253.504
-266.665
-280.661
-293.385
-302.723
-311.573
-319.428
-323.132
-323.267
-319.353
-311.491
-300.279
-286.88
-272.864
-260.512
-248.843
-232.934
-206.606
-168.626
-120.999
-73.2399
-76.2581
-66.6699
-7.82385
61.0422
132.877
206.003
279.53
-33.2986
-34.299
-34.9293
-35.3187
-35.5668
-35.7249
-35.8049
-35.8314
-35.8258
-35.9326
-36.3333
-37.3034
-39.1671
-42.0892
-46.0074
-50.5986
-55.1661
-59.0269
-62.7121
-67.522
-71.5532
-75.2606
-78.0061
-77.9315
-75.4138
-69.5169
-58.5579
-41.0108
-15.2395
20.9804
66.8526
115.005
155.805
190.411
226.64
264.279
293.002
282.932
229.982
259.884
304.518
356.425
411.482
450.332
501.666
500.815
500.312
500.024
499.853
499.757
499.74
499.816
499.958
500.044
499.837
499.02
497.261
494.378
490.419
485.72
480.94
477.01
473.027
468.085
464.113
460.139
456.798
456.271
457.954
462.008
469.665
481.668
499.008
522.98
551.996
581.229
606.159
628.956
654.789
680.957
704.297
702.673
676.359
706.922
745.308
789.733
842.46
873.629
4.79987
4.79098
4.78615
4.78346
4.78155
4.78003
4.77927
4.78003
4.7826
4.78632
4.79219
4.79731
4.80265
4.81922
4.87888
5.08001
5.81956
8.68326
13.3422
14.2911
13.3045
12.673
12.9159
13.9672
15.0255
15.8101
16.1245
16.1383
17.4298
23.0352
31.0065
37.8575
39.9287
37.6431
33.4313
26.7897
22.3056
28.7982
31.7591
49.2467
63.4995
83.7704
95.5106
89.8564
0.100382
0.0963687
0.0920803
0.0879061
0.0840446
0.0805549
0.0773677
0.074411
0.0716039
0.0694422
0.0687454
0.0706135
0.0750786
0.0847319
0.0992078
0.111623
0.134714
0.0538373
-0.0649431
0.0300956
0.0728732
0.102923
0.128108
0.108832
0.0908292
0.105728
0.116618
0.134796
0.148675
0.168509
0.188919
0.187844
0.196031
0.223002
0.217744
0.0921193
0.10975
0.0847447
-0.0320966
-0.164824
-0.233543
-0.41416
-0.540144
-0.536683
0.0989301
0.0951657
0.0911164
0.0870918
0.0833664
0.0800599
0.0771951
0.0747875
0.0733466
0.0732345
0.0755839
0.0825303
0.0962004
0.120297
0.157154
0.203583
0.290762
0.14132
-0.097275
-0.108347
0.0558243
0.135568
0.153241
0.110583
0.0583108
0.0338437
0.0417039
0.0470419
0.0556772
0.072219
0.111183
0.127976
0.164474
0.201675
0.207663
0.446133
0.266655
0.0778024
-0.0365357
-0.249425
-0.403443
-0.54423
-0.898963
-1.0383
0.0975216
0.0940306
0.0902787
0.0865787
0.0831312
0.0800141
0.0772271
0.0747819
0.072606
0.0712273
0.0712625
0.0735111
0.0781899
0.0868979
0.0984049
0.106808
0.117036
0.0592161
-0.0504651
0.0464578
0.0705662
0.0977602
0.114402
0.101263
0.0871222
0.102677
0.109467
0.12459
0.138468
0.154434
0.1706
0.180927
0.189943
0.20846
0.187709
0.102971
0.0864114
0.044316
-0.0480224
-0.170005
-0.235987
-0.372755
-0.48948
-0.513607
0.0960296
0.0927602
0.0892342
0.0857169
0.0824219
0.0794828
0.0769898
0.0750262
0.0742103
0.0747878
0.0776901
0.084606
0.0963024
0.115255
0.141063
0.167104
0.204393
0.128867
-0.0182421
-0.0420511
0.0551782
0.104339
0.120918
0.101123
0.0701085
0.049433
0.0527352
0.0561433
0.0646629
0.0733581
0.102109
0.118333
0.143438
0.169027
0.174344
0.311203
0.200028
0.05501
-0.0427245
-0.202886
-0.35039
-0.466779
-0.698939
-0.756547
0.0947978
0.091749
0.0884633
0.0851909
0.082123
0.0793602
0.0769519
0.0749498
0.0732485
0.0723675
0.0727652
0.0748305
0.0792425
0.0872063
0.0958588
0.101223
0.105811
0.0616151
-0.00865734
0.0475356
0.0699969
0.0905114
0.10264
0.0949425
0.0850226
0.0955428
0.10263
0.115149
0.127453
0.142326
0.157504
0.165789
0.173386
0.18393
0.160236
0.112298
0.0574921
0.0179177
-0.0612466
-0.167549
-0.235585
-0.336209
-0.420517
-0.385131
0.0933348
0.0904653
0.0873725
0.0842803
0.0813715
0.07878
0.0766268
0.0750266
0.0746699
0.0756866
0.0788282
0.0850513
0.0948806
0.109121
0.12682
0.141899
0.155226
0.112889
0.0212556
0.00702908
0.0573683
0.0880292
0.101577
0.0933676
0.0750967
0.0606638
0.0608686
0.0628285
0.0686457
0.0760984
0.0935213
0.108717
0.125278
0.138364
0.146349
0.202254
0.150953
0.0364402
-0.0508045
-0.171771
-0.302626
-0.400313
-0.547571
-0.57659
0.09218
0.0894992
0.0866127
0.0837252
0.0810081
0.0785758
0.0765093
0.0748853
0.0735408
0.0729766
0.0735232
0.0757855
0.0796762
0.0861699
0.0922417
0.0955383
0.0953592
0.066737
0.0193252
0.046053
0.0685684
0.0838778
0.0929235
0.0893673
0.0831569
0.089704
0.0964782
0.10693
0.118252
0.130809
0.145175
0.150219
0.155262
0.157772
0.138035
0.11512
0.0429963
-0.00302596
-0.0744795
-0.160257
-0.228688
-0.302785
-0.363945
-0.367087
0.0908103
0.0882697
0.0855403
0.0828101
0.0802403
0.0779613
0.0761039
0.0747975
0.0747325
0.0759833
0.0790172
0.0842172
0.0921772
0.10314
0.114924
0.124866
0.127875
0.102433
0.0443021
0.0394592
0.0604158
0.0803374
0.089903
0.0870578
0.0764748
0.0672896
0.0658114
0.0670202
0.0708124
0.076947
0.0881824
0.0993856
0.109866
0.117203
0.120017
0.129974
0.103736
0.0212034
-0.057274
-0.151681
-0.264179
-0.346778
-0.44157
-0.466082
0.089659
0.0872814
0.0847333
0.0821837
0.0797841
0.0776517
0.0758841
0.0745688
0.073514
0.0731503
0.0739501
0.0761171
0.0794393
0.0844053
0.0882398
0.0897966
0.0858518
0.0680112
0.0369532
0.0453949
0.0670331
0.0779668
0.0851994
0.0842752
0.0806788
0.0846561
0.0908231
0.0993664
0.109142
0.119488
0.130054
0.134413
0.137224
0.13435
0.118042
0.103996
0.035084
-0.0147671
-0.0801384
-0.149192
-0.216202
-0.272577
-0.311428
-0.339824
0.0884135
0.0861477
0.0837271
0.0813102
0.0790365
0.0770316
0.0754238
0.0743471
0.0744336
0.0757367
0.0783111
0.0826283
0.0889436
0.0972363
0.105108
0.111941
0.110544
0.0958284
0.0577705
0.0535502
0.0631699
0.0755756
0.0826039
0.0821622
0.0764788
0.0706628
0.0687496
0.0692331
0.071825
0.0763665
0.083531
0.0909087
0.0964336
0.0995137
0.0973929
0.089938
0.0661575
0.00541393
-0.0632283
-0.139784
-0.23149
-0.300368
-0.367212
-0.390695
0.0872366
0.0851076
0.0828405
0.0805806
0.0784611
0.0765916
0.0750779
0.07401
0.0731941
0.0729671
0.0739452
0.075893
0.0786174
0.0822438
0.0844586
0.0848881
0.0797404
0.0671402
0.0475253
0.050344
0.0657379
0.0738622
0.0791227
0.0793203
0.0773711
0.0800985
0.0852539
0.0922921
0.100145
0.108333
0.115792
0.118886
0.120007
0.11352
0.0988053
0.0798023
0.0279558
-0.0213107
-0.0810486
-0.138807
-0.201767
-0.247983
-0.279539
-0.315029
0.0860818
0.0840582
0.0819124
0.0797681
0.0777543
0.0759904
0.0745894
0.073696
0.0738146
0.0750476
0.0771361
0.0806256
0.0855421
0.0916697
0.0970557
0.101441
0.0988368
0.0894938
0.0652944
0.0606174
0.065353
0.0723196
0.0777608
0.0781167
0.0754863
0.0720337
0.0702808
0.0703295
0.0719041
0.074889
0.0790589
0.0833469
0.0845451
0.0849238
0.0788299
0.0661165
0.037347
-0.00926233
-0.0687388
-0.130669
-0.204387
-0.261567
-0.313863
-0.336261
0.0849272
0.0830032
0.0809735
0.0789531
0.0770621
0.0754106
0.0741053
0.0732096
0.0726081
0.0724796
0.0734811
0.075182
0.0773654
0.0799462
0.0811373
0.0808375
0.0757552
0.0668195
0.0538664
0.0543745
0.0643563
0.0704818
0.0740901
0.0751836
0.0742859
0.0757715
0.0797379
0.085305
0.091355
0.0975968
0.102468
0.104145
0.102139
0.0952351
0.0807119
0.0601299
0.020634
-0.0249661
-0.0797892
-0.129441
-0.187061
-0.226322
-0.259147
-0.290167
0.0838143
0.0819839
0.0800611
0.0781514
0.0763657
0.0748108
0.0735931
0.0728454
0.0729195
0.0740067
0.0757106
0.0784233
0.0821617
0.086585
0.0902675
0.0929051
0.0903391
0.0839216
0.0686185
0.064298
0.0663745
0.0702837
0.0741114
0.0746432
0.0733465
0.0719647
0.0706686
0.0704771
0.0711966
0.0728391
0.0747159
0.0765547
0.0758813
0.0727099
0.063727
0.0479516
0.0167663
-0.0214571
-0.0727027
-0.123395
-0.18285
-0.231102
-0.272201
-0.294433
0.0826867
0.0809376
0.07911
0.0773014
0.0756148
0.0741501
0.073002
0.0722383
0.0717919
0.0717204
0.0725748
0.0740629
0.0758024
0.077591
0.0781699
0.0774043
0.0729532
0.0663287
0.0575803
0.057028
0.0632064
0.0675745
0.0703789
0.0715632
0.0714007
0.0717833
0.0744573
0.0785833
0.0829819
0.0874692
0.0902217
0.0905442
0.0865387
0.079073
0.064443
0.0442257
0.0110004
-0.0276292
-0.0772501
-0.121038
-0.172337
-0.20711
-0.240262
-0.267391
0.0816032
0.0799338
0.0781981
0.0764858
0.0748922
0.0735117
0.0724393
0.0717883
0.071797
0.0727019
0.0742456
0.0761553
0.0789104
0.082024
0.0845121
0.0859405
0.0838191
0.0790399
0.0694901
0.0657855
0.0664909
0.0687324
0.0710181
0.0715056
0.0709265
0.070494
0.0699546
0.0697104
0.0697524
0.070299
0.0703641
0.0702283
0.0676801
0.0622678
0.0513116
0.0342736
0.00494946
-0.0300538
-0.0743259
-0.117112
-0.16602
-0.206798
-0.240465
-0.26175
0.080499
0.0788978
0.0772421
0.0756144
0.0741028
0.0727954
0.0717764
0.0711132
0.0707725
0.0707
0.0710687
0.0726042
0.0740031
0.0752145
0.0754254
0.0743856
0.0707341
0.0657368
0.0595802
0.0585363
0.062148
0.0651033
0.0672771
0.0683277
0.0684684
0.0687284
0.0697055
0.0723639
0.0752535
0.0781453
0.0791674
0.0783303
0.0730196
0.0650582
0.0503281
0.0309985
0.00120373
-0.0323417
-0.0748279
-0.113942
-0.158441
-0.190729
-0.221922
-0.245683
0.0794366
0.0779023
0.0763242
0.0747781
0.0733456
0.0721091
0.0711502
0.0705592
0.0704925
0.0711955
0.0725717
0.0738836
0.0758434
0.0779723
0.0795999
0.0802578
0.0785601
0.0749484
0.0689275
0.0658799
0.0659327
0.0669845
0.0682645
0.0685955
0.0682817
0.0679973
0.0680707
0.0680014
0.067565
0.0672364
0.0658312
0.0641739
0.0599743
0.0531051
0.0408888
0.0236153
-0.00350775
-0.0345473
-0.0740968
-0.110893
-0.152251
-0.187048
-0.215964
-0.236311
0.0783519
0.0768758
0.0753656
0.0738912
0.0725278
0.0713515
0.0704358
0.0698443
0.0695729
0.0695167
0.0697375
0.0709271
0.0720284
0.0728189
0.072802
0.0716571
0.0687296
0.0648439
0.0603864
0.0591188
0.0608488
0.0629527
0.0645343
0.065355
0.0655537
0.0656991
0.0661058
0.0669777
0.0683748
0.0697886
0.069455
0.0675869
0.0614675
0.0531064
0.0384956
0.0201887
-0.00663871
-0.036249
-0.0732753
-0.107946
-0.146048
-0.176235
-0.204046
-0.225133
0.0773033
0.0758831
0.0744377
0.0730316
0.0717341
0.0706156
0.0697453
0.0691919
0.0690491
0.0695206
0.0705987
0.0717077
0.0730011
0.0743879
0.075372
0.0755396
0.0741571
0.0714415
0.0675208
0.0651248
0.0647961
0.0651085
0.0656917
0.0658086
0.0655133
0.0651794
0.0650042
0.0650539
0.0646365
0.0636438
0.061143
0.0582895
0.0527626
0.0449876
0.0319417
0.0150433
-0.00989567
-0.0379504
-0.0724221
-0.105171
-0.140545
-0.170801
-0.196347
-0.215572
0.0762357
0.0748653
0.0734779
0.0721328
0.0708936
0.0698252
0.0689902
0.0684443
0.0682074
0.0681868
0.0683139
0.0688565
0.0698541
0.0703955
0.0702181
0.0691165
0.0667602
0.0636611
0.0603125
0.0589223
0.0596131
0.0609653
0.0620194
0.0625754
0.0626837
0.0626582
0.0626533
0.0627782
0.0624935
0.0624874
0.0609867
0.0583135
0.0518354
0.0432885
0.0288562
0.0117869
-0.0124537
-0.0391342
-0.0714168
-0.102412
-0.135154
-0.162907
-0.187488
-0.206479
0.0751941
0.0738707
0.0725375
0.0712491
0.0700642
0.0690423
0.0682408
0.0677121
0.0675063
0.0677439
0.0685028
0.0695068
0.0704672
0.0711861
0.0716997
0.0715489
0.0703927
0.0683909
0.0657109
0.0639397
0.0632361
0.0630841
0.0631816
0.0630678
0.062674
0.0621922
0.0617087
0.0612989
0.0604081
0.0594459
0.0564255
0.0525492
0.0458945
0.0374654
0.024228
0.00775462
-0.015001
-0.0403746
-0.0704772
-0.0998362
-0.130358
-0.157192
-0.180071
-0.198035
0.0741409
0.0728603
0.0715768
0.0703403
0.0692046
0.0682242
0.0674511
0.0669307
0.0666914
0.0666945
0.0667918
0.0670186
0.0673898
0.0679751
0.0676909
0.0666623
0.0647343
0.062177
0.0595168
0.0582066
0.0583265
0.0590645
0.0596661
0.0599434
0.0598791
0.0596387
0.0592749
0.0588611
0.0578976
0.0567762
0.0538908
0.0504014
0.0435239
0.0348733
0.0211386
0.0049483
-0.016954
-0.0411581
-0.0693936
-0.0972185
-0.125635
-0.150849
-0.172685
-0.190141
0.0731021
0.0718609
0.0706228
0.0694336
0.0683425
0.0673995
0.0666514
0.0661386
0.065889
0.0659371
0.06638
0.0671229
0.0678826
0.0683138
0.0684086
0.0681416
0.0671505
0.0657739
0.0638537
0.0621908
0.0613397
0.0609065
0.0606669
0.0603337
0.0597898
0.059121
0.0583365
0.0574892
0.0560619
0.0544522
0.0510752
0.0469631
0.0396572
0.0308285
0.0175978
0.00186002
-0.0188833
-0.0419708
-0.0684119
-0.0948047
-0.121433
-0.145438
-0.166058
-0.182745
0.0720598
0.0708554
0.0696597
0.0685143
0.0674644
0.0665552
0.0658291
0.0653214
0.0650544
0.065029
0.0651303
0.0652356
0.0653308
0.0653571
0.0651548
0.064148
0.0625328
0.0602691
0.0583594
0.0572185
0.0569705
0.0572139
0.0574266
0.057426
0.057149
0.0566682
0.0559701
0.055106
0.0535961
0.0518101
0.0482657
0.0439849
0.0365846
0.0278478
0.0147781
-0.00055833
-0.0204161
-0.0424534
-0.067313
-0.0923072
-0.117278
-0.139986
-0.159619
-0.175773
0.0710216
0.0698508
0.0686939
0.0675886
0.066576
0.0656971
0.0649903
0.0644859
0.0642022
0.0641398
0.0643047
0.0647337
0.065259
0.0656655
0.0657497
0.0653832
0.0644755
0.0631576
0.0615585
0.060138
0.059211
0.0586025
0.0581256
0.0575957
0.056889
0.0560261
0.0549612
0.0537314
0.0518416
0.0496685
0.0457882
0.0412354
0.0336851
0.0248765
0.0120689
-0.0028766
-0.0218239
-0.0428904
-0.0662896
-0.0900222
-0.113529
-0.135094
-0.153762
-0.169235
0.0699844
0.0688449
0.0677238
0.0666553
0.0656768
0.0648254
0.0641352
0.0636328
0.0633323
0.0632309
0.0632978
0.0633753
0.0633506
0.0631468
0.0626806
0.0617798
0.0604049
0.0586719
0.0571062
0.0560216
0.0555269
0.0553846
0.0552635
0.0549954
0.0544893
0.0537627
0.0527546
0.0515008
0.04954
0.047219
0.0432083
0.0384972
0.0309139
0.0221071
0.00960058
-0.00493135
-0.0230292
-0.0431381
-0.0652012
-0.0876613
-0.109822
-0.130266
-0.148075
-0.163036
0.068948
0.0678373
0.0667495
0.0657148
0.0647674
0.0639409
0.0632651
0.0627634
0.0624466
0.0623093
0.0623232
0.062455
0.0626988
0.0628949
0.062877
0.062459
0.0616318
0.0604544
0.059114
0.0578745
0.0569333
0.056211
0.055564
0.0548654
0.0539997
0.05295
0.0516369
0.0500778
0.0478147
0.0451992
0.0409487
0.0360397
0.0283979
0.0195887
0.00736664
-0.00677046
-0.0240719
-0.0432865
-0.0641373
-0.085493
-0.106437
-0.125868
-0.14284
-0.157188
0.0679119
0.0668279
0.0657709
0.0647674
0.0638484
0.0630442
0.0623812
0.0618793
0.0615467
0.0613758
0.0613377
0.0613739
0.0613264
0.0610792
0.0605576
0.0596909
0.05849
0.0570733
0.0557142
0.0546554
0.0539829
0.0535484
0.0531433
0.0526256
0.0518933
0.0509267
0.0496379
0.0480427
0.045712
0.0429672
0.0386234
0.0335955
0.0259857
0.0172149
0.00531596
-0.00841988
-0.0249677
-0.0433194
-0.0630609
-0.0832885
-0.103103
-0.121566
-0.137796
-0.15163
0.0668753
0.0658166
0.064788
0.0638131
0.0629202
0.0621362
0.0614845
0.0609816
0.0606339
0.0604319
0.0603468
0.0603256
0.0603037
0.0602643
0.0600734
0.0596113
0.0588356
0.0577909
0.0566305
0.0555166
0.0545798
0.0537786
0.0530054
0.0521643
0.051152
0.0499297
0.0484021
0.0465703
0.0440189
0.0410524
0.036547
0.0313784
0.023778
0.0150498
0.00345327
-0.00988585
-0.0257277
-0.0432577
-0.0619875
-0.0812113
-0.10001
-0.117576
-0.133063
-0.146359
0.0658378
0.064803
0.0638006
0.0628523
0.0619833
0.0612175
0.0605758
0.0600717
0.0597094
0.0594786
0.0593508
0.0592763
0.0591849
0.0589513
0.0584563
0.0576686
0.0566169
0.0553924
0.0541721
0.0531296
0.0523284
0.0516765
0.0510359
0.050292
0.0493484
0.0481568
0.0466192
0.0447334
0.0421157
0.039037
0.0344729
0.0292214
0.0216901
0.0130342
0.00175395
-0.0111903
-0.026366
-0.0431126
-0.0609114
-0.0791646
-0.0970023
-0.113723
-0.128544
-0.141342
0.0647992
0.0637869
0.0628089
0.0618852
0.0610381
0.060289
0.059656
0.0591506
0.0587744
0.0585172
0.0583505
0.0582284
0.0580864
0.0578473
0.0574868
0.0569463
0.0561831
0.0552278
0.0541791
0.0531493
0.0522159
0.0513538
0.0504811
0.0495195
0.0483769
0.0470029
0.0452936
0.0432326
0.0404617
0.0372195
0.0325615
0.0272173
0.0197487
0.0111772
0.000208856
-0.0123449
-0.0268931
-0.0428973
-0.0598364
-0.0771918
-0.0941461
-0.110078
-0.124254
-0.136564
0.0637593
0.0627679
0.0618128
0.0609119
0.060085
0.0593512
0.0587261
0.058219
0.0578303
0.0575485
0.0573467
0.0571816
0.0569948
0.0567162
0.0562773
0.055588
0.0546652
0.0535873
0.0524749
0.0514472
0.0505541
0.0497412
0.0489121
0.0479741
0.0468429
0.0454541
0.0437076
0.0415806
0.0387473
0.0354073
0.030714
0.0253131
0.0179331
0.00946266
-0.00119577
-0.0133645
-0.0273205
-0.0426218
-0.0587603
-0.0752711
-0.0913997
-0.106589
-0.120161
-0.132005
0.0627175
0.061746
0.0608123
0.0599326
0.0591244
0.0584046
0.0577865
0.0572778
0.0568775
0.056573
0.0563396
0.0561365
0.0559098
0.0555974
0.0551441
0.0545111
0.0537235
0.0528094
0.0518226
0.050838
0.0498996
0.0489848
0.0480275
0.0469604
0.0457009
0.0441914
0.0423284
0.0400777
0.037145
0.0336936
0.0289653
0.0235205
0.0162385
0.0078821
-0.00247085
-0.0142618
-0.0276572
-0.0422929
-0.0576837
-0.0734057
-0.0887651
-0.103257
-0.116254
-0.127649
0.0616737
0.060721
0.0598075
0.0589475
0.0581568
0.0574499
0.0568384
0.056328
0.0559169
0.0555924
0.05533
0.0550928