/*--------------------------------*- C++ -*----------------------------------*\
| =========                 |                                                 |
| \\      /  F ield         | OpenFOAM: The Open Source CFD Toolbox           |
|  \\    /   O peration     | Version:  v1912                                 |
|   \\  /    A nd           | Website:  www.openfoam.com                      |
|    \\/     M anipulation  |                                                 |
\*---------------------------------------------------------------------------*/
FoamFile
{
    version     2.0;
    format      ascii;
    class       volVectorField;
    location    "20";
    object      U;
}
// * * * * * * * * * * * * * * * * * * * * * * * * * * * * * * * * * * * * * //

dimensions      [0 1 -1 0 0 0 0];


internalField   nonuniform List<vector> 
14268
(
(0.0300459 -8.86771e-06 0)
(0.0305542 -8.20558e-06 0)
(0.0309377 -7.66746e-06 0)
(0.0312236 -7.23354e-06 0)
(0.0314396 -6.94427e-06 0)
(0.0316126 -6.75323e-06 0)
(0.0317691 -6.78674e-06 0)
(0.0319375 -6.93915e-06 0)
(0.0321522 -7.25146e-06 0)
(0.0324553 -8.05488e-06 0)
(0.0328953 -9.05135e-06 0)
(0.0335211 -1.01738e-05 0)
(0.0343713 -1.15898e-05 0)
(0.0354642 -1.30926e-05 0)
(0.0367921 -1.42823e-05 0)
(0.0383225 -1.53498e-05 0)
(0.0400043 -1.60007e-05 0)
(0.0417705 -1.63228e-05 0)
(0.0435333 -1.61292e-05 0)
(0.0451875 -1.54866e-05 0)
(0.0466341 -1.44404e-05 0)
(0.047826 -1.32511e-05 0)
(0.0487578 -1.19131e-05 0)
(0.0493692 -1.0139e-05 0)
(0.0496315 -8.24397e-06 0)
(0.0495732 -6.23632e-06 0)
(0.049287 -5.38002e-06 0)
(0.0489311 -5.34414e-06 0)
(0.0486603 -6.37493e-06 0)
(0.0486349 -8.56643e-06 0)
(0.048885 -1.1004e-05 0)
(0.049528 -1.37031e-05 0)
(0.0504817 -1.75715e-05 0)
(0.0524817 -2.58777e-05 0)
(0.0562463 -4.09256e-05 0)
(0.0640457 -6.63876e-05 0)
(0.0765562 -9.65021e-05 0)
(0.0955672 -0.000114216 0)
(0.113621 -7.69444e-05 0)
(0.122439 -2.56578e-05 0)
(0.1208 1.8235e-05 0)
(0.113446 3.46594e-05 0)
(0.102697 8.68274e-05 0)
(0.0865683 -0.000259092 0)
(0.0300271 -3.36328e-06 0)
(0.0305354 -1.14458e-06 0)
(0.0309189 6.35899e-07 0)
(0.0312048 1.93427e-06 0)
(0.0314208 2.80979e-06 0)
(0.0315938 3.23828e-06 0)
(0.0317503 3.32712e-06 0)
(0.0319186 2.87331e-06 0)
(0.0321334 1.76414e-06 0)
(0.0324365 1.815e-07 0)
(0.0328765 -2.24266e-06 0)
(0.0335023 -5.46176e-06 0)
(0.0343525 -8.97962e-06 0)
(0.0354453 -1.25211e-05 0)
(0.0367733 -1.59525e-05 0)
(0.0383037 -1.86021e-05 0)
(0.0399855 -2.03755e-05 0)
(0.0417517 -2.08259e-05 0)
(0.0435145 -1.97778e-05 0)
(0.0451687 -1.69967e-05 0)
(0.0466153 -1.31892e-05 0)
(0.0478072 -9.13095e-06 0)
(0.048739 -4.42105e-06 0)
(0.0493504 1.03748e-06 0)
(0.0496127 6.16699e-06 0)
(0.0495545 9.90909e-06 0)
(0.0492682 1.21097e-05 0)
(0.0489123 1.17883e-05 0)
(0.0486415 9.31014e-06 0)
(0.0486161 5.44786e-06 0)
(0.0488662 1.40843e-06 0)
(0.0495092 -3.72081e-06 0)
(0.0504628 -1.15072e-05 0)
(0.0524628 -3.42081e-05 0)
(0.0562273 -7.88581e-05 0)
(0.0640267 -0.000146586 0)
(0.0765376 -0.000229841 0)
(0.0955499 -0.000279215 0)
(0.113605 -0.000190991 0)
(0.122422 -5.21035e-05 0)
(0.120787 7.66548e-05 0)
(0.113422 0.000148896 0)
(0.102734 0.000194105 0)
(0.0868744 0.000407524 0)
(0.0300134 -2.02915e-05 0)
(0.0305217 -1.68338e-05 0)
(0.0309052 -1.40603e-05 0)
(0.0311911 -1.19699e-05 0)
(0.031407 -1.05786e-05 0)
(0.0315801 -9.81234e-06 0)
(0.0317366 -9.80868e-06 0)
(0.0319049 -1.05554e-05 0)
(0.0321196 -1.22445e-05 0)
(0.0324227 -1.53601e-05 0)
(0.0328628 -1.96867e-05 0)
(0.0334886 -2.50512e-05 0)
(0.0343387 -3.12993e-05 0)
(0.0354316 -3.77507e-05 0)
(0.0367596 -4.34785e-05 0)
(0.0382899 -4.81947e-05 0)
(0.0399718 -5.12203e-05 0)
(0.041738 -5.22864e-05 0)
(0.0435009 -5.0847e-05 0)
(0.0451551 -4.68054e-05 0)
(0.0466018 -4.09591e-05 0)
(0.0477937 -3.45922e-05 0)
(0.0487255 -2.73048e-05 0)
(0.0493369 -1.8461e-05 0)
(0.0495992 -9.80972e-06 0)
(0.0495409 -2.15356e-06 0)
(0.0492547 1.8522e-06 0)
(0.0488988 1.59755e-06 0)
(0.048628 -3.04942e-06 0)
(0.0486026 -1.10957e-05 0)
(0.0488529 -1.97456e-05 0)
(0.049496 -3.00529e-05 0)
(0.0504497 -4.53307e-05 0)
(0.0524497 -8.41866e-05 0)
(0.0562143 -0.000158452 0)
(0.0640141 -0.000276533 0)
(0.076526 -0.000420033 0)
(0.0955404 -0.000503126 0)
(0.113598 -0.000340753 0)
(0.122415 -0.000101135 0)
(0.120779 0.000115328 0)
(0.113413 0.000220624 0)
(0.102732 0.000367895 0)
(0.0868648 -7.38148e-05 0)
(0.0300102 -1.58432e-05 0)
(0.0305185 -1.07447e-05 0)
(0.0309019 -6.64017e-06 0)
(0.0311878 -3.59812e-06 0)
(0.0314038 -1.54239e-06 0)
(0.0315768 -4.75092e-07 0)
(0.0317333 -3.10893e-07 0)
(0.0319016 -1.34611e-06 0)
(0.0321163 -3.84989e-06 0)
(0.0324194 -7.79517e-06 0)
(0.0328594 -1.36111e-05 0)
(0.0334852 -2.11429e-05 0)
(0.0343353 -2.95762e-05 0)
(0.0354282 -3.81506e-05 0)
(0.0367562 -4.61924e-05 0)
(0.0382866 -5.25572e-05 0)
(0.0399685 -5.67581e-05 0)
(0.0417347 -5.80016e-05 0)
(0.0434976 -5.575e-05 0)
(0.0451519 -4.95974e-05 0)
(0.0465986 -4.09852e-05 0)
(0.0477905 -3.17241e-05 0)
(0.0487223 -2.10128e-05 0)
(0.0493338 -8.36523e-06 0)
(0.0495961 3.75949e-06 0)
(0.0495378 1.34058e-05 0)
(0.0492515 1.87239e-05 0)
(0.0488955 1.81146e-05 0)
(0.0486247 1.20564e-05 0)
(0.0485993 1.95816e-06 0)
(0.0488496 -8.58676e-06 0)
(0.0494927 -2.15626e-05 0)
(0.0504463 -4.10335e-05 0)
(0.0524461 -9.4775e-05 0)
(0.0562103 -0.000198847 0)
(0.06401 -0.000358733 0)
(0.0765225 -0.000553944 0)
(0.095539 -0.000670748 0)
(0.113598 -0.00045849 0)
(0.122415 -0.000130617 0)
(0.120781 0.000171424 0)
(0.113405 0.000331126 0)
(0.102773 0.000471584 0)
(0.0870751 0.000537038 0)
(0.0300097 -3.16865e-05 0)
(0.030518 -2.53985e-05 0)
(0.0309015 -2.03645e-05 0)
(0.0311873 -1.66025e-05 0)
(0.0314033 -1.41033e-05 0)
(0.0315763 -1.27679e-05 0)
(0.0317327 -1.27431e-05 0)
(0.0319011 -1.41169e-05 0)
(0.0321158 -1.7229e-05 0)
(0.0324188 -2.27066e-05 0)
(0.0328588 -3.04263e-05 0)
(0.0334846 -4.01001e-05 0)
(0.0343347 -5.12364e-05 0)
(0.0354276 -6.26848e-05 0)
(0.0367556 -7.29985e-05 0)
(0.038286 -8.13967e-05 0)
(0.0399679 -8.68216e-05 0)
(0.0417342 -8.86219e-05 0)
(0.0434972 -8.58996e-05 0)
(0.0451515 -7.83937e-05 0)
(0.0465982 -6.76733e-05 0)
(0.0477901 -5.60526e-05 0)
(0.048722 -4.27263e-05 0)
(0.0493334 -2.67024e-05 0)
(0.0495957 -1.11521e-05 0)
(0.0495373 2.05796e-06 0)
(0.049251 9.11787e-06 0)
(0.048895 8.57341e-06 0)
(0.0486241 4.19188e-07 0)
(0.0485988 -1.33755e-05 0)
(0.048849 -2.83026e-05 0)
(0.0494921 -4.62787e-05 0)
(0.0504454 -7.30237e-05 0)
(0.0524447 -0.00014252 0)
(0.0562084 -0.000276486 0)
(0.0640075 -0.00048853 0)
(0.0765203 -0.000747621 0)
(0.0955393 -0.000896162 0)
(0.113601 -0.000608132 0)
(0.122419 -0.00017667 0)
(0.120784 0.000212099 0)
(0.113405 0.000406378 0)
(0.102788 0.000643929 0)
(0.0871055 0.000127546 0)
(0.0300098 -2.84913e-05 0)
(0.030518 -2.05241e-05 0)
(0.0309015 -1.41008e-05 0)
(0.0311873 -9.315e-06 0)
(0.0314032 -6.07522e-06 0)
(0.0315762 -4.3614e-06 0)
(0.0317327 -4.1144e-06 0)
(0.031901 -5.72133e-06 0)
(0.0321156 -9.61293e-06 0)
(0.0324187 -1.59231e-05 0)
(0.0328586 -2.51304e-05 0)
(0.0334844 -3.69722e-05 0)
(0.0343345 -5.0321e-05 0)
(0.0354274 -6.39249e-05 0)
(0.0367555 -7.65648e-05 0)
(0.0382859 -8.66307e-05 0)
(0.0399678 -9.32383e-05 0)
(0.0417342 -9.52783e-05 0)
(0.0434971 -9.18192e-05 0)
(0.0451515 -8.22953e-05 0)
(0.0465982 -6.88863e-05 0)
(0.0477902 -5.44392e-05 0)
(0.0487221 -3.77483e-05 0)
(0.0493335 -1.79356e-05 0)
(0.0495958 1.14455e-06 0)
(0.0495374 1.66883e-05 0)
(0.049251 2.51343e-05 0)
(0.0488949 2.42404e-05 0)
(0.0486239 1.45882e-05 0)
(0.0485985 -1.78175e-06 0)
(0.0488487 -1.88333e-05 0)
(0.0494917 -3.96432e-05 0)
(0.0504448 -7.07923e-05 0)
(0.0524435 -0.000155615 0)
(0.0562064 -0.000319178 0)
(0.0640048 -0.000571878 0)
(0.0765183 -0.000878573 0)
(0.0955403 -0.00106461 0)
(0.113605 -0.000725637 0)
(0.122422 -0.000209404 0)
(0.120789 0.000265972 0)
(0.113402 0.000512568 0)
(0.102826 0.000749132 0)
(0.0872832 0.000660628 0)
(0.0300099 -4.2943e-05 0)
(0.0305181 -3.38073e-05 0)
(0.0309015 -2.65014e-05 0)
(0.0311873 -2.10622e-05 0)
(0.0314032 -1.74543e-05 0)
(0.0315762 -1.55524e-05 0)
(0.0317327 -1.55074e-05 0)
(0.0319009 -1.75098e-05 0)
(0.0321156 -2.20425e-05 0)
(0.0324186 -2.98709e-05 0)
(0.0328585 -4.09763e-05 0)
(0.0334843 -5.49567e-05 0)
(0.0343344 -7.09766e-05 0)
(0.0354273 -8.74208e-05 0)
(0.0367553 -0.000102329 0)
(0.0382858 -0.000114421 0)
(0.0399678 -0.000122266 0)
(0.0417342 -0.000124804 0)
(0.0434972 -0.000120815 0)
(0.0451517 -0.000109856 0)
(0.0465984 -9.42669e-05 0)
(0.0477904 -7.73887e-05 0)
(0.0487223 -5.80132e-05 0)
(0.0493338 -3.47962e-05 0)
(0.049596 -1.23243e-05 0)
(0.0495375 6.48163e-06 0)
(0.049251 1.66089e-05 0)
(0.0488948 1.57723e-05 0)
(0.0486238 4.09867e-06 0)
(0.0485984 -1.54504e-05 0)
(0.0488486 -3.66514e-05 0)
(0.0494915 -6.23045e-05 0)
(0.0504442 -0.000100502 0)
(0.0524421 -0.000200568 0)
(0.0562041 -0.000394052 0)
(0.0640017 -0.000699094 0)
(0.0765156 -0.00107223 0)
(0.0955413 -0.00128452 0)
(0.11361 -0.000872514 0)
(0.122428 -0.000251836 0)
(0.120794 0.000309389 0)
(0.113402 0.000589359 0)
(0.102846 0.000915628 0)
(0.0873365 0.000339514 0)
(0.03001 -4.11638e-05 0)
(0.0305182 -3.03598e-05 0)
(0.0309016 -2.16454e-05 0)
(0.0311874 -1.51363e-05 0)
(0.0314033 -1.07262e-05 0)
(0.0315762 -8.37219e-06 0)
(0.0317326 -8.04678e-06 0)
(0.0319009 -1.02235e-05 0)
(0.0321155 -1.54981e-05 0)
(0.0324185 -2.41737e-05 0)
(0.0328584 -3.67657e-05 0)
(0.0334841 -5.2906e-05 0)
(0.0343342 -7.11648e-05 0)
(0.0354271 -8.97938e-05 0)
(0.0367552 -0.00010702 0)
(0.0382857 -0.000120777 0)
(0.0399677 -0.000129777 0)
(0.0417342 -0.000132602 0)
(0.0434973 -0.000127925 0)
(0.0451518 -0.00011503 0)
(0.0465986 -9.68245e-05 0)
(0.0477906 -7.71969e-05 0)
(0.0487225 -5.45403e-05 0)
(0.049334 -2.75826e-05 0)
(0.0495962 -1.58619e-06 0)
(0.0495377 1.98054e-05 0)
(0.0492511 3.13784e-05 0)
(0.0488947 3.01994e-05 0)
(0.0486236 1.69506e-05 0)
(0.0485981 -5.65296e-06 0)
(0.0488482 -2.91806e-05 0)
(0.0494911 -5.7785e-05 0)
(0.0504433 -0.000100585 0)
(0.0524405 -0.000216489 0)
(0.0562013 -0.000439519 0)
(0.063998 -0.000785181 0)
(0.0765128 -0.00120475 0)
(0.0955427 -0.00146034 0)
(0.113616 -0.000995048 0)
(0.122433 -0.000288494 0)
(0.120799 0.00036054 0)
(0.113401 0.000697766 0)
(0.102879 0.00102578 0)
(0.0874874 0.000782215 0)
(0.0300101 -5.42241e-05 0)
(0.0305183 -4.22117e-05 0)
(0.0309017 -3.26039e-05 0)
(0.0311874 -2.5462e-05 0)
(0.0314033 -2.07242e-05 0)
(0.0315763 -1.82424e-05 0)
(0.0317326 -1.81656e-05 0)
(0.0319009 -2.07923e-05 0)
(0.0321154 -2.67458e-05 0)
(0.0324184 -3.69187e-05 0)
(0.0328582 -5.14095e-05 0)
(0.0334839 -6.97002e-05 0)
(0.034334 -9.0602e-05 0)
(0.0354269 -0.000112039 0)
(0.036755 -0.000131547 0)
(0.0382856 -0.000147333 0)
(0.0399677 -0.0001576 0)
(0.0417342 -0.00016089 0)
(0.0434974 -0.000155644 0)
(0.045152 -0.000141236 0)
(0.0465988 -0.000120786 0)
(0.0477908 -9.86593e-05 0)
(0.0487228 -7.32375e-05 0)
(0.0493343 -4.28259e-05 0)
(0.0495964 -1.3412e-05 0)
(0.0495379 1.10549e-05 0)
(0.0492511 2.4262e-05 0)
(0.0488947 2.31343e-05 0)
(0.0486234 7.93122e-06 0)
(0.0485979 -1.74542e-05 0)
(0.048848 -4.49594e-05 0)
(0.0494907 -7.83049e-05 0)
(0.0504425 -0.000127944 0)
(0.0524386 -0.000258562 0)
(0.0561982 -0.000511662 0)
(0.0639938 -0.000909668 0)
(0.0765091 -0.00139639 0)
(0.095544 -0.00167561 0)
(0.113623 -0.00113665 0)
(0.122441 -0.000326851 0)
(0.120806 0.000406818 0)
(0.113402 0.000771112 0)
(0.102901 0.00118398 0)
(0.0875553 0.000557953 0)
(0.0300102 -5.37734e-05 0)
(0.0305184 -4.01534e-05 0)
(0.0309018 -2.91745e-05 0)
(0.0311875 -2.0969e-05 0)
(0.0314033 -1.54147e-05 0)
(0.0315763 -1.24403e-05 0)
(0.0317326 -1.20541e-05 0)
(0.0319008 -1.481e-05 0)
(0.0321153 -2.14701e-05 0)
(0.0324182 -3.25204e-05 0)
(0.032858 -4.85012e-05 0)
(0.0334837 -6.89396e-05 0)
(0.0343338 -9.21126e-05 0)
(0.0354266 -0.000115772 0)
(0.0367548 -0.000137582 0)
(0.0382854 -0.000155037 0)
(0.0399676 -0.000166433 0)
(0.0417342 -0.000170038 0)
(0.0434975 -0.000164136 0)
(0.0451522 -0.000147861 0)
(0.046599 -0.00012485 0)
(0.047791 -0.000100031 0)
(0.0487231 -7.14007e-05 0)
(0.0493346 -3.72874e-05 0)
(0.0495968 -4.37278e-06 0)
(0.0495381 2.28031e-05 0)
(0.0492512 3.74859e-05 0)
(0.0488946 3.60202e-05 0)
(0.0486232 1.91889e-05 0)
(0.0485975 -9.53603e-06 0)
(0.0488476 -3.95089e-05 0)
(0.0494902 -7.58851e-05 0)
(0.0504415 -0.000130318 0)
(0.0524366 -0.000277264 0)
(0.0561947 -0.000559662 0)
(0.0639891 -0.000998417 0)
(0.0765056 -0.00153203 0)
(0.0955458 -0.00185061 0)
(0.11363 -0.0012637 0)
(0.122448 -0.000367293 0)
(0.120813 0.000455302 0)
(0.113402 0.000879226 0)
(0.102931 0.00130127 0)
(0.0876864 0.000906221 0)
(0.0300104 -6.55802e-05 0)
(0.0305186 -5.06829e-05 0)
(0.0309019 -3.87563e-05 0)
(0.0311876 -2.9889e-05 0)
(0.0314034 -2.39943e-05 0)
(0.0315763 -2.09081e-05 0)
(0.0317326 -2.07756e-05 0)
(0.0319008 -2.40113e-05 0)
(0.0321153 -3.13792e-05 0)
(0.0324181 -4.3884e-05 0)
(0.0328578 -6.17538e-05 0)
(0.0334834 -8.43551e-05 0)
(0.0343335 -0.000110136 0)
(0.0354264 -0.000136563 0)
(0.0367546 -0.000160672 0)
(0.0382853 -0.000180144 0)
(0.0399675 -0.00019283 0)
(0.0417342 -0.000196872 0)
(0.0434976 -0.000190375 0)
(0.0451524 -0.000172523 0)
(0.0465993 -0.000147218 0)
(0.0477914 -0.000119855 0)
(0.0487234 -8.8396e-05 0)
(0.049335 -5.08008e-05 0)
(0.0495971 -1.44548e-05 0)
(0.0495383 1.57378e-05 0)
(0.0492513 3.2051e-05 0)
(0.0488945 3.0634e-05 0)
(0.0486229 1.18799e-05 0)
(0.0485973 -1.94933e-05 0)
(0.0488473 -5.33264e-05 0)
(0.0494898 -9.43676e-05 0)
(0.0504404 -0.000155433 0)
(0.0524342 -0.000316625 0)
(0.0561909 -0.000629431 0)
(0.0639837 -0.00112032 0)
(0.076501 -0.00171959 0)
(0.0955472 -0.0020692 0)
(0.113639 -0.00140336 0)
(0.122457 -0.000403144 0)
(0.120821 0.000504188 0)
(0.113403 0.000955088 0)
(0.102956 0.00144889 0)
(0.0877629 0.00077734 0)
(0.0300106 -6.63091e-05 0)
(0.0305187 -4.98678e-05 0)
(0.030902 -3.66284e-05 0)
(0.0311877 -2.67412e-05 0)
(0.0314034 -2.00672e-05 0)
(0.0315763 -1.6499e-05 0)
(0.0317326 -1.60808e-05 0)
(0.0319007 -1.94357e-05 0)
(0.0321151 -2.74904e-05 0)
(0.0324179 -4.09307e-05 0)
(0.0328576 -6.03091e-05 0)
(0.0334832 -8.50471e-05 0)
(0.0343332 -0.000113139 0)
(0.0354261 -0.000141835 0)
(0.0367544 -0.000168229 0)
(0.0382851 -0.000189391 0)
(0.0399674 -0.000203191 0)
(0.0417342 -0.000207578 0)
(0.0434977 -0.000200449 0)
(0.0451526 -0.000180786 0)
(0.0465996 -0.000152961 0)
(0.0477917 -0.000122941 0)
(0.0487238 -8.83244e-05 0)
(0.0493354 -4.70384e-05 0)
(0.0495975 -7.18904e-06 0)
(0.0495386 2.57122e-05 0)
(0.0492514 4.34778e-05 0)
(0.0488944 4.17223e-05 0)
(0.0486227 2.13257e-05 0)
(0.0485969 -1.33409e-05 0)
(0.0488468 -4.9733e-05 0)
(0.0494892 -9.38542e-05 0)
(0.0504392 -0.000159886 0)
(0.0524317 -0.000337794 0)
(0.0561866 -0.00067948 0)
(0.063978 -0.00121146 0)
(0.0764966 -0.00186014 0)
(0.0955496 -0.00224581 0)
(0.113648 -0.00152977 0)
(0.122466 -0.000444121 0)
(0.120829 0.000550553 0)
(0.113405 0.00106118 0)
(0.102983 0.0015762 0)
(0.0878796 0.00103877 0)
(0.0300108 -7.70054e-05 0)
(0.0305189 -5.92348e-05 0)
(0.0309021 -4.49937e-05 0)
(0.0311878 -3.4394e-05 0)
(0.0314035 -2.73222e-05 0)
(0.0315763 -2.36049e-05 0)
(0.0317326 -2.33839e-05 0)
(0.0319006 -2.72031e-05 0)
(0.032115 -3.59734e-05 0)
(0.0324178 -5.07927e-05 0)
(0.0328574 -7.2032e-05 0)
(0.0334829 -9.89441e-05 0)
(0.0343329 -0.000129602 0)
(0.0354258 -0.000161015 0)
(0.0367541 -0.000189728 0)
(0.0382849 -0.000212879 0)
(0.0399673 -0.000227975 0)
(0.0417342 -0.000232757 0)
(0.0434979 -0.000225011 0)
(0.0451529 -0.000203724 0)
(0.0465999 -0.000173576 0)
(0.047792 -0.000140989 0)
(0.0487242 -0.000103508 0)
(0.0493358 -5.87415e-05 0)
(0.0495978 -1.54677e-05 0)
(0.0495388 2.05183e-05 0)
(0.0492514 3.9968e-05 0)
(0.0488942 3.82659e-05 0)
(0.0486224 1.59473e-05 0)
(0.0485965 -2.16368e-05 0)
(0.0488465 -6.18196e-05 0)
(0.0494886 -0.000110559 0)
(0.0504379 -0.000183034 0)
(0.0524289 -0.00037486 0)
(0.0561819 -0.000747459 0)
(0.0639716 -0.00133113 0)
(0.0764911 -0.00204306 0)
(0.0955512 -0.00245575 0)
(0.113657 -0.00166901 0)
(0.122476 -0.000480065 0)
(0.120838 0.000601252 0)
(0.113406 0.00113573 0)
(0.103008 0.00171009 0)
(0.087961 0.000990148 0)
(0.030011 -7.87578e-05 0)
(0.030519 -5.94886e-05 0)
(0.0309022 -4.39888e-05 0)
(0.0311878 -3.24262e-05 0)
(0.0314036 -2.46497e-05 0)
(0.0315763 -2.05122e-05 0)
(0.0317325 -2.00958e-05 0)
(0.0319006 -2.40779e-05 0)
(0.0321149 -3.35399e-05 0)
(0.0324175 -4.93866e-05 0)
(0.0328571 -7.21725e-05 0)
(0.0334826 -0.00010121 0)
(0.0343326 -0.000134223 0)
(0.0354255 -0.00016796 0)
(0.0367538 -0.000198939 0)
(0.0382847 -0.000223816 0)
(0.0399672 -0.000240028 0)
(0.0417342 -0.000245209 0)
(0.0434981 -0.000236844 0)
(0.0451532 -0.000213776 0)
(0.0466002 -0.000181121 0)
(0.0477924 -0.000145886 0)
(0.0487247 -0.000105273 0)
(0.0493363 -5.68089e-05 0)
(0.0495983 -1.00331e-05 0)
(0.0495392 2.85266e-05 0)
(0.0492515 4.93531e-05 0)
(0.0488941 4.73022e-05 0)
(0.048622 2.33328e-05 0)
(0.0485961 -1.7029e-05 0)
(0.0488459 -5.98155e-05 0)
(0.0494879 -0.000111671 0)
(0.0504364 -0.000189289 0)
(0.0524259 -0.000398006 0)
(0.0561769 -0.000799021 0)
(0.0639649 -0.00142443 0)
(0.0764861 -0.00218759 0)
(0.0955537 -0.00264612 0)
(0.113668 -0.00180033 0)
(0.122487 -0.000520944 0)
(0.120847 0.000646499 0)
(0.113409 0.00124588 0)
(0.103034 0.00185061 0)
(0.0880671 0.00118915 0)
(0.0300113 -9.34201e-05 0)
(0.0305194 -7.20758e-05 0)
(0.0309025 -5.49714e-05 0)
(0.031188 -4.22383e-05 0)
(0.0314037 -3.37317e-05 0)
(0.0315764 -2.92467e-05 0)
(0.0317326 -2.8941e-05 0)
(0.0319005 -3.35102e-05 0)
(0.0321147 -4.40189e-05 0)
(0.0324173 -6.17766e-05 0)
(0.0328567 -8.72859e-05 0)
(0.0334821 -0.000119605 0)
(0.0343321 -0.000156405 0)
(0.035425 -0.000194134 0)
(0.0367534 -0.000228623 0)
(0.0382844 -0.000256419 0)
(0.0399671 -0.000274563 0)
(0.0417343 -0.00028032 0)
(0.0434984 -0.00027104 0)
(0.0451537 -0.000245503 0)
(0.0466008 -0.000209339 0)
(0.0477931 -0.000170247 0)
(0.0487254 -0.000125284 0)
(0.0493371 -7.15754e-05 0)
(0.0495989 -1.96127e-05 0)
(0.0495396 2.38767e-05 0)
(0.0492517 4.7366e-05 0)
(0.0488939 4.54204e-05 0)
(0.0486216 1.86202e-05 0)
(0.0485955 -2.7276e-05 0)
(0.0488453 -7.57112e-05 0)
(0.049487 -0.000134385 0)
(0.0504342 -0.000221301 0)
(0.052421 -0.000450813 0)
(0.0561687 -0.00089859 0)
(0.0639537 -0.00160051 0)
(0.0764766 -0.00245806 0)
(0.0955579 -0.0029383 0)
(0.113686 -0.00200093 0)
(0.122506 -0.00057732 0)
(0.120863 0.000724235 0)
(0.113413 0.00134743 0)
(0.103073 0.00202634 0)
(0.0881882 0.00116765 0)
(0.0300118 -9.82385e-05 0)
(0.0305197 -7.39893e-05 0)
(0.0309028 -5.4486e-05 0)
(0.0311882 -3.99385e-05 0)
(0.0314038 -3.01667e-05 0)
(0.0315764 -2.49874e-05 0)
(0.0317324 -2.4516e-05 0)
(0.0319003 -2.95574e-05 0)
(0.0321143 -4.14903e-05 0)
(0.0324167 -6.14708e-05 0)
(0.032856 -9.01516e-05 0)
(0.0334813 -0.000126704 0)
(0.0343312 -0.000168277 0)
(0.0354242 -0.000210745 0)
(0.0367527 -0.000249739 0)
(0.0382838 -0.000281066 0)
(0.0399667 -0.000301469 0)
(0.0417343 -0.000307962 0)
(0.0434986 -0.000297409 0)
(0.0451542 -0.000268334 0)
(0.0466015 -0.000227195 0)
(0.0477939 -0.000182827 0)
(0.0487264 -0.000131678 0)
(0.0493382 -7.06299e-05 0)
(0.0496 -1.17435e-05 0)
(0.0495404 3.65398e-05 0)
(0.049252 6.26498e-05 0)
(0.0488936 5.99696e-05 0)
(0.0486207 2.97299e-05 0)
(0.0485943 -2.02951e-05 0)
(0.0488439 -7.39232e-05 0)
(0.0494851 -0.000138926 0)
(0.0504305 -0.00023645 0)
(0.0524136 -0.000499592 0)
(0.0561562 -0.00100406 0)
(0.0639368 -0.00179045 0)
(0.0764634 -0.00275045 0)
(0.0955632 -0.00333913 0)
(0.113712 -0.00226589 0)
(0.122534 -0.000654041 0)
(0.120885 0.000812675 0)
(0.113421 0.00158 0)
(0.10312 0.00233186 0)
(0.0883779 0.00158189 0)
(0.0300124 -0.000116791 0)
(0.0305203 -8.97266e-05 0)
(0.0309032 -6.80149e-05 0)
(0.0311885 -5.18422e-05 0)
(0.031404 -4.10008e-05 0)
(0.0315765 -3.52363e-05 0)
(0.0317325 -3.47225e-05 0)
(0.0319001 -4.04119e-05 0)
(0.0321141 -5.37007e-05 0)
(0.0324163 -7.6114e-05 0)
(0.0328554 -0.000108365 0)
(0.0334805 -0.000149306 0)
(0.0343304 -0.00019589 0)
(0.0354233 -0.000243615 0)
(0.036752 -0.000287305 0)
(0.0382833 -0.000322472 0)
(0.0399665 -0.000345435 0)
(0.0417344 -0.000352726 0)
(0.0434992 -0.000340972 0)
(0.0451551 -0.000308574 0)
(0.0466026 -0.000262713 0)
(0.047795 -0.000213176 0)
(0.0487277 -0.000156155 0)
(0.0493396 -8.80452e-05 0)
(0.0496011 -2.21641e-05 0)
(0.0495411 3.29578e-05 0)
(0.0492522 6.26951e-05 0)
(0.0488932 6.01943e-05 0)
(0.0486199 2.63994e-05 0)
(0.0485933 -3.21313e-05 0)
(0.0488428 -9.33744e-05 0)
(0.0494835 -0.000167362 0)
(0.0504267 -0.000276954 0)
(0.0524052 -0.000567926 0)
(0.0561423 -0.00113496 0)
(0.0639178 -0.00202326 0)
(0.0764471 -0.00310845 0)
(0.0955701 -0.00372762 0)
(0.113742 -0.00253712 0)
(0.122565 -0.000732195 0)
(0.120913 0.000919873 0)
(0.11343 0.00170381 0)
(0.103174 0.00253833 0)
(0.0885436 0.00149269 0)
(0.030013 -0.000122803 0)
(0.0305207 -9.28587e-05 0)
(0.0309035 -6.87932e-05 0)
(0.0311888 -5.08607e-05 0)
(0.0314041 -3.88634e-05 0)
(0.0315765 -3.25613e-05 0)
(0.0317323 -3.20947e-05 0)
(0.0318999 -3.8403e-05 0)
(0.0321136 -5.3152e-05 0)
(0.0324156 -7.78944e-05 0)
(0.0328545 -0.000113383 0)
(0.0334795 -0.000158548 0)
(0.0343292 -0.00020995 0)
(0.0354223 -0.000262498 0)
(0.036751 -0.000310689 0)
(0.0382826 -0.000349444 0)
(0.0399661 -0.000374681 0)
(0.0417344 -0.000382745 0)
(0.0434996 -0.000369725 0)
(0.0451559 -0.000333828 0)
(0.0466035 -0.000283043 0)
(0.0477961 -0.000228278 0)
(0.048729 -0.000165163 0)
(0.049341 -8.9777e-05 0)
(0.0496026 -1.70339e-05 0)
(0.0495422 4.26587e-05 0)
(0.0492525 7.4986e-05 0)
(0.0488929 7.16969e-05 0)
(0.0486188 3.40868e-05 0)
(0.0485918 -2.75823e-05 0)
(0.0488411 -9.38457e-05 0)
(0.0494813 -0.000174162 0)
(0.0504222 -0.000294464 0)
(0.052396 -0.000618781 0)
(0.0561267 -0.00124201 0)
(0.0638969 -0.00221546 0)
(0.0764291 -0.00340452 0)
(0.0955749 -0.00411903 0)
(0.113771 -0.00280555 0)
(0.122597 -0.000808041 0)
(0.120938 0.00100413 0)
(0.113441 0.00194947 0)
(0.103217 0.00287029 0)
(0.0887071 0.00201121 0)
(0.0300138 -0.00013998 0)
(0.0305214 -0.000107197 0)
(0.0309041 -8.08794e-05 0)
(0.0311892 -6.12416e-05 0)
(0.0314044 -4.80121e-05 0)
(0.0315767 -4.09229e-05 0)
(0.0317323 -4.02003e-05 0)
(0.0318997 -4.70213e-05 0)
(0.0321133 -6.31055e-05 0)
(0.032415 -9.01947e-05 0)
(0.0328537 -0.000129195 0)
(0.0334785 -0.000178768 0)
(0.0343282 -0.000235149 0)
(0.0354213 -0.000292872 0)
(0.0367502 -0.000345768 0)
(0.038282 -0.000388319 0)
(0.0399658 -0.000416109 0)
(0.0417345 -0.000424923 0)
(0.0435002 -0.000410668 0)
(0.0451569 -0.000371364 0)
(0.0466048 -0.000315764 0)
(0.0477975 -0.000255744 0)
(0.0487306 -0.000186617 0)
(0.0493426 -0.000104063 0)
(0.0496039 -2.42425e-05 0)
(0.049543 4.24676e-05 0)
(0.0492528 7.84198e-05 0)
(0.0488924 7.53782e-05 0)
(0.0486178 3.4713e-05 0)
(0.0485907 -3.60262e-05 0)
(0.0488397 -0.000110049 0)
(0.0494793 -0.000199249 0)
(0.0504175 -0.000331483 0)
(0.0523857 -0.000683913 0)
(0.0561096 -0.00137046 0)
(0.0638742 -0.00244369 0)
(0.0764098 -0.00376787 0)
(0.0955771 -0.00453395 0)
(0.113796 -0.00306941 0)
(0.122624 -0.000888374 0)
(0.12097 0.00111763 0)
(0.113453 0.00205662 0)
(0.103272 0.00303906 0)
(0.0888836 0.00180265 0)
(0.0300145 -0.000147471 0)
(0.0305219 -0.000111853 0)
(0.0309045 -8.32778e-05 0)
(0.0311894 -6.20548e-05 0)
(0.0314045 -4.79191e-05 0)
(0.0315767 -4.05161e-05 0)
(0.0317322 -4.00129e-05 0)
(0.0318994 -4.75432e-05 0)
(0.0321127 -6.50737e-05 0)
(0.0324142 -9.45467e-05 0)
(0.0328527 -0.000136832 0)
(0.0334773 -0.000190605 0)
(0.0343269 -0.000251837 0)
(0.03542 -0.000314475 0)
(0.0367491 -0.000371873 0)
(0.0382812 -0.000418055 0)
(0.0399653 -0.00044811 0)
(0.0417345 -0.000457744 0)
(0.0435007 -0.000442281 0)
(0.0451578 -0.000399587 0)
(0.0466059 -0.000339194 0)
(0.0477988 -0.000274099 0)
(0.0487322 -0.000199083 0)
(0.0493444 -0.000109393 0)
(0.0496056 -2.279e-05 0)
(0.0495443 4.84477e-05 0)
(0.0492532 8.70507e-05 0)
(0.048892 8.31315e-05 0)
(0.0486165 3.80147e-05 0)
(0.0485888 -3.61463e-05 0)
(0.0488377 -0.000115194 0)
(0.0494767 -0.000210869 0)
(0.0504121 -0.000353638 0)
(0.0523744 -0.00073816 0)
(0.0560909 -0.00148046 0)
(0.0638487 -0.00264268 0)
(0.0763948 -0.00405865 0)
(0.0955769 -0.0048864 0)
(0.113819 -0.00333719 0)
(0.122651 -0.000955923 0)
(0.120995 0.00119521 0)
(0.113464 0.00232165 0)
(0.103311 0.0034053 0)
(0.0890143 0.00247329 0)
(0.0300154 -0.000163059 0)
(0.0305227 -0.000124482 0)
(0.0309051 -9.34163e-05 0)
(0.0311899 -7.01738e-05 0)
(0.0314048 -5.45063e-05 0)
(0.0315768 -4.61338e-05 0)
(0.0317322 -4.52827e-05 0)
(0.0318992 -5.32977e-05 0)
(0.0321123 -7.22168e-05 0)
(0.0324136 -0.000104016 0)
(0.0328517 -0.000149789 0)
(0.0334761 -0.000208014 0)
(0.0343257 -0.000274207 0)
(0.0354188 -0.000341937 0)
(0.036748 -0.000404045 0)
(0.0382804 -0.00045399 0)
(0.039965 -0.000486629 0)
(0.0417346 -0.000496974 0)
(0.0435014 -0.0004802 0)
(0.0451591 -0.000433944 0)
(0.0466074 -0.000368548 0)
(0.0478004 -0.000297983 0)
(0.048734 -0.000216671 0)
(0.0493463 -0.000119586 0)
(0.0496071 -2.57457e-05 0)
(0.0495453 5.23702e-05 0)
(0.0492535 9.45328e-05 0)
(0.0488913 9.09817e-05 0)
(0.0486154 4.34964e-05 0)
(0.0485875 -3.83456e-05 0)
(0.0488361 -0.000124784 0)
(0.0494743 -0.000228808 0)
(0.0504066 -0.000383428 0)
(0.0523624 -0.000798552 0)
(0.0560706 -0.00160375 0)
(0.0638201 -0.00286142 0)
(0.0763785 -0.00440719 0)
(0.0955743 -0.00533582 0)
(0.113844 -0.00361808 0)
(0.12268 -0.00104996 0)
(0.12103 0.00131729 0)
(0.113479 0.00240348 0)
(0.103371 0.00353285 0)
(0.0891578 0.00210244 0)
(0.0300213 -0.000231248 0)
(0.0305274 -0.00017417 0)
(0.0309087 -0.00012965 0)
(0.0311923 -9.75637e-05 0)
(0.0314061 -7.69587e-05 0)
(0.0315769 -6.67352e-05 0)
(0.031731 -6.73064e-05 0)
(0.0318966 -8.01004e-05 0)
(0.0321074 -0.000108841 0)
(0.0324063 -0.000157959 0)
(0.0328429 -0.000227797 0)
(0.0334655 -0.00031638 0)
(0.0343139 -0.000418224 0)
(0.0354077 -0.000522641 0)
(0.0367385 -0.000617762 0)
(0.0382731 -0.000694591 0)
(0.0399608 -0.00074438 0)
(0.0417342 -0.000760711 0)
(0.0435053 -0.000735545 0)
(0.0451666 -0.000665559 0)
(0.046617 -0.000566721 0)
(0.0478113 -0.000461104 0)
(0.0487472 -0.000339285 0)
(0.0493611 -0.000192143 0)
(0.0496218 -5.07737e-05 0)
(0.0495561 6.42364e-05 0)
(0.0492574 0.000126131 0)
(0.0488879 0.000114838 0)
(0.0486038 2.9741e-05 0)
(0.0485713 -9.72298e-05 0)
(0.0488181 -0.000227012 0)
(0.0494502 -0.000384412 0)
(0.0503583 -0.000616647 0)
(0.0522661 -0.00123812 0)
(0.0559057 -0.00246018 0)
(0.063588 -0.00441061 0)
(0.076265 -0.00685851 0)
(0.0957406 -0.00792448 0)
(0.114159 -0.00541452 0)
(0.123032 -0.00144329 0)
(0.121252 0.00181051 0)
(0.113595 0.00457971 0)
(0.10361 0.00645653 0)
(0.0897389 0.00836324 0)
(0.0300457 -0.000425289 0)
(0.0305473 -0.000324303 0)
(0.0309237 -0.000242352 0)
(0.0312027 -0.000180561 0)
(0.0314124 -0.000138482 0)
(0.0315796 -0.000115683 0)
(0.0317295 -0.000112533 0)
(0.0318897 -0.00013263 0)
(0.0320945 -0.000181138 0)
(0.0323863 -0.000262554 0)
(0.0328147 -0.000380365 0)
(0.0334316 -0.000530519 0)
(0.0342777 -0.000700943 0)
(0.035372 -0.00087509 0)
(0.0367077 -0.00103497 0)
(0.038251 -0.00116339 0)
(0.0399499 -0.0012476 0)
(0.0417375 -0.00127412 0)
(0.0435249 -0.00123003 0)
(0.0452001 -0.00110857 0)
(0.0466566 -0.00093905 0)
(0.0478552 -0.000756592 0)
(0.0487985 -0.000545678 0)
(0.049415 -0.000293593 0)
(0.0496668 -4.90682e-05 0)
(0.0495857 0.000155212 0)
(0.0492645 0.000266662 0)
(0.0488671 0.000262244 0)
(0.0485655 0.000149678 0)
(0.0485287 -5.76454e-05 0)
(0.0487697 -0.000274694 0)
(0.0493829 -0.00053014 0)
(0.0502049 -0.000907715 0)
(0.0519248 -0.00196011 0)
(0.0553247 -0.00403054 0)
(0.0627988 -0.00728196 0)
(0.0754907 -0.0113552 0)
(0.0958975 -0.0139612 0)
(0.115534 -0.0094137 0)
(0.124386 -0.00274739 0)
(0.122614 0.00363959 0)
(0.114448 0.00539443 0)
(0.105344 0.00784803 0)
(0.0934266 0.00237891 0)
(0.0300827 -0.00056343 0)
(0.030579 -0.000428812 0)
(0.0309493 -0.000321613 0)
(0.0312216 -0.000242274 0)
(0.0314244 -0.000189263 0)
(0.0315842 -0.000160957 0)
(0.0317262 -0.000158151 0)
(0.0318773 -0.000185342 0)
(0.0320708 -0.000250755 0)
(0.0323501 -0.000363183 0)
(0.0327673 -0.000525797 0)
(0.033375 -0.000733567 0)
(0.0342166 -0.000971482 0)
(0.0353134 -0.00121574 0)
(0.0366571 -0.00143923 0)
(0.0382131 -0.00161924 0)
(0.0399296 -0.00173694 0)
(0.0417392 -0.00177662 0)
(0.043552 -0.00171852 0)
(0.0452486 -0.00155063 0)
(0.0467163 -0.0013183 0)
(0.0479223 -0.00107351 0)
(0.0488779 -0.000787541 0)
(0.0495014 -0.000439501 0)
(0.0497486 -0.000103493 0)
(0.0496451 0.000178515 0)
(0.0492878 0.000331157 0)
(0.0488549 0.000311133 0)
(0.0485139 0.000117585 0)
(0.0484514 -0.000192619 0)
(0.048684 -0.000496274 0)
(0.049269 -0.000834994 0)
(0.0499542 -0.0013129 0)
(0.0513923 -0.00269821 0)
(0.054427 -0.0055498 0)
(0.0615385 -0.0101311 0)
(0.0745364 -0.0162178 0)
(0.0963907 -0.0195265 0)
(0.117377 -0.013176 0)
(0.126504 -0.00362563 0)
(0.123539 0.00462075 0)
(0.114893 0.00948102 0)
(0.103545 0.0124125 0)
(0.0903175 0.0156042 0)
(0.0301284 -0.000729956 0)
(0.0306156 -0.000549971 0)
(0.0309763 -0.000406405 0)
(0.0312401 -0.000300253 0)
(0.0314354 -0.000229502 0)
(0.0315883 -0.000192129 0)
(0.0317226 -0.000188297 0)
(0.0318635 -0.000224117 0)
(0.0320443 -0.000309971 0)
(0.0323087 -0.000456324 0)
(0.0327101 -0.000669658 0)
(0.0333058 -0.000942669 0)
(0.0341416 -0.00125366 0)
(0.03524 -0.00157146 0)
(0.0365939 -0.00186245 0)
(0.038167 -0.00209658 0)
(0.0399056 -0.00225103 0)
(0.0417428 -0.00230268 0)
(0.0435887 -0.00222355 0)
(0.0453129 -0.0019939 0)
(0.0467911 -0.00168304 0)
(0.048005 -0.00136018 0)
(0.0489775 -0.000982785 0)
(0.0496082 -0.000519493 0)
(0.0498413 -6.97621e-05 0)
(0.0497083 0.000300212 0)
(0.0493024 0.000506331 0)
(0.0488069 0.000493612 0)
(0.0484237 0.000275593 0)
(0.0483552 -0.000104967 0)
(0.0485872 -0.000474141 0)
(0.0491485 -0.000863728 0)
(0.0496776 -0.00140886 0)
(0.0507391 -0.00314767 0)
(0.0532594 -0.00685904 0)
(0.0598409 -0.0128716 0)
(0.0730119 -0.0213735 0)
(0.0968861 -0.0261089 0)
(0.120077 -0.0174614 0)
(0.129152 -0.00436761 0)
(0.126163 0.00703355 0)
(0.116637 0.0109066 0)
(0.107013 0.014831 0)
(0.0944434 0.00772611 0)
(0.0301929 -0.000900299 0)
(0.0306704 -0.000685247 0)
(0.0310197 -0.000513487 0)
(0.0312715 -0.000385446 0)
(0.0314549 -0.000298465 0)
(0.0315958 -0.000249989 0)