/*--------------------------------*- C++ -*----------------------------------*\
| =========                 |                                                 |
| \\      /  F ield         | OpenFOAM: The Open Source CFD Toolbox           |
|  \\    /   O peration     | Version:  v1912                                 |
|   \\  /    A nd           | Website:  www.openfoam.com                      |
|    \\/     M anipulation  |                                                 |
\*---------------------------------------------------------------------------*/
FoamFile
{
    version     2.0;
    format      ascii;
    class       volScalarField;
    location    "100";
    object      p;
}
// * * * * * * * * * * * * * * * * * * * * * * * * * * * * * * * * * * * * * //

dimensions      [1 -1 -2 0 0 0 0];


internalField   nonuniform List<scalar> 
14268
(
148211
147258
146219
145146
144054
142953
141823
140623
139322
137888
136282
134490
132597
130547
128461
126430
124557
122951
121687
120792
120256
120056
120120
120401
120846
121408
122051
122745
123473
124222
124986
125768
126568
127394
128251
129145
130079
131057
132079
133147
134260
135449
136667
137930
139234
140565
141905
143226
144497
145681
146740
147635
148328
148788
148991
148912
148573
147960
147083
145969
144646
143158
141547
139861
138136
136413
134717
133074
131499
130005
128597
127276
126044
124899
123839
122861
121967
121155
120429
119791
119246
118800
118458
118235
118135
118219
140803
139840
138794
137715
136621
135521
134395
133199
131903
130471
128865
127068
125168
123105
121004
118958
117073
115459
114192
113299
112770
112575
112647
112935
113386
113954
114600
115297
116027
116777
117541
118322
119122
119947
120803
121696
122630
123607
124629
125697
126808
127999
129216
130480
131785
133119
134462
135787
137064
138254
139319
140220
140918
141382
141588
141511
141171
140555
139674
138554
137225
135730
134113
132420
130690
128963
127264
125618
124043
122548
121140
119820
118588
117443
116384
115406
114512
113700
112974
112335
111790
111342
111000
110775
110664
110721
133399
132421
131363
130277
129182
128085
126967
125780
124490
123062
121455
119649
117733
115646
113518
111445
109537
107910
106639
105751
105238
105057
105143
105446
105909
106487
107141
107843
108576
109328
110092
110872
111670
112493
113348
114240
115172
116148
117170
118237
119346
120539
121754
123020
124328
125667
127016
128351
129638
130841
131918
132832
133541
134013
134224
134146
133805
133184
132293
131161
129819
128310
126679
124975
123235
121499
119795
118146
116568
115073
113665
112346
111116
109972
108914
107937
107043
106232
105505
104865
104319
103869
103525
103299
103194
103241
126018
125016
123940
122842
121743
120653
119547
118374
117097
115675
114065
112244
110305
108181
106009
103896
101954
100305
99028.4
98149
97661.7
97499.4
97608.7
97932.9
98415
99007.7
99673.4
100384
101122
101876
102640
103419
104214
105034
105886
106776
107707
108681
109702
110768
111880
113062
114282
115550
116863
118209
119569
120917
122221
123441
124538
125470
126196
126681
126901
126826
126482
125851
124946
123796
122432
120902
119251
117528
115773
114026
112312
110658
109078
107582
106174
104857
103629
102487
101430
100455
99561.4
98749.4
98021.7
97381
96832.7
96380.9
96033.4
95802.2
95691.5
95710.7
118648
117615
116514
115403
114302
113220
112131
110977
109716
108302
106690
104851
102879
100705
98475.9
96307
94317.8
92641
91357.5
90488.6
90042.2
89902.5
90042.9
90396.4
90903.7
91516.6
92197.7
92918.6
93663.2
94420.5
95185.1
95961.5
96753.4
97569.6
98417.9
99304.3
100233
101206
102225
103291
104403
105578
106800
108071
109389
110745
112119
113485
114810
116056
117178
118136
118883
119386
119616
119543
119196
118553
117629
116454
115063
113504
111826
110079
108304
106540
104815
103154
101570
100073
98666.4
97351.7
96126.1
94987.3
93932.6
92958.8
92066
91253.9
90525.1
89882.7
89331.9
88876.9
88524.9
88289.2
88179.8
88191.7
111296
110222
109091
107960
106858
105788
104721
103592
102353
100950
99335.4
97473.4
95459
93220.5
90917
88676.2
86626.5
84913.9
83623.7
82777.8
82368.3
82264.6
82446.1
82837.2
83376.3
84014.4
84714.7
85448.9
86201.8
86963
87727.5
88500.7
89288
90099
90942.6
91825.3
92751.1
93722
94739.3
95803.3
96914.6
98084.5
99307
100581
101907
103274
104665
106055
107407
108683
109838
110828
111604
112129
112373
112304
111952
111294
110344
109139
107712
106117
104404
102626
100825
99042
97303.5
95633.1
94044.5
92547
91141.9
89830.2
88608.3
87473.1
86421.2
85449.4
84557.5
83745.1
83015.1
82370.4
81816.5
81357.4
80999.7
80759
80643.8
80629.1
103956
102833
101664
100511
99407.8
98353.4
97314.8
96218.3
95007.4
93619.5
92001.9
90113.2
88044.6
85726.6
83331.3
81000.6
78875.7
77118.5
75822.4
75014.1
74634.7
74585.1
74818.3
75255.5
75833
76501.7
77224.9
77974.9
78737.6
79503
80267.1
81036.4
81818
82622.4
83460.3
84338.4
85260.9
86229.5
87244.6
88306.5
89415.4
90581.2
91803.5
93081
94414.6
95795.7
97207.6
98624
100010
101324
102518
103547
104358
104911
105172
105107
104749
104072
103093
101849
100379
98739
96984.1
95169
93338
91530.7
89775.5
88094.8
86501.3
85003.2
83600.2
82292.6
81075.2
79944.4
78896.1
77926.6
77035.8
76223
75491.5
74844.2
74286.6
73822.5
73458.3
73212.3
73088.6
73063.5
96631
95447.9
94234
93054.9
91950.5
90916.4
89913.4
88857
87681.7
86312.7
84692.3
82774.8
80636.9
78224.1
75716.6
73275.1
71058.3
69247.3
67944.4
67191.8
66850.3
66866.3
67160.3
67652.5
68275.5
68979.6
69729.5
70497.9
71271.8
72042.2
72805.3
73569.4
74343.7
75140.1
75971.1
76843.8
77762.4
78728.2
79741
80800.1
81905.9
83067.6
84288.7
85569.2
86911.5
88308.6
89744.3
91192.7
92617.8
93976
95218.1
96293.4
97146.8
97732.6
98014.8
97954.4
97589.2
96889.7
95874
94584.1
93063
91369.8
89565.3
87706.5
85839.8
84004.8
82230.6
80538.2
78939.5
77441.1
76041.2
74738.6
73526.9
72401.5
71357.6
70390.9
69501.2
68688.1
67954.7
67304.3
66742.3
66272.5
65900.9
65647.4
65507.6
65473
89317.2
88064.3
86794.9
85591.2
84484.4
83474.8
82515.6
81509.2
80377.9
79032.2
77410.2
75466.2
73233.8
70713
68070.1
65495.4
63168.8
61291.9
59980.1
59315.7
59005.1
59103.1
59471.9
60028.9
60704.4
61449.1
62229.3
63018.4
63804.7
64580.3
65342
66099.6
66865.1
67651.7
68474.4
69340.9
70255.4
71218.4
72228.5
73284.3
74386.1
75543.4
76762.2
78045.4
79396.8
80811.5
82274.5
83759.6
85230
86639.8
87937.2
89067.2
89970.2
90595
90902.1
90848
90473.4
89747.6
88689.2
87345.6
85763.9
84008.6
82146.5
80237.1
78329.4
76463.1
74667.5
72962.3
71358.4
69860.3
68464.5
67168.3
65963.4
64844.5
63805.7
62842.4
61954
61140.2
60404.8
59750.7
59183.8
58707.5
58327.9
58064.8
57909.7
57865.7
82014.3
80675.9
79346.5
78111.3
77006
76026.6
75121.7
74175.3
73097.9
71781.2
70162.7
68177.3
65849.4
63195.1
60388
57652.6
55194.2
53243.3
51955.1
51349.7
51131.2
51303.9
51755.4
52385.6
53120.9
53911.4
54725.6
55538.2
56338.1
57119.1
57878.7
58628
59382.6
60157.5
60970.3
61829.5
62739.6
63699.7
64707
65758.9
66855.9
68007.9
69223
70508
71868.9
73302.8
74796.1
76322.7
77845
79314.1
80674.9
81868.3
82828.9
83499.5
83835.8
83788.4
83403.4
82647.1
81539.1
80132.9
78481.1
76654.1
74725.8
72759
70805.1
68903.7
67084.6
65365.8
63757.1
62260.1
60869.9
59581.4
58384.9
57273.7
56241
55281.4
54394.4
53579.9
52841.8
52183.5
51611.2
51127.8
50739.5
50463.6
50293.3
50234.9
74718.9
73285
71881.6
70606.9
69507
68569.8
67729.6
66854.6
65847.2
64568.7
62946.4
60917.9
58483.2
55669.5
52666.2
49739.9
47127.3
45080.5
43864.1
43284.3
43169.6
43452.7
44007.9
44725.2
45528.3
46369.8
47221
48057.8
48872.2
49658.8
50415.4
51154.6
51896.2
52657.1
53458.4
54309.5
55214.9
56172.3
57177
58224.3
59315.7
60461.1
61670.6
62956.3
64326.5
65781
67307.7
68880.9
70461.4
71997.7
73431
74697
75724.3
76447.8
76818.4
76780
76382
75590.3
74424.9
72946.6
71214.1
69304.9
67301.3
65269.9
63264.7
61324.9
59480.7
57747.6
56134.9
54640.3
53257.2
51978.2
50791.5
49689.4
48663.6
47708.2
46822.4
46006.9
45265.9
44603.2
44024.3
43533.6
43136.6
42844.4
42658.4
42584.1
67430.9
65885.4
64394.9
63078.6
61985
61099.7
60338.1
59558.4
58621.9
57398.6
55771
53693.7
51139.7
48137.5
44898
41742.2
38946.5
36783.8
35696.3
35147.3
35160.7
35570.9
36239.2
37049.8
37926.2
38822.3
39712.9
40575.5
41405.8
42198.4
42951.2
43678.6
44404.9
45149.4
45937.4
46779.6
47680.6
48636
49638.4
50680.6
51765.1
52902.8
54104
55389.1
56767.8
58243.8
59806.7
61431.3
63077.2
64689.1
66204.4
67553
68656.5
69441.2
69851.4
69822
69409.3
68577.3
67346.2
65785.1
63960.5
61958.3
59870.6
57767.8
55706.1
53724.6
51853.6
50105.6
48489.7
46998.8
45625
44357.1
43182
42090.3
41072.4
40121.3
39237.2
38420.6
37676
37007.8
36423
35924.7
35517.6
35206.8
35004.4
34909.6
60142.2
58465.1
56880.2
55518.1
54435.5
53612.7
52950.5
52279.4
51428.6
50262.5
48645.3
46511
43821.5
40596
37078
33648
30644.4
28393.7
27354.3
26899.1
27067.8
27628.3
28432.9
29355.2
30314.2
31270.6
32203.9
33101.3
33948.3
34745.5
35491.9
36203.2
36908.9
37634.7
38407.1
39239.4
40136
41089.8
42090.5
43128
44204.3
45332.6
46522.8
47805.4
49191.8
50689.9
52291.6
53972.3
55690.5
57387
58994.4
60436.5
61627
62482.2
62938.7
62920.5
62489.8
61612.4
60306.5
58651.6
56723.8
54616.3
52433.9
50251.1
48127.3
46100.3
44200.9
42437.3
40819.7
39334.5
37972.4
36718.4
35556.9
34478.7
33470.8
32527.4
31644.6
30826
30076.6
29402.8
28810.1
28303.6
27885.9
27555.8
27333.5
27216.7
52866
51040.9
49333.3
47918.4
46850.8
46104.3
45561.8
45009
44275.7
43182.2
41578.5
39383.9
36544.5
33055.8
29193.2
25426.6
22188.4
19907
18862.6
18577.7
18912.7
19662
20619
21658.5
22707.8
23729.6
24709.4
25635.3
26497.8
27300
28038.7
28731.7
29414.1
30116.1
30869.8
31690.1
32582.2
33535.4
34535
35567.8
36634.5
37750
38925.7
40202.4
41594.7
43114.9
44757.9
46500
48298.2
50088.8
51799.6
53347.1
54636.3
55572.3
56082.5
56079.2
55625.8
54697.6
53306.8
51545.2
49498.5
47272.7
44984.1
42713.7
40522.7
38448.1
36519.7
34744
33128
31650.5
30303
29065.5
27921
26862.7
25863.7
24924.4
24040.9
23219.6
22464.7
21784.1
21183.7
20668.7
20238.9
19887.7
19635.7
19477.7
47915.3
45976.7
44199.2
42736.8
41684.6
41005.3
40556.1
40104.2
39462
38425.5
36835.3
34594.2
31630.3
27918.1
23782.9
19757.5
16341.1
14032.9
12983
12827.6
13347.3
14228.6
15306.7
16441.4
17555.3
18621.6
19634.2
20582.5
21458.4
22262.7
22994.5
23672.3
24336.2
25020.4
25757.6
26569.9
27460.8
28415.6
29415.4
30445
31503.9
32607.8
33771.7
35041.2
36435.7
37970.6
39643
41430
43287.5
45148.7
46937.4
48565.6
49930.7
50929.5
51481.9
51493.4
51019
50051.7
48593.7
46748.4
44610.8
42293.7
39926.9
37592.9
35354.7
33248.2
31300.7
29519
27902.9
26433
25097.2
23873.6
22745.8
21690.5
20700.1
19764.8
18882.6
18059.9
17301.1
16616.2
16011
15489.4
15053.9
14691.6
14424.6
14317.4
45329.5
43327.4
41504.1
40019.8
38976.4
38334.2
37937.6
37541.8
36950.1
35946.3
34363
32094.7
29064
25236.5
20944.9
16770.9
13257.1
10938.7
9902.92
9832.92
10419.6
11387
12533.3
13714.7
14862.3
15951.9
16981.1
17941.6
18824
19629.5
20357.4
21026.7
21680.1
22354.5
23083.7
23891.3
24780.3
25736.2
26736.5
27764.8
28819.7
29917
31074.4
32339.7
33734.9
35277.4
36965.4
38776.7
40666.2
42565.6
44396.7
46068.5
47474.9
48508
49083.7
49101.8
48615.6
47627.6
46132.6
44242
42055
39688.5
37279.6
34911.7
32648.6
30525.1
28567.3
26782.4
25166.8
23701.5
22374.2
21158.2
20036
18983.4
17998.4
17065.6
16183.7
15359.8
14598.4
13909.9
13302.5
12778
12339
11966.7
11700
11521.8
42746.2
40675.7
38797.6
37295.3
36261.7
35658
35318.3
34982.4
34444.6
33474.1
31899.3
29606.6
26512
22557.5
18086.2
13761.2
10158.4
7816.63
6781.22
6789.55
7490.13
8542.19
9755.6
10986.6
12169.1
13283.1
14329.3
15301.7
16190.4
16997.4
17721.2
18381.6
19023.7
19687.4
20408.9
21211.9
22099.9
23056.3
24056.3
25083.7
26134.6
27224.5
28375.1
29635.3
31030.9
32581
34284.8
36120.8
38043.4
39982.4
41857.5
43574.7
45024
46093.2
46693.4
46719.8
46219.9
45210.4
43677.1
41739.2
39500.9
37083.3
34630.9
32228.3
29939.3
27798
25829.6
24040.9
22427.8
20970.3
19649.8
18439.9
17323
16277.9
15297.7
14367.6
13486
12661.7
11898.7
11208.9
10599.5
10071.8
9629.12
9247.18
8980.19
8846.39
40157.1
38018.9
36083.6
34562
33539.8
32977.4
32698.3
32425.8
31944.1
31011.5
29446.9
27132.9
23966.7
19875.5
15238.1
10751.9
7030.04
4711.63
3709.59
3810.27
4566.3
5691.02
6973.45
8256.02
9475.57
10614
11677.4
12662.6
13558.1
14366.3
15085.6
15736.5
16366.8
17019.2
17731.8
18530.2
19418.8
20376.4
21376.5
22401.8
23448.7
24530.6
25673.8
26928.3
28323.8
29881.1
31600.9
33462.3
35418.8
37398.7
39319.3
41083.8
42577.9
43685
44310.9
44348.2
43832.4
42801.3
41228.1
39240.6
36948.6
34478
31980.4
29541.9
27226.1
25066.5
23088
21296.1
19687.4
18236.4
16919.9
15718.4
14609.8
13571.9
12596.6
11669
10787.2
9960.68
9193.93
8498.86
7885.57
7356.39
6910.61
6524.79
6245.45
6029.65
37570.2
35359.8
33363.3
31819.7
30809.8
30291.5
30077
29872.2
29451.1
28555.5
27005.3
24668.6
21427
17212.8
12390.3
7680.98
3918.44
1764.07
1158.98
1237.65
1841.15
2922.12
4196.86
5525.47
6782.71
7946.55
9027.26
10025
10926.9
11736.4
12451.1
13091.9
13709.7
14350.2
15053.3
15846.9
16735.2
17694.6
18696.6
19719.2
20761.9
21834.9
22970.4
24218.5
25613.3
27177.7
28913.7
30801.1
32792.7
34814.8
36782.6
38595.9
40136.7
41283.2
41936.2
41983.7
41450.4
40398
38783.1
36744.2
34396.8
31871.5
29327.6
26852.1
24509
22331.4
20343.1
18548.4
16946.4
15496.1
14188.8
12996.2
11896.1
10864.9
9894.27
8969.51
8087.55
7260.09
6492.14
5797.27
5186.24
4658.14
4213.03
3820.42
3535.22
3387.71
34979.7
32688
30633.9
29067.1
28071.8
27600.4
27454.6
27321.1
26963.4
26113.8
24579.1
22214.5
18892.9
14547.7
9458.44
4601.9
1318.03
288.357
161.091
173.91
346.085
819.597
1672.41
2862.65
4090.7
5277.79
6376.61
7387.85
8296.28
9107.25
9817.28
10447.4
11052.1
11680.1
12373.3
13162
14050.2
15011.6
16014.9
17037
18074.7
19137.8
20265.1
21506
22899.5
24470.6
26222.8
28136.8
30164.3
32230.1
34246.7
36111.1
37700.3
38888.1
39569.6
39630.2
39075.9
38001.8
36343.6
34251.6
31847.1
29264.2
26672
24158.5
21788.3
19592.8
17594.3
15798.9
14200.7
12753.2
11456.3
10272.4
9180.47
8158.14
7193.13
6273.4
5394.46
4569.34
3803.64
3122.78
2541.52
2068.71
1706.58
1421.25
1212.63
1090.29
32381.3
30009.4
27900.4
26303.9
25324.4
24903
24830.1
24773.9
24484.3
23674.6
22143.6
19751.8
16368.7
11844.8
6539.1
1916.17
183.23
50.4746
47.5597
44.9587
49.8383
94.5526
304.265
848.338
1663.9
2692.06
3732.24
4751.26
5666.89
6479.15
7184.09
7803.02
8393.95
9008.94
9691.78
10475.3
11363.7
12327.9
13333
14354
15385.7
16440.7
17558.1
18791
20182.5
21760.1
23528.5
25469.5
27533.9
29644.6
31711.6
33628.8
35268.6
36499.7
37210.9
37287.3
36708.4
35613.6
33910
31762.3
29297.5
26654
24012.3
21461
19063.6
16850.1
14842.8
13048.8
11448
10009
8721.81
7549.74
6469.05
5458.42
4501.28
3595.99
2750.96
2015.77
1445.17
1003.36
671.07
442.923
306.511
221.044
161.894
140.786
29696
27233.1
25059.3
23431.6
22470.9
22104.5
22109.6
22138.9
21923.7
21159.1
19652.1
17247
13769.3
9048.45
3650.01
348.56
42.9513
45.5159
41.2419
37.3583
36.3717
35.6318
42.3686
95.6533
313.442
775.89
1385.84
2192.36
3001.76
3767.86
4459.82
5065.86
5641.98
6242.95
6914.59
7693
8581.21
9548.75
10556.6
11576.1
12601.4
13647.4
14753.9
15977.7
17366.4
18950.3
20735.5
22705
24808.5
26967.1
29088.2
31062.2
32756.2
34034
34777.4
34872.5
34263.8
33148.3
31395.3
29187
26657.1
23949.6
21256.1
18665.3
16239.5
14007.9
11993.8
10195.6
8598.19
7171.37
5896.63
4741.02
3685.21
2730.75
1914.84
1290.18
781.612
422.296
236.831
129.798
67.1153
39.2989
33.6081
32.4564
31.9386
32.9541
26908
24356.3
22103.6
20448.2
19506.9
19201.5
19297
19419.6
19282.1
18574.6
17091.7
14649.5
11070.1
6238.08
1285.61
47.8846
38.0097
40.2568
36.7962
33.6519
31.8699
29.9752
28.5527
28.1646
34.6586
70.9112
196.501
507.881
902.777
1361.21
1875.42
2372.64
2866.44
3405.64
4042.75
4816.08
5704.64
6674.05
7685.7
8703.95
9722.55
10758.6
11852.8
13066.1
14450.9
16040.9
17843.3
19842.6
21987.5
24197.1
26375.9
28411
30163.5
31492.1
32270.3
32389.2
31742.9
30607.3
28800.5
26527
23927.9
21151.6
18403.1
15770
13314.8
11065.2
9044.07
7248.19
5657.05
4247.71
3029.38
2015.41
1279.49
719.414
350.753
177.721
71.2624
26.1597
23.3376
22.3053
22.1991
22.6531
22.9471
23.3511
23.965
24.5281
24120.5
21459.9
19128.5
17448.2
16532.8
16292.8
16477.8
16699.7
16653.3
16001.6
14543.2
12080.2
8401.58
3488.46
201.551
30.7768
34.5833
35.7347
32.7269
29.8058
28.4411
26.4379
24.4554
22.6484
21.6913
21.8027
24.9653
39.6745
84.0863
186.515
368.865
579.341
808.802
1095.52
1506.5
2123.4
2896.58
3803.5
4812.61
5830.61
6842.84
7868.93
8950.61
10153
11532.9
13128.1
14947.2
16976.5
19163.6
21425.5
23664
25762.3
27575.7
28957.5
29771.9
29920.3
29228.5
28074.8
26212
23870.2
21199
18350.2
15545.1
12870.1
10386.7
8120.78
6095.78
4311.02
2783.99
1637.99
869.451
381.495
173.484
59.0133
18.9546
19.2287
17.546
18.1594
18.9252
18.4851
18.5533
19.0718
19.1738
19.5766
20.3915
20.6807
21332.6
18551.6
16145.1
14430.6
13539.3
13368.7
13659.3
13989.5
14030.1
13441.6
12011.9
9533.61
5751.38
1305.16
32.1785
27.5748
30.4611
31.0762
28.8805
26.1644
24.5272
22.782
21.009
19.1843
17.6686
16.5212
15.4576
15.2586
16.1235
19.2323
26.6675
40.478
65.0691
113.558
220.154
451.411
806.504
1337.29
2121.45
3011.62
3961.29
4976.17
6045.15
7236.48
8612.21
10212.9
12048.1
14107
16336.6
18652
20951.9
23115.7
24992.4
26429.9
27281.5
27466.4
26719.1
25549.7
23628.6
21215
18468.4
15544.4
12682.8
9966.97
7457.56
5181.56
3185.99
1669.33
726.049
257.607
82.9027
17.2682
15.2639
13.4837
14.4687
15.2894
14.0859
14.8381
15.4245
14.995
15.0064
15.3932
15.7531
16.1989
16.8212
17.1764
18516.7
15640
13143.5
11399.3
10541
10446.8
10830.8
11273.7
11417.5
10898.8
9490.47
6983.71
3192.28
184.825
14.7711
24.2751
26.246
26.7211
25.0068
22.4697
21.07
19.1823
17.3437
15.6863
14.2554
13.0466
11.759
10.8552
10.1087
9.72259
9.91532
10.346
11.0141
12.275
15.9472
26.7959
60.1619
166.933
452.085
870.152
1446.73
2248.13
3182.55
4314.28
5684.99
7292.27
9146.33
11235
13506.7
15876.4
18239.3
20470.6
22412.8
23908.5
24798.2
25006.3
24235.1
23030.4
21049.4
18560.4
15735.6
12734.4
9816.72
7063.08
4537.95
2354.76
942.353
261.75
54.8695
11.7646
11.726
11.2088
11.4977
10.1531
11.036
11.7115
10.7174
11.2159
11.6931
11.5086
11.6776
12.0415
12.2471
12.641
13.3175
13.6489
15719.3
12722.5
10124.9
8333.65
7506.08
7489.56
8001.28
8573.64
8815.81
8354.22
6980.85
4471.99
1104.4
17.4873
11.4427
20.0229
21.9236
22.6429
21.1621
18.7701
17.2311
15.5787
13.8521
12.1983
10.7492
9.5781
8.32488
7.41231
6.6071
6.04282
5.84853
5.71338
5.54695
5.30592
5.39622
5.95083
6.96604
10.4458
23.1434
65.8004
196.125
498.326
945.839
1684.72
2837.44
4361.82
6235.17
8359.74
10674.9
13098.3
15525.4
17826
19835.8
21392.3
22321
22537.4
21777
20515.6
18473.5
15905.6
13000.4
9920.06
6949.68
4173.61
1849.95
510.286
84.9125
7.11805
8.73169
8.08773
8.06897
7.71877
7.90949
6.82183
7.50136
7.95625
7.28914
7.88902
8.26529
8.07235
8.17663
8.55668
8.85544
9.28518
9.79979
10.1173
12911.8
9766.84
7104.13
5278.13
4489.79
4566.97
5165.8
5863.79
6217.74
5837.68
4501.46
2091.46
135.029
-0.0388649
8.3343
15.8591
17.6704
18.5718
17.2557
15.0762
13.6881
11.9633
10.2829
8.70957
7.2979
6.1225
4.91191
4.00979
3.21692
2.65443
2.42017
2.237
2.0258
1.72515
1.59265
1.74859
1.72577
1.64038
2.05236
3.29979
7.84785
22.9554
74.8505
266.902
758.009
1720.58
3349.73
5472.49
7839.13
10318.6
12809.3
15181.2
17260.2
18879.9
19849
20076.8
19324.8
18003.1
15899.9
13249.7
10262.4
7103.28
4099.7
1609.31
320.297
15.4463
-0.791102
3.46722
4.95466
4.48409
4.46477
4.20042
4.23064
3.42956
4.10478
4.48251
3.90733
4.33525
4.71819
4.66064
4.80852
5.14087
5.40183
5.73274
6.26034
6.61824
10064.5
6820.86
4051.12
2211.66
1588.82
1682.12
2363.99
3173.46
3631.24
3350.77
2122.28
447.023
-1.68498
-3.81653
4.73465
11.7673
13.5118
14.5284
13.3771
11.3595
9.94804
8.3706
6.73666
5.21013
3.82779
2.66684
1.49496
0.601286
-0.179039
-0.731944
-0.992334
-1.19196
-1.4062
-1.67134
-1.77719
-1.70312
-1.839
-2.12046
-2.1916
-2.40581
-2.31711
-1.73763
0.210366
7.53365
44.4354
276.426
1046.65
2679.56
4990.85
7536.09
10090.5
12534.4
14684.7
16369.8
17380
17622.6
16879.7
15490.1
13325.8
10591.6
7522.81
4300.78
1582
251.205
5.30113
-2.70758
-3.95185
-0.26586
1.17131
0.829479
0.813347
0.777795
0.742965
0.0551208
0.587546
0.942202
0.543053
0.957278
1.23233
1.2208
1.35226
1.67179
1.94221
2.32753
2.77152
3.07738
7261.02
3848.55
1375.64
399.117
175.83
184.169
492.401
1027.94
1393.17
1249.46
497.437
18.998
-6.08043
-6.42561
1.08684
7.67872
9.44448
10.4899
9.49387
7.65165
6.28756
4.7556
3.18346
1.71521
0.357456
-0.790813
-1.92489
-2.80975
-3.57782
-4.12344
-4.40651
-4.62316
-4.84445
-5.1056
-5.21467
-5.16628
-5.27866
-5.51981
-5.67313
-6.02703
-6.15886
-6.17183
-6.07107
-5.77735
-4.76611
3.44264
87.3968
700.599
2295.41
4741.55
7372.01
9881.4
12107.6
13861
14913
15170.9
14442.8
12975
10749.9
7930.5
4794.53
1760.8
233.744
-3.41377
1.18912
-5.85604
-7.22942
-3.95493
-2.63012
-2.64095
-2.73599
-2.7664
-2.78177
-3.29421
-2.86765
-2.57817
-2.89105
-2.51553
-2.2349
-2.21769
-2.07826
-1.77232
-1.52511
-1.21164
-0.763187
-0.423914
4391.33
1330.04
197.768
18.6228
3.48344
1.76538
3.4358
77.536
184.81
160.03
12.4696
-0.213817
-8.64636
-8.8193
-2.52112
3.67186
5.45122
6.46996
5.62502
3.92532
2.61552
1.14667
-0.380057
-1.79643
-3.11874
-4.25038
-5.34962
-6.22131
-6.97501
-7.51406
-7.81559
-8.04506
-8.26968
-8.51739
-8.63326
-8.62501
-8.75852
-8.98244
-9.14046
-9.4406
-9.60119
-9.71056
-9.82404
-9.8863
-10.1749
-10.6217
-7.91614
31.6799
532.09
2127.09
4642.32
7233.95
9518.69
11352.7
12445.7
12721.8
12018.2
10458.3
8166.32
5270.91
2235.46
283.987
-22.5865
-8.21599
-3.61724
-9.12918
-10.4945
-7.58633
-6.31312
-6.22138
-6.24757
-6.2529
-6.29074
-6.69524
-6.33239
-6.06574
-6.2872
-5.96806
-5.72218
-5.68249
-5.54164
-5.25934
-4.99807
-4.65786
-4.25873
-3.95316
1818.03
203.94
18.3479
14.0501
0.201222
-2.16746
-6.80019
-10.696
-12.0282
-12.2454
-8.37234
-4.78335
-11.457
-11.4447
-6.06586
-0.31553
1.52813
2.46148
1.7633
0.2082
-1.05473
-2.46314
-3.9339
-5.30496
-6.59804
-7.71109
-8.77847
-9.63798
-10.3789
-10.9125
-11.2302
-11.4729
-11.7016
-11.9403
-12.0577
-12.0772
-12.213
-12.4322
-12.6092
-12.9088
-13.0649
-13.1716
-13.2649
-13.415
-13.9862
-14.7833
-14.9495
-15.2096
9.18234
470.437
2088.97
4581.85
6932.99
8829
9977.88
10268.4
9603.25
7937.14
5567.81
2734.46
552.702
-16.5601
-25.5965
-12.7863
-8.21994
-12.4641
-13.6967
-11.2035
-9.94228
-9.7667
-9.778
-9.75652
-9.78466
-10.1004
-9.79368
-9.5713
-9.72354
-9.43353
-9.20749
-9.13837
-8.99089
-8.71931
-8.47071
-8.16447
-7.77296
-7.46977
528.87
15.7388
12.6659
8.95831
-3.06831
-5.69495
-10.1801
-14.1893
-15.1965
-15.5086
-11.77
-9.13428
-14.3545
-14.1616
-9.52315
-4.26144
-2.39058
-1.51188
-2.08735
-3.51645
-4.72319
-6.08066
-7.49645
-8.82384
-10.0782
-11.1725
-12.211
-13.0569
-13.7846
-14.3137
-14.644
-14.8993
-15.1327
-15.3666
-15.4892
-15.5357
-15.6744
-15.885
-16.0709
-16.3647
-16.529
-16.6573
-16.7669
-16.9572
-17.4435
-18.2911
-19.1189
-20.694
-22.7507
-1.88551
473.067
2086.42
4388.25
6272.96
7494.26
7821.19
7197
5387.28
3088.33
840.108
16.2516
-26.2352
-27.7946
-16.8329
-12.6689
-15.8503
-16.9174
-14.7604
-13.5571
-13.3173
-13.2925
-13.2511
-13.2817
-13.5302
-13.2668
-13.0718
-13.1661
-12.9027
-12.6936
-12.6112
-12.4642
-12.1954
-11.9582
-11.6374
-11.2793
-10.987
76.583
10.6115
8.28987
4.48614
-6.62049
-9.4533
-13.5684
-17.0837
-18.2616
-18.6259
-15.3292
-13.19
-17.3145
-16.9898
-13.0051
-8.17204
-6.29167
-5.46431
-5.92546
-7.23137
-8.38722
-9.68338
-11.0567
-12.3396
-13.5649
-14.6378
-15.6461
-16.4779
-17.1939
-17.7194
-18.0608
-18.3267
-18.5643
-18.7946
-18.9224
-18.9924
-19.1356
-19.3425
-19.5358
-19.8217
-19.9926
-20.1386
-20.2749
-20.5035
-20.9939
-21.8379
-22.676
-24.5224
-27.6781
-30.8837
-8.46687
484.921
1975.1
3746.9
5010.39
5328.13
4765.07
2972.33
1080.61
55.0762
-23.7176
-29.5027
-30.147
-20.8272
-16.9583
-19.2654
-20.1532
-18.3044
-17.1543
-16.86
-16.8174
-16.7631
-16.7866
-16.9715
-16.7426
-16.5682
-16.6149
-16.374
-16.1784
-16.0771
-15.9186
-15.6618
-15.4337
-15.1246
-14.7841
-14.4933
7.44571
6.16374
3.29963
-0.168352
-10.146
-13.066
-16.99
-20.4228
-21.4269
-21.8202
-18.7809
-17.156
-20.3367
-19.9528
-16.487
-12.0456
-10.1709
-9.38529
-9.75509
-10.9498
-12.0539
-13.2984
-14.6232
-15.8598
-17.0567
-18.1035
-19.0847
-19.9042
-20.6059
-21.1279
-21.4791
-21.7545
-21.9964
-22.2247
-22.3584
-22.4486
-22.5961
-22.801
-23.0008
-23.2813
-23.46
-23.6238
-23.7812
-24.0444
-24.5504
-25.4026
-26.2964
-28.1674
-31.3167
-35.5588
-39.9702
-16.3629
438.966
1575.61
2612.94
2847.97
2418.3
1057.79
92.1381
-41.5151
-28.0927
-32.9379
-32.8223
-24.7392
-21.1173
-22.7204
-23.4467
-21.8198
-20.7433
-20.4191
-20.3508
-20.2779
-20.2916
-20.4225
-20.2208
-20.0617
-20.0699
-19.848
-19.6622
-19.5466
-19.3875
-19.1375
-18.911
-18.6135
-18.2871
-18.0072
1.14798
0.614913
-1.80024
-4.75204
-13.7799
-16.7801
-20.4189
-23.5833
-24.5871
-25.0152
-22.2579
-21.0281
-23.4361
-22.9862
-19.9621
-15.8866
-14.0345
-13.2875
-13.5756
-14.6654
-15.717
-16.906
-18.1813
-19.3875
-20.5429
-21.5746
-22.5322
-23.3343
-24.0227
-24.5405
-24.8997
-25.183
-25.4287
-25.6564
-25.7965
-25.9042
-26.0563
-26.2606
-26.466
-26.7425
-26.9299
-27.1123
-27.2919
-27.5887
-28.1064
-28.9714
-29.94
-31.8218
-34.8733
-39.2602
-44.6508
-50.5901
-30.7014
258.076
827.927
977.901
666.451
84.083
-58.9389
-44.8343
-32.89
-36.4791
-35.6382
-28.5845
-25.1922
-26.2287
-26.7606
-25.3417
-24.3433
-23.9843
-23.8856
-23.7951
-23.7953
-23.8815
-23.7007
-23.5518
-23.5297
-23.3213
-23.1423
-23.0146
-22.8501
-22.609
-22.3875
-22.1034
-21.7878
-21.5197
-4.09062
-4.4048
-6.7308
-9.32342
-17.4377
-20.4303
-23.874
-26.8707
-27.8088
-28.2345
-25.7259
-24.8264
-26.6006
-26.0936
-23.4381
-19.698
-17.8783
-17.1637
-17.3831
-18.3765
-19.3774
-20.5147
-21.746
-22.9064
-24.0318
-25.0448
-25.9773
-26.764
-27.4427
-27.9564
-28.3219
-28.6122
-28.8615
-29.0893
-29.236
-29.359
-29.5156
-29.7204
-29.931
-30.2047
-30.4017
-30.6023
-30.8045
-31.1338
-31.6662
-32.5465
-33.5688
-35.4768
-38.4825
-42.7451
-48.1209
-55.3726
-62.1202
-53.5845
14.9811
61.1726
-5.71337
-69.3683
-62.3331
-48.7217
-37.4852
-40.033
-38.559
-32.3992
-29.1831
-29.7402
-30.131
-28.8817
-27.9369
-27.5502
-27.4204
-27.313
-27.2978
-27.3456
-27.1801
-27.0383
-26.992
-26.7934
-26.6192
-26.4839
-26.317
-26.0872
-25.8653
-25.593
-25.287
-25.0311
-10.348
-9.79077
-11.6367
-13.8532
-21.1632
-24.1341
-27.3421
-30.1354
-31.0484
-31.488
-29.1939
-28.5653
-29.8197
-29.2676
-26.9142
-23.4837
-21.7068
-21.0231
-21.1831
-22.0883
-23.0395
-24.1266
-25.3093
-26.4366
-27.5309
-28.5165
-29.4251
-30.198
-30.8644
-31.3742
-31.7453
-32.0424
-32.2948
-32.5235
-32.6767
-32.8133
-32.9747
-33.1805
-33.3953
-33.6673
-33.8744
-34.0924
-34.3176
-34.6768
-35.2271
-36.1252
-37.1927
-39.1171
-42.0717
-46.2521
-51.4983
-58.5602
-66.1035
-71.6506
-74.965
-76.708
-76.6445
-75.4547
-65.3573
-52.3091
-41.9628
-43.5086
-41.6501
-36.1367
-33.0817
-33.2922
-33.5515
-32.4224
-31.5231
-31.1139
-30.9539
-30.83
-30.798
-30.8137
-30.6586
-30.5222
-30.4535
-30.266
-30.0946
-29.9555
-29.7843
-29.5607
-29.3439
-29.0811
-28.7866
-28.543
-16.5546
-15.0195
-16.4738
-18.3628
-24.9049
-27.8064
-30.8273
-33.448
-34.3208
-34.754
-32.6696
-32.2484
-33.084
-32.4926
-30.3921
-27.246
-25.5177
-24.8606
-24.9695
-25.7914
-26.6944
-27.7361
-28.8736
-29.9643
-31.0259
-31.9924
-32.879
-33.6343
-34.2896
-34.7951
-35.1708
-35.4736
-35.7287
-35.9588
-36.1182
-36.2668
-36.4333
-36.6412
-36.8601
-37.1304
-37.3474
-37.5818
-37.8298
-38.2176
-38.7872
-39.7004
-40.8135
-42.7522
-45.649
-49.7484
-54.8708
-61.6953
-68.9395
-74.3398
-77.8892
-79.9078
-79.3689
-77.6884
-67.9812
-55.7883
-46.2411
-46.9618
-44.8133
-39.8294
-36.941
-36.8757
-36.9964
-35.9607
-35.1014
-34.6726
-34.4848
-34.3456
-34.2962
-34.2842
-34.1372
-34.0028
-33.9167
-33.7397
-33.5717
-33.4263
-33.2543
-33.0372
-32.8223
-32.5746
-32.287
-32.0523
-22.4584
-20.1505
-21.2486
-22.8282
-28.6954
-31.5099
-34.3283
-36.7756
-37.6182
-38.0404
-36.1531
-35.8852
-36.3871
-35.7634
-33.8737
-30.9878
-29.3141
-28.6835
-28.7479
-29.4955
-30.3508
-31.3461
-32.4395
-33.493
-34.523
-35.4661
-36.3313
-37.0734
-37.7176
-38.2184
-38.5976
-38.9054
-39.1627
-39.3948
-39.5605
-39.7193
-39.8902
-40.1011
-40.3241
-40.5946
-40.8212
-41.0713
-41.34
-41.7548
-42.3469
-43.2732
-44.4221
-46.3763
-49.2175
-53.2081
-58.2334
-64.7195
-71.5743
-76.9159
-80.4405
-82.0812
-81.9096
-79.4728
-70.4932
-59.2142
-50.3545
-50.3951
-48.0391
-43.5073
-40.7633
-40.4693
-40.4576
-39.497
-38.6711
-38.2259
-38.0127
-37.8589
-37.7925
-37.7566
-37.6151
-37.4808
-37.3838
-37.2128
-37.0484
-36.8967
-36.7255
-36.5167
-36.2992
-36.0642
-35.787
-35.5608
-28.1299
-25.2447
-25.9705
-27.2695
-32.4945
-35.198
-37.8392
-40.1285
-40.9383
-41.3405
-39.6436
-39.4833
-39.7227
-39.0725
-37.3594
-34.7113
-33.0945
-32.4886
-32.5127
-33.1902
-33.9998
-34.9523
-36.0002
-37.025
-38.0255
-38.945
-39.7875
-40.5162
-41.1476
-41.6441
-42.0261
-42.3379
-42.5972
-42.8314
-43.0027
-43.1708
-43.3461
-43.5602
-43.7869
-44.0581
-44.2941
-44.5605
-44.8502
-45.2867
-45.9015
-46.8444
-48.0168
-49.9722
-52.785
-56.6396
-61.5224
-67.7727
-74.2312
-79.2955
-82.7836
-84.3352
-83.9259
-81.3597
-73.0248
-62.4961
-54.3893
-53.8047
-51.3274
-47.1706
-44.5481
-44.0662
-43.9293
-43.0296
-42.2315
-41.7736
-41.5373
-41.3693
-41.2866
-41.2309
-41.0928
-40.9591
-40.8521
-40.6854
-40.5229
-40.37
-40.1987
-39.9963
-39.777
-39.5587
-39.2869
-39.0688
-33.6761
-30.2537
-30.6336
-31.6686
-36.3262
-38.9038
-41.3657
-43.5007
-44.2797
-44.6547
-43.1412
-43.0502
-43.0853
-42.4146
-40.8501
-38.4184
-36.8621
-36.2787
-36.2697
-36.8862
-37.6531
-38.5605
-39.5684
-40.5539
-41.5223
-42.4218
-43.2445
-43.9601
-44.581
-45.0719
-45.4559
-45.7713
-46.0325
-46.2689
-46.4457
-46.6221
-46.8018
-47.019
-47.2485
-47.521
-47.767
-48.0477
-48.3569
-48.818
-49.4488
-50.4073
-51.6204
-53.559
-56.3197
-60.0728
-64.7974
-70.7835
-76.8652
-81.7467
-85.0621
-86.5358
-86.0055
-83.3742
-75.5292
-65.8328
-58.3775
-57.1961
-54.6497
-50.8119
-48.2997
-47.6617
-47.4093
-46.5547
-45.7836
-45.3152
-45.0585
-44.8778
-44.78
-44.7073
-44.5706
-44.4363
-44.3211
-44.1587
-43.9971
-43.8444
-43.6724
-43.4749
-43.2572
-43.0437
-42.7863
-42.5764
-39.0575
-35.194
-35.2456
-36.04
-40.1621
-42.6032
-44.8999
-46.8918
-47.6389
-47.9826
-46.6439
-46.5925
-46.47
-45.7848
-44.3456
-42.111
-40.6155
-40.0534
-40.0159
-40.5726