/*--------------------------------*- C++ -*----------------------------------*\
| =========                 |                                                 |
| \\      /  F ield         | OpenFOAM: The Open Source CFD Toolbox           |
|  \\    /   O peration     | Version:  v1912                                 |
|   \\  /    A nd           | Website:  www.openfoam.com                      |
|    \\/     M anipulation  |                                                 |
\*---------------------------------------------------------------------------*/
FoamFile
{
    version     2.0;
    format      ascii;
    class       volScalarField;
    location    "100";
    object      p_rgh;
}
// * * * * * * * * * * * * * * * * * * * * * * * * * * * * * * * * * * * * * //

dimensions      [1 -1 -2 0 0 0 0];


internalField   uniform 0;

boundaryField
{
    atmosphere
    {
        type            totalPressure;
        rho             rho;
        psi             none;
        gamma           1;
        p0              uniform 0;
        value           nonuniform List<scalar> 
164
(
-0.00255332
-0.00376825
-0.00514816
-0.00667409
-0.0083111
-0.010051
-0.0118596
-0.0137393
-0.0156671
-0.0176557
-0.0196608
-0.0217029
-0.0237504
-0.0258235
-0.0279024
-0.0299917
-0.0320956
-0.0341889
-0.036302
-0.0383831
-0.0404696
-0.0425036
-0.044498
-0.0464144
-0.0482194
-0.0498986
-0.0513728
-0.0526378
-0.0535928
-0.0542155
-0.0544236
-0.0541555
-0.053374
-0.0520027
-0.0500433
-0.0474517
-0.0442666
-0.040512
-0.0362729
-0.0316472
-0.0267748
-0.0218165
-0.0169632
-0.0123992
-0.0083316
-0.00492893
-0.00234874
-0.00069313
-1.69388e-05
0
0
0
0
0
0
0
0
0
0
0
0
0
0
0
0
0
0
0
0
0
0
0
0
0
-1.73137e-05
-0.0004127
-0.00127917
-0.00265739
-0.00443839
-0.00668002
-0.00925643
-0.0122051
-0.0154289
-0.0189208
-0.0226286
-0.0264929
-0.0305155
-0.0345684
-0.0387184
-0.0427532
-0.0467945
-0.0505627
-0.0541966
-0.0573916
-0.0602545
-0.0625012
-0.064164
-0.0650121
-0.0650058
-0.0639862
-0.0618846
-0.058643
-0.0542598
-0.0487957
-0.0423908
-0.0352751
-0.0277662
-0.0202717
-0.0132672
-0.00727225
-0.00280878
-0.000350478
0
0
0
0
0
0
0
0
0
0
0
0
0
0
0
0
0
0
0
0
0
0
0
0
0
0
0
0
0
0
0
0
0
0
0
0
0
0
0
0
-7.16034e-06
-0.000103003
-0.000243364
-0.000373102
-0.000413739
-0.000383019
-0.000252651
-0.000103552
-2.11111e-06
0
0
0
)
;
    }
    inlet
    {
        type            waveSurfacePressure;
        value           nonuniform 0();
    }
    outlet
    {
        type            zeroGradient;
    }
    bottom
    {
        type            zeroGradient;
    }
    frontBack
    {
        type            empty;
    }
    procBoundary3to2
    {
        type            processor;
        value           uniform 0;
    }
    procBoundary3to4
    {
        type            processor;
        value           uniform 0;
    }
}


// ************************************************************************* //
