/*--------------------------------*- C++ -*----------------------------------*\
| =========                 |                                                 |
| \\      /  F ield         | OpenFOAM: The Open Source CFD Toolbox           |
|  \\    /   O peration     | Version:  v1912                                 |
|   \\  /    A nd           | Website:  www.openfoam.com                      |
|    \\/     M anipulation  |                                                 |
\*---------------------------------------------------------------------------*/
FoamFile
{
    version     2.0;
    format      ascii;
    class       volScalarField;
    location    "20";
    object      k;
}
// * * * * * * * * * * * * * * * * * * * * * * * * * * * * * * * * * * * * * //

dimensions      [0 2 -2 0 0 0 0];


internalField   nonuniform List<scalar> 
14268
(
1.38366e-08
1.59437e-08
1.59257e-08
1.42023e-08
1.27962e-08
1.16183e-08
1.05094e-08
9.85632e-09
1.62572e-07
1.66332e-07
1.68069e-07
1.64558e-07
1.57071e-07
1.46242e-07
1.31725e-07
1.21302e-07
2.11545e-07
2.12449e-07
2.12883e-07
2.11938e-07
2.10027e-07
2.07211e-07
2.02585e-07
1.98458e-07
2.17095e-07
2.17427e-07
2.17523e-07
2.17245e-07
2.16828e-07
2.16524e-07
2.16503e-07
2.16654e-07
2.17852e-07
2.18039e-07
2.18128e-07
2.17965e-07
2.17867e-07
2.18253e-07
2.19211e-07
2.20512e-07
2.17562e-07
2.17809e-07
2.17876e-07
2.17744e-07
2.17677e-07
2.18001e-07
2.19266e-07
2.20845e-07
2.17869e-07
2.18041e-07
2.18125e-07
2.17954e-07
2.17878e-07
2.18277e-07
2.19465e-07
2.21148e-07
2.1756e-07
2.17818e-07
2.17886e-07
2.1778e-07
2.17724e-07
2.18149e-07
2.19404e-07
2.21014e-07
2.17857e-07
2.1802e-07
2.18115e-07
2.17921e-07
2.17838e-07
2.18229e-07
2.19465e-07
2.21212e-07
2.17569e-07
2.1783e-07
2.17868e-07
2.17791e-07
2.17787e-07
2.18216e-07
2.19399e-07
2.209e-07
2.17832e-07
2.18013e-07
2.18114e-07
2.17898e-07
2.17784e-07
2.18229e-07
2.19515e-07
2.21296e-07
2.17595e-07
2.17765e-07
2.1778e-07
2.17708e-07
2.17786e-07
2.18256e-07
2.19573e-07
2.21003e-07
2.17842e-07
2.18052e-07
2.18045e-07
2.1775e-07
2.17553e-07
2.17913e-07
2.1907e-07
2.20701e-07
2.17546e-07
2.1782e-07
2.17825e-07
2.17839e-07
2.18104e-07
2.18654e-07
2.20087e-07
2.21039e-07
2.17818e-07
2.17847e-07
2.17843e-07
2.1774e-07
2.17911e-07
2.18404e-07
2.22193e-07
2.23616e-07
2.17723e-07
2.17948e-07
2.18071e-07
2.17987e-07
2.17963e-07
2.18461e-07
2.21453e-07
2.2531e-07
2.1769e-07
2.17855e-07
2.17974e-07
2.17901e-07
2.17735e-07
2.17967e-07
2.194e-07
2.23e-07
2.17686e-07
2.17846e-07
2.18035e-07
2.18032e-07
2.18179e-07
2.18714e-07
2.20045e-07
2.22347e-07
2.17628e-07
2.17784e-07
2.17893e-07
2.1782e-07
2.17542e-07
2.1779e-07
2.1894e-07
2.21009e-07
2.17639e-07
2.17882e-07
2.18183e-07
2.18264e-07
2.18536e-07
2.19079e-07
2.20174e-07
2.21658e-07
2.17573e-07
2.17611e-07
2.17801e-07
2.17702e-07
2.17426e-07
2.17668e-07
2.18608e-07
2.20888e-07
2.17743e-07
2.18436e-07
2.18334e-07
2.18086e-07
2.1814e-07
2.18799e-07
2.19951e-07
2.21097e-07
2.30145e-07
2.37592e-07
2.27211e-07
2.19773e-07
2.15378e-07
2.15303e-07
2.1912e-07
2.21003e-07
4.55925e-07
3.67791e-07
3.51111e-07
2.95181e-07
2.45368e-07
1.90854e-07
1.49942e-07
1.37624e-07
8.59449e-08
4.3157e-07
6.31691e-07
5.01241e-07
3.96465e-07
5.23822e-07
7.64454e-07
8.90316e-07
1.44922e-05
1.59717e-05
1.65719e-05
1.75642e-05
1.86594e-05
1.85955e-05
1.82303e-05
1.69284e-05
0.000256986
0.000213526
0.000179225
0.000164243
0.000148166
0.00012502
0.00011095
7.48213e-05
0.15035
0.129102
0.109279
0.0917382
0.0739541
0.0601645
0.0473553
0.0389083
0.322344
0.27397
0.216882
0.158765
0.108168
0.0794397
0.0578622
0.0446704
0.0233862
0.0157285
0.00884851
0.00439702
0.00198691
0.00112779
0.000660007
0.000466101
0.000230519
0.000101815
3.38263e-05
1.25118e-05
9.03769e-06
1.07884e-05
9.55292e-06
1.56697e-05
4.26562e-07
4.44652e-07
5.42069e-07
8.0274e-07
1.11196e-06
1.33582e-06
1.31219e-06
2.30483e-06
2.21587e-07
2.25999e-07
2.33803e-07
2.58791e-07
2.92749e-07
3.19771e-07
3.12029e-07
4.30625e-07
2.12988e-07
2.14153e-07
2.15399e-07
2.18683e-07
2.22457e-07
2.26011e-07
2.25338e-07
2.36276e-07
2.09444e-07
2.09601e-07
2.09119e-07
2.09354e-07
2.09493e-07
2.08299e-07
2.11126e-07
2.11904e-07
2.15547e-07
2.1608e-07
2.16435e-07
2.17392e-07
2.1771e-07
2.17978e-07
2.17792e-07
2.18152e-07
2.11216e-07
2.11322e-07
2.10973e-07
2.11267e-07
2.11518e-07
2.10067e-07
2.11663e-07
2.11928e-07
2.16788e-07
2.17312e-07
2.17576e-07
2.18303e-07
2.18348e-07
2.18439e-07
2.18208e-07
2.18705e-07
2.12576e-07
2.12627e-07
2.12339e-07
2.12361e-07
2.12604e-07
2.11763e-07
2.1292e-07
2.13359e-07
2.17554e-07
2.1801e-07
2.18188e-07
2.18803e-07
2.18602e-07
2.18709e-07
2.1852e-07
2.19018e-07
2.13591e-07
2.13602e-07
2.1327e-07
2.13231e-07
2.13407e-07
2.13044e-07
2.13715e-07
2.14376e-07
2.18216e-07
2.18602e-07
2.18631e-07
2.19e-07
2.1871e-07
2.18913e-07
2.18598e-07
2.19281e-07
2.14173e-07
2.14301e-07
2.14128e-07
2.1416e-07
2.14116e-07
2.14102e-07
2.14548e-07
2.15063e-07
2.18722e-07
2.18951e-07
2.18796e-07
2.1904e-07
2.18788e-07
2.19104e-07
2.18874e-07
2.19521e-07
2.14804e-07
2.14959e-07
2.14764e-07
2.14865e-07
2.14778e-07
2.14999e-07
2.15312e-07
2.15767e-07
2.18942e-07
2.19128e-07
2.18956e-07
2.19101e-07
2.18936e-07
2.19217e-07
2.19104e-07
2.19662e-07
2.15325e-07
2.15504e-07
2.1532e-07
2.15507e-07
2.15392e-07
2.15752e-07
2.15871e-07
2.16391e-07
2.19098e-07
2.19291e-07
2.19138e-07
2.19229e-07
2.19098e-07
2.19335e-07
2.19245e-07
2.19756e-07
2.15686e-07
2.15901e-07
2.15754e-07
2.16027e-07
2.15908e-07
2.16336e-07
2.16335e-07
2.1687e-07
2.19112e-07
2.19351e-07
2.19211e-07
2.19327e-07
2.19216e-07
2.19409e-07
2.19377e-07
2.19725e-07
2.15988e-07
2.16208e-07
2.16079e-07
2.16403e-07
2.16264e-07
2.16735e-07
2.16669e-07
2.17184e-07
2.19096e-07
2.19337e-07
2.19169e-07
2.19359e-07
2.19198e-07
2.19479e-07
2.19397e-07
2.19637e-07
2.16249e-07
2.16452e-07
2.16342e-07
2.16684e-07
2.16528e-07
2.17004e-07
2.16898e-07
2.17417e-07
2.19068e-07
2.19292e-07
2.19119e-07
2.19338e-07
2.19161e-07
2.19427e-07
2.19278e-07
2.19488e-07
2.16494e-07
2.16682e-07
2.16592e-07
2.16873e-07
2.16808e-07
2.17201e-07
2.17145e-07
2.17601e-07
2.18998e-07
2.19191e-07
2.19077e-07
2.19258e-07
2.19135e-07
2.19348e-07
2.19184e-07
2.19351e-07
2.16722e-07
2.16902e-07
2.16821e-07
2.17113e-07
2.16993e-07
2.17399e-07
2.17336e-07
2.17748e-07
2.18914e-07
2.19084e-07
2.18985e-07
2.1919e-07
2.19026e-07
2.19233e-07
2.1906e-07
2.19199e-07
2.16875e-07
2.17095e-07
2.17028e-07
2.17283e-07
2.17203e-07
2.17561e-07
2.17502e-07
2.17871e-07
2.18871e-07
2.19009e-07
2.18907e-07
2.19075e-07
2.18928e-07
2.19117e-07
2.18937e-07
2.19067e-07
2.17036e-07
2.17226e-07
2.17172e-07
2.17446e-07
2.17375e-07
2.17708e-07
2.17641e-07
2.17977e-07
2.18808e-07
2.18935e-07
2.18848e-07
2.18985e-07
2.18839e-07
2.19001e-07
2.18829e-07
2.18956e-07
2.17219e-07
2.17382e-07
2.17334e-07
2.1757e-07
2.17511e-07
2.17824e-07
2.17758e-07
2.18066e-07
2.18736e-07
2.18845e-07
2.18769e-07
2.18891e-07
2.18767e-07
2.18898e-07
2.18738e-07
2.18851e-07
2.17413e-07
2.17558e-07
2.17508e-07
2.17716e-07
2.17657e-07
2.17921e-07
2.17861e-07
2.18135e-07
2.18648e-07
2.18761e-07
2.18669e-07
2.18786e-07
2.18675e-07
2.18795e-07
2.18654e-07
2.18753e-07
2.17592e-07
2.17739e-07
2.17684e-07
2.17863e-07
2.17808e-07
2.18032e-07
2.17969e-07
2.182e-07
2.18557e-07
2.18656e-07
2.18576e-07
2.18676e-07
2.18577e-07
2.18683e-07
2.18563e-07
2.18658e-07
2.17774e-07
2.17892e-07
2.17858e-07
2.18006e-07
2.17957e-07
2.18139e-07
2.18079e-07
2.18268e-07
2.18465e-07
2.18547e-07
2.18475e-07
2.18566e-07
2.18475e-07
2.18573e-07
2.18469e-07
2.18559e-07
2.1793e-07
2.18035e-07
2.17998e-07
2.18127e-07
2.18081e-07
2.18233e-07
2.18176e-07
2.1833e-07
2.18381e-07
2.18454e-07
2.18384e-07
2.18467e-07
2.18387e-07
2.18477e-07
2.18386e-07
2.18473e-07
2.18077e-07
2.18169e-07
2.18134e-07
2.18245e-07
2.18203e-07
2.18327e-07
2.18275e-07
2.18395e-07
2.18304e-07
2.18376e-07
2.18317e-07
2.184e-07
2.18333e-07
2.18422e-07
2.18351e-07
2.18442e-07
2.18138e-07
2.1822e-07
2.18184e-07
2.18281e-07
2.1824e-07
2.18343e-07
2.1829e-07
2.18391e-07
2.182e-07
2.18261e-07
2.1821e-07
2.18284e-07
2.18231e-07
2.18317e-07
2.18259e-07
2.1834e-07
2.18194e-07
2.18256e-07
2.18219e-07
2.1829e-07
2.18247e-07
2.18324e-07
2.18272e-07
2.18344e-07
2.18212e-07
2.18264e-07
2.18235e-07
2.18295e-07
2.1826e-07
2.18325e-07
2.18285e-07
2.18345e-07
2.18241e-07
2.18277e-07
2.18258e-07
2.183e-07
2.18277e-07
2.18322e-07
2.18294e-07
2.18337e-07
2.18242e-07
2.18265e-07
2.18257e-07
2.18285e-07
2.18272e-07
2.18301e-07
2.18285e-07
2.18312e-07
2.1824e-07
2.18256e-07
2.18254e-07
2.18272e-07
2.18266e-07
2.18285e-07
2.18275e-07
2.18292e-07
2.18238e-07
2.1825e-07
2.18252e-07
2.18264e-07
2.18263e-07
2.18274e-07
2.1827e-07
2.18279e-07
2.18231e-07
2.18241e-07
2.18244e-07
2.18253e-07
2.18254e-07
2.18261e-07
2.18259e-07
2.18264e-07
2.18242e-07
2.18249e-07
2.18253e-07
2.18259e-07
2.18261e-07
2.18265e-07
2.18264e-07
2.18266e-07
2.18554e-07
2.18535e-07
2.18514e-07
2.18497e-07
2.18478e-07
2.18461e-07
2.18443e-07
2.18427e-07
2.25354e-07
2.24959e-07
2.24579e-07
2.24217e-07
2.23872e-07
2.23545e-07
2.23236e-07
2.22944e-07
3.40766e-07
3.37037e-07
3.33342e-07
3.29689e-07
3.26099e-07
3.22578e-07
3.19146e-07
3.15808e-07
1.02558e-08
1.17018e-08
1.29434e-08
1.38853e-08
1.46833e-08
1.47591e-08
1.47851e-08
1.49038e-08
1.50755e-08
1.51004e-08
1.48379e-08
1.43681e-08
1.38692e-08
1.34266e-08
1.31086e-08
1.29352e-08
1.28613e-08
1.2832e-08
1.28242e-08
1.28169e-08
1.28062e-08
1.27846e-08
1.27522e-08
1.27173e-08
1.26955e-08
1.26846e-08
1.26818e-08
1.26831e-08
1.26842e-08
1.26769e-08
1.26593e-08
1.26406e-08
1.26245e-08
1.26104e-08
1.26032e-08
1.26041e-08
1.26064e-08
1.26042e-08
1.25969e-08
1.2588e-08
1.25804e-08
1.25764e-08
1.25755e-08
1.25779e-08
1.25836e-08
1.25905e-08
1.25974e-08
1.2602e-08
1.2604e-08
1.26012e-08
1.25959e-08
1.25859e-08
1.25707e-08
1.25536e-08
1.25374e-08
1.25247e-08
1.25136e-08
1.25027e-08
1.24953e-08
1.24938e-08
1.24963e-08
1.24999e-08
1.25041e-08
1.25093e-08
1.25155e-08
1.2521e-08
1.25272e-08
1.25329e-08
1.25397e-08
1.25514e-08
1.2562e-08
1.25724e-08
1.25857e-08
1.26007e-08
1.26167e-08
1.2632e-08
1.26452e-08
1.26596e-08
1.26738e-08
1.26883e-08
1.27073e-08
1.27295e-08
1.27539e-08
1.27809e-08
1.28109e-08
1.2843e-08
1.28795e-08
1.29185e-08
1.29626e-08
1.30127e-08
1.30683e-08
1.31312e-08
1.31989e-08
1.32693e-08
1.33179e-08
1.33019e-08
1.32001e-08
1.30039e-08
1.27449e-08
1.25105e-08
1.24085e-08
1.24135e-08
1.24309e-08
1.24474e-08
1.24589e-08
1.24664e-08
1.2471e-08
1.24738e-08
1.24755e-08
1.24765e-08
1.24771e-08
1.24774e-08
1.24775e-08
1.24774e-08
1.24771e-08
1.24766e-08
1.24758e-08
1.24748e-08
1.24733e-08
1.24714e-08
1.24689e-08
1.24657e-08
1.24617e-08
1.24567e-08
1.24506e-08
1.24434e-08
1.24351e-08
1.24258e-08
1.24156e-08
1.2405e-08
1.23943e-08
1.23841e-08
1.23751e-08
1.2368e-08
1.23633e-08
1.23644e-08
1.23947e-08
1.24594e-08
1.2558e-08
1.26883e-08
1.28465e-08
1.30267e-08
1.32222e-08
1.34255e-08
1.36286e-08
1.38215e-08
1.3995e-08
1.41412e-08
1.42535e-08
1.43262e-08
1.43561e-08
1.43418e-08
1.42861e-08
1.41961e-08
1.40962e-08
1.40006e-08
1.27263e-07
1.49518e-07
1.64248e-07
1.67038e-07
1.68165e-07
1.68094e-07
1.68135e-07
1.6803e-07
1.6804e-07
1.67748e-07
1.67257e-07
1.66546e-07
1.65918e-07
1.6537e-07
1.6502e-07
1.64814e-07
1.64741e-07
1.64694e-07
1.64688e-07
1.64668e-07
1.64655e-07
1.64622e-07
1.64583e-07
1.64533e-07
1.64512e-07
1.64495e-07
1.64485e-07
1.64474e-07
1.64468e-07
1.6445e-07
1.64425e-07
1.64401e-07
1.6438e-07
1.64355e-07
1.64339e-07
1.6433e-07
1.64321e-07
1.64303e-07
1.64283e-07
1.64262e-07
1.64243e-07
1.6423e-07
1.64217e-07
1.64206e-07
1.64205e-07
1.64196e-07
1.64186e-07
1.64165e-07
1.64156e-07
1.64131e-07
1.64106e-07
1.64074e-07
1.64029e-07
1.63986e-07
1.63945e-07
1.6391e-07
1.6387e-07
1.63822e-07
1.63778e-07
1.63751e-07
1.63737e-07
1.63715e-07
1.63694e-07
1.6367e-07
1.63656e-07
1.63632e-07
1.63605e-07
1.63582e-07
1.63556e-07
1.63558e-07
1.63555e-07
1.63547e-07
1.63555e-07
1.63561e-07
1.63567e-07
1.63565e-07
1.63541e-07
1.63537e-07
1.63544e-07
1.63533e-07
1.63529e-07
1.63536e-07
1.63552e-07
1.63581e-07
1.63613e-07
1.63645e-07
1.63681e-07
1.63711e-07
1.63757e-07
1.63818e-07
1.63913e-07
1.64028e-07
1.64133e-07
1.64193e-07
1.64196e-07
1.64142e-07
1.64015e-07
1.63809e-07
1.63553e-07
1.63323e-07
1.63218e-07
1.63318e-07
1.63595e-07
1.63854e-07
1.64036e-07
1.64153e-07
1.64226e-07
1.64271e-07
1.64298e-07
1.64315e-07
1.64324e-07
1.64329e-07
1.6433e-07
1.64329e-07
1.64324e-07
1.64316e-07
1.64304e-07
1.64286e-07
1.64263e-07
1.64232e-07
1.64191e-07
1.64139e-07
1.64073e-07
1.63991e-07
1.63892e-07
1.63775e-07
1.63639e-07
1.63485e-07
1.63317e-07
1.63139e-07
1.62959e-07
1.62785e-07
1.62629e-07
1.625e-07
1.62409e-07
1.62364e-07
1.62356e-07
1.62383e-07
1.62448e-07
1.62548e-07
1.62682e-07
1.62845e-07
1.6303e-07
1.63231e-07
1.63442e-07
1.63653e-07
1.63854e-07
1.64036e-07
1.64193e-07
1.64317e-07
1.64404e-07
1.64452e-07
1.64459e-07
1.64432e-07
1.64374e-07
1.64303e-07
2.00838e-07
2.08041e-07
2.12115e-07
2.12664e-07
2.13079e-07
2.12926e-07
2.12971e-07
2.12844e-07
2.12872e-07
2.12746e-07
2.12649e-07
2.12448e-07
2.12326e-07
2.12184e-07
2.12121e-07
2.12064e-07
2.12059e-07
2.12039e-07
2.12045e-07
2.12032e-07
2.12035e-07
2.12023e-07
2.12018e-07
2.12003e-07
2.12e-07
2.11992e-07
2.11991e-07
2.11988e-07
2.11989e-07
2.11985e-07
2.1198e-07
2.11973e-07
2.11967e-07
2.1196e-07
2.11956e-07
2.11952e-07
2.11949e-07
2.11945e-07
2.1194e-07
2.11935e-07
2.1193e-07
2.11926e-07
2.11922e-07
2.11919e-07
2.11919e-07
2.11917e-07
2.11917e-07
2.11912e-07
2.11908e-07
2.11901e-07
2.11895e-07
2.11888e-07
2.11878e-07
2.11869e-07
2.1186e-07
2.11853e-07
2.11845e-07
2.11834e-07
2.11824e-07
2.11819e-07
2.11816e-07
2.1181e-07
2.11804e-07
2.11799e-07
2.11796e-07
2.11789e-07
2.1178e-07
2.11774e-07
2.11765e-07
2.11767e-07
2.11764e-07
2.11758e-07
2.11759e-07
2.11761e-07
2.1176e-07
2.11757e-07
2.11745e-07
2.11743e-07
2.11744e-07
2.11736e-07
2.11729e-07
2.11727e-07
2.11727e-07
2.1173e-07
2.11734e-07
2.11737e-07
2.11742e-07
2.11743e-07
2.11751e-07
2.1176e-07
2.1178e-07
2.11808e-07
2.11833e-07
2.11843e-07
2.11838e-07
2.11822e-07
2.11794e-07
2.11753e-07
2.117e-07
2.11645e-07
2.11609e-07
2.11627e-07
2.11708e-07
2.11783e-07
2.11833e-07
2.11865e-07
2.11885e-07
2.11897e-07
2.11904e-07
2.11908e-07
2.1191e-07
2.11912e-07
2.11912e-07
2.11911e-07
2.1191e-07
2.11908e-07
2.11905e-07
2.119e-07
2.11894e-07
2.11886e-07
2.11876e-07
2.11862e-07
2.11845e-07
2.11825e-07
2.11799e-07
2.11769e-07
2.11734e-07
2.11695e-07
2.11653e-07
2.11609e-07
2.11565e-07
2.11525e-07
2.1149e-07
2.11465e-07
2.11451e-07
2.11449e-07
2.11454e-07
2.11465e-07
2.11483e-07
2.11507e-07
2.11538e-07
2.11573e-07
2.11612e-07
2.11654e-07
2.117e-07
2.11746e-07
2.1179e-07
2.11831e-07
2.11866e-07
2.11896e-07
2.11917e-07
2.1193e-07
2.11935e-07
2.11932e-07
2.11918e-07
2.11902e-07
2.16656e-07
2.16532e-07
2.17174e-07
2.17229e-07
2.17574e-07
2.17428e-07
2.17506e-07
2.17398e-07
2.17459e-07
2.17396e-07
2.17426e-07
2.1734e-07
2.17341e-07
2.17284e-07
2.17289e-07
2.17264e-07
2.17281e-07
2.17271e-07
2.17287e-07
2.17282e-07
2.17292e-07
2.17286e-07
2.17294e-07
2.17287e-07
2.17291e-07
2.17288e-07
2.1729e-07
2.17289e-07
2.1729e-07
2.17289e-07
2.17292e-07
2.17291e-07
2.17291e-07
2.17291e-07
2.17294e-07
2.17295e-07
2.17296e-07
2.17297e-07
2.17298e-07
2.17298e-07
2.17298e-07
2.17298e-07
2.17299e-07
2.17299e-07
2.17301e-07
2.17299e-07
2.17298e-07
2.17297e-07
2.17302e-07
2.17302e-07
2.17304e-07
2.17304e-07
2.17302e-07
2.17302e-07
2.173e-07
2.17299e-07
2.17297e-07
2.17296e-07
2.17293e-07
2.1729e-07
2.17292e-07
2.17291e-07
2.17293e-07
2.17291e-07
2.1729e-07
2.1729e-07
2.1729e-07
2.17289e-07
2.17289e-07
2.17292e-07
2.17292e-07
2.17291e-07
2.17293e-07
2.17293e-07
2.17295e-07
2.17296e-07
2.17293e-07
2.17295e-07
2.173e-07
2.17296e-07
2.17297e-07
2.17297e-07
2.17299e-07
2.17301e-07
2.17302e-07
2.17304e-07
2.17307e-07
2.17307e-07
2.1731e-07
2.1731e-07
2.17313e-07
2.17319e-07
2.17324e-07
2.17326e-07
2.17325e-07
2.17324e-07
2.17323e-07
2.17321e-07
2.17317e-07
2.17307e-07
2.17296e-07
2.17294e-07
2.17313e-07
2.17327e-07
2.17335e-07
2.1734e-07
2.17343e-07
2.17345e-07
2.17346e-07
2.17347e-07
2.17348e-07
2.17348e-07
2.17348e-07
2.17348e-07
2.17348e-07
2.17348e-07
2.17347e-07
2.17347e-07
2.17346e-07
2.17344e-07
2.17343e-07
2.1734e-07
2.17337e-07
2.17334e-07
2.17329e-07
2.17324e-07
2.17318e-07
2.17311e-07
2.17304e-07
2.17296e-07
2.17289e-07
2.17282e-07
2.17276e-07
2.17272e-07
2.17268e-07
2.17267e-07
2.17266e-07
2.17266e-07
2.17268e-07
2.1727e-07
2.17272e-07
2.17276e-07
2.1728e-07
2.17286e-07
2.17293e-07
2.17302e-07
2.17311e-07
2.17317e-07
2.17326e-07
2.1733e-07
2.17334e-07
2.17334e-07
2.17331e-07
2.17324e-07
2.17319e-07
2.17312e-07
2.19775e-07
2.18003e-07
2.18095e-07
2.18002e-07
2.1827e-07
2.18102e-07
2.18154e-07
2.18028e-07
2.18065e-07
2.1798e-07
2.17968e-07
2.17886e-07
2.17882e-07
2.17833e-07
2.17834e-07
2.17815e-07
2.17825e-07
2.17813e-07
2.17821e-07
2.17811e-07
2.17818e-07
2.17812e-07
2.17815e-07
2.17812e-07
2.17812e-07
2.17808e-07
2.1781e-07
2.1781e-07
2.17813e-07
2.17814e-07
2.17813e-07
2.17812e-07
2.1781e-07
2.17809e-07
2.17807e-07
2.17806e-07
2.17806e-07
2.17806e-07
2.17806e-07
2.17806e-07
2.17805e-07
2.17804e-07
2.17804e-07
2.17803e-07
2.17803e-07
2.17804e-07
2.17806e-07
2.17806e-07
2.17804e-07
2.17802e-07
2.17802e-07
2.17801e-07
2.17801e-07
2.17801e-07
2.17802e-07
2.17803e-07
2.17803e-07
2.17803e-07
2.17803e-07
2.17805e-07
2.17806e-07
2.17805e-07
2.17804e-07
2.17806e-07
2.17807e-07
2.17806e-07
2.17804e-07
2.17804e-07
2.17801e-07
2.17804e-07
2.17803e-07
2.178e-07
2.178e-07
2.17801e-07
2.178e-07
2.17799e-07
2.17794e-07
2.17796e-07
2.17799e-07
2.17795e-07
2.17793e-07
2.17793e-07
2.17792e-07
2.17792e-07
2.17792e-07
2.1779e-07
2.17791e-07
2.17789e-07
2.1779e-07
2.17786e-07
2.17786e-07
2.17786e-07
2.17787e-07
2.17786e-07
2.17784e-07
2.17784e-07
2.17786e-07
2.17791e-07
2.17793e-07
2.17788e-07
2.17779e-07
2.17773e-07
2.1778e-07
2.17783e-07
2.17784e-07
2.17783e-07
2.17783e-07
2.17782e-07
2.17782e-07
2.17782e-07
2.17782e-07
2.17781e-07
2.17781e-07
2.17781e-07
2.17781e-07
2.17781e-07
2.17781e-07
2.17781e-07
2.17781e-07
2.17782e-07
2.17782e-07
2.17782e-07
2.17783e-07
2.17783e-07
2.17784e-07
2.17784e-07
2.17785e-07
2.17785e-07
2.17786e-07
2.17787e-07
2.17788e-07
2.17789e-07
2.1779e-07
2.17792e-07
2.17793e-07
2.17795e-07
2.17795e-07
2.17796e-07
2.17796e-07
2.17796e-07
2.17797e-07
2.17798e-07
2.17798e-07
2.17799e-07
2.17803e-07
2.17808e-07
2.17812e-07
2.17819e-07
2.17824e-07
2.1783e-07
2.17835e-07
2.17838e-07
2.1784e-07
2.17839e-07
2.17836e-07
2.17836e-07
2.19969e-07
2.17789e-07
2.17566e-07
2.1756e-07
2.17904e-07
2.17761e-07
2.17843e-07
2.1774e-07
2.17803e-07
2.1775e-07
2.17797e-07
2.17719e-07
2.17734e-07
2.1769e-07
2.17702e-07
2.1768e-07
2.17699e-07
2.17689e-07
2.17708e-07
2.17705e-07
2.17715e-07
2.1771e-07
2.1772e-07
2.17711e-07
2.17717e-07
2.17714e-07
2.17715e-07
2.17711e-07
2.17711e-07
2.17711e-07
2.17714e-07
2.17715e-07
2.17716e-07
2.17718e-07
2.17722e-07
2.17725e-07
2.17727e-07
2.17728e-07
2.17729e-07
2.17729e-07
2.17731e-07
2.17732e-07
2.17734e-07
2.17735e-07
2.17738e-07
2.17734e-07
2.17733e-07
2.17732e-07
2.1774e-07
2.17741e-07
2.17744e-07
2.17744e-07
2.17743e-07
2.17744e-07
2.17743e-07
2.17742e-07
2.17741e-07
2.17741e-07
2.17739e-07
2.17737e-07
2.1774e-07
2.17739e-07
2.17743e-07
2.1774e-07
2.17741e-07
2.17742e-07
2.17743e-07
2.17744e-07
2.17745e-07
2.17748e-07
2.17749e-07
2.17748e-07
2.1775e-07
2.17751e-07
2.17754e-07
2.17755e-07
2.17754e-07
2.17758e-07
2.17764e-07
2.17762e-07
2.17763e-07
2.17764e-07
2.17766e-07
2.17768e-07
2.17769e-07
2.1777e-07
2.17772e-07
2.17772e-07
2.17775e-07
2.17773e-07
2.17774e-07
2.17776e-07
2.17778e-07
2.17778e-07
2.17779e-07
2.1778e-07
2.17784e-07
2.1779e-07
2.17793e-07
2.17789e-07
2.17782e-07
2.17776e-07
2.17783e-07
2.17786e-07
2.17787e-07
2.17787e-07
2.17787e-07
2.17787e-07
2.17787e-07
2.17787e-07
2.17788e-07
2.17788e-07
2.17788e-07
2.17788e-07
2.17788e-07
2.17789e-07
2.17789e-07
2.17789e-07
2.17789e-07
2.17789e-07
2.17789e-07
2.17789e-07
2.17788e-07
2.17788e-07
2.17787e-07
2.17787e-07
2.17786e-07
2.17785e-07
2.17784e-07
2.17784e-07
2.17783e-07
2.17783e-07
2.17782e-07
2.17781e-07
2.1778e-07
2.17779e-07
2.17777e-07
2.17775e-07
2.17774e-07
2.17772e-07
2.1777e-07
2.17768e-07
2.17766e-07
2.17765e-07
2.17766e-07
2.17769e-07
2.17772e-07
2.17773e-07
2.17778e-07
2.17778e-07
2.17779e-07
2.17778e-07
2.17775e-07
2.17769e-07
2.17767e-07
2.17762e-07
2.20132e-07
2.18059e-07
2.18139e-07
2.18034e-07
2.18289e-07
2.18117e-07
2.18167e-07
2.18035e-07
2.18072e-07
2.17986e-07
2.17977e-07
2.17906e-07
2.17904e-07
2.17856e-07
2.17858e-07
2.17841e-07
2.1785e-07
2.17839e-07
2.17845e-07
2.17835e-07
2.17842e-07
2.17837e-07
2.17839e-07
2.17838e-07
2.17838e-07
2.17834e-07
2.17837e-07
2.17837e-07
2.17843e-07
2.17844e-07
2.17843e-07
2.17841e-07
2.17839e-07
2.17838e-07
2.17835e-07
2.17833e-07
2.17833e-07
2.17833e-07
2.17834e-07
2.17834e-07
2.17833e-07
2.17832e-07
2.17831e-07
2.1783e-07
2.17829e-07
2.17832e-07
2.17835e-07
2.17834e-07
2.17832e-07
2.17829e-07
2.17828e-07
2.17828e-07
2.17829e-07
2.17829e-07
2.1783e-07
2.17832e-07
2.17833e-07
2.17833e-07
2.17833e-07
2.17836e-07
2.17838e-07
2.17836e-07
2.17835e-07
2.17838e-07
2.17838e-07
2.17837e-07
2.17835e-07
2.17834e-07
2.17832e-07
2.17835e-07
2.17833e-07
2.1783e-07
2.1783e-07
2.17831e-07
2.17829e-07
2.17828e-07
2.17822e-07
2.17824e-07
2.17826e-07
2.17821e-07
2.17819e-07
2.17818e-07
2.17818e-07
2.17817e-07
2.17816e-07
2.17815e-07
2.17815e-07
2.17813e-07
2.17814e-07
2.1781e-07
2.17809e-07
2.1781e-07
2.1781e-07
2.17809e-07
2.17808e-07
2.17808e-07
2.17811e-07
2.17817e-07
2.1782e-07
2.17815e-07
2.17807e-07
2.178e-07
2.17807e-07
2.1781e-07
2.17809e-07
2.17809e-07
2.17808e-07
2.17808e-07
2.17808e-07
2.17807e-07
2.17807e-07
2.17807e-07
2.17807e-07
2.17807e-07
2.17806e-07
2.17806e-07
2.17806e-07
2.17806e-07
2.17807e-07
2.17807e-07
2.17807e-07
2.17807e-07
2.17808e-07
2.17808e-07
2.17809e-07
2.1781e-07
2.1781e-07
2.17811e-07
2.17812e-07
2.17813e-07
2.17815e-07
2.17816e-07
2.17818e-07
2.1782e-07
2.17821e-07
2.17822e-07
2.17823e-07
2.17823e-07
2.17823e-07
2.17823e-07
2.17823e-07
2.17823e-07
2.17823e-07
2.17823e-07
2.17826e-07
2.1783e-07
2.17834e-07
2.17839e-07
2.17843e-07
2.17849e-07
2.17852e-07
2.17855e-07
2.17856e-07
2.17856e-07
2.17853e-07
2.17853e-07
2.19964e-07
2.17745e-07
2.17507e-07
2.1755e-07
2.17907e-07
2.17763e-07
2.17846e-07
2.17743e-07
2.17807e-07
2.17753e-07
2.17796e-07
2.17711e-07
2.17732e-07
2.17688e-07
2.17698e-07
2.17674e-07
2.17694e-07
2.17684e-07
2.17705e-07
2.17703e-07
2.17712e-07
2.17708e-07
2.17719e-07
2.17707e-07
2.17714e-07
2.1771e-07
2.1771e-07
2.17704e-07
2.17702e-07
2.177e-07
2.17705e-07
2.17707e-07
2.17709e-07
2.1771e-07
2.17715e-07
2.1772e-07
2.17722e-07
2.17723e-07
2.17723e-07
2.17724e-07
2.17727e-07
2.17728e-07
2.17731e-07
2.17732e-07
2.17736e-07
2.17731e-07
2.17728e-07
2.17727e-07
2.17736e-07
2.1774e-07
2.17744e-07
2.17743e-07
2.17741e-07
2.17742e-07
2.1774e-07
2.17739e-07
2.17738e-07
2.17737e-07
2.17736e-07
2.17732e-07
2.17736e-07
2.17734e-07
2.17738e-07
2.17735e-07
2.17737e-07
2.17739e-07
2.17739e-07
2.17741e-07
2.17742e-07
2.17745e-07
2.17746e-07
2.17746e-07
2.17749e-07
2.17751e-07
2.17752e-07
2.17755e-07
2.17754e-07
2.17759e-07
2.17765e-07
2.17766e-07
2.17766e-07
2.17768e-07
2.17771e-07
2.17772e-07
2.17774e-07
2.17774e-07
2.17777e-07
2.17777e-07
2.17779e-07
2.17778e-07
2.17778e-07
2.1778e-07
2.17782e-07
2.17782e-07
2.17782e-07
2.17784e-07
2.17787e-07
2.17793e-07
2.17796e-07
2.17792e-07
2.17784e-07
2.17778e-07
2.17785e-07
2.17788e-07
2.17789e-07
2.17788e-07
2.17788e-07
2.17788e-07
2.17789e-07
2.17789e-07
2.17789e-07
2.17789e-07
2.1779e-07
2.1779e-07
2.1779e-07
2.1779e-07
2.17791e-07
2.17791e-07
2.17791e-07
2.17791e-07
2.17792e-07
2.17792e-07
2.17791e-07
2.17791e-07
2.17791e-07
2.1779e-07
2.1779e-07
2.1779e-07
2.17789e-07
2.17789e-07
2.17789e-07
2.17789e-07
2.17789e-07
2.17789e-07
2.17788e-07
2.17787e-07
2.17785e-07
2.17783e-07
2.17781e-07
2.17779e-07
2.17777e-07
2.17775e-07
2.17773e-07
2.17773e-07
2.17774e-07
2.17776e-07
2.1778e-07
2.17782e-07
2.17786e-07
2.17788e-07
2.1779e-07
2.17789e-07
2.17786e-07
2.17782e-07
2.17779e-07
2.17774e-07
2.20147e-07
2.18038e-07
2.18164e-07
2.18044e-07
2.18284e-07
2.18111e-07
2.18156e-07
2.18025e-07
2.18056e-07
2.17976e-07
2.17976e-07
2.17909e-07
2.17906e-07
2.17858e-07
2.17861e-07
2.17844e-07
2.17853e-07
2.17841e-07
2.17847e-07
2.17835e-07
2.17843e-07
2.17838e-07
2.1784e-07
2.1784e-07
2.17839e-07
2.17837e-07
2.1784e-07
2.17841e-07
2.17848e-07
2.17849e-07
2.17848e-07
2.17845e-07
2.17844e-07
2.17842e-07
2.17839e-07
2.17835e-07
2.17835e-07
2.17836e-07
2.17838e-07
2.17837e-07
2.17835e-07
2.17834e-07
2.17833e-07
2.17832e-07
2.17831e-07
2.17834e-07
2.17838e-07
2.17838e-07
2.17835e-07
2.1783e-07
2.17829e-07
2.17829e-07
2.17831e-07
2.17831e-07
2.17833e-07
2.17835e-07
2.17836e-07
2.17837e-07
2.17837e-07
2.17841e-07
2.17842e-07
2.17841e-07
2.1784e-07
2.17843e-07
2.17842e-07
2.1784e-07
2.1784e-07
2.17838e-07
2.17835e-07
2.17839e-07
2.17837e-07
2.17833e-07
2.17832e-07
2.17832e-07
2.17832e-07
2.17829e-07
2.17824e-07
2.17824e-07
2.17827e-07
2.17819e-07
2.17818e-07
2.17815e-07
2.17815e-07
2.17814e-07
2.17813e-07
2.17811e-07
2.17812e-07
2.1781e-07
2.17811e-07
2.17808e-07
2.17807e-07
2.17807e-07
2.17808e-07
2.17807e-07
2.17807e-07
2.17807e-07
2.17811e-07
2.17816e-07
2.1782e-07
2.17815e-07
2.17807e-07
2.178e-07
2.17806e-07
2.17809e-07
2.17809e-07
2.17809e-07
2.17808e-07
2.17808e-07
2.17808e-07
2.17807e-07
2.17807e-07
2.17807e-07
2.17807e-07
2.17807e-07
2.17806e-07
2.17806e-07
2.17806e-07
2.17806e-07
2.17806e-07
2.17806e-07
2.17806e-07
2.17806e-07
2.17807e-07
2.17807e-07
2.17808e-07
2.17808e-07
2.17809e-07
2.17809e-07
2.1781e-07
2.17811e-07
2.17811e-07
2.17813e-07
2.17814e-07
2.17815e-07
2.17816e-07
2.17817e-07
2.17817e-07
2.17817e-07
2.17817e-07
2.17817e-07
2.17817e-07
2.17816e-07
2.17816e-07
2.17817e-07
2.1782e-07
2.17824e-07
2.17828e-07
2.17833e-07
2.17837e-07
2.17842e-07
2.17846e-07
2.17848e-07
2.17849e-07
2.17849e-07
2.17846e-07
2.17846e-07
2.19891e-07
2.17699e-07
2.17432e-07
2.17538e-07
2.17906e-07
2.1776e-07
2.17843e-07
2.17734e-07
2.17806e-07
2.17748e-07
2.17783e-07
2.177e-07
2.17724e-07
2.17679e-07
2.17689e-07
2.17662e-07
2.17684e-07
2.17673e-07
2.17696e-07
2.17695e-07
2.17704e-07
2.17701e-07
2.17712e-07
2.17697e-07
2.17706e-07
2.17702e-07
2.17701e-07
2.17693e-07
2.17689e-07
2.17688e-07
2.17693e-07
2.17697e-07
2.17698e-07
2.17699e-07
2.17706e-07
2.17712e-07
2.17715e-07
2.17716e-07
2.17715e-07
2.17717e-07
2.17721e-07
2.17722e-07
2.17725e-07
2.17726e-07
2.17732e-07
2.17725e-07
2.17721e-07
2.1772e-07
2.1773e-07
2.17736e-07
2.1774e-07
2.1774e-07
2.17737e-07
2.17738e-07
2.17735e-07
2.17734e-07
2.17733e-07
2.17731e-07
2.1773e-07
2.17726e-07
2.17729e-07
2.17728e-07
2.17731e-07
2.17727e-07
2.1773e-07
2.17734e-07
2.17732e-07
2.17736e-07
2.17737e-07
2.17739e-07
2.17739e-07
2.1774e-07
2.17744e-07
2.17747e-07
2.17747e-07
2.17752e-07
2.1775e-07
2.17757e-07
2.17761e-07
2.17765e-07
2.17764e-07
2.17769e-07
2.17771e-07
2.17773e-07
2.17776e-07
2.17777e-07
2.17779e-07
2.17779e-07
2.17781e-07
2.17779e-07
2.1778e-07
2.17781e-07
2.17783e-07
2.17783e-07
2.17783e-07
2.17785e-07
2.17789e-07
2.17795e-07
2.17798e-07
2.17793e-07
2.17785e-07
2.17778e-07
2.17785e-07
2.17788e-07
2.17789e-07
2.17788e-07
2.17788e-07
2.17789e-07
2.17789e-07
2.17789e-07
2.17789e-07
2.1779e-07
2.1779e-07
2.1779e-07
2.1779e-07
2.17791e-07
2.17791e-07
2.17792e-07
2.17792e-07
2.17792e-07
2.17793e-07
2.17793e-07
2.17792e-07
2.17792e-07
2.17792e-07
2.17792e-07
2.17792e-07
2.17792e-07
2.17792e-07
2.17792e-07
2.17792e-07
2.17792e-07
2.17792e-07
2.17793e-07
2.17792e-07
2.17791e-07
2.1779e-07
2.17789e-07
2.17787e-07
2.17785e-07
2.17783e-07
2.17782e-07
2.1778e-07
2.17779e-07
2.1778e-07
2.17783e-07
2.17786e-07
2.17789e-07
2.17793e-07
2.17796e-07
2.17798e-07
2.17798e-07
2.17796e-07
2.17792e-07
2.17788e-07
2.17784e-07
2.20188e-07
2.18038e-07
2.18195e-07
2.18062e-07
2.1828e-07
2.18108e-07
2.18152e-07
2.18028e-07
2.18049e-07
2.17973e-07
2.17984e-07
2.17914e-07
2.17911e-07
2.17863e-07
2.17866e-07
2.1785e-07
2.17858e-07
2.17847e-07
2.17851e-07
2.17839e-07
2.17847e-07
2.17842e-07
2.17844e-07
2.17845e-07
2.17844e-07
2.17841e-07
2.17845e-07
2.17847e-07
2.17854e-07
2.17855e-07
2.17854e-07
2.17851e-07
2.17849e-07
2.17848e-07
2.17844e-07
2.17839e-07
2.17839e-07
2.1784e-07
2.17842e-07
2.17842e-07
2.17839e-07
2.17838e-07
2.17836e-07
2.17835e-07
2.17834e-07
2.17838e-07
2.17843e-07
2.17843e-07
2.17839e-07
2.17834e-07
2.17832e-07
2.17832e-07
2.17834e-07
2.17835e-07
2.17837e-07
2.17839e-07
2.1784e-07
2.17842e-07
2.17842e-07
2.17846e-07
2.17848e-07
2.17846e-07
2.17845e-07
2.1785e-07
2.17848e-07
2.17846e-07
2.17846e-07
2.17843e-07
2.17841e-07
2.17846e-07
2.17844e-07
2.17839e-07
2.17838e-07
2.17838e-07
2.17838e-07
2.17835e-07
2.17829e-07
2.17829e-07
2.17832e-07
2.17823e-07
2.17822e-07
2.17818e-07
2.17817e-07
2.17816e-07
2.17814e-07
2.17811e-07
2.17811e-07
2.17809e-07
2.17809e-07
2.17806e-07
2.17805e-07
2.17806e-07
2.17807e-07
2.17806e-07
2.17806e-07
2.17807e-07
2.1781e-07
2.17816e-07
2.1782e-07
2.17815e-07
2.17806e-07
2.17799e-07
2.17806e-07
2.17808e-07
2.17809e-07
2.17808e-07
2.17808e-07
2.17808e-07
2.17807e-07
2.17807e-07
2.17807e-07
2.17807e-07
2.17807e-07
2.17806e-07
2.17806e-07
2.17806e-07
2.17806e-07
2.17806e-07
2.17806e-07
2.17806e-07
2.17805e-07
2.17806e-07
2.17806e-07
2.17807e-07
2.17807e-07
2.17808e-07
2.17808e-07
2.17808e-07
2.17809e-07
2.17809e-07
2.1781e-07
2.17811e-07
2.17812e-07
2.17813e-07
2.17813e-07
2.17814e-07
2.17814e-07
2.17813e-07
2.17812e-07
2.17812e-07
2.17811e-07
2.17811e-07
2.1781e-07
2.17811e-07
2.17813e-07
2.17817e-07
2.17821e-07
2.17826e-07
2.17831e-07
2.17835e-07
2.17839e-07
2.17841e-07
2.17842e-07
2.17841e-07
2.1784e-07
2.17839e-07
2.19853e-07
2.17604e-07
2.17316e-07
2.17494e-07
2.1788e-07
2.17732e-07
2.17814e-07
2.17695e-07
2.17778e-07
2.17723e-07
2.17756e-07
2.17678e-07
2.17707e-07
2.17664e-07
2.17673e-07
2.17645e-07
2.17667e-07
2.17656e-07
2.17681e-07
2.17681e-07
2.17689e-07
2.17686e-07
2.17698e-07
2.17681e-07
2.17692e-07
2.17688e-07
2.17687e-07
2.17677e-07
2.17673e-07
2.17672e-07
2.17678e-07
2.17682e-07
2.17685e-07
2.17685e-07
2.17692e-07
2.17701e-07
2.17704e-07
2.17704e-07
2.17703e-07
2.17705e-07
2.1771e-07