/*--------------------------------*- C++ -*----------------------------------*\
| =========                 |                                                 |
| \\      /  F ield         | OpenFOAM: The Open Source CFD Toolbox           |
|  \\    /   O peration     | Version:  v1912                                 |
|   \\  /    A nd           | Website:  www.openfoam.com                      |
|    \\/     M anipulation  |                                                 |
\*---------------------------------------------------------------------------*/
FoamFile
{
    version     2.0;
    format      ascii;
    class       volVectorField;
    location    "20";
    object      U;
}
// * * * * * * * * * * * * * * * * * * * * * * * * * * * * * * * * * * * * * //

dimensions      [0 1 -1 0 0 0 0];


internalField   nonuniform List<vector> 
14268
(
(0.0120997 0.000551046 0)
(0.0240121 0.00114159 -1.32008e-26)
(0.0311088 0.00154462 2.4666e-26)
(0.0250571 0.00129034 0)
(0.0132033 0.00070631 0)
(0.0038815 0.000240199 0)
(-0.0082027 -0.000347479 0)
(-0.0222482 -0.001021 0)
(0.0120712 0.000473779 0)
(0.0239749 0.00105767 -2.91879e-26)
(0.0310593 0.00155836 4.95104e-26)
(0.0250045 0.00139712 0)
(0.01316 0.000831804 0)
(0.00385032 0.000368666 0)
(-0.0082245 -0.000199624 0)
(-0.0222614 -0.000896398 0)
(0.0120661 0.000368731 0)
(0.0239722 0.000943218 0)
(0.0310495 0.00153738 8.49741e-26)
(0.0249837 0.00147374 0)
(0.0131342 0.000925479 0)
(0.00382306 0.000461874 0)
(-0.00825342 -7.3563e-05 0)
(-0.0222832 -0.000723101 0)
(0.0120692 0.000289987 -4.06681e-26)
(0.0239783 0.000857979 0)
(0.0310495 0.00155197 1.11749e-25)
(0.0249733 0.00157983 -4.43646e-26)
(0.0131192 0.00104944 0)
(0.00380589 0.000587744 0)
(-0.00827316 7.1385e-05 0)
(-0.0222954 -0.000586103 0)
(0.0120764 0.000187066 -5.22123e-26)
(0.0239892 0.000745855 0)
(0.0310544 0.00153439 0)
(0.0249673 0.00165978 -1.48532e-33)
(0.0131084 0.00114575 0)
(0.0037953 0.0006866 0)
(-0.00828736 0.000201873 0)
(-0.0223009 -0.000424446 0)
(0.0120823 0.000106511 0)
(0.0239994 0.000659345 0)
(0.0310593 0.00154631 0)
(0.0249612 0.00176328 7.07658e-26)
(0.013097 0.00126805 0)
(0.0037847 0.000805084 0)
(-0.00830067 0.000341966 0)
(-0.0223048 -0.000280247 0)
(0.0120892 6.02058e-06 7.54607e-26)
(0.0240114 0.000549588 0)
(0.0310664 0.00153257 0)
(0.0249566 0.0018458 0)
(0.0130875 0.001368 0)
(0.00377332 0.000913281 1.9259e-26)
(-0.00831296 0.000477746 0)
(-0.0223079 -0.000117414 0)
(0.0120945 -7.72713e-05 8.69929e-26)
(0.0240228 0.000460644 -1.22869e-25)
(0.0310735 0.00154091 0)
(0.0249516 0.00194903 0)
(0.0130769 0.00148463 0)
(0.00376325 0.00102392 2.05071e-26)
(-0.00832535 0.000613787 0)
(-0.0223108 2.11198e-05 0)
(0.0121007 -0.000175338 0)
(0.0240357 0.000353335 -1.3931e-25)
(0.0310824 0.00153129 2.66835e-25)
(0.0249483 0.00203103 0)
(0.013067 0.00159043 0)
(0.00375262 0.001136 0)
(-0.00833754 0.000751494 0)
(-0.0223137 0.00019074 0)
(0.0121054 -0.000261346 0)
(0.0240481 0.000262132 0)
(0.0310915 0.00153739 3.45632e-25)
(0.0249443 0.00213638 0)
(0.0130567 0.00170435 0)
(0.00374262 0.00124704 0)
(-0.00834904 0.000886107 0)
(-0.0223163 0.000317571 -2.78314e-26)
(0.0121108 -0.000357387 0)
(0.0240618 0.000158048 0)
(0.0311024 0.00152651 0)
(0.0249421 0.00221556 0)
(0.0130468 0.00180989 0)
(0.00373259 0.00135703 0)
(-0.00836021 0.0010275 0)
(-0.0223178 0.000506083 -3.46663e-26)
(0.012115 -0.00044376 -1.32641e-25)
(0.024076 5.98403e-05 0)
(0.0311132 0.00153986 0)
(0.0249376 0.00232439 0)
(0.0130363 0.00192605 0)
(0.00372145 0.00146946 0)
(-0.00837733 0.00115728 0)
(-0.0223244 0.000608483 0)
(0.0121279 -0.000542167 4.175e-33)
(0.0240995 -3.07614e-05 0)
(0.0311321 0.00151831 0)
(0.0249339 0.00240051 0)
(0.0130264 0.00202645 0)
(0.00371102 0.00157553 0)
(-0.00837497 0.00129536 0)
(-0.0223264 0.00081948 0)
(0.0121927 -0.000625992 1.56624e-25)
(0.0241416 -0.000140717 0)
(0.031198 0.00154874 0)
(0.0249543 0.00251749 0)
(0.0129843 0.00215331 0)
(0.00361254 0.00169861 0)
(-0.00853521 0.00143903 0)
(-0.0224679 0.000908924 0)
(0.0119505 -0.000969246 0)
(0.023783 -0.000474612 0)
(0.031347 0.00143843 5.70844e-25)
(0.0254881 0.0027248 0)
(0.0136694 0.00239207 0)
(0.00385922 0.00188822 0)
(-0.0079978 0.0016625 0)
(-0.0226175 0.0012099 0)
(0.0118534 -0.00154434 0)
(0.0237389 -0.00109549 0)
(0.0313015 0.00155651 7.33675e-25)
(0.0253749 0.00326109 0)
(0.0136328 0.00298731 1.042e-25)
(0.00399697 0.00241367 0)
(-0.00737463 0.00221756 5.02734e-26)
(-0.0222441 0.00152272 0)
(0.0118789 -0.00209793 -1.41671e-25)
(0.0238876 -0.00166507 0)
(0.0314193 0.00133436 -4.4213e-25)
(0.025366 0.00353083 0)
(0.0135518 0.00326698 2.39108e-25)
(0.00392289 0.00261787 -4.46413e-26)
(-0.007279 0.00244491 2.11044e-26)
(-0.0218678 0.00190746 3.87079e-26)
(0.0118016 -0.00270556 -3.47869e-25)
(0.023969 -0.00226129 0)
(0.0316279 0.00152 -5.63922e-25)
(0.0254724 0.00412701 0)
(0.0135929 0.00392529 6.11419e-26)
(0.0039861 0.00319174 -6.84812e-26)
(-0.00718762 0.00304146 0)
(-0.0217573 0.00230048 4.06153e-26)
(0.0118045 -0.00325277 -2.10385e-25)
(0.0241473 -0.00287729 0)
(0.0317499 0.00122492 0)
(0.0254469 0.00433513 0)
(0.0134504 0.0041101 0)
(0.00381044 0.00331199 -6.25865e-26)
(-0.00740391 0.00315051 0)
(-0.021811 0.00257236 0)
(0.0116788 -0.00388426 0)
(0.0242483 -0.00341278 0)
(0.0320738 0.00151238 0)
(0.0256376 0.00505308 0)
(0.0135771 0.00491769 0)
(0.00398 0.00399899 0)
(-0.00714073 0.00388163 0)
(-0.0217109 0.00305222 0)
(0.0116668 -0.00448783 0)
(0.0244757 -0.00418449 0)
(0.0322408 0.00109825 0)
(0.025642 0.00511264 0)
(0.0134233 0.00491683 0)
(0.00377114 0.00397717 0)
(-0.00741934 0.00383485 0)
(-0.0217673 0.00325151 0)
(0.0115556 -0.00588431 0)
(0.025342 -0.0052412 0)
(0.0329867 0.00244594 -2.96085e-25)
(0.025531 0.00839154 0)
(0.0126862 0.00896712 -5.04032e-26)
(0.00341568 0.00777827 0)
(-0.00825579 0.00857974 -4.08655e-26)
(-0.0217696 0.00670067 -3.7151e-26)
(0.0112422 -0.00954013 0)
(0.0260448 -0.00975717 0)
(0.0339561 0.000224887 -3.92854e-25)
(0.025659 0.00830944 0)
(0.0122171 0.0080278 -6.78396e-26)
(0.00360788 0.00692708 0)
(-0.00883224 0.00704102 1.30924e-26)
(-0.0233329 0.00852931 -8.83242e-30)
(-0.000946869 -0.0117066 0)
(-0.00368135 -0.011739 0)
(-0.00344036 0.00256923 5.17382e-25)
(-0.00421707 0.0146746 0)
(-0.00983962 0.0152017 0)
(-0.0112705 0.0136991 0)
(-0.0168771 0.016575 0)
(-0.0276045 0.0154958 8.31686e-26)
(-0.272788 -0.0105069 0)
(-0.32593 -0.0119625 0)
(-0.349241 -0.00250522 1.58379e-25)
(-0.32432 0.00706525 0)
(-0.275758 0.0077842 0)
(-0.239335 0.00706829 0)
(-0.193701 0.00997107 0)
(-0.12981 0.0140629 2.16473e-26)
(0.326648 0.015891 0)
(0.350144 0.0133967 -1.9365e-25)
(0.357283 0.00477691 0)
(0.390709 -0.00351788 4.98979e-25)
(0.432271 -0.00561414 0)
(0.447794 -0.00642674 0)
(0.457509 -0.0106858 0)
(0.45221 -0.0191991 -2.31945e-25)
(3.97718 -0.00546366 0)
(4.07302 0.0100827 -3.5971e-27)
(4.16679 0.0163378 0)
(4.25854 0.01714 -1.2456e-24)
(4.34815 0.0241103 -2.67146e-24)
(4.42811 0.0327869 0)
(4.50813 0.0402656 0)
(4.59608 0.0581572 0)
(3.95289 -0.00911284 0)
(3.94804 -0.0123019 3.0291e-27)
(3.94245 -0.0230835 0)
(3.93846 -0.0273893 0)
(3.93581 -0.0259513 2.82346e-27)
(3.9607 -0.0221313 -1.77423e-24)
(3.93829 -0.0411738 0)
(3.96274 -0.000489407 -1.40919e-23)
(0.540139 -0.0272517 0)
(0.560687 -0.0197291 5.15743e-25)
(0.578337 -0.0130363 -2.88378e-26)
(0.590732 -0.011662 0)
(0.593433 -0.0113606 -1.03076e-24)
(0.616456 0.00320836 7.5132e-27)
(0.626912 0.00425542 8.07837e-25)
(0.630025 0.00850029 -1.06488e-24)
(0.301672 -0.0351022 0)
(0.267217 -0.0392049 0)
(0.227991 -0.0473406 -1.17763e-28)
(0.201595 -0.0500005 0)
(0.171654 -0.0526944 -5.99668e-24)
(0.153092 -0.0540502 0)
(0.123122 -0.0632861 -5.99412e-29)
(0.153364 -0.063681 0)
(0.00755048 -0.0171445 -5.25047e-25)
(0.0130281 -0.00949166 0)
(0.010768 -0.0053189 -1.52585e-24)
(0.0113729 -0.00564846 0)
(-0.00228308 -0.00618296 7.73068e-25)
(-0.0147008 0.00993007 -4.85448e-25)
(-0.0188502 -0.00577192 1.81455e-28)
(0.0120706 -0.0162007 -1.92539e-24)
(-0.0221523 -0.035515 -4.13405e-25)
(-0.0233445 -0.0378458 0)
(-0.0244677 -0.0436817 0)
(-0.0230463 -0.0436835 0)
(-0.0322544 -0.0432552 2.4887e-25)
(-0.0399367 -0.0484451 -5.73717e-25)
(-0.0297286 -0.0670924 5.81514e-25)
(-0.0241873 -0.0676028 -6.31503e-25)
(-0.0149002 -0.0160221 0)
(-0.0105953 -0.0121063 0)
(-0.0100798 -0.00926959 0)
(-0.00805906 -0.00678261 0)
(-0.00975347 -0.00364521 8.41723e-25)
(-0.0015249 0.00761339 4.55865e-25)
(-0.00817156 -0.0148205 -1.46374e-24)
(-0.00374209 -0.0216621 0)
(-0.0218325 -0.036114 0)
(-0.0220934 -0.0366802 3.76679e-25)
(-0.0240015 -0.0410753 0)
(-0.0219177 -0.0411056 0)
(-0.0254366 -0.0429018 0)
(-0.0139829 -0.0469226 6.02153e-25)
(-0.010143 -0.062141 1.51785e-28)
(-0.0137905 -0.0621355 2.29988e-25)
(-0.016161 -0.0156403 0)
(-0.01256 -0.0136372 1.24094e-24)
(-0.0126876 -0.0120797 0)
(-0.0106983 -0.00886214 0)
(-0.0117669 -0.00769697 0)
(-0.00407272 0.00120313 0)
(-0.0103234 -0.018609 1.08454e-24)
(-0.0109289 -0.0235061 9.16679e-25)
(-0.0198703 -0.0361359 0)
(-0.0195031 -0.0360909 0)
(-0.021517 -0.0391895 0)
(-0.0196454 -0.0394086 0)
(-0.0220765 -0.0429394 0)
(-0.0108645 -0.045314 0)
(-0.00902214 -0.0568581 1.81307e-25)
(-0.0145222 -0.0572672 0)
(-0.0165139 -0.0158791 8.98741e-25)
(-0.0138555 -0.0145544 0)
(-0.0144121 -0.0139046 -9.83992e-25)
(-0.0120448 -0.010594 0)
(-0.0138206 -0.011724 -6.30852e-25)
(-0.010001 -0.0047004 0)
(-0.0141941 -0.0203466 -1.57677e-28)
(-0.0167025 -0.023917 0)
(-0.0189918 -0.0357847 -8.85034e-29)
(-0.0183025 -0.0356653 7.703e-25)
(-0.0201491 -0.0380183 -5.89164e-25)
(-0.0176225 -0.0380498 -5.7111e-25)
(-0.0194176 -0.0419487 -4.46762e-25)
(-0.0122265 -0.0432335 0)
(-0.0100124 -0.0524598 -2.03084e-25)
(-0.0153481 -0.0529272 8.40237e-26)
(-0.0168843 -0.0162783 -8.68636e-25)
(-0.0149044 -0.0152579 -1.03691e-28)
(-0.0159924 -0.0153967 7.96045e-25)
(-0.0138793 -0.0123644 -7.10239e-25)
(-0.0153796 -0.0145822 0)
(-0.0129175 -0.00942621 0)
(-0.0164664 -0.0214616 0)
(-0.0207344 -0.0236453 4.09759e-25)
(-0.0184167 -0.0352716 0)
(-0.0174454 -0.0350972 -7.54472e-25)
(-0.0192352 -0.0370526 6.24865e-25)
(-0.0167736 -0.0369168 0)
(-0.0179989 -0.0408773 0)
(-0.0133325 -0.0410861 0)
(-0.0109169 -0.0484292 -2.25449e-25)
(-0.0161549 -0.0488611 0)
(-0.0173826 -0.0167031 8.20286e-25)
(-0.0159154 -0.0159219 7.6595e-25)
(-0.0169662 -0.0165832 7.03766e-25)
(-0.0150358 -0.014076 6.4381e-25)
(-0.0166476 -0.0167128 -5.28235e-25)
(-0.0152274 -0.0132697 5.28625e-25)
(-0.0175344 -0.0220895 1.38505e-28)
(-0.0231002 -0.0231403 2.49469e-25)
(-0.0176225 -0.0347538 -7.77489e-29)
(-0.0167819 -0.0344791 7.18543e-25)
(-0.0184665 -0.0362796 6.10567e-25)
(-0.0167114 -0.0358525 -1.09688e-28)
(-0.0172938 -0.0396684 -4.16414e-25)
(-0.0144938 -0.0392291 3.03072e-25)
(-0.0132042 -0.044859 2.21608e-25)
(-0.0169957 -0.0452901 1.33539e-25)
(-0.0178543 -0.0171979 -7.69925e-25)
(-0.0166612 -0.0165041 0)
(-0.0176896 -0.0174306 0)
(-0.0162396 -0.0156073 -5.88111e-25)
(-0.01766 -0.0183322 0)
(-0.0174453 -0.0160032 4.63082e-25)
(-0.0191011 -0.0224273 0)
(-0.0238459 -0.0226911 0)
(-0.0174073 -0.0341536 0)
(-0.0165279 -0.0338349 0)
(-0.0177468 -0.0355174 -5.85214e-25)
(-0.0164347 -0.0348444 0)
(-0.0170042 -0.0383356 3.98169e-25)
(-0.0156409 -0.0374628 2.87675e-25)
(-0.0150503 -0.0420259 -2.05863e-25)
(-0.0184865 -0.0421346 0)
(-0.0181224 -0.0178108 0)
(-0.0171897 -0.0171953 0)
(-0.0182006 -0.0181847 9.26053e-29)
(-0.0171498 -0.0168688 0)
(-0.0185043 -0.019406 4.32951e-25)
(-0.018729 -0.0178643 0)
(-0.0202525 -0.0224273 1.25122e-28)
(-0.0244948 -0.0223688 0)
(-0.017192 -0.0334704 -7.09118e-25)
(-0.0164475 -0.0331342 -6.40796e-25)
(-0.0173743 -0.0347239 1.11501e-24)
(-0.0164424 -0.0338784 -4.67293e-25)
(-0.0169909 -0.0370137 0)
(-0.0166562 -0.0358498 -2.71879e-25)
(-0.0163873 -0.039575 1.84202e-25)
(-0.0194746 -0.0392811 -7.71305e-26)
(-0.0183337 -0.0184876 -6.77169e-25)
(-0.0175889 -0.0179223 -6.17726e-25)
(-0.018535 -0.0188756 5.38536e-25)
(-0.017825 -0.0179068 -4.86765e-25)
(-0.0190661 -0.0200921 0)
(-0.0196545 -0.0191072 -3.39684e-25)
(-0.0210027 -0.0222891 0)
(-0.0249918 -0.022041 -6.2073e-26)
(-0.0170742 -0.0327261 0)
(-0.0164373 -0.0323941 0)
(-0.0171295 -0.0338663 5.253e-25)
(-0.0165485 -0.0329468 0)
(-0.0170955 -0.0356829 0)
(-0.0173791 -0.0344044 0)
(-0.0176512 -0.0373785 1.73474e-25)
(-0.0201527 -0.0366563 0)
(-0.0182903 -0.0192259 -3.17977e-25)
(-0.0177339 -0.0186846 -2.88024e-25)
(-0.0186377 -0.0195461 4.98776e-25)
(-0.0182404 -0.0187562 -2.21331e-25)
(-0.0194454 -0.0205562 1.73318e-25)
(-0.020299 -0.0198341 0)
(-0.0217176 -0.0220774 1.63044e-25)
(-0.0249343 -0.0218655 -3.28542e-26)
(-0.0171129 -0.0319447 -3.07289e-25)
(-0.0165953 -0.0316043 -5.583e-25)
(-0.0171066 -0.0329135 2.43406e-25)
(-0.0167918 -0.0320021 -4.11491e-25)
(-0.0172892 -0.0343069 -4.66064e-29)
(-0.0179563 -0.0330285 0)
(-0.0185474 -0.0354315 0)
(-0.020607 -0.0342109 -2.67455e-26)
(-0.0183317 -0.0199677 0)
(-0.0177789 -0.0194661 -5.37835e-25)
(-0.0186021 -0.0202163 4.67332e-25)
(-0.018433 -0.0194876 4.08282e-29)
(-0.0195846 -0.0209339 -1.59329e-25)
(-0.0206856 -0.0202181 -1.19829e-25)
(-0.0219982 -0.0219181 5.51456e-26)
(-0.024816 -0.0217483 0)
(-0.0172346 -0.0311566 2.84528e-25)
(-0.0167493 -0.0308293 -5.16849e-25)
(-0.0172496 -0.0319118 2.23202e-25)
(-0.0170982 -0.0310385 3.82354e-25)
(-0.0176706 -0.0328738 1.51886e-25)
(-0.0184167 -0.0316986 4.61848e-29)
(-0.0191118 -0.0335442 7.75527e-26)
(-0.0210649 -0.0319899 1.53087e-26)
(-0.0183233 -0.0206804 2.78714e-25)
(-0.0177947 -0.020238 3.02108e-29)
(-0.0185986 -0.020841 -2.18597e-25)
(-0.0185418 -0.0201308 1.85289e-25)
(-0.0196588 -0.0212602 -4.15652e-29)
(-0.0206672 -0.020522 1.04147e-25)
(-0.0220312 -0.0218827 -5.79245e-26)
(-0.0245335 -0.0215906 1.95941e-26)
(-0.0172809 -0.030392 0)
(-0.0168223 -0.030056 4.76257e-25)
(-0.0174545 -0.030905 -2.05067e-25)
(-0.0173523 -0.030061 0)
(-0.0180959 -0.0314925 -1.38278e-25)
(-0.0187159 -0.0303684 0)
(-0.0195879 -0.0316325 -5.76903e-26)
(-0.0213557 -0.0299834 5.95304e-27)
(-0.0181833 -0.0213899 2.59757e-25)
(-0.0177811 -0.0209448 -2.79169e-29)
(-0.0185991 -0.0213888 0)
(-0.0185592 -0.0206962 1.72029e-25)
(-0.0196411 -0.0215592 0)
(-0.0205583 -0.0208307 9.73373e-26)
(-0.0219232 -0.0218967 0)
(-0.0240887 -0.0214331 2.71526e-26)
(-0.0172713 -0.0296635 2.43522e-25)
(-0.0169365 -0.0292648 -4.38179e-25)
(-0.0175096 -0.0299256 0)
(-0.0176085 -0.0291033 1.59647e-25)
(-0.0182308 -0.0301627 0)
(-0.018973 -0.0290554 -3.96898e-29)
(-0.0198741 -0.0298245 0)
(-0.0214963 -0.0281844 -1.35727e-27)
(-0.0180769 -0.0220445 0)
(-0.0177398 -0.0215918 -4.37105e-25)
(-0.0184669 -0.0218685 1.88065e-25)
(-0.0185758 -0.0212038 -1.58349e-25)
(-0.0194669 -0.0218538 1.23764e-25)
(-0.0204386 -0.0210748 -8.23143e-26)
(-0.02166 -0.0219143 0)
(-0.0235479 -0.0212658 0)
(-0.017224 -0.0289754 -2.24969e-25)
(-0.0169693 -0.028521 -2.02046e-25)
(-0.0175249 -0.0289667 1.73514e-25)
(-0.0176154 -0.0281891 -1.46272e-25)
(-0.0183496 -0.0288911 1.11164e-25)
(-0.0190535 -0.02779 0)
(-0.0199974 -0.0281842 0)
(-0.0214903 -0.0265724 0)
(-0.0179075 -0.0226577 1.9731e-29)
(-0.0176639 -0.022169 0)
(-0.0182988 -0.0223174 0)
(-0.0184421 -0.0216478 0)
(-0.0193189 -0.0220859 0)
(-0.0201843 -0.0213133 0)
(-0.0213126 -0.0218935 0)
(-0.0229735 -0.0210773 0)
(-0.0171598 -0.0283267 2.0762e-25)
(-0.0169632 -0.0278225 0)
(-0.0174661 -0.0280745 1.594e-25)
(-0.0176249 -0.0272983 0)
(-0.0183303 -0.0277059 0)
(-0.0190331 -0.0265848 0)
(-0.0200038 -0.0267087 -2.85288e-26)
(-0.0213605 -0.0251342 0)
(-0.0176868 -0.023219 0)
(-0.0175053 -0.0226877 0)
(-0.018082 -0.0227167 -2.50742e-29)
(-0.0182589 -0.0220351 0)
(-0.0190826 -0.0222958 1.01909e-25)
(-0.019867 -0.0215045 0)
(-0.0209058 -0.0218306 -7.46108e-26)
(-0.0223607 -0.0208754 0)
(-0.0170411 -0.0277333 0)
(-0.0169004 -0.0271697 0)
(-0.0173647 -0.0272458 -1.46216e-25)
(-0.0175624 -0.0264552 0)
(-0.0182514 -0.0265986 9.02658e-26)
(-0.0189316 -0.025483 0)
(-0.0198915 -0.0253971 -2.30557e-26)
(-0.0211181 -0.0238612 0)
(-0.017438 -0.023723 9.58908e-26)
(-0.0173097 -0.0231416 8.62434e-26)
(-0.01782 -0.023064 0)
(-0.0180242 -0.0223632 0)
(-0.0187808 -0.0224676 0)
(-0.0194933 -0.0216344 3.30321e-26)
(-0.0204633 -0.0217256 0)
(-0.021732 -0.0206663 -2.69733e-27)
(-0.0168637 -0.0271968 8.85639e-26)
(-0.016784 -0.0265717 7.88456e-26)
(-0.017194 -0.0264909 0)
(-0.0174327 -0.025673 0)
(-0.0180926 -0.0256006 0)
(-0.0187508 -0.024493 2.56141e-26)
(-0.0196657 -0.0242391 0)
(-0.0207798 -0.0227486 -7.68808e-27)
(-0.0171417 -0.0241647 0)
(-0.0170858 -0.0235296 0)
(-0.017518 -0.0233591 -6.81681e-26)
(-0.0177479 -0.0226264 5.63042e-26)
(-0.0184316 -0.0225805 4.35667e-26)
(-0.0190804 -0.0217022 0)
(-0.0199806 -0.0215817 -1.30777e-26)
(-0.021088 -0.0204457 0)
(-0.0166289 -0.0267125 -8.16824e-26)
(-0.0166005 -0.0260344 0)
(-0.0169817 -0.0258156 -6.15433e-26)
(-0.0172339 -0.02496 5.03886e-26)
(-0.0178598 -0.0247254 3.64638e-26)
(-0.0184934 -0.0236198 0)
(-0.0193464 -0.0232301 -7.49143e-27)
(-0.0203621 -0.0217801 0)
(-0.0168279 -0.02454 -8.16668e-26)
(-0.0167896 -0.0238493 0)
(-0.0171955 -0.0236039 6.28357e-26)
(-0.0174251 -0.0228273 -5.24007e-26)
(-0.018046 -0.0226318 0)
(-0.0186386 -0.0217071 0)
(-0.0194642 -0.0214032 0)
(-0.0204324 -0.0202098 0)
(-0.0163783 -0.0262966 0)
(-0.0163384 -0.0255584 6.66963e-26)
(-0.0167286 -0.0252156 5.66545e-26)
(-0.0169835 -0.0243318 -9.12736e-26)
(-0.0175656 -0.0239715 -3.32006e-26)
(-0.0181657 -0.0228672 0)
(-0.0189523 -0.0223642 0)
(-0.0198789 -0.0209465 -8.80677e-27)
(-0.0164918 -0.0248477 0)
(-0.0164601 -0.0241085 1.33903e-25)
(-0.016824 -0.0237733 -5.81199e-26)
(-0.0170631 -0.0229562 9.96627e-30)
(-0.0176177 -0.0226245 -7.11414e-26)
(-0.0181705 -0.0216483 2.29254e-26)
(-0.018914 -0.0211921 0)
(-0.0197756 -0.0199519 -6.08182e-27)
(-0.0160664 -0.0259506 3.48233e-26)
(-0.0160714 -0.025156 6.16169e-26)
(-0.0164104 -0.0247101 -5.21328e-26)
(-0.0166853 -0.0238039 4.19384e-26)
(-0.0172203 -0.0233386 -3.04054e-26)
(-0.0177826 -0.0222347 1.83688e-26)
(-0.018499 -0.0216337 0)
(-0.0193372 -0.0202421 0)
(-0.0160979 -0.0250809 3.45852e-26)
(-0.0160978 -0.0242988 0)
(-0.0164063 -0.0238657 -2.65123e-26)
(-0.0166561 -0.0230024 0)
(-0.0171547 -0.022555 1.59711e-26)
(-0.0176712 -0.0215307 0)
(-0.0183385 -0.0209497 -3.38533e-27)
(-0.0191164 -0.0196703 0)
(-0.0157366 -0.0256697 0)
(-0.0157645 -0.0248369 0)
(-0.0160721 -0.0243072 -2.41462e-26)
(-0.0163409 -0.023377 0)
(-0.0168316 -0.0228238 2.81239e-26)
(-0.0173503 -0.0217168 -8.37527e-27)
(-0.0179965 -0.021029 5.23928e-30)
(-0.0187499 -0.0196624 0)
(-0.0156569 -0.0252332 -3.16849e-26)
(-0.0156781 -0.0244096 0)
(-0.0159557 -0.0238816 0)
(-0.0162017 -0.0229752 0)
(-0.0166573 -0.0224249 1.42672e-26)
(-0.0171402 -0.0213614 -1.73927e-26)
(-0.0177442 -0.0206737 -4.97881e-30)
(-0.018445 -0.0193671 3.75318e-27)
(-0.0153572 -0.0254662 -4.45066e-26)
(-0.0153978 -0.0246031 0)
(-0.0156772 -0.0239993 -1.11838e-26)
(-0.015928 -0.0230465 0)
(-0.0163746 -0.0224164 -6.48234e-27)
(-0.0168492 -0.0213065 -7.65599e-27)
(-0.01743 -0.0205484 -2.85171e-27)
(-0.018092 -0.0192133 4.08823e-27)
(-0.0151493 -0.0253065 -1.44689e-26)
(-0.0151889 -0.0244447 0)
(-0.0154494 -0.0238301 1.68386e-30)
(-0.0156843 -0.0228845 0)
(-0.016107 -0.022238 -6.38182e-27)
(-0.0165567 -0.0211408 0)
(-0.0171045 -0.02036 -9.59411e-28)
(-0.0177199 -0.0190374 0)
(-0.0148708 -0.0253333 0)
(-0.0149237 -0.0244452 0)
(-0.0151809 -0.0237796 1.55283e-26)
(-0.0154133 -0.02281 0)
(-0.0158192 -0.0221147 3.00746e-27)
(-0.0162473 -0.0210043 0)
(-0.0167634 -0.0201884 -4.249e-28)
(-0.0173429 -0.0188641 0)
(-0.0146295 -0.0252988 0)
(-0.0146892 -0.0244002 0)
(-0.0149321 -0.0237066 4.98228e-27)
(-0.0151597 -0.0227269 0)
(-0.0155442 -0.0219962 2.87764e-27)
(-0.015949 -0.0208808 0)
(-0.0164376 -0.0200312 -3.89512e-28)
(-0.0169922 -0.018706 0)
(-0.0140552 -0.0252144 0)
(-0.0141202 -0.0242799 0)
(-0.0143311 -0.0235003 0)
(-0.0145363 -0.0224932 0)
(-0.0148632 -0.0216753 0)
(-0.0152068 -0.0205472 0)
(-0.0156243 -0.0196142 0)
(-0.016084 -0.0183013 0)
(-0.0127572 -0.0250949 0)
(-0.012829 -0.0241069 0)
(-0.0129979 -0.0232095 0)
(-0.0131702 -0.0221637 0)
(-0.0134223 -0.0212266 0)
(-0.0136904 -0.0200782 0)
(-0.0140018 -0.0190409 0)
(-0.0143352 -0.0177518 0)
(-0.0113876 -0.0249974 0)
(-0.0114587 -0.0239721 0)
(-0.0115934 -0.022998 0)
(-0.011734 -0.0219266 0)
(-0.011927 -0.0209132 0)
(-0.0121289 -0.019761 0)
(-0.0123555 -0.0186691 0)
(-0.0125896 -0.0174069 0)
(-0.00995219 -0.024899 0)
(-0.0100186 -0.0238459 0)
(-0.0101256 -0.0228172 0)
(-0.0102385 -0.0217269 0)
(-0.0103841 -0.0206625 0)
(-0.0105339 -0.0195094 0)
(-0.0106978 -0.0183817 0)
(-0.0108608 -0.0171463 0)
(-0.00847076 -0.0248162 0)
(-0.00853012 -0.0237432 0)
(-0.00861441 -0.0226806 0)
(-0.00870336 -0.021578 0)
(-0.00881194 -0.0204847 0)
(-0.00892161 -0.0193342 0)
(-0.00903744 -0.0181923 0)
(-0.00914761 -0.0169809 0)
(-0.00695932 -0.0247418 0)
(-0.00701045 -0.0236556 0)
(-0.0070764 -0.0225713 0)
(-0.00714584 -0.0214609 0)
(-0.00722639 -0.0203509 0)
(-0.00730627 -0.0192042 0)
(-0.00738789 -0.0180573 0)
(-0.00746212 -0.0168673 0)
(-0.00542314 -0.0246801 0)
(-0.00546575 -0.0235852 0)
(-0.00551691 -0.0224879 0)
(-0.00557042 -0.021373 0)
(-0.00562975 -0.0202546 0)
(-0.00568778 -0.0191123 0)
(-0.00574502 -0.0179664 0)
(-0.00579515 -0.0167939 0)
(-0.00387073 -0.0246293 0)
(-0.00390415 -0.0235291 0)
(-0.0039425 -0.0224244 0)
(-0.00398245 -0.0213071 0)
(-0.00402546 -0.0201847 0)
(-0.00406736 -0.0190466 0)
(-0.00410779 -0.0179039 0)
(-0.00414268 -0.0167452 0)
(-0.00233181 -0.0245905 0)
(-0.00235463 -0.0234866 0)
(-0.00238003 -0.0223774 0)
(-0.00240665 -0.0212585 0)
(-0.00243477 -0.0201339 0)
(-0.00246242 -0.0189984 0)
(-0.00248903 -0.0178585 0)
(-0.00251239 -0.0167085 0)
(-0.000932591 -0.0245738 0)
(-0.000935485 -0.0234671 0)
(-0.000939173 -0.0223546 0)
(-0.000943136 -0.0212337 0)
(-0.000947607 -0.0201072 0)
(-0.000951867 -0.0189719 0)
(-0.000955857 -0.0178325 0)
(-0.00095875 -0.0166862 0)
(-0.0376237 7.86914e-05 0)
(-0.0519734 5.14948e-05 0)
(-0.0581719 5.35734e-05 0)
(-0.0595209 -5.62908e-06 0)
(-0.0578096 -2.49992e-05 0)
(-0.0537418 -2.86644e-05 0)
(-0.050648 -2.59418e-05 0)
(-0.0474989 -2.34764e-05 0)
(-0.0448639 -2.50498e-05 0)
(-0.0407352 -2.89097e-05 0)
(-0.0358051 -2.94465e-05 0)
(-0.0303104 -2.8779e-05 0)
(-0.025312 -2.49841e-05 0)
(-0.0209039 -1.85912e-05 0)
(-0.0178998 -1.12747e-05 0)
(-0.0159223 -6.10183e-06 0)
(-0.0147941 -2.13922e-06 0)
(-0.0140525 -8.37061e-08 0)
(-0.0135901 1.14888e-06 0)
(-0.0130852 1.46329e-06 0)
(-0.0125031 4.65344e-07 0)
(-0.011679 -6.63007e-07 0)
(-0.0107281 -6.52281e-07 0)
(-0.00974341 -4.786e-07 0)
(-0.00893734 5.10086e-07 0)
(-0.00834897 1.46498e-06 0)
(-0.00800537 2.25131e-06 0)
(-0.00774285 2.55341e-06 0)
(-0.00741587 9.21154e-07 0)
(-0.00689551 -7.10376e-07 0)
(-0.00620582 -1.21242e-06 0)
(-0.00543335 -1.46484e-06 0)
(-0.00471661 -1.07751e-06 0)
(-0.00414885 1.71535e-07 0)
(-0.00376009 1.5379e-06 0)
(-0.00348994 2.05677e-06 0)
(-0.00324506 1.74375e-06 0)
(-0.00295195 1.3693e-06 0)
(-0.00259393 1.07567e-06 0)
(-0.00219955 1.12888e-06 0)
(-0.00183112 1.57496e-06 0)
(-0.00155346 1.97023e-06 0)
(-0.00139212 2.71783e-06 0)
(-0.00135671 3.38142e-06 0)
(-0.00142437 3.7919e-06 0)
(-0.00154112 3.34773e-06 0)
(-0.00163537 2.82679e-06 0)
(-0.00165141 2.0171e-06 0)
(-0.00156533 2.0232e-06 0)
(-0.00135623 1.84534e-06 0)
(-0.00102568 1.42079e-06 0)
(-0.000596374 1.0171e-06 0)
(-0.000106909 6.08769e-07 0)
(0.000406125 6.37478e-07 0)
(0.00089361 7.56571e-07 0)
(0.00132895 9.12307e-07 0)
(0.00170276 1.17536e-06 0)
(0.00199765 1.63079e-06 0)
(0.00219397 2.2107e-06 0)
(0.00230142 2.43715e-06 0)
(0.00235434 3.20339e-06 0)
(0.00236631 3.30582e-06 0)
(0.00236395 2.34066e-06 0)
(0.00233142 1.52137e-06 0)
(0.00226077 1.59976e-06 0)
(0.00218423 1.77479e-06 0)
(0.0020772 1.63733e-06 0)
(0.00197602 1.7065e-06 0)
(0.00187293 2.0717e-06 0)
(0.0017097 1.82742e-06 0)
(0.0014949 1.86985e-06 0)
(0.00124939 1.72951e-06 0)
(0.000985697 1.66278e-06 0)
(0.000722205 9.25146e-07 0)
(0.000486471 2.96141e-07 0)
(0.000368643 9.13008e-08 0)
(0.000367486 -2.26534e-06 0)
(0.000442189 -3.3919e-06 0)
(0.000598696 -3.58712e-06 0)
(0.000723957 -2.92243e-06 0)
(0.000718503 -3.52224e-06 0)
(0.000554964 -2.79268e-06 0)
(0.000213002 -1.99673e-06 0)
(-0.000275598 -1.34327e-06 0)
(-0.0008597 -8.84223e-07 0)
(-0.0015012 -6.56407e-07 0)
(-0.00214816 -4.78478e-07 0)
(-0.00282916 2.02412e-07 0)
(-0.00372652 1.91748e-06 0)
(-0.00511297 4.79079e-06 0)
(-0.00713729 7.42806e-06 0)
(-0.0094878 7.51273e-06 0)
(-0.0114951 4.13469e-06 0)
(-0.0124193 -2.7247e-06 0)
(-0.0116703 -1.31391e-05 0)
(-0.0087841 -2.53475e-05 0)
(-0.003302 -3.93736e-05 0)
(0.00498176 -5.10898e-05 0)
(0.015156 -5.22078e-05 0)
(0.0238236 -3.56126e-05 0)
(0.0272562 -4.98328e-06 0)
(0.0240944 2.17958e-05 0)
(0.0173882 3.03987e-05 0)
(0.0114815 2.24637e-05 0)
(0.00737597 1.4187e-05 0)
(0.00473146 7.90451e-06 0)
(0.00308049 3.87872e-06 0)
(0.00205367 1.40567e-06 0)
(0.00140713 -6.20382e-08 0)
(0.000987968 -9.07637e-07 0)
(0.000700495 -1.36812e-06 0)
(0.000484435 -1.58871e-06 0)
(0.000299779 -1.65782e-06 0)
(0.000119706 -1.61485e-06 0)
(-7.82252e-05 -1.47547e-06 0)
(-0.000315698 -1.2398e-06 0)
(-0.000613578 -8.96783e-07 0)
(-0.000994764 -4.35707e-07 0)
(-0.00148486 1.634e-07 0)
(-0.00211312 9.20317e-07 0)
(-0.00291227 1.85543e-06 0)
(-0.00391757 2.96197e-06 0)
(-0.00516531 4.22029e-06 0)
(-0.00668965 5.63349e-06 0)
(-0.00851772 7.15652e-06 0)
(-0.0106636 8.70638e-06 0)
(-0.01312 1.0157e-05 0)
(-0.0158535 1.13406e-05 0)
(-0.0187988 1.20727e-05 0)
(-0.0218505 1.21427e-05 0)
(-0.0248626 1.14013e-05 0)
(-0.0276617 9.76002e-06 0)
(-0.030056 7.10071e-06 0)
(-0.0318458 3.44468e-06 0)
(-0.0328462 -9.34034e-07 0)
(-0.0329209 -5.53593e-06 0)
(-0.0319652 -1.14159e-05 0)
(-0.0299058 -1.74171e-05 0)
(-0.0267176 -2.33581e-05 0)
(-0.0224207 -2.91417e-05 0)
(-0.0170848 -3.43698e-05 0)
(-0.0108287 -3.87345e-05 0)
(-0.0038192 -4.21385e-05 0)
(0.00371099 -4.44171e-05 0)
(0.0115048 -4.52569e-05 0)
(0.0192995 -4.4527e-05 0)
(0.0268008 -4.23328e-05 0)
(0.0337369 -3.89856e-05 0)
(0.039869 -3.42187e-05 0)
(0.0449849 -2.8684e-05 0)
(0.0489269 -2.23639e-05 0)
(0.0516138 -1.58575e-05 0)
(0.0530712 -9.74962e-06 0)
(0.0534523 -4.07333e-06 0)
(0.0530513 -1.8161e-06 0)
(0.0523826 -2.44535e-06 0)
(-0.0376335 0.000231482 0)
(-0.0519899 0.000160162 0)
(-0.0581905 2.31852e-05 0)
(-0.0595401 5.01397e-06 0)
(-0.0578281 -3.61404e-05 0)
(-0.0537603 -4.54688e-05 0)
(-0.0506664 -4.17502e-05 0)
(-0.0475175 -3.68591e-05 0)
(-0.0448825 -4.58883e-05 0)
(-0.0407539 -6.51515e-05 0)
(-0.0358238 -7.88989e-05 0)
(-0.0303292 -7.95102e-05 0)
(-0.0253306 -7.35663e-05 0)
(-0.0209226 -5.91017e-05 0)
(-0.0179185 -4.14115e-05 0)
(-0.015941 -2.67632e-05 0)
(-0.0148128 -1.76138e-05 0)
(-0.0140712 -1.25758e-05 0)
(-0.0136088 -1.11968e-05 0)
(-0.013104 -1.24711e-05 0)
(-0.0125219 -1.50247e-05 0)
(-0.0116978 -1.78278e-05 0)
(-0.0107469 -1.9746e-05 0)
(-0.00976221 -1.8674e-05 0)
(-0.00895613 -1.559e-05 0)
(-0.00836777 -1.14949e-05 0)
(-0.00802417 -8.70426e-06 0)
(-0.00776168 -8.51961e-06 0)
(-0.00743472 -9.59982e-06 0)
(-0.00691435 -1.19066e-05 0)
(-0.00622464 -1.41509e-05 0)
(-0.00545217 -1.43761e-05 0)
(-0.00473541 -1.27192e-05 0)
(-0.00416764 -1.04042e-05 0)
(-0.00377888 -8.56175e-06 0)
(-0.00350875 -7.46208e-06 0)
(-0.00326388 -7.31339e-06 0)
(-0.00297078 -8.17866e-06 0)
(-0.00261274 -9.01489e-06 0)
(-0.00221836 -9.23148e-06 0)
(-0.00184993 -8.53029e-06 0)
(-0.00157226 -6.72524e-06 0)
(-0.00141092 -4.88465e-06 0)
(-0.00137551 -3.10848e-06 0)
(-0.00144318 -1.993e-06 0)
(-0.00155995 -1.26684e-06 0)
(-0.0016542 -1.71192e-06 0)
(-0.00167023 -2.74423e-06 0)
(-0.00158414 -5.14138e-06 0)
(-0.00137504 -7.57876e-06 0)
(-0.0010445 -9.47466e-06 0)
(-0.000615192 -1.07623e-05 0)
(-0.000125723 -1.12074e-05 0)
(0.000387322 -1.11841e-05 0)
(0.000874803 -1.05347e-05 0)
(0.00131015 -9.51124e-06 0)
(0.00168397 -8.288e-06 0)
(0.00197886 -6.89999e-06 0)
(0.00217518 -5.48695e-06 0)
(0.00228264 -4.17694e-06 0)
(0.00233555 -3.91573e-06 0)
(0.00234751 -3.40756e-06 0)
(0.00234514 -2.08134e-06 0)
(0.00231262 -5.30465e-07 0)
(0.00224198 -9.93034e-08 0)
(0.00216544 1.05955e-08 0)
(0.00205841 5.12455e-07 0)
(0.00195724 2.78541e-07 0)
(0.00185415 4.65325e-07 0)
(0.00169092 1.94371e-06 0)
(0.00147612 2.72828e-06 0)
(0.00123061 3.37221e-06 0)
(0.000966911 3.6468e-06 0)
(0.000703416 4.10446e-06 0)
(0.000467684 3.28244e-06 0)
(0.000349842 1.09407e-06 0)
(0.000348675 1.43727e-06 0)
(0.000423405 9.13978e-07 0)
(0.00057993 5.34479e-07 0)
(0.000705185 1.54319e-06 0)
(0.000699741 5.08502e-06 0)
(0.000536207 7.92088e-06 0)
(0.000194253 1.03618e-05 0)
(-0.000294354 1.21906e-05 0)
(-0.000878465 1.34065e-05 0)
(-0.00151996 1.38784e-05 0)
(-0.00216692 1.41308e-05 0)
(-0.00284791 1.59968e-05 0)
(-0.00374524 2.09714e-05 0)
(-0.00513168 2.94344e-05 0)
(-0.00715604 3.71691e-05 0)
(-0.00950662 3.70304e-05 0)
(-0.011514 2.61778e-05 0)
(-0.0124382 4.51146e-06 0)
(-0.0116893 -2.49866e-05 0)
(-0.00880315 -6.13744e-05 0)
(-0.00332105 -0.000103463 0)
(0.00496286 -0.000138808 0)
(0.0151373 -0.000142467 0)
(0.0238053 -9.34142e-05 0)
(0.027238 -2.74811e-06 0)
(0.024076 7.92286e-05 0)
(0.0173694 0.000104809 0)
(0.0114625 8.05706e-05 0)
(0.00735699 5.5243e-05 0)
(0.00471252 3.59051e-05 0)
(0.00306159 2.33762e-05 0)
(0.00203479 1.5562e-05 0)
(0.00138826 1.08246e-05 0)
(0.000969109 8.01434e-06 0)
(0.000681642 6.41157e-06 0)
(0.000465586 5.58929e-06 0)
(0.000280933 5.29297e-06 0)
(0.000100862 5.39684e-06 0)
(-9.70675e-05 5.84026e-06 0)
(-0.000334538 6.62135e-06 0)
(-0.000632414 7.74867e-06 0)
(-0.0010136 9.25295e-06 0)
(-0.00150369 1.11857e-05 0)
(-0.00213194 1.35998e-05 0)
(-0.00293109 1.65385e-05 0)
(-0.00393638 2.00475e-05 0)
(-0.00518411 2.41378e-05 0)
(-0.00670844 2.87164e-05 0)
(-0.00853651 3.36316e-05 0)
(-0.0106824 3.86353e-05 0)
(-0.0131388 4.33421e-05 0)
(-0.0158723 4.72231e-05 0)
(-0.0188176 4.97254e-05 0)
(-0.0218693 5.03059e-05 0)
(-0.0248814 4.83645e-05 0)
(-0.0276805 4.36298e-05 0)
(-0.0300748 3.58089e-05 0)
(-0.0318646 2.5023e-05 0)
(-0.032865 1.17166e-05 0)
(-0.0329397 -3.85104e-06 0)
(-0.0319841 -2.03153e-05 0)
(-0.0299247 -3.75686e-05 0)
(-0.0267365 -5.50248e-05 0)
(-0.0224396 -7.17005e-05 0)