/*--------------------------------*- C++ -*----------------------------------*\
| =========                 |                                                 |
| \\      /  F ield         | OpenFOAM: The Open Source CFD Toolbox           |
|  \\    /   O peration     | Version:  v1912                                 |
|   \\  /    A nd           | Website:  www.openfoam.com                      |
|    \\/     M anipulation  |                                                 |
\*---------------------------------------------------------------------------*/
FoamFile
{
    version     2.0;
    format      ascii;
    class       volScalarField;
    location    "100";
    object      nut;
}
// * * * * * * * * * * * * * * * * * * * * * * * * * * * * * * * * * * * * * //

dimensions      [0 2 -1 0 0 0 0];


internalField   nonuniform List<scalar> 
14268
(
8.43514e-05
9.14897e-05
9.89684e-05
0.000105845
0.000111724
0.00011764
0.000126703
0.000140887
0.000783303
0.00084925
0.000917761
0.000979334
0.00102927
0.00108044
0.00116872
0.00130398
0.00187034
0.0020286
0.00219163
0.00233491
0.00244766
0.00256556
0.00278431
0.00311302
0.00309173
0.00334955
0.00361745
0.00384967
0.00402862
0.00421763
0.00457397
0.00511992
0.00443286
0.00480533
0.0051915
0.00552287
0.00576905
0.00602993
0.00655131
0.00733335
0.00580851
0.00629563
0.00680375
0.0072361
0.00754807
0.0078764
0.00855928
0.00957524
0.00726706
0.00788076
0.00852121
0.00906122
0.00944031
0.00983697
0.0106996
0.0119593
0.00873434
0.00947386
0.0102493
0.0108983
0.0113405
0.0117982
0.0128374
0.0143264
0.0102703
0.0111432
0.0120601
0.0128217
0.0133323
0.0138535
0.0150713
0.0167986
0.0118047
0.0128101
0.0138712
0.0147466
0.0153198
0.0158964
0.0172899
0.0192344
0.013397
0.0145401
0.015746
0.0167377
0.0173795
0.0180157
0.019576
0.0217391
0.0149834
0.0162622
0.017616
0.0187254
0.0194285
0.0201158
0.0218385
0.0241986
0.0166153
0.0180378
0.019536
0.0207603
0.0215355
0.0222814
0.0241542
0.0266861
0.0182388
0.0198014
0.0214462
0.0227874
0.0236263
0.0244212
0.0264384
0.029121
0.0251937
0.0266477
0.0280863
0.0290927
0.0294508
0.0297091
0.0312254
0.0333611
0.0354891
0.0367916
0.0379303
0.0383786
0.0378264
0.0370893
0.0377442
0.0387901
0.0458068
0.0469284
0.0477383
0.0476659
0.0463501
0.0447049
0.0445846
0.0443235
0.0554684
0.05643
0.0569798
0.0564749
0.054455
0.0519442
0.0511353
0.049659
0.0646835
0.0655753
0.0658727
0.0649717
0.0624124
0.0592856
0.0577604
0.0549718
0.0731165
0.0739364
0.0740316
0.0728568
0.0697847
0.0661185
0.0640675
0.0599746
0.0807898
0.0817085
0.0816321
0.0802152
0.0769576
0.0729522
0.0703354
0.0653905
0.101584
0.103315
0.105196
0.106314
0.106545
0.106467
0.1085
0.107019
0.115863
0.118143
0.121317
0.125181
0.12961
0.135317
0.143467
0.152308
0.112243
0.114259
0.118168
0.12365
0.130951
0.139633
0.150903
0.167158
0.0924122
0.0954626
0.100728
0.108278
0.11787
0.129306
0.141894
0.160387
0.0499508
0.0561827
0.0643267
0.0744753
0.0858379
0.0962366
0.104689
0.119646
0.0188675
0.0250424
0.0337692
0.044876
0.055137
0.060979
0.0629005
0.0671557
0.00404987
0.00763271
0.0137526
0.0228739
0.0319399
0.0327566
0.028542
0.0261708
0.0002531
0.000815586
0.00246258
0.00668017
0.010237
0.0105148
0.00785088
0.005376
0.0107367
0.00511162
0.00281911
0.002793
0.00428036
0.00457308
0.00264991
0.000770481
0.0392304
0.0351417
0.0313556
0.0295894
0.0284132
0.0262516
0.0233822
0.0230131
0.0555517
0.0522831
0.049888
0.0501314
0.0522155
0.0515103
0.0502908
0.0491361
0.0818902
0.0763677
0.0732646
0.0762061
0.0836429
0.0918095
0.0960494
0.0934966
0.119975
0.117193
0.116104
0.121531
0.130618
0.138261
0.142495
0.13893
0.169058
0.167932
0.17064
0.180032
0.192428
0.201565
0.205645
0.207504
0.207732
0.209186
0.215035
0.226197
0.237845
0.246039
0.248903
0.253309
0.245711
0.251322
0.259472
0.273159
0.288415
0.299776
0.308478
0.320883
0.270211
0.280017
0.291083
0.305268
0.321123
0.332643
0.343642
0.359805
0.289382
0.301221
0.316034
0.333758
0.351627
0.368626
0.388035
0.411515
0.298749
0.312597
0.329548
0.348944
0.365372
0.37896
0.39208
0.414785
0.30171
0.31725
0.335121
0.354483
0.372607
0.385531
0.397468
0.420645
0.295447
0.312895
0.330192
0.349994
0.370785
0.383873
0.397637
0.422902
0.288464
0.309358
0.327682
0.347808
0.370229
0.39175
0.415601
0.446129
0.283271
0.306065
0.325953
0.345827
0.364746
0.387602
0.4166
0.453902
0.28103
0.303851
0.32364
0.342186
0.36022
0.385172
0.418312
0.458819
0.277574
0.29901
0.317453
0.335704
0.356975
0.384789
0.416975
0.444876
0.272357
0.290627
0.308076
0.326911
0.349323
0.376581
0.401302
0.422224
0.264314
0.280135
0.297136
0.315247
0.33359
0.351835
0.372323
0.398856
0.25918
0.273932
0.29056
0.307519
0.32278
0.337812
0.358723
0.390102
0.256272
0.270792
0.286914
0.303504
0.319883
0.337903
0.358294
0.390412
0.251987
0.267101
0.283203
0.299992
0.31804
0.33575
0.355421
0.386196
0.245448
0.261464
0.27775
0.293506
0.308607
0.321327
0.340613
0.373212
0.237338
0.253483
0.268412
0.279546
0.287785
0.300924
0.326143
0.364793
0.227556
0.240885
0.251316
0.260623
0.270899
0.28898
0.320498
0.363467
0.217095
0.227065
0.236195
0.247391
0.263091
0.285975
0.32032
0.363929
0.206334
0.216342
0.226619
0.239761
0.258541
0.284014
0.317805
0.360428
0.195696
0.207511
0.218978
0.233806
0.254446
0.281284
0.314143
0.353121
0.184891
0.198451
0.211376
0.227541
0.24967
0.27771
0.31175
0.346081
0.173858
0.188979
0.203285
0.220854
0.244509
0.274472
0.31079
0.342857
0.162299
0.178892
0.194724
0.213866
0.239173
0.271007
0.309518
0.33999
0.150581
0.168633
0.186149
0.206975
0.233674
0.266912
0.306137
0.33302
0.139009
0.158469
0.177524
0.199697
0.227313
0.260865
0.294489
0.318977
0.127648
0.148197
0.168421
0.191581
0.219887
0.252934
0.280367
0.306225
0.115979
0.137286
0.158419
0.182318
0.211283
0.24439
0.271863
0.300289
0.104143
0.125741
0.14752
0.172037
0.201753
0.235612
0.266389
0.2986
0.0922319
0.113619
0.135765
0.160714
0.1912
0.226026
0.259573
0.295974
0.0805373
0.101212
0.123354
0.148548
0.179635
0.215389
0.251065
0.289704
0.0693851
0.088757
0.110402
0.135512
0.166978
0.203524
0.240643
0.27912
0.0591693
0.0767164
0.0973142
0.121993
0.153507
0.190668
0.228935
0.267191
0.0501223
0.0653651
0.0843751
0.108196
0.139371
0.177013
0.216423
0.255872
0.0419056
0.0548865
0.0721159
0.0946494
0.125019
0.162757
0.203231
0.244707
0.03461
0.0455056
0.0607573
0.0815346
0.110641
0.147996
0.189219
0.232743
0.0284099
0.0375236
0.0506966
0.0693792
0.0966992
0.133051
0.174489
0.219624
0.0233272
0.0308145
0.0418728
0.0582838
0.0833509
0.118154
0.159235
0.205389
0.0189466
0.025107
0.0343167
0.0485407
0.0710353
0.103631
0.143664
0.190166
0.0153154
0.0204023
0.0280774
0.0402001
0.0599967
0.0899166
0.128186
0.174334
0.0124093
0.0167147
0.0231895
0.0335389
0.0508092
0.077806
0.113698
0.158695
0.00711524
0.00991065
0.0141015
0.0209816
0.0326945
0.0517401
0.0795259
0.1177
0.0013729
0.00203578
0.00314129
0.00516538
0.00917892
0.0164072
0.0282516
0.0481436
0.000162412
0.00024275
0.000393473
0.000694257
0.00138975
0.00292221
0.0058774
0.0115342
1.47359e-05
1.94087e-05
2.94769e-05
5.27381e-05
0.000108212
0.000248318
0.000565884
0.00124205
1.30326e-06
1.3797e-06
1.65913e-06
2.39887e-06
3.96589e-06
7.95432e-06
1.81576e-05
4.17017e-05
4.69861e-07
4.70298e-07
4.74319e-07
4.83109e-07
4.94999e-07
5.13045e-07
5.53974e-07
6.29286e-07
4.99721e-07
4.98726e-07
4.944e-07
4.88445e-07
4.82642e-07
4.76383e-07
4.67779e-07
4.60603e-07
5.39699e-07
5.40426e-07
5.41107e-07
5.41509e-07
5.41888e-07
5.4253e-07
5.43609e-07
5.44384e-07
5.51684e-07
5.53722e-07
5.55808e-07
5.57591e-07
5.5893e-07
5.59851e-07
5.60476e-07
5.61399e-07
5.79998e-07
5.80309e-07
5.80649e-07
5.81089e-07
5.81566e-07
5.81932e-07
5.82143e-07
5.82231e-07
0.000144548
0.000155003
0.000162287
0.000166375
0.000177186
0.000189581
0.000189219
0.000182451
0.000165335
0.00013533
0.000109734
0.000105125
0.00010731
0.00010731
0.000105941
0.000103483
9.82779e-05
8.92202e-05
7.68726e-05
6.71587e-05
6.15797e-05
5.94949e-05
5.93868e-05
6.04187e-05
6.24916e-05
6.53348e-05
6.7491e-05
6.82444e-05
6.83694e-05
6.83352e-05
6.83085e-05
6.83268e-05
6.84225e-05
6.8577e-05
6.89393e-05
6.98423e-05
7.04981e-05
7.01187e-05
6.89154e-05
6.74858e-05
6.72757e-05
6.86389e-05
7.34514e-05
8.06017e-05
8.59048e-05
8.75954e-05
8.69704e-05
8.3904e-05
7.91852e-05
7.45288e-05
7.09002e-05
6.69413e-05
6.19727e-05
5.88239e-05
5.82355e-05
5.8687e-05
5.98141e-05
6.18711e-05
6.51014e-05
6.87646e-05
7.03311e-05
7.03815e-05
7.01534e-05
7.00558e-05
7.0277e-05
7.1083e-05
7.2622e-05
7.48982e-05
7.77744e-05
8.09962e-05
8.43342e-05
8.75095e-05
9.0165e-05
9.22096e-05
9.40209e-05
9.59245e-05
9.77419e-05
9.95871e-05
0.00010162
0.00010452
0.000107257
0.000107934
0.00010754
0.000106267
0.000104723
0.000103366
0.000101613
0.000101314
0.000102552
0.000103649
0.00010532
0.000110862
0.000121633
0.000129732
0.000133438
0.000136275
0.000139252
0.000139281
0.000132646
0.000111439
7.74973e-05
5.16691e-05
3.4555e-05
2.38459e-05
1.78033e-05
1.49074e-05
1.37852e-05
1.34665e-05
1.34432e-05
1.3613e-05
1.53854e-05
2.83435e-05
5.17944e-05
7.012e-05
7.55004e-05
7.51731e-05
6.94866e-05
5.11846e-05
3.1983e-05
2.58069e-05
2.31765e-05
2.13098e-05
1.98352e-05
1.87235e-05
1.79847e-05
1.76258e-05
1.75705e-05
1.77226e-05
1.81744e-05
1.88928e-05
1.97458e-05
2.05539e-05
2.11778e-05
2.17111e-05
2.21979e-05
2.26154e-05
2.29358e-05
2.30667e-05
2.29994e-05
2.26841e-05
2.21857e-05
2.16255e-05
2.10622e-05
2.06976e-05
2.06416e-05
2.07358e-05
2.07225e-05
2.07192e-05
2.06674e-05
2.1065e-05
2.2691e-05
2.50467e-05
2.63721e-05
2.65766e-05
2.6848e-05
2.71816e-05
0.00132596
0.00143225
0.00149783
0.00152084
0.00164144
0.00177402
0.00176904
0.00170153
0.00153849
0.00123267
0.000971868
0.000936554
0.000986658
0.00098942
0.000976404
0.000955337
0.000907153
0.000820323
0.000700639
0.000606772
0.000551563
0.000530223
0.000530594
0.000546396
0.000569958
0.000598246
0.000619839
0.000628025
0.000629649
0.00062975
0.000629898
0.000630113
0.000630954
0.000632221
0.000635349
0.000644374
0.000651607
0.000648608
0.000637306
0.000622678
0.000618445
0.000632992
0.000693441
0.000771388
0.000815312
0.000828186
0.000817873
0.000781592
0.000729323
0.000682904
0.000653854
0.000622304
0.000573156
0.000538432
0.000533078
0.000541058
0.000553067
0.000572569
0.000602933
0.000637901
0.000652239
0.000651301
0.000648054
0.000646346
0.000647978
0.000655671
0.000670471
0.000692248
0.000719586
0.000749866
0.000780681
0.000810776
0.000835824
0.0008548
0.000870171
0.00088914
0.000906426
0.000923234
0.000939373
0.000963615
0.000991566
0.00100138
0.00099904
0.00098601
0.00096533
0.000948156
0.00092231
0.000912716
0.000939878
0.000956615
0.000969241
0.00100995
0.00110849
0.00118193
0.0012122
0.00123201
0.0012693
0.00128766
0.00125618
0.00108889
0.000767357
0.000513585
0.000338578
0.000226497
0.000162243
0.000132181
0.000121069
0.000118303
0.000118549
0.00012454
0.000191329
0.00049479
0.000787914
0.000895839
0.000936511
0.000950538
0.000954233
0.000842173
0.000417481
0.000266162
0.000224978
0.000203883
0.000188056
0.000175938
0.000167384
0.000162677
0.000159672
0.000158255
0.000160161
0.000164435
0.000169228
0.000172908
0.000175698
0.000179313
0.000184543
0.000190897
0.000198702
0.000205352
0.000207289
0.000203144
0.000194938
0.000184351
0.000171734
0.000159505
0.000151335
0.00014837
0.000146415
0.000146428
0.000146763
0.000152819
0.000174713
0.000214634
0.00024012
0.000241236
0.000243458
0.000243186
0.00315399
0.0034216
0.00358332
0.00362065
0.00392578
0.0042702
0.00425943
0.00408875
0.0036692
0.00291425
0.0022897
0.00221448
0.00233763
0.00234735
0.00231855
0.00227181
0.00215679
0.00194308
0.00164832
0.00142003
0.00128749
0.00123699
0.00124093
0.00127711
0.00133616
0.00140829
0.00146434
0.00148651
0.00149142
0.00149231
0.00149301
0.00149353
0.00149535
0.00149763
0.00150425
0.00152702
0.00154707
0.00153901
0.00151153
0.00147717
0.0014696
0.00151422
0.00167141
0.00187448
0.00197864
0.00200995
0.00197918
0.00187455
0.00173676
0.00162375
0.0015517
0.00147908
0.00135893
0.00127074
0.00126018
0.00127729
0.00130632
0.00135535
0.00143202
0.00152019
0.00155455
0.00154833
0.00153671
0.00153022
0.00153345
0.00155194
0.00158811
0.00164131
0.0017079
0.00178138
0.00185554
0.00192811
0.00198816
0.00203216
0.00206924
0.00211325
0.00215442
0.00219272
0.00222911
0.00228696
0.00235619
0.00237982
0.00237442
0.00234162
0.0022848
0.00223343
0.00216931
0.00215561
0.00221035
0.00224375
0.0022664
0.00235728
0.00259
0.00277419
0.00284562
0.00290615
0.00301
0.00308552
0.00305883
0.00270613
0.00192828
0.00127637
0.000820957
0.000530929
0.000371562
0.000300913
0.000276876
0.000272717
0.000277145
0.000317853
0.000617338
0.00154153
0.00235443
0.00257547
0.00267237
0.0027278
0.00280049
0.00262125
0.0012938
0.000699502
0.000551585
0.000487791
0.000443469
0.000410746
0.000389139
0.000375243
0.000365472
0.000361588
0.000366118
0.000376367
0.000388658
0.000400773
0.000411401
0.000423577
0.000437616
0.000453257
0.000469702
0.000479134
0.000478372
0.000466684
0.000446344
0.000422575
0.000396877
0.000372378
0.000359434
0.000356755
0.000353994
0.000354293
0.000354957
0.000369324
0.000420302
0.000504708
0.000554263
0.000557509
0.000563832
0.000571284
0.00519017
0.00563779
0.0059123
0.00595641
0.00649437
0.00709231
0.00707286
0.00678284
0.00607209
0.00479169
0.00373998
0.00362492
0.00384647
0.00386113
0.0038131
0.00373636
0.00354981
0.00319739
0.00270823
0.00232464
0.00210201
0.00201735
0.00202755
0.00209184
0.00219051
0.0023116
0.00240618
0.00244452
0.00245387
0.00245666
0.00245837
0.00245946
0.00246278
0.00246672
0.0024778
0.00251687
0.00255131
0.00254138
0.00250139
0.00244611
0.00243264
0.00251563
0.00279808
0.00315299
0.00331737
0.00336135
0.00329986
0.00312233
0.00288905
0.00269868
0.00257751
0.00245931
0.00225267
0.00209796
0.00208095
0.0021104
0.00215789
0.0022392
0.00236666
0.00251384
0.00256917
0.0025572
0.00253823
0.00252818
0.00253399
0.00256453
0.00262497
0.00271369
0.00282473
0.00294762
0.00307203
0.00319425
0.00329548
0.00336654
0.00342819
0.0034992
0.00356621
0.00362595
0.0036825
0.00378032
0.00390069
0.0039402
0.00393239
0.00387383
0.00376802
0.00367079
0.00356385
0.00354372
0.0036378
0.00369149
0.00371362
0.00385406
0.00422955
0.00453439
0.00464454
0.00475951
0.00494027
0.00511313
0.00513199
0.00461734
0.00331657
0.00216774
0.00136384
0.000860214
0.000591977
0.000478131
0.000443287
0.000441559
0.000460246
0.000593335
0.00128224
0.00291943
0.00437583
0.00479972
0.00499243
0.00510801
0.00526757
0.00499273
0.00264555
0.00127169
0.000929143
0.000798744
0.000717794
0.000663823
0.000628271
0.000605334
0.000588787
0.000582957
0.000590779
0.00060766
0.000628992
0.000651693
0.000671908
0.000693812
0.000716776
0.000742435
0.000766382
0.000777562
0.000774564
0.000754406
0.000721601
0.000685405
0.000648167
0.000612864
0.000598348
0.000596803
0.000593329
0.00059378
0.000594056
0.000616268
0.000695689
0.000823208
0.000895706
0.00090222
0.000917604
0.000933416
0.00741055
0.00806072
0.00846022
0.0085071
0.00930412
0.0101863
0.0101626
0.00973514
0.0086859
0.00682286
0.00530743
0.00516137
0.00547861
0.00550678
0.00544625
0.00534487
0.00507766
0.00456107
0.0038434
0.00328739
0.00296849
0.00284939
0.00286802
0.00295841
0.00310203
0.0032825
0.00342452
0.00348297
0.00349798
0.00350301
0.00350589
0.0035076
0.00351217
0.00351718
0.00353243
0.0035911
0.00364409
0.00362958
0.00356933
0.00349235
0.00347863
0.00361201
0.00403599
0.00456758
0.00480566
0.00486707
0.00476865
0.00449126
0.00414337
0.0038702
0.00369014
0.00351691
0.00321492
0.00298622
0.00296186
0.00300209
0.00306972
0.00319035
0.00338018
0.00359798
0.00367702
0.00365505
0.00362159
0.00360233
0.00360861
0.00365226
0.00373899
0.00386785
0.00402966
0.00420787
0.00438664
0.004562
0.00470808
0.00481009
0.00489837
0.00499768
0.00509145
0.00517264
0.00524775
0.00539039
0.00556605
0.00562308
0.00561229
0.00552509
0.00536124
0.00520946
0.00505819
0.00503719
0.00515448
0.00521603
0.00523656
0.00543164
0.005974
0.00642104
0.00658565
0.00677156
0.00705317
0.00735483
0.00747271
0.00681857
0.00491249
0.0031632
0.00194553
0.00119939
0.000815531
0.000658355
0.000616182
0.000621574
0.000673452
0.000976137
0.00215943
0.00451476
0.00664902
0.00737254
0.0077085
0.00789497
0.00813525
0.00773144
0.00444735
0.00199979
0.00135443
0.0011303
0.00100779
0.000929882
0.000878416
0.000845149
0.000822173
0.000815486
0.000827761
0.000852604
0.000885174
0.000921106
0.000952894
0.000984824
0.00101734
0.00105231
0.00108165
0.00109345
0.00108713
0.00105882
0.00101509
0.000967938
0.000919467
0.00087522
0.000861131
0.000861901
0.000858483
0.000858834
0.000858281
0.000887483
0.000994635
0.00116328
0.00126059
0.00127077
0.00129198
0.0013193
0.00967686
0.010533
0.0110708
0.0111075
0.012203
0.0133842
0.0133521
0.0127832
0.0113888
0.00890328
0.00689975
0.00672044
0.00715207
0.00718486
0.00710919
0.00698213
0.00663503
0.00595439
0.00500758
0.00426872
0.00384804
0.00369238
0.00372154
0.00384591
0.00403355
0.00427307
0.00446319
0.00454256
0.00456402
0.00457258
0.00457699
0.00457936
0.00458557
0.00459186
0.00461193
0.00469137
0.00476305
0.0047477
0.00467506
0.00457687
0.00455862
0.00474869
0.00533522
0.00605137
0.0063575
0.00642826
0.00628425
0.00591065
0.00544854
0.0050894
0.00484882
0.00461828
0.00421272
0.00390216
0.00386891
0.00392339
0.00401008
0.00416912
0.00442147
0.00471116
0.00481394
0.0047819
0.00473615
0.00471047
0.00471923
0.00477632
0.00488964
0.00505874
0.00527215
0.00550775
0.00574451
0.00597743
0.00617276
0.00630689
0.00642229
0.00654989
0.00667014
0.00677078
0.006862
0.00705284
0.00728893
0.00736658
0.00735324
0.00723221
0.0069989
0.00678596
0.00658586
0.00655626
0.00670757
0.00678097
0.00678453
0.00703188
0.00774847
0.008342
0.00856082
0.00882487
0.00921289
0.00967534
0.00992225
0.00916858
0.00661797
0.00420506
0.00253614
0.00153661
0.00103563
0.000837244
0.000793002
0.000811218
0.000925804
0.00147921
0.00321932
0.00626882
0.00907001
0.0101653
0.0106888
0.0109535
0.0112649
0.0107124
0.00663011
0.0028868
0.00181436
0.00146808
0.00129844
0.0011946
0.00112895
0.00108816
0.00106029
0.00105347
0.00107048
0.00110326
0.00114743
0.0011965
0.00123879
0.00128008
0.00132189
0.00136612
0.0014012
0.00141531
0.00140725
0.00137137
0.00131723
0.0012598
0.00120148
0.00114968
0.00113656
0.00113952
0.00113549
0.00113504
0.00113286
0.00116828
0.00130153
0.00151148
0.00163272
0.0016464
0.00167576
0.00171183
0.0120716
0.0131483
0.0138183
0.0138581
0.015247
0.0167557
0.0167286
0.0159945
0.0142003
0.0110658
0.00857095
0.00836846
0.00890076
0.00894985
0.00886825
0.00872151
0.00828677
0.00741968
0.00621201
0.00527785
0.00475221
0.00456231
0.00460395
0.00475774
0.00499467
0.0053028
0.00554906
0.00565288
0.00568194
0.00569405
0.00570006
0.00570331
0.00571056
0.00571805
0.00574261
0.00584584
0.00593995
0.00592025
0.00582361
0.00570656
0.00569104
0.00594833
0.00670563
0.00762466
0.0080091
0.00809281
0.00789783
0.00740345
0.00681461
0.00636926
0.0060617
0.00576494
0.00525014
0.0048518
0.0048078
0.00487451
0.00498243
0.00518606
0.00551074
0.00588216
0.00600988
0.00596421
0.00589851
0.00585994
0.00586703
0.00593723
0.00607953
0.00629332
0.0065633
0.00686043
0.00715733
0.00744839
0.0076922
0.00786131
0.00800487
0.00816107
0.00830771
0.00842745
0.008533
0.0087805
0.00907732
0.00917307
0.00915766
0.00900203
0.00869725
0.0084173
0.00817185
0.00813498
0.00830047
0.00837258
0.00836014
0.00866861
0.00957838
0.0103331
0.0106255
0.0109765
0.0114963
0.0121524
0.0125805
0.0117473
0.00847046
0.00531105
0.00314372
0.00187553
0.00125662
0.00101891
0.000976834
0.00101616
0.00123011
0.00210643
0.00443681
0.00814757
0.0115874
0.0131055
0.013856
0.0142034
0.0145741
0.0138633
0.00912197
0.00396754
0.00233099
0.00182675
0.00159898
0.00146652
0.0013861
0.00133708
0.0013048
0.0012986
0.00132118
0.00136302
0.00142032
0.00148384
0.00153832
0.00158951
0.00164048
0.00169356
0.0017333
0.00174865
0.00173782
0.00169529
0.00163214
0.0015652
0.00149632
0.00143744
0.00142651
0.00143274
0.00142865
0.00142795
0.00142368
0.00146431
0.00162369
0.00187502
0.0020218
0.00203854
0.00207198
0.00211873
0.0144685
0.0157648
0.016581
0.0166088
0.0183236
0.0201665
0.0201428
0.0192433
0.0170495
0.013236
0.0102377
0.0100106
0.0106602
0.0107162
0.0106261
0.0104603
0.00993916
0.00888759
0.0074229
0.00628658
0.00565254
0.00542707
0.00548299
0.00567364
0.00595776
0.00633314
0.00663543
0.00676422
0.00680163
0.00681856
0.00682665
0.00683057
0.00683905
0.00684753
0.00687715
0.00700493
0.00712128
0.007101
0.00698839
0.006853
0.00683533
0.00716692
0.00811265
0.00923526
0.00969036
0.00977948
0.00952448
0.00891444
0.00820237
0.00767143
0.00729718
0.00693246
0.00630308
0.00581078
0.0057545
0.00583656
0.00596395
0.00621054
0.00660696
0.00706005
0.00721282
0.00715386
0.00706993
0.00702121
0.00702858
0.00711215
0.00728267
0.00754038
0.00786677
0.00822625
0.00858565
0.00893787
0.00923363
0.00943964
0.00961119
0.00979568
0.00996806
0.0101045
0.0102213
0.0105275
0.0108876
0.0110061
0.0109887
0.0107935
0.0104065
0.010054
0.00975625
0.00970458
0.00988759
0.00995468
0.00992234
0.0102935
0.0114065
0.0123254
0.0126923
0.0131318
0.0137912
0.0146641
0.0153017
0.0144312
0.0103927
0.00644071
0.00374991
0.00220948
0.00147401
0.00120093
0.00116674
0.00123914
0.00159369
0.00285225
0.00578772
0.0101245
0.0141661
0.0161371
0.0171454
0.0175797
0.0180008
0.0171307
0.0118491
0.00524701
0.00290026
0.00219574
0.00189858
0.00173613
0.0016422
0.00158733
0.00155175
0.00154647
0.00157464
0.00162539
0.00169563
0.00177339
0.00183914
0.00189925
0.00196014
0.0020223
0.00206744
0.00208496
0.00207282
0.0020235
0.00195127
0.00187486
0.00179675
0.00173136
0.00172252
0.00173171
0.00172728
0.00172488
0.00171835
0.00176412
0.00194957
0.00224376
0.00241396
0.00243335
0.00247234
0.00252735
0.0169755
0.0185028
0.0194486
0.0194897
0.0215181
0.0237194
0.0237058
0.0226136
0.0199695
0.015475
0.0119904
0.0117336
0.0124826
0.0125547
0.0124635
0.0122824
0.0116683
0.0104137
0.00866287
0.00731264
0.0065681
0.0063107
0.0063823
0.00660423
0.00694128
0.00739312
0.00775912
0.00791631
0.00796327
0.00798493
0.00799513
0.008
0.00800872
0.00801838
0.00805291
0.00820808
0.00834976
0.00832483
0.00818424
0.00803428
0.00802208
0.0084365
0.00957521
0.0109152
0.0114467
0.0115435
0.011221
0.0104764
0.00963202
0.00901916
0.00857486
0.00813489
0.00738692
0.00679558
0.00672377
0.00681816
0.00696728
0.00726199
0.0077378
0.0082821
0.00846075
0.00838423
0.00827557
0.00821048
0.00821395
0.00831024
0.00851146
0.00881707
0.00920419
0.00962941
0.0100529
0.0104662
0.010812
0.0110558
0.0112565
0.0114694
0.011668
0.0118221
0.0119511
0.0123269
0.012749
0.0128836
0.0128654
0.0126308
0.0121614
0.0117312
0.0113873
0.0113188
0.0114993
0.0115504
0.0115004
0.0119457
0.0132738
0.0143685
0.0148308
0.0153687
0.0161878
0.0173131
0.0181992
0.0172992
0.0124275
0.0076159
0.00436683
0.00254498
0.00169394
0.00138898
0.00136676
0.00148625
0.00202453
0.00371101
0.00725364
0.0121817
0.0167873
0.019228
0.0205185
0.0210426
0.0215055
0.0204804
0.0147541
0.00675171
0.00355032
0.00258988
0.00220787
0.00201208
0.00190409
0.00184272
0.00180404
0.00180009
0.00183444
0.00189508
0.0019793
0.00207195
0.00214997
0.00222057
0.00229022
0.00236081
0.00241096
0.00243028
0.00241586
0.00236076
0.00228048
0.00219505
0.0021066
0.00203452
0.0020288
0.00204194
0.00203727
0.00203406
0.00202502
0.00207518
0.00228674
0.00262304
0.00282029
0.00284193
0.00288314
0.00294705
0.0194671
0.0212209
0.0223116
0.0223521
0.0247186
0.0272834
0.0272821
0.0259963
0.0229015
0.0177018
0.0137272
0.01344
0.014302
0.0143816
0.0142878
0.014093
0.0133867
0.0119307
0.00989919
0.00833028
0.00747279
0.00718259
0.00727153
0.00753149
0.00791887
0.00844578
0.00887506
0.00906105
0.00911841
0.00914599
0.00915888
0.00916436
0.00917322
0.00918391
0.009224
0.00940646
0.00957374
0.0095477
0.00938634
0.00922122
0.00921126
0.00971564
0.0110621
0.0126168
0.0132151
0.0133145
0.0129137
0.0120413
0.0110677
0.0103774
0.00986433
0.00934762
0.00847728
0.00778191
0.00769296
0.00780251
0.00797132
0.00831231
0.00886698
0.0095016
0.00970621
0.00961287
0.00948058
0.00940142
0.00940263
0.00951169
0.00974261
0.0100951
0.0105424
0.0110335
0.0115227
0.0119991
0.0123979
0.0126815
0.0129111
0.013152
0.0133761
0.0135455
0.0136841
0.0141293
0.0146154
0.0147714
0.014753
0.0144745
0.0139128
0.0133992
0.0130008
0.0129098
0.0130877
0.0131179
0.0130489
0.0135741
0.0151256
0.0163992
0.0169586
0.0175912
0.0185822
0.0199752
0.0211381
0.0202439
0.0145164
0.00880637
0.00498132
0.00287632
0.00191186
0.00158102
0.00157698
0.00176006
0.00252456
0.00467267
0.008817
0.0143034
0.0194349
0.0223503
0.0239398
0.0245562
0.0250551
0.0238821
0.0177839
0.00848021
0.00427903
0.00300122
0.00251976
0.00228775
0.00216556
0.00209876
0.00205754
0.00205497
0.00209541
0.00216583
0.00226376
0.00237136
0.00246164
0.00254162
0.00262143
0.00270118
0.0027565
0.00277739
0.00276163
0.00269991
0.00261122
0.00251681
0.00241926
0.00234066
0.00233794
0.00235497
0.00235029
0.0023454
0.00233322
0.00238842
0.00262694
0.00300675
0.0032278
0.00325121
0.00329564
0.00336706
0.0220587
0.0240475
0.0252494
0.0253129
0.0280103
0.0309625
0.0309792
0.0294757
0.0258897
0.0199983
0.0155548
0.0152222
0.0161791
0.0162738
0.0161783
0.0159702
0.0151667
0.0134966
0.0111594
0.00936007
0.00838782
0.00806902
0.00817563
0.0084687
0.00891268
0.00952324
0.0100233
0.0102414
0.0103104
0.0103437
0.0103592
0.0103655
0.0103734
0.0103847
0.0104307
0.0106427
0.0108382
0.0108057
0.0106135
0.0104374
0.010438
0.0110374
0.0125963
0.0143755
0.0150409
0.0151422
0.0146547
0.0136384
0.0125334
0.0117699
0.0111865
0.0105866
0.00959045
0.00878635
0.00867652
0.0087993
0.00899069
0.00938272
0.0100214
0.0107551
0.0109865
0.010873
0.0107114
0.0106129
0.0106083
0.0107298
0.0109928
0.0113957
0.0119069
0.0124671
0.0130235
0.0135629
0.0140124
0.0143353
0.0145956
0.0148647
0.0151151
0.0153021
0.0154545
0.0159788
0.0165263
0.0166954
0.0166752
0.0163546
0.0157016
0.0150995
0.0146519
0.0145318
0.0146914
0.0146926
0.0146066
0.0152243
0.0170055
0.0184717
0.0191484
0.0198874
0.0210647
0.0227593
0.0242209
0.0233276
0.0166897
0.0100299
0.00560477
0.00321108
0.00213473
0.00178285
0.00180153
0.00206641
0.00309641
0.00572964
0.0104647
0.0164784
0.0220997
0.0254881
0.0273879
0.0280988
0.0286282
0.0273167
0.0209008
0.0104437
0.0051119
0.00344656
0.00284348
0.00256998
0.00243242
0.00235948
0.00231569
0.00231465
0.00236157
0.00244246
0.00255459
0.00267705
0.00277953
0.00287047
0.00295949
0.00304751
0.00310865
0.00313173
0.00311383
0.00304645
0.00295002
0.00284656
0.00273811
0.00265316
0.0026544
0.00267585
0.00267119
0.00266509
0.0026505
0.00270923
0.00297487
0.00339808
0.00364734
0.00367237
0.0037178
0.00379618
0.0246277
0.0268436
0.0281767
0.0282525
0.0312982
0.0346397
0.0346777
0.0329539
0.0288744
0.0222743
0.0173617
0.0169865
0.0180459
0.0181488
0.0180506
0.0178317
0.0169307
0.0150475
0.0124103
0.0103775
0.00928886
0.00894113
0.0090668
0.00939858
0.00989644
0.0105896
0.0111599
0.0114105
0.0114921
0.0115323
0.011551
0.0115576
0.011564
0.011576
0.0116285
0.0118694
0.0120941
0.012058
0.0118413
0.0116528
0.0116628
0.0123636
0.0141473
0.0161467
0.0168687
0.0169668
0.0163821
0.0152281
0.0139978
0.0131652
0.0125144
0.0118304
0.0107058
0.00978914
0.00965647
0.00979458
0.0100063
0.0104474
0.0111698
0.0120018
0.0122598
0.0121267
0.0119366
0.0118204
0.0118114
0.0119452
0.0122392
0.0126916
0.013266
0.013895
0.0145196
0.0151236
0.0156263
0.0159908
0.0162811
0.016578
0.0168544
0.0170568
0.0172203
0.0178228
0.0184337
0.018621
0.0186003
0.0182334
0.0174796
0.016783
0.016277
0.0161238
0.0162633
0.0162305
0.0161268
0.0168453
0.0188629
0.0205241
0.0213202
0.0221607
0.0235375
0.0255447
0.0273324
0.0264676
0.0189045
0.0112648
0.00622696
0.00354347
0.00235817
0.00199295
0.00204041
0.00240741
0.00373809
0.00687202
0.0121841
0.0186959
0.0247728
0.0286263
0.0308424
0.0316494
0.0322053
0.0307652
0.0240772
0.012615
0.00605114
0.00392167
0.00317453
0.00285373
0.00269935
0.00262029
0.00257415
0.00257461
0.00262786
0.00271916
0.00284529
0.00298291
0.00309822
0.00319982
0.00329865
0.00339591
0.00346297
0.00348717
0.00346743
0.00339322
0.00328864
0.0031764
0.00305838
0.00296721
0.00297239
0.00299865
0.00299426
0.00298648
0.00296854
0.00303276
0.00332567
0.00379264
0.00406701
0.00409305
0.00414005
0.00422493
0.027288
0.0297219
0.0311149
0.0312005
0.0346052
0.0383826
0.0384689
0.0365156
0.0319061
0.0246086
0.0192515
0.0188166
0.0199667
0.0200809
0.0199758
0.0197425
0.0187411
0.0166385
0.0136821
0.0114033
0.0101956
0.0098224
0.00996723
0.0103352
0.0108938
0.0116771
0.0123245
0.0126105
0.0127054
0.0127521
0.012774
0.0127817
0.0127864
0.0127979
0.0128578
0.0131283
0.0133861
0.0133412
0.0130923
0.0128951
0.0129204
0.013726
0.0157403
0.0179651
0.0187394
0.0188293
0.0181369
0.0168352
0.0154835
0.0145838
0.0138653
0.0130928
0.0118365
0.0108029
0.0106436
0.0107973
0.0110332
0.0115278
0.0123369
0.0132712
0.0135591
0.0134051
0.0131818
0.0130437
0.0130274
0.0131735
0.0135008
0.0140056
0.0146464
0.0153471
0.0160415
0.01671
0.0172634
0.0176678
0.0179904
0.0183154
0.0186184
0.0188395
0.0190214
0.0197084
0.020379
0.0205775
0.0205517
0.0201423
0.0192885
0.0184931
0.0179314
0.017736
0.0178441
0.0177712
0.0176507
0.0184811
0.0207407
0.0226144
0.0235477
0.0245054
0.0260929
0.0284376
0.0305545
0.0297041
0.0211794
0.0125234
0.00685718
0.00388128
0.00258948
0.00221667
0.00229675
0.0027884
0.0044492
0.0080927
0.0139658
0.0209482
0.0274491
0.0317564
0.0342909
0.0351953
0.035774
0.0342159
0.0272947
0.014974
0.00711746
0.00444241
0.00352182
0.0031445
0.00297088
0.00288533
0.00283678
0.00283865
0.00289838
0.00300038
0.00314036
0.00329259
0.00341993
0.00353235
0.00364161
0.00374824
0.00382151
0.00384825
0.00382636
0.00374606
0.00363351
0.00351147
0.00338244
0.00328533
0.0032952
0.00332652
0.00332247
0.00331347
0.00329315
0.00336064
0.00368146
0.00419271
0.00449671
0.00452409
0.00457153
0.00466107
0.0299254
0.0325661
0.0340864
0.0341658
0.0379297
0.0421263
0.0422587
0.0400648
0.0349213
0.02692
0.02112
0.0206304
0.0218732
0.0219934
0.02188
0.0216355
0.0205326
0.0182112
0.014941
0.0124146
0.0110871
0.0106887
0.0108537
0.011262
0.0118788
0.0127515
0.0134755
0.0137973
0.013907
0.0139611
0.0139869
0.0139947
0.0139966
0.0140082
0.0140757
0.0143752
0.0146673
0.0146148
0.0143399
0.0141319