/*--------------------------------*- C++ -*----------------------------------*\
| =========                 |                                                 |
| \\      /  F ield         | OpenFOAM: The Open Source CFD Toolbox           |
|  \\    /   O peration     | Version:  v1912                                 |
|   \\  /    A nd           | Website:  www.openfoam.com                      |
|    \\/     M anipulation  |                                                 |
\*---------------------------------------------------------------------------*/
FoamFile
{
    version     2.0;
    format      ascii;
    class       volScalarField;
    location    "100";
    object      p_rgh;
}
// * * * * * * * * * * * * * * * * * * * * * * * * * * * * * * * * * * * * * //

dimensions      [1 -1 -2 0 0 0 0];


internalField   nonuniform List<scalar> 
14268
(
2346.94
2600.05
2830.1
3043.4
3265.29
3428.88
3583.8
3609.28
2331.02
2580.91
2807.14
3016.86
3235.69
3396.6
3545.82
3564.17
2331.98
2581.79
2807.87
3017.92
3237.05
3398.35
3547.23
3566.41
2320.66
2568.25
2792.13
2999.27
3216.03
3374.86
3520.41
3534.41
2323.15
2571.04
2794.81
3002.54
3219.82
3379.95
3524.82
3541.69
2313.65
2559.75
2781.86
2987.59
3202.93
3360
3503.2
3514.94
2316.62
2562.65
2784.67
2990.46
3206.82
3365.62
3507.1
3522.88
2308
2552.93
2773.82
2978.58
3192.23
3348.2
3489.66
3500.06
2310.94
2555.66
2776.1
2980.8
3195.86
3353.51
3491.94
3507.31
2303.16
2546.96
2766.91
2970.58
3183.31
3338.25
3477.39
3487.98
2306
2549.81
2768.84
2972.42
3186.29
3342.78
3479.5
3493.97
2299.16
2541.59
2760.55
2963.7
3174.96
3328.89
3466
3479.65
2301.35
2544.76
2762.8
2964.97
3178.47
3334.21
3469.09
3482.34
2295.16
2536.8
2754.92
2957.12
3167.59
3320.5
3455.75
3469.16
2302.31
2546.77
2760.92
2959.96
3175.42
3332.02
3462.77
3478.17
2264.45
2502.17
2722.26
2925.57
3134.19
3285.91
3423.42
3442.47
2284.94
2527.4
2740.86
2941.24
3157.44
3315.64
3445.75
3462.44
2252.34
2488.89
2707.08
2907.73
3115.95
3268.04
3403.41
3422.39
2273.81
2514.73
2728.15
2928.3
3143.86
3302.58
3431.4
3449.6
2245.3
2481.56
2697.5
2895.77
3103.95
3254.18
3386.89
3406.84
2265.85
2505.61
2720.2
2921.8
3134.98
3292.82
3419.99
3439.52
2200.06
2419.99
2631.67
2802.15
2980.19
3078.59
3183.54
3140.9
2301.29
2542.07
2752.7
2959.13
3176.12
3362.41
3455.9
3505.47
2232.51
2441.27
2656.05
2846.83
3047.58
3179.19
3270.98
3222.94
2316.26
2540.53
2754.44
2988.63
3182.91
3367.08
3398.21
3414.83
2319.59
2560.63
2782.84
3000.5
3180.29
3372.92
3448.07
3470.39
2390.7
2611.31
2837.89
3049.23
3268.47
3474.8
3537.77
3571.92
2086.22
2296.46
2497.04
2694.02
2942.39
3170.24
3227.09
3312.83
252.719
332.202
420.728
514.616
662.423
904.077
1018.92
1002.13
6.15187
9.09747
14.6014
21.5919
27.922
38.7931
58.7105
83.1148
3.51269
3.79407
4.16992
4.48896
4.71726
5.09629
6.12353
7.01331
2.36699
2.54853
2.56104
2.44984
2.39173
2.38379
2.52643
2.61271
2.8832
2.89588
2.87454
3.01305
3.14477
3.38476
3.73533
4.22761
2.20633
2.31596
2.41906
2.40472
2.34704
2.22869
2.19638
2.23453
2.57345
2.59362
2.66155
2.75474
2.90308
3.13145
3.41489
3.97396
2.2548
2.31958
2.36696
2.37992
2.32321
2.28444
2.20351
2.12222
2.48011
2.50404
2.4894
2.62317
2.7116
2.9328
3.16161
3.76239
2.29231
2.34508
2.37954
2.38967
2.39916
2.3606
2.26881
2.16231
2.36012
2.38675
2.44469
2.4773
2.58774
2.78233
3.05597
3.62153
2.2877
2.3232
2.36188
2.43502
2.46377
2.55052
2.66649
2.69469
2.32524
2.37636
2.46154
2.51929
2.5946
2.82995
3.15901
3.64234
2.29454
2.32334
2.39429
2.45657
2.50997
2.57203
2.62841
2.68034
2.30447
2.32933
2.38582
2.4477
2.54186
2.65704
2.77635
2.98945
2.24604
2.27665
2.32424
2.39004
2.52035
2.66641
2.70977
2.71135
2.24232
2.27566
2.33458
2.40623
2.46351
2.56396
2.65102
2.96019
2.21508
2.26334
2.32053
2.37751
2.42769
2.51641
2.6603
2.97265
2.23345
2.29624
2.34966
2.40594
2.47578
2.67794
2.94473
3.12062
2.20876
2.24774
2.29105
2.36261
2.51835
2.83418
2.9237
2.9451
2.14788
2.18474
2.23468
2.29409
2.37312
2.48954
2.61565
2.69663
2.11551
2.14679
2.19718
2.25703
2.31598
2.41646
2.50776
2.58779
2.09172
2.11968
2.17164
2.23059
2.30909
2.48377
2.57197
2.66784
2.06605
2.0897
2.14385
2.24053
2.40616
2.59809
2.66485
2.71567
2.04456
2.0855
2.17695
2.31129
2.49991
2.59568
2.54891
2.4966
2.01335
2.08935
2.22021
2.28813
2.30505
2.35593
2.37939
2.36952
1.98749
2.05493
2.10619
2.16636
2.2052
2.26591
2.31527
2.36347
1.95042
1.98826
2.04579
2.10011
2.15012
2.19941
2.27393
2.35969
1.91936
1.95467
2.00791
2.05922
2.10635
2.15333
2.20656
2.24908
1.88612
1.92043
1.97189
2.0201
2.06258
2.09514
2.09836
2.09353
1.85505
1.89155
1.93955
1.98077
2.01641
2.0306
2.01797
1.97812
1.82376
1.85984
1.89843
1.93138
1.95363
1.96922
1.94028
1.90373
1.78981
1.81896
1.84978
1.87558
1.89755
1.9123
1.9472
1.9663
1.74482
1.77113
1.79898
1.82459
1.84128
1.85548
2.01897
1.95332
1.70579
1.72911
1.7538
1.77531
1.78682
1.79444
1.87209
1.8586
1.66758
1.68629
1.70883
1.72497
1.73112
1.72299
1.68535
1.59898
1.62884
1.64485
1.66366
1.67445
1.67334
1.65666
1.60707
1.49814
1.5896
1.60287
1.61537
1.62148
1.61635
1.59329
1.53562
1.41739
1.54974
1.55922
1.56832
1.57155
1.56089
1.53249
1.46963
1.36109
1.50645
1.51304
1.52148
1.52112
1.50507
1.47274
1.40672
1.30648
1.463
1.47148
1.47636
1.47195
1.45014
1.41082
1.34115
1.22151
1.42719
1.43196
1.42982
1.42189
1.39465
1.34924
1.27045
1.13099
1.38971
1.38814
1.38351
1.37315
1.34068
1.29007
1.2064
1.06121
1.3451
1.34024
1.33341
1.322
1.28745
1.23257
1.14509
0.997693
1.30057
1.2972
1.29087
1.27525
1.23712
1.17644
1.08598
0.938571
1.2627
1.25975
1.2476
1.22494
1.18578
1.12197
1.02879
0.884158
1.22328
1.21601
1.19998
1.17804
1.1369
1.06914
0.972053
0.829314
1.18136
1.17266
1.15403
1.13175
1.08596
1.01816
0.917092
0.772678
1.14171
1.13155
1.1099
1.08318
1.03582
0.967148
0.864467
0.719632
1.02716
1.00816
0.980942
0.940921
0.890511
0.814108
0.714567
0.569505
0.848731
0.824523
0.792754
0.748957
0.690464
0.611123
0.510597
0.381792
0.680922
0.653099
0.617455
0.571922
0.512939
0.439948
0.350722
0.242873
0.51341
0.481319
0.442196
0.395652
0.341039
0.274456
0.194976
0.100863
0.36273
0.332364
0.295885
0.25253
0.201549
0.142493
0.0739753
-0.00439041
0.216007
0.187671
0.154183
0.115408
0.071082
0.020691
-0.0359959
-0.0992675
0.0730897
0.0472479
0.0180303
-0.0148819
-0.0516516
-0.0923516
-0.136998
-0.185555
-0.0610324
-0.0843125
-0.109513
-0.136743
-0.166009
-0.197171
-0.229995
-0.265203
-0.191973
-0.211848
-0.232472
-0.253682
-0.275296
-0.297027
-0.31862
-0.339791
-0.323093
-0.338846
-0.354101
-0.368588
-0.381993
-0.393942
-0.404257
-0.412272
3524.58
3895.13
4023.4
4592.34
5267.26
6007.58
6465.2
6521.87
6237
5668.74
5357.84
5260.44
5205.74
5080.66
4992.03
4967.39
4974.17
4984.48
5093.24
5241.91
5446.92
5692.13
5961.3
6226.68
6520.15
6771.13
6997.71
7188.82
7352.85
7501.52
7633.64
7755.16
7847.13
7937
8016.47
8096.16
8176.08
8270.16
8295.63
8414.07
8490.37
8566.47
8737.11
8847.68
8986.61
9036.27
8957.63
8857.95
8871.17
8996.78
9198.12
9397.55
9572.42
9775.34
9994.67
10218.3
10500.4
10733.5
10990.9
11231.8
11439.7
11674.9
11880.8
12081.1
12279.5
12474.9
12676.4
12889.1
13095.7
13297.8
13493.5
13692.8
13899.4
14097.2
14288.2
14465.8
14622.6
14729.1
14872.8
14924.4
15016.2
15077.8
15138.2
15215.6
15294.3
15385
15423.9
15343.8
15514.6
15972.8
16406.9
16456.1
16579.6
16694.3
16824.1
16773.5
16645.2
16795.6
17012.4
17249.9
17463.5
17674.6
17832.7
17932.5
17963.2
17970.8
17971.2
17979.5
18010.5
18076.4
18179.2
18300.6
18418.2
18518.8
18587.2
18631.9
18701.3
18829
18958.2
19095
19230.4
19360
19485.8
19613.4
19720.8
19797.5
19848.5
19876.8
19902.9
19904.2
19869.8
19801.2
19697.7
19548.3
19351.7
19117.5
18913.6
18863.9
19080.2
19522.7
20094.6
20739.9
21408.6
21993.7
22395
22526.2
22334.5
21871.8
21196.7
20266.9
19221.7
17908.3
17256.8
16731.5
16005.1
15163.9
3476.94
3836.78
3961.58
4531.46
5198.45
5929.97
6388.98
6453.14
6181.58
5632.71
5334.06
5237.3
5179.58
5054.36
4965.88
4942.28
4951.78
4966.75
5080.88
5233.17
5439.74
5685.39
5954.46
6219.56
6512.21
6762.14
6987.84
7178.66
7342.62
7491.25
7623.36
7744.86
7836.8
7926.59
8005.92
8085.33
8165.1
8259.47
8285.27
8404.25
8480.82
8556.45
8724.95
8833.39
8970.83
9020.33
8941.71
8843.85
8859.03
8986.46
9188.93
9389.43
9565.61
9769.24
9988.68
10212.1
10493.8
10726.2
10982.5
11222
11429.4
11664.8
11871
12071.5
12269.9
12465.1
12666.1
12878.2
13083.9
13284.9
13479.5
13677.7
13883.5
14080.5
14271
14448.1
14604.4
14710.1
14853.3
14904
14994.8
15055.9
15116.5
15193.8
15272.8
15364
15403.8
15324.7
15495.9
15954.3
16386.6
16433.4
16548.8
16656.8
16782.5
16729
16596.7
16746.5
16967.5
17218.2
17448.3
17668.1
17830
17931.3
17962.5
17970.3
17970.8
17979.2
18010.1
18076.1
18178.7
18299.4
18414.9
18512.7
18579.9
18624.5
18694.8
18824.4
18956.1
19093.6
19229.4
19359.2
19485.1
19612.7
19720.2
19797
19847.8
19876.2
19902.2
19903.5
19869
19800.3
19696.8
19547.4
19350.7
19116.5
18912.6
18862.9
19079.2
19521.7
20093.7
20739
21407.8
21992.9
22394.3
22525.5
22333.8
21871
21195.9
20266.1
19220.7
17907.1
17255.3
16730.2
16003.7
15162.4
3479.49
3838.27
3964.62
4534.58
5202.02
5933.32
6393.15
6457.86
6187.42
5635.95
5335.37
5238.23
5182.54
5056.2
4967.53
4943.58
4953.24
4968.37
5082.58
5234.2
5440.51
5686.12
5955.26
6220.21
6513.07
6762.9
6988.53
7179.23
7343.19
7491.87
7623.96
7745.48
7837.42
7927.31
8006.69
8086.14
8165.96
8260.19
8286.36
8405.42
8481.52
8556.98
8726.3
8834.12
8971.65
9021.13
8943.35
8845.3
8860.69
8987.67
9190.2
9390.77
9566.75
9770.25
9989.6
10213.1
10494.9
10727.3
10983.5
11223
11430.5
11665.9
11872.1
12072.6
12271.1
12466.3
12667.4
12879.5
13085.3
13286.4
13481.1
13679.5
13885.2
14082.6
14273.3
14450.6
14607.1
14713.2
14856.8
14906.9
14997.8
15059.3
15119.6
15197.1
15275.1
15365.9
15406.4
15326.1
15497.9
15957.5
16392.5
16437.5
16553.4
16659.9
16785.4
16730.8
16599.5
16748.5
16968.7
17218.6
17448.5
17668.2
17830
17931.3
17962.7
17970.4
17970.8
17979.2
18010.1
18076
18178.5
18299
18414.7
18513.3
18580.8
18625.4
18695.3
18824.7
18956
19093.7
19229.5
19359.3
19485.1
19612.8
19720.2
19797
19848.2
19876.3
19902.3
19903.6
19869.1
19800.4
19696.9
19547.4
19350.8
19116.4
18912.5
18862.8
19079.1
19521.7
20093.7
20739.1
21407.9
21993
22394.3
22525.4
22333.8
21871
21196
20266.1
19220.8
17907
17255.5
16730.2
16003.8
15162.5
3443.91
3794.05
3916.14
4487.4
5148.64
5875.28
6336.39
6407.85
6145.52
5608.66
5316.66
5220.79
5161.26
5036.61
4948.12
4925.24
4936.85
4955.11
5073.11
5228.04
5435.52
5681.3
5950.27
6215.24
6507.29
6756.42
6981.48
7172.03
7335.9
7484.61
7616.69
7738.17
7830.07
7919.78
7999.01
8078.25
8158.01
8252.57
8278.44
8397.62
8474.33
8549.52
8716.31
8823.62
8960.79
9010.43
8932.42
8835.95
8852.04
8980.44
9183.58
9384.7
9561.68
9765.79
9985.31
10208.6
10489.9
10721.9
10977.4
11216
11423
11658.5
11864.9
12065.6
12264
12459
12659.8
12871.4
13076.7
13277
13470.8
13668.3
13873.8
14070.1
14260.2
14437.1
14593.1
14698.1
14841.1
14891.3
14981.7
15042.5
15103.3
15180.4
15259.4
15350.9
15390.9
15312.7
15485
15944.1
16374.9
16420
16528.9
16631.2
16752.9
16696.7
16561.4
16711
16936
17196.2
17438
17663.9
17828.2
17930.5
17962.1
17970
17970.5
17978.9
18009.8
18075.7
18177.9
18298
18412.6
18509.6
18576.3
18620.8
18691.3
18821
18954.1
19092.7
19228.8
19358.8
19484.7
19612.4
19719.9
19796.7
19847.4
19875.8
19901.8
19903.1
19868.5
19799.7
19696.1
19546.7
19350
19115.7
18911.8
18862.1
19078.4
19521
20093
20738.4
21407.2
21992.4
22393.8
22525
22333.2
21870.4
21195.2
20265.4
19219.9
17906.1
17254.2
16729.4
16002.7
15161.4
3452.66
3802.31
3928.03
4498.7
5161.43
5887.96
6349.49
6419.41
6159.5
5617.12
5321.78
5224.67
5168.48
5041.18
4952.66
4929.19
4940.68
4958.95
5076.67
5230.05
5437.04
5682.86
5951.98
6216.57
6509.1
6758.18
6983.14
7173.57
7337.46
7486.01
7618.09
7739.61
7831.52
7921.47
8000.82
8080.13
8159.91
8254.35
8280.91
8400.38
8476.14
8550.98
8719.68
8825.76
8962.96
9012.95
8935.73
8838.82
8855.31
8982.88
9185.91
9387.13
9563.69
9767.43
9986.76
10210.2
10492.1
10724
10979.4
11218.1
11425
11660.8
11867.1
12067.7
12266.3
12461.5
12662.4
12874
13079.4
13279.9
13474
13671.9
13877.1
14074.5
14265.1
14442.2
14598.5
14704.4
14848.2
14897.2
14987.6
15049.2
15109.4
15187
15264.3
15355
15396.5
15316
15488.5
15949.7
16386.2
16428
16539
16639.7
16762.1
16704.7
16571.8
16720.3
16942.3
17199.8
17439.4
17664.4
17828.4
17930.6
17962.4
17970.2
17970.6
17978.9
18009.8
18075.6
18177.7
18297.7
18412.6
18510.3
18577.4
18621.9
18691.9
18822
18954.1
19092.8
19228.9
19358.8
19484.7
19612.5
19719.9
19796.7
19848
19876
19902
19903.2
19868.7
19799.9
19696.4
19546.9
19350.2
19115.8
18911.8
18862
19078.3
19520.9
20093.1
20738.6
21407.4
21992.5
22394
22525.1
22333.4
21870.7
21195.6
20265.7
19220.2
17906.2
17254.5
16729.5
16003.1
15161.7
3421.21
3762.92
3882.77
4454.77
5111.95
5835.53
6299.65
6377.33
6120.88
5591.85
5303.68
5208.87
5147.95
5024.36
4935.83
4913.51
4926.62
4947.22
5067.97
5224.74
5432.89
5678.64
5947.56
6212.42
6504.02
6752.57
6977.16
7167.52
7331.33
7479.97
7612.04
7733.48
7825.38
7915.02
7994.18
8073.31
8153.08
8247.87
8273.77
8392.88
8469.82
8544.62
8709.87
8816.66
8953.97
9004
8926.84
8831.26
8847.91
8976.77
9180.31
9381.69
9559.22
9763.69
9983.29
10206.4
10487.4
10719.1
10974.1
11212
11419
11654.6
11861
12061.7
12260.1
12454.9
12655.5
12866.9
13071.8
13271.8
13465.1
13662
13867.2
14062.9
14252.9
14429.5
14585.3
14690
14832.3
14882.5
14972.8
15033.4
15094.4
15171.3
15250.5
15342.1
15382.2
15304.4
15477.5
15937.7
16367.3
16411.6
16515.4
16613.5
16731.7
16673.9
16536.5
16686.1
16914.6
17181.4
17431
17661
17827.1
17930.1
17961.8
17969.8
17970.3
17978.7
18009.5
18075.2
18177.1
18296.7
18411
18507.6
18574
18618.4
18688.9
18818.6
18952.2
19091.9
19228.3
19358.4
19484.4
19612.2
19719.7
19796.5
19847.1
19875.5
19901.5
19902.7
19868.1
19799.4
19695.7
19546.2
19349.5
19115.1
18911.1
18861.3
19077.7
19520.3
20092.4
20737.9
21406.9
21992.1
22393.5
22524.6
22332.8
21869.8
21194.8
20264.9
19219.2
17905.2
17253.4
16728.9
16002.1
15160.7
3431.73
3773.1
3898.43
4469.63
5128.31
5850.48
6312.99
6388.91
6138.31
5602.52
5310.63
5213.64
5157.44
5029.17
4940.93
4917.81
4930.82
4951.63
5072.28
5227.13
5434.65
5680.52
5949.59
6213.9
6506.15
6754.6
6979.05
7169.29
7333.1
7481.6
7613.64
7735.17
7827.06
7917.15
7996.41
8075.61
8155.41
8249.86
8276.6
8396.43
8471.82
8546.14
8714.33
8819.02
8956.39
9006.88
8930.37
8834.39
8851.51
8979.33
9182.77
9384.47
9561.43
9765.39
9984.7
10208.1
10490
10721.4
10976.2
11214.3
11420.9
11656.7
11863.3
12064
12262.6
12457.9
12658.5
12869.8
13074.8
13274.8
13468.6
13666
13870.8
14068.3
14258.8
14435.8
14592.1
14697.9
14841.7
14889.8
14979.9
15041.4
15101.7
15179.4
15256
15346.7
15388.5
15307.7
15481.2
15944.1
16382.7
16421.5
16528.5
16624.2
16744.2
16684.1
16550.5
16698.3
16921.8
17185.2
17432.3
17661.3
17827.2
17930.1
17962.2
17970
17970.4
17978.7
18009.5
18075.1
18176.8
18296.4
18410.9
18508
18574.8
18619.2
18689.3
18819.6
18952.2
19091.9
19228.4
19358.5
19484.5
19612.2
19719.7
19796.5
19847.9
19875.8
19901.7
19903
19868.3
19799.5
19696
19546.4
19349.6
19115.1
18911
18861.1
19077.5
19520.3
20092.6
20738.1
21407.1
21992.4
22393.8
22524.9
22333.1
21870.4
21195.3
20265.3
19219.6
17905.1
17253.5
16729
16002.7
15160.9
3402.84
3736.56
3854.15
4426.81
5081.11
5802.31
6269.66
6352.66
6101.12
5578.14
5292.53
5198.77
5137.03
5014.16
4925.94
4904.09
4918.46
4940.98
5063.96
5222.28
5430.87
5676.61
5945.5
6210.25
6501.48
6749.54
6973.68
7163.83
7327.56
7476.17
7608.23
7729.64
7821.52
7911.19
7990.32
8069.32
8149.17
8244.09
8270.04
8389.02
8465.92
8540.42
8704.29
8810.81
8948.36
8999.05
8922.82
8828.01
8845.03
8974.05
9177.78
9379.28
9557.21
9761.93
9981.61
10204.6
10485.5
10716.9
10971.6
11208.9
11415.5
11651.5
11858
12058.7
12257
12451.7
12652.1
12863.4
13068
13267.6
13460.4
13657
13862
14057.2
14246.9
14423.4
14579
14683.3
14825
14875.3
14965.6
15026.3
15087.3
15164
15243.4
15334.8
15375.5
15297.9
15471.1
15932.7
16361.4
16405.5
16505
16599.2
16714.3
16655.6
16516.4
16666.5
16897.9
17169.9
17425.5
17658.7
17826.2
17929.6
17961.6
17969.7
17970.1
17978.4
18009.2
18074.6
18176.1
18295.5
18409.5
18505.8
18572
18616.4
18686.7
18816.4
18950.3
19090.9
19227.9
19358.2
19484.2
19612
19719.5
19796.3
19846.9
19875.3
19901.3
19902.5
19867.9
19799.1
19695.5
19545.9
19349.1
19114.6
18910.5
18860.5
19077
19519.7
20091.9
20737.5
21406.6
21992
22393.4
22524.4
22332.5
21869.4
21194.4
20264.5
19218.8
17904.4
17252.5
16728.5
16001.6
15160.2
3413.86
3748.15
3872.29
4442.93
5097.86
5817.04
6280.59
6362.46
6120.46
5590.14
5300.67
5203.89
5147.61
5019.6
4930.86
4908.03
4922.38
4945.4
5068.68
5224.88
5432.82
5678.71
5947.57
6211.76
6503.75
6751.66
6975.74
7165.81
7329.53
7478
7610
7731.5
7823.35
7913.34
7992.6
8071.78
8151.59
8246.06
8272.92
8393.06
8468.19
8541.84
8709.64
8813.12
8951.04
9001.89
8926.39
8830.88
8848.56
8976.48
9180.22
9382.35
9559.68
9763.84
9983.11
10206.3
10488.3
10719.3
10973.5
11211.1
11417.4
11653.2
11860.1
12060.9
12259.5
12454.8
12655.3
12866.3
13070.9
13270.6
13463.9
13661
13865.6
14063.1
14253.7
14430.6
14586.6
14692.6
14836.3
14883.5
14973.3
15034.8
15095.3
15173.1
15249.1
15339.8
15381.7
15300.6
15475
15939.8
16380.4
16416.9
16519.9
16611.4
16729.1
16666.5
16532.2
16679.4
16904.6
17173
17426.3
17659
17826.3
17929.7
17962
17969.8
17970.2
17978.4
18009.1
18074.4
18175.8
18295.1
18409.3
18506.1
18572.5
18616.8
18687
18817.3
18950.2
19090.9
19227.9
19358.2
19484.2
19612
19719.5
19796.3
19847.8
19875.6
19901.5
19902.7
19868
19799.2
19695.6
19546.1
19349.1
19114.5
18910.3
18860.3
19076.7
19519.7
20092.1
20737.8
21406.9
21992.3
22393.8
22524.8
22332.8
21869.9
21194.9
20264.9
19218.9
17904.1
17252.5
16728.6
16002.3
15160.3
3386.74
3712.25
3828.27
4403.75
5053.86
5772.43
6242.1
6331.4
6084.67
5566.32
5282.45
5189.75
5127.57
5004.96
4917.54
4896.08
4911.52
4935.73
5060.66
5220.34
5429.26
5674.97
5943.99
6208.49
6499.4
6747
6970.65
7160.6
7324.24
7472.78
7604.82
7726.24
7818.11
7907.91
7986.98
8065.83
8145.77
8240.87
8266.86
8385.68
8462.46
8536.66
8699.18
8805.52
8943.58
8994.95
8919.78
8825.87
8842.74
8971.67
9175.59
9377.29
9555.53
9760.49
9980.23
10203.1
10484
10715.2
10969.6
11206.3
11412.7
11648.7
11855.5
12056.1
12254.4
12448.9
12649.2
12860.3
13064.7
13263.9
13456.4
13652.6
13857.5
14052.3
14241.7
14418.1
14573.5
14677.6
14818.4
14869.1
14959.5
15020.2
15081.2
15157.6
15237.3
15328.4
15369.8
15292
15465.3
15928.6
16356.7
16401.1
16496.9
16587.2
16699.3
16639.7
16499.5
16649.9
16884
17160.1
17420.7
17656.8
17825.5
17929.4
17961.5
17969.5
17969.9
17978.1
18008.8
18073.9
18175.1
18294.2
18408
18504.2
18570.1
18614.4
18684.7
18814.4
18948.4
19089.8
19227.4
19357.9
19484
19611.8
19719.4
19796.1
19846.7
19875.1
19901.1
19902.3
19867.7
19798.8
19695.2
19545.6
19348.7
19114.1
18909.8
18859.7
19076.2
19519.1
20091.5
20737.2
21406.5
21992
22393.5
22524.4
22332.3
21869.3
21194.2
20264.3
19218.3
17903.4
17251.6
16728.2
16001.2
15159.6
3398.26
3725.56
3848.29
4417.24
5069.73
5786.91
6252.83
6339.54
6104.48
5579.07
5291.45
5195.01
5138.63
5010.7
4921.93
4899.35
4914.93
4939.9
5065.6
5223.09
5431.26
5677.07
5945.89
6209.99
6501.73
6749.13
6972.8
7162.71
7326.31
7474.7
7606.65
7728.18
7820.09
7909.98
7989.25
8068.24
8148.08
8242.56
8269.69
8390.01
8464.8
8537.87
8705.3
8807.83
8946.27
8997.68
8923.32
8828.16
8846.32
8974.34
9178.21
9380.56
9558.09
9762.35
9981.64
10204.9
10486.9
10717.5
10971.1
11208.1
11414.4
11650.3
11857.2
12058.1
12256.9
12452.1
12652.4
12863.1
13067.4
13266.9
13459.9
13656.7
13861
14058.4
14249.1
14425.9
14581.8
14688
14831.8
14877.9
14967.5
15028.9
15089.6
15167.6
15243.1
15333.7
15375.7
15294.3
15469.5
15936.3
16379.1
16413.5
16512.3
16600.4
16715.9
16651.2
16515.3
16662.4
16889.2
17161.9
17420.9
17656.7
17825.6
17929.5
17962
17969.7
17970
17978.1
18008.7
18073.7
18174.8
18293.9
18407.9
18504.3
18570.4
18614.6
18684.8
18815.1
18948.3
19089.6
19227.3
19357.9
19484
19611.8
19719.4
19796.2
19847.8
19875.4
19901.3
19902.5
19867.8
19798.9
19695.3
19545.7
19348.8
19114
18909.5
18859.4
19075.9
19519
20091.6
20737.4
21406.7
21992.3
22393.9
22524.7
22332.5
21869.5
21194.6
20264.4
19218.1
17903
17251.6
16728.4
16002.1
15159.7
3371.81
3689.84
3804.16
4382.6
5028.61
5743.79
6215.61
6310.52
6070.33
5556.3
5273.11
5181.41
5119.24
4997.25
4910.15
4889.02
4905.43
4931.15
5057.79
5218.87
5428.27
5674.01
5942.94
6207.02
6497.64
6744.82
6968.06
7157.78
7321.39
7469.91
7601.93
7723.31
7815.08
7904.85
7983.89
8062.83
8142.73
8238.01
8263.97
8382.77
8459.57
8533.13
8694.3
8800.81
8939.39
8991.4
8917.73
8824.12
8840.92
8969.9
9173.88
9375.66
9554.32
9759.47
9979.2
10201.8
10482.6
10713.6
10967.8
11204.3
11410.3
11646.2
11853.1
12053.8
12252
12446.4
12646.6
12857.6
13061.7
13260.7
13452.8
13648.7
13853.4
14048
14237
14413.3
14568.6
14672.3
14812.6
14863.6
14954.1
15014.8
15075.8
15152.1
15231.9
15322.7
15364.8
15286.4
15459.8
15925.1
16353.2
16398.1
16490.5
16576.9
16686.1
16626.1
16485.7
16636
16871.9
17151.3
17415.9
17654.8
17824.9
17929.1
17961.5
17969.4
17969.7
17977.8
18008.2
18073.1
18174.1
18293
18406.6
18502.6
18568.2
18612.4
18682.7
18812.4
18946.5
19088.5
19226.8
19357.6
19483.8
19611.7
19719.3
19796
19846.6
19875
19900.9
19902.2
19867.5
19798.6
19695
19545.4
19348.4
19113.6
18909.1
18858.8
19075.3
19518.4
20091
20736.9
21406.4
21992.2
22393.7
22524.5
22332.2
21869.1
21194
20264.1
19217.7
17902.2
17250.7
16728
16001
15159.1
3384.65
3704.79
3825.64
4393.13
5043.23
5758.54
6226.95
6319.45
6090.45
5568.79
5282.79
5185.58
5130.18
5002.64
4913.93
4891.51
4908.2
4934.97
5062.98
5221.49
5429.86
5675.52
5944.34
6208.49
6499.98
6746.91
6970.23
7159.89
7323.33
7471.69
7603.67
7725.28
7817.23
7906.88
7986.2
8065.09
8145.22
8239.83
8266.81
8387.12
8461.47
8534.19
8701.08
8803.07
8942.05
8994.04
8920.6
8826.51
8844.52
8972.32
9176.32
9378.94
9556.72
9761.15
9980.37
10203.6
10485.7
10715.9
10969.2
11205.3
11411.7
11647.8
11854.8
12055.7
12254.5
12449.7
12649.8
12860.4
13064.4
13263.7
13456.3
13652.8
13856.9
14054
14245
14421.8
14577.4
14683.6
14827.3
14872.6
14962.2
15023.6
15084.5
15162.6
15237.7
15328.1
15370.3
15288.4
15464.4
15933.4
16378.5
16410.9
16506.1
16591.3
16705.3
16638.9
16501.9
16648.2
16875.9
17152
17415.7
17654.5
17824.7
17929.3
17961.9
17969.5
17969.7
17977.8
18008.1
18072.8
18173.7
18292.7
18406.5
18502.6
18568.4
18612.5
18682.8
18812.9
18946.4
19088.2
19226.7
19357.6
19483.8
19611.7
19719.3
19796.1
19847.7
19875.2
19901.2
19902.3
19867.6
19798.7
19695
19545.4
19348.3
19113.4
18908.8
18858.5
19075
19518.4
20091.1
20737
21406.6
21992.4
22394
22524.7
22332.3
21869.2
21194.3
20264
19217.4
17901.8
17250.5
16728.2
16001.9
15159.2
3358.08
3668.43
3781.4
4362.66
5004.79
5716.46
6190.51
6291.23
6057.19
5548.52
5264.34
5174.73
5111.74
4990.35
4902.86
4882.68
4899.97
4927.05
5055.38
5217.81
5427.54
5673.28
5942.14
6205.79
6496.13
6742.92
6965.75
7155.34
7318.93
7467.37
7599.3
7720.56
7812.19
7902.24
7981.29
8060.16
8140.1
8235.22
8261.33
8380.18
8456.97
8529.84
8689.66
8796.39
8935.44
8988.48
8915.9
8822.62
8839.52
8968.41
9172.43
9374.26
9553.19
9758.54
9978.33
10200.7
10481.5
10712.3
10966.1
11202.5
11408.1
11644.1
11851
12051.7
12249.9
12444.2
12644.3
12855.1
13059
13257.7
13449.6
13645.2
13849.7
14044.2
14232.8
14409
14564.1
14667.4
14807.7
14858.7
14949.1
15009.9
15071
15147.2
15226.9
15317.5
15360.3
15281.2
15454.6
15922.1
16350.7
16396.1
16486.2
16571.5
16678.9
16618.1
16476.4
16625.1
16861.2
17143.3
17411.5
17652.8
17824.1
17928.8
17961.4
17969.3
17969.5
17977.5
18007.6
18072.2
18173
18291.8
18405.3
18501
18566.4
18610.5
18680.7
18810.4
18944.6
19087
19226.1
19357.3
19483.7
19611.5
19719.2
19795.9
19846.5
19874.8
19900.8
19902
19867.4
19798.5
19694.8
19545.2
19348.1
19113
18908.3
18857.8
19074.4
19517.7
20090.5
20736.6
21406.4
21992.4
22394
22524.6
22332.1
21868.9
21193.9
20263.8
19217
17901
17249.7
16728
16000.8
15158.7
3379.75
3692.56
3815.04
4373.9
5024.49
5738.84
6208.35
6305.59
6088.22
5561.42
5276.69
5178.07
5127.17
4997.03
4908.16
4885.24
4903.12
4932.23
5063.2
5221.37
5429.28
5674.65
5943.44
6207.9
6499.53
6745.73
6968.54
7157.8
7321.05
7469.3
7601.24
7723.07
7815.39
7905.33
7984.64
8063.02
8142.89
8237.95
8265.64
8386.56
8458.96
8530.8
8700.66
8799.2
8938.24
8991.29
8918.54
8825.97
8844.66
8971.59
9175.74
9379.1
9556.69
9760.92
9979.71
10203.3
10486.2
10715.6
10968
11203.4
11409.6
11645.9
11853.2
12054.4
12253.6
12449.2
12649
12859.1
13062.8
13262
13454.9
13651.7
13855.4
14053.5
14245.9
14422.6
14578.1
14685.6
14830.7
14872.2
14961.4
15023.1
15084.1
15163.4
15235.7
15325.8
15368
15283.7
15461.7
15935
16392
16416.9
16514.3
16601.6
16716.8
16642.5
16499.5
16638.9
16864.9
17143.2
17410.7
17652.3
17823.9
17929
17962.1
17969.4
17969.5
17977.4
18007.4
18071.8
18172.4
18291.3
18405.1
18501
18566.5
18610.5
18680.8
18811
18944.4
19086.5
19225.8
19357.1
19483.7
19611.6
19719.3
19796
19848.3
19875.2
19901.1
19902.2
19867.5
19798.5
19694.8
19545.1
19347.9
19112.8
18907.8
18857.2
19073.9
19517.6
20090.6
20736.7
21406.6
21992.7
22394.4
22524.9
22332.2
21869
21193.8
20263.6
19216.4
17900.1
17249.2
16728.2
16002.3
15158.7
3326.78
3623.14
3727.7
4320.28
4953.08
5656.4
6139.25
6250.99
6025.81
5530.06
5249.06
5161.69
5093.55
4976.73
4889.8
4870.63
4889.32
4918.26
5048.76
5215.08
5425.85
5671.6
5940.34
6203.11
6492.48
6738.72
6960.98
7150.43
7313.92
7462.29
7594.18
7715.16
7806.19
7896.12
7975.43
8054.41
8134.99
8230.03
8255.26
8373.41
8451.37
8523.44
8676.82
8787.59
8928.01
8982.62
8913.2
8820.14
8835.48
8964.85
9168.8
9370.24
9550.11
9756.23
9976.07
10198
10478
10708.8
10962.6
11198.4
11403.6
11639.7
11846.5
12047
12244.9
12438.6
12638.5
12849.4
13053.1
13251.7
13443.3
13638.6
13843.4
14036.7
14222.9
14398.2
14552.2
14653
14791.1
14845.2
14935.7
14996.4
15058
15133
15215.1
15305.5
15349.7
15270.3
15442.2
15913.1
16334.5
16391.4
16484.8
16566.2
16661.3
16594.9
16444.2
16595.9
16840.6
17128.9
17404
17649.7
17823.1
17928.5
17961.3
17968.9
17968.9
17976.6
18006.4
18070.5
18171
18289.5
18402.8
18497.9
18562.7
18606.6
18676.7
18806.1
18940.9
19083.9
19224.3
19356.5
19483.3
19611.3
19719.1
19795.7
19845.8
19874.5
19900.6
19901.8
19867.2
19798.3
19694.6
19544.8
19347.4
19112
18906.7
18855.8
19072.6
19516.3
20089.5
20736.1
21406.5
21992.9
22394.6
22525
22331.8
21868.4
21193.6
20263.3
19215.6
17898.5
17247.6
16727.9
16000.1
15157.7
3356.02
3653.57
3774.35
4331.11
4976.13
5684.46
6157.86
6268.44
6066.97
5543.3
5258.3
5162.72
5112.1
4983.31
4894.75
4872.8
4892.39
4924.45
5059.33
5219.91
5427.85
5672.7
5941.48
6205.93
6497.13
6742.47
6964.48
7153.31
7316.35
7464.47
7596.28
7718.08
7810.5
7900.46
7979.74
8058.08
8137.47
8233.16
8260.97
8381.84
8453.19
8523.82
8693.08
8790.7
8930.42
8985.5
8915.85
8824.16
8842.23
8968.59
9173.07
9376.78
9554.79
9759.29
9978.08
10201.4
10484.6
10713.3
10965
11199.7
11405.5
11642
11849.4
12050.7
12249.8
12445.4
12644.8
12854.7
13058.3
13258.2
13451
13647
13850.3
14047.8
14240.6
14416.9
14571.6
14678.3
14823
14863.3
14952.8
15014.6
15075.7
15155.3
15227.2
15316.7
15359.6
15273.5
15451.9
15931.4
16394.7
16426.3
16526.2
16599.5
16699.8
16611.7
16470.9
16614.1
16844.1
17127.6
17402.4
17649
17823.1
17929
17962.2
17969.1
17968.9
17976.4
18005.9
18069.8
18170.1
18288.8
18402.5
18497.8
18562.7
18606.5
18676.8
18806.7
18940.5
19082.9
19223.6
19356.2
19483.3
19611.4
19719.2
19795.9
19848.4
19875
19900.9
19902
19867.3
19798.3
19694.5
19544.7
19347.2
19111.5
18906
18854.9
19071.7
19516.1
20089.6
20736.1
21406.7
21993.5
22395.3
22525.3
22332
21868.5
21193.3
20263
19214.8
17897.1
17246.8
16728.4
16002.4
15157.8
3309.63
3591.34
3687.31
4284.03
4909.14
5608.82
6098.71
6221.1
6009.8
5517.9
5237.37
5147.33
5082.43
4967.69
4881.36
4861.22
4880.87
4912.23
5045.67
5214.16
5425.41
5670.95
5939.51
6201.79
6490.66
6736.2
6957.9
7147.04
7310.35
7458.58
7590.42
7711.42
7802.28
7892.3
7971.84
8050.76
8131.56
8226.55
8251.2
8369.39
8447.1
8517.7
8668.01
8780.48
8922.25
8980.29
8912.85
8819.74
8834.25
8962.77
9166.71
9368.34
9548.71
9755.13
9974.94
10196.6
10476.6
10706.9
10960.2
11195
11400.3
11636.6
11843.3
12043.8
12241.6
12435.2
12634.8
12845.6
13048.8
13246.7
13437.3
13631.4
13835.6
14028.8
14214.2
14389.6
14544.3
14645.3
14783.7
14837.2
14927.7
14988.4
15050.6
15125.4
15207.3
15297.3
15342.9
15261.1
15432.6
15910.2
16338.8
16406.3
16490.8
16553.3
16635.6
16569.1
16424.8
16577.2
16823.8
17115.3
17395.8
17646
17821.8
17928.1
17961.4
17968.6
17968.3
17975.5
18004.8
18068.4
18168.6
18287.1
18400.3
18494.8
18559
18602.6
18672.7
18801.9
18937
19080.2
19221.8
19355.4
19482.7
19611
19719
19795.5
19845.8
19874.3
19900.5
19901.8
19867.2
19798.2
19694.4
19544.5
19346.9
19110.8
18904.8
18853.3
19070.2
19514.6
20088.5
20735.6
21406.7
21993.9
22395.8
22525.6
22331.7
21868.2
21193.1
20262.8
19214
17895.2
17245.1
16728.2
16000.2
15156.7
3332.17
3617.46
3735.17
4289.67
4930.44
5629.85
6109.07
6234.33
6049.3
5527.4
5240.73
5150.51
5098.25
4971.33
4884.45
4862.59
4883.62
4917.7
5055.93
5219.36
5427.79
5672.31
5940.88
6204.66
6495.28
6739.8
6961.04
7149.68
7312.4
7460.24
7591.92
7713.58
7806.21
7896.11
7975.31
8053.78
8133.1
8228.93
8256.82
8377.64
8448.07
8517.88
8685.67
8782.77
8923.12
8981.14
8914.99
8823.53
8840.67
8966.64
9171.05
9374.95
9553.3
9758.07
9976.81
10199.9
10483.3
10711.3
10962.3
11196.7
11402.5
11638.6
11846.1
12047.5
12246.6
12442.1
12641
12850.6
13053.4
13251.8
13443.5
13639.1
13842.2
14039.4
14233.1
14409.9
14564.8
14671.4
14815.8
14855.2
14944.8
15007.1
15068.2
15148.2
15219.7
15308.6
15352.3
15263.9
15442.5
15929.5
16400.9
16443.3
16526.5
16581.3
16674
16590.7
16451.8
16593.3
16826.5
17113.9
17393.9
17644.9
17821.5
17928.2
17962
17968.7
17968.2
17975.2
18004.1
18067.5
18167.6
18286.3
18399.9
18494.7
18558.8
18602.4
18672.7
18802.2
18936.4
19079.1
19220.9
19354.9
19482.7
19611.2
19719.2
19795.8
19848.5
19874.8
19900.7
19901.9
19867.3
19798.2
19694.4
19544.5
19346.6
19110.3
18903.9
18852.2
19069.3
19514.3
20088.4
20735.5
21407.1
21994.5
22396.5
22526.1
22331.8
21868
21192.8
20262.4
19212.9
17893.5
17244
16728.9
16002.7
15156.8
3295.46
3561.52
3649.41
4247.78
4867.3
5562.64
6059.71
6193.77
5997.69
5508.4
5226.87
5134.69
5072.27
4959.53
4874.73
4854.52
4874.83
4906.46
5043.16
5214.04
5425.54
5670.58
5938.93
6200.85
6489.39
6734.28
6955.45
7144.01
7307.22
7455.45
7587.23
7708.31
7798.88
7888.95
7968.42
8046.94
8127.78