/*--------------------------------*- C++ -*----------------------------------*\
| =========                 |                                                 |
| \\      /  F ield         | OpenFOAM: The Open Source CFD Toolbox           |
|  \\    /   O peration     | Version:  v1912                                 |
|   \\  /    A nd           | Website:  www.openfoam.com                      |
|    \\/     M anipulation  |                                                 |
\*---------------------------------------------------------------------------*/
FoamFile
{
    version     2.0;
    format      ascii;
    class       volScalarField;
    location    "50";
    object      omega;
}
// * * * * * * * * * * * * * * * * * * * * * * * * * * * * * * * * * * * * * //

dimensions      [0 0 -1 0 0 0 0];


internalField   nonuniform List<scalar> 
14268
(
0.0175499
0.0176801
0.0178126
0.0179476
0.0180851
0.018225
0.0183673
0.0185121
0.0186594
0.0188091
0.0189615
0.0191164
0.0192739
0.019434
0.0195966
0.0197619
0.0199297
0.0201002
0.0202735
0.0204495
0.0206283
0.0208101
0.0209949
0.0211827
0.0213735
0.0215678
0.0217649
0.0219647
0.0221679
0.0223737
0.0225813
0.022793
0.0230072
0.0232232
0.0234422
0.0236659
0.023891
0.0241176
0.024349
0.0245844
0.02482
0.0250594
0.0253046
0.0255501
0.0257993
0.0260564
0.0263161
0.0265811
0.0268543
0.0271314
0.0274148
0.0277028
0.0279949
0.0282974
0.028606
0.0289188
0.0292337
0.029566
0.0299028
0.0302474
0.0306013
0.0309557
0.0313238
0.0317037
0.0320895
0.0324923
0.0329015
0.0333243
0.0337633
0.0341925
0.0346454
0.0351308
0.0355994
0.0360824
0.0366113
0.0371232
0.0376426
0.0382212
0.0387828
0.0393537
0.0399757
0.0405903
0.041208
0.0418699
0.0425669
0.0432643
0.043946
0.0446805
0.0454485
0.0461962
0.0469768
0.0478893
0.0488879
0.0498026
0.050521
0.0510673
0.0514449
0.0517426
0.0520932
0.0525398
0.0531215
0.0538871
0.0548017
0.0558046
0.0568558
0.0578898
0.0588819
0.0596817
0.0601038
0.0602616
0.061066
0.0626272
0.0644857
0.0669926
0.0698299
0.0729611
0.0765954
0.0812789
0.0874324
0.0952264
0.104799
0.116577
0.131253
0.149732
0.173216
0.203319
0.242486
0.29464
0.366453
0.469224
0.62353
0.870287
1.30089
2.15405
0.194186
0.193616
0.193023
0.192408
0.191772
0.191116
0.190438
0.18974
0.18902
0.188281
0.187521
0.186739
0.185931
0.185101
0.184249
0.183374
0.182476
0.181552
0.180608
0.179638
0.178645
0.177623
0.176575
0.175515
0.174431
0.17331
0.172178
0.171037
0.169858
0.168678
0.167516
0.166303
0.165081
0.163942
0.162774
0.161531
0.160386
0.159332
0.158168
0.157065
0.15614
0.155108
0.154054
0.153268
0.152495
0.151667
0.151021
0.150445
0.149886
0.14945
0.149096
0.148836
0.148647
0.148391
0.148218
0.148198
0.148213
0.148204
0.148215
0.148213
0.148271
0.148445
0.14849
0.148519
0.148661
0.148749
0.148854
0.148742
0.14858
0.148661
0.148489
0.148002
0.147897
0.147598
0.146972
0.146453
0.145765
0.1447
0.14346
0.142062
0.140338
0.13842
0.1364
0.134098
0.131478
0.128658
0.125644
0.122295
0.118523
0.114378
0.110026
0.105745
0.102142
0.099758
0.098908
0.0995094
0.102356
0.107278
0.114084
0.123024
0.133285
0.140495
0.143352
0.143201
0.140836
0.138628
0.139314
0.146308
0.164638
0.194402
0.225062
0.2416
0.244533
0.243197
0.239914
0.235257
0.232383
0.23622
0.244536
0.252748
0.258395
0.260447
0.259569
0.258837
0.259283
0.260211
0.262556
0.265867
0.270868
0.278385
0.290795
0.31081
0.346104
0.415362
0.248093
0.248014
0.247929
0.247837
0.247739
0.247633
0.247521
0.247401
0.247273
0.247137
0.246995
0.246844
0.246684
0.246512
0.246328
0.246133
0.245925
0.245706
0.245472
0.245225
0.24496
0.24468
0.244383
0.244073
0.243747
0.243401
0.24304
0.242666
0.242274
0.241868
0.241458
0.241024
0.240576
0.240147
0.239704
0.239224
0.238772
0.23835
0.237884
0.237432
0.237045
0.236614
0.236174
0.235837
0.235513
0.23518
0.23493
0.234724
0.234544
0.234433
0.234374
0.234366
0.234383
0.234388
0.234432
0.234555
0.234694
0.234819
0.234974
0.235115
0.235281
0.235503
0.235643
0.235792
0.235991
0.236141
0.236301
0.236355
0.23638
0.236566
0.236551
0.236242
0.236329
0.236353
0.23594
0.235732
0.235474
0.234647
0.233816
0.232965
0.231671
0.230227
0.228769
0.226895
0.224649
0.222164
0.2193
0.215872
0.211746
0.206822
0.201082
0.194615
0.188155
0.182832
0.17982
0.179633
0.182555
0.189164
0.19837
0.208497
0.216694
0.221604
0.223706
0.223897
0.222752
0.222076
0.222831
0.226956
0.235627
0.245497
0.252803
0.254743
0.256196
0.256846
0.257528
0.259154
0.262248
0.265336
0.266782
0.265975
0.263354
0.259632
0.256616
0.254828
0.253747
0.253149
0.252788
0.25252
0.252223
0.252093
0.252535
0.253699
0.256505
0.263839
0.25828
0.258388
0.258496
0.258604
0.258713
0.258821
0.25893
0.259039
0.25915
0.25926
0.259369
0.259474
0.259577
0.259676
0.259771
0.259862
0.259949
0.260031
0.260108
0.26018
0.260246
0.260306
0.260361
0.260408
0.260449
0.260485
0.260511
0.260532
0.260547
0.260553
0.260553
0.260549
0.260535
0.260518
0.260501
0.260474
0.260445
0.260425
0.260406
0.260383
0.260373
0.260372
0.260369
0.260384
0.260424
0.260479
0.260555
0.260661
0.260795
0.260956
0.261149
0.261374
0.261623
0.261867
0.262118
0.262397
0.26268
0.262954
0.263249
0.263542
0.263832
0.264137
0.264416
0.264702
0.265009
0.265284
0.26555
0.265792
0.266011
0.266248
0.266428
0.266572
0.266743
0.266897
0.267029
0.267064
0.267079
0.266969
0.266667
0.266316
0.265841
0.265209
0.264485
0.26361
0.262526
0.26128
0.259831
0.25808
0.255888
0.253151
0.249829
0.245937
0.241796
0.238106
0.23577
0.235428
0.236715
0.239385
0.242715
0.245658
0.247661
0.248929
0.249708
0.250193
0.250513
0.251147
0.252153
0.25357
0.254282
0.253867
0.254923
0.255182
0.256629
0.257399
0.258362
0.260589
0.264782
0.267991
0.268529
0.266794
0.263801
0.259974
0.256739
0.254769
0.253566
0.252865
0.252381
0.251985
0.251566
0.25121
0.25101
0.250886
0.250902
0.251454
0.260344
0.260496
0.26065
0.260806
0.260966
0.261128
0.261294
0.261462
0.261633
0.261808
0.261986
0.262168
0.26235
0.262532
0.262714
0.262895
0.263075
0.263255
0.263434
0.263612
0.263788
0.263964
0.264137
0.264308
0.264478
0.264646
0.26481
0.264972
0.265134
0.265291
0.265445
0.2656
0.265752
0.265903
0.266058
0.266212
0.266365
0.266523
0.266686
0.26685
0.26702
0.267205
0.267393
0.267588
0.267806
0.268034
0.26827
0.268528
0.268806
0.269102
0.26942
0.269756
0.270097
0.270428
0.270765
0.271118
0.271459
0.271783
0.272128
0.272475
0.272818
0.273161
0.273474
0.2738
0.274135
0.274432
0.274726
0.27501
0.275284
0.27557
0.27581
0.276052
0.27632
0.276564
0.276862
0.277057
0.27724
0.277419
0.277452
0.277426
0.277377
0.277234
0.27702
0.276775
0.276424
0.275948
0.275353
0.27458
0.273503
0.272011
0.270025
0.267446
0.264241
0.260833
0.25831
0.25741
0.257865
0.258806
0.2591
0.258624
0.257646
0.257262
0.257404
0.258154
0.259621
0.261575
0.262787
0.26259
0.259634
0.25536
0.25519
0.255281
0.256749
0.257525
0.258534
0.260889
0.265215
0.26841
0.268773
0.266902
0.263812
0.259886
0.256594
0.254639
0.253472
0.252812
0.252372
0.252002
0.251543
0.25116
0.250898
0.250716
0.250589
0.250501
0.260927
0.261099
0.261273
0.26145
0.26163
0.261813
0.261999
0.262189
0.262384
0.262583
0.262785
0.262989
0.263195
0.263401
0.263609
0.263818
0.264029
0.26424
0.264451
0.264663
0.264875
0.26509
0.265306
0.265519
0.265733
0.265946
0.266156
0.266365
0.266576
0.266783
0.266991
0.267201
0.26741
0.267618
0.26783
0.268043
0.268255
0.268475
0.268704
0.268931
0.269162
0.269408
0.269656
0.269912
0.270192
0.270483
0.270783
0.271104
0.271438
0.271783
0.272141
0.272513
0.272891
0.273263
0.273646
0.274045
0.274413
0.274769
0.275149
0.275525
0.275891
0.276247
0.276573
0.27693
0.2773
0.277624
0.277967
0.278315
0.278656
0.278993
0.279302
0.279634
0.279915
0.280208
0.280592
0.280783
0.281003
0.281289
0.281377
0.281463
0.281567
0.281579
0.28154
0.281507
0.281425
0.28128
0.281089
0.280808
0.280326
0.279555
0.278381
0.276653
0.274358
0.27194
0.270285
0.26975
0.269572
0.26876
0.266752
0.263705
0.261212
0.2601
0.260039
0.260829
0.26271
0.265203
0.266436
0.265653
0.261057
0.255659
0.255233
0.255388
0.256859
0.257624
0.258616
0.260936
0.26523
0.268428
0.268772
0.266863
0.263656
0.259574
0.256334
0.254459
0.253371
0.252757
0.252334
0.25198
0.251506
0.251128
0.250894
0.250719
0.250563
0.250464
0.261172
0.261345
0.26152
0.261699
0.261879
0.262063
0.262249
0.262439
0.262632
0.262829
0.263031
0.263239
0.26345
0.263665
0.263882
0.264098
0.264317
0.264538
0.26476
0.264983
0.265204
0.265427
0.265652
0.265874
0.266101
0.266328
0.266551
0.266776
0.267007
0.267231
0.267456
0.267687
0.267916
0.268145
0.268383
0.268622
0.268861
0.26911
0.26937
0.269631
0.269901
0.270189
0.270475
0.270767
0.27108
0.271396
0.271718
0.272063
0.272422
0.272797
0.273184
0.273578
0.273971
0.274351
0.274747
0.275149
0.275502
0.275852
0.276241
0.276604
0.276959
0.277309
0.27763
0.278009
0.278356
0.278641
0.278956
0.279277
0.279593
0.279904
0.280195
0.280533
0.280822
0.28113
0.281578
0.281803
0.282086
0.282473
0.282605
0.282766
0.282997
0.283099
0.283188
0.28332
0.283411
0.283464
0.283499
0.283491
0.283355
0.28298
0.282273
0.281115
0.279418
0.277276
0.275288
0.274137
0.273561
0.27237
0.269669
0.26564
0.262398
0.260905
0.260755
0.261605
0.263696
0.266411
0.267705
0.266728
0.261544
0.255723
0.255265
0.255434
0.256898
0.257629
0.258596
0.260917
0.265234
0.268446
0.268759
0.266772
0.26345
0.25934
0.256202
0.254386
0.253299
0.252683
0.252256
0.251909
0.251502
0.251136
0.250924
0.25073
0.250569
0.250467
0.261427
0.261604
0.261783
0.261967
0.262153
0.262343
0.262536
0.262734
0.262937
0.263143
0.263354
0.263567
0.263779
0.263994
0.264212
0.264429
0.264651
0.264873
0.265094
0.265319
0.265542
0.26577
0.265998
0.266223
0.266453
0.266681
0.266906
0.267131
0.267362
0.267584
0.267809
0.268043
0.268273
0.268505
0.268746
0.268988
0.269229
0.269481
0.269744
0.270008
0.270283
0.270579
0.270873
0.271177
0.271502
0.27182
0.272145
0.272493
0.272854
0.273234
0.273629
0.274044
0.274453
0.274841
0.275253
0.275658
0.276005
0.276355
0.276752
0.277133
0.277519
0.277892
0.278232
0.278642
0.278991
0.279289
0.279625
0.279968
0.2803
0.280615
0.28092
0.281271
0.281547
0.281884
0.282337
0.282509
0.282765
0.28314
0.283235
0.283387
0.283628
0.283727
0.283826
0.283977
0.284097
0.284186
0.284286
0.284376
0.284352
0.284158
0.28369
0.282826
0.281466
0.279667
0.278036
0.277054
0.276091
0.274153
0.270701
0.266141
0.262581
0.260882
0.260672
0.261572
0.263798
0.266736
0.268156
0.267093
0.261836
0.255765
0.255336
0.255492
0.256911
0.257616
0.25855
0.260884
0.265248
0.268481
0.268763
0.266693
0.263341
0.259268
0.256151
0.254352
0.253273
0.252649
0.252248
0.251948
0.251515
0.251124
0.250849
0.25068
0.25055
0.250428
0.261643
0.261818
0.261995
0.262174
0.262357
0.262544
0.262734
0.262928
0.263126
0.263329
0.263537
0.26375
0.263964
0.264184
0.264403
0.264619
0.264842
0.265065
0.265288
0.265516
0.265737
0.265964
0.266188
0.266412
0.266644
0.266876
0.267105
0.267338
0.267581
0.26781
0.268044
0.268285
0.26852
0.26876
0.26901
0.26926
0.269509
0.26977
0.270042
0.270312
0.270597
0.270903
0.271206
0.271525
0.271867
0.272201
0.272548
0.272918
0.273295
0.273689
0.274073
0.274468
0.27486
0.275237
0.275645
0.276049
0.276394
0.276741
0.277144
0.27751
0.277891
0.278248
0.278572
0.278974
0.279309
0.279607
0.279949
0.280304
0.28067
0.281007
0.281354
0.281715
0.281964
0.282288
0.282718
0.282874
0.283146
0.283534
0.283612
0.283781
0.284063
0.284184
0.284312
0.284506
0.28465
0.284787
0.284943
0.285114
0.285144
0.285008
0.28462
0.283846
0.282569
0.28085
0.279069
0.277844
0.276898
0.275068
0.271474
0.266506
0.262659
0.260905
0.260701
0.261638
0.264012
0.267012
0.268421
0.267308
0.261928
0.255847
0.255326
0.255565
0.257298
0.2576
0.258579
0.260961
0.265373
0.268598
0.268802
0.266716
0.263366
0.25925
0.256117
0.254302
0.253224
0.252626
0.252235
0.251929
0.251504
0.251139
0.250872
0.250678
0.250535
0.250452
0.261984
0.262166
0.262349
0.262535
0.262725
0.262918
0.263116
0.263318
0.263525
0.263733
0.263946
0.264159
0.264369
0.264582
0.264798
0.265011
0.265232
0.265451
0.265671
0.265895
0.266115
0.266346
0.266571
0.266793
0.267022
0.267248
0.267471
0.267698
0.267934
0.268159
0.268392
0.268638
0.268874
0.269114
0.269363
0.26961
0.269858
0.270121
0.270394
0.270662
0.270942
0.271241
0.271529
0.271836
0.272168
0.272495
0.272841
0.27321
0.27359
0.273991
0.274378
0.274779
0.275171
0.275553
0.275974
0.276379
0.276729
0.277083
0.277499
0.277849
0.278224
0.27858
0.278902
0.279323
0.27965
0.279946
0.280289
0.280632
0.280972
0.281271
0.281585
0.28192
0.282168
0.282521
0.282991
0.283144
0.283433
0.283842
0.283903
0.284077
0.284338
0.284425
0.284524
0.284692
0.284848
0.284959
0.285102
0.285264
0.285338
0.285289
0.285006
0.284307
0.283106
0.281523
0.280156
0.279373
0.278496
0.276277
0.272092
0.266681
0.262717
0.260786
0.260605
0.261566
0.264065
0.267284
0.268842
0.267809
0.262116
0.255912
0.255288
0.256682
0.260189
0.257626
0.25859
0.260961
0.265416
0.268625
0.268792
0.266684
0.263275
0.259149
0.256085
0.254296
0.253257
0.252693
0.252289
0.251912
0.251526
0.251169
0.250929
0.250714
0.250564
0.250499
0.262321
0.262497
0.262673
0.262852
0.263037
0.263225
0.263418
0.263613
0.263815
0.264021
0.264232
0.264448
0.264662
0.264881
0.2651
0.26531
0.26553
0.265748
0.265969
0.266196
0.26641
0.266639
0.266861
0.267083
0.267315
0.267541
0.267765
0.267994
0.268234
0.268459
0.268693
0.268939
0.269176
0.269421
0.269678
0.269928
0.270182
0.270452
0.27073
0.271
0.271287
0.271592
0.271885
0.272202
0.272542
0.272875
0.273232
0.273607
0.273998
0.274401
0.274777
0.275177
0.275566
0.275948
0.276378
0.276784
0.27713
0.277481
0.277902
0.278246
0.278628
0.278995
0.279338
0.279789
0.28014
0.280477
0.280853
0.281222
0.281572
0.281864
0.282208
0.282512
0.282737
0.283115
0.283532
0.283632
0.283901
0.284265
0.284277
0.284453
0.284735
0.284792
0.284897
0.285087
0.285215
0.285363
0.285538
0.285749
0.28582
0.28573
0.285405
0.284738
0.283604
0.282032
0.280522
0.27953
0.27857
0.276398
0.272222
0.266763
0.262475
0.26057
0.260308
0.261406
0.263922
0.267271
0.26892
0.267904
0.262294
0.255987
0.256244
0.262872
0.26444
0.259485
0.258472
0.26109
0.265558
0.268797
0.268999
0.266899
0.263431
0.259234
0.256127
0.254394
0.253342
0.252699
0.252291
0.252024
0.251644
0.251272
0.250988
0.250795
0.25061
0.250456
0.262781
0.262959
0.26313
0.263304
0.263483
0.263665
0.26385
0.264035
0.264226
0.264422
0.264619
0.264823
0.265029
0.265242
0.265466
0.265684
0.265917
0.26614
0.266367
0.266602
0.266824
0.267068
0.267299
0.267531
0.267774
0.26801
0.268243
0.268477
0.268725
0.268952
0.269191
0.26944
0.269679
0.269925
0.270181
0.270433
0.270688
0.270957
0.271231
0.271495
0.271775
0.272072
0.272367
0.27269
0.273034
0.273366
0.273723
0.274092
0.27448
0.27487
0.275237
0.275632
0.276018
0.276396
0.276825
0.277217
0.277557
0.277903
0.278329
0.27866
0.279046
0.279395
0.279716
0.280151
0.28044
0.280727
0.281049
0.281351
0.281663
0.281901
0.282206
0.282489
0.28268
0.283056
0.28348
0.283607
0.28394
0.284355
0.284375
0.284584
0.284896
0.284998
0.285129
0.28534
0.285515
0.285653
0.285845
0.286105
0.286231
0.286206
0.285948
0.285302
0.284148
0.282534
0.280859
0.27979
0.278883
0.276769
0.272632
0.266988
0.262652
0.260489
0.260304
0.261589
0.264311
0.26777
0.2694
0.268327
0.262585
0.256345
0.25851
0.294511
0.284702
0.261666
0.258818
0.26105
0.265666
0.268902
0.268975
0.266696
0.263162
0.259088
0.256205
0.25443
0.253266
0.252613
0.252245
0.252063
0.251641
0.25127
0.251017
0.25082
0.250598
0.250394
0.263292
0.263462
0.263633
0.263809
0.263985
0.264167
0.264346
0.264532
0.264722
0.264912
0.265111
0.265309
0.265507
0.26571
0.265919
0.266117
0.266332
0.266538
0.266748
0.266969
0.267172
0.267401
0.267619
0.267842
0.268081
0.268313
0.268547
0.268784
0.269042
0.269273
0.269519
0.269776
0.270026
0.270286
0.270553
0.270815
0.271081
0.271364
0.271653
0.271933
0.27223
0.272538
0.272847
0.273189
0.273541
0.273892
0.27427
0.274654
0.275072
0.275462
0.275824
0.276213
0.276583
0.276951
0.277375
0.277749
0.278084
0.278426
0.278858
0.279167
0.27955
0.279886
0.280189
0.280606
0.280862
0.281145
0.281478
0.281799
0.282153
0.282443
0.28282
0.283131
0.283373
0.283816
0.28416
0.284265
0.284566
0.284868
0.284832
0.285006
0.285239
0.285245
0.285342
0.285525
0.285631
0.285776
0.285969
0.286198
0.286292
0.286278
0.286077
0.28551
0.284449
0.282961
0.281667
0.280978
0.28
0.277547
0.273005
0.267053
0.262522
0.26009
0.260029
0.261368
0.264061
0.267709
0.269479
0.268581
0.262558
0.261116
0.27521
0.387373
0.360927
0.266706
0.259372
0.26124
0.265822
0.269096
0.269262
0.267214
0.263899
0.259744
0.25649
0.254479
0.253344
0.252731
0.252331
0.251973
0.251562
0.25123
0.251026
0.250821
0.250603
0.250326
0.263797
0.263979
0.26416
0.26434
0.264525
0.264709
0.264897
0.265086
0.265281
0.265481
0.265691
0.2659
0.266108
0.266323
0.266545
0.266751
0.266978
0.267185
0.267401
0.267624
0.267822
0.268053
0.268253
0.268461
0.268679
0.268893
0.269107
0.269321
0.269559
0.269773
0.270007
0.27025
0.270489
0.270739
0.270998
0.271257
0.271522
0.271802
0.272092
0.27238
0.272688
0.273002
0.273315
0.273663
0.27402
0.274377
0.274756
0.275131
0.275548
0.275933
0.276298
0.276701
0.277075
0.277443
0.277877
0.278257
0.278602
0.278948
0.279394
0.279707
0.280114
0.280488
0.280832
0.281278
0.281577
0.281917
0.282284
0.282655
0.283028
0.283303
0.283716
0.283951
0.284125
0.284548
0.284853
0.284927
0.285256
0.285567
0.285518
0.285728
0.28595
0.285954
0.286013
0.286155
0.286258
0.286329
0.28648
0.286767
0.286913
0.286872
0.286632
0.286085
0.285108
0.283705
0.282139
0.281064
0.280094
0.277839
0.273335
0.267327
0.262347
0.260161
0.260057
0.261385
0.264151
0.267828
0.269649
0.268716
0.284163
0.268477
0.335474
0.51293
0.477929
0.296534
0.25975
0.261629
0.265884
0.269264
0.269365
0.266971
0.263215
0.258884
0.25597
0.254487
0.253617
0.252976
0.252445
0.251943
0.251507
0.251174
0.25096
0.250777
0.2506
0.250364
0.264266
0.264452
0.264638
0.264822
0.265009
0.265194
0.26538
0.265563
0.265745
0.26593
0.266117
0.266305
0.266497
0.266689
0.266889
0.267096
0.267315
0.267529
0.26776
0.267998
0.268202
0.268453
0.268663
0.26889
0.269123
0.269349
0.269577
0.269801
0.270051
0.270263
0.270501
0.270743
0.27098
0.27123
0.271484
0.27174
0.272005
0.272288
0.27258
0.272874
0.273193
0.273507
0.273826
0.274183
0.274545
0.274924
0.27532
0.275699
0.276118
0.276498
0.276869
0.277288
0.27768
0.278054
0.278487
0.278851
0.279203
0.279552
0.280002
0.280299
0.280697
0.281061
0.281401
0.281819
0.282064
0.282376
0.282693
0.283022
0.283365
0.283598
0.283987
0.284224
0.284402
0.28486
0.285134
0.285184
0.285512
0.285711
0.285635
0.285824
0.286032
0.285983
0.286097
0.286241
0.286319
0.286481
0.286692
0.28689
0.286998
0.287016
0.286826
0.28624
0.285187
0.283824
0.282658
0.282013
0.281099
0.278637
0.273946
0.267484
0.261741
0.259472
0.260006
0.261553
0.264233
0.268204
0.270282
0.269655
0.280882
0.303963
0.529076
0.81161
0.76838
0.447996
0.268842
0.264163
0.267781
0.270126
0.270308
0.268384
0.26462
0.259894
0.256523
0.254603
0.253422
0.252714
0.252211
0.251817
0.251436
0.251089
0.250888
0.250728
0.25057
0.250454
0.264502
0.264694
0.264886
0.265082
0.265282
0.265485
0.265682
0.265881
0.266084
0.266289
0.266506
0.266713
0.266921
0.267137
0.267361
0.267563
0.267798
0.268
0.268227
0.268456
0.268657
0.268907
0.269109
0.269335
0.269564
0.269793
0.270024
0.270251
0.270512
0.270728
0.270973
0.271215
0.271454
0.271708
0.271966
0.272225
0.272488
0.272767
0.273059
0.273358
0.273685
0.273996
0.274309
0.274657
0.27501
0.275383
0.275768
0.27615
0.276574
0.276952
0.277321
0.277735
0.278114
0.278489
0.278932
0.279293
0.279645
0.279987
0.280438
0.280723
0.281138
0.281503
0.281845
0.282254
0.282502
0.282847
0.283167
0.283526
0.283892
0.284166
0.284671
0.284937
0.285165
0.285677
0.285957
0.286042
0.286445
0.286604
0.286571
0.28683
0.287015
0.286994
0.287052
0.287232
0.287301
0.287403
0.287599
0.287924
0.288053
0.288026
0.287811
0.287305
0.286318
0.284871
0.283634
0.283138
0.282321
0.279833
0.276038
0.268769
0.261981
0.261814
0.2625
0.262693
0.265144
0.268692
0.270504
0.278666
0.29744
0.447792
0.979954
1.51399
1.49611
0.977813
0.38263
0.27109
0.272715
0.271848
0.27204
0.269504
0.265026
0.26018
0.257229
0.25541
0.254117
0.253297
0.252658
0.252116
0.251598
0.251217
0.250949
0.25072
0.250539
0.2504
0.264893
0.265089
0.265287
0.265472
0.265668
0.265849
0.266047
0.266231
0.266424
0.266622
0.266821
0.267029
0.267239
0.267458
0.267693
0.267909
0.268153
0.268365
0.268602
0.268838
0.269049
0.26931
0.269518
0.269758
0.269985
0.270216
0.270452
0.27068
0.270946
0.271167
0.27142
0.271667
0.271919
0.272179
0.272437
0.272698
0.272963
0.273236
0.273528
0.273824
0.274142
0.274452
0.27477
0.275125
0.275485
0.275865
0.27625
0.276625
0.277041
0.277415
0.277787
0.278204
0.27859
0.278966
0.27941
0.279771
0.280133
0.28048
0.280948
0.281228
0.281672
0.282082
0.282428
0.282839
0.283107
0.283481
0.28378
0.284141
0.284466
0.284695
0.28515
0.285414
0.285639
0.286159
0.286461
0.286532
0.286958
0.287194
0.287182
0.287448
0.287661
0.287627
0.287768
0.287848
0.28793
0.288119
0.288354
0.28866
0.288906
0.289023
0.288885
0.288359
0.287337
0.28589
0.284582
0.284204
0.284837
0.284389
0.28045
0.272635
0.276746
0.289507
0.28659
0.272012
0.269275
0.273687
0.278904
0.292628
0.351832
0.723465
1.636
2.4786
2.54122
1.90212
0.864846
0.314393
0.281335
0.278676
0.276378
0.27592
0.27036
0.264316
0.260143
0.257309
0.255394
0.254128
0.253298
0.252514
0.252023
0.25158
0.251261
0.251027
0.250881
0.250793
0.265371
0.265561
0.265754
0.265941
0.266134
0.266319
0.266515
0.266697
0.266883
0.267073
0.267258
0.267452
0.267649
0.267848
0.268048
0.268263
0.268483
0.268702
0.268932
0.269173
0.26939
0.269665
0.269876
0.270128
0.270359
0.270599
0.270837
0.271068
0.271339
0.27157
0.271839
0.272094
0.272358
0.272626
0.272898
0.273178
0.273465
0.273762
0.274075
0.2744
0.274745
0.275078
0.275426
0.275798
0.276161
0.276552
0.276931
0.277303
0.277713
0.278072
0.278427
0.278826
0.279214
0.279592
0.280027
0.280366
0.280717
0.281053
0.281507
0.281774
0.282206
0.282595
0.282934
0.283329
0.283589
0.283961
0.284244
0.284594
0.284919
0.285177
0.285696
0.285969
0.286204
0.286723
0.286971
0.286996
0.287385
0.287464
0.287359
0.287623
0.287782
0.287772
0.287929
0.288181
0.288262
0.288447
0.288777
0.289253
0.289456
0.289569
0.289533
0.289247
0.288545
0.287398
0.287228
0.28895
0.290729
0.290431
0.288527
0.297591
0.347202
0.410137
0.411239
0.354753
0.289217
0.28342
0.289324
0.315594
0.468096
1.13738
2.48275
3.65357
3.84603
3.19176
1.81667
0.573533
0.314384
0.305017
0.307248
0.308296
0.295115
0.280506
0.270831
0.264205
0.26032
0.25802
0.256294
0.255185
0.254421
0.253925
0.253385
0.252676
0.252021
0.251448
0.266052
0.266227
0.266408
0.266586
0.266772
0.26695
0.267137
0.267316
0.267499
0.267685
0.267871
0.268062
0.268254
0.26845
0.268662
0.268853
0.269082
0.269273
0.269501
0.269715
0.269916
0.270171
0.270371
0.270616
0.270832
0.271069
0.271304
0.271528
0.271792
0.272019
0.272286
0.272535
0.272797
0.273062
0.273331
0.273613
0.273902
0.274198
0.274509
0.274818
0.275141
0.275475
0.27584
0.276229
0.276607
0.277016
0.277406
0.277781
0.278191
0.278551
0.278913
0.279323
0.27972
0.280107
0.280548
0.280889
0.281259
0.281599
0.282067
0.282322
0.282768
0.283165
0.28351
0.283911
0.284255
0.28467
0.284985
0.285403
0.285746
0.286041
0.286604
0.286907
0.287164
0.287688
0.288003
0.288106
0.288545
0.288678
0.288553
0.288757
0.288806
0.288901
0.289032
0.289158
0.28929
0.289443
0.289648
0.290126
0.290477
0.290687
0.290951
0.29099
0.290559
0.290352
0.291681
0.295546
0.298078
0.300579
0.311786
0.361247
0.48331
0.613393
0.634366
0.564244
0.388878
0.307767
0.308101
0.361912
0.656697
1.6754
3.49693
4.97194
5.19625
4.67929
3.17909
1.30687
0.491263
0.408312
0.440804
0.497411
0.523992
0.481108
0.400004
0.331557
0.296204
0.280311
0.273971
0.270842
0.268797
0.266812
0.264887
0.26303
0.261169
0.259262
0.267042
0.267188
0.267338
0.267493
0.26766
0.26782
0.26799
0.268155
0.268327
0.268502
0.268677
0.268858
0.26904
0.269226
0.269421
0.269612
0.269831
0.270012
0.270232
0.270437
0.270632
0.270876
0.271061
0.2713
0.271497
0.271723
0.271942
0.272153
0.272403
0.272631
0.272894
0.273131
0.273392
0.27366
0.273935
0.274228
0.274535
0.274873
0.275191
0.275534
0.275885
0.276224
0.276574
0.276946
0.277315
0.277706
0.27807
0.278433
0.278831
0.279182
0.279542
0.279953
0.280365
0.280764
0.281205
0.281557
0.281956
0.282319
0.282834
0.283119
0.283608
0.284046
0.284412
0.284838
0.285238
0.285673
0.285993
0.286415
0.286784
0.287098
0.287668
0.288015
0.288326
0.288867
0.289186
0.289286
0.289751
0.289812
0.289606
0.289818
0.289762
0.289782
0.290009
0.290055
0.29002
0.290255
0.290627
0.291124
0.291356
0.291631
0.292381
0.293248
0.29347
0.294315
0.297362
0.302675
0.30849
0.32067
0.360209
0.465491
0.67023
0.881187
0.937418
0.866547
0.617264
0.383238
0.351576
0.445859
0.914651
2.31437
4.63455
6.26793
6.4415
6.09658
4.76277
2.55077
1.04128
0.786157
0.942912
1.24506
1.51587
1.55515
1.32598
0.992386
0.721748
0.538477
0.443664
0.389081
0.354947
0.332915
0.319719
0.310673
0.303782
0.297644
0.268813
0.268872
0.268938
0.269006
0.269083
0.269165
0.26926
0.269359
0.26947
0.269592
0.269725
0.269871
0.270029
0.270192
0.270372
0.270541
0.270745
0.270913
0.271126
0.271321
0.271515
0.271755
0.271941
0.272181
0.272375
0.272606
0.272827
0.27304
0.273283
0.273499
0.273754
0.273977
0.274229
0.274484
0.27475
0.275034
0.275344
0.275712
0.276002
0.276313
0.276657
0.277007
0.277355
0.277716
0.278093
0.278516
0.278912
0.279277
0.279674
0.280018
0.28037
0.280775
0.281211
0.281642
0.282102
0.282487
0.282924
0.283325
0.28387
0.284204
0.284758
0.285223
0.285584
0.285998
0.286449
0.286853
0.287187
0.287631
0.288034
0.288358
0.288936
0.289219
0.289444
0.289923
0.290174
0.290185
0.290543
0.290596
0.29042
0.290555
0.290452
0.29054
0.290669
0.290852
0.291022
0.291266
0.291521
0.291916
0.292412
0.293056
0.294656
0.296708
0.298035
0.299932
0.304124
0.312019
0.325177
0.357008
0.435785
0.60359
0.898391
1.20608
1.31627
1.25612
0.958243
0.567536
0.450401
0.580945
1.23068
3.04163
5.78528
7.17344
7.53795
7.32682
6.29657
4.16305
2.03851
1.57599
1.97624
2.71693
3.43953
3.76171
3.57924
3.066
2.51051
1.94816
1.55327
1.2733
1.05789
0.855602
0.698896
0.586493
0.513422
0.47209
0.272961
0.272743
0.272539
0.272355
0.272202
0.272072
0.271966
0.271874
0.271807
0.271763
0.271741
0.271745
0.271774
0.271818
0.27189
0.271966
0.272078
0.272175
0.272316
0.272447
0.27259
0.272771
0.272926
0.273136
0.273304
0.27352
0.273737
0.273958
0.274217
0.274462
0.274731
0.274975
0.27524
0.275498
0.275778
0.276051
0.276346
0.276707
0.277002
0.277313
0.277649
0.277991
0.278337
0.278711
0.279092
0.279499
0.279887
0.28026
0.28066
0.281023
0.2814
0.281838
0.282314
0.282758
0.283207
0.283602
0.28406
0.284471
0.285031
0.285397
0.285953
0.286364
0.286718
0.287122
0.28764
0.28802
0.288374
0.288854
0.289175
0.289367
0.289806
0.290123
0.290381
0.290834
0.291212
0.291257
0.291603
0.291557
0.291301
0.291439
0.291333
0.291152
0.291287
0.291373
0.291573
0.292023
0.291944
0.292041
0.293096
0.294738
0.297489
0.301144
0.30436
0.3079
0.314369
0.327636
0.354602
0.415478
0.54184
0.780787
1.1783
1.60083
1.78969
1.75631
1.4246
0.898603
0.644101
0.78805
1.6286
3.87993
6.54196
7.77612
8.39379
8.45844
7.74528
5.99939
3.58149
2.90187
3.64555
4.94193
6.18016
6.84187
6.87286
6.53549
6.08643
5.24654
4.41879
3.8589
3.52224
3.12807
2.70143
2.27181
1.84486
1.47324
0.282599
0.281831
0.28108
0.280344
0.279624
0.278956
0.27832
0.277752
0.277224
0.276771
0.276355
0.275998
0.275696
0.275419
0.275213
0.275024
0.274905
0.274775
0.274734
0.274679
0.274673
0.274692
0.274717
0.274797
0.274846
0.274957
0.275076
0.275216
0.275393
0.275587
0.275814
0.276049
0.276295
0.276549
0.276838
0.277104
0.277389
0.277736
0.278038
0.278373
0.278774
0.27914
0.279455
0.279797
0.280165
0.280572
0.280971
0.281362
0.28178
0.282163
0.282554
0.282997
0.283494
0.283959
0.284397
0.284823
0.285314
0.28578
0.286379
0.286779
0.287337
0.287704
0.288058
0.288477
0.289031
0.289433
0.289769
0.29016
0.29056
0.290843
0.291307
0.291711
0.292086
0.292594
0.292972
0.293085
0.293437
0.293449
0.293149
0.292969
0.29249
0.292536
0.292734
0.292697
0.292729
0.292928
0.292403
0.292687
0.295062
0.299109
0.304125
0.309293
0.313698
0.318946
0.329184
0.351982
0.399562
0.49631
0.676649
0.993847
1.50282
2.05213
2.34152
2.35326
2.02705
1.40262
0.942144
1.07314
2.09539
4.44162
6.73571
7.66144
8.41843
9.09431
8.99305
7.81302
5.57785
4.75735
5.88159
7.74821
9.60395
10.7637
10.9318
10.8449
10.9543
10.4548
9.14044
8.15004
7.87219
7.69672
7.47512
7.31879
7.11623
6.6745
0.304449
0.302389
0.300359
0.298351
0.296417
0.294527
0.292773
0.291077
0.289494
0.288077
0.286733
0.285544
0.284479
0.283485
0.282613
0.281828
0.281115
0.28046
0.279953
0.27945
0.279083
0.278708
0.278412
0.278206
0.277974
0.277874
0.277762
0.2777
0.277666
0.277668
0.277717
0.277784
0.277899
0.278035
0.278199
0.278369
0.278574
0.278854
0.279103
0.279396
0.279777
0.280175
0.280506
0.280861
0.281233
0.28163
0.282054
0.282487
0.282935
0.283384
0.283841
0.284346
0.284943
0.285511
0.286019
0.286529
0.287122
0.287736
0.288468
0.288919
0.289518
0.289964
0.290427
0.290999
0.291714
0.292364
0.292953
0.293461
0.294105
0.294458
0.294821
0.295318
0.295745
0.296089
0.296677
0.296943
0.297013
0.297063
0.297049
0.29679
0.296101
0.295794
0.295679
0.295287
0.295373
0.295646
0.295632
0.297382
0.302442
0.309117
0.315471
0.32084
0.325805
0.333236
0.349891
0.386417
0.457921
0.592283
0.82728
1.22238
1.8395
2.50634
2.89623
2.9704
2.69099
2.03012
1.33652
1.4152
2.50992
4.74027
6.51601
7.20051
7.9247
8.85349
9.55434
9.22689
7.66778
6.88872
8.3718
10.6537
12.6999
13.6467
13.8676
13.9915
14.8475
15.9729
15.5162
14.0098
13.382
13.5591
13.7552
14.4381
15.77
17.6211
0.351545
0.346902
0.342285
0.337656
0.333183
0.328667
0.324485
0.320285
0.316399
0.312785
0.309348
0.306287
0.303482
0.300906
0.29853
0.296492
0.294428
0.292735
0.291054
0.289587
0.288365
0.287053
0.286072
0.28511
0.284298
0.283609
0.283051
0.282589
0.282117
0.281857
0.281612
0.281469
0.281279
0.281264
0.28127
0.281292
0.281374
0.281545
0.281695
0.281909
0.282238
0.282567
0.282833
0.283144
0.283486
0.283856
0.28426
0.284684
0.285142
0.28563
0.286148
0.286756
0.287534
0.288303
0.288991
0.289679
0.290471
0.291318
0.292257
0.29269
0.293344
0.293953
0.294577
0.295349
0.296203
0.297197
0.298002