/*--------------------------------*- C++ -*----------------------------------*\
| =========                 |                                                 |
| \\      /  F ield         | OpenFOAM: The Open Source CFD Toolbox           |
|  \\    /   O peration     | Version:  v1912                                 |
|   \\  /    A nd           | Website:  www.openfoam.com                      |
|    \\/     M anipulation  |                                                 |
\*---------------------------------------------------------------------------*/
FoamFile
{
    version     2.0;
    format      ascii;
    class       volScalarField;
    location    "50";
    object      p;
}
// * * * * * * * * * * * * * * * * * * * * * * * * * * * * * * * * * * * * * //

dimensions      [1 -1 -2 0 0 0 0];


internalField   nonuniform List<scalar> 
14268
(
107606
107394
107192
107000
106817
106642
106477
106320
106171
106030
105897
105770
105650
105536
105429
105326
105229
105136
105048
104963
104881
104801
104722
104645
104566
104487
104405
104319
104228
104130
104025
103909
103783
103645
103492
103324
103139
102935
102711
102466
102199
101908
101592
101252
100886
100493
100075
99629.7
99158.2
98660.8
98138.3
97591.2
97019
96425.8
95811.5
95178.1
94526.4
93856.8
93172.8
92477.3
91772
91059.7
90340.6
89618.1
88897.6
88179.4
87465.8
86760.7
86066.6
85387.6
84725.3
84081.8
83463.5
82871.9
82308
81781.6
81288.7
80832.3
80421.1
80059.1
79743.6
79481.9
79279.4
79131
79038.9
79008.7
79034.5
79105.5
79214.7
79352.9
79501.4
79638.6
79751
79821.8
79827.6
79741.3
79510
79207.4
78793.9
78261.8
77633.4
76972
76381.8
75878.6
75305.1
74559.7
73496.1
71920.9
69622.7
66376.4
62437.1
60586.7
60893.3
62449.8
63508.8
63405.9
61591
58318.7
53891
49125.1
45362.1
42761.8
40986.8
39544.3
38323.3
37218.1
36176.6
35121.3
34047.6
33017.2
32045.2
31010.6
29849.6
28676.4
102886
102709
102542
102384
102236
102097
101966
101844
101730
101624
101525
101433
101348
101269
101196
101128
101066
101008
100954
100904
100856
100811
100768
100724
100681
100636
100589
100537
100481
100418
100347
100267
100175
100071
99953.1
99819.2
99668.4
99499.1
99309.5
99098.7
98865.8
98609.1
98327.7
98021.5
97689.9
97331.4
96946.8
96536
96098.6
95635.4
95147
94634
94096
93537
92956.8
92357.6
91740.1
91104.8
90455.1
89793.9
89122.9
88445
87760.3
87072.3
86386.3
85702.7
85023.6
84353.2
83693.8
83049.5
82421.9
81813.2
81229.7
80672.9
80143.9
79652.5
79194.5
78772.9
78396.8
78069.8
77789.3
77562.6
77395.1
77281.9
77225
77230
77290.9
77396.9
77541.3
77714.5
77898.1
78070.3
78217.6
78324
78364.7
78312.1
78114.5
77845.7
77465.7
76966.2
76370.6
75743.1
75188.2
74721
74183.5
73472.9
72442.6
70899.8
68630
65406.1
61493.9
59687.2
60044.3
61645.9
62740.9
62670.1
60883.9
57638.5
53238.9
48505.8
44780.8
42219.9
40482.9
39076.4
37890.7
36820.6
35814
34793.4
33754.4
32758.6
31821.4
30821.4
29694.8
28556.2
98163.5
98021.5
97889.1
97766.2
97652.7
97548.3
97452.7
97365.6
97286.5
97215.2
97151.3
97094.3
97043.9
96999.8
96961.5
96928.7
96901
96877.9
96858.9
96843.5
96831
96820.7
96811.9
96803.7
96795.1
96785
96772.4
96756
96734.4
96706.3
96670.3
96624.5
96567.7
96498.6
96415.3
96316.1
96199.9
96065.1
95910
95733.7
95535.2
95312.9
95065.9
94794.5
94496.5
94172.1
93821.7
93444.9
93041.6
92612.4
92157.9
91678.9
91175.1
90650
90103.9
89538.6
88955.2
88353.9
87738.3
87111.1
86474.3
85830.7
85180.1
84526.4
83874.9
83225.5
82580.9
81945
81320
80710.4
80117.4
79543.3
78994.6
78472.5
77978.1
77521.7
77098.5
76711.7
76370.7
76078.5
75832.8
75641.4
75509.2
75430.8
75409
75449.3
75545.5
75686.8
75866.7
76075.5
76294.6
76502.1
76684.8
76825
76900
76883.1
76719.7
76484.6
76137.3
75669.8
75106.4
74512.7
73993.3
73563.6
73064.4
72389.8
71393.5
69880.5
67634.5
64425.4
60532.1
58770.2
59186.4
60842.3
61978.4
61942.6
60184.2
56961.7
52585.7
47882.4
44195.1
41675.3
39978
38607.9
37458
36423
35451.4
34465.5
33461
32500.1
31597.6
30632.2
29540.1
28436.1
93438.3
93331.1
93233.6
93145.7
93067.1
92997.7
92937.1
92885
92841
92804.6
92775.6
92753.6
92738.2
92728.9
92725.6
92727.7
92734.9
92746.7
92762.6
92782.2
92804.6
92829.3
92855.5
92882.3
92908.7
92933.7
92956.1
92974.8
92988.2
92995.2
92994.2
92983.5
92961.6
92927.5
92879.1
92814.7
92733.3
92633.2
92512.8
92371.1
92207.1
92019.1
91806.4
91568.6
91305.5
91015.4
90699.1
90356.3
89987
89591.7
89171.1
88725.9
88256.2
87764.8
87252.4
86721.1
86171.5
85604
85022.3
84429
83826.2
83216.6
82600
81980.5
81363.2
80748
80137.6
79536
78945.4
78370.3
77811.7
77272.1
76758.1
76270.5
75810.7
75389.2
75000.7
74648.4
74342.4
74085.1
73874.1
73717.7
73620.3
73577.1
73590.6
73666.3
73798
73975
74190.6
74435.4
74690.5
74934.1
75152.9
75330.9
75442.7
75459.4
75329.3
75127.7
74812.8
74376.2
73842.6
73281.7
72797.7
72406.8
71948.1
71310.8
70348.9
68863.2
66636
63433.1
59551.9
57835.5
58319.8
60039.2
61221.2
61223.3
59492.2
56288.5
51931.7
47255.1
43605.1
41128.2
39472
38139
37024.9
36025.3
35088.8
34137.6
33167.7
32241.4
31373.8
30443.1
29385.4
28315.8
88710.6
88638.3
88575.7
88522.8
88479.3
88444.9
88419.4
88402.3
88393.4
88392.1
88398.1
88411.1
88430.7
88456.4
88488
88525.1
88567.3
88614.1
88665.1
88719.7
88777.2
88837.1
88898.4
88960.3
89022
89082.1
89139.8
89193.8
89242.4
89284.7
89319
89343.4
89356.8
89357.9
89344.5
89315.1
89268.7
89203.5
89117.8
89010.9
88881.5
88728.1
88549.9
88347.3
88117.6
87861.4
87579.2
87270.4
86934.9
86573.5
86186.6
85775
85339.4
84881.4
84402.7
83905
83389
82855.2
82307.3
81747.7
81178.6
80603
80020.2
79434.6
78851.3
78270.1
77693.9
77126.4
76570
76029.3
75505
74999.7
74520.4
74067.2
73641.7
73255
72901.1
72583.3
72312.3
72089.6
71913.2
71792.1
71729.9
71721.4
71770.1
71881.4
72048.8
72261.5
72512.9
72794.3
73086
73366.1
73621.3
73833.8
73980.6
74034.9
73939.3
73771.4
73488.9
73082.1
72577.7
72049.1
71600.8
71250.3
70834.5
70235.6
69308.7
67850.2
65638.6
62432.1
58553.2
56883.1
57444.2
59236.5
60469.4
60512.4
58808
55619.1
51276.9
46623.6
43010.7
40578.4
38965
37669.5
36591.7
35627.5
34726.2
33809.8
32874.3
31982.8
31150.1
30254
29230.7
28195.6
83980.3
83942.9
83915.3
83897.4
83889
83889.7
83899.4
83917.5
83943.7
83977.5
84018.7
84066.8
84121.4
84182.2
84248.9
84321
84398.3
84480.2
84566.3
84656
84748.8
84843.8
84940.4
85037.7
85134.7
85230.3
85323.4
85412.8
85496.9
85574.7
85644.5
85704.3
85753.1
85789.6
85811.4
85817.2
85806
85775.8
85725.1
85653
85558.4
85439.4
85295.6
85126.5
84931.9
84710
84461.8
84186.9
83885.2
83557.6
83204.2
82826.1
82424.6
81999.9
81554.5
81090.3
80607.8
80107.5
79593.1
79066.9
78531.4
77989.6
77440.3
76888.4
76339.1
75791.6
75249.4
74716
74193.6
73687.2
73197
72725.9
72281.2
71862.2
71471.1
71119.1
70799.7
70516.2
70280.2
70092
69950.1
69864
69836.8
69863.3
69947.4
70094.3
70297.5
70546.3
70834.2
71152.2
71481.1
71798.2
72090.8
72342.8
72527.8
72616
72553.6
72418.5
72167
71788.2
71312.4
70815.4
70402.9
70094.2
69723.9
69164.5
68273.2
66841.2
64641.3
61422
57535.4
55912.6
56559.7
58434.3
59723.2
59809.9
58131.6
54953.5
50621.1
45987.9
42412
40026
38457
37199.5
36158.1
35229.5
34363.6
33482
32580.9
31724.1
30926.4
30064.9
29076
28075.3
79247.5
79244.9
79252.3
79269.5
79296.3
79332.3
79377.2
79430.5
79491.9
79561
79637.4
79720.6
79810.4
79906.3
80008.1
80115.4
80227.8
80344.9
80466.2
80591.2
80719.3
80849.7
80981.7
81114.5
81247
81378.2
81507
81632
81751.8
81865.2
81970.7
82066.2
82150.6
82222.7
82280
82321.2
82345.3
82350.4
82334.7
82297.6
82237.9
82153.5
82044.4
81910.7
81749.3
81561.4
81347.2
81106.1
80838.1
80544.1
80224.2
79879.1
79512
79120.2
78708
78277.2
77827.9
77360.8
76879.9
76386.9
75884.7
75376.6
74860.5
74342.2
73826.7
73312.7
72804.4
72304.8
71816.3
71344.2
70888
70450.9
70040.6
69655.7
69298.8
68981.5
68696.5
68447.2
68246.1
68092.4
67984.8
67933.9
67941.7
68003
68122.4
68305
68544.2
68829.3
69154.1
69509.2
69875.6
70230.4
70560.6
70848.2
71069.5
71196.6
71168.7
71067
70846.6
70495.1
70046.2
69580.3
69203.8
68938.4
68616.5
68097.3
67242.4
65835.6
63643.8
60401.4
56497.9
54923.6
55666
57632.6
58982.6
59115.7
57462.9
54291.6
49964.5
45348
41808.8
39471
37948
36728.9
35724.3
34831.5
34001
33154.3
32287.4
31465.3
30702.8
29875.9
28921.2
27955.1
74512
74544.3
74586.8
74639.1
74701.1
74772.4
74852.7
74941.4
75038.1
75142.5
75254.1
75372.6
75497.6
75628.7
75765.7
75908.2
76055.8
76208.2
76364.8
76525.2
76688.7
76854.6
77022.2
77190.7
77358.9
77525.8
77690.4
77851.3
78007
78156.3
78297.8
78429
78549.3
78657.3
78750.2
78827
78886.6
78927
78946.5
78944.5
78919.7
78870.1
78795.5
78695.5
78569.1
78415.3
78235.2
78027.8
77793.4
77533
77246.5
76934
76601.7
76242.3
75863.1
75465.4
75049.2
74615.2
74167.5
73707.4
73238.4
72763.8
72280.7
71795.9
71314
70833.4
70358.8
69892.9
69438.1
69000.2
68577.7
68174.6
67798.7
67447.7
67124.9
66842.2
66591.4
66376.2
66210
66090.6
66017.2
66001.5
66044.2
66140.4
66295.3
66513.7
66789.1
67110.6
67472.5
67865.2
68269.8
68662.7
69031.4
69359.6
69619.8
69781.9
69787.4
69718.4
69528.2
69202.7
68779.1
68343.6
68003.5
67782.6
67512.6
67033.9
66216.1
64833.3
62645.8
59369.8
55439.6
53915.7
54762.9
56831.6
58247.7
58430
56802.2
53633.3
49306.7
44703.7
41201.2
38913.4
37438
36257.9
35290.3
34433.3
33638.5
32826.6
31993.9
31206.5
30479.2
29686.9
28766.5
27834.7
69773.8
69841.1
69918.7
70006.3
70103.6
70210.3
70325.9
70450.1
70582.3
70722.1
70869
71022.8
71183.1
71349.5
71521.7
71699.5
71882.4
72070.1
72262.2
72458
72657.1
72858.6
73061.9
73266.2
73470.2
73673.1
73873.7
74070.7
74262.4
74448
74625.6
74792.9
74949.3
75093.3
75222.1
75334.6
75429.9
75505.9
75560.7
75594
75604.3
75589.5
75549.7
75484.7
75391.9
75272.1
75125.9
74952.1
74751.3
74524.4
74271.1
73991.6
73692.8
73366.1
73019.8
72655.1
72271.7
71870.6
71455.9
71028.6
70592.6
70151.2
69701
69249.5
68801
68353.6
67912.7
67480.3
67059.1
66655.2
66266.3
65897
65555.4
65238.2
64949.4
64701.2
64484.4
64303.3
64171.9
64086.7
64047.5
64067
64144.4
64275.5
64465.8
64720.1
65031.8
65390
65789.2
66220.1
66663.3
67095
67502.6
67868.2
68166.5
68367.9
68407.8
68371.9
68211.8
67910.9
67511
67105.4
66801.8
66626.9
66413
65974.3
65194.3
63834.4
61646.4
58327.4
54362.2
52885.4
53850.1
56031.2
57518.6
57752.7
56149.4
52978.6
48647.9
44054.9
40589
38353.1
36927
35786.4
34856
34035
33275.9
32498.9
31700.4
30947.7
30255.6
29498
28611.8
27714.4
65032.9
65135.2
65247.9
65370.8
65503.6
65645.8
65796.9
65956.6
66124.3
66299.6
66482
66671.2
66866.8
67068.5
67276
67489.1
67707.4
67930.6
68158.2
68389.6
68624.4
68861.7
69100.8
69341
69581.1
69820.1
70056.9
70290.2
70518.2
70740.2
70954.1
71157.7
71350.4
71530.7
71695.5
71844
71975.3
72086.8
72177.2
72245.9
72291.3
72311.3
72306.2
72275.4
72217.2
72131.6
72019.3
71879
71711.8
71518.2
71298.1
71052
70785.2
70491.7
70178.1
69846.1
69495.5
69127.1
68745.3
68350.4
67947.2
67538.9
67121.3
66703
66287.7
65873.4
65466
65066.9
64679.1
64309.2
63953.7
63618.1
63310.8
63027.2
62772.2
62558.5
62375.6
62228.5
62131.8
62080.7
62075.5
62130.2
62242.5
62408.3
62634.1
62924.5
63272.6
63667.7
64104.6
64574
65056.6
65527.5
65974.7
66381.2
66719
66957.8
67031.7
67028.2
66897.2
66619.4
66241.9
65865.5
65598.7
65471.3
65317.9
64918.4
64177.3
62840.3
60646.3
57273.6
53265.3
51831.1
52927.6
55231.4
56795.5
57084
55504.6
52327.5
47987.9
43401.5
39972.3
37790.2
36415.2
35314.4
34421.5
33636.6
32913.3
32171.2
31406.8
30688.8
30032
29309.1
28457.1
27594
60289.5
60426.7
60574.7
60732.9
60901.2
61078.9
61265.8
61461.1
61664.4
61875.2
62093.2
62317.8
62548.8
62785.9
63028.8
63277.3
63531
63789.7
64052.8
64320
64590.5
64863.7
65138.8
65415.2
65691.4
65966.7
66240
66509.8
66774.3
67032.9
67283.5
67523.5
67752.8
67969.6
68170.6
68355.3
68522.6
68670.1
68796
68900.3
68981
69036
69065.8
69069.8
69045.4
68993.9
68915.4
68808.6
68674.8
68514.4
68327.3
68114.4
67879.9
67619.1
67338.1
67038.7
66720.5
66384.7
66035.5
65672.9
65302.2
64926.8
64541.7
64156.5
63774.1
63392.7
63018.7
62652.6
62298.1
61962.2
61639.8
61337.9
61064.8
60814.5
60593.5
60414
60264.9
60151.8
60089.7
60072.4
60101.3
60191.2
60338.1
60538.7
60800.2
61126.5
61511.3
61943.6
62418.6
62926.7
63448.8
63959.7
64447.3
64893.6
65271.3
65549.2
65657
65686.1
65584.1
65328.2
64971.3
64623.8
64393.4
64317.7
64224.7
63866.5
63164.4
61848.4
59645.3
56207.4
52145.2
50753.3
51993.7
54432.4
56078.5
56423.9
54868
51679.9
47326.7
42743.5
39350.8
37224.7
35901.6
34841.9
33986.8
33238
32550.7
31843.6
31113.2
30429.9
29808.5
29120.3
28302.4
27473.6
55542.5
55714.8
55898.2
56092
56295.8
56509.4
56732
56963.1
57202.1
57448.7
57702.2
57962.3
58228.8
58501.4
58779.7
59063.7
59353
59647.2
59946.1
60249
60555.5
60864.7
61176
61488.6
61801.2
62113
62423
62729.4
63030.7
63326.2
63613.6
63890.4
64156.4
64409.8
64647.4
64868.4
65072
65255.5
65417.2
65557.2
65673.2
65763.3
65827.9
65866.3
65876.3
65858.9
65814.2
65740.8
65640.3
65513.1
65358.9
65178.9
64976.6
64748.2
64499.7
64232.6
63946.7
63643.3
63326.6
62996
62657.7
62315.1
61962.3
61610
61260.1
60911.5
60570.8
60237.5
59916.3
59614.1
59324.8
59056.4
58817.4
58600.4
58413.2
58267.9
58152.3
58073.2
58045.6
58062
58124.9
58249.9
58431.4
58666.8
58963.8
59326.3
59747.8
60217.4
60730.6
61278.6
61840.8
62392
62920.5
63407.9
63825.6
64143.2
64285.5
64347.1
64273.5
64038
63699.5
63380
63187.2
63164.9
63135
62820.2
62156.7
60860.9
58645.9
55127.8
51000.5
49648
51044.5
53633.8
55367.7
55772.3
54239.6
51035.7
46664
42080.5
38724.7
36656.6
35390.6
34368.9
33551.8
32839.4
32188.2
31516
30819.5
30170.9
29585
28931.5
28147.7
27353.2
50792.8
51000.1
51218.4
51447.8
51687.6
51937.1
52195.6
52462.7
52737.6
53019.9
53309.1
53604.8
53906.9
54214.9
54528.7
54848.2
55173
55503
55837.7
56176.5
56519.1
56864.4
57212
57561.1
57910.3
58258.8
58605.6
58948.9
59287.2
59619.9
59944.3
60258.1
60561.3
60851.6
61125.8
61383.5
61623.5
61843.1
62040.9
62216.6
62368.1
62493.3
62593
62666.1
62710.2
62726.7
62715.7
62675.7
62608.4
62514.2
62392.7
62245.8
62075.5
61879.4
61663
61428
61174.2
60903.1
60618.7
60319.8
60013.7
59703.7
59383.1
59063.5
58746.1
58429.8
58122.3
57821.7
57533.6
57265
57008.5
56773.7
56568.5
56384.7
56231.3
56119.9
56037.8
55992.7
55999.5
56049.4
56146.4
56306.6
56522.6
56792.6
57125.4
57524
57982.5
58489.6
59041.5
59629.3
60232.4
60824.2
61394.3
61923.7
62383.9
62741
62917.1
63010.9
62965
62748.1
62426.6
62133.3
61979.2
62010.2
62042.4
61785.3
61153.1
59876.7
57644.5
54034.5
49830.1
48511.2
50078
52833.2
54663.4
55129.3
53619.7
50395.1
46000
41412.6
38093.8
36085.8
34869.6
33895.4
33116.5
32440.6
31825.6
31188.5
30525.8
29911.9
29361.5
28742.8
27993.1
27232.7
46041
46283.8
46537.6
46802.6
47078.2
47363.5
47658
47961
48271.8
48589.9
48914.8
49246.2
49583.8
49927.3
50276.6
50631.6
50992
51357.7
51728.2
52103
52481.7
52863.2
53247.2
53632.8
54018.7
54404.1
54787.9
55168.5
55544
55914
56275.8
56626.8
56967.3
57294.7
57605.8
57900.3
58177
58433
58666.9
58878.5
59065.6
59226.1
59360.7
59468.3
59546.7
59597.4
59620
59613.2
59579.1
59517.7
59428.8
59314.8
59176.2
59012.2
58827.8
58624.8
58402.9
58163.7
57911.4
57644.1
57370
57092.2
56803.5
56516.5
56231.4
55947.9
55673.4
55405.1
55150.1
54914.8
54691.1
54489.7
54318.2
54167.5
54047.7
53970.2
53921.3
53910.2
53951.3
54034.4
54165.5
54360.6
54611.1
54915.9
55284.3
55719.3
56214.9
56760
57350.8
57977.7
58622.9
59256.2
59868.5
60439.9
60940.3
61339.3
61550.4
61676.4
61658.1
61457.8
61151.3
60884.9
60769.1
60856.1
60945.8
60764.5
60154.6
58895.9
56643
52927.8
48631.2
47344.6
49079.7
52025.7
53965.1
54495
53008.4
49757.6
45334.3
40739.6
37458
35512.5
34372.7
33421.5
32681.2
32041.9
31463
30861
30232.1
29652.8
29138.1
28554.1
27838.4
27112.3
42375.5
42636.2
42908.7
43192.4
43486.7
43791
44104.4
44426.3
44756.1
45093
45436.6
45786.6
46142.8
46504.8
46872.6
47246.2
47625.3
48009.7
48399
48792.8
49190.6
49591.3
49994.7
50399.8
50805.3
51210.6
51614.3
52014.9
52410.5
52800.9
53182.9
53554.3
53915
54262.5
54593.6
54908.1
55204.5
55480
55733.3
55964.1
56170.1
56349.1
56502.1
56627.5
56723.6
56791.6
56831.2
56841.1
56823.5
56778.2
56705.2
56607.6
56484.1
56335.4
56166.3
55978.2
55771.4
55547.4
55310.3
55057.6
54798.6
54536
54262.5
53991.2
53721.1
53453.2
53194.6
52941.7
52702.5
52483.5
52275.5
52090.4
51935.3
51800.5
51697.3
51636.5
51603.5
51609.4
51667.3
51766.3
51914.6
52127.8
52395.3
52717.8
53105.1
53559.5
54075.7
54642.4
55256.8
55908.3
56580.5
57241.1
57882.2
58483.8
59014.2
59439.3
59668.6
59808.8
59797.5
59584.8
59264.1
59002.9
58911.1
59051.1
59198.9
59113.8
58499.6
57228.7
54882.3
50907
46357.8
45074.8
47085.2
50385.4
52528.3
53148.1
51655.1
48270.9
43702
39008.2
35748.3
33898.6
32776.8
31932.8
31226.5
30612.6
30056.7
29472.4
28855.4
28293.4
27801.5
27234.1
26528.3
25814.1
39798
40059.7
40333.6
40618.8
40914.9
41220.9
41536.2
41859.8
42191.3
42529.9
42875.1
43226.7
43584.2
43947.7
44317
44692.1
45072.7
45458.8
45849.8
46245.5
46645.3
47048.1
47453.8
47861.2
48269.2
48677.1
49083.6
49487.1
49885.8
50279.3
50664.5
51039.1
51403.1
51753.6
52087.9
52405.4
52704.6
52982.9
53238.7
53471.9
53680
53861
54015.7
54142.6
54239.6
54308.3
54348.3
54358.4
54340.8
54295
54221.3
54123.4
53998.8
53848.8
53678.1
53488.3
53279.9
53054.5
52815.8
52560.9
52300.2
52035.9
51760.4
51487.6
51215.6
50946
50686.1
50431.5
50191.3
49971.3
49761.7
49575.7
49419.8
49283.7
49179.7
49117.9
49083.5
49088.9
49146.2
49243.5
49391.5
49603.4
49872
50194.8
50583.7
51040.5
51560.8
52132.9
52754.9
53417
54101.2
54775.8
55432.9
56049.5
56597.6
57041.5
57275.2
57412.8
57389.4
57136.7
56760.5
56477.6
56395.8
56599.3
56809.9
56869.7
56202.4
54876
52372.3
47908.3
42818.3
41508.2
44050
47791.5
50360
51175.1
49680.3
46011.5
41117.2
36165.6
32900.2
31221.2
30298.2
29518.8
28751.3
28135.7
27578.4
26998.5
26380.3
25824.4
25363.3
24808.9
24088.2
23354.1
37219.3
37482.3
37757.6
38044.4
38342.2
38650.1
38967.1
39292.6
39625.8
39966.1
40313
40666.1
41025.1
41390
41760.8
42137.3
42519.5
42907.3
43300.1
43697.6
44099.4
44504.3
44912.3
45322.1
45732.7
46143.3
46552.7
46959.2
47361.1
47757.9
48146.4
48524.4
48891.7
49245.5
49583
49903.6
50205.8
50486.9
50745.5
50981.1
51191.5
51374.5
51530.9
51659.1
51757.2
51826.8
51867.2
51877.4
51859.8
51813.5
51739
51640.9
51515
51363.6
51191.3
50999.7
50789.5
50562.4
50322
50064.8
49802.3
49536.1
49258.6
48983.7
48709.5
48438.3
48177
47920.5
47679.1
47457.7
47246.6
47059.6
46902.5
46765
46659.9
46596.9
46560.9
46565.6
46621.9
46717.1
46864.8
47076.7
47344.2
47667.6
48058
48516.9
49041.2
49619
50249.3
50921.7
51619.7
52309.9
52985.5
53621.7
54186.6
54651
54892.1
55026
54990.8
54690.1
54250
53929.6
53863.6
54124
54420.6
54625.9
54028.5
52599.3
49894.5
44757.8
39056.9
37686.3
40729.4
45006.8
48079.5
49266.7
47826.5
43785.8
38489.1
33209
29940.1
28462.2
27665.6
26834.6
26197.8
25687
25198.5
24635
23978
23404.4
22958.4
22397.8
21649.3
20880.7
34639.6
34903.9
35180.7
35469.1
35768.7
36078.4
36397.3
36724.6
37059.7
37401.7
37750.2
38104.8
38465.4
38831.7
39203.9
39581.9
39965.6
40355.1
40749.7
41149.1
41553
41960.1
42370.4
42782.7
43195.9
43609.3
44021.7
44431.3
44836.5
45236.7
45628.6
46010.2
46381
46738
47078.9
47402.8
47708
47992.2
48253.6
48491.8
48704.5
48889.8
49048
49177.5
49277
49347.2
49388
49398.4
49380.7
49333.9
49258.1
49160.2
49032.9
48880
48706
48512.2
48300.2
48071.3
47828.9
47569.4
47304.7
47036.3
46756.7
46480
46203.3
45930.3
45667.2
45408.9
45165.9
44942.9
44730.1
44541.9
44383.3
44244.3
44137.9
44073.4
44035.7
44039.2
44094.4
44187.5
44334.7
44546.1
44812.7
45136
45527.7
45988.6
46517
47100.4
47739.4
48423.1
49135.1
49842.1
50538
51194.9
51788.8
52270.9
52522
52648.5
52600.2
52236.6
51715.2
51346.8
51282.2
51643
52028.5
52354.2
51969.8
50282.9
47295.2
41458.7
35134.5
33904.4
37298.4
42032
45647.6
47386.4
46087.8
41586.6
35799.9
30120.1
26862.3
25711.3
25212.5
24616.1
23878.9
23218.4
22661.3
22089.9
21435.3
20875.9
20487.3
19968.8
19206.9
18392.5
32059.3
32324.5
32602.8
32893
33194.4
33506
33826.8
34156.1
34492.9
34836.7
35186.8
35543
35905
36272.8
36646.3
37025.8
37411
37802.2
38198.6
38600
39005.9
39415.3
39828
40242.7
40658.7
41075
41490.4
41903.3
42311.9
42715.6
43111.1
43496.4
43870.8
44231.3
44575.7
44903.1
45211.4
45498.7
45763.1
46004
46219.1
46406.6
46566.8
46697.7
46798
46869.4
46910.7
46921.2
46903.4
46855.9
46778.7
46681.4
46552.3
46397.8
46221.8
46025.8
45811.7
45580.9
45336.3
45074.3
44807.3
44536.4
44254.5
43976
43697
43421.9
43156.8
42896.3
42651.8
42426.8
42212.2
42022.8
41862.3
41721.7
41613.7
41547.3
41508
41510
41563.6
41654.4
41800.7
42011.1
42276.4
42600.1
42992.5
43455.2
43987.7
44577.1
45225
45920.2
46646.1
47373.2
48090.8
48770
49387.4
49896.5
50164.6
50278.9
50220.2
49786
49156.5
48728.1
48640.4
49072.8
49662.7
50084.9
49889.5
48102.7
44695.6
37992.7
31238.5
30077.6
33922.1
38897.5
42907.4
45256.9
44388.4
39435.8
33035.5
26851.1
23608
22838.5
22457
21715.3
21074.1
20647.8
20334.2
19834.2
19078.7
18473.3
18148.8
17634.7
16789.1
15896.6
29478.2
29744.5
30024
30316
30619.3
30932.9
31255.7
31586.8
31925.5
32271.1
32622.9
32980.6
33344.1
33713.2
34088.2
34469.1
34855.9
35248.8
35647
36050.4
36458.4
36870
37285.1
37702.4
38121.1
38540.4
38958.9
39375.1
39787.3
40194.7
40593.8
40983
41361.2
41725.2
42073.4
42404.2
42715.9
43006.5
43273.9
43517.6
43735.3
43925.3
44087.3
44219.7
44321.4
44393.5
44435.2
44445.9
44427.9
44379.8
44300.5
44204.6
44073.2
43917.1
43739
43540.6
43324.3
43091.3
42844.4
42579.7
42310.4
42036.7
41752.5
41471.7
41190.4
40913
40645.5
40383
40136.6
39909.4
39692.9
39502.1
39339.5
39197.1
39087.4
39018.7
38977.7
38977.7
39029.6
39117.9
39263.3
39472.2
39735.9
40059.6
40453
40917
41453.2
42048.6
42705.9
43413.4
44156.8
44902.2
45643.8
46347.2
46992.5
47530.2
47821.7
47917
47848.7
47329.2
46576.2
46084.6
45919.3
46525
47137.5
47784.5
47837.2
46193
42098.3
34408.7
27591.3
26560.6
30823.7
35721.1
39971.4
42858
42673.9
37332.5
30163
23412.8
20275.6
20011.5
20152.3
19703.3
18999.7
18399.7
17769.5
17204
16459.5
15910.9
15641.3
15167.1
14323.7
13361.8
26895.7
27163.6
27444.4
27738.4
28043.6
28359.1
28684
29017.1
29357.7
29705
30058.5
30417.8
30782.7
31153.2
31529.5
31911.9
32300.2
32694.7
33094.8
33500.2
33910.3
34324.2
34741.8
35161.7
35583.3
36005.6
36427.3
36847
37262.8
37673.9
38076.9
38470.2
38852.1
39219.9
39571.9
39906.4
40221.4
40515.4
40786.1
41032.7
41253.1
41445.6
41609.7
41743.6
41846.6
41919.5
41961.7
41972.5
41954.3
41905.7
41825.1
41728.3
41595.5
41438
41257.6
41056.6
40837.9
40602.6
40353.2
40085.9
39814.1
39537.3
39250.7
38967.7
38683.1
38403.5
38133.4
37868.7
37620.4
37390.6
37172.1
36979.8
36814.8
36670.5
36558.9
36487.4
36444.7
36442.6
36492.2
36578.2
36722.4
36928.9
37191
37514.7
37908.2
38373.5
38913.5
39514.8
40181.7
40902.3
41664.8
42428
43195.4
43924.9
44599.3
45170.1
45494.3
45561.4
45489.5
44876.5
44001.3
43447
43177
43859.7
44684.1
45485.2
45609.4
44180.1
39387.3
30922.7
23921.8
22985.4
27943.7
32699.8
36822
39898.3
40760
35169.7
27166.2
19783.9
16664.7
16837.6
17223.7
16663.3
15937
15519.5
15428
15084.4
14181.5
13464.6
13386.9
12977.9
11974
10861
24180.2
24449.2
24731.6
25026.8
25333.5
25650.6
25977.1
26311.8
26654
27002.7
27357.5
27717.9
28083.8
28455.3
28832.5
29215.8
29605.2
30001
30402.4
30809.5
31221.3
31637.1
32056.8
32478.9
32903.1
33328.1
33752.7
34175.6
34595
35009.6
35416.2
35813.6
36199.1
36570.4
36926.2
37264.1
37582.3
37879.5
38153.3
38402.4
38625.3
38820.1
38985.8
39120.8
39224.9
39297.9
39340.2
39350.7
39331.7
39282
39200.7
39099.7
38965.9
38806.4
38623
38418.5
38196.6
37958
37705.3
37434.5
37159.3
36878.3
36588.9
36302.4
36013.8
35731
35457.4
35189.6
34938.4
34705.2
34483.9
34289.4
34120.8
33973.9
33859.6
33784
33738.7
33733.7
33780.1
33863
34004.4
34207.6
34467.2
34790.4
35183.4
35649
36192.2
36799.4
37475.9
38209.8
38991.5
39778.1
40573
41331.8
42039.9
42650.2
43022.7
43045.8
42972.9
42253.9
41255
40634.6
40188.8
41016.6
41902.5
42844.1
43306
41850.7
36842
27026.5
19755.2
18516.5
24473.7
29678.9
33791.8
36231.6
38366.5
32674.5
23779.4
15671.6
12838.1
14012.4
15103.4
14562.1
13749.6
13349.6
12707.2
12154
11178.6
10639.5
10583.8
10161.8
9214.75
8072.08
21332.2
21601.6
21884.8
22180.8
22488.7
22807.1
23134.9
23470.9
23814.2
24163.9
24519.6
24880.7
25247.2
25619.1
25996.8
26380.6
26770.6
27167.2
27569.7
27978
28391.2
28808.6
29230
29654
30080.4
30507.9
30935.2
31361
31783.8
32201.8
32612
33013.2
33402.3
33776.9
34136.3
34477.5
34798.7
35099
35375.7
35627.2
35852.3
36049.2
36216.2
36352.1
36456.7
36530.8
36571.4
36580.9
36560.5
36509.2
36426.2
36320.9
36185
36022.8
35835.5
35626.6
35400.5
35157.9
34900.9
34625.8
34346.3
34060.5
33766.7
33475.2
33182.1
32895.2
32617.1
32345.5
32090.7
31852.7
31627.9
31430.3
31257.1
31106.5
30988.8
30907.6
30859
30850
30892.3
30971.7
31108.8
31306.9
31563.1
31884.6
32276
32741.3
33286.6
33899
34585.1
35332.1
36130.2
36947.9
37775.2
38567.1
39314.6
39962.2
40414.8
40356.2
40315.4
39488.3
38336.1
37655.9
37131.5
37905.8
38821.3
40322.7
40543.3
39662.3
34006.5
22841.4
16154.2
13849.9
19639.5
26114
30691.1
32225.9
34753.2
29566.6
19948.2
11270.7
8802.9
10653.4
11890.2
11267.9
10063.2
9758.79
9822.11
9965.33
8892.13
7815.49
8187.17
8013.36
6839.47
5143.06
18483
18752.5
19036.4
19333.6
19642.8
19962.6
20291.8
20629.1
20973.6
21324.4
21680.9
22042.8
22409.7
22782
23160.1
23544.3
23935
24332.4
24736.1
25145.6
25560.2
25979.3
26402.5
26828.5
27257.3
27687.3
28117.4
28546.4
28972.7
29394.2
29808.1
30213.4
30606.2
30984.4
31347.5
31692.2
32016.6
32320.1
32599.9
32854
33081.4
33280.5
33449
33585.7
33691
33764.5
33804.8
33813.5
33791.6
33738.7
33653.7
33544.3
33405.9
33241.1
33049.7
32836.2
32605.7
32358.8
32097.2
31817.9
31533.6
31242.3
30943.9
30647.7
30349.8
30058.6
29775.8
29500.2
29241.3
28998.3
28770
28569.2
28390.8
28236.7
28115.3
28027.6
27975.7
27962.8
27998.7
28075.2
28207.9
28400.5
28653.3
28972.7
29361.9
29826.2
30372.8
30990.1
31685.1
32443
33266.3
34113.1
34972.8
35802.3
36589.6
37287
37788.9
37734.7
37689
36718.1
35528.3
34747.7
34273.3
34787.4
36075.8
36981.7
37725.1
37828.5
30885
19248
12978.5
10509.9
16565.8
21768.5
26492.2
28755.5
30581.3
25795.6
16042.2
6666.23
5770.94
9005.48
11091.6
10400.1
8775.47
7430.38
7302.31
7524
6368.01
5792.16
6318.12
5999.15
4488.9
3091.43
15632.1
15902.1
16186.8
16485.2
16795.8
17117.1
17447.7
17786.4
18132.2
18484.1
18841.6
19204.1
19571.6
19944.2
20322.6
20707.2
21098.6
21496.8
21901.5
22312.4
22728.4
23149.2
23574.2
24002.3
24433.4
24866.1
25299.2
25731.4
26161.4
26586.6
27004.5
27414.2
27810.8
28192.7
28559.7
28908.1
29235.8
29542.8
29825.8
30082.6
30312.6
30514.2
30684.1
30821.8
30927.9
31001.3
31041.1
31048.7
31025.3
30970.7
30883.5
30770.3
30628.9
30461.3
30265.8
30047.6
29812.3
29560.8
29294.4
29010.8
28721.4
28423.7
28121.5
27820
27517.2
27221.4
26933.6
26654.1
26390.7
26142.2
25910.5
25706.2
25522.2
25364.4
25239.1
25143.8
25088.6
25072
25103.6
25174.4
25301.6
25488.5
25737.5
26054.2
26441
26904.1
27451.5
28072.2
28774.2
29553.6
30399.3
31271.1
32163
33033.1
33867.6
34598.8
35141.5
35167.7
35077.3
34066.1
32724.4
32026.4
31578.8
31910.4
33020.3
33740.8
35341.2
35235.2
28178.4
16245.5
9549.19
9259.27
16443.1
19875
23584.4
23013.7
25535.7
21404.2
11663.7
3134.52
2869.3
5258.19
6350.54
6011.05
5011.39
4643.04
4610.87
6536.77
6052.08
4985.04
5299.82
5149.01
4360.01
2442.61
12779.9
13050.3
13335.9
13635.6
13947.8
14270.7
14602.9
14943.1
15290.2
15643.2
16001.6
16364.8
16732.8
17105.7
17484.4
17869.3
18261.3
18660.2
19066.2
19478.4
19895.9
20318.4
20745.2
21175.5
21609
22044.5
22480.5
22916.1
23350.1
23779.1
24201.4
24615.5
25016.2
25402
25773.1
26125.3
26456.5
26767
27053.5
27313.2
27546
27750.1
27921.6
28060.4
28167.1
28240.2
28279.6
28286.3
28261.3
28205.1
28115.7
27998.5
27854
27683.4
27483.6
27260.5
27020.3
26764
26492.3
26204.7
25909.6
25605.9
25299.5
24992
24684.1
24383.5
24090.4
23806.9
23538.6
23284.4
23049.2
22840.9
22651
22489.7
22360.4
22256.6
22198.4
22178.3
22202.8
22270.6
22391
22570.9
22816.2
23129.9
23513.6
23974.9
24523.1
25149.4
25860.3
26649.4
27505.7
28409.3
29339.8
30258.1
31143.6
31922.6
32490.1
32651.4
32490.5
31425.5
30024.1
29403.1
29420.6
29068
30073.2
31107.5
32418
32009.8
25823.9
13644.9
6373.31
8501.58
15962.2
18607.6
21922.3
19082.1
19565.1
16681.6
7053.59
1154.74
-2084.73
-2086.52
-3557.78
-4549.36
-5023.97
-5407.34
-5051.47
-1545.49
1869.27
2398.33
2256.8
1970.35
1906.87
1405.8
9926.24
10197.1
10483.7
10784.9
11098.7
11423.3
11757.1
12098.9
12447.4
12801.5
13161
13525
13893.3
14266.4
14645.3
15030.5
15423.1
15822.8
16230
16643.6
17062.5
17486.9
17915.6
18348
18784
19222.4
19661.5
20100.6
20538.6
20971.8
21398.5
21817.3
22222.4
22612.3
22987.7
23343.7
23678.7
23993
24283.2
24546
24781.5
24988.4
25161.7
25301.7
25409.1
25481.9
25520.9
25526.4
25499.9
25442
25350.3
25229
25081.1
24907.4
24703.2
24475
24229.5
23968.1
23691.5
23400.2
23098.6
22788.8
22478
22163.8
21850.7
21544.8
21246.4
20958.6
20684.9
20424.6
20186.6
19973.6
19777.5
19612.6
19479.2
19366.1
19303.6
19281.6
19297.4
19360
19474.1
19647.6
19888.4
20198.5
20579
21038.2
21586
22217
22937.9
23734.7
24609.8
25545.2
26523.5
27485.8
28424.8
29262.3
29852.2
30172
29924.5
28768.8
27502.3
26480.2
26328.2
26010.6
27051.7
27908
29458
28937.7
23486.4
11627.8
3667.71
7083.77
14605.3
17351
19049.7
16343.6
14564.3
11558.1
2882.23
-2005.17
-5455.96
-4209.4
-3621.13
-4551.78
-5384.12
-5876.81
-6887.86
-7727.37
-8190.25
-9710.22
-9934.08
-8736.41
-4120.69
346.279
7070.98
7342.4
7629.99
7932.86
8248.52
8575.01
8910.54
9253.95
9603.94
9959.31
10319.8
10684.5
11053.2
11426.5
11805.5
12190.9
12584
12984.4
13393
13808
14228.4
14654.7
15085.2
15519.9
15958.4
16399.7
16842.1
17284.7
17727
18164.5
18596.1
19019.6
19429.3
19823.5
20203.2
20563.4
20902.3
21220.4
21514.5
21780.7
22019.2
22229
22404.3
22545.5
22653.6
22726.1
22764.9
22769.1
22740.9
22681.4
22587.7
22462
22310.4
22133.3
21924.7
21691.5
21440.6
21174.1
20891.8
20596.2
20287
19971.1
19655.8
19334.7
19016.3
18704.8
18401.1
18109.2
17829.6
17563.2
17321.9
17103.9
16901.6
16732.6
16595.2
16472.6
16403.3
16383.2
16388.5
16447.1
16552
16718.6
16953.6
17259.5
17636.6
18092.9
18638.8
19273.8
20002.7
20818.4
21713.5
22685.6
23701
24730.4
25706
26574.1
27269.3
27627.1
27423.4
26277.2
24789.5
23710.6
23333.2
22571.5
23881.1
24929.3
26039.3
26109.1
20916.4
9855.34
1800.18
5704.26
12313.1
16200.8
15550.1
12999.2
10763.9
6951.39
775.489
-2360.98
-4090.51
-1420.62
-437.621
-878.233
-503.884
-417.302
-888.606