/*--------------------------------*- C++ -*----------------------------------*\
| =========                 |                                                 |
| \\      /  F ield         | OpenFOAM: The Open Source CFD Toolbox           |
|  \\    /   O peration     | Version:  v1912                                 |
|   \\  /    A nd           | Website:  www.openfoam.com                      |
|    \\/     M anipulation  |                                                 |
\*---------------------------------------------------------------------------*/
FoamFile
{
    version     2.0;
    format      ascii;
    class       volScalarField;
    location    "90";
    object      nut;
}
// * * * * * * * * * * * * * * * * * * * * * * * * * * * * * * * * * * * * * //

dimensions      [0 2 -1 0 0 0 0];


internalField   nonuniform List<scalar> 
14268
(
1.448e-05
1.70361e-05
1.88396e-05
2.06459e-05
2.29532e-05
2.598e-05
2.76837e-05
2.80456e-05
2.77161e-05
2.49449e-05
2.09615e-05
1.92562e-05
1.96466e-05
2.27334e-05
2.67734e-05
3.00192e-05
3.12826e-05
3.01307e-05
2.92055e-05
2.95943e-05
3.05764e-05
3.04442e-05
2.7016e-05
2.19652e-05
1.72382e-05
1.58143e-05
1.69222e-05
1.74098e-05
1.79051e-05
2.02939e-05
2.88153e-05
4.73012e-05
6.50114e-05
7.71392e-05
8.40595e-05
6.77188e-05
7.04381e-05
0.00010935
0.000131371
0.00014269
0.000117576
0.000103777
0.000178113
0.000162524
0.000127985
0.00015675
0.00019111
0.000217712
0.000201422
0.000207072
0.000276202
0.000268583
0.000212246
0.000178124
0.00023786
0.000140598
0.000172969
0.000259542
0.000268047
0.000235169
0.00026469
0.00025037
0.000245782
8.6442e-05
0.000125649
0.000211932
0.00014416
0.000221518
0.000227599
0.000238649
0.000226702
0.000234738
0.000191651
0.000306382
0.000355094
0.000272263
0.000211399
0.000225189
0.000240155
0.000262953
0.000274973
0.000178793
0.000222071
0.000327154
0.000342742
0.000235032
0.000206133
0.000271329
0.000301952
0.000287363
0.000288724
0.000364918
0.000252397
0.000108094
0.000126723
0.00023408
0.000268656
0.000231633
0.000213912
0.000257545
0.000269342
0.000323786
0.000371411
0.000291973
0.000184012
0.000191074
0.000202532
0.000216218
0.000241996
0.000269372
0.00027497
0.000264817
0.000252611
0.000213794
0.000166951
0.000156181
0.000166189
0.000206191
0.000246634
0.000276514
0.00028646
0.00027612
0.000271345
0.000285025
0.00030874
0.000318548
0.000272721
0.000212198
0.000161843
0.000146484
0.000158623
0.000159453
0.000156037
0.000176351
0.000280201
0.000471314
0.000607508
0.000683504
0.000721594
0.000527588
0.000595452
0.00096729
0.00117334
0.00126379
0.00096315
0.000845257
0.00166237
0.0012412
0.000875618
0.00127293
0.00177187
0.00188004
0.00167081
0.00176544
0.0024535
0.00228946
0.00190606
0.00171917
0.00280024
0.00127293
0.00147113
0.00192536
0.00190877
0.00146601
0.00193562
0.00222357
0.00227205
0.000301536
0.0017057
0.0031092
0.00119276
0.00209509
0.00121971
0.0012647
0.00111567
0.00176782
0.00154206
0.00324101
0.0034134
0.00209005
0.00127744
0.00139152
0.00156055
0.0016126
0.00185716
0.000978664
0.0019325
0.00337024
0.00382353
0.0015014
0.00143983
0.00150577
0.00137119
0.0017238
0.00238797
0.00361533
0.00231125
0.000590592
0.000771398
0.00110622
0.00152729
0.00214413
0.00157713
0.00189148
0.00177373
0.00209449
0.00357348
0.00284152
0.000532559
0.000520338
0.000534687
0.000566741
0.000634801
0.000698952
0.000699464
0.000657004
0.000611132
0.000518946
0.000404638
0.000369598
0.000391851
0.000478118
0.000587247
0.000661369
0.000682162
0.000653397
0.000641079
0.000688835
0.000766846
0.000800803
0.000686865
0.000538612
0.000406229
0.000348023
0.000370034
0.000372808
0.000368759
0.000420123
0.000682879
0.00109294
0.00131036
0.00144408
0.00150043
0.000947117
0.00118877
0.00203116
0.00256045
0.00321245
0.00227518
0.0019398
0.0039751
0.00242122
0.00142435
0.00237794
0.00384422
0.004373
0.00498522
0.00572596
0.00715582
0.0064719
0.00416037
0.00447268
0.00678117
0.00236917
0.00203991
0.00323205
0.00326456
0.00258741
0.00309204
0.0044846
0.00652917
0.000503945
0.00609773
0.00881241
0.00186997
0.00261621
0.00182917
0.00218455
0.00166107
0.00272313
0.00482788
0.00879205
0.00727771
0.00381095
0.00243025
0.00271713
0.00297787
0.00269998
0.00271389
0.00161966
0.0055482
0.00923835
0.0108218
0.00305898
0.00335611
0.0024597
0.00180067
0.00222538
0.00412462
0.00699334
0.00472147
0.001427
0.00181972
0.00169298
0.00396807
0.00879696
0.00778435
0.00686675
0.00412852
0.00365998
0.00572944
0.00714283
0.00099213
0.000948904
0.000961081
0.0010129
0.00112672
0.00122384
0.00120978
0.00112595
0.00103757
0.000876155
0.000683167
0.000613167
0.000645195
0.000779076
0.0009601
0.0010809
0.00111462
0.00107304
0.00105234
0.00113995
0.00128427
0.00135199
0.00116689
0.000919998
0.000694366
0.000576863
0.000598201
0.000602732
0.000598681
0.000687991
0.00112913
0.00172381
0.00206467
0.00228973
0.00233096
0.00137715
0.00179168
0.00294474
0.00385561
0.00553843
0.00407823
0.00358512
0.00731178
0.00379719
0.00192536
0.00304213
0.00507681
0.00695847
0.00651453
0.0116014
0.0141492
0.0127105
0.00483687
0.00384094
0.00793275
0.00222174
0.00168209
0.00359072
0.00361414
0.00377149
0.00556721
0.00593119
0.0104317
0.000513389
0.00566604
0.00916122
0.00167323
0.0021727
0.00480052
0.00481243
0.00184354
0.00231971
0.00798298
0.014625
0.00803715
0.00551153
0.00361179
0.00567217
0.0065124
0.00529813
0.00439622
0.00211602
0.0105639
0.00842212
0.0153289
0.00401281
0.00457214
0.00394419
0.00521168
0.00153843
0.00290505
0.00620711
0.00569002
0.00178475
0.00403209
0.00216429
0.0132961
0.0122646
0.010614
0.0149083
0.010149
0.00425461
0.00557986
0.00868884
0.00150807
0.00143545
0.00144539
0.00152071
0.00168114
0.001804
0.00177225
0.00164327
0.00150438
0.00127413
0.000986693
0.000876901
0.000914061
0.00109563
0.00135651
0.00152607
0.0015729
0.00151625
0.00148735
0.00162138
0.00183663
0.00193094
0.00166937
0.00132537
0.00100531
0.000819089
0.000832332
0.000834106
0.000831052
0.00096506
0.00159713
0.00242893
0.00310651
0.00345585
0.00343272
0.00194052
0.00252248
0.00392868
0.00549822
0.00821056
0.00700084
0.00653011
0.0121792
0.0062128
0.00293379
0.00367356
0.0060028
0.012291
0.00760981
0.0142251
0.0229169
0.0182748
0.00588545
0.00375472
0.00910046
0.00201595
0.00151237
0.00517153
0.0041398
0.0100257
0.0132438
0.00810114
0.0103033
0.00056722
0.00369531
0.00783347
0.00105156
0.00240565
0.0114785
0.0121993
0.00416404
0.00188989
0.0097596
0.0161971
0.00880921
0.00841227
0.00830148
0.0127336
0.0102032
0.00794657
0.00866396
0.00606186
0.0158333
0.00851089
0.0148246
0.00654214
0.00765413
0.00437484
0.00982329
0.00135324
0.00256478
0.00542747
0.0051616
0.00128626
0.00872637
0.0103496
0.023571
0.00944112
0.00763579
0.0188829
0.0190517
0.005224
0.00496828
0.00697297
0.00204191
0.00194775
0.0019557
0.00205332
0.00225298
0.00238586
0.00232757
0.00215551
0.00197568
0.00167831
0.00130078
0.0011501
0.00118888
0.00141512
0.00174335
0.00195198
0.00201101
0.0019457
0.00191618
0.00209723
0.00237658
0.00249344
0.00216646
0.00173118
0.00132244
0.00106539
0.00106153
0.00105852
0.00105735
0.00124008
0.00208434
0.00331227
0.00441317
0.00474485
0.00448016
0.00235303
0.00329011
0.00514463
0.00758675
0.00999649
0.0101394
0.00964251
0.0163161
0.00761459
0.0036931
0.00417336
0.00596648
0.019267
0.00940379
0.0137808
0.0302478
0.0180811
0.00719091
0.00385688
0.0106365
0.00139975
0.00115154
0.00916295
0.00509985
0.019984
0.0157419
0.00752115
0.00874429
0.00214043
0.00324189
0.00533936
0.00110328
0.00633106
0.0107662
0.0129069
0.0124545
0.00205264
0.0105378
0.0157437
0.00982476
0.00936736
0.0158593
0.0175778
0.00882
0.00624437
0.00761059
0.00964453
0.0202825
0.00742925
0.0124402
0.00889767
0.0108086
0.00287163
0.0105748
0.00397229
0.00200732
0.00384468
0.00418064
0.00113732
0.0101521
0.0219235
0.0228106
0.00816088
0.00806234
0.016542
0.0263596
0.00869412
0.0035267
0.00509625
0.00257061
0.00246725
0.00247528
0.00259708
0.00282753
0.00295861
0.00287096
0.00266049
0.0024434
0.00208669
0.00162352
0.00143117
0.00146861
0.00173925
0.00213051
0.0023703
0.00244006
0.0023676
0.00234193
0.00257288
0.00290679
0.00303237
0.00264635
0.00212872
0.00163778
0.00130972
0.00128503
0.00127186
0.00128649
0.00154283
0.00268148
0.004414
0.00555749
0.005746
0.00522881
0.00245311
0.00391743
0.00664649
0.0100939
0.0111565
0.0133914
0.0128023
0.0186518
0.00825944
0.00415041
0.00464511
0.00587916
0.0245267
0.0151269
0.0131044
0.0311479
0.0174353
0.00975562
0.00527573
0.0115204
0.00304475
0.00117136
0.0116444
0.00709074
0.0204096
0.0146989
0.00995256
0.00766333
0.00614951
0.0105746
0.00523533
0.00385986
0.0128831
0.00946364
0.0124735
0.0220695
0.00606401
0.0130495
0.0148331
0.0164683
0.00971008
0.0201493
0.0160665
0.00725074
0.00471606
0.00575483
0.0121054
0.0204404
0.00833854
0.0127376
0.0123732
0.00986445
0.00289421
0.00849695
0.00811611
0.00200376
0.00254825
0.00417694
0.00141859
0.00975813
0.0241545
0.0188538
0.00809518
0.00783704
0.0135726
0.0300134
0.0182898
0.00380839
0.00333907
0.00307857
0.0029793
0.00299034
0.00313164
0.00337793
0.00349031
0.00336741
0.00312203
0.00287995
0.00247966
0.00194419
0.0017124
0.00174668
0.00205545
0.002493
0.00275144
0.00282922
0.00275767
0.00274283
0.00302107
0.0033989
0.00352864
0.00309712
0.00250663
0.00194174
0.0015456
0.00149377
0.0014706
0.00150758
0.00197396
0.00364603
0.00559461
0.00620127
0.00635164
0.00571287
0.00248479
0.00441685
0.00828329
0.0121125
0.0118726
0.0164143
0.0137318
0.0195271
0.00997849
0.00479884
0.005958
0.00544293
0.0249309
0.0231277
0.012371
0.0297499
0.0155919
0.0119098
0.00600534
0.0100259
0.00918633
0.00254027
0.0107463
0.00728773
0.0189886
0.0127817
0.0203308
0.0119365
0.0132871
0.0200088
0.0162622
0.0126516
0.0111447
0.00702476
0.0114768
0.0271839
0.0135781
0.0133962
0.0138925
0.0245072
0.0104709
0.0182366
0.0133104
0.00855882
0.00723218
0.00368674
0.0127809
0.0157156
0.0154006
0.0196523
0.0151623
0.00727248
0.00192324
0.00822698
0.011002
0.002916
0.00202228
0.00487567
0.00246767
0.00888009
0.0220447
0.0147118
0.0070955
0.0067146
0.0124829
0.0306717
0.0364155
0.0173728
0.00310586
0.00355776
0.0034754
0.00349259
0.00364933
0.00389706
0.00397888
0.0038191
0.00354731
0.00328823
0.00285488
0.00226213
0.00199352
0.00202269
0.00236558
0.00283887
0.00310491
0.00318499
0.00311634
0.00311816
0.00344309
0.0038545
0.00398209
0.00351616
0.00286211
0.00223074
0.00176954
0.00168911
0.00165384
0.00170373
0.00248193
0.00501847
0.00667238
0.00658807
0.00703061
0.00655088
0.00278347
0.00510773
0.0109204
0.0134851
0.012545
0.019629
0.0137639
0.0205614
0.0136626
0.00742827
0.00891383
0.00549254
0.024079
0.0257755
0.012482
0.0274125
0.0132409
0.0127413
0.00622915
0.0082537
0.00966607
0.00489192
0.00938059
0.00636519
0.0170023
0.0105148
0.0322212
0.018704
0.0199883
0.0251346
0.0254712
0.020769
0.00909296
0.00503695
0.00991877
0.029246
0.0175513
0.013137
0.0184028
0.0239036
0.0124391
0.0161872
0.0103778
0.0221601
0.0260404
0.0048523
0.0106723
0.013294
0.023327
0.0384058
0.014156
0.00518027
0.00166199
0.00782267
0.0120456
0.00474977
0.00209591
0.00640791
0.00509781
0.0101895
0.0194829
0.0120903
0.00513242
0.00511451
0.0100091
0.0290018
0.0560715
0.033603
0.0100395
0.00400367
0.00394859
0.00397485
0.00414228
0.0043759
0.00441389
0.00421381
0.0039201
0.00365523
0.0032044
0.00257031
0.0022691
0.00229157
0.00266194
0.00315181
0.00341598
0.00349825
0.00343777
0.00346324
0.00383172
0.00426643
0.00438851
0.00389928
0.00319031
0.00249951
0.00197801
0.00186669
0.00181982
0.00187829
0.00283926
0.00598602
0.00723769
0.00701586
0.00818015
0.00839749
0.00366028
0.00611467
0.0139937
0.0143746
0.0130741
0.0221985
0.0155841
0.0221066
0.0153703
0.0113036
0.011343
0.00619615
0.0226549
0.0250461
0.0133646
0.0245258
0.0143823
0.0114861
0.00569292
0.00625194
0.00683443
0.00635346
0.007458
0.00495543
0.0145383
0.00944074
0.0421484
0.018327
0.0169165
0.0219489
0.0313252
0.0203529
0.00688289
0.00575703
0.00788553
0.0290323
0.0151423
0.0119389
0.030132
0.0227164
0.0141018
0.0133467
0.0101385
0.0396831
0.0398378
0.0133348
0.00866168
0.0103497
0.0343599
0.0546163
0.0136419
0.00400621
0.00479024
0.00716399
0.0113274
0.0081147
0.00193993
0.0051704
0.00715479
0.0172309
0.018851
0.0101841
0.00321345
0.00276865
0.00632388
0.0252472
0.0618964
0.0438293
0.0155153
0.00441503
0.00439536
0.00443348
0.00460735
0.00481209
0.00479505
0.00455329
0.00424473
0.00398354
0.00352829
0.00286867
0.00253926
0.00255343
0.00294376
0.00343325
0.00368923
0.00377451
0.00372505
0.00377997
0.00418806
0.00463724
0.00475252
0.00424879
0.0034909
0.00274678
0.0021693
0.00202854
0.00196825
0.00203538
0.00304143
0.00621555
0.00729972
0.0077514
0.0100434
0.0113165
0.00534383
0.00723794
0.0161536
0.0154439
0.0146082
0.0243258
0.021031
0.027898
0.0153022
0.0149832
0.0113976
0.00631504
0.0211225
0.0237498
0.0166584
0.0268038
0.0242013
0.0104542
0.00527062
0.0077304
0.00675881
0.00851136
0.00590722
0.00403277
0.0122108
0.0125357
0.0426139
0.0152676
0.0139151
0.0213393
0.0300525
0.0158616
0.00800514
0.0101768
0.00596375
0.0265431
0.012471
0.0105164
0.039104
0.0207362
0.0128894
0.00978936
0.0194206
0.0554603
0.0497079
0.022992
0.00695404
0.0091081
0.0474685
0.0717087
0.01287
0.00473868
0.00815754
0.00683246
0.0113709
0.011092
0.00465157
0.00400639
0.00791415
0.0237669
0.0239416
0.0123973
0.00232343
0.00144203
0.0047919
0.0221762
0.060415
0.0510818
0.013798
0.00479225
0.00481327
0.0048655
0.00504038
0.00520255
0.00512117
0.00483723
0.00451879
0.00426965
0.0038231
0.00315324
0.00280036
0.00280458
0.00320759
0.00368204
0.00392582
0.00401547
0.00397657
0.004066
0.00451012
0.00496793
0.00507531
0.00456396
0.00376327
0.00297043
0.00234162
0.00217221
0.00209816
0.0021754
0.00317004
0.00613119
0.00725968
0.00837005
0.0111063
0.0131755
0.00732089
0.00818083
0.0166282
0.0156804
0.0158944
0.0259221
0.0276283
0.0356861
0.0149473
0.0181433
0.0101188
0.00509271
0.0190895
0.0221073
0.0234743
0.0421504
0.0336468
0.00930569
0.00463997
0.0160294
0.014521
0.0123639
0.00369454
0.00684771
0.00900538
0.0187663
0.0393981
0.0112934
0.0127946
0.0193954
0.0287279
0.0130592
0.015737
0.0146126
0.00559238
0.0232489
0.00930627
0.0087158
0.0441939
0.0188573
0.00999891
0.00678914
0.041846
0.0667203
0.0592618
0.0282281
0.00466012
0.0135354
0.0594568
0.0833981
0.0178934
0.00868742
0.00684046
0.00601974
0.011912
0.0132362
0.0114815
0.00248304
0.00285316
0.0231024
0.0253289
0.0157746
0.00384566
0.00651753
0.00929675
0.0184633
0.0562544
0.0555442
0.0163113
0.00513742
0.00520232
0.00527059
0.00543947
0.00554762
0.00539543
0.00507039
0.00474756
0.00451768
0.00408988
0.00342382
0.00305237
0.00304541
0.00345354
0.00390168
0.00413244
0.00422546
0.00419881
0.00432421
0.00480057
0.00526183
0.00536119
0.0048475
0.004007
0.00317053
0.0024946
0.00229809
0.00221022
0.00230072
0.00328438
0.0059946
0.00721331
0.00858742
0.0112172
0.0136251
0.00921997
0.0088256
0.0162221
0.0152766
0.0158806
0.0271414
0.0336974
0.0375127
0.0146634
0.0202918
0.00833521
0.00398568
0.0165856
0.0205787
0.0305041
0.0586699
0.0404433
0.00849875
0.00418332
0.0176678
0.0267149
0.0126271
0.00168383
0.0211199
0.00638706
0.0224952
0.035717
0.00831913
0.0111459
0.0157322
0.0282729
0.0115346
0.0174285
0.0169494
0.00772996
0.0201809
0.00914599
0.0073725
0.0460713
0.0189577
0.00841658
0.00786873
0.0672396
0.0758881
0.0680438
0.0271544
0.00349581
0.0287011
0.0705644
0.085856
0.0346797
0.0172977
0.00493766
0.00476306
0.0104231
0.0150986
0.0147534
0.00164304
0.00220936
0.0196379
0.0234125
0.0193687
0.00725064
0.0159686
0.0180357
0.0162787
0.0528231
0.056477
0.0230298
0.00545372
0.0055629
0.00564786
0.00580214
0.00584745
0.00562066
0.00525612
0.00493486
0.004727
0.00432726
0.00367853
0.00329303
0.00327341
0.00367892
0.00409404
0.00430975
0.00440141
0.00439317
0.00455408
0.00505965
0.00552061
0.00561185
0.00510022
0.00422265
0.00334637
0.00262744
0.00240593
0.00230578
0.00241162
0.00339715
0.00589469
0.00721037
0.00867664
0.0112477
0.0137646
0.0107456
0.00927567
0.0156695
0.0147298
0.0152609
0.0273841
0.0394804
0.0361497
0.0144698
0.0196459
0.00625082
0.00426698
0.0132287
0.0185822
0.0328651
0.0662782
0.0389789
0.00723406
0.00345221
0.0165324
0.0368377
0.00833556
0.00754453
0.0309217
0.00566132
0.0209963
0.0312485
0.00841655
0.0088244
0.0125614
0.0279179
0.012767
0.0141106
0.0130283
0.00958857
0.0167729
0.0144678
0.0113793
0.0455885
0.0167038
0.0102577
0.0259665
0.0870394
0.0829167
0.0751783
0.0310988
0.00503084
0.0519203
0.0802913
0.0851652
0.0427606
0.0233363
0.00487263
0.00354252
0.00895417
0.0172478
0.0126009
0.00373908
0.00198262
0.0181022
0.0243454
0.0219241
0.0118348
0.0229858
0.0262076
0.0171251
0.0487469
0.05451
0.0314202
0.00588653
0.00606323
0.00617336
0.00629164
0.00623087
0.00588734
0.0054708
0.00516317
0.00499243
0.00464397
0.00404073
0.00364088
0.0036002
0.00398879
0.00434335
0.00452989
0.00461463
0.00464542
0.00486148
0.00540013
0.00585294
0.00593486
0.00543078
0.00450077
0.00357167
0.00279645
0.00254408
0.00242972
0.00255802
0.00356037
0.00582026
0.00730884
0.00877585
0.0112775
0.0137787
0.0120227
0.010133
0.0147885
0.0139419
0.0144507
0.0268494
0.0453457
0.0332306
0.0140145
0.0171488
0.00372301
0.00661459
0.00811098
0.0147369
0.0317166
0.0629818
0.0332058
0.00601264
0.00217156
0.0149912
0.0495261
0.00740419
0.0243633
0.0418727
0.00603479
0.0182741
0.0242632
0.0152979
0.00520114
0.00850551
0.0244379
0.0123183
0.0102318
0.0100053
0.00982588
0.0127491
0.020951
0.0308131
0.0443172
0.013685
0.0162854
0.069005
0.113884
0.0859216
0.079437
0.0438734
0.0205522
0.0827266
0.0843774
0.0837827
0.0407454
0.0203961
0.00556962
0.00298169
0.00797765
0.0142629
0.0120439
0.0155038
0.00327572
0.0217426
0.0340063
0.0268113
0.019086
0.0325035
0.0353955
0.0209484
0.0424093
0.0495071
0.0409477
0.0063828
0.00663579
0.00676311
0.00680022
0.00657836
0.00608241
0.00561721
0.00535715
0.00523166
0.00495763
0.00444759
0.00404508
0.0039743
0.00431178
0.00457811
0.00471395
0.00478134
0.00486819
0.00517567
0.00575563
0.00617979
0.00625608
0.00576955
0.00476988
0.00377942
0.00294986
0.00268509
0.00256256
0.00271658
0.00374634
0.00580402
0.00741977
0.0088468
0.0111532
0.0134207
0.0131284
0.013216
0.0146588
0.0142448
0.0148786
0.0244766
0.0439293
0.0285731
0.0119714
0.012924
0.00355351
0.0155487
0.00689527
0.00769182
0.0248109
0.0587268
0.0312911
0.0115539
0.00082008
0.0141801
0.0469515
0.00773364
0.041822
0.0509103
0.00444145
0.0127935
0.017219
0.031757
0.00442541
0.00647267
0.0157144
0.00805339
0.00705139
0.0108119
0.014392
0.0083248
0.0237689
0.0412532
0.038291
0.0117989
0.0272139
0.104672
0.133149
0.0730853
0.0636243
0.0639756
0.0587336
0.108178
0.0719201
0.0834534
0.0417597
0.0207187
0.0105555
0.00491507
0.0151362
0.0135324
0.0149663
0.0363489
0.0187613
0.0448288
0.0443639
0.0308161
0.0290206
0.041967
0.0436727
0.0348574
0.0368478
0.039291
0.0347656
0.00681402
0.00712647
0.00724942
0.00717632
0.00678173
0.00615436
0.00568502
0.00548041
0.00538462
0.00518806
0.00478347
0.00439367
0.00429147
0.00455794
0.00473212
0.00480739
0.0048574
0.00499588
0.00540076
0.00601113
0.00639552
0.00646687
0.00599292
0.0049316
0.00389022
0.00304773
0.0027988
0.00267475
0.00284589
0.00390997
0.00586234
0.00745398
0.00885887
0.0109474
0.0141374
0.0172758
0.0180847
0.017342
0.017383
0.0176387
0.0236014
0.0398533
0.0250878
0.00857417
0.00929847
0.00370106
0.0203348
0.0110432
0.00583366
0.0179128
0.0518798
0.0275633
0.0248291
0.00140082
0.0128678
0.0386635
0.0147135
0.0512127
0.0596204
0.0131561
0.00786292
0.0229593
0.0518367
0.0101839
0.00593679
0.00911198
0.00652616
0.0111142
0.0375112
0.0349897
0.00662672
0.018957
0.0320241
0.0299894
0.0355125
0.0579576
0.130765
0.140148
0.066408
0.0583779
0.0659066
0.0903923
0.12373
0.0648408
0.0820044
0.0453464
0.0235782
0.0190609
0.0122526
0.0184106
0.0203128
0.0287354
0.0417312
0.0342851
0.0540952
0.0576586
0.0355825
0.0336051
0.0397191
0.0441162
0.0478066
0.0336142
0.0319225
0.0296156
0.00719653
0.00754631
0.00763601
0.00742943
0.00685981
0.00613677
0.0057077
0.00554828
0.00547109
0.00534539
0.00504277
0.00467686
0.00454252
0.00473254
0.00482046
0.00483192
0.00486623
0.00504514
0.00554287
0.00616686
0.00650335
0.00656156
0.00610382
0.00499241
0.00391332
0.00311611
0.00290635
0.00278097
0.00294153
0.00401277
0.0058655
0.00732765
0.00865678
0.0105819
0.0152326
0.0216892
0.0219161
0.0183627
0.0182227
0.018747
0.0245046
0.0347697
0.0221717
0.00449711
0.00576811
0.00900365
0.0238078
0.0123358
0.00633045
0.0166649
0.0439086
0.0252895
0.0338965
0.00326661
0.00806405
0.0316833
0.0261555
0.040485
0.0595336
0.0271474
0.00420626
0.0258454
0.0623531
0.0196398
0.00353993
0.00869122
0.0182802
0.0294399
0.0558699
0.0531508
0.0102511
0.016981
0.0238476
0.0236855
0.0762491
0.0934203
0.146398
0.133647
0.0627777
0.0520535
0.0502286
0.103593
0.118146
0.0628788
0.0751595
0.0581611
0.0332052
0.0230464
0.0183297
0.0155474
0.0323868
0.034458
0.0347344
0.0438445
0.0503781
0.0662656
0.0408553
0.0344293
0.0307677
0.0306989
0.0559147
0.0317852
0.0229851
0.0221724
0.00754072
0.00790467
0.00792999
0.00757537
0.00683826
0.0060803
0.00570224
0.00557605
0.00551205
0.00544098
0.00522697
0.00489482
0.00473057
0.00484756
0.00485904
0.00480432
0.00481649
0.00502776
0.00560374
0.0062083
0.0064896
0.00653165
0.00611836
0.00494126
0.00387141
0.00318695
0.00303292
0.00287188
0.00297757
0.00397806
0.00569008
0.0070283
0.00813776
0.00993153
0.0155697
0.0243601
0.0223759
0.0162464
0.0158855
0.0175682
0.025405
0.0294476
0.0177682
0.00116809
0.00343776
0.0155894
0.0257692
0.0116842
0.00740403
0.0242031
0.0400504
0.0235097
0.0401635
0.00473419
0.00294427
0.0223709
0.0169956
0.032717
0.0463112
0.0338794
0.00230778
0.0235516
0.053999
0.0246353
0.00412903
0.0232063
0.0341114
0.0406124
0.0613283
0.0653539
0.0199445
0.0233741
0.01854
0.027161
0.0911373
0.107384
0.144316
0.118754
0.0582305
0.0477416
0.0467345
0.0989368
0.103481
0.0590979
0.0708837
0.0686295
0.0444128
0.0213273
0.0194186
0.0119773
0.0387008
0.0255287
0.028474
0.0479642
0.045175
0.0671104
0.044364
0.0361705
0.0237355
0.0265602
0.0562854
0.0348031
0.0155751
0.0149648
0.00785458
0.00820619
0.0081375
0.00762597
0.00673624
0.00599201
0.0056661
0.00557106
0.00551592
0.00547483
0.00533022
0.00503604
0.00484554
0.00489806
0.00484998
0.00472675
0.00470484
0.00492535
0.00555149
0.00606966
0.00623894
0.00625924
0.00599515
0.00478141
0.00379413
0.0032654
0.00316904
0.00292352
0.00291136
0.00372347
0.00527535
0.00642614
0.00714877
0.00857555
0.0144083
0.0232276
0.0200597
0.0136177
0.0129959
0.0150928
0.0241386
0.0242755
0.0125514
0.000446886
0.00262432
0.0187454
0.0239693
0.00915403
0.00728431
0.0265574
0.0349133
0.0215993
0.0409316
0.00832478
0.00286422
0.0124388
0.0122647
0.0251192
0.0403867
0.0390377
0.00138667
0.020419
0.045943
0.0264954
0.0100617
0.0265858
0.0335342
0.0372334
0.0531689
0.0612027
0.0289737
0.0187999
0.0189305
0.0394573
0.0866826
0.10274
0.132547
0.10589
0.05214
0.0467207
0.0443089
0.0887696
0.0921748
0.0544642
0.0651638
0.0581073
0.0372546
0.0182879
0.013385
0.0105073
0.040205
0.0215727
0.0219582
0.0447853
0.0386484
0.0602804
0.046362
0.038216
0.0172521
0.0232678
0.0500393
0.0396701
0.0108268
0.0101506
0.00814118
0.00845305
0.00826834
0.00759407
0.00657955
0.00589418
0.00561604
0.00553813
0.00548576
0.0054477
0.00534441
0.00508652
0.00488792
0.00488462
0.00478886
0.00459618
0.00451963
0.00471413
0.00530246
0.00564071
0.00569568
0.00566737
0.00554631
0.00448585
0.00362658
0.00323683
0.00306886
0.00273709
0.00266209
0.00316751
0.00456139
0.00542116
0.00561829
0.0064289
0.011896
0.0201286
0.016658
0.0105748
0.0103045
0.0125519
0.0209743
0.0200889
0.00866865
0.000739045
0.00333114
0.0192261
0.0176708
0.00594854
0.00648127
0.0238008
0.03111
0.0210944
0.0415828
0.0147738
0.00559458
0.00672127
0.00972397
0.019583
0.0361394
0.0413915
0.00473987
0.0175593
0.0383178
0.0281823
0.0155142
0.0249353
0.0258076
0.0302856
0.0451664
0.053686
0.0314349
0.0176221
0.0192369
0.0387113
0.076506
0.0936262
0.122475
0.0946749
0.0461409
0.0445309
0.0440302
0.0784003
0.0812569
0.0492229
0.0579045
0.0529767
0.0351187
0.0158596
0.00992779
0.0105999
0.0356989
0.019009
0.0176291
0.0399912
0.0315872
0.0522337
0.041228
0.036588
0.0141353
0.0183234
0.0453318
0.0397794
0.00954407
0.0100816
0.00939992
0.00937636
0.00828296
0.0068041
0.00579395
0.0055461
0.00549653
0.00536949
0.00505032
0.00482001
0.00477636
0.00469542
0.00464078
0.00448757
0.00420358
0.00367067
0.00321009
0.00291786
0.00282286
0.00274285
0.00263779
0.00260042
0.00263722
0.00287282
0.00294391
0.00278087
0.00215982
0.0013273
0.00102377
0.00110111
0.00159005
0.00177671
0.00138263
0.00120997
0.0015676
0.00217781
0.00169068
0.00235886
0.00332673
0.00334632
0.00316642
0.00322842
0.00266018
0.0011013
0.00185651
0.00368238
0.00218593
0.00161479
0.00469456
0.0100414
0.0148461
0.0205752
0.0382625
0.0290517
0.020437
0.0187493
0.0160913
0.00845925
0.0155147
0.0222626
0.00671593
0.00426342
0.010067
0.0160255
0.0125318
0.00778405
0.010399
0.0143785
0.0156398
0.0185817
0.0197021
0.0136323
0.0128759
0.0169048
0.0256113
0.0390151
0.0589095
0.045906
0.026973
0.0268373
0.0270949
0.0287454
0.0289804
0.0186838
0.0235045
0.0332738
0.0260273
0.0117344
0.0109062
0.0119929
0.0192466
0.00865472
0.0125055
0.0127249
0.00717418
0.01492
0.0149884
0.0134134
0.00638241
0.0062659
0.0158693
0.0219353
0.0180557
0.0178064
0.00945832
0.00736968
0.00481991
0.00340472
0.00281709
0.00257779
0.00250955
0.00243586
0.00233854
0.00222647
0.00199703
0.00151151
0.00102431
0.00073329
0.00062939
0.000617987
0.000718781
0.000842684
0.000852815
0.000709186
0.000407095
0.000252724
0.000226756
0.000296557
0.000411188
0.000423932
0.000357446
0.00021723
0.00012685
0.000102549
9.78082e-05
6.94991e-05
5.54095e-05
8.47771e-05
9.65686e-05
0.000111485
0.000152706
0.000280344
0.000271678
0.000254633
0.000310732
0.000443606
0.000763063
0.000747748
0.000380072
8.17666e-05
2.52879e-05
1.9951e-05
6.68122e-05
0.00015026
0.000540358
0.00115599
0.00257058
0.00544753
0.00595409
0.00614505
0.00584864
0.00476261
0.00467447
0.0056811
0.00521298
0.00287903
0.00235394
0.00364535
0.00385337
0.00323173
0.00227419
0.00248741
0.00335569
0.00497417
0.008789
0.0076825
0.00678078
0.00513365
0.0036689
0.00472859
0.00805359
0.00746484
0.00722496
0.00795904
0.0101288
0.016902
0.0180091
0.0162556
0.0124415
0.0120098
0.011541
0.01092
0.0104484
0.0101908
0.00930696
0.00729436
0.00697069
0.00488464
0.00182029
0.00122728
0.0013134
0.00131877
0.00157545
0.00266917
0.00425319
0.00645901
0.0101094
0.0117845
0.00356766
0.00215155
0.00129537
0.000766813
0.000397421
0.000164797
6.48893e-05
3.78912e-05
3.59875e-05
5.32628e-05
7.07131e-05
9.5804e-05
0.00012227
0.000139892
0.000155066
0.000180647
0.000199068
0.000209813
0.000216684
0.00021442
0.000200248
0.000184113
0.000168585
0.000155111
0.000145328
0.000133677
0.000126424
0.000120343
0.000117182
0.000113834
0.000109418
9.79116e-05
8.77424e-05
7.42947e-05
6.05748e-05
4.88492e-05
3.58237e-05
2.92869e-05
2.21967e-05
1.83536e-05
1.99921e-05
1.46456e-05
1.09457e-05
1.01554e-05
1.09377e-05
2.25606e-05
6.55748e-05
0.000146895
0.000245039
0.000278265
0.000296789
0.000308321
0.000338019
0.000509326
0.00255954
0.00237102
0.00213466
0.00190051
0.00159175
0.00149718
0.001457
0.0014442
0.00137903
0.00160939
0.00197459
0.00146763
0.00130975
0.00177567
0.00313854
0.00293055
0.00299074
0.00306882
0.00319849
0.00272805
0.00277768
0.00293684
0.00247741
0.00193925
0.00139884
0.0013351
0.00150131
0.00247204
0.0050499
0.00475324
0.00407986
0.00412015
0.00458319
0.0054054
0.00604936
0.00710403
0.00745497
0.00738593
0.00719138
0.00660002
0.00608006
0.00644501
0.00614623
0.00439158
0.0019003
0.00060847
0.000477694
0.00078745
0.00367025
0.00437369
9.66413e-05
0.000108204
0.000162996
0.00021109
0.000216051
0.00021668
0.000212016
0.000222548
0.000231969
0.000227719
0.000211315
0.000193477
0.000177976
0.000167614
0.000161774
0.000158935
0.000155266
0.000149313
0.000128158
0.000102352
8.04293e-05
6.89308e-05
6.91105e-05
7.42007e-05
8.61528e-05
9.85163e-05
0.000115506
0.000133286
0.000137098
0.000148182
0.000176853
0.000248815
0.000383978
0.000609445
0.000803292
0.00108566
0.00114185
0.00112758
0.00111936
0.0012376
0.00163894
0.00172634
0.00160814
0.00166943
0.00208825
0.00349363
0.00700349
0.0121657
0.0181987
0.0201116
0.0200649
0.0198099
0.0181349
0.0146861
0.0105447
0.0104152
0.0112918
0.0128526
0.01504
0.0149686
0.0157481
0.0178509
0.0172154
0.0134862
0.00919286
0.011057
0.0180101
0.0306116
0.0478399
0.0455132
0.036449
0.0285535
0.0242931
0.027064
0.0311553
0.0336004
0.030655
0.0243229
0.0244439
0.0258955
0.0237814
0.0196184
0.0151142
0.0125881
0.0115677
0.0117857
0.0120297
0.0120748
0.0117647
0.0106551
0.00946973
0.00824412
0.00834738
0.00969384
0.0131628
0.0195246
0.0241355
0.0220249
0.0156132
0.00975561
0.00683348
0.0038293
0.00281852
0.00181634
0.000169071
0.000161521
0.000152883
0.00014478
0.0001351
0.000126322
0.000114829
0.000102035
9.08144e-05
8.71533e-05
8.95562e-05
9.583e-05
0.000106182
0.000116535
0.000111209
0.000100359
9.42494e-05
9.94261e-05
0.000129164
0.000203723
0.000368162
0.000687336
0.00121882
0.00196448
0.00294986
0.0041888
0.00569471
0.00717499
0.0085454
0.0102448
0.0123318
0.015249
0.0190194
0.023571
0.0273584
0.0316319
0.0340418
0.0345632
0.0356085
0.0369639
0.0393981
0.0406036
0.0401307
0.0416353
0.0453623
0.0532669
0.0646695
0.0769003
0.0838063
0.0835964
0.0809895
0.0748944
0.0657535
0.0529859
0.038912
0.0398116
0.0445672
0.0532897
0.0665571
0.0708486
0.0738553
0.0757715
0.0721605
0.0618429
0.0540079
0.0634593
0.0804444
0.1034
0.113448
0.113434
0.10688
0.101824
0.0939364
0.0960316
0.0985963
0.0992494
0.0965463
0.0949318
0.0988992
0.103315
0.101214
0.0944184
0.082124
0.0740735
0.0680705
0.0610537
0.0524367
0.0435704
0.0363635
0.0290474
0.0246761
0.0264123
0.0321514
0.0433883
0.0604016
0.0737342
0.0760496
0.0689403
0.0513228
0.0352802
0.0298132
0.0271191
0.0233431
0.0237622
8.46607e-05
8.66187e-05
9.59835e-05
0.000110538
0.000135297
0.000179667
0.000260221
0.000405201
0.000652737
0.00105904
0.00165967
0.00253086
0.00346427
0.00444464
0.00539566
0.00609715
0.00700704
0.0082996
0.0103185
0.0132992
0.0177641
0.0240128
0.0317786
0.0401236
0.0491246
0.0551522
0.0591535
0.0617215
0.0642098
0.0670262
0.0700956
0.0740667
0.0787138
0.0840466
0.0884509
0.0911053
0.0922299