/*--------------------------------*- C++ -*----------------------------------*\
| =========                 |                                                 |
| \\      /  F ield         | OpenFOAM: The Open Source CFD Toolbox           |
|  \\    /   O peration     | Version:  v1912                                 |
|   \\  /    A nd           | Website:  www.openfoam.com                      |
|    \\/     M anipulation  |                                                 |
\*---------------------------------------------------------------------------*/
FoamFile
{
    version     2.0;
    format      ascii;
    class       volVectorField;
    location    "90";
    object      U;
}
// * * * * * * * * * * * * * * * * * * * * * * * * * * * * * * * * * * * * * //

dimensions      [0 1 -1 0 0 0 0];


internalField   nonuniform List<vector> 
14268
(
(-0.229486 -0.0245434 0)
(-0.234783 -0.0258739 0)
(-0.236872 -0.0266904 0)
(-0.228172 -0.0275509 0)
(-0.209741 -0.0268742 0)
(-0.174877 -0.0250327 0)
(-0.137287 -0.0221053 0)
(-0.111766 -0.0193252 0)
(-0.103875 -0.0174916 0)
(-0.110273 -0.0199201 0)
(-0.163804 -0.0234647 0)
(-0.218813 -0.0276929 0)
(-0.254846 -0.0314926 0)
(-0.270098 -0.0329264 0)
(-0.263814 -0.0360262 0)
(-0.230663 -0.0348608 0)
(-0.196052 -0.0313972 0)
(-0.168549 -0.0285568 0)
(-0.15538 -0.0275426 0)
(-0.11969 -0.0239378 0)
(-0.0679812 -0.0180405 0)
(-0.022791 -0.0123694 0)
(-0.0245973 -0.0108362 0)
(-0.0623314 -0.0127624 0)
(-0.0943241 -0.0145341 0)
(-0.106005 -0.0148585 0)
(-0.103644 -0.0163668 0)
(-0.0969459 -0.014742 0)
(-0.125454 -0.018455 0)
(-0.157902 -0.0226678 0)
(-0.179811 -0.027278 0)
(-0.175811 -0.0367841 0)
(-0.159405 -0.0520884 0)
(-0.169675 -0.0671916 0)
(-0.129609 -0.0733562 0)
(-0.116416 -0.0619926 0)
(-0.113965 -0.0702773 0)
(-0.196821 -0.0893812 0)
(-0.146291 -0.124361 0)
(-0.167355 -0.168907 0)
(-0.139446 -0.133379 0)
(-0.255286 -0.108186 0)
(-0.275075 -0.152606 0)
(-0.0694598 -0.145664 0)
(0.00761538 -0.106085 0)
(-0.159574 -0.139606 0)
(-0.0894428 -0.186887 0)
(0.0205549 -0.246819 0)
(0.0609545 -0.22263 0)
(-0.0643083 -0.227801 0)
(-0.0237752 -0.213985 0)
(0.518703 -0.237109 0)
(0.675385 -0.175391 0)
(0.149824 -0.201321 0)
(0.192897 -0.216685 0)
(0.455001 -0.0183759 0)
(-0.0812467 -0.102334 0)
(-0.365762 -0.210054 0)
(0.0741595 -0.197383 0)
(0.118709 -0.143682 0)
(0.143724 -0.198125 0)
(0.0560895 -0.232032 0)
(0.141235 -0.129377 0)
(0.15224 -0.0912822 0)
(-0.494333 -0.26381 0)
(0.164755 -0.154541 0)
(0.255426 -0.045168 0)
(-0.172889 -0.16466 0)
(-0.00455033 -0.19591 0)
(0.347317 -0.161896 0)
(0.610869 -0.0642889 0)
(0.463138 -0.225319 0)
(0.270891 -0.169108 0)
(0.0558332 -0.264392 0)
(0.299051 -0.292663 0)
(0.613274 -0.165115 0)
(0.433783 -0.163005 0)
(0.35523 -0.0919677 0)
(0.613819 -0.0932709 0)
(0.958199 -0.0271626 0)
(1.06885 -0.121566 0)
(0.86306 -0.0757808 0)
(-0.308879 -0.167081 0)
(0.33682 -0.384408 0)
(0.767743 -0.271693 0)
(1.13287 -0.130054 0)
(-0.0619646 -0.163215 0)
(0.521144 -0.0880269 0)
(1.61254 -0.0462971 0)
(1.87858 0.0146341 0)
(1.03518 -0.102134 0)
(0.927617 -0.22285 0)
(1.36113 -0.0779303 0)
(1.26221 0.0725124 0)
(0.225113 -0.117368 0)
(-0.217536 -0.220864 0)
(-0.729746 -0.387358 0)
(-0.0366536 -0.0995991 0)
(0.669943 -0.0955156 0)
(1.45329 -0.101516 0)
(2.10245 -0.030453 0)
(2.22262 -0.0553569 0)
(2.32599 0.0151069 0)
(2.23105 0.0494882 0)
(-0.230786 -0.021095 0)
(-0.236921 -0.0210583 0)
(-0.239581 -0.0214803 0)
(-0.232128 -0.0198195 0)
(-0.214234 -0.0181981 0)
(-0.179936 -0.014226 0)
(-0.142092 -0.00916224 0)
(-0.116543 -0.00526173 0)
(-0.109216 -0.00423746 0)
(-0.117512 -0.000765925 0)
(-0.178354 -0.00696044 0)
(-0.230724 -0.0141567 0)
(-0.263175 -0.0184645 0)
(-0.276902 -0.0216325 0)
(-0.268309 -0.0193494 0)
(-0.235721 -0.0153202 0)
(-0.202351 -0.0117647 0)
(-0.176904 -0.00816912 0)
(-0.16499 -0.0071785 0)
(-0.128411 -0.00543306 0)
(-0.0763293 -0.00129756 0)
(-0.032679 0.00444902 0)
(-0.0358588 0.00604976 0)
(-0.0726698 0.00151914 0)
(-0.100751 -0.00343481 0)
(-0.109794 -0.00662165 0)
(-0.107192 -0.00516722 0)
(-0.100475 -0.0042093 0)
(-0.129082 -0.00484618 0)
(-0.160216 -0.00729221 0)
(-0.179571 -0.00844705 0)
(-0.181717 -0.000596304 0)
(-0.177995 0.0161196 0)
(-0.194398 0.0273872 0)
(-0.169185 0.0376875 0)
(-0.169864 0.0311909 0)
(-0.172419 0.0423037 0)
(-0.233291 0.041982 0)
(-0.168733 0.0838586 0)
(-0.190868 0.125876 0)
(-0.199738 0.0967422 0)
(-0.318216 0.0522731 0)
(-0.313555 0.07139 0)
(-0.153316 0.100128 0)
(-0.144864 0.0859098 0)
(-0.291332 0.0865777 0)
(-0.0845825 0.145713 0)
(-0.00455721 0.223046 0)
(-0.0802939 0.207369 0)
(-0.117718 0.194616 0)
(-0.0758208 0.148441 0)
(0.45651 0.272108 0)
(0.584353 0.306032 0)
(0.0228935 0.222019 0)
(0.116722 0.213747 0)
(0.359799 0.10129 0)
(-0.200899 0.0867655 0)
(-0.306131 0.105699 0)
(-0.0184728 0.147418 0)
(-0.0479308 0.12159 0)
(-0.0433027 0.177978 0)
(-0.108283 0.205241 0)
(0.0175137 0.1091 0)
(-0.0443706 0.125124 0)
(-0.581699 0.156337 0)
(0.134743 0.140545 0)
(0.235081 0.0966529 0)
(-0.258497 0.11306 0)
(-0.111971 0.142038 0)
(0.170698 0.161068 0)
(0.396477 0.133602 0)
(0.243285 0.286262 0)
(0.031938 0.195447 0)
(0.0124641 0.228504 0)
(0.178021 0.265025 0)
(0.408749 0.232374 0)
(0.274803 0.223536 0)
(0.236183 0.119413 0)
(0.468655 0.145981 0)
(0.762096 0.142728 0)
(0.868315 0.289246 0)
(0.635055 0.250801 0)
(0.390562 0.176667 0)
(0.260164 0.357412 0)
(0.743767 0.317134 0)
(0.985339 0.346337 0)
(0.13578 0.178069 0)
(0.519312 0.0581748 0)
(1.24628 0.225239 0)
(1.4806 0.322099 0)
(0.974048 0.314225 0)
(0.727864 0.327198 0)
(1.02605 0.278826 0)
(1.03738 0.196025 0)
(0.298858 0.214362 0)
(-0.107993 0.195733 0)
(-0.480333 0.234899 0)
(0.0192832 0.00745523 0)
(0.616572 0.124844 0)
(1.3236 0.282415 0)
(1.82775 0.370813 0)
(1.92655 0.411858 0)
(1.99068 0.371464 0)
(2.0927 0.375063 0)
(-0.229542 -0.0236231 0)
(-0.234079 -0.0250462 0)
(-0.235935 -0.0265388 0)
(-0.226717 -0.0277251 0)
(-0.208819 -0.0278955 0)
(-0.172643 -0.026396 0)
(-0.133179 -0.0227821 0)
(-0.10643 -0.0188692 0)
(-0.0986279 -0.0164409 0)
(-0.108762 -0.0153977 0)
(-0.168095 -0.0178081 0)
(-0.2236 -0.0236011 0)
(-0.257742 -0.0288528 0)
(-0.271361 -0.0323959 0)
(-0.262614 -0.0364044 0)
(-0.228896 -0.035637 0)
(-0.194686 -0.0319382 0)
(-0.169424 -0.0288503 0)
(-0.157458 -0.0284612 0)
(-0.122343 -0.0262 0)
(-0.0713789 -0.020355 0)
(-0.0284648 -0.0132063 0)
(-0.0321648 -0.00863581 0)
(-0.0706673 -0.00976921 0)
(-0.0995747 -0.0126988 0)
(-0.10738 -0.0146346 0)
(-0.104616 -0.016425 0)
(-0.0980361 -0.0133698 0)
(-0.126474 -0.0152095 0)
(-0.158252 -0.0194995 0)
(-0.182831 -0.0261258 0)
(-0.189559 -0.0365463 0)
(-0.179462 -0.0504106 0)
(-0.181996 -0.0632498 0)
(-0.145201 -0.0701689 0)
(-0.137861 -0.0595954 0)
(-0.137845 -0.0645678 0)
(-0.21162 -0.081533 0)
(-0.169591 -0.115642 0)
(-0.184438 -0.153005 0)
(-0.142724 -0.118538 0)
(-0.253405 -0.0900791 0)
(-0.290645 -0.135613 0)
(-0.11688 -0.132014 0)
(-0.0500704 -0.0909751 0)
(-0.210234 -0.126291 0)
(-0.0869909 -0.168025 0)
(0.0267051 -0.215202 0)
(0.0465449 -0.169674 0)
(-0.108477 -0.186229 0)
(-0.0590519 -0.166359 0)
(0.542149 -0.199006 0)
(0.520931 -0.132749 0)
(0.0205711 -0.160174 0)
(0.189111 -0.18356 0)
(0.335509 0.000122252 0)
(-0.246756 -0.0601075 0)
(-0.340406 -0.173793 0)
(0.0229864 -0.163738 0)
(0.0368259 -0.110444 0)
(0.0320687 -0.169975 0)
(-0.0211971 -0.204756 0)
(0.12638 -0.0706916 0)
(0.170135 -0.0532613 0)
(-0.334602 -0.246271 0)
(0.0750899 -0.137408 0)
(0.189697 -0.0214263 0)
(-0.342307 -0.154396 0)
(-0.157863 -0.188011 0)
(0.299847 -0.144521 0)
(0.538997 -0.0344131 0)
(0.400327 -0.181031 0)
(0.170103 -0.121626 0)
(0.0617783 -0.187201 0)
(0.21066 -0.231198 0)
(0.510545 -0.136029 0)
(0.41646 -0.124715 0)
(0.330098 -0.0631448 0)
(0.530295 -0.0703571 0)
(0.796453 -0.00219793 0)
(0.934426 -0.0793158 0)
(0.764126 -0.0242171 0)
(-0.26571 -0.100008 0)
(0.393421 -0.221799 0)
(0.684071 -0.151042 0)
(0.974205 -0.0569172 0)
(0.118012 -0.0749853 0)
(0.521465 -0.0348032 0)
(1.29993 -0.0286226 0)
(1.44967 0.0400478 0)
(1.05031 -0.0435283 0)
(0.862937 -0.171087 0)
(1.09524 -0.0701574 0)
(0.992191 0.101842 0)
(0.198969 -0.0312441 0)
(-0.138002 -0.109615 0)
(-0.831821 -0.358253 0)
(-0.0113235 -0.00708753 0)
(0.623981 0.0124548 0)
(1.72943 -0.0361573 0)
(2.1006 -0.00407921 0)
(2.08181 -0.0152878 0)
(2.06322 0.00867533 0)
(2.09324 0.12424 0)
(-0.228882 -0.0207956 0)
(-0.232646 -0.0207243 0)
(-0.234295 -0.0216612 0)
(-0.224764 -0.0209295 0)
(-0.207148 -0.0209331 0)
(-0.17048 -0.0180538 0)
(-0.13011 -0.012511 0)
(-0.102384 -0.00662148 0)
(-0.0946448 -0.00341254 0)
(-0.105806 0.00189227 0)
(-0.16771 -0.00299708 0)
(-0.223875 -0.011237 0)
(-0.258025 -0.0169697 0)
(-0.271662 -0.0214352 0)
(-0.261975 -0.0219666 0)
(-0.227796 -0.0193492 0)
(-0.193561 -0.0153678 0)
(-0.169435 -0.0104219 0)
(-0.159169 -0.0100856 0)
(-0.124313 -0.0105126 0)
(-0.0732853 -0.00708739 0)
(-0.0312203 0.00138926 0)
(-0.0362844 0.00653174 0)
(-0.0748228 0.00256986 0)
(-0.103055 -0.0029706 0)
(-0.110332 -0.0069 0)
(-0.107273 -0.00596129 0)
(-0.10013 -0.00373583 0)
(-0.127595 -0.00319519 0)
(-0.157729 -0.00596211 0)
(-0.181727 -0.00854968 0)
(-0.192033 -0.00317745 0)
(-0.187481 0.0121705 0)
(-0.192055 0.0223804 0)
(-0.165161 0.0294387 0)
(-0.16664 0.0284272 0)
(-0.166002 0.0397564 0)
(-0.222367 0.0375211 0)
(-0.161608 0.0732288 0)
(-0.192305 0.110719 0)
(-0.204943 0.0862119 0)
(-0.279735 0.0484314 0)
(-0.290819 0.0457972 0)
(-0.151255 0.0687974 0)
(-0.105447 0.0793985 0)
(-0.26846 0.0785129 0)
(-0.0734956 0.109774 0)
(-0.0648124 0.182601 0)
(0.00798673 0.15068 0)
(-0.107523 0.15694 0)
(-0.205368 0.0173361 0)
(0.558322 0.19753 0)
(0.561833 0.283558 0)
(0.083772 0.178637 0)
(0.00204781 0.128698 0)
(0.247036 0.0901031 0)
(-0.233405 0.11091 0)
(-0.300335 0.0845626 0)
(-0.00563473 0.113596 0)
(-0.0474882 0.101392 0)
(0.0778925 0.195177 0)
(-0.0417163 0.187819 0)
(0.0445445 0.0496328 0)
(-0.0680358 0.152368 0)
(-0.461596 0.124527 0)
(0.114517 0.00931554 0)
(-0.0129647 0.0900748 0)
(-0.302257 0.146234 0)
(-0.310534 0.105435 0)
(0.14667 0.130926 0)
(0.537295 0.124246 0)
(0.280212 0.295185 0)
(0.0591947 0.148205 0)
(0.0336844 0.196225 0)
(0.168558 0.15998 0)
(0.396416 0.214944 0)
(0.350877 0.216434 0)
(0.264755 0.0918956 0)
(0.520339 0.127832 0)
(0.86618 0.136849 0)
(0.875297 0.305931 0)
(0.666162 0.28596 0)
(0.0577625 0.116654 0)
(0.390849 0.0743113 0)
(0.533524 0.121384 0)
(0.86612 0.293539 0)
(0.183543 0.150949 0)
(0.540963 0.00800484 0)
(1.54972 0.143061 0)
(1.48305 0.317353 0)
(1.04698 0.309409 0)
(0.734446 0.257179 0)
(0.820771 0.2055 0)
(0.879486 0.188994 0)
(0.431249 0.219031 0)
(-0.352388 0.134267 0)
(-1.66423 0.106278 0)
(0.981752 -0.091669 0)
(0.813672 -0.142516 0)
(1.10505 0.195749 0)
(2.10199 0.365364 0)
(2.04536 0.412383 0)
(1.93815 0.358418 0)
(1.89336 0.27989 0)
(-0.229373 -0.0228593 0)
(-0.232623 -0.0242496 0)
(-0.233732 -0.0262934 0)
(-0.223279 -0.0276909 0)
(-0.205533 -0.0286846 0)
(-0.167964 -0.0276121 0)
(-0.126601 -0.023145 0)
(-0.098024 -0.0178692 0)
(-0.0894375 -0.0146935 0)
(-0.100115 -0.00980914 0)
(-0.16384 -0.0106036 0)
(-0.221474 -0.0181631 0)
(-0.255775 -0.0254767 0)
(-0.2687 -0.0313783 0)
(-0.257782 -0.0361368 0)
(-0.223424 -0.0357974 0)
(-0.18929 -0.0316903 0)
(-0.165527 -0.0282686 0)
(-0.154925 -0.0285978 0)
(-0.120995 -0.0278455 0)
(-0.0713751 -0.0220948 0)
(-0.0299759 -0.0132113 0)
(-0.0353986 -0.00566433 0)
(-0.0749809 -0.00597996 0)
(-0.103946 -0.0106895 0)
(-0.11003 -0.0144972 0)
(-0.106059 -0.0163879 0)
(-0.0991568 -0.0120488 0)
(-0.127173 -0.0118 0)
(-0.157057 -0.0157026 0)
(-0.189735 -0.0242222 0)
(-0.208714 -0.0365887 0)
(-0.192674 -0.049607 0)
(-0.188026 -0.0607818 0)
(-0.153921 -0.0658346 0)
(-0.160034 -0.0592653 0)
(-0.176017 -0.059904 0)
(-0.225898 -0.0768866 0)
(-0.178073 -0.108038 0)
(-0.187827 -0.137116 0)
(-0.155411 -0.10299 0)
(-0.243906 -0.0711359 0)
(-0.280358 -0.119244 0)
(-0.123344 -0.119674 0)
(-0.0807758 -0.0765803 0)
(-0.248172 -0.120582 0)
(-0.088119 -0.147323 0)
(-0.00284696 -0.178024 0)
(0.013465 -0.109342 0)
(0.0840676 -0.152166 0)
(-0.252242 -0.109906 0)
(0.43254 -0.18144 0)
(0.53441 -0.0501065 0)
(0.0788872 -0.0613786 0)
(0.211411 -0.123698 0)
(0.282409 0.0292544 0)
(-0.281701 -0.0199456 0)
(-0.361856 -0.167194 0)
(0.0440737 -0.153916 0)
(-0.104475 -0.0723095 0)
(0.00588692 -0.148222 0)
(-0.0397999 -0.171156 0)
(0.137114 -0.0684832 0)
(-0.135628 -0.0999143 0)
(-0.411298 -0.206028 0)
(0.138046 -0.0576835 0)
(-0.224107 -0.039568 0)
(-0.328269 -0.138541 0)
(0.401803 -0.121492 0)
(0.49145 -0.104109 0)
(0.412567 -0.0348567 0)
(0.316676 -0.140672 0)
(0.135602 -0.0735747 0)
(0.055072 -0.23298 0)
(0.151728 -0.159993 0)
(0.429829 -0.14124 0)
(0.309522 -0.0936225 0)
(0.290901 -0.0344052 0)
(0.556211 -0.14376 0)
(0.802391 -0.0766705 0)
(0.900215 -0.103416 0)
(0.534713 0.0497995 0)
(0.3562 0.0100278 0)
(0.391216 -0.0674375 0)
(0.549781 -0.203036 0)
(0.758511 0.022155 0)
(0.173608 0.0258692 0)
(0.466409 -0.207532 0)
(0.757889 -0.0248043 0)
(1.60159 0.122091 0)
(1.01462 0.0646471 0)
(0.860454 -0.0971973 0)
(0.962052 -0.0522332 0)
(0.742661 0.139307 0)
(0.233144 0.106014 0)
(-1.08934 0.0313771 0)
(1.25194 -0.0557287 0)
(0.969435 -0.115304 0)
(0.778507 -0.0417413 0)
(0.768717 -0.14037 0)
(1.7358 -0.036826 0)
(2.13696 0.00923522 0)
(2.1124 0.0473331 0)
(2.05947 0.137781 0)
(-0.230285 -0.0208882 0)
(-0.233291 -0.0209931 0)
(-0.234246 -0.0224294 0)
(-0.223545 -0.0227266 0)
(-0.205742 -0.0241327 0)
(-0.167694 -0.0224378 0)
(-0.125861 -0.0166979 0)
(-0.0964167 -0.00912491 0)
(-0.0874213 -0.00347161 0)
(-0.0982331 0.00417398 0)
(-0.160991 0.000701273 0)
(-0.219631 -0.00856743 0)
(-0.254403 -0.0157788 0)
(-0.267607 -0.0215629 0)
(-0.25731 -0.0250375 0)
(-0.223144 -0.0237393 0)
(-0.188938 -0.0193901 0)
(-0.165789 -0.0130852 0)
(-0.15593 -0.0130632 0)
(-0.122468 -0.0155858 0)
(-0.0731673 -0.0127429 0)
(-0.0325354 -0.0018499 0)
(-0.0385163 0.00686515 0)
(-0.0782135 0.00351222 0)
(-0.106732 -0.00278002 0)
(-0.111945 -0.00742214 0)
(-0.107695 -0.00700582 0)
(-0.100533 -0.00339283 0)
(-0.130707 -0.00214996 0)
(-0.159416 -0.0049246 0)
(-0.190992 -0.00881947 0)
(-0.205786 -0.00588313 0)
(-0.188834 0.00831457 0)
(-0.189665 0.0162272 0)
(-0.167498 0.0204641 0)
(-0.181352 0.0255405 0)
(-0.189529 0.032602 0)
(-0.229762 0.0305658 0)
(-0.155576 0.0607145 0)
(-0.194243 0.0956991 0)
(-0.201193 0.0715203 0)
(-0.266789 0.0374554 0)
(-0.292735 0.0171892 0)
(-0.170905 0.0333477 0)
(-0.114872 0.0663995 0)
(-0.295781 0.0648811 0)
(-0.100647 0.0677904 0)
(0.0335806 0.135595 0)
(-0.0197255 0.111569 0)
(-0.0652039 0.167706 0)
(0.0173611 -0.0198766 0)
(0.374748 0.0264365 0)
(0.458535 0.242061 0)
(0.0323583 0.14323 0)
(0.045842 0.0935312 0)
(0.224671 0.0857669 0)
(-0.282351 0.0829169 0)
(-0.247879 0.0592628 0)
(-0.0714456 0.0638252 0)
(0.206427 0.0796714 0)
(-0.209044 0.0715801 0)
(-0.0958459 0.113688 0)
(0.00663148 0.0784078 0)
(-0.314748 0.210174 0)
(-0.537061 0.110021 0)
(0.119477 0.00968884 0)
(-0.215898 0.0818368 0)
(-0.132349 0.138453 0)
(0.41008 -0.00724611 0)
(0.531484 -0.00663245 0)
(0.163446 0.0798178 0)
(0.251703 0.268864 0)
(0.13888 0.149416 0)
(0.0411914 0.231469 0)
(0.220118 0.0743577 0)
(0.451055 0.173558 0)
(0.321596 0.173508 0)
(0.326803 0.0354141 0)
(0.50574 0.0946712 0)
(0.772989 0.127819 0)
(0.828228 0.285041 0)
(0.527107 0.151056 0)
(0.312664 0.172102 0)
(0.392305 0.0544911 0)
(0.603148 0.151823 0)
(0.669028 0.173334 0)
(0.3139 0.112169 0)
(0.464899 0.00159355 0)
(0.123475 -0.181668 0)
(1.71445 0.267024 0)
(0.97459 0.287582 0)
(0.721351 0.239051 0)
(0.85602 0.210199 0)
(0.747547 0.199015 0)
(-0.0442853 0.104231 0)
(0.741263 0.0896655 0)
(1.64489 0.0518226 0)
(0.907114 0.0444103 0)
(0.753841 0.0513533 0)
(0.871588 -0.135743 0)
(1.04227 0.142188 0)
(2.07226 0.384064 0)
(1.96411 0.354102 0)
(1.93005 0.350656 0)
(-0.231616 -0.0224866 0)
(-0.234525 -0.0238955 0)
(-0.23512 -0.026494 0)
(-0.224127 -0.0282346 0)
(-0.206345 -0.0301981 0)
(-0.167891 -0.0297682 0)
(-0.125434 -0.02455 0)
(-0.0955808 -0.0176493 0)
(-0.0859026 -0.013419 0)
(-0.0958768 -0.00461755 0)
(-0.157398 -0.00313918 0)
(-0.216955 -0.0124207 0)
(-0.252436 -0.0220017 0)
(-0.265228 -0.0302738 0)
(-0.255053 -0.0361691 0)
(-0.221313 -0.036638 0)
(-0.188044 -0.03207 0)
(-0.164688 -0.0279741 0)
(-0.153946 -0.0290457 0)
(-0.121746 -0.0297869 0)
(-0.0734868 -0.0245058 0)
(-0.0336707 -0.0135175 0)
(-0.039328 -0.00280233 0)
(-0.0793138 -0.00228317 0)
(-0.107874 -0.00876905 0)
(-0.11201 -0.0143875 0)
(-0.107429 -0.0163065 0)
(-0.101144 -0.0107693 0)
(-0.130895 -0.00880171 0)
(-0.167278 -0.0127447 0)
(-0.202107 -0.0218278 0)
(-0.211197 -0.0355168 0)
(-0.198869 -0.0479582 0)
(-0.193015 -0.0565288 0)
(-0.164747 -0.059629 0)
(-0.179238 -0.056714 0)
(-0.206519 -0.0533107 0)
(-0.238896 -0.07403 0)
(-0.17282 -0.0981706 0)
(-0.197644 -0.121126 0)
(-0.162258 -0.0829636 0)
(-0.219887 -0.0453845 0)
(-0.288119 -0.105957 0)
(-0.15494 -0.0997315 0)
(-0.0955581 -0.0544798 0)
(-0.276978 -0.112215 0)
(-0.12086 -0.131396 0)
(0.0758083 -0.131707 0)
(-0.105154 -0.0797286 0)
(-0.0216342 -0.130199 0)
(0.179083 -0.151318 0)
(0.375795 -0.0845143 0)
(0.474447 -0.00728236 0)
(0.0435308 -0.0269658 0)
(0.12484 -0.143298 0)
(0.173754 0.0638039 0)
(-0.107859 0.0780717 0)
(-0.119543 -0.175115 0)
(0.0778317 -0.142981 0)
(0.239984 -0.0850239 0)
(-0.181705 -0.101551 0)
(-0.0443273 -0.0765144 0)
(0.21287 -0.0488026 0)
(-0.102147 -0.15397 0)
(-0.293401 -0.259435 0)
(0.135159 -0.0263267 0)
(-0.151902 -0.00891492 0)
(0.19796 -0.112948 0)
(0.268217 -0.0294 0)
(0.427308 0.0133592 0)
(0.345631 -0.0208176 0)
(0.0697438 -0.13134 0)
(0.108722 -0.0250693 0)
(0.0304382 -0.221074 0)
(0.23407 -0.058988 0)
(0.434639 -0.0958606 0)
(0.581103 -0.0195277 0)
(0.312729 -0.046148 0)
(0.433913 -0.0875862 0)
(0.774372 -0.0279798 0)
(0.863027 -0.0202439 0)
(0.633666 0.180927 0)
(0.322919 -0.0462227 0)
(0.228378 -0.0487019 0)
(0.500641 -0.104593 0)
(0.859418 0.156221 0)
(0.350648 0.0229593 0)
(0.491151 -0.108067 0)
(0.121247 -0.167042 0)
(0.920978 0.0630845 0)
(0.897339 0.116943 0)
(0.810461 -0.087016 0)
(0.90912 -0.0567885 0)
(0.875012 0.160806 0)
(0.0918745 0.155813 0)
(1.5394 0.175702 0)
(1.41598 -0.00445048 0)
(0.895251 -0.0207919 0)
(0.817659 -0.041424 0)
(0.894089 -0.0369993 0)
(0.741366 -0.152211 0)
(2.05099 -0.0133624 0)
(2.27381 0.0907657 0)
(2.07743 0.161121 0)
(-0.233229 -0.0210292 0)
(-0.236146 -0.0214571 0)
(-0.236637 -0.0234342 0)
(-0.225813 -0.0247739 0)
(-0.208116 -0.027466 0)
(-0.169482 -0.026923 0)
(-0.126625 -0.0209299 0)
(-0.0958194 -0.0120528 0)
(-0.0857307 -0.00425325 0)
(-0.0960717 0.00575057 0)
(-0.155835 0.00450482 0)
(-0.215631 -0.00560438 0)
(-0.251411 -0.0145416 0)
(-0.264889 -0.0218323 0)
(-0.25571 -0.0280434 0)
(-0.2225 -0.0279548 0)
(-0.189902 -0.0234416 0)
(-0.16708 -0.0161084 0)
(-0.156672 -0.016106 0)
(-0.124785 -0.0204939 0)
(-0.0770863 -0.0180035 0)
(-0.0377256 -0.00508378 0)
(-0.0428299 0.00720685 0)
(-0.08259 0.0047068 0)
(-0.110467 -0.00258359 0)
(-0.114372 -0.00806927 0)
(-0.110055 -0.00830074 0)
(-0.103343 -0.00313489 0)
(-0.130509 -0.000217147 0)
(-0.164997 -0.00411634 0)
(-0.194161 -0.00913531 0)
(-0.205583 -0.00734978 0)
(-0.204556 0.00286216 0)
(-0.192991 0.00940471 0)
(-0.17081 0.0127467 0)
(-0.197658 0.0221636 0)
(-0.234347 0.0239043 0)
(-0.213595 0.0259615 0)
(-0.175062 0.045695 0)
(-0.204432 0.0821264 0)
(-0.164043 0.0596556 0)
(-0.239126 0.0217515 0)
(-0.318132 0.00450935 0)
(-0.181286 0.00500401 0)
(-0.0977121 0.0570725 0)
(-0.238959 0.0610375 0)
(-0.0514642 0.0246932 0)
(0.0134573 0.0848974 0)
(0.0231474 0.0775563 0)
(-0.0195586 0.13335 0)
(0.048788 0.0359415 0)
(0.412976 -0.022095 0)
(0.448777 0.220276 0)
(0.000704302 0.109121 0)
(-0.000869689 0.0693659 0)
(0.0827906 0.0936424 0)
(0.284697 0.0719465 0)
(-0.19757 0.0683892 0)
(0.15675 0.0323653 0)
(0.127121 0.151644 0)
(-0.136842 0.108205 0)
(-0.198407 -0.0272259 0)
(-0.00816069 0.102743 0)
(-0.092507 0.34522 0)
(-0.477167 0.13717 0)
(-0.219957 -0.184229 0)
(0.225476 0.0843214 0)
(0.0401884 0.0541558 0)
(0.250859 -0.0360969 0)
(0.455091 -0.00216081 0)
(0.59465 0.114368 0)
(0.0970278 0.223616 0)
(0.0307214 0.059798 0)
(-0.137736 0.177203 0)
(0.148549 -0.0635334 0)
(0.433575 0.126187 0)
(0.545647 0.132005 0)
(0.257219 0.085854 0)
(0.377914 0.0642941 0)
(1.14399 0.156745 0)
(0.787264 0.275188 0)
(0.7704 0.177225 0)
(0.25595 0.125018 0)
(0.00563022 -0.120818 0)
(0.483937 0.0674159 0)
(0.944956 0.165547 0)
(0.26504 0.175469 0)
(0.518455 -0.0441138 0)
(0.260939 -0.037934 0)
(0.679893 0.108579 0)
(0.875709 0.234113 0)
(0.705976 0.208993 0)
(0.796679 0.169753 0)
(0.814561 0.3032 0)
(-0.184073 0.11254 0)
(1.4838 0.11084 0)
(1.41127 0.122806 0)
(0.959468 0.0219454 0)
(0.865624 0.00150449 0)
(0.833204 -0.00173748 0)
(0.813126 0.017219 0)
(1.24661 0.244027 0)
(2.72911 0.376866 0)
(2.29733 0.390557 0)
(-0.234991 -0.0223559 0)
(-0.238022 -0.023813 0)
(-0.238246 -0.0269415 0)
(-0.227423 -0.0291806 0)
(-0.209698 -0.0322401 0)
(-0.171093 -0.032716 0)
(-0.127766 -0.0269231 0)
(-0.0966238 -0.0182232 0)
(-0.0862127 -0.0125119 0)
(-0.0957834 -9.23043e-05 0)
(-0.153963 0.00361506 0)
(-0.214216 -0.00695717 0)
(-0.250587 -0.0187152 0)
(-0.263734 -0.0292783 0)
(-0.254991 -0.0368178 0)
(-0.223125 -0.0382382 0)
(-0.191803 -0.0333625 0)
(-0.169622 -0.0284171 0)
(-0.157924 -0.03006 0)
(-0.126717 -0.0324949 0)
(-0.0800338 -0.0278255 0)
(-0.0413606 -0.0145835 0)
(-0.045033 -0.000439192 0)
(-0.0846617 0.00087452 0)
(-0.11212 -0.00714071 0)
(-0.114707 -0.0144624 0)
(-0.110514 -0.0163941 0)
(-0.104626 -0.00980017 0)
(-0.129424 -0.00541628 0)
(-0.159803 -0.00877719 0)
(-0.195683 -0.0197449 0)
(-0.220922 -0.0348631 0)
(-0.216154 -0.0466612 0)
(-0.200605 -0.0529142 0)
(-0.176431 -0.0538387 0)
(-0.216613 -0.0532279 0)
(-0.264858 -0.0521483 0)
(-0.192331 -0.0668683 0)
(-0.201147 -0.0902472 0)
(-0.207025 -0.111333 0)
(-0.132636 -0.0633655 0)
(-0.238037 -0.014762 0)
(-0.260811 -0.0954876 0)
(-0.0983209 -0.0933368 0)
(-0.0920447 -0.037719 0)
(-0.285764 -0.105361 0)
(-0.0075228 -0.0995667 0)
(0.00572021 -0.0894948 0)
(0.166476 -0.0552761 0)
(-0.0180049 -0.113639 0)
(0.0443405 -0.168529 0)
(0.455783 -0.100072 0)
(0.492627 0.0243821 0)
(0.0307063 0.030636 0)
(0.109467 -0.0988573 0)
(0.129932 -0.0464175 0)
(0.0387601 0.155782 0)
(-0.147928 -0.138599 0)
(0.126868 -0.103581 0)
(0.189204 -0.0698395 0)
(-0.107569 -0.0877673 0)
(-0.239146 -0.0291382 0)
(-0.185913 -0.17672 0)
(0.328806 0.038176 0)
(0.132222 -0.128166 0)
(-0.723682 -0.0396316 0)
(0.0262647 0.0940203 0)
(0.123616 -0.0331133 0)
(0.24409 -0.0420619 0)
(0.490243 -0.0398395 0)
(0.681916 0.0546022 0)
(0.162424 -0.0625803 0)
(0.0540866 0.0450563 0)
(0.0355304 -0.139069 0)
(0.101209 -0.146043 0)
(0.35315 -0.0951242 0)
(0.493799 0.060357 0)
(0.241291 -0.0482218 0)
(0.61079 -0.199292 0)
(1.54709 -0.087277 0)
(0.9626 0.0236209 0)
(0.795088 0.156729 0)
(0.281557 0.10511 0)
(0.0761788 -0.077888 0)
(0.819874 -0.174758 0)
(0.856696 0.0919679 0)
(0.237576 0.0884525 0)
(0.559477 -0.0507173 0)
(0.18842 -0.199511 0)
(0.721431 0.0102714 0)
(0.923617 0.180304 0)
(0.768676 -0.0701336 0)
(0.760782 -0.0347078 0)
(0.73903 0.0871422 0)
(0.285756 0.161178 0)
(1.37639 0.173485 0)
(1.40608 0.125233 0)
(1.01752 0.0142631 0)
(0.883881 -0.00516875 0)
(0.826697 -0.105141 0)
(0.910901 -0.136115 0)
(0.596096 -0.179024 0)
(1.76633 0.0352379 0)
(2.31579 0.243582 0)
(-0.236959 -0.0211121 0)
(-0.24023 -0.0219623 0)
(-0.240313 -0.0245202 0)
(-0.229743 -0.0268197 0)
(-0.212084 -0.0307291 0)
(-0.173926 -0.0313872 0)
(-0.130132 -0.0251179 0)
(-0.0982137 -0.0149773 0)
(-0.0873461 -0.00544892 0)
(-0.0967946 0.00723907 0)
(-0.153588 0.00832808 0)
(-0.213603 -0.00250269 0)
(-0.250217 -0.0133186 0)
(-0.264241 -0.0222683 0)
(-0.257802 -0.0308448 0)
(-0.226591 -0.0320981 0)
(-0.196179 -0.0274684 0)
(-0.174066 -0.0195208 0)
(-0.162681 -0.0196519 0)
(-0.132439 -0.0254729 0)
(-0.0863545 -0.023241 0)
(-0.0478606 -0.0084827 0)
(-0.0494697 0.0075048 0)
(-0.0882561 0.00617384 0)
(-0.114934 -0.00234404 0)
(-0.117202 -0.00869222 0)
(-0.11318 -0.00959758 0)
(-0.107326 -0.00317033 0)
(-0.130161 0.00163211 0)
(-0.155767 -0.000833957 0)
(-0.195303 -0.00702906 0)
(-0.226913 -0.00969484 0)
(-0.22375 -0.00366685 0)
(-0.205023 0.000843069 0)
(-0.187795 0.00453029 0)
(-0.245131 0.0157031 0)
(-0.294676 0.0100931 0)
(-0.214924 0.0164601 0)
(-0.189299 0.0358437 0)
(-0.201092 0.0700431 0)
(-0.165558 0.045085 0)
(-0.240264 0.0230955 0)
(-0.250247 -0.00964224 0)
(-0.112972 -0.0169492 0)
(-0.108236 0.0446304 0)
(-0.416777 0.0283103 0)
(-0.0815338 -0.0224031 0)
(0.0591734 0.0541891 0)
(0.0362759 0.0991058 0)
(-0.0328603 0.114161 0)
(-0.0930246 -0.0457825 0)
(0.613408 0.0526594 0)
(0.487068 0.2317 0)
(0.0263664 0.120282 0)
(0.0465982 0.0317837 0)
(0.049988 0.121892 0)
(0.194762 0.0979239 0)
(-0.146233 0.0453414 0)
(0.126252 -0.0139132 0)
(0.132982 0.135229 0)
(-0.280112 0.120577 0)
(-0.0329244 0.00352981 0)
(-0.0278862 0.0995323 0)
(0.363355 0.0322671 0)
(0.107521 -0.00176752 0)
(-0.460809 -0.168378 0)
(-0.308678 -0.150012 0)
(-0.108009 0.0276125 0)
(0.599571 -0.0162604 0)
(0.513759 0.0134136 0)
(0.75141 0.132358 0)
(0.130314 0.181218 0)
(0.0346958 0.0367233 0)
(0.392473 0.0931518 0)
(0.13616 0.0441131 0)
(0.372845 0.0643803 0)
(0.477193 0.0991737 0)
(0.0799226 0.0651139 0)
(0.792045 0.0680926 0)
(1.54754 0.231971 0)
(1.23354 0.24425 0)
(0.753902 0.262977 0)
(0.296641 0.135798 0)
(0.0895297 -0.0261633 0)
(1.08551 0.0344432 0)
(0.837266 0.273916 0)
(0.344587 0.100041 0)
(0.576557 -0.0280858 0)
(0.13935 -0.103051 0)
(0.673153 0.0849604 0)
(0.280007 0.108681 0)
(0.72956 0.202548 0)
(0.667059 0.107464 0)
(0.297789 0.390484 0)
(0.706785 0.173734 0)
(1.18593 0.112438 0)
(1.49913 0.15302 0)
(0.962431 0.0817608 0)
(0.822332 0.0159183 0)
(0.832944 -0.0169505 0)
(0.945736 0.0181868 0)
(0.813967 0.00592712 0)
(0.780208 0.107074 0)
(1.40468 0.292369 0)
(-0.239367 -0.0223754 0)
(-0.243095 -0.0239885 0)
(-0.242573 -0.0275611 0)
(-0.231482 -0.0303443 0)
(-0.214236 -0.0345735 0)
(-0.176697 -0.0361739 0)
(-0.132094 -0.0298898 0)
(-0.0999593 -0.0195066 0)
(-0.0888778 -0.0118883 0)
(-0.0979614 0.00345597 0)
(-0.153149 0.00955918 0)
(-0.213335 -0.00198824 0)
(-0.250344 -0.0157095 0)
(-0.264263 -0.0283143 0)
(-0.258602 -0.0379945 0)
(-0.229067 -0.0404248 0)
(-0.200339 -0.0353892 0)
(-0.179644 -0.0296015 0)
(-0.167198 -0.0315895 0)
(-0.137492 -0.0358609 0)
(-0.0924705 -0.0319396 0)
(-0.0546554 -0.0166363 0)
(-0.0533614 0.00117813 0)
(-0.0914206 0.00337458 0)
(-0.117086 -0.00599243 0)
(-0.117908 -0.0147428 0)
(-0.113716 -0.0165303 0)
(-0.109697 -0.00915119 0)
(-0.132114 -0.00330187 0)
(-0.155789 -0.00449966 0)
(-0.198914 -0.0148958 0)
(-0.232296 -0.0330518 0)
(-0.21857 -0.0444664 0)
(-0.19891 -0.0500232 0)
(-0.191469 -0.048841 0)
(-0.261416 -0.0480342 0)
(-0.292494 -0.0509329 0)
(-0.239533 -0.0690354 0)
(-0.228673 -0.0853897 0)
(-0.197567 -0.100911 0)
(-0.157156 -0.0502366 0)
(-0.231809 -0.017899 0)
(-0.215132 -0.0696234 0)
(-0.118126 -0.071428 0)
(-0.112478 -0.0124144 0)
(-0.362683 -0.101767 0)
(-0.0855525 -0.114625 0)
(0.0516889 -0.0763552 0)
(0.0119395 -0.0495353 0)
(-0.098875 -0.0911076 0)
(-0.235126 -0.11004 0)
(0.781191 -0.210535 0)
(0.547071 0.105277 0)
(0.07388 0.0566377 0)
(0.041601 -0.0550662 0)
(0.0921327 0.0343979 0)
(0.390922 0.137572 0)
(-0.1105 -0.112819 0)
(0.154265 -0.0828042 0)
(0.147937 -0.0406501 0)
(-0.124215 -0.0809302 0)
(-0.0671001 -0.114823 0)
(-0.0730527 -0.146641 0)
(0.340097 0.146801 0)
(-0.028946 0.0515748 0)
(-0.168923 -0.118318 0)
(-0.215717 0.0694451 0)
(0.127417 -0.0417755 0)
(0.934045 -0.117226 0)
(0.537119 -0.0317091 0)
(0.723074 0.0561592 0)
(0.208597 0.0580844 0)
(0.0545601 0.0545161 0)
(0.467347 -0.0274313 0)
(0.174794 -0.147351 0)
(0.518787 -0.0922221 0)
(0.487693 0.0723805 0)
(-0.186805 -0.14743 0)
(0.897595 -0.18564 0)
(1.6213 -0.100434 0)
(1.2544 0.222278 0)
(0.733089 0.214677 0)
(0.135492 0.13718 0)
(0.121475 -0.153001 0)
(1.13029 -0.00300394 0)
(0.912319 0.0886411 0)
(0.434504 0.188602 0)
(0.433799 -0.122103 0)
(0.0441544 -0.176742 0)
(0.733317 0.0479015 0)
(0.178145 0.150343 0)
(1.11942 -0.0248235 0)
(0.747507 0.0299641 0)
(0.282935 0.0404347 0)
(0.462162 0.10188 0)
(0.749622 -0.0807158 0)
(1.15426 -0.0477571 0)
(0.749298 0.00106977 0)
(0.640843 0.0101336 0)
(0.80874 0.0190243 0)
(0.873395 -0.0612114 0)
(1.17611 -0.102473 0)
(0.860282 -0.0839935 0)
(1.35232 -0.0207424 0)
(-0.241983 -0.0211814 0)
(-0.245902 -0.0225358 0)
(-0.245159 -0.0257235 0)
(-0.233831 -0.0287443 0)
(-0.217119 -0.0338774 0)
(-0.180195 -0.0358373 0)
(-0.134936 -0.0292778 0)
(-0.102379 -0.017803 0)
(-0.0908158 -0.00687899 0)
(-0.0995693 0.00887572 0)
(-0.153304 0.0123372 0)
(-0.213481 0.000844557 0)
(-0.250789 -0.0120208 0)
(-0.265667 -0.0227895 0)
(-0.262727 -0.03343 0)
(-0.234474 -0.0361002 0)
(-0.206704 -0.0313986 0)
(-0.186186 -0.0231617 0)
(-0.173797 -0.0236267 0)
(-0.145718 -0.0307221 0)
(-0.101613 -0.0287559 0)
(-0.0639644 -0.0123904 0)
(-0.0592469 0.00748031 0)
(-0.095583 0.00772679 0)
(-0.120178 -0.00203974 0)
(-0.120735 -0.00942136 0)
(-0.116496 -0.0107484 0)
(-0.113765 -0.00343307 0)
(-0.136095 0.00274067 0)
(-0.158772 0.000691116 0)
(-0.20399 -0.00564791 0)
(-0.235449 -0.0116061 0)
(-0.223765 -0.0090617 0)
(-0.205977 -0.00497977 0)
(-0.214569 -0.000325974 0)
(-0.280737 0.00997899 0)
(-0.298821 0.00404475 0)
(-0.240143 0.00489677 0)
(-0.226246 0.0202241 0)
(-0.214251 0.0516007 0)
(-0.187583 0.0347124 0)
(-0.262562 0.0126135 0)
(-0.278186 -0.0492955 0)
(-0.159463 -0.0412785 0)
(-0.0765116 0.0516562 0)
(-0.363809 0.0269039 0)
(-0.125058 -0.0341506 0)
(0.0205492 0.0316969 0)
(0.0380722 0.0805576 0)
(-0.0937044 0.0964788 0)
(-0.229019 -0.220573 0)
(0.623983 0.0462819 0)
(0.510355 0.227851 0)
(0.0231123 0.119041 0)
(0.0373687 -0.00449851 0)
(-0.133953 0.0250397 0)
(0.209521 0.213807 0)
(-0.0401088 0.037047 0)
(0.419301 -0.0112103 0)
(0.0762072 0.124917 0)
(0.413077 0.156292 0)
(-0.0838514 0.0508242 0)
(-0.0724152 0.0843968 0)
(0.32971 0.146232 0)
(0.0448696 0.00770328 0)
(-0.329949 -0.0468549 0)
(-0.178799 -0.0656229 0)
(0.555575 -0.0266784 0)
(0.840694 0.110851 0)
(0.845805 0.0386577 0)
(0.621112 0.157236 0)
(-0.125722 0.180489 0)
(0.0861179 0.0110854 0)
(0.40864 0.0683165 0)
(0.148677 0.0238115 0)