/*--------------------------------*- C++ -*----------------------------------*\
| =========                 |                                                 |
| \\      /  F ield         | OpenFOAM: The Open Source CFD Toolbox           |
|  \\    /   O peration     | Version:  v1912                                 |
|   \\  /    A nd           | Website:  www.openfoam.com                      |
|    \\/     M anipulation  |                                                 |
\*---------------------------------------------------------------------------*/
FoamFile
{
    version     2.0;
    format      ascii;
    class       surfaceScalarField;
    location    "40";
    object      phi;
}
// * * * * * * * * * * * * * * * * * * * * * * * * * * * * * * * * * * * * * //

dimensions      [0 3 -1 0 0 0 0];
oriented        oriented;


internalField   nonuniform List<scalar> 
28285
(
0.000445551
-5.81611e-05
0.00033026
0.000115291
0.000264683
6.55767e-05
0.000264977
-2.93745e-07
0.000264645
3.32633e-07
0.000242511
2.21335e-05
0.000292995
-5.04839e-05
0.000393624
-0.000100629
0.000518623
-0.000124998
0.00060408
-8.54581e-05
0.00065102
-4.69401e-05
0.000745264
-9.42443e-05
0.000887214
-0.00014195
0.00100273
-0.000115512
0.00105144
-4.87093e-05
0.000974888
7.65472e-05
0.000899187
7.5702e-05
0.000898804
3.83038e-07
0.000883956
1.48481e-05
0.000890452
-6.49588e-06
0.000942204
-5.1752e-05
0.000972135
-2.99316e-05
0.000907743
6.4392e-05
0.000772219
0.000135524
0.000654655
0.000117564
0.000601004
5.36509e-05
0.000575243
2.57611e-05
0.000554026
2.1217e-05
0.000497778
5.62476e-05
0.000430707
6.70711e-05
0.000414139
1.65682e-05
0.000441044
-2.69057e-05
0.000496138
-5.50937e-05
0.000588383
-9.22454e-05
0.000697835
-0.000109452
0.000776805
-7.89704e-05
0.000805733
-2.89276e-05
0.000779236
2.64968e-05
0.000705989
7.32471e-05
0.000621198
8.47911e-05
0.000564882
5.63159e-05
0.00052422
4.06621e-05
0.000483502
4.07179e-05
0.000436739
4.67633e-05
0.00038961
4.71294e-05
0.000348132
4.14772e-05
0.000317499
3.06332e-05
0.000310014
7.48501e-06
0.000320966
-1.09522e-05
0.000342342
-2.13757e-05
0.000375375
-3.30327e-05
0.000427457
-5.20829e-05
0.000493854
-6.63964e-05
0.000563017
-6.9163e-05
0.000631322
-6.83047e-05
0.000689501
-5.81794e-05
0.000729269
-3.97681e-05
0.000755265
-2.59959e-05
0.00077135
-1.60848e-05
0.00077918
-7.83049e-06
0.000781069
-1.88829e-06
0.000778003
3.06554e-06
0.000771121
6.88194e-06
0.000760608
1.05127e-05
0.000747604
1.30047e-05
0.000732332
1.52716e-05
0.000714728
1.76044e-05
0.000695254
1.94732e-05
0.000674852
2.04021e-05
0.00065421
2.06427e-05
0.000633527
2.06825e-05
0.000612905
2.06223e-05
0.000592463
2.04417e-05
0.000572301
2.0162e-05
0.000552494
1.98072e-05
0.000533097
1.93967e-05
0.000514151
1.89461e-05
0.000495684
1.84675e-05
0.000477713
1.79706e-05
0.000460249
1.74638e-05
0.000443295
1.69539e-05
0.000426849
1.64464e-05
0.000410909
1.59398e-05
0.000395468
1.54413e-05
0.000380516
1.49522e-05
0.000366043
1.44722e-05
0.000352041
1.40022e-05
0.000338499
1.35426e-05
0.000325405
1.30938e-05
0.000312749
1.2656e-05
0.000300519
1.22295e-05
0.000288705
1.1814e-05
0.000277296
1.14098e-05
0.000266279
1.10165e-05
0.000255645
1.06342e-05
0.000245382
1.02625e-05
0.000235481
9.90171e-06
0.00022593
9.55108e-06
0.000216719
9.21061e-06
0.000207839
8.88005e-06
0.000199279
8.55964e-06
0.000191031
8.2484e-06
0.000183084
7.94695e-06
0.00017543
7.65422e-06
0.000168059
7.37095e-06
0.000160963
7.09592e-06
0.000154133
6.83002e-06
0.000147561
6.57188e-06
0.000141238
6.32255e-06
0.000135158
6.08051e-06
0.000129311
5.84702e-06
0.000123691
5.62029e-06
0.000118289
5.40192e-06
0.000113099
5.1897e-06
0.000108113
4.98578e-06
0.000103326
4.78734e-06
9.87285e-05
4.59717e-06
9.43169e-05
4.41183e-06
9.0082e-05
4.23465e-06
8.60204e-05
4.06185e-06
8.21233e-05
3.89683e-06
7.83876e-05
3.73611e-06
7.48047e-05
3.58237e-06
7.1372e-05
3.4333e-06
6.80813e-05
3.29003e-06
6.49298e-05
3.15215e-06
6.19106e-05
3.01859e-06
5.902e-05
2.89124e-06
5.62524e-05
2.76698e-06
5.36035e-05
2.64938e-06
5.10691e-05
2.53411e-06
4.86439e-05
2.42534e-06
4.63251e-05
2.31887e-06
4.41068e-05
2.21804e-06
4.19871e-05
2.12011e-06
3.99601e-05
2.02653e-06
3.80239e-05
1.93666e-06
3.61735e-05
1.84991e-06
3.44065e-05
1.76745e-06
3.27188e-05
1.6873e-06
3.11076e-05
1.61148e-06
2.95697e-05
1.53776e-06
2.81018e-05
1.46791e-06
2.67016e-05
1.40032e-06
2.53654e-05
1.33609e-06
2.40909e-05
1.27461e-06
2.28745e-05
1.21624e-06
2.17125e-05
1.16209e-06
2.06032e-05
1.1092e-06
1.03338e-06
1.95699e-05
0.000541008
-0.000115263
0.00042899
0.000227309
0.000353015
0.000141551
0.000345181
7.5409e-06
0.000336246
9.26671e-06
0.000287602
7.07781e-05
0.000323856
-8.67378e-05
0.000426424
-0.000203198
0.000550361
-0.000248935
0.000632648
-0.000167744
0.000685503
-9.97936e-05
0.000808512
-0.000217253
0.000978601
-0.000312039
0.00107694
-0.000213851
0.00110565
-7.74157e-05
0.0010855
9.66963e-05
0.00101845
0.000142743
0.000934315
8.45225e-05
0.00089662
5.25432e-05
0.000963142
-7.30175e-05
0.00103797
-0.000126582
0.00107866
-7.06159e-05
0.00111191
3.11386e-05
0.00112502
0.000122418
0.00109117
0.00015141
0.00104687
9.79543e-05
0.00101307
5.95588e-05
0.000978907
5.53788e-05
0.000926469
0.000108685
0.000874341
0.000119199
0.000845471
4.54384e-05
0.000852818
-3.42526e-05
0.000895243
-9.75183e-05
0.000952537
-0.00014954
0.00101275
-0.000169667
0.00106045
-0.000126667
0.00107856
-4.70422e-05
0.00104661
5.84503e-05
0.000964548
0.00015531
0.00086446
0.000184879
0.00079666
0.000124116
0.0007556
8.17217e-05
0.000712585
8.37333e-05
0.000649678
0.00010967
0.000576859
0.000119948
0.000515512
0.000102824
0.00047519
7.0955e-05
0.000460366
2.23094e-05
0.000464002
-1.45889e-05
0.000474138
-3.15115e-05
0.000487165
-4.60598e-05
0.000514217
-7.91342e-05
0.000561078
-0.000113258
0.000612756
-0.000120841
0.00065913
-0.000114679
0.000696569
-9.56186e-05
0.000726204
-6.94026e-05
0.000750794
-5.05863e-05
0.000768306
-3.35964e-05
0.000777569
-1.70941e-05
0.000780126
-4.44537e-06
0.000777457
5.73513e-06
0.000770927
1.34113e-05
0.000760509
2.09309e-05
0.000747356
2.61578e-05
0.000731884
3.07437e-05
0.000714165
3.53236e-05
0.000694668
3.89702e-05
0.00067427
4.08e-05
0.000653622
4.12903e-05
0.000632931
4.13742e-05
0.000612301
4.12514e-05
0.000591856
4.08871e-05
0.000571693
4.03248e-05
0.000551888
3.96124e-05
0.000532496
3.87892e-05
0.000513556
3.78861e-05
0.000495096
3.6927e-05
0.000477134
3.59322e-05
0.000459681
3.49177e-05
0.000442738
3.3897e-05
0.000426303
3.28814e-05
0.000410375
3.18676e-05
0.000394946
3.08701e-05
0.000380006
2.98916e-05
0.000365547
2.89314e-05
0.000351558
2.79912e-05
0.000338029
2.70719e-05
0.000324948
2.61744e-05
0.000312305
2.52989e-05
0.000300089
2.44457e-05
0.000288288
2.3615e-05
0.000276891
2.28066e-05
0.000265888
2.20202e-05
0.000255266
2.12558e-05
0.000245016
2.05127e-05
0.000235126
1.97912e-05
0.000225587
1.90903e-05
0.000216388
1.84094e-05
0.00020752
1.77487e-05
0.000198971
1.71079e-05
0.000190734
1.64859e-05
0.000182798
1.5883e-05
0.000175154
1.52981e-05
0.000167793
1.47316e-05
0.000160707
1.41821e-05
0.000153887
1.36502e-05
0.000147324
1.31346e-05
0.000141011
1.26358e-05
0.000134939
1.21524e-05
0.000129101
1.16852e-05
0.000123489
1.12325e-05
0.000118095
1.07955e-05
0.000112913
1.0372e-05
0.000107935
9.96361e-06
0.000103155
9.56783e-06
9.85647e-05
9.18678e-06
9.41598e-05
8.81736e-06
8.99316e-05
8.46218e-06
8.58763e-05
8.11787e-06
8.19853e-05
7.78706e-06
7.82555e-05
7.46671e-06
7.46783e-05
7.15876e-06
7.12511e-05
6.86128e-06
6.79657e-05
6.57477e-06
6.48193e-05
6.29907e-06
6.18049e-05
6.03259e-06
5.8919e-05
5.77735e-06
5.6156e-05
5.52997e-06
5.35114e-05
5.29384e-06
5.09812e-05
5.06464e-06
4.85599e-05
4.84614e-06
4.6245e-05
4.63434e-06
4.40304e-05
4.43207e-06
4.19142e-05
4.23685e-06
3.98906e-05
4.04963e-06
3.79577e-05
3.86998e-06
3.61104e-05
3.69691e-06
3.43464e-05
3.53165e-06
3.26616e-05
3.37204e-06
3.1053e-05
3.21996e-06
2.95178e-05
3.07314e-06
2.80524e-05
2.93313e-06
2.66545e-05
2.79839e-06
2.53206e-05
2.66983e-06
2.40483e-05
2.54707e-06
2.2834e-05
2.4304e-06
2.1674e-05
2.32223e-06
2.05667e-05
2.21637e-06
2.06518e-06
1.9535e-05
0.000374351
-0.000125261
0.000290584
0.000311076
0.000288942
0.000143193
0.000336731
-4.0248e-05
0.000342113
3.88377e-06
0.000287183
0.000125709
0.000305493
-0.000105049
0.00040514
-0.000302845
0.000533934
-0.00037773
0.000626401
-0.000260215
0.000677161
-0.000150555
0.000776125
-0.000316218
0.000923943
-0.000459855
0.00102871
-0.000318614
0.00109832
-0.000147026
0.00119402
9.98439e-07
0.00124248
9.42811e-05
0.00112927
0.000197735
0.000988165
0.000193646
0.000961318
-4.61708e-05
0.0010264
-0.000191659
0.00116706
-0.000211281
0.00132724
-0.000129041
0.0013978
5.1856e-05
0.00137989
0.000169324
0.0013338
0.000144038
0.00130014
9.32197e-05
0.00128893
6.65951e-05
0.0012734
0.000124213
0.00123913
0.000153465
0.0011936
9.09713e-05
0.00117014
-1.07952e-05
0.00115547
-8.28498e-05
0.00112549
-0.000119555
0.00110993
-0.000154106
0.00112055
-0.000137288
0.00114802
-7.45145e-05
0.00116187
4.46064e-05
0.00113981
0.000177365
0.00108248
0.000242204
0.000999442
0.000207159
0.000907325
0.000173839
0.000806184
0.000184874
0.000690273
0.000225581
0.00057877
0.000231451
0.000497094
0.000184501
0.000451332
0.000116717
0.000438309
3.53321e-05
0.000449073
-2.53528e-05
0.000470991
-5.34295e-05
0.000493414
-6.84831e-05
0.00052062
-0.00010634
0.000562223
-0.000154861
0.000609051
-0.000167669
0.000652983
-0.000158611
0.000691947
-0.000134582
0.00072453
-0.000101986
0.000749088
-7.51441e-05
0.000765964
-5.04728e-05
0.000775676
-2.68059e-05
0.000778748
-7.51713e-06
0.000776485
7.99826e-06
0.000770362
1.95337e-05
0.000760131
3.11622e-05
0.00074691
3.93789e-05
0.000731275
4.63782e-05
0.000713456
5.31434e-05
0.000693954
5.84722e-05
0.000673589
6.11646e-05
0.000652965
6.19139e-05
0.000632289
6.20502e-05
0.000611677
6.18639e-05
0.00059125
6.13141e-05
0.000571106
6.0468e-05
0.000551321
5.93976e-05
0.000531949
5.81617e-05
0.000513029
5.68061e-05
0.000494589
5.53671e-05
0.000476646
5.38746e-05
0.000459211
5.23527e-05
0.000442287
5.08217e-05
0.000425869
4.92985e-05
0.000409959
4.77781e-05
0.000394547
4.62823e-05
0.000379624
4.48149e-05
0.00036518
4.3375e-05
0.000351206
4.19652e-05
0.000337691
4.05868e-05
0.000324624
3.9241e-05
0.000311995
3.79283e-05
0.000299791
3.66491e-05
0.000288003
3.54035e-05
0.000276618
3.41914e-05
0.000265626
3.30124e-05
0.000255015
3.18663e-05
0.000244776
3.07523e-05
0.000234896
2.96704e-05
0.000225367
2.86197e-05
0.000216178
2.75988e-05
0.000207318
2.66084e-05
0.000198778
2.56476e-05
0.000190549
2.47152e-05
0.000182621
2.38112e-05
0.000174985
2.29344e-05
0.000167631
2.20848e-05
0.000160553
2.12612e-05
0.000153739
2.04636e-05
0.000147183
1.96908e-05
0.000140876
1.89428e-05
0.00013481
1.82183e-05
0.000128977
1.75177e-05
0.000123371
1.68393e-05
0.000117982
1.61838e-05
0.000112805
1.55492e-05
0.000107832
1.49366e-05
0.000103057
1.43437e-05
9.84708e-05
1.3772e-05
9.40701e-05
1.32187e-05
8.98459e-05
1.26856e-05
8.57946e-05
1.217e-05
8.19073e-05
1.16736e-05
7.81811e-05
1.11937e-05
7.46073e-05
1.07317e-05
7.11833e-05
1.0286e-05
6.79011e-05
9.85638e-06
6.47577e-05
9.443e-06
6.17461e-05
9.04373e-06
5.8863e-05
8.66073e-06
5.61026e-05
8.29034e-06
5.34605e-05
7.93581e-06
5.09326e-05
7.59277e-06
4.85137e-05
7.26466e-06
4.62009e-05
6.94763e-06
4.39884e-05
6.64402e-06
4.18742e-05
6.3516e-06
3.98525e-05
6.07084e-06
3.79214e-05
5.80148e-06
3.60758e-05
5.54218e-06
3.43135e-05
5.2942e-06
3.26303e-05
5.05519e-06
3.10233e-05
4.82693e-06
2.94894e-05
4.60708e-06
2.80254e-05
4.39697e-06
2.66288e-05
4.19514e-06
2.52962e-05
4.00232e-06
2.40251e-05
3.81835e-06
2.28119e-05
3.64342e-06
2.1653e-05
3.48128e-06
2.05468e-05
3.32247e-06
3.09597e-06
1.9516e-05
0.000689016
-0.000297067
0.000619086
0.000381006
0.000409459
0.00035282
0.000323935
4.52765e-05
0.000313317
1.45019e-05
0.000267293
0.000171732
0.000320471
-0.000158226
0.000437067
-0.000419441
0.000552801
-0.000493463
0.00062061
-0.00032802
0.000667377
-0.000197321
0.000788988
-0.000437826
0.000950802
-0.000621674
0.0010459
-0.000413715
0.00109359
-0.000194716
0.00116287
-6.82797e-05
0.00122992
2.72318e-05
0.00119766
0.000229994
0.00106841
0.000322891
0.00100112
2.1117e-05
0.00102872
-0.000219254
0.0010704
-0.000252959
0.00113764
-0.000196286
0.00125602
-6.65202e-05
0.0014012
2.41456e-05
0.00149256
5.2669e-05
0.00150797
7.78153e-05
0.00149154
8.3026e-05
0.00145471
0.000161045
0.0013889
0.000219267
0.00132475
0.000155128
0.00129107
2.28845e-05
0.00124787
-3.9656e-05
0.00116669
-3.83713e-05
0.00110834
-9.57533e-05
0.00110595
-0.000134898
0.0011337
-0.000102262
0.00116274
1.55663e-05
0.00116489
0.000175207
0.00113255
0.000274551
0.00106444
0.000275268
0.000965462
0.000272814
0.000840844
0.000309492
0.000703551
0.000362874
0.000586631
0.000348371
0.000507242
0.00026389
0.000461609
0.00016235
0.000445546
5.13945e-05
0.000451203
-3.10098e-05
0.000468985
-7.12116e-05
0.000492261
-9.17586e-05
0.000522191
-0.000136271
0.000563779
-0.000196448
0.000609206
-0.000213096
0.000651395
-0.0002008
0.000689647
-0.000172834
0.000722856
-0.000135195
0.000748088
-0.000100375
0.000764795
-6.71801e-05
0.000774281
-3.62918e-05
0.000777535
-1.07716e-05
0.000775524
1.00098e-05
0.000769687
2.53698e-05
0.000759633
4.12164e-05
0.000746408
5.26036e-05
0.000730682
6.2105e-05
0.000712803
7.10225e-05
0.000693316
7.79589e-05
0.000673001
8.14798e-05
0.000652417
8.24972e-05
0.000631771
8.26968e-05
0.000611185
8.24499e-05
0.000590783
8.17161e-05
0.000570663
8.05875e-05
0.000550901
7.91603e-05
0.00053155
7.75127e-05
0.00051265
7.57058e-05
0.000494229
7.37881e-05
0.000476305
7.17987e-05
0.000458887
6.97704e-05
0.000441979
6.77302e-05
0.000425577
6.57003e-05
0.000409681
6.36741e-05
0.000394282
6.16807e-05
0.000379372
5.97252e-05
0.000364941
5.78064e-05
0.000350978
5.59277e-05
0.000337474
5.40908e-05
0.000324418
5.22972e-05
0.000311798
5.05479e-05
0.000299604
4.88432e-05
0.000287825
4.71832e-05
0.000276448
4.55679e-05
0.000265464
4.39967e-05
0.000254861
4.24692e-05
0.000244629
4.09847e-05
0.000234756
3.95428e-05
0.000225233
3.81425e-05
0.00021605
3.6782e-05
0.000207196
3.54621e-05
0.000198662
3.41816e-05
0.000190439
3.2939e-05
0.000182515
3.17342e-05
0.000174884
3.05658e-05
0.000167535
2.94334e-05
0.000160461
2.83359e-05
0.000153651
2.72728e-05
0.000147099
2.6243e-05
0.000140796
2.5246e-05
0.000134734
2.42806e-05
0.000128905
2.33467e-05
0.000123302
2.24427e-05
0.000117916
2.15689e-05
0.000112742
2.07234e-05
0.000107772
1.99067e-05
0.000102999
1.91168e-05
9.8416e-05
1.83545e-05
9.40179e-05
1.76174e-05
8.97961e-05
1.69067e-05
8.57471e-05
1.62198e-05
8.18619e-05
1.55579e-05
7.81378e-05
1.49187e-05
7.4566e-05
1.43027e-05
7.1144e-05
1.37088e-05
6.78635e-05
1.31362e-05
6.47219e-05
1.25852e-05
6.1712e-05
1.20532e-05
5.88304e-05
1.15425e-05
5.60715e-05
1.10492e-05
5.34308e-05
1.05763e-05
5.09044e-05
1.01195e-05
4.84867e-05
9.68186e-06
4.61752e-05
9.25966e-06
4.39639e-05
8.85478e-06
4.18509e-05
8.46521e-06
3.98302e-05
8.09096e-06
3.79002e-05
7.73194e-06
3.60556e-05
7.38645e-06
3.42942e-05
7.05581e-06
3.26119e-05
6.73744e-06
3.10057e-05
6.43305e-06
2.94727e-05
6.14021e-06
2.80095e-05
5.86004e-06
2.66137e-05
5.59115e-06
2.52817e-05
5.33409e-06
2.40113e-05
5.08895e-06
2.27987e-05
4.8558e-06
2.16404e-05
4.63974e-06
2.05348e-05
4.42795e-06
4.12616e-06
1.95047e-05
0.000856644
-0.000667538
0.000866937
0.000370713
0.00056471
0.000655047
0.000365077
0.00024491
0.000337854
4.17248e-05
0.000313879
0.000195707
0.000346577
-0.000190925
0.000458419
-0.000531283
0.000610237
-0.000645281
0.00068841
-0.000406192
0.000707527
-0.000216437
0.000799662
-0.000529964
0.000958173
-0.000780179
0.0010705
-0.000526037
0.00112905
-0.000253277
0.00119005
-0.000129276
0.00125519
-3.79028e-05
0.00131888
0.000166305
0.00139193
0.000249842
0.00146562
-5.25768e-05
0.00148523
-0.000238864
0.00145008
-0.000217804
0.0014476
-0.000193811
0.00151834
-0.000137263
0.00162414
-8.16473e-05
0.00168398
-7.18012e-06
0.00167559
8.62057e-05
0.00162785
0.000130768
0.00153641
0.000252484
0.0014187
0.000336976
0.00132608
0.000247754
0.00127927
6.9696e-05
0.00123187
7.73818e-06
0.00115718
3.63195e-05
0.00110599
-4.45667e-05
0.00110573
-0.000134637
0.00113414
-0.000130672
0.00116283
-1.31161e-05
0.00116463
0.000173406
0.00113386
0.000305314
0.0010677
0.000341429
0.000968693
0.000371824
0.000839606
0.00043858
0.000698186
0.000504294
0.00057926
0.000467297
0.000496638
0.000346513
0.000447396
0.000211592
0.000429551
6.92394e-05
0.000437184
-3.86425e-05
0.000462816
-9.68439e-05
0.00049761
-0.000126552
0.000532766
-0.000171427
0.000570546
-0.000234228
0.000610847
-0.000253397
0.00065035
-0.000240303
0.000687669
-0.000210153
0.000720776
-0.000168303
0.000746572
-0.000126171
0.000764128
-8.47365e-05
0.000773764
-4.59273e-05
0.000776944
-1.39517e-05
0.000774965
1.19888e-05
0.000769178
3.11567e-05
0.000759161
5.12329e-05
0.000745924
6.58414e-05
0.000730161
7.78672e-05
0.000712275
8.89085e-05
0.000692823
9.74115e-05
0.000672552
0.00010175
0.000652002
0.000103047
0.000631383
0.000103317
0.000610821
0.000103012
0.000590441
0.000102096
0.000570343
0.000100686
0.000550599
9.89036e-05
0.000531266
9.68457e-05
0.000512383
9.4589e-05
0.000493978
9.21933e-05
0.000476068
8.97084e-05
0.000458664
8.71748e-05
0.000441768
8.46262e-05
0.000425378
8.20905e-05
0.000409493
7.95593e-05
0.000394104
7.70691e-05
0.000379203
7.46262e-05
0.000364781
7.2229e-05
0.000350827
6.98818e-05
0.00033733
6.7587e-05
0.000324281
6.53462e-05
0.000311669
6.31606e-05
0.000299481
6.10308e-05
0.000287707
5.89569e-05
0.000276337
5.69386e-05
0.000265358
5.49755e-05
0.00025476
5.30671e-05
0.000244532
5.12123e-05
0.000234665
4.94107e-05
0.000225146
4.76611e-05
0.000215967
4.5961e-05
0.000207117
4.43119e-05
0.000198587
4.27119e-05
0.000190366
4.11594e-05
0.000182447
3.96539e-05
0.000174819
3.8194e-05
0.000167473
3.67791e-05
0.000160401
3.54078e-05
0.000153594
3.40793e-05
0.000147045
3.27926e-05
0.000140744
3.15467e-05
0.000134684
3.03405e-05
0.000128857
2.91734e-05
0.000123256
2.8044e-05
0.000117873
2.6952e-05
0.000112701
2.58956e-05
0.000107732
2.4875e-05
0.000102962
2.38881e-05
9.83801e-05
2.29354e-05
9.39836e-05
2.20146e-05
8.97633e-05
2.11263e-05
8.57158e-05
2.02682e-05
8.1832e-05
1.94408e-05
7.81092e-05
1.86423e-05
7.45387e-05
1.78724e-05
7.11179e-05
1.71304e-05
6.78386e-05
1.64148e-05
6.4698e-05
1.57263e-05
6.16892e-05
1.50616e-05
5.88086e-05
1.44233e-05
5.60507e-05
1.38071e-05
5.3411e-05
1.32159e-05
5.08854e-05
1.26454e-05
4.84686e-05
1.20982e-05
4.61579e-05
1.15709e-05
4.39473e-05
1.10648e-05
4.1835e-05
1.05781e-05
3.98151e-05
1.01104e-05
3.78857e-05
9.66173e-06
3.60418e-05
9.23009e-06
3.42809e-05
8.81681e-06
3.25992e-05
8.41911e-06
3.09936e-05
8.0386e-06
2.94611e-05
7.6728e-06
2.79984e-05
7.3226e-06
2.6603e-05
6.98668e-06
2.52715e-05
6.66542e-06
2.40015e-05
6.35911e-06
2.27894e-05
6.06777e-06
2.16315e-05
5.79781e-06
2.05263e-05
5.53303e-06
5.15595e-06
1.94966e-05
0.000911146
-0.000991306
0.00091126
0.0003706
0.000650012
0.000916294
0.000450389
0.000444534
0.000370758
0.000121356
0.000356521
0.000209944
0.00040221
-0.000236614
0.000493656
-0.000622728
0.000608901
-0.000760527
0.000700095
-0.000497391
0.000753715
-0.000270058
0.000822486
-0.000598737
0.000934054
-0.000891748
0.00102603
-0.000618008
0.00109514
-0.000322373
0.00117748
-0.000211622
0.00125873
-0.000119152
0.00133586
8.91699e-05
0.00143391
0.000151793
0.00154434
-0.000163009
0.00163176
-0.000326283
0.00169452
-0.000280561
0.0017786
-0.000277895
0.00187403
-0.000232684
0.00191808
-0.000125699
0.00189887
1.20252e-05
0.00182604
0.000159034
0.00170015
0.000256664
0.001554
0.000398634
0.00142486
0.000466112
0.00134163
0.000330984
0.00129873
0.000112597
0.00124792
5.85458e-05
0.00116651
0.000117733
0.00110895
1.29933e-05
0.00110632
-0.000132007
0.0011339
-0.000158249
0.00116257
-4.17859e-05
0.00116494
0.000171036
0.00113371
0.000336539
0.00106547
0.000409675
0.00096334
0.000473949
0.00083215
0.00056977
0.000691752
0.000644691
0.000573976
0.000585073
0.000491368
0.00042912
0.000442131
0.00026083
0.00042448
8.689e-05
0.000434239
-4.84013e-05
0.000465371
-0.000127976
0.000504417
-0.000165599
0.000538623
-0.000205633
0.000572738
-0.000268344
0.000610242
-0.000290901
0.000648762
-0.000278822
0.000685891
-0.000247282
0.000719031
-0.000201443
0.000745261
-0.0001524
0.000763298
-0.000102773
0.000773431
-5.60607e-05
0.000776723
-1.72439e-05
0.00077471
1.40017e-05
0.000768894
3.69726e-05
0.000758816
6.13111e-05
0.000745514
7.91439e-05
0.00072972
9.36611e-05
0.000711854
0.000106774
0.00069245
0.000116815
0.000672219
0.000121981
0.000651694
0.000123572
0.000631096
0.000123915
0.000610554
0.000123554
0.000590192
0.000122457
0.00057011
0.000120768
0.000550381
0.000118632
0.000531062
0.000116165
0.000512192
0.000113459
0.000493798
0.000110587
0.000475899
0.000107607
0.000458505
0.000104569
0.000441618
0.000101513
0.000425236
9.84723e-05
0.000409358
9.54367e-05
0.000393977
9.24502e-05
0.000379083
8.95204e-05
0.000364667
8.66454e-05
0.000350718
8.38302e-05
0.000337228
8.10777e-05
0.000324184
7.839e-05
0.000311576
7.57685e-05
0.000299393
7.32139e-05
0.000287623
7.07262e-05
0.000276257
6.83054e-05
0.000265282
6.59506e-05
0.000254687
6.36614e-05
0.000244463
6.14365e-05
0.000234598
5.92753e-05
0.000225083
5.71766e-05
0.000215907
5.51373e-05
0.00020706
5.31591e-05
0.000198532
5.12396e-05
0.000190314
4.93773e-05
0.000182396
4.75712e-05
0.00017477
4.582e-05
0.000167427
4.41226e-05
0.000160357
4.24776e-05
0.000153552
4.08839e-05
0.000147005
3.93403e-05
0.000140706
3.78456e-05
0.000134648
3.63988e-05
0.000128822
3.49986e-05
0.000123223
3.36438e-05
0.000117841
3.23336e-05
0.00011267
3.10665e-05
0.000107703
2.98419e-05
0.000102933
2.86582e-05
9.83529e-05
2.75151e-05
9.39575e-05
2.64106e-05
8.97384e-05
2.53447e-05
8.56918e-05
2.43155e-05
8.18091e-05
2.33227e-05
7.80873e-05
2.23649e-05
7.45177e-05
2.14412e-05
7.10977e-05
2.05511e-05
6.78193e-05
1.96926e-05
6.46795e-05
1.88666e-05
6.16715e-05
1.80693e-05
5.87916e-05
1.73034e-05
5.60344e-05
1.65643e-05
5.33953e-05
1.58549e-05
5.08704e-05
1.51706e-05
4.84542e-05
1.4514e-05
4.61441e-05
1.38815e-05
4.39341e-05
1.32742e-05
4.18223e-05
1.26904e-05
3.9803e-05
1.21293e-05
3.78741e-05
1.1591e-05
3.60306e-05
1.10733e-05
3.42702e-05
1.05774e-05
3.25889e-05
1.01004e-05
3.09838e-05
9.64375e-06
2.94517e-05
9.205e-06
2.79893e-05
8.78479e-06
2.65943e-05
8.38185e-06
2.52632e-05
7.99639e-06
2.39935e-05
7.62894e-06
2.27817e-05
7.27944e-06
2.1624e-05
6.9556e-06
2.05192e-05
6.63779e-06
6.18543e-06
1.94898e-05
0.000939967
-0.00126773
0.000982255
0.000328312
0.00071701
0.00118154
0.000522322
0.000639221
0.00046682
0.000176858
0.000327191
0.000349574
0.000272911
-0.000182336
0.000399849
-0.000749666
0.000589578
-0.000950255
0.00072545
-0.00063326
0.000781488
-0.000326095
0.000887848
-0.000705093
0.000999784
-0.00100369
0.00106477
-0.000683015
0.00113947
-0.000397084
0.00121919
-0.000291342
0.00129301
-0.000192972
0.00137785
4.33623e-06
0.0014828
4.6846e-05
0.0015858
-0.000266018
0.00167082
-0.000411295
0.00175092
-0.000360665
0.00186382
-0.000390795
0.00197322
-0.000342085
0.00200341
-0.00015589
0.00195954
5.58987e-05
0.00185871
0.000259857
0.0017054
0.000409983
0.00154343
0.000560602
0.00141828
0.000591264
0.00134544
0.000403823
0.0013079
0.000150134
0.00125692
0.000109526
0.00117418
0.000200472
0.001115
7.21739e-05
0.00111042
-0.000127422
0.00113611
-0.000183939
0.00116344
-6.91176e-05
0.0011659
0.000168577
0.00113482
0.000367621
0.00106579
0.000478699
0.000961516
0.000578226
0.000826882
0.000704403
0.00068421
0.000787364
0.00056616
0.000703122
0.000480598
0.000514683
0.000425939
0.000315489
0.000405479
0.00010735
0.000417075
-5.99982e-05
0.0004536
-0.0001645
0.000499564
-0.000211563
0.000538558
-0.000244627
0.00057406
-0.000303846
0.000611064
-0.000327906
0.00064843
-0.000316188
0.00068477
-0.000283622
0.000717545
-0.000234218
0.00074375
-0.000178604
0.000761904
-0.000120928
0.000772317
-6.64736e-05
0.000775974
-2.09013e-05
0.000774234
1.5742e-05
0.000768644
4.25623e-05
0.000758661
7.12942e-05
0.000745301
9.25037e-05
0.000729417
0.000109546
0.000711523
0.000124669
0.000692153
0.000136185
0.000671962
0.000142172
0.000651461
0.000144074
0.000630879
0.000144496
0.000610352
0.000144081
0.000590004
0.000142806
0.000569933
0.000140839
0.000550216
0.000138349
0.000530907
0.000135474
0.000512046
0.00013232
0.00049366
0.000128972
0.000475769
0.000125499
0.000458382
0.000121957
0.000441501
0.000118393
0.000425126
0.000114848
0.000409254
0.000111308
0.000393878
0.000107826
0.000378989
0.00010441
0.000364577
0.000101057
0.000350633
9.77742e-05
0.000337146
9.45644e-05
0.000324106
9.14301e-05
0.000311502
8.83729e-05
0.000299322
8.53936e-05
0.000287556
8.24925e-05
0.000276192
7.96691e-05
0.00026522
7.69229e-05
0.000254628
7.4253e-05
0.000244406
7.16581e-05
0.000234544
6.91376e-05
0.000225031
6.66899e-05
0.000215857
6.43113e-05
0.000207012
6.20042e-05
0.000198486
5.97654e-05
0.00019027
5.75934e-05
0.000182354
5.54868e-05
0.00017473
5.34443e-05
0.000167388
5.14645e-05
0.00016032
4.95459e-05
0.000153517
4.7687e-05
0.000146971
4.58867e-05
0.000140673
4.41432e-05
0.000134616
4.24557e-05
0.000128792
4.08225e-05
0.000123194
3.92424e-05
0.000117813
3.77141e-05
0.000112643
3.62363e-05
0.000107677
3.48078e-05
0.000102909
3.34273e-05
9.83292e-05
3.20937e-05
9.39348e-05
3.08057e-05
8.97166e-05
2.95622e-05
8.56709e-05
2.83619e-05
8.1789e-05
2.72038e-05
7.8068e-05
2.60868e-05
7.44992e-05
2.50092e-05
7.108e-05
2.39711e-05
6.78022e-05
2.29697e-05
6.46631e-05
2.20062e-05
6.16558e-05
2.10763e-05
5.87765e-05
2.01828e-05
5.60199e-05
1.93209e-05
5.33814e-05
1.84932e-05
5.08571e-05
1.76953e-05
4.84414e-05
1.69292e-05
4.61318e-05
1.61917e-05
4.39223e-05
1.54831e-05
4.1811e-05
1.48023e-05
3.9792e-05
1.41477e-05
3.78636e-05
1.35199e-05
3.60205e-05
1.2916e-05
3.42605e-05
1.23375e-05
3.25796e-05
1.17812e-05
3.09748e-05
1.12485e-05
2.9443e-05
1.07369e-05
2.7981e-05
1.02466e-05
2.65863e-05
9.7767e-06
2.52555e-05
9.32707e-06
2.39861e-05
8.89849e-06
2.27746e-05
8.49082e-06
2.16172e-05
8.11314e-06
2.05126e-05
7.74227e-06
7.21461e-06
1.94835e-05
0.000921619
-0.0015014
0.000933278
0.000316654
0.000728716
0.0013861
0.000578642
0.000789296
0.00047272
0.000282779
0.000339977
0.000482317
0.000365175
-0.000207533
0.000490522
-0.000875013
0.000595394
-0.00105513
0.00067603
-0.000713899
0.00073337
-0.000383435
0.000838974
-0.000810702
0.000989887
-0.00115459
0.00106341
-0.000756515
0.00111557
-0.000449237
0.00122485
-0.000400624
0.00133985
-0.000307969
0.00141684
-7.26575e-05
0.00146899
-5.30465e-06
0.00153728
-0.000334308
0.00162837
-0.000502386
0.00173886
-0.000471154
0.00187992
-0.000531852
0.001999
-0.000461165
0.00202451
-0.000181398
0.00197194
0.000108465
0.00186513
0.00036667
0.00170552
0.000569594
0.00153343
0.000732686
0.00140587
0.000718827
0.00133729
0.0004724
0.00130563
0.000181794
0.00126571
0.000149454
0.00118624
0.000279933
0.00111982
0.000138594
0.00111284
-0.00012044
0.00114073
-0.00021183
0.0011672
-9.55868e-05
0.00116788
0.000167903
0.00113597
0.000399528
0.00106588
0.000548789
0.000960427
0.000683677
0.000823216
0.000841615
0.000677633
0.000932946
0.000557204
0.000823551
0.000468637
0.00060325
0.000412844
0.000371281
0.000393644
0.00012655
0.000407127
-7.3481e-05
0.000446262
-0.000203634
0.000497037
-0.000262338
0.000541228
-0.000288818
0.00057848
-0.000341098
0.000614539
-0.000363965
0.00065001
-0.000351659
0.000684607
-0.00031822
0.00071644
-0.000266051
0.000742428
-0.000204593
0.000760751
-0.000139251
0.000771405
-7.71281e-05
0.000775312
-2.48078e-05
0.00077379
1.72634e-05
0.000768426
4.79263e-05
0.000758578
8.11421e-05
0.000745198
0.000105884
0.000729221
0.000125522
0.000711273
0.000142617
0.000691915
0.000155543
0.000671758
0.000162329
0.000651278
0.000164554
0.00063071
0.000165064
0.000610193
0.000164598
0.000589854
0.000163144
0.000569793
0.0001609
0.000550084
0.000158059
0.000530782
0.000154776
0.000511927
0.000151175
0.000493548
0.000147351
0.000475663
0.000143384
0.000458281
0.000139339
0.000441405
0.000135269
0.000425034
0.000131219
0.000409167
0.000127176
0.000393795
0.000123198
0.000378909
0.000119295
0.000364501
0.000115465
0.00035056
0.000111715
0.000337077
0.000108048
0.000324039
0.000104467
0.000311438
0.000100975
0.000299261
9.75708e-05
0.000287497
9.42562e-05
0.000276135
9.10305e-05
0.000265165
8.78929e-05
0.000254576
8.48424e-05
0.000244356
8.18778e-05
0.000234496
7.89979e-05
0.000224985
7.62013e-05
0.000215812
7.34836e-05
0.000206969
7.08475e-05
0.000198445
6.82895e-05
0.000190231
6.58078e-05
0.000182316
6.34008e-05
0.000174694
6.10672e-05
0.000167353
5.88049e-05
0.000160286
5.66128e-05
0.000153484
5.44888e-05
0.000146939
5.24318e-05
0.000140643
5.04396e-05
0.000134587
4.85115e-05
0.000128764
4.66453e-05
0.000123167
4.48399e-05
0.000117787
4.30935e-05
0.000112619
4.1405e-05
0.000107653
3.97727e-05
0.000102886
3.81954e-05
9.83074e-05
3.66715e-05
9.39139e-05
3.51999e-05
8.96964e-05
3.37789e-05
8.56515e-05
3.24076e-05
8.17704e-05
3.10841e-05
7.80501e-05
2.98079e-05
7.4482e-05
2.85766e-05
7.10634e-05
2.73904e-05
6.77863e-05
2.62461e-05
6.46479e-05
2.51451e-05
6.16411e-05
2.40827e-05
5.87624e-05
2.30616e-05
5.60064e-05
2.20769e-05
5.33684e-05
2.1131e-05
5.08445e-05
2.02195e-05
4.84294e-05
1.93439e-05
4.61202e-05
1.85013e-05
4.39112e-05
1.76916e-05
4.18003e-05
1.69137e-05
3.97818e-05
1.61658e-05
3.78537e-05
1.54484e-05
3.6011e-05
1.47584e-05
3.42514e-05
1.40973e-05
3.25708e-05
1.34617e-05
3.09663e-05
1.2853e-05
2.94349e-05
1.22684e-05
2.79732e-05
1.17082e-05
2.65788e-05
1.11713e-05
2.52482e-05
1.06575e-05
2.39791e-05
1.01678e-05
2.27679e-05
9.70196e-06
2.16107e-05
9.27045e-06
2.05064e-05
8.84649e-06
8.24351e-06
1.94775e-05
0.000943252
-0.00175376
0.000918263
0.000341642
0.000668931
0.00163543
0.000508623
0.000949604
0.0004452
0.000346202
0.000406742
0.000520776
0.000476639
-0.000277431
0.000608802
-0.00100718
0.000701869
-0.00114819
0.000696425
-0.000708454
0.000709106
-0.000396115
0.000805231
-0.000906822
0.00100182
-0.0013512
0.00112784
-0.000882547
0.00113716
-0.000458553
0.00115093
-0.000414394
0.00118039
-0.000337429
0.00125627
-0.000148545
0.00137978
-0.000128811
0.00150718
-0.000461709
0.00161374