/*--------------------------------*- C++ -*----------------------------------*\
| =========                 |                                                 |
| \\      /  F ield         | OpenFOAM: The Open Source CFD Toolbox           |
|  \\    /   O peration     | Version:  v1912                                 |
|   \\  /    A nd           | Website:  www.openfoam.com                      |
|    \\/     M anipulation  |                                                 |
\*---------------------------------------------------------------------------*/
FoamFile
{
    version     2.0;
    format      ascii;
    class       volSymmTensorField;
    location    "80";
    object      R;
}
// * * * * * * * * * * * * * * * * * * * * * * * * * * * * * * * * * * * * * //

dimensions      [0 2 -2 0 0 0 0];


internalField   nonuniform List<symmTensor> 
14268
(
(0.0134999 -0.002688 0 0.0214225 0 0.0127684)
(0.0185422 -0.00373034 0 0.0330329 0 0.018789)
(0.0219855 -0.0033678 0 0.0421928 0 0.0232679)
(0.0239538 -0.00322337 0 0.046873 0 0.0256474)
(0.0247106 -0.00323281 0 0.0487714 0 0.0258895)
(0.0248383 -0.00251946 0 0.0513074 0 0.0258933)
(0.0233867 -0.00140522 0 0.0491183 0 0.024221)
(0.0191748 -0.000329459 0 0.0396614 0 0.0193227)
(0.0141861 0.000806935 0 0.0289434 0 0.014084)
(0.00775339 0.00112513 0 0.0149021 0 0.00757501)
(0.00182039 0.000317211 0 0.00241456 0 0.00167012)
(0.00125132 -0.000136561 0 0.00123453 0 0.00104264)
(0.00253154 -0.000510495 0 0.00307125 0 0.00223454)
(0.00449137 -0.00100172 0 0.00634413 0 0.00438032)
(0.00598449 -0.00119816 0 0.0094979 0 0.00640759)
(0.00716212 -0.000968056 0 0.0127738 0 0.0083291)
(0.00672981 -0.000612005 0 0.0118892 0 0.00788298)
(0.00494881 -0.00028243 0 0.00704586 0 0.00551791)
(0.00216694 -7.7006e-05 0 0.00229284 0 0.00217786)
(0.00125354 -0.000148345 0 0.00179675 0 0.00112617)
(0.00172392 -0.000254063 0 0.00382708 0 0.00161332)
(0.00262166 -0.000263153 0 0.0071946 0 0.00254136)
(0.00217913 -0.000101267 0 0.0058105 0 0.00200615)
(0.00136559 -3.96888e-05 0 0.00325741 0 0.00121212)
(0.00151302 -0.00025405 0 0.00285543 0 0.00138652)
(0.00286758 -0.000430158 0 0.00528838 0 0.00278618)
(0.00464252 -0.000429086 0 0.00933093 0 0.00472097)
(0.0052107 -0.000354042 0 0.010782 0 0.00526713)
(0.00500302 -0.000245268 0 0.0104564 0 0.00501373)
(0.00484226 -0.000248059 0 0.0103916 0 0.00491694)
(0.0045909 -0.000446506 0 0.00972577 0 0.00462071)
(0.00470251 -0.000559606 0 0.0101736 0 0.00464552)
(0.00446346 -0.000190765 0 0.00984861 0 0.00444841)
(0.00342456 -3.8672e-05 0 0.00724578 0 0.00345256)
(0.00253283 -0.000177536 0 0.00500698 0 0.00255919)
(0.00237622 -0.000333027 0 0.00448623 0 0.00239761)
(0.00228503 -0.00036656 0 0.00425304 0 0.00234452)
(0.00204525 -0.000304116 0 0.00373522 0 0.0021525)
(0.00151521 -0.000190598 0 0.00252834 0 0.00163433)
(0.000914267 -0.000157614 0 0.000996721 0 0.00095148)
(0.000679332 -0.000113368 0 0.00043304 0 0.000680754)
(0.000746054 -0.000129006 0 0.000525258 0 0.000739951)
(0.00108185 -0.000195941 0 0.00116503 0 0.00108604)
(0.00167347 -0.000268821 0 0.00227204 0 0.00173243)
(0.00234722 -0.000282291 0 0.00352893 0 0.00251713)
(0.0027476 -0.000236853 0 0.00435605 0 0.00301179)
(0.00286189 -0.000163103 0 0.00464439 0 0.0031765)
(0.00284254 -0.000112343 0 0.00464161 0 0.00317073)
(0.00269576 -4.42406e-05 0 0.00437965 0 0.00300794)
(0.0023622 4.12623e-05 0 0.00368824 0 0.00259921)
(0.00180732 8.71439e-05 0 0.00263881 0 0.00193269)
(0.00101621 3.40289e-05 0 0.00134648 0 0.00104458)
(0.000322259 -7.40934e-06 0 0.000246884 0 0.000301791)
(0.000221448 -7.24291e-06 0 5.03023e-05 0 0.000186469)
(0.000368279 -2.09192e-05 0 6.80742e-05 0 0.000298717)
(0.000594418 -4.30885e-05 0 0.000103773 0 0.00048415)
(0.000632603 -4.64158e-05 0 9.65719e-05 0 0.000514656)
(0.000543666 -3.7798e-05 0 7.28197e-05 0 0.000439383)
(0.00036204 -2.1838e-05 0 4.28095e-05 0 0.000289124)
(0.000154827 -7.07589e-06 0 1.71099e-05 0 0.000122979)
(4.79994e-05 -9.93452e-07 0 6.3409e-06 0 3.86008e-05)
(1.16125e-05 -1.82529e-08 0 2.16603e-06 0 9.53405e-06)
(2.47003e-06 -9.76439e-09 0 6.66482e-07 0 2.07128e-06)
(5.30258e-07 -1.17731e-08 0 2.46807e-07 0 4.51162e-07)
(1.02087e-07 1.14428e-09 0 6.15558e-08 0 8.86838e-08)
(1.77043e-08 7.39603e-10 0 1.19108e-08 0 1.562e-08)
(2.84196e-09 1.37034e-10 0 2.02113e-09 0 2.53455e-09)
(4.36865e-10 2.19299e-11 0 3.21123e-10 0 3.92759e-10)
(6.5131e-11 3.37968e-12 0 4.8992e-11 0 5.88764e-11)
(9.46888e-12 5.07388e-13 0 7.27535e-12 0 8.5943e-12)
(1.43784e-12 7.62275e-14 0 1.138e-12 0 1.31194e-12)
(3.47751e-13 1.45514e-14 0 2.91319e-13 0 3.2158e-13)
(2.27651e-13 6.66436e-15 0 1.9867e-13 0 2.13137e-13)
(2.31906e-13 6.10362e-15 0 2.04067e-13 0 2.17837e-13)
(2.59746e-13 6.44503e-15 0 2.29723e-13 0 2.44582e-13)
(2.95801e-13 7.03847e-15 0 2.62764e-13 0 2.79129e-13)
(3.29711e-13 7.58525e-15 0 2.93971e-13 0 3.11683e-13)
(3.63059e-13 8.08896e-15 0 3.24808e-13 0 3.43771e-13)
(3.97013e-13 8.56709e-15 0 3.56346e-13 0 3.76512e-13)
(4.31865e-13 9.02304e-15 0 3.88858e-13 0 4.10191e-13)
(4.6749e-13 9.45434e-15 0 4.22231e-13 0 4.44688e-13)
(5.03759e-13 9.85874e-15 0 4.56349e-13 0 4.7988e-13)
(5.40637e-13 1.02358e-14 0 4.91187e-13 0 5.15737e-13)
(5.78104e-13 1.05849e-14 0 5.26726e-13 0 5.5224e-13)
(6.16115e-13 1.09058e-14 0 5.62927e-13 0 5.89347e-13)
(6.54622e-13 1.11977e-14 0 5.99743e-13 0 6.27009e-13)
(6.93548e-13 1.14602e-14 0 6.37102e-13 0 6.65154e-13)
(7.32809e-13 1.16924e-14 0 6.74926e-13 0 7.03698e-13)
(7.72333e-13 1.18946e-14 0 7.13146e-13 0 7.42573e-13)
(8.12066e-13 1.20665e-14 0 7.51708e-13 0 7.81724e-13)
(8.51952e-13 1.22085e-14 0 7.9056e-13 0 8.21097e-13)
(8.91934e-13 1.23209e-14 0 8.29643e-13 0 8.60633e-13)
(9.31944e-13 1.24042e-14 0 8.6889e-13 0 9.00266e-13)
(9.71922e-13 1.24591e-14 0 9.08236e-13 0 9.39932e-13)
(1.0118e-12 1.24862e-14 0 9.47609e-13 0 9.79561e-13)
(1.05153e-12 1.24867e-14 0 9.86967e-13 0 1.01911e-12)
(1.09107e-12 1.2461e-14 0 1.02625e-12 0 1.05853e-12)
(1.13037e-12 1.2411e-14 0 1.06542e-12 0 1.09777e-12)
(1.16938e-12 1.23367e-14 0 1.10442e-12 0 1.13678e-12)
(1.20808e-12 1.22404e-14 0 1.14322e-12 0 1.17553e-12)
(1.2464e-12 1.2122e-14 0 1.18175e-12 0 1.21396e-12)
(1.28433e-12 1.1984e-14 0 1.21998e-12 0 1.25205e-12)
(1.32182e-12 1.18264e-14 0 1.25787e-12 0 1.28974e-12)
(1.35884e-12 1.16517e-14 0 1.29539e-12 0 1.32702e-12)
(1.39535e-12 1.14598e-14 0 1.33249e-12 0 1.36382e-12)
(1.43133e-12 1.12533e-14 0 1.36914e-12 0 1.40015e-12)
(1.46675e-12 1.10324e-14 0 1.4053e-12 0 1.43594e-12)
(1.50159e-12 1.07989e-14 0 1.44095e-12 0 1.47119e-12)
(1.53582e-12 1.05539e-14 0 1.47606e-12 0 1.50587e-12)
(1.56943e-12 1.02985e-14 0 1.5106e-12 0 1.53995e-12)
(1.60238e-12 1.00342e-14 0 1.54455e-12 0 1.5734e-12)
(1.63469e-12 9.76149e-15 0 1.57789e-12 0 1.60623e-12)
(1.66631e-12 9.48247e-15 0 1.6106e-12 0 1.6384e-12)
(1.69725e-12 9.19698e-15 0 1.64266e-12 0 1.6699e-12)
(1.72749e-12 8.90742e-15 0 1.67407e-12 0 1.70073e-12)
(1.75703e-12 8.61329e-15 0 1.70479e-12 0 1.73086e-12)
(1.78587e-12 8.31704e-15 0 1.73483e-12 0 1.76031e-12)
(1.81398e-12 8.01809e-15 0 1.76418e-12 0 1.78904e-12)
(1.84139e-12 7.7186e-15 0 1.79283e-12 0 1.81707e-12)
(1.86807e-12 7.41827e-15 0 1.82077e-12 0 1.84438e-12)
(1.89405e-12 7.11859e-15 0 1.84801e-12 0 1.871e-12)
(1.91929e-12 6.81993e-15 0 1.87452e-12 0 1.89688e-12)
(1.94385e-12 6.52273e-15 0 1.90035e-12 0 1.92207e-12)
(1.96768e-12 6.22836e-15 0 1.92544e-12 0 1.94653e-12)
(1.99083e-12 5.936e-15 0 1.94986e-12 0 1.97032e-12)
(2.01326e-12 5.64803e-15 0 1.97355e-12 0 1.99338e-12)
(2.03503e-12 5.3626e-15 0 1.99657e-12 0 2.01578e-12)
(2.0561e-12 5.08274e-15 0 2.01887e-12 0 2.03746e-12)
(2.07653e-12 4.80602e-15 0 2.04051e-12 0 2.0585e-12)
(2.09627e-12 4.53556e-15 0 2.06146e-12 0 2.07885e-12)
(2.11539e-12 4.269e-15 0 2.08176e-12 0 2.09856e-12)
(2.13386e-12 4.00898e-15 0 2.1014e-12 0 2.11762e-12)
(2.15171e-12 3.75365e-15 0 2.1204e-12 0 2.13604e-12)
(2.16896e-12 3.50483e-15 0 2.13876e-12 0 2.15385e-12)
(2.18559e-12 3.26144e-15 0 2.1565e-12 0 2.17103e-12)
(2.20166e-12 3.02448e-15 0 2.17364e-12 0 2.18764e-12)
(2.21712e-12 2.79346e-15 0 2.19016e-12 0 2.20363e-12)
(2.23207e-12 2.56881e-15 0 2.20613e-12 0 2.21909e-12)
(2.24642e-12 2.35038e-15 0 2.22149e-12 0 2.23395e-12)
(2.2603e-12 2.13829e-15 0 2.23634e-12 0 2.24831e-12)
(2.2736e-12 1.93253e-15 0 2.25059e-12 0 2.26209e-12)
(2.28645e-12 1.73303e-15 0 2.26436e-12 0 2.2754e-12)
(2.29877e-12 1.53982e-15 0 2.27758e-12 0 2.28817e-12)
(2.31065e-12 1.35285e-15 0 2.29033e-12 0 2.30048e-12)
(2.32201e-12 1.17199e-15 0 2.30253e-12 0 2.31227e-12)
(2.33292e-12 9.9794e-16 0 2.31425e-12 0 2.32358e-12)
(2.3433e-12 8.28913e-16 0 2.32542e-12 0 2.33436e-12)
(2.35299e-12 6.71089e-16 0 2.33582e-12 0 2.3444e-12)
(2.3624e-12 5.16752e-16 0 2.34599e-12 0 2.3542e-12)
(2.37522e-12 3.44047e-16 0 2.35976e-12 0 2.36747e-12)
(0.0387611 -0.00991495 0 0.0850269 0 0.0359904)
(0.0512544 -0.0156959 0 0.130501 0 0.0527706)
(0.059063 -0.0152252 0 0.164689 0 0.0650317)
(0.0634279 -0.0142483 0 0.18113 0 0.0713459)
(0.0655444 -0.0145796 0 0.189029 0 0.0711087)
(0.0652199 -0.012496 0 0.201587 0 0.0699641)
(0.0610838 -0.0081596 0 0.194397 0 0.064666)
(0.0509631 -0.00550358 0 0.159795 0 0.0510929)
(0.0381678 -0.00157554 0 0.118156 0 0.0371384)
(0.0220234 0.00205159 0 0.0623113 0 0.0209278)
(0.00668994 0.000883844 0 0.0101715 0 0.00573678)
(0.00538808 -0.000780951 0 0.00638712 0 0.00413411)
(0.00887798 -0.00220704 0 0.0135074 0 0.00746992)
(0.013941 -0.00426267 0 0.0247574 0 0.0135918)
(0.0172492 -0.00508494 0 0.0351296 0 0.0194064)
(0.0194874 -0.0041219 0 0.0466126 0 0.0249457)
(0.0186038 -0.00266187 0 0.0445049 0 0.0240223)
(0.0152974 -0.00140264 0 0.0281391 0 0.0182301)
(0.00827676 -0.000476073 0 0.00980252 0 0.00836612)
(0.0047788 -0.00100236 0 0.00974659 0 0.00398788)
(0.00519675 -0.00146269 0 0.0194909 0 0.00457747)
(0.0066945 -0.00171937 0 0.0337945 0 0.00624337)
(0.00580976 -0.00106094 0 0.0291105 0 0.0048755)
(0.0043273 -0.00034409 0 0.0185921 0 0.00344371)
(0.00496105 -0.00115512 0 0.0133555 0 0.00431103)
(0.00861764 -0.00195081 0 0.0215228 0 0.00819572)
(0.0128623 -0.00214818 0 0.0377772 0 0.0131905)
(0.0143408 -0.00217582 0 0.0448709 0 0.0145531)
(0.0138505 -0.00203441 0 0.044262 0 0.013815)
(0.0132072 -0.0019969 0 0.0437459 0 0.0134814)
(0.0126609 -0.00272554 0 0.0409653 0 0.0127417)
(0.0129427 -0.0034243 0 0.0430956 0 0.0125345)
(0.0122018 -0.00179183 0 0.0420446 0 0.0119792)
(0.00968332 -0.000911429 0 0.031666 0 0.00973155)
(0.00759868 -0.00123841 0 0.0229496 0 0.00771011)
(0.00724772 -0.00175476 0 0.0208488 0 0.00738872)
(0.00696996 -0.00179824 0 0.0197694 0 0.0073273)
(0.00633713 -0.00148389 0 0.0174478 0 0.00694288)
(0.0050468 -0.000949071 0 0.0121979 0 0.00575829)
(0.00384525 -0.000847636 0 0.00516824 0 0.0042104)
(0.0035591 -0.00075427 0 0.00188213 0 0.00365557)
(0.00375849 -0.00082054 0 0.00211571 0 0.00381956)
(0.00456851 -0.00109743 0 0.00505573 0 0.00470971)
(0.00605449 -0.00135975 0 0.00994588 0 0.00651314)
(0.00779226 -0.00137067 0 0.0149311 0 0.00881554)
(0.00878966 -0.00117071 0 0.0180909 0 0.0102657)
(0.00903796 -0.000859479 0 0.0191987 0 0.0107478)
(0.00895936 -0.000646415 0 0.0191714 0 0.0107267)
(0.0085676 -0.000320006 0 0.0181991 0 0.0102529)
(0.00776457 3.48278e-05 0 0.0155802 0 0.0090737)
(0.00636572 0.000268377 0 0.0116361 0 0.0071112)
(0.00418054 0.00011276 0 0.00681629 0 0.00441346)
(0.00223551 -0.000137543 0 0.00120606 0 0.00202273)
(0.00232608 -4.71828e-05 0 1e-15 0 0.00180445)
(0.0034034 -0.000102542 0 1e-15 0 0.00253577)
(0.00458168 -0.000219305 0 1e-15 0 0.00346964)
(0.00470161 -0.000219105 0 1e-15 0 0.00358182)
(0.00434157 -0.000173238 0 1e-15 0 0.0032739)
(0.00335618 -0.000103311 0 1e-15 0 0.00248544)
(0.00185835 -2.97458e-05 0 1e-15 0 0.00136188)
(0.000715573 1.6735e-05 0 1e-15 0 0.000532332)
(0.000224803 1.48417e-05 0 1e-15 0 0.000171582)
(6.1567e-05 3.45295e-06 0 1e-15 0 4.76944e-05)
(1.42417e-05 2.07836e-07 0 3.91357e-06 0 1.11931e-05)
(2.73715e-06 1.21472e-07 0 1.24279e-06 0 2.2036e-06)
(4.70142e-07 3.51248e-08 0 2.42768e-07 0 3.85932e-07)
(7.65489e-08 6.24161e-09 0 4.24247e-08 0 6.37242e-08)
(1.21078e-08 1.01767e-09 0 7.02159e-09 0 1.01798e-08)
(1.84969e-09 1.60255e-10 0 1.11376e-09 0 1.56627e-09)
(2.73695e-10 2.44492e-11 0 1.71448e-10 0 2.33082e-10)
(4.21301e-11 3.71395e-12 0 2.79543e-11 0 3.61761e-11)
(1.03421e-11 7.13534e-13 0 7.63024e-12 0 9.08012e-12)
(6.8336e-12 3.27384e-13 0 5.41719e-12 0 6.12292e-12)
(6.97431e-12 2.99871e-13 0 5.6066e-12 0 6.28251e-12)
(7.8179e-12 3.16657e-13 0 6.33884e-12 0 7.07047e-12)
(8.90044e-12 3.45804e-13 0 7.27047e-12 0 8.07753e-12)
(9.91811e-12 3.72704e-13 0 8.15256e-12 0 9.02717e-12)
(1.09194e-11 3.9751e-13 0 9.02756e-12 0 9.96507e-12)
(1.19383e-11 4.21043e-13 0 9.92476e-12 0 1.09229e-11)
(1.29833e-11 4.43464e-13 0 1.08518e-11 0 1.19087e-11)
(1.40505e-11 4.64651e-13 0 1.18054e-11 0 1.2919e-11)
(1.5136e-11 4.84498e-13 0 1.27824e-11 0 1.39502e-11)
(1.62391e-11 5.02988e-13 0 1.37823e-11 0 1.50016e-11)
(1.73588e-11 5.20086e-13 0 1.48046e-11 0 1.60726e-11)
(1.84939e-11 5.35786e-13 0 1.5848e-11 0 1.71619e-11)
(1.96429e-11 5.50043e-13 0 1.69113e-11 0 1.82681e-11)
(2.08035e-11 5.62843e-13 0 1.79924e-11 0 1.9389e-11)
(2.19731e-11 5.74144e-13 0 1.9089e-11 0 2.05223e-11)
(2.31498e-11 5.83959e-13 0 2.01992e-11 0 2.16658e-11)
(2.43317e-11 5.92274e-13 0 2.13214e-11 0 2.28181e-11)
(2.55174e-11 5.99119e-13 0 2.24543e-11 0 2.39776e-11)
(2.67052e-11 6.04498e-13 0 2.35959e-11 0 2.51425e-11)
(2.78929e-11 6.08445e-13 0 2.47443e-11 0 2.63108e-11)
(2.90789e-11 6.10988e-13 0 2.58975e-11 0 2.74806e-11)
(3.0261e-11 6.12161e-13 0 2.70535e-11 0 2.86499e-11)
(3.14382e-11 6.12022e-13 0 2.82108e-11 0 2.98173e-11)
(3.26087e-11 6.10596e-13 0 2.93678e-11 0 3.09814e-11)
(3.37716e-11 6.07966e-13 0 3.05232e-11 0 3.21408e-11)
(3.49253e-11 6.04144e-13 0 3.16752e-11 0 3.32939e-11)
(3.60688e-11 5.99237e-13 0 3.28228e-11 0 3.44397e-11)
(3.72007e-11 5.93246e-13 0 3.39641e-11 0 3.55766e-11)
(3.83203e-11 5.86294e-13 0 3.50984e-11 0 3.67038e-11)
(3.94261e-11 5.78374e-13 0 3.62237e-11 0 3.78197e-11)
(4.05178e-11 5.69614e-13 0 3.73396e-11 0 3.89236e-11)
(4.15937e-11 5.60015e-13 0 3.84441e-11 0 4.00141e-11)
(4.26536e-11 5.49693e-13 0 3.95368e-11 0 4.10907e-11)
(4.36963e-11 5.38668e-13 0 4.06162e-11 0 4.21519e-11)
(4.47216e-11 5.27029e-13 0 4.16816e-11 0 4.31975e-11)
(4.57282e-11 5.14823e-13 0 4.27318e-11 0 4.42262e-11)
(4.67163e-11 5.02109e-13 0 4.37663e-11 0 4.52377e-11)
(4.76847e-11 4.88959e-13 0 4.4784e-11 0 4.6231e-11)
(4.86335e-11 4.75402e-13 0 4.57846e-11 0 4.72058e-11)
(4.9562e-11 4.61534e-13 0 4.6767e-11 0 4.81615e-11)
(5.047e-11 4.47353e-13 0 4.7731e-11 0 4.90977e-11)
(5.13573e-11 4.32973e-13 0 4.8676e-11 0 5.0014e-11)
(5.22236e-11 4.18374e-13 0 4.96014e-11 0 5.09101e-11)
(5.3069e-11 4.0367e-13 0 5.05071e-11 0 5.17857e-11)
(5.38929e-11 3.8884e-13 0 5.13924e-11 0 5.26405e-11)
(5.46959e-11 3.73984e-13 0 5.22576e-11 0 5.34747e-11)
(5.54771e-11 3.59092e-13 0 5.31017e-11 0 5.42875e-11)
(5.62378e-11 3.44233e-13 0 5.39256e-11 0 5.508e-11)
(5.69765e-11 3.29428e-13 0 5.47279e-11 0 5.58506e-11)
(5.76952e-11 3.14698e-13 0 5.55101e-11 0 5.66011e-11)
(5.8392e-11 3.00109e-13 0 5.62704e-11 0 5.73298e-11)
(5.90691e-11 2.85624e-13 0 5.70109e-11 0 5.80387e-11)
(5.97248e-11 2.71355e-13 0 5.77295e-11 0 5.8726e-11)
(6.03612e-11 2.57217e-13 0 5.84283e-11 0 5.93937e-11)
(6.09768e-11 2.43352e-13 0 5.91057e-11 0 6.00402e-11)
(6.15735e-11 2.29648e-13 0 5.97636e-11 0 6.06676e-11)
(6.21502e-11 2.1625e-13 0 6.04007e-11 0 6.12746e-11)
(6.27085e-11 2.03051e-13 0 6.10184e-11 0 6.18626e-11)
(6.32478e-11 1.90172e-13 0 6.16162e-11 0 6.24312e-11)
(6.37688e-11 1.77529e-13 0 6.21946e-11 0 6.2981e-11)
(6.4272e-11 1.65207e-13 0 6.27543e-11 0 6.35125e-11)
(6.47573e-11 1.53156e-13 0 6.32948e-11 0 6.40254e-11)
(6.5226e-11 1.41422e-13 0 6.38176e-11 0 6.45213e-11)
(6.56771e-11 1.29983e-13 0 6.43215e-11 0 6.49988e-11)
(6.61129e-11 1.1886e-13 0 6.48089e-11 0 6.54604e-11)
(6.65315e-11 1.08045e-13 0 6.52778e-11 0 6.59042e-11)
(6.69359e-11 9.75432e-14 0 6.57312e-11 0 6.63332e-11)
(6.73237e-11 8.73548e-14 0 6.61667e-11 0 6.67448e-11)
(6.76982e-11 7.74775e-14 0 6.65876e-11 0 6.71426e-11)
(6.80571e-11 6.79107e-14 0 6.69915e-11 0 6.7524e-11)
(6.84032e-11 5.86531e-14 0 6.73814e-11 0 6.7892e-11)
(6.87343e-11 4.96973e-14 0 6.77548e-11 0 6.82443e-11)
(6.90522e-11 4.10802e-14 0 6.81133e-11 0 6.85824e-11)
(6.93544e-11 3.27092e-14 0 6.84552e-11 0 6.89047e-11)
(6.96369e-11 2.49017e-14 0 6.87733e-11 0 6.92046e-11)
(6.99101e-11 1.7273e-14 0 6.90851e-11 0 6.94981e-11)
(7.02847e-11 8.69307e-15 0 6.95069e-11 0 6.98947e-11)
(0.0558411 -0.0161678 0 0.148978 0 0.0511117)
(0.0723774 -0.0259384 0 0.223128 0 0.0743996)
(0.083535 -0.0261129 0 0.279432 0 0.092496)
(0.09012 -0.0249115 0 0.305952 0 0.102156)
(0.0930485 -0.0250959 0 0.315113 0 0.10162)
(0.0921585 -0.0220908 0 0.333283 0 0.0993207)
(0.0858581 -0.0158789 0 0.321314 0 0.0911626)
(0.0723205 -0.0115643 0 0.272403 0 0.0723478)
(0.0541361 -0.0052202 0 0.204796 0 0.0522932)
(0.0313729 0.000798076 0 0.109729 0 0.0294108)
(0.0108381 0.00101084 0 0.0193269 0 0.00894476)
(0.00862997 -0.00100215 0 0.0139531 0 0.00647243)
(0.0131539 -0.0029145 0 0.021512 0 0.0109643)
(0.0198442 -0.00618434 0 0.0354084 0 0.0193757)
(0.0244199 -0.00777052 0 0.0510346 0 0.0278669)
(0.0272912 -0.00638635 0 0.0690225 0 0.0357937)
(0.0259876 -0.00417874 0 0.0700594 0 0.034446)
(0.0213761 -0.00237266 0 0.0497035 0 0.0261113)
(0.0124655 -0.00107545 0 0.0227719 0 0.0126102)
(0.00697949 -0.00172515 0 0.024382 0 0.00568575)
(0.00703525 -0.00240617 0 0.0373767 0 0.00604391)
(0.00870981 -0.00330634 0 0.0570903 0 0.00794674)
(0.0079569 -0.00262224 0 0.0529927 0 0.00637234)
(0.00643409 -0.00114768 0 0.0349496 0 0.00486289)
(0.00750789 -0.00172535 0 0.0132288 0 0.0062519)
(0.0125209 -0.00281885 0 0.0245538 0 0.011699)
(0.0178663 -0.00348686 0 0.0551398 0 0.0182946)
(0.019761 -0.00411922 0 0.0731126 0 0.0200279)
(0.0191018 -0.00404591 0 0.0744749 0 0.0189879)
(0.0181228 -0.00389265 0 0.0733853 0 0.0184892)
(0.0174098 -0.00501025 0 0.0684215 0 0.0174786)
(0.0178319 -0.0060968 0 0.0722168 0 0.0171041)
(0.016715 -0.00347454 0 0.0708809 0 0.0162731)
(0.0132024 -0.00197917 0 0.0544851 0 0.0132218)
(0.0103741 -0.00223319 0 0.0412259 0 0.0105481)
(0.0098664 -0.00287414 0 0.0381762 0 0.0101257)
(0.00949235 -0.00290406 0 0.0364447 0 0.0100862)
(0.00867746 -0.0024693 0 0.0325133 0 0.00964315)
(0.00702714 -0.00174208 0 0.0238274 0 0.00814108)
(0.00552434 -0.00140849 0 0.0120784 0 0.00621652)
(0.00535359 -0.00132551 0 0.00565906 0 0.00566598)
(0.00577821 -0.00142964 0 0.00509898 0 0.00602018)
(0.00693328 -0.0017566 0 0.00825406 0 0.0073037)
(0.00888338 -0.00210788 0 0.0157668 0 0.00977142)
(0.0112112 -0.00221223 0 0.024112 0 0.0129793)
(0.0125781 -0.0019792 0 0.0293514 0 0.0150597)
(0.0129041 -0.00151982 0 0.0311897 0 0.0157504)
(0.0127895 -0.0011945 0 0.0311789 0 0.0157206)
(0.0122384 -0.000689235 0 0.0296497 0 0.0150335)
(0.011139 -0.000144926 0 0.0254822 0 0.0133323)
(0.00926511 0.000237345 0 0.0192747 0 0.0105485)
(0.00637036 0.000119844 0 0.0120719 0 0.00681025)
(0.00413816 -0.00041095 0 0.00357144 0 0.00378033)
(0.00465214 -0.00028069 0 1e-15 0 0.00367411)
(0.00546329 -0.000297496 0 1e-15 0 0.00426312)
(0.00624926 -0.000481578 0 1e-15 0 0.00513184)
(0.00607536 -0.000440084 0 1e-15 0 0.00513345)
(0.00553783 -0.000314924 0 1e-15 0 0.00463602)
(0.00437055 -0.000175173 0 1e-15 0 0.00352982)
(0.00259881 -5.16529e-05 0 1e-15 0 0.00202172)
(0.001205 3.42154e-05 0 1e-15 0 0.000918475)
(0.000485909 4.96104e-05 0 1e-15 0 0.000368765)
(0.000165318 2.28454e-05 0 1e-15 0 0.000125786)
(4.55462e-05 6.05904e-06 0 6.55557e-06 0 3.48616e-05)
(1.02692e-05 1.37885e-06 0 4.05299e-06 0 7.9227e-06)
(2.02309e-06 2.71117e-07 0 8.54026e-07 0 1.57277e-06)
(3.7312e-07 4.93544e-08 0 1.55938e-07 0 2.92022e-07)
(6.5245e-08 8.62034e-09 0 2.78337e-08 0 5.13346e-08)
(1.07486e-08 1.44034e-09 0 4.8269e-09 0 8.49636e-09)
(1.68177e-09 2.2903e-10 0 8.13829e-10 0 1.33607e-09)
(2.72479e-10 3.56639e-11 0 1.47414e-10 0 2.18898e-10)
(7.20528e-11 6.86345e-12 0 4.64971e-11 0 5.98695e-11)
(4.99017e-11 3.08734e-12 0 3.55764e-11 0 4.26618e-11)
(5.12551e-11 2.79553e-12 0 3.72212e-11 0 4.41425e-11)
(5.75069e-11 2.92905e-12 0 4.22683e-11 0 4.98033e-11)
(6.53091e-11 3.179e-12 0 4.8518e-11 0 5.68314e-11)
(7.26005e-11 3.41005e-12 0 5.44245e-11 0 6.34281e-11)
(7.97779e-11 3.62218e-12 0 6.03099e-11 0 6.99569e-11)
(8.70655e-11 3.82158e-12 0 6.63547e-11 0 7.6621e-11)
(9.45179e-11 4.0095e-12 0 7.26052e-11 0 8.34708e-11)
(1.02107e-10 4.18503e-12 0 7.90399e-11 0 9.04815e-11)
(1.09805e-10 4.34745e-12 0 8.56384e-11 0 9.76293e-11)
(1.17606e-10 4.49671e-12 0 9.23967e-11 0 1.04908e-10)
(1.25505e-10 4.63266e-12 0 9.93122e-11 0 1.12315e-10)
(1.33491e-10 4.75532e-12 0 1.06377e-10 0 1.19841e-10)
(1.41553e-10 4.86448e-12 0 1.13581e-10 0 1.27475e-10)
(1.49675e-10 4.96012e-12 0 1.20911e-10 0 1.35202e-10)
(1.57841e-10 5.04208e-12 0 1.28351e-10 0 1.43006e-10)
(1.66034e-10 5.11057e-12 0 1.35889e-10 0 1.50873e-10)
(1.74244e-10 5.16565e-12 0 1.43513e-10 0 1.58792e-10)
(1.8246e-10 5.20761e-12 0 1.51214e-10 0 1.66753e-10)
(1.90671e-10 5.23666e-12 0 1.58979e-10 0 1.74743e-10)
(1.98862e-10 5.25315e-12 0 1.66794e-10 0 1.82748e-10)
(2.07022e-10 5.25748e-12 0 1.74646e-10 0 1.90757e-10)
(2.15137e-10 5.25003e-12 0 1.8252e-10 0 1.98754e-10)
(2.232e-10 5.23139e-12 0 1.90408e-10 0 2.06732e-10)
(2.31201e-10 5.20187e-12 0 1.98296e-10 0 2.14679e-10)
(2.39133e-10 5.16223e-12 0 2.06177e-10 0 2.22588e-10)
(2.46985e-10 5.11269e-12 0 2.14039e-10 0 2.30448e-10)
(2.54753e-10 5.05417e-12 0 2.21872e-10 0 2.38251e-10)
(2.62426e-10 4.9868e-12 0 2.29666e-10 0 2.45987e-10)
(2.70002e-10 4.91159e-12 0 2.37414e-10 0 2.53652e-10)
(2.7747e-10 4.82863e-12 0 2.45103e-10 0 2.61233e-10)
(2.84828e-10 4.73897e-12 0 2.5273e-10 0 2.68728e-10)
(2.92067e-10 4.6427e-12 0 2.60281e-10 0 2.76126e-10)
(2.99187e-10 4.5408e-12 0 2.67753e-10 0 2.83424e-10)
(3.06178e-10 4.43346e-12 0 2.75136e-10 0 2.90614e-10)
(3.13042e-10 4.32149e-12 0 2.82425e-10 0 2.97692e-10)
(3.19769e-10 4.20524e-12 0 2.89611e-10 0 3.04652e-10)
(3.26362e-10 4.08531e-12 0 2.96692e-10 0 3.1149e-10)
(3.32814e-10 3.96218e-12 0 3.03658e-10 0 3.18202e-10)
(3.39126e-10 3.83626e-12 0 3.10508e-10 0 3.24785e-10)
(3.45294e-10 3.70815e-12 0 3.17236e-10 0 3.31235e-10)
(3.51318e-10 3.57811e-12 0 3.23838e-10 0 3.37549e-10)
(3.57196e-10 3.44675e-12 0 3.3031e-10 0 3.43726e-10)
(3.62927e-10 3.31425e-12 0 3.36649e-10 0 3.49763e-10)
(3.68512e-10 3.18122e-12 0 3.42854e-10 0 3.5566e-10)
(3.73949e-10 3.04779e-12 0 3.4892e-10 0 3.61412e-10)
(3.79242e-10 2.91449e-12 0 3.54848e-10 0 3.67025e-10)
(3.84385e-10 2.78147e-12 0 3.60633e-10 0 3.7249e-10)
(3.89387e-10 2.6491e-12 0 3.66279e-10 0 3.77815e-10)
(3.9424e-10 2.51768e-12 0 3.71778e-10 0 3.82992e-10)
(3.98956e-10 2.38729e-12 0 3.7714e-10 0 3.88032e-10)
(4.03523e-10 2.25845e-12 0 3.82352e-10 0 3.92923e-10)
(4.07958e-10 2.13095e-12 0 3.87427e-10 0 3.97679e-10)
(4.12247e-10 2.00551e-12 0 3.92354e-10 0 4.02288e-10)
(4.16408e-10 1.88167e-12 0 3.97145e-10 0 4.06765e-10)
(4.20427e-10 1.76026e-12 0 4.01789e-10 0 4.11098e-10)
(4.24322e-10 1.64072e-12 0 4.063e-10 0 4.15301e-10)
(4.28082e-10 1.52385e-12 0 4.10668e-10 0 4.19365e-10)
(4.31719e-10 1.40911e-12 0 4.14903e-10 0 4.23302e-10)
(4.35229e-10 1.29715e-12 0 4.19002e-10 0 4.27108e-10)
(4.38619e-10 1.18756e-12 0 4.22969e-10 0 4.30786e-10)
(4.4189e-10 1.08078e-12 0 4.26806e-10 0 4.34341e-10)
(4.45043e-10 9.76556e-13 0 4.30513e-10 0 4.37771e-10)
(4.48085e-10 8.75154e-13 0 4.34098e-10 0 4.41086e-10)
(4.51012e-10 7.76446e-13 0 4.37554e-10 0 4.44277e-10)
(4.53838e-10 6.80545e-13 0 4.40896e-10 0 4.47362e-10)
(4.5655e-10 5.87402e-13 0 4.44111e-10 0 4.50326e-10)
(4.5917e-10 4.97041e-13 0 4.47221e-10 0 4.53191e-10)
(4.6168e-10 4.09457e-13 0 4.50207e-10 0 4.5594e-10)
(4.64103e-10 3.24608e-13 0 4.53094e-10 0 4.58595e-10)
(4.66424e-10 2.42494e-13 0 4.55864e-10 0 4.61141e-10)
(4.68661e-10 1.63084e-13 0 4.58537e-10 0 4.63596e-10)
(4.708e-10 8.6312e-14 0 4.61099e-10 0 4.65947e-10)
(4.72853e-10 1.25393e-14 0 4.63557e-10 0 4.68202e-10)
(4.74803e-10 -5.91661e-14 0 4.65902e-10 0 4.70351e-10)
(4.76629e-10 -1.25575e-13 0 4.68082e-10 0 4.7235e-10)
(4.78386e-10 -1.90208e-13 0 4.70224e-10 0 4.7431e-10)
(4.80809e-10 -2.65542e-13 0 4.73113e-10 0 4.7695e-10)
(0.0661244 -0.0228246 0 0.205794 0 0.059135)
(0.0823181 -0.0354445 0 0.293293 0 0.0839152)
(0.0932143 -0.0362843 0 0.367085 0 0.10378)
(0.0999686 -0.0349439 0 0.403548 0 0.114647)
(0.104773 -0.0353782 0 0.417702 0 0.115284)
(0.103173 -0.0307386 0 0.437381 0 0.111983)
(0.0962349 -0.0221911 0 0.422338 0 0.10277)
(0.0813681 -0.016561 0 0.362393 0 0.0812428)
(0.0612991 -0.0084074 0 0.277259 0 0.0588281)
(0.0363045 -5.53487e-05 0 0.155433 0 0.0337836)
(0.0135577 0.00140297 0 0.0311337 0 0.0109263)
(0.0109553 -0.00119726 0 0.0189548 0 0.00801898)
(0.0168913 -0.00404178 0 0.0187658 0 0.0136454)
(0.0248227 -0.00859091 0 0.0347523 0 0.0237142)
(0.0294323 -0.010862 0 0.0588966 0 0.033473)
(0.0317016 -0.00870938 0 0.084319 0 0.0423551)
(0.0298603 -0.00544247 0 0.0851285 0 0.0405427)
(0.0250669 -0.00287063 0 0.0597202 0 0.0311253)
(0.0148983 -0.00126591 0 0.0338842 0 0.0151142)
(0.00778114 -0.00211584 0 0.0391624 0 0.00617771)
(0.00764164 -0.00299076 0 0.0473525 0 0.0063542)
(0.0091765 -0.00449426 0 0.0689102 0 0.00814447)
(0.00825287 -0.00414217 0 0.0726851 0 0.00617322)
(0.00729567 -0.00252661 0 0.0475524 0 0.0051362)
(0.0101651 -0.00249508 0 0.004269 0 0.00804873)
(0.0157786 -0.0032983 0 0.0183572 0 0.0144559)
(0.0208965 -0.00374164 0 0.0577449 0 0.0213848)
(0.022513 -0.00515971 0 0.0896432 0 0.0228334)
(0.0217073 -0.00564717 0 0.0995351 0 0.0215391)
(0.0203953 -0.00550768 0 0.0988221 0 0.0208469)
(0.0197371 -0.0070908 0 0.0921227 0 0.0197779)
(0.0202336 -0.00858154 0 0.0973463 0 0.0191934)
(0.0188417 -0.00480507 0 0.0954871 0 0.0182256)
(0.0148738 -0.00255961 0 0.0723963 0 0.0149074)
(0.0116944 -0.00281976 0 0.0530966 0 0.0119316)
(0.0111354 -0.00377029 0 0.0480275 0 0.0114347)
(0.0107188 -0.00393787 0 0.0456736 0 0.0113846)
(0.00982467 -0.0034692 0 0.0414546 0 0.0109517)
(0.00809048 -0.00263926 0 0.0320466 0 0.00940781)
(0.00662084 -0.00221444 0 0.018816 0 0.00744967)
(0.00668401 -0.00211244 0 0.0111883 0 0.00704763)
(0.00730355 -0.00223631 0 0.0103025 0 0.00758192)
(0.00872331 -0.00260789 0 0.0133898 0 0.00920211)
(0.0109447 -0.00295045 0 0.0211797 0 0.0121362)
(0.0134895 -0.00300762 0 0.0310689 0 0.0158306)
(0.0149878 -0.00267867 0 0.0378035 0 0.018263)
(0.0153051 -0.00203867 0 0.0401538 0 0.01906)
(0.0151462 -0.00158801 0 0.0401346 0 0.0190131)
(0.0145063 -0.000904545 0 0.038197 0 0.0181984)
(0.0132925 -0.000169409 0 0.032962 0 0.0162147)
(0.0112136 0.000313343 0 0.0251643 0 0.0129589)
(0.00786817 0.000188063 0 0.016171 0 0.00849194)
(0.00545838 -0.000509459 0 0.00670483 0 0.00507029)
(0.00576994 -0.000671646 0 0.00210056 0 0.00478261)
(0.00617478 -0.000677427 0 0.00193712 0 0.00520332)
(0.00665487 -0.000907188 0 0.0038646 0 0.00597054)
(0.00644702 -0.000794139 0 0.00504914 0 0.00600785)
(0.00594308 -0.00057961 0 0.0043686 0 0.00545294)
(0.00477391 -0.000341607 0 0.00283293 0 0.00415268)
(0.00289956 -0.000110955 0 0.00155252 0 0.00236133)
(0.00146973 3.59921e-05 0 0.000748269 0 0.00113117)
(0.000691158 9.18346e-05 0 0.00012159 0 0.000513539)
(0.000281268 6.0779e-05 0 1e-15 0 0.000205899)
(9.03449e-05 2.03741e-05 0 1e-15 0 6.61055e-05)
(2.32426e-05 4.66111e-06 0 3.28517e-07 0 1.70843e-05)
(5.06667e-06 9.35714e-07 0 6.28531e-07 0 3.74695e-06)
(1.0112e-06 1.84946e-07 0 1.95357e-07 0 7.51017e-07)
(1.86902e-07 3.46935e-08 0 4.92896e-08 0 1.39248e-07)
(3.19946e-08 6.05996e-09 0 1.07557e-08 0 2.39101e-08)
(5.15013e-09 9.8534e-10 0 2.11166e-09 0 3.86585e-09)
(8.66776e-10 1.54256e-10 0 4.30234e-10 0 6.60037e-10)
(2.50355e-10 2.921e-11 0 1.51396e-10 0 1.99323e-10)
(1.84277e-10 1.28151e-11 0 1.20985e-10 0 1.51654e-10)
(1.91036e-10 1.14595e-11 0 1.27358e-10 0 1.58564e-10)
(2.14643e-10 1.19071e-11 0 1.45012e-10 0 1.79361e-10)
(2.42965e-10 1.28378e-11 0 1.66295e-10 0 2.04194e-10)
(2.69215e-10 1.37004e-11 0 1.86356e-10 0 2.2734e-10)
(2.95075e-10 1.44897e-11 0 2.0644e-10 0 2.50301e-10)
(3.21252e-10 1.52243e-11 0 2.27081e-10 0 2.737e-10)
(3.47909e-10 1.5908e-11 0 2.48408e-10 0 2.97684e-10)
(3.74943e-10 1.65383e-11 0 2.70351e-10 0 3.22168e-10)
(4.02262e-10 1.71133e-11 0 2.92842e-10 0 3.4707e-10)
(4.2984e-10 1.76333e-11 0 3.1587e-10 0 3.72371e-10)
(4.57661e-10 1.80984e-11 0 3.39424e-10 0 3.98059e-10)
(4.85685e-10 1.85089e-11 0 3.63474e-10 0 4.24099e-10)
(5.13874e-10 1.88645e-11 0 3.87989e-10 0 4.50456e-10)
(5.42172e-10 1.91656e-11 0 4.1292e-10 0 4.77076e-10)
(5.70516e-10 1.94125e-11 0 4.38213e-10 0 5.03903e-10)
(5.98859e-10 1.96062e-11 0 4.63823e-10 0 5.30887e-10)
(6.27162e-10 1.97477e-11 0 4.89715e-10 0 5.57995e-10)
(6.55391e-10 1.98382e-11 0 5.15853e-10 0 5.85189e-10)
(6.83509e-10 1.98791e-11 0 5.42196e-10 0 6.12431e-10)
(7.11466e-10 1.98721e-11 0 5.68692e-10 0 6.39669e-10)
(7.39225e-10 1.98191e-11 0 5.95295e-10 0 6.66863e-10)
(7.6675e-10 1.97218e-11 0 6.21962e-10 0 6.93973e-10)
(7.94015e-10 1.95829e-11 0 6.4866e-10 0 7.20968e-10)
(8.20988e-10 1.94038e-11 0 6.75347e-10 0 7.47812e-10)
(8.4765e-10 1.91876e-11 0 7.01993e-10 0 7.7448e-10)
(8.7397e-10 1.89354e-11 0 7.28557e-10 0 8.00936e-10)
(8.99934e-10 1.86507e-11 0 7.55011e-10 0 8.27159e-10)
(9.25511e-10 1.83345e-11 0 7.81316e-10 0 8.53114e-10)
(9.50696e-10 1.79903e-11 0 8.07451e-10 0 8.78788e-10)
(9.75457e-10 1.76191e-11 0 8.33375e-10 0 9.04144e-10)
(9.99795e-10 1.72243e-11 0 8.59071e-10 0 9.29174e-10)
(1.02368e-09 1.6807e-11 0 8.845e-10 0 9.53845e-10)
(1.04711e-09 1.63704e-11 0 9.09649e-10 0 9.78148e-10)
(1.07007e-09 1.59157e-11 0 9.34481e-10 0 1.00206e-09)
(1.09255e-09 1.54456e-11 0 9.58985e-10 0 1.02556e-09)
(1.11455e-09 1.49617e-11 0 9.83131e-10 0 1.04864e-09)
(1.13605e-09 1.44661e-11 0 1.00691e-09 0 1.0713e-09)
(1.15706e-09 1.39606e-11 0 1.03029e-09 0 1.0935e-09)
(1.17756e-09 1.3447e-11 0 1.05327e-09 0 1.11525e-09)
(1.19756e-09 1.2927e-11 0 1.07582e-09 0 1.13654e-09)
(1.21705e-09 1.24021e-11 0 1.09795e-09 0 1.15736e-09)
(1.23604e-09 1.18738e-11 0 1.11963e-09 0 1.1777e-09)