/*--------------------------------*- C++ -*----------------------------------*\
| =========                 |                                                 |
| \\      /  F ield         | OpenFOAM: The Open Source CFD Toolbox           |
|  \\    /   O peration     | Version:  v1912                                 |
|   \\  /    A nd           | Website:  www.openfoam.com                      |
|    \\/     M anipulation  |                                                 |
\*---------------------------------------------------------------------------*/
FoamFile
{
    version     2.0;
    format      ascii;
    class       volScalarField;
    location    "40";
    object      k;
}
// * * * * * * * * * * * * * * * * * * * * * * * * * * * * * * * * * * * * * //

dimensions      [0 2 -2 0 0 0 0];


internalField   nonuniform List<scalar> 
14268
(
1.14559e-11
1.18733e-11
1.22758e-11
1.26638e-11
1.3038e-11
1.33989e-11
1.37473e-11
1.40837e-11
1.44086e-11
1.47225e-11
1.50261e-11
1.53196e-11
1.56035e-11
1.58784e-11
1.61445e-11
1.64023e-11
1.66521e-11
1.68942e-11
1.7129e-11
1.73567e-11
1.75776e-11
1.7792e-11
1.80001e-11
1.82021e-11
1.83983e-11
1.85888e-11
1.87738e-11
1.89535e-11
1.91281e-11
1.92978e-11
1.94626e-11
1.96228e-11
1.97784e-11
1.99296e-11
2.00765e-11
2.02192e-11
2.03579e-11
2.04927e-11
2.06236e-11
2.07507e-11
2.08742e-11
2.09942e-11
2.11107e-11
2.12238e-11
2.13336e-11
2.14403e-11
2.15438e-11
2.16443e-11
2.17419e-11
2.18364e-11
2.19282e-11
2.20172e-11
2.21036e-11
2.21873e-11
2.22685e-11
2.23472e-11
2.24235e-11
2.24974e-11
2.25691e-11
2.26385e-11
2.27057e-11
2.27709e-11
2.28339e-11
2.2895e-11
2.29541e-11
2.30113e-11
2.30667e-11
2.31202e-11
2.31721e-11
2.32222e-11
2.32707e-11
2.33176e-11
2.33629e-11
2.34067e-11
2.3449e-11
2.349e-11
2.35295e-11
2.35677e-11
2.36046e-11
2.36402e-11
2.36746e-11
2.37078e-11
2.37399e-11
2.37708e-11
2.38007e-11
2.38295e-11
2.38573e-11
2.38841e-11
2.39099e-11
2.39349e-11
2.39589e-11
2.39821e-11
2.40044e-11
2.40259e-11
2.40467e-11
2.40666e-11
2.40859e-11
2.41044e-11
2.41223e-11
2.41394e-11
2.4156e-11
2.41719e-11
2.41873e-11
2.4202e-11
2.42162e-11
2.42299e-11
2.42429e-11
2.42556e-11
2.42677e-11
2.42794e-11
2.42906e-11
2.43014e-11
2.43118e-11
2.43218e-11
2.43313e-11
2.43405e-11
2.43493e-11
2.43578e-11
2.4366e-11
2.43738e-11
2.43813e-11
2.43885e-11
2.43954e-11
2.4402e-11
2.44084e-11
2.44145e-11
2.44204e-11
2.44259e-11
2.44313e-11
2.44364e-11
2.44414e-11
2.44461e-11
2.44507e-11
2.4455e-11
2.44592e-11
2.44632e-11
2.4467e-11
2.44707e-11
2.44741e-11
2.44775e-11
2.44807e-11
2.44838e-11
2.44867e-11
2.44895e-11
2.44922e-11
2.44947e-11
2.44971e-11
2.44994e-11
2.45017e-11
2.45046e-11
3.32889e-10
3.45179e-10
3.57035e-10
3.68468e-10
3.79496e-10
3.90138e-10
4.00413e-10
4.10337e-10
4.19925e-10
4.29191e-10
4.38151e-10
4.46817e-10
4.55203e-10
4.63321e-10
4.71183e-10
4.78799e-10
4.8618e-10
4.93335e-10
5.00274e-10
5.07005e-10
5.13536e-10
5.19874e-10
5.26027e-10
5.32001e-10
5.37802e-10
5.43436e-10
5.48909e-10
5.54226e-10
5.59392e-10
5.64412e-10
5.69289e-10
5.74028e-10
5.78634e-10
5.83109e-10
5.87458e-10
5.91683e-10
5.95789e-10
5.99779e-10
6.03655e-10
6.07421e-10
6.11078e-10
6.14631e-10
6.18082e-10
6.21433e-10
6.24686e-10
6.27845e-10
6.30914e-10
6.33891e-10
6.36781e-10
6.39584e-10
6.42303e-10
6.44942e-10
6.47501e-10
6.49983e-10
6.5239e-10
6.54723e-10
6.56985e-10
6.59178e-10
6.61302e-10
6.6336e-10
6.65354e-10
6.67286e-10
6.69156e-10
6.70967e-10
6.7272e-10
6.74417e-10
6.76059e-10
6.77648e-10
6.79185e-10
6.80672e-10
6.82111e-10
6.83501e-10
6.84846e-10
6.86146e-10
6.87402e-10
6.88616e-10
6.8979e-10
6.90923e-10
6.92017e-10
6.93075e-10
6.94095e-10
6.95081e-10
6.96032e-10
6.96951e-10
6.97837e-10
6.98692e-10
6.99517e-10
7.00313e-10
7.0108e-10
7.01821e-10
7.02533e-10
7.03222e-10
7.03884e-10
7.04524e-10
7.05139e-10
7.05732e-10
7.06304e-10
7.06853e-10
7.07384e-10
7.07893e-10
7.08385e-10
7.08858e-10
7.09313e-10
7.09751e-10
7.10171e-10
7.10578e-10
7.10966e-10
7.11343e-10
7.11702e-10
7.1205e-10
7.12382e-10
7.12703e-10
7.1301e-10
7.13306e-10
7.1359e-10
7.13863e-10
7.14125e-10
7.14377e-10
7.14619e-10
7.14851e-10
7.15074e-10
7.15287e-10
7.15493e-10
7.15689e-10
7.15879e-10
7.16059e-10
7.16234e-10
7.16399e-10
7.16561e-10
7.16711e-10
7.1686e-10
7.16999e-10
7.17135e-10
7.17263e-10
7.17388e-10
7.17506e-10
7.17619e-10
7.17728e-10
7.17831e-10
7.17932e-10
7.18025e-10
7.18118e-10
7.18203e-10
7.18288e-10
7.18366e-10
7.18443e-10
7.18514e-10
7.1858e-10
7.18649e-10
7.18735e-10
2.25197e-09
2.33274e-09
2.41055e-09
2.48547e-09
2.55764e-09
2.62719e-09
2.69426e-09
2.75896e-09
2.82141e-09
2.8817e-09
2.93993e-09
2.9962e-09
3.05061e-09
3.10323e-09
3.15414e-09
3.20342e-09
3.25115e-09
3.29738e-09
3.34218e-09
3.38561e-09
3.42771e-09
3.46855e-09
3.50817e-09
3.54662e-09
3.58393e-09
3.62015e-09
3.65531e-09
3.68945e-09
3.7226e-09
3.7548e-09
3.78607e-09
3.81644e-09
3.84594e-09
3.87459e-09
3.90242e-09
3.92945e-09
3.95571e-09
3.98121e-09
4.00598e-09
4.03003e-09
4.05338e-09
4.07606e-09
4.09808e-09
4.11945e-09
4.14019e-09
4.16033e-09
4.17989e-09
4.19886e-09
4.21727e-09
4.23511e-09
4.25242e-09
4.26921e-09
4.2855e-09
4.30129e-09
4.31659e-09
4.33143e-09
4.34581e-09
4.35974e-09
4.37324e-09
4.38632e-09
4.39898e-09
4.41125e-09
4.42312e-09
4.43462e-09
4.44575e-09
4.45652e-09
4.46694e-09
4.47702e-09
4.48677e-09
4.4962e-09
4.50532e-09
4.51414e-09
4.52267e-09
4.53091e-09
4.53887e-09
4.54657e-09
4.554e-09
4.56119e-09
4.56812e-09
4.57482e-09
4.58129e-09
4.58753e-09
4.59356e-09
4.59938e-09
4.60499e-09
4.6104e-09
4.61562e-09
4.62067e-09
4.62552e-09
4.63021e-09
4.63472e-09
4.63908e-09
4.64327e-09
4.64732e-09
4.65121e-09
4.65496e-09
4.65858e-09
4.66206e-09
4.66542e-09
4.66864e-09
4.67175e-09
4.67474e-09
4.67762e-09
4.68039e-09
4.68305e-09
4.68562e-09
4.68808e-09
4.69046e-09
4.69273e-09
4.69493e-09
4.69703e-09
4.69906e-09
4.701e-09
4.70287e-09
4.70467e-09
4.7064e-09
4.70805e-09
4.70965e-09
4.71118e-09
4.71264e-09
4.71405e-09
4.7154e-09
4.7167e-09
4.71794e-09
4.71914e-09
4.72028e-09
4.72139e-09
4.72243e-09
4.72345e-09
4.7244e-09
4.72535e-09
4.72622e-09
4.72708e-09
4.72789e-09
4.72868e-09
4.72943e-09
4.73014e-09
4.73083e-09
4.73148e-09
4.73212e-09
4.73271e-09
4.7333e-09
4.73384e-09
4.73437e-09
4.73487e-09
4.73535e-09
4.7358e-09
4.73622e-09
4.73665e-09
4.73719e-09
7.48848e-09
7.7407e-09
7.98289e-09
8.21541e-09
8.43873e-09
8.65339e-09
8.85985e-09
9.05854e-09
9.24984e-09
9.43412e-09
9.61175e-09
9.78304e-09
9.94832e-09
1.01079e-08
1.0262e-08
1.04109e-08
1.05549e-08
1.06941e-08
1.08288e-08
1.09592e-08
1.10855e-08
1.12078e-08
1.13262e-08
1.14411e-08
1.15523e-08
1.16602e-08
1.17649e-08
1.18663e-08
1.19647e-08
1.20602e-08
1.21529e-08
1.22427e-08
1.233e-08
1.24146e-08
1.24967e-08
1.25764e-08
1.26538e-08
1.27289e-08
1.28017e-08
1.28724e-08
1.2941e-08
1.30075e-08
1.30721e-08
1.31347e-08
1.31954e-08
1.32544e-08
1.33116e-08
1.3367e-08
1.34208e-08
1.34729e-08
1.35234e-08
1.35723e-08
1.36198e-08
1.36658e-08
1.37103e-08
1.37535e-08
1.37953e-08
1.38359e-08
1.38751e-08
1.39131e-08
1.39499e-08
1.39855e-08
1.40199e-08
1.40533e-08
1.40855e-08
1.41168e-08
1.4147e-08
1.41762e-08
1.42044e-08
1.42317e-08
1.42581e-08
1.42836e-08
1.43083e-08
1.43321e-08
1.43552e-08
1.43774e-08
1.43989e-08
1.44196e-08
1.44397e-08
1.4459e-08
1.44777e-08
1.44957e-08
1.45131e-08
1.45299e-08
1.45461e-08
1.45617e-08
1.45768e-08
1.45913e-08
1.46053e-08
1.46188e-08
1.46319e-08
1.46444e-08
1.46565e-08
1.46682e-08
1.46794e-08
1.46902e-08
1.47006e-08
1.47106e-08
1.47203e-08
1.47296e-08
1.47386e-08
1.47472e-08
1.47554e-08
1.47634e-08
1.47711e-08
1.47785e-08
1.47856e-08
1.47924e-08
1.47989e-08
1.48053e-08
1.48113e-08
1.48172e-08
1.48228e-08
1.48281e-08
1.48333e-08
1.48383e-08
1.4843e-08
1.48476e-08
1.4852e-08
1.48562e-08
1.48603e-08
1.48642e-08
1.48679e-08
1.48715e-08
1.48749e-08
1.48782e-08
1.48814e-08
1.48844e-08
1.48873e-08
1.48901e-08
1.48928e-08
1.48953e-08
1.48978e-08
1.49001e-08
1.49024e-08
1.49045e-08
1.49066e-08
1.49086e-08
1.49104e-08
1.49123e-08
1.49139e-08
1.49156e-08
1.49172e-08
1.49187e-08
1.49202e-08
1.49215e-08
1.49228e-08
1.4924e-08
1.49253e-08
1.49268e-08
1.7069e-08
1.75873e-08
1.80825e-08
1.85555e-08
1.90076e-08
1.94402e-08
1.98546e-08
2.02517e-08
2.06325e-08
2.09981e-08
2.13491e-08
2.16865e-08
2.2011e-08
2.23233e-08
2.2624e-08
2.29137e-08
2.31931e-08
2.34625e-08
2.37226e-08
2.39736e-08
2.42161e-08
2.44504e-08
2.4677e-08
2.4896e-08
2.51079e-08
2.53129e-08
2.55113e-08
2.57034e-08
2.58893e-08
2.60694e-08
2.62438e-08
2.64127e-08
2.65764e-08
2.6735e-08
2.68886e-08
2.70375e-08
2.71818e-08
2.73216e-08
2.74571e-08
2.75884e-08
2.77156e-08
2.78389e-08
2.79584e-08
2.80741e-08
2.81862e-08
2.82949e-08
2.84003e-08
2.85023e-08
2.86011e-08
2.86968e-08
2.87894e-08
2.88792e-08
2.89661e-08
2.90502e-08
2.91317e-08
2.92106e-08
2.92869e-08
2.93608e-08
2.94323e-08
2.95015e-08
2.95684e-08
2.96331e-08
2.96958e-08
2.97563e-08
2.98149e-08
2.98715e-08
2.99263e-08
2.99792e-08
3.00304e-08
3.00798e-08
3.01276e-08
3.01737e-08
3.02183e-08
3.02613e-08
3.03029e-08
3.03431e-08
3.03819e-08
3.04193e-08
3.04554e-08
3.04903e-08
3.05239e-08
3.05564e-08
3.05877e-08
3.0618e-08
3.06471e-08
3.06752e-08
3.07023e-08
3.07284e-08
3.07536e-08
3.07779e-08
3.08013e-08
3.08238e-08
3.08455e-08
3.08665e-08
3.08866e-08
3.0906e-08
3.09247e-08
3.09427e-08
3.09601e-08
3.09767e-08
3.09928e-08
3.10082e-08
3.10231e-08
3.10374e-08
3.10511e-08
3.10644e-08
3.1077e-08
3.10894e-08
3.1101e-08
3.11124e-08
3.11232e-08
3.11337e-08
3.11437e-08
3.11533e-08
3.11626e-08
3.11715e-08
3.118e-08
3.11882e-08
3.11961e-08
3.12036e-08
3.12109e-08
3.12178e-08
3.12245e-08
3.12309e-08
3.12371e-08
3.12429e-08
3.12487e-08
3.1254e-08
3.12593e-08
3.12642e-08
3.1269e-08
3.12735e-08
3.1278e-08
3.12821e-08
3.12862e-08
3.129e-08
3.12937e-08
3.12972e-08
3.13006e-08
3.13039e-08
3.13069e-08
3.13099e-08
3.13127e-08
3.13154e-08
3.1318e-08
3.13205e-08
3.13228e-08
3.13249e-08
3.13272e-08
3.133e-08
3.07154e-08
3.15215e-08
3.22859e-08
3.30109e-08
3.36994e-08
3.43539e-08
3.4977e-08
3.55707e-08
3.6137e-08
3.66777e-08
3.71944e-08
3.76885e-08
3.81616e-08
3.86149e-08
3.90496e-08
3.94667e-08
3.98673e-08
4.02522e-08
4.06224e-08
4.09786e-08
4.13215e-08
4.16518e-08
4.19701e-08
4.2277e-08
4.2573e-08
4.28586e-08
4.31343e-08
4.34005e-08
4.36576e-08
4.39059e-08
4.4146e-08
4.43779e-08
4.46022e-08
4.4819e-08
4.50287e-08
4.52315e-08
4.54276e-08
4.56173e-08
4.58009e-08
4.59784e-08
4.61502e-08
4.63164e-08
4.64772e-08
4.66328e-08
4.67833e-08
4.69289e-08
4.70699e-08
4.72062e-08
4.7338e-08
4.74654e-08
4.75887e-08
4.77079e-08
4.78232e-08
4.79347e-08
4.80425e-08
4.81468e-08
4.82476e-08
4.8345e-08
4.84392e-08
4.85302e-08
4.86182e-08
4.87033e-08
4.87855e-08
4.88649e-08
4.89416e-08
4.90157e-08
4.90873e-08
4.91565e-08
4.92233e-08
4.92878e-08
4.935e-08
4.94102e-08
4.94682e-08
4.95242e-08
4.95783e-08
4.96305e-08
4.96809e-08
4.97295e-08
4.97764e-08
4.98216e-08
4.98652e-08
4.99073e-08
4.99478e-08
4.9987e-08
5.00247e-08
5.0061e-08
5.0096e-08
5.01299e-08
5.01624e-08
5.01938e-08
5.02239e-08
5.02531e-08
5.0281e-08
5.03081e-08
5.0334e-08
5.03591e-08
5.03832e-08
5.04063e-08
5.04287e-08
5.04501e-08
5.04708e-08
5.04907e-08
5.05098e-08
5.05282e-08
5.05459e-08
5.0563e-08
5.05792e-08
5.05951e-08
5.061e-08
5.06247e-08
5.06386e-08
5.0652e-08
5.06649e-08
5.06773e-08
5.06892e-08
5.07006e-08
5.07116e-08
5.07221e-08
5.07322e-08
5.07419e-08
5.07512e-08
5.07601e-08
5.07687e-08
5.07769e-08
5.07848e-08
5.07923e-08
5.07997e-08
5.08065e-08
5.08133e-08
5.08196e-08
5.08258e-08
5.08316e-08
5.08373e-08
5.08426e-08
5.08478e-08
5.08527e-08
5.08574e-08
5.0862e-08
5.08663e-08
5.08705e-08
5.08744e-08
5.08783e-08
5.08818e-08
5.08853e-08
5.08886e-08
5.08918e-08
5.08947e-08
5.08975e-08
5.09004e-08
5.0904e-08
4.69054e-08
4.79208e-08
4.88774e-08
4.97782e-08
5.06258e-08
5.14246e-08
5.21787e-08
5.28917e-08
5.35667e-08
5.42065e-08
5.48137e-08
5.53908e-08
5.59398e-08
5.64627e-08
5.69613e-08
5.74371e-08
5.78917e-08
5.83263e-08
5.87423e-08
5.91407e-08
5.95225e-08
5.98887e-08
6.02401e-08
6.05776e-08
6.09019e-08
6.12137e-08
6.15135e-08
6.18021e-08
6.20798e-08
6.23473e-08
6.2605e-08
6.28533e-08
6.30926e-08
6.33234e-08
6.3546e-08
6.37607e-08
6.39678e-08
6.41677e-08
6.43606e-08
6.45469e-08
6.47267e-08
6.49002e-08
6.50679e-08
6.52297e-08
6.5386e-08
6.5537e-08
6.5683e-08
6.58239e-08
6.59601e-08
6.60916e-08
6.62187e-08
6.63415e-08
6.64601e-08
6.65747e-08
6.66854e-08
6.67924e-08
6.68957e-08
6.69955e-08
6.70919e-08
6.7185e-08
6.72749e-08
6.73617e-08
6.74456e-08
6.75266e-08
6.76047e-08
6.76802e-08
6.77531e-08
6.78234e-08
6.78913e-08
6.79569e-08
6.80201e-08
6.80812e-08
6.81401e-08
6.81969e-08
6.82517e-08
6.83046e-08
6.83556e-08
6.84048e-08
6.84523e-08
6.8498e-08
6.85421e-08
6.85847e-08
6.86257e-08
6.86652e-08
6.87033e-08
6.874e-08
6.87754e-08
6.88095e-08
6.88423e-08
6.8874e-08
6.89044e-08
6.89338e-08
6.8962e-08
6.89892e-08
6.90154e-08
6.90406e-08
6.90649e-08
6.90882e-08
6.91107e-08
6.91323e-08
6.91532e-08
6.91731e-08
6.91924e-08
6.92109e-08
6.92287e-08
6.92459e-08
6.92622e-08
6.92782e-08
6.92932e-08
6.9308e-08
6.93219e-08
6.93355e-08
6.93484e-08
6.93608e-08
6.93728e-08
6.93842e-08
6.93953e-08
6.94058e-08
6.9416e-08
6.94257e-08
6.94351e-08
6.94441e-08
6.94527e-08
6.94609e-08
6.94689e-08
6.94764e-08
6.94838e-08
6.94907e-08
6.94975e-08
6.95038e-08
6.95101e-08
6.95158e-08
6.95216e-08
6.95269e-08
6.95321e-08
6.95371e-08
6.95418e-08
6.95464e-08
6.95507e-08
6.9555e-08
6.95588e-08
6.95628e-08
6.95663e-08
6.95699e-08
6.95731e-08
6.95763e-08
6.95793e-08
6.95821e-08
6.95849e-08
6.95886e-08
6.34896e-08
6.45314e-08
6.54968e-08
6.63936e-08
6.72305e-08
6.80135e-08
6.87477e-08
6.94374e-08
7.00865e-08
7.06983e-08
7.1276e-08
7.18223e-08
7.23395e-08
7.28301e-08
7.32959e-08
7.37387e-08
7.41601e-08
7.45617e-08
7.49447e-08
7.53104e-08
7.56598e-08
7.5994e-08
7.63138e-08
7.66202e-08
7.69138e-08
7.71955e-08
7.74657e-08
7.77253e-08
7.79745e-08
7.82142e-08
7.84446e-08
7.86662e-08
7.88794e-08
7.90847e-08
7.92824e-08
7.94728e-08
7.96563e-08
7.9833e-08
8.00034e-08
8.01677e-08
8.03261e-08
8.04789e-08
8.06262e-08
8.07683e-08
8.09054e-08
8.10377e-08
8.11654e-08
8.12886e-08
8.14076e-08
8.15223e-08
8.1633e-08
8.17398e-08
8.1843e-08
8.19426e-08
8.20387e-08
8.21314e-08
8.22209e-08
8.23073e-08
8.23907e-08
8.24712e-08
8.25489e-08
8.26239e-08
8.26962e-08
8.2766e-08
8.28334e-08
8.28984e-08
8.29611e-08
8.30216e-08
8.30799e-08
8.31362e-08
8.31906e-08
8.32429e-08
8.32935e-08
8.33422e-08
8.33892e-08
8.34345e-08
8.34782e-08
8.35203e-08
8.35609e-08
8.36001e-08
8.36378e-08
8.36742e-08
8.37092e-08
8.3743e-08
8.37755e-08
8.38069e-08
8.38371e-08
8.38662e-08
8.38942e-08
8.39212e-08
8.39471e-08
8.39722e-08
8.39962e-08
8.40195e-08
8.40418e-08
8.40633e-08
8.4084e-08
8.41038e-08
8.4123e-08
8.41413e-08
8.41592e-08
8.41761e-08
8.41925e-08
8.42083e-08
8.42234e-08
8.42381e-08
8.42519e-08
8.42655e-08
8.42783e-08
8.42909e-08
8.43027e-08
8.43142e-08
8.43252e-08
8.43358e-08
8.4346e-08
8.43557e-08
8.43651e-08
8.4374e-08
8.43827e-08
8.4391e-08
8.4399e-08
8.44065e-08
8.44139e-08
8.44209e-08
8.44277e-08
8.4434e-08
8.44403e-08
8.44461e-08
8.44519e-08
8.44573e-08
8.44626e-08
8.44675e-08
8.44724e-08
8.44769e-08
8.44814e-08
8.44856e-08
8.44896e-08
8.44935e-08
8.44971e-08
8.45007e-08
8.4504e-08
8.45074e-08
8.45103e-08
8.45134e-08
8.45162e-08
8.45189e-08
8.45214e-08
8.45238e-08
8.45262e-08
8.45293e-08
7.79067e-08
7.88173e-08
7.96564e-08
8.04313e-08
8.11486e-08
8.18151e-08
8.24357e-08
8.3015e-08
8.3557e-08
8.40651e-08
8.45423e-08
8.49913e-08
8.54145e-08
8.5814e-08
8.61918e-08
8.65496e-08
8.68888e-08
8.72109e-08
8.7517e-08
8.78084e-08
8.80859e-08
8.83505e-08
8.86032e-08
8.88444e-08
8.90751e-08
8.92958e-08
8.95071e-08
8.97096e-08
8.99036e-08
9.00897e-08
9.02683e-08
9.04398e-08
9.06045e-08
9.07628e-08
9.0915e-08
9.10613e-08
9.1202e-08
9.13374e-08
9.14678e-08
9.15932e-08
9.1714e-08
9.18304e-08
9.19425e-08
9.20505e-08
9.21545e-08
9.22548e-08
9.23516e-08
9.24448e-08
9.25347e-08
9.26213e-08
9.27047e-08
9.27853e-08
9.28629e-08
9.29378e-08
9.30101e-08
9.30797e-08
9.31469e-08
9.32117e-08
9.32742e-08
9.33345e-08
9.33926e-08
9.34487e-08
9.35028e-08
9.35549e-08
9.36052e-08
9.36537e-08
9.37005e-08
9.37456e-08
9.37891e-08
9.38311e-08
9.38715e-08
9.39105e-08
9.39481e-08
9.39843e-08
9.40193e-08
9.40529e-08
9.40854e-08
9.41166e-08
9.41468e-08
9.41758e-08
9.42038e-08
9.42308e-08
9.42568e-08
9.42818e-08
9.43059e-08
9.43292e-08
9.43515e-08
9.43731e-08
9.43938e-08
9.44138e-08
9.4433e-08
9.44516e-08
9.44693e-08
9.44866e-08
9.4503e-08
9.45189e-08
9.45342e-08
9.45489e-08
9.45631e-08
9.45766e-08
9.45898e-08
9.46023e-08
9.46145e-08
9.46261e-08
9.46372e-08
9.46481e-08
9.46583e-08
9.46684e-08
9.46777e-08
9.46871e-08
9.46958e-08
9.47043e-08
9.47124e-08
9.47202e-08
9.47277e-08
9.47349e-08
9.47419e-08
9.47484e-08
9.47548e-08
9.47609e-08
9.47668e-08
9.47724e-08
9.47778e-08
9.47829e-08
9.4788e-08
9.47926e-08
9.47973e-08
9.48016e-08
9.48059e-08
9.48098e-08
9.48137e-08
9.48173e-08
9.4821e-08
9.48243e-08
9.48276e-08
9.48306e-08
9.48336e-08
9.48365e-08
9.48391e-08
9.48418e-08
9.48442e-08
9.48467e-08
9.48489e-08
9.48512e-08
9.48532e-08
9.48552e-08
9.4857e-08
9.48588e-08
9.48605e-08
9.48629e-08
8.91739e-08
8.98756e-08
9.05166e-08
9.11033e-08
9.16417e-08
9.21382e-08
9.25972e-08
9.30228e-08
9.34186e-08
9.37875e-08
9.41321e-08
9.44547e-08
9.47573e-08
9.50417e-08
9.53095e-08
9.55621e-08
9.58007e-08
9.60264e-08
9.62402e-08
9.64431e-08
9.66358e-08
9.6819e-08
9.69934e-08
9.71595e-08
9.7318e-08
9.74693e-08
9.76139e-08
9.7752e-08
9.78842e-08
9.80108e-08
9.8132e-08
9.82482e-08
9.83597e-08
9.84666e-08
9.85692e-08
9.86678e-08
9.87624e-08
9.88534e-08
9.89409e-08
9.9025e-08
9.91059e-08
9.91838e-08
9.92587e-08
9.93308e-08
9.94002e-08
9.9467e-08
9.95315e-08
9.95935e-08
9.96533e-08
9.97108e-08
9.97663e-08
9.98197e-08
9.98712e-08
9.99209e-08
9.99687e-08
1.00015e-07
1.00059e-07
1.00102e-07
1.00143e-07
1.00183e-07
1.00222e-07
1.00259e-07
1.00294e-07
1.00329e-07
1.00362e-07
1.00394e-07
1.00425e-07
1.00455e-07
1.00483e-07
1.00511e-07
1.00538e-07
1.00563e-07
1.00588e-07
1.00612e-07
1.00635e-07
1.00657e-07
1.00678e-07
1.00699e-07
1.00719e-07
1.00738e-07
1.00756e-07
1.00774e-07
1.00791e-07
1.00807e-07
1.00823e-07
1.00838e-07
1.00853e-07
1.00867e-07
1.00881e-07
1.00894e-07
1.00907e-07
1.00919e-07
1.0093e-07
1.00942e-07
1.00953e-07
1.00963e-07
1.00973e-07
1.00983e-07
1.00992e-07
1.01001e-07
1.01009e-07
1.01018e-07
1.01026e-07
1.01033e-07
1.01041e-07
1.01048e-07
1.01054e-07
1.01061e-07
1.01067e-07
1.01073e-07
1.01079e-07
1.01085e-07
1.0109e-07
1.01095e-07
1.011e-07
1.01105e-07
1.01109e-07
1.01113e-07
1.01118e-07
1.01122e-07
1.01125e-07
1.01129e-07
1.01133e-07
1.01136e-07
1.01139e-07
1.01142e-07
1.01145e-07
1.01148e-07
1.01151e-07
1.01154e-07
1.01156e-07
1.01159e-07
1.01161e-07
1.01163e-07
1.01165e-07
1.01167e-07
1.01169e-07
1.01171e-07
1.01173e-07
1.01175e-07
1.01176e-07
1.01178e-07
1.01179e-07
1.01181e-07
1.01182e-07
1.01183e-07
1.01185e-07
1.01186e-07
1.01187e-07
1.01188e-07
9.72389e-08
9.77087e-08
9.8134e-08
9.85196e-08
9.88693e-08
9.91895e-08
9.94828e-08
9.97529e-08
1.00003e-07
1.00234e-07
1.00449e-07
1.00649e-07
1.00836e-07
1.0101e-07
1.01174e-07
1.01328e-07
1.01473e-07
1.0161e-07
1.01739e-07
1.01862e-07
1.01978e-07
1.02087e-07
1.02192e-07
1.02291e-07
1.02386e-07
1.02476e-07
1.02562e-07
1.02644e-07
1.02722e-07
1.02797e-07
1.02869e-07
1.02938e-07
1.03004e-07
1.03067e-07
1.03128e-07
1.03186e-07
1.03242e-07
1.03295e-07
1.03347e-07
1.03396e-07
1.03444e-07
1.0349e-07
1.03534e-07
1.03576e-07
1.03617e-07
1.03657e-07
1.03695e-07
1.03731e-07
1.03766e-07
1.038e-07
1.03833e-07
1.03864e-07
1.03895e-07
1.03924e-07
1.03952e-07
1.03979e-07
1.04005e-07
1.04031e-07
1.04055e-07
1.04079e-07
1.04101e-07
1.04123e-07
1.04144e-07
1.04164e-07
1.04184e-07
1.04203e-07
1.04221e-07
1.04239e-07
1.04255e-07
1.04272e-07
1.04288e-07
1.04303e-07
1.04317e-07
1.04331e-07
1.04345e-07
1.04358e-07
1.04371e-07
1.04383e-07
1.04395e-07
1.04406e-07
1.04417e-07
1.04427e-07
1.04437e-07
1.04447e-07
1.04456e-07
1.04465e-07
1.04474e-07
1.04483e-07
1.04491e-07
1.04498e-07
1.04506e-07
1.04513e-07
1.0452e-07
1.04527e-07
1.04533e-07
1.04539e-07
1.04545e-07
1.04551e-07
1.04557e-07
1.04562e-07
1.04567e-07
1.04572e-07
1.04576e-07
1.04581e-07
1.04585e-07
1.0459e-07
1.04593e-07
1.04598e-07
1.04601e-07
1.04605e-07
1.04608e-07
1.04611e-07
1.04615e-07
1.04618e-07
1.04621e-07
1.04623e-07
1.04626e-07
1.04629e-07
1.04631e-07
1.04633e-07
1.04636e-07
1.04638e-07
1.0464e-07
1.04642e-07
1.04644e-07
1.04646e-07
1.04648e-07
1.04649e-07
1.04651e-07
1.04652e-07
1.04654e-07
1.04655e-07
1.04657e-07
1.04658e-07
1.04659e-07
1.04661e-07
1.04662e-07
1.04663e-07
1.04664e-07
1.04665e-07
1.04666e-07
1.04667e-07
1.04668e-07
1.04669e-07
1.04669e-07
1.0467e-07
1.04671e-07
1.04672e-07
1.04672e-07
1.04673e-07
1.02589e-07
1.02849e-07
1.03081e-07
1.03289e-07
1.03474e-07
1.03642e-07
1.03794e-07
1.03933e-07
1.04061e-07
1.04179e-07
1.04287e-07
1.04388e-07
1.04481e-07
1.04568e-07
1.0465e-07
1.04726e-07
1.04798e-07
1.04865e-07
1.04929e-07
1.04989e-07
1.05046e-07
1.051e-07
1.05152e-07
1.052e-07
1.05247e-07
1.05292e-07
1.05334e-07
1.05375e-07
1.05414e-07
1.05451e-07
1.05486e-07
1.05521e-07
1.05553e-07
1.05585e-07
1.05615e-07
1.05644e-07
1.05673e-07
1.057e-07
1.05726e-07
1.05751e-07
1.05775e-07
1.05798e-07
1.0582e-07
1.05842e-07
1.05863e-07
1.05883e-07
1.05903e-07
1.05921e-07
1.05939e-07
1.05957e-07
1.05974e-07
1.0599e-07
1.06006e-07
1.06021e-07
1.06036e-07
1.0605e-07
1.06064e-07
1.06077e-07
1.0609e-07
1.06102e-07
1.06114e-07
1.06125e-07
1.06136e-07
1.06147e-07
1.06157e-07
1.06167e-07
1.06177e-07
1.06186e-07
1.06195e-07
1.06204e-07
1.06213e-07
1.06221e-07
1.06228e-07
1.06236e-07
1.06243e-07
1.0625e-07
1.06257e-07
1.06264e-07
1.0627e-07
1.06276e-07
1.06282e-07
1.06288e-07
1.06293e-07
1.06298e-07
1.06303e-07
1.06308e-07
1.06313e-07
1.06318e-07
1.06322e-07
1.06326e-07
1.0633e-07
1.06334e-07
1.06338e-07
1.06342e-07
1.06345e-07
1.06349e-07
1.06352e-07
1.06355e-07
1.06358e-07
1.06361e-07
1.06364e-07
1.06366e-07
1.06369e-07
1.06371e-07
1.06374e-07
1.06376e-07
1.06378e-07
1.0638e-07
1.06382e-07
1.06384e-07
1.06386e-07
1.06388e-07
1.0639e-07
1.06391e-07
1.06393e-07
1.06395e-07
1.06396e-07
1.06397e-07
1.06399e-07
1.064e-07
1.06401e-07
1.06403e-07
1.06404e-07
1.06405e-07
1.06406e-07
1.06407e-07
1.06408e-07
1.06409e-07
1.0641e-07
1.06411e-07
1.06412e-07
1.06412e-07
1.06413e-07
1.06414e-07
1.06415e-07
1.06415e-07
1.06416e-07
1.06416e-07
1.06417e-07
1.06418e-07
1.06418e-07
1.06419e-07
1.06419e-07
1.0642e-07
1.0642e-07
1.0642e-07
1.06421e-07
1.06421e-07
1.06422e-07
1.06422e-07
1.05911e-07
1.06004e-07
1.06084e-07
1.06153e-07
1.06213e-07
1.06266e-07
1.06312e-07
1.06354e-07
1.06392e-07
1.06427e-07
1.06458e-07
1.06487e-07
1.06514e-07
1.0654e-07
1.06563e-07
1.06585e-07
1.06607e-07
1.06626e-07
1.06645e-07
1.06664e-07
1.06681e-07
1.06697e-07
1.06714e-07
1.06729e-07
1.06744e-07
1.06758e-07
1.06772e-07
1.06786e-07
1.06799e-07
1.06811e-07
1.06824e-07
1.06836e-07
1.06847e-07
1.06859e-07
1.0687e-07
1.06881e-07
1.06891e-07
1.06901e-07
1.06911e-07
1.06921e-07
1.0693e-07
1.0694e-07
1.06949e-07
1.06957e-07
1.06966e-07
1.06974e-07
1.06982e-07
1.0699e-07
1.06998e-07
1.07005e-07
1.07012e-07
1.07019e-07
1.07026e-07
1.07033e-07
1.07039e-07
1.07046e-07
1.07052e-07
1.07058e-07
1.07064e-07
1.07069e-07
1.07075e-07
1.0708e-07
1.07085e-07
1.0709e-07
1.07095e-07
1.071e-07
1.07104e-07
1.07109e-07
1.07113e-07
1.07117e-07
1.07121e-07
1.07125e-07
1.07129e-07
1.07133e-07
1.07136e-07
1.0714e-07
1.07143e-07
1.07146e-07
1.0715e-07
1.07153e-07
1.07155e-07
1.07158e-07
1.07161e-07
1.07164e-07
1.07166e-07
1.07169e-07
1.07171e-07
1.07173e-07
1.07176e-07
1.07178e-07
1.0718e-07
1.07182e-07
1.07184e-07
1.07186e-07
1.07188e-07
1.07189e-07
1.07191e-07
1.07193e-07
1.07194e-07
1.07196e-07
1.07197e-07
1.07198e-07
1.072e-07
1.07201e-07
1.07202e-07
1.07204e-07
1.07205e-07
1.07206e-07
1.07207e-07
1.07208e-07
1.07209e-07
1.0721e-07
1.07211e-07
1.07212e-07
1.07213e-07
1.07213e-07
1.07214e-07
1.07215e-07
1.07216e-07
1.07216e-07
1.07217e-07
1.07218e-07
1.07218e-07
1.07219e-07
1.07219e-07
1.0722e-07
1.0722e-07
1.07221e-07
1.07221e-07
1.07222e-07
1.07222e-07
1.07223e-07
1.07223e-07
1.07224e-07
1.07224e-07
1.07224e-07
1.07225e-07
1.07225e-07
1.07225e-07
1.07226e-07
1.07226e-07
1.07226e-07
1.07226e-07
1.07227e-07
1.07227e-07
1.07227e-07
1.07227e-07
1.07228e-07
1.07228e-07
1.07228e-07
1.07847e-07
1.0782e-07
1.07791e-07
1.07764e-07
1.07736e-07
1.07711e-07
1.07685e-07
1.07661e-07
1.0764e-07
1.0762e-07
1.07601e-07
1.07584e-07
1.07569e-07
1.07554e-07
1.07542e-07
1.0753e-07
1.07519e-07
1.0751e-07
1.07501e-07
1.07494e-07
1.07487e-07
1.07481e-07
1.07476e-07
1.07471e-07
1.07467e-07
1.07464e-07
1.07461e-07
1.07459e-07
1.07457e-07
1.07455e-07
1.07454e-07
1.07453e-07
1.07453e-07
1.07453e-07
1.07453e-07
1.07453e-07
1.07454e-07
1.07454e-07
1.07455e-07
1.07456e-07
1.07457e-07
1.07459e-07
1.0746e-07
1.07462e-07
1.07464e-07
1.07465e-07
1.07467e-07
1.07469e-07
1.07471e-07
1.07473e-07
1.07475e-07
1.07477e-07
1.07479e-07
1.07481e-07
1.07483e-07
1.07485e-07
1.07487e-07
1.07489e-07
1.07491e-07
1.07494e-07
1.07496e-07
1.07498e-07
1.075e-07
1.07502e-07
1.07503e-07
1.07505e-07
1.07507e-07
1.07509e-07
1.07511e-07
1.07513e-07
1.07514e-07
1.07516e-07
1.07518e-07
1.0752e-07
1.07521e-07
1.07523e-07
1.07524e-07
1.07526e-07
1.07527e-07
1.07529e-07
1.0753e-07
1.07531e-07
1.07533e-07
1.07534e-07
1.07535e-07
1.07536e-07
1.07538e-07
1.07539e-07
1.0754e-07
1.07541e-07
1.07542e-07
1.07543e-07
1.07544e-07
1.07545e-07
1.07546e-07
1.07547e-07
1.07548e-07
1.07548e-07
1.07549e-07
1.0755e-07
1.07551e-07
1.07552e-07
1.07552e-07
1.07553e-07
1.07554e-07
1.07554e-07
1.07555e-07
1.07556e-07
1.07556e-07
1.07557e-07
1.07557e-07
1.07558e-07
1.07558e-07
1.07559e-07
1.07559e-07
1.07559e-07
1.0756e-07
1.0756e-07
1.07561e-07
1.07561e-07
1.07562e-07
1.07562e-07
1.07562e-07
1.07562e-07
1.07563e-07
1.07563e-07
1.07563e-07
1.07564e-07
1.07564e-07
1.07564e-07
1.07564e-07
1.07565e-07
1.07565e-07
1.07565e-07
1.07565e-07
1.07566e-07
1.07566e-07
1.07566e-07
1.07566e-07
1.07566e-07
1.07566e-07
1.07567e-07
1.07567e-07
1.07567e-07
1.07567e-07
1.07567e-07
1.07567e-07
1.07567e-07
1.07567e-07
1.07568e-07
1.09286e-07
1.09148e-07
1.09024e-07
1.08914e-07
1.08813e-07
1.0872e-07
1.08635e-07
1.08557e-07
1.08487e-07
1.08423e-07
1.08364e-07
1.08311e-07
1.08262e-07
1.08217e-07
1.08176e-07
1.08138e-07
1.08103e-07
1.08072e-07
1.08043e-07
1.08016e-07
1.07991e-07
1.07968e-07
1.07948e-07
1.07928e-07
1.07911e-07
1.07895e-07
1.0788e-07
1.07866e-07
1.07853e-07
1.07842e-07
1.07831e-07
1.07821e-07
1.07812e-07
1.07804e-07
1.07797e-07
1.0779e-07
1.07783e-07
1.07778e-07
1.07772e-07
1.07768e-07
1.07763e-07
1.07759e-07
1.07756e-07
1.07752e-07
1.07749e-07
1.07747e-07
1.07744e-07
1.07742e-07
1.0774e-07
1.07739e-07
1.07737e-07
1.07736e-07
1.07735e-07
1.07734e-07
1.07733e-07
1.07732e-07
1.07732e-07
1.07731e-07
1.07731e-07
1.07731e-07
1.0773e-07
1.0773e-07
1.0773e-07
1.0773e-07
1.0773e-07
1.0773e-07
1.0773e-07
1.07731e-07
1.07731e-07
1.07731e-07
1.07731e-07
1.07732e-07
1.07732e-07
1.07732e-07
1.07733e-07
1.07733e-07
1.07733e-07
1.07734e-07
1.07734e-07
1.07735e-07
1.07735e-07
1.07735e-07
1.07736e-07
1.07736e-07
1.07737e-07
1.07737e-07
1.07737e-07
1.07738e-07
1.07738e-07
1.07739e-07
1.07739e-07
1.0774e-07
1.0774e-07
1.0774e-07
1.07741e-07
1.07741e-07
1.07741e-07
1.07742e-07
1.07742e-07
1.07742e-07
1.07743e-07
1.07743e-07
1.07743e-07
1.07744e-07
1.07744e-07
1.07744e-07
1.07744e-07
1.07745e-07
1.07745e-07
1.07745e-07
1.07745e-07
1.07746e-07
1.07746e-07
1.07746e-07
1.07746e-07
1.07747e-07
1.07747e-07
1.07747e-07
1.07747e-07
1.07747e-07
1.07748e-07
1.07748e-07
1.07748e-07
1.07748e-07
1.07748e-07
1.07748e-07
1.07748e-07
1.07749e-07
1.07749e-07
1.07749e-07
1.07749e-07
1.07749e-07
1.07749e-07
1.07749e-07
1.07749e-07
1.0775e-07
1.0775e-07
1.0775e-07
1.0775e-07
1.0775e-07
1.0775e-07
1.0775e-07
1.0775e-07
1.0775e-07
1.0775e-07
1.0775e-07
1.0775e-07
1.07751e-07
1.0775e-07
1.07751e-07
1.09849e-07
1.09658e-07
1.09488e-07
1.09338e-07
1.09203e-07
1.0908e-07
1.08968e-07
1.08867e-07
1.08775e-07
1.08692e-07
1.08617e-07
1.08548e-07
1.08485e-07
1.08428e-07
1.08375e-07
1.08327e-07
1.08283e-07
1.08243e-07
1.08205e-07
1.08171e-07
1.0814e-07
1.08111e-07
1.08084e-07
1.08059e-07
1.08037e-07
1.08016e-07
1.07996e-07
1.07978e-07
1.07962e-07
1.07947e-07
1.07933e-07
1.0792e-07
1.07908e-07
1.07897e-07
1.07887e-07
1.07877e-07
1.07869e-07
1.07861e-07
1.07853e-07
1.07846e-07
1.0784e-07
1.07834e-07
1.07829e-07
1.07824e-07
1.0782e-07
1.07816e-07
1.07812e-07
1.07809e-07
1.07806e-07
1.07803e-07
1.078e-07
1.07798e-07
1.07796e-07
1.07794e-07
1.07792e-07
1.0779e-07
1.07789e-07
1.07788e-07
1.07786e-07
1.07785e-07
1.07784e-07
1.07784e-07
1.07783e-07
1.07782e-07
1.07782e-07
1.07781e-07
1.07781e-07
1.07781e-07
1.0778e-07
1.0778e-07
1.0778e-07
1.0778e-07
1.0778e-07
1.0778e-07
1.0778e-07
1.0778e-07
1.0778e-07
1.0778e-07
1.0778e-07
1.0778e-07
1.0778e-07
1.0778e-07
1.0778e-07
1.0778e-07
1.07781e-07
1.07781e-07
1.07781e-07
1.07781e-07
1.07781e-07
1.07782e-07
1.07782e-07
1.07782e-07
1.07782e-07
1.07782e-07
1.07783e-07
1.07783e-07
1.07783e-07
1.07783e-07
1.07783e-07
1.07783e-07
1.07784e-07
1.07784e-07
1.07784e-07
1.07784e-07
1.07784e-07
1.07785e-07
1.07785e-07
1.07785e-07
1.07785e-07
1.07785e-07
1.07785e-07
1.07786e-07
1.07786e-07
1.07786e-07
1.07786e-07
1.07786e-07
1.07786e-07
1.07786e-07
1.07787e-07
1.07787e-07
1.07787e-07
1.07787e-07
1.07787e-07
1.07787e-07
1.07787e-07
1.07787e-07
1.07787e-07
1.07788e-07
1.07788e-07
1.07788e-07
1.07788e-07
1.07788e-07
1.07788e-07
1.07788e-07
1.07788e-07
1.07788e-07
1.07788e-07
1.07788e-07
1.07788e-07
1.07788e-07
1.07788e-07
1.07789e-07
1.07789e-07
1.07789e-07
1.07789e-07
1.07789e-07
1.07789e-07
1.07789e-07
1.07789e-07
1.07789e-07
1.10027e-07
1.09815e-07
1.09628e-07
1.09463e-07
1.09315e-07
1.09181e-07
1.0906e-07
1.0895e-07
1.08851e-07
1.08762e-07
1.0868e-07
1.08606e-07
1.08539e-07
1.08478e-07
1.08422e-07
1.0837e-07
1.08323e-07
1.0828e-07
1.08241e-07
1.08204e-07
1.08171e-07
1.0814e-07
1.08112e-07
1.08086e-07
1.08062e-07
1.0804e-07
1.08019e-07
1.08e-07
1.07983e-07
1.07967e-07
1.07952e-07
1.07938e-07
1.07925e-07
1.07913e-07
1.07903e-07
1.07893e-07
1.07883e-07
1.07875e-07
1.07867e-07
1.0786e-07
1.07853e-07
1.07847e-07
1.07841e-07
1.07836e-07
1.07831e-07
1.07827e-07
1.07823e-07
1.07819e-07
1.07816e-07
1.07813e-07
1.0781e-07