/*--------------------------------*- C++ -*----------------------------------*\
| =========                 |                                                 |
| \\      /  F ield         | OpenFOAM: The Open Source CFD Toolbox           |
|  \\    /   O peration     | Version:  v1912                                 |
|   \\  /    A nd           | Website:  www.openfoam.com                      |
|    \\/     M anipulation  |                                                 |
\*---------------------------------------------------------------------------*/
FoamFile
{
    version     2.0;
    format      ascii;
    class       surfaceScalarField;
    location    "90";
    object      phi;
}
// * * * * * * * * * * * * * * * * * * * * * * * * * * * * * * * * * * * * * //

dimensions      [0 3 -1 0 0 0 0];
oriented        oriented;


internalField   nonuniform List<scalar> 
28285
(
0.0689732
0.0025901
0.0652908
0.00368241
0.0604666
0.00482414
0.0544633
0.00600336
0.0472691
0.00719414
0.0389036
0.0083655
0.0294992
0.00940442
0.0192398
0.0102594
0.0083792
0.0108606
-0.00277311
0.0111523
-0.0138226
0.0110495
-0.0244546
0.010632
-0.0343494
0.00989479
-0.0432449
0.00889549
-0.050951
0.00770611
-0.0573541
0.00640304
-0.0624069
0.00505282
-0.0661174
0.00371054
-0.0685385
0.00242108
-0.0697534
0.00121496
-0.0698174
6.39372e-05
-0.0688477
-0.000969686
-0.0669509
-0.00189677
-0.0642082
-0.00274271
-0.0606855
-0.0035227
-0.0564572
-0.00422832
-0.0515918
-0.00486537
-0.0461621
-0.00542971
-0.0402504
-0.0059117
-0.0339407
-0.00630975
-0.0273294
-0.00661126
-0.0205167
-0.00681275
-0.0136043
-0.00691236
-0.00669176
-0.00691254
0.00012224
-0.006814
0.00674427
-0.00662203
0.0130883
-0.00634399
0.0190724
-0.00598412
0.0246206
-0.00554817
0.0296594
-0.00503887
0.0341212
-0.00446181
0.037947
-0.00382573
0.04108
-0.00313303
0.0434829
-0.00240288
0.0451268
-0.00164394
0.0460079
-0.000881085
0.0461375
-0.000129657
0.0455698
0.000567738
0.0443291
0.00124069
0.0424851
0.00184405
0.040113
0.00237205
0.0372892
0.00282378
0.034103
0.0031862
0.0306236
0.00347946
0.0269327
0.00369091
0.0231009
0.00383176
0.0191963
0.00390456
0.015281
0.00391537
0.0114139
0.00386707
0.00763787
0.00377603
0.00400847
0.0036294
0.000530942
0.00347753
-0.00273258
0.00326352
-0.00581433
0.00308175
-0.00866518
0.00285085
-0.0113274
0.00266226
-0.0137611
0.00243363
-0.0160366
0.00227557
-0.0181
0.00206335
-0.0200126
0.00191263
-0.0217319
0.00171925
-0.0232634
0.00153154
-0.0245688
0.00130541
-0.0255984
0.00102957
-0.0262966
0.00069827
-0.0265747
0.000278012
-0.0263538
-0.000220857
-0.0255422
-0.000811611
-0.0240782
-0.00146403
-0.0219133
-0.00216488
-0.0190322
-0.00288111
-0.0154905
-0.00354164
-0.011367
-0.00412352
-0.00670149
-0.00466551
-0.0016723
-0.00502918
-0.00537239
0.00370008
0.0688001
0.005328
0.0649466
0.00753591
0.0599394
0.00983136
0.0537442
0.0121986
0.046397
0.0145413
0.0379772
0.0167853
0.0285596
0.018822
0.0183346
0.0204843
0.00756396
0.0216313
-0.00344749
0.0221638
-0.0143665
0.0219685
-0.0248557
0.0211213
-0.0346137
0.0196527
-0.0433907
0.0176725
-0.0510048
0.0153202
-0.0573429
0.0127411
-0.0623558
0.0100657
-0.06605
0.00740479
-0.0684723
0.00484338
-0.0697111
0.0024537
-0.0697783
0.000131171
-0.0688578
-0.00189016
-0.0669955
-0.00375909
-0.0642799
-0.00545836
-0.0607799
-0.00702266
-0.056568
-0.00844025
-0.0517112
-0.00972211
-0.0462815
-0.0108594
-0.0403616
-0.0118317
-0.0340366
-0.0126347
-0.0274049
-0.013243
-0.0205685
-0.0136491
-0.013632
-0.0138488
-0.00669601
-0.0138486
0.000139604
-0.0136496
0.00677992
-0.0132623
0.0131386
-0.0127027
0.0191348
-0.0119803
0.0246935
-0.0111068
0.0297417
-0.0100872
0.0342121
-0.0089322
0.0380453
-0.00765886
0.0411839
-0.00627164
0.04359
-0.004809
0.0452346
-0.0032885
0.0461135
-0.00175998
0.0462419
-0.000258062
0.0456644
0.00114516
0.0444137
0.00249146
0.0425588
0.00369889
0.0401755
0.00475536
0.0373404
0.00565892
0.0341429
0.00638367
0.0306525
0.0069699
0.0269512
0.00739217
0.0231096
0.00767341
0.0191959
0.00781818
0.0152725
0.00783881
0.0113981
0.00774149
0.00761636
0.00755776
0.00398226
0.00726351
0.000501395
0.00695839
-0.00276334
0.00652825
-0.00584651
0.00616492
-0.00869642
0.00570076
-0.011358
0.00532385
-0.0137893
0.0048649
-0.0160638
0.00455013
-0.0181261
0.0041256
-0.0200391
0.0038256
-0.0217605
0.00344071
-0.023296
0.00306706
-0.0246083
0.0026177
-0.0256466
0.00206788
-0.0263555
0.00140716
-0.0266439
0.000566345
-0.0264362
-0.000428498
-0.0256356
-0.00161222
-0.0241804
-0.00291924
-0.0220175
-0.00432774
-0.0191115
-0.00578721
-0.0154763
-0.00717676
-0.011145
-0.00845486
-0.00624219
-0.00956831
-0.00118382
-0.0100876
-0.0102082
0.003652
0.0687347
0.00804315
0.0649278
0.0113428
0.0599949
0.0147643
0.0538975
0.018296
0.0466412
0.0217977
0.0382548
0.0251716
0.0288617
0.0282152
0.0186376
0.0307085
0.00782307
0.0324458
-0.00327119
0.033258
-0.0142825
0.0329798
-0.0248738
0.0317126
-0.0347267
0.0295057
-0.0435835
0.0265293
-0.0512584
0.022995
-0.0576381
0.0191209
-0.0626764
0.015104
-0.0663802
0.0111086
-0.0687978
0.00726099
-0.0700166
0.0036725
-0.0701111
0.000225712
-0.0691454
-0.00285588
-0.0672608
-0.00564369
-0.0645253
-0.00819383
-0.061006
-0.010542
-0.0567741
-0.0126722
-0.0518958
-0.0146005
-0.0464429
-0.0163123
-0.040498
-0.0177766
-0.0341454
-0.0189873
-0.0274832
-0.0199051
-0.0206144
-0.020518
-0.0136435
-0.0208196
-0.00667427
-0.0208178
0.000190666
-0.0205146
0.00685867
-0.0199304
0.0132422
-0.0190862
0.0192609
-0.017999
0.0248404
-0.0166863
0.0299079
-0.0151547
0.0343957
-0.01342
0.0382439
-0.011507
0.0413941
-0.00942186
0.0438078
-0.00722268
0.0454543
-0.00493501
0.046329
-0.00263474
0.0464421
-0.000371111
0.0458552
0.0017321
0.0445866
0.00376005
0.0427109
0.00557461
0.0403049
0.00716127
0.037447
0.00851687
0.0342272
0.00960348
0.0307149
0.0104821
0.0269931
0.011114
0.023132
0.0115345
0.0192005
0.0117497
0.0152609
0.0117784
0.0113724
0.01163
0.00757897
0.0113512
0.00393597
0.0109065
0.000446969
0.0104474
-0.00282096
0.00979619
-0.00590792
0.00925188
-0.00875607
0.00854891
-0.0114165
0.0079843
-0.0138432
0.00729161
-0.0161158
0.00682274
-0.0181761
0.00618585
-0.0200902
0.00573976
-0.0218167
0.00516715
-0.0233603
0.0046107
-0.0246864
0.00394373
-0.0257423
0.00312384
-0.0264726
0.00213744
-0.0267876
0.000881329
-0.0266013
-0.000614791
-0.0258198
-0.00239374
-0.0243766
-0.00436238
-0.0222177
-0.00648669
-0.0193132
-0.00869173
-0.0157015
-0.0107885
-0.0114459
-0.0127104
-0.00666624
-0.014348
-0.00146998
-0.0152838
-0.0156491
0.00397093
0.0688992
0.0108555
0.0649881
0.0152539
0.0599475
0.0198049
0.0537348
0.0245087
0.0463749
0.0291575
0.0379232
0.0336234
0.0284757
0.0376626
0.0182152
0.040969
0.00739156
0.0432694
-0.00369193
0.0443415
-0.0146984
0.0439863
-0.0252804
0.0422945
-0.0351264
0.0393517
-0.0439749
0.0353778
-0.0516361
0.0306562
-0.057997
0.0254818
-0.0630141
0.0201211
-0.0666988
0.0147933
-0.0691073
0.00966947
-0.0703265
0.00489174
-0.0703724
0.000271583
-0.0694452
-0.00378314
-0.0675666
-0.00752225
-0.0648329
-0.0109275
-0.0613121
-0.0140628
-0.0570732
-0.0169111
-0.05218
-0.0194937
-0.0467019
-0.0217904
-0.0407215
-0.023757
-0.0343245
-0.0253844
-0.0276116
-0.026618
-0.0206898
-0.0274398
-0.0136667
-0.0278428
-0.00664744
-0.027837
0.000264328
-0.0274263
0.00697548
-0.0266415
0.0133968
-0.0255075
0.0194492
-0.0240514
0.0250597
-0.0222968
0.030156
-0.020251
0.0346705
-0.0179345
0.0385421
-0.0153786
0.0417103
-0.0125901
0.0441345
-0.00964691
0.0457834
-0.00658393
0.0466521
-0.00350343
0.046756
-0.000475037
0.0461429
0.00234517
0.0448449
0.00505803
0.042937
0.00748256
0.0404969
0.00960141
0.0376041
0.0114096
0.0343503
0.0128573
0.030805
0.0140274
0.027052
0.014867
0.0231613
0.0154252
0.0192028
0.0157082
0.0152389
0.0157424
0.0113287
0.0155401
0.00751688
0.015163
0.00386064
0.0145628
0.000360341
0.0139477
-0.00291071
0.0130672
-0.00600323
0.0123444
-0.00884818
0.0113939
-0.0115069
0.0106431
-0.0139264
0.00971109
-0.016196
0.00909227
-0.0182529
0.00824278
-0.0201681
0.00765497
-0.0219014
0.00690041
-0.023457
0.00616633
-0.024804
0.00529071
-0.0258868
0.00420666
-0.0266491
0.00289975
-0.0269971
0.00122935
-0.0268493
-0.000762573
-0.0260986
-0.0031445
-0.0246754
-0.00578556
-0.0225217
-0.00864039
-0.0196003
-0.0116132
-0.0159456
-0.0144432
-0.011599
-0.017057
-0.0066794
-0.0192676
-0.00138245
-0.0205808
-0.0210062
0.00397459
0.0692129
0.013669
0.0653124
0.0191544
0.0602988
0.0248185
0.0541292
0.0306783
0.0467967
0.0364899
0.0383207
0.0420994
0.0288134
0.0471699
0.0184515
0.051331
0.00749034
0.0542306
-0.00375344
0.0555853
-0.0149192
0.0551521
-0.0256508
0.0530261
-0.0356222
0.0493231
-0.0445662
0.0443218
-0.0522922
0.0383822
-0.058688
0.0318776
-0.0637125
0.0251457
-0.067382
0.0184628
-0.0697577
0.0120451
-0.0709261
0.00606011
-0.0709753
0.00032081
-0.0699678
-0.00479061
-0.0680483
-0.00944177
-0.0652775
-0.0136984
-0.0617215
-0.0176187
-0.0574475
-0.0211851
-0.0525168
-0.0244243
-0.0469972
-0.02731
-0.0409701
-0.0297841
-0.0345207
-0.0318338
-0.02775
-0.0333887
-0.020766
-0.0344238
-0.0136781
-0.0349306
-0.00659715
-0.034918
0.000372021
-0.0343955
0.00713626
-0.0334057
0.0136058
-0.0319771
0.0197024
-0.030148
0.0253543
-0.0279487
0.0304893
-0.025386
0.0350392
-0.0224844
0.0389413
-0.0192807
0.0421331
-0.0157818
0.0445723
-0.0120861
0.0462253
-0.00823688
0.0470854
-0.00436355
0.0471664
-0.000556068
0.0465283
0.00298328
0.0451924
0.00639395
0.0432413
0.00943369
0.040755
0.0120877
0.037816
0.0143486
0.034517
0.0161564
0.0309278
0.0176166
0.0271335
0.0186613
0.0232033
0.0193554
0.0192086
0.0197029
0.0152124
0.0197386
0.0112732
0.0194793
0.00743864
0.0189976
0.00376339
0.018238
0.000248319
0.0174628
-0.00302953
0.0163451
-0.00612989
0.0154448
-0.00897022
0.0142342
-0.0116264
0.0132992
-0.0140358
0.0121205
-0.0163005
0.0113569
-0.0183531
0.0102954
-0.0202698
0.00957162
-0.0220125
0.00864317
-0.0235842
0.00773805
-0.0249587
0.00666516
-0.0260775
0.00532545
-0.0268835
0.00370581
-0.0272824
0.00162824
-0.0271822
-0.000862814
-0.0264728
-0.00385387
-0.0250782
-0.00718016
-0.0229358
-0.0107828
-0.0200016
-0.0145474
-0.0163136
-0.0181312
-0.0119219
-0.0214486
-0.00697256
-0.0242169
-0.00155629
-0.025997
-0.0266572
0.0040947
0.069681
0.0165489
0.0657189
0.0231165
0.0606415
0.0298958
0.0543932
0.0369266
0.0469791
0.0439041
0.0384304
0.0506481
0.0288407
0.0567596
0.0183853
0.0617864
0.00731725
0.0652986
-0.00404794
0.0669505
-0.015347
0.0664512
-0.0262041
0.0638831
-0.0362802
0.0593993
-0.0452974
0.0533389
-0.0530618
0.0461466
-0.0594656
0.0382813
-0.0644759
0.030156
-0.0681177
0.0221046
-0.0704638
0.0143913
-0.071595
0.0071913
-0.0715742
0.00030003
-0.0705688
-0.00579598
-0.0686239
-0.0113867
-0.065827
-0.0164953
-0.0622428
-0.0212029
-0.0579354
-0.0254925
-0.0529633
-0.0293964
-0.0473914
-0.0328819
-0.0413011
-0.0358744
-0.0347791
-0.0383558
-0.0279291
-0.0402386
-0.0208635
-0.0414894
-0.0136948
-0.0420993
-0.00653521
-0.0420776
0.000505697
-0.0414364
0.00733708
-0.0402371
0.0138667
-0.0385066
0.020018
-0.0362994
0.0257209
-0.0336517
0.0309039
-0.030569
0.0354987
-0.0270791
0.0394404
-0.0232224
0.042663
-0.0190045
0.0451212
-0.0145442
0.0467786
-0.00989431
0.0476281
-0.00521308
0.0476867
-0.000614651
0.0470098
0.0036602
0.0456248
0.00777892
0.0436189
0.0114396
0.0410746
0.014632
0.0380773
0.0173459
0.0347211
0.0195125
0.0310767
0.0212611
0.0272302
0.0225078
0.0232506
0.023335
0.0192106
0.0237429
0.0151735
0.0237757
0.0111979
0.0234549
0.00733357
0.0228619
0.00363549
0.0219361
0.0001056
0.0209926
-0.00318211
0.0196328
-0.00629074
0.0185534
-0.00912597
0.0170694
-0.0117784
0.0159517
-0.0141746
0.0145167
-0.0164325
0.0136149
-0.0184794
0.0123423
-0.0203969
0.0114891
-0.0221505
0.0103968
-0.0237418
0.00932942
-0.0251511
0.00807437
-0.0263159
0.00649029
-0.0271768
0.00456672
-0.0276343
0.00208571
-0.0275994
-0.000897694
-0.0269442
-0.00450902
-0.0255874
-0.00853694
-0.0234607
-0.0129095
-0.0205095
-0.0174986
-0.0167718
-0.021869
-0.0122911
-0.0259293
-0.00719671
-0.0293114
-0.0016171
-0.0315766
-0.0324152
0.00414096
0.0703647
0.0194328
0.0664079
0.0270733
0.0613425
0.0349613
0.055102
0.043167
0.0476607
0.0513454
0.0390297
0.0592791
0.02931
0.0664793
0.0186763
0.0724201
0.00739217
0.0765828
-0.00421023
0.0785529
-0.0157451
0.0779861
-0.0268209
0.0749589
-0.0370817
0.0696602
-0.0462385
0.0624956
-0.0540929
0.054001
-0.0605375
0.0447259
-0.0655451
0.0351637
-0.0691506
0.0257101
-0.0714402
0.0166808
-0.0724906
0.00824172
-0.0724265
0.00023589
-0.0713329
-0.00688957
-0.0693282
-0.0133913
-0.0664788
-0.0193448
-0.0628456
-0.0248361
-0.058489
-0.0298491
-0.0534636
-0.0344218
-0.0478307
-0.0385148
-0.0416699
-0.0420351
-0.0350673
-0.0449584
-0.0281284
-0.0471776
-0.0209688
-0.0486491
-0.0137043
-0.0493638
-0.00645221
-0.0493296
0.00067408
-0.0485627
0.0075836
-0.0471466
0.014184
-0.0451071
0.0204005
-0.0425158
0.0261647
-0.0394159
0.0314061
-0.0358103
0.036055
-0.0317281
0.0400446
-0.027212
0.0433046
-0.0222645
0.045786
-0.0170257
0.0474495
-0.0115577
0.0482856
-0.0060492
0.0483158
-0.000644835
0.0475929
0.00438306
0.0461487
0.00922311
0.0440763
0.013512
0.0414615
0.0172468
0.0383937
0.0204136
0.0349689
0.0229374
0.0312581
0.0249719
0.0273492
0.0264167
0.0233101
0.0273741
0.0192156
0.0278374
0.0151297
0.0278616
0.0111102
0.0274745
0.00721124
0.0267608
0.00348408
0.0256632
-6.92745e-05
0.024546
-0.00336531
0.0229288
-0.00648294
0.021671
-0.0093123
0.0198988
-0.0119585
0.0185979
-0.0143388
0.016897
-0.0165872
0.0158633
-0.0186271
0.0143821
-0.020545
0.013407
-0.0223115
0.0121633
-0.0239264
0.0109443
-0.0253767
0.00952466
-0.0265977
0.00771137
-0.0275268
0.00549576
-0.0280586
0.0026175
-0.0281027
-0.000853594
-0.0275144
-0.00509735
-0.0262052
-0.00984612
-0.0240992
-0.0150154
-0.0211292
-0.0204686
-0.0173353
-0.0256629
-0.0127627
-0.0305019
-0.00754752
-0.0345265
-0.00181211
-0.037312
-0.0384001
0.0041728
0.0711546
0.0223604
0.0671666
0.0310613
0.0620708
0.0400571
0.0557845
0.0494533
0.0482814
0.0588485
0.0395619
0.0679986
0.029709
0.0763323
0.0188934
0.0832357
0.00738285
0.0880933
-0.0044766
0.0904123
-0.0162773
0.0897868
-0.0275977
0.0862793
-0.0380588
0.0801213
-0.0473561
0.0717929
-0.0552889
0.0619339
-0.0617574
0.0511944
-0.0667466
0.0401529
-0.0703059
0.0292694
-0.0725374
0.0189122
-0.0735077
0.00921205
-0.0733592
8.73962e-05
-0.0722199
-0.00802883
-0.0701591
-0.0154521
-0.0672564
-0.0222475
-0.0635705
-0.0285219
-0.0591579
-0.0342618
-0.0540688
-0.0395108
-0.0483604
-0.0442232
-0.0421115
-0.048284
-0.0354094
-0.0516605
-0.028362
-0.0542251
-0.0210896
-0.0559214
-0.0137119
-0.0567415
-0.00635217
-0.0566894
0.000872324
-0.0557872
0.00787302
-0.0541473
0.0145555
-0.0517895
0.0208472
-0.0488076
0.0266823
-0.045251
0.0319916
-0.0411196
0.0367047
-0.0364412
0.0407514
-0.0312587
0.0440566
-0.0255697
0.0465661
-0.0195352
0.048237
-0.0132286
0.0490573
-0.00686949
0.0490549
-0.000642484
0.0482754
0.00516255
0.0467606
0.010738
0.0446088
0.0156638
0.0419104
0.0199451
0.0387597
0.0235643
0.035254
0.0264431
0.0314653
0.0287605
0.0274832
0.0303988
0.0233743
0.031483
0.0192157
0.0319959
0.0150722
0.0320052
0.0110008
0.0315458
0.00706122
0.0307004
0.00329917
0.0294253
-0.000276002
0.0281212
-0.0035845
0.0262373
-0.00671103
0.0247976
-0.00953403
0.0227218
-0.0121709
0.0212348
-0.0145322
0.0192582
-0.0167676
0.0180987
-0.0187987
0.0164132
-0.0207157
0.015324
-0.0224958
0.0139434
-0.0241377
0.0125862
-0.0256361
0.0110231
-0.0269246
0.00899984
-0.0279342
0.00650534
-0.0285526
0.00323591
-0.0286918
-0.000714345
-0.0281866
-0.00560258
-0.0269367
-0.011096
-0.0248585
-0.0170937
-0.0218704
-0.0234567
-0.0180127
-0.0295206
-0.0133264
-0.0351881
-0.00794035
-0.0399126
-0.00199462
-0.0432578
-0.0446053
0.00421053
0.072171
0.0252875
0.0681956
0.0350367
0.0631139
0.0451388
0.0568227
0.0557445
0.0492636
0.0664075
0.0404259
0.0768363
0.0303904
0.0863678
0.0193279
0.0942982
0.00751678
0.0999044
-0.00467707
0.102606
-0.0168167
0.101926
-0.028452
0.0979146
-0.0391776
0.0908468
-0.04867
0.0812853
-0.0567212
0.0699851
-0.0632356
0.0577087
-0.068209
0.0451263
-0.0717069
0.0327674
-0.0738544
0.0210597
-0.0747088
0.0100664
-0.0744705
-0.000150848
-0.0732346
-0.00926472
-0.0710962
-0.0175905
-0.0681253
-0.0252184
-0.0643765
-0.0322708
-0.0599001
-0.0387382
-0.0547407
-0.0446702
-0.04895
-0.0500139
-0.0426046
-0.0546295
-0.0357919
-0.0584732
-0.028622
-0.0613949
-0.0212215
-0.0633219
-0.013715
-0.064248
-0.00623217
-0.0641723
0.00110506
-0.0631244
0.00820908
-0.0612514
0.0149841
-0.0585646
0.0213614
-0.0551848
0.0272771
-0.0511667
0.0326645
-0.046507
0.0374519
-0.0412286
0.0415655
-0.0353723
0.0449241
-0.0289282
0.0474673
-0.0220784
0.049147
-0.0149083
0.0499492
-0.00767172
0.0499089
-0.000602198
0.0490627
0.00600882
0.0474651
0.0123355
0.0452208
0.0179081
0.0424253
0.0227406
0.0391788
0.0268108
0.0355801
0.0300419
0.0317024
0.0326382
0.0276364
0.0344648
0.0234473
0.0356721
0.0192155
0.0362277
0.0150055
0.0362152
0.0108743
0.035677
0.00688862
0.0346861
0.00308616
0.0332278
-0.000513259
0.0317206
-0.00383815
0.0295622
-0.0069737
0.0279331
-0.00978941
0.0255375
-0.0124124
0.0238578
-0.014752
0.0215977
-0.01697
0.0203167
-0.0189903
0.0184336
-0.0209054
0.017239
-0.0226998
0.0157378
-0.0243722
0.0142587
-0.025925
0.0125758
-0.0272926
0.0103675
-0.0283962
0.00760889
-0.0291207
0.00396041
-0.0293688
-0.000466173
-0.0289636
-0.0060078
-0.0277861
-0.0122735
-0.0257429
-0.0191369
-0.0227354
-0.0264642
-0.0188032
-0.0334527
-0.0139865
-0.0400049
-0.00841481
-0.0454843
-0.00224746
-0.0494251
-0.0510726
0.00421987
0.0732988
0.0282323
0.0693252
0.0390103
0.0642469
0.0502171
0.0579369
0.0620545
0.0503213
0.0740232
0.0413661
0.0857915
0.0311355
0.0965984
0.0197966
0.105637
0.00763918
0.112062
-0.00494429
0.11519
-0.0174814
0.114464
-0.0294801
0.109913
-0.0405014
0.101868
-0.0502009
0.0909848
-0.0583668
0.078151
-0.0649147
0.0642567
-0.0698581
0.0500697
-0.0732823
0.0361915
-0.0753342
0.0231116
-0.0760603
0.0107925
-0.0757199
-0.000491272
-0.0743911
-0.0105934
-0.0721678
-0.0198139
-0.0691209
-0.0282653
-0.0653006
-0.0360911
-0.0607509
-0.0432878
-0.0555104
-0.0499107
-0.0496241
-0.0559002
-0.0431665
-0.0610871
-0.0362258
-0.065414
-0.0289148
-0.068706
-0.0213677
-0.070869
-0.0137139
-0.0719018
-0.00609188
-0.0717943
0.00137154
-0.0705878
0.0085913
-0.0684711
0.0154698
-0.065443
0.0219427
-0.0616578
0.0279485
-0.0571725
0.0334241
-0.0519826
0.0382965
-0.046101
0.0424875
-0.0395633
0.0459086
-0.0323494
0.0484915
-0.0246612
0.0501829
-0.0165997
0.0509643
-0.00845313
0.0508799
-0.000517845
0.0499559
0.00693287
0.0482623
0.0140291
0.0459109
0.0202595
0.0430041
0.0256474
0.0396486
0.0301663
0.0359442
0.0337462
0.0319658
0.0366166
0.027805
0.0386256
0.0235252
0.0399519
0.0192103
0.0405427
0.0149247
0.0405007
0.0107252
0.0398766
0.00668712
0.0387241
0.00283864
0.0370762
-0.000785818
0.035345
-0.00413082
0.0329072
-0.0072749
0.0310772
-0.0100824
0.028345
-0.0126861
0.0264615
-0.0150014
0.023913
-0.0171967
0.022512
-0.0192037
0.0204406
-0.0211147
0.01915
-0.0229222
0.0175453
-0.0246284
0.015965
-0.0262421
0.0141894
-0.0277014
0.0118268
-0.0289132
0.00882066
-0.0297611
0.00480831
-0.0301332
-9.41075e-05
-0.0298495
-0.00629146
-0.0287595
-0.0133635
-0.0267602
-0.0211361
-0.0237348
-0.0294896
-0.0197215
-0.037466
-0.0147565
-0.0449699
-0.00896864
-0.0512722
-0.00253622
-0.0558575
-0.05784
0.00423113
0.0746274
0.0311653
0.0706864
0.0429513
0.0656406
0.0552629
0.0593326
0.0683625
0.0516553
0.0817005
0.0425599
0.0948869
0.0320985
0.10706
0.0204354
0.1173
0.00787183
0.124625
-0.00516988
0.128231
-0.0181757
0.127469
-0.030607
0.122345
-0.0419859
0.113247
-0.0519405
0.100939
-0.0602501
0.0864605
-0.0668424
0.0708489
-0.0717489
0.0549762
-0.0750798
0.0395225
-0.0770008
0.0250326
-0.0775777
0.0113695
-0.0771081
-0.000960882
-0.0756637
-0.0120378
-0.0733435
-0.022134
-0.0702132
-0.0313956
-0.0663167
-0.0399876
-0.0616901
-0.0479144
-0.0563636
-0.0552373
-0.0503745
-0.0618892
-0.0437945
-0.0676671
-0.0367116
-0.0724968
-0.0292424
-0.0761752
-0.0215298
-0.0785816
-0.0137109
-0.0797207
-0.00593211
-0.0795731
0.00167135
-0.0781913
0.00901907
-0.0758189
0.016011
-0.072435
0.0225896
-0.0682363
0.0286949
-0.0632778
0.0342694
-0.0575571
0.0392379
-0.0510695
0.0435177
-0.0438431
0.0470116
-0.0358433
0.0496418
-0.0272914
0.0513475
-0.0183054
0.0521053
-0.00921094
0.0519704
-0.000382928
0.0509564
0.00794685
0.0491525
0.0158331
0.0466785
0.0227335
0.0436452
0.0286807
0.0401669
0.0336446
0.0363441
0.0375691
0.0322535
0.0407071
0.0279868
0.0428923
0.0236051
0.0443336
0.0191974
0.0449504
0.0148262
0.044872
0.0105507
0.0441521
0.00645354
0.0428213
0.00255417
0.0409756
-0.00109593
0.0389951
-0.00446702
0.0362783
-0.0076185
0.0342287
-0.0104175
0.0311441
-0.0129945
0.0290385
-0.015283
0.0262015
-0.0174487
0.0246777
-0.0194384
0.0224304
-0.0213428
0.0210544
-0.0231617
0.0193641
-0.0249047
0.017708
-0.0265857
0.0158705
-0.0281512
0.0133923
-0.0294855
0.0101549
-0.0304815
0.00580431
-0.0309926
0.000416997
-0.0308512
-0.0064328
-0.0298672
-0.0143475
-0.0279214
-0.023082
-0.0248796
-0.0325314
-0.0207755
-0.0415701
-0.0156409
-0.0501046
-0.00960975
-0.0573033
-0.00288297
-0.0625843
-0.0649425
0.00421961
0.0760818
0.0340884
0.0721813
0.0468518
0.067178
0.0602662
0.0608804
0.0746601
0.0531529
0.0894279
0.0439165
0.104123
0.0332032
0.117773
0.0211719
0.129332
0.00813904
0.137658
-0.00543442
0.141805
-0.0189843
0.141019
-0.0319127
0.135273
-0.0436936
0.125028
-0.0539266
0.111172
-0.0623828
0.0949167
-0.0690097
0.0774759
-0.0738648
0.0598313
-0.0770896
0.0427473
-0.0788433
0.0267862
-0.0792676
0.0117937
-0.0786521
-0.00157638
-0.077078
-0.013612
-0.0746482
-0.0245638
-0.0714247
-0.0346192
-0.0674448
-0.0439675
-0.0627341
-0.052625
-0.0573134
-0.060658
-0.0512111
-0.0679915
-0.0444949
-0.0743834
-0.0372535
-0.0797382
-0.0296074
-0.0838213
-0.0217103
-0.0864786
-0.0137064
-0.0877246
-0.00575231
-0.0875272
0.00200537
-0.085949
0.0094936
-0.0833071
0.0166087
-0.0795501
0.0233029
-0.0749305
0.0295175
-0.0694925
0.0352017
-0.0632412
0.0402788
-0.0561466
0.0446603
-0.0482247
0.0482393
-0.0394224
0.0509252
-0.0299773
0.0526482
-0.0200284
0.0533797
-0.00994245
0.0531872
-0.000190437
0.0520695
0.00906458
0.0501397
0.0177628
0.0475266
0.0253466
0.044351
0.0318563
0.0407358
0.0372599
0.0367815
0.0415234
0.0325672
0.0449214
0.0281834
0.0472761
0.0236897
0.0488272
0.0191785
0.0494616
0.0147122
0.0493383
0.010352
0.0485122
0.00618804
0.0469853
0.00222985
0.0449338
-0.00144704
0.042672
-0.00485361
0.0396849
-0.00800636
0.0373814
-0.0107993
0.033937
-0.0133423
0.0315815
-0.0156015
0.0284606
-0.0177289
0.0268051
-0.0196967
0.0243982
-0.0215914
0.0229491
-0.0234175
0.0211903
-0.0251999
0.0194903
-0.0269547
0.0176253
-0.0286395
0.0150772
-0.0301159
0.0116314
-0.0312821
0.00697051
-0.0319488
0.00108361
-0.0319699
-0.00641166
-0.0311178
-0.0151996
-0.0292362
-0.0249636
-0.0261824
-0.0355853
-0.0219794
-0.0457731
-0.0166538
-0.0554302
-0.0103501
-0.063607
-0.00328838
-0.069646
-0.0724219
0.00419097
0.0777129
0.0369774
0.0738851
0.0506796
0.0689566
0.0651948
0.0626928
0.0809239
0.0549179
0.0972029
0.0455259
0.113515
0.0345274
0.128771
0.022075
0.141784
0.00850202
0.151231
-0.00568478
0.155992
-0.0198629
0.155197
-0.033365
0.148775
-0.0456098
0.137273
-0.0561625
0.121725
-0.0647816
0.103536
-0.0714397
0.084134
-0.0762238
0.0646154
-0.0793213
0.0458447
-0.0808469
0.0283119
-0.0811138
0.0120607
-0.0803259
-0.00236433
-0.0786027
-0.0153351
-0.0760507
-0.0271157
-0.0727277
-0.0379422
-0.0686625
-0.0480328
-0.0638677
-0.0574198
-0.0583505
-0.0661752
-0.0521294
-0.0742125
-0.0452677
-0.0812452
-0.0378537
-0.0871522
-0.0300132
-0.0916618
-0.0219114
-0.0945804
-0.0137032
-0.0959327
-0.00555828
-0.0956721
0.00236721
-0.0938744
0.0100058
-0.0909457
0.0172515
-0.0867958
0.0240704
-0.0817494
0.0304035
-0.0758255
0.0362093
-0.069047
0.0414085
-0.0613458
0.0459069
-0.052723
0.0495855
-0.043101
0.0523376
-0.0327294
0.0540824
-0.0217733
0.0547852
-0.0106452
0.0545238
7.10168e-05
0.0532904
0.010298
0.0512172
0.019836
0.0484458
0.0281181
0.0451097
0.0351924
0.0413416
0.041028
0.0372418
0.0456231
0.0328914
0.0492719
0.0283777
0.0517898
0.0237589
0.053446
0.0191335
0.054087
0.0145601
0.0539117
0.0101072
0.0529651
0.0058692
0.0512233
0.00184551
0.0489575
-0.00186333
0.0463809
-0.00530637
0.0431279
-0.00845837
0.0405334
-0.0112496
0.0367282
-0.0137482
0.0340801
-0.0159717
0.0306842
-0.0180493
0.0288827
-0.0199881
0.026337
-0.0218669
0.0248279
-0.023694
0.0230174
-0.025514
0.0213103
-0.0273499
0.0194612
-0.0291732
0.0169004
-0.0308014
0.0132596
-0.0321636
0.00833265
-0.0330289
0.00194894
-0.0332107
-0.00622989
-0.0325281
-0.0158822
-0.0307203
-0.0267714
-0.0276619
-0.0386436
-0.0233529
-0.0500821
-0.0178106
-0.0609726
-0.011202
-0.0702155
-0.00376693
-0.0770811
-0.0803221
0.00413331
0.0794669
0.0398268
0.0757291
0.0544174
0.0708915
0.0700323
0.0646754
0.08714
0.0568633
0.105015
0.0473081
0.123071
0.035999
0.140081
0.0230807
0.154702
0.00890421
0.165408
-0.00596869
0.170864
-0.0208514
0.17008
-0.0349962
0.16292
-0.0477556
0.150032
-0.0586579
0.132627
-0.067445
0.112323
-0.0741261
0.0908151
-0.0788194
0.0693087
-0.0817587
0.0487841
-0.0830317
0.0295849
-0.0831145
0.0121434
-0.0821243
-0.00335457
-0.0802222
-0.0172372
-0.0775263
-0.0298117
-0.0740906
-0.0413779
-0.0699319
-0.0521914
-0.0650473
-0.0623044
-0.0594276
-0.0717949
-0.0530793
-0.0805608
-0.0460593
-0.0882652
-0.0384577
-0.0947538
-0.0304085
-0.099711
-0.0220896
-0.102899
-0.0136654
-0.104357
-0.00531769
-0.10402
0.00278698
-0.101979
0.0105821
-0.0987409
0.017959
-0.0941727
0.0249043
-0.0886948
0.0313597
-0.0822808
0.0372946
-0.074982
0.0426288
-0.0666799
0.0472586
-0.0573529
0.0510516
-0.046894
0.0538807
-0.0355585
0.0556515
-0.023544
0.0563246
-0.0113184
0.055987
0.000408657
0.0546167
0.0116682
0.0523803
0.0220724
0.0494302
0.0310682
0.0459153
0.0387072
0.0419793
0.044964
0.0377216
0.0498808
0.0332259
0.0537676
0.0285727
0.056443
0.0238219
0.0581968
0.019072
0.0588369
0.0143844
0.0585993
0.00983232
0.0575172
0.00551066
0.055545
0.00142099
0.0530471
-0.00232495
0.0501268
-0.00580307
0.046606
-0.00894675
0.0436771
-0.0117345
0.039516
-0.0141905
0.0365361
-0.0163729
0.0328665
-0.0183788
0.0308886
-0.0202771
0.0282353
-0.0221318
0.0266826
-0.023951
0.0248366
-0.0258082
0.0231674
-0.027722
0.0213751
-0.029689
0.0188674
-0.0315072
0.0150779
-0.0330857
0.00991114
-0.0341714
0.0030346
-0.0345367
-0.0058646
-0.0340608
-0.016358
-0.0323409
-0.0284913
-0.029294
-0.0416905
-0.024878
-0.0544982
-0.0191026
-0.0667479
-0.0121558
-0.0771624
-0.00430048
-0.0849364
-0.0886986
0.00407596
0.0285732
0.0408253
0.0272773
0.0557133
0.0255929
0.0717167
0.0234128
0.0893201
0.0206477
0.10778
0.017234
0.126484
0.013162
0.144153
0.00847851
0.159386
0.00330818
0.170578
-0.00213727
0.17631
-0.00759496
0.175538
-0.0127798
0.168105
-0.0174424
0.154695
-0.0214037
0.136589
-0.024565
0.115484
-0.0269404
0.0931905
-0.0285806
0.0709489
-0.0295691
0.0497725
-0.0299658
0.0299817
-0.0299407
0.0121183
-0.029535
-0.00376024
-0.0288129
-0.0179593
-0.0278182
-0.0308064
-0.0265707
-0.0426254
-0.0250731
-0.0536891
-0.0233189
-0.0640586
-0.0213006
-0.0738132
-0.0190177
-0.0828437
-0.0164888
-0.0907941
-0.0137463
-0.0974963
-0.0108401
-0.102617
-0.00783698
-0.105902
-0.00479864
-0.107395
-0.00179177
-0.107027
0.00112097
-0.104892
0.00391757
-0.101537
0.00655887
-0.096814
0.00904633
-0.0911822
0.0113596
-0.0845941
0.0134914
-0.0771138
0.0154129
-0.0686015
0.0170857
-0.0590256
0.0184588
-0.0482671
0.0194811
-0.0365807
0.0201153
-0.0241782
0.0203456
-0.0115487
0.0202053
0.000548957
0.0196845
0.012189
0.01885
0.0229069
0.0177593
0.0321588
0.0164694
0.0399972
0.0150336
0.0463998
0.0134873
0.0514271
0.0118596
0.0553953
0.0101786
0.058124
0.00846448
0.0599109
0.00675359
0.0605478
0.00506642
0.0602865
0.00343277
0.0591508
0.00188419
0.0570936
0.000419858
0.0545115
-0.000913651
0.0514603
-0.00214975
0.0478421
-0.00325486
0.0447822
-0.00423887
0.0405
-0.00509824
0.0373955
-0.00585624
0.0336245
-0.00654342
0.0315758
-0.00720446
0.0288964
-0.00785184
0.02733
-0.00849063
0.0254754
-0.00915431
0.0238311
-0.00985645
0.0220772
-0.0105953
0.0196062
-0.0112832
0.0157658
-0.011906
0.0105339
-0.0123562
0.0034848
-0.0125394
-0.00568143
-0.0124257
-0.0164717
-0.0118418
-0.0290751
-0.0107721
-0.0427603
-0.0091829
-0.0560873
-0.007078
-0.0688528
-0.0045322
-0.0797082
-0.0016445
-0.0878241
-0.0917887
0.00144561
0.028822
0.0418152
0.0275445
0.0569909
0.0258761
0.073385
0.0237023
0.0914939
0.0209378
0.110545
0.0175088
0.129913
0.0134005
0.148261
0.00865624
0.16413
0.00339941
0.175835
-0.00215333
0.181863
-0.00772762
0.181112
-0.0130203
0.173397
-0.017768
0.159442
-0.0217849
0.140606
-0.024969
0.118668
-0.0273434
0.0955649
-0.0289649
0.0725704
-0.0299149
0.0507226
-0.0302837
0.0303504
-0.0302259
0.0120605
-0.0297912
-0.00419493
-0.0290462
-0.0187043
-0.0280351
-0.0318175
-0.0267745
-0.043886
-0.0252652
-0.0551984
-0.0234986
-0.0658253
-0.0214641
-0.0758477
-0.0191597
-0.0851481
-0.016603
-0.0933508
-0.0138275
-0.100272
-0.010885
-0.10556
-0.00784472
-0.108943
-0.00477057
-0.110469
-0.00173131
-0.110066
0.00120643
-0.10783
0.00402454
-0.104356
0.0066822
-0.0994716
0.00918528
-0.0936853
0.0115136
-0.0869224
0.0136621
-0.0792623
0.0156019
-0.0705413
0.0172927
-0.0607164
0.0186817
-0.0496561
0.0197143
-0.0376133
0.0203512
-0.0248152
0.0205761
-0.0117735
0.0204228
0.000702197
0.019881
0.0127309
0.0190217
0.0237663
0.0179049
0.0332756
0.0165895
0.0413126
0.0151308
0.0478585
0.0135641
0.0529938
0.011919
0.0570404
0.010221
0.0598221
0.00849176
0.0616401
0.00676621
0.0622734
0.00506557
0.0619871
0.00342363
0.0607928
0.00186529
0.0586519
0.000393478
0.0559833
-0.000943545
0.0527974
-0.00218272
0.0490813
-0.00328719
0.0458867
-0.00427227
0.041485
-0.00512866
0.0382519
-0.00587993
0.0343758
-0.00655868
0.0322546
-0.00721625
0.0295539
-0.007859
0.0279727
-0.008498
0.0261144
-0.00916917
0.0245022
-0.00988518
0.0227932
-0.0106345
0.0203556
-0.0113587
0.01649
-0.0120255
0.0112007
-0.0125039
0.00396323
-0.0127203
-0.00546502
-0.0126353
-0.0165567
-0.0120622
-0.0296483
-0.0109944
-0.043828
-0.0093867
-0.057695
-0.0072425
-0.070997
-0.00464253
-0.0823082
-0.0016934
-0.0907732
-0.0949468
0.00146469
0.0290772