/*--------------------------------*- C++ -*----------------------------------*\
| =========                 |                                                 |
| \\      /  F ield         | OpenFOAM: The Open Source CFD Toolbox           |
|  \\    /   O peration     | Version:  v1912                                 |
|   \\  /    A nd           | Website:  www.openfoam.com                      |
|    \\/     M anipulation  |                                                 |
\*---------------------------------------------------------------------------*/
FoamFile
{
    version     2.0;
    format      ascii;
    class       surfaceScalarField;
    location    "50";
    object      alphaPhi0.water;
}
// * * * * * * * * * * * * * * * * * * * * * * * * * * * * * * * * * * * * * //

dimensions      [0 3 -1 0 0 0 0];
oriented        oriented;


internalField   nonuniform List<scalar> 
28285
(
0.0303902
-0.00104221
0.0314695
-0.00107925
0.0325845
-0.001115
0.0337334
-0.00114889
0.0349138
-0.00118045
0.0361235
-0.0012097
0.0373597
-0.00123617
0.0386196
-0.00125988
0.0399002
-0.0012806
0.0411992
-0.00129897
0.0425141
-0.00131494
0.0438426
-0.00132852
0.0451827
-0.00134006
0.0465325
-0.00134979
0.0478899
-0.00135746
0.0492536
-0.0013637
0.0506217
-0.00136803
0.0519916
-0.00136995
0.053362
-0.00137035
0.0547301
-0.00136813
0.0560935
-0.00136338
0.0574484
-0.00135494
0.0587914
-0.00134295
0.0601202
-0.00132879
0.06143
-0.00130989
0.062715
-0.00128493
0.0639722
-0.0012572
0.0651972
-0.001225
0.0663815
-0.00118432
0.0675219
-0.00114039
0.0686156
-0.00109374
0.0696507
-0.00103505
0.0706213
-0.000970604
0.0715304
-0.000909158
0.072367
-0.000836533
0.0731172
-0.000750259
0.0737864
-0.000669159
0.074374
-0.000587657
0.0748604
-0.000486315
0.0752472
-0.000386804
0.0755464
-0.000299267
0.0757354
-0.000188946
0.0758079
-7.2497e-05
0.0757863
2.1623e-05
0.0756595
0.00012673
0.075415
0.000244484
0.0750698
0.000345221
0.0746222
0.000447613
0.0740671
0.00055509
0.0734158
0.000651334
0.0726715
0.000744268
0.0718424
0.000829096
0.0709426
0.00089983
0.0699543
0.000988237
0.0688819
0.00107246
0.0677557
0.00112621
0.0665825
0.00117314
0.0653548
0.0012277
0.0640913
0.00126351
0.0627873
0.00130407
0.0614558
0.00133146
0.0601368
0.00131899
0.0587992
0.00133764
0.0574543
0.00134487
0.056143
0.00131133
0.0548506
0.00129232
0.0535934
0.00125725
0.0523664
0.00122702
0.0511745
0.0011919
0.0500718
0.00110267
0.0490109
0.00106086
0.0479932
0.00101777
0.0470951
0.000898101
0.0462726
0.000822438
0.0455
0.000772575
0.0448474
0.000652685
0.0443041
0.000543303
0.043803
0.000501097
0.0434353
0.000367647
0.0431939
0.000241438
0.04301
0.000183881
0.0429457
6.42739e-05
0.0430325
-8.67998e-05
0.0432172
-0.000184685
0.0435065
-0.000289259
0.0439401
-0.000433599
0.0445239
-0.000583868
0.0452247
-0.000700771
0.0460143
-0.000789584
0.0468567
-0.000842437
0.0476838
-0.000827079
0.0483803
-0.000696481
0.0488237
-0.000443377
0.0488907
-6.70508e-05
0.0484646
0.000426161
0.047447
0.00101758
0.0459409
0.00150607
0.0439003
0.00204058
0.0412891
0.00261119
0.0383978
0.0028913
0.0357218
0.00267598
0.0335595
0.0021623
0.031966
0.00159356
0.0307017
0.00126424
0.0291865
0.00151524
0.0269787
0.00220777
0.0234718
0.00350689
0.0182367
0.00523517
0.0113136
0.00692306
0.00377243
0.00754117
-0.00190882
0.00568124
-0.00352489
0.00161608
-0.00195195
-0.00157294
0.00105241
-0.00300436
0.00367007
-0.00261767
0.00483788
-0.00116781
0.00406423
0.000773655
0.00174622
0.002318
-0.00119134
0.00293756
-0.00373402
0.00254268
-0.00528368
0.00154966
-0.00590669
0.000623011
-0.00594619
3.95072e-05
-0.00573533
-0.000210865
-0.00541218
-0.000323147
-0.00505821
-0.000353968
-0.00470833
-0.000349885
-0.00439421
-0.000314121
-0.00406364
-0.000330563
-0.00367555
-0.000388091
-0.00323735
-0.000438203
-0.00276453
-0.000472819
-0.00225916
-0.000505369
-0.00054391
-0.00171525
0.0304302
-0.00208524
0.0315104
-0.00215937
0.0326262
-0.00223089
0.0337759
-0.00229855
0.034957
-0.00236155
0.0361671
-0.00241982
0.0374036
-0.0024726
0.0386635
-0.00251982
0.039944
-0.00256114
0.0412428
-0.00259775
0.0425574
-0.00262957
0.0438854
-0.0026565
0.0452247
-0.00267939
0.0465736
-0.00269861
0.0479298
-0.00271373
0.0492922
-0.00272606
0.0506588
-0.00273464
0.0520274
-0.00273854
0.0533963
-0.0027393
0.054763
-0.00273482
0.0561249
-0.00272531
0.0574784
-0.00270843
0.0588199
-0.00268441
0.0601473
-0.00265615
0.0614555
-0.00261817
0.0627388
-0.00256814
0.0639942
-0.00251262
0.0652171
-0.00244789
0.0663988
-0.00236606
0.0675366
-0.00227819
0.0686276
-0.0021847
0.0696594
-0.00206684
0.0706269
-0.0019382
0.0715334
-0.00181561
0.0723666
-0.00166973
0.0731132
-0.00149685
0.0737791
-0.00133505
0.0743632
-0.0011718
0.0748455
-0.0009686
0.0752293
-0.000770557
0.0755256
-0.00059562
0.0757105
-0.000373809
0.0757784
-0.000140461
0.0757546
4.54919e-05
0.0756243
0.00025695
0.0753764
0.000492411
0.0750283
0.000693302
0.0745772
0.00089872
0.074019
0.00111334
0.0733649
0.0013054
0.0726178
0.00149134
0.0717868
0.00166016
0.0708854
0.0018012
0.0698949
0.00197875
0.0688208
0.0021466
0.0676935
0.00225345
0.0665192
0.0023475
0.0652907
0.00245615
0.0640273
0.00252698
0.0627229
0.00260847
0.0613921
0.00266226
0.0600743
0.00263671
0.0587368
0.00267514
0.0573937
0.00268806
0.056084
0.00262102
0.0547926
0.00258372
0.0535371
0.00251275
0.0523112
0.00245283
0.0511212
0.00238191
0.0500214
0.00220249
0.0489613
0.00212097
0.0479457
0.00203334
0.0470511
0.00179276
0.0462291
0.0016444
0.0454582
0.00154346
0.044809
0.00130196
0.0442662
0.0010861
0.043766
0.00100123
0.0434015
0.000732207
0.0431609
0.000481989
0.0429775
0.00036735
0.0429144
0.000127286
0.0430036
-0.000175914
0.0431891
-0.000370186
0.0434796
-0.000579819
0.0439146
-0.000868535
0.0444995
-0.00116878
0.0452008
-0.00140209
0.0459905
-0.00157927
0.046832
-0.00168401
0.0476585
-0.00165356
0.0483612
-0.00139919
0.0488173
-0.000899504
0.0489018
-0.000151533
0.0484711
0.00085688
0.0474464
0.00204234
0.04593
0.0030224
0.0438764
0.00409423
0.0412499
0.00523764
0.0383437
0.00579751
0.0356604
0.00535932
0.0334994
0.0043233
0.0319121
0.0031808
0.030655
0.00252137
0.0291425
0.00302772
0.0269311
0.00441921
0.0234131
0.00702486
0.0181624
0.0104859
0.011229
0.0138566
0.00368866
0.0150815
-0.00197359
0.0113435
-0.00355645
0.00319894
-0.00195304
-0.00317635
0.00106449
-0.00602189
0.00367986
-0.00523304
0.00483719
-0.00232514
0.00405116
0.00155969
0.00172494
0.00464422
-0.0012131
0.0058756
-0.00375161
0.00508119
-0.00529417
0.00309222
-0.00591126
0.00124011
-0.00594725
7.54919e-05
-0.00573502
-0.000423089
-0.00541147
-0.000646697
-0.00505752
-0.000707923
-0.00470781
-0.00069959
-0.00439368
-0.000628248
-0.00406288
-0.000661365
-0.0036745
-0.000776474
-0.00323615
-0.000876553
-0.0027632
-0.000945761
-0.00225752
-0.00101105
-0.00108775
-0.00171369
0.0304642
-0.00313031
0.0315464
-0.00324162
0.0326646
-0.00334903
0.0338165
-0.00345049
0.0349999
-0.00354495
0.0362123
-0.00363228
0.037451
-0.0037113
0.0387131
-0.00378187
0.0399954
-0.00384349
0.0412958
-0.0038981
0.0426116
-0.00394536
0.0439406
-0.00398549
0.0452809
-0.00401973
0.0466307
-0.00404839
0.047988
-0.00407099
0.0493516
-0.00408965
0.0507192
-0.00410231
0.0520887
-0.00410797
0.0534584
-0.00410904
0.0548258
-0.00410219
0.0561883
-0.00408784
0.057542
-0.00406208
0.0588835
-0.00402594
0.0602109
-0.00398358
0.061519
-0.00392632
0.062802
-0.00385108
0.0640574
-0.00376804
0.0652804
-0.00367088
0.0664618
-0.00354751
0.0675998
-0.00341618
0.068691
-0.0032759
0.0697219
-0.00309768
0.0706883
-0.00290459
0.071594
-0.0027213
0.0724253
-0.00250106
0.0731696
-0.00224111
0.0738343
-0.00199974
0.0744165
-0.00175401
0.0748951
-0.00144727
0.0752761
-0.00115149
0.0755698
-0.000889371
0.0757502
-0.000554166
0.0758166
-0.000206888
0.0757886
7.35207e-05
0.0756532
0.000392309
0.0754013
0.000744368
0.0750503
0.00104427
0.0745951
0.00135395
0.0740331
0.00167526
0.0733759
0.00196265
0.0726249
0.00224234
0.0717907
0.00249431
0.0708864
0.00270552
0.0698916
0.00297358
0.0688143
0.00322388
0.0676846
0.00338317
0.0665074
0.00352468
0.0652765
0.00368704
0.0640124
0.00379105
0.062705
0.00391588
0.0613725
0.00399481
0.0600541
0.00395503
0.058713
0.00401626
0.057369
0.00403203
0.0560595
0.00393053
0.054767
0.00387622
0.0535128
0.00376696
0.0522866
0.00367908
0.0510966
0.00357189
0.0499997
0.00329941
0.0489383
0.0031823
0.0479238
0.00304784
0.0470334
0.00268318
0.0462121
0.0024657
0.0454436
0.00231199
0.0447995
0.00194608
0.0442586
0.00162702
0.0437599
0.00149988
0.0433999
0.00109224
0.0431613
0.000720561
0.0429786
0.000550066
0.0429204
0.000185502
0.0430105
-0.00026604
0.0431968
-0.000556497
0.0434892
-0.000872244
0.0439266
-0.00130592
0.044514
-0.0017562
0.0452186
-0.00210662
0.0460132
-0.00237386
0.0468619
-0.00253274
0.0476958
-0.00248751
0.0483934
-0.00209671
0.0488288
-0.0013349
0.0488765
-0.000199263
0.0484434
0.00128995
0.0474147
0.00307101
0.0458927
0.00454446
0.0438316
0.00615536
0.0411962
0.00787303
0.0382851
0.00870859
0.0356067
0.00803768
0.0334579
0.00647211
0.0318875
0.00475124
0.0306487
0.00376017
0.0291477
0.00452866
0.0269397
0.00662722
0.0234148
0.0105497
0.0181483
0.0157524
0.0111858
0.0208191
0.00360815
0.0226591
-0.00205911
0.0170107
-0.00360731
0.00474715
-0.00195943
-0.00482424
0.00108499
-0.00906631
0.00370682
-0.00785486
0.00485723
-0.00347556
0.0040569
0.00236003
0.00171607
0.00698505
-0.0012298
0.00882147
-0.00376891
0.0076203
-0.00530602
0.00462932
-0.0059172
0.00185129
-0.00594931
0.000107609
-0.00573561
-0.000636791
-0.00541156
-0.000970746
-0.00505755
-0.00106194
-0.00470794
-0.00104919
-0.00439408
-0.000942113
-0.00406347
-0.00099197
-0.00367496
-0.00116499
-0.00323645
-0.00131506
-0.00276342
-0.0014188
-0.00225761
-0.00151686
-0.00163168
-0.00171368
0.0304893
-0.00417767
0.0315744
-0.00432665
0.0326956
-0.00447025
0.0338507
-0.00460566
0.0350374
-0.00473164
0.036253
-0.00484781
0.0374946
-0.00495297
0.0387593
-0.00504654
0.0400441
-0.00512828
0.0413467
-0.00520074
0.0426647
-0.0052633
0.0439956
-0.00531642
0.0453375
-0.00536168
0.0466887
-0.0053995
0.0480469
-0.00542919
0.0494111
-0.00545392
0.0507795
-0.00547065
0.0521498
-0.00547829
0.0535205
-0.00547979
0.0548889
-0.00547055
0.0562527
-0.0054516
0.0576078
-0.00541723
0.058951
-0.00536906
0.0602803
-0.00531288
0.0615899
-0.00523601
0.0628742
-0.00513531
0.0641309
-0.00502476
0.0653546
-0.00489463
0.0665361
-0.00472897
0.0676744
-0.00455445
0.068766
-0.00436748
0.0697961
-0.00412783
0.0707624
-0.00387088
0.0716687
-0.00362756
0.0724993
-0.00333167
0.0732419
-0.00298379
0.0739058
-0.00266355
0.0744865
-0.00233471
0.0749619
-0.00192276
0.0753415
-0.00153105
0.075634
-0.00118187
0.0758102
-0.000730389
0.0758703
-0.000266959
0.075842
0.000101835
0.075703
0.000531264
0.0754475
0.000999897
0.0750936
0.00139813
0.0746336
0.00181401
0.0740673
0.00224157
0.073406
0.00262392
0.0726501
0.00299825
0.0718126
0.00333184
0.0709055
0.00361256
0.0699062
0.00397291
0.0688251
0.00430494
0.0676923
0.00451597
0.0665113
0.00470571
0.0652771
0.0049212
0.0640111
0.00505706
0.0626996
0.00522739
0.0613648
0.00532964
0.0600462
0.0052736
0.0587024
0.00536008
0.0573586
0.0053759
0.0560482
0.00524085
0.0547537
0.00517075
0.0534998
0.00502083
0.052272
0.00490696
0.0510815
0.00476233
0.049987
0.00439397
0.048923
0.00424625
0.047909
0.0040619
0.0470221
0.00357002
0.0461975
0.00329034
0.0454288
0.00308068
0.0447889
0.00258593
0.0442453
0.00217071
0.043746
0.00199913
0.0433908
0.00144748
0.0431524
0.000958938
0.0429691
0.000733385
0.042912
0.000242519
0.0430061
-0.000360121
0.0431934
-0.000743798
0.0434877
-0.00116654
0.0439269
-0.00174508
0.044517
-0.00234628
0.0452242
-0.00281383
0.0460214
-0.00317113
0.0468705
-0.00338177
0.0477008
-0.00331789
0.0484019
-0.00279774
0.0488551
-0.00178818
0.0489415
-0.000285654
0.0484972
0.00173425
0.0474595
0.00410872
0.0459252
0.00607879
0.0438482
0.00823238
0.0411937
0.0105275
0.0382598
0.0116425
0.0355695
0.010728
0.0334238
0.00861788
0.0318682
0.00630683
0.0306517
0.00497659
0.0291687
0.00601167
0.0269704
0.00882558
0.0234398
0.0140803
0.0181496
0.0210427
0.0111412
0.0278274
0.00351027
0.03029
-0.00217159
0.0226926
-0.00368254
0.0062581
-0.00197741
-0.00652936
0.00110618
-0.0121499
0.0037412
-0.0104899
0.00488845
-0.00462281
0.00407253
0.00317595
0.00171282
0.00934475
-0.00124485
0.0117791
-0.00378683
0.0101623
-0.00531888
0.00616137
-0.00592341
0.00245582
-0.00595085
0.00013505
-0.00573536
-0.000852288
-0.00541098
-0.00129513
-0.0050572
-0.00141571
-0.00470787
-0.00139853
-0.00439436
-0.00125562
-0.00406397
-0.00132236
-0.00367542
-0.00155354
-0.00323676
-0.00175372
-0.00276361
-0.00189195
-0.00225789
-0.00202257
-0.00217575
-0.00171382
0.0305004
-0.00522754
0.0315884
-0.00541465
0.032713
-0.00559483
0.0338717
-0.00576435
0.035062
-0.00592197
0.0362813
-0.0060671
0.0375267
-0.00619834
0.0387949
-0.00631472
0.0400828
-0.0064162
0.0413882
-0.00650613
0.0427085
-0.00658357
0.0440413
-0.00664926
0.0453853
-0.00670572
0.0467383
-0.00675243
0.0480983
-0.00678923
0.0494648
-0.00682039
0.050835
-0.00684087
0.052207
-0.00685035
0.0535796
-0.0068523
0.0549498
-0.00684075
0.0563155
-0.00681735
0.0576722
-0.00677391
0.0590168
-0.00671366
0.0603481
-0.0066442
0.0616595
-0.00654743
0.0629455
-0.00642134
0.0642047
-0.00628386
0.0654308
-0.00612074
0.0666137
-0.00591188
0.0677542
-0.00569496
0.0688479
-0.00546124
0.0698783
-0.00515815
0.0708448
-0.00483739
0.0717525
-0.00453527
0.0725826
-0.00416182
0.0733242
-0.00372533
0.0739888
-0.00332814
0.0745688
-0.00291477
0.0750414
-0.00239529
0.0754201
-0.00190974
0.075712
-0.0014738
0.075884
-0.000902375
0.0759458
-0.000328751
0.0759131
0.000134501
0.0757676
0.000676749
0.0755079
0.0012596
0.0751514
0.00175469
0.0746858
0.00227958
0.074115
0.00281238
0.0734497
0.00328922
0.0726883
0.00375962
0.0718473
0.00417288
0.0709367
0.00452308
0.069931
0.00497865
0.0688451
0.00539086
0.0677081
0.00565292
0.0665223
0.00589158
0.065284
0.00615945
0.0640169
0.00632415
0.0627001
0.00654423
0.0613623
0.00666737
0.0600428
0.00659314
0.0586936
0.00670922
0.0573485
0.00672102
0.0560367
0.00655268
0.0547392
0.0064682
0.0534866
0.00627348
0.0522565
0.00613701
0.0510648
0.00595406
0.0499737
0.00548512
0.0489063
0.00531357
0.0478926
0.00507567
0.0470104
0.00445218
0.0461836
0.00411718
0.045416
0.00384826
0.044782
0.00321987
0.0442365
0.00271627
0.0437363
0.00249936
0.0433863
0.00179746
0.0431485
0.00119673
0.0429639
0.00091795
0.0429122
0.000294284
0.043006
-0.000453975
0.0431925
-0.000930296
0.043488
-0.00146206
0.0439296
-0.00218669
0.0445234
-0.00294005
0.045235
-0.0035254
0.0460384
-0.00397452
0.0468987
-0.00424216
0.0477473
-0.00416649
0.0484613
-0.00351165
0.0489105
-0.00223742
0.0489615
-0.000336648
0.0485322
0.00216358
0.0474939
0.00514699
0.0459514
0.00762131
0.043864
0.0103197
0.0411929
0.0131986
0.038233
0.0146024
0.0355255
0.0134355
0.0333811
0.0107623
0.0318433
0.00784465
0.0306569
0.00616295
0.0292004
0.0074682
0.0270187
0.0110073
0.0234857
0.0176133
0.018172
0.0263564
0.0111076
0.0348918
0.00340116
0.0379965
-0.00231096
0.0284047
-0.003782
0.00772913
-0.00200667
-0.00830469
0.00112779
-0.0152844
0.00378252
-0.0131446
0.00493
-0.00577028
0.00409814
0.00400781
0.00171597
0.0117269
-0.00125781
0.0147529
-0.00380525
0.0127097
-0.00533276
0.00768889
-0.00593029
0.00305335
-0.0059527
0.000157454
-0.00573521
-0.00106978
-0.00541034
-0.00162
-0.00505669
-0.00176936
-0.00470763
-0.00174759
-0.00439472
-0.00156853
-0.00406442
-0.00165265
-0.00367581
-0.00194215
-0.00323704
-0.00219248
-0.0027638
-0.00236519
-0.00225807
-0.0025283
-0.00271994
-0.00171388
0.0304926
-0.00628037
0.0315842
-0.00650621
0.0327128
-0.00672342
0.0338758
-0.00692733
0.0350705
-0.0071167
0.036294
-0.00729064
0.0375435
-0.00744779
0.0388154
-0.00758667
0.0401068
-0.00770757
0.0414154
-0.00781473
0.0427386
-0.00790672
0.044074
-0.00798465
0.0454201
-0.00805189
0.0467749
-0.00810724
0.0481366
-0.00815086
0.0495046
-0.00818843
0.0508765
-0.0082128
0.0522506
-0.00822441
0.0536253
-0.00822705
0.0549976
-0.00821301
0.056366
-0.0081857
0.0577252
-0.0081332
0.0590725
-0.00806096
0.0604069
-0.00797856
0.0617207
-0.00786128
0.0630091
-0.00770974
0.0642709
-0.00754563
0.0654994
-0.00734927
0.0666839
-0.00709633
0.067827
-0.00683809
0.0689237
-0.00655796
0.0699551
-0.0061895
0.0709235
-0.00580577
0.0718338
-0.00544563
0.0726646
-0.00499259
0.073406
-0.00446671
0.0740716
-0.00399376
0.0746513
-0.0034945
0.0751211
-0.00286505
0.0754993
-0.00228796
0.0757906
-0.00176512
0.0759578
-0.00106956
0.0760123
-0.000383237
0.0759808
0.000166031
0.0758313
0.000826247
0.0755684
0.00152245
0.0752091
0.00211397
0.0747377
0.00275105
0.0741625
0.00338751
0.0734927
0.00395901
0.0727251
0.00452724
0.0718804
0.0050176
0.0709661
0.00543735
0.0699538
0.00599096
0.0688628
0.00648188
0.0677209
0.00679481
0.0665293
0.00708321
0.0652867
0.00740203
0.0640182
0.00759267
0.0626949
0.00786756
0.0613543
0.00800797
0.0600336
0.0079138
0.0586777
0.00806513
0.0573325
0.00806617
0.0560191
0.00786617
0.0547178
0.00776945
0.0534663
0.00752496
0.0522328
0.00737049
0.0510394
0.00714751
0.0499517
0.0065728
0.0488788
0.00638645
0.0478651
0.00608943
0.0469877
0.0053295
0.0461563
0.00494864
0.0453893
0.00461527
0.0447627
0.00384642
0.044213
0.00326602
0.0437126
0.00299978
0.0433696
0.0021404
0.0431312
0.00143515
0.0429456
0.00110355
0.0428965
0.0003434
0.0429947
-0.000552152
0.0431816
-0.00111719
0.0434788
-0.00175927
0.0439221
-0.00262999
0.0445191
-0.00353709
0.0452359
-0.00424218
0.0460459
-0.00478455
0.0469137
-0.00510998
0.0477671
-0.00501987
0.0484882
-0.00423273
0.048956
-0.00270525
0.0490547
-0.000435298
0.0486117
0.00260654
0.0475669
0.00619178
0.0460112
0.00917705
0.043905
0.0124259
0.0412042
0.0158995
0.0382062
0.0176003
0.0354741
0.0161676
0.0333297
0.0129067
0.0318138
0.00936056
0.0306661
0.00731065
0.0292447
0.00888957
0.0270859
0.0131661
0.023553
0.0211462
0.0182107
0.0316986
0.011078
0.0420245
0.0032804
0.0457941
-0.00247576
0.0341609
-0.00390599
0.00915937
-0.0020464
-0.0101643
0.00115108
-0.0184818
0.00383156
-0.0158251
0.00498195
-0.00692067
0.00413273
0.00485703
0.00172384
0.0141358
-0.00127058
0.0177473
-0.0038262
0.0152654
-0.0053497
0.00921238
-0.00593943
0.00364308
-0.00595586
0.000173882
-0.00573585
-0.00128979
-0.00540994
-0.00194591
-0.00505609
-0.00212321
-0.00470716
-0.00209651
-0.00439501
-0.00188069
-0.00406483
-0.00198283
-0.00367611
-0.00233087
-0.00323727
-0.00263132
-0.00276393
-0.00283852
-0.00225817
-0.00303406
-0.00326418
-0.00171393
0.030478
-0.00733594
0.0315732
-0.0076014
0.0327061
-0.00785626
0.0338737
-0.00809493
0.0350731
-0.00831616
0.0363016
-0.00851911
0.0375559
-0.00870206
0.0388324
-0.00886325
0.040128
-0.00900314
0.0414404
-0.00912716
0.0427667
-0.00923294
0.0441047
-0.00932265
0.0454534
-0.00940064
0.0468104
-0.00946425
0.0481742
-0.0095146
0.0495447
-0.009559
0.0509188
-0.00958688
0.0522949
-0.00960054
0.0536721
-0.00960418
0.055047
-0.0095879
0.0564184
-0.00955712
0.0577801
-0.00949494
0.05913
-0.00941083
0.0604679
-0.00931645
0.0617848
-0.00917821
0.0630765
-0.00900143
0.0643423
-0.0088114
0.0655745
-0.00858147
0.0667614
-0.00828325
0.0679083
-0.00798498
0.0690086
-0.00765825
0.0700411
-0.00722197
0.0710112
-0.00677589
0.0719248
-0.00635922
0.0727561
-0.00582388
0.0734971
-0.0052078
0.0741651
-0.00466166
0.0747448
-0.00407426
0.0752119
-0.0033321
0.0755907
-0.00266675
0.0758826
-0.0020571
0.0760456
-0.00123252
0.0761035
-0.00044111
0.0760665
0.000202993
0.0759097
0.000983068
0.0756433
0.00178888
0.0752808
0.0024764
0.0748028
0.00322912
0.0742228
0.00396748
0.0735477
0.00463407
0.0727726
0.00530234
0.0719242
0.00586605
0.0710052
0.00635635
0.0699855
0.0070106
0.0688893
0.00757813
0.0677418
0.00794226
0.0665438
0.00828124
0.065296
0.00864979
0.0640258
0.00886291
0.0626946
0.00919873
0.0613511
0.00935151
0.0600287
0.0092362
0.0586642
0.00942966
0.0573194
0.00941089
0.0560025
0.00918312
0.0546964
0.00907551
0.0534469
0.00877451
0.0522089
0.0086085
0.0510139
0.00834253
0.049931
0.0076556
0.0488515
0.00746603
0.0478379
0.007103
0.0469662
0.0062012
0.0461293
0.00578555
0.0453634
0.00538119
0.044745
0.00446484
0.0441901
0.00382088
0.0436887
0.00350119
0.0433535
0.00247563
0.0431136
0.001675
0.042926
0.00129112
0.042882
0.000387484
0.0429806
-0.000650792
0.043167
-0.00130364
0.043466
-0.00205827
0.0439111
-0.00307509
0.0445126
-0.00413855
0.0452347
-0.00496424
0.0460544
-0.00560427
0.0469374
-0.005993
0.047813
-0.0058955
0.0485532
-0.00497291
0.0490267
-0.00317876
0.0490978
-0.000506412
0.0486813
0.00302306
0.0476403
0.00723276
0.0460752
0.0107422
0.0439535
0.0145476
0.0412206
0.0186324
0.0381759
0.020645
0.0354135
0.01893
0.0332683
0.0150519
0.0317786
0.0108503
0.0306783
0.00841095
0.0293012
0.0102666
0.0271714
0.0152959
0.0236432
0.0246744
0.0182694
0.0370725
0.0110644
0.0492295
0.00314851
0.0537099
-0.00267494
0.0399843
-0.00405628
0.0105407
-0.00209836
-0.0121222
0.00117428
-0.0217545
0.00388726
-0.0185381
0.0050433
-0.00807671
0.00417512
0.00572521
0.00173511
0.0165758
-0.00128421
0.0207667
-0.00385048
0.0178316
-0.00536996
0.0107319
-0.00595074
0.00422387
-0.00596006
0.000183198
-0.00573708
-0.00151277
-0.00540977
-0.00227322
-0.0050555
-0.00247748
-0.00470659
-0.00244541
-0.00439496
-0.00219233
-0.00406523
-0.00231256
-0.00367642
-0.00271968
-0.00323747
-0.00307027
-0.00276401
-0.00331199
-0.00225824
-0.00353983
-0.00380844
-0.00171399
0.0304468
-0.00839531
0.0315465
-0.00870109
0.0326846
-0.00899435
0.0338578
-0.00926816
0.0350631
-0.00952143
0.0362974
-0.00975335
0.037557
-0.0099617
0.0388386
-0.0101449
0.0401385
-0.0103031
0.0414551
-0.0104437
0.0427848
-0.0105627
0.0441261
-0.0106639
0.0454777
-0.0107523
0.0468372
-0.0108238
0.0482032
-0.0108806
0.0495761
-0.0109319
0.0509525
-0.0109633
0.0523316
-0.0109796
0.0537117
-0.0109843
0.0550893
-0.0109654
0.0564644
-0.0109323
0.0578296
-0.0108601
0.0591835
-0.0107647
0.0605257
-0.0106587
0.0618461
-0.0104986
0.0631416
-0.0102969
0.0644117
-0.0100815
0.0656481
-0.00981795
0.0668379
-0.00947301
0.0679898
-0.00913682
0.0690948
-0.0087633
0.0701293
-0.00825643
0.0711026
-0.00774922
0.0720203
-0.00727696
0.0728533
-0.00665687
0.0735959
-0.00595039
0.0742664
-0.00533212
0.0748466
-0.00465447
0.0753111
-0.00379664
0.0756906
-0.00304624
0.0759822
-0.00234867
0.07614
-0.00139038
0.0761914
-0.000492458
0.0761556
0.000238775
0.0759936
0.001145
0.0757249
0.0020576
0.0753593
0.00284206
0.0748742
0.00371423
0.07429
0.00455162
0.0736091
0.00531502
0.072826
0.00608542
0.0719743
0.00671775
0.07105
0.00728063
0.0700222
0.00803839
0.0689203
0.00868005
0.0677663
0.00909623
0.066561
0.00948658
0.0653076
0.00990321
0.0640359
0.0101346
0.0626953
0.0105394
0.0613489
0.0106979
0.0600246
0.0105606
0.0586506
0.0108037
0.0573065
0.0107549
0.055985
0.0105046
0.0546736
0.0103869
0.0534262
0.0100219
0.0521823
0.00985241
0.0509848
0.00953997
0.0499061
0.00873437
0.0488185
0.00855358
0.0478052
0.00811625
0.0469384
0.007068
0.0460951
0.00662894
0.0453302
0.00614608
0.0447196
0.00507535
0.0441589
0.00438166
0.0436572
0.00400291
0.0433313
0.00280151
0.043088
0.00191825
0.0428986
0.00148052
0.0428588
0.000427299
0.0429593
-0.000751319
0.0431451
-0.00148941
0.0434453
-0.00235846
0.0438921
-0.00352193
0.0444973
-0.00474375
0.0452254
-0.00569231
0.0460554
-0.00643432
0.0469483
-0.00688585
0.0478347
-0.00678194
0.048589
-0.0057272
0.0490868
-0.00367651
0.0492074
-0.000627029
0.0487822
0.00344829
0.0477368
0.00827811
0.0461568
0.0123222
0.0440128
0.0166916
0.041242
0.0214032
0.0381428
0.0237443
0.0353442
0.0217286
0.0331976
0.0171985
0.0317386
0.0123093
0.0306948
0.00945466
0.0293718
0.0115897
0.0272778
0.0173899
0.0237568
0.0281955
0.0183548
0.0424745
0.011062
0.0565223
0.00300371
0.0617682
-0.00290343
0.0458915
-0.00423738
0.0118747
-0.00216265
-0.0141969
0.0011978
-0.0251149
0.00394919
-0.0212895
0.00511349
-0.00924101
0.00422489
0.0066138
0.00174949
0.0190512
-0.00129878
0.0238149
-0.00387786
0.0204107
-0.00539321
0.0122472
-0.00596396
0.00479462
-0.00596516
0.000184394
-0.00573872
-0.00173921
-0.00540982
-0.00260212
-0.00505503
-0.00283228
-0.0047061
-0.00279434
-0.004395
-0.00250343
-0.00406565
-0.00264191
-0.00367676
-0.00310858
-0.00323756
-0.00350947
-0.00276415
-0.00378539
-0.0022584
-0.00404558
-0.00435282
-0.00171402
0.0304039
-0.00945813
0.0315082
-0.00980545
0.0326519
-0.0101381
0.033831
-0.0104472
0.0350426
-0.0107331
0.0362831
-0.0109939
0.0375491
-0.0112277
0.0388367
-0.0114325
0.0401421
-0.0116085
0.0414636
-0.0117652
0.0427974
-0.0118965
0.044142
-0.0120085
0.0454968
-0.0121071
0.046859
-0.012186
0.0482274
-0.012249
0.0496035
-0.012308
0.0509825
-0.0123423
0.0523645
-0.0123616
0.0537482
-0.012368
0.0551294
-0.0123467
0.0565092
-0.012312
0.0578777
-0.0122286
0.0592355
-0.0121226
0.0605826
-0.0120058
0.0619075
-0.0118235
0.063208
-0.0115974
0.0644838
-0.0113573
0.0657257
-0.0110598
0.0669191
-0.0106665
0.0680768
-0.0102945
0.0691872
-0.00987372
0.0702243
-0.00929352
0.0712013
-0.00872621
0.0721239
-0.00819958
0.0729585
-0.0074914
0.073702
-0.00669396
0.0743764
-0.00600649
0.0749572
-0.00523523
0.0754196
-0.00425913
0.0758016
-0.00342821
0.0760945
-0.00264154
0.0762483
-0.0015442
0.0763036
-0.000547742
0.0762616
0.000280801
0.0760918
0.00131478
0.0758205
0.00232891
0.0754509
0.00321159
0.0749584
0.0042068
0.0743699
0.00514009
0.0736822
0.0060027
0.0728903
0.00687735
0.0720353
0.0075727
0.0711046
0.0082114
0.0700681
0.00907486
0.0689603
0.0097879
0.0677986
0.0102579
0.0665852
0.0107
0.0653252
0.0111632
0.0640517
0.0114081
0.0626995
0.0118916
0.0613511
0.0120463
0.0600231
0.0118886
0.0586392
0.0121875
0.0572961
0.012098
0.0559678
0.011833
0.054652
0.0117027
0.0534069
0.0112671
0.0521559
0.0111034
0.0509573
0.0107385
0.0498822
0.0098095
0.0487847
0.00965106
0.0477728
0.00912821
0.0469097
0.00793108
0.0460581
0.00748053
0.0452952
0.00690902
0.0446931
0.00567743
0.0441252
0.00494955
0.043624
0.00450412
0.0433096
0.00311584
0.0430606
0.00216735
0.042869
0.00167208
0.0428338
0.000462452
0.0429355
-0.000852972
0.0431202
-0.0016741
0.043422
-0.00266024
0.0438701
-0.00397007
0.0444797
-0.00535339
0.0452142
-0.00642672
0.0460553
-0.00727549
0.0469674
-0.00779791
0.0478823
-0.00769687
0.0486647
-0.00650958
0.0491778
-0.00418957
0.0492851
-0.000734377
0.0488819
0.0038515
0.0478385
0.00932156
0.0462437
0.0139169
0.044079
0.0188563
0.0412689
0.0242133
0.0381071
0.026906
0.035265
0.0245707
0.0331151
0.0193484
0.031691
0.0137334
0.0307137
0.010432
0.0294556
0.0128478
0.027403
0.0194424
0.0238889
0.0317096
0.018468
0.0478954
0.0110721
0.0639182
0.00284415
0.0699962
-0.00315676
0.0518924
-0.00444496
0.0131629
-0.00223962
-0.0164023
0.00122181
-0.0285764
0.00401761
-0.0240853
0.00519249
-0.0104159
0.00428192
0.00752437
0.00176687
0.0215663
-0.00131422
0.026896
-0.00390816
0.0230046
-0.00541932
0.0137584
-0.00597898
0.00535427
-0.00597102
0.00017644
-0.00574068
-0.00196955
-0.00541005
-0.00293275
-0.00505466
-0.00318766
-0.00470565
-0.00314335
-0.00439497
-0.00281412
-0.004066
-0.00297087
-0.00367704
-0.00349755
-0.00323784
-0.00394866
-0.00276457
-0.00425866
-0.00225867
-0.00455147
-0.0048974
-0.00171408
0.0303455
-0.0105248
0.0314553
-0.0109153
0.0326052
-0.0112879
0.0337913
-0.0116334
0.0350102
-0.011952
0.0362579
-0.0122415
0.0375308
-0.0125006
0.0388246
-0.0127263
0.0401356
-0.0129194
0.041462
-0.0130916
0.0428
-0.0132345
0.0441484
-0.0133569
0.0455068
-0.0134655
0.0468723
-0.0135514
0.0482436
-0.0136203
0.049623
-0.0136873
0.0510051
-0.0137244
0.0523909
-0.0137475
0.0537784
-0.0137554
0.0551629
-0.0137312
0.0565478
-0.0136969
0.0579206
-0.0136015
0.0592839
-0.0134858
0.0606366
-0.0133585
0.061966
-0.0131529
0.0632721
-0.0129034
0.064554
-0.0126392
0.0658022
-0.0123081
0.0670002
-0.0118644
0.0681654
-0.0114598
0.0692824
-0.0109907
0.070323
-0.0103341
0.0713051
-0.00970833
0.0722328
-0.00912725
0.0730706
-0.00832928
0.0738174
-0.00744072
0.0744956
-0.00668464
0.0750774
-0.00581708
0.0755381
-0.00471978
0.0759215
-0.00381162
0.0762137
-0.00293372
0.0763632
-0.00169377
0.0764143
-0.000598824
0.0763724
0.000322707
0.0761969
0.00149027
0.0759243
0.00260154
0.0755507
0.0035852
0.0750504
0.00470714
0.0744579
0.00573255
0.0737621
0.0066985
0.0729605
0.00767894
0.072102
0.00843119
0.0711637
0.00914975
0.0701178
0.0101207
0.0690039
0.0109018
0.0678335
0.0114283
0.0666112
0.0119223
0.0653441
0.0124302
0.0640689
0.0126833
0.0627033
0.0132573
0.0613539
0.0133957
0.0600219
0.0132205
0.0586252
0.0135842
0.0572838
0.0134395
0.0559471
0.0131696
0.0546259
0.013024
0.0533834
0.0125095
0.0521238
0.012363
0.0509242
0.0119381
0.0498522
0.0108815
0.0487449
0.0107583
0.0477369
0.0101362
0.0468756
0.00879235
0.0460161
0.00834008
0.0452555
0.00766961
0.0446609
0.00627205
0.0440851
0.00552532
0.0435846
0.00500469
0.0432816
0.00341879
0.0430247
0.0024242
0.0428315
0.0018653
0.0428013
0.00049268
0.042903
-0.000954687
0.0430868
-0.00185787
0.0433895
-0.00296293
0.0438386
-0.00441922
0.0444525
-0.00596727
0.0451949
-0.00716906
0.0460472
-0.00812786
0.0469753
-0.00872593
0.0479059
-0.00862755
0.0487038
-0.00730742
0.0492378
-0.00472364
0.0493834
-0.00087991
0.0489905
0.00424434
0.0479526
0.0103595
0.0463472
0.0155223
0.0441629
0.0210406
0.0413076
0.0270686
0.0380707
0.0301429
0.035178
0.0274633
0.0330233
0.0215032
0.0316388
0.0151178
0.030742
0.0113288
0.0295582
0.0140316
0.0275489
0.0214517
0.0240407
0.0352178
0.0185892
0.0533469
0.0110841
0.0714233
0.00267041
0.0784099
-0.00343588
0.0579987
-0.00467391
0.0144009
-0.00232866
-0.0187475
0.0012469
-0.0321519
0.00409327
-0.0269316
0.00528116
-0.0116038
0.00434761
0.00845792
0.00178858
0.0241253
-0.00132985
0.0300145
-0.00394107
0.0256159
-0.00544811
0.0152654
-0.0059956
0.00590176
-0.00597753
0.000158371
-0.00574292
-0.00220415
-0.00541045
-0.00326523
-0.00505466
-0.00354345
-0.00470554
-0.00349248
-0.00439495
-0.00312471
-0.00406628
-0.00329953
-0.00367726
-0.00388657
-0.00323828
-0.00438765
-0.00276503
-0.00473191
-0.00225895
-0.00505755
-0.00544214
-0.00171422
0.0302714
-0.0115956
0.0313868
-0.0120307
0.0325435
-0.0124447
0.033737
-0.0128268
0.0349637
-0.0131787
0.0362191
-0.0134969
0.0374997
-0.0137813
0.0388006
-0.0140271
0.0401181
-0.0142369
0.0414503
-0.0144238
0.0427927
-0.014577
0.044145
-0.0147092