/*--------------------------------*- C++ -*----------------------------------*\
| =========                 |                                                 |
| \\      /  F ield         | OpenFOAM: The Open Source CFD Toolbox           |
|  \\    /   O peration     | Version:  v1912                                 |
|   \\  /    A nd           | Website:  www.openfoam.com                      |
|    \\/     M anipulation  |                                                 |
\*---------------------------------------------------------------------------*/
FoamFile
{
    version     2.0;
    format      ascii;
    class       volVectorField;
    location    "50";
    object      U;
}
// * * * * * * * * * * * * * * * * * * * * * * * * * * * * * * * * * * * * * //

dimensions      [0 1 -1 0 0 0 0];


internalField   nonuniform List<vector> 
14268
(
(0.620009 0.02391 -4.4128e-24)
(0.646778 0.0250185 0)
(0.674714 0.0261904 2.78519e-24)
(0.703806 0.0274251 -4.36655e-24)
(0.734038 0.0287287 0)
(0.765386 0.0301005 -2.41325e-24)
(0.797818 0.0315307 0)
(0.831302 0.0330241 -3.98297e-24)
(0.865797 0.0345833 0)
(0.901267 0.036203 0)
(0.937681 0.0378864 1.60319e-24)
(0.975011 0.0396284 -4.9579e-24)
(1.01323 0.041421 0)
(1.05231 0.0432637 0)
(1.09223 0.0451517 0)
(1.13296 0.0470792 -3.03158e-24)
(1.1745 0.0490517 0)
(1.21681 0.0510699 -2.73846e-24)
(1.25986 0.0531312 -2.56389e-24)
(1.30363 0.0552333 -6.96841e-26)
(1.34806 0.057376 0)
(1.3931 0.0595708 -1.89881e-24)
(1.43868 0.0618175 0)
(1.48472 0.0641034 -1.31523e-24)
(1.53118 0.066441 -9.78677e-25)
(1.57792 0.0688328 -6.15414e-25)
(1.62483 0.0712498 2.29436e-24)
(1.67181 0.073697 0)
(1.71873 0.0761804 6.54729e-25)
(1.76541 0.0786536 -1.13079e-24)
(1.81172 0.0811097 0)
(1.85756 0.0835974 -2.1091e-24)
(1.9026 0.0860757 0)
(1.94668 0.0884987 8.20849e-24)
(1.98991 0.0909425 0)
(2.03181 0.0933843 0)
(2.07197 0.0957105 4.54731e-24)
(2.11069 0.0979595 0)
(2.1478 0.100232 0)
(2.18253 0.102391 -5.72253e-24)
(2.21511 0.104402 7.20417e-24)
(2.24576 0.106436 0)
(2.2736 0.108373 -6.4227e-24)
(2.29851 0.109997 0)
(2.32113 0.1116 6.69067e-24)
(2.34099 0.113167 6.82175e-24)
(2.35761 0.114497 6.86752e-24)
(2.37134 0.115687 0)
(2.38218 0.116764 6.58051e-24)
(2.38993 0.117625 0)
(2.39469 0.118307 0)
(2.39656 0.118801 5.86879e-24)
(2.39595 0.119113 0)
(2.39269 0.119391 0)
(2.38634 0.11948 4.72432e-24)
(2.37715 0.119268 -9.89954e-25)
(2.36593 0.118927 0)
(2.3531 0.118589 3.24197e-24)
(2.3383 0.118042 0)
(2.32141 0.117392 0)
(2.30278 0.1166 1.52635e-24)
(2.2833 0.11558 0)
(2.26366 0.114723 0)
(2.24306 0.113781 0)
(2.22151 0.112626 0)
(2.20089 0.111596 0)
(2.1811 0.110489 0)
(2.16197 0.109394 0)
(2.14334 0.10827 0)
(2.12643 0.106954 3.46798e-24)
(2.1125 0.106028 0)
(2.10013 0.10522 4.66002e-24)
(2.08999 0.104157 0)
(2.08424 0.10351 0)
(2.08202 0.103196 6.28039e-24)
(2.08291 0.102712 0)
(2.0886 0.102511 0)
(2.0995 0.102897 7.81205e-24)
(2.1148 0.103048 0)
(2.13579 0.103497 0)
(2.16324 0.104615 0)
(2.19648 0.105689 0)
(2.23683 0.106892 1.05799e-23)
(2.28583 0.10893 -1.05556e-23)
(2.34291 0.111384 0)
(2.40831 0.114066 0)
(2.48426 0.11714 0)
(2.57173 0.120979 9.00083e-24)
(2.66931 0.125688 -7.59619e-24)
(2.77498 0.130747 0)
(2.8863 0.136196 2.98312e-24)
(2.99917 0.142526 0)
(3.10455 0.1497 0)
(3.19401 0.157497 0)
(3.25864 0.166119 0)
(3.28645 0.170978 0)
(3.28004 0.172604 1.80872e-23)
(3.23775 0.17222 0)
(3.14707 0.169616 0)
(3.01488 0.163639 0)
(2.87454 0.154715 -1.004e-24)
(2.76408 0.146041 0)
(2.69458 0.139378 0)
(2.6625 0.135871 0)
(2.63312 0.135498 0)
(2.56336 0.135318 0)
(2.39474 0.132885 0)
(2.06326 0.124524 0)
(1.51336 0.10519 0)
(0.771676 0.075264 0)
(0.00145295 0.0296414 0)
(-0.403591 -0.0110702 1.6284e-22)
(-0.381134 -0.0259521 0)
(-0.0670669 -0.0179353 2.41557e-24)
(0.330398 0.00319436 -5.5549e-23)
(0.621892 0.0244505 0)
(0.67666 0.0369448 -9.23354e-23)
(0.471898 0.034879 0)
(0.0484628 0.0177736 0)
(-0.427784 -0.00747424 7.4501e-23)
(-0.807272 -0.0310784 0)
(-1.04631 -0.0473587 0)
(-1.17131 -0.0563244 0)
(-1.23303 -0.0605524 0)
(-1.26867 -0.0628468 0)
(-1.29482 -0.0642721 0)
(-1.3246 -0.065689 -3.01015e-26)
(-1.36763 -0.0675691 -8.32057e-25)
(-1.42263 -0.0702687 0)
(-1.47635 -0.0731349 0)
(-1.52409 -0.0757008 0)
(-1.56697 -0.0779534 1.9676e-24)
(-1.60693 -0.0800416 -2.06808e-25)
(-1.64053 -0.0818527 0)
(0.62083 0.0129328 0)
(0.647624 0.0135757 0)
(0.675584 0.0142892 1.15343e-23)
(0.704701 0.015084 9.66539e-24)
(0.734956 0.0159625 -9.34942e-24)
(0.766321 0.0169218 -1.97401e-23)
(0.798768 0.0179788 -8.55944e-24)
(0.832262 0.0191249 8.1205e-24)
(0.866765 0.0203586 0)
(0.902239 0.0216693 -7.22511e-24)
(0.938656 0.0230518 1.55985e-23)
(0.975984 0.0245083 -8.42488e-24)
(1.01419 0.0260377 -5.94227e-24)
(1.05326 0.0276324 -5.52442e-24)
(1.09316 0.0293005 5.09988e-24)
(1.13388 0.0310339 -4.65245e-24)
(1.17539 0.032834 -4.17671e-24)
(1.21768 0.0347086 3.66259e-24)
(1.2607 0.0366397 -3.09433e-24)
(1.30444 0.038648 -7.22933e-24)
(1.34884 0.0407278 0)
(1.39385 0.0428857 1.00842e-24)
(1.4394 0.0451125 -1.71102e-25)
(1.48542 0.0473871 7.57418e-25)
(1.53184 0.049742 -1.75695e-24)
(1.57855 0.0521906 2.82681e-24)
(1.62542 0.0546852 5.69302e-24)
(1.67235 0.0572445 5.22618e-24)
(1.71922 0.0599308 -6.4852e-24)
(1.76583 0.0626699 0)
(1.81208 0.0654462 9.22897e-24)
(1.85784 0.0683863 -1.05393e-23)
(1.90279 0.0713753 1.1904e-23)
(1.94679 0.0742716 2.47571e-23)
(1.98995 0.0772913 0)
(2.03175 0.0804609 -1.58022e-23)
(2.0718 0.0834818 1.70104e-23)
(2.11044 0.0864536 1.8091e-23)
(2.14743 0.0896455 0)
(2.18204 0.0926956 1.99102e-23)
(2.21453 0.0954558 4.02055e-23)
(2.24509 0.0984677 2.11547e-23)
(2.27278 0.101442 -2.1582e-23)
(2.29758 0.103997 2.25468e-23)
(2.32011 0.10659 2.18679e-23)
(2.33985 0.109217 -2.15613e-23)
(2.35635 0.11144 2.12813e-23)
(2.36997 0.113565 0)
(2.38069 0.115635 1.99784e-23)
(2.38832 0.117413 0)
(2.39297 0.119025 0)
(2.39474 0.120396 0)
(2.39406 0.121444 -1.59363e-23)
(2.39071 0.122625 0)
(2.38427 0.123632 1.25405e-23)
(2.375 0.124071 1.19917e-23)
(2.36372 0.12431 0)
(2.35083 0.12455 0)
(2.33598 0.12444 0)
(2.31905 0.124328 0)
(2.3004 0.123932 0)
(2.28093 0.122889 0)
(2.26129 0.12229 0)
(2.24068 0.121455 3.67903e-24)
(2.21915 0.119934 0)
(2.19856 0.118664 0)
(2.17879 0.117226 0)
(2.15969 0.115938 0)
(2.14108 0.114627 0)
(2.12424 0.11259 0)
(2.11037 0.111388 1.41561e-23)
(2.09803 0.110189 0)
(2.08796 0.107924 -1.64437e-23)
(2.08228 0.106533 0)
(2.08008 0.10565 1.95226e-23)
(2.08104 0.103825 0)
(2.08679 0.102383 0)
(2.09771 0.102168 0)
(2.11306 0.10078 0)
(2.13412 0.0997689 -2.39197e-23)
(2.16159 0.100056 0)
(2.19484 0.099688 -2.51722e-23)
(2.23523 0.0991892 0)
(2.28431 0.0997491 0)
(2.34141 0.100512 0)
(2.40684 0.10102 0)
(2.48284 0.101991 0)
(2.57032 0.103912 -1.8717e-23)
(2.66791 0.106497 -1.37135e-23)
(2.77354 0.110203 0)
(2.88476 0.115417 -5.0747e-26)
(2.99768 0.122267 8.24967e-24)
(3.10382 0.130048 0)
(3.19444 0.138154 0)
(3.25945 0.145652 0)
(3.28674 0.155229 0)
(3.27977 0.162781 0)
(3.2366 0.169926 4.00375e-23)
(3.14479 0.175549 0)
(3.01133 0.174715 9.74225e-24)
(2.86991 0.166147 1.01101e-24)
(2.75911 0.154159 -2.5359e-23)
(2.68987 0.142921 0)
(2.6583 0.136818 0)
(2.62927 0.139446 0)
(2.55945 0.146988 8.33838e-23)
(2.39011 0.159943 9.96281e-23)
(2.05733 0.172768 0)
(1.50551 0.175148 -5.81699e-24)
(0.762871 0.148471 0)
(-0.00689361 0.0845637 0)
(-0.409142 0.00594343 0)
(-0.382638 -0.040853 0)
(-0.0658497 -0.0482828 0)
(0.332142 -0.0247813 -1.78407e-22)
(0.622613 0.00990393 2.6928e-22)
(0.675738 0.0414287 0)
(0.469211 0.0555316 0)
(0.0449375 0.0456495 0)
(-0.431154 0.0186575 -2.23725e-23)
(-0.809686 -0.0129324 0)
(-1.04762 -0.0374312 0)
(-1.17179 -0.0517478 0)
(-1.23307 -0.0582537 0)
(-1.26854 -0.0615152 0)
(-1.29464 -0.0631357 0)
(-1.32443 -0.0643992 0)
(-1.36747 -0.0658067 4.62066e-24)
(-1.42242 -0.0685588 0)
(-1.47601 -0.0718305 -1.04973e-23)
(-1.52361 -0.0747028 0)
(-1.56632 -0.0771201 0)
(-1.60606 -0.0793828 0)
(-1.63934 -0.0814407 -1.28627e-23)
(0.621516 -0.00109672 1.75607e-23)
(0.648358 -0.000921994 0)
(0.67637 -0.000666055 0)
(0.705541 -0.00031446 3.52705e-23)
(0.735851 0.000144743 -1.79976e-23)
(0.767273 0.000714391 -1.74238e-23)
(0.799778 0.00139014 -1.67846e-23)
(0.833328 0.00217963 1.61093e-23)
(0.867883 0.00308598 0)
(0.903404 0.00409217 -1.47258e-23)
(0.93986 0.0052023 1.40459e-23)
(0.977222 0.00641439 1.13178e-23)
(1.01546 0.00770984 -1.27299e-23)
(1.05456 0.00908928 -1.20832e-23)
(1.0945 0.0105503 2.0682e-23)
(1.13525 0.0120706 -1.07312e-23)
(1.1768 0.0136679 -1.77347e-23)
(1.21913 0.0153484 2.2569e-24)
(1.26218 0.0170979 -8.24489e-24)
(1.30595 0.0189356 -7.2228e-24)
(1.35038 0.0208596 0)
(1.39542 0.0229043 4.81252e-24)
(1.44098 0.025068 -4.49296e-24)
(1.48701 0.027309 -1.85282e-24)
(1.53344 0.0296993 2.32583e-24)
(1.58017 0.0322616 5.5752e-24)
(1.62705 0.0348993 3.603e-24)
(1.67399 0.0376622 1.36568e-23)
(1.72087 0.0406338 2.23468e-24)
(1.7675 0.0436496 0)
(1.81377 0.0467105 1.25436e-23)
(1.85955 0.0500537 2.07954e-24)
(1.90448 0.0534928 1.71784e-23)
(1.94846 0.0568209 1.96786e-23)
(1.99161 0.0604187 0)
(2.03337 0.0642873 -2.401e-23)
(2.07337 0.0679322 5.39695e-23)
(2.11199 0.0715377 2.81036e-23)
(2.14894 0.0755787 0)
(2.18345 0.0794519 6.41301e-23)
(2.21588 0.0829702 3.28471e-23)
(2.24636 0.0870074 3.37655e-23)
(2.27396 0.0910565 -3.45354e-23)
(2.29867 0.0943601 -7.071e-25)
(2.32109 0.0979184 -5.51494e-25)
(2.3407 0.101679 3.97231e-25)
(2.35709 0.104879 -2.43252e-25)
(2.37061 0.108022 0)
(2.38122 0.111155 -3.31217e-23)
(2.38874 0.113865 0)
(2.39327 0.116363 0)
(2.39493 0.118508 -2.77812e-23)
(2.39415 0.120216 -2.73334e-23)
(2.39068 0.122278 0)
(2.38411 0.124058 8.85589e-25)
(2.37472 0.124949 0)
(2.36335 0.12561 0)
(2.35037 0.12641 -1.26637e-23)
(2.33546 0.12665 0)
(2.31846 0.126936 0)
(2.29971 0.1268 -3.26968e-24)
(2.28018 0.125665 0)
(2.26047 0.125342 0)
(2.23977 0.12467 4.03827e-24)
(2.21818 0.123024 7.8829e-24)
(2.19759 0.121798 1.1085e-23)
(2.17781 0.120137 0)
(2.15872 0.118604 0)
(2.14007 0.116911 0)
(2.12326 0.113931 0)
(2.10944 0.112323 2.23016e-23)
(2.09707 0.110716 0)
(2.08707 0.107319 7.68295e-25)
(2.08152 0.105261 0)
(2.0794 0.103941 3.20745e-23)
(2.08047 0.101031 3.32145e-23)
(2.0864 0.0986625 0)
(2.09743 0.0981249 3.80723e-23)
(2.11288 0.0954724 0)
(2.13409 0.0932987 -4.11341e-23)
(2.16167 0.0930859 0)
(2.19504 0.0915231 -4.43089e-23)
(2.23556 0.0895062 4.32616e-23)
(2.28471 0.0892927 0)
(2.34189 0.0892546 0)
(2.40743 0.0886178 4.01752e-23)
(2.48358 0.0881892 3.63758e-23)
(2.57125 0.0891541 -3.43216e-23)
(2.66907 0.0913939 -2.69628e-23)
(2.77507 0.0946236 0)
(2.8868 0.0995144 -3.953e-24)
(3.00007 0.107331 -3.52863e-24)
(3.10521 0.118473 0)
(3.19368 0.132881 0)
(3.25748 0.150528 0)
(3.28461 0.166837 0)
(3.27735 0.178246 -7.35025e-23)
(3.23358 0.188583 6.85594e-23)
(3.14098 0.197688 0)
(3.00688 0.19846 6.45323e-25)
(2.86547 0.186497 1.93958e-23)
(2.75529 0.168599 8.96691e-25)
(2.68716 0.151274 0)
(2.65707 0.141533 0)
(2.62931 0.14644 0)
(2.56025 0.160583 1.42646e-22)
(2.39081 0.185087 1.69351e-22)
(2.05704 0.213076 1.10857e-22)
(1.50336 0.231471 4.0902e-23)
(0.756338 0.2181 0)
(-0.016924 0.141334 0)
(-0.417416 0.0231588 0)
(-0.385697 -0.0553783 4.0881e-22)
(-0.064309 -0.0777684 0)
(0.335639 -0.0514378 -2.90935e-22)
(0.626033 -0.00327361 4.52923e-22)
(0.677632 0.0471301 -4.1122e-22)
(0.468896 0.0769841 0)
(0.0426553 0.0751656 1.19065e-22)
(-0.43418 0.0456731 2.2391e-23)
(-0.812223 0.00519285 0)
(-1.04918 -0.0277284 0)
(-1.17249 -0.0473661 1.06603e-22)
(-1.2333 -0.0561072 0)
(-1.2686 -0.0603643 0)
(-1.29466 -0.0622064 0)
(-1.32448 -0.0633408 0)
(-1.36756 -0.0642066 3.21094e-24)
(-1.42256 -0.0668417 -1.56339e-23)
(-1.47616 -0.0704627 -1.3307e-23)
(-1.52373 -0.0736891 3.99221e-24)
(-1.56639 -0.0763213 -1.12839e-24)
(-1.60607 -0.0787631 1.13033e-23)
(-1.63931 -0.0810959 3.62864e-24)
(0.62201 -0.0124469 2.64196e-23)
(0.64891 -0.0127167 0)
(0.676988 -0.012897 0)
(0.706232 -0.0129638 2.55259e-23)
(0.736617 -0.0129094 -2.30918e-23)
(0.768114 -0.0127376 2.22171e-23)
(0.80069 -0.0124226 0)
(0.834308 -0.0119723 -2.02445e-23)
(0.868926 -0.0113817 0)
(0.904508 -0.010673 0)
(0.941023 -0.0098475 0)
(0.978441 -0.00890999 1.82844e-23)
(1.01673 -0.00786976 -1.52606e-23)
(1.05588 -0.00673791 1.43162e-23)
(1.09585 -0.00550328 1.55356e-23)
(1.13663 -0.00418451 1.23525e-23)
(1.17821 -0.00275965 -2.23383e-24)
(1.22056 -0.00121549 -2.24496e-23)
(1.26365 0.000409776 0)
(1.30745 0.00216141 0)
(1.35192 0.00402859 0)
(1.39701 0.00605101 0)
(1.44263 0.00820422 -6.24616e-24)
(1.48872 0.0104391 0)
(1.53521 0.0128523 -2.32923e-24)
(1.58198 0.0154743 7.8671e-24)
(1.62891 0.0181908 0)
(1.6759 0.0210676 8.46599e-24)
(1.72282 0.0242538 1.14671e-23)
(1.76946 0.0275354 0)
(1.81575 0.030921 0)
(1.86156 0.0347421 2.12093e-23)
(1.90648 0.0386945 0)
(1.95049 0.0424914 0)
(1.99368 0.0466905 -3.29444e-23)
(2.03542 0.0513001 0)
(2.07538 0.055627 3.70444e-23)
(2.11401 0.0599677 0)
(2.15092 0.0649562 0)
(2.18535 0.0697037 4.43284e-23)
(2.21777 0.0739728 0)
(2.24823 0.0790262 0)
(2.27566 0.0840948 0)
(2.30027 0.0882997 -5.0084e-23)
(2.32269 0.0928713 -4.98379e-23)
(2.34219 0.0976872 4.95593e-23)
(2.35848 0.101767 -4.91767e-23)
(2.37192 0.105873 -4.81066e-23)
(2.38239 0.109989 -4.64955e-23)
(2.38978 0.113609 0)
(2.39418 0.117051 0)
(2.39571 0.12007 -3.92879e-23)
(2.39484 0.122525 0)
(2.39126 0.125534 0)
(2.38455 0.128228 -8.90637e-25)
(2.37504 0.129769 0)
(2.36355 0.131026 0)
(2.35045 0.132439 -1.89662e-23)
(2.33544 0.133098 0)
(2.31833 0.133965 0)
(2.29946 0.134203 -6.45725e-24)
(2.27986 0.133008 0)
(2.26012 0.133013 0)
(2.23935 0.132379 0)
(2.2177 0.130287 9.04911e-24)
(2.1971 0.128794 1.35639e-23)
(2.17726 0.126699 0)
(2.15814 0.124966 0)
(2.13942 0.123046 0)
(2.12263 0.11926 0)
(2.10884 0.11744 0)
(2.0964 0.115394 0)
(2.08643 0.110736 3.70966e-23)
(2.08091 0.108029 0)
(2.07874 0.106125 4.52927e-23)
(2.07982 0.101822 4.62188e-23)
(2.08578 0.0983117 0)
(2.09679 0.0971795 5.35649e-23)
(2.11228 0.0929205 0)
(2.13358 0.089357 0)
(2.16121 0.0883483 0)
(2.19457 0.0852773 6.01514e-23)
(2.23519 0.0814035 6.28351e-23)
(2.2845 0.0796985 0)
(2.34178 0.0779593 0)
(2.40739 0.0751065 5.98432e-23)
(2.48365 0.0725855 5.45612e-23)
(2.57152 0.0716074 4.39567e-23)
(2.66957 0.0718287 0)
(2.77572 0.0738124 0)
(2.8874 0.0786045 0)
(3.00046 0.0875274 -1.37059e-23)
(3.10646 0.0999664 0)
(3.19717 0.115325 5.9835e-23)
(3.2618 0.133146 0)
(3.28809 0.154543 0)
(3.28025 0.171974 -1.0196e-22)
(3.23552 0.190331 0)
(3.14158 0.208343 0)
(3.00575 0.213502 -3.63383e-23)
(2.86269 0.200709 2.58899e-23)
(2.75213 0.178474 5.52355e-23)
(2.68474 0.155907 0)
(2.65634 0.143275 0)
(2.63036 0.151254 0)
(2.56276 0.173221 0)
(2.39371 0.2128 -2.29085e-22)
(2.05869 0.261167 1.62793e-22)
(1.50155 0.299669 0)
(0.748669 0.292842 0)
(-0.0295127 0.197703 0)
(-0.428911 0.0394805 0)
(-0.390966 -0.0711195 5.83073e-22)
(-0.0632469 -0.1084 6.36939e-23)
(0.339748 -0.0791402 -4.16168e-22)
(0.630856 -0.0171617 0)
(0.681097 0.05296 -5.92452e-22)
(0.469689 0.0990248 0)
(0.0408984 0.10437 1.39772e-22)
(-0.437187 0.0724913 4.48015e-22)
(-0.814977 0.0234361 0)
(-1.05088 -0.0178861 0)
(-1.17316 -0.0428716 1.40606e-22)
(-1.23339 -0.0538032 0)
(-1.26848 -0.0590124 0)
(-1.29454 -0.0610697 0)
(-1.32444 -0.0620613 0)
(-1.36764 -0.0624502 8.56881e-24)
(-1.42273 -0.0651469 -1.76653e-23)
(-1.47634 -0.0692181 0)
(-1.5239 -0.0727433 1.71637e-24)
(-1.56652 -0.0755384 2.90034e-24)
(-1.60616 -0.0781676 -4.10097e-24)
(-1.63935 -0.0807338 2.41119e-23)
(0.622216 -0.0261172 0)
(0.649175 -0.0268981 3.20405e-23)
(0.677322 -0.0275763 -3.15696e-23)
(0.70664 -0.0281188 3.08314e-23)
(0.737106 -0.0285119 -1.74586e-24)
(0.768687 -0.0287448 3.05445e-23)
(0.801349 -0.0288225 -2.75041e-23)
(0.835052 -0.0287266 -2.81e-23)
(0.86975 -0.0284615 0)
(0.905403 -0.0280612 -2.35711e-23)
(0.941981 -0.0275115 0)
(0.979455 -0.0268216 2.10603e-23)
(1.0178 -0.0260154 -2.10835e-24)
(1.057 -0.0250899 2.14384e-24)
(1.09702 -0.0240453 1.74147e-23)
(1.13786 -0.0229277 3.44413e-23)
(1.1795 -0.0216986 1.69657e-23)
(1.2219 -0.0203536 -2.86933e-23)
(1.26505 -0.0189145 1.15333e-23)
(1.30891 -0.0173373 9.67035e-24)
(1.35343 -0.0156315 0)
(1.39857 -0.0137266 5.31906e-24)
(1.44424 -0.0116413 -5.15131e-24)
(1.49039 -0.00944417 0)
(1.53694 -0.0069835 2.33355e-24)
(1.58378 -0.00423756 3.89441e-24)
(1.63078 -0.0013802 0)
(1.67784 0.00171337 0)
(1.72483 0.00519903 0)
(1.77154 0.00874497 -2.14424e-23)
(1.8179 0.0124132 -2.57023e-23)
(1.86378 0.0166645 -2.97041e-23)
(1.90872 0.0210666 0)
(1.95275 0.0252829 0)
(1.99601 0.0300899 1.84961e-24)
(2.03774 0.0354172 0)
(2.07769 0.0403465 -4.95928e-23)
(2.11638 0.0453453 0)
(2.15328 0.0512297 0)
(2.18763 0.0567714 0)
(2.22006 0.0617994 0)
(2.25052 0.0679455 0)
(2.2779 0.0740776 0)
(2.30247 0.0790474 -6.45235e-23)
(2.32479 0.0846508 0)
(2.34413 0.0905754 0)
(2.36031 0.0956064 0)
(2.37366 0.100758 -1.23609e-22)
(2.38399 0.105918 0)
(2.39125 0.110455 0)
(2.39552 0.114802 -5.39529e-23)
(2.39691 0.118549 0)
(2.39593 0.121642 0)
(2.39221 0.12556 0)
(2.38534 0.129028 3.88285e-23)
(2.37565 0.13104 -3.33365e-23)
(2.36402 0.132768 0)
(2.35079 0.134738 -2.29481e-23)
(2.33567 0.135728 0)
(2.31847 0.137045 0)
(2.29945 0.137505 0)
(2.27974 0.136179 0)
(2.25993 0.136483 3.83169e-24)
(2.23901 0.13593 0)
(2.21725 0.133778 0)
(2.19662 0.132401 0)
(2.17671 0.130085 0)
(2.15758 0.128181 2.85595e-23)
(2.13876 0.125874 0)
(2.12198 0.121098 3.67477e-23)
(2.10822 0.11898 0)
(2.09569 0.116451 0)
(2.08576 0.110567 0)
(2.08034 0.107285 5.33016e-23)
(2.07817 0.104839 -4.15882e-25)
(2.0793 0.0993385 0)
(2.08538 0.0949937 6.32259e-23)
(2.09642 0.0934885 6.86148e-23)
(2.11191 0.0878604 6.9305e-23)
(2.13333 0.0831971 0)
(2.16104 0.0816883 0)
(2.19447 0.0773566 1.43326e-24)
(2.23516 0.0721908 0)
(2.28449 0.0697575 7.94361e-23)
(2.34179 0.0671211 0)
(2.40747 0.063108 0)
(2.48389 0.0590114 0)
(2.57198 0.0568641 6.03522e-23)
(2.6703 0.0564968 -4.42087e-23)
(2.77689 0.057933 0)
(2.88941 0.0624384 0)
(3.00373 0.0719487 0)
(3.11006 0.0871303 -4.90866e-23)
(3.19921 0.108059 7.62343e-23)
(3.26344 0.13426 0)
(3.29046 0.162144 1.31446e-22)
(3.28242 0.183628 0)
(3.23718 0.205069 0)
(3.14229 0.226352 -9.76347e-23)
(3.00467 0.233977 0)
(2.85946 0.218532 3.56353e-23)
(2.74826 0.190897 0)
(2.68166 0.162549 -6.66715e-23)
(2.65552 0.14653 -2.18584e-23)
(2.63212 0.157315 0)
(2.56677 0.186753 0)
(2.39869 0.24025 -3.00446e-22)
(2.06265 0.307224 0)
(1.50191 0.364222 0)
(0.741122 0.366462 0)
(-0.0445149 0.254302 0)
(-0.443737 0.055762 0)
(-0.398299 -0.0870818 0)
(-0.0627356 -0.139078 7.1841e-23)
(0.344468 -0.106476 -5.31472e-22)
(0.636908 -0.0306267 0)
(0.68611 0.0588427 0)
(0.471751 0.12106 0)
(0.0397627 0.133912 0)
(-0.440141 0.099492 0)
(-0.817923 0.0415415 0)
(-1.05275 -0.00825424 0)
(-1.17392 -0.0385394 0)
(-1.23351 -0.0516818 0)
(-1.26838 -0.0578515 0)
(-1.29438 -0.0601015 0)
(-1.32434 -0.0609542 0)
(-1.36766 -0.0608451 -3.47559e-24)
(-1.42288 -0.0633978 2.65168e-23)
(-1.47656 -0.0678039 0)
(-1.52412 -0.071705 0)
(-1.56671 -0.0747312 0)
(-1.60628 -0.0775432 -1.45234e-23)
(-1.63939 -0.0804022 0)
(0.622021 -0.0379769 0)
(0.649047 -0.0391784 4.11071e-23)
(0.677273 -0.0402683 -6.0016e-23)
(0.706681 -0.0412078 3.96796e-23)
(0.73724 -0.0419844 3.85345e-23)
(0.768915 -0.0425997 -1.76907e-23)
(0.801669 -0.0430227 -1.87749e-23)
(0.835459 -0.0432562 0)
(0.87024 -0.0432992 0)
(0.905971 -0.0431858 -3.09987e-23)
(0.942622 -0.0429149 0)
(0.980163 -0.0424905 2.80182e-23)
(1.01857 -0.041939 2.65809e-23)
(1.05782 -0.0412558 -3.66656e-23)
(1.09789 -0.0404398 2.37127e-23)
(1.13877 -0.0395321 2.2175e-23)
(1.18045 -0.0384743 0)
(1.22291 -0.037264 -1.87088e-23)
(1.26611 -0.0359482 1.66829e-23)
(1.31003 -0.0344555 1.44322e-23)
(1.35462 -0.0328172 -4.79242e-24)
(1.39984 -0.0309427 9.13794e-24)
(1.44559 -0.0288763 0)
(1.49181 -0.0267051 0)
(1.53845 -0.0242241 2.71153e-24)
(1.58537 -0.0214228 0)
(1.63243 -0.0184948 -5.84071e-24)
(1.67958 -0.0152872 8.12967e-24)
(1.72665 -0.0115616 0)
(1.77341 -0.00775439 -2.38118e-23)
(1.81986 -0.00375791 -1.34641e-23)
(1.86584 0.00100762 -3.40608e-23)
(1.91082 0.00591079 -2.06762e-23)
(1.95492 0.0105749 0)
(1.99829 0.0160209 4.95654e-23)
(2.04003 0.0221057 2.79895e-23)
(2.07998 0.0276926 -5.89118e-23)
(2.11874 0.033444 -3.23108e-23)
(2.15563 0.0403107 3.40768e-23)
(2.1899 0.0466816 0)
(2.22236 0.0524526 0)
(2.25282 0.0596793 3.81466e-23)
(2.28 0.066789 0)
(2.30448 0.0725983 -1.17817e-22)
(2.32682 0.0792654 0)
(2.34607 0.0862368 3.92456e-23)
(2.36215 0.0921463 0)
(2.37541 0.0983429 -7.5517e-23)
(2.3856 0.104496 0)
(2.39271 0.109952 3.51082e-23)
(2.39683 0.115268 -6.64339e-23)
(2.39807 0.119857 0)
(2.39698 0.123693 2.99855e-23)
(2.39311 0.128606 -2.63691e-23)
(2.38604 0.132915 0)
(2.37616 0.135502 -4.19765e-23)
(2.36436 0.137773 1.73692e-23)
(2.35097 0.140283 -2.95103e-23)
(2.33573 0.141597 -1.11258e-23)
(2.3184 0.143557 7.46335e-24)
(2.2992 0.144334 0)
(2.27938 0.142908 0)
(2.25946 0.14365 3.63595e-24)
(2.23839 0.143081 -5.85579e-24)
(2.21653 0.140476 8.52072e-24)
(2.19585 0.138836 0)
(2.17586 0.135975 0)
(2.15668 0.133924 1.62709e-23)
(2.13773 0.131365 0)
(2.12093 0.1257 6.64292e-23)
(2.10718 0.123512 -2.55143e-23)
(2.0945 0.120495 0)
(2.08458 0.113308 0)
(2.07921 0.109566 3.20652e-23)
(2.07697 0.106514 -7.06364e-23)
(2.07813 0.0995529 0)
(2.08429 0.094264 7.7498e-23)
(2.09534 0.0921509 8.40939e-23)
(2.11086 0.0847891 4.2947e-23)
(2.1324 0.0788592 0)
(2.16018 0.076608 4.76985e-23)
(2.1936 0.0706785 -1.44162e-22)
(2.2344 0.0635288 0)
(2.28391 0.0597495 1.00229e-22)
(2.34128 0.0555551 -4.79947e-23)
(2.407 0.0494015 4.52754e-23)
(2.48353 0.0434435 0)
(2.57186 0.0396636 0)
(2.67056 0.0374567 -8.29611e-23)
(2.77767 0.0375054 0)
(2.8907 0.041728 1.98159e-24)
(3.00533 0.052711 0)
(3.11256 0.0699276 -2.65271e-23)
(3.20428 0.0928313 0)
(3.26954 0.121671 0)
(3.29576 0.154975 2.41367e-22)
(3.28724 0.182217 -8.14853e-23)
(3.24093 0.211188 0)
(3.14426 0.240781 -5.98673e-23)
(3.004 0.252511 0)
(2.85587 0.235278 0)
(2.74368 0.20232 4.67262e-23)
(2.67796 0.168036 -8.22162e-23)
(2.65464 0.14857 -1.31878e-23)
(2.63458 0.162232 0)
(2.57225 0.199257 0)
(2.40568 0.266735 0)
(2.06881 0.352957 0)
(1.50347 0.429885 0)
(0.73323 0.441309 -4.87557e-22)
(-0.0615676 0.311611 0)
(-0.461937 0.0713917 9.19805e-22)
(-0.407727 -0.104122 0)
(-0.0625615 -0.170452 5.14379e-23)
(0.349903 -0.134248 0)
(0.644305 -0.0442372 0)
(0.692564 0.0649245 0)
(0.474869 0.143342 0)
(0.0389603 0.163502 0)
(-0.443361 0.126396 0)
(-0.82141 0.0595693 -3.94111e-22)
(-1.05513 0.00135942 0)
(-1.17502 -0.0342099 1.13719e-22)
(-1.23383 -0.0494859 0)
(-1.26838 -0.0565961 -3.90839e-23)
(-1.29422 -0.059022 0)
(-1.32415 -0.0596709 0)
(-1.36762 -0.0590235 -1.49266e-23)
(-1.42302 -0.0616929 2.89785e-23)
(-1.47677 -0.0665577 0)
(-1.52434 -0.0707906 0)
(-1.56691 -0.0739869 4.91444e-28)
(-1.60644 -0.0769541 0)
(-1.63947 -0.0800401 2.12465e-23)
(0.621691 -0.0513521 0)
(0.648782 -0.0531035 -2.35161e-23)
(0.677088 -0.0547238 -4.7104e-23)
(0.706588 -0.0561578 0)
(0.737248 -0.0573984 -2.18526e-23)
(0.769027 -0.0584278 -4.29221e-23)
(0.801887 -0.0592517 2.10174e-23)
(0.835785 -0.0598408 -1.91291e-23)
(0.870667 -0.0602023 -1.81636e-23)
(0.906489 -0.0603896 0)
(0.943221 -0.0603767 -1.62949e-23)
(0.980832 -0.0601851 -1.54106e-23)
(1.0193 -0.0598607 -1.45477e-23)
(1.05861 -0.0593839 -1.47741e-23)
(1.09874 -0.0587579 -1.28371e-23)
(1.13968 -0.058058 -1.19223e-23)
(1.18142 -0.0571946 0)
(1.22394 -0.0561846 -9.86663e-24)
(1.26721 -0.0550617 -8.66141e-24)
(1.3112 -0.053741 0)
(1.35587 -0.0522579 -1.28086e-23)
(1.40116 -0.0504668 -4.17508e-24)
(1.44699 -0.0484471 0)
(1.49329 -0.0463042 -3.23052e-25)
(1.54003 -0.043753 2.53885e-24)
(1.58705 -0.0408251 0)
(1.63422 -0.0377641 1.15803e-24)
(1.68148 -0.034336 1.78576e-23)
(1.72866 -0.0303041 0)
(1.77551 -0.0262643 1.52987e-23)
(1.82207 -0.0219926 3.56917e-23)
(1.86817 -0.016752 0)
(1.91317 -0.011401 1.015e-24)
(1.95735 -0.00633734 2.75587e-23)
(2.00085 -0.000240872 3.03595e-23)
(2.0426 0.00657534 3.21979e-23)
(2.08256 0.0127285 3.57938e-23)
(2.12143 0.0191819 -3.74246e-23)
(2.15833 0.0270089 7.98866e-23)
(2.19253 0.0341343 4.23193e-23)
(2.22506 0.0406719 4.40095e-23)
(2.25555 0.0490862 4.46267e-23)
(2.28269 0.0572212 4.61022e-23)
(2.30715 0.0638511 3.5013e-25)
(2.32937 0.0716382 0)
(2.34845 0.0796568 9.27883e-23)
(2.36443 0.0864719 4.59687e-23)
(2.37759 0.0937468 0)
(2.38762 0.100877 4.32652e-23)
(2.39458 0.107242 8.32707e-23)
(2.39852 0.113514 0)
(2.39959 0.118796 3.51462e-23)
(2.39837 0.123298 7.22387e-23)
(2.39433 0.129214 -3.15716e-23)
(2.38707 0.134312 2.75659e-23)
(2.37698 0.137416 2.42285e-23)
(2.36499 0.140218 2.11138e-23)
(2.35142 0.143297 1.67733e-23)
(2.33604 0.144915 -6.49201e-25)
(2.31856 0.147452 9.52104e-24)
(2.29915 0.148346 4.84272e-24)
(2.27919 0.146754 1.66609e-24)
(2.25916 0.147858 -3.09364e-24)
(2.23788 0.147259 -5.99128e-24)
(2.21589 0.144644 -7.31251e-25)
(2.19513 0.143162 -1.41775e-23)
(2.17503 0.139997 0)
(2.15583 0.137872 -4.08929e-23)
(2.1367 0.134899 -2.43192e-23)
(2.1199 0.128127 2.59539e-23)
(2.10619 0.125806 -5.97361e-23)
(2.09333 0.122166 -3.33765e-23)
(2.08343 0.113616 0)
(2.07813 0.109449 -7.69891e-23)
(2.07583 0.105718 -4.1892e-23)
(2.07702 0.097396 0)
(2.08327 0.0914742 -4.59297e-23)
(2.09431 0.0889028 -4.95095e-23)
(2.10981 0.0800147 -5.04365e-23)
(2.13147 0.0731032 -5.29928e-23)
(2.15932 0.0703366 5.49803e-25)
(2.19273 0.0630126 -5.68553e-23)
(2.23358 0.0546255 -5.69599e-23)
(2.28315 0.0498855 -5.80622e-23)
(2.34057 0.0445319 -1.14908e-22)
(2.40632 0.0370361 5.50851e-23)
(2.48298 0.0292712 -4.88333e-23)
(2.57161 0.0240232 -4.21149e-23)
(2.67075 0.0209939 -3.36424e-23)
(2.77849 0.0206813 -1.91091e-23)
(2.89256 0.0248093 1.84595e-24)
(3.00875 0.0360481 0)
(3.11682 0.0553183 6.8058e-23)
(3.20756 0.0827438 5.61742e-23)
(3.27318 0.11727 0)
(3.3007 0.157196 1.87921e-22)
(3.29208 0.189431 5.94637e-25)
(3.24513 0.222875 0)
(3.14677 0.257551 1.41528e-22)
(3.00339 0.272158 2.45254e-23)
(2.8517 0.252518 0)
(2.73826 0.213959 -4.58748e-25)
(2.67353 0.173607 -5.00376e-23)
(2.65361 0.150557 1.41045e-23)
(2.6377 0.167147 1.30783e-22)
(2.57917 0.211794 1.83576e-22)
(2.41462 0.293914 2.15086e-22)
(2.07738 0.398756 1.55449e-22)
(1.50672 0.496462 -5.81151e-23)
(0.726757 0.516518 -1.16754e-21)
(-0.0823112 0.368806 0)
(-0.483816 0.0869466 -5.25361e-25)
(-0.419334 -0.121858 -5.42646e-22)
(-0.0630447 -0.202591 5.62548e-23)
(0.355924 -0.162304 3.92547e-22)
(0.652907 -0.0579124 5.89966e-22)
(0.700332 0.0711365 0)
(0.47885 0.165878 2.31293e-22)
(0.038303 0.193316 -1.52867e-22)
(-0.446997 0.15346 0)
(-0.825503 0.0776233 -9.25259e-22)
(-1.058 0.0108994 -2.99199e-22)
(-1.17642 -0.0299526 1.30077e-22)
(-1.23432 -0.047392 -7.77136e-23)
(-1.26845 -0.0554029 -8.9671e-23)
(-1.29406 -0.0580133 -2.84176e-23)
(-1.32394 -0.0585665 -1.15213e-23)
(-1.36752 -0.0574193 -1.23749e-23)
(-1.42311 -0.060043 0)
(-1.47693 -0.0651879 -2.01077e-23)
(-1.5245 -0.0697581 -3.73851e-24)
(-1.56709 -0.0731513 2.035e-24)
(-1.6066 -0.0763428 0)
(-1.63958 -0.0796955 -1.81621e-24)
(0.621001 -0.0635874 2.75807e-23)
(0.648173 -0.0657689 -7.92578e-25)
(0.676579 -0.0678071 -8.22079e-25)
(0.706192 -0.069648 0)
(0.736972 -0.0712738 -8.7879e-25)
(0.768873 -0.0726877 -4.9609e-23)
(0.801854 -0.0738536 2.32661e-23)
(0.835864 -0.0747641 -9.55597e-25)
(0.87085 -0.0754281 -4.30078e-23)
(0.906767 -0.0759022 0)
(0.943586 -0.0761671 -1.02134e-24)
(0.981278 -0.0762472 -1.04101e-24)
(1.01982 -0.0761785 -1.05966e-24)
(1.05919 -0.0759319 1.58837e-23)
(1.09938 -0.0755306 -1.09405e-24)
(1.14038 -0.0750424 -1.49696e-23)
(1.18219 -0.074351 -1.2743e-23)
(1.22478 -0.0734835 -1.13755e-24)
(1.26812 -0.0724858 -1.14937e-24)
(1.31218 -0.0712531 8.58513e-24)
(1.35694 -0.069864 -1.16765e-24)
(1.40233 -0.0681285 -1.10856e-23)
(1.44826 -0.0661549 2.85039e-24)
(1.49467 -0.0640735 -1.1783e-24)
(1.54153 -0.0615017 -1.17604e-24)
(1.58866 -0.0585228 -4.73623e-24)
(1.63593 -0.0554054 6.55898e-24)
(1.68333 -0.0518527 2.05662e-23)
(1.73062 -0.0475438 -1.40894e-23)
(1.77758 -0.0432592 -1.1109e-24)
(1.82428 -0.0386556 4.12218e-23)
(1.87054 -0.0328594 -2.4563e-23)
(1.91559 -0.0270348 2.71505e-23)
(1.95988 -0.0215446 -9.78632e-25)
(2.00354 -0.014758 3.40925e-23)
(2.04534 -0.00716507 -3.81919e-23)
(2.08535 -0.00039216 -8.30111e-25)
(2.12434 0.006838 -4.41041e-23)
(2.16125 0.0156861 9.23897e-23)
(2.19538 0.0235713 -6.43464e-25)
(2.22798 0.0308474 -5.73252e-25)
(2.25847 0.040432 5.21285e-23)
(2.28541 0.0494939 -4.25744e-25)
(2.30981 0.0568966 5.34351e-23)
(2.33206 0.0658184 -5.39103e-23)
(2.35102 0.0748724 1.07138e-22)
(2.36692 0.0826123 -1.12156e-25)
(2.37998 0.0910405 5.16232e-23)
(2.38985 0.099176 4.57066e-26)
(2.39665 0.106486 9.61979e-23)
(2.40041 0.113758 -4.54081e-23)
(2.40131 0.119793 2.66767e-25)
(2.39996 0.125009 8.18564e-23)
(2.39572 0.131929 -3.57876e-23)
(2.38825 0.137812 4.60854e-25)
(2.37793 0.141493 2.83609e-23)
(2.36572 0.144854 2.36042e-23)
(2.35194 0.148454 6.15549e-25)
(2.33642 0.150323 6.53901e-25)
(2.31878 0.153612 1.0012e-23)
(2.29912 0.154794 7.06909e-25)
(2.27905 0.153075 3.8885e-24)
(2.25885 0.154805 7.42657e-25)
(2.23735 0.153947 -7.66255e-24)
(2.21522 0.150899 7.3486e-25)
(2.19435 0.149163 7.24153e-25)
(2.17413 0.145307 1.98566e-23)
(2.15488 0.143165 -4.72851e-23)
(2.13552 0.139867 6.32387e-25)
(2.11869 0.13209 3.06026e-23)
(2.10498 0.129943 -6.92029e-23)
(2.09188 0.125693 4.64987e-25)
(2.08199 0.115749 0)
(2.07674 0.111345 3.1018e-25)
(2.07434 0.106895 -4.80792e-23)
(2.07555 0.0969888 4.99258e-23)
(2.08187 0.0903936 4.25712e-27)
(2.0929 0.0871379 -1.20062e-25)
(2.10838 0.0763755 -5.80518e-23)
(2.13014 0.0684074 -3.97799e-25)
(2.15805 0.0649364 -5.50178e-25)
(2.19143 0.0559545 -6.50512e-23)
(2.23234 0.0457829 -8.85902e-25)
(2.28202 0.0400519 -1.05091e-24)
(2.33944 0.0332779 -1.23081e-24)
(2.40519 0.0238828 6.22545e-23)
(2.48197 0.0143253 -1.56015e-24)
(2.57089 0.00761605 -9.9882e-23)
(2.67051 0.00298025 3.7867e-23)
(2.77889 0.000822372 -2.42399e-23)
(2.89367 0.00427919 -1.85676e-24)
(3.01055 0.0173274 -1.70795e-23)
(3.12003 0.0394153 7.87142e-23)
(3.21359 0.0700786 -1.55006e-24)
(3.28052 0.110312 -9.13172e-23)
(3.30757 0.155504 -9.32647e-25)
(3.29852 0.192565 -5.89928e-25)
(3.25044 0.232084 -1.05366e-22)