/*--------------------------------*- C++ -*----------------------------------*\
| =========                 |                                                 |
| \\      /  F ield         | OpenFOAM: The Open Source CFD Toolbox           |
|  \\    /   O peration     | Version:  v1912                                 |
|   \\  /    A nd           | Website:  www.openfoam.com                      |
|    \\/     M anipulation  |                                                 |
\*---------------------------------------------------------------------------*/
FoamFile
{
    version     2.0;
    format      ascii;
    class       surfaceScalarField;
    location    "20";
    object      phi;
}
// * * * * * * * * * * * * * * * * * * * * * * * * * * * * * * * * * * * * * //

dimensions      [0 3 -1 0 0 0 0];
oriented        oriented;


internalField   nonuniform List<scalar> 
28285
(
4.92695e-05
-1.21873e-06
5.20039e-05
-2.73439e-06
5.63755e-05
-4.37158e-06
6.21926e-05
-5.81705e-06
6.89569e-05
-6.7643e-06
7.59639e-05
-7.007e-06
8.2455e-05
-6.4911e-06
8.77841e-05
-5.32912e-06
9.15024e-05
-3.71829e-06
9.34501e-05
-1.94771e-06
9.37203e-05
-2.70186e-07
9.24888e-05
1.23141e-06
8.98414e-05
2.64742e-06
8.54556e-05
4.38583e-06
7.85375e-05
6.91809e-06
6.79355e-05
1.0602e-05
5.2452e-05
1.54835e-05
3.13409e-05
2.1111e-05
5.00536e-06
2.63355e-05
-2.45538e-05
2.95591e-05
-5.36008e-05
2.90471e-05
-7.71354e-05
2.35346e-05
-9.05166e-05
1.33813e-05
-9.11598e-05
6.43205e-07
-7.88865e-05
-1.22733e-05
-5.61059e-05
-2.27806e-05
-2.67623e-05
-2.93437e-05
4.77194e-06
-3.15342e-05
3.40359e-05
-2.92639e-05
5.56186e-05
-2.15828e-05
6.4352e-05
-8.73337e-06
5.7525e-05
6.82699e-06
3.82245e-05
1.93006e-05
1.61254e-05
2.20991e-05
3.71277e-06
1.24126e-05
1.00331e-05
-6.32031e-06
3.53168e-05
-2.52837e-05
8.07623e-05
-4.54455e-05
0.000148814
-6.80519e-05
0.000223629
-7.48151e-05
0.000299655
-7.60252e-05
0.000376901
-7.72463e-05
0.000410481
-3.35801e-05
-4.1685e-06
0.000414649
4.92501e-05
-2.43743e-06
5.19845e-05
-5.46878e-06
5.63561e-05
-8.74315e-06
6.2173e-05
-1.1634e-05
6.89372e-05
-1.35285e-05
7.59443e-05
-1.4014e-05
8.24354e-05
-1.29823e-05
8.77646e-05
-1.06583e-05
9.1483e-05
-7.43664e-06
9.34307e-05
-3.89546e-06
9.37009e-05
-5.40396e-07
9.24695e-05
2.4628e-06
8.98222e-05
5.29472e-06
8.54365e-05
8.77161e-06
7.85185e-05
1.38361e-05
6.79166e-05
2.12039e-05
5.24332e-05
3.09669e-05
3.13223e-05
4.2222e-05
4.98692e-06
5.26709e-05
-2.45728e-05
5.91188e-05
-5.36202e-05
5.80944e-05
-7.7155e-05
4.70694e-05
-9.05365e-05
2.67627e-05
-9.11796e-05
1.28636e-06
-7.89064e-05
-2.45466e-05
-5.61256e-05
-4.55613e-05
-2.67811e-05
-5.86882e-05
4.75294e-06
-6.30683e-05
3.40179e-05
-5.85289e-05
5.56009e-05
-4.31658e-05
6.43348e-05
-1.74673e-05
5.7508e-05
1.36538e-05
3.82067e-05
3.86019e-05
1.61066e-05
4.41992e-05
3.69333e-06
2.48258e-05
1.00123e-05
-1.26393e-05
3.52955e-05
-5.05669e-05
8.07428e-05
-9.08928e-05
0.000148799
-0.000136108
0.000223618
-0.000149634
0.000299653
-0.00015206
0.000376747
-0.000154341
0.00041095
-6.77825e-05
-8.55355e-06
0.000415335
4.9236e-05
-3.65608e-06
5.19704e-05
-8.20317e-06
5.6342e-05
-1.31148e-05
6.21589e-05
-1.74509e-05
6.89232e-05
-2.02928e-05
7.59303e-05
-2.10212e-05
8.24217e-05
-1.94736e-05
8.7751e-05
-1.59877e-05
9.14695e-05
-1.11551e-05
9.34173e-05
-5.84327e-06
9.36875e-05
-8.10597e-07
9.24561e-05
3.69418e-06
8.98089e-05
7.94191e-06
8.54233e-05
1.31572e-05
7.85056e-05
2.07538e-05
6.7904e-05
3.18055e-05
5.24206e-05
4.64502e-05
3.13094e-05
6.33332e-05
4.97359e-06
7.90067e-05
-2.45874e-05
8.86798e-05
-5.36361e-05
8.71431e-05
-7.7172e-05
7.06053e-05
-9.05539e-05
4.01446e-05
-9.11969e-05
1.92938e-06
-7.89232e-05
-3.68203e-05
-5.61415e-05
-6.8343e-05
-2.67957e-05
-8.80339e-05
4.73924e-06
-9.46032e-05
3.40056e-05
-8.77952e-05
5.55898e-05
-6.475e-05
6.43243e-05
-2.62017e-05
5.74966e-05
2.04815e-05
3.81934e-05
5.79051e-05
1.60911e-05
6.63014e-05
3.67604e-06
3.72409e-05
9.99486e-06
-1.89581e-05
3.52796e-05
-7.58517e-05
8.07297e-05
-0.000136343
0.00014879
-0.000204168
0.000223609
-0.000224454
0.000299648
-0.000228098
0.00037673
-0.000231424
0.000411038
-0.00010209
-1.32302e-05
0.000415714
4.92321e-05
-4.87462e-06
5.19665e-05
-1.09375e-05
5.63382e-05
-1.74865e-05
6.21552e-05
-2.32679e-05
6.89197e-05
-2.70572e-05
7.59272e-05
-2.80287e-05
8.24188e-05
-2.59652e-05
8.77483e-05
-2.13171e-05
9.14668e-05
-1.48736e-05
9.34146e-05
-7.79104e-06
9.36847e-05
-1.08075e-06
9.24533e-05
4.9256e-06
8.98062e-05
1.0589e-05
8.54209e-05
1.75425e-05
7.85033e-05
2.76714e-05
6.79016e-05
4.24072e-05
5.24183e-05
6.19335e-05
3.13071e-05
8.44445e-05
4.97098e-06
0.000105343
-2.45914e-05
0.000118242
-5.36417e-05
0.000116193
-7.71791e-05
9.41427e-05
-9.05618e-05
5.35273e-05
-9.12049e-05
2.57249e-06
-7.89302e-05
-4.90949e-05
-5.61472e-05
-9.11261e-05
-2.68001e-05
-0.000117381
4.73633e-06
-0.00012614
3.40046e-05
-0.000117064
5.55906e-05
-8.6336e-05
6.43253e-05
-3.49365e-05
5.74969e-05
2.731e-05
3.8191e-05
7.72109e-05
1.60849e-05
8.84076e-05
3.66733e-06
4.96585e-05
9.9855e-06
-2.52763e-05
3.52709e-05
-0.000101137
8.07235e-05
-0.000181795
0.000148787
-0.000272232
0.00022361
-0.000299277
0.00029966
-0.000304148
0.00037659
-0.000308354
0.000411504
-0.000137004
-1.83159e-05
0.00041659
4.92309e-05
-6.09299e-06
5.19653e-05
-1.36718e-05
5.63371e-05
-2.18583e-05
6.21544e-05
-2.90852e-05
6.89192e-05
-3.3822e-05
7.59271e-05
-3.50366e-05
8.2419e-05
-3.24572e-05
8.77487e-05
-2.66468e-05
9.14672e-05
-1.85921e-05
9.34149e-05
-9.73871e-06
9.36849e-05
-1.35078e-06
9.24535e-05
6.15702e-06
8.98065e-05
1.3236e-05
8.54213e-05
2.19277e-05
7.85041e-05
3.45886e-05
6.79029e-05
5.30084e-05
5.24198e-05
7.74166e-05
3.13084e-05
0.000105556
4.97151e-06
0.00013168
-2.45924e-05
0.000147806
-5.36445e-05
0.000145246
-7.71838e-05
0.000117682
-9.05678e-05
6.69112e-05
-9.1211e-05
3.21573e-06
-7.89353e-05
-6.13707e-05
-5.61506e-05
-0.000113911
-2.68018e-05
-0.00014673
4.73671e-06
-0.000157678
3.40073e-05
-0.000146334
5.55953e-05
-0.000107924
6.43308e-05
-4.3672e-05
5.7501e-05
3.41398e-05
3.81915e-05
9.65204e-05
1.60806e-05
0.000110519
3.65982e-06
6.20793e-05
9.97689e-06
-3.15934e-05
3.52619e-05
-0.000126422
8.07165e-05
-0.00022725
0.000148784
-0.000340299
0.00022361
-0.000374103
0.000299664
-0.000380202
0.000376551
-0.00038524
0.000411651
-0.000172104
-2.37528e-05
0.000417088
4.92301e-05
-7.31116e-06
5.19643e-05
-1.64061e-05
5.63362e-05
-2.62302e-05
6.21538e-05
-3.49028e-05
6.8919e-05
-4.05872e-05
7.59274e-05
-4.2045e-05
8.24196e-05
-3.89494e-05
8.77495e-05
-3.19767e-05
9.1468e-05
-2.23107e-05
9.34157e-05
-1.16863e-05
9.36856e-05
-1.62072e-06
9.24542e-05
7.38848e-06
8.98073e-05
1.58828e-05
8.54226e-05
2.63124e-05
7.85061e-05
4.15051e-05
6.79057e-05
6.36088e-05
5.24231e-05
9.28992e-05
3.13112e-05
0.000126668
4.97287e-06
0.000158018
-2.45929e-05
0.000177372
-5.36474e-05
0.0001743
-7.7189e-05
0.000141224
-9.05743e-05
8.02966e-05
-9.12177e-05
3.85911e-06
-7.89407e-05
-7.36477e-05
-5.61542e-05
-0.000136697
-2.6803e-05
-0.000176081
4.73799e-06
-0.000189219
3.40114e-05
-0.000175608
5.56019e-05
-0.000129514
6.43385e-05
-5.24087e-05
5.75064e-05
4.09719e-05
3.81922e-05
0.000115835
1.60756e-05
0.000132635
3.65122e-06
7.45036e-05
9.96668e-06
-3.79088e-05
3.52511e-05
-0.000151707
8.07078e-05
-0.000272707
0.000148779
-0.00040837
0.000223611
-0.000448935
0.000299677
-0.000456267
0.000376438
-0.000462002
0.000412044
-0.00020771
-2.97126e-05
0.000418004
4.92291e-05
-8.52911e-06
5.19633e-05
-1.91402e-05
5.63354e-05
-3.06022e-05
6.21533e-05
-4.07208e-05
6.89189e-05
-4.73528e-05
7.59277e-05
-4.90537e-05
8.24203e-05
-4.5442e-05
8.77505e-05
-3.73068e-05
9.14691e-05
-2.60294e-05
9.34167e-05
-1.36339e-05
9.36865e-05
-1.89054e-06
9.2455e-05
8.61999e-06
8.98085e-05
1.85294e-05
8.54244e-05
3.06965e-05
7.85086e-05
4.84209e-05
6.7909e-05
7.42085e-05
5.24267e-05
0.000108381
3.13145e-05
0.00014778
4.9747e-06
0.000184358
-2.45934e-05
0.00020694
-5.36508e-05
0.000203357
-7.71951e-05
0.000164768
-9.05821e-05
9.36835e-05
-9.12255e-05
4.50258e-06
-7.89471e-05
-8.59261e-05
-5.61582e-05
-0.000159486
-2.68043e-05
-0.000205435
4.7397e-06
-0.000220763
3.40165e-05
-0.000204884
5.56099e-05
-0.000151108
6.43478e-05
-6.11466e-05
5.75134e-05
4.78063e-05
3.81934e-05
0.000135155
1.60699e-05
0.000154759
3.64075e-06
8.69327e-05
9.95443e-06
-4.42225e-05
3.52385e-05
-0.000176991
8.06974e-05
-0.000318166
0.000148774
-0.000476447
0.000223612
-0.000523773
0.000299685
-0.000532341
0.000376386
-0.000538703
0.000412221
-0.000243545
-3.60704e-05
0.000418579
4.9228e-05
-9.74681e-06
5.19621e-05
-2.18743e-05
5.63343e-05
-3.49744e-05
6.21526e-05
-4.6539e-05
6.89187e-05
-5.4119e-05
7.5928e-05
-5.60631e-05
8.24211e-05
-5.19351e-05
8.77516e-05
-4.26373e-05
9.14704e-05
-2.97482e-05
9.34179e-05
-1.55814e-05
9.36876e-05
-2.16024e-06
9.24561e-05
9.85155e-06
8.98098e-05
2.11756e-05
8.54264e-05
3.50799e-05
7.85114e-05
5.53358e-05
6.79126e-05
8.48073e-05
5.24308e-05
0.000123863
3.13182e-05
0.000168893
4.97671e-06
0.000210699
-2.45941e-05
0.000236511
-5.3655e-05
0.000232418
-7.72024e-05
0.000188315
-9.05913e-05
0.000107072
-9.12348e-05
5.14615e-06
-7.89546e-05
-9.82064e-05
-5.61631e-05
-0.000182278
-2.6806e-05
-0.000234792
4.74159e-06
-0.000252311
3.40223e-05
-0.000234165
5.56192e-05
-0.000172705
6.43586e-05
-6.98859e-05
5.75214e-05
5.46434e-05
3.81949e-05
0.000154481
1.60633e-05
0.00017689
3.62857e-06
9.93675e-05
9.93994e-06
-5.05339e-05
3.52235e-05
-0.000202274
8.06853e-05
-0.000363627
0.000148767
-0.000544529
0.000223612
-0.000598618
0.000299698
-0.000608427
0.000376292
-0.000615297
0.00041257
-0.000279824
-4.29896e-05
0.000419489
4.92268e-05
-1.09642e-05
5.19608e-05
-2.46084e-05
5.63332e-05
-3.93468e-05
6.21519e-05
-5.23577e-05
6.89185e-05
-6.08856e-05
7.59285e-05
-6.30731e-05
8.24221e-05
-5.84287e-05
8.7753e-05
-4.79681e-05
9.14719e-05
-3.34671e-05
9.34193e-05
-1.75289e-05
9.36889e-05
-2.42976e-06
9.24572e-05
1.10832e-05
8.98113e-05
2.38215e-05
8.54286e-05
3.94626e-05
7.85147e-05
6.22497e-05
6.79168e-05
9.54053e-05
5.24355e-05
0.000139345
3.13224e-05
0.000190006
4.97917e-06
0.000237043
-2.45948e-05
0.000266085
-5.36596e-05
0.000261483
-7.72107e-05
0.000211866
-9.06017e-05
0.000120463
-9.12453e-05
5.7898e-06
-7.89631e-05
-0.000110489
-5.61685e-05
-0.000205072
-2.68077e-05
-0.000264153
4.74384e-06
-0.000283862
3.4029e-05
-0.00026345
5.56299e-05
-0.000194306
6.43709e-05
-7.8627e-05
5.75307e-05
6.14836e-05
3.81965e-05
0.000173815
1.60557e-05
0.000199031
3.61454e-06
0.000111809
9.92372e-06
-5.68431e-05
3.52067e-05
-0.000227557
8.06712e-05
-0.000409092
0.00014876
-0.000612618
0.000223612
-0.00067347
0.000299709
-0.000684523
0.000376232
-0.00069182
0.000412763
-0.000316355
-5.03524e-05
0.000420126
4.92254e-05
-1.21813e-05
5.19593e-05
-2.73423e-05
5.63318e-05
-4.37193e-05
6.2151e-05
-5.81769e-05
6.89183e-05
-6.76529e-05
7.5929e-05
-7.00837e-05
8.24232e-05
-6.49229e-05
8.77544e-05
-5.32994e-05
9.14735e-05
-3.71862e-05
9.34209e-05
-1.94762e-05
9.36902e-05
-2.69913e-06
9.24586e-05
1.23148e-05
8.9813e-05
2.64671e-05
8.54311e-05
4.38445e-05
7.85183e-05
6.91626e-05
6.79214e-05
0.000106002
5.24406e-05
0.000154825
3.13271e-05
0.000211119
4.98176e-06
0.000263388
-2.45957e-05
0.000295662
-5.3665e-05
0.000290552
-7.72202e-05
0.000235422
-9.06135e-05
0.000133857
-9.12573e-05
6.43356e-06
-7.89727e-05
-0.000122773
-5.61747e-05
-0.00022787
-2.68098e-05
-0.000293518
4.74627e-06
-0.000315418
3.40365e-05
-0.00029274
5.56418e-05
-0.000215911
6.43848e-05
-8.73699e-05
5.75411e-05
6.83272e-05
3.81984e-05
0.000193158
1.60473e-05
0.000221182
3.59884e-06
0.000124257
9.90508e-06
-6.31493e-05
3.51879e-05
-0.00025284
8.0656e-05
-0.00045456
0.000148752
-0.000680714
0.000223612
-0.00074833
0.000299722
-0.000760633
0.000376146
-0.000768244
0.000413084
-0.000353293
-5.82995e-05
0.000421031
4.92238e-05
-1.3398e-05
5.19576e-05
-3.00761e-05
5.63304e-05
-4.80921e-05
6.215e-05
-6.39966e-05
6.89181e-05
-7.44209e-05
7.59295e-05
-7.70952e-05
8.24244e-05
-7.14178e-05
8.77561e-05
-5.86311e-05
9.14753e-05
-4.09054e-05
9.34226e-05
-2.14235e-05
9.36918e-05
-2.9683e-06
9.246e-05
1.35466e-05
8.98149e-05
2.91122e-05
8.5434e-05
4.82254e-05
7.85223e-05
7.60743e-05
6.79266e-05
0.000116598
5.24465e-05
0.000170305
3.13325e-05
0.000232233
4.98482e-06
0.000289736
-2.45965e-05
0.000325244
-5.36707e-05
0.000319627
-7.72306e-05
0.000258982
-9.06266e-05
0.000147253
-9.12704e-05
7.0774e-06
-7.89833e-05
-0.00013506
-5.61815e-05
-0.000250672
-2.6812e-05
-0.000322887
4.74908e-06
-0.000346979
3.40449e-05
-0.000322036
5.56552e-05
-0.000237521
6.44002e-05
-9.61149e-05
5.75527e-05
7.51747e-05
3.82006e-05
0.00021251
1.60377e-05
0.000243345
3.58135e-06
0.000136713
9.88465e-06
-6.94526e-05
3.51668e-05
-0.000278122
8.06388e-05
-0.000500032
0.000148743
-0.000748818
0.000223612
-0.0008232
0.000299732
-0.000836753
0.000376079
-0.00084459
0.000413284
-0.000390498
-6.673e-05
0.000421715
4.9222e-05
-1.46143e-05
5.19557e-05
-3.28097e-05
5.63287e-05
-5.24651e-05
6.2149e-05
-6.98168e-05
6.89178e-05
-8.11897e-05
7.59301e-05
-8.41075e-05
8.24257e-05
-7.79134e-05
8.77579e-05
-6.39633e-05
9.14773e-05
-4.46248e-05
9.34245e-05
-2.33707e-05
9.36935e-05
-3.23726e-06
9.24616e-05
1.47784e-05
8.98169e-05
3.17569e-05
8.5437e-05
5.26053e-05
7.85267e-05
8.29846e-05
6.79323e-05
0.000127192
5.24529e-05
0.000185785
3.13382e-05
0.000253348
4.988e-06
0.000316086
-2.45977e-05
0.000354829
-5.36773e-05
0.000348706
-7.72422e-05
0.000282546
-9.06411e-05
0.000160652
-9.1285e-05
7.72135e-06
-7.89951e-05
-0.00014735
-5.61891e-05
-0.000273478
-2.68146e-05
-0.000352262
4.75205e-06
-0.000378546
3.4054e-05
-0.000351338
5.56698e-05
-0.000259137
6.44171e-05
-0.000104862
5.75654e-05
8.20263e-05
3.82029e-05
0.000231873
1.60273e-05
0.000265521
3.56217e-06
0.000149179
9.86188e-06
-7.57523e-05
3.51435e-05
-0.000303404
8.06197e-05
-0.000545508
0.000148732
-0.00081693
0.000223612
-0.00089808
0.000299743
-0.000912884
0.000375991
-0.000920838
0.000413583
-0.00042809
-7.57696e-05
0.000422622
4.92202e-05
-1.58301e-05
5.19537e-05
-3.55433e-05
5.6327e-05
-5.68384e-05
6.21479e-05
-7.56377e-05
6.89175e-05
-8.79594e-05
7.59308e-05
-9.11208e-05
8.24272e-05
-8.44099e-05
8.776e-05
-6.92961e-05
9.14796e-05
-4.83444e-05
9.34266e-05
-2.53177e-05
9.36953e-05
-3.50598e-06
9.24634e-05
1.60103e-05
8.98192e-05
3.44011e-05
8.54404e-05
5.69841e-05
7.85315e-05
8.98935e-05
6.79385e-05
0.000137785
5.24599e-05
0.000201263
3.13446e-05
0.000274463
4.99165e-06
0.000342439
-2.45987e-05
0.00038442
-5.36843e-05
0.000377792
-7.72547e-05
0.000306117
-9.06568e-05
0.000174054
-9.13008e-05
8.36543e-06
-7.90079e-05
-0.000159643
-5.61972e-05
-0.000296289
-2.68173e-05
-0.000381642
4.75541e-06
-0.000410119
3.40641e-05
-0.000380647
5.56858e-05
-0.000280759
6.44356e-05
-0.000113612
5.75793e-05
8.88826e-05
3.82054e-05
0.000251247
1.60162e-05
0.00028771
3.54132e-06
0.000161653
9.83705e-06
-8.20481e-05
3.5118e-05
-0.000328685
8.05983e-05
-0.000590988
0.000148719
-0.000885051
0.00022361
-0.000972971
0.000299755
-0.000989029
0.00037591
-0.000996993
0.000413787
-0.000465967
-8.53262e-05
0.000423344
4.9218e-05
-1.70455e-05
5.19513e-05
-3.82766e-05
5.63249e-05
-6.12119e-05
6.21467e-05
-8.14595e-05
6.89176e-05
-9.47303e-05
7.5932e-05
-9.81352e-05
8.24293e-05
-9.09071e-05
8.77626e-05
-7.46294e-05
9.14823e-05
-5.20641e-05
9.34291e-05
-2.72646e-05
9.36976e-05
-3.7744e-06
9.24655e-05
1.72423e-05
8.98217e-05
3.70449e-05
8.54439e-05
6.13619e-05
7.85364e-05
9.68011e-05
6.79447e-05
0.000148377
5.24668e-05
0.000216741
3.13509e-05
0.000295579
4.99561e-06
0.000368794
-2.45995e-05
0.000414015
-5.36908e-05
0.000406883
-7.72672e-05
0.000329693
-9.06733e-05
0.00018746
-9.13181e-05
9.0103e-06
-7.90212e-05
-0.00017194
-5.62047e-05
-0.000319105
-2.68193e-05
-0.000411027
4.75902e-06
-0.000441697
3.40757e-05
-0.000409964
5.5704e-05
-0.000302387
6.44558e-05
-0.000122364
5.75947e-05
9.57437e-05
3.82089e-05
0.000270632
1.60041e-05
0.000309915
3.51868e-06
0.000174139
9.81047e-06
-8.83398e-05
3.50918e-05
-0.000353966
8.05799e-05
-0.000636477
0.000148711
-0.000953181
0.000223586
-0.00104785
0.000299735
-0.00106518
0.000375841
-0.0010731
0.000414065
-0.000504191
-9.5482e-05
0.00042422
9.8429e-05
-1.94747e-05
0.000103895
-4.3743e-05
0.000112643
-6.996e-05
0.00012429
-9.3106e-05
0.000137835
-0.000108275
0.000151867
-0.000112167
0.000164864
-0.000103904
0.000175533
-8.52979e-05
0.000182973
-5.95043e-05
0.000186866
-3.11579e-05
0.000187402
-4.31032e-06
0.000184938
1.97068e-05
0.000179652
4.23308e-05
0.000170901
7.0113e-05
0.000157091
0.000110611
0.000135913
0.000169555
0.00010496
0.000247694
6.27256e-05
0.000337813
1.00038e-05
0.000421516
-4.92033e-05
0.000473222
-0.000107408
0.000465088
-0.00015458
0.000376866
-0.000181403
0.000214283
-0.000182693
1.02996e-05
-0.000158087
-0.000196545
-0.000112439
-0.000364754
-5.36484e-05
-0.000469817
9.52977e-06
-0.000504875
6.81864e-05
-0.00046862
0.000111464
-0.000345664
0.000128977
-0.000139877
0.000115237
0.000109484
7.64254e-05
0.000309444
3.19681e-05
0.000354372
6.96412e-06
0.000199143
1.9534e-05
-0.00010091
7.00938e-05
-0.000404526
0.000161085
-0.000727468
0.000297367
-0.00108946
0.000447137
-0.00119762
0.000599441
-0.00121748
0.000751417
-0.00122507
0.000828673
-0.000581447
-0.000117469
0.000850661
9.84188e-05
-2.19015e-05
0.000103884
-4.92087e-05
0.000112634
-7.87095e-05
0.000124284
-0.000104756
0.000137833
-0.000121825
0.00015187
-0.000126204
0.000164871
-0.000116906
0.000175543
-9.59695e-05
0.000182984
-6.69456e-05
0.000186877
-3.50508e-05
0.000187412
-4.84506e-06
0.000184947
2.21718e-05
0.000179664
4.7614e-05
0.000170919
7.88579e-05
0.000157117
0.000124412
0.000135946
0.000190726
0.000104997
0.000278643
6.27594e-05
0.000380051
1.00222e-05
0.000474253
-4.92103e-05
0.000532454
-0.000107447
0.000523325
-0.000154649
0.000424067
-0.000181488
0.000241122
-0.000182778
1.15889e-05
-0.000158156
-0.000221167
-0.000112484
-0.000410426
-5.36641e-05
-0.000528637
9.54741e-06
-0.000568087
6.82388e-05
-0.000527312
0.000111548
-0.000388974
0.000129075
-0.000157404
0.000115311
0.000123248
7.64382e-05
0.000348317
3.1907e-05
0.000398903
6.85234e-06
0.000224198
1.94024e-05
-0.00011346
6.99577e-05
-0.000455081
0.000160969
-0.000818479
0.000297269
-0.00122576
0.000447061
-0.00134741
0.0005994
-0.00136982
0.000750882
-0.00137656
0.000829711
-0.000660277
-0.000142578
0.00085482
9.84076e-05
-2.43257e-05
0.000103873
-5.46736e-05
0.000112624
-8.74605e-05
0.000124277
-0.000116409
0.000137832
-0.00013538
0.000151874
-0.000140246
0.00016488
-0.000129912
0.000175555
-0.000106644
0.000182998
-7.4388e-05
0.00018689
-3.8943e-05
0.000187423
-5.37833e-06
0.000184958
2.46372e-05
0.000179677
5.28943e-05
0.000170939
8.75961e-05
0.000157146
0.000138205
0.000135984
0.000211888
0.00010504
0.000309588
6.27978e-05
0.000422293
1.00439e-05
0.000527007
-4.92166e-05
0.000591715
-0.000107489
0.000581597
-0.000154724
0.000471302
-0.000181582
0.000267981
-0.000182872
1.28791e-05
-0.000158233
-0.000245806
-0.000112533
-0.000456126
-5.36803e-05
-0.00058749
9.56782e-06
-0.000631335
6.82992e-05
-0.000586043
0.000111644
-0.000432319
0.000129186
-0.000174946
0.000115394
0.000137041
7.64533e-05
0.000387257
3.18396e-05
0.000443517
6.72704e-06
0.00024931
1.92542e-05
-0.000125987
6.98064e-05
-0.000505633
0.000160842
-0.000909515
0.000297195
-0.00136212
0.000447019
-0.00149723
0.000599381
-0.00152218
0.00075035
-0.00152753
0.000830429
-0.000740356
-0.000170505
0.000858355
9.83949e-05
-2.6747e-05
0.000103859
-6.01376e-05
0.000112612
-9.62132e-05
0.000124269
-0.000128067
0.00013783
-0.00014894
0.000151878
-0.000154294
0.00016489
-0.000142924
0.000175568
-0.000117323
0.000183012
-8.18317e-05
0.000186903
-4.28344e-05
0.000187435
-5.91013e-06
0.000184969
2.71032e-05
0.000179692
5.81714e-05
0.000170961
9.63268e-05
0.000157178
0.000151989
0.000136025
0.000233041
0.000105086
0.000340527
6.28399e-05
0.000464539
1.00675e-05
0.00057978
-4.92243e-05
0.000651007
-0.000107536
0.000639909
-0.000154808
0.000518573
-0.000181688
0.00029486
-0.000182978
1.417e-05
-0.000158319
-0.000270466
-0.000112588
-0.000501857
-5.36987e-05
-0.000646379
9.58981e-06
-0.000694623
6.83657e-05
-0.000644819
0.000111751
-0.000475704
0.000129311
-0.000192506
0.000115487
0.000150864
7.6471e-05
0.000426273
3.17635e-05
0.000488225
6.5867e-06
0.000274487
1.90894e-05
-0.00013849
6.96287e-05
-0.000556172
0.000160678
-0.00100056
0.000297141
-0.00149858
0.000447068
-0.00164716
0.000599356
-0.00167447
0.000749862
-0.00167803
0.000831466
-0.00082196
-0.000201517
0.000862478
9.83812e-05
-2.9165e-05
0.000103844
-6.56006e-05
0.000112599
-0.000104968
0.000124261
-0.000139729
0.000137828
-0.000162507
0.000151883
-0.000168349
0.000164901
-0.000155941
0.000175583
-0.000128005
0.000183028
-8.92768e-05
0.000186919
-4.67251e-05
0.000187449
-6.44004e-06
0.000184982
2.95698e-05
0.000179709
6.34447e-05
0.000170986
0.000105049
0.000157214
0.000165761
0.000136071
0.000254183
0.000105138
0.000371461
6.28867e-05
0.00050679
1.00938e-05
0.000632572
-4.92323e-05
0.000710333
-0.000107588
0.000698265
-0.0001549
0.000565885
-0.000181803
0.000321764
-0.000183095
1.5462e-05
-0.000158413
-0.000295148
-0.000112649
-0.000547621
-5.37188e-05
-0.000705309
9.61432e-06
-0.000757957
6.84394e-05
-0.000703644
0.000111868
-0.000519132
0.000129444
-0.000210083
0.000115588
0.00016472
7.64896e-05
0.000465372
3.16808e-05
0.000533033
6.43436e-06
0.000299733
1.89082e-05
-0.000150964
6.9461e-05
-0.000606725
0.000160566
-0.00109167
0.000297123
-0.00163514
0.000447116
-0.00179715
0.00059921
-0.00182656
0.000749261
-0.00182808
0.000832181
-0.00090488
-0.000235201
0.000865865
9.83659e-05
-3.15795e-05
0.000103828
-7.10626e-05
0.000112584
-0.000113725
0.000124252
-0.000151397
0.000137826
-0.000176081
0.000151888
-0.000182412
0.000164912
-0.000168965
0.000175599
-0.000138692
0.000183046
-9.67235e-05
0.000186935
-5.06149e-05
0.000187464
-6.96836e-06
0.000184996
3.20372e-05
0.000179727
6.87143e-05
0.000171013
0.000113763
0.000157252
0.000179522
0.000136121
0.000275314
0.000105193
0.000402388
6.29374e-05
0.000549046
1.01225e-05
0.000685387
-4.92411e-05
0.000769696
-0.000107644
0.000756668
-0.000155
0.000613241
-0.000181929
0.000348692
-0.000183221
1.67544e-05
-0.000158515
-0.000319855
-0.000112714
-0.000593421
-5.37408e-05
-0.000764283
9.64066e-06
-0.000821338
6.85195e-05
-0.000762523
0.000111997
-0.00056261
0.000129596
-0.000227682
0.000115701
0.000178615
7.65109e-05
0.000504562
3.15882e-05
0.000577956
6.26481e-06
0.000325057
1.87073e-05
-0.000163406
6.9209e-05
-0.000657227
0.000160271
-0.00118273
0.000296958
-0.00177182
0.000446921
-0.00194711
0.000598776
-0.00197842
0.0007485
-0.00197781
0.000832957
-0.000989337
-0.000271557
0.000869313
9.83493e-05
-3.39899e-05
0.00010381
-7.65232e-05
0.000112569
-0.000122483
0.000124243
-0.00016307
0.000137825
-0.000189663
0.000151896
-0.000196483
0.000164927
-0.000181995
0.000175618
-0.000149384
0.000183066
-0.000104171
0.000186954
-5.45033e-05
0.00018748
-7.49394e-06
0.000185012
3.4505e-05
0.000179747
7.398e-05
0.000171041
0.000122468
0.000157291
0.000193272
0.000136171
0.000296434
0.00010525
0.000433309
6.29896e-05
0.000591307
1.01546e-05
0.000738222
-4.92477e-05
0.000829099
-0.000107699
0.000815119
-0.000155103
0.000660645
-0.000182062
0.000375652
-0.00018336
1.80526e-05
-0.000158623
-0.000344592
-0.000112778
-0.000639266
-5.37594e-05
-0.000823301
9.66978e-06
-0.000884767
6.86103e-05
-0.000821463
0.000112138
-0.000606137
0.000129753
-0.000245296
0.000115822
0.000192546
7.65361e-05
0.000543849
3.14934e-05
0.000622999
6.08359e-06
0.000350467
1.84841e-05
-0.000175807
6.89104e-05
-0.000707653
0.000159617
-0.00127344
0.000296325
-0.00190853
0.000446304
-0.00209709
0.000597814
-0.00212993
0.000747162
-0.00212715
0.0008329
-0.00107507
-0.000310645
0.000871987
0.00133866
-6.64352e-05
0.00141296
-0.000150822
0.00153257
-0.000242091
0.00169227
-0.000322774
0.00187817
-0.000375562
0.00207081
-0.000389123
0.00224915
-0.000360334
0.00239538
-0.000295621
0.00249707
-0.000205859
0.00254997
-0.000107406
0.00255698
-1.45026e-05
0.00252323
6.82591e-05
0.00245189
0.000145313
0.00233431
0.000240058
0.00214827
0.000379306
0.00186175
0.000582953
0.00144107
0.000853996
0.000864498
0.00116788
0.000141762
0.00146096
-0.000672247
0.00164311
-0.00147448
0.00161735
-0.00212571
0.00131188
-0.00249601
0.000745946
-0.00251363
3.56753e-05
-0.00217389
-0.000684335
-0.00154492
-0.00126823
-0.000735467
-0.00163276
0.000134695
-0.00175493
0.000944304
-0.00163107
0.0015434
-0.00120523
0.00178621
-0.000488104
0.00159164
0.000387115
0.00104542
0.00109007
0.000418304
0.00125011
6.28099e-05
0.000705961
0.000229545
-0.000342541
0.000927151
-0.00140526
0.00217032
-0.0025166
0.00398818
-0.0037264
0.00599324
-0.00410215
0.00800776
-0.00414444
0.0099942
-0.0041136
0.0113171
-0.00239797
-0.00114296
0.0121494
0.0013322
-9.7355e-05
0.00140606
-0.000224684
0.00152657
-0.000362607
0.00168848
-0.000484679
0.00187734
-0.000564426
0.00207318
-0.000584956
0.00225425
-0.000541402
0.00240236
-0.000443738
0.00250465
-0.000308145
0.00255664
-0.000159395
0.00256272
-2.0582e-05
0.00252918
0.000101799
0.00245956
0.000214928
0.0023458
0.000353827
0.00216472
0.000560384
0.00188299
0.000864681
0.00146485
0.00127214
0.000885917
0.00174681
0.000153635
0.00219324
-0.000676496
0.00247324
-0.00149912
0.00243998
-0.00216949
0.00198224
-0.00255266
0.00112912
-0.00257105
5.40698e-05
-0.00221889
-0.00103649
-0.00157378
-0.00191335
-0.000745293
-0.00246124
0.000145571
-0.00264579
0.000977844
-0.00246334
0.0015961
-0.00182348
0.00184689
-0.000738898
0.00163938
0.000594629
0.00105514
0.0016743
0.000382337
0.00192292
-1.53199e-06
0.00108983
0.000148925
-0.000492998
0.000818129
-0.00207446
0.00201498
-0.00371345
0.00362877
-0.00534019
0.00526643
-0.00573981
0.00691741
-0.00579543
0.00850376
-0.00569994
0.0100044
-0.00389863
-0.00213399
0.0109954
0.00132224
-0.000125953
0.00139536
-0.000297803
0.00151715
-0.000484397
0.00168232
-0.000649856
0.00187563
-0.000757734
0.00207624
-0.00078556
0.00226138
-0.000726545
0.00241236
-0.000594718
0.00251581
-0.000411598
0.00256796
-0.000211547
0.0025726
-2.52158e-05
0.00253813
0.000136269
0.00247094
0.000282117
0.00236285
0.00046191
0.00218938
0.000733856
0.0019153
0.00113877
0.00150163
0.0016858
0.000919707
0.00232873
0.000173333
0.00293961
-0.000681218
0.00332779
-0.00153488
0.00329365
-0.00223363
0.00268099
-0.00262914
0.00152462
-0.00264857
7.34996e-05
-0.0022829
-0.00140216
-0.00161472
-0.00258152
-0.00075858
-0.00331739
0.000163177
-0.00356755
0.00103068
-0.00333085
0.0016817
-0.0024745
0.00194658
-0.00100378
0.00171073
0.000830478
0.00106467
0.00232036
0.000314276
0.00267331
-0.00013051
0.00153462
-3.65889e-06
-0.00061985
0.000671912
-0.00275003
0.00157614
-0.00461767
0.00230872
-0.00607277
0.00255729
-0.00598838
0.00248527
-0.00572341
0.00288416
-0.00609883
0.00397519
-0.00498966
-0.00398983
0.00583103
0.00130279
-0.000151354
0.00137455
-0.000369565
0.00149743
-0.000607279
0.00166605
-0.000818482
0.00186402
-0.000955702
0.00206959
-0.000991123
0.0022587
-0.00091566
0.00241192
-0.000747934
0.00251525
-0.000514926
0.00256506
-0.000261357
0.00256804
-2.81975e-05
0.00253372
0.000170581
0.00246974
0.000346102
0.00236925
0.000562399
0.00220596
0.000897143
0.00194222
0.00140251
0.00153488
0.00209314
0.000951638
0.00291198
0.000191697
0.00369955
-0.000691456
0.00421094
-0.00158457
0.00418676
-0.00232263
0.00341905
-0.00274796
0.00194995
-0.00276549
9.10345e-05
-0.00237772
-0.00178994
-0.00168159
-0.00327765
-0.000795404
-0.00420357
0.000156209
-0.00451916
0.00105654
-0.00423119
0.00173526
-0.00315322
0.00201083
-0.00127935
0.00174122
0.00110009
0.0010103
0.00305127
0.000154111
0.00352951
-0.000390754
0.00207948
-0.000370667
-0.000639936
-2.65223e-05
-0.00309418
-0.00066029
-0.00398391
-0.00323141
-0.00350164
-0.00721564
-0.00200416
-0.0107613
-0.00217775
-0.0122296
-0.00463057
-0.0121967
-0.00502248
-0.00332478
-0.0128618
0.0010358
-0.000169464
0.00109753
-0.000431293
0.00120774
-0.000717495
0.00136143
-0.000972169
0.00154298
-0.00113725
0.00173234
-0.00118048
0.00190624
-0.00108956
0.00204648
-0.000888178
0.00213945
-0.000607889
0.00218174
-0.000303645
0.00218035
-2.68167e-05
0.00214644
0.000204495
0.00209003
0.00040251
0.0020048
0.000647633
0.00186298
0.00103896
0.00162413
0.00164135
0.00123992
0.00247736
0.000668838
0.00348306
-9.62875e-05
0.00446468
-0.0010092
0.00512385
-0.00193546
0.00511302
-0.00270316
0.00418676
-0.00313868
0.00238547
-0.00317445
0.000126803
-0.00279616
-0.00216823
-0.00212549
-0.00394831
-0.00127428
-0.00505479
-0.000363328
-0.00543011
0.000494942
-0.00508946
0.00115123
-0.0038095
0.00139827
-0.00152638
0.00106195
0.00143641
0.000201565
0.00391165
-0.000910013
0.00464109
-0.00175977
0.00292923
-0.00229089
-0.000108814
-0.00316698
-0.00221809
-0.00600191
-0.00114897
-0.011451
0.00194748
-0.0163533
0.00289809
-0.0199709
0.00143988
-0.0227287
-0.00187273
-0.0236231
-0.00412816
-0.00385656
-0.0230913
0.000572374
-0.000178266
0.000627317
-0.000486236
0.000734015
-0.000824193
0.0008874
-0.00112555
0.0010719
-0.00132175
0.00126733
-0.00137591
0.00144926
-0.00127149
0.00159514
-0.00103406
0.00168946
-0.000702214
0.00172757
-0.000341753
0.00171422
-1.34695e-05
0.00166325
0.000255464
0.00159053
0.000475232
0.00148827
0.000749891
0.00131701
0.00121023
0.00102273
0.00193563
0.000539557
0.00296053
-0.00017788
0.00420049
-0.00111627
0.00540307
-0.00219589
0.00620347
-0.00326597
0.0061831
-0.00413266
0.00505345
-0.00461772
0.00287053
-0.00465685
0.000165927
-0.00428759
-0.00253748
-0.00363777
-0.00459813
-0.00281066
-0.0058819
-0.00192264
-0.00631814
-0.0010758
-0.0059363
-0.000425178
-0.00446012
-0.000231025
-0.00172054
-0.000793749
0.00199913
-0.00202846
0.00514637
-0.00350424
0.00611686
-0.00461086
0.00403585
-0.00497466
0.000254988
-0.00475483
-0.00243792
-0.00378234
-0.00212146
-0.00247812
0.000643254
-0.00214205
0.00256202
-0.00148676
0.00078459
-0.000555572
-0.00280391
0.00164248
-0.00632622
-0.00820474
0.00599066
-0.0063425
-0.000163627
-0.00627579
-0.000552945
-0.00611658
-0.000983406
-0.00588529
-0.00135685
-0.00561262
-0.00159443
-0.00533112
-0.00165741
-0.00507454
-0.00152807
-0.00485928
-0.00124932
-0.00468605
-0.000875445
-0.00456647
-0.000461326
-0.00452016
-5.9783e-05
-0.00454289