/*--------------------------------*- C++ -*----------------------------------*\
| =========                 |                                                 |
| \\      /  F ield         | OpenFOAM: The Open Source CFD Toolbox           |
|  \\    /   O peration     | Version:  v1912                                 |
|   \\  /    A nd           | Website:  www.openfoam.com                      |
|    \\/     M anipulation  |                                                 |
\*---------------------------------------------------------------------------*/
FoamFile
{
    version     2.0;
    format      ascii;
    class       volScalarField;
    location    "50";
    object      nut;
}
// * * * * * * * * * * * * * * * * * * * * * * * * * * * * * * * * * * * * * //

dimensions      [0 2 -1 0 0 0 0];


internalField   nonuniform List<scalar> 
14268
(
0.000337356
0.000313455
0.000208181
0.000217806
0.000403656
0.000479188
0.000492228
0.000435353
0.000317435
0.000178497
0.000186929
0.000269157
0.000261514
0.000200925
0.000225992
0.000250554
0.000344143
0.000384391
0.000310835
0.000105226
0.000142793
0.000194971
0.000139403
0.000168297
0.000206105
0.000206285
0.000175835
0.000150948
0.000138153
0.000121455
0.000113611
0.000101998
0.000102197
0.00015985
0.000187769
0.000192113
0.000165277
0.000167783
0.000214103
0.000211492
0.00018502
0.000193169
0.000209546
0.000205683
0.000173451
0.000155409
0.000164164
0.000167123
0.000166047
0.000163461
0.000165403
0.000173671
0.000181888
0.000196249
0.000209572
0.000217112
0.000200271
0.000181927
0.000222883
0.000295298
0.000256183
0.00011715
7.06914e-05
8.74765e-05
0.000202302
0.000251492
0.000264612
0.000254642
0.000229172
9.78346e-05
8.35963e-05
0.000221865
0.000333059
0.000361504
0.000391548
0.000393292
0.000401686
0.000424908
0.000422144
0.000342296
0.000169331
6.49827e-05
0.000103271
7.73656e-05
0.000183137
0.000322348
0.00038475
0.000376531
0.000245589
0.000146567
0.000145677
0.000169478
0.000167279
0.000193121
0.000207649
0.000224294
0.000238212
0.000250927
0.000258026
0.000244372
0.000217783
0.000194094
0.000154732
6.91557e-05
0.00251627
0.00202116
0.00112208
0.00152421
0.00435051
0.00558724
0.00556008
0.00476381
0.00339243
0.00142959
0.00142699
0.00249802
0.0023083
0.00182765
0.00230492
0.00239355
0.00320823
0.0035807
0.00331588
0.000756261
0.00129179
0.00176815
0.00112146
0.00143016
0.00177154
0.00175578
0.00144772
0.0011275
0.00104081
0.001007
0.00100113
0.000866476
0.000810599
0.00111698
0.00141187
0.00156516
0.00128338
0.001182
0.00194294
0.00208384
0.00180193
0.00205303
0.00226211
0.0022094
0.00179304
0.00134247
0.00122087
0.00109272
0.00104897
0.0010475
0.00107744
0.00112296
0.0011882
0.00137378
0.0016138
0.00187605
0.00174632
0.00178196
0.00225495
0.00318431
0.00280616
0.000959241
0.000576164
0.000715389
0.00210616
0.0026495
0.00281032
0.00274852
0.00250071
0.000661353
0.000443931
0.00169012
0.00300853
0.00301823
0.00310628
0.00310599
0.00325776
0.00359324
0.00381092
0.00301884
0.00110006
0.000336395
0.000704677
0.00052993
0.00135301
0.0024381
0.00297114
0.00293112
0.00196157
0.00117686
0.00111776
0.00119753
0.00114578
0.00152976
0.00167662
0.00183749
0.00188708
0.00197898
0.00206338
0.00192006
0.0016977
0.00146676
0.00131072
0.000464478
0.00797568
0.00377088
0.00240672
0.00410236
0.0104779
0.00986774
0.00905197
0.0112527
0.00762278
0.00380093
0.00338878
0.00432736
0.00402911
0.00520751
0.00630874
0.00537984
0.00643309
0.0075857
0.00693249
0.00265339
0.00418518
0.00401255
0.00253558
0.00263148
0.00316109
0.00324353
0.00257351
0.00188778
0.00136505
0.00130012
0.00132537
0.00133391
0.00210834
0.00296859
0.00402424
0.00389114
0.00268634
0.00234958
0.00373408
0.00401809
0.00456051
0.00579112
0.00642897
0.00632488
0.00536788
0.00289393
0.001628
0.00154799
0.00157624
0.00162373
0.00169974
0.00180152
0.00191366
0.00223968
0.00256699
0.00317968
0.00383612
0.00500966
0.00629726
0.0080342
0.00763753
0.00256267
0.00126794
0.00192302
0.00589332
0.00688427
0.00721672
0.00713533
0.00667025
0.00189631
0.000739399
0.00387337
0.00657435
0.00584941
0.00633595
0.00645857
0.00663085
0.00726011
0.0080073
0.00690669
0.00248236
0.000685208
0.00198664
0.00138987
0.0029511
0.00567724
0.00843437
0.00854214
0.00429215
0.00301921
0.00262299
0.00165715
0.00146637
0.00235616
0.00276378
0.00341283
0.00383296
0.00429461
0.00459144
0.00411772
0.00331837
0.00230876
0.0024588
0.000954577
0.0143116
0.00838797
0.00367082
0.00666484
0.0127104
0.00928127
0.00824458
0.0127707
0.0108094
0.00654137
0.00504029
0.00423426
0.00390167
0.00879342
0.0103543
0.00712571
0.00866808
0.0100591
0.00897471
0.00585008
0.00821293
0.00628384
0.0038639
0.00303127
0.00436809
0.00420125
0.00307468
0.00277849
0.00234268
0.00103453
0.000875537
0.00146453
0.00386848
0.00645374
0.00873483
0.00840664
0.00469485
0.00331042
0.0048271
0.00472281
0.00518265
0.00763762
0.0103151
0.0107435
0.00952263
0.00457765
0.00206599
0.00282127
0.00334435
0.00335903
0.00333713
0.00321444
0.00283373
0.00281627
0.0027892
0.00302673
0.00439624
0.0092072
0.0107484
0.0126323
0.0125192
0.00513814
0.00198462
0.00381909
0.00994728
0.0110573
0.0115381
0.0114292
0.0109037
0.0043621
0.00108128
0.0056129
0.00856588
0.00758929
0.00871274
0.00890646
0.00911034
0.00994028
0.0104726
0.00979568
0.0036749
0.000930476
0.0045067
0.00269327
0.00445827
0.0102716
0.0162433
0.0163552
0.00582153
0.004691
0.00279071
0.0012385
0.00148346
0.00174615
0.00232442
0.00349022
0.00579633
0.00777381
0.00875289
0.0077575
0.00579098
0.00279351
0.00272579
0.00144387
0.0219878
0.0131275
0.00460793
0.00774921
0.0136805
0.00895934
0.00734443
0.0107418
0.0128044
0.00891061
0.00704338
0.00378318
0.00328016
0.00759343
0.0134896
0.00985634
0.0143187
0.016465
0.0122349
0.00994819
0.0115987
0.00908901
0.00664165
0.0045974
0.009282
0.00810521
0.005166
0.00483404
0.00635103
0.00306556
0.00148013
0.00197625
0.00486571
0.00897515
0.0121367
0.0136649
0.00935779
0.00614933
0.00799713
0.0062744
0.00570669
0.00876478
0.013945
0.0146651
0.0134735
0.00745823
0.00506457
0.00723438
0.00832118
0.00841586
0.00828643
0.00782568
0.00688273
0.00621197
0.00539273
0.00372523
0.00433297
0.0139845
0.0154317
0.0173628
0.0175871
0.00909213
0.00276422
0.00597472
0.0145162
0.0158985
0.0166388
0.0164919
0.0158733
0.00843967
0.001584
0.00722645
0.0100705
0.0100124
0.0138766
0.0144275
0.0140908
0.0143173
0.013459
0.0120102
0.00507883
0.00125401
0.00778469
0.00489196
0.00651209
0.0169988
0.0262291
0.0256505
0.00651135
0.00653818
0.00276004
0.00217619
0.00373142
0.00174302
0.00229467
0.00512008
0.0104894
0.0138742
0.0156754
0.0141207
0.0109904
0.00516239
0.00286
0.00217227
0.0248048
0.0132555
0.00431483
0.00642261
0.0126406
0.00760885
0.00622748
0.00902876
0.0118272
0.0111888
0.00939828
0.00416205
0.00453219
0.00705553
0.0177208
0.0156658
0.0225358
0.0218867
0.0186183
0.013231
0.0102036
0.0095676
0.00996217
0.00787213
0.0170687
0.0159571
0.010078
0.00703075
0.00891682
0.00778116
0.00245221
0.00262882
0.00395786
0.00806366
0.0122415
0.0157843
0.0156031
0.0112715
0.0140184
0.0105424
0.00848168
0.0105801
0.0157494
0.0168716
0.0165987
0.0111152
0.00871253
0.0106547
0.0118884
0.0133626
0.0124907
0.0113543
0.0114671
0.0116315
0.0105239
0.00688522
0.00458375
0.0181163
0.0193548
0.0212871
0.0214247
0.0137137
0.00377011
0.00878546
0.0189095
0.0205162
0.0214635
0.0212798
0.0208995
0.0130345
0.00230765
0.00797364
0.0117498
0.0143057
0.0203989
0.0211393
0.0217393
0.0215167
0.0180524
0.0136953
0.00604121
0.00166895
0.0107178
0.00702562
0.00789442
0.0222297
0.0339459
0.0347045
0.00648543
0.0058124
0.00209659
0.00395405
0.00715559
0.00353241
0.0036795
0.00723575
0.0155875
0.0203939
0.0222295
0.020295
0.0170212
0.00970002
0.00310671
0.00200962
0.0204823
0.0119244
0.00348372
0.00626484
0.0113644
0.0075588
0.00838851
0.00843336
0.0103324
0.0136216
0.0132272
0.00773028
0.0107624
0.00889434
0.0251257
0.024263
0.0297628
0.0230651
0.0278607
0.0124909
0.00871894
0.00842693
0.0120309
0.0120825
0.0234031
0.023651
0.0170211
0.00943346
0.00790171
0.00754086
0.00393335
0.00445327
0.0033603
0.0061738
0.010602
0.0153117
0.0187521
0.0163091
0.0179918
0.0157941
0.0130482
0.0115391
0.0148573
0.0175804
0.0190864
0.0137611
0.00952638
0.00963269
0.0108548
0.0128193
0.011452
0.0102709
0.0109792
0.0115828
0.0110964
0.00877878
0.00595319
0.0200461
0.022702
0.0260766
0.0260501
0.0184979
0.00518252
0.0127749
0.023767
0.0243307
0.0253896
0.0268224
0.0266861
0.0177212
0.00326662
0.00946268
0.0157836
0.0202993
0.0222593
0.0224285
0.0264128
0.0305691
0.0261974
0.0164923
0.00710562
0.00238642
0.0132894
0.00788563
0.00879842
0.0252894
0.0376133
0.0418264
0.00776437
0.00524003
0.00151091
0.00659391
0.0063737
0.00314643
0.0032296
0.00683906
0.0167132
0.0258332
0.0291088
0.0265566
0.0227167
0.0144997
0.00385695
0.00161151
0.0168515
0.0130188
0.00245912
0.00632268
0.0110026
0.0152217
0.0194577
0.0141118
0.00925337
0.0127879
0.014472
0.0132263
0.0168261
0.0147074
0.031072
0.0303272
0.0334713
0.0235493
0.0366656
0.010954
0.00660339
0.0060625
0.00956029
0.0150837
0.025889
0.0279785
0.0242103
0.0145079
0.00679486
0.00514504
0.00513648
0.00728696
0.00510178
0.00700276
0.00995972
0.0133397
0.0174538
0.0163332
0.0171027
0.0164319
0.0145076
0.0101745
0.0120911
0.0152812
0.0181209
0.0144709
0.0103472
0.00901415
0.0083103
0.00916533
0.0077734
0.00676802
0.00806054
0.00891617
0.00847864
0.00677108
0.00642423
0.0205805
0.0235214
0.0284357
0.0314351
0.0234746
0.0109154
0.0173712
0.027748
0.0248548
0.0259426
0.0301772
0.0321659
0.021297
0.00430071
0.0113215
0.0215137
0.0221182
0.0208822
0.0213428
0.0255076
0.0333698
0.0346127
0.020537
0.00744669
0.00347935
0.0150798
0.00683522
0.00871137
0.0262008
0.0393975
0.0441524
0.0118041
0.00422056
0.00207062
0.00712461
0.00376621
0.00295507
0.0029499
0.00494149
0.0153823
0.0280702
0.0352406
0.0323262
0.0278957
0.0189445
0.00578996
0.00207914
0.0129299
0.0211222
0.00203736
0.00728366
0.0147247
0.0278886
0.0281557
0.0253428
0.0117084
0.0118786
0.0136623
0.0199665
0.0226944
0.0218348
0.0348042
0.0333401
0.0345292
0.0265252
0.0460509
0.00935242
0.00430798
0.00359838
0.00678221
0.0154877
0.0254126
0.0283936
0.0291931
0.0226099
0.00978015
0.00452034
0.00741017
0.0106068
0.00876995
0.0109874
0.0132959
0.012611
0.0149703
0.0146565
0.0148919
0.0145444
0.0136209
0.00792023
0.00848048
0.0116937
0.014801
0.0133065
0.0138823
0.012294
0.00822738
0.00623762
0.00443196
0.00379773
0.00467844
0.00532745
0.00505152
0.004059
0.00495944
0.0211127
0.0212937
0.0280786
0.0376632
0.0292488
0.0181285
0.0220216
0.0298869
0.0245202
0.0258447
0.0306431
0.0367757
0.0237165
0.00510628
0.013368
0.024846
0.0195978
0.0187195
0.0192844
0.0239513
0.0322004
0.0414615
0.0257967
0.00789257
0.0046674
0.0178504
0.0059559
0.00847194
0.0284325
0.0408601
0.0452951
0.0176189
0.00338998
0.00279144
0.00669786
0.00349704
0.00397436
0.00406632
0.00402289
0.013233
0.0284612
0.0404062
0.0383653
0.0331289
0.0231573
0.0076663
0.00362275
0.00957644
0.0286571
0.00261192
0.00937683
0.0192067
0.0392738
0.0363179
0.034519
0.018666
0.0105532
0.0121768
0.026904
0.0263188
0.0284496
0.0374634
0.0340843
0.0345446
0.0370877
0.0544779
0.00767731
0.00313527
0.00226788
0.00446221
0.0139447
0.0242969
0.0267989
0.0301083
0.0298011
0.0164097
0.00770415
0.0108078
0.0140553
0.0129856
0.0165836
0.0193678
0.015184
0.0147343
0.0138045
0.0144606
0.0115696
0.0111203
0.0055778
0.00580187
0.00836524
0.0110049
0.0114499
0.0157363
0.012698
0.0089638
0.00652554
0.00409496
0.00433306
0.00354869
0.00326039
0.00340219
0.00344566
0.00339789
0.020356
0.0176379
0.026993
0.0421616
0.0352664
0.0244695
0.0262131
0.0292094
0.0236108
0.025215
0.0295685
0.0382945
0.0254895
0.0055172
0.0131103
0.0235594
0.016286
0.0153051
0.0159697
0.021326
0.0299898
0.0443597
0.03003
0.00875197
0.00581443
0.0207087
0.00706174
0.00895499
0.0320951
0.0418569
0.0459341
0.0228079
0.00230069
0.00379687
0.00626401
0.00421685
0.00511931
0.00572133
0.00506173
0.0100715
0.0269224
0.0432107
0.0440075
0.038042
0.0265964
0.00803702
0.00544976
0.00901832
0.0319955
0.00533701
0.0116853
0.0219477
0.0500455
0.0411858
0.041892
0.0283318
0.0110124
0.0128785
0.0344593
0.0282781
0.0325172
0.0386637
0.0341067
0.0349368
0.0494932
0.0622618
0.00748382
0.00590834
0.00476531
0.00428176
0.01533
0.0265066
0.0256659
0.0285851
0.0339462
0.0231957
0.0127679
0.0144032
0.017293
0.0165392
0.0213676
0.0261811
0.0196828
0.0175513
0.0164093
0.0178433
0.00919796
0.00829298
0.00497903
0.00629778
0.00700221
0.00854363
0.010046
0.0135605
0.00975331
0.00646911
0.0055023
0.00522512
0.00745007
0.00543761
0.00412705
0.004318
0.00440982
0.00391311
0.0174135
0.0143085
0.025575
0.0451616
0.0405098
0.0299041
0.03051
0.027568
0.0228525
0.0245335
0.0282146
0.0370689
0.0282558
0.00602982
0.0120631
0.0212861
0.0147534
0.0115659
0.012203
0.0174858
0.0268511
0.0434705
0.0319934
0.0102592
0.00711182
0.0239846
0.0101251
0.0104453
0.0340251
0.0428179
0.0461917
0.0275508
0.00297915
0.00574262
0.00552118
0.00490633
0.00628848
0.00757734
0.007064
0.00721697
0.0246465
0.044238
0.0492503
0.0430211
0.0290095
0.0079889
0.00633477
0.0135764
0.0321823
0.0084759
0.0126759
0.0245201
0.050805
0.0401528
0.0473646
0.0390169
0.0170314
0.0189811
0.0417342
0.0293177
0.0296661
0.0360043
0.0364023
0.0386131
0.0537603
0.0682646
0.0117692
0.013895
0.0101385
0.00694295
0.0205752
0.0336849
0.0270706
0.0260246
0.034987
0.0287372
0.016884
0.0173705
0.0201537
0.0196856
0.0253793
0.0314801
0.0208464
0.0174305
0.0205542
0.0214491
0.00839184
0.00545418
0.00614917
0.00784864
0.00783217
0.0079874
0.00855906
0.00948553
0.00632565
0.00543414
0.00500698
0.00685743
0.0100448
0.00760396
0.00575638
0.00577763
0.00588462
0.00465871
0.0127054
0.0127937
0.0236369
0.0450191
0.0443442
0.0348098
0.0326375
0.0253087
0.0216832
0.0234597
0.026413
0.0345857
0.0314229
0.00713594
0.0113276
0.0181873
0.0190653
0.00891546
0.0090968
0.0135031
0.0224488
0.0400529
0.0305891
0.0117122
0.00845722
0.0253221
0.0141328
0.0125163
0.0334868
0.0435374
0.0470204
0.0312859
0.00532237
0.00855245
0.00638598
0.00590041
0.00752756
0.00939108
0.00941009
0.00648544
0.0216148
0.0433643
0.0529815
0.0473636
0.0303396
0.00874474
0.00568619
0.0167921
0.0308138
0.0108561
0.0137544
0.0282788
0.0455458
0.0362394
0.0521322
0.0487554
0.0294325
0.0314269
0.0483624
0.0295777
0.0264598
0.0337112
0.0431032
0.0474037
0.0508849
0.0726172
0.022869
0.0217929
0.0158626
0.0114809
0.0272788
0.0416368
0.0324233
0.0244328
0.0339113
0.0336591
0.020477
0.020052
0.0227819
0.0225892
0.0287854
0.0336951
0.0183453
0.0157839
0.0203292
0.0219775
0.0100502
0.00483582
0.00727914
0.0101391
0.00976089
0.0091335
0.00796145
0.00647418
0.00592141
0.00820704
0.00643228
0.00884119
0.0125588
0.00968233
0.00720029
0.00711807
0.0072326
0.00552454
0.00835503
0.013238
0.0213419
0.0431199
0.047351
0.0393154
0.0321665
0.0246568
0.0204084
0.022218
0.025585
0.03335
0.0324388
0.00854318
0.0116843
0.0160642
0.0241025
0.00965229
0.00898478
0.0110439
0.0179449
0.0359628
0.0288346
0.013304
0.00989769
0.0241526
0.0181973
0.0148331
0.0322689
0.044091
0.0522148
0.0338098
0.0101642
0.011659
0.007737
0.00697311
0.00877413
0.0112301
0.0117534
0.00738334
0.018417
0.0413652
0.0550224
0.0511737
0.0324507
0.011294
0.00427687
0.0161175
0.0277645
0.012273
0.0156514
0.0332285
0.0417443
0.0317825
0.0534861
0.0565952
0.0409021
0.0425166
0.0510251
0.0296705
0.0234517
0.0349095
0.05101
0.0559063
0.0477625
0.075544
0.0343769
0.0283654
0.0208271
0.0160512
0.033736
0.0490041
0.0393523
0.0243721
0.0317401
0.0374569
0.0233821
0.0214136
0.0247642
0.025205
0.030847
0.034674
0.0176748
0.0134713
0.018103
0.019339
0.0120151
0.0057198
0.0084312
0.0127225
0.012188
0.011491
0.0086957
0.00556067
0.00927779
0.0123225
0.00882225
0.0106929
0.0147369
0.0112983
0.00824501
0.00815761
0.00840116
0.00642935
0.0064973
0.0134729
0.018298
0.0406276
0.0483181
0.0434956
0.0306551
0.0268936
0.0202141
0.0215523
0.0272649
0.0353476
0.0307108
0.0100063
0.013114
0.0155916
0.0247986
0.0106674
0.00957813
0.0110684
0.0146958
0.0307118
0.0274807
0.0151404
0.0115485
0.0220244
0.0219324
0.018156
0.0330173
0.0443242
0.0630128
0.035066
0.0142361
0.0144237
0.00928206
0.0083161
0.010078
0.0130408
0.0140338
0.00882563
0.015669
0.0385917
0.0548526
0.0543338
0.035794
0.0146267
0.00309799
0.0105053
0.0208915
0.0105043
0.0166495
0.0419193
0.0372093
0.0285926
0.0492058
0.0636632
0.0527988
0.0494438
0.0495787
0.0316385
0.0236084
0.0444653
0.0637298
0.0627497
0.0435184
0.0764626
0.0474212
0.0363793
0.0282449
0.0223495
0.0426531
0.0600297
0.0506358
0.0259665
0.028475
0.0399341
0.0259816
0.0196331
0.0238253
0.0269494
0.0317126
0.0400087
0.0249998
0.010278
0.0141283
0.0136965
0.0108146
0.00827486
0.0112838
0.016919
0.0159168
0.0145546
0.00918435
0.00609631
0.0141937
0.0177926
0.0123313
0.0135185
0.0176986
0.0134907
0.00967615
0.00950287
0.00990924
0.0081483
0.00698749
0.0126882
0.0137263
0.0362649
0.0461135
0.0498884
0.0305091
0.0330126
0.0238401
0.0235105
0.033148
0.0415207
0.0265384
0.0122964
0.0164024
0.0149783
0.0221085
0.0120609
0.0104576
0.0115005
0.0135171
0.0231858
0.0260862
0.0168741
0.0145365
0.0188858
0.0258674
0.0243866
0.039069
0.0468646
0.0795147
0.0368358
0.0194308
0.0167795
0.0109359
0.0103792
0.0121391
0.0157897
0.0175139
0.0115312
0.0126028
0.0340274
0.0524615
0.0560792
0.0390707
0.0186492
0.00339246
0.00618551
0.0123146
0.0063904
0.0136376
0.0502511
0.0287728
0.022495
0.0386822
0.0605927
0.0542888
0.0409716
0.0396892
0.033067
0.0451936
0.068343
0.0757347
0.0552615
0.0367955
0.0682361
0.056723
0.0371211
0.0303196
0.0298319
0.0523893
0.073051
0.0646729
0.0320394
0.0233621
0.0332857
0.0212205
0.0149245
0.0178701
0.0244278
0.0325521
0.0555527
0.0426909
0.0120007
0.00886381
0.00869758
0.00716077
0.00848476
0.0147312
0.0218998
0.0182682
0.0121684
0.00721556
0.00714717
0.0161669
0.0200786
0.0161258
0.0164012
0.0207469
0.0158695
0.0111788
0.0107038
0.0108891
0.00978464
0.0079818
0.00932996
0.00934409
0.0285777
0.0435545
0.0569826
0.0365825
0.0347288
0.0265675
0.0272679
0.0336543
0.0432604
0.0246069
0.0158891
0.0199261
0.015013
0.0155983
0.0120681
0.0116212
0.0129882
0.0136081
0.016864
0.0239604
0.0155196
0.0176344
0.0136797
0.0245432
0.0266705
0.0424333
0.0587512
0.0945138
0.0420414
0.0241092
0.015498
0.0124844
0.0129208
0.0148977
0.0191185
0.0217259
0.0153778
0.0106067
0.0270589
0.0447326
0.0467415
0.0317099
0.0168007
0.00525294
0.00276696
0.00694431
0.0062685
0.0147048
0.045879
0.0211273
0.0142361
0.0285886
0.0483655
0.05172
0.0325219
0.0289719
0.0283044
0.0687714
0.0923418
0.082483
0.0471701
0.0299587
0.057324
0.0600109
0.0314739
0.0244048
0.0322279
0.0612262
0.0836794
0.0771129
0.0412042
0.0183657
0.0246865
0.0162246
0.0150788
0.0145577
0.0206049
0.0348913
0.0701108
0.0612098
0.0180286
0.00985474
0.011853
0.00999117
0.0111601
0.0186054
0.0271719
0.0220579
0.0104793
0.00748017
0.00769325
0.0131743
0.0175741
0.0173167
0.0193577
0.0248035
0.0191224
0.0135162
0.0127314
0.0126159
0.0112625
0.00918201
0.00884036
0.00871385
0.0204545
0.0399965
0.0615851
0.0456526
0.0317969
0.0240977
0.0256686
0.0298819
0.0390875
0.02786
0.0145904
0.0193685
0.0158501
0.0100356
0.00832183
0.0125741
0.0152132
0.0155653
0.015792
0.0213583
0.0132686
0.0149103
0.01099
0.0184352
0.0219108
0.0401063
0.0639153
0.0956499
0.0504302
0.025582
0.0130412
0.0150597
0.0154312
0.0177876
0.0226937
0.0250681
0.018955
0.0111134
0.0206736
0.0348254
0.0349053
0.0228366
0.0116271
0.00657967
0.00113222
0.00574763
0.0104375
0.0211786
0.0374087
0.0132725
0.0084842
0.0215779
0.0393288
0.0448276
0.0259095
0.019011
0.0250757
0.0880392
0.111906
0.0832035
0.0365988
0.0217397
0.0476435
0.0624982
0.0262494
0.0170237
0.0267825
0.0672377
0.0860901
0.0850116
0.0501643
0.0160776
0.017264
0.0160098
0.0176027
0.0148025
0.01813
0.0389052
0.0824102
0.0729563
0.0305599
0.0142594
0.0172849
0.0125893
0.013903
0.0224097
0.0320891
0.0286396
0.0121138
0.00865993
0.00840668
0.0100309
0.0135349
0.0138526
0.0224928
0.0291692
0.022527
0.0161358
0.0152044
0.0148827
0.0130794
0.0105229
0.0102283
0.00904029
0.013441
0.0310335
0.063563
0.0521915
0.0264668
0.0188811
0.0204399
0.0240883
0.0315894
0.0315776
0.011356
0.0166309
0.0147179
0.00945254
0.00474024
0.0133621
0.0175732
0.0184619
0.0173027
0.0173533
0.0110754
0.0105287
0.013037
0.0115986
0.0158624
0.0343696
0.0616237
0.0914168
0.057766
0.0244863
0.0119792
0.0183007
0.0179012
0.0207691
0.0263252
0.0257056
0.0201861
0.0121197
0.014445
0.0252064
0.0265594
0.0199493
0.00936467
0.00801311
0.000928164
0.00710237
0.00839717
0.017777
0.0275215
0.00806902
0.00536918
0.0181386
0.0332365
0.0389354
0.0238751
0.0129784
0.0244466
0.0984338
0.117461
0.0798309
0.0258288
0.0122035
0.0366
0.0632058
0.0263249
0.0114573
0.0212083
0.0692616
0.0831442
0.0873064
0.0587829
0.020625
0.0153762
0.0183682
0.0193953
0.0165731
0.0189676
0.0423829
0.0912132
0.077432
0.0421458
0.0218932
0.0182125
0.0145501
0.0164527
0.0257718
0.0370634
0.0352343
0.0177292
0.00996342
0.00892416
0.0108308
0.0127768
0.0120387
0.0255638
0.0339794
0.0259832
0.0187433
0.017663
0.0171533
0.0151901
0.0123709
0.0116978
0.00956614
0.010631
0.0230739
0.0573044
0.0493729
0.0192957
0.0131464
0.0141283
0.016638
0.0227928
0.0329348
0.0100044
0.0130101
0.0117099
0.00859161
0.00328469
0.0138141
0.0197647
0.021717
0.0199482
0.0137787
0.00847679
0.00611797
0.0189549
0.00908271
0.0136183
0.0270854
0.0579576
0.0861475
0.0650487
0.0240187
0.0142673
0.0217238
0.0207992
0.0238907
0.029777
0.0242026
0.0201575
0.014075
0.0108337
0.0192694
0.0240224
0.0209787
0.0120197
0.0101091
0.00187201
0.00830296
0.00746534
0.0144822
0.0190581
0.00582312
0.00516564
0.016496
0.0290585
0.0364541
0.0259963
0.0139221
0.0251031
0.0952973
0.112471
0.0745307
0.0195055
0.00602737
0.0264535
0.0548322
0.0314647
0.011956
0.0214276
0.0681275
0.0788647
0.0841517
0.0644639
0.0282896
0.018977
0.0210397
0.0208209
0.0179878
0.0203826
0.0447025
0.0945001
0.0788046
0.0507896
0.0264835
0.015269
0.0162348
0.0187849
0.0285657
0.0402284
0.0389573
0.0229351
0.0120864
0.00983066
0.0115114
0.0138821
0.0141334
0.026819
0.0362022
0.0287695
0.0206487
0.0196104
0.018995
0.0169654
0.0142038
0.0131271
0.0105218
0.0112062
0.0186921
0.0475321
0.044251
0.0136386
0.0123825
0.0126319
0.012502
0.0175572
0.0319565
0.011428
0.010027
0.0118609
0.00844197
0.00384156
0.0140396
0.0216804
0.0246878
0.0204005
0.01239
0.00746763
0.00467631
0.0252407
0.0121789
0.0148717
0.02198
0.0529548
0.0801541
0.0708217
0.027007
0.0179754
0.0242171
0.0237379
0.0268093
0.032617
0.0248974
0.0226562
0.0167437
0.0119496
0.0183256
0.0235054
0.0219218
0.0145311
0.0109967
0.00388631
0.00874821
0.00690083
0.0111915
0.0136559
0.00575785
0.00583569
0.0153463
0.0259553
0.0336182
0.0258098
0.0162922
0.026048
0.0890671
0.10641
0.0702044
0.0187506
0.00528043
0.0198077
0.048653
0.033203
0.0161333
0.0252224
0.0663205
0.0752963
0.0792436
0.0647235
0.0336654
0.0235621
0.0236628
0.0222726
0.0189716
0.0209287
0.0449691
0.0907849
0.0775316
0.0553682
0.028035
0.0154728
0.0182356
0.0208455
0.0302833
0.0409038
0.0395202
0.0257271
0.0138034
0.0105715
0.0122588
0.0147968
0.0152551
0.0254518
0.0342851
0.0293841
0.0219548
0.0211045
0.0204323
0.0184313
0.0156659
0.0142167
0.0116741
0.012245
0.0180379
0.0404823
0.0397502
0.0130585
0.0133467
0.0138427
0.0138823
0.0183822
0.030786
0.0139067
0.0106005
0.0120234
0.00834253
0.00471766
0.0143506
0.0233114
0.0264023
0.0197478
0.0130497
0.00802605
0.00585872
0.0269544
0.0170265
0.0172977
0.0206364
0.0471268
0.0739413
0.0752026
0.0330374
0.0216414
0.0260564
0.0264522
0.0295773
0.0348748
0.0282566
0.0262038
0.0198457
0.0137224
0.0191617
0.023816
0.0231052
0.0158551
0.0108099
0.00729985
0.0153378
0.0118922
0.00835976
0.00505276
0.00270663
0.00275996
0.00664941
0.0108367
0.0142422
0.017443
0.0249006
0.0285819
0.0448575
0.0607263
0.0452986
0.0153439
0.00643337
0.00636567
0.0180638
0.0211626
0.0274704
0.045482
0.0509375
0.0500865
0.0459293
0.0473426
0.0489894
0.0481632
0.0422996
0.0320174
0.0232538
0.0207801
0.0340635
0.0553077
0.0580918
0.0579102
0.0318992
0.0242186
0.0286861
0.0311513
0.0321566
0.034128
0.0326865
0.0267013
0.0185288
0.0143398
0.0153537
0.0177492
0.0172692
0.00825086
0.0107682
0.0191703
0.0234219
0.0243743
0.0240124
0.0227179
0.0217402
0.0186939
0.0185134
0.0190704
0.0191828
0.0175589
0.0166653
0.0162615
0.0170101
0.0178574
0.0193995
0.0225552
0.0234281
0.0240871
0.0198507
0.0167583
0.00920306
0.00711174
0.0157994
0.0288563
0.0279419
0.0197153
0.016751
0.0137009
0.0155202
0.0227674
0.0326692
0.0191
0.0146958
0.0251873
0.0462143
0.0873845
0.0650426
0.0403963
0.033186
0.0380897
0.0418033
0.0438379
0.0438211
0.0451722
0.0403831
0.0282158
0.0251246
0.0284556
0.0296454
0.0180967
0.00901448
0.00751956
0.00853434
0.00763343
0.00402713
0.00208874
0.00106814
0.000780205
0.000844213
0.00081313
0.00137211
0.00342904
0.00697745
0.0128662
0.0115162
0.00832378
0.0100478
0.00901478
0.010961
0.0109491
0.0112315
0.0138825
0.0180039
0.0330394
0.0306341
0.0154542
0.0120772
0.0122287
0.0154077
0.0189876
0.0208246
0.0267031
0.0293492
0.028108
0.0252142
0.0203726
0.0213836
0.0231218
0.0241386
0.0254786
0.0302299
0.0363114
0.0424102
0.0446346
0.0433217
0.0365397
0.0288415
0.0257165
0.0240663
0.022702
0.0210144
0.0180171
0.0186941
0.0209578
0.0225616
0.0230445
0.0226771
0.0218451
0.021065
0.0219827
0.0237049
0.0249842
0.0277812
0.0302717
0.0260825
0.0225245
0.0225666
0.0247626
0.0266052
0.0289617
0.0305872
0.0313486
0.0284448
0.025437
0.0227412
0.0264768
0.0333686
0.0438679
0.0430861
0.0295371
0.0202741
0.0208371
0.024819
0.0193802
0.0239005
0.021641
0.0182287
0.0183227
0.0230432
0.0465521
0.0521352
0.0453956
0.0383035
0.0402247
0.0482162
0.0563467
0.0669257
0.0752317
0.0736183
0.0604845
0.0553353
0.0588272
0.0553085
0.0363968
0.0179019
0.00542429
0.00483166
0.00435071
0.00329995
0.0018999
0.00148822
0.00245361
0.00392239
0.00487417
0.0057685
0.00641554
0.0061713
0.00558929
0.00501196
0.00432997
0.00330358
0.00357646
0.00912819
0.0133282
0.0130933
0.0120672
0.0120656
0.0160894
0.0153078
0.0126137
0.00806061
0.0048273
0.00409101
0.0044633
0.00572818
0.00845836
0.0129156
0.0184298
0.0207716
0.0200472
0.0183776
0.0184626
0.0196307
0.020979
0.0229567
0.026845
0.0337479
0.0444579
0.0533211
0.056948
0.0551899
0.0468789
0.0358993
0.0300566
0.0266966
0.0248419
0.0251066
0.0284749
0.0312681
0.0335122
0.035122
0.0370204
0.0395693
0.0428874
0.0454352
0.0439509
0.0403707
0.0385988
0.0377941
0.0357876
0.0362652
0.0358044
0.0343339
0.0331528
0.0336024
0.0332628
0.0351252
0.0368618
0.0400864
0.0441188
0.0473375
0.0559308
0.0630233
0.0546471
0.0331042
0.0367179
0.0406942
0.0434248
0.0607961
0.075345
0.0689639
0.0651901
0.0516468
0.0315858
0.0244537
0.0228805
0.0255856
0.0313217
0.0394297
0.0503784
0.0676986
0.0873574
0.0986235
0.103419
0.103105
0.0980415
0.0849485
0.0601653
0.0379529
0.0054332
0.0059841
0.00585769
0.00458692
0.00267884
0.00228985
0.0029226
0.00381083
0.00495623
0.0063207
0.00822408
0.0106195
0.0131407
0.0141002
0.0148353
0.015448
0.0147587
0.0110969
0.00870837
0.00816851
0.0089788
0.0104585
0.0119769
0.0123316
0.0113446
0.00778646
0.00559112
0.0061627
0.00731521
0.00744272
0.0072728
0.00738821
0.00793233
0.00895263
0.0107922
0.0126302
0.0146525
0.015996
0.0172586
0.0190301
0.0220886
0.0244507
0.0289971
0.0368135
0.0464071
0.0531494
0.0549803
0.0502786
0.0410495
0.0345912
0.0319796
0.0326657
0.0347736
0.0367439
0.0391503
0.0420523
0.0448894
0.0482556
0.0530123
0.0591519
0.0651148
0.0688562
0.0692132
0.0659484
0.0593737
0.0522355
0.0479101
0.0453509
0.040906
0.0371987
0.0354571
0.0366398
0.039796
0.0445704
0.0493986
0.0530006
0.0622529
0.0739569
0.0727439
0.0540308
0.0531698
0.0592639
0.07295
0.0872312
0.101585
0.1037
0.10309
0.106065
0.0891637
0.0601179
0.0331796
0.0240889
0.0242945
0.0283711
0.039065
0.0600509
0.0872086
0.109713
0.1243
0.130466
0.126741
0.115104
0.0943418
0.0734481
0.00613061
0.0061947
0.0064209
0.00636452
0.00483326
0.0033602
0.003205
0.00348862
0.00425971
0.00572338
0.0077699
0.0106749
0.014331
0.0194571
0.0264978
0.0337945
0.0383713
0.0383129
0.032714
0.0228687
0.0136333
0.010002
0.00901351
0.00899129
0.00958144
0.0106914
0.0114855
0.0107659
0.00991932
0.00912159
0.00871368
0.00974757
0.0125986
0.0149645
0.0148833
0.0137939
0.0130025
0.0126727
0.0126416
0.0131081
0.0141719
0.0158212
0.0178355
0.0219449
0.0274978
0.0324197
0.0378389
0.0414537
0.0422602
0.0379939
0.0342757
0.0338984
0.0350783
0.0366623
0.039416
0.0432432
0.0461294
0.0478859
0.0502697
0.0545195
0.0619966
0.072838
0.0845865
0.0919684
0.092052
0.0882964
0.0788989
0.0700551
0.0618979
0.054382
0.0463868
0.0395352
0.0389489
0.0412157
0.0452372
0.0520322
0.0625017
0.0796793
0.0847104
0.076438
0.0611234
0.0557801
0.0569918
0.0547997
0.0562099
0.0624663
0.0781886
0.106112
0.119116
0.103643
0.0773341
0.0512851
0.0409326
0.0384059
0.0417273
0.0543328
0.0791183
0.111983
0.137748
0.14742
0.145488
0.136587
0.121065
0.107322
0.0165897
0.0102591
0.00803488
0.00782094
0.00720021
0.00539809
0.00410448
0.00434286
0.00533354
0.0072486
0.0100028
0.014535
0.0215315
0.0317213
0.045034
0.0569285
0.0648235
0.0682597
0.0652246
0.0561858
0.0419291
0.0260009
0.0153258
0.0106055
0.00926475
0.00884918
0.00855842
0.00769802
0.00676056
0.00673027
0.00721809
0.00875229
0.0121892
0.0178974
0.0233751
0.0257503
0.0265645
0.0267238
0.0258582
0.0239209
0.0221821
0.0207652
0.0187698
0.0170534
0.0173498
0.0188263
0.0232982
0.0292218
0.0333488
0.0373887
0.0356007
0.0337817
0.0339691
0.0348139
0.0368656
0.0402317
0.0438554
0.0467885
0.0493951
0.0520168
0.0568081
0.0655541
0.079866
0.0980564
0.116322
0.128589
0.128938
0.120191
0.104235
0.0888714
0.0739936
0.060044
0.049844
0.0454864
0.0453058
0.0503383
0.0597758
0.0761454
0.0903881
0.0900075
0.076373
0.0582601
0.050509
0.0486397
0.0468499
0.0462504
0.0504855
0.0693352
0.1003
0.110195
0.0965664
0.0770345
0.0667683
0.0575521
0.0533528
0.0582298
0.0772557
0.113415
0.151092
0.16417
0.163043
0.157259
0.147417
0.139361
0.0305353
0.018941
0.0119394
0.00924922
0.00823144
0.00687261
0.00534437
0.00559152
0.00638868
0.0081649
0.0113804
0.0171779
0.0274508
0.0454113
0.0671469
0.0826265
0.0905782
0.0950478
0.0933673
0.0857967
0.0748978
0.0594787
0.040553
0.0240359
0.0150329
0.0108717
0.00836502
0.00599848
0.00540524
0.00571077
0.00652172
0.00866719
0.0127914
0.0190387
0.0271355