/*--------------------------------*- C++ -*----------------------------------*\
| =========                 |                                                 |
| \\      /  F ield         | OpenFOAM: The Open Source CFD Toolbox           |
|  \\    /   O peration     | Version:  v1912                                 |
|   \\  /    A nd           | Website:  www.openfoam.com                      |
|    \\/     M anipulation  |                                                 |
\*---------------------------------------------------------------------------*/
FoamFile
{
    version     2.0;
    format      ascii;
    class       surfaceScalarField;
    location    "40";
    object      phi;
}
// * * * * * * * * * * * * * * * * * * * * * * * * * * * * * * * * * * * * * //

dimensions      [0 3 -1 0 0 0 0];
oriented        oriented;


internalField   nonuniform List<scalar> 
28285
(
0.0294045
-0.000752301
0.0267727
0.00263188
0.0230003
0.00377232
0.018597
0.00440332
0.0137579
0.00483909
0.00859182
0.0051661
0.00318254
0.00540928
-0.00234676
0.0055293
-0.00791527
0.0055685
-0.0133885
0.00547324
-0.0186022
0.00521371
-0.0233777
0.00477551
-0.0275348
0.00415708
-0.0309058
0.00337101
-0.0333496
0.00244376
-0.0347632
0.00141363
-0.0350904
0.000327234
-0.0343265
-0.000763916
-0.0325124
-0.00181417
-0.029734
-0.00277838
-0.0261145
-0.00361948
-0.0218054
-0.00430907
-0.0169784
-0.00482702
-0.0118176
-0.00516078
-0.00650975
-0.00530787
-0.000807788
-0.00570197
0.00452656
-0.00533434
0.00950675
-0.00498019
0.0141087
-0.00460196
0.0182529
-0.00414416
0.0218795
-0.00362667
0.0249556
-0.00307605
0.0274731
-0.00251753
0.0294452
-0.00197212
0.0308998
-0.00145459
0.0318722
-0.000972339
0.0323978
-0.000525676
0.032493
-9.51858e-05
0.0321971
0.0002959
0.0314979
0.000699212
0.0303845
0.0011134
0.0288334
0.00155116
0.0268135
0.00201986
0.0242945
0.00251902
0.0212564
0.00303808
0.0177002
0.00355616
0.0136559
0.00404437
0.00918616
0.0044697
0.00438503
0.00480113
-0.000612399
0.00499743
-0.00573481
0.00512242
-0.0108188
0.005084
-0.0157633
0.00494449
-0.0204898
0.00472649
-0.0249512
0.00446142
-0.0291301
0.00417889
-0.0330305
0.00390037
-0.0366652
0.00363474
-0.0400433
0.00337808
-0.0431595
0.0031162
-0.045987
0.00282751
-0.0484716
0.00248461
-0.050528
0.00205637
-0.0520415
0.00151354
-0.05288
0.00083846
-0.0529063
2.63464e-05
-0.0519818
-0.000924529
-0.0500474
-0.00193444
-0.0470494
-0.00299795
-0.0429922
-0.00405724
-0.0379387
-0.00505343
-0.0319993
-0.00593949
-0.0253167
-0.0066826
-0.0180518
-0.00726489
-0.0103665
-0.00768525
-0.00247817
-0.00788834
0.00574839
-0.00822656
0.0139105
-0.00816212
0.02203
-0.0081195
0.0300159
-0.00798584
0.0377818
-0.00776597
0.0452281
-0.00744623
0.0522365
-0.00700846
0.058668
-0.00643149
0.0643646
-0.00569664
0.0691582
-0.00479353
0.0728826
-0.00372444
0.075389
-0.00250637
0.0765599
-0.00117096
0.0763195
0.000240442
0.0746532
0.00166629
0.0715836
0.00306963
0.0671878
0.0043958
0.0615825
0.00560525
0.0549141
0.00666839
0.0473475
0.00756659
0.0390641
0.00828349
0.0302422
0.00882186
0.0212277
0.00901446
0.0115975
0.00963021
0.00176946
0.00982806
-0.00782355
0.00959301
-0.0170735
0.00925
-0.0258597
0.00878619
-0.0340725
0.00821279
-0.0415461
0.00747357
-0.0481554
0.00660925
-0.053789
0.00563361
-0.0583716
0.00458259
-0.0618648
0.00349323
-0.0642749
0.00241015
-0.0656413
0.00136636
-0.065991
0.000349723
-0.0655227
-0.000468303
-0.0642575
-0.0012652
-0.0623033
-0.00195424
-0.0597551
-0.00254821
-0.056686
-0.00306908
-0.0531472
-0.00353884
-0.049168
-0.00397911
-0.0447603
-0.00440778
-0.0399237
-0.00483659
-0.0346537
-0.00526994
-0.0289526
-0.00570108
-0.0228309
-0.0061217
-0.0163268
-0.00650411
-0.00952365
-0.00680319
-0.00239717
-0.00712648
0.00487701
-0.00727418
0.0121302
-0.00725315
0.019255
-0.00712483
0.0261202
-0.00686522
0.0325775
-0.00645732
0.0384971
-0.00591956
0.043755
-0.00525789
0.0482458
-0.00449077
0.051882
-0.00363625
0.0545994
-0.00271741
0.0563532
-0.00175382
0.0571202
-0.000766937
0.0569277
0.00019244
0.0557986
0.00112913
0.0537717
0.00202692
0.0509222
0.00284945
0.0473441
0.00357815
0.0431404
0.0042037
0.0384416
0.00469884
0.0333963
0.00504527
0.0278939
0.00550238
0.0222077
0.00568619
0.0164212
0.00578653
0.0106278
0.00579343
0.00490359
0.00572417
-0.000755483
0.00565907
-0.00609942
0.00534394
-0.0112211
0.0051217
-0.0160234
0.00480233
-0.0204422
0.00441879
-0.0243965
0.00395428
-0.0277992
0.00340263
-0.0305606
0.00276149
-0.0326056
0.00204494
-0.033869
0.00126342
0.000454778
0.0300389
0.00114214
0.0270278
0.00564291
0.0231588
0.00764139
0.0187212
0.00884086
0.0138615
0.00969881
0.00867033
0.0103573
0.00322965
0.01085
-0.00240407
0.011163
-0.00804528
0.0112097
-0.013609
0.0110369
-0.018919
0.0105237
-0.0237885
0.00964496
-0.0280299
0.0083985
-0.0314693
0.00681042
-0.0339603
0.00493477
-0.0353962
0.00284955
-0.0357188
0.00064979
-0.0349239
-0.00155882
-0.0330533
-0.00368478
-0.0301958
-0.00563586
-0.0264782
-0.00733706
-0.0220551
-0.00873219
-0.0170974
-0.00978471
-0.0117792
-0.010479
-0.00625826
-0.0108288
-0.000652
-0.0113082
0.00472141
-0.0107078
0.00979082
-0.0100496
0.0144687
-0.00927979
0.0186702
-0.00834567
0.0223337
-0.00729024
0.0254258
-0.00616807
0.0279391
-0.00503089
0.0298895
-0.00392255
0.0313097
-0.00287474
0.0322417
-0.00190438
0.0327283
-0.00101229
0.0328007
-0.000167538
0.0324956
0.000600974
0.0318054
0.00138949
0.0307143
0.00220448
0.0291901
0.00307539
0.0271911
0.00401877
0.0246773
0.00503291
0.0216211
0.00609428
0.0180193
0.0071579
0.0139014
0.00816225
0.00933359
0.00903756
0.0044162
0.00971852
-0.000696034
0.0101097
-0.0059431
0.0103695
-0.0111303
0.0102712
-0.0161518
0.00996603
-0.0209218
0.00949651
-0.0253906
0.00893021
-0.0295444
0.00833264
-0.0333979
0.00775388
-0.0369819
0.00721871
-0.0403267
0.00672289
-0.0434457
0.00623523
-0.0463211
0.0057029
-0.0488949
0.00505843
-0.0510678
0.00422923
-0.0527054
0.00315112
-0.0536508
0.00178386
-0.0537282
0.000103745
-0.052878
-0.00177473
-0.0509372
-0.00387524
-0.0478666
-0.00606851
-0.0436862
-0.00823763
-0.0384728
-0.0102669
-0.0323528
-0.0120595
-0.0254865
-0.0135489
-0.018048
-0.0147034
-0.0102095
-0.0155238
-0.00208619
-0.0160117
0.00605696
-0.0163697
0.0142754
-0.0163805
0.0224326
-0.0162767
0.0304591
-0.0160124
0.038279
-0.0155859
0.0458
-0.0149672
0.0529045
-0.014113
0.0594471
-0.0129741
0.0652586
-0.0115081
0.0701566
-0.00969157
0.0739612
-0.00752909
0.076512
-0.00505715
0.0776843
-0.00234321
0.0773957
0.000529063
0.0756399
0.00342208
0.0724435
0.006266
0.0678939
0.00894536
0.0621194
0.0113798
0.0552766
0.0135112
0.0475381
0.0153052
0.0390819
0.0167396
0.0300807
0.0178231
0.0206476
0.0184476
0.0111049
0.0191729
0.00130175
0.0196312
-0.00831846
0.0192132
-0.0176765
0.018608
-0.026568
0.0176777
-0.0348698
0.0165147
-0.0424157
0.0150194
-0.0490711
0.0132647
-0.0547204
0.0112829
-0.0592843
0.00914646
-0.0627236
0.00693251
-0.0650422
0.00472877
-0.0662957
0.00261988
-0.0665807
0.000634751
-0.065963
-0.00108601
-0.0645729
-0.00265535
-0.0625209
-0.00400616
-0.0598982
-0.00517096
-0.0567804
-0.00618686
-0.0532166
-0.00710263
-0.0492303
-0.00796544
-0.0448242
-0.00881391
-0.0399883
-0.00967243
-0.0347097
-0.0105485
-0.0289838
-0.0114271
-0.0228191
-0.0122864
-0.0162566
-0.0130666
-0.00933654
-0.0137233
-0.00212841
-0.0143346
0.00521385
-0.0146164
0.0125682
-0.0146075
0.0197867
-0.0143433
0.0267336
-0.0138121
0.0332583
-0.012982
0.0392267
-0.011888
0.0445138
-0.0105449
0.0490127
-0.0089897
0.0526364
-0.00725992
0.0553194
-0.00540045
0.0570216
-0.00345604
0.0577184
-0.00146375
0.0574339
0.000476992
0.0561983
0.00236471
0.0540546
0.00417066
0.0510795
0.0058245
0.0473704
0.00728731
0.0430349
0.00853913
0.0381897
0.00954409
0.0329526
0.0102824
0.0274393
0.0110157
0.0217188
0.0114067
0.0159074
0.0115979
0.0100985
0.0116024
0.00436189
0.0114608
-0.00125688
0.0112778
-0.00663936
0.0107264
-0.0117715
0.0102538
-0.01658
0.00961085
-0.0209922
0.00883102
-0.0249227
0.0078847
-0.0282792
0.00675912
-0.0309701
0.00545241
-0.0329202
0.00399509
-0.0340707
0.00241394
0.000793846
0.0309675
0.0045594
0.0274654
0.00914497
0.0234158
0.011691
0.0188935
0.0133631
0.0139783
0.014614
0.00873236
0.0156032
0.00321863
0.0163637
-0.0024879
0.0168695
-0.00821484
0.0169366
-0.0138884
0.0167105
-0.0193118
0.0159471
-0.0242887
0.0146219
-0.0286236
0.0127334
-0.0321353
0.0103221
-0.0346718
0.00747133
-0.0361231
0.00430084
-0.0364281
0.000954733
-0.0355883
-0.00239859
-0.0336452
-0.0056279
-0.0306924
-0.00858861
-0.0268619
-0.0111676
-0.0223128
-0.0132813
-0.0172188
-0.0148787
-0.0117523
-0.0159454
-0.00605836
-0.0165228
-0.000429035
-0.0169376
0.0049912
-0.016128
0.0101379
-0.0151964
0.0148677
-0.0140096
0.0190974
-0.0125754
0.0227681
-0.0109609
0.0258488
-0.00924885
0.028336
-0.00751804
0.0302494
-0.00583594
0.0316267
-0.00425207
0.0325154
-0.00279304
0.0329629
-0.0014598
0.0330159
-0.000220518
0.0326905
0.000926346
0.0319942
0.00208578
0.0309043
0.00329441
0.0293823
0.00459732
0.0273812
0.00601994
0.0248558
0.00755831
0.021776
0.00917401
0.0181382
0.0107957
0.0139732
0.0123272
0.00935011
0.0136607
0.00437348
0.0146951
-0.00082121
0.0153044
-0.0060983
0.0156466
-0.011322
0.0154949
-0.0163688
0.0150128
-0.0211505
0.0142783
-0.025618
0.0133977
-0.0297602
0.0124748
-0.0335966
0.0115903
-0.037164
0.0107861
-0.0404986
0.0100575
-0.0436176
0.00935426
-0.0465039
0.00858918
-0.0490967
0.00765123
-0.0512914
0.00642391
-0.0529476
0.0048073
-0.0539038
0.00274007
-0.0539988
0.000198741
-0.0531213
-0.00265223
-0.0511567
-0.00583981
-0.0480577
-0.00916748
-0.0438417
-0.0124537
-0.0385871
-0.0155214
-0.032423
-0.0182236
-0.0255119
-0.02046
-0.0180307
-0.0221846
-0.0101516
-0.0234028
-0.00200309
-0.0241602
0.00617533
-0.0245481
0.0144184
-0.0246236
0.0225977
-0.024456
0.0306448
-0.0240595
0.0384838
-0.0234249
0.0460225
-0.022506
0.0531428
-0.0212333
0.0596982
-0.0195294
0.0655181
-0.017328
0.0704191
-0.0145926
0.0742204
-0.0113304
0.076761
-0.00759772
0.0779161
-0.00349832
0.0776062
0.00083894
0.075823
0.00520526
0.0725953
0.00949371
0.0680115
0.0135292
0.0622005
0.0171907
0.0553197
0.0203919
0.047542
0.0230829
0.0390449
0.0252367
0.0300019
0.0268661
0.0205382
0.0279113
0.0109628
0.0287483
0.00115956
0.0294344
-0.0084675
0.0288403
-0.0178353
0.0279758
-0.0267355
0.0265779
-0.0350419
0.024821
-0.0425889
0.0225664
-0.0492413
0.0199172
-0.0548845
0.016926
-0.0594396
0.0137016
-0.0628688
0.0103618
-0.0651796
0.00703953
-0.0664235
0.00386379
-0.0666574
0.000868584
-0.0660471
-0.00169626
-0.064649
-0.0040535
-0.0625807
-0.00607439
-0.0599407
-0.00781103
-0.0568051
-0.00932243
-0.0532235
-0.0106842
-0.0492196
-0.0119694
-0.0447963
-0.0132372
-0.039944
-0.0145247
-0.03465
-0.0158426
-0.0289095
-0.0171675
-0.0227316
-0.0184643
-0.0161531
-0.0196451
-0.00922908
-0.0206473
-0.00201645
-0.0215472
0.00532113
-0.021954
0.0126753
-0.0219616
0.0198909
-0.021559
0.026833
-0.0207542
0.0333509
-0.0195
0.0393104
-0.0178475
0.0445866
-0.0158211
0.049073
-0.0134762
0.0526829
-0.0108698
0.0553524
-0.00806986
0.0570385
-0.0051422
0.0577188
-0.00214407
0.0574261
0.000769742
0.0561823
0.00360845
0.0540312
0.00632179
0.0510513
0.00880438
0.0473395
0.0109991
0.0430029
0.0128757
0.0381554
0.0143916
0.0329277
0.01551
0.0274049
0.0165385
0.0216786
0.0171329
0.0158658
0.0174107
0.0100573
0.0174109
0.0043235
0.0171946
-0.00129282
0.0168942
-0.00666452
0.0160981
-0.0117832
0.0153725
-0.0165782
0.0144059
-0.0209796
0.0132324
-0.0249061
0.0118113
-0.0282691
0.0101221
-0.0309787
0.00816199
-0.0329567
0.00597305
-0.0341474
0.00360467
0.00115659
0.0320813
0.00894296
0.0280876
0.0131387
0.0238139
0.0159647
0.0191754
0.0180016
0.0141829
0.0196066
0.00886612
0.02092
0.00327861
0.0219512
-0.00256815
0.0227163
-0.00848519
0.0228537
-0.0143048
0.0225301
-0.0198642
0.0215066
-0.0249636
0.0197212
-0.0293983
0.0171681
-0.0329793
0.0139032
-0.0355495
0.0100416
-0.0369964
0.00574767
-0.0372601
0.00121842
-0.0363467
-0.00331192
-0.0343027
-0.00767194
-0.0312282
-0.0116632
-0.027262
-0.0151337
-0.0225699
-0.0179734
-0.0173317
-0.020117
-0.0117289
-0.0215482
-0.00594061
-0.0223111
-0.000238927
-0.0226392
0.00523943
-0.0216063
0.0104611
-0.0204181
0.0152527
-0.0188012
0.0195242
-0.0168469
0.0232163
-0.0146529
0.0262992
-0.0123317
0.0287716
-0.00999045
0.0306572
-0.0077216
0.031999
-0.00559387
0.0328507
-0.00364473
0.0332666
-0.00187571
0.0332904
-0.000244246
0.0329581
0.00125861
0.0322648
0.00277906
0.0311868
0.00437239
0.0296806
0.00610357
0.0276917
0.00800885
0.0251678
0.0100822
0.0220727
0.0122691
0.0183991
0.0144694
0.0141772
0.0165492
0.00947802
0.0183598
0.00441076
0.0197624
-0.000904499
0.0206196
-0.00624676
0.0209888
-0.0115427
0.0207908
-0.0166438
0.0201139
-0.0214564
0.0190909
-0.0259304
0.0178716
-0.0300586
0.0166031
-0.0338693
0.015401
-0.0374108
0.0143275
-0.0407312
0.0133779
-0.0438577
0.0124807
-0.0467778
0.0115093
-0.0494297
0.0103031
-0.0517017
0.00869596
-0.0534427
0.00654827
-0.0544786
0.00377595
-0.0546179
0.000338038
-0.053785
-0.00348512
-0.051823
-0.00780175
-0.0486866
-0.012304
-0.0443977
-0.0167425
-0.0390428
-0.0208763
-0.0327613
-0.0245052
-0.0257272
-0.027494
-0.0181279
-0.029784
-0.0101453
-0.0313854
-0.00192401
-0.0323815
0.00633281
-0.032805
0.0146258
-0.0329167
0.0228486
-0.0326788
0.0309403
-0.0321512
0.0388324
-0.0313169
0.0464372
-0.0301108
0.0536375
-0.0284335
0.0602832
-0.0261752
0.066197
-0.0232417
0.071186
-0.0195816
0.0750595
-0.0152039
0.0776477
-0.0101859
0.0788195
-0.00467019
0.0784902
0.00116832
0.0766559
0.00703953
0.0733473
0.0128023
0.0686594
0.0182171
0.0627291
0.023121
0.0557212
0.0273998
0.0478143
0.0309899
0.0391879
0.0338632
0.0300165
0.0360374
0.0204335
0.0374944
0.0107085
0.0384733
0.000876459
0.0392664
-0.00881492
0.0385317
-0.0182701
0.037431
-0.0272621
0.03557
-0.0356513
0.0332102
-0.0432701
0.0301851
-0.0499753
0.0266224
-0.0556479
0.0225986
-0.0602056
0.0182592
-0.0636088
0.013765
-0.0658632
0.00929392
-0.0670331
0.00503375
-0.0672005
0.00103599
-0.0665
-0.00239675
-0.0650114
-0.00554211
-0.0628662
-0.00821958
-0.0601649
-0.0105124
-0.0569863
-0.0125011
-0.053379
-0.0142915
-0.0493631
-0.0159853
-0.0449357
-0.0176646
-0.04008
-0.0193803
-0.0347768
-0.0211458
-0.0290156
-0.0229288
-0.0228028
-0.0246771
-0.0161771
-0.0262708
-0.00916889
-0.0276554
-0.00187805
-0.0288381
0.00553665
-0.0293687
0.0129816
-0.0294066
0.0202868
-0.0288642
0.0273119
-0.0277793
0.0339035
-0.0260916
0.0399231
-0.0238671
0.045244
-0.021142
0.0497582
-0.0179903
0.053378
-0.0144896
0.0560382
-0.0107301
0.0576972
-0.00680127
0.058332
-0.00277888
0.0579802
0.00112157
0.0566581
0.00493053
0.0544165
0.00856344
0.0513362
0.0118847
0.0475163
0.014819
0.0430691
0.0173229
0.0381115
0.0193492
0.0327591
0.0208624
0.0271658
0.0221318
0.0213877
0.022911
0.0155326
0.0232658
0.00969257
0.0232509
0.00393123
0.022956
-0.00168804
0.0225134
-0.00709459
0.0215047
-0.0122361
0.0205141
-0.017054
0.0192237
-0.0214721
0.0176505
-0.0254058
0.015745
-0.0287614
0.0134777
-0.0314452
0.0108458
-0.0333771
0.00790494
-0.0344966
0.00472419
0.0014346
0.0331528
0.0137793
0.0287296
0.0175619
0.0242092
0.0204851
0.0194271
0.0227837
0.0143351
0.0246986
0.00892654
0.0263286
0.00322496
0.0276528
-0.00266799
0.0286092
-0.00869837
0.0288841
-0.0146564
0.0284882
-0.0203569
0.027207
-0.0255891
0.0249534
-0.0301385
0.0217176
-0.0338071
0.0175718
-0.0364308
0.0126653
-0.0378933
0.00721015
-0.0381288
0.00145391
-0.0371595
-0.00428121
-0.0350255
-0.00980593
-0.0318358
-0.0148529
-0.0277369
-0.0192326
-0.0229023
-0.022808
-0.0175202
-0.0254991
-0.0117832
-0.0272852
-0.00588788
-0.0282063
-8.97621e-05
-0.0284374
0.00550472
-0.0272008
0.0108115
-0.0257248
0.0156702
-0.0236598
0.0199867
-0.0211634
0.0237014
-0.0183676
0.0267859
-0.0154163
0.0292418
-0.0124463
0.0310971
-0.00957696
0.0324006
-0.00689735
0.0332128
-0.0044569
0.0335951
-0.00225799
0.0335883
-0.000237453
0.0332492
0.00159774
0.0325592
0.00346905
0.031494
0.00543758
0.0300048
0.00759278
0.0280297
0.0099839
0.0255087
0.0126033
0.0223987
0.015379
0.0186884
0.0181797
0.014407
0.0208305
0.00962819
0.0231386
0.00446698
0.0249236
-0.000954951
0.0260415
-0.00638897
0.0264228
-0.0117611
0.026163
-0.0169184
0.0252711
-0.0217624
0.0239349
-0.0262429
0.0223521
-0.0303578
0.020718
-0.0341444
0.0191876
-0.0376621
0.0178453
-0.0409706
0.0166864
-0.0441057
0.0156158
-0.0470594
0.014463
-0.0497687
0.0130124
-0.0521156
0.0110429
-0.0539386
0.00837119
-0.0550513
0.00488865
-0.0552387
0.000525496
-0.0544466
-0.00427728
-0.0524875
-0.0097608
-0.0493173
-0.0154742
-0.044961
-0.0210988
-0.0395121
-0.0263252
-0.0331195
-0.0308977
-0.0259685
-0.034645
-0.0182569
-0.0374956
-0.0101745
-0.0394678
-0.00187697
-0.040679
0.00645654
-0.0411385
0.0148021
-0.0412622
0.0230716
-0.0409483
0.0312102
-0.0402898
0.0391561
-0.0392628
0.0468257
-0.0377804
0.0541022
-0.0357101
0.0608329
-0.0329059
0.0668341
-0.0292429
0.0719048
-0.0246522
0.0758454
-0.0191445
0.0784782
-0.0128187
0.0796663
-0.00585828
0.0793226
0.00151203
0.0774438
0.00891835
0.074064
0.0161822
0.0692839
0.0229971
0.0632472
0.0291577
0.0561254
0.0345216
0.0481024
0.0390129
0.0393613
0.0426042
0.0300785
0.0453202
0.0203949
0.047178
0.0105459
0.0483223
0.00065184
0.0491605
-0.00910626
0.0482898
-0.0186385
0.0469632
-0.027711
0.0446426
-0.0361732
0.0416724
-0.0438551
0.0378671
-0.0506076
0.0333749
-0.0563077
0.0282988
-0.0608705
0.022822
-0.0642563
0.0171508
-0.0664741
0.0115117
-0.0675873
0.00614691
-0.0676705
0.00111922
-0.0669136
-0.00315369
-0.0653584
-0.00709722
-0.0631498
-0.0104282
-0.0603956
-0.0132666
-0.0571771
-0.0157196
-0.0535427
-0.0179259
-0.0495102
-0.0200177
-0.0450727
-0.0221021
-0.0402085
-0.0242445
-0.0348935
-0.0264608
-0.0291128
-0.0287095
-0.0228701
-0.0309197
-0.0161977
-0.0329433
-0.00914478
-0.0347083
-0.00179832
-0.0361845
0.00567643
-0.0368435
0.0131873
-0.0369174
0.020558
-0.0362349
0.027644
-0.0348653
0.0342898
-0.0327374
0.040354
-0.0299314
0.0457087
-0.0264967
0.0502448
-0.0225264
0.0538742
-0.018119
0.0565319
-0.0133878
0.0581765
-0.00844591
0.0587848
-0.0033872
0.0583999
0.00150648
0.057034
0.00629645
0.0547403
0.0108571
0.0516011
0.0150239
0.0477176
0.0187025
0.0432044
0.0218361
0.0381799
0.0243738
0.0327677
0.0262746
0.027119
0.0277806
0.0212923
0.0287377
0.0154003
0.0291578
0.00953179
0.0291194
0.00374826
0.0287395
-0.00188546
0.0281472
-0.00730687
0.0269261
-0.0124608
0.025668
-0.017294
0.024057
-0.0217316
0.0220881
-0.0256899
0.0197032
-0.0290741
0.0168619
-0.031788
0.0135597
-0.0337444
0.00986142
-0.0348851
0.00586481
0.0017088
0.0340762
0.0187265
0.0293911
0.022247
0.0246736
0.0252027
0.0197603
0.0276969
0.0145717
0.0298872
0.00907522
0.0318251
0.0032822
0.0334458
-0.00271824
0.0346097
-0.0088781
0.0350439
-0.0149881
0.0345981
-0.0208476
0.0330666
-0.0262335
0.0303394
-0.0309192
0.0264032
-0.0346954
0.021348
-0.0373895
0.0153594
-0.0388798
0.00870044
-0.0390948
0.00166883
-0.0380708
-0.00530521
-0.0358433
-0.0120334
-0.0325306
-0.0181656
-0.0282881
-0.023475
-0.0232988
-0.0277973
-0.0177602
-0.0310377
-0.0118766
-0.0331689
-0.00585631
-0.0342266
6.65006e-05
-0.0343602
0.00578818
-0.0329225
0.0111932
-0.0311299
0.0161278
-0.0285944
0.0204957
-0.0255312
0.0242371
-0.022109
0.0273248
-0.018504
0.0297636
-0.0148851
0.0315863
-0.0113996
0.032848
-0.00815903
0.033617
-0.00522593
0.0339631
-0.00260403
0.0339243
-0.000198727
0.0335804
0.00194163
0.0328976
0.00415188
0.0318514
0.00648376
0.0303872
0.00905698
0.0284344
0.0119367
0.0259233
0.0151144
0.0228024
0.0184998
0.0190546
0.0219275
0.0147076
0.0251775
0.00983768
0.0280086
0.00456686
0.0301944
-0.000966381
0.0315748
-0.00652393
0.0319804
-0.0119922
0.0316312
-0.0172196
0.0304985
-0.0221027
0.028818
-0.0265917
0.0268411
-0.0306907
0.024817
-0.0344478
0.0229447
-0.0379365
0.021334
-0.0412305
0.0199804
-0.0443769
0.0187622
-0.0473738
0.0174599
-0.0501578
0.0157965
-0.0526036
0.0134887
-0.0545355
0.0103031
-0.0557449
0.00609801
-0.0560223
0.000802871
-0.0552894
-0.00501011
-0.0533446
-0.0117056
-0.0501405
-0.0186783
-0.0457052
-0.0255341
-0.0401409
-0.0318896
-0.0336095
-0.0374291
-0.026311
-0.0419435
-0.0184574
-0.0453492
-0.0102492
-0.047676
-0.00185226
-0.0490759
0.00657131
-0.049562
0.014981
-0.0496719
0.0233071
-0.0492744
0.031504
-0.0484867
0.0395191
-0.047278
0.0472751
-0.0455363
0.0546566
-0.0430916
0.0615072
-0.0397565
0.0676349
-0.0353705
0.072827
-0.0298444
0.0768713
-0.0231889
0.0795783
-0.0155258
0.0808024
-0.00708231
0.080451
0.00186341
0.0785231
0.0108462
0.0750561
0.0196492
0.0701588
0.0278944
0.0639846
0.0353319
0.0567145
0.0417918
0.0485404
0.0471869
0.039651
0.0514937
0.030225
0.0547462
0.0204124
0.0569905
0.0104093
0.0583254
0.000394738
0.0591751
-0.0094563
0.0581408
-0.0190989
0.0566058
-0.0282913
0.0538349
-0.0368651
0.0502461
-0.0446461
0.0456481
-0.051476
0.0402048
-0.0572257
0.0340484
-0.0618052
0.0274015
-0.0651732
0.0205188
-0.0673416
0.0136801
-0.0683741
0.00717946
-0.0683511
0.00109613
-0.0675131
-0.00399166
-0.0658595
-0.00875077
-0.0635607
-0.012727
-0.0607345
-0.0160928
-0.0574654
-0.0189888
-0.0538011
-0.0215901
-0.0497553
-0.0240635
-0.0453146
-0.0265429
-0.0404492
-0.02911
-0.0351269
-0.0317831
-0.0293257
-0.0345106
-0.0230452
-0.0372002
-0.0163166
-0.0396719
-0.00918067
-0.0418443
-0.00174027
-0.0436249
0.00583723
-0.044421
0.0134593
-0.0445395
0.020943
-0.0437186
0.0281367
-0.042059
0.034881
-0.0394817
0.0410298
-0.0360803
0.0464524
-0.0319192
0.0510376
-0.0271115
0.0546959
-0.0217773
0.0573618
-0.0160536
0.0589897
-0.0100739
0.0595559
-0.00395344
0.0591286
0.00193385
0.0576888
0.00773619
0.0553035
0.0132424
0.0520602
0.0182672
0.0480633
0.0226994
0.0434326
0.0264668
0.0382926
0.0295137
0.0327662
0.031801
0.0270155
0.0335312
0.0211144
0.0346388
0.0151605
0.0351117
0.00924183
0.0350381
0.00341485
0.0345665
-0.00224777
0.0338098
-0.00771053
0.0323888
-0.0129024
0.0308598
-0.0177767
0.0289313
-0.0222559
0.0265673
-0.0262526
0.0236999
-0.0296661
0.0202754
-0.0323937
0.0162873
-0.0343417
0.0118094
-0.0354433
0.00696642
0.00190272
0.0348725
0.0237176
0.030027
0.0270925
0.0251638
0.0300658
0.0201415
0.0327193
0.0148652
0.0351635
0.00928319
0.037407
0.00339395
0.039335
-0.00272942
0.0407331
-0.00903528
0.0413498
-0.0153153
0.0408781
-0.0213556
0.0391069
-0.0269192
0.0359029
-0.0317647
0.0312488
-0.0356698
0.025253
-0.038451
0.0181406
-0.0399801
0.0102295
-0.0401807
0.00186944
-0.0390999
-0.00638596
-0.036772
-0.0143614
-0.0333247
-0.0216128
-0.028924
-0.0278757
-0.0237631
-0.0329582
-0.0180505
-0.0367503
-0.0120011
-0.0392183
-0.00583445
-0.0403933
0.000186562
-0.0403812
0.00609797
-0.0388339
0.0116188
-0.0366508
0.0166391
-0.0336147
0.0210646
-0.0299567
0.0248357
-0.0258801
0.0279268
-0.0215951
0.0303457
-0.017304
0.0321307
-0.0131847
0.0333442
-0.00937257
0.0340631
-0.00594479
0.0343663
-0.00290727
0.0342992
-0.000131566
0.0339493
0.00229152
0.0332764
0.00482471
0.0322555
0.00750466
0.0308246
0.0104879
0.0289026
0.0138587
0.0264082
0.0176088
0.0232798
0.0216282
0.019493
0.0257143
0.0150731
0.0295975
0.0100996
0.0329821
0.00470269
0.0355913
-0.000961211
0.0372387
-0.00666063
0.0376798
-0.0122422
0.0372129
-0.0175516
0.0358079
-0.0224797
0.0337461
-0.0269772
0.0313387
-0.0310558
0.0288955
-0.0347765
0.0266654
-0.0382293
0.0247869
-0.0415046
0.0232557
-0.0446629
0.0219205
-0.0477099
0.0205069
-0.050582
0.0186685
-0.0531454
0.0160522
-0.0552088
0.0123665
-0.0565368
0.00742592
-0.0569204
0.00118648
-0.0562642
-0.00566626
-0.0543417
-0.0136282
-0.0511024
-0.0219175
-0.0465784
-0.0300581
-0.0408821
-0.0375859
-0.0341911
-0.0441202
-0.0267228
-0.0494118
-0.0187061
-0.0533659
-0.0103541
-0.0560279
-0.00184222
-0.0575879
0.00667888
-0.0580831
0.0151594
-0.0581524
0.0235473
-0.0576623
0.0318082
-0.0567476
0.0399011
-0.0553708
0.0477558
-0.053391
0.0552589
-0.0505948
0.0622497
-0.0467473
0.0685264
-0.0416472
0.0738626
-0.0351806
0.0780311
-0.0273574
0.0808285
-0.0183231
0.0820985
-0.00835231
0.0817427
0.00221923
0.0797619
0.012827
0.0761982
0.0232129
0.0711695
0.0329231
0.0648409
0.0416605
0.0574047
0.049228
0.0490622
0.0555294
0.0400087
0.0605471
0.030426
0.064329
0.0204693
0.0669472
0.010315
0.0684797
0.000116419
0.0693737
-0.00982135
0.0680786
-0.0195894
0.0663738
-0.028919
0.0631646
-0.0376211
0.0589482
-0.0455159
0.0535429
-0.0524355
0.0471244
-0.0582432
0.0398561
-0.0628435
0.0320018
-0.0661933
0.0238686
-0.0683067
0.0157936
-0.0692514
0.00812418
-0.0691161
0.000960758
-0.0681847
-0.00492304
-0.0664203
-0.0105152
-0.0640225
-0.0151247
-0.0611177
-0.0189977
-0.0577935
-0.0223129
-0.0540973
-0.0252863
-0.0500384
-0.0281224
-0.0455957
-0.0309856
-0.0407307
-0.0339749
-0.0354026
-0.0371112
-0.0295814
-0.0403318
-0.0232615
-0.0435202
-0.0164683
-0.0464651
-0.00925447
-0.0490581
-0.00171766
-0.0511618
0.00597131
-0.05211
0.0137116
-0.0522798
0.0213157
-0.0513227
0.028624
-0.0493672
0.035473
-0.0463306
0.041712
-0.0423193
0.0472075
-0.0374147
0.0518463
-0.0317504
0.055538
-0.025469
0.0582157
-0.0187314
0.059836
-0.0116941
0.0603746
-0.004492
0.0598987
0.00240971
0.0583926
0.00924237
0.0559251
0.0157099
0.052585
0.0216072
0.048481
0.0268035
0.0437368
0.031211
0.0384823
0.0347682
0.0328482
0.0374352
0.0269977
0.0393817
0.0210122
0.0406243
0.0149897
0.0411342
0.00901634
0.0410115
0.00314489
0.0404379
-0.00255149
0.0395061
-0.00804963
0.037887
-0.0132772
0.0360874
-0.0181933
0.0338474
-0.0227212
0.0310951
-0.0267718
0.0277505
-0.0302403
0.0237439
-0.0330172
0.0190642
-0.0349991
0.0137913
-0.0361128
0.00808009
0.00207956
0.0355818
0.0287469
0.0306304
0.0320439
0.0256631
0.0350331
0.0205566
0.0378258
0.0152062
0.0405139
0.00954371
0.0430695
0.00355399
0.0453248
-0.0027034
0.0469904
-0.00917491
0.0478213
-0.0156475
0.0473507
-0.0218949
0.0453543
-0.0276639
0.0416719
-0.0326962
0.0362811
-0.0367534
0.0293102
-0.0396395
0.0210267
-0.0412177
0.0118077
-0.0414084
0.00206015
-0.040266
-0.00752842
-0.0378267
-0.0168007
-0.0342292
-0.0252104
-0.0296509
-0.032454
-0.0242972
-0.038312
-0.0183879
-0.0426595
-0.0121482
-0.045458
-0.0058054
-0.0467361
0.000363215
-0.0465498
0.00645031
-0.044921
0.0120987
-0.0422992
0.0172142
-0.0387302
0.0217036
-0.0344461
0.0255073
-0.0296839
0.028601
-0.0246888
0.0309961
-0.0196991
0.0327369
-0.0149254
0.033894
-0.0105297
0.0345539
-0.00660463
0.0348034
-0.00315682
0.0347158
-4.39694e-05
0.0343558
0.0026515
0.0336968
0.00548375
0.0327092
0.00849228
0.0313219
0.0118752
0.0294415
0.0157392
0.0269727
0.0200775
0.0238414
0.0247596
0.0200141
0.0295416
0.0155129
0.0340987
0.0104209
0.0380741
0.00487811
0.0411341
-0.000940101
0.0430569
-0.00680204
0.0435417
-0.0125175
0.0429283
-0.0179229
0.0412134
-0.0229025
0.0387256
-0.0274079
0.0358441
-0.0314593
0.0329469
-0.0351337
0.0303398
-0.0385408
0.0281939
-0.0417909
0.0265058
-0.044961
0.0250906
-0.0480662
0.0236122
-0.0510433
0.0216456
-0.0537489
0.0187578
-0.0559727
0.0145903
-0.0574451
0.00889835
-0.0579602
0.00170155
-0.0574029
-0.0062235
-0.0555129
-0.0155182
-0.0522371
-0.0251934
-0.0476115
-0.0346836
-0.0417616
-0.0434358
-0.0348835
-0.0509983
-0.0272163
-0.057079
-0.0190091
-0.0615731
-0.0104903
-0.0645466
-0.00184487
-0.0662333
0.00678219
-0.0667102
0.0153405
-0.0667107
0.0237952
-0.0661169
0.0321265
-0.0650789
0.0403073
-0.0635516
0.0482768
-0.0613605
0.0559243
-0.0582423
0.0630839
-0.0539069
0.069542
-0.0481053
0.0750555
-0.0406941
0.0793785
-0.0316804
0.0822903
-0.0212349
0.0836217
-0.00968369
0.0832664
0.00257449
0.081228
0.0148654
0.0775535
0.0268874
0.0723727
0.0381039
0.0658646
0.0481686
0.0582354
0.0568572
0.0496981
0.0640667
0.0404563
0.069789
0.0306952
0.07409
0.0205748
0.0770675
0.0102596
0.0787949
-8.68138e-05
0.0797201
-0.0102088
0.0782005
-0.0201349
0.0762999
-0.0296313
0.072661
-0.0384911
0.067808
-0.0465268
0.0615787
-0.0535594
0.054157
-0.0594424
0.045739
-0.0640728
0.0366322
-0.0674053
0.0272012
-0.0694584
0.0178466
-0.0702943
0.00896015
-0.0700224
0.000688855
-0.0689862
-0.00595924
-0.0670899
-0.0124115
-0.0645738
-0.0176409
-0.061577
-0.0219945
-0.0581907
-0.0256992
-0.0544615
-0.0290155
-0.0503929
-0.0321911
-0.0459544
-0.035424
-0.0410968
-0.0388325
-0.0357676
-0.0424404
-0.0299275
-0.0461719
-0.0235638
-0.0498839
-0.0166995
-0.0533293
-0.00938667
-0.0563709
-0.00172825
-0.0588202
0.00610066
-0.0599389
0.0139892
-0.0601684
0.0217452
-0.0590787
0.0291993
-0.0568214
0.0361828
-0.0533141
0.0425393
-0.0486758
0.0481315
-0.0430069
0.0528439
-0.0364627
0.056584
-0.0292092
0.0592844
-0.0214318
0.0608955
-0.0133052
0.0613914
-0.00498789
0.0608745
0.00292656
0.0592872
0.0108297
0.0567136
0.0182835
0.0532502
0.0250706
0.0490104
0.0310434
0.0441241
0.0360973
0.0387288
0.0401635
0.0329599
0.043204
0.0269821
0.0453595
0.0208957
0.0467107
0.0147887
0.0472412
0.00874567
0.0470545
0.00281522
0.0463684
-0.00292786
0.0452492
-0.00847754
0.0434367
-0.0137591
0.041369
-0.0187362
0.0388245
-0.0233324
0.0356912
-0.0274542
0.0318723
-0.0309893
0.027279
-0.0338176
0.0218925
-0.0358241
0.0157978
-0.0369211
0.00917711
0.00217831
0.0362335
0.033824
0.0312059
0.0370716
0.0261665
0.0400725
0.0210002
0.0429921
0.0155914
0.0459226
0.00985519
0.0488057
0.00376181
0.0514181
-0.00264088
0.0533931
-0.00929934
0.0544798
-0.0159906
0.054042
-0.0224752
0.0518388
-0.0284813
0.0476781
-0.0337305
0.0415304
-0.0379655
0.0335452
-0.0409751
0.0240363
-0.042613
0.0134456
-0.0427965
0.00224361
-0.0415853
-0.00873964
-0.0390208
-0.0193652
-0.0352536
-0.0289775
-0.0304747
-0.0372329
-0.024903
-0.0438836
-0.018771
-0.0487916
-0.0123133
-0.0519157
-0.00576138
-0.053288
0.000625619
-0.0529368
0.00685829
-0.0511537
0.0126424
-0.0480832
0.0178623
-0.0439501
0.0224222
-0.0390061
0.0262613
-0.0335229
0.0293561
-0.0277837
0.0317221
-0.022065
0.0334103
-0.0166136
0.0345008
-0.0116203
0.0350911
-0.00719494
0.03528
-0.00334574
0.0351668
6.92407e-05
0.034798
0.00302029
0.0341576
0.00612422
0.0332126
0.00943721
0.0318815
0.0132064
0.0300555
0.0175652
0.0276229
0.0225101
0.024494
0.0278884
0.0206248
0.0334109
0.0160329
0.0386906
0.0108055
0.0433015
0.00509413
0.0468454
-0.000904772
0.0490558
-0.00695371
0.0495907
-0.0128253
0.0487999
-0.0183419
0.04673
-0.0233795
0.0437632
-0.0278906
0.0403552
-0.0319059
0.0369623
-0.035521
0.0339549
-0.0388691
0.031542
-0.0420849
0.0297216
-0.0452653
0.0282709
-0.0484369
0.0267838
-0.0515371
0.0247458