/*--------------------------------*- C++ -*----------------------------------*\
| =========                 |                                                 |
| \\      /  F ield         | OpenFOAM: The Open Source CFD Toolbox           |
|  \\    /   O peration     | Version:  v1912                                 |
|   \\  /    A nd           | Website:  www.openfoam.com                      |
|    \\/     M anipulation  |                                                 |
\*---------------------------------------------------------------------------*/
FoamFile
{
    version     2.0;
    format      ascii;
    class       volScalarField;
    location    "80";
    object      nut;
}
// * * * * * * * * * * * * * * * * * * * * * * * * * * * * * * * * * * * * * //

dimensions      [0 2 -1 0 0 0 0];


internalField   nonuniform List<scalar> 
14268
(
3.26371e-10
3.2947e-10
3.29341e-10
3.27342e-10
3.25297e-10
3.23507e-10
3.20752e-10
3.16078e-10
3.09492e-10
3.01046e-10
2.90645e-10
2.78114e-10
2.63218e-10
2.46027e-10
2.27191e-10
2.07778e-10
1.88976e-10
1.71717e-10
1.56587e-10
1.44635e-10
1.37068e-10
1.35194e-10
1.40296e-10
1.586e-10
1.97563e-10
2.67778e-10
3.93795e-10
6.32054e-10
1.0374e-09
1.6854e-09
2.50412e-09
2.64575e-09
2.4607e-09
1.93661e-09
1.19986e-09
7.03654e-10
4.30975e-10
2.69972e-10
1.66797e-10
1.05093e-10
7.10624e-11
5.68516e-11
4.87044e-11
1.95483e-11
1.56377e-08
1.55341e-08
1.52905e-08
1.49708e-08
1.46498e-08
1.43442e-08
1.401e-08
1.36081e-08
1.31376e-08
1.25994e-08
1.1991e-08
1.131e-08
1.05597e-08
9.76549e-09
8.9658e-09
8.21314e-09
7.54684e-09
7.00027e-09
6.59018e-09
6.34599e-09
6.27541e-09
6.45788e-09
7.03508e-09
8.27191e-09
1.06055e-08
1.45901e-08
2.14982e-08
3.58763e-08
6.00654e-08
8.37676e-08
1.02579e-07
9.09687e-08
6.62224e-08
4.19817e-08
2.42788e-08
1.38917e-08
9.34521e-09
6.67174e-09
4.87181e-09
3.78339e-09
3.19908e-09
3.22921e-09
2.90238e-09
1.89547e-09
1.04886e-07
1.04581e-07
1.03639e-07
1.0231e-07
1.00927e-07
9.96274e-08
9.82038e-08
9.64809e-08
9.44401e-08
9.20609e-08
8.92833e-08
8.60443e-08
8.23028e-08
7.79961e-08
7.33806e-08
6.8797e-08
6.45575e-08
6.08957e-08
5.80414e-08
5.63001e-08
5.59417e-08
5.72235e-08
6.16324e-08
7.07884e-08
8.69862e-08
1.10496e-07
1.4354e-07
1.93523e-07
2.40616e-07
2.77645e-07
3.13332e-07
2.97004e-07
2.45093e-07
1.76491e-07
1.17951e-07
7.71582e-08
5.01367e-08
3.61575e-08
2.74141e-08
2.25426e-08
2.06414e-08
2.2258e-08
2.25708e-08
1.65758e-08
2.16965e-07
2.16846e-07
2.16184e-07
2.15004e-07
2.13726e-07
2.12507e-07
2.11186e-07
2.0959e-07
2.07714e-07
2.05477e-07
2.028e-07
1.99615e-07
1.95851e-07
1.91627e-07
1.86828e-07
1.81634e-07
1.76647e-07
1.72369e-07
1.69084e-07
1.6754e-07
1.67837e-07
1.70896e-07
1.78408e-07
1.91476e-07
2.11007e-07
2.3174e-07
2.54121e-07
2.8031e-07
3.07101e-07
3.3092e-07
3.55921e-07
3.47584e-07
3.18211e-07
2.72373e-07
2.1611e-07
1.64547e-07
1.23801e-07
9.49914e-08
7.78176e-08
6.7491e-08
6.50474e-08
7.04811e-08
7.43497e-08
6.08193e-08
2.705e-07
2.70463e-07
2.69968e-07
2.69556e-07
2.69434e-07
2.69421e-07
2.69086e-07
2.68411e-07
2.67619e-07
2.66664e-07
2.65434e-07
2.63861e-07
2.61947e-07
2.59884e-07
2.57648e-07
2.5525e-07
2.53008e-07
2.51103e-07
2.49811e-07
2.49421e-07
2.50138e-07
2.52533e-07
2.5731e-07
2.64678e-07
2.72219e-07
2.79151e-07
2.88098e-07
3.01707e-07
3.18627e-07
3.36051e-07
3.58348e-07
3.52135e-07
3.32654e-07
3.02782e-07
2.63283e-07
2.23668e-07
1.89887e-07
1.57143e-07
1.37546e-07
1.26828e-07
1.25642e-07
1.34702e-07
1.43559e-07
1.30519e-07
2.86376e-07
2.86485e-07
2.86305e-07
2.86113e-07
2.86104e-07
2.86305e-07
2.86229e-07
2.86014e-07
2.85925e-07
2.85817e-07
2.85624e-07
2.85386e-07
2.85082e-07
2.84617e-07
2.84088e-07
2.83939e-07
2.84095e-07
2.84211e-07
2.8469e-07
2.85342e-07
2.86294e-07
2.87775e-07
2.89764e-07
2.90927e-07
2.91969e-07
2.93367e-07
2.96581e-07
3.05701e-07
3.19931e-07
3.36115e-07
3.57804e-07
3.52072e-07
3.32784e-07
3.08553e-07
2.78289e-07
2.48343e-07
2.25406e-07
2.00703e-07
1.86469e-07
1.7799e-07
1.79157e-07
1.90147e-07
2.01578e-07
1.89881e-07
2.89572e-07
2.89526e-07
2.89672e-07
2.89868e-07
2.90168e-07
2.90209e-07
2.90143e-07
2.90061e-07
2.90107e-07
2.90092e-07
2.90109e-07
2.90184e-07
2.90272e-07
2.90669e-07
2.91269e-07
2.92111e-07
2.93207e-07
2.94511e-07
2.95762e-07
2.96984e-07
2.98085e-07
2.99139e-07
2.99277e-07
2.98848e-07
2.98319e-07
2.97647e-07
2.98573e-07
3.05843e-07
3.19411e-07
3.35866e-07
3.57966e-07
3.52274e-07
3.33567e-07
3.09744e-07
2.82017e-07
2.57872e-07
2.42841e-07
2.28107e-07
2.17658e-07
2.13321e-07
2.14217e-07
2.24989e-07
2.37281e-07
2.30768e-07
2.9276e-07
2.93011e-07
2.92715e-07
2.92668e-07
2.9292e-07
2.93016e-07
2.92894e-07
2.9258e-07
2.9249e-07
2.92519e-07
2.92708e-07
2.93085e-07
2.93609e-07
2.94135e-07
2.94815e-07
2.95647e-07
2.96645e-07
2.97856e-07
2.99219e-07
3.00561e-07
3.01716e-07
3.02442e-07
3.01984e-07
3.00989e-07
2.99955e-07
2.98591e-07
2.98968e-07
3.06159e-07
3.1987e-07
3.36438e-07
3.58604e-07
3.5265e-07
3.34374e-07
3.10256e-07
2.83756e-07
2.60945e-07
2.48201e-07
2.39395e-07
2.33361e-07
2.31473e-07
2.35073e-07
2.45291e-07
2.56053e-07
2.53176e-07
2.92311e-07
2.92163e-07
2.92247e-07
2.92458e-07
2.9267e-07
2.92894e-07
2.93194e-07
2.93356e-07
2.93429e-07
2.93504e-07
2.93649e-07
2.93907e-07
2.94272e-07
2.94794e-07
2.95528e-07
2.96568e-07
2.97859e-07
2.99264e-07
3.00637e-07
3.01926e-07
3.03055e-07
3.03532e-07
3.02614e-07
3.01388e-07
3.00219e-07
2.98491e-07
2.98959e-07
3.06089e-07
3.19368e-07
3.35343e-07
3.57343e-07
3.5176e-07
3.32959e-07
3.10441e-07
2.83792e-07
2.62584e-07
2.5085e-07
2.45108e-07
2.41471e-07
2.42354e-07
2.45747e-07
2.54865e-07
2.65089e-07
2.65356e-07
2.9153e-07
2.91353e-07
2.91251e-07
2.91471e-07
2.91764e-07
2.92018e-07
2.92313e-07
2.92604e-07
2.92897e-07
2.93129e-07
2.93329e-07
2.93554e-07
2.93748e-07
2.94273e-07
2.95169e-07
2.96334e-07
2.97721e-07
2.99306e-07
3.00916e-07
3.02264e-07
3.0334e-07
3.03807e-07
3.02879e-07
3.01758e-07
3.00609e-07
2.99022e-07
2.99021e-07
3.05888e-07
3.19531e-07
3.36093e-07
3.57894e-07
3.52142e-07
3.33421e-07
3.10029e-07
2.83772e-07
2.63189e-07
2.51647e-07
2.46086e-07
2.45286e-07
2.46496e-07
2.51685e-07
2.59794e-07
2.6858e-07
2.70613e-07
2.9175e-07
2.91707e-07
2.9232e-07
2.92425e-07
2.92313e-07
2.92232e-07
2.92177e-07
2.92148e-07
2.92276e-07
2.92422e-07
2.92681e-07
2.92998e-07
2.93455e-07
2.94164e-07
2.95169e-07
2.96403e-07
2.97822e-07
2.99416e-07
3.01064e-07
3.02575e-07
3.03753e-07
3.04292e-07
3.03292e-07
3.0158e-07
3.00319e-07
2.98731e-07
2.99044e-07
3.06162e-07
3.19674e-07
3.36012e-07
3.58173e-07
3.51944e-07
3.33259e-07
3.09903e-07
2.85811e-07
2.63194e-07
2.51476e-07
2.46884e-07
2.47833e-07
2.49837e-07
2.5381e-07
2.61898e-07
2.69555e-07
2.7413e-07
2.9285e-07
2.92992e-07
2.92775e-07
2.92794e-07
2.93048e-07
2.9328e-07
2.93414e-07
2.93441e-07
2.93486e-07
2.9357e-07
2.93631e-07
2.93766e-07
2.94133e-07
2.94614e-07
2.95313e-07
2.96348e-07
2.97661e-07
2.99171e-07
3.00691e-07
3.02109e-07
3.03322e-07
3.03858e-07
3.03179e-07
3.01937e-07
3.00755e-07
2.99012e-07
2.99087e-07
3.06008e-07
3.19503e-07
3.35965e-07
3.58492e-07
3.52279e-07
3.33418e-07
3.0862e-07
2.83335e-07
2.64075e-07
2.52001e-07
2.47203e-07
2.48496e-07
2.50621e-07
2.55149e-07
2.6272e-07
2.70141e-07
2.75004e-07
2.91815e-07
2.91696e-07
2.91604e-07
2.91671e-07
2.91852e-07
2.92068e-07
2.92284e-07
2.92401e-07
2.92609e-07
2.92881e-07
2.93233e-07
2.93733e-07
2.94233e-07
2.94813e-07
2.9566e-07
2.96795e-07
2.98184e-07
2.99683e-07
3.01145e-07
3.02401e-07
3.03427e-07
3.03805e-07
3.0285e-07
3.01756e-07
3.00516e-07
2.98785e-07
2.99022e-07
3.06151e-07
3.19673e-07
3.35882e-07
3.57471e-07
3.52449e-07
3.33937e-07
3.09377e-07
2.83788e-07
2.63501e-07
2.51705e-07
2.47082e-07
2.48614e-07
2.51002e-07
2.55344e-07
2.63028e-07
2.7016e-07
2.76258e-07
2.91555e-07
2.91362e-07
2.91576e-07
2.91657e-07
2.9177e-07
2.91924e-07
2.92112e-07
2.92212e-07
2.92403e-07
2.92619e-07
2.92926e-07
2.9325e-07
2.93763e-07
2.94468e-07
2.9535e-07
2.96475e-07
2.97861e-07
2.99478e-07
3.01132e-07
3.02637e-07
3.03786e-07
3.04296e-07
3.0314e-07
3.01328e-07
3.00002e-07
2.98516e-07
2.98972e-07
3.06068e-07
3.19632e-07
3.36078e-07
3.58044e-07
3.52075e-07
3.33404e-07
3.10389e-07
2.86253e-07
2.62869e-07
2.51209e-07
2.47494e-07
2.49033e-07
2.51422e-07
2.55866e-07
2.63414e-07
2.70311e-07
2.76402e-07
2.92368e-07
2.92516e-07
2.92591e-07
2.92802e-07
2.93051e-07
2.93138e-07
2.93136e-07
2.93129e-07
2.93184e-07
2.93263e-07
2.93346e-07
2.93558e-07
2.93888e-07
2.94439e-07
2.95257e-07
2.96394e-07
2.9778e-07
2.99334e-07
3.00876e-07
3.02247e-07
3.03408e-07
3.03936e-07
3.0319e-07
3.01974e-07
3.00784e-07
2.99034e-07
2.99058e-07
3.06018e-07
3.19588e-07
3.35951e-07
3.57847e-07
3.51843e-07
3.33083e-07
3.0827e-07
2.83092e-07
2.63377e-07
2.50964e-07
2.47249e-07
2.48728e-07
2.51346e-07
2.55722e-07
2.63298e-07
2.70188e-07
2.76974e-07
2.92406e-07
2.9228e-07
2.92309e-07
2.92288e-07
2.92388e-07
2.92526e-07
2.92581e-07
2.92612e-07
2.92764e-07
2.92942e-07
2.93226e-07
2.93572e-07
2.9403e-07
2.94605e-07
2.95525e-07
2.9668e-07
2.9801e-07
2.99518e-07
3.0107e-07
3.02478e-07
3.03602e-07
3.04113e-07
3.03097e-07
3.01585e-07
3.00391e-07
2.98856e-07
2.99196e-07
3.06239e-07
3.19716e-07
3.36041e-07
3.57978e-07
3.51893e-07
3.33448e-07
3.0938e-07
2.84631e-07
2.64307e-07
2.51682e-07
2.4817e-07
2.49046e-07
2.51682e-07
2.56153e-07
2.63649e-07
2.70264e-07
2.76778e-07
2.92037e-07
2.92219e-07
2.91952e-07
2.91927e-07
2.92174e-07
2.92531e-07
2.92841e-07
2.92896e-07
2.92999e-07
2.93129e-07
2.93354e-07
2.93618e-07
2.94082e-07
2.94772e-07
2.95557e-07
2.96625e-07
2.97982e-07
2.99538e-07
3.01123e-07
3.02512e-07
3.03632e-07
3.04051e-07
3.03089e-07
3.01684e-07
3.00439e-07
2.98748e-07
2.9892e-07
3.06008e-07
3.19766e-07
3.36597e-07
3.58741e-07
3.5185e-07
3.33438e-07
3.09449e-07
2.85142e-07
2.64492e-07
2.50732e-07
2.47729e-07
2.48913e-07
2.51593e-07
2.55859e-07
2.63299e-07
2.70345e-07
2.77039e-07
2.91861e-07
2.91841e-07
2.91851e-07
2.92044e-07
2.92277e-07
2.92379e-07
2.92457e-07
2.92479e-07
2.92613e-07
2.92795e-07
2.92978e-07
2.93332e-07
2.93797e-07
2.94467e-07
2.95338e-07
2.96528e-07
2.97953e-07
2.99483e-07
3.00976e-07
3.02323e-07
3.03429e-07
3.03941e-07
3.03133e-07
3.01875e-07
3.00661e-07
2.98898e-07
2.99091e-07
3.06153e-07
3.1959e-07
3.3614e-07
3.58554e-07
3.52013e-07
3.33297e-07
3.09354e-07
2.82547e-07
2.64218e-07
2.51323e-07
2.48207e-07
2.49016e-07
2.51754e-07
2.5625e-07
2.63733e-07
2.70177e-07
2.7676e-07
2.92137e-07
2.92003e-07
2.92086e-07
2.92236e-07
2.92429e-07
2.92527e-07
2.92506e-07
2.92523e-07
2.92657e-07
2.92805e-07
2.92971e-07
2.93322e-07
2.93759e-07
2.94266e-07
2.95243e-07
2.96418e-07
2.97811e-07
2.99437e-07
3.01132e-07
3.02649e-07
3.03778e-07
3.043e-07
3.0327e-07
3.01545e-07
3.00387e-07
2.98922e-07
2.9918e-07
3.06373e-07
3.20241e-07
3.37294e-07
3.59435e-07
3.51996e-07
3.32532e-07
3.08693e-07
2.84467e-07
2.64306e-07
2.50545e-07
2.47823e-07
2.49046e-07
2.51708e-07
2.55919e-07
2.63517e-07
2.70185e-07
2.77198e-07
2.91932e-07
2.91832e-07
2.91724e-07
2.91846e-07
2.92217e-07
2.92533e-07
2.92744e-07
2.92727e-07
2.92773e-07
2.92873e-07
2.93203e-07
2.93329e-07
2.93656e-07
2.94336e-07
2.95141e-07
2.96245e-07
2.97627e-07
2.99207e-07
3.0079e-07
3.02209e-07
3.03372e-07
3.03906e-07
3.02971e-07
3.01833e-07
3.00609e-07
2.98872e-07
2.99135e-07
3.06226e-07
3.19932e-07
3.37039e-07
3.60176e-07
3.53014e-07
3.33316e-07
3.07924e-07
2.83759e-07
2.64539e-07
2.50531e-07
2.47637e-07
2.48789e-07
2.51638e-07
2.56204e-07
2.63749e-07
2.69609e-07
2.76668e-07
2.91855e-07
2.91746e-07
2.91912e-07
2.92165e-07
2.9246e-07
2.92653e-07
2.928e-07
2.92788e-07
2.92866e-07
2.93012e-07
2.9333e-07
2.9338e-07
2.93756e-07
2.94517e-07
2.95314e-07
2.9636e-07
2.97628e-07
2.99062e-07
3.00519e-07
3.01873e-07
3.03034e-07
3.0353e-07
3.0289e-07
3.01649e-07
3.0043e-07
2.98724e-07
2.98847e-07
3.05978e-07
3.19815e-07
3.36587e-07
3.59465e-07
3.53674e-07
3.34588e-07
3.0914e-07
2.81172e-07
2.64058e-07
2.51713e-07
2.48708e-07
2.49379e-07
2.51671e-07
2.5602e-07
2.63759e-07
2.69586e-07
2.7656e-07
2.92263e-07
2.9233e-07
2.92384e-07
2.92497e-07
2.92611e-07
2.92724e-07
2.92823e-07
2.92848e-07
2.92965e-07
2.93105e-07
2.93299e-07
2.93624e-07
2.94056e-07
2.94647e-07
2.95507e-07
2.96648e-07
2.98016e-07
2.9954e-07
3.01052e-07
3.02404e-07
3.03508e-07
3.03965e-07
3.02983e-07
3.01618e-07
3.0043e-07
2.98796e-07
2.99224e-07
3.06854e-07
3.21622e-07
3.42384e-07
3.76803e-07
3.78565e-07
3.58595e-07
3.26957e-07
2.91363e-07
2.65157e-07
2.51421e-07
2.46673e-07
2.49091e-07
2.5205e-07
2.56622e-07
2.64317e-07
2.69238e-07
2.76131e-07
2.92154e-07
2.92184e-07
2.92203e-07
2.92298e-07
2.92522e-07
2.92723e-07
2.9291e-07
2.92906e-07
2.9297e-07
2.93151e-07
2.93362e-07
2.937e-07
2.94169e-07
2.94757e-07
2.95599e-07
2.96732e-07
2.98123e-07
2.99697e-07
3.01303e-07
3.02712e-07
3.03816e-07
3.04372e-07
3.03563e-07
3.02339e-07
3.01304e-07
2.99882e-07
3.00469e-07
3.09617e-07
3.32344e-07
3.8208e-07
4.89251e-07
5.43128e-07
5.20325e-07
4.54279e-07
3.56865e-07
2.94241e-07
2.67564e-07
2.55982e-07
2.54117e-07
2.53678e-07
2.56411e-07
2.63742e-07
2.68743e-07
2.74989e-07
2.92207e-07
2.92303e-07
2.92327e-07
2.92455e-07
2.92726e-07
2.92755e-07
2.92653e-07
2.92711e-07
2.92843e-07
2.92968e-07
2.9321e-07
2.93507e-07
2.93966e-07
2.947e-07
2.95655e-07
2.96776e-07
2.98093e-07
2.99593e-07
3.01059e-07
3.02391e-07
3.03476e-07
3.04039e-07
3.0313e-07
3.02033e-07
3.01054e-07
2.9969e-07
3.01281e-07
3.19833e-07
3.838e-07
5.59929e-07
9.29667e-07
1.12406e-06
1.07999e-06
8.97313e-07
5.99047e-07
4.08155e-07
3.27656e-07
2.92509e-07
2.7703e-07
2.665e-07
2.63252e-07
2.66708e-07
2.70087e-07
2.74202e-07
2.91772e-07
2.91978e-07
2.91885e-07
2.92021e-07
2.92091e-07
2.92454e-07
2.92704e-07
2.92682e-07
2.92828e-07
2.93057e-07
2.93246e-07
2.93635e-07
2.9413e-07
2.94663e-07
2.95453e-07
2.96654e-07
2.98138e-07
2.99766e-07
3.0138e-07
3.02786e-07
3.03886e-07
3.04503e-07
3.03787e-07
3.02752e-07
3.02016e-07
3.00848e-07
3.05574e-07
3.59008e-07
5.65164e-07
1.05001e-06
1.81344e-06
2.15566e-06
2.08756e-06
1.7665e-06
1.1566e-06
7.07721e-07
4.86029e-07
3.82824e-07
3.30704e-07
2.99352e-07
2.83044e-07
2.77105e-07
2.74938e-07
2.74709e-07
2.91714e-07
2.91546e-07
2.91946e-07
2.92196e-07
2.92131e-07
2.9244e-07
2.92509e-07
2.92489e-07
2.92559e-07
2.92694e-07
2.92941e-07
2.93293e-07
2.93841e-07
2.94667e-07
2.957e-07
2.96839e-07
2.98042e-07
2.99506e-07
3.01022e-07
3.0236e-07
3.03423e-07
3.04038e-07
3.0334e-07
3.02926e-07
3.0213e-07
3.01278e-07
3.17694e-07
4.78927e-07
9.99901e-07
1.86516e-06
3.0543e-06
3.59028e-06
3.47004e-06
2.94892e-06
1.99243e-06
1.24709e-06
8.04277e-07
5.70623e-07
4.43657e-07
3.68068e-07
3.22588e-07
2.96594e-07
2.83656e-07
2.7798e-07
2.91073e-07
2.91004e-07
2.91277e-07
2.91354e-07
2.91983e-07
2.91908e-07
2.92046e-07
2.92285e-07
2.92482e-07
2.9272e-07
2.93009e-07
2.93429e-07
2.93947e-07
2.94515e-07
2.95358e-07
2.96564e-07
2.98127e-07
2.99816e-07
3.01482e-07
3.02926e-07
3.04034e-07
3.04759e-07
3.04304e-07
3.03802e-07
3.03062e-07
3.02715e-07
3.53081e-07
7.56765e-07
1.6819e-06
2.80117e-06
4.60568e-06
5.34861e-06
5.04595e-06
4.17554e-06
2.86323e-06
1.90881e-06
1.25307e-06
8.59145e-07
6.26823e-07
4.84008e-07
3.90942e-07
3.35893e-07
3.06272e-07
2.88515e-07
2.90236e-07
2.90818e-07
2.90416e-07
2.90902e-07
2.91033e-07
2.91453e-07
2.91954e-07
2.92136e-07
2.92067e-07
2.92177e-07
2.92344e-07
2.9278e-07
2.93455e-07
2.94397e-07
2.95478e-07
2.96741e-07
2.98139e-07
2.99637e-07
3.01077e-07
3.02431e-07
3.03548e-07
3.04135e-07
3.03759e-07
3.03573e-07
3.02745e-07
3.0575e-07
4.39095e-07
1.1721e-06
2.41907e-06
4.01199e-06
6.64193e-06
7.30943e-06
6.95981e-06
5.71743e-06
3.67316e-06
2.47937e-06
1.71264e-06
1.19179e-06
8.56474e-07
6.3763e-07
4.91292e-07
4.04558e-07
3.55101e-07
3.19049e-07
2.86608e-07
2.86611e-07
2.87037e-07
2.87651e-07
2.88336e-07
2.8902e-07
2.88926e-07
2.89194e-07
2.89887e-07
2.90633e-07
2.91444e-07
2.92305e-07
2.93198e-07
2.94134e-07
2.95128e-07
2.96425e-07
2.97992e-07
2.99753e-07
3.0152e-07
3.02979e-07
3.04208e-07
3.05105e-07
3.04696e-07
3.03396e-07
3.01212e-07
3.13774e-07
5.78409e-07
1.55123e-06
3.11064e-06
5.78759e-06
8.15428e-06
8.4213e-06
8.00617e-06
6.7248e-06
4.62697e-06
3.08213e-06
2.123e-06
1.48503e-06
1.07467e-06
8.03336e-07
6.19587e-07
5.09954e-07
4.41892e-07
3.83178e-07
2.7044e-07
2.70941e-07
2.72906e-07
2.74411e-07
2.76279e-07
2.77337e-07
2.78784e-07
2.80528e-07
2.82359e-07
2.84286e-07
2.8619e-07
2.88128e-07
2.89998e-07
2.91716e-07
2.93531e-07
2.95352e-07
2.97211e-07
2.99123e-07
3.0086e-07
3.02485e-07
3.0376e-07
3.04612e-07
3.03556e-07
3.00317e-07
2.95964e-07
3.3458e-07
7.31723e-07
1.94873e-06
4.14365e-06
7.98052e-06
9.58248e-06
9.74658e-06
9.13467e-06
7.83474e-06
5.75127e-06
3.81023e-06
2.63341e-06
1.81143e-06
1.28363e-06
9.75461e-07
7.86956e-07
6.72211e-07
5.88717e-07
4.84684e-07
2.26814e-07
2.27015e-07
2.30716e-07
2.37345e-07
2.4308e-07
2.47647e-07
2.51847e-07
2.56261e-07
2.60852e-07
2.65795e-07
2.70567e-07
2.75226e-07
2.7975e-07
2.84311e-07
2.88535e-07
2.92137e-07
2.95291e-07
2.97936e-07
2.99988e-07
3.01856e-07
3.0288e-07
3.02938e-07
2.99652e-07
2.93856e-07
2.85719e-07
3.63851e-07
8.79238e-07
2.55316e-06
6.20918e-06
1.09824e-05
1.14747e-05
1.04747e-05
9.2947e-06
8.013e-06
5.97772e-06
3.92729e-06
2.68276e-06
1.92005e-06
1.72868e-06
1.84446e-06
1.91601e-06
1.82143e-06
1.44644e-06
9.24328e-07
1.28815e-07
1.28086e-07
1.34296e-07
1.4638e-07
1.57818e-07
1.66006e-07
1.73848e-07
1.84022e-07
1.96459e-07
2.09632e-07
2.22807e-07
2.35688e-07
2.4835e-07
2.60014e-07
2.6996e-07
2.78371e-07
2.85271e-07
2.90831e-07
2.95192e-07
2.98278e-07
2.99349e-07
2.99232e-07
2.92233e-07
2.80068e-07
2.68339e-07
3.976e-07
1.11513e-06
3.44023e-06
8.65131e-06
1.23626e-05
1.22405e-05
1.03053e-05
8.8077e-06
7.40467e-06
5.46608e-06
3.78077e-06
3.53555e-06
6.22009e-06
1.24228e-05
1.72085e-05
1.89006e-05
1.94637e-05
1.71804e-05
1.32712e-05
4.46634e-08
4.28684e-08
4.50692e-08
5.18779e-08
6.04653e-08
6.72775e-08
7.37074e-08
8.21679e-08
9.39704e-08
1.09123e-07
1.27235e-07
1.48286e-07
1.7286e-07
1.98988e-07
2.2326e-07
2.43533e-07
2.59255e-07
2.7126e-07
2.79821e-07
2.85212e-07
2.86975e-07
2.85585e-07
2.72237e-07
2.50765e-07
2.44047e-07
4.27999e-07
1.32452e-06
3.90627e-06
9.17927e-06
1.28253e-05
1.32391e-05
1.14786e-05
1.00753e-05
8.93721e-06
9.24328e-06
1.3827e-05
2.56434e-05
4.04706e-05
5.28755e-05
6.3519e-05
7.13603e-05
7.7898e-05
8.20423e-05
9.03576e-05
1.25704e-08
1.13267e-08
1.15176e-08
1.35533e-08
1.72942e-08
2.03813e-08
2.28671e-08
2.5949e-08
3.04838e-08
3.68746e-08
4.53309e-08
5.68712e-08
7.39931e-08
9.97095e-08
1.33541e-07
1.69781e-07
2.0197e-07
2.27307e-07
2.45902e-07
2.57554e-07
2.61393e-07
2.57326e-07
2.34583e-07
2.0458e-07
2.13291e-07
4.26665e-07
1.311e-06
3.98684e-06
8.74775e-06
1.28497e-05
1.54995e-05
1.82515e-05
2.01228e-05
2.29011e-05
3.14671e-05
4.37049e-05
5.45506e-05
6.33119e-05
7.31199e-05
8.36672e-05
9.34129e-05
0.000102792
0.0001205
0.000158542
3.72545e-09
3.08764e-09
3.01615e-09
3.69214e-09
4.99793e-09
6.15214e-09
6.93691e-09
7.79354e-09
9.03882e-09
1.08334e-08
1.31002e-08
1.62898e-08
2.15289e-08
3.1131e-08
4.84177e-08
7.52625e-08
1.10662e-07
1.4902e-07
1.8177e-07
2.03704e-07
2.12593e-07
2.05832e-07
1.73569e-07
1.42426e-07
1.62484e-07
3.58931e-07
1.09136e-06
3.65218e-06
7.06131e-06
1.13033e-05
1.52297e-05
2.0314e-05
2.47638e-05
2.90908e-05
3.39512e-05
3.97876e-05
4.45496e-05
4.64297e-05
4.87864e-05
5.15589e-05
5.47513e-05
5.86903e-05
6.47614e-05
7.78314e-05
1.08245e-09
7.95987e-10
7.57595e-10
1.03575e-09
1.61552e-09
2.17078e-09
2.40192e-09
2.58042e-09
2.89787e-09
3.33859e-09
3.82149e-09
4.44419e-09
5.55844e-09
7.81746e-09
1.27422e-08
2.24761e-08
3.94342e-08
6.53298e-08
9.83374e-08
1.28647e-07
1.44052e-07
1.36868e-07
1.03181e-07
8.26539e-08
1.11675e-07
2.80183e-07
9.03609e-07
2.75862e-06
4.44973e-06
6.99425e-06
9.19355e-06
1.33413e-05
1.75948e-05
2.17719e-05
2.49417e-05
2.55644e-05
2.29662e-05
2.05593e-05
2.05835e-05
2.17739e-05
2.20918e-05
2.08433e-05
1.89824e-05
2.07544e-05
1.77372e-10
1.40973e-10
1.4692e-10
2.33015e-10
4.58115e-10
7.40465e-10
8.26223e-10
8.38186e-10
9.43951e-10
1.05375e-09
1.11744e-09
1.19301e-09
1.40193e-09
1.90061e-09
3.04767e-09
5.70307e-09
1.08635e-08
2.03744e-08
3.62874e-08
5.62404e-08
7.0847e-08
6.80186e-08
4.82605e-08
4.1924e-08
7.40254e-08
2.09534e-07
6.91852e-07
1.45156e-06
2.05149e-06
2.68291e-06
2.58357e-06
4.13521e-06
5.42649e-06
5.80963e-06
5.07664e-06
3.57799e-06
2.91562e-06
5.50632e-06
5.40885e-06
3.82346e-06
2.99434e-06
4.6133e-06
1.31573e-05
2.18395e-05
4.43249e-12
6.67824e-12
1.03031e-11
1.67363e-11
3.1419e-11
4.81978e-11
5.75324e-11
7.80097e-11
1.31707e-10
2.14088e-10
2.65977e-10
2.90755e-10
3.32219e-10
4.30748e-10
7.00386e-10
1.4535e-09
2.96931e-09
5.77017e-09
1.10501e-08
1.93686e-08
2.61873e-08
2.49611e-08
1.89744e-08
2.04796e-08
4.49173e-08
1.26819e-07
3.82874e-07
5.86054e-07
8.03925e-07
9.36734e-07
6.30631e-07
8.65896e-07
1.0816e-06
1.13992e-06
8.81732e-07
6.28816e-07
6.55548e-07
1.49262e-06
9.40495e-07
9.18813e-07
1.18712e-06
2.77925e-06
8.02051e-06
1.09642e-05
1.14905e-11
1.80042e-11
2.75019e-11
2.81598e-11
1.95743e-11
1.05869e-11
4.5213e-12
1.00368e-12
2.08717e-12
3.4673e-11
9.47199e-11
1.21956e-10
1.12839e-10
1.03308e-10
1.51158e-10
3.31051e-10
8.13015e-10
1.76101e-09
3.4184e-09
6.58399e-09
1.01237e-08
9.50765e-09
7.95923e-09
1.16882e-08
2.79406e-08
6.08219e-08
1.45948e-07
2.17827e-07
3.25466e-07
3.92538e-07
2.69168e-07
3.31786e-07
4.22491e-07
5.10445e-07
4.14801e-07
3.32157e-07
4.26311e-07
5.3851e-07
2.10005e-07
3.56754e-07
9.80704e-07
1.89948e-06
1.69484e-06
5.9947e-07
5.15646e-10
7.52275e-10
1.26484e-09
1.65041e-09
1.42688e-09
1.012e-09
7.05587e-10
4.68895e-10
2.60851e-10
1.71434e-10
1.74075e-10
1.58474e-10
1.17688e-10
8.43547e-11
7.34039e-11
8.59723e-11
1.60101e-10
4.76387e-10
1.09832e-09
2.27721e-09
4.3033e-09
5.06431e-09
4.85844e-09
8.39418e-09
2.08856e-08
4.06209e-08
6.91331e-08
1.00719e-07
1.75831e-07
2.43406e-07
1.84724e-07
2.27254e-07
2.34234e-07
1.37261e-07
7.45698e-08
6.56763e-08
3.24581e-07
4.4849e-07
2.33686e-07
3.23476e-07
6.11536e-07
6.40984e-07
4.58351e-07
4.05347e-07
5.76979e-09
7.62281e-09
1.06491e-08
1.25008e-08
1.27906e-08
1.1708e-08
9.67376e-09
7.40703e-09
5.28216e-09
3.9212e-09
3.08727e-09
2.18024e-09
1.17043e-09
4.90932e-10
1.79339e-10
7.3231e-11
6.0679e-11
7.05867e-11
1.84213e-10
6.36381e-10
1.45974e-09
2.81894e-09
3.8409e-09
6.89924e-09
1.73508e-08
3.1664e-08
4.78915e-08
6.51856e-08
1.05283e-07
1.48169e-07
9.17687e-08
8.13615e-08
5.34798e-08
3.80276e-08
1.9606e-08
5.95368e-08
3.72476e-07
4.61072e-07
3.73355e-07
3.76022e-07
3.62906e-07
3.51511e-07
3.6592e-07
4.24839e-07
1.79576e-08
2.3109e-08
2.77615e-08
3.03994e-08
3.13655e-08
2.9442e-08
2.53506e-08
2.04915e-08
1.61651e-08
1.38684e-08
1.29717e-08
1.11203e-08
7.74399e-09
4.29437e-09
1.99805e-09
6.73658e-10
1.61531e-10
3.33885e-11
1.76763e-11
3.0391e-11
1.67278e-10
4.60763e-10
1.96923e-09
5.04061e-09
1.20945e-08
2.23249e-08
2.9362e-08
3.13471e-08
8.64391e-09
2.87007e-09
1.83459e-08
4.1108e-08
3.86493e-08
3.39971e-08
3.62918e-08
1.01523e-07
3.25744e-07
4.16934e-07
3.68874e-07
3.25729e-07
3.16056e-07
3.30288e-07
3.4568e-07
3.69897e-07
4.19436e-08
5.20839e-08
5.94486e-08
6.3754e-08
6.58147e-08
6.32684e-08
5.53126e-08
4.44397e-08
3.5771e-08
3.2175e-08
3.16124e-08
2.83919e-08
2.14892e-08
1.45607e-08
9.5124e-09
5.08348e-09
1.93333e-09
4.95515e-10
7.15956e-11
4.70081e-12
7.50732e-14
4.86798e-16
1.59263e-12
1.71105e-10
1.76411e-09
5.13673e-09
1.00061e-09
1.07973e-10
4.78554e-12
1.14838e-09
3.4397e-08
7.08588e-08
8.05821e-08
8.96522e-08
1.07338e-07
1.72254e-07
2.87463e-07
3.36368e-07
3.1984e-07
3.15212e-07
3.242e-07
3.44802e-07
3.70976e-07
4.00232e-07
9.09128e-08
1.08846e-07
1.19928e-07
1.25426e-07
1.2826e-07
1.29106e-07
1.15229e-07
9.37378e-08
7.7457e-08
7.05885e-08
7.01249e-08
6.48105e-08
5.17208e-08
3.63204e-08
2.5418e-08
1.57461e-08
8.39234e-09
3.4647e-09
1.07424e-09
2.48225e-10
3.94865e-11
5.25333e-12
4.0783e-13
6.27002e-15
8.45731e-13
1.72269e-11
1.61625e-11
2.08171e-11
4.16151e-11
1.23952e-08
9.87105e-08
1.58202e-07
1.75372e-07
1.92046e-07
2.14215e-07
2.50681e-07
2.93515e-07
3.11594e-07
3.13894e-07
3.16562e-07
3.20922e-07
3.34081e-07
3.50098e-07
3.68293e-07
1.68863e-07
1.94503e-07
2.04639e-07
2.09046e-07
2.11798e-07
2.17055e-07
2.03232e-07
1.76429e-07
1.54699e-07
1.43777e-07
1.43726e-07
1.41199e-07
1.23391e-07
9.02562e-08
6.46996e-08
4.32752e-08
2.58455e-08
1.36489e-08
6.43222e-09
2.36125e-09
6.78847e-10
1.73048e-10
4.88322e-11
2.00019e-11
2.31484e-11
5.8093e-11
1.62485e-10
4.93111e-10
3.06122e-09
8.65296e-08
2.00377e-07
2.41773e-07
2.51002e-07
2.6161e-07
2.73674e-07
2.86388e-07
3.00261e-07
3.08528e-07
3.13387e-07
3.18147e-07
3.27031e-07
3.42564e-07
3.64089e-07
3.76558e-07
2.35343e-07
2.56767e-07
2.64578e-07
2.66417e-07
2.64719e-07
2.65146e-07
2.65608e-07
2.52956e-07
2.40438e-07
2.31135e-07
2.31771e-07
2.3162e-07
2.29449e-07
1.98109e-07
1.57429e-07
1.22015e-07
8.346e-08
5.06623e-08
2.92686e-08
1.59394e-08
7.69896e-09
3.1462e-09
1.13713e-09
6.03047e-10
7.10703e-10
1.08788e-09
2.79389e-09
8.28872e-09
5.45506e-08
2.03189e-07
2.66183e-07
2.74461e-07
2.76601e-07
2.82062e-07
2.90189e-07
2.98086e-07
3.06496e-07
3.11919e-07
3.15554e-07
3.19448e-07
3.2466e-07
3.34438e-07
3.49288e-07
3.60045e-07
2.74781e-07
2.82891e-07
2.86175e-07
2.87502e-07
2.87197e-07
2.86957e-07
2.83602e-07
2.79446e-07
2.77401e-07
2.7537e-07
2.76757e-07
2.77354e-07
2.72935e-07
2.69569e-07
2.57258e-07
2.36347e-07
2.01031e-07
1.52929e-07
1.10521e-07
7.87325e-08
5.10763e-08
2.63601e-08
9.73789e-09
5.70921e-09
6.7703e-09
9.9204e-09
2.3424e-08
6.76482e-08
2.04637e-07
2.73728e-07
2.86654e-07
2.83628e-07
2.84201e-07
2.88038e-07
2.94204e-07
2.99996e-07
3.07076e-07
3.11424e-07
3.15462e-07
3.20636e-07
3.28358e-07
3.39151e-07
3.55876e-07
3.62087e-07
2.8831e-07
2.91639e-07
2.93411e-07
2.9397e-07
2.93605e-07
2.92831e-07
2.91749e-07
2.89544e-07
2.8764e-07
2.8432e-07
2.84622e-07
2.85887e-07
2.87127e-07
2.87088e-07
2.86214e-07
2.85113e-07
2.82057e-07
2.69584e-07
2.47226e-07
2.19885e-07
1.84517e-07
1.28103e-07
5.43431e-08
3.25746e-08
3.81279e-08
5.55277e-08
1.18046e-07
2.1584e-07
2.80205e-07
2.95303e-07
2.92142e-07
2.8771e-07
2.88263e-07
2.91413e-07
2.96471e-07
3.02166e-07
3.08985e-07
3.13636e-07
3.17181e-07
3.21388e-07
3.26701e-07
3.33395e-07
3.45288e-07
3.50412e-07
2.9382e-07
2.94833e-07
2.95573e-07
2.95928e-07
2.95394e-07
2.94724e-07
2.93188e-07
2.91232e-07
2.90867e-07
2.89223e-07
2.89037e-07
2.89212e-07
2.89218e-07
2.89591e-07
2.8963e-07
2.89984e-07
2.9124e-07
2.91566e-07
2.90088e-07
2.87813e-07
2.81611e-07
2.60763e-07
1.88601e-07
1.33603e-07
1.47986e-07
1.88478e-07
2.53758e-07
2.86695e-07
2.97659e-07
2.99791e-07
2.94399e-07
2.90425e-07
2.91156e-07
2.94016e-07
2.98094e-07
3.03005e-07
3.0906e-07
3.13267e-07
3.17046e-07
3.22157e-07
3.28884e-07
3.35761e-07
3.47276e-07
3.49614e-07
2.95789e-07
2.95927e-07
2.9645e-07
2.96627e-07
2.9558e-07
2.95653e-07
2.94823e-07
2.938e-07
2.92505e-07
2.9003e-07
2.89778e-07
2.89832e-07
2.90107e-07
2.90638e-07
2.90229e-07
2.91081e-07
2.91079e-07
2.93013e-07
2.92941e-07
2.95369e-07
2.95472e-07
2.92751e-07
2.80451e-07
2.60022e-07
2.66632e-07
2.81602e-07
2.94277e-07
2.99492e-07
3.01464e-07
3.01389e-07
2.96402e-07
2.93116e-07
2.93689e-07
2.96124e-07
3.00094e-07
3.05255e-07
3.1082e-07
3.15124e-07
3.18334e-07
3.22427e-07
3.27217e-07
3.31536e-07
3.4011e-07
3.42343e-07
2.97617e-07
2.9794e-07
2.97886e-07
2.98088e-07
2.97748e-07
2.96843e-07
2.95592e-07
2.94448e-07
2.93363e-07
2.92026e-07
2.91689e-07
2.91209e-07
2.91015e-07
2.91185e-07
2.90595e-07
2.9097e-07
2.91741e-07
2.91655e-07
2.92584e-07
2.93197e-07
2.95388e-07
2.94135e-07
2.94808e-07
2.92799e-07
2.95107e-07
2.98448e-07
3.00908e-07
3.02313e-07
3.02862e-07
3.02403e-07
2.97977e-07
2.95381e-07
2.96085e-07
2.98233e-07
3.01897e-07
3.06331e-07
3.1102e-07
3.14952e-07
3.18034e-07
3.22658e-07
3.27939e-07
3.32608e-07
3.40645e-07
3.40777e-07
2.98079e-07
2.97792e-07
2.98175e-07
2.97865e-07
2.97741e-07
2.96786e-07
2.96207e-07
2.95053e-07
2.94373e-07
2.92747e-07
2.92397e-07
2.92011e-07
2.91729e-07
2.91816e-07
2.915e-07
2.91491e-07
2.92083e-07
2.93097e-07
2.92645e-07
2.94161e-07
2.95709e-07
2.9564e-07
2.96875e-07
2.9716e-07
2.99111e-07
3.01046e-07
3.02518e-07
3.03322e-07
3.03572e-07
3.03006e-07
2.99455e-07
2.97467e-07
2.9814e-07
3.00273e-07
3.03699e-07
3.08079e-07
3.12294e-07
3.16238e-07
3.18811e-07
3.22318e-07
3.26004e-07
3.28951e-07
3.34879e-07
3.35669e-07
2.99582e-07
2.99301e-07
2.99315e-07
2.99214e-07
2.98728e-07
2.98121e-07
2.97005e-07
2.96196e-07
2.95272e-07
2.94071e-07
2.93639e-07
2.93175e-07
2.92736e-07
2.92767e-07
2.92021e-07
2.92646e-07
2.92401e-07
2.93558e-07
2.93644e-07
2.94631e-07
2.96428e-07
2.96441e-07
2.97791e-07
2.98479e-07
3.00302e-07
3.02054e-07
3.03337e-07
3.03965e-07
3.041e-07
3.03457e-07
3.00614e-07
2.99277e-07
2.99977e-07
3.02172e-07
3.0519e-07
3.08986e-07
3.12325e-07
3.15784e-07
3.1814e-07
3.21964e-07
3.26062e-07
3.29566e-07
3.34732e-07
3.33879e-07
2.99827e-07
2.99611e-07
2.99558e-07
2.99443e-07
2.99106e-07
2.98439e-07
2.97632e-07
2.96623e-07
2.95998e-07
2.94925e-07
2.94594e-07
2.94172e-07
2.93702e-07
2.93693e-07
2.93216e-07
2.93247e-07
2.93933e-07
2.94316e-07
2.9458e-07
2.95579e-07
2.9717e-07
2.97553e-07
2.98612e-07
2.9955e-07
3.01221e-07
3.02805e-07
3.03945e-07
3.04361e-07
3.0441e-07
3.03869e-07
3.01717e-07
3.00944e-07
3.01678e-07
3.03745e-07
3.06523e-07
3.10207e-07
3.13227e-07
3.16411e-07
3.18454e-07
3.21436e-07
3.24185e-07
3.26158e-07
3.30224e-07
3.3013e-07
3.00811e-07
3.004e-07
3.00338e-07
3.00099e-07
2.99773e-07
2.99033e-07
2.98165e-07
2.97299e-07
2.96637e-07
2.95714e-07
2.95423e-07
2.95017e-07
2.94504e-07
2.94503e-07
2.93983e-07
2.94336e-07
2.94431e-07
2.95406e-07
2.95531e-07
2.96487e-07
2.97931e-07
2.98385e-07
2.99555e-07
3.00513e-07
3.01971e-07
3.03331e-07
3.04305e-07
3.04641e-07
3.04654e-07
3.04214e-07
3.02688e-07
3.02301e-07
3.03109e-07
3.05068e-07
3.07488e-07
3.10708e-07
3.13007e-07
3.15852e-07
3.17624e-07
3.20551e-07
3.23635e-07
3.26387e-07
3.29845e-07
3.28737e-07
3.01122e-07
3.00774e-07
3.00593e-07
3.00503e-07
3.0001e-07
2.99523e-07
2.98617e-07
2.97766e-07
2.97169e-07
2.96366e-07
2.96142e-07
2.95772e-07
2.95266e-07
2.95238e-07
2.94781e-07
2.9506e-07
2.95379e-07
2.96086e-07
2.96348e-07
2.97269e-07
2.98597e-07
2.99136e-07
3.00181e-07
3.0117e-07
3.02529e-07
3.03702e-07
3.04532e-07
3.04795e-07
3.04858e-07
3.04546e-07