/*--------------------------------*- C++ -*----------------------------------*\
| =========                 |                                                 |
| \\      /  F ield         | OpenFOAM: The Open Source CFD Toolbox           |
|  \\    /   O peration     | Version:  v1912                                 |
|   \\  /    A nd           | Website:  www.openfoam.com                      |
|    \\/     M anipulation  |                                                 |
\*---------------------------------------------------------------------------*/
FoamFile
{
    version     2.0;
    format      ascii;
    class       surfaceScalarField;
    location    "80";
    object      phi;
}
// * * * * * * * * * * * * * * * * * * * * * * * * * * * * * * * * * * * * * //

dimensions      [0 3 -1 0 0 0 0];
oriented        oriented;


internalField   nonuniform List<scalar> 
28285
(
-8.22511e-05
-1.19694e-05
-6.35256e-05
-1.87255e-05
-3.83788e-05
-2.51468e-05
-6.06093e-06
-3.23179e-05
3.49145e-05
-4.09755e-05
8.59002e-05
-5.09857e-05
0.000147678
-6.17778e-05
0.000220695
-7.30166e-05
0.000305536
-8.48419e-05
0.000402684
-9.71474e-05
0.000512283
-0.000109599
0.00063406
-0.000121777
0.000767016
-0.000132956
0.000909522
-0.000142506
0.0010593
-0.000149773
0.00121325
-0.00015395
0.00136729
-0.000154041
0.00151672
-0.00014943
0.00165621
-0.000139494
0.00178095
-0.000124744
0.00188683
-0.00010588
0.00197041
-8.35777e-05
0.00203033
-5.99153e-05
0.00206736
-3.70322e-05
0.0020851
-1.77395e-05
0.00208273
2.36587e-06
0.00206593
1.67995e-05
0.00205498
1.0957e-05
0.00203729
1.76817e-05
0.00199927
3.80224e-05
0.00193531
6.39642e-05
0.00182832
0.000106985
0.0016695
0.000158827
0.00147289
0.000196604
0.00126861
0.000204285
0.00108265
0.000185954
0.000925046
0.000157607
0.000796056
0.00012899
0.000690997
0.00010506
0.000606344
8.46527e-05
0.000537125
6.92189e-05
0.000480106
5.70189e-05
0.000417884
6.22225e-05
4.02361e-05
0.000377647
-8.22618e-05
-2.39388e-05
-6.35367e-05
-3.74506e-05
-3.83895e-05
-5.0294e-05
-6.071e-06
-6.46364e-05
3.49055e-05
-8.1952e-05
8.58919e-05
-0.000101972
0.000147671
-0.000123557
0.00022069
-0.000146035
0.000305534
-0.000169686
0.000402683
-0.000194297
0.000512284
-0.000219201
0.000634064
-0.000243556
0.000767026
-0.000265919
0.00090954
-0.000285019
0.00105931
-0.000299547
0.00121326
-0.000307892
0.00136729
-0.000308075
0.00151671
-0.000298848
0.00165619
-0.000278974
0.00178092
-0.00024948
0.0018868
-0.000211757
0.00197038
-0.000167159
0.00203031
-0.000119838
0.00206735
-7.40712e-05
0.00208509
-3.54815e-05
0.00208272
4.73136e-06
0.00206592
3.36013e-05
0.00205496
2.19139e-05
0.00203728
3.53606e-05
0.00199924
7.60684e-05
0.00193524
0.000127962
0.00182836
0.000213864
0.00166956
0.000317627
0.00147292
0.000393241
0.0012686
0.000408605
0.00108265
0.000371907
0.000925041
0.000315217
0.000796052
0.000257979
0.000690994
0.000210117
0.000606348
0.000169299
0.000537111
0.000138456
0.000480143
0.000113987
0.000418679
0.000123687
8.04744e-05
0.000378441
-8.22748e-05
-3.59114e-05
-6.35487e-05
-5.61767e-05
-3.84014e-05
-7.54413e-05
-6.08388e-06
-9.69539e-05
3.48957e-05
-0.000122932
8.58847e-05
-0.000152961
0.00014767
-0.000185342
0.000220697
-0.000219062
0.000305552
-0.000254541
0.000402713
-0.000291458
0.000512321
-0.000328809
0.000634089
-0.000365325
0.000767028
-0.000398857
0.00090953
-0.000427522
0.00105931
-0.000449323
0.00121325
-0.000461837
0.00136729
-0.000462112
0.00151671
-0.000448271
0.0016562
-0.000418459
0.00178093
-0.000374218
0.00188681
-0.000317635
0.00197039
-0.000250741
0.00203031
-0.000179755
0.00206735
-0.000111109
0.0020851
-5.32287e-05
0.00208273
7.09687e-06
0.00206593
5.04051e-05
0.00205495
3.28865e-05
0.00203726
5.30572e-05
0.00199921
0.000114114
0.00193522
0.000191955
0.00182838
0.000320701
0.00166958
0.000476429
0.00147292
0.000589896
0.0012686
0.000612927
0.00108265
0.000557856
0.000925031
0.00047284
0.000796042
0.000386967
0.00069098
0.000315179
0.000606337
0.000253942
0.000537099
0.000207693
0.000480144
0.000170943
0.000418529
0.000185302
0.000120534
0.00037847
-8.22892e-05
-4.78837e-05
-6.3564e-05
-7.49019e-05
-3.84175e-05
-0.000100588
-6.10166e-06
-0.00012927
3.48786e-05
-0.000163912
8.58672e-05
-0.00020395
0.000147651
-0.000247126
0.000220676
-0.000292087
0.000305529
-0.000339393
0.000402689
-0.000388618
0.000512297
-0.000438417
0.000634064
-0.000487092
0.000767009
-0.000531802
0.000909513
-0.000570026
0.00105927
-0.000599081
0.00121321
-0.000615779
0.00136725
-0.000616149
0.00151669
-0.000597709
0.00165614
-0.000557912
0.00178087
-0.000498952
0.00188676
-0.000423522
0.00197036
-0.00033434
0.0020303
-0.000239695
0.00206735
-0.000148156
0.00208508
-7.09656e-05
0.00208272
9.45892e-06
0.00206592
6.72024e-05
0.00205494
4.38668e-05
0.00203725
7.07555e-05
0.00199923
0.000152135
0.00193526
0.000255923
0.00182839
0.000427568
0.00166962
0.000635204
0.00147295
0.000786557
0.00126859
0.000817294
0.00108266
0.000743787
0.000925028
0.000630469
0.00079604
0.000515955
0.000690977
0.000420242
0.000606331
0.000338588
0.00053708
0.000276944
0.000480167
0.000227855
0.000419247
0.000246222
0.000160714
0.000379066
-8.23007e-05
-5.98549e-05
-6.35762e-05
-9.36264e-05
-3.84305e-05
-0.000125734
-6.11722e-06
-0.000161583
3.4861e-05
-0.00020489
8.58453e-05
-0.000254934
0.000147622
-0.000308903
0.000220638
-0.000365103
0.00030548
-0.000424235
0.000402628
-0.000485766
0.00051223
-0.000548019
0.000634009
-0.000608871
0.00076698
-0.000664772
0.000909496
-0.000712543
0.00105925
-0.000748838
0.0012132
-0.000769721
0.00136723
-0.000770186
0.00151667
-0.000747148
0.00165613
-0.000697367
0.00178086
-0.000623687
0.00188675
-0.000529411
0.00197034
-0.000417935
0.00203027
-0.000299619
0.00206731
-0.000185193
0.00208504
-8.87036e-05
0.00208269
1.18122e-05
0.00206591
8.39845e-05
0.00205494
5.48307e-05
0.00203728
8.84252e-05
0.00199926
0.000190147
0.0019353
0.000319888
0.00182841
0.000534456
0.00166964
0.000793973
0.00147298
0.000983216
0.00126857
0.0010217
0.00108263
0.00092973
0.000925016
0.000788085
0.000796032
0.000644939
0.000690977
0.000525298
0.000606327
0.000423238
0.000537066
0.000346205
0.000480177
0.000284745
0.000419274
0.000307125
0.000200726
0.000379262
-8.23039e-05
-7.18262e-05
-6.35779e-05
-0.000112352
-3.8431e-05
-0.00015088
-6.11798e-06
-0.000193896
3.48608e-05
-0.000245869
8.58444e-05
-0.000305917
0.000147621
-0.00037068
0.000220636
-0.000438119
0.000305477
-0.000509076
0.000402626
-0.000582915
0.000512234
-0.000657626
0.000634025
-0.000730662
0.000767002
-0.000797749
0.000909529
-0.00085507
0.00105931
-0.000898617
0.00121323
-0.000923646
0.00136723
-0.000924187
0.00151664
-0.000896556
0.00165613
-0.000836856
0.00178088
-0.000748433
0.00188676
-0.000635293
0.00197033
-0.000501508
0.00203023
-0.000359519
0.00206727
-0.000222229
0.00208503
-0.00010646
0.00208268
1.41626e-05
0.00206589
0.000100767
0.00205494
6.5786e-05
0.00203728
0.000106085
0.00199927
0.000228158
0.00193531
0.000383845
0.00182845
0.000641319
0.00166966
0.000952754
0.00147299
0.00117989
0.00126858
0.00122611
0.00108262
0.00111569
0.000925
0.000945707
0.000796015
0.000773924
0.000690962
0.00063035
0.000606316
0.000507885
0.000537045
0.000415476
0.000480194
0.000341595
0.000419814
0.000367505
0.000240872
0.000379669
-8.22988e-05
-8.3797e-05
-6.35759e-05
-0.000131075
-3.8432e-05
-0.000176024
-6.11997e-06
-0.000226208
3.48622e-05
-0.000286851
8.58481e-05
-0.000356903
0.000147626
-0.000432457
0.000220641
-0.000511134
0.000305482
-0.000593917
0.000402633
-0.000680066
0.000512247
-0.00076724
0.00063405
-0.000852466
0.000767041
-0.00093074
0.00090958
-0.000997609
0.00105936
-0.0010484
0.00121328
-0.00107756
0.00136726
-0.00107817
0.00151665
-0.00104594
0.00165612
-0.000976331
0.00178086
-0.000873176
0.00188675
-0.000741175
0.00197032
-0.000585083
0.00203024
-0.000419439
0.00206729
-0.000259275
0.00208503
-0.000124208
0.00208268
1.65191e-05
0.00206589
0.000117554
0.00205493
7.67447e-05
0.00203728
0.000123741
0.00199927
0.000266165
0.00193532
0.000447796
0.00182849
0.000748145
0.0016697
0.00111155
0.00147299
0.0013766
0.00126858
0.00143053
0.00108259
0.00130167
0.000924976
0.00110333
0.000795991
0.000902909
0.00069094
0.000735401
0.000606304
0.000592521
0.000537028
0.000484751
0.000480206
0.000398418
0.000419974
0.000427736
0.000280907
0.000379939
-8.2303e-05
-9.57672e-05
-6.35799e-05
-0.000149798
-3.8436e-05
-0.000201168
-6.12577e-06
-0.000258518
3.48553e-05
-0.000327832
8.58411e-05
-0.000407889
0.00014762
-0.000494236
0.000220636
-0.00058415
0.000305479
-0.00067876
0.000402632
-0.000777219
0.000512242
-0.000876851
0.00063403
-0.000974254
0.000766998
-0.00106371
0.000909518
-0.00114013
0.0010593
-0.00119818
0.00121325
-0.00123151
0.00136727
-0.0012322
0.00151669
-0.00119536
0.00165617
-0.00111581
0.00178091
-0.00099792
0.0018868
-0.00084706
0.00197038
-0.000668662
0.0020303
-0.000479357
0.00206733
-0.00029631
0.00208506
-0.000141933
0.00208267
1.89035e-05
0.00206588
0.000134348
0.00205494
8.76834e-05
0.00203731
0.000141374
0.00199932
0.000304148
0.00193538
0.000511736
0.00182852
0.000855007
0.00166972
0.00127035
0.001473
0.00157333
0.00126855
0.00163497
0.00108255
0.00148766
0.000924944
0.00126094
0.000795969
0.00103188
0.000690925
0.000840445
0.000606289
0.000677157
0.000537003
0.000554037
0.000480219
0.000455202
0.000420399
0.000487556
0.000321017
0.000380289
-8.23118e-05
-0.000107736
-6.35889e-05
-0.000168521
-3.84449e-05
-0.000226312
-6.13743e-06
-0.000290826
3.48417e-05
-0.000368811
8.58256e-05
-0.000458873
0.000147603
-0.000556014
0.000220621
-0.000657167
0.000305464
-0.000763603
0.000402615
-0.000874371
0.00051222
-0.000986456
0.000633997
-0.00109603
0.000766951
-0.00119666
0.000909462
-0.00128264
0.00105925
-0.00134796
0.00121321
-0.00138547
0.00136727
-0.00138625
0.00151671
-0.0013448
0.00165622
-0.00125532
0.00178097
-0.00112267
0.00188686
-0.00095295
0.00197044
-0.000752247
0.00203036
-0.000539273
0.00206739
-0.000333339
0.0020851
-0.000159645
0.00208269
2.13162e-05
0.00206586
0.000151177
0.00205494
9.86028e-05
0.00203736
0.000158954
0.0019994
0.000342107
0.00193549
0.000575643
0.00182855
0.000961955
0.00166971
0.00142918
0.001473
0.00177004
0.00126851
0.00183946
0.00108254
0.00167363
0.000924916
0.00141856
0.000795953
0.00116085
0.000690916
0.000945483
0.000606279
0.000761794
0.000536986
0.00062333
0.000480229
0.000511959
0.000420634
0.000547151
0.000361044
0.000380608
-8.23196e-05
-0.000119706
-6.3596e-05
-0.000187245
-3.84529e-05
-0.000251455
-6.15016e-06
-0.000323129
3.4832e-05
-0.000409793
8.58157e-05
-0.000509857
0.000147592
-0.000617791
0.000220607
-0.000730182
0.000305447
-0.000848443
0.000402595
-0.000971519
0.000512202
-0.00109606
0.000633994
-0.00121782
0.000766967
-0.00132963
0.000909487
-0.00142516
0.00105927
-0.00149775
0.00121323
-0.00153943
0.00136728
-0.00154031
0.00151673
-0.00149425
0.00165625
-0.00139483
0.00178101
-0.00124744
0.00188691
-0.00105885
0.00197049
-0.000835831
0.0020304
-0.000599183
0.00206742
-0.00037036
0.00208513
-0.000177356
0.00208272
2.37259e-05
0.00206587
0.000168029
0.00205495
0.000109527
0.00203739
0.000176512
0.00199943
0.000380061
0.00193556
0.000639515
0.00182858
0.00106893
0.00166968
0.00158809
0.001473
0.00196671
0.00126852
0.00204395
0.00108254
0.00185961
0.000924901
0.00157619
0.00079594
0.00128981
0.000690908
0.00105052
0.000606267
0.000846435
0.000536964
0.000692632
0.000480239
0.000568684
0.000420994
0.000606396
0.000401093
0.000380945
-8.23242e-05
-0.000131675
-6.36021e-05
-0.000205967
-3.84617e-05
-0.000276596
-6.16524e-06
-0.000355425
3.48216e-05
-0.00045078
8.5806e-05
-0.000560841
0.000147583
-0.000679567
0.000220596
-0.000803195
0.000305435
-0.000933282
0.000402583
-0.00106867
0.00051219
-0.00120567
0.000633986
-0.00133962
0.000766965
-0.00146261
0.000909493
-0.00156769
0.00105928
-0.00164754
0.00121325
-0.00169339
0.0013673
-0.00169436
0.00151673
-0.00164368
0.00165623
-0.00153434
0.001781
-0.0013722
0.0018869
-0.00116475
0.0019705
-0.00091943
0.00203042
-0.000659099
0.00206744
-0.000407379
0.00208514
-0.000195062
0.00208273
2.61358e-05
0.00206587
0.000184887
0.00205495
0.000120448
0.00203736
0.000194103
0.00199938
0.000418047
0.00193553
0.00070336
0.00182863
0.00117584
0.00166969
0.00174703
0.00147297
0.00216343
0.00126854
0.00224838
0.00108254
0.00204561
0.000924884
0.00173385
0.00079592
0.00141877
0.000690888
0.00115555
0.000606249
0.000931074
0.000536941
0.000761941
0.000480247
0.000625379
0.000421267
0.000665375
0.000441088
0.000381272
-8.23372e-05
-0.000143643
-6.36144e-05
-0.00022469
-3.84738e-05
-0.000301736
-6.18126e-06
-0.000387717
3.48076e-05
-0.000491769
8.57903e-05
-0.000611824
0.000147566
-0.000741343
0.00022058
-0.000876209
0.000305419
-0.00101812
0.000402566
-0.00116581
0.000512168
-0.00131527
0.000633952
-0.0014614
0.000766922
-0.00159558
0.000909448
-0.00171021
0.00105925
-0.00179734
0.00121322
-0.00184737
0.00136729
-0.00184842
0.00151673
-0.00179312
0.00165624
-0.00167384
0.001781
-0.00149696
0.00188689
-0.00127065
0.00197048
-0.00100302
0.0020304
-0.000719017
0.00206744
-0.000444415
0.00208516
-0.000212777
0.00208274
2.85524e-05
0.00206587
0.000201751
0.00205496
0.000131365
0.00203736
0.000211705
0.00199931
0.00045609
0.00193544
0.000767232
0.00182872
0.00128256
0.00166982
0.00190593
0.00147299
0.00236026
0.00126846
0.00245291
0.00108252
0.00223156
0.00092486
0.0018915
0.000795893
0.00154774
0.000690864
0.00126058
0.000606233
0.0010157
0.000536919
0.000831255
0.000480252
0.000682045
0.000421595
0.000724033
0.000481083
0.000381599
-8.2343e-05
-0.000155609
-6.36208e-05
-0.000243412
-3.848e-05
-0.000326877
-6.18868e-06
-0.000420009
3.48096e-05
-0.000532767
8.5792e-05
-0.000662806
0.000147572
-0.000803123
0.000220595
-0.000949232
0.000305448
-0.00110297
0.00040261
-0.00126297
0.000512225
-0.00142489
0.000634008
-0.00158318
0.000766957
-0.00172853
0.000909454
-0.00185271
0.00105923
-0.00194712
0.0012132
-0.00200134
0.00136728
-0.0020025
0.00151675
-0.00194259
0.00165628
-0.00181337
0.00178105
-0.00162174
0.00188694
-0.00137654
0.00197053
-0.0010866
0.00203044
-0.000778932
0.00206747
-0.000481443
0.00208518
-0.000230484
0.00208275
3.09768e-05
0.00206589
0.000218612
0.00205496
0.000142296
0.00203737
0.000229297
0.00199934
0.000494113
0.00193542
0.000831151
0.00182883
0.00138915
0.00167004
0.00206472
0.00147318
0.00255712
0.00126837
0.00265772
0.00108245
0.00241748
0.000924809
0.00204914
0.000795855
0.00167669
0.000690837
0.00136559
0.000606212
0.00110033
0.000536892
0.000900574
0.000480256
0.000738682
0.000421893
0.000782396
0.000521043
0.000381933
-8.23362e-05
-0.000167577
-6.36145e-05
-0.000262134
-3.84759e-05
-0.000352016
-6.1865e-06
-0.000452298
3.47968e-05
-0.000573751
8.57749e-05
-0.000713784
0.000147547
-0.000864895
0.000220557
-0.00102224
0.000305392
-0.00118781
0.00040253
-0.00136011
0.000512113
-0.00153447
0.000633861
-0.00170493
0.000766787
-0.00186146
0.000909272
-0.0019952
0.00105904
-0.00209689
0.00121304
-0.00215534
0.00136717
-0.00215663
0.0015167
-0.00209213
0.00165628
-0.00195295
0.00178107
-0.00174653
0.00188698
-0.00148244
0.00197054
-0.00117017
0.00203042
-0.000838814
0.00206741
-0.000518428
0.00208507
-0.00024815
0.00208266
3.33888e-05
0.00206586
0.000235416
0.00205489
0.000153265
0.0020373
0.000246883
0.00199932
0.000532097
0.00193537
0.000895101
0.00182894
0.00149559
0.00167032
0.00222334
0.00147337
0.00275407
0.00126834
0.00286274
0.00108245
0.00260337
0.000924779
0.00220682
0.000795849
0.00180562
0.000690859
0.00147058
0.000606226
0.00118496
0.000536898
0.000969902
0.00048025
0.00079533
0.000422232
0.000840413
0.000560969
0.000382306
-0.000164714
-0.000191513
-0.00012727
-0.000299577
-7.69914e-05
-0.000402295
-1.24259e-05
-0.000516864
6.95237e-05
-0.0006557
0.000171476
-0.000815737
0.000295012
-0.000988431
0.000441022
-0.00116825
0.000610675
-0.00135746
0.000804939
-0.00155438
0.00102411
-0.00175364
0.00126765
-0.00194847
0.00153357
-0.00212738
0.00181862
-0.00228025
0.00211823
-0.0023965
0.00242625
-0.00246335
0.0027345
-0.00246488
0.00303354
-0.00239117
0.00331268
-0.00223208
0.00356227
-0.00199612
0.00377408
-0.00169426
0.00394123
-0.00133732
0.00406103
-0.00095861
0.00413502
-0.000592421
0.0041704
-0.000283521
0.00416556
3.8224e-05
0.00413186
0.000269119
0.00410994
0.000175184
0.00407488
0.000281947
0.00399901
0.000607959
0.0038713
0.00102281
0.00365791
0.00170898
0.0033402
0.00254105
0.00294623
0.00314804
0.00253676
0.00327222
0.00216474
0.0029754
0.00184941
0.00252215
0.00159153
0.0020635
0.00138154
0.00168058
0.00121232
0.00135419
0.00107366
0.00110856
0.00096051
0.000908482
0.000845399
0.000955524
0.000640655
0.000765714
-0.000164772
-0.000215442
-0.000127327
-0.000337022
-7.70526e-05
-0.00045257
-1.25013e-05
-0.000581415
6.94542e-05
-0.000737656
0.000171407
-0.00091769
0.000294952
-0.00111198
0.000440974
-0.00131427
0.000610646
-0.00152714
0.000804935
-0.00174867
0.00102414
-0.00197284
0.00126771
-0.00219205
0.00153367
-0.00239334
0.00181874
-0.00256532
0.00211838
-0.00269614
0.00242641
-0.00277138
0.00273465
-0.00277312
0.00303368
-0.00269019
0.00331281
-0.00251122
0.00356241
-0.00224573
0.00377427
-0.00190612
0.00394147
-0.00150452
0.0040613
-0.00107844
0.0041353
-0.000666421
0.00417064
-0.000318867
0.00416573
4.31325e-05
0.00413193
0.000302928
0.00411005
0.000197063
0.00407514
0.000316858
0.00399937
0.000683721
0.00387181
0.00115037
0.0036582
0.0019226
0.00334031
0.00285893
0.00294628
0.00354207
0.00253657
0.00368193
0.00216449
0.00334747
0.0018492
0.00283744
0.00159133
0.00232137
0.00138134
0.00189056
0.00121216
0.00152337
0.00107351
0.00124721
0.000960499
0.00102149
0.000846606
0.00106942
0.000720075
0.000767186
-0.00016482
-0.00023937
-0.000127376
-0.000374466
-7.71051e-05
-0.00050284
-1.25648e-05
-0.000645955
6.93829e-05
-0.000819603
0.000171329
-0.00101964
0.000294869
-0.00123552
0.000440889
-0.00146029
0.000610559
-0.00169681
0.000804847
-0.00194295
0.00102405
-0.00219204
0.00126763
-0.00243562
0.00153359
-0.0026593
0.00181868
-0.00285041
0.00211834
-0.0029958
0.00242641
-0.00307945
0.00273469
-0.0030814
0.00303376
-0.00298927
0.00331293
-0.00279039
0.00356258
-0.00249537
0.00377446
-0.002118
0.00394167
-0.00167173
0.0040615
-0.00119827
0.00413548
-0.0007404
0.00417078
-0.000354161
0.00416583
4.80802e-05
0.00413195
0.000336807
0.00411013
0.000218887
0.00407538
0.000351604
0.00399971
0.000759395
0.00387226
0.00127781
0.0036586
0.00213625
0.00334063
0.0031769
0.00294638
0.00393632
0.00253632
0.00409199
0.00216427
0.00371952
0.00184898
0.00315272
0.00159114
0.00257921
0.00138119
0.00210052
0.00121204
0.00169252
0.00107339
0.00138586
0.000960455
0.00113442
0.000847939
0.00118193
0.000799051
0.000768962
-0.000164877
-0.000263294
-0.000127435
-0.000411908
-7.71653e-05
-0.00055311
-1.26328e-05
-0.000710488
6.93057e-05
-0.000901542
0.000171241
-0.00112157
0.000294773
-0.00135905
0.000440788
-0.00160631
0.000610453
-0.00186647
0.000804739
-0.00213724
0.00102394
-0.00241125
0.00126753
-0.00267921
0.00153352
-0.00292528
0.00181863
-0.00313552
0.00211831
-0.00329549
0.00242641
-0.00338755
0.00273472
-0.00338971
0.00303384
-0.00328838
0.00331304
-0.00306959
0.00356271
-0.00274505
0.00377463
-0.00232991
0.00394185
-0.00183895
0.00406168
-0.0013181
0.00413565
-0.000814367
0.0041709
-0.000389409
0.00416589
5.30875e-05
0.00413199
0.000370708
0.00411029
0.000240592
0.00407566
0.000386233
0.00400006
0.000834991
0.00387273
0.00140514
0.00365905
0.00234993
0.00334085
0.00349511
0.00294621
0.00433096
0.00253613
0.00450207
0.00216396
0.00409169
0.00184871
0.00346797
0.00159093
0.00283699
0.00138103
0.00231041
0.00121191
0.00186164
0.00107325
0.00152452
0.000960386
0.00124729
0.000849229
0.00129309
0.000877629
0.000770651
-0.000164931
-0.000287209
-0.0001275
-0.000449339
-7.72427e-05
-0.000603368
-1.26841e-05
-0.000775046
6.92169e-05
-0.000983443
0.000171151
-0.00122351
0.000294683
-0.00148258
0.000440695
-0.00175232
0.000610357
-0.00203613
0.000804641
-0.00233152
0.00102385
-0.00263045
0.00126743
-0.0029228
0.00153342
-0.00319128
0.00181855
-0.00342065
0.00211826
-0.00359519
0.00242638
-0.00369567
0.00273474
-0.00369806
0.00303388
-0.00358752
0.00331311
-0.00334882
0.00356283
-0.00299477
0.00377479
-0.00254186
0.00394206
-0.00200622
0.00406191
-0.00143795
0.00413586
-0.000888323
0.00417107
-0.00042461
0.00416599
5.81635e-05
0.00413209
0.000404614
0.00411046
0.000262219
0.00407592
0.000420774
0.00400037
0.000910538
0.00387314
0.00153237
0.0036596
0.00256347
0.00334119
0.00381351
0.00294622
0.00472593
0.00253586
0.00491243
0.00216361
0.00446394
0.00184842
0.00378316
0.00159069
0.00309473
0.00138084
0.00252026
0.00121175
0.00203073
0.0010731
0.00166317
0.000960292
0.0013601
0.000850565
0.00140282
0.000955934
0.00077226
-0.000164954
-0.000311115
-0.000127533
-0.000486761
-7.72805e-05
-0.00065362
-1.2718e-05
-0.000839609
6.91684e-05
-0.00106533
0.000171096
-0.00132543
0.000294625
-0.00160611
0.000440638
-0.00189833
0.000610302
-0.0022058
0.000804584
-0.0025258
0.00102377
-0.00284964
0.00126734
-0.00316636
0.00153332
-0.00345726
0.00181846
-0.00370579
0.0021182
-0.00389493
0.00242637
-0.00400384
0.00273478
-0.00400648
0.00303399
-0.00388673
0.00331328
-0.00362812
0.00356305
-0.00324454
0.00377504
-0.00275385
0.00394232
-0.00217351
0.00406215
-0.00155778
0.00413609
-0.000962258
0.00417126
-0.000459782
0.00416615
6.32773e-05
0.0041322
0.000438557
0.00411056
0.000283857
0.00407609
0.000455246
0.00400058
0.000986049
0.00387345
0.0016595
0.00366023
0.0027767
0.00334178
0.00413196
0.00294641
0.0051213
0.00253566
0.00532318
0.00216326
0.00483633
0.00184807
0.00409835
0.00159044
0.00335236
0.00138067
0.00273004
0.00121158
0.00219982
0.00107293
0.00180181
0.000960181
0.00147285
0.000851697
0.0015113
0.00103427
0.000773363
-0.000164936
-0.000335023
-0.000127521
-0.000524176
-7.72816e-05
-0.000703859
-1.27308e-05
-0.00090416
6.90486e-05
-0.00114711
0.000170939
-0.00142732
0.000294407
-0.00172958
0.000440345
-0.00204427
0.000609905
-0.00237536
0.000804051
-0.00271995
0.00102308
-0.00306867
0.00126648
-0.00340976
0.00153231
-0.00372309
0.00181736
-0.00399084
0.00211714
-0.00419472
0.00242555
-0.00431225
0.00273433
-0.00431526
0.00303398
-0.00418638
0.00331355
-0.00390768
0.00356341
-0.0034944
0.00377537
-0.00296581
0.00394253
-0.00234066
0.00406222
-0.00167748
0.00413604
-0.00103608
0.00417108
-0.000494825
0.00416591
6.84465e-05
0.004132
0.000472466
0.00411036
0.0003055
0.00407597
0.000489636
0.00400044
0.00106158
0.00387327
0.00178667
0.00366112
0.00298884
0.00334362
0.00444947
0.00294732
0.0055176
0.00253516
0.00573534
0.00216305
0.00520845
0.0018478
0.0044136
0.00159023
0.00360993
0.00138059
0.00293968
0.00121152
0.00236889
0.0010729
0.00194044
0.000960107
0.00158564
0.000852686
0.00161872
0.00111281
0.000774143
-0.00225659
-0.000660773
-0.00174741
-0.00103335
-0.00106371
-0.00138756
-0.000185019
-0.00178285
0.000929434
-0.00226156
0.00231764
-0.00281553
0.00400059
-0.00341252
0.00599015
-0.00403383
0.00830211
-0.00468732
0.0109499
-0.00536778
0.0139379
-0.00605665
0.0172591
-0.00673089
0.0208865
-0.00735058
0.0247759
-0.00788021
0.0288654
-0.00828421
0.0330712
-0.00851804
0.0372815
-0.00852555
0.0413674
-0.00827229
0.0451812
-0.00772151
0.0485907
-0.00690391
0.0514838
-0.00585888
0.0537646
-0.00462145
0.0553957
-0.00330853
0.0563996
-0.00204006
0.0568719
-0.000967098
0.0567944
0.000145937
0.056324
0.000942845
0.0560337
0.000595868
0.0555836
0.000939708
0.0545699
0.00207524
0.0528623
0.00349435
0.0499684
0.00588267
0.0456121
0.00880579
0.0401822
0.0109475
0.0345492
0.0113684
0.0294476
0.0103101
0.025152
0.00870923
0.0216464
0.00711546
0.0187907
0.00579543
0.0164876
0.00467193
0.0145979
0.00383014
0.0130744
0.00310918
0.0117028
0.00299037
0.00219773
0.0106178
-0.0022885
-0.000985744
-0.00178003
-0.00154182
-0.00109942
-0.00206817
-0.000225753
-0.00265652
0.000883776
-0.00337109
0.0022686
-0.00420035
0.00394979
-0.00509372
0.00593784
-0.00602188
0.00824839
-0.00699787
0.0108956
-0.008015
0.0138845
-0.00904549
0.017209
-0.0100555
0.0208429
-0.0109844
0.0247421
-0.0117794
0.0288453
-0.0123874
0.0330687
-0.0127414
0.0372996
-0.0127565
0.0414069
-0.0123796
0.0452424
-0.0115571
0.0486711
-0.0103326
0.0515769
-0.0087647
0.0538643
-0.00690882
0.0554987
-0.00494295
0.056497
-0.00303839
0.0569526
-0.00142262
0.0568496
0.000248875
0.0563526
0.00143991
0.0560768
0.000871585
0.0556903
0.00132623
0.0547076
0.00305792
0.0530402
0.00516181
0.0501561
0.00876672
0.04573
0.013232
0.0401563
0.0165212
0.0344213
0.0171033
0.0293201
0.0154113
0.0250538
0.0129755
0.0215777
0.0105915
0.0187365
0.00863658
0.016425
0.00698347
0.0145288
0.00572636
0.0130206
0.00461736
0.011742
0.00426894
0.00323273
0.010707
-0.00233127
-0.0013087
-0.00182489
-0.0020482
-0.00114741
-0.00274565
-0.000279584
-0.00352434
0.000823423
-0.0044741
0.00220212
-0.00557906
0.00387849
-0.00677009
0.00586356
-0.00800695
0.0081717
-0.00930601
0.010818
-0.0106613
0.0138088
-0.0120363
0.0171384
-0.0133851
0.0207813
-0.0146273
0.0246948
-0.0156929
0.0288182
-0.0165108
0.0330682
-0.0169914
0.0373312
-0.0170194
0.0414748
-0.0165232
0.0453428
-0.0154251
0.0487975
-0.0137873
0.0517258
-0.011693
0.054026
-0.009209
0.0556521
-0.00656905
0.0566378
-0.00402414
0.0570599
-0.00184466
0.0569229
0.000385879
0.0563834
0.00197938
0.0561087
0.0011463
0.0557954
0.00163956
0.0548271
0.00402613
0.0531723
0.00681662
0.0502529
0.0116861
0.0456842
0.0178007
0.0399762
0.0222292
0.0342058
0.0228737
0.0291043
0.0205128
0.0248697
0.0172101
0.0214127
0.0140486
0.0186115
0.0114378
0.0163439
0.00925101
0.0144804
0.00758986
0.013004
0.00609381
0.0117792
0.00549367
0.00430878
0.0107032
-0.00238736
-0.00163103
-0.00188361
-0.00255195
-0.00121478
-0.00341448
-0.000359409
-0.00437972
0.000732273
-0.00556578
0.0021054
-0.00695218
0.00378017
-0.00844486
0.0057635
-0.00999028
0.00807007
-0.0116126
0.0107152
-0.0133065
0.0137068
-0.0150279
0.017043
-0.0167212
0.020698
-0.0182823
0.0246294
-0.0196243
0.0287782
-0.0206596
0.0330616
-0.0212749
0.0373665
-0.0213244
0.0415546
-0.0207112
0.0454677
-0.0193382
0.0489616
-0.0172812
0.0519167
-0.0146481
0.0542302
-0.0115225
0.0558615
-0.00820035
0.0568267
-0.00498931
0.0572162
-0.00223413
0.0570363
0.000565712
0.0564279
0.00258781
0.0561073
0.00146692
0.0558441
0.00190277
0.0547861
0.00508413
0.053045
0.00855766
0.0499723
0.0147588
0.0452792
0.0224938
0.0395547
0.0279537
0.033803
0.0286254
0.0287299
0.0255859
0.0245198
0.0214202
0.021128
0.0174404
0.0183922
0.0141736
0.0161702
0.011473
0.0143382
0.00942189
0.0128962
0.00753585
0.0117376
0.00665219
0.00529697
0.0107494
-0.0024642
-0.00194707
-0.00196636
-0.00304979
-0.00130014
-0.0040807
-0.000448309
-0.00523154
0.000635259
-0.00664935
0.00199616
-0.00831308
0.0036601
-0.0101088
0.00563648
-0.0119666
0.00793715
-0.0139132
0.0105809
-0.0159502
0.0135765
-0.0180235
0.0169207
-0.0200654
0.0205905
-0.0219521
0.0245459
-0.0235797
0.0287301
-0.0248438
0.0330611
-0.0256059
0.0374221
-0.0256853
0.0416706
-0.0249598
0.0456372
-0.0233048
0.0491747
-0.0208187
0.0521647
-0.0176381
0.054494
-0.0138519
0.056115
-0.00982137
0.0570668
-0.00594106
0.0573985
-0.00256581
0.0571716
0.000792591
0.0565165
0.00324287
0.0560742
0.00190922
0.0556557
0.00232125
0.0542548
0.00648503
0.0520721
0.0107404
0.0487156
0.0181153
0.0439796
0.0272298
0.038506
0.0334272
0.0329959
0.0341356
0.0280594
0.0305224
0.0239772
0.0255024
0.0207086
0.020709
0.0180794
0.0168028
0.0159291
0.0136233
0.0141627
0.0111882
0.0127745
0.00892406
0.0116798
0.00774694
0.00620934
0.0107674
-0.00253993
-0.00227021
-0.00204323
-0.00354649
-0.00139701
-0.00472692
-0.000571515
-0.00605704
0.000491965
-0.00771283
0.00184486
-0.00966598
0.00350762
-0.0117716
0.005483
-0.013942
0.00778366
-0.0162139
0.0104269
-0.0185934
0.013425
-0.0210217
0.0167804
-0.0234208
0.0204683
-0.02564
0.0244498
-0.0275612
0.0286689
-0.0290628
0.0330447
-0.0299818
0.037463
-0.0301035
0.0417785
-0.0292753
0.0458166
-0.0273429
0.0494141
-0.0244162
0.0524488
-0.0206728
0.0548086
-0.0162116
0.0564339
-0.0114467
0.057353
-0.00686011
0.0576358
-0.00284867
0.0573538
0.00107462
0.05666
0.00393661
0.0558622
0.00270703
0.0548546
0.0033289
0.0526502
0.00868945
0.0496646
0.013726
0.0460394
0.0217405
0.0415378
0.0317314
0.0366329
0.038332
0.0316278
0.0391408
0.0270085
0.0351416
0.0231676
0.0293433
0.0200997
0.023777
0.0176249
0.0192776
0.0155755
0.0156727
0.0139076
0.0128561
0.0126154
0.0102162
0.0116106
0.00875183
0.00700826
0.0108116
-0.00265414
-0.00257944
-0.00216513
-0.0040355
-0.00152103
-0.00537102
-0.000701052
-0.00687702
0.000355461
-0.00876934
0.00170016
-0.0110107
0.0033502
-0.0134216
0.00531388
-0.0159057
0.00760346
-0.0185035
0.0102414
-0.0212313
0.0132408
-0.0240212
0.0166025
-0.0267825
0.0203076
-0.0293451
0.02432
-0.0315736
0.0285851
-0.0333279
0.033029
-0.0344257
0.037538
-0.0346125
0.0419492
-0.0336864
0.0460665
-0.0314602
0.0497309
-0.0280806
0.0528145
-0.0237564
0.055191
-0.0185882
0.0568078
-0.0130635
0.0576857
-0.00773795
0.0579022
-0.00306518
0.0575619
0.00141494
0.0566739
0.00482456
0.0553055
0.00407545
0.0534598
0.00517465
0.0501573
0.0119919
0.0461524
0.0177309
0.0422486
0.0256444
0.0381866
0.0357934
0.0339389
0.0425798
0.0295973
0.0434823
0.0254628
0.0392761
0.022018
0.0327881
0.0192558
0.0265391
0.0169717
0.0215617
0.0150625
0.0175819
0.0135336
0.014385
0.0123484
0.0114014
0.0114104
0.00968975
0.00778533
0.0106334
-0.00275899
-0.00289273
-0.00226772
-0.00452677
-0.00164221
-0.00599653
-0.000857323
-0.00766191
0.000162145
-0.00978881
0.00148508
-0.0123336
0.00313008
-0.0150666
0.0050925
-0.0178681
0.00738197
-0.0207929
0.0100203
-0.0238697
0.0130269
-0.0270278
0.0164074
-0.030163
0.0201416
-0.0330793
0.0241953
-0.0356273
0.028516
-0.0376486
0.0330271
-0.0389369
0.0376105
-0.0391959
0.0421023
-0.0381783
0.0463101
-0.035668
0.0500476
-0.0318181
0.0531873
-0.0268961
0.0556042
-0.0210051
0.0572214
-0.0146807
0.0580865
-0.0086031
0.0582423
-0.00322101
0.0577382
0.00191911
0.0564024
0.00616035
0.054331
0.00614683
0.0516601
0.00784554
0.0473371
0.0163149
0.0422392
0.0228287
0.0377851
0.0300985
0.0338357
0.0397428
0.0302542
0.0461613
0.0267786
0.046958
0.0233821
0.0426726
0.0204711
0.0356991
0.0180848
0.0289255
0.0160695
0.023577
0.0143758
0.0192756
0.0130244
0.0157364