/*--------------------------------*- C++ -*----------------------------------*\
| =========                 |                                                 |
| \\      /  F ield         | OpenFOAM: The Open Source CFD Toolbox           |
|  \\    /   O peration     | Version:  v1912                                 |
|   \\  /    A nd           | Website:  www.openfoam.com                      |
|    \\/     M anipulation  |                                                 |
\*---------------------------------------------------------------------------*/
FoamFile
{
    version     2.0;
    format      ascii;
    class       volScalarField;
    location    "70";
    object      alpha.water;
}
// * * * * * * * * * * * * * * * * * * * * * * * * * * * * * * * * * * * * * //

dimensions      [0 0 0 0 0 0 0];


internalField   nonuniform List<scalar> 
14268
(
1
1
1
1
1
1
1
1
1
1
1
1
1
1
1
1
1
1
1
1
1
1
1
1
1
1
1
1
1
1
1
1
1
1
1
1
1
1
1
1
1
1
1
1
1
1
1
1
1
1
1
1
1
1
1
1
1
1
1
1
1
1
1
1
1
1
1
1
1
1
1
1
1
1
1
1
1
1
1
1
1
1
1
1
1
1
1
1
1
1
1
1
1
1
1
1
1
1
1
1
1
1
1
1
1
1
1
1
1
1
1
1
1
1
1
1
1
1
1
1
1
1
1
1
1
1
1
1
1
1
1
1
1
1
1
1
1
1
1
1
1
1
1
1
1
1
1
1
1
1
1
1
1
1
1
1
1
1
1
1
1
1
1
1
1
1
1
1
1
1
1
1
1
1
1
1
1
1
1
1
1
1
1
1
1
1
1
1
1
1
1
1
1
1
1
1
1
1
1
1
1
1
1
1
1
1
1
1
1
1
1
1
1
1
1
1
1
1
1
1
1
1
1
1
1
1
1
1
1
1
1
1
1
1
1
1
1
1
1
1
1
1
1
1
1
1
1
1
1
1
1
1
1
1
1
1
1
1
1
1
1
1
1
1
1
1
1
1
1
1
1
1
1
1
1
1
1
1
1
1
1
1
1
1
1
1
1
1
1
1
1
1
1
1
1
1
1
1
1
1
1
1
1
1
1
1
1
1
1
1
1
1
1
1
1
1
1
1
1
1
1
1
1
1
1
1
1
1
1
1
1
1
1
1
1
1
1
1
1
1
1
1
1
1
1
1
1
1
1
1
1
1
1
1
1
1
1
1
1
1
1
1
1
1
1
1
1
1
1
1
1
1
1
1
1
1
1
1
1
1
1
1
1
1
1
1
1
1
1
1
1
1
1
1
1
1
1
1
1
1
1
1
1
1
1
1
1
1
1
1
1
1
1
1
1
1
1
1
1
1
1
1
1
1
1
1
1
1
1
1
1
1
1
1
1
1
1
1
1
1
1
1
1
1
1
1
1
1
1
1
1
1
1
1
1
1
1
1
1
1
1
1
1
1
1
1
1
1
1
1
1
1
1
1
1
1
1
1
1
1
1
1
1
1
1
1
1
1
1
1
1
1
1
1
1
1
1
1
1
1
1
1
1
1
1
1
1
1
1
1
1
1
1
1
1
1
1
1
1
1
1
1
1
1
1
1
1
1
1
1
1
1
1
1
1
1
1
1
1
1
1
1
1
1
1
1
1
1
1
1
1
1
1
1
1
1
1
1
1
1
1
1
1
1
1
1
1
1
1
1
1
1
1
1
1
1
1
1
1
1
1
1
1
1
1
1
1
1
1
1
1
1
1
1
1
1
1
1
1
1
1
1
1
1
1
1
1
1
1
1
1
1
1
1
1
1
1
1
1
1
1
1
1
1
1
1
1
1
1
1
1
1
1
1
1
1
1
1
1
1
1
1
1
1
1
1
1
1
1
1
1
1
1
1
1
1
1
1
1
1
1
1
1
1
1
1
1
1
1
1
1
1
1
1
1
1
1
1
1
1
1
1
1
1
1
1
1
1
1
1
1
1
1
1
1
1
1
1
1
1
1
1
1
1
1
1
1
1
1
1
1
1
1
1
1
1
1
1
1
1
1
1
1
1
1
1
1
1
1
1
1
1
1
1
1
1
1
1
1
1
1
1
1
1
1
1
1
1
1
1
1
1
1
1
1
1
1
1
1
1
1
1
1
1
1
1
1
1
1
1
1
1
1
1
1
1
1
1
1
1
1
1
1
1
1
1
1
1
1
1
1
1
1
1
1
1
1
1
1
1
1
1
1
1
1
1
1
1
1
1
1
1
1
1
1
1
1
1
1
1
1
1
1
1
1
1
1
1
1
1
1
1
1
1
1
1
1
1
1
1
1
1
1
1
1
1
1
1
1
1
1
1
1
1
1
1
1
1
1
1
1
1
1
1
1
1
1
1
1
1
1
1
1
1
1
1
1
1
1
1
1
1
1
1
1
1
1
1
1
1
1
1
1
1
1
1
1
1
1
1
1
1
1
1
1
1
1
1
1
1
1
1
1
1
1
1
1
1
1
1
1
1
1
1
1
1
1
1
1
1
1
1
1
1
1
1
1
1
1
1
1
1
1
1
1
1
1
1
1
1
1
1
1
1
1
1
1
1
1
1
1
1
1
1
1
1
1
1
1
1
1
1
1
1
1
1
1
1
1
1
1
1
1
1
1
1
1
1
1
1
1
1
1
1
1
1
1
1
1
1
1
1
1
1
1
1
1
1
1
1
1
1
1
1
1
1
1
1
1
1
1
1
1
1
1
1
1
1
1
1
1
1
1
1
1
1
1
1
1
1
1
1
1
1
1
1
1
1
1
1
1
1
1
1
1
1
1
1
1
1
1
1
1
1
1
1
1
1
1
1
1
1
1
1
1
1
1
1
1
1
1
1
1
1
1
1
1
1
1
1
1
1
1
1
1
1
1
1
1
1
1
1
1
1
1
1
1
1
1
1
1
1
1
1
1
1
1
1
1
1
1
1
1
1
1
1
1
1
1
1
1
1
1
1
1
1
1
1
1
1
1
1
1
1
1
1
1
1
1
1
1
1
1
1
1
1
1
1
1
1
1
1
1
1
1
1
1
1
1
1
1
1
1
1
1
1
1
1
1
1
1
1
1
1
1
1
1
1
1
1
1
1
1
1
1
1
1
1
1
1
1
1
1
1
1
1
1
1
1
1
1
1
1
1
1
1
1
1
1
1
1
1
1
1
1
1
1
1
1
1
1
1
1
1
1
1
1
1
1
1
1
1
1
1
1
1
1
1
1
1
1
1
1
1
1
1
1
1
1
1
1
1
1
1
1
1
1
1
1
1
1
1
1
1
1
1
1
1
1
1
1
1
1
1
1
1
1
1
1
1
1
1
1
1
1
1
1
1
1
1
1
1
1
1
1
1
1
1
1
1
1
1
1
1
1
1
1
1
1
1
1
1
1
1
1
1
1
1
1
1
1
1
1
1
1
1
1
1
1
1
1
1
1
1
1
1
1
1
1
1
1
1
1
1
1
1
1
1
1
1
1
1
1
1
1
1
1
1
1
1
1
1
1
1
1
1
1
1
1
1
1
1
1
1
1
1
1
1
1
1
1
1
1
1
1
1
1
1
1
1
1
1
1
1
1
1
1
1
1
1
1
1
1
1
1
1
1
1
1
1
1
1
1
1
1
1
1
1
1
1
1
1
1
1
1
1
1
1
1
1
1
1
1
1
1
1
1
1
1
1
1
1
1
1
1
1
1
1
1
1
1
1
1
1
1
1
1
1
1
1
1
1
1
1
1
1
1
1
1
1
1
1
1
1
1
1
1
1
1
1
1
1
1
1
1
1
1
1
1
1
1
1
1
1
1
1
1
1
1
1
1
1
1
1
1
1
1
1
1
1
1
1
1
1
1
1
1
1
1
1
1
1
1
1
1
1
1
1
1
1
1
1
1
1
1
1
1
1
1
1
1
1
1
1
1
1
1
1
1
1
1
1
1
1
1
1
1
1
1
1
1
1
1
1
1
1
1
1
1
1
1
1
1
1
1
1
1
1
1
1
1
1
1
1
1
1
1
1
1
1
1
1
1
1
1
1
1
1
1
1
1
1
1
1
1
1
1
1
1
1
1
1
1
1
1
1
1
1
1
1
1
1
1
1
1
1
1
1
1
1
1
1
1
1
1
1
1
1
1
1
1
1
1
1
1
1
1
1
1
1
1
1
1
1
1
1
1
1
1
1
1
1
1
1
1
1
1
1
1
1
1
1
1
1
1
1
1
1
1
1
1
1
1
1
1
1
1
1
1
1
1
1
1
1
1
1
1
1
1
1
1
1
1
1
1
1
1
1
1
1
1
1
1
1
1
1
1
1
1
1
1
1
1
1
1
1
1
1
1
1
1
1
1
1
1
1
1
1
1
1
1
1
1
1
1
1
1
1
1
1
1
1
1
1
1
1
1
1
1
1
1
1
1
1
1
1
1
1
1
1
1
1
1
1
1
1
1
1
1
1
1
1
1
1
1
1
1
1
1
1
1
1
1
1
1
1
1
1
1
1
1
1
1
1
1
1
1
1
1
1
1
1
1
1
1
1
1
1
1
1
1
1
1
1
1
1
1
1
1
1
1
1
1
1
1
1
1
1
1
1
1
1
1
1
1
1
1
1
1
1
1
1
1
1
1
1
1
1
1
1
1
1
1
1
1
1
1
1
1
1
1
1
1
1
1
1
1
1
1
1
1
1
1
1
1
1
1
1
1
1
1
1
1
1
1
1
1
1
1
1
1
1
1
1
1
1
1
1
1
1
1
1
1
1
1
1
1
1
1
1
1
1
1
1
1
1
1
1
1
1
1
1
1
1
1
1
1
1
1
1
1
1
1
1
1
1
1
1
1
1
1
1
1
1
1
1
1
1
1
1
1
1
1
1
1
1
1
1
1
1
1
1
1
1
1
1
1
1
1
1
1
1
1
1
1
1
1
1
1
1
1
1
1
1
1
1
1
1
1
1
1
1
1
1
1
1
1
1
1
1
1
1
1
1
1
1
1
1
1
1
1
1
1
1
1
1
1
1
1
1
1
1
1
1
1
1
1
1
1
1
1
1
1
1
1
1
1
1
1
1
1
1
1
1
1
1
1
1
1
1
1
1
1
1
1
1
1
1
1
1
1
1
1
1
1
1
1
1
1
1
1
1
1
1
1
1
1
1
1
1
1
1
1
1
1
1
1
1
1
1
1
1
1
1
1
1
1
1
1
1
1
1
1
1
1
1
1
1
1
1
1
1
1
1
1
1
1
1
1
1
1
1
1
1
1
1
1
1
1
1
1
1
1
1
1
1
1
1
1
1
1
1
1
1
1
1
1
1
1
1
1
1
1
1
1
1
1
1
1
1
1
1
1
1
1
1
1
1
1
1
1
1
1
1
1
1
1
1
1
1
1
1
1
1
1
1
1
1
1
1
1
1
1
1
1
1
1
1
1
1
1
1
1
1
1
1
1
1
1
1
1
1
1
1
1
1
1
1
1
1
1
1
1
1
1
1
1
1
1
1
1
1
1
1
1
1
1
1
1
1
1
1
1
1
1
1
1
1
1
1
1
1
1
1
1
1
1
1
1
1
1
1
1
1
1
1
1
1
1
1
1
1
1
1
1
1
1
1
1
1
1
1
1
1
1
1
1
1
1
1
1
1
1
1
1
1
1
1
1
1
1
1
1
1
1
1
1
1
1
1
1
1
1
1
1
1
1
1
1
1
1
1
1
1
1
1
1
1
1
1
1
1
1
1
1
1
1
1
1
1
1
1
1
1
1
1
1
1
1
1
1
1
1
1
1
1
1
1
1
1
1
1
1
1
1
1
1
1
1
1
1
1
1
1
1
1
1
1
1
1
1
1
1
1
1
1
1
1
1
1
1
1
1
1
1
1
1
1
1
1
1
1
1
1
1
1
1
1
1
1
1
1
1
1
1
1
1
1
1
1
1
1
1
1
1
1
1
1
1
1
1
1
1
1
1
1
1
1
1
1
1
1
1
1
1
1
1
1
1
1
1
1
1
1
1
1
1
1
1
1
1
1
1
1
1
1
1
1
1
1
1
1
1
1
1
1
1
1
1
1
1
1
1
1
1
1
1
1
1
1
1
1
1
1
1
1
1
1
1
1
1
1
1
1
1
1
1
1
1
1
1
1
1
1
1
1
1
1
1
1
1
1
1
1
1
1
1
1
1
1
1
1
1
1
1
1
1
1
1
1
1
1
1
1
1
1
1
1
1
1
1
1
1
1
1
1
1
1
1
1
1
1
1
1
1
1
1
1
1
1
1
1
1
1
1
1
1
1
1
1
1
1
1
1
1
1
1
1
1
1
1
1
1
1
1
1
1
1
1
1
1
1
1
1
1
1
1
1
1
1
1
1
1
1
1
1
1
1
1
1
1
1
1
1
1
1
1
1
1
1
1
1
1
1
1
1
1
1
1
1
1
1
1
1
1
1
1
1
1
1
1
1
1
1
1
1
1
1
1
1
1
1
1
1
1
1
1
1
1
1
1
1
1
1
1
1
1
1
1
1
1
1
1
1
1
1
1
1
1
1
1
1
1
1
1
1
1
1
1
1
1
1
1
1
1
1
1
1
1
1
1
1
1
1
1
1
0.999999
0.999994
0.999972
0.999882
0.999595
0.998829
0.997164
0.994084
0.989247
0.982476
0.974842
0.968878
0.965422
0.964824
0.967896
0.974215
0.981744
0.989957
0.996406
0.999849
1
1
1
1
1
1
1
1
1
1
1
1
1
1
1
1
1
1
1
1
1
1
1
1
1
1
1
1
1
1
1
1
1
1
1
1
1
1
1
1
1
1
1
1
1
1
1
1
1
1
1
1
1
1
1
1
1
1
1
1
1
1
1
1
1
1
1
1
1
1
1
1
1
1
1
1
1
1
1
1
1
1
1
1
1
1
1
1
1
1
1
1
1
1
1
1
1
1
1
1
1
1
1
1
1
1
1
1
1
1
1
1
0.999999
0.999992
0.999959
0.999804
0.999166
0.996794
0.98891
0.966618
0.91845
0.838371
0.741342
0.65955
0.598318
0.562478
0.543623
0.54116
0.553913
0.57916
0.61524
0.661762
0.715415
0.772805
0.825157
0.869768
0.908222
0.940506
0.968694
0.988328
0.998629
1
1
1
1
1
1
1
1
1
1
1
1
1
1
1
1
1
1
1
1
1
1
1
1
1
1
1
1
1
1
0.999999
0.999992
0.999949
0.999839
0.999717
0.999636
0.999654
0.999778
0.999927
1
1
1
1
1
1
1
1
1
1
1
1
1
1
1
1
1
1
1
1
1
1
1
1
1
1
1
1
1
1
1
1
1
1
1
1
1
1
1
1
1
1
1
1
1
1
1
1
1
1
1
1
1
1
1
1
1
1
1
1
1
1
1
1
0.999999
0.999995
0.999974
0.999861
0.999278
0.996326
0.980555
0.915308
0.736246
0.518869
0.337269
0.210032
0.140516
0.0962829
0.0672516
0.0515894
0.0434772
0.0421061
0.0449585
0.0509507
0.061279
0.0776384
0.103744
0.14415
0.203766
0.279755
0.362637
0.451666
0.548954
0.648795
0.745949
0.827423
0.887647
0.937121
0.974136
0.995525
1
1
1
1
1
1
1
1
1
1
1
1
1
1
1
1
1
1
1
1
1
1
0.999999
0.999998
0.999995
0.999972
0.999761
0.997562
0.987612
0.965965
0.928916
0.876793
0.825197
0.796741
0.790951
0.80473
0.827432
0.854623
0.883675
0.912203
0.93836
0.960934
0.978947
0.99168
0.998505
1
1
1
1
1
1
1
1
1
1
1
1
1
1
1
1
1
1
1
1
1
1
1
1
1
1
1
1
1
1
1
1
1
1
1
1
1
1
1
1
1
1
1
1
1
1
1
1
1
1
1
0.999999
0.999998
0.999989
0.999939
0.999657
0.997982
0.986528
0.911775
0.646319
0.345649
0.15055
0.0558862
0.0122663
0.00113341
0.00120348
0.00125636
0.00128695
0.00131435
0.00135748
0.00138759
0.00146982
0.00165115
0.00196541
0.00248526
0.00334938
0.00471099
0.0068284
0.0102879
0.0161859
0.0261281
0.0428087
0.0717917
0.121856
0.20572
0.316917
0.440103
0.572332
0.70602
0.820228
0.899324
0.959271
0.994038
1
1
1
1
1
1
1
1
1
1
1
1
1
1
1
1
1
0.999998
0.999992
0.99998
0.999944
0.999684
0.996139
0.947154
0.737475
0.535205
0.368469
0.244135
0.182226
0.161309
0.160683
0.174159
0.203586
0.248602
0.304822
0.369471
0.440166
0.515105
0.592432
0.669652
0.742902
0.806749
1
1
1
1
1
1
1
1
1
1
1
1
1
1
1
1
1
1
1
1
1
1
1
1
1
1
1
1
1
1
1
1
1
1
1
1
1
1
1
1
1
1
1
1
1
1
1
1
0.999999
0.999998
0.999995
0.999976
0.999874
0.999259
0.995137
0.959172
0.724939
0.341401
0.10712
0.0136523
4.09001e-05
4.37356e-05
4.40133e-05
4.35522e-05
4.37963e-05
4.52343e-05
4.69005e-05
4.79428e-05
4.95173e-05
5.14939e-05
5.46876e-05
6.19447e-05
7.51019e-05
9.6021e-05
0.000128291
0.000177526
0.00025119
0.00036809
0.000560603
0.000858503
0.00135004
0.00221333
0.00376739
0.00671268
0.0125208
0.024221
0.0481299
0.0969927
0.194186
0.342152
0.511326
0.690118
0.837611
0.93661
0.989698
1
1
1
1
1
1
1
1
1
1
1
1
0.999999
0.999998
0.999986
0.999936
0.999844
0.999604
0.997729
0.948571
0.505135
0.221292
0.120178
0.0410351
0.0179181
0.0179248
0.0179181
0.0194387
0.0193223
0.00912758
0.0087902
0.0116701
0.0164562
0.0238236
0.03507
0.0522051
0.0782178
0.117392
0.173584
1
1
1
1
0.999999
0.999999
0.999999
0.999998
0.999997
0.999994
0.999989
0.999978
0.999959
0.999923
0.999855
0.999753
0.999566
0.999299
0.998906
0.998328
0.997709
0.996833
0.996029
0.995406
0.994696
0.994712
0.995872
0.997876
0.99975
0.999997
0.999998
0.999998
0.999998
0.999998
0.999998
0.999998
0.999998
0.999998
0.999999
0.999999
0.999999
0.999999
0.999999
0.999999
0.999999
0.999999
0.999999
0.999998
0.999996
0.999987
0.99995
0.999765
0.998647
0.990196
0.904107
0.510529
0.150492
0.0127483
8.55375e-07
8.38258e-07
8.18983e-07
8.32385e-07
8.85278e-07
9.75506e-07
1.09309e-06
1.20793e-06
1.23046e-06
1.25438e-06
1.28391e-06
1.2952e-06
1.31827e-06
1.49044e-06
1.88382e-06
2.50965e-06
3.5599e-06
5.90897e-06
8.55956e-06
1.18308e-05
2.08745e-05
3.19604e-05
4.94983e-05
8.25763e-05
0.000139248
0.000239727
0.000422688
0.000771194
0.00145413
0.0028763
0.00615267
0.0142868
0.0350048
0.0883096
0.219611
0.435453
0.654696
0.862507
0.964499
0.999999
1
1
1
1
1
0.999999
0.999999
0.999999
0.999997
0.999996
0.999989
0.99992
0.999566
0.998718
0.995603
0.933721
0.472849
0.362965
0.406411
0.409434
0.361145
0.328974
0.32926
0.32048
0.138741
0.0115087
0.000462299
0.000464449
0.000434162
0.000526593
0.000720533
0.0010162
0.00144879
0.00205136
0.00291254
0.00430903
0.999992
0.999992
0.999991
0.99999
0.999988
0.999983
0.999973
0.999954
0.999918
0.999842
0.999692
0.999375
0.99876
0.997494
0.994876
0.989746
0.979751
0.962398
0.935163
0.896522
0.849321
0.797987
0.753433
0.720964
0.701271
0.698276
0.709513
0.73363
0.771548
0.816603
0.862477
0.909351
0.952995
0.985973
0.999898
0.999985
0.999985
0.999986
0.999987
0.999988
0.999989
0.99999
0.999991
0.999992
0.999993
0.999993
0.999991
0.999984
0.999964
0.999888
0.999543
0.997572
0.981203
0.810319
0.334552
0.0548945
1.83493e-08
1.73185e-08
1.62123e-08
1.6194e-08
1.75622e-08
1.92921e-08
2.04836e-08
2.15561e-08
2.21579e-08
2.22054e-08
2.21885e-08
2.26729e-08
2.3816e-08
2.49116e-08
2.52377e-08
2.59663e-08
2.83732e-08
3.70008e-08
5.39608e-08
8.05966e-08
1.71611e-07
2.4546e-07
3.33307e-07
5.96363e-07
9.17818e-07
1.60471e-06
3.05648e-06
6.09012e-06
1.20756e-05
2.48422e-05
5.10734e-05
0.000104672
0.000224579
0.000495512
0.00113193
0.00278184
0.00743965
0.0241911
0.0738882
0.260003
0.522386
0.812438
0.959321
0.999997
0.999997
0.999998
0.999997
0.999997
0.999995
0.999993
0.999986
0.999973
0.999936
0.999584
0.996062
0.969601
0.760642
0.441442
0.407036
0.547453
0.622667
0.594743
0.490983
0.225225
0.0817447
0.110831
0.130287
0.0617858
0.00540487
8.28531e-06
8.2116e-06
1.35158e-05
1.62436e-05
1.85456e-05
2.30363e-05
2.87888e-05
3.39532e-05
4.57458e-05
0.999902
0.999893
0.999883
0.999869
0.999831
0.999757
0.999605
0.999314
0.998713
0.997421
0.994544
0.987637
0.971237
0.934345
0.859987
0.738514
0.606407
0.480283
0.36791
0.27448
0.203656
0.158196
0.128083
0.107953
0.0975978
0.0955131
0.101496
0.116209
0.144187
0.193775
0.269184
0.368049
0.490743
0.63264
0.777962
0.882863
0.958773
0.996882
0.999892
0.999895
0.999904
0.999913
0.999922
0.99993
0.999937
0.999939
0.999925
0.999868
0.999686
0.998959
0.995157
0.962948
0.686956
0.212576
0.0112797
5.8748e-10
5.05488e-10
4.86239e-10
4.7841e-10
4.68761e-10
4.87224e-10
5.19479e-10
5.50851e-10
5.86737e-10
5.91635e-10
5.78678e-10
5.81421e-10
6.36582e-10
7.06086e-10
7.10699e-10
7.02057e-10
7.03344e-10
7.66732e-10
9.60286e-10
1.36838e-09
2.07073e-09
4.5947e-09
6.02517e-09
8.2856e-09
1.69379e-08
2.89966e-08
4.60421e-08
7.06554e-08
1.20488e-07
2.16086e-07
4.194e-07
9.30462e-07
2.10088e-06
5.14407e-06
1.39781e-05
3.45935e-05
8.75542e-05
0.000225961
0.000737671
0.00232999
0.00873639
0.0354302
0.178127
0.495402
0.822606
0.975819
0.999987
0.999986
0.999984
0.999976
0.999954
0.999857
0.999548
0.998831
0.995847
0.963443
0.694318
0.575679
0.575169
0.738805
0.754814
0.625635
0.224963
0.0205076
0.000348871
0.000508312
0.00452041
0.0500656
0.0612308
0.0209353
0.000575795
1.10574e-07
2.38364e-07
4.22264e-07
4.26177e-07
4.13591e-07
4.28284e-07
4.94373e-07
5.77694e-07
0.998893
0.998767
0.998637
0.998439
0.997929
0.996877
0.994609
0.989488
0.976952
0.94619
0.874522
0.733478
0.562248
0.392218
0.246825
0.150288
0.0862002
0.0424267
0.0164883
0.00481349
0.00269076
0.00286487
0.00295653
0.00300401
0.00312085
0.0031026
0.00331537
0.00385091
0.0047967
0.00667442
0.0102072
0.017347
0.0325159
0.0664764
0.147199
0.304235
0.507411
0.716516
0.875112
0.964169
0.998766
0.999187
0.99924
0.999321
0.999408
0.99944
0.999324
0.998777
0.9969
0.987458
0.916787
0.544327
0.131577
0.000108241
3.59304e-11
4.52359e-11
9.10457e-11
9.05383e-11
7.40217e-11
5.65287e-11
4.98962e-11
4.93355e-11
4.91269e-11
4.87416e-11
4.68244e-11
4.44947e-11
4.55017e-11
4.99427e-11
4.92313e-11
4.52746e-11
4.16473e-11
3.90004e-11
3.97989e-11
4.35358e-11
6.0019e-11
8.65701e-11
1.83548e-10
2.24241e-10
2.97071e-10
6.09004e-10
9.72449e-10
1.45787e-09
2.23309e-09
3.64393e-09
6.09192e-09
1.10669e-08
2.33246e-08
5.00375e-08
1.20522e-07
3.21422e-07
8.09335e-07
2.13562e-06
5.79736e-06
2.33216e-05
7.55512e-05
0.000241133
0.0010365
0.00527554
0.030244
0.18683
0.554679
0.874847
0.994034
0.999884
0.999564
0.998563
0.995969
0.988338
0.972723
0.948906
0.871466
0.839881
0.81662
0.887762
0.876909
0.617283
0.13998
0.000106389
7.3743e-05
6.97275e-05
9.29146e-05
0.000531514
0.00881062
0.0412143
0.0299734
0.00325026
1.29983e-08
8.3549e-09
1.72004e-08
1.79423e-08
1.62867e-08
1.54396e-08
1.56462e-08
1.98845e-08
0.969575
0.977172
0.978545
0.974585
0.963156
0.938461
0.884413
0.773085
0.613805
0.437312
0.269356
0.149395
0.0706441
0.0214369
0.00127923
8.56373e-05
9.36954e-05
9.65584e-05
9.93184e-05
0.000102178
0.000101261
0.000105338
0.000105212
0.000104791
0.000112472
0.000110689
0.000118604
0.000142354
0.000179057
0.000249434
0.000369823
0.000599733
0.00105486
0.00205493
0.00461704
0.0117662
0.0339855
0.100676
0.282876
0.523462
0.759984
0.898829
0.968527
0.991131
0.992943
0.993448
0.9921
0.984109
0.949418
0.766835
0.365149
0.065887
3.27683e-11
3.30637e-11
3.33237e-11
6.37394e-11
6.58317e-11
5.17811e-11
3.504e-11
2.45599e-11
2.0838e-11
1.94816e-11
1.79374e-11
1.62327e-11
1.44807e-11
1.30643e-11
1.25412e-11
1.18895e-11
1.07291e-11
9.60807e-12
8.94591e-12
8.23574e-12
8.08941e-12
8.30382e-12
1.01183e-11
1.21205e-11
1.62713e-11
1.74951e-11
2.09812e-11
3.37031e-11
4.52439e-11
5.68932e-11
7.70192e-11
1.10959e-10
1.66148e-10
2.75144e-10
5.47161e-10
1.09993e-09
2.44115e-09
6.21206e-09
1.52362e-08
3.61077e-08
8.28363e-08
2.75656e-07
8.21382e-07
2.93052e-06
2.03248e-05
0.00014533
0.000879059
0.00553365
0.0401629
0.260388
0.659311
0.926604
0.996
0.993519
0.977973
0.950472
0.950087
0.951033
0.955623
0.956211
0.956182
0.924804
0.585083
0.116996
9.87081e-05
5.3829e-05
2.84198e-05
2.77161e-05
3.88264e-05
0.000216232
0.00221074
0.0165339
0.0236019
0.00899685
0.000381088
6.17724e-10
7.47737e-10
8.04428e-10
6.32812e-10
5.40559e-10
5.11243e-10
6.02435e-10
0.60973
0.64499
0.641172
0.600635
0.521566
0.41245
0.286405
0.174395
0.0915183
0.032406
0.00290425
2.13423e-06
2.27481e-06
2.36207e-06
2.41071e-06
2.38119e-06
2.44945e-06
2.43982e-06
2.48148e-06
2.4823e-06
2.36369e-06
2.4741e-06
2.52601e-06
2.61907e-06
2.90489e-06
2.8248e-06
2.96803e-06
3.57898e-06
5.0542e-06
7.68476e-06
1.12753e-05
1.88311e-05
3.42809e-05
6.93732e-05
0.000155957
0.000379912
0.000992012
0.00289811
0.00999162
0.0356742
0.128708
0.335229
0.564048
0.739466
0.836532
0.857988
0.831916
0.697906
0.455469
0.174641
0.0171923
3.27683e-11
3.27683e-11
3.77727e-11
5.41222e-11
6.17792e-11
4.7968e-11
2.96445e-11
1.594e-11
1.03619e-11
8.74138e-12
7.96295e-12
7.17154e-12
6.54152e-12
5.92722e-12
5.34808e-12
4.92795e-12
4.50306e-12
4.01766e-12
3.64808e-12
3.44277e-12
3.1115e-12
3.0517e-12
3.188e-12
3.50338e-12
3.303e-12
3.30713e-12
3.42678e-12
3.94073e-12
4.85846e-12
5.40785e-12
5.47251e-12
5.83048e-12
6.69112e-12
7.99366e-12
1.03808e-11
1.60556e-11
2.74113e-11
5.63976e-11
1.33716e-10
3.21279e-10
7.23194e-10
1.54562e-09
4.76447e-09
1.26935e-08
3.79661e-08
2.13322e-07
1.65462e-06
1.58637e-05
0.00014221
0.00108684
0.00821336
0.0643192
0.341776
0.71453
0.928111
0.973856
0.976436
0.976438
0.976436
0.959951
0.911637
0.76336
0.390793
0.0698509
8.22277e-05
5.75797e-05
2.25395e-05
6.11875e-06
2.41743e-05
8.24876e-05
0.000336693
0.00241937
0.00788413
0.0134311
0.00833406
0.000727373
7.10372e-11
5.20858e-11
4.10746e-11
3.7534e-11
3.71216e-11
3.50002e-11
3.87453e-11
0.077817
0.103216
0.106335
0.0887415
0.0584555
0.0270511
0.0047752
1.44076e-11
1.44078e-11
1.44081e-11
1.44086e-11
1.44092e-11
1.84334e-11
2.24099e-11
2.6575e-11
3.03472e-11
3.36103e-11
3.4126e-11
3.41498e-11
3.43609e-11
3.41907e-11
3.40166e-11
9.38269e-11
7.85268e-10
4.50266e-09
1.19237e-08
2.00723e-08
3.52903e-08
8.17546e-08
1.58302e-07
2.25103e-07
3.98841e-07
7.6957e-07
1.58684e-06
3.5488e-06
8.90914e-06
2.42534e-05
7.59202e-05
0.000258068
0.000908431
0.00346889
0.0132057
0.0450982
0.112982
0.202073
0.239369
0.215575
0.130767
0.0390441
0.000109777
3.27683e-11
3.27683e-11
3.80324e-11
5.01292e-11
5.55176e-11
4.74492e-11
2.94046e-11
1.36629e-11
5.66174e-12
4.22009e-12
3.88926e-12
3.74941e-12
3.51333e-12
3.26588e-12
3.01921e-12
2.71673e-12
2.45197e-12
2.21686e-12
1.96242e-12
1.78577e-12
1.69294e-12
1.49554e-12
1.48195e-12
1.62114e-12
1.54038e-12
1.14837e-12
1.02489e-12
1.10706e-12
1.19611e-12
1.22251e-12
1.15509e-12
9.90441e-13
8.88542e-13
9.09917e-13
1.01629e-12
1.23969e-12
1.74847e-12
3.59216e-12
1.12979e-11
1.8688e-11
2.35213e-11
3.04576e-11
4.67117e-11
1.95526e-10
8.10035e-10
1.00169e-09
2.16416e-09
1.33987e-08
1.42057e-07
1.27739e-06
1.12811e-05
0.000124981
0.00123271
0.0102942
0.0704486
0.306798
0.612449
0.780865
0.785874
0.744541
0.573584
0.304501
0.0983249
0.00328008
4.93989e-05
5.10529e-05
3.05454e-05
4.03903e-06
2.6169e-06
3.70077e-05
0.000392513
0.00227731
0.00404502
0.00405029
0.00483067
0.00342151
0.000382896
8.65325e-12
7.23753e-12
1.57026e-11
2.71366e-11
2.54528e-11
2.3263e-11
2.59695e-11
1.4272e-11
1.46008e-11
1.45481e-11
1.44064e-11
1.44069e-11
1.44073e-11
1.44075e-11
1.44075e-11
1.44076e-11
1.44078e-11
1.44081e-11
1.44086e-11
1.44092e-11
1.44099e-11
1.44108e-11
1.44118e-11
1.44129e-11
1.68382e-11
1.98509e-11
2.32619e-11
2.65291e-11
2.9036e-11
3.10476e-11
3.20983e-11
3.16035e-11
3.04133e-11
2.92876e-11
2.88063e-11
2.78101e-11
2.71019e-11
2.71203e-11
2.71388e-11
2.71573e-11
2.71759e-11
2.73972e-11
2.75888e-11
2.74306e-11
2.73665e-11
2.72698e-11
2.72888e-11
2.73079e-11
2.7327e-11
2.8591e-11
3.18336e-11
6.22189e-05
0.000663392
0.000110366
3.27683e-11
3.27683e-11
3.31571e-11
3.27683e-11
3.80154e-11
4.64447e-11
5.00273e-11
4.4905e-11
2.88943e-11
1.39002e-11
4.11369e-12
2.00376e-12
1.98446e-12
2.07477e-12
2.07331e-12
1.93386e-12
1.72621e-12
1.51509e-12
1.26778e-12
1.07467e-12
9.28968e-13
7.84322e-13
6.90208e-13
6.64981e-13
5.77618e-13
5.73249e-13
6.33317e-13
6.06301e-13
4.21155e-13
3.8042e-13
4.58404e-13
4.55843e-13
4.20165e-13
3.66588e-13
2.70875e-13
1.86237e-13
1.49405e-13
1.43392e-13
1.55652e-13
2.3248e-13
1.12524e-12
6.87911e-12
1.0147e-11
9.40952e-12
1.13101e-11
2.31694e-11
2.082e-10
7.30541e-10
4.13492e-10
4.58528e-10
2.7588e-09
5.54582e-08
5.51074e-07
1.78255e-06
8.2445e-06
3.15816e-05
0.000137646
0.000895036
0.00575924
0.0316159
0.0849921
0.0983287
0.0783075
0.0388866
0.0102878
5.76572e-05
3.7822e-05
3.71362e-05
2.73787e-05
6.87368e-06
1.24084e-08
1.21938e-06
5.70529e-05
0.00117993
0.00277601
0.00278295
0.00144847
0.000769539
0.000552158
6.673e-05
3.02188e-12
4.3025e-12
1.62289e-11
2.32635e-11
1.90103e-11
1.67371e-11
1.96569e-11
1.30902e-11
1.41174e-11
1.4405e-11
1.44058e-11
1.44064e-11
1.44069e-11
1.44073e-11
1.50694e-11
1.52573e-11
1.55767e-11
1.62704e-11
1.7551e-11
1.95199e-11
2.21048e-11
2.59762e-11
2.96364e-11
3.52309e-11
3.9882e-11
4.42407e-11
4.84046e-11
5.15723e-11
5.25651e-11
4.8257e-11
4.12382e-11
3.49737e-11
3.35197e-11
3.18873e-11
2.84257e-11
2.70653e-11
2.70836e-11
2.71019e-11
2.71203e-11
2.71388e-11
2.71573e-11
2.71759e-11
2.71945e-11
2.72132e-11
2.72321e-11
2.72509e-11
2.72698e-11
2.72888e-11
2.73079e-11
2.7327e-11
2.87882e-11
3.29495e-11
3.27683e-11
3.27683e-11
3.27683e-11
3.27683e-11
3.28023e-11
3.87408e-11
4.35265e-11
4.56311e-11
4.04121e-11
2.66481e-11
1.36008e-11
4.48562e-12
1.12368e-12
1.04942e-12
1.09207e-12
1.13197e-12
1.0478e-12
8.61064e-13
6.67697e-13
5.03622e-13
3.60234e-13
2.71575e-13
2.19983e-13
1.77195e-13
1.49697e-13
1.46237e-13
1.27266e-13
1.24718e-13
1.42275e-13
1.40306e-13
1.16836e-13
1.2377e-13
1.61279e-13
1.70945e-13
1.62867e-13
1.41103e-13
9.28639e-14
5.0349e-14
2.92167e-14
2.27229e-14
2.25262e-14
3.93002e-14
4.95466e-13
3.28599e-12
4.34369e-12
4.14193e-12
6.05934e-12
1.79114e-11
2.96076e-10
6.24257e-10
2.75224e-10
4.47704e-10
5.04172e-09
2.68814e-07
3.26289e-06
1.62615e-05
1.68992e-05
3.22525e-05
3.13503e-05
3.15642e-05
5.23188e-05
0.000164881
0.000380892
0.000492835
0.000446635
0.000280779
0.000151595
7.23682e-05
2.13159e-05
1.09548e-05
4.16885e-06
2.06864e-07
6.38416e-10
3.07398e-07
7.47523e-05
0.000832723
0.0016485
0.000976454
0.000116314
2.17712e-13
3.1932e-13
6.61397e-13
9.89641e-13
3.94088e-12
1.38547e-11
1.34941e-11
7.86764e-12
5.45878e-12
6.10433e-12
1.71308e-11
1.64372e-11
1.61346e-11
1.60676e-11
1.6206e-11
1.66451e-11
1.76049e-11
1.927e-11
2.14432e-11
2.44463e-11
2.89459e-11
3.39598e-11
3.69903e-11
3.95309e-11
4.11645e-11
4.23547e-11
4.27006e-11
4.2703e-11
4.31255e-11
4.36467e-11
4.22512e-11
4.04297e-11
3.94995e-11
4.0203e-11
3.95316e-11
3.85379e-11
3.61e-11
3.15454e-11
2.70471e-11
2.72914e-11
2.85303e-11
3.23497e-11
3.6304e-11
4.02963e-11
4.33119e-11
4.55179e-11
4.62557e-11
4.62737e-11
4.55359e-11
4.41611e-11
4.28665e-11
4.10479e-11
3.89897e-11
3.69242e-11
3.35732e-11
3.27683e-11
3.27683e-11
3.49534e-11
3.61418e-11
3.89191e-11
4.0971e-11
4.15383e-11
3.54933e-11
2.31915e-11
1.20049e-11
4.64209e-12
1.16954e-12
5.83299e-13
5.6849e-13
5.21898e-13
4.45184e-13
3.20326e-13
1.93055e-13
1.12421e-13
7.16152e-14
5.25353e-14
4.48247e-14
3.95898e-14
3.40427e-14
2.89501e-14
2.83487e-14
2.52148e-14
2.45628e-14
2.88331e-14
2.97163e-14
2.71143e-14
2.80145e-14
3.532e-14
4.26893e-14
4.77033e-14
4.60214e-14
3.17254e-14
1.49265e-14
6.6838e-15
4.10897e-15
3.91374e-15
7.87966e-15
1.16078e-13
5.60827e-13
7.09564e-13
7.18181e-13
1.23719e-12
3.8947e-12
1.12798e-10
7.33108e-11
3.52572e-11
2.1992e-10
5.44832e-09
3.9885e-07
3.97758e-06
3.89327e-05
4.03463e-05
3.45309e-05
1.88544e-05
8.42995e-06
7.47598e-06
8.66119e-06
9.87499e-06
9.19306e-06
8.39172e-06
1.39452e-05
3.69784e-05
4.9423e-05
2.75639e-05
3.85512e-06
3.68086e-08
2.76224e-13
9.47004e-14
1.98483e-08
2.19768e-05
0.000371135
0.000502164
0.000106535
1.47945e-14
1.47945e-14
2.82671e-14
7.9106e-14
3.53891e-13
2.98318e-12
6.27882e-12
3.96098e-12
1.10379e-12
5.69651e-13
6.05207e-13
2.54442e-11
2.43438e-11
2.38238e-11
2.40895e-11
2.49285e-11
2.66777e-11
2.94279e-11
3.2775e-11
3.62472e-11
3.92608e-11
4.09355e-11
4.09915e-11
4.0995e-11
3.96778e-11
3.83027e-11
3.53651e-11
3.23575e-11
2.84221e-11
2.52331e-11
2.34371e-11
2.1353e-11
1.93374e-11
1.64501e-11
1.51248e-11
1.37111e-11
1.38394e-11
1.13476e-11
8.67046e-12
6.37627e-12
6.48514e-12
7.10474e-12
9.56933e-12
1.3113e-11
1.78114e-11
2.26452e-11
2.83203e-11
3.34073e-11
3.85058e-11
4.17543e-11
4.3392e-11
4.34158e-11
4.32685e-11
4.19072e-11
4.05712e-11
3.92622e-11
3.78902e-11
3.72352e-11
3.73616e-11
3.75799e-11
3.81897e-11
3.68809e-11
3.01356e-11
1.92412e-11
9.74278e-12
4.08132e-12
1.33649e-12
5.85663e-13
3.08543e-13
2.0179e-13
1.18967e-13
5.6386e-14
2.40039e-14
1.76745e-14
1.45442e-14
1.20107e-14
9.84507e-15
8.47777e-15
7.5288e-15
6.55852e-15
5.45643e-15
5.19735e-15
4.6633e-15
4.61737e-15
5.45863e-15
5.96469e-15
5.66571e-15
5.76367e-15
7.10672e-15
9.2168e-15
1.07074e-14
1.01942e-14
7.57276e-15
3.92611e-15
1.62084e-15
7.11989e-16
6.37781e-16
1.30644e-15
1.38367e-14
5.84434e-14
7.20604e-14
7.24836e-14
1.20489e-13
3.42313e-13
5.82026e-12
3.9777e-12
7.27905e-12
3.03919e-11
9.74418e-10
1.80581e-07
8.0344e-07
6.56329e-06
2.63295e-05
1.14989e-05
3.50793e-06
1.10763e-06
1.48985e-06
2.63446e-06
3.09304e-06
2.36158e-06
3.6966e-06
1.22711e-05
2.68519e-05
2.1047e-05
4.43524e-06
3.30915e-13
3.30915e-13
4.33393e-13
9.51455e-14
1.72853e-14
3.78761e-06
0.000101893
6.51198e-05
2.61528e-11
1.47945e-14
1.48088e-14
1.78711e-14
2.18318e-14
1.32634e-13
1.3094e-12
8.61004e-13
1.65394e-13
6.47958e-14
4.15393e-14
4.12602e-14
3.37254e-11
3.37876e-11
3.38356e-11
3.40355e-11
3.45721e-11
3.56372e-11
3.70222e-11
3.83868e-11
3.88381e-11
3.96794e-11
3.91003e-11
3.66988e-11
3.29197e-11
2.72708e-11
2.23523e-11
1.72861e-11
1.39639e-11
1.07642e-11
8.79189e-12
7.97122e-12
7.16356e-12
6.45581e-12
5.24599e-12
4.67038e-12
4.08865e-12
3.73058e-12
3.22311e-12
2.53681e-12
1.80072e-12
1.76215e-12
1.89503e-12
2.6098e-12
3.70722e-12
5.49308e-12
7.68447e-12
1.10051e-11
1.49284e-11
2.01983e-11
2.56825e-11
3.07525e-11
3.53457e-11
3.77286e-11
3.92844e-11
3.9236e-11
3.84075e-11
3.7333e-11
3.63584e-11
3.53654e-11
3.37733e-11
3.01262e-11
2.36806e-11
1.51042e-11
7.37198e-12
3.01978e-12
1.21688e-12
6.22275e-13
3.00497e-13
8.58431e-14
1.37472e-14
4.97378e-15
4.35964e-15
3.77248e-15
3.16369e-15
2.56414e-15
2.11762e-15
1.76865e-15
1.57683e-15
1.42292e-15
1.25129e-15
1.01903e-15
9.17073e-16
8.15754e-16
8.28157e-16
9.97655e-16
1.13288e-15
1.11217e-15
1.15153e-15
1.46389e-15
1.98992e-15
2.34548e-15
2.2283e-15
1.7247e-15
9.32361e-16
3.65502e-16
1.0767e-16
8.15119e-17
1.50606e-16
1.31004e-15
4.5294e-15
5.37409e-15
5.45063e-15
8.9712e-15
2.4099e-14
1.91133e-13
1.68134e-13
3.77678e-12
9.15531e-12
2.0931e-10
1.02119e-08
3.09145e-08
9.7753e-08
7.80823e-07
5.09645e-07
1.53374e-07
2.30144e-07
5.22025e-07
9.80744e-07
9.35963e-07
6.80256e-07
4.32672e-06
7.07855e-06
6.01365e-06
1.64433e-06
1.26238e-09
3.30915e-13
4.86522e-13
5.31959e-13
7.37514e-14
1.62416e-14
9.47972e-10
1.60619e-08
1.9919e-13
9.55577e-14
1.5451e-14
9.42211e-15
5.02786e-15
2.11169e-15
2.69595e-14
1.19865e-13
1.88419e-14
1.10405e-14
5.95576e-15
2.85467e-15
1.90495e-15
3.31613e-11
3.33412e-11
3.34469e-11
3.3494e-11
3.35706e-11
3.37892e-11
3.38558e-11
3.36447e-11
3.14287e-11
2.93837e-11
2.54388e-11
1.99508e-11
1.4929e-11
9.67581e-12
6.49972e-12
3.98493e-12
2.91651e-12
2.11764e-12
1.73849e-12
1.68035e-12
1.63106e-12
1.58128e-12
1.33785e-12
1.19537e-12
1.04685e-12
9.75596e-13
8.43596e-13
7.00416e-13
5.14716e-13
4.63059e-13
4.69152e-13
6.31176e-13
8.90232e-13
1.30299e-12
1.82614e-12
2.76254e-12
4.16699e-12
6.69279e-12
1.02356e-11
1.44581e-11
1.93334e-11
2.36937e-11
2.72673e-11
2.93544e-11
3.00774e-11
2.94758e-11
2.79611e-11
2.5395e-11
2.16118e-11
1.64066e-11
1.0452e-11
5.15103e-12
1.92102e-12
8.84924e-13
4.93287e-13
2.71199e-13
7.33674e-14
1.69366e-15
1.05016e-15
8.49904e-16
7.53173e-16
6.53292e-16
5.4706e-16
4.39124e-16
3.66011e-16
3.16542e-16
3.00925e-16
2.76987e-16
2.42238e-16
1.90506e-16
1.60171e-16
1.3833e-16
1.44774e-16
1.8221e-16
2.10154e-16
2.11697e-16
2.27243e-16
3.0149e-16
4.15492e-16
4.92993e-16
4.67051e-16
3.70292e-16
2.02891e-16
7.55099e-17
1.44648e-17
7.32015e-18
1.21825e-17
9.19688e-17
2.78014e-16
3.28777e-16
3.46645e-16
5.33772e-16
1.59808e-15
9.19925e-15
1.91951e-14
2.02839e-12
3.74968e-12
1.36378e-10
1.5204e-09
4.05739e-09
1.37952e-08
3.79142e-08
2.90577e-08
2.09186e-08
7.24348e-08
1.85136e-07
2.05713e-07
1.47955e-07
1.46016e-07
2.17834e-06
2.60597e-06
5.82752e-07
3.43097e-13
3.45779e-13
4.35338e-13
6.97301e-13
4.53461e-13
4.65866e-14
1.54745e-14
6.71646e-15
1.28403e-14
1.1305e-13
2.0979e-13
1.94722e-14
1.83941e-15
3.07457e-16
3.52065e-16
5.81285e-16
1.00261e-15
8.73204e-16
5.78981e-16
3.06954e-16
1.27651e-16
9.60898e-17
2.24262e-11
2.32118e-11
2.36046e-11
2.34628e-11
2.26625e-11
2.14441e-11
1.96749e-11
1.77985e-11
1.39841e-11
1.12411e-11
8.1508e-12
4.67556e-12
2.55234e-12
1.20704e-12
8.54196e-13
7.00007e-13
6.53822e-13
5.91856e-13
5.2197e-13
4.96747e-13
4.9201e-13
4.9685e-13
4.29995e-13
3.77876e-13
3.26582e-13
3.14295e-13
2.84727e-13
2.59862e-13
2.03553e-13
1.65199e-13
1.46794e-13
1.85125e-13
2.47907e-13
3.385e-13
4.32824e-13
5.99019e-13
8.50978e-13
1.34305e-12
2.22336e-12
3.60222e-12
5.92153e-12
8.62619e-12
1.14929e-11
1.37485e-11
1.50521e-11
1.51608e-11
1.41193e-11
1.20785e-11
9.19445e-12
5.88982e-12
2.95292e-12
1.10939e-12
5.13194e-13
2.77455e-13
1.44443e-13
3.68455e-14
5.2186e-16
2.42763e-16
1.6824e-16
1.37719e-16
1.2521e-16
1.09731e-16
9.15626e-17
7.26682e-17
6.16759e-17
5.69459e-17
5.90199e-17
5.54457e-17
4.74763e-17
3.53329e-17
2.73469e-17
2.27938e-17
2.46575e-17
3.33223e-17
3.93318e-17
3.93669e-17
4.28762e-17
5.79614e-17
7.90223e-17
9.30652e-17
8.79155e-17
7.0388e-17
3.86292e-17
1.38602e-17
1.95917e-18
4.29673e-19
7.2015e-19
5.18723e-18
1.43683e-17
1.71583e-17
1.91686e-17
2.66496e-17
1.11997e-16
7.98858e-16
3.86386e-15
4.14132e-13
8.24065e-13
1.39761e-10