/*--------------------------------*- C++ -*----------------------------------*\
| =========                 |                                                 |
| \\      /  F ield         | OpenFOAM: The Open Source CFD Toolbox           |
|  \\    /   O peration     | Version:  v1912                                 |
|   \\  /    A nd           | Website:  www.openfoam.com                      |
|    \\/     M anipulation  |                                                 |
\*---------------------------------------------------------------------------*/
FoamFile
{
    version     2.0;
    format      ascii;
    class       surfaceScalarField;
    location    "80";
    object      phi;
}
// * * * * * * * * * * * * * * * * * * * * * * * * * * * * * * * * * * * * * //

dimensions      [0 3 -1 0 0 0 0];
oriented        oriented;


internalField   nonuniform List<scalar> 
28285
(
0.000993268
0.000178607
0.000948255
4.50135e-05
0.000972899
-2.46437e-05
0.00100019
-2.72888e-05
0.00100998
-9.78898e-06
0.00102385
-1.38728e-05
0.00103476
-1.09117e-05
0.00104235
-7.58864e-06
0.00105442
-1.20694e-05
0.000997507
5.69123e-05
0.000800727
0.00019678
0.000532757
0.00026797
0.00023866
0.000294097
-6.4046e-05
0.000302707
-5.46236e-05
-9.4224e-06
0.000172526
-0.000227149
0.000217677
-4.51519e-05
6.24034e-05
0.000155274
-0.000158917
0.000221321
-0.000236712
7.77948e-05
-0.000265833
2.91202e-05
-0.000288
2.21672e-05
-0.000192304
-9.56958e-05
1.00644e-05
-0.000202368
7.58149e-05
-6.57507e-05
4.29511e-05
3.28639e-05
0.000173042
-0.000130091
0.000430342
-0.0002573
0.000703559
-0.000273217
0.000814015
-0.000110457
0.000772367
4.16486e-05
0.000548932
0.000223434
0.000267791
0.000281141
0.000170824
9.69675e-05
0.000247029
-7.62044e-05
0.000475665
-0.000228636
0.000853217
-0.000377553
0.00126383
-0.000410614
0.00150508
-0.000241246
0.00153646
-3.13779e-05
0.00137354
0.00016292
0.00105892
0.000314611
0.000880008
0.000178917
0.000947429
-6.74212e-05
0.00107868
-0.000131255
0.00111459
-3.5905e-05
0.000992097
0.000122492
0.000234779
0.000757318
-0.000721914
0.000956694
-0.000948613
0.000226699
-0.000782547
-0.000166066
-0.000623655
-0.000158892
-0.000552138
-7.15171e-05
-0.000427486
-0.000124652
-0.000306376
-0.00012111
-0.000197685
-0.000108691
-1.34276e-05
-0.000184258
0.000191444
-0.000204872
0.000317409
-0.000125965
0.000369911
-5.25016e-05
0.000350275
1.96355e-05
0.000288631
6.16443e-05
0.000211372
7.72593e-05
0.000162954
4.84182e-05
0.000148695
1.42586e-05
0.000156471
-7.7757e-06
0.000171998
-1.55275e-05
0.000167875
4.12375e-06
0.000133779
3.40959e-05
9.38452e-05
3.99334e-05
4.93829e-05
4.44622e-05
-2.14462e-05
7.08291e-05
-0.000110678
8.92322e-05
-0.000172141
6.14622e-05
-0.000185228
1.30869e-05
-0.000164439
-2.07884e-05
-0.000123951
-4.0488e-05
-7.22045e-05
-5.17467e-05
-1.39694e-05
-5.82351e-05
4.50642e-05
-5.90336e-05
0.000106872
-6.18078e-05
0.000173116
-6.62442e-05
0.00023755
-6.44333e-05
0.000287897
-5.03479e-05
0.000316418
-2.85204e-05
0.000334484
-1.80659e-05
0.00034552
-1.10363e-05
0.000338341
7.17936e-06
0.000308559
2.97818e-05
0.000281513
2.70453e-05
0.000277096
4.41765e-06
0.000291383
-1.42868e-05
0.000332149
-4.07667e-05
0.000410286
-7.81364e-05
0.000453408
-4.31224e-05
0.000423627
2.97807e-05
0.000450102
-2.64751e-05
0.000557111
-0.000107008
0.000605367
-4.82555e-05
0.000573332
3.20342e-05
0.000560139
1.31927e-05
0.000531969
2.81698e-05
0.000512708
1.92612e-05
0.000546079
-3.33705e-05
0.000588024
-4.19457e-05
0.000628352
-4.03274e-05
0.000672091
-4.37389e-05
0.000669221
2.8696e-06
0.000631442
3.77793e-05
0.000588404
4.30378e-05
0.000572506
1.58985e-05
0.000707535
-0.00013503
0.00083036
-0.000122825
0.000755828
7.45321e-05
0.000595378
0.00016045
0.000504669
9.07087e-05
0.000472693
3.19769e-05
0.000498411
-2.57192e-05
0.000529773
-3.13613e-05
0.000603591
-7.38178e-05
0.000708861
-0.000105271
0.000911354
-0.000202492
0.00108816
-0.000176809
0.00123907
-0.000150907
0.00127026
-3.11892e-05
0.00134563
-7.53697e-05
0.00141032
-6.46913e-05
0.0014903
-7.9974e-05
0.00148941
8.80909e-07
0.00140368
8.57319e-05
0.00112774
0.000275939
0.000810717
0.000317027
0.000698041
0.000112676
0.000732046
-3.40062e-05
0.000811251
-7.92031e-05
0.000886489
-7.5239e-05
0.000909049
-2.25598e-05
0.000890911
1.81378e-05
0.000847288
4.36234e-05
0.00078625
6.10372e-05
0.000732639
5.36111e-05
0.000694288
3.8352e-05
0.000662725
3.15617e-05
0.00063394
2.87862e-05
0.000606326
2.76132e-05
0.000580363
2.59637e-05
0.000555604
2.47586e-05
0.000532831
2.27734e-05
0.000510201
2.26292e-05
2.08945e-05
0.000489307
0.00146253
0.000198882
0.00148359
2.39533e-05
0.00149468
-3.57348e-05
0.00148096
-1.35696e-05
0.00144789
2.32738e-05
0.00140564
2.83819e-05
0.00134352
5.12107e-05
0.00127384
6.20878e-05
0.00122529
3.64794e-05
0.001136
0.000146204
0.000923284
0.000409496
0.000623594
0.00056766
0.000267344
0.000650347
-5.5534e-05
0.000625584
-3.53049e-05
-2.96515e-05
0.000255456
-0.000517909
0.000415292
-0.000204988
0.00030353
0.000267035
1.90208e-05
0.000505831
-8.71133e-05
0.000183929
-0.000116677
5.86838e-05
-0.000139742
4.52318e-05
-7.82768e-05
-0.000157161
6.38653e-05
-0.000344511
0.000127977
-0.000129862
6.6222e-05
9.46185e-05
0.000137907
-0.000201776
0.000361961
-0.000481354
0.00063701
-0.000548264
0.000767595
-0.000241043
0.000738404
7.08402e-05
0.000543824
0.000418014
0.000285841
0.000539124
0.000200491
0.000182319
0.000271843
-0.000147557
0.000488867
-0.00044566
0.000835249
-0.000723934
0.00120831
-0.000783679
0.00140014
-0.000433072
0.00141328
-4.45171e-05
0.00129992
0.000276282
0.00105671
0.00055782
0.000925376
0.000310248
0.00102362
-0.000165662
0.00114268
-0.000250316
0.00113422
-2.74517e-05
0.00099379
0.000262926
0.000313107
0.001438
-0.000584237
0.00185404
-0.000849081
0.000491543
-0.000700212
-0.000314935
-0.000537831
-0.000321274
-0.000411424
-0.000197923
-0.000270163
-0.000265914
-3.95971e-05
-0.000351676
0.000210877
-0.000359165
0.000399995
-0.000373375
0.000622512
-0.000427389
0.000844827
-0.00034828
0.00101476
-0.00022243
0.00110351
-6.91197e-05
0.00112179
4.33689e-05
0.00110659
9.24598e-05
0.00109414
6.08611e-05
0.00108103
2.73733e-05
0.00104516
2.80928e-05
0.000988447
4.11848e-05
0.000926107
6.64639e-05
0.000884425
7.57775e-05
0.000873585
5.07734e-05
0.000874729
4.33188e-05
0.000891553
5.40045e-05
0.000936081
4.4705e-05
0.000959394
3.81486e-05
0.000910703
6.17784e-05
0.000787901
0.000102013
0.000674159
7.32542e-05
0.00063694
-1.45274e-05
0.000650128
-7.14235e-05
0.000684933
-9.38379e-05
0.000732109
-0.000108984
0.000784354
-0.000118489
0.000836886
-0.000116966
0.000878199
-9.16602e-05
0.000908435
-5.8757e-05
0.000939317
-4.89473e-05
0.000972845
-4.45643e-05
0.00098565
-5.62629e-06
0.000956236
5.91961e-05
0.000865284
0.000117997
0.000757091
0.000112611
0.000715843
2.69614e-05
0.000716944
-4.18679e-05
0.000720629
-8.18216e-05
0.000677318
1.88831e-07
0.000553868
0.00015323
0.000512779
1.46145e-05
0.000596207
-0.000190436
0.000650083
-0.000102132
0.000650292
3.18256e-05
0.000681991
-1.85064e-05
0.000766255
-5.60948e-05
0.000858287
-7.27707e-05
0.000900355
-7.54386e-05
0.000858978
-5.68578e-07
0.000787426
3.12249e-05
0.000775377
-3.16894e-05
0.000803926
-2.56796e-05
0.000824041
1.76644e-05
0.000778167
8.89108e-05
0.000696182
9.78843e-05
0.000765067
-0.000203916
0.000895388
-0.000253145
0.000898337
7.15821e-05
0.000790243
0.000268544
0.000692488
0.000188463
0.000624755
9.97107e-05
0.0006094
-1.03649e-05
0.000613168
-3.51291e-05
0.000653665
-0.000114314
0.000744445
-0.000196052
0.000925382
-0.000383428
0.00111006
-0.000361489
0.00125492
-0.00029577
0.00129354
-6.98e-05
0.00133843
-0.000120265
0.00138545
-0.000111708
0.00143907
-0.000133601
0.00143967
2.85308e-07
0.00136816
0.000157238
0.00112896
0.00051514
0.0008769
0.000569088
0.000817343
0.000172234
0.000861984
-7.8647e-05
0.000916051
-0.00013327
0.000945589
-0.000104777
0.000939007
-1.59778e-05
0.000906576
5.05699e-05
0.000848023
0.000102175
0.000782295
0.000126766
0.000731038
0.000104867
0.000693543
7.58484e-05
0.000662191
6.29126e-05
0.000633445
5.75329e-05
0.000605847
5.52104e-05
0.000579882
5.19298e-05
0.000555138
4.95018e-05
0.000532357
4.55552e-05
0.000509748
4.52378e-05
4.17989e-05
0.000488844
0.00168989
0.000208732
0.00162408
8.97648e-05
0.0014887
9.96511e-05
0.00134213
0.000133
0.00125284
0.000112563
0.0012004
8.08234e-05
0.00114959
0.000102012
0.00111391
9.77735e-05
0.00110215
4.82407e-05
0.00104554
0.000202815
0.00085283
0.000602203
0.000576237
0.000844254
0.000261487
0.000965097
-2.66441e-05
0.000913715
-3.52388e-05
-2.10568e-05
0.000184982
-0.000738132
0.000373946
-0.000393952
0.000273198
0.000367784
-4.77536e-05
0.000826781
-0.000174401
0.000310576
-0.000221123
0.000105406
-0.000236521
6.06291e-05
-0.000153125
-0.000240556
-9.75726e-06
-0.000487878
4.62502e-05
-0.00018587
1.31873e-05
0.000127681
0.000140024
-0.000328613
0.000400397
-0.000741728
0.000681161
-0.000829031
0.000809082
-0.000368966
0.000758932
0.000120991
0.000517224
0.000659723
0.000233348
0.000822999
0.000175922
0.000239745
0.000274178
-0.000245813
0.000502662
-0.000674144
0.000861988
-0.00108326
0.00125651
-0.0011782
0.00148375
-0.000660305
0.00150568
-6.64505e-05
0.00137303
0.000408931
0.00109115
0.000839703
0.00091011
0.000491284
0.000976806
-0.000232358
0.00111437
-0.000387881
0.00113757
-5.0646e-05
0.00100908
0.000391408
0.00056149
0.00188559
-0.000263616
0.00267914
-0.000811133
0.00103906
-0.000754483
-0.000371585
-0.000427975
-0.000647781
-0.000149965
-0.000475933
9.5421e-05
-0.000511299
0.000315502
-0.000571757
0.000430775
-0.000474437
0.00056303
-0.000505631
0.000737168
-0.000601527
0.000921721
-0.000532833
0.00110601
-0.000406721
0.00127723
-0.00024034
0.001362
-4.14001e-05
0.00135301
0.00010145
0.00131163
0.00010224
0.00125016
8.88442e-05
0.00116415
0.000114101
0.00107779
0.000127545
0.00102915
0.000115109
0.00101951
8.54142e-05
0.00102568
4.46027e-05
0.00101623
5.27656e-05
0.00100031
6.9925e-05
0.00102228
2.27408e-05
0.00105883
1.60082e-06
0.00104952
7.10849e-05
0.000958294
0.000193238
0.000822485
0.000209063
0.000743996
6.39618e-05
0.000735866
-6.32934e-05
0.000756533
-0.000114505
0.000796241
-0.000148692
0.000847669
-0.000169917
0.000903559
-0.000172856
0.000954693
-0.000142794
0.000988614
-9.26782e-05
0.000999628
-5.99606e-05
0.000996785
-4.17217e-05
0.000993364
-2.20481e-06
0.000989116
6.34441e-05
0.000987727
0.000119386
0.00100291
9.74313e-05
0.00100961
2.02534e-05
0.00097418
-6.43301e-06
0.000867787
2.45709e-05
0.000664508
0.000203468
0.00048141
0.000336329
0.000474027
2.1997e-05
0.00056939
-0.000285799
0.000622383
-0.000155126
0.000612301
4.1908e-05
0.000625536
-3.17418e-05
0.000729703
-0.000160261
0.00087061
-0.000213678
0.000910066
-0.000114894
0.000816261
9.3236e-05
0.000719826
0.00012766
0.00071875
-3.06129e-05
0.00077856
-8.54907e-05
0.00082528
-2.90551e-05
0.000764236
0.000149955
0.000671398
0.000190723
0.000743399
-0.000275917
0.000892004
-0.000401749
0.000913414
5.01716e-05
0.000788797
0.000393161
0.000638622
0.000338638
0.000551431
0.000186902
0.000545989
-4.92336e-06
0.000569644
-5.87848e-05
0.000625395
-0.000170064
0.000734373
-0.000305032
0.000919421
-0.000568476
0.00110731
-0.000549376
0.00124072
-0.000429182
0.00128854
-0.000117622
0.00133989
-0.000171612
0.00140652
-0.000178333
0.00146845
-0.000195536
0.00147007
-1.33392e-06
0.00139426
0.000233045
0.00117682
0.000732583
0.00098502
0.000760887
0.0009545
0.000202754
0.000971778
-9.59252e-05
0.000978036
-0.000139528
0.000975082
-0.000101823
0.000956373
2.73098e-06
0.00091071
9.62333e-05
0.000842958
0.000169926
0.000777224
0.000192502
0.000729205
0.000152885
0.000692711
0.000112343
0.000661613
9.40088e-05
0.000632933
8.62139e-05
0.000605354
8.27891e-05
0.000579409
7.78757e-05
0.000554675
7.42345e-05
0.000531916
6.83156e-05
0.000509313
6.78401e-05
6.26816e-05
0.00048843
0.00175101
0.000205868
0.00167434
0.000166436
0.00154966
0.00022433
0.0014399
0.000242757
0.00137579
0.000176674
0.00133125
0.000125363
0.00127452
0.000158737
0.00121508
0.000157213
0.00117258
9.07462e-05
0.00109791
0.000277484
0.000919731
0.000780381
0.000634014
0.00112997
0.000290846
0.00130827
-2.75922e-05
0.00123215
-1.5502e-05
-3.31471e-05
0.00020214
-0.000955773
0.000362515
-0.000554322
0.000303995
0.000426303
1.20195e-05
0.00111876
-0.000101197
0.000423793
-0.000143927
0.000148136
-0.000157038
7.37393e-05
-8.8844e-05
-0.00030875
2.74482e-05
-0.000604172
6.34043e-05
-0.000221825
1.91297e-05
0.000171955
0.00012997
-0.000439453
0.000363646
-0.000975404
0.00064233
-0.00110771
0.000778611
-0.000505245
0.000731647
0.000167954
0.00050162
0.00088975
0.000249036
0.00107558
0.000197748
0.000291033
0.000276385
-0.00032445
0.000489554
-0.000887313
0.000837168
-0.00143087
0.00120996
-0.001551
0.00140941
-0.000859751
0.00142842
-8.54676e-05
0.00132572
0.000511633
0.00107043
0.001095
0.000896751
0.000664964
0.000936003
-0.00027161
0.00106309
-0.000514966
0.00110869
-9.62517e-05
0.00100631
0.000493795
0.000723697
0.0021682
0.00014486
0.00325798
-0.000516723
0.00170064
-0.000721795
-0.000166514
-0.000259499
-0.00111008
7.78349e-05
-0.000813268
0.000213481
-0.000646945
0.00045508
-0.000813356
0.000602471
-0.000621829
0.000726504
-0.000629663
0.000847889
-0.000722912
0.000963327
-0.00064827
0.00109059
-0.000533989
0.00123199
-0.000381733
0.0013138
-0.000123214
0.00131463
0.000100617
0.00128056
0.000136319
0.00122898
0.000140415
0.00115584
0.000187245
0.00107384
0.000209549
0.00101868
0.000170263
0.00100618
9.79141e-05
0.00102661
2.41752e-05
0.0010591
2.02728e-05
0.00107793
5.10969e-05
0.001083
1.76749e-05
0.00108217
2.42507e-06
0.00104201
0.000111244
0.000886209
0.000349043
0.000697373
0.000397899
0.000628711
0.000132624
0.000653323
-8.79054e-05
0.000713558
-0.00017474
0.000782414
-0.000217548
0.000837208
-0.000224711
0.00087495
-0.000210598
0.000899448
-0.000167291
0.000920228
-0.000113459
0.000948365
-8.80974e-05
0.000988954
-8.23106e-05
0.00102258
-3.58352e-05
0.00103523
5.07979e-05
0.00103893
0.000115682
0.00105299
8.33726e-05
0.00105934
1.39052e-05
0.00102966
2.32453e-05
0.000931207
0.000123027
0.000737801
0.000396874
0.000546756
0.000527374
0.000515104
5.3649e-05
0.000599909
-0.000370604
0.000648458
-0.000203675
0.000640338
5.00285e-05
0.000654578
-4.59825e-05
0.000740965
-0.000246648
0.000863933
-0.000336645
0.00091094
-0.000161902
0.000842224
0.000161952
0.000754822
0.000215062
0.00073705
-1.28406e-05
0.000778017
-0.000126457
0.000819025
-7.00633e-05
0.000771595
0.000197384
0.000688671
0.000273648
0.000754398
-0.000341645
0.000896182
-0.000543533
0.000914869
3.14847e-05
0.000806904
0.000501126
0.000688465
0.000457076
0.000612229
0.000263139
0.000592281
1.50243e-05
0.000606681
-7.31845e-05
0.000650908
-0.00021429
0.000749932
-0.000404057
0.000924515
-0.000743057
0.00111025
-0.000735109
0.00124064
-0.000559576
0.00128757
-0.000164549
0.00133063
-0.000214669
0.0013914
-0.000239103
0.00144557
-0.000249704
0.0014476
-3.37268e-06
0.00138722
0.00029343
0.00122795
0.000891851
0.00109453
0.000894306
0.00105696
0.000240323
0.00103199
-7.09499e-05
0.0010051
-0.000112636
0.000980988
-7.77135e-05
0.000949568
3.41502e-05
0.000899241
0.000146561
0.000833425
0.000235741
0.000772592
0.000253335
0.000727508
0.000197968
0.000691918
0.000147935
0.000661075
0.000124851
0.000632467
0.000114822
0.000604917
0.000110338
0.000578993
0.0001038
0.000554281
9.89459e-05
0.00053154
9.10573e-05
0.000508955
9.04249e-05
8.35477e-05
0.000488089
0.00173969
0.000209248
0.00165981
0.000246317
0.00151829
0.000365854
0.00138321
0.000377841
0.00130364
0.000256241
0.00125321
0.000175792
0.001199
0.000212946
0.00115231
0.000203909
0.00112304
0.000120012
0.00105686
0.00034366
0.000898793
0.000938453
0.000656594
0.00137217
0.000314832
0.00165003
-2.00711e-05
0.00156706
-2.87513e-05
-2.44668e-05
0.00018033
-0.00116486
0.000365294
-0.000739294
0.000293127
0.000498471
-1.91327e-05
0.00143102
-0.00014383
0.000548491
-0.000179173
0.000183479
-0.000182828
7.73944e-05
-9.13348e-05
-0.000400243
3.42405e-05
-0.000729747
7.17086e-05
-0.000259293
3.38861e-05
0.000209777
0.000134777
-0.000540344
0.000378743
-0.00121937
0.000660138
-0.00138911
0.000789499
-0.000634608
0.000753059
0.000204395
0.00055039
0.00109242
0.000292079
0.0013339
0.00019667
0.000386442
0.000278084
-0.000405863
0.000510385
-0.00111961
0.000867803
-0.00178829
0.00125201
-0.0019352
0.00146454
-0.00107229
0.00148378
-0.000104705
0.00136594
0.000629475
0.00109024
0.00137069
0.000903385
0.00085182
0.000932836
-0.000301061
0.0010273
-0.00060943
0.00105066
-0.000119608
0.000970584
0.00057387
0.000848949
0.00228984
0.000540008
0.00356692
-0.000192757
0.00243341
-0.000651001
0.00029173
-0.000159536
-0.00160154
0.000176642
-0.00114945
0.00022247
-0.000692774
0.000479135
-0.00107002
0.000642721
-0.000785415
0.00077857
-0.000765513
0.000895433
-0.000839775
0.00100151
-0.000754348
0.00111729
-0.000649765
0.00125665
-0.000521099
0.00134947
-0.000216026
0.00135221
9.78755e-05
0.00131158
0.000176949
0.00125087
0.000201123
0.00117047
0.000267643
0.0010868
0.000293218
0.00103317
0.000223899
0.00101938
0.000111696
0.00103125
1.23078e-05
0.00105518
-3.65104e-06
0.00108026
2.60173e-05
0.00109659
1.34508e-06
0.00109714
1.86801e-06
0.00106224
0.00014615
0.000937269
0.00047401
0.000814254
0.000520914
0.00080821
0.000138668
0.000875341
-0.000155037
0.000956273
-0.000255672
0.00101491
-0.000276185
0.001052
-0.000261804
0.00108523
-0.000243826
0.00110849
-0.000190547
0.00111167
-0.000116643
0.00108828
-6.47052e-05
0.00103835
-3.23846e-05
0.00100238
1.36224e-07
0.000996621
5.65577e-05
0.00100624
0.000106067
0.00103366
5.59453e-05
0.00104717
3.94491e-07
0.00101969
5.07306e-05
0.000926987
0.000215729
0.000717467
0.000606394
0.000519436
0.000725405
0.000503265
6.982e-05
0.000589105
-0.000456443
0.000634852
-0.000249422
0.000634235
5.06453e-05
0.000662096
-7.38436e-05
0.000759247
-0.000343798
0.000878594
-0.000455993
0.00091611
-0.000199418
0.000839762
0.0002383
0.000752169
0.000302655
0.000741549
-2.21996e-06
0.000785788
-0.000170698
0.000819642
-0.000103916
0.000759907
0.000257119
0.000678698
0.000354857
0.000756496
-0.000419444
0.000910705
-0.000697741
0.000933957
8.23228e-06
0.000813958
0.000621126
0.000662317
0.000608717
0.000567984
0.000357471
0.000554758
2.82501e-05
0.000573385
-9.18117e-05
0.000622449
-0.000263354
0.000731987
-0.000513595
0.00091385
-0.00092492
0.00110638
-0.000927638
0.00124406
-0.000697252
0.0012979
-0.000218393
0.00134159
-0.000258355
0.00140426
-0.00030178
0.00146048
-0.000305918
0.00146359
-6.48467e-06
0.00140568
0.000351337
0.0012875
0.00101003
0.00118031
0.0010015
0.00110739
0.000313236
0.0010442
-7.75851e-06
0.00100217
-7.06035e-05
0.000974036
-4.95791e-05
0.000941382
6.68037e-05
0.000890694
0.00019725
0.000826572
0.000299863
0.000769365
0.000310543
0.000726168
0.000241164
0.000691228
0.000182876
0.000660587
0.000155491
0.000632045
0.000143365
0.000604526
0.000137856
0.000578627
0.0001297
0.000553939
0.000123633
0.000531219
0.000113778
0.000508653
0.000112991
0.000104396
0.000487805
0.00174628
0.000207045
0.00167034
0.000322258
0.00153755
0.000498638
0.00141547
0.00049992
0.00134639
0.000325321
0.00130061
0.000221578
0.00124417
0.000269387
0.00118865
0.000259424
0.00114953
0.000159133
0.00107365
0.000419536
0.000897919
0.00111419
0.000655122
0.00161497
0.000301749
0.0020034
-3.54513e-05
0.00190426
1.16049e-06
-6.10786e-05
0.000236568
-0.00140026
0.000390149
-0.000892867
0.000299471
0.000589146
-1.64683e-05
0.00174696
-0.000113005
0.000645028
-0.000144581
0.000215055
-0.000178315
0.000111128
-8.45745e-05
-0.000493984
5.13027e-05
-0.000865624
8.24064e-05
-0.000290397
2.61293e-05
0.000266054
0.000132299
-0.000646514
0.000387483
-0.00147455
0.000651346
-0.00165297
0.000753535
-0.000736797
0.000710968
0.000246961
0.000569862
0.00123353
0.000335165
0.00156859
0.000205635
0.000515973
0.000276485
-0.000476714
0.00049719
-0.00134032
0.000847771
-0.00213887
0.00122225
-0.00230968
0.00141988
-0.00126992
0.00143531
-0.000120125
0.00133705
0.000727725
0.00108264
0.0016251
0.000906188
0.00102827
0.00093469
-0.000329562
0.00101391
-0.000688656
0.00101735
-0.000123038
0.000934396
0.00065682
0.000875971
0.00234826
0.000728164
0.00371473
0.000121022
0.00304055
-0.000467637
0.000880389
-0.000174032
-0.00189515
0.000135526
-0.001459
0.000196639
-0.000753887
0.000468511
-0.00134189
0.00063472
-0.000951623
0.000774511
-0.000905304
0.000893488
-0.000958752
0.00100152
-0.000862379
0.00111437
-0.000762611
0.00124132
-0.000648054
0.0013258
-0.000300501
0.00133489
8.87776e-05
0.00130582
0.000206017
0.00125278
0.000254168
0.00117403
0.000346389
0.00108889
0.000378361
0.00103539
0.000277399
0.00102404
0.000123044
0.00103984
-3.48844e-06
0.00107052
-3.43283e-05
0.00109728
-7.41729e-07
0.00110688
-8.261e-06
0.00110138
7.37045e-06
0.00107219
0.000175339
0.000991453
0.000554748
0.000941387
0.00057098
0.000969508
0.000110547
0.00101542
-0.000200953
0.00104981
-0.000290057
0.00106899
-0.000295361
0.00108731
-0.000280123
0.00111105
-0.000267575
0.00114065
-0.000220145
0.00116773
-0.000143724
0.00118151
-7.84863e-05
0.00118156
-3.24271e-05
0.00116487
1.68227e-05
0.00111885
0.000102572
0.00108214
0.000142784
0.00107894
5.91379e-05
0.00107326
6.08233e-06
0.00103963
8.43577e-05
0.000946938
0.000308421
0.000756473
0.000796859
0.000573277
0.000908601
0.000550084
9.30132e-05
0.000630541
-0.000536901
0.000671902
-0.000290783
0.000669072
5.34749e-05
0.000695702
-0.000100474
0.000787063
-0.00043516
0.000900349
-0.000569278
0.000927302
-0.000226371
0.000826877
0.000338725
0.000723379
0.000406153
0.000715162
5.99691e-06
0.000768965
-0.000224501
0.000808107
-0.000143058
0.000753339
0.000311887
0.000677647
0.000430549
0.000749949
-0.000491747
0.00091023
-0.000858022
0.000943242
-2.47796e-05
0.000822422
0.000741946
0.000677151
0.000753988
0.000588553
0.00044607
0.000571054
4.57492e-05
0.000588989
-0.000109747
0.000637379
-0.000311744
0.000743553
-0.00061977
0.000921308
-0.00110267
0.00111101
-0.00111735
0.00124488
-0.000831113
0.0012962
-0.00026972
0.00133513
-0.000297278
0.0013943
-0.000360949
0.00144709
-0.00035871
0.00145012
-9.5223e-06
0.00140249
0.000398973
0.00131307
0.00109944
0.00121209
0.00110248
0.00111753
0.0004078
0.00104327
6.64983e-05
0.000998746
-2.60787e-05
0.000969526
-2.03585e-05
0.000935411
0.000100918
0.000883527
0.000249135
0.000821062
0.000362327
0.000766839
0.000364767
0.00072508
0.000282922
0.000690633
0.000217325
0.00066015
0.000185972
0.000631666
0.000171851
0.000604178
0.000165343
0.000578305
0.000155575
0.000553643
0.000148294
0.000530945
0.000136477
0.000508398
0.000135537
0.000125225
0.000487568
0.00174041
0.000205113
0.00166909
0.000393575
0.00153938
0.00062835
0.00141015
0.000629148
0.00132939
0.000406089
0.00127775
0.000273212
0.00122172
0.000325424
0.00117346
0.000307681
0.00114537
0.000187226
0.00107511
0.000489795
0.000904506
0.00128479
0.000663387
0.00185608
0.000335685
0.0023311
0.000115146
0.0021248
0.000151112
-9.70452e-05
0.000263496
-0.00151265
0.000388335
-0.00101771
0.000285899
0.000691584
-3.90135e-05
0.00207187
-0.000116455
0.00072247
-0.000163153
0.000261752
-0.000209815
0.000157791
-9.99151e-05
-0.000603884
8.48967e-05
-0.00105044
0.000122801
-0.000328299
3.75673e-05
0.000351286
0.000142196
-0.000751141
0.000390108
-0.00172247
0.000673017
-0.00193588
0.000780535
-0.000844314
0.000719601
0.000307896
0.000572672
0.00138045
0.000330012
0.00181125
0.000198643
0.000647343
0.000285309
-0.00056338
0.000515628
-0.00157064
0.000868119
-0.00249136
0.00124849
-0.00269005
0.00146371
-0.00148515
0.00147773
-0.000134146
0.00136388
0.000841575
0.00110502
0.00188397
0.000932378
0.00120091
0.000969164
-0.000366349
0.00104213
-0.000761627
0.00104347
-0.000124376
0.000956853
0.000743438
0.000894054
0.00241106
0.000848364
0.00376042
0.000507008
0.00338191
-0.000199636
0.00158703
-0.000129543
-0.00196524
0.000200619
-0.00178916
0.000248408
-0.000801676
0.000517498
-0.00161098
0.000648454
-0.00108258
0.000782181
-0.00103903
0.000903066
-0.00107964
0.00101099
-0.000970304
0.00112387
-0.000875493
0.00124475
-0.000768931
0.00131816
-0.000373908
0.00132521
8.17237e-05
0.0013024
0.000228825
0.00125575
0.000300823
0.00117923
0.000422911
0.00109572
0.000461867
0.00104321
0.000329912
0.0010297
0.000136547
0.00104185
-1.56308e-05
0.00107166
-6.41454e-05
0.00110232
-3.1402e-05
0.00111431
-2.02439e-05
0.00110735
1.43253e-05
0.00108058
0.000202105
0.0010433
0.000592028
0.00103407
0.00058021
0.00105016
9.4464e-05
0.00106446
-0.000215259
0.00107309
-0.000298682
0.00108084
-0.00030311
0.00109366
-0.000292943
0.00111432
-0.000288243
0.00113996
-0.000245776
0.00116516
-0.000168926
0.0011918
-0.000105126
0.00121381
-5.44433e-05
0.00121644
1.41937e-05
0.00119711
0.000121909
0.00115781
0.000182078
0.00111558
0.000101374
0.0010846
3.70639e-05
0.0010468
0.000122153
0.000958419
0.000396802
0.000745493
0.00100979
0.000513128
0.00114097
0.000481115
0.000125027
0.000577249
-0.000633035
0.000620293
-0.000333827
0.000614602
5.91649e-05
0.00064663
-0.000132501
0.000758212
-0.000546741
0.000887444
-0.000698509
0.000914266
-0.000253194
0.000825536
0.000427456
0.000745266
0.000486422
0.000742905
8.35902e-06
0.000785727
-0.000267323
0.000812472
-0.000169803
0.000752755
0.000371603
0.000681743
0.000501562
0.000759438
-0.000569442
0.000915948
-0.00101453
0.000944197
-5.30294e-05
0.000817896
0.000868248
0.000662883
0.000909
0.000577897
0.000531056
0.000573201
5.0445e-05
0.000595211
-0.000131757
0.000637616
-0.000354148
0.000737974
-0.000720128
0.000912516
-0.00127721
0.00109997
-0.0013048
0.00123467
-0.000965808
0.00129454
-0.000329593
0.00134225
-0.000344992
0.00140554
-0.000424238
0.00145868
-0.00041185
0.00146154
-1.23786e-05
0.00141466
0.000445847
0.00133163
0.00118248
0.00122846
0.00120565
0.00112348
0.000512776
0.00104362
0.000146362
0.000996579
2.09638e-05
0.000965931
1.02888e-05
0.000930551
0.000136298
0.00087767
0.000302017
0.000816831
0.000423165
0.000764955
0.000416644
0.000724214
0.000323662
0.000690119
0.000251421
0.000659758
0.000216332
0.000631324
0.000200286
0.000603868
0.000192798
0.00057802
0.000181423
0.000553384
0.000172929
0.000530707
0.000159154
0.000508179
0.000158066
0.000146038
0.000487367
0.00174903
0.000199378
0.00168229
0.000460319
0.00155544
0.0007552
0.00142794
0.00075664
0.00135344
0.000480597
0.00130465
0.000322001
0.00124493
0.000385141
0.00118767
0.000364941
0.00114741
0.000227487
0.00106972
0.000567486
0.000894326
0.00146018
0.000617591
0.00213282
0.000299212
0.00264948
0.0001942
0.00222981
0.000210298
-0.000113143
0.000254474
-0.00155683
0.000411553
-0.0011748
0.000292356
0.000810778
-1.01241e-05
0.00237435
-8.94479e-05
0.000801794
-0.000146395
0.0003187
-0.000143453
0.000154848
-4.01503e-05
-0.000707187
4.35215e-05
-0.00113411
6.61223e-05
-0.000350902
3.62729e-05
0.000381137
0.000134565
-0.000849436
0.000365131
-0.00195303
0.000646591
-0.00221735
0.000786667
-0.000984393
0.000726851
0.000367712
0.000550673
0.00155663
0.000312467
0.00204946
0.000201359
0.00075845
0.000283804
-0.000645825
0.00050804
-0.00179487
0.000857955
-0.00284128
0.00122407
-0.00305617
0.00145658
-0.00171765
0.00149226
-0.000169823
0.00136595
0.00096788
0.00110527
0.00214465
0.00094085
0.00136533
0.000991271
-0.000416769
0.00106614
-0.000836494
0.00105252
-0.000110761
0.00095474
0.000841222
0.000889254
0.00247655
0.000873796
0.00377588
0.000650778
0.00360492
-9.3444e-05
0.00233125
-0.000111819
-0.00194687
0.00037008
-0.00227106
0.000484665
-0.000916261
0.000667182
-0.0017935
0.00073141
-0.00114681
0.000812439
-0.00112006
0.000910815
-0.00117801
0.00101655
-0.00107604
0.00112936
-0.000988297
0.00124942
-0.000888988
0.00132086
-0.000445355
0.00132403
7.85538e-05
0.0012995
0.000253353
0.00125703
0.000343297
0.0011894
0.000490542
0.00110631
0.000544955
0.0010472
0.000389027
0.00103129
0.00015245
0.0010446
-2.89327e-05
0.00107694
-9.64931e-05
0.00110826
-6.27154e-05
0.00111862
-3.06015e-05
0.00111051
2.24276e-05
0.00108545
0.000227168
0.00106486
0.000612623
0.00106615
0.000578911
0.001073
8.76175e-05
0.00107868
-0.00022094
0.00108317
-0.000303173
0.00108883
-0.000308769
0.00110052
-0.000304631
0.00112125
-0.00030897
0.00114897
-0.000273498
0.0011763
-0.000196261
0.00120024
-0.000129059
0.00122004
-7.42441e-05
0.00122971
4.52284e-06
0.00122936
0.000122255
0.00121763
0.00019381
0.00118618
0.000132827
0.00113397
8.92729e-05
0.00107039
0.000185728
0.000971035
0.00049616
0.000749892
0.00123093
0.000553409
0.00133745
0.000558616
0.000119819
0.000642994
-0.000717414
0.000673894
-0.000364726
0.000659039
7.40199e-05
0.000679653
-0.000153116
0.000779971
-0.000647059
0.00090398
-0.000822519
0.000929061
-0.000278275
0.000843006
0.000513511
0.000755361
0.000574067
0.000736694
2.70261e-05
0.000768224
-0.000298853
0.000792492
-0.000194071
0.000741049
0.000423046
0.000677306
0.000565305
0.000751965
-0.000644102
0.000907123
-0.00116969
0.000940838
-8.67446e-05
0.000821605
0.000987481
0.000676372
0.00105423
0.000597054
0.000610374
0.000584104
6.33954e-05
0.000590992
-0.000138646
0.000629038
-0.000392194
0.000734829
-0.000825919
0.000911894
-0.00145428
0.00109624
-0.00148914
0.00122432
-0.00109389
0.00128244
-0.000387713
0.00133437
-0.00039692
0.00140204
-0.000491914
0.00145254
-0.000462349
0.00145297
-1.28084e-05
0.00141073
0.000488091
0.00133495
0.00125825
0.00123564
0.00130497
0.00112853
0.000619885
0.0010448
0.000230089
0.000994906
7.0857e-05
0.000962042
4.31534e-05
0.00092589
0.00017245
0.000873308
0.000354598
0.00081361
0.000482862
0.000763446
0.000466809
0.000723458
0.000363649
0.000689655
0.000285225
0.000659403
0.000246583
0.000631017
0.000228674
0.000603591
0.000220223
0.000577769
0.000207246
0.000553158
0.00019754
0.000530501
0.00018181
0.00050799
0.000180577
0.000166833
0.000487194
0.00175884
0.000187773
0.0016874
0.000531755
0.00154995
0.000892652
0.00141734
0.000889256
0.00134787
0.000550065
0.0013052
0.000364668
0.00124249
0.000447853
0.00118295
0.000424479
0.00114927
0.00026117
0.00108292
0.000633834
0.000913577
0.00162952
0.000609872
0.00243652
0.00029338
0.00296597
0.000247318
0.00227587
0.000251015
-0.00011684
0.000271956
-0.00157776
0.000442978
-0.0013458
0.000300369
0.000953388
3.91316e-05
0.00263559
-3.71216e-05
0.000878046
-0.000140719