/*--------------------------------*- C++ -*----------------------------------*\
| =========                 |                                                 |
| \\      /  F ield         | OpenFOAM: The Open Source CFD Toolbox           |
|  \\    /   O peration     | Version:  v1912                                 |
|   \\  /    A nd           | Website:  www.openfoam.com                      |
|    \\/     M anipulation  |                                                 |
\*---------------------------------------------------------------------------*/
FoamFile
{
    version     2.0;
    format      ascii;
    class       volScalarField;
    location    "30";
    object      alpha.water;
}
// * * * * * * * * * * * * * * * * * * * * * * * * * * * * * * * * * * * * * //

dimensions      [0 0 0 0 0 0 0];


internalField   nonuniform List<scalar> 
14268
(
1
1
1
1
1
1
1
1
1
1
1
1
1
1
1
1
1
1
1
1
1
1
1
1
1
1
1
1
1
1
1
1
1
1
1
1
1
1
1
1
1
1
1
1
1
1
1
1
1
1
1
1
1
1
1
1
1
1
1
1
1
1
1
1
1
1
1
1
1
1
1
1
1
1
1
1
1
1
1
1
1
1
1
1
1
1
1
1
1
1
1
1
1
1
1
1
1
1
1
1
1
1
1
1
1
1
1
1
1
1
1
1
1
1
1
1
1
1
1
1
1
1
1
1
1
1
1
1
1
1
1
1
1
1
1
1
1
1
1
1
1
1
1
1
1
1
1
1
1
1
1
1
1
1
1
1
1
1
1
1
1
1
1
1
1
1
1
1
1
1
1
1
1
1
1
1
1
1
1
1
1
1
1
1
1
1
1
1
1
1
1
1
1
1
1
1
1
1
1
1
1
1
1
1
1
1
1
1
1
1
1
1
1
1
1
1
1
1
1
1
1
1
1
1
1
1
1
1
1
1
1
1
1
1
1
1
1
1
1
1
1
1
1
1
1
1
1
1
1
1
1
1
1
1
1
1
1
1
1
1
1
1
1
1
1
1
1
1
1
1
1
1
1
1
1
1
1
1
1
1
1
1
1
1
1
1
1
1
1
1
1
1
1
1
1
1
1
1
1
1
1
1
1
1
1
1
1
1
1
1
1
1
1
1
1
1
1
1
1
1
1
1
1
1
1
1
1
1
1
1
1
1
1
1
1
1
1
1
1
1
1
1
1
1
1
1
1
1
1
1
1
1
1
1
1
1
1
1
1
1
1
1
1
1
1
1
1
1
1
1
1
1
1
1
1
1
1
1
1
1
1
1
1
1
1
1
1
1
1
1
1
1
1
1
1
1
1
1
1
1
1
1
1
1
1
1
1
1
1
1
1
1
1
1
1
1
1
1
1
1
1
1
1
1
1
1
1
1
1
1
1
1
1
1
1
1
1
1
1
1
1
1
1
1
1
1
1
1
1
1
1
1
1
1
1
1
1
1
1
1
1
1
1
1
1
1
1
1
1
1
1
1
1
1
1
1
1
1
1
1
1
1
1
1
1
1
1
1
1
1
1
1
1
1
1
1
1
1
1
1
1
1
1
1
1
1
1
1
1
1
1
1
1
1
1
1
1
1
1
1
1
1
1
1
1
1
1
1
1
1
1
1
1
1
1
1
1
1
1
1
1
1
1
1
1
1
1
1
1
1
1
1
1
1
1
1
1
1
1
1
1
1
1
1
1
1
1
1
1
1
1
1
1
1
1
1
1
1
1
1
1
1
1
1
1
1
1
1
1
1
1
1
1
1
1
1
1
1
1
1
1
1
1
1
1
1
1
1
1
1
1
1
1
1
1
1
1
1
1
1
1
1
1
1
1
1
1
1
1
1
1
1
1
1
1
1
1
1
1
1
1
1
1
1
1
1
1
1
1
1
1
1
1
1
1
1
1
1
1
1
1
1
1
1
1
1
1
1
1
1
1
1
1
1
1
1
1
1
1
1
1
1
1
1
1
1
1
1
1
1
1
1
1
1
1
1
1
1
1
1
1
1
1
1
1
1
1
1
1
1
1
1
1
1
1
1
1
1
1
1
1
1
1
1
1
1
1
1
1
1
1
1
1
1
1
1
1
1
1
1
1
1
1
1
1
1
1
1
1
1
1
1
1
1
1
1
1
1
1
1
1
1
1
1
1
1
1
1
1
1
1
1
1
1
1
1
1
1
1
1
1
1
1
1
1
1
1
1
1
1
1
1
1
1
1
1
1
1
1
1
1
1
1
1
1
1
1
1
1
1
1
1
1
1
1
1
1
1
1
1
1
1
1
1
1
1
1
1
1
1
1
1
1
1
1
1
1
1
1
1
1
1
1
1
1
1
1
1
1
1
1
1
1
1
1
1
1
1
1
1
1
1
1
1
1
1
1
1
1
1
1
1
1
1
1
1
1
1
1
1
1
1
1
1
1
1
1
1
1
1
1
1
1
1
1
1
1
1
1
1
1
1
1
1
1
1
1
1
1
1
1
1
1
1
1
1
1
1
1
1
1
1
1
1
1
1
1
1
1
1
1
1
1
1
1
1
1
1
1
1
1
1
1
1
1
1
1
1
1
1
1
1
1
1
1
1
1
1
1
1
1
1
1
1
1
1
1
1
1
1
1
1
1
1
1
1
1
1
1
1
1
1
1
1
1
1
1
1
1
1
1
1
1
1
1
1
1
1
1
1
1
1
1
1
1
1
1
1
1
1
1
1
1
1
1
1
1
1
1
1
1
1
1
1
1
1
1
1
1
1
1
1
1
1
1
1
1
1
1
1
1
1
1
1
1
1
1
1
1
1
1
1
1
1
1
1
1
1
1
1
1
1
1
1
1
1
1
1
1
1
1
1
1
1
1
1
1
1
1
1
1
1
1
1
1
1
1
1
1
1
1
1
1
1
1
1
1
1
1
1
1
1
1
1
1
1
1
1
1
1
1
1
1
1
1
1
1
1
1
1
1
1
1
1
1
1
1
1
1
1
1
1
1
1
1
1
1
1
1
1
1
1
1
1
1
1
1
1
1
1
1
1
1
1
1
1
1
1
1
1
1
1
1
1
1
1
1
1
1
1
1
1
1
1
1
1
1
1
1
1
1
1
1
1
1
1
1
1
1
1
1
1
1
1
1
1
1
1
1
1
1
1
1
1
1
1
1
1
1
1
1
1
1
1
1
1
1
1
1
1
1
1
1
1
1
1
1
1
1
1
1
1
1
1
1
1
1
1
1
1
1
1
1
1
1
1
1
1
1
1
1
1
1
1
1
1
1
1
1
1
1
1
1
1
1
1
1
1
1
1
1
1
1
1
1
1
1
1
1
1
1
1
1
1
1
1
1
1
1
1
1
1
1
1
1
1
1
1
1
1
1
1
1
1
1
1
1
1
1
1
1
1
1
1
1
1
1
1
1
1
1
1
1
1
1
1
1
1
1
1
1
1
1
1
1
1
1
1
1
1
1
1
1
1
1
1
1
1
1
1
1
1
1
1
1
1
1
1
1
1
1
1
1
1
1
1
1
1
1
1
1
1
1
1
1
1
1
1
1
1
1
1
1
1
1
1
1
1
1
1
1
1
1
1
1
1
1
1
1
1
1
1
1
1
1
1
1
1
1
1
1
1
1
1
1
1
1
1
1
1
1
1
1
1
1
1
1
1
1
1
1
1
1
1
1
1
1
1
1
1
1
1
1
1
1
1
1
1
1
1
1
1
1
1
1
1
1
1
1
1
1
1
1
1
1
1
1
1
1
1
1
1
1
1
1
1
1
1
1
1
1
1
1
0.999999
0.999737
0.999184
0.999132
0.999229
0.99924
0.999054
0.998756
0.998453
0.998337
0.998342
0.998362
0.997741
0.917646
0.913677
0.910919
0.909606
0.909924
0.911948
0.915606
0.920418
0.925647
0.93054
0.934549
0.937447
0.938945
0.938378
0.934894
0.928624
0.920184
0.910371
0.899942
0.889612
0.88005
0.871777
0.865205
0.861135
0.86101
0.866081
0.874014
0.880478
0.884603
0.888081
0.888467
0.885898
0.876802
0.856946
0.837032
0.833516
0.846259
0.867162
0.885515
0.899556
0.908992
0.910889
0.907416
0.900172
0.305753
0.299464
0.295377
0.293888
0.295462
0.300673
0.309547
0.321494
0.335515
0.350293
0.364171
0.375315
0.381918
0.382531
0.376673
0.364907
0.349234
0.331716
0.313847
0.297041
0.282977
0.273173
0.268779
0.270702
0.278937
0.290753
0.305348
0.322982
0.340509
0.352715
0.356904
0.35157
0.335687
0.314791
0.296268
0.287485
0.287707
0.290702
0.292519
0.291566
0.287693
0.279193
0.265148
0.237394
0.010042
0.00981395
0.00981678
0.0101141
0.0106929
0.0114323
0.0122788
0.0134313
0.0151997
0.0176453
0.0203857
0.0228229
0.0245738
0.0256377
0.0260585
0.0256598
0.0242359
0.0220705
0.0197606
0.0177725
0.0163426
0.0155534
0.0154571
0.0157104
0.0157803
0.0163279
0.0181919
0.021139
0.0243115
0.025539
0.0242598
0.0207095
0.0178552
0.0163302
0.0147424
0.0141027
0.0138403
0.013581
0.012651
0.0111936
0.0091756
0.0084789
0.00637416
0.00654847
1.8461e-12
1.87139e-12
1.96704e-12
2.20727e-12
2.60626e-12
3.01136e-12
3.42149e-12
3.9935e-12
4.89064e-12
6.31481e-12
8.19799e-12
9.45313e-12
9.41109e-12
9.89573e-12
1.14908e-11
1.31856e-11
1.36944e-11
1.28066e-11
1.1196e-11
9.62016e-12
8.11114e-12
6.46756e-12
4.93291e-12
3.64848e-12
2.48611e-12
2.23222e-12
3.08914e-12
4.11277e-12
4.94075e-12
4.76766e-12
4.15832e-12
4.28224e-12
6.53663e-12
9.63185e-12
1.05538e-11
5.8987e-12
1.32171e-12
8.82743e-14
4.44157e-14
5.62488e-14
5.89324e-14
3.49934e-13
1.10824e-13
1.96505e-15
-1.42705e-85
-5.96768e-88
-1.8148e-90
-4.71875e-93
-1.51243e-96
-4.91014e-100
-3.35255e-103
-4.86178e-106
-6.55481e-108
-4.94918e-114
-1.6097e-121
-2.61001e-127
-1.02527e-129
3.2172e-132
-4.08302e-122
-8.76515e-124
-7.15347e-126
-3.64004e-128
-1.48372e-130
-4.8548e-133
-1.34864e-135
-3.109e-138
-5.94533e-141
-8.50885e-144
-8.65729e-147
-1.35432e-150
-2.25138e-154
-3.05253e-156
-8.16224e-161
-4.03544e-159
-1.34668e-160
-1.8818e-162
-1.6318e-164
-1.3201e-166
-1.22957e-168
-1.37565e-170
-1.65915e-172
-7.45789e-155
-1.38995e-106
-1.70487e-56
-1.13806e-56
-1.0244e-44
-6.49404e-45
-4.21228e-45
-3.58167e-84
-1.58935e-86
-6.1647e-89
-2.12422e-91
-6.83105e-94
-2.04929e-96
-5.55397e-99
-1.40655e-101
-3.58813e-104
-9.819e-107
-3.02826e-109
-1.12924e-111
-4.95978e-114
-2.29459e-116
-1.01897e-118
-4.21083e-121
-1.62534e-123
-5.77882e-126
-1.88258e-128
-5.58759e-131
-1.5055e-133
-3.70099e-136
-8.21014e-139
-1.66217e-141
-3.34798e-144
-7.37452e-147
-2.23823e-149
-9.13543e-152
-4.72862e-154
-3.30172e-156
-2.64438e-158
-2.03191e-160
-1.40805e-162
-8.9108e-165
-5.42417e-167
-3.72831e-169
-2.93042e-171
-2.6584e-173
-3.02621e-175
-1.54035e-57
-2.23056e-57
-3.34526e-45
-2.98779e-45
-1.17487e-45
-6.58463e-84
-2.8464e-86
-1.00601e-88
-3.15213e-91
-9.74758e-94
-3.15807e-96
-1.03731e-98
-3.24761e-101
-9.66036e-104
-2.94968e-106
-1.00173e-108
-3.96415e-111
-1.77323e-113
-8.27123e-116
-3.86279e-118
-1.84353e-120
-8.89874e-123
-4.19166e-125
-1.84663e-127
-7.38181e-130
-2.66179e-132
-8.73852e-135
-2.68278e-137
-8.01182e-140
-2.35517e-142
-6.66524e-145
-2.11934e-147
-8.53956e-150
-4.02922e-152
-1.99828e-154
-9.6409e-157
-4.32354e-159
-1.96382e-161
-1.07824e-163
-7.54322e-166
-6.41389e-168
-5.9422e-170
-5.75084e-172
-5.76208e-174
-7.71897e-59
-1.12893e-58
-1.37633e-46
-1.28158e-46
-6.4229e-47
-3.47458e-84
-1.57429e-86
-6.32465e-89
-2.29223e-91
-7.80778e-94
-2.52626e-96
-7.62769e-99
-2.21824e-101
-6.61484e-104
-2.13606e-106
-7.65884e-109
-3.17819e-111
-1.525e-113
-7.81524e-116
-3.97056e-118
-1.93778e-120
-9.11133e-123
-4.03099e-125
-1.6432e-127
-6.03726e-130
-1.96652e-132
-5.61759e-135
-1.41177e-137
-3.26159e-140
-7.47011e-143
-1.95068e-145
-6.4174e-148
-2.645e-150
-1.31398e-152
-7.6013e-155
-4.89276e-157
-3.25931e-159
-2.10612e-161
-1.30996e-163
-8.10177e-166
-5.38365e-168
-3.81501e-170
-2.97837e-172
-2.711e-174
-1.93655e-60
-2.45793e-60
-1.02011e-48
-9.42111e-49
-3.55478e-49
-2.01386e-84
-9.01259e-87
-3.4373e-89
-1.17553e-91
-3.852e-94
-1.26014e-96
-4.12431e-99
-1.31988e-101
-4.1812e-104
-1.3836e-106
-5.02232e-109
-2.04872e-111
-9.247e-114
-4.36107e-116
-2.06439e-118
-9.93076e-121
-4.77314e-123
-2.24394e-125
-1.00431e-127
-4.19764e-130
-1.62267e-132
-5.82299e-135
-1.96947e-137
-6.45372e-140
-2.12368e-142
-7.07751e-145
-2.55871e-147
-1.0773e-149
-5.10866e-152
-2.55857e-154
-1.27859e-156
-6.16113e-159
-3.01982e-161
-1.69942e-163
-1.15047e-165
-9.1633e-168
-8.01499e-170
-7.4493e-172
-7.10486e-174
-1.60613e-62
-2.12472e-62
-1.62157e-62
-7.86277e-63
-2.50002e-63
-8.04838e-85
-3.68253e-87
-1.50471e-89
-5.61729e-92
-1.97465e-94
-6.65087e-97
-2.13176e-99
-6.6231e-102
-2.09468e-104
-7.0406e-107
-2.58078e-109
-1.06114e-111
-4.89853e-114
-2.40388e-116
-1.18552e-118
-5.69562e-121
-2.66551e-123
-1.19258e-125
-4.98163e-128
-1.90138e-130
-6.55671e-133
-2.0392e-135
-5.75626e-138
-1.52354e-140
-4.04498e-143
-1.17507e-145
-4.0581e-148
-1.67217e-150
-8.03178e-153
-4.36678e-155
-2.59978e-157
-1.62159e-159
-1.00883e-161
-6.25189e-164
-3.9127e-166
-2.61102e-168
-1.84261e-170
-1.40189e-172
-1.20012e-174
-1.16583e-176
-1.2676e-178
-1.46854e-180
-1.80127e-182
-2.14004e-184
-3.03683e-85
-1.3785e-87
-5.48092e-90
-1.96856e-92
-6.69756e-95
-2.21925e-97
-7.28068e-100
-2.36752e-102
-7.74249e-105
-2.64082e-107
-9.71723e-110
-3.9156e-112
-1.70844e-114
-7.75909e-117
-3.5434e-119
-1.6321e-121
-7.43188e-124
-3.29937e-126
-1.40921e-128
-5.71203e-131
-2.18019e-133
-7.87635e-136
-2.73351e-138
-9.30608e-141
-3.20394e-143
-1.13596e-145
-4.30069e-148
-1.82775e-150
-8.54031e-153
-4.21739e-155
-2.11002e-157
-1.0477e-159
-5.33601e-162
-3.03342e-164
-1.9834e-166
-1.48527e-168
-1.22007e-170
-1.06632e-172
-9.52637e-175
-8.93797e-177
-9.17412e-179
-1.02404e-180
-1.30003e-182
-1.62651e-184
-9.61842e-86
-4.40842e-88
-1.81717e-90
-6.90547e-93
-2.47879e-95
-8.55119e-98
-2.84425e-100
-9.23392e-103
-3.02917e-105
-1.04006e-107
-3.82914e-110
-1.53847e-112
-6.75627e-115
-3.12567e-117
-1.46552e-119
-6.78492e-122
-3.07936e-124
-1.34516e-126
-5.53506e-129
-2.10893e-131
-7.37953e-134
-2.37385e-136
-7.10256e-139
-2.0388e-141
-5.93553e-144
-1.85516e-146
-6.57903e-149
-2.69663e-151
-1.25573e-153
-6.50235e-156
-3.64927e-158
-2.16108e-160
-1.30001e-162
-7.96176e-165
-4.98275e-167
-3.31412e-169
-2.31988e-171
-1.71907e-173
-1.41778e-175
-1.27818e-177
-1.25978e-179
-1.28491e-181
-1.31641e-183
-1.34302e-185
-2.77144e-86
-1.26168e-88
-5.12831e-91
-1.89769e-93
-6.61161e-96
-2.22071e-98
-7.32739e-101
-2.41033e-103
-8.02604e-106
-2.77606e-108
-1.02141e-110
-4.04165e-113
-1.70035e-115
-7.38464e-118
-3.22638e-120
-1.4144e-122
-6.14937e-125
-2.61995e-127
-1.07903e-129
-4.25624e-132
-1.60274e-134
-5.79498e-137
-2.03768e-139
-7.07632e-142
-2.4876e-144
-9.05061e-147
-3.51247e-149
-1.49043e-151
-6.84254e-154
-3.31779e-156
-1.64565e-158
-8.27347e-161
-4.30103e-163
-2.44727e-165
-1.54903e-167
-1.09582e-169
-8.45225e-172
-6.88327e-174
-5.78786e-176
-5.13589e-178
-4.91621e-180
-4.98627e-182
-5.35185e-184
-5.57468e-186
-7.10136e-87
-3.24343e-89
-1.34298e-91
-5.14994e-94
-1.87085e-96
-6.54468e-99
-2.22516e-101
-7.41971e-104
-2.48936e-106
-8.63817e-109
-3.16081e-111
-1.23869e-113
-5.21395e-116
-2.29534e-118
-1.02424e-120
-4.55069e-123
-1.98665e-125
-8.39067e-128
-3.37334e-130
-1.27438e-132
-4.49365e-135
-1.48198e-137
-4.63393e-140
-1.41159e-142
-4.37943e-145
-1.4428e-147
-5.22424e-150
-2.12619e-152
-9.6187e-155
-4.77536e-157
-2.54848e-159
-1.43948e-161
-8.36983e-164
-5.02314e-166
-3.09369e-168
-2.02413e-170
-1.39646e-172
-1.00772e-174
-7.89052e-177
-6.58204e-179
-5.91878e-181
-5.45922e-183
-5.10434e-185
-4.6628e-187
-1.66576e-87
-7.55905e-90
-3.10014e-92
-1.16718e-94
-4.13017e-97
-1.40388e-99
-4.66451e-102
-1.54648e-104
-5.19661e-107
-1.80448e-109
-6.58888e-112
-2.54646e-114
-1.03245e-116
-4.2997e-119
-1.80524e-121
-7.58789e-124
-3.17178e-126
-1.30471e-128
-5.21498e-131
-2.01009e-133
-7.46164e-136
-2.68275e-138
-9.44868e-141
-3.30387e-143
-1.17132e-145
-4.30394e-148
-1.67973e-150
-7.08235e-153
-3.19366e-155
-1.52007e-157
-7.45301e-160
-3.75097e-162
-1.95742e-164
-1.10215e-166
-6.74838e-169
-4.5117e-171
-3.26014e-173
-2.47414e-175
-1.96093e-177
-1.62528e-179
-1.43306e-181
-1.31335e-183
-1.23115e-185
-1.10432e-187
-3.53239e-88
-1.60171e-90
-6.63249e-93
-2.55366e-95
-9.32719e-98
-3.28408e-100
-1.12867e-102
-3.81975e-105
-1.29714e-107
-4.51579e-110
-1.63693e-112
-6.25636e-115
-2.53136e-117
-1.06293e-119
-4.51861e-122
-1.9219e-124
-8.05428e-127
-3.28309e-129
-1.28628e-131
-4.79561e-134
-1.69141e-136
-5.6603e-139
-1.82464e-141
-5.79468e-144
-1.87644e-146
-6.38788e-149
-2.34197e-151
-9.43229e-154
-4.14768e-156
-1.9776e-158
-1.0074e-160
-5.43996e-163
-3.04853e-165
-1.779e-167
-1.06789e-169
-6.7751e-172
-4.55897e-174
-3.18379e-176
-2.37531e-178
-1.85358e-180
-1.52397e-182
-1.27356e-184
-1.06182e-186
-8.39338e-189
-6.95455e-89
-3.12888e-91
-1.28442e-93
-4.87607e-96
-1.74289e-98
-5.97696e-101
-2.00005e-103
-6.658e-106
-2.24294e-108
-7.77089e-111
-2.80502e-113
-1.05833e-115
-4.1445e-118
-1.66004e-120
-6.70947e-123
-2.71571e-125
-1.09456e-127
-4.35285e-130
-1.69087e-132
-6.37354e-135
-2.32882e-137
-8.2894e-140
-2.90419e-142
-1.01388e-144
-3.59461e-147
-1.32161e-149
-5.129e-152
-2.12842e-154
-9.39668e-157
-4.37938e-159
-2.11164e-161
-1.05228e-163
-5.43072e-166
-2.99371e-168
-1.76836e-170
-1.1148e-172
-7.533e-175
-5.33804e-177
-3.97977e-179
-3.07905e-181
-2.49139e-183
-2.06779e-185
-1.71258e-187
-1.33348e-189
-1.25448e-89
-5.62345e-92
-2.31682e-94
-8.90932e-97
-3.25466e-99
-1.147e-101
-3.95072e-104
-1.34536e-106
-4.59053e-109
-1.59485e-111
-5.71308e-114
-2.13353e-116
-8.3343e-119
-3.35534e-121
-1.36584e-123
-5.57276e-126
-2.2452e-128
-8.83744e-131
-3.36741e-133
-1.23363e-135
-4.32739e-138
-1.45881e-140
-4.79272e-143
-1.5632e-145
-5.19276e-148
-1.798e-150
-6.61643e-153
-2.63047e-155
-1.12447e-157
-5.15514e-160
-2.51098e-162
-1.29597e-164
-6.96402e-167
-3.91161e-169
-2.2706e-171
-1.38474e-173
-8.97973e-176
-6.00821e-178
-4.23536e-180
-3.07791e-182
-2.3086e-184
-1.74798e-186
-1.29597e-188
-8.86161e-191
-2.11348e-90
-9.40844e-93
-3.84759e-95
-1.46307e-97
-5.252e-100
-1.80919e-102
-6.07764e-105
-2.02403e-107
-6.79726e-110
-2.3355e-112
-8.29527e-115
-3.05046e-117
-1.1546e-119
-4.45176e-122
-1.7319e-124
-6.75234e-127
-2.62526e-129
-1.00967e-131
-3.80914e-134
-1.40218e-136
-5.03072e-139
-1.76634e-141
-6.12352e-144
-2.12078e-146
-7.46883e-149
-2.72503e-151
-1.04398e-153
-4.24563e-156
-1.82606e-158
-8.2863e-161
-3.90162e-163
-1.90634e-165
-9.63023e-168
-5.14569e-170
-2.91591e-172
-1.73417e-174
-1.09901e-176
-7.26359e-179
-5.04682e-181
-3.62237e-183
-2.67663e-185
-2.00632e-187
-1.47601e-189
-1.00455e-191
-3.28289e-91
-1.45491e-93
-5.95606e-96
-2.28272e-98
-8.31767e-101
-2.92389e-103
-1.00448e-105
-3.41351e-108
-1.16192e-110
-4.00976e-113
-1.41736e-115
-5.17302e-118
-1.95413e-120
-7.55988e-123
-2.9536e-125
-1.1573e-127
-4.4883e-130
-1.70722e-132
-6.32149e-135
-2.26745e-137
-7.86438e-140
-2.64845e-142
-8.76337e-145
-2.89316e-147
-9.71704e-150
-3.38011e-152
-1.23703e-154
-4.8295e-157
-2.0056e-159
-8.85861e-162
-4.12667e-164
-2.03236e-166
-1.04354e-168
-5.6088e-171
-3.13215e-173
-1.82472e-175
-1.12688e-177
-7.15482e-180
-4.72429e-182
-3.18792e-184
-2.18254e-186
-1.49205e-188
-9.82951e-191
-5.90106e-193
-4.78548e-92
-2.10638e-94
-8.56703e-97
-3.25476e-99
-1.17034e-101
-4.04039e-104
-1.35906e-106
-4.52017e-109
-1.508e-111
-5.11349e-114
-1.7786e-116
-6.35788e-119
-2.32495e-121
-8.62732e-124
-3.22736e-126
-1.21072e-128
-4.53368e-131
-1.68297e-133
-6.15159e-136
-2.20365e-138
-7.72961e-141
-2.66505e-143
-9.1032e-146
-3.11264e-148
-1.08267e-150
-3.89505e-153
-1.46487e-155
-5.81145e-158
-2.42369e-160
-1.06351e-162
-4.85461e-165
-2.30435e-167
-1.13002e-169
-5.80862e-172
-3.14714e-174
-1.77133e-176
-1.05597e-178
-6.50591e-181
-4.18128e-183
-2.76703e-185
-1.86218e-187
-1.25775e-189
-8.2388e-192
-4.97156e-194
-6.48497e-93
-2.83865e-95
-1.15284e-97
-4.39573e-100
-1.59522e-102
-5.58503e-105
-1.91013e-107
-6.45679e-110
-2.1819e-112
-7.4492e-115
-2.59e-117
-9.22566e-120
-3.3718e-122
-1.25484e-124
-4.71007e-127
-1.77241e-129
-6.61332e-132
-2.42875e-134
-8.72393e-137
-3.05367e-139
-1.04123e-141
-3.4722e-144
-1.14397e-146
-3.77321e-149
-1.26504e-151
-4.37336e-154
-1.5789e-156
-6.02473e-159
-2.42725e-161
-1.03398e-163
-4.61243e-166
-2.16614e-168
-1.05966e-170
-5.41545e-173
-2.88694e-175
-1.59661e-177
-9.29653e-180
-5.54959e-182
-3.41031e-184
-2.13216e-186
-1.3346e-188
-8.23346e-191
-4.83157e-193
-2.56884e-195
-8.28678e-94
-3.6028e-96
-1.45431e-98
-5.50447e-101
-1.97639e-103
-6.81791e-106
-2.28966e-108
-7.58534e-111
-2.51048e-113
-8.39208e-116
-2.85641e-118
-9.92359e-121
-3.50762e-123
-1.25327e-125
-4.50852e-128
-1.62675e-130
-5.86088e-133
-2.0956e-135
-7.39688e-138
-2.56792e-140
-8.76511e-143
-2.95245e-145
-9.88491e-148
-3.32067e-150
-1.1348e-152
-4.00151e-155
-1.46794e-157
-5.64737e-160
-2.27284e-162
-9.59627e-165
-4.2138e-167
-1.92883e-169
-9.12163e-172
-4.49079e-174
-2.32176e-176
-1.23812e-178
-6.94061e-181
-3.99418e-183
-2.37069e-185
-1.44049e-187
-8.82324e-190
-5.37609e-192
-3.14968e-194
-1.6931e-196
-9.91253e-95
-4.28238e-97
-1.72272e-99
-6.52181e-102
-2.35204e-104
-8.18221e-107
-2.77837e-109
-9.31152e-112
-3.11195e-114
-1.04677e-116
-3.56845e-119
-1.23827e-121
-4.37776e-124
-1.5683e-126
-5.65924e-129
-2.04551e-131
-7.34057e-134
-2.60037e-136
-9.04676e-139
-3.0822e-141
-1.02835e-143
-3.37165e-146
-1.09615e-148
-3.57508e-151
-1.18463e-153
-4.03559e-156
-1.42815e-158
-5.30613e-161
-2.06767e-163
-8.47492e-166
-3.6232e-168
-1.62171e-170
-7.54718e-173
-3.64766e-175
-1.84195e-177
-9.60007e-180
-5.22495e-182
-2.90846e-184
-1.65741e-186
-9.57932e-189
-5.49019e-191
-3.06338e-193
-1.61067e-195
-7.62905e-198
-1.12269e-95
-4.81703e-98
-1.92632e-100
-7.24493e-103
-2.58953e-105
-8.89652e-108
-2.97262e-110
-9.77487e-113
-3.199e-115
-1.0519e-117
-3.49928e-120
-1.18064e-122
-4.03186e-125
-1.38647e-127
-4.79502e-130
-1.66305e-132
-5.75892e-135
-1.98058e-137
-6.7373e-140
-2.26077e-142
-7.48794e-145
-2.45705e-147
-8.03631e-150
-2.64116e-152
-8.82147e-155
-3.03138e-157
-1.07898e-159
-4.00957e-162
-1.55259e-164
-6.28772e-167
-2.64382e-169
-1.15807e-171
-5.25495e-174
-2.47056e-176
-1.21599e-178
-6.15103e-181
-3.24367e-183
-1.74723e-185
-9.58184e-188
-5.33801e-190
-2.97925e-192
-1.64082e-194
-8.63695e-197
-4.13932e-199
-1.19771e-96
-5.10319e-99
-2.03053e-101
-7.61708e-104
-2.72362e-106
-9.39007e-109
-3.1563e-111
-1.04515e-113
-3.44182e-116
-1.13632e-118
-3.7836e-121
-1.27523e-123
-4.35382e-126
-1.50015e-128
-5.19979e-131
-1.80355e-133
-6.21778e-136
-2.12073e-138
-7.12742e-141
-2.35501e-143
-7.64999e-146
-2.45141e-148
-7.81389e-151
-2.50361e-153
-8.14936e-156
-2.7218e-158
-9.40103e-161
-3.38769e-163
-1.27358e-165
-5.01286e-168
-2.0513e-170
-8.74573e-173
-3.86826e-175
-1.76621e-177
-8.41667e-180
-4.11663e-182
-2.08446e-184
-1.07833e-186
-5.68141e-189
-3.02535e-191
-1.58691e-193
-8.02126e-196
-3.78633e-198
-1.60429e-200
-1.21394e-97
-5.13487e-100
-2.0304e-102
-7.56785e-105
-2.68415e-107
-9.15165e-110
-3.03122e-112
-9.85682e-115
-3.17827e-117
-1.02478e-119
-3.32436e-122
-1.08768e-124
-3.58459e-127
-1.18503e-129
-3.93698e-132
-1.31099e-134
-4.35686e-137
-1.43878e-139
-4.70766e-142
-1.52397e-144
-4.88635e-147
-1.55677e-149
-4.95226e-152
-1.58428e-154
-5.14628e-157
-1.71612e-159
-5.90877e-162
-2.11598e-164
-7.8669e-167
-3.05073e-169
-1.22688e-171
-5.12487e-174
-2.2205e-176
-9.92999e-179
-4.62978e-181
-2.21226e-183
-1.09265e-185
-5.49829e-188
-2.79582e-190
-1.43158e-192
-7.29195e-195
-3.63381e-197
-1.71744e-199
-7.34993e-202
-1.16486e-98
-4.88992e-101
-1.92123e-103
-7.12538e-106
-2.51943e-108
-8.583e-111
-2.84653e-113
-9.27972e-116
-2.9997e-118
-9.68451e-121
-3.13896e-123
-1.02463e-125
-3.37104e-128
-1.11516e-130
-3.70492e-133
-1.23116e-135
-4.07073e-138
-1.33388e-140
-4.3177e-143
-1.378e-145
-4.33788e-148
-1.35202e-150
-4.20351e-153
-1.31554e-155
-4.18172e-158
-1.36213e-160
-4.5713e-163
-1.59259e-165
-5.76094e-168
-2.17005e-170
-8.47709e-173
-3.43148e-175
-1.44052e-177
-6.21672e-180
-2.78647e-182
-1.27633e-184
-6.01568e-187
-2.89226e-189
-1.40659e-191
-6.8742e-194
-3.29267e-196
-1.50728e-198
-6.39149e-201
-2.42261e-203
-1.06504e-99
-4.43525e-102
-1.73019e-104
-6.37222e-107
-2.23499e-109
-7.53421e-112
-2.46418e-114
-7.89308e-117
-2.4981e-119
-7.87137e-122
-2.48302e-124
-7.86082e-127
-2.49562e-129
-7.91999e-132
-2.52615e-134
-8.06631e-137
-2.56985e-139
-8.14018e-142
-2.55801e-144
-7.97199e-147
-2.46739e-149
-7.60465e-152
-2.34384e-154
-7.26983e-157
-2.28737e-159
-7.36992e-162
-2.44697e-164
-8.41987e-167
-3.00184e-169
-1.11237e-171
-4.26993e-174
-1.69666e-176
-6.98997e-179
-2.9609e-181
-1.30174e-183
-5.84983e-186
-2.69619e-188
-1.26415e-190
-5.95881e-193
-2.80451e-195
-1.30133e-197
-5.85289e-200
-2.47867e-202
-9.47068e-205
-9.25635e-101
-3.82218e-103
-1.47962e-105
-5.41114e-108
-1.88631e-110
-6.32884e-113
-2.06355e-115
-6.5983e-118
-2.08553e-120
-6.55965e-123
-2.06268e-125
-6.50249e-128
-2.05701e-130
-6.52027e-133
-2.07208e-135
-6.58387e-138
-2.08296e-140
-6.54066e-143
-2.03348e-145
-6.24841e-148
-1.89924e-150
-5.73273e-153
-1.73003e-155
-5.26154e-158
-1.62522e-160
-5.13687e-163
-1.66931e-165
-5.60918e-168
-1.94834e-170
-7.0103e-173
-2.60895e-175
-1.00158e-177
-3.9831e-180
-1.62306e-182
-6.84245e-185
-2.94357e-187
-1.29564e-189
-5.79767e-192
-2.60557e-194
-1.16673e-196
-5.08848e-199
-2.10722e-201
-8.04155e-204
-2.73738e-206
-7.68038e-102
-3.1429e-104
-1.20647e-106
-4.37623e-109
-1.51226e-111
-5.02056e-114
-1.61495e-116
-5.07533e-119
-1.57073e-121
-4.82023e-124
-1.47419e-126
-4.50476e-129
-1.37493e-131
-4.18289e-134
-1.27867e-136
-3.91066e-139
-1.19324e-141
-3.62173e-144
-1.09193e-146
-3.2707e-149
-9.74915e-152
-2.89857e-154
-8.62751e-157
-2.58492e-159
-7.8501e-162
-2.43584e-164
-7.76814e-167
-2.55919e-169
-8.72132e-172
-3.07864e-174
-1.12493e-176
-4.23988e-179
-1.65489e-181
-6.62012e-184
-2.73454e-186
-1.15158e-188
-4.94024e-191
-2.14807e-193
-9.33765e-196
-4.02354e-198
-1.69781e-200
-6.89205e-203
-2.62015e-205
-8.9543e-208
-6.07811e-103
-2.46342e-105
-9.37059e-108
-3.36902e-110
-1.15406e-112
-3.79994e-115
-1.2136e-117
-3.79154e-120
-1.16742e-122
-3.56428e-125
-1.08379e-127
-3.29038e-130
-9.98564e-133
-3.02744e-135
-9.1853e-138
-2.78496e-140
-8.41291e-143
-2.52595e-145
-7.52225e-148
-2.219e-150
-6.49288e-153
-1.89159e-155
-5.51988e-158
-1.62444e-160
-4.85434e-163
-1.48261e-165
-4.64852e-168
-1.50203e-170
-5.00428e-173
-1.71967e-175
-6.1007e-178
-2.22367e-180
-8.37691e-183
-3.22563e-185
-1.27949e-187
-5.17238e-190
-2.12625e-192
-8.8391e-195
-3.66826e-197
-1.50432e-199
-5.9749e-202
-2.24519e-204
-7.75586e-207
-2.38835e-209
-4.59831e-104
-1.84461e-106
-6.94768e-109
-2.47362e-111
-8.38892e-114
-2.73168e-116
-8.60738e-119
-2.6441e-121
-7.97365e-124
-2.37534e-126
-7.02332e-129
-2.06654e-131
-6.05135e-134
-1.76305e-136
-5.15557e-139
-1.50796e-141
-4.40022e-144
-1.27794e-146
-3.69199e-149
-1.06154e-151
-3.04171e-154
-8.70299e-157
-2.49507e-159
-7.20089e-162
-2.10442e-164
-6.27007e-167
-1.91525e-169
-6.02304e-172
-1.95501e-174
-6.55331e-177
-2.27201e-179
-8.10234e-182
-2.986e-184
-1.12468e-186
-4.35048e-189
-1.71103e-191
-6.81262e-194
-2.73577e-196
-1.09319e-198
-4.30765e-201
-1.65411e-203
-6.07785e-206
-2.08328e-208
-6.40769e-211
-3.32653e-105
-1.3199e-107
-4.91864e-110
-1.73271e-112
-5.81305e-115
-1.8721e-117
-5.83596e-120
-1.77514e-122
-5.30612e-125
-1.56724e-127
-4.59434e-130
-1.33988e-132
-3.89226e-135
-1.12665e-137
-3.25858e-140
-9.41174e-143
-2.71012e-145
-7.76535e-148
-2.21018e-150
-6.24514e-153
-1.7549e-155
-4.92088e-158
-1.38403e-160
-3.92699e-163
-1.13077e-165
-3.32326e-168
-1.00115e-170
-3.09999e-173
-9.88105e-176
-3.2383e-178
-1.09377e-180
-3.78445e-183
-1.34982e-185
-4.9109e-188
-1.8311e-190
-6.93808e-193
-2.65589e-195
-1.02284e-197
-3.91639e-200
-1.47313e-202
-5.34645e-205
-1.83193e-207
-5.76475e-210
-1.61685e-212
-2.30328e-106
-9.03306e-109
-3.32783e-111
-1.15896e-113
-3.84286e-116
-1.22236e-118
-3.75757e-121
-1.12391e-123
-3.29114e-126
-9.48689e-129
-2.70446e-131
-7.64392e-134
-2.14322e-136
-5.97276e-139
-1.66845e-141
-4.65938e-144
-1.29785e-146
-3.60113e-149
-9.95381e-152
-2.74185e-154
-7.53496e-157
-2.06972e-159
-5.701e-162
-1.58133e-164
-4.43998e-167
-1.2687e-169
-3.7076e-172
-1.11197e-174
-3.43361e-177
-1.09113e-179
-3.57984e-182
-1.20466e-184
-4.17683e-187
-1.47626e-189
-5.33195e-192
-1.95361e-194
-7.21387e-197
-2.6753e-199
-9.84316e-202
-3.55786e-204
-1.24783e-206
-4.16923e-209
-1.29385e-211
-3.59068e-214
-1.52722e-107
-5.9158e-110
-2.15289e-112
-7.40617e-115
-2.42501e-117
-7.61318e-120
-2.30894e-122
-6.81579e-125
-1.97144e-127
-5.61717e-130
-1.58297e-132
-4.42375e-135
-1.22741e-137
-3.38648e-140
-9.32627e-143
-2.56314e-145
-7.02526e-148
-1.91746e-150
-5.20621e-153
-1.40632e-155
-3.78625e-158
-1.01912e-160
-2.75454e-163
-7.51226e-166
-2.0777e-168
-5.85425e-171
-1.68768e-173
-4.9893e-176
-1.51613e-178
-4.72659e-181
-1.51635e-183
-4.97058e-186
-1.67344e-188
-5.73003e-191
-1.99951e-193
-7.07074e-196
-2.51597e-198
-8.97226e-201
-3.17185e-203
-1.09734e-205
-3.65307e-208
-1.14589e-210
-3.30028e-213
-8.47479e-216
-9.70338e-109
-3.70974e-111
-1.3326e-113
-4.52466e-116
-1.46176e-118
-4.52541e-121
-1.35202e-123
-3.92337e-126
-1.112e-128
-3.0928e-131
-8.47715e-134
-2.2963e-136
-6.15258e-139
-1.63741e-141
-4.36354e-144
-1.16187e-146
-3.08512e-149
-8.16607e-152
-2.15532e-154
-5.67494e-157
-1.49219e-159
-3.92551e-162
-1.03624e-164
-2.75494e-167
-7.412e-170
-2.02727e-172
-5.66375e-175
-1.6203e-177
-4.76277e-180
-1.43585e-182
-4.45669e-185
-1.41413e-187
-4.60642e-190
-1.52656e-192
-5.14873e-195
-1.75863e-197
-6.03699e-200
-2.07368e-202
-7.04901e-205
-2.34454e-207
-7.52728e-210
-2.28985e-212
-6.43012e-215
-1.60747e-217
-5.91026e-110
-2.22868e-112
-7.89664e-115
-2.64427e-117
-8.42227e-120
-2.56925e-122
-7.55833e-125
-2.15903e-127
-6.02656e-130
-1.65223e-132
-4.46482e-135
-1.19295e-137
-3.15497e-140
-8.28327e-143
-2.16911e-145
-5.66658e-148
-1.47661e-150
-3.83408e-153
-9.91662e-156
-2.55618e-158
-6.57844e-161
-1.69499e-163
-4.38905e-166
-1.14656e-168
-3.03486e-171
-8.17138e-174
-2.24723e-176
-6.32154e-179
-1.82393e-181
-5.38271e-184
-1.63046e-186
-5.03357e-189
-1.59055e-191
-5.10607e-194
-1.66496e-196
-5.49162e-199
-1.81803e-201
-6.01005e-204
-1.9633e-206
-6.25538e-209
-1.91246e-211
-5.49833e-214
-1.45027e-216
-3.40495e-219
-3.45309e-111
-1.2834e-113
-4.48187e-116
-1.47894e-118
-4.64037e-121
-1.3937e-123
-4.03344e-126
-1.13183e-128
-3.09534e-131
-8.28447e-134
-2.17772e-136
-5.64118e-139
-1.4415e-141
-3.65674e-144
-9.28166e-147
-2.35259e-149
-5.94653e-152
-1.49922e-154
-3.77175e-157
-9.4739e-160
-2.37848e-162
-5.97891e-165
-1.50914e-167
-3.8373e-170
-9.8708e-173
-2.57886e-175
-6.8745e-178
-1.87271e-180
-5.23059e-183
-1.49363e-185
-4.37755e-188
-1.30826e-190
-4.00094e-193
-1.24354e-195
-3.92171e-198
-1.24985e-200
-3.99337e-203
-1.27161e-205
-3.99331e-208
-1.22149e-210
-3.5859e-213
-9.91512e-216
-2.51698e-218
-5.67222e-221
-1.93587e-112
-7.08678e-115
-2.43746e-117
-7.92028e-120
-2.44631e-122
-7.22869e-125
-2.05674e-127
-5.67013e-130
-1.52354e-132
-4.00897e-135
-1.03657e-137
-2.64206e-140
-6.64723e-143
-1.65833e-145
-4.12412e-148
-1.02297e-150
-2.53106e-153
-6.24438e-156
-1.53656e-158
-3.77388e-161
-9.26637e-164
-2.27987e-166
-5.63912e-169
-1.40667e-171
-3.55115e-174
-9.10053e-177
-2.37649e-179
-6.32954e-182
-1.72503e-184
-4.7977e-187
-1.36703e-189
-3.96699e-192
-1.1759e-194
-3.53901e-197
-1.07905e-199
-3.31993e-202
-1.02257e-204
-3.13246e-207
-9.44603e-210
-2.76822e-212
-7.76103e-215
-2.04166e-217
-4.91764e-220
-1.05146e-222
-1.04201e-113
-3.7549e-116
-1.27115e-118
-4.06475e-121
-1.23506e-123
-3.5881e-126
-1.00298e-128
-2.71357e-131
-7.14062e-134
-1.83422e-136
-4.61337e-139
-1.14011e-141
-2.77295e-144
-6.69305e-147
-1.61564e-149
-3.8924e-152
-9.35285e-155
-2.24309e-157
-5.37301e-160
-1.28611e-162
-3.07894e-165
-7.3818e-168
-1.77715e-170
-4.30961e-173
-1.05632e-175
-2.6252e-178
-6.64425e-181
-1.71452e-183
-4.52846e-186
-1.22132e-188
-3.37529e-191
-9.50246e-194
-2.73046e-196
-7.96181e-199
-2.34896e-201
-6.98273e-204
-2.07511e-206
-6.12158e-209
-1.77443e-211
-4.99085e-214
-1.34157e-216
-3.38211e-219
-7.80187e-222
-1.59554e-224
-5.38739e-115
-1.90967e-117
-6.35853e-120
-1.99936e-122
-5.97127e-125
-1.70416e-127
-4.67615e-130
-1.2409e-132
-3.20148e-135
-8.06567e-138
-1.99088e-140
-4.82922e-143
-1.15322e-145
-2.72934e-148
-6.43806e-151
-1.51372e-153
-3.54822e-156
-8.29441e-159
-1.93454e-161
-4.50399e-164
-1.04817e-166
-2.44298e-169
-5.72149e-172
-1.35173e-174
-3.23276e-177
-7.84432e-180
-1.93805e-182
-4.87862e-185
-1.25559e-187
-3.29549e-190
-8.85017e-193
-2.41893e-195
-6.73811e-198
-1.90278e-200
-5.42893e-203
-1.55824e-205
-4.46488e-208
-1.26786e-210
-3.53215e-213
-9.53394e-216
-2.4555e-218
-5.9217e-221
-1.30528e-223
-2.55041e-226
-2.67542e-116
-9.32256e-119
-3.05102e-121
-9.42721e-124
-2.76558e-126
-7.74882e-129
-2.08608e-131
-5.42643e-134
-1.37009e-136
-3.36751e-139
-8.08036e-142
-1.89879e-144
-4.38031e-147
-1.00237e-149
-2.29321e-152
-5.23267e-155
-1.18968e-157
-2.69472e-160
-6.08186e-163
-1.36866e-165
-3.07612e-168
-6.92327e-171
-1.56624e-173
-3.57884e-176
-8.29698e-179
-1.95554e-181
-4.6984e-184
-1.15057e-186
-2.88038e-189
-7.35165e-192
-1.9184e-194
-5.09178e-197
-1.37571e-199
-3.76443e-202
-1.03942e-204
-2.88318e-207
-7.9738e-210
-2.18266e-212
-5.85415e-215
-1.51965e-217
-3.76056e-220
-8.70819e-223
-1.84204e-225
-3.45239e-228
-2.29136e-118
-7.78932e-121
-2.48607e-123
-7.48539e-126
-2.13723e-128
-5.81889e-131
-1.51896e-133
-3.82273e-136
-9.32524e-139
-2.21497e-141
-5.13546e-144
-1.16336e-146
-2.57488e-149
-5.62016e-152
-1.21801e-154
-2.62667e-157
-5.64025e-160
-1.20542e-162
-2.56465e-165
-5.43996e-168
-1.1531e-170
-2.45046e-173
-5.24014e-176
-1.13132e-178
-2.47527e-181
-5.50029e-184
-1.24417e-186
-2.86493e-189
-6.72896e-192
-1.60831e-194
-3.91815e-197
-9.69119e-200
-2.43233e-202
-6.17017e-205
-1.57555e-207
-4.03195e-210
-1.02697e-212
-2.58389e-215
-6.36037e-218
-1.51332e-220
-3.42893e-223
-7.26499e-226
-1.40584e-228
-2.41183e-231