/*--------------------------------*- C++ -*----------------------------------*\
| =========                 |                                                 |
| \\      /  F ield         | OpenFOAM: The Open Source CFD Toolbox           |
|  \\    /   O peration     | Version:  v1912                                 |
|   \\  /    A nd           | Website:  www.openfoam.com                      |
|    \\/     M anipulation  |                                                 |
\*---------------------------------------------------------------------------*/
FoamFile
{
    version     2.0;
    format      ascii;
    class       volScalarField;
    location    "30";
    object      p_rgh;
}
// * * * * * * * * * * * * * * * * * * * * * * * * * * * * * * * * * * * * * //

dimensions      [1 -1 -2 0 0 0 0];


internalField   nonuniform List<scalar> 
14268
(
-52.7789
-71.0029
-82.0172
-85.1193
-80.1299
-67.4161
-47.8533
-23.112
3.49576
31.6426
53.6238
69.6449
76.3711
71.8651
55.6835
28.4126
-7.84253
-49.7811
-94.1158
-136.891
-174.438
-203.661
-222.408
-229.611
-225.776
-212.591
-192.966
-171.625
-153.355
-142.772
-142.68
-154.52
-177.05
-206.712
-240.991
-262.548
-270.885
-268.512
-262.352
-257.81
-257.579
-260.478
-265.342
-266.442
-52.7797
-71.0038
-82.0181
-85.1203
-80.1308
-67.4169
-47.8539
-23.1123
3.49584
31.6428
53.6245
69.6458
76.3722
71.8663
55.6846
28.4134
-7.84199
-49.7809
-94.1161
-136.892
-174.439
-203.662
-222.409
-229.612
-225.777
-212.592
-192.966
-171.624
-153.354
-142.771
-142.679
-154.519
-177.05
-206.713
-240.993
-262.549
-270.886
-268.513
-262.352
-257.81
-257.579
-260.478
-265.343
-266.489
-52.781
-71.0053
-82.0198
-85.1219
-80.1325
-67.4183
-47.8549
-23.1128
3.49611
31.6434
53.6258
69.6478
76.3745
71.8687
55.6868
28.4153
-7.84083
-49.7805
-94.1165
-136.893
-174.441
-203.664
-222.412
-229.614
-225.779
-212.593
-192.966
-171.624
-153.353
-142.769
-142.676
-154.517
-177.049
-206.713
-240.995
-262.552
-270.888
-268.513
-262.352
-257.809
-257.578
-260.478
-265.344
-266.496
-52.783
-71.0076
-82.0223
-85.1245
-80.135
-67.4204
-47.8565
-23.1135
3.49657
31.6443
53.6279
69.6507
76.378
71.8724
55.6902
28.4181
-7.83905
-49.7799
-94.1171
-136.895
-174.443
-203.667
-222.415
-229.618
-225.782
-212.595
-192.967
-171.623
-153.35
-142.766
-142.673
-154.514
-177.047
-206.714
-240.998
-262.556
-270.891
-268.514
-262.351
-257.808
-257.577
-260.478
-265.345
-266.539
-52.7856
-71.0107
-82.0257
-85.1279
-80.1382
-67.4233
-47.8585
-23.1144
3.49722
31.6455
53.6306
69.6547
76.3827
71.8773
55.6947
28.4218
-7.83666
-49.779
-94.1178
-136.897
-174.447
-203.672
-222.42
-229.622
-225.786
-212.598
-192.968
-171.621
-153.347
-142.761
-142.668
-154.51
-177.045
-206.715
-241.003
-262.561
-270.896
-268.516
-262.351
-257.807
-257.576
-260.477
-265.346
-266.552
-52.7889
-71.0146
-82.0299
-85.1323
-80.1424
-67.4268
-47.8611
-23.1155
3.49805
31.6469
53.634
69.6596
76.3886
71.8834
55.7004
28.4264
-7.83367
-49.7779
-94.1187
-136.9
-174.451
-203.677
-222.426
-229.628
-225.79
-212.601
-192.968
-171.62
-153.343
-142.756
-142.662
-154.505
-177.043
-206.716
-241.009
-262.568
-270.901
-268.517
-262.35
-257.805
-257.574
-260.477
-265.348
-266.591
-52.7929
-71.0192
-82.0349
-85.1374
-80.1473
-67.431
-47.8642
-23.1169
3.49906
31.6487
53.6382
69.6655
76.3956
71.8907
55.7072
28.432
-7.83009
-49.7766
-94.1198
-136.903
-174.456
-203.684
-222.433
-229.635
-225.796
-212.605
-192.969
-171.618
-153.339
-142.749
-142.655
-154.499
-177.039
-206.718
-241.016
-262.576
-270.908
-268.519
-262.349
-257.803
-257.572
-260.477
-265.351
-266.61
-52.7975
-71.0245
-82.0408
-85.1434
-80.153
-67.436
-47.8678
-23.1184
3.50026
31.6506
53.643
69.6723
76.4038
71.8993
55.7152
28.4386
-7.82591
-49.7751
-94.1211
-136.907
-174.463
-203.692
-222.442
-229.643
-225.803
-212.609
-192.97
-171.615
-153.333
-142.742
-142.647
-154.492
-177.036
-206.72
-241.024
-262.585
-270.916
-268.521
-262.349
-257.8
-257.569
-260.476
-265.353
-266.646
-52.8028
-71.0307
-82.0475
-85.1502
-80.1596
-67.4416
-47.8719
-23.1203
3.50164
31.6529
53.6485
69.6802
76.4132
71.9091
55.7243
28.446
-7.82113
-49.7733
-94.1226
-136.912
-174.47
-203.701
-222.452
-229.653
-225.811
-212.614
-192.972
-171.613
-153.327
-142.733
-142.638
-154.484
-177.031
-206.722
-241.033
-262.596
-270.924
-268.524
-262.348
-257.797
-257.566
-260.475
-265.356
-266.669
-52.8087
-71.0376
-82.0551
-85.158
-80.167
-67.448
-47.8765
-23.1223
3.5032
31.6554
53.6546
69.689
76.4238
71.9201
55.7345
28.4544
-7.81576
-49.7714
-94.1243
-136.917
-174.478
-203.71
-222.463
-229.663
-225.819
-212.619
-192.973
-171.61
-153.32
-142.723
-142.627
-154.475
-177.026
-206.724
-241.043
-262.608
-270.934
-268.527
-262.346
-257.794
-257.563
-260.475
-265.36
-266.703
-52.8153
-71.0453
-82.0635
-85.1666
-80.1752
-67.455
-47.8816
-23.1246
3.50496
31.6582
53.6615
69.6989
76.4355
71.9324
55.7459
28.4637
-7.80978
-49.7692
-94.1261
-136.923
-174.487
-203.722
-222.475
-229.675
-225.829
-212.626
-192.975
-171.606
-153.312
-142.712
-142.615
-154.465
-177.021
-206.727
-241.054
-262.622
-270.945
-268.53
-262.345
-257.791
-257.56
-260.474
-265.364
-266.731
-52.8225
-71.0537
-82.0727
-85.176
-80.1843
-67.4628
-47.8873
-23.1271
3.5069
31.6613
53.6691
69.7097
76.4484
71.9459
55.7584
28.474
-7.80321
-49.7668
-94.1281
-136.929
-174.496
-203.734
-222.488
-229.688
-225.84
-212.632
-192.976
-171.602
-153.304
-142.7
-142.603
-154.454
-177.015
-206.73
-241.067
-262.636
-270.957
-268.534
-262.344
-257.787
-257.556
-260.473
-265.368
-266.764
-52.8304
-71.063
-82.0828
-85.1863
-80.1942
-67.4713
-47.8934
-23.1298
3.50902
31.6646
53.6773
69.7215
76.4625
71.9606
55.7721
28.4851
-7.79605
-49.7642
-94.1304
-136.936
-174.507
-203.747
-222.503
-229.702
-225.851
-212.64
-192.978
-171.598
-153.295
-142.687
-142.588
-154.442
-177.009
-206.733
-241.081
-262.652
-270.97
-268.538
-262.342
-257.783
-257.551
-260.472
-265.373
-266.795
-52.839
-71.0729
-82.0938
-85.1975
-80.2048
-67.4804
-47.9001
-23.1328
3.51134
31.6682
53.6862
69.7342
76.4778
71.9765
55.7868
28.4973
-7.78828
-49.7613
-94.1328
-136.943
-174.518
-203.761
-222.518
-229.717
-225.864
-212.648
-192.98
-171.594
-153.285
-142.673
-142.573
-154.429
-177.002
-206.736
-241.096
-262.67
-270.984
-268.542
-262.341
-257.778
-257.547
-260.471
-265.377
-266.827
-52.8529
-71.0891
-82.1114
-85.2155
-80.2221
-67.4953
-47.9109
-23.1375
3.5151
31.674
53.7006
69.7549
76.5024
72.0022
55.8107
28.5168
-7.77574
-49.7567
-94.1367
-136.955
-174.537
-203.785
-222.544
-229.741
-225.884
-212.661
-192.984
-171.587
-153.268
-142.651
-142.549
-154.408
-176.99
-206.741
-241.12
-262.698
-271.007
-268.549
-262.338
-257.771
-257.539
-260.469
-265.386
-266.877
-52.874
-71.1137
-82.1383
-85.243
-80.2484
-67.5178
-47.9273
-23.1448
3.52089
31.6828
53.7226
69.7863
76.54
72.0414
55.8471
28.5467
-7.75662
-49.7498
-94.1426
-136.973
-174.565
-203.82
-222.583
-229.779
-225.915
-212.681
-192.989
-171.576
-153.244
-142.616
-142.511
-154.377
-176.973
-206.75
-241.156
-262.741
-271.042
-268.559
-262.334
-257.759
-257.528
-260.467
-265.398
-266.943
-52.8977
-71.1413
-82.1685
-85.2739
-80.278
-67.5433
-47.9458
-23.153
3.52746
31.6926
53.7474
69.8217
76.5822
72.0856
55.8881
28.5802
-7.73511
-49.7419
-94.1493
-136.994
-174.597
-203.86
-222.626
-229.821
-225.949
-212.703
-192.994
-171.564
-153.216
-142.577
-142.469
-154.341
-176.954
-206.759
-241.198
-262.789
-271.082
-268.571
-262.33
-257.746
-257.515
-260.464
-265.412
-267.017
-52.9241
-71.1721
-82.2022
-85.3083
-80.3109
-67.5715
-47.9663
-23.1621
3.53483
31.7035
53.7748
69.861
76.6292
72.1346
55.9336
28.6175
-7.71121
-49.7332
-94.1567
-137.016
-174.633
-203.905
-222.675
-229.868
-225.988
-212.728
-193.001
-171.55
-153.185
-142.533
-142.422
-154.301
-176.933
-206.77
-241.243
-262.843
-271.126
-268.584
-262.325
-257.732
-257.501
-260.46
-265.426
-267.087
-52.9531
-71.2059
-82.2391
-85.3461
-80.3472
-67.6026
-47.989
-23.1721
3.54302
31.7153
53.8051
69.9043
76.6808
72.1885
55.9837
28.6586
-7.68491
-49.7235
-94.1648
-137.041
-174.671
-203.953
-222.728
-229.919
-226.031
-212.755
-193.008
-171.535
-153.151
-142.485
-142.37
-154.257
-176.909
-206.781
-241.294
-262.902
-271.174
-268.598
-262.32
-257.717
-257.485
-260.457
-265.444
-267.167
-52.9847
-71.2428
-82.2795
-85.3873
-80.3866
-67.6365
-48.0136
-23.1831
3.55205
31.7281
53.8381
69.9515
76.7373
72.2474
56.0383
28.7033
-7.65622
-49.7131
-94.1737
-137.068
-174.714
-204.007
-222.786
-229.975
-226.077
-212.785
-193.015
-171.519
-153.113
-142.433
-142.313
-154.21
-176.882
-206.793
-241.349
-262.967
-271.226
-268.614
-262.314
-257.7
-257.467
-260.451
-265.461
-267.242
-53.0191
-71.2828
-82.3232
-85.4325
-80.4295
-67.6732
-48.0404
-23.195
3.56194
31.7419
53.8739
70.0026
76.7982
72.3112
56.0975
28.7518
-7.62514
-49.7017
-94.1834
-137.098
-174.76
-204.064
-222.85
-230.036
-226.127
-212.817
-193.023
-171.502
-153.073
-142.377
-142.252
-154.158
-176.854
-206.807
-241.409
-263.037
-271.283
-268.631
-262.307
-257.681
-257.449
-260.45
-265.483
-267.326
-53.289
-71.5974
-82.6671
-85.7761
-80.7663
-67.9625
-48.2508
-23.2883
3.64108
31.8497
54.1559
70.4058
77.2818
72.8139
56.5641
29.1341
-7.38008
-49.612
-94.2591
-137.33
-175.123
-204.519
-223.347
-230.515
-226.522
-213.07
-193.088
-171.363
-152.755
-141.931
-141.77
-153.741
-176.639
-206.914
-241.88
-263.589
-271.731
-268.764
-262.256
-257.535
-257.293
-260.385
-265.613
-267.921
-54.287
-72.7612
-83.9448
-87.1816
-82.0137
-69.0319
-49.0296
-23.6393
4.00375
32.1731
55.1985
71.8879
78.9981
74.6571
58.2783
30.5374
-6.48224
-49.2866
-94.5433
-138.191
-176.463
-206.198
-225.185
-232.296
-227.988
-214.01
-193.329
-170.864
-151.589
-140.286
-139.989
-152.237
-175.811
-207.329
-243.632
-265.624
-273.552
-269.264
-262.062
-257.007
-256.919
-260.544
-266.4
-269.514
-55.7693
-74.4879
-85.8219
-88.94
-83.866
-70.6307
-50.1982
-24.185
4.29636
32.9111
56.7863
74.1253
81.7955
77.4592
60.8751
32.6591
-5.12284
-48.7892
-94.9625
-139.475
-178.467
-208.707
-227.925
-234.914
-230.169
-215.412
-193.68
-170.071
-149.809
-137.79
-137.293
-149.951
-174.566
-207.985
-246.313
-268.762
-275.714
-270.047
-261.721
-256.124
-255.69
-259.682
-266.806
-271.83
-57.7659
-76.8202
-88.3879
-91.7926
-86.3818
-72.7946
-51.7853
-24.9529
4.55982
34.0019
58.9206
77.1018
85.1356
81.1671
64.3393
35.4883
-3.31533
-48.1375
-95.541
-141.217
-181.177
-212.106
-231.654
-238.556
-233.161
-217.333
-194.18
-169.069
-147.448
-134.441
-133.647
-146.849
-172.87
-208.934
-250.064
-273.066
-279.28
-271.254
-261.242
-254.997
-255.056
-260.172
-268.57
-274.874
-60.25
-79.7196
-91.5474
-94.8109
-89.5181
-75.5112
-53.7857
-25.939
4.82898
35.4385
61.641
80.8962
90.1259
85.9391
68.7659
39.0906
-1.01337
-47.2997
-96.2574
-143.399
-184.578
-216.369
-236.317
-243.018
-236.882
-219.735
-194.782
-167.708
-144.384
-130.11
-128.967
-142.836
-170.627
-210.234
-254.983
-278.875
-282.868
-272.712
-260.526
-253.255
-252.505
-258.122
-268.773
-278.472
-63.2694
-83.2531
-95.4374
-99.0323
-93.3752
-78.8466
-56.2521
-27.184
5.08815
37.1893
64.9207
85.4141
94.88
91.6153
74.1092
43.4413
1.75479
-46.3097
-97.1562
-146.082
-188.748
-221.602
-242.075
-248.661
-241.543
-222.737
-195.574
-166.166
-140.704
-124.892
-123.242
-137.998
-167.868
-212.011
-261.165
-286.119
-287.976
-274.507
-259.589
-251.379
-251.605
-259.004
-271.855
-283.209
-66.7936
-87.3778
-99.9553
-103.548
-97.8853
-82.7742
-59.167
-28.67
5.37062
39.2918
68.8586
90.9324
103.218
98.5146
80.5275
48.6518
5.06022
-45.119
-98.206
-149.245
-193.666
-227.773
-248.846
-255.201
-246.98
-226.262
-196.463
-164.166
-136.14
-118.494
-116.271
-131.902
-164.411
-214.005
-269.61
-295.453
-294.018
-276.311
-258.255
-248.355
-247.08
-255.091
-271.073
-288.379
-70.8712
-92.1603
-105.218
-109.035
-103.207
-87.4103
-62.6255
-30.4804
5.59708
41.6544
73.3006
96.9408
105.892
106.303
87.9505
54.6966
8.85688
-43.7728
-99.464
-152.962
-199.43
-235.016
-256.829
-263.005
-253.53
-230.51
-197.618
-162.037
-130.972
-111.134
-108.119
-124.957
-160.242
-217.995
-278.774
-307.89
-301.166
-278.342
-256.52
-245.449
-245.81
-256.146
-275.558
-295.871
-75.4944
-97.6032
-111.232
-115.238
-109.206
-92.6606
-66.5425
-32.5143
5.91522
44.4986
78.6365
104.563
119.357
115.675
96.5922
61.7486
13.2008
-42.2133
-100.899
-157.22
-206.044
-243.346
-266.031
-272.013
-260.918
-235.31
-198.828
-159.256
-124.574
-102.308
-98.4679
-116.254
-155.729
-221.725
-292.092
-319.646
-310.444
-279.911
-254.268
-240.614
-238.81
-249.786
-272.894
-301.629
-80.6115
-103.635
-117.916
-122.977
-116.212
-98.8373
-71.2213
-35.0915
5.9566
47.3918
84.2672
112.431
126.816
126.116
106.399
69.6609
18.2207
-40.4585
-102.553
-162.058
-213.495
-252.711
-276.399
-282.417
-269.757
-241.113
-200.528
-156.525
-117.77
-92.2598
-87.3303
-106.6
-150.523
-223.716
-304.544
-336.803
-321.885
-282.482
-251.017
-236.093
-236.433
-250.656
-278.621
-313.404
-86.4622
-110.516
-125.41
-129.037
-123.701
-105.435
-76.1218
-37.6336
6.37043
51.0908
91.1317
122.065
139.04
138.068
117.518
78.5037
23.8244
-38.6374
-104.601
-167.747
-222.219
-263.634
-288.369
-292.766
-279.323
-247.302
-201.998
-152.772
-108.928
-80.5344
-74.4936
-94.8017
-142.52
-232.815
-318.562
-353.412
-329.926
-283.098
-248.175
-229.431
-226.491
-241.368
-273.388
-317.597
-92.7299
-118.053
-134.334
-140.63
-132.88
-113.672
-82.5029
-41.3359
6.02555
54.5413
98.1726
132.226
151.595
151.619
130.29
88.7976
30.6205
-36.0731
-106.418
-173.618
-231.508
-275.59
-302.156
-308.908
-291.299
-255.208
-204.616
-149.368
-100.296
-67.0045
-59.6659
-81.8781
-133.509
-227.435
-328
-363.645
-339.093
-285.061
-242.964
-223.178
-222.111
-240.165
-279.714
-335.46
-99.5096
-125.64
-142.166
-146.76
-141.653
-121.406
-88.2683
-44.387
6.4299
59.0014
106.352
143.626
164.156
166.134
143.636
99.1575
37.0825
-34.3466
-109.356
-180.881
-242.193
-288.584
-315.467
-319.31
-303.029
-262.794
-206.319
-144.654
-89.8906
-52.5278
-43.3446
-66.2504
-127.83
-225.322
-324.911
-362.427
-334.702
-278.94
-233.078
-206.581
-199.801
-219.164
-262.043
-325.204
182.356
168.248
159.769
157.748
163.525
177.866
200.681
231.175
267.933
308.261
346.596
378.042
397.129
401.648
390.365
364.546
327.684
285.104
241.02
200.667
167.816
146.551
139.948
147.917
170.747
198.59
234.082
281.109
329.514
359.047
366.561
346.776
310.574
271.583
235.347
210.425
195.99
184.422
170.061
148.734
121.185
94.5972
59.8937
0.585871
641.832
628.627
620.454
618.305
623.076
635.546
655.6
682.642
715.465
751.574
786.675
815.443
833.276
837.312
826.8
802.349
767.294
726.554
684.682
645.758
613.802
592.093
583.087
587.649
604.244
629.287
663.43
706.472
749.728
777.034
781.9
761.822
722.899
677.585
636.323
616.938
616.348
621.173
621.807
615.452
602.114
583.206
549.507
495.19
48.1973
47.1417
47.1984
48.5721
51.2875
54.7718
58.7816
64.2376
72.6035
84.1755
97.1607
108.72
117.031
122.087
124.083
122.215
115.491
105.267
94.361
84.9865
78.2592
74.5553
74.1035
75.2879
75.6316
78.2153
86.9764
100.872
115.852
121.618
115.522
98.6897
85.224
78.0594
70.5578
67.5072
66.192
64.8708
60.3183
53.2627
43.5649
40.2986
30.334
30.9705
0.246048
0.262569
0.248974
0.263106
0.240905
0.209649
0.168899
0.113534
0.0403667
-0.0474913
-0.130298
-0.20063
-0.253117
-0.278505
-0.263785
-0.220343
-0.147242
-0.0542734
0.0458346
0.145129
0.227406
0.283496
0.306074
0.302136
0.267671
0.203011
0.0986466
-0.0279264
-0.14765
-0.210832
-0.204441
-0.132651
-0.0152701
0.0954683
0.185223
0.203862
0.168472
0.0816708
-0.0076352
-0.0849815
-0.102673
-0.063752
0.0607374
0.277409
0.238692
0.264982
0.303142
0.261291
0.228325
0.188363
0.152649
0.106174
0.0421337
-0.0394087
-0.117638
-0.18166
-0.221205
-0.236386
-0.239852
-0.210318
-0.151253
-0.0630563
0.0349231
0.128908
0.207608
0.260002
0.27719
0.263611
0.258185
0.220338
0.119819
-0.00725318
-0.124155
-0.19162
-0.190807
-0.118869
-0.0103687
0.0779276
0.135561
0.139195
0.0981228
0.0338557
-0.0416917
-0.106336
-0.140704
-0.110246
-0.0634519
-0.121008
0.225939
0.238323
0.228856
0.23504
0.214796
0.18463
0.148106
0.0990112
0.0369018
-0.0370351
-0.106261
-0.164837
-0.208251
-0.230931
-0.218242
-0.183572
-0.122632
-0.043797
0.0409427
0.124072
0.193397
0.240629
0.260491
0.255996
0.23049
0.174498
0.087627
-0.0141188
-0.106698
-0.156695
-0.152077
-0.0983294
-0.00925138
0.0717086
0.138337
0.153865
0.133038
0.070307
0.00275869
-0.0521127
-0.0688253
-0.0328773
0.0446233
0.254847
0.215698
0.234795
0.248068
0.23068
0.205068
0.172013
0.13574
0.0915199
0.0349064
-0.0316154
-0.0956056
-0.148888
-0.183255
-0.194519
-0.194527
-0.166983
-0.117619
-0.0472266
0.0318981
0.108489
0.172742
0.216505
0.233987
0.227074
0.210998
0.175617
0.10041
0.00625302
-0.0807524
-0.130504
-0.131541
-0.085008
-0.00816664
0.0563831
0.099407
0.10444
0.0750495
0.0304353
-0.025343
-0.0686207
-0.0883141
-0.0675073
-0.0263865
-0.0195505
0.205981
0.21694
0.215961
0.210834
0.192309
0.164258
0.130744
0.0871016
0.0337199
-0.027404
-0.085632
-0.134366
-0.169377
-0.187866
-0.178302
-0.149961
-0.100222
-0.0345061
0.0365395
0.10541
0.163239
0.203083
0.220816
0.216754
0.195441
0.148454
0.0792665
-0.00116378
-0.0692689
-0.110671
-0.110469
-0.0723839
-0.00648192
0.0530557
0.102393
0.115242
0.10247
0.0559515
0.00850169
-0.0282277
-0.0432453
-0.0136345
0.0404416
0.147887
0.196341
0.209633
0.216065
0.205215
0.183849
0.155485
0.12134
0.0806192
0.0315308
-0.0240148
-0.0768766
-0.120996
-0.150852
-0.160144
-0.157723
-0.133797
-0.0913279
-0.034259
0.0302307
0.0928914
0.145633
0.182116
0.198018
0.194623
0.177602
0.146115
0.0868189
0.0147154
-0.0496935
-0.0881417
-0.090882
-0.0596511
-0.00506472
0.0429421
0.0753217
0.0805812
0.0606801
0.0256122
-0.0122492
-0.0422248
-0.0550289
-0.0387544
-0.00669163
0.0199582
0.187997
0.197126
0.197183
0.189753
0.172708
0.147499
0.116524
0.0778086
0.0317869
-0.0194017
-0.0679912
-0.108563
-0.136716
-0.151391
-0.144609
-0.120982
-0.0806962
-0.0266513
0.0326031
0.0897286
0.137876
0.171381
0.18693
0.184029
0.165934
0.12806
0.0723942
0.0105564
-0.0426939
-0.0760473
-0.0779362
-0.0517423
-0.004633
0.0390152
0.0752272
0.086081
0.077445
0.0473993
0.0111524
-0.0125644
-0.0251471
-0.00128928
0.0427
0.0878875
0.179321
0.188981
0.191887
0.183367
0.165072
0.140064
0.10913
0.0724089
0.0298989
-0.0166719
-0.0609033
-0.0976608
-0.123001
-0.131692
-0.127729
-0.107
-0.0714029
-0.0239716
0.0290167
0.0804744
0.124003
0.154494
0.168493
0.166562
0.150739
0.121035
0.0769968
0.0209682
-0.0283149
-0.0575254
-0.0611546
-0.0401191
-0.00168273
0.0341998
0.0592945
0.0638147
0.0495305
0.023617
-0.00262648
-0.0239608
-0.0328377
-0.0207787
0.00306425
0.0298595
0.171859
0.179605
0.179225
0.171325
0.155607
0.132992
0.10473
0.0704919
0.0307766
-0.0123137
-0.0530289
-0.0868718
-0.110168
-0.120665
-0.116304
-0.096683
-0.0633722
-0.0195875
0.0294198
0.0766877
0.11675
0.144902
0.158399
0.156574
0.141631
0.112169
0.0673369
0.0180536
-0.0233184
-0.0502072
-0.0534378
-0.0358997
-0.00236755
0.0294282
0.0551012
0.0643122
0.0591429
0.0421819
0.0117296
-0.00328198
-0.0130677
0.00340398
0.0353303
0.0546666
0.164305
0.171503
0.172122
0.16458
0.148689
0.126522
0.0988722
0.066168
0.0293254
-0.0100063
-0.0471844
-0.0779757
-0.0992549
-0.107899
-0.102988
-0.085162
-0.0554262
-0.0161006
0.0278714
0.0703316
0.106402
0.131925
0.144044
0.142844
0.129067
0.103482
0.0680796
0.0248537
-0.0125695
-0.0354488
-0.0393051
-0.0253901
0.00170973
0.0280447
0.0476902
0.0516415
0.0414553
0.0221699
0.00347221
-0.0117142
-0.0181217
-0.00904835
0.00769912
0.0278561
0.15736
0.163404
0.162742
0.155096
0.140716
0.120348
0.0948329
0.0646071
0.030342
-0.00610102
-0.0403433
-0.0686668
-0.0880008
-0.0961533
-0.092853
-0.0763766
-0.0489799
-0.0130375
0.0270685
0.0661131
0.0994092
0.123064
0.134664
0.133659
0.121356
0.0974326
0.0634971
0.0239478
-0.00882307
-0.030744
-0.0350197
-0.0238791
-0.000289825
0.0229411
0.0416623
0.0484848
0.0452876
0.0342565
0.0119125
0.00162983
-0.00587977
0.00439581
0.0226653
0.0342951
0.150795
0.15609
0.155536
0.148401
0.134433
0.114748
0.090201
0.0613298
0.0293894
-0.00401854
-0.0354068
-0.0612968
-0.0792152
-0.0866946
-0.0822828
-0.0672588
-0.042415
-0.00996797
0.0263892
0.0617909
0.0917658
0.113152
0.123616
0.122875
0.111335
0.0899741
0.0607849
0.0270098
-0.00148338
-0.0196428
-0.0234331
-0.0141069
0.00476747
0.0238219
0.0378771
0.0428056
0.034987
0.0212654
0.00683427
-0.00389644
-0.00880216
-0.00296907
0.00853826
0.0209623
0.144576
0.149054
0.147965
0.140779
0.127697
0.109364
0.0864831
0.0598477
0.0302288
-0.000671161
-0.029577
-0.0533552
-0.0694999
-0.076082
-0.0733238
-0.0596311
-0.0370391
-0.0075004
0.0255895
0.0578662
0.0853573
0.105188
0.115104
0.114679
0.104639
0.0853158
0.0588293
0.0282738
0.0020446
-0.0160511
-0.0209661
-0.0142291
0.00185383
0.0189422
0.0324513
0.0378927
0.0351266
0.0274648
0.0116613
0.00381255
-0.00203147
0.00324049
0.0129682
0.0190052
0.138729
0.142572
0.141326
0.134508
0.12203
0.104536
0.0828317
0.05749
0.0297719
0.00124316
-0.0253378
-0.0472063
-0.0623105
-0.06879
-0.0649944
-0.0524337
-0.0317485
-0.00492185
0.0251063
0.0544256
0.0794215
0.0974369
0.106427
0.106063
0.096613
0.079129
0.0557785
0.0290126
0.00630086
-0.00837769
-0.0120348
-0.0059872
0.00693308
0.0210228
0.0305029
0.0345858
0.0294182
0.019649
0.00842235
0.000524472
-0.00350057
-0.000597038
0.0062277
0.0119115
0.133189
0.13641
0.134875
0.128144
0.116286
0.0998431
0.0794823
0.0559839
0.0303559
0.00402861
-0.0204426
-0.0404927
-0.0540644
-0.0594644
-0.0571601
-0.0458905
-0.0271777
-0.00284916
0.0244376
0.0511501
0.0739899
0.0905386
0.0990126
0.0989877
0.0908663
0.0753208
0.0543572
0.0302236
0.00959802
-0.00505723
-0.0102282
-0.00656463
0.00396758
0.0162158
0.0260276
0.0303843
0.0277463
0.0221993
0.0109452
0.00436476
-0.000269834
0.00142854
0.00603237
0.00769487
0.127966
0.130667
0.128974
0.122501
0.111253
0.0956664
0.0764453
0.0543138
0.0302726
0.00583563
-0.016761
-0.0353038
-0.0480666
-0.0536788
-0.0505186
-0.0400773
-0.0229369
-0.000763779
0.0240358
0.0483338
0.0691316
0.0842543
0.0920259
0.0919689
0.0843227
0.0701754
0.0515085
0.0302591
0.0121664
-0.00033087
-0.00394359
-0.000257377
0.00841951
0.0185107
0.0250994
0.0281887
0.0245694
0.0174975
0.00874975
0.00250404
-0.00115202
-0.000590125
0.00229585
0.00306952
0.123022
0.125236
0.123352
0.117025
0.106293
0.0915874
0.073535
0.0528599
0.0305987
0.00808953
-0.0127142
-0.0297031
-0.0411842
-0.0457238
-0.0438383
-0.0345511
-0.0190727
0.00102864
0.0235243
0.0456372
0.0646288
0.0784878
0.085698
0.085941
0.0794472
0.0669774
0.0502699
0.0311339
0.0146491
0.00290904
-0.00208752
-0.000545475
0.00593175
0.0146328
0.0213266
0.0247608
0.0223772
0.0179902
0.00987785
0.00407112
0.00012906
-0.000464101
0.000601182
-0.000950949
0.118354
0.120147
0.118142
0.112037
0.101857
0.0879572
0.0709493
0.0515642
0.0307688
0.00979257
-0.00949809
-0.0252642
-0.0360884
-0.0409467
-0.0384173
-0.0297937
-0.0156115
0.00267432
0.0231464
0.0432925
0.0606027
0.0732861
0.0799362
0.0801564
0.0740471
0.0626705
0.0477268
0.0308061
0.0162175
0.00573944
0.0017961
0.00369458
0.00927551
0.0164747
0.0207534
0.023122
0.0203131
0.0151796
0.00822535
0.00288927
-0.000686876
-0.00189389
-0.00206959
-0.00458608
0.113933
0.115339
0.113205
0.10726
0.0975426
0.0844063
0.0684225
0.0502939
0.0309471
0.0115718
-0.0061767
-0.0206501
-0.0304378
-0.0343645
-0.0328319
-0.0251847
-0.0123672
0.00418861
0.0227763
0.0410904
0.056885
0.0685035
0.0746544
0.075074
0.069907
0.0599239
0.0464859
0.0313208
0.0180078
0.00827175
0.00386133
0.00406461
0.00788048
0.0136602
0.0180035
0.0204096
0.0183404
0.0144695
0.0085233
0.00333012
-0.000418084
-0.00254661
-0.00403064
-0.00790715
0.109751
0.110821
0.108603
0.102863
0.093636
0.0812386
0.0662006
0.0492143
0.0311523
0.0131458
-0.00336853
-0.016824
-0.0260394
-0.0302312
-0.0283146
-0.021248
-0.00953085
0.00552395
0.0224277
0.0391063
0.0535123
0.064162
0.069825
0.0702246
0.0654087
0.0562661
0.044308
0.0307876
0.0189043
0.0101222
0.00597581
0.00644841
0.0097607
0.0148
0.0174524
0.0191041
0.0167936
0.0128943
0.00720935
0.00235926
-0.00133098
-0.0038721
-0.00624228
-0.0109042
0.105788
0.106549
0.104246
0.0986696
0.0898642
0.0781352
0.0639969
0.0480967
0.0312725
0.0145738
-0.000668838
-0.0130613
-0.0214766
-0.025
-0.0237268
-0.0174354
-0.00685622
0.00678238
0.0221465
0.0373107
0.0504473
0.0601881
0.0654579
0.0659785
0.0618924
0.0538885
0.0431342
0.0309811
0.0201053
0.0119738
0.00778813
0.00739522
0.00939036
0.0130226
0.0155223
0.0169628
0.0151009
0.0116242
0.00686598
0.0022222
-0.00161475
-0.00479451
-0.00811902
-0.0136472
0.102033
0.102524
0.10017
0.094789
0.0864235
0.0753522
0.0620626
0.047168
0.0314572
0.0159243
0.00176879
-0.00975666
-0.0176329
-0.0211986
-0.0198953
-0.014135
-0.00452737
0.00788252
0.0218267
0.0356382
0.0476145
0.0565309
0.0613798
0.0618848
0.0581047
0.0507921
0.0411781
0.0303367
0.020556
0.0131709
0.00914164
0.00850259
0.0100975
0.0133882
0.0149648
0.0158679
0.0138455
0.0104808
0.00588649
0.00131717
-0.00260983
-0.00612189
-0.0100139
-0.0160976
0.0984703
0.0987164
0.0963119
0.0910912
0.0831069
0.0726277
0.0601171
0.0461725
0.0315203
0.0170868
0.00397103
-0.00670216
-0.0140098
-0.017354
-0.0161829
-0.0110225
-0.00233303
0.00892634
0.0215873
0.034168
0.0450827
0.0532435
0.0577494
0.0583387
0.0550985
0.0486913
0.0399952
0.0302565
0.0212749
0.0144398
0.0104407
0.0094357
0.0103062
0.0125682
0.0136749
0.014212
0.012444
0.00926091
0.00511056
0.000812296
-0.00317623
-0.00713035
-0.0116862
-0.0183253
0.0950892
0.095119
0.0926866
0.0876531
0.0800644
0.0701754
0.0584165
0.0453524
0.031664
0.0182239
0.00603112
-0.00387952
-0.0106484
-0.0135235
-0.0129045
-0.00825871
-0.000402522
0.00982898
0.0213128
0.0327477
0.0426955
0.0501517
0.0543041
0.0548712
0.0519229
0.0460508
0.0382742
0.0295627
0.0214308
0.0151967
0.0113241
0.0101414
0.0105023
0.0122392
0.0129734
0.0132055
0.0113347
0.00826372
0.00427289
-2.26601e-05
-0.00420675
-0.00842611
-0.0133386
-0.0203008
0.0918762
0.0917126
0.0892578
0.0843821
0.0771367
0.0677685
0.0566918
0.0444504
0.0316695
0.0191569
0.00782973
-0.00139307
-0.00777341
-0.0110889
-0.00991661
-0.00572521
0.00139131
0.0106687
0.021105
0.0315034
0.0405828
0.0474227
0.0512572
0.0518744
0.0493267
0.0441902
0.0371439
0.0292727
0.0217727
0.0159972
0.0121721
0.010773
0.0106655
0.0118505
0.0121721
0.0120129
0.0102055
0.00719388
0.00340511
-0.000743203
-0.00491205
-0.00941164
-0.0147895
-0.0220735
0.0888253
0.0884865
0.0860211
0.0813171
0.0744324
0.065592
0.0551785
0.0437066
0.0317615
0.0200972
0.00955649
0.000998162
-0.00484457
-0.00740798
-0.00712765
-0.00341247
0.00301073
0.0114023
0.020858
0.0302984
0.0385768
0.044828
0.0483525
0.0489474
0.0466428
0.0419343
0.0355667
0.0285376
0.0217136
0.0164168
0.0127221
0.0111914
0.0107356
0.0114425
0.0114487
0.0110123
0.00917214
0.00624267
0.00257615
-0.00155301
-0.00591495
-0.01064
-0.0162157
-0.0236627
0.0859194
0.0854304
0.082961
0.0784151
0.071841
0.0634592
0.0536407
0.0428635
0.0317131
0.0208303
0.0110103
0.00300624
-0.00256683
-0.00516636
-0.00470444
-0.00135802
0.00444646
0.0120654
0.0206519
0.0292405
0.0367873
0.0425132
0.0457659
0.0463817
0.044376
0.0402404
0.0345172
0.0281289
0.0218107
0.0168854
0.0132486
0.0115938
0.0108111
0.0111001
0.010804
0.0100984
0.00821617
0.00532057
0.00173385
-0.00233256
-0.00668842
-0.0115689
-0.0174603
-0.0250814
0.0831451
0.0825275
0.0800637
0.0756743
0.0694191
0.0615077
0.0522792
0.0421765
0.0317397
0.0215916
0.012445
0.00502081
-7.00499e-05
-0.00254152
-0.00237026
0.000577648
0.0058075
0.0126811
0.0204436
0.0282393
0.0351078
0.0403385
0.0433266
0.0439179
0.0421089
0.0383256
0.0330832
0.0273397
0.0215678
0.0170243
0.013524
0.0117837
0.0107744
0.0106915
0.0101599
0.00920813
0.00729066
0.00443302
0.000910314
-0.00314566
-0.00763014
-0.0126793
-0.0186697
-0.0263388
0.0805001
0.0797644
0.0773136
0.0730766
0.0671123
0.0596082
0.0508945
0.0413957
0.0316259
0.0221513
0.0136038
0.00662518
0.00172144
-0.000639237
-0.000421033
0.0022167
0.00692598
0.013158
0.0202089
0.0273005
0.0335583
0.0383433
0.0410926
0.0416903
0.0401041
0.0367576
0.0320677
0.0268542
0.021504
0.0172538
0.0138334
0.012003
0.0107729
0.0103713
0.00960431
0.00844092
0.00645658
0.00360991
0.000114641
-0.0039108
-0.00840225
-0.0135408
-0.0197208
-0.0274529
0.0779756
0.0771368
0.074704
0.0706159
0.0649322
0.0578405
0.0496478
0.0407359
0.0315981
0.0227468
0.0147825
0.00830934
0.00383002
0.00152128
0.00153285
0.00384941
0.0080826
0.0136956
0.0200602
0.0264809
0.0321665
0.0365286
0.0390463
0.0396122
0.0381868
0.0351377
0.0308135
0.026055
0.0211344
0.017188
0.0139039
0.0120217
0.0106477
0.0099669
0.00902097
0.00766881
0.00563637
0.0027963
-0.000667902
-0.00469858
-0.00926699
-0.0145088
-0.0207288
-0.0284333
0.0755625
0.0746342
0.0722242
0.0682797
0.0628598
0.056138
0.0483962
0.0400074
0.0314153
0.0231618
0.0156913
0.00957749
0.00523743
0.0030838
0.00308204
0.00512572
0.00892181
0.0140041
0.019787
0.0256288
0.0308078
0.0347966
0.0371144
0.0376671
0.0364023
0.0336737
0.0297819
0.0254824
0.0209303
0.0172271
0.0140359
0.0120908
0.0105677
0.0096471
0.00851024
0.00699651
0.00488733
0.0020436
-0.00141115
-0.00542514
-0.0100014
-0.0152908
-0.0215979
-0.0292897
0.0732534
0.0722477
0.0698648
0.0660595
0.0608907
0.0545255
0.0472377
0.0393699
0.0313221
0.0235996
0.0166442
0.0109705
0.00700289
0.00485957
0.00472196
0.00651499
0.00991477
0.0144745
0.019678
0.0249538
0.0296477
0.0332727
0.0353834
0.0358968
0.0347519
0.0322768
0.0287117
0.0247462
0.0205087
0.017035
0.0139697
0.0119926
0.010382
0.00925762
0.00798181
0.00633209
0.0041646
0.00131287
-0.00213324
-0.00615784
-0.0107753
-0.0161149
-0.0224214
-0.0300374
0.0710408
0.0699687
0.0676167
0.063946
0.0590151
0.052982
0.0460968
0.0386791
0.0311147
0.0238532
0.0173493
0.0119616
0.00809685
0.00610762
0.00592198
0.00747417
0.0105125
0.0146434
0.0193734
0.0241723
0.0284474
0.0317607
0.0337034
0.0341981
0.0331759
0.0309412
0.0276895
0.0240682
0.0201646
0.016907
0.0139472
0.0119338
0.0102229
0.00892029
0.00749311
0.00572485
0.00348953
0.00062475
-0.0028187
-0.00683065
-0.0114476
-0.0168013
-0.0231235
-0.0306759
0.068918
0.0677897
0.0654717
0.0619311
0.057226
0.0515062
0.0450107
0.0380459
0.0309592
0.024162
0.0180875
0.0130992
0.00956395
0.00757867
0.00730815
0.00866397
0.0113659
0.0150479
0.0192872
0.0236071
0.0274701
0.0304686
0.0322251
0.0326719
0.0317373
0.0297011
0.0267178