/*--------------------------------*- C++ -*----------------------------------*\
| =========                 |                                                 |
| \\      /  F ield         | OpenFOAM: The Open Source CFD Toolbox           |
|  \\    /   O peration     | Version:  v1912                                 |
|   \\  /    A nd           | Website:  www.openfoam.com                      |
|    \\/     M anipulation  |                                                 |
\*---------------------------------------------------------------------------*/
FoamFile
{
    version     2.0;
    format      ascii;
    class       volVectorField;
    location    "30";
    object      U;
}
// * * * * * * * * * * * * * * * * * * * * * * * * * * * * * * * * * * * * * //

dimensions      [0 1 -1 0 0 0 0];


internalField   nonuniform List<vector> 
14268
(
(0.010947 -2.21953e-05 0)
(0.0140643 -1.70437e-05 0)
(0.0160897 -1.09572e-05 0)
(0.0168568 -4.02219e-06 0)
(0.0162713 3.00567e-06 0)
(0.0143376 9.5918e-06 0)
(0.011168 1.50505e-05 0)
(0.00703939 1.8663e-05 0)
(0.00237763 1.97338e-05 0)
(-0.00217902 1.7586e-05 0)
(-0.00599778 1.26047e-05 0)
(-0.00859739 4.82106e-06 0)
(-0.00946248 -5.05421e-06 0)
(-0.00821273 -1.65916e-05 0)
(-0.00472339 -2.80252e-05 0)
(0.000915002 -3.80824e-05 0)
(0.00826508 -4.53475e-05 0)
(0.0166718 -4.92248e-05 0)
(0.0254887 -4.9511e-05 0)
(0.0340267 -4.63816e-05 0)
(0.0416019 -4.01257e-05 0)
(0.0477119 -3.14288e-05 0)
(0.0519328 -2.13756e-05 0)
(0.0541729 -1.094e-05 0)
(0.0544394 -1.84281e-06 0)
(0.0532676 3.6788e-06 0)
(0.0513124 3.83785e-06 0)
(0.0499458 -3.1822e-06 0)
(0.0507159 -1.92717e-05 0)
(0.0553793 -4.44741e-05 0)
(0.0658249 -8.16845e-05 0)
(0.0845315 -0.00012711 0)
(0.112051 -0.000171862 0)
(0.148356 -0.000191419 0)
(0.18369 -0.000147996 0)
(0.206859 -7.18254e-05 0)
(0.213517 -9.32218e-06 0)
(0.211409 1.64022e-05 0)
(0.205689 2.05228e-05 0)
(0.201042 1.38561e-05 0)
(0.197331 1.91447e-05 0)
(0.193709 4.63488e-06 0)
(0.188566 9.89355e-05 0)
(0.17162 -0.000331931 0)
(0.0109312 -5.21013e-05 0)
(0.0140485 -3.66148e-05 0)
(0.0160739 -1.813e-05 0)
(0.0168411 2.36134e-06 0)
(0.0162555 2.35377e-05 0)
(0.0143218 4.36406e-05 0)
(0.0111522 6.04438e-05 0)
(0.00702355 7.14252e-05 0)
(0.00236174 7.47652e-05 0)
(-0.00219497 6.88711e-05 0)
(-0.00601375 5.40725e-05 0)
(-0.00861342 3.06942e-05 0)
(-0.00947854 6.11193e-07 0)
(-0.00822882 -3.33948e-05 0)
(-0.00473944 -6.74812e-05 0)
(0.000898964 -9.73739e-05 0)
(0.0082491 -0.000119014 0)
(0.0166559 -0.000130512 0)
(0.0254729 -0.000131322 0)
(0.0340109 -0.000121364 0)
(0.0415862 -0.00010216 0)
(0.0476962 -7.58313e-05 0)
(0.0519171 -4.51816e-05 0)
(0.0541572 -1.38555e-05 0)
(0.0544236 1.31852e-05 0)
(0.0532518 2.99752e-05 0)
(0.0512964 3.06533e-05 0)
(0.0499296 9.25153e-06 0)
(0.0506995 -3.79059e-05 0)
(0.0553626 -0.000112921 0)
(0.0658081 -0.000222773 0)
(0.0845147 -0.000356711 0)
(0.112035 -0.000490217 0)
(0.148342 -0.000565306 0)
(0.183676 -0.000453455 0)
(0.206846 -0.000229547 0)
(0.213504 -3.41739e-05 0)
(0.211395 6.57226e-05 0)
(0.205676 8.4184e-05 0)
(0.201028 6.72255e-05 0)
(0.197318 5.86092e-05 0)
(0.193693 7.62914e-05 0)
(0.188613 0.000130828 0)
(0.172077 0.000466195 0)
(0.0109176 -9.52649e-05 0)
(0.014035 -6.95946e-05 0)
(0.0160605 -3.91266e-05 0)
(0.0168276 -5.27235e-06 0)
(0.0162421 3.0036e-05 0)
(0.0143084 6.35309e-05 0)
(0.0111386 9.14199e-05 0)
(0.00700991 0.000109749 0)
(0.00234796 0.000115304 0)
(-0.00220888 0.000105184 0)
(-0.00602783 8.03727e-05 0)
(-0.0086276 4.12904e-05 0)
(-0.00949281 -9.19178e-06 0)
(-0.00824309 -6.59372e-05 0)
(-0.00475367 -0.000122632 0)
(0.000884851 -0.000172416 0)
(0.00823517 -0.000208378 0)
(0.0166422 -0.000227602 0)
(0.0254594 -0.000228996 0)
(0.0339976 -0.00021282 0)
(0.041573 -0.000181169 0)
(0.0476832 -0.000137551 0)
(0.0519042 -8.69347e-05 0)
(0.0541444 -3.50093e-05 0)
(0.0544107 9.8325e-06 0)
(0.0532388 3.7907e-05 0)
(0.0512833 3.90018e-05 0)
(0.0499162 3.32323e-06 0)
(0.050686 -7.56146e-05 0)
(0.0553491 -0.000200589 0)
(0.0657946 -0.000384401 0)
(0.0845019 -0.000609101 0)
(0.112023 -0.000833793 0)
(0.148333 -0.000941868 0)
(0.183671 -0.000741667 0)
(0.206842 -0.000368935 0)
(0.213498 -5.16087e-05 0)
(0.211388 9.97093e-05 0)
(0.205668 0.000126809 0)
(0.201019 9.64328e-05 0)
(0.197309 9.83881e-05 0)
(0.193683 8.68881e-05 0)
(0.188614 0.000322625 0)
(0.172134 -0.000130869 0)
(0.0109132 -0.000125882 0)
(0.0140306 -8.98442e-05 0)
(0.0160562 -4.69476e-05 0)
(0.0168233 6.2561e-07 0)
(0.0162378 5.01296e-05 0)
(0.014304 9.70896e-05 0)
(0.0111342 0.000136283 0)
(0.00700528 0.00016195 0)
(0.00234315 0.000169704 0)
(-0.0022139 0.00015582 0)
(-0.00603303 0.000121157 0)
(-0.00863299 6.64601e-05 0)
(-0.00949829 -4.04005e-06 0)
(-0.00824862 -8.33052e-05 0)
(-0.00475914 -0.000162687 0)
(0.000879517 -0.000232339 0)
(0.00823002 -0.000282702 0)
(0.0166373 -0.00030937 0)
(0.0254547 -0.000311098 0)
(0.0339932 -0.000287959 0)
(0.0415688 -0.000243292 0)
(0.0476792 -0.000182037 0)
(0.0519002 -0.00011092 0)
(0.0541405 -3.81696e-05 0)
(0.0544067 2.44268e-05 0)
(0.0532345 6.37299e-05 0)
(0.0512787 6.52881e-05 0)
(0.0499112 1.52468e-05 0)
(0.0506806 -9.46657e-05 0)
(0.0553432 -0.00026936 0)
(0.0657885 -0.000525525 0)
(0.0844959 -0.000837158 0)
(0.112019 -0.00114606 0)
(0.148331 -0.00131487 0)
(0.183671 -0.00105111 0)
(0.206843 -0.000528827 0)
(0.213499 -7.65013e-05 0)
(0.211386 0.000148705 0)
(0.205665 0.000189555 0)
(0.201015 0.000148764 0)
(0.197307 0.000136633 0)
(0.193678 0.000155761 0)
(0.188659 0.000358821 0)
(0.172491 0.000566286 0)
(0.0109125 -0.000168977 0)
(0.01403 -0.000122724 0)
(0.0160556 -6.77395e-05 0)
(0.0168228 -6.54471e-06 0)
(0.0162373 5.70877e-05 0)
(0.0143035 0.000117373 0)
(0.0111335 0.000167608 0)
(0.00700438 0.000200598 0)
(0.00234203 0.000210582 0)
(-0.00221531 0.000192494 0)
(-0.00603467 0.000147789 0)
(-0.00863485 7.745e-05 0)
(-0.00950029 -1.31342e-05 0)
(-0.00825067 -0.000115269 0)
(-0.00476114 -0.000217385 0)
(0.000877705 -0.000307054 0)
(0.00822847 -0.000371913 0)
(0.016636 -0.00040649 0)
(0.0254538 -0.000408982 0)
(0.0339925 -0.000379725 0)
(0.0415684 -0.000322662 0)
(0.0476789 -0.000244096 0)
(0.0519 -0.000152873 0)
(0.0541402 -5.93386e-05 0)
(0.0544062 2.16713e-05 0)
(0.0532337 7.21514e-05 0)
(0.0512774 7.41047e-05 0)
(0.0499093 9.88013e-06 0)
(0.050678 -0.00013224 0)
(0.0553397 -0.000357166 0)
(0.0657842 -0.000687668 0)
(0.0844914 -0.00109169 0)
(0.112015 -0.00149432 0)
(0.148332 -0.00170298 0)
(0.183676 -0.0013478 0)
(0.206849 -0.000673079 0)
(0.213503 -9.66306e-05 0)
(0.211387 0.00018178 0)
(0.205665 0.000232126 0)
(0.201014 0.000178153 0)
(0.197307 0.000177153 0)
(0.193678 0.000169377 0)
(0.188678 0.000537548 0)
(0.172614 8.49661e-05 0)
(0.0109127 -0.000200356 0)
(0.0140304 -0.000143722 0)
(0.0160561 -7.63169e-05 0)
(0.0168234 -1.38193e-06 0)
(0.0162378 7.64532e-05 0)
(0.0143039 0.00015016 0)
(0.0111338 0.000211637 0)
(0.00700444 0.000251887 0)
(0.00234178 0.000263961 0)
(-0.00221587 0.000242049 0)
(-0.00603553 0.000187523 0)
(-0.00863597 0.0001016 0)
(-0.00950161 -8.87777e-06 0)
(-0.00825206 -0.000133548 0)
(-0.00476244 -0.000258361 0)
(0.000876615 -0.000367889 0)
(0.0082277 -0.000447127 0)
(0.0166356 -0.000489279 0)
(0.0254537 -0.000492212 0)
(0.0339928 -0.000456107 0)
(0.041569 -0.000386065 0)
(0.0476797 -0.000289843 0)
(0.051901 -0.000178078 0)
(0.0541411 -6.35583e-05 0)
(0.0544069 3.53917e-05 0)
(0.0532339 9.71139e-05 0)
(0.0512769 9.95389e-05 0)
(0.049908 2.10396e-05 0)
(0.0506757 -0.000152211 0)
(0.0553365 -0.000427305 0)
(0.06578 -0.000831038 0)
(0.0844868 -0.00132266 0)
(0.112012 -0.00181267 0)
(0.148333 -0.00206714 0)
(0.183681 -0.00164339 0)
(0.206856 -0.00082399 0)
(0.213508 -0.000116757 0)
(0.211389 0.000231943 0)
(0.205666 0.000294732 0)
(0.201014 0.000229848 0)
(0.197308 0.000213997 0)
(0.193677 0.000233756 0)
(0.188722 0.000584098 0)
(0.17292 0.000658604 0)
(0.0109133 -0.000242365 0)
(0.0140311 -0.000175507 0)
(0.0160569 -9.5998e-05 0)
(0.0168242 -7.57423e-06 0)
(0.0162387 8.42879e-05 0)
(0.0143046 0.000171376 0)
(0.0111343 0.000243945 0)
(0.00700471 0.000291565 0)
(0.00234171 0.000305976 0)
(-0.00221632 0.000279999 0)
(-0.00603634 0.00021547 0)
(-0.0086371 0.000113921 0)
(-0.00950295 -1.69443e-05 0)
(-0.00825348 -0.000164445 0)
(-0.00476379 -0.000311963 0)
(0.000875529 -0.000441481 0)
(0.008227 -0.000535143 0)
(0.0166354 -0.000584997 0)
(0.0254539 -0.000588506 0)
(0.0339934 -0.000546074 0)
(0.0415699 -0.000463512 0)
(0.0476808 -0.000349931 0)
(0.0519022 -0.000218043 0)
(0.0541422 -8.29221e-05 0)
(0.0544077 3.37486e-05 0)
(0.0532342 0.000106679 0)
(0.0512764 0.000109513 0)
(0.0499066 1.66699e-05 0)
(0.0506732 -0.000188173 0)
(0.0553327 -0.000512655 0)
(0.065775 -0.000989155 0)
(0.0844814 -0.00157133 0)
(0.112008 -0.00215079 0)
(0.148334 -0.00245416 0)
(0.183688 -0.0019492 0)
(0.206865 -0.000976973 0)
(0.213514 -0.00014229 0)
(0.21139 0.000263905 0)
(0.205666 0.000337167 0)
(0.201013 0.000260192 0)
(0.197309 0.000256136 0)
(0.193677 0.00025169 0)
(0.188747 0.000745527 0)
(0.17308 0.000303456 0)
(0.0109139 -0.000274606 0)
(0.0140319 -0.000197399 0)
(0.0160578 -0.00010554 0)
(0.0168252 -3.41113e-06 0)
(0.0162397 0.000102723 0)
(0.0143055 0.000203235 0)
(0.011135 0.000287079 0)
(0.00700505 0.000342025 0)
(0.00234163 0.000358514 0)
(-0.00221684 0.000328612 0)
(-0.00603728 0.0002542 0)
(-0.00863841 0.000136994 0)
(-0.00950452 -1.37777e-05 0)
(-0.00825514 -0.000183828 0)
(-0.00476534 -0.00035404 0)
(0.000874277 -0.000503409 0)
(0.00822619 -0.000611482 0)
(0.0166351 -0.00066898 0)
(0.0254541 -0.000672989 0)
(0.0339941 -0.000623826 0)
(0.041571 -0.000528375 0)
(0.0476822 -0.000397205 0)
(0.0519037 -0.000244881 0)
(0.0541436 -8.87786e-05 0)
(0.0544088 4.62229e-05 0)
(0.0532346 0.000130399 0)
(0.051276 0.000133714 0)
(0.0499049 2.67534e-05 0)
(0.0506702 -0.000209799 0)
(0.0553282 -0.000585138 0)
(0.065769 -0.00113624 0)
(0.0844749 -0.00180774 0)
(0.112003 -0.00247625 0)
(0.148335 -0.00282346 0)
(0.183696 -0.00224361 0)
(0.206875 -0.00112157 0)
(0.213521 -0.000156916 0)
(0.211392 0.000315423 0)
(0.205667 0.000400464 0)
(0.201013 0.000311138 0)
(0.19731 0.000291705 0)
(0.193677 0.000311749 0)
(0.188785 0.000806201 0)
(0.173349 0.000752052 0)
(0.0109147 -0.000315728 0)
(0.0140329 -0.000228289 0)
(0.0160589 -0.00012428 0)
(0.0168264 -8.62498e-06 0)
(0.0162408 0.000111539 0)
(0.0143065 0.000225438 0)
(0.0111358 0.00032036 0)
(0.00700545 0.000382619 0)
(0.00234157 0.000401434 0)
(-0.0022174 0.000367521 0)
(-0.00603833 0.000283134 0)
(-0.00863989 0.000150336 0)
(-0.00950628 -2.07246e-05 0)
(-0.008257 -0.000213589 0)
(-0.0047671 -0.000406505 0)
(0.00087286 -0.000575876 0)
(0.00822528 -0.00069836 0)
(0.0166347 -0.000763547 0)
(0.0254544 -0.000768127 0)
(0.0339949 -0.000712584 0)
(0.0415722 -0.000604568 0)
(0.0476838 -0.000456011 0)
(0.0519054 -0.00028349 0)
(0.0541452 -0.000106736 0)
(0.05441 4.59299e-05 0)
(0.0532351 0.000141315 0)
(0.0512754 0.000145051 0)
(0.0499031 2.36029e-05 0)
(0.0506668 -0.000244127 0)
(0.0553231 -0.000668436 0)
(0.0657625 -0.00129139 0)
(0.0844677 -0.00205219 0)
(0.111998 -0.00280991 0)
(0.148337 -0.00320693 0)
(0.183705 -0.00254626 0)
(0.206886 -0.00127693 0)
(0.21353 -0.000186577 0)
(0.211394 0.000346256 0)
(0.205668 0.000442747 0)
(0.201012 0.000342151 0)
(0.197311 0.000335255 0)
(0.193678 0.000331787 0)
(0.188814 0.000947291 0)
(0.17353 0.000517077 0)
(0.0109156 -0.000348907 0)
(0.0140339 -0.000251119 0)
(0.0160601 -0.000134787 0)
(0.0168277 -5.42929e-06 0)
(0.0162421 0.000128987 0)
(0.0143077 0.000256304 0)
(0.0111366 0.00036249 0)
(0.00700589 0.000432097 0)
(0.00234148 0.000452988 0)
(-0.00221806 0.000415116 0)
(-0.00603953 0.00032083 0)
(-0.00864157 0.000172369 0)
(-0.00950829 -1.8658e-05 0)
(-0.00825912 -0.000234098 0)
(-0.00476909 -0.00044972 0)
(0.000871254 -0.000638937 0)
(0.00822424 -0.000775842 0)
(0.0166343 -0.000848679 0)
(0.0254547 -0.000853768 0)
(0.0339958 -0.000791533 0)
(0.0415736 -0.000670658 0)
(0.0476855 -0.000504513 0)
(0.0519073 -0.000311581 0)
(0.0541471 -0.000113858 0)
(0.0544114 5.70695e-05 0)
(0.0532357 0.000163727 0)
(0.0512747 0.000167917 0)
(0.049901 3.24638e-05 0)
(0.050663 -0.00026713 0)
(0.0553173 -0.000742454 0)
(0.0657548 -0.00144053 0)
(0.0844593 -0.00229133 0)
(0.111992 -0.00314009 0)
(0.148338 -0.00357922 0)
(0.183715 -0.0028443 0)
(0.206899 -0.00142216 0)
(0.213539 -0.00019937 0)
(0.211397 0.000398616 0)
(0.205669 0.000505373 0)
(0.201012 0.000392447 0)
(0.197311 0.000368918 0)
(0.193678 0.000391229 0)
(0.188848 0.0010245 0)
(0.173773 0.000853523 0)
(0.0109165 -0.000389122 0)
(0.0140351 -0.000281094 0)
(0.0160614 -0.000152587 0)
(0.0168291 -9.69886e-06 0)
(0.0162435 0.00013877 0)
(0.014309 0.000279481 0)
(0.0111376 0.000396772 0)
(0.00700639 0.000473691 0)
(0.0023414 0.000496913 0)
(-0.00221876 0.000455062 0)
(-0.00604085 0.000350822 0)
(-0.0086434 0.00018676 0)
(-0.00951049 -2.45328e-05 0)
(-0.00826146 -0.000262769 0)
(-0.00477129 -0.000501096 0)
(0.000869487 -0.000710324 0)
(0.00822311 -0.000861642 0)
(0.0166339 -0.00094217 0)
(0.025455 -0.000947815 0)
(0.0339968 -0.000879162 0)
(0.0415752 -0.000745688 0)
(0.0476875 -0.000562147 0)
(0.0519095 -0.000348993 0)
(0.054149 -0.000130601 0)
(0.0544129 5.80874e-05 0)
(0.0532363 0.000175934 0)
(0.051274 0.000180602 0)
(0.0498986 3.06178e-05 0)
(0.0506588 -0.000300201 0)
(0.055311 -0.000824501 0)
(0.0657466 -0.0015942 0)
(0.0844503 -0.0025343 0)
(0.111985 -0.00346972 0)
(0.14834 -0.00396019 0)
(0.183727 -0.00314479 0)
(0.206913 -0.00157618 0)
(0.21355 -0.000228177 0)
(0.2114 0.000429473 0)
(0.205669 0.000549127 0)
(0.201011 0.000424212 0)
(0.197312 0.000414961 0)
(0.193679 0.000410432 0)
(0.18888 0.00114382 0)
(0.173964 0.000719103 0)
(0.0109175 -0.000423162 0)
(0.0140363 -0.000304797 0)
(0.0160629 -0.000163987 0)
(0.0168307 -7.40327e-06 0)
(0.0162451 0.000155304 0)
(0.0143104 0.000309437 0)
(0.0111386 0.000437971 0)
(0.00700693 0.000522234 0)
(0.00234128 0.00054754 0)
(-0.00221957 0.000501706 0)
(-0.00604231 0.000387537 0)
(-0.00864545 0.000207822 0)
(-0.00951294 -2.34701e-05 0)
(-0.00826405 -0.000284312 0)
(-0.00477372 -0.000545351 0)
(0.000867523 -0.000774434 0)
(0.00822184 -0.000940171 0)
(0.0166334 -0.00102835 0)
(0.0254553 -0.00103452 0)
(0.0339979 -0.000959203 0)
(0.0415769 -0.000812894 0)
(0.0476896 -0.000611772 0)
(0.0519118 -0.000378225 0)
(0.0541513 -0.000138875 0)
(0.0544145 6.80156e-05 0)
(0.0532369 0.000197161 0)
(0.0512732 0.000202248 0)
(0.049896 3.82508e-05 0)
(0.0506541 -0.000324258 0)
(0.055304 -0.000899446 0)
(0.0657373 -0.00174431 0)
(0.0844401 -0.00277421 0)
(0.111978 -0.00379838 0)
(0.148343 -0.00433394 0)
(0.183739 -0.00344388 0)
(0.206929 -0.00172229 0)
(0.213561 -0.000242412 0)
(0.211403 0.000481305 0)
(0.20567 0.000609898 0)
(0.20101 0.000473625 0)
(0.197313 0.00044533 0)
(0.19368 0.000470068 0)
(0.188912 0.00123819 0)
(0.17419 0.000970513 0)
(0.0109187 -0.000462602 0)
(0.0140378 -0.000333979 0)
(0.0160645 -0.000180973 0)
(0.0168324 -1.08442e-05 0)
(0.0162468 0.000165934 0)
(0.0143119 0.000333464 0)
(0.0111398 0.000473128 0)
(0.00700753 0.000564723 0)
(0.00234119 0.000592342 0)
(-0.00222042 0.000542552 0)
(-0.00604389 0.000418453 0)
(-0.00864766 0.000223119 0)
(-0.00951559 -2.84148e-05 0)
(-0.00826686 -0.000312029 0)
(-0.00477636 -0.000595784 0)
(0.000865396 -0.00084487 0)
(0.00822047 -0.00102503 0)
(0.0166329 -0.00112089 0)
(0.0254557 -0.0011276 0)
(0.0339991 -0.00104584 0)
(0.0415788 -0.000886907 0)
(0.047692 -0.000668365 0)
(0.0519144 -0.000414562 0)
(0.0541537 -0.000154508 0)
(0.0544163 7.02109e-05 0)
(0.0532376 0.000210554 0)
(0.0512723 0.000216155 0)
(0.0498932 3.76918e-05 0)
(0.050649 -0.000356238 0)
(0.0552963 -0.0009806 0)
(0.0657273 -0.00189704 0)
(0.0844292 -0.00301658 0)
(0.11197 -0.00413352 0)
(0.148345 -0.00471536 0)
(0.183752 -0.00374366 0)
(0.206946 -0.00187555 0)
(0.213573 -0.000269636 0)
(0.211406 0.000513207 0)
(0.205671 0.000655731 0)
(0.201009 0.000506239 0)
(0.197314 0.000495537 0)
(0.193682 0.000488195 0)
(0.188944 0.00133613 0)
(0.174384 0.0008994 0)
(0.0109199 -0.000497322 0)
(0.0140393 -0.000358387 0)
(0.0160662 -0.00019309 0)
(0.0168343 -9.28665e-06 0)
(0.0162486 0.000181704 0)
(0.0143136 0.000362659 0)
(0.011141 0.000513552 0)
(0.00700816 0.000612477 0)
(0.00234106 0.000642218 0)
(-0.00222137 0.000588439 0)
(-0.00604562 0.000454392 0)
(-0.00865007 0.000243416 0)
(-0.00951848 -2.81575e-05 0)
(-0.00826992 -0.000334417 0)
(-0.00477923 -0.000640883 0)
(0.000863061 -0.000909855 0)
(0.008219 -0.00110444 0)
(0.0166324 -0.00120797 0)
(0.0254561 -0.00121523 0)
(0.0340004 -0.00112682 0)
(0.0415808 -0.000955068 0)
(0.0476945 -0.000718975 0)
(0.0519171 -0.000444793 0)
(0.0541563 -0.000163813 0)
(0.0544183 7.90372e-05 0)
(0.0532384 0.00023068 0)
(0.0512714 0.000236673 0)
(0.0498902 4.41255e-05 0)
(0.0506435 -0.000381302 0)
(0.055288 -0.00105634 0)
(0.0657163 -0.00204833 0)
(0.0844172 -0.00325782 0)
(0.111961 -0.00446524 0)
(0.148347 -0.00509047 0)
(0.183767 -0.00404489 0)
(0.206964 -0.00202304 0)
(0.213587 -0.000284879 0)
(0.21141 0.000564192 0)
(0.205672 0.000714609 0)
(0.201008 0.000555291 0)
(0.197315 0.000520629 0)
(0.193683 0.000549671 0)
(0.188975 0.00144714 0)
(0.174599 0.00112528 0)
(0.0109219 -0.000555665 0)
(0.0140417 -0.000401286 0)
(0.0160691 -0.000217688 0)
(0.0168373 -1.34853e-05 0)
(0.0162517 0.000198713 0)
(0.0143163 0.000399769 0)
(0.0111431 0.000567385 0)
(0.00700923 0.000677317 0)
(0.00234091 0.000710434 0)
(-0.00222283 0.000650688 0)
(-0.00604836 0.000501743 0)
(-0.00865392 0.000267309 0)
(-0.00952309 -3.45226e-05 0)
(-0.00827482 -0.000374908 0)
(-0.00478383 -0.000715477 0)
(0.000859357 -0.0010144 0)
(0.00821663 -0.00123061 0)
(0.0166315 -0.00134564 0)
(0.0254568 -0.00135365 0)
(0.0340025 -0.00125553 0)
(0.0415842 -0.0010648 0)
(0.0476987 -0.000802492 0)
(0.0519216 -0.000497897 0)
(0.0541605 -0.000185753 0)
(0.0544215 8.40314e-05 0)
(0.0532397 0.000252509 0)
(0.0512699 0.00025936 0)
(0.0498852 4.5259e-05 0)
(0.0506346 -0.000427461 0)
(0.0552747 -0.00117661 0)
(0.0656989 -0.00227649 0)
(0.0843981 -0.00362013 0)
(0.111948 -0.00495383 0)
(0.148352 -0.0056598 0)
(0.183791 -0.00449299 0)
(0.206994 -0.00225058 0)
(0.213609 -0.000325798 0)
(0.211416 0.000613198 0)
(0.205674 0.000785934 0)
(0.201007 0.000603781 0)
(0.197317 0.000605699 0)
(0.193687 0.00056978 0)
(0.189026 0.00156085 0)
(0.174884 0.000985902 0)
(0.0109249 -0.000625913 0)
(0.0140454 -0.000450967 0)
(0.0160733 -0.000242778 0)
(0.0168419 -1.13204e-05 0)
(0.0162562 0.000229196 0)
(0.0143203 0.000457128 0)
(0.0111461 0.000647199 0)
(0.00701077 0.000771822 0)
(0.00234053 0.000809308 0)
(-0.00222522 0.000741657 0)
(-0.00605265 0.000572826 0)
(-0.00865991 0.000307123 0)
(-0.00953027 -3.49729e-05 0)
(-0.0082824 -0.000420712 0)
(-0.00479096 -0.000806724 0)
(0.000853618 -0.00114551 0)
(0.00821291 -0.00139061 0)
(0.0166301 -0.00152102 0)
(0.0254577 -0.00153018 0)
(0.0340056 -0.00141883 0)
(0.0415891 -0.0012025 0)
(0.0477049 -0.000905149 0)
(0.0519284 -0.000559794 0)
(0.0541669 -0.00020588 0)
(0.0544263 0.000100044 0)
(0.0532416 0.000291109 0)
(0.0512676 0.000298695 0)
(0.0498778 5.62875e-05 0)
(0.0506211 -0.000479431 0)
(0.0552542 -0.0013296 0)
(0.0656719 -0.00257781 0)
(0.0843685 -0.00410112 0)
(0.111926 -0.00562008 0)
(0.148358 -0.00641344 0)
(0.183827 -0.00509366 0)
(0.20704 -0.00254562 0)
(0.213642 -0.000352634 0)
(0.211425 0.000715388 0)
(0.205676 0.000901802 0)
(0.201005 0.000701933 0)
(0.197318 0.000644166 0)
(0.193689 0.000703313 0)
(0.189083 0.00181171 0)
(0.175287 0.00151299 0)
(0.0109284 -0.000702997 0)
(0.0140497 -0.000507428 0)
(0.0160782 -0.000274821 0)
(0.0168471 -1.61163e-05 0)
(0.0162613 0.000252712 0)
(0.0143249 0.000507468 0)
(0.0111496 0.000719855 0)
(0.0070126 0.000859147 0)
(0.00234026 0.000901089 0)
(-0.00222772 0.000825483 0)
(-0.00605737 0.000636769 0)
(-0.00866652 0.000339758 0)
(-0.00953817 -4.26431e-05 0)
(-0.0082908 -0.000473882 0)
(-0.00479885 -0.00090538 0)
(0.000847257 -0.00128411 0)
(0.00820884 -0.00155805 0)
(0.0166286 -0.00170377 0)
(0.0254589 -0.00171389 0)
(0.0340093 -0.0015895 0)
(0.0415948 -0.00134778 0)
(0.047712 -0.00101543 0)
(0.0519361 -0.00062944 0)
(0.0541742 -0.00023386 0)
(0.0544317 0.000108033 0)
(0.0532437 0.000321677 0)
(0.051265 0.000330495 0)
(0.0498693 5.95209e-05 0)
(0.0506058 -0.000538886 0)
(0.0552313 -0.00148791 0)
(0.0656419 -0.0028827 0)
(0.0843357 -0.00458551 0)
(0.111901 -0.00628318 0)
(0.148364 -0.00716307 0)
(0.183868 -0.00569388 0)
(0.207091 -0.00285096 0)
(0.21368 -0.000408735 0)
(0.211434 0.000780229 0)
(0.205678 0.000998114 0)
(0.201001 0.000768611 0)
(0.197319 0.000767086 0)
(0.193696 0.000714407 0)
(0.189152 0.00192014 0)
(0.175661 0.00125504 0)
(0.0109321 -0.000774281 0)
(0.0140543 -0.000558149 0)
(0.0160835 -0.00030097 0)
(0.0168528 -1.49825e-05 0)
(0.016267 0.000282278 0)
(0.01433 0.00056391 0)
(0.0111534 0.000798786 0)
(0.00701453 0.000952809 0)
(0.00233983 0.000999102 0)
(-0.00223068 0.000915548 0)
(-0.00606272 0.00070694 0)
(-0.00867399 0.000378648 0)
(-0.00954712 -4.39929e-05 0)
(-0.00830027 -0.000520669 0)
(-0.00480774 -0.00099768 0)
(0.000840106 -0.00141629 0)
(0.00820422 -0.00171912 0)
(0.0166269 -0.00188026 0)
(0.0254601 -0.00189161 0)
(0.0340132 -0.00175406 0)
(0.041601 -0.0014868 0)
(0.0477198 -0.00111938 0)
(0.0519446 -0.000692706 0)
(0.0541822 -0.000255364 0)
(0.0544378 0.000122842 0)
(0.0532462 0.000359036 0)
(0.0512622 0.000368544 0)
(0.04986 6.91735e-05 0)
(0.050589 -0.000592792 0)
(0.0552058 -0.00164287 0)
(0.0656083 -0.00318525 0)
(0.0842989 -0.00506885 0)
(0.111874 -0.00695893 0)
(0.14837 -0.00794691 0)
(0.183912 -0.00629969 0)
(0.207146 -0.00314613 0)
(0.213723 -0.000434126 0)
(0.211446 0.000885141 0)
(0.205678 0.00111309 0)
(0.200993 0.000862976 0)
(0.197315 0.00079504 0)
(0.193696 0.00086866 0)
(0.189205 0.00221058 0)
(0.176044 0.00186786 0)
(0.0109364 -0.000850231 0)
(0.0140595 -0.000613475 0)
(0.0160895 -0.000331822 0)
(0.0168592 -1.86471e-05 0)
(0.0162733 0.00030647 0)
(0.0143356 0.000615065 0)
(0.0111576 0.000872237 0)
(0.00701675 0.0010409 0)
(0.0023395 0.00109188 0)
(-0.00223376 0.00100055 0)
(-0.00606848 0.00077204 0)
(-0.00868208 0.000412443 0)
(-0.0095568 -5.08042e-05 0)
(-0.00831054 -0.000572944 0)
(-0.00481741 -0.00109549 0)
(0.000832334 -0.00155423 0)
(0.00819923 -0.00188599 0)
(0.016625 -0.00206236 0)
(0.0254615 -0.00207458 0)
(0.0340177 -0.00192381 0)
(0.041608 -0.001631 0)
(0.0477284 -0.00122851 0)
(0.051954 -0.000760944 0)
(0.054191 -0.000281823 0)
(0.0544444 0.000132059 0)
(0.0532488 0.00039116 0)
(0.051259 0.000402185 0)
(0.0498497 7.43995e-05 0)
(0.0505702 -0.000649377 0)
(0.0551777 -0.00179843 0)
(0.0655715 -0.00348849 0)
(0.084258 -0.00555054 0)
(0.111844 -0.00759893 0)
(0.148378 -0.00866291 0)
(0.18396 -0.00689244 0)
(0.207207 -0.00344798 0)
(0.21377 -0.000488487 0)
(0.211459 0.000947914 0)
(0.205676 0.00121157 0)
(0.200978 0.000934932 0)
(0.197306 0.000926409 0)
(0.1937 0.000848431 0)
(0.189273 0.00224871 0)
(0.176414 0.00151301 0)
(0.0109409 -0.000922562 0)
(0.014065 -0.000665198 0)
(0.0160958 -0.000359024 0)
(0.016866 -1.8148e-05 0)
(0.0162801 0.000336575 0)
(0.0143417 0.000671902 0)
(0.0111622 0.000951622 0)
(0.00701908 0.00113506 0)
(0.00233899 0.00118996 0)
(-0.0022373 0.00109033 0)
(-0.00607489 0.000841895 0)
(-0.00869104 0.000450884 0)
(-0.00956753 -5.19175e-05 0)
(-0.00832189 -0.000619617 0)
(-0.00482807 -0.00118767 0)
(0.000823744 -0.00168603 0)
(0.00819369 -0.00204667 0)
(0.016623 -0.00223859 0)
(0.0254629 -0.00225203 0)
(0.0340224 -0.0020884 0)
(0.0416154 -0.00177034 0)
(0.0477378 -0.00133288 0)
(0.0519642 -0.000825144 0)
(0.0542007 -0.000304325 0)
(0.0544517 0.000147145 0)
(0.0532517 0.000427953 0)
(0.0512557 0.00043908 0)
(0.0498385 8.27595e-05 0)
(0.05055 -0.000705638 0)
(0.055147 -0.00195431 0)
(0.0655301 -0.00378813 0)
(0.0842088 -0.0060378 0)
(0.111801 -0.00826162 0)
(0.148377 -0.00945923 0)
(0.184008 -0.00750239 0)
(0.207273 -0.0037448 0)
(0.213817 -0.000516498 0)
(0.211474 0.00105725 0)
(0.205676 0.00132517 0)
(0.200964 0.00102218 0)
(0.197292 0.000953606 0)
(0.193693 0.00104255 0)
(0.189321 0.00260868 0)
(0.176732 0.00222773 0)
(0.0109458 -0.000998975 0)
(0.0140712 -0.000721101 0)
(0.0161028 -0.000390434 0)
(0.0168736 -2.31416e-05 0)
(0.0162876 0.000358371 0)
(0.0143484 0.000720754 0)
(0.0111672 0.00102287 0)
(0.0070217 0.00122103 0)
(0.00233858 0.00128096 0)
(-0.00224096 0.00117398 0)
(-0.00608173 0.000905694 0)
(-0.00870061 0.000483535 0)
(-0.00957899 -6.07233e-05 0)
(-0.00833407 -0.000674009 0)
(-0.00483949 -0.00128778 0)
(0.00081453 -0.00182661 0)
(0.00818776 -0.00221619 0)
(0.0166208 -0.00242333 0)
(0.0254646 -0.00243777 0)
(0.0340276 -0.00226068 0)
(0.0416236 -0.00191663 0)
(0.0477479 -0.00144383 0)
(0.0519753 -0.000894319 0)
(0.0542111 -0.000331504 0)
(0.0544595 0.000154157 0)
(0.0532547 0.000459481 0)
(0.0512517 0.000473492 0)
(0.0498262 8.93546e-05 0)
(0.0505278 -0.000758878 0)
(0.0551135 -0.00210815 0)
(0.0654851 -0.0040935 0)
(0.0841607 -0.00651307 0)
(0.111753 -0.00896194 0)
(0.14838 -0.0102036 0)
(0.184061 -0.00810253 0)
(0.207345 -0.0040486 0)
(0.21387 -0.000561277 0)
(0.211493 0.00111659 0)
(0.20568 0.00142595 0)
(0.200951 0.00110392 0)
(0.197284 0.0010696 0)
(0.193697 0.000966069 0)
(0.189385 0.00254619 0)
(0.176965 0.00176163 0)
(0.0109841 -0.00150342 0)
(0.0141182 -0.00107338 0)
(0.0161569 -0.000562538 0)
(0.0169314 1.12101e-05 0)
(0.0163452 0.000609025 0)
(0.0143998 0.00116801 0)
(0.0112057 0.00163456 0)
(0.00704145 0.00194124 0)
(0.0023342 0.00202979 0)
(-0.00227143 0.00186123 0)
(-0.00613666 0.00144556 0)
(-0.00877752 0.000791851 0)
(-0.00967119 -3.98261e-05 0)
(-0.00843128 -0.000983846 0)
(-0.0049309 -0.00192908 0)
(0.000740607 -0.00275597 0)
(0.00814001 -0.00335616 0)
(0.0166026 -0.00367642 0)
(0.0254764 -0.00369721 0)
(0.0340672 -0.00342461 0)
(0.0416866 -0.00289719 0)
(0.0478274 -0.00217013 0)
(0.052062 -0.0013311 0)
(0.0542927 -0.000464067 0)
(0.054521 0.00029597 0)
(0.0532799 0.000751101 0)
(0.051223 0.000754576 0)
(0.0497312 0.000156756 0)
(0.0503551 -0.0011896 0)
(0.0548542 -0.00328431 0)
(0.0651425 -0.00632808 0)
(0.0837886 -0.0100632 0)
(0.111471 -0.0137253 0)
(0.148423 -0.0157608 0)
(0.184518 -0.0124977 0)
(0.207943 -0.00622341 0)
(0.214323 -0.000795958 0)
(0.211686 0.00196784 0)
(0.205779 0.00226022 0)
(0.200974 0.00167761 0)
(0.197266 0.00149987 0)
(0.193666 0.00289297 0)
(0.189707 0.00595002 0)
(0.178748 0.00769192 0)
(0.0111294 -0.00259467 0)
(0.0142962 -0.00188529 0)
(0.0163624 -0.00104039 0)
(0.0171543 -0.000104693 0)
(0.0165644 0.000869087 0)
(0.0145936 0.00179984 0)
(0.0113523 0.00257682 0)
(0.00711616 0.00308717 0)
(0.00231988 0.0032438 0)
(-0.00237957 0.00297778 0)
(-0.00633614 0.00228928 0)
(-0.00905378 0.00120729 0)
(-0.0100009 -0.000195747 0)
(-0.00878339 -0.00177496 0)
(-0.00526097 -0.00335423 0)
(0.000475201 -0.00474132 0)
(0.00796842 -0.00574176 0)
(0.0165395 -0.00627067 0)
(0.025525 -0.00630674 0)
(0.0342189 -0.00585001 0)
(0.0419228 -0.00496281 0)
(0.0481213 -0.00374615 0)
(0.0523818 -0.00232736 0)
(0.0545995 -0.000879995 0)
(0.0547482 0.00037009 0)
(0.0533613 0.00117604 0)
(0.0511073 0.00123886 0)
(0.0493656 0.000271406 0)
(0.0496968 -0.00185675 0)
(0.0538865 -0.00528444 0)
(0.0638683 -0.0103874 0)
(0.0823868 -0.0166694 0)
(0.110454 -0.0230314 0)
(0.14874 -0.0263825 0)
(0.186289 -0.020872 0)
(0.21011 -0.010298 0)
(0.215929 -0.00131754 0)
(0.211956 0.00280048 0)
(0.205734 0.00365876 0)
(0.200909 0.00285956 0)
(0.197766 0.00275683 0)
(0.194657 0.00113486 0)
(0.191301 0.00361002 0)
(0.184202 0.000647151 0)
(0.0113399 -0.00352462 0)
(0.0145572 -0.0025294 0)
(0.0166597 -0.00134432 0)
(0.0174703 -1.9084e-05 0)
(0.0168827 0.00136455 0)
(0.0148821 0.00267415 0)
(0.0115692 0.00376998 0)
(0.00722958 0.00449163 0)
(0.00230304 0.00470506 0)
(-0.00254098 0.00432845 0)
(-0.00663623 0.00335935 0)
(-0.00947934 0.00183792 0)
(-0.0105131 -0.000103788 0)
(-0.00932235 -0.00231539 0)
(-0.00576807 -0.00453357 0)
(6.66782e-05 -0.00647587 0)
(0.00770805 -0.007881 0)
(0.0164432 -0.0086268 0)
(0.0255954 -0.00867276 0)
(0.034447 -0.00803029 0)
(0.0422807 -0.00679025 0)
(0.0485716 -0.00508539 0)
(0.0528713 -0.00310847 0)
(0.0550541 -0.0010675 0)
(0.0550999 0.000721854 0)
(0.0535231 0.00183714 0)
(0.0509671 0.00190682 0)
(0.0488701 0.000568875 0)
(0.0487738 -0.00245685 0)
(0.0524615 -0.00727429 0)
(0.0619541 -0.0144236 0)
(0.0802552 -0.0233231 0)
(0.108851 -0.0325473 0)
(0.149157 -0.0374959 0)
(0.188987 -0.0295561 0)
(0.213328 -0.0143763 0)
(0.218134 -0.00102746 0)
(0.212843 0.00487011 0)
(0.206098 0.00535086 0)
(0.200743 0.00382524 0)
(0.196942 0.0034868 0)
(0.193686 0.00470721 0)
(0.190733 0.00906211 0)
(0.185277 0.0124734 0)
(0.0116296 -0.00469561 0)
(0.0149119 -0.0034159 0)
(0.0170713 -0.00188831 0)
(0.0179186 -0.000184024 0)
(0.0173245 0.00159763 0)
(0.015273 0.00329941 0)
(0.0118658 0.00472515 0)
(0.0073807 0.00566881 0)
(0.00227447 0.00596328 0)
(-0.00275884 0.00549317 0)
(-0.00703866 0.00424512 0)
(-0.0100318 0.00227829 0)
(-0.0111738 -0.000285973 0)
(-0.0100333 -0.00317456 0)
(-0.00643562 -0.00606532 0)
(-0.000470134 -0.00859746 0)
(0.00736072 -0.0104234 0)
(0.0163159 -0.0113831 0)
(0.0256935 -0.0114433 0)
(0.0347505 -0.0106071 0)
(0.042754 -0.00898875 0)
(0.0491608 -0.00676855 0)
(0.053516 -0.00417592 0)
(0.05568 -0.00150739 0)
(0.0555658 0.00083676 0)
(0.053694 0.00236158 0)
(0.0507501 0.00253812 0)
(0.0481515 0.000865748 0)
(0.0474647 -0.00292187 0)
(0.0505337 -0.00906461 0)
(0.0593681 -0.0182958 0)
(0.0773144 -0.0300205 0)
(0.106601 -0.042568 0)
(0.149747 -0.0493649 0)
(0.192747 -0.0387573 0)
(0.217972 -0.0182153 0)
(0.221327 -0.00108636 0)
(0.213636 0.00607743 0)
(0.205733 0.00698542 0)
(0.200567 0.00524864 0)
(0.198013 0.00456579 0)
(0.195876 0.00241204 0)
(0.19334 0.00554855 0)
(0.187607 0.00300808 0)
(0.0119819 -0.00559787 0)
(0.0153502 -0.00402744 0)
(0.0175726 -0.00215067 0)
(0.0184542 -4.97965e-05 0)
(0.017866 0.00215729 0)
(0.0157654 0.00426684 0)
(0.0122381 0.00604092 0)
(0.00757867 0.00721707 0)
(0.00225292 0.00757905 0)
(-0.00302618 0.0069979 0)
(-0.00754331 0.0054605 0)
(-0.0107588 0.00303872 0)
(-0.0120527 -6.12336e-05 0)
(-0.0109525 -0.00361636 0)
(-0.00729901 -0.00719406 0)
(-0.00116398 -0.0103235 0)