/*--------------------------------*- C++ -*----------------------------------*\
| =========                 |                                                 |
| \\      /  F ield         | OpenFOAM: The Open Source CFD Toolbox           |
|  \\    /   O peration     | Version:  v1912                                 |
|   \\  /    A nd           | Website:  www.openfoam.com                      |
|    \\/     M anipulation  |                                                 |
\*---------------------------------------------------------------------------*/
FoamFile
{
    version     2.0;
    format      ascii;
    class       volScalarField;
    location    "100";
    object      k;
}
// * * * * * * * * * * * * * * * * * * * * * * * * * * * * * * * * * * * * * //

dimensions      [0 2 -2 0 0 0 0];


internalField   nonuniform List<scalar> 
14268
(
4.6882e-07
4.67944e-07
4.67052e-07
4.66415e-07
4.66063e-07
4.65946e-07
4.65991e-07
4.66202e-07
4.66532e-07
4.66947e-07
4.67419e-07
4.67916e-07
4.68431e-07
4.68896e-07
4.6934e-07
4.69626e-07
4.69902e-07
4.70208e-07
4.70475e-07
4.70753e-07
4.71e-07
4.71158e-07
4.71222e-07
4.71264e-07
4.71235e-07
4.71098e-07
4.70803e-07
4.70353e-07
4.69674e-07
4.68871e-07
4.67888e-07
4.66778e-07
4.65488e-07
4.63961e-07
4.62456e-07
4.60688e-07
4.58901e-07
4.5721e-07
4.55183e-07
4.53877e-07
4.51613e-07
4.50587e-07
4.4807e-07
4.47071e-07
4.44372e-07
4.43314e-07
4.40497e-07
4.39322e-07
4.36588e-07
4.35028e-07
4.32402e-07
4.30544e-07
4.28165e-07
4.26149e-07
4.24134e-07
4.21864e-07
4.20586e-07
4.18138e-07
4.17014e-07
4.14631e-07
4.13237e-07
4.11335e-07
4.09826e-07
4.08239e-07
4.05711e-07
4.04474e-07
4.01538e-07
3.99915e-07
3.97842e-07
3.96346e-07
3.94015e-07
3.92728e-07
3.89982e-07
3.88974e-07
3.8596e-07
3.84756e-07
3.81706e-07
3.80361e-07
3.77904e-07
3.76366e-07
3.7482e-07
3.73461e-07
3.71899e-07
3.71541e-07
3.7022e-07
3.69782e-07
3.69475e-07
3.69513e-07
3.69732e-07
3.70282e-07
3.71117e-07
3.71761e-07
3.70461e-07
3.69902e-07
3.7006e-07
3.68615e-07
3.6718e-07
3.64962e-07
3.62277e-07
3.61322e-07
3.61394e-07
3.6189e-07
3.5795e-07
3.51185e-07
3.43281e-07
3.37068e-07
3.30179e-07
3.23362e-07
3.19513e-07
3.15155e-07
3.07401e-07
2.99986e-07
2.82062e-07
2.6206e-07
2.42577e-07
2.27228e-07
2.15749e-07
2.01319e-07
1.8554e-07
1.71648e-07
1.82539e-07
2.97221e-07
8.29922e-07
2.80513e-06
9.24861e-06
2.81317e-05
7.7799e-05
0.00019337
0.000425254
0.000693848
0.00087408
0.000982583
0.00103627
0.00103393
2.18631e-07
2.18274e-07
2.18445e-07
2.19033e-07
2.20025e-07
2.2133e-07
2.22931e-07
2.24908e-07
2.27138e-07
2.29668e-07
2.32511e-07
2.35586e-07
2.38941e-07
2.42541e-07
2.46319e-07
2.50297e-07
2.54414e-07
2.58677e-07
2.63059e-07
2.67518e-07
2.72019e-07
2.76506e-07
2.80944e-07
2.85301e-07
2.89526e-07
2.93581e-07
2.97437e-07
3.01059e-07
3.04419e-07
3.07488e-07
3.10248e-07
3.12673e-07
3.14736e-07
3.16416e-07
3.17708e-07
3.18595e-07
3.19074e-07
3.19182e-07
3.18943e-07
3.18373e-07
3.17438e-07
3.16163e-07
3.14491e-07
3.12491e-07
3.10109e-07
3.07475e-07
3.04579e-07
3.01547e-07
2.98313e-07
2.94957e-07
2.91415e-07
2.87815e-07
2.84079e-07
2.80322e-07
2.76674e-07
2.72947e-07
2.6958e-07
2.66278e-07
2.63009e-07
2.60315e-07
2.57747e-07
2.55491e-07
2.53628e-07
2.51942e-07
2.50344e-07
2.48889e-07
2.47455e-07
2.46231e-07
2.45171e-07
2.44334e-07
2.43706e-07
2.43307e-07
2.42994e-07
2.42836e-07
2.42647e-07
2.42582e-07
2.42437e-07
2.42497e-07
2.42546e-07
2.42815e-07
2.43294e-07
2.44019e-07
2.44976e-07
2.46094e-07
2.47372e-07
2.48933e-07
2.508e-07
2.53097e-07
2.55926e-07
2.59323e-07
2.63112e-07
2.67235e-07
2.716e-07
2.76217e-07
2.81056e-07
2.85404e-07
2.88045e-07
2.89558e-07
2.91143e-07
2.93638e-07
2.97772e-07
3.02583e-07
3.0385e-07
3.01665e-07
2.94451e-07
2.85186e-07
2.79767e-07
2.75646e-07
2.7267e-07
2.69467e-07
2.64743e-07
2.56777e-07
2.39876e-07
2.14587e-07
1.90597e-07
1.72532e-07
1.58606e-07
1.47403e-07
1.41737e-07
1.48444e-07
2.30762e-07
6.31297e-07
2.23217e-06
7.91514e-06
2.61321e-05
7.92299e-05
0.000220006
0.000557948
0.0012693
0.00212266
0.0026953
0.00302286
0.00317921
0.00318762
9.15625e-08
9.15224e-08
9.17384e-08
9.21603e-08
9.27831e-08
9.3561e-08
9.44957e-08
9.56336e-08
9.69097e-08
9.83636e-08
1.00005e-07
1.01792e-07
1.03763e-07
1.05901e-07
1.08175e-07
1.10604e-07
1.13158e-07
1.15846e-07
1.18656e-07
1.21568e-07
1.24567e-07
1.27614e-07
1.30692e-07
1.33783e-07
1.36858e-07
1.39897e-07
1.42883e-07
1.45792e-07
1.48596e-07
1.51262e-07
1.53773e-07
1.56101e-07
1.58228e-07
1.60122e-07
1.61769e-07
1.63153e-07
1.64251e-07
1.65066e-07
1.65549e-07
1.65711e-07
1.65572e-07
1.65063e-07
1.6422e-07
1.63002e-07
1.61512e-07
1.59736e-07
1.5784e-07
1.55769e-07
1.53652e-07
1.51421e-07
1.49147e-07
1.46845e-07
1.44481e-07
1.42084e-07
1.39798e-07
1.3746e-07
1.35331e-07
1.33457e-07
1.31386e-07
1.30035e-07
1.28641e-07
1.27527e-07
1.26718e-07
1.26047e-07
1.25455e-07
1.24957e-07
1.24514e-07
1.24195e-07
1.2398e-07
1.23923e-07
1.24019e-07
1.24271e-07
1.2462e-07
1.25061e-07
1.25497e-07
1.25961e-07
1.26457e-07
1.26989e-07
1.27647e-07
1.2842e-07
1.2935e-07
1.30519e-07
1.31824e-07
1.33239e-07
1.34932e-07
1.36703e-07
1.38802e-07
1.41251e-07
1.44265e-07
1.47838e-07
1.51767e-07
1.55918e-07
1.60538e-07
1.65869e-07
1.72011e-07
1.77708e-07
1.81534e-07
1.84216e-07
1.87364e-07
1.91765e-07
1.98651e-07
2.06454e-07
2.09237e-07
2.08108e-07
2.02337e-07
1.9328e-07
1.88787e-07
1.87066e-07
1.85964e-07
1.84908e-07
1.83104e-07
1.77721e-07
1.63958e-07
1.4196e-07
1.22117e-07
1.08105e-07
9.87688e-08
9.40839e-08
9.48428e-08
1.20805e-07
2.65346e-07
8.98366e-07
3.36169e-06
1.19652e-05
3.91976e-05
0.000117662
0.000323574
0.000814096
0.00183976
0.00310776
0.00397867
0.00448566
0.00471876
0.00473397
5.4304e-08
5.43278e-08
5.4453e-08
5.46619e-08
5.49472e-08
5.52891e-08
5.57081e-08
5.62023e-08
5.67625e-08
5.74086e-08
5.81391e-08
5.89486e-08
5.98552e-08
6.08524e-08
6.19327e-08
6.31064e-08
6.43625e-08
6.5708e-08
6.71401e-08
6.86513e-08
7.02343e-08
7.18716e-08
7.35548e-08
7.52735e-08
7.7009e-08
7.87486e-08
8.04826e-08
8.2196e-08
8.38734e-08
8.54958e-08
8.70482e-08
8.85126e-08
8.98752e-08
9.11145e-08
9.22198e-08
9.31746e-08
9.39614e-08
9.4581e-08
9.49971e-08
9.5221e-08
9.52474e-08
9.50637e-08
9.46728e-08
9.40569e-08
9.32605e-08
9.22975e-08
9.1247e-08
9.00959e-08
8.89019e-08
8.7638e-08
8.63362e-08
8.50114e-08
8.36484e-08
8.22653e-08
8.09601e-08
7.96338e-08
7.84425e-08
7.74146e-08
7.62722e-08
7.55519e-08
7.48158e-08
7.42327e-08
7.38275e-08
7.35e-08
7.32171e-08
7.29882e-08
7.2794e-08
7.26702e-08
7.26121e-08
7.26538e-08
7.27893e-08
7.30169e-08
7.33064e-08
7.36483e-08
7.39882e-08
7.43474e-08
7.47243e-08
7.51276e-08
7.56075e-08
7.6155e-08
7.67968e-08
7.75795e-08
7.84481e-08
7.93917e-08
8.05085e-08
8.16621e-08
8.30354e-08
8.46291e-08
8.65721e-08
8.88836e-08
9.14861e-08
9.42625e-08
9.73678e-08
1.00995e-07
1.05254e-07
1.0931e-07
1.12085e-07
1.14061e-07
1.1643e-07
1.19764e-07
1.25042e-07
1.3097e-07
1.3324e-07
1.3271e-07
1.29341e-07
1.23623e-07
1.20631e-07
1.19883e-07
1.19883e-07
1.20096e-07
1.19819e-07
1.17071e-07
1.08257e-07
9.397e-08
8.12306e-08
7.25972e-08
6.75533e-08
6.56757e-08
7.08584e-08
1.09474e-07
3.04109e-07
1.14191e-06
4.37452e-06
1.56061e-05
5.09827e-05
0.000152178
0.000414743
0.00103025
0.00229661
0.00387337
0.00497181
0.00561789
0.00591931
0.00594877
4.3127e-08
4.31665e-08
4.3241e-08
4.33429e-08
4.34592e-08
4.35832e-08
4.37499e-08
4.39231e-08
4.41244e-08
4.43668e-08
4.46311e-08
4.49396e-08
4.52939e-08
4.56884e-08
4.61335e-08
4.66278e-08
4.71735e-08
4.77733e-08
4.8428e-08
4.91362e-08
4.98951e-08
5.06978e-08
5.154e-08
5.24157e-08
5.33156e-08
5.42337e-08
5.51643e-08
5.61005e-08
5.70339e-08
5.79525e-08
5.88451e-08
5.96989e-08
6.05052e-08
6.12494e-08
6.19211e-08
6.25067e-08
6.29951e-08
6.3384e-08
6.3653e-08
6.38089e-08
6.38457e-08
6.37586e-08
6.35476e-08
6.3205e-08
6.2756e-08
6.22086e-08
6.16105e-08
6.0958e-08
6.02833e-08
5.9572e-08
5.88435e-08
5.81081e-08
5.73551e-08
5.65997e-08
5.58911e-08
5.5172e-08
5.4532e-08
5.39691e-08
5.33674e-08
5.29811e-08
5.26136e-08
5.23288e-08
5.21419e-08
5.1999e-08
5.18854e-08
5.17952e-08
5.17255e-08
5.16889e-08
5.16863e-08
5.17326e-08
5.1826e-08
5.19676e-08
5.21483e-08
5.23568e-08
5.25666e-08
5.27858e-08
5.30191e-08
5.32683e-08
5.35567e-08
5.38821e-08
5.42615e-08
5.47175e-08
5.52271e-08
5.57891e-08
5.64426e-08
5.71288e-08
5.79447e-08
5.89171e-08
6.00965e-08
6.15043e-08
6.31151e-08
6.48974e-08
6.68824e-08
6.92077e-08
7.19522e-08
7.47002e-08
7.65082e-08
7.78763e-08
7.94999e-08
8.1794e-08
8.54381e-08
8.97074e-08
9.14163e-08
9.11231e-08
8.8907e-08
8.51434e-08
8.33577e-08
8.31286e-08
8.34135e-08
8.39736e-08
8.4263e-08
8.29064e-08
7.74324e-08
6.83583e-08
6.04406e-08
5.50394e-08
5.22865e-08
5.24701e-08
6.06308e-08
1.10519e-07
3.49976e-07
1.38356e-06
5.3639e-06
1.91851e-05
6.26465e-05
0.000186402
0.000504199
0.00123574
0.00271031
0.00455282
0.00586042
0.00664542
0.0070225
0.0070747
3.98565e-08
3.99052e-08
3.99676e-08
4.00257e-08
4.00711e-08
4.01051e-08
4.01581e-08
4.01934e-08
4.02333e-08
4.02911e-08
4.034e-08
4.0413e-08
4.05059e-08
4.06093e-08
4.0743e-08
4.08999e-08
4.10887e-08
4.1309e-08
4.15632e-08
4.18528e-08
4.21746e-08
4.25286e-08
4.29132e-08
4.33249e-08
4.37594e-08
4.4214e-08
4.46844e-08
4.51664e-08
4.56526e-08
4.61362e-08
4.66125e-08
4.70743e-08
4.75138e-08
4.79215e-08
4.82938e-08
4.86243e-08
4.89058e-08
4.91345e-08
4.9296e-08
4.93912e-08
4.94171e-08
4.93724e-08
4.92552e-08
4.90602e-08
4.8804e-08
4.8493e-08
4.81543e-08
4.77861e-08
4.74093e-08
4.70176e-08
4.66159e-08
4.62136e-08
4.58066e-08
4.54057e-08
4.50327e-08
4.46669e-08
4.43553e-08
4.4079e-08
4.38051e-08
4.36268e-08
4.34654e-08
4.33435e-08
4.32737e-08
4.32214e-08
4.31877e-08
4.31608e-08
4.3147e-08
4.31458e-08
4.31652e-08
4.32051e-08
4.32687e-08
4.3351e-08
4.34534e-08
4.35634e-08
4.36785e-08
4.37968e-08
4.3919e-08
4.4055e-08
4.42103e-08
4.43846e-08
4.45882e-08
4.48251e-08
4.5091e-08
4.53983e-08
4.57449e-08
4.61288e-08
4.65801e-08
4.71238e-08
4.77888e-08
4.85953e-08
4.95352e-08
5.06021e-08
5.18225e-08
5.32732e-08
5.49965e-08
5.68169e-08
5.80134e-08
5.89505e-08
6.00499e-08
6.16009e-08
6.40624e-08
6.70705e-08
6.83974e-08
6.83095e-08
6.69547e-08
6.45281e-08
6.34051e-08
6.33601e-08
6.36763e-08
6.42831e-08
6.47694e-08
6.41065e-08
6.06194e-08
5.45978e-08
4.94064e-08
4.65405e-08
4.56247e-08
4.71277e-08
5.80261e-08
1.17058e-07
4.0372e-07
1.64071e-06
6.41166e-06
2.29869e-05
7.50156e-05
0.00022218
0.00059495
0.00143536
0.00309187
0.00516275
0.00665381
0.00756701
0.00802287
0.00810766
3.90474e-08
3.91112e-08
3.91738e-08
3.9219e-08
3.92417e-08
3.92489e-08
3.92594e-08
3.92466e-08
3.92233e-08
3.92032e-08
3.91671e-08
3.91378e-08
3.91142e-08
3.90875e-08
3.90731e-08
3.90695e-08
3.90842e-08
3.9119e-08
3.91726e-08
3.92501e-08
3.93491e-08
3.9472e-08
3.96188e-08
3.97867e-08
3.99735e-08
4.01781e-08
4.03959e-08
4.06238e-08
4.08592e-08
4.11002e-08
4.13414e-08
4.15793e-08
4.18092e-08
4.20271e-08
4.22284e-08
4.24069e-08
4.25584e-08
4.26794e-08
4.27642e-08
4.28126e-08
4.28223e-08
4.27906e-08
4.2718e-08
4.26033e-08
4.24548e-08
4.22736e-08
4.20821e-08
4.18786e-08
4.16711e-08
4.14563e-08
4.12453e-08
4.10399e-08
4.08334e-08
4.0636e-08
4.04571e-08
4.02836e-08
4.01425e-08
4.00134e-08
3.99095e-08
3.98427e-08
3.97947e-08
3.9764e-08
3.97572e-08
3.97543e-08
3.97645e-08
3.97756e-08
3.97968e-08
3.98203e-08
3.98571e-08
3.99005e-08
3.99533e-08
4.00101e-08
4.00753e-08
4.01346e-08
4.01956e-08
4.02572e-08
4.0319e-08
4.03924e-08
4.04683e-08
4.0553e-08
4.06542e-08
4.07647e-08
4.08878e-08
4.10404e-08
4.11986e-08
4.13894e-08
4.16095e-08
4.18796e-08
4.22112e-08
4.2622e-08
4.31172e-08
4.37012e-08
4.44043e-08
4.52734e-08
4.63195e-08
4.74664e-08
4.82209e-08
4.88351e-08
4.95625e-08
5.06012e-08
5.22625e-08
5.43753e-08
5.53539e-08
5.53144e-08
5.43978e-08
5.27578e-08
5.20976e-08
5.21952e-08
5.2549e-08
5.30949e-08
5.35121e-08
5.31724e-08
5.0999e-08
4.72762e-08
4.46032e-08
4.37164e-08
4.39029e-08
4.61438e-08
5.90874e-08
1.2949e-07
4.731e-07
1.95684e-06
7.67874e-06
2.74986e-05
8.92599e-05
0.000261853
0.000691461
0.00163786
0.00345953
0.00574249
0.00741142
0.00845317
0.0089929
0.00911283
3.88998e-08
3.89747e-08
3.90511e-08
3.91057e-08
3.91291e-08
3.91291e-08
3.91411e-08
3.91194e-08
3.90734e-08
3.90414e-08
3.8977e-08
3.89156e-08
3.88578e-08
3.87853e-08
3.87154e-08
3.86492e-08
3.85869e-08
3.85373e-08
3.84953e-08
3.84679e-08
3.84547e-08
3.84568e-08
3.8477e-08
3.85143e-08
3.85686e-08
3.86392e-08
3.87242e-08
3.88222e-08
3.8931e-08
3.90475e-08
3.91679e-08
3.92888e-08
3.94075e-08
3.95198e-08
3.96234e-08
3.97145e-08
3.97917e-08
3.98529e-08
3.9894e-08
3.99147e-08
3.99135e-08
3.98884e-08
3.98412e-08
3.97698e-08
3.96794e-08
3.95702e-08
3.94617e-08
3.93462e-08
3.92402e-08
3.91306e-08
3.90211e-08
3.89202e-08
3.88234e-08
3.87395e-08
3.86667e-08
3.86087e-08
3.85679e-08
3.85327e-08
3.85296e-08
3.85409e-08
3.85618e-08
3.85889e-08
3.86208e-08
3.86499e-08
3.86858e-08
3.87248e-08
3.87661e-08
3.8805e-08
3.88555e-08
3.89079e-08
3.89628e-08
3.90145e-08
3.90617e-08
3.90992e-08
3.91338e-08
3.91713e-08
3.92e-08
3.92394e-08
3.92756e-08
3.93151e-08
3.93661e-08
3.94093e-08
3.94552e-08
3.95249e-08
3.95774e-08
3.96586e-08
3.9749e-08
3.98651e-08
4.00011e-08
4.01649e-08
4.03723e-08
4.06375e-08
4.09936e-08
4.14621e-08
4.20393e-08
4.2708e-08
4.31664e-08
4.35542e-08
4.4022e-08
4.47144e-08
4.58354e-08
4.72738e-08
4.79475e-08
4.79182e-08
4.72841e-08
4.61899e-08
4.58385e-08
4.59484e-08
4.62409e-08
4.66908e-08
4.714e-08
4.71372e-08
4.62669e-08
4.46318e-08
4.37344e-08
4.37084e-08
4.43965e-08
4.7455e-08
6.40256e-08
1.52712e-07
5.79329e-07
2.40436e-06
9.36342e-06
3.31397e-05
0.000106067
0.000306292
0.0007949
0.00184471
0.00381374
0.00629201
0.00813027
0.00929829
0.00992294
0.0100847
3.89063e-08
3.89976e-08
3.91035e-08
3.91833e-08
3.92231e-08
3.92357e-08
3.92745e-08
3.92817e-08
3.92256e-08
3.92006e-08
3.9129e-08
3.90469e-08
3.89707e-08
3.88735e-08
3.87696e-08
3.86726e-08
3.85798e-08
3.85002e-08
3.84257e-08
3.83585e-08
3.83038e-08
3.82569e-08
3.82213e-08
3.81978e-08
3.81842e-08
3.81825e-08
3.81885e-08
3.82075e-08
3.82361e-08
3.82721e-08
3.83151e-08
3.83635e-08
3.84145e-08
3.84657e-08
3.85152e-08
3.85602e-08
3.85989e-08
3.86292e-08
3.86482e-08
3.86549e-08
3.8649e-08
3.86283e-08
3.85948e-08
3.85479e-08
3.84903e-08
3.84247e-08
3.83639e-08
3.83024e-08
3.82445e-08
3.8186e-08
3.81406e-08
3.81017e-08
3.80653e-08
3.80388e-08
3.80241e-08
3.80223e-08
3.8035e-08
3.80508e-08
3.80989e-08
3.81518e-08
3.82069e-08
3.82647e-08
3.83206e-08
3.83702e-08
3.84217e-08
3.84756e-08
3.85279e-08
3.8578e-08
3.86404e-08
3.87068e-08
3.87747e-08
3.88371e-08
3.88879e-08
3.89246e-08
3.89528e-08
3.89847e-08
3.90087e-08
3.90393e-08
3.90635e-08
3.90868e-08
3.91209e-08
3.9142e-08
3.91605e-08
3.92034e-08
3.92131e-08
3.925e-08
3.92824e-08
3.93328e-08
3.93745e-08
3.9415e-08
3.94701e-08
3.9549e-08
3.96926e-08
3.99061e-08
4.01701e-08
4.04891e-08
4.07339e-08
4.09669e-08
4.12609e-08
4.17078e-08
4.24437e-08
4.34319e-08
4.39521e-08
4.39718e-08
4.36075e-08
4.29675e-08
4.28312e-08
4.294e-08
4.3224e-08
4.36763e-08
4.42337e-08
4.478e-08
4.48136e-08
4.44689e-08
4.44118e-08
4.54136e-08
4.76466e-08
5.33232e-08
7.8388e-08
2.00484e-07
7.63048e-07
3.09743e-06
1.17536e-05
4.05889e-05
0.000126968
0.000358725
0.000910692
0.00206223
0.00416302
0.00682894
0.00883615
0.0101292
0.0108392
0.0110451
3.88551e-08
3.89555e-08
3.90844e-08
3.91862e-08
3.92424e-08
3.92699e-08
3.93418e-08
3.93773e-08
3.93424e-08
3.93524e-08
3.9327e-08
3.92691e-08
3.92257e-08
3.91558e-08
3.90638e-08
3.89687e-08
3.88678e-08
3.87615e-08
3.86532e-08
3.85426e-08
3.84415e-08
3.83506e-08
3.82728e-08
3.82153e-08
3.81722e-08
3.81438e-08
3.81162e-08
3.81075e-08
3.8106e-08
3.81087e-08
3.81164e-08
3.81268e-08
3.81387e-08
3.81505e-08
3.81631e-08
3.81738e-08
3.81829e-08
3.81889e-08
3.81898e-08
3.81851e-08
3.81718e-08
3.8152e-08
3.81277e-08
3.80961e-08
3.80571e-08
3.80234e-08
3.79921e-08
3.7967e-08
3.79422e-08
3.79235e-08
3.7913e-08
3.79077e-08
3.79044e-08
3.7914e-08
3.79311e-08
3.79619e-08
3.80071e-08
3.80508e-08
3.81329e-08
3.82186e-08
3.83048e-08
3.83902e-08
3.84709e-08
3.85433e-08
3.86152e-08
3.86894e-08
3.87612e-08
3.88375e-08
3.89166e-08
3.89921e-08
3.90616e-08
3.91217e-08
3.91687e-08
3.92041e-08
3.92315e-08
3.92566e-08
3.92708e-08
3.92773e-08
3.92789e-08
3.92686e-08
3.92799e-08
3.92873e-08
3.92854e-08
3.93103e-08
3.92985e-08
3.93107e-08
3.93201e-08
3.93505e-08
3.9362e-08
3.93633e-08
3.93696e-08
3.9387e-08
3.94534e-08
3.95574e-08
3.96699e-08
3.97942e-08
3.99049e-08
4.00338e-08
4.02177e-08
4.05163e-08
4.09925e-08
4.16243e-08
4.19847e-08
4.20313e-08
4.18767e-08
4.15997e-08
4.15995e-08
4.17336e-08
4.20418e-08
4.25743e-08
4.33379e-08
4.42453e-08
4.4865e-08
4.55258e-08
4.75454e-08
5.16639e-08
5.81424e-08
7.09073e-08
1.16203e-07
3.05326e-07
1.10872e-06
4.26226e-06
1.54194e-05
5.11101e-05
0.000154302
0.000422817
0.00104374
0.00229337
0.00450712
0.00735164
0.00952612
0.0109445
0.01174
0.0119902
3.85119e-08
3.86135e-08
3.87768e-08
3.89191e-08
3.90086e-08
3.90712e-08
3.92074e-08
3.92849e-08
3.92844e-08
3.93336e-08
3.93474e-08
3.93132e-08
3.92999e-08
3.9262e-08
3.92041e-08
3.91448e-08
3.90783e-08
3.89997e-08
3.89174e-08
3.88276e-08
3.87408e-08
3.86522e-08
3.85605e-08
3.84778e-08
3.84031e-08
3.83434e-08
3.82934e-08
3.82544e-08
3.82263e-08
3.82051e-08
3.81923e-08
3.81823e-08
3.8177e-08
3.81738e-08
3.81715e-08
3.81691e-08
3.81652e-08
3.81603e-08
3.81528e-08
3.81418e-08
3.81234e-08
3.81015e-08
3.80755e-08
3.80449e-08
3.80123e-08
3.799e-08
3.79696e-08
3.79578e-08
3.79439e-08
3.7938e-08
3.794e-08
3.79503e-08
3.79641e-08
3.79964e-08
3.80393e-08
3.80997e-08
3.8179e-08
3.82627e-08
3.8392e-08
3.85235e-08
3.86526e-08
3.87785e-08
3.88913e-08
3.89893e-08
3.90805e-08
3.91659e-08
3.92482e-08
3.93304e-08
3.94137e-08
3.94959e-08
3.9572e-08
3.96369e-08
3.96884e-08
3.97268e-08
3.97565e-08
3.97809e-08
3.97988e-08
3.98034e-08
3.97968e-08
3.97449e-08
3.97432e-08
3.9765e-08
3.97686e-08
3.97964e-08
3.97935e-08
3.98024e-08
3.98013e-08
3.98123e-08
3.97889e-08
3.97212e-08
3.96519e-08
3.95994e-08
3.96237e-08
3.96967e-08
3.9765e-08
3.98074e-08
3.98643e-08
3.99486e-08
4.00819e-08
4.03133e-08
4.06985e-08
4.12028e-08
4.14812e-08
4.15218e-08
4.14281e-08
4.13611e-08
4.1437e-08
4.1637e-08
4.19915e-08
4.25652e-08
4.34097e-08
4.45317e-08
4.60253e-08
4.94383e-08
5.6935e-08
6.92745e-08
8.71793e-08
1.1841e-07
2.11167e-07
5.33377e-07
1.75197e-06
6.1841e-06
2.09437e-05
6.58692e-05
0.000190569
0.000504026
0.00120241
0.00254479
0.004852
0.00786856
0.0102123
0.0117553
0.0126341
0.0129285
3.72076e-08
3.73122e-08
3.74964e-08
3.77432e-08
3.79372e-08
3.81152e-08
3.83931e-08
3.86115e-08
3.87399e-08
3.89236e-08
3.90589e-08
3.91173e-08
3.91835e-08
3.92111e-08
3.91973e-08
3.91705e-08
3.91334e-08
3.90806e-08
3.90274e-08
3.89688e-08
3.89079e-08
3.88458e-08
3.87763e-08
3.87009e-08
3.86279e-08
3.85616e-08
3.84992e-08
3.84435e-08
3.83968e-08
3.8357e-08
3.83252e-08
3.82989e-08
3.82767e-08
3.82583e-08
3.82432e-08
3.82297e-08
3.82168e-08
3.82055e-08
3.81926e-08
3.81783e-08
3.81573e-08
3.81376e-08
3.81143e-08
3.80847e-08
3.80575e-08
3.80463e-08
3.80411e-08
3.80466e-08
3.80569e-08
3.80755e-08
3.81026e-08
3.81396e-08
3.81806e-08
3.82412e-08
3.83111e-08
3.83917e-08
3.84897e-08
3.85867e-08
3.87143e-08
3.88419e-08
3.89531e-08
3.90637e-08
3.91639e-08
3.92499e-08
3.93285e-08
3.94026e-08
3.94761e-08
3.95496e-08
3.96228e-08
3.9693e-08
3.97564e-08
3.98138e-08
3.98641e-08
3.9905e-08
3.99375e-08
3.99643e-08
3.99873e-08
3.99993e-08
3.99966e-08
3.9931e-08
3.99334e-08
3.99729e-08
3.99939e-08
4.00487e-08
4.0077e-08
4.01244e-08
4.01553e-08
4.02013e-08
4.02283e-08
4.02137e-08
4.01621e-08
4.00767e-08
4.00383e-08
4.00156e-08
3.99798e-08
3.99521e-08
3.99646e-08
4.00252e-08
4.01575e-08
4.04009e-08
4.0782e-08
4.12124e-08
4.14115e-08
4.14361e-08
4.13524e-08
4.13614e-08
4.14579e-08
4.16777e-08
4.20623e-08
4.27261e-08
4.38242e-08
4.56508e-08
4.94691e-08
5.98881e-08
8.15464e-08
1.159e-07
1.64586e-07
2.42219e-07
4.41615e-07
1.01256e-06
2.88736e-06
9.16543e-06
2.88967e-05
8.62789e-05
0.000239546
0.000610364
0.00139577
0.00282082
0.00520059
0.0083806
0.0108947
0.0125631
0.0135235
0.0138564
3.36298e-08
3.37097e-08
3.38967e-08
3.43428e-08
3.48004e-08
3.52513e-08
3.58073e-08
3.63921e-08
3.68738e-08
3.73553e-08
3.78113e-08
3.81529e-08
3.84583e-08
3.86992e-08
3.88563e-08
3.89657e-08
3.90269e-08
3.90426e-08
3.90333e-08
3.90059e-08
3.89698e-08
3.89318e-08
3.88892e-08
3.88395e-08
3.87867e-08
3.87374e-08
3.86924e-08
3.86491e-08
3.86104e-08
3.85757e-08
3.85454e-08
3.85157e-08
3.8488e-08
3.84613e-08
3.84375e-08
3.8413e-08
3.83897e-08
3.83702e-08
3.83485e-08
3.83325e-08
3.83108e-08
3.8289e-08
3.82637e-08
3.82422e-08
3.82253e-08
3.8219e-08
3.82178e-08
3.82224e-08
3.82281e-08
3.82391e-08
3.82561e-08
3.82781e-08
3.82986e-08
3.8337e-08
3.83896e-08
3.84514e-08
3.85297e-08
3.86087e-08
3.87133e-08
3.88264e-08
3.89212e-08
3.90165e-08
3.91058e-08
3.91829e-08
3.92558e-08
3.93262e-08
3.93958e-08
3.94648e-08
3.95329e-08
3.95982e-08
3.96588e-08
3.97145e-08
3.9764e-08
3.9806e-08
3.98407e-08
3.98709e-08
3.98945e-08
3.991e-08
3.99244e-08
3.98687e-08
3.98824e-08
3.99293e-08
3.99673e-08
4.00456e-08
4.01029e-08
4.01839e-08
4.0256e-08
4.03397e-08
4.04227e-08
4.04585e-08
4.04729e-08
4.04683e-08
4.05108e-08
4.05437e-08
4.05024e-08
4.04182e-08
4.03569e-08
4.03512e-08
4.04004e-08
4.05648e-08
4.08738e-08
4.12688e-08
4.14542e-08
4.14498e-08
4.13548e-08
4.13854e-08
4.15329e-08
4.18316e-08
4.23496e-08
4.32878e-08
4.50592e-08
4.87451e-08
5.82674e-08
8.60194e-08
1.43985e-07
2.37304e-07
3.67621e-07
5.58355e-07
9.89924e-07
2.01045e-06
4.86516e-06
1.36902e-05
4.03009e-05
0.000115388
0.000309299
0.000755691
0.00163504
0.00312806
0.00555836
0.00889276
0.0115799
0.0133723
0.0144112
0.0147766
2.54432e-08
2.55152e-08
2.56507e-08
2.63532e-08
2.74272e-08
2.84205e-08
2.9452e-08
3.08095e-08
3.20271e-08
3.31408e-08
3.42685e-08
3.52341e-08
3.6081e-08
3.68276e-08
3.74186e-08
3.78901e-08
3.82568e-08
3.85187e-08
3.86978e-08
3.88096e-08
3.88675e-08
3.88901e-08
3.88868e-08
3.88633e-08
3.88292e-08
3.87933e-08
3.87599e-08
3.8727e-08
3.86987e-08
3.86731e-08
3.86517e-08
3.86302e-08
3.86092e-08
3.85862e-08
3.8565e-08
3.85427e-08
3.85178e-08
3.84949e-08
3.84694e-08
3.8446e-08
3.84152e-08
3.83828e-08
3.83503e-08
3.83141e-08
3.82812e-08
3.82597e-08
3.8241e-08
3.82284e-08
3.82193e-08
3.82118e-08
3.82093e-08
3.82122e-08
3.82154e-08
3.82362e-08
3.82694e-08
3.83088e-08
3.83593e-08
3.84056e-08
3.84604e-08
3.85302e-08
3.85758e-08
3.86402e-08
3.87085e-08
3.87677e-08
3.8822e-08
3.88714e-08
3.89162e-08
3.89567e-08
3.89953e-08
3.90374e-08
3.90873e-08
3.91412e-08
3.9194e-08
3.92393e-08
3.9275e-08
3.9309e-08
3.93414e-08
3.93645e-08
3.94121e-08
3.93815e-08
3.93974e-08
3.94361e-08
3.95067e-08
3.96002e-08
3.97225e-08
3.98494e-08
3.99775e-08
4.01232e-08
4.02825e-08
4.03849e-08
4.04767e-08
4.05278e-08
4.06332e-08
4.07697e-08
4.07682e-08
4.07195e-08
4.06566e-08
4.06335e-08
4.06897e-08
4.08808e-08
4.12116e-08
4.15242e-08
4.15979e-08
4.15544e-08
4.14759e-08
4.15551e-08
4.17921e-08
4.22334e-08
4.30263e-08
4.46002e-08
4.7975e-08
5.6022e-08
7.88181e-08
1.4788e-07
2.96607e-07
5.44255e-07
8.84354e-07
1.34113e-06
2.26759e-06
4.12807e-06
8.54663e-06
2.11496e-05
5.80813e-05
0.000160328
0.000414274
0.000957785
0.00192998
0.00347158
0.00592945
0.00940756
0.0122709
0.0141884
0.0153028
0.0156895
1.47621e-08
1.48266e-08
1.4895e-08
1.55111e-08
1.69428e-08
1.82977e-08
1.96411e-08
2.1862e-08
2.41171e-08
2.61162e-08
2.8224e-08
3.01043e-08
3.17236e-08
3.32171e-08
3.44742e-08
3.5512e-08
3.63742e-08
3.7069e-08
3.76103e-08
3.80161e-08
3.83045e-08
3.85036e-08
3.8635e-08
3.87103e-08
3.87429e-08
3.87488e-08
3.87396e-08
3.87205e-08
3.86979e-08
3.8675e-08
3.86545e-08
3.86345e-08
3.8614e-08
3.85928e-08
3.85736e-08
3.85543e-08
3.85321e-08
3.8509e-08
3.84813e-08
3.8453e-08
3.84177e-08
3.83786e-08
3.83383e-08
3.82944e-08
3.82509e-08
3.82125e-08
3.81739e-08
3.81344e-08
3.8095e-08
3.80553e-08
3.80164e-08
3.79791e-08
3.79373e-08
3.79068e-08
3.78861e-08
3.78622e-08
3.784e-08
3.78079e-08
3.77635e-08
3.77524e-08
3.77119e-08
3.77076e-08
3.77259e-08
3.77392e-08
3.77556e-08
3.77745e-08
3.77928e-08
3.78173e-08
3.78453e-08
3.78799e-08
3.79287e-08
3.79876e-08
3.80582e-08
3.81291e-08
3.81928e-08
3.82485e-08
3.82895e-08
3.83173e-08
3.83845e-08
3.83542e-08
3.83513e-08
3.83769e-08
3.8437e-08
3.85423e-08
3.86859e-08
3.88588e-08
3.90667e-08
3.92927e-08
3.95374e-08
3.97606e-08
3.99639e-08
4.01024e-08
4.029e-08
4.05586e-08
4.06879e-08
4.06837e-08
4.06506e-08
4.058e-08
4.05867e-08
4.07459e-08
4.11516e-08
4.17075e-08
4.19359e-08
4.19154e-08
4.19298e-08
4.21261e-08
4.27512e-08
4.43414e-08
4.87781e-08
6.24138e-08
1.03904e-07
2.25043e-07
5.91514e-07
1.64532e-06
3.6207e-06
6.17387e-06
8.44825e-06
1.03858e-05
1.40137e-05
2.04011e-05
3.25858e-05
6.32293e-05
0.000150299
0.000388189
0.000941547
0.00194126
0.00332242
0.00511846
0.00777114
0.0121698
0.0164653
0.0199337
0.0228368
0.0253342
8.6792e-09
8.81094e-09
8.88173e-09
9.30524e-09
1.03834e-08
1.15133e-08
1.25702e-08
1.43052e-08
1.65253e-08
1.85771e-08
2.12031e-08
2.39972e-08
2.64461e-08
2.87112e-08
3.06868e-08
3.23138e-08
3.37023e-08
3.48746e-08
3.58212e-08
3.65706e-08
3.7154e-08
3.75976e-08
3.79341e-08
3.81803e-08
3.83502e-08
3.84662e-08
3.85445e-08
3.85942e-08
3.86223e-08
3.86353e-08
3.86384e-08
3.86328e-08
3.86197e-08
3.85988e-08
3.85711e-08
3.85387e-08
3.85018e-08
3.84661e-08
3.84279e-08
3.83893e-08
3.83442e-08
3.82903e-08
3.82295e-08
3.8164e-08
3.8093e-08
3.8015e-08
3.79298e-08
3.78406e-08
3.77486e-08
3.76531e-08
3.75524e-08
3.74476e-08
3.73298e-08
3.7209e-08
3.70975e-08
3.69772e-08
3.68558e-08
3.67241e-08
3.65689e-08
3.6477e-08
3.63589e-08
3.62927e-08
3.62682e-08
3.62542e-08
3.62666e-08
3.62978e-08
3.63352e-08
3.63819e-08
3.64325e-08
3.64937e-08
3.65644e-08
3.66477e-08
3.67389e-08
3.68324e-08
3.69219e-08
3.70077e-08
3.70754e-08
3.71301e-08
3.71744e-08
3.72e-08
3.72019e-08
3.72006e-08
3.72295e-08
3.73181e-08
3.74513e-08
3.76169e-08
3.78235e-08
3.8061e-08
3.83354e-08
3.85781e-08
3.88573e-08
3.9008e-08
3.91872e-08
3.94294e-08
3.96201e-08
3.96882e-08
3.97218e-08
3.98022e-08
3.99797e-08
4.02778e-08
4.07412e-08
4.1398e-08
4.2238e-08
4.32198e-08
4.44649e-08
4.634e-08
4.97637e-08
5.84172e-08
8.68594e-08
1.8695e-07
5.12729e-07
1.47407e-06
4.32099e-06
1.21697e-05
2.61298e-05
4.34755e-05
5.97609e-05
7.62611e-05
0.000105308
0.000153134
0.000227986
0.00038672
0.000810339
0.00193048
0.00418664
0.00675574
0.00886753
0.0106872
0.0128972
0.0180219
0.026011
0.033384
0.0406933
0.0482295
4.49454e-09
4.57375e-09
4.64199e-09
4.9264e-09
5.63409e-09
6.4885e-09
7.28524e-09
8.52905e-09
1.02854e-08
1.195e-08
1.41053e-08
1.67813e-08
1.95301e-08
2.26242e-08
2.55708e-08
2.7989e-08
3.00553e-08
3.18354e-08
3.32955e-08
3.44717e-08
3.54156e-08
3.61542e-08
3.67247e-08
3.71581e-08
3.74784e-08
3.77155e-08
3.78915e-08
3.80197e-08
3.8112e-08
3.8178e-08
3.8225e-08
3.82568e-08
3.82739e-08
3.82779e-08
3.82716e-08
3.82557e-08
3.82313e-08
3.82017e-08
3.81636e-08
3.81176e-08
3.80579e-08
3.79854e-08
3.79011e-08
3.78071e-08
3.76969e-08
3.75644e-08
3.74121e-08
3.72475e-08
3.70757e-08
3.68924e-08
3.66957e-08
3.64886e-08
3.62608e-08
3.60196e-08
3.57955e-08
3.55628e-08
3.53381e-08
3.51059e-08
3.48494e-08
3.46914e-08
3.45158e-08
3.43998e-08
3.43394e-08
3.43056e-08
3.4319e-08
3.43642e-08
3.44169e-08
3.44896e-08
3.45705e-08
3.46623e-08
3.47641e-08
3.48874e-08
3.50167e-08
3.5155e-08
3.52988e-08
3.54528e-08
3.55899e-08
3.57015e-08
3.57879e-08
3.58679e-08
3.59238e-08
3.59504e-08
3.60165e-08
3.61262e-08
3.62849e-08
3.64647e-08
3.66514e-08
3.68442e-08
3.7094e-08
3.73252e-08
3.75896e-08
3.77873e-08
3.80262e-08
3.83377e-08
3.86068e-08
3.88296e-08
3.91006e-08
3.94295e-08
3.99238e-08
4.07244e-08
4.18683e-08
4.35236e-08
4.62682e-08
5.08104e-08
5.76684e-08
6.72961e-08
8.23179e-08
1.18004e-07
2.38107e-07
6.66018e-07
2.06319e-06
6.19196e-06
1.82287e-05
5.12101e-05
0.000111997
0.000197941
0.000307507
0.000455221
0.000698908
0.00106343
0.00155103
0.00237293
0.00418299
0.00833694
0.0141877
0.0184691
0.0208611
0.0219744
0.0229829
0.0277683
0.0401533
0.0530685
0.065681
0.0789235
1.86947e-09
1.91886e-09
2.02625e-09
2.20378e-09
2.57548e-09
3.11568e-09
3.68928e-09
4.49338e-09
5.68536e-09
6.90529e-09
8.47797e-09
1.0548e-08
1.27634e-08
1.5464e-08
1.85671e-08
2.17319e-08
2.47189e-08
2.73328e-08
2.95051e-08
3.1296e-08
3.27837e-08
3.39882e-08
3.49508e-08
3.57079e-08
3.62862e-08
3.6726e-08
3.70651e-08
3.73221e-08
3.75151e-08
3.76585e-08
3.77628e-08
3.7833e-08
3.78761e-08
3.78949e-08
3.78948e-08
3.78776e-08
3.78453e-08
3.78022e-08
3.77467e-08
3.76794e-08
3.7594e-08
3.74886e-08
3.73632e-08
3.7217e-08
3.70408e-08
3.68216e-08
3.65674e-08
3.62902e-08
3.60032e-08
3.56987e-08
3.53762e-08
3.50394e-08
3.46777e-08
3.42982e-08
3.39542e-08
3.36097e-08
3.32866e-08
3.29553e-08
3.25993e-08
3.23817e-08
3.21544e-08
3.1987e-08
3.18908e-08
3.18446e-08
3.18644e-08
3.19313e-08
3.20111e-08
3.2124e-08
3.225e-08
3.23904e-08
3.25416e-08
3.27232e-08
3.29284e-08
3.31646e-08
3.34202e-08
3.369e-08
3.39396e-08
3.41556e-08
3.43369e-08
3.44918e-08
3.4637e-08
3.47171e-08
3.48394e-08
3.49965e-08
3.52228e-08
3.54722e-08
3.57243e-08
3.59488e-08
3.62187e-08
3.64726e-08
3.67844e-08
3.70994e-08
3.74453e-08
3.78476e-08
3.82131e-08
3.86152e-08
3.92279e-08
4.03542e-08
4.22137e-08
4.48111e-08
4.81898e-08
5.3289e-08
6.26841e-08
7.96342e-08
1.06256e-07
1.43441e-07
1.98595e-07
3.20504e-07
7.18043e-07
2.15123e-06
6.8764e-06
2.07675e-05
6.0725e-05
0.000169866
0.000377112
0.000697495
0.00116255
0.00183885
0.00291666
0.00436822
0.00612242
0.00851137
0.0126352
0.0205691
0.0294066
0.0351706
0.0377663
0.038253
0.0380595
0.0414628
0.0562671
0.0754203
0.0935189
0.112322
8.3893e-10
8.0492e-10
8.35788e-10
9.12428e-10
1.03427e-09
1.20806e-09
1.60748e-09
2.08193e-09
2.72446e-09
3.533e-09
4.55685e-09
5.97134e-09
7.59074e-09
9.65188e-09
1.21672e-08
1.49296e-08
1.79592e-08
2.12613e-08
2.43035e-08
2.68036e-08
2.89112e-08
3.06416e-08
3.20506e-08
3.31958e-08
3.41079e-08
3.48249e-08
3.53895e-08
3.58334e-08
3.61833e-08
3.64603e-08
3.66792e-08
3.68449e-08
3.6963e-08
3.70375e-08
3.7076e-08
3.70833e-08
3.70647e-08
3.70235e-08
3.69583e-08
3.68713e-08
3.67556e-08
3.66072e-08
3.64248e-08
3.62067e-08
3.59398e-08
3.56093e-08
3.52301e-08
3.48207e-08
3.44032e-08
3.39645e-08
3.35042e-08
3.30254e-08
3.25185e-08
3.19939e-08
3.15232e-08
3.10568e-08
3.06117e-08