/*--------------------------------*- C++ -*----------------------------------*\
| =========                 |                                                 |
| \\      /  F ield         | OpenFOAM: The Open Source CFD Toolbox           |
|  \\    /   O peration     | Version:  v1912                                 |
|   \\  /    A nd           | Website:  www.openfoam.com                      |
|    \\/     M anipulation  |                                                 |
\*---------------------------------------------------------------------------*/
FoamFile
{
    version     2.0;
    format      ascii;
    class       volSymmTensorField;
    location    "100";
    object      R;
}
// * * * * * * * * * * * * * * * * * * * * * * * * * * * * * * * * * * * * * //

dimensions      [0 2 -2 0 0 0 0];


internalField   nonuniform List<symmTensor> 
14268
(
(2.65688e-07 -5.00398e-08 0 3.58728e-07 0 3.13224e-07)
(2.64711e-07 -5.00014e-08 0 3.58499e-07 0 3.12678e-07)
(2.63975e-07 -4.99377e-08 0 3.58023e-07 0 3.12105e-07)
(2.63625e-07 -4.98862e-08 0 3.57522e-07 0 3.11683e-07)
(2.63678e-07 -4.98482e-08 0 3.57011e-07 0 3.11437e-07)
(2.64071e-07 -4.98154e-08 0 3.56483e-07 0 3.11338e-07)
(2.64788e-07 -4.97874e-08 0 3.5586e-07 0 3.11334e-07)
(2.65886e-07 -4.97633e-08 0 3.55073e-07 0 3.11446e-07)
(2.67301e-07 -4.97287e-08 0 3.54135e-07 0 3.11628e-07)
(2.69038e-07 -4.9695e-08 0 3.52991e-07 0 3.11864e-07)
(2.7109e-07 -4.965e-08 0 3.51593e-07 0 3.12156e-07)
(2.73421e-07 -4.95772e-08 0 3.49959e-07 0 3.12452e-07)
(2.76032e-07 -4.95065e-08 0 3.48055e-07 0 3.12775e-07)
(2.78924e-07 -4.93943e-08 0 3.45783e-07 0 3.13086e-07)
(2.82024e-07 -4.92493e-08 0 3.43292e-07 0 3.13364e-07)
(2.8545e-07 -4.9062e-08 0 3.40221e-07 0 3.13582e-07)
(2.8906e-07 -4.88494e-08 0 3.36967e-07 0 3.13776e-07)
(2.92703e-07 -4.8618e-08 0 3.33714e-07 0 3.13999e-07)
(2.96571e-07 -4.83491e-08 0 3.30182e-07 0 3.14198e-07)
(3.00438e-07 -4.8091e-08 0 3.2668e-07 0 3.14388e-07)
(3.04255e-07 -4.78442e-08 0 3.2317e-07 0 3.14574e-07)
(3.08146e-07 -4.757e-08 0 3.19476e-07 0 3.14694e-07)
(3.12195e-07 -4.72684e-08 0 3.15497e-07 0 3.14753e-07)
(3.16015e-07 -4.69511e-08 0 3.1171e-07 0 3.14803e-07)
(3.19683e-07 -4.6576e-08 0 3.07996e-07 0 3.14791e-07)
(3.22795e-07 -4.62055e-08 0 3.04707e-07 0 3.14695e-07)
(3.25595e-07 -4.57897e-08 0 3.01505e-07 0 3.14506e-07)
(3.28091e-07 -4.53333e-08 0 2.98437e-07 0 3.14178e-07)
(3.30066e-07 -4.48948e-08 0 2.95547e-07 0 3.13735e-07)
(3.31978e-07 -4.4441e-08 0 2.92588e-07 0 3.13176e-07)
(3.33465e-07 -4.39994e-08 0 2.89785e-07 0 3.12525e-07)
(3.34737e-07 -4.35624e-08 0 2.87052e-07 0 3.11766e-07)
(3.35429e-07 -4.31689e-08 0 2.84635e-07 0 3.10911e-07)
(3.35603e-07 -4.28049e-08 0 2.82409e-07 0 3.0991e-07)
(3.35793e-07 -4.24784e-08 0 2.80222e-07 0 3.08896e-07)
(3.35425e-07 -4.21358e-08 0 2.78181e-07 0 3.0777e-07)
(3.34791e-07 -4.18575e-08 0 2.76455e-07 0 3.06557e-07)
(3.34669e-07 -4.15733e-08 0 2.74305e-07 0 3.05447e-07)
(3.33112e-07 -4.12916e-08 0 2.7309e-07 0 3.04163e-07)
(3.33601e-07 -4.10508e-08 0 2.71037e-07 0 3.03117e-07)
(3.31271e-07 -4.078e-08 0 2.70068e-07 0 3.01888e-07)
(3.31873e-07 -4.0488e-08 0 2.68506e-07 0 3.00795e-07)
(3.28951e-07 -4.02571e-08 0 2.67664e-07 0 2.99524e-07)
(3.28617e-07 -3.99981e-08 0 2.67095e-07 0 2.98431e-07)
(3.26109e-07 -3.96683e-08 0 2.65721e-07 0 2.96915e-07)
(3.25284e-07 -3.94588e-08 0 2.65534e-07 0 2.95809e-07)
(3.20611e-07 -3.94001e-08 0 2.65987e-07 0 2.94397e-07)
(3.20609e-07 -3.90355e-08 0 2.64902e-07 0 2.93133e-07)
(3.14892e-07 -3.91788e-08 0 2.66544e-07 0 2.91739e-07)
(3.14489e-07 -3.87724e-08 0 2.65257e-07 0 2.9031e-07)
(3.08889e-07 -3.89014e-08 0 2.671e-07 0 2.88815e-07)
(3.07221e-07 -3.86469e-08 0 2.66497e-07 0 2.87369e-07)
(3.01428e-07 -3.87687e-08 0 2.6895e-07 0 2.85953e-07)
(2.99368e-07 -3.85568e-08 0 2.68487e-07 0 2.84444e-07)
(2.94396e-07 -3.87146e-08 0 2.70622e-07 0 2.8325e-07)
(2.91082e-07 -3.85973e-08 0 2.70973e-07 0 2.81673e-07)
(2.89143e-07 -3.86552e-08 0 2.71356e-07 0 2.80672e-07)
(2.84205e-07 -3.85423e-08 0 2.72694e-07 0 2.79376e-07)
(2.81296e-07 -3.86341e-08 0 2.74571e-07 0 2.78161e-07)
(2.79767e-07 -3.83536e-08 0 2.72532e-07 0 2.76963e-07)
(2.77299e-07 -3.81415e-08 0 2.73473e-07 0 2.75701e-07)
(2.74288e-07 -3.8072e-08 0 2.73831e-07 0 2.74551e-07)
(2.72862e-07 -3.78664e-08 0 2.73323e-07 0 2.73468e-07)
(2.69348e-07 -3.78282e-08 0 2.74597e-07 0 2.72534e-07)
(2.68688e-07 -3.73256e-08 0 2.72044e-07 0 2.70691e-07)
(2.64349e-07 -3.7436e-08 0 2.74643e-07 0 2.69955e-07)
(2.64018e-07 -3.68063e-08 0 2.71112e-07 0 2.67945e-07)
(2.60632e-07 -3.67135e-08 0 2.7227e-07 0 2.66929e-07)
(2.58837e-07 -3.63935e-08 0 2.71407e-07 0 2.6544e-07)
(2.56168e-07 -3.6288e-08 0 2.71953e-07 0 2.64571e-07)
(2.55751e-07 -3.58e-08 0 2.69398e-07 0 2.62881e-07)
(2.52879e-07 -3.57996e-08 0 2.70446e-07 0 2.62131e-07)
(2.53817e-07 -3.51517e-08 0 2.65973e-07 0 2.60174e-07)
(2.52111e-07 -3.51256e-08 0 2.6634e-07 0 2.59498e-07)
(2.52076e-07 -3.45394e-08 0 2.62448e-07 0 2.57396e-07)
(2.49893e-07 -3.45828e-08 0 2.62863e-07 0 2.56756e-07)
(2.49793e-07 -3.39998e-08 0 2.58982e-07 0 2.54637e-07)
(2.47952e-07 -3.39251e-08 0 2.59028e-07 0 2.53743e-07)
(2.48312e-07 -3.34444e-08 0 2.5541e-07 0 2.52085e-07)
(2.48137e-07 -3.31838e-08 0 2.53541e-07 0 2.51054e-07)
(2.49015e-07 -3.28159e-08 0 2.50688e-07 0 2.49936e-07)
(2.50375e-07 -3.2422e-08 0 2.47554e-07 0 2.48993e-07)
(2.5231e-07 -3.19084e-08 0 2.43545e-07 0 2.47943e-07)
(2.5264e-07 -3.17206e-08 0 2.43064e-07 0 2.47378e-07)
(2.58636e-07 -3.08673e-08 0 2.35079e-07 0 2.46725e-07)
(2.58395e-07 -3.06472e-08 0 2.35213e-07 0 2.45956e-07)
(2.65907e-07 -2.95963e-08 0 2.27377e-07 0 2.45667e-07)
(2.67657e-07 -2.92917e-08 0 2.25848e-07 0 2.45521e-07)
(2.73656e-07 -2.83755e-08 0 2.20364e-07 0 2.45445e-07)
(2.77521e-07 -2.78597e-08 0 2.17388e-07 0 2.45656e-07)
(2.80725e-07 -2.75192e-08 0 2.15373e-07 0 2.46135e-07)
(2.84543e-07 -2.69356e-08 0 2.12456e-07 0 2.46523e-07)
(2.88902e-07 -2.56074e-08 0 2.06625e-07 0 2.45394e-07)
(2.93003e-07 -2.48433e-08 0 2.01858e-07 0 2.44944e-07)
(2.98396e-07 -2.40418e-08 0 1.9635e-07 0 2.45374e-07)
(3.01589e-07 -2.30184e-08 0 1.91354e-07 0 2.44288e-07)
(3.03954e-07 -2.209e-08 0 1.87027e-07 0 2.4338e-07)
(3.04528e-07 -2.10983e-08 0 1.83636e-07 0 2.41759e-07)
(3.06549e-07 -1.98863e-08 0 1.78069e-07 0 2.39935e-07)
(3.08174e-07 -1.94406e-08 0 1.75164e-07 0 2.39307e-07)
(3.12272e-07 -1.88264e-08 0 1.70802e-07 0 2.39715e-07)
(3.20368e-07 -1.75047e-08 0 1.6254e-07 0 2.40872e-07)
(3.19125e-07 -1.64023e-08 0 1.58948e-07 0 2.37828e-07)
(3.12975e-07 -1.55218e-08 0 1.55995e-07 0 2.33401e-07)
(3.04568e-07 -1.45158e-08 0 1.54401e-07 0 2.27593e-07)
(2.97217e-07 -1.40856e-08 0 1.53708e-07 0 2.23211e-07)
(2.91847e-07 -1.30471e-08 0 1.49484e-07 0 2.19027e-07)
(2.85729e-07 -1.24479e-08 0 1.46297e-07 0 2.14697e-07)
(2.835e-07 -1.16446e-08 0 1.44168e-07 0 2.11357e-07)
(2.82196e-07 -1.06665e-08 0 1.3881e-07 0 2.09304e-07)
(2.77871e-07 -9.22267e-09 0 1.32873e-07 0 2.04058e-07)
(2.73537e-07 -8.24824e-09 0 1.26775e-07 0 1.99659e-07)
(2.54747e-07 -6.75543e-09 0 1.22177e-07 0 1.872e-07)
(2.29024e-07 -6.40954e-09 0 1.21919e-07 0 1.73177e-07)
(2.04024e-07 -6.05474e-09 0 1.21054e-07 0 1.60076e-07)
(1.84479e-07 -5.79625e-09 0 1.1971e-07 0 1.50267e-07)
(1.7275e-07 -4.82831e-09 0 1.15932e-07 0 1.42817e-07)
(1.58676e-07 -4.0042e-09 0 1.10426e-07 0 1.33536e-07)
(1.46254e-07 -2.72043e-09 0 1.01772e-07 0 1.23054e-07)
(1.36597e-07 -1.76009e-09 0 9.24834e-08 0 1.14216e-07)
(1.46577e-07 -1.94306e-09 0 9.64743e-08 0 1.22028e-07)
(2.42228e-07 -5.81704e-09 0 1.50802e-07 0 2.01411e-07)
(6.81609e-07 -2.18944e-08 0 4.10936e-07 0 5.67299e-07)
(2.29409e-06 -6.68921e-08 0 1.39803e-06 0 1.91814e-06)
(7.45415e-06 -1.65122e-07 0 4.73256e-06 0 6.31051e-06)
(2.22553e-05 -2.8912e-07 0 1.48596e-05 0 1.91485e-05)
(6.04195e-05 -3.63843e-08 0 4.23465e-05 0 5.2832e-05)
(0.000148043 2.47368e-06 0 0.000107714 0 0.000130983)
(0.000323349 1.07024e-05 0 0.000239836 0 0.000287323)
(0.000524992 2.18011e-05 0 0.000394911 0 0.000467794)
(0.000654368 2.75959e-05 0 0.000506009 0 0.000587783)
(0.000725027 1.75801e-05 0 0.00058086 0 0.000659279)
(0.000754901 -3.28366e-06 0 0.000623189 0 0.00069445)
(0.000739059 -2.83308e-05 0 0.000636655 0 0.000692153)
(1.2218e-07 -2.05694e-08 0 1.6951e-07 0 1.45573e-07)
(1.21596e-07 -2.06971e-08 0 1.69623e-07 0 1.4533e-07)
(1.21485e-07 -2.08644e-08 0 1.69964e-07 0 1.4544e-07)
(1.21812e-07 -2.10668e-08 0 1.70428e-07 0 1.45826e-07)
(1.22553e-07 -2.13032e-08 0 1.71008e-07 0 1.4649e-07)
(1.23623e-07 -2.15367e-08 0 1.71673e-07 0 1.47364e-07)
(1.25017e-07 -2.18024e-08 0 1.72425e-07 0 1.48421e-07)
(1.26798e-07 -2.2099e-08 0 1.73265e-07 0 1.49753e-07)
(1.2887e-07 -2.23799e-08 0 1.74167e-07 0 1.51239e-07)
(1.31278e-07 -2.27037e-08 0 1.75132e-07 0 1.52927e-07)
(1.34034e-07 -2.30344e-08 0 1.7615e-07 0 1.54838e-07)
(1.37069e-07 -2.33564e-08 0 1.77216e-07 0 1.56888e-07)
(1.4043e-07 -2.37105e-08 0 1.7832e-07 0 1.59132e-07)
(1.44082e-07 -2.40509e-08 0 1.79454e-07 0 1.61546e-07)
(1.4799e-07 -2.43826e-08 0 1.80584e-07 0 1.64064e-07)
(1.52136e-07 -2.47313e-08 0 1.81727e-07 0 1.6673e-07)
(1.56508e-07 -2.50608e-08 0 1.8284e-07 0 1.6948e-07)
(1.61079e-07 -2.53915e-08 0 1.83943e-07 0 1.72332e-07)
(1.65845e-07 -2.57085e-08 0 1.85011e-07 0 1.75262e-07)
(1.70775e-07 -2.60131e-08 0 1.86022e-07 0 1.78239e-07)
(1.75821e-07 -2.63035e-08 0 1.86965e-07 0 1.81252e-07)
(1.80926e-07 -2.65707e-08 0 1.87836e-07 0 1.84249e-07)
(1.86044e-07 -2.68229e-08 0 1.88628e-07 0 1.87217e-07)
(1.91125e-07 -2.70415e-08 0 1.89344e-07 0 1.90132e-07)
(1.96098e-07 -2.72231e-08 0 1.89995e-07 0 1.92959e-07)
(2.00916e-07 -2.73769e-08 0 1.90572e-07 0 1.95674e-07)
(2.05543e-07 -2.75002e-08 0 1.91071e-07 0 1.98261e-07)
(2.09949e-07 -2.75925e-08 0 1.91481e-07 0 2.00689e-07)
(2.14074e-07 -2.76592e-08 0 1.91817e-07 0 2.02946e-07)
(2.17908e-07 -2.76992e-08 0 1.92069e-07 0 2.04999e-07)
(2.21415e-07 -2.77262e-08 0 1.92229e-07 0 2.06851e-07)
(2.24592e-07 -2.77323e-08 0 1.9228e-07 0 2.08474e-07)
(2.27377e-07 -2.77181e-08 0 1.92239e-07 0 2.09856e-07)
(2.29742e-07 -2.76788e-08 0 1.92112e-07 0 2.10978e-07)
(2.31705e-07 -2.76236e-08 0 1.91883e-07 0 2.11828e-07)
(2.33205e-07 -2.7537e-08 0 1.91557e-07 0 2.12427e-07)
(2.34253e-07 -2.74462e-08 0 1.91168e-07 0 2.12728e-07)
(2.34931e-07 -2.7352e-08 0 1.9063e-07 0 2.12804e-07)
(2.35102e-07 -2.72193e-08 0 1.90134e-07 0 2.1265e-07)
(2.3513e-07 -2.70952e-08 0 1.89404e-07 0 2.12211e-07)
(2.34405e-07 -2.69259e-08 0 1.88784e-07 0 2.11688e-07)
(2.33607e-07 -2.67051e-08 0 1.88036e-07 0 2.10683e-07)
(2.31917e-07 -2.65514e-08 0 1.87331e-07 0 2.09734e-07)
(2.30143e-07 -2.62574e-08 0 1.86626e-07 0 2.08212e-07)
(2.27662e-07 -2.60852e-08 0 1.85759e-07 0 2.06797e-07)
(2.25119e-07 -2.57872e-08 0 1.84987e-07 0 2.04845e-07)
(2.21738e-07 -2.56557e-08 0 1.84297e-07 0 2.03124e-07)
(2.18888e-07 -2.53148e-08 0 1.83302e-07 0 2.00906e-07)
(2.15008e-07 -2.5206e-08 0 1.82696e-07 0 1.98921e-07)
(2.11734e-07 -2.48776e-08 0 1.8163e-07 0 1.96551e-07)
(2.07594e-07 -2.47391e-08 0 1.80955e-07 0 1.94281e-07)
(2.03886e-07 -2.44649e-08 0 1.79928e-07 0 1.91816e-07)
(1.99509e-07 -2.42932e-08 0 1.79264e-07 0 1.89384e-07)
(1.95578e-07 -2.40621e-08 0 1.78237e-07 0 1.86828e-07)
(1.91388e-07 -2.3896e-08 0 1.77515e-07 0 1.84445e-07)
(1.87343e-07 -2.36667e-08 0 1.76612e-07 0 1.8194e-07)
(1.83732e-07 -2.35252e-08 0 1.75788e-07 0 1.79639e-07)
(1.79934e-07 -2.33405e-08 0 1.75044e-07 0 1.77578e-07)
(1.7631e-07 -2.3179e-08 0 1.74455e-07 0 1.75252e-07)
(1.73563e-07 -2.31071e-08 0 1.73487e-07 0 1.7358e-07)
(1.70857e-07 -2.28864e-08 0 1.72836e-07 0 1.71801e-07)
(1.68411e-07 -2.27959e-08 0 1.72238e-07 0 1.70332e-07)
(1.66476e-07 -2.26952e-08 0 1.71678e-07 0 1.69102e-07)
(1.64616e-07 -2.25984e-08 0 1.71259e-07 0 1.68008e-07)
(1.63055e-07 -2.24801e-08 0 1.70695e-07 0 1.66939e-07)
(1.61336e-07 -2.24022e-08 0 1.70447e-07 0 1.65995e-07)
(1.60001e-07 -2.22877e-08 0 1.69873e-07 0 1.65037e-07)
(1.5862e-07 -2.22246e-08 0 1.69597e-07 0 1.64244e-07)
(1.57527e-07 -2.21564e-08 0 1.69279e-07 0 1.63536e-07)
(1.56637e-07 -2.21093e-08 0 1.69039e-07 0 1.62991e-07)
(1.56069e-07 -2.20603e-08 0 1.68784e-07 0 1.62558e-07)
(1.55645e-07 -2.20469e-08 0 1.68679e-07 0 1.6229e-07)
(1.55556e-07 -2.20149e-08 0 1.68372e-07 0 1.6206e-07)
(1.55458e-07 -2.20071e-08 0 1.68261e-07 0 1.61954e-07)
(1.55513e-07 -2.19707e-08 0 1.67969e-07 0 1.61814e-07)
(1.55418e-07 -2.19864e-08 0 1.67961e-07 0 1.61784e-07)
(1.55634e-07 -2.1949e-08 0 1.67552e-07 0 1.61687e-07)
(1.55453e-07 -2.19812e-08 0 1.67819e-07 0 1.61721e-07)
(1.56177e-07 -2.19143e-08 0 1.67158e-07 0 1.61757e-07)
(1.56779e-07 -2.18983e-08 0 1.66912e-07 0 1.6194e-07)
(1.57748e-07 -2.18846e-08 0 1.66611e-07 0 1.62228e-07)
(1.59178e-07 -2.18567e-08 0 1.66145e-07 0 1.62715e-07)
(1.60774e-07 -2.18362e-08 0 1.65807e-07 0 1.63372e-07)
(1.62875e-07 -2.17677e-08 0 1.65334e-07 0 1.63978e-07)
(1.65582e-07 -2.16597e-08 0 1.64267e-07 0 1.64895e-07)
(1.68214e-07 -2.1561e-08 0 1.63839e-07 0 1.65814e-07)
(1.71486e-07 -2.14421e-08 0 1.6308e-07 0 1.67033e-07)
(1.75259e-07 -2.13338e-08 0 1.62466e-07 0 1.68468e-07)
(1.79892e-07 -2.12328e-08 0 1.6164e-07 0 1.70321e-07)
(1.85167e-07 -2.10981e-08 0 1.60981e-07 0 1.72497e-07)
(1.9147e-07 -2.07617e-08 0 1.59826e-07 0 1.74929e-07)
(1.97544e-07 -2.0558e-08 0 1.59277e-07 0 1.7765e-07)
(2.04324e-07 -2.03327e-08 0 1.5843e-07 0 1.80445e-07)
(2.11857e-07 -2.00362e-08 0 1.57188e-07 0 1.8339e-07)
(2.20437e-07 -1.94235e-08 0 1.55132e-07 0 1.86542e-07)
(2.29261e-07 -1.84099e-08 0 1.52369e-07 0 1.89179e-07)
(2.33242e-07 -1.80128e-08 0 1.51992e-07 0 1.90856e-07)
(2.38657e-07 -1.70335e-08 0 1.48806e-07 0 1.91652e-07)
(2.42924e-07 -1.64587e-08 0 1.46801e-07 0 1.92561e-07)
(2.47591e-07 -1.61555e-08 0 1.45574e-07 0 1.94111e-07)
(2.55152e-07 -1.5603e-08 0 1.43622e-07 0 1.9677e-07)
(2.6553e-07 -1.42122e-08 0 1.39783e-07 0 1.99853e-07)
(2.69295e-07 -1.3324e-08 0 1.37855e-07 0 2.00551e-07)
(2.67952e-07 -1.26433e-08 0 1.36301e-07 0 1.99078e-07)
(2.6046e-07 -1.17707e-08 0 1.34272e-07 0 1.9417e-07)
(2.50412e-07 -1.10122e-08 0 1.31985e-07 0 1.87975e-07)
(2.46238e-07 -1.01653e-08 0 1.2875e-07 0 1.84545e-07)
(2.43307e-07 -9.51261e-09 0 1.26082e-07 0 1.81903e-07)
(2.41811e-07 -8.70216e-09 0 1.23922e-07 0 1.79607e-07)
(2.40954e-07 -7.71173e-09 0 1.20199e-07 0 1.77783e-07)
(2.38555e-07 -6.65493e-09 0 1.16294e-07 0 1.74637e-07)
(2.31853e-07 -5.63137e-09 0 1.12151e-07 0 1.6955e-07)
(2.1322e-07 -4.56801e-09 0 1.08138e-07 0 1.58394e-07)
(1.82468e-07 -3.85123e-09 0 1.04975e-07 0 1.41732e-07)
(1.53504e-07 -3.1436e-09 0 1.01606e-07 0 1.26084e-07)
(1.3239e-07 -2.44947e-09 0 9.82604e-08 0 1.14413e-07)
(1.18334e-07 -1.17595e-09 0 9.35568e-08 0 1.0532e-07)
(1.0913e-07 4.17094e-10 0 8.76342e-08 0 9.80417e-08)
(1.05154e-07 1.1985e-09 0 8.39547e-08 0 9.43661e-08)
(1.12965e-07 9.2716e-10 0 8.46437e-08 0 9.92792e-08)
(1.90988e-07 -3.78087e-09 0 1.141e-07 0 1.56436e-07)
(5.52893e-07 -2.56634e-08 0 2.76335e-07 0 4.33365e-07)
(1.96521e-06 -1.03574e-07 0 9.60873e-07 0 1.53826e-06)
(6.8743e-06 -3.44296e-07 0 3.50219e-06 0 5.45378e-06)
(2.22649e-05 -9.73621e-07 0 1.20177e-05 0 1.79815e-05)
(6.61352e-05 -2.23462e-06 0 3.79026e-05 0 5.44219e-05)
(0.000180204 -3.51075e-06 0 0.000109018 0 0.00015079)
(0.00045143 -7.83975e-08 0 0.00028343 0 0.000381036)
(0.00102249 1.89977e-05 0 0.000653144 0 0.000862974)
(0.00170096 4.82205e-05 0 0.00110649 0 0.00143787)
(0.00212915 5.18091e-05 0 0.0014424 0 0.00181904)
(0.00234043 2.45552e-06 0 0.00166948 0 0.0020358)
(0.0024135 -7.38602e-05 0 0.00180524 0 0.00213968)
(0.00236119 -0.000148875 0 0.00187046 0 0.0021436)
(5.1099e-08 -7.08762e-09 0 7.10019e-08 0 6.10241e-08)
(5.0921e-08 -7.20904e-09 0 7.11267e-08 0 6.09971e-08)
(5.09686e-08 -7.33692e-09 0 7.13681e-08 0 6.11402e-08)
(5.12074e-08 -7.48726e-09 0 7.16942e-08 0 6.1419e-08)
(5.16408e-08 -7.64854e-09 0 7.20907e-08 0 6.18347e-08)
(5.22263e-08 -7.80092e-09 0 7.25401e-08 0 6.23556e-08)
(5.29635e-08 -7.97314e-09 0 7.30526e-08 0 6.29752e-08)
(5.38961e-08 -8.15685e-09 0 7.36317e-08 0 6.37393e-08)
(5.49703e-08 -8.33123e-09 0 7.42586e-08 0 6.45905e-08)
(5.62133e-08 -8.53119e-09 0 7.49541e-08 0 6.55597e-08)
(5.76434e-08 -8.73196e-09 0 7.57076e-08 0 6.66595e-08)
(5.92237e-08 -8.93078e-09 0 7.65104e-08 0 6.78506e-08)
(6.09841e-08 -9.14996e-09 0 7.73746e-08 0 6.9167e-08)
(6.29188e-08 -9.36353e-09 0 7.82866e-08 0 7.0597e-08)
(6.50007e-08 -9.57717e-09 0 7.92357e-08 0 7.2113e-08)
(6.72429e-08 -9.79977e-09 0 8.02278e-08 0 7.37364e-08)
(6.96252e-08 -1.00183e-08 0 8.12513e-08 0 7.54402e-08)
(7.2152e-08 -1.0241e-08 0 8.23053e-08 0 7.72339e-08)
(7.48188e-08 -1.04596e-08 0 8.33849e-08 0 7.91078e-08)
(7.7609e-08 -1.06768e-08 0 8.44783e-08 0 8.10485e-08)
(8.05042e-08 -1.08893e-08 0 8.55812e-08 0 8.30485e-08)
(8.34738e-08 -1.10907e-08 0 8.66751e-08 0 8.50788e-08)
(8.64976e-08 -1.12862e-08 0 8.77555e-08 0 8.71301e-08)
(8.9556e-08 -1.14695e-08 0 8.88189e-08 0 8.91901e-08)
(9.26145e-08 -1.16388e-08 0 8.98638e-08 0 9.12373e-08)
(9.56462e-08 -1.1801e-08 0 9.08894e-08 0 9.32579e-08)
(9.86348e-08 -1.19553e-08 0 9.18889e-08 0 9.52428e-08)
(1.01555e-07 -1.2098e-08 0 9.28555e-08 0 9.71736e-08)
(1.0438e-07 -1.2231e-08 0 9.37764e-08 0 9.90351e-08)
(1.07083e-07 -1.23531e-08 0 9.4636e-08 0 1.00805e-07)
(1.09637e-07 -1.24626e-08 0 9.54356e-08 0 1.02473e-07)
(1.12016e-07 -1.25557e-08 0 9.61682e-08 0 1.04017e-07)
(1.14199e-07 -1.26342e-08 0 9.68258e-08 0 1.05431e-07)
(1.16159e-07 -1.26991e-08 0 9.73944e-08 0 1.06691e-07)
(1.17877e-07 -1.27528e-08 0 9.78735e-08 0 1.07787e-07)
(1.19328e-07 -1.27839e-08 0 9.82652e-08 0 1.08712e-07)
(1.20494e-07 -1.28014e-08 0 9.85682e-08 0 1.0944e-07)
(1.21377e-07 -1.28036e-08 0 9.87678e-08 0 1.09987e-07)
(1.21931e-07 -1.27756e-08 0 9.88586e-08 0 1.10309e-07)
(1.22179e-07 -1.27392e-08 0 9.88312e-08 0 1.10412e-07)
(1.221e-07 -1.26717e-08 0 9.87115e-08 0 1.10332e-07)
(1.2169e-07 -1.25747e-08 0 9.84653e-08 0 1.09971e-07)
(1.2087e-07 -1.24795e-08 0 9.81308e-08 0 1.09439e-07)
(1.19745e-07 -1.2319e-08 0 9.767e-08 0 1.08589e-07)
(1.18245e-07 -1.22067e-08 0 9.71359e-08 0 1.07643e-07)
(1.16551e-07 -1.2033e-08 0 9.65132e-08 0 1.06408e-07)
(1.14591e-07 -1.19275e-08 0 9.58884e-08 0 1.05201e-07)
(1.12587e-07 -1.17394e-08 0 9.51817e-08 0 1.0377e-07)
(1.10375e-07 -1.16478e-08 0 9.45208e-08 0 1.02408e-07)
(1.08167e-07 -1.14703e-08 0 9.3789e-08 0 1.00887e-07)
(1.05799e-07 -1.13704e-08 0 9.30992e-08 0 9.93958e-08)
(1.03474e-07 -1.12211e-08 0 9.23692e-08 0 9.78454e-08)
(1.01018e-07 -1.10948e-08 0 9.16603e-08 0 9.62838e-08)
(9.85777e-08 -1.09673e-08 0 9.09216e-08 0 9.46692e-08)
(9.62069e-08 -1.08641e-08 0 9.02295e-08 0 9.31591e-08)
(9.38245e-08 -1.07387e-08 0 8.94982e-08 0 9.15974e-08)
(9.16521e-08 -1.06663e-08 0 8.88468e-08 0 9.0163e-08)
(8.96804e-08 -1.05772e-08 0 8.82798e-08 0 8.89538e-08)
(8.7582e-08 -1.04932e-08 0 8.76619e-08 0 8.7528e-08)
(8.61391e-08 -1.05349e-08 0 8.72626e-08 0 8.66681e-08)
(8.47159e-08 -1.04554e-08 0 8.68598e-08 0 8.57064e-08)
(8.35104e-08 -1.0463e-08 0 8.65768e-08 0 8.49664e-08)
(8.26071e-08 -1.04765e-08 0 8.64069e-08 0 8.44222e-08)
(8.18153e-08 -1.04842e-08 0 8.63041e-08 0 8.39754e-08)
(8.11092e-08 -1.04901e-08 0 8.62296e-08 0 8.3571e-08)
(8.04692e-08 -1.05047e-08 0 8.62098e-08 0 8.32358e-08)
(7.99007e-08 -1.05157e-08 0 8.61964e-08 0 8.29299e-08)
(7.94325e-08 -1.05436e-08 0 8.62462e-08 0 8.27119e-08)
(7.90712e-08 -1.05808e-08 0 8.63296e-08 0 8.25593e-08)
(7.88633e-08 -1.06429e-08 0 8.64609e-08 0 8.25221e-08)
(7.88251e-08 -1.07143e-08 0 8.66281e-08 0 8.25839e-08)
(7.89286e-08 -1.07949e-08 0 8.68573e-08 0 8.27551e-08)
(7.91528e-08 -1.087e-08 0 8.71037e-08 0 8.29843e-08)
(7.94496e-08 -1.09459e-08 0 8.73914e-08 0 8.32809e-08)
(7.97574e-08 -1.10077e-08 0 8.76662e-08 0 8.35699e-08)
(8.00813e-08 -1.1075e-08 0 8.79567e-08 0 8.38837e-08)
(8.04546e-08 -1.1135e-08 0 8.82407e-08 0 8.42184e-08)
(8.08934e-08 -1.12008e-08 0 8.85114e-08 0 8.45721e-08)
(8.14552e-08 -1.12783e-08 0 8.88227e-08 0 8.50166e-08)
(8.21753e-08 -1.13528e-08 0 8.91324e-08 0 8.55332e-08)
(8.30903e-08 -1.14348e-08 0 8.94631e-08 0 8.61465e-08)
(8.42898e-08 -1.15187e-08 0 8.98216e-08 0 8.69259e-08)
(8.56422e-08 -1.15933e-08 0 9.02089e-08 0 8.77966e-08)
(8.71363e-08 -1.16854e-08 0 9.06303e-08 0 8.87116e-08)
(8.90286e-08 -1.17621e-08 0 9.09713e-08 0 8.98642e-08)
(9.09274e-08 -1.18656e-08 0 9.1472e-08 0 9.10073e-08)
(9.32756e-08 -1.19812e-08 0 9.19272e-08 0 9.24004e-08)
(9.60212e-08 -1.21124e-08 0 9.24898e-08 0 9.39903e-08)
(9.94778e-08 -1.22604e-08 0 9.307e-08 0 9.59825e-08)
(1.03597e-07 -1.23761e-08 0 9.37498e-08 0 9.83296e-08)
(1.08153e-07 -1.24305e-08 0 9.4462e-08 0 1.00918e-07)
(1.12933e-07 -1.24933e-08 0 9.52408e-08 0 1.03662e-07)
(1.18289e-07 -1.25941e-08 0 9.6098e-08 0 1.06689e-07)
(1.24674e-07 -1.26672e-08 0 9.68748e-08 0 1.10189e-07)
(1.32113e-07 -1.26088e-08 0 9.76375e-08 0 1.1427e-07)
(1.39669e-07 -1.22075e-08 0 9.7784e-08 0 1.17963e-07)
(1.44048e-07 -1.20804e-08 0 9.85372e-08 0 1.20483e-07)
(1.48107e-07 -1.16888e-08 0 9.81112e-08 0 1.22213e-07)
(1.52706e-07 -1.14405e-08 0 9.77995e-08 0 1.24223e-07)
(1.58396e-07 -1.14397e-08 0 9.80637e-08 0 1.27071e-07)
(1.67443e-07 -1.11579e-08 0 9.82792e-08 0 1.3158e-07)
(1.78189e-07 -1.03135e-08 0 9.80068e-08 0 1.36712e-07)
(1.82436e-07 -9.62677e-09 0 9.75192e-08 0 1.38519e-07)
(1.81753e-07 -9.15881e-09 0 9.66738e-08 0 1.37789e-07)
(1.75937e-07 -8.52528e-09 0 9.47576e-08 0 1.33979e-07)
(1.66643e-07 -7.82344e-09 0 9.19406e-08 0 1.27977e-07)
(1.62772e-07 -7.18103e-09 0 8.97753e-08 0 1.25027e-07)
(1.61976e-07 -6.61195e-09 0 8.82547e-08 0 1.23901e-07)
(1.62029e-07 -5.97454e-09 0 8.68003e-08 0 1.23098e-07)
(1.62454e-07 -5.19152e-09 0 8.48762e-08 0 1.22487e-07)
(1.6208e-07 -4.3518e-09 0 8.28419e-08 0 1.21286e-07)
(1.57455e-07 -3.48077e-09 0 8.02264e-08 0 1.1776e-07)
(1.42697e-07 -2.61867e-09 0 7.65533e-08 0 1.08666e-07)
(1.18196e-07 -1.97587e-09 0 7.15402e-08 0 9.41833e-08)
(9.65316e-08 -1.53947e-09 0 6.65518e-08 0 8.11506e-08)
(8.18404e-08 -1.21003e-09 0 6.23933e-08 0 7.19755e-08)
(7.27974e-08 -7.68394e-10 0 5.88903e-08 0 6.58498e-08)
(6.88862e-08 -2.75761e-10 0 5.64654e-08 0 6.28162e-08)
(7.12332e-08 1.79559e-10 0 5.49265e-08 0 6.35259e-08)
(9.70104e-08 -2.57123e-09 0 6.3068e-08 0 8.15326e-08)
(2.35146e-07 -1.42829e-08 0 1.13988e-07 0 1.81558e-07)
(8.22511e-07 -6.02904e-08 0 3.55109e-07 0 6.19114e-07)
(3.06463e-06 -2.21734e-07 0 1.33838e-06 0 2.32037e-06)
(1.07332e-05 -7.24047e-07 0 4.94247e-06 0 8.25484e-06)
(3.44576e-05 -2.05585e-06 0 1.69306e-05 0 2.7007e-05)
(0.000101179 -4.90303e-06 0 5.32225e-05 0 8.09219e-05)
(0.000272381 -9.26933e-06 0 0.00015278 0 0.000221987)
(0.000674933 -1.12135e-05 0 0.000397105 0 0.000556153)
(0.00151411 7.56881e-07 0 0.000914999 0 0.0012504)
(0.00253737 2.36756e-05 0 0.00157566 0 0.00210248)
(0.00319588 7.81979e-06 0 0.00208214 0 0.00267932)
(0.00352343 -7.26163e-05 0 0.00243606 0 0.00301183)
(0.00362584 -0.000177542 0 0.00264723 0 0.00316445)
(0.00354258 -0.000281144 0 0.00275387 0 0.00317148)
(3.02515e-08 -3.81854e-09 0 4.21704e-08 0 3.6186e-08)
(3.0179e-08 -3.92293e-09 0 4.2275e-08 0 3.62017e-08)
(3.02102e-08 -4.01907e-09 0 4.24116e-08 0 3.62842e-08)
(3.03311e-08 -4.12636e-09 0 4.25712e-08 0 3.64216e-08)
(3.05482e-08 -4.23306e-09 0 4.27339e-08 0 3.66123e-08)
(3.08342e-08 -4.32063e-09 0 4.29016e-08 0 3.68424e-08)
(3.11952e-08 -4.42184e-09 0 4.31026e-08 0 3.71183e-08)
(3.16533e-08 -4.52052e-09 0 4.32988e-08 0 3.74525e-08)
(3.218e-08 -4.60303e-09 0 4.35186e-08 0 3.78263e-08)
(3.27929e-08 -4.70392e-09 0 4.37673e-08 0 3.82571e-08)
(3.35035e-08 -4.79476e-09 0 4.40258e-08 0 3.87489e-08)
(3.42916e-08 -4.87979e-09 0 4.43167e-08 0 3.92889e-08)
(3.51752e-08 -4.97974e-09 0 4.46393e-08 0 3.98959e-08)
(3.61556e-08 -5.06776e-09 0 4.49846e-08 0 4.05647e-08)
(3.72193e-08 -5.15438e-09 0 4.53604e-08 0 4.12857e-08)
(3.83747e-08 -5.24683e-09 0 4.57655e-08 0 4.20726e-08)
(3.96134e-08 -5.33434e-09 0 4.61996e-08 0 4.29121e-08)
(4.09385e-08 -5.42659e-09 0 4.66652e-08 0 4.38124e-08)
(4.23502e-08 -5.51591e-09 0 4.71601e-08 0 4.47698e-08)
(4.38423e-08 -5.60545e-09 0 4.76809e-08 0 4.57793e-08)
(4.54066e-08 -5.6934e-09 0 4.82238e-08 0 4.68383e-08)
(4.70277e-08 -5.77663e-09 0 4.87833e-08 0 4.79321e-08)
(4.86945e-08 -5.86163e-09 0 4.93586e-08 0 4.90564e-08)
(5.03973e-08 -5.94207e-09 0 4.9945e-08 0 5.02046e-08)
(5.21186e-08 -6.01627e-09 0 5.05361e-08 0 5.13633e-08)
(5.38441e-08 -6.09095e-09 0 5.11286e-08 0 5.25245e-08)
(5.55641e-08 -6.16426e-09 0 5.17187e-08 0 5.36824e-08)
(5.72667e-08 -6.23381e-09 0 5.22989e-08 0 5.48265e-08)
(5.89334e-08 -6.29958e-09 0 5.28659e-08 0 5.59476e-08)
(6.0547e-08 -6.36009e-09 0 5.34134e-08 0 5.70311e-08)
(6.20897e-08 -6.41663e-09 0 5.39381e-08 0 5.80686e-08)
(6.35467e-08 -6.46622e-09 0 5.4432e-08 0 5.90465e-08)
(6.49012e-08 -6.50761e-09 0 5.48922e-08 0 5.9957e-08)
(6.61323e-08 -6.53883e-09 0 5.53121e-08 0 6.07847e-08)
(6.72263e-08 -6.56402e-09 0 5.56916e-08 0 6.15216e-08)
(6.81667e-08 -6.57501e-09 0 5.60222e-08 0 6.21602e-08)
(6.89417e-08 -6.58263e-09 0 5.62985e-08 0 6.26828e-08)
(6.95454e-08 -6.58515e-09 0 5.65185e-08 0 6.30981e-08)
(6.99582e-08 -6.5661e-09 0 5.66613e-08 0 6.33747e-08)
(7.01808e-08 -6.55011e-09 0 5.67398e-08 0 6.35214e-08)
(7.01974e-08 -6.51506e-09 0 5.67518e-08 0 6.35456e-08)
(7.00284e-08 -6.46414e-09 0 5.66883e-08 0 6.34108e-08)
(6.96126e-08 -6.42122e-09 0 5.65655e-08 0 6.31675e-08)
(6.90096e-08 -6.33595e-09 0 5.63701e-08 0 6.2734e-08)
(6.81686e-08 -6.29056e-09 0 5.61229e-08 0 6.22295e-08)
(6.72225e-08 -6.20111e-09 0 5.58172e-08 0 6.15553e-08)
(6.61133e-08 -6.16415e-09 0 5.54923e-08 0 6.08885e-08)
(6.4972e-08 -6.06714e-09 0 5.51291e-08 0 6.00906e-08)
(6.37025e-08 -6.04428e-09 0 5.47767e-08 0 5.93246e-08)
(6.24313e-08 -5.95306e-09 0 5.43831e-08 0 5.84615e-08)
(6.10787e-08 -5.91749e-09 0 5.39847e-08 0 5.76091e-08)
(5.97263e-08 -5.84634e-09 0 5.35807e-08 0 5.6716e-08)
(5.83094e-08 -5.79614e-09 0 5.31691e-08 0 5.58183e-08)
(5.68923e-08 -5.74752e-09 0 5.27492e-08 0 5.4889e-08)
(5.55342e-08 -5.70767e-09 0 5.23579e-08 0 5.4028e-08)
(5.41672e-08 -5.64705e-09 0 5.1962e-08 0 5.31385e-08)
(5.29207e-08 -5.63788e-09 0 5.16345e-08 0 5.23298e-08)
(5.18061e-08 -5.60866e-09 0 5.13579e-08 0 5.16652e-08)
(5.06241e-08 -5.59744e-09 0 5.10519e-08 0 5.08684e-08)
(4.97984e-08 -5.67779e-09 0 5.08958e-08 0 5.04095e-08)
(4.90279e-08 -5.65192e-09 0 5.07066e-08 0 4.98972e-08)
(4.83701e-08 -5.69142e-09 0 5.05843e-08 0 4.9511e-08)
(4.7886e-08 -5.73246e-09 0 5.05279e-08 0 4.9241e-08)
(4.74689e-08 -5.76606e-09 0 5.05033e-08 0 4.90277e-08)
(4.70983e-08 -5.79812e-09 0 5.04969e-08 0 4.8839e-08)
(4.67708e-08 -5.83288e-09 0 5.05153e-08 0 4.86903e-08)
(4.64798e-08 -5.86558e-09 0 5.05491e-08 0 4.8559e-08)
(4.62472e-08 -5.90766e-09 0 5.06141e-08 0 4.84792e-08)
(4.60745e-08 -5.95292e-09 0 5.07124e-08 0 4.84372e-08)
(4.59888e-08 -6.00897e-09 0 5.08546e-08 0 4.84642e-08)
(4.59984e-08 -6.06784e-09 0 5.10307e-08 0 4.85495e-08)
(4.60974e-08 -6.12919e-09 0 5.1237e-08 0 4.86994e-08)
(4.6264e-08 -6.18607e-09 0 5.14604e-08 0 4.88883e-08)
(4.64825e-08 -6.23774e-09 0 5.16966e-08 0 4.91175e-08)
(4.6705e-08 -6.28088e-09 0 5.19295e-08 0 4.9342e-08)
(4.69417e-08 -6.33081e-09 0 5.21712e-08 0 4.9582e-08)
(4.7205e-08 -6.37944e-09 0 5.24078e-08 0 4.98358e-08)
(4.74948e-08 -6.43316e-09 0 5.26569e-08 0 5.01034e-08)
(4.78726e-08 -6.49446e-09 0 5.29181e-08 0 5.04243e-08)
(4.83309e-08 -6.55405e-09 0 5.31904e-08 0 5.07887e-08)
(4.88975e-08 -6.6214e-09 0 5.34844e-08 0 5.12117e-08)
(4.96224e-08 -6.69133e-09 0 5.38011e-08 0 5.17355e-08)
(5.04449e-08 -6.75078e-09 0 5.41351e-08 0 5.23161e-08)
(5.13503e-08 -6.8278e-09 0 5.45077e-08 0 5.29254e-08)
(5.24581e-08 -6.89783e-09 0 5.48732e-08 0 5.36858e-08)
(5.36056e-08 -6.97522e-09 0 5.52851e-08 0 5.44335e-08)
(5.49913e-08 -7.07742e-09 0 5.57326e-08 0 5.5347e-08)
(5.66414e-08 -7.19365e-09 0 5.62255e-08 0 5.63913e-08)
(5.87092e-08 -7.32824e-09 0 5.67483e-08 0 5.76866e-08)
(6.12235e-08 -7.44382e-09 0 5.73221e-08 0 5.92216e-08)
(6.4051e-08 -7.51884e-09 0 5.79742e-08 0 6.09471e-08)
(6.70541e-08 -7.60117e-09 0 5.86782e-08 0 6.27927e-08)
(7.04353e-08 -7.73577e-09 0 5.94611e-08 0 6.48391e-08)
(7.44712e-08 -7.86146e-09 0 6.02898e-08 0 6.72283e-08)
(7.92124e-08 -7.87757e-09 0 6.12427e-08 0 7.00527e-08)
(8.40889e-08 -7.64022e-09 0 6.18508e-08 0 7.26804e-08)
(8.70152e-08 -7.56181e-09 0 6.26571e-08 0 7.44971e-08)
(8.95545e-08 -7.33342e-09 0 6.27949e-08 0 7.57716e-08)
(9.25645e-08 -7.2479e-09 0 6.30138e-08 0 7.72821e-08)
(9.65409e-08 -7.33872e-09 0 6.3548e-08 0 7.94396e-08)
(1.02946e-07 -7.23542e-09 0 6.4258e-08 0 8.28806e-08)
(1.10344e-07 -6.75812e-09 0 6.48498e-08 0 8.67466e-08)
(1.13367e-07 -6.31583e-09 0 6.49099e-08 0 8.82029e-08)
(1.1305e-07 -6.01779e-09 0 6.45298e-08 0 8.78392e-08)
(1.09658e-07 -5.66388e-09 0 6.34213e-08 0 8.56031e-08)
(1.03919e-07 -5.267e-09 0 6.15036e-08 0 8.18234e-08)
(1.01353e-07 -4.86663e-09 0 6.00455e-08 0 7.98641e-08)
(1.01243e-07 -4.47168e-09 0 5.91505e-08 0 7.93734e-08)
(1.02008e-07 -4.03334e-09 0 5.84191e-08 0 7.93397e-08)
(1.03063e-07 -3.56048e-09 0 5.76389e-08 0 7.94903e-08)
(1.0367e-07 -3.03187e-09 0 5.66569e-08 0 7.93101e-08)
(1.01517e-07 -2.4734e-09 0 5.50906e-08 0 7.75348e-08)
(9.23807e-08 -1.92993e-09 0 5.23663e-08 0 7.17668e-08)
(7.69313e-08 -1.70644e-09 0 4.86088e-08 0 6.23999e-08)
(6.3318e-08 -1.82694e-09 0 4.51242e-08 0 5.40191e-08)
(5.44215e-08 -2.0274e-09 0 4.24618e-08 0 4.8311e-08)
(4.95638e-08 -2.23347e-09 0 4.05956e-08 0 4.49471e-08)
(4.81372e-08 -2.48855e-09 0 3.94934e-08 0 4.37207e-08)
(5.42249e-08 -3.37198e-09 0 4.01098e-08 0 4.73821e-08)
(9.24601e-08 -8.25664e-09 0 5.24086e-08 0 7.40796e-08)
(2.80053e-07 -2.72358e-08 0 1.19411e-07 0 2.08754e-07)
(1.07231e-06 -1.01825e-07 0 4.22723e-07 0 7.88795e-07)
(4.07427e-06 -3.62931e-07 0 1.64843e-06 0 3.02633e-06)
(1.42962e-05 -1.17212e-06 0 6.122e-06 0 1.0794e-05)
(4.57781e-05 -3.31945e-06 0 2.09633e-05 0 3.52239e-05)
(0.000133657 -7.99786e-06 0 6.57336e-05 0 0.000104966)
(0.000356308 -1.56874e-05 0 0.000187787 0 0.000285391)
(0.000870158 -2.12964e-05 0 0.000484373 0 0.00070596)
(0.00192117 -1.00066e-05 0 0.00110681 0 0.00156525)
(0.00320974 1.7423e-05 0 0.00190962 0 0.00262738)
(0.00404975 2.92989e-06 0 0.00253589 0 0.00335799)
(0.00447111 -0.000106042 0 0.002981 0 0.00378366)