/*--------------------------------*- C++ -*----------------------------------*\
| =========                 |                                                 |
| \\      /  F ield         | OpenFOAM: The Open Source CFD Toolbox           |
|  \\    /   O peration     | Version:  v1912                                 |
|   \\  /    A nd           | Website:  www.openfoam.com                      |
|    \\/     M anipulation  |                                                 |
\*---------------------------------------------------------------------------*/
FoamFile
{
    version     2.0;
    format      ascii;
    class       volVectorField;
    location    "100";
    object      U;
}
// * * * * * * * * * * * * * * * * * * * * * * * * * * * * * * * * * * * * * //

dimensions      [0 1 -1 0 0 0 0];


internalField   nonuniform List<vector> 
14268
(
(-1.2736 -0.0555014 -3.73412e-23)
(-1.30086 -0.0604085 0)
(-1.31363 -0.0647267 3.49936e-23)
(-1.31104 -0.0680372 -3.3296e-23)
(-1.29443 -0.0703703 0)
(-1.26466 -0.0718385 -2.89264e-23)
(-1.22207 -0.0725282 0)
(-1.16749 -0.0723318 -2.66401e-23)
(-1.10189 -0.0713654 0)
(-1.02588 -0.0696803 0)
(-0.940524 -0.0672362 1.82032e-23)
(-0.846794 -0.0641508 -3.53902e-23)
(-0.745564 -0.0604456 0)
(-0.63795 -0.0561597 0)
(-0.524932 -0.051373 0)
(-0.407578 -0.0461198 -1.14018e-23)
(-0.286972 -0.0404733 0)
(-0.164273 -0.0344925 -7.41578e-24)
(-0.0394174 -0.0282025 -5.36264e-24)
(0.0853063 -0.0216842 1.26767e-25)
(0.209097 -0.0150305 0)
(0.331319 -0.00829443 -6.65218e-26)
(0.450951 -0.00153506 0)
(0.567325 0.00520533 3.1614e-24)
(0.679723 0.011887 4.65089e-24)
(0.787491 0.0184595 6.05313e-24)
(0.889994 0.0248852 2.97427e-24)
(0.986611 0.0311103 0)
(1.07678 0.0370821 9.69841e-24)
(1.15992 0.0427722 -1.07075e-23)
(1.2355 0.0481604 0)
(1.30308 0.053198 -1.2366e-23)
(1.36221 0.057833 0)
(1.41249 0.062031 2.82201e-23)
(1.45362 0.0658044 0)
(1.48533 0.0691319 0)
(1.50748 0.0719745 1.38985e-23)
(1.51995 0.0743049 0)
(1.52275 0.0760987 0)
(1.51673 0.0773626 -1.3352e-23)
(1.50088 0.0782178 1.21877e-23)
(1.47568 0.0784863 0)
(1.44149 0.0782288 -1.15038e-23)
(1.39877 0.0773936 0)
(1.34803 0.0760699 9.63367e-24)
(1.2899 0.0742118 8.52347e-24)
(1.22505 0.0719195 7.32377e-24)
(1.1541 0.0691278 0)
(1.07818 0.0659694 2.33567e-24)
(0.997742 0.0624004 0)
(0.914259 0.0585168 0)
(0.828147 0.0543525 6.37899e-25)
(0.740779 0.0499526 0)
(0.652988 0.0453652 0)
(0.565751 0.0406837 -2.97726e-24)
(0.47978 0.0360759 -2.57878e-24)
(0.396437 0.0315502 0)
(0.315598 0.0270661 -5.50539e-24)
(0.238861 0.0226177 0)
(0.166277 0.0183585 0)
(0.0980101 0.0142293 -6.58686e-24)
(0.0349793 0.0103341 0)
(-0.0231007 0.00670165 0)
(-0.0759482 0.00332304 0)
(-0.123594 0.00020875 0)
(-0.165969 -0.00262547 0)
(-0.203087 -0.00519233 0)
(-0.234949 -0.00749084 0)
(-0.261596 -0.0095254 0)
(-0.28302 -0.0112946 5.25102e-24)
(-0.299226 -0.0127898 0)
(-0.31018 -0.0140022 4.7765e-24)
(-0.315822 -0.0149465 0)
(-0.315986 -0.0156059 0)
(-0.310514 -0.0159646 4.19614e-24)
(-0.299222 -0.0160196 0)
(-0.28201 -0.0157921 0)
(-0.258624 -0.0152431 3.87331e-24)
(-0.22898 -0.0143414 0)
(-0.19311 -0.0131153 0)
(-0.15088 -0.0115461 0)
(-0.102585 -0.00962956 0)
(-0.0485045 -0.00739399 4.55249e-24)
(0.0112327 -0.00481035 -4.88652e-24)
(0.0752308 -0.00191753 0)
(0.143458 0.00125409 0)
(0.214994 0.00472921 0)
(0.289118 0.00838775 5.79762e-24)
(0.365173 0.0122022 -5.64341e-24)
(0.442482 0.016116 0)
(0.521086 0.0200402 4.55636e-24)
(0.601352 0.0240519 0)
(0.684287 0.0280821 0)
(0.770573 0.0322781 0)
(0.858629 0.0367142 0)
(0.948433 0.0411401 0)
(1.04241 0.0457074 1.60689e-24)
(1.14118 0.0506155 0)
(1.24293 0.0558457 0)
(1.34469 0.0612961 0)
(1.44246 0.0669115 1.75851e-24)
(1.53 0.0722522 0)
(1.60499 0.076996 0)
(1.66733 0.0811124 0)
(1.71671 0.084822 0)
(1.75111 0.0877038 0)
(1.76615 0.0897651 0)
(1.76081 0.0908014 0)
(1.73052 0.0908403 0)
(1.66865 0.0895175 0)
(1.5703 0.0863306 0)
(1.43075 0.0808482 -8.97639e-24)
(1.24853 0.072857 0)
(1.02977 0.0625621 6.72857e-24)
(0.783116 0.0503972 -4.0262e-24)
(0.517109 0.0367592 0)
(0.246577 0.0226858 1.34532e-24)
(-0.0269412 0.00850014 0)
(-0.294059 -0.00589332 0)
(-0.538951 -0.0194614 1.57768e-23)
(-0.756384 -0.0316988 0)
(-0.941586 -0.0422475 0)
(-1.09415 -0.0510047 0)
(-1.21677 -0.0581806 0)
(-1.31392 -0.0639645 0)
(-1.38901 -0.068741 0)
(-1.43672 -0.0722752 4.71703e-24)
(-1.45531 -0.0745159 7.78238e-24)
(-1.46822 -0.0762321 0)
(-1.49038 -0.0785572 0)
(-1.52737 -0.081488 0)
(-1.56893 -0.0841172 -5.86824e-23)
(-1.5962 -0.0863536 7.6952e-23)
(-1.60166 -0.0875696 0)
(-1.27669 -0.0384333 0)
(-1.30313 -0.0503737 0)
(-1.31506 -0.0619816 1.03818e-22)
(-1.31157 -0.0721006 9.91446e-23)
(-1.29417 -0.0807352 -9.34569e-23)
(-1.26366 -0.0880785 -1.76722e-22)
(-1.22035 -0.0943712 -8.18009e-23)
(-1.16509 -0.0991969 7.57935e-23)
(-1.0989 -0.102817 0)
(-1.02232 -0.105338 -6.35877e-23)
(-0.936463 -0.10652 1.17921e-22)
(-0.842291 -0.106625 -5.4589e-23)
(-0.740672 -0.105619 -4.506e-23)
(-0.632732 -0.103508 -3.88125e-23)
(-0.519448 -0.100445 3.25607e-23)
(-0.401883 -0.0964116 -2.6339e-23)
(-0.281135 -0.0915188 -2.01994e-23)
(-0.158346 -0.0858385 1.42227e-23)
(-0.0334382 -0.0794304 -8.14713e-24)
(0.0912058 -0.0723366 -1.06674e-23)
(0.214927 -0.0647413 0)
(0.337013 -0.0567334 -7.43715e-24)
(0.456471 -0.0483856 1.21509e-23)
(0.572637 -0.0397776 1.65819e-23)
(0.684801 -0.0310154 -2.07175e-23)
(0.792305 -0.0221565 2.45556e-23)
(0.894513 -0.0132523 5.32074e-23)
(0.990801 -0.00435994 3.13043e-23)
(1.0806 0.00448592 -3.4199e-23)
(1.16335 0.0132123 0)
(1.23855 0.0217631 3.89215e-23)
(1.30573 0.03009 -4.07078e-23)
(1.36443 0.0381692 4.2076e-23)
(1.41428 0.0459247 8.47787e-23)
(1.45499 0.0532789 0)
(1.4863 0.060154 -4.35586e-23)
(1.50806 0.0664805 4.32728e-23)
(1.52016 0.0723442 4.24541e-23)
(1.52262 0.0774023 0)
(1.51628 0.0817414 3.89186e-23)
(1.50008 0.085829 7.42154e-23)
(1.47455 0.0890423 3.41297e-23)
(1.44005 0.0916183 -3.11238e-23)
(1.39705 0.0932794 2.77582e-23)
(1.34606 0.0943321 2.40795e-23)
(1.28771 0.0944685 -2.01257e-23)
(1.22265 0.0940238 1.59586e-23)
(1.15155 0.0926696 0)
(1.0755 0.090753 9.63785e-24)
(0.994965 0.0880179 0)
(0.911417 0.0847444 0)
(0.825281 0.0808296 0)
(0.737927 0.0764049 9.26117e-24)
(0.650182 0.0715199 0)
(0.563026 0.0663135 -1.57766e-23)
(0.47721 0.0605991 -1.56229e-23)
(0.394053 0.0546825 0)
(0.31342 0.0487021 0)
(0.23689 0.0425794 0)
(0.164505 0.0367823 0)
(0.0964427 0.0309763 0)
(0.0336191 0.0254058 0)
(-0.0242507 0.0201432 0)
(-0.0768899 0.0151365 2.30409e-23)
(-0.124332 0.0104363 0)
(-0.166517 0.00606233 0)
(-0.203459 0.0020177 0)
(-0.235162 -0.00167174 0)
(-0.261666 -0.0050314 0)
(-0.282963 -0.00805021 0)
(-0.299047 -0.0107548 1.59213e-23)
(-0.309875 -0.0131511 0)
(-0.315393 -0.0152959 -1.39924e-23)
(-0.315428 -0.0171557 0)
(-0.309831 -0.0187408 1.22647e-23)
(-0.29842 -0.0200401 0)
(-0.281097 -0.0210164 0)
(-0.257602 -0.0216909 0)
(-0.227857 -0.0220121 0)
(-0.191893 -0.0219663 -1.02011e-23)
(-0.149584 -0.0215023 0)
(-0.101224 -0.0205559 -1.07117e-23)
(-0.0470895 -0.0191625 0)
(0.0126711 -0.0172756 0)
(0.0766878 -0.0148908 0)
(0.144916 -0.0121387 0)
(0.216429 -0.00896933 0)
(0.290503 -0.00551652 -1.331e-23)
(0.366482 -0.00172618 -1.24582e-23)
(0.443689 0.00223185 0)
(0.522178 0.00618941 -8.48075e-24)
(0.602323 0.0101301 -5.5967e-24)
(0.685131 0.0139324 0)
(0.771287 0.0180971 0)
(0.859207 0.0226828 0)
(0.948898 0.0268966 0)
(1.04279 0.0310311 0)
(1.14148 0.0356248 1.17402e-23)
(1.24315 0.0408313 0)
(1.34478 0.0467065 1.37917e-23)
(1.44238 0.0534089 -1.75548e-24)
(1.52969 0.0603873 1.44601e-23)
(1.60445 0.0668172 0)
(1.66657 0.0725112 0)
(1.71569 0.0773575 0)
(1.7498 0.081936 1.61079e-23)
(1.76456 0.0860195 1.79431e-23)
(1.75901 0.0890364 0)
(1.7285 0.0913726 -2.05777e-23)
(1.66643 0.0927141 0)
(1.56786 0.0925818 0)
(1.42805 0.0905346 0)
(1.24558 0.0859678 0)
(1.02662 0.0784983 0)
(0.779873 0.0683806 -9.74312e-25)
(0.513965 0.0557324 -1.19486e-23)
(0.243723 0.0414076 0)
(-0.0293717 0.0259066 0)
(-0.296114 0.00994119 0)
(-0.540575 -0.0057329 -5.92999e-24)
(-0.757497 -0.020422 0)
(-0.942125 -0.0334147 0)
(-1.09411 -0.0443956 0)
(-1.21621 -0.0530731 0)
(-1.31299 -0.0599181 0)
(-1.38798 -0.0652613 0)
(-1.43687 -0.0689197 0)
(-1.45913 -0.0704258 1.01619e-23)
(-1.47602 -0.0704082 0)
(-1.50321 -0.0700596 -2.51189e-23)
(-1.54656 -0.0711005 0)
(-1.58472 -0.073008 0)
(-1.60567 -0.0741389 0)
(-1.60877 -0.0741537 -1.00666e-22)
(-1.2851 -0.023177 1.91397e-22)
(-1.31066 -0.0421084 0)
(-1.32164 -0.0610866 0)
(-1.31708 -0.0779268 3.30286e-22)
(-1.2987 -0.0928005 -1.56604e-22)
(-1.26726 -0.105965 -1.4774e-22)
(-1.22299 -0.117839 -1.38335e-22)
(-1.16678 -0.127638 1.28837e-22)
(-1.09973 -0.135788 0)
(-1.02229 -0.142476 -1.09429e-22)
(-0.935633 -0.147212 9.96114e-23)
(-0.840707 -0.150436 8.6481e-23)
(-0.738375 -0.15207 -7.95674e-23)
(-0.629779 -0.152069 -6.93893e-23)
(-0.515894 -0.150664 1.14508e-22)
(-0.39779 -0.14779 -4.89086e-23)
(-0.276568 -0.143596 -7.35819e-23)
(-0.153368 -0.138151 3.97916e-24)
(-0.0281025 -0.131568 -1.89006e-23)
(0.0967841 -0.123886 -1.04495e-23)
(0.220713 -0.115315 0)
(0.342936 -0.106014 -7.52775e-24)
(0.462472 -0.0960815 3.47344e-23)
(0.57865 -0.0856103 2.30971e-23)
(0.690764 -0.074706 3.35621e-24)
(0.798169 -0.0634575 7.68177e-23)
(0.900244 -0.05193 4.29649e-23)
(0.996381 -0.0402223 9.99584e-23)
(1.08602 -0.0284299 2.53144e-24)
(1.16859 -0.0166304 0)
(1.24356 -0.00485786 6.2212e-23)
(1.31051 0.00678858 1.78016e-24)
(1.36898 0.018228 6.81426e-23)
(1.41857 0.0293418 7.00386e-23)
(1.45898 0.040109 0)
(1.48993 0.0504454 -7.15971e-23)
(1.51135 0.0602115 1.42721e-22)
(1.52304 0.0693677 6.98886e-23)
(1.52509 0.0776199 0)
(1.51835 0.0850176 1.29146e-22)
(1.50173 0.0922965 6.13649e-23)
(1.4758 0.0984686 5.7125e-23)
(1.4409 0.103839 -5.21912e-23)
(1.39752 0.107996 1.46758e-24)
(1.34614 0.111392 1.69117e-24)
(1.28743 0.113568 -1.89692e-24)
(1.22202 0.114959 2.08223e-24)
(1.15058 0.115067 0)
(1.07421 0.114403 -1.0199e-23)
(0.993389 0.112556 0)
(0.909592 0.109854 0)
(0.823238 0.106204 1.10586e-23)
(0.735699 0.101739 1.46164e-23)
(0.64782 0.0964902 0)
(0.560584 0.0906834 2.63396e-24)
(0.47471 0.084293 0)
(0.391494 0.0776229 0)
(0.31085 0.0707282 3.72311e-23)
(0.234335 0.0633895 0)
(0.16201 0.0563423 0)
(0.0940406 0.049127 4.04284e-23)
(0.0313376 0.042102 0)
(-0.0263934 0.0354143 0)
(-0.0788876 0.028975 3.66569e-23)
(-0.126176 0.0228585 3.67994e-23)
(-0.1682 0.0171044 3.51464e-23)
(-0.20498 0.0116865 0)
(-0.236515 0.00663092 0)
(-0.262845 0.00190525 0)
(-0.283959 -0.00247678 0)
(-0.299867 -0.0065357 2.59538e-23)
(-0.31054 -0.0102528 0)
(-0.315913 -0.0136839 1.22247e-25)
(-0.315808 -0.0168286 0)
(-0.310084 -0.0196658 2.06078e-23)
(-0.298548 -0.0221963 1.93225e-23)
(-0.281099 -0.0244292 0)
(-0.25748 -0.0263424 1.76959e-23)
(-0.227611 -0.0278366 0)
(-0.191519 -0.0289309 -1.80293e-23)
(-0.149072 -0.0295427 0)
(-0.100568 -0.0295783 -1.92323e-23)
(-0.0462751 -0.0291085 1.92205e-23)
(0.0136166 -0.0280113 0)
(0.077757 -0.0262347 0)
(0.146078 -0.0239526 2.26905e-23)
(0.217656 -0.0209818 2.31625e-23)
(0.291766 -0.0176148 -2.49111e-23)
(0.367756 -0.0137924 -2.37409e-23)
(0.444949 -0.00972956 0)
(0.523408 -0.00578538 -1.75592e-23)
(0.603507 -0.00184703 -2.73186e-24)
(0.68628 0.00171858 0)
(0.772449 0.00565143 0)
(0.860385 0.0102932 0)
(0.950083 0.0143605 0)
(1.04399 0.0182276 -1.59903e-23)
(1.14271 0.0227621 1.63262e-23)
(1.24437 0.0282614 0)
(1.34597 0.034878 -2.00813e-24)
(1.44349 0.0430479 -2.1427e-23)
(1.53063 0.0519298 -1.49649e-24)
(1.60516 0.0603083 0)
(1.66695 0.0679572 0)
(1.7158 0.0751052 0)
(1.74974 0.0818912 2.74942e-23)
(1.76433 0.0885096 3.09779e-23)
(1.75859 0.0940759 3.35866e-23)
(1.72782 0.0994816 -3.75263e-23)
(1.66543 0.104406 0)
(1.56651 0.107929 0)
(1.42637 0.109108 0)
(1.24363 0.106848 -3.31462e-23)
(1.02445 0.100489 0)
(0.777545 0.0903779 -1.10212e-23)
(0.511611 0.0766576 -1.08446e-23)
(0.241344 0.0611029 4.04701e-23)
(-0.0318495 0.0446634 0)
(-0.298539 0.0267822 6.87079e-23)
(-0.542819 0.00863442 5.9292e-24)
(-0.75938 -0.00858136 0)
(-0.943431 -0.0240477 0)
(-1.09474 -0.0370091 4.83721e-23)
(-1.21622 -0.047759 0)
(-1.31273 -0.0563693 0)
(-1.3878 -0.0635881 0)
(-1.43652 -0.0692088 0)
(-1.45776 -0.0728067 1.15731e-23)
(-1.47301 -0.0743886 -9.12308e-24)
(-1.49745 -0.0758671 -1.19946e-23)
(-1.53566 -0.0785898 1.79558e-23)
(-1.57487 -0.0814483 -2.57014e-23)
(-1.5986 -0.0839261 3.54882e-23)
(-1.6026 -0.085407 -7.85446e-25)
(-1.29714 -0.00739842 2.66964e-22)
(-1.32173 -0.0333385 0)
(-1.33162 -0.059816 0)
(-1.32578 -0.0833445 2.31252e-22)
(-1.30623 -0.104476 -2.1846e-22)
(-1.27371 -0.123447 2.05444e-22)
(-1.22827 -0.140923 0)
(-1.17089 -0.155676 -1.779e-22)
(-1.10279 -0.168313 0)
(-1.02427 -0.179188 0)
(-0.936582 -0.187471 0)
(-0.840692 -0.193816 1.2494e-22)
(-0.737423 -0.198089 -1.07093e-22)
(-0.62795 -0.200183 9.26144e-23)
(-0.513256 -0.200429 8.193e-23)
(-0.394397 -0.198695 6.36138e-23)
(-0.272496 -0.19518 -3.97882e-24)
(-0.14869 -0.189957 -7.48047e-23)
(-0.0228846 -0.183157 0)
(0.10242 -0.174847 0)
(0.226705 -0.165274 0)
(0.349197 -0.154637 0)
(0.468929 -0.14305 4.91267e-23)
(0.585246 -0.130644 0)
(0.697454 -0.117605 -3.36527e-24)
(0.804919 -0.104036 1.07953e-22)
(0.907015 -0.0900083 0)
(1.00313 -0.0756296 6.87687e-23)
(1.09268 -0.060957 7.58708e-23)
(1.17511 -0.0461075 0)
(1.24992 -0.031161 0)
(1.31665 -0.0162158 9.22225e-23)
(1.37484 -0.00132866 0)
(1.4241 0.013358 0)
(1.46415 0.0277328 -1.00919e-22)
(1.49472 0.041635 0)
(1.51569 0.0548933 1.00019e-22)
(1.52696 0.0675888 0)
(1.52867 0.0791036 0)
(1.5215 0.0896326 9.10427e-23)
(1.50439 0.100166 0)
(1.47798 0.109286 0)
(1.4426 0.117507 0)
(1.39874 0.124192 -6.52705e-23)
(1.34688 0.129938 -5.66278e-23)
(1.2877 0.134066 4.73161e-23)
(1.22185 0.137266 -3.74715e-23)
(1.14998 0.138783 -2.50299e-23)
(1.07322 0.139265 -1.69835e-23)
(0.99203 0.138182 0)
(0.907892 0.136016 0)
(0.821228 0.132591 1.27104e-23)
(0.733441 0.128016 0)
(0.645341 0.122403 0)
(0.557911 0.116024 -2.63922e-24)
(0.471885 0.108705 0)
(0.388575 0.100823 0)
(0.30794 0.0925484 4.97925e-23)
(0.23148 0.0835867 0)
(0.159277 0.075003 0)
(0.0914504 0.0661034 5.42049e-23)
(0.0289203 0.0573722 0)
(-0.0286181 0.0490224 0)
(-0.0809162 0.0409174 0)
(-0.128008 0.0331735 4.98213e-23)
(-0.169844 0.0258382 4.76983e-23)
(-0.206447 0.0189077 0)
(-0.237818 0.0124306 0)
(-0.263998 0.00635908 0)
(-0.284981 0.000709016 0)
(-0.300762 -0.00455682 0)
(-0.311294 -0.00945067 0)
(-0.316535 -0.0141091 3.23923e-23)
(-0.316304 -0.0184634 0)
(-0.310457 -0.0225305 2.86824e-23)
(-0.298804 -0.0263037 2.74102e-23)
(-0.281237 -0.0297434 0)
(-0.257497 -0.0328703 2.54494e-23)
(-0.227494 -0.0355559 0)
(-0.191257 -0.0378065 0)
(-0.148661 -0.0395194 0)
(-0.100007 -0.0405259 2.56781e-23)
(-0.0455529 -0.040896 2.83347e-23)
(0.0144763 -0.0404856 0)
(0.0787687 -0.0392033 0)
(0.147226 -0.03732 3.38093e-23)
(0.218925 -0.0346265 3.46969e-23)
(0.293124 -0.0314471 3.24606e-23)
(0.369168 -0.0276324 0)
(0.446357 -0.0235143 0)
(0.524775 -0.0195274 0)
(0.604809 -0.0156495 1.74974e-23)
(0.687512 -0.0123173 0)
(0.773662 -0.00843008 2.1084e-24)
(0.861597 -0.00362058 0)
(0.95129 0.000248945 0)
(1.04524 0.00369133 -1.92702e-23)
(1.14404 0.00792612 0)
(1.24581 0.0134132 0)
(1.34753 0.0204592 -2.8861e-23)
(1.4451 0.0297428 -3.2066e-23)
(1.5322 0.0403233 -3.10972e-23)
(1.60664 0.0504551 0)
(1.66839 0.0597441 0)
(1.7171 0.0683484 0)
(1.7508 0.0770178 0)
(1.76519 0.0857955 -4.31609e-23)
(1.75928 0.0934938 4.71239e-23)
(1.72829 0.101386 0)
(1.66569 0.109156 0)
(1.56653 0.115733 0)
(1.42607 0.1201 0)
(1.24288 0.121014 -4.74921e-23)
(1.0232 0.117413 2.8153e-23)
(0.77581 0.109342 -4.4864e-24)
(0.509529 0.0966073 0)
(0.239122 0.0806605 4.90779e-23)
(-0.0340512 0.0629172 0)
(-0.300664 0.0431765 8.75264e-23)
(-0.544617 0.0226694 9.23739e-23)
(-0.760408 0.00272616 0)
(-0.943426 -0.0150972 0)
(-1.09382 -0.0305173 6.42372e-23)
(-1.21472 -0.0427289 0)
(-1.3112 -0.0524655 0)
(-1.38673 -0.060408 0)
(-1.43645 -0.0664715 0)
(-1.45942 -0.0698785 1.5693e-23)
(-1.47611 -0.07023 -1.31302e-23)
(-1.50222 -0.0696638 0)
(-1.54302 -0.0709168 2.18567e-23)
(-1.58083 -0.073635 -3.00836e-23)
(-1.60221 -0.0758183 8.84127e-25)
(-1.60523 -0.0766496 6.30909e-23)
(-1.31269 0.00684031 0)
(-1.33621 -0.0260751 3.3708e-22)
(-1.34484 -0.0601958 -3.0763e-22)
(-1.33757 -0.0903553 2.97394e-22)
(-1.31666 -0.117703 -7.95103e-25)
(-1.2829 -0.142433 2.65822e-22)
(-1.23608 -0.165545 -2.46878e-22)
(-1.1773 -0.185215 -2.31176e-22)
(-1.10797 -0.202284 0)
(-1.02816 -0.217346 -1.93109e-22)
(-0.93923 -0.229102 0)
(-0.842178 -0.238493 1.56874e-22)
(-0.737759 -0.245373 -3.54178e-24)
(-0.627198 -0.2495 3.71624e-24)
(-0.511497 -0.251335 1.00864e-22)
(-0.391682 -0.25069 1.68345e-22)
(-0.268912 -0.247781 6.78255e-23)
(-0.144334 -0.242698 -9.57892e-23)
(-0.0178251 -0.235621 2.8172e-23)
(0.108055 -0.226654 1.20765e-23)
(0.23284 -0.216012 0)
(0.355738 -0.203993 -1.9527e-23)
(0.475799 -0.190753 3.00562e-23)
(0.59237 -0.176437 0)
(0.704752 -0.161213 3.37806e-24)
(0.812311 -0.145206 6.80769e-23)
(0.914436 -0.128503 0)
(1.01052 -0.111244 0)
(1.1 -0.0935559 0)
(1.18233 -0.0755715 -1.08524e-22)
(1.257 -0.0573489 -1.1526e-22)
(1.32355 -0.039034 -1.20824e-22)
(1.38151 -0.020727 0)
(1.43053 -0.00262811 0)
(1.4703 0.0151955 9.48958e-25)
(1.50055 0.0325821 0)
(1.5212 0.0493166 -1.29134e-22)
(1.53203 0.0654552 0)
(1.53325 0.0802161 0)
(1.52559 0.0939219 0)
(1.50793 0.107731 0)
(1.48098 0.119873 0)
(1.44504 0.130941 0)
(1.40062 0.140146 -8.26947e-23)
(1.3482 0.148278 0)
(1.28847 0.154469 0)
(1.22207 0.159495 0)
(1.14967 0.162436 -6.84414e-23)
(1.07239 0.164185 0)
(0.990702 0.163983 0)
(0.906118 0.162358 6.5604e-24)
(0.819069 0.159092 0)
(0.730929 0.154415 0)
(0.642536 0.148366 0)
(0.554901 0.141267 -4.64225e-23)
(0.468748 0.132971 5.64984e-23)
(0.385342 0.124009 0)
(0.304679 0.114577 6.68678e-23)
(0.228203 0.104256 0)
(0.156048 0.0943358 0)
(0.0883021 0.0839889 0)
(0.0258867 0.0737899 0)
(-0.0315088 0.0640051 7.13722e-23)
(-0.0836547 0.0544829 0)
(-0.130574 0.0453436 0)
(-0.172231 0.0366483 0)
(-0.208653 0.0283625 0)
(-0.239844 0.020535 5.64246e-23)
(-0.26585 0.0131064 0)
(-0.286653 0.00610378 5.02194e-23)
(-0.302255 -0.000517003 0)
(-0.312636 -0.00673436 0)
(-0.317731 -0.0126696 0)
(-0.31735 -0.018298 3.913e-23)
(-0.311378 -0.0236132 1.58141e-25)
(-0.299605 -0.0286198 0)
(-0.281912 -0.0333101 3.32468e-23)
(-0.258038 -0.0376817 3.20656e-23)
(-0.227891 -0.0415664 3.1393e-23)
(-0.191501 -0.0449778 0)
(-0.14873 -0.0477739 0)
(-0.0998861 -0.049756 1.04391e-24)
(-0.0452151 -0.051039 0)
(0.0150152 -0.0514119 3.73902e-23)
(0.079509 -0.0507335 0)
(0.148126 -0.0493137 0)
(0.219953 -0.0468249 0)
(0.294228 -0.0437208 4.41483e-23)
(0.370314 -0.03986 -3.96907e-23)
(0.447499 -0.0356126 0)
(0.525887 -0.0316397 0)
(0.605859 -0.027761 0)
(0.688491 -0.0246854 8.68367e-24)
(0.774667 -0.0210252 -4.59498e-25)
(0.862658 -0.0161615 0)
(0.952384 -0.0124641 2.10971e-23)
(1.04639 -0.00931527 0)
(1.14529 -0.00516302 0)
(1.24719 0.000608976 -3.6749e-23)
(1.34903 0.00842356 0)
(1.4467 0.0192015 -3.92644e-23)
(1.53381 0.0316892 0)
(1.60815 0.0437427 4.22003e-23)
(1.66963 0.0549379 -4.32108e-23)
(1.71815 0.0654131 0)
(1.75177 0.0760453 0)
(1.76604 0.0871566 -5.51346e-23)
(1.75999 0.0971784 0)
(1.7288 0.107788 0)
(1.66596 0.118693 0)
(1.56648 0.128623 0)
(1.42559 0.136283 0)
(1.24191 0.1398 0)
(1.02181 0.137667 3.85639e-23)
(0.774085 0.130175 -9.48601e-24)
(0.507606 0.117084 0)
(0.237188 0.10025 0)
(-0.0358856 0.0814322 0)
(-0.302316 0.0600399 0)
(-0.545874 0.0371324 0)
(-0.760918 0.0148111 0)
(-0.943073 -0.00572202 0)
(-1.09274 -0.0231118 0)
(-1.21327 -0.0373144 0)
(-1.30984 -0.0487017 0)
(-1.38577 -0.05837 0)
(-1.43593 -0.0661314 0)
(-1.45927 -0.0710703 4.94219e-25)
(-1.47568 -0.0724838 1.07952e-23)
(-1.50062 -0.0731042 0)
(-1.53966 -0.0754022 0)
(-1.57767 -0.0785297 0)
(-1.59949 -0.0815269 -2.52729e-23)
(-1.603 -0.0836107 0)
(-1.33179 0.0212947 0)
(-1.35411 -0.018619 4.09883e-22)
(-1.36135 -0.0605689 -5.68953e-22)
(-1.35246 -0.0973117 3.65398e-22)
(-1.32996 -0.130881 3.45603e-22)
(-1.29482 -0.161345 -1.61981e-22)
(-1.2464 -0.190159 -1.52854e-22)
(-1.18598 -0.214724 0)
(-1.11525 -0.23614 0)
(-1.03391 -0.255444 -2.39324e-22)
(-0.943516 -0.270661 0)
(-0.84509 -0.283088 1.95608e-22)
(-0.739299 -0.292588 1.72897e-22)
(-0.627442 -0.298713 -2.23489e-22)
(-0.510518 -0.302134 1.27554e-22)
(-0.389535 -0.302566 1.04768e-22)
(-0.265695 -0.300251 0)
(-0.14015 -0.295298 -6.03496e-23)
(-0.0127648 -0.287926 3.87162e-23)
(0.113845 -0.278249 1.86742e-23)
(0.239263 -0.266538 2.72018e-24)
(0.362678 -0.253121 -2.00302e-23)
(0.483154 -0.238159 0)
(0.600051 -0.221829 0)
(0.71268 -0.204397 1.05934e-22)
(0.820426 -0.186018 0)
(0.922685 -0.166771 -5.01291e-23)
(1.01886 -0.146809 5.61352e-23)
(1.1084 -0.126234 0)
(1.19073 -0.105195 -1.30392e-22)
(1.26534 -0.0837875 -6.8424e-23)
(1.33177 -0.062146 -1.45981e-22)
(1.38955 -0.040389 -7.65201e-23)
(1.43832 -0.0187261 0)
(1.47774 0.00271106 1.57752e-22)
(1.50759 0.0236923 7.95325e-23)
(1.52774 0.0439278 -1.57418e-22)
(1.53809 0.0634398 -7.7231e-23)
(1.53892 0.0813858 7.46081e-23)
(1.53075 0.0982284 0)
(1.5125 0.115254 0)
(1.48495 0.130337 6.23859e-23)
(1.44839 0.144239 0)
(1.40335 0.155949 -1.52767e-22)
(1.3503 0.166405 0)
(1.28994 0.174578 3.60556e-23)
(1.2229 0.181467 0)
(1.14985 0.185882 -4.25301e-23)
(1.072 0.188764 0)
(0.989748 0.189321 3.77796e-24)
(0.90464 0.188218 5.60566e-24)
(0.817079 0.185229 0)
(0.728501 0.180457 -1.84734e-23)
(0.639736 0.174028 2.46674e-23)
(0.55178 0.166358 0)
(0.465351 0.157218 6.65205e-23)
(0.381713 0.14716 -3.81713e-23)
(0.300958 0.136417 7.93085e-23)
(0.224435 0.124523 4.2706e-23)
(0.152342 0.113056 -4.37204e-23)
(0.0846986 0.101012 0)
(0.0224394 0.0890937 0)
(-0.0347525 0.0776186 8.50038e-23)
(-0.0866753 0.0664268 -4.16979e-23)
(-0.13336 0.0556561 4.00494e-23)
(-0.174782 0.045385 0)
(-0.210976 0.0355952 0)
(-0.241948 0.0263535 3.35526e-23)
(-0.267753 0.0175894 0)
(-0.288387 0.0093203 9.13777e-23)
(-0.303846 0.00150021 -2.88327e-23)
(-0.314078 -0.00588392 0)
(-0.319048 -0.0130308 0)
(-0.318555 -0.0198642 2.39322e-23)
(-0.312466 -0.026403 -4.51766e-23)
(-0.300573 -0.0326459 0)
(-0.282759 -0.0385586 4.10628e-23)
(-0.258754 -0.0441541 3.97546e-23)
(-0.228459 -0.0492242 1.98691e-23)
(-0.191902 -0.0537871 0)
(-0.148947 -0.0576792 1.9535e-23)
(-0.0998989 -0.0606464 -6.2012e-23)
(-0.0449992 -0.0627762 0)
(0.0154399 -0.063841 4.72326e-23)
(0.0801551 -0.06365 -2.43786e-23)
(0.148958 -0.0626095 2.55783e-23)
(0.220949 -0.0603588 0)
(0.295345 -0.0574198 0)
(0.371517 -0.0535487 -7.5542e-23)
(0.448718 -0.0492371 0)
(0.527074 -0.0452119 1.72337e-23)
(0.606977 -0.0413707 0)
(0.68953 -0.0385401 8.2475e-24)
(0.775726 -0.0349703 0)
(0.86376 -0.0299318 0)
(0.953492 -0.0264126 3.56618e-23)
(1.04756 -0.0236649 -1.6945e-23)
(1.14659 -0.0197827 0)
(1.24866 -0.014007 -2.01114e-23)
(1.35073 -0.00576072 0)
(1.44862 0.00615953 0)
(1.53577 0.0203783 -2.54017e-23)
(1.60999 0.0342337 5.02343e-23)
(1.67139 0.0471343 -2.54774e-23)
(1.71975 0.0595707 0)
(1.75319 0.0723476 0)
(1.76736 0.0858283 0)
(1.7612 0.0982517 0)
(1.72984 0.111743 0)
(1.66678 0.126016 4.2814e-23)
(1.567 0.139415 0)
(1.42575 0.150219 -4.10989e-23)
(1.24164 0.156502 0)
(1.02106 0.156481 2.12638e-23)
(0.77293 0.150147 0)
(0.506251 0.137203 0)
(0.235842 0.119748 0)
(-0.0371247 0.0997438 0)
(-0.303416 0.0762945 0)
(-0.546592 0.0509322 0)
(-0.760862 0.0258745 -7.11002e-23)
(-0.942229 0.00294139 0)
(-1.09132 -0.0166113 5.20967e-23)
(-1.21162 -0.0323786 0)
(-1.30828 -0.0449477 -3.23539e-23)
(-1.3845 -0.0554105 0)
(-1.43543 -0.0638403 0)
(-1.46033 -0.0690765 -3.32498e-23)
(-1.47808 -0.0698033 1.31336e-23)
(-1.50389 -0.0690856 0)
(-1.54283 -0.0705316 0)
(-1.57946 -0.0739661 -8.6904e-24)
(-1.60049 -0.0769773 0)
(-1.60339 -0.0782014 2.05407e-23)
(-1.35437 0.0344404 0)
(-1.37533 -0.0124976 -2.39416e-22)
(-1.38096 -0.0623983 -4.58508e-22)
(-1.37032 -0.105752 0)
(-1.34602 -0.145484 -2.04307e-22)
(-1.30937 -0.181626 -3.84404e-22)
(-1.2591 -0.21622 1.79863e-22)
(-1.1968 -0.245628 -1.66028e-22)
(-1.12452 -0.271314 -1.53354e-22)
(-1.04141 -0.294902 0)
(-0.949318 -0.313504 -1.26892e-22)
(-0.849333 -0.328877 -1.13905e-22)
(-0.74194 -0.340991 -1.00329e-22)
(-0.62856 -0.349055 -8.86868e-23)
(-0.510214 -0.353989 -7.32802e-23)
(-0.387862 -0.355437 -5.97089e-23)
(-0.262745 -0.353624 0)
(-0.136063 -0.348678 -3.33215e-23)
(-0.00764826 -0.340924 -2.05188e-23)
(0.119841 -0.330494 0)
(0.246038 -0.317592 4.62848e-24)
(0.370098 -0.302679 1.41859e-23)
(0.491111 -0.285981 0)
(0.608451 -0.267675 3.41146e-23)
(0.72143 -0.247994 8.45872e-23)
(0.82944 -0.227114 0)
(0.931901 -0.205154 1.50942e-24)
(1.02821 -0.18229 1.31447e-22)
(1.11781 -0.158647 0)
(1.20013 -0.134401 7.85105e-23)
(1.27467 -0.109655 1.65769e-22)
(1.34098 -0.0845812 0)
(1.39859 -0.0593277 7.56117e-25)
(1.44711 -0.0341474 9.27222e-23)
(1.48624 -0.00917718 9.39056e-23)
(1.51573 0.0153335 9.38063e-23)
(1.53548 0.0390932 9.35033e-23)
(1.54533 0.062185 -9.15065e-23)
(1.54564 0.0833175 1.76882e-22)
(1.5369 0.103381 8.43645e-23)
(1.518 0.123643 7.95845e-23)
(1.4898 0.141625 7.42966e-23)
(1.45256 0.158281 6.70798e-23)
(1.40684 0.172486 -7.66658e-25)
(1.35306 0.185291 0)
(1.29198 0.195421 8.6053e-23)
(1.22425 0.203993 3.32332e-23)
(1.1505 0.209775 0)
(1.07194 0.213896 1.38948e-23)
(0.988998 0.215291 9.74427e-24)
(0.903253 0.214698 0)
(0.815128 0.211825 -1.39529e-23)
(0.726033 0.206908 -4.28465e-23)
(0.636807 0.20005 2.80569e-23)
(0.548485 0.191685 -3.57415e-23)
(0.461769 0.18157 -4.10355e-23)
(0.377918 0.170361 -4.40191e-23)
(0.29707 0.15837 -4.84335e-23)
(0.220484 0.145051 -1.14545e-24)
(0.148426 0.1322 -5.06835e-23)
(0.0808645 0.118696 -5.20405e-23)
(0.0187223 0.105294 -5.14747e-23)
(-0.0383051 0.0923692 -5.10518e-23)
(-0.0900423 0.0797535 -4.84795e-23)
(-0.136523 0.0675845 -6.76276e-25)
(-0.177742 0.0559433 -4.51463e-23)
(-0.213748 0.0447922 0)
(-0.244541 0.0342015 -8.08137e-23)
(-0.270178 0.0240847 -3.83708e-23)
(-0.290636 0.0144728 3.58945e-23)
(-0.305915 0.00530475 -6.7873e-23)
(-0.315989 -0.00339623 -3.19716e-23)
(-0.320791 -0.0118485 0)
(-0.320122 -0.0199531 -5.64498e-23)
(-0.313898 -0.0277429 -2.65724e-23)
(-0.301881 -0.0352285 0)
(-0.283943 -0.0423726 -2.40015e-23)
(-0.259808 -0.0492036 -2.31618e-23)
(-0.229364 -0.0554863 -2.30268e-23)
(-0.192634 -0.0612262 -2.26596e-23)
(-0.149476 -0.0662198 4.5838e-25)
(-0.100202 -0.0701627 -2.45826e-23)
(-0.0450343 -0.0731948 -2.54819e-23)
(0.0156587 -0.0750306 -2.72119e-23)
(0.0806466 -0.0754296 -5.86107e-23)
(0.149679 -0.0748371 3.1209e-23)
(0.221864 -0.0728021 -3.10909e-23)
(0.296385 -0.0699283 -3.0783e-23)
(0.372624 -0.0659991 -3.01777e-23)
(0.449816 -0.0615251 -2.57275e-23)
(0.528113 -0.057514 1.31005e-24)
(0.607909 -0.0536701 0)
(0.690334 -0.051119 -1.43652e-23)
(0.776562 -0.0477688 1.58998e-24)
(0.864704 -0.04267 0)
(0.954498 -0.0393553 2.88296e-23)
(1.04865 -0.0369578 1.32371e-24)
(1.14783 -0.0332163 0)
(1.2501 -0.0271883 5.15681e-23)
(1.35241 -0.0182043 2.82967e-23)
(1.45049 -0.00475843 0)
(1.53772 0.0114479 7.46372e-25)
(1.61194 0.0272364 3.03044e-23)
(1.67315 0.0419967 3.05533e-23)
(1.72138 0.0557969 3.22651e-23)
(1.75478 0.0702912 3.55184e-23)
(1.76892 0.0859725 3.98259e-23)
(1.7627 0.100651 4.32291e-23)
(1.73123 0.116733 4.68148e-23)
(1.66803 0.133902 1.00708e-22)
(1.56803 0.150399 0)
(1.4264 0.164577 -1.58509e-24)
(1.24178 0.173721 3.97995e-23)
(1.02063 0.175807 2.82961e-23)
(0.772009 0.170727 4.19469e-24)
(0.505143 0.157702 -2.30113e-23)
(0.234818 0.139357 0)
(-0.0380252 0.11805 -7.27335e-23)
(-0.30411 0.0929668 -8.61451e-23)
(-0.546844 0.065323 0)
(-0.760422 0.0378459 -1.64128e-22)
(-0.941073 0.0124986 -7.43273e-23)
(-1.08956 -0.00931622 5.98928e-23)
(-1.20942 -0.0269179 -4.93611e-23)
(-1.30593 -0.0410168 -7.53344e-23)
(-1.38236 -0.053056 -2.76946e-23)
(-1.43422 -0.0629789 -1.87731e-23)
(-1.46088 -0.0694336 -2.52558e-23)
(-1.4798 -0.0708143 0)
(-1.50565 -0.0707465 -3.41078e-24)
(-1.54332 -0.0727755 -3.98425e-24)
(-1.57863 -0.0763322 -1.13666e-23)
(-1.59918 -0.0799226 0)
(-1.60188 -0.0828495 3.94302e-25)
(-1.38054 0.0474911 2.89998e-22)
(-1.40008 -0.00686604 2.89314e-25)
(-1.40382 -0.0644076 1.70579e-26)
(-1.39123 -0.114599 0)
(-1.3649 -0.160449 -4.69719e-25)
(-1.32664 -0.20224 -4.44623e-22)
(-1.27426 -0.242754 2.07017e-22)
(-1.2098 -0.27698 -1.11212e-24)
(-1.13585 -0.306804 -3.55994e-22)
(-1.05071 -0.33478 0)
(-0.956689 -0.356732 -1.60333e-24)
(-0.854945 -0.375019 -1.73003e-24)
(-0.745704 -0.38978 -1.8367e-24)
(-0.63059 -0.399728 1.0042e-22)
(-0.510629 -0.406168 -1.98852e-24)
(-0.386673 -0.408638 -7.11077e-23)
(-0.26006 -0.407298 -5.35816e-23)
(-0.132041 -0.402375 -2.06739e-24)
(-0.00241756 -0.394239 -2.06912e-24)
(0.126137 -0.382974 9.67079e-24)
(0.25323 -0.368922 -2.00719e-24)
(0.378058 -0.352518 3.10893e-23)
(0.499711 -0.334 -2.83711e-23)
(0.617585 -0.313593 -1.80619e-24)
(0.730993 -0.291639 -1.71939e-24)
(0.839341 -0.268346 -5.96228e-23)
(0.942062 -0.243773 6.70646e-23)
(1.03857 -0.218104 1.52165e-22)
(1.12831 -0.191499 -8.41914e-23)
(1.21072 -0.164169 -1.1636e-24)
(1.28529 -0.136198 1.91763e-22)
(1.35156 -0.107772 -1.01066e-22)
(1.40904 -0.079043 1.03917e-22)
(1.45735 -0.0503081 -6.14715e-25)
(1.49617 -0.0217232 1.08034e-22)
(1.52526 0.00641972 -1.08736e-22)
(1.54453 0.0337221 -1.76615e-25)
(1.55384 0.0602752 -1.05689e-22)
(1.55364 0.0846431 2.04503e-22)
(1.54429 0.107997 2.52123e-25)
(1.52468 0.131534 3.91283e-25)
(1.49575 0.152578 8.52062e-23)
(1.45774 0.172183 6.56326e-25)
(1.41123 0.188945 6.95322e-23)
(1.35666 0.204105 -5.92328e-23)
(1.29475 0.21632 9.90118e-23)
(1.22617 0.226842 1.08888e-24)
(1.1516 0.234046 2.7093e-23)
(1.07227 0.239225 1.23866e-24)
(0.988556 0.24141 1.06037e-23)
(0.902083 0.241307 6.16028e-24)
(0.813267 0.238635 1.3551e-24)
(0.723565 0.233541 -5.02313e-23)
(0.633811 0.226199 3.42271e-23)
(0.545045 0.217133 1.33874e-24)
(0.457971 0.206052 -4.63189e-23)
(0.373788 0.193694 -5.24913e-23)
(0.292777 0.180357 1.20886e-24)
(0.216081 0.165459 1.14629e-24)
(0.144054 0.151033 -5.98583e-23)
(0.0765795 0.135826 1.00142e-24)
(0.0145819 0.12068 -1.18217e-22)
(-0.0422326 0.106044 8.38963e-25)
(-0.0937285 0.0917477 -5.67873e-23)
(-0.139954 0.0779456 6.73292e-25)