/*--------------------------------*- C++ -*----------------------------------*\
| =========                 |                                                 |
| \\      /  F ield         | OpenFOAM: The Open Source CFD Toolbox           |
|  \\    /   O peration     | Version:  v1912                                 |
|   \\  /    A nd           | Website:  www.openfoam.com                      |
|    \\/     M anipulation  |                                                 |
\*---------------------------------------------------------------------------*/
FoamFile
{
    version     2.0;
    format      ascii;
    class       volScalarField;
    location    "10";
    object      p_rgh;
}
// * * * * * * * * * * * * * * * * * * * * * * * * * * * * * * * * * * * * * //

dimensions      [1 -1 -2 0 0 0 0];


internalField   nonuniform List<scalar> 
14268
(
-609.735
-619.1
-630.428
-645.926
-663.836
-681.943
-696.257
-705.039
-708.357
-708.486
-708.628
-711.076
-715.854
-726.951
-743.66
-756.049
-764.113
-766.541
-765.755
-764.673
-765.562
-770.362
-776.573
-794.133
-822.236
-844.376
-837.699
-802.153
-759.913
-711.247
-640.425
-568.889
-499.154
-427.933
-353.991
-269.659
-164.544
-32.5812
110.619
245.675
331.28
334.064
317.66
451.06
513.917
525.06
524.974
717.871
874.725
953.699
927.091
1081.91
1301.21
1494.49
1635.19
1707.95
1811.5
1911.91
2031.58
2140.56
2312.39
2414.62
2481.88
2588.86
2738.41
2893.84
3021.58
2980.49
2749.53
2499.88
2176.4
1978.85
1512.88
1622.56
1375.19
514.589
513.823
532.693
458.504
428.939
395.122
363.426
333.489
313.709
305.195
301.871
302.831
307.414
314.385
321.264
336.273
356.891
382.854
389.338
394.968
390.07
390.905
396.336
397.93
382.542
359.515
339.208
326.602
310.036
-609.766
-619.139
-630.477
-645.993
-663.911
-682.016
-696.313
-705.072
-708.37
-708.487
-708.631
-711.085
-715.881
-727.004
-743.725
-756.099
-764.143
-766.552
-765.749
-764.561
-765.5
-770.224
-776.611
-794.224
-822.361
-844.458
-837.65
-802.016
-759.754
-711.034
-640.146
-568.616
-498.885
-427.665
-353.705
-269.323
-164.128
-32.0761
111.056
245.488
329.097
326.798
294.3
399.851
439.672
445.423
437.461
631.559
798.474
888.547
871.357
1029.38
1249.68
1441.92
1586.46
1661.92
1772.55
1877.88
2001.84
2123.05
2320.58
2455.27
2548.25
2672.31
2836.35
3003.46
3149.32
3255.32
3283.23
3271.11
3134.7
2662.5
1414.72
1353.46
1044.48
936.359
573.16
255.386
146.787
125.455
109.156
91.0549
73.6209
65.5086
60.6535
60.0487
59.643
60.4878
62.3346
62.6191
64.6989
64.464
59.4599
52.4497
50.9184
46.7635
52.4001
69.936
77.3825
72.4532
67.5762
70.3525
70.8019
83.9468
-609.795
-619.173
-630.522
-646.058
-663.988
-682.096
-696.378
-705.112
-708.387
-708.489
-708.632
-711.088
-715.895
-727.05
-743.794
-756.154
-764.177
-766.568
-765.751
-764.767
-765.632
-770.545
-776.638
-794.311
-822.502
-844.582
-837.64
-801.902
-759.622
-710.863
-639.921
-568.376
-498.647
-427.424
-353.458
-269.034
-163.772
-31.6291
111.47
245.602
329.099
324.927
284.62
385.436
423.683
429.667
429.249
630.328
798.932
890.282
872.678
1034.74
1252.65
1443.31
1586.43
1665.46
1776.14
1884.77
2009.51
2133.64
2334.5
2473.71
2570.06
2699.7
2875
3057.19
3219.2
3345.01
3402.35
3470.4
3474.2
3232.68
1543.8
1105.9
1009.61
577.533
96.0881
75.2026
83.4035
97.7189
92.9216
79.3127
64.9635
58.8566
55.1639
53.8957
52.9695
53.6334
56.133
53.5208
52.2726
52.016
49.4073
45.5938
44.9131
40.7094
40.8917
39.891
39.645
41.9731
53.1429
59.7093
56.7755
43.9691
-609.82
-619.202
-630.558
-646.12
-664.066
-682.182
-696.452
-705.161
-708.409
-708.491
-708.631
-711.085
-715.91
-727.094
-743.871
-756.218
-764.223
-766.592
-765.742
-764.443
-765.434
-770.089
-776.651
-794.396
-822.669
-844.759
-837.665
-801.808
-759.516
-710.712
-639.705
-568.155
-498.43
-427.203
-353.236
-268.796
-163.484
-31.2208
111.842
245.499
327.239
319.006
274.098
369.603
404.764
411.372
415.581
619.816
788.494
878.065
861.193
1019.92
1242.03
1433.27
1578.43
1653.71
1768.62
1875.12
1994.38
2111.72
2310.64
2451.16
2551.47
2686.01
2865.36
3050.72
3213.17
3342.25
3423.83
3549.03
3649.74
3511.33
1858.93
1160.47
993.69
296.835
69.6798
70.8507
80.2091
95.5095
91.2381
78.3206
64.5914
61.9104
82.8368
123.537
126.758
102.123
66.0652
52.9817
51.7432
53.431
64.8906
84.1575
83.9133
64.6943
44.4599
38.2839
37.764
42.6935
63.2443
74.5432
67.2412
44.2422
-609.843
-619.23
-630.593
-646.182
-664.146
-682.276
-696.535
-705.217
-708.436
-708.494
-708.626
-711.075
-715.905
-727.131
-743.95
-756.288
-764.269
-766.62
-765.749
-764.837
-765.674
-770.696
-776.655
-794.479
-822.856
-844.981
-837.725
-801.736
-759.437
-710.594
-639.515
-567.957
-498.239
-427.03
-353.078
-268.619
-163.272
-30.8494
112.24
245.66
327.058
317.804
275.348
375.575
414.014
419.326
419.38
620.451
788.755
880.001
863.301
1026.14
1243.9
1435.88
1581.38
1662.23
1773.08
1879.84
1998.31
2118.24
2319.6
2463.43
2565.23
2701.67
2882.31
3067.72
3232.72
3365.78
3462.01
3600.77
3770.24
3865.66
3278.57
2899.64
1343.11
158.129
67.6194
70.7056
80.1823
95.1386
90.3362
77.5938
65.2262
76.292
203.408
382.223
384.188
261.081
112.165
57.7538
59.4038
78.8152
149.399
218.01
203.215
119.693
50.7069
37.6364
38.3521
57.6812
136.849
191.066
168.689
75.0485
-609.864
-619.244
-630.617
-646.24
-664.227
-682.375
-696.627
-705.281
-708.467
-708.498
-708.621
-711.061
-715.909
-727.166
-744.037
-756.366
-764.331
-766.658
-765.736
-764.314
-765.357
-769.939
-776.645
-794.559
-823.065
-845.252
-837.829
-801.687
-759.381
-710.522
-639.369
-567.785
-498.075
-426.885
-352.95
-268.496
-163.127
-30.5487
112.554
245.45
325.455
314.414
269.838
366.537
400.363
405.603
410.087
613.575
782.37
870.848
854.126
1012.73
1235.78
1427.23
1574.43
1649.34
1766.59
1872.11
1986
2100.51
2302.47
2448.43
2552.16
2689.41
2869.57
3056.91
3221.13
3360.37
3458.29
3602.56
3783.56
3603.92
3572.4
2572.15
723.464
68.1656
66.1605
68.6804
81.0385
95.1499
89.3126
76.9833
66.0856
149.883
506.327
578.006
582.269
511.369
241.321
92.429
95.3016
143.87
336.42
472.925
421.923
214.747
60.1566
37.2909
40.5889
87.5814
303.471
457.364
379.551
138.913
-609.881
-619.277
-630.642
-646.299
-664.311
-682.482
-696.728
-705.352
-708.504
-708.502
-708.609
-711.036
-715.885
-727.194
-744.128
-756.45
-764.388
-766.698
-765.749
-764.885
-765.684
-770.817
-776.627
-794.638
-823.296
-845.572
-837.969
-801.657
-759.353
-710.482
-639.248
-567.634
-497.935
-426.759
-352.861
-268.419
-163.046
-30.2855
112.825
245.499
325.354
314.459
270.554
372.401
411.159
414.194
412.991
613.969
782.532
872.068
855.484
1018.77
1237.22
1429.14
1576.46
1658.17
1770.01
1875.87
1988.66
2106.22
2313.24
2462.62
2564.7
2699.79
2881.02
3067.69
3234.65
3369.77
3471.15
3625.25
3747.01
3171.26
3717.61
2808.9
637.367
64.6767
66.019
80.2036
139.807
129.592
94.9146
77.3887
68.715
188.083
291.329
462.683
608.086
599.734
391.404
168.441
189.516
421.481
520.169
517.324
516.563
351.314
115.519
37.5814
39.9231
104.194
575.099
776.411
658.786
221.877
-609.895
-619.261
-630.654
-646.352
-664.395
-682.595
-696.837
-705.432
-708.545
-708.506
-708.603
-711.016
-715.878
-727.22
-744.226
-756.542
-764.467
-766.75
-765.731
-764.177
-765.265
-769.772
-776.592
-794.714
-823.55
-845.941
-838.146
-801.65
-759.355
-710.475
-639.142
-567.504
-497.812
-426.673
-352.816
-268.399
-163.032
-30.0664
113.072
245.377
324.126
310.969
265.872
364.277
397.736
400.799
405.855
608.846
778.068
864.663
847.663
1006.69
1230.47
1421.38
1570.23
1645.22
1764.76
1869.64
1977.67
2089.19
2294.03
2445.21
2550.31
2687.83
2868.13
3058.79
3228.1
3370.34
3479.56
3631.17
3694.87
3033.57
3251
1777.25
284.831
63.7716
67.7699
122.335
286.324
229.823
112.303
83.3571
108.199
141.934
119.226
111.657
204.846
493.749
429.07
211.374
176.124
202.533
408.032
541.678
538.372
446.997
158.625
39.2371
40.9423
86.0692
391.77
798.8
812.015
410.068
-609.908
-619.313
-630.669
-646.408
-664.482
-682.716
-696.956
-705.517
-708.591
-708.511
-708.581
-710.969
-715.834
-727.239
-744.328
-756.641
-764.536
-766.802
-765.751
-764.912
-765.663
-770.91
-776.553
-794.79
-823.828
-846.36
-838.361
-801.662
-759.384
-710.499
-639.072
-567.403
-497.719
-426.608
-352.8
-268.429
-163.085
-29.8937
113.308
245.37
323.868
310.781
266.371
369.578
408.274
410.03
408.285
609.765
778.947
865.839
849.323
1012.22
1231.9
1423.06
1571.8
1654.12
1767.91
1873.28
1979.64
2093.46
2305.8
2459.17
2561.74
2697.36
2879.62
3066.46
3235.81
3385.73
3436.96
3210.99
2864.25
2507.11
2332.83
941.069
146.586
66.3404
77.85
223.818
349.204
371.248
167.034
95.5841
108.767
98.3097
64.4541
50.304
64.8312
227.521
458.122
350.842
175.836
168.78
165.038
265.882
484.326
489.646
291.523
58.471
40.9423
59.4855
141.853
469.095
830.4
673.659
-609.913
-619.256
-630.667
-646.459
-664.569
-682.844
-697.084
-705.614
-708.642
-708.517
-708.577
-710.949
-715.817
-727.256
-744.438
-756.748
-764.632
-766.867
-765.726
-764.033
-765.157
-769.588
-776.493
-794.862
-824.129
-846.828
-838.618
-801.696
-759.438
-710.559
-639.045
-567.326
-497.651
-426.576
-352.84
-268.513
-163.205
-29.7699
113.5
245.305
323
307.798
262.163
362.561
396.017
396.766
402.802
605.907
775.816
859.622
842.156
1001.74
1226.23
1416.01
1565.97
1641.99
1763.78
1868.22
1969.43
2080.82
2288.26
2443.99
2550.76
2690.03
2875.65
3065.22
3240.97
3354.75
2882.41
1649.34
682.137
484.693
707.092
338.72
102.753
70.9311
107.318
325.814
376.657
391.196
222.214
95.3826
83.7643
69.337
45.7208
39.3365
40.7366
124.005
492.095
541.179
412.816
201.581
182.117
219.439
331.705
261.298
160.148
67.0775
44.1058
59.3762
135.364
239.419
461.386
563.431
-609.926
-619.336
-630.672
-646.512
-664.66
-682.979
-697.221
-705.714
-708.697
-708.519
-708.541
-710.871
-715.751
-727.269
-744.552
-756.862
-764.712
-766.932
-765.755
-764.914
-765.613
-770.973
-776.43
-794.935
-824.459
-847.351
-838.904
-801.75
-759.517
-710.655
-639.023
-567.263
-497.589
-426.568
-352.903
-268.649
-163.394
-29.6846
113.687
245.297
322.696
307.334
262.597
367.142
405.873
406.647
405.261
607.687
777.685
861.247
844.689
1006.94
1228.05
1417.94
1567.68
1650.26
1767.24
1872.31
1971.46
2083.35
2302.3
2460.24
2563.12
2699.26
2884.12
3081.51
3238.65
2998.31
1815.22
694.616
148.509
101.865
162.999
109.778
81.2196
75.5422
183.071
345.635
399.402
426.213
294.321
109.627
66.5306
55.8029
45.136
45.1712
40.8992
73.7281
347.503
673.509
701.166
596.646
505.499
579.73
602.564
448.6
227.96
100.904
55.6768
62.064
106.479
163.146
223.85
370.783
-609.917
-619.228
-630.658
-646.56
-664.751
-683.121
-697.367
-705.827
-708.759
-708.529
-708.542
-710.86
-715.724
-727.28
-744.674
-756.984
-764.825
-767.008
-765.717
-763.884
-765.028
-769.388
-776.347
-795.004
-824.822
-847.919
-839.225
-801.828
-759.624
-710.776
-639.029
-567.229
-497.575
-426.598
-353.017
-268.838
-163.651
-29.6488
113.881
245.275
322.127
304.975
259.139
361.344
394.949
393.456
401.075
605.057
775.719
856.211
838.169
998.301
1223.53
1411.8
1562.14
1639.82
1764.18
1868.94
1965.83
2080.1
2289.68
2449.44
2560.01
2704.18
2897.61
3067.04
2909.09
1865.41
652.383
171.564
75.0504
80.2869
139.541
94.1668
76.1749
95.1867
283.597
376.641
440.056
459.954
419.857
148.591
65.1617
55.3119
67.0309
111.259
107.42
95.8554
129.789
364.736
735.669
770.299
794.707
697.25
684.9
676.29
390.982
242.44
163.891
103.704
106.696
107.63
115.124
188.599
-609.936
-619.344
-630.654
-646.608
-664.845
-683.27
-697.524
-705.94
-708.82
-708.527
-708.488
-710.743
-715.638
-727.281
-744.8
-757.109
-764.917
-767.09
-765.764
-764.889
-765.535
-771.001
-776.263
-795.068
-825.192
-848.541
-839.596
-801.925
-759.755
-710.948
-639.078
-567.226
-497.591
-426.652
-353.164
-269.079
-163.973
-29.6499
114.08
245.283
321.902
304.416
259.653
365.228
404.203
403.84
404.036
608.098
778.866
858.608
841.844
1003.71
1226.31
1414.5
1564.74
1646.63
1768.81
1873.67
1968.78
2091.07
2309.08
2471.18
2577.07
2722.35
2823.39
2641.64
1748.31
661.146
135.915
59.7215
73.8746
83.2865
138.65
91.8921
77.7153
159.374
311.2
314.491
156.907
327.85
437.98
200.768
66.7233
62.0216
138.492
268.026
260.86
156.633
130.799
152.892
330.028
515.998
458.616
257.999
267.814
541.325
682.421
628.841
537.679
335.838
141.805
72.2233
67.6136
93.1954
-609.905
-619.181
-630.624
-646.651
-664.94
-683.427
-697.688
-706.072
-708.897
-708.546
-708.497
-710.749
-715.601
-727.287
-744.936
-757.259
-765.047
-767.169
-765.7
-763.732
-764.877
-769.185
-776.153
-795.154
-825.581
-849.227
-840.008
-802.032
-759.923
-711.165
-639.169
-567.229
-497.61
-426.734
-353.354
-269.374
-164.368
-29.698
114.165
245.317
321.616
302.745
257.29
360.652
394.447
390.783
400.879
606.736
777.923
855.225
836.137
997.212
1223.47
1410.15
1559.6
1638.71
1766.9
1871.48
1978.68
2107.07
2309.79
2471.82
2590.22
2525.18
2223.7
1365.8
596.202
267.617
94.2904
52.2646
67.7538
75.2406
133.32
89.8918
74.6043
220.3
281.558
152.57
59.5082
86.3308
346.358
223.495
76.4411
75.185
216.433
352.828
369.711
331.623
166.281
112.029
117.081
143.917
130.609
86.1161
91.169
310.009
753.4
757.852
782.714
744.794
431.057
124.004
64.8947
61.6076
-609.953
-619.412
-630.608
-646.73
-665.09
-683.676
-697.954
-706.258
-708.991
-708.521
-708.388
-710.499
-715.421
-727.23
-745.139
-757.44
-765.203
-767.325
-765.822
-765.39
-765.709
-771.87
-776.03
-795.303
-826.242
-850.24
-840.664
-802.222
-760.183
-711.488
-639.275
-567.256
-497.683
-426.909
-353.697
-269.897
-165.055
-29.8252
114.265
245.428
321.527
301.886
258.299
366.078
407.791
406.78
406.264
614.683
785.508
862.125
842.01
1007.1
1229.35
1416.84
1566.09
1648.2
1774.59
1885.58
1986.85
2047.78
2298.42
2411.53
2213.97
1520.1
721.251
357.287
221.222
163.319
90.4063
58.0908
76.2015
91.9512
142.121
88.3681
76.66
117.996
120.627
81.4522
46.1791
66.0338
177.57
222.432
119.43
162.302
359.709
375.701
392.892
408.103
353.064
166.408
52.9591
50.5864
42.8112
36.3872
41.577
93.6686
251.796
545.572
831.179
856.855
887.738
659.555
240.595
40.3179
-609.805
-618.924
-630.508
-646.802
-665.287
-684.034
-698.333
-706.588
-709.204
-708.597
-708.436
-710.574
-715.337
-727.269
-745.467
-757.85
-765.503
-767.457
-765.582
-762.803
-764.181
-767.784
-775.69
-795.358
-827.22
-851.941
-841.629
-802.57
-760.691
-712.052
-639.51
-567.369
-497.853
-427.258
-354.32
-270.795
-166.254
-30.1591
114.378
245.636
321.804
300.681
256.87
360.93
390.559
382.056
403.971
618.515
788.266
859.378
837.442
1002.08
1235.67
1419.24
1557.78
1639.84
1785.81
1887.6
1700.87
1494.45
1848.4
1755.06
971.904
337.291
122.897
137.455
138.834
120.455
85.995
73.5669
108.255
143.73
168.755
91.1888
72.437
103.825
93.0393
47.7119
42.6919
56.7597
101.396
292.076
279.602
285.649
289.908
259.5
253.142
312.315
353.663
361.813
231.13
71.522
17.486
10.2592
12.1254
33.6404
84.5507
155.013
254.484
430.246
515.036
565.11
525.805
191.495
-609.939
-619.367
-630.438
-646.904
-665.5
-684.426
-698.776
-706.865
-709.321
-708.499
-708.188
-710.041
-715.01
-727.166
-745.768
-758.073
-765.782
-767.835
-765.886
-765.223
-765.437
-771.797
-775.387
-795.527
-828.207
-853.462
-842.807
-802.829
-761.208
-712.796
-639.875
-567.603
-498.09
-427.696
-355.103
-271.962
-167.763
-30.7068
114.619
246.097
322.469
300.344
261.007
371.694
410.628
404.345
415.323
641.07
804.777
880.068
855.687
1025.56
1260.8
1447.19
1582.38
1658.98
1803.95
1602.41
919.1
545.789
653.489
496.639
239.175
108.633
106.401
133.719
135.132
118.947
88.3193
115.13
196.281
202.097
262.274
123.387
90.8852
102.764
75.2267
37.4951
43.257
58.4786
77.344
274.005
337.092
352.381
180.286
31.9647
16.8365
30.8003
133.154
284.579
311.031
209.101
52.5938
5.3192
2.54932
10.1838
60.3436
106.955
104.965
112.464
135.031
181.02
199.93
114.458
-609.663
-618.676
-630.287
-646.996
-665.742
-684.852
-699.22
-707.302
-709.611
-708.668
-708.31
-710.214
-714.888
-727.162
-746.291
-758.656
-766.125
-767.877
-765.465
-762.429
-763.661
-767.288
-774.999
-795.633
-829.112
-854.576
-844.182
-803.696
-762.015
-713.519
-640.533
-567.895
-498.588
-428.346
-356.013
-273.242
-169.471
-31.2608
114.758
246.716
323.642
300.974
267.57
370.709
399.624
384.14
424.16
659.784
836.256
896.704
863.645
1043.41
1237.91
1409.8
1568.5
1649
1561.52
822.185
362.483
235.53
174.62
136.482
104.402
80.7466
103.079
124.643
130.451
117.088
113.146
205.003
236.008
236.93
291.193
204.018
130.141
130.707
66.4168
32.3988
41.7987
57.6468
67.5718
190.941
361.858
297.654
101.842
6.48158
4.54224
5.93164
15.1585
67.3358
198.787
219.559
127.289
15.4927
2.42097
10.537
65.5235
99.5512
59.8283
26.6852
21.5288
33.1362
43.2998
47.1449
-609.883
-619.228
-630.168
-647.09
-665.975
-685.384
-699.76
-707.569
-709.683
-708.452
-707.929
-709.458
-714.442
-726.998
-746.414
-758.828
-766.494
-768.506
-765.941
-764.837
-765.036
-771.226
-774.367
-795.581
-829.66
-855.888
-845.063
-803.929
-762.597
-714.363
-640.951
-568.22
-498.876
-429.011
-357.161
-274.743
-171.418
-32.062
114.838
247.248
325.34
303.353
276.598
393.993
428.458
406.928
444.543
692.432
868.061
901.115
865.217
971.698
1030.67
1245.57
1466.72
1387.82
821.918
405.613
231.871
212.6
173.8
137.091
125.781
165.157
178.399
179.335
133.973
117.081
164.967
251.598
276.013
269.985
334.68
292.846
240.791
141.739
37.0663
34.5307
58.4051
104.77
120.607
156.596
244.607
207.59
95.1038
11.2649
4.23246
4.01699
6.11278
18.8796
65.416
143.166
133.613
35.8415
2.23139
10.5012
67.4833
97.3882
90.4166
40.2942
18.2835
26.4009
43.5138
105.389
-609.471
-618.379
-629.971
-647.146
-666.18
-685.739
-700.305
-708.179
-710.16
-708.792
-708.19
-709.733
-714.327
-727.064
-747.197
-759.521
-766.806
-768.32
-765.319
-762.241
-763.031
-767.119
-774.201
-795.871
-829.82
-856.356
-845.265
-804.814
-763.354
-714.867
-641.021
-568.646
-499.47
-429.647
-358.243
-276.451
-173.932
-33.0231
115.191
248.07
328.292
309.938
291.406
426.26
431.986
399.123
492.483
729.584
874.702
854.622
770.491
764.264
734.046
830.264
921.214
672.436
408.366
305.795
208.35
209.683
173.426
150.876
188.207
263.779
282.039
264.041
223.227
151.204
125.269
128.563
180.057
292.06
370.836
343.856
288.701
125.116
24.1633
24.8383
77.9228
158
216.093
167.741
142.875
114.211
77.6789
30.6065
4.73154
3.96263
4.13671
11.3908
41.2812
82.9394
96.1705
48.4873
4.34303
5.13013
36.6614
93.2023
102.561
68.3612
18.3613
20.9839
111.728
129.943
-609.802
-618.978
-629.783
-647.123
-666.592
-686.498
-700.856
-708.343
-710.076
-708.37
-707.61
-708.76
-713.698
-726.72
-747.253
-759.804
-767.425
-769.365
-766.023
-764.285
-764.473
-770.602
-773.111
-796.261
-830.582
-856.375
-845.598
-804.599
-763.694
-715.243
-641.383
-568.406
-499.13
-429.778
-359.183
-278.195
-176.517
-33.8965
115.783
249.47
333.591
320.865
317.051
534.124
483.062
435.176
541.654
744.153
844.985
771.267
634.646
595.972
630.385
555.571
488.903
382.543
336.62
274.037
234.54
233.591
173.827
140.204
209.912
283.86
302.521
323.404
333.362
215.918
66.0256
36.272
45.5768
94.6599
392.758
385.483
262.702
81.7207
23.0609
22.3727
66.2123
191.976
254.834
243.373
120.138
38.3119
6.86527
4.04499
4.14964
3.88155
3.27207
7.25045
34.1679
69.3327
73.4246
49.3226
6.42988
-0.461808
6.74069
63.9809
103.563
85.2232
30.2335
16.8163
42.3422
108.228
-606.335
-613.199
-624.457
-640.68
-662.996
-688.132
-705.552
-713.7
-714.165
-711.385
-709.768
-710.799
-713.558
-728.297
-753.136
-763.368
-767.753
-765.894
-760.822
-750.47
-751.968
-749.91
-757.506
-716.752
-656.81
-636.057
-619.371
-575.659
-520.879
-491.417
-462.832
-367.567
-238.874
-105.566
34.598
179.159
319.02
398.482
486.107
603.895
698.455
700.624
728.98
833.58
783.415
701.702
629.334
679.769
653.334
554.991
450.486
422.619
427.111
391.074
340.125
309.337
275.272
182.064
221.481
264.065
252.647
202.995
81.7419
47.3166
75.907
310.758
371.928
291.281
70.2498
19.1698
21.1057
49.6925
217.328
384.251
253.18
58.1441
20.1172
22.324
27.7439
148.369
266.629
264.692
121.27
15.3345
2.53755
3.22369
4.59313
4.21972
3.4287
5.01344
27.7237
48.6009
38.0655
14.305
-1.31963
-3.30496
-4.50764
-0.797402
46.1893
85.597
53.1348
16.1234
15.1388
33.759
-613.148
-619.482
-628.546
-648.746
-679.594
-695.84
-697.596
-699.606
-704.393
-699.493
-697.395
-692.672
-688.129
-669.161
-676.023
-697.448
-681.189
-647.512
-633.576
-632.007
-596.974
-519.817
-421.699
-314.472
-226.397
-166.034
-85.4076
42.1673
145.482
223.708
295.099
364.246
427.835
482.782
524.826
548.834
557.793
545.358
519.029
486.505
444.39
397.855
346.286
315.424
268.698
198.65
156.908
140.619
117.721
100.971
77.3472
62.9119
60.0584
53.2715
42.8405
36.7957
32.3306
31.3512
26.7517
20.0025
15.2072
12.4858
12.4382
11.9074
8.70788
2.2248
1.93388
7.70384
13.8741
14.9635
14.8539
10.3549
7.38028
5.76353
9.42076
20.0235
27.0702
28.171
21.8496
8.28677
1.69924
0.155043
2.02732
3.254
3.27807
3.66438
8.4713
8.80578
7.84231
3.12983
-1.59571
-3.27319
-2.87664
-2.53688
-2.90613
-3.6352
-5.31268
-5.46336
-4.63641
3.36273
22.5959
22.2885
7.97643
1.55884
-595.467
-596.349
-598.295
-584.904
-599.664
-643.549
-651.661
-625.684
-597.546
-581.898
-533.479
-453.702
-367.894
-290.601
-239.886
-190.595
-124.661
-35.761
65.4575
102.09
145.092
223.144
309.988
371.137
385.692
366.907
334.709
306.525
282.681
257.182
231.738
209.036
188.234
168.328
152.701
138.583
128.287
118.989
107.825
99.2064
88.4626
77.9064
64.1883
51.6531
40.57
29.1832
21.0741
17.6574
16.2225
12.4266
7.7444
6.21265
7.65975
7.68705
5.84651
3.82529
3.37919
5.73146
6.5454
5.56288
3.12925
0.701761
-0.536643
-2.02123
-3.48191
-5.78835
-6.66517
-5.44138
-0.789302
2.93647
5.15503
6.23908
3.77396
2.89561
4.01222
6.3296
6.8604
7.42118
6.40454
2.86533
0.0613202
-0.894202
0.0549649
1.84732
2.06828
1.74202
1.11746
0.457515
-0.381948
-1.5056
-2.82032
-3.88143
-4.67774
-4.35204
-3.86152
-4.91345
-6.26797
-6.76948
-7.36548
-5.93849
-0.0542328
8.30827
6.53555
1.6117
-454.892
-374.978
-302.946
-244.289
-201.411
-162.59
-103.001
-38.1309
53.5032
114.505
162.011
225.884
308.787
379.938
406.916
399.284
378.395
347.935
316.299
278.456
232.958
197.658
170.409
146.916
123.403
101.713
82.3337
67.992
56.1824
46.4349
38.8118
32.5181
27.657
23.8176
20.6814
18.4396
16.3013
13.9274
11.4571
8.66123
6.08699
3.74794
2.47022
2.39463
2.53959
1.79889
1.04976
2.0075
3.57589
3.32869
2.68536
2.64018
2.85441
2.93574
2.75108
2.41191
3.18918
4.4143
4.63289
3.3763
1.73277
0.292417
-0.78108
-2.20824
-4.38201
-6.3873
-7.38887
-5.89557
-2.24833
0.127415
1.14271
2.05242
2.90044
3.12274
3.87964
4.56376
5.49229
5.68832
4.67337
2.50264
0.465911
0.448968
1.46508
2.14936
2.30803
1.88421
1.25827
0.539899
-0.44211
-1.49946
-2.36345
-2.908
-3.19509
-3.4652
-4.34546
-5.87937
-7.63717
-8.33379
-8.00179
-6.6079
-3.52622
0.473545
1.91005
1.73325
210.191
276.048
355.663
423.405
447.866
441.693
427.343
402.941
374.971
339.029
292.678
250.489
215.23
182.431
150.683
121.928
100.369
80.865
65.3728
52.9425
41.919
33.9289
27.7273
22.4933
18.3609
14.5059
11.2684
8.95845
7.39648
6.05126
4.73913
3.51558
2.53207
1.96017
1.73448
1.75583
1.68221
1.27156
0.460553
-0.543816
-1.19034
-1.74436
-1.44251
-0.796057
-0.437824
-0.445911
-0.363849
-0.0523388
0.260315
0.294591
0.224417
0.394611
0.879322
1.40246
1.62082
1.79352
2.03945
2.47988
2.62606
2.16127
1.20957
0.0366535
-1.28078
-2.93521
-4.67467
-6.43881
-7.27732
-5.52895
-2.94117
-0.524987
1.58936
2.97958
2.78115
2.46345
2.93997
3.79924
4.53668
4.86487
4.22727
2.63591
1.19281
0.645652
0.743116
1.15708
1.30714
1.13243
0.700528
0.113357
-0.643993
-1.50315
-2.33157
-3.03015
-3.58129
-4.11732
-5.15746
-6.78874
-8.17146
-8.82685
-8.04164
-6.56651
-3.59683
-0.675288
1.16517
1.9196
343.431
296.473
253.424
212.699
175.9
145.117
122.021
101.468
84.2411
70.2077
56.994
45.8173
36.652
28.6227
21.7518
16.2651
11.7314
8.33882
6.03418
4.51807
3.44335
2.5564
2.24985
2.59387
2.98764
3.06692
2.99537
2.7298
2.35249
1.86019
1.21865
0.617737
0.152713
-0.0885631
-0.176214
-0.249495
-0.371421
-0.615747
-0.981049
-1.23557
-1.38891
-1.41597
-1.28034
-1.05402
-0.909295
-0.786059
-0.615829
-0.422221
-0.148086
0.192116
0.613367
1.0486
1.45815
1.8103
2.16633
2.42116
2.73339
2.98822
2.85849
2.2159
1.27103
0.191924
-1.06871
-2.6119
-4.14411
-5.35866
-5.66241
-4.65447
-2.72765
-0.721956
0.918978
1.99627
2.43289
2.65081
3.0497
3.57293
3.99288
4.12147
3.57272
2.55963
1.68248
1.38425
1.46427
1.58536
1.47391
1.14669
0.673858
0.098712
-0.564402
-1.24376
-1.8747
-2.44382
-3.04972
-3.88145
-5.18097
-6.8946
-8.36674
-8.67918
-7.77376
-5.95174
-2.96292
-0.140834
1.56581
1.86389
67.126
53.925
42.6694
33.4491
26.0579
20.3686
15.9516
12.6133
10.0662
8.03918
6.02787
4.44198
3.23904
2.4077
1.93534
1.55562
1.1509
0.952706
0.764966
0.52866
0.35447
0.315094
0.601358
1.06107
1.38389
1.53134
1.48561
1.24541
0.971242
0.687734
0.411892
0.142654
-0.0926197
-0.298537
-0.529507
-0.684757
-0.807746
-0.955788
-1.08473
-1.14073
-1.11656
-1.05851
-0.944831
-0.795629
-0.639241
-0.503088
-0.386805
-0.29026
-0.168928
0.0244573
0.316796
0.631864
0.968898
1.25632
1.3988
1.6352
1.81038
1.88182
1.744
1.34839
0.679329
-0.203732
-1.25399
-2.4588
-3.65326
-4.55445
-4.81613
-3.95033
-2.41526
-0.795874
0.566228
1.51969
1.97888
2.27504
2.66599
3.06608
3.3232
3.19142
2.85258
2.17047
1.51599
1.13588
0.999407
0.972582
0.884447
0.657081
0.287942
-0.189516
-0.754847
-1.36194
-1.96545
-2.55441
-3.19729
-4.00912
-5.15188
-6.50818
-7.57861
-7.79794
-6.96798
-5.09938
-2.33878
-0.173111
1.11744
1.15006
4.85372
3.54156
2.66863
2.13226
1.92075
1.9239
2.10998
2.43234
2.45179
2.15679
1.74848
1.36028
1.03478
0.788461
0.533142
0.227654
-0.0966543
-0.400137
-0.557943
-0.504981
-0.315662
-0.0386163
0.243582
0.488711
0.705886
0.877365
0.938301
0.885415
0.787774
0.631058
0.403304
0.163188
-0.0659532
-0.281028
-0.468222
-0.609214
-0.711437
-0.779674
-0.825549
-0.839598
-0.835504
-0.800066
-0.741563
-0.64743
-0.55986
-0.476789
-0.367947
-0.244619
-0.0976272
0.126306
0.443741
0.783564
1.11462
1.44438
1.69757
1.85305
1.92027
1.86212
1.62912
1.19797
0.573372
-0.198579
-1.09324
-2.04751
-2.90283
-3.41404
-3.31258
-2.75047
-1.68474
-0.501741
0.52401
1.29799
1.81272
2.16019
2.47378
2.74744
2.91066
2.97269
2.64187
2.16726
1.72913
1.4382
1.25463
1.10088
0.879972
0.578686
0.198564
-0.247274
-0.748286
-1.2832
-1.83495
-2.41094
-3.0579
-3.841
-4.77381
-5.83958
-6.45213
-6.53004
-5.74284
-4.16235
-2.05366
-0.340609
0.776814
0.770229
0.0311414
-0.156328
-0.256901
-0.295339
-0.253605
-0.0432613
0.350111
0.715171
0.847937
0.852633
0.801616
0.736332
0.621549
0.424124
0.16915
-0.0815661
-0.322643
-0.461356
-0.423356
-0.295991
-0.10434
0.112605
0.336651
0.560906
0.748287
0.863523
0.870383
0.781285
0.641229
0.476796
0.294509
0.103546
-0.08263
-0.260396
-0.425395
-0.559257
-0.683228
-0.798782
-0.839248
-0.831084
-0.783491
-0.717646
-0.644195
-0.562097
-0.462423
-0.362565
-0.257853
-0.142649
-0.00693509
0.173571
0.384805
0.60392
0.80478
0.932285
1.07896
1.20198
1.26273
1.23177
1.06652
0.741592
0.277713
-0.310558
-0.980841
-1.68616
-2.28363
-2.64589
-2.68496
-2.1835
-1.38503
-0.505733
0.291652
0.923305
1.3849
1.7402
2.03185
2.24488
2.32575
2.17623
1.96643
1.66878
1.34827
1.09299
0.905722
0.747443
0.554686
0.293743
-0.0402636
-0.436972
-0.883746
-1.3629
-1.86126
-2.38911
-2.97296
-3.64755
-4.39598
-5.1276
-5.5355
-5.45773
-4.80873
-3.4601
-1.94081
-0.628786
0.159628
0.0490858
-0.603371
-0.650202
-0.731903
-0.781433
-0.732263
-0.488658
-0.140254
0.201663
0.484023
0.686798
0.795849
0.794919
0.683821
0.498839
0.262227
0.032751
-0.150119
-0.257606
-0.256622
-0.17258
-0.0443039
0.102535
0.24606
0.376635
0.490979
0.571813
0.599852
0.565035
0.487631
0.371004
0.229243
0.0800943
-0.071426
-0.215533
-0.344908
-0.449046
-0.521027
-0.577251
-0.608311
-0.628374
-0.6322
-0.607166
-0.558834
-0.487693
-0.408968
-0.322731
-0.224618
-0.110266
0.0240798
0.194801
0.39342
0.604653
0.820893
1.01305
1.14343
1.20718
1.19267
1.0871
0.877984
0.568308
0.162606
-0.318583
-0.838759
-1.34836
-1.73477
-1.91329
-1.77327
-1.44822
-0.912722
-0.283153
0.328015
0.851205
1.2646
1.58444
1.83696
2.01587
2.10549
2.13783
1.9519
1.68696
1.40852
1.15895
0.938956
0.720165
0.477831
0.196647
-0.131311
-0.508241
-0.923643
-1.36388
-1.82218
-2.30592
-2.82681
-3.38594
-3.98359
-4.50205
-4.72611
-4.58342
-4.05513
-3.02984
-1.93157
-1.02189
-0.504169
-0.651726
-0.467806
-0.508804
-0.537576
-0.535983
-0.458757
-0.242206
0.0709101
0.345406
0.513816
0.583563
0.601149
0.563215
0.482774
0.363578
0.21497
0.054329
-0.0812603
-0.150835
-0.146565
-0.0835232
0.0220758
0.148556
0.281162
0.3977
0.48565
0.532501
0.524418
0.475194
0.39623
0.293987
0.175938
0.0490448
-0.0767641
-0.196799
-0.306386
-0.400426
-0.47878
-0.542475
-0.583082
-0.577449
-0.54488
-0.505185
-0.453538
-0.393902
-0.323591
-0.242919
-0.148504
-0.0424234
0.0774466
0.215272
0.361065
0.5016
0.617612
0.720396
0.804881
0.852664
0.848737
0.776357
0.617282
0.370845
0.0528371
-0.320244
-0.719786
-1.09529
-1.37554
-1.5052
-1.47833
-1.171
-0.714581
-0.218284
0.262035
0.67832
1.01743
1.28286
1.48043
1.60224
1.63976
1.52457
1.40426
1.24323
1.0588
0.870908
0.687297
0.493323
0.272912
0.0135777
-0.285557
-0.621797
-0.988074
-1.37964
-1.79157
-2.22404
-2.67454
-3.1321
-3.58938
-3.95228
-4.08367
-3.94145
-3.5218
-2.8007
-2.04525
-1.39107
-1.09615
-1.27767
-0.339972
-0.382616
-0.419666
-0.429999
-0.373102
-0.240617
-0.0673675
0.108239
0.263163
0.38665
0.460789
0.471087
0.41728
0.313839
0.192162
0.0856093
0.00868792
-0.0368284
-0.0380344
-0.00249884
0.0602195
0.132047
0.208208
0.277951
0.338343
0.377523
0.388081
0.36427
0.309425
0.230622
0.138939
0.0390646
-0.0622365
-0.160703
-0.250457
-0.326573
-0.386735
-0.43033
-0.452198
-0.465472
-0.46695
-0.448983
-0.415277
-0.354755
-0.291255
-0.218932
-0.13739
-0.043578
0.0636151
0.185714
0.319159
0.455939
0.584917
0.685829
0.746729
0.761549
0.724488
0.629956
0.475822
0.263582
0.0039009
-0.286708
-0.586414
-0.850228
-1.02718
-1.07924
-0.962885
-0.764395
-0.461559
-0.101635
0.281312
0.620549
0.911651
1.14776
1.33082
1.45784
1.52676
1.5216
1.40351
1.2233
1.02486
0.822749
0.61863
0.405616
0.176856
-0.0778409
-0.362867
-0.677575
-1.01752
-1.37501
-1.74659
-2.13019
-2.51646
-2.89145
-3.24769
-3.50378
-3.5834
-3.46372
-3.14857
-2.63946
-2.1204
-1.68549
-1.54588
-1.73192
-0.258853
-0.294563
-0.300265
-0.264781
-0.189595
-0.0656771
0.0806861
0.2074
0.296187
0.342712
0.358539
0.346053
0.304782
0.242596
0.167375
0.0977011
0.0405106
0.00923026
0.00876106
0.0374317
0.0883297
0.155068
0.22174
0.279316
0.318805
0.33562
0.327619
0.297162
0.246775
0.179691