/*--------------------------------*- C++ -*----------------------------------*\
| =========                 |                                                 |
| \\      /  F ield         | OpenFOAM: The Open Source CFD Toolbox           |
|  \\    /   O peration     | Version:  v1912                                 |
|   \\  /    A nd           | Website:  www.openfoam.com                      |
|    \\/     M anipulation  |                                                 |
\*---------------------------------------------------------------------------*/
FoamFile
{
    version     2.0;
    format      ascii;
    class       volVectorField;
    location    "30";
    object      U;
}
// * * * * * * * * * * * * * * * * * * * * * * * * * * * * * * * * * * * * * //

dimensions      [0 1 -1 0 0 0 0];


internalField   nonuniform List<vector> 
14268
(
(0.00872376 0.000435099 0)
(0.00711517 0.000355496 -2.71097e-27)
(0.00544339 0.000273323 2.79401e-27)
(0.00356594 0.00018115 0)
(0.00149939 7.89191e-05 0)
(-0.000854273 -3.72987e-05 0)
(-0.0036168 -0.000173733 0)
(-0.00656983 -0.000318412 0)
(0.0087001 0.000468343 0)
(0.00709299 0.000389106 -4.227e-27)
(0.00542273 0.000306744 4.52525e-27)
(0.00354682 0.000215586 0)
(0.00148184 0.000116018 0)
(-0.00087006 4.27618e-06 0)
(-0.00363076 -0.000129361 0)
(-0.00658289 -0.000274212 0)
(0.00868302 0.000465965 0)
(0.00707589 0.0003884 0)
(0.00540557 0.000308885 2.81649e-27)
(0.0035296 0.000221155 0)
(0.00146462 0.000123853 0)
(-0.0008873 1.52208e-05 0)
(-0.00364798 -0.000115079 0)
(-0.00660005 -0.000254964 0)
(0.00867498 0.000499586 -1.86168e-29)
(0.00706776 0.00042228 0)
(0.00539734 0.00034249 1.72773e-27)
(0.00352112 0.000255655 -1.85222e-27)
(0.00145581 0.000160562 0)
(-0.000896554 5.5813e-05 0)
(-0.00365766 -7.15838e-05 0)
(-0.00660861 -0.000209994 0)
(0.00867295 0.000498084 -3.96958e-28)
(0.00706556 0.000422488 0)
(0.00539492 0.000345542 0)
(0.00351846 0.000262171 -1.3607e-33)
(0.00145291 0.000170049 0)
(-0.000899899 6.91009e-05 0)
(-0.00366148 -5.52966e-05 0)
(-0.00661045 -0.000190035 0)
(0.00867028 0.000531338 0)
(0.00706288 0.000455933 0)
(0.00539219 0.000378693 0)
(0.00351556 0.00029613 2.41416e-27)
(0.00144972 0.000205411 0)
(-0.000903356 0.000107728 0)
(-0.00366513 -1.35789e-05 0)
(-0.00661158 -0.0001464 0)
(0.00866949 0.000530885 6.28125e-28)
(0.00706196 0.000457286 0)
(0.00539108 0.000382924 0)
(0.00351427 0.000303978 0)
(0.00144827 0.000217203 0)
(-0.000905303 0.000123722 6.73711e-28)
(-0.00366759 5.32898e-06 0)
(-0.00661153 -0.000123728 0)
(0.0086671 0.000563236 6.32889e-28)
(0.00705957 0.000489708 -1.51985e-27)
(0.00538867 0.000415025 0)
(0.0035117 0.0003366 0)
(0.00144549 0.000250092 0)
(-0.000908124 0.000159665 5.19942e-28)
(-0.0036707 4.42426e-05 0)
(-0.00661209 -8.32581e-05 0)
(0.00866634 0.000563589 0)
(0.00705868 0.000492038 -1.62996e-27)
(0.00538761 0.000420294 3.42408e-27)
(0.00351048 0.000346037 0)
(0.00144398 0.000264451 0)
(-0.00091021 0.000178362 0)
(-0.00367321 6.60437e-05 0)
(-0.00661215 -5.7092e-05 0)
(0.00866401 0.000595561 0)
(0.00705638 0.000523666 0)
(0.00538532 0.000451418 3.89083e-27)
(0.00350804 0.000376923 0)
(0.00144156 0.000294976 0)
(-0.000912754 0.000211762 0)
(-0.00367606 0.000102049 0)
(-0.00661258 -2.02856e-05 2.55984e-27)
(0.0086635 0.000595378 0)
(0.00705575 0.000526117 0)
(0.00538452 0.000457228 0)
(0.00350705 0.000387875 0)
(0.00144021 0.000311308 0)
(-0.00091458 0.000232796 0)
(-0.00367846 0.000126678 0)
(-0.00661274 9.20615e-06 2.92019e-27)
(0.00866261 0.000629214 -4.26698e-28)
(0.00705505 0.000559123 0)
(0.00538393 0.000489232 0)
(0.00350645 0.000418662 0)
(0.00143937 0.000341075 0)
(-0.000916094 0.000264286 0)
(-0.00368097 0.000159874 0)
(-0.00661317 4.29886e-05 0)
(0.00866829 0.000626267 -1.29668e-33)
(0.00706077 0.000559093 0)
(0.00538933 0.000492902 0)
(0.0035114 0.000428021 0)
(0.00144337 0.000356798 0)
(-0.000912598 0.000286905 0)
(-0.00368073 0.000187287 0)
(-0.00661302 7.50887e-05 0)
(0.00867738 0.000664886 7.27589e-28)
(0.0070662 0.000596439 0)
(0.00538861 0.000528682 0)
(0.00350118 0.000461739 0)
(0.00141772 0.00038766 0)
(-0.000963499 0.000315983 0)
(-0.00377064 0.000214674 0)
(-0.00668729 0.000103537 0)
(0.00873021 0.000636634 0)
(0.00713958 0.000582593 0)
(0.00546391 0.000529155 -3.50081e-28)
(0.00361668 0.00048246 0)
(0.0015342 0.000425403 0)
(-0.000808465 0.000372144 0)
(-0.00363844 0.000273639 0)
(-0.00654186 0.000162323 0)
(0.00870468 0.000896412 0)
(0.00711642 0.000811368 0)
(0.00543977 0.00072597 1.87289e-28)
(0.00359252 0.000647936 0)
(0.00152008 0.000560535 1.20318e-26)
(-0.000770208 0.000484115 0)
(-0.00351796 0.000372701 -2.03857e-26)
(-0.00638479 0.0002435 0)
(0.00866037 0.00083613 -1.30343e-26)
(0.00707505 0.000775452 0)
(0.00540576 0.000715045 6.51278e-27)
(0.00357203 0.000668062 0)
(0.0015116 0.000607033 2.06577e-26)
(-0.000775847 0.000555363 -1.34401e-26)
(-0.00351631 0.000448312 -2.12828e-26)
(-0.00636696 0.000319608 -1.40326e-26)
(0.00869559 0.00110143 -2.97752e-26)
(0.00710639 0.00100848 0)
(0.00542969 0.000915741 5.15086e-27)
(0.00358536 0.00083623 0)
(0.00151362 0.000742794 8.83577e-27)
(-0.000780291 0.000663744 -3.07335e-26)
(-0.00352516 0.000538285 0)
(-0.00637035 0.000392471 -1.3636e-26)
(0.00863052 0.00103764 -1.77229e-26)
(0.00704867 0.000970243 0)
(0.00538195 0.000902188 0)
(0.0035482 0.000853737 0)
(0.00148851 0.000787494 0)
(-0.000795737 0.000734033 -1.80195e-26)
(-0.003533 0.000614329 0)
(-0.00637301 0.000465194 0)
(0.00869226 0.00130907 0)
(0.00710428 0.00120808 0)
(0.00543063 0.00110781 0)
(0.00358825 0.00102718 0)
(0.00151621 0.000927884 0)
(-0.000781392 0.000846452 0)
(-0.00353411 0.000707087 0)
(-0.00637409 0.000544073 0)
(0.00859997 0.00123635 0)
(0.00702219 0.00116244 0)
(0.00535721 0.00108749 0)
(0.00352744 0.00103764 0)
(0.00147142 0.000966255 0)
(-0.000808715 0.000911181 0)
(-0.00354192 0.000778608 0)
(-0.00637371 0.000608136 0)
(0.00860985 0.00197607 0)
(0.00702332 0.00185631 0)
(0.00536676 0.00173981 5.46089e-27)
(0.00349505 0.00165268 0)
(0.00141977 0.00153824 -7.01464e-27)
(-0.000942572 0.00143977 0)
(-0.00372805 0.00129102 8.51899e-27)
(-0.00661129 0.00118262 6.8189e-27)
(0.00851492 0.00166189 0)
(0.00690391 0.00165343 0)
(0.00524338 0.00166167 6.49287e-28)
(0.00337334 0.00174126 0)
(0.00131925 0.00181252 -3.80489e-27)
(-0.00104362 0.00197243 0)
(-0.00380423 0.00197031 9.7651e-27)
(-0.00664902 0.00186503 -2.18931e-29)
(0.00857743 0.00284376 0)
(0.00700952 0.00276908 0)
(0.00537282 0.00272064 -1.64655e-27)
(0.00351219 0.0027519 0)
(0.00146079 0.00277674 0)
(-0.00091409 0.0028875 0)
(-0.00376647 0.00289542 0)
(-0.00670814 0.00291784 -8.28428e-27)
(0.0084618 0.00256681 0)
(0.00686775 0.00261194 0)
(0.00524233 0.00269761 2.94667e-27)
(0.0033984 0.00289999 0)
(0.00136891 0.00310868 0)
(-0.00101103 0.00348861 0)
(-0.00382049 0.00361023 0)
(-0.00672721 0.00368178 -1.19155e-26)
(0.00856562 0.00368762 0)
(0.00703201 0.00364701 -2.05045e-27)
(0.00543293 0.00366435 0)
(0.00360154 0.00381603 -2.69398e-27)
(0.00160042 0.0039933 0)
(-0.000786705 0.00433948 0)
(-0.00369593 0.00454058 0)
(-0.00683928 0.00472642 -1.13902e-26)
(0.00842293 0.00347481 0)
(0.0068635 0.00356872 2.1189e-29)
(0.00530028 0.00373537 0)
(0.00350963 0.00405603 -7.73005e-27)
(0.00153845 0.00441409 2.98083e-28)
(-0.000849817 0.00503967 0)
(-0.00373273 0.00531693 0)
(-0.00683842 0.00568829 0)
(0.00857229 0.0045035 0)
(0.00708909 0.00448 -2.0821e-29)
(0.0055446 0.00455714 0)
(0.00376119 0.00482884 0)
(0.00184381 0.00517617 -2.51754e-29)
(-0.000556901 0.0058005 1.24534e-26)
(-0.00348451 0.00627247 0)
(-0.00704587 0.00669682 1.71129e-26)
(0.0083884 0.00437804 0)
(0.00688416 0.00451256 5.12409e-27)
(0.00541319 0.00476371 1.45334e-26)
(0.00370745 0.00519468 0)
(0.00183862 0.00572049 2.81461e-27)
(-0.000525081 0.00661844 1.15341e-26)
(-0.00349658 0.00714037 -2.55862e-26)
(-0.00694574 0.00803466 1.87265e-26)
(0.00859477 0.00528509 0)
(0.00717957 0.00525672 0)
(0.0057085 0.00538313 2.17374e-29)
(0.00400144 0.00576859 0)
(0.00220849 0.00630137 1.80383e-27)
(-0.00019265 0.00726054 0)
(-0.00303669 0.00813333 2.34684e-29)
(-0.00729268 0.00892095 0)
(0.00833953 0.00526772 1.07384e-26)
(0.00692009 0.00542991 0)
(0.00557349 0.005766 -2.34773e-26)
(0.00398752 0.00629595 0)
(0.00226821 0.00701438 6.54138e-27)
(1.03042e-05 0.00820122 1.42003e-26)
(-0.00308782 0.00913508 -2.33635e-29)
(-0.00699192 0.0109241 1.99901e-26)
(0.0086281 0.00602156 1.44129e-26)
(0.00730568 0.00596454 0)
(0.00593288 0.00612852 0)
(0.00432965 0.00661578 0)
(0.00272652 0.00733181 8.11093e-27)
(0.000370871 0.00869846 2.03368e-26)
(-0.00217208 0.0101505 -4.71396e-26)
(-0.00753755 0.011394 5.07018e-26)
(0.00824465 0.00613815 0)
(0.0069581 0.00630434 0)
(0.00576089 0.00672021 0)
(0.00431053 0.00732559 0)
(0.00278729 0.00825845 9.96328e-27)
(0.000679056 0.00971705 -2.24905e-26)
(-0.00264553 0.0114079 5.00311e-26)
(-0.00701138 0.0149173 0)
(0.00930448 0.00668943 0)
(0.00786474 0.00657975 1.53534e-26)
(0.00667641 0.00678917 0)
(0.00528947 0.007371 0)
(0.00397566 0.00826071 0)
(0.00196864 0.0101417 -2.10276e-26)
(0.000682392 0.0122826 -2.35715e-29)
(-0.00716439 0.0141711 -7.63827e-26)
(-0.0359054 0.00668125 0)
(-0.0397786 0.00691342 2.68204e-26)
(-0.0441498 0.00728181 0)
(-0.0480812 0.00788568 0)
(-0.050582 0.00897396 0)
(-0.0512753 0.0104188 0)
(-0.0482176 0.0137841 -1.34413e-25)
(-0.0348881 0.020249 -5.01044e-26)
(-0.361727 0.006238 0)
(-0.330657 0.00684043 0)
(-0.297091 0.00725087 0)
(-0.260436 0.00759008 0)
(-0.21988 0.00782344 0)
(-0.173939 0.00854227 0)
(-0.121928 0.0070831 -1.31904e-25)
(-0.0675237 0.00797129 0)
(1.63139 -0.00111287 -2.07899e-25)
(1.72032 -0.00162994 0)
(1.8119 -0.00230842 1.38845e-25)
(1.90644 -0.00325313 0)
(2.00479 -0.00418468 2.93885e-25)
(2.10946 -0.00558051 0)
(2.22838 -0.00423052 -3.23e-27)
(2.38049 -0.00745465 0)
(7.66713 0.00683122 -1.88529e-26)
(7.63069 0.00555927 1.29974e-22)
(7.58916 0.00391919 -1.22143e-22)
(7.54596 0.00231091 -1.16487e-22)
(7.49689 -0.00030775 -1.11215e-22)
(7.45399 -0.00485935 0)
(7.36761 -0.0275177 -1.0168e-22)
(7.33556 -0.00220463 1.06552e-22)
(1.97435 0.00835313 -1.24365e-22)
(2.01374 0.0104459 5.46069e-28)
(2.05671 0.0109075 1.19346e-22)
(2.1066 0.0119681 -1.17838e-22)
(2.16497 0.0101258 0)
(2.21438 0.0179372 0)
(2.23754 0.00913367 0)
(2.28084 0.0141988 1.05095e-22)
(3.61968 -0.0225982 0)
(3.65392 -0.0263323 1.55155e-23)
(3.69187 -0.031239 -9.48475e-24)
(3.72867 -0.0339873 0)
(3.75782 -0.0393425 0)
(3.79481 -0.0311022 0)
(3.81654 -0.0469549 -4.67248e-24)
(3.845 -0.00943062 0)
(1.97488 -0.0222835 -1.85775e-23)
(2.01366 -0.0214903 -1.54919e-23)
(2.05662 -0.021714 -1.34681e-23)
(2.10345 -0.0191546 -1.06695e-23)
(2.15105 -0.0209957 7.72823e-24)
(2.20098 -0.0106152 -6.13365e-24)
(2.23749 -0.0158649 -1.1626e-29)
(2.25045 -0.00953771 -3.67092e-24)
(1.86646 -0.0445214 2.23286e-28)
(1.9297 -0.0495443 -3.65303e-23)
(1.98999 -0.056777 -3.40718e-23)
(2.0513 -0.059153 -2.60496e-28)
(2.1067 -0.0659843 2.97016e-23)
(2.16724 -0.0547471 -2.79231e-23)
(2.22005 -0.058747 -2.35601e-23)
(2.27355 -0.0258106 -1.77208e-23)
(1.37678 -0.0692507 3.13284e-23)
(1.43905 -0.0669155 0)
(1.49979 -0.0669095 0)
(1.56251 -0.0640171 2.575e-23)
(1.61839 -0.065344 0)
(1.67704 -0.0544652 -2.18696e-23)
(1.72523 -0.0560317 0)
(1.76305 -0.0469582 0)
(1.06662 -0.0799075 0)
(1.13243 -0.0832562 0)
(1.19605 -0.0900901 2.9631e-23)
(1.26179 -0.0900413 0)
(1.32073 -0.0953792 -2.70339e-23)
(1.38311 -0.082362 -2.5746e-23)
(1.43943 -0.0796687 2.41346e-23)
(1.49239 -0.0531872 0)
(0.794251 -0.111267 0)
(0.858647 -0.109394 0)
(0.92106 -0.110478 3.41829e-28)
(0.985758 -0.10748 0)
(1.04381 -0.107842 -2.18749e-23)
(1.1034 -0.0970585 0)
(1.15798 -0.0949558 5.88659e-28)
(1.2051 -0.0816358 0)
(0.570068 -0.12049 2.1592e-23)
(0.629222 -0.122038 2.13368e-23)
(0.687168 -0.127234 -4.20606e-23)
(0.748718 -0.124934 2.09116e-23)
(0.804581 -0.127525 0)
(0.863188 -0.113471 2.05793e-23)
(0.917561 -0.106633 -2.07285e-23)
(0.968422 -0.0851859 1.93611e-23)
(0.386489 -0.143953 1.73881e-23)
(0.439719 -0.143474 1.73703e-23)
(0.491508 -0.146444 -1.72564e-23)
(0.547565 -0.14417 1.72075e-23)
(0.597906 -0.144502 0)
(0.651246 -0.134125 1.72458e-23)
(0.700896 -0.129067 0)
(0.746709 -0.112963 1.78673e-23)
(0.24214 -0.153088 0)
(0.288266 -0.155119 0)
(0.331262 -0.159958 -1.36597e-23)
(0.379533 -0.15718 0)
(0.422081 -0.157523 0)
(0.47095 -0.143875 0)
(0.516441 -0.135103 -1.64751e-23)
(0.559863 -0.116261 0)
(0.134407 -0.167285 4.94356e-24)
(0.169732 -0.169523 5.14085e-24)
(0.201095 -0.173505 -1.04674e-23)
(0.238501 -0.171509 5.56252e-24)
(0.272597 -0.172127 -6.09685e-24)
(0.314338 -0.162144 0)
(0.353341 -0.154684 -1.43473e-23)
(0.389655 -0.138607 7.57616e-24)
(0.0662103 -0.173373 3.03608e-24)
(0.082357 -0.174273 6.18917e-24)
(0.101623 -0.180114 -3.61549e-24)
(0.130231 -0.179036 8.52832e-24)
(0.15839 -0.180399 -2.73067e-28)
(0.191636 -0.169342 0)
(0.221955 -0.15941 0)
(0.250587 -0.141942 6.77608e-24)
(-0.0259202 -0.182945 0)
(0.0109298 -0.183032 3.21198e-24)
(0.0246102 -0.188795 -4.73471e-24)
(0.0533208 -0.187999 1.86123e-28)
(0.0687666 -0.189038 3.5994e-24)
(0.0830346 -0.179616 4.54239e-24)
(0.102548 -0.170585 -5.39576e-24)
(0.123414 -0.155681 0)
(-0.0338137 -0.184631 1.01271e-25)
(-0.0363929 -0.185979 6.83657e-25)
(-0.0416387 -0.190372 -8.28565e-25)
(-0.0366811 -0.192366 -2.89894e-24)
(-0.0293091 -0.19163 -2.32657e-24)
(-0.0188739 -0.181592 2.20473e-28)
(0.00402747 -0.173276 -4.32335e-24)
(0.02729 -0.159895 -5.06388e-24)
(-0.0478692 -0.18402 4.3478e-25)
(-0.0471289 -0.184655 3.36495e-29)
(-0.0444284 -0.192257 -3.19983e-25)
(-0.0459427 -0.193322 -2.686e-25)
(-0.0591182 -0.192143 -1.65324e-28)
(-0.0574253 -0.187481 -2.01847e-24)
(-0.0512383 -0.182451 2.94323e-24)
(-0.0505147 -0.17145 -3.74975e-24)
(-0.0431562 -0.182262 0)
(-0.0457396 -0.184593 1.10543e-24)
(-0.0557558 -0.188321 -4.71067e-25)
(-0.0702868 -0.188588 0)
(-0.0743113 -0.191238 1.20451e-25)
(-0.0779449 -0.186914 0)
(-0.0872886 -0.177859 1.40968e-24)
(-0.0961154 -0.164494 -2.05128e-24)
(-0.043531 -0.181878 4.37659e-25)
(-0.0483207 -0.182351 -3.20399e-29)
(-0.0527634 -0.186479 0)
(-0.0601937 -0.187717 3.42742e-25)
(-0.0713128 -0.188525 0)
(-0.0893266 -0.183237 -2.84373e-25)
(-0.10085 -0.177293 0)
(-0.106206 -0.168325 -2.16076e-24)
(-0.0455983 -0.180222 3.95807e-25)
(-0.0488968 -0.181094 -9.08797e-25)
(-0.0554787 -0.183577 0)
(-0.0649747 -0.183104 3.02451e-25)
(-0.0749246 -0.182984 0)
(-0.0856922 -0.178732 -1.22931e-28)
(-0.0956673 -0.172811 0)
(-0.107199 -0.162368 -6.72807e-25)
(-0.0430599 -0.179912 0)
(-0.0481374 -0.179975 -8.12695e-25)
(-0.0537302 -0.182166 3.69164e-25)
(-0.0620119 -0.18183 -2.52353e-25)
(-0.0713269 -0.181438 3.15204e-26)
(-0.0832078 -0.176334 1.74581e-25)
(-0.0936895 -0.169998 0)
(-0.103414 -0.161225 0)
(-0.0458403 -0.178119 -3.10789e-25)
(-0.0497078 -0.178231 -3.49231e-25)
(-0.0555454 -0.179588 3.10743e-25)
(-0.0636322 -0.178649 -2.04161e-25)
(-0.0725051 -0.177574 1.2889e-26)
(-0.0825474 -0.173105 0)
(-0.0914401 -0.167349 0)
(-0.10053 -0.158474 0)
(-0.0437948 -0.177472 1.23355e-29)
(-0.0489889 -0.176994 0)
(-0.0547836 -0.177845 0)
(-0.0625482 -0.17666 0)
(-0.071114 -0.175213 0)
(-0.0810979 -0.170437 0)
(-0.0901475 -0.164389 0)
(-0.0987211 -0.155929 0)
(-0.0446671 -0.176012 2.43747e-25)
(-0.0489483 -0.175558 0)
(-0.0545073 -0.175966 2.24427e-25)
(-0.0617719 -0.174545 0)
(-0.0699246 -0.172741 0)
(-0.0787576 -0.168292 0)
(-0.0870833 -0.162582 3.58678e-25)
(-0.0949996 -0.154682 0)
(-0.0445964 -0.174805 0)
(-0.0496117 -0.173906 0)
(-0.0552259 -0.17382 -5.03146e-29)
(-0.0623137 -0.172058 0)
(-0.0701121 -0.169897 -4.40325e-26)
(-0.0786042 -0.165286 0)
(-0.0864824 -0.159494 6.95588e-25)
(-0.0939478 -0.151629 0)
(-0.0434906 -0.173757 0)
(-0.0480687 -0.172845 0)
(-0.0535692 -0.17246 -1.53581e-25)
(-0.0602493 -0.170597 0)
(-0.0677336 -0.168226 -5.8646e-26)
(-0.0755939 -0.163824 0)
(-0.083196 -0.158194 3.35405e-25)
(-0.0902236 -0.150898 0)
(-0.0445912 -0.172163 7.86159e-26)
(-0.0493242 -0.170962 7.99167e-26)
(-0.0547478 -0.170194 0)
(-0.0612572 -0.168036 0)
(-0.068248 -0.165401 0)
(-0.0757154 -0.16089 -9.4215e-26)
(-0.0827701 -0.155253 0)
(-0.0893936 -0.147944 -2.18215e-25)
(-0.0427181 -0.17133 6.71501e-26)
(-0.0472817 -0.170044 6.59408e-26)
(-0.0526974 -0.169032 0)
(-0.0589008 -0.166817 0)
(-0.0656522 -0.164043 0)
(-0.0727036 -0.159686 -9.55508e-26)
(-0.0795429 -0.154204 0)
(-0.0858359 -0.147383 -2.09405e-25)
(-0.04411 -0.169622 0)
(-0.0484454 -0.168174 0)
(-0.0538457 -0.16682 -3.42421e-26)
(-0.0597826 -0.164413 3.66052e-27)
(-0.0661435 -0.161431 -4.68801e-26)
(-0.0728251 -0.156974 0)
(-0.0791891 -0.15149 1.53727e-25)
(-0.0851333 -0.14464 0)
(-0.042043 -0.168825 -4.51297e-26)
(-0.0463607 -0.1673 0)
(-0.0516416 -0.165752 -2.32205e-26)
(-0.0573751 -0.163321 -5.63729e-27)
(-0.063542 -0.160259 -5.17087e-26)
(-0.0698813 -0.155936 0)
(-0.0760535 -0.150611 1.50143e-25)
(-0.0817366 -0.144171 0)
(-0.043148 -0.167182 -3.53649e-26)
(-0.04749 -0.165471 0)
(-0.0525638 -0.163673 1.34933e-26)
(-0.058097 -0.16107 1.39062e-26)
(-0.0639603 -0.157851 0)
(-0.0699773 -0.153445 0)
(-0.0757447 -0.148111 0)
(-0.0811262 -0.141639 0)
(-0.0410537 -0.166389 0)
(-0.0453897 -0.164613 2.13702e-26)
(-0.0503461 -0.162685 4.45804e-27)
(-0.0556695 -0.16007 4.28568e-26)
(-0.0613644 -0.15682 6.01499e-26)
(-0.0671115 -0.152538 0)
(-0.0726966 -0.147359 0)
(-0.077864 -0.141233 -1.82955e-25)
(-0.0419994 -0.164787 0)
(-0.0462979 -0.162853 2.49118e-26)
(-0.0511044 -0.160731 3.73453e-27)
(-0.0562573 -0.157968 2.11244e-29)
(-0.0616865 -0.154585 1.27786e-25)
(-0.0671799 -0.150242 -1.01104e-25)
(-0.0724133 -0.14506 0)
(-0.0773131 -0.138899 -1.77966e-25)
(-0.0399023 -0.163993 5.46417e-27)
(-0.0441219 -0.162019 4.31635e-27)
(-0.0488261 -0.159815 1.12497e-26)
(-0.0538373 -0.157041 -3.44059e-26)
(-0.0590855 -0.153662 6.72889e-26)
(-0.0643694 -0.149441 -1.02046e-25)
(-0.0694536 -0.144408 0)
(-0.0741576 -0.13854 0)
(-0.0405632 -0.162456 1.84239e-27)
(-0.0447953 -0.160329 0)
(-0.0493997 -0.157958 9.11232e-27)
(-0.0542764 -0.155069 0)
(-0.0593077 -0.151587 -3.51148e-26)
(-0.0643833 -0.147306 0)
(-0.0691819 -0.142289 6.8585e-26)
(-0.0736476 -0.1364 0)
(-0.0385613 -0.161606 0)
(-0.0425907 -0.159486 0)
(-0.0470203 -0.157084 1.23271e-26)
(-0.0517786 -0.154217 0)
(-0.0567226 -0.150753 -7.31347e-26)
(-0.0616335 -0.146572 5.17171e-26)
(-0.0663119 -0.1417 1.06294e-29)
(-0.0706143 -0.136068 0)
(-0.0387937 -0.160199 4.33686e-27)
(-0.0429078 -0.157916 0)
(-0.0473112 -0.155323 0)
(-0.0519902 -0.152305 0)
(-0.0568268 -0.148782 -3.81059e-26)
(-0.0616522 -0.1446 1.04127e-25)
(-0.0660963 -0.139758 -1.0043e-29)
(-0.0702099 -0.134135 8.09073e-26)
(-0.037221 -0.159308 1.02437e-26)
(-0.041 -0.15704 0)
(-0.0450517 -0.154446 8.71081e-27)
(-0.049368 -0.151448 0)
(-0.0541278 -0.147947 1.95942e-26)
(-0.059007 -0.143911 5.23708e-26)
(-0.0634857 -0.139202 9.88313e-26)
(-0.0675336 -0.133793 7.92326e-26)
(-0.0370758 -0.15814 4.6582e-27)
(-0.0408826 -0.155753 0)
(-0.0450135 -0.152977 3.25547e-30)
(-0.0493519 -0.149767 0)
(-0.0539946 -0.146054 1.9778e-26)
(-0.0588867 -0.141928 0)
(-0.0634155 -0.137356 3.2594e-26)
(-0.0674927 -0.132062 0)
(-0.0361489 -0.157224 0)
(-0.039628 -0.154876 0)
(-0.0432906 -0.152172 -1.67729e-26)
(-0.0471668 -0.149021 0)
(-0.0514809 -0.145303 -1.01905e-26)
(-0.0560803 -0.141205 0)
(-0.0609993 -0.136708 1.61697e-26)
(-0.0655482 -0.131597 0)
(-0.0361118 -0.156067 0)
(-0.0396517 -0.153614 0)
(-0.0435164 -0.150751 -7.20743e-27)
(-0.0475211 -0.147454 0)
(-0.0516347 -0.143647 -1.20371e-26)
(-0.0557592 -0.139469 0)
(-0.0602193 -0.134895 1.79188e-26)
(-0.0649288 -0.129999 0)
(-0.034906 -0.152949 0)
(-0.0385185 -0.150254 0)
(-0.042359 -0.147158 0)
(-0.0461935 -0.143701 0)
(-0.0501181 -0.139745 0)
(-0.0538684 -0.135354 0)
(-0.0577481 -0.130462 0)
(-0.0615456 -0.125323 0)
(-0.0305568 -0.148563 0)
(-0.0333183 -0.145915 0)
(-0.0360961 -0.142977 0)
(-0.0387701 -0.139789 0)
(-0.0414436 -0.136253 0)
(-0.043979 -0.132336 0)
(-0.0463506 -0.127918 0)
(-0.0485233 -0.122866 0)
(-0.027426 -0.144703 0)
(-0.0301762 -0.141936 0)
(-0.0329735 -0.138867 0)
(-0.0358013 -0.135452 0)
(-0.0386931 -0.131658 0)
(-0.041548 -0.12759 0)
(-0.0444604 -0.123307 0)
(-0.0472041 -0.118974 0)
(-0.023318 -0.14133 0)
(-0.0254024 -0.138602 0)
(-0.0274368 -0.135627 0)
(-0.0294211 -0.132382 0)
(-0.0312881 -0.12883 0)
(-0.0330214 -0.124908 0)
(-0.0345914 -0.120622 0)
(-0.0360214 -0.115932 0)
(-0.0199316 -0.13851 0)
(-0.0218809 -0.135777 0)
(-0.0238489 -0.132782 0)
(-0.0258307 -0.129532 0)
(-0.0278187 -0.126033 0)
(-0.0297701 -0.122336 0)
(-0.0316892 -0.118467 0)
(-0.0335089 -0.114476 0)
(-0.0159347 -0.136142 0)
(-0.017347 -0.133428 0)
(-0.0187178 -0.13046 0)
(-0.0200517 -0.12725 0)
(-0.02131 -0.123801 0)
(-0.0224361 -0.120058 0)
(-0.0234417 -0.116027 0)
(-0.0243468 -0.111696 0)
(-0.0124233 -0.134271 0)
(-0.0136512 -0.131566 0)
(-0.0148966 -0.128635 0)
(-0.0161056 -0.125497 0)
(-0.0173287 -0.122188 0)
(-0.0185791 -0.118727 0)
(-0.0198303 -0.115092 0)
(-0.0210298 -0.111289 0)
(-0.00848362 -0.132961 0)
(-0.00916884 -0.130294 0)
(-0.00982204 -0.127399 0)
(-0.0104633 -0.124247 0)
(-0.0111007 -0.12083 0)
(-0.0117145 -0.11717 0)
(-0.0123075 -0.113326 0)
(-0.012882 -0.109348 0)
(-0.00575877 -0.131998 0)
(-0.00636167 -0.129301 0)
(-0.00697649 -0.126367 0)
(-0.00759141 -0.123214 0)
(-0.00817366 -0.119869 0)
(-0.00872617 -0.116358 0)
(-0.00921766 -0.112702 0)
(-0.00966137 -0.108935 0)
(-0.00279044 -0.131619 0)
(-0.00284851 -0.128999 0)
(-0.00285836 -0.126164 0)
(-0.00281287 -0.12312 0)
(-0.0027182 -0.119871 0)
(-0.00257466 -0.116432 0)
(-0.00239938 -0.112792 0)
(-0.0022218 -0.108923 0)
(-0.00983403 5.95739e-06 0)
(-0.0116836 -1.06912e-07 0)
(-0.0129407 -1.17676e-06 0)
(-0.0137645 -9.41644e-07 0)
(-0.0141155 -1.29422e-06 0)
(-0.0143469 -2.74989e-06 0)
(-0.0143348 -2.60392e-06 0)
(-0.0143221 -3.13377e-06 0)
(-0.014175 -3.63412e-06 0)
(-0.01402 -4.1354e-06 0)
(-0.0137367 -5.35088e-06 0)
(-0.0133752 -6.44557e-06 0)
(-0.0128389 -7.55331e-06 0)
(-0.0121484 -8.00862e-06 0)
(-0.0114039 -6.7419e-06 0)
(-0.0106482 -7.03729e-06 0)
(-0.0101591 -5.80667e-06 0)
(-0.00982778 -4.32567e-06 0)
(-0.00991587 -1.28382e-06 0)
(-0.0104014 8.68924e-07 0)
(-0.0113423 3.35523e-07 0)
(-0.0124148 3.95416e-07 0)
(-0.0133496 -5.46218e-07 0)
(-0.0141515 -1.05138e-06 0)
(-0.0147478 -1.91777e-06 0)
(-0.0152308 -1.62217e-06 0)
(-0.0161258 1.13786e-06 0)
(-0.0173561 3.98084e-06 0)
(-0.0192773 8.18804e-06 0)
(-0.0224256 1.29125e-05 0)
(-0.0260417 1.3395e-05 0)
(-0.0290437 8.2914e-06 0)
(-0.0306474 2.20247e-06 0)
(-0.031298 -1.48904e-06 0)
(-0.0315035 -2.20097e-06 0)
(-0.0317916 -1.19606e-06 0)
(-0.0322324 -5.41104e-07 0)
(-0.0326887 -8.25831e-07 0)
(-0.0329572 -1.85012e-06 0)
(-0.0329896 -3.32496e-06 0)
(-0.0328284 -3.87285e-06 0)
(-0.0325657 -4.34729e-06 0)
(-0.0321999 -5.00608e-06 0)
(-0.0316405 -6.1951e-06 0)
(-0.0308354 -7.48297e-06 0)
(-0.0299187 -7.51689e-06 0)
(-0.0290863 -6.84477e-06 0)
(-0.0283924 -6.30936e-06 0)
(-0.027656 -7.02547e-06 0)
(-0.0265722 -9.45166e-06 0)
(-0.0248745 -1.23666e-05 0)
(-0.0226457 -1.41543e-05 0)
(-0.0203877 -1.30352e-05 0)
(-0.0186171 -9.8411e-06 0)
(-0.0175628 -6.11211e-06 0)
(-0.0171822 -3.15839e-06 0)
(-0.0171334 -2.22249e-06 0)
(-0.0170777 -2.88885e-06 0)
(-0.0168253 -4.36511e-06 0)
(-0.0162663 -6.11632e-06 0)
(-0.0153415 -8.12542e-06 0)
(-0.0139968 -1.0182e-05 0)
(-0.0122853 -1.15341e-05 0)
(-0.0104162 -1.17344e-05 0)
(-0.00861613 -1.10005e-05 0)
(-0.0070267 -9.65392e-06 0)
(-0.00570609 -8.21735e-06 0)
(-0.00464764 -6.92654e-06 0)
(-0.00380059 -6.03208e-06 0)
(-0.00307904 -5.57647e-06 0)
(-0.00237609 -5.66694e-06 0)
(-0.00158164 -6.31275e-06 0)
(-0.000604202 -7.40872e-06 0)
(0.000615816 -8.93225e-06 0)
(0.00211354 -1.03191e-05 0)
(0.00389074 -1.15182e-05 0)
(0.00589363 -1.24658e-05 0)
(0.00804004 -1.29625e-05 0)
(0.0102117 -1.2959e-05 0)
(0.0122931 -1.23275e-05 0)
(0.0142093 -1.13426e-05 0)
(0.0159092 -1.016e-05 0)
(0.017382 -9.0154e-06 0)
(0.0186567 -8.06008e-06 0)
(0.0197802 -7.40676e-06 0)
(0.0208186 -7.04015e-06 0)
(0.0218264 -6.91395e-06 0)
(0.0228621 -7.29174e-06 0)
(0.023956 -7.62255e-06 0)
(0.0251212 -8.03956e-06 0)
(0.0263756 -8.57416e-06 0)
(0.0277105 -9.02962e-06 0)
(0.0291143 -9.31006e-06 0)
(0.0305609 -9.18013e-06 0)
(0.03201 -9.16612e-06 0)
(0.0334117 -8.86596e-06 0)
(0.0347219 -8.27712e-06 0)
(0.0358944 -7.35074e-06 0)
(0.0368951 -6.69117e-06 0)
(0.0376974 -5.64923e-06 0)
(0.0382884 -4.53374e-06 0)
(0.0386711 -3.43998e-06 0)
(0.0388598 -2.42723e-06 0)
(0.0388795 -1.40017e-06 0)
(0.0387645 -8.72711e-07 0)
(0.0385535 -4.10513e-07 0)
(0.0382845 -2.20056e-07 0)
(0.0379955 -2.71066e-07 0)
(0.0377244 -4.74293e-07 0)
(0.0375051 -8.10437e-07 0)
(0.0373641 -1.21702e-06 0)
(0.0373198 -1.78762e-06 0)
(0.0373782 -2.3408e-06 0)
(0.0375359 -2.55402e-06 0)
(0.0377754 -2.97042e-06 0)
(0.0380643 -3.142e-06 0)
(0.0383568 -3.0302e-06 0)
(0.038599 -2.43259e-06 0)
(0.0387341 -1.7151e-06 0)
(0.0387042 -8.07874e-07 0)
(0.0384486 4.27209e-07 0)
(0.0379074 1.95805e-06 0)
(0.0370205 3.77097e-06 0)
(0.0357318 6.06653e-06 0)
(0.0339925 8.62228e-06 0)
(0.031768 1.10533e-05 0)
(0.0290391 1.35699e-05 0)
(0.0258031 1.61161e-05 0)
(0.0220745 1.85083e-05 0)
(0.0178856 2.07474e-05 0)
(0.0132862 2.27207e-05 0)
(0.008337 2.433e-05 0)
(0.00310666 2.53733e-05 0)
(-0.00230318 2.57426e-05 0)
(-0.0077639 2.56628e-05 0)
(-0.0131681 2.4988e-05 0)
(-0.0184078 2.36699e-05 0)
(-0.0233547 2.17616e-05 0)
(-0.0278849 1.9257e-05 0)
(-0.0318846 1.61876e-05 0)
(-0.035249 1.26058e-05 0)
(-0.0378893 8.61492e-06 0)
(-0.0397351 4.35308e-06 0)
(-0.0407322 -1.15094e-07 0)
(-0.0408509 -4.5807e-06 0)
(-0.0400761 -9.35019e-06 0)
(-0.0384064 -1.40368e-05 0)
(-0.0358634 -1.85563e-05 0)
(-0.0324872 -2.28533e-05 0)
(-0.0283363 -2.67827e-05 0)
(-0.0234871 -3.0126e-05 0)
(-0.0180379 -3.2925e-05 0)
(-0.0121172 -3.4967e-05 0)
(-0.00589526 -3.60288e-05 0)
(0.000439452 -3.59306e-05 0)
(0.00659761 -3.43865e-05 0)
(-0.00984686 4.67539e-05 0)
(-0.0116992 3.17858e-05 0)
(-0.0129565 2.2919e-05 0)
(-0.0137804 1.27951e-05 0)
(-0.0141316 7.38208e-06 0)
(-0.014363 4.83222e-06 0)
(-0.0143509 2.38309e-06 0)
(-0.0143381 1.23648e-06 0)
(-0.0141911 4.05159e-07 0)
(-0.0140361 -5.87547e-07 0)
(-0.0137528 -1.42218e-06 0)
(-0.0133913 -3.06924e-06 0)
(-0.012855 -5.22152e-06 0)
(-0.0121645 -7.02875e-06 0)
(-0.0114199 -8.73316e-06 0)
(-0.0106642 -6.01451e-06 0)
(-0.0101751 -2.88272e-06 0)
(-0.00984379 1.25342e-06 0)
(-0.00993184 6.82884e-06 0)
(-0.0104173 1.3975e-05 0)
(-0.0113582 2.01324e-05 0)
(-0.0124306 2.09792e-05 0)
(-0.0133653 1.8246e-05 0)
(-0.0141672 1.55392e-05 0)
(-0.0147635 1.34306e-05 0)
(-0.0152465 1.41964e-05 0)
(-0.0161415 2.17829e-05 0)
(-0.0173718 2.83574e-05 0)
(-0.019293 4.2075e-05 0)
(-0.0224413 5.57338e-05 0)
(-0.0260577 5.75324e-05 0)
(-0.0290598 4.00466e-05 0)
(-0.0306634 2.10939e-05 0)
(-0.0313141 8.88614e-06 0)
(-0.0315195 6.0883e-06 0)
(-0.0318076 8.20277e-06 0)
(-0.0322485 1.03083e-05 0)
(-0.0327048 8.73559e-06 0)
(-0.0329733 5.1144e-06 0)
(-0.0330057 1.68682e-06 0)
(-0.0328444 -8.22088e-07 0)
(-0.0325818 -1.99748e-06 0)
(-0.032216 -4.12175e-06 0)
(-0.0316566 -7.72295e-06 0)
(-0.0308515 -1.13351e-05 0)
(-0.0299348 -1.18529e-05 0)
(-0.0291023 -9.9803e-06 0)
(-0.0284085 -8.62372e-06 0)
(-0.0276722 -1.09647e-05 0)
(-0.0265884 -1.83608e-05 0)
(-0.0248906 -2.77896e-05 0)
(-0.0226618 -3.31455e-05 0)
(-0.0204037 -3.01886e-05 0)
(-0.0186332 -2.06832e-05 0)
(-0.0175788 -9.44761e-06 0)
(-0.0171982 -9.66904e-07 0)
(-0.0171495 1.87844e-06 0)
(-0.0170938 1.5039e-07 0)
(-0.0168414 -4.06871e-06 0)
(-0.0162824 -9.40925e-06 0)
(-0.0153576 -1.54829e-05 0)
(-0.0140129 -2.16813e-05 0)
(-0.0123014 -2.59779e-05 0)
(-0.0104322 -2.68345e-05 0)
(-0.00863219 -2.47217e-05 0)
(-0.00704275 -2.09588e-05 0)
(-0.00572213 -1.67552e-05 0)
(-0.0046637 -1.30648e-05 0)
(-0.00381666 -1.04215e-05 0)
(-0.00309512 -9.33166e-06 0)
(-0.00239217 -9.96229e-06 0)
(-0.00159774 -1.21354e-05 0)
(-0.000620309 -1.55034e-05 0)
(0.000599703 -1.94293e-05 0)
(0.00209742 -2.37771e-05 0)
(0.00387462 -2.78109e-05 0)
(0.00587752 -3.07236e-05 0)
(0.00802395 -3.2198e-05 0)
(0.0101956 -3.16555e-05 0)
(0.0122771 -2.96693e-05 0)
(0.0141933 -2.66103e-05 0)
(0.0158931 -2.31175e-05 0)
(0.017366 -1.9794e-05 0)
(0.0186406 -1.70738e-05 0)
(0.0197641 -1.52024e-05 0)
(0.0208025 -1.4317e-05 0)
(0.0218103 -1.42673e-05 0)
(0.022846 -1.4745e-05 0)
(0.0239399 -1.57776e-05 0)
(0.0251051 -1.71346e-05 0)
(0.0263595 -1.83901e-05 0)
(0.0276944 -1.95743e-05 0)
(0.0290982 -2.05101e-05 0)
(0.0305448 -2.11865e-05 0)
(0.0319939 -2.07887e-05 0)
(0.0333956 -1.96856e-05 0)
(0.0347058 -1.7886e-05 0)
(0.0358783 -1.55536e-05 0)
(0.036879 -1.23239e-05 0)
(0.0376813 -9.05343e-06 0)
(0.0382723 -5.75604e-06 0)
(0.038655 -2.59554e-06 0)
(0.0388437 2.31293e-07 0)
(0.0388634 2.44366e-06 0)
(0.0387484 4.31285e-06 0)
(0.0385374 5.46533e-06 0)
(0.0382684 6.05622e-06 0)
(0.0379794 6.08157e-06 0)
(0.0377083 5.52921e-06 0)
(0.037489 4.50059e-06 0)
(0.037348 3.09732e-06 0)
(0.0373037 1.59128e-06 0)
(0.0373621 -1.6158e-08 0)
(0.0375198 -1.74631e-06 0)
(0.0377593 -2.75351e-06 0)
(0.0380482 -3.20197e-06 0)
(0.0383407 -2.8739e-06 0)
(0.0385829 -1.81149e-06 0)
(0.038718 3.77709e-07 0)
(0.0386881 3.56339e-06 0)
(0.0384325 7.61873e-06 0)
(0.0378913 1.26255e-05 0)
(0.0370045 1.85474e-05 0)
(0.0357157 2.50713e-05 0)
(0.0339765 3.21957e-05 0)
(0.031752 4.00041e-05 0)
(0.0290231 4.79594e-05 0)
(0.0257871 5.57644e-05 0)
(0.0220585 6.32523e-05 0)
(0.0178696 7.00608e-05 0)
(0.0132702 7.59374e-05 0)
(0.00832101 8.06687e-05 0)
(0.00309067 8.41749e-05 0)
(-0.00231917 8.62975e-05 0)
(-0.00777989 8.65767e-05 0)
(-0.0131841 8.49819e-05 0)
(-0.0184237 8.14715e-05 0)
(-0.0233707 7.59953e-05 0)
(-0.0279009 6.86748e-05 0)
(-0.0319006 5.96586e-05 0)
(-0.035265 4.91625e-05 0)
(-0.0379053 3.74308e-05 0)
(-0.039751 2.47112e-05 0)
(-0.0407482 1.13493e-05 0)
(-0.0408669 -2.42552e-06 0)
(-0.0400921 -1.63535e-05 0)
(-0.0384224 -3.00963e-05 0)
(-0.0358794 -4.33854e-05 0)
(-0.0325032 -5.58774e-05 0)
(-0.0283523 -6.72658e-05 0)
(-0.0235031 -7.73042e-05 0)
(-0.0180539 -8.54377e-05 0)
(-0.0121332 -9.12663e-05 0)
(-0.00591119 -9.429e-05 0)
(0.000423536 -9.38157e-05 0)
(0.00658173 -8.90531e-05 0)
(-0.00985793 5.93399e-05 0)