/*--------------------------------*- C++ -*----------------------------------*\
| =========                 |                                                 |
| \\      /  F ield         | OpenFOAM: The Open Source CFD Toolbox           |
|  \\    /   O peration     | Version:  v1912                                 |
|   \\  /    A nd           | Website:  www.openfoam.com                      |
|    \\/     M anipulation  |                                                 |
\*---------------------------------------------------------------------------*/
FoamFile
{
    version     2.0;
    format      ascii;
    class       volVectorField;
    location    "40";
    object      U;
}
// * * * * * * * * * * * * * * * * * * * * * * * * * * * * * * * * * * * * * //

dimensions      [0 1 -1 0 0 0 0];


internalField   nonuniform List<vector> 
114144
(
(1.39645 0.119827 0)
(1.44105 0.0829037 0)
(1.51048 0.051809 0)
(1.54569 0.0230659 0)
(1.54739 -0.00428758 0)
(1.51503 -0.029134 0)
(1.45006 -0.0502257 0)
(1.35647 -0.0664689 0)
(1.24025 -0.077293 0)
(1.10841 -0.0828192 0)
(0.967537 -0.0838065 0)
(0.822475 -0.08058 0)
(0.681492 -0.0703591 0)
(0.55107 -0.0605079 0)
(0.429754 -0.0537258 0)
(0.314584 -0.0496443 0)
(0.202096 -0.0488616 0)
(0.0910522 -0.0517137 0)
(-0.0265551 -0.0563816 0)
(-0.157558 -0.0620233 0)
(-0.297627 -0.0684025 0)
(-0.444283 -0.0734729 0)
(-0.595206 -0.0760614 0)
(-0.745592 -0.075332 0)
(-0.889438 -0.0708002 0)
(-1.02006 -0.0623723 0)
(-1.13071 -0.0503461 0)
(-1.21523 -0.03535 0)
(-1.26857 -0.0182444 0)
(-1.28719 -4.51935e-05 0)
(-1.26901 0.0181093 0)
(-1.21382 0.0352791 0)
(-1.12309 0.0507319 0)
(-0.999757 0.0639102 0)
(-0.84802 0.0744371 0)
(-0.672997 0.0820955 0)
(-0.480617 0.0867675 0)
(-0.272142 0.0886389 0)
(-0.0765824 0.0834808 0)
(0.120307 0.0825978 0)
(0.322695 0.07473 0)
(0.497221 0.0649688 0)
(0.650207 0.0530323 0)
(0.775161 0.0396917 0)
(0.868944 0.0256526 0)
(0.929616 0.0117766 0)
(0.957601 -0.000469544 0)
(0.954616 -0.012544 0)
(0.923665 -0.0213748 0)
(0.869293 -0.027611 0)
(0.796503 -0.0312294 0)
(0.710331 -0.0325687 0)
(0.615231 -0.0322263 0)
(0.514506 -0.0309901 0)
(0.409984 -0.0297213 0)
(0.301881 -0.0291959 0)
(0.189666 -0.0298689 0)
(0.0688764 -0.0322177 0)
(-0.0565298 -0.0332728 0)
(-0.1879 -0.0376407 0)
(-0.329063 -0.0402318 0)
(-0.472502 -0.041507 0)
(-0.614219 -0.0407418 0)
(-0.747689 -0.0374727 0)
(-0.86555 -0.0315557 0)
(-0.960395 -0.0232604 0)
(-1.02568 -0.0131831 0)
(-1.05679 -0.00239676 0)
(-1.05127 0.00868505 0)
(-1.00903 0.0184703 0)
(-0.933235 0.0263411 0)
(-0.829003 0.0317882 0)
(-0.703162 0.0347451 0)
(-0.563123 0.0360156 0)
(-0.414591 0.0363161 0)
(-0.261315 0.0340251 0)
(-0.116538 0.0298403 0)
(0.0165015 0.0282854 0)
(0.149475 0.0266784 0)
(0.278515 0.0249967 0)
(0.399829 0.0241286 0)
(0.516891 0.0238093 0)
(0.629787 0.0236638 0)
(0.73777 0.0231977 0)
(0.838667 0.0219441 0)
(0.92917 0.0195568 0)
(1.00521 0.0158747 0)
(1.06262 0.0109481 0)
(1.09766 0.00502605 0)
(1.10739 -0.00148813 0)
(1.09081 -0.00801814 0)
(1.04823 -0.0141537 0)
(0.981274 -0.0194114 0)
(0.893083 -0.0234918 0)
(0.787672 -0.0262759 0)
(0.66937 -0.0278209 0)
(0.542775 -0.028365 0)
(0.408361 -0.0286208 0)
(0.270789 -0.0254053 0)
(0.141036 -0.024608 0)
(0.0234661 -0.0231534 0)
(-0.0994877 -0.0226652 0)
(-0.223993 -0.0211314 0)
(-0.336261 -0.0196721 0)
(-0.441622 -0.0178805 0)
(-0.536748 -0.0156946 0)
(-0.620212 -0.0130108 0)
(-0.689993 -0.00983448 0)
(-0.744336 -0.00625314 0)
(-0.782144 -0.0024588 0)
(-0.802792 0.00143876 0)
(-0.807226 0.00451709 0)
(-0.796834 0.0070218 0)
(-0.773652 0.00902074 0)
(-0.740661 0.0101112 0)
(-0.701547 0.0103121 0)
(-0.658772 0.0102451 0)
(-0.614882 0.00862696 0)
(-0.574865 0.00517694 0)
(-0.541087 0.0033851 0)
(-0.513093 0.0019072 0)
(-0.491264 -0.000792458 0)
(-0.47269 -0.00119749 0)
(-0.453073 -0.000805458 0)
(-0.430871 2.75064e-05 0)
(-0.403851 0.00136087 0)
(-0.369535 0.00308306 0)
(-0.325924 0.00503644 0)
(-0.271355 0.00706634 0)
(-0.20544 0.00898351 0)
(-0.127143 0.0107432 0)
(-0.0385906 0.0120662 0)
(0.0594161 0.0130707 0)
(0.166439 0.0138152 0)
(0.27869 0.0139897 0)
(0.393895 0.0137215 0)
(0.508688 0.0130054 0)
(0.619864 0.0118222 0)
(0.723708 0.0101649 0)
(0.816641 0.0080362 0)
(0.894945 0.0054691 0)
(0.955257 0.00252653 0)
(0.995192 -0.000689774 0)
(1.01123 -0.00417381 0)
(1.0037 -0.00690762 0)
(0.973407 -0.00946898 0)
(0.920034 -0.0113506 0)
(0.846181 -0.012365 0)
(0.756375 -0.0125164 0)
(0.649816 -0.0119294 0)
(0.533501 -0.00896597 0)
(0.418797 -0.00688944 0)
(0.306842 -0.00436021 0)
(0.198318 -0.00199601 0)
(0.0993857 8.88289e-05 0)
(0.00563273 0.00162862 0)
(-0.0846984 0.00205495 0)
(-0.166372 0.00235178 0)
(-0.243029 0.00234109 0)
(-0.315201 0.00230966 0)
(-0.38609 0.00250588 0)
(-0.454553 0.00316848 0)
(-0.523626 0.0041951 0)
(-0.585518 0.0057192 0)
(-0.643824 0.00699506 0)
(-0.695352 0.00825143 0)
(-0.729035 0.00871445 0)
(-0.748347 0.0083909 0)
(-0.745791 0.00724448 0)
(-0.723005 0.00491787 0)
(-0.678861 0.00202302 0)
(-0.615646 -0.00133997 0)
(-0.535829 -0.00478294 0)
(-0.445019 -0.00798093 0)
(-0.348751 -0.0105611 0)
(-0.250686 -0.0124148 0)
(-0.155315 -0.0134311 0)
(-0.0670126 -0.0135836 0)
(0.0131305 -0.0128273 0)
(0.0815902 -0.0113376 0)
(0.134927 -0.00923162 0)
(0.172716 -0.00667652 0)
(0.194289 -0.00388844 0)
(0.20048 -0.00104528 0)
(0.192348 0.00153037 0)
(0.171784 0.00387375 0)
(0.141094 0.00582696 0)
(0.102944 0.00726299 0)
(0.0598539 0.00822913 0)
(0.0135191 0.00868046 0)
(-0.033124 0.00867172 0)
(-0.078462 0.00815138 0)
(-0.118232 0.00712957 0)
(-0.151749 0.00575306 0)
(-0.175292 0.00370886 0)
(-0.186492 0.00142726 0)
(-0.184855 -0.00128539 0)
(-0.16657 -0.00427911 0)
(-0.13309 -0.00718155 0)
(-0.0843654 -0.0100717 0)
(-0.0203375 -0.0125469 0)
(0.055617 -0.0144789 0)
(0.139976 -0.0157723 0)
(0.230064 -0.0162437 0)
(0.318537 -0.0157102 0)
(0.404045 -0.0147217 0)
(0.479721 -0.0124077 0)
(0.543352 -0.00999548 0)
(0.590028 -0.00636133 0)
(0.619042 -0.00301822 0)
(0.626665 0.0015614 0)
(0.613775 0.00521861 0)
(0.579627 0.00988175 0)
(0.522608 0.0133984 0)
(0.449093 0.0171387 0)
(0.355202 0.0200612 0)
(0.250186 0.0224439 0)
(0.132104 0.0242641 0)
(0.00683486 0.0253031 0)
(-0.123687 0.0258241 0)
(-0.254947 0.0256802 0)
(-0.384246 0.0250275 0)
(-0.509146 0.0239068 0)
(-0.627406 0.0223986 0)
(-0.737083 0.0205067 0)
(-0.836466 0.0183769 0)
(-0.923988 0.0158906 0)
(-0.998169 0.0132017 0)
(-1.05762 0.0102207 0)
(-1.10088 0.00702797 0)
(-1.12683 0.00362373 0)
(-1.13406 -0.000209686 0)
(-1.12036 -0.00408383 0)
(-1.08598 -0.00808155 0)
(-1.03033 -0.0121092 0)
(-0.953527 -0.0160407 0)
(-0.856339 -0.0197562 0)
(-0.740482 -0.0231032 0)
(-0.608158 -0.0259514 0)
(-0.462461 -0.028164 0)
(-0.307301 -0.0296366 0)
(-0.146729 -0.0302943 0)
(0.0170799 -0.0301037 0)
(0.176532 -0.0290532 0)
(0.328096 -0.0272038 0)
(0.467568 -0.0246753 0)
(0.591943 -0.0214054 0)
(0.697097 -0.0171615 0)
(0.782443 -0.0105252 0)
(0.8346 -0.012892 0)
(1.34118 0.0276388 0)
(1.43493 0.000988934 0)
(1.51029 -0.00686741 0)
(1.54808 -0.00193866 0)
(1.55058 0.00897069 0)
(1.51819 0.0224687 0)
(1.45261 0.0359229 0)
(1.35805 0.047523 0)
(1.24065 0.05614 0)
(1.10754 0.0612172 0)
(0.965811 0.0629051 0)
(0.822026 0.0632933 0)
(0.682075 0.0686947 0)
(0.550332 0.0740317 0)
(0.428106 0.0772252 0)
(0.312848 0.0779493 0)
(0.200304 0.0781222 0)
(0.0895946 0.0776998 0)
(-0.0273348 0.079084 0)
(-0.158301 0.0828303 0)
(-0.298736 0.0857312 0)
(-0.445814 0.0880881 0)
(-0.597517 0.0889086 0)
(-0.748984 0.0871124 0)
(-0.894076 0.0818491 0)
(-1.02596 0.0726447 0)
(-1.13773 0.0594404 0)
(-1.2231 0.0425626 0)
(-1.27693 0.0226629 0)
(-1.2957 0.00077772 0)
(-1.27731 -0.0216932 0)
(-1.2215 -0.0436442 0)
(-1.12977 -0.0641445 0)
(-1.00511 -0.0823954 0)
(-0.851773 -0.0977427 0)
(-0.674948 -0.109659 0)
(-0.480542 -0.11776 0)
(-0.271442 -0.121424 0)
(-0.0726769 -0.127978 0)
(0.127366 -0.117206 0)
(0.33016 -0.110113 0)
(0.506436 -0.0981724 0)
(0.660595 -0.0832209 0)
(0.786322 -0.0657227 0)
(0.880329 -0.0466174 0)
(0.940876 -0.0269667 0)
(0.967581 -0.00752463 0)
(0.962913 0.00968986 0)
(0.930546 0.0249343 0)
(0.874259 0.0374597 0)
(0.799632 0.0470825 0)
(0.711901 0.0540459 0)
(0.615671 0.0589147 0)
(0.5143 0.0624281 0)
(0.409571 0.0653275 0)
(0.3016 0.0682119 0)
(0.189551 0.0715404 0)
(0.0697163 0.0749105 0)
(-0.0559772 0.0816687 0)
(-0.188565 0.0843723 0)
(-0.330472 0.0874716 0)
(-0.475876 0.0882369 0)
(-0.620143 0.085568 0)
(-0.756481 0.0785799 0)
(-0.877155 0.0668828 0)
(-0.974353 0.0506715 0)
(-1.04121 0.0307179 0)
(-1.07267 0.00828673 0)
(-1.06626 -0.0148796 0)
(-1.02208 -0.0371841 0)
(-0.943311 -0.0569488 0)
(-0.835465 -0.0729058 0)
(-0.705565 -0.0842643 0)
(-0.561409 -0.0904631 0)
(-0.410184 -0.0915391 0)
(-0.255983 -0.0908162 0)
(-0.109786 -0.0920405 0)
(0.0240835 -0.0855695 0)
(0.155947 -0.0798517 0)
(0.283847 -0.0764018 0)
(0.404436 -0.0735661 0)
(0.521159 -0.0712028 0)
(0.634301 -0.0686586 0)
(0.743149 -0.065175 0)
(0.845427 -0.0599725 0)
(0.937604 -0.0524207 0)
(1.01531 -0.0421944 0)
(1.07404 -0.029358 0)
(1.10979 -0.0143756 0)
(1.11944 0.00201451 0)
(1.10191 0.0186198 0)
(1.05762 0.0346041 0)
(0.988364 0.0489346 0)
(0.897554 0.0608996 0)
(0.789476 0.070102 0)
(0.668694 0.0764064 0)
(0.53984 0.0799762 0)
(0.404802 0.0805724 0)
(0.266321 0.0841544 0)
(0.135129 0.0828565 0)
(0.0170778 0.080902 0)
(-0.106115 0.0760167 0)
(-0.230615 0.0727782 0)
(-0.343389 0.0682373 0)
(-0.449332 0.0628501 0)
(-0.545145 0.0561944 0)
(-0.629249 0.0482193 0)
(-0.69947 0.0389687 0)
(-0.753891 0.0286938 0)
(-0.79124 0.0178543 0)
(-0.811072 0.0071571 0)
(-0.814241 -0.00289867 0)
(-0.801811 -0.0119178 0)
(-0.776356 -0.0188614 0)
(-0.74114 -0.0235235 0)
(-0.699779 -0.0257461 0)
(-0.655493 -0.025046 0)
(-0.611371 -0.0235095 0)
(-0.570748 -0.0225012 0)
(-0.536427 -0.0198823 0)
(-0.509729 -0.0171509 0)
(-0.489092 -0.0159862 0)
(-0.471293 -0.0141063 0)
(-0.453285 -0.0137741 0)
(-0.43265 -0.0156385 0)
(-0.406843 -0.0194892 0)
(-0.373309 -0.0250443 0)
(-0.329984 -0.0319179 0)
(-0.275201 -0.0395995 0)
(-0.208589 -0.0476533 0)
(-0.12924 -0.0553589 0)
(-0.0393068 -0.0626693 0)
(0.060414 -0.0688656 0)
(0.169245 -0.0733157 0)
(0.283338 -0.0762264 0)
(0.400478 -0.0771551 0)
(0.51719 -0.0758357 0)
(0.630203 -0.072106 0)
(0.735725 -0.0658391 0)
(0.830066 -0.0569958 0)
(0.909366 -0.0456857 0)
(0.970107 -0.0321559 0)
(1.00968 -0.0167799 0)
(1.02462 -0.000127304 0)
(1.01523 0.0161881 0)
(0.981903 0.0322922 0)
(0.924908 0.0469637 0)
(0.846901 0.0592742 0)
(0.752729 0.0684811 0)
(0.642861 0.0739574 0)
(0.523495 0.0782378 0)
(0.406231 0.0779013 0)
(0.293406 0.0751849 0)
(0.185099 0.0703682 0)
(0.0873615 0.0648629 0)
(-0.00486208 0.0593428 0)
(-0.0933858 0.0537165 0)
(-0.173336 0.0498571 0)
(-0.248981 0.0472971 0)
(-0.320825 0.0457251 0)
(-0.391961 0.0445581 0)
(-0.461045 0.0431255 0)
(-0.530631 0.0405186 0)
(-0.592748 0.0363738 0)
(-0.650573 0.029408 0)
(-0.700894 0.0210133 0)
(-0.732762 0.0101985 0)
(-0.749806 -0.0019021 0)
(-0.744796 -0.0152038 0)
(-0.719846 -0.0273935 0)
(-0.673762 -0.0384771 0)
(-0.609282 -0.0473077 0)
(-0.528918 -0.0535447 0)
(-0.43812 -0.0573335 0)
(-0.342378 -0.058453 0)
(-0.245255 -0.0570233 0)
(-0.151057 -0.0533808 0)
(-0.0639796 -0.0479646 0)
(0.0150102 -0.0409163 0)
(0.0824558 -0.0328962 0)
(0.134994 -0.0242198 0)
(0.172242 -0.015384 0)
(0.193584 -0.00679706 0)
(0.199784 0.00136301 0)
(0.191847 0.00855211 0)
(0.171602 0.0146215 0)
(0.141154 0.0195372 0)
(0.103062 0.0230376 0)
(0.0598562 0.0252986 0)
(0.013244 0.0261401 0)
(-0.0337919 0.0257305 0)
(-0.0795798 0.0238456 0)
(-0.119782 0.02049 0)
(-0.153718 0.016065 0)
(-0.177593 0.00964338 0)
(-0.188963 0.0025306 0)
(-0.187454 -0.00601294 0)
(-0.169144 -0.0151651 0)
(-0.135499 -0.0239841 0)
(-0.0865185 -0.0327043 0)
(-0.0220952 -0.0401956 0)
(0.0543426 -0.0460464 0)
(0.139268 -0.0499931 0)
(0.230006 -0.0514643 0)
(0.319102 -0.0499047 0)
(0.405235 -0.0469409 0)
(0.481478 -0.0400372 0)
(0.545607 -0.0327743 0)
(0.592655 -0.0219148 0)
(0.622033 -0.0118396 0)
(0.629823 0.00127239 0)
(0.616962 0.0118361 0)
(0.582698 0.0254492 0)
(0.525448 0.0359018 0)
(0.451668 0.0470032 0)
(0.35735 0.055778 0)
(0.251912 0.0629995 0)
(0.133341 0.0685908 0)
(0.00758211 0.0718611 0)
(-0.123387 0.0736191 0)
(-0.255088 0.0734136 0)
(-0.384766 0.0717066 0)
(-0.51 0.0686238 0)
(-0.628552 0.0644148 0)
(-0.738494 0.0590258 0)
(-0.838118 0.0529237 0)
(-0.925871 0.045707 0)
(-1.00027 0.037841 0)
(-1.05993 0.0290371 0)
(-1.10339 0.0195572 0)
(-1.12952 0.00939344 0)
(-1.13691 -0.00215198 0)
(-1.12334 -0.0137952 0)
(-1.08901 -0.0257888 0)
(-1.03335 -0.0378837 0)
(-0.956429 -0.049722 0)
(-0.859021 -0.0609123 0)
(-0.742841 -0.0709965 0)
(-0.610085 -0.0795731 0)
(-0.463864 -0.0862384 0)
(-0.308124 -0.0906659 0)
(-0.14691 -0.0926516 0)
(0.0175452 -0.0920923 0)
(0.177614 -0.0889506 0)
(0.32976 -0.0834019 0)
(0.469711 -0.0757513 0)
(0.594563 -0.0660572 0)
(0.70095 -0.0552999 0)
(0.791243 -0.0423412 0)
(0.850576 -0.0251565 0)
(1.30655 0.0106092 0)
(1.42949 -0.00720228 0)
(1.51037 -0.0114467 0)
(1.55187 -0.00192631 0)
(1.55588 0.0152299 0)
(1.52358 0.0362862 0)
(1.45709 0.0569792 0)
(1.36106 0.0746133 0)
(1.24199 0.0877066 0)
(1.10735 0.0958133 0)
(0.964684 0.0995911 0)
(0.82107 0.100862 0)
(0.68204 0.101295 0)
(0.550802 0.1026 0)
(0.427726 0.104184 0)
(0.311348 0.104882 0)
(0.198312 0.104898 0)
(0.0875304 0.103472 0)
(-0.0287502 0.103241 0)
(-0.159446 0.10633 0)
(-0.300291 0.108734 0)
(-0.447885 0.110036 0)
(-0.600391 0.109188 0)
(-0.752911 0.105155 0)
(-0.899187 0.0971738 0)
(-1.03224 0.0849057 0)
(-1.14502 0.0684693 0)
(-1.23114 0.0483896 0)
(-1.2853 0.0255031 0)
(-1.30376 0.00100456 0)
(-1.28446 -0.0236445 0)
(-1.22742 -0.0472517 0)
(-1.13424 -0.0688607 0)
(-1.00803 -0.0876803 0)
(-0.853118 -0.103101 0)
(-0.67474 -0.114681 0)
(-0.478821 -0.122189 0)
(-0.26949 -0.125477 0)
(-0.0685489 -0.130132 0)
(0.133349 -0.118208 0)
(0.335624 -0.110303 0)
(0.512454 -0.0977338 0)
(0.666687 -0.0825016 0)
(0.792227 -0.0651135 0)
(0.885764 -0.0465366 0)
(0.945504 -0.0277632 0)
(0.971568 -0.0100388 0)
(0.966112 0.00661242 0)
(0.932666 0.0208905 0)
(0.875596 0.0326612 0)
(0.8003 0.0418233 0)
(0.712054 0.0486262 0)
(0.615457 0.0535546 0)
(0.513825 0.0572082 0)
(0.408883 0.060169 0)
(0.300704 0.0628912 0)
(0.188371 0.0657017 0)
(0.0684937 0.068232 0)
(-0.0575245 0.0728978 0)
(-0.190645 0.0746551 0)
(-0.332743 0.0760419 0)
(-0.478397 0.0754667 0)
(-0.622827 0.0721421 0)
(-0.759195 0.0655079 0)
(-0.87974 0.0553478 0)
(-0.976651 0.0418658 0)
(-1.04306 0.0256865 0)
(-1.07404 0.00790368 0)
(-1.06711 -0.0106129 0)
(-1.02239 -0.0282973 0)
(-0.943171 -0.0440827 0)
(-0.834976 -0.0570641 0)
(-0.704945 -0.0666738 0)
(-0.560794 -0.0730065 0)
(-0.409597 -0.0761269 0)
(-0.256433 -0.0772597 0)
(-0.109638 -0.0813287 0)
(0.0259252 -0.077603 0)
(0.157598 -0.0731789 0)
(0.285461 -0.0706559 0)
(0.40633 -0.0680352 0)
(0.523245 -0.0653686 0)
(0.636472 -0.0622487 0)
(0.745259 -0.0582413 0)
(0.847335 -0.0528798 0)
(0.939193 -0.0457723 0)
(1.0165 -0.0367093 0)
(1.0748 -0.0257286 0)
(1.11012 -0.0131323 0)
(1.11941 0.000605547 0)
(1.10162 0.0145575 0)
(1.05712 0.0282335 0)
(0.98776 0.0408179 0)
(0.896892 0.0517285 0)
(0.788772 0.0605786 0)
(0.667954 0.0671743 0)
(0.53896 0.0716124 0)
(0.404374 0.0735959 0)
(0.266059 0.0776697 0)
(0.1342 0.0787535 0)
(0.0153694 0.0777482 0)
(-0.10795 0.0729044 0)
(-0.232106 0.0702269 0)
(-0.344914 0.06601 0)
(-0.450691 0.0610692 0)
(-0.546294 0.0549783 0)
(-0.630112 0.0477705 0)
(-0.700022 0.0394978 0)
(-0.754137 0.0303648 0)
(-0.791273 0.0207442 0)
(-0.810757 0.0110923 0)
(-0.813745 0.00207419 0)
(-0.801548 -0.00588338 0)
(-0.776229 -0.0126785 0)
(-0.741155 -0.0176429 0)
(-0.699924 -0.0206475 0)
(-0.655804 -0.0215138 0)
(-0.611985 -0.0212699 0)
(-0.571823 -0.0206644 0)
(-0.537679 -0.0204903 0)
(-0.510467 -0.0200707 0)
(-0.489149 -0.0189496 0)
(-0.470929 -0.0177139 0)
(-0.452636 -0.0176212 0)
(-0.431744 -0.0192447 0)
(-0.405671 -0.0225954 0)
(-0.371897 -0.0275007 0)
(-0.328371 -0.0336859 0)
(-0.273452 -0.0407234 0)
(-0.206728 -0.0482993 0)
(-0.127344 -0.0556029 0)
(-0.0374392 -0.0629565 0)
(0.0622973 -0.0689623 0)
(0.171074 -0.0736854 0)
(0.284999 -0.0768701 0)
(0.401933 -0.0782145 0)
(0.518368 -0.0773779 0)
(0.63101 -0.0742021 0)
(0.73607 -0.0685595 0)
(0.829864 -0.0604144 0)
(0.90856 -0.0498755 0)
(0.968703 -0.0371617 0)
(1.00778 -0.0226124 0)
(1.02228 -0.00645372 0)
(1.01273 0.00920507 0)
(0.979547 0.0254746 0)
(0.922899 0.0409024 0)
(0.845542 0.0546599 0)
(0.75204 0.0660546 0)
(0.642983 0.0740804 0)
(0.524352 0.081502 0)
(0.407286 0.0843205 0)
(0.294294 0.0843568 0)
(0.185581 0.0816659 0)
(0.0872369 0.0778081 0)
(-0.00581798 0.0727713 0)
(-0.094908 0.0670263 0)
(-0.174987 0.0626725 0)
(-0.250437 0.0597023 0)
(-0.321704 0.0580388 0)
(-0.39195 0.0573197 0)
(-0.460075 0.057013 0)
(-0.528863 0.0558606 0)
(-0.590602 0.0535103 0)
(-0.648629 0.0476316 0)
(-0.699592 0.0396999 0)
(-0.732559 0.0277515 0)
(-0.751122 0.0128171 0)
(-0.74745 -0.00478982 0)
(-0.723268 -0.0229281 0)
(-0.677923 -0.0407371 0)
(-0.613565 -0.0567657 0)
(-0.532875 -0.0697898 0)
(-0.44143 -0.0794014 0)
(-0.344651 -0.0850684 0)
(-0.246282 -0.086523 0)
(-0.150823 -0.0840046 0)
(-0.0625351 -0.0779543 0)
(0.017485 -0.0685498 0)
(0.0856673 -0.0568018 0)
(0.138745 -0.043282 0)
(0.176244 -0.028844 0)
(0.197634 -0.0143013 0)
(0.203707 -0.000431895 0)
(0.195407 0.0120879 0)
(0.174629 0.0229473 0)
(0.143531 0.0318482 0)
(0.104701 0.0382718 0)
(0.0607155 0.0424615 0)
(0.0133007 0.0441611 0)
(-0.0345411 0.0436608 0)
(-0.0811045 0.0406236 0)
(-0.122005 0.0350937 0)
(-0.156652 0.027787 0)
(-0.181201 0.0171652 0)
(-0.193117 0.00540552 0)
(-0.192044 -0.00871977 0)
(-0.173791 -0.0239811 0)
(-0.139975 -0.0386883 0)
(-0.090608 -0.0532867 0)
(-0.0254656 -0.065829 0)
(0.0519211 -0.0756031 0)
(0.137967 -0.0822002 0)
(0.230016 -0.0846676 0)
(0.320346 -0.0820204 0)
(0.40773 -0.0770908 0)
(0.485095 -0.0654919 0)
(0.550226 -0.0533596 0)
(0.597986 -0.0351412 0)
(0.627854 -0.0183126 0)
(0.635784 0.00386561 0)
(0.623046 0.0215534 0)
(0.58862 0.0443584 0)
(0.530885 0.0617536 0)
(0.456578 0.0802546 0)
(0.361387 0.0948605 0)
(0.255109 0.106822 0)
(0.135573 0.116092 0)
(0.00885058 0.121476 0)
(-0.122997 0.124335 0)
(-0.255563 0.123923 0)
(-0.385967 0.121005 0)
(-0.511845 0.115791 0)
(-0.630967 0.108698 0)
(-0.741407 0.0996457 0)
(-0.84149 0.0894277 0)
(-0.929694 0.0773364 0)
(-1.00451 0.0641889 0)
(-1.06459 0.0494867 0)
(-1.10843 0.0336421 0)
(-1.13494 0.0166906 0)
(-1.14268 -0.00257325 0)
(-1.12932 -0.0220075 0)
(-1.09511 -0.0420525 0)
(-1.0394 -0.0622687 0)
(-0.962256 -0.0820545 0)
(-0.864411 -0.100766 0)
(-0.747579 -0.117636 0)
(-0.613943 -0.131996 0)
(-0.466683 -0.143151 0)
(-0.309739 -0.150574 0)
(-0.147269 -0.153902 0)
(0.0185002 -0.152955 0)
(0.179808 -0.147697 0)
(0.333102 -0.138407 0)
(0.474056 -0.125611 0)
(0.599781 -0.109743 0)
(0.707017 -0.0913568 0)
(0.795366 -0.0686336 0)
(0.858339 -0.0485753 0)
(1.28618 -0.0173869 0)
(1.42755 -0.0225438 0)
(1.51294 -0.0180227 0)
(1.55826 -0.0028113 0)
(1.56441 0.0202146 0)
(1.5326 0.0480034 0)
(1.46503 0.074778 0)
(1.36703 0.0973545 0)
(1.24563 0.114078 0)
(1.10878 0.124568 0)
(0.964377 0.129609 0)
(0.819343 0.130803 0)
(0.679452 0.129455 0)
(0.548186 0.127326 0)
(0.425737 0.125537 0)
(0.309854 0.125563 0)
(0.196453 0.12641 0)
(0.0855512 0.126555 0)
(-0.029803 0.12678 0)
(-0.159915 0.131163 0)
(-0.301174 0.135045 0)
(-0.449561 0.137358 0)
(-0.60326 0.136734 0)
(-0.757269 0.131935 0)
(-0.905168 0.122069 0)
(-1.03978 0.106746 0)
(-1.1539 0.0861242 0)
(-1.24098 0.0608689 0)
(-1.29565 0.0321154 0)
(-1.31421 0.00107789 0)
(-1.2946 -0.0309198 0)
(-1.23679 -0.0624604 0)
(-1.14245 -0.0921748 0)
(-1.01476 -0.118873 0)
(-0.858102 -0.141565 0)
(-0.677835 -0.159479 0)
(-0.479991 -0.172139 0)
(-0.269616 -0.179418 0)
(-0.0651794 -0.185128 0)
(0.139507 -0.172513 0)
(0.342112 -0.162328 0)
(0.520677 -0.145359 0)
(0.676042 -0.12384 0)
(0.802332 -0.0985144 0)
(0.896115 -0.0707334 0)
(0.955591 -0.0420038 0)
(0.980777 -0.0138779 0)
(0.974179 0.0115446 0)
(0.939435 0.0347747 0)
(0.880785 0.0540472 0)
(0.803969 0.0691683 0)
(0.714415 0.0804195 0)
(0.616834 0.0885302 0)
(0.514586 0.094512 0)
(0.40937 0.099449 0)
(0.301181 0.104279 0)
(0.18887 0.109673 0)
(0.0695002 0.115339 0)
(-0.056697 0.123635 0)
(-0.190736 0.129025 0)
(-0.333633 0.133228 0)
(-0.480809 0.133892 0)
(-0.627201 0.129433 0)
(-0.765779 0.118633 0)
(-0.888515 0.100931 0)
(-0.987302 0.0765878 0)
(-1.055 0.0466974 0)
(-1.08648 0.0132124 0)
(-1.07915 -0.0217803 0)
(-1.03316 -0.055551 0)
(-0.951929 -0.0857709 0)
(-0.841219 -0.110557 0)
(-0.708439 -0.128734 0)
(-0.56162 -0.139977 0)
(-0.408342 -0.144815 0)
(-0.254455 -0.145181 0)
(-0.106496 -0.145286 0)
(0.0305656 -0.13953 0)
(0.161874 -0.131961 0)
(0.289021 -0.126972 0)
(0.409623 -0.122591 0)
(0.526484 -0.118653 0)
(0.640042 -0.114216 0)
(0.749577 -0.108151 0)
(0.852768 -0.0992879 0)
(0.945972 -0.0866728 0)
(1.02465 -0.0698042 0)
(1.08412 -0.0487583 0)
(1.12021 -0.024216 0)
(1.12967 0.00275402 0)
(1.11141 0.0301535 0)
(1.06586 0.0568437 0)
(0.994944 0.081106 0)
(0.902198 0.101753 0)
(0.792071 0.118067 0)
(0.669323 0.12979 0)
(0.538536 0.137232 0)
(0.403197 0.140606 0)
(0.264315 0.143926 0)
(0.13115 0.144712 0)
(0.0109147 0.14197 0)
(-0.112828 0.134536 0)
(-0.236923 0.129114 0)
(-0.350362 0.121436 0)
(-0.456743 0.11221 0)
(-0.553068 0.100756 0)
(-0.637568 0.0869886 0)
(-0.708017 0.0709861 0)
(-0.762393 0.0531614 0)
(-0.799385 0.0342791 0)
(-0.818414 0.0154715 0)
(-0.820373 -0.00257278 0)
(-0.80667 -0.0180029 0)
(-0.779724 -0.0307391 0)
(-0.74283 -0.039662 0)
(-0.699802 -0.0445456 0)
(-0.654295 -0.045369 0)
(-0.60971 -0.0435681 0)
(-0.569229 -0.0402339 0)
(-0.535101 -0.0363937 0)
(-0.508157 -0.032546 0)
(-0.487301 -0.029195 0)
(-0.469915 -0.0269356 0)
(-0.452919 -0.027252 0)
(-0.433403 -0.0309135 0)
(-0.408531 -0.0379514 0)
(-0.375653 -0.0480036 0)
(-0.332628 -0.0604593 0)
(-0.277804 -0.0744541 0)
(-0.210704 -0.0892265 0)
(-0.130699 -0.103438 0)
(-0.0396871 -0.117259 0)
(0.0614728 -0.128423 0)
(0.171753 -0.137274 0)
(0.287369 -0.142941 0)
(0.40612 -0.145009 0)
(0.524452 -0.142912 0)
(0.638993 -0.136328 0)
(0.745887 -0.125003 0)
(0.841344 -0.108847 0)
(0.921406 -0.0880593 0)
(0.982471 -0.063062 0)
(1.02188 -0.0345874 0)
(1.0359 -0.00334367 0)
(1.02517 0.0269077 0)
(0.98994 0.0574713 0)
(0.930575 0.0855703 0)
(0.84995 0.109637 0)
(0.752807 0.128405 0)
(0.640995 0.140648 0)
(0.519528 0.149536 0)
(0.399593 0.150981 0)
(0.285024 0.147456 0)
(0.175715 0.139666 0)
(0.0776468 0.130356 0)
(-0.0147995 0.119962 0)
(-0.102679 0.109665 0)
(-0.1813 0.101958 0)
(-0.25569 0.0968558 0)
(-0.32639 0.0938159 0)
(-0.396547 0.0918872 0)
(-0.465069 0.0898751 0)
(-0.534431 0.0858726 0)
(-0.596902 0.0790872 0)
(-0.655403 0.0666211 0)
(-0.70639 0.0508875 0)
(-0.739121 0.0296222 0)
(-0.756634 0.00478946 0)
(-0.751686 -0.0229568 0)
(-0.726209 -0.0499996 0)
(-0.679165 -0.0752046 0)
(-0.613196 -0.0964609 0)
(-0.531141 -0.112613 0)
(-0.438585 -0.12332 0)
(-0.34098 -0.128143 0)
(-0.242061 -0.127146 0)
(-0.146312 -0.120886 0)
(-0.0578393 -0.110141 0)
(0.0222622 -0.0952356 0)
(0.0903896 -0.0776846 0)
(0.143362 -0.0581799 0)
(0.180781 -0.0378362 0)
(0.202018 -0.0176397 0)
(0.207842 0.00150347 0)
(0.199254 0.0186104 0)
(0.178101 0.0334169 0)
(0.146457 0.0454847 0)
(0.10686 0.0541744 0)
(0.0619637 0.0598667 0)
(0.0135093 0.0621229 0)
(-0.0354994 0.0613588 0)
(-0.083282 0.0570061 0)
(-0.125346 0.0491656 0)
(-0.161164 0.0387983 0)
(-0.186763 0.0237245 0)
(-0.199395 0.00706931 0)
(-0.198952 -0.0129321 0)
(-0.180873 -0.0345518 0)
(-0.146816 -0.0553377 0)
(-0.0968707 -0.0760037 0)
(-0.0306365 -0.0937764 0)
(0.048185 -0.107567 0)
(0.13591 -0.116926 0)
(0.229927 -0.120472 0)
(0.322136 -0.11671 0)
(0.411404 -0.109837 0)
(0.490473 -0.0934343 0)
(0.557103 -0.0763995 0)
(0.605948 -0.0506777 0)
(0.636833 -0.0270308 0)
(0.645149 0.00433665 0)
(0.632461 0.0293235 0)
(0.597662 0.0616715 0)
(0.539176 0.0862267 0)
(0.464039 0.112375 0)
(0.367498 0.133011 0)
(0.259923 0.149812 0)
(0.1389 0.162851 0)
(0.0106985 0.170327 0)
(-0.122479 0.174257 0)
(-0.256352 0.17356 0)
(-0.387852 0.169336 0)
(-0.514687 0.161926 0)
(-0.634649 0.151915 0)
(-0.745829 0.139134 0)
(-0.846589 0.12482 0)
(-0.935456 0.107843 0)
(-1.01089 0.0894371 0)
(-1.0716 0.0688343 0)
(-1.11602 0.046633 0)
(-1.14305 0.022913 0)
(-1.15131 -0.00408752 0)
(-1.13831 -0.031373 0)
(-1.10428 -0.0595155 0)
(-1.04851 -0.0879281 0)
(-0.97103 -0.115758 0)
(-0.872531 -0.142089 0)
(-0.754717 -0.165854 0)
(-0.619789 -0.186085 0)
(-0.470933 -0.20181 0)
(-0.312208 -0.212277 0)
(-0.147827 -0.216954 0)
(0.0199209 -0.215614 0)
(0.183101 -0.208207 0)
(0.338113 -0.195113 0)
(0.480579 -0.177107 0)
(0.607542 -0.154706 0)
(0.715997 -0.129289 0)
(0.806726 -0.100638 0)
(0.872881 -0.0679994 0)
(1.27922 -0.0508631 0)
(1.42983 -0.0430445 0)
(1.51824 -0.0283335 0)
(1.56637 -0.00668781 0)
(1.57462 0.0230381 0)
(1.54315 0.0559071 0)
(1.47409 0.086888 0)
(1.37376 0.112848 0)
(1.24973 0.132081 0)
(1.11043 0.144185 0)
(0.964126 0.14993 0)
(0.818066 0.150998 0)
(0.677803 0.14982 0)
(0.546445 0.147605 0)
(0.424216 0.145604 0)
(0.308847 0.144937 0)
(0.195843 0.1464 0)
(0.0847969 0.149518 0)
(-0.0299462 0.151534 0)
(-0.159324 0.15829 0)
(-0.301045 0.164465 0)
(-0.450393 0.168622 0)
(-0.605571 0.169001 0)
(-0.761473 0.164033 0)
(-0.911503 0.152569 0)
(-1.04827 0.134061 0)
(-1.16434 0.108637 0)
(-1.25297 0.0770679 0)
(-1.30867 0.0407068 0)
(-1.32764 0.00115777 0)
(-1.30781 -0.0397118 0)
(-1.24918 -0.0800468 0)
(-1.1535 -0.118086 0)
(-1.02402 -0.152298 0)
(-0.865254 -0.18141 0)
(-0.68266 -0.204441 0)
(-0.482417 -0.220762 0)
(-0.270242 -0.230129 0)
(-0.0618088 -0.235043 0)
(0.146059 -0.221597 0)
(0.349641 -0.207946 0)
(0.530389 -0.18614 0)
(0.687288 -0.158368 0)
(0.814615 -0.125717 0)
(0.908802 -0.0899185 0)
(0.968011 -0.052929 0)
(0.992175 -0.0168154 0)
(0.984269 0.015728 0)
(0.947975 0.0454945 0)
(0.887377 0.069981 0)
(0.808689 0.0889946 0)
(0.71752 0.102913 0)
(0.618727 0.112706 0)
(0.515737 0.119734 0)
(0.410222 0.12548 0)
(0.302079 0.13125 0)
(0.189915 0.137945 0)
(0.0709498 0.145486 0)
(-0.0553376 0.154957 0)
(-0.190186 0.162703 0)
(-0.334171 0.168246 0)
(-0.483121 0.169207 0)
(-0.631777 0.163582 0)
(-0.772887 0.149869 0)
(-0.898117 0.127404 0)
(-0.999033 0.096562 0)
(-1.0682 0.0587797 0)
(-1.10025 0.0165836 0)
(-1.09254 -0.0274054 0)
(-1.04519 -0.0697088 0)
(-0.961825 -0.10741 0)
(-0.848449 -0.138177 0)
(-0.712833 -0.160602 0)
(-0.563339 -0.174449 0)
(-0.407874 -0.180482 0)
(-0.25285 -0.180625 0)
(-0.103796 -0.178431 0)
(0.0346079 -0.172114 0)
(0.165861 -0.163151 0)
(0.292395 -0.156776 0)
(0.412777 -0.151288 0)
(0.529624 -0.146406 0)
(0.643547 -0.140955 0)
(0.753849 -0.133496 0)
(0.858161 -0.122563 0)
(0.952701 -0.106984 0)
(1.03274 -0.0861626 0)
(1.09335 -0.0602244 0)
(1.1302 -0.0300315 0)
(1.13988 0.00304703 0)
(1.12126 0.0366545 0)
(1.07476 0.0693082 0)
(1.00243 0.0989399 0)
(0.90795 0.124111 0)
(0.79596 0.143964 0)
(0.671412 0.158226 0)
(0.539006 0.167286 0)
(0.402666 0.171732 0)
(0.263288 0.174187 0)
(0.129091 0.175392 0)
(0.00720531 0.171945 0)
(-0.117028 0.163439 0)
(-0.241085 0.156681 0)
(-0.355128 0.147365 0)
(-0.462054 0.136158 0)
(-0.559025 0.122301 0)
(-0.644131 0.105679 0)
(-0.715062 0.0863892 0)
(-0.769682 0.0649223 0)
(-0.806632 0.0422188 0)
(-0.825148 0.0194888 0)
(-0.826204 -0.00163017 0)
(-0.81152 -0.0202317 0)
(-0.783319 -0.0357029 0)
(-0.744971 -0.0466283 0)
(-0.700528 -0.0527767 0)
(-0.653833 -0.0543089 0)
(-0.608484 -0.052392 0)
(-0.567659 -0.0483183 0)
(-0.533453 -0.0434007 0)
(-0.506552 -0.0384741 0)
(-0.485939 -0.0342913 0)
(-0.469143 -0.0318601 0)
(-0.453024 -0.0324608 0)
(-0.434484 -0.0368464 0)
(-0.410507 -0.0451012 0)
(-0.378336 -0.0568292 0)
(-0.335755 -0.0713335 0)
(-0.281098 -0.0876331 0)
(-0.213825 -0.104824 0)
(-0.133467 -0.121407 0)
(-0.0417604 -0.137511 0)
(0.0603475 -0.150431 0)
(0.171629 -0.16089 0)
(0.2884 -0.167535 0)
(0.408376 -0.170004 0)
(0.527991 -0.16766 0)
(0.643803 -0.160138 0)
(0.751915 -0.147164 0)
(0.84847 -0.12865 0)
(0.929442 -0.104844 0)
(0.991156 -0.0762299 0)
(1.03089 -0.0436129 0)
(1.04489 -0.00762509 0)
(1.03381 0.0269532 0)
(0.997758 0.0624286 0)
(0.937182 0.0953906 0)
(0.855045 0.12405 0)
(0.755988 0.147034 0)
(0.642438 0.162725 0)
(0.519352 0.173486 0)
(0.397577 0.176629 0)
(0.281397 0.173588 0)
(0.171005 0.165383 0)
(0.0722927 0.155131 0)
(-0.0205269 0.142903 0)
(-0.108034 0.131064 0)
(-0.185689 0.12185 0)
(-0.258964 0.11591 0)
(-0.328596 0.112737 0)
(-0.39787 0.11133 0)
(-0.465994 0.110327 0)
(-0.535506 0.107311 0)
(-0.598816 0.101258 0)
(-0.658739 0.0884319 0)
(-0.711315 0.0712197 0)
(-0.74574 0.0467049 0)
(-0.76509 0.0169332 0)
(-0.76131 -0.0174497 0)
(-0.735733 -0.0518692 0)
(-0.68815 -0.0848769 0)
(-0.6208 -0.113748 0)
(-0.536908 -0.136535 0)
(-0.442208 -0.152553 0)
(-0.342195 -0.161039 0)
(-0.240898 -0.161819 0)
(-0.143027 -0.155497 0)
(-0.0526809 -0.142949 0)
(0.0288527 -0.124519 0)
(0.097916 -0.102323 0)
(0.151424 -0.0772507 0)
(0.18896 -0.0507483 0)
(0.210024 -0.0243819 0)
(0.215374 0.000653192 0)
(0.206 0.0232408 0)
(0.183876 0.0428649 0)
(0.151093 0.0588597 0)
(0.110238 0.070405 0)
(0.0640085 0.0779135 0)
(0.014127 0.0809654 0)
(-0.0364032 0.0800538 0)
(-0.0857383 0.0744806 0)
(-0.129304 0.0644282 0)
(-0.166677 0.0511479 0)
(-0.193748 0.0317029 0)
(-0.207549 0.0102231 0)
(-0.208086 -0.0156955 0)
(-0.190266 -0.0438004 0)
(-0.155942 -0.0707658 0)
(-0.105252 -0.0976926 0)
(-0.0375774 -0.120901 0)
(0.0431947 -0.138767 0)
(0.133166 -0.151004 0)
(0.229832 -0.155705 0)
(0.324595 -0.150768 0)
(0.416378 -0.141974 0)
(0.497738 -0.120616 0)
(0.566379 -0.0986092 0)
(0.616684 -0.0651725 0)
(0.648689 -0.0346327 0)
(0.657423 0.00589605 0)
(0.644972 0.0379653 0)
(0.609757 0.07989 0)
(0.550293 0.111568 0)
(0.474043 0.145406 0)
(0.375709 0.172142 0)
(0.266396 0.193794 0)
(0.143394 0.210684 0)
(0.013203 0.220279 0)
(-0.121757 0.225316 0)
(-0.25738 0.224378 0)
(-0.390342 0.218875 0)
(-0.518456 0.209281 0)
(-0.63954 0.19639 0)
(-0.751707 0.179877 0)
(-0.853364 0.161528 0)
(-0.943125 0.139633 0)
(-1.0194 0.115987 0)
(-1.08094 0.0894894 0)
(-1.12614 0.0608922 0)
(-1.15389 0.0303994 0)
(-1.16288 -0.00442423 0)
(-1.15035 -0.0396423 0)
(-1.11657 -0.0759903 0)