/*--------------------------------*- C++ -*----------------------------------*\
| =========                 |                                                 |
| \\      /  F ield         | OpenFOAM: The Open Source CFD Toolbox           |
|  \\    /   O peration     | Version:  v1912                                 |
|   \\  /    A nd           | Website:  www.openfoam.com                      |
|    \\/     M anipulation  |                                                 |
\*---------------------------------------------------------------------------*/
FoamFile
{
    version     2.0;
    format      ascii;
    class       volScalarField;
    location    "10";
    object      p_rgh;
}
// * * * * * * * * * * * * * * * * * * * * * * * * * * * * * * * * * * * * * //

dimensions      [1 -1 -2 0 0 0 0];


internalField   nonuniform List<scalar> 
14268
(
-0.0493802
-0.0419347
-0.034484
-0.0269784
-0.0193691
-0.0116205
-0.0036381
0.00462828
0.0132386
0.0222567
0.0317489
0.0417862
0.0524437
0.0638014
0.0759437
0.0889609
0.102949
0.118009
0.134251
0.151791
0.170753
0.191268
0.213478
0.237535
0.263597
0.291838
0.32244
0.355597
0.391517
0.43042
0.472541
0.518128
0.567444
0.620767
0.678393
0.74063
0.807806
0.880263
0.958361
1.04248
1.133
1.23033
1.3349
1.44714
1.5675
1.69642
1.83439
1.98186
2.1393
2.30719
2.48599
2.67616
2.87812
3.09228
3.31904
3.55873
3.81165
4.07803
4.35803
4.65175
4.95917
5.28018
5.61454
5.96187
6.32165
6.69318
7.07558
7.4678
7.86853
8.27629
8.68935
9.10571
9.52318
9.93929
10.3513
10.7564
11.1514
11.533
11.8978
12.2423
12.563
12.8562
13.1188
13.3475
13.5388
13.6913
13.8025
13.8712
13.8968
13.8792
13.8197
13.7203
13.584
13.4151
13.2188
13.0009
12.7682
12.528
12.288
12.0556
11.838
11.641
11.4692
11.3251
11.2084
11.1166
11.044
10.9829
10.9243
10.8586
10.7768
10.6725
10.5433
10.393
10.23
10.067
9.91548
9.79293
9.7019
9.64784
9.61751
9.60693
9.59154
9.57049
9.53976
9.48944
9.43131
9.32746
9.1668
8.90102
8.46622
7.83651
6.88681
5.71204
-0.0500702
-0.0426595
-0.0352416
-0.027755
-0.0201323
-0.012337
-0.00433496
0.00394294
0.0125602
0.0215829
0.0310793
0.0411208
0.0517828
0.0631457
0.075294
0.088318
0.102314
0.117383
0.133635
0.151186
0.17016
0.19069
0.212916
0.236989
0.26307
0.291332
0.321956
0.355138
0.391085
0.430017
0.47217
0.517791
0.567144
0.620508
0.678177
0.740461
0.807688
0.880199
0.958356
1.04253
1.13312
1.23053
1.33518
1.4475
1.56794
1.69696
1.83502
1.98259
2.14014
2.30815
2.48707
2.67736
2.87945
3.09376
3.32066
3.5605
3.81357
4.0801
4.36027
4.65414
4.96173
5.2829
5.61742
5.96491
6.32484
6.69652
7.07907
7.47141
7.87226
8.28013
8.69326
9.1097
9.52721
9.94333
10.3554
10.7604
11.1553
11.5368
11.9014
12.2457
12.5661
12.859
13.121
13.3486
13.5411
13.6932
13.8041
13.8724
13.8974
13.8795
13.8195
13.7196
13.583
13.4137
13.217
12.9989
12.7659
12.5256
12.2855
12.0531
11.8355
11.6387
11.4671
11.3231
11.2067
11.115
11.0426
10.9817
10.9232
10.8576
10.7758
10.6714
10.5421
10.3916
10.2286
10.0655
9.91402
9.79157
9.70066
9.64675
9.61656
9.60606
9.59072
9.56968
9.53894
9.48863
9.43049
9.32663
9.16593
8.90006
8.46516
7.83534
6.88561
5.71087
-0.0486298
-0.0412041
-0.0337707
-0.026291
-0.0187381
-0.0110616
-0.00312959
0.0050966
0.0136751
0.0226662
0.0321341
0.04215
0.0527884
0.0641291
0.0762566
0.0892609
0.103238
0.11829
0.134525
0.15206
0.171019
0.191535
0.213748
0.237809
0.26388
0.292131
0.322747
0.355922
0.391864
0.430793
0.472943
0.518565
0.56792
0.621289
0.678966
0.741261
0.808502
0.881031
0.95921
1.04341
1.13403
1.23148
1.33616
1.44853
1.56903
1.69811
1.83624
1.98388
2.14152
2.30962
2.48864
2.67904
2.88126
3.0957
3.32274
3.56273
3.81596
4.08267
4.36301
4.65709
4.96487
5.28626
5.621
5.96872
6.32889
6.7008
7.08359
7.47618
7.87727
8.28537
8.69874
9.11539
9.5331
9.94941
10.3616
10.7668
11.1618
11.5434
11.9081
12.2524
12.5728
12.8657
13.128
13.3567
13.5462
13.6979
13.8083
13.8761
13.9007
13.8822
13.8217
13.7214
13.5842
13.4144
13.2173
12.9987
12.7655
12.5249
12.2846
12.0521
11.8345
11.6378
11.4664
11.3227
11.2067
11.1153
11.0432
10.9825
10.9242
10.8587
10.7768
10.6723
10.5428
10.3922
10.229
10.0658
9.91439
9.79205
9.70135
9.64763
9.61758
9.60716
9.59179
9.5707
9.53991
9.48954
9.43136
9.32741
9.1666
8.90052
8.46541
7.83529
6.8853
5.71036
-0.04951
-0.0421763
-0.0348329
-0.0274102
-0.0198293
-0.0120471
-0.0040693
0.00417433
0.0127532
0.021736
0.031193
0.0411948
0.0518179
0.0631423
0.0752527
0.0882393
0.102198
0.117231
0.133448
0.150964
0.169903
0.190399
0.212592
0.236633
0.262683
0.290915
0.321511
0.354666
0.390588
0.429498
0.471631
0.517236
0.566576
0.61993
0.677595
0.739879
0.807112
0.879637
0.957814
1.04202
1.13264
1.2301
1.3348
1.4472
1.56772
1.69684
1.83501
1.98271
2.14042
2.30859
2.4877
2.67819
2.88052
3.09508
3.32226
3.5624
3.8158
4.08269
4.36323
4.65752
4.96553
5.28716
5.62216
5.97016
6.33061
6.70282
7.08592
7.47881
7.88022
8.28864
8.70231
9.11926
9.53725
9.95382
10.3663
10.7716
11.1668
11.5485
11.9132
12.2574
12.5776
12.8703
13.1318
13.3584
13.551
13.7025
13.8126
13.8799
13.904
13.8849
13.8238
13.7227
13.5848
13.4144
13.2166
12.9974
12.7636
12.5225
12.2818
12.0491
11.8314
11.6346
11.4633
11.3198
11.204
11.1131
11.0414
10.9811
10.9231
10.8578
10.776
10.6715
10.5418
10.3909
10.2275
10.0641
9.91247
9.79017
9.6996
9.64611
9.61631
9.60607
9.59084
9.56978
9.539
9.48868
9.43056
9.32667
9.16589
8.89977
8.46461
7.83438
6.88434
5.70939
-0.0483432
-0.0409909
-0.0336272
-0.0262212
-0.0187559
-0.0111846
-0.00333995
0.00480619
0.0133108
0.0222301
0.0316266
0.0415721
0.0521406
0.0634115
0.0754692
0.0884036
0.10231
0.117291
0.133455
0.150918
0.169805
0.190247
0.212386
0.236372
0.262368
0.290544
0.321085
0.354184
0.39005
0.428904
0.470982
0.516531
0.565816
0.619118
0.67673
0.738965
0.80615
0.87863
0.956766
1.04093
1.13153
1.22895
1.33364
1.44602
1.56654
1.69566
1.83384
1.98157
2.13931
2.30753
2.48671
2.67729
2.87971
3.09438
3.3217
3.562
3.81558
4.08267
4.36344
4.65797
4.96627
5.28819
5.62352
5.97186
6.33269
6.70529
7.0888
7.48213
7.88399
8.29286
8.707
9.12442
9.54288
9.95991
10.3728
10.7786
11.1741
11.5562
11.9212
12.2658
12.5863
12.8792
13.1413
13.3702
13.5588
13.7096
13.8191
13.8859
13.9093
13.8895
13.8277
13.7258
13.5871
13.4159
13.2173
12.9973
12.7629
12.5213
12.2802
12.0472
11.8293
11.6326
11.4615
11.3184
11.2031
11.1127
11.0415
10.9816
10.924
10.8589
10.7772
10.6725
10.5426
10.3913
10.2276
10.0639
9.9123
9.7901
9.69982
9.6466
9.61707
9.60699
9.59174
9.57066
9.53981
9.48945
9.43131
9.32738
9.16654
8.90026
8.46492
7.8344
6.88411
5.70898
-0.0489537
-0.0417373
-0.0345101
-0.027198
-0.0197144
-0.012007
-0.00410763
0.00405019
0.0125385
0.0214299
0.0307948
0.0407033
0.0512321
0.062461
0.0744744
0.0873624
0.101221
0.116152
0.132264
0.149674
0.168505
0.188889
0.210969
0.234895
0.260827
0.288939
0.319413
0.352445
0.388242
0.427026
0.469032
0.51451
0.563723
0.616952
0.674493
0.736657
0.803773
0.876186
0.954256
1.03836
1.1289
1.22628
1.33091
1.44325
1.56374
1.69284
1.83102
1.97875
2.13651
2.30476
2.48398
2.67463
2.87714
3.09193
3.31938
3.55983
3.81359
4.0809
4.36191
4.65671
4.96531
5.28757
5.62325
5.97199
6.33324
6.7063
7.09029
7.48412
7.8865
8.29591
8.7106
9.12857
9.54757
9.96513
10.3785
10.7848
11.1808
11.5631
11.9285
12.2732
12.5937
12.8864
13.1478
13.3739
13.5661
13.717
13.8262
13.8926
13.9153
13.8948
13.8321
13.7293
13.5897
13.4174
13.2178
12.9969
12.7616
12.5192
12.2774
12.044
11.8258
11.629
11.458
11.3151
11.2002
11.1103
11.0397
10.9804
10.9233
10.8586
10.777
10.6723
10.5421
10.3905
10.2263
10.0623
9.91036
9.78815
9.69798
9.64509
9.61588
9.60606
9.59101
9.56997
9.53913
9.48884
9.43079
9.32697
9.16619
8.89989
8.46448
7.83379
6.88334
5.70807
-0.0480006
-0.0407723
-0.0335267
-0.0262368
-0.018891
-0.011463
-0.00374689
0.00427742
0.0126638
0.0214644
0.0307409
0.040566
0.0510126
0.06216
0.0740921
0.0868984
0.100674
0.115522
0.131549
0.148872
0.167614
0.187908
0.209896
0.233727
0.259564
0.287577
0.317951
0.35088
0.386573
0.425252
0.46715
0.512519
0.561624
0.614743
0.672174
0.73423
0.801238
0.873545
0.951512
1.03552
1.12596
1.22325
1.32781
1.44007
1.5605
1.68954
1.82768
1.97539
2.13313
2.3014
2.48065
2.67134
2.87393
3.08882
3.3164
3.55702
3.81097
4.0785
4.35978
4.65489
4.96383
5.28647
5.62258
5.97178
6.33354
6.70715
7.09172
7.48616
7.88919
8.29928
8.71466
9.13334
9.55306
9.97133
10.3854
10.7924
11.189
11.572
11.9379
12.2831
12.6041
12.8973
13.1595
13.3883
13.5767
13.7268
13.8354
13.901
13.923
13.9016
13.838
13.7341
13.5934
13.42
13.2192
12.9973
12.7609
12.5177
12.2752
12.0412
11.8227
11.6259
11.4551
11.3126
11.1983
11.1091
11.0392
10.9807
10.9242
10.8598
10.7784
10.6735
10.543
10.3908
10.2262
10.0618
9.90966
9.78753
9.69771
9.6452
9.61637
9.60681
9.59179
9.57072
9.53982
9.4895
9.43148
9.32766
9.16686
8.90045
8.46489
7.8339
6.88319
5.70775
-0.048393
-0.0413353
-0.0342677
-0.0271165
-0.0197905
-0.0122043
-0.00443364
0.00358722
0.0119337
0.0206825
0.0299029
0.0396645
0.0500437
0.06112
0.0729776
0.0857062
0.0994012
0.114164
0.130104
0.147337
0.165986
0.186183
0.20807
0.231797
0.257526
0.285428
0.315687
0.348499
0.384072
0.422627
0.464399
0.50964
0.558615
0.611603
0.668901
0.730824
0.7977
0.869876
0.947715
1.0316
1.12192
1.21909
1.32354
1.4357
1.55604
1.68501
1.82308
1.97074
2.12845
2.2967
2.47597
2.6667
2.86935
3.08434
3.31205
3.55283
3.80699
4.07476
4.35632
4.65176
4.96107
5.28413
5.62072
5.97043
6.33276
6.70698
7.09221
7.48735
7.89112
8.30197
8.71815
9.13763
9.55817
9.97725
10.3921
10.7998
11.1972
11.5808
11.9472
12.2929
12.6142
12.9074
13.1692
13.3953
13.5867
13.737
13.8453
13.9104
13.9316
13.9093
13.8446
13.7396
13.5976
13.4229
13.2209
12.9976
12.7601
12.5157
12.2724
12.0377
11.8188
11.6217
11.451
11.3088
11.195
11.1065
11.0374
10.9797
10.9239
10.86
10.7788
10.6739
10.543
10.3904
10.2251
10.0601
9.90766
9.78547
9.69581
9.6437
9.61528
9.60606
9.59125
9.57024
9.53935
9.48911
9.43121
9.32754
9.16684
8.90041
8.46479
7.83356
6.88262
5.70691
-0.047613
-0.0405589
-0.0334794
-0.0263483
-0.019154
-0.0119144
-0.00436703
0.00349488
0.0117191
0.0203544
0.0294629
0.0391176
0.0493903
0.06036
0.0721102
0.0847298
0.0983137
0.112963
0.128787
0.1459
0.164426
0.184497
0.206254
0.229848
0.25544
0.283201
0.313316
0.345979
0.381399
0.419798
0.461412
0.506491
0.555301
0.608122
0.665254
0.727008
0.793715
0.865724
0.943398
1.02712
1.11728
1.2143
1.3186
1.43064
1.55085
1.67971
1.81768
1.96526
2.12292
2.29114
2.4704
2.66115
2.86386
3.07893
3.30676
3.54771
3.80207
4.0701
4.35197
4.64777
4.95749
5.28102
5.61813
5.96843
6.33139
6.70631
7.09229
7.48824
7.89286
8.3046
8.72171
9.14215
9.56365
9.9837
10.3995
10.8082
11.2064
11.5909
11.9581
12.3044
12.6263
12.9202
13.1826
13.4112
13.5999
13.7495
13.8571
13.9214
13.9418
13.9185
13.8525
13.7462
13.6028
13.4267
13.2231
12.9984
12.7595
12.514
12.2696
12.0342
11.8148
11.6176
11.447
11.3053
11.1922
11.1046
11.0365
10.9797
10.9247
10.8614
10.7804
10.6753
10.544
10.3907
10.2247
10.0593
9.90647
9.78433
9.69505
9.64341
9.61551
9.60663
9.59192
9.57088
9.53994
9.4897
9.43186
9.32825
9.16758
8.90108
8.46533
7.83378
6.88256
5.70667
-0.0478296
-0.0409712
-0.0341052
-0.0271642
-0.0200703
-0.0126304
-0.00503682
0.0027954
0.0109498
0.0195058
0.0285301
0.0380924
0.0482682
0.0591366
0.0707811
0.0832909
0.0967609
0.111292
0.126993
0.143979
0.162373
0.182307
0.203923
0.22737
0.252809
0.280413
0.310366
0.342862
0.37811
0.416333
0.457767
0.502661
0.551283
0.603914
0.660852
0.722412
0.788925
0.860739
0.938219
1.02175
1.11173
1.20856
1.3127
1.42456
1.54463
1.67335
1.81121
1.95868
2.11626
2.28443
2.46366
2.65442
2.85717
3.07232
3.30028
3.54139
3.79598
4.06428
4.34647
4.64265
4.95282
5.27686
5.61455
5.96549
6.32916
6.70485
7.09167
7.48851
7.89408
8.30682
8.72496
9.14647
9.56906
9.99021
10.4071
10.8168
11.216
11.6014
11.9695
12.3166
12.639
12.9332
13.1956
13.4223
13.6128
13.7624
13.8697
13.9334
13.953
13.9285
13.8614
13.7536
13.6086
13.4309
13.2257
12.9994
12.759
12.5121
12.2665
12.0302
11.8102
11.6128
11.4422
11.3009
11.1885
11.1018
11.0347
10.9789
10.9248
10.8621
10.7814
10.6762
10.5445
10.3905
10.2238
10.0576
9.90436
9.78213
9.69307
9.64192
9.61451
9.60605
9.59157
9.57059
9.53965
9.48949
9.43181
9.32839
9.16784
8.90136
8.46553
7.8337
6.88218
5.7059
-0.0471866
-0.0403543
-0.0334871
-0.0265583
-0.0195674
-0.012546
-0.00520652
0.00245038
0.0104665
0.0188884
0.0277798
0.0372128
0.0472584
0.0579952
0.069506
0.0818792
0.0952091
0.109597
0.125149
0.141982
0.160219
0.17999
0.201438
0.224711
0.249972
0.277392
0.307154
0.339455
0.374502
0.412518
0.45374
0.498419
0.54682
0.599228
0.655939
0.71727
0.783553
0.855138
0.93239
1.01569
1.10545
1.20207
1.306
1.41767
1.53755
1.6661
1.80381
1.95116
2.10863
2.27672
2.45591
2.64666
2.84944
3.06466
3.29273
3.53402
3.78883
4.05741
4.33995
4.63655
4.9472
5.27179
5.6101
5.96175
6.3262
6.70274
7.09048
7.48832
7.89495
8.30881
8.72811
9.15082
9.57464
9.99702
10.4152
10.826
11.2264
11.6129
11.982
12.3299
12.6531
12.948
13.211
13.4393
13.6285
13.7776
13.8842
13.9471
13.9656
13.94
13.8714
13.7621
13.6154
13.4359
13.2289
13.0008
12.7587
12.5102
12.2634
12.0261
11.8054
11.6077
11.4373
11.2965
11.1849
11.0992
11.0333
10.9786
10.9255
10.8636
10.7832
10.6779
10.5456
10.3909
10.2233
10.0564
9.90272
9.7805
9.69184
9.64126
9.61448
9.60646
9.59215
9.57116
9.54017
9.49003
9.43245
9.32914
9.16868
8.90214
8.46622
7.83405
6.88221
5.70573
-0.0472618
-0.0406438
-0.0340204
-0.0273298
-0.0204791
-0.0132668
-0.00590501
0.00168843
0.00960333
0.0179182
0.0266968
0.0360088
0.0459288
0.0565348
0.0679097
0.0801419
0.0933257
0.107562
0.122957
0.139627
0.157694
0.17729
0.198555
0.221639
0.246704
0.273921
0.303474
0.335558
0.370382
0.40817
0.449156
0.493594
0.54175
0.593907
0.650365
0.711439
0.777464
0.848789
0.925783
1.00883
1.09834
1.19471
1.2984
1.40985
1.52951
1.65787
1.7954
1.94259
2.09994
2.26793
2.44706
2.63778
2.84057
3.05586
3.28405
3.52551
3.78055
4.04943
4.33234
4.62938
4.94054
5.26574
5.60473
5.95714
6.32243
6.69991
7.08866
7.48759
7.89538
8.31046
8.73105
9.15509
9.58026
10.004
10.4235
10.8357
11.2374
11.6251
11.9953
12.3442
12.6682
12.9637
13.227
13.4547
13.6444
13.7935
13.8996
13.9618
13.9794
13.9525
13.8824
13.7714
13.6229
13.4414
13.2324
13.0023
12.7584
12.5082
12.26
12.0215
11.8002
11.6021
11.4317
11.2914
11.1806
11.0961
11.0314
10.978
10.926
10.8649
10.7848
10.6794
10.5466
10.391
10.2224
10.0547
9.90044
9.77811
9.68974
9.63974
9.61356
9.60603
9.59196
9.57104
9.54004
9.48999
9.43259
9.32951
9.16921
8.90272
8.46671
7.83421
6.88201
5.70505
-0.046731
-0.0401654
-0.0335535
-0.0268733
-0.020216
-0.0133692
-0.00627237
0.00113466
0.00889545
0.0170556
0.0256806
0.0348406
0.0446062
0.0550552
0.0662697
0.0783374
0.0913517
0.105413
0.120628
0.137111
0.154986
0.174382
0.19544
0.218312
0.243156
0.270145
0.299462
0.331303
0.365877
0.403406
0.444129
0.488296
0.536175
0.58805
0.644221
0.705006
0.770739
0.841772
0.918474
1.00123
1.09045
1.18655
1.28997
1.40115
1.52057
1.6487
1.78603
1.93304
2.09023
2.2581
2.43714
2.62783
2.83062
3.04596
3.27427
3.5159
3.77118
4.04037
4.32366
4.62117
4.93289
5.25872
5.59844
5.95168
6.31789
6.69637
7.08623
7.48635
7.8954
8.31183
8.73382
9.15932
9.58599
10.0112
10.4323
10.846
11.2491
11.6381
12.0095
12.3595
12.6845
12.9808
13.2447
13.4731
13.6627
13.8113
13.9168
13.9781
13.9946
13.9663
13.8946
13.7818
13.6312
13.4476
13.2364
13.0042
12.7583
12.5063
12.2565
12.0168
11.7946
11.5962
11.4259
11.2861
11.1762
11.0929
11.0296
10.9776
10.9269
10.8666
10.787
10.6814
10.548
10.3914
10.2219
10.0532
9.89839
9.77602
9.68808
9.63876
9.61331
9.60631
9.59248
9.57155
9.54051
9.4905
9.43325
9.33033
9.17017
8.90366
8.46757
7.83471
6.88215
5.70495
-0.0466851
-0.0403467
-0.0340032
-0.0275873
-0.0209077
-0.0140748
-0.00701984
0.000282902
0.00791209
0.0159378
0.0244218
0.033433
0.0430448
0.0533342
0.0643832
0.0762792
0.0891157
0.102992
0.118016
0.134301
0.151968
0.17115
0.191986
0.214626
0.23923
0.26597
0.295031
0.326606
0.360906
0.398154
0.438587
0.482457
0.530032
0.581598
0.637454
0.69792
0.76333
0.834039
0.910418
0.992854
1.08176
1.17754
1.28066
1.39155
1.5107
1.63857
1.77566
1.92246
2.07948
2.2472
2.42614
2.61676
2.81955
3.03494
3.26335
3.50515
3.76068
4.0302
4.3139
4.6119
4.9242
5.25072
5.59122
5.94534
6.31254
6.69211
7.08316
7.48456
7.895
8.31288
8.7364
9.16348
9.59178
10.0187
10.4413
10.8567
11.2613
11.6519
12.0246
12.3759
12.7019
12.999
13.2635
13.492
13.6815
13.8301
13.9351
13.9956
14.0109
13.9812
13.9078
13.793
13.6403
13.4544
13.2409
13.0064
12.7582
12.5042
12.2527
12.0117
11.7886
11.5897
11.4195
11.2802
11.1714
11.0893
11.0275
10.977
10.9276
10.8683
10.7891
10.6834
10.5493
10.3918
10.221
10.0514
9.89588
9.77339
9.6858
9.63715
9.61241
9.60599
9.59243
9.57156
9.54051
9.4906
9.43356
9.33091
9.17094
8.90449
8.46834
7.8351
6.88211
5.70435
-0.0463505
-0.0400772
-0.0337536
-0.0273281
-0.0209108
-0.0143058
-0.00744979
-0.000294679
0.00720041
0.0150871
0.0234312
0.0323016
0.0417689
0.0519098
0.0628057
0.0745433
0.0872155
0.100921
0.115767
0.131867
0.149342
0.168324
0.188951
0.211373
0.235751
0.262256
0.291071
0.322392
0.356428
0.393402
0.433552
0.47713
0.524405
0.575662
0.631202
0.691345
0.756428
0.826804
0.902847
0.984947
1.07351
1.16897
1.27175
1.38233
1.50116
1.62874
1.76555
1.9121
2.06889
2.23642
2.4152
2.60571
2.80843
3.02381
3.25227
3.49419
3.74991
4.0197
4.30377
4.60223
4.9151
5.24229
5.58358
5.9386
6.30683
6.68755
7.07987
7.48268
7.89463
8.31416
8.73942
9.16833
9.59854
10.0274
10.4521
10.8694
11.276
11.6684
12.043
12.396
12.7235
13.0218
13.2873
13.5166
13.7066
13.8549
13.9593
14.0189
14.0329
14.0015
13.9259
13.8086
13.653
13.4639
13.2471
13.0093
12.7578
12.5008
12.2466
12.0034
11.7787
11.579
11.4088
11.2703
11.163
11.0832
11.024
10.9762
10.9292
10.8718
10.7935
10.6876
10.5521
10.3924
10.2191
10.0471
9.88994
9.76718
9.68061
9.63383
9.61126
9.60653
9.5938
9.57296
9.54179
9.49207
9.4357
9.33369
9.17403
8.90647
8.46765
7.82757
6.86414
5.67082
-0.0462778
-0.0401295
-0.0339664
-0.0277428
-0.0212906
-0.0147089
-0.00789482
-0.000822472
0.00657843
0.0143696
0.0226132
0.0313771
0.0407328
0.0507568
0.0615297
0.0731383
0.0856749
0.0992384
0.113934
0.129876
0.147186
0.165992
0.186435
0.208663
0.232837
0.259128
0.287718
0.318804
0.352593
0.38931
0.42919
0.472488
0.519471
0.570425
0.625651
0.68547
0.750219
0.820253
0.895946
0.97769
1.06589
1.16098
1.26341
1.37362
1.4921
1.61932
1.7558
1.90202
2.05851
2.22576
2.40429
2.59459
2.79714
3.0124
3.2408
3.48274
3.73854
4.0085
4.29283
4.59164
4.90499
5.23277
5.57478
5.93066
6.29989
6.68177
7.07541
7.47968
7.89327
8.31458
8.74178
9.17277
9.60518
10.0364
10.4634
10.8832
11.2923
11.6871
12.0641
12.4193
12.7489
13.0491
13.3162
13.5467
13.7373
13.886
13.9902
14.0491
14.0619
14.0286
13.9506
13.8302
13.671
13.4779
13.2567
13.0143
12.7582
12.4968
12.2385
11.9919
11.7646
11.5633
11.3927
11.2551
11.15
11.0734
11.0182
10.9748
10.932
10.878
10.8016
10.6956
10.558
10.3945
10.2164
10.0398
9.87893
9.75486
9.6694
9.62569
9.60694
9.60563
9.59469
9.57431
9.54313
9.49455
9.44087
9.34322
9.18843
8.92552
8.49175
7.8504
6.88377
5.67754
-0.0460704
-0.0399797
-0.0338386
-0.027593
-0.0213636
-0.0149342
-0.00826254
-0.00130098
0.00599385
0.0136734
0.0218028
0.0304498
0.0396842
0.0495818
0.060223
0.0716939
0.084086
0.0974978
0.112035
0.127809
0.144942
0.163563
0.183811
0.205834
0.229793
0.255857
0.284209
0.315045
0.348573
0.385015
0.424609
0.467608
0.514279
0.56491
0.619802
0.679274
0.743666
0.813333
0.888651
0.970011
1.05783
1.15252
1.25455
1.36437
1.48246
1.6093
1.7454
1.89127
2.04742
2.21436
2.39261
2.58267
2.78503
3.00015
3.22847
3.47038
3.72625
3.99637
4.28094
4.58012
4.89395
5.22233
5.56509
5.92186
6.29215
6.67524
7.07026
7.47609
7.89141
8.31462
8.74389
9.17712
9.61191
10.0456
10.4752
10.8977
11.3095
11.707
12.0866
12.4443
12.7763
13.0786
13.3474
13.5793
13.7714
13.9201
14.0241
14.0824
14.0938
14.0586
13.978
13.8543
13.6912
13.4937
13.2677
13.0202
12.759
12.4926
12.2298
11.9792
11.749
11.5459
11.3748
11.2381
11.1354
11.0625
11.012
10.9738
10.936
10.886
10.8119
10.7059
10.5659
10.3979
10.2141
10.0317
9.86641
9.74075
9.65683
9.61708
9.60336
9.60642
9.59781
9.57779
9.54656
9.4994
9.44947
9.3579
9.21046
8.95512
8.53094
7.89041
6.92296
5.70257
-0.045973
-0.0400069
-0.0340281
-0.0279979
-0.0217363
-0.0153455
-0.00873329
-0.00186506
0.00532663
0.012901
0.02092
0.0294503
0.0385625
0.0483319
0.0588384
0.0701676
0.0824108
0.0956659
0.110038
0.125638
0.142587
0.161015
0.181059
0.202867
0.226599
0.252425
0.280527
0.311099
0.344351
0.380504
0.419795
0.462478
0.508821
0.559108
0.613644
0.672749
0.73676
0.806037
0.880953
0.961904
1.0493
1.14358
1.24518
1.35457
1.47224
1.59867
1.73437
1.87985
2.03563
2.20223
2.38016
2.56995
2.77208
2.98703
3.21524
3.45712
3.71304
3.98329
4.26811
4.56765
4.88196
5.21097
5.55449
5.91219
6.28357
6.66794
7.06441
7.47189
7.88904
8.31427
8.74576
9.18137
9.61871
10.0551
10.4875
10.9129
11.3276
11.728
12.1105
12.471
12.8055
13.1101
13.381
13.6145
13.8075
13.9569
14.0608
14.1185
14.1287
14.0915
14.008
13.8808
13.7136
13.5113
13.28
13.027
12.7601
12.4882
12.2202
11.9652
11.7316
11.5263
11.3545
11.2188
11.1187
11.0499
11.0047
10.9724
10.9404
10.8951
10.8237
10.7179
10.5751
10.4018
10.2113
10.022
9.85114
9.72334
9.641
9.60587
9.59809
9.60643
9.6006
9.58102
9.54964
9.50437
9.45934
9.37618
9.23904
8.99382
8.58448
7.94653
6.98168
5.74477
-0.0457832
-0.0398879
-0.0339435
-0.0278928
-0.0218497
-0.0156174
-0.00914692
-0.00239443
0.00468404
0.0121395
0.0200362
0.0284407
0.0374219
0.0470546
0.0574183
0.0685977
0.0806836
0.0937732
0.107971
0.123388
0.140144
0.158368
0.178197
0.19978
0.223274
0.248849
0.276687
0.306982
0.339943
0.37579
0.414762
0.457111
0.503105
0.55303
0.607189
0.665903
0.729511
0.798371
0.872861
0.953375
1.04033
1.13415
1.2353
1.34424
1.46145
1.58743
1.72269
1.86775
2.02312
2.18935
2.36694
2.55643
2.7583
2.97305
3.20113
3.44295
3.6989
3.96928
4.25433
4.55422
4.86902
5.19866
5.54298
5.90164
6.27415
6.65985
7.05785
7.46706
7.88615
8.31353
8.74736
9.18551
9.62557
10.0648
10.5003
10.9287
11.3466
11.7502
12.1358
12.4993
12.8367
13.1438
13.4169
13.6523
13.8465
13.9967
14.1004
14.1577
14.1666
14.1273
14.0409
13.91
13.7382
13.5307
13.2937
13.0346
12.7615
12.4835
12.2098
11.9499
11.7124
11.5047
11.3322
11.1976
11.1004
11.0363
10.9971
10.9715
10.9461
10.9063
10.8381
10.7325
10.5866
10.4072
10.2086
10.0113
9.83387
9.70354
9.62317
9.5937
9.59313
9.60778
9.60511
9.58573
9.55386
9.51065
9.47153
9.39881
9.27477
9.04209
8.65333
8.01952
7.05963
5.79787
-0.0456678
-0.039896
-0.0341119
-0.0282819
-0.0222334
-0.0160457
-0.00964681
-0.002997
0.0039701
0.0113113
0.019088
0.027366
0.0362146
0.0457082
0.0559255
0.0669509
0.0788748
0.0917936
0.105811
0.121038
0.137593
0.155605
0.175211
0.196557
0.219802
0.245115
0.272677
0.302681
0.335337
0.370864
0.4095
0.451498
0.497125
0.546667
0.600429
0.65873
0.721911
0.790331
0.864368
0.944418
1.0309
1.12424
1.22491
1.33336
1.45008
1.57558
1.71037
1.85497
2.00991
2.17573
2.35294
2.54209
2.74368
2.9582
3.18611
3.42786
3.68381
3.9543
4.23958
4.53983
4.85512
5.18541
5.53053
5.89019
6.26389
6.65097
7.05057
7.4616
7.88272
8.31237
8.74868
9.18953
9.63249
10.0748
10.5135
10.9453
11.3665
11.7736
12.1625
12.5293
12.8697
13.1798
13.4553
13.6926
13.8883
14.0391
14.143
14.1999
14.2075
14.166
14.0765
13.9416
13.765
13.5519
13.3087
13.043
12.7631
12.4784
12.1985
11.9331
11.6913
11.4808
11.3073
11.1737
11.0796
11.0206
10.988
10.97
10.9522
10.9188
10.8544
10.7491
10.5997
10.4133
10.2055
9.99865
9.81354
9.68008
9.60189
9.57903
9.58698
9.60909
9.61002
9.59065
9.55792
9.51704
9.48501
9.42515
9.31714
9.09977
8.73773
8.1101
7.16388
5.87948
-0.0454896
-0.0398014
-0.034067
-0.0282262
-0.0223811
-0.016357
-0.0101027
-0.00357382
0.00327256
0.0104873
0.0181336
0.0262767
0.0349847
0.0443313
0.0543946
0.0652585
0.0770123
0.089752
0.103581
0.118608
0.134954
0.152744
0.172116
0.193215
0.2162
0.241238
0.26851
0.29821
0.330545
0.365736
0.40402
0.445648
0.490889
0.540029
0.593371
0.651238
0.713969
0.781924
0.855482
0.935041
1.02102
1.11386
1.214
1.32194
1.43814
1.56313
1.69741
1.84152
1.99599
2.16136
2.33817
2.52694
2.72821
2.94247
3.17021
3.41184
3.66779
3.93837
4.22387
4.52446
4.84024
5.17119
5.51715
5.87783
6.25276
6.64128
7.04255
7.45548
7.87875
8.31078
8.74972
9.19343
9.63946
10.0851
10.5272
10.9625
11.3874
11.7981
12.1906
12.5609
12.9048
13.2179
13.4961
13.7356
13.933
14.0848
14.1889
14.2455
14.2518
14.208
14.1152
13.976
13.7943
13.5752
13.3253
13.0524
12.7652
12.4731
12.1864
11.915
11.6685
11.4549
11.2803
11.1478
11.0572
11.004
10.9789
10.9694
10.96
10.9337
10.8737
10.7688
10.6153
10.421
10.2026
9.98469
9.79064
9.65355
9.57795
9.56299
9.58107
9.61188
9.61666
9.59683
9.56251
9.52398
9.50005
9.45544
9.36623
9.16692
8.83806
8.21666
7.28518
5.96265
-0.0453548
-0.0397961
-0.0342255
-0.0286135
-0.0227951
-0.0168286
-0.0106605
-0.00424917
0.00247168
0.00955677
0.0170668
0.0250665
0.033624
0.0428124
0.0527092
0.0633976
0.0749666
0.0875112
0.101134
0.115944
0.132059
0.149606
0.16872
0.189548
0.212245
0.23698
0.263933
0.293296
0.325277
0.360095
0.397988
0.439206
0.484018
0.53271
0.585586
0.642967
0.705195
0.77263
0.845652
0.924662
1.01008
1.10234
1.20191
1.30925
1.42487
1.54928
1.68299
1.82654
1.98047
2.14532
2.32166
2.51
2.7109
2.92485
3.15235
3.39385
3.64975
3.92041
4.20612
4.50708
4.82339
5.15504
5.50191
5.86371
6.23999
6.63011
7.03322
7.44827
7.87393
8.30863
8.75051
9.19743
9.64693
10.0962
10.5422
10.9816
11.4106
11.8255
12.2222
12.5966
12.9443
13.2609
13.5423
13.7845
13.9838
14.1368
14.2393
14.2967
14.3018
14.2556
14.1593
14.0154
13.8277
13.6018
13.3443
13.0632
12.7674
12.4668
12.172
11.8936
11.6414
11.424
11.2479
11.1166
11.0299
10.9833
10.967
10.9679
10.969
10.9515
10.8969
10.7928
10.6345
10.4305
10.1991
9.96743
9.76224
9.62049
9.54804
9.54298
9.57393
9.61561
9.6249
9.60399
9.56699
9.53097
9.51706
9.49174
9.42601
9.24941
8.96467
8.35427
7.46052
6.10207
-0.0451665
-0.0397128
-0.0342163
-0.0286151
-0.0229977
-0.017215
-0.0112098
-0.00493862
0.00163965
0.00857573
0.0159316
0.0237712
0.0321614
0.0411745
0.0508873
0.0613822
0.072747
0.0850763
0.0984714
0.113041
0.128902
0.146181
0.165011
0.185538
0.207918
0.232318
0.258917
0.287908
0.319495
0.3539
0.391358
0.43212
0.476455
0.524648
0.577004
0.633843
0.695509
0.762361
0.834783
0.913174
0.997957
1.08957
1.18848
1.29517
1.41013
1.53387
1.66692
1.80983
1.96314
2.12741
2.3032
2.49104
2.69149
2.90507
3.13228
3.37359
3.62942
3.90015
4.18606
4.48739
4.80425
5.13666
5.48451
5.84753
6.22529
6.61717
7.02233
7.43973
7.86806
8.30574
8.75092
9.20146
9.65487
10.1084
10.5588
11.0027
11.4365
11.8561
12.2576
12.6367
12.9889
13.3097
13.5948
13.84
14.0418
14.1971
14.3025
14.3579
14.3608
14.3115
14.2109
14.0615
13.8672
13.6333
13.367
13.0763
12.7705
12.46
12.1558
11.869
11.6102
11.3884
11.2105
11.0806
10.9985
10.9598
10.954
10.9669
10.9806
10.9739
10.9261
10.8229
10.659
10.443
10.1953
9.94641
9.72719
9.57961
9.51123
9.51898
9.56658
9.62201
9.63635
9.6132
9.57143
9.53798
9.53638
9.53538
9.49862
9.35011
9.12173
8.51766
7.66561
6.23968
-0.0450143
-0.0396971
-0.0343659
-0.0289957
-0.0234407
-0.0177354
-0.0118326
-0.00569531
0.000741598
0.007531
0.0147326
0.0224098
0.0306294
0.039463
0.0489868
0.0592822
0.0704365
0.0825434
0.0957032
0.110024
0.125622
0.142621
0.161156
0.18137
0.20342
0.22747
0.2537
0.2823
0.313477
0.347449
0.384452
0.424737
0.468571
0.51624
0.568049
0.624318
0.685392
0.751631
0.823419
0.901158
0.985272
1.0762
1.17442
1.2804
1.39465
1.51769
1.65005
1.79227
1.94492
2.10855
2.28374
2.47104
2.671
2.88417
3.11106
3.35215
3.60787
3.87863
4.16473
4.46641
4.78383
5.11701
5.46587
5.83014
6.20943
6.60313
7.01043
7.43029
7.86141
8.30223
8.7509
9.20525
9.6628
10.1207
10.5759
11.0247
11.4635
11.8882
12.2948
12.679
13.036
13.3614
13.6504
13.899
14.103
14.2581
14.3572
14.4194
14.4219
14.3702
14.2656
14.1105
13.9091
13.6669
13.3911
13.09
12.7734
12.4521
12.1375
11.8416
11.5753
11.3484
11.1684
11.0397
10.9627
10.933
10.9395
10.9668
10.9944
10.9999
10.9598
10.8579
10.6876
10.458
10.1915
9.9224
9.68672
9.53213
9.46843
9.49173
9.55967
9.63107
9.65064
9.6238
9.57447
9.54291
9.55545
9.58281
9.5792
9.46366
9.3073
8.71608
7.96255
6.46944
-0.0448311
-0.0396314
-0.0343948
-0.029059
-0.0236883
-0.0181639
-0.012428
-0.00643735
-0.000151956
0.00647927
0.0135167
0.021023
0.0290636
0.0377095
0.0470359
0.0571234
0.0680583
0.0799333
0.0928479
0.106909
0.122232
0.138941
0.157168
0.177057
0.198761
0.222447
0.248291
0.276485
0.307232
0.340752
0.377279
0.417064
0.460374
0.507494
0.558729
0.6144
0.674852
0.740446
0.811567
0.888619
0.972027
1.06224
1.15972
1.26496
1.37846
1.50074
1.63236
1.77385
1.92579
2.08874
2.26329
2.44999
2.64943
2.86214
3.08866
3.32949
3.58508
3.85584
4.14211
4.44415
4.76212
5.09607
5.44595
5.81152
6.19239
6.58798
6.9975
7.41993
7.85397
8.29808
8.75041
9.20878
9.67071
10.1334
10.5935
11.0476
11.4917
11.9219
12.334
12.7236
13.086
13.4163
13.7099
13.9626
14.1706
14.3316
14.4531
14.4912
14.49
14.4349
14.3255
14.1643
13.9552
13.7039
13.4179
13.1057
12.7773
12.4442
12.1183
11.8123
11.5378
11.3052
11.1227
10.9951
10.9231
10.9013
10.9206
10.9641
11.0088
11.0291
10.9982
10.8981
10.7207
10.4757
10.1875
9.89497
9.64012
9.47722
9.4187
9.4596
9.55224
9.64301
9.66803
9.63578
9.57545
9.54493
9.57377
9.63377
9.66733
9.58664
9.51001
8.92255
8.25355
6.66137
-0.0446702
-0.0396089
-0.0345311
-0.0294155
-0.0241386
-0.0187087
-0.0130872
-0.00724029
-0.00110568
0.00536861
0.0122411
0.0195737
0.027432
0.0358857
0.0450096
0.0548832
0.065592
0.077228
0.0898896
0.103683
0.118722
0.135129
0.153037
0.172588
0.193934
0.217241
0.242685
0.270455
0.300755
0.333804
0.369835
0.409097
0.451859
0.498406
0.54904
0.604086
0.663886
0.728804
0.799224
0.875553
0.958219
1.04767
1.14438
1.24883
1.36154
1.48303
1.61385
1.75457
1.90575
2.06798
2.24183
2.4279
2.62676
2.83897
3.06509
3.30562
3.56105
3.83178
4.1182
4.42057
4.73908
5.07382
5.42474
5.79163
6.17412
6.57167
6.9835
7.40859
7.84569
8.29323
8.74939
9.21198
9.67851
10.1461
10.6115
11.071
11.5208
11.9567
12.3745
12.7698
13.1376
13.4729
13.7708
14.0267
14.2365
14.3953
14.495
14.5603
14.5598
14.5024
14.3886
14.2211
14.004
13.7432
13.4462
13.122
12.781
12.4351
12.0969
11.7799
11.4965
11.2577
11.073
10.948
10.8834
10.8731
10.9062
10.9656
11.0271
11.0631
11.0425
10.9447
10.7595
10.4967
10.1836
9.86383
9.58659
9.4144
9.36447
9.42718
9.54756
9.65985
9.69017
9.64983
9.57401
9.5435
9.59088
9.68825
9.76377