/*--------------------------------*- C++ -*----------------------------------*\
| =========                 |                                                 |
| \\      /  F ield         | OpenFOAM: The Open Source CFD Toolbox           |
|  \\    /   O peration     | Version:  v1912                                 |
|   \\  /    A nd           | Website:  www.openfoam.com                      |
|    \\/     M anipulation  |                                                 |
\*---------------------------------------------------------------------------*/
FoamFile
{
    version     2.0;
    format      ascii;
    class       volScalarField;
    location    "50";
    object      omega;
}
// * * * * * * * * * * * * * * * * * * * * * * * * * * * * * * * * * * * * * //

dimensions      [0 0 -1 0 0 0 0];


internalField   nonuniform List<scalar> 
14268
(
2.9833
2.98329
2.98329
2.98329
2.98329
2.98329
2.98329
2.98329
2.98329
2.98329
2.98328
2.98328
2.98328
2.98328
2.98328
2.98328
2.98328
2.98328
2.98329
2.98329
2.98329
2.9833
2.98331
2.98333
2.98335
2.98338
2.98344
2.98353
2.98367
2.98387
2.98412
2.98436
2.98446
2.98438
2.98413
2.98389
2.98368
2.98352
2.98341
2.98334
2.98328
2.98325
2.98323
2.98318
0.584075
0.583418
0.582832
0.582272
0.581507
0.580659
0.579941
0.579559
0.579816
0.580273
0.580512
0.580029
0.578485
0.576163
0.573614
0.572062
0.571315
0.570654
0.569019
0.566439
0.562925
0.558273
0.552281
0.545159
0.536411
0.525421
0.511789
0.49516
0.476429
0.457413
0.442387
0.433604
0.435626
0.442523
0.469495
0.57962
0.729232
0.859714
0.927093
0.922184
0.907357
0.880637
0.897922
0.930523
0.293429
0.29338
0.293324
0.293246
0.293127
0.293019
0.292955
0.29295
0.293055
0.293176
0.293239
0.293165
0.292895
0.292482
0.292022
0.291695
0.291447
0.291196
0.290791
0.290188
0.289347
0.288225
0.28678
0.285007
0.282844
0.280275
0.277371
0.274415
0.271886
0.271171
0.272718
0.275656
0.278859
0.280568
0.282283
0.297293
0.327039
0.362655
0.399628
0.408787
0.416309
0.413878
0.421704
0.447593
0.253481
0.253475
0.253466
0.25345
0.253427
0.253409
0.2534
0.253403
0.253431
0.253465
0.253486
0.253476
0.253426
0.253349
0.253261
0.253205
0.253167
0.253127
0.253052
0.252945
0.2528
0.252617
0.252393
0.252153
0.251918
0.251768
0.251834
0.252395
0.25386
0.256751
0.261108
0.265887
0.269904
0.271174
0.270343
0.273412
0.279268
0.286348
0.295013
0.297541
0.299279
0.298637
0.302227
0.312576
0.248327
0.248328
0.248328
0.248325
0.248321
0.24832
0.248321
0.248323
0.248328
0.248336
0.24834
0.248338
0.248331
0.24832
0.248306
0.2483
0.2483
0.248298
0.248288
0.248278
0.248271
0.24827
0.248278
0.248323
0.248436
0.248719
0.249258
0.25037
0.252405
0.25572
0.260151
0.265117
0.269325
0.270653
0.269744
0.271558
0.273527
0.274861
0.275444
0.274317
0.272694
0.270023
0.269618
0.274438
0.247709
0.247712
0.247714
0.247713
0.247713
0.247714
0.247716
0.247717
0.247719
0.247722
0.247725
0.247724
0.247724
0.247726
0.247726
0.24773
0.247736
0.24774
0.247741
0.247745
0.247758
0.247785
0.24783
0.247918
0.248085
0.248429
0.249034
0.250211
0.252244
0.255529
0.260113
0.265218
0.269458
0.270854
0.269841
0.271468
0.273188
0.272961
0.271753
0.269768
0.266692
0.263461
0.261703
0.261125
0.24764
0.247644
0.247646
0.247646
0.247649
0.247652
0.247655
0.247657
0.247658
0.24766
0.247662
0.247663
0.247665
0.247668
0.247671
0.247674
0.24768
0.247684
0.247687
0.247695
0.247712
0.247742
0.247789
0.24788
0.248047
0.248386
0.248998
0.250156
0.252195
0.25554
0.260148
0.265176
0.269355
0.270636
0.269707
0.271417
0.27286
0.272491
0.271308
0.268833
0.265665
0.26227
0.258549
0.259725
0.247635
0.247638
0.24764
0.24764
0.247641
0.247643
0.247645
0.247646
0.247646
0.247648
0.247651
0.247651
0.247652
0.247656
0.247659
0.247665
0.247671
0.247677
0.247679
0.247685
0.2477
0.24773
0.247776
0.247865
0.248029
0.248368
0.248971
0.250133
0.252181
0.255528
0.260095
0.265144
0.269387
0.270763
0.269782
0.271443
0.272875
0.272497
0.271049
0.268727
0.265287
0.261733
0.258829
0.257169
0.247635
0.247639
0.247641
0.247641
0.247642
0.247645
0.247649
0.247649
0.247651
0.247653
0.247655
0.247654
0.247657
0.24766
0.247662
0.247666
0.247673
0.247677
0.24768
0.247688
0.247706
0.247736
0.247785
0.247876
0.248044
0.24839
0.248992
0.250169
0.252209
0.255522
0.260144
0.265206
0.269401
0.270711
0.26974
0.271402
0.272967
0.272397
0.270954
0.268484
0.265287
0.261796
0.258019
0.258373
0.247633
0.247636
0.247639
0.247639
0.24764
0.247642
0.247645
0.247648
0.247646
0.247648
0.24765
0.247649
0.24765
0.247654
0.247658
0.247663
0.247668
0.247673
0.247676
0.247683
0.247699
0.247729
0.247776
0.247866
0.24803
0.248367
0.248973
0.25014
0.252203
0.255576
0.26017
0.265205
0.269413
0.270767
0.269779
0.271441
0.272892
0.272502
0.271076
0.268715
0.265232
0.261667
0.258568
0.256982
0.247633
0.247636
0.247639
0.247639
0.24764
0.247643
0.247645
0.247644
0.247648
0.24765
0.247652
0.24765
0.247652
0.247655
0.247657
0.247661
0.247669
0.247675
0.247677
0.247685
0.247702
0.247732
0.247777
0.247866
0.248036
0.248377
0.248974
0.250133
0.252186
0.255526
0.260024
0.265081
0.26936
0.270715
0.269788
0.271428
0.272897
0.272429
0.271057
0.268552
0.26527
0.261748
0.257998
0.257996
0.247631
0.247634
0.247636
0.247637
0.247638
0.24764
0.247645
0.247648
0.247645
0.247645
0.247646
0.247646
0.247647
0.247651
0.247656
0.24766
0.247666
0.247668
0.247671
0.247679
0.247697
0.247728
0.247777
0.247865
0.248025
0.248368
0.248977
0.250146
0.25215
0.255447
0.260177
0.265206
0.2694
0.270713
0.269735
0.271419
0.272926
0.272416
0.270928
0.268623
0.265177
0.261669
0.258405
0.256974
0.247629
0.247632
0.247634
0.247635
0.247635
0.247637
0.247637
0.247638
0.247643
0.247646
0.247648
0.247646
0.247645
0.247648
0.24765
0.247656
0.247663
0.247668
0.247671
0.247677
0.247692
0.247721
0.247766
0.247856
0.248027
0.248372
0.248984
0.250154
0.252226
0.255552
0.260119
0.265248
0.269526
0.270857
0.269873
0.271504
0.27295
0.272442
0.270959
0.268519
0.265251
0.261744
0.258067
0.257714
0.247625
0.247628
0.24763
0.24763
0.247631
0.247636
0.24764
0.247643
0.247643
0.247641
0.24764
0.24764
0.247643
0.247647
0.247652
0.247654
0.24766
0.247662
0.247666
0.247675
0.247695
0.24773
0.247781
0.24787
0.248027
0.248354
0.248942
0.250079
0.252152
0.255605
0.25985
0.264907
0.269315
0.270661
0.269808
0.271543
0.273035
0.272599
0.271126
0.268685
0.265154
0.261683
0.258155
0.257174
0.247619
0.247623
0.247625
0.247626
0.247626
0.247626
0.247627
0.247627
0.24763
0.247634
0.247637
0.247636
0.247636
0.247638
0.247639
0.247645
0.247652
0.247658
0.24766
0.247666
0.24768
0.247707
0.24775
0.247837
0.248
0.248342
0.248953
0.250122
0.252162
0.255446
0.260325
0.265238
0.269275
0.270589
0.269656
0.271355
0.272897
0.272494
0.27102
0.268649
0.265315
0.261765
0.258189
0.257385
0.247621
0.247623
0.247625
0.247625
0.247627
0.247631
0.247635
0.247638
0.247639
0.24764
0.247639
0.247639
0.247643
0.247647
0.24765
0.247653
0.247658
0.247662
0.247666
0.247675
0.247695
0.247729
0.247778
0.247869
0.248033
0.248364
0.248968
0.250171
0.252241
0.255454
0.260061
0.265394
0.269712
0.270882
0.269841
0.271544
0.272905
0.272488
0.271077
0.268661
0.26509
0.261668
0.258163
0.257186
0.247622
0.247625
0.247628
0.247628
0.247628
0.247629
0.247628
0.247629
0.247634
0.247641
0.247644
0.247646
0.247644
0.247645
0.247646
0.247655
0.247662
0.247669
0.247671
0.247674
0.247685
0.24771
0.247752
0.247837
0.248003
0.248356
0.248911
0.249992
0.251926
0.255566
0.259914
0.264884
0.269401
0.270796
0.26987
0.271521
0.273014
0.272479
0.270968
0.268671
0.26531
0.261716
0.258519
0.256955
0.247632
0.247633
0.247632
0.247634
0.247636
0.247641
0.247646
0.247652
0.247657
0.24766
0.247659
0.24766
0.247664
0.247668
0.24767
0.247673
0.247679
0.247685
0.24769
0.247699
0.247721
0.24775
0.247794
0.247885
0.248048
0.24838
0.24906
0.250313
0.252431
0.255582
0.260515
0.265481
0.269411
0.270595
0.269718
0.271453
0.27324
0.272617
0.270991
0.268594
0.265114
0.261707
0.258351
0.257015
0.247643
0.247647
0.24765
0.24765
0.247649
0.247649
0.24765
0.247655
0.247666
0.247677
0.247681
0.247681
0.247678
0.247678
0.247677
0.247686
0.247694
0.247702
0.247703
0.247704
0.247711
0.247729
0.247764
0.247843
0.247996
0.248287
0.248766
0.24974
0.251773
0.255447
0.260001
0.265389
0.269772
0.270932
0.269687
0.271348
0.272704
0.272553
0.27115
0.268811
0.265337
0.261653
0.258854
0.256693
0.247675
0.247674
0.247673
0.247674
0.247676
0.247681
0.247689
0.247699
0.247709
0.247717
0.247715
0.247715
0.247717
0.24772
0.24772
0.247723
0.247727
0.247734
0.24774
0.247748
0.247767
0.247788
0.247826
0.247914
0.248075
0.248444
0.249033
0.250327
0.2526
0.255931
0.260416
0.265282
0.269356
0.270691
0.269885
0.271582
0.273195
0.272694
0.271134
0.268729
0.265264
0.261859
0.258635
0.256931
0.247677
0.247682
0.247686
0.247686
0.247687
0.247689
0.247691
0.247699
0.247711
0.247725
0.247727
0.247726
0.247719
0.247718
0.247712
0.247722
0.247721
0.24773
0.24773
0.247728
0.247728
0.247737
0.247763
0.24783
0.247963
0.248347
0.249134
0.250607
0.252754
0.255556
0.260332
0.265333
0.26898
0.270535
0.269416
0.271116
0.272791
0.272644
0.271259
0.268751
0.265063
0.26163
0.259148
0.256594
0.247621
0.247624
0.247626
0.247626
0.247628
0.247631
0.247635
0.247636
0.247636
0.247637
0.247638
0.247636
0.247639
0.247643
0.247645
0.24765
0.247657
0.247662
0.247665
0.247673
0.24769
0.247719
0.247763
0.247847
0.248004
0.248321
0.248886
0.249983
0.25191
0.255311
0.259993
0.265203
0.269537
0.270896
0.269993
0.271766
0.273245
0.272763
0.27121
0.268847
0.265487
0.262003
0.259093
0.25652
0.247636
0.24764
0.247642
0.247643
0.247643
0.247644
0.247643
0.247642
0.247642
0.247648
0.247652
0.247654
0.247654
0.247659
0.247662
0.247667
0.247673
0.247678
0.247677
0.247681
0.247692
0.247719
0.24776
0.247844
0.24799
0.248325
0.248934
0.25015
0.25233
0.255757
0.260602
0.266016
0.269942
0.271834
0.270948
0.272682
0.274152
0.273732
0.272349
0.269698
0.265927
0.26201
0.259203
0.255876
0.247661
0.247662
0.247664
0.247668
0.247674
0.247679
0.247682
0.247683
0.247684
0.247684
0.247684
0.247684
0.247688
0.247693
0.247694
0.247698
0.247705
0.247712
0.247716
0.247719
0.247731
0.247751
0.247788
0.247859
0.248002
0.248306
0.248854
0.249967
0.251951
0.255519
0.260594
0.26627
0.27091
0.273091
0.272055
0.273968
0.27568
0.274761
0.272898
0.270204
0.266929
0.263244
0.259988
0.256627
0.24771
0.247713
0.247717
0.247719
0.247722
0.247724
0.247724
0.247725
0.247725
0.247728
0.247734
0.247738
0.247736
0.247739
0.247742
0.247747
0.247749
0.247753
0.24775
0.247749
0.247756
0.247779
0.247818
0.247894
0.248027
0.248347
0.2489
0.250053
0.252335
0.256163
0.262252
0.269733
0.275254
0.280142
0.278219
0.278878
0.278911
0.27775
0.275574
0.272273
0.267895
0.263642
0.26036
0.256989
0.247746
0.247745
0.247747
0.247752
0.247759
0.247768
0.247772
0.247776
0.247779
0.247776
0.247774
0.247776
0.24778
0.247783
0.247782
0.247786
0.247793
0.247799
0.2478
0.247799
0.247807
0.247822
0.24785
0.247908
0.248022
0.248288
0.248824
0.250015
0.252174
0.256742
0.264131
0.2768
0.291681
0.3051
0.299633
0.293416
0.286785
0.281224
0.277384
0.273545
0.269406
0.265022
0.26136
0.257883
0.247809
0.247813
0.247819
0.247823
0.247829
0.247833
0.247832
0.247837
0.247836
0.247836
0.247838
0.24784
0.247837
0.24784
0.24784
0.247842
0.247842
0.247843
0.247837
0.247832
0.24784
0.247866
0.247908
0.247982
0.248118
0.248429
0.248982
0.250203
0.252718
0.257977
0.275097
0.319629
0.379234
0.436152
0.404498
0.363959
0.322883
0.297639
0.28477
0.276946
0.27163
0.266828
0.262491
0.258859
0.247871
0.247871
0.247874
0.247878
0.247887
0.247897
0.247902
0.247907
0.247916
0.24791
0.247902
0.247903
0.247903
0.2479
0.247893
0.247891
0.247891
0.247895
0.247894
0.247894
0.247903
0.247922
0.247951
0.247997
0.248091
0.248333
0.248821
0.250073
0.253262
0.264642
0.323197
0.480335
0.679359
0.815893
0.719031
0.569435
0.433242
0.357285
0.318527
0.29656
0.281476
0.271383
0.26493
0.260415
0.247957
0.24796
0.247963
0.247962
0.247965
0.247967
0.247967
0.247979
0.247986
0.247985
0.247981
0.24798
0.247969
0.247965
0.247957
0.247962
0.247961
0.24796
0.247955
0.247957
0.247978
0.248016
0.248068
0.248156
0.248336
0.248678
0.249283
0.250982
0.2571
0.294778
0.502435
0.901478
1.1343
1.20687
1.08159
0.838796
0.597767
0.454892
0.381829
0.341242
0.309509
0.287928
0.273723
0.264328
0.248148
0.24814
0.24813
0.24812
0.248121
0.248132
0.248138
0.248148
0.248165
0.248159
0.248148
0.248136
0.248126
0.24812
0.248114
0.248106
0.248104
0.248115
0.248124
0.248138
0.248159
0.248197
0.248269
0.248353
0.248507
0.248808
0.249839
0.25391
0.273299
0.406879
0.921546
1.26706
1.38053
1.40028
1.33443
1.14132
0.845431
0.603995
0.47697
0.409182
0.356626
0.319614
0.294468
0.276516
0.2484
0.248393
0.248384
0.248366
0.248359
0.248362
0.248374
0.248414
0.248444
0.248429
0.24842
0.248409
0.248386
0.248358
0.248339
0.248355
0.248407
0.248478
0.248531
0.248577
0.248658
0.248796
0.248997
0.249254
0.249833
0.251356
0.25521
0.269341
0.338728
0.732364
1.24322
1.37204
1.36291
1.2937
1.26232
1.23093
1.0589
0.792001
0.637615
0.537635
0.453027
0.387041
0.343822
0.309358
0.24941
0.249384
0.249351
0.249301
0.249278
0.249342
0.249593
0.250069
0.250337
0.250278
0.250157
0.250066
0.250051
0.250125
0.250262
0.250513
0.250958
0.251442
0.251756
0.251948
0.252319
0.253006
0.2539
0.254804
0.257083
0.262834
0.278069
0.327164
0.541181
1.04497
1.25399
1.23899
1.26375
1.24495
1.16355
1.10021
1.05153
0.968387
0.931978
0.890049
0.780857
0.680438
0.570148
0.454218
0.255109
0.255075
0.255023
0.254892
0.254877
0.255499
0.257717
0.2614
0.263188
0.262753
0.261966
0.261409
0.26134
0.261724
0.262519
0.264164
0.266927
0.269518
0.270946
0.271698
0.273238
0.276044
0.279086
0.281876
0.290215
0.310588
0.358568
0.492781
0.806286
1.09436
1.19123
1.26014
1.28724
1.30396
1.3353
1.42722
1.51344
1.75655
1.93292
1.95023
1.80461
1.69917
1.56139
1.43546
0.279216
0.279544
0.279902
0.279706
0.280397
0.285479
0.298973
0.316319
0.323056
0.320844
0.31734
0.314516
0.313747
0.314984
0.31785
0.324143
0.333518
0.340627
0.343973
0.345416
0.349724
0.356236
0.360849
0.366161
0.386588
0.432935
0.534638
0.683802
0.874737
1.06836
1.23083
1.28812
1.24659
1.2233
1.21474
1.33629
1.44908
1.51469
1.59133
1.68578
1.76565
1.84716
1.96508
2.16791
0.352986
0.356288
0.357016
0.35448
0.359895
0.38289
0.424702
0.458446
0.467872
0.468065
0.461909
0.453918
0.45176
0.454987
0.463064
0.479378
0.494139
0.502765
0.507503
0.504902
0.513724
0.51045
0.503853
0.513028
0.54719
0.61494
0.713103
0.819144
0.947349
1.21485
1.35402
1.40378
1.41479
1.52335
1.34832
1.32582
1.45
1.52137
1.5966
1.70572
1.9021
2.09725
2.20028
2.21906
0.575484
0.554466
0.547532
0.563925
0.596178
0.623934
0.661984
0.726177
0.990475
1.29747
0.946198
0.911107
0.911885
0.914252
0.928514
0.961943
0.998629
1.00197
0.952563
0.831706
0.800721
0.801109
0.820839
0.85382
0.861478
0.827529
0.785266
0.784577
0.880561
1.06171
1.25992
1.55865
2.25133
2.81276
2.3092
2.05707
2.11741
2.18652
2.33739
2.43782
2.56914
3.01425
3.64718
3.97093
0.741846
0.678969
0.710069
0.945931
1.20546
1.15804
1.84352
15.409
33.2922
8.81953
3.02519
2.22346
2.17516
2.19315
2.31291
2.52175
2.5498
2.41122
1.90973
1.30709
1.09367
1.07206
1.1177
1.23383
1.40586
1.55581
1.54939
1.36253
1.39061
1.57634
1.71011
1.79713
1.99498
2.39072
2.96657
3.41178
2.91946
2.86723
3.02698
3.57152
3.55594
3.93186
4.13536
5.03989
0.474937
0.467111
0.509044
0.641788
0.735444
0.776899
1.15179
2.73848
3.65225
2.60512
2.05695
1.93197
1.84876
1.77244
1.70418
1.65024
1.60561
1.55384
1.46921
1.36358
1.32327
1.30386
1.32552
1.37607
1.41204
1.42521
1.39911
1.2615
1.19604
1.27741
1.45978
1.64839
1.61642
1.35621
1.09852
1.36509
1.74201
1.83092
1.63489
1.48158
1.53552
1.73009
1.39686
0.884673
0.351495
0.358455
0.384391
0.469014
0.564516
0.606766
0.676881
1.18028
1.91908
1.94765
1.72741
1.63112
1.42816
1.24245
1.11364
1.04735
1.01089
0.965578
0.882739
0.781833
0.693949
0.628193
0.595891
0.600076
0.616768
0.624091
0.648245
0.684444
0.706757
0.727052
0.764808
0.807419
0.635151
0.429514
0.359379
1.28359
2.13023
1.33115
0.700488
0.514402
0.457593
0.469573
0.362292
0.403335
0.274084
0.27814
0.287908
0.31608
0.377591
0.422241
0.436786
0.541821
0.899433
1.15542
1.11504
0.877123
0.684862
0.565777
0.49677
0.469928
0.46635
0.470254
0.461583
0.436938
0.410449
0.389947
0.380029
0.383551
0.391415
0.39278
0.394947
0.399166
0.395935
0.384861
0.370584
0.344655
0.293061
0.272249
0.276014
0.325788
0.515725
0.468009
0.34838
0.298498
0.289793
0.297967
0.304931
0.323984
0.253918
0.254815
0.256839
0.262232
0.27548
0.288921
0.297231
0.323827
0.41303
0.493888
0.440442
0.366498
0.318057
0.29512
0.284197
0.28121
0.282045
0.285357
0.286953
0.284455
0.280707
0.276759
0.275104
0.275788
0.276801
0.276444
0.276122
0.27591
0.273892
0.271103
0.268801
0.267255
0.261664
0.263266
0.265576
0.268359
0.28463
0.292036
0.282623
0.276236
0.277381
0.28782
0.296669
0.313469
0.250878
0.251172
0.251634
0.252568
0.254902
0.258256
0.261266
0.269014
0.288801
0.306719
0.290277
0.273345
0.2636
0.259922
0.25836
0.257813
0.257662
0.257863
0.258019
0.257795
0.25772
0.257648
0.257569
0.257295
0.256897
0.256456
0.25632
0.256589
0.256308
0.256273
0.256214
0.256688
0.257046
0.261563
0.26571
0.268661
0.275386
0.277701
0.27444
0.271121
0.272163
0.279676
0.287819
0.293383
0.249628
0.249851
0.2501
0.250441
0.251043
0.252257
0.253371
0.254898
0.259409
0.2632
0.25987
0.257057
0.255518
0.254919
0.254865
0.254888
0.254899
0.254878
0.254833
0.254817
0.254991
0.255283
0.255321
0.255041
0.25457
0.254186
0.254159
0.254592
0.255097
0.255712
0.256376
0.257624
0.256595
0.259083
0.262483
0.264798
0.266974
0.268931
0.26828
0.268851
0.270273
0.277546
0.287471
0.291906
0.249269
0.249446
0.249655
0.249898
0.250315
0.251053
0.252052
0.253759
0.255688
0.256587
0.255874
0.254651
0.254093
0.253773
0.253661
0.253673
0.253659
0.253637
0.253645
0.253783
0.254087
0.254344
0.254281
0.253902
0.253362
0.252995
0.252869
0.253088
0.253377
0.253702
0.254062
0.254497
0.255185
0.258133
0.261502
0.263832
0.268337
0.268814
0.265861
0.265707
0.266776
0.271702
0.279096
0.282389
0.248664
0.248814
0.248991
0.249206
0.249528
0.250007
0.250813
0.25193
0.252939
0.253372
0.253183
0.252802
0.252761
0.252709
0.252698
0.252786
0.252904
0.253022
0.253124
0.253323
0.253611
0.253716
0.253594
0.253265
0.252872
0.25267
0.252767
0.253119
0.253595
0.254201
0.254799
0.255541
0.254563
0.256404
0.259238
0.261049
0.262119
0.26286
0.262636
0.264495
0.266463
0.271554
0.279082
0.28187
0.248684
0.248868
0.249065
0.249229
0.249483
0.249924
0.250622
0.251856
0.25281
0.25312
0.252888
0.252396
0.252421
0.252376
0.252214
0.25208
0.252114
0.252208
0.252349
0.252617
0.252935
0.253045
0.252917
0.252533
0.252086
0.251805
0.251741
0.251883
0.252174
0.252516
0.25288
0.253112
0.253693
0.255659
0.258526
0.260238
0.263398
0.263562
0.261575
0.262383
0.263579
0.26691
0.271923
0.275383
0.248489
0.248614
0.248754
0.248887
0.249122
0.249453
0.249953
0.250728
0.251383
0.251788
0.251764
0.251511
0.251576
0.251627
0.251523
0.251381
0.251521
0.251724
0.251939
0.252223
0.252466
0.252541
0.252453
0.252189
0.251828
0.251601
0.251644
0.251951
0.252431
0.253054
0.253639
0.254052
0.253127
0.254467
0.256687
0.258151
0.258807
0.259066
0.259059
0.26091
0.263277
0.267065
0.272064
0.272928
0.248391
0.248551
0.248721
0.248848
0.24905
0.249407
0.249914
0.250743
0.251397
0.25167
0.251502
0.251231
0.251257
0.251208
0.251096
0.250952
0.250911
0.251019
0.251236
0.251531
0.25182
0.251939
0.251841
0.251542
0.251178
0.250944
0.250855
0.250941
0.251254
0.251638
0.252059
0.252194
0.25261
0.253986
0.256212
0.257762
0.259783
0.25999
0.25886
0.260064
0.261286
0.263539
0.267025
0.269411
0.248272
0.248394
0.248525
0.248625
0.248803
0.249065
0.249437
0.249952
0.250367
0.250678
0.250697
0.25056
0.250654
0.250733
0.250644
0.250452
0.25044
0.250622
0.250888
0.251194
0.251434
0.251517
0.251442
0.251256
0.251071
0.250996
0.251051
0.251317
0.251721
0.252253
0.252763
0.253004
0.252343
0.253108
0.25468
0.256031
0.256176
0.256448
0.256641
0.258348
0.260362
0.263447
0.266803
0.267472
0.248188
0.248308
0.248456
0.248584
0.248752
0.249039
0.249432
0.24998
0.250445
0.250652
0.25054
0.250419
0.250459
0.250383
0.25023
0.250045
0.249995
0.250117
0.250346
0.250624
0.250847
0.250927
0.250855
0.250659
0.250435
0.250305
0.250287
0.250406
0.25071
0.251065
0.251427
0.251507
0.251738
0.252749
0.254497
0.255882
0.256899
0.257401
0.256829
0.258095
0.259389
0.260869
0.26313
0.265124
0.248099
0.248186
0.248301
0.248404
0.248547
0.248791
0.249065
0.24939
0.249664
0.249894
0.249902
0.249866
0.249953
0.249971
0.249863
0.249719
0.249615
0.249802
0.25007
0.250345
0.250539
0.250604
0.250565
0.250471
0.250381
0.250382
0.250483
0.250776
0.251148
0.251602
0.252
0.252141
0.251725
0.252044
0.253152
0.254202
0.254066
0.254596
0.255142
0.25663
0.258288
0.260458
0.262728
0.263571
0.248037
0.24812
0.248238
0.248371
0.248527
0.248786
0.249088
0.249437
0.249751
0.249938
0.249888
0.249803
0.249849
0.249772
0.249631
0.249467
0.249322
0.249436
0.249667
0.249905
0.250062
0.250105
0.250067
0.249961
0.249858
0.24982
0.249857
0.250004
0.250261
0.250551
0.250812
0.250879
0.25097
0.251807
0.253205
0.254198
0.254564
0.25539
0.255358
0.256475
0.257681
0.258948
0.260574
0.26191
0.247998
0.24806
0.248144
0.248233
0.248357
0.248573
0.248782
0.248993
0.249158
0.24934
0.249362
0.249352
0.249401
0.249394
0.249294
0.249156
0.249064
0.249163
0.249398
0.249635
0.249783
0.249844
0.249869
0.249856
0.249866
0.249919
0.250045
0.250311
0.250612
0.250972
0.251245
0.251387
0.251165
0.2512
0.251953
0.252548
0.252498
0.253386
0.254125
0.255346
0.256694
0.258174
0.260118
0.260824
0.247953
0.248013
0.248093
0.2482
0.248352
0.248554
0.248799
0.249044
0.249251
0.249391
0.249388
0.249349
0.249373
0.249297
0.249174
0.249035
0.248949
0.24895
0.249097
0.249272
0.249399
0.249466
0.249496
0.249481
0.249463
0.249458
0.249511
0.249653
0.249853
0.25007
0.250212
0.250318
0.250426
0.2511
0.252121
0.252674
0.253054
0.254008
0.254307
0.255223
0.25615
0.257311
0.258713
0.25933
0.247937
0.247982
0.248042
0.248106
0.248209
0.248357
0.248523
0.248693
0.248794
0.248904
0.248926
0.248966
0.249035
0.249011
0.248881
0.24877
0.248718
0.248723
0.248892
0.24908
0.249211
0.249311
0.249395
0.249454
0.249503
0.249573
0.249699
0.24992
0.25015
0.250429
0.250601
0.250818
0.25069
0.250694
0.251042
0.251278
0.251603
0.252662
0.253352
0.254404
0.255538
0.256747
0.258216
0.258286
0.247916
0.24794
0.247995
0.248077
0.248199
0.248352
0.248532
0.248728
0.24888
0.248976
0.248952
0.249005
0.249042
0.248983
0.248854
0.248725
0.248645
0.248589
0.248667
0.248795
0.248919
0.249017
0.249091
0.249118
0.249133
0.249166
0.249267
0.24941
0.249554
0.249711
0.249768
0.24996
0.250053
0.250522
0.251188
0.251644
0.252102
0.253033
0.253478
0.254219
0.255023
0.255963
0.257015
0.257157
0.247891
0.247917
0.24796
0.24801
0.248084
0.248196
0.248295
0.248428
0.248513
0.248577
0.248563
0.248669
0.248728
0.248714
0.248623
0.248539
0.24846
0.248423
0.248512
0.248666
0.248818
0.248939
0.249038
0.249108
0.249185
0.249274
0.24938
0.249547
0.249716
0.24994
0.250076
0.250359
0.250285
0.250541
0.250414
0.250625
0.251165
0.25204
0.252714
0.253612
0.254597
0.255632
0.256524
0.25642
0.247878
0.247893
0.247921
0.247981
0.248071
0.248189
0.248327
0.248464
0.24858
0.248657
0.248638
0.248722
0.248754
0.248707
0.248622
0.248552
0.248449
0.248368
0.248404
0.248505
0.248619
0.248705
0.248771
0.248815
0.248891
0.248999
0.249116
0.24923
0.249322
0.249464
0.249503
0.249759
0.249773
0.250147
0.250562
0.250984
0.251458
0.252288
0.252778
0.253459
0.254127
0.254804
0.25536
0.255367
0.24785
0.247868
0.247895
0.247929
0.247983
0.248059
0.248141
0.248218
0.248273
0.248309
0.248337
0.248444
0.248474
0.248458
0.24841
0.248359
0.248286
0.248246
0.248312
0.248434
0.248556
0.248658
0.248755
0.248833
0.248907
0.248982
0.249068
0.249203
0.249329
0.249555
0.249604
0.249912
0.249897
0.250233
0.250299
0.250436
0.250878
0.251562
0.252215
0.252966
0.253738
0.254541
0.254951
0.25475
0.247838
0.247851
0.247876
0.247901
0.247961
0.248049
0.248151
0.248263
0.248344
0.248383
0.248423
0.24851
0.24852
0.248486
0.248427
0.24838
0.248313
0.248289
0.248309
0.248371
0.24844
0.248512
0.24859
0.248672
0.248762
0.248875
0.248968
0.249082
0.24914
0.249303
0.249324
0.249621
0.249592
0.249876
0.250099
0.250483
0.250937
0.251641
0.252185
0.252829
0.253369
0.253675
0.253947
0.253949
0.247809
0.247828
0.247853
0.247875
0.247905
0.247944
0.247996
0.248064
0.248093
0.248104
0.248152
0.24826
0.248276
0.248268
0.248234
0.248204
0.248164
0.248162
0.248212
0.248284
0.248361
0.248438
0.248514
0.248585
0.248658
0.24874
0.248827
0.248945
0.24901
0.249201
0.249209
0.24953
0.249532
0.249865
0.250116
0.250355
0.250742
0.251316
0.251811
0.252359
0.252893
0.253403
0.253639
0.253491
0.247801
0.247812
0.247831
0.247853
0.247884
0.247934
0.248007
0.248085
0.248142
0.248193
0.248232
0.2483
0.248314
0.248302
0.248271
0.248247
0.248211
0.24822
0.248256
0.248309
0.248367
0.248427
0.248495
0.248568
0.24864
0.24872
0.248792
0.248896
0.248946
0.249145
0.249145
0.249441
0.249434
0.249675
0.24988
0.250169
0.250562
0.251108
0.251637
0.252183
0.252615
0.252681
0.252849
0.252863
0.24777
0.247789
0.247815
0.247841
0.247874
0.247893
0.247913
0.24793
0.247948
0.247971
0.248004
0.248074
0.248088
0.2481
0.248098
0.248093
0.248072
0.248087
0.248126
0.248171
0.24822
0.248273
0.248335
0.248396
0.248462
0.248542
0.248614
0.248729
0.248781
0.248986
0.248982
0.249285
0.249314
0.249567
0.249838
0.250176
0.250579
0.251084
0.251415
0.251763
0.252099
0.252421
0.25265
0.25255
0.247767
0.247779
0.247796
0.247816
0.247845
0.247873
0.24791
0.247958
0.248001
0.248041
0.248088
0.248122
0.248133
0.248143
0.248132
0.248131
0.248111
0.24813
0.248161
0.248201
0.248248
0.248311
0.248371
0.248435
0.2485
0.248578
0.248641
0.248755
0.248798
0.248992
0.248983
0.249269
0.249302
0.24952
0.249741
0.249995
0.250329
0.250733
0.251155
0.251538
0.251861
0.251906
0.252022
0.252024
0.247734
0.247755
0.247783
0.247814
0.247856
0.24789
0.247924
0.247915
0.247906
0.247888
0.247911
0.247936
0.247945
0.247963
0.247968
0.247977
0.247992
0.248025
0.248061
0.248092
0.248129
0.24817
0.248216
0.248277
0.248341
0.248415
0.248477
0.248599
0.248636
0.248845
0.248846
0.249109
0.249177
0.249401
0.24966
0.249944
0.250291
0.250678
0.25095
0.251196
0.251444
0.251621
0.251856
0.25179
0.247737
0.247751
0.247772
0.247795
0.247827
0.247855
0.247888
0.247906
0.24793
0.247943
0.247967
0.24799
0.248004
0.248017
0.248007
0.248023
0.248042
0.24808
0.24812
0.248159
0.248202
0.248252
0.248312
0.248366
0.24842
0.248494
0.248542
0.248653
0.248677
0.248867
0.248868
0.249123
0.249208
0.249418
0.249644
0.249882
0.250154
0.250437
0.250725
0.250996
0.25125
0.251323
0.251401
0.251375
0.247704
0.24773
0.247763
0.247801
0.247848
0.247886
0.247923
0.247935
0.24794
0.247919
0.247909
0.247868
0.247858
0.247866
0.247882
0.247937
0.247986
0.248026
0.248071
0.248095
0.248123
0.248154
0.248186
0.248227
0.248272
0.248335
0.248375
0.248488
0.248518
0.248717
0.248739
0.248966
0.249082
0.249286
0.249503
0.249738
0.250014
0.250282
0.250525
0.250734
0.250935
0.251061
0.251243
0.251189
0.247715
0.247735
0.247759
0.247787
0.247819
0.247846
0.247871
0.247886
0.24791
0.247917
0.247924
0.247906
0.247909
0.24793
0.247957
0.248008
0.248054
0.248095
0.248127
0.248161
0.248189
0.248222
0.24826
0.248316
0.248354
0.248417
0.248458
0.248573
0.248589
0.248774
0.248793
0.249016
0.249128
0.249307
0.249516
0.249731
0.249962
0.250171
0.250386
0.250599
0.250791
0.25088
0.250891
0.250834
0.247687
0.247715
0.24775
0.247789
0.247837
0.247874
0.247914
0.247941
0.247969
0.247957
0.247952
0.247919
0.247914
0.247929
0.247975
0.248024
0.248085
0.248112
0.248139
0.248151
0.248165
0.248176
0.248191
0.24821
0.248232
0.248281
0.248307
0.248415
0.248448
0.248628
0.248671
0.248864
0.24899
0.249164
0.249353
0.249553
0.249788
0.249998
0.250207
0.250378
0.250541
0.250627
0.250713
0.250674
0.247702
0.247723
0.247749
0.24778
0.247813
0.247839
0.247865
0.247886
0.2479
0.2479
0.247891
0.247876
0.247885
0.247915
0.247964
0.248013
0.248054
0.248082
0.248107
0.248123
0.248135
0.24815
0.248171
0.248208
0.248253
0.248325
0.248371
0.248496
0.248529
0.248701
0.248747
0.248918
0.24905
0.249207
0.249386
0.249574
0.249779
0.249956
0.250142
0.250298
0.250444
0.250507
0.250478
0.250412
0.247673
0.2477
0.247735
0.247774
0.247821
0.24786
0.247907
0.247944
0.247978
0.247977
0.247978
0.247975
0.247995
0.248025
0.248068
0.248104
0.248144
0.248154
0.248167
0.248174
0.248176
0.248179
0.248188
0.24821
0.248217
0.248258
0.248279
0.248378
0.248398
0.248555
0.248617
0.248785
0.248913
0.24906
0.249223
0.249395
0.249595
0.249779
0.249949
0.250069
0.250194
0.250254
0.250285
0.250237
0.247693
0.247714
0.24774
0.247772
0.247807
0.247836
0.247867
0.247893
0.247904
0.247897
0.247891
0.247896
0.247922
0.247954
0.247998
0.248036
0.248068
0.248092
0.248102
0.248112
0.248119
0.248128
0.248139
0.24816
0.248185
0.248242
0.24829
0.248412
0.248463
0.248625
0.248695
0.248836
0.248964
0.249103
0.249259
0.249422
0.249603
0.249763
0.249902
0.250009
0.250117
0.250158
0.25013
0.250055
0.24766
0.247686
0.247719
0.24776
0.247809
0.247848
0.247901
0.24794
0.247969
0.247973
0.247982
0.247998
0.248031
0.24807
0.248115
0.248145
0.248175
0.248186
0.248189
0.248188
0.248184
0.248183
0.248188
0.24821
0.248233
0.248289
0.248319
0.248414
0.248431
0.248548
0.248601
0.24872
0.24884
0.248966
0.249105
0.24925
0.249418
0.249558
0.249693
0.249791
0.249885
0.24992
0.249932
0.249883
0.247684
0.247705
0.247732
0.247767
0.247802
0.247833
0.24787
0.247893
0.247901
0.247897
0.247902
0.24792
0.247952
0.247995
0.248041
0.248066
0.248083
0.248086
0.248084
0.248081
0.248085
0.248098
0.248105
0.248123
0.248138
0.248184
0.248217
0.248323
0.248369
0.248499
0.248579
0.248708
0.248852
0.248989
0.249125
0.249267
0.249422
0.249538
0.24966
0.249755
0.249837
0.249849
0.24983
0.249756
0.247649
0.247675
0.247711
0.247752
0.247796
0.24784
0.247893
0.247926
0.247954
0.247965
0.247987
0.24802
0.248063
0.248115
0.248164
0.248181
0.248196
0.248198
0.248194
0.248191
0.248188
0.248186
0.24818
0.248183
0.248188
0.248235
0.248267
0.248361
0.2484
0.248515
0.248585
0.248685
0.24878
0.248886
0.24901
0.249141
0.249292
0.249409
0.249524
0.249572
0.249633
0.249644
0.249634
0.249559
0.247681
0.247703
0.247734