/*--------------------------------*- C++ -*----------------------------------*\
| =========                 |                                                 |
| \\      /  F ield         | OpenFOAM: The Open Source CFD Toolbox           |
|  \\    /   O peration     | Version:  v1912                                 |
|   \\  /    A nd           | Website:  www.openfoam.com                      |
|    \\/     M anipulation  |                                                 |
\*---------------------------------------------------------------------------*/
FoamFile
{
    version     2.0;
    format      ascii;
    class       volScalarField;
    location    "90";
    object      p_rgh;
}
// * * * * * * * * * * * * * * * * * * * * * * * * * * * * * * * * * * * * * //

dimensions      [1 -1 -2 0 0 0 0];


internalField   nonuniform List<scalar> 
14268
(
-6643.33
-6434.04
-6198.28
-5939.96
-5662.41
-5369.22
-5067.69
-4769.63
-6643.23
-6433.92
-6198.16
-5939.83
-5662.26
-5369.07
-5067.53
-4769.17
-6643.13
-6433.81
-6198.03
-5939.69
-5662.11
-5368.91
-5067.38
-4768.99
-6643.04
-6433.71
-6197.91
-5939.56
-5661.97
-5368.76
-5067.22
-4768.56
-6642.95
-6433.6
-6197.79
-5939.42
-5661.83
-5368.61
-5067.07
-4768.35
-6642.87
-6433.5
-6197.68
-5939.29
-5661.69
-5368.47
-5066.92
-4767.96
-6642.79
-6433.4
-6197.56
-5939.17
-5661.55
-5368.32
-5066.77
-4767.72
-6642.71
-6433.31
-6197.45
-5939.04
-5661.41
-5368.17
-5066.62
-4767.36
-6642.64
-6433.21
-6197.34
-5938.92
-5661.28
-5368.03
-5066.47
-4767.09
-6642.56
-6433.13
-6197.24
-5938.8
-5661.14
-5367.89
-5066.32
-4766.73
-6642.5
-6433.04
-6197.13
-5938.68
-5661.01
-5367.75
-5066.17
-4766.46
-6642.43
-6432.96
-6197.03
-5938.56
-5660.88
-5367.61
-5066.02
-4766.13
-6642.37
-6432.87
-6196.94
-5938.45
-5660.75
-5367.47
-5065.87
-4765.85
-6642.31
-6432.8
-6196.84
-5938.33
-5660.62
-5367.33
-5065.73
-4765.54
-6643.6
-6434.42
-6198.86
-5940.83
-5663.73
-5371.18
-5070.5
-4771.75
-6643.38
-6434.08
-6198.43
-5940.36
-5663.24
-5370.73
-5070.08
-4771.11
-6643.31
-6433.85
-6198.09
-5939.95
-5662.8
-5370.3
-5069.68
-4770.49
-6643.38
-6433.73
-6197.83
-5939.58
-5662.39
-5369.88
-5069.29
-4769.87
-6643.57
-6433.69
-6197.62
-5939.25
-5661.99
-5369.48
-5068.91
-4769.27
-6643.9
-6433.76
-6197.5
-5938.99
-5661.64
-5369.11
-5068.54
-4768.69
-6644.34
-6433.9
-6197.42
-5938.73
-5661.29
-5368.73
-5068.16
-4768.1
-6644.45
-6432.79
-6195.04
-5935.16
-5656.53
-5362.88
-5061.1
-4757.69
-6649.59
-6436.3
-6197.01
-5935.63
-5655.7
-5361.16
-5058.37
-4751.67
-6657.16
-6442.01
-6200.89
-5937.7
-5656.25
-5360.55
-5056.35
-4746.64
-6667.13
-6449.79
-6206.48
-5941.14
-5657.73
-5360.54
-5054.78
-4742.61
-6679.45
-6459.59
-6213.79
-5946.03
-5660.44
-5361.48
-5053.87
-4739.79
-6694.51
-6471.91
-6223.24
-5952.59
-5664.43
-5363.3
-5053.52
-4737.08
-6711.93
-6486.29
-6234.48
-5960.7
-5669.61
-5366.01
-5053.89
-4735.34
-6731.92
-6502.94
-6247.65
-5970.36
-5676.04
-5369.59
-5054.91
-4734.05
-6754.73
-6522.13
-6262.96
-5981.75
-5683.76
-5374.18
-5056.8
-4733.69
-6779.82
-6543.19
-6279.76
-5994.24
-5692.24
-5379.2
-5058.92
-4733.25
-6806.31
-6565.88
-6298.15
-6008.1
-5701.66
-5384.72
-5061.21
-4732.59
-4853.53
-4901.73
-4909.47
-4889.28
-4837.54
-4751.4
-4628.72
-4466.2
-611.3
-739.572
-902.252
-1085.26
-1278.97
-1472.8
-1659.57
-1835.51
-1.40589
-2.62726
-4.4301
-6.98033
-10.418
-14.7472
-20.117
-27.651
4.06846
4.03753
4.02265
4.07088
4.33018
4.91089
5.83088
6.66618
3.73278
3.60423
3.46112
3.34249
3.22085
3.09364
3.03671
2.87221
3.65258
3.51586
3.35767
3.17705
2.98219
2.73481
2.4618
2.22014
3.59561
3.45763
3.30875
3.14524
2.96139
2.72934
2.45973
2.21047
3.54047
3.40214
3.24896
3.07612
2.88527
2.66422
2.42994
2.21307
3.49045
3.35501
3.20735
3.04361
2.86355
2.66091
2.4384
2.226
3.43849
3.30438
3.15707
2.993
2.81468
2.61756
2.4122
2.22088
3.39067
3.2567
3.11327
2.95353
2.7836
2.59919
2.40501
2.21828
3.34182
3.20914
3.06675
2.91117
2.74572
2.56804
2.38532
2.21074
3.29348
3.16242
3.0221
2.87079
2.71084
2.54146
2.36803
2.20129
3.24549
3.11654
2.97881
2.83181
2.67666
2.51442
2.34957
2.19092
3.19747
3.07103
2.93611
2.79345
2.64339
2.48768
2.33059
2.17958
3.14993
3.02564
2.89406
2.75558
2.61074
2.46131
2.31113
2.16698
3.10223
2.98016
2.85288
2.71809
2.57826
2.43484
2.29125
2.1536
3.05446
2.93493
2.81133
2.68074
2.54577
2.40824
2.27083
2.13934
3.00721
2.89039
2.76953
2.64353
2.5129
2.38124
2.24958
2.12405
2.95949
2.84581
2.72819
2.6062
2.47997
2.354
2.22756
2.1077
2.91243
2.80159
2.68715
2.56855
2.44713
2.32592
2.20465
2.09005
2.86546
2.75764
2.6464
2.5313
2.41428
2.29709
2.1811
2.07109
2.81861
2.7138
2.60578
2.49419
2.38123
2.26779
2.15709
2.05092
2.77223
2.67029
2.56533
2.4572
2.34798
2.23854
2.13206
2.02986
2.7258
2.62692
2.52503
2.42034
2.31476
2.20923
2.10619
2.00822
2.67977
2.58379
2.48488
2.38352
2.28153
2.17939
2.07994
1.98578
2.63387
2.54083
2.44491
2.34681
2.24818
2.14931
2.05332
1.96266
2.58822
2.49805
2.40504
2.31009
2.21465
2.11902
2.02626
1.93891
2.54279
2.45542
2.36529
2.27342
2.18105
2.08851
1.99879
1.91448
2.49757
2.41294
2.32565
2.23677
2.14726
2.05781
1.97107
1.88926
2.45256
2.37063
2.28611
2.2001
2.11334
2.02703
1.94306
1.86341
2.40776
2.32846
2.24668
2.16342
2.07938
1.99606
1.91463
1.83716
2.36317
2.28644
2.20735
2.12672
2.04538
1.96492
1.88579
1.81054
2.31879
2.24455
2.16814
2.09
2.01131
1.93343
1.85679
1.78354
2.27461
2.20281
2.12902
2.05327
1.97717
1.9016
1.82764
1.75622
2.23062
2.16124
2.08998
2.01658
1.94293
1.86974
1.79805
1.72868
2.18682
2.11982
2.05097
1.97996
1.90861
1.83793
1.76806
1.70088
2.14321
2.07855
2.012
1.94346
1.87421
1.80608
1.73779
1.67276
2.09979
2.03744
1.97311
1.90701
1.83968
1.77411
1.7074
1.64431
2.05653
1.99651
1.93436
1.87058
1.80527
1.74175
1.67696
1.61557
2.01346
1.95581
1.89575
1.83422
1.771
1.70909
1.64643
1.58661
1.97057
1.91532
1.85726
1.79793
1.73661
1.67639
1.61577
1.55736
1.92783
1.87498
1.81884
1.76154
1.70229
1.64365
1.58494
1.52775
1.88547
1.83474
1.78048
1.72509
1.66802
1.61088
1.55394
1.49798
1.84363
1.79464
1.74224
1.68877
1.63367
1.57806
1.52281
1.46812
1.72062
1.67652
1.62967
1.58135
1.53189
1.48073
1.43029
1.37926
1.5191
1.48375
1.44505
1.40473
1.36255
1.3189
1.27479
1.22958
1.32555
1.29627
1.2648
1.23088
1.19495
1.1581
1.11946
1.08059
1.13585
1.11275
1.08725
1.05907
1.02955
0.997984
0.96541
0.931428
0.952574
0.934236
0.913316
0.890738
0.86615
0.840045
0.812556
0.783786
0.772764
0.758694
0.742592
0.724626
0.704934
0.6838
0.661313
0.63761
0.597499
0.586968
0.574807
0.561061
0.545884
0.529433
0.511812
0.493096
0.424444
0.41741
0.408989
0.399255
0.388368
0.376458
0.363602
0.349856
0.254461
0.250156
0.244963
0.23891
0.232096
0.224585
0.216422
0.20764
0.0853718
0.0834533
0.0813536
0.0789133
0.0761138
0.072961
0.0694683
0.0656499
-4427.92
-4095.96
-3777.6
-3467.83
-3167.26
-2875.91
-2594.1
-2319.21
-2048.94
-1779.47
-1506.1
-1222.39
-920.953
-593.86
-229.641
178.818
645.182
1179.7
1792.31
2492.25
3284.16
4170.42
5143.25
6192.77
7289.07
8406.93
9496.89
10512.8
11409.7
12137.5
12639.9
12860
12721.6
12266
11434.1
10220.6
8686.63
6963.54
5202.91
3519.71
1996.92
682.715
-402.218
-1262.97
-1914.03
-2376.95
-2678.57
-2844.79
-2901.28
-2876.22
-2790.06
-2664.27
-2517.28
-2368.97
-2233.79
-2122.72
-2043.82
-2000.71
-1995.81
-2027.19
-2088.22
-2172.66
-2272.05
-2379.93
-2489.12
-2592.81
-2682.28
-2748.55
-2780.02
-2764.63
-2694.22
-2552
-2327.63
-1998.74
-1552.19
-976.296
-273.002
564.118
1536.13
2594.78
3708.33
4810.57
5848.72
6759
7494.49
8019.9
8303.43
8323.86
8127.45
7705.37
7087.16
6313.4
5437.44
4517.35
3603.02
2732.34
1931.8
1216.42
592.117
58.8333
-395.074
-782.416
-1116.88
-1411
-1675.64
-1919.05
-2146.76
-2362.28
-2567.03
-2760.97
-2943.38
-3113.69
-3271.89
-3417.9
-3551.56
-3672.49
-3779.95
-3872.88
-3949.88
-4009.59
-4050.79
-4071.72
-4070.07
-4045.06
-3993.07
-3910.25
-3792.34
-3635
-3433.77
-3183.89
-2880.3
-2517.82
-2090.94
-1594.86
-1026.32
-384.296
319.464
1141.05
1986.38
2878.47
3788.07
4683.06
5529.62
6294.84
6952.09
7477.69
7849.31
8054.27
8080.7
7953.94
7668.01
7238.7
6689.16
6047.81
5346.82
4619.44
-4427.64
-4095.95
-3777.6
-3467.83
-3167.26
-2875.91
-2594.1
-2319.21
-2048.94
-1779.47
-1506.1
-1222.39
-920.956
-593.865
-229.647
178.811
645.174
1179.69
1792.3
2492.24
3284.15
4170.41
5143.24
6192.76
7289.06
8406.92
9496.89
10512.8
11409.7
12137.5
12639.9
12860.1
12721.7
12266.1
11434.1
10220.6
8686.63
6963.53
5202.89
3519.68
1996.89
682.686
-402.246
-1262.99
-1914.05
-2376.97
-2678.59
-2844.8
-2901.28
-2876.23
-2790.07
-2664.28
-2517.28
-2368.97
-2233.79
-2122.72
-2043.82
-2000.7
-1995.81
-2027.18
-2088.22
-2172.66
-2272.05
-2379.93
-2489.12
-2592.81
-2682.29
-2748.56
-2780.03
-2764.63
-2694.23
-2552.01
-2327.64
-1998.75
-1552.21
-976.312
-273.019
564.102
1536.11
2594.77
3708.33
4810.57
5848.73
6759.02
7494.51
8019.93
8303.46
8323.89
8127.47
7705.39
7087.18
6313.4
5437.44
4517.35
3603.01
2732.33
1931.79
1216.41
592.106
58.8239
-395.082
-782.422
-1116.88
-1411
-1675.64
-1919.05
-2146.76
-2362.28
-2567.03
-2760.97
-2943.38
-3113.69
-3271.89
-3417.9
-3551.56
-3672.5
-3779.95
-3872.88
-3949.88
-4009.6
-4050.79
-4071.73
-4070.07
-4045.07
-3993.08
-3910.25
-3792.35
-3635.01
-3433.77
-3183.89
-2880.31
-2517.83
-2090.95
-1594.87
-1026.33
-384.306
319.47
1141.03
1986.37
2878.46
3788.06
4683.06
5529.62
6294.85
6952.1
7477.71
7849.33
8054.29
8080.72
7953.96
7668.02
7238.71
6689.17
6047.82
5346.82
4619.44
-4427.58
-4095.95
-3777.6
-3467.83
-3167.26
-2875.91
-2594.1
-2319.21
-2048.94
-1779.48
-1506.1
-1222.4
-920.963
-593.873
-229.659
178.797
645.157
1179.67
1792.28
2492.21
3284.13
4170.38
5143.21
6192.73
7289.04
8406.91
9496.89
10512.8
11409.8
12137.6
12640
12860.1
12721.7
12266.1
11434.2
10220.6
8686.64
6963.51
5202.86
3519.63
1996.83
682.627
-402.301
-1263.04
-1914.09
-2377
-2678.61
-2844.82
-2901.31
-2876.24
-2790.08
-2664.28
-2517.28
-2368.97
-2233.79
-2122.71
-2043.81
-2000.7
-1995.8
-2027.18
-2088.22
-2172.66
-2272.05
-2379.93
-2489.12
-2592.81
-2682.29
-2748.56
-2780.04
-2764.65
-2694.24
-2552.03
-2327.66
-1998.78
-1552.24
-976.345
-273.052
564.069
1536.08
2594.75
3708.31
4810.56
5848.74
6759.04
7494.55
8019.97
8303.51
8323.94
8127.52
7705.43
7087.2
6313.41
5437.44
4517.33
3602.99
2732.31
1931.76
1216.39
592.084
58.8054
-395.098
-782.435
-1116.89
-1411.01
-1675.65
-1919.06
-2146.76
-2362.28
-2567.03
-2760.98
-2943.39
-3113.69
-3271.9
-3417.91
-3551.56
-3672.5
-3779.96
-3872.89
-3949.88
-4009.6
-4050.79
-4071.73
-4070.08
-4045.07
-3993.08
-3910.26
-3792.36
-3635.02
-3433.78
-3183.91
-2880.32
-2517.85
-2090.97
-1594.89
-1026.35
-384.325
319.481
1140.97
1986.35
2878.45
3788.06
4683.06
5529.63
6294.87
6952.12
7477.74
7849.36
8054.32
8080.75
7953.99
7668.05
7238.73
6689.19
6047.82
5346.82
4619.43
-4427.35
-4095.95
-3777.59
-3467.83
-3167.26
-2875.91
-2594.1
-2319.21
-2048.94
-1779.48
-1506.11
-1222.4
-920.972
-593.886
-229.674
178.778
645.134
1179.64
1792.25
2492.18
3284.09
4170.35
5143.18
6192.7
7289.02
8406.9
9496.9
10512.9
11409.8
12137.6
12640.1
12860.2
12721.9
12266.2
11434.3
10220.7
8686.67
6963.49
5202.8
3519.55
1996.74
682.54
-402.383
-1263.11
-1914.15
-2377.06
-2678.66
-2844.86
-2901.32
-2876.26
-2790.09
-2664.29
-2517.28
-2368.96
-2233.78
-2122.71
-2043.8
-2000.69
-1995.79
-2027.17
-2088.21
-2172.65
-2272.04
-2379.93
-2489.12
-2592.82
-2682.3
-2748.57
-2780.05
-2764.66
-2694.27
-2552.06
-2327.7
-1998.82
-1552.28
-976.393
-273.102
564.021
1536.04
2594.72
3708.3
4810.57
5848.77
6759.09
7494.61
8020.05
8303.59
8324.02
8127.59
7705.49
7087.24
6313.43
5437.44
4517.32
3602.97
2732.28
1931.73
1216.35
592.051
58.7777
-395.122
-782.454
-1116.91
-1411.02
-1675.66
-1919.06
-2146.77
-2362.29
-2567.04
-2760.98
-2943.39
-3113.7
-3271.9
-3417.91
-3551.57
-3672.5
-3779.96
-3872.89
-3949.89
-4009.61
-4050.8
-4071.74
-4070.08
-4045.08
-3993.09
-3910.27
-3792.37
-3635.03
-3433.8
-3183.92
-2880.34
-2517.87
-2090.99
-1594.92
-1026.38
-384.354
319.498
1140.9
1986.32
2878.43
3788.05
4683.06
5529.65
6294.89
6952.16
7477.78
7849.41
8054.38
8080.81
7954.04
7668.09
7238.76
6689.21
6047.83
5346.82
4619.42
-4427.26
-4095.95
-3777.59
-3467.83
-3167.26
-2875.91
-2594.1
-2319.21
-2048.94
-1779.48
-1506.12
-1222.41
-920.986
-593.903
-229.696
178.752
645.102
1179.61
1792.21
2492.13
3284.04
4170.3
5143.13
6192.66
7288.99
8406.89
9496.9
10512.9
11409.9
12137.7
12640.2
12860.4
12722
12266.4
11434.4
10220.8
8686.69
6963.45
5202.71
3519.44
1996.62
682.423
-402.491
-1263.21
-1914.24
-2377.13
-2678.72
-2844.9
-2901.36
-2876.29
-2790.11
-2664.3
-2517.29
-2368.96
-2233.77
-2122.69
-2043.78
-2000.67
-1995.77
-2027.16
-2088.2
-2172.65
-2272.04
-2379.93
-2489.12
-2592.83
-2682.31
-2748.59
-2780.07
-2764.69
-2694.3
-2552.09
-2327.74
-1998.87
-1552.34
-976.458
-273.169
563.955
1535.98
2594.67
3708.27
4810.57
5848.79
6759.14
7494.69
8020.14
8303.69
8324.12
8127.68
7705.56
7087.29
6313.46
5437.44
4517.3
3602.94
2732.24
1931.68
1216.3
592.006
58.7407
-395.153
-782.48
-1116.93
-1411.03
-1675.67
-1919.07
-2146.77
-2362.29
-2567.04
-2760.99
-2943.4
-3113.71
-3271.91
-3417.92
-3551.58
-3672.51
-3779.97
-3872.9
-3949.9
-4009.61
-4050.81
-4071.75
-4070.09
-4045.09
-3993.11
-3910.28
-3792.39
-3635.05
-3433.82
-3183.95
-2880.37
-2517.9
-2091.03
-1594.96
-1026.42
-384.392
319.518
1140.8
1986.29
2878.4
3788.03
4683.06
5529.66
6294.93
6952.21
7477.84
7849.48
8054.45
8080.88
7954.11
7668.15
7238.81
6689.24
6047.85
5346.82
4619.41
-4427.06
-4095.94
-3777.59
-3467.82
-3167.26
-2875.91
-2594.09
-2319.21
-2048.94
-1779.49
-1506.12
-1222.42
-921.001
-593.924
-229.723
178.718
645.062
1179.56
1792.16
2492.08
3283.98
4170.24
5143.07
6192.61
7288.95
8406.87
9496.91
10512.9
11409.9
12137.8
12640.3
12860.5
12722.2
12266.6
11434.5
10220.9
8686.71
6963.4
5202.61
3519.3
1996.48
682.277
-402.627
-1263.33
-1914.34
-2377.22
-2678.79
-2844.96
-2901.41
-2876.32
-2790.13
-2664.31
-2517.29
-2368.95
-2233.76
-2122.68
-2043.76
-2000.65
-1995.75
-2027.14
-2088.19
-2172.64
-2272.04
-2379.93
-2489.13
-2592.83
-2682.32
-2748.61
-2780.09
-2764.72
-2694.33
-2552.14
-2327.8
-1998.93
-1552.42
-976.539
-273.252
563.874
1535.91
2594.62
3708.24
4810.57
5848.83
6759.21
7494.79
8020.27
8303.82
8324.25
8127.8
7705.66
7087.36
6313.49
5437.44
4517.28
3602.89
2732.18
1931.62
1216.24
591.951
58.6946
-395.193
-782.511
-1116.95
-1411.05
-1675.68
-1919.08
-2146.78
-2362.3
-2567.05
-2760.99
-2943.41
-3113.71
-3271.92
-3417.93
-3551.58
-3672.52
-3779.98
-3872.91
-3949.91
-4009.62
-4050.82
-4071.76
-4070.11
-4045.11
-3993.12
-3910.3
-3792.41
-3635.07
-3433.85
-3183.98
-2880.4
-2517.94
-2091.07
-1595
-1026.47
-384.44
319.541
1140.67
1986.24
2878.37
3788.01
4683.06
5529.68
6294.97
6952.27
7477.92
7849.57
8054.54
8080.97
7954.19
7668.23
7238.87
6689.28
6047.87
5346.82
4619.4
-4426.94
-4095.94
-3777.59
-3467.82
-3167.25
-2875.9
-2594.09
-2319.21
-2048.95
-1779.49
-1506.13
-1222.44
-921.021
-593.95
-229.756
178.679
645.014
1179.5
1792.09
2492.01
3283.91
4170.16
5143
6192.55
7288.9
8406.85
9496.91
10513
11410
12137.9
12640.5
12860.8
12722.4
12266.8
11434.7
10221
8686.74
6963.34
5202.49
3519.14
1996.3
682.103
-402.79
-1263.48
-1914.47
-2377.32
-2678.88
-2845.03
-2901.46
-2876.36
-2790.16
-2664.32
-2517.29
-2368.95
-2233.75
-2122.66
-2043.74
-2000.63
-1995.73
-2027.12
-2088.17
-2172.63
-2272.03
-2379.93
-2489.13
-2592.84
-2682.34
-2748.63
-2780.12
-2764.76
-2694.38
-2552.2
-2327.87
-1999.01
-1552.51
-976.636
-273.352
563.777
1535.82
2594.55
3708.21
4810.57
5848.87
6759.3
7494.91
8020.41
8303.98
8324.4
8127.94
7705.77
7087.43
6313.53
5437.44
4517.25
3602.84
2732.11
1931.55
1216.17
591.884
58.6393
-395.24
-782.549
-1116.98
-1411.07
-1675.7
-1919.09
-2146.79
-2362.31
-2567.06
-2761
-2943.42
-3113.72
-3271.92
-3417.93
-3551.59
-3672.53
-3779.99
-3872.92
-3949.92
-4009.64
-4050.83
-4071.77
-4070.12
-4045.12
-3993.14
-3910.33
-3792.43
-3635.1
-3433.88
-3184.01
-2880.44
-2517.98
-2091.12
-1595.06
-1026.52
-384.498
319.567
1140.52
1986.18
2878.33
3787.99
4683.07
5529.71
6295.02
6952.34
7478.01
7849.67
8054.65
8081.07
7954.29
7668.31
7238.93
6689.32
6047.89
5346.82
4619.38
-4426.76
-4095.93
-3777.58
-3467.82
-3167.25
-2875.9
-2594.09
-2319.21
-2048.95
-1779.5
-1506.14
-1222.46
-921.044
-593.98
-229.794
178.633
644.959
1179.44
1792.02
2491.93
3283.82
4170.08
5142.92
6192.48
7288.85
8406.82
9496.92
10513
11410.1
12138.1
12640.7
12861
12722.7
12267.1
11435
10221.1
8686.78
6963.28
5202.35
3518.96
1996.09
681.898
-402.981
-1263.65
-1914.62
-2377.45
-2678.98
-2845.12
-2901.52
-2876.41
-2790.19
-2664.34
-2517.29
-2368.94
-2233.73
-2122.63
-2043.71
-2000.6
-1995.71
-2027.1
-2088.16
-2172.62
-2272.03
-2379.93
-2489.14
-2592.86
-2682.36
-2748.66
-2780.16
-2764.8
-2694.43
-2552.26
-2327.95
-1999.11
-1552.61
-976.749
-273.469
563.663
1535.72
2594.48
3708.17
4810.57
5848.92
6759.39
7495.05
8020.58
8304.17
8324.58
8128.1
7705.9
7087.52
6313.57
5437.44
4517.21
3602.78
2732.04
1931.47
1216.09
591.807
58.5746
-395.295
-782.594
-1117.02
-1411.1
-1675.72
-1919.11
-2146.8
-2362.32
-2567.07
-2761.01
-2943.43
-3113.73
-3271.94
-3417.95
-3551.6
-3672.54
-3780
-3872.93
-3949.93
-4009.65
-4050.85
-4071.79
-4070.14
-4045.14
-3993.17
-3910.35
-3792.46
-3635.14
-3433.92
-3184.06
-2880.49
-2518.04
-2091.18
-1595.12
-1026.59
-384.565
319.594
1140.35
1986.12
2878.29
3787.97
4683.07
5529.74
6295.08
6952.42
7478.11
7849.79
8054.78
8081.2
7954.41
7668.41
7239.01
6689.38
6047.92
5346.83
4619.36
-4426.66
-4095.93
-3777.58
-3467.82
-3167.25
-2875.9
-2594.09
-2319.21
-2048.95
-1779.51
-1506.16
-1222.47
-921.069
-594.013
-229.837
178.58
644.895
1179.37
1791.94
2491.84
3283.73
4169.98
5142.83
6192.4
7288.78
8406.79
9496.93
10513.1
11410.2
12138.3
12640.9
12861.3
12723
12267.4
11435.2
10221.3
8686.82
6963.2
5202.18
3518.74
1995.86
681.665
-403.199
-1263.85
-1914.79
-2377.59
-2679.1
-2845.21
-2901.6
-2876.46
-2790.22
-2664.36
-2517.3
-2368.93
-2233.71
-2122.61
-2043.68
-2000.57
-1995.68
-2027.07
-2088.14
-2172.61
-2272.02
-2379.93
-2489.14
-2592.87
-2682.38
-2748.69
-2780.19
-2764.85
-2694.49
-2552.33
-2328.04
-1999.21
-1552.73
-976.878
-273.602
563.533
1535.61
2594.39
3708.12
4810.57
5848.98
6759.51
7495.21
8020.77
8304.38
8324.79
8128.29
7706.05
7087.62
6313.62
5437.44
4517.17
3602.71
2731.95
1931.38
1216
591.718
58.5008
-395.358
-782.645
-1117.06
-1411.13
-1675.74
-1919.12
-2146.81
-2362.33
-2567.08
-2761.02
-2943.44
-3113.75
-3271.95
-3417.96
-3551.62
-3672.55
-3780.01
-3872.95
-3949.95
-4009.67
-4050.87
-4071.81
-4070.16
-4045.17
-3993.19
-3910.38
-3792.5
-3635.18
-3433.96
-3184.1
-2880.54
-2518.1
-2091.25
-1595.2
-1026.67
-384.642
319.623
1140.16
1986.04
2878.23
3787.94
4683.07
5529.77
6295.15
6952.52
7478.23
7849.93
8054.92
8081.34
7954.54
7668.53
7239.1
6689.44
6047.95
5346.83
4619.34
-4426.5
-4095.91
-3777.57
-3467.81
-3167.24
-2875.89
-2594.09
-2319.21
-2048.96
-1779.51
-1506.17
-1222.5
-921.099
-594.052
-229.886
178.521
644.823
1179.28
1791.84
2491.73
3283.62
4169.87
5142.72
6192.3
7288.72
8406.76
9496.94
10513.2
11410.4
12138.5
12641.2
12861.6
12723.3
12267.7
11435.5
10221.5
8686.87
6963.12
5202
3518.5
1995.59
681.402
-403.444
-1264.07
-1914.98
-2377.75
-2679.23
-2845.31
-2901.67
-2876.52
-2790.26
-2664.38
-2517.3
-2368.92
-2233.69
-2122.58
-2043.65
-2000.53
-1995.64
-2027.04
-2088.11
-2172.59
-2272.01
-2379.93
-2489.15
-2592.88
-2682.4
-2748.72
-2780.24
-2764.91
-2694.56
-2552.42
-2328.14
-1999.33
-1552.87
-977.023
-273.752
563.387
1535.48
2594.29
3708.06
4810.57
5849.04
6759.63
7495.39
8020.99
8304.61
8325.02
8128.5
7706.22
7087.74
6313.68
5437.44
4517.13
3602.63
2731.85
1931.27
1215.89
591.619
58.4176
-395.428
-782.702
-1117.1
-1411.16
-1675.76
-1919.14
-2146.83
-2362.34
-2567.09
-2761.04
-2943.45
-3113.76
-3271.96
-3417.97
-3551.63
-3672.57
-3780.03
-3872.96
-3949.96
-4009.69
-4050.89
-4071.83
-4070.19
-4045.19
-3993.22
-3910.42
-3792.54
-3635.22
-3434.01
-3184.16
-2880.61
-2518.16
-2091.32
-1595.28
-1026.76
-384.728
319.652
1139.95
1985.96
2878.18
3787.91
4683.07
5529.81
6295.22
6952.63
7478.37
7850.08
8055.09
8081.5
7954.69
7668.66
7239.2
6689.51
6047.98
5346.83
4619.32
-4426.36
-4095.91
-3777.57
-3467.81
-3167.24
-2875.89
-2594.08
-2319.21
-2048.96
-1779.52
-1506.18
-1222.52
-921.132
-594.094
-229.94
178.455
644.744
1179.19
1791.74
2491.62
3283.5
4169.75
5142.61
6192.2
7288.64
8406.72
9496.95
10513.2
11410.5
12138.7
12641.5
12861.9
12723.7
12268.1
11435.8
10221.7
8686.92
6963.03
5201.8
3518.23
1995.29
681.111
-403.716
-1264.31
-1915.19
-2377.93
-2679.37
-2845.43
-2901.77
-2876.59
-2790.31
-2664.4
-2517.31
-2368.91
-2233.66
-2122.55
-2043.61
-2000.49
-1995.61
-2027.01
-2088.09
-2172.57
-2272
-2379.93
-2489.16
-2592.9
-2682.43
-2748.76
-2780.28
-2764.97
-2694.63
-2552.51
-2328.25
-1999.47
-1553.02
-977.185
-273.919
563.225
1535.33
2594.18
3708
4810.57
5849.11
6759.77
7495.59
8021.23
8304.87
8325.27
8128.73
7706.41
7087.87
6313.74
5437.44
4517.07
3602.54
2731.75
1931.15
1215.77
591.508
58.3253
-395.507
-782.766
-1117.15
-1411.2
-1675.79
-1919.16
-2146.84
-2362.35
-2567.1
-2761.05
-2943.47
-3113.77
-3271.98
-3417.99
-3551.64
-3672.58
-3780.04
-3872.98
-3949.98
-4009.71
-4050.91
-4071.85
-4070.21
-4045.22
-3993.26
-3910.46
-3792.58
-3635.27
-3434.06
-3184.22
-2880.67
-2518.24
-2091.4
-1595.37
-1026.86
-384.824
319.682
1139.72
1985.87
2878.11
3787.88
4683.07
5529.86
6295.3
6952.75
7478.52
7850.25
8055.27
8081.68
7954.86
7668.8
7239.31
6689.58
6048.02
5346.83
4619.29
-4426.2
-4095.9
-3777.55
-3467.8
-3167.23
-2875.89
-2594.08
-2319.21
-2048.97
-1779.53
-1506.2
-1222.54
-921.167
-594.141
-229.999
178.382
644.656
1179.09
1791.62
2491.49
3283.36
4169.61
5142.48
6192.09
7288.55
8406.68
9496.96
10513.3
11410.6
12138.9
12641.8
12862.3
12724.1
12268.5
11436.2
10221.9
8686.98
6962.92
5201.57
3517.94
1994.97
680.79
-404.015
-1264.58
-1915.42
-2378.12
-2679.53
-2845.56
-2901.86
-2876.66
-2790.35
-2664.43
-2517.31
-2368.89
-2233.64
-2122.51
-2043.57
-2000.45
-1995.56
-2026.98
-2088.06
-2172.56
-2272
-2379.93
-2489.17
-2592.92
-2682.46
-2748.8
-2780.34
-2765.04
-2694.72
-2552.61
-2328.37
-1999.61
-1553.18
-977.363
-274.102
563.046
1535.17
2594.06
3707.94
4810.57
5849.19
6759.92
7495.81
8021.5
8305.16
8325.56
8128.99
7706.61
7088.01
6313.81
5437.44
4517.02
3602.45
2731.63
1931.02
1215.65
591.386
58.2238
-395.594
-782.836
-1117.2
-1411.24
-1675.82
-1919.18
-2146.86
-2362.37
-2567.12
-2761.07
-2943.48
-3113.79
-3271.99
-3418
-3551.66
-3672.6
-3780.06
-3873
-3950
-4009.73
-4050.93
-4071.88
-4070.24
-4045.25
-3993.29
-3910.5
-3792.63
-3635.32
-3434.12
-3184.29
-2880.75
-2518.32
-2091.5
-1595.47
-1026.96
-384.93
319.71
1139.47
1985.77
2878.04
3787.84
4683.08
5529.9
6295.4
6952.88
7478.69
7850.44
8055.47
8081.88
7955.04
7668.96
7239.44
6689.67
6048.07
5346.84
4619.26
-4426.05
-4095.89
-3777.55
-3467.79
-3167.23
-2875.88
-2594.08
-2319.21
-2048.97
-1779.55
-1506.22
-1222.57
-921.205
-594.192
-230.065
178.303
644.56
1178.97
1791.5
2491.35
3283.22
4169.46
5142.33
6191.97
7288.46
8406.63
9496.98
10513.4
11410.8
12139.2
12642.1
12862.8
12724.6
12269
11436.6
10222.2
8687.05
6962.81
5201.33
3517.61
1994.62
680.44
-404.342
-1264.87
-1915.67
-2378.34
-2679.71
-2845.7
-2901.97
-2876.74
-2790.41
-2664.45
-2517.32
-2368.88
-2233.61
-2122.47
-2043.53
-2000.4
-1995.52
-2026.94
-2088.03
-2172.54
-2271.99
-2379.93
-2489.18
-2592.94
-2682.49
-2748.84
-2780.39
-2765.11
-2694.81
-2552.72
-2328.51
-1999.77
-1553.36
-977.556
-274.302
562.851
1535
2593.93
3707.87
4810.57
5849.28
6760.09
7496.04
8021.79
8305.48
8325.86
8129.27
7706.84
7088.16
6313.88
5437.44
4516.96
3602.35
2731.5
1930.88
1215.5
591.253
58.113
-395.688
-782.912
-1117.26
-1411.28
-1675.85
-1919.21
-2146.88
-2362.39
-2567.14
-2761.09
-2943.5
-3113.81
-3272.01
-3418.02
-3551.68
-3672.62
-3780.08
-3873.02
-3950.03
-4009.75
-4050.96
-4071.9
-4070.27
-4045.29
-3993.33
-3910.54
-3792.68
-3635.38
-3434.19
-3184.36
-2880.83
-2518.41
-2091.6
-1595.58
-1027.08
-385.046
319.737
1139.2
1985.65
2877.96
3787.8
4683.08
5529.96
6295.5
6953.03
7478.87
7850.65
8055.68
8082.09
7955.24
7669.13
7239.57
6689.76
6048.11
5346.84
4619.23
-4425.89
-4095.88
-3777.54
-3467.79
-3167.22
-2875.88
-2594.07
-2319.21
-2048.98
-1779.56
-1506.24
-1222.6
-921.248
-594.247
-230.136
178.217
644.457
1178.85
1791.36
2491.21
3283.06
4169.31
5142.18
6191.83
7288.36
8406.58
9496.99
10513.5
11411
12139.5
12642.5
12863.2
12725.1
12269.5
11437
10222.4
8687.12
6962.69
5201.07
3517.26
1994.23
680.061
-404.695
-1265.19
-1915.95
-2378.57
-2679.9
-2845.85
-2902.08
-2876.82
-2790.46
-2664.48
-2517.32
-2368.86
-2233.58
-2122.43
-2043.48
-2000.35
-1995.47
-2026.9
-2088
-2172.52
-2271.98
-2379.93
-2489.19
-2592.96
-2682.52
-2748.89
-2780.45
-2765.19
-2694.9
-2552.84
-2328.66
-1999.94
-1553.55
-977.766
-274.519
562.64
1534.81
2593.79
3707.79
4810.57
5849.37
6760.27
7496.3
8022.11
8305.82
8326.2
8129.57
7707.08
7088.33
6313.96
5437.44
4516.9
3602.23
2731.36
1930.73
1215.35
591.109
57.9929
-395.79
-782.995
-1117.33
-1411.33
-1675.88
-1919.23
-2146.9
-2362.4
-2567.15
-2761.1
-2943.52
-3113.83
-3272.03
-3418.04
-3551.7
-3672.64
-3780.1
-3873.04
-3950.05
-4009.78
-4050.99
-4071.93
-4070.3
-4045.33
-3993.38
-3910.59
-3792.74
-3635.44
-3434.26
-3184.44
-2880.92
-2518.51
-2091.71
-1595.7
-1027.21
-385.171
319.761
1138.91
1985.53
2877.88
3787.75
4683.08
5530.01
6295.61
6953.18
7479.06
7850.87
8055.92
8082.32
7955.46
7669.32
7239.72
6689.86
6048.16
5346.85
4619.2
-4425.68
-4095.87
-3777.53
-3467.78
-3167.21
-2875.86
-2594.07
-2319.21
-2048.99
-1779.58
-1506.28
-1222.65
-921.317
-594.336
-230.252
178.077
644.288
1178.66
1791.14
2490.97
3282.81
4169.05
5141.94
6191.62
7288.2
8406.51
9497.01
10513.6
11411.3
12139.9
12643.1
12864
12725.9
12270.3
11437.7
10222.9
8687.24
6962.5
5200.64
3516.7
1993.61
679.449
-405.266
-1265.7
-1916.39
-2378.94
-2680.21
-2846.1
-2902.28
-2876.96
-2790.56
-2664.53
-2517.33
-2368.84
-2233.53
-2122.36
-2043.4
-2000.27
-1995.39
-2026.83
-2087.95
-2172.48
-2271.96
-2379.93
-2489.2
-2593
-2682.58
-2748.97
-2780.55
-2765.32
-2695.06
-2553.04
-2328.89
-2000.22
-1553.87
-978.106
-274.869
562.299
1534.51
2593.56
3707.66
4810.57
5849.52
6760.57
7496.72
8022.61
8306.37
8326.74
8130.06
7707.48
7088.6
6314.1
5437.45
4516.79
3602.05
2731.13
1930.48
1215.1
590.876
57.7993
-395.955
-783.128
-1117.43
-1411.41
-1675.94
-1919.27
-2146.93
-2362.43
-2567.18
-2761.13
-2943.55
-3113.86
-3272.06
-3418.07
-3551.73
-3672.67
-3780.14
-3873.08
-3950.09
-4009.82
-4051.03
-4071.98
-4070.36
-4045.39
-3993.45
-3910.67
-3792.83
-3635.54
-3434.37
-3184.56
-2881.06
-2518.67
-2091.88
-1595.89
-1027.41
-385.373
319.791
1138.46
1985.34
2877.74
3787.68
4683.09
5530.1
6295.78
6953.44
7479.38
7851.23
8056.3
8082.7
7955.81
7669.62
7239.96
6690.02
6048.24
5346.85
4619.14
-4425.39
-4095.84
-3777.51
-3467.76
-3167.19
-2875.85
-2594.06
-2319.21
-2049
-1779.61
-1506.33
-1222.73
-921.42
-594.473
-230.426
177.865
644.033
1178.36
1790.81
2490.6
3282.42
4168.65
5141.56
6191.3
7287.95
8406.38
9497.05
10513.9
11411.7
12140.6
12644.1
12865.1
12727.1
12271.5
11438.7
10223.5
8687.41
6962.2
5199.99
3515.84
1992.67
678.517
-406.137
-1266.48
-1917.07
-2379.51
-2680.67
-2846.47
-2902.55
-2877.17
-2790.7
-2664.61
-2517.35
-2368.8
-2233.45
-2122.25
-2043.28
-2000.14
-1995.27
-2026.73
-2087.87
-2172.43
-2271.93
-2379.93
-2489.23
-2593.05
-2682.66
-2749.09
-2780.71
-2765.52
-2695.3
-2553.34
-2329.25
-2000.65
-1554.35
-978.623
-275.402
561.779
1534.05
2593.21
3707.47
4810.57
5849.74
6761.02
7497.36
8023.39
8307.21
8327.56
8130.81
7708.08
7089.01
6314.29
5437.45
4516.63
3601.78
2730.78
1930.1
1214.73
590.522
57.5042
-396.207
-783.332
-1117.59
-1411.52
-1676.02
-1919.34
-2146.98
-2362.48
-2567.23
-2761.18
-2943.6
-3113.91
-3272.11
-3418.12
-3551.78
-3672.72
-3780.19
-3873.14
-3950.15
-4009.89
-4051.1
-4072.06
-4070.44
-4045.48
-3993.55
-3910.8
-3792.96
-3635.7
-3434.54
-3184.76
-2881.27
-2518.91
-2092.15
-1596.19
-1027.73
-385.682
319.813
1137.79
1985.04
2877.53
3787.57
4683.1
5530.24
6296.05
6953.82
7479.86
7851.78
8056.88
8083.27
7956.34
7670.08
7240.32
6690.26
6048.37
5346.86
4619.06
-4425.12
-4095.82
-3777.49
-3467.75
-3167.18
-2875.84
-2594.05
-2319.22
-2049.02
-1779.64
-1506.38
-1222.81
-921.535
-594.625
-230.62
177.629
643.748
1178.03
1790.43
2490.19
3281.98
4168.21
5141.14
6190.93
7287.67
8406.25
9497.08
10514.1
11412.3
12141.4
12645.1
12866.3
12728.4
12272.8
11439.9
10224.3
8687.6
6961.87
5199.26
3514.88
1991.61
677.467
-407.116
-1267.36
-1917.83
-2380.15
-2681.2
-2846.89
-2902.89
-2877.41
-2790.85
-2664.69
-2517.36
-2368.76
-2233.36
-2122.14
-2043.14
-2000
-1995.14
-2026.61
-2087.78
-2172.37
-2271.9
-2379.93
-2489.26
-2593.11
-2682.76
-2749.23
-2780.88
-2765.74
-2695.57
-2553.67
-2329.66
-2001.13
-1554.89
-979.205
-276.003
561.195
1533.53
2592.82
3707.26
4810.57
5850
6761.52
7498.07
8024.26
8308.16
8328.48
8131.65
7708.76
7089.47
6314.52
5437.45
4516.45
3601.46
2730.39
1929.68
1214.31
590.123
57.1717
-396.49
-783.561
-1117.76
-1411.65
-1676.12
-1919.41
-2147.04
-2362.53
-2567.28
-2761.23
-2943.66
-3113.97
-3272.17
-3418.17
-3551.83
-3672.78
-3780.25
-3873.2
-3950.22
-4009.96
-4051.18
-4072.14
-4070.53
-4045.59
-3993.67
-3910.93
-3793.12
-3635.87
-3434.74
-3184.97
-2881.52
-2519.18
-2092.45
-1596.52
-1028.08
-386.029
319.808
1137.06
1984.71
2877.3
3787.45
4683.11
5530.4
6296.35
6954.26
7480.41
7852.4
8057.53
8083.92
7956.94
7670.6
7240.72
6690.54
6048.51
5346.88
4618.96
-4424.86
-4095.8
-3777.47
-3467.73
-3167.15
-2875.82
-2594.04
-2319.22
-2049.04
-1779.68
-1506.44
-1222.9
-921.665
-594.794
-230.835
177.366
643.43
1177.66
1790.02
2489.73
3281.5
4167.72
5140.67
6190.52
7287.36
8406.1
9497.13
10514.4
11412.8
12142.2
12646.3
12867.8
12730
12274.4
11441.2
10225.1
8687.82
6961.49
5198.45
3513.81
1990.42
676.3
-408.206
-1268.34
-1918.67
-2380.86
-2681.78
-2847.36
-2903.23
-2877.68
-2791.03
-2664.78
-2517.38
-2368.71
-2233.27
-2122.01
-2042.99
-1999.84
-1994.99
-2026.49
-2087.69
-2172.31
-2271.87
-2379.93
-2489.29
-2593.18
-2682.86
-2749.38
-2781.06
-2765.99
-2695.87
-2554.04
-2330.11
-2001.66
-1555.49
-979.851
-276.67
560.545
1532.95
2592.38
3707.02
4810.57
5850.28
6762.08
7498.87
8025.23
8309.21
8329.51
8132.58
7709.51
7089.98
6314.77
5437.45
4516.25
3601.12
2729.96
1929.21
1213.84
589.68
56.8028
-396.804
-783.816
-1117.96
-1411.8
-1676.23
-1919.49
-2147.1
-2362.59
-2567.34
-2761.29
-2943.72
-3114.03