/*--------------------------------*- C++ -*----------------------------------*\
| =========                 |                                                 |
| \\      /  F ield         | OpenFOAM: The Open Source CFD Toolbox           |
|  \\    /   O peration     | Version:  v1912                                 |
|   \\  /    A nd           | Website:  www.openfoam.com                      |
|    \\/     M anipulation  |                                                 |
\*---------------------------------------------------------------------------*/
FoamFile
{
    version     2.0;
    format      ascii;
    class       volSymmTensorField;
    location    "90";
    object      R;
}
// * * * * * * * * * * * * * * * * * * * * * * * * * * * * * * * * * * * * * //

dimensions      [0 2 -2 0 0 0 0];


internalField   nonuniform List<symmTensor> 
14268
(
(4.73647e-10 -2.45164e-11 0 5.80496e-10 0 5.26818e-10)
(4.74882e-10 -2.40651e-11 0 5.82573e-10 0 5.28474e-10)
(4.78072e-10 -2.40493e-11 0 5.86626e-10 0 5.32141e-10)
(4.82023e-10 -2.28965e-11 0 5.92975e-10 0 5.37322e-10)
(4.82375e-10 -2.15991e-11 0 5.94402e-10 0 5.38287e-10)
(4.72019e-10 -1.43675e-11 0 5.79375e-10 0 5.2522e-10)
(4.48644e-10 6.03107e-12 0 5.39776e-10 0 4.92468e-10)
(4.32022e-10 2.06887e-11 0 5.18493e-10 0 4.74654e-10)
(4.8653e-09 -2.62182e-10 0 6.23592e-09 0 5.54634e-09)
(4.83736e-09 -2.54941e-10 0 6.19092e-09 0 5.50976e-09)
(4.8218e-09 -2.59768e-10 0 6.15466e-09 0 5.48492e-09)
(4.80073e-09 -2.28049e-10 0 6.131e-09 0 5.46536e-09)
(4.75703e-09 -1.86929e-10 0 6.07604e-09 0 5.41832e-09)
(4.63279e-09 -1.09308e-10 0 5.89563e-09 0 5.25436e-09)
(4.43459e-09 8.76138e-11 0 5.50263e-09 0 4.92817e-09)
(4.25752e-09 2.35122e-10 0 5.26833e-09 0 4.71136e-09)
(1.35277e-08 -1.21959e-10 0 1.74803e-08 0 1.5484e-08)
(1.34533e-08 -1.36564e-10 0 1.73163e-08 0 1.53636e-08)
(1.33808e-08 -1.83013e-10 0 1.71579e-08 0 1.52503e-08)
(1.3273e-08 -6.97127e-11 0 1.7026e-08 0 1.51365e-08)
(1.31283e-08 1.13061e-10 0 1.6784e-08 0 1.4946e-08)
(1.29004e-08 2.87473e-10 0 1.62872e-08 0 1.45757e-08)
(1.26725e-08 3.61627e-10 0 1.54274e-08 0 1.39692e-08)
(1.23114e-08 3.15996e-10 0 1.43947e-08 0 1.34899e-08)
(1.96702e-08 -3.23877e-10 0 2.53887e-08 0 2.24676e-08)
(1.95921e-08 -3.29139e-10 0 2.51512e-08 0 2.23041e-08)
(1.94926e-08 -3.78638e-10 0 2.49434e-08 0 2.21449e-08)
(1.93217e-08 -1.56942e-10 0 2.47614e-08 0 2.19744e-08)
(1.91917e-08 2.30118e-10 0 2.43833e-08 0 2.17362e-08)
(1.91423e-08 5.61953e-10 0 2.39342e-08 0 2.14557e-08)
(1.92309e-08 7.00793e-10 0 2.34914e-08 0 2.10909e-08)
(1.89949e-08 5.85878e-10 0 2.33795e-08 0 2.06809e-08)
(2.27737e-08 -6.93002e-11 0 2.90897e-08 0 2.59535e-08)
(2.28153e-08 -1.54143e-11 0 2.89395e-08 0 2.59146e-08)
(2.28806e-08 8.1061e-11 0 2.88847e-08 0 2.59327e-08)
(2.30439e-08 4.6999e-10 0 2.89162e-08 0 2.60528e-08)
(2.33535e-08 1.06208e-09 0 2.88833e-08 0 2.6163e-08)
(2.36217e-08 1.44567e-09 0 2.87202e-08 0 2.61517e-08)
(2.39706e-08 1.65238e-09 0 2.76059e-08 0 2.5829e-08)
(2.36167e-08 1.23564e-09 0 2.56815e-08 0 2.52734e-08)
(2.47586e-08 1.05998e-09 0 3.15364e-08 0 2.80985e-08)
(2.52014e-08 1.41138e-09 0 3.16953e-08 0 2.8363e-08)
(2.58769e-08 1.98229e-09 0 3.19955e-08 0 2.88359e-08)
(2.70077e-08 3.07029e-09 0 3.26204e-08 0 2.97012e-08)
(2.88245e-08 4.47506e-09 0 3.28496e-08 0 3.07293e-08)
(3.02952e-08 5.55584e-09 0 3.29452e-08 0 3.14523e-08)
(3.09809e-08 5.93484e-09 0 3.29283e-08 0 3.16389e-08)
(2.98586e-08 3.97716e-09 0 3.34054e-08 0 3.08272e-08)
(2.7787e-08 4.94257e-09 0 3.33251e-08 0 3.05777e-08)
(2.9313e-08 6.14269e-09 0 3.37718e-08 0 3.15632e-08)
(3.20222e-08 8.04269e-09 0 3.48279e-08 0 3.33533e-08)
(3.6811e-08 1.13998e-08 0 3.71461e-08 0 3.66771e-08)
(4.48282e-08 1.55999e-08 0 3.96911e-08 0 4.16884e-08)
(5.13063e-08 1.87269e-08 0 4.14161e-08 0 4.5713e-08)
(5.30279e-08 1.94512e-08 0 4.17538e-08 0 4.67711e-08)
(4.71563e-08 1.47542e-08 0 3.65813e-08 0 4.24418e-08)
(3.66934e-08 1.40775e-08 0 3.76145e-08 0 3.66841e-08)
(4.21517e-08 1.72451e-08 0 3.9651e-08 0 4.02365e-08)
(5.16857e-08 2.23484e-08 0 4.30854e-08 0 4.65152e-08)
(6.89391e-08 3.10597e-08 0 4.92934e-08 0 5.7954e-08)
(9.86027e-08 4.36165e-08 0 5.9126e-08 0 7.71935e-08)
(1.27005e-07 5.48187e-08 0 6.83638e-08 0 9.53431e-08)
(1.36437e-07 5.8472e-08 0 7.25224e-08 0 1.01637e-07)
(1.14754e-07 4.67342e-08 0 6.7862e-08 0 8.81362e-08)
(5.42978e-08 2.65796e-08 0 4.29927e-08 0 4.7957e-08)
(6.73209e-08 3.27742e-08 0 4.72717e-08 0 5.63655e-08)
(9.02318e-08 4.27893e-08 0 5.50817e-08 0 7.11921e-08)
(1.32076e-07 6.02269e-08 0 6.97705e-08 0 9.84351e-08)
(2.05316e-07 8.85734e-08 0 9.53662e-08 0 1.46158e-07)
(2.74744e-07 1.14083e-07 0 1.18492e-07 0 1.90893e-07)
(3.00915e-07 1.23285e-07 0 1.27158e-07 0 2.07764e-07)
(2.67521e-07 1.08442e-07 0 1.11277e-07 0 1.8605e-07)
(6.48495e-08 3.19533e-08 0 4.67138e-08 0 5.47232e-08)
(8.24064e-08 3.96644e-08 0 5.24101e-08 0 6.59231e-08)
(1.13201e-07 5.23357e-08 0 6.26376e-08 0 8.5699e-08)
(1.69543e-07 7.45053e-08 0 8.15982e-08 0 1.22042e-07)
(2.66963e-07 1.11113e-07 0 1.14493e-07 0 1.8506e-07)
(3.55611e-07 1.43203e-07 0 1.44046e-07 0 2.42316e-07)
(3.92007e-07 1.56186e-07 0 1.57353e-07 0 2.66081e-07)
(3.69502e-07 1.46963e-07 0 1.52848e-07 0 2.52169e-07)
(5.99453e-08 2.75626e-08 0 4.46203e-08 0 5.13715e-08)
(7.55245e-08 3.41968e-08 0 4.96014e-08 0 6.12763e-08)
(1.02613e-07 4.49673e-08 0 5.83393e-08 0 7.85956e-08)
(1.52037e-07 6.38422e-08 0 7.4913e-08 0 1.10502e-07)
(2.31308e-07 9.33766e-08 0 1.02266e-07 0 1.62175e-07)
(2.92499e-07 1.15642e-07 0 1.2465e-07 0 2.02519e-07)
(3.14691e-07 1.2353e-07 0 1.34434e-07 0 2.1781e-07)
(3.04147e-07 1.18815e-07 0 1.28667e-07 0 2.11841e-07)
(4.1923e-08 1.39781e-08 0 3.78879e-08 0 3.95233e-08)
(5.01674e-08 1.72417e-08 0 4.01838e-08 0 4.46766e-08)
(6.41092e-08 2.2294e-08 0 4.4498e-08 0 5.35468e-08)
(8.81765e-08 3.07098e-08 0 5.27132e-08 0 6.91911e-08)
(1.27176e-07 4.44753e-08 0 6.74302e-08 0 9.52118e-08)
(1.59478e-07 5.54806e-08 0 8.07535e-08 0 1.17312e-07)
(1.71659e-07 5.85957e-08 0 8.74308e-08 0 1.26423e-07)
(1.65677e-07 5.50945e-08 0 8.94643e-08 0 1.24179e-07)
(3.48419e-08 5.35887e-09 0 3.49496e-08 0 3.46888e-08)
(3.98762e-08 6.59313e-09 0 3.62744e-08 0 3.77677e-08)
(4.83042e-08 8.42726e-09 0 3.86468e-08 0 4.30298e-08)
(6.21984e-08 1.12641e-08 0 4.30961e-08 0 5.19888e-08)
(8.45598e-08 1.60024e-08 0 5.16342e-08 0 6.70955e-08)
(1.0536e-07 2.01661e-08 0 6.09094e-08 0 8.17126e-08)
(1.14181e-07 2.06648e-08 0 6.61053e-08 0 8.84002e-08)
(1.119e-07 1.826e-08 0 6.6305e-08 0 8.78268e-08)
(3.31999e-08 -9.49135e-10 0 3.41626e-08 0 3.33771e-08)
(3.73514e-08 -1.10439e-09 0 3.50489e-08 0 3.582e-08)
(4.42794e-08 -1.63468e-09 0 3.6799e-08 0 4.00133e-08)
(5.56428e-08 -2.76256e-09 0 4.01439e-08 0 4.71376e-08)
(7.37107e-08 -4.83203e-09 0 4.67278e-08 0 5.90772e-08)
(9.17055e-08 -7.45359e-09 0 5.40682e-08 0 7.13927e-08)
(1.00619e-07 -8.91744e-09 0 5.81707e-08 0 7.77792e-08)
(9.9355e-08 -7.39443e-09 0 5.93973e-08 0 7.78419e-08)
(3.26819e-08 -8.37139e-09 0 3.25038e-08 0 3.25537e-08)
(3.65138e-08 -1.0317e-08 0 3.30051e-08 0 3.46706e-08)
(4.3136e-08 -1.32592e-08 0 3.41159e-08 0 3.84444e-08)
(5.492e-08 -1.80537e-08 0 3.64574e-08 0 4.5347e-08)
(7.61486e-08 -2.59374e-08 0 4.15873e-08 0 5.81929e-08)
(9.84461e-08 -3.27304e-08 0 4.77083e-08 0 7.2016e-08)
(1.08559e-07 -3.3785e-08 0 5.1243e-08 0 7.8573e-08)
(9.97759e-08 -2.4173e-08 0 5.07613e-08 0 7.45208e-08)
(2.8387e-08 -6.58613e-09 0 3.23901e-08 0 3.02746e-08)
(3.00985e-08 -7.79106e-09 0 3.25471e-08 0 3.11671e-08)
(3.30278e-08 -9.46398e-09 0 3.30052e-08 0 3.2785e-08)
(3.80293e-08 -1.19588e-08 0 3.4096e-08 0 3.56801e-08)
(4.63084e-08 -1.55181e-08 0 3.63075e-08 0 4.06685e-08)
(5.91124e-08 -1.93618e-08 0 4.02497e-08 0 4.86379e-08)
(6.9483e-08 -2.01105e-08 0 4.35185e-08 0 5.5178e-08)
(7.18501e-08 -1.85986e-08 0 4.38851e-08 0 5.67336e-08)
(2.68705e-08 -4.96237e-09 0 3.22241e-08 0 2.94941e-08)
(2.77873e-08 -5.75034e-09 0 3.21402e-08 0 2.99118e-08)
(2.93436e-08 -6.88176e-09 0 3.21976e-08 0 3.07118e-08)
(3.20199e-08 -8.51516e-09 0 3.25451e-08 0 3.22059e-08)
(3.66053e-08 -1.10123e-08 0 3.34632e-08 0 3.49197e-08)
(4.48632e-08 -1.47942e-08 0 3.54734e-08 0 3.99407e-08)
(5.48992e-08 -1.83489e-08 0 3.81212e-08 0 4.60221e-08)
(6.02157e-08 -2.05215e-08 0 3.88578e-08 0 4.91066e-08)
(2.65611e-08 -5.21524e-09 0 3.23204e-08 0 2.93898e-08)
(2.71839e-08 -5.98827e-09 0 3.22107e-08 0 2.96403e-08)
(2.81331e-08 -6.98458e-09 0 3.21805e-08 0 3.00889e-08)
(2.96506e-08 -8.36083e-09 0 3.23657e-08 0 3.09046e-08)
(3.23053e-08 -1.03942e-08 0 3.293e-08 0 3.24406e-08)
(3.76712e-08 -1.38492e-08 0 3.40577e-08 0 3.55715e-08)
(4.47444e-08 -1.77907e-08 0 3.54552e-08 0 3.9607e-08)
(4.84751e-08 -1.93854e-08 0 3.57088e-08 0 4.16676e-08)
(2.60937e-08 -4.34462e-09 0 3.24313e-08 0 2.91974e-08)
(2.63997e-08 -4.69775e-09 0 3.23045e-08 0 2.92828e-08)
(2.68119e-08 -5.16509e-09 0 3.21817e-08 0 2.94251e-08)
(2.74911e-08 -5.89137e-09 0 3.21351e-08 0 2.97446e-08)
(2.87915e-08 -7.05852e-09 0 3.22456e-08 0 3.0448e-08)
(3.125e-08 -8.68144e-09 0 3.28473e-08 0 3.18839e-08)
(3.46383e-08 -1.04882e-08 0 3.34627e-08 0 3.37563e-08)
(3.62176e-08 -1.11018e-08 0 3.32912e-08 0 3.44973e-08)
(2.55028e-08 -3.19702e-09 0 3.20634e-08 0 2.88272e-08)
(2.56712e-08 -3.39946e-09 0 3.19196e-08 0 2.88403e-08)
(2.5902e-08 -3.65933e-09 0 3.17821e-08 0 2.88804e-08)
(2.62391e-08 -4.10586e-09 0 3.17203e-08 0 2.90095e-08)
(2.68863e-08 -4.79142e-09 0 3.17106e-08 0 2.93196e-08)
(2.80111e-08 -5.47914e-09 0 3.20107e-08 0 2.9959e-08)
(2.97458e-08 -6.3671e-09 0 3.2291e-08 0 3.08469e-08)
(3.07625e-08 -6.39403e-09 0 3.199e-08 0 3.11929e-08)
(2.53645e-08 -2.51237e-09 0 3.21827e-08 0 2.87702e-08)
(2.54743e-08 -2.62697e-09 0 3.20406e-08 0 2.87599e-08)
(2.56133e-08 -2.77352e-09 0 3.18962e-08 0 2.87626e-08)
(2.59028e-08 -3.15317e-09 0 3.16906e-08 0 2.88219e-08)
(2.63851e-08 -3.67974e-09 0 3.1533e-08 0 2.90003e-08)
(2.71144e-08 -3.98777e-09 0 3.17182e-08 0 2.93977e-08)
(2.83019e-08 -4.45828e-09 0 3.18262e-08 0 2.99564e-08)
(2.9185e-08 -4.42652e-09 0 3.12567e-08 0 3.01851e-08)
(2.53165e-08 -2.28887e-09 0 3.22182e-08 0 2.87551e-08)
(2.54337e-08 -2.37153e-09 0 3.20432e-08 0 2.87328e-08)
(2.55308e-08 -2.44512e-09 0 3.19156e-08 0 2.87239e-08)
(2.56833e-08 -2.58677e-09 0 3.17583e-08 0 2.87316e-08)
(2.60804e-08 -2.92449e-09 0 3.14699e-08 0 2.88091e-08)
(2.65519e-08 -2.95794e-09 0 3.1453e-08 0 2.90103e-08)
(2.72934e-08 -3.1204e-09 0 3.1354e-08 0 2.92851e-08)
(2.78347e-08 -3.07527e-09 0 3.0856e-08 0 2.93825e-08)
(2.52269e-08 -1.97445e-09 0 3.2351e-08 0 2.87818e-08)
(2.52971e-08 -1.95813e-09 0 3.22193e-08 0 2.87446e-08)
(2.53948e-08 -1.84563e-09 0 3.20411e-08 0 2.86909e-08)
(2.54858e-08 -1.54629e-09 0 3.18519e-08 0 2.86201e-08)
(2.5597e-08 -1.17344e-09 0 3.16573e-08 0 2.85449e-08)
(2.57896e-08 -1.06404e-09 0 3.14061e-08 0 2.85056e-08)
(2.61204e-08 -8.60546e-10 0 3.10653e-08 0 2.84746e-08)
(2.63922e-08 -5.4559e-10 0 3.06223e-08 0 2.83994e-08)
(2.54808e-08 -2.76635e-09 0 3.22876e-08 0 2.89962e-08)
(2.55113e-08 -2.7166e-09 0 3.2112e-08 0 2.89199e-08)
(2.55888e-08 -2.58538e-09 0 3.18447e-08 0 2.88203e-08)
(2.57083e-08 -2.3819e-09 0 3.15096e-08 0 2.87021e-08)
(2.58351e-08 -2.16757e-09 0 3.11683e-08 0 2.8594e-08)
(2.59746e-08 -1.91448e-09 0 3.08722e-08 0 2.8499e-08)
(2.62085e-08 -1.68418e-09 0 3.05293e-08 0 2.84208e-08)
(2.64937e-08 -1.33528e-09 0 2.98814e-08 0 2.82679e-08)
(2.67014e-08 -3.85656e-09 0 3.29672e-08 0 3.01056e-08)
(2.66655e-08 -3.84646e-09 0 3.28224e-08 0 2.99824e-08)
(2.67028e-08 -3.67684e-09 0 3.24981e-08 0 2.982e-08)
(2.67147e-08 -3.516e-09 0 3.21862e-08 0 2.96318e-08)
(2.67698e-08 -3.41323e-09 0 3.18328e-08 0 2.94352e-08)
(2.68916e-08 -3.31455e-09 0 3.13534e-08 0 2.92172e-08)
(2.69903e-08 -3.18644e-09 0 3.08861e-08 0 2.90147e-08)
(2.71112e-08 -2.80074e-09 0 3.03811e-08 0 2.87661e-08)
(2.95589e-08 -3.62162e-09 0 3.26104e-08 0 3.23033e-08)
(2.93274e-08 -3.78509e-09 0 3.24498e-08 0 3.20314e-08)
(2.91118e-08 -3.55203e-09 0 3.20772e-08 0 3.17087e-08)
(2.89496e-08 -3.52579e-09 0 3.15056e-08 0 3.12904e-08)
(2.87629e-08 -3.6579e-09 0 3.10383e-08 0 3.08778e-08)
(2.85564e-08 -3.75253e-09 0 3.06527e-08 0 3.0427e-08)
(2.83229e-08 -3.66933e-09 0 3.01826e-08 0 2.99501e-08)
(2.81029e-08 -3.55373e-09 0 2.97831e-08 0 2.94781e-08)
(3.72101e-08 -1.20688e-09 0 3.20541e-08 0 3.83072e-08)
(3.65688e-08 -1.66788e-09 0 3.18774e-08 0 3.76732e-08)
(3.58896e-08 -1.36278e-09 0 3.14618e-08 0 3.69944e-08)
(3.51116e-08 -1.48727e-09 0 3.10566e-08 0 3.61415e-08)
(3.42981e-08 -1.97562e-09 0 3.05862e-08 0 3.5203e-08)
(3.32169e-08 -2.58524e-09 0 3.02384e-08 0 3.41018e-08)
(3.19824e-08 -2.90651e-09 0 2.96935e-08 0 3.27873e-08)
(3.08598e-08 -3.25496e-09 0 2.97052e-08 0 3.16036e-08)
(4.75648e-08 3.55439e-09 0 2.9865e-08 0 4.63047e-08)
(4.66316e-08 2.97872e-09 0 2.94716e-08 0 4.53442e-08)
(4.54501e-08 3.0923e-09 0 2.90439e-08 0 4.42882e-08)
(4.40472e-08 2.6981e-09 0 2.85155e-08 0 4.29234e-08)
(4.24248e-08 1.75588e-09 0 2.77538e-08 0 4.12732e-08)
(4.02502e-08 6.7351e-10 0 2.745e-08 0 3.93698e-08)
(3.78646e-08 -8.0855e-11 0 2.72794e-08 0 3.73358e-08)
(3.55621e-08 -1.25222e-09 0 2.80128e-08 0 3.52981e-08)
(5.37669e-08 7.98634e-09 0 2.69084e-08 0 5.09802e-08)
(5.2792e-08 7.48105e-09 0 2.63513e-08 0 4.99369e-08)
(5.13895e-08 7.16101e-09 0 2.59595e-08 0 4.86696e-08)
(4.95906e-08 6.43076e-09 0 2.55123e-08 0 4.70109e-08)
(4.73251e-08 5.08129e-09 0 2.47339e-08 0 4.4871e-08)
(4.47143e-08 3.78058e-09 0 2.43963e-08 0 4.26377e-08)
(4.22202e-08 2.79133e-09 0 2.46822e-08 0 4.06851e-08)
(4.00601e-08 1.21969e-09 0 2.60622e-08 0 3.89605e-08)
(5.79127e-08 1.54167e-08 0 2.16306e-08 0 5.41769e-08)
(5.68064e-08 1.44835e-08 0 2.1223e-08 0 5.30318e-08)
(5.51593e-08 1.3377e-08 0 2.10418e-08 0 5.15148e-08)
(5.31068e-08 1.19864e-08 0 2.06853e-08 0 4.96215e-08)
(5.0497e-08 1.00181e-08 0 1.99455e-08 0 4.71972e-08)
(4.78601e-08 8.29063e-09 0 1.96411e-08 0 4.49466e-08)
(4.56871e-08 6.83885e-09 0 2.03378e-08 0 4.32731e-08)
(4.4283e-08 5.03057e-09 0 2.18875e-08 0 4.2298e-08)
(6.542e-08 3.75546e-08 0 1.14882e-08 0 6.10407e-08)
(6.36736e-08 3.45411e-08 0 1.1638e-08 0 5.92857e-08)
(6.14672e-08 3.16407e-08 0 1.17344e-08 0 5.72529e-08)
(5.88797e-08 2.83017e-08 0 1.17513e-08 0 5.49148e-08)
(5.56764e-08 2.39538e-08 0 1.16418e-08 0 5.20056e-08)
(5.2853e-08 2.00636e-08 0 1.16343e-08 0 4.95194e-08)
(5.1054e-08 1.71393e-08 0 1.23275e-08 0 4.80041e-08)
(5.02036e-08 1.3813e-08 0 1.37492e-08 0 4.7409e-08)
(9.08637e-08 1.02241e-07 0 1e-15 0 8.5448e-08)
(8.66109e-08 9.47876e-08 0 1e-15 0 8.16881e-08)
(8.21927e-08 8.68692e-08 0 1e-15 0 7.77017e-08)
(7.78625e-08 7.88888e-08 0 1e-15 0 7.3905e-08)
(7.32495e-08 6.87481e-08 0 1e-15 0 6.96139e-08)
(6.89216e-08 5.81405e-08 0 1e-15 0 6.54221e-08)
(6.6202e-08 4.97039e-08 0 1e-15 0 6.26856e-08)
(6.54394e-08 4.14839e-08 0 1e-15 0 6.17705e-08)
(1.66348e-07 2.79024e-07 0 1e-15 0 1.56367e-07)
(1.55701e-07 2.61693e-07 0 1e-15 0 1.47221e-07)
(1.45721e-07 2.42816e-07 0 1e-15 0 1.38412e-07)
(1.37066e-07 2.24055e-07 0 1e-15 0 1.30588e-07)
(1.29428e-07 2.01666e-07 0 1e-15 0 1.22867e-07)
(1.22163e-07 1.74282e-07 0 1e-15 0 1.14644e-07)
(1.1769e-07 1.50804e-07 0 1e-15 0 1.09e-07)
(1.17797e-07 1.31895e-07 0 1e-15 0 1.07528e-07)
(3.58929e-07 8.31771e-07 0 1e-15 0 3.48188e-07)
(3.61018e-07 7.80296e-07 0 1e-15 0 3.38953e-07)
(3.63536e-07 7.23248e-07 0 1e-15 0 3.29722e-07)
(3.65054e-07 6.64047e-07 0 1e-15 0 3.20621e-07)
(3.63064e-07 5.97437e-07 0 1e-15 0 3.08792e-07)
(3.56042e-07 5.26664e-07 0 1e-15 0 2.94683e-07)
(3.62489e-07 4.609e-07 0 1e-15 0 2.90794e-07)
(3.71831e-07 4.03815e-07 0 1e-15 0 2.90757e-07)
(1.26592e-06 3.12542e-06 0 1e-15 0 1.94699e-06)
(1.24596e-06 3.14211e-06 0 1e-15 0 1.76858e-06)
(1.19298e-06 3.03131e-06 0 1e-15 0 1.51553e-06)
(1.20863e-06 2.91213e-06 0 1e-15 0 1.33615e-06)
(1.41627e-06 2.69463e-06 0 1e-15 0 1.28126e-06)
(1.73271e-06 2.25124e-06 0 1e-15 0 1.34974e-06)
(1.91178e-06 1.84969e-06 0 1e-15 0 1.39816e-06)
(1.98021e-06 1.52071e-06 0 1e-15 0 1.39872e-06)
(3.46088e-05 1.58013e-05 0 1e-15 0 4.12098e-05)
(3.15758e-05 1.58311e-05 0 1e-15 0 3.85359e-05)
(2.44207e-05 1.33111e-05 0 1e-15 0 3.07162e-05)
(1.50546e-05 9.21217e-06 0 1e-15 0 1.97109e-05)
(6.89318e-06 5.5018e-06 0 1e-15 0 9.53714e-06)
(3.26105e-06 3.51584e-06 0 1e-15 0 4.37294e-06)
(2.8232e-06 2.62171e-06 0 1e-15 0 3.07377e-06)
(3.13076e-06 1.76266e-06 0 1e-15 0 2.81958e-06)
(0.000454835 0.000147166 0 1e-15 0 0.00042389)
(0.000445391 0.00014322 0 1e-15 0 0.000420278)
(0.000380859 0.000120787 0 1e-15 0 0.000369516)
(0.000266042 7.7832e-05 0 1e-15 0 0.000267646)
(0.000130702 3.18599e-05 0 1e-15 0 0.000137502)
(4.34581e-05 9.10696e-06 0 1e-15 0 4.90949e-05)
(1.87979e-05 4.15178e-06 0 1e-15 0 2.2585e-05)
(1.52286e-05 3.51202e-06 0 1e-15 0 1.85342e-05)
(0.00419428 0.00125251 0 0.00176723 0 0.00326351)
(0.0042361 0.00127031 0 0.00181032 0 0.0033507)
(0.00389561 0.00117455 0 0.00169629 0 0.00317054)
(0.00314514 0.00091432 0 0.00136687 0 0.00266849)
(0.00211229 0.000534868 0 0.00085957 0 0.00189483)
(0.00111683 0.000227276 0 0.000307159 0 0.00106765)
(0.000576874 0.000144546 0 4.65811e-05 0 0.000585783)
(0.000332955 0.000103235 0 4.13866e-05 0 0.000350114)
(0.0109813 0.00385274 0 0.00497219 0 0.00793814)
(0.011698 0.00417222 0 0.00546059 0 0.00851795)
(0.0116291 0.00437715 0 0.00585229 0 0.00870818)
(0.0112317 0.00432958 0 0.00589138 0 0.00855986)
(0.0103255 0.00402728 0 0.00563779 0 0.0080299)
(0.00889852 0.00344957 0 0.0050378 0 0.00707159)
(0.00723731 0.00271716 0 0.00416591 0 0.00586573)
(0.00546977 0.00198361 0 0.00313561 0 0.00454019)
(0.0134552 0.00479205 0 0.00591631 0 0.00955234)
(0.0142445 0.00521159 0 0.00651113 0 0.0102218)
(0.0142976 0.00553011 0 0.00696175 0 0.0105066)
(0.0143813 0.00571513 0 0.00722618 0 0.0106961)
(0.0144063 0.00577322 0 0.00730281 0 0.0107536)
(0.0142199 0.00574352 0 0.0072704 0 0.0106501)
(0.013592 0.00553795 0 0.00705146 0 0.0102225)
(0.0122943 0.00508482 0 0.00653722 0 0.00932225)
(0.0123231 0.00452558 0 0.00602123 0 0.00898206)
(0.0122872 0.00466083 0 0.00649241 0 0.00917665)
(0.0122822 0.00485166 0 0.00688421 0 0.00938056)
(0.0127531 0.00503343 0 0.00710001 0 0.0097204)
(0.0134422 0.00526599 0 0.00725657 0 0.0101324)
(0.0136999 0.00539537 0 0.0073147 0 0.0102764)
(0.0134781 0.00533483 0 0.00713259 0 0.0100799)
(0.012411 0.00497185 0 0.00652065 0 0.0092788)
(0.00997583 0.00386976 0 0.00560344 0 0.00768189)
(0.0100372 0.00385007 0 0.00591744 0 0.00785621)
(0.0103967 0.00399517 0 0.00614529 0 0.00815961)
(0.0109516 0.00412159 0 0.00628972 0 0.00851769)
(0.0112115 0.00420254 0 0.00635492 0 0.00866993)
(0.0110783 0.00420356 0 0.00630457 0 0.00858337)
(0.0105096 0.00404007 0 0.00604007 0 0.0081671)
(0.00921043 0.00361862 0 0.00538535 0 0.00719341)
(0.00845557 0.00346763 0 0.00544278 0 0.00687073)
(0.0090416 0.00345931 0 0.00562781 0 0.00724608)
(0.00983649 0.00363635 0 0.00583143 0 0.00774141)
(0.0103317 0.00371073 0 0.00601099 0 0.00808542)
(0.0102813 0.0036884 0 0.00609531 0 0.00809765)
(0.00993489 0.00360938 0 0.00607424 0 0.00791798)
(0.00921849 0.00336832 0 0.00580742 0 0.00743606)
(0.00796474 0.00298768 0 0.00516742 0 0.00651757)
(0.00732555 0.00320735 0 0.00513823 0 0.00614288)
(0.00854955 0.00336841 0 0.00534032 0 0.0068492)
(0.00970379 0.00355437 0 0.0055303 0 0.0075271)
(0.0100788 0.00358815 0 0.00583952 0 0.00787697)
(0.00995309 0.00353748 0 0.00600825 0 0.00790808)
(0.00957417 0.00345605 0 0.00609516 0 0.0077662)
(0.00889876 0.00319929 0 0.0059522 0 0.00736072)
(0.00770097 0.00272429 0 0.00578737 0 0.00671847)
(0.00631478 0.00279789 0 0.00427663 0 0.00520416)
(0.00818232 0.00331751 0 0.00475749 0 0.00637099)
(0.00935603 0.00357574 0 0.00513618 0 0.00715718)
(0.00986938 0.00367296 0 0.00559124 0 0.00764781)
(0.00984548 0.00362334 0 0.00597932 0 0.00783861)
(0.00955193 0.00358707 0 0.00629118 0 0.00784823)
(0.00913767 0.00346089 0 0.00648023 0 0.00773912)
(0.00856062 0.00320197 0 0.00646726 0 0.00745942)
(0.0051499 0.00212639 0 0.00304105 0 0.00402658)
(0.00690187 0.00276954 0 0.00374608 0 0.00523304)
(0.00805628 0.00320302 0 0.00443259 0 0.00615841)
(0.00897343 0.00350901 0 0.00509759 0 0.00694181)
(0.00953235 0.00366761 0 0.00566258 0 0.00751731)
(0.00957967 0.0037561 0 0.00626092 0 0.00784024)
(0.00942924 0.00383351 0 0.00668797 0 0.00797914)
(0.00931183 0.00382507 0 0.00691442 0 0.00804293)
(0.00376938 0.00147234 0 0.00199773 0 0.0028525)
(0.00493727 0.0019248 0 0.00261118 0 0.00371858)
(0.0059581 0.00237404 0 0.00334075 0 0.00458478)
(0.007131 0.00282221 0 0.00407439 0 0.00552448)
(0.00830683 0.00328894 0 0.00489465 0 0.0065239)
(0.00898783 0.00366937 0 0.00578102 0 0.00730698)
(0.00941362 0.00397643 0 0.00656384 0 0.00790811)
(0.00969044 0.00416383 0 0.0070281 0 0.00828243)
(0.00241567 0.000959923 0 0.00133101 0 0.00184675)
(0.00324994 0.00125307 0 0.0017546 0 0.00247049)
(0.00410737 0.00159848 0 0.00230218 0 0.00316931)
(0.00514535 0.00200581 0 0.00293111 0 0.00399479)
(0.00635034 0.00253385 0 0.00376532 0 0.00500488)
(0.00750128 0.0030982 0 0.00484166 0 0.00610225)
(0.00858391 0.00367742 0 0.00589589 0 0.00716755)
(0.00945455 0.00411607 0 0.00668494 0 0.00799222)
(0.00141206 0.000549798 0 0.000806966 0 0.0010911)
(0.00198356 0.000758341 0 0.00110001 0 0.00151816)
(0.0026398 0.00101722 0 0.0014923 0 0.00203877)
(0.00347808 0.00133407 0 0.00199238 0 0.00270286)
(0.00454462 0.00182192 0 0.00272188 0 0.00360041)
(0.00572459 0.00238928 0 0.00371068 0 0.00466851)
(0.0070846 0.00305375 0 0.00483856 0 0.00590895)
(0.00842211 0.00367455 0 0.00587348 0 0.00708222)
(0.000786612 0.000269877 0 0.000419206 0 0.000595413)
(0.00113306 0.000411316 0 0.00061747 0 0.000862332)
(0.00156468 0.00059873 0 0.00089117 0 0.00121268)
(0.00218021 0.000827026 0 0.00125382 0 0.00169189)
(0.0030329 0.00121969 0 0.00182641 0 0.00240353)
(0.0040882 0.00172843 0 0.00265108 0 0.00332247)
(0.00542015 0.00235728 0 0.00367052 0 0.00449156)
(0.00701777 0.0030847 0 0.00482139 0 0.00584912)
(0.000390953 0.000144058 0 0.000221403 0 0.000304373)
(0.000597562 0.000209728 0 0.00032299 0 0.000456036)
(0.000861128 0.000315202 0 0.000479739 0 0.000664168)
(0.00126332 0.000462639 0 0.000713258 0 0.000974482)
(0.00186705 0.000733622 0 0.0011068 0 0.00147563)
(0.00268143 0.0011274 0 0.00170614 0 0.0021719)
(0.00379444 0.00164415 0 0.00251259 0 0.00312029)
(0.00522981 0.00230775 0 0.00348841 0 0.00431309)
(0.000190409 6.55725e-05 0 0.000101624 0 0.000143285)
(0.000291259 0.000104014 0 0.0001602 0 0.000224236)
(0.000429722 0.000157709 0 0.000246812 0 0.000337246)
(0.000663143 0.000241219 0 0.000381322 0 0.000518056)
(0.0010411 0.000399371 0 0.000624389 0 0.000827869)
(0.00159154 0.000658004 0 0.00100873 0 0.00129249)
(0.00240843 0.00102856 0 0.00158212 0 0.00197527)
(0.00352969 0.00154721 0 0.00231662 0 0.00289618)
(8.28706e-05 2.58747e-05 0 4.76205e-05 0 6.4762e-05)
(0.000134469 4.18547e-05 0 7.43009e-05 0 0.000101903)
(0.000203885 6.83055e-05 0 0.000115905 0 0.000156926)
(0.000325669 0.000113314 0 0.000186466 0 0.000252096)
(0.000533955 0.00019784 0 0.000325726 0 0.000421976)
(0.000858735 0.000343697 0 0.000547376 0 0.000694375)
(0.00138581 0.000579022 0 0.000906279 0 0.00113111)
(0.00215898 0.000929729 0 0.00140345 0 0.00176058)
(3.62836e-05 1.26688e-05 0 1.93438e-05 0 2.74288e-05)
(5.79832e-05 2.00505e-05 0 3.18142e-05 0 4.49972e-05)
(8.99399e-05 3.06055e-05 0 5.04279e-05 0 7.01508e-05)
(0.0001484 5.01816e-05 0 8.35266e-05 0 0.000115789)
(0.000252691 9.19632e-05 0 0.000151949 0 0.000202174)
(0.00042317 0.000163244 0 0.000267686 0 0.000343194)
(0.000723632 0.00029297 0 0.000463619 0 0.000589873)
(0.00118945 0.000498964 0 0.000757851 0 0.000966884)
(1.41993e-05 4.36167e-06 0 7.96606e-06 0 1.10415e-05)
(2.36551e-05 7.37608e-06 0 1.3375e-05 0 1.80868e-05)
(3.74404e-05 1.23658e-05 0 2.13078e-05 0 2.90047e-05)
(6.31233e-05 2.07649e-05 0 3.67059e-05 0 4.89531e-05)
(0.000112086 3.97873e-05 0 6.72756e-05 0 8.90701e-05)
(0.000193098 7.30993e-05 0 0.00012258 0 0.000155885)
(0.000343919 0.000135216 0 0.000221655 0 0.000279373)
(0.000590934 0.000240377 0 0.000375554 0 0.000477819)
(5.48049e-06 1.71027e-06 0 3.02686e-06 0 4.18602e-06)
(9.28335e-06 2.95486e-06 0 4.9319e-06 0 7.14385e-06)
(1.47688e-05 4.75199e-06 0 8.28146e-06 0 1.14638e-05)
(2.52074e-05 8.33022e-06 0 1.4688e-05 0 1.98521e-05)
(4.58799e-05 1.58539e-05 0 2.83086e-05 0 3.67746e-05)
(8.17122e-05 3.0063e-05 0 5.15837e-05 0 6.65024e-05)
(0.000149581 5.64979e-05 0 9.74486e-05 0 0.000122097)
(0.000265287 0.0001042 0 0.000169241 0 0.000215282)
(1.97181e-06 6.01905e-07 0 1.11104e-06 0 1.52488e-06)
(3.34076e-06 1.00244e-06 0 1.94334e-06 0 2.57759e-06)
(5.50265e-06 1.71762e-06 0 3.12932e-06 0 4.27278e-06)
(9.71436e-06 3.04945e-06 0 5.48652e-06 0 7.54035e-06)
(1.79729e-05 6.1691e-06 0 1.10428e-05 0 1.43303e-05)
(3.27466e-05 1.18807e-05 0 2.04892e-05 0 2.64534e-05)
(6.11344e-05 2.30212e-05 0 3.92785e-05 0 4.9791e-05)
(0.000109724 4.23517e-05 0 7.08063e-05 0 8.91667e-05)
(6.96831e-07 2.03754e-07 0 3.88156e-07 0 5.41371e-07)
(1.19623e-06 3.58406e-07 0 6.55736e-07 0 9.25082e-07)
(1.97082e-06 6.04277e-07 0 1.09698e-06 0 1.52586e-06)
(3.42679e-06 1.07778e-06 0 2.05245e-06 0 2.71296e-06)
(6.6391e-06 2.20483e-06 0 3.97812e-06 0 5.30877e-06)
(1.21229e-05 4.25648e-06 0 7.85023e-06 0 9.86298e-06)
(2.3317e-05 8.68777e-06 0 1.4779e-05 0 1.89911e-05)
(4.23512e-05 1.62175e-05 0 2.70718e-05 0 3.43733e-05)
(2.42386e-07 6.19218e-08 0 1.48219e-07 0 1.91585e-07)
(4.09405e-07 1.12373e-07 0 2.37525e-07 0 3.20452e-07)
(6.66962e-07 1.94202e-07 0 3.9557e-07 0 5.25219e-07)
(1.20459e-06 3.54451e-07 0 6.9117e-07 0 9.3853e-07)
(2.29691e-06 7.57934e-07 0 1.42307e-06 0 1.8421e-06)
(4.3317e-06 1.50593e-06 0 2.71424e-06 0 3.50967e-06)
(8.22289e-06 2.90193e-06 0 5.43569e-06 0 6.71389e-06)
(1.52265e-05 5.75911e-06 0 9.67035e-06 0 1.23874e-05)
(9.57742e-08 1.94765e-08 0 6.25486e-08 0 7.91972e-08)
(1.47217e-07 3.34275e-08 0 9.31556e-08 0 1.18791e-07)
(2.34727e-07 6.10682e-08 0 1.3825e-07 0 1.86262e-07)
(3.98345e-07 1.13333e-07 0 2.46239e-07 0 3.2021e-07)
(7.70849e-07 2.34317e-07 0 4.79103e-07 0 6.1924e-07)
(1.45301e-06 4.87774e-07 0 9.15652e-07 0 1.1796e-06)
(2.79577e-06 1.00244e-06 0 1.7762e-06 0 2.2782e-06)
(5.07254e-06 1.86808e-06 0 3.32439e-06 0 4.1407e-06)
(4.88234e-08 4.85993e-09 0 3.77962e-08 0 4.30419e-08)
(6.45726e-08 9.53562e-09 0 4.62539e-08 0 5.53023e-08)
(8.97061e-08 1.70197e-08 0 6.21011e-08 0 7.52032e-08)
(1.42945e-07 3.2453e-08 0 9.21602e-08 0 1.16711e-07)
(2.57308e-07 7.31548e-08 0 1.65744e-07 0 2.10848e-07)
(4.68606e-07 1.46234e-07 0 3.10482e-07 0 3.85034e-07)
(8.88312e-07 2.98952e-07 0 5.82348e-07 0 7.28883e-07)
(1.61793e-06 5.85333e-07 0 1.0451e-06 0 1.32044e-06)
(3.51659e-08 9.08649e-10 0 3.0061e-08 0 3.25771e-08)
(3.94147e-08 1.90943e-09 0 3.27464e-08 0 3.59593e-08)
(4.69512e-08 4.34465e-09 0 3.68537e-08 0 4.1881e-08)
(6.14173e-08 8.48263e-09 0 4.66454e-08 0 5.37688e-08)
(9.53245e-08 1.94381e-08 0 6.81132e-08 0 8.11916e-08)
(1.59601e-07 4.25396e-08 0 1.08524e-07 0 1.33825e-07)
(2.811e-07 8.61435e-08 0 1.90748e-07 0 2.33969e-07)
(4.92424e-07 1.68529e-07 0 3.27024e-07 0 4.07181e-07)
(3.12968e-08 -2.84155e-10 0 2.79741e-08 0 2.96142e-08)
(3.23281e-08 -1.48928e-10 0 2.88116e-08 0 3.05435e-08)
(3.42449e-08 4.9797e-10 0 3.00711e-08 0 3.21236e-08)
(3.81097e-08 1.46034e-09 0 3.28462e-08 0 3.54105e-08)
(4.72773e-08 4.50771e-09 0 3.90065e-08 0 4.30256e-08)
(6.4825e-08 1.06292e-08 0 5.07287e-08 0 5.75034e-08)
(9.83134e-08 2.26927e-08 0 7.30227e-08 0 8.5214e-08)
(1.55374e-07 4.44639e-08 0 1.11133e-07 0 1.31966e-07)
(3.02723e-08 -5.98142e-10 0 2.74344e-08 0 2.88422e-08)
(3.04017e-08 -7.70714e-10 0 2.77995e-08 0 2.90861e-08)
(3.08276e-08 -5.33905e-10 0 2.81755e-08 0 2.95009e-08)
(3.15667e-08 -4.67237e-10 0 2.91653e-08 0 3.03385e-08)
(3.38543e-08 2.6943e-10 0 3.09078e-08 0 3.23328e-08)
(3.84318e-08 1.9612e-09 0 3.39603e-08 0 3.61627e-08)
(4.6743e-08 4.87338e-09 0 4.00505e-08 0 4.32458e-08)
(6.11953e-08 1.06367e-08 0 4.972e-08 0 5.52731e-08)
(3.00168e-08 -6.83305e-10 0 2.73299e-08 0 2.86634e-08)
(2.98926e-08 -9.68813e-10 0 2.75826e-08 0 2.87282e-08)
(2.99276e-08 -8.464e-10 0 2.772e-08 0 2.8827e-08)
(2.9879e-08 -9.65715e-10 0 2.81997e-08 0 2.90289e-08)
(3.03078e-08 -8.35491e-10 0 2.88018e-08 0 2.95276e-08)
(3.13798e-08 -3.68109e-10 0 2.9586e-08 0 3.0479e-08)
(3.31455e-08 2.70554e-10 0 3.13095e-08 0 3.21861e-08)
(3.64107e-08 1.69915e-09 0 3.38572e-08 0 3.50479e-08)
(2.99392e-08 -7.08536e-10 0 2.73489e-08 0 2.86338e-08)
(2.97434e-08 -1.04189e-09 0 2.75656e-08 0 2.86484e-08)
(2.96995e-08 -9.5729e-10 0 2.7638e-08 0 2.86702e-08)
(2.94759e-08 -1.09786e-09 0 2.7962e-08 0 2.87157e-08)
(2.94316e-08 -1.10616e-09 0 2.82959e-08 0 2.88406e-08)
(2.96181e-08 -9.74943e-10 0 2.85034e-08 0 2.90674e-08)
(2.97991e-08 -8.8298e-10 0 2.91288e-08 0 2.94472e-08)
(3.03843e-08 -4.71623e-10 0 2.9892e-08 0 3.01121e-08)
(2.9874e-08 -7.56875e-10 0 2.74137e-08 0 2.8633e-08)
(2.96942e-08 -1.04376e-09 0 2.75871e-08 0 2.86368e-08)
(2.96424e-08 -1.0164e-09 0 2.76388e-08 0 2.86408e-08)
(2.94046e-08 -1.14228e-09 0 2.7903e-08 0 2.86528e-08)
(2.92369e-08 -1.16995e-09 0 2.81949e-08 0 2.86937e-08)
(2.91932e-08 -1.14804e-09 0 2.82689e-08 0 2.87392e-08)
(2.90455e-08 -1.15575e-09 0 2.86066e-08 0 2.88189e-08)
(2.90188e-08 -1.01253e-09 0 2.89713e-08 0 2.89759e-08)
(2.97657e-08 -8.88505e-10 0 2.75666e-08 0 2.86516e-08)
(2.96559e-08 -1.08505e-09 0 2.76348e-08 0 2.86416e-08)
(2.96138e-08 -1.06345e-09 0 2.76689e-08 0 2.86412e-08)
(2.94025e-08 -1.17789e-09 0 2.78915e-08 0 2.8647e-08)
(2.91961e-08 -1.20344e-09 0 2.81829e-08 0 2.8673e-08)
(2.90984e-08 -1.21001e-09 0 2.82395e-08 0 2.86719e-08)
(2.89053e-08 -1.23587e-09 0 2.84843e-08 0 2.86922e-08)
(2.87424e-08 -1.14986e-09 0 2.87661e-08 0 2.87385e-08)
(2.97788e-08 -1.00757e-09 0 2.76105e-08 0 2.86783e-08)
(2.96173e-08 -1.19306e-09 0 2.77155e-08 0 2.86648e-08)
(2.95988e-08 -1.20769e-09 0 2.77427e-08 0 2.86661e-08)
(2.94358e-08 -1.29423e-09 0 2.7885e-08 0 2.8662e-08)
(2.92111e-08 -1.29649e-09 0 2.81678e-08 0 2.8676e-08)
(2.90828e-08 -1.25483e-09 0 2.82538e-08 0 2.86671e-08)
(2.88843e-08 -1.28924e-09 0 2.84672e-08 0 2.86751e-08)
(2.87212e-08 -1.22482e-09 0 2.87088e-08 0 2.86979e-08)
(2.98299e-08 -1.14338e-09 0 2.75981e-08 0 2.86976e-08)
(2.96285e-08 -1.29267e-09 0 2.77476e-08 0 2.86845e-08)