/*--------------------------------*- C++ -*----------------------------------*\
| =========                 |                                                 |
| \\      /  F ield         | OpenFOAM: The Open Source CFD Toolbox           |
|  \\    /   O peration     | Version:  v1912                                 |
|   \\  /    A nd           | Website:  www.openfoam.com                      |
|    \\/     M anipulation  |                                                 |
\*---------------------------------------------------------------------------*/
FoamFile
{
    version     2.0;
    format      ascii;
    class       volScalarField;
    location    "80";
    object      alpha.water;
}
// * * * * * * * * * * * * * * * * * * * * * * * * * * * * * * * * * * * * * //

dimensions      [0 0 0 0 0 0 0];


internalField   nonuniform List<scalar> 
14268
(
1
1
1
1
1
1
1
1
1
1
1
1
1
1
1
1
1
1
1
1
1
1
1
1
1
1
1
1
1
1
1
1
1
1
1
1
1
1
1
1
1
1
1
1
1
1
1
1
1
1
1
1
1
1
1
1
1
1
1
1
1
1
1
1
1
1
1
1
1
1
1
1
1
1
1
1
1
1
1
1
1
1
1
1
1
1
1
1
1
1
1
1
1
1
1
1
1
1
1
1
1
1
1
1
1
1
1
1
1
1
1
1
1
1
1
1
1
1
1
1
1
1
1
1
1
1
1
1
1
1
1
1
1
1
1
1
1
1
1
1
1
1
1
1
1
1
1
1
1
1
1
1
1
1
1
1
1
1
1
1
1
1
1
1
1
1
1
1
1
1
1
1
1
1
1
1
1
1
1
1
1
1
1
1
1
1
1
1
1
1
1
1
1
1
1
1
1
1
1
1
1
1
1
1
1
1
1
1
1
1
1
1
1
1
1
1
1
1
1
1
1
1
1
1
1
1
1
1
1
1
1
1
1
1
1
1
1
1
1
1
1
1
1
1
1
1
1
1
1
1
1
1
1
1
1
1
1
1
1
1
1
1
1
1
1
1
1
1
1
1
1
1
1
1
1
1
1
1
1
1
1
1
1
1
1
1
1
1
1
1
1
1
1
1
1
1
1
1
1
1
1
1
1
1
1
1
1
1
1
1
1
1
1
1
1
1
1
1
1
1
1
1
1
1
1
1
1
1
1
1
1
1
1
1
1
1
1
1
1
1
1
1
1
1
1
1
1
1
1
1
1
1
1
1
1
1
1
1
1
1
1
1
1
1
1
1
1
1
1
1
1
1
1
1
1
1
1
1
1
1
1
1
1
1
1
1
1
1
1
1
1
1
1
1
1
1
1
1
1
1
1
1
1
1
1
1
1
1
1
1
1
1
1
1
1
1
1
1
1
1
1
1
1
1
1
1
1
1
1
1
1
1
1
1
1
1
1
1
1
1
1
1
1
1
1
1
1
1
1
1
1
1
1
1
1
1
1
1
1
1
1
1
1
1
1
1
1
1
1
1
1
1
1
1
1
1
1
1
1
1
1
1
1
1
1
1
1
1
1
1
1
1
1
1
1
1
1
1
1
1
1
1
1
1
1
1
1
1
1
1
1
1
1
1
1
1
1
1
1
1
1
1
1
1
1
1
1
1
1
1
1
1
1
1
1
1
1
1
1
1
1
1
1
1
1
1
1
1
1
1
1
1
1
1
1
1
1
1
1
1
1
1
1
1
1
1
1
1
1
1
1
1
1
1
1
1
1
1
1
1
1
1
1
1
1
1
1
1
1
1
1
1
1
1
1
1
1
1
1
1
1
1
1
1
1
1
1
1
1
1
1
1
1
1
1
1
1
1
1
1
1
1
1
1
1
1
1
1
1
1
1
1
1
1
1
1
1
1
1
1
1
1
1
1
1
1
1
1
1
1
1
1
1
1
1
1
1
1
1
1
1
1
1
1
1
1
1
1
1
1
1
1
1
1
1
1
1
1
1
1
1
1
1
1
1
1
1
1
1
1
1
1
1
1
1
1
1
1
1
1
1
1
1
1
1
1
1
1
1
1
1
1
1
1
1
1
1
1
1
1
1
1
1
1
1
1
1
1
1
1
1
1
1
1
1
1
1
1
1
1
1
1
1
1
1
1
1
1
1
1
1
1
1
1
1
1
1
1
1
1
1
1
1
1
1
1
1
1
1
1
1
1
1
1
1
1
1
1
1
1
1
1
1
1
1
1
1
1
1
1
1
1
1
1
1
1
1
1
1
1
1
1
1
1
1
1
1
1
1
1
1
1
1
1
1
1
1
1
1
1
1
1
1
1
1
1
1
1
1
1
1
1
1
1
1
1
1
1
1
1
1
1
1
1
1
1
1
1
1
1
1
1
1
1
1
1
1
1
1
1
1
1
1
1
1
1
1
1
1
1
1
1
1
1
1
1
1
1
1
1
1
1
1
1
1
1
1
1
1
1
1
1
1
1
1
1
1
1
1
1
1
1
1
1
1
1
1
1
1
1
1
1
1
1
1
1
1
1
1
1
1
1
1
1
1
1
1
1
1
1
1
1
1
1
1
1
1
1
1
1
1
1
1
1
1
1
1
1
1
1
1
1
1
1
1
1
1
1
1
1
1
1
1
1
1
1
1
1
1
1
1
1
1
1
1
1
1
1
1
1
1
1
1
1
1
1
1
1
1
1
1
1
1
1
1
1
1
1
1
1
1
1
1
1
1
1
1
1
1
1
1
1
1
1
1
1
1
1
1
1
1
1
1
1
1
1
1
1
1
1
1
1
1
1
1
1
1
1
1
1
1
1
1
1
1
1
1
1
1
1
1
1
1
1
1
1
1
1
1
1
1
1
1
1
1
1
1
1
1
1
1
1
1
1
1
1
1
1
1
1
1
1
1
1
1
1
1
1
1
1
1
1
1
1
1
1
1
1
1
1
1
1
1
1
1
1
1
1
1
1
1
1
1
1
1
1
1
1
1
1
1
1
1
1
1
1
1
1
1
1
1
1
1
1
1
1
1
1
1
1
1
1
1
1
1
1
1
1
1
1
1
1
1
1
1
1
1
1
1
1
1
1
1
1
1
1
1
1
1
1
1
1
1
1
1
1
1
1
1
1
1
1
1
1
1
1
1
1
1
1
1
1
1
1
1
1
1
1
1
1
1
1
1
1
1
1
1
1
1
1
1
1
1
1
1
1
1
1
1
1
1
1
1
1
1
1
1
1
1
1
1
1
1
1
1
1
1
1
1
1
1
1
1
1
1
1
1
1
1
1
1
1
1
1
1
1
1
1
1
1
1
1
1
1
1
1
1
1
1
1
1
1
1
1
1
1
1
1
1
1
1
1
1
1
1
1
1
1
1
1
1
1
1
1
1
1
1
1
1
1
1
1
1
1
1
1
1
1
1
1
1
1
1
1
1
1
1
1
1
1
1
1
1
1
1
1
1
1
1
1
1
1
1
1
1
1
1
1
1
1
1
1
1
1
1
1
1
1
1
1
1
1
1
1
1
1
1
1
1
1
1
1
1
1
1
1
1
1
1
1
1
1
1
1
1
1
1
1
1
1
1
1
1
1
1
1
1
1
1
1
1
1
1
1
1
1
1
1
1
1
1
1
1
1
1
1
1
1
1
1
1
1
1
1
1
1
1
1
1
1
1
1
1
1
1
1
1
1
0.99997
0.999865
0.99982
0.999942
1
1
1
1
1
1
1
1
1
1
1
1
1
1
1
1
0.999999
0.999999
0.999999
0.999999
0.999856
0.999701
0.999524
0.999349
0.999161
0.998934
0.998749
0.99865
0.99853
0.99837
0.998291
0.998284
0.998348
0.998365
0.998361
0.998465
0.998845
0.999153
0.998421
0.99557
0.991618
0.988038
0.986366
0.9859
0.986731
0.992473
0.996523
0.999078
0.999635
0.999668
0.999687
0.999691
0.999683
0.999635
0.999576
0.999554
0.999565
0.999613
0.999636
0.999639
0.999615
0.999567
0.999557
0.999684
0.968269
0.953081
0.933993
0.911886
0.888099
0.863106
0.838014
0.815496
0.798318
0.786886
0.77978
0.773739
0.768438
0.764519
0.762859
0.762455
0.766112
0.774154
0.786019
0.802089
0.817033
0.825278
0.82574
0.784831
0.762431
0.769379
0.786127
0.809542
0.833493
0.853749
0.869671
0.880025
0.886912
0.896702
0.910411
0.925629
0.938533
0.945908
0.946538
0.944504
0.945116
0.951208
0.966543
0.980227
0.532548
0.452385
0.38196
0.324302
0.279854
0.245114
0.217423
0.196439
0.182785
0.175563
0.1728
0.172917
0.173317
0.172121
0.168309
0.16476
0.164667
0.175033
0.194825
0.220031
0.245024
0.262528
0.281192
0.29821
0.290922
0.285542
0.284705
0.284515
0.290151
0.299366
0.30523
0.307995
0.315762
0.338162
0.375725
0.422429
0.460079
0.475087
0.470836
0.46161
0.465499
0.489787
0.53455
0.57447
0.0642163
0.0402692
0.0241877
0.014639
0.00969947
0.00746023
0.00677654
0.00690925
0.00702326
0.00710237
0.00731224
0.00759483
0.00775244
0.00737977
0.00676631
0.00633803
0.00615866
0.00637249
0.00717699
0.00861089
0.0103987
0.012196
0.0116784
0.0153919
0.0200774
0.0283731
0.0361922
0.0385771
0.0387148
0.0344346
0.025718
0.0194089
0.0200161
0.0238902
0.0288719
0.0328925
0.0380928
0.0405217
0.0374407
0.033461
0.0308837
0.0321551
0.0307972
0.0336699
4.10053e-11
2.73139e-11
1.91227e-11
1.39427e-11
1.10468e-11
9.07313e-12
7.04758e-12
5.23155e-12
4.56229e-12
4.74943e-12
4.8947e-12
4.52088e-12
3.84037e-12
3.28243e-12
2.86942e-12
2.70829e-12
2.66191e-12
2.5116e-12
2.42325e-12
2.02436e-12
1.04155e-12
9.74853e-13
3.27054e-12
4.16644e-11
8.34981e-11
1.22373e-11
4.87917e-12
5.46264e-12
8.30298e-12
4.90493e-12
8.90916e-13
4.40596e-13
4.32167e-12
1.37159e-11
1.87438e-11
1.84063e-11
1.98611e-11
2.10224e-11
1.81843e-11
1.55972e-11
1.21757e-11
1.06328e-11
5.65802e-12
1.05125e-12
-2.06048e-35
-2.35816e-35
-1.24027e-35
-2.90628e-36
-1.02752e-36
-4.52151e-37
-1.39176e-37
-3.31811e-38
-1.12226e-38
-2.05739e-39
-4.82458e-40
-2.06426e-40
-1.14566e-40
-4.07508e-41
-1.41782e-41
-3.00565e-42
-6.70058e-43
-1.17111e-43
-2.46786e-44
-3.68239e-45
-6.13617e-46
-8.80322e-47
-5.49999e-48
-7.70225e-50
-3.85334e-51
-4.13122e-51
-1.57136e-51
-5.66863e-52
-1.13713e-52
-2.11538e-53
-4.38311e-54
-3.92612e-55
-2.62932e-56
-2.76663e-57
-5.40522e-58
-1.01608e-58
-1.62615e-59
-4.28716e-60
-7.18633e-61
-1.37307e-61
-2.61013e-62
-6.62173e-56
-4.07887e-56
-3.8454e-56
-1.37511e-33
-1.02523e-33
-4.43883e-34
-9.65546e-35
-1.87511e-35
-4.85583e-36
-1.47555e-36
-4.45074e-37
-1.2529e-37
-2.99364e-38
-6.46872e-39
-1.96145e-39
-8.48315e-40
-3.15808e-40
-9.60895e-41
-2.35643e-41
-4.96962e-42
-9.68527e-43
-1.78811e-43
-3.02184e-44
-5.14744e-45
-8.19951e-46
-1.11701e-46
-1.19009e-47
-9.27548e-49
-6.96437e-50
-1.35441e-50
-3.17869e-51
-6.24051e-52
-1.07521e-52
-1.71145e-53
-1.99437e-54
-1.91828e-55
-2.17664e-56
-3.35446e-57
-5.87457e-58
-9.96773e-59
-1.64834e-59
-2.81705e-60
-4.94416e-61
-9.62856e-62
-2.53091e-56
-2.2537e-56
-1.18268e-56
-2.73839e-33
-2.483e-33
-1.53693e-33
-5.24144e-34
-1.30706e-34
-3.20587e-35
-8.79694e-36
-2.56852e-36
-7.3155e-37
-1.92762e-37
-4.91302e-38
-1.42876e-38
-4.83731e-39
-1.55596e-39
-4.37193e-40
-1.04089e-40
-2.17343e-41
-4.15586e-42
-7.47628e-43
-1.26067e-43
-2.05045e-44
-2.8627e-45
-2.97045e-46
-2.56416e-47
-2.47881e-48
-3.90009e-49
-7.51385e-50
-1.41209e-50
-2.39488e-51
-3.70756e-52
-5.14948e-53
-5.43655e-54
-4.88694e-55
-5.62991e-56
-9.29263e-57
-1.6683e-57
-2.74396e-58
-4.32374e-59
-7.01124e-60
-1.17909e-60
-2.18104e-61
-1.96168e-57
-1.46001e-57
-5.7352e-58
-3.37854e-33
-3.65871e-33
-2.76214e-33
-1.25396e-33
-3.8201e-34
-9.99964e-35
-2.73224e-35
-8.00886e-36
-2.38987e-36
-6.90936e-37
-1.96528e-37
-5.85898e-38
-1.80921e-38
-5.30503e-39
-1.39914e-39
-3.24512e-40
-6.75701e-41
-1.29275e-41
-2.30871e-42
-3.8355e-43
-6.12879e-44
-9.26502e-45
-1.27542e-45
-1.50684e-46
-1.65289e-47
-1.96679e-48
-2.87851e-49
-4.57141e-50
-6.93396e-51
-9.86461e-52
-1.29354e-52
-1.45954e-53
-1.6049e-54
-2.0307e-55
-2.93582e-56
-4.50075e-57
-6.78256e-58
-1.01953e-58
-1.56479e-59
-2.48329e-60
-4.20997e-61
-3.8101e-59
-2.82178e-59
-1.09809e-59
-3.65804e-33
-4.29265e-33
-3.61964e-33
-1.98873e-33
-7.13038e-34
-2.04537e-34
-5.84079e-35
-1.76378e-35
-5.48897e-36
-1.69456e-36
-5.17536e-37
-1.58734e-37
-4.75539e-38
-1.33432e-38
-3.39821e-39
-7.75491e-40
-1.6043e-40
-3.0608e-41
-5.45537e-42
-9.10755e-43
-1.43478e-43
-2.01683e-44
-2.3862e-45
-2.54493e-46
-3.05092e-47
-4.7517e-48
-7.90537e-49
-1.22668e-49
-1.72671e-50
-2.25329e-51
-2.72214e-52
-2.85285e-53
-2.90436e-54
-3.47369e-55
-4.98206e-56
-7.49316e-57
-1.08865e-57
-1.56561e-58
-2.30906e-59
-3.54153e-60
-5.79264e-61
-1.37909e-61
-5.09997e-62
-1.85724e-62
-3.55615e-33
-4.40324e-33
-4.00045e-33
-2.53103e-33
-1.07381e-33
-3.41319e-34
-1.0063e-34
-3.05694e-35
-9.60216e-36
-3.04306e-36
-9.60608e-37
-3.00289e-37
-8.97196e-38
-2.48544e-38
-6.25556e-39
-1.42271e-39
-2.95909e-40
-5.68169e-41
-1.01495e-41
-1.69037e-42
-2.66379e-43
-3.9605e-44
-5.56459e-45
-7.21769e-46
-9.08198e-47
-1.1922e-47
-1.63974e-48
-2.24973e-49
-2.93783e-50
-3.62485e-51
-4.21354e-52
-4.53947e-53
-4.9907e-54
-6.13107e-55
-8.28004e-56
-1.15772e-56
-1.62141e-57
-2.28571e-58
-3.27016e-59
-4.81765e-60
-7.40914e-61
-1.19401e-61
-2.04436e-62
-3.35951e-63
-3.13359e-33
-4.11422e-33
-3.98978e-33
-2.81138e-33
-1.38433e-33
-4.94511e-34
-1.54116e-34
-4.75998e-35
-1.49352e-35
-4.72471e-36
-1.49172e-36
-4.63998e-37
-1.3774e-37
-3.79413e-38
-9.52845e-39
-2.17447e-39
-4.55624e-40
-8.85929e-41
-1.60432e-41
-2.69765e-42
-4.23019e-43
-6.03909e-44
-7.67112e-45
-9.18819e-46
-1.17366e-46
-1.71769e-47
-2.56342e-48
-3.59344e-49
-4.68195e-50
-5.75266e-51
-6.6235e-52
-6.99615e-53
-7.32173e-54
-8.4488e-55
-1.08976e-55
-1.46645e-56
-1.95959e-57
-2.63379e-58
-3.61732e-59
-5.14208e-60
-7.6522e-61
-1.17303e-61
-1.86512e-62
-2.85581e-63
-2.53567e-33
-3.57365e-33
-3.70763e-33
-2.85021e-33
-1.59363e-33
-6.46047e-34
-2.1325e-34
-6.67385e-35
-2.09169e-35
-6.59001e-36
-2.07173e-36
-6.3985e-37
-1.88623e-37
-5.17724e-38
-1.30318e-38
-2.99088e-39
-6.30424e-40
-1.22967e-40
-2.2299e-41
-3.764e-42
-5.95718e-43
-8.85433e-44
-1.2526e-44
-1.68232e-45
-2.20345e-46
-2.92769e-47
-3.88684e-48
-5.01803e-49
-6.15226e-50
-7.12553e-51
-7.73016e-52
-8.00103e-53
-8.60678e-54
-1.00847e-54
-1.27732e-55
-1.67003e-56
-2.1991e-57
-2.9214e-58
-3.92616e-59
-5.40081e-60
-7.66982e-61
-1.10868e-61
-1.62768e-62
-2.27248e-63
-1.91103e-33
-2.92514e-33
-3.26402e-33
-2.71392e-33
-1.68432e-33
-7.69284e-34
-2.74433e-34
-8.8304e-35
-2.78225e-35
-8.73129e-36
-2.72586e-36
-8.33651e-37
-2.43363e-37
-6.62608e-38
-1.66101e-38
-3.8238e-39
-8.12928e-40
-1.60399e-40
-2.93851e-41
-4.99093e-42
-7.88808e-43
-1.14513e-43
-1.51733e-44
-1.90711e-45
-2.46687e-46
-3.41626e-47
-4.71263e-48
-6.19134e-49
-7.69145e-50
-9.1545e-51
-1.02674e-51
-1.07382e-52
-1.11822e-53
-1.2398e-54
-1.47706e-55
-1.83386e-56
-2.30077e-57
-2.92828e-58
-3.7942e-59
-5.03678e-60
-6.91293e-61
-9.58333e-62
-1.34313e-62
-1.80079e-63
-1.35651e-33
-2.27753e-33
-2.74755e-33
-2.46454e-33
-1.67075e-33
-8.48965e-34
-3.26956e-34
-1.0813e-34
-3.43713e-35
-1.0835e-35
-3.38155e-36
-1.03026e-36
-2.99621e-37
-8.15546e-38
-2.05161e-38
-4.74706e-39
-1.01307e-39
-2.00166e-40
-3.66802e-41
-6.23654e-42
-9.89158e-43
-1.46896e-43
-2.07462e-44
-2.80343e-45
-3.67904e-46
-4.81228e-47
-6.19061e-48
-7.67462e-49
-9.02943e-50
-1.00564e-50
-1.05819e-51
-1.07234e-52
-1.12014e-53
-1.25142e-54
-1.49079e-55
-1.83151e-56
-2.27337e-57
-2.84911e-58
-3.60293e-59
-4.61745e-60
-6.04319e-61
-7.89218e-62
-1.01905e-62
-1.25044e-63
-9.16562e-34
-1.7009e-33
-2.2272e-33
-2.15393e-33
-1.57739e-33
-8.71833e-34
-3.62593e-34
-1.26219e-34
-4.10348e-35
-1.30565e-35
-4.0842e-36
-1.24083e-36
-3.59072e-37
-9.72037e-38
-2.43772e-38
-5.65014e-39
-1.21241e-39
-2.41219e-40
-4.4465e-41
-7.58808e-42
-1.20307e-42
-1.76052e-43
-2.3833e-44
-3.05581e-45
-3.92705e-46
-5.18296e-47
-6.73214e-48
-8.40083e-49
-1.00298e-49
-1.15514e-50
-1.26506e-51
-1.31182e-52
-1.34315e-53
-1.42652e-54
-1.59164e-55
-1.84318e-56
-2.17553e-57
-2.61462e-58
-3.19181e-59
-3.95157e-60
-4.99635e-61
-6.30504e-62
-7.88992e-63
-9.36997e-64
-5.95432e-34
-1.22715e-33
-1.74892e-33
-1.82391e-33
-1.43426e-33
-8.56367e-34
-3.85607e-34
-1.40475e-34
-4.66551e-35
-1.50366e-35
-4.73779e-36
-1.44243e-36
-4.17503e-37
-1.13181e-37
-2.84703e-38
-6.61922e-39
-1.42311e-39
-2.83225e-40
-5.21734e-41
-8.89624e-42
-1.41014e-42
-2.08789e-43
-2.93136e-44
-3.93899e-45
-5.11785e-46
-6.53597e-47
-8.13986e-48
-9.7194e-49
-1.10001e-49
-1.1804e-50
-1.19908e-51
-1.18717e-52
-1.2125e-53
-1.30001e-54
-1.46074e-55
-1.68643e-56
-1.96993e-57
-2.3221e-58
-2.7546e-59
-3.2787e-60
-3.94797e-61
-4.69207e-62
-5.43954e-63
-5.99111e-64
-3.75512e-34
-8.61219e-34
-1.33872e-33
-1.50547e-33
-1.26679e-33
-8.06795e-34
-3.8443e-34
-1.47019e-34
-5.07687e-35
-1.67825e-35
-5.3626e-36
-1.64323e-36
-4.76399e-37
-1.28968e-37
-3.23898e-38
-7.53465e-39
-1.6227e-39
-3.23539e-40
-5.96575e-41
-1.01703e-41
-1.60832e-42
-2.35393e-43
-3.20648e-44
-4.12711e-45
-5.21862e-46
-6.60316e-47
-8.16275e-48
-9.72793e-49
-1.11549e-49
-1.23783e-50
-1.31445e-51
-1.32926e-52
-1.32597e-53
-1.35359e-54
-1.43057e-55
-1.55956e-56
-1.73604e-57
-1.96494e-58
-2.24962e-59
-2.58699e-60
-3.00733e-61
-3.46201e-62
-3.89461e-63
-4.1265e-64
-2.3192e-34
-5.91898e-34
-1.00467e-33
-1.2178e-33
-1.09359e-33
-7.38544e-34
-3.75648e-34
-1.52805e-34
-5.47273e-35
-1.84379e-35
-5.95159e-36
-1.83254e-36
-5.32193e-37
-1.44205e-37
-3.62533e-38
-8.43702e-39
-1.81577e-39
-3.61256e-40
-6.64105e-41
-1.12803e-41
-1.77699e-42
-2.60996e-43
-3.62239e-44
-4.79941e-45
-6.1162e-46
-7.58315e-47
-9.11848e-48
-1.04888e-48
-1.14462e-49
-1.18757e-50
-1.17562e-51
-1.14313e-52
-1.13417e-53
-1.16098e-54
-1.22792e-55
-1.32801e-56
-1.45361e-57
-1.60324e-58
-1.77676e-59
-1.9634e-60
-2.17644e-61
-2.36866e-62
-2.49508e-63
-2.46796e-64
-1.41398e-34
-4.00978e-34
-7.43509e-34
-9.70623e-34
-9.28154e-34
-6.62649e-34
-3.54203e-34
-1.49369e-34
-5.53849e-35
-1.92397e-35
-6.34745e-36
-1.98064e-36
-5.79031e-37
-1.57225e-37
-3.95326e-38
-9.19769e-39
-1.97795e-39
-3.92887e-40
-7.20295e-41
-1.21937e-41
-1.91163e-42
-2.77655e-43
-3.76342e-44
-4.81432e-45
-5.96443e-46
-7.26354e-47
-8.58678e-48
-9.80216e-49
-1.07987e-49
-1.15045e-50
-1.17638e-51
-1.1532e-52
-1.11719e-53
-1.09591e-54
-1.1008e-55
-1.13269e-56
-1.18736e-57
-1.26081e-58
-1.34994e-59
-1.44201e-60
-1.54277e-61
-1.62422e-62
-1.65892e-63
-1.59089e-64
-8.60328e-35
-2.69939e-34
-5.45927e-34
-7.65949e-34
-7.77938e-34
-5.84773e-34
-3.28506e-34
-1.46746e-34
-5.70205e-35
-2.03423e-35
-6.80028e-36
-2.13405e-36
-6.24796e-37
-1.69558e-37
-4.25804e-38
-9.88763e-39
-2.12033e-39
-4.19495e-40
-7.65327e-41
-1.28796e-41
-2.00684e-42
-2.91152e-43
-3.97631e-44
-5.16111e-45
-6.41113e-46
-7.6993e-47
-8.92337e-48
-9.87952e-49
-1.04014e-49
-1.04436e-50
-1.00796e-51
-9.57974e-53
-9.18834e-54
-8.97091e-55
-8.94593e-56
-9.06645e-57
-9.28712e-58
-9.56916e-59
-9.89805e-60
-1.01648e-60
-1.03907e-61
-1.038e-62
-9.96805e-64
-8.96797e-65
-5.29877e-35
-1.81991e-34
-3.9992e-34
-6.01014e-34
-6.46739e-34
-5.11064e-34
-3.0094e-34
-1.39245e-34
-5.55082e-35
-2.0317e-35
-6.94546e-36
-2.21421e-36
-6.54309e-37
-1.78418e-37
-4.48879e-38
-1.04194e-38
-2.2297e-39
-4.39577e-40
-7.98064e-41
-1.33565e-41
-2.06638e-42
-2.96194e-43
-3.96432e-44
-4.99883e-45
-6.04343e-46
-7.09583e-47
-8.04835e-48
-8.81783e-49
-9.32931e-50
-9.52486e-51
-9.36365e-52
-8.87467e-53
-8.30849e-54
-7.8233e-55
-7.47578e-56
-7.2645e-57
-7.16049e-58
-7.11846e-59
-7.11143e-60
-7.05275e-61
-6.94781e-62
-6.70152e-63
-6.23494e-64
-5.44099e-65
-3.35761e-35
-1.23785e-34
-2.93599e-34
-4.70784e-34
-5.34874e-34
-4.43272e-34
-2.72055e-34
-1.31329e-34
-5.47868e-35
-2.0734e-35
-7.21951e-36
-2.32021e-36
-6.87117e-37
-1.87175e-37
-4.69582e-38
-1.08572e-38
-2.31219e-39
-4.53153e-40
-8.17051e-41
-1.35655e-41
-2.08203e-42
-2.97017e-43
-3.97638e-44
-5.04125e-45
-6.0835e-46
-7.0604e-47
-7.86334e-48
-8.36984e-49
-8.49574e-50
-8.24532e-51
-7.7241e-52
-7.10354e-53
-6.54204e-54
-6.08482e-55
-5.73173e-56
-5.45432e-57
-5.23143e-58
-5.03529e-59
-4.8545e-60
-4.63035e-61
-4.36534e-62
-4.00716e-63
-3.517e-64
-2.87978e-65
-2.23211e-35
-8.54514e-35
-2.1686e-34
-3.68938e-34
-4.41299e-34
-3.82339e-34
-2.43783e-34
-1.22143e-34
-5.23937e-35
-2.02621e-35
-7.18736e-36
-2.34167e-36
-6.99361e-37
-1.91392e-37
-4.80892e-38
-1.11039e-38
-2.35609e-39
-4.59255e-40
-8.22302e-41
-1.35435e-41
-2.0581e-42
-2.89659e-43
-3.80401e-44
-4.69748e-45
-5.52144e-46
-6.2419e-47
-6.78871e-48
-7.12924e-49
-7.23272e-50
-7.07095e-51
-6.67712e-52
-6.09415e-53
-5.47715e-54
-4.92932e-55
-4.47544e-56
-4.10656e-57
-3.80279e-58
-3.53469e-59
-3.28907e-60
-3.02744e-61
-2.74867e-62
-2.43346e-63
-2.07064e-64
-1.64919e-65
-1.59171e-35
-6.01616e-35
-1.61321e-34
-2.90124e-34
-3.64642e-34
-3.29055e-34
-2.17929e-34
-1.13217e-34
-5.02537e-35
-2.00266e-35
-7.24703e-36
-2.38499e-36
-7.14572e-37
-1.95311e-37
-4.88706e-38
-1.12182e-38
-2.36336e-39
-4.56767e-40
-8.09996e-41
-1.3202e-41
-1.98568e-42
-2.77094e-43
-3.61996e-44
-4.46124e-45
-5.21463e-46
-5.82822e-47
-6.22736e-48
-6.36387e-49
-6.21861e-50
-5.8191e-51
-5.26642e-52
-4.66081e-53
-4.10265e-54
-3.62787e-55
-3.22955e-56
-2.88941e-57
-2.59661e-58
-2.33405e-59
-2.09486e-60
-1.85562e-61
-1.61513e-62
-1.36319e-63
-1.09628e-64
-8.22188e-66
-1.24259e-35
-4.3471e-35
-1.2144e-34
-2.30007e-34
-3.01996e-34
-2.82984e-34
-1.93908e-34
-1.03683e-34
-4.73204e-35
-1.92999e-35
-7.10281e-36
-2.36196e-36
-7.11243e-37
-1.94655e-37
-4.86343e-38
-1.11202e-38
-2.32836e-39
-4.46496e-40
-7.84642e-41
-1.26591e-41
-1.88139e-42
-2.5867e-43
-3.31445e-44
-3.98637e-45
-4.53772e-46
-4.93929e-47
-5.14898e-48
-5.17802e-49
-5.02805e-50
-4.69847e-51
-4.25115e-52
-3.72318e-53
-3.20017e-54
-2.74477e-55
-2.36464e-56
-2.04687e-57
-1.77859e-58
-1.54485e-59
-1.3379e-60
-1.14283e-61
-9.57621e-63
-7.79689e-64
-6.08026e-65
-4.43317e-66
-1.07215e-35
-3.2552e-35
-9.28837e-35
-1.83623e-34
-2.50661e-34
-2.43452e-34
-1.71768e-34
-9.47029e-35
-4.46342e-35
-1.86739e-35
-6.98438e-36
-2.34087e-36
-7.06202e-37
-1.92853e-37
-4.79405e-38
-1.08826e-38
-2.25855e-39
-4.28671e-40
-7.44628e-41
-1.18637e-41
-1.74139e-42
-2.36777e-43
-3.00717e-44
-3.59181e-45
-4.05361e-46
-4.35976e-47
-4.46546e-48
-4.37511e-49
-4.10589e-50
-3.69028e-51
-3.21422e-52
-2.73315e-53
-2.29414e-54
-1.92304e-55
-1.61534e-56
-1.35805e-57
-1.14239e-58
-9.58023e-60
-7.99617e-61
-6.57511e-62
-5.28741e-63
-4.10675e-64
-3.03224e-65
-2.08556e-66
-1.01182e-35
-2.53881e-35
-7.21775e-35
-1.4766e-34
-2.09306e-34
-2.10013e-34
-1.52635e-34
-8.66478e-35
-4.18001e-35
-1.78193e-35
-6.75478e-36
-2.28036e-36
-6.89244e-37
-1.87858e-37
-4.64863e-38
-1.04835e-38
-2.1578e-39
-4.05616e-40
-6.97118e-41
-1.09785e-41
-1.59013e-42
-2.1278e-43
-2.64998e-44
-3.09079e-45
-3.39774e-46
-3.55984e-47
-3.55903e-48
-3.42301e-49
-3.17403e-50
-2.82303e-51
-2.43569e-52
-2.04293e-53
-1.67724e-54
-1.36741e-55
-1.1142e-56
-9.07522e-58
-7.38568e-59
-5.98637e-60
-4.81871e-61
-3.8155e-62
-2.95158e-63
-2.21137e-64
-1.58202e-65
-1.0582e-66
-1.02052e-35
-2.07404e-35
-5.70028e-35
-1.20071e-34
-1.76121e-34
-1.81761e-34
-1.35472e-34
-7.86661e-35
-3.89393e-35
-1.69685e-35
-6.51663e-36
-2.21087e-36
-6.67867e-37
-1.8134e-37
-4.45865e-38
-9.96845e-39
-2.03044e-39
-3.77149e-40
-6.39661e-41
-9.92981e-42
-1.41749e-42
-1.87084e-43
-2.30112e-44
-2.65456e-45
-2.88416e-46
-2.97856e-47
-2.92213e-48
-2.73857e-49
-2.46156e-50
-2.1174e-51
-1.76403e-52
-1.43566e-53
-1.14664e-54
-9.09161e-56
-7.19336e-57
-5.67618e-58
-4.46387e-59
-3.48815e-60
-2.70392e-61
-2.06151e-62
-1.53142e-63
-1.0952e-64
-7.42854e-66
-4.69642e-67
-1.07122e-35
-1.78389e-35
-4.62082e-35
-9.91154e-35
-1.49251e-34
-1.58085e-34
-1.20481e-34
-7.17511e-35
-3.63903e-35
-1.61107e-35
-6.23914e-36
-2.1223e-36
-6.40091e-37
-1.72966e-37
-4.22228e-38
-9.35466e-39
-1.88527e-39
-3.46057e-40
-5.79496e-41
-8.87479e-42
-1.24811e-42
-1.61915e-43
-1.95146e-44
-2.19834e-45
-2.32699e-46
-2.34123e-47
-2.24191e-48
-2.05827e-49
-1.81848e-50
-1.53936e-51
-1.26158e-52
-1.0082e-53
-7.86715e-55
-6.07039e-56
-4.66241e-57
-3.56552e-58
-2.7132e-59
-2.04934e-60
-1.53128e-61
-1.12254e-62
-8.0146e-64
-5.52551e-65
-3.62749e-66
-2.22655e-67
-1.14498e-35
-1.60894e-35
-3.83514e-35
-8.27538e-35
-1.27452e-34
-1.3822e-34
-1.07792e-34
-6.5631e-35
-3.3875e-35
-1.52148e-35
-5.9342e-36
-2.01957e-36
-6.06896e-37
-1.6297e-37
-3.94465e-38
-8.64864e-39
-1.72154e-39
-3.11583e-40
-5.13769e-41
-7.73912e-42
-1.07013e-42
-1.36566e-43
-1.62033e-44
-1.79873e-45
-1.87663e-46
-1.8555e-47
-1.73973e-48
-1.55643e-49
-1.33552e-50
-1.09771e-51
-8.70755e-53
-6.75352e-54
-5.11566e-55
-3.82669e-56
-2.84521e-57
-2.10292e-58
-1.54358e-59
-1.12247e-60
-8.07175e-62
-5.69757e-63
-3.90731e-64
-2.57313e-65
-1.60438e-66
-9.30646e-68
-1.22831e-35
-1.50895e-35
-3.26933e-35
-7.00674e-35
-1.09742e-34
-1.21584e-34
-9.6676e-35
-5.99058e-35
-3.15434e-35
-1.43351e-35
-5.60622e-36
-1.90332e-36
-5.68714e-37
-1.51546e-37
-3.63421e-38
-7.88206e-39
-1.54967e-39
-2.76658e-40
-4.4952e-41
-6.66785e-42
-9.06913e-43
-1.13621e-43
-1.31965e-44
-1.43091e-45
-1.45576e-46
-1.40164e-47
-1.28128e-48
-1.119e-49
-9.39918e-51
-7.57938e-52
-5.88839e-53
-4.46352e-54
-3.29747e-55
-2.39865e-56
-1.73034e-57
-1.23872e-58
-8.79335e-60
-6.17617e-61
-4.27571e-62
-2.89689e-63
-1.90687e-64
-1.20887e-65
-7.28555e-67
-4.10624e-68
-1.31152e-35
-1.45748e-35
-2.85521e-35
-6.02085e-35
-9.54103e-35
-1.07737e-34
-8.71946e-35
-5.50309e-35
-2.94036e-35
-1.34272e-35
-5.24665e-36
-1.77305e-36
-5.2618e-37
-1.39037e-37
-3.30103e-38
-7.07536e-39
-1.37209e-39
-2.41136e-40
-3.85033e-41
-5.60526e-42
-7.47723e-43
-9.19022e-44
-1.04745e-44
-1.1154e-45
-1.11525e-46
-1.05216e-47
-9.40269e-49
-7.99265e-50
-6.52061e-51
-5.10819e-52
-3.8471e-53
-2.82703e-54
-2.02515e-55
-1.4257e-56
-9.93826e-58
-6.86567e-59
-4.69532e-60
-3.17229e-61
-2.11343e-62
-1.37912e-63
-8.7228e-65
-5.28767e-66
-3.02912e-67
-1.6143e-68
-1.38913e-35
-1.43582e-35
-2.55321e-35
-5.25142e-35
-8.39052e-35
-9.63145e-35
-7.92153e-35
-5.0741e-35
-2.73249e-35
-1.24902e-35
-4.86291e-36
-1.63295e-36
-4.80797e-37
-1.2588e-37
-2.95674e-38
-6.2587e-39
-1.19656e-39
-2.07011e-40
-3.25028e-41
-4.6487e-42
-6.0863e-43
-7.33134e-44
-8.16911e-45
-8.49002e-46
-8.27359e-47
-7.59721e-48
-6.61525e-49
-5.48037e-50
-4.36172e-51
-3.33479e-52
-2.44917e-53
-1.7521e-54
-1.22121e-55
-8.34762e-57
-5.63827e-58
-3.76794e-59
-2.48922e-60
-1.62195e-61
-1.03822e-62
-6.49024e-64
-3.93412e-65
-2.29219e-66
-1.26832e-67
-6.56178e-69
-1.45535e-35
-1.43078e-35
-2.3329e-35
-4.65506e-35
-7.47035e-35
-8.69272e-35
-7.23198e-35
-4.68004e-35
-2.53101e-35
-1.15441e-35
-4.46693e-36
-1.48772e-36
-4.34065e-37
-1.12488e-37
-2.61104e-38
-5.45108e-39
-1.02577e-39
-1.74344e-40
-2.68456e-41
-3.75985e-42
-4.81547e-43
-5.67391e-44
-6.18484e-45
-6.28736e-46
-5.99687e-47
-5.38353e-48
-4.57717e-49
-3.69069e-50
-2.85319e-51
-2.11692e-52
-1.50583e-53
-1.04244e-54
-7.03247e-56
-4.64554e-57
-3.02805e-58
-1.95056e-59
-1.24038e-60
-7.77342e-62
-4.79193e-63
-2.88742e-64
-1.68295e-65
-9.38671e-67
-4.94169e-68
-2.41831e-69
-1.50543e-35
-1.43296e-35
-2.1725e-35
-4.19565e-35
-6.74119e-35
-7.92039e-35
-6.64351e-35
-4.32403e-35
-2.33658e-35
-1.05952e-35
-4.06432e-36
-1.34056e-36
-3.87085e-37
-9.9164e-38
-2.27176e-38
-4.67233e-39
-8.64614e-40
-1.4431e-40
-2.17978e-41
-2.99226e-42
-3.75275e-43
-4.3246e-44
-4.60345e-45
-4.56395e-46
-4.23611e-47
-3.69726e-48
-3.0603e-49
-2.40238e-50
-1.80623e-51
-1.30395e-52
-9.01417e-54
-6.0533e-55
-3.96218e-56
-2.53654e-57
-1.59901e-58
-9.9441e-60
-6.09629e-61
-3.67539e-62
-2.17082e-63
-1.25021e-64
-6.97201e-66
-3.73231e-67
-1.89672e-68
-9.01753e-70
-1.53485e-35
-1.43561e-35
-2.0563e-35
-3.8459e-35
-6.16737e-35
-7.28625e-35
-6.13335e-35
-3.99487e-35
-2.1484e-35
-9.65258e-36
-3.66194e-36
-1.19417e-36
-3.4076e-37
-8.61817e-38
-1.94598e-38
-3.93738e-39
-7.1545e-40
-1.17051e-40
-1.73038e-41
-2.32166e-42
-2.84232e-43
-3.19558e-44
-3.31791e-45
-3.20692e-46
-2.90317e-47
-2.47028e-48
-1.99201e-49
-1.52107e-50
-1.1093e-51
-7.76256e-53
-5.19574e-54
-3.37183e-55
-2.13264e-56
-1.3176e-57
-8.00328e-59
-4.79143e-60
-2.82511e-61
-1.6381e-62
-9.32345e-64
-5.17838e-65
-2.77794e-66
-1.42428e-67
-6.88717e-69
-3.09647e-70
-1.54224e-35
-1.43478e-35
-1.97282e-35
-3.58465e-35
-5.72146e-35
-6.76471e-35
-5.6863e-35
-3.68695e-35
-1.96477e-35
-8.71829e-36
-3.26391e-36
-1.05047e-36
-2.95781e-37
-7.37481e-38
-1.63921e-38
-3.25922e-39
-5.80972e-40
-9.31159e-41
-1.34719e-41
-1.76759e-42
-2.11393e-43
-2.31931e-44
-2.34757e-45
-2.20949e-46
-1.94359e-47
-1.60478e-48
-1.25746e-49
-9.33397e-51
-6.59977e-52
-4.47597e-53
-2.90321e-54
-1.82287e-55
-1.11572e-56
-6.66845e-58
-3.91099e-59
-2.2568e-60
-1.28073e-61
-7.12981e-63
-3.87986e-64
-2.05561e-65
-1.05352e-66
-5.17951e-68
-2.41733e-69
-1.05573e-70
-1.52894e-35
-1.42912e-35
-1.915e-35
-3.39794e-35
-5.3815e-35
-6.33531e-35
-5.28759e-35
-3.39475e-35
-1.78497e-35
-7.79821e-36
-2.87467e-36
-9.1153e-37
-2.52908e-37
-6.20933e-38
-1.35698e-38
-2.64798e-39
-4.62436e-40
-7.2491e-41
-1.02425e-41
-1.31088e-42
-1.52745e-43
-1.63117e-44
-1.60604e-45
-1.46972e-46
-1.25682e-47
-1.00775e-48
-7.66149e-50
-5.51503e-51
-3.77424e-52
-2.47783e-53
-1.55524e-54
-9.42447e-56
-5.56281e-57
-3.20279e-58
-1.80669e-59
-1.00192e-60
-5.46132e-62
-2.92173e-63
-1.5312e-64
-7.82053e-66
-3.85465e-67
-1.81414e-68
-8.0532e-70
-3.32825e-71
-1.49865e-35
-1.41836e-35
-1.88288e-35
-3.27854e-35
-5.13127e-35
-5.97996e-35
-4.92378e-35
-3.11252e-35
-1.60782e-35
-6.89516e-36
-2.49736e-36
-7.79025e-37
-2.12758e-37
-5.13829e-38
-1.10287e-38
-2.10985e-39
-3.60597e-40
-5.52433e-41
-7.62054e-42
-9.51388e-43
-1.08039e-43
-1.1231e-44
-1.07562e-45
-9.57148e-47
-7.94206e-48
-6.16998e-49
-4.54091e-50
-3.15929e-51
-2.08649e-52
-1.32255e-53
-8.02629e-55
-4.69586e-56
-2.67541e-57
-1.48715e-58
-8.09026e-60
-4.32073e-61
-2.26499e-62
-1.16213e-63
-5.81599e-65
-2.82953e-66
-1.33045e-67
-5.99938e-69
-2.56858e-70
-1.02977e-71
-1.4603e-35
-1.40629e-35
-1.86842e-35
-3.20509e-35
-4.95032e-35
-5.68086e-35
-4.58262e-35
-2.83652e-35
-1.43389e-35
-6.0196e-36
-2.13823e-36
-6.55453e-37
-1.76049e-37
-4.17794e-38
-8.79572e-39
-1.64719e-39
-2.75101e-40
-4.11183e-41
-5.52605e-42
-6.71416e-43
-7.41263e-44
-7.48339e-45
-6.954e-46
-5.99954e-47
-4.82491e-48
-3.63301e-49
-2.58583e-50
-1.73741e-51
-1.10758e-52
-6.77512e-54
-3.97049e-55
-2.23927e-56
-1.22828e-57
-6.56527e-59
-3.42932e-60
-1.75635e-61
-8.82484e-63
-4.34295e-64
-2.08858e-65
-9.772e-67
-4.41002e-68
-1.90009e-69
-7.7311e-71
-2.934e-72
-1.41754e-35
-1.39575e-35
-1.87601e-35
-3.18813e-35
-4.8404e-35
-5.42442e-35
-4.25115e-35
-2.56265e-35
-1.26251e-35
-5.17513e-36
-1.80061e-36
-5.42123e-37
-1.43113e-37
-3.33401e-38
-6.87634e-39
-1.25902e-39
-2.0523e-40
-2.98997e-41
-3.9129e-42
-4.62568e-43
-4.96383e-44
-4.86726e-45
-4.39148e-46
-3.67345e-47
-2.85872e-48
-2.07883e-49
-1.42646e-50
-9.24133e-52
-5.67609e-53
-3.34277e-54
-1.88931e-55
-1.02638e-56
-5.42129e-58
-2.79053e-59
-1.40298e-60
-6.9095e-62
-3.33419e-63
-1.57141e-64
-7.20535e-66
-3.20507e-67
-1.37663e-68
-5.66924e-70
-2.21757e-71
-8.13211e-73
-1.37676e-35
-1.39107e-35
-1.91231e-35
-3.22514e-35
-4.77786e-35
-5.18987e-35
-3.92187e-35
-2.29025e-35
-1.09641e-35
-4.38142e-36
-1.4925e-36
-4.41161e-37
-1.14349e-37
-2.61111e-38
-5.26625e-39
-9.4092e-40
-1.49433e-40
-2.11816e-41
-2.69378e-42
-3.09196e-43
-3.21899e-44
-3.05895e-45
-2.67086e-46
-2.15589e-47
-1.61522e-48
-1.13161e-49
-7.47658e-51
-4.66876e-52
-2.76355e-53
-1.56595e-54
-8.52109e-56
-4.45017e-57
-2.25458e-58
-1.1111e-59
-5.33847e-61
-2.50784e-62
-1.1529e-63
-5.17851e-65
-2.26596e-66
-9.61883e-68
-3.93446e-69
-1.53738e-70
-5.68374e-72
-1.96488e-73
-1.34755e-35
-1.39755e-35
-1.97261e-35
-3.29876e-35
-4.7501e-35
-4.96255e-35
-3.57909e-35
-2.01833e-35
-9.36016e-36
-3.64288e-36
-1.21507e-36
-3.52534e-37
-8.96375e-38
-2.00352e-38
-3.94596e-39
-6.87103e-40
-1.06187e-40
-1.46292e-41
-1.80626e-42
-2.01086e-43
-2.02839e-44
-1.86515e-45
-1.57223e-46
-1.22073e-47
-8.75323e-49
-5.82706e-50
-3.64285e-51
-2.1548e-52
-1.20782e-53
-6.47812e-55
-3.33883e-56
-1.65214e-57
-7.92752e-59
-3.70137e-60
-1.68501e-61
-7.49969e-63
-3.26597e-64
-1.38777e-65
-5.72828e-67
-2.29066e-68
-8.83932e-70
-3.27132e-71
-1.15155e-72
-3.81231e-74
-1.79702e-35
-2.04113e-35
-2.7077e-35
-3.72575e-35
-4.39844e-35
-3.50562e-35
-2.08524e-35
-1.02476e-35
-4.27382e-36
-1.53635e-36
-4.8022e-37
-1.31016e-37
-3.12514e-38
-6.52912e-39
-1.19826e-39
-1.94062e-40
-2.78753e-41
-3.56888e-42
-4.09488e-43
-4.2379e-44
-3.97518e-45
-3.39288e-46
-2.64832e-47
-1.90432e-48
-1.27619e-49
-8.12449e-51
-4.89658e-52
-2.81376e-53
-1.53923e-54
-8.04182e-56
-4.04178e-57
-1.95509e-58
-9.15604e-60
-4.17099e-61
-1.85327e-62
-8.05023e-64
-3.42572e-65
-1.42898e-66
-5.82915e-68
-2.31567e-69
-8.91649e-71
-3.30515e-72
-1.16937e-73
-3.90867e-75
-2.49878e-35
-2.72444e-35
-3.12994e-35
-3.49149e-35
-3.22616e-35
-1.85439e-35
-9.20683e-36
-4.03202e-36
-1.53904e-36
-5.13294e-37
-1.49348e-37
-3.78653e-38
-8.37045e-39
-1.61737e-39
-2.74178e-40
-4.09905e-41
-5.43232e-42
-6.4109e-43
-6.76707e-44
-6.42431e-45
-5.51039e-46
-4.28523e-47
-3.03351e-48
-1.96285e-49
-1.16617e-50
-6.56748e-52
-3.54144e-53
-1.81845e-54
-8.91087e-56
-4.15827e-57
-1.85466e-58
-7.93883e-60
-3.2702e-61
-1.30153e-62
-5.02e-64
-1.88145e-65
-6.86137e-67
-2.43563e-68
-8.40969e-70
-2.81746e-71
-9.1223e-73
-2.83974e-74
-8.44281e-76
-2.37849e-77
-2.6404e-35
-2.66702e-35
-2.66504e-35
-2.43663e-35
-1.61898e-35
-7.06989e-36
-3.15543e-36
-1.27325e-36
-4.50479e-37
-1.39269e-37
-3.74593e-38
-8.75806e-39
-1.78285e-39
-3.1709e-40
-4.94582e-41
-6.79886e-42
-8.28062e-43
-8.96756e-44
-8.66576e-45
-7.51082e-46
-5.85851e-47
-4.11923e-48
-2.61809e-49
-1.5042e-50
-7.79484e-52
-3.73587e-53
-1.72707e-54
-7.65412e-56
-3.24602e-57
-1.31486e-58
-5.08689e-60
-1.88537e-61
-6.70079e-63
-2.28862e-64
-7.53187e-66
-2.39419e-67
-7.36575e-69
-2.19501e-70
-6.33082e-72
-1.76345e-73
-4.72537e-75
-1.21148e-76
-2.95098e-78
-6.77639e-80
-2.00064e-35
-1.79657e-35
-1.5164e-35
-1.09468e-35
-5.30914e-36
-2.10938e-36
-8.7898e-37
-3.3082e-37
-1.08493e-37
-3.09431e-38
-7.6535e-39
-1.64306e-39
-3.06995e-40
-5.01278e-41