/*--------------------------------*- C++ -*----------------------------------*\
| =========                 |                                                 |
| \\      /  F ield         | OpenFOAM: The Open Source CFD Toolbox           |
|  \\    /   O peration     | Version:  v1912                                 |
|   \\  /    A nd           | Website:  www.openfoam.com                      |
|    \\/     M anipulation  |                                                 |
\*---------------------------------------------------------------------------*/
FoamFile
{
    version     2.0;
    format      ascii;
    class       volScalarField;
    location    "70";
    object      omega;
}
// * * * * * * * * * * * * * * * * * * * * * * * * * * * * * * * * * * * * * //

dimensions      [0 0 -1 0 0 0 0];


internalField   nonuniform List<scalar> 
14268
(
94.4959
99.6431
105.286
103.876
88.4972
63.4324
60.663
73.497
86.2797
83.7581
78.9639
76.9636
79.9674
85.0773
86.7501
86.9267
83.6512
83.8589
95.3455
112.421
116.932
117.725
114.091
94.9954
60.475
48.1972
50.2284
59.249
70.5664
77.0121
79.3513
79.8078
79.2373
76.6775
71.8347
66.3064
60.8369
52.3983
44.5899
43.638
43.7585
43.5793
42.937
42.3938
42.8607
43.9405
44.5733
44.5926
44.5918
44.5916
44.5916
44.5916
44.5916
44.5916
44.5916
44.5916
44.5916
44.5916
44.5916
44.5916
44.5916
44.5916
44.5916
44.5916
44.5916
44.5916
44.5916
44.5916
44.5916
44.5916
44.5916
44.5916
44.5916
44.5916
44.5916
44.5916
44.5916
44.5916
44.5916
44.5916
44.5916
44.5916
44.5916
44.5916
44.5916
44.5916
44.5916
44.5916
44.5916
44.5916
44.5916
44.5916
44.5916
44.5916
44.5916
44.5916
44.5916
44.5916
44.5916
44.5916
44.5916
44.5916
44.5916
44.5916
44.5916
44.5916
44.5916
44.5916
44.5916
44.5916
44.5916
44.5916
44.5916
44.5916
44.5916
44.5916
44.5916
44.5916
44.5916
44.5916
44.5916
44.5916
44.5916
44.5916
44.5916
44.5916
44.5916
44.5916
44.5916
44.5916
44.5916
44.5916
44.5916
44.5916
44.5916
44.5916
44.5916
44.5916
44.5916
44.5916
44.5916
44.5916
44.5916
44.5916
44.5916
44.5916
44.5916
44.5916
44.5916
44.5916
32.9261
34.5048
36.4746
36.0531
31.0124
22.4336
20.0452
23.8673
29.666
30.7901
30.0976
28.151
27.4241
28.2157
29.445
30.5111
30.3635
31.3456
35.1482
39.9858
41.3814
41.4245
39.5247
31.9895
20.0195
15.625
15.638
18.3623
22.6118
25.0032
25.866
26.0255
25.8015
24.9828
23.4805
21.5866
19.6106
16.791
17.1497
18.7129
18.4701
16.8327
13.2994
9.39672
8.77324
9.09038
10.041
10.9528
10.7823
10.0272
9.47628
9.24073
9.11123
9.02109
8.95181
8.89641
8.84939
8.80815
8.77129
8.73779
8.70695
8.67827
8.65139
8.626
8.60187
8.57877
8.55656
8.53517
8.51456
8.49467
8.47542
8.45669
8.4386
8.42108
8.40403
8.38746
8.37134
8.35566
8.34038
8.3255
8.31098
8.29684
8.28306
8.26965
8.2566
8.24391
8.23157
8.21957
8.2079
8.19656
8.18554
8.17484
8.16443
8.15433
8.14452
8.135
8.12575
8.11679
8.10809
8.09965
8.09148
8.08355
8.07588
8.06844
8.06125
8.05428
8.04755
8.04103
8.03473
8.02863
8.02276
8.01707
8.01158
8.00628
8.00117
7.99624
7.99148
7.98689
7.98248
7.97821
7.97411
7.97016
7.96636
7.96269
7.95917
7.95578
7.95252
7.94939
7.94637
7.94348
7.94069
7.93803
7.93546
7.933
7.93063
7.92836
7.92618
7.9241
7.9221
7.92018
7.91834
7.91658
7.91489
7.91328
7.91173
7.91026
7.90886
7.90757
7.90627
7.90453
21.0142
22.0253
23.2493
22.9787
19.9026
14.3769
12.3895
14.7447
19.1535
21.0838
20.6795
18.6145
16.2939
16.233
17.6754
19.5075
19.7927
20.5399
22.9019
25.6062
26.5476
26.6686
25.325
20.1102
12.2715
9.22717
9.27643
10.9701
13.5528
15.0466
15.6068
15.7148
15.5852
15.1128
14.2416
13.0999
11.8518
10.0678
10.2248
11.5983
11.4252
10.1102
7.47028
4.91094
4.17714
4.17775
4.597
4.90862
4.63268
4.07327
3.74289
3.59938
3.51718
3.45865
3.41394
3.3781
3.34744
3.32036
3.29601
3.27375
3.25316
3.23395
3.21589
3.19881
3.18256
3.167
3.15205
3.13766
3.12379
3.11041
3.09746
3.08493
3.07283
3.06112
3.04975
3.03873
3.02804
3.01765
3.00757
2.99776
2.98823
2.97897
2.96997
2.96123
2.95274
2.9445
2.93651
2.92875
2.92122
2.91392
2.90685
2.89998
2.89333
2.88688
2.88062
2.87457
2.8687
2.86302
2.85752
2.85219
2.84704
2.84206
2.83724
2.83257
2.82807
2.82372
2.81951
2.81545
2.81153
2.80774
2.80409
2.80057
2.79717
2.79389
2.79074
2.7877
2.78477
2.78194
2.77923
2.77661
2.77409
2.77167
2.76934
2.7671
2.76494
2.76287
2.76088
2.75897
2.75713
2.75537
2.75367
2.75205
2.75049
2.74899
2.74755
2.74618
2.74485
2.74359
2.74237
2.74121
2.7401
2.73903
2.73801
2.73703
2.7361
2.73521
2.73437
2.73359
2.7328
2.73176
16.2773
17.0008
17.8699
17.6883
15.4663
11.3471
9.47529
11.0542
14.7804
17.5111
17.4766
15.3341
11.9859
11.1612
12.1376
14.6824
15.5508
16.329
18.1043
19.8327
20.5696
20.6709
19.4973
15.3613
9.39668
6.93932
6.95517
8.12625
9.9506
11.0416
11.4632
11.548
11.4581
11.1345
10.5422
9.73594
8.8291
7.56051
7.34141
7.80836
7.38397
6.38354
4.9049
3.44094
2.92607
2.95235
3.1479
3.14002
2.81505
2.34173
2.108
2.00172
1.93915
1.89449
1.86021
1.83212
1.80771
1.78594
1.7662
1.74805
1.73119
1.7154
1.70052
1.68643
1.673
1.66015
1.64781
1.63594
1.62451
1.61348
1.60284
1.59256
1.58265
1.57307
1.56379
1.55482
1.54613
1.53771
1.52955
1.52165
1.51398
1.50655
1.49934
1.49236
1.4856
1.47904
1.4727
1.46655
1.46061
1.45485
1.44928
1.44388
1.43867
1.43362
1.42873
1.42401
1.41945
1.41503
1.41077
1.40665
1.40267
1.39882
1.39511
1.39153
1.38807
1.38473
1.38151
1.37841
1.37542
1.37253
1.36975
1.36707
1.36449
1.36201
1.35962
1.35731
1.3551
1.35296
1.35092
1.34894
1.34705
1.34522
1.34347
1.34178
1.34017
1.33861
1.33712
1.33569
1.33431
1.33299
1.33173
1.33051
1.32935
1.32823
1.32716
1.32613
1.32515
1.3242
1.3233
1.32243
1.3216
1.32081
1.32005
1.31933
1.31863
1.31797
1.31734
1.31677
1.31618
1.31542
13.7433
14.3151
14.9788
14.8386
13.0409
9.74071
7.99607
8.92846
11.7082
15.2065
15.9886
13.2452
9.48766
8.71863
9.06392
11.4361
13.0279
13.918
15.4259
16.6902
17.374
17.4683
16.4118
12.8891
7.94049
5.81672
5.75632
6.60904
8.00753
8.87689
9.22152
9.29459
9.22888
8.98565
8.53618
7.90192
7.18697
6.22104
5.87684
5.80894
5.39852
4.75363
3.84488
2.82163
2.37234
2.35574
2.454
2.35625
1.97706
1.57944
1.41022
1.33223
1.28611
1.25251
1.2251
1.20146
1.18051
1.16164
1.14444
1.12856
1.11376
1.09988
1.08678
1.07438
1.06257
1.05128
1.04047
1.03008
1.02009
1.01048
1.00123
0.99232
0.983744
0.975476
0.967498
0.959797
0.952363
0.945183
0.938246
0.931541
0.925059
0.918793
0.912736
0.906882
0.901227
0.895763
0.890486
0.885389
0.880466
0.875713
0.871123
0.866692
0.862414
0.858285
0.854301
0.850456
0.846747
0.843168
0.839718
0.836389
0.833181
0.830088
0.827108
0.824235
0.821469
0.818803
0.816236
0.813764
0.811385
0.809094
0.806891
0.80477
0.802731
0.800769
0.798883
0.797068
0.795326
0.793649
0.792041
0.790493
0.789008
0.78758
0.786211
0.784895
0.783632
0.78242
0.781258
0.780142
0.779072
0.778046
0.777062
0.776118
0.775214
0.774347
0.773517
0.772721
0.77196
0.771229
0.770531
0.769862
0.769222
0.768609
0.768023
0.767462
0.766927
0.766418
0.765933
0.765489
0.765035
0.76445
12.138
12.5836
13.0973
12.9948
11.486
8.75213
7.12908
7.51936
9.01014
13.2642
14.2591
11.0083
7.95899
7.48231
7.48273
8.95991
11.2689
12.4004
13.7697
14.7243
15.3758
15.406
14.3887
11.311
7.07807
5.18385
5.0301
5.65627
6.76517
7.48241
7.77135
7.8355
7.78416
7.5964
7.25039
6.73182
6.13916
5.36517
5.00682
4.78969
4.43532
3.95934
3.29439
2.48558
2.08349
1.97568
1.95082
1.80158
1.43922
1.15205
1.03477
0.980416
0.948045
0.922923
0.900082
0.879266
0.860509
0.843521
0.827971
0.813597
0.800198
0.787634
0.775794
0.764596
0.753959
0.743823
0.734135
0.72486
0.715975
0.707454
0.699279
0.691434
0.683907
0.676676
0.669722
0.663035
0.656602
0.650412
0.644451
0.638711
0.633181
0.627854
0.622723
0.61778
0.61302
0.608436
0.604022
0.599771
0.595678
0.591737
0.587943
0.58429
0.580774
0.577388
0.57413
0.570994
0.567976
0.565071
0.562277
0.559588
0.557002
0.554514
0.552121
0.54982
0.547608
0.545481
0.543437
0.541471
0.539583
0.537769
0.536026
0.53435
0.532743
0.531197
0.529715
0.528289
0.526923
0.52561
0.524352
0.523142
0.521983
0.52087
0.519803
0.518779
0.517798
0.516857
0.515955
0.51509
0.514262
0.513468
0.512707
0.511978
0.51128
0.510611
0.509971
0.509357
0.508771
0.508209
0.507671
0.507157
0.506665
0.506194
0.505744
0.505314
0.504903
0.504513
0.504142
0.503801
0.503454
0.503007
11.0407
11.4001
11.81
11.7231
10.3992
8.04112
6.54456
6.69043
7.51647
10.6916
11.5928
9.13782
7.02358
6.69694
6.57649
7.25913
9.90065
11.241
12.5707
13.3603
14.0222
13.9963
13.0077
10.2466
6.49579
4.75542
4.53147
5.00138
5.90288
6.51129
6.76028
6.81853
6.77678
6.62725
6.35418
5.91823
5.40588
4.75739
4.41759
4.17123
3.86123
3.47993
2.94982
2.26115
1.90873
1.797
1.67098
1.44332
1.11973
0.913984
0.822483
0.777053
0.7493
0.72799
0.707618
0.688668
0.671472
0.655859
0.641563
0.628361
0.616075
0.604583
0.593784
0.583603
0.573968
0.564823
0.55612
0.547825
0.539913
0.532359
0.525144
0.51825
0.511663
0.505362
0.499331
0.493555
0.488022
0.48272
0.477637
0.472762
0.468085
0.463598
0.459293
0.455162
0.451198
0.447395
0.443747
0.440245
0.436886
0.433662
0.430568
0.427599
0.42475
0.422015
0.419391
0.416872
0.414456
0.412136
0.409911
0.407775
0.405725
0.403759
0.401872
0.400062
0.398325
0.396659
0.395061
0.393528
0.392058
0.390648
0.389296
0.387999
0.386756
0.385563
0.38442
0.383324
0.382275
0.381267
0.380303
0.379378
0.378492
0.377643
0.37683
0.37605
0.375304
0.374589
0.373905
0.373249
0.372621
0.37202
0.371445
0.370894
0.370367
0.369862
0.36938
0.368918
0.368477
0.368054
0.36765
0.367263
0.366894
0.36654
0.366203
0.365881
0.365573
0.365281
0.365002
0.364747
0.364488
0.364154
10.2261
10.4935
10.8188
10.758
9.58747
7.51977
6.13667
6.16684
6.68195
8.33894
9.14595
7.68334
6.35083
6.11797
5.9654
6.22278
8.80688
10.3687
11.7128
12.3673
13.0375
12.9395
11.9455
9.44731
6.08566
4.46005
4.16687
4.51536
5.25814
5.78078
5.99728
6.0503
6.01438
5.89475
5.68158
5.31551
4.8637
4.30079
3.9807
3.73807
3.46884
3.15465
2.71441
2.11283
1.77522
1.67119
1.52263
1.24887
0.927024
0.761481
0.685128
0.644599
0.619737
0.600343
0.581573
0.564045
0.548107
0.533647
0.520433
0.508268
0.49699
0.486484
0.476655
0.467433
0.458749
0.450549
0.442788
0.43543
0.42845
0.421821
0.415523
0.409538
0.403847
0.398432
0.393274
0.38836
0.383677
0.37921
0.374948
0.370881
0.366996
0.363287
0.359744
0.356359
0.353125
0.350035
0.347083
0.344261
0.341564
0.338985
0.33652
0.334163
0.331909
0.329753
0.32769
0.325718
0.323831
0.322025
0.320298
0.318645
0.317064
0.31555
0.314102
0.312716
0.31139
0.310121
0.308906
0.307744
0.306631
0.305566
0.304548
0.303572
0.302639
0.301745
0.300891
0.300072
0.29929
0.29854
0.297824
0.297137
0.296481
0.295852
0.295252
0.294676
0.294126
0.2936
0.293096
0.292615
0.292154
0.291713
0.291292
0.290889
0.290504
0.290135
0.289783
0.289446
0.289124
0.288816
0.288523
0.288241
0.287973
0.287716
0.287472
0.287238
0.287015
0.286803
0.286601
0.286417
0.286229
0.285988
9.61732
9.76553
9.94996
9.9614
8.95198
7.0976
5.83173
5.80209
6.14912
7.06108
7.46532
6.6809
5.8382
5.66907
5.5106
5.57078
7.78932
9.60798
11.0253
11.605
12.3113
12.1619
11.1601
8.85526
5.77438
4.23216
3.88047
4.13744
4.76028
5.21662
5.40793
5.45677
5.42494
5.3279
5.15912
4.84834
4.44582
3.94422
3.63487
3.40316
3.17062
2.90955
2.53966
2.01679
1.65513
1.55022
1.38983
1.08521
0.793728
0.658924
0.594006
0.555015
0.528994
0.510439
0.493
0.47671
0.46191
0.448521
0.43634
0.425181
0.414892
0.405361
0.396498
0.388231
0.380495
0.373235
0.366408
0.359976
0.353912
0.34819
0.342786
0.33768
0.332855
0.32829
0.323967
0.319872
0.31599
0.312309
0.308815
0.305498
0.302347
0.299353
0.296507
0.293802
0.29123
0.288783
0.286456
0.284242
0.282134
0.280128
0.278218
0.276399
0.274666
0.273014
0.271441
0.269941
0.268511
0.267148
0.265848
0.264607
0.263425
0.262296
0.26122
0.260192
0.259212
0.258276
0.257382
0.256529
0.255715
0.254938
0.254195
0.253486
0.252809
0.252162
0.251545
0.250955
0.250392
0.249853
0.249339
0.248847
0.248378
0.247929
0.247501
0.247092
0.246701
0.246327
0.24597
0.245629
0.245303
0.244992
0.244695
0.24441
0.244139
0.24388
0.243632
0.243395
0.24317
0.242954
0.242748
0.242551
0.242363
0.242184
0.242013
0.24185
0.241694
0.241546
0.241406
0.241277
0.241147
0.240979
9.11586
9.08471
9.05057
9.17916
8.39937
6.7548
5.59872
5.50907
5.71584
6.23923
6.40822
5.97106
5.42874
5.30014
5.14527
5.12486
6.78377
8.96379
10.5073
11.0159
11.7414
11.4923
10.4704
8.3447
5.53103
4.05772
3.64097
3.82815
4.35879
4.76041
4.93012
4.97474
4.9457
4.86748
4.7362
4.47315
4.11308
3.65971
3.35495
3.13307
2.93189
2.71431
2.40277
1.94866
1.57038
1.3942
1.22057
0.934469
0.700427
0.592229
0.532713
0.492044
0.46311
0.44399
0.427674
0.412542
0.398849
0.386527
0.375386
0.365247
0.355962
0.347422
0.339537
0.332234
0.325448
0.319127
0.313223
0.307702
0.302533
0.297688
0.293143
0.288878
0.284874
0.281109
0.277567
0.274232
0.27109
0.268128
0.265333
0.262695
0.260203
0.257848
0.255622
0.253517
0.251526
0.249642
0.247858
0.246169
0.244569
0.243052
0.241615
0.240252
0.238959
0.237732
0.236568
0.235462
0.234412
0.233415
0.232467
0.231567
0.23071
0.229896
0.229122
0.228385
0.227684
0.227017
0.226382
0.225778
0.225202
0.224654
0.224132
0.223635
0.223161
0.222709
0.222279
0.221869
0.221478
0.221105
0.22075
0.22041
0.220088
0.219779
0.219485
0.219204
0.218937
0.218681
0.218438
0.218206
0.217984
0.217773
0.217571
0.217378
0.217195
0.217019
0.216852
0.216692
0.21654
0.216395
0.216256
0.216124
0.215998
0.215877
0.215762
0.215653
0.215549
0.21545
0.215356
0.21527
0.215183
0.215071
8.64344
8.35273
8.10681
8.31808
7.86038
6.45559
5.40781
5.25711
5.34377
5.64016
5.74799
5.47347
5.09485
4.99377
4.84728
4.79448
5.9426
8.31599
10.0702
10.5415
11.2243
10.774
9.68687
7.80255
5.31499
3.89329
3.42514
3.57057
4.03127
4.38868
4.54079
4.58158
4.555
4.49184
4.38909
4.1641
3.84016
3.42777
3.12827
2.91378
2.73927
2.55841
2.29367
1.89667
1.52128
1.28184
1.04999
0.800945
0.638354
0.54613
0.486399
0.443691
0.412904
0.393203
0.377921
0.363917
0.351338
0.340106
0.33003
0.320933
0.312669
0.30513
0.298224
0.291879
0.28603
0.280624
0.275614
0.270965
0.266644
0.262625
0.258882
0.255395
0.252143
0.249107
0.246269
0.243615
0.24113
0.238803
0.236621
0.234573
0.232651
0.230845
0.229147
0.227551
0.226049
0.224635
0.223304
0.22205
0.220868
0.219753
0.218701
0.217709
0.216771
0.215886
0.215049
0.214258
0.21351
0.212802
0.212132
0.211497
0.210897
0.210327
0.209788
0.209276
0.208791
0.208331
0.207895
0.20748
0.207087
0.206713
0.206358
0.206021
0.205701
0.205396
0.205107
0.204832
0.20457
0.204321
0.204084
0.203858
0.203645
0.20344
0.203246
0.20306
0.202884
0.202716
0.202557
0.202404
0.202259
0.202121
0.201989
0.201864
0.201744
0.20163
0.201522
0.201418
0.201319
0.201225
0.201136
0.20105
0.200969
0.200891
0.200817
0.200747
0.20068
0.200617
0.200556
0.200501
0.200445
0.200374
8.15168
7.52005
7.23677
7.43095
7.29687
6.194
5.24972
5.02801
4.99863
5.10034
5.26601
5.09477
4.81729
4.73034
4.5915
4.53298
5.38036
7.72511
9.71792
10.1366
10.6736
9.85464
8.64052
7.12309
5.08052
3.72082
3.2216
3.35066
3.75603
4.0755
4.21184
4.24874
4.22441
4.17429
4.09618
3.9041
3.61168
3.23516
2.94348
2.73623
2.58599
2.43492
2.20663
1.85435
1.48575
1.23222
0.977601
0.744808
0.598915
0.506845
0.445598
0.402752
0.3725
0.35351
0.339262
0.326374
0.314928
0.304808
0.295812
0.287764
0.280518
0.273964
0.268014
0.262593
0.257638
0.253096
0.248922
0.245079
0.241536
0.238265
0.235243
0.232447
0.229858
0.227459
0.225232
0.223163
0.221239
0.219448
0.21778
0.216225
0.214774
0.213418
0.212152
0.210968
0.209861
0.208824
0.207853
0.206943
0.20609
0.20529
0.204539
0.203833
0.20317
0.202546
0.20196
0.201408
0.200888
0.200398
0.199937
0.199502
0.199091
0.198704
0.198338
0.197993
0.197667
0.197358
0.197067
0.196791
0.19653
0.196283
0.196049
0.195827
0.195618
0.195418
0.19523
0.195051
0.194882
0.19472
0.194568
0.194423
0.194286
0.194154
0.194031
0.193912
0.193801
0.193693
0.193593
0.193496
0.193405
0.193317
0.193235
0.193156
0.193081
0.19301
0.192942
0.192877
0.192816
0.192757
0.192701
0.192649
0.192598
0.19255
0.192504
0.192461
0.192419
0.19238
0.192343
0.192309
0.192275
0.192231
7.66578
6.8013
6.57414
6.70832
6.72222
5.94199
5.10605
4.83337
4.73558
4.67414
4.88447
4.79708
4.5814
4.5037
4.37249
4.31784
5.01329
7.20269
9.32332
9.72636
10.0526
8.93771
7.70927
6.41854
4.79566
3.50782
3.04409
3.16297
3.52342
3.81158
3.93454
3.96801
3.94609
3.9069
3.84788
3.68173
3.41628
3.07113
2.78895
2.59114
2.46188
2.33534
2.13569
1.81778
1.45705
1.19071
0.941844
0.714483
0.563347
0.467688
0.407186
0.366695
0.339124
0.322125
0.308904
0.297128
0.28682
0.27781
0.269882
0.262858
0.256594
0.250981
0.245931
0.241371
0.23724
0.233485
0.230062
0.226937
0.224079
0.22146
0.219059
0.216854
0.214828
0.212963
0.211243
0.209657
0.208192
0.206837
0.205583
0.20442
0.203343
0.202342
0.201414
0.200549
0.199746
0.198998
0.198302
0.197653
0.197047
0.196482
0.195955
0.195462
0.195001
0.194569
0.194165
0.193787
0.193432
0.1931
0.192788
0.192495
0.19222
0.191961
0.191719
0.19149
0.191275
0.191072
0.190882
0.190702
0.190533
0.190373
0.190222
0.19008
0.189946
0.189819
0.189699
0.189586
0.189479
0.189377
0.189282
0.18919
0.189105
0.189023
0.188947
0.188873
0.188804
0.188738
0.188676
0.188617
0.188561
0.188508
0.188457
0.188409
0.188364
0.188321
0.18828
0.188241
0.188204
0.188169
0.188135
0.188103
0.188073
0.188044
0.188017
0.187991
0.187966
0.187943
0.187921
0.187901
0.18788
0.187855
7.08919
6.20829
6.05608
6.15027
6.19616
5.70584
4.9823
4.67039
4.52675
4.36127
4.57931
4.5441
4.37541
4.30344
4.17802
4.13101
4.75244
6.80539
8.92367
9.29763
9.33777
8.14016
6.97319
5.81296
4.46278
3.28837
2.89141
3.00037
3.32217
3.58285
3.69356
3.72376
3.70411
3.67473
3.63275
3.48896
3.2471
2.92951
2.65765
2.47028
2.35771
2.25245
2.07659
1.78668
1.43487
1.14903
0.905489
0.682269
0.524125
0.426751
0.37028
0.335003
0.311645
0.296985
0.284789
0.27414
0.264972
0.257059
0.250172
0.244131
0.238798
0.234064
0.229845
0.226069
0.222678
0.219621
0.216858
0.214355
0.212083
0.210017
0.208136
0.206421
0.204855
0.203423
0.202111
0.200909
0.199805
0.198791
0.197858
0.196997
0.196205
0.195472
0.194797
0.194171
0.193593
0.193057
0.192561
0.1921
0.191673
0.191276
0.190907
0.190564
0.190244
0.189947
0.18967
0.189411
0.189171
0.188946
0.188735
0.188539
0.188355
0.188184
0.188023
0.187872
0.187731
0.187599
0.187475
0.187358
0.187249
0.187146
0.187049
0.186959
0.186873
0.186793
0.186717
0.186646
0.186579
0.186515
0.186456
0.1864
0.186347
0.186296
0.18625
0.186204
0.186163
0.186122
0.186085
0.186049
0.186015
0.185983
0.185953
0.185924
0.185897
0.185871
0.185847
0.185824
0.185802
0.185781
0.185762
0.185743
0.185725
0.185709
0.185692
0.185677
0.185663
0.18565
0.185637
0.185625
0.185613
0.185599
6.24738
5.51273
5.43436
5.48415
5.54027
5.38675
4.82236
4.47012
4.28774
4.01858
4.16843
4.207
4.1027
4.03908
3.9231
3.88463
4.44436
6.36894
8.44922
8.70708
8.2974
7.15264
6.10092
5.06861
3.97586
3.00417
2.69152
2.78818
3.06151
3.28757
3.38253
3.40795
3.39076
3.37437
3.35343
3.23607
3.02472
2.74296
2.48606
2.3112
2.21582
2.14052
1.99789
1.74478
1.41176
1.08701
0.835885
0.610765
0.449505
0.363151
0.319841
0.294895
0.279114
0.267186
0.256757
0.247916
0.240469
0.234154
0.228746
0.224075
0.22001
0.216453
0.21332
0.210553
0.208094
0.205905
0.203944
0.202187
0.200606
0.199184
0.1979
0.196741
0.19569
0.194739
0.193872
0.193086
0.192368
0.191713
0.191116
0.190565
0.190067
0.189602
0.189183
0.188792
0.188437
0.188109
0.187808
0.187531
0.187276
0.187041
0.186823
0.186623
0.186437
0.186265
0.186106
0.185958
0.185822
0.185695
0.185577
0.185468
0.185366
0.185272
0.185184
0.185103
0.185027
0.184956
0.18489
0.184829
0.184771
0.184718
0.184668
0.184622
0.184578
0.184538
0.1845
0.184464
0.184431
0.1844
0.184371
0.184343
0.184318
0.184294
0.184272
0.18425
0.184231
0.184212
0.184195
0.184178
0.184163
0.184149
0.184135
0.184122
0.18411
0.184099
0.184088
0.184078
0.184069
0.18406
0.184051
0.184044
0.184036
0.184029
0.184022
0.184016
0.18401
0.184004
0.183999
0.183995
0.183989
0.183985
5.33314
4.86687
4.84898
4.87003
4.90506
5.06707
4.65207
4.24889
4.02352
3.71716
3.78653
3.87042
3.81142
3.75368
3.64857
3.61536
4.1393
6.07806
8.09246
8.08537
7.21919
6.23082
5.29516
4.36878
3.50537
2.74983
2.49063
2.56646
2.7892
2.97719
3.05266
3.06944
3.0517
3.04974
3.05816
2.97246
2.79397
2.54768
2.3087
2.13812
2.03828
1.99143
1.89474
1.68997
1.3908
1.03897
0.729705
0.511062
0.386041
0.320763
0.284311
0.263114
0.251107
0.241838
0.233835
0.227139
0.221584
0.21695
0.213043
0.209717
0.20686
0.204388
0.202234
0.200352
0.198694
0.197232
0.195934
0.19478
0.193749
0.192827
0.191997
0.191251
0.190576
0.189967
0.189415
0.188916
0.188462
0.18805
0.187677
0.187334
0.187026
0.18674
0.186483
0.186244
0.186028
0.185827
0.185643
0.185472
0.185314
0.185168
0.185033
0.184909
0.184795
0.18469
0.184594
0.184505
0.184423
0.184348
0.184278
0.184214
0.184154
0.1841
0.184049
0.184003
0.18396
0.18392
0.183883
0.183849
0.183818
0.183789
0.183762
0.183738
0.183715
0.183694
0.183674
0.183657
0.18364
0.183624
0.18361
0.183596
0.183584
0.183572
0.183563
0.183552
0.183544
0.183535
0.183528
0.18352
0.183514
0.183507
0.183502
0.183496
0.183492
0.183487
0.183483
0.183479
0.183475
0.183472
0.183468
0.183466
0.183463
0.183461
0.183458
0.183456
0.183453
0.183452
0.183449
0.183448
0.183446
0.183446
4.72067
4.40147
4.41546
4.42098
4.41207
4.7568
4.45675
4.01158
3.76486
3.4992
3.5146
3.59602
3.56773
3.51977
3.42855
3.40188
3.83841
5.86233
7.72498
7.49218
6.45211
5.58448
4.74688
3.88879
3.15165
2.55809
2.3282
2.38861
2.57293
2.72906
2.78403
2.78857
2.76861
2.77577
2.81182
2.75603
2.6068
2.38891
2.16722
1.9961
1.8786
1.83201
1.77897
1.62634
1.36656
1.01912
0.683527
0.477618
0.365656
0.303609
0.266618
0.24453
0.23322
0.226259
0.220274
0.215239
0.211087
0.207663
0.204803
0.202385
0.200318
0.198538
0.19699
0.195637
0.194444
0.193389
0.192451
0.191612
0.190858
0.19018
0.189569
0.189021
0.188527
0.188082
0.187677
0.18731
0.186974
0.186667
0.186387
0.186128
0.185894
0.185674
0.185476
0.18529
0.185121
0.184966
0.184825
0.184698
0.184583
0.184481
0.184386
0.1843
0.184221
0.184148
0.184081
0.184019
0.183962
0.18391
0.183862
0.183818
0.183778
0.18374
0.183706
0.183674
0.183645
0.183618
0.183594
0.183571
0.183551
0.183532
0.183514
0.183498
0.183483
0.18347
0.183457
0.183445
0.183436
0.183428
0.183422
0.183415
0.183407
0.183399
0.183392
0.183385
0.183379
0.183374
0.183369
0.183364
0.18336
0.183356
0.183353
0.183349
0.183346
0.183343
0.183341
0.183339
0.183336
0.183334
0.183333
0.183329
0.183327
0.183326
0.183325
0.183324
0.183323
0.183323
0.183322
0.183322
0.183321
0.183323
4.26573
4.03324
4.06993
4.06661
4.01391
4.42414
4.22559
3.68712
3.40888
3.27668
3.3118
3.37888
3.36299
3.31965
3.23955
3.22077
3.55346
5.5738
7.39111
6.81087
5.79593
5.04699
4.30737
3.5218
2.87883
2.39293
2.19255
2.23909
2.3915
2.51682
2.54956
2.5428
2.52123
2.53277
2.59294
2.57176
2.45106
2.25741
2.05192
1.88452
1.75739
1.68252
1.64967
1.54833
1.33156
1.00453
0.663773
0.462265
0.352769
0.29135
0.254894
0.233149
0.222267
0.216955
0.212414
0.208568
0.205384
0.202744
0.200525
0.198643
0.197032
0.195638
0.194421
0.19335
0.192402
0.191562
0.190812
0.190146
0.189553
0.189025
0.188552
0.188123
0.187726
0.187362
0.187028
0.186725
0.186448
0.186194
0.185963
0.185749
0.185556
0.185377
0.185216
0.185069
0.184935
0.184811
0.184699
0.184595
0.184497
0.184403
0.184316
0.184235
0.18416
0.184091
0.184028
0.183969
0.183915
0.183865
0.183819
0.183777
0.183737
0.183701
0.183668
0.183637
0.183609
0.183583
0.183559
0.183536
0.183516
0.183497
0.183479
0.183463
0.183449
0.183435
0.183422
0.183411
0.183399
0.183386
0.183371
0.183359
0.183352
0.183346
0.183341
0.183336
0.183332
0.183328
0.183324
0.183321
0.183318
0.183315
0.183313
0.183311
0.183309
0.183307
0.183306
0.183305
0.183303
0.183302
0.183301
0.183302
0.183301
0.183301
0.1833
0.1833
0.183299
0.183299
0.183299
0.1833
0.183299
0.183301
3.9266
3.74629
3.79318
3.78601
3.70801
4.04441
3.93808
3.37442
3.08133
3.07464
3.14123
3.20264
3.18985
3.15003
3.08146
3.07159
3.32364
5.20252
6.93528
6.06067
5.21014
4.57407
3.94099
3.24567
2.65339
2.23888
2.07168
2.11166
2.23734
2.33378
2.34938
2.33703
2.31434
2.32555
2.39763
2.40841
2.31459
2.14422
1.95499
1.79371
1.66586
1.57039
1.52198
1.45315
1.28374
0.988869
0.650494
0.447418
0.33964
0.280701
0.246205
0.2256
0.215423
0.211254
0.207766
0.204705
0.20214
0.2
0.198197
0.196659
0.195331
0.194174
0.193158
0.192264
0.19147
0.190766
0.190136
0.189571
0.189057
0.188577
0.188126
0.187708
0.18734
0.187011
0.186711
0.186436
0.186184
0.185952
0.18574
0.185544
0.185366
0.1852
0.185048
0.184906
0.184775
0.184651
0.184534
0.184425
0.184323
0.184236
0.184156
0.184084
0.184017
0.183955
0.183899
0.183847
0.183799
0.183755
0.183715
0.183678
0.183644
0.183612
0.183584
0.183557
0.183534
0.183511
0.183491
0.183473
0.183456
0.183441
0.183427
0.183415
0.183403
0.183392
0.183383
0.183374
0.183366
0.183359
0.183355
0.183351
0.183346
0.18334
0.183336
0.183332
0.183328
0.183324
0.183322
0.183318
0.183316
0.183314
0.183312
0.18331
0.183308
0.183307
0.183305
0.183304
0.183303
0.183302
0.183301
0.183303
0.183303
0.183302
0.183302
0.183302
0.183302
0.183304
0.183304
0.183307
0.183309
0.183313
3.64317
3.50581
3.56143
3.55128
3.46806
3.68555
3.59981
3.13726
2.85724
2.89656
3.00678
3.05463
3.04151
3.00169
2.94183
2.93892
3.13607
4.72228
6.25069
5.2445
4.65258
4.10771
3.57897
3.0018
2.47263
2.10264
1.96336
1.9983
2.09914
2.17101
2.17737
2.16406
2.14137
2.14859
2.22031
2.26195
2.19268
2.04523
1.87201
1.71813
1.59333
1.48875
1.41703
1.35239
1.22205
0.965969
0.639686
0.434617
0.328358
0.271743
0.239594
0.22076
0.211662
0.208334
0.20551
0.202934
0.200744
0.198895
0.197322
0.195964
0.194778
0.193734
0.192811
0.191992
0.19126
0.190602
0.190006
0.189459
0.188954
0.188491
0.188072
0.187702
0.187363
0.187047
0.186755
0.186488
0.186242
0.186015
0.185806
0.185613
0.185435
0.185269
0.185115
0.184973
0.184841
0.184721
0.184612
0.184512
0.184421
0.184335
0.184255
0.184182
0.184113
0.18405
0.183991
0.183937
0.183887
0.18384
0.183797
0.183758
0.183721
0.183687
0.183656
0.183627
0.1836
0.183575
0.183553
0.183531
0.183512
0.183494
0.183477
0.183462
0.183448
0.183435
0.183423
0.183413
0.183403
0.183396
0.183391
0.183386
0.183379
0.183371
0.183366
0.183359
0.183355
0.18335
0.183346
0.183341
0.183338
0.183335
0.183332
0.183329
0.183327
0.183325
0.183323
0.183322
0.18332
0.18332
0.183319
0.183317
0.183317
0.183317
0.183318
0.18332
0.183322
0.183325
0.18333
0.183338
0.183348
0.183336
3.42074
3.30865
3.36721
3.35589
3.27142
3.41112
3.33282
2.96067
2.70532
2.7471
2.87901
2.92559
2.91273
2.87331
2.82244
2.82498
2.98492
4.26074
5.40168
4.65507
4.13667
3.66793
3.24772
2.7882
2.33072
1.99641
1.86663
1.89483
1.97537
2.03057
2.03437
2.02194
1.99983
2.00345
2.06802
2.12989
2.08071
1.95538
1.79909
1.65343
1.53335
1.42636
1.33949
1.26426
1.15237
0.932631
0.62624
0.421201
0.317898
0.264708
0.234939
0.217327
0.208978
0.206234
0.203866
0.201624
0.199679
0.198018
0.196589
0.195345
0.194253
0.193288
0.192428
0.191654
0.190953
0.190312
0.189725
0.189185
0.188694
0.188255
0.187868
0.18752
0.187191
0.186882
0.186595
0.186332
0.186089
0.185867
0.185662
0.185475
0.185305
0.18515
0.18501
0.184884
0.184771
0.18467
0.184578
0.184491
0.184407
0.184321
0.184239
0.184162
0.184092
0.184027
0.183967
0.183912
0.183861
0.183814
0.183771
0.183732
0.183695
0.183661
0.18363
0.183601
0.183575
0.18355
0.183528
0.183506
0.183487
0.183469
0.183453
0.183438
0.183425
0.183413
0.183402
0.183391
0.183381
0.18337
0.183359
0.183348
0.183343
0.183338
0.183334
0.18333
0.183327
0.183324
0.183322
0.183319
0.183317
0.183315
0.183314
0.183313
0.183312
0.183311
0.18331
0.183309
0.183309
0.183309
0.183308
0.183309
0.183309
0.18331
0.183311
0.183312
0.183313
0.183314
0.183316
0.183318
0.183328
0.183325
2.75859
2.71722
2.7764
2.76286
2.68529
2.69908
2.65182
2.50355
2.35875
2.37057
2.50689
2.53111
2.52393
2.49088
2.4716
2.4886
2.55885
3.09991
3.52438
3.1884
2.76115
2.45935
2.32089
2.17232
1.97194
1.72661
1.59795
1.59767
1.63397
1.66635
1.67581
1.6707
1.65485
1.65174
1.69
1.77767
1.78084
1.7197
1.61342
1.49456
1.39017
1.2875
1.18162
1.07866
0.969375
0.807585
0.559318
0.369791
0.281328
0.241376
0.221412
0.210795
0.206663
0.204874
0.20282
0.200778
0.199041
0.197545
0.196238
0.195086
0.194061
0.193143
0.192315
0.191567
0.190888
0.190271
0.189709
0.189197
0.188731
0.188301
0.187898
0.18752
0.187178
0.18687
0.186588
0.186328
0.186088
0.185868
0.185666
0.185479
0.185306
0.185146
0.184997
0.184858
0.184729
0.184608
0.184496
0.184392
0.184297
0.184213
0.184137
0.184067
0.184003
0.183944
0.183889
0.183839
0.183792
0.18375
0.18371
0.183674
0.183641
0.18361
0.183582
0.183556
0.183533
0.183511
0.183492
0.183474
0.183458
0.183443
0.183429
0.183417
0.183405
0.183395
0.183385
0.183376
0.183369
0.183363
0.183358
0.183353
0.183347
0.183342
0.183337
0.183332
0.183328
0.183324
0.183321
0.183318
0.183315
0.183312
0.18331
0.183308
0.183306
0.183305
0.183303
0.183302
0.183301
0.1833
0.1833
0.1833
0.1833
0.183302
0.183303
0.183305
0.183306
0.183309
0.183311
0.183314
0.18332
0.18332
2.18717
2.24051
2.27089
2.27036
2.24058
2.22643
2.22838
2.21861
2.19043
2.13801
2.16644
2.17919
2.17543
2.15931
2.15869
2.19798
2.19904
2.34621
2.40307
2.12544
1.74833
1.49545
1.47938
1.54373
1.56002
1.46241
1.32125
1.29303
1.31293
1.34992
1.37511
1.37534
1.3636
1.35495
1.36895
1.42222
1.46351
1.44836
1.39832
1.3228
1.24257
1.15828
1.0617
0.947575
0.813385
0.62999
0.409136
0.283232
0.233551
0.216084
0.210106
0.208185
0.206974
0.205078
0.202707
0.200678
0.198991
0.197535
0.196257
0.195125
0.194115
0.193208
0.192389
0.191647
0.190975
0.190363
0.189806
0.189296
0.188828
0.188401
0.188015
0.187666
0.18734
0.187035
0.186754
0.186494
0.186253
0.186031
0.185825
0.185634
0.185456
0.185292
0.18514
0.185
0.18487
0.184751
0.18464
0.184539
0.184445
0.184356
0.184273
0.184197
0.184126
0.18406
0.183999
0.183943
0.183891
0.183843
0.183799
0.183758
0.18372
0.183685
0.183653
0.183623
0.183596
0.18357
0.183547
0.183525
0.183505
0.183486
0.183469
0.183453
0.183439
0.183425
0.183413
0.183402
0.183391
0.183381
0.183372
0.183364
0.183356
0.183349
0.183343
0.183337
0.183332
0.183327
0.183323
0.183319
0.183316
0.183313
0.18331
0.183307
0.183305
0.183303
0.183302
0.1833
0.183299
0.183299
0.183298
0.183298
0.183299
0.183299
0.183301
0.183302
0.183304
0.183307
0.183309
0.183312