/*--------------------------------*- C++ -*----------------------------------*\
| =========                 |                                                 |
| \\      /  F ield         | OpenFOAM: The Open Source CFD Toolbox           |
|  \\    /   O peration     | Version:  v1912                                 |
|   \\  /    A nd           | Website:  www.openfoam.com                      |
|    \\/     M anipulation  |                                                 |
\*---------------------------------------------------------------------------*/
FoamFile
{
    version     2.0;
    format      ascii;
    class       volScalarField;
    location    "50";
    object      alpha.water;
}
// * * * * * * * * * * * * * * * * * * * * * * * * * * * * * * * * * * * * * //

dimensions      [0 0 0 0 0 0 0];


internalField   nonuniform List<scalar> 
14268
(
1
1
1
1
1
1
1
1
1
1
1
1
1
1
1
1
1
1
1
1
1
1
1
1
1
1
1
1
1
1
1
1
1
1
1
1
1
1
1
1
1
1
1
1
1
1
1
1
1
1
1
1
1
1
1
1
1
1
1
1
1
1
1
1
1
1
1
1
1
1
1
1
1
1
1
1
1
1
1
1
1
1
1
1
1
1
1
1
1
1
1
1
1
1
1
1
1
1
1
1
1
1
1
1
1
1
1
1
1
1
1
1
1
1
1
1
1
1
1
1
1
1
1
1
1
1
1
1
1
1
1
1
1
1
1
1
1
1
1
1
1
1
1
1
1
1
1
1
1
1
1
1
1
1
1
1
1
1
1
1
1
1
1
1
1
1
1
1
1
1
1
1
1
1
1
1
1
1
1
1
1
1
1
1
1
1
1
1
1
1
1
1
1
1
1
1
1
1
1
1
1
1
1
1
1
1
1
1
1
1
1
1
1
1
1
1
1
1
1
1
1
1
1
1
1
1
1
1
1
1
1
1
1
1
1
1
1
1
1
1
1
1
1
1
1
1
1
1
1
1
1
1
1
1
1
1
1
1
1
1
1
1
1
1
1
1
1
1
1
1
1
1
1
1
1
1
1
1
1
1
1
1
1
1
1
1
1
1
1
1
1
1
1
1
1
1
1
1
1
1
1
1
1
1
1
1
1
1
1
1
1
1
1
1
1
1
1
1
1
1
1
1
1
1
1
1
1
1
1
1
1
1
1
1
1
1
1
1
1
1
1
1
1
1
1
1
1
1
1
1
1
1
1
1
1
1
1
1
1
1
1
1
1
1
1
1
1
1
1
1
1
1
1
1
1
1
1
1
1
1
1
1
1
1
1
1
1
1
1
1
1
1
1
1
1
1
1
1
1
1
1
1
1
1
1
1
1
1
1
1
1
1
1
1
1
1
1
1
1
1
1
1
1
1
1
1
1
1
1
1
1
1
1
1
1
1
1
1
1
1
1
1
1
1
1
1
1
1
1
1
1
1
1
1
1
1
1
1
1
1
1
1
1
1
1
1
1
1
1
1
1
1
1
1
1
1
1
1
1
1
1
1
1
1
1
1
1
1
1
1
1
1
1
1
1
1
1
1
1
1
1
1
1
1
1
1
1
1
1
1
1
1
1
1
1
1
1
1
1
1
1
1
1
1
1
1
1
1
1
1
1
1
1
1
1
1
1
1
1
1
1
1
1
1
1
1
1
1
1
1
1
1
1
1
1
1
1
1
1
1
1
1
1
1
1
1
1
1
1
1
1
1
1
1
1
1
1
1
1
1
1
1
1
1
1
1
1
1
1
1
1
1
1
1
1
1
1
1
1
1
1
1
1
1
1
1
1
1
1
1
1
1
1
1
1
1
1
1
1
1
1
1
1
1
1
1
1
1
1
1
1
1
1
1
1
1
1
1
1
1
1
1
1
1
1
1
1
1
1
1
1
1
1
1
1
1
1
1
1
1
1
1
1
1
1
1
1
1
1
1
1
1
1
1
1
1
1
1
1
1
1
1
1
1
1
1
1
1
1
1
1
1
1
1
1
1
1
1
1
1
1
1
1
1
1
1
1
1
1
1
1
1
1
1
1
1
1
1
1
1
1
1
1
1
1
1
1
1
1
1
1
1
1
1
1
1
1
1
1
1
1
1
1
1
1
1
1
1
1
1
1
1
1
1
1
1
1
1
1
1
1
1
1
1
1
1
1
1
1
1
1
1
1
1
1
1
1
1
1
1
1
1
1
1
1
1
1
1
1
1
1
1
1
1
1
1
1
1
1
1
1
1
1
1
1
1
1
1
1
1
1
1
1
1
1
1
1
1
1
1
1
1
1
1
1
1
1
1
1
1
1
1
1
1
1
1
1
1
1
1
1
1
1
1
1
1
1
1
1
1
1
1
1
1
1
1
1
1
1
1
1
1
1
1
1
1
1
1
1
1
1
1
1
1
1
1
1
1
1
1
1
1
1
1
1
1
1
1
1
1
1
1
1
1
1
1
1
1
1
1
1
1
1
1
1
1
1
1
1
1
1
1
1
1
1
1
1
1
1
1
1
1
1
1
1
1
1
1
1
1
1
1
1
1
1
1
1
1
1
1
1
1
1
1
1
1
1
1
1
1
1
1
1
1
1
1
1
1
1
1
1
1
1
1
1
1
1
1
1
1
1
1
1
1
1
1
1
1
1
1
1
1
1
1
1
1
1
1
1
1
1
1
1
1
1
1
1
1
1
1
1
1
1
1
1
1
1
1
1
1
1
1
1
1
1
1
1
1
1
1
1
1
1
1
1
1
1
1
1
1
1
1
1
1
1
1
1
1
1
1
1
1
1
1
1
1
1
1
1
1
1
1
1
1
1
1
1
1
1
1
1
1
1
1
1
1
1
1
1
1
1
1
1
1
1
1
1
1
1
1
1
1
1
1
1
1
1
1
1
1
1
1
1
1
1
1
1
1
1
1
1
1
1
1
1
1
1
1
1
1
1
1
1
1
1
1
1
1
1
1
1
1
1
1
1
1
1
1
1
1
1
1
1
1
1
1
1
1
1
1
1
1
1
1
1
1
1
1
1
1
1
1
1
1
1
1
1
1
1
1
1
1
1
1
1
1
1
1
1
1
1
1
1
1
1
1
1
1
1
1
1
1
1
1
1
1
1
1
1
1
1
1
1
1
1
1
1
1
1
1
1
1
1
1
1
1
1
1
1
1
1
1
1
1
1
1
1
1
1
1
1
1
1
1
1
1
1
1
1
1
1
1
1
1
1
1
1
1
1
1
1
1
1
1
1
1
1
1
1
1
1
1
1
1
1
1
1
1
1
1
1
1
1
1
1
1
1
1
1
1
1
1
1
1
1
1
1
1
1
1
1
1
1
1
1
1
1
1
1
1
1
1
1
1
1
1
1
1
1
1
1
1
1
1
1
1
1
1
1
1
1
1
1
1
1
1
1
1
1
1
1
1
1
1
1
1
1
1
1
1
1
1
1
1
1
1
1
1
1
1
1
1
1
1
1
1
1
1
1
1
1
1
1
1
1
1
1
1
1
1
1
1
1
1
1
1
1
1
1
1
1
1
1
1
1
1
1
1
1
1
1
1
1
1
1
1
1
1
1
1
1
1
1
1
1
1
1
1
1
1
1
1
1
1
1
1
1
1
1
1
1
1
1
1
1
1
1
1
1
1
1
1
1
1
1
1
1
1
1
1
1
1
1
1
1
1
1
1
1
1
1
1
1
1
1
1
1
1
1
1
1
1
1
1
1
1
1
1
1
1
1
1
1
1
1
1
1
1
1
1
1
1
1
1
1
1
1
1
1
1
1
1
1
1
1
1
1
1
1
1
1
1
1
1
1
1
1
1
1
1
1
1
1
1
1
1
1
1
1
1
1
1
1
1
1
1
1
1
1
1
1
1
1
1
1
1
1
1
1
1
1
1
1
1
1
1
1
1
1
1
1
1
1
1
1
1
1
1
1
1
1
1
1
1
1
1
1
1
1
1
1
1
1
1
1
1
1
1
1
1
1
1
1
1
1
1
1
1
1
1
1
1
1
1
1
1
1
1
1
1
1
1
1
1
1
1
1
1
1
1
1
1
1
1
1
1
1
1
1
1
1
1
1
1
1
1
1
1
1
1
1
1
1
1
1
1
1
1
1
1
1
1
1
1
1
1
1
1
1
1
1
1
1
1
1
1
1
1
1
1
1
1
1
1
1
1
1
1
1
1
1
1
1
1
1
1
1
1
1
1
1
1
1
1
1
1
1
1
1
1
1
1
1
1
1
1
1
1
1
1
1
1
1
1
1
1
1
1
1
1
1
1
1
1
1
1
1
1
1
1
1
1
1
1
1
1
1
1
1
1
1
1
1
1
1
1
1
1
1
1
1
1
1
1
1
1
1
1
1
1
1
1
1
1
1
1
1
1
1
1
1
1
1
1
1
1
1
1
1
1
1
1
1
1
1
1
1
1
1
1
1
1
1
1
1
1
1
1
1
1
1
1
1
1
1
1
1
1
1
1
1
1
1
1
1
1
1
1
1
1
1
1
1
1
1
1
1
1
1
1
1
1
1
1
1
1
1
1
1
1
1
1
1
1
1
1
1
1
1
1
1
1
1
1
1
1
1
1
1
1
1
1
1
1
1
1
1
1
1
1
1
1
1
1
1
1
1
1
1
1
1
1
1
1
1
1
1
1
1
1
1
1
1
1
1
1
1
1
1
1
1
1
1
1
1
1
1
1
1
1
1
1
1
1
1
1
1
1
1
1
1
1
1
1
1
1
1
1
1
1
1
1
1
1
1
1
1
1
1
1
1
1
1
1
1
1
1
1
1
1
1
1
1
1
1
1
1
1
1
1
1
1
1
1
1
1
1
1
1
1
1
1
1
1
1
1
1
1
1
1
1
1
1
1
1
1
1
1
1
1
1
1
1
1
1
1
1
1
1
1
1
1
1
1
1
1
1
1
1
1
1
1
1
1
1
1
1
1
1
1
1
1
1
1
1
1
1
1
1
1
1
1
1
1
1
1
1
1
1
1
1
1
1
1
1
1
1
1
1
1
1
1
1
1
1
1
1
1
1
1
1
1
1
1
1
1
1
1
1
1
1
1
1
1
1
1
1
1
1
1
1
1
1
1
1
1
1
1
1
1
1
1
1
1
1
1
1
1
1
1
1
1
1
1
1
1
1
1
1
1
1
1
1
1
1
1
1
1
1
1
1
1
1
1
1
1
1
1
1
1
1
1
1
1
1
1
1
1
1
1
1
1
1
1
1
1
1
1
1
1
1
1
1
1
1
1
1
1
1
1
1
1
1
1
1
1
1
1
1
1
1
1
1
1
1
1
1
1
1
1
1
1
1
1
1
1
1
1
1
1
1
1
1
1
1
1
1
1
1
1
1
1
1
1
1
1
1
1
1
1
1
1
1
1
1
1
1
1
1
1
1
1
1
1
1
1
1
1
1
1
1
1
1
1
1
1
1
1
1
1
1
1
1
1
1
1
1
1
1
1
1
1
1
1
1
1
1
1
1
1
1
1
1
1
1
1
1
1
1
1
1
1
1
1
1
1
1
1
1
1
1
1
1
1
1
1
1
1
1
1
1
1
1
1
1
1
1
1
1
1
1
1
1
1
1
1
1
1
1
1
1
1
1
1
1
1
1
1
1
1
1
1
1
1
1
1
1
1
1
1
1
1
1
1
1
1
1
1
1
1
1
1
1
1
1
1
1
1
1
1
1
1
1
1
1
1
1
1
1
1
1
1
1
1
1
1
1
1
1
1
1
1
1
1
1
1
1
1
1
1
1
1
1
1
1
1
1
1
1
1
1
1
1
1
1
1
1
1
1
1
1
1
1
1
1
1
1
1
1
1
1
1
1
1
1
1
1
1
1
1
1
1
1
1
1
1
1
1
1
1
1
1
1
1
1
1
1
1
1
1
1
1
1
1
1
1
1
1
1
1
1
1
1
1
1
1
1
1
1
1
1
1
1
1
1
1
1
1
1
1
1
1
1
1
1
1
1
1
1
1
1
1
1
1
1
1
1
1
1
1
1
1
1
1
1
1
1
1
1
1
1
1
1
1
1
1
1
1
1
1
0.986505
0.865573
0.953916
0.999702
1
1
1
1
1
1
1
1
1
1
1
1
1
1
1
1
1
1
1
1
1
1
1
1
1
1
1
1
1
1
1
1
1
1
1
1
1
1
1
1
1
1
1
1
1
1
1
1
1
1
1
1
1
1
1
1
1
1
1
1
1
1
1
1
1
1
1
1
1
1
1
1
1
1
1
1
1
1
1
1
1
1
1
1
1
1
1
1
1
1
1
1
1
1
1
1
1
1
1
1
1
1
1
1
1
1
1
1
1
1
1
1
1
1
1
1
1
1
1
1
1
1
1
1
1
1
1
1
1
1
1
1
1
1
1
1
1
1
1
1
1
1
1
1
1
1
1
1
1
1
1
1
1
1
1
1
1
1
1
0.844867
0.172299
0.000519306
0.0601809
0.66471
0.999401
1
1
1
1
1
1
1
1
1
1
1
1
1
1
1
1
1
1
1
1
1
1
1
1
1
1
1
1
1
1
1
1
1
1
1
1
1
1
1
1
1
1
1
1
1
1
1
1
1
1
1
1
1
1
1
1
1
1
1
1
1
1
1
1
1
1
1
1
1
1
1
1
1
1
1
1
1
1
1
1
1
1
1
1
1
1
1
1
1
1
1
1
1
1
1
1
1
1
1
1
1
1
1
1
1
1
1
1
1
1
1
1
1
1
1
1
1
1
1
1
1
1
1
1
1
1
1
1
1
1
1
1
1
1
1
1
1
1
1
1
1
1
1
1
1
1
1
1
1
1
1
1
1
1
1
1
1
0.892215
0.101529
6.89299e-42
2.74953e-43
1.97963e-22
0.00678374
0.649833
1
1
1
1
1
1
1
1
1
1
1
1
1
1
1
1
1
1
1
1
1
1
1
1
1
1
1
1
1
1
1
1
1
1
1
1
1
1
1
1
1
1
1
1
1
1
1
1
1
1
1
1
1
1
1
1
1
1
1
1
1
1
1
1
1
1
1
1
1
1
1
1
1
1
1
1
1
1
1
1
1
1
1
1
1
1
1
1
1
1
1
1
1
1
1
1
1
1
1
1
1
1
1
1
1
1
1
1
1
1
1
1
1
1
1
1
1
1
1
1
1
1
1
1
1
1
1
1
1
1
1
1
1
1
1
1
1
1
1
1
1
1
1
1
1
1
1
1
1
1
1
1
1
1
1
1
0.990255
0.246962
5.92854e-13
2.05824e-52
2.26381e-48
-3.16704e-26
-8.97529e-26
0.0325002
0.806128
1
1
1
1
1
1
1
1
1
1
1
1
1
1
1
1
1
1
1
1
1
1
1
1
1
1
1
1
1
1
1
1
1
1
1
1
1
1
1
1
1
1
1
1
1
1
1
1
1
1
1
1
1
1
1
1
1
1
1
1
1
1
1
1
1
1
1
1
1
1
1
1
1
1
1
1
1
1
1
1
0.999942
0.999108
1
1
1
1
1
1
1
1
1
1
1
1
1
1
1
1
1
1
1
1
1
1
1
1
1
1
1
1
1
1
1
1
1
1
1
1
1
1
1
1
1
1
1
1
1
1
1
1
1
1
1
1
1
1
1
1
1
1
1
1
1
1
1
1
1
1
1
1
1
1
1
1
0.99984
0.572143
7.45668e-05
-1.80478e-24
-9.99596e-28
-2.56187e-31
-1.40881e-28
-1.56253e-31
2.09059e-11
0.150418
0.955514
1
1
1
1
1
1
1
1
1
1
1
1
1
1
1
1
1
1
1
1
1
1
1
1
1
1
1
1
1
1
1
1
1
1
1
0.977265
0.78816
0.820881
0.99218
0.999672
1
1
1
1
1
1
1
1
1
1
1
1
1
1
1
1
1
1
1
1
1
1
1
1
1
1
1
1
1
1
1
1
1
1
1
1
0.999997
0.994832
0.80097
0.529406
0.52124
0.752151
0.965615
0.999593
1
1
1
1
1
1
1
1
1
1
1
1
1
1
1
1
1
1
1
1
1
1
1
1
1
1
1
1
1
1
1
1
1
1
1
1
1
1
1
1
1
1
1
1
1
1
1
1
1
1
1
1
1
1
1
1
1
1
1
1
1
1
1
1
1
1
1
1
1
0.891645
0.05113
2.75354e-16
-5.48357e-36
-2.94106e-31
-3.34167e-35
-8.71319e-32
-6.86014e-35
-6.3826e-38
0.000179143
0.401186
0.999048
1
1
1
1
1
1
1
1
1
1
1
1
1
1
1
1
1
1
1
1
1
1
1
1
1
1
1
1
1
1
1
1
0.999999
0.859467
0.177437
0.00860828
0.0038492
0.170778
0.698274
0.994735
0.999573
1
1
1
0.999517
0.996832
0.992759
0.994599
1
1
1
1
1
1
1
1
1
1
1
1
1
1
1
1
1
1
1
1
1
1
1
1
1
1
0.999986
0.96657
0.437994
0.0371301
0.00939696
0.000152584
0.00960605
0.230066
0.732799
0.971195
1
1
1
1
1
1
1
1
1
1
1
1
1
1
1
1
1
1
1
1
1
1
1
1
1
1
1
1
1
1
1
1
1
1
1
1
1
1
1
1
1
0.999999
1
1
1
1
1
1
1
1
1
1
1
1
1
1
1
1
1
1
1
1
1
1
1
1
1
0.999108
0.305562
1.0087e-05
9.27916e-21
-1.15867e-40
-2.04852e-35
-1.03997e-46
-3.18568e-35
-2.5248e-38
-2.55336e-41
1.96483e-28
0.00280643
0.656412
1
1
1
1
1
1
1
1
1
1
1
1
1
1
1
1
1
1
1
1
1
1
1
1
1
1
1
1
1
1
1
1
0.908484
0.125224
0.000129598
3.90065e-06
7.70102e-07
4.4192e-12
0.000920651
0.252856
0.691713
0.961397
0.995344
0.887208
0.649278
0.424727
0.34846
0.541076
0.923184
1
1
1
1
1
1
1
1
1
1
1
1
1
1
1
1
1
1
1
1
1
1
1
1
0.999984
0.95753
0.317351
0.00989641
6.98039e-05
4.5135e-06
5.5659e-08
3.24778e-07
0.000103495
0.0267759
0.388195
0.871525
0.988146
1
1
1
1
1
1
1
1
1
1
1
1
1
1
1
1
1
1
1
1
1
1
1
1
1
1
1
1
1
1
1
1
1
1
1
1
0.999999
0.999998
0.999992
0.999954
1
1
1
1
1
1
1
1
1
1
1
1
1
1
1
1
1
1
1
1
1
1
1
1
0.999958
0.629696
0.000409836
1.32149e-24
-1.14775e-39
1.835e-29
1.12286e-48
3.76036e-63
-1.02918e-38
-8.86864e-42
-9.09708e-45
-1.16841e-47
1.36886e-19
0.0443066
0.796092
1
1
1
1
1
1
1
1
1
1
1
1
1
1
1
1
1
1
1
1
1
1
1
1
1
1
1
1
1
1
0.994247
0.285704
2.33033e-05
5.72589e-23
-4.54023e-30
-2.25573e-32
-4.59741e-35
3.20244e-28
5.27121e-17
9.38634e-06
0.010999
0.0227642
2.97629e-07
2.53806e-26
5.72353e-18
5.90234e-12
5.09902e-05
0.146282
0.860641
1
1
1
1
1
1
1
1
1
1
1
1
1
1
1
1
1
1
1
1
1
1
0.999994
0.974076
0.331556
0.0021752
2.0163e-21
4.36745e-20
7.04222e-17
5.4224e-14
4.02585e-11
1.48801e-08
3.40971e-06
0.0012526
0.0980521
0.566751
0.931789
0.998441
1
1
1
1
1
1
1
1
1
1
1
1
1
1
1
1
1
1
1
1
1
1
1
1
1
1
1
1
1
1
1
0.999999
0.999998
0.999995
0.999987
0.999962
0.999848
0.99914
1
1
1
1
1
1
1
1
1
1
1
1
1
1
1
1
1
1
1
1
1
1
1
1
0.854557
0.0555251
2.95568e-21
1.46232e-41
-4.00139e-47
5.68134e-32
7.59598e-35
5.46924e-52
-3.19144e-42
-2.75595e-45
-3.10694e-48
-4.88904e-51
-1.61699e-45
1.68376e-15
0.0845872
0.811094
0.998855
1
1
1
1
1
1
1
1
1
1
1
1
1
1
1
1
1
1
1
1
1
1
1
1
1
1
1
0.999809
0.647981
0.00139133
6.12604e-20
4.75324e-36
-3.20077e-31
-7.31755e-33
-1.18609e-34
-1.54288e-36
-1.5686e-38
-1.0386e-40
-5.5591e-43
-2.75884e-45
-1.1114e-47
1.23169e-43
1.25816e-28
1.15014e-20
5.51433e-13
5.59058e-05
0.162357
0.942525
1
1
1
1
1
1
1
1
1
1
1
1
1
1
1
1
1
1
1
1
0.999999
0.989233
0.413598
0.00372686
3.11613e-19
1.24183e-24
1.0503e-23
1.36781e-20
1.15267e-17
5.05265e-15
2.10102e-12
1.00211e-09
2.02849e-07
3.63274e-05
0.00762089
0.212299
0.702105
0.957664
1
1
1
1
1
1
1
1
1
1
1
1
1
1
1
1
1
1
1
1
1
1
1
1
1
1
1
0.999999
0.999997
0.999992
0.99998
0.999955
0.999902
0.999772
0.999357
0.997515
0.984413
1
1
1
1
1
1
1
1
1
1
1
1
1
1
1
1
1
1
1
1
1
1
1
0.92452
0.159759
6.58973e-21
-4.57527e-40
-4.45757e-30
-2.71757e-32
6.55262e-51
3.47906e-38
-1.81198e-40
-5.40592e-43
-1.02813e-45
-1.56406e-48
-1.89618e-51
-2.03284e-54
-1.79824e-57
1.6452e-17
0.0530613
0.603385
0.989405
0.998271
0.999641
1
1
1
1
1
1
1
1
1
1
1
1
1
1
1
1
1
1
1
1
1
1
1
1
0.953828
0.0996591
6.66401e-22
3.09564e-22
1.69567e-24
9.15909e-46
-1.41974e-34
-3.01824e-36
-3.13651e-38
-2.6447e-40
-1.57709e-42
-8.0634e-45
-3.97048e-47
-1.60575e-49
8.51037e-48
4.97765e-38
8.97884e-28
1.84618e-19
2.6579e-11
0.0014832
0.396105
0.99957
1
1
1
1
1
1
1
1
1
1
1
1
1
1
1
1
1
1
1
0.994467
0.49308
0.00997717
-3.2061e-22
1.12227e-22
1.46772e-24
2.52042e-27
4.04362e-24
2.71513e-21
1.25322e-18
4.0734e-16
1.31684e-13
5.97103e-11
1.37457e-08
1.83305e-06
0.000251571
0.0254862
0.375736
0.86609
0.997913
1
1
1
1
1
1
1
1
1
1
1
1
1
1
1
1
1
1
1
1
1
1
0.999998
0.999993
0.999977
0.999935
0.999842
0.99966
0.999338
0.998769
0.997634
0.994803
0.985295
0.940021
0.690533
1
1
1
1
1
1
1
1
1
1
1
1
1
1
1
1
1
1
1
1
1
1
0.843629
0.169145
2.82476e-19
-1.8628e-39
-1.94255e-29
-2.05107e-31
-7.83848e-34
-1.7714e-36
-4.02555e-39
-8.17924e-42
-1.3338e-44
-1.82458e-47
-2.19365e-50
-2.25806e-53
-2.14773e-56
-1.7364e-59
-9.66006e-59
-2.31111e-30
8.882e-06
0.144373
0.466746
0.678606
0.843478
0.981548
0.996736
0.999859
1
1
1
1
1
1
1
1
1
1
1
1
1
1
1
1
1
1
1
1
0.51442
0.000607045
1.17954e-19
3.2782e-26
3.77938e-26
2.07187e-28
5.19336e-48
-2.80509e-38
-2.56164e-40
-1.90911e-42
-1.12665e-44
-6.1292e-47
-3.27672e-49
-1.48636e-51
-6.23273e-54
1.42931e-45
2.71925e-35
3.40834e-25
4.68536e-17
2.08713e-08
0.0107068
0.773406
1
1
1
1
1
1
1
1
1
1
1
1
1
1
1
1
1
0.999999
0.990068
0.495874
0.0183074
1.8188e-18
1.53694e-35
1.07557e-38
4.86091e-26
2.60452e-28
1.08728e-27
8.24554e-25
3.8354e-22
1.30914e-19
3.81472e-17
1.01973e-14
3.3448e-12
1.05812e-09
1.36912e-07
1.43397e-05
0.00218743
0.134287
0.704535
0.98413
1
1
1
1
1
1
1
1
1
1
1
1
1
1
1
1
0.999995
0.999938
0.999537
0.997717
0.992519
0.98221
0.966354
0.946066
0.92532
0.909882
0.902334
0.897515
0.885105
0.851648
0.772942
0.618033
0.363787
0.104742
1
1
1
1
1
1
1
1
1
1
1
1
1
1
1
1
0.98552
0.819093
0.706701
0.664987
0.580178
0.340612
0.0287554
4.19611e-19
8.07032e-38
3.66281e-39
-5.33193e-31
-3.46666e-33
-1.124e-35
-2.86617e-38
-6.10488e-41
-1.01755e-43
-1.32655e-46
-1.48382e-49
-1.52602e-52
-1.41166e-55
-1.23552e-58
-9.26853e-62
-4.71577e-65
-1.42524e-68
-1.73943e-56
-1.0094e-52
5.90595e-32
7.47778e-62
5.93684e-09
0.0486916
0.318779
0.723213
0.993832
1
1
1
1
1
1
1
1
1
1
1
1
1
1
1
1
1
1
0.922576
0.0540843
6.97387e-22
2.48601e-21
9.57307e-24
2.04297e-30
2.45226e-30
1.0909e-32
5.80244e-52
-2.40606e-43
-2.30461e-44
-2.05716e-46
-1.22393e-48
-7.46373e-51
-3.46376e-53
-1.47789e-55
2.05756e-52
3.01578e-42
1.61157e-31
3.11262e-22
7.40572e-14
4.89909e-05
0.180701
0.985728
1
1
1
1
1
1
1
1
1
1
1
1
1
1
1
0.999838
0.909343
0.361845
0.0185266
-2.11837e-20
-4.24368e-37
-9.00363e-26
-4.74674e-27
-7.35035e-46
-2.06751e-31
1.44676e-31
2.45958e-28
1.1538e-25
5.11785e-23
1.68164e-20
4.80806e-18
1.07388e-15
2.75326e-13
8.56785e-11
1.52544e-08
1.81023e-06
0.000283076
0.0449586
0.58364
0.972917
1
1
1
1
1
1
1
1
1
1
1
1
1
0.999997
0.999898
0.997804
0.967241
0.793198
0.56336
0.387986
0.259431
0.172394
0.122398
0.0984144
0.0909763
0.0940566
0.105321
0.119488
0.12444
0.108649
0.0660842
0.0113545
2.51195e-11
1
1
1
1
1
1
1
1
1
1
1
1
1
1
0.995098
0.602179
0.101122
0.000958372
0.000604756
0.000595989
0.000623556
0.00023121
2.98516e-09
7.73601e-36
6.25989e-54
2.41948e-42
-6.7633e-33
-3.73543e-35
-1.2297e-37
-3.10872e-40
-5.74808e-43
-7.9507e-46
-8.5995e-49
-8.25963e-52
-7.60461e-55
-6.52729e-58
-5.32931e-61
-3.72234e-64
-1.81176e-67
-5.59756e-71
-8.28595e-75
-2.46927e-79
-3.82599e-94
-3.48929e-99
-7.67511e-84
-3.14588e-63
-2.39244e-65
1.81236e-05
0.276827
0.875522
0.999656
1
1
1
1
1
1
1
1
1
1
1
1
1
1
1
0.999999
0.447538
0.000489891
-2.38012e-23
5.60402e-40
1.53651e-25
5.3784e-28
5.46035e-35
6.72846e-35
2.09295e-37
1.30573e-57
-1.73601e-42
-1.51765e-44
-7.54554e-47
-3.02314e-49
-9.82782e-52
-2.92191e-54
-9.04031e-57
1.72987e-48
3.42277e-38
1.43992e-27
5.04462e-19
2.54411e-10
0.000377402
0.622375
0.999575
1
1
1
1
1
1
1
1
1
1
1
0.999942
0.982423
0.785
0.464133
0.103994
0.00552295
1.35746e-18
-2.82205e-38
-3.47132e-25
-3.46383e-26
-1.29795e-27
-2.94849e-29
-5.40966e-31
-1.9383e-33
4.32454e-32
3.89074e-29
1.815e-26
8.45779e-24
2.81914e-21
7.59141e-19
1.72151e-16
3.45984e-14
1.02474e-11
2.71093e-09
3.79132e-07
7.53828e-05
0.0218957
0.527068
0.968279
1
1
1
1
1
1
1
1
1
1
1
0.99999
0.999545
0.979834
0.719404
0.320726
0.102394
0.0399235
0.00950178
0.000104112
6.29139e-17
3.05495e-16
1.85467e-15
8.82912e-15
3.2977e-14
1.19846e-13
3.63724e-13
8.91253e-13
1.9959e-12
4.31061e-12
8.11684e-12
1.31684e-11
0.825847
0.988065
0.999993
1
1
1
1
1
1
1
1
1
1
0.97233
0.342218
0.000803217
-1.02457e-21
-2.3766e-25
-1.70005e-32
1.05487e-49
-4.44576e-67
1.22462e-80
-2.25456e-77
6.06223e-75
-8.20524e-50
5.05767e-49
-5.95242e-35
-3.40954e-37
-1.12201e-39
-2.5139e-42
-3.90284e-45
-4.55322e-48
-4.2412e-51
-3.65314e-54
-3.11506e-57
-2.51623e-60
-1.91834e-63
-1.25418e-66
-5.97413e-70
-1.93823e-73
-3.36338e-77
-1.81516e-81
-1.10968e-91
-1.24643e-96
-1.14781e-100
-1.85139e-104
-2.8945e-81
-8.37265e-83
4.39407e-17
0.0708635
0.71808
0.997382
1
1
1
1
1
1
1
1
1
1
1
1
1
1
0.882031
0.0330194
1.34361e-23
3.52203e-41
-2.58387e-27
6.13096e-44
5.9196e-30
1.66846e-32
3.42703e-42
-4.29856e-39
-7.47787e-41
-5.81851e-43
-2.74549e-45
-1.01247e-47
-3.38136e-50
-9.96295e-53
-2.86485e-55
-9.0484e-58
8.48002e-55
2.38056e-44
6.29858e-34
4.84788e-24
1.41373e-15
1.49072e-06
0.0935953
0.944549
1
1
1
1
1
1
1
1
1
0.998795
0.798032
0.409576
0.117964
0.0305292
0.0107486
4.20443e-06
-3.52341e-23
-7.94728e-38
-2.70434e-25
-1.01547e-25
-6.02261e-27
-1.81465e-28
-3.73729e-30
-5.62596e-32
-5.82361e-34
2.1581e-51
4.81596e-33
5.6953e-30
3.86891e-27
1.56814e-24
6.28878e-22
1.79333e-19
4.08125e-17
7.36148e-15
2.04728e-12
6.58847e-10
1.20659e-07
3.50037e-05
0.0171721
0.516101
0.966744
1
1
1
1
1
1
1
1
1
0.999983
0.998783
0.921551
0.440743
0.0911314
0.003908
-1.24683e-20
9.41681e-19
4.92378e-20
4.11433e-19
3.90404e-18
3.23874e-17
2.33129e-16
1.78653e-15
9.60319e-15
3.79298e-14
1.32983e-13
3.85961e-13
1.04901e-12
2.75729e-12
7.08782e-12
1.79797e-11
-3.28598e-116
0.139141
0.722464
0.999891
1
1
1
1
1
1
1
1
0.978706
0.300842
0.000236247
1.6549e-22
-1.78381e-24
-7.27926e-28
-1.17192e-31
-1.11209e-35
-5.82167e-40
-2.4898e-44
-1.89665e-48
-3.52246e-52
-7.81389e-51
9.79579e-68
-4.68783e-37
-2.77487e-39
-8.19875e-42
-1.55422e-44
-2.04844e-47
-2.0828e-50
-1.74088e-53
-1.39328e-56
-1.11862e-59
-8.49897e-63
-6.05843e-66
-3.78325e-69
-1.834e-72
-6.4455e-76
-1.27371e-79
-9.31232e-84
-2.91052e-89
-3.72114e-94
-2.06935e-98
-2.34894e-102
-3.42889e-106
-3.82643e-106
-2.81088e-45
-1.10552e-39
0.0152461
0.581549
0.994609
1
1
1
1
1
1
1
1
1
1
1
1
0.999899
0.345527
0.000216833
1.63068e-20
-8.52686e-41
-1.27513e-28
-1.01759e-30
3.63151e-49
1.00823e-34
5.80367e-38
-1.2548e-39
-1.01253e-41
-5.14154e-44
-1.91885e-46
-6.21556e-49
-1.93636e-51
-5.63997e-54
-1.67762e-56
-5.62099e-59
-1.31779e-61
1.0792e-50
1.21735e-40
6.91928e-30
8.09407e-21
3.73476e-12
6.19311e-05
0.449915
0.997275
1
1
1
1
1
1
1
0.938546
0.399179
0.0347727
0.00604646
1.38264e-18
7.94472e-19
2.53541e-23
1.83849e-23
-1.27062e-24
-2.94376e-27
-7.86751e-26
-1.47861e-26
-6.64893e-28
-1.72832e-29
-3.1556e-31
-4.43674e-33
-5.2674e-35
-5.73885e-37
8.27947e-38
2.42523e-34
8.77684e-31
8.0656e-28
3.95242e-25
1.80064e-22
5.11919e-20
1.18236e-17
2.17728e-15
5.11442e-13
2.11499e-10
5.92676e-08
2.53496e-05
0.0181062
0.518729
0.961252
1
1
1
1
1
1
1
0.999973
0.997227
0.835117
0.26309
0.0218248
-1.2451e-20
6.12615e-20
-6.06819e-23
2.46644e-22
3.66272e-21
4.46707e-20
4.33395e-19
3.31637e-18
2.33555e-17
1.44929e-16
2.6947e-15
1.58492e-14
9.96831e-14
4.32638e-13
1.34272e-12
3.45471e-12
7.73927e-12
1.37758e-11
0
-8.17308e-281
0.00514096
0.524272
0.9988
1
1
1
1
1
1
0.991239
0.347568
0.000172158
1.98407e-22
5.18643e-42
-3.15305e-27
-1.56321e-30
-3.21165e-34
-3.94919e-38
-4.54853e-42
-4.35607e-46
-4.57872e-50
-9.29795e-54
-3.40175e-52
-1.03456e-54
-3.45821e-39
-1.87699e-41
-4.72586e-44
-7.63381e-47
-8.81673e-50
-8.12843e-53
-6.32071e-56
-4.78662e-59
-3.6179e-62
-2.57955e-65
-1.74622e-68
-1.0832e-71
-5.55011e-75
-2.10527e-78
-4.53477e-82
-4.05512e-86
-8.28194e-91
-2.22191e-95
-1.66747e-99
-2.5621e-103
-5.61651e-107
-1.81409e-105
-2.60334e-77
3.46863e-43
-2.49176e-32
0.000672212
0.448471
0.984794
1
1
1
1
1
1
1
1
1
1
1
0.754209
0.00945085
4.41643e-22
7.57864e-40
-1.27057e-28
-7.33285e-30
-8.17511e-32
-4.93573e-34
-2.68116e-36
-2.082e-38
-1.30159e-40
-6.43692e-43
-2.6406e-45
-8.95785e-48
-2.80675e-50
-8.8156e-53
-2.70418e-55
-8.65678e-58
-3.0885e-60
-1.19707e-62
1.27758e-57
3.91223e-47
4.94189e-37
2.08892e-26
7.36672e-18
7.79864e-09
0.0251802
0.799631
1
1
1
1
1
0.999997
0.857217
0.186864
0.00652567
6.52557e-19
4.02688e-33
1.26408e-35
1.99908e-41
-1.33106e-42
-1.33635e-23
-9.99961e-26
-4.35529e-28
-1.14325e-26
-1.44234e-27
-5.42146e-29
-1.27879e-30
-2.198e-32
-3.12251e-34
-4.07272e-36
-5.369e-38
-4.49579e-40
1.30834e-38
1.70924e-35
1.00203e-31
1.62013e-28
1.13681e-25
4.70683e-23
1.46307e-20
3.59549e-18
6.70885e-16
1.5626e-13
9.00514e-11
3.65766e-08
2.18024e-05
0.0190565
0.496416
0.940162
1
1
1
1
0.999999
0.999931
0.992138
0.724389
0.167768
0.000870626
4.35e-19
-3.81939e-39
2.69787e-38
-2.57045e-24
1.27328e-23
1.61211e-22
1.75346e-21
1.69687e-20
1.4433e-19
9.7009e-19
5.97906e-18
4.81174e-17
1.76963e-15
3.54834e-14
2.39453e-13
8.47512e-13
2.05101e-12
3.63209e-12
4.14392e-12
0
-3.32779e-277
-1.39495e-173
2.60758e-17
0.404783
0.986242
1
1
1
1
0.991524
0.383147
0.00031446
8.19568e-23
3.4562e-40
-5.23327e-60
-5.10078e-30
-2.52522e-33
-5.79817e-37
-1.36112e-40
-3.15656e-44
-4.10062e-48
-5.26087e-52
-1.22656e-55
-9.00526e-54
-3.85584e-56
-2.18509e-41
-1.01972e-43
-2.19869e-46
-3.12043e-49
-3.28618e-52
-2.84839e-55
-2.10161e-58
-1.50585e-61
-1.06695e-64
-7.2167e-68
-4.81186e-71
-3.09976e-74
-1.69208e-77
-6.69169e-81
-1.50378e-84
-1.54003e-88
-5.72236e-93
-2.28162e-97
-1.98191e-101
-3.29918e-105
-7.60067e-109
-4.93818e-105
-1.13148e-81
6.4255e-49
-6.4081e-31
-9.69959e-27
3.12735e-07
0.303249
0.937336
1
1
1
1
1
1
1
1
1
0.951451
0.146979
1.13144e-20
-8.7853e-40
-9.88829e-27
-1.00537e-28
-8.61484e-31
-6.36381e-33
-4.00721e-35
-2.40327e-37
-1.36233e-39
-6.80734e-42
-2.94507e-44
-1.12264e-46
-3.76949e-49
-1.22059e-51
-4.05623e-54
-1.33226e-56
-4.50036e-59
-1.63855e-61
-6.29975e-64
2.30357e-65
1.73885e-54
3.65764e-44
2.99304e-34
5.92467e-24
1.72644e-15
1.88194e-06
0.145642
0.918871
1
1
1
0.999974
0.767494
0.11021
-1.89279e-20
5.65084e-20
1.72053e-23
2.2299e-32
-2.00276e-34
-6.8594e-31
-2.24364e-27
-1.5244e-24
-7.86229e-27
-4.23567e-29
-1.11746e-27
-1.07465e-28
-3.58999e-30
-8.0597e-32
-1.38961e-33
-2.10697e-35
-2.98604e-37
-4.14207e-39
-5.28398e-41
-6.22869e-44
1.74246e-39
2.30613e-36
5.58693e-33
2.55298e-29
2.22213e-26
9.03001e-24
3.32943e-21
8.52871e-19
1.78842e-16
4.56683e-14
3.59858e-11
2.23182e-08
1.62158e-05
0.0136947
0.39938
0.882613
0.992249
0.999999
0.999986
0.999405
0.956169
0.567822
0.114445
1.59747e-16
1.89652e-28
2.0582e-35
-1.22389e-23
-4.44584e-24
-6.09284e-26
3.59423e-25
4.69248e-24
5.52922e-23
5.26669e-22
4.66235e-21
3.43938e-20
2.0037e-19
1.09899e-18
6.35869e-18
1.04698e-15
2.82541e-14
1.34308e-13
2.684e-13
2.32942e-13
3.46202e-14
0
-1.0764e-273
-1.50065e-170
1.43342e-65
-3.2566e-64
0.257467
0.882612
0.999874
1
0.922862
0.301638
0.00034456
2.5849e-22
3.83695e-42
2.94429e-58
-2.95955e-51
-6.87081e-33
-3.32084e-36
-1.30381e-39
-6.07786e-43
-1.67397e-46
-2.54239e-50
-4.03629e-54
-1.1218e-57
-1.62611e-55
-7.69508e-58
-1.12445e-43
-4.51282e-46
-8.58775e-49
-1.11435e-51
-1.11096e-54
-9.23941e-58
-6.47071e-61
-4.35937e-64
-2.91704e-67
-1.93435e-70
-1.33225e-73
-9.07996e-77
-5.12479e-80
-2.02868e-83
-4.63455e-87
-5.27551e-91
-2.7547e-95
-1.44224e-99
-1.36998e-103
-2.27422e-107
-5.01583e-111
-5.02735e-105
-2.6136e-80
-3.34322e-55
-5.39115e-48
1.60596e-47
2.38385e-27
6.20402e-12
0.147126
0.787164
0.995571
1
1
1
1
1
1
0.992414
0.345113
0.000422586
-2.21102e-24
-1.36687e-25
-1.81932e-27
-1.3935e-29
-9.00762e-32
-5.27608e-34
-2.85302e-36
-1.47338e-38
-7.17175e-41
-3.23065e-43
-1.3318e-45
-5.03769e-48
-1.74538e-50
-5.91836e-53
-2.04162e-55
-6.86231e-58
-2.32099e-60
-8.26667e-63
-3.06945e-65
-1.17967e-67
4.43059e-64
1.99512e-53
1.81235e-43
3.75146e-33
1.32929e-23
4.55438e-15
5.41173e-06
0.211833
0.870286
0.995122
0.973098
0.547044
0.0565822
-3.01414e-20
-2.79477e-22
-9.97812e-39
-2.58097e-42
2.652e-33
-3.27356e-34
-2.58671e-31
-1.06543e-27
-9.3469e-26
-5.08524e-28
-3.24652e-30
-8.38345e-29
-6.65296e-30
-2.08249e-31
-4.679e-33
-8.52797e-35
-1.40409e-36
-2.09291e-38
-2.8922e-40
-3.52974e-42
-4.16649e-44
1.80778e-44
6.62475e-41
1.15613e-37
1.78709e-34
9.41593e-31
1.53525e-27
8.51742e-25
3.5143e-22
1.00938e-19
2.61812e-17
7.48179e-15
7.73416e-12
7.22325e-09
5.05344e-06
0.00305676
0.179808
0.611285
0.894651
0.866566
0.661097
0.315173
0.0612185
5.4271e-20
3.74932e-31
2.347e-27
-7.90524e-25
-5.23238e-24
-8.53368e-25
-7.83977e-27
5.99335e-27
8.51903e-26
1.052e-24
1.07658e-23
9.51072e-23
7.66531e-22
4.9675e-21
3.29478e-20
2.82215e-19
2.22363e-18
9.73477e-18
3.71609e-17
1.06549e-16
1.59766e-16
2.29427e-16
0
-2.86078e-270
-1.33805e-167
-5.93028e-68
-4.27428e-61
-1.57385e-57
0.0311496
0.272237
0.297217
0.0543895
9.43648e-05
4.39849e-22
3.22399e-40
1.46019e-60
-3.25986e-50
-9.58728e-52
-7.7101e-36
-5.74748e-39
-4.64459e-42
-2.39692e-45
-6.71012e-49
-1.2078e-52
-2.42691e-56
-8.03301e-60
-2.12906e-57
-1.01469e-59
-4.74446e-46
-1.685e-48
-2.94572e-51
-3.63339e-54
-3.50555e-57
-2.79702e-60
-1.84531e-63
-1.17358e-66
-7.64041e-70
-5.21571e-73
-3.81335e-76
-2.68512e-79
-1.5009e-82
-5.79582e-86
-1.33704e-89
-1.67746e-93
-1.12658e-97
-7.29259e-102
-7.41154e-106
-1.20286e-109
-2.4933e-113
-2.594e-105
-2.02311e-80
-5.98812e-55
-5.24371e-47
-1.63901e-44
-1.65997e-42
-1.41704e-40
2.0043e-20
0.0190548
0.441019
0.924638
0.996758
0.999592
1
1
0.973381
0.382768
0.004534
-8.6776e-22
-2.79174e-25
-1.60593e-26
-1.72347e-28
-1.27238e-30
-7.70776e-33
-4.00013e-35
-1.88491e-37
-8.59198e-40
-3.84002e-42
-1.65922e-44
-6.78431e-47
-2.57829e-49
-9.04146e-52
-3.07874e-54
-1.04882e-56
-3.4502e-59
-1.1331e-61
-3.88739e-64
-1.38739e-66
-5.12313e-69
-1.97546e-71
1.06427e-62
3.4331e-52
9.1236e-43
9.94361e-33
1.68922e-23
3.82777e-15
3.29745e-07
0.0391856
0.193363
0.102516
0.0159038
1.95776e-21
-4.24801e-22
-4.06126e-23
-3.56684e-31
-1.11944e-33
-2.04732e-33
-2.08331e-34
-3.17382e-32
-2.5239e-28
-4.33884e-27
-2.81899e-29
-2.09718e-31
-5.24947e-30
-3.66299e-31
-1.13203e-32
-2.66316e-34
-5.24997e-36
-9.19888e-38
-1.38952e-39
-1.86305e-41
-2.15056e-43
-2.38671e-45
-2.5054e-47
-9.13716e-50
9.01518e-46
4.01325e-42
8.55061e-39
1.03761e-35
8.23952e-33
8.79278e-29
3.00625e-25
2.17863e-22
9.30351e-20
3.95893e-17
3.90627e-14
4.58554e-11
2.33719e-08
3.12897e-06
0.00029714
0.0114695
0.0711536
0.0668673
0.00903642
1.19261e-17
-3.69326e-38
-5.84347e-28
-9.80635e-27
-6.67447e-25
-1.42172e-24
-1.33343e-25
-2.57713e-27
1.1119e-45
6.87885e-28
9.66554e-27
1.23236e-25
1.48303e-24
1.59361e-23
1.4952e-22
1.67793e-21
2.35275e-20
2.14689e-19
9.45468e-19
3.77766e-18
1.17795e-17
1.64673e-17
1.73491e-17
0
-6.42846e-267
-1.00484e-164
-1.22142e-64
-1.06704e-58
-2.50821e-54
1.13328e-27
3.12266e-09
1.29841e-05
-8.55061e-62
6.03201e-57
-1.66181e-51
-2.04676e-64
-1.66457e-49
-6.10534e-51
-1.15829e-52
-1.11808e-38
-1.80647e-41
-1.58734e-44
-7.54466e-48
-2.21866e-51
-4.88077e-55
-1.23012e-58
-4.73255e-62
-2.09665e-59
-9.56656e-62
-1.6942e-48
-5.54119e-51
-9.26479e-54
-1.1127e-56
-1.03936e-59
-7.87901e-63
-4.9037e-66
-3.02224e-69
-2.01123e-72
-1.46352e-75
-1.11611e-78
-7.76499e-82
-4.17046e-85
-1.56155e-88
-3.66869e-92
-5.08584e-96
-4.18818e-100
-3.20169e-104
-3.40316e-108
-5.32301e-112
-1.02929e-115
-9.94703e-109
-1.83534e-85
-1.66993e-62
-6.76181e-51
-2.59935e-47
-4.27045e-44
-3.05852e-41
-5.68259e-50
1.725e-30
1.65399e-15
0.0528737
0.384298
0.644782
0.718109
0.558189
0.165363
0.00366922
8.37044e-22
2.8433e-40
-5.18188e-26
-1.34846e-27
-1.32324e-29
-9.366e-32
-5.25559e-34
-2.49492e-36
-1.09823e-38
-4.83321e-41
-2.1346e-43
-9.15108e-46
-3.69697e-48
-1.37361e-50
-4.70355e-53
-1.55484e-55
-5.1035e-58
-1.62e-60
-5.14214e-63
-1.70298e-65
-5.86965e-68
-2.09113e-70
-1.10254e-72
-9.13607e-64
-7.6449e-55
-2.51145e-49
1.43286e-56
4.27399e-36
6.89602e-25
3.57895e-14
2.88354e-13
-5.21664e-31
-1.99608e-26
-1.20237e-24
-4.26375e-22
-3.58454e-23
-3.39085e-24
-1.41555e-31
-5.37889e-34
-1.22314e-33
-8.46549e-35
-2.63061e-33
-3.97645e-29
-1.75886e-28
-1.39913e-30
-1.18433e-32
-2.92845e-31
-1.9045e-32
-6.08601e-34
-1.53471e-35
-3.23368e-37
-5.82501e-39
-8.68317e-41
-1.11744e-42
-1.22152e-44
-1.28134e-46
-1.27661e-48
-1.20084e-50
-6.10961e-52
-3.90485e-49
-2.48207e-46
-1.18017e-43
-3.41367e-41
-5.49179e-39
-4.78804e-37
-2.44404e-35
-8.90912e-34
-2.73797e-32
-6.81237e-31
-9.69509e-30
-1.26927e-28
-1.14357e-27
-8.11137e-27
-5.41505e-26
-4.00077e-25
-1.23318e-24
5.55784e-25
1.16387e-23
-1.71598e-23
-2.61193e-25
-1.2487e-26
-3.18476e-25
-3.03807e-25
-2.15677e-26
-5.54432e-28
-4.89599e-30
2.25333e-29
3.60129e-28
5.13243e-27
6.77633e-26
7.70905e-25
7.48584e-24
9.01586e-23
1.33856e-21
1.17418e-20
4.92057e-20
1.95723e-19
6.56815e-19
9.11052e-19
5.97025e-19
0
-1.24971e-263
-6.44949e-162
-7.53252e-62
-1.12857e-55
-4.02505e-52
-3.00721e-47
-3.34398e-44
8.73988e-24
-1.74888e-51
-4.14696e-49
-7.25453e-47
-4.88265e-49
-2.30501e-50
-5.5653e-52
-8.13845e-54
-3.2461e-41
-5.76982e-44
-4.41024e-47
-2.01413e-50
-6.56158e-54
-1.76408e-57
-5.39521e-61
-2.36043e-64
-1.58935e-61
-6.71497e-64
-5.33613e-51
-1.67535e-53
-2.75006e-56
-3.22042e-59
-2.88006e-62
-2.07059e-65
-1.24443e-68
-7.8023e-72
-5.5324e-75
-4.2462e-78
-3.22601e-81
-2.14157e-84
-1.09479e-87
-4.01593e-91
-9.77241e-95
-1.49977e-98
-1.4549e-102
-1.25757e-106
-1.36766e-110
-2.04351e-114
-3.68307e-118
-8.85626e-109
-2.81766e-85
-6.18804e-62
-1.39233e-49
-6.09107e-46
-1.32281e-42
-1.75062e-39
-1.38728e-36
-6.3557e-34
-1.43875e-31
-6.33446e-29
-1.73411e-27
5.39677e-07
0.00118926
0.00311342
1.34749e-06
2.85024e-19
-8.47191e-23
-1.23962e-25
-6.25474e-27
-9.74873e-29
-8.55934e-31
-5.54142e-33
-2.87223e-35
-1.30944e-37
-5.81188e-40
-2.62998e-42
-1.17448e-44
-4.96183e-47
-1.94344e-49
-6.91736e-52
-2.27958e-54
-7.25898e-57
-2.29387e-59
-7.05356e-62
-2.17814e-64
-7.01257e-67
-2.34576e-69
-8.0761e-72
-2.94183e-73
-8.4796e-64
-8.14852e-55
-4.00502e-49
-2.2429e-41
-5.93183e-39
-6.37122e-50
5.0496e-31
2.42402e-30
-5.73489e-29
-3.67497e-27
-1.77142e-25
-8.28041e-24
-3.47619e-24
-2.45004e-25
-3.41856e-32
-1.58718e-34
-4.12849e-34
-2.55688e-35
-1.13171e-34
-4.6858e-30
-6.62579e-30
-6.34455e-32
-6.01774e-34
-1.53582e-32
-9.79974e-34
-3.32617e-35
-8.94168e-37
-1.95526e-38
-3.51857e-40
-5.10406e-42
-6.28845e-44
-6.5348e-46
-6.51173e-48
-6.18428e-50
-5.55633e-52
-2.41304e-52
-1.84931e-49
-1.21297e-46
-5.94904e-44
-1.80525e-41
-3.12044e-39
-3.00018e-37
-1.7662e-35
-7.79158e-34
-2.82622e-32
-8.58504e-31
-1.85595e-29
-2.68027e-28
-2.73899e-27
-2.05109e-26