/*--------------------------------*- C++ -*----------------------------------*\
| =========                 |                                                 |
| \\      /  F ield         | OpenFOAM: The Open Source CFD Toolbox           |
|  \\    /   O peration     | Version:  v1912                                 |
|   \\  /    A nd           | Website:  www.openfoam.com                      |
|    \\/     M anipulation  |                                                 |
\*---------------------------------------------------------------------------*/
FoamFile
{
    version     2.0;
    format      ascii;
    class       volScalarField;
    location    "50";
    object      k;
}
// * * * * * * * * * * * * * * * * * * * * * * * * * * * * * * * * * * * * * //

dimensions      [0 2 -2 0 0 0 0];


internalField   nonuniform List<scalar> 
14268
(
6.08702e-07
6.10885e-07
6.23728e-07
6.47981e-07
6.70721e-07
6.81956e-07
6.86795e-07
6.88118e-07
6.87922e-07
6.86721e-07
6.84923e-07
6.83205e-07
6.81704e-07
6.80379e-07
6.79217e-07
6.78194e-07
6.77276e-07
6.76485e-07
6.75861e-07
6.75238e-07
6.7488e-07
6.74697e-07
6.7473e-07
6.75002e-07
6.75533e-07
6.76288e-07
6.76957e-07
6.77316e-07
6.7711e-07
6.76288e-07
6.74956e-07
6.73363e-07
6.71938e-07
6.71676e-07
6.72455e-07
6.73843e-07
6.75596e-07
6.7761e-07
6.79597e-07
6.81466e-07
6.83191e-07
6.84791e-07
6.86307e-07
6.87757e-07
6.89187e-07
6.9067e-07
6.92277e-07
6.94084e-07
6.96135e-07
6.98434e-07
7.00941e-07
7.03577e-07
7.06248e-07
7.0886e-07
7.11319e-07
7.13518e-07
7.15343e-07
7.16611e-07
7.17151e-07
7.17093e-07
7.1688e-07
7.16334e-07
7.15333e-07
7.14235e-07
7.13235e-07
7.12492e-07
7.12151e-07
7.12254e-07
7.12786e-07
7.13681e-07
7.14771e-07
7.15852e-07
7.16608e-07
7.16805e-07
7.16631e-07
7.16297e-07
7.15959e-07
7.15709e-07
7.15799e-07
7.16171e-07
7.16722e-07
7.17463e-07
7.18488e-07
7.19925e-07
7.2188e-07
7.2438e-07
7.27562e-07
7.31525e-07
7.36203e-07
7.41452e-07
7.46953e-07
7.52307e-07
7.57059e-07
7.60735e-07
7.62946e-07
7.63502e-07
7.62438e-07
7.60049e-07
7.57396e-07
7.54647e-07
7.5186e-07
7.49044e-07
7.46221e-07
7.43416e-07
7.40674e-07
7.38068e-07
7.35676e-07
7.33499e-07
7.31544e-07
7.2988e-07
7.28503e-07
7.27341e-07
7.2623e-07
7.24969e-07
7.23549e-07
7.21951e-07
7.20208e-07
7.18426e-07
7.16864e-07
7.16196e-07
7.16331e-07
7.17066e-07
7.1824e-07
7.19706e-07
7.21344e-07
7.23212e-07
7.25369e-07
7.27849e-07
7.30637e-07
7.3363e-07
7.36732e-07
7.39828e-07
7.42711e-07
7.45073e-07
7.46612e-07
7.47185e-07
7.46753e-07
7.45194e-07
7.4251e-07
7.39419e-07
7.36361e-07
7.33348e-07
7.30568e-07
7.28059e-07
7.25821e-07
7.2385e-07
7.22104e-07
7.20522e-07
7.19029e-07
7.17548e-07
7.15973e-07
7.14231e-07
7.12418e-07
7.10589e-07
7.08762e-07
7.06934e-07
7.05098e-07
7.03257e-07
7.01429e-07
6.99693e-07
6.98117e-07
6.96663e-07
6.9525e-07
6.94061e-07
1.51458e-07
1.71135e-07
2.1807e-07
2.82868e-07
3.29543e-07
3.54691e-07
3.68124e-07
3.75066e-07
3.77615e-07
3.76997e-07
3.73823e-07
3.69015e-07
3.63359e-07
3.57343e-07
3.51417e-07
3.45879e-07
3.40854e-07
3.36305e-07
3.3206e-07
3.27827e-07
3.23303e-07
3.18139e-07
3.12135e-07
3.05245e-07
2.97601e-07
2.89522e-07
2.81455e-07
2.73875e-07
2.67247e-07
2.62047e-07
2.58712e-07
2.57326e-07
2.58056e-07
2.60024e-07
2.63053e-07
2.67008e-07
2.71695e-07
2.76876e-07
2.82312e-07
2.8778e-07
2.93108e-07
2.9819e-07
3.03005e-07
3.07617e-07
3.1215e-07
3.16772e-07
3.21657e-07
3.26968e-07
3.32831e-07
3.39313e-07
3.46407e-07
3.54024e-07
3.62004e-07
3.70112e-07
3.78041e-07
3.85474e-07
3.9204e-07
3.97316e-07
4.00897e-07
4.02415e-07
4.01607e-07
3.98041e-07
3.91648e-07
3.82613e-07
3.71277e-07
3.58184e-07
3.44029e-07
3.29564e-07
3.15549e-07
3.0261e-07
2.91288e-07
2.81939e-07
2.74748e-07
2.69723e-07
2.66701e-07
2.6537e-07
2.65385e-07
2.66347e-07
2.67697e-07
2.69166e-07
2.70692e-07
2.72298e-07
2.74115e-07
2.76336e-07
2.79189e-07
2.82909e-07
2.87699e-07
2.93734e-07
3.01055e-07
3.09547e-07
3.18878e-07
3.28527e-07
3.37792e-07
3.45918e-07
3.52229e-07
3.56261e-07
3.57882e-07
3.57261e-07
3.54344e-07
3.49747e-07
3.44192e-07
3.3822e-07
3.32157e-07
3.26165e-07
3.20223e-07
3.14207e-07
3.07947e-07
3.01295e-07
2.94188e-07
2.86673e-07
2.78986e-07
2.71435e-07
2.64353e-07
2.58103e-07
2.53005e-07
2.49279e-07
2.47072e-07
2.46359e-07
2.47135e-07
2.48673e-07
2.50842e-07
2.53569e-07
2.56801e-07
2.60507e-07
2.64659e-07
2.69251e-07
2.7432e-07
2.79898e-07
2.86032e-07
2.92728e-07
2.99927e-07
3.07483e-07
3.15158e-07
3.22663e-07
3.29643e-07
3.35667e-07
3.40329e-07
3.43342e-07
3.44587e-07
3.43945e-07
3.41327e-07
3.37132e-07
3.31923e-07
3.26195e-07
3.20388e-07
3.14849e-07
3.09821e-07
3.05475e-07
3.01902e-07
2.99135e-07
2.97193e-07
2.95987e-07
2.9537e-07
2.95209e-07
2.95469e-07
2.95955e-07
2.9651e-07
2.96976e-07
2.97152e-07
2.96845e-07
2.9593e-07
2.94166e-07
2.91501e-07
2.87777e-07
4.48254e-08
5.2278e-08
7.36578e-08
1.08249e-07
1.38959e-07
1.5612e-07
1.65147e-07
1.69837e-07
1.71751e-07
1.71681e-07
1.70073e-07
1.67475e-07
1.64432e-07
1.61252e-07
1.58173e-07
1.55343e-07
1.52816e-07
1.50562e-07
1.48479e-07
1.46432e-07
1.4427e-07
1.41855e-07
1.39129e-07
1.36113e-07
1.32918e-07
1.29719e-07
1.26701e-07
1.24029e-07
1.21836e-07
1.20221e-07
1.19254e-07
1.18911e-07
1.19246e-07
1.19948e-07
1.20978e-07
1.22313e-07
1.23909e-07
1.2571e-07
1.27645e-07
1.29636e-07
1.31618e-07
1.33545e-07
1.35403e-07
1.37207e-07
1.39003e-07
1.4086e-07
1.42849e-07
1.45043e-07
1.475e-07
1.50258e-07
1.53331e-07
1.56696e-07
1.60295e-07
1.64033e-07
1.67769e-07
1.71337e-07
1.74549e-07
1.77185e-07
1.79035e-07
1.79859e-07
1.79345e-07
1.7722e-07
1.73504e-07
1.68403e-07
1.62238e-07
1.55443e-07
1.48497e-07
1.4184e-07
1.35812e-07
1.30638e-07
1.26423e-07
1.2317e-07
1.20818e-07
1.19261e-07
1.18372e-07
1.1801e-07
1.18057e-07
1.18379e-07
1.18806e-07
1.19255e-07
1.19712e-07
1.20187e-07
1.20718e-07
1.21363e-07
1.22195e-07
1.23294e-07
1.24739e-07
1.26611e-07
1.28957e-07
1.31774e-07
1.34985e-07
1.38424e-07
1.41839e-07
1.44927e-07
1.47403e-07
1.49052e-07
1.49792e-07
1.4964e-07
1.48468e-07
1.46551e-07
1.44249e-07
1.41827e-07
1.39448e-07
1.3716e-07
1.34942e-07
1.32738e-07
1.30491e-07
1.28151e-07
1.2571e-07
1.23213e-07
1.20751e-07
1.18437e-07
1.16373e-07
1.14644e-07
1.13307e-07
1.12387e-07
1.11891e-07
1.11801e-07
1.12108e-07
1.12609e-07
1.13274e-07
1.14092e-07
1.15059e-07
1.16176e-07
1.17451e-07
1.18894e-07
1.20524e-07
1.22362e-07
1.24437e-07
1.26767e-07
1.29346e-07
1.32139e-07
1.35066e-07
1.38027e-07
1.40885e-07
1.43464e-07
1.45574e-07
1.47065e-07
1.47862e-07
1.47837e-07
1.46931e-07
1.45295e-07
1.43216e-07
1.40934e-07
1.38652e-07
1.36515e-07
1.34615e-07
1.33013e-07
1.31736e-07
1.30794e-07
1.30179e-07
1.29846e-07
1.29745e-07
1.29828e-07
1.30061e-07
1.30382e-07
1.30731e-07
1.31044e-07
1.31242e-07
1.31241e-07
1.30984e-07
1.30395e-07
1.29468e-07
1.28108e-07
2.36038e-08
2.79925e-08
4.13977e-08
6.44204e-08
8.71946e-08
1.00004e-07
1.06506e-07
1.09546e-07
1.10795e-07
1.10928e-07
1.10255e-07
1.09049e-07
1.07681e-07
1.06295e-07
1.04985e-07
1.03808e-07
1.02782e-07
1.01881e-07
1.01061e-07
1.00266e-07
9.94386e-08
9.85351e-08
9.75453e-08
9.64928e-08
9.54323e-08
9.44315e-08
9.35506e-08
9.28269e-08
9.22828e-08
9.1926e-08
9.17473e-08
9.17314e-08
9.18706e-08
9.20741e-08
9.23371e-08
9.26665e-08
9.30665e-08
9.35351e-08
9.40627e-08
9.46326e-08
9.52253e-08
9.5824e-08
9.64203e-08
9.70159e-08
9.76242e-08
9.8267e-08
9.89697e-08
9.97588e-08
1.00659e-07
1.01686e-07
1.02851e-07
1.04149e-07
1.05563e-07
1.07057e-07
1.08576e-07
1.10047e-07
1.11383e-07
1.12485e-07
1.13252e-07
1.13573e-07
1.13296e-07
1.12291e-07
1.10595e-07
1.08339e-07
1.05712e-07
1.02945e-07
1.00267e-07
9.78458e-08
9.57973e-08
9.4165e-08
9.29335e-08
9.20536e-08
9.14641e-08
9.11017e-08
9.09099e-08
9.08417e-08
9.08646e-08
9.0944e-08
9.10417e-08
9.11416e-08
9.12442e-08
9.13562e-08
9.14858e-08
9.16443e-08
9.18491e-08
9.21216e-08
9.24872e-08
9.29768e-08
9.3618e-08
9.44274e-08
9.53962e-08
9.64822e-08
9.76052e-08
9.86498e-08
9.95014e-08
1.00069e-07
1.00312e-07
1.00231e-07
9.97793e-08
9.90692e-08
9.82448e-08
9.74055e-08
9.66062e-08
9.58592e-08
9.51524e-08
9.44658e-08
9.37823e-08
9.30883e-08
9.23839e-08
9.16906e-08
9.10381e-08
9.04575e-08
8.99752e-08
8.96016e-08
8.93366e-08
8.91735e-08
8.91012e-08
8.91174e-08
8.92095e-08
8.93327e-08
8.94826e-08
8.9661e-08
8.98741e-08
9.01288e-08
9.04331e-08
9.07943e-08
9.12224e-08
9.17303e-08
9.23323e-08
9.30391e-08
9.38557e-08
9.47756e-08
9.57727e-08
9.68123e-08
9.78424e-08
9.87917e-08
9.95836e-08
1.0015e-07
1.00452e-07
1.0044e-07
1.00095e-07
9.94809e-08
9.87132e-08
9.78853e-08
9.70735e-08
9.63255e-08
9.56741e-08
9.51394e-08
9.47295e-08
9.44391e-08
9.42533e-08
9.41613e-08
9.4148e-08
9.41972e-08
9.42957e-08
9.44246e-08
9.45652e-08
9.46976e-08
9.47883e-08
9.47961e-08
9.4715e-08
9.45334e-08
9.42563e-08
9.37929e-08
1.84449e-08
2.19256e-08
3.27533e-08
5.17963e-08
7.18604e-08
8.32443e-08
8.88842e-08
9.1369e-08
9.22889e-08
9.24823e-08
9.22455e-08
9.16935e-08
9.10464e-08
9.04412e-08
8.99004e-08
8.94271e-08
8.90232e-08
8.86803e-08
8.83722e-08
8.80758e-08
8.77704e-08
8.74463e-08
8.71088e-08
8.67764e-08
8.64769e-08
8.62366e-08
8.60735e-08
8.59905e-08
8.59782e-08
8.60292e-08
8.61172e-08
8.62148e-08
8.63069e-08
8.63742e-08
8.64129e-08
8.64367e-08
8.64611e-08
8.6501e-08
8.65666e-08
8.66617e-08
8.67856e-08
8.69338e-08
8.71016e-08
8.72861e-08
8.74886e-08
8.77136e-08
8.79678e-08
8.82597e-08
8.85978e-08
8.89892e-08
8.94384e-08
8.99459e-08
9.05066e-08
9.11069e-08
9.17237e-08
9.23246e-08
9.28715e-08
9.33198e-08
9.36239e-08
9.37331e-08
9.35748e-08
9.30912e-08
9.23128e-08
9.13125e-08
9.0193e-08
8.90732e-08
8.80541e-08
8.7205e-08
8.65615e-08
8.61222e-08
8.58551e-08
8.57169e-08
8.5664e-08
8.56603e-08
8.56784e-08
8.57013e-08
8.57213e-08
8.57363e-08
8.57457e-08
8.57522e-08
8.57625e-08
8.57825e-08
8.58138e-08
8.58538e-08
8.59007e-08
8.5956e-08
8.60247e-08
8.61183e-08
8.62531e-08
8.64455e-08
8.67025e-08
8.70165e-08
8.73658e-08
8.77052e-08
8.79817e-08
8.81531e-08
8.81988e-08
8.8121e-08
8.79084e-08
8.76156e-08
8.72952e-08
8.69851e-08
8.67002e-08
8.64468e-08
8.62138e-08
8.59946e-08
8.57827e-08
8.55791e-08
8.53837e-08
8.52083e-08
8.50656e-08
8.49633e-08
8.49076e-08
8.48956e-08
8.49145e-08
8.49505e-08
8.49919e-08
8.50353e-08
8.50726e-08
8.50984e-08
8.51125e-08
8.51194e-08
8.51274e-08
8.51439e-08
8.51747e-08
8.52239e-08
8.52971e-08
8.54032e-08
8.55505e-08
8.57438e-08
8.59874e-08
8.62818e-08
8.66176e-08
8.6981e-08
8.73504e-08
8.76934e-08
8.79774e-08
8.81711e-08
8.82566e-08
8.82162e-08
8.80441e-08
8.77761e-08
8.74598e-08
8.71324e-08
8.68221e-08
8.65475e-08
8.63189e-08
8.61454e-08
8.60238e-08
8.59411e-08
8.58938e-08
8.5879e-08
8.58904e-08
8.59229e-08
8.59707e-08
8.60279e-08
8.60885e-08
8.61495e-08
8.61829e-08
8.61868e-08
8.61741e-08
8.61307e-08
8.60794e-08
8.59084e-08
1.68026e-08
1.99157e-08
2.9683e-08
4.71463e-08
6.65002e-08
7.77836e-08
8.33608e-08
8.57841e-08
8.66766e-08
8.68918e-08
8.68262e-08
8.65736e-08
8.62512e-08
8.59154e-08
8.56297e-08
8.54216e-08
8.52465e-08
8.5109e-08
8.49813e-08
8.48553e-08
8.47244e-08
8.45909e-08
8.44652e-08
8.43635e-08
8.43029e-08
8.42999e-08
8.43635e-08
8.44861e-08
8.46527e-08
8.48403e-08
8.50238e-08
8.518e-08
8.52901e-08
8.53415e-08
8.53328e-08
8.52759e-08
8.51907e-08
8.50979e-08
8.50139e-08
8.4951e-08
8.49172e-08
8.49161e-08
8.49459e-08
8.50014e-08
8.50785e-08
8.51746e-08
8.52883e-08
8.54205e-08
8.55724e-08
8.57452e-08
8.59409e-08
8.61624e-08
8.64118e-08
8.66853e-08
8.69726e-08
8.72566e-08
8.75143e-08
8.77145e-08
8.78286e-08
8.78354e-08
8.77003e-08
8.74062e-08
8.69755e-08
8.64477e-08
8.58831e-08
8.53516e-08
8.49063e-08
8.45826e-08
8.43936e-08
8.43261e-08
8.43519e-08
8.44372e-08
8.4546e-08
8.46506e-08
8.47327e-08
8.47848e-08
8.48073e-08
8.4807e-08
8.47931e-08
8.47768e-08
8.4766e-08
8.47676e-08
8.47835e-08
8.48059e-08
8.48271e-08
8.48407e-08
8.48442e-08
8.48376e-08
8.48324e-08
8.48419e-08
8.48773e-08
8.49425e-08
8.50319e-08
8.51266e-08
8.51944e-08
8.52119e-08
8.51708e-08
8.50735e-08
8.49275e-08
8.47596e-08
8.45924e-08
8.44416e-08
8.43112e-08
8.42005e-08
8.41023e-08
8.40125e-08
8.39309e-08
8.38589e-08
8.37982e-08
8.37567e-08
8.37424e-08
8.37625e-08
8.38181e-08
8.3903e-08
8.40002e-08
8.40938e-08
8.41721e-08
8.4233e-08
8.42681e-08
8.42785e-08
8.42644e-08
8.4234e-08
8.41957e-08
8.41562e-08
8.41198e-08
8.40899e-08
8.40701e-08
8.40675e-08
8.40871e-08
8.41302e-08
8.42003e-08
8.42992e-08
8.44229e-08
8.45639e-08
8.47097e-08
8.48402e-08
8.49404e-08
8.49944e-08
8.49968e-08
8.4934e-08
8.48118e-08
8.46541e-08
8.44844e-08
8.43221e-08
8.41786e-08
8.4062e-08
8.39793e-08
8.39225e-08
8.38937e-08
8.38768e-08
8.38769e-08
8.38894e-08
8.39158e-08
8.39401e-08
8.39715e-08
8.39966e-08
8.40281e-08
8.40474e-08
8.40533e-08
8.40558e-08
8.40733e-08
8.40721e-08
8.40849e-08
8.40266e-08
1.59779e-08
1.88525e-08
2.79436e-08
4.44848e-08
6.38333e-08
7.56397e-08
8.14856e-08
8.40142e-08
8.49324e-08
8.51407e-08
8.51088e-08
8.49331e-08
8.47189e-08
8.44948e-08
8.43384e-08
8.42253e-08
8.41374e-08
8.40751e-08
8.40149e-08
8.39525e-08
8.38814e-08
8.3809e-08
8.37484e-08
8.37147e-08
8.37263e-08
8.3796e-08
8.39297e-08
8.4123e-08
8.43595e-08
8.46142e-08
8.48591e-08
8.50663e-08
8.52148e-08
8.52914e-08
8.52942e-08
8.52306e-08
8.51218e-08
8.49916e-08
8.48611e-08
8.4747e-08
8.46614e-08
8.46115e-08
8.45973e-08
8.46156e-08
8.46601e-08
8.4725e-08
8.48055e-08
8.48984e-08
8.50008e-08
8.51097e-08
8.52221e-08
8.53372e-08
8.54546e-08
8.55766e-08
8.57026e-08
8.58243e-08
8.59383e-08
8.60323e-08
8.60814e-08
8.60601e-08
8.59369e-08
8.5711e-08
8.54019e-08
8.50398e-08
8.46689e-08
8.43366e-08
8.4079e-08
8.39201e-08
8.38675e-08
8.391e-08
8.40254e-08
8.41848e-08
8.43546e-08
8.45048e-08
8.46161e-08
8.46831e-08
8.47096e-08
8.47054e-08
8.46831e-08
8.4658e-08
8.46412e-08
8.46411e-08
8.4661e-08
8.46897e-08
8.47179e-08
8.47346e-08
8.47374e-08
8.47172e-08
8.46831e-08
8.46448e-08
8.46148e-08
8.45994e-08
8.45948e-08
8.45882e-08
8.45686e-08
8.45218e-08
8.44385e-08
8.43221e-08
8.41835e-08
8.4042e-08
8.39142e-08
8.38065e-08
8.37183e-08
8.36455e-08
8.35822e-08
8.35244e-08
8.34713e-08
8.34252e-08
8.33888e-08
8.33681e-08
8.33746e-08
8.3422e-08
8.35105e-08
8.36237e-08
8.37507e-08
8.38713e-08
8.39731e-08
8.40517e-08
8.40979e-08
8.4114e-08
8.41003e-08
8.40671e-08
8.40238e-08
8.39768e-08
8.39304e-08
8.3888e-08
8.38525e-08
8.3828e-08
8.38172e-08
8.38201e-08
8.38391e-08
8.3876e-08
8.39287e-08
8.3993e-08
8.40613e-08
8.41176e-08
8.41507e-08
8.41517e-08
8.41191e-08
8.40407e-08
8.39311e-08
8.38054e-08
8.36753e-08
8.35618e-08
8.34705e-08
8.34017e-08
8.33648e-08
8.33413e-08
8.33413e-08
8.33468e-08
8.3363e-08
8.33868e-08
8.34217e-08
8.34425e-08
8.34673e-08
8.3489e-08
8.35127e-08
8.35155e-08
8.35226e-08
8.3532e-08
8.35583e-08
8.35654e-08
8.36e-08
8.35721e-08
1.53142e-08
1.79727e-08
2.64492e-08
4.21776e-08
6.16309e-08
7.42894e-08
8.06784e-08
8.34097e-08
8.43897e-08
8.46789e-08
8.46577e-08
8.45006e-08
8.43049e-08
8.41153e-08
8.40063e-08
8.39334e-08
8.38974e-08
8.38689e-08
8.38274e-08
8.37606e-08
8.36844e-08
8.36071e-08
8.35362e-08
8.34899e-08
8.3491e-08
8.35658e-08
8.37241e-08
8.39603e-08
8.4257e-08
8.45853e-08
8.49089e-08
8.51945e-08
8.54138e-08
8.55523e-08
8.56077e-08
8.55822e-08
8.5492e-08
8.53588e-08
8.5204e-08
8.50436e-08
8.49034e-08
8.48036e-08
8.47502e-08
8.4741e-08
8.47691e-08
8.48243e-08
8.48992e-08
8.49881e-08
8.50832e-08
8.51794e-08
8.52732e-08
8.53629e-08
8.54486e-08
8.55325e-08
8.56124e-08
8.56848e-08
8.57267e-08
8.57267e-08
8.56828e-08
8.55948e-08
8.54533e-08
8.52452e-08
8.49748e-08
8.46603e-08
8.4337e-08
8.40431e-08
8.38146e-08
8.36808e-08
8.36579e-08
8.37415e-08
8.39102e-08
8.41285e-08
8.43586e-08
8.45681e-08
8.47354e-08
8.48476e-08
8.49016e-08
8.49099e-08
8.48874e-08
8.48566e-08
8.48347e-08
8.48388e-08
8.4877e-08
8.49278e-08
8.49759e-08
8.50071e-08
8.50257e-08
8.501e-08
8.49537e-08
8.48729e-08
8.47846e-08
8.47025e-08
8.46302e-08
8.45636e-08
8.44799e-08
8.4368e-08
8.4231e-08
8.40806e-08
8.39281e-08
8.3783e-08
8.36557e-08
8.35527e-08
8.34721e-08
8.34079e-08
8.33515e-08
8.32972e-08
8.32442e-08
8.31976e-08
8.31628e-08
8.31508e-08
8.31717e-08
8.32311e-08
8.33243e-08
8.3452e-08
8.35983e-08
8.3741e-08
8.38649e-08
8.39636e-08
8.40263e-08
8.4055e-08
8.40508e-08
8.40246e-08
8.3987e-08
8.39452e-08
8.39039e-08
8.3867e-08
8.38366e-08
8.38154e-08
8.38056e-08
8.38055e-08
8.38159e-08
8.38387e-08
8.38707e-08
8.39079e-08
8.39417e-08
8.39585e-08
8.39523e-08
8.39167e-08
8.38531e-08
8.37509e-08
8.36248e-08
8.34895e-08
8.33614e-08
8.32597e-08
8.31871e-08
8.3142e-08
8.31255e-08
8.31275e-08
8.31507e-08
8.31798e-08
8.32184e-08
8.32592e-08
8.33091e-08
8.3342e-08
8.33706e-08
8.33967e-08
8.34206e-08
8.34085e-08
8.34043e-08
8.34053e-08
8.34174e-08
8.34137e-08
8.34497e-08
8.34145e-08
1.46581e-08
1.70991e-08
2.49499e-08
3.98408e-08
5.92953e-08
7.29877e-08
8.00893e-08
8.3206e-08
8.43524e-08
8.46951e-08
8.46687e-08
8.45003e-08
8.42893e-08
8.40957e-08
8.3994e-08
8.39307e-08
8.39087e-08
8.38885e-08
8.38491e-08
8.37791e-08
8.36788e-08
8.35549e-08
8.34329e-08
8.33417e-08
8.33097e-08
8.33712e-08
8.35388e-08
8.38006e-08
8.41337e-08
8.45031e-08
8.48692e-08
8.51979e-08
8.54587e-08
8.56398e-08
8.57352e-08
8.5753e-08
8.57051e-08
8.56145e-08
8.55052e-08
8.54006e-08
8.53162e-08
8.52612e-08
8.52417e-08
8.52633e-08
8.53233e-08
8.54084e-08
8.55033e-08
8.55894e-08
8.56608e-08
8.57154e-08
8.57606e-08
8.57941e-08
8.58163e-08
8.58364e-08
8.58666e-08
8.59047e-08
8.59259e-08
8.59066e-08
8.58329e-08
8.57053e-08
8.5521e-08
8.52671e-08
8.49437e-08
8.45854e-08
8.42295e-08
8.39043e-08
8.3654e-08
8.35179e-08
8.35119e-08
8.36283e-08
8.38421e-08
8.41113e-08
8.43948e-08
8.46565e-08
8.48702e-08
8.50247e-08
8.51207e-08
8.51701e-08
8.51891e-08
8.52004e-08
8.52248e-08
8.52782e-08
8.53658e-08
8.54643e-08
8.55418e-08
8.5586e-08
8.5593e-08
8.55606e-08
8.54889e-08
8.53742e-08
8.52265e-08
8.50648e-08
8.4901e-08
8.47469e-08
8.45867e-08
8.44076e-08
8.42157e-08
8.40138e-08
8.38193e-08
8.36464e-08
8.35028e-08
8.33928e-08
8.33108e-08
8.32463e-08
8.31887e-08
8.31297e-08
8.30681e-08
8.30096e-08
8.29628e-08
8.29422e-08
8.29611e-08
8.30184e-08
8.31135e-08
8.32476e-08
8.34094e-08
8.35718e-08
8.3718e-08
8.38402e-08
8.39245e-08
8.39714e-08
8.39849e-08
8.39732e-08
8.39473e-08
8.39159e-08
8.38851e-08
8.38594e-08
8.38408e-08
8.38317e-08
8.38351e-08
8.38493e-08
8.38717e-08
8.38997e-08
8.39275e-08
8.39496e-08
8.39602e-08
8.39496e-08
8.39119e-08
8.38453e-08
8.37492e-08
8.36123e-08
8.34552e-08
8.3296e-08
8.31554e-08
8.30491e-08
8.298e-08
8.29456e-08
8.29406e-08
8.29602e-08
8.30006e-08
8.30487e-08
8.31029e-08
8.31588e-08
8.32205e-08
8.32748e-08
8.33271e-08
8.33786e-08
8.34166e-08
8.34186e-08
8.34091e-08
8.34008e-08
8.33843e-08
8.3351e-08
8.33595e-08
8.3303e-08
1.39714e-08
1.61877e-08
2.33763e-08
3.73455e-08
5.66169e-08
7.14925e-08
7.94316e-08
8.30362e-08
8.43887e-08
8.48355e-08
8.48295e-08
8.46633e-08
8.44366e-08
8.41913e-08
8.40223e-08
8.39283e-08
8.38975e-08
8.38805e-08
8.38431e-08
8.37641e-08
8.36314e-08
8.34568e-08
8.32751e-08
8.31247e-08
8.30394e-08
8.30551e-08
8.31897e-08
8.34249e-08
8.37387e-08
8.4099e-08
8.44671e-08
8.48141e-08
8.51151e-08
8.53646e-08
8.55431e-08
8.56413e-08
8.56626e-08
8.56193e-08
8.5546e-08
8.54772e-08
8.54334e-08
8.54218e-08
8.54503e-08
8.55267e-08
8.56568e-08
8.58358e-08
8.6043e-08
8.62489e-08
8.64274e-08
8.65538e-08
8.66265e-08
8.66403e-08
8.65918e-08
8.65034e-08
8.64248e-08
8.63665e-08
8.63128e-08
8.62398e-08
8.61211e-08
8.59431e-08
8.57013e-08
8.53928e-08
8.50195e-08
8.46003e-08
8.41722e-08
8.37902e-08
8.35028e-08
8.33528e-08
8.33478e-08
8.34749e-08
8.37066e-08
8.39962e-08
8.43046e-08
8.45949e-08
8.48426e-08
8.50276e-08
8.51516e-08
8.52272e-08
8.52784e-08
8.53309e-08
8.54158e-08
8.55546e-08
8.57531e-08
8.59866e-08
8.62118e-08
8.63724e-08
8.64336e-08
8.63859e-08
8.62653e-08
8.60881e-08
8.58616e-08
8.56055e-08
8.53366e-08
8.5073e-08
8.48054e-08
8.45294e-08
8.42602e-08
8.39936e-08
8.37411e-08
8.35269e-08
8.33585e-08
8.32377e-08
8.31518e-08
8.30839e-08
8.30215e-08
8.29535e-08
8.28779e-08
8.27997e-08
8.27305e-08
8.26852e-08
8.26755e-08
8.27055e-08
8.27741e-08
8.28798e-08
8.3025e-08
8.31977e-08
8.33618e-08
8.35105e-08
8.36239e-08
8.37013e-08
8.37476e-08
8.37689e-08
8.3773e-08
8.37696e-08
8.37656e-08
8.37652e-08
8.3773e-08
8.37892e-08
8.38156e-08
8.38493e-08
8.3887e-08
8.39266e-08
8.39615e-08
8.39824e-08
8.39818e-08
8.39474e-08
8.38834e-08
8.37849e-08
8.3651e-08
8.34754e-08
8.3284e-08
8.30967e-08
8.29362e-08
8.28168e-08
8.27418e-08
8.27087e-08
8.27068e-08
8.27336e-08
8.2781e-08
8.28389e-08
8.29021e-08
8.29718e-08
8.30478e-08
8.3124e-08
8.32026e-08
8.3281e-08
8.33438e-08
8.33657e-08
8.33525e-08
8.33345e-08
8.32933e-08
8.32295e-08
8.32041e-08
8.31153e-08
1.32237e-08
1.52046e-08
2.16797e-08
3.45994e-08
5.33977e-08
6.96179e-08
7.85787e-08
8.27728e-08
8.43825e-08
8.49428e-08
8.49388e-08
8.47314e-08
8.44393e-08
8.41381e-08
8.39126e-08
8.37918e-08
8.37484e-08
8.37254e-08
8.36742e-08
8.35681e-08
8.33888e-08
8.31451e-08
8.28715e-08
8.26089e-08
8.23959e-08
8.22632e-08
8.22161e-08
8.22618e-08
8.2389e-08
8.25695e-08
8.27904e-08
8.30578e-08
8.33771e-08
8.37635e-08
8.41613e-08
8.45129e-08
8.47775e-08
8.49457e-08
8.50367e-08
8.50784e-08
8.51207e-08
8.51789e-08
8.52673e-08
8.54026e-08
8.55974e-08
8.58495e-08
8.61442e-08
8.64566e-08
8.67606e-08
8.70339e-08
8.72449e-08
8.73715e-08
8.7409e-08
8.73604e-08
8.7236e-08
8.70685e-08
8.68948e-08
8.67254e-08
8.65366e-08
8.62947e-08
8.59805e-08
8.55908e-08
8.51233e-08
8.46052e-08
8.40951e-08
8.36397e-08
8.32864e-08
8.307e-08
8.29976e-08
8.30658e-08
8.3251e-08
8.35188e-08
8.38339e-08
8.41531e-08
8.44423e-08
8.4679e-08
8.48606e-08
8.49912e-08
8.50904e-08
8.51935e-08
8.5337e-08
8.55494e-08
8.58508e-08
8.6236e-08
8.6664e-08
8.70714e-08
8.73614e-08
8.74541e-08
8.73119e-08
8.70173e-08
8.6676e-08
8.6305e-08
8.59082e-08
8.55056e-08
8.51018e-08
8.47072e-08
8.43336e-08
8.39759e-08
8.36532e-08
8.33902e-08
8.31911e-08
8.30524e-08
8.29558e-08
8.28743e-08
8.27962e-08
8.2704e-08
8.2594e-08
8.24681e-08
8.23378e-08
8.22171e-08
8.21243e-08
8.20746e-08
8.20744e-08
8.21262e-08
8.22401e-08
8.24e-08
8.25675e-08
8.27267e-08
8.28688e-08
8.29855e-08
8.30837e-08
8.31659e-08
8.32345e-08
8.32951e-08
8.33544e-08
8.34165e-08
8.34852e-08
8.35632e-08
8.36524e-08
8.37473e-08
8.38368e-08
8.39121e-08
8.39631e-08
8.39854e-08
8.39703e-08
8.3912e-08
8.38171e-08
8.3678e-08
8.34983e-08
8.3276e-08
8.30402e-08
8.2811e-08
8.26124e-08
8.24587e-08
8.23554e-08
8.23008e-08
8.22812e-08
8.22935e-08
8.2329e-08
8.23805e-08
8.24453e-08
8.25266e-08
8.26236e-08
8.27273e-08
8.28402e-08
8.29574e-08
8.30604e-08
8.31161e-08
8.31207e-08
8.3087e-08
8.30251e-08
8.29233e-08
8.28379e-08
8.26788e-08
1.23917e-08
1.41257e-08
1.98329e-08
3.15572e-08
4.94906e-08
6.71481e-08
7.73515e-08
8.22728e-08
8.42119e-08
8.48782e-08
8.48633e-08
8.46075e-08
8.42381e-08
8.38491e-08
8.35225e-08
8.33192e-08
8.32001e-08
8.31194e-08
8.3023e-08
8.28715e-08
8.26233e-08
8.226e-08
8.18058e-08
8.12922e-08
8.07462e-08
8.0192e-08
7.96522e-08
7.91406e-08
7.86648e-08
7.82473e-08
7.7947e-08
7.78417e-08
7.80785e-08
7.8721e-08
7.96346e-08
8.06222e-08
8.15338e-08
8.22841e-08
8.28506e-08
8.32646e-08
8.35763e-08
8.38358e-08
8.40843e-08
8.43641e-08
8.47118e-08
8.51366e-08
8.56211e-08
8.61285e-08
8.6613e-08
8.70352e-08
8.73705e-08
8.76145e-08
8.77617e-08
8.7808e-08
8.77439e-08
8.75722e-08
8.73483e-08
8.71214e-08
8.68846e-08
8.65931e-08
8.62089e-08
8.57267e-08
8.51574e-08
8.45425e-08
8.39188e-08
8.3334e-08
8.28256e-08
8.24286e-08
8.21591e-08
8.20243e-08
8.20141e-08
8.21292e-08
8.23383e-08
8.26161e-08
8.29282e-08
8.32475e-08
8.35443e-08
8.38153e-08
8.40554e-08
8.42887e-08
8.45595e-08
8.49089e-08
8.53707e-08
8.5945e-08
8.65888e-08
8.72352e-08
8.781e-08
8.82304e-08
8.83776e-08
8.81505e-08
8.76596e-08
8.71088e-08
8.65653e-08
8.60124e-08
8.54534e-08
8.49162e-08
8.44018e-08
8.39267e-08
8.35134e-08
8.31845e-08
8.29383e-08
8.27586e-08
8.2626e-08
8.2505e-08
8.23765e-08
8.222e-08
8.20264e-08
8.17927e-08
8.15303e-08
8.12586e-08
8.09985e-08
8.07737e-08
8.06e-08
8.04868e-08
8.0438e-08
8.04675e-08
8.05727e-08
8.07194e-08
8.09036e-08
8.11336e-08
8.1384e-08
8.16314e-08
8.18616e-08
8.20707e-08
8.22679e-08
8.24585e-08
8.2651e-08
8.2854e-08
8.30737e-08
8.3302e-08
8.35154e-08
8.36889e-08
8.3806e-08
8.38596e-08
8.385e-08
8.37747e-08
8.3639e-08
8.3446e-08
8.32026e-08
8.2912e-08
8.26061e-08
8.23038e-08
8.20292e-08
8.1798e-08
8.16231e-08
8.15024e-08
8.1422e-08
8.13787e-08
8.13654e-08
8.13811e-08
8.14311e-08
8.15186e-08
8.16396e-08
8.17818e-08
8.19514e-08
8.21382e-08
8.23118e-08
8.24403e-08
8.24927e-08
8.24536e-08
8.23558e-08
8.21836e-08
8.19771e-08
8.16546e-08
1.14524e-08
1.29294e-08
1.7826e-08
2.8216e-08
4.49151e-08
6.37522e-08
7.54801e-08
8.12878e-08
8.36448e-08
8.44343e-08
8.43955e-08
8.40399e-08
8.35149e-08
8.29519e-08
8.24217e-08
8.19973e-08
8.16392e-08
8.13712e-08
8.11637e-08
8.09335e-08
8.05654e-08
7.99731e-08
7.91474e-08
7.80945e-08
7.68144e-08
7.53042e-08
7.35845e-08
7.16654e-08
6.9599e-08
6.75667e-08
6.58351e-08
6.47483e-08
6.46601e-08
6.58967e-08
6.8098e-08
7.07352e-08
7.33196e-08
7.55346e-08
7.7273e-08
7.85674e-08
7.95149e-08
8.02224e-08
8.07952e-08
8.13392e-08
8.19541e-08
8.26861e-08
8.35333e-08
8.44548e-08
8.53747e-08
8.62103e-08
8.68921e-08
8.73943e-08
8.77093e-08
8.78533e-08
8.7854e-08
8.77267e-08
8.75109e-08
8.72764e-08
8.703e-08
8.67179e-08
8.62873e-08
8.57302e-08
8.50593e-08
8.4292e-08
8.34689e-08
8.26233e-08
8.17828e-08
8.09777e-08
8.02136e-08
7.95038e-08
7.8876e-08
7.83736e-08
7.80507e-08
7.79377e-08
7.80864e-08
7.84647e-08
7.90322e-08
7.96993e-08
8.03431e-08
8.09275e-08
8.14751e-08
8.20866e-08
8.2843e-08
8.37866e-08
8.4911e-08
8.61449e-08
8.73366e-08
8.82792e-08
8.88463e-08
8.90063e-08
8.86795e-08
8.8006e-08
8.72494e-08
8.65137e-08
8.57875e-08
8.50872e-08
8.4403e-08
8.37764e-08
8.32327e-08
8.27941e-08
8.24516e-08
8.2171e-08
8.19318e-08
8.16995e-08
8.14414e-08
8.11341e-08
8.07541e-08
8.0292e-08
7.975e-08
7.91426e-08
7.84833e-08
7.77966e-08
7.71173e-08
7.64854e-08
7.595e-08
7.55839e-08
7.54224e-08
7.54568e-08
7.57223e-08
7.62412e-08
7.69307e-08
7.76762e-08
7.83961e-08
7.90485e-08
7.96321e-08
8.01661e-08
8.06683e-08
8.11597e-08
8.16583e-08
8.21538e-08
8.26102e-08
8.29841e-08
8.32473e-08
8.3391e-08
8.34243e-08
8.33517e-08
8.31737e-08
8.29099e-08
8.25765e-08
8.21864e-08
8.17698e-08
8.13409e-08
8.09233e-08
8.05389e-08
8.02114e-08
7.99387e-08
7.97077e-08
7.9515e-08
7.93654e-08
7.92756e-08
7.92582e-08
7.93166e-08
7.94471e-08
7.96425e-08
7.9907e-08
8.02164e-08
8.05305e-08
8.07922e-08
8.09408e-08
8.09353e-08
8.07675e-08
8.04651e-08
8.00309e-08
7.9399e-08
1.03717e-08
1.15828e-08
1.56379e-08
2.45591e-08
3.97214e-08
5.89466e-08
7.2419e-08
7.9298e-08
8.22258e-08
8.31286e-08
8.30358e-08
8.24332e-08
8.15129e-08
8.05188e-08
7.95251e-08
7.85589e-08
7.75848e-08
7.6853e-08
7.6429e-08
7.60924e-08
7.55464e-08
7.45408e-08
7.30164e-08
7.08949e-08
6.8039e-08
6.43707e-08
5.99286e-08
5.4702e-08
4.89173e-08
4.32155e-08
3.84178e-08
3.54332e-08
3.50038e-08
3.72463e-08
4.15886e-08
4.75567e-08
5.40545e-08
5.99164e-08
6.45826e-08
6.80348e-08
7.04858e-08
7.22106e-08
7.34673e-08
7.45138e-08
7.55811e-08
7.68178e-08
7.82766e-08
7.99404e-08
8.1701e-08
8.33912e-08
8.48523e-08
8.59983e-08
8.67868e-08
8.72387e-08
8.74103e-08
8.73768e-08
8.71942e-08
8.69646e-08
8.67471e-08
8.64722e-08
8.60399e-08
8.5403e-08
8.4571e-08
8.35567e-08
8.23763e-08
8.10326e-08
7.95088e-08
7.77493e-08
7.56956e-08
7.33182e-08
7.06993e-08
6.80843e-08
6.57829e-08
6.41185e-08
6.32864e-08
6.34815e-08
6.47786e-08
6.66072e-08
6.83862e-08
6.98576e-08
7.09879e-08
7.1999e-08
7.31557e-08
7.47223e-08
7.68935e-08
7.97649e-08
8.29837e-08
8.59616e-08
8.81099e-08
8.91433e-08
8.92597e-08
8.8811e-08
8.79624e-08
8.69998e-08
8.60621e-08
8.51517e-08
8.42445e-08
8.33966e-08
8.2628e-08
8.19589e-08
8.13748e-08
8.08277e-08
8.02902e-08
7.97525e-08
7.91868e-08
7.85474e-08
7.77656e-08
7.67929e-08
7.55858e-08
7.41209e-08
7.23901e-08
7.04218e-08
6.82924e-08
6.61284e-08
6.40994e-08
6.24453e-08
6.13612e-08
6.09269e-08
6.13553e-08
6.2703e-08
6.47052e-08
6.69926e-08
6.9253e-08
7.12937e-08
7.30844e-08
7.46633e-08
7.6078e-08
7.73808e-08
7.86123e-08
7.97522e-08
8.07399e-08
8.15185e-08
8.20581e-08
8.23647e-08
8.24712e-08
8.24042e-08
8.21676e-08
8.18038e-08
8.13487e-08
8.08164e-08
8.02227e-08
7.95707e-08
7.88747e-08
7.81693e-08
7.74961e-08
7.68574e-08
7.62433e-08
7.5661e-08
7.51521e-08
7.47725e-08
7.45479e-08
7.44819e-08
7.45717e-08
7.48222e-08
7.5233e-08
7.57607e-08
7.63344e-08
7.68544e-08
7.72027e-08
7.72854e-08
7.70344e-08
7.64925e-08
7.56367e-08
7.43999e-08
9.55276e-09
1.05805e-08
1.40762e-08
2.19763e-08
3.59918e-08
5.5079e-08
6.98215e-08
7.75265e-08
8.09013e-08
8.18769e-08
8.17298e-08
8.08872e-08
7.95803e-08
7.81714e-08
7.67401e-08
7.52579e-08
7.36874e-08
7.25118e-08
7.18974e-08
7.14903e-08
7.0816e-08
6.9467e-08
6.73444e-08
6.42874e-08
6.00263e-08
5.43799e-08
4.72653e-08
3.84376e-08
2.7967e-08
1.71041e-08
9.04914e-09
6.50746e-09
8.93858e-09
1.15008e-08
1.56089e-08
2.08043e-08
2.80518e-08
3.69293e-08
4.5683e-08
5.26182e-08
5.73332e-08
6.05778e-08
6.28547e-08
6.46384e-08
6.63377e-08
6.82287e-08
7.04564e-08
7.30733e-08
7.59628e-08
7.88562e-08
8.1458e-08
8.35774e-08
8.51101e-08
8.6072e-08
8.65637e-08
8.67168e-08
8.6662e-08
8.65042e-08
8.63433e-08
8.61264e-08
8.57116e-08
8.5019e-08
8.40609e-08
8.28427e-08
8.13551e-08
7.95707e-08
7.74218e-08
7.4763e-08
7.14401e-08
6.72833e-08
6.21543e-08
5.59986e-08
4.89204e-08
4.18567e-08
3.66724e-08
3.50679e-08
3.73952e-08
4.09158e-08
4.4372e-08
4.70732e-08
4.87565e-08
4.98765e-08
5.10206e-08
5.30121e-08
5.65967e-08
6.26319e-08
7.02228e-08
7.77828e-08
8.38911e-08
8.76767e-08
8.91051e-08
8.9073e-08
8.83747e-08
8.73157e-08
8.62156e-08
8.51434e-08
8.4059e-08
8.30262e-08
8.20623e-08
8.11816e-08
8.03672e-08
7.95649e-08
7.87369e-08
7.78988e-08
7.7044e-08
7.60996e-08
7.49488e-08
7.34967e-08
7.16438e-08
6.93094e-08
6.64214e-08
6.29192e-08
5.87318e-08
5.37735e-08
4.81183e-08
4.24044e-08
3.77724e-08
3.54804e-08
3.59967e-08
3.83362e-08
4.21779e-08
4.7043e-08
5.22578e-08
5.71032e-08
6.12535e-08
6.49038e-08
6.81411e-08
7.10548e-08
7.37165e-08
7.60871e-08
7.80651e-08
7.95831e-08
8.06285e-08
8.12458e-08
8.15169e-08
8.15115e-08
8.12643e-08
8.08308e-08
8.02783e-08
7.96282e-08
7.8884e-08
7.80371e-08
7.70922e-08
7.60921e-08
7.50899e-08
7.40962e-08
7.31028e-08
7.21301e-08
7.12584e-08
7.05799e-08
7.01368e-08
6.9933e-08
6.99667e-08
7.02506e-08