/*--------------------------------*- C++ -*----------------------------------*\
| =========                 |                                                 |
| \\      /  F ield         | OpenFOAM: The Open Source CFD Toolbox           |
|  \\    /   O peration     | Version:  v1912                                 |
|   \\  /    A nd           | Website:  www.openfoam.com                      |
|    \\/     M anipulation  |                                                 |
\*---------------------------------------------------------------------------*/
FoamFile
{
    version     2.0;
    format      ascii;
    class       volScalarField;
    location    "50";
    object      nut;
}
// * * * * * * * * * * * * * * * * * * * * * * * * * * * * * * * * * * * * * //

dimensions      [0 2 -1 0 0 0 0];


internalField   nonuniform List<scalar> 
14268
(
6.63303e-05
6.64493e-05
6.71462e-05
6.84435e-05
6.96387e-05
7.02219e-05
7.04717e-05
7.05399e-05
7.053e-05
7.04682e-05
7.03756e-05
7.02869e-05
7.02094e-05
7.01408e-05
7.00807e-05
7.00277e-05
6.99801e-05
6.99391e-05
6.99067e-05
6.98743e-05
6.98557e-05
6.98461e-05
6.98477e-05
6.98618e-05
6.98893e-05
6.99284e-05
6.99631e-05
6.99818e-05
6.99713e-05
6.99288e-05
6.98597e-05
6.9777e-05
6.97027e-05
6.96887e-05
6.9729e-05
6.9801e-05
6.9892e-05
6.99965e-05
7.00994e-05
7.01961e-05
7.02852e-05
7.03678e-05
7.04459e-05
7.05205e-05
7.05941e-05
7.06702e-05
7.07526e-05
7.08451e-05
7.095e-05
7.10674e-05
7.11952e-05
7.13293e-05
7.14651e-05
7.15976e-05
7.17221e-05
7.18334e-05
7.19257e-05
7.19899e-05
7.20173e-05
7.20145e-05
7.20039e-05
7.19765e-05
7.19261e-05
7.18707e-05
7.18201e-05
7.17825e-05
7.17651e-05
7.17701e-05
7.17968e-05
7.1842e-05
7.18969e-05
7.19515e-05
7.19897e-05
7.19998e-05
7.19912e-05
7.19744e-05
7.19574e-05
7.19447e-05
7.19491e-05
7.19678e-05
7.19954e-05
7.20327e-05
7.20842e-05
7.21563e-05
7.22543e-05
7.23796e-05
7.25387e-05
7.27363e-05
7.2969e-05
7.32293e-05
7.35013e-05
7.37651e-05
7.39986e-05
7.41788e-05
7.42873e-05
7.43148e-05
7.42633e-05
7.41467e-05
7.40169e-05
7.3882e-05
7.3745e-05
7.36064e-05
7.34671e-05
7.33284e-05
7.31926e-05
7.30633e-05
7.29444e-05
7.2836e-05
7.27386e-05
7.26554e-05
7.25866e-05
7.25285e-05
7.24729e-05
7.24099e-05
7.23388e-05
7.22587e-05
7.21712e-05
7.20816e-05
7.20027e-05
7.19688e-05
7.19754e-05
7.20123e-05
7.20713e-05
7.21449e-05
7.22271e-05
7.23208e-05
7.24288e-05
7.25527e-05
7.26919e-05
7.2841e-05
7.29953e-05
7.3149e-05
7.32919e-05
7.34089e-05
7.34852e-05
7.35137e-05
7.34927e-05
7.34161e-05
7.32837e-05
7.31305e-05
7.29788e-05
7.28288e-05
7.26902e-05
7.25649e-05
7.24529e-05
7.23541e-05
7.22665e-05
7.2187e-05
7.21119e-05
7.20373e-05
7.1958e-05
7.18702e-05
7.17787e-05
7.16861e-05
7.15937e-05
7.1501e-05
7.14078e-05
7.13142e-05
7.12211e-05
7.11326e-05
7.10522e-05
7.09779e-05
7.09056e-05
7.08447e-05
8.9224e-08
1.78483e-07
4.57016e-07
1.02509e-06
1.66917e-06
2.12933e-06
2.3828e-06
2.50692e-06
2.5565e-06
2.55698e-06
2.52087e-06
2.46073e-06
2.38998e-06
2.3159e-06
2.24417e-06
2.17832e-06
2.1196e-06
2.0673e-06
2.01919e-06
1.9719e-06
1.92209e-06
1.86641e-06
1.80343e-06
1.73343e-06
1.65854e-06
1.58237e-06
1.50918e-06
1.44288e-06
1.38681e-06
1.34394e-06
1.31681e-06
1.30542e-06
1.31064e-06
1.32583e-06
1.35004e-06
1.38236e-06
1.42141e-06
1.46542e-06
1.51243e-06
1.56055e-06
1.60822e-06
1.65434e-06
1.69862e-06
1.74156e-06
1.78429e-06
1.82848e-06
1.87593e-06
1.92855e-06
1.98806e-06
2.05566e-06
2.13193e-06
2.21665e-06
2.30869e-06
2.40581e-06
2.50438e-06
2.6001e-06
2.68736e-06
2.75937e-06
2.80927e-06
2.83161e-06
2.82172e-06
2.77396e-06
2.68866e-06
2.57094e-06
2.42848e-06
2.27117e-06
2.10959e-06
1.95324e-06
1.81001e-06
1.68551e-06
1.58231e-06
1.50085e-06
1.44033e-06
1.39899e-06
1.37438e-06
1.36338e-06
1.36295e-06
1.36997e-06
1.38001e-06
1.39104e-06
1.40255e-06
1.41471e-06
1.42856e-06
1.44572e-06
1.46814e-06
1.49792e-06
1.53705e-06
1.5874e-06
1.64997e-06
1.72453e-06
1.80927e-06
1.9006e-06
1.99216e-06
2.07602e-06
2.14407e-06
2.18987e-06
2.21063e-06
2.20763e-06
2.18018e-06
2.13465e-06
2.07944e-06
2.02069e-06
1.96195e-06
1.90491e-06
1.8493e-06
1.79379e-06
1.73675e-06
1.67701e-06
1.61449e-06
1.54997e-06
1.4857e-06
1.4243e-06
1.36827e-06
1.32005e-06
1.28154e-06
1.25388e-06
1.23772e-06
1.23266e-06
1.23853e-06
1.25004e-06
1.26647e-06
1.28735e-06
1.31234e-06
1.34128e-06
1.37412e-06
1.41094e-06
1.45216e-06
1.49827e-06
1.54991e-06
1.60753e-06
1.67114e-06
1.74011e-06
1.81263e-06
1.88625e-06
1.95749e-06
2.02151e-06
2.07314e-06
2.10828e-06
2.12504e-06
2.12177e-06
2.09763e-06
2.05635e-06
2.00442e-06
1.94748e-06
1.8903e-06
1.83644e-06
1.78815e-06
1.74689e-06
1.71335e-06
1.68772e-06
1.66991e-06
1.65895e-06
1.65343e-06
1.65209e-06
1.65462e-06
1.65924e-06
1.66455e-06
1.66911e-06
1.671e-06
1.66834e-06
1.65985e-06
1.64352e-06
1.61913e-06
1.58523e-06
2.62e-08
5.08681e-08
1.2916e-07
2.95014e-07
4.92074e-07
6.29614e-07
7.04458e-07
7.40428e-07
7.54666e-07
7.55885e-07
7.47937e-07
7.33946e-07
7.17366e-07
7.00108e-07
6.83449e-07
6.68157e-07
6.54527e-07
6.42374e-07
6.31175e-07
6.20199e-07
6.08671e-07
5.95929e-07
5.81735e-07
5.66264e-07
5.50126e-07
5.34203e-07
5.19403e-07
5.06489e-07
4.96013e-07
4.88345e-07
4.8374e-07
4.82035e-07
4.83414e-07
4.86649e-07
4.91679e-07
4.98348e-07
5.06416e-07
5.15563e-07
5.25405e-07
5.35539e-07
5.4562e-07
5.55411e-07
5.64828e-07
5.73955e-07
5.83031e-07
5.92404e-07
6.02456e-07
6.13568e-07
6.26113e-07
6.4033e-07
6.56326e-07
6.74033e-07
6.93188e-07
7.13312e-07
7.33646e-07
7.53252e-07
7.7101e-07
7.85599e-07
7.95766e-07
8.00387e-07
7.97706e-07
7.86224e-07
7.6612e-07
7.38677e-07
7.05809e-07
6.69964e-07
6.33733e-07
5.99388e-07
5.68708e-07
5.42959e-07
5.22411e-07
5.06828e-07
4.95723e-07
4.88462e-07
4.84365e-07
4.82735e-07
4.83002e-07
4.84538e-07
4.86576e-07
4.88749e-07
4.90958e-07
4.93254e-07
4.9584e-07
4.99003e-07
5.03114e-07
5.08575e-07
5.15776e-07
5.25108e-07
5.36804e-07
5.50844e-07
5.66855e-07
5.8416e-07
6.01574e-07
6.17504e-07
6.30398e-07
6.39041e-07
6.42966e-07
6.42356e-07
6.36533e-07
6.26856e-07
6.15198e-07
6.02937e-07
5.90916e-07
5.79403e-07
5.68278e-07
5.57259e-07
5.46035e-07
5.34398e-07
5.22378e-07
5.10218e-07
4.98362e-07
4.87349e-07
4.77633e-07
4.69571e-07
4.63392e-07
4.59171e-07
4.5691e-07
4.56512e-07
4.57916e-07
4.60268e-07
4.6349e-07
4.67507e-07
4.72276e-07
4.77791e-07
4.84078e-07
4.91183e-07
4.99198e-07
5.08229e-07
5.1842e-07
5.29873e-07
5.42584e-07
5.56479e-07
5.71205e-07
5.86274e-07
6.0097e-07
6.14341e-07
6.25334e-07
6.33071e-07
6.37201e-07
6.37139e-07
6.3256e-07
6.2419e-07
6.13526e-07
6.01825e-07
5.90125e-07
5.79168e-07
5.69413e-07
5.61157e-07
5.54551e-07
5.49659e-07
5.46399e-07
5.44542e-07
5.43835e-07
5.44057e-07
5.45051e-07
5.46505e-07
5.48118e-07
5.49558e-07
5.5045e-07
5.50346e-07
5.48937e-07
5.45865e-07
5.41215e-07
5.3428e-07
1.37776e-08
2.68685e-08
6.99919e-08
1.65424e-07
2.86257e-07
3.7056e-07
4.15489e-07
4.35744e-07
4.43655e-07
4.45065e-07
4.42443e-07
4.37227e-07
4.31102e-07
4.2484e-07
4.18876e-07
4.1347e-07
4.08706e-07
4.04482e-07
4.00613e-07
3.96847e-07
3.92929e-07
3.88668e-07
3.84057e-07
3.79218e-07
3.74405e-07
3.69921e-07
3.66028e-07
3.6288e-07
3.60541e-07
3.58996e-07
3.58191e-07
3.58036e-07
3.58487e-07
3.59248e-07
3.6046e-07
3.62101e-07
3.6414e-07
3.66521e-07
3.69164e-07
3.71969e-07
3.74833e-07
3.77677e-07
3.80462e-07
3.832e-07
3.85956e-07
3.88832e-07
3.91944e-07
3.95437e-07
3.99446e-07
4.04052e-07
4.09299e-07
4.15176e-07
4.21606e-07
4.28432e-07
4.35401e-07
4.42158e-07
4.48281e-07
4.5327e-07
4.56651e-07
4.58083e-07
4.56909e-07
4.52558e-07
4.45176e-07
4.35329e-07
4.23832e-07
4.11672e-07
3.99818e-07
3.89004e-07
3.79763e-07
3.72505e-07
3.67145e-07
3.63407e-07
3.60969e-07
3.59517e-07
3.58786e-07
3.5856e-07
3.587e-07
3.59064e-07
3.5952e-07
3.60004e-07
3.60502e-07
3.61036e-07
3.61656e-07
3.62428e-07
3.63439e-07
3.64786e-07
3.66575e-07
3.68931e-07
3.71949e-07
3.75671e-07
3.80049e-07
3.84983e-07
3.90131e-07
3.94944e-07
3.9887e-07
4.01462e-07
4.02549e-07
4.02226e-07
4.00272e-07
3.97159e-07
3.93514e-07
3.89781e-07
3.86211e-07
3.82862e-07
3.79683e-07
3.76584e-07
3.73477e-07
3.70295e-07
3.6708e-07
3.63958e-07
3.61066e-07
3.58537e-07
3.5648e-07
3.54922e-07
3.53844e-07
3.532e-07
3.52928e-07
3.5301e-07
3.5338e-07
3.539e-07
3.54605e-07
3.55481e-07
3.56533e-07
3.57775e-07
3.59232e-07
3.60927e-07
3.62896e-07
3.65192e-07
3.67871e-07
3.70982e-07
3.74574e-07
3.78678e-07
3.83171e-07
3.87892e-07
3.92592e-07
3.96924e-07
4.00511e-07
4.03014e-07
4.04308e-07
4.0425e-07
4.02735e-07
4.00028e-07
3.96623e-07
3.9293e-07
3.89284e-07
3.85889e-07
3.82895e-07
3.80403e-07
3.78453e-07
3.77023e-07
3.7605e-07
3.75481e-07
3.75268e-07
3.75345e-07
3.75658e-07
3.76123e-07
3.76656e-07
3.77171e-07
3.775e-07
3.77434e-07
3.76947e-07
3.76005e-07
3.74696e-07
3.72466e-07
1.07539e-08
2.08433e-08
5.43159e-08
1.29645e-07
2.29505e-07
3.00161e-07
3.37564e-07
3.5391e-07
3.59906e-07
3.61472e-07
3.60819e-07
3.58707e-07
3.56095e-07
3.53558e-07
3.51231e-07
3.49129e-07
3.47269e-07
3.45635e-07
3.44129e-07
3.42662e-07
3.41143e-07
3.39521e-07
3.37849e-07
3.36226e-07
3.34779e-07
3.3363e-07
3.32864e-07
3.32483e-07
3.32415e-07
3.32586e-07
3.32873e-07
3.3316e-07
3.33381e-07
3.33485e-07
3.33661e-07
3.33938e-07
3.34327e-07
3.34836e-07
3.3546e-07
3.36186e-07
3.36992e-07
3.37852e-07
3.38747e-07
3.39666e-07
3.40622e-07
3.41638e-07
3.42749e-07
3.44023e-07
3.45517e-07
3.47258e-07
3.4926e-07
3.51521e-07
3.54012e-07
3.56671e-07
3.59394e-07
3.62034e-07
3.64407e-07
3.66297e-07
3.67508e-07
3.67962e-07
3.67375e-07
3.65508e-07
3.62476e-07
3.58549e-07
3.54108e-07
3.49592e-07
3.45378e-07
3.41728e-07
3.38819e-07
3.36874e-07
3.35769e-07
3.3528e-07
3.35182e-07
3.3529e-07
3.35466e-07
3.3563e-07
3.35755e-07
3.3584e-07
3.35912e-07
3.35994e-07
3.36097e-07
3.36238e-07
3.36426e-07
3.36669e-07
3.36973e-07
3.37351e-07
3.37825e-07
3.38429e-07
3.39205e-07
3.40192e-07
3.41403e-07
3.42871e-07
3.44506e-07
3.46092e-07
3.47371e-07
3.4813e-07
3.48315e-07
3.48007e-07
3.47149e-07
3.45938e-07
3.44589e-07
3.43259e-07
3.42013e-07
3.40882e-07
3.39822e-07
3.38807e-07
3.37797e-07
3.36793e-07
3.35826e-07
3.34982e-07
3.34321e-07
3.33873e-07
3.33664e-07
3.33674e-07
3.33826e-07
3.34043e-07
3.34258e-07
3.34456e-07
3.34588e-07
3.3466e-07
3.34751e-07
3.34863e-07
3.35006e-07
3.35194e-07
3.35443e-07
3.35758e-07
3.36157e-07
3.3667e-07
3.37331e-07
3.38159e-07
3.39187e-07
3.40468e-07
3.41957e-07
3.43584e-07
3.4524e-07
3.46763e-07
3.47988e-07
3.48763e-07
3.49073e-07
3.48891e-07
3.48182e-07
3.47074e-07
3.45748e-07
3.44351e-07
3.42997e-07
3.41761e-07
3.40693e-07
3.39839e-07
3.39194e-07
3.3871e-07
3.38362e-07
3.38141e-07
3.38038e-07
3.38042e-07
3.38128e-07
3.38268e-07
3.38448e-07
3.3864e-07
3.38696e-07
3.38607e-07
3.38418e-07
3.38095e-07
3.37806e-07
3.36879e-07
9.78269e-09
1.87245e-08
4.8282e-08
1.15465e-07
2.08402e-07
2.76345e-07
3.12831e-07
3.28793e-07
3.34758e-07
3.36495e-07
3.36623e-07
3.35851e-07
3.34683e-07
3.33368e-07
3.32172e-07
3.31222e-07
3.30329e-07
3.29557e-07
3.28798e-07
3.28035e-07
3.2724e-07
3.26403e-07
3.25577e-07
3.24865e-07
3.24356e-07
3.24137e-07
3.2426e-07
3.24679e-07
3.25303e-07
3.25984e-07
3.26605e-07
3.27071e-07
3.2731e-07
3.27293e-07
3.27195e-07
3.27103e-07
3.27035e-07
3.2702e-07
3.27068e-07
3.27185e-07
3.27381e-07
3.27655e-07
3.28002e-07
3.28402e-07
3.28847e-07
3.29334e-07
3.29873e-07
3.30511e-07
3.31269e-07
3.32146e-07
3.33139e-07
3.34248e-07
3.35471e-07
3.36779e-07
3.38116e-07
3.394e-07
3.40514e-07
3.41311e-07
3.41699e-07
3.41722e-07
3.41265e-07
3.40266e-07
3.38785e-07
3.36943e-07
3.34931e-07
3.32976e-07
3.31242e-07
3.29835e-07
3.28838e-07
3.28444e-07
3.28555e-07
3.2899e-07
3.29555e-07
3.30103e-07
3.30536e-07
3.30816e-07
3.30948e-07
3.30973e-07
3.30954e-07
3.30951e-07
3.30981e-07
3.3106e-07
3.31191e-07
3.31354e-07
3.31538e-07
3.31735e-07
3.3194e-07
3.3214e-07
3.3236e-07
3.32621e-07
3.32944e-07
3.33382e-07
3.33908e-07
3.34421e-07
3.34764e-07
3.34834e-07
3.3468e-07
3.34324e-07
3.33777e-07
3.33125e-07
3.32451e-07
3.31809e-07
3.31215e-07
3.30676e-07
3.30169e-07
3.29685e-07
3.29212e-07
3.28747e-07
3.28318e-07
3.28005e-07
3.2785e-07
3.27882e-07
3.28109e-07
3.285e-07
3.28958e-07
3.294e-07
3.29759e-07
3.30024e-07
3.30141e-07
3.30131e-07
3.30079e-07
3.30018e-07
3.29959e-07
3.29911e-07
3.2988e-07
3.29867e-07
3.29879e-07
3.29941e-07
3.3007e-07
3.30272e-07
3.30576e-07
3.31032e-07
3.31616e-07
3.3228e-07
3.32952e-07
3.33529e-07
3.33927e-07
3.34088e-07
3.34064e-07
3.33819e-07
3.33351e-07
3.32736e-07
3.32055e-07
3.31378e-07
3.30744e-07
3.30185e-07
3.29736e-07
3.29365e-07
3.29104e-07
3.28883e-07
3.28719e-07
3.2859e-07
3.28531e-07
3.28472e-07
3.28466e-07
3.28441e-07
3.28459e-07
3.28434e-07
3.28363e-07
3.28256e-07
3.28184e-07
3.28031e-07
3.27994e-07
3.27495e-07
9.2872e-09
1.74948e-08
4.44619e-08
1.06378e-07
1.96132e-07
2.64979e-07
3.02816e-07
3.19609e-07
3.25872e-07
3.27718e-07
3.28031e-07
3.27608e-07
3.26935e-07
3.26141e-07
3.25528e-07
3.24972e-07
3.24416e-07
3.23911e-07
3.23382e-07
3.22836e-07
3.22247e-07
3.2162e-07
3.20991e-07
3.20474e-07
3.20175e-07
3.20168e-07
3.20488e-07
3.21105e-07
3.21923e-07
3.22792e-07
3.23589e-07
3.24203e-07
3.24558e-07
3.24612e-07
3.24492e-07
3.24353e-07
3.24212e-07
3.24102e-07
3.24041e-07
3.24034e-07
3.24089e-07
3.2422e-07
3.24427e-07
3.24701e-07
3.25029e-07
3.25401e-07
3.25821e-07
3.26336e-07
3.26949e-07
3.27638e-07
3.28373e-07
3.29132e-07
3.29901e-07
3.30674e-07
3.3143e-07
3.32122e-07
3.32707e-07
3.33104e-07
3.33289e-07
3.33268e-07
3.32939e-07
3.32285e-07
3.31348e-07
3.30212e-07
3.29002e-07
3.27855e-07
3.26865e-07
3.26091e-07
3.25602e-07
3.2562e-07
3.26072e-07
3.26794e-07
3.27601e-07
3.28331e-07
3.28879e-07
3.29217e-07
3.29363e-07
3.29374e-07
3.29326e-07
3.293e-07
3.29319e-07
3.29402e-07
3.29547e-07
3.29741e-07
3.29958e-07
3.30174e-07
3.30394e-07
3.30569e-07
3.30721e-07
3.30859e-07
3.31e-07
3.31176e-07
3.31364e-07
3.31479e-07
3.31457e-07
3.31288e-07
3.30985e-07
3.30568e-07
3.30067e-07
3.29531e-07
3.29016e-07
3.28533e-07
3.28084e-07
3.27663e-07
3.27261e-07
3.26869e-07
3.26475e-07
3.26076e-07
3.25696e-07
3.25416e-07
3.25293e-07
3.25389e-07
3.25713e-07
3.26183e-07
3.26736e-07
3.27267e-07
3.27709e-07
3.28039e-07
3.28195e-07
3.28201e-07
3.28124e-07
3.28037e-07
3.27951e-07
3.27875e-07
3.27809e-07
3.27755e-07
3.27715e-07
3.27702e-07
3.27725e-07
3.27786e-07
3.27903e-07
3.28123e-07
3.28429e-07
3.28784e-07
3.29134e-07
3.29397e-07
3.29504e-07
3.2945e-07
3.29294e-07
3.28999e-07
3.28593e-07
3.28114e-07
3.27596e-07
3.27109e-07
3.26672e-07
3.26284e-07
3.2599e-07
3.25711e-07
3.25535e-07
3.25373e-07
3.25241e-07
3.2512e-07
3.25057e-07
3.24935e-07
3.24851e-07
3.24767e-07
3.24706e-07
3.24591e-07
3.24522e-07
3.2444e-07
3.24379e-07
3.24246e-07
3.24263e-07
3.23803e-07
8.88492e-09
1.64235e-08
4.1003e-08
9.80647e-08
1.85028e-07
2.56011e-07
2.9648e-07
3.14633e-07
3.21454e-07
3.23779e-07
3.24228e-07
3.23913e-07
3.23366e-07
3.22767e-07
3.2239e-07
3.21974e-07
3.21599e-07
3.21178e-07
3.20636e-07
3.20009e-07
3.19353e-07
3.18658e-07
3.17909e-07
3.17176e-07
3.1664e-07
3.16437e-07
3.16624e-07
3.17182e-07
3.18023e-07
3.1901e-07
3.20004e-07
3.20876e-07
3.21513e-07
3.21851e-07
3.21891e-07
3.21898e-07
3.21893e-07
3.2188e-07
3.21874e-07
3.21856e-07
3.21852e-07
3.21902e-07
3.2203e-07
3.2224e-07
3.22529e-07
3.22885e-07
3.23318e-07
3.23887e-07
3.24572e-07
3.25333e-07
3.26125e-07
3.26907e-07
3.27665e-07
3.28385e-07
3.29032e-07
3.2957e-07
3.29918e-07
3.30054e-07
3.30051e-07
3.29917e-07
3.2962e-07
3.29116e-07
3.28397e-07
3.27494e-07
3.26496e-07
3.25497e-07
3.24588e-07
3.23837e-07
3.23348e-07
3.23427e-07
3.24007e-07
3.24899e-07
3.25899e-07
3.26834e-07
3.27588e-07
3.28097e-07
3.28345e-07
3.28392e-07
3.28319e-07
3.28224e-07
3.28143e-07
3.28081e-07
3.28288e-07
3.28635e-07
3.29038e-07
3.29433e-07
3.29852e-07
3.3013e-07
3.30269e-07
3.30347e-07
3.3039e-07
3.30394e-07
3.30354e-07
3.30254e-07
3.30064e-07
3.29746e-07
3.29328e-07
3.28843e-07
3.28319e-07
3.27783e-07
3.27262e-07
3.26772e-07
3.26312e-07
3.25874e-07
3.25443e-07
3.25007e-07
3.24556e-07
3.24098e-07
3.23655e-07
3.23333e-07
3.23196e-07
3.23269e-07
3.23534e-07
3.23987e-07
3.24547e-07
3.25111e-07
3.25606e-07
3.25994e-07
3.26209e-07
3.26268e-07
3.26204e-07
3.26135e-07
3.26076e-07
3.26034e-07
3.26009e-07
3.26002e-07
3.26014e-07
3.26048e-07
3.26113e-07
3.26207e-07
3.26335e-07
3.26534e-07
3.2678e-07
3.27029e-07
3.27222e-07
3.27289e-07
3.27231e-07
3.27081e-07
3.26841e-07
3.26486e-07
3.26037e-07
3.25529e-07
3.2501e-07
3.24541e-07
3.24128e-07
3.23761e-07
3.23457e-07
3.23192e-07
3.23049e-07
3.22923e-07
3.22824e-07
3.22712e-07
3.22642e-07
3.22501e-07
3.22361e-07
3.22234e-07
3.2213e-07
3.21944e-07
3.21824e-07
3.21718e-07
3.21579e-07
3.21377e-07
3.21325e-07
3.20682e-07
8.48721e-09
1.53492e-08
3.75006e-08
8.95083e-08
1.72895e-07
2.46222e-07
2.89915e-07
3.10297e-07
3.18307e-07
3.21079e-07
3.21574e-07
3.21198e-07
3.20584e-07
3.19982e-07
3.19623e-07
3.19164e-07
3.18794e-07
3.18353e-07
3.17726e-07
3.1702e-07
3.16222e-07
3.15306e-07
3.14291e-07
3.13217e-07
3.12313e-07
3.1179e-07
3.1172e-07
3.12065e-07
3.12732e-07
3.13592e-07
3.14512e-07
3.15377e-07
3.16075e-07
3.16568e-07
3.16803e-07
3.17073e-07
3.17383e-07
3.17726e-07
3.18098e-07
3.18491e-07
3.18882e-07
3.19253e-07
3.19617e-07
3.20011e-07
3.20464e-07
3.20976e-07
3.21558e-07
3.2225e-07
3.23036e-07
3.23873e-07
3.24736e-07
3.25544e-07
3.26294e-07
3.26996e-07
3.27606e-07
3.28107e-07
3.28429e-07
3.28601e-07
3.28616e-07
3.28465e-07
3.28125e-07
3.27554e-07
3.26731e-07
3.2572e-07
3.24609e-07
3.23456e-07
3.22369e-07
3.21447e-07
3.20837e-07
3.20897e-07
3.21539e-07
3.22533e-07
3.23664e-07
3.24737e-07
3.25611e-07
3.26221e-07
3.26561e-07
3.26686e-07
3.26667e-07
3.26598e-07
3.265e-07
3.26552e-07
3.2691e-07
3.27489e-07
3.28097e-07
3.28683e-07
3.29212e-07
3.29669e-07
3.30008e-07
3.30146e-07
3.30164e-07
3.30078e-07
3.29902e-07
3.29641e-07
3.29303e-07
3.28839e-07
3.28294e-07
3.27682e-07
3.27035e-07
3.26399e-07
3.25795e-07
3.25228e-07
3.24691e-07
3.24167e-07
3.2364e-07
3.23096e-07
3.22526e-07
3.21933e-07
3.21337e-07
3.20854e-07
3.20575e-07
3.20505e-07
3.20649e-07
3.21e-07
3.21503e-07
3.22053e-07
3.2258e-07
3.23033e-07
3.23329e-07
3.23472e-07
3.23477e-07
3.23464e-07
3.23469e-07
3.235e-07
3.23557e-07
3.23643e-07
3.23759e-07
3.23904e-07
3.2409e-07
3.24319e-07
3.24575e-07
3.24854e-07
3.25121e-07
3.25327e-07
3.25419e-07
3.25414e-07
3.25306e-07
3.25093e-07
3.24773e-07
3.24312e-07
3.23743e-07
3.23121e-07
3.22501e-07
3.21927e-07
3.21411e-07
3.20944e-07
3.20524e-07
3.20213e-07
3.20024e-07
3.19864e-07
3.19715e-07
3.19558e-07
3.1943e-07
3.19281e-07
3.19146e-07
3.19048e-07
3.18956e-07
3.18802e-07
3.18657e-07
3.18521e-07
3.18287e-07
3.17965e-07
3.1774e-07
3.16889e-07
8.07267e-09
1.42397e-08
3.38765e-08
8.04492e-08
1.59038e-07
2.34458e-07
2.81671e-07
3.04792e-07
3.14154e-07
3.17552e-07
3.18178e-07
3.17763e-07
3.17029e-07
3.16155e-07
3.15433e-07
3.14733e-07
3.14291e-07
3.13824e-07
3.13171e-07
3.12426e-07
3.11515e-07
3.10398e-07
3.091e-07
3.07651e-07
3.0624e-07
3.0516e-07
3.04514e-07
3.04254e-07
3.04317e-07
3.04618e-07
3.05058e-07
3.05594e-07
3.06196e-07
3.06894e-07
3.07571e-07
3.08351e-07
3.09239e-07
3.10122e-07
3.10971e-07
3.11779e-07
3.12529e-07
3.13186e-07
3.13778e-07
3.1438e-07
3.15087e-07
3.15975e-07
3.17079e-07
3.18433e-07
3.1993e-07
3.21425e-07
3.22832e-07
3.24027e-07
3.2496e-07
3.25622e-07
3.26128e-07
3.26531e-07
3.26843e-07
3.27054e-07
3.27103e-07
3.26948e-07
3.26554e-07
3.25906e-07
3.24987e-07
3.23802e-07
3.22423e-07
3.20986e-07
3.19609e-07
3.18415e-07
3.1756e-07
3.17423e-07
3.17906e-07
3.18761e-07
3.19786e-07
3.20793e-07
3.21639e-07
3.22225e-07
3.22552e-07
3.22664e-07
3.22656e-07
3.22623e-07
3.22607e-07
3.22854e-07
3.2351e-07
3.24564e-07
3.25846e-07
3.27102e-07
3.28151e-07
3.28909e-07
3.29457e-07
3.29747e-07
3.29815e-07
3.29706e-07
3.29438e-07
3.29045e-07
3.28552e-07
3.2791e-07
3.27195e-07
3.26419e-07
3.25593e-07
3.24798e-07
3.24058e-07
3.23369e-07
3.22708e-07
3.22044e-07
3.21368e-07
3.20664e-07
3.19917e-07
3.19116e-07
3.18277e-07
3.17499e-07
3.16892e-07
3.16501e-07
3.16336e-07
3.16374e-07
3.16628e-07
3.17099e-07
3.17631e-07
3.1816e-07
3.18573e-07
3.18868e-07
3.19053e-07
3.19191e-07
3.19357e-07
3.19549e-07
3.1977e-07
3.20028e-07
3.20332e-07
3.20674e-07
3.2106e-07
3.21489e-07
3.21933e-07
3.22363e-07
3.22733e-07
3.23008e-07
3.2316e-07
3.23166e-07
3.2303e-07
3.22754e-07
3.22328e-07
3.21718e-07
3.20983e-07
3.20179e-07
3.19364e-07
3.18583e-07
3.1785e-07
3.17172e-07
3.16545e-07
3.16076e-07
3.15732e-07
3.15444e-07
3.15177e-07
3.14939e-07
3.14744e-07
3.14581e-07
3.14465e-07
3.14407e-07
3.14361e-07
3.14262e-07
3.14113e-07
3.13952e-07
3.13663e-07
3.13241e-07
3.1284e-07
3.11764e-07
7.62442e-09
1.30748e-08
3.01101e-08
7.08317e-08
1.4306e-07
2.19939e-07
2.70962e-07
2.97254e-07
3.08136e-07
3.12154e-07
3.12803e-07
3.12143e-07
3.11011e-07
3.0974e-07
3.0859e-07
3.07653e-07
3.07038e-07
3.06472e-07
3.05781e-07
3.04993e-07
3.03972e-07
3.02597e-07
3.00846e-07
2.98715e-07
2.96307e-07
2.93967e-07
2.91771e-07
2.89808e-07
2.88086e-07
2.86603e-07
2.85463e-07
2.84903e-07
2.85117e-07
2.86357e-07
2.88324e-07
2.90646e-07
2.93198e-07
2.95655e-07
2.97848e-07
2.99683e-07
3.0118e-07
3.02323e-07
3.03188e-07
3.03943e-07
3.0479e-07
3.05892e-07
3.0742e-07
3.09449e-07
3.11857e-07
3.14469e-07
3.17e-07
3.19265e-07
3.21169e-07
3.22595e-07
3.23544e-07
3.24154e-07
3.24543e-07
3.24844e-07
3.25021e-07
3.24943e-07
3.24519e-07
3.23752e-07
3.22619e-07
3.21137e-07
3.19429e-07
3.17599e-07
3.15734e-07
3.13942e-07
3.12382e-07
3.11531e-07
3.11329e-07
3.11615e-07
3.12224e-07
3.1295e-07
3.13622e-07
3.14143e-07
3.14494e-07
3.14692e-07
3.14793e-07
3.14871e-07
3.14959e-07
3.15359e-07
3.16329e-07
3.17968e-07
3.20162e-07
3.22674e-07
3.25093e-07
3.27043e-07
3.28233e-07
3.28755e-07
3.28969e-07
3.28957e-07
3.28671e-07
3.28168e-07
3.27498e-07
3.26671e-07
3.25744e-07
3.24737e-07
3.23689e-07
3.22694e-07
3.21766e-07
3.20888e-07
3.20026e-07
3.19129e-07
3.18209e-07
3.17237e-07
3.16183e-07
3.15011e-07
3.1371e-07
3.12345e-07
3.11096e-07
3.10081e-07
3.09363e-07
3.08941e-07
3.08859e-07
3.09104e-07
3.0952e-07
3.09991e-07
3.10478e-07
3.10959e-07
3.11435e-07
3.11902e-07
3.1242e-07
3.12967e-07
3.13537e-07
3.14143e-07
3.14804e-07
3.15533e-07
3.1633e-07
3.17177e-07
3.18008e-07
3.18771e-07
3.19412e-07
3.19889e-07
3.20159e-07
3.20209e-07
3.20053e-07
3.1969e-07
3.1911e-07
3.183e-07
3.17322e-07
3.16218e-07
3.15063e-07
3.13903e-07
3.12773e-07
3.11697e-07
3.10703e-07
3.09907e-07
3.09261e-07
3.08726e-07
3.08286e-07
3.07944e-07
3.07702e-07
3.07548e-07
3.07502e-07
3.07561e-07
3.07655e-07
3.077e-07
3.07644e-07
3.07472e-07
3.07129e-07
3.06546e-07
3.05823e-07
3.04337e-07
7.12981e-09
1.18462e-08
2.62318e-08
6.07939e-08
1.24976e-07
2.0203e-07
2.56873e-07
2.86712e-07
2.99402e-07
3.04044e-07
3.04626e-07
3.03573e-07
3.01774e-07
2.99758e-07
2.9778e-07
2.96155e-07
2.94821e-07
2.93763e-07
2.92887e-07
2.9205e-07
2.90884e-07
2.88986e-07
2.86259e-07
2.82649e-07
2.78053e-07
2.72784e-07
2.67136e-07
2.61291e-07
2.55388e-07
2.49807e-07
2.45117e-07
2.42039e-07
2.4132e-07
2.43779e-07
2.48681e-07
2.5481e-07
2.61329e-07
2.67428e-07
2.72686e-07
2.76942e-07
2.80166e-07
2.82475e-07
2.84099e-07
2.8539e-07
2.86743e-07
2.88473e-07
2.90884e-07
2.94054e-07
2.97808e-07
3.01865e-07
3.0587e-07
3.09582e-07
3.12851e-07
3.15525e-07
3.17555e-07
3.18929e-07
3.19844e-07
3.20613e-07
3.21223e-07
3.21445e-07
3.21127e-07
3.20278e-07
3.18937e-07
3.17145e-07
3.14929e-07
3.12378e-07
3.09507e-07
3.06392e-07
3.03227e-07
3.0061e-07
2.98587e-07
2.97228e-07
2.96402e-07
2.9598e-07
2.95838e-07
2.95985e-07
2.96379e-07
2.96981e-07
2.97627e-07
2.98138e-07
2.9853e-07
2.99233e-07
3.00704e-07
3.03139e-07
3.06497e-07
3.10733e-07
3.15498e-07
3.20181e-07
3.23978e-07
3.26143e-07
3.26957e-07
3.27232e-07
3.2716e-07
3.26698e-07
3.25909e-07
3.24889e-07
3.2368e-07
3.22361e-07
3.21004e-07
3.19717e-07
3.18489e-07
3.17266e-07
3.16011e-07
3.14672e-07
3.13281e-07
3.11802e-07
3.10174e-07
3.08315e-07
3.06173e-07
3.03799e-07
3.01429e-07
2.99269e-07
2.9744e-07
2.95971e-07
2.94886e-07
2.94324e-07
2.94228e-07
2.94451e-07
2.95004e-07
2.95989e-07
2.97273e-07
2.98677e-07
3.00112e-07
3.01505e-07
3.02844e-07
3.0415e-07
3.05483e-07
3.06918e-07
3.08489e-07
3.10148e-07
3.11763e-07
3.13214e-07
3.14407e-07
3.15288e-07
3.15824e-07
3.16006e-07
3.15843e-07
3.15357e-07
3.14553e-07
3.13447e-07
3.12084e-07
3.10497e-07
3.08762e-07
3.06944e-07
3.05122e-07
3.03344e-07
3.01712e-07
3.00315e-07
2.99131e-07
2.98169e-07
2.97451e-07
2.96958e-07
2.96664e-07
2.96567e-07
2.96707e-07
2.97052e-07
2.97471e-07
2.97851e-07
2.98046e-07
2.97922e-07
2.97445e-07
2.96506e-07
2.95126e-07
2.92785e-07
6.57637e-09
1.05509e-08
2.2307e-08
5.05954e-08
1.0537e-07
1.79868e-07
2.38e-07
2.71473e-07
2.86314e-07
2.91677e-07
2.9202e-07
2.89959e-07
2.86544e-07
2.82833e-07
2.79121e-07
2.7566e-07
2.72138e-07
2.69515e-07
2.68239e-07
2.67569e-07
2.66295e-07
2.63266e-07
2.58534e-07
2.52053e-07
2.43265e-07
2.32245e-07
2.19952e-07
2.06891e-07
1.93452e-07
1.8081e-07
1.70399e-07
1.63703e-07
1.61718e-07
1.66289e-07
1.76344e-07
1.89579e-07
2.03777e-07
2.17012e-07
2.28245e-07
2.37127e-07
2.43696e-07
2.48259e-07
2.51345e-07
2.53662e-07
2.55952e-07
2.58773e-07
2.62639e-07
2.67733e-07
2.73909e-07
2.80738e-07
2.87552e-07
2.93795e-07
2.99144e-07
3.03476e-07
3.06815e-07
3.09281e-07
3.11148e-07
3.12854e-07
3.14384e-07
3.15284e-07
3.1532e-07
3.14538e-07
3.13001e-07
3.10634e-07
3.07451e-07
3.03384e-07
2.984e-07
2.92448e-07
2.85639e-07
2.78655e-07
2.71847e-07
2.65647e-07
2.60249e-07
2.5563e-07
2.52293e-07
2.50889e-07
2.51841e-07
2.54301e-07
2.56736e-07
2.58491e-07
2.59073e-07
2.59709e-07
2.61296e-07
2.64585e-07
2.70202e-07
2.79138e-07
2.90423e-07
3.01732e-07
3.11182e-07
3.18032e-07
3.21897e-07
3.23553e-07
3.24047e-07
3.23906e-07
3.23205e-07
3.22064e-07
3.2053e-07
3.18768e-07
3.1691e-07
3.15087e-07
3.13254e-07
3.11297e-07
3.09125e-07
3.06786e-07
3.04418e-07
3.01953e-07
2.99199e-07
2.95979e-07
2.92123e-07
2.87609e-07
2.82729e-07
2.77842e-07
2.73248e-07
2.69131e-07
2.65633e-07
2.63e-07
2.61337e-07
2.60668e-07
2.6128e-07
2.63606e-07
2.67232e-07
2.71472e-07
2.75775e-07
2.79799e-07
2.83406e-07
2.86654e-07
2.89692e-07
2.92693e-07
2.95775e-07
2.98897e-07
3.01845e-07
3.04441e-07
3.06558e-07
3.08128e-07
3.09133e-07
3.09592e-07
3.09473e-07
3.08836e-07
3.07718e-07
3.06177e-07
3.04224e-07
3.01863e-07
2.9916e-07
2.9623e-07
2.93229e-07
2.90256e-07
2.87491e-07
2.84983e-07
2.82801e-07
2.81057e-07
2.79797e-07
2.78972e-07
2.78542e-07
2.78537e-07
2.79008e-07
2.79869e-07
2.80912e-07
2.81911e-07
2.82579e-07
2.82636e-07
2.81896e-07
2.8031e-07
2.77781e-07
2.73925e-07
5.9466e-09
9.17713e-09
1.84052e-08
4.05526e-08
8.51596e-08
1.5273e-07
2.11927e-07
2.48121e-07
2.6532e-07
2.71252e-07
2.70779e-07
2.65739e-07
2.58105e-07
2.50591e-07
2.43503e-07
2.36129e-07
2.27397e-07
2.21693e-07
2.20422e-07
2.20975e-07
2.20049e-07
2.14818e-07
2.06969e-07
1.9625e-07
1.80856e-07
1.60897e-07
1.39963e-07
1.19001e-07
9.86758e-08
8.09258e-08
6.76203e-08
5.99163e-08
5.8283e-08
6.34573e-08
7.5127e-08
9.29944e-08
1.14889e-07
1.37188e-07
1.5713e-07
1.73362e-07
1.85536e-07
1.94068e-07
1.99837e-07
2.0406e-07
2.07935e-07
2.12332e-07
2.18073e-07
2.25729e-07
2.35415e-07
2.46597e-07
2.58116e-07
2.68748e-07
2.77678e-07
2.84656e-07
2.89788e-07
2.93526e-07
2.96481e-07
2.99302e-07
3.02237e-07
3.04396e-07
3.05187e-07
3.04553e-07
3.02563e-07
2.99091e-07
2.93902e-07
2.86604e-07
2.76998e-07
2.64582e-07
2.48898e-07
2.3061e-07
2.1131e-07
1.9297e-07
1.76387e-07
1.61958e-07
1.516e-07
1.47279e-07
1.51755e-07
1.59434e-07
1.66104e-07
1.70493e-07
1.70428e-07
1.6919e-07
1.68492e-07
1.7032e-07
1.77231e-07
1.94636e-07
2.21978e-07
2.53299e-07
2.79513e-07
2.98293e-07
3.09601e-07
3.15817e-07
3.18359e-07
3.18875e-07
3.1833e-07
3.17016e-07
3.15023e-07
3.12539e-07
3.09724e-07
3.06714e-07
3.03459e-07
2.99704e-07
2.95033e-07
2.90111e-07
2.85724e-07
2.81398e-07
2.76412e-07
2.70301e-07
2.62558e-07
2.52927e-07
2.41794e-07
2.30173e-07
2.18922e-07
2.08516e-07
1.99096e-07
1.91133e-07
1.85276e-07
1.82027e-07
1.82465e-07
1.87783e-07
1.96995e-07
2.08504e-07
2.20747e-07
2.32479e-07
2.42988e-07
2.52145e-07
2.60169e-07
2.67469e-07
2.74394e-07
2.8086e-07
2.86555e-07
2.91282e-07
2.94936e-07
2.97523e-07
2.99113e-07
2.99826e-07
2.99656e-07
2.98732e-07
2.97173e-07
2.95005e-07
2.92141e-07
2.88519e-07
2.84161e-07
2.79272e-07
2.7414e-07
2.68962e-07
2.63973e-07
2.59278e-07
2.55145e-07
2.51864e-07
2.49506e-07
2.47983e-07
2.47217e-07
2.47279e-07
2.48228e-07
2.499e-07
2.51969e-07
2.54003e-07
2.55487e-07
2.5589e-07
2.54764e-07
2.51998e-07
2.47392e-07
2.40677e-07
5.47354e-09
8.20288e-09
1.58343e-08
3.41241e-08
7.20813e-08
1.33648e-07
1.92688e-07
2.30299e-07
2.49001e-07
2.55227e-07
2.54059e-07
2.46537e-07
2.35585e-07
2.25273e-07
2.15825e-07
2.05756e-07
1.93591e-07
1.86059e-07
1.84861e-07
1.86248e-07
1.85636e-07
1.79206e-07
1.69752e-07
1.56854e-07
1.38199e-07
1.14387e-07
8.98043e-08
6.51859e-08
4.13456e-08
2.16144e-08
9.95253e-09
6.55415e-09
8.94464e-09
1.22612e-08
1.84014e-08
2.78022e-08
4.28881e-08
6.37819e-08
8.72912e-08
1.0876e-07
1.25361e-07
1.37496e-07
1.46046e-07
1.52429e-07
1.5805e-07
1.63936e-07
1.71259e-07
1.81128e-07
1.94099e-07
2.09748e-07
2.26529e-07
2.4239e-07
2.55815e-07
2.66262e-07
2.73915e-07
2.79425e-07
2.838e-07
2.87858e-07
2.92044e-07
2.95296e-07
2.96743e-07
2.96239e-07
2.93879e-07
2.89514e-07
2.82617e-07
2.7262e-07
2.59178e-07
2.4146e-07
2.186e-07
1.91014e-07
1.60146e-07
1.27848e-07
9.57217e-08
6.82363e-08
5.13151e-08
4.54086e-08
5.08755e-08
5.91742e-08
6.67479e-08
7.16959e-08
7.09991e-08
6.86793e-08
6.64242e-08
6.63578e-08
7.09046e-08
8.77571e-08
1.21692e-07
1.73202e-07
2.23219e-07
2.64555e-07
2.90708e-07
3.04818e-07
3.11661e-07
3.1397e-07
3.13988e-07
3.12711e-07
3.10381e-07
3.07278e-07
3.03622e-07
2.99522e-07
2.94958e-07
2.89542e-07
2.82541e-07
2.75282e-07
2.69216e-07
2.63414e-07
2.56635e-07
2.48159e-07
2.37177e-07
2.23202e-07
2.065e-07
1.88086e-07
1.68627e-07
1.47997e-07
1.26145e-07
1.05107e-07
8.85957e-08
7.99475e-08
7.97918e-08
8.59055e-08
9.78257e-08
1.14844e-07
1.35674e-07
1.57979e-07
1.79265e-07
1.98709e-07
2.15936e-07
2.3147e-07
2.45582e-07
2.58161e-07
2.68766e-07
2.77208e-07
2.83505e-07
2.87854e-07
2.90509e-07
2.91766e-07
2.91763e-07
2.90685e-07
2.88794e-07
2.86131e-07
2.8254e-07
2.77899e-07
2.72195e-07
2.65696e-07
2.58778e-07
2.51749e-07
2.44884e-07
2.38349e-07
2.32581e-07
2.28008e-07
2.24726e-07
2.22611e-07
2.21557e-07
2.2165e-07
2.22949e-07