/*--------------------------------*- C++ -*----------------------------------*\
| =========                 |                                                 |
| \\      /  F ield         | OpenFOAM: The Open Source CFD Toolbox           |
|  \\    /   O peration     | Version:  v1912                                 |
|   \\  /    A nd           | Website:  www.openfoam.com                      |
|    \\/     M anipulation  |                                                 |
\*---------------------------------------------------------------------------*/
FoamFile
{
    version     2.0;
    format      ascii;
    class       surfaceScalarField;
    location    "20";
    object      alphaPhi0.water;
}
// * * * * * * * * * * * * * * * * * * * * * * * * * * * * * * * * * * * * * //

dimensions      [0 3 -1 0 0 0 0];
oriented        oriented;


internalField   nonuniform List<scalar> 
28285
(
3.00189e-05
-7.47644e-07
3.06188e-05
-5.9998e-07
3.10861e-05
-4.67312e-07
3.144e-05
-3.53825e-07
3.17039e-05
-2.63907e-07
3.19072e-05
-2.03295e-07
3.20866e-05
-1.79401e-07
3.22881e-05
-2.01575e-07
3.25699e-05
-2.81722e-07
3.30024e-05
-4.32512e-07
3.36668e-05
-6.64436e-07
3.46451e-05
-9.78311e-07
3.5994e-05
-1.34891e-06
3.76945e-05
-1.70043e-06
3.95999e-05
-1.90541e-06
4.14589e-05
-1.85903e-06
4.31827e-05
-1.72383e-06
4.49403e-05
-1.7576e-06
4.68329e-05
-1.89252e-06
4.86861e-05
-1.85328e-06
5.03828e-05
-1.69662e-06
5.18835e-05
-1.5007e-06
5.31615e-05
-1.27805e-06
5.41573e-05
-9.9579e-07
5.48031e-05
-6.45776e-07
5.50522e-05
-2.49075e-07
5.48896e-05
1.6255e-07
5.43214e-05
5.68225e-07
5.34137e-05
9.07696e-07
5.22904e-05
1.12327e-06
5.12118e-05
1.0786e-06
5.05156e-05
6.96183e-07
5.07055e-05
-1.89848e-07
5.2315e-05
-1.60955e-06
5.59072e-05
-3.5922e-06
6.23706e-05
-6.46343e-06
7.24136e-05
-1.0043e-05
8.78296e-05
-1.5416e-05
0.000108731
-2.09012e-05
0.00013395
-2.52194e-05
0.000153703
-1.97532e-05
0.000150478
3.22535e-06
0.000126875
2.36026e-05
1.99334e-05
0.000106942
2.99993e-05
-1.49529e-06
3.05993e-05
-1.19996e-06
3.10666e-05
-9.34627e-07
3.14205e-05
-7.0766e-07
3.16844e-05
-5.27829e-07
3.18877e-05
-4.06605e-07
3.20671e-05
-3.58811e-07
3.22687e-05
-4.03155e-07
3.25504e-05
-5.63443e-07
3.29829e-05
-8.6502e-07
3.36474e-05
-1.32887e-06
3.46257e-05
-1.95662e-06
3.59746e-05
-2.69782e-06
3.7675e-05
-3.40086e-06
3.95804e-05
-3.81076e-06
4.14394e-05
-3.71805e-06
4.31632e-05
-3.44767e-06
4.49209e-05
-3.5153e-06
4.68134e-05
-3.78498e-06
4.86666e-05
-3.70652e-06
5.03632e-05
-3.39324e-06
5.1864e-05
-3.00142e-06
5.3142e-05
-2.55611e-06
5.41378e-05
-1.99159e-06
5.47836e-05
-1.29156e-06
5.50327e-05
-4.98169e-07
5.48701e-05
3.25113e-07
5.43019e-05
1.13645e-06
5.33942e-05
1.8154e-06
5.22709e-05
2.24652e-06
5.11923e-05
2.15722e-06
5.04962e-05
1.39235e-06
5.0686e-05
-3.79638e-07
5.22955e-05
-3.21906e-06
5.58877e-05
-7.18444e-06
6.23509e-05
-1.29266e-05
7.23945e-05
-2.00865e-05
8.78102e-05
-3.08317e-05
0.000108714
-4.18046e-05
0.000133934
-5.04402e-05
0.000153683
-3.95013e-05
0.000150489
6.4189e-06
0.000127079
4.70128e-05
4.01411e-05
0.000106871
2.99851e-05
-2.24294e-06
3.05851e-05
-1.79994e-06
3.10524e-05
-1.40194e-06
3.14063e-05
-1.0615e-06
3.16702e-05
-7.91753e-07
3.18735e-05
-6.09916e-07
3.20529e-05
-5.38224e-07
3.22545e-05
-6.04733e-07
3.25362e-05
-8.45158e-07
3.29687e-05
-1.29752e-06
3.36331e-05
-1.99329e-06
3.46114e-05
-2.93493e-06
3.59604e-05
-4.04675e-06
3.76608e-05
-5.10134e-06
3.95662e-05
-5.71613e-06
4.14252e-05
-5.57708e-06
4.31491e-05
-5.17152e-06
4.49068e-05
-5.27307e-06
4.67993e-05
-5.67742e-06
4.86525e-05
-5.55975e-06
5.03492e-05
-5.08989e-06
5.18499e-05
-4.50216e-06
5.3128e-05
-3.83419e-06
5.41238e-05
-2.98742e-06
5.47696e-05
-1.93736e-06
5.50187e-05
-7.47254e-07
5.48562e-05
4.87646e-07
5.42879e-05
1.70468e-06
5.33802e-05
2.72314e-06
5.22569e-05
3.3698e-06
5.11783e-05
3.23586e-06
5.04822e-05
2.08846e-06
5.0672e-05
-5.69484e-07
5.22817e-05
-4.82873e-06
5.58742e-05
-1.0777e-05
6.23376e-05
-1.939e-05
7.23821e-05
-3.0131e-05
8.77982e-05
-4.62479e-05
0.000108704
-6.27105e-05
0.000133928
-7.56638e-05
0.000153678
-5.92517e-05
0.000150486
9.61078e-06
0.000127081
7.04184e-05
6.03831e-05
0.000106839
2.99817e-05
-2.99058e-06
3.05817e-05
-2.39992e-06
3.1049e-05
-1.86925e-06
3.14029e-05
-1.41533e-06
3.16668e-05
-1.05567e-06
3.18701e-05
-8.13221e-07
3.20495e-05
-7.1762e-07
3.2251e-05
-8.06288e-07
3.25327e-05
-1.12685e-06
3.29652e-05
-1.72999e-06
3.36296e-05
-2.6577e-06
3.46079e-05
-3.91323e-06
3.59569e-05
-5.3957e-06
3.76574e-05
-6.80186e-06
3.95628e-05
-7.62156e-06
4.14219e-05
-7.43612e-06
4.31457e-05
-6.89533e-06
4.49035e-05
-7.03087e-06
4.67959e-05
-7.56989e-06
4.86492e-05
-7.413e-06
5.03458e-05
-6.78655e-06
5.18466e-05
-6.00292e-06
5.31247e-05
-5.11229e-06
5.41205e-05
-3.98327e-06
5.47664e-05
-2.58318e-06
5.50155e-05
-9.96379e-07
5.48529e-05
6.50216e-07
5.42847e-05
2.27294e-06
5.33769e-05
3.63091e-06
5.22536e-05
4.49314e-06
5.11748e-05
4.31459e-06
5.04786e-05
2.78471e-06
5.06683e-05
-7.59199e-07
5.22779e-05
-6.43831e-06
5.58703e-05
-1.43694e-05
6.23337e-05
-2.58534e-05
7.23779e-05
-4.01753e-05
8.77946e-05
-6.16645e-05
0.000108701
-8.36174e-05
0.00013393
-0.000100892
0.000153677
-7.89991e-05
0.000150508
1.27798e-05
0.000127216
9.37107e-05
8.08395e-05
0.000106759
2.99813e-05
-3.73822e-06
3.05813e-05
-2.99989e-06
3.10486e-05
-2.33655e-06
3.14024e-05
-1.76915e-06
3.16663e-05
-1.31958e-06
3.18696e-05
-1.01651e-06
3.20489e-05
-8.97002e-07
3.22505e-05
-1.00783e-06
3.25321e-05
-1.40851e-06
3.29646e-05
-2.16243e-06
3.3629e-05
-3.32206e-06
3.46072e-05
-4.89151e-06
3.59562e-05
-6.74467e-06
3.76568e-05
-8.50246e-06
3.95623e-05
-9.52708e-06
4.14214e-05
-9.29519e-06
4.31451e-05
-8.61905e-06
4.49029e-05
-8.7887e-06
4.67954e-05
-9.4624e-06
4.86487e-05
-9.2663e-06
5.03454e-05
-8.48323e-06
5.18462e-05
-7.50369e-06
5.31243e-05
-6.39041e-06
5.41202e-05
-4.97915e-06
5.4766e-05
-3.22902e-06
5.50151e-05
-1.24547e-06
5.48526e-05
8.12752e-07
5.42843e-05
2.84122e-06
5.33765e-05
4.53876e-06
5.2253e-05
5.61659e-06
5.11741e-05
5.39347e-06
5.04777e-05
3.4811e-06
5.06672e-05
-9.48678e-07
5.22766e-05
-8.04767e-06
5.58686e-05
-1.79614e-05
6.23317e-05
-3.23165e-05
7.23753e-05
-5.02189e-05
8.7792e-05
-7.70812e-05
0.000108701
-0.000104526
0.000133933
-0.000126125
0.000153685
-9.87505e-05
0.00015052
1.59443e-05
0.000127251
0.00011698
0.000101355
0.000106736
2.99813e-05
-4.48586e-06
3.05813e-05
-3.59985e-06
3.10486e-05
-2.80385e-06
3.14024e-05
-2.12296e-06
3.16662e-05
-1.58347e-06
3.18695e-05
-1.21977e-06
3.20489e-05
-1.07635e-06
3.22504e-05
-1.20932e-06
3.2532e-05
-1.69013e-06
3.29644e-05
-2.59483e-06
3.36287e-05
-3.98639e-06
3.4607e-05
-5.86976e-06
3.59559e-05
-8.09365e-06
3.76566e-05
-1.02031e-05
3.95623e-05
-1.14327e-05
4.14214e-05
-1.11543e-05
4.3145e-05
-1.03427e-05
4.49028e-05
-1.05465e-05
4.67954e-05
-1.1355e-05
4.86488e-05
-1.11197e-05
5.03455e-05
-1.01799e-05
5.18463e-05
-9.00449e-06
5.31244e-05
-7.66857e-06
5.41203e-05
-5.97505e-06
5.47662e-05
-3.87488e-06
5.50153e-05
-1.49461e-06
5.48527e-05
9.75346e-07
5.42844e-05
3.40955e-06
5.33765e-05
5.44667e-06
5.22529e-05
6.74016e-06
5.11738e-05
6.47255e-06
5.04771e-05
4.17781e-06
5.06663e-05
-1.13786e-06
5.22754e-05
-9.65673e-06
5.5867e-05
-2.1553e-05
6.23296e-05
-3.87791e-05
7.23727e-05
-6.0262e-05
8.77896e-05
-9.24981e-05
0.0001087
-0.000125436
0.000133938
-0.000151363
0.000153691
-0.000118503
0.000150544
1.90914e-05
0.000127366
0.000140157
0.000122044
0.000106677
2.99814e-05
-5.23349e-06
3.05813e-05
-4.1998e-06
3.10486e-05
-3.27112e-06
3.14024e-05
-2.47675e-06
3.16663e-05
-1.84733e-06
3.18695e-05
-1.42301e-06
3.20488e-05
-1.25568e-06
3.22503e-05
-1.41079e-06
3.25319e-05
-1.97171e-06
3.29642e-05
-3.02717e-06
3.36285e-05
-4.65066e-06
3.46067e-05
-6.84799e-06
3.59557e-05
-9.44265e-06
3.76565e-05
-1.19039e-05
3.95623e-05
-1.33385e-05
4.14214e-05
-1.30134e-05
4.31449e-05
-1.20662e-05
4.49028e-05
-1.23044e-05
4.67955e-05
-1.32477e-05
4.86489e-05
-1.29731e-05
5.03456e-05
-1.18767e-05
5.18464e-05
-1.05053e-05
5.31246e-05
-8.94676e-06
5.41206e-05
-6.971e-06
5.47665e-05
-4.52077e-06
5.50156e-05
-1.74371e-06
5.4853e-05
1.1379e-06
5.42847e-05
3.9779e-06
5.33766e-05
6.35471e-06
5.22529e-05
7.8639e-06
5.11736e-05
7.55186e-06
5.04766e-05
4.87474e-06
5.06655e-05
-1.32669e-06
5.22742e-05
-1.12654e-05
5.58652e-05
-2.5144e-05
6.23272e-05
-4.52411e-05
7.23695e-05
-7.03043e-05
8.77861e-05
-0.000107915
0.000108699
-0.000146349
0.000133944
-0.000176609
0.000153702
-0.00013826
0.000150561
2.22319e-05
0.000127418
0.000163301
0.000142818
0.000106643
2.99815e-05
-5.98111e-06
3.05814e-05
-4.79975e-06
3.10487e-05
-3.73839e-06
3.14025e-05
-2.83053e-06
3.16663e-05
-2.11118e-06
3.18695e-05
-1.62623e-06
3.20488e-05
-1.43496e-06
3.22502e-05
-1.61221e-06
3.25318e-05
-2.25323e-06
3.2964e-05
-3.45946e-06
3.36283e-05
-5.31488e-06
3.46065e-05
-7.82617e-06
3.59555e-05
-1.07917e-05
3.76564e-05
-1.36048e-05
3.95623e-05
-1.52444e-05
4.14214e-05
-1.48725e-05
4.31449e-05
-1.37897e-05
4.49027e-05
-1.40622e-05
4.67955e-05
-1.51404e-05
4.86489e-05
-1.48265e-05
5.03457e-05
-1.35735e-05
5.18466e-05
-1.20062e-05
5.31248e-05
-1.0225e-05
5.41208e-05
-7.967e-06
5.47667e-05
-5.16668e-06
5.50159e-05
-1.99288e-06
5.48533e-05
1.30051e-06
5.42848e-05
4.54633e-06
5.33767e-05
7.26282e-06
5.22528e-05
8.98783e-06
5.11732e-05
8.63143e-06
5.04759e-05
5.57209e-06
5.06643e-05
-1.51511e-06
5.22726e-05
-1.28737e-05
5.5863e-05
-2.87345e-05
6.23243e-05
-5.17023e-05
7.23659e-05
-8.03459e-05
8.77827e-05
-0.000123332
0.000108698
-0.000167264
0.000133951
-0.000201862
0.000153712
-0.000158022
0.000150585
2.53593e-05
0.000127517
0.000186369
0.00016374
0.000106596
2.99816e-05
-6.72872e-06
3.05816e-05
-5.39968e-06
3.10488e-05
-4.20564e-06
3.14026e-05
-3.18428e-06
3.16664e-05
-2.375e-06
3.18696e-05
-1.82941e-06
3.20488e-05
-1.61421e-06
3.22502e-05
-1.81359e-06
3.25317e-05
-2.5347e-06
3.29639e-05
-3.89167e-06
3.3628e-05
-5.97902e-06
3.46062e-05
-8.80432e-06
3.59552e-05
-1.21407e-05
3.76562e-05
-1.53058e-05
3.95624e-05
-1.71505e-05
4.14215e-05
-1.67317e-05
4.31448e-05
-1.55129e-05
4.49027e-05
-1.58201e-05
4.67955e-05
-1.70333e-05
4.86491e-05
-1.66801e-05
5.03459e-05
-1.52703e-05
5.18468e-05
-1.35071e-05
5.31251e-05
-1.15033e-05
5.41211e-05
-8.96305e-06
5.47671e-05
-5.81264e-06
5.50162e-05
-2.24201e-06
5.48536e-05
1.46309e-06
5.42852e-05
5.11478e-06
5.33769e-05
8.1711e-06
5.22528e-05
1.0112e-05
5.11729e-05
9.71132e-06
5.04752e-05
6.26974e-06
5.06632e-05
-1.70305e-06
5.2271e-05
-1.44816e-05
5.58607e-05
-3.23242e-05
6.2321e-05
-5.81627e-05
7.23616e-05
-9.03864e-05
8.77775e-05
-0.000138747
0.000108697
-0.000188183
0.000133959
-0.000227124
0.000153727
-0.00017779
0.000150607
2.84798e-05
0.000127577
0.000209398
0.000184769
0.000106548
2.99818e-05
-7.47632e-06
3.05817e-05
-5.99959e-06
3.10489e-05
-4.67287e-06
3.14026e-05
-3.53801e-06
3.16664e-05
-2.6388e-06
3.18696e-05
-2.03256e-06
3.20488e-05
-1.79341e-06
3.22501e-05
-2.01489e-06
3.25315e-05
-2.81609e-06
3.29636e-05
-4.32381e-06
3.36277e-05
-6.6431e-06
3.46058e-05
-9.78243e-06
3.59549e-05
-1.34898e-05
3.7656e-05
-1.7007e-05
3.95624e-05
-1.90569e-05
4.14216e-05
-1.85909e-05
4.31447e-05
-1.72361e-05
4.49026e-05
-1.7578e-05
4.67956e-05
-1.89262e-05
4.86492e-05
-1.85337e-05
5.03461e-05
-1.69672e-05
5.1847e-05
-1.5008e-05
5.31253e-05
-1.27816e-05
5.41214e-05
-9.95915e-06
5.47674e-05
-6.45863e-06
5.50166e-05
-2.4912e-06
5.4854e-05
1.62572e-06
5.42854e-05
5.68334e-06
5.33771e-05
9.07948e-06
5.22527e-05
1.12364e-05
5.11724e-05
1.07916e-05
5.04743e-05
6.96792e-06
5.06617e-05
-1.89047e-06
5.2269e-05
-1.60889e-05
5.58579e-05
-3.59131e-05
6.23174e-05
-6.46223e-05
7.2357e-05
-0.000100426
8.77733e-05
-0.000154164
0.000108696
-0.000209105
0.000133967
-0.000252396
0.000153742
-0.000197566
0.000150632
3.15902e-05
0.000127668
0.000232363
0.000205934
0.000106503
2.99819e-05
-8.22391e-06
3.05818e-05
-6.59949e-06
3.1049e-05
-5.14008e-06
3.14027e-05
-3.89172e-06
3.16665e-05
-2.90256e-06
3.18696e-05
-2.23566e-06
3.20488e-05
-1.97256e-06
3.225e-05
-2.21615e-06
3.25313e-05
-3.09741e-06
3.29634e-05
-4.75586e-06
3.36274e-05
-7.30709e-06
3.46054e-05
-1.07605e-05
3.59545e-05
-1.48389e-05
3.76559e-05
-1.87083e-05
3.95624e-05
-2.09634e-05
4.14217e-05
-2.04502e-05
4.31446e-05
-1.8959e-05
4.49025e-05
-1.93359e-05
4.67956e-05
-2.08194e-05
4.86494e-05
-2.03874e-05
5.03463e-05
-1.86641e-05
5.18473e-05
-1.6509e-05
5.31256e-05
-1.406e-05
5.41218e-05
-1.09553e-05
5.47679e-05
-7.10468e-06
5.5017e-05
-2.74037e-06
5.48544e-05
1.78832e-06
5.42858e-05
6.25193e-06
5.33773e-05
9.98806e-06
5.22526e-05
1.2361e-05
5.1172e-05
1.18722e-05
5.04734e-05
7.6665e-06
5.06602e-05
-2.07729e-06
5.22669e-05
-1.76956e-05
5.58549e-05
-3.9501e-05
6.23133e-05
-7.10807e-05
7.23516e-05
-0.000110464
8.77671e-05
-0.000169579
0.000108694
-0.000230032
0.000133977
-0.000277679
0.000153761
-0.00021735
0.000150657
3.46937e-05
0.000127734
0.000255286
0.00022723
0.000106439
2.99821e-05
-8.97148e-06
3.0582e-05
-7.19937e-06
3.10492e-05
-5.60727e-06
3.14028e-05
-4.2454e-06
3.16666e-05
-3.16629e-06
3.18696e-05
-2.43873e-06
3.20487e-05
-2.15165e-06
3.22499e-05
-2.41733e-06
3.25311e-05
-3.37865e-06
3.29631e-05
-5.18782e-06
3.3627e-05
-7.971e-06
3.4605e-05
-1.17385e-05
3.59541e-05
-1.61881e-05
3.76556e-05
-2.04098e-05
3.95624e-05
-2.28702e-05
4.14217e-05
-2.23095e-05
4.31445e-05
-2.06818e-05
4.49024e-05
-2.10938e-05
4.67957e-05
-2.27126e-05
4.86495e-05
-2.22412e-05
5.03465e-05
-2.03611e-05
5.18475e-05
-1.801e-05
5.3126e-05
-1.53384e-05
5.41222e-05
-1.19516e-05
5.47683e-05
-7.75077e-06
5.50175e-05
-2.98959e-06
5.48549e-05
1.95098e-06
5.42862e-05
6.82063e-06
5.33775e-05
1.08968e-05
5.22525e-05
1.3486e-05
5.11715e-05
1.29532e-05
5.04723e-05
8.36571e-06
5.06584e-05
-2.26347e-06
5.22645e-05
-1.93016e-05
5.58515e-05
-4.3088e-05
6.23088e-05
-7.7538e-05
7.2346e-05
-0.000120502
8.77618e-05
-0.000184995
0.000108693
-0.000250962
0.000133987
-0.000302974
0.00015378
-0.000237143
0.000150684
3.77899e-05
0.000127818
0.000278152
0.000248642
0.000106405
2.99823e-05
-9.71905e-06
3.05822e-05
-7.79923e-06
3.10493e-05
-6.07443e-06
3.1403e-05
-4.59904e-06
3.16666e-05
-3.42998e-06
3.18697e-05
-2.64174e-06
3.20487e-05
-2.3307e-06
3.22498e-05
-2.61844e-06
3.2531e-05
-3.65979e-06
3.29628e-05
-5.61967e-06
3.36266e-05
-8.63479e-06
3.46045e-05
-1.27164e-05
3.59537e-05
-1.75373e-05
3.76555e-05
-2.21115e-05
3.95625e-05
-2.47772e-05
4.14219e-05
-2.41688e-05
4.31444e-05
-2.24044e-05
4.49024e-05
-2.28518e-05
4.67958e-05
-2.4606e-05
4.86497e-05
-2.40951e-05
5.03468e-05
-2.20581e-05
5.18478e-05
-1.95111e-05
5.31263e-05
-1.66169e-05
5.41227e-05
-1.29479e-05
5.47688e-05
-8.39693e-06
5.50181e-05
-3.23881e-06
5.48554e-05
2.11361e-06
5.42867e-05
7.38938e-06
5.33777e-05
1.18057e-05
5.22524e-05
1.46113e-05
5.11709e-05
1.40347e-05
5.04712e-05
9.06542e-06
5.06567e-05
-2.44892e-06
5.2262e-05
-2.0907e-05
5.58479e-05
-4.66739e-05
6.23039e-05
-8.3994e-05
7.23396e-05
-0.000130537
8.77546e-05
-0.00020041
0.00010869
-0.000271898
0.000133999
-0.000328282
0.000153802
-0.000256946
0.000150713
4.08795e-05
0.000127885
0.00030098
0.000270181
0.000106347
2.99825e-05
-1.04666e-05
3.05823e-05
-8.39908e-06
3.10495e-05
-6.54156e-06
3.14031e-05
-4.95265e-06
3.16667e-05
-3.69362e-06
3.18697e-05
-2.84469e-06
3.20486e-05
-2.50965e-06
3.22496e-05
-2.81945e-06
3.25307e-05
-3.94083e-06
3.29624e-05
-6.05141e-06
3.36261e-05
-9.29849e-06
3.4604e-05
-1.36943e-05
3.59532e-05
-1.88865e-05
3.76551e-05
-2.38135e-05
3.95626e-05
-2.66847e-05
4.1422e-05
-2.60283e-05
4.31443e-05
-2.41267e-05
4.49022e-05
-2.46097e-05
4.67958e-05
-2.64996e-05
4.86499e-05
-2.59492e-05
5.03471e-05
-2.37553e-05
5.18482e-05
-2.10122e-05
5.31268e-05
-1.78955e-05
5.41232e-05
-1.39443e-05
5.47694e-05
-9.04313e-06
5.50187e-05
-3.48807e-06
5.4856e-05
2.2763e-06
5.42871e-05
7.95826e-06
5.3378e-05
1.27148e-05
5.22523e-05
1.5737e-05
5.11703e-05
1.51167e-05
5.04698e-05
9.76592e-06
5.06545e-05
-2.63361e-06
5.22591e-05
-2.25116e-05
5.58437e-05
-5.02585e-05
6.2299e-05
-9.04493e-05
7.23324e-05
-0.000140571
8.77495e-05
-0.000215827
0.000108687
-0.000292836
0.000134012
-0.000353607
0.000153827
-0.000276762
0.000150742
4.39645e-05
0.000127964
0.000323759
0.000291818
0.000106326
5.99659e-05
-1.19617e-05
6.11655e-05
-9.59868e-06
6.20997e-05
-7.47572e-06
6.28067e-05
-5.65972e-06
6.33338e-05
-4.22067e-06
6.37394e-05
-3.25034e-06
6.40971e-05
-2.86734e-06
6.44989e-05
-3.22122e-06
6.50607e-05
-4.50258e-06
6.59237e-05
-6.9145e-06
6.72507e-05
-1.06255e-05
6.92062e-05
-1.56498e-05
7.19049e-05
-2.15852e-05
7.53095e-05
-2.72181e-05
7.91256e-05
-3.05008e-05
8.28446e-05
-2.97473e-05
8.62884e-05
-2.75705e-05
8.9804e-05
-2.81252e-05
9.35922e-05
-3.02878e-05
9.73009e-05
-2.9658e-05
0.000100695
-2.71497e-05
0.000103698
-2.40147e-05
0.000106255
-2.0453e-05
0.000108248
-1.59375e-05
0.000109541
-1.03358e-05
0.00011004
-3.98662e-06
0.000109714
2.60165e-06
0.000108576
9.09625e-06
0.000106757
1.45339e-05
0.000104505
1.79897e-05
0.000102339
1.72825e-05
0.000100936
1.1169e-05
0.000101302
-3.0005e-06
0.000104509
-2.57185e-05
0.000111675
-5.74239e-05
0.000124581
-0.000103355
0.000144643
-0.000160632
0.000175474
-0.000246659
0.000217366
-0.000334728
0.000268063
-0.000404305
0.000307733
-0.000316431
0.000301578
5.01195e-05
0.000256115
0.000369222
0.000335461
0.000212471
5.99667e-05
-1.34566e-05
6.11663e-05
-1.07982e-05
6.21003e-05
-8.40976e-06
6.28072e-05
-6.36661e-06
6.33341e-05
-4.74756e-06
6.37395e-05
-3.65578e-06
6.40968e-05
-3.22463e-06
6.44981e-05
-3.62251e-06
6.50593e-05
-5.06383e-06
6.59219e-05
-7.77709e-06
6.72485e-05
-1.1952e-05
6.92037e-05
-1.7605e-05
7.19025e-05
-2.4284e-05
7.53081e-05
-3.06237e-05
7.91256e-05
-3.43183e-05
8.2845e-05
-3.34667e-05
8.62877e-05
-3.10132e-05
8.98033e-05
-3.16408e-05
9.35923e-05
-3.40769e-05
9.73017e-05
-3.33674e-05
0.000100697
-3.05445e-05
0.000103699
-2.70174e-05
0.000106257
-2.30108e-05
0.000108251
-1.7931e-05
0.000109543
-1.16287e-05
0.000110042
-4.48531e-06
0.000109717
2.92719e-06
0.000108578
1.02348e-05
0.000106758
1.63537e-05
0.000104504
2.0244e-05
0.000102336
1.94508e-05
0.000100929
1.25755e-05
0.000101292
-3.36364e-06
0.000104495
-2.89214e-05
0.000111655
-6.45835e-05
0.000124554
-0.000116255
0.000144609
-0.000180687
0.000175442
-0.000277491
0.000217359
-0.000376646
0.000268124
-0.00045507
0.000307856
-0.000356163
0.000301705
5.62702e-05
0.000256413
0.000414514
0.000379427
0.000212447
5.99681e-05
-1.49515e-05
6.11674e-05
-1.19976e-05
6.21013e-05
-9.34364e-06
6.2808e-05
-7.07333e-06
6.33347e-05
-5.27419e-06
6.37398e-05
-4.06088e-06
6.40968e-05
-3.58163e-06
6.44977e-05
-4.02343e-06
6.50584e-05
-5.62454e-06
6.59203e-05
-8.63902e-06
6.72462e-05
-1.32779e-05
6.9201e-05
-1.95599e-05
7.19001e-05
-2.69831e-05
7.5307e-05
-3.40305e-05
7.91262e-05
-3.81375e-05
8.28457e-05
-3.71862e-05
8.62872e-05
-3.44546e-05
8.9803e-05
-3.51566e-05
9.3593e-05
-3.78669e-05
9.7303e-05
-3.70773e-05
0.000100698
-3.39397e-05
0.000103701
-3.00204e-05
0.000106259
-2.5569e-05
0.000108253
-1.9925e-05
0.000109547
-1.2922e-05
0.000110046
-4.98413e-06
0.00010972
3.25272e-06
0.000108581
1.13737e-05
0.00010676
1.81749e-05
0.000104503
2.25004e-05
0.000102332
2.16219e-05
0.000100923
1.39853e-05
0.000101281
-3.72256e-06
0.00010448
-3.21203e-05
0.000111634
-7.17368e-05
0.000124525
-0.000129147
0.000144571
-0.000200733
0.000175399
-0.000308319
0.000217343
-0.000418589
0.000268185
-0.000505912
0.000307987
-0.000395964
0.000301858
6.23992e-05
0.000256666
0.000459706
0.000423856
0.000212237
5.99691e-05
-1.64463e-05
6.11684e-05
-1.31969e-05
6.21021e-05
-1.02774e-05
6.28086e-05
-7.77984e-06
6.33351e-05
-5.8006e-06
6.37399e-05
-4.46571e-06
6.40964e-05
-3.93815e-06
6.44967e-05
-4.42376e-06
6.50568e-05
-6.18464e-06
6.59181e-05
-9.50031e-06
6.72434e-05
-1.46032e-05
6.91979e-05
-2.15144e-05
7.18972e-05
-2.96824e-05
7.53052e-05
-3.74385e-05
7.91263e-05
-4.19585e-05
8.28462e-05
-4.09062e-05
8.62863e-05
-3.78947e-05
8.98022e-05
-3.86724e-05
9.35932e-05
-4.16579e-05
9.7304e-05
-4.07881e-05
0.0001007
-3.73353e-05
0.000103703
-3.30238e-05
0.000106262
-2.81277e-05
0.000108256
-2.19195e-05
0.00010955
-1.42156e-05
0.000110049
-5.48306e-06
0.000109723
3.57845e-06
0.000108583
1.25133e-05
0.000106761
1.99972e-05
0.000104503
2.47588e-05
0.000102329
2.3796e-05
0.000100915
1.53992e-05
0.000101269
-4.07671e-06
0.000104463
-3.53142e-05
0.000111609
-7.88827e-05
0.000124492
-0.00014203
0.000144528
-0.000220769
0.000175352
-0.000339143
0.000217325
-0.000460562
0.000268256
-0.000556842
0.000308143
-0.000435852
0.000302001
6.85408e-05
0.000256946
0.000504761
0.000468663
0.000212139
5.99707e-05
-1.79411e-05
6.11698e-05
-1.4396e-05
6.21033e-05
-1.12109e-05
6.28096e-05
-8.48613e-06
6.33357e-05
-6.32669e-06
6.37402e-05
-4.87014e-06
6.40963e-05
-4.29432e-06
6.44962e-05
-4.82362e-06
6.50556e-05
-6.74408e-06
6.59161e-05
-1.03608e-05
6.72406e-05
-1.59276e-05
6.91946e-05
-2.34684e-05
7.18943e-05
-3.23821e-05
7.53038e-05
-4.08481e-05
7.91269e-05
-4.57815e-05
8.28471e-05
-4.46265e-05
8.62856e-05
-4.13333e-05
8.98017e-05
-4.21885e-05
9.3594e-05
-4.54502e-05
9.73055e-05
-4.44997e-05
0.000100702
-4.07312e-05
0.000103705
-3.60276e-05
0.000106264
-3.06869e-05
0.00010826
-2.39147e-05
0.000109554
-1.55097e-05
0.000110053
-5.98222e-06
0.000109727
3.90423e-06
0.000108587
1.36535e-05
0.000106763
2.18211e-05
0.000104502
2.70198e-05
0.000102325
2.59736e-05
0.000100907
1.68172e-05
0.000101256
-4.42574e-06
0.000104445
-3.85032e-05
0.000111583
-8.60208e-05
0.000124457
-0.000154905
0.000144484
-0.000240795
0.000175283
-0.000369942
0.000217287
-0.000502566
0.000268312
-0.000607867
0.000308299
-0.000475839
0.000302179
7.46607e-05
0.000257204
0.000549736
0.000513925
0.000211942
5.9972e-05
-1.94357e-05
6.1171e-05
-1.5595e-05
6.21044e-05
-1.21443e-05
6.28104e-05
-9.19217e-06
6.33362e-05
-6.85252e-06
6.37403e-05
-5.27423e-06
6.40959e-05
-4.64991e-06
6.44951e-05
-5.2228e-06
6.50538e-05
-7.30278e-06
6.59135e-05
-1.12205e-05
6.72373e-05
-1.72514e-05
6.91908e-05
-2.54219e-05
7.18907e-05
-3.5082e-05
7.53017e-05
-4.42592e-05
7.9127e-05
-4.96068e-05
8.28478e-05
-4.83472e-05
8.62846e-05
-4.47701e-05
8.98008e-05
-4.57047e-05
9.35943e-05
-4.92437e-05
9.73069e-05
-4.82122e-05
0.000100703
-4.41278e-05
0.000103708
-3.90318e-05
0.000106267
-3.32466e-05
0.000108263
-2.59104e-05
0.000109557
-1.68041e-05
0.000110057
-6.48144e-06
0.000109731
4.23017e-06
0.00010859
1.47943e-05
0.000106765
2.36463e-05
0.000104501
2.92831e-05
0.00010232
2.81549e-05
0.000100897
1.82401e-05
0.00010124
-4.76899e-06
0.000104424
-4.16863e-05
0.000111553
-9.31499e-05
0.000124417
-0.000167769
0.00014444
-0.000260819
0.000175204
-0.000400706
0.000217213
-0.000544575
0.000268383
-0.000659037
0.000308487
-0.000515943
0.00030234
8.08079e-05
0.000257464
0.000594613
0.000559592
0.000211797
5.99739e-05
-2.09302e-05
6.11727e-05
-1.67937e-05
6.21058e-05
-1.30774e-05
6.28116e-05
-9.89794e-06
6.3337e-05
-7.37796e-06
6.37407e-05
-5.67785e-06
6.40958e-05
-5.00504e-06
6.44944e-05
-5.62138e-06
6.50523e-05
-7.86067e-06
6.5911e-05
-1.20793e-05
6.72338e-05
-1.85742e-05
6.91868e-05
-2.73749e-05
7.18871e-05
-3.77823e-05
7.53e-05
-4.7672e-05
7.91278e-05
-5.34346e-05
8.28489e-05
-5.20683e-05
8.62839e-05
-4.82051e-05
8.98e-05
-4.92209e-05
9.35952e-05
-5.3039e-05
9.73088e-05
-5.19258e-05
0.000100706
-4.75248e-05
0.00010371
-4.20365e-05
0.000106271
-3.58069e-05
0.000108267
-2.79069e-05
0.000109562
-1.80992e-05
0.000110062
-6.98097e-06
0.000109736
4.55633e-06
0.000108594
1.59359e-05
0.000106767
2.54733e-05
0.000104501
3.15494e-05
0.000102315
3.03402e-05
0.000100887
1.96683e-05
0.000101224
-5.10599e-06
0.000104401
-4.48635e-05
0.000111521
-0.000100269
0.000124375
-0.000180623
0.000144395
-0.000280838
0.000175135
-0.000431447
0.000217122
-0.000586561
0.00026842
-0.000710336
0.000308661
-0.000556183
0.00030255
8.69184e-05
0.000257736
0.000639427
0.000605692
0.000211635
0.000817556
-4.12825e-05
0.000833878
-3.31158e-05
0.000846573
-2.57728e-05
0.00085616
-1.94847e-05
0.00086329
-1.45076e-05
0.000868751
-1.11387e-05
0.000873526
-9.78045e-06
0.000878881
-1.09767e-05
0.000886402
-1.53812e-05
0.000898018
-2.36958e-05
0.000915965
-3.65213e-05
0.00094253
-5.39392e-05
0.00097936
-7.4613e-05
0.00102605
-9.4357e-05
0.00107847
-0.000105863
0.00112925
-0.000102841
0.00117587
-9.4832e-05
0.0012238
-9.71434e-05
0.00127567
-0.000104915
0.0013264
-0.000102651
0.00137276
-9.38894e-05
0.00141376
-8.30374e-05
0.00144872
-7.07644e-05
0.001476
-5.51821e-05
0.00149368
-3.57825e-05
0.00150048
-1.37821e-05
0.00149603
9.00341e-06
0.0014804
3.15686e-05
0.00145534
5.05357e-05
0.00142418
6.2711e-05
0.00139397
6.05429e-05
0.00137396
3.96819e-05
0.00137786
-9.00381e-06
0.0014204
-8.74014e-05
0.00151634
-0.00019621
0.00169036
-0.000354647
0.00196487
-0.000555346
0.00238647
-0.000853048
0.00295685
-0.00115694
0.00366701
-0.0014205
0.00422949
-0.00111866
0.00414168
0.00017473
0.00354094
0.00124017
0.0012703
0.00287633
0.00081829
-6.1614e-05
0.000834564
-4.93895e-05
0.000847189
-3.83983e-05
0.000856685
-2.89807e-05
0.000863676
-2.14982e-05
0.000868945
-1.64079e-05
0.000873497
-1.43322e-05
0.000878577
-1.60566e-05
0.000885764
-2.25688e-05
0.000897003
-3.49346e-05
0.000914579
-5.40975e-05
0.000940923
-8.02831e-05
0.0009779
-0.00011159
0.00102528
-0.000141739
0.00107867
-0.000159248
0.0011296
-0.000153773
0.00117555
-0.000140788
0.00122356
-0.00014515
0.00127599
-0.000157341
0.00132709
-0.000153757
0.00137367
-0.000140468
0.00141487
-0.000124233
0.00145007
-0.000105968
0.00147762
-8.27337e-05
0.00149553
-5.3694e-05
0.00150257
-2.0824e-05
0.00149783
1.37452e-05
0.00148188
4.75215e-05
0.00145614
7.62758e-05
0.00142381
9.50424e-05
0.00139194
9.24107e-05
0.00136987
6.17563e-05
0.00137141
-1.0545e-05
0.00141174
-0.000127729
0.00150402
-0.000288494
0.00167357
-0.000524196
0.00193932
-0.000821095
0.00235691
-0.00127064
0.00295207
-0.0017521
0.00369896
-0.00216739
0.00429935
-0.00171906
0.00422135
0.000252737
0.0035967
0.00186482
0.00193444
0.00293256
0.000819113
-8.18414e-05
0.000835258
-6.55353e-05
0.000847734
-5.08743e-05
0.00085706
-3.83065e-05
0.000863874
-2.83123e-05
0.000868948
-2.1482e-05
0.000873238
-1.86223e-05
0.000877977
-2.07948e-05
0.000884734
-2.9326e-05
0.000895475
-4.56756e-05
0.000912559
-7.11813e-05
0.000938589
-0.000106314
0.000975756
-0.000148757
0.00102416
-0.000190138
0.001079
-0.000214089
0.00113012
-0.000204892
0.00117497
-0.000185643
0.00122302
-0.000193202
0.00127627
-0.000210583
0.00132795
-0.000205438
0.00137481
-0.000187332
0.00141623
-0.000165653
0.00145177
-0.000141506
0.00147975
-0.00011071
0.00149792
-7.18634e-05
0.00150483
-2.77385e-05
0.00150044
1.81377e-05
0.00148412
6.3836e-05
0.00145745
0.000102946
0.00142355
0.00012894
0.00138943
0.000126539
0.00136443
8.67527e-05
0.00136225
-8.36488e-06
0.00139872
-0.000164203
0.0014854
-0.000375169
0.00164823
-0.000687026
0.00190905
-0.00108192
0.00232748
-0.00168907
0.00293935
-0.00236397
0.00377264
-0.00300068
0.00444163
-0.00238805
0.0042952
0.000399166
0.00359591
0.00256411
0.00263227
0.00289808
0.000820599
-0.000102018
0.000836651
-8.15867e-05
0.000848988
-6.32119e-05
0.000858122
-4.74402e-05
0.000864657
-3.48474e-05
0.000869341
-2.61662e-05
0.00087315
-2.24311e-05
0.000877312
-2.49569e-05
0.000883396
-3.54103e-05
0.000893379
-5.56584e-05
0.000909704
-8.75058e-05
0.000935237
-0.000131847
0.000972641
-0.000186161
0.0010225
-0.000239999
0.00107947
-0.000271054
0.00113089
-0.000256315
0.00117435
-0.000229105
0.00122244
-0.000241295
0.00127677
-0.000264913
0.0013293
-0.000257964
0.00137664
-0.000234672
0.00141846
-0.000207473
0.0014545
-0.000177547
0.001483
-0.000139214
0.00150161
-9.04732e-05
0.00150903
-3.51565e-05
0.0015039
2.32711e-05
0.00148699
8.07403e-05
0.00145903
0.000130911
0.00142285
0.00016512
0.00138536
0.00016403
0.0013562
0.000115908
0.00134948
-1.63697e-06
0.00138128
-0.000196009
0.00146093
-0.000454815
0.00161458
-0.00084068
0.00186252
-0.00132986
0.00227355
-0.0021001
0.00292205
-0.00301247
0.00382376
-0.00390238
0.00457817
-0.00314246
0.00445973
0.0005176
0.0036908
0.00333304
0.00331156
0.00301152
0.000821958
-0.000122039
0.000837813
-9.74413e-05
0.00084992
-7.53189e-05
0.000858796
-5.63164e-05
0.000865055
-4.11066e-05
0.000869426
-3.05368e-05
0.000872819
-2.5824e-05
0.000876418
-2.85559e-05
0.00088177
-4.07624e-05
0.000890879
-6.47675e-05
0.000906295
-0.000102922
0.000931191
-0.000156744
0.000968858
-0.000223828
0.0010206
-0.00029174
0.00108032
-0.000330778
0.00113192
-0.000307911
0.00117345
-0.000270636
0.00122153
-0.00028937
0.00127727
-0.000320653
0.0013308
-0.000311499
0.00137854
-0.000282408
0.00142066
-0.000249594
0.00145727
-0.000214155
0.00148654
-0.000168489
0.00150564
-0.000109572
0.00151293
-4.24448e-05
0.00150849
2.7712e-05
0.00149103
9.81951e-05
0.00146156
0.000160379
0.00142278
0.000203905
0.00138154
0.000205269
0.00134773
0.000149713
0.00133442
1.16789e-05
0.00136011
-0.000221705
0.0014308
-0.000525504
0.00157243
-0.000982307
0.00180587
-0.0015633
0.00220865
-0.00250287
0.00289599
-0.00369982
0.00396486
-0.00497125
0.00484347
-0.00402108
0.00459421
0.000766865
0.00366782
0.00425943
0.00413667
0.00284271
0.000824196
-0.000141953
0.000839879
-0.000113124
0.00085175
-8.719e-05
0.000860313
-6.48793e-05
0.000866145
-4.69387e-05
0.000869939
-3.43303e-05
0.000872622
-2.85073e-05
0.000875379
-3.13126e-05
0.000879737
-4.51201e-05
0.000887694
-7.27245e-05
0.000901896
-0.000117124
0.000925897
-0.000180746
0.000963825
-0.000261755
0.00101803
-0.00034595
0.00108151
-0.000394251
0.00113337
-0.000359775
0.00117249
-0.000309757
0.00122039
-0.000337266
0.00127783
-0.000378093
0.00133284
-0.00036651
0.00138132
-0.000330886
0.00142401
-0.000292281
0.00146143
-0.000251577
0.00149152
-0.000198583
0.00151128
-0.00012933
0.00151918
-5.0343e-05
0.00151371
3.31833e-05
0.00149551
0.000116395
0.00146417
0.000191713
0.00142199
0.000246091
0.00137557
0.000251682
0.00133519
0.000190096
0.00131606
3.0803e-05
0.00133421
-0.000239849
0.00139474
-0.000586036
0.00152165
-0.00110921
0.00173416
-0.00177581
0.0021174
-0.00288612
0.00285642
-0.00443884
0.00403944
-0.00615426
0.00506157
-0.00504321
0.00486068
0.000967759
0.00380654
0.00531357
0.00493333
0.00300988
0.000826154
-0.000161685
0.000841602
-0.000128572
0.000853193
-9.87817e-05
0.000861441
-7.31265e-05
0.000866921
-5.24189e-05
0.000870281