/*--------------------------------*- C++ -*----------------------------------*\
| =========                 |                                                 |
| \\      /  F ield         | OpenFOAM: The Open Source CFD Toolbox           |
|  \\    /   O peration     | Version:  v1912                                 |
|   \\  /    A nd           | Website:  www.openfoam.com                      |
|    \\/     M anipulation  |                                                 |
\*---------------------------------------------------------------------------*/
FoamFile
{
    version     2.0;
    format      ascii;
    class       volScalarField;
    location    "20";
    object      p_rgh;
}
// * * * * * * * * * * * * * * * * * * * * * * * * * * * * * * * * * * * * * //

dimensions      [1 -1 -2 0 0 0 0];


internalField   nonuniform List<scalar> 
14268
(
-183.131
-187.638
-191.341
-194.339
-196.755
-198.736
-200.459
-202.132
-203.993
-206.309
-209.363
-213.435
-218.765
-225.467
-233.399
-242.235
-251.341
-260.655
-270.349
-280.16
-289.501
-297.836
-304.772
-309.955
-313.047
-313.776
-311.944
-307.422
-300.169
-290.238
-277.732
-262.794
-245.452
-225.689
-203.326
-177.946
-149.877
-118.604
-86.5866
-53.9848
-21.504
12.0516
63.9742
111.281
-183.132
-187.638
-191.341
-194.339
-196.755
-198.736
-200.46
-202.133
-203.993
-206.309
-209.363
-213.435
-218.764
-225.467
-233.399
-242.235
-251.341
-260.656
-270.349
-280.16
-289.501
-297.836
-304.772
-309.955
-313.047
-313.777
-311.944
-307.422
-300.17
-290.239
-277.732
-262.794
-245.453
-225.69
-203.326
-177.947
-149.878
-118.604
-86.5868
-53.9852
-21.5047
12.0506
63.974
111.265
-183.132
-187.639
-191.341
-194.339
-196.755
-198.736
-200.46
-202.132
-203.993
-206.309
-209.363
-213.435
-218.764
-225.467
-233.399
-242.235
-251.341
-260.655
-270.349
-280.161
-289.501
-297.836
-304.772
-309.956
-313.048
-313.777
-311.945
-307.423
-300.17
-290.239
-277.733
-262.795
-245.453
-225.69
-203.327
-177.947
-149.878
-118.605
-86.5871
-53.9856
-21.506
12.0491
63.9738
111.265
-183.132
-187.639
-191.341
-194.339
-196.755
-198.736
-200.46
-202.132
-203.993
-206.309
-209.362
-213.435
-218.764
-225.467
-233.398
-242.235
-251.341
-260.655
-270.349
-280.161
-289.502
-297.837
-304.773
-309.956
-313.048
-313.778
-311.946
-307.424
-300.171
-290.24
-277.734
-262.795
-245.454
-225.691
-203.328
-177.948
-149.879
-118.605
-86.5873
-53.9862
-21.5079
12.0466
63.9735
111.252
-183.132
-187.639
-191.342
-194.339
-196.755
-198.736
-200.46
-202.132
-203.993
-206.308
-209.362
-213.434
-218.763
-225.466
-233.398
-242.235
-251.341
-260.655
-270.349
-280.161
-289.502
-297.838
-304.774
-309.957
-313.049
-313.779
-311.947
-307.425
-300.172
-290.241
-277.735
-262.796
-245.455
-225.692
-203.329
-177.95
-149.88
-118.606
-86.5878
-53.987
-21.5105
12.0436
63.9731
111.252
-183.133
-187.64
-191.342
-194.34
-196.755
-198.737
-200.46
-202.132
-203.993
-206.308
-209.361
-213.433
-218.763
-225.466
-233.398
-242.235
-251.341
-260.655
-270.349
-280.161
-289.503
-297.838
-304.775
-309.959
-313.051
-313.781
-311.948
-307.426
-300.174
-290.243
-277.736
-262.798
-245.456
-225.694
-203.331
-177.951
-149.882
-118.607
-86.5882
-53.9881
-21.5136
12.0395
63.9726
111.241
-183.133
-187.64
-191.342
-194.34
-196.756
-198.737
-200.46
-202.132
-203.992
-206.307
-209.361
-213.433
-218.762
-225.465
-233.397
-242.234
-251.341
-260.655
-270.349
-280.162
-289.503
-297.839
-304.776
-309.96
-313.052
-313.782
-311.95
-307.428
-300.176
-290.244
-277.738
-262.799
-245.458
-225.695
-203.333
-177.953
-149.884
-118.608
-86.5888
-53.9893
-21.5174
12.035
63.972
111.242
-183.134
-187.641
-191.343
-194.341
-196.756
-198.737
-200.46
-202.132
-203.992
-206.307
-209.36
-213.432
-218.761
-225.464
-233.397
-242.234
-251.341
-260.654
-270.349
-280.162
-289.504
-297.84
-304.777
-309.961
-313.054
-313.784
-311.952
-307.43
-300.178
-290.246
-277.739
-262.801
-245.46
-225.697
-203.335
-177.955
-149.886
-118.61
-86.5895
-53.9908
-21.5219
12.0291
63.9714
111.234
-183.135
-187.642
-191.344
-194.341
-196.756
-198.737
-200.46
-202.132
-203.992
-206.306
-209.359
-213.431
-218.759
-225.463
-233.396
-242.234
-251.341
-260.654
-270.349
-280.162
-289.505
-297.841
-304.779
-309.963
-313.056
-313.786
-311.954
-307.432
-300.18
-290.248
-277.742
-262.803
-245.462
-225.7
-203.338
-177.958
-149.888
-118.612
-86.5903
-53.9925
-21.527
12.0232
63.9706
111.235
-183.136
-187.642
-191.344
-194.342
-196.757
-198.737
-200.46
-202.132
-203.991
-206.306
-209.358
-213.429
-218.758
-225.462
-233.395
-242.234
-251.34
-260.654
-270.349
-280.163
-289.506
-297.843
-304.78
-309.965
-313.058
-313.789
-311.957
-307.435
-300.183
-290.251
-277.744
-262.805
-245.464
-225.702
-203.34
-177.961
-149.891
-118.614
-86.5913
-53.9943
-21.5327
12.0156
63.9698
111.229
-183.137
-187.643
-191.345
-194.342
-196.757
-198.738
-200.46
-202.131
-203.991
-206.305
-209.357
-213.428
-218.757
-225.461
-233.394
-242.233
-251.34
-260.653
-270.349
-280.163
-289.507
-297.844
-304.782
-309.967
-313.061
-313.792
-311.96
-307.438
-300.185
-290.254
-277.746
-262.808
-245.467
-225.705
-203.344
-177.964
-149.893
-118.616
-86.5922
-53.9964
-21.539
12.0083
63.9687
111.23
-183.138
-187.644
-191.346
-194.343
-196.758
-198.738
-200.46
-202.131
-203.99
-206.304
-209.356
-213.427
-218.755
-225.459
-233.393
-242.233
-251.34
-260.653
-270.349
-280.164
-289.508
-297.846
-304.784
-309.97
-313.064
-313.795
-311.963
-307.441
-300.189
-290.257
-277.749
-262.811
-245.47
-225.708
-203.347
-177.967
-149.897
-118.618
-86.5932
-53.9987
-21.546
11.9989
63.9677
111.228
-183.139
-187.645
-191.347
-194.344
-196.758
-198.738
-200.46
-202.131
-203.99
-206.303
-209.354
-213.425
-218.753
-225.458
-233.392
-242.233
-251.339
-260.652
-270.349
-280.165
-289.509
-297.848
-304.787
-309.973
-313.067
-313.798
-311.966
-307.445
-300.192
-290.26
-277.753
-262.814
-245.473
-225.711
-203.351
-177.971
-149.9
-118.62
-86.5944
-54.0012
-21.5537
11.9902
63.9665
111.229
-183.14
-187.646
-191.348
-194.345
-196.759
-198.739
-200.46
-202.131
-203.989
-206.302
-209.353
-213.423
-218.752
-225.456
-233.391
-242.232
-251.339
-260.652
-270.348
-280.165
-289.511
-297.85
-304.789
-309.976
-313.07
-313.801
-311.97
-307.448
-300.196
-290.264
-277.756
-262.817
-245.477
-225.715
-203.355
-177.975
-149.904
-118.623
-86.5955
-54.0039
-21.5619
11.979
63.9652
111.228
-183.142
-187.648
-191.349
-194.346
-196.76
-198.739
-200.46
-202.13
-203.988
-206.3
-209.351
-213.42
-218.749
-225.453
-233.389
-242.231
-251.338
-260.651
-270.348
-280.167
-289.513
-297.853
-304.793
-309.98
-313.075
-313.807
-311.976
-307.454
-300.202
-290.269
-277.761
-262.822
-245.482
-225.721
-203.362
-177.982
-149.91
-118.628
-86.5975
-54.0083
-21.5753
11.9639
63.9632
111.231
-183.145
-187.651
-191.352
-194.348
-196.761
-198.74
-200.46
-202.129
-203.986
-206.298
-209.347
-213.416
-218.744
-225.449
-233.386
-242.23
-251.338
-260.65
-270.348
-280.168
-289.516
-297.858
-304.799
-309.987
-313.083
-313.816
-311.985
-307.464
-300.211
-290.278
-277.77
-262.83
-245.491
-225.73
-203.372
-177.992
-149.919
-118.634
-86.6005
-54.015
-21.5956
11.9361
63.9601
111.236
-183.148
-187.654
-191.355
-194.35
-196.763
-198.741
-200.46
-202.129
-203.985
-206.295
-209.343
-213.411
-218.739
-225.444
-233.383
-242.229
-251.337
-260.648
-270.348
-280.17
-289.52
-297.863
-304.806
-309.995
-313.092
-313.826
-311.995
-307.474
-300.221
-290.288
-277.779
-262.84
-245.5
-225.74
-203.384
-178.004
-149.929
-118.642
-86.6041
-54.0224
-21.6187
11.9106
63.9565
111.244
-183.152
-187.657
-191.358
-194.353
-196.765
-198.742
-200.461
-202.128
-203.983
-206.292
-209.339
-213.406
-218.733
-225.439
-233.38
-242.228
-251.335
-260.647
-270.348
-280.173
-289.524
-297.869
-304.813
-310.004
-313.102
-313.837
-312.007
-307.486
-300.233
-290.299
-277.79
-262.85
-245.511
-225.751
-203.396
-178.017
-149.941
-118.65
-86.6074
-54.031
-21.644
11.8753
63.9525
111.255
-183.156
-187.661
-191.361
-194.355
-196.767
-198.743
-200.461
-202.127
-203.98
-206.288
-209.334
-213.4
-218.727
-225.434
-233.376
-242.227
-251.334
-260.645
-270.348
-280.175
-289.529
-297.875
-304.822
-310.014
-313.114
-313.849
-312.02
-307.499
-300.245
-290.311
-277.801
-262.861
-245.522
-225.764
-203.411
-178.031
-149.953
-118.66
-86.6126
-54.0415
-21.6724
11.8447
63.948
111.267
-183.161
-187.665
-191.364
-194.358
-196.769
-198.744
-200.461
-202.126
-203.978
-206.284
-209.329
-213.394
-218.72
-225.427
-233.372
-242.225
-251.333
-260.643
-270.347
-280.178
-289.534
-297.883
-304.831
-310.025
-313.126
-313.862
-312.033
-307.513
-300.259
-290.324
-277.814
-262.873
-245.535
-225.777
-203.426
-178.046
-149.967
-118.67
-86.6153
-54.0502
-21.703
11.8014
63.9431
111.284
-183.166
-187.67
-191.368
-194.361
-196.771
-198.746
-200.461
-202.125
-203.975
-206.28
-209.323
-213.387
-218.712
-225.421
-233.367
-242.223
-251.332
-260.641
-270.347
-280.181
-289.54
-297.89
-304.841
-310.037
-313.139
-313.876
-312.048
-307.528
-300.274
-290.339
-277.827
-262.886
-245.549
-225.792
-203.443
-178.063
-149.982
-118.68
-86.6247
-54.0604
-21.7362
11.7664
63.9379
111.301
-183.204
-187.705
-191.399
-194.386
-196.789
-198.756
-200.462
-202.116
-203.955
-206.247
-209.279
-213.332
-218.653
-225.367
-233.331
-242.21
-251.32
-260.625
-270.345
-280.204
-289.583
-297.952
-304.918
-310.128
-313.242
-313.988
-312.165
-307.647
-300.391
-290.451
-277.934
-262.99
-245.658
-225.908
-203.574
-178.194
-150.1
-118.772
-86.7901
-54.1512
-21.9989
11.3833
63.8883
111.466
-183.354
-187.846
-191.528
-194.497
-196.876
-198.812
-200.48
-202.09
-203.884
-206.13
-209.116
-213.132
-218.437
-225.173
-233.2
-242.164
-251.281
-260.564
-270.339
-280.29
-289.744
-298.178
-305.204
-310.468
-313.628
-314.417
-312.602
-308.087
-300.825
-290.867
-278.328
-263.372
-246.062
-226.334
-204.058
-178.679
-150.53
-119.085
-86.807
-54.3983
-23.017
10.5882
63.8264
112.098
-183.548
-188.018
-191.67
-194.605
-196.948
-198.844
-200.47
-202.031
-203.766
-205.947
-208.867
-212.828
-218.106
-224.875
-233
-242.095
-251.217
-260.461
-270.323
-280.415
-289.981
-298.513
-305.627
-310.967
-314.188
-315
-313.24
-308.739
-301.468
-291.484
-278.913
-263.939
-246.656
-226.971
-204.784
-179.41
-151.186
-119.553
-87.1203
-54.964
-24.4814
7.98557
63.3295
113.402
-183.86
-188.313
-191.939
-194.838
-197.131
-198.964
-200.511
-201.983
-203.626
-205.712
-208.541
-212.424
-217.664
-224.477
-232.741
-242.023
-251.142
-260.324
-270.305
-280.587
-290.302
-298.966
-306.2
-311.647
-314.963
-315.877
-314.115
-309.621
-302.333
-292.31
-279.693
-264.69
-247.375
-227.827
-205.756
-180.394
-152.063
-120.185
-87.2324
-55.335
-26.8764
6.51212
63.1065
114.752
-184.174
-188.591
-192.171
-195.017
-197.253
-199.024
-200.501
-201.891
-203.434
-205.409
-208.125
-211.908
-217.094
-223.961
-232.411
-241.94
-251.035
-260.124
-270.268
-280.798
-290.697
-299.525
-306.904
-312.479
-315.893
-316.836
-315.18
-310.709
-303.406
-293.337
-280.659
-265.623
-248.452
-228.899
-206.976
-181.642
-153.182
-120.99
-87.4671
-56.2391
-29.7689
1.50203
61.8261
116.927
-184.653
-189.04
-192.576
-195.362
-197.521
-199.194
-200.552
-201.813
-203.22
-205.054
-207.628
-211.285
-216.4
-223.329
-232.025
-241.882
-250.92
-259.874
-270.225
-281.06
-291.185
-300.214
-307.771
-313.51
-317.074
-318.173
-316.497
-312.038
-304.71
-294.575
-281.817
-266.729
-249.564
-230.157
-208.43
-183.16
-154.553
-121.987
-87.5503
-56.6987
-34.1549
-0.855883
61.3225
119.147
-185.093
-189.437
-192.915
-195.635
-197.719
-199.307
-200.566
-201.704
-202.965
-204.636
-207.042
-210.543
-215.56
-222.556
-231.574
-241.845
-250.764
-259.529
-270.156
-281.359
-291.737
-300.996
-308.753
-314.669
-318.369
-319.521
-318.005
-313.578
-306.225
-296.014
-283.157
-268.005
-250.928
-231.743
-210.231
-185.016
-156.2
-123.207
-87.3692
-57.7323
-39.5815
-9.21478
58.2864
122.126
-185.734
-190.029
-193.439
-196.07
-198.046
-199.504
-200.609
-201.582
-202.668
-204.153
-206.365
-209.679
-214.565
-221.631
-231.071
-241.886
-250.596
-259.093
-270.074
-281.73
-292.411
-301.944
-309.936
-316.076
-319.977
-321.313
-319.768
-315.363
-307.976
-297.664
-284.678
-269.428
-252.37
-233.308
-212.078
-187.068
-158.132
-124.607
-87.1545
-58.5486
-46.8655
-13.1487
57.6561
125.461
-186.326
-190.574
-193.919
-196.474
-198.363
-199.712
-200.689
-201.485
-202.365
-203.625
-205.607
-208.694
-213.406
-220.532
-230.519
-242.004
-250.372
-258.509
-269.955
-282.101
-293.11
-302.943
-311.188
-317.561
-321.652
-323.106
-321.748
-317.379
-309.955
-299.524
-286.386
-271.031
-254.089
-235.504
-214.615
-189.685
-160.44
-126.267
-86.197
-59.9656
-56.8116
-25.7779
50.8891
129.114
-187.104
-191.279
-194.526
-196.963
-198.7
-199.884
-200.687
-201.308
-201.989
-203.019
-204.746
-207.567
-212.048
-219.218
-229.965
-242.328
-250.113
-257.753
-269.852
-282.63
-293.996
-304.174
-312.705
-319.352
-323.683
-325.299
-323.954
-319.631
-312.158
-301.576
-288.226
-272.709
-255.783
-237.225
-216.826
-192.316
-163.066
-128.086
-85.0435
-60.5611
-67.4563
-32.0266
50.3944
132.586
-187.9
-192.024
-195.217
-197.58
-199.215
-200.261
-200.863
-201.228
-201.632
-202.379
-203.809
-206.309
-210.473
-217.608
-229.273
-242.793
-249.774
-256.776
-269.576
-283.076
-294.841
-305.406
-314.245
-321.195
-325.801
-327.66
-326.442
-322.167
-314.654
-303.905
-290.322
-274.621
-257.839
-240.154
-220.261
-195.87
-166.26
-130.312
-83.3027
-62.0707
-79.327
-50.8373
45.1291
140.224
-188.738
-192.749
-195.815
-198.031
-199.513
-200.392
-200.83
-201.019
-201.196
-201.66
-202.78
-204.912
-208.707
-215.858
-228.845
-243.676
-249.348
-255.606
-269.484
-283.818
-295.943
-306.927
-316.078
-323.337
-328.195
-329.994
-329.089
-324.864
-317.295
-306.317
-292.416
-276.445
-259.652
-241.902
-222.706
-199.153
-169.864
-132.349
-80.4473
-59.5005
-83.0981
-51.0319
49.9736
145.987
-189.879
-193.84
-196.817
-198.919
-200.25
-200.929
-201.092
-200.94
-200.777
-200.898
-201.634
-203.306
-206.462
-213.265
-228.049
-244.845
-248.897
-253.836
-268.943
-284.406
-296.961
-308.458
-317.978
-325.627
-331.016
-333.359
-332.154
-328.041
-320.427
-309.205
-294.924
-278.647
-262.045
-245.738
-227.203
-203.903
-174.453
-136.329
-79.6324
-56.1271
-81.6015
-48.5904
46.7601
154.154
-188.103
-191.752
-194.457
-196.325
-197.46
-197.973
-198.003
-197.714
-197.332
-197.174
-197.508
-198.51
-200.372
-205.057
-217.615
-232.395
-234.058
-237.92
-251.969
-265.409
-275.906
-286.1
-293.956
-299.644
-304.062
-305.96
-305.378
-301.283
-293.817
-282.919
-269.16
-253.368
-235.616
-211.7
-168.894
-103.446
-23.4288
58.2671
144.174
191.106
148.134
43.3141
101.378
198.93
428.242
427.418
426.828
426.436
426.219
426.159
426.234
426.407
426.645
426.958
427.432
428.649
433.04
444.473
454.88
455.027
454.94
452.593
448.866
448.203
447.043
442.495
437.939
435.512
434.317
434.758
437.151
441.207
446.555
452.736
459.687
468.049
479.393
498.021
530.129
568.044
590.325
602.824
635.207
664.901
685.245
677.845
664.623
689.542
48.0359
47.8619
47.7463
47.6697
47.6251
47.618
47.649
47.713
47.8407
48.1494
48.8613
50.8812
57.7529
75.8963
96.436
102.089
101.763
98.7504
98.2123
101.89
103.567
100.245
96.1201
94.5591
94.3761
95.729
98.8652
103.673
109.438
115.297
121.377
129.014
140.849
162.689
200.712
243.144
260.905
262.753
289.359
324.531
360.383
359.176
316.62
323.209
0.057343
0.0571654
0.0565062
0.0555454
0.0543226
0.0528015
0.0500452
0.0493131
0.0489999
0.0496806
0.0525565
0.0494971
0.0422219
-0.047084
-0.120357
-0.0466469
-0.0410899
-0.0135615
0.0105435
0.0218185
0.0356896
0.0519065
0.0634004
0.0674449
0.0677907
0.0548169
0.0596778
0.0807523
0.0837012
0.104881
0.127786
0.143925
0.156268
0.178346
0.209193
0.203874
0.170923
0.126227
0.0713071
-0.0451649
-0.120874
-0.242468
-0.594259
-0.957807
0.0555721
0.0554892
0.0548434
0.0540337
0.0535025
0.0535626
0.0558547
0.0586203
0.065964
0.0806156
0.108352
0.146951
0.187661
0.0168235
-0.158529
-0.1644
-0.0756807
-0.0155071
0.0294356
0.0190539
0.00648403
0.0406897
0.0630603
0.0676707
0.0689491
0.0519396
-0.000784132
-0.0420284
-0.0185095
0.016946
0.0622167
0.0985877
0.112216
0.13379
0.172303
0.186294
0.203352
0.19784
0.0889823
-0.0472767
-0.118611
-0.123288
-0.122534
-0.176505
0.0544082
0.0544842
0.0541207
0.0534966
0.0526613
0.0515313
0.0494377
0.0494501
0.0493967
0.0501653
0.0520005
0.0468788
0.0341308
-0.034655
-0.105098
-0.0394777
-0.0326109
-0.011651
0.0108264
0.0189263
0.0327758
0.0462843
0.0565553
0.0603807
0.060125
0.0511667
0.0546137
0.0755018
0.0775184
0.0964261
0.11817
0.133729
0.146763
0.163707
0.184232
0.179801
0.159573
0.103578
0.0551706
-0.0458303
-0.119128
-0.226008
-0.467693
-0.638447
0.052696
0.0528595
0.0525431
0.0520326
0.0517635
0.0520512
0.0540358
0.0566038
0.0626728
0.0734369
0.0903104
0.105845
0.119623
0.0247619
-0.081662
-0.104571
-0.0587005
-0.0157601
0.0155211
0.0183223
0.015348
0.0371733
0.053544
0.0586912
0.0585489
0.0484231
0.0175733
-0.0116433
0.00424674
0.028857
0.0595181
0.0876955
0.103019
0.121163
0.143491
0.156089
0.149155
0.150234
0.0625729
-0.0342005
-0.11351
-0.140816
-0.186007
-0.275888
0.0516251
0.0519131
0.0517988
0.0514484
0.0509137
0.050123
0.0490466
0.0489457
0.0488546
0.0491963
0.0491688
0.042218
0.0310443
-0.023917
-0.070646
-0.0356896
-0.019611
-0.00924081
0.0112546
0.0179828
0.0300735
0.0414724
0.0503873
0.0537219
0.0538807
0.0491284
0.0508777
0.061205
0.0710641
0.0883383
0.107664
0.122357
0.134644
0.146334
0.158298
0.155542
0.13768
0.0849759
0.0403298
-0.0415585
-0.111193
-0.198948
-0.364543
-0.488489
0.0500591
0.0504057
0.050335
0.0500597
0.0499608
0.0503264
0.0517411
0.0540436
0.0586177
0.0659913
0.0753759
0.0809169
0.0813494
0.0235305
-0.0454788
-0.06102
-0.0418
-0.0118131
0.00954362
0.0176589
0.0201343
0.0342912
0.0469144
0.0520077
0.0525526
0.0464189
0.0302235
0.0145821
0.0210522
0.0377078
0.0592681
0.0802025
0.0942592
0.107789
0.121283
0.125141
0.117229
0.106835
0.043642
-0.0317631
-0.107622
-0.152186
-0.207198
-0.297967
0.0490009
0.0494497
0.0495288
0.0493893
0.0490886
0.0485647
0.0479914
0.0478696
0.0475996
0.047327
0.0455968
0.0382616
0.026971
-0.0117442
-0.0453251
-0.0309082
-0.0146244
-0.00654163
0.0103871
0.0175244
0.0277466
0.0380839
0.0454579
0.048948
0.0492028
0.0464406
0.0468721
0.0540898
0.0653994
0.0807909
0.0973386
0.110902
0.122182
0.130983
0.140011
0.134065
0.114968
0.0737648
0.0289747
-0.0364644
-0.102619
-0.166905
-0.291819
-0.37586
0.0475982
0.0480836
0.0481989
0.0481073
0.0481091
0.0484624
0.0494979
0.0512586
0.054422
0.0591012
0.0638882
0.0646288
0.0589937
0.02333
-0.0227247
-0.0318112
-0.0266992
-0.0068391
0.00852293
0.0173948
0.0225512
0.0321858
0.0422803
0.0467439
0.0480429
0.0454457
0.0377113
0.0297881
0.0327415
0.0440892
0.0594449
0.0750812
0.0866031
0.0965559
0.104171
0.10348
0.0937157
0.0732655
0.0266802
-0.033086
-0.101675
-0.152836
-0.211258
-0.290406
0.0465342
0.0471001
0.0473241
0.0473385
0.0472075
0.0468677
0.0465246
0.0463578
0.0458686
0.0450413
0.0421784
0.035027
0.0236741
-0.0035061
-0.0277912
-0.0253634
-0.0104717
-0.00333341
0.00984391
0.017402
0.0258995
0.0348993
0.0413797
0.0449634
0.0459945
0.0447656
0.044352
0.0499387
0.0603793
0.0736009
0.0877025
0.0996171
0.109412
0.115885
0.12066
0.114437
0.0957412
0.0645636
0.0215261
-0.0324318
-0.0926975
-0.141075
-0.229634
-0.291914
0.0452816
0.0458698
0.0461228
0.0461703
0.0462278
0.0465291
0.0472533
0.0484456
0.0504285
0.053076
0.0549677
0.0535907
0.0462455
0.023077
-0.00775999
-0.0153349
-0.0141665
-0.0021045
0.00940473
0.0174831
0.0236802
0.0309605
0.0389314
0.0430795
0.0446146
0.0440888
0.0416701
0.0386136
0.0406196
0.0486581
0.0597054
0.0712892
0.0800374
0.087052
0.0905457
0.0878289
0.0759877
0.0538987
0.0149712
-0.0331494
-0.0934658
-0.139537
-0.197799
-0.255485
0.0442155
0.0448618
0.045191
0.0453132
0.0452949
0.0450651
0.0448118
0.0445737
0.0438648
0.0425765
0.0391925
0.03253
0.0211342
0.00235161
-0.0157079
-0.0168439
-0.00703117
0.000177275
0.00997277
0.0173982
0.0244489
0.0321418
0.0380501
0.04162
0.0432996
0.0433068
0.0429263
0.047041
0.0558083
0.0668777
0.0786492
0.0888623
0.097036
0.101821
0.103519
0.0960808
0.0791901
0.0520471
0.0142841
-0.0305124
-0.0828901
-0.123763
-0.183588
-0.230581
0.0430859
0.0437479
0.0441013
0.0442496
0.0443356
0.0445751
0.045029
0.0457123
0.0467638
0.0480387
0.0481332
0.045878
0.0383324
0.0227464
0.00216233
-0.00464351
-0.00416352
0.0020279
0.0108277
0.017888
0.0242179
0.0301597
0.0364649
0.0403401
0.0422631
0.0427839
0.0428765
0.0432848
0.0457019
0.0517106
0.0597251
0.0681585
0.0743694
0.0787729
0.0793431
0.0748994
0.0623919
0.0410465
0.0074711
-0.032402
-0.0830284
-0.123698
-0.171432
-0.212155
0.0420368
0.042733
0.0431341
0.0433279
0.04338
0.0431954
0.0429468
0.042638
0.0417725
0.0401436
0.036555
0.030354
0.0202197
0.00653105
-0.00701598
-0.00936104
-0.00325894
0.00339212
0.0108808
0.0175042
0.0237308
0.0299835
0.0353087
0.0388408
0.0409048
0.0418765
0.0426518
0.0450363
0.0517567
0.0607196
0.0703464
0.0789069
0.0855067
0.0892864
0.08859
0.0808523
0.0650204
0.0413332
0.00831819
-0.0285624
-0.0732878
-0.108308
-0.154072
-0.188262
0.0409943
0.0417056
0.0421301
0.0423482
0.0424528
0.0426329
0.0428876
0.0431274
0.0434712
0.0437425
0.0428203
0.0400761
0.0333736
0.0224337
0.00849558
0.00273643
0.00263551
0.00583425
0.012392
0.0184094
0.0240771
0.0294289
0.0345425
0.0381591
0.0403401
0.041573
0.0426736
0.0449044
0.048405
0.0532435
0.059208
0.0652515
0.0693521
0.0715023
0.0700939
0.0645786
0.0519525
0.0322355
0.0032354
-0.0309544
-0.0726016
-0.107657
-0.145404
-0.173954
0.0399842
0.0407094
0.0411569
0.0413945
0.04146
0.0412991
0.0409683
0.0406352
0.0396771
0.0378637
0.0343409
0.0287127
0.0200825
0.00965909
-0.000596445
-0.00327208
0.000347423
0.00611168
0.0120095
0.0177083
0.0231796
0.028475
0.0331484
0.0365653
0.0388682
0.0404333
0.0419306
0.0444148
0.0486417
0.0554486
0.0630357
0.0699893
0.0750439
0.0776774
0.0756594
0.0679195
0.0532817
0.0324939
0.00455701
-0.0262597
-0.0635078
-0.0941777
-0.12946
-0.154135
0.039005
0.039741
0.040209
0.0404708
0.0406019
0.0407203
0.0408057
0.0407306
0.0405556
0.0401344
0.0386748
0.0357589
0.030132
0.022142
0.0125876
0.00795309
0.00747461
0.00908732
0.0139502
0.0189676
0.023906
0.0286113
0.0329718
0.0363387
0.0386631
0.0403379
0.0419758
0.0444149
0.0481402
0.0530571
0.0578126
0.0622128
0.0646969
0.0652057
0.0623818
0.0563661
0.0438632
0.0261123
0.000399852
-0.0285757
-0.0629737
-0.0923238
-0.121675
-0.1416
0.0380373
0.038777
0.0392548
0.0395195
0.0395932
0.0394311
0.0390015
0.0386355
0.0376348
0.0357562
0.0324472
0.0274249
0.0202465
0.0120756
0.00422745
0.00162357
0.00374334
0.00841979
0.0131382
0.0179803
0.0227487
0.0273228
0.0314231
0.034671
0.0370914
0.038999
0.0408938
0.0434336
0.0470517
0.0517856
0.057078
0.0623786
0.0659159
0.0675138
0.0646903
0.0576192
0.0437998
0.0259673
0.00177954
-0.0243874
-0.0551814
-0.0813476
-0.108567
-0.126084
0.0371144
0.0378591
0.0383508
0.0386353
0.0387682
0.0388547
0.0390904
0.0385301
0.0379898
0.0371207
0.0354092
0.0325441
0.0279022
0.0218918
0.0152313
0.0115444
0.0108657
0.0117214
0.0153385
0.019486
0.0237364
0.0278486
0.0316462
0.0347629
0.0371325
0.0390451
0.0409461
0.0433809
0.0466728
0.0507855
0.0551161
0.0587232
0.0601138
0.0595993
0.055775
0.0491129
0.0375092
0.0211185
-0.000974878
-0.0256029
-0.0539343
-0.0783292
-0.100997
-0.114792
0.0361871
0.0369284
0.0374215
0.0377014
0.0377841
0.0376179
0.0370627
0.0366847
0.0356849
0.0338294
0.0307958
0.0263841
0.020471
0.0139577
0.00790431
0.00556668
0.00693978
0.0103959
0.0141854
0.0182813
0.0224066
0.02639
0.0300164
0.033059
0.0355014
0.0375767
0.0396483
0.0421345
0.0452953
0.0490909
0.0530025
0.0563325
0.058264
0.0588331
0.0555235
0.0488972
0.0365619
0.0207558
2.73785e-05
-0.022331
-0.047768
-0.0696381
-0.0904677
-0.102599
0.0353142
0.0360558
0.0365568
0.0368504
0.0369723
0.0369984
0.0370368
0.0364582
0.0357336
0.0345888
0.032796
0.0301137
0.0262931
0.0216704
0.0168956
0.0139187
0.0127665
0.0137454
0.0165004
0.0199181
0.0235572
0.0271413
0.0304848
0.0333525
0.0356889
0.0376939
0.0396834
0.0420077
0.0448613
0.048176
0.0514632
0.0541744
0.0553309
0.0544442
0.0499972
0.0431703
0.032152
0.0174629
-0.0014887
-0.0224239
-0.0456682
-0.0658223
-0.0832544
-0.0926874
0.0344265
0.0351599
0.0356573
0.0359434
0.0360294
0.0358812
0.0353829
0.0347732
0.0338268
0.0320641
0.0293343
0.0255109
0.0206502
0.0154196
0.0107412
0.00875642
0.00971766
0.0120737
0.0151265
0.0185728
0.0221263
0.0256064
0.028834
0.0316561
0.0340482
0.0361693
0.0382735
0.0406252
0.0433691
0.0464237
0.0493567
0.0517357
0.0525839
0.0518003
0.0480344
0.0417267
0.0307846
0.0168055
-0.000857043
-0.019982
-0.0409194
-0.0590085
-0.0748093
-0.0830155
0.0335974
0.0343272
0.0348277
0.0351213
0.0352289
0.0351933
0.0350771
0.0346945
0.0338056
0.0324504
0.030669
0.0282347
0.025075
0.0214444
0.0178797
0.0153698
0.0144724
0.0152899
0.0174164
0.0202378
0.0233481
0.0264698
0.0294261
0.0320499
0.0342961
0.0362943
0.03826
0.0404137
0.0428588
0.0455011
0.0479429
0.0498316
0.0502002
0.0490546
0.0448694
0.0381677
0.0279135
0.0147416
-0.00150105
-0.0192682
-0.0383102
-0.0548169
-0.0681952
-0.0745868
0.0327492
0.0334678
0.0339617
0.0342477
0.0343328
0.0341984
0.0337458
0.0329809
0.0320505
0.030427
0.0280189
0.024731
0.0207437
0.016551
0.0129656
0.0115164
0.0118033
0.0134868
0.0159439
0.0188309
0.0218853
0.0249295
0.0278087
0.0304071
0.0326976
0.0347805
0.0368244
0.0389917
0.0413487
0.0437937
0.0459686
0.0475848
0.0477112
0.0464114
0.0422653
0.0359948
0.0262815
0.0139449
-0.00108759
-0.0174009
-0.0346122
-0.0494534
-0.0613831
-0.0667911
0.0319582
0.0326699
0.0331631
0.0334512
0.0335465
0.0334654
0.0332435
0.0328366
0.031922
0.0306144
0.0289169
0.0267473
0.0241096
0.0211871
0.0183577
0.0163695
0.0157717
0.016406
0.0180904
0.0204316
0.0230898
0.0258091
0.0284271
0.0308149
0.0329329
0.0348588
0.0367315
0.0386839
0.0407567
0.0428442
0.0446152
0.0458253
0.0456019
0.0440741
0.0398985
0.0337276
0.0244985
0.012769
-0.0011981
-0.0162675
-0.0318751
-0.0453066
-0.0555742
-0.0598285
0.0311493
0.0318484
0.0323337
0.0326146
0.0326972
0.0325697
0.0321641
0.0313919
0.0302268
0.0288582
0.0268061
0.0240085
0.0207381
0.0174005
0.0147552
0.0133791
0.0134212
0.0146563
0.0166272
0.019041
0.021664
0.0243274
0.0268954
0.0292713
0.0314253
0.0334131
0.0353389
0.0372943
0.0392947
0.0412328
0.0428049
0.0438035
0.043405
0.0417517
0.0376388
0.0316471
0.0229311
0.0119444
-0.000910354
-0.014742
-0.0288748
-0.0409549
-0.0499814
-0.0534812
0.0303917
0.0310813
0.031562
0.0318423
0.0319282
0.0318209
0.0315295
0.0310526
0.0302536
0.0290935
0.0274745
0.0254563
0.02331
0.0208963
0.0186538
0.0171176
0.0166518
0.0171658
0.018538
0.0204948
0.022769
0.0251392
0.0274583
0.0296208
0.0315883
0.033401
0.0351416
0.0368818
0.0386206
0.0402523
0.0414937
0.0421665
0.0415276
0.0397238
0.0356504
0.0298232
0.0215647
0.011241
-0.000688994
-0.0134331
-0.026262
-0.0372007
-0.0450524
-0.0477987
0.0296218
0.0302982
0.0307702
0.0310446
0.0311241
0.0310004
0.0306352
0.0299381
0.0288779
0.0275005
0.0256309
0.0233807
0.0206273
0.0180201
0.015892
0.0147397
0.0146929
0.0155972
0.0171767
0.0191944
0.0214458
0.0237746
0.0260608
0.0282182
0.0302129
0.0320687
0.0338413
0.0355743
0.0372497
0.0387628
0.0398509
0.0403505
0.0395847
0.037691
0.0337117
0.0280782
0.0202839
0.0106237
-0.000413587
-0.0121244
-0.0237527
-0.0335552
-0.0404065
-0.0426077
0.0288938
0.0295584
0.0300236
0.0302953
0.030375
0.0302576
0.0299336
0.0294065
0.0286358
0.0275693
0.0261564
0.0244789
0.0225339
0.0205303
0.018768
0.0175746
0.0171955
0.0176369
0.0187798
0.0204293
0.0223796
0.0244476
0.026502
0.0284519
0.0302585
0.0319354
0.0335245
0.0350549
0.0364998
0.0377557
0.0385824
0.0388411
0.0379156
0.0359281
0.0320277
0.0265794
0.019201
0.0101532
-9.05749e-05
-0.0108649
-0.0214175
-0.0302844
-0.0362988
-0.0379908
0.0281616
0.0288124
0.0292692
0.0295361
0.0296132
0.0294936
0.0291566
0.0285478
0.0276025
0.0263357
0.0246994
0.022727
0.0205512
0.0184424
0.0167237
0.015756
0.0156572
0.0163271
0.0175974
0.0192849
0.0212161
0.0232496
0.0252786
0.0272231
0.0290458
0.0307464
0.0323471
0.033858
0.0352411
0.0363939
0.0370923
0.0372053
0.0361923
0.0341505
0.0303652
0.0251253
0.0181662
0.00970491
0.00021828
-0.00968235
-0.0192545
-0.0272093
-0.0324327
-0.0337599
0.0274606
0.0280979
0.0285469
0.0288098
0.0288861
0.0287696
0.028446
0.0279007
0.0271411
0.0261458
0.0248801
0.0234028
0.0217466
0.0201009
0.0186986
0.0177663
0.0174849
0.0178743
0.0188415
0.020244
0.021923
0.0237298
0.0255494
0.0273014
0.0289456
0.0304766
0.0319075
0.0332391
0.0344273
0.0353764
0.0358813
0.0358172
0.034701
0.0326067
0.0289213
0.023879
0.017295
0.00937972
0.000573968
-0.00853661
-0.0172362
-0.0244136
-0.0290268
-0.0300038
0.0267634
0.0273874
0.0278281
0.028087
0.0281629
0.0280498
0.027734
0.0271927
0.0263793
0.0252657
0.0238569
0.0222071
0.0204144
0.0186963
0.017303
0.0164862
0.0163556
0.0168629
0.0178926
0.0193059
0.0209608
0.0227326
0.0245263
0.0262654
0.0279102
0.029444
0.0308651
0.0321616
0.0332827
0.0341334
0.0345267
0.0343455
0.0331737
0.0310579
0.0274971
0.0226627
0.0164555
0.00905989
0.000903897
-0.00747075
-0.0153752
-0.0218274
-0.0258484
-0.0265864
0.0260878
0.0266979
0.02713
0.0273846
0.0274602
0.0273512
0.0270459
0.0265276
0.0257847
0.0248448
0.0237051
0.0224007
0.0209946
0.0196395
0.0185068
0.0177761
0.0175767
0.0179243
0.0187529
0.0199551
0.021407
0.0229881
0.0246001
0.0261693
0.0276551
0.0290386
0.0303132
0.0314606
0.0324288
0.0331247
0.0333744
0.0330634
0.0318279
0.0296921
0.0262401
0.0216062
0.0157387
0.00882137
0.00124971
-0.00645838
-0.0136518
-0.0194669
-0.0230194
-0.0235308
0.0254227
0.0260194
0.0264432
0.026694
0.0267702
0.0266666
0.0263732
0.0258768
0.0251664
0.0242237
0.0230307
0.0216527
0.0201801
0.0187778
0.0176434
0.0169602
0.016824
0.017218
0.0180613
0.0192488
0.0206653
0.022205
0.0237829
0.0253259
0.0267935
0.0281567
0.029399
0.0304942
0.0313874
0.0319898
0.0321453
0.0317445
0.030478
0.0283479
0.0250225
0.0205953
0.0150635
0.00859978
0.00157876
-0.00551332
-0.0120643
-0.0173041
-0.0204264
-0.0207756
0.0247724
0.0253554
0.0257706
0.0260177
0.0260947
0.025997
0.0257164
0.0252428
0.0245683
0.0236908
0.0226465
0.0214961
0.0202944
0.0191612
0.0182367
0.017658
0.0175182
0.0178305
0.0185467
0.0195839
0.0208452
0.0222315
0.0236599
0.0250609
0.0263957
0.0276363
0.0287615
0.0297405
0.0305157
0.0309998
0.0310487