/*--------------------------------*- C++ -*----------------------------------*\
| =========                 |                                                 |
| \\      /  F ield         | OpenFOAM: The Open Source CFD Toolbox           |
|  \\    /   O peration     | Version:  v1912                                 |
|   \\  /    A nd           | Website:  www.openfoam.com                      |
|    \\/     M anipulation  |                                                 |
\*---------------------------------------------------------------------------*/
FoamFile
{
    version     2.0;
    format      ascii;
    class       volScalarField;
    location    "30";
    object      p_rgh;
}
// * * * * * * * * * * * * * * * * * * * * * * * * * * * * * * * * * * * * * //

dimensions      [1 -1 -2 0 0 0 0];


internalField   nonuniform List<scalar> 
14268
(
43.3469
41.5677
39.0081
36.6088
36.4315
38.7721
42.6348
43.4092
43.5049
29.6963
19.9713
21.1981
28.2686
28.7179
28.9474
28.1773
27.8185
27.6552
27.4371
26.9235
26.4488
26.122
25.7131
24.839
23.5951
22.2298
20.9376
19.8455
19.0126
18.3764
17.7108
16.9995
16.8419
19.0064
24.4341
30.1879
34.4851
35.3237
35.9166
36.2792
36.1644
29.221
25.5799
24.0648
23.678
25.0112
35.6894
49.0118
52.1721
52.4737
52.6858
45.3032
30.8222
29.351
29.4188
29.4497
31.0872
35.5943
41.8476
47.2595
48.3321
48.5951
48.8063
48.9357
49.1306
49.4085
47.9715
46.4172
46.4659
47.4785
49.2653
50.8693
52.1929
53.3542
54.4416
54.9689
55.5441
55.95
55.2782
48.1864
40.0508
34.944
33.1998
37.4278
48.3481
48.3355
30.6509
21.2986
26.6431
29.0585
29.3975
29.5527
29.2388
25.4389
22.9249
22.7017
23.9946
24.9753
25.2365
24.8455
23.1289
22.8471
27.2129
33.0532
14.9722
10.7226
7.97263
7.48105
7.41673
7.31184
9.54346
20.3509
30.6938
31.2251
24.695
11.1832
10.9978
10.1912
8.8133
7.89255
7.36379
6.57604
5.565
5.09576
5.06263
5.47844
6.19427
6.77718
7.2313
7.35101
7.65984
7.40436
7.34273
7.29213
6.57742
4.70663
4.14734
3.98793
3.764
3.56335
6.15168
14.1345
22.8504
26.0422
24.6884
15.856
9.29199
6.36412
6.22855
7.15591
7.83832
15.6329
35.2643
52.4811
52.6783
42.8807
19.6965
12.3361
10.4468
9.73158
8.85321
9.95471
15.2581
20.4338
24.9266
28.0949
29.5087
29.9468
27.761
21.5243
14.8673
10.8077
9.74953
9.6542
9.75896
10.6655
11.8314
13.0125
15.6571
20.7123
25.9541
27.7561
20.2782
11.8288
6.60493
4.35859
3.28389
4.60978
29.3854
48.3323
23.9791
12.8733
13.5837
11.1162
7.79989
9.07666
12.4472
11.5254
4.39193
2.16744
1.89473
2.19116
2.96858
3.78357
2.1409
1.58335
1.51581
1.93048
12.9366
8.19509
6.66051
7.79776
8.70497
8.27135
7.56853
9.0966
20.3879
27.0446
20.672
7.535
5.00857
5.09089
5.18707
5.41756
5.79175
5.45697
3.71134
3.38259
3.41105
3.97114
4.15919
4.32012
4.27876
4.35054
3.82093
3.62906
3.65695
3.60435
3.32268
3.7013
4.4355
4.12447
3.16899
2.87731
2.84356
3.5151
6.64069
9.15535
9.92953
9.54615
8.79659
8.32875
16.2631
20.4025
16.5145
12.8356
13.4831
32.9461
46.2096
35.3216
11.0479
5.36495
4.66183
4.26233
3.93225
3.30599
4.98631
9.20885
13.1566
16.3533
17.127
16.4331
12.4912
8.5318
6.51022
5.67706
5.44232
5.57411
5.62718
4.6758
4.3822
3.73898
3.44193
3.31692
5.6827
8.48627
7.66441
3.82751
2.96865
2.45594
2.1422
2.00723
7.23877
31.1909
21.8397
6.31422
4.86433
3.19482
2.22413
2.06767
2.3518
2.55992
1.65825
1.0099
0.926694
0.796024
0.748372
0.807023
0.907178
1.09366
1.46694
1.84324
14.5463
8.14451
9.73967
19.9379
23.6913
21.1768
13.3362
9.36054
10.1361
15.4879
16.4539
14.0213
7.22784
6.09884
8.56625
12.9972
13.3402
13.4189
9.6192
7.45609
8.83606
9.68845
9.80643
10.057
10.0014
10.3014
9.57352
5.38535
3.58828
3.46104
4.83586
11.2434
15.9501
14.4788
10.3172
7.4165
4.99149
3.27678
2.91323
2.99954
3.18155
3.49992
9.74304
20.1586
29.6146
30.8329
31.5995
23.6751
18.1253
17.3869
25.1943
26.39
9.20103
4.30882
4.32247
4.25488
4.42033
4.26922
4.46661
4.61084
4.56821
4.41649
6.55997
8.43903
8.98715
6.82653
4.3845
3.57172
3.27427
3.93801
5.56516
4.65559
4.93051
3.45362
3.15089
2.4645
2.52799
3.12508
3.094
2.49018
2.34215
2.07913
1.7839
1.669
2.70908
13.5555
16.7508
5.44969
1.9962
1.82211
1.70559
1.64147
1.57565
1.54484
3.05124
3.43508
3.16402
2.59164
2.53862
2.35442
1.61964
1.82355
2.93932
2.79824
15.0034
9.68524
17.0383
29.6755
31.4453
31.5319
28.8964
10.3502
7.27727
7.47648
9.10087
11.893
13.3556
10.1429
8.03736
8.7706
7.76361
5.81093
9.47558
13.013
13.1163
13.0625
13.1724
14.0688
14.4996
14.7413
14.8279
14.4287
4.75448
3.45208
10.1711
26.4949
33.2425
29.1939
22.2594
17.1529
13.0568
8.96008
5.56848
3.47325
3.01566
3.58616
15.734
23.9011
23.119
18.1877
21.7911
34.6265
34.8203
15.0459
15.4115
22.8126
16.2457
9.47096
8.56717
8.86698
12.1942
14.7747
18.0798
20.9512
19.8077
14.3431
13.6527
13.4131
9.38757
4.91002
2.77651
1.54948
1.52836
1.94786
4.52061
9.12775
9.28649
9.20438
9.32977
3.27697
2.00119
2.00009
1.91016
1.84623
2.27286
2.02967
1.75891
1.62962
1.72508
4.1661
11.1664
5.17691
1.93469
1.76599
1.7295
2.18539
2.69161
3.60442
5.06464
4.92587
4.34982
3.59502
3.54351
3.72826
2.6386
2.4135
2.9285
1.35369
14.9884
18.8026
19.5654
27.2876
16.6499
12.2009
12.9574
13.6265
10.6926
5.93428
6.07658
9.05057
13.4792
13.6664
11.5841
5.50372
3.50755
3.2059
4.31282
5.00459
3.13126
2.54109
2.60823
3.01647
3.3183
3.39849
5.69351
10.1625
8.55056
6.95333
29.5349
42.3266
43.0391
43.3815
35.5055
27.2265
21.7696
18.5154
12.269
4.25664
3.13523
3.26716
8.58732
15.7758
8.74344
3.81466
5.04711
15.5236
23.0116
20.9252
11.3698
18.5446
25.0799
20.9842
20.3926
24.4457
40.5969
47.0801
47.351
47.8662
48.062
44.0604
29.0918
16.5864
6.93463
1.86436
1.09415
1.02249
1.21272
1.46643
1.69226
2.82633
7.74888
12.0104
12.1271
8.80533
2.09203
1.89705
1.80489
1.69758
2.0921
4.65715
8.59527
5.45537
1.48781
2.43529
6.69652
4.63832
2.08084
1.75902
3.53857
4.90916
4.62588
4.66087
4.59399
2.21015
0.908275
1.13703
1.3456
1.31466
2.46165
1.73737
1.50102
1.21731
12.0671
14.653
19.4471
19.207
7.48912
5.65122
6.19217
10.219
11.5621
8.12936
5.06453
5.10599
9.97347
13.7699
13.9056
9.83581
3.06236
2.70336
2.46848
2.22633
2.12256
2.25056
2.33061
2.49335
2.47959
2.59586
2.81425
5.12842
19.6629
29.932
29.8159
29.6216
17.4405
16.8271
12.5884
12.1675
8.18548
5.81959
5.31926
6.27323
6.74828
4.58452
4.77974
5.36427
4.95141
2.87202
3.44097
8.818
20.6809
24.723
8.9266
13.6323
26.2512
32.2296
32.4926
32.7268
36.9033
29.5013
24.6768
24.9912
43.754
52.9599
53.2894
42.4519
6.817
1.35746
0.907847
0.994646
1.18249
1.42944
1.66329
1.82522
1.95731
2.60342
7.45128
11.984
3.67607
1.81988
1.73784
1.64661
5.60311
18.9679
29.7631
21.0342
1.65068
1.68722
3.92285
3.41869
2.15508
2.87921
8.20897
9.46964
6.0383
2.37379
2.19511
2.01844
3.65368
5.98635
5.61721
2.09389
1.28701
1.09953
0.966255
1.18594
9.52796
10.9417
18.8476
12.8452
5.9378
4.96492
4.54594
7.69686
11.5604
10.4726
6.0208
4.34921
5.48673
12.5462
13.5578
6.45658
2.8977
2.64108
2.40912
2.16397
2.05143
2.16178
2.23333
2.3869
2.34073
2.40627
2.48326
2.94953
11.4275
22.9901
27.4983
26.8698
40.0748
40.4579
40.1559
17.7782
6.16247
3.19239
2.85953
5.64755
11.6663
11.1097
5.93878
5.92789
4.88537
2.48804
3.01726
6.46911
19.6503
24.8206
7.62643
7.46157
17.2313
25.825
29.9871
29.332
18.2548
7.80823
3.98468
3.64586
12.4673
25.8511
28.6869
18.9499
6.8714
2.72806
1.37481
1.23253
1.42268
1.67122
1.90281
1.80711
1.91963
2.00253
3.62601
12.0667
5.88964
1.72503
1.64035
2.31073
16.6477
36.3614
36.4932
36.571
7.67156
1.36222
2.24794
2.35556
2.21089
5.9602
9.93533
9.94556
9.4926
2.54103
1.72109
3.04453
8.11728
8.68467
8.85019
4.36829
0.737428
0.753365
0.892527
1.13994
9.07908
14.7404
22.9207
8.34233
5.26303
4.8064
4.17841
5.51116
9.39262
11.4338
7.76749
4.24278
4.0002
7.12208
9.93583
4.66045
2.78088
2.60926
2.37384
2.11816
1.99663
2.10129
2.16579
2.31782
2.27606
2.33054
2.3254
2.53255
5.11875
10.7922
14.2141
25.4869
40.3989
28.5025
10.6346
4.85079
3.31438
2.32118
1.8858
1.95845
8.69123
17.7143
17.4195
9.75304
3.42583
3.27648
5.05916
5.60307
16.3653
24.9039
9.30894
3.96699
8.97518
14.9757
17.7451
18.2862
7.8301
2.70312
2.40581
2.44983
3.38879
6.62657
7.65335
4.55777
1.55854
0.99541
0.931556
1.03585
1.27151
1.49033
1.72854
1.99447
2.10929
1.90678
2.19075
7.58358
13.1763
1.73806
1.62993
7.55008
33.4166
36.7052
36.8718
36.928
24.4466
1.27605
1.35944
1.67113
4.9543
7.84353
7.84748
6.6031
6.66187
5.22842
1.69309
4.70898
8.53576
8.49872
5.98911
5.68247
0.77242
0.940022
1.21483
1.53412
10.115
25.0203
24.1471
9.32874
4.90194
4.40933
3.75153
4.06001
7.54625
11.7701
12.2303
8.31526
3.88741
3.83358
5.74796
3.6137
2.71744
2.57991
2.34391
2.09646
2.21355
2.70829
2.21929
2.25158
2.21661
2.27635
2.24766
2.39965
2.50047
3.79587
5.94688
16.9675
22.2023
5.6026
1.65839
1.12845
0.886243
0.85396
0.962369
1.10515
5.1021
15.8641
18.7019
18.8008
6.65283
12.9285
15.2386
7.17123
12.2586
24.6592
11.9847
3.77066
4.01685
5.84286
7.81714
8.83302
4.94882
3.24203
3.02647
3.20139
2.31147
1.99661
1.89734
1.24895
0.796778
0.699646
0.69311
0.762877
0.919635
1.16529
1.45837
1.5924
1.78756
1.86784
1.93108
5.48724
21.1282
3.39523
3.10416
18.3407
36.6315
36.9309
37.0342
37.1307
36.9591
1.1962
1.30539
1.25421
3.29032
5.73397
3.50218
2.89219
4.50736
5.55993
2.35958
6.3793
7.70152
2.79256
1.3209
1.29612
1.17548
1.31094
1.88163
2.41957
16.1107
25.2128
21.7389
6.53943
4.76762
4.2862
3.68256
3.49906
6.44292
11.4593
12.3522
12.4459
7.07339
3.03995
3.15091
2.92409
2.68101
2.55495
2.31726
2.26297
3.49984
4.90273
3.31733
2.27701
2.16785
2.23332
2.20146
2.35695
2.39171
2.33288
6.28059
16.206
10.5964
5.39335
6.40161
1.59112
0.746854
0.716651
0.856599
0.972804
2.81024
12.1962
18.8824
15.5972
12.2926
32.0871
32.6228
12.0245
9.15164
21.4961
19.5376
3.59936
3.74872
3.64405
4.31792
7.43756
9.79452
12.658
18.0607
18.1407
7.11753
1.70566
0.982975
0.690088
0.656772
0.616897
0.621379
0.709575
0.890849
1.13075
1.43569
1.57827
1.69016
1.98314
2.16322
3.46804
22.8658
24.6826
30.9549
35.049
36.8091
37.2496
37.3775
37.4714
34.1213
2.36539
1.25632
1.16648
1.47288
2.2907
1.96956
1.89677
2.92999
5.37945
3.29198
3.53344
3.66425
1.18267
1.14682
1.27515
2.84864
1.79757
2.91072
3.31874
26.8493
25.4531
13.6669
6.68898
6.18672
6.38691
4.62609
3.54047
4.75878
10.0228
12.4969
12.5969
12.237
3.44864
2.73579
2.74388
2.66088
2.53091
2.2999
3.03838
5.46213
5.77067
5.40923
2.76996
2.16446
2.18976
2.15715
2.31688
2.35636
2.37109
10.448
22.5871
18.8936
14.7704
23.1638
9.39362
0.938171
0.484206
0.607679
0.79792
1.63699
7.10414
15.27
9.90752
20.43
38.1859
38.9919
23.0426
8.9411
17.8088
28.5408
3.48775
3.62487
7.33591
12.9729
16.475
24.333
33.6236
37.2112
35.9523
15.5843
3.1887
2.38122
1.62736
1.37672
0.950061
0.652564
0.701369
0.881778
1.12013
1.41889
1.72254
2.05295
2.77428
2.67765
2.50512
14.6944
27.4609
21.2693
18.5684
13.7511
17.1078
22.948
24.2863
12.5355
13.3808
1.20816
1.10465
0.881565
1.39649
2.50309
2.77728
2.71811
2.94136
7.1131
4.4667
1.39511
1.18651
1.61846
2.55714
5.27845
2.25031
4.46643
5.34621
22.2482
22.865
8.64853
9.13683
11.0006
14.625
10.1604
4.81884
4.44142
6.85394
11.3874
12.7831
12.9187
5.78309
2.7015
2.71501
2.64232
2.50811
2.4088
3.81435
5.71293
5.73116
5.7662
3.99587
2.92369
2.19851
2.1179
2.27982
2.3259
2.57728
16.6998
42.9679
32.2967
26.7202
34.3393
25.3309
5.35478
0.603985
0.534466
0.682051
1.38265
2.30299
6.11347
7.71254
25.68
38.7542
39.4771
38.9873
14.4207
12.7704
28.7096
9.86042
7.72897
25.4261
35.1942
37.3184
40.5381
40.9385
20.8199
5.93181
5.43395
8.69926
8.18863
3.22003
2.81157
1.85831
0.806521
0.693708
0.873542
1.11124
1.38254
2.13722
2.85682
3.90597
3.44922
2.24392
6.23944
18.0474
9.64373
7.15653
5.06205
6.40922
7.77803
7.90764
6.06604
12.0686
1.15651
1.04901
1.33279
2.55917
4.55679
5.36738
3.92311
3.90701
7.30578
6.98932
1.71089
2.9891
4.45534
4.11384
5.73102
2.70666
3.18571
9.03418
12.2199
12.2191
7.89481
11.2576
16.6827
23.539
17.1051
7.58015
5.36101
5.9109
5.37155
7.87031
11.7581
7.83469
2.72267
2.6877
2.62459
2.48409
2.60509
4.51971
5.15243
2.88177
4.03318
5.23444
4.70059
2.80327
2.07816
2.2432
2.29129
3.67747
30.4466
43.2877
44.1167
34.6278
34.8809
33.7983
17.7195
1.66104
0.376871
0.527722
1.27471
1.66614
1.85176
7.49689
32.6066
39.1336
39.8197
40.341
26.5832
12.6577
27.5505
31.1418
27.8047
49.1494
50.4378
50.8973
50.9157
35.7512
6.83795
1.74855
1.23584
1.52773
2.26797
2.64461
3.15349
3.15123
0.984329
0.753856
0.865934
1.10216
1.33354
2.41322
3.64693
4.02556
4.09059
2.23428
2.29392
4.74727
2.88013
3.24939
3.95005
6.83974
6.91663
6.80174
6.59268
5.35746
1.10904
1.69051
6.4399
9.89725
10.2854
10.1635
6.58443
5.162
7.34207
7.25739
2.77839
5.27539
5.41467
5.58205
5.76505
4.51939
3.0142
9.80105
8.27275
6.84924
8.77523
15.1493
23.0565
24.2642
24.0153
19.2347
10.5997
5.7534
3.35491
3.57155
5.73706
7.95009
3.27887
2.65724
2.59585
2.6091
3.25459
4.65323
3.03337
2.17327
2.74171
5.39314
5.39116
4.57573
2.24151
2.18956
2.24127
6.85465
38.025
38.4945
27.8959
35.3258
29.3344
34.5119
28.9491
9.09504
1.52224
0.506154
1.13271
1.54883
1.74265
5.96841
17.6808
27.3718
40.0157
41.1614
41.9641
15.8379
15.5989
32.2438
32.5822
32.098
50.2851
51.7076
50.6775
15.7969
3.16984
1.29236
1.02051
0.779319
0.83115
0.812943
0.938728
0.880604
0.899641
0.89055
0.855031
1.0904
1.30326
1.54942
1.86138
2.48976
4.11388
2.72374
2.22753
2.14329
2.02596
2.76408
12.8004
24.3045
24.1347
23.138
23.7126
2.50961
1.52768
8.74055
15.5053
15.7325
15.7706
14.6662
8.90839
5.71286
6.70864
4.48101
4.39682
5.31972
5.46468
5.63056
2.25699
4.56506
1.99323
4.18429
7.86857
8.84868
18.9746
19.6664
24.9952
24.8789
24.585
25.4124
14.0209
3.60413
2.64286
2.77816
3.77189
6.38525
4.69736
2.62357
2.59379
3.04028
4.06728
4.71045
2.27028
2.03903
2.05737
2.75919
4.88673
5.21504
3.51617
2.11807
3.36877
25.6966
35.7072
18.5157
14.1012
9.58056
6.79045
16.8945
30.1856
27.3788
11.0913
3.09333
1.33978
1.44067
1.66757
2.81936
5.23044
7.52418
17.9937
23.2126
22.1194
23.1508
9.59298
18.0534
12.7808
11.0497
30.8435
42.5436
28.6907
7.40769
3.20252
2.53218
1.11626
0.492294
0.421895
0.451309
0.598863
0.5986
0.589926
0.670429
0.843327
1.07517
1.36071
1.51549
1.59005
1.69165
1.96556
3.5219
2.22048
2.12776
2.01162
4.45434
20.5447
29.2567
29.6231
29.7036
29.4361
5.98755
12.9463
15.7357
15.8288
11.263
10.3436
10.9114
6.42444
2.16108
2.30941
2.16404
5.14824
5.37198
5.40436
4.77411
1.52408
1.89579
1.21639
1.47375
11.5659
15.0381
17.0442
26.6436
25.9792
25.7522
25.629
12.8682
3.64386
2.47679
2.61808
2.75933
2.98979
4.08472
5.56558
2.73893
2.77322
3.93784
5.19463
3.81483
2.03657
1.96674
1.96146
2.15722
2.65191
5.02345
5.16321
2.05774
4.30731
17.1266
17.5184
8.23763
7.55644
3.26669
2.37772
4.79461
22.8825
29.4636
27.8782
10.6818
2.51685
2.00539
2.28253
2.25755
8.10403
18.4631
11.0588
5.91085
6.0623
8.3166
9.02968
5.04094
4.7412
5.49372
12.2768
17.5516
15.7046
10.9005
9.10488
5.82675
3.49394
0.825939
0.444753
0.434283
0.583593
0.579805
0.581429
0.659918
0.831403
1.12565
1.83678
2.01199
1.56593
1.66668
1.74438
3.59677
2.21597
2.14444
2.72301
5.02587
23.6048
29.6704
10.9957
9.38058
26.3371
25.9081
11.8098
15.9293
10.1529
3.53994
5.40811
7.26792
6.02798
1.75322
1.69112
3.1615
5.1958
3.22299
1.97533
2.60626
1.56846
1.09868
1.19018
1.48676
17.5636
16.06
10.8088
17.1984
26.1371
26.4206
20.889
5.74719
2.50459
2.43349
2.59236
2.73155
2.88022
3.48534
5.64232
3.24268
3.69675
5.34667
5.24545
2.98815
1.97259
1.88893
1.86988
2.05392
2.12553
2.93801
5.21513
2.07109
3.20033
7.773
5.83216
4.53694
5.26542
1.80131
1.39979
1.48884
12.2836
29.5908
28.9874
20.8043
3.81409
1.80015
1.90929
4.36336
20.3243
37.0351
35.3714
13.629
4.23705
4.3714
6.95995
4.74766
4.53112
4.38052
4.61862
5.21689
5.34246
4.02923
3.3314
7.5755
7.95189
2.3447
0.786299
0.505877
0.57297
0.558005
0.5686
0.652359
0.829469
1.33348
2.11524
2.28758
1.61121
1.64726
1.72279
3.61574
2.76518
2.23494
2.35237
5.25575
23.7427
20.223
3.38558
3.91091
8.0646
18.3017
5.79909
14.6587
2.85704
1.08865
2.56158
5.56125
6.994
2.39662
1.78278
3.85623
3.32443
0.53864
0.414812
1.68013
3.79886
1.01751
1.16818
2.7064
16.0594
13.3055
8.473
9.16825
14.4858
22.9757
15.7008
4.64552
2.14921
2.40999
2.57961
2.72303
2.84172
2.99839
3.67385
4.58839
4.03934
5.39919
5.30584
2.41884
1.92701
1.83011
1.7847
1.97355
2.03652
2.53028
5.20227
2.25502
2.2487
2.58001
1.1784
3.00556
4.2057
4.15697
1.1627
1.20834
3.94728
16.8658
26.7294
25.9243
6.83012
2.01247
1.8887
8.71622
28.5453
37.9356
38.3732
35.4714
5.3623
4.25472
5.10988
4.66773
4.39057
4.58483
3.1798
2.54681
2.49737
2.31222
1.6604
4.74903
8.68224
7.17418
2.35205
0.869025
0.68709
0.608831
0.599352
0.676685
0.991967
1.67835
2.11891
2.28783
1.76067
1.68473
1.70643
2.95666
3.54681
3.49634
1.87424
6.63065
23.4323
7.78587
3.34556
3.2634
4.55298
10.391
1.93668
6.25377
1.20308
1.07479
1.28289
4.29367
7.42242
7.3003
6.48391
2.64406
0.798584
0.230058
0.2524
1.25051
3.8342
1.04081
1.16182
4.25372
10.264
7.85494
7.12064
6.2746
7.74075
12.9053
11.942
5.3866
2.3757
2.38904
2.5635
2.71821
2.76601
2.91436
3.26939
4.63476
4.4411
5.44361
4.52404
2.17122
1.8928
1.91517
1.91355
1.88715
1.95772
2.24189
3.91801
2.90472
1.97504
1.43986
0.558226
1.70277
4.34725
7.3551
1.1895
1.09788
1.70681
8.14107
17.7505
22.4065
11.0213
2.80569
1.871
3.95086
8.54681
13.2889
26.4111
22.0784
11.5693
5.81039
5.05478
6.9814
7.81746
15.7483
5.69032
4.48591
3.66852
2.05157
1.23328
3.17789
8.69412
8.89094
5.32473
1.37413
0.802155
0.634997
0.622944
0.802253
1.23566
1.90456
2.12103
2.28984
1.92699
1.8317
1.69774
2.17777
3.56924
3.0781
1.80251
14.097
23.4117
6.29035
3.90489
2.77336
3.24877
6.56724
1.47437
1.5855
1.19745
1.06208
0.94466
3.52036
6.46064
7.37714
3.98847
1.04938
0.400119
0.161954
0.200978
0.667607
2.27216
1.35924
1.75255
5.94624
8.36597
6.77553
5.82116
4.90253
5.12168
7.92742
9.08372
6.76967
2.74943
2.43647
2.57598
2.71012
2.71182
2.87064
2.98049
4.31306
4.9955
5.47465
3.18648
2.14317
1.99619
2.55587
2.54735
1.88045
1.87838
2.08708
3.79227
5.25939
1.91095
1.38889
0.476949
1.42077
5.71587
7.44106
1.71539
1.15378
0.983646
4.24064
11.9166
17.2468
15.5363
4.13253
1.85042
1.98102
2.21165
5.25485
10.8596
15.4624
16.5828
9.54388
5.2045
10.5705
14.7172
17.1038
15.8592
6.45015
3.76641
1.866
1.27922
2.21295
7.24127
9.01764
7.28414
2.05437
0.939236
0.662679
0.634132
0.905026
1.41698
1.91201
2.12303
2.28597
2.10093
1.95236
1.75649
1.78615
2.73613
2.09713
1.80556
8.72224
15.5145
6.692
6.55021
2.5744
2.39036
4.05954
1.60606
1.3371
1.18943
1.054
1.212
2.65385
4.13337
5.02558
1.5336
0.46305
0.340574
0.120772
0.153857
0.374851
0.909649
1.52295
2.2307
7.09269
8.50999
7.17673
4.81628
3.2416
3.18681
5.34246
7.03408
6.06489
2.91502
2.4672
2.44948
2.52689
2.62129
2.77812
2.84908
3.30221
4.57988
4.53035
2.53304
2.01595
2.72779
4.52039
4.97441
3.40318
2.4759
2.59556
4.27621
5.39966
2.26312
1.20975
0.480234
1.77415
4.74903
4.43218
1.87858
0.671727
0.690119
2.36414
7.54172
12.5877
13.6475
6.36844
1.80589
1.80484
1.78095
2.77493
6.38523
11.5548
17.4389
13.6731
5.02639
5.08648
8.35828
13.8599
17.3831
15.5993
5.63266
1.78219
1.06551
0.96929
3.17528
7.2035
7.49609
3.24666
1.00346
0.63335
0.599012
0.987822
1.57957
1.87959
2.1292
2.31383
2.3534
2.06904
1.80143
1.67587
1.74932
1.70249
2.00931
4.9286
7.35705
7.29553
7.2024
3.66965
2.1536
2.17543
2.2133
1.42597
2.41415
2.77405
2.6636
1.68096
1.54666
1.82345
1.10791
0.412492
0.175675
0.0297477
0.0315629
0.154443
0.430539
0.867363
1.77046
7.62721
6.53729
6.06788
4.58604
3.67526
3.01708
2.44681
2.10904
1.80827
1.88769
2.03562
2.18204
2.30388
2.3775
2.66176
2.98626
2.93056
3.01057
4.25319
3.73327
2.24362
2.70243
6.4425
7.46226
7.41134
6.74868
4.89153
3.63972
3.7511
3.53726
1.88156
0.925259
1.34874
2.06902
1.65317
1.96767
1.42045
0.669418
1.09369
1.68502
1.59809
1.34703
1.57525
2.00725
2.27587
2.61093
5.3173
6.12065
7.02432
5.44198
5.61667
6.68461
6.92638
6.40936
5.21806
4.14721
2.20889
2.03632
2.79102
2.17503
1.34592
0.931096
0.984226
0.66669
1.0052
1.0463
0.700367
0.525422
0.638743
0.870159
1.25904
1.76534
2.05422
2.12999
1.88262
1.68092
1.60413
1.57044
1.51541
1.49685
1.9633
2.58808
3.55314
3.6893
3.51812
2.886
1.60398
1.34833
1.21601
1.30162
1.3235
0.949908
0.433057
0.175657
0.0725769
0.0456728
-0.0404556
-0.131865
-0.191927
-0.199062
-0.164693
-0.0978472
0.0146627
0.191638
0.499149
4.5265
3.84315
3.26219
2.80862
2.38506
1.96932
1.63636
1.57124
1.72258
1.91282
2.07585
2.23451
2.34482
2.39117
2.42328
2.5099
2.81236
3.90154
3.94465
3.20507
2.26011
2.31918
3.05902
7.60019
8.19988
8.30925
6.81213
4.4996
3.96418
2.57475
1.10476
0.352127
0.102518
0.0419044
0.0438772
-0.0505132
-0.189507
-0.324201
-0.416274
-0.234474
0.0667654
0.458236
0.820623
0.991555
1.0806
1.18478
1.68213
3.76222
5.15475
2.66177
2.45299
2.61305
2.6966
1.98352
0.825574
0.311429
0.588985
1.24285
1.91176
1.82691
0.79288
0.304166
0.285853
0.86844
0.990756
0.751938
0.538148
0.585735
0.739482
0.927453
1.1402
1.34012
1.5827
2.08007
2.20431
2.00543
1.61219
1.45336
1.36976
1.23359
1.13289
1.16517
1.06552
1.08866
1.12163
1.05885
1.02279
0.881086
0.686005
0.48043
0.299028
0.1844
0.10207
0.00331852
-0.0907706
-0.157056
-0.204471
-0.234998
-0.24845
-0.25223
-0.231385
-0.164787
-0.0714849
0.0582113
5.14655
3.49172
2.83913
2.66996
2.46259
2.19771
1.95718
1.87676
1.88249
1.94107
2.03171
2.1491
2.26434
2.33062
2.36326
2.32211
2.34502
2.45266
3.28518
3.2456
2.98658
2.11991
1.81997
1.77202
4.03701
7.55894
7.47526
4.41912
2.4635
1.53307
0.774407
0.225698
0.0551133
-0.0674348
-0.222036
-0.370548
-0.515645
-0.569447
-0.508379
-0.340294
-0.0698321
0.238445
0.480791
0.639305
0.747975
0.845726
0.968787
1.16977
1.99839
3.24217
3.20735
2.14434
1.05365
0.780798
0.728659
0.68667
0.900179
1.02709
1.06546
1.28296
1.10295
0.67656
0.344082
0.361836
0.437775
0.468711
0.528351
0.593513
0.70396
0.889527
1.07966
1.26773
1.40482
1.57458
2.16728
2.32132
2.28337
1.7702
1.3371
1.1654
1.03134
0.93079
0.828082
0.884243
0.948931
0.902793
0.820594
0.701777
0.552947
0.420868
0.300389
0.19177
0.0776525
-0.0370461
-0.132733
-0.193571
-0.234377
-0.263607
-0.278918
-0.288112
-0.2796
-0.241657
-0.207522
-0.144017
7.60371
4.18173
2.59289
2.36066
2.12605
1.91209
1.76319
1.67503
1.69754
1.7884
1.9094
2.02883
2.13917
2.21976
2.24157
2.19803
2.07413
1.91047
1.85001
1.84045
2.0374
2.44802
2.31761
1.76512
1.39227
1.64499
3.60601
3.03755
1.38755
0.847915
0.540056
0.200879
-0.105045
-0.314564
-0.49388
-0.667274
-0.765584
-0.771099
-0.654642
-0.450587
-0.165179
0.141019
0.398655
0.57809
0.689085
0.764256
0.844447
0.914366
0.966079
1.08381
2.21865
2.71158
2.54064
1.44968
0.469008
0.514702
2.09027
2.69756
1.7982
0.738777
0.486096
0.330096
0.178111
0.204913
0.259595
0.262349
0.321334
0.441222
0.609834
0.866442
1.13339
1.31724
1.42658
1.46988
1.53357
1.66777
2.08388
2.05304
1.8369
1.33542
1.02528
0.906018
0.838092
0.824086
0.82921
0.794162
0.733697
0.643899
0.520198
0.398769
0.271491
0.133645
0.00834637
-0.102424
-0.188979
-0.238709
-0.272739
-0.288642
-0.292226
-0.286555
-0.282369
-0.248122
-0.227345
-0.0592746
7.76118
4.09272
2.27841
2.13214
2.0139
1.90472
1.8183
1.75567
1.71932
1.75324
1.85049
1.9484
2.0506
2.13206
2.16264
2.1149
1.98609
1.82958
1.61993
1.40535
1.25076
1.19444
1.82382
1.81674
1.36879
1.5139
2.63044
3.05443
2.23983
0.997964
0.697525
0.540674
0.153958
-0.250569
-0.589046
-0.832494
-0.92571
-0.881908
-0.753516
-0.519758
-0.217466
0.0942894
0.36658
0.568933
0.707224
0.804647
0.891754
0.979304
1.04271
1.09472
1.10548
1.33943
2.66126
2.58512
1.17623
1.32585
5.46283
7.93386
4.0338
0.914239
0.469928
0.398916
0.360273
0.315591
0.297017
0.294121
0.319014
0.391431
0.563387
0.74544
0.960958
1.20205
1.4049
1.50175
1.4951
1.50675
1.52335
1.61943
2.0512
1.92661
1.66646
1.10031
0.844804
0.837589
0.846735
0.845418
0.771992
0.655653
0.523678
0.389688
0.253177
0.107664
-0.0321177
-0.152005
-0.24077
-0.28368
-0.301896
-0.294211
-0.27971
-0.252305
-0.225744
-0.186979
-0.173437
0.0431477
6.31719
3.24271
1.95331
1.85944
1.76839
1.66022
1.56276
1.54475
1.56122
1.62016
1.71696
1.81149
1.91263
1.98982
2.00746
1.95921
1.8682
1.7419
1.55876
1.36316
1.11409
0.943929
0.863492
1.01871
1.34015
1.3803
1.50283
2.39884
3.25501
2.93011
1.44779
1.13992
0.694092
0.00352208
-0.756335
-1.11439
-1.17754
-1.15796
-0.964791
-0.676096
-0.323319
0.0283988
0.325782
0.539424
0.680833
0.785403
0.869725
0.921074
0.936338
0.919512
0.858081
0.804306
1.00711
0.977108
0.813056
1.4403
7.33524
8.42688
6.35241
1.4688
0.151105
0.10314
0.0676605
0.0482732
0.0482273
0.0767497
0.111458
0.248177
0.458013
0.662567
0.881329
1.06369
1.21721
1.37667
1.45206
1.46802
1.398
1.33485
1.45819
1.94247
1.84508
1.42181
0.894884
0.784475
0.819563
0.833744
0.742366
0.591917
0.460569
0.329731
0.180512
0.0235212
-0.129707
-0.254748
-0.338486
-0.366282
-0.350653
-0.314883
-0.270619
-0.210195
-0.144494
-0.0783402
-0.0492755
0.158805
4.79739
2.92198
1.78534
1.70599
1.78343
1.82562
1.7895
1.67729
1.54417
1.53129
1.61179
1.69625
1.78666
1.85722
1.87773
1.84085
1.7609
1.6446
1.49605
1.3043
1.09309
0.902789
0.745749
0.688191
0.700669
0.948649
0.960161
1.13748
2.4861
5.78771
5.59777
2.56029
0.446665
-0.885455
-1.51731
-1.73794
-1.70546
-1.52415
-1.19109
-0.794377
-0.378329
-0.0116007
0.280338
0.498832
0.648246
0.762682
0.865182
0.933289
0.963378
0.955279
0.916692
0.848418
0.757372
0.632965
0.596753
0.984044
5.78293
8.94403
7.58493
2.46162
0.310022
0.24445
0.197574
0.139458
0.0590618
0.0535698
0.0521013
0.214382
0.426718
0.646141
0.850147
1.02051
1.19283
1.29746
1.35139
1.38507
1.3892
1.31932
1.2568
1.34088
1.87053
1.62525
1.03732
0.797543
0.870047
0.942527
0.817758
0.614826
0.461392
0.309859
0.130985
-0.042671
-0.210978
-0.350244
-0.428205
-0.439921
-0.390841
-0.323304
-0.248619
-0.163728
-0.0648619
0.0297712
0.0929199
0.251878
3.08195
2.27124
1.86151
2.44095
2.61697
2.6003
2.60282
2.43791
1.82853
1.47139
1.4601
1.54393
1.62276
1.68542
1.70021
1.66028
1.59142
1.50186
1.36537
1.18323
0.989735
0.800204
0.660265
0.549104
0.498102
0.47805
0.472136
0.540464
0.911563
4.13632
6.177
5.89724
2.10904
-1.08534
-1.93904
-2.05442
-1.92382
-1.70302
-1.32604
-0.847525
-0.123788
0.483867
0.524272
0.483101
0.580758
0.706432
0.815533
0.863553
0.863575
0.844071
0.796254
0.684922
0.624111
0.558852
0.37447
0.403231
1.53205
7.97656
8.8751
5.75047
0.810571
-0.0294766
-0.0338324
-0.0547177
-0.109108
-0.147328
-0.0570021
0.138965
0.368287
0.610208
0.793306
0.97621
1.12883
1.20984
1.25844
1.28508
1.26203
1.17754
1.12849
1.12119
1.22703
1.42764
1.11854
0.879186
1.05141
1.10224
0.892528
0.588628
0.398472
0.224076
0.0426695
-0.155051
-0.348321
-0.481196
-0.52528
-0.535869
-0.455406
-0.349684
-0.241618
-0.134221
-0.0185704
0.096932
0.198439
0.322039
1.7919
1.4665
1.2703
1.32739
1.52309
2.16384
2.43282
2.53928
2.27094
1.54516
1.32525
1.4052
1.47898
1.53715
1.54833
1.51299
1.45
1.36124
1.23539
1.05845
0.85272
0.686454
0.545473
0.407125
0.339961
0.255134
0.243252
0.0985734
0.0530967
0.574758
3.421
5.73588
5.27803
3.59706
1.86572
0.700621
-0.184558
-1.2114
-1.35384
-0.857478
0.333904
1.59992
1.42042
0.777349
0.539157
0.673204
0.760023
0.788585
0.801196
0.795764
0.729846
0.659342
0.590954
0.555315
0.4186
0.247762
0.365165
2.1832
8.60056
8.80803
6.85289
2.00167
0.131677
-0.124128
-0.24776
-0.223183
-0.0299101
0.185815
0.405375
0.619758
0.794444
0.971337
1.07263
1.16827
1.22436
1.22864
1.20023
1.15215
1.13962
1.10818
1.03317
1.00234
0.897807
0.867473
1.77555
2.11071
1.36348
0.581623
0.319114
0.150067
0.0115036
-0.175662
-0.390998
-0.530683
-0.624523
-0.659211
-0.566693
-0.407892
-0.249074
-0.119979
-0.00411207
0.115463
0.243101
0.399
1.71954
0.955082
0.699785
0.615106
0.639343
0.618537
0.822506
1.19449
1.32884
1.28041
1.20779
1.24158
1.31275
1.36145
1.36164
1.32272
1.26058
1.17558
1.03188
0.83982
0.681477
0.528424
0.358267
0.260232
0.118833
0.00574693
-0.00889526
-0.149963
-0.352386
-0.589321
-0.224427
1.1746
4.93296
4.53625
4.19969
4.27152
4.18106
0.377224
-1.20946
-0.775499
0.830005
1.70844
1.99444
1.46279
0.645428
0.610774
0.664777
0.686795
0.695494
0.634743
0.535092
0.459448
0.428685
0.389349
0.320486
0.16219
0.0144892
0.147686
1.71522
7.77891
9.09139
8.95484
6.0699
2.09447
-0.184747
-0.25208
-0.00294371
0.211117
0.428467
0.627865
0.791031
0.914195
0.984762
1.07498
1.12204
1.11947
1.06677
1.03188
1.02014
0.955249
0.902045
0.800599
0.708572
0.722274
1.73847
4.21063
2.50486
0.698079
0.219611
0.0883815
0.036754
-0.297182
-0.682795
-0.840099
-0.971
-0.92429
-0.762807
-0.527576
-0.301439
-0.139521
-0.00954857
0.109934
0.246157
0.416841
2.26111
0.656786
0.403652
0.428707
0.529373
0.600695
0.6888
0.796325
0.899932
1.00412
1.09494
1.14412
1.18687
1.21216
1.19982
1.15887
1.09568
0.996358
0.841118
0.661929
0.488455
0.309135
0.168005
0.0126301
-0.164398
-0.233779
-0.349431
-0.455178
-0.617254
-0.874365
-1.19849
-1.33332
-0.131938
0.872623
3.40101
4.29403
1.77479
-0.466858
-0.934414
-0.559849
0.677162
1.87768
2.10172
1.61666
0.695867
0.562276
0.599774
0.609764
0.568915
0.485976
0.401164
0.362475
0.334678
0.221672
0.144109
0.108241
-0.0565096
-0.171999
-0.139185
1.32338
3.48205
8.89576
8.94012
5.74793
0.937375
-0.0991291
0.123815
0.332546
0.533674
0.697223
0.804287
0.883968
0.96966
1.0258
1.05231
1.04442
0.971984
0.972175
0.993825
0.868038
0.811151
0.77277
0.624076
0.581599
1.47347
4.23289
3.91939
1.35329
0.124037
-0.04764
-0.0439205
-0.535784
-0.957436
-1.11981
-1.19641
-1.09102
-0.874104
-0.620648
-0.368013
-0.173774
-0.021155
0.112622
0.24907
0.407488
6.18925
0.34708
0.281055
0.272839
0.40608
0.593153
0.664351
0.766514
0.842524
0.950004
0.997203
1.02808
1.05049
1.056
1.03154
0.976347
0.890317
0.765214
0.602416
0.422934
0.247949
0.0826177
-0.0930511
-0.303329
-0.455944
-0.546583
-0.685341
-0.787921
-0.903171
-1.09167
-1.34877
-1.57475
-1.83047
-1.95014
-1.32056
-0.628313
-0.189144
-0.36289
-0.592859
-0.232044
0.964386
2.07868
1.78641
0.760667
0.477246
0.52663
0.549138
0.544914
0.483935
0.362535
0.269177
0.205561
0.0546298
-0.0802437
-0.0535051
-0.0814643
-0.159874
-0.308434
-0.350472
-0.359566
-0.167279
1.58146
2.44195
1.78138
0.677189
0.127223
0.278103
0.471622
0.615823
0.726533
0.811029
0.873293
0.937898
0.968388
0.969507
0.928226
0.843196
0.879442
0.846663
0.725439
0.626497
0.626055
0.584096
0.391361
0.554217
3.02355
3.88351
2.64818
0.305523
-0.198122
-0.174876
-0.448716
-0.340454
-0.0804542
-0.264261
-0.840934
-0.928131
-0.664955
-0.401634
-0.185927
-0.0154877
0.122783
0.251224
0.381263
6.16934
0.0763496
0.395944
0.266434
0.545335
0.900773
0.997519
0.922482
0.868275
0.916047