/*--------------------------------*- C++ -*----------------------------------*\
| =========                 |                                                 |
| \\      /  F ield         | OpenFOAM: The Open Source CFD Toolbox           |
|  \\    /   O peration     | Version:  v1912                                 |
|   \\  /    A nd           | Website:  www.openfoam.com                      |
|    \\/     M anipulation  |                                                 |
\*---------------------------------------------------------------------------*/
FoamFile
{
    version     2.0;
    format      ascii;
    class       volScalarField;
    location    "70";
    object      alpha.water;
}
// * * * * * * * * * * * * * * * * * * * * * * * * * * * * * * * * * * * * * //

dimensions      [0 0 0 0 0 0 0];


internalField   nonuniform List<scalar> 
14268
(
7.16126e-05
6.18455e-05
6.01192e-05
6.88341e-05
0.000120758
0.000133838
0.00012661
5.8727e-05
7.163e-06
8.71215e-07
8.71213e-07
2.32764e-06
8.06267e-06
8.99285e-06
4.79836e-06
8.92281e-07
6.77168e-07
1.37948e-06
2.3742e-06
3.17703e-06
4.20697e-06
7.04536e-06
1.66686e-05
3.93013e-05
5.39468e-05
5.39483e-05
4.18238e-05
2.45076e-05
1.51472e-05
1.43469e-05
1.43874e-05
1.44344e-05
1.4535e-05
1.48606e-05
1.5554e-05
1.63518e-05
1.91488e-05
3.85579e-05
8.52443e-05
8.93868e-05
8.93938e-05
8.93868e-05
8.85049e-05
8.01107e-05
5.54467e-05
1.9817e-05
6.7898e-07
2.49897e-20
5.89917e-34
-1.83692e-28
-9.61865e-29
-4.34654e-29
-1.91932e-29
-7.77152e-30
-2.85096e-30
-9.56972e-31
-2.96822e-31
-8.56446e-32
-2.30994e-32
-5.84621e-33
-1.39281e-33
-3.13106e-34
-6.65157e-35
-1.33625e-35
-2.53861e-36
-4.55929e-37
-7.7368e-38
-1.23985e-38
-1.87561e-39
-2.67775e-40
-3.60742e-41
-4.58588e-42
-5.5016e-43
-6.22959e-44
-6.65906e-45
-6.721e-46
-6.40632e-47
-5.76795e-48
-4.90629e-49
-3.94348e-50
-2.9955e-51
-2.15076e-52
-1.45985e-53
-9.36873e-55
-5.6854e-56
-3.26289e-57
-1.77114e-58
-9.09401e-60
-4.41724e-61
-2.02991e-62
-8.82596e-64
-3.6311e-65
-1.4136e-66
-5.20775e-68
-1.81561e-69
-5.99036e-71
-1.87047e-72
-5.52732e-74
-1.54577e-75
-4.09106e-77
-1.02465e-78
-2.42856e-80
-5.44679e-82
-1.15592e-83
-2.32108e-85
-4.40959e-87
-7.92547e-89
-1.34754e-90
-2.16726e-92
-3.2969e-94
-4.74338e-96
-6.45388e-98
-8.30368e-100
-1.01018e-101
-1.16189e-103
-1.26337e-105
-1.29855e-107
-1.26156e-109
-1.15834e-111
-1.0051e-113
-8.241e-116
-6.38422e-118
-4.67254e-120
-3.2305e-122
-2.1097e-124
-1.30123e-126
-7.57942e-129
-4.16883e-131
-2.16496e-133
-1.06143e-135
-4.91246e-138
-2.14597e-140
-8.84747e-143
-3.44223e-145
-1.26367e-147
-4.37682e-150
-1.43007e-152
-4.40747e-155
-1.28113e-157
-3.51183e-160
-9.07701e-163
-2.21199e-165
-5.08146e-168
-1.10032e-170
-2.24546e-173
-4.31819e-176
-7.82414e-179
-1.33549e-181
-2.14681e-184
-3.2496e-187
1.65268e-05
1.43794e-05
1.39346e-05
1.48708e-05
2.78444e-05
0.000111263
0.000126581
8.0717e-05
2.60759e-05
1.13041e-05
2.05081e-05
7.26617e-05
0.000125012
0.000132377
0.000100017
3.5668e-05
1.69102e-06
8.81618e-07
4.01887e-06
7.91692e-06
1.22481e-05
1.60987e-05
3.16071e-05
4.92685e-05
5.39483e-05
5.0195e-05
2.78002e-05
7.65503e-06
3.91011e-06
3.78671e-06
3.68684e-06
3.67814e-06
3.94442e-06
4.85924e-06
5.10312e-06
5.05111e-06
5.73627e-06
1.28697e-05
4.55059e-05
8.26024e-05
8.16928e-05
6.89918e-05
4.98927e-05
3.63763e-05
2.84052e-05
1.61002e-05
2.35635e-06
4.51201e-26
-8.11211e-28
-1.66979e-28
-8.74748e-29
-5.23976e-29
-2.60436e-29
-1.07751e-29
-3.81822e-30
-1.18741e-30
-3.31018e-31
-8.43828e-32
-2.00536e-32
-4.5236e-33
-9.82794e-34
-2.07449e-34
-4.2619e-35
-8.48911e-36
-1.62847e-36
-2.98779e-37
-5.21349e-38
-8.61767e-39
-1.34603e-39
-1.98388e-40
-2.75722e-41
-3.61262e-42
-4.46249e-43
-5.19763e-44
-5.70955e-45
-5.91668e-46
-5.78556e-47
-5.33968e-48
-4.65258e-49
-3.82809e-50
-2.97494e-51
-2.18409e-52
-1.51513e-53
-9.93333e-55
-6.15575e-56
-3.60642e-57
-1.99777e-58
-1.04651e-59
-5.18462e-61
-2.42947e-62
-1.07687e-63
-4.51543e-65
-1.7912e-66
-6.72221e-68
-2.3868e-69
-8.01786e-71
-2.54824e-72
-7.6622e-74
-2.17966e-75
-5.86585e-77
-1.49334e-78
-3.59628e-80
-8.19194e-82
-1.76494e-83
-3.59629e-85
-6.92987e-87
-1.26273e-88
-2.17556e-90
-3.54384e-92
-5.45732e-94
-7.94422e-96
-1.09307e-97
-1.42146e-99
-1.74691e-101
-2.02869e-103
-2.22604e-105
-2.30771e-107
-2.26007e-109
-2.09083e-111
-1.82696e-113
-1.50771e-115
-1.17502e-117
-8.64714e-120
-6.00844e-122
-3.94163e-124
-2.44104e-126
-1.427e-128
-7.87378e-131
-4.1003e-133
-2.01503e-135
-9.34428e-138
-4.08855e-140
-1.68776e-142
-6.57261e-145
-2.41437e-147
-8.36526e-150
-2.73346e-152
-8.42323e-155
-2.44749e-157
-6.70523e-160
-1.73181e-162
-4.21651e-165
-9.67644e-168
-2.09293e-170
-4.26593e-173
-8.19321e-176
-1.48256e-178
-2.52713e-181
-4.05684e-184
-6.1325e-187
7.12603e-06
6.20647e-06
6.14832e-06
7.97789e-06
1.64649e-05
6.12827e-05
0.000100624
8.71066e-05
7.66943e-05
5.71704e-05
8.94613e-05
0.000226576
0.000249221
0.000249209
0.000242906
0.000157879
3.68704e-05
9.83516e-07
2.16011e-06
1.04964e-05
2.06632e-05
2.06648e-05
1.75765e-05
2.25197e-05
3.69748e-05
3.50324e-05
2.0296e-05
5.94127e-06
2.42652e-06
1.95218e-06
1.4858e-06
1.23727e-06
1.36151e-06
2.69029e-06
4.60342e-06
3.62669e-06
3.54139e-06
4.46054e-06
1.67407e-05
3.71038e-05
3.67109e-05
2.89517e-05
1.83087e-05
1.60781e-05
1.8132e-05
1.51881e-05
4.36741e-06
2.14189e-08
4.57268e-22
2.19385e-41
-1.97008e-29
-1.4966e-29
-7.99812e-30
-3.45279e-30
-1.27169e-30
-4.14049e-31
-1.22516e-31
-3.37167e-32
-8.79123e-33
-2.19894e-33
-5.30492e-34
-1.23338e-34
-2.75096e-35
-5.85274e-36
-1.1817e-36
-2.25574e-37
-4.061e-38
-6.88533e-39
-1.09866e-39
-1.64946e-40
-2.33012e-41
-3.09782e-42
-3.877e-43
-4.56914e-44
-5.07241e-45
-5.30613e-46
-5.23197e-47
-4.86421e-48
-4.2653e-49
-3.52859e-50
-2.75479e-51
-2.03014e-52
-1.41261e-53
-9.28281e-55
-5.76229e-56
-3.37956e-57
-1.87307e-58
-9.812e-60
-4.85887e-61
-2.27483e-62
-1.00706e-63
-4.21595e-65
-1.66922e-66
-6.25091e-68
-2.21415e-69
-7.41866e-71
-2.35132e-72
-7.04973e-74
-1.99945e-75
-5.36438e-77
-1.36142e-78
-3.26826e-80
-7.4212e-82
-1.59384e-83
-3.23746e-85
-6.21908e-87
-1.12975e-88
-1.94062e-90
-3.15189e-92
-4.83991e-94
-7.02596e-96
-9.64138e-98
-1.25056e-99
-1.53306e-101
-1.77613e-103
-1.94449e-105
-2.0115e-107
-1.96597e-109
-1.81527e-111
-1.58334e-113
-1.30449e-115
-1.01508e-117
-7.4597e-120
-5.17681e-122
-3.39225e-124
-2.09875e-126
-1.22588e-128
-6.75938e-131
-3.51808e-133
-1.72824e-135
-8.0125e-138
-3.50557e-140
-1.44723e-142
-5.63729e-145
-2.07163e-147
-7.18181e-150
-2.34846e-152
-7.24328e-155
-2.10685e-157
-5.77899e-160
-1.49463e-162
-3.64458e-165
-8.37794e-168
-1.81538e-170
-3.70752e-173
-7.13576e-176
-1.29412e-178
-2.21116e-181
-3.55849e-184
-5.39324e-187
2.49068e-06
1.42337e-06
1.36168e-06
2.79932e-06
1.10769e-05
3.33332e-05
6.25261e-05
0.000119964
0.000203594
0.000237518
0.000228963
0.000173706
9.41006e-05
0.000121642
0.000223798
0.000221929
0.000100626
8.42105e-06
1.41401e-06
3.03924e-06
9.7175e-06
1.12847e-05
8.27661e-06
1.11308e-05
1.8817e-05
1.87463e-05
1.36116e-05
7.41339e-06
2.79241e-06
6.45274e-07
2.29371e-07
2.07819e-07
2.32219e-07
7.11025e-07
4.28674e-06
5.84665e-06
5.29055e-06
4.28538e-06
5.94249e-06
9.38388e-06
8.85203e-06
6.73395e-06
6.39125e-06
8.23628e-06
1.39466e-05
1.48371e-05
9.43325e-06
1.26147e-06
2.18841e-24
1.86271e-38
-8.38059e-30
-7.11992e-30
-4.31564e-30
-2.14143e-30
-9.16857e-31
-3.48779e-31
-1.20046e-31
-3.7836e-32
-1.10109e-32
-2.97633e-33
-7.50593e-34
-1.7721e-34
-3.92737e-35
-8.18754e-36
-1.6081e-36
-2.97883e-37
-5.2075e-38
-8.59403e-39
-1.33899e-39
-1.96939e-40
-2.73388e-41
-3.58127e-42
-4.42618e-43
-5.16061e-44
-5.67568e-45
-5.88802e-46
-5.76196e-47
-5.31928e-48
-4.63305e-49
-3.80781e-50
-2.95358e-51
-2.16254e-52
-1.49488e-53
-9.758e-55
-6.01603e-56
-3.50378e-57
-1.92806e-58
-1.00262e-59
-4.92783e-61
-2.28952e-62
-1.00568e-63
-4.17697e-65
-1.64055e-66
-6.09386e-68
-2.14093e-69
-7.11457e-71
-2.23643e-72
-6.65032e-74
-1.87076e-75
-4.97844e-77
-1.25333e-78
-2.98495e-80
-6.72506e-82
-1.43329e-83
-2.88959e-85
-5.51043e-87
-9.93939e-89
-1.69565e-90
-2.73584e-92
-4.17441e-94
-6.02313e-96
-8.21751e-98
-1.06003e-99
-1.29278e-101
-1.49049e-103
-1.62439e-105
-1.67334e-107
-1.62917e-109
-1.49902e-111
-1.30337e-113
-1.07082e-115
-8.31211e-118
-6.09565e-120
-4.22283e-122
-2.76328e-124
-1.70783e-126
-9.96847e-129
-5.49456e-131
-2.85971e-133
-1.40525e-135
-6.51911e-138
-2.85487e-140
-1.18005e-142
-4.60362e-145
-1.69483e-147
-5.88774e-150
-1.92979e-152
-5.96729e-155
-1.74056e-157
-4.78861e-160
-1.24245e-162
-3.03988e-165
-7.01263e-168
-1.52513e-170
-3.12661e-173
-6.04126e-176
-1.10001e-178
-1.88717e-181
-3.04964e-184
-4.64131e-187
9.32718e-07
8.6998e-07
8.6998e-07
1.02333e-06
6.04957e-06
1.79196e-05
5.53517e-05
0.000180608
0.000257305
0.000257312
0.000257305
9.95153e-05
6.71087e-06
5.76261e-06
8.12212e-05
0.000216805
0.000136165
2.73932e-05
8.20542e-07
8.20471e-07
1.9928e-06
3.5446e-06
3.54839e-06
6.37607e-06
9.23969e-06
8.9922e-06
6.44052e-06
2.90135e-06
6.90173e-07
1.72934e-07
1.71271e-07
1.71267e-07
1.71261e-07
1.81194e-07
7.79021e-07
4.49559e-06
5.88289e-06
4.34476e-06
2.52152e-06
2.00098e-06
2.00097e-06
2.00097e-06
2.89702e-06
7.2065e-06
1.25611e-05
1.14716e-05
5.81725e-06
7.89492e-07
8.62589e-20
1.63954e-33
-5.32448e-30
-6.8899e-30
-4.98278e-30
-2.65084e-30
-1.15658e-30
-4.37447e-31
-1.48045e-31
-4.57044e-32
-1.30282e-32
-3.4559e-33
-8.57469e-34
-1.99689e-34
-4.37507e-35
-9.03204e-36
-1.75865e-36
-3.23149e-37
-5.60466e-38
-9.17539e-39
-1.41767e-39
-2.06694e-40
-2.84316e-41
-3.68914e-42
-4.51501e-43
-5.21171e-44
-5.67403e-45
-5.82661e-46
-5.6441e-47
-5.15805e-48
-4.44791e-49
-3.6198e-50
-2.78069e-51
-2.01674e-52
-1.38123e-53
-8.93488e-55
-5.46021e-56
-3.15293e-57
-1.72062e-58
-8.87565e-60
-4.32846e-61
-1.99596e-62
-8.70402e-64
-3.58999e-65
-1.40062e-66
-5.16951e-68
-1.80516e-69
-5.96423e-71
-1.86462e-72
-5.51627e-74
-1.54431e-75
-4.09136e-77
-1.02578e-78
-2.43382e-80
-5.46477e-82
-1.16117e-83
-2.33482e-85
-4.44247e-87
-7.9983e-89
-1.36254e-90
-2.19615e-92
-3.34895e-94
-4.8313e-96
-6.59325e-98
-8.51114e-100
-1.03919e-101
-1.20003e-103
-1.31051e-105
-1.35335e-107
-1.32148e-109
-1.22e-111
-1.06478e-113
-8.78471e-116
-6.85044e-118
-5.04885e-120
-3.51645e-122
-2.31425e-124
-1.43901e-126
-8.45317e-129
-4.69059e-131
-2.45834e-133
-1.21677e-135
-5.68696e-138
-2.5096e-140
-1.0455e-142
-4.11145e-145
-1.52599e-147
-5.34501e-150
-1.76652e-152
-5.50828e-155
-1.62021e-157
-4.49507e-160
-1.17609e-162
-2.90158e-165
-6.74909e-168
-1.47986e-170
-3.05837e-173
-5.95651e-176
-1.09307e-178
-1.88964e-181
-3.0765e-184
-4.71639e-187
8.6998e-07
8.6998e-07
8.6998e-07
9.12092e-07
2.42293e-06
1.0181e-05
3.81783e-05
4.53233e-05
7.91115e-05
0.000182865
0.000159857
5.81617e-05
3.73734e-06
1.58832e-06
1.49348e-05
0.00015485
0.000155692
5.24941e-05
1.26253e-06
1.68002e-07
2.64296e-07
1.02159e-06
6.55331e-06
6.44659e-06
5.11709e-06
3.62036e-06
1.95045e-06
7.36473e-07
2.16379e-07
1.713e-07
1.71272e-07
1.71265e-07
1.7126e-07
1.71253e-07
2.34967e-07
1.38821e-06
5.48557e-06
5.74765e-06
2.28548e-06
2.00098e-06
2.00097e-06
2.00098e-06
4.48269e-06
1.08399e-05
1.10246e-05
6.19995e-06
1.26178e-06
5.27126e-08
4.02224e-10
3.06027e-23
-2.09057e-42
-4.57802e-30
-3.90692e-30
-2.1041e-30
-9.16061e-31
-3.48248e-31
-1.19358e-31
-3.7492e-32
-1.08978e-32
-2.94908e-33
-7.45929e-34
-1.76807e-34
-3.93403e-35
-8.22608e-36
-1.61761e-36
-2.9928e-37
-5.21119e-38
-8.54171e-39
-1.31819e-39
-1.91563e-40
-2.6219e-41
-3.38044e-42
-4.10651e-43
-4.70126e-44
-5.07337e-45
-5.16208e-46
-4.95347e-47
-4.48395e-48
-3.82993e-49
-3.08754e-50
-2.34984e-51
-1.68879e-52
-1.14641e-53
-7.35247e-55
-4.45618e-56
-2.55286e-57
-1.38269e-58
-7.08177e-60
-3.43057e-61
-1.57208e-62
-6.81621e-64
-2.79663e-65
-1.08595e-66
-3.99135e-68
-1.38871e-69
-4.57427e-71
-1.42653e-72
-4.21229e-74
-1.17773e-75
-3.11805e-77
-7.81681e-79
-1.85562e-80
-4.17115e-82
-8.87813e-84
-1.78925e-85
-3.41419e-87
-6.16807e-89
-1.05494e-90
-1.70805e-92
-2.61777e-94
-3.79742e-96
-5.21353e-98
-6.77368e-100
-8.32768e-102
-9.68696e-104
-1.06603e-105
-1.10973e-107
-1.09267e-109
-1.01748e-111
-8.95949e-114
-7.45937e-116
-5.8712e-118
-4.36821e-120
-3.07165e-122
-2.04115e-124
-1.2816e-126
-7.60237e-129
-4.25988e-131
-2.25445e-133
-1.12672e-135
-5.31692e-138
-2.36872e-140
-9.96122e-143
-3.95364e-145
-1.48081e-147
-5.23314e-150
-1.74468e-152
-5.48666e-155
-1.62728e-157
-4.55122e-160
-1.20013e-162
-2.98343e-165
-6.99056e-168
-1.5437e-170
-3.21215e-173
-6.29724e-176
-1.16291e-178
-2.02258e-181
-3.31206e-184
-5.10573e-187
1.07075e-06
1.25101e-05
3.70342e-05
1.93685e-05
4.41223e-06
5.65489e-06
1.89837e-05
1.92575e-05
3.65436e-05
7.72104e-05
7.81551e-05
4.21198e-05
4.81782e-06
1.58188e-06
5.54713e-06
0.000104383
0.000179296
8.01751e-05
6.09764e-06
1.68023e-07
3.04249e-07
3.26698e-06
1.06024e-05
1.13095e-05
5.71573e-06
9.75729e-07
5.36404e-07
2.29462e-07
1.82421e-07
1.82418e-07
1.82188e-07
1.83723e-07
1.73951e-07
1.71248e-07
1.71595e-07
4.26067e-07
2.95818e-06
5.7551e-06
5.0421e-06
2.3052e-06
2.00096e-06
2.00097e-06
2.64038e-06
9.39743e-06
1.20484e-05
1.02258e-05
2.67245e-06
5.36998e-09
1.67761e-11
2.15251e-25
-4.3559e-45
-3.89558e-30
-3.11866e-30
-1.63759e-30
-7.10375e-31
-2.71267e-31
-9.35853e-32
-2.95992e-32
-8.66433e-33
-2.36206e-33
-6.02101e-34
-1.43843e-34
-3.22477e-35
-6.78857e-36
-1.34235e-36
-2.49374e-37
-4.35331e-38
-7.14296e-39
-1.10194e-39
-1.59882e-40
-2.18255e-41
-2.80425e-42
-3.39251e-43
-3.86585e-44
-4.1509e-45
-4.20113e-46
-4.00925e-47
-3.60889e-48
-3.06502e-49
-2.45682e-50
-1.85919e-51
-1.32864e-52
-8.96912e-54
-5.72102e-55
-3.44902e-56
-1.96577e-57
-1.05949e-58
-5.40128e-60
-2.60516e-61
-1.18907e-62
-5.13703e-64
-2.10102e-65
-8.13661e-67
-2.98416e-68
-1.03664e-69
-3.41127e-71
-1.06349e-72
-3.14133e-74
-8.79198e-76
-2.33168e-77
-5.85962e-79
-1.39537e-80
-3.1486e-82
-6.73197e-84
-1.36376e-85
-2.61741e-87
-4.75896e-89
-8.19621e-91
-1.337e-92
-2.06542e-94
-3.02132e-96
-4.18438e-98
-5.48599e-100
-6.8077e-102
-7.99473e-104
-8.88374e-106
-9.3392e-108
-9.28697e-110
-8.73416e-112
-7.76744e-114
-6.53095e-116
-5.19091e-118
-3.89953e-120
-2.76828e-122
-1.85682e-124
-1.17658e-126
-7.04206e-129
-3.98046e-131
-2.1245e-133
-1.07055e-135
-5.09229e-138
-2.28621e-140
-9.68607e-143
-3.87212e-145
-1.46033e-147
-5.19516e-150
-1.74309e-152
-5.51527e-155
-1.64536e-157
-4.62765e-160
-1.22683e-162
-3.06542e-165
-7.21774e-168
-1.60128e-170
-3.3467e-173
-6.58863e-176
-1.22158e-178
-2.13268e-181
-3.50491e-184
-5.4214e-187
1.40941e-05
8.8522e-05
0.000174052
0.000124561
2.67121e-05
5.65727e-06
7.10996e-06
8.8202e-06
1.58047e-05
4.21069e-05
5.04651e-05
3.20192e-05
5.39682e-06
1.58187e-06
2.3647e-06
6.26846e-05
0.000200465
0.000110433
1.53279e-05
4.81136e-07
8.82736e-06
7.31451e-05
7.69082e-05
3.24873e-05
8.59174e-06
1.41283e-06
1.35781e-06
9.05561e-07
2.7294e-07
1.71319e-07
1.9425e-07
1.94285e-07
1.94287e-07
1.71241e-07
1.71232e-07
2.19666e-07
1.01606e-06
5.47496e-06
7.461e-06
6.87564e-06
4.70578e-06
2.35197e-06
2.24859e-06
4.62668e-06
1.19479e-05
1.22696e-05
6.72325e-06
9.76348e-07
5.05255e-13
9.74197e-27
1.36425e-40
-4.57562e-30
-3.37141e-30
-1.72885e-30
-7.39238e-31
-2.78962e-31
-9.56308e-32
-3.02414e-32
-8.88581e-33
-2.43316e-33
-6.21617e-34
-1.48261e-34
-3.30327e-35
-6.88012e-36
-1.3408e-36
-2.44721e-37
-4.18766e-38
-6.72545e-39
-1.01477e-39
-1.43992e-40
-1.92317e-41
-2.4196e-42
-2.8696e-43
-3.20997e-44
-3.38839e-45
-3.37651e-46
-3.17734e-47
-2.8242e-48
-2.3717e-49
-1.88209e-50
-1.41163e-51
-1.00085e-52
-6.70925e-54
-4.25315e-55
-2.55015e-56
-1.44655e-57
-7.76428e-59
-3.94431e-60
-1.89688e-61
-8.6379e-63
-3.72541e-64
-1.52206e-65
-5.8921e-67
-2.16159e-68
-7.51654e-70
-2.4778e-71
-7.74411e-73
-2.29496e-74
-6.44915e-76
-1.71858e-77
-4.34286e-79
-1.04066e-80
-2.36451e-82
-5.09374e-84
-1.04028e-85
-2.0138e-87
-3.69469e-89
-6.42331e-91
-1.05799e-92
-1.65069e-94
-2.43908e-96
-3.41252e-98
-4.51986e-100
-5.66615e-102
-6.72166e-104
-7.54401e-106
-8.00906e-108
-8.04133e-110
-7.63415e-112
-6.85168e-114
-5.81247e-116
-4.65986e-118
-3.52989e-120
-2.5261e-122
-1.70754e-124
-1.09006e-126
-6.57095e-129
-3.73965e-131
-2.00909e-133
-1.01874e-135
-4.87492e-138
-2.20114e-140
-9.37653e-143
-3.76787e-145
-1.42804e-147
-5.10424e-150
-1.72026e-152
-5.46624e-155
-1.63735e-157
-4.62283e-160
-1.23004e-162
-3.0841e-165
-7.28565e-168
-1.6214e-170
-3.39881e-173
-6.71001e-176
-1.2474e-178
-2.18325e-181
-3.59658e-184
-5.57575e-187
6.98736e-05
0.000208492
0.000232935
0.000232932
0.000104303
7.92053e-06
6.60661e-06
3.88696e-05
6.86722e-05
4.11545e-05
3.42269e-05
2.20752e-05
4.29757e-06
1.58187e-06
1.58186e-06
3.24821e-05
0.000200399
0.000147436
2.59276e-05
1.836e-05
9.81792e-05
0.000266486
0.000260718
0.000114137
1.46814e-05
4.58279e-06
5.17819e-06
2.78082e-06
3.24934e-07
1.71247e-07
1.71239e-07
1.71235e-07
1.71271e-07
1.7122e-07
1.71225e-07
1.71232e-07
3.3712e-07
2.40952e-06
7.45814e-06
7.87037e-06
7.86973e-06
7.19225e-06
4.13405e-06
4.18963e-06
6.83849e-06
1.01161e-05
9.91138e-06
3.58261e-06
8.53329e-08
6.77535e-30
-2.04392e-29
-1.44913e-29
-6.39309e-30
-2.48919e-30
-9.50616e-31
-3.53208e-31
-1.23524e-31
-3.98869e-32
-1.1826e-32
-3.22173e-33
-8.088e-34
-1.87739e-34
-4.04252e-35
-8.09947e-36
-1.51413e-36
-2.64762e-37
-4.3401e-38
-6.6828e-39
-9.68251e-40
-1.32203e-40
-1.70324e-41
-2.0727e-42
-2.38447e-43
-2.59486e-44
-2.67239e-45
-2.60541e-46
-2.40504e-47
-2.10219e-48
-1.73996e-49
-1.36368e-50
-1.01202e-51
-7.11141e-53
-4.73175e-54
-2.98128e-55
-1.77882e-56
-1.00521e-57
-5.38075e-59
-2.72874e-60
-1.31129e-61
-5.97239e-63
-2.57871e-64
-1.05574e-65
-4.09921e-67
-1.50978e-68
-5.27558e-70
-1.74913e-71
-5.50315e-73
-1.64308e-74
-4.65549e-76
-1.25175e-77
-3.1936e-79
-7.73043e-81
-1.77509e-82
-3.86593e-84
-7.98386e-86
-1.56315e-87
-2.90077e-89
-5.10085e-91
-8.49727e-93
-1.34064e-94
-2.00279e-96
-2.83229e-98
-3.79067e-100
-4.80029e-102
-5.75037e-104
-6.51486e-106
-6.97922e-108
-7.06827e-110
-6.76616e-112
-6.12087e-114
-5.23181e-116
-4.22457e-118
-3.22208e-120
-2.32084e-122
-1.5785e-124
-1.0136e-126
-6.14407e-129
-3.51517e-131
-1.89794e-133
-9.66953e-136
-4.64792e-138
-2.10759e-140
-9.01429e-143
-3.63617e-145
-1.38313e-147
-4.96071e-150
-1.67734e-152
-5.3463e-155
-1.60611e-157
-4.5472e-160
-1.21309e-162
-3.04919e-165
-7.22017e-168
-1.61042e-170
-3.38293e-173
-6.69203e-176
-1.24642e-178
-2.18543e-181
-3.60625e-184
-5.59969e-187
0.000162381
0.000208527
0.000198268
0.000232935
0.000158329
2.03148e-05
1.34949e-05
7.98246e-05
0.000104198
7.60963e-05
3.10662e-05
9.35614e-06
1.93182e-06
1.58187e-06
1.58187e-06
1.01306e-05
0.00014424
0.000195566
5.88692e-05
7.36233e-05
0.000273075
0.000332325
0.000332235
0.000239632
4.23571e-05
1.88963e-05
2.00882e-05
5.49672e-06
1.75168e-07
1.71239e-07
1.71235e-07
1.71227e-07
1.71223e-07
1.71216e-07
1.71221e-07
1.71225e-07
1.71233e-07
6.08511e-07
3.44453e-06
6.91212e-06
6.87879e-06
5.19759e-06
3.5541e-06
3.57301e-06
4.10267e-06
4.37888e-06
4.10691e-06
1.6229e-06
7.86626e-08
5.6111e-21
-5.89997e-40
-3.6423e-30
-3.14428e-30
-1.84657e-30
-8.90913e-31
-3.70475e-31
-1.35432e-31
-4.41302e-32
-1.29634e-32
-3.46444e-33
-8.48419e-34
-1.91492e-34
-4.0021e-35
-7.77552e-36
-1.40909e-36
-2.3889e-37
-3.79868e-38
-5.67852e-39
-7.99602e-40
-1.06243e-40
-1.33395e-41
-1.58458e-42
-1.78253e-43
-1.9003e-44
-1.92082e-45
-1.84149e-46
-1.67471e-47
-1.44484e-48
-1.18248e-49
-9.17952e-51
-6.7586e-52
-4.71913e-53
-3.1247e-54
-1.96193e-55
-1.16816e-56
-6.59612e-58
-3.53263e-59
-1.79472e-60
-8.65088e-62
-3.95708e-63
-1.71801e-64
-7.08096e-66
-2.77105e-67
-1.02976e-68
-3.63416e-70
-1.21804e-71
-3.87701e-73
-1.17187e-74
-3.36321e-76
-9.16311e-78
-2.36948e-79
-5.81399e-81
-1.35328e-82
-2.98721e-84
-6.25137e-86
-1.23989e-87
-2.32999e-89
-4.14723e-91
-6.98985e-93
-1.11522e-94
-1.68392e-96
-2.40567e-98
-3.25092e-100
-4.15458e-102
-5.02008e-104
-5.73412e-106
-6.19033e-108
-6.31501e-110
-6.08659e-112
-5.5417e-114
-4.76557e-116
-3.87012e-118
-2.96765e-120
-2.14841e-122
-1.4682e-124
-9.47009e-127
-5.76469e-129
-3.31126e-131
-1.79456e-133
-9.17515e-136
-4.42498e-138
-2.01281e-140
-8.63441e-143
-3.49267e-145
-1.33205e-147
-4.78938e-150
-1.62321e-152
-5.18521e-155
-1.56096e-157
-4.42809e-160
-1.18351e-162
-2.98002e-165
-7.06801e-168
-1.57892e-170
-3.3216e-173
-6.57973e-176
-1.22708e-178
-2.15412e-181
-3.55861e-184
-5.53155e-187
0.000163071
0.000107972
2.68008e-05
0.000114531
0.000160661
4.57263e-05
3.44924e-05
0.000101834
0.000101785
0.000100909
2.46834e-05
2.07366e-06
2.07358e-06
2.04979e-06
2.05464e-06
5.56235e-06
8.40975e-05
0.000195495
8.70413e-05
0.000179965
0.000285055
0.000249065
0.000152137
0.000186617
0.000120378
6.26232e-05
1.4114e-05
7.86756e-07
4.22694e-07
3.93473e-07
3.05885e-07
1.71235e-07
1.71227e-07
1.80201e-07
2.83819e-07
3.80462e-07
3.26148e-07
3.26166e-07
9.07143e-07
2.4557e-06
2.4798e-06
1.98038e-06
1.95844e-06
2.4175e-06
1.75795e-06
9.04132e-07
6.10702e-07
2.12765e-07
1.10403e-08
1.54828e-11
2.42396e-25
7.79729e-45
-1.74082e-30
-1.33453e-30
-7.18776e-31
-3.12622e-31
-1.15775e-31
-3.76373e-32
-1.09478e-32
-2.88557e-33
-6.9531e-34
-1.54183e-34
-3.1628e-35
-6.02797e-36
-1.07139e-36
-1.78159e-37
-2.77971e-38
-4.07951e-39
-5.64394e-40
-7.37452e-41
-9.11468e-42
-1.06698e-42
-1.18419e-43
-1.24701e-44
-1.24662e-45
-1.18352e-46
-1.06725e-47
-9.14213e-49
-7.43884e-50
-5.74927e-51
-4.22022e-52
-2.94198e-53
-1.94765e-54
-1.22446e-55
-7.31076e-57
-4.14574e-58
-2.23314e-59
-1.14278e-60
-5.55663e-62
-2.56755e-63
-1.12755e-64
-4.70643e-66
-1.86723e-67
-7.04102e-69
-2.52327e-70
-8.59231e-72
-2.77959e-73
-8.54e-75
-2.4912e-76
-6.89736e-78
-1.81187e-79
-4.51419e-81
-1.0663e-82
-2.38711e-84
-5.06292e-86
-1.017e-87
-1.93416e-89
-3.48166e-91
-5.93039e-93
-9.55583e-95
-1.45626e-96
-2.09845e-98
-2.85863e-100
-3.6807e-102
-4.47861e-104
-5.14898e-106
-5.59239e-108
-5.7373e-110
-5.55892e-112
-5.08614e-114
-4.39385e-116
-3.58351e-118
-2.75884e-120
-2.00469e-122
-1.37475e-124
-8.89623e-127
-5.43185e-129
-3.12896e-131
-1.70027e-133
-8.71477e-136
-4.21275e-138
-1.92045e-140
-8.25505e-143
-3.34559e-145
-1.27823e-147
-4.60356e-150
-1.56266e-152
-4.99908e-155
-1.50698e-157
-4.28036e-160
-1.14537e-162
-2.88717e-165
-6.85475e-168
-1.53273e-170
-3.22724e-173
-6.39797e-176
-1.19407e-178
-2.0976e-181
-3.46739e-184
-5.39282e-187
0.000155658
3.26206e-05
4.30242e-06
1.87418e-05
0.000117949
6.62804e-05
5.99045e-05
3.25087e-05
2.76394e-05
6.83955e-05
3.78396e-05
3.94889e-06
1.53605e-06
2.89599e-06
6.65329e-06
5.95656e-06
2.82956e-05
0.000165964
0.000285357
0.000285361
0.000285041
7.64186e-05
1.78932e-05
6.35361e-05
0.000120325
5.58644e-05
5.6107e-06
9.14005e-07
8.68065e-07
8.44664e-07
6.54773e-07
2.7206e-07
1.71235e-07
2.11221e-07
5.0907e-07
9.92752e-07
1.01551e-06
6.65092e-07
5.68417e-07
5.6816e-07
5.68417e-07
5.8485e-07
6.95353e-07
2.94086e-06
3.38795e-06
1.90523e-06
3.66556e-07
7.9105e-12
7.9107e-12
4.03738e-12
2.8808e-13
-1.42754e-33
-9.31487e-31
-8.56432e-31
-4.86183e-31
-2.14626e-31
-7.96926e-32
-2.58456e-32
-7.48033e-33
-1.95833e-33
-4.68041e-34
-1.02822e-34
-2.08771e-35
-3.93582e-36
-6.91708e-37
-1.13729e-37
-1.75484e-38
-2.54809e-39
-3.49008e-40
-4.51829e-41
-5.53803e-42
-6.43517e-43
-7.09662e-44
-7.43329e-45
-7.39937e-46
-7.00262e-47
-6.30205e-48
-5.39402e-49
-4.39112e-50
-3.39996e-51
-2.50383e-52
-1.75377e-53
-1.16838e-54
-7.40401e-56
-4.46321e-57
-2.55954e-58
-1.3965e-59
-7.24955e-61
-3.58076e-62
-1.68275e-63
-7.52312e-65
-3.1992e-66
-1.29374e-67
-4.97373e-69
-1.81718e-70
-6.307e-72
-2.0786e-73
-6.50213e-75
-1.92966e-76
-5.43075e-78
-1.4488e-79
-3.66226e-81
-8.76842e-83
-1.9878e-84
-4.2654e-86
-8.66078e-88
-1.66359e-89
-3.02216e-91
-5.19131e-93
-8.43011e-95
-1.29392e-96
-1.87681e-98
-2.57221e-100
-3.33044e-102
-4.07328e-104
-4.70521e-106
-5.13279e-108
-5.28708e-110
-5.14183e-112
-4.72076e-114
-4.09123e-116
-3.34655e-118
-2.58346e-120
-1.882e-122
-1.29364e-124
-8.38946e-127
-5.13271e-129
-2.96213e-131
-1.61238e-133
-8.2774e-136
-4.00719e-138
-1.82921e-140
-7.87266e-143
-3.19428e-145
-1.22171e-147
-4.40424e-150
-1.49633e-152
-4.79072e-155
-1.44522e-157
-4.10769e-160
-1.09983e-162
-2.77385e-165
-6.58887e-168
-1.4739e-170
-3.10454e-173
-6.15671e-176
-1.14936e-178
-2.01953e-181
-3.33897e-184
-5.19385e-187
8.55452e-05
7.96382e-06
4.30258e-06
1.03509e-05
7.66328e-05
7.92293e-05
5.45623e-05
2.13322e-05
2.13322e-05
4.19507e-05
4.4102e-05
9.7861e-06
1.53599e-06
1.53599e-06
1.05227e-05
1.07432e-05
1.18121e-05
6.96793e-05
0.00015269
0.000246119
0.000151592
2.99191e-05
1.42603e-05
3.05292e-05
5.55239e-05
2.85681e-05
2.76423e-06
2.54729e-07
2.4774e-07
2.25411e-07
1.78156e-07
2.26793e-07
2.1395e-07
2.0231e-07
2.02287e-07
6.39001e-07
1.52995e-06
1.53122e-06
8.83008e-07
7.93085e-07
1.13474e-06
1.30626e-06
1.15882e-06
1.82169e-06
4.01261e-06
4.01287e-06
1.44366e-06
7.65522e-08
4.72081e-14
5.66501e-13
1.46452e-13
1.24453e-17
-1.16825e-37
-3.67131e-31
-3.19014e-31
-1.58307e-31
-5.84551e-32
-1.8007e-32
-4.91415e-33
-1.22464e-33
-2.82391e-34
-6.05453e-35
-1.20929e-35
-2.25364e-36
-3.9264e-37
-6.41059e-38
-9.83359e-39
-1.42081e-39
-1.93814e-40
-2.50124e-41
-3.05909e-42
-3.55063e-43
-3.91542e-44
-4.1057e-45
-4.09638e-46
-3.89057e-47
-3.51854e-48
-3.03067e-49
-2.48658e-50
-1.94357e-51
-1.4473e-52
-1.02684e-53
-6.94145e-55
-4.471e-56
-2.74382e-57
-1.60424e-58
-8.93485e-60
-4.73935e-61
-2.39353e-62
-1.15052e-63
-5.26137e-65
-2.28797e-66
-9.45642e-68
-3.71275e-69
-1.38396e-70
-4.89532e-72
-1.64228e-73
-5.22288e-75
-1.5739e-76
-4.49226e-78
-1.21399e-79
-3.10508e-81
-7.51467e-83
-1.72031e-84
-3.72437e-86
-7.62353e-88
-1.47513e-89
-2.69772e-91
-4.66216e-93
-7.61265e-95
-1.17432e-96
-1.71113e-98
-2.35493e-100
-3.06071e-102
-3.75639e-104
-4.35292e-106
-4.76224e-108
-4.91837e-110
-4.79483e-112
-4.41191e-114
-3.83128e-116
-3.1397e-118
-2.42785e-120
-1.77136e-122
-1.21928e-124
-7.91732e-127
-4.84943e-129
-2.80156e-131
-1.52642e-133
-7.8427e-136
-3.79962e-138
-1.73563e-140
-7.47437e-143
-3.03427e-145
-1.16104e-147
-4.1872e-150
-1.42307e-152
-4.55745e-155
-1.37517e-157
-3.90927e-160
-1.04684e-162
-2.64046e-165
-6.27234e-168
-1.40311e-170
-2.95536e-173
-5.86053e-176
-1.09397e-178
-1.92197e-181
-3.17719e-184
-4.94133e-187
5.29167e-05
4.30258e-06
4.3023e-06
7.37673e-06
4.21261e-05
6.05211e-05
3.07025e-05
3.07275e-05
2.13322e-05
2.98739e-05
4.41167e-05
1.517e-05
1.76239e-06
1.53599e-06
2.8445e-06
1.98109e-05
1.1813e-05
1.57908e-05
4.44775e-05
0.00014693
9.68143e-05
1.95803e-05
1.42603e-05
2.63383e-05
2.84476e-05
1.38237e-05
1.12427e-06
1.78155e-07
1.78155e-07
1.78155e-07
1.78156e-07
1.21933e-06
2.82544e-06
1.81394e-06
2.99235e-07
2.12592e-07
9.46218e-07
2.16379e-06
2.16234e-06
2.37072e-06
5.64477e-06
5.60912e-06
3.26956e-06
2.19445e-06
3.50967e-06
4.01261e-06
3.01947e-06
5.75018e-07
4.90491e-15
1.33618e-17
8.58484e-15
1.30763e-15
1.92689e-29
-6.06041e-49
-1.12544e-31
-7.56225e-32
-3.06895e-32
-9.72344e-33
-2.6551e-33
-6.54881e-34
-1.49108e-34
-3.16118e-35
-6.25892e-36
-1.15895e-36
-2.01012e-37
-3.27234e-38
-5.01193e-39
-7.23982e-40
-9.88638e-41
-1.2789e-41
-1.56998e-42
-1.83161e-43
-2.03316e-44
-2.14936e-45
-2.16546e-46
-2.08031e-47
-1.90638e-48
-1.66692e-49
-1.391e-50
-1.10785e-51
-8.42135e-53
-6.10941e-54
-4.22921e-55
-2.79287e-56
-1.7588e-57
-1.05576e-58
-6.03759e-60
-3.28743e-61
-1.70319e-62
-8.39065e-64
-3.92792e-65
-1.74613e-66
-7.36655e-68
-2.94759e-69
-1.11802e-70
-4.01788e-72
-1.36745e-73
-4.4058e-75
-1.34332e-76
-3.87478e-78
-1.05707e-79
-2.72678e-81
-6.64958e-83
-1.5327e-84
-3.33861e-86
-6.87161e-88
-1.33622e-89
-2.45457e-91
-4.25896e-93
-6.97938e-95
-1.08013e-96
-1.5785e-98
-2.17813e-100
-2.83765e-102
-3.49009e-104
-4.05213e-106
-4.44085e-108
-4.59359e-110
-4.48445e-112
-4.13147e-114
-3.59174e-116
-2.9463e-118
-2.28029e-120
-1.66497e-122
-1.14682e-124
-7.45109e-127
-4.56612e-129
-2.63899e-131
-1.43833e-133
-7.39218e-136
-3.58212e-138
-1.63654e-140
-7.04835e-143
-2.86148e-145
-1.09493e-147
-3.94862e-150
-1.34188e-152
-4.29694e-155
-1.29637e-157
-3.68458e-160
-9.86461e-163
-2.48755e-165
-5.9075e-168
-1.32111e-170
-2.78174e-173
-5.51433e-176
-1.02897e-178
-1.80708e-181
-2.98607e-184
-4.6421e-187
2.10353e-05
4.30371e-06
4.30235e-06
4.92091e-06
2.48957e-05
3.01593e-05
4.50145e-05
0.000105021
6.10817e-05
3.05474e-05
3.86123e-05
3.3715e-05
9.31925e-06
1.53599e-06
1.78153e-06
2.11778e-05
2.36084e-05
1.57899e-05
3.7033e-05
0.000157007
7.28971e-05
1.42603e-05
1.42603e-05
2.47217e-05
2.24736e-05
6.02225e-06
1.80518e-07
1.78155e-07
1.78155e-07
2.69269e-07
2.48442e-06
8.57222e-06
1.31025e-05
1.13628e-05
4.7064e-06
5.27237e-07
3.03873e-07
6.69796e-07
2.58913e-06
1.2768e-05
1.85464e-05
1.85433e-05
1.43134e-05
5.11132e-06
2.15162e-06
2.79863e-06
3.0173e-06
2.14653e-06
5.04855e-07
1.34345e-17
1.29254e-16
6.32354e-17
2.58207e-18
2.99483e-38
-3.86412e-32
-2.89463e-32
-1.18965e-32
-3.62054e-33
-9.29894e-34
-2.16159e-34
-4.70271e-35
-9.67711e-36
-1.88323e-36
-3.4575e-37
-5.98124e-38
-9.75412e-39
-1.50191e-39
-2.18816e-40
-3.02315e-41
-3.9692e-42
-4.96159e-43
-5.91422e-44
-6.73149e-45
-7.32347e-46
-7.62151e-47
-7.59087e-48
-7.23707e-49
-6.60437e-50
-5.76723e-51
-4.8166e-52
-3.8445e-53
-2.93016e-54
-2.13047e-55
-1.47622e-56
-9.73802e-58
-6.10943e-59
-3.64191e-60
-2.06098e-61
-1.10635e-62
-5.62964e-64
-2.71375e-65
-1.2386e-66
-5.35015e-68
-2.18628e-69
-8.44911e-71
-3.08718e-72
-1.06625e-73
-3.4803e-75
-1.07341e-76
-3.12785e-78
-8.61003e-80
-2.23872e-81
-5.49784e-83
-1.27511e-84
-2.79277e-86
-5.77601e-88
-1.12797e-89
-2.07981e-91
-3.62059e-93
-5.95034e-95
-9.23188e-97
-1.35207e-98
-1.86918e-100
-2.43902e-102
-3.00384e-104
-3.49145e-106
-3.82984e-108
-3.96439e-110
-3.87228e-112
-3.56883e-114
-3.10332e-116
-2.54589e-118
-1.97033e-120
-1.43845e-122
-9.90546e-125
-6.43351e-127
-3.94081e-129
-2.27641e-131
-1.23998e-133
-6.3685e-136
-3.08381e-138
-1.40777e-140
-6.05797e-143
-2.45722e-145
-9.39366e-148
-3.38431e-150
-1.14894e-152
-3.6753e-155
-1.10763e-157
-3.14467e-160
-8.40961e-163
-2.1182e-165
-5.02443e-168
-1.12228e-170
-2.36021e-173
-4.67295e-176
-8.70879e-179
-1.5275e-181
-2.5209e-184
-3.91387e-187
4.3028e-06
4.82971e-06
4.30206e-06
4.3024e-06
6.45117e-05
9.19552e-05
0.00014148
0.000144271
0.000141802
5.50971e-05
2.42658e-05
2.00255e-05
1.16166e-05
3.6258e-06
1.47488e-06
3.61762e-06
7.96645e-05
5.34987e-05
0.000211493
0.000231882
5.37749e-05
2.14376e-05
1.42603e-05
1.97761e-05
1.98388e-05
7.7577e-06