/*--------------------------------*- C++ -*----------------------------------*\
| =========                 |                                                 |
| \\      /  F ield         | OpenFOAM: The Open Source CFD Toolbox           |
|  \\    /   O peration     | Version:  v1912                                 |
|   \\  /    A nd           | Website:  www.openfoam.com                      |
|    \\/     M anipulation  |                                                 |
\*---------------------------------------------------------------------------*/
FoamFile
{
    version     2.0;
    format      ascii;
    class       surfaceScalarField;
    location    "70";
    object      phi;
}
// * * * * * * * * * * * * * * * * * * * * * * * * * * * * * * * * * * * * * //

dimensions      [0 3 -1 0 0 0 0];
oriented        oriented;


internalField   nonuniform List<scalar> 
28285
(
0.000378338
-2.09137e-05
0.000444889
-6.65502e-05
0.000529965
-8.50765e-05
0.000593793
-6.38276e-05
0.000599672
-5.87914e-06
0.000514566
8.51062e-05
0.000474929
3.96365e-05
0.000540197
-6.52675e-05
0.000591278
-5.10815e-05
0.000560557
3.07213e-05
0.000454598
0.000105959
0.000422503
3.20955e-05
0.000487411
-6.49082e-05
0.000584066
-9.66549e-05
0.000686281
-0.000102216
0.00072299
-3.67091e-05
0.000671037
5.19535e-05
0.000567579
0.000103458
0.000480177
8.74015e-05
0.000463936
1.62411e-05
0.000485697
-2.17608e-05
0.000560308
-7.46108e-05
0.000690171
-0.000129863
0.000769397
-7.92258e-05
0.000713615
5.57814e-05
0.000627062
8.65534e-05
0.00059742
2.96417e-05
0.00061739
-1.99698e-05
0.000661018
-4.3628e-05
0.000724027
-6.30092e-05
0.000796171
-7.21435e-05
0.000872231
-7.60597e-05
0.000955301
-8.30699e-05
0.00102678
-7.14782e-05
0.00105446
-2.76803e-05
0.00105581
-1.35409e-06
0.00103561
2.0207e-05
0.000962102
7.35036e-05
0.000796544
0.000165558
0.000639452
0.000157092
0.000590302
4.91503e-05
0.000606229
-1.59276e-05
0.000655345
-4.91156e-05
0.000729988
-7.46428e-05
0.00078653
-5.65422e-05
0.000794419
-7.88895e-06
0.000763551
3.08673e-05
0.000703985
5.95668e-05
0.000643057
6.09273e-05
0.000601982
4.10755e-05
0.000572664
2.93173e-05
0.00054824
2.44243e-05
0.000526394
2.18464e-05
0.000506251
2.01426e-05
0.000487399
1.88523e-05
0.000469594
1.78047e-05
0.000452674
1.69202e-05
0.000436521
1.61527e-05
0.000421048
1.54733e-05
0.000406187
1.48613e-05
0.000391884
1.43025e-05
0.000378098
1.37866e-05
0.000364792
1.33061e-05
0.000351937
1.28549e-05
0.000339509
1.24277e-05
0.000327488
1.20205e-05
0.000315858
1.16304e-05
0.000304602
1.1256e-05
0.000293706
1.0896e-05
0.000283156
1.05499e-05
0.00027294
1.02164e-05
0.000263048
9.89211e-06
0.00025347
9.57787e-06
0.000244194
9.27555e-06
0.000235213
8.98148e-06
0.000226517
8.69577e-06
0.000218099
8.41824e-06
0.00020995
8.14842e-06
0.000202065
7.8857e-06
0.000194435
7.6297e-06
0.000187055
7.38025e-06
0.000179918
7.13709e-06
0.000173017
6.90043e-06
0.000166347
6.66999e-06
0.000159901
6.44607e-06
0.000153673
6.22814e-06
0.000147656
6.01661e-06
0.000141846
5.81075e-06
0.000136235
5.611e-06
0.000130818
5.41648e-06
0.00012559
5.22806e-06
0.000120545
5.04454e-06
0.000115679
4.86669e-06
0.000110985
4.69364e-06
0.000106459
4.52585e-06
0.000102096
4.36293e-06
9.78915e-05
4.20465e-06
9.38402e-05
4.05159e-06
8.99377e-05
3.90226e-06
8.61792e-05
3.75878e-06
8.2561e-05
3.61791e-06
7.90776e-05
3.48368e-06
7.57265e-05
3.3509e-06
7.25011e-05
3.22545e-06
6.94006e-05
3.10058e-06
6.64171e-05
2.98325e-06
6.35512e-05
2.86632e-06
6.07943e-05
2.75627e-06
5.81477e-05
2.64749e-06
5.56028e-05
2.54375e-06
5.31607e-05
2.44338e-06
5.08143e-05
2.345e-06
4.85626e-05
2.25323e-06
4.64016e-05
2.15946e-06
4.43269e-05
2.07618e-06
4.23389e-05
1.98662e-06
4.04287e-05
1.91135e-06
3.8602e-05
1.826e-06
3.68443e-05
1.75789e-06
3.51675e-05
1.67711e-06
3.35516e-05
1.61498e-06
3.20138e-05
1.53939e-06
3.05296e-05
1.48195e-06
2.91202e-05
1.41222e-06
2.77586e-05
1.35826e-06
2.64676e-05
1.29485e-06
2.52199e-05
1.24348e-06
2.40378e-05
1.18644e-06
2.28961e-05
1.13737e-06
2.18143e-05
1.0861e-06
2.07706e-05
1.03967e-06
1.97811e-05
9.93046e-07
1.8828e-05
9.5002e-07
1.79239e-05
9.06765e-07
1.70539e-05
8.67798e-07
1.62287e-05
8.27019e-07
1.54349e-05
7.92176e-07
1.46827e-05
7.5373e-07
1.39589e-05
7.22337e-07
1.32737e-05
6.86748e-07
1.26142e-05
6.57709e-07
1.19905e-05
6.25653e-07
1.13904e-05
5.98036e-07
1.08228e-05
5.69802e-07
1.02773e-05
5.43335e-07
9.76061e-06
5.18704e-07
9.26486e-06
4.93914e-07
8.79359e-06
4.72828e-07
8.34272e-06
4.49623e-07
4.20476e-07
7.92318e-06
0.000394714
-5.00053e-05
0.000460172
-0.000132008
0.000538516
-0.000163421
0.000600893
-0.000126204
0.000609124
-1.41104e-05
0.000533049
0.000161182
0.0004886
8.40852e-05
0.000536734
-0.000113402
0.000565348
-7.96954e-05
0.000518783
7.72864e-05
0.00043177
0.000192972
0.000426821
3.70437e-05
0.000500655
-0.000138742
0.000592975
-0.000188975
0.000675075
-0.000184315
0.000697255
-5.88892e-05
0.000655833
9.33754e-05
0.000559704
0.000199587
0.000464224
0.000182881
0.000438162
4.23035e-05
0.000459408
-4.30064e-05
0.000529215
-0.000144418
0.000649607
-0.000250256
0.000727647
-0.000157266
0.00070098
8.24481e-05
0.000647053
0.000140481
0.000625817
5.08769e-05
0.000638222
-3.23743e-05
0.000671692
-7.70982e-05
0.000726135
-0.000117452
0.000793656
-0.000139664
0.000866507
-0.00014891
0.000946198
-0.000162761
0.00101511
-0.000140389
0.00104711
-5.9679e-05
0.00105193
-6.17319e-06
0.00104277
2.9365e-05
0.000992789
0.000123483
0.00086146
0.000296888
0.000749911
0.000268641
0.000737969
6.10921e-05
0.000767525
-4.54836e-05
0.00080734
-8.89306e-05
0.00083489
-0.000102193
0.00083943
-6.10823e-05
0.000820723
1.08184e-05
0.000772028
7.95622e-05
0.000700984
0.00013061
0.000640208
0.000121704
0.000601051
8.02321e-05
0.000572105
5.82638e-05
0.000547762
4.87674e-05
0.000525939
4.36686e-05
0.00050581
4.02724e-05
0.000486967
3.76944e-05
0.000469172
3.56001e-05
0.000452261
3.38316e-05
0.000436116
3.22969e-05
0.000420651
3.09382e-05
0.000405798
2.97143e-05
0.000391504
2.85969e-05
0.000377725
2.75651e-05
0.000364427
2.6604e-05
0.000351581
2.57016e-05
0.000339161
2.48473e-05
0.000327149
2.40329e-05
0.000315526
2.32528e-05
0.000304278
2.25039e-05
0.00029339
2.17841e-05
0.000282849
2.10917e-05
0.00027264
2.04249e-05
0.000262756
1.97763e-05
0.000253186
1.91479e-05
0.000243918
1.85433e-05
0.000234944
1.79552e-05
0.000226256
1.73839e-05
0.000217845
1.68289e-05
0.000209705
1.62892e-05
0.000201826
1.5764e-05
0.000194204
1.52522e-05
0.000186831
1.47534e-05
0.000179701
1.42672e-05
0.000172807
1.3794e-05
0.000166144
1.33333e-05
0.000159704
1.28855e-05
0.000153483
1.24499e-05
0.000147472
1.20268e-05
0.000141668
1.16154e-05
0.000136063
1.12158e-05
0.000130652
1.08272e-05
0.00012543
1.04502e-05
0.000120391
1.00836e-05
0.00011553
9.72778e-06
0.000110842
9.38202e-06
0.000106321
9.04646e-06
0.000101963
8.72078e-06
9.77633e-05
8.40448e-06
9.37167e-05
8.09818e-06
8.98188e-05
7.80021e-06
8.60648e-05
7.51257e-06
8.2451e-05
7.23206e-06
7.89719e-05
6.96235e-06
7.56249e-05
6.69857e-06
7.24035e-05
6.44594e-06
6.93068e-05
6.19833e-06
6.63271e-05
5.96176e-06
6.34648e-05
5.72997e-06
6.07114e-05
5.50829e-06
5.80681e-05
5.29212e-06
5.55265e-05
5.08407e-06
5.30876e-05
4.88336e-06
5.07442e-05
4.68772e-06
4.84954e-05
4.50223e-06
4.63372e-05
4.31799e-06
4.42653e-05
4.14717e-06
4.22799e-05
3.97364e-06
4.03722e-05
3.81664e-06
3.85479e-05
3.65353e-06
3.67926e-05
3.50915e-06
3.5118e-05
3.35648e-06
3.35043e-05
3.22322e-06
3.19685e-05
3.08122e-06
3.04864e-05
2.95758e-06
2.90789e-05
2.82653e-06
2.77191e-05
2.71108e-06
2.64299e-05
2.59101e-06
2.51839e-05
2.48272e-06
2.40035e-05
2.37326e-06
2.28633e-05
2.27164e-06
2.17829e-05
2.17184e-06
2.07407e-05
2.07702e-06
1.97526e-05
1.98548e-06
1.88008e-05
1.89794e-06
1.78979e-05
1.81318e-06
1.70292e-05
1.73327e-06
1.62051e-05
1.65423e-06
1.54125e-05
1.58169e-06
1.46613e-05
1.50808e-06
1.39385e-05
1.44195e-06
1.32543e-05
1.37413e-06
1.25957e-05
1.3131e-06
1.19729e-05
1.2515e-06
1.13736e-05
1.19448e-06
1.08068e-05
1.13918e-06
1.02621e-05
1.08581e-06
9.74619e-06
1.03651e-06
9.25115e-06
9.87432e-07
8.78052e-06
9.44618e-07
8.33037e-06
8.98932e-07
8.40099e-07
7.91134e-06
0.000389839
-7.64458e-05
0.000456147
-0.000198316
0.000538947
-0.000246221
0.000602909
-0.000190166
0.000605387
-1.65891e-05
0.000525793
0.000240776
0.000484764
0.000125115
0.000552414
-0.000181051
0.000602136
-0.000129417
0.000562372
0.000117051
0.00043851
0.000316834
0.000402584
7.29694e-05
0.000488888
-0.000225046
0.000593851
-0.000293937
0.000685212
-0.000275677
0.00071073
-8.44075e-05
0.000668732
0.000135374
0.000569331
0.000298988
0.00047556
0.000276653
0.000456819
6.10447e-05
0.000482229
-6.84172e-05
0.000557166
-0.000219355
0.000684357
-0.000377447
0.000757525
-0.000230433
0.000719543
0.00012043
0.000651746
0.000208278
0.000618683
8.39402e-05
0.000630564
-4.42549e-05
0.000668076
-0.00011461
0.000727324
-0.0001767
0.00079815
-0.00021049
0.000873163
-0.000223923
0.000953585
-0.000243184
0.00102312
-0.000209919
0.00105472
-9.12843e-05
0.00105714
-8.59552e-06
0.00104941
3.70954e-05
0.00101867
0.000154228
0.000948945
0.000366611
0.000907611
0.000309974
0.000915336
5.33678e-05
0.000920375
-5.05229e-05
0.000913643
-8.21987e-05
0.000896143
-8.46926e-05
0.000871206
-3.61446e-05
0.000830724
5.13005e-05
0.000765589
0.000144696
0.000692767
0.000203433
0.000637156
0.000177315
0.00059998
0.000117408
0.00057153
8.67132e-05
0.000547307
7.29901e-05
0.000525523
6.54528e-05
0.000505414
6.03818e-05
0.000486588
5.65206e-05
0.000468806
5.33815e-05
0.000451908
5.073e-05
0.000435776
4.84289e-05
0.000420322
4.63916e-05
0.00040548
4.45564e-05
0.000391197
4.28807e-05
0.000377428
4.13334e-05
0.00036414
3.98921e-05
0.000351303
3.85388e-05
0.000338893
3.72577e-05
0.000326889
3.60363e-05
0.000315276
3.48664e-05
0.000304036
3.37433e-05
0.000293157
3.26638e-05
0.000282623
3.16255e-05
0.000272422
3.06255e-05
0.000262546
2.96529e-05
0.000252983
2.87105e-05
0.000243722
2.78039e-05
0.000234756
2.6922e-05
0.000226074
2.60653e-05
0.00021767
2.5233e-05
0.000209536
2.44238e-05
0.000201663
2.36362e-05
0.000194047
2.28687e-05
0.00018668
2.21206e-05
0.000179555
2.13917e-05
0.000172667
2.0682e-05
0.000166009
1.99913e-05
0.000159575
1.93197e-05
0.000153358
1.86667e-05
0.000147353
1.80322e-05
0.000141553
1.74155e-05
0.000135952
1.68162e-05
0.000130546
1.62336e-05
0.000125328
1.56682e-05
0.000120293
1.51186e-05
0.000115436
1.4585e-05
0.000110751
1.40666e-05
0.000106234
1.35634e-05
0.00010188
1.30751e-05
9.76832e-05
1.26009e-05
9.36399e-05
1.21415e-05
8.97452e-05
1.1695e-05
8.59942e-05
1.12633e-05
8.23833e-05
1.08433e-05
7.89069e-05
1.04382e-05
7.55627e-05
1.00435e-05
7.23439e-05
9.66383e-06
6.92497e-05
9.29357e-06
6.62724e-05
8.93786e-06
6.34124e-05
8.59129e-06
6.06612e-05
8.25808e-06
5.80201e-05
7.9346e-06
5.54806e-05
7.62233e-06
5.30436e-05
7.32137e-06
5.07021e-05
7.02855e-06
4.84552e-05
6.7494e-06
4.62987e-05
6.47476e-06
4.42284e-05
6.21648e-06
4.22447e-05
5.95905e-06
4.03385e-05
5.72039e-06
3.85157e-05
5.47957e-06
3.67618e-05
5.25899e-06
3.50886e-05
5.03448e-06
3.34762e-05
4.83015e-06
3.19417e-05
4.6218e-06
3.04608e-05
4.43201e-06
2.90544e-05
4.23968e-06
2.76958e-05
4.06281e-06
2.64075e-05
3.88611e-06
2.51626e-05
3.72095e-06
2.39831e-05
3.55911e-06
2.28439e-05
3.40499e-06
2.17644e-05
3.2567e-06
2.0723e-05
3.11352e-06
1.97358e-05
2.97711e-06
1.87847e-05
2.84509e-06
1.78826e-05
2.71886e-06
1.70145e-05
2.59804e-06
1.61912e-05
2.48077e-06
1.53992e-05
2.37056e-06
1.46486e-05
2.26182e-06
1.39264e-05
2.16098e-06
1.32427e-05
2.06094e-06
1.25847e-05
1.96795e-06
1.19625e-05
1.87684e-06
1.13636e-05
1.79044e-06
1.07973e-05
1.70809e-06
1.0253e-05
1.62784e-06
9.73753e-06
1.55389e-06
9.24291e-06
1.48055e-06
8.77266e-06
1.41602e-06
8.32289e-06
1.34786e-06
1.25936e-06
7.90423e-06
0.000389361
-0.000108444
0.000456697
-0.000265652
0.000535398
-0.000324922
0.000594564
-0.000249332
0.000598659
-2.06842e-05
0.000539861
0.000299573
0.00051203
0.000152946
0.000556143
-0.000225165
0.000577289
-0.000150563
0.000509459
0.000184881
0.000407507
0.000418786
0.000416238
6.42382e-05
0.000498473
-0.000307281
0.000600105
-0.000395569
0.000687649
-0.000363221
0.00070265
-9.94087e-05
0.000658866
0.000179158
0.000562425
0.000395428
0.000466591
0.000372487
0.0004405
8.71351e-05
0.000462625
-9.05417e-05
0.000533645
-0.000290375
0.000653571
-0.000497373
0.000726113
-0.000302975
0.000701352
0.000145191
0.000647396
0.000262234
0.000621646
0.000109691
0.000634099
-5.67084e-05
0.000669484
-0.000149995
0.000725825
-0.000233041
0.000794382
-0.000279048
0.000868021
-0.000297562
0.000947233
-0.000322396
0.00101568
-0.000278369
0.00104789
-0.000123491
0.00105166
-1.23645e-05
0.00104611
4.26475e-05
0.00103013
0.000170208
0.00100646
0.000390274
0.000992998
0.000323439
0.000983759
6.26063e-05
0.000965978
-3.27421e-05
0.000939188
-5.54089e-05
0.000904713
-5.02173e-05
0.000866325
2.24349e-06
0.000818789
9.88366e-05
0.00075294
0.000210545
0.000685031
0.000271342
0.000634581
0.000227764
0.00059906
0.00015293
0.000571036
0.000114737
0.000546924
9.7103e-05
0.000525177
8.71991e-05
0.000505089
8.04697e-05
0.00048628
7.533e-05
0.000468513
7.1148e-05
0.000451629
6.7615e-05
0.000435509
6.45485e-05
0.000420067
6.18334e-05
0.000405236
5.93875e-05
0.000390963
5.71542e-05
0.000377204
5.50919e-05
0.000363925
5.3171e-05
0.000351097
5.13672e-05
0.000338695
4.96596e-05
0.0003267
4.80317e-05
0.000315094
4.64723e-05
0.000303862
4.49753e-05
0.000292989
4.35365e-05
0.000282462
4.21525e-05
0.000272268
4.08196e-05
0.000262398
3.95233e-05
0.000252841
3.82671e-05
0.000243586
3.70588e-05
0.000234625
3.58833e-05
0.000225949
3.47414e-05
0.00021755
3.36321e-05
0.00020942
3.25535e-05
0.000201553
3.15037e-05
0.000193941
3.04806e-05
0.000186578
2.94836e-05
0.000179457
2.8512e-05
0.000172573
2.75661e-05
0.000165919
2.66455e-05
0.000159488
2.57503e-05
0.000153275
2.488e-05
0.000147273
2.40342e-05
0.000141477
2.32122e-05
0.000135879
2.24134e-05
0.000130476
2.16369e-05
0.000125261
2.08833e-05
0.000120229
2.01508e-05
0.000115374
1.94395e-05
0.000110692
1.87487e-05
0.000106177
1.80779e-05
0.000101826
1.74271e-05
9.76313e-05
1.67951e-05
9.35902e-05
1.61827e-05
8.96976e-05
1.55877e-05
8.59486e-05
1.50121e-05
8.23397e-05
1.44526e-05
7.88651e-05
1.39122e-05
7.55226e-05
1.33867e-05
7.23056e-05
1.288e-05
6.9213e-05
1.23872e-05
6.62373e-05
1.19124e-05
6.33788e-05
1.14511e-05
6.06291e-05
1.10064e-05
5.79893e-05
1.05757e-05
5.54511e-05
1.01593e-05
5.30154e-05
9.7581e-06
5.06751e-05
9.36815e-06
4.84294e-05
8.99541e-06
4.6274e-05
8.63041e-06
4.42048e-05
8.28472e-06
4.22221e-05
7.94344e-06
4.03169e-05
7.62315e-06
3.84951e-05
7.30467e-06
3.67421e-05
7.00793e-06
3.50697e-05
6.71161e-06
3.34582e-05
6.43625e-06
3.19244e-05
6.16158e-06
3.04443e-05
5.90569e-06
2.90386e-05
5.6521e-06
2.76807e-05
5.41385e-06
2.63931e-05
5.18054e-06
2.51488e-05
4.95855e-06
2.397e-05
4.74435e-06
2.28313e-05
4.53776e-06
2.17524e-05
4.341e-06
2.07115e-05
4.14949e-06
1.97248e-05
3.96822e-06
1.87742e-05
3.79176e-06
1.78726e-05
3.62406e-06
1.70049e-05
3.46236e-06
1.6182e-05
3.30687e-06
1.53904e-05
3.15902e-06
1.46402e-05
3.01516e-06
1.39184e-05
2.87964e-06
1.32351e-05
2.74739e-06
1.25774e-05
2.62247e-06
1.19555e-05
2.50185e-06
1.1357e-05
2.38609e-06
1.07909e-05
2.27671e-06
1.02469e-05
2.1696e-06
9.7317e-06
2.071e-06
9.23733e-06
1.97341e-06
8.76732e-06
1.88718e-06
8.3178e-06
1.79654e-06
1.67838e-06
7.89936e-06
0.000395769
-0.000137311
0.000462136
-0.000332018
0.000542853
-0.000405639
0.000605963
-0.000312442
0.000610654
-2.53747e-05
0.000526596
0.000383631
0.000468539
0.000211002
0.000528675
-0.000285301
0.000587393
-0.00020928
0.000551807
0.000220466
0.000523969
0.000446624
0.000534624
5.3583e-05
0.000530302
-0.000302959
0.0005824
-0.000447667
0.000677691
-0.000458512
0.000716447
-0.000138165
0.000675408
0.000220197
0.000572318
0.000498519
0.000475252
0.000469553
0.000455557
0.00010683
0.000481306
-0.000116291
0.000555315
-0.000364384
0.000677761
-0.000619819
0.000745219
-0.000370433
0.00070766
0.000182751
0.000644745
0.000325148
0.000618872
0.000135564
0.000634227
-7.20636e-05
0.000671784
-0.000187552
0.00072988
-0.000291137
0.000799888
-0.000349056
0.000874558
-0.000372231
0.000953856
-0.000401695
0.00102247
-0.000346988
0.00105525
-0.00015627
0.00105908
-1.61912e-05
0.00105323
4.84989e-05
0.00104059
0.000182851
0.00102349
0.000407371
0.00100529
0.000341637
0.000982849
8.50496e-05
0.000956369
-6.26187e-06
0.00092587
-2.49106e-05
0.000890462
-1.48095e-05
0.000852579
4.01265e-05
0.000808134
0.000143282
0.0007462
0.000272479
0.000681372
0.00033617
0.000633106
0.000276031
0.000598389
0.000187647
0.000570626
0.000142499
0.000546597
0.000121133
0.000524885
0.000108911
0.000504819
0.000100536
0.000486026
9.41222e-05
0.000468275
8.88997e-05
0.000451403
8.44866e-05
0.000435296
8.0656e-05
0.000419865
7.72641e-05
0.000405044
7.42083e-05
0.00039078
7.14182e-05
0.00037703
6.88415e-05
0.00036376
6.64415e-05
0.000350939
6.41878e-05
0.000338545
6.20542e-05
0.000326556
6.00201e-05
0.000314957
5.80716e-05
0.000303731
5.62011e-05
0.000292864
5.44032e-05
0.000282343
5.2674e-05
0.000272154
5.10085e-05
0.000262289
4.93886e-05
0.000252737
4.7819e-05
0.000243486
4.63091e-05
0.00023453
4.48402e-05
0.000225858
4.34134e-05
0.000217462
4.20273e-05
0.000209337
4.06794e-05
0.000201473
3.93675e-05
0.000193864
3.80892e-05
0.000186504
3.68433e-05
0.000179387
3.56292e-05
0.000172506
3.44471e-05
0.000165855
3.32968e-05
0.000159427
3.21782e-05
0.000153216
3.10906e-05
0.000147217
3.00337e-05
0.000141422
2.90066e-05
0.000135827
2.80083e-05
0.000130426
2.70381e-05
0.000125213
2.60962e-05
0.000120183
2.5181e-05
0.00011533
2.42921e-05
0.00011065
2.34289e-05
0.000106137
2.25907e-05
0.000101787
2.17774e-05
9.75947e-05
2.09877e-05
9.35551e-05
2.02223e-05
8.96639e-05
1.9479e-05
8.59164e-05
1.87594e-05
8.23088e-05
1.80606e-05
7.88356e-05
1.7385e-05
7.54943e-05
1.67287e-05
7.22784e-05
1.6095e-05
6.9187e-05
1.54796e-05
6.62124e-05
1.48858e-05
6.33549e-05
1.43099e-05
6.06062e-05
1.37538e-05
5.79674e-05
1.32158e-05
5.54302e-05
1.26953e-05
5.29954e-05
1.21939e-05
5.06559e-05
1.17069e-05
4.8411e-05
1.12406e-05
4.62564e-05
1.07853e-05
4.4188e-05
1.03522e-05
4.2206e-05
9.9271e-06
4.03014e-05
9.52523e-06
3.84802e-05
9.12911e-06
3.67279e-05
8.75624e-06
3.50562e-05
8.38813e-06
3.34451e-05
8.04179e-06
3.1912e-05
7.7008e-06
3.04323e-05
7.37884e-06
2.90272e-05
7.064e-06
2.76697e-05
6.76441e-06
2.63826e-05
6.4745e-06
2.51388e-05
6.19571e-06
2.39603e-05
5.92915e-06
2.28221e-05
5.67013e-06
2.17436e-05
5.4249e-06
2.07031e-05
5.1851e-06
1.97167e-05
4.95897e-06
1.87665e-05
4.73809e-06
1.78651e-05
4.52894e-06
1.69978e-05
4.32638e-06
1.61752e-05
4.13268e-06
1.53839e-05
3.94721e-06
1.46339e-05
3.76823e-06
1.39124e-05
3.59805e-06
1.32293e-05
3.4336e-06
1.25719e-05
3.27676e-06
1.19502e-05
3.12663e-06
1.13519e-05
2.98152e-06
1.07861e-05
2.84511e-06
1.02422e-05
2.71116e-06
9.7272e-06
2.58792e-06
9.23301e-06
2.4661e-06
8.76317e-06
2.35818e-06
8.31381e-06
2.24505e-06
2.09723e-06
7.89555e-06
0.000388568
-0.000171934
0.000457583
-0.000401033
0.000534988
-0.000483044
0.000592365
-0.00036982
0.000596829
-2.9838e-05
0.000526217
0.000454243
0.000485102
0.000252117
0.000556483
-0.000356681
0.000616176
-0.000268974
0.000616197
0.000220446
0.000605233
0.000457587
0.000559721
9.90956e-05
0.000519094
-0.000262332
0.000560035
-0.000488609
0.000648681
-0.000547157
0.000697447
-0.000186931
0.000663847
0.000253797
0.000566958
0.000595407
0.000468785
0.000567726
0.000441664
0.000133952
0.000464204
-0.000138831
0.000536222
-0.000436402
0.000654855
-0.000738452
0.000724322
-0.000439901
0.000696024
0.000211048
0.000641038
0.000380135
0.000618854
0.000157748
0.000633657
-8.68667e-05
0.000669888
-0.000223783
0.000726834
-0.000348084
0.000796014
-0.000418236
0.000870093
-0.00044631
0.000948836
-0.000480438
0.00101691
-0.000415065
0.00104883
-0.000188187
0.00105255
-1.99114e-05
0.00104896
5.20903e-05
0.00104046
0.000191346
0.00102655
0.00042128
0.00100892
0.000359269
0.000986388
0.000107584
0.000959048
2.10789e-05
0.000926579
7.55856e-06
0.000889486
2.22832e-05
0.000849472
8.01407e-05
0.000801028
0.000191726
0.000738843
0.000334664
0.000677223
0.000397791
0.000631613
0.000321641
0.000597775
0.000221484
0.000570266
0.000170008
0.000546314
0.000145084
0.000524636
0.00013059
0.00050459
0.000120581
0.000485815
0.000112898
0.000468077
0.000106637
0.000451218
0.000101346
0.000435122
9.67523e-05
0.000419701
9.26847e-05
0.000404889
8.902e-05
0.000390634
8.56738e-05
0.000376892
8.25834e-05
0.000363629
7.97048e-05
0.000350815
7.70017e-05
0.000338426
7.44425e-05
0.000326444
7.20027e-05
0.00031485
6.96655e-05
0.000303629
6.74218e-05
0.000292767
6.52652e-05
0.00028225
6.31909e-05
0.000272066
6.1193e-05
0.000262204
5.92499e-05
0.000252656
5.7367e-05
0.00024341
5.55558e-05
0.000234456
5.37938e-05
0.000225787
5.20821e-05
0.000217396
5.04191e-05
0.000209273
4.88024e-05
0.000201411
4.72287e-05
0.000193806
4.56951e-05
0.000186448
4.42004e-05
0.000179334
4.2744e-05
0.000172455
4.13259e-05
0.000165806
3.99459e-05
0.00015938
3.8604e-05
0.000153171
3.72993e-05
0.000147174
3.60313e-05
0.000141381
3.47992e-05
0.000135788
3.36015e-05
0.000130388
3.24376e-05
0.000125177
3.13076e-05
0.000120148
3.02097e-05
0.000115297
2.91433e-05
0.000110618
2.81077e-05
0.000106107
2.71021e-05
0.000101758
2.61264e-05
9.75663e-05
2.51791e-05
9.35279e-05
2.42607e-05
8.96378e-05
2.33691e-05
8.58914e-05
2.25057e-05
8.22848e-05
2.16675e-05
7.88126e-05
2.08567e-05
7.54722e-05
2.00697e-05
7.22573e-05
1.93091e-05
6.91667e-05
1.85712e-05
6.61929e-05
1.78584e-05
6.33363e-05
1.71679e-05
6.05883e-05
1.65003e-05
5.79503e-05
1.58552e-05
5.54137e-05
1.52306e-05
5.29796e-05
1.46291e-05
5.06408e-05
1.4045e-05
4.83964e-05
1.34852e-05
4.62424e-05
1.29396e-05
4.41746e-05
1.24191e-05
4.21931e-05
1.19102e-05
4.02891e-05
1.14268e-05
3.84684e-05
1.09531e-05
3.67166e-05
1.05041e-05
3.50453e-05
1.00642e-05
3.34347e-05
9.64688e-06
3.1902e-05
9.2396e-06
3.04227e-05
8.85159e-06
2.9018e-05
8.47552e-06
2.76609e-05
8.1146e-06
2.63742e-05
7.7681e-06
2.51307e-05
7.43254e-06
2.39525e-05
7.11363e-06
2.28146e-05
6.80219e-06
2.17364e-05
6.5085e-06
2.06962e-05
6.22042e-06
1.971e-05
5.94944e-06
1.87601e-05
5.68416e-06
1.7859e-05
5.43357e-06
1.69919e-05
5.19016e-06
1.61695e-05
4.95825e-06
1.53784e-05
4.73517e-06
1.46287e-05
4.52108e-06
1.39073e-05
4.31626e-06
1.32245e-05
4.11961e-06
1.25672e-05
3.93086e-06
1.19457e-05
3.75123e-06
1.13476e-05
3.5768e-06
1.07819e-05
3.41336e-06
1.02382e-05
3.25257e-06
9.72334e-06
3.1047e-06
9.22928e-06
2.95865e-06
8.75956e-06
2.82904e-06
8.31035e-06
2.69342e-06
2.51595e-06
7.89223e-06
0.000405172
-0.000209061
0.000478535
-0.000474396
0.000553967
-0.000558476
0.000607743
-0.000423596
0.000609792
-3.18871e-05
0.000529061
0.000534975
0.000476347
0.000304831
0.000541832
-0.000422166
0.000658831
-0.000385973
0.000735234
0.000144043
0.000696145
0.000496676
0.000590708
0.000204533
0.000530626
-0.00020225
0.000567403
-0.000525385
0.000651381
-0.000631136
0.000705495
-0.000241045
0.000677025
0.000282267
0.000576156
0.000696276
0.00047672
0.000667162
0.000455343
0.000155329
0.000481616
-0.000165105
0.000553696
-0.000508481
0.000671047
-0.000855803
0.000735658
-0.00050451
0.000698644
0.000248062
0.000638954
0.000439825
0.000617693
0.000179009
0.000634759
-0.000103932
0.000672827
-0.000261851
0.000731093
-0.00040635
0.000801206
-0.000488349
0.000875716
-0.00052082
0.000954319
-0.000559041
0.0010225
-0.000483243
0.00105499
-0.000220676
0.00105873
-2.36543e-05
0.00105436
5.64556e-05
0.00104561
0.000200097
0.00103196
0.000434931
0.00101353
0.000377702
0.000989047
0.000132066
0.000959445
5.06805e-05
0.000925194
4.18104e-05
0.000887344
6.01328e-05
0.000845814
0.000121671
0.000793684
0.000243855
0.000730354
0.000397994
0.000672802
0.000455343
0.000630124
0.000364319
0.000597209
0.000254399
0.000569947
0.000197271
0.000546068
0.000168963
0.000524421
0.000152237
0.000504395
0.000140607
0.000485635
0.000131658
0.000467911
0.000124361
0.000451063
0.000118193
0.000434977
0.000112838
0.000419566
0.000108096
0.000404762
0.000103824
0.000390514
9.9922e-05
0.000376779
9.63186e-05
0.000363521
9.29621e-05
0.000350713
8.981e-05
0.00033833
8.68257e-05
0.000326352
8.39804e-05
0.000314763
8.12549e-05
0.000303546
7.86383e-05
0.000292688
7.61232e-05
0.000282175
7.37042e-05
0.000271994
7.13741e-05
0.000262136
6.91079e-05
0.000252591
6.6912e-05
0.000243347
6.47996e-05
0.000234396
6.27446e-05
0.00022573
6.07482e-05
0.00021734
5.88088e-05
0.00020922
5.69231e-05
0.000201361
5.50875e-05
0.000193757
5.32989e-05
0.000186402
5.15556e-05
0.000179289
4.98569e-05
0.000172412
4.82029e-05
0.000165765
4.65933e-05
0.000159341
4.50281e-05
0.000153134
4.35063e-05
0.000147137
4.20274e-05
0.000141346
4.05903e-05
0.000135754
3.91933e-05
0.000130356
3.78358e-05
0.000125146
3.65178e-05
0.000120119
3.52372e-05
0.000115269
3.39932e-05
0.000110591
3.27854e-05
0.000106081
3.16125e-05
0.000101733
3.04744e-05
9.75422e-05
2.93694e-05
9.35048e-05
2.82982e-05
8.96156e-05
2.72583e-05
8.58701e-05
2.62511e-05
8.22643e-05
2.52736e-05
7.87929e-05
2.43276e-05
7.54533e-05
2.34099e-05
7.22391e-05
2.25224e-05
6.91493e-05
2.16621e-05
6.61762e-05
2.08303e-05
6.33202e-05
2.00252e-05
6.05728e-05
1.92463e-05
5.79354e-05
1.8494e-05
5.53994e-05
1.77653e-05
5.29659e-05
1.70637e-05
5.06276e-05
1.63826e-05
4.83838e-05
1.57292e-05
4.62303e-05
1.50933e-05
4.41629e-05
1.44856e-05
4.21819e-05
1.38929e-05
4.02783e-05
1.33279e-05
3.84581e-05
1.27766e-05
3.67066e-05
1.22515e-05
3.50357e-05
1.17399e-05
3.34255e-05
1.12516e-05
3.18931e-05
1.0778e-05
3.04142e-05
1.0324e-05
2.90098e-05
9.8867e-06
2.7653e-05
9.46448e-06
2.63666e-05
9.06139e-06
2.51234e-05
8.66908e-06
2.39455e-05
8.29782e-06
2.28078e-05
7.93399e-06
2.17299e-05
7.59184e-06
2.069e-05
7.25551e-06
1.97041e-05
6.93968e-06
1.87543e-05
6.63001e-06
1.78535e-05
6.33797e-06
1.69866e-05
6.05373e-06
1.61644e-05
5.78363e-06
1.53735e-05
5.52296e-06
1.46239e-05
5.27376e-06
1.39027e-05
5.03429e-06
1.32201e-05
4.80545e-06
1.2563e-05
4.58481e-06
1.19416e-05
4.37568e-06
1.13436e-05
4.17193e-06
1.07781e-05
3.98146e-06
1.02345e-05
3.79385e-06
9.71976e-06
3.62135e-06
9.22582e-06
3.45109e-06
8.75621e-06
3.2998e-06
8.30712e-06
3.14167e-06
2.93454e-06
7.88912e-06
0.000410383
-0.000257485
0.000482047
-0.00054606
0.000551779
-0.000628208
0.000598448
-0.000470265
0.0005977
-3.11393e-05
0.000528187
0.000604488
0.000485043
0.000347975
0.000547774
-0.000484897
0.000680866
-0.000519065
0.000773678
5.12301e-05
0.000717161
0.000553194
0.000590814
0.00033088
0.000527887
-0.000139323
0.000562549
-0.000560047
0.000644586
-0.000713173
0.000695047
-0.000291506
0.000665342
0.000311972
0.000569826
0.000791792
0.00047005
0.000766938
0.000446106
0.000179273
0.000476373
-0.000195371
0.000546646
-0.000578755
0.000655321
-0.000964478
0.000719058
-0.000568248
0.000690154
0.000276966
0.000637015
0.000492963
0.000618129
0.000197895
0.000634449
-0.000120252
0.000671326
-0.000298728
0.000728678
-0.000463702
0.000798131
-0.000557802
0.000872227
-0.000594916
0.000950544
-0.000637359
0.00101857
-0.000551274
0.00105013
-0.000252229
0.00105289
-2.64147e-05
0.00104949
5.98522e-05
0.00104345
0.000206143
0.00103275
0.000445624
0.00101607
0.000394382
0.000992047
0.000156092
0.000961336
8.13911e-05
0.000924739
7.84075e-05
0.000883735
0.000101137
0.000839879
0.000165527
0.000786383
0.000297351
0.000723391
0.000460986
0.000669365
0.000509369
0.000628967
0.000404717
0.000596742
0.000286624
0.000569671
0.000224342
0.000545852
0.000192782
0.000524233
0.000173856
0.000504226
0.000160613
0.000485481
0.000150403
0.000467768
0.000142074
0.000450931
0.000135031
0.000434854
0.000128916
0.00041945
0.0001235
0.000404654
0.00011862
0.000390412
0.000114164
0.000376682
0.000110048
0.00036343
0.000106214
0.000350627
0.000102613
0.000338248
9.92044e-05
0.000326274
9.59541e-05
0.000314689
9.28405e-05
0.000303476
8.98513e-05
0.000292621
8.6978e-05
0.000282111
8.42144e-05
0.000271933
8.15524e-05
0.000262077
7.89633e-05
0.000252535
7.64544e-05
0.000243293
7.40411e-05
0.000234345
7.16931e-05
0.000225681
6.94122e-05
0.000217293
6.71964e-05
0.000209174
6.50418e-05
0.000201317
6.29446e-05
0.000193715
6.0901e-05
0.000186362
5.89091e-05
0.00017925
5.69682e-05
0.000172375
5.50783e-05
0.000165729
5.32393e-05
0.000159306
5.14508e-05
0.000153101
4.97121e-05
0.000147106
4.80222e-05
0.000141316
4.63802e-05
0.000135725
4.4784e-05
0.000130328
4.32329e-05
0.000125119
4.17268e-05
0.000120093
4.02637e-05
0.000115244
3.88422e-05
0.000110567
3.74622e-05
0.000106057
3.61219e-05
0.00010171
3.48215e-05
9.75208e-05
3.3559e-05
9.34841e-05
3.23349e-05
8.95957e-05
3.11467e-05
8.58509e-05
2.99957e-05
8.22459e-05
2.88789e-05
7.87752e-05
2.77979e-05
7.54363e-05
2.67494e-05
7.22227e-05
2.57351e-05
6.91335e-05
2.47524e-05
6.6161e-05
2.38017e-05
6.33056e-05
2.28819e-05
6.05588e-05
2.19917e-05
5.79219e-05
2.11323e-05
5.53864e-05
2.02995e-05
5.29534e-05
1.94978e-05
5.06156e-05
1.87197e-05
4.83722e-05
1.79728e-05
4.62192e-05
1.72467e-05
4.41522e-05
1.65516e-05
4.21716e-05
1.58751e-05
4.02684e-05
1.52287e-05
3.84485e-05
1.45997e-05
3.66974e-05
1.39986e-05
3.50269e-05
1.34152e-05
3.3417e-05
1.2856e-05
3.1885e-05
1.23161e-05
3.04064e-05
1.17961e-05
2.90023e-05
1.12976e-05
2.76458e-05
1.08141e-05
2.63596e-05
1.03544e-05
2.51167e-05
9.90537e-06
2.3939e-05
9.48175e-06
2.28016e-05
9.06555e-06
2.17239e-05
8.67494e-06
2.06842e-05
8.29037e-06
1.96985e-05
7.9297e-06
1.87489e-05
7.57566e-06
1.78483e-05
7.24218e-06
1.69816e-05
6.91712e-06
1.61596e-05
6.60882e-06
1.53688e-05
6.31057e-06
1.46195e-05
6.02626e-06
1.38984e-05
5.75217e-06
1.32159e-05
5.49114e-06
1.25589e-05
5.23862e-06
1.19377e-05
4.99999e-06
1.13398e-05
4.76693e-06
1.07744e-05
4.54944e-06
1.0231e-05
4.33501e-06
9.71637e-06
4.13788e-06
9.22254e-06
3.94342e-06
8.75303e-06
3.77046e-06
8.30405e-06
3.58981e-06
3.35301e-06
7.88617e-06
0.000422447
-0.000295965
0.000485336
-0.000608949
0.000562231
-0.000705103
0.000617663
-0.000525697
0.000614545
-2.80216e-05
0.000538383
0.00068065
0.000493734
0.000392624
0.000555733
-0.000546896
0.000691001
-0.000654334
0.000785851
-4.36198e-05
0.000728152
0.000610893
0.000598721
0.00046031
0.000536184
-7.67856e-05
0.00056831
-0.000592174
0.000651639
-0.000796501
0.000705926