/*--------------------------------*- C++ -*----------------------------------*\
| =========                 |                                                 |
| \\      /  F ield         | OpenFOAM: The Open Source CFD Toolbox           |
|  \\    /   O peration     | Version:  v1912                                 |
|   \\  /    A nd           | Website:  www.openfoam.com                      |
|    \\/     M anipulation  |                                                 |
\*---------------------------------------------------------------------------*/
FoamFile
{
    version     2.0;
    format      ascii;
    class       surfaceScalarField;
    location    "60";
    object      alphaPhi0.water;
}
// * * * * * * * * * * * * * * * * * * * * * * * * * * * * * * * * * * * * * //

dimensions      [0 3 -1 0 0 0 0];
oriented        oriented;


internalField   nonuniform List<scalar> 
28285
(
3.60277e-08
2.87352e-07
-1.02232e-06
3.62715e-07
-5.86016e-07
-2.3157e-07
1.53981e-06
-9.54239e-07
3.06038e-06
-1.16558e-06
2.54805e-06
6.65211e-07
1.30261e-06
1.62346e-07
-4.67185e-08
1.48329e-06
-1.09493e-06
2.68894e-06
-6.75278e-07
5.85891e-07
-5.33826e-07
-2.57118e-07
-6.70157e-07
-2.00997e-07
-9.78716e-07
-1.69624e-07
-1.67002e-07
-4.84494e-07
5.90172e-07
-5.95892e-07
6.34863e-07
-5.21918e-07
1.41699e-07
3.81533e-07
-2.88778e-07
5.41266e-07
-2.09219e-07
4.97896e-09
-1.88123e-07
3.05222e-09
-8.32812e-08
-4.6393e-08
1.11959e-07
-1.16094e-07
2.49994e-07
-6.89709e-08
1.72591e-07
1.0046e-07
4.9052e-08
1.64727e-08
3.86422e-09
3.6067e-09
4.97211e-09
-1.10495e-09
1.05665e-08
-5.59638e-09
1.75511e-08
-6.98259e-09
1.44575e-08
3.09358e-09
-3.77132e-09
1.82298e-08
-6.43989e-08
5.55093e-08
2.16891e-08
-8.10052e-08
6.35691e-08
-4.15826e-08
1.82843e-08
2.48505e-08
2.56274e-09
8.28281e-09
-5.66929e-10
2.96372e-09
-1.57093e-08
1.53084e-08
-7.27632e-08
3.62011e-08
-5.37346e-08
-2.94693e-08
-2.27259e-08
-2.33851e-08
-1.18436e-08
-3.35885e-09
-1.1415e-08
3.09064e-09
-1.97206e-08
1.00315e-08
-1.84374e-08
4.39122e-10
-1.2818e-08
-2.86339e-09
-1.00665e-08
-4.19356e-15
-1.41965e-08
8.05715e-09
-2.05681e-08
1.17357e-08
-2.81212e-08
1.41903e-08
-2.29146e-08
1.12172e-08
-8.1544e-09
-1.24897e-14
-9.04328e-09
1.38304e-10
-1.15353e-08
1.73089e-09
-1.42694e-08
-2.04752e-09
-8.51593e-09
-9.07097e-09
-6.24137e-10
-4.9839e-09
-7.05283e-10
2.20097e-10
-1.34555e-09
3.82763e-10
-2.52146e-09
5.86394e-12
-2.49976e-09
1.46531e-11
-8.32872e-10
-2.72705e-09
-3.94737e-10
-9.72407e-10
-2.92657e-10
-1.02073e-10
-3.73283e-10
8.06192e-11
-4.91013e-09
1.54531e-10
-1.87628e-08
1.58027e-09
-2.60189e-08
7.8354e-10
-3.31547e-08
-3.06156e-10
-4.49666e-08
-1.44876e-09
-3.8955e-08
-6.01046e-09
-4.03999e-08
1.44376e-09
-3.39965e-08
-1.91772e-08
-2.46625e-08
-2.20964e-08
-2.91161e-09
-3.12059e-08
8.22122e-09
-1.32415e-08
2.62827e-08
-1.8177e-08
2.83451e-08
-1.33325e-09
1.71125e-08
1.19591e-08
1.79982e-08
-9.80012e-10
3.88117e-08
-8.10269e-09
6.67223e-08
-5.201e-09
1.07698e-07
-6.9579e-09
1.83642e-07
-2.52761e-08
2.25449e-07
-4.24087e-08
1.89791e-07
3.58164e-08
9.87286e-08
9.08079e-08
5.54466e-08
4.35369e-08
6.39702e-08
-9.42822e-09
7.25935e-08
-8.65785e-09
5.31763e-08
1.65524e-08
-2.14572e-08
7.46367e-08
-9.0879e-08
6.65517e-08
-9.95514e-08
1.04312e-08
-9.23107e-08
-1.18504e-08
-2.57461e-08
-6.62134e-08
1.24154e-09
-2.69878e-08
-4.32462e-08
4.1493e-08
-1.09079e-07
8.0028e-08
-1.64007e-07
3.96059e-08
-1.62876e-07
1.90325e-09
-1.18619e-07
-3.56548e-08
-5.76594e-08
-8.12426e-08
-1.02998e-07
1.3104e-08
-4.89757e-07
1.14445e-06
-9.62587e-07
2.23639e-07
-1.47221e-07
-2.88579e-07
5.35883e-07
-1.6321e-06
1.56872e-06
-1.51295e-06
1.51974e-06
7.20177e-07
6.8243e-07
4.88701e-07
-9.67677e-08
2.12852e-06
-7.70691e-07
2.15992e-06
-8.77257e-07
1.51683e-06
-1.44481e-06
-4.69698e-07
-2.21636e-06
-5.96889e-07
-2.18879e-06
-2.12237e-07
-5.17791e-07
-5.88648e-07
9.28268e-07
-5.39267e-07
1.55726e-06
-8.78385e-07
3.20212e-08
1.25484e-06
-2.97231e-07
2.03692e-06
-3.95537e-08
-1.30993e-07
-4.44821e-08
8.07406e-09
-2.60195e-08
-5.02267e-08
1.74918e-08
-1.51218e-07
5.47304e-08
-6.92998e-08
9.52903e-08
3.66327e-08
4.01185e-08
9.90111e-09
7.37416e-09
2.49774e-09
2.09014e-08
-1.46467e-08
4.87396e-08
-9.89656e-08
2.9403e-08
-7.71293e-08
8.2809e-09
1.39136e-08
-2.73682e-08
5.80916e-08
-1.59296e-08
5.26491e-08
1.48406e-09
-2.85282e-08
2.212e-08
-5.14718e-08
2.27039e-09
3.75779e-08
1.63004e-09
3.49251e-08
-2.85674e-10
1.89309e-08
-2.11949e-08
3.26196e-08
-8.54225e-08
6.18315e-08
-7.84104e-08
-3.11085e-08
-6.0277e-08
-4.68913e-08
-2.48293e-08
-4.70327e-10
-1.71548e-08
2.92166e-09
-2.45133e-08
1.91195e-08
-2.71358e-08
-1.02213e-09
-2.06514e-08
-1.6576e-08
-1.36152e-08
-5.25872e-09
-1.97329e-08
1.44974e-08
-4.54782e-08
3.50819e-08
-6.19952e-08
4.19388e-08
-5.28403e-08
4.74423e-08
-2.80127e-08
2.32821e-09
-3.06291e-08
6.46256e-09
-8.76817e-08
2.11936e-08
-1.13458e-07
-1.77604e-08
-7.50573e-08
-9.54656e-08
-1.53554e-08
-5.89537e-08
-1.3495e-08
1.14326e-08
-4.78476e-08
2.1783e-08
-7.33595e-08
-1.14805e-10
-6.92703e-08
-4.03591e-09
-4.3614e-08
-2.16511e-08
-5.31353e-09
-3.75618e-08
-4.48354e-10
-3.16975e-09
-1.00089e-09
2.60376e-10
-4.26356e-09
1.53041e-10
-5.44965e-09
3.43769e-11
-5.81523e-09
-8.11298e-10
-5.6304e-09
-2.20071e-09
-9.47329e-09
-2.94656e-09
-1.34517e-08
-1.20013e-08
-2.9635e-08
-1.42477e-09
-2.73144e-08
-1.549e-08
-1.36881e-08
-2.37315e-08
4.56451e-09
-3.56027e-08
2.30796e-08
-2.54946e-08
1.76089e-08
-3.85698e-08
2.02685e-08
-7.35948e-09
2.04327e-08
8.42147e-09
1.42219e-08
-7.52188e-11
5.56696e-09
-1.75846e-09
5.70022e-09
-5.86294e-10
9.46024e-09
-7.7301e-10
4.37902e-08
-8.41993e-09
1.80497e-07
-3.88484e-08
2.01065e-07
1.62426e-08
1.62994e-07
1.29134e-07
7.27329e-08
1.37569e-08
4.42096e-08
-2.71482e-09
5.856e-08
-3.86575e-09
7.83863e-08
1.16426e-08
1.79299e-08
1.29921e-07
-5.73087e-08
1.4412e-07
-6.9508e-08
1.73391e-08
-8.17082e-08
-8.06477e-09
-2.68482e-08
-1.24239e-07
-1.3246e-08
-4.05816e-08
-8.25775e-08
1.12898e-07
-1.45061e-07
1.26243e-07
-1.45822e-07
6.71784e-08
-9.70279e-08
-1.75565e-08
-5.53866e-08
-8.01856e-08
-7.0954e-10
-1.4216e-07
-1.39199e-07
5.93921e-08
-9.1376e-08
1.70277e-06
-2.49142e-07
1.43653e-06
-2.08996e-07
-3.23333e-07
3.95469e-07
-2.23633e-06
9.07482e-07
-2.01957e-06
9.21071e-07
7.06783e-07
3.6448e-07
1.05082e-06
-8.43475e-08
4.94604e-06
-1.11117e-06
1.98178e-06
-2.27595e-06
3.89847e-07
-3.38098e-06
-1.5239e-06
-3.19403e-06
-8.32695e-07
-2.74772e-06
-3.64122e-07
-3.58753e-07
-5.73426e-06
1.69682e-06
-1.00063e-05
2.77289e-06
-4.9696e-06
7.40747e-08
3.93608e-06
-8.51486e-07
4.45337e-06
-4.79144e-08
-6.53003e-07
-4.90125e-08
9.09308e-09
-2.6125e-08
-7.30207e-08
2.04014e-08
-1.97823e-07
5.04775e-08
-9.92824e-08
6.33369e-08
3.20139e-09
1.99233e-08
2.37722e-08
2.60228e-08
1.11516e-08
1.22142e-07
-4.14514e-08
1.80005e-07
-1.90025e-07
1.54402e-07
-1.90806e-07
1.10682e-08
8.13518e-08
-1.68848e-08
1.04703e-07
-5.8761e-09
5.01474e-08
3.75857e-09
-5.19469e-08
2.35493e-08
-1.12879e-08
2.32103e-08
3.09758e-08
1.18866e-08
4.04368e-08
-4.04849e-10
7.17977e-08
-3.71366e-08
7.96727e-08
-6.3399e-08
1.06846e-07
-4.33504e-08
-2.8166e-08
-3.43688e-08
-3.51125e-08
-2.35961e-08
-2.94113e-11
-1.56606e-08
1.1197e-08
-3.75346e-08
5.20019e-08
-7.33246e-08
-2.54923e-09
-5.43719e-08
-7.65082e-08
-1.79894e-08
-3.0943e-08
-2.9253e-08
4.01844e-08
-9.8829e-08
9.80049e-08
-1.28715e-07
8.26844e-08
-1.46243e-07
5.41108e-08
-7.36514e-08
-5.54096e-09
-7.19179e-08
1.48857e-08
-1.86579e-07
4.80284e-08
-2.65264e-07
-7.6201e-08
-1.78759e-07
-2.7565e-07
-7.53641e-08
-1.8154e-07
-4.65223e-08
7.75355e-08
-1.62965e-07
1.27e-07
-1.90452e-07
-8.61391e-11
-1.67997e-07
-4.82465e-08
-1.24495e-07
-2.58513e-08
-4.21105e-08
-9.476e-08
-2.1731e-09
-1.70617e-08
-1.27147e-09
2.16173e-09
-1.23515e-09
4.34638e-10
-1.22167e-08
1.97285e-09
-4.09965e-08
-5.97277e-09
-4.1965e-08
-8.10256e-09
-2.09191e-08
-7.83858e-09
-3.56739e-08
-1.64464e-11
-2.80516e-08
1.43327e-08
-9.16649e-09
-3.99215e-09
-4.79834e-09
-1.1319e-08
-1.35553e-09
-9.20613e-09
1.47631e-08
-1.59151e-08
4.5649e-08
-4.46056e-08
4.20973e-08
-9.58118e-09
1.1267e-08
1.52833e-08
2.60076e-09
2.56069e-09
3.63804e-10
-2.306e-09
5.02043e-10
-5.85914e-10
8.34126e-10
-5.04609e-10
1.0859e-08
-3.05534e-09
9.12641e-08
-5.59297e-08
1.83639e-07
4.85533e-09
1.54383e-07
5.81905e-08
3.14031e-08
1.82581e-08
1.26188e-08
3.07287e-09
1.75127e-08
-7.15586e-10
3.98956e-08
1.7811e-09
3.51966e-08
6.07556e-08
-2.37583e-08
1.18498e-07
-2.5286e-08
9.13249e-09
-2.58026e-08
-2.78647e-09
-2.88727e-08
-7.00265e-08
-2.51044e-09
-7.81275e-08
-3.07936e-08
2.41628e-07
-3.6356e-08
1.56492e-07
-5.09773e-08
6.18136e-08
-5.43757e-08
-3.46756e-08
-3.6057e-08
-1.50032e-07
1.92395e-09
-9.78255e-08
-5.40294e-08
3.61765e-08
-6.23394e-07
2.92429e-06
-4.07622e-07
3.43627e-06
-3.24874e-07
-4.05886e-07
5.84106e-07
-7.45423e-06
1.86581e-06
-2.80642e-06
6.7741e-07
2.80106e-06
2.26306e-07
5.69185e-06
-1.50443e-07
3.59524e-06
-6.47068e-07
1.10157e-06
-3.52828e-06
1.83689e-06
-3.82262e-06
-3.01198e-06
-3.20247e-06
-3.30431e-06
-2.75661e-06
-4.71554e-06
-5.79087e-07
-9.09055e-06
2.29617e-06
-1.26904e-05
1.16682e-06
-3.26793e-06
4.07993e-08
2.10898e-06
-4.79143e-07
2.01117e-06
-1.70142e-07
-4.63458e-07
-1.08555e-07
7.16153e-08
-1.16082e-07
-1.86798e-07
3.26263e-08
-1.26199e-06
4.94928e-08
-2.28307e-07
2.36988e-08
1.12712e-08
1.4248e-08
3.2815e-08
1.07756e-07
3.7025e-08
1.16673e-07
-5.05146e-08
1.94466e-07
-2.67672e-07
2.41214e-07
-3.4717e-07
4.51742e-09
3.91393e-08
-5.35536e-09
1.36688e-07
-7.44603e-09
2.75287e-11
2.48003e-09
-1.52415e-07
2.66899e-09
-1.74946e-08
1.44533e-11
4.8682e-08
2.9027e-09
2.13761e-08
-1.14722e-09
5.96057e-08
-2.85171e-08
1.24418e-07
-1.65326e-08
4.61061e-08
-1.71342e-08
-2.00883e-08
-3.96327e-08
-5.82592e-09
-5.59357e-08
-1.41601e-08
-6.40064e-08
3.55079e-08
-9.62755e-08
1.70048e-07
-1.09974e-07
-4.569e-09
-7.48202e-08
-1.20703e-07
-5.34859e-08
-4.32361e-08
-6.39035e-08
7.19869e-08
-8.49018e-08
1.31938e-07
-5.81236e-08
4.91195e-08
-5.40254e-08
4.47084e-08
-1.18398e-07
-1.50349e-09
-3.06832e-07
1.91608e-08
-3.5297e-07
9.61215e-08
-2.84168e-07
-1.46958e-07
-1.86106e-07
-3.71757e-07
-1.34301e-07
-2.353e-07
-1.69826e-07
9.85562e-08
-2.24561e-07
2.28963e-07
-1.85604e-07
-2.39494e-09
-1.81376e-07
-2.01314e-08
-1.48621e-07
-4.78407e-08
-1.19492e-07
-1.13361e-07
-2.26282e-08
-4.15794e-08
-1.47679e-09
1.99196e-08
-2.07932e-09
7.1926e-10
-3.72206e-08
9.17049e-09
-6.88748e-08
-1.51267e-09
-6.3568e-08
-6.06239e-09
-3.01678e-08
-2.82847e-08
-3.86953e-08
-1.32348e-09
-3.61206e-09
1.25293e-08
-4.10191e-09
-6.30374e-09
-1.91509e-09
-1.63482e-08
-4.59484e-10
-1.34632e-08
1.92247e-09
-1.14312e-08
3.97102e-08
-1.22974e-08
6.68651e-08
-4.34421e-08
6.069e-08
2.81644e-08
9.7347e-09
2.07884e-09
4.39189e-10
-1.54925e-09
3.73314e-10
-5.20575e-10
5.4038e-10
-5.129e-10
2.29082e-09
-9.36151e-10
6.32201e-08
-3.42457e-08
6.8064e-08
6.86127e-09
3.19447e-08
-2.02679e-09
1.03519e-08
4.15431e-09
5.76872e-09
2.64217e-09
1.08009e-08
-5.93958e-10
1.67533e-08
1.57495e-12
1.5476e-08
2.02715e-08
-3.83507e-09
2.83236e-08
-1.61853e-08
2.27806e-09
-1.87177e-08
4.31084e-10
-4.21286e-08
-4.80593e-08
-6.00202e-09
-1.14254e-07
-4.22876e-08
2.77914e-07
-9.80728e-08
3.7063e-07
-1.71853e-07
1.90088e-07
-8.48976e-08
-5.12338e-08
-1.91999e-08
-4.17111e-08
8.38402e-10
-1.2066e-08
-5.46231e-09
8.25337e-09
-3.21832e-07
5.25807e-06
-3.1536e-07
7.4421e-06
-6.42639e-07
-4.77562e-07
1.90418e-06
-1.78341e-05
2.79789e-06
-5.38481e-06
2.11218e-06
5.43094e-06
7.80545e-07
7.02348e-06
1.84052e-07
2.45697e-06
-4.05622e-07
5.91711e-07
-1.5042e-06
1.83295e-06
-1.09655e-06
-2.28986e-06
-1.54639e-06
-9.14534e-07
-1.699e-06
-2.61937e-06
-4.17061e-07
-9.92508e-06
2.17677e-06
-1.54754e-05
3.21339e-07
-9.60949e-07
1.62756e-08
4.70838e-07
-1.81095e-07
1.55394e-06
-1.55428e-07
-2.01941e-07
-2.52803e-07
3.15099e-08
-2.96166e-07
-1.1969e-06
1.39869e-07
-2.93858e-06
8.60046e-08
-3.69335e-07
2.14014e-08
7.52935e-08
1.48009e-08
3.99969e-08
1.22154e-07
4.03591e-08
7.41159e-08
-5.88622e-08
9.07656e-08
-1.58418e-07
1.00755e-07
-3.99984e-07
3.4526e-08
2.53918e-08
-1.14463e-09
1.99033e-07
-1.19362e-08
7.06753e-10
1.26189e-08
-1.74613e-07
6.79408e-09
-3.59245e-08
2.13144e-09
2.91121e-08
1.0142e-08
1.7254e-09
1.04227e-08
6.33237e-08
-1.04602e-08
2.36599e-07
-1.6586e-08
4.30793e-08
-2.75913e-08
-2.12614e-08
-5.60769e-08
-5.18724e-08
-7.95488e-08
-1.10025e-07
-9.77427e-08
4.07807e-08
-1.73815e-07
2.46348e-07
-8.03495e-08
-2.40904e-08
-6.67499e-08
-5.63755e-08
-5.85814e-08
-6.24606e-08
-8.2169e-08
9.58784e-08
-3.36002e-08
8.22464e-08
-3.97602e-08
5.83805e-08
-4.59417e-08
4.77888e-08
-6.60399e-08
-5.56279e-10
-1.43823e-07
2.60435e-09
-1.54187e-07
1.62092e-08
-1.96077e-07
-2.66357e-07
-1.23805e-07
-5.29779e-07
-1.02319e-07
-3.77261e-07
-1.2794e-07
1.0747e-07
-1.24695e-07
2.13071e-07
-3.68852e-08
-2.42848e-09
-1.66486e-08
-1.21654e-09
-1.25571e-08
-1.86924e-09
-5.66174e-08
-5.21974e-08
-3.9224e-08
-3.32332e-08
-2.98004e-09
7.36304e-08
-7.70086e-09
2.82247e-09
-4.49478e-08
1.59818e-08
-3.65328e-08
-3.71221e-08
-1.81502e-08
-3.87627e-09
-2.10669e-08
-1.17533e-08
-1.48671e-08
-1.82869e-09
-2.15218e-08
1.18942e-08
-2.12323e-08
-3.46721e-08
-7.35723e-09
-6.40955e-08
1.78374e-10
-6.76678e-08
7.95794e-10
-1.82034e-08
2.21412e-09
-1.05256e-08
2.54779e-08
-6.36109e-09
2.90107e-08
6.18806e-09
4.57261e-09
5.21155e-10
4.44086e-10
-1.52602e-09
3.95654e-10
-3.13368e-10
5.27244e-10
-6.45022e-10
7.30884e-10
-9.66894e-10
3.57224e-08
-1.05737e-08
1.01533e-07
-3.42606e-10
2.73511e-08
1.07541e-07
8.48394e-09
2.8517e-08
5.32478e-09
1.13065e-08
2.81578e-08
2.21053e-12
8.85464e-09
2.46496e-08
6.13733e-09
2.30172e-08
-8.67546e-10
3.54318e-08
-3.12635e-08
1.35185e-08
-3.84312e-08
6.34579e-09
-1.87268e-08
-2.62833e-07
-1.87211e-08
-7.7033e-08
-7.86081e-08
3.37801e-07
-1.9114e-07
4.83162e-07
-1.70257e-07
1.69205e-07
-1.1518e-08
-2.54131e-08
-6.0262e-10
-3.73158e-09
5.94974e-10
-4.99426e-09
-7.17695e-09
1.66122e-09
-2.54368e-06
6.80599e-06
-8.69585e-07
2.4176e-06
-1.54994e-07
-3.71928e-06
2.46152e-06
-2.04696e-05
1.14896e-06
-4.54514e-06
2.74104e-06
3.83887e-06
1.33473e-06
8.42979e-06
1.66199e-07
6.69254e-07
-4.77086e-07
8.16054e-07
-1.0256e-06
1.09934e-06
-2.87012e-06
-1.71032e-06
-1.84041e-06
-6.99721e-06
-1.42705e-06
-5.18628e-06
-3.45803e-07
-1.30847e-05
2.2348e-06
-1.80292e-05
9.26649e-07
-2.78117e-06
-1.7426e-07
1.9202e-06
-8.10682e-08
2.57321e-06
-1.62767e-07
-1.63222e-07
-5.36425e-07
1.54395e-09
-3.45262e-07
-1.38585e-06
1.13438e-07
-3.39949e-06
2.37331e-08
-2.29967e-07
1.78986e-08
8.18422e-08
5.80192e-08
3.21783e-07
7.64531e-08
2.82908e-09
3.47567e-08
-5.52579e-08
2.32689e-08
-2.65744e-07
6.30547e-08
-5.5713e-07
3.18766e-09
1.03199e-07
-5.7154e-10
2.55294e-07
-7.04188e-09
8.50559e-09
1.39323e-08
-1.41259e-07
6.01522e-09
-3.1808e-08
-7.82722e-09
2.46524e-08
-9.55404e-09
2.14603e-09
-4.16414e-09
2.15907e-08
-8.74753e-09
4.4142e-07
-3.44569e-08
6.45171e-08
-6.99404e-08
-3.69218e-08
-1.20446e-07
-6.85388e-08
-9.4473e-08
-1.36814e-07
-1.03159e-07
4.96796e-08
-4.67841e-08
1.8945e-07
-1.52765e-08
-2.38843e-08
-1.81713e-08
-4.00127e-08
-6.28493e-08
-3.86446e-08
-6.77144e-08
1.0044e-07
-3.07016e-08
2.95301e-08
-4.3159e-08
6.77369e-08
-8.89314e-08
1.23712e-07
-6.26506e-08
-5.04323e-10
-6.19289e-08
8.64742e-09
-1.65609e-07
6.18161e-11
-1.07836e-07
-2.50353e-07
-9.06876e-08
-2.07997e-07
-8.2573e-08
-2.29114e-07
-1.38773e-07
2.21581e-09
-6.13398e-08
1.28973e-07
-1.36284e-09
-1.72012e-09
-6.28727e-10
-4.4511e-10
-4.91433e-10
-1.29402e-09
-6.16634e-08
-2.23521e-09
-6.43565e-08
-1.83221e-08
-8.30032e-09
4.01112e-08
-1.8031e-08
1.05481e-08
-4.32237e-08
1.97755e-08
-2.65262e-09
-4.75716e-08
-2.92951e-09
-5.32151e-09
-3.10085e-08
-1.16384e-08
-1.93757e-08
8.17949e-09
-4.3154e-08
3.49087e-08
-3.45692e-08
-3.95251e-08
-1.69333e-08
-8.54631e-08
3.17774e-09
-8.40471e-08
3.1889e-09
-6.2285e-08
1.01019e-09
-1.11049e-08
1.63733e-09
-1.44663e-09
4.54165e-09
-7.30264e-15
8.18526e-10
3.19796e-16
3.08569e-10
-6.2345e-10
4.07908e-10
-7.39096e-10
5.75737e-10
-6.54077e-10
6.62853e-10
-1.06963e-09
8.13597e-09
-2.42952e-09
1.3236e-07
-1.9042e-08
1.15935e-07
1.89998e-07
2.00108e-08
1.35116e-07
1.74795e-08
3.48465e-08
3.93105e-08
-6.60178e-10
1.72692e-08
5.68046e-08
6.11681e-09
3.42727e-08
-1.27565e-10
4.17041e-08
-2.3474e-08
1.88486e-08
-7.72416e-08
3.653e-09
-6.00028e-09
-3.05877e-07
-2.81369e-08
-3.35559e-08
-8.2366e-08
3.9203e-07
-1.45346e-07
5.46143e-07
-1.58908e-08
7.71093e-08
-5.28859e-10
-1.26673e-08
-2.20675e-10
-4.03801e-09
4.13727e-10
-5.63042e-09
-1.52603e-08
1.82876e-09
-5.64829e-07
8.01827e-06
-1.25256e-06
8.97598e-07
-4.92072e-07
-4.49877e-06
2.02907e-06
-2.29718e-05
1.02463e-06
-4.01228e-06
2.60029e-06
2.30198e-06
1.85424e-06
9.17584e-06
1.9185e-07
3.2324e-07
-3.25199e-07
1.3331e-06
-2.0067e-06
1.45286e-06
-4.3083e-06
-7.62714e-06
-3.56926e-06
-7.97036e-06
-2.89764e-06
-6.03178e-06
-3.94727e-07
-1.57188e-05
2.02182e-06
-2.23275e-05
2.31574e-06
-8.95689e-06
-1.15843e-07
4.00333e-06
-9.28802e-08
6.10192e-07
-2.99009e-07
-1.32306e-09
-5.98031e-07
3.2475e-08
-3.04092e-07
-1.68437e-06
2.29488e-07
-3.74038e-06
9.72342e-08
-1.6044e-07
7.72104e-08
4.14186e-07
8.26571e-08
3.58906e-07
5.52487e-08
1.00565e-11
8.33116e-08
-2.42808e-08
5.79665e-08
-1.30556e-07
1.54527e-07
-5.58968e-07
1.22435e-08
2.36455e-07
-3.14299e-09
3.67285e-07
-2.06514e-09
9.76833e-09
4.44182e-09
-4.54989e-08
1.63606e-08
-4.76569e-08
-3.55246e-09
2.24765e-08
-4.31104e-09
1.372e-09
-3.63137e-09
3.76083e-09
-6.87938e-09
3.86987e-07
-4.93665e-08
1.10626e-07
-1.02622e-07
-3.82519e-08
-9.63949e-08
-7.5064e-08
-7.7912e-08
-1.54752e-07
-7.57664e-08
4.67179e-08
-3.57806e-08
6.74265e-08
-1.58264e-08
-1.89096e-08
-1.66291e-08
-3.33813e-08
-5.30766e-08
-1.94654e-08
-3.46969e-08
3.92695e-08
-6.79468e-08
2.30592e-08
-1.36437e-07
2.15088e-07
-1.50005e-07
1.80502e-07
-5.78726e-08
-3.71669e-09
-6.80553e-08
1.20653e-08
-1.35126e-07
6.50464e-09
-2.68183e-08
-1.29247e-07
-2.89194e-08
-4.00344e-08
-6.75084e-08
-1.51888e-07
-5.80212e-08
-8.46749e-09
-1.50888e-08
5.45116e-10
-1.21803e-09
8.77091e-10
-5.86622e-10
-4.72308e-10
-3.06455e-10
-1.57419e-09
-2.72588e-10
-2.26907e-09
-2.93216e-08
-3.28614e-09
-1.61765e-08
4.94714e-08
-2.78269e-08
2.8375e-08
-2.82435e-08
3.42363e-09
-2.70128e-09
-1.9881e-08
-2.90923e-09
-5.11936e-09
-3.04177e-08
-8.72034e-09
-5.09127e-08
2.86745e-08
-5.28623e-08
3.68583e-08
-1.46091e-08
-7.98706e-09
-7.57785e-09
-1.50785e-08
1.27729e-09
-2.82897e-08
1.25008e-08
-5.86704e-08
3.05782e-09
-6.11177e-08
1.52439e-10
-3.3755e-09
2.19626e-10
1.13532e-13
2.59111e-10
-3.01692e-11
3.02523e-10
-6.36661e-10
4.75558e-10
-7.84153e-10
5.27588e-10
-9.10206e-10
7.80044e-10
-1.14811e-09
1.28724e-09
-1.33849e-09
8.41548e-08
-1.02627e-08
1.24674e-07
1.76829e-07
3.50985e-08
1.65905e-07
2.29369e-08
4.82513e-08
3.9643e-08
-2.59804e-09
3.51694e-08
1.37331e-07
6.59749e-09
7.38018e-08
2.48433e-11
4.83779e-08
-1.36756e-08
3.25765e-08
-7.0347e-08
6.32539e-10
-8.78537e-10
-3.16713e-07
-1.19847e-08
-2.03712e-08
-8.46449e-08
2.26048e-07
-6.74801e-08
5.28978e-07
-3.47485e-09
1.42533e-08
-5.62745e-10
-3.11373e-09
-1.53792e-10
-4.44872e-09
2.9396e-10
-1.01439e-08
-6.75406e-08
1.18338e-08
-3.03157e-07
8.29275e-06
-3.03034e-07
1.63613e-07
1.07579e-08
-1.01611e-06
2.60846e-06
-2.55885e-05
1.27942e-06
-1.01192e-05
1.74745e-06
5.62022e-07
1.48356e-06
3.39235e-06
1.01235e-07
5.66551e-07
-2.49929e-07
1.68427e-06
-4.56463e-06
4.71655e-06
-4.22995e-06
-8.18207e-06
-3.51455e-06
-8.99152e-06
-2.44101e-06
-7.33969e-06
-1.91174e-07
-1.82853e-05
2.26993e-06
-2.49496e-05
2.69633e-06
-9.48258e-06
-6.49943e-08
8.65596e-06
-1.56949e-07
9.84945e-07
-4.91009e-07
-3.59209e-07
-5.58909e-07
1.76879e-07
-9.6746e-08
-2.14195e-06
8.30004e-08
-4.03544e-07
1.36413e-07
-7.64703e-10
6.74188e-08
3.12728e-08
1.20809e-07
3.47489e-07
4.8866e-08
1.83931e-09
4.14648e-08
-1.39394e-09
2.26499e-08
-3.82791e-08
1.59383e-07
-2.70429e-07
2.65437e-08
3.6733e-07
-2.65793e-09
1.0755e-06
-6.86529e-10
1.06186e-08
2.39681e-09
-4.4534e-08
6.42583e-09
-1.63422e-08
-6.07562e-09
2.13425e-08
-7.32552e-09
1.75409e-09
-1.52928e-08
8.69697e-10
-2.38485e-08
4.53224e-07
-1.65092e-08
9.09079e-08
-1.45222e-08
-1.12137e-08
-3.55691e-08
-4.00953e-08
-5.22723e-08
-5.85191e-08
-4.25533e-08
1.83548e-08
-2.26715e-08
1.15146e-08
-1.71489e-08
8.1041e-10
-1.29847e-08
-3.1694e-08
-2.2166e-08
-4.40964e-09
-2.11084e-08
3.90322e-08
-8.90153e-08
2.10645e-08
-1.2596e-07
2.50604e-07
-1.50419e-07
2.0639e-07
-1.11434e-07
-3.61311e-08
-6.5849e-08
3.5667e-08
-5.56383e-08
9.49686e-08
-2.09368e-09
-4.61992e-08
-3.69099e-09
-1.00556e-08
-1.02321e-07
-8.12593e-08
-4.50181e-08
4.9955e-08
-6.50577e-09
1.76163e-08
-1.1845e-08
3.02529e-09
-8.70742e-09
-1.43372e-09
-4.38008e-10
-1.50216e-08
-2.75243e-10
-2.43184e-09
-1.49407e-08
-2.9824e-10
-3.24373e-08
3.00297e-08
-5.04954e-08
5.86499e-08
-1.34167e-08
2.64266e-09
-3.56864e-09
-7.26318e-09
-5.73971e-09
-2.94249e-09
-3.68672e-08
-1.49996e-08
-4.47086e-08
3.65159e-08
-2.31563e-09
1.96879e-08
-2.55955e-09
-7.74386e-09
-1.1299e-09
-1.6319e-08
2.66551e-10
-1.31469e-08
8.15043e-09
-4.20064e-08
1.49889e-08
-4.3436e-08
1.30499e-10
-4.72172e-09
1.84247e-10
7.89034e-11
2.45203e-10
-6.37822e-11
3.20883e-10
-5.78474e-10
4.23823e-10
-9.02221e-10
5.29921e-10
-9.77157e-10
6.6153e-10
-1.29306e-09
8.14615e-10
-1.31608e-09
4.05254e-08
-2.91112e-09
1.23875e-07
1.21141e-07
8.64504e-08
2.30681e-07
3.26266e-08
1.31257e-08
2.89105e-08
-2.63948e-09
6.91779e-08
1.45298e-07
1.15434e-08
1.59962e-07
2.54472e-10
5.96943e-08
-1.26769e-08
4.56069e-08
-2.61061e-08
1.27512e-08
-2.79188e-09
-9.62472e-08
-4.74347e-09
-2.08046e-08
-7.92595e-08
3.24725e-08
-2.7255e-08
3.1271e-07
-7.9646e-10
4.25067e-10
-5.46995e-10
-3.36495e-09
-1.80347e-10
-4.81361e-09
5.53439e-09
-6.67989e-08
-1.25472e-07
2.80842e-08
9.73556e-08
4.35958e-06
-5.11075e-08
4.16599e-07
-1.09975e-09
-1.08689e-06
2.82468e-06
-1.8602e-05
2.73394e-06
-1.61703e-05
3.98706e-07
4.58386e-07
2.52787e-07
-8.54904e-10
4.32319e-08
7.76106e-07
-2.31808e-07
1.95931e-06
-4.32385e-06
7.83808e-06
-3.9904e-06
-8.82137e-06
-3.13499e-06
-1.00808e-05
-2.16934e-06
-8.62204e-06
-1.43926e-07
-2.04424e-05
2.33319e-06
-2.79057e-05
2.95672e-06
-1.01125e-05
-5.40687e-08
3.44017e-05
-5.15134e-07
1.16321e-06
-5.13758e-07
-1.61841e-06
-4.22985e-07
1.62231e-07
-1.9329e-09
-4.15262e-07
1.03992e-08
-2.28119e-07
1.6917e-07
-2.99882e-07
5.4863e-08
3.71742e-08
7.3349e-08
8.30287e-08
1.59407e-08
9.02475e-10
9.06085e-09
5.73633e-09
9.93415e-09
-3.54142e-08
5.97966e-08
-7.93642e-08
8.78312e-08
7.47478e-07
-1.76274e-09
1.68527e-06
-6.79802e-10
1.35838e-08
2.46784e-09
-5.17299e-08
1.86213e-09
-7.89402e-09
-2.34304e-09
1.8886e-08
-3.06615e-09
2.56148e-09
-1.08027e-08
4.59861e-10
-2.32336e-08
1.67719e-07
-9.30355e-09
4.67595e-08
-9.72703e-09
-1.62232e-08
-1.07078e-08
-4.48673e-08
-2.08534e-08
3.50077e-09
-1.10906e-08
1.187e-08
-2.24918e-08
3.03638e-08
-1.75354e-08
-5.92775e-09
-1.33141e-08
-3.48974e-08
-8.20364e-09
-3.61815e-09
-9.10051e-09
1.59625e-08
-4.69664e-08
3.3362e-08
-1.23538e-07
1.0334e-07
-1.01715e-07
1.83137e-07
-1.30364e-07
-4.58957e-08
-8.30771e-08
6.29403e-08
-3.46753e-08
1.10873e-07
-1.82687e-09
-3.2296e-08
-9.84584e-10
-4.94808e-09
-8.50217e-08
-1.34173e-08
-5.2147e-08
6.12029e-09
-9.54725e-09
3.35692e-08
-2.45857e-08
1.64671e-08
-2.46804e-08
-5.28311e-10
-2.26176e-09
-4.01361e-08
-1.01133e-10
-1.98751e-08
5.11251e-11
-2.7012e-10
-9.72361e-09
1.26841e-11
-1.61711e-08
1.18078e-07
-4.5594e-09
6.0919e-09
-3.4774e-09
-8.33937e-09
-3.73852e-09
-2.68717e-09
-2.20044e-08
-8.25451e-09
-1.91598e-08
1.86997e-08
-2.79383e-09
8.45495e-09
-2.83705e-09
-7.51191e-09
-1.13712e-09
-1.80191e-08
4.97517e-11
-1.4145e-08
2.32628e-09
-2.65515e-08
7.62616e-09
-2.5697e-08
2.98584e-09
2.01769e-10
1.64278e-10
8.11499e-11
2.40446e-10
-5.84077e-12
3.24815e-10
-6.36779e-10
4.25049e-10
-8.68032e-10
5.26521e-10
-1.05352e-09
7.06986e-10
-1.30095e-09
7.86512e-10
-1.41684e-09
7.11063e-09
-5.81643e-10
8.0784e-08
3.24617e-08
7.80818e-08
9.44001e-08
1.99355e-08
7.4288e-09
1.42784e-08
-1.47857e-09
7.22886e-08
1.35425e-07
4.30557e-08
2.84376e-07
7.4543e-10
1.02104e-07
-1.23914e-08
5.87706e-08
-1.11098e-08
1.30382e-08
-1.82762e-09
-9.06831e-08
-3.33538e-10
-5.07573e-09
-3.28078e-08
6.56866e-11
-1.98952e-08
7.75267e-08
-6.13513e-10
1.16562e-08
-1.14001e-09
-2.8367e-09
-1.37374e-10
-3.98998e-08
1.18737e-08
-2.25511e-07
-1.14492e-07
3.58967e-08
-3.15881e-08
1.67148e-06
-3.26007e-07
7.20455e-07
-9.27367e-08
-1.69478e-06
7.90707e-07
-4.999e-06
2.53053e-06
-1.79229e-05
6.97527e-08
1.19415e-06
4.32753e-09
3.44126e-07
-2.74891e-08
1.39282e-06
-4.11704e-07
1.92404e-06
-3.54084e-06
5.56811e-06
-3.42552e-06
-5.53145e-06
-3.14253e-06
-6.73478e-06
-1.54593e-06
-1.04697e-05
-3.5621e-08
-7.34442e-06
2.00095e-06
-1.1939e-05
2.55347e-06
-1.07537e-05
-4.55018e-08
3.69429e-05
-1.31142e-06
2.87035e-06
-5.00581e-07
-2.12825e-06
-7.00881e-08
3.68847e-08
-1.23016e-08
-1.63144e-07
2.97192e-09
-2.17719e-07
2.14058e-07
-2.03962e-06
2.0855e-08
1.51303e-07
1.89854e-08
1.38572e-08
2.60269e-08
1.97338e-09
6.19272e-09
2.7967e-08
4.56285e-09
-3.02208e-08
1.36537e-08
-8.8455e-08
9.75101e-08
6.50482e-07
-9.01594e-10
1.79665e-06
1.73323e-10
2.17739e-08
4.01696e-09
-4.8835e-08
1.11074e-09
-4.89674e-09
-2.15655e-09
2.20671e-08
-2.72396e-09
3.21966e-09
-1.78839e-09
-1.70854e-10
-6.54595e-09
4.81245e-08
-1.58586e-08
1.19794e-08
-7.39765e-08
-2.51551e-08
-1.90158e-08
-2.56407e-07
-1.41868e-08
-3.05972e-08
-1.25347e-08
2.37157e-08
-6.29438e-08
6.7275e-08
-5.74485e-08
-3.96772e-08
-3.24339e-08
-6.65194e-08
-1.60818e-08
-7.71151e-09
-8.67739e-09
4.84167e-08
-1.94259e-08
3.57433e-08
-4.45207e-08
4.29005e-08
-5.89496e-08
3.10338e-08
-1.06954e-07
-3.86151e-08
-1.67113e-07
9.06411e-08
-1.13075e-07
1.74028e-07
-1.36527e-09
-1.15904e-07
-2.12048e-09
-7.1656e-09
-1.53339e-08
-3.72908e-09
-2.91163e-08
-8.99824e-10
-1.12355e-08
1.8016e-08
-2.67716e-08
1.60193e-08
-2.64418e-08
-8.74673e-10
-9.12865e-09
-5.74327e-08
-8.37986e-11
-9.15691e-08
1.55881e-10
-5.09829e-10
7.2794e-11
3.62542e-10
-2.55346e-08
3.00106e-07
-5.38888e-09
9.22137e-09
-5.45082e-09
-8.28324e-09
-4.07313e-09
-5.42404e-09
-4.25007e-09
-7.8893e-09
-2.15282e-09
3.94548e-09
-3.2539e-09
7.09802e-09
-2.90957e-09
-8.25564e-09
-6.28505e-10
-2.00813e-08
9.99053e-10
-1.58032e-08
2.10266e-09
-4.14889e-08
2.56551e-09
-3.94466e-08
4.96143e-09
-7.58446e-11
1.85414e-10
-5.00667e-11
2.32e-10
-1.67081e-10
3.00631e-10
-5.20796e-10
3.78552e-10
-9.65998e-10
4.6536e-10
-9.5343e-10
5.8159e-10
-1.43886e-09
9.06789e-10
-1.54192e-09
9.17524e-10
-5.58803e-10
1.3675e-08
1.4655e-09
3.30723e-08
7.45994e-09
1.36269e-08
1.5717e-09
7.66104e-09
-7.91953e-10
5.23419e-08
4.10979e-08
5.23245e-08
2.73996e-07
6.56968e-09
8.32544e-07
-3.10268e-08
9.6464e-08
-9.90991e-09
4.93769e-08
-3.31804e-09
-7.98716e-08
-8.2384e-10
-6.27817e-10
-9.03223e-09
4.81193e-08
-4.32321e-09
1.32513e-11
-1.59372e-10
1.81896e-09
-2.52521e-09
-5.2841e-10
-7.80715e-11
-1.11471e-07
9.74968e-09
-1.07281e-07
-9.20994e-09
1.095e-08
-2.25995e-08
1.92422e-06
-1.41371e-06
2.11878e-06
-2.37365e-07
-7.10997e-06
3.93039e-07
-5.6294e-06
3.65713e-06
-2.1169e-05
2.28291e-07
3.27914e-06
2.03724e-09
8.6372e-07
-8.57475e-08
4.40461e-06
-4.78674e-07
1.88399e-06
-8.78588e-07
2.6112e-06
-7.86371e-07
-1.55552e-06
-1.78955e-06
-2.02058e-06
-9.17306e-08
-2.61061e-06
1.06038e-07
-1.4604e-06
5.06124e-07
-5.77324e-06
1.79817e-06
-7.49749e-06
-7.62631e-08
3.86796e-05
-3.13633e-07
1.16982e-05
-4.24998e-07
-3.44385e-07
-4.20797e-09
6.273e-08
-7.47614e-09
-1.35343e-07
4.98619e-09
-2.05106e-07
2.9836e-07
-2.22526e-06
1.96614e-08
3.00422e-07
1.02204e-08
3.8854e-08
4.39328e-08
-1.63331e-09
2.32237e-08
1.22814e-07
-3.38266e-09
-9.56859e-08
6.78362e-09
-9.86213e-08
1.0966e-07
5.60462e-07
-6.58145e-10
1.89396e-06
1.85721e-10
2.78633e-08
9.76094e-09
-3.56014e-08
7.89054e-10
-2.36013e-10
-3.12146e-09
2.60686e-08
-2.26214e-09
5.44733e-09
-6.81384e-10
-1.7171e-09
-3.35541e-09
5.0764e-08
-1.91727e-08
2.78311e-08
-1.67102e-07
-1.67861e-08
-1.07393e-07
-4.48695e-07
-1.34728e-08
-2.61775e-07
-1.62535e-08
4.00669e-08
-1.28338e-07
1.94376e-07
-1.12645e-07
-1.21351e-07
-4.00811e-08
-1.35354e-07
-3.79659e-08
-2.057e-08
-2.89403e-08
2.8684e-08
-1.32975e-08
8.80932e-08
-1.62191e-08
4.58996e-08
-1.9463e-08
2.41786e-08
-1.17375e-07
-3.17593e-08
-1.29906e-07
8.20636e-09
-1.68569e-07
2.12691e-07
-3.03451e-09
-2.59081e-07
-1.18464e-09
-2.8994e-08
-3.96197e-09
-5.87345e-09
-1.15375e-08
-7.39743e-10
-1.8219e-08
6.16393e-09
-2.08845e-08
2.14115e-08
-1.84958e-08
-5.83703e-10
-1.43237e-08
-3.24007e-08
-8.14007e-11
-7.67082e-08
3.97697e-10
-9.89487e-10
5.13521e-10
2.471e-09
-5.27324e-08
3.46149e-07
-7.50228e-09
2.20295e-08
-1.3585e-08
-1.31128e-08
-3.66779e-09
-7.63378e-09
-2.09799e-09
-9.45914e-09
-1.98045e-09
4.03904e-09
-3.22235e-09
8.24276e-09
-2.37987e-09
-8.8134e-09
3.10132e-10
-2.28407e-08
2.95047e-09
-5.15629e-08
1.41471e-08
-9.79793e-08
8.50589e-09
-1.2385e-07
2.33233e-09
-4.8434e-09
1.41178e-09
-2.65338e-10
1.15344e-09
-5.76496e-10
1.42499e-09
-3.20909e-09
2.93435e-09
-1.09336e-08
3.96879e-09
-1.12093e-08
4.38603e-09
-1.34887e-08
1.24362e-09
-4.44442e-09
8.93968e-10
-1.65664e-10
7.68227e-10
1.62972e-09
1.46547e-08
8.5952e-09
9.5168e-09
1.10708e-09
4.24488e-09
-4.67543e-10
2.51856e-08
5.74158e-09
5.65476e-08
2.53031e-07
9.48037e-09
2.69015e-07
-6.28816e-08
2.96469e-07
-8.62166e-09
4.07884e-08
1.62174e-13
-7.37802e-08
-6.27823e-10
-3.86363e-12
-1.11915e-08
5.43115e-08
-4.79233e-10
5.26051e-10
-1.09893e-10
9.85918e-10
-2.19576e-09
-8.1253e-09
-6.12053e-12
-4.1951e-08
2.0575e-09
-5.75903e-09
-1.02373e-09
5.50996e-10
-9.10754e-08
1.79503e-06
-1.12305e-06
3.57994e-06
-2.27433e-07
-7.95326e-06
3.76029e-07
-6.23287e-06
3.61603e-06
-2.44211e-05
3.19613e-07
5.01882e-06
1.50999e-08
1.44842e-06
-1.79018e-08
4.9648e-06
-9.34394e-08
1.96211e-06
-2.51708e-07
1.69434e-06
-1.83135e-07
5.53089e-08
-1.69727e-07
-1.40104e-06
-3.26246e-08
-7.51715e-07
5.54591e-08
-1.54542e-06
2.86632e-07
-5.26389e-06
1.09131e-06
-5.18629e-06
-6.66294e-07
2.88705e-05
-5.9907e-08
9.38331e-06
-1.50882e-07
-1.48072e-07
-4.82587e-09
6.36995e-09
-5.65065e-09
-1.1053e-07
6.47453e-09
-1.92514e-07
3.13471e-07
-2.63999e-06
6.04542e-08