/*--------------------------------*- C++ -*----------------------------------*\
| =========                 |                                                 |
| \\      /  F ield         | OpenFOAM: The Open Source CFD Toolbox           |
|  \\    /   O peration     | Version:  v1912                                 |
|   \\  /    A nd           | Website:  www.openfoam.com                      |
|    \\/     M anipulation  |                                                 |
\*---------------------------------------------------------------------------*/
FoamFile
{
    version     2.0;
    format      ascii;
    class       volScalarField;
    location    "60";
    object      omega;
}
// * * * * * * * * * * * * * * * * * * * * * * * * * * * * * * * * * * * * * //

dimensions      [0 0 -1 0 0 0 0];


internalField   nonuniform List<scalar> 
14268
(
205.735
151.569
165.814
264.394
218.499
136.476
110.397
94.2081
69.3637
172.33
266.964
253.39
223.114
221.366
269.338
255.117
160.685
91.1655
167.537
195.086
213.908
243.309
198.648
128.232
124.519
163.847
184.679
193.795
187.966
134.618
72.3924
69.9725
139.288
96.8218
73.2484
87.6087
103.935
90.1854
112.474
157.934
175.634
144.082
124.634
112.441
117.514
121.407
105.062
88.2483
74.5039
71.0394
79.401
92.4786
98.7942
106.806
118.979
130.02
127.9
112.626
108.268
112.369
110.298
111.629
120.509
123.995
121.715
116.587
103.647
95.176
95.1196
87.1183
85.4936
63.8007
67.1225
71.3354
78.0352
78.3468
79.7603
78.056
78.1846
98.12
131.66
152.735
165.087
163.002
138.004
77.2869
47.1637
46.74
56.9869
63.6098
63.0531
49.7915
43.4115
69.6501
98.1485
106.138
89.6916
68.704
52.6884
58.0013
51.2188
47.0001
52.3419
58.4572
81.7403
66.4213
72.0869
100.541
89.5083
68.1427
53.6421
53.7293
50.3397
77.304
87.2068
84.135
77.7046
76.0012
89.4311
84.2632
77.1997
51.5959
59.3047
77.7459
82.1599
88.904
75.4166
53.6624
49.2692
60.8019
65.5504
67.7081
64.5224
51.9896
40.1452
29.8142
46.5974
33.1865
29.3541
32.9733
38.905
39.9082
46.2791
57.4695
63.2277
49.9878
45.1687
43.9487
41.503
41.5586
36.7661
33.3929
29.2654
28.9433
31.2891
32.8742
36.2391
40.7781
42.225
43.8532
43.7759
42.1993
42.9314
40.5007
39.3636
39.1291
41.3995
45.2547
45.6649
42.7798
37.7393
34.1803
34.0374
31.2306
29.8603
22.534
22.991
24.488
26.5119
25.9937
27.2861
28.3696
30.5902
35.4602
46.506
55.2344
60.0931
58.5174
47.9789
29.5312
28.398
26.9872
22.5837
22.4505
23.3181
24.7237
28.1706
29.9984
35.9065
36.4479
30.6661
27.5108
23.8863
23.3271
18.9442
17.6462
19.9939
22.2389
53.9631
45.7246
53.1778
62.9011
60.1677
48.7427
41.5208
41.2731
41.9075
53.992
57.8195
54.718
50.1815
48.591
55.5784
53.7538
56.1546
36.5241
39.3291
51.7493
53.985
56.0058
49.8754
37.1368
33.7891
39.9534
42.8732
44.9369
42.6911
35.6843
27.8268
21.2822
29.4389
22.2664
19.5851
20.8853
25.2935
27.3487
31.171
37.3169
40.6812
31.7361
29.371
29.1348
26.3531
26.1599
23.6336
22.531
19.4788
18.4397
19.6883
20.7573
24.1872
27.5008
27.3965
27.7338
27.6143
28.1071
29.3967
25.9094
24.5721
24.474
26.0245
30.2528
30.4496
28.2291
24.4184
22.5803
22.3361
20.7836
19.7677
14.7906
14.7241
15.8277
16.7999
15.9451
16.9919
18.499
20.0612
22.6919
29.9633
35.8519
38.9158
37.6279
30.2051
18.9197
18.9242
17.4359
14.4015
14.2469
14.8445
15.4871
21.7332
20.9186
23.4047
23.1108
19.3691
18.3836
17.2702
16.7327
14.0179
12.5103
12.3475
12.3476
42.1917
37.4309
43.9808
45.3874
47.0175
39.1159
35.2411
33.8809
37.0513
45.0827
47.44
43.9024
38.6467
36.1943
41.1107
41.7166
48.9531
30.5831
31.6886
40.3944
41.5323
41.292
38.4415
30.0539
27.6778
31.8193
34.218
35.8405
33.4847
28.7441
23.0487
16.5218
22.2659
18.1762
15.5795
15.5152
19.6504
22.4114
24.6834
28.5577
30.7912
24.3009
23.0681
23.2141
20.0677
19.5213
18.0507
18.3713
15.7979
14.2217
14.9829
15.701
19.2212
22.2542
20.9128
20.3173
20.2549
22.5323
24.3107
19.2614
17.2962
17.2052
18.8641
24.2258
24.4647
22.4843
19.1467
17.8281
17.2689
16.3146
15.9954
11.9257
11.7498
12.5508
13.1929
12.3245
12.8469
14.0393
15.6137
17.684
23.1466
27.6484
29.8328
28.5598
22.695
14.5733
14.2215
13.1337
11.4159
11.237
11.8251
12.3258
17.1964
16.6546
18.4042
17.6129
14.4575
14.9696
15.3922
14.7673
12.5553
10.4216
9.37437
8.86221
36.634
33.3463
38.4012
39.0653
40.8929
35.0595
31.4087
38.6996
33.2251
39.8615
39.7344
36.8902
31.9115
29.4223
33.7524
34.5134
44.5785
26.9438
27.504
33.8753
35.5978
34.9308
32.4505
25.8331
24.1885
26.9446
28.8081
30.0643
27.4926
24.3495
19.8778
13.7315
18.5881
16.1865
13.8423
12.5072
15.8807
19.442
21.1333
23.7191
25.3727
20.4506
19.6012
19.6253
16.3744
15.6574
14.5905
15.5308
13.3599
12.339
12.7309
13.1265
15.7517
18.3463
17.2791
15.9541
15.6959
18.3145
20.4961
15.2017
12.8554
12.6431
14.2472
20.2367
21.3493
19.4492
16.2658
14.8778
13.7504
13.053
14.0407
10.5354
10.3474
10.8896
11.4484
10.6452
10.6944
11.1795
12.534
14.8176
19.3993
23.0488
24.6961
23.4486
18.5659
12.2791
12.5105
11.5357
9.89975
9.63171
10.2998
10.9389
13.6214
14.8219
15.7352
14.8546
11.7183
12.4396
13.8821
13.4211
11.8958
8.9809
7.55291
7.27552
33.8053
31.391
34.9297
35.8009
36.465
31.9135
28.7933
34.7593
29.1935
35.9797
32.5723
31.4568
27.1821
24.7282
28.8153
29.9197
39.3674
24.0208
24.6653
29.5203
32.0433
31.1937
28.3065
22.9635
21.992
23.4156
24.7856
25.6555
22.9171
21.3231
18.4231
12.2081
16.2349
14.9581
12.8012
10.6467
13.0727
17.7023
18.8006
20.5682
21.8866
18.0134
17.333
17.1679
13.8102
13.067
12.2982
13.2614
11.7543
11.4339
11.5732
11.6882
13.3405
14.9463
14.6365
13.4801
12.9028
14.7171
17.4104
12.2244
10.6992
10.5973
11.7248
16.633
19.4688
17.6311
14.4001
12.6246
11.5334
10.7136
12.8683
9.74805
9.45307
9.70529
10.2669
9.63992
9.52997
9.6415
10.56
12.92
16.9097
19.9423
21.1952
19.9674
15.7762
10.7466
11.4375
10.6148
8.921
8.5562
9.35763
10.151
12.3192
13.8473
14.0296
13.0422
10.3343
10.7019
12.7258
12.3692
9.96382
7.3356
6.40702
6.3066
31.2853
29.5994
33.5021
33.5062
31.9157
29.1975
25.8295
28.9811
26.3588
32.862
29.3686
28.9688
24.6558
21.9472
25.2045
27.4176
35.6408
22.6645
22.9078
26.837
29.1082
28.1341
25.287
21.1551
20.4329
20.9568
22.2947
23.3342
20.4558
19.372
17.2817
11.2972
14.558
14.0688
11.95
9.40863
10.9374
15.9195
17.3056
18.3989
19.4402
16.2902
15.6502
15.1402
12.2103
11.5627
10.9524
11.2693
10.6772
10.7616
10.7047
10.7324
12.0163
13.133
12.7816
11.6897
11.1257
12.61
14.9715
10.3982
9.57333
9.48856
10.2691
13.2545
17.8203
16.4371
13.081
11.1419
10.4061
9.52966
11.8765
9.17707
8.53737
8.55086
9.18381
8.8991
8.81342
8.76906
9.44228
11.6499
15.1505
17.7287
18.6807
17.4909
13.8518
9.58046
10.4129
9.93322
8.18464
7.69057
8.69136
9.5681
11.5401
13.1229
12.7435
11.6428
9.59767
9.62448
11.4393
11.5407
7.87387
6.18492
5.70999
5.55468
29.1749
27.3409
31.8849
30.9667
29.1319
26.7626
24.2469
27.9509
25.078
31.0037
27.7851
26.8694
22.7915
20.1596
22.4641
25.6458
34.2684
22.3962
21.6762
25.1274
26.1468
24.9225
23.1562
19.7786
19.366
19.2875
20.6584
21.5643
18.9249
17.9404
16.7188
10.7206
13.2531
13.398
11.2583
8.64891
9.55535
14.3935
16.1865
16.7729
17.5059
14.9284
14.442
13.6482
11.2041
10.6179
10.1258
10.0332
9.98224
10.2143
10.0486
9.94597
11.1488
12.1655
11.8584
10.5731
10.0302
11.2104
12.0828
9.38797
8.83019
8.69522
9.25485
10.9711
16.3044
15.6285
12.1027
10.1397
9.70544
8.77727
10.926
8.55804
7.48679
7.51143
8.18429
8.26476
8.27241
8.18391
8.7432
10.7362
13.7969
16.0116
16.7243
15.5766
12.3889
8.66234
9.35777
9.28171
7.59132
6.97168
8.1708
9.15872
11.1122
12.7218
11.7743
10.4418
9.10556
8.99955
10.1309
10.076
6.44061
5.42377
5.1676
4.8866
26.7003
25.1567
30.2127
29.1
27.8634
25.0259
24.594
28.5319
24.2924
29.9574
26.3832
24.7061
21.1451
18.7347
20.4136
24.2782
34.2163
21.9732
20.968
23.6131
23.1725
21.6035
21.3656
18.6126
18.3701
17.993
19.3085
20.1825
17.5631
16.8418
16.2558
10.366
12.3342
12.8941
10.687
8.11725
8.67933
12.9995
15.1193
15.4853
15.9554
13.9105
13.5362
12.5862
10.5092
9.96069
9.57164
9.36876
9.55012
9.64593
9.28385
9.23725
10.5376
11.5554
11.1346
9.86364
9.27945
9.81049
10.1248
8.70561
8.25578
8.10061
8.54022
9.70712
14.3798
14.9969
11.3659
9.57999
9.2083
8.1953
9.54268
7.69581
6.67363
6.82058
7.4876
7.72923
7.81044
7.75339
8.24667
10.0509
12.7473
14.6736
15.1988
14.0968
11.2781
7.99193
8.26562
8.46925
7.04449
6.40507
7.61545
8.85014
10.9855
12.37
11.0415
9.51503
8.76359
8.73341
9.0807
8.66542
5.46419
4.86798
4.68599
4.26283
24.4898
23.6549
27.7521
27.8509
26.7281
23.8022
24.8366
28.0208
24.114
29.9379
25.1543
22.7489
19.7516
17.5933
18.7608
22.9732
33.5696
21.8513
20.4842
22.1098
20.1954
18.9201
19.7473
17.5984
17.4378
16.9731
18.2411
19.1201
16.2281
16.0217
15.4874
10.0738
11.6464
12.5109
10.2728
7.74819
8.10053
11.7831
14.3022
14.4777
14.8189
13.1699
12.8916
11.8894
9.98736
9.44526
9.16208
8.96296
9.35349
9.15403
8.3455
8.3317
10.0451
11.087
10.4665
9.32458
8.73266
8.76386
8.91403
8.21028
7.78186
7.58916
7.9501
8.8596
11.8246
14.5533
10.8081
9.2059
8.82818
7.73347
7.82217
6.66113
6.14339
6.33483
6.99792
7.27233
7.39616
7.40355
7.86028
9.49526
11.8851
13.5755
13.9543
12.8928
10.3771
7.487
7.46202
7.58745
6.53475
5.98048
7.0279
8.52075
10.9656
12.1123
10.4882
8.82253
8.49132
8.59194
8.63879
7.52628
4.75833
4.41139
4.17337
3.70594
22.8243
22.7784
26.645
26.3349
25.9956
23.1035
25.3014
27.1173
23.6956
28.6794
23.8195
20.8577
18.4795
16.2389
17.1203
21.7288
31.5384
21.6953
19.7597
20.5228
17.6944
17.0797
18.5268
16.7983
16.7372
16.2406
17.4376
18.365
15.1912
15.1773
14.785
9.88458
11.1354
12.2007
9.92658
7.46121
7.69227
10.9663
13.6753
13.7158
14.0499
12.7037
12.3943
11.3589
9.60627
9.05802
8.85496
8.67104
9.21277
8.85448
7.60824
7.4258
9.54715
10.651
9.98419
8.93439
8.3306
8.17785
8.11292
7.79042
7.36481
7.14971
7.49198
8.24428
10.3067
13.9842
10.4324
8.93751
8.54243
7.37726
6.82894
6.01208
5.7522
5.96338
6.6241
6.93843
7.08129
7.12271
7.55818
9.04798
11.1851
12.6851
12.9501
11.9261
9.65732
7.09062
6.95897
6.91404
6.11982
5.6546
6.45328
8.14157
10.6439
11.9318
10.0652
8.31848
8.2784
8.4932
8.57833
6.35196
4.24953
3.95453
3.60349
3.27652
21.6835
21.9106
26.2552
24.8676
25.1684
22.5012
26.1254
26.0727
23.6385
27.7986
21.484
18.5289
16.8167
14.104
15.6116
20.5299
29.817
21.7756
18.643
18.8807
16.049
15.7287
17.4827
16.1502
16.2844
15.68
16.9007
17.8219
14.226
14.2973
14.2696
9.70686
10.7462
11.9746
9.67186
7.22618
7.35431
10.4086
13.202
13.1266
13.4408
12.3746
12.0225
10.9933
9.29264
8.71991
8.59875
8.48173
9.14275
8.7028
7.19592
6.73955
8.99245
10.2302
9.61409
8.58968
8.01872
7.79901
7.61549
7.44903
7.00121
6.75244
7.09028
7.71532
9.32524
13.6006
10.1545
8.69524
8.31839
7.09333
6.31138
5.61535
5.43873
5.6483
6.30955
6.66794
6.83049
6.88174
7.29964
8.66242
10.5922
11.9427
12.124
11.1252
9.05323
6.76314
6.59263
6.46477
5.79617
5.40139
6.00042
7.72061
10.3541
11.8535
9.72182
7.89833
8.10891
8.44326
8.55705
5.50155
3.85919
3.48147
3.12096
2.96499
20.7537
21.3687
25.6441
23.6925
24.1184
22.0025
26.2683
25.1762
23.767
26.9134
19.8342
17.1414
14.5341
12.6828
15.0134
19.9679
28.3343
20.5145
17.618
17.2812
14.8448
14.7139
16.5574
15.6201
15.9207
15.1565
16.5316
17.314
13.4676
13.4585
13.7736
9.57751
10.4438
11.7791
9.46197
7.03324
7.08056
10.0058
12.8362
12.6107
12.8975
12.072
11.766
10.7601
8.93799
8.33658
8.37265
8.36483
9.08491
8.56905
6.94623
6.27412
8.37519
9.78386
9.096
8.32518
7.77743
7.52716
7.25865
7.14421
6.68875
6.42499
6.74828
7.29952
8.58087
12.9692
9.86859
8.51051
8.11806
6.88431
5.96008
5.32731
5.18903
5.38427
6.01591
6.39921
6.59313
6.68523
7.08722
8.34116
10.1023
11.3504
11.4808
10.4755
8.55569
6.4917
6.31339
6.14913
5.54223
5.19668
5.66252
7.33845
10.1474
11.6426
9.3689
7.55413
7.9693
8.39158
8.73744
4.9175
3.5313
3.0705
2.77562
2.73176
19.9354
21.0303
24.9964
22.7792
22.9057
21.4137
26.5456
24.8869
23.8513
26.4519
18.862
16.3129
13.0293
11.9194
14.95
20.0489
26.7453
19.2573
16.8369
15.9698
13.8907
13.9231
15.6321
15.1557
15.6644
14.7087
16.2988
16.9723
12.8324
12.4917
12.9813
9.4487
10.196
11.6413
9.29758
6.86816
6.82264
9.7033
12.5479
12.1569
12.3564
11.7466
11.5219
10.5727
8.35978
7.83468
8.16018
8.26997
9.08317
8.52063
6.81516
5.89886
7.74621
9.36764
8.52913
8.09707
7.58244
7.32168
6.9975
6.89197
6.42522
6.14719
6.44471
6.91977
7.9816
12.3927
9.51395
8.3669
7.93617
6.69194
5.6992
5.10301
4.97019
5.13257
5.69826
6.07735
6.33188
6.50217
6.88904
8.05121
9.67971
10.8554
10.9543
9.92977
8.12718
6.25767
6.07952
5.90623
5.3355
5.02631
5.40999
7.00931
10.042
11.4162
8.97567
7.26057
7.85951
8.38107
8.69047
4.49069
3.24596
2.75913
2.52753
2.54977
18.8523
20.0933
23.7904
21.3513
19.9894
20.561
27.0523
23.4283
24.0076
25.412
17.9635
15.5436
11.4753
11.3277
15.0274
20.8129
24.2233
17.0767
15.9253
14.5341
12.7489
12.9233
14.1235
14.5052
15.3942
14.2008
15.7936
16.3771
12.0983
11.3503
11.4691
9.22034
9.84847
11.486
9.11855
6.62489
6.49449
9.25349
12.2567
11.5275
11.5365
11.2674
11.1355
10.1878
7.58951
7.21946
7.85024
8.21811
9.13947
8.46961
6.68873
5.47588
6.81521
8.51348
7.83031
7.7631
7.33811
7.08241
6.69232
6.55807
6.0897
5.80237
6.06647
6.44639
7.20884
11.3599
8.85362
8.16814
7.67531
6.45077
5.39129
4.81782
4.63954
4.73062
5.15937
5.47751
5.88993
6.20943
6.62142
7.6827
9.15207
10.1879
10.2334
9.23263
7.58213
5.95927
5.74426
5.58419
5.0786
4.81137
5.11261
6.66801
9.90467
10.9489
8.28414
6.88804
7.66665
8.36621
8.05936
3.99697
2.89276
2.41184
2.25386
2.33457
17.7607
19.0155
22.0551
20.248
17.4961
19.3158
24.6366
22.92
23.8185
23.493
16.8583
14.5178
10.4428
10.8893
13.8108
21.1307
21.9651
15.692
15.2149
13.3956
11.6306
11.8027
12.4018
13.8458
15.2248
13.7442
15.2692
15.9381
11.4645
10.2672
10.2616
8.87513
9.4768
11.1918
9.01146
6.28709
6.09482
8.56785
11.8413
10.9511
10.4594
10.779
10.7299
9.30155
6.73091
6.69522
7.35874
8.17884
9.09422
8.27832
6.39058
5.05016
5.93232
7.24167
7.11143
7.33769
7.08357
6.84657
6.44709
6.27012
5.76532
5.43461
5.67439
5.9285
6.5122
9.52577
8.17815
7.98534
7.42543
6.25592
5.12445
4.4845
4.22855
4.27103
4.53227
4.68127
5.19421
5.75521
6.25906
7.24845
8.61113
9.41067
9.36552
8.48991
7.01744
5.6551
5.37551
5.19592
4.81124
4.5884
4.83154
6.31695
9.73638
10.4646
7.53693
6.45657
7.401
8.32911
6.83061
3.59405
2.57232
2.11548
2.0285
2.14173
16.7463
18.1316
20.389
18.5441
15.7715
18.0929
21.7189
22.9713
23.6587
22.1866
15.8213
13.5756
9.6541
10.3125
12.1845
18.3799
20.4622
14.9848
14.5521
12.5699
10.8092
10.9312
11.4318
13.318
15.0885
13.3446
14.4061
15.1575
10.8018
9.38123
9.53531
8.51294
9.13842
10.8438
8.69485
5.95752
5.74957
7.63362
11.3873
10.4211
9.31066
9.17169
10.2444
8.09461
6.16235
6.27225
7.10362
8.39067
9.41823
8.35387
5.88125
4.76615
5.43979
6.47144
6.2545
6.81481
6.87615
6.70468
6.29031
6.01993
5.50589
5.15191
5.37325
5.57867
5.96398
8.04083
8.00823
7.43334
7.28243
6.17427
4.98754
4.18901
3.93473
3.98001
4.14196
4.21369
4.6095
5.21778
5.81344
6.87258
8.12658
8.73518
8.62767
7.86999
6.57752
5.41499
5.07295
4.88485
4.57497
4.38222
4.6007
5.98011
9.73161
9.91733
7.08095
6.13569
7.02355
8.47152
5.87744
3.30182
2.34248
1.91505
1.87825
2.00576
15.8114
16.1922
18.7878
17.0848
14.381
15.875
20.6764
23.047
22.6184
20.2872
14.0104
11.7951
8.82824
9.86538
11.2379
16.2456
19.2205
14.6405
13.9473
11.9692
10.1103
10.2317
10.7308
12.9812
14.7589
12.7939
13.4436
14.3041
10.1803
8.77317
9.01969
8.23747
8.83143
10.6743
8.4274
5.57352
5.41399
6.89134
10.7908
10.0244
8.24774
7.46797
8.76985
7.09381
5.73079
5.90884
7.06074
8.41768
9.83657
8.47805
5.44517
4.5406
5.06592
5.8906
5.44272
6.1311
6.69539
6.61999
6.18533
5.84667
5.27342
4.89699
5.1238
5.28554
5.53749
7.05769
7.3368
6.76656
6.79562
5.99465
4.92504
3.98115
3.74134
3.78788
3.89603
3.912
4.17733
4.67428
5.27559
6.48148
7.65331
8.09746
7.96017
7.32394
6.21004
5.21675
4.84588
4.66159
4.38257
4.18295
4.40714
5.59598
9.66871
9.61741
6.7211
5.88682
6.537
8.26807
5.23477
3.06955
2.16673
1.77381
1.7733
1.9073
14.7462
14.8727
17.5319
15.8409
13.5287
13.8577
18.2927
23.6125
22.1956
18.5432
12.7526
10.134
8.39424
9.56318
10.7097
14.9538
18.2109
14.272
13.4179
11.4946
9.55803
9.68874
10.092
12.5691
14.4333
12.1992
11.9709
13.251
9.07374
8.38969
8.60582
8.08664
8.3611
10.181
7.98738
5.26963
5.16297
6.35918
9.87926
9.59683
7.62507
6.25147
7.34797
6.41557
5.38525
5.54867
6.79507
7.73794
9.28282
8.45307
5.16017
4.33263
4.72531
5.33114
4.82959
5.52491
6.46187
6.59988
6.08631
5.64559
5.06
4.67704
4.91797
5.07627
5.20862
6.43567
6.31559
6.03012
6.15343
5.67909
4.86823
3.83003
3.6016
3.64484
3.72246
3.71193
3.87586
4.26291
4.82894
6.03921
7.14823
7.49199
7.36348
6.84299
5.89849
5.05726
4.68427
4.49051
4.23825
4.00844
4.2467
5.22174
9.41055
9.60069
6.47871
5.65928
6.13326
7.46824
4.77015
2.88044
2.02458
1.6716
1.69785
1.83478
13.0946
14.0543
16.9759
14.8189
12.8323
12.6512
16.4424
24.5827
21.3992
17.2892
12.1399
9.28314
8.1523
9.3915
10.3925
14.157
17.4586
14.0089
12.9504
11.0158
9.07958
9.25329
9.49756
11.7455
14.1419
11.45
10.3888
11.5897
8.26459
8.06175
8.16369
7.9111
7.82625
9.7019
7.33177
5.01155
4.96969
5.9866
9.08462
9.24537
7.22472
5.54086
6.3031
5.82968
5.10913
5.14992
5.96336
6.75814
8.15175
8.10034
4.94011
4.14382
4.41587
4.82261
4.37955
5.01153
6.13173
6.47176
6.00249
5.46419
4.80031
4.46656
4.73524
4.89394
4.93636
5.93643
5.49089
5.35968
5.56104
5.37978
4.83912
3.73406
3.48952
3.5364
3.59244
3.5638
3.65872
3.95333
4.44652
5.51896
6.56766
6.87297
6.79754
6.40863
5.62599
4.92178
4.56179
4.36109
4.12586
3.865
4.10688
4.97978
8.84882
9.5123
6.29349
5.45251
5.81426
6.5858
4.40707
2.72108
1.90655
1.59626
1.64253
1.78087
11.9763
13.534
16.3183
13.8619
12.2149
11.8655
15.2431
22.6572
20.5538
16.3651
11.3655
8.67705
8.07813
9.30108
10.1809
13.4323
16.607
13.5829
12.3082
10.5651
8.66878
8.89297
9.02104
10.7986
13.7475
10.5712
9.42823
10.4378
7.70699
7.7204
7.83189
7.76962
7.32775
8.97322
6.72875
4.77464
4.78529
5.70122
8.33249
8.68989
6.93453
5.11038
5.67059
5.38783
4.84073
4.72759
5.31721
6.02332
7.01788
7.49773
4.74187
3.96153
4.18547
4.48344
4.05529
4.61691
5.83832
6.36318
5.96433
5.31241
4.56889
4.27285
4.56797
4.75288
4.73247
5.52673
4.96971
4.89605
5.11525
5.11999
4.76016
3.66185
3.40201
3.44759
3.49717
3.45631
3.50718
3.73551
4.14498
5.04445
5.98623
6.22815
6.22018
5.98753
5.38071
4.80207
4.45742
4.25906
4.03556
3.74525
3.97595
4.78521
8.37525
8.98535
6.10273
5.27869
5.57542
5.86642
4.11524
2.58417
1.80783
1.54071
1.60197
1.74101
9.07354
11.3394
11.9175
10.6818
8.79746
8.23283
11.3855
14.3121
13.5845
10.9375
7.921
7.22687
7.93268
9.18016
9.72932
10.8725
12.4767
11.4435
8.62568
6.99932
6.8869
7.42273
7.47317
7.00892
7.71579
6.6521
6.43762
6.47276
6.39315
6.20307
6.90613
6.98897
6.34481
5.65297
4.25759
3.76776
3.92649
4.35568
5.04074
5.86841
5.52841
4.12976
3.67826
3.59768
3.68894
3.79666
3.91526
3.49178
4.11112
4.45808
3.46494
3.08031
3.02537
3.1612
3.08024
3.28187
4.21285
5.45769
5.66843
4.50176
3.54026
3.3775
3.771
4.06543
3.73772
3.85153
3.61873
3.44627
3.50088
3.92515
4.07857
3.45438
3.07716
3.17043
3.2066
3.10822
3.02184
3.06291
3.20147
3.44122
3.83883
3.90012
3.91169
4.11005
4.20613
4.16565
3.99278
3.82577
3.57799
3.17531
3.37274
3.9583
5.7495
5.87557
5.11375
4.70516
4.57126
3.91302
2.80999
1.92595
1.45987
1.38261
1.48555
1.62916
9.22477
8.12382
8.34328
7.24235
6.33943
7.11806
8.65383
9.07214
9.00219
7.58732
6.13437
5.85977
6.36827
9.46346
10.0231
9.4262
8.43717
7.55663
7.89049
6.71357
6.14639
6.45084
6.84383
7.01747
6.40351
5.69103
5.69583
5.74716
5.55534
5.24765
5.38937
5.51766
6.04759
5.92239
4.83287
4.08218
3.88914
3.60353
3.93275
4.08354
4.01735
4.25026
3.98896
3.59071
3.67128
3.95209
3.88063
3.50154
3.05082
2.72199
2.31924
2.20932
2.05801
2.07064
2.11127
2.21215
2.35995
2.57446
3.08649
2.93868
2.66475
2.65181
2.78736
2.8434
2.83756
3.00433
3.1709
3.38329
3.38627
3.44617
3.4262
3.30075
3.18875
3.15629
3.07782
2.90069
2.77353
2.76228
2.81894
2.86294
2.84237
2.79222
2.76906
2.80891
2.86268
3.05674
3.26755
3.24154
3.06158
2.67405
2.5719
2.81354
3.49215
4.23017
4.27224
4.29978
4.05313
3.20815
2.26043
1.5241
1.30976
1.38511
1.5359
1.68878
9.00412
8.73936
7.94705
6.80556
6.17976
6.32528
6.59644
5.92591
5.77503
5.44825
4.78889
4.49507
4.49001
4.62864
5.35288
6.90507
6.92562
6.76646
6.34463
5.75585
5.03514
5.03916
5.60982
7.15201
7.87025
7.88333
7.06274
5.7849
5.02184
4.97035
4.85931
5.13884
5.89204
5.96497
5.49228
4.58449
3.82561
3.02927
2.94687
3.0496
3.25197
3.62148
3.64152
3.62527
3.61335
3.61342
3.41299
2.89694
2.27614
1.94187
1.80398
1.78982
1.7659
1.7282
1.68109
1.64525
1.665
1.68462
1.81191
1.85932
1.80935
1.77708
1.81945
1.92703
2.06239
2.21258
2.41492
2.79987
3.07729
3.11828
3.10885
3.06682
2.99834
2.9408
2.8781
2.77061
2.63125
2.55399
2.55074
2.5461
2.50524
2.44385
2.36329
2.31476
2.32295
2.47042
2.80925
2.89805
2.76923
2.41106
2.05467
2.06914
2.29172
2.77017
3.06059
3.21509
3.22309
2.67021
1.84057
1.33925
1.31349
1.46137
1.65672
1.81433
9.83644
10.815
10.676
9.37103
7.50916
6.26322
5.60512
4.86846
4.51894
4.20021
4.11828
4.14733
4.24714
4.27776
4.19213
4.02704
3.92233
3.778
3.61027
3.44522
3.24443
3.14251
3.17148
3.31487
3.57668
4.16299
5.33213
6.18567
6.15365
5.82584
5.16857
4.80245
4.75651
5.01981
5.3152
5.04314
4.30374
3.26189
2.81908
2.82781
2.90201
3.04149
3.08892
3.05693
3.01064
2.93386
2.75932
2.42029
1.95551
1.78548
1.83774
1.94891
1.94247
1.87201
1.76874
1.63746
1.52555
1.48126
1.489
1.49149
1.46013
1.44164
1.44917
1.48785
1.54513
1.61614
1.70152
1.83868
2.03214
2.2759
2.55517
2.77273
2.8876
2.92431
2.90754
2.81079
2.6195
2.40921
2.34587
2.35901
2.36332
2.3373
2.26469
2.15172
2.13461
2.20608
2.43314
2.57817
2.50835
2.24986
1.85859
1.72244
1.78261
2.01693
2.20781
2.33916
2.34054
2.07191
1.58847
1.30679
1.38139
1.5787
1.8079
1.96322
9.24867
9.71304
9.99809
10.8033
10.7151
9.41082
6.74523
4.9112
4.31578
4.23065
4.30757
4.42141
4.48644
4.46321
4.34352
4.11545
3.81094
3.47841
3.17288
2.92559
2.75937
2.66283
2.62914
2.63701
2.6907
2.8824
3.39019
4.44972
5.37311
5.5059
5.2618
4.55924
4.04353
4.10943
4.57477
4.68858
4.36923
3.63166
2.95079
2.76328
2.79492
2.90368
2.90076
2.87076
2.78241
2.65161
2.44193
2.06514
1.81225
1.90342
2.15148
2.27505
2.24837
2.16788
2.01455
1.80256
1.60234
1.48111
1.41045
1.36557
1.31764
1.28143
1.26787
1.2707
1.28277
1.30652
1.3407
1.39763
1.48451
1.60696
1.77652
2.01606
2.34964
2.58197
2.62125
2.57922
2.46376
2.28719
2.18046
2.16719
2.19457
2.18995
2.14668
2.05773
2.02225
2.04447
2.14062
2.26108
2.24201
2.08164
1.76366
1.54417
1.5357
1.61966
1.73827
1.83526
1.8508
1.7167
1.38351
1.31975
1.47469
1.71406
1.96269
2.10855
7.78609
8.16574
8.59606
9.19281
10.2547
10.6975
9.59207
6.72995
4.86959
4.59128
4.74122
5.00248
5.11191
5.10437
4.98011
4.69195
4.2274
3.68782
3.24507
2.91034
2.67359
2.52139
2.44622
2.43371
2.45235
2.51147
2.68758
3.10202
3.85387
4.70844
4.88501
4.69248
4.20418
4.06498
4.18921
4.28582
4.14509
3.70439
3.08369
2.85776
2.89066
3.00022
2.99566
2.8986
2.72191
2.4884
2.19737
1.89628
1.894
2.11686
2.41578
2.52382
2.51433
2.42959
2.25972
2.02988
1.79778
1.62312
1.50424
1.42341
1.33638
1.27089
1.22144
1.18907
1.16709
1.15664
1.15781
1.18037
1.2219
1.28043
1.36341
1.49715
1.71051
1.98755
2.17287
2.22172
2.20414
2.15217
2.07928
2.0564
2.08844
2.09786
2.06774
2.00122
1.93209
1.93649
1.99924
2.08974
2.07133
1.95289
1.69401
1.43854
1.39335
1.43187
1.49995
1.57106
1.5878
1.49807
1.29737
1.3538
1.57288
1.85167
2.11196
2.24401
6.37684
6.47122
6.66842
7.06348
8.02769
9.69394
9.84833
8.66505
6.27546
5.15353
5.09749
5.30994
5.4985
5.52696
5.45979
5.1969
4.72347
4.08124
3.41684
2.93543
2.6216
2.4344
2.32766
2.28123
2.28099
2.31559
2.40844
2.59255
2.93325
3.50268
4.17663
4.54802
4.60116
4.45974
4.22855
4.02526
3.79524
3.4915
3.07481
2.8793
2.88097
2.95206
3.02955
3.01228
2.85229
2.5147
2.06735
1.88099
1.99824
2.31758
2.58609
2.693
2.74912
2.67392
2.48679
2.24633
2.01486
1.82397
1.67104
1.53656
1.41577
1.31537
1.23523
1.16768
1.11174
1.06875
1.04107
1.03548
1.04242
1.0636
1.10456
1.17867
1.2996
1.46427
1.65449
1.80401
1.87087
1.91271
1.96624
1.9933
2.02101
2.0292
2.00316
1.94811
1.88875
1.8883
1.92825
1.98935
1.97421
1.86294
1.62272
1.38292
1.31022
1.32053
1.35348
1.3982
1.40639
1.33352
1.27697
1.40937
1.67838
1.99314
2.25437
2.37532
6.01142
6.05132
6.11476
6.24759
6.67153
7.89035
9.25191
9.12305
8.0129
6.16802
5.57685
5.62855
5.84949
5.90563
5.80705
5.50342
4.97893
4.25666
3.46784
2.91061
2.55633
2.33119
2.21046
2.17483
2.18116
2.20401
2.24503
2.33225
2.50234
2.80858
3.28995
3.89172
4.578
4.77695
4.61052
4.25578
3.85226
3.49874
3.15225
2.98104
2.97592
3.05642
3.18861
3.20287
3.07027
2.69212
2.12942
1.95461
2.1508
2.50932
2.80889
2.90937
3.00853
2.93402
2.75005
2.49815
2.26161
2.06859
1.91308
1.77346
1.63297
1.50002
1.37387
1.25917
1.15885
1.07967
1.02349
0.985552
0.963754
0.960933
0.974247
1.01286
1.08219
1.17956
1.30174
1.44382
1.5595
1.6636
1.81057
1.97669
2.0064
1.99957
1.98144
1.94724
1.89349
1.8818
1.9233
2.0001
1.99015
1.88059
1.63195
1.38529
1.29348
1.27559
1.28157
1.29961
1.29855
1.23397
1.27087
1.46257
1.77348
2.12827
2.38822
2.51114
5.81434
5.88785
5.92244
5.97188
6.13575
6.7
8.03331
8.7423
8.47671
7.41019
6.3872
6.34516
6.49263
6.53872
6.36079
5.88435
5.18598
4.34345
3.48114
2.84212
2.43091
2.18921
2.0707
2.03314
2.03549
2.05375
2.09371
2.15929
2.26253
2.43501
2.71259
3.1601
3.89089
4.69643
4.7596
4.50973
4.03128
3.59373
3.32642
3.18521
3.1847
3.2936
3.44259
3.44496
3.32265
2.93027
2.2595
2.0703
2.24908
2.62143
3.00865
3.13731
3.149
3.14661
2.94673
2.66469
2.43102
2.25431
2.10493
1.96832
1.82888
1.68547
1.53845
1.39169
1.25554
1.14305
1.05234
0.980185
0.92992
0.902083
0.896175
0.906144
0.936261
0.989984
1.06863
1.1695
1.28353
1.41529
1.60661
1.88024
1.98073
1.96976
1.94208
1.91355
1.87808
1.86673
1.90826
1.99198
1.98638
1.88031
1.642
1.4008
1.30169
1.2619
1.23735
1.23433
1.2214
1.18329
1.27282
1.51501
1.85739
2.25238
2.523
2.66745
5.44964
5.62979
5.7064
5.76299
5.86212
6.13242
6.82147
7.91766
8.15758
7.87952
7.36082
7.2894
7.35952
7.27999
6.85538
6.10787
5.21939
4.27369
3.3567
2.68008
2.26256
2.0276
1.92448
1.90286
1.91145
1.93838
1.98057
2.03592
2.11153
2.22507
2.40413
2.67996
3.16494
4.04754
4.72248
4.68359
4.31596
3.78812
3.53209
3.45113
3.45804
3.54121
3.67879
3.74713
3.70013
3.36365
2.58359
2.25713
2.41599
2.74614
3.12388
3.08474
3.08684
3.09271
3.05735
2.86671
2.67948
2.53399
2.3965
2.2547
2.09607
1.92309
1.74213
1.57345
1.4159
1.27634
1.15824
1.0519
0.96437
0.906828
0.878407
0.871792
0.878855
0.902208
0.947518
1.01828
1.1112
1.22365
1.37215
1.59192
1.85773
1.9089
1.88481
1.86721
1.85958
1.86328
1.9092
2.00185
2.0002
1.89658
1.66554
1.43767
1.33253
1.27472
1.23643
1.20347
1.16475
1.16091
1.28151
1.55106
1.91863
2.34021
2.65149
2.9043
4.79752
5.14685
5.36874
5.49038
5.60601
5.79238
6.17715
6.93841
7.56895
7.58206
7.57622
7.79275
7.93289
7.68996
7.04864
6.17048
5.22196
4.23129
3.22244
2.49
2.05554
1.84163
1.76568
1.75801
1.7753
1.82017
1.88767
1.96555
2.04417
2.12617
2.23194
2.40014
2.699
3.28181
4.28132
4.73622
4.57956
4.11349
3.70955
3.58012
3.57737
3.61317
3.73034
3.92548
3.95441
3.77087
3.07092
2.52462
2.6588
2.85728
2.93583
2.92872
3.03832
3.08866
3.03986
3.1418
3.01731
2.84586
2.66599
2.50123
2.33418
2.15217
1.95609
1.76158
1.57391
1.39892
1.24875
1.11685
1.01409
0.937766
0.882293
0.852751
0.846298
0.85163
0.874117
0.921502
0.991974
1.08002
1.19534
1.36316
1.63053
1.81654
1.82978
1.83516
1.85099
1.87365
1.92847
1.99609
1.98089
1.87816
1.67189
1.47395
1.36236
1.30307
1.23973
1.18906
1.13131
1.14529
1.287
1.56642
1.93771
2.37314
2.74884
3.12144
4.06022
4.46776
4.86741
5.11102
5.29683
5.48888
5.7615
6.21902
6.8272
7.09063
7.35029
7.73393
7.77757
7.44698
6.7592
5.93957
5.08002
4.10765
3.02564
2.24615
1.8261
1.65182
1.61422
1.62263
1.66154
1.7381
1.84712
1.97913
2.07945
2.1472
2.21385
2.30305
2.46313
2.79466
3.50923
4.47857
4.69617
4.49014
4.02901
3.69992
3.59256
3.59396
3.68011
3.89002
4.13829
4.14018
3.67211
2.88295
2.92966
2.90683
2.8718
2.83471
2.90698
3.05729
3.1272
3.28825
3.3283
3.1651
2.92877
2.72182
2.54851
2.36161
2.15713
1.939
1.72069
1.51688
1.33884
1.19026
1.08202
0.999474
0.9297
0.877874
0.850747
0.847204
0.856098
0.883298
0.930166
0.99623
1.08272
1.20279
1.38558
1.64018
1.7922
1.83444
1.88216
1.9265
1.98715
2.02568
1.99513
1.88214
1.68111
1.50583
1.40367
1.34124
1.25793
1.18845
1.11267
1.13447
1.28002
1.55117
1.90837
2.35338
2.85057
3.29108
3.53563
3.86321
4.27762
4.65701
4.93011
5.1611
5.41179
5.7185
6.08333
6.45862
6.896
7.22146
7.15906
6.83086
6.31042
5.6925
4.9231
3.90165
2.75237
1.9913
1.60447
1.46529
1.44799
1.473
1.54428
1.66153
1.81395
1.99218
2.15278
2.24261
2.28607
2.33104
2.40744
2.56403
2.94159
3.75892
4.51478
4.57848
4.38158
3.96347
3.67237
3.59696
3.62423
3.79881
4.12803
4.33521
4.12883
3.35549
3.24985
3.12592
3.00614
2.85653
2.86565
3.03071
3.12732
3.25038
3.33493
3.27757
3.09231
2.90444
2.74193
2.55758
2.34106
2.09528
1.84188
1.60414
1.40123
1.24479
1.12674
1.03495
0.960578
0.900742
0.863999
0.846417
0.844543
0.853886
0.880815
0.926489
0.992627
1.08551
1.21992
1.42179
1.6798
1.8162
1.87002
1.91974
1.98306
2.01407
1.98206
1.87235
1.68401
1.53269
1.44603
1.368
1.28798
1.19711
1.11059
1.13002
1.2643
1.52463
1.85478
2.28052
2.86927
3.44908
3.18121
3.43222
3.78835
4.18997
4.53129
4.80459
5.06397
5.33522
5.61491
5.92719
6.33396
6.52755
6.48978
6.33979
6.0506
5.5501
4.69886
3.47193
2.31606
1.65742
1.35848
1.27412
1.27736
1.32346
1.4225
1.56831
1.7471
1.94861
2.17179
2.34278
2.41331
2.43952
2.46596
2.53185
2.69083
3.10191
3.88763
4.40092
4.38302
4.17918
3.84173
3.65199
3.64976
3.75564
4.02077
4.3842
4.39174
3.89202
3.41489
3.23761
3.2229
3.01958
2.9383
3.00009
3.12787
3.2634
3.26974
3.23212
3.19443
3.10207
2.97415
2.78589
2.54043
2.25133
1.94643
1.66256
1.43186
1.27634
1.16362
1.06752
0.992195
0.94207
0.905337
0.873447
0.859193
0.861051
0.873765
0.900537
0.948788
1.02085
1.12345
1.28044
1.51573
1.68135
1.75586
1.83606
1.94151
1.99783
1.97145
1.8659
1.68664
1.54961
1.46837
1.39416
1.32356
1.22083
1.11933
1.1307
1.25449
1.49699
1.8071
2.16985
2.72766
3.55115
3.0039
3.16684
3.45306
3.80496
4.15877
4.49461
4.78105
5.03025
5.25219
5.48101
5.70826
5.91303
6.06228
6.02611
5.80754
5.22982
4.16826
2.79812
1.82294
1.32004
1.11986
1.07891
1.09525
1.15809
1.27156
1.42649
1.61265
1.82778
2.07229
2.32822
2.51338
2.58419
2.59389
2.60971
2.66661
2.82034
3.21299
3.8555
4.14702
4.07924
3.87849
3.71146
3.69998
3.75515
3.91835
4.25475
4.44979