/*--------------------------------*- C++ -*----------------------------------*\
| =========                 |                                                 |
| \\      /  F ield         | OpenFOAM: The Open Source CFD Toolbox           |
|  \\    /   O peration     | Version:  v1912                                 |
|   \\  /    A nd           | Website:  www.openfoam.com                      |
|    \\/     M anipulation  |                                                 |
\*---------------------------------------------------------------------------*/
FoamFile
{
    version     2.0;
    format      ascii;
    class       surfaceScalarField;
    location    "40";
    object      phi;
}
// * * * * * * * * * * * * * * * * * * * * * * * * * * * * * * * * * * * * * //

dimensions      [0 3 -1 0 0 0 0];
oriented        oriented;


internalField   nonuniform List<scalar> 
28285
(
6.79699e-06
3.88086e-07
6.42848e-06
3.68513e-07
6.07863e-06
3.4985e-07
5.74656e-06
3.32063e-07
5.43145e-06
3.15111e-07
5.13249e-06
2.98961e-07
4.84891e-06
2.83576e-07
4.57999e-06
2.68925e-07
4.32502e-06
2.54972e-07
4.08332e-06
2.41692e-07
3.85427e-06
2.29051e-07
3.63725e-06
2.17024e-07
3.43167e-06
2.0558e-07
3.23697e-06
1.94697e-07
3.05263e-06
1.84347e-07
2.87812e-06
1.74508e-07
2.71296e-06
1.65155e-07
2.5567e-06
1.56268e-07
2.40887e-06
1.47823e-07
2.26907e-06
1.39803e-07
2.13688e-06
1.32186e-07
2.01193e-06
1.24955e-07
1.89384e-06
1.1809e-07
1.78226e-06
1.11577e-07
1.67687e-06
1.05396e-07
1.57733e-06
9.95339e-08
1.48336e-06
9.39739e-08
1.39465e-06
8.87033e-08
1.31095e-06
8.37066e-08
1.23198e-06
7.89722e-08
1.15749e-06
7.44859e-08
1.08725e-06
7.02372e-08
1.02104e-06
6.62132e-08
9.58636e-07
6.24041e-08
8.99838e-07
5.87981e-08
8.44451e-07
5.53865e-08
7.92293e-07
5.21584e-08
7.43187e-07
4.91058e-08
6.96968e-07
4.62189e-08
6.53478e-07
4.34903e-08
6.12567e-07
4.09112e-08
5.74092e-07
3.84747e-08
5.37919e-07
3.61729e-08
5.03919e-07
3.39995e-08
4.71972e-07
3.19474e-08
4.41961e-07
3.00108e-08
4.13778e-07
2.81832e-08
3.87319e-07
2.64594e-08
3.62485e-07
2.48335e-08
3.39184e-07
2.33008e-08
3.17328e-07
2.1856e-08
2.96834e-07
2.04948e-08
2.77621e-07
1.92123e-08
2.59617e-07
1.80047e-08
2.42749e-07
1.68676e-08
2.26951e-07
1.57975e-08
2.12161e-07
1.47906e-08
1.98317e-07
1.38434e-08
1.85365e-07
1.29527e-08
1.73249e-07
1.21154e-08
1.61921e-07
1.13285e-08
1.51331e-07
1.05892e-08
1.41437e-07
9.89484e-09
1.32194e-07
9.24291e-09
1.23563e-07
8.63094e-09
1.15506e-07
8.05676e-09
1.07988e-07
7.51812e-09
1.00975e-07
7.01307e-09
9.44352e-08
6.5396e-09
8.83393e-08
6.09592e-09
8.2659e-08
5.68029e-09
7.73679e-08
5.29106e-09
7.24413e-08
4.92669e-09
6.78556e-08
4.5857e-09
6.35889e-08
4.26671e-09
5.96205e-08
3.9684e-09
5.59309e-08
3.68952e-09
5.2502e-08
3.42892e-09
4.93165e-08
3.18548e-09
4.63584e-08
2.95816e-09
4.36124e-08
2.74596e-09
4.10644e-08
2.54796e-09
3.87012e-08
2.36328e-09
3.65101e-08
2.19109e-09
3.44795e-08
2.03061e-09
3.25984e-08
1.8811e-09
3.08565e-08
1.74187e-09
2.92442e-08
1.61226e-09
2.77526e-08
1.49167e-09
2.6373e-08
1.37952e-09
2.50978e-08
1.27525e-09
2.39194e-08
1.17837e-09
2.2831e-08
1.08838e-09
2.18262e-08
1.00484e-09
2.08989e-08
9.27327e-10
2.00434e-08
8.55441e-10
1.92546e-08
7.88809e-10
1.85275e-08
7.27079e-10
1.78576e-08
6.69933e-10
1.72406e-08
6.17053e-10
1.66724e-08
5.68163e-10
1.61494e-08
5.22986e-10
1.56681e-08
4.8128e-10
1.52253e-08
4.42809e-10
1.4818e-08
4.07358e-10
1.44432e-08
3.74722e-10
1.40985e-08
3.44718e-10
1.37814e-08
3.17167e-10
1.34894e-08
2.91921e-10
1.32206e-08
2.68819e-10
1.29729e-08
2.47737e-10
1.27443e-08
2.28538e-10
1.25332e-08
2.11135e-10
1.23378e-08
1.95377e-10
1.21565e-08
1.81287e-10
1.1988e-08
1.68523e-10
1.18304e-08
1.57591e-10
1.16832e-08
1.47266e-10
1.15435e-08
1.39694e-10
1.14124e-08
1.31072e-10
1.1285e-08
1.27406e-10
1.11657e-08
1.19259e-10
1.10449e-08
1.2087e-10
1.09334e-08
1.11491e-10
1.08132e-08
1.20129e-10
1.07057e-08
1.07564e-10
1.05815e-08
1.24209e-10
1.04719e-08
1.09545e-10
1.03407e-08
1.31259e-10
1.02248e-08
1.15859e-10
1.00826e-08
1.4223e-10
9.95846e-09
1.24116e-10
9.80305e-09
1.55413e-10
9.67238e-09
1.30673e-10
9.50561e-09
1.66763e-10
9.37686e-09
1.2875e-10
9.2083e-09
1.68565e-10
9.10013e-09
1.08171e-10
8.95148e-09
1.48647e-10
8.89012e-09
6.13625e-11
8.79452e-09
9.55937e-11
8.78523e-09
9.29355e-12
8.75097e-09
3.42563e-11
8.82607e-09
-7.50916e-11
8.88213e-09
-5.60602e-11
9.00312e-09
-1.2099e-10
9.10397e-09
-1.00858e-10
9.24436e-09
-1.40384e-10
9.36273e-09
-1.18374e-10
9.50299e-09
-1.40257e-10
9.62063e-09
-1.17636e-10
9.74931e-09
-1.2868e-10
9.85665e-09
-1.07342e-10
9.96946e-09
-1.12815e-10
1.00637e-08
-9.4206e-11
1.01614e-08
-9.77343e-11
1.02447e-08
-8.32745e-11
1.03322e-08
-8.75488e-11
1.04145e-08
-8.22254e-11
1.05043e-08
-8.98217e-11
1.06478e-08
-1.43514e-10
1.08095e-08
-1.61688e-10
1.36692e-08
-2.85971e-09
-2.8714e-09
6.78478e-06
7.75499e-07
6.41691e-06
7.36386e-07
6.06767e-06
6.99092e-07
5.73618e-06
6.63549e-07
5.42162e-06
6.29674e-07
5.12318e-06
5.97402e-07
4.8401e-06
5.66657e-07
4.57164e-06
5.3738e-07
4.31712e-06
5.09499e-07
4.07585e-06
4.82962e-07
3.8472e-06
4.57701e-07
3.63055e-06
4.33667e-07
3.42533e-06
4.10799e-07
3.23098e-06
3.89053e-07
3.04696e-06
3.68369e-07
2.87275e-06
3.48709e-07
2.70789e-06
3.30019e-07
2.5519e-06
3.12261e-07
2.40433e-06
2.95386e-07
2.26478e-06
2.7936e-07
2.13282e-06
2.64139e-07
2.00809e-06
2.4969e-07
1.89021e-06
2.35972e-07
1.77883e-06
2.22956e-07
1.67362e-06
2.10605e-07
1.57426e-06
1.98892e-07
1.48045e-06
1.87781e-07
1.39191e-06
1.77249e-07
1.30835e-06
1.67265e-07
1.22952e-06
1.57804e-07
1.15516e-06
1.4884e-07
1.08505e-06
1.4035e-07
1.01896e-06
1.32309e-07
9.56663e-07
1.24697e-07
8.97969e-07
1.17492e-07
8.42681e-07
1.10674e-07
7.90616e-07
1.04224e-07
7.41598e-07
9.8124e-08
6.95462e-07
9.23553e-08
6.52049e-07
8.69029e-08
6.11211e-07
8.17492e-08
5.72805e-07
7.68805e-08
5.36697e-07
7.2281e-08
5.02758e-07
6.79381e-08
4.70868e-07
6.38375e-08
4.40911e-07
5.99677e-08
4.12779e-07
5.63157e-08
3.86367e-07
5.28712e-08
3.61578e-07
4.96224e-08
3.38319e-07
4.65597e-08
3.16502e-07
4.36727e-08
2.96045e-07
4.09526e-08
2.76867e-07
3.839e-08
2.58895e-07
3.59769e-08
2.42058e-07
3.37048e-08
2.26289e-07
3.15665e-08
2.11525e-07
2.95544e-08
1.97706e-07
2.76618e-08
1.84777e-07
2.5882e-08
1.72684e-07
2.42089e-08
1.61376e-07
2.26365e-08
1.50806e-07
2.11592e-08
1.40929e-07
1.97717e-08
1.31703e-07
1.8469e-08
1.23088e-07
1.72462e-08
1.15045e-07
1.60988e-08
1.07541e-07
1.50225e-08
1.00541e-07
1.40133e-08
9.40131e-08
1.30672e-08
8.79284e-08
1.21807e-08
8.22585e-08
1.13502e-08
7.69771e-08
1.05724e-08
7.20594e-08
9.84434e-09
6.74822e-08
9.16299e-09
6.32233e-08
8.52558e-09
5.92622e-08
7.9295e-09
5.55794e-08
7.37226e-09
5.21568e-08
6.85153e-09
4.89772e-08
6.3651e-09
4.60245e-08
5.91086e-09
4.32836e-08
5.48686e-09
4.07404e-08
5.09121e-09
3.83815e-08
4.72219e-09
3.61944e-08
4.37812e-09
3.41676e-08
4.05745e-09
3.229e-08
3.7587e-09
3.05514e-08
3.4805e-09
2.89421e-08
3.22153e-09
2.74532e-08
2.98057e-09
2.60763e-08
2.75647e-09
2.48034e-08
2.54813e-09
2.36272e-08
2.35453e-09
2.25409e-08
2.17472e-09
2.15379e-08
2.00781e-09
2.06123e-08
1.85292e-09
1.97585e-08
1.70928e-09
1.89712e-08
1.57614e-09
1.82454e-08
1.45279e-09
1.75768e-08
1.33861e-09
1.69609e-08
1.23295e-09
1.63938e-08
1.13526e-09
1.58718e-08
1.04499e-09
1.53914e-08
9.61655e-10
1.49494e-08
8.84786e-10
1.45428e-08
8.1395e-10
1.41688e-08
7.4874e-10
1.38247e-08
6.88789e-10
1.35082e-08
6.33742e-10
1.32168e-08
5.83298e-10
1.29485e-08
5.37138e-10
1.27012e-08
4.95016e-10
1.24731e-08
4.56657e-10
1.22623e-08
4.21884e-10
1.20673e-08
3.90403e-10
1.18863e-08
3.62248e-10
1.17181e-08
3.3676e-10
1.15608e-08
3.14893e-10
1.14137e-08
2.94327e-10
1.12743e-08
2.79094e-10
1.11433e-08
2.62069e-10
1.10163e-08
2.54447e-10
1.0897e-08
2.38573e-10
1.07766e-08
2.41299e-10
1.06649e-08
2.23154e-10
1.05453e-08
2.39751e-10
1.04374e-08
2.15399e-10
1.03138e-08
2.47866e-10
1.02039e-08
2.19421e-10
1.00732e-08
2.61938e-10
9.95698e-09
2.32097e-10
9.81537e-09
2.83845e-10
9.69083e-09
2.48652e-10
9.53608e-09
3.10165e-10
9.40496e-09
2.61796e-10
9.23891e-09
3.32807e-10
9.10969e-09
2.5797e-10
8.94192e-09
3.36343e-10
8.83328e-09
2.1681e-10
8.68548e-09
2.96445e-10
8.62368e-09
1.23166e-10
8.52892e-09
1.90351e-10
8.51911e-09
1.90981e-11
8.48569e-09
6.76816e-11
8.5603e-09
-1.49699e-10
8.617e-09
-1.12769e-10
8.73742e-09
-2.41405e-10
8.83879e-09
-2.02232e-10
8.97858e-09
-2.80168e-10
9.09737e-09
-2.37169e-10
9.23704e-09
-2.79922e-10
9.35503e-09
-2.35628e-10
9.48315e-09
-2.568e-10
9.59081e-09
-2.15e-10
9.7031e-09
-2.25111e-10
9.79761e-09
-1.8871e-10
9.89486e-09
-1.94988e-10
9.97844e-09
-1.66853e-10
1.00655e-08
-1.74641e-10
1.01481e-08
-1.64789e-10
1.02375e-08
-1.79262e-10
1.03813e-08
-2.8729e-10
1.05468e-08
-3.27139e-10
1.34247e-08
-5.73767e-09
-5.76056e-09
6.77801e-06
1.16256e-06
6.41047e-06
1.10393e-06
6.06155e-06
1.04802e-06
5.73036e-06
9.94735e-07
5.41608e-06
9.43951e-07
5.11791e-06
8.95572e-07
4.83509e-06
8.49481e-07
4.56688e-06
8.05591e-07
4.31258e-06
7.63795e-07
4.07153e-06
7.24012e-07
3.84309e-06
6.86143e-07
3.62664e-06
6.50113e-07
3.42161e-06
6.15832e-07
3.22743e-06
5.83231e-07
3.04357e-06
5.52224e-07
2.86953e-06
5.22751e-07
2.70482e-06
4.94732e-07
2.54897e-06
4.68111e-07
2.40154e-06
4.42814e-07
2.26211e-06
4.18789e-07
2.13028e-06
3.95971e-07
2.00566e-06
3.7431e-07
1.88789e-06
3.53746e-07
1.77661e-06
3.34234e-07
1.6715e-06
3.15718e-07
1.57223e-06
2.98158e-07
1.47851e-06
2.81502e-07
1.39005e-06
2.65714e-07
1.30656e-06
2.50746e-07
1.22781e-06
2.36563e-07
1.15352e-06
2.23124e-07
1.08347e-06
2.10397e-07
1.01744e-06
1.98343e-07
9.55205e-07
1.86932e-07
8.96566e-07
1.7613e-07
8.4133e-07
1.65911e-07
7.89313e-07
1.56241e-07
7.4034e-07
1.47096e-07
6.94247e-07
1.38449e-07
6.50875e-07
1.30275e-07
6.10076e-07
1.22549e-07
5.71706e-07
1.1525e-07
5.35632e-07
1.08355e-07
5.01725e-07
1.01845e-07
4.69865e-07
9.56975e-08
4.39936e-07
8.98963e-08
4.1183e-07
8.44217e-08
3.85443e-07
7.9258e-08
3.60678e-07
7.43878e-08
3.37441e-07
6.97965e-08
3.15645e-07
6.54687e-08
2.95207e-07
6.1391e-08
2.76047e-07
5.75494e-08
2.58092e-07
5.3932e-08
2.41271e-07
5.05259e-08
2.25517e-07
4.73204e-08
2.10768e-07
4.43041e-08
1.96963e-07
4.14669e-08
1.84046e-07
3.87988e-08
1.71964e-07
3.62908e-08
1.60667e-07
3.39335e-08
1.50107e-07
3.1719e-08
1.4024e-07
2.9639e-08
1.31022e-07
2.76862e-08
1.22416e-07
2.58531e-08
1.14381e-07
2.41331e-08
1.06884e-07
2.25197e-08
9.98907e-08
2.10068e-08
9.33694e-08
1.95885e-08
8.72906e-08
1.82595e-08
8.16262e-08
1.70145e-08
7.635e-08
1.58486e-08
7.14372e-08
1.47572e-08
6.68644e-08
1.37358e-08
6.26097e-08
1.27803e-08
5.86525e-08
1.18867e-08
5.49734e-08
1.10514e-08
5.15542e-08
1.02708e-08
4.83777e-08
9.54156e-09
4.54279e-08
8.86063e-09
4.26898e-08
8.22503e-09
4.0149e-08
7.63194e-09
3.77925e-08
7.07875e-09
3.56076e-08
6.56297e-09
3.35828e-08
6.08227e-09
3.17071e-08
5.63443e-09
2.99702e-08
5.21739e-09
2.83626e-08
4.82917e-09
2.68752e-08
4.46797e-09
2.54996e-08
4.13203e-09
2.4228e-08
3.81972e-09
2.3053e-08
3.52951e-09
2.19678e-08
3.25997e-09
2.09658e-08
3.00975e-09
2.00412e-08
2.77757e-09
1.91882e-08
2.56225e-09
1.84017e-08
2.36267e-09
1.76767e-08
2.17777e-09
1.70087e-08
2.0066e-09
1.63934e-08
1.84821e-09
1.58269e-08
1.70177e-09
1.53055e-08
1.56646e-09
1.48256e-08
1.44154e-09
1.4384e-08
1.32631e-09
1.39779e-08
1.22013e-09
1.36042e-08
1.12238e-09
1.32605e-08
1.03251e-09
1.29443e-08
9.49994e-10
1.26532e-08
8.74379e-10
1.23851e-08
8.05187e-10
1.21381e-08
7.42047e-10
1.19102e-08
6.84548e-10
1.16997e-08
6.32424e-10
1.15048e-08
5.85238e-10
1.1324e-08
5.43034e-10
1.1156e-08
5.04837e-10
1.09988e-08
4.72046e-10
1.08519e-08
4.41257e-10
1.07126e-08
4.18365e-10
1.05817e-08
3.92964e-10
1.04548e-08
3.81364e-10
1.03356e-08
3.57826e-10
1.02153e-08
3.6159e-10
1.01036e-08
3.34817e-10
9.98416e-09
3.59189e-10
9.87625e-09
3.2331e-10
9.75284e-09
3.71281e-10
9.64281e-09
3.29446e-10
9.51243e-09
3.92318e-10
9.39598e-09
3.48552e-10
9.25473e-09
4.25095e-10
9.1299e-09
3.73479e-10
8.9756e-09
4.64462e-10
8.8441e-09
3.93293e-10
8.67862e-09
4.98287e-10
8.54896e-09
3.87638e-10
8.38186e-09
5.03436e-10
8.27272e-09
3.25949e-10
8.12571e-09
4.43457e-10
8.0634e-09
1.85481e-10
7.96943e-09
2.84317e-10
7.95907e-09
2.94592e-11
7.92652e-09
1.00233e-10
8.00066e-09
-2.23838e-10
8.05804e-09
-1.70145e-10
8.17795e-09
-3.61322e-10
8.27981e-09
-3.04086e-10
8.41912e-09
-4.19486e-10
8.53824e-09
-3.56287e-10
8.6775e-09
-4.19179e-10
8.7957e-09
-3.53825e-10
8.92348e-09
-3.84579e-10
9.03126e-09
-3.22785e-10
9.14328e-09
-3.37128e-10
9.23787e-09
-2.83301e-10
9.33489e-09
-2.92007e-10
9.41855e-09
-2.50516e-10
9.50544e-09
-2.61529e-10
9.58811e-09
-2.47465e-10
9.67744e-09
-2.68588e-10
9.82122e-09
-4.31065e-10
9.98998e-09
-4.95902e-10
1.28563e-08
-8.60401e-09
-8.64211e-09
6.77351e-06
1.54942e-06
6.40616e-06
1.47128e-06
6.05742e-06
1.39676e-06
5.7264e-06
1.32575e-06
5.41229e-06
1.25807e-06
5.11428e-06
1.19359e-06
4.8316e-06
1.13216e-06
4.56353e-06
1.07366e-06
4.30937e-06
1.01796e-06
4.06844e-06
9.64936e-07
3.84012e-06
9.14464e-07
3.62379e-06
8.66446e-07
3.41886e-06
8.20756e-07
3.22479e-06
7.77306e-07
3.04103e-06
7.35982e-07
2.86708e-06
6.96701e-07
2.70246e-06
6.59358e-07
2.54669e-06
6.23878e-07
2.39934e-06
5.90163e-07
2.25998e-06
5.58144e-07
2.12822e-06
5.27732e-07
2.00367e-06
4.98863e-07
1.88596e-06
4.71456e-07
1.77474e-06
4.45451e-07
1.66969e-06
4.20774e-07
1.57047e-06
3.97371e-07
1.4768e-06
3.75173e-07
1.38839e-06
3.5413e-07
1.30495e-06
3.34181e-07
1.22623e-06
3.1528e-07
1.15199e-06
2.97369e-07
1.08198e-06
2.80406e-07
1.01598e-06
2.64341e-07
9.53782e-07
2.49133e-07
8.95175e-07
2.34737e-07
8.39969e-07
2.21116e-07
7.87981e-07
2.08229e-07
7.39036e-07
1.96042e-07
6.92968e-07
1.84516e-07
6.4962e-07
1.73623e-07
6.08843e-07
1.63326e-07
5.70494e-07
1.53599e-07
5.3444e-07
1.44409e-07
5.00553e-07
1.35733e-07
4.6871e-07
1.2754e-07
4.38798e-07
1.19808e-07
4.10708e-07
1.12512e-07
3.84336e-07
1.0563e-07
3.59585e-07
9.91392e-08
3.36361e-07
9.30203e-08
3.14577e-07
8.72523e-08
2.9415e-07
8.18178e-08
2.75002e-07
7.6698e-08
2.57057e-07
7.18768e-08
2.40246e-07
6.73375e-08
2.24501e-07
6.30653e-08
2.09759e-07
5.90453e-08
1.95962e-07
5.52641e-08
1.83053e-07
5.17083e-08
1.70978e-07
4.83656e-08
1.59687e-07
4.52241e-08
1.49134e-07
4.22727e-08
1.39272e-07
3.95006e-08
1.3006e-07
3.6898e-08
1.21458e-07
3.44549e-08
1.13429e-07
3.21627e-08
1.05936e-07
3.00124e-08
9.89468e-08
2.79961e-08
9.24293e-08
2.6106e-08
8.63541e-08
2.43348e-08
8.06931e-08
2.26755e-08
7.542e-08
2.11217e-08
7.05101e-08
1.96671e-08
6.594e-08
1.83058e-08
6.16878e-08
1.70324e-08
5.7733e-08
1.58415e-08
5.40561e-08
1.47283e-08
5.06389e-08
1.36879e-08
4.74644e-08
1.27161e-08
4.45164e-08
1.18086e-08
4.17799e-08
1.09615e-08
3.92407e-08
1.01711e-08
3.68856e-08
9.43387e-09
3.47021e-08
8.74649e-09
3.26785e-08
8.10585e-09
3.08039e-08
7.50901e-09
2.90681e-08
6.95321e-09
2.74614e-08
6.43583e-09
2.59749e-08
5.95446e-09
2.46002e-08
5.50674e-09
2.33294e-08
5.09052e-09
2.21552e-08
4.70376e-09
2.10706e-08
4.34454e-09
2.00693e-08
4.01107e-09
1.91452e-08
3.70165e-09
1.82928e-08
3.41469e-09
1.75067e-08
3.1487e-09
1.67822e-08
2.90229e-09
1.61146e-08
2.67417e-09
1.54998e-08
2.46309e-09
1.49336e-08
2.26793e-09
1.44125e-08
2.0876e-09
1.39329e-08
1.92112e-09
1.34916e-08
1.76756e-09
1.30857e-08
1.62605e-09
1.27123e-08
1.49578e-09
1.23688e-08
1.37601e-09
1.20527e-08
1.26605e-09
1.17618e-08
1.16528e-09
1.1494e-08
1.07307e-09
1.12471e-08
9.88924e-10
1.10193e-08
9.12299e-10
1.08089e-08
8.42837e-10
1.06142e-08
7.79956e-10
1.04335e-08
7.23711e-10
1.02655e-08
6.7282e-10
1.01085e-08
6.29105e-10
9.96163e-09
5.88114e-10
9.82245e-09
5.57548e-10
9.6916e-09
5.23811e-10
9.56478e-09
5.08187e-10
9.44552e-09
4.77084e-10
9.32537e-09
4.81739e-10
9.21361e-09
4.46574e-10
9.09441e-09
4.78397e-10
8.98628e-09
4.31437e-10
8.8632e-09
4.94358e-10
8.75285e-09
4.39802e-10
8.6229e-09
5.22264e-10
8.50601e-09
4.65447e-10
8.36531e-09
5.65794e-10
8.23991e-09
4.98873e-10
8.08631e-09
6.18068e-10
7.9541e-09
5.25497e-10
7.78948e-09
6.62906e-10
7.65897e-09
5.18153e-10
7.49292e-09
6.69481e-10
7.38283e-09
4.36044e-10
7.23703e-09
5.89258e-10
7.17372e-09
2.48794e-10
7.08101e-09
3.77019e-10
7.06959e-09
4.08873e-11
7.03835e-09
1.31467e-10
7.1116e-09
-2.97084e-10
7.17007e-09
-2.28614e-10
7.28913e-09
-4.80389e-10
7.39183e-09
-4.06785e-10
7.53041e-09
-5.58063e-10
7.65014e-09
-4.76021e-10
7.78879e-09
-5.57822e-10
7.90742e-09
-4.72454e-10
8.0347e-09
-5.11865e-10
8.14279e-09
-4.30872e-10
8.25441e-09
-4.4875e-10
8.34923e-09
-3.7812e-10
8.44592e-09
-3.88697e-10
8.52979e-09
-3.34384e-10
8.61637e-09
-3.48115e-10
8.69928e-09
-3.30376e-10
8.78836e-09
-3.57666e-10
8.93217e-09
-5.74877e-10
9.10323e-09
-6.6696e-10
1.18567e-08
-1.13574e-08
-1.14141e-08
6.76979e-06
1.93615e-06
6.40257e-06
1.83849e-06
6.05395e-06
1.74538e-06
5.72306e-06
1.65664e-06
5.40906e-06
1.57207e-06
5.11115e-06
1.49149e-06
4.82857e-06
1.41473e-06
4.5606e-06
1.34164e-06
4.30653e-06
1.27203e-06
4.06569e-06
1.20577e-06
3.83745e-06
1.1427e-06
3.6212e-06
1.0827e-06
3.41635e-06
1.02561e-06
3.22234e-06
9.71311e-07
3.03865e-06
9.19673e-07
2.86477e-06
8.70587e-07
2.7002e-06
8.23924e-07
2.54449e-06
7.79588e-07
2.3972e-06
7.37458e-07
2.25789e-06
6.97447e-07
2.12618e-06
6.59445e-07
2.00167e-06
6.2337e-07
1.88401e-06
5.89122e-07
1.77283e-06
5.56627e-07
1.66781e-06
5.25791e-07
1.56864e-06
4.96546e-07
1.475e-06
4.68808e-07
1.38662e-06
4.42513e-07
1.30322e-06
4.17585e-07
1.22453e-06
3.93966e-07
1.15031e-06
3.71585e-07
1.08033e-06
3.50389e-07
1.01436e-06
3.30313e-07
9.52182e-07
3.1131e-07
8.93598e-07
2.93321e-07
8.38413e-07
2.76301e-07
7.86445e-07
2.60197e-07
7.37519e-07
2.44968e-07
6.91469e-07
2.30566e-07
6.48138e-07
2.16954e-07
6.07377e-07
2.04087e-07
5.69043e-07
1.91932e-07
5.33003e-07
1.80449e-07
4.99129e-07
1.69607e-07
4.67299e-07
1.59369e-07
4.37399e-07
1.49708e-07
4.0932e-07
1.40591e-07
3.82959e-07
1.31992e-07
3.58217e-07
1.23881e-07
3.35003e-07
1.16235e-07
3.13228e-07
1.09027e-07
2.9281e-07
1.02236e-07
2.73669e-07
9.58387e-08
2.55731e-07
8.98143e-08
2.38927e-07
8.41421e-08
2.23188e-07
7.88038e-08
2.08453e-07
7.37805e-08
1.94661e-07
6.90557e-08
1.81757e-07
6.46124e-08
1.69687e-07
6.04355e-08
1.58402e-07
5.65099e-08
1.47852e-07
5.2822e-08
1.37995e-07
4.93581e-08
1.28787e-07
4.61059e-08
1.20189e-07
4.30532e-08
1.12162e-07
4.01889e-08
1.04673e-07
3.7502e-08
9.76866e-08
3.49825e-08
9.11719e-08
3.26207e-08
8.50992e-08
3.04074e-08
7.94407e-08
2.83341e-08
7.41699e-08
2.63925e-08
6.92621e-08
2.45749e-08
6.4694e-08
2.28739e-08
6.04437e-08
2.12827e-08
5.64906e-08
1.97946e-08
5.28153e-08
1.84035e-08
4.93997e-08
1.71036e-08
4.62265e-08
1.58893e-08
4.32798e-08
1.47553e-08
4.05445e-08
1.36968e-08
3.80065e-08
1.27092e-08
3.56524e-08
1.17879e-08
3.34699e-08
1.0929e-08
3.14472e-08
1.01285e-08
2.95735e-08
9.38274e-09
2.78385e-08
8.68824e-09
2.62325e-08
8.04176e-09
2.47467e-08
7.44026e-09
2.33726e-08
6.88082e-09
2.21024e-08
6.36074e-09
2.09287e-08
5.87747e-09
1.98447e-08
5.4286e-09
1.88438e-08
5.01193e-09
1.79202e-08
4.62529e-09
1.70681e-08
4.26673e-09
1.62824e-08
3.93437e-09
1.55583e-08
3.62647e-09
1.4891e-08
3.34143e-09
1.42764e-08
3.07768e-09
1.37105e-08
2.83383e-09
1.31896e-08
2.60849e-09
1.27103e-08
2.40048e-09
1.22692e-08
2.2086e-09
1.18635e-08
2.03178e-09
1.14903e-08
1.869e-09
1.11469e-08
1.71936e-09
1.0831e-08
1.58195e-09
1.05403e-08
1.45604e-09
1.02725e-08
1.34083e-09
1.00258e-08
1.23569e-09
9.79811e-09
1.13995e-09
9.58779e-09
1.05315e-09
9.39316e-09
9.7459e-10
9.21256e-09
9.04309e-10
9.04464e-09
8.40735e-10
8.88765e-09
7.86095e-10
8.74084e-09
7.34926e-10
8.60173e-09
6.96659e-10
8.4709e-09
6.54642e-10
8.34417e-09
6.34914e-10
8.22486e-09
5.96397e-10
8.10488e-09
6.01717e-10
7.99294e-09
5.58514e-10
7.87404e-09
5.97294e-10
7.76556e-09
5.39925e-10
7.64296e-09
6.16959e-10
7.53207e-09
5.50688e-10
7.40275e-09
6.51583e-10
7.28516e-09
5.83035e-10
7.14526e-09
7.05701e-10
7.01898e-09
6.25149e-10
6.86638e-09
7.70671e-10
6.73307e-09
6.58799e-10
6.5697e-09
8.26274e-10
6.43787e-09
6.4999e-10
6.27334e-09
8.34012e-10
6.16174e-09
5.47641e-10
6.01768e-09
7.33319e-10
5.95278e-09
3.13696e-10
5.8619e-09
4.67894e-10
5.84884e-09
5.39501e-11
5.8195e-09
1.60803e-10
5.89131e-09
-3.68891e-10
5.9514e-09
-2.88711e-10
6.06916e-09
-5.98144e-10
6.17315e-09
-5.10775e-10
6.31062e-09
-6.95533e-10
6.43133e-09
-5.96731e-10
6.56907e-09
-6.95567e-10
6.68842e-09
-5.91796e-10
6.81499e-09
-6.38443e-10
6.9236e-09
-5.39478e-10
7.03467e-09
-5.59815e-10
7.12988e-09
-4.73337e-10
7.22611e-09
-4.84923e-10
7.31033e-09
-4.18609e-10
7.39649e-09
-4.34268e-10
7.4798e-09
-4.13686e-10
7.56847e-09
-4.46336e-10
7.71232e-09
-7.18726e-10
7.88434e-09
-8.38985e-10
1.03651e-08
-1.38382e-08
-1.39133e-08
6.76632e-06
2.32277e-06
6.3992e-06
2.20561e-06
6.05068e-06
2.09391e-06
5.71988e-06
1.98744e-06
5.40596e-06
1.88598e-06
5.10814e-06
1.78932e-06
4.82565e-06
1.69723e-06
4.55775e-06
1.60953e-06
4.30375e-06
1.52603e-06
4.06298e-06
1.44654e-06
3.83481e-06
1.37088e-06
3.61862e-06
1.29889e-06
3.41383e-06
1.2304e-06
3.21988e-06
1.16526e-06
3.03624e-06
1.10331e-06
2.86241e-06
1.04442e-06
2.69789e-06
9.88441e-07
2.54223e-06
9.35252e-07
2.39497e-06
8.84709e-07
2.25571e-06
8.36709e-07
2.12404e-06
7.91118e-07
1.99957e-06
7.4784e-07
1.88194e-06
7.06753e-07
1.7708e-06
6.67769e-07
1.66581e-06
6.30776e-07
1.56667e-06
5.95691e-07
1.47306e-06
5.62414e-07
1.3847e-06
5.3087e-07
1.30132e-06
5.00964e-07
1.22266e-06
4.72628e-07
1.14847e-06
4.45778e-07
1.07851e-06
4.2035e-07
1.01256e-06
3.96266e-07
9.50397e-07
3.73468e-07
8.91832e-07
3.51887e-07
8.36664e-07
3.31468e-07
7.84712e-07
3.12149e-07
7.35801e-07
2.93879e-07
6.89766e-07
2.76601e-07
6.46449e-07
2.60271e-07
6.05701e-07
2.44835e-07
5.6738e-07
2.30253e-07
5.31351e-07
2.16478e-07
4.97488e-07
2.0347e-07
4.65668e-07
1.91189e-07
4.35778e-07
1.79599e-07
4.07708e-07
1.68661e-07
3.81355e-07
1.58344e-07
3.56622e-07
1.48614e-07
3.33415e-07
1.39441e-07
3.11648e-07
1.30795e-07
2.91236e-07
1.22648e-07
2.72101e-07
1.14973e-07
2.5417e-07
1.07746e-07
2.37371e-07
1.00941e-07
2.21638e-07
9.45369e-08
2.06908e-07
8.85107e-08
1.93121e-07
8.28425e-08
1.80221e-07
7.7512e-08
1.68155e-07
7.25012e-08
1.56873e-07
6.77919e-08
1.46328e-07
6.33676e-08
1.36474e-07
5.92121e-08
1.27269e-07
5.53106e-08
1.18674e-07
5.16484e-08
1.1065e-07
4.82122e-08
1.03164e-07
4.49889e-08
9.61796e-08
4.19664e-08
8.96673e-08
3.9133e-08
8.35968e-08
3.64779e-08
7.79403e-08
3.39906e-08
7.26714e-08
3.16614e-08
6.77654e-08
2.94809e-08
6.3199e-08
2.74403e-08
5.89502e-08
2.55314e-08
5.49986e-08
2.37463e-08
5.13247e-08
2.20775e-08
4.79103e-08
2.0518e-08
4.47383e-08
1.90612e-08
4.17927e-08
1.77009e-08
3.90585e-08
1.64311e-08
3.65214e-08
1.52462e-08
3.41682e-08
1.41411e-08
3.19865e-08
1.31107e-08
2.99646e-08
1.21504e-08
2.80916e-08
1.12557e-08
2.63573e-08
1.04226e-08
2.4752e-08
9.64706e-09
2.32667e-08
8.92548e-09
2.18932e-08
8.25435e-09
2.06235e-08
7.63045e-09
1.94503e-08
7.05071e-09
1.83666e-08
6.51224e-09
1.73662e-08
6.01239e-09
1.64429e-08
5.54856e-09
1.55912e-08
5.11842e-09
1.48058e-08
4.71972e-09
1.4082e-08
4.35036e-09
1.3415e-08
4.00842e-09
1.28006e-08
3.69201e-09
1.2235e-08
3.39949e-09
1.17143e-08
3.12917e-09
1.12351e-08
2.87963e-09
1.07943e-08
2.64945e-09
1.03887e-08
2.43734e-09
1.00156e-08
2.24208e-09
9.67244e-09
2.06256e-09
9.35667e-09
1.89773e-09
9.06602e-09
1.74668e-09
8.79837e-09
1.60847e-09
8.55171e-09
1.48235e-09
8.32415e-09
1.3675e-09
8.11392e-09
1.26339e-09
7.91936e-09
1.16915e-09
7.73883e-09
1.08484e-09
7.57097e-09
1.00859e-09
7.41405e-09
9.43019e-10
7.26727e-09
8.81706e-10
7.12823e-09
8.35694e-10
6.99739e-09
7.85482e-10
6.87078e-09
7.61526e-10
6.75136e-09
7.15817e-10
6.6316e-09
7.21471e-10
6.51938e-09
6.70734e-10
6.40091e-09
7.15773e-10
6.2919e-09
6.48935e-10
6.16995e-09
7.3891e-10
6.05831e-09
6.62328e-10
5.92984e-09
7.80049e-10
5.81128e-09
7.01599e-10
5.67245e-09
8.44526e-10
5.54494e-09
7.5266e-10
5.3937e-09
9.21911e-10
5.25887e-09
7.93633e-10
5.0972e-09
9.87946e-10
4.96352e-09
7.83668e-10
4.80105e-09
9.96484e-10
4.68734e-09
6.61349e-10
4.54566e-09
8.75001e-10
4.4785e-09
3.80849e-10
4.39017e-09
5.56232e-10
4.37477e-09
6.93481e-11
4.34797e-09
1.87598e-10
4.4177e-09
-4.38616e-10
4.48002e-09
-3.5103e-10
4.59592e-09
-7.14047e-10
4.7017e-09
-6.16558e-10
4.83764e-09
-8.31468e-10
4.95972e-09
-7.18816e-10
5.09625e-09
-8.32091e-10
5.21661e-09
-7.1216e-10
5.34224e-09
-7.64071e-10
5.4516e-09
-6.48842e-10
5.56192e-09
-6.70136e-10
5.65773e-09
-5.69144e-10
5.75334e-09
-5.80531e-10
5.83809e-09
-5.03361e-10
5.92366e-09
-5.19835e-10
6.00754e-09
-4.97568e-10
6.0956e-09
-5.34395e-10
6.23944e-09
-8.62571e-10
6.41076e-09
-1.0103e-09
8.4631e-09
-1.58905e-08
-1.59796e-08
6.76296e-06
2.70929e-06
6.39593e-06
2.57263e-06
6.0475e-06
2.44234e-06
5.71678e-06
2.31816e-06
5.40295e-06
2.19981e-06
5.1052e-06
2.08706e-06
4.82278e-06
1.97965e-06
4.55495e-06
1.87736e-06
4.30101e-06
1.77996e-06
4.06031e-06
1.68725e-06
3.83219e-06
1.59899e-06
3.61606e-06
1.51503e-06
3.41132e-06
1.43513e-06
3.21742e-06
1.35916e-06
3.03384e-06
1.2869e-06
2.86005e-06
1.21821e-06
2.69557e-06
1.15292e-06
2.53995e-06
1.09087e-06
2.39274e-06
1.03192e-06
2.25351e-06
9.75934e-07
2.12187e-06
9.22756e-07
1.99744e-06
8.72277e-07
1.87984e-06
8.24353e-07
1.76873e-06
7.78882e-07
1.66377e-06
7.35732e-07
1.56465e-06
6.9481e-07
1.47107e-06
6.55995e-07
1.38274e-06
6.19201e-07
1.29938e-06
5.8432e-07
1.22074e-06
5.51269e-07
1.14657e-06
5.19951e-07
1.07663e-06
4.90291e-07
1.01069e-06
4.622e-07
9.48553e-07
4.35609e-07
8.90004e-07
4.10436e-07
8.34852e-07
3.8662e-07
7.82915e-07
3.64086e-07
7.34018e-07
3.42776e-07
6.87996e-07
3.22624e-07
6.44691e-07
3.03576e-07
6.03955e-07
2.85572e-07
5.65645e-07
2.68563e-07
5.29627e-07
2.52495e-07
4.95773e-07
2.37324e-07
4.63964e-07
2.22999e-07
4.34082e-07
2.0948e-07
4.0602e-07
1.96722e-07
3.79676e-07
1.84689e-07
3.5495e-07
1.7334e-07
3.3175e-07
1.62641e-07
3.09989e-07
1.52556e-07
2.89583e-07
1.43054e-07
2.70455e-07
1.34102e-07
2.52529e-07
1.25672e-07
2.35735e-07
1.17735e-07
2.20006e-07
1.10265e-07
2.05281e-07
1.03236e-07
1.91498e-07
9.6625e-08
1.78603e-07
9.04076e-08
1.66541e-07
8.45632e-08
1.55262e-07
7.90703e-08
1.4472e-07
7.39099e-08
1.34869e-07
6.9063e-08
1.25668e-07
6.45124e-08
1.17075e-07
6.02409e-08
1.09054e-07
5.6233e-08
1.0157e-07
5.24733e-08
9.45882e-08
4.8948e-08
8.8078e-08
4.56432e-08
8.20096e-08
4.25464e-08
7.63549e-08
3.96453e-08
7.10878e-08
3.69285e-08
6.61834e-08
3.43853e-08
6.16186e-08
3.20052e-08
5.73713e-08
2.97787e-08
5.3421e-08
2.76966e-08
4.97483e-08
2.57501e-08
4.63351e-08
2.39312e-08
4.31642e-08
2.22321e-08
4.02197e-08
2.06454e-08
3.74864e-08
1.91644e-08
3.49502e-08
1.77824e-08
3.25978e-08
1.64935e-08
3.04169e-08
1.52916e-08
2.83957e-08
1.41716e-08
2.65234e-08
1.31281e-08
2.47897e-08
1.21563e-08
2.31849e-08
1.12518e-08
2.17003e-08
1.04102e-08
2.03272e-08
9.62739e-09
1.9058e-08
8.8997e-09
1.78852e-08
8.22351e-09
1.68019e-08
7.59548e-09
1.58018e-08
7.01247e-09
1.48789e-08
6.47149e-09
1.40275e-08
5.9698e-09
1.32425e-08
5.50477e-09
1.25189e-08
5.07397e-09
1.18521e-08
4.67516e-09
1.1238e-08
4.30612e-09
1.06726e-08
3.96493e-09
1.01521e-08
3.64965e-09
9.67314e-09
3.35861e-09
9.23245e-09
3.09014e-09
8.82705e-09
2.84275e-09
8.45412e-09
2.615e-09
8.11105e-09
2.40563e-09
7.79539e-09
2.21339e-09
7.50486e-09
2.03722e-09
7.23731e-09
1.87602e-09
6.99074e-09
1.72893e-09
6.76326e-09
1.59498e-09
6.5531e-09
1.47355e-09
6.35861e-09
1.36364e-09
6.17815e-09
1.2653e-09
6.01033e-09
1.17641e-09
5.85347e-09
1.09988e-09
5.70671e-09
1.02847e-09
5.56776e-09
9.74646e-10
5.43689e-09
9.16352e-10
5.31041e-09
8.88002e-10
5.19084e-09
8.35388e-10
5.07136e-09
8.40946e-10
4.95878e-09
7.8332e-10
4.84082e-09
8.33729e-10
4.73115e-09
7.5861e-10
4.61001e-09
8.60045e-10
4.49741e-09
7.74925e-10
4.37002e-09
9.07442e-10
4.25022e-09
8.21396e-10
4.11276e-09
9.81991e-10
3.98369e-09
8.81729e-10
3.83417e-09
1.07143e-09
3.69739e-09
9.30412e-10
3.53786e-09
1.14747e-09
3.40182e-09
9.19709e-10
3.24196e-09
1.15635e-09
3.12551e-09
7.77795e-10
2.98685e-09
1.01366e-09
2.91673e-09
4.50965e-10
2.83163e-09
6.41337e-10
2.81321e-09
8.77665e-11
2.7897e-09
2.11111e-10
2.85665e-09
-5.05568e-10
2.92185e-09
-4.16226e-10
3.03532e-09
-8.2752e-10
3.14342e-09
-7.24661e-10
3.27737e-09
-9.65414e-10
3.40124e-09
-8.42689e-10
3.53619e-09
-9.67044e-10
3.6579e-09
-8.33861e-10
3.78231e-09
-8.88485e-10
3.89267e-09
-7.59203e-10
4.00204e-09
-7.79511e-10
4.09863e-09
-6.65731e-10
4.19346e-09
-6.75354e-10
4.27891e-09
-5.88812e-10
4.36373e-09
-6.04662e-10
4.44838e-09
-5.82211e-10
4.53566e-09
-6.2168e-10
4.67948e-09
-1.00639e-09
4.84854e-09
-1.17936e-09
6.38688e-09
-1.74289e-08
-1.7525e-08
6.75981e-06
3.09572e-06
6.39287e-06
2.93957e-06
6.04452e-06
2.79069e-06
5.71388e-06
2.6488e-06
5.40012e-06
2.51357e-06
5.10244e-06
2.38474e-06
4.82009e-06
2.262e-06
4.55232e-06
2.14513e-06
4.29845e-06
2.03383e-06
4.0578e-06
1.92789e-06
3.82974e-06
1.82705e-06
3.61366e-06
1.73111e-06
3.40897e-06
1.63982e-06
3.21512e-06
1.55301e-06
3.03158e-06
1.47044e-06
2.85783e-06
1.39196e-06
2.6934e-06
1.31735e-06
2.53782e-06
1.24646e-06
2.39064e-06
1.1791e-06
2.25145e-06
1.11512e-06
2.11985e-06
1.05436e-06
1.99544e-06
9.96682e-07
1.87787e-06
9.41922e-07
1.76679e-06
8.89965e-07
1.66186e-06
8.40662e-07
1.56277e-06
7.93903e-07
1.46921e-06
7.49552e-07
1.3809e-06
7.0751e-07
1.29757e-06
6.67653e-07
1.21895e-06
6.29889e-07
1.14479e-06
5.94104e-07
1.07487e-06
5.60214e-07
1.00895e-06
5.28116e-07
9.46831e-07
4.97732e-07
8.88297e-07
4.6897e-07
8.33161e-07
4.41757e-07
7.81238e-07
4.16009e-07
7.32354e-07
3.9166e-07
6.86345e-07
3.68633e-07
6.43052e-07
3.46869e-07
6.02327e-07
3.26297e-07
5.64027e-07
3.06863e-07
5.28019e-07
2.88503e-07
4.94175e-07
2.71168e-07
4.62374e-07
2.548e-07
4.32501e-07
2.39353e-07
4.04448e-07
2.24776e-07
3.7811e-07
2.11027e-07
3.53391e-07
1.98059e-07
3.30198e-07
1.85834e-07
3.08444e-07
1.74311e-07
2.88044e-07
1.63453e-07
2.68921e-07
1.53225e-07
2.51e-07
1.43593e-07
2.34212e-07
1.34524e-07
2.18488e-07
1.25989e-07
2.03767e-07
1.17957e-07
1.89988e-07
1.10403e-07
1.77097e-07
1.03299e-07
1.65038e-07
9.66214e-08
1.53763e-07
9.03452e-08
1.43224e-07
8.4449e-08
1.33376e-07
7.89109e-08
1.24178e-07
7.37113e-08
1.15588e-07
6.88306e-08
1.0757e-07
6.42512e-08
1.00087e-07
5.99554e-08
9.3108e-08
5.59274e-08
8.65999e-08
5.21513e-08
8.05334e-08
4.86129e-08
7.48806e-08
4.52981e-08
6.96151e-08
4.2194e-08
6.47124e-08