/*--------------------------------*- C++ -*----------------------------------*\
| =========                 |                                                 |
| \\      /  F ield         | OpenFOAM: The Open Source CFD Toolbox           |
|  \\    /   O peration     | Version:  v1912                                 |
|   \\  /    A nd           | Website:  www.openfoam.com                      |
|    \\/     M anipulation  |                                                 |
\*---------------------------------------------------------------------------*/
FoamFile
{
    version     2.0;
    format      ascii;
    class       volScalarField;
    location    "100";
    object      nut;
}
// * * * * * * * * * * * * * * * * * * * * * * * * * * * * * * * * * * * * * //

dimensions      [0 2 -1 0 0 0 0];


internalField   nonuniform List<scalar> 
14268
(
5.98559e-05
5.98893e-05
5.99244e-05
5.99581e-05
5.99904e-05
6.00224e-05
6.00555e-05
6.00945e-05
6.01413e-05
6.01919e-05
6.02435e-05
6.02986e-05
6.03532e-05
6.04136e-05
6.04761e-05
6.05433e-05
6.06372e-05
6.07594e-05
6.0903e-05
6.10582e-05
6.12129e-05
6.13634e-05
6.15042e-05
6.16313e-05
6.17424e-05
6.18344e-05
6.19002e-05
6.19356e-05
6.19443e-05
6.19174e-05
6.18447e-05
6.1806e-05
6.17943e-05
6.18014e-05
6.18419e-05
6.19065e-05
6.19868e-05
6.21047e-05
6.22598e-05
6.24668e-05
6.27141e-05
6.29423e-05
6.31218e-05
6.32646e-05
6.33779e-05
6.34673e-05
6.35405e-05
6.36052e-05
6.36664e-05
6.37365e-05
6.382e-05
6.39241e-05
6.4056e-05
6.42233e-05
6.4434e-05
6.469e-05
6.49854e-05
6.53138e-05
6.56452e-05
6.59319e-05
6.61811e-05
6.63935e-05
6.65812e-05
6.67543e-05
6.69123e-05
6.70697e-05
6.72142e-05
6.73468e-05
6.74668e-05
6.75729e-05
6.76656e-05
6.77533e-05
6.78363e-05
6.79174e-05
6.8003e-05
6.80935e-05
6.81857e-05
6.82788e-05
6.83818e-05
6.84869e-05
6.86046e-05
6.87327e-05
6.88843e-05
6.90739e-05
6.94452e-05
6.98726e-05
1.82e-06
1.78565e-06
1.75221e-06
1.71964e-06
1.68852e-06
1.65849e-06
1.6297e-06
1.60222e-06
1.57646e-06
1.55319e-06
1.53343e-06
1.51837e-06
1.50926e-06
1.50629e-06
1.512e-06
1.52718e-06
1.54951e-06
1.57816e-06
1.61258e-06
1.65228e-06
1.69597e-06
1.74122e-06
1.78656e-06
1.83061e-06
1.87172e-06
1.90836e-06
1.9392e-06
1.9633e-06
1.98038e-06
1.99113e-06
1.99736e-06
2.00101e-06
2.00561e-06
2.01389e-06
2.02788e-06
2.0461e-06
2.07146e-06
2.10732e-06
2.15387e-06
2.20965e-06
2.27264e-06
2.33504e-06
2.39264e-06
2.44662e-06
2.49639e-06
2.53981e-06
2.57606e-06
2.60344e-06
2.62344e-06
2.6399e-06
2.6547e-06
2.66903e-06
2.68441e-06
2.70228e-06
2.72511e-06
2.75469e-06
2.79138e-06
2.83486e-06
2.88433e-06
2.93862e-06
2.99321e-06
3.0468e-06
3.10234e-06
3.16065e-06
3.22172e-06
3.28603e-06
3.34975e-06
3.41006e-06
3.46807e-06
3.52236e-06
3.57384e-06
3.62567e-06
3.67864e-06
3.73254e-06
3.78846e-06
3.84805e-06
3.89265e-06
3.91135e-06
3.92391e-06
3.93889e-06
3.9684e-06
4.01569e-06
4.09332e-06
4.19543e-06
4.41906e-06
4.94678e-06
5.47794e-07
5.4056e-07
5.33568e-07
5.26829e-07
5.20497e-07
5.14472e-07
5.08801e-07
5.03487e-07
4.98613e-07
4.94336e-07
4.90879e-07
4.8842e-07
4.87196e-07
4.87264e-07
4.89059e-07
4.92786e-07
4.98132e-07
5.05e-07
5.13283e-07
5.22892e-07
5.33601e-07
5.4478e-07
5.55804e-07
5.66427e-07
5.76289e-07
5.85069e-07
5.92464e-07
5.982e-07
6.02127e-07
6.04359e-07
6.0537e-07
6.05662e-07
6.06281e-07
6.08036e-07
6.11359e-07
6.15757e-07
6.21956e-07
6.30662e-07
6.42054e-07
6.5564e-07
6.70874e-07
6.85916e-07
6.99662e-07
7.12071e-07
7.2315e-07
7.32686e-07
7.40469e-07
7.45074e-07
7.48361e-07
7.50714e-07
7.52328e-07
7.54215e-07
7.56696e-07
7.60032e-07
7.64812e-07
7.71401e-07
7.79796e-07
7.89705e-07
8.00804e-07
8.12965e-07
8.25576e-07
8.37898e-07
8.50579e-07
8.63855e-07
8.77751e-07
8.92345e-07
9.0703e-07
9.21114e-07
9.34769e-07
9.47565e-07
9.59714e-07
9.71793e-07
9.8431e-07
9.97048e-07
1.01e-06
1.02342e-06
1.03279e-06
1.03611e-06
1.03787e-06
1.04025e-06
1.04595e-06
1.05562e-06
1.07178e-06
1.09377e-06
1.1377e-06
1.23136e-06
3.22216e-07
3.20397e-07
3.18631e-07
3.16945e-07
3.15462e-07
3.14055e-07
3.12786e-07
3.11629e-07
3.10606e-07
3.09768e-07
3.09171e-07
3.08826e-07
3.0876e-07
3.0899e-07
3.09619e-07
3.10713e-07
3.12188e-07
3.14082e-07
3.16382e-07
3.19075e-07
3.22132e-07
3.25451e-07
3.28753e-07
3.31942e-07
3.34936e-07
3.37646e-07
3.39976e-07
3.41825e-07
3.43122e-07
3.43879e-07
3.44223e-07
3.4418e-07
3.44289e-07
3.44716e-07
3.45693e-07
3.47081e-07
3.48939e-07
3.51636e-07
3.55208e-07
3.59576e-07
3.64584e-07
3.69592e-07
3.74187e-07
3.7835e-07
3.82105e-07
3.85415e-07
3.88008e-07
3.89655e-07
3.90789e-07
3.91595e-07
3.92216e-07
3.93002e-07
3.93906e-07
3.95029e-07
3.96584e-07
3.98719e-07
4.01449e-07
4.04736e-07
4.08525e-07
4.12739e-07
4.17125e-07
4.21378e-07
4.25735e-07
4.30332e-07
4.35222e-07
4.40374e-07
4.45613e-07
4.50602e-07
4.55326e-07
4.5968e-07
4.63866e-07
4.6801e-07
4.72279e-07
4.76658e-07
4.8125e-07
4.86155e-07
4.89289e-07
4.90109e-07
4.90445e-07
4.91057e-07
4.92956e-07
4.96358e-07
5.02184e-07
5.09985e-07
5.24291e-07
5.5332e-07
2.6799e-07
2.67874e-07
2.6777e-07
2.67703e-07
2.67698e-07
2.67727e-07
2.67796e-07
2.67905e-07
2.6806e-07
2.6828e-07
2.68566e-07
2.68887e-07
2.69205e-07
2.69511e-07
2.69812e-07
2.70126e-07
2.70449e-07
2.70859e-07
2.71377e-07
2.71994e-07
2.72712e-07
2.7349e-07
2.743e-07
2.75098e-07
2.75859e-07
2.7658e-07
2.77232e-07
2.77772e-07
2.78165e-07
2.78424e-07
2.78469e-07
2.78274e-07
2.78184e-07
2.78229e-07
2.78403e-07
2.78822e-07
2.79389e-07
2.80218e-07
2.8134e-07
2.82706e-07
2.84255e-07
2.85917e-07
2.87521e-07
2.88973e-07
2.90251e-07
2.91341e-07
2.92203e-07
2.92817e-07
2.93276e-07
2.93548e-07
2.93727e-07
2.93993e-07
2.94335e-07
2.94802e-07
2.95442e-07
2.96305e-07
2.97402e-07
2.98708e-07
3.0018e-07
3.01794e-07
3.0345e-07
3.05095e-07
3.06781e-07
3.08546e-07
3.10403e-07
3.12328e-07
3.14322e-07
3.16261e-07
3.18095e-07
3.19817e-07
3.21374e-07
3.23017e-07
3.2476e-07
3.26499e-07
3.28295e-07
3.3024e-07
3.31495e-07
3.31744e-07
3.31752e-07
3.31923e-07
3.32701e-07
3.3412e-07
3.36696e-07
3.40041e-07
3.45837e-07
3.5571e-07
2.52846e-07
2.53447e-07
2.53907e-07
2.54374e-07
2.54883e-07
2.55382e-07
2.55898e-07
2.56413e-07
2.5694e-07
2.57477e-07
2.58025e-07
2.5855e-07
2.59007e-07
2.59377e-07
2.59651e-07
2.598e-07
2.59833e-07
2.59866e-07
2.59909e-07
2.59958e-07
2.60014e-07
2.60055e-07
2.60086e-07
2.6012e-07
2.60174e-07
2.60254e-07
2.6035e-07
2.60443e-07
2.6052e-07
2.60537e-07
2.60442e-07
2.60265e-07
2.60079e-07
2.59964e-07
2.5993e-07
2.59958e-07
2.60042e-07
2.60216e-07
2.60477e-07
2.60812e-07
2.61208e-07
2.61643e-07
2.62149e-07
2.62597e-07
2.62984e-07
2.63317e-07
2.636e-07
2.63832e-07
2.64056e-07
2.64304e-07
2.64554e-07
2.64778e-07
2.6503e-07
2.65351e-07
2.65709e-07
2.66131e-07
2.66641e-07
2.67259e-07
2.67973e-07
2.68712e-07
2.69366e-07
2.70033e-07
2.7075e-07
2.71526e-07
2.72351e-07
2.73188e-07
2.74054e-07
2.7483e-07
2.75455e-07
2.76016e-07
2.76518e-07
2.77037e-07
2.77674e-07
2.7838e-07
2.79205e-07
2.80103e-07
2.80551e-07
2.80524e-07
2.80473e-07
2.80565e-07
2.81076e-07
2.81853e-07
2.83241e-07
2.85004e-07
2.88025e-07
2.9191e-07
2.47631e-07
2.48381e-07
2.48961e-07
2.4952e-07
2.50085e-07
2.5063e-07
2.51174e-07
2.51722e-07
2.52285e-07
2.52846e-07
2.53395e-07
2.53907e-07
2.54352e-07
2.54713e-07
2.54958e-07
2.55045e-07
2.55018e-07
2.55009e-07
2.55035e-07
2.55069e-07
2.55102e-07
2.5511e-07
2.55075e-07
2.55034e-07
2.55001e-07
2.54989e-07
2.54991e-07
2.54992e-07
2.54979e-07
2.54936e-07
2.54848e-07
2.54702e-07
2.54544e-07
2.5442e-07
2.54335e-07
2.54288e-07
2.54282e-07
2.54317e-07
2.54375e-07
2.54426e-07
2.54478e-07
2.54543e-07
2.5463e-07
2.54648e-07
2.54658e-07
2.54732e-07
2.5487e-07
2.55036e-07
2.55192e-07
2.55313e-07
2.55444e-07
2.55577e-07
2.5576e-07
2.56021e-07
2.56311e-07
2.56624e-07
2.56962e-07
2.57349e-07
2.57731e-07
2.58006e-07
2.58274e-07
2.5855e-07
2.58803e-07
2.59102e-07
2.59443e-07
2.59761e-07
2.60122e-07
2.60418e-07
2.60633e-07
2.60764e-07
2.60805e-07
2.60999e-07
2.61332e-07
2.61669e-07
2.62003e-07
2.62355e-07
2.62474e-07
2.62385e-07
2.62338e-07
2.62426e-07
2.62791e-07
2.63336e-07
2.64401e-07
2.65472e-07
2.6724e-07
2.69015e-07
2.42334e-07
2.43054e-07
2.43561e-07
2.44037e-07
2.44511e-07
2.44972e-07
2.45454e-07
2.45922e-07
2.46359e-07
2.4677e-07
2.47171e-07
2.4755e-07
2.47914e-07
2.48274e-07
2.48565e-07
2.48823e-07
2.48986e-07
2.49185e-07
2.49468e-07
2.49796e-07
2.50142e-07
2.50469e-07
2.50738e-07
2.50966e-07
2.51166e-07
2.51339e-07
2.51482e-07
2.51593e-07
2.51665e-07
2.5169e-07
2.51652e-07
2.5159e-07
2.51537e-07
2.51517e-07
2.51526e-07
2.5155e-07
2.51595e-07
2.5167e-07
2.51759e-07
2.51819e-07
2.51892e-07
2.51965e-07
2.51935e-07
2.51813e-07
2.51768e-07
2.51872e-07
2.52088e-07
2.52328e-07
2.52533e-07
2.52649e-07
2.52733e-07
2.52835e-07
2.53013e-07
2.53277e-07
2.53584e-07
2.53929e-07
2.54276e-07
2.54601e-07
2.54825e-07
2.54922e-07
2.54969e-07
2.55162e-07
2.55343e-07
2.55492e-07
2.55697e-07
2.55885e-07
2.56121e-07
2.56176e-07
2.56062e-07
2.55849e-07
2.55625e-07
2.55483e-07
2.55477e-07
2.5559e-07
2.55794e-07
2.55968e-07
2.55861e-07
2.55623e-07
2.5553e-07
2.55602e-07
2.56004e-07
2.56485e-07
2.57376e-07
2.58533e-07
2.6003e-07
2.6159e-07
2.3373e-07
2.34144e-07
2.34321e-07
2.34408e-07
2.34496e-07
2.34506e-07
2.34585e-07
2.34548e-07
2.34405e-07
2.34225e-07
2.34085e-07
2.34057e-07
2.3413e-07
2.3428e-07
2.34602e-07
2.35053e-07
2.35647e-07
2.36528e-07
2.37656e-07
2.38962e-07
2.40321e-07
2.41656e-07
2.4289e-07
2.43996e-07
2.44941e-07
2.4572e-07
2.46306e-07
2.4678e-07
2.47153e-07
2.47392e-07
2.47553e-07
2.47676e-07
2.47797e-07
2.47953e-07
2.4816e-07
2.48384e-07
2.48631e-07
2.48919e-07
2.49217e-07
2.49453e-07
2.49746e-07
2.50011e-07
2.5002e-07
2.49916e-07
2.49921e-07
2.50041e-07
2.50211e-07
2.5043e-07
2.50689e-07
2.50877e-07
2.51021e-07
2.5112e-07
2.51325e-07
2.51684e-07
2.52089e-07
2.52481e-07
2.52821e-07
2.53081e-07
2.53163e-07
2.53279e-07
2.53227e-07
2.53166e-07
2.53308e-07
2.53583e-07
2.5381e-07
2.53773e-07
2.5374e-07
2.53627e-07
2.53409e-07
2.53101e-07
2.52917e-07
2.52857e-07
2.52903e-07
2.52947e-07
2.52981e-07
2.52945e-07
2.52651e-07
2.52314e-07
2.52154e-07
2.5223e-07
2.52664e-07
2.53193e-07
2.54099e-07
2.55063e-07
2.56401e-07
2.5737e-07
2.11747e-07
2.11688e-07
2.11361e-07
2.10707e-07
2.09544e-07
2.08223e-07
2.0698e-07
2.05638e-07
2.04307e-07
2.02956e-07
2.01601e-07
2.00451e-07
1.99697e-07
1.9937e-07
1.99808e-07
2.01126e-07
2.03348e-07
2.06457e-07
2.10123e-07
2.14078e-07
2.18065e-07
2.21889e-07
2.25411e-07
2.28548e-07
2.31255e-07
2.33507e-07
2.35303e-07
2.36707e-07
2.37805e-07
2.38638e-07
2.39353e-07
2.39873e-07
2.40398e-07
2.40951e-07
2.41503e-07
2.42075e-07
2.42724e-07
2.43551e-07
2.44391e-07
2.45103e-07
2.45932e-07
2.46652e-07
2.47101e-07
2.47371e-07
2.47577e-07
2.47717e-07
2.47833e-07
2.47978e-07
2.48107e-07
2.48166e-07
2.48196e-07
2.48295e-07
2.48612e-07
2.49115e-07
2.49671e-07
2.50271e-07
2.50741e-07
2.51024e-07
2.51078e-07
2.51168e-07
2.51375e-07
2.51472e-07
2.51485e-07
2.51709e-07
2.52066e-07
2.52273e-07
2.52454e-07
2.52346e-07
2.52116e-07
2.51851e-07
2.51383e-07
2.51103e-07
2.51037e-07
2.51056e-07
2.51125e-07
2.51059e-07
2.50691e-07
2.5024e-07
2.50036e-07
2.50071e-07
2.50382e-07
2.50961e-07
2.51955e-07
2.53256e-07
2.5465e-07
2.5596e-07
1.88045e-07
1.83577e-07
1.7846e-07
1.73383e-07
1.6803e-07
1.62448e-07
1.57372e-07
1.51823e-07
1.45595e-07
1.39365e-07
1.33704e-07
1.29209e-07
1.26113e-07
1.24462e-07
1.24409e-07
1.26876e-07
1.32295e-07
1.40313e-07
1.49807e-07
1.60064e-07
1.70535e-07
1.80226e-07
1.89095e-07
1.96826e-07
2.03324e-07
2.08661e-07
2.12978e-07
2.16402e-07
2.19112e-07
2.21282e-07
2.23043e-07
2.24567e-07
2.25968e-07
2.27288e-07
2.28456e-07
2.29577e-07
2.30792e-07
2.32258e-07
2.34004e-07
2.35767e-07
2.3739e-07
2.38866e-07
2.40111e-07
2.4114e-07
2.42002e-07
2.42653e-07
2.43455e-07
2.44009e-07
2.4434e-07
2.44437e-07
2.44309e-07
2.44244e-07
2.44618e-07
2.4525e-07
2.45938e-07
2.46688e-07
2.47276e-07
2.47725e-07
2.48092e-07
2.48292e-07
2.48461e-07
2.49077e-07
2.49816e-07
2.50318e-07
2.50542e-07
2.50615e-07
2.50707e-07
2.50896e-07
2.50671e-07
2.50153e-07
2.49869e-07
2.49706e-07
2.49662e-07
2.49626e-07
2.49505e-07
2.49145e-07
2.48636e-07
2.482e-07
2.47994e-07
2.4802e-07
2.48405e-07
2.48835e-07
2.49768e-07
2.50951e-07
2.52255e-07
2.53312e-07
1.72879e-07
1.57385e-07
1.43161e-07
1.29234e-07
1.15219e-07
1.0021e-07
8.45646e-08
7.14015e-08
6.12207e-08
5.38275e-08
4.84244e-08
4.42886e-08
4.10813e-08
3.86205e-08
3.70125e-08
3.6534e-08
4.00506e-08
4.90245e-08
5.87487e-08
6.89152e-08
8.16394e-08
9.79702e-08
1.16645e-07
1.34855e-07
1.50292e-07
1.62288e-07
1.71736e-07
1.79141e-07
1.84941e-07
1.89654e-07
1.93641e-07
1.9699e-07
1.99789e-07
2.02243e-07
2.04609e-07
2.07061e-07
2.09767e-07
2.12732e-07
2.15988e-07
2.19511e-07
2.23087e-07
2.26243e-07
2.28773e-07
2.30597e-07
2.32006e-07
2.33399e-07
2.34237e-07
2.34913e-07
2.35282e-07
2.35275e-07
2.35176e-07
2.35167e-07
2.35482e-07
2.36222e-07
2.37369e-07
2.38819e-07
2.3997e-07
2.40966e-07
2.42003e-07
2.43259e-07
2.44194e-07
2.44866e-07
2.4571e-07
2.46839e-07
2.4797e-07
2.48608e-07
2.48716e-07
2.48306e-07
2.47765e-07
2.47616e-07
2.47602e-07
2.47494e-07
2.47459e-07
2.47424e-07
2.47356e-07
2.46996e-07
2.46397e-07
2.45697e-07
2.45416e-07
2.45445e-07
2.45815e-07
2.46728e-07
2.48042e-07
2.49374e-07
2.506e-07
2.51562e-07
2.46386e-07
2.03203e-07
1.68954e-07
1.38548e-07
1.10815e-07
8.72852e-08
6.75359e-08
5.28579e-08
4.20014e-08
3.43569e-08
2.89317e-08
2.48837e-08
2.16298e-08
1.90815e-08
1.7204e-08
1.59877e-08
1.5362e-08
1.52373e-08
1.60048e-08
1.75592e-08
2.00759e-08
2.37929e-08
3.04417e-08
4.55987e-08
6.36498e-08
8.33068e-08
1.01577e-07
1.16875e-07
1.28585e-07
1.38026e-07
1.45749e-07
1.52162e-07
1.57567e-07
1.6227e-07
1.6668e-07
1.71059e-07
1.75774e-07
1.81007e-07
1.86657e-07
1.92604e-07
1.98578e-07
2.04155e-07
2.08951e-07
2.1271e-07
2.15373e-07
2.16972e-07
2.18055e-07
2.18835e-07
2.19011e-07
2.18782e-07
2.18156e-07
2.18091e-07
2.18693e-07
2.19855e-07
2.21498e-07
2.23729e-07
2.26732e-07
2.30145e-07
2.33305e-07
2.35551e-07
2.37794e-07
2.39654e-07
2.40738e-07
2.41665e-07
2.42622e-07
2.43508e-07
2.44395e-07
2.45239e-07
2.46059e-07
2.4599e-07
2.4564e-07
2.45162e-07
2.44886e-07
2.44663e-07
2.44327e-07
2.43869e-07
2.43316e-07
2.42915e-07
2.42747e-07
2.42907e-07
2.43766e-07
2.44547e-07
2.45509e-07
2.46505e-07
2.4747e-07
2.48226e-07
3.56551e-07
2.706e-07
2.03148e-07
1.49563e-07
1.08485e-07
7.6949e-08
5.49876e-08
3.94828e-08
2.9992e-08
2.41102e-08
2.0284e-08
1.69197e-08
1.42236e-08
1.23243e-08
1.10552e-08
1.01889e-08
9.61323e-09
9.25197e-09
8.80302e-09
8.55543e-09
8.56341e-09
8.6905e-09
9.05192e-09
1.02895e-08
1.25407e-08
1.85323e-08
2.64184e-08
3.75165e-08
5.07376e-08
6.40431e-08
7.62975e-08
8.70938e-08
9.63426e-08
1.04255e-07
1.1138e-07
1.18228e-07
1.25151e-07
1.32624e-07
1.40888e-07
1.49744e-07
1.58558e-07
1.66682e-07
1.73782e-07
1.79781e-07
1.84486e-07
1.87782e-07
1.90147e-07
1.91637e-07
1.92188e-07
1.91928e-07
1.91073e-07
1.9069e-07
1.91571e-07
1.93872e-07
1.97569e-07
2.02753e-07
2.09326e-07
2.1645e-07
2.22478e-07
2.27629e-07
2.30904e-07
2.33587e-07
2.36238e-07
2.38471e-07
2.39954e-07
2.40857e-07
2.41393e-07
2.41754e-07
2.4187e-07
2.42102e-07
2.42302e-07
2.42216e-07
2.42084e-07
2.41941e-07
2.41768e-07
2.41542e-07
2.40966e-07
2.40425e-07
2.40248e-07
2.40481e-07
2.41226e-07
2.42437e-07
2.44106e-07
2.45782e-07
2.47129e-07
2.47832e-07
2.70077e-07
1.92957e-07
1.38212e-07
9.89404e-08
7.18994e-08
5.00941e-08
3.61209e-08
2.46845e-08
1.69644e-08
1.10652e-08
7.02322e-09
4.18289e-09
2.85994e-09
1.81555e-09
9.76381e-10
2.30557e-11
6.57638e-10
1.99094e-09
3.69694e-09
5.05313e-09
6.07122e-09
6.94868e-09
6.86141e-09
6.45439e-09
5.42004e-09
5.31001e-09
5.8719e-09
7.54269e-09
1.05441e-08
1.59212e-08
2.35704e-08
3.26565e-08
4.22195e-08
5.16339e-08
6.06134e-08
6.93231e-08
7.80185e-08
8.69697e-08
9.65105e-08
1.06716e-07
1.17087e-07
1.26952e-07
1.35792e-07
1.43385e-07
1.49638e-07
1.54526e-07
1.58061e-07
1.60697e-07
1.62403e-07
1.63107e-07
1.62895e-07
1.63037e-07
1.64811e-07
1.68402e-07
1.73827e-07
1.81175e-07
1.90642e-07
2.00853e-07
2.10194e-07
2.18785e-07
2.25614e-07
2.30847e-07
2.34837e-07
2.36902e-07
2.37899e-07
2.38378e-07
2.38468e-07
2.38437e-07
2.3881e-07
2.39246e-07
2.39902e-07
2.40467e-07
2.40689e-07
2.40402e-07
2.39674e-07
2.38674e-07
2.37459e-07
2.36397e-07
2.36034e-07
2.36214e-07
2.36909e-07
2.38555e-07
2.40655e-07
2.42549e-07
2.44292e-07
2.45711e-07
2.25614e-07
1.67857e-07
1.22773e-07
8.53612e-08
5.84384e-08
3.71648e-08
2.32089e-08
1.35861e-08
8.08522e-09
4.44763e-09
2.18238e-09
4.06894e-10
4.25372e-11
3.22159e-11
1.9417e-11
3.0411e-12
6.09401e-12
1.6463e-11
5.04458e-11
2.11681e-10
7.78863e-10
1.75747e-09
3.23855e-09
4.67218e-09
5.31249e-09
4.71113e-09
3.83102e-09
3.80026e-09
4.39364e-09
6.01596e-09
8.98858e-09
1.37718e-08
2.00367e-08
2.70396e-08
3.44746e-08
4.2205e-08
5.03199e-08
5.92464e-08
6.90812e-08
7.96103e-08
9.03845e-08
1.00868e-07
1.10675e-07
1.19441e-07
1.26959e-07
1.33106e-07
1.38048e-07
1.4196e-07
1.44962e-07
1.46932e-07
1.47821e-07
1.48701e-07
1.51023e-07
1.55108e-07
1.60927e-07
1.68651e-07
1.78389e-07
1.89284e-07
2.00374e-07
2.10324e-07
2.18547e-07
2.25285e-07
2.3109e-07
2.35019e-07
2.37117e-07
2.38329e-07
2.38924e-07
2.38897e-07
2.3899e-07
2.39249e-07
2.40201e-07
2.406e-07
2.4056e-07
2.40203e-07
2.39417e-07
2.38228e-07
2.36611e-07
2.35036e-07
2.34381e-07
2.34342e-07
2.35057e-07
2.36658e-07
2.38525e-07
2.40326e-07
2.42057e-07
2.43819e-07
2.34686e-07
1.70281e-07
1.16797e-07
7.66428e-08
4.88631e-08
2.83312e-08
1.53047e-08
4.79846e-09
4.27057e-10
1.58207e-10
4.86485e-11
4.91542e-12
1.07226e-12
1.82525e-12
1.54233e-12
1.55167e-12
2.15575e-12
1.75807e-12
6.91841e-13
5.76035e-13
1.46153e-11
7.75616e-11
3.7403e-10
1.31344e-09
2.57752e-09
3.51167e-09
3.76585e-09
3.18193e-09
2.6449e-09
2.82421e-09
3.36646e-09
5.05727e-09
7.82114e-09
1.17371e-08
1.65754e-08
2.20884e-08
2.82368e-08
3.51292e-08
4.31082e-08
5.26557e-08
6.33248e-08
7.39658e-08
8.41549e-08
9.36901e-08
1.02483e-07
1.10361e-07
1.16856e-07
1.22145e-07
1.26515e-07
1.29963e-07
1.3231e-07
1.3431e-07
1.37423e-07
1.41978e-07
1.48038e-07
1.55742e-07
1.65297e-07
1.76107e-07
1.87781e-07
1.99259e-07
2.09281e-07
2.17641e-07
2.24755e-07
2.30192e-07
2.33758e-07
2.36018e-07
2.37597e-07
2.38521e-07
2.3883e-07
2.3923e-07
2.40002e-07
2.41143e-07
2.40908e-07
2.40227e-07
2.3916e-07
2.37917e-07
2.36419e-07
2.34734e-07
2.33781e-07
2.33303e-07
2.34048e-07
2.35434e-07
2.37046e-07
2.3862e-07
2.40193e-07
2.4198e-07
2.87302e-07
2.01862e-07
1.20978e-07
6.50122e-08
1.19213e-08
2.50204e-09
8.80457e-10
1.60136e-10
3.84454e-11
1.33766e-11
3.53763e-12
5.34768e-13
1.70271e-12
7.29691e-12
1.78446e-11
3.74776e-11
5.84954e-11
6.59578e-11
5.23244e-11
2.74963e-11
8.53757e-12
1.86468e-12
4.93959e-12
4.33627e-11
4.04302e-10
1.31381e-09
1.78429e-09
2.40141e-09
2.35336e-09
1.96896e-09
1.83045e-09
2.11247e-09
2.65713e-09
4.20815e-09
6.35196e-09
9.37729e-09
1.30604e-08
1.74734e-08
2.26832e-08
2.8949e-08
3.66132e-08
4.58847e-08
5.59598e-08
6.58831e-08
7.55143e-08
8.46435e-08
9.28641e-08
9.98979e-08
1.05796e-07
1.10752e-07
1.14666e-07
1.18095e-07
1.22264e-07
1.27319e-07
1.33564e-07
1.41252e-07
1.5066e-07
1.61542e-07
1.74111e-07
1.86991e-07
1.98885e-07
2.09337e-07
2.17805e-07
2.24426e-07
2.28897e-07
2.32072e-07
2.34447e-07
2.36414e-07
2.37808e-07
2.38559e-07
2.39392e-07
2.40518e-07
2.40739e-07
2.40401e-07
2.39305e-07
2.37618e-07
2.35529e-07
2.33152e-07
2.31826e-07
2.31642e-07
2.32615e-07
2.34048e-07
2.35753e-07
2.37198e-07
2.38496e-07
2.40097e-07
3.16315e-07
1.51868e-07
2.19788e-08
5.98665e-09
1.43776e-09
3.22312e-10
9.20345e-11
1.7846e-11
6.36764e-12
1.85022e-12
1.03613e-12
5.09174e-12
1.73213e-11
5.28453e-11
1.23075e-10
2.33177e-10
3.56395e-10
4.23786e-10
3.89155e-10
2.76663e-10
1.47918e-10
6.08911e-11
1.87336e-11
4.5226e-12
8.31499e-12
8.14349e-11
3.03652e-10
7.44365e-10
1.16162e-09
1.54711e-09
1.42674e-09
1.27798e-09
1.38305e-09
1.6855e-09
2.19073e-09
3.38941e-09
4.96122e-09
7.22676e-09
1.00565e-08
1.36455e-08
1.8092e-08
2.36722e-08
3.06531e-08
3.92088e-08
4.87037e-08
5.83044e-08
6.76585e-08
7.63131e-08
8.38526e-08
9.04563e-08
9.60214e-08
1.0088e-07
1.05882e-07
1.11294e-07
1.17491e-07
1.25019e-07
1.34179e-07
1.45006e-07
1.57914e-07
1.72067e-07
1.85549e-07
1.97622e-07
2.09371e-07
2.18819e-07
2.2437e-07
2.28192e-07
2.31185e-07
2.33656e-07
2.35837e-07
2.3794e-07
2.40153e-07
2.41684e-07
2.41436e-07
2.40624e-07
2.39358e-07
2.37637e-07
2.35388e-07
2.32802e-07
2.31412e-07
2.31145e-07
2.31474e-07
2.32557e-07
2.33936e-07
2.35261e-07
2.36556e-07
2.38208e-07
6.83437e-08
1.96762e-08
5.22384e-09
9.96617e-10
2.93462e-10
7.76448e-11
2.65796e-11
6.49417e-12
1.82619e-12
5.70961e-13
5.85401e-12
4.36616e-11
1.12671e-10
2.86352e-10
6.28291e-10
1.15341e-09
1.74861e-09
2.15462e-09
2.14046e-09
1.72896e-09
1.15141e-09
6.95899e-10
4.04892e-10
2.25753e-10
1.03518e-10
4.00843e-11
2.06678e-11
4.4468e-11
1.31538e-10
4.29238e-10
7.34778e-10
9.59668e-10
9.30688e-10
9.6383e-10
1.13088e-09
1.38654e-09
1.79575e-09
2.56185e-09
3.78396e-09
5.37736e-09
7.61849e-09
1.04956e-08
1.42535e-08
1.91032e-08
2.53515e-08
3.32376e-08
4.23895e-08
5.19306e-08
6.06988e-08
6.88077e-08
7.59077e-08
8.20691e-08
8.78296e-08
9.35029e-08
9.95008e-08
1.06497e-07
1.15092e-07
1.25546e-07
1.38336e-07
1.527e-07
1.67251e-07
1.81529e-07
1.95845e-07
2.09229e-07
2.19191e-07
2.24531e-07
2.28342e-07
2.31622e-07
2.34625e-07
2.37267e-07
2.39717e-07
2.41887e-07
2.42464e-07
2.41915e-07
2.4067e-07
2.38795e-07
2.36318e-07
2.33453e-07
2.31965e-07
2.31239e-07
2.31561e-07
2.32727e-07
2.33697e-07
2.34322e-07
2.35091e-07
2.36592e-07
1.54364e-08
3.86559e-09
1.15758e-09
3.83914e-10
2.65581e-10
1.63522e-10
8.99203e-11
2.60345e-11
5.68402e-12
3.40541e-12
3.70809e-11
2.17546e-10
5.29006e-10
1.24323e-09
2.59807e-09
4.62498e-09
6.87256e-09
8.55254e-09
8.94354e-09
7.859e-09
5.76215e-09
3.78245e-09
2.38088e-09
1.44491e-09
8.35051e-10
3.82412e-10
8.67881e-11
1.56128e-11
5.49441e-12
1.67322e-11
1.36985e-10
4.08125e-10
5.03472e-10
6.50321e-10
7.17707e-10
8.00295e-10
9.40282e-10
1.15047e-09
1.46635e-09
1.94011e-09
2.79316e-09
4.02938e-09
5.6605e-09
8.0287e-09
1.11923e-08
1.54455e-08
2.11017e-08
2.84823e-08
3.72791e-08
4.63733e-08
5.46262e-08
6.20107e-08
6.85851e-08
7.45883e-08
8.04799e-08
8.69269e-08
9.45619e-08
1.04197e-07
1.16386e-07
1.30628e-07
1.45234e-07
1.59798e-07
1.7534e-07
1.91697e-07
2.07299e-07
2.18342e-07
2.24839e-07
2.29319e-07
2.32584e-07
2.35919e-07
2.39362e-07
2.4227e-07
2.43431e-07
2.43016e-07
2.41965e-07
2.40239e-07
2.3756e-07
2.3391e-07
2.31895e-07
2.31105e-07
2.31824e-07
2.33268e-07
2.34286e-07
2.34688e-07
2.34827e-07
2.36398e-07
3.37689e-09
1.09347e-09
7.38568e-10
7.65092e-10
9.6487e-10
9.30113e-10
6.18662e-10
2.15438e-10
5.81037e-11
4.39122e-11
1.98449e-10
8.91978e-10
2.15172e-09
4.82649e-09
9.4631e-09
1.55368e-08
2.12945e-08
2.55311e-08
2.69167e-08
2.48581e-08
1.99821e-08
1.45039e-08
1.00203e-08
6.72119e-09
4.49118e-09
2.66998e-09
8.66567e-10
2.12103e-10
3.89582e-11
5.39371e-12
9.77147e-13
3.42665e-11
1.5653e-10
3.03582e-10
3.47786e-10
4.74593e-10
5.83142e-10
6.72095e-10
7.8129e-10
9.53724e-10
1.19205e-09
1.53874e-09
2.01987e-09
2.86424e-09
4.25439e-09
6.08338e-09
8.81143e-09
1.26503e-08
1.77553e-08
2.43681e-08
3.21942e-08
4.02635e-08
4.76244e-08
5.40582e-08
5.99738e-08
6.59906e-08
7.28109e-08
8.12263e-08
9.18221e-08
1.04758e-07
1.18857e-07
1.33377e-07
1.49031e-07
1.66187e-07
1.85299e-07
2.02928e-07
2.15758e-07
2.2474e-07
2.31077e-07
2.36416e-07
2.41491e-07
2.45813e-07
2.47646e-07
2.48119e-07
2.47122e-07
2.44663e-07
2.40964e-07
2.36781e-07
2.34391e-07
2.33482e-07
2.33557e-07
2.34466e-07
2.35247e-07
2.35361e-07
2.34595e-07
2.3565e-07
1.08846e-09
1.02434e-09
1.57214e-09
2.89151e-09
4.16417e-09
4.25352e-09
2.9679e-09
1.14617e-09
3.8051e-10
3.21344e-10
9.13016e-10
3.20349e-09
7.6423e-09
1.61126e-08
2.82567e-08
4.14757e-08
5.31692e-08
6.22035e-08
6.59283e-08
6.27056e-08
5.34693e-08
4.20125e-08
3.21916e-08
2.41612e-08
1.81752e-08
1.32518e-08
6.71686e-09
2.73446e-09
1.10095e-09
3.84819e-10
1.05649e-10
2.30855e-11
1.64057e-11
3.9356e-11
8.61739e-11
1.80332e-10
2.42642e-10
3.40087e-10
4.665e-10
5.72193e-10
6.72971e-10
8.01273e-10
9.82802e-10
1.23374e-09
1.60394e-09
2.16096e-09
2.98658e-09
4.74205e-09
6.94665e-09
1.01473e-08
1.44411e-08
1.96424e-08
2.56649e-08
3.20369e-08
3.81939e-08
4.42057e-08
5.04161e-08
5.75919e-08
6.6262e-08
7.69324e-08
8.93643e-08
1.02864e-07
1.17994e-07
1.34835e-07
1.54499e-07
1.77389e-07
1.97026e-07
2.12773e-07
2.25054e-07
2.3453e-07
2.42244e-07
2.48736e-07
2.52584e-07
2.54071e-07
2.53662e-07
2.51853e-07
2.48503e-07
2.43459e-07
2.39582e-07
2.3808e-07
2.37747e-07
2.38358e-07
2.38975e-07
2.38812e-07
2.37241e-07
2.375e-07
1.18898e-09
2.3828e-09
5.31306e-09
1.03279e-08
1.41818e-08
1.4687e-08
1.04892e-08
4.33607e-09
1.66689e-09
1.53906e-09
3.46885e-09
9.8716e-09
2.23112e-08
4.22088e-08
6.46266e-08
8.63471e-08
1.04075e-07
1.1751e-07
1.23374e-07
1.19754e-07
1.07581e-07
9.04345e-08
7.50695e-08
6.16101e-08
5.04976e-08
4.12001e-08
2.63744e-08
1.45495e-08
7.73879e-09
3.55674e-09
1.60055e-09
6.63008e-10
2.39229e-10
7.03405e-11
2.66731e-11
2.52005e-11
4.44035e-11
1.05657e-10
1.78934e-10
2.41494e-10
3.60401e-10
5.03767e-10
6.355e-10
7.49932e-10
8.96109e-10
1.11863e-09
1.44339e-09
1.92093e-09
2.63309e-09
3.63864e-09
5.62885e-09
8.0232e-09
1.10533e-08
1.47847e-08
1.89162e-08
2.36898e-08
2.92913e-08
3.57041e-08
4.29954e-08
5.12863e-08
6.1159e-08
7.24607e-08
8.57601e-08
1.01361e-07
1.20049e-07
1.43858e-07
1.69067e-07
1.90554e-07
2.07872e-07
2.22438e-07
2.34974e-07
2.45372e-07
2.52621e-07
2.5594e-07
2.5665e-07
2.56073e-07
2.54142e-07
2.49534e-07
2.4635e-07
2.43344e-07
2.42282e-07
2.42392e-07
2.42853e-07
2.42806e-07
2.41266e-07
2.41361e-07
2.81678e-09
7.56203e-09
1.68277e-08
2.86834e-08
3.4926e-08
3.40003e-08
2.30174e-08
1.10245e-08
5.59997e-09
5.60727e-09
1.0867e-08
2.53975e-08
5.10103e-08
8.29115e-08
1.13508e-07
1.39238e-07
1.58595e-07
1.72277e-07
1.78049e-07
1.75068e-07
1.63746e-07
1.45863e-07
1.28811e-07
1.13281e-07
9.92839e-08
8.65924e-08
6.298e-08
4.10764e-08
2.68575e-08
1.55819e-08
8.2835e-09
4.23026e-09
2.05493e-09
8.94645e-10
3.1015e-10
8.25386e-11
2.61955e-11
1.92222e-11
2.72734e-11
5.13065e-11
1.13327e-10
1.76375e-10
2.62193e-10
3.98937e-10
5.56843e-10
7.2656e-10
9.13598e-10
1.1376e-09
1.45267e-09
1.88895e-09
2.46706e-09
3.27183e-09
4.32429e-09
6.01728e-09
8.16237e-09
1.05906e-08
1.37297e-08
1.78594e-08
2.31184e-08
2.96881e-08
3.74262e-08
4.63107e-08
5.70628e-08
7.03596e-08
8.69819e-08
1.08104e-07
1.3415e-07
1.60652e-07
1.83659e-07
2.01983e-07
2.17613e-07
2.31131e-07
2.41207e-07
2.47039e-07
2.50945e-07
2.52831e-07
2.53743e-07
2.51868e-07
2.48279e-07
2.44855e-07
2.42947e-07
2.42216e-07
2.42381e-07
2.42996e-07
2.4283e-07
2.44617e-07
8.10125e-09
2.13409e-08
3.75452e-08
4.96452e-08
5.72317e-08
5.45088e-08
3.70121e-08
1.97997e-08
1.34355e-08
1.54835e-08
2.72607e-08
5.37463e-08
9.07525e-08
1.28613e-07
1.59836e-07
1.83416e-07
2.00123e-07
2.11291e-07
2.162e-07
2.14677e-07
2.06314e-07
1.91742e-07
1.76815e-07
1.63232e-07
1.5069e-07
1.37888e-07
1.10849e-07
8.27819e-08
6.24418e-08
4.42289e-08
2.9008e-08
1.83672e-08
1.12725e-08
6.22556e-09
2.7858e-09
9.7119e-10
3.16159e-10
9.24147e-11
3.19342e-11
1.61756e-11
1.52194e-11
1.81079e-11
3.37465e-11
1.02086e-10
2.28073e-10
3.49446e-10
5.05969e-10
7.49446e-10
9.96482e-10
1.25417e-09
1.55702e-09
1.92602e-09
2.43301e-09
3.05185e-09
3.7932e-09
4.72648e-09
5.92319e-09
7.87919e-09
1.0483e-08
1.37914e-08
1.85016e-08
2.5222e-08
3.40151e-08
4.46909e-08
5.79196e-08
7.53935e-08
9.75666e-08
1.2349e-07
1.49989e-07
1.73311e-07
1.92818e-07
2.08012e-07
2.19456e-07
2.27185e-07
2.33479e-07
2.38674e-07
2.43093e-07
2.44096e-07
2.42808e-07
2.40318e-07
2.38096e-07
2.3625e-07
2.35239e-07
2.35655e-07
2.37159e-07
2.42099e-07
1.89206e-08
4.06719e-08
5.73914e-08
7.02949e-08
7.96049e-08
7.30157e-08
4.91052e-08
3.0507e-08
2.66435e-08
3.38577e-08
5.56079e-08
9.28463e-08
1.33442e-07
1.69326e-07
1.96148e-07
2.15249e-07
2.28213e-07
2.36546e-07
2.40393e-07
2.399e-07
2.34496e-07
2.24191e-07
2.12762e-07
2.02193e-07
1.92097e-07
1.80389e-07
1.55509e-07
1.27813e-07
1.04995e-07
8.43437e-08
6.54237e-08
4.94553e-08
3.67393e-08
2.5283e-08
1.47763e-08
7.03629e-09
2.89946e-09
1.03409e-09
4.17898e-10
1.63169e-10
6.87888e-11
2.62965e-11
1.13796e-11
9.56377e-12
2.53646e-11
7.3389e-11
1.93213e-10
3.85027e-10
5.36756e-10
7.07627e-10
1.04717e-09
1.46973e-09
1.77929e-09
2.13828e-09
2.53285e-09
2.96577e-09
3.65425e-09
4.22601e-09
4.9356e-09
6.16262e-09
8.15712e-09
1.09593e-08
1.61521e-08
2.34894e-08
3.38448e-08
4.84588e-08
6.60399e-08
8.66437e-08
1.10217e-07
1.34362e-07
1.56961e-07
1.7653e-07
1.92204e-07
2.03196e-07
2.11944e-07
2.20087e-07
2.28138e-07
2.32488e-07
2.34838e-07
2.34395e-07
2.32311e-07
2.29311e-07
2.2578e-07
2.23599e-07
2.24626e-07
2.31724e-07
3.10062e-08
5.99017e-08
7.60372e-08
8.3564e-08
8.49576e-08
7.02789e-08
5.05871e-08
4.23124e-08
4.53811e-08
6.18458e-08
9.45885e-08
1.33223e-07
1.70789e-07
2.00827e-07
2.22025e-07
2.36453e-07
2.45993e-07
2.52115e-07
2.55249e-07
2.55441e-07
2.52176e-07
2.45371e-07
2.37242e-07
2.29283e-07
2.21231e-07
2.11006e-07
1.90765e-07
1.66877e-07
1.44629e-07
1.23941e-07
1.05048e-07
8.82193e-08
7.41666e-08
5.91807e-08
4.13564e-08
2.46361e-08
1.31164e-08
6.44331e-09
3.22836e-09
1.48705e-09
8.02091e-10
4.78706e-10
2.97378e-10
1.8782e-10
1.0846e-10
7.26946e-11
5.03465e-11
4.46969e-11
7.30989e-11
1.5958e-10
3.40958e-10
5.53724e-10
9.02864e-10
1.40293e-09
1.99833e-09
2.40276e-09
2.84239e-09
2.88421e-09
2.96611e-09
3.456e-09
4.53685e-09
6.09252e-09
8.10831e-09
1.10009e-08
1.55411e-08
2.26951e-08
3.84555e-08
5.65736e-08
7.53622e-08
9.38548e-08
1.12925e-07
1.32382e-07
1.51557e-07
1.68262e-07
1.8144e-07
1.92759e-07
2.02111e-07
2.07578e-07
2.10191e-07
2.10387e-07
2.08951e-07
2.08124e-07
2.08729e-07
2.11339e-07
2.12892e-07
2.1669e-07
4.39271e-08
7.33079e-08
7.89524e-08
7.49135e-08
7.08518e-08
6.32184e-08
5.74603e-08
5.70128e-08
6.9829e-08
9.75789e-08
1.33705e-07
1.68914e-07
2.00658e-07
2.2436e-07
2.40254e-07
2.50601e-07
2.57337e-07
2.61699e-07
2.64168e-07
2.64679e-07
2.62873e-07
2.58493e-07
2.52933e-07
2.47102e-07
2.40793e-07
2.32536e-07
2.17277e-07
1.98346e-07
1.78997e-07
1.60012e-07
1.41924e-07
1.25589e-07
1.12001e-07
9.63344e-08
7.35226e-08
4.83704e-08
2.95942e-08
1.85983e-08
1.2304e-08
7.75392e-09
4.88548e-09
3.16436e-09