/*--------------------------------*- C++ -*----------------------------------*\
| =========                 |                                                 |
| \\      /  F ield         | OpenFOAM: The Open Source CFD Toolbox           |
|  \\    /   O peration     | Version:  v1912                                 |
|   \\  /    A nd           | Website:  www.openfoam.com                      |
|    \\/     M anipulation  |                                                 |
\*---------------------------------------------------------------------------*/
FoamFile
{
    version     2.0;
    format      ascii;
    class       volVectorField;
    location    "100";
    object      U;
}
// * * * * * * * * * * * * * * * * * * * * * * * * * * * * * * * * * * * * * //

dimensions      [0 1 -1 0 0 0 0];


internalField   nonuniform List<vector> 
14268
(
(-2.15335 0.0162648 0)
(-2.24543 0.0162752 0)
(-2.33958 0.0162859 0)
(-2.43115 0.016259 0)
(-2.52261 0.0162615 0)
(-2.61274 0.0162319 0)
(-2.70206 0.0161398 0)
(-2.79009 0.0159102 0)
(-2.87596 0.0154492 0)
(-2.95812 0.0146036 0)
(-3.03435 0.0132191 0)
(-3.10247 0.011398 0)
(-3.16006 0.00916546 0)
(-3.20379 0.00649203 0)
(-3.23015 0.00352014 0)
(-3.23845 -0.000587004 0)
(-3.22405 -0.00408803 0)
(-3.19155 -0.00735984 0)
(-3.14188 -0.0102848 0)
(-3.07726 -0.0128254 0)
(-2.99999 -0.0149684 0)
(-2.91239 -0.0167208 0)
(-2.81661 -0.018117 0)
(-2.71457 -0.0192067 0)
(-2.60797 -0.0200448 0)
(-2.49811 -0.0206578 0)
(-2.38613 -0.0210762 0)
(-2.27287 -0.0213588 0)
(-2.15882 -0.0215591 0)
(-2.04435 -0.0216883 0)
(-1.92983 -0.0217523 0)
(-1.81565 -0.0217892 0)
(-1.70204 -0.0217119 0)
(-1.58916 -0.0215536 0)
(-1.47718 -0.0213445 0)
(-1.36642 -0.0210997 0)
(-1.25724 -0.0208189 0)
(-1.15013 -0.0203724 0)
(-1.04557 -0.0199502 0)
(-0.94396 -0.0192091 0)
(-0.845546 -0.01816 0)
(-0.750535 -0.0171674 0)
(-0.659129 -0.0162571 0)
(-0.571517 -0.0154198 0)
(-0.487802 -0.0146959 0)
(-0.40796 -0.0141062 0)
(-0.33188 -0.0136064 0)
(-0.259342 -0.0131768 0)
(-0.189966 -0.012821 0)
(-0.12341 -0.0124053 0)
(-0.0592444 -0.0120683 0)
(0.0031319 -0.0117806 0)
(0.0638662 -0.0115471 0)
(0.123644 -0.011317 0)
(0.182528 -0.0110407 0)
(0.240543 -0.0107343 0)
(0.297616 -0.0104367 0)
(0.353717 -0.0101416 0)
(0.40884 -0.00993336 0)
(0.462909 -0.00976275 0)
(0.515772 -0.00955792 0)
(0.567321 -0.0093212 0)
(0.617514 -0.00902251 0)
(0.666338 -0.00868428 0)
(0.713909 -0.00841487 0)
(0.760399 -0.00817301 0)
(0.805915 -0.00802372 0)
(0.850856 -0.00792332 0)
(0.89563 -0.00782173 0)
(0.94057 -0.00769441 0)
(0.986048 -0.00775287 0)
(1.03212 -0.00772406 0)
(1.07864 -0.00787813 0)
(1.12558 -0.00800872 0)
(1.17295 -0.00795497 0)
(1.22057 -0.00805297 0)
(1.2685 -0.00831194 0)
(1.31746 -0.00870472 0)
(1.3682 -0.00873584 0)
(1.42107 -0.00933121 0)
(1.47571 -0.00945749 0)
(1.53143 -0.00927246 0)
(1.58662 -0.0106665 0)
(1.64099 -0.0116979 0)
(1.70109 -0.00239392 0)
(1.69847 0.0143853 0)
(-2.15406 0.0538458 0)
(-2.24612 0.0533335 0)
(-2.34024 0.0527688 0)
(-2.43174 0.0520494 0)
(-2.52311 0.0514099 0)
(-2.61314 0.0507177 0)
(-2.70238 0.0499277 0)
(-2.79038 0.0487856 0)
(-2.87631 0.0469725 0)
(-2.95864 0.044035 0)
(-3.03506 0.0395065 0)
(-3.10339 0.0333971 0)
(-3.1612 0.0259207 0)
(-3.20522 0.0172473 0)
(-3.23183 0.00807372 0)
(-3.24026 -0.00385244 0)
(-3.22573 -0.0141108 0)
(-3.19304 -0.0239398 0)
(-3.14314 -0.0327703 0)
(-3.07828 -0.0403952 0)
(-3.00078 -0.0467511 0)
(-2.91297 -0.0518658 0)
(-2.817 -0.0558445 0)
(-2.7148 -0.0588348 0)
(-2.60808 -0.0609832 0)
(-2.49812 -0.0624507 0)
(-2.38609 -0.063395 0)
(-2.2728 -0.0639775 0)
(-2.15877 -0.0643305 0)
(-2.04434 -0.0645073 0)
(-1.92988 -0.0644757 0)
(-1.81577 -0.0642365 0)
(-1.70225 -0.0639651 0)
(-1.58946 -0.0636603 0)
(-1.47757 -0.0631917 0)
(-1.36688 -0.0624082 0)
(-1.25775 -0.061331 0)
(-1.15067 -0.0600137 0)
(-1.04614 -0.0583278 0)
(-0.944538 -0.0567224 0)
(-0.846103 -0.0552467 0)
(-0.751043 -0.0535705 0)
(-0.659578 -0.05166 0)
(-0.571914 -0.0495736 0)
(-0.488174 -0.0473388 0)
(-0.408329 -0.0450324 0)
(-0.332249 -0.0427675 0)
(-0.259698 -0.0406476 0)
(-0.1903 -0.0387731 0)
(-0.123726 -0.0372275 0)
(-0.059523 -0.0359409 0)
(0.00290617 -0.0348989 0)
(0.0636879 -0.0341398 0)
(0.123518 -0.0336438 0)
(0.182456 -0.0332562 0)
(0.240512 -0.03289 0)
(0.297605 -0.0325208 0)
(0.353701 -0.0321109 0)
(0.408806 -0.031543 0)
(0.462859 -0.0307869 0)
(0.515715 -0.0299775 0)
(0.567276 -0.0292073 0)
(0.617493 -0.0284502 0)
(0.666336 -0.0277649 0)
(0.713916 -0.0271812 0)
(0.760385 -0.0265583 0)
(0.805849 -0.0261501 0)
(0.850737 -0.0260296 0)
(0.895461 -0.0260706 0)
(0.940339 -0.0264588 0)
(0.985759 -0.0269006 0)
(1.03182 -0.0273239 0)
(1.07838 -0.0275726 0)
(1.12536 -0.0279792 0)
(1.17272 -0.0281893 0)
(1.22027 -0.0281995 0)
(1.26811 -0.0284469 0)
(1.317 -0.0292279 0)
(1.36773 -0.0305233 0)
(1.42062 -0.0318285 0)
(1.4754 -0.0320436 0)
(1.53111 -0.0333289 0)
(1.58769 -0.0300309 0)
(1.64071 -0.0334093 0)
(1.69529 -0.0195455 0)
(1.74082 -0.022291 0)
(-2.15449 0.0882614 0)
(-2.24657 0.0875787 0)
(-2.34065 0.0868856 0)
(-2.43208 0.0859621 0)
(-2.5233 0.0852046 0)
(-2.6132 0.084363 0)
(-2.70238 0.0833335 0)
(-2.79045 0.0817143 0)
(-2.87665 0.0790118 0)
(-2.95948 0.0745063 0)
(-3.0366 0.0675544 0)
(-3.10568 0.0578525 0)
(-3.16418 0.0455593 0)
(-3.20878 0.0310607 0)
(-3.23577 0.0156397 0)
(-3.24446 -0.00479619 0)
(-3.23 -0.0222585 0)
(-3.19717 -0.0387881 0)
(-3.1469 -0.0535684 0)
(-3.08156 -0.0663375 0)
(-3.00353 -0.0770196 0)
(-2.91517 -0.0856607 0)
(-2.81866 -0.0924381 0)
(-2.71595 -0.0976018 0)
(-2.60875 -0.101411 0)
(-2.49837 -0.104088 0)
(-2.38596 -0.105854 0)
(-2.27236 -0.106988 0)
(-2.15809 -0.107702 0)
(-2.0435 -0.108064 0)
(-1.92893 -0.10807 0)
(-1.81478 -0.107783 0)
(-1.70127 -0.107285 0)
(-1.58856 -0.106649 0)
(-1.47681 -0.105762 0)
(-1.36628 -0.104499 0)
(-1.2573 -0.102818 0)
(-1.15033 -0.100612 0)
(-1.04581 -0.0980505 0)
(-0.944143 -0.0949784 0)
(-0.845644 -0.0914582 0)
(-0.750545 -0.0878009 0)
(-0.659045 -0.0840503 0)
(-0.571333 -0.08026 0)
(-0.487523 -0.0765464 0)
(-0.407606 -0.0730354 0)
(-0.331477 -0.0697798 0)
(-0.258931 -0.0668251 0)
(-0.189571 -0.0642334 0)
(-0.123042 -0.0618882 0)
(-0.0589384 -0.0600311 0)
(0.00337608 -0.0585914 0)
(0.064057 -0.0574414 0)
(0.123806 -0.0565112 0)
(0.182707 -0.0555455 0)
(0.240776 -0.0545082 0)
(0.297928 -0.0534208 0)
(0.35411 -0.0523492 0)
(0.409299 -0.0514312 0)
(0.463423 -0.0504108 0)
(0.516321 -0.049228 0)
(0.567888 -0.0480074 0)
(0.618091 -0.0466508 0)
(0.666915 -0.0452958 0)
(0.714488 -0.0442017 0)
(0.760956 -0.043114 0)
(0.80636 -0.042446 0)
(0.851128 -0.0421406 0)
(0.8957 -0.0419627 0)
(0.940464 -0.0420767 0)
(0.985875 -0.0426388 0)
(1.03193 -0.0431775 0)
(1.07845 -0.0436003 0)
(1.1255 -0.0439657 0)
(1.17298 -0.0439354 0)
(1.22052 -0.0441008 0)
(1.2682 -0.0448597 0)
(1.31686 -0.0463953 0)
(1.36749 -0.0478314 0)
(1.42039 -0.0501528 0)
(1.47537 -0.0513686 0)
(1.53142 -0.0519061 0)
(1.58851 -0.0522178 0)
(1.6434 -0.0527594 0)
(1.69975 -0.0368026 0)
(1.74113 -0.0230095 0)
(-2.15525 0.124606 0)
(-2.24736 0.123455 0)
(-2.34139 0.122246 0)
(-2.4327 0.120665 0)
(-2.52372 0.119319 0)
(-2.61344 0.117899 0)
(-2.70251 0.116309 0)
(-2.79069 0.113934 0)
(-2.8773 0.110018 0)
(-2.96083 0.103559 0)
(-3.0389 0.0935501 0)
(-3.10907 0.0795895 0)
(-3.16868 0.0620658 0)
(-3.21433 0.0415494 0)
(-3.2422 0.0199653 0)
(-3.25139 -0.00838653 0)
(-3.23662 -0.0325184 0)
(-3.20323 -0.055569 0)
(-3.15227 -0.0762456 0)
(-3.08616 -0.09409 0)
(-3.00731 -0.108967 0)
(-2.91813 -0.120947 0)
(-2.82083 -0.130277 0)
(-2.71738 -0.137311 0)
(-2.60951 -0.142404 0)
(-2.49853 -0.145911 0)
(-2.38559 -0.148196 0)
(-2.27157 -0.14963 0)
(-2.15697 -0.150497 0)
(-2.04215 -0.150901 0)
(-1.92746 -0.150813 0)
(-1.81327 -0.150306 0)
(-1.69982 -0.149607 0)
(-1.58722 -0.148778 0)
(-1.4756 -0.147599 0)
(-1.36521 -0.145804 0)
(-1.25635 -0.14346 0)
(-1.14949 -0.14045 0)
(-1.04513 -0.13677 0)
(-0.943616 -0.132864 0)
(-0.845202 -0.128836 0)
(-0.750114 -0.124487 0)
(-0.658599 -0.11976 0)
(-0.570881 -0.114751 0)
(-0.487075 -0.10957 0)
(-0.407154 -0.104366 0)
(-0.331002 -0.0993086 0)
(-0.258423 -0.0946073 0)
(-0.189062 -0.0905113 0)
(-0.122592 -0.086937 0)
(-0.0585626 -0.0838931 0)
(0.00367155 -0.0814197 0)
(0.0642841 -0.0796318 0)
(0.124025 -0.0784309 0)
(0.182968 -0.0774177 0)
(0.241096 -0.0764273 0)
(0.298284 -0.0754439 0)
(0.354475 -0.0743478 0)
(0.409672 -0.0729676 0)
(0.46381 -0.0712456 0)
(0.516742 -0.0693987 0)
(0.568369 -0.0676105 0)
(0.618638 -0.0657837 0)
(0.667507 -0.0640615 0)
(0.715118 -0.0625727 0)
(0.761585 -0.0609813 0)
(0.806916 -0.0599428 0)
(0.851602 -0.0595457 0)
(0.896067 -0.0595299 0)
(0.94064 -0.0602691 0)
(0.985881 -0.0613057 0)
(1.03186 -0.0619938 0)
(1.07836 -0.0629206 0)
(1.12542 -0.0639765 0)
(1.17286 -0.0642978 0)
(1.22022 -0.064253 0)
(1.26764 -0.0649324 0)
(1.31608 -0.0669528 0)
(1.36662 -0.0697489 0)
(1.41964 -0.072794 0)
(1.47496 -0.0740295 0)
(1.53143 -0.0757905 0)
(1.58942 -0.072704 0)
(1.64444 -0.074956 0)
(1.70117 -0.0582187 0)
(1.7565 -0.0539101 0)
(-2.15607 0.160026 0)
(-2.24825 0.158569 0)
(-2.34222 0.157111 0)
(-2.4334 0.155207 0)
(-2.52415 0.153676 0)
(-2.61362 0.152114 0)
(-2.70257 0.150367 0)
(-2.79091 0.147683 0)
(-2.87813 0.143155 0)
(-2.9627 0.135486 0)
(-3.04221 0.123199 0)
(-3.11395 0.105546 0)
(-3.17499 0.0830984 0)
(-3.22183 0.0566219 0)
(-3.25049 0.0286172 0)
(-3.26014 -0.00875172 0)
(-3.24546 -0.0406827 0)
(-3.21178 -0.0708946 0)
(-3.16006 -0.0977781 0)
(-3.09294 -0.120881 0)
(-3.01297 -0.140128 0)
(-2.92263 -0.155636 0)
(-2.82418 -0.167732 0)
(-2.71965 -0.176882 0)
(-2.61077 -0.18356 0)
(-2.49887 -0.188192 0)
(-2.38513 -0.191195 0)
(-2.27043 -0.193057 0)
(-2.15529 -0.19414 0)
(-2.04007 -0.194603 0)
(-1.92511 -0.194447 0)
(-1.81077 -0.193772 0)
(-1.69729 -0.192768 0)
(-1.58478 -0.191564 0)
(-1.47334 -0.189959 0)
(-1.36316 -0.187645 0)
(-1.25453 -0.184563 0)
(-1.14786 -0.180607 0)
(-1.04357 -0.175948 0)
(-0.942047 -0.170605 0)
(-0.843612 -0.164689 0)
(-0.748502 -0.158444 0)
(-0.656959 -0.151909 0)
(-0.569209 -0.145174 0)
(-0.485394 -0.138455 0)
(-0.405498 -0.131996 0)
(-0.329426 -0.125962 0)
(-0.256998 -0.120417 0)
(-0.187821 -0.115505 0)
(-0.121546 -0.11124 0)
(-0.0577532 -0.108005 0)
(0.00428384 -0.1054 0)
(0.06471 -0.103391 0)
(0.124297 -0.10184 0)
(0.183184 -0.10022 0)
(0.241352 -0.0984862 0)
(0.298673 -0.0966333 0)
(0.355037 -0.0948035 0)
(0.410388 -0.0931396 0)
(0.464651 -0.0912421 0)
(0.517657 -0.0890774 0)
(0.569306 -0.0868576 0)
(0.619582 -0.0844319 0)
(0.668456 -0.0820974 0)
(0.716088 -0.0801963 0)
(0.762537 -0.0781989 0)
(0.807673 -0.0770035 0)
(0.85205 -0.0764415 0)
(0.896146 -0.0761464 0)
(0.940475 -0.0764669 0)
(0.985561 -0.0777753 0)
(1.03145 -0.0786285 0)
(1.07802 -0.0795397 0)
(1.12534 -0.0801842 0)
(1.17296 -0.0800706 0)
(1.22018 -0.0801975 0)
(1.26722 -0.0813474 0)
(1.31532 -0.0840373 0)
(1.36575 -0.0871595 0)
(1.4188 -0.0913108 0)
(1.47434 -0.0942624 0)
(1.53144 -0.0949884 0)
(1.59006 -0.095689 0)
(1.64866 -0.0934011 0)
(1.70716 -0.0788619 0)
(1.76279 -0.0664063 0)
(-2.15702 0.195918 0)
(-2.24931 0.193958 0)
(-2.3432 0.191949 0)
(-2.4342 0.189307 0)
(-2.52462 0.187145 0)
(-2.61378 0.185031 0)
(-2.70259 0.182908 0)
(-2.79106 0.179792 0)
(-2.87898 0.17436 0)
(-2.96479 0.16501 0)
(-3.0461 0.149866 0)
(-3.11988 0.127949 0)
(-3.18291 0.0999434 0)
(-3.23165 0.0669625 0)
(-3.26183 0.0325839 0)
(-3.27251 -0.0131523 0)
(-3.25738 -0.0516396 0)
(-3.22266 -0.0882683 0)
(-3.16966 -0.121009 0)
(-3.10117 -0.149204 0)
(-3.01978 -0.172672 0)
(-2.928 -0.191534 0)
(-2.82815 -0.20617 0)
(-2.72229 -0.217171 0)
(-2.61219 -0.225109 0)
(-2.49916 -0.230535 0)
(-2.38443 -0.234018 0)
(-2.26887 -0.236111 0)
(-2.15305 -0.237271 0)
(-2.03733 -0.2377 0)
(-1.92206 -0.237375 0)
(-1.80758 -0.236408 0)
(-1.69411 -0.23514 0)
(-1.58173 -0.233644 0)
(-1.47054 -0.231677 0)
(-1.36065 -0.228925 0)
(-1.25228 -0.225365 0)
(-1.14584 -0.220745 0)
(-1.04176 -0.21513 0)
(-0.940399 -0.208978 0)
(-0.842057 -0.202405 0)
(-0.747004 -0.195347 0)
(-0.65552 -0.187764 0)
(-0.567822 -0.179788 0)
(-0.48402 -0.17164 0)
(-0.404111 -0.163521 0)
(-0.32804 -0.155672 0)
(-0.255687 -0.148419 0)
(-0.186696 -0.142055 0)
(-0.120639 -0.136246 0)
(-0.0570546 -0.131428 0)
(0.00480114 -0.127588 0)
(0.0651064 -0.124843 0)
(0.124644 -0.123041 0)
(0.183562 -0.121503 0)
(0.241808 -0.119967 0)
(0.299213 -0.118357 0)
(0.355656 -0.116578 0)
(0.411106 -0.114378 0)
(0.465464 -0.111672 0)
(0.518554 -0.108783 0)
(0.570284 -0.105984 0)
(0.620633 -0.10302 0)
(0.669552 -0.10024 0)
(0.717242 -0.097799 0)
(0.763699 -0.0950573 0)
(0.808711 -0.093277 0)
(0.852906 -0.0925045 0)
(0.896713 -0.0924187 0)
(0.940621 -0.0937187 0)
(0.985419 -0.0952257 0)
(1.03115 -0.0965874 0)
(1.0777 -0.0985045 0)
(1.12507 -0.0999631 0)
(1.17261 -0.100166 0)
(1.21956 -0.0997401 0)
(1.26622 -0.100769 0)
(1.31406 -0.104202 0)
(1.36442 -0.108891 0)
(1.41753 -0.113919 0)
(1.47344 -0.116623 0)
(1.53118 -0.118485 0)
(1.59061 -0.118244 0)
(1.64972 -0.117523 0)
(1.71075 -0.102861 0)
(1.77108 -0.0945651 0)
(-2.15816 0.231771 0)
(-2.25062 0.22939 0)
(-2.34446 0.227038 0)
(-2.43526 0.22399 0)
(-2.52522 0.221677 0)
(-2.6139 0.219606 0)
(-2.7024 0.217556 0)
(-2.79107 0.214348 0)
(-2.87992 0.208578 0)
(-2.96741 0.198445 0)
(-3.05106 0.181494 0)
(-3.12744 0.156216 0)
(-3.19282 0.123311 0)
(-3.24341 0.0841878 0)
(-3.27474 0.0431779 0)
(-3.2859 -0.0121238 0)
(-3.27074 -0.0593788 0)
(-3.2356 -0.104058 0)
(-3.18149 -0.143571 0)
(-3.11148 -0.177262 0)
(-3.02837 -0.205146 0)
(-2.93481 -0.227518 0)
(-2.8332 -0.244842 0)
(-2.7257 -0.257849 0)
(-2.61405 -0.267255 0)
(-2.49962 -0.273684 0)
(-2.38363 -0.277759 0)
(-2.26698 -0.280149 0)
(-2.15028 -0.281358 0)
(-2.03391 -0.281641 0)
(-1.91819 -0.281034 0)
(-1.80344 -0.279848 0)
(-1.68989 -0.278186 0)
(-1.57761 -0.276226 0)
(-1.46663 -0.273876 0)
(-1.35702 -0.270489 0)
(-1.24898 -0.266033 0)
(-1.14283 -0.260391 0)
(-1.03894 -0.253725 0)
(-0.937644 -0.24623 0)
(-0.839298 -0.238042 0)
(-0.744218 -0.2293 0)
(-0.652718 -0.220001 0)
(-0.565043 -0.210327 0)
(-0.481336 -0.200599 0)
(-0.401592 -0.191162 0)
(-0.325727 -0.182264 0)
(-0.253613 -0.174019 0)
(-0.184887 -0.166753 0)
(-0.119202 -0.160617 0)
(-0.0560391 -0.155841 0)
(0.0054478 -0.152034 0)
(0.0654491 -0.149213 0)
(0.124808 -0.147149 0)
(0.183762 -0.14496 0)
(0.24219 -0.142663 0)
(0.299892 -0.140133 0)
(0.35664 -0.137572 0)
(0.41231 -0.135135 0)
(0.466822 -0.132307 0)
(0.520001 -0.129051 0)
(0.571749 -0.125798 0)
(0.622061 -0.122375 0)
(0.670908 -0.119097 0)
(0.718541 -0.116345 0)
(0.764898 -0.113244 0)
(0.809572 -0.11141 0)
(0.853286 -0.110456 0)
(0.89663 -0.109907 0)
(0.940231 -0.110652 0)
(0.984733 -0.112703 0)
(1.03036 -0.114041 0)
(1.07706 -0.115684 0)
(1.12474 -0.116616 0)
(1.17251 -0.116141 0)
(1.21929 -0.115934 0)
(1.26552 -0.117424 0)
(1.31288 -0.121434 0)
(1.36298 -0.126404 0)
(1.41611 -0.132311 0)
(1.47215 -0.13824 0)
(1.53077 -0.138997 0)
(1.59139 -0.141162 0)
(1.65349 -0.137351 0)
(1.71689 -0.126713 0)
(1.77899 -0.11096 0)
(-2.15934 0.26758 0)
(-2.25207 0.264561 0)
(-2.34579 0.26151 0)
(-2.43634 0.257504 0)
(-2.52577 0.254327 0)
(-2.61397 0.251525 0)
(-2.70223 0.24921 0)
(-2.79106 0.246155 0)
(-2.88075 0.240326 0)
(-2.97004 0.229134 0)
(-3.05635 0.20966 0)
(-3.13585 0.180043 0)
(-3.20426 0.141001 0)
(-3.25767 0.0944079 0)
(-3.29121 0.0463533 0)
(-3.3042 -0.0183767 0)
(-3.28866 -0.0723295 0)
(-3.25183 -0.123111 0)
(-3.19563 -0.168121 0)
(-3.12347 -0.206716 0)
(-3.03826 -0.238816 0)
(-2.94261 -0.264585 0)
(-2.83895 -0.284435 0)
(-2.72954 -0.299252 0)
(-2.6161 -0.309857 0)
(-2.50004 -0.316985 0)
(-2.38257 -0.321434 0)
(-2.26462 -0.323923 0)
(-2.14684 -0.325083 0)
(-2.02966 -0.325299 0)
(-1.91342 -0.324654 0)
(-1.79844 -0.322783 0)
(-1.68478 -0.32057 0)
(-1.57263 -0.318249 0)
(-1.462 -0.315339 0)
(-1.3528 -0.311589 0)
(-1.24516 -0.306789 0)
(-1.13938 -0.300619 0)
(-1.0358 -0.293173 0)
(-0.934743 -0.284833 0)
(-0.836568 -0.275761 0)
(-0.741617 -0.266006 0)
(-0.650211 -0.255572 0)
(-0.562607 -0.244657 0)
(-0.478965 -0.233482 0)
(-0.399326 -0.222332 0)
(-0.323678 -0.211479 0)
(-0.25184 -0.201489 0)
(-0.183372 -0.192714 0)
(-0.11782 -0.184845 0)
(-0.0548845 -0.178505 0)
(0.00636607 -0.173388 0)
(0.0661504 -0.169863 0)
(0.125353 -0.167705 0)
(0.184304 -0.165808 0)
(0.242884 -0.163794 0)
(0.300814 -0.161535 0)
(0.35779 -0.159075 0)
(0.413727 -0.155971 0)
(0.468441 -0.152287 0)
(0.521699 -0.148415 0)
(0.573434 -0.144455 0)
(0.623706 -0.140104 0)
(0.672491 -0.136316 0)
(0.720132 -0.132942 0)
(0.766479 -0.128819 0)
(0.811001 -0.126149 0)
(0.854465 -0.124811 0)
(0.897379 -0.124731 0)
(0.940377 -0.126602 0)
(0.984445 -0.12873 0)
(1.0298 -0.131129 0)
(1.07644 -0.134343 0)
(1.12415 -0.136262 0)
(1.17177 -0.135925 0)
(1.2183 -0.13479 0)
(1.26421 -0.136039 0)
(1.31131 -0.140997 0)
(1.36125 -0.147872 0)
(1.41436 -0.155142 0)
(1.47086 -0.159759 0)
(1.53006 -0.16236 0)
(1.59127 -0.165888 0)
(1.6548 -0.163277 0)
(1.71954 -0.151668 0)
(1.78344 -0.138446 0)
(-2.1608 0.303926 0)
(-2.25391 0.300365 0)
(-2.34754 0.296861 0)
(-2.43784 0.292335 0)
(-2.52656 0.289121 0)
(-2.6139 0.286823 0)
(-2.70148 0.285199 0)
(-2.79035 0.282547 0)
(-2.88116 0.276496 0)
(-2.973 0.264596 0)
(-3.06278 0.243944 0)
(-3.14625 0.211402 0)
(-3.21829 0.167585 0)
(-3.2744 0.114699 0)
(-3.30938 0.0599254 0)
(-3.32261 -0.0145772 0)
(-3.30654 -0.0782163 0)
(-3.26894 -0.13843 0)
(-3.2113 -0.19144 0)
(-3.13726 -0.23629 0)
(-3.04983 -0.273005 0)
(-2.95178 -0.302285 0)
(-2.84573 -0.324695 0)
(-2.73409 -0.341374 0)
(-2.61857 -0.353323 0)
(-2.50061 -0.361328 0)
(-2.38142 -0.366237 0)
(-2.26195 -0.368874 0)
(-2.14291 -0.369877 0)
(-2.02481 -0.369592 0)
(-1.90795 -0.367893 0)
(-1.79245 -0.365666 0)
(-1.67859 -0.363569 0)
(-1.56661 -0.360787 0)
(-1.45618 -0.35734 0)
(-1.34731 -0.352739 0)
(-1.24012 -0.346887 0)
(-1.13478 -0.339722 0)
(-1.03153 -0.331279 0)
(-0.930664 -0.321697 0)
(-0.832574 -0.311115 0)
(-0.737651 -0.29975 0)
(-0.646305 -0.287733 0)
(-0.55886 -0.275142 0)
(-0.475431 -0.262518 0)
(-0.396104 -0.250187 0)
(-0.32077 -0.238515 0)
(-0.249246 -0.227517 0)
(-0.181206 -0.217675 0)
(-0.116223 -0.209308 0)
(-0.0537641 -0.202763 0)
(0.00701587 -0.197855 0)
(0.0664845 -0.194324 0)
(0.125553 -0.191881 0)
(0.184605 -0.189424 0)
(0.243467 -0.186894 0)
(0.301879 -0.183823 0)
(0.359345 -0.180521 0)
(0.415562 -0.17722 0)
(0.470482 -0.173178 0)
(0.523872 -0.168709 0)
(0.575492 -0.164704 0)
(0.625522 -0.160139 0)
(0.673955 -0.155687 0)
(0.721243 -0.15194 0)
(0.767507 -0.147634 0)
(0.811826 -0.145214 0)
(0.854882 -0.143726 0)
(0.897266 -0.142988 0)
(0.939791 -0.144236 0)
(0.983365 -0.147218 0)
(1.02852 -0.149442 0)
(1.07524 -0.151908 0)
(1.12324 -0.153037 0)
(1.17116 -0.152055 0)
(1.21773 -0.151074 0)
(1.26334 -0.152788 0)
(1.30985 -0.158445 0)
(1.35932 -0.165723 0)
(1.4124 -0.173644 0)
(1.46872 -0.183068 0)
(1.52892 -0.183957 0)
(1.59157 -0.188489 0)
(1.65782 -0.18509 0)
(1.72566 -0.1759 0)
(1.79123 -0.161408 0)
(-2.16221 0.339642 0)
(-2.25592 0.335069 0)
(-2.34937 0.330544 0)
(-2.43935 0.324727 0)
(-2.5272 0.320288 0)
(-2.61373 0.316901 0)
(-2.70085 0.314785 0)
(-2.78997 0.312501 0)
(-2.88189 0.307642 0)
(-2.97601 0.296572 0)
(-3.06932 0.274487 0)
(-3.15718 0.237796 0)
(-3.2335 0.187202 0)
(-3.2934 0.125361 0)
(-3.33129 0.0614896 0)
(-3.34731 -0.0237589 0)
(-3.33141 -0.0960666 0)
(-3.29162 -0.162048 0)
(-3.23085 -0.219415 0)
(-3.15348 -0.267928 0)
(-3.06298 -0.308323 0)
(-2.96205 -0.341003 0)
(-2.85326 -0.365932 0)
(-2.73912 -0.384368 0)
(-2.62126 -0.39742 0)
(-2.50116 -0.405975 0)
(-2.38002 -0.41112 0)
(-2.25879 -0.413708 0)
(-2.13826 -0.414434 0)
(-2.01892 -0.413727 0)
(-1.90104 -0.412562 0)
(-1.78506 -0.410758 0)
(-1.67143 -0.40679 0)
(-1.55966 -0.402215 0)
(-1.44944 -0.398311 0)
(-1.34113 -0.393369 0)
(-1.23451 -0.387379 0)
(-1.12975 -0.379695 0)
(-1.02705 -0.370536 0)
(-0.926652 -0.360351 0)
(-0.828957 -0.349121 0)
(-0.734425 -0.336778 0)
(-0.643477 -0.323369 0)
(-0.556292 -0.309319 0)
(-0.473047 -0.294942 0)
(-0.39376 -0.280701 0)
(-0.318343 -0.266917 0)
(-0.24679 -0.254337 0)
(-0.178871 -0.243437 0)
(-0.114051 -0.233664 0)
(-0.0520714 -0.225784 0)
(0.00833073 -0.219416 0)
(0.0674281 -0.215226 0)
(0.126207 -0.212965 0)
(0.185216 -0.210952 0)
(0.2443 -0.208647 0)
(0.30306 -0.205723 0)
(0.360863 -0.202448 0)
(0.417445 -0.198415 0)
(0.472396 -0.193866 0)
(0.525663 -0.188456 0)
(0.577281 -0.182734 0)
(0.627148 -0.177569 0)
(0.675324 -0.173151 0)
(0.722475 -0.169025 0)
(0.76866 -0.163306 0)
(0.812876 -0.159142 0)
(0.855745 -0.156871 0)
(0.897589 -0.156582 0)
(0.939496 -0.158804 0)
(0.982682 -0.161999 0)
(1.02751 -0.16581 0)
(1.07391 -0.170701 0)
(1.12175 -0.173046 0)
(1.16964 -0.171846 0)
(1.21626 -0.169693 0)
(1.26181 -0.170771 0)
(1.30803 -0.177062 0)
(1.35707 -0.186235 0)
(1.41003 -0.195988 0)
(1.46687 -0.204303 0)
(1.52708 -0.208623 0)
(1.59008 -0.215934 0)
(1.65786 -0.21314 0)
(1.72816 -0.202506 0)
(1.79598 -0.18767 0)
(-2.16403 0.377034 0)
(-2.25842 0.371949 0)
(-2.35167 0.366982 0)
(-2.44128 0.360492 0)
(-2.5281 0.355845 0)
(-2.61336 0.353212 0)
(-2.6994 0.352864 0)
(-2.78818 0.352825 0)
(-2.88114 0.349166 0)
(-2.97865 0.33721 0)
(-3.07737 0.312876 0)
(-3.17137 0.273257 0)
(-3.25343 0.21753 0)
(-3.31777 0.149176 0)
(-3.35743 0.0790639 0)
(-3.37354 -0.0161993 0)
(-3.3559 -0.0970391 0)
(-3.31364 -0.173586 0)
(-3.25055 -0.241064 0)
(-3.17089 -0.298203 0)
(-3.07792 -0.344647 0)
(-2.97398 -0.381185 0)
(-2.862 -0.408473 0)
(-2.74495 -0.428415 0)
(-2.62441 -0.442572 0)
(-2.50188 -0.45185 0)
(-2.3785 -0.457304 0)
(-2.25516 -0.459783 0)
(-2.13285 -0.459866 0)
(-2.01227 -0.459087 0)
(-1.89385 -0.456341 0)
(-1.77779 -0.45116 0)
(-1.66347 -0.446888 0)
(-1.55118 -0.443507 0)
(-1.44142 -0.439432 0)
(-1.33387 -0.434137 0)
(-1.22826 -0.427046 0)
(-1.12441 -0.418501 0)
(-1.02245 -0.408486 0)
(-0.922658 -0.396954 0)
(-0.825383 -0.38417 0)
(-0.731085 -0.37037 0)
(-0.640322 -0.3556 0)
(-0.553443 -0.340209 0)
(-0.470489 -0.324596 0)
(-0.391361 -0.309126 0)
(-0.316074 -0.294038 0)
(-0.244471 -0.280011 0)
(-0.17651 -0.267507 0)
(-0.111859 -0.25677 0)
(-0.0501273 -0.248499 0)
(0.00975013 -0.24258 0)
(0.0683895 -0.238577 0)
(0.126888 -0.236007 0)
(0.185836 -0.233689 0)
(0.245138 -0.231207 0)
(0.304396 -0.227834 0)
(0.362553 -0.224015 0)
(0.419207 -0.219384 0)
(0.474209 -0.213924 0)
(0.527218 -0.208494 0)
(0.578196 -0.20308 0)
(0.627722 -0.196405 0)
(0.675666 -0.190934 0)
(0.722647 -0.1864 0)
(0.768726 -0.181091 0)
(0.812574 -0.178049 0)
(0.855058 -0.175537 0)
(0.896641 -0.174532 0)
(0.938071 -0.176994 0)
(0.980826 -0.180538 0)
(1.02553 -0.184012 0)
(1.07195 -0.1879 0)
(1.11992 -0.189535 0)
(1.16816 -0.188034 0)
(1.21499 -0.186305 0)
(1.26026 -0.187859 0)
(1.30569 -0.194489 0)
(1.3538 -0.20422 0)
(1.40611 -0.214969 0)
(1.46301 -0.226208 0)
(1.52468 -0.229288 0)
(1.58886 -0.238189 0)
(1.65881 -0.236979 0)
(1.73212 -0.228548 0)
(1.80248 -0.214343 0)
(-2.16565 0.412502 0)
(-2.26133 0.405319 0)
(-2.35471 0.398279 0)
(-2.44432 0.389795 0)
(-2.5304 0.383793 0)
(-2.61461 0.380778 0)
(-2.69975 0.380254 0)
(-2.78897 0.379694 0)
(-2.88444 0.376142 0)
(-2.98632 0.366288 0)
(-3.09083 0.343373 0)
(-3.19162 0.302658 0)
(-3.28051 0.241161 0)
(-3.3503 0.162482 0)
(-3.39416 0.0786038 0)
(-3.41368 -0.0282547 0)
(-3.39714 -0.124596 0)
(-3.35238 -0.209682 0)
(-3.28422 -0.280486 0)
(-3.1984 -0.336911 0)
(-3.09914 -0.382618 0)
(-2.98958 -0.421526 0)
(-2.8729 -0.450987 0)
(-2.75197 -0.472794 0)
(-2.62812 -0.488334 0)
(-2.50267 -0.498239 0)
(-2.37663 -0.503895 0)
(-2.25091 -0.506409 0)
(-2.12663 -0.506758 0)
(-2.0049 -0.503625 0)
(-1.88518 -0.499316 0)
(-1.76713 -0.496011 0)
(-1.65193 -0.493243 0)
(-1.54068 -0.488787 0)
(-1.43249 -0.482283 0)
(-1.32626 -0.475089 0)
(-1.22182 -0.467376 0)
(-1.11936 -0.458076 0)
(-1.01885 -0.447142 0)
(-0.920247 -0.434901 0)
(-0.823823 -0.421271 0)
(-0.729943 -0.406264 0)
(-0.639093 -0.39003 0)
(-0.551776 -0.372983 0)
(-0.468267 -0.355796 0)
(-0.388755 -0.338605 0)
(-0.313392 -0.322615 0)
(-0.241748 -0.307345 0)
(-0.174071 -0.293862 0)
(-0.109629 -0.281956 0)
(-0.0481504 -0.272153 0)
(0.0115091 -0.264553 0)
(0.0695875 -0.260146 0)
(0.127508 -0.258068 0)
(0.186205 -0.256312 0)
(0.24551 -0.25425 0)
(0.304972 -0.250785 0)
(0.363442 -0.246398 0)
(0.420207 -0.241286 0)
(0.475185 -0.234978 0)
(0.528495 -0.227609 0)
(0.579431 -0.221362 0)
(0.628256 -0.215395 0)
(0.675287 -0.210034 0)
(0.721613 -0.204261 0)
(0.767684 -0.196811 0)
(0.811926 -0.191557 0)
(0.854208 -0.189036 0)
(0.895342 -0.188631 0)
(0.936605 -0.190576 0)
(0.97918 -0.195279 0)
(1.0237 -0.200617 0)
(1.06975 -0.206958 0)
(1.11729 -0.210022 0)
(1.16521 -0.207916 0)
(1.21192 -0.204166 0)
(1.25701 -0.204698 0)
(1.30171 -0.212731 0)
(1.34879 -0.224678 0)
(1.40012 -0.237882 0)
(1.45634 -0.251705 0)
(1.51895 -0.255294 0)
(1.58451 -0.266245 0)
(1.65617 -0.266066 0)
(1.73193 -0.256303 0)
(1.80536 -0.240801 0)
(-2.16854 0.451509 0)
(-2.26516 0.444256 0)
(-2.35795 0.438019 0)
(-2.4461 0.42952 0)
(-2.52976 0.422905 0)
(-2.61164 0.418451 0)
(-2.69565 0.417991 0)
(-2.78492 0.42195 0)
(-2.88215 0.425102 0)
(-2.9897 0.421124 0)
(-3.10528 0.398071 0)
(-3.2204 0.348533 0)
(-3.32551 0.276478 0)
(-3.40999 0.189528 0)
(-3.46447 0.0991625 0)
(-3.49185 -0.0175443 0)
(-3.47266 -0.11803 0)
(-3.4193 -0.208909 0)
(-3.34259 -0.289852 0)
(-3.24804 -0.360464 0)
(-3.1419 -0.420157 0)
(-3.02333 -0.466193 0)
(-2.89681 -0.498714 0)
(-2.76707 -0.5214 0)
(-2.63618 -0.536605 0)
(-2.50545 -0.545943 0)
(-2.37549 -0.551334 0)
(-2.24665 -0.553394 0)
(-2.11989 -0.551677 0)
(-1.99549 -0.550363 0)
(-1.87358 -0.549458 0)
(-1.75582 -0.543595 0)
(-1.64229 -0.53529 0)
(-1.53171 -0.527748 0)
(-1.42293 -0.522138 0)
(-1.31677 -0.515484 0)
(-1.21335 -0.506844 0)
(-1.11223 -0.496705 0)
(-1.01307 -0.485123 0)
(-0.915892 -0.471977 0)
(-0.820726 -0.457476 0)
(-0.727754 -0.44147 0)
(-0.637328 -0.424008 0)
(-0.549782 -0.405597 0)
(-0.465685 -0.386707 0)
(-0.385529 -0.368128 0)
(-0.309087 -0.349927 0)
(-0.237162 -0.333024 0)
(-0.169241 -0.317868 0)
(-0.104973 -0.304582 0)
(-0.0444105 -0.294702 0)
(0.0143191 -0.287121 0)
(0.071622 -0.282181 0)
(0.128755 -0.2797 0)
(0.186756 -0.278153 0)
(0.245859 -0.276017 0)
(0.305359 -0.27236 0)
(0.364011 -0.267576 0)
(0.421304 -0.261377 0)
(0.476206 -0.255296 0)
(0.529234 -0.247829 0)
(0.580194 -0.239921 0)
(0.629152 -0.231787 0)
(0.675839 -0.225878 0)
(0.721201 -0.221978 0)
(0.766228 -0.215986 0)
(0.809592 -0.211616 0)
(0.851688 -0.206584 0)
(0.893089 -0.204962 0)
(0.934533 -0.208775 0)
(0.977072 -0.213847 0)
(1.02126 -0.218408 0)
(1.06676 -0.224075 0)
(1.11377 -0.226605 0)
(1.16141 -0.22468 0)
(1.20786 -0.221785 0)
(1.25247 -0.222579 0)
(1.29677 -0.229745 0)
(1.34342 -0.242109 0)
(1.39443 -0.256463 0)
(1.45114 -0.269467 0)
(1.51378 -0.277151 0)
(1.58014 -0.291442 0)
(1.65347 -0.293282 0)
(1.73137 -0.286019 0)
(1.80745 -0.27116 0)
(-2.14767 0.488763 0)
(-2.23118 0.478242 0)
(-2.30476 0.465952 0)
(-2.36646 0.45162 0)
(-2.41595 0.442222 0)
(-2.45573 0.440318 0)
(-2.48918 0.447925 0)
(-2.52337 0.459922 0)
(-2.56941 0.464846 0)
(-2.64254 0.450613 0)
(-2.76344 0.416919 0)
(-2.95537 0.366792 0)
(-3.21795 0.294159 0)
(-3.48749 0.199028 0)
(-3.70293 0.0923893 0)
(-3.8186 -0.0356812 0)
(-3.82193 -0.175172 0)
(-3.72202 -0.284357 0)
(-3.57444 -0.373434 0)
(-3.41413 -0.440362 0)
(-3.2543 -0.48646 0)
(-3.09989 -0.520114 0)
(-2.9494 -0.548235 0)
(-2.80264 -0.569889 0)
(-2.65822 -0.586777 0)
(-2.51686 -0.59851 0)
(-2.37819 -0.602723 0)
(-2.24274 -0.602548 0)
(-2.11153 -0.601354 0)
(-1.98575 -0.596714 0)
(-1.86487 -0.587401 0)
(-1.74668 -0.579764 0)
(-1.63157 -0.572825 0)
(-1.51932 -0.566663 0)
(-1.41059 -0.559626 0)
(-1.3052 -0.551497 0)
(-1.20234 -0.542634 0)
(-1.10195 -0.5325 0)
(-1.00388 -0.520768 0)
(-0.907987 -0.507469 0)
(-0.814291 -0.492126 0)
(-0.722508 -0.475205 0)
(-0.632783 -0.456773 0)
(-0.545425 -0.437398 0)
(-0.460818 -0.417658 0)
(-0.379495 -0.397834 0)
(-0.302625 -0.378464 0)
(-0.229857 -0.360078 0)
(-0.16195 -0.343531 0)
(-0.0982873 -0.329006 0)
(-0.0382041 -0.316962 0)
(0.0190755 -0.30838 0)
(0.0747527 -0.303654 0)
(0.130469 -0.301871 0)
(0.187625 -0.30068 0)
(0.246248 -0.299048 0)
(0.305901 -0.295503 0)
(0.365092 -0.29033 0)
(0.422915 -0.283781 0)
(0.47899 -0.275255 0)
(0.532149 -0.267204 0)
(0.582352 -0.259918 0)
(0.630372 -0.251665 0)
(0.676234 -0.244438 0)
(0.721264 -0.237403 0)
(0.765996 -0.229005 0)
(0.809493 -0.222831 0)
(0.85173 -0.220552 0)
(0.893213 -0.221002 0)
(0.934613 -0.222703 0)
(0.976164 -0.228038 0)
(1.01883 -0.234666 0)
(1.06293 -0.24241 0)
(1.10879 -0.24624 0)
(1.15601 -0.243521 0)
(1.20306 -0.23826 0)
(1.24868 -0.237509 0)
(1.29337 -0.24584 0)
(1.33989 -0.259661 0)
(1.39097 -0.275314 0)
(1.44648 -0.296192 0)
(1.50974 -0.303924 0)
(1.57601 -0.318788 0)
(1.64951 -0.321587 0)
(1.7291 -0.31347 0)
(1.8079 -0.297498 0)
(-2.11441 0.505708 0)
(-2.17432 0.491952 0)
(-2.21067 0.479167 0)
(-2.21857 0.468137 0)
(-2.19082 0.460946 0)
(-2.12882 0.457371 0)
(-2.04244 0.453195 0)
(-1.95622 0.449755 0)
(-1.92197 0.453136 0)
(-2.06829 0.464012 0)
(-2.50874 0.477557 0)
(-3.03561 0.470483 0)
(-3.34165 0.413093 0)
(-3.43213 0.311601 0)
(-3.54143 0.176682 0)
(-3.65788 0.0092547 0)
(-3.87822 -0.160406 0)
(-3.95364 -0.301408 0)
(-3.80477 -0.396766 0)
(-3.56521 -0.469315 0)
(-3.31697 -0.525609 0)
(-3.11709 -0.573079 0)
(-2.94485 -0.600219 0)
(-2.79637 -0.614401 0)
(-2.65413 -0.624949 0)
(-2.51642 -0.631077 0)
(-2.37918 -0.636025 0)
(-2.24243 -0.638014 0)
(-2.10735 -0.632984 0)
(-1.97672 -0.626768 0)
(-1.85086 -0.621755 0)
(-1.73089 -0.615199 0)
(-1.61571 -0.60753 0)
(-1.50448 -0.59938 0)
(-1.39669 -0.590506 0)
(-1.29169 -0.581276 0)
(-1.18949 -0.570833 0)
(-1.08998 -0.559067 0)
(-0.992814 -0.545972 0)
(-0.897816 -0.531506 0)
(-0.804479 -0.516118 0)
(-0.713033 -0.49919 0)
(-0.623475 -0.48065 0)
(-0.5362 -0.460601 0)
(-0.451651 -0.439499 0)
(-0.370331 -0.418162 0)
(-0.292773 -0.39756 0)
(-0.219874 -0.377937 0)
(-0.152039 -0.360128 0)
(-0.0887935 -0.344514 0)
(-0.0300481 -0.332256 0)
(0.0263568 -0.323113 0)
(0.0810994 -0.317849 0)
(0.135916 -0.315964 0)
(0.192202 -0.315434 0)
(0.250604 -0.314271 0)
(0.310758 -0.310881 0)
(0.371004 -0.305605 0)
(0.430134 -0.298409 0)
(0.486623 -0.290307 0)
(0.540275 -0.280734 0)
(0.59036 -0.271359 0)
(0.637324 -0.262361 0)
(0.681625 -0.255539 0)
(0.724692 -0.250251 0)