/*--------------------------------*- C++ -*----------------------------------*\
| =========                 |                                                 |
| \\      /  F ield         | OpenFOAM: The Open Source CFD Toolbox           |
|  \\    /   O peration     | Version:  v1912                                 |
|   \\  /    A nd           | Website:  www.openfoam.com                      |
|    \\/     M anipulation  |                                                 |
\*---------------------------------------------------------------------------*/
FoamFile
{
    version     2.0;
    format      ascii;
    class       volScalarField;
    location    "90";
    object      p_rgh;
}
// * * * * * * * * * * * * * * * * * * * * * * * * * * * * * * * * * * * * * //

dimensions      [1 -1 -2 0 0 0 0];


internalField   nonuniform List<scalar> 
14268
(
82.3625
78.6984
56.9421
48.5438
46.2436
40.1382
25.8813
19.2978
17.0562
15.1457
14.2004
13.653
10.7588
9.14921
9.98379
11.7424
11.1225
10.0944
10.4656
9.97828
9.24972
9.47195
9.21225
8.94056
9.20882
8.58723
10.0919
10.0949
10.3369
6.9861
6.33217
8.85531
9.38797
9.65656
8.95013
9.13474
9.09697
11.946
13.8367
14.8979
15.0977
13.7172
13.9923
7.19937
4.61654
5.43343
5.16988
4.83653
4.84253
4.81481
13.6997
15.6106
10.8168
4.16561
4.21983
4.24287
4.67038
4.37871
4.07778
3.35876
3.31766
3.31498
3.23096
3.10507
3.00298
2.85561
2.80888
2.78635
2.83217
6.61194
14.7154
16.9512
17.0072
16.1311
15.083
14.8514
14.3131
7.92739
4.52
4.6515
4.79009
4.90198
4.93319
4.81109
4.05351
3.12482
2.74335
2.78342
2.90146
2.89148
2.78995
2.75232
2.72023
2.75711
2.81906
3.85661
6.40553
10.0748
10.9842
9.72802
4.94842
4.63998
4.71487
6.98813
60.4639
47.3054
39.9509
39.8197
37.7117
34.5639
22.4634
18.7114
16.6911
15.0438
19.8564
35.5698
21.0732
9.27698
9.34172
9.67323
14.4928
21.4879
26.1584
19.2555
8.48913
5.58084
5.01713
4.68178
6.01277
6.19796
8.04701
9.39844
8.90451
6.10774
6.07125
6.88281
9.23596
11.5265
9.78255
9.01425
12.6028
17.3675
17.5026
14.0374
9.74131
9.64435
6.39746
5.18488
5.34037
9.73215
6.4488
6.41052
5.58098
4.73938
10.7856
15.605
9.70477
5.5761
5.15313
5.59302
4.76789
4.4942
5.70688
3.37435
3.28299
3.23225
3.3274
4.12912
4.22695
3.96945
3.69441
3.44678
3.37403
4.84096
11.2866
15.8054
15.4084
8.35213
5.98692
6.26177
8.98672
11.3361
8.26017
7.51303
8.06634
9.70046
10.9891
11.5232
11.1802
7.73602
4.24364
2.8283
2.7896
2.84706
3.16096
3.23746
2.96036
3.22606
5.27118
7.74086
9.319
8.98405
9.34889
7.15799
5.25972
4.78145
5.73691
3.85742
48.0249
38.5858
39.7916
40.1143
38.1955
27.8369
18.9307
32.4678
18.7992
15.5775
47.3143
52.8335
47.2808
13.2813
9.27512
10.4739
24.2294
37.379
39.7577
40.2028
27.8786
15.4657
8.78197
5.00358
4.16901
4.35496
6.0473
6.76789
7.02658
5.73263
6.03606
6.8247
13.9258
23.5342
22.2365
9.94912
8.65179
9.85106
10.7262
11.3622
18.1162
21.5264
13.2612
5.23787
6.01548
10.3783
10.5742
10.5704
11.2799
5.37278
5.85476
9.68024
7.00105
5.6287
6.05408
6.76377
8.50187
7.74773
6.49073
3.55361
3.2526
3.24173
4.78842
6.55653
6.29819
6.03724
7.03324
7.30544
6.50828
5.16919
5.59206
8.93147
9.55575
5.4619
3.81827
3.8232
9.16291
14.0216
14.0749
11.859
10.4441
13.9578
14.8052
14.9042
14.9981
15.0987
11.1041
4.32932
3.1177
3.54882
4.81384
5.83857
6.89866
7.60138
6.83462
9.19675
11.7304
11.7404
4.85026
4.83836
7.01595
12.4361
14.4689
9.19438
55.986
38.0066
55.505
57.9121
46.432
24.3358
18.7485
53.4492
20.8916
18.0562
47.8441
25.6221
22.8005
24.7228
12.4084
15.5226
29.6639
26.7684
15.5623
21.8595
40.6129
40.5848
26.5532
10.4094
5.19725
5.48322
5.52183
5.28583
5.63901
5.62264
5.87761
8.65667
20.3408
27.7936
27.4011
22.1153
8.47316
7.4754
7.55779
14.2646
21.8761
21.4286
17.4786
15.5895
9.25959
8.05173
14.768
13.2365
14.5202
6.42974
5.38996
5.74253
5.49862
5.56219
5.54537
7.69644
12.3089
12.0416
4.89517
4.43163
3.43631
4.25899
7.25521
7.04801
6.72081
6.21767
9.34428
9.94731
10.0777
6.58645
3.64873
4.03815
5.20512
5.26019
5.71555
7.44651
9.5587
14.0266
14.1546
14.2735
9.2187
5.52795
5.29481
7.96455
12.9568
15.0793
15.2042
9.18442
3.9369
3.9908
8.19096
14.2128
19.9396
21.3369
14.689
8.23258
7.15859
11.0589
10.3652
4.80529
8.9534
15.9742
16.0726
16.0293
60.7329
54.1421
107.244
108.887
66.3924
24.4554
18.6719
54.415
22.2858
20.2325
47.938
15.1588
17.1893
25.6719
21.868
16.2937
22.8804
11.9912
5.39319
6.82833
22.09
36.4799
36.4403
22.5703
8.76488
7.17468
6.42608
5.23513
5.58181
5.57035
7.16339
10.0664
11.3966
12.3797
24.0026
28.7935
21.07
14.7261
14.6999
20.4269
20.1616
8.18339
4.28884
15.9546
5.6892
5.95532
14.8199
7.3155
9.06899
6.89208
5.33786
8.44103
8.05219
6.77864
7.49041
9.31002
12.1656
12.0697
5.94065
8.31169
3.90606
4.06684
4.68372
5.66578
8.05545
8.6974
4.71361
3.61294
3.95709
4.85301
4.43088
2.6756
3.37201
8.29974
9.81821
10.4236
10.5242
10.5572
11.6838
10.5609
6.96239
5.42767
5.01463
5.12798
5.5488
8.2949
12.0239
11.6293
5.02659
4.47818
12.988
23.0098
25.709
25.9413
26.1089
17.9982
7.13815
5.63297
10.5161
9.73146
9.30577
16.03
16.1141
16.0972
97.6412
112.039
115.044
116.197
92.6902
28.3657
39.4566
37.4951
27.2975
20.8479
27.6767
14.6664
14.0127
22.8018
26.5786
12.4765
9.93262
5.97029
4.60597
4.72445
4.44325
5.36071
6.1483
9.74976
18.2869
16.04
7.23614
5.39881
5.50014
5.47814
10.4052
12.4709
9.69256
9.97345
11.1613
28.8656
28.7014
27.2061
26.3554
28.2975
17.0188
3.96186
3.79848
10.1382
4.91371
6.57938
14.7399
10.2733
6.12446
11.2677
6.07694
11.8401
7.08666
11.699
11.615
9.5168
5.47258
7.74495
10.7236
11.2044
5.3623
3.75101
3.63242
12.5917
25.5495
26.4393
12.5666
4.16551
3.52083
3.62538
4.16081
2.63428
2.79089
7.66039
9.81315
6.49846
5.36269
6.32733
7.15732
5.86661
3.9134
3.80285
4.46175
4.38001
3.45267
3.55945
6.9864
11.9244
8.1612
5.42362
14.9395
24.6821
25.7823
21.9628
22.3378
22.5314
12.4006
4.17394
6.49137
8.40385
12.319
13.9051
9.77487
16.1
110.832
113.364
116.316
117.616
114.32
38.3955
44.937
26.2463
48.1826
22.1225
20.6926
30.4305
21.2889
18.525
26.7314
13.0979
5.50182
5.05706
8.18962
5.69872
4.165
4.05488
3.73542
6.98729
17.0074
12.6969
12.7431
10.5617
7.9953
8.79934
18.2141
19.7168
13.3435
19.9249
10.6966
19.1899
28.9259
29.0714
29.2527
29.5863
29.1944
13.344
3.68416
6.76937
4.87021
12.4677
12.9258
14.7854
6.99354
18.0603
16.8106
19.0194
5.33037
11.324
9.66078
6.34476
4.95476
4.86999
13.3911
11.2449
8.38533
3.65546
5.71152
23.8639
33.7177
33.8548
33.6365
12.999
4.53812
3.5831
3.33157
2.83409
2.78696
5.53322
6.08658
3.85099
3.72549
3.99131
4.13739
2.86709
2.35371
2.3634
2.36712
2.64664
3.41869
4.31526
4.585
12.4325
16.4074
14.9931
22.2286
22.0206
12.9277
4.20256
5.45043
11.8769
12.453
4.00149
3.73295
7.61473
11.7063
4.50622
4.22458
16.1507
111.227
114.188
78.2605
83.8287
112.969
44.1751
37.3581
24.7298
61.4398
46.6505
22.4247
59.8913
37.0075
18.3513
25.4292
14.9927
5.43853
12.283
24.5908
16.5577
3.67874
3.5527
3.29484
3.65445
6.69479
7.63193
14.6569
19.1553
19.3384
19.6774
20.4802
22.6595
22.3737
22.853
19.7973
12.0128
17.0704
26.2699
29.3643
29.7032
29.9189
25.2573
3.57855
6.32221
9.37044
6.57817
5.1767
14.8015
8.04694
12.8421
20.2613
20.161
4.37533
6.06231
5.2346
4.56967
5.57252
9.89085
13.379
7.33952
14.5584
4.1194
6.87165
25.1895
29.715
27.1882
30.0707
28.0807
9.99811
4.74197
4.33029
4.36768
3.85582
3.94404
3.58121
2.89291
3.81845
3.36266
2.42323
2.29219
2.24991
2.24771
2.24738
4.06556
8.81002
13.6082
12.9426
12.2544
23.5572
24.5843
24.7661
17.3471
3.95256
1.94959
1.97912
4.41976
11.5111
4.49677
3.6741
6.61701
9.94751
3.72062
3.68009
15.2114
111.936
115.037
41.8344
28.0695
89.3389
47.3082
31.5308
36.1573
62.1014
61.1305
46.1377
61.9833
62.1485
39.7465
22.1339
27.4866
8.9627
24.7368
32.4661
32.7159
10.8138
3.4234
3.17671
3.32929
3.52042
4.58843
9.59903
13.3735
17.6507
19.9086
17.9221
14.502
20.7264
16.0719
23.4004
11.9244
11.9219
22.0487
25.2183
22.3445
21.2944
25.514
3.48411
5.65034
10.0909
4.69487
4.87257
14.8692
11.5205
6.11353
20.3345
20.2311
4.33912
4.37433
4.15357
5.55887
15.5897
10.8368
11.6467
5.44288
20.4403
7.29981
9.5846
20.1018
8.04503
5.24579
16.0712
28.4684
19.8684
6.89783
4.0531
4.19142
5.04802
4.06164
2.10709
2.44339
5.05995
5.99138
4.55278
2.8979
2.73109
3.91412
7.18548
11.305
16.8515
20.0131
20.2633
12.2923
16.4164
24.7355
24.6673
9.99989
2.39017
1.94085
1.96621
2.57876
7.70819
7.14172
3.65324
4.55713
7.32527
3.67213
7.42533
4.63041
95.9889
96.8017
28.0968
22.1143
48.4688
98.1503
31.0561
66.934
49.2484
61.4789
59.639
48.7166
35.3809
27.8641
22.1247
35.8817
28.551
28.6711
20.3144
32.8715
31.4676
10.6381
3.53888
3.0638
3.32342
3.41344
4.42788
6.09897
11.8089
20.0627
12.7457
5.6487
7.67137
5.30337
23.469
11.8032
11.8025
15.4612
15.9721
14.613
17.2428
22.3387
3.48725
4.39729
10.1131
12.0518
8.17963
8.34765
14.3791
5.81786
20.3899
19.8819
6.86529
4.31278
4.04914
9.95805
20.5013
7.50509
5.84861
5.39763
20.6776
28.9237
25.4478
21.1828
3.52332
2.24476
8.11133
20.955
23.6812
12.5128
3.99817
3.48785
5.03984
3.27605
1.8814
1.69
3.18272
6.5758
8.94532
8.96459
10.827
13.7795
17.9587
19.5931
19.9086
19.6229
16.3465
16.5106
9.72884
18.9049
14.8163
5.75662
1.883
1.90147
1.91687
2.06691
7.66344
13.4664
3.63129
3.68701
3.89336
4.38372
14.318
2.23976
55.8543
37.5365
22.2343
21.5894
30.7683
111.715
85.9176
78.1988
26.7219
61.8507
60.3066
25.5294
23.7004
23.0334
19.9635
36.2033
34.8447
16.1918
7.274
26.4277
36.2797
31.7253
12.1387
5.66534
4.60245
4.20127
5.47413
4.69412
7.65321
19.4865
6.65229
4.73907
4.35655
4.43221
21.7048
21.1453
18.4573
21.9801
23.0167
14.5486
14.1163
9.29143
10.905
3.4145
7.00448
14.6006
14.8713
4.70655
14.4399
5.75413
17.0711
12.42
11.5744
4.26022
4.26075
13.3687
20.6677
17.2966
4.62082
11.4498
14.7521
32.3684
32.5209
14.7602
2.97757
2.17416
4.13741
15.3475
23.8748
15.5984
4.15062
2.86685
3.41788
2.25552
1.83603
1.63993
1.72276
3.22885
9.20661
17.9647
19.2186
19.3199
19.4937
19.7372
19.8397
7.77417
6.57059
11.9023
6.14036
6.33994
6.70541
5.12189
1.88687
1.90103
2.1747
2.05374
5.72321
14.0312
10.1245
3.65674
3.61947
5.67144
14.3813
2.2757
24.5664
25.6921
44.9711
23.5941
20.2284
112.981
113.562
63.6641
16.456
44.338
41.8398
18.9089
21.19
21.8648
15.4552
31.7967
35.0102
7.57482
6.94921
12.1712
36.5559
36.356
29.5629
12.0716
10.712
8.21585
11.3661
5.73829
5.28173
10.4771
4.36485
4.56596
4.13875
4.5961
14.889
25.7049
25.8895
26.4841
29.6726
25.6338
17.8094
7.41757
23.6004
3.36166
4.55284
14.6517
14.9071
4.60335
13.8391
6.10726
6.69289
7.36908
11.6277
4.20141
4.74653
14.9584
20.7656
20.4425
3.80828
8.21121
9.24359
32.6251
32.7524
6.77337
2.63411
2.08088
2.61717
9.75504
18.5766
19.7295
6.27502
2.44442
2.10838
1.99857
1.77702
2.11178
2.91043
2.64783
3.29559
10.0102
19.3507
19.4339
19.5997
19.8426
14.2173
3.856
4.25591
9.21986
8.0845
5.60468
5.5789
6.65755
1.86133
2.59194
4.08031
2.12453
3.68381
10.6552
7.38018
3.62317
3.56812
7.66132
14.4159
5.01329
23.1945
24.8702
87.8335
45.0796
19.9679
87.9968
71.6987
30.2435
14.0319
15.0773
14.8131
14.7002
17.3607
20.907
12.0954
17.0464
22.3197
7.45105
11.3803
11.8144
37.0059
36.9224
36.8557
21.1931
18.7836
14.5734
14.1674
9.8033
4.33528
4.2805
4.2653
4.45282
4.53338
6.81363
11.512
25.7753
25.9796
21.4748
29.8723
30.043
24.1123
6.08873
27.0859
3.31753
4.68089
14.731
14.9443
4.54461
12.2913
6.71119
5.57412
6.09961
9.29137
4.14073
5.25995
15.4958
20.8841
20.5824
3.74442
5.1482
5.12441
26.1496
23.0522
4.32968
2.23264
2.04706
2.1561
6.24313
15.2573
19.9035
8.97411
2.91618
2.06988
1.95919
2.28334
4.04578
5.46906
3.02504
3.13388
5.06848
14.7791
19.5837
19.7451
19.667
9.47375
3.70691
3.76032
8.83909
11.6451
5.55608
5.77001
5.14877
2.09025
4.12178
4.54391
3.93409
2.26412
5.05704
5.41194
7.14493
4.68365
11.8665
14.4698
8.22414
22.6068
51.8826
104.438
76.4891
23.6043
39.3177
22.2217
24.4897
14.6565
11.7971
10.2434
9.53655
14.5255
20.7586
9.41385
7.69178
11.0167
10.8833
32.0151
24.5588
24.8088
37.2081
37.2633
28.5051
7.65275
13.9591
7.44602
4.65098
5.20219
4.13097
4.16276
4.47693
6.77252
8.184
8.75353
25.8417
24.5166
16.3104
19.7005
19.0733
24.1845
4.97695
27.3239
3.27352
5.96698
14.7652
15.0512
4.47386
8.81004
12.4313
5.49705
5.50064
5.91317
4.08205
6.94434
18.4548
20.125
20.5441
3.65965
2.74615
2.65029
8.62794
9.98626
3.17848
2.15154
1.96931
2.04518
4.51422
12.0039
16.2088
13.0891
3.26904
2.02763
2.02051
5.89217
11.9235
10.0524
4.93477
3.17252
3.31521
9.626
16.7993
18.2588
12.9996
8.88249
5.80776
4.75597
8.40626
16.1643
5.57914
6.19146
1.80696
2.63955
4.51234
4.54143
4.6002
2.14774
3.26079
4.44212
10.5749
9.3654
14.3204
14.5098
11.1987
42.7597
103.786
107.125
107.317
38.7014
18.4419
17.1719
23.6639
37.4338
11.4688
14.6469
8.36716
10.9022
17.8602
13.7585
6.79284
6.74857
19.2938
36.8419
37.7172
25.005
29.0285
38.1838
37.7059
6.66939
6.18502
5.349
4.6058
4.89457
4.07436
4.38815
6.40741
7.58554
8.09326
5.76304
20.4648
10.5403
9.49881
10.3661
9.75866
22.9796
4.46469
27.4312
4.0142
12.9348
14.8723
15.1323
4.68206
7.34658
14.1096
6.0547
4.46028
4.11193
5.8544
17.0785
17.6381
9.07956
20.7712
6.93053
2.46793
2.4902
2.6329
3.29355
2.84624
2.41608
2.19136
2.04298
3.50421
9.00656
12.7178
13.062
4.07982
1.97545
3.19545
9.96455
13.7703
14.0056
11.2816
6.04638
5.27078
5.64292
6.77258
7.24776
7.17162
6.72918
9.11132
9.18298
10.5916
20.0469
19.0995
13.5009
1.80214
1.81691
2.19802
4.56582
4.62743
2.12225
3.17472
3.16882
12.9974
14.28
14.4309
10.9177
13.2855
103.398
106.657
58.7616
36.7851
45.2877
17.8129
16.9189
44.7363
69.8256
11.2127
19.7145
7.90676
7.36984
10.9182
15.9324
6.45125
6.75809
28.6602
37.8643
38.2727
39.0487
38.6607
24.4465
12.3285
14.2271
5.82456
6.11909
7.01061
5.10959
4.01913
4.29699
7.74346
6.89098
3.84315
3.96221
7.81518
5.50096
5.81708
5.28196
6.3326
9.45678
4.47114
24.11
4.32162
8.5721
14.9418
15.2391
8.54467
6.31042
14.2247
13.7324
7.29061
4.07724
17.8881
19.6984
15.325
8.35604
20.98
14.0573
3.15508
2.39612
2.38351
2.22112
3.34834
5.84301
6.51708
4.11214
3.24462
5.10447
8.3695
9.44033
4.93255
2.60487
5.6607
12.5443
12.5956
7.67321
7.66767
8.49908
7.24027
4.05188
4.12772
4.19472
4.27447
3.2811
4.63026
6.35074
7.65283
14.9893
19.2683
5.97356
1.76552
1.78926
1.82279
4.56546
4.4321
2.00676
2.99944
2.91971
6.40452
10.2273
5.67759
3.35499
3.03666
75.0308
95.8902
28.7183
25.9265
31.0322
30.5346
35.099
71.8386
70.8847
13.2212
19.7671
7.68309
8.69706
14.6301
16.458
6.12232
10.2714
29.4906
35.5626
38.9122
39.7936
27.9007
8.6573
8.27497
14.5563
10.0031
10.4764
7.08634
6.54011
5.19425
4.34611
11.6137
8.6126
3.70272
3.81579
4.69164
5.51371
5.89012
5.30553
9.95925
5.09345
4.79833
24.6096
6.89273
7.72443
15.07
15.3393
14.8764
6.30395
8.07497
14.022
5.82233
4.06632
20.0452
19.9229
12.6737
8.19561
12.4334
20.0153
15.5202
10.0279
2.3298
2.14895
5.01548
9.17082
10.1165
8.9051
4.89658
4.50119
4.76782
8.54309
11.0349
9.87879
11.7112
11.8835
5.38346
2.82194
4.36023
7.1382
8.51715
7.19733
7.17265
6.5135
3.5679
2.00203
1.85792
2.07937
2.97709
7.62421
13.1921
1.92527
1.76585
1.79797
2.38534
4.59171
4.66002
1.99043
2.50976
3.11163
2.3248
4.18397
2.89108
2.85245
3.00797
29.6719
43.9071
32.7127
27.7716
21.7498
22.3161
25.0396
65.4796
71.8733
24.0422
12.6917
9.83372
13.4024
19.2437
20.3491
6.01795
6.71076
12.0319
15.4001
39.4921
38.4908
11.9153
7.19848
7.30267
14.7377
14.6845
6.50257
3.37795
3.56114
6.02512
4.44662
22.624
18.6849
9.40374
3.70796
3.65352
5.44055
5.85181
6.50588
9.97461
4.01662
4.81127
23.9197
18.96
9.64464
10.6459
15.4505
13.1087
7.89067
5.83685
13.1942
3.91416
6.675
18.6561
20.1202
10.0406
16.6979
9.40842
20.2095
20.6414
12.1097
4.62305
2.29253
6.63275
10.2527
10.1637
10.3145
10.474
6.26985
6.22931
7.1781
7.83686
11.8488
11.8305
8.42208
1.93907
1.3648
1.65489
5.02648
11.2761
11.3588
11.4898
11.6508
4.88299
1.82586
1.69955
1.79951
2.16011
3.35305
3.55578
1.71755
1.74549
1.77018
2.77331
4.59624
4.66885
2.18527
2.09241
4.1527
2.0615
2.01706
3.30885
8.05059
2.97691
27.5462
29.1263
63.2771
62.2663
23.0251
17.015
16.2532
34.9665
69.0731
66.8422
12.2346
17.0463
17.5073
25.8969
40.5055
7.22135
6.85962
7.593
11.4631
40.2365
21.1272
9.09896
7.27641
7.40812
9.16219
14.1867
3.485
3.34813
3.47777
6.05372
4.99497
23.3555
22.9281
19.4318
4.18344
3.27327
4.25453
4.27198
7.19909
7.08746
3.51929
4.32013
17.6012
10.5759
8.68124
14.2622
9.84729
6.99006
8.59516
5.7224
5.94267
3.75558
9.66807
9.67243
14.6859
10.0274
19.4629
9.39066
20.5072
9.58331
5.01188
3.31565
3.27634
7.50221
9.13874
10.3127
10.1547
8.63167
8.7622
8.33209
6.65919
5.34916
6.81199
10.9987
4.497
1.35315
1.37667
1.43362
4.02195
8.58343
11.4955
11.2813
5.10372
2.10023
1.67799
1.64259
1.73822
1.75901
2.27865
1.75312
1.71709
1.74335
1.77051
3.09728
4.61962
4.69825
3.298
2.07867
4.15707
2.02827
1.98195
8.1483
12.901
2.97533
27.375
28.8707
66.3477
66.0166
36.5591
16.7943
16.047
16.6602
30.1639
68.9793
12.0116
22.6221
22.5327
32.8131
42.8478
24.3492
9.26839
16.789
19.5022
33.1103
12.5088
8.34402
7.26569
7.39259
7.95883
8.89832
3.27717
3.29022
3.81323
3.91162
6.72
23.7038
23.2733
23.0651
4.68655
3.21346
3.35102
3.44788
3.98101
3.30684
2.79496
4.50394
12.0349
3.69396
6.92894
14.3194
14.6635
6.9797
11.2166
9.95006
4.31226
4.23987
8.73716
4.55634
6.30288
10.7075
19.6615
9.39599
13.2384
3.21094
3.17554
3.00758
4.24813
9.67536
10.2063
9.96921
6.05733
2.67627
2.49903
4.47317
6.79769
5.84297
3.16528
5.37798
2.47517
1.33857
1.61585
1.38427
2.09078
4.26604
5.97967
5.29634
2.95281
1.87765
1.53356
1.5317
1.65855
1.66857
2.18184
2.66151
2.44572
1.96502
1.78436
3.62713
4.58824
2.8737
4.11299
2.05568
4.16295
2.00064
2.39539
12.474
12.9926
4.59106
27.3164
28.8215
67.0934
67.405
57.4879
17.7688
15.885
18.0597
19.9232
70.0693
16.0201
22.9034
22.7656
21.4778
38.2269
33.4465
20.8778
23.5426
21.0079
17.7327
10.4638
8.40379
8.51829
7.45508
7.43056
6.97452
4.02909
3.30698
6.5954
3.8689
10.2764
24.0027
22.2995
23.4521
5.68852
3.16767
3.26486
3.42386
3.44831
2.87623
2.80779
5.07503
9.7969
3.17991
5.83397
14.4029
14.7109
7.70645
12.4398
12.5432
4.27206
5.8723
5.53862
2.69547
3.04096
11.7741
19.8181
11.689
6.04564
3.149
3.16036
2.9904
8.02118
10.2057
10.2874
6.44939
2.87602
1.70239
1.58043
3.40936
7.60885
8.13642
2.75112
2.75645
2.27061
1.57565
1.9895
1.39197
1.41475
2.41258
3.32672
3.54854
2.70086
1.78346
1.47628
1.46957
1.65048
1.75874
2.22929
2.86608
2.73745
2.64313
2.15476
3.63918
2.82458
2.26236
4.13644
2.04241
3.77337
2.5303
2.94788
12.9247
13.0861
5.39833
28.8242
45.7763
68.0537
68.2839
69.2748
49.7926
42.6354
41.6565
19.5189
22.9134
24.6779
24.099
17.3541
8.79294
11.9131
25.6069
24.8346
25.0873
20.6803
7.98743
7.46983
8.53509
8.90069
8.59045
6.12886
5.29054
5.34611
3.88672
7.77065
7.44875
13.3094
16.9469
14.7909
18.6415
8.73032
4.6388
6.09586
5.3474
3.09571
2.34938
2.67431
5.12874
7.0555
5.59947
8.64526
14.6505
13.8826
11.6084
10.2774
12.9331
9.18157
7.72368
3.05467
2.5244
2.7748
12.3163
20.1017
7.66603
3.47039
6.50472
8.58128
9.45313
10.4981
10.4497
9.23078
2.80524
1.4093
1.07063
1.20396
3.67023
8.80949
9.00981
8.42474
2.88975
1.87914
1.64495
1.89628
1.48828
1.02332
1.51963
2.37059
2.67152
2.19847
1.61158
1.37282
1.34653
1.53744
1.8765
1.87244
1.844
2.42551
2.69439
2.64772
3.59542
2.48276
2.14928
3.11912
2.39321
3.52676
7.47742
6.40291
7.82737
6.33952
4.2514
48.2216
36.4607
27.5335
44.1794
51.3234
50.9586
36.3453
20.6893
19.4306
11.3095
16.0631
10.3742
3.41483
3.23307
3.71207
3.46226
5.31747
3.14013
2.09727
1.64707
1.62668
1.77733
2.08611
2.24979
2.73106
2.6424
2.62902
3.57439
7.66125
8.49814
8.41911
7.78052
6.21015
5.12378
5.16973
8.30945
8.95778
9.32564
5.13274
2.44611
2.27744
2.16225
2.38328
2.85485
4.33567
10.8631
7.44613
3.36309
3.40629
6.89911
8.82107
7.36928
6.57625
5.55401
2.82415
6.77308
7.64411
4.48067
2.87505
3.3341
5.01603
6.14654
7.51117
7.66833
4.34972
2.15139
1.56576
1.33787
1.40422
1.60649
2.24791
2.71623
4.62723
5.37334
2.99438
1.18036
1.10557
1.08048
0.957177
0.951903
0.976869
1.00147
1.0467
1.11697
1.16632
1.21015
1.24706
1.27259
1.48448
1.46624
1.41396
1.53863
2.30661
3.65196
3.72418
2.66005
1.87275
1.89593
2.44925
4.69732
4.72477
4.2474
2.89586
2.11879
11.9662
5.49359
5.02703
7.79359
18.4397
21.1369
13.2543
4.88319
9.17426
6.4839
5.29538
2.85122
1.84529
1.37317
1.26048
1.12736
0.704715
0.55274
0.753689
0.969084
1.05166
1.1595
1.22845
1.31576
1.40758
1.48741
1.58804
1.66988
1.73032
2.16904
2.77245
2.6913
2.65973
4.55185
5.06965
4.95311
3.99121
3.17793
2.77153
2.34202
3.28741
3.39558
3.06254
2.46457
2.42394
4.24434
6.61326
3.4146
2.53316
3.2608
4.51027
6.14364
7.19352
7.03526
6.85869
5.87893
5.98518
6.04653
5.15305
3.18824
1.88263
1.48899
1.54048
1.83683
2.0991
1.90038
1.88838
1.82337
1.47359
1.17502
1.15771
1.32811
1.58271
2.01438
1.6158
1.48634
1.24184
1.18901
1.10239
0.98034
0.936571
0.96806
1.01466
1.06187
1.09506
1.11032
1.11494
1.10596
1.09211
1.11312
1.11837
1.17659
1.33234
1.97752
3.48626
4.12225
4.0279
2.66785
1.55938
1.557
1.61495
1.63714
1.61637
1.59474
2.80824
3.14442
3.96516
4.59896
7.34407
12.3892
8.1469
3.52416
2.69848
2.58682
1.82721
1.58522
1.59353
1.44939
1.18856
0.923863
0.757598
0.70782
0.79047
0.899582
1.02281
1.14978
1.27562
1.38084
1.50505
1.58936
1.66609
1.74911
1.71336
1.59451
1.46707
1.35349
1.31326
1.36843
1.52894
1.65154
1.86565
3.08343
3.80042
3.72929
2.49314
2.6102
4.76155
4.86853
3.00442
2.21561
2.43455
5.44588
6.47502
4.54423
3.53953
3.80262
4.68204
3.65309
3.51457
5.06627
4.29834
2.99702
2.50981
2.64728
1.85472
1.11289
0.630503
0.602762
0.717891
0.80063
0.833781
0.918045
1.09042
1.61263
1.60304
1.45742
1.05377
0.913295
0.896568
0.952071
1.15376
1.22689
1.28864
1.11053
0.975025
0.981339
1.0224
1.06717
1.10728
1.14044
1.16865
1.16361
1.14569
1.12257
1.11837
1.13588
1.17968
1.1888
1.25021
1.936
3.74061
4.06864
3.48625
1.77299
0.971601
1.02347
1.08149
1.13713
8.06972
9.19319
9.67865
5.70649
5.28716
6.43073
6.00961
3.74398
2.33005
1.92097
1.48279
1.29655
1.29093
1.17035
0.986958
0.831689
0.688412
0.638962
0.68188
0.744713
0.870276
0.965494
1.04735
1.1584
1.25726
1.32992
1.40063
1.4403
1.44565
1.44048
1.38743
1.30074
1.2188
1.16093
1.18216
1.22316
1.31418
1.41587
1.75946
2.71838
2.26516
2.24231
4.16637
6.30069
6.17946
3.13499
2.06496
2.2268
2.90363
3.71494
3.46613
2.61404
1.84828
1.04953
0.705827
0.563221
0.554842
1.27626
2.42447
2.62446
1.81354
0.92899
0.548753
0.437117
0.431612
0.471961
0.568111
0.671965
0.758413
0.792803
0.881546
0.985766
0.946666
0.815504
0.732785
0.734735
0.750458
0.812747
0.868257
0.921381
0.972814
0.997713
1.01696
1.0469
1.07068
1.0842
1.08575
1.07811
1.06653
1.05813
1.04669
1.04645
1.05871
1.05836
1.06878
1.10093
1.17014
2.39372
4.2785
4.33278
2.67336
1.19502
0.957525
1.00763
2.32482
3.75821
9.68021
10.8795
7.11357
3.93005
3.72101
3.24522
2.39791
1.93097
1.69674
1.64498
1.55606
1.35925
1.13425
0.908481
0.739649
0.675934
0.670181
0.718088
0.805468
0.914642
1.03244
1.15638
1.26792
1.36161
1.4322
1.4849
1.50453
1.47127
1.40237
1.34015
1.29653
1.27495
1.29914
1.36206
1.4287
1.50609
1.58135
1.69754
1.76699
1.82635
2.1572
4.59155
8.983
8.89797
5.63984
2.01503
1.43688
1.44615
1.60298
1.63718
1.50032
1.02809
0.566898
0.347572
0.429113
0.612353
0.931419
2.3855
2.05193
1.07708
0.563599
0.503866
0.529976
0.600885
0.802961
1.26694
1.23491
0.979436
0.865487
0.844237
0.832137
0.815643
0.801254
0.793846
0.803143
0.834301
0.8715
0.904766
0.938012
0.974497
1.01208
1.04682
1.08033
1.10383
1.12484
1.12601
1.11802
1.10334
1.08936
1.08039
1.07781
1.08616
1.0969
1.09691
1.0811
1.13871
2.32911
4.60369
4.58146
4.17132
2.13228
1.4969
0.16229
0.586048
2.21214
8.71854
9.8556
5.8548
3.1627
2.67371
2.29283
1.91058
1.68332
1.51703
1.31715
1.09433
0.873789
0.686664
0.544526
0.451741
0.450477
0.504377
0.614344
0.74984
0.903844
1.04808
1.16483
1.25455
1.32438
1.36455
1.35884
1.33957
1.31421
1.2872
1.24768
1.19819
1.18241
1.19542
1.23801
1.28368
1.31524
1.34682
1.38988
1.37157
1.34044
1.77194
4.96682
10.1511
10.053
8.47459
3.62916
0.955566
0.737633
0.668729
0.68437
0.645602
0.565301
0.450672
0.472138
0.589899
0.684814
1.37792
2.07011
1.80443
0.953468
0.519565
0.524984
0.559952
0.732413
1.58787
2.03996
1.37378
0.794763
0.737642
0.750185
0.751401
0.757172
0.772479
0.798745
0.826616
0.857559
0.895122
0.932047
0.967605
1.00234
1.03241
1.05468
1.06852
1.06921
1.06719
1.05951
1.05002
1.0422
1.03365
1.03293
1.02573
1.03591
1.05744
1.05701
1.03572
1.05529
1.2291
1.83228
3.10909
3.62115
3.62014
0.031201
0.117056
0.705721
3.01444
9.97866
7.61049
4.05362
2.43861
2.13493
1.85272
1.62386
1.42885
1.23003
1.00379
0.775436
0.55776
0.387889
0.315104
0.280883
0.328064
0.449815
0.607472
0.782044
0.942912
1.07887
1.18588
1.26137
1.31088
1.33139
1.34311
1.32704
1.30036
1.26666
1.23457
1.23639
1.27056
1.28819
1.29001
1.31298
1.33758
1.31059
1.27104
1.18886
1.07798
1.49008
4.93372
10.541
10.4488
10.3257
8.17112
3.06418
0.551513
0.371483
0.367754
0.39685
0.432169
0.475808
0.552137
0.624657
0.718878
1.68857
2.0627
1.5251
0.715826
0.572792
0.639412
0.764605
1.61421
2.25774
2.10774
1.24601
0.839575
0.83562
0.840059
0.840125
0.841734
0.845616
0.864369
0.887704
0.910692
0.938057
0.968483
0.998179
1.02896
1.05306
1.08178
1.09349
1.10086
1.10068
1.09394
1.08426
1.07592
1.06946
1.06094
1.05568
1.05068
1.04884
1.03575
1.02274
1.00633
0.98611
0.945916
0.934937
1.07629
-0.244847
-0.0132431
0.264061
0.957605
5.60282
8.55881
5.82282
2.56025
1.9459
1.72171
1.51251
1.30447
1.06763
0.789803
0.523022
0.293494
0.101604
-0.0444698
-0.0500093
0.0442884
0.214002
0.419026
0.632039
0.820145
0.977573
1.10083
1.18423
1.23489
1.2641
1.2583
1.25103
1.23954
1.21128
1.17586
1.16347
1.16187
1.14947
1.15775
1.18147
1.1507
1.10411
1.07437
1.02032
0.906067
0.760076
1.15371
4.14553
10.645
10.684
10.6398
7.55692
1.8073
0.304705
0.318865
0.359314
0.427011
0.499314
0.549546
0.578641
0.595123
0.896942
2.10842
1.80321
0.959361
0.587081
0.615664
0.682071
1.10773
2.25107
2.21129
1.34555
0.825731
0.786246
0.793212
0.800546
0.807374
0.824181
0.848519
0.873633
0.899294
0.929544
0.961007
0.992233
1.02015
1.04422
1.05859
1.06445
1.06364
1.05808
1.05034
1.04222
1.03622
1.03909
1.03555
1.0312
1.01701
1.00672
0.992086
0.976255
0.970121
0.973483
0.913351
0.897163
0.917101
-0.743135
-0.43519
-0.0272454
0.295011
2.02482
8.17057
6.70193
3.22139
1.68602
1.50121
1.30551
1.07641
0.789502
0.500792
0.424457
0.569411
0.379318
0.046669
-0.304465
-0.290649
-0.0609817
0.208492
0.468531
0.692336
0.877774
1.01871
1.11199
1.17359
1.2122
1.22802
1.23202
1.21851
1.19313
1.16795
1.15757
1.15933
1.1623
1.15059
1.11195
1.06674
1.06244
1.00938
0.892709
0.802869
0.695143
0.525596
0.768513
2.5466
8.7091
10.8209
10.9171
5.63367
0.794579
0.294544
0.34791
0.420117
0.507876
0.554697
0.564035
0.564939
0.599699
1.28284
1.85808
1.46973
0.812583
0.632445
0.695152
0.829867
1.7832
2.33472
1.90812
1.08227
0.867792
0.864467
0.861621
0.857797
0.86129
0.87043
0.884191
0.907505
0.933857
0.962856
0.992879
1.01965
1.04858
1.06612
1.07798
1.08614
1.08868
1.08623
1.07952
1.07692
1.07508
1.06372
1.05366
1.04197
1.03418
1.01177
0.983599
0.961206
0.947329
0.943087
0.935355
0.926748
-1.11669
-0.998101
-0.630149
-0.150627
0.264845
4.32934
8.47023
4.81758
1.6211
1.17837
0.994697
0.745496
0.433564
0.226324
1.27616
2.47487
2.1984
0.987541
-0.242379
-0.640502
-0.349096
0.00130596
0.311682
0.57049
0.787014
0.945964
1.03703
1.10453
1.1541
1.17563
1.18002
1.16869
1.1433
1.11514
1.10328
1.09436
1.06973
1.03357
1.00679
0.97668
0.900183
0.810024
0.729499
0.627826
0.524653
0.361711
0.187033
0.0870232
1.1429
3.642
6.22696
5.21976
2.0296
0.432604
0.356706
0.423642
0.479544
0.525521
0.531505
0.526828
0.531707
0.632144
1.4162
1.64655
1.42746
0.843581
0.67322
0.733032
0.979818
2.22885
2.09302
1.22616
0.852645
0.83903
0.830338
0.827302
0.831334
0.842589
0.866921
0.892956
0.922565
0.955812
0.988745
1.01927
1.04211
1.0576
1.06458
1.06497
1.06097
1.05337
1.0436
1.03788
1.02907
1.0162
1.00637
1.0023
0.995416
0.984634
0.967678
0.950194
0.919695
0.907119
0.899405
0.896126
-1.31809
-1.45074
-1.4046
-0.822967
-0.446617
1.48584
7.9921
6.20932
2.11257
0.757673
0.587287
0.34429
0.0796669
0.545398
2.44122
1.92477
1.70186
1.85703
0.234132
-0.897557
-0.590126
-0.174317
0.189407
0.495173
0.72441
0.873886
0.99295
1.06935
1.10942
1.13201
1.14106
1.1312
1.11216
1.09332
1.07855
1.06084
1.03535
0.998774
0.948142
0.878926
0.788709
0.688759
0.596496
0.49943
0.353748
0.205406
0.0671762
-0.0225494
-0.139731
-0.0514304
0.386499
0.835012
0.84207
0.67758
0.533946
0.499031
0.50445
0.510164
0.5136
0.518063
0.524258
0.542427
0.702393
1.55578
1.82651
1.50683
0.873398
0.738564
0.820036
1.27874
2.09353
1.51415
0.986486
0.882161
0.86429
0.852218
0.850108
0.857386
0.867931
0.890533
0.919901
0.955572
0.991192
1.02568
1.05114
1.06663
1.07476
1.07912
1.08131
1.07826
1.06916
1.05995
1.04577
1.03564
1.02054
1.0058
0.994663
0.983873
0.974794
0.962801
0.946061
0.929116
0.919873
0.910403
-1.16997
-1.8729
-1.93094
-1.58491
-1.08195
-0.508823
4.90392
8.303
3.72261
0.472016
0.115307
-0.10786
-0.383712
1.78645
1.99796
1.39774
1.1918
1.05237
-0.636701
-1.09503
-0.668401
-0.244119
0.150776
0.447661
0.662241
0.821612
0.952208
1.03634
1.07368
1.09943
1.10376
1.09548
1.07704
1.05442
1.03264
1.0046
0.963736
0.912141
0.853952
0.768666
0.659633
0.560857
0.453636
0.309594
0.157014
0.0632609
-0.0354717
-0.0932623
-0.132501
-0.144615
-0.0782312
0.0743171
0.231874
0.348959
0.421182
0.499678
0.526805
0.524082
0.4881
0.480329
0.48911
0.507188
0.549235
1.01272
1.86725
1.91401
1.33514
0.799836
0.781873
0.882373
1.41388
1.53285
1.19508
0.894886
0.85447
0.839043
0.827897
0.829016
0.843554
0.869989
0.902177
0.946681
0.989397
1.02795
1.05631
1.07187
1.07307
1.06932
1.06067
1.04916
1.03308
1.01948
1.00391
0.991793
0.983146
0.977125
0.968349
0.954817
0.941729
0.930108
0.918277
0.908424
0.899618
0.892684
-1.70766
-1.85163
-2.18782
-2.28294
-1.87378
-1.4855
1.85999
7.88237
5.56099
0.813467
-0.366807
-0.595139
-0.907145
0.0307415
1.65851
1.13625
0.823465
-0.811546
-1.40899
-0.999186
-0.618471
-0.191758
0.192509
0.447203
0.649281
0.815216
0.935233
1.01745
1.06146
1.07746
1.07261
1.06843
1.05087
1.0283
1.00119
0.965425
0.920149
0.86391
0.788939
0.683258
0.559347
0.430977
0.282125
0.119492
-0.00358862
-0.0648588
-0.132551
-0.157088
-0.121265
-0.0781454
0.00946129
0.137276
0.247471
0.34136
0.397541
0.433268
0.486252
0.512383
0.494332
0.471195
0.474656
0.492218
0.52384
0.637621
1.49067
1.96831
1.87412
1.08883
0.78715
0.839736
0.963875
1.28916
1.31676
1.27887
1.21837
1.09576
0.94928
0.847899