/*--------------------------------*- C++ -*----------------------------------*\
| =========                 |                                                 |
| \\      /  F ield         | OpenFOAM: The Open Source CFD Toolbox           |
|  \\    /   O peration     | Version:  v1912                                 |
|   \\  /    A nd           | Website:  www.openfoam.com                      |
|    \\/     M anipulation  |                                                 |
\*---------------------------------------------------------------------------*/
FoamFile
{
    version     2.0;
    format      ascii;
    class       volScalarField;
    location    "70";
    object      k;
}
// * * * * * * * * * * * * * * * * * * * * * * * * * * * * * * * * * * * * * //

dimensions      [0 2 -2 0 0 0 0];


internalField   nonuniform List<scalar> 
14268
(
0.0240147
0.0543477
0.0278685
0.0412757
0.0286912
0.016781
0.0204567
0.022886
0.017093
0.0271589
0.0100432
0.0338474
0.0176214
0.0539405
0.0287107
0.00722267
0.0210203
0.0123555
0.0962264
0.113019
0.0408421
0.025721
0.0486337
0.0392338
0.0122009
0.00776684
0.0115863
0.0288236
0.0262426
0.0182951
0.0321714
0.0451642
0.0132515
0.00741561
0.0336461
0.0305385
0.0241156
0.0195699
0.0184899
0.0158662
0.0142833
0.0214647
0.0254823
0.0198296
0.0148858
0.0149369
0.0228679
0.0345257
0.0423327
0.0446972
0.0466237
0.0475488
0.0535667
0.0587995
0.00808002
0.00724188
0.0333928
0.0508793
0.0690665
0.078453
0.0945537
0.0780629
0.0321602
0.0082706
0.00405921
0.00244076
0.00285614
0.00724453
0.014276
0.0270075
0.0393515
0.0450329
0.0461134
0.0445541
0.0459352
0.0489493
0.0545794
0.0604311
0.0675624
0.0744348
0.078669
0.0808355
0.0833285
0.0865445
0.0843712
0.078184
0.0677808
0.0550047
0.0401843
0.0277054
0.021621
0.019641
0.0194257
0.0191568
0.0174537
0.0132067
0.00763737
0.0060154
0.00513237
0.00412462
0.00395279
0.00416022
0.00426062
0.00418101
0.129407
0.204802
0.10474
0.0855989
0.0502745
0.0370227
0.103034
0.0949746
0.0766191
0.120955
0.0325537
0.0943744
0.0368501
0.161601
0.110997
0.0294228
0.0879522
0.0330997
0.270763
0.335353
0.134419
0.0947632
0.211698
0.183684
0.0356759
0.0318723
0.04597
0.103397
0.0885068
0.0755777
0.117723
0.173811
0.0380888
0.0310451
0.127645
0.105816
0.0826678
0.0695753
0.0663748
0.0554138
0.0491755
0.0678448
0.0770581
0.0611891
0.0503879
0.0541289
0.0845183
0.123457
0.145738
0.139227
0.132332
0.130128
0.157939
0.17246
0.0284314
0.0298746
0.112888
0.173354
0.231228
0.259408
0.306219
0.25138
0.102521
0.030347
0.0216031
0.012185
0.0140695
0.0276168
0.0496379
0.0943145
0.139052
0.159291
0.163301
0.157638
0.161293
0.169922
0.186708
0.204695
0.227547
0.249155
0.262486
0.268781
0.276559
0.285813
0.279228
0.258957
0.225679
0.183258
0.133489
0.0933552
0.0754589
0.0706345
0.0707731
0.0705795
0.0642134
0.0468875
0.0252201
0.0195113
0.0189689
0.018
0.0191591
0.0202771
0.0200232
0.0185601
0.267622
0.229589
0.166366
0.0571549
0.0293625
0.0302051
0.316257
0.17434
0.159125
0.187088
0.0960181
0.12735
0.037088
0.185919
0.195078
0.0619489
0.14085
0.0510485
0.538321
0.630022
0.262169
0.203736
0.351959
0.364107
0.0972997
0.0779249
0.0842104
0.148076
0.118376
0.125808
0.201693
0.313279
0.0688229
0.0772065
0.214584
0.156229
0.113234
0.109578
0.109374
0.0882835
0.0716826
0.0891709
0.0981339
0.0733931
0.0612513
0.0734316
0.141314
0.197003
0.21282
0.17195
0.145438
0.14569
0.199603
0.236876
0.0322722
0.0576615
0.176788
0.273533
0.36255
0.403285
0.470794
0.386628
0.163921
0.0413418
0.0258846
0.0278926
0.027096
0.0424543
0.0776224
0.152837
0.223798
0.257015
0.263087
0.254762
0.257797
0.268968
0.291455
0.317827
0.351866
0.383858
0.403661
0.41263
0.424662
0.437241
0.427511
0.396379
0.346998
0.284394
0.208879
0.142845
0.115984
0.112086
0.115441
0.118891
0.109772
0.0836073
0.0463198
0.0271414
0.0269158
0.0310852
0.0342998
0.0326086
0.0295733
0.0286208
0.236488
0.168378
0.0955547
0.0667946
0.0336636
0.114774
0.619545
0.266256
0.140401
0.183648
0.169023
0.111755
0.0445581
0.131422
0.25447
0.0918643
0.178447
0.084677
0.797621
0.74064
0.343728
0.318928
0.331735
0.412327
0.206442
0.195424
0.139076
0.168915
0.134666
0.137099
0.256027
0.421066
0.108931
0.15907
0.281038
0.152878
0.0969921
0.0923589
0.0986844
0.0889
0.0712758
0.119028
0.133946
0.0933475
0.0631115
0.075811
0.155416
0.222597
0.20538
0.138034
0.104574
0.114337
0.17408
0.232242
0.0401986
0.0840494
0.222897
0.33883
0.444392
0.488639
0.558747
0.463058
0.20277
0.0386528
0.0198888
0.0415234
0.0454451
0.0561854
0.106731
0.198127
0.284254
0.324842
0.332271
0.322735
0.323943
0.335133
0.357421
0.386826
0.425383
0.460925
0.483797
0.494467
0.509147
0.522026
0.511132
0.473764
0.416707
0.346003
0.261359
0.17978
0.134917
0.125294
0.129169
0.134732
0.129257
0.11238
0.0729076
0.037319
0.0310269
0.0371325
0.0480274
0.0508668
0.0476858
0.0449697
0.153967
0.105882
0.0504571
0.153144
0.153383
0.436283
0.844419
0.350367
0.11487
0.215161
0.129379
0.0977962
0.0824937
0.0849752
0.199859
0.164074
0.260054
0.161825
1.057
0.651877
0.364565
0.364046
0.312133
0.383202
0.303992
0.338015
0.248529
0.204159
0.16978
0.147074
0.341712
0.539659
0.175087
0.255483
0.353231
0.170689
0.0908936
0.0688872
0.0729905
0.0681279
0.0861921
0.178992
0.200608
0.148308
0.0995235
0.104918
0.16602
0.212837
0.173872
0.101555
0.0818988
0.132043
0.201012
0.289965
0.0561855
0.116959
0.273028
0.405441
0.531786
0.579672
0.656563
0.546635
0.24649
0.0333831
0.0157219
0.0418179
0.0483174
0.0714942
0.134777
0.240052
0.339282
0.388137
0.396906
0.385155
0.384456
0.394648
0.419341
0.453223
0.497421
0.537927
0.564661
0.576865
0.594563
0.607964
0.595864
0.551396
0.485645
0.404874
0.311513
0.222028
0.164019
0.144467
0.140329
0.137034
0.130982
0.116397
0.0866165
0.047983
0.0371918
0.0380816
0.0477127
0.0604339
0.0631798
0.0599258
0.0746326
0.0633511
0.0388111
0.374098
0.438105
0.699053
1.01915
0.333772
0.0895978
0.387072
0.102418
0.13808
0.246846
0.116173
0.126414
0.210159
0.318578
0.284319
1.18175
0.574884
0.39277
0.336365
0.334734
0.32668
0.3545
0.4295
0.31868
0.237111
0.231575
0.171677
0.425522
0.573383
0.239751
0.331835
0.411079
0.227988
0.127296
0.060927
0.0527895
0.0531136
0.115688
0.214055
0.223435
0.198973
0.155381
0.153846
0.180618
0.175913
0.125118
0.0732898
0.115226
0.193466
0.263396
0.364318
0.075054
0.150221
0.315127
0.453542
0.591485
0.637653
0.707139
0.597632
0.275563
0.0316054
0.0128548
0.0346074
0.0407764
0.086222
0.157079
0.272015
0.382675
0.436969
0.446246
0.43226
0.429656
0.438784
0.461925
0.497794
0.544454
0.586395
0.613206
0.625859
0.645333
0.658964
0.646928
0.598446
0.528504
0.443163
0.345934
0.25662
0.20266
0.182196
0.172479
0.161348
0.148461
0.123989
0.0951686
0.0591966
0.0444837
0.0404328
0.0422354
0.0522795
0.0652558
0.0701828
0.0686248
0.153353
0.0913175
0.565024
0.602498
0.920912
1.18432
0.306454
0.129558
0.711595
0.145824
0.137596
0.416713
0.383762
0.0664403
0.241936
0.318788
0.429311
1.13499
0.495885
0.491534
0.352853
0.529768
0.317986
0.39144
0.474739
0.347446
0.292686
0.357534
0.245909
0.492233
0.515825
0.295558
0.321529
0.431929
0.284207
0.202748
0.10116
0.0770828
0.0776164
0.139194
0.207624
0.206629
0.224108
0.211636
0.207161
0.196466
0.13867
0.0945966
0.0885549
0.191584
0.242126
0.261656
0.392475
0.111885
0.182357
0.356211
0.505564
0.658985
0.685912
0.722042
0.645199
0.309886
0.0373799
0.00987819
0.0303552
0.0454018
0.0995738
0.178135
0.304427
0.424995
0.484821
0.494762
0.479166
0.474986
0.484217
0.507989
0.54692
0.596704
0.640589
0.667951
0.681018
0.70254
0.715674
0.702834
0.647793
0.572124
0.481207
0.379257
0.287927
0.235698
0.218334
0.213274
0.206048
0.189201
0.153758
0.109501
0.0707363
0.0521099
0.0470386
0.0450723
0.0448063
0.0588065
0.0751487
0.254009
0.461294
0.246
0.639056
0.59131
0.957488
1.26052
0.285664
0.319313
0.947178
0.246822
0.0871565
0.545239
0.625575
0.100348
0.231826
0.271247
0.511831
1.00409
0.399229
0.611433
0.515043
0.772533
0.353109
0.419558
0.547016
0.396616
0.377398
0.499578
0.385105
0.485934
0.430586
0.341904
0.269017
0.370916
0.28563
0.268004
0.171589
0.138063
0.118114
0.122
0.172491
0.169672
0.200314
0.247914
0.246994
0.196415
0.122919
0.10332
0.145315
0.248817
0.288039
0.213622
0.352251
0.150371
0.197841
0.390132
0.545202
0.70841
0.679491
0.685262
0.654632
0.333992
0.0478215
0.00840789
0.0271974
0.0531711
0.111469
0.194334
0.329131
0.45866
0.523423
0.534272
0.517622
0.513083
0.52117
0.542671
0.582012
0.632701
0.676789
0.704431
0.717744
0.740674
0.754232
0.742219
0.682231
0.601555
0.506692
0.402948
0.311808
0.261146
0.246207
0.244449
0.239889
0.222748
0.182985
0.127013
0.0835515
0.0649363
0.0562018
0.0517821
0.0513584
0.0613942
0.079813
0.427589
0.689532
0.394385
0.663925
0.57947
0.931861
1.25284
0.292587
0.547652
0.930824
0.368504
0.100898
0.635632
0.633433
0.323821
0.223436
0.220908
0.593655
0.901545
0.306026
0.653506
0.764404
0.959853
0.365909
0.450323
0.650281
0.453133
0.521481
0.627136
0.532925
0.432708
0.37658
0.351312
0.214927
0.297157
0.241087
0.307255
0.238084
0.197941
0.163448
0.105922
0.142653
0.154207
0.172435
0.25199
0.279688
0.211809
0.15239
0.162744
0.1962
0.296272
0.345772
0.202504
0.30581
0.172249
0.190217
0.423324
0.587465
0.763129
0.650943
0.649648
0.656836
0.359768
0.0604295
0.0103945
0.0296628
0.0621022
0.123577
0.210446
0.354831
0.493605
0.564396
0.577083
0.559565
0.553503
0.559795
0.578292
0.618518
0.670479
0.714934
0.74279
0.756465
0.780926
0.794075
0.783194
0.718325
0.632638
0.531868
0.424733
0.333946
0.284373
0.271269
0.272009
0.269364
0.25201
0.208937
0.143828
0.0963687
0.0803953
0.0730158
0.0677601
0.0681241
0.0754923
0.0894307
0.464644
0.843721
0.48201
0.735417
0.606238
1.06084
1.38343
0.434501
0.634856
0.803897
0.520623
0.318839
0.643623
0.578405
0.521833
0.299906
0.166154
0.591553
0.792993
0.262831
0.583747
0.876293
1.09465
0.361235
0.406985
0.660035
0.469631
0.645557
0.737791
0.659987
0.352244
0.349708
0.281219
0.161977
0.21281
0.191523
0.289349
0.275862
0.24433
0.207806
0.128871
0.144102
0.181221
0.166283
0.22484
0.274017
0.236728
0.207602
0.220364
0.233612
0.333001
0.395769
0.257001
0.249906
0.140354
0.156042
0.452751
0.621207
0.779328
0.608888
0.608331
0.637442
0.376692
0.0709433
0.0255758
0.0328678
0.072923
0.134569
0.223589
0.375102
0.523016
0.600549
0.614457
0.595066
0.587106
0.590113
0.605046
0.644931
0.696692
0.736214
0.761808
0.779235
0.809276
0.822733
0.814096
0.745273
0.657006
0.551405
0.441151
0.350575
0.302991
0.292096
0.294987
0.293807
0.27651
0.231567
0.159078
0.107478
0.0929055
0.0889613
0.0847191
0.0852466
0.090538
0.100228
0.390126
1.00259
0.594801
0.894286
0.807628
1.33012
1.5839
0.753587
0.767891
0.693736
0.641669
0.566368
0.712663
0.52923
0.517349
0.450922
0.114384
0.466737
0.693648
0.356901
0.474382
0.865573
1.21178
0.416287
0.350825
0.59336
0.468585
0.738366
0.847993
0.777181
0.292728
0.360457
0.21065
0.119614
0.132829
0.165855
0.248481
0.257935
0.284391
0.251562
0.179123
0.193912
0.239052
0.187648
0.189411
0.24378
0.239178
0.250909
0.269909
0.266874
0.365166
0.438733
0.312468
0.216279
0.100555
0.123248
0.481516
0.656254
0.749859
0.577429
0.574797
0.602277
0.389803
0.0807634
0.0473669
0.0443091
0.0834899
0.145302
0.236822
0.396232
0.554988
0.638667
0.653441
0.632111
0.621625
0.621573
0.631745
0.67045
0.712393
0.733597
0.754701
0.779971
0.827098
0.84996
0.843461
0.770928
0.680718
0.571412
0.457072
0.36562
0.319583
0.311313
0.316408
0.3167
0.299268
0.253032
0.17644
0.118006
0.100995
0.0983881
0.0963227
0.0966467
0.0997458
0.106544
0.298372
1.03937
0.693107
1.00155
1.00812
1.37818
1.54531
1.02866
0.938858
0.582843
0.544889
0.641938
0.891079
0.579389
0.501512
0.610387
0.0784608
0.381738
0.600178
0.443869
0.385947
0.781412
1.24968
0.572627
0.286513
0.526652
0.431872
0.769986
0.868735
0.878157
0.280617
0.408608
0.176206
0.0781459
0.0726874
0.17324
0.210116
0.213202
0.278724
0.266189
0.207202
0.244691
0.291144
0.226006
0.164978
0.201988
0.214315
0.249613
0.290647
0.292227
0.390725
0.474439
0.344565
0.2222
0.0992688
0.116591
0.506437
0.68687
0.699687
0.541854
0.536226
0.555568
0.392888
0.0892095
0.0673752
0.0606733
0.0929359
0.154892
0.248037
0.414043
0.582497
0.672002
0.686963
0.663576
0.650614
0.646675
0.65205
0.67907
0.694673
0.700889
0.720095
0.748384
0.811056
0.870019
0.867011
0.79071
0.699486
0.587772
0.471052
0.377653
0.332272
0.326612
0.334411
0.336611
0.319109
0.271959
0.194696
0.131032
0.108543
0.103669
0.102093
0.102077
0.1037
0.108662
0.229701
1.0007
0.834027
0.996163
1.0977
1.29759
1.42636
1.25206
0.959764
0.481226
0.445834
0.784608
1.04905
0.888962
0.611552
0.80613
0.11752
0.297785
0.498495
0.459601
0.377635
0.696365
1.25164
0.7736
0.263021
0.561783
0.372018
0.70414
0.784577
0.936615
0.352838
0.504819
0.209085
0.0400565
0.0594681
0.22424
0.212906
0.186825
0.250022
0.248995
0.198911
0.263369
0.339055
0.27251
0.174535
0.163231
0.180654
0.222311
0.270459
0.305443
0.413418
0.506547
0.331944
0.202652
0.120753
0.130891
0.528221
0.716601
0.650642
0.505206
0.496525
0.511686
0.393228
0.0976191
0.08549
0.0759502
0.101855
0.164032
0.259173
0.432331
0.611676
0.706387
0.721721
0.696266
0.680585
0.672373
0.666654
0.66995
0.659781
0.66176
0.680285
0.708703
0.776474
0.883824
0.888737
0.808742
0.71693
0.602845
0.484722
0.390024
0.344071
0.340286
0.350287
0.355058
0.337457
0.288348
0.209975
0.145328
0.118689
0.110611
0.106515
0.105242
0.106488
0.110341
0.207505
0.886568
0.938061
0.845779
1.0811
1.16446
1.27061
1.22802
0.823041
0.369697
0.336341
1.01463
1.19889
1.18986
0.884136
1.00665
0.301573
0.20884
0.388712
0.389069
0.412541
0.602318
1.23959
0.924956
0.350986
0.732235
0.338727
0.617538
0.7011
0.893229
0.47084
0.60308
0.268672
0.0177351
0.093363
0.295363
0.268718
0.205276
0.228622
0.218033
0.175073
0.265812
0.380588
0.313635
0.210126
0.150186
0.151399
0.185988
0.227208
0.289433
0.426666
0.530201
0.278465
0.153124
0.127937
0.151115
0.546303
0.740597
0.600892
0.464283
0.455916
0.46551
0.389622
0.105975
0.10314
0.0902413
0.11046
0.172367
0.268964
0.448764
0.637264
0.737015
0.752237
0.724686
0.706253
0.692598
0.664393
0.637711
0.616942
0.618562
0.636136
0.664612
0.735404
0.881372
0.906356
0.822814
0.731106
0.614988
0.496121
0.401582
0.354761
0.352039
0.363813
0.371146
0.354003
0.302041
0.22073
0.155859
0.130792
0.120874
0.114556
0.111606
0.111888
0.114372
0.262053
0.669089
0.604305
0.665672
0.923519
0.947878
1.04062
1.00041
0.601095
0.214342
0.202698
1.27224
1.34486
1.3907
1.21421
1.23333
0.605182
0.112621
0.265553
0.274168
0.442921
0.488853
1.20724
1.1135
0.598518
0.840505
0.332054
0.480732
0.575714
0.774529
0.612593
0.729914
0.348294
0.0299056
0.158872
0.402217
0.371785
0.284562
0.236587
0.183242
0.142256
0.278122
0.417612
0.37563
0.273557
0.181473
0.135943
0.139089
0.164162
0.240198
0.431191
0.55925
0.222012
0.107891
0.127523
0.178191
0.57246
0.77725
0.5534
0.410796
0.398958
0.400916
0.378874
0.119077
0.130527
0.111151
0.123328
0.184172
0.283525
0.473756
0.677606
0.784936
0.799816
0.769211
0.746344
0.719179
0.642187
0.576332
0.551647
0.552412
0.568319
0.596869
0.671173
0.84946
0.92581
0.841417
0.750706
0.631373
0.511373
0.418603
0.372022
0.370332
0.384385
0.394519
0.378014
0.322413
0.234791
0.166685
0.144591
0.137154
0.131327
0.127189
0.125835
0.126434
0.313102
0.566177
0.383643
0.464129
0.656129
0.858312
0.8569
0.741113
0.370299
0.129729
0.131645
1.33446
1.18916
1.21392
1.19909
1.36149
0.700596
0.0701056
0.340285
0.236061
0.402627
0.461709
1.11662
1.09024
0.894723
0.708709
0.192337
0.296763
0.404604
0.598611
0.635081
0.778713
0.410003
0.108443
0.221128
0.501099
0.459301
0.383925
0.318465
0.203673
0.130144
0.259609
0.372549
0.422335
0.348845
0.239997
0.156247
0.132982
0.135578
0.210617
0.444463
0.582639
0.302049
0.126801
0.142199
0.205622
0.610516
0.819441
0.587997
0.399176
0.373982
0.351488
0.334122
0.128656
0.172079
0.139773
0.139014
0.196753
0.299033
0.500829
0.717628
0.828615
0.841684
0.812744
0.78521
0.72936
0.593436
0.505383
0.47407
0.463987
0.467793
0.495885
0.57351
0.762556
0.918921
0.853572
0.767775
0.644186
0.523319
0.433983
0.39077
0.392951
0.410503
0.423457
0.407533
0.3498
0.25721
0.177141
0.14923
0.147592
0.150172
0.149728
0.148735
0.149759
0.262319
0.92355
0.224244
0.299978
0.445761
1.08724
0.84376
0.627579
0.220114
0.316438
0.228491
1.2158
0.929369
1.0259
1.15191
1.43187
0.712326
0.124467
0.615417
0.440379
0.352162
0.54052
0.987253
0.916274
1.06738
0.553133
0.124168
0.179118
0.24748
0.414833
0.578833
0.761371
0.449743
0.194175
0.284434
0.537013
0.424237
0.390012
0.363273
0.276706
0.150875
0.202586
0.293967
0.388584
0.378024
0.263489
0.154468
0.154117
0.16714
0.243833
0.478498
0.553984
0.380212
0.183685
0.149874
0.230966
0.653857
0.851647
0.678652
0.477558
0.435957
0.382468
0.281798
0.130958
0.219441
0.159707
0.141224
0.208794
0.31471
0.525079
0.741649
0.839608
0.848447
0.836467
0.811784
0.74088
0.57525
0.480077
0.439694
0.411911
0.392905
0.415894
0.479358
0.663947
0.869059
0.85357
0.777102
0.648806
0.526588
0.441647
0.402278
0.407383
0.427608
0.444782
0.43422
0.376608
0.2821
0.193898
0.151394
0.148533
0.157798
0.167327
0.169797
0.172172
0.187096
0.92193
0.250999
0.153984
0.315778
0.992859
0.739386
0.898829
0.231895
0.276265
0.304615
1.03415
0.700191
0.838462
1.11352
1.37345
0.718932
0.218874
0.870497
0.605355
0.275663
0.625293
0.863212
0.704254
0.880693
0.374487
0.261074
0.231591
0.116476
0.231189
0.428747
0.712601
0.462483
0.257514
0.334975
0.520624
0.322656
0.315346
0.322239
0.342213
0.179511
0.132386
0.207005
0.307417
0.328015
0.21793
0.158964
0.175311
0.196379
0.262369
0.485256
0.495385
0.431049
0.220481
0.156449
0.255516
0.69473
0.866226
0.744142
0.555592
0.46384
0.436693
0.250801
0.126476
0.258711
0.155023
0.134635
0.220308
0.328308
0.540622
0.737889
0.808418
0.810477
0.808251
0.803502
0.744992
0.576464
0.476384
0.43295
0.398201
0.36384
0.378877
0.419396
0.557581
0.78311
0.831855
0.767245
0.631837
0.51094
0.429673
0.390406
0.394873
0.416751
0.440424
0.445833
0.397936
0.303502
0.215861
0.160106
0.146768
0.157046
0.175102
0.187008
0.192404
0.126872
0.799245
0.378958
0.0588205
0.279971
0.875136
0.631686
1.18624
0.293465
0.162006
0.360412
0.959479
0.521412
0.645542
0.950534
1.22632
0.762296
0.295929
0.996713
0.720277
0.229629
0.712668
0.758365
0.534494
0.700551
0.239766
0.387013
0.376753
0.0511032
0.111389
0.321515
0.671074
0.469571
0.311552
0.388666
0.467363
0.226387
0.216757
0.242558
0.346116
0.214523
0.104377
0.151985
0.220089
0.24213
0.1608
0.17702
0.210759
0.224618
0.275184
0.463805
0.435889
0.440327
0.252536
0.172642
0.278509
0.735355
0.870537
0.751727
0.593182
0.431932
0.456853
0.257208
0.129253
0.235934
0.121983
0.135674
0.231038
0.341586
0.550665
0.72541
0.769602
0.764556
0.760381
0.764519
0.731828
0.573951
0.472632
0.427203
0.392206
0.352369
0.362801
0.396512
0.479483
0.685109
0.790371
0.72885
0.590465
0.484064
0.401962
0.355178
0.361959
0.389279
0.417818
0.43806
0.408067
0.321355
0.237133
0.178687
0.151059
0.154949
0.173516
0.196646
0.21078
0.0966457
0.658396
0.505402
0.0427425
0.328045
0.737289
0.514649
1.19551
0.315604
0.069628
0.398682
0.907004
0.414801
0.48333
0.782249
1.06576
0.812415
0.364837
0.916409
0.734819
0.230826
0.672828
0.656875
0.451093
0.507679
0.165745
0.408637
0.468032
0.0834685
0.0832155
0.286552
0.615146
0.463421
0.344778
0.41416
0.392607
0.179045
0.155448
0.17033
0.299615
0.239756
0.115608
0.150282
0.162574
0.172422
0.162081
0.202207
0.239421
0.246391
0.280019
0.423971
0.37565
0.412547
0.268071
0.189894
0.298856
0.766295
0.863586
0.710025
0.56884
0.381838
0.427568
0.274164
0.140467
0.182027
0.0856811
0.14564
0.239637
0.352158
0.553212
0.704926
0.7268
0.715972
0.706688
0.707704
0.690063
0.554217
0.456311
0.407898
0.377279
0.341132
0.349103
0.379333
0.443085
0.588731
0.727662
0.662726
0.551042
0.467147
0.385558
0.326437
0.323038
0.35862
0.390542
0.416644
0.403375
0.332368
0.255755
0.199973
0.16602
0.159891
0.174232
0.203277
0.227145
0.0931518
0.551928
0.575296
0.0987459
0.396495
0.603872
0.398932
1.08184
0.306214
0.0542727
0.41321
0.781271
0.342947
0.384828
0.639439
0.939905
0.794006
0.426109
0.791374
0.628143
0.216611
0.592612
0.571057
0.436687
0.389187
0.118087
0.35148
0.448478
0.156771
0.117697
0.284692
0.560691
0.453477
0.344667
0.384893
0.332037
0.178681
0.150194
0.13518
0.247401
0.235971
0.132265
0.167344
0.16723
0.161513
0.180742
0.226715
0.266517
0.269039
0.28219
0.374143
0.318697
0.363058
0.265289
0.199023
0.31763
0.780414
0.846638
0.664495
0.514454
0.330001
0.379117
0.278072
0.149947
0.129924
0.0834019
0.156878
0.247155
0.359778
0.549147
0.679221
0.690716
0.671828
0.657025
0.654224
0.636432
0.52303
0.430153
0.379557
0.35149
0.329132
0.336528
0.36429
0.418713
0.520603
0.658539
0.603654
0.529767
0.4636
0.388641
0.323155
0.299291
0.331338
0.364119
0.393428
0.391786
0.338373
0.272149
0.219758
0.186143
0.176257
0.186952
0.215754
0.243062
0.168522
0.228603
0.410365
0.347746
0.387527
0.16347
0.109863
0.369236
0.218541
0.122793
0.324666
0.262394
0.143753
0.12173
0.203614
0.406963
0.431779
0.454139
0.170073
0.125026
0.0548199
0.157938
0.18041
0.254618
0.109591
0.108082
0.104649
0.151491
0.187062
0.270736
0.269803
0.232124
0.387611
0.228402
0.132766
0.0838576
0.114501
0.147102
0.108459
0.0734094
0.10348
0.190495
0.248302
0.262483
0.278863
0.303705
0.337201
0.362153
0.367179
0.301978
0.198683
0.155599
0.167328
0.212374
0.192334
0.385859
0.777681
0.702087
0.431221
0.26275
0.170019
0.169208
0.216612
0.133009
0.0550373
0.111371
0.196358
0.286814
0.38243
0.488109
0.511374
0.490913
0.44408
0.411193
0.393488
0.379166
0.370259
0.318585
0.279694
0.265675
0.287474
0.293115
0.310979
0.342777
0.370011
0.426962
0.445905
0.455971
0.437248
0.390701
0.324479
0.249161
0.224603
0.239297
0.27882
0.331332
0.357964
0.342892
0.307641
0.283873
0.275739
0.277058
0.292701
0.318067
0.0872602
0.0775941
0.0929433
0.104458
0.0826113
0.0584749
0.0792314
0.159226
0.161604
0.070275
0.0455462
0.0838591
0.140849
0.127874
0.115316
0.136462
0.184203
0.146802
0.0780081
0.07492
0.0497483
0.0361135
0.046419
0.0655808
0.0397431
0.0268783
0.0410111
0.0546331
0.0652599
0.12331
0.109445
0.0831668
0.196347
0.250158
0.144123
0.081741
0.0850695
0.0928849
0.0956494
0.0822302
0.0806737
0.128502
0.172994
0.212639
0.267304
0.294827
0.327159
0.382621
0.440495
0.424897
0.300239
0.217085
0.223162
0.202607
0.183203
0.243063
0.382836
0.330258
0.163871
0.141022
0.124672
0.118747
0.184271
0.110331
0.0753282
0.135934
0.259771
0.373033
0.417304
0.414914
0.390429
0.414415
0.47572
0.497369
0.456213
0.369033
0.318766
0.296046
0.278266
0.270844
0.27064
0.269945
0.27813
0.31073
0.344273
0.35628
0.39317
0.418559
0.405169
0.367118
0.312772
0.251812
0.187991
0.162762
0.176157
0.235811
0.334116
0.398719
0.403276
0.395746
0.394288
0.39193
0.381564
0.362611
0.0156355
0.0139459
0.0134585
0.0150794
0.0108345
0.012805
0.0250193
0.0340857
0.0406279
0.0367639
0.0277587
0.034167
0.093352
0.134671
0.148134
0.150037
0.141227
0.10516
0.0938033
0.0973541
0.0719907
0.0428036
0.0526223
0.049454
0.03211
0.042403
0.0733226
0.0871122
0.0778873
0.0574643
0.0616012
0.0766585
0.107032
0.168341
0.169364
0.132452
0.0905382
0.0545088
0.0511072
0.0855521
0.11481
0.119105
0.126588
0.141191
0.189403
0.216544
0.198782
0.213056
0.26584
0.31137
0.324353
0.319248
0.366608
0.382545
0.235519
0.159458
0.137879
0.152366
0.188083
0.207457
0.193216
0.203388
0.214814
0.132256
0.108065
0.156052
0.276977
0.398379
0.454993
0.443584
0.438592
0.538172
0.652679
0.666306
0.594294
0.471684
0.379261
0.324657
0.299961
0.303421
0.302112
0.290975
0.285433
0.308692
0.353753
0.38487
0.418568
0.430561
0.414427
0.370909
0.314532
0.265732
0.227422
0.187908
0.162418
0.174827
0.228949
0.32441
0.412174
0.468613
0.497892
0.500261
0.476164
0.405599
0.00700198
0.00719152
0.00824115
0.0100039
0.013581
0.0197849
0.0232857
0.0286285
0.0379363
0.045197
0.0530968
0.0614443
0.0589838
0.0613475
0.067883
0.0782464
0.0769566
0.0717997
0.078844
0.111164
0.135049
0.126062
0.109621
0.105063
0.0981841
0.0821776
0.0802874
0.102592
0.130963
0.117571
0.081167
0.0781432
0.115805
0.211203
0.247151
0.217707
0.148593
0.0779059
0.0562117
0.0664932
0.0873957
0.0865793
0.0866391
0.095972
0.127803
0.150691
0.145625
0.139637
0.158051
0.191451
0.217798
0.264563
0.326628
0.422041
0.392732
0.230938
0.106272
0.128107
0.203528
0.299374
0.263454
0.269029
0.280466
0.203375
0.154908
0.179868
0.268101
0.393274
0.489094
0.510786
0.557392
0.673542
0.696358
0.635701
0.513122
0.380243
0.301042
0.29706
0.298035
0.319314
0.338269
0.331113
0.305023
0.273729
0.26202
0.285537
0.321845
0.374158
0.412111
0.388377
0.329599
0.277295
0.247369
0.228278
0.209603
0.189228
0.197285
0.245294
0.336154
0.449107
0.566592
0.622801
0.605639
0.527087
0.0137996
0.0202912
0.0321793
0.0504138
0.0789225
0.120231
0.168475
0.221749
0.263192
0.269022
0.25943
0.241922
0.220226
0.193647
0.16414
0.137308
0.118403
0.0982446
0.0879119
0.0934738
0.106956
0.106952
0.0954843
0.0763873
0.0736661
0.0817813
0.101718
0.11199
0.122024
0.127169
0.119263
0.0977146
0.0912009
0.0979139
0.136282
0.161784
0.138579
0.0841534
0.0534768
0.0505613
0.0547022
0.0606734
0.0688028
0.0749722
0.0853924
0.0998115
0.110627
0.118684
0.122207
0.127404
0.144784
0.169044
0.196877
0.28601
0.371109
0.334302
0.214879
0.147742
0.168329
0.252404
0.30865
0.301371
0.306874
0.2747
0.223151
0.227599
0.273633
0.352242
0.446967
0.505799
0.5458
0.573295
0.547038
0.454541
0.293945
0.246817
0.244239
0.263811
0.278649
0.297509
0.33432
0.342115
0.31916
0.257717
0.187853
0.171447
0.186736
0.229613
0.304734
0.339425
0.316587
0.27262
0.245638
0.235186
0.232553
0.230343
0.226928
0.233071
0.272961
0.360206
0.488525
0.606042
0.648797
0.629791
0.0204882
0.0327418
0.0569343
0.0995696
0.168196
0.259026
0.338154
0.396968
0.429382
0.443394
0.447305
0.449642
0.445255
0.433532
0.413587
0.387246
0.356382
0.321844
0.280732
0.227291
0.178258
0.156073
0.135708
0.1089
0.0983592
0.0992974
0.0981467
0.101262
0.107181
0.111475
0.117231
0.115091
0.102731
0.102948
0.115
0.137816
0.133292
0.0934456
0.0547303
0.0470616
0.0482032
0.0526913
0.0610631
0.0719376
0.084849
0.098539
0.108268
0.114515
0.117574
0.117469
0.112865
0.113022
0.136276
0.187998
0.246717
0.311318
0.292954
0.234507
0.17809
0.189996
0.249857
0.302993
0.320288
0.319198
0.295708
0.290044
0.303792
0.32385
0.374212
0.45583
0.487346
0.426227
0.357003
0.273146
0.239406
0.236672
0.254127
0.270538
0.273643
0.26287
0.254709
0.26915
0.277956
0.252652
0.183822
0.134902
0.132137
0.150955
0.192961
0.249481
0.265614
0.257404
0.243697
0.2375
0.237455
0.241203
0.247147
0.254413
0.270219
0.298407
0.353662
0.443792
0.546244
0.604142
0.0454657
0.0712569
0.118605
0.197269
0.308424
0.406841
0.467698
0.508811
0.53647
0.552053
0.55914
0.557476
0.552452
0.547584
0.544463
0.539972
0.531601
0.514519
0.484699
0.436682
0.370761
0.310911
0.265432
0.239523
0.235026
0.230064
0.212179
0.184084
0.147668
0.118031
0.104969
0.103585
0.100995
0.101892
0.123834
0.137812
0.137858
0.109855
0.061913
0.0452745
0.0415149
0.0405744
0.0425992
0.0487541
0.0594556
0.074465
0.0918974
0.107496
0.117972
0.121048
0.120965
0.118539
0.119959
0.12936
0.167854
0.218886
0.271567
0.273041
0.237114
0.193495
0.204877
0.257289
0.310828
0.311021
0.301359
0.301276
0.324417
0.334282
0.345061
0.38725
0.424038
0.373779
0.286649
0.247893
0.244253
0.269732
0.285686
0.284959
0.280801
0.257165
0.210439
0.180787
0.182667
0.186223
0.17581
0.143123
0.132226
0.143312
0.164192
0.196943
0.231179
0.238885
0.237654
0.236474
0.237564
0.240739
0.246914
0.255635
0.266861
0.278585
0.28556
0.306505
0.369506
0.471247
0.100704
0.149884
0.236854
0.364011
0.480405
0.542367
0.574729
0.592029
0.596014
0.59487
0.59211
0.591466
0.593924
0.598599
0.602983
0.605965
0.606353
0.602761
0.589097
0.56178
0.526118
0.486615
0.452039
0.435989
0.426633
0.411474
0.37617
0.30834
0.222504
0.158001
0.121531
0.105501
0.0983778
0.0993985
0.111718
0.140506
0.149868
0.136045
0.0852239
0.0484599
0.0374635
0.0382653
0.0425328
0.0473334
0.0538149
0.0649632
0.0822275
0.102593
0.119102
0.127296
0.129322
0.12888
0.125161
0.122631
0.126454
0.155361
0.211497
0.268518
0.270979
0.235557
0.205007
0.219355
0.273535
0.305983
0.307858
0.30457
0.31431
0.328442
0.346838
0.368621
0.379747
0.369791
0.33993
0.322588
0.320743
0.314765
0.302558
0.284261
0.26258
0.239418
0.199204
0.150132
0.133162
0.133488
0.136868
0.13871
0.143768
0.15817
0.187085
0.209006
0.230582
0.240764
0.243182
0.243695
0.244301
0.24573
0.249254
0.255091
0.262258
0.26925
0.269461
0.264371
0.271547
0.322216
0.184214
0.257273
0.384538
0.527411
0.595619
0.615352
0.616394
0.613596
0.607553
0.59848
0.587719
0.58063
0.578366
0.578196
0.580814
0.587559
0.598007
0.611313
0.616551
0.613943
0.608641
0.60588
0.604375
0.599279
0.585206
0.557038
0.505712
0.423749
0.318312
0.236014
0.177323
0.138397
0.113674
0.104805
0.108684
0.128376
0.150372
0.146018
0.115609
0.0635306
0.0460812
0.0503939
0.0610263
0.062541
0.0602841
0.0655821
0.0811873
0.101513
0.12074
0.132036
0.136396
0.1378
0.13667
0.132094
0.130447
0.135757
0.161557
0.215459
0.263331
0.258352
0.22625
0.211984
0.231899
0.276977
0.304562
0.316696
0.324943
0.3368
0.354326
0.376088
0.378982
0.371998
0.362634
0.353477
0.338997
0.316807
0.28666
0.243968
0.200799
0.181005
0.165436
0.145237
0.127774
0.126207
0.127324
0.133385
0.151781
0.183968
0.228425
0.253631
0.259108
0.260586
0.260255
0.258763
0.256727
0.255636
0.255874
0.25714
0.259707
0.262539
0.263975
0.263555
0.263478
0.270019
0.313903
0.421878
0.567801
0.645836
0.658017
0.647502
0.623229
0.593137
0.566735
0.544203
0.52679
0.519663
0.517967
0.518868
0.524426
0.536185
0.554881
0.579716
0.60465
0.625542
0.646856
0.672927
0.692325
0.69315
0.67932
0.642438
0.580939
0.4995
0.40908
0.337617
0.273155
0.217825
0.169897
0.134275
0.119728
0.123863
0.140947
0.142155
0.128529
0.0969228
0.0592192
0.0397471
0.0306883
0.0309887
0.0388878
0.0582414
0.0890581
0.123127
0.143364
0.152642
0.155224
0.154968
0.153917
0.151213
0.145081
0.140965
0.144044
0.169131
0.225361
0.263912
0.253505
0.224438
0.216751
0.237088
0.2757
0.311142
0.335185
0.348358
0.364636
0.387025
0.391005
0.387474
0.374027
0.350005
0.310698
0.264419
0.22365
0.186518
0.155736
0.14121
0.137595
0.137157
0.134671
0.131568
0.13369
0.144029
0.168553
0.209806
0.26416
0.291214
0.293222
0.291246
0.288219
0.283953
0.279092
0.274142
0.270862
0.268092
0.264909
0.263019
0.2629
0.263917