/*--------------------------------*- C++ -*----------------------------------*\
| =========                 |                                                 |
| \\      /  F ield         | OpenFOAM: The Open Source CFD Toolbox           |
|  \\    /   O peration     | Version:  v1912                                 |
|   \\  /    A nd           | Website:  www.openfoam.com                      |
|    \\/     M anipulation  |                                                 |
\*---------------------------------------------------------------------------*/
FoamFile
{
    version     2.0;
    format      ascii;
    class       volScalarField;
    location    "20";
    object      nut;
}
// * * * * * * * * * * * * * * * * * * * * * * * * * * * * * * * * * * * * * //

dimensions      [0 2 -1 0 0 0 0];


internalField   nonuniform List<scalar> 
14268
(
4.55087e-09
4.55121e-09
4.56866e-09
4.60219e-09
4.64745e-09
4.69726e-09
4.74341e-09
4.77824e-09
4.79628e-09
4.7951e-09
4.7761e-09
4.74676e-09
4.71668e-09
4.68648e-09
4.65545e-09
4.62365e-09
4.58878e-09
4.54917e-09
4.50423e-09
4.4565e-09
4.40739e-09
4.3633e-09
4.32763e-09
4.30748e-09
4.35106e-09
4.50818e-09
4.73408e-09
4.99735e-09
5.24694e-09
5.4555e-09
5.54648e-09
5.52598e-09
5.4483e-09
5.41487e-09
5.38605e-09
5.53844e-09
6.13422e-09
7.90677e-09
1.18913e-08
1.60413e-08
1.83453e-08
1.90721e-08
1.60342e-08
1.13013e-08
2.36616e-07
2.36706e-07
2.3692e-07
2.37251e-07
2.3767e-07
2.38128e-07
2.38571e-07
2.38941e-07
2.39198e-07
2.3932e-07
2.39309e-07
2.39094e-07
2.38553e-07
2.377e-07
2.36398e-07
2.34425e-07
2.31442e-07
2.27198e-07
2.21665e-07
2.15258e-07
2.08636e-07
2.02921e-07
1.99081e-07
1.97918e-07
1.9868e-07
2.00463e-07
2.02722e-07
2.0552e-07
2.08105e-07
2.10697e-07
2.12096e-07
2.12644e-07
2.09441e-07
2.0584e-07
2.03786e-07
2.11008e-07
2.26167e-07
2.53068e-07
2.92761e-07
3.24451e-07
3.43988e-07
3.55189e-07
3.40005e-07
3.03389e-07
3.97468e-07
3.97493e-07
3.97548e-07
3.97633e-07
3.97738e-07
3.97854e-07
3.97965e-07
3.98063e-07
3.98132e-07
3.98168e-07
3.9817e-07
3.98126e-07
3.98012e-07
3.97834e-07
3.97546e-07
3.97093e-07
3.96367e-07
3.95291e-07
3.93779e-07
3.91926e-07
3.89785e-07
3.87785e-07
3.8624e-07
3.85691e-07
3.85741e-07
3.86214e-07
3.86674e-07
3.87521e-07
3.88096e-07
3.88999e-07
3.8913e-07
3.89427e-07
3.88042e-07
3.8705e-07
3.85987e-07
3.88851e-07
3.93398e-07
4.02241e-07
4.14549e-07
4.28496e-07
4.411e-07
4.50749e-07
4.46429e-07
4.20406e-07
4.15784e-07
4.15779e-07
4.15783e-07
4.15793e-07
4.15809e-07
4.15821e-07
4.15838e-07
4.15846e-07
4.15851e-07
4.15851e-07
4.15845e-07
4.1583e-07
4.15797e-07
4.15769e-07
4.15715e-07
4.15637e-07
4.15498e-07
4.15321e-07
4.15073e-07
4.14836e-07
4.14494e-07
4.14241e-07
4.13978e-07
4.13959e-07
4.13869e-07
4.13991e-07
4.13865e-07
4.14106e-07
4.13994e-07
4.14362e-07
4.14093e-07
4.14388e-07
4.13754e-07
4.13843e-07
4.13264e-07
4.14036e-07
4.14355e-07
4.17277e-07
4.2372e-07
4.34189e-07
4.45288e-07
4.53992e-07
4.51236e-07
4.4215e-07
4.17266e-07
4.17268e-07
4.17271e-07
4.17276e-07
4.17281e-07
4.17288e-07
4.17293e-07
4.173e-07
4.17304e-07
4.17305e-07
4.17304e-07
4.17301e-07
4.17297e-07
4.17294e-07
4.17285e-07
4.17264e-07
4.17221e-07
4.1718e-07
4.17122e-07
4.17114e-07
4.17059e-07
4.17071e-07
4.17016e-07
4.17069e-07
4.1699e-07
4.17027e-07
4.16829e-07
4.16916e-07
4.16726e-07
4.16957e-07
4.16673e-07
4.16917e-07
4.16481e-07
4.16727e-07
4.16282e-07
4.16711e-07
4.16417e-07
4.18436e-07
4.24242e-07
4.34556e-07
4.45348e-07
4.55361e-07
4.50795e-07
4.47149e-07
4.17145e-07
4.17136e-07
4.17134e-07
4.17138e-07
4.17144e-07
4.17143e-07
4.1715e-07
4.17146e-07
4.17144e-07
4.17141e-07
4.17136e-07
4.17127e-07
4.17104e-07
4.171e-07
4.17085e-07
4.17065e-07
4.17014e-07
4.1697e-07
4.16913e-07
4.16929e-07
4.16892e-07
4.16944e-07
4.16909e-07
4.16974e-07
4.16855e-07
4.16898e-07
4.16666e-07
4.16783e-07
4.16556e-07
4.16825e-07
4.16496e-07
4.16775e-07
4.16293e-07
4.16576e-07
4.16091e-07
4.16478e-07
4.16147e-07
4.18289e-07
4.24163e-07
4.34425e-07
4.45451e-07
4.54273e-07
4.51408e-07
4.46457e-07
4.17332e-07
4.17334e-07
4.17337e-07
4.17341e-07
4.17345e-07
4.1735e-07
4.17354e-07
4.1736e-07
4.17363e-07
4.17364e-07
4.17362e-07
4.17359e-07
4.17357e-07
4.17355e-07
4.17348e-07
4.17331e-07
4.17292e-07
4.17257e-07
4.17206e-07
4.17216e-07
4.17181e-07
4.17217e-07
4.1718e-07
4.17241e-07
4.17154e-07
4.17187e-07
4.16975e-07
4.17061e-07
4.16858e-07
4.17088e-07
4.16792e-07
4.17052e-07
4.16614e-07
4.16884e-07
4.16419e-07
4.16812e-07
4.16443e-07
4.1841e-07
4.24175e-07
4.34442e-07
4.45248e-07
4.55025e-07
4.50194e-07
4.49055e-07
4.17173e-07
4.17165e-07
4.17163e-07
4.17167e-07
4.17174e-07
4.17173e-07
4.17181e-07
4.17179e-07
4.17179e-07
4.17176e-07
4.17173e-07
4.17164e-07
4.17142e-07
4.17139e-07
4.17125e-07
4.17107e-07
4.1706e-07
4.17024e-07
4.16978e-07
4.17003e-07
4.16975e-07
4.17029e-07
4.17002e-07
4.17066e-07
4.16949e-07
4.16983e-07
4.16756e-07
4.16864e-07
4.16646e-07
4.16906e-07
4.16589e-07
4.1686e-07
4.16396e-07
4.16676e-07
4.16214e-07
4.1656e-07
4.16206e-07
4.18291e-07
4.24086e-07
4.34361e-07
4.45413e-07
4.54154e-07
4.51353e-07
4.46969e-07
4.17328e-07
4.1733e-07
4.17332e-07
4.17336e-07
4.1734e-07
4.17346e-07
4.1735e-07
4.17357e-07
4.1736e-07
4.17361e-07
4.1736e-07
4.17357e-07
4.17355e-07
4.17353e-07
4.17347e-07
4.17332e-07
4.17294e-07
4.17258e-07
4.17207e-07
4.17216e-07
4.1718e-07
4.17215e-07
4.17178e-07
4.17236e-07
4.17147e-07
4.17178e-07
4.16963e-07
4.17049e-07
4.16843e-07
4.17078e-07
4.16778e-07
4.17044e-07
4.16602e-07
4.16871e-07
4.16405e-07
4.16772e-07
4.16389e-07
4.18352e-07
4.2408e-07
4.3435e-07
4.45238e-07
4.54626e-07
4.50034e-07
4.49195e-07
4.17198e-07
4.17191e-07
4.1719e-07
4.17194e-07
4.17201e-07
4.17201e-07
4.17208e-07
4.17209e-07
4.17211e-07
4.17209e-07
4.17203e-07
4.17193e-07
4.17174e-07
4.1717e-07
4.17158e-07
4.1714e-07
4.17095e-07
4.17062e-07
4.17018e-07
4.17045e-07
4.1702e-07
4.17075e-07
4.17046e-07
4.1711e-07
4.17e-07
4.17034e-07
4.1681e-07
4.16915e-07
4.16703e-07
4.16961e-07
4.16649e-07
4.16922e-07
4.16463e-07
4.16737e-07
4.16265e-07
4.16598e-07
4.16223e-07
4.1826e-07
4.24013e-07
4.34227e-07
4.45342e-07
4.53765e-07
4.51114e-07
4.47255e-07
4.17324e-07
4.17325e-07
4.17328e-07
4.17332e-07
4.17336e-07
4.17342e-07
4.17347e-07
4.17354e-07
4.17358e-07
4.1736e-07
4.17358e-07
4.17356e-07
4.17354e-07
4.17353e-07
4.17346e-07
4.17333e-07
4.17296e-07
4.17261e-07
4.17211e-07
4.1722e-07
4.17183e-07
4.17218e-07
4.17181e-07
4.17239e-07
4.17145e-07
4.17175e-07
4.16955e-07
4.17042e-07
4.16832e-07
4.17072e-07
4.16771e-07
4.17036e-07
4.16589e-07
4.16855e-07
4.16382e-07
4.16722e-07
4.16331e-07
4.18285e-07
4.23981e-07
4.34208e-07
4.45128e-07
4.5402e-07
4.49791e-07
4.49255e-07
4.1722e-07
4.17216e-07
4.17215e-07
4.17219e-07
4.17224e-07
4.17226e-07
4.17231e-07
4.17237e-07
4.17239e-07
4.17238e-07
4.17229e-07
4.17216e-07
4.17202e-07
4.17196e-07
4.17184e-07
4.17167e-07
4.17124e-07
4.17095e-07
4.17053e-07
4.17082e-07
4.17061e-07
4.17116e-07
4.17084e-07
4.17149e-07
4.17042e-07
4.17077e-07
4.16852e-07
4.16956e-07
4.16745e-07
4.17005e-07
4.16692e-07
4.16965e-07
4.16505e-07
4.16777e-07
4.16309e-07
4.1661e-07
4.16219e-07
4.18221e-07
4.2395e-07
4.34231e-07
4.45478e-07
4.53401e-07
4.50769e-07
4.47275e-07
4.17318e-07
4.1732e-07
4.17323e-07
4.17327e-07
4.17331e-07
4.17337e-07
4.17344e-07
4.17351e-07
4.17357e-07
4.17361e-07
4.17358e-07
4.17357e-07
4.17355e-07
4.17355e-07
4.17347e-07
4.17335e-07
4.17299e-07
4.17266e-07
4.17218e-07
4.17228e-07
4.17191e-07
4.17226e-07
4.17188e-07
4.17247e-07
4.17152e-07
4.1718e-07
4.16956e-07
4.17043e-07
4.16831e-07
4.17073e-07
4.16769e-07
4.17033e-07
4.16584e-07
4.16844e-07
4.16367e-07
4.16689e-07
4.16282e-07
4.18238e-07
4.23989e-07
4.34174e-07
4.45134e-07
4.53234e-07
4.49352e-07
4.49388e-07
4.17242e-07
4.17241e-07
4.1724e-07
4.17243e-07
4.17246e-07
4.1725e-07
4.17252e-07
4.17261e-07
4.17266e-07
4.17265e-07
4.17253e-07
4.17238e-07
4.17226e-07
4.17219e-07
4.17206e-07
4.17189e-07
4.17148e-07
4.17121e-07
4.17078e-07
4.17108e-07
4.1709e-07
4.17144e-07
4.17105e-07
4.17171e-07
4.17064e-07
4.171e-07
4.16875e-07
4.1698e-07
4.16766e-07
4.17025e-07
4.16719e-07
4.16978e-07
4.16511e-07
4.16778e-07
4.16298e-07
4.16611e-07
4.16209e-07
4.1818e-07
4.23824e-07
4.33781e-07
4.447e-07
4.52256e-07
4.50001e-07
4.46821e-07
4.17315e-07
4.17314e-07
4.17318e-07
4.17324e-07
4.17332e-07
4.17337e-07
4.17347e-07
4.17352e-07
4.17358e-07
4.17361e-07
4.17363e-07
4.17365e-07
4.17361e-07
4.17363e-07
4.17358e-07
4.17347e-07
4.17314e-07
4.17284e-07
4.17241e-07
4.17256e-07
4.17224e-07
4.17262e-07
4.17228e-07
4.17285e-07
4.17187e-07
4.17215e-07
4.1699e-07
4.17073e-07
4.1686e-07
4.17094e-07
4.16794e-07
4.17049e-07
4.16623e-07
4.16874e-07
4.16411e-07
4.16669e-07
4.16255e-07
4.18191e-07
4.23723e-07
4.33807e-07
4.45048e-07
4.5214e-07
4.48886e-07
4.48787e-07
4.17264e-07
4.17263e-07
4.17264e-07
4.17267e-07
4.17269e-07
4.17275e-07
4.17278e-07
4.17288e-07
4.17293e-07
4.17295e-07
4.17286e-07
4.17274e-07
4.17266e-07
4.17262e-07
4.1725e-07
4.17236e-07
4.17199e-07
4.17173e-07
4.17133e-07
4.17163e-07
4.17144e-07
4.17196e-07
4.17159e-07
4.17226e-07
4.17123e-07
4.17146e-07
4.16918e-07
4.17013e-07
4.16808e-07
4.17054e-07
4.16731e-07
4.17007e-07
4.1651e-07
4.16761e-07
4.16254e-07
4.16569e-07
4.16155e-07
4.18094e-07
4.23669e-07
4.33687e-07
4.44696e-07
4.51757e-07
4.4904e-07
4.47345e-07
4.17314e-07
4.17316e-07
4.17319e-07
4.17324e-07
4.17331e-07
4.17338e-07
4.17347e-07
4.17354e-07
4.1736e-07
4.17363e-07
4.17364e-07
4.17366e-07
4.17364e-07
4.17366e-07
4.17364e-07
4.17357e-07
4.17327e-07
4.17301e-07
4.17262e-07
4.17278e-07
4.17249e-07
4.17287e-07
4.17254e-07
4.1731e-07
4.17219e-07
4.17261e-07
4.17043e-07
4.17128e-07
4.169e-07
4.17137e-07
4.16835e-07
4.17097e-07
4.16679e-07
4.16966e-07
4.16494e-07
4.16728e-07
4.16241e-07
4.18132e-07
4.23689e-07
4.33067e-07
4.44286e-07
4.49302e-07
4.46569e-07
4.48079e-07
4.17262e-07
4.17259e-07
4.17259e-07
4.17262e-07
4.17265e-07
4.17268e-07
4.17274e-07
4.1728e-07
4.17287e-07
4.17289e-07
4.17283e-07
4.17271e-07
4.17258e-07
4.17254e-07
4.1724e-07
4.17229e-07
4.17193e-07
4.17168e-07
4.1713e-07
4.17163e-07
4.17143e-07
4.17195e-07
4.17159e-07
4.17222e-07
4.1709e-07
4.17089e-07
4.16844e-07
4.16931e-07
4.16724e-07
4.16977e-07
4.16666e-07
4.16909e-07
4.16401e-07
4.16628e-07
4.16112e-07
4.1638e-07
4.16024e-07
4.17944e-07
4.23412e-07
4.33542e-07
4.43996e-07
4.47493e-07
4.44386e-07
4.44809e-07
4.17309e-07
4.17308e-07
4.17311e-07
4.17317e-07
4.17325e-07
4.1733e-07
4.17336e-07
4.17343e-07
4.17346e-07
4.17348e-07
4.1735e-07
4.17353e-07
4.17352e-07
4.17355e-07
4.17355e-07
4.17351e-07
4.17326e-07
4.17304e-07
4.17268e-07
4.17285e-07
4.17259e-07
4.17298e-07
4.17265e-07
4.17323e-07
4.17245e-07
4.17292e-07
4.17091e-07
4.17181e-07
4.16956e-07
4.17177e-07
4.16869e-07
4.17163e-07
4.16741e-07
4.17044e-07
4.16534e-07
4.16809e-07
4.16199e-07
4.17698e-07
4.2274e-07
4.33901e-07
4.41298e-07
4.37694e-07
4.37788e-07
4.41618e-07
4.17244e-07
4.17243e-07
4.17244e-07
4.17246e-07
4.17246e-07
4.17254e-07
4.17263e-07
4.17271e-07
4.17281e-07
4.17286e-07
4.17277e-07
4.17264e-07
4.17254e-07
4.17248e-07
4.1723e-07
4.1722e-07
4.17184e-07
4.1716e-07
4.17122e-07
4.17154e-07
4.1713e-07
4.17181e-07
4.17146e-07
4.17194e-07
4.17025e-07
4.17018e-07
4.16754e-07
4.16827e-07
4.16596e-07
4.16871e-07
4.16545e-07
4.16735e-07
4.16201e-07
4.16455e-07
4.1593e-07
4.16209e-07
4.15885e-07
4.18054e-07
4.25773e-07
4.34151e-07
4.35859e-07
4.26983e-07
4.29812e-07
4.32005e-07
4.17313e-07
4.17315e-07
4.17318e-07
4.17324e-07
4.17332e-07
4.1734e-07
4.17349e-07
4.17358e-07
4.17361e-07
4.1736e-07
4.17363e-07
4.17368e-07
4.17369e-07
4.17374e-07
4.17375e-07
4.17374e-07
4.17359e-07
4.17348e-07
4.17323e-07
4.17336e-07
4.17313e-07
4.17351e-07
4.17324e-07
4.17389e-07
4.17322e-07
4.17374e-07
4.17218e-07
4.17331e-07
4.17145e-07
4.17401e-07
4.17138e-07
4.17478e-07
4.17022e-07
4.17339e-07
4.168e-07
4.17096e-07
4.1625e-07
4.18723e-07
4.27466e-07
4.32547e-07
4.22671e-07
4.19068e-07
4.25239e-07
4.29072e-07
4.17265e-07
4.17264e-07
4.17264e-07
4.17268e-07
4.17273e-07
4.17279e-07
4.17287e-07
4.17295e-07
4.17301e-07
4.17304e-07
4.17302e-07
4.17299e-07
4.17294e-07
4.17293e-07
4.17287e-07
4.17279e-07
4.17247e-07
4.17222e-07
4.17177e-07
4.17197e-07
4.17165e-07
4.17206e-07
4.1716e-07
4.17201e-07
4.17045e-07
4.17042e-07
4.16763e-07
4.16832e-07
4.16571e-07
4.16818e-07
4.16473e-07
4.16751e-07
4.16253e-07
4.16511e-07
4.15957e-07
4.16119e-07
4.15572e-07
4.16849e-07
4.17051e-07
4.09244e-07
4.05198e-07
4.06305e-07
4.13167e-07
4.15624e-07
4.17234e-07
4.17223e-07
4.17212e-07
4.17198e-07
4.17178e-07
4.17157e-07
4.17134e-07
4.17116e-07
4.17103e-07
4.17097e-07
4.17094e-07
4.17092e-07
4.17093e-07
4.17098e-07
4.17101e-07
4.17109e-07
4.1711e-07
4.17128e-07
4.17131e-07
4.17167e-07
4.17167e-07
4.17207e-07
4.17182e-07
4.17219e-07
4.17087e-07
4.16987e-07
4.16633e-07
4.16466e-07
4.15973e-07
4.15842e-07
4.15339e-07
4.15499e-07
4.15099e-07
4.15174e-07
4.14487e-07
4.13781e-07
4.11247e-07
4.05396e-07
3.72301e-07
3.55936e-07
3.53217e-07
3.73761e-07
4.00176e-07
4.72146e-07
4.11141e-07
4.10906e-07
4.1045e-07
4.09773e-07
4.08913e-07
4.07947e-07
4.06988e-07
4.06135e-07
4.05472e-07
4.05048e-07
4.0487e-07
4.04857e-07
4.04863e-07
4.04904e-07
4.04969e-07
4.05069e-07
4.05202e-07
4.05445e-07
4.05748e-07
4.0615e-07
4.06505e-07
4.06858e-07
4.06985e-07
4.06935e-07
4.05672e-07
4.02744e-07
3.98168e-07
3.9311e-07
3.87478e-07
3.82863e-07
3.79453e-07
3.78737e-07
3.78654e-07
3.78613e-07
3.77656e-07
3.73057e-07
3.57739e-07
3.11527e-07
2.99884e-07
3.51006e-07
4.23501e-07
4.95993e-07
5.77976e-07
7.09964e-07
2.48318e-07
2.47201e-07
2.45811e-07
2.44151e-07
2.42276e-07
2.40291e-07
2.3832e-07
2.36486e-07
2.34884e-07
2.33559e-07
2.32495e-07
2.31661e-07
2.3098e-07
2.30414e-07
2.30012e-07
2.2988e-07
2.30148e-07
2.31043e-07
2.32595e-07
2.34748e-07
2.37123e-07
2.3925e-07
2.40351e-07
2.40102e-07
2.37803e-07
2.33729e-07
2.28192e-07
2.22199e-07
2.15812e-07
2.10304e-07
2.05689e-07
2.03896e-07
2.02891e-07
1.99981e-07
1.99487e-07
1.93919e-07
1.65639e-07
1.54963e-07
3.61205e-07
5.71209e-07
6.63411e-07
6.80177e-07
6.32374e-07
5.50932e-07
1.68318e-07
1.67363e-07
1.6596e-07
1.64068e-07
1.61748e-07
1.59174e-07
1.56561e-07
1.54076e-07
1.51927e-07
1.5031e-07
1.49302e-07
1.48738e-07
1.4832e-07
1.48027e-07
1.47968e-07
1.48406e-07
1.49509e-07
1.51282e-07
1.53743e-07
1.56849e-07
1.60224e-07
1.63398e-07
1.65545e-07
1.66117e-07
1.6342e-07
1.57687e-07
1.50153e-07
1.42185e-07
1.32861e-07
1.24583e-07
1.14503e-07
1.07731e-07
9.19726e-08
6.55822e-08
5.87714e-08
4.8244e-08
3.46094e-08
1.27162e-07
4.81944e-07
6.87223e-07
7.83327e-07
8.36659e-07
7.64843e-07
6.59391e-07
5.80924e-08
5.23295e-08
4.68865e-08
4.16724e-08
3.66663e-08
3.19321e-08
2.74184e-08
2.31299e-08
1.91751e-08
1.5703e-08
1.27048e-08
1.02958e-08
8.32077e-09
7.16574e-09
6.34095e-09
5.7959e-09
5.73442e-09
6.19287e-09
7.67236e-09
1.0426e-08
1.44493e-08
1.95768e-08
2.55935e-08
3.13625e-08
3.60972e-08
3.91688e-08
3.9651e-08
3.72442e-08
3.18313e-08
2.69539e-08
1.97431e-08
1.34964e-08
5.15585e-09
2.29885e-09
2.35551e-09
4.04037e-09
7.71673e-09
1.11632e-08
4.93461e-08
2.3153e-07
3.11705e-07
4.89065e-07
1.06178e-06
1.6416e-06
1.18557e-08
1.12202e-08
1.06367e-08
1.01152e-08
9.65023e-09
9.21645e-09
8.79677e-09
8.38986e-09
7.97575e-09
7.54212e-09
7.08395e-09
6.6316e-09
6.22208e-09
5.86585e-09
5.56369e-09
5.26918e-09
5.02378e-09
5.00124e-09
5.42813e-09
6.41759e-09
7.66947e-09
8.44765e-09
8.29222e-09
6.84705e-09
4.44407e-09
2.80645e-09
1.62777e-09
8.82975e-10
5.98596e-10
6.2398e-10
9.44694e-10
1.39178e-09
1.74566e-09
1.17929e-09
6.37156e-10
6.36741e-10
8.64229e-10
9.20552e-10
2.31412e-09
3.35777e-08
7.56023e-08
1.21795e-07
1.92291e-07
4.73463e-07
2.2017e-07
2.21614e-07
2.23541e-07
2.2591e-07
2.28523e-07
2.3169e-07
2.34541e-07
2.36682e-07
2.38058e-07
2.38746e-07
2.39023e-07
2.38424e-07
2.36937e-07
2.34708e-07
2.31027e-07
2.23961e-07
2.11485e-07
1.92993e-07
1.70343e-07
1.47854e-07
1.28908e-07
1.14629e-07
1.05802e-07
1.02418e-07
1.04375e-07
1.09212e-07
1.17106e-07
1.24628e-07
1.3354e-07
1.39812e-07
1.42609e-07
1.3504e-07
1.12866e-07
9.05476e-08
6.79747e-08
5.69812e-08
6.17623e-08
6.30504e-08
7.15718e-08
9.53452e-08
1.27129e-07
1.22813e-07
1.45718e-07
2.33522e-07
4.05938e-07
4.06058e-07
4.06207e-07
4.06427e-07
4.06662e-07
4.06883e-07
4.07109e-07
4.07324e-07
4.07498e-07
4.0765e-07
4.07772e-07
4.07799e-07
4.07566e-07
4.07062e-07
4.06113e-07
4.04171e-07
4.00557e-07
3.94308e-07
3.84309e-07
3.70268e-07
3.53542e-07
3.36984e-07
3.25184e-07
3.21335e-07
3.23762e-07
3.27349e-07
3.32863e-07
3.37182e-07
3.42674e-07
3.45943e-07
3.48691e-07
3.47983e-07
3.37995e-07
3.27741e-07
3.22306e-07
3.33796e-07
3.60557e-07
3.67163e-07
3.79065e-07
3.88671e-07
3.97875e-07
4.07893e-07
4.38927e-07
5.06509e-07
4.153e-07
4.15295e-07
4.15311e-07
4.15317e-07
4.15336e-07
4.15366e-07
4.15408e-07
4.15466e-07
4.15516e-07
4.15555e-07
4.15566e-07
4.15575e-07
4.15589e-07
4.15611e-07
4.15572e-07
4.15383e-07
4.15006e-07
4.14333e-07
4.13349e-07
4.11952e-07
4.1015e-07
4.08043e-07
4.06264e-07
4.05359e-07
4.05256e-07
4.05458e-07
4.05884e-07
4.06212e-07
4.06546e-07
4.06879e-07
4.06795e-07
4.06863e-07
4.05753e-07
4.0511e-07
4.06545e-07
4.099e-07
4.14691e-07
4.13534e-07
4.15632e-07
4.17925e-07
4.23838e-07
4.36391e-07
4.626e-07
5.20243e-07
4.15232e-07
4.15151e-07
4.15017e-07
4.1488e-07
4.14703e-07
4.14496e-07
4.14301e-07
4.14078e-07
4.13833e-07
4.13639e-07
4.13479e-07
4.13391e-07
4.13371e-07
4.13357e-07
4.1334e-07
4.13351e-07
4.1341e-07
4.13513e-07
4.13602e-07
4.1361e-07
4.13606e-07
4.13497e-07
4.133e-07
4.12943e-07
4.12586e-07
4.12079e-07
4.11637e-07
4.11249e-07
4.10737e-07
4.10024e-07
4.09353e-07
4.09502e-07
4.10049e-07
4.10415e-07
4.11182e-07
4.10015e-07
4.10297e-07
4.08642e-07
4.1462e-07
4.14256e-07
4.16689e-07
4.29329e-07
4.46373e-07
4.78909e-07
4.15796e-07
4.15735e-07
4.15707e-07
4.15698e-07
4.15701e-07
4.15719e-07
4.15735e-07
4.15783e-07
4.15854e-07
4.15932e-07
4.15988e-07
4.16019e-07
4.16039e-07
4.16064e-07
4.16077e-07
4.1608e-07
4.15999e-07
4.15758e-07
4.15426e-07
4.15078e-07
4.14751e-07
4.14381e-07
4.13974e-07
4.13657e-07
4.13469e-07
4.1353e-07
4.13649e-07
4.14103e-07
4.14417e-07
4.14874e-07
4.15201e-07
4.15556e-07
4.16155e-07
4.16475e-07
4.17582e-07
4.17611e-07
4.18797e-07
4.16457e-07
4.16886e-07
4.20462e-07
4.23663e-07
4.35554e-07
4.47946e-07
4.84215e-07
4.15643e-07
4.15603e-07
4.15553e-07
4.15491e-07
4.15405e-07
4.15287e-07
4.15148e-07
4.14964e-07
4.1475e-07
4.14566e-07
4.14379e-07
4.14247e-07
4.14176e-07
4.14121e-07
4.14063e-07
4.14009e-07
4.13999e-07
4.1405e-07
4.14137e-07
4.14215e-07
4.1429e-07
4.14355e-07
4.14363e-07
4.14338e-07
4.14147e-07
4.1394e-07
4.13652e-07
4.13309e-07
4.12858e-07
4.12304e-07
4.11722e-07
4.11655e-07
4.12012e-07
4.12128e-07
4.12884e-07
4.12122e-07
4.14436e-07
4.13188e-07
4.15081e-07
4.1689e-07
4.16532e-07
4.25857e-07
4.34754e-07
4.50483e-07
4.15832e-07
4.1579e-07
4.15736e-07
4.15694e-07
4.15676e-07
4.15672e-07
4.1568e-07
4.15717e-07
4.15783e-07
4.15857e-07
4.15943e-07
4.16018e-07
4.16081e-07
4.16133e-07
4.16191e-07
4.16245e-07
4.16291e-07
4.16299e-07
4.16205e-07
4.16012e-07
4.15808e-07
4.15527e-07
4.15155e-07
4.14827e-07
4.14562e-07
4.14355e-07
4.14255e-07
4.14527e-07
4.14678e-07
4.14991e-07
4.1516e-07
4.15403e-07
4.15755e-07
4.1584e-07
4.16696e-07
4.16397e-07
4.1784e-07
4.16119e-07
4.15796e-07
4.18744e-07
4.2061e-07
4.28627e-07
4.36818e-07
4.52788e-07
4.15965e-07
4.15929e-07
4.15897e-07
4.15874e-07
4.15852e-07
4.15826e-07
4.15772e-07
4.15677e-07
4.15548e-07
4.15402e-07
4.15246e-07
4.15137e-07
4.15044e-07
4.14958e-07
4.14868e-07
4.14786e-07
4.14751e-07
4.14729e-07
4.14764e-07
4.14824e-07
4.14873e-07
4.14922e-07
4.14929e-07
4.14942e-07
4.14836e-07
4.14835e-07
4.1478e-07
4.14664e-07
4.14262e-07
4.13879e-07
4.13379e-07
4.1321e-07
4.13453e-07
4.13378e-07
4.14451e-07
4.14062e-07
4.16284e-07
4.16279e-07
4.15905e-07
4.16751e-07
4.15522e-07
4.22077e-07
4.28918e-07
4.37918e-07
4.16093e-07
4.16081e-07
4.16062e-07
4.16031e-07
4.15999e-07
4.15979e-07
4.15966e-07
4.15969e-07
4.16001e-07
4.16054e-07
4.16129e-07
4.16207e-07
4.16288e-07
4.16373e-07
4.1645e-07
4.16533e-07
4.16607e-07
4.1666e-07
4.16694e-07
4.16684e-07
4.16592e-07
4.16391e-07
4.16088e-07
4.15748e-07
4.15386e-07
4.15013e-07
4.14645e-07
4.14542e-07
4.14541e-07
4.14986e-07
4.15276e-07
4.155e-07
4.15728e-07
4.15611e-07
4.16303e-07
4.15948e-07
4.16831e-07
4.15776e-07
4.14128e-07
4.16223e-07
4.18574e-07
4.24373e-07
4.31939e-07
4.4115e-07
4.16253e-07
4.16204e-07
4.1616e-07
4.16135e-07
4.16138e-07
4.16153e-07
4.1616e-07
4.16163e-07
4.16138e-07
4.16068e-07
4.15981e-07
4.15907e-07
4.15855e-07
4.15796e-07
4.15708e-07
4.15607e-07
4.15526e-07
4.15459e-07
4.15412e-07
4.15383e-07
4.1535e-07
4.15353e-07
4.15328e-07
4.15337e-07
4.15251e-07
4.15279e-07
4.15225e-07
4.15341e-07
4.15224e-07
4.15164e-07
4.14744e-07
4.14497e-07
4.14585e-07
4.14379e-07
4.15324e-07
4.14993e-07
4.1612e-07
4.16896e-07
4.15216e-07
4.15738e-07
4.15455e-07
4.19497e-07
4.24838e-07
4.3297e-07
4.1631e-07
4.16337e-07
4.16355e-07
4.1637e-07
4.16374e-07
4.16371e-07
4.16368e-07
4.16357e-07
4.16334e-07
4.1633e-07
4.16365e-07
4.16414e-07
4.16471e-07
4.16541e-07
4.16613e-07
4.16669e-07
4.16678e-07
4.16658e-07
4.16588e-07
4.16502e-07
4.16429e-07
4.16362e-07
4.16204e-07
4.15966e-07
4.15636e-07
4.15255e-07
4.14851e-07
4.14645e-07
4.14397e-07
4.14582e-07
4.1469e-07
4.14906e-07
4.15264e-07
4.1519e-07
4.15825e-07
4.15645e-07
4.15597e-07
4.15453e-07
4.13296e-07
4.14363e-07
4.16943e-07
4.2148e-07
4.2666e-07
4.33373e-07
4.16692e-07
4.16628e-07
4.16576e-07
4.16535e-07
4.16499e-07
4.16468e-07
4.16448e-07
4.16456e-07
4.16486e-07
4.16513e-07
4.16495e-07
4.16441e-07
4.16374e-07
4.16301e-07
4.16208e-07
4.161e-07
4.16013e-07
4.15937e-07
4.15887e-07
4.15848e-07
4.15778e-07
4.15715e-07
4.15623e-07
4.15615e-07
4.15558e-07
4.1561e-07
4.15556e-07
4.15656e-07
4.15498e-07
4.15689e-07
4.15496e-07
4.15501e-07
4.15449e-07
4.15266e-07
4.15527e-07
4.15304e-07
4.15022e-07
4.16094e-07
4.14304e-07
4.1478e-07
4.15223e-07
4.17366e-07
4.21568e-07
4.2855e-07
4.1622e-07
4.16244e-07
4.1626e-07
4.16269e-07
4.1628e-07
4.16297e-07
4.16318e-07
4.16333e-07
4.16344e-07
4.16352e-07
4.16358e-07
4.16345e-07
4.16308e-07
4.16252e-07
4.16175e-07
4.16099e-07
4.16031e-07
4.15975e-07
4.15928e-07
4.15891e-07
4.15848e-07
4.15815e-07
4.15751e-07
4.15615e-07
4.15384e-07
4.15126e-07
4.14798e-07
4.14646e-07
4.14405e-07
4.1445e-07
4.14361e-07
4.14507e-07
4.14774e-07
4.1477e-07
4.15125e-07
4.15291e-07
4.14677e-07
4.1514e-07
4.13124e-07
4.13687e-07
4.15852e-07
4.1892e-07
4.22464e-07
4.2849e-07
4.17044e-07
4.16981e-07
4.16915e-07
4.16854e-07
4.16799e-07
4.16754e-07
4.1672e-07
4.16698e-07
4.16679e-07
4.16664e-07
4.16644e-07
4.1662e-07
4.16601e-07
4.16577e-07
4.16538e-07
4.16486e-07
4.1643e-07
4.16368e-07
4.16305e-07
4.16254e-07
4.16177e-07
4.161e-07
4.15974e-07
4.15951e-07
4.15869e-07
4.15885e-07
4.15804e-07
4.15872e-07
4.15659e-07
4.15763e-07
4.15492e-07
4.15563e-07
4.15358e-07
4.15277e-07
4.15026e-07
4.14829e-07
4.13654e-07
4.15024e-07
4.13592e-07
4.13901e-07
4.14856e-07
4.16189e-07
4.19264e-07
4.25084e-07
4.16168e-07
4.16188e-07
4.16202e-07
4.16215e-07
4.16232e-07
4.16249e-07
4.16255e-07
4.16233e-07
4.16176e-07
4.16093e-07
4.15994e-07
4.15903e-07
4.15823e-07
4.15747e-07
4.15676e-07
4.15611e-07
4.15549e-07
4.1549e-07
4.15428e-07
4.15363e-07
4.15298e-07
4.15258e-07
4.15193e-07
4.15137e-07
4.14977e-07
4.14822e-07
4.14564e-07
4.14496e-07
4.14241e-07
4.14347e-07
4.14195e-07
4.14347e-07
4.14322e-07
4.14426e-07
4.14328e-07
4.14688e-07
4.13625e-07
4.14649e-07
4.13468e-07
4.1372e-07
4.15155e-07
4.17156e-07
4.19779e-07
4.24319e-07
4.17205e-07
4.17161e-07
4.17114e-07
4.17066e-07
4.17012e-07
4.16957e-07
4.1691e-07
4.1688e-07
4.16874e-07
4.16881e-07
4.16878e-07
4.16868e-07
4.1685e-07
4.16831e-07
4.168e-07
4.16754e-07
4.16698e-07
4.16632e-07
4.16557e-07
4.16481e-07
4.16392e-07
4.16309e-07
4.16199e-07
4.16104e-07
4.15991e-07
4.15968e-07
4.15846e-07
4.15864e-07
4.15624e-07
4.15735e-07
4.15376e-07
4.15465e-07
4.15024e-07
4.15014e-07
4.1433e-07
4.14325e-07
4.12799e-07
4.13847e-07
4.13037e-07
4.13186e-07
4.14308e-07
4.15244e-07
4.17768e-07
4.22629e-07
4.16122e-07
4.16115e-07
4.16105e-07
4.161e-07
4.16076e-07
4.16033e-07
4.1595e-07
4.15854e-07
4.15755e-07
4.15646e-07
4.15545e-07
4.15455e-07
4.15378e-07
4.15307e-07
4.15247e-07
4.15194e-07
4.15145e-07
4.151e-07
4.15059e-07
4.15026e-07
4.14982e-07
4.14951e-07
4.14903e-07
4.14898e-07
4.14833e-07
4.14789e-07
4.14552e-07
4.14551e-07
4.14237e-07
4.14372e-07
4.14032e-07
4.14217e-07
4.13835e-07
4.14104e-07
4.13558e-07
4.14101e-07
4.12908e-07
4.13899e-07
4.13371e-07
4.134e-07
4.1449e-07
4.1597e-07
4.18081e-07
4.21823e-07
4.17242e-07
4.17222e-07
4.17195e-07
4.17165e-07
4.17139e-07
4.17114e-07
4.17088e-07
4.17061e-07
4.17032e-07
4.17002e-07
4.16971e-07
4.16941e-07
4.16906e-07
4.16868e-07
4.16825e-07
4.16776e-07
4.16721e-07
4.1666e-07
4.16591e-07
4.16519e-07
4.1644e-07
4.16366e-07
4.16259e-07
4.16154e-07
4.15999e-07
4.15948e-07
4.15796e-07
4.15829e-07
4.15512e-07
4.15637e-07
4.15098e-07
4.15256e-07
4.14533e-07
4.14702e-07
4.13654e-07
4.13981e-07
4.12241e-07
4.12958e-07
4.12582e-07
4.12611e-07
4.13682e-07
4.14598e-07
4.16781e-07
4.20609e-07
4.16111e-07
4.16064e-07
4.15997e-07
4.15905e-07
4.15819e-07
4.15742e-07
4.15672e-07
4.15602e-07
4.15535e-07
4.15469e-07
4.15404e-07
4.15341e-07
4.15282e-07
4.15228e-07
4.1518e-07
4.15136e-07
4.15097e-07
4.15061e-07
4.1503e-07
4.15005e-07
4.1497e-07
4.1495e-07
4.14921e-07
4.14938e-07
4.14895e-07
4.14915e-07
4.14733e-07
4.14757e-07
4.14329e-07
4.14467e-07
4.13847e-07
4.14111e-07
4.13409e-07
4.13889e-07
4.12919e-07
4.13652e-07
4.12372e-07
4.13132e-07
4.13059e-07
4.13011e-07
4.13945e-07
4.15109e-07
4.1699e-07
4.20127e-07
4.17208e-07
4.17191e-07
4.17177e-07
4.17158e-07
4.17135e-07
4.1711e-07
4.17082e-07
4.17053e-07
4.17023e-07
4.16991e-07
4.16959e-07
4.16926e-07
4.16892e-07
4.16855e-07
4.16813e-07
4.16769e-07
4.1672e-07
4.16666e-07
4.16607e-07
4.16544e-07
4.16469e-07
4.16386e-07
4.1628e-07
4.16177e-07
4.1602e-07
4.15935e-07
4.1571e-07
4.15737e-07
4.15313e-07
4.15462e-07
4.14782e-07
4.15034e-07
4.14073e-07
4.1442e-07
4.1306e-07
4.13729e-07
4.11972e-07
4.12313e-07
4.12252e-07
4.12197e-07
4.13178e-07
4.1417e-07
4.16113e-07
4.19387e-07
4.16078e-07
4.15998e-07
4.15923e-07
4.15854e-07
4.15788e-07
4.15725e-07
4.15666e-07
4.15608e-07
4.15553e-07
4.155e-07
4.1545e-07
4.15402e-07
4.15357e-07
4.15317e-07
4.15281e-07
4.1525e-07
4.15221e-07
4.15194e-07
4.15169e-07
4.1515e-07
4.15124e-07
4.15111e-07
4.15089e-07
4.15095e-07
4.15034e-07
4.15067e-07
4.14862e-07
4.14918e-07
4.14334e-07
4.14499e-07
4.13664e-07
4.14089e-07
4.13082e-07
4.13736e-07
4.12487e-07
4.13303e-07
4.12146e-07
4.12635e-07
4.12742e-07
4.12641e-07
4.13503e-07
4.14573e-07
4.16267e-07
4.1893e-07
4.17185e-07
4.17171e-07
4.17152e-07
4.17131e-07
4.17108e-07
4.17082e-07
4.17054e-07
4.17025e-07
4.16995e-07
4.16963e-07
4.1693e-07
4.16897e-07
4.16862e-07
4.16825e-07
4.16785e-07
4.16741e-07
4.16693e-07
4.16639e-07
4.1658e-07
4.16514e-07
4.16431e-07
4.16347e-07
4.16235e-07
4.16124e-07
4.15962e-07
4.15856e-07
4.15572e-07
4.15577e-07
4.15079e-07
4.1528e-07
4.14473e-07
4.1482e-07
4.13656e-07
4.14128e-07
4.12569e-07
4.1332e-07
4.11908e-07
4.12042e-07
4.12048e-07
4.11945e-07
4.12855e-07
4.13866e-07
4.15651e-07
4.18453e-07
4.16084e-07
4.16026e-07
4.1597e-07
4.15917e-07
4.15866e-07
4.15816e-07
4.15768e-07
4.15722e-07
4.15679e-07
4.15638e-07
4.15599e-07
4.15564e-07
4.15532e-07
4.15501e-07
4.15473e-07
4.15451e-07
4.1543e-07
4.1541e-07
4.15389e-07
4.15369e-07
4.15337e-07
4.15322e-07
4.15277e-07
4.15258e-07
4.15169e-07
4.1517e-07
4.14894e-07
4.14961e-07
4.14299e-07
4.14566e-07
4.1357e-07
4.14139e-07
4.12845e-07
4.13582e-07
4.12201e-07
4.12974e-07
4.11895e-07
4.12281e-07
4.12473e-07
4.12406e-07
4.13199e-07
4.14225e-07
4.15777e-07
4.181e-07
4.1715e-07
4.17132e-07
4.17112e-07
4.17089e-07
4.17064e-07
4.17037e-07
4.17009e-07
4.1698e-07
4.1695e-07
4.16919e-07
4.16886e-07
4.16851e-07
4.16814e-07
4.16774e-07
4.16731e-07
4.16684e-07
4.16633e-07
4.16575e-07
4.16509e-07
4.16432e-07
4.16347e-07
4.1625e-07
4.16125e-07
4.16002e-07
4.15822e-07
4.1571e-07
4.15392e-07
4.15413e-07
4.14844e-07
4.15083e-07
4.14165e-07
4.1456e-07
4.13268e-07
4.13855e-07
4.12221e-07
4.12968e-07
4.11887e-07
4.11918e-07
4.11942e-07
4.11853e-07
4.12677e-07
4.1367e-07
4.1531e-07
4.17776e-07
4.16166e-07
4.16122e-07
4.16081e-07
4.1604e-07
4.16002e-07
4.15964e-07
4.15929e-07
4.15895e-07
4.15864e-07
4.15835e-07
4.15806e-07
4.15779e-07
4.15753e-07
4.15727e-07
4.15702e-07
4.15678e-07
4.15656e-07
4.15635e-07
4.1561e-07
4.15577e-07
4.15539e-07
4.15502e-07
4.15427e-07
4.15373e-07
4.15246e-07
4.15202e-07
4.14854e-07
4.14971e-07
4.14271e-07
4.14628e-07
4.13512e-07
4.14088e-07
4.12699e-07
4.13483e-07
4.11993e-07
4.12717e-07
4.11764e-07
4.12017e-07
4.1226e-07
4.12291e-07
4.13021e-07
4.13999e-07
4.15439e-07
4.17506e-07
4.171e-07
4.17081e-07
4.17058e-07
4.17033e-07
4.17006e-07
4.16977e-07
4.16947e-07
4.16916e-07
4.16882e-07
4.16847e-07
4.1681e-07
4.16771e-07
4.16728e-07
4.16682e-07
4.16633e-07
4.16578e-07
4.16518e-07
4.16452e-07
4.16376e-07
4.16298e-07
4.16199e-07
4.16091e-07
4.15961e-07
4.15835e-07
4.15645e-07
4.15541e-07
4.15213e-07
4.15254e-07
4.14614e-07
4.14853e-07
4.13864e-07
4.14302e-07
4.12954e-07
4.13627e-07
4.12061e-07
4.1273e-07
4.11809e-07
4.11922e-07
4.11951e-07
4.1187e-07
4.12604e-07
4.13563e-07
4.15072e-07
4.17288e-07
4.16289e-07
4.16257e-07
4.16226e-07
4.16195e-07
4.16166e-07
4.16137e-07
4.1611e-07
4.16084e-07
4.16061e-07
4.16038e-07
4.16015e-07
4.15994e-07
4.15972e-07
4.1595e-07
4.15926e-07
4.15901e-07
4.15878e-07
4.15852e-07
4.15814e-07
4.15769e-07
4.15714e-07
4.15647e-07
4.15531e-07
4.15449e-07
4.15256e-07
4.15199e-07
4.14814e-07
4.14953e-07
4.1421e-07
4.14559e-07
4.13445e-07
4.14008e-07
4.12594e-07
4.1337e-07
4.11928e-07
4.12572e-07
4.11752e-07
4.11904e-07
4.1209e-07
4.12247e-07
4.12937e-07
4.13873e-07
4.15215e-07
4.17107e-07
4.17035e-07
4.17014e-07
4.16989e-07
4.1696e-07
4.1693e-07
4.16897e-07
4.16863e-07
4.16825e-07
4.16786e-07
4.16743e-07
4.16699e-07
4.16651e-07
4.16601e-07
4.16547e-07
4.1649e-07
4.16429e-07
4.16362e-07
4.16291e-07
4.16215e-07
4.16126e-07
4.16029e-07
4.15913e-07
4.15789e-07
4.15658e-07
4.15476e-07
4.15372e-07
4.15017e-07
4.15064e-07
4.14392e-07
4.14648e-07