/*--------------------------------*- C++ -*----------------------------------*\
| =========                 |                                                 |
| \\      /  F ield         | OpenFOAM: The Open Source CFD Toolbox           |
|  \\    /   O peration     | Version:  v1912                                 |
|   \\  /    A nd           | Website:  www.openfoam.com                      |
|    \\/     M anipulation  |                                                 |
\*---------------------------------------------------------------------------*/
FoamFile
{
    version     2.0;
    format      ascii;
    class       volSymmTensorField;
    location    "30";
    object      R;
}
// * * * * * * * * * * * * * * * * * * * * * * * * * * * * * * * * * * * * * //

dimensions      [0 2 -2 0 0 0 0];


internalField   nonuniform List<symmTensor> 
14268
(
(3.6634e-09 -2.92017e-11 0 3.62768e-09 0 3.64573e-09)
(3.70054e-09 -2.99098e-11 0 3.6852e-09 0 3.69306e-09)
(3.8116e-09 -3.18327e-11 0 3.83085e-09 0 3.82138e-09)
(3.94501e-09 -3.42257e-11 0 4.0049e-09 0 3.97505e-09)
(4.05036e-09 -3.6044e-11 0 4.14632e-09 0 4.09845e-09)
(4.09338e-09 -3.67237e-11 0 4.2111e-09 0 4.15242e-09)
(4.05885e-09 -3.6007e-11 0 4.17887e-09 0 4.11919e-09)
(3.97999e-09 -3.44734e-11 0 4.08546e-09 0 4.03315e-09)
(3.90159e-09 -3.2938e-11 0 3.98291e-09 0 3.94274e-09)
(3.82537e-09 -3.14529e-11 0 3.87961e-09 0 3.85288e-09)
(3.75188e-09 -3.00849e-11 0 3.78195e-09 0 3.76724e-09)
(3.68178e-09 -2.88675e-11 0 3.69328e-09 0 3.6877e-09)
(3.6145e-09 -2.77905e-11 0 3.61308e-09 0 3.6139e-09)
(3.55035e-09 -2.68219e-11 0 3.53824e-09 0 3.54437e-09)
(3.48833e-09 -2.59715e-11 0 3.46485e-09 0 3.47687e-09)
(3.43011e-09 -2.50059e-11 0 3.39223e-09 0 3.41139e-09)
(3.37278e-09 -2.42822e-11 0 3.31968e-09 0 3.34658e-09)
(3.31928e-09 -2.35685e-11 0 3.2511e-09 0 3.28525e-09)
(3.26587e-09 -2.27582e-11 0 3.18396e-09 0 3.22509e-09)
(3.21532e-09 -2.21023e-11 0 3.11538e-09 0 3.16533e-09)
(3.16128e-09 -2.14194e-11 0 3.0371e-09 0 3.09967e-09)
(3.10815e-09 -2.06179e-11 0 2.95308e-09 0 3.03108e-09)
(3.0532e-09 -1.98151e-11 0 2.87443e-09 0 2.96459e-09)
(3.00597e-09 -1.92378e-11 0 2.82209e-09 0 2.9142e-09)
(3.01587e-09 -1.97036e-11 0 2.85084e-09 0 2.93344e-09)
(3.15336e-09 -2.20621e-11 0 3.02134e-09 0 3.08674e-09)
(3.30752e-09 -2.46656e-11 0 3.21679e-09 0 3.2621e-09)
(3.38084e-09 -2.60289e-11 0 3.31757e-09 0 3.34916e-09)
(3.35474e-09 -2.54702e-11 0 3.29816e-09 0 3.32718e-09)
(3.32501e-09 -2.48396e-11 0 3.25286e-09 0 3.28959e-09)
(3.30087e-09 -2.40075e-11 0 3.21271e-09 0 3.25781e-09)
(3.29963e-09 -2.36979e-11 0 3.20782e-09 0 3.25422e-09)
(3.35937e-09 -2.44952e-11 0 3.29966e-09 0 3.33014e-09)
(3.70891e-09 -2.95299e-11 0 3.75154e-09 0 3.72979e-09)
(4.57563e-09 -4.31581e-11 0 4.9542e-09 0 4.76551e-09)
(6.68402e-09 -7.93751e-11 0 8.25417e-09 0 7.46706e-09)
(1.07553e-08 -1.53924e-10 0 1.64035e-08 0 1.35611e-08)
(1.58595e-08 -3.65036e-10 0 3.07027e-08 0 2.31891e-08)
(2.03345e-08 6.96214e-10 0 4.76234e-08 0 3.38139e-08)
(2.41797e-08 -2.17772e-09 0 5.88757e-08 0 4.10687e-08)
(2.30091e-08 1.29385e-09 0 5.25989e-08 0 3.74837e-08)
(2.07027e-08 -4.45567e-10 0 4.18903e-08 0 3.10806e-08)
(1.76144e-08 -6.76117e-10 0 2.98636e-08 0 2.35737e-08)
(1.13976e-08 -7.82591e-10 0 1.58679e-08 0 1.37769e-08)
(5.47789e-08 -8.50161e-10 0 5.44449e-08 0 5.4622e-08)
(5.47337e-08 -8.53292e-10 0 5.46729e-08 0 5.47132e-08)
(5.47836e-08 -8.60444e-10 0 5.52117e-08 0 5.50071e-08)
(5.48705e-08 -8.76148e-10 0 5.58638e-08 0 5.5376e-08)
(5.49335e-08 -8.87865e-10 0 5.64282e-08 0 5.56904e-08)
(5.49359e-08 -8.95414e-10 0 5.67604e-08 0 5.58592e-08)
(5.48593e-08 -8.96844e-10 0 5.67861e-08 0 5.58361e-08)
(5.47102e-08 -8.91864e-10 0 5.65177e-08 0 5.56282e-08)
(5.44947e-08 -8.82764e-10 0 5.60255e-08 0 5.52751e-08)
(5.42471e-08 -8.7099e-10 0 5.54296e-08 0 5.48525e-08)
(5.39915e-08 -8.58804e-10 0 5.48393e-08 0 5.44292e-08)
(5.37605e-08 -8.47914e-10 0 5.433e-08 0 5.40568e-08)
(5.3551e-08 -8.38621e-10 0 5.3911e-08 0 5.37422e-08)
(5.33527e-08 -8.30329e-10 0 5.35261e-08 0 5.34503e-08)
(5.31293e-08 -8.23536e-10 0 5.30999e-08 0 5.31298e-08)
(5.28965e-08 -8.08488e-10 0 5.26049e-08 0 5.27642e-08)
(5.26325e-08 -8.01826e-10 0 5.20559e-08 0 5.23606e-08)
(5.23916e-08 -7.91108e-10 0 5.15163e-08 0 5.19646e-08)
(5.21178e-08 -7.78816e-10 0 5.09627e-08 0 5.15547e-08)
(5.1827e-08 -7.65203e-10 0 5.0306e-08 0 5.10755e-08)
(5.13967e-08 -7.51767e-10 0 4.94008e-08 0 5.04181e-08)
(5.09054e-08 -7.31062e-10 0 4.82924e-08 0 4.96156e-08)
(5.03833e-08 -7.07565e-10 0 4.7263e-08 0 4.88478e-08)
(5.00878e-08 -6.94023e-10 0 4.67396e-08 0 4.84251e-08)
(5.00276e-08 -6.93829e-10 0 4.69236e-08 0 4.84878e-08)
(5.02559e-08 -7.08104e-10 0 4.77309e-08 0 4.8989e-08)
(5.04492e-08 -7.26627e-10 0 4.86543e-08 0 4.95584e-08)
(5.05553e-08 -7.43425e-10 0 4.92022e-08 0 4.98812e-08)
(5.03977e-08 -7.41291e-10 0 4.91881e-08 0 4.98117e-08)
(5.01695e-08 -7.37513e-10 0 4.87479e-08 0 4.94724e-08)
(4.98743e-08 -7.23549e-10 0 4.82872e-08 0 4.91068e-08)
(4.98504e-08 -7.21106e-10 0 4.82547e-08 0 4.90641e-08)
(5.00606e-08 -7.33203e-10 0 4.91144e-08 0 4.96082e-08)
(5.1121e-08 -7.7119e-10 0 5.1894e-08 0 5.15041e-08)
(5.30148e-08 -8.59655e-10 0 5.82695e-08 0 5.56603e-08)
(5.62754e-08 -1.05207e-09 0 7.22092e-08 0 6.42265e-08)
(5.88515e-08 -1.27483e-09 0 9.81613e-08 0 7.83801e-08)
(5.95232e-08 -2.03318e-09 0 1.36089e-07 0 9.73214e-08)
(6.01652e-08 3.9451e-09 0 1.78473e-07 0 1.186e-07)
(6.50541e-08 -1.43211e-08 0 2.14922e-07 0 1.37802e-07)
(6.56854e-08 1.22229e-08 0 2.12506e-07 0 1.37411e-07)
(6.87032e-08 -1.74395e-09 0 2.01674e-07 0 1.33757e-07)
(7.20354e-08 -9.89135e-09 0 1.84516e-07 0 1.26816e-07)
(6.32748e-08 -1.2412e-08 0 1.51477e-07 0 1.07815e-07)
(8.91369e-08 -2.21825e-09 0 8.86678e-08 0 8.89202e-08)
(8.89674e-08 -2.22131e-09 0 8.89401e-08 0 8.89706e-08)
(8.86926e-08 -2.22235e-09 0 8.94563e-08 0 8.90902e-08)
(8.83868e-08 -2.23607e-09 0 9.0064e-08 0 8.92384e-08)
(8.81107e-08 -2.24704e-09 0 9.05965e-08 0 8.93662e-08)
(8.79163e-08 -2.25635e-09 0 9.0937e-08 0 8.9441e-08)
(8.78287e-08 -2.26183e-09 0 9.10296e-08 0 8.94463e-08)
(8.78378e-08 -2.26138e-09 0 9.08678e-08 0 8.93715e-08)
(8.78921e-08 -2.25561e-09 0 9.04996e-08 0 8.92163e-08)
(8.7974e-08 -2.24619e-09 0 9.00403e-08 0 8.90255e-08)
(8.80465e-08 -2.23547e-09 0 8.95844e-08 0 8.88334e-08)
(8.81132e-08 -2.22573e-09 0 8.92052e-08 0 8.86726e-08)
(8.81532e-08 -2.2174e-09 0 8.89076e-08 0 8.85424e-08)
(8.81895e-08 -2.21446e-09 0 8.86401e-08 0 8.84244e-08)
(8.82075e-08 -2.20281e-09 0 8.83267e-08 0 8.82822e-08)
(8.82668e-08 -2.19243e-09 0 8.7941e-08 0 8.81168e-08)
(8.83119e-08 -2.18968e-09 0 8.7503e-08 0 8.79249e-08)
(8.84027e-08 -2.17745e-09 0 8.70747e-08 0 8.77459e-08)
(8.84398e-08 -2.171e-09 0 8.66261e-08 0 8.75466e-08)
(8.85442e-08 -2.15397e-09 0 8.60712e-08 0 8.73137e-08)
(8.85987e-08 -2.14496e-09 0 8.52774e-08 0 8.69616e-08)
(8.8758e-08 -2.12436e-09 0 8.42858e-08 0 8.65394e-08)
(8.88097e-08 -2.09467e-09 0 8.33775e-08 0 8.61266e-08)
(8.89026e-08 -2.07785e-09 0 8.29728e-08 0 8.59455e-08)
(8.8744e-08 -2.07236e-09 0 8.32383e-08 0 8.60007e-08)
(8.85055e-08 -2.07873e-09 0 8.40173e-08 0 8.62411e-08)
(8.80506e-08 -2.09652e-09 0 8.48992e-08 0 8.64741e-08)
(8.78361e-08 -2.11817e-09 0 8.54188e-08 0 8.66189e-08)
(8.76023e-08 -2.12078e-09 0 8.5507e-08 0 8.65762e-08)
(8.76264e-08 -2.11945e-09 0 8.51251e-08 0 8.63847e-08)
(8.74695e-08 -2.10457e-09 0 8.47736e-08 0 8.6153e-08)
(8.7476e-08 -2.09569e-09 0 8.47638e-08 0 8.61264e-08)
(8.7096e-08 -2.09601e-09 0 8.56423e-08 0 8.63876e-08)
(8.64951e-08 -2.0978e-09 0 8.81325e-08 0 8.72934e-08)
(8.46529e-08 -2.1022e-09 0 9.35873e-08 0 8.91266e-08)
(8.11117e-08 -2.1429e-09 0 1.05069e-07 0 9.30447e-08)
(7.44862e-08 -2.02871e-09 0 1.26877e-07 0 1.00473e-07)
(6.81591e-08 -2.37419e-09 0 1.60315e-07 0 1.13612e-07)
(6.58693e-08 4.62601e-09 0 1.98718e-07 0 1.3137e-07)
(6.9824e-08 -2.43471e-08 0 2.32479e-07 0 1.48379e-07)
(7.00543e-08 2.44117e-08 0 2.34336e-07 0 1.50477e-07)
(7.54555e-08 -2.08833e-09 0 2.25088e-07 0 1.48552e-07)
(8.03174e-08 -1.38776e-08 0 2.11825e-07 0 1.44172e-07)
(6.80272e-08 -1.11154e-08 0 1.79043e-07 0 1.26825e-07)
(9.63552e-08 -2.82911e-09 0 9.58897e-08 0 9.61146e-08)
(9.613e-08 -2.82603e-09 0 9.61408e-08 0 9.61277e-08)
(9.5738e-08 -2.82596e-09 0 9.66018e-08 0 9.61599e-08)
(9.52877e-08 -2.82542e-09 0 9.71359e-08 0 9.62e-08)
(9.48925e-08 -2.83715e-09 0 9.7613e-08 0 9.6239e-08)
(9.46282e-08 -2.84492e-09 0 9.79271e-08 0 9.62639e-08)
(9.45325e-08 -2.85221e-09 0 9.80291e-08 0 9.62693e-08)
(9.46035e-08 -2.85659e-09 0 9.79182e-08 0 9.62514e-08)
(9.47824e-08 -2.85633e-09 0 9.76493e-08 0 9.62085e-08)
(9.50216e-08 -2.85263e-09 0 9.73065e-08 0 9.61559e-08)
(9.52526e-08 -2.84708e-09 0 9.69679e-08 0 9.61025e-08)
(9.54558e-08 -2.84132e-09 0 9.66875e-08 0 9.60611e-08)
(9.56074e-08 -2.83643e-09 0 9.64726e-08 0 9.60287e-08)
(9.57458e-08 -2.83777e-09 0 9.62781e-08 0 9.59998e-08)
(9.58736e-08 -2.82662e-09 0 9.60483e-08 0 9.59566e-08)
(9.6085e-08 -2.82992e-09 0 9.57657e-08 0 9.59168e-08)
(9.62795e-08 -2.82642e-09 0 9.54432e-08 0 9.58605e-08)
(9.65424e-08 -2.82083e-09 0 9.51223e-08 0 9.58208e-08)
(9.6737e-08 -2.8171e-09 0 9.47942e-08 0 9.57615e-08)
(9.70602e-08 -2.81347e-09 0 9.43815e-08 0 9.57071e-08)
(9.73943e-08 -2.81e-09 0 9.37788e-08 0 9.55943e-08)
(9.79375e-08 -2.7989e-09 0 9.30133e-08 0 9.54812e-08)
(9.83252e-08 -2.78002e-09 0 9.23477e-08 0 9.53586e-08)
(9.86232e-08 -2.76034e-09 0 9.20369e-08 0 9.53298e-08)
(9.8374e-08 -2.74799e-09 0 9.23109e-08 0 9.53435e-08)
(9.79474e-08 -2.74564e-09 0 9.29415e-08 0 9.54147e-08)
(9.7173e-08 -2.75805e-09 0 9.37444e-08 0 9.54491e-08)
(9.68402e-08 -2.77282e-09 0 9.41511e-08 0 9.54817e-08)
(9.65755e-08 -2.78566e-09 0 9.42797e-08 0 9.54437e-08)
(9.67591e-08 -2.78421e-09 0 9.3983e-08 0 9.5383e-08)
(9.67492e-08 -2.77622e-09 0 9.3767e-08 0 9.52887e-08)
(9.67707e-08 -2.76056e-09 0 9.37848e-08 0 9.5289e-08)
(9.61262e-08 -2.73802e-09 0 9.45162e-08 0 9.53383e-08)
(9.46993e-08 -2.69235e-09 0 9.65762e-08 0 9.56219e-08)
(9.13992e-08 -2.59258e-09 0 1.00983e-07 0 9.61898e-08)
(8.5378e-08 -2.44693e-09 0 1.10793e-07 0 9.80331e-08)
(7.63653e-08 -2.07899e-09 0 1.30575e-07 0 1.03242e-07)
(6.88733e-08 -2.08866e-09 0 1.62509e-07 0 1.15049e-07)
(6.62457e-08 4.37319e-09 0 1.99878e-07 0 1.32094e-07)
(6.98541e-08 -2.3083e-08 0 2.32158e-07 0 1.48563e-07)
(7.04324e-08 2.7363e-08 0 2.3633e-07 0 1.5155e-07)
(7.65644e-08 -3.94488e-09 0 2.2665e-07 0 1.49925e-07)
(8.11551e-08 -1.62082e-08 0 2.14524e-07 0 1.46043e-07)
(7.91535e-08 -1.83888e-08 0 1.91959e-07 0 1.3572e-07)
(9.74592e-08 -2.99991e-09 0 9.7002e-08 0 9.72103e-08)
(9.72155e-08 -2.98971e-09 0 9.72456e-08 0 9.72099e-08)
(9.67906e-08 -2.98592e-09 0 9.76796e-08 0 9.72139e-08)
(9.63061e-08 -2.98241e-09 0 9.81856e-08 0 9.7224e-08)
(9.58804e-08 -2.99173e-09 0 9.86329e-08 0 9.72348e-08)
(9.55905e-08 -2.9996e-09 0 9.89314e-08 0 9.72417e-08)
(9.54916e-08 -3.00866e-09 0 9.90211e-08 0 9.72414e-08)
(9.55758e-08 -3.01601e-09 0 9.8921e-08 0 9.72356e-08)
(9.57876e-08 -3.01976e-09 0 9.86813e-08 0 9.72231e-08)
(9.60651e-08 -3.01958e-09 0 9.838e-08 0 9.72098e-08)
(9.63366e-08 -3.0171e-09 0 9.80844e-08 0 9.71968e-08)
(9.65873e-08 -3.01383e-09 0 9.78307e-08 0 9.71904e-08)
(9.67559e-08 -3.01088e-09 0 9.76482e-08 0 9.71832e-08)
(9.69297e-08 -3.01078e-09 0 9.74672e-08 0 9.71781e-08)
(9.70807e-08 -3.01051e-09 0 9.72728e-08 0 9.71633e-08)
(9.73319e-08 -3.01186e-09 0 9.70047e-08 0 9.71548e-08)
(9.75824e-08 -3.01126e-09 0 9.67354e-08 0 9.71456e-08)
(9.78757e-08 -3.0103e-09 0 9.64672e-08 0 9.7148e-08)
(9.81313e-08 -3.00973e-09 0 9.6174e-08 0 9.71335e-08)
(9.85079e-08 -3.01303e-09 0 9.58078e-08 0 9.71324e-08)
(9.89545e-08 -3.01573e-09 0 9.52763e-08 0 9.71057e-08)
(9.96027e-08 -3.01346e-09 0 9.46362e-08 0 9.71053e-08)
(1.00136e-07 -3.00012e-09 0 9.40384e-08 0 9.70856e-08)
(1.00452e-07 -2.97913e-09 0 9.38207e-08 0 9.71111e-08)
(1.00211e-07 -2.95921e-09 0 9.40351e-08 0 9.70984e-08)
(9.96523e-08 -2.95038e-09 0 9.46789e-08 0 9.71131e-08)
(9.88927e-08 -2.95564e-09 0 9.53324e-08 0 9.7077e-08)
(9.84103e-08 -2.97099e-09 0 9.58136e-08 0 9.70759e-08)
(9.82211e-08 -2.986e-09 0 9.58727e-08 0 9.70353e-08)
(9.83905e-08 -2.98909e-09 0 9.56955e-08 0 9.70281e-08)
(9.85036e-08 -2.98131e-09 0 9.54679e-08 0 9.69844e-08)
(9.84498e-08 -2.95953e-09 0 9.55858e-08 0 9.69993e-08)
(9.77755e-08 -2.92066e-09 0 9.62225e-08 0 9.69814e-08)
(9.60738e-08 -2.83978e-09 0 9.81396e-08 0 9.70627e-08)
(9.25423e-08 -2.67852e-09 0 1.02041e-07 0 9.72679e-08)
(8.58248e-08 -2.41846e-09 0 1.11546e-07 0 9.86298e-08)
(7.65193e-08 -1.88146e-09 0 1.30828e-07 0 1.03446e-07)
(6.88871e-08 -1.68434e-09 0 1.62587e-07 0 1.15119e-07)
(6.63008e-08 4.32647e-09 0 1.9993e-07 0 1.32168e-07)
(7.01043e-08 -2.11585e-08 0 2.32435e-07 0 1.48642e-07)
(6.93428e-08 2.78444e-08 0 2.36158e-07 0 1.51087e-07)
(7.71266e-08 -7.18633e-09 0 2.26431e-07 0 1.50022e-07)
(7.99407e-08 -1.61687e-08 0 2.16105e-07 0 1.46429e-07)
(8.36763e-08 -1.88813e-08 0 1.96879e-07 0 1.38977e-07)
(9.75626e-08 -3.03876e-09 0 9.70291e-08 0 9.73129e-08)
(9.73151e-08 -3.02548e-09 0 9.72686e-08 0 9.73094e-08)
(9.6888e-08 -3.01651e-09 0 9.76962e-08 0 9.731e-08)
(9.64091e-08 -3.02141e-09 0 9.82088e-08 0 9.73216e-08)
(9.59686e-08 -3.02316e-09 0 9.86613e-08 0 9.73292e-08)
(9.569e-08 -3.03417e-09 0 9.89504e-08 0 9.73355e-08)
(9.55841e-08 -3.04499e-09 0 9.90486e-08 0 9.73346e-08)
(9.56707e-08 -3.05425e-09 0 9.89492e-08 0 9.73296e-08)
(9.58805e-08 -3.05901e-09 0 9.87174e-08 0 9.732e-08)
(9.61714e-08 -3.06019e-09 0 9.84181e-08 0 9.7313e-08)
(9.64446e-08 -3.05751e-09 0 9.81298e-08 0 9.73048e-08)
(9.66984e-08 -3.0546e-09 0 9.78808e-08 0 9.73028e-08)
(9.688e-08 -3.05238e-09 0 9.77003e-08 0 9.7301e-08)
(9.70484e-08 -3.05194e-09 0 9.75308e-08 0 9.72989e-08)
(9.72149e-08 -3.05374e-09 0 9.73301e-08 0 9.72884e-08)
(9.74661e-08 -3.05583e-09 0 9.71014e-08 0 9.72929e-08)
(9.77111e-08 -3.05597e-09 0 9.68039e-08 0 9.7278e-08)
(9.80234e-08 -3.05575e-09 0 9.65381e-08 0 9.72896e-08)
(9.82827e-08 -3.0557e-09 0 9.62474e-08 0 9.72804e-08)
(9.86705e-08 -3.06389e-09 0 9.59057e-08 0 9.72939e-08)
(9.91354e-08 -3.06916e-09 0 9.53771e-08 0 9.72805e-08)
(9.98042e-08 -3.06966e-09 0 9.47531e-08 0 9.73004e-08)
(1.00358e-07 -3.05692e-09 0 9.4173e-08 0 9.73005e-08)
(1.00675e-07 -3.03322e-09 0 9.39647e-08 0 9.73331e-08)
(1.00456e-07 -3.00635e-09 0 9.41784e-08 0 9.73229e-08)
(9.98686e-08 -2.99478e-09 0 9.48124e-08 0 9.73232e-08)
(9.91034e-08 -2.99936e-09 0 9.54534e-08 0 9.72773e-08)
(9.86045e-08 -3.0162e-09 0 9.595e-08 0 9.72718e-08)
(9.84202e-08 -3.03437e-09 0 9.59892e-08 0 9.72272e-08)
(9.85942e-08 -3.04139e-09 0 9.58267e-08 0 9.72303e-08)
(9.87229e-08 -3.03428e-09 0 9.56038e-08 0 9.71973e-08)
(9.86643e-08 -3.00697e-09 0 9.57264e-08 0 9.72135e-08)
(9.79669e-08 -2.95622e-09 0 9.63502e-08 0 9.71786e-08)
(9.62152e-08 -2.84748e-09 0 9.82405e-08 0 9.7224e-08)
(9.26805e-08 -2.64335e-09 0 1.02064e-07 0 9.73805e-08)
(8.58559e-08 -2.28512e-09 0 1.11574e-07 0 9.86811e-08)
(7.65208e-08 -1.63098e-09 0 1.30813e-07 0 1.03445e-07)
(6.88956e-08 -1.37097e-09 0 1.62615e-07 0 1.15124e-07)
(6.64582e-08 4.03416e-09 0 2.00205e-07 0 1.32291e-07)
(6.93768e-08 -1.80396e-08 0 2.30745e-07 0 1.4775e-07)
(6.96721e-08 2.48065e-08 0 2.36485e-07 0 1.51193e-07)
(7.6631e-08 -7.54922e-09 0 2.26726e-07 0 1.49964e-07)
(8.02385e-08 -1.59436e-08 0 2.15626e-07 0 1.46149e-07)
(8.28563e-08 -2.20882e-08 0 1.96204e-07 0 1.38923e-07)
(9.76042e-08 -3.04307e-09 0 9.71151e-08 0 9.73536e-08)
(9.73597e-08 -3.02683e-09 0 9.73614e-08 0 9.73524e-08)
(9.69327e-08 -3.01609e-09 0 9.77958e-08 0 9.73541e-08)
(9.6442e-08 -3.02007e-09 0 9.82982e-08 0 9.73595e-08)
(9.60154e-08 -3.02278e-09 0 9.87453e-08 0 9.73684e-08)
(9.5721e-08 -3.03491e-09 0 9.90477e-08 0 9.73739e-08)
(9.56231e-08 -3.04792e-09 0 9.91382e-08 0 9.73733e-08)
(9.57107e-08 -3.05882e-09 0 9.90403e-08 0 9.73695e-08)
(9.59238e-08 -3.06515e-09 0 9.88101e-08 0 9.73622e-08)
(9.62116e-08 -3.06717e-09 0 9.85134e-08 0 9.73561e-08)
(9.64899e-08 -3.06439e-09 0 9.8222e-08 0 9.73493e-08)
(9.67461e-08 -3.06135e-09 0 9.79713e-08 0 9.73482e-08)
(9.69229e-08 -3.05887e-09 0 9.77945e-08 0 9.73468e-08)
(9.70967e-08 -3.05894e-09 0 9.7622e-08 0 9.73459e-08)
(9.72603e-08 -3.06126e-09 0 9.74292e-08 0 9.73373e-08)
(9.75126e-08 -3.06187e-09 0 9.71706e-08 0 9.7335e-08)
(9.77728e-08 -3.06641e-09 0 9.69119e-08 0 9.7335e-08)
(9.80742e-08 -3.06545e-09 0 9.66425e-08 0 9.73435e-08)
(9.83402e-08 -3.06581e-09 0 9.63505e-08 0 9.73366e-08)
(9.87284e-08 -3.0754e-09 0 9.60056e-08 0 9.73505e-08)
(9.91974e-08 -3.08352e-09 0 9.54796e-08 0 9.73406e-08)
(9.98709e-08 -3.08518e-09 0 9.48581e-08 0 9.73647e-08)
(1.00435e-07 -3.07116e-09 0 9.42858e-08 0 9.7372e-08)
(1.0076e-07 -3.04245e-09 0 9.4078e-08 0 9.74074e-08)
(1.00507e-07 -3.01173e-09 0 9.42717e-08 0 9.73824e-08)
(9.99355e-08 -2.9967e-09 0 9.49161e-08 0 9.73877e-08)
(9.91766e-08 -3.00102e-09 0 9.55517e-08 0 9.73403e-08)
(9.8656e-08 -3.02072e-09 0 9.6046e-08 0 9.73278e-08)
(9.84942e-08 -3.04184e-09 0 9.60781e-08 0 9.72874e-08)
(9.86414e-08 -3.05139e-09 0 9.59432e-08 0 9.72914e-08)
(9.87885e-08 -3.04281e-09 0 9.57071e-08 0 9.72611e-08)
(9.8729e-08 -3.01025e-09 0 9.58297e-08 0 9.72769e-08)
(9.80227e-08 -2.95076e-09 0 9.64581e-08 0 9.72391e-08)
(9.62594e-08 -2.81962e-09 0 9.83488e-08 0 9.7276e-08)
(9.27271e-08 -2.5829e-09 0 1.02117e-07 0 9.74108e-08)
(8.58658e-08 -2.16411e-09 0 1.11601e-07 0 9.86873e-08)
(7.65231e-08 -1.3756e-09 0 1.30809e-07 0 1.03441e-07)
(6.88623e-08 -9.35168e-10 0 1.62561e-07 0 1.15098e-07)
(6.65273e-08 3.52601e-09 0 2.00284e-07 0 1.32332e-07)
(6.88143e-08 -1.3032e-08 0 2.29525e-07 0 1.46799e-07)
(6.99343e-08 2.00079e-08 0 2.35858e-07 0 1.50997e-07)
(7.56572e-08 -5.56051e-09 0 2.27788e-07 0 1.4974e-07)
(7.81248e-08 -1.19106e-08 0 2.1684e-07 0 1.45708e-07)
(8.26691e-08 -1.66651e-08 0 1.95909e-07 0 1.3808e-07)
(9.75938e-08 -3.04395e-09 0 9.70894e-08 0 9.73442e-08)
(9.73454e-08 -3.02231e-09 0 9.73228e-08 0 9.73386e-08)
(9.6919e-08 -3.01229e-09 0 9.77548e-08 0 9.73398e-08)
(9.64291e-08 -3.0123e-09 0 9.82584e-08 0 9.73456e-08)
(9.60009e-08 -3.01947e-09 0 9.87063e-08 0 9.73544e-08)
(9.5707e-08 -3.03294e-09 0 9.90059e-08 0 9.73594e-08)
(9.5609e-08 -3.04788e-09 0 9.9095e-08 0 9.73584e-08)
(9.56942e-08 -3.0599e-09 0 9.8996e-08 0 9.73538e-08)
(9.59073e-08 -3.06743e-09 0 9.8767e-08 0 9.73468e-08)
(9.61939e-08 -3.06979e-09 0 9.84675e-08 0 9.73398e-08)
(9.64789e-08 -3.06718e-09 0 9.81724e-08 0 9.73338e-08)
(9.67287e-08 -3.06339e-09 0 9.79302e-08 0 9.73333e-08)
(9.69084e-08 -3.05944e-09 0 9.77483e-08 0 9.73313e-08)
(9.70801e-08 -3.06062e-09 0 9.75744e-08 0 9.73295e-08)
(9.72442e-08 -3.06397e-09 0 9.73704e-08 0 9.73181e-08)
(9.74955e-08 -3.06433e-09 0 9.71264e-08 0 9.73195e-08)
(9.77485e-08 -3.06882e-09 0 9.68548e-08 0 9.73144e-08)
(9.80602e-08 -3.06869e-09 0 9.65946e-08 0 9.73281e-08)
(9.83262e-08 -3.07004e-09 0 9.63069e-08 0 9.73224e-08)
(9.87116e-08 -3.0791e-09 0 9.59573e-08 0 9.73345e-08)
(9.91848e-08 -3.08884e-09 0 9.54388e-08 0 9.7328e-08)
(9.98602e-08 -3.09082e-09 0 9.48233e-08 0 9.73546e-08)
(1.00417e-07 -3.07643e-09 0 9.42464e-08 0 9.73594e-08)
(1.00737e-07 -3.04461e-09 0 9.40443e-08 0 9.73953e-08)
(1.00529e-07 -3.00794e-09 0 9.42477e-08 0 9.73849e-08)
(9.99301e-08 -2.99014e-09 0 9.48909e-08 0 9.73819e-08)
(9.9157e-08 -2.99601e-09 0 9.5512e-08 0 9.7327e-08)
(9.8652e-08 -3.01921e-09 0 9.60089e-08 0 9.7319e-08)
(9.84841e-08 -3.04116e-09 0 9.60384e-08 0 9.72762e-08)
(9.86289e-08 -3.0533e-09 0 9.59083e-08 0 9.72811e-08)
(9.87774e-08 -3.04304e-09 0 9.56675e-08 0 9.725e-08)
(9.87192e-08 -3.00688e-09 0 9.5793e-08 0 9.72669e-08)
(9.80109e-08 -2.93964e-09 0 9.64184e-08 0 9.72273e-08)
(9.6239e-08 -2.79114e-09 0 9.8304e-08 0 9.72596e-08)
(9.27201e-08 -2.51849e-09 0 1.02066e-07 0 9.73944e-08)
(8.58591e-08 -1.99825e-09 0 1.11574e-07 0 9.86742e-08)
(7.65145e-08 -1.18976e-09 0 1.30773e-07 0 1.03423e-07)
(6.88272e-08 -6.49407e-10 0 1.62553e-07 0 1.15104e-07)
(6.71958e-08 2.85119e-09 0 2.01778e-07 0 1.3289e-07)
(6.77347e-08 -9.78489e-09 0 2.26903e-07 0 1.45262e-07)
(7.09876e-08 1.45576e-08 0 2.35473e-07 0 1.51196e-07)
(7.46203e-08 -3.10196e-09 0 2.28613e-07 0 1.49717e-07)
(7.77236e-08 -8.7627e-09 0 2.16745e-07 0 1.45312e-07)
(8.12447e-08 -1.61656e-08 0 1.96399e-07 0 1.37888e-07)
(9.76034e-08 -3.04216e-09 0 9.71079e-08 0 9.73526e-08)
(9.73567e-08 -3.01795e-09 0 9.73488e-08 0 9.73493e-08)
(9.69278e-08 -3.00684e-09 0 9.77784e-08 0 9.73493e-08)
(9.64443e-08 -3.00599e-09 0 9.82872e-08 0 9.7358e-08)
(9.60061e-08 -3.01413e-09 0 9.87381e-08 0 9.73651e-08)
(9.57207e-08 -3.03027e-09 0 9.90313e-08 0 9.73706e-08)
(9.56203e-08 -3.04717e-09 0 9.91262e-08 0 9.73707e-08)
(9.57085e-08 -3.06041e-09 0 9.90305e-08 0 9.73678e-08)
(9.59157e-08 -3.06812e-09 0 9.87972e-08 0 9.73583e-08)
(9.62167e-08 -3.07259e-09 0 9.84971e-08 0 9.73548e-08)
(9.64866e-08 -3.0692e-09 0 9.82143e-08 0 9.73483e-08)
(9.67467e-08 -3.06462e-09 0 9.79599e-08 0 9.73472e-08)
(9.69198e-08 -3.05804e-09 0 9.77823e-08 0 9.73446e-08)
(9.70976e-08 -3.06159e-09 0 9.76085e-08 0 9.73446e-08)
(9.72635e-08 -3.0665e-09 0 9.74219e-08 0 9.73383e-08)
(9.75174e-08 -3.06835e-09 0 9.71865e-08 0 9.73426e-08)
(9.77645e-08 -3.06945e-09 0 9.68926e-08 0 9.73303e-08)
(9.80766e-08 -3.07007e-09 0 9.66299e-08 0 9.73435e-08)
(9.834e-08 -3.07285e-09 0 9.63377e-08 0 9.73361e-08)
(9.87311e-08 -3.08234e-09 0 9.60031e-08 0 9.73535e-08)
(9.91994e-08 -3.09256e-09 0 9.54723e-08 0 9.73425e-08)
(9.98713e-08 -3.09591e-09 0 9.48444e-08 0 9.73651e-08)
(1.00436e-07 -3.07916e-09 0 9.42718e-08 0 9.7373e-08)
(1.00758e-07 -3.04166e-09 0 9.40582e-08 0 9.74063e-08)
(1.00512e-07 -3.00216e-09 0 9.42631e-08 0 9.73854e-08)
(9.99329e-08 -2.98142e-09 0 9.48977e-08 0 9.73861e-08)
(9.91753e-08 -2.98665e-09 0 9.55357e-08 0 9.73397e-08)
(9.86573e-08 -3.01287e-09 0 9.60337e-08 0 9.73291e-08)
(9.84885e-08 -3.03936e-09 0 9.60644e-08 0 9.72868e-08)
(9.86497e-08 -3.0529e-09 0 9.59263e-08 0 9.72938e-08)
(9.87904e-08 -3.04148e-09 0 9.56933e-08 0 9.72627e-08)
(9.8729e-08 -3.00077e-09 0 9.58086e-08 0 9.72759e-08)
(9.8023e-08 -2.92475e-09 0 9.64386e-08 0 9.72377e-08)
(9.62587e-08 -2.7601e-09 0 9.83312e-08 0 9.72729e-08)
(9.27319e-08 -2.45477e-09 0 1.02096e-07 0 9.74054e-08)
(8.58555e-08 -1.86262e-09 0 1.11556e-07 0 9.8666e-08)
(7.65216e-08 -8.15276e-10 0 1.30761e-07 0 1.03414e-07)
(6.88057e-08 6.20202e-11 0 1.62543e-07 0 1.15123e-07)
(6.74267e-08 2.04109e-09 0 2.0253e-07 0 1.33052e-07)
(6.77639e-08 -3.62545e-09 0 2.25688e-07 0 1.44456e-07)
(7.12172e-08 1.32551e-08 0 2.3479e-07 0 1.51173e-07)
(7.45991e-08 -2.3866e-09 0 2.29022e-07 0 1.49932e-07)
(7.67251e-08 -6.71231e-09 0 2.17718e-07 0 1.45446e-07)
(8.08789e-08 -1.30427e-08 0 1.95181e-07 0 1.37042e-07)
(9.75963e-08 -3.038e-09 0 9.70892e-08 0 9.73457e-08)
(9.73508e-08 -3.0143e-09 0 9.73322e-08 0 9.73432e-08)
(9.69232e-08 -3.0015e-09 0 9.77646e-08 0 9.73442e-08)
(9.64347e-08 -2.99981e-09 0 9.82683e-08 0 9.73504e-08)
(9.60014e-08 -3.00798e-09 0 9.87177e-08 0 9.73583e-08)
(9.57174e-08 -3.02739e-09 0 9.90169e-08 0 9.73658e-08)
(9.56112e-08 -3.04691e-09 0 9.91102e-08 0 9.73641e-08)
(9.56996e-08 -3.05983e-09 0 9.90065e-08 0 9.73591e-08)
(9.59173e-08 -3.07166e-09 0 9.87791e-08 0 9.7354e-08)
(9.62003e-08 -3.07409e-09 0 9.84845e-08 0 9.73473e-08)
(9.64848e-08 -3.07094e-09 0 9.81882e-08 0 9.7341e-08)
(9.6738e-08 -3.06566e-09 0 9.79426e-08 0 9.73405e-08)
(9.69152e-08 -3.05903e-09 0 9.77627e-08 0 9.73384e-08)
(9.70895e-08 -3.06246e-09 0 9.7594e-08 0 9.73388e-08)
(9.72534e-08 -3.06723e-09 0 9.73954e-08 0 9.73288e-08)
(9.75045e-08 -3.07038e-09 0 9.71407e-08 0 9.73277e-08)
(9.77644e-08 -3.07109e-09 0 9.68865e-08 0 9.73288e-08)
(9.80684e-08 -3.07113e-09 0 9.66128e-08 0 9.73372e-08)
(9.83372e-08 -3.07541e-09 0 9.63335e-08 0 9.73344e-08)
(9.87222e-08 -3.08576e-09 0 9.59742e-08 0 9.73441e-08)
(9.91993e-08 -3.0974e-09 0 9.54695e-08 0 9.73422e-08)
(9.9879e-08 -3.10293e-09 0 9.48621e-08 0 9.73723e-08)
(1.00443e-07 -3.08243e-09 0 9.42847e-08 0 9.73787e-08)
(1.00766e-07 -3.0432e-09 0 9.40661e-08 0 9.74117e-08)
(1.00522e-07 -2.99754e-09 0 9.42808e-08 0 9.73939e-08)
(9.99428e-08 -2.97359e-09 0 9.49106e-08 0 9.7393e-08)
(9.91728e-08 -2.98105e-09 0 9.55409e-08 0 9.73414e-08)
(9.86643e-08 -3.00894e-09 0 9.60407e-08 0 9.73336e-08)
(9.85009e-08 -3.04119e-09 0 9.60666e-08 0 9.72915e-08)
(9.86402e-08 -3.05511e-09 0 9.59337e-08 0 9.72942e-08)
(9.87949e-08 -3.04097e-09 0 9.57011e-08 0 9.72669e-08)
(9.87384e-08 -2.99505e-09 0 9.58306e-08 0 9.72847e-08)
(9.8026e-08 -2.90634e-09 0 9.64555e-08 0 9.7243e-08)
(9.62438e-08 -2.71755e-09 0 9.83346e-08 0 9.72692e-08)
(9.27398e-08 -2.38268e-09 0 1.02049e-07 0 9.73927e-08)
(8.58646e-08 -1.71916e-09 0 1.11568e-07 0 9.86681e-08)
(7.65153e-08 -5.79779e-10 0 1.30724e-07 0 1.03397e-07)
(6.87998e-08 5.21376e-10 0 1.62441e-07 0 1.15107e-07)
(6.73762e-08 1.36152e-09 0 2.02522e-07 0 1.32716e-07)
(6.65565e-08 -9.97301e-10 0 2.23149e-07 0 1.4342e-07)
(7.12181e-08 1.27647e-08 0 2.31749e-07 0 1.50339e-07)
(7.31923e-08 1.156e-10 0 2.2693e-07 0 1.48992e-07)
(7.57154e-08 -4.17919e-09 0 2.16213e-07 0 1.44656e-07)
(8.01151e-08 -1.21389e-08 0 1.96066e-07 0 1.37251e-07)
(9.76028e-08 -3.03521e-09 0 9.71046e-08 0 9.73518e-08)
(9.73555e-08 -3.01077e-09 0 9.7344e-08 0 9.7348e-08)
(9.6927e-08 -2.99537e-09 0 9.77752e-08 0 9.73484e-08)
(9.64399e-08 -2.99398e-09 0 9.82794e-08 0 9.73551e-08)
(9.60088e-08 -3.00374e-09 0 9.87292e-08 0 9.73638e-08)
(9.57133e-08 -3.02231e-09 0 9.90288e-08 0 9.73684e-08)
(9.56244e-08 -3.04719e-09 0 9.91196e-08 0 9.73705e-08)
(9.57035e-08 -3.06102e-09 0 9.90259e-08 0 9.73659e-08)
(9.59221e-08 -3.07433e-09 0 9.87934e-08 0 9.73598e-08)
(9.6204e-08 -3.07565e-09 0 9.84958e-08 0 9.73521e-08)
(9.64897e-08 -3.07206e-09 0 9.81967e-08 0 9.73453e-08)
(9.67413e-08 -3.06664e-09 0 9.79488e-08 0 9.73439e-08)
(9.6921e-08 -3.06162e-09 0 9.77752e-08 0 9.73441e-08)
(9.70905e-08 -3.06312e-09 0 9.75973e-08 0 9.73409e-08)
(9.7256e-08 -3.06689e-09 0 9.73888e-08 0 9.73288e-08)
(9.75098e-08 -3.07165e-09 0 9.71491e-08 0 9.73323e-08)
(9.77593e-08 -3.07298e-09 0 9.6876e-08 0 9.73261e-08)
(9.80707e-08 -3.07147e-09 0 9.66143e-08 0 9.73393e-08)
(9.83328e-08 -3.07797e-09 0 9.63129e-08 0 9.73293e-08)
(9.87224e-08 -3.09109e-09 0 9.59715e-08 0 9.73448e-08)
(9.91874e-08 -3.10005e-09 0 9.54374e-08 0 9.7332e-08)
(9.98636e-08 -3.10749e-09 0 9.48159e-08 0 9.73574e-08)
(1.0043e-07 -3.08505e-09 0 9.42423e-08 0 9.73655e-08)
(1.00758e-07 -3.03897e-09 0 9.40439e-08 0 9.74041e-08)
(1.00511e-07 -2.99065e-09 0 9.42528e-08 0 9.7384e-08)
(9.99343e-08 -2.9653e-09 0 9.48882e-08 0 9.73853e-08)
(9.91709e-08 -2.97261e-09 0 9.55275e-08 0 9.73378e-08)
(9.86517e-08 -3.00184e-09 0 9.60178e-08 0 9.73249e-08)
(9.84869e-08 -3.03836e-09 0 9.60543e-08 0 9.72853e-08)
(9.86457e-08 -3.05303e-09 0 9.59102e-08 0 9.72905e-08)
(9.87875e-08 -3.04017e-09 0 9.56772e-08 0 9.72595e-08)
(9.87272e-08 -2.98789e-09 0 9.57958e-08 0 9.72731e-08)
(9.80149e-08 -2.89099e-09 0 9.6414e-08 0 9.72292e-08)
(9.6241e-08 -2.68358e-09 0 9.83007e-08 0 9.72591e-08)
(9.27332e-08 -2.31571e-09 0 1.02041e-07 0 9.73877e-08)
(8.58507e-08 -1.58092e-09 0 1.11509e-07 0 9.86451e-08)
(7.65155e-08 -3.4854e-10 0 1.30696e-07 0 1.03384e-07)
(6.8788e-08 6.67087e-10 0 1.62347e-07 0 1.15082e-07)
(6.74236e-08 1.09353e-09 0 2.02536e-07 0 1.32479e-07)
(6.72516e-08 4.18337e-09 0 2.24163e-07 0 1.44373e-07)
(7.06366e-08 1.43361e-08 0 2.24926e-07 0 1.47877e-07)
(7.24688e-08 3.47983e-09 0 2.2143e-07 0 1.46737e-07)
(7.42557e-08 1.68441e-10 0 2.13247e-07 0 1.43153e-07)
(7.8799e-08 -9.51018e-09 0 1.9322e-07 0 1.35721e-07)
(9.76006e-08 -3.03327e-09 0 9.70971e-08 0 9.73493e-08)
(9.73533e-08 -3.00654e-09 0 9.73391e-08 0 9.73461e-08)
(9.69256e-08 -2.98874e-09 0 9.77697e-08 0 9.73465e-08)
(9.64378e-08 -2.98903e-09 0 9.82744e-08 0 9.73531e-08)
(9.60072e-08 -2.99915e-09 0 9.87282e-08 0 9.7363e-08)
(9.57098e-08 -3.01939e-09 0 9.90236e-08 0 9.73662e-08)
(9.56195e-08 -3.04409e-09 0 9.91093e-08 0 9.73666e-08)
(9.57058e-08 -3.06225e-09 0 9.90197e-08 0 9.7365e-08)
(9.59142e-08 -3.07474e-09 0 9.87884e-08 0 9.73565e-08)
(9.62161e-08 -3.07737e-09 0 9.8493e-08 0 9.73546e-08)
(9.64911e-08 -3.07364e-09 0 9.82129e-08 0 9.73501e-08)
(9.67498e-08 -3.0685e-09 0 9.79691e-08 0 9.73515e-08)
(9.69257e-08 -3.06349e-09 0 9.77912e-08 0 9.73497e-08)
(9.70999e-08 -3.06367e-09 0 9.76225e-08 0 9.73501e-08)
(9.72731e-08 -3.0667e-09 0 9.74333e-08 0 9.7345e-08)
(9.7524e-08 -3.07388e-09 0 9.71957e-08 0 9.73484e-08)
(9.77755e-08 -3.07493e-09 0 9.69215e-08 0 9.73424e-08)
(9.80844e-08 -3.07215e-09 0 9.6652e-08 0 9.73529e-08)
(9.83547e-08 -3.08091e-09 0 9.63719e-08 0 9.73506e-08)
(9.87468e-08 -3.09613e-09 0 9.60384e-08 0 9.73688e-08)
(9.92157e-08 -3.105e-09 0 9.55121e-08 0 9.7359e-08)
(9.98913e-08 -3.11305e-09 0 9.48876e-08 0 9.73837e-08)
(1.00453e-07 -3.0891e-09 0 9.42978e-08 0 9.73866e-08)
(1.00778e-07 -3.03817e-09 0 9.40895e-08 0 9.7422e-08)
(1.00534e-07 -2.98504e-09 0 9.43039e-08 0 9.74041e-08)
(9.99522e-08 -2.95729e-09 0 9.49296e-08 0 9.74017e-08)
(9.91809e-08 -2.96648e-09 0 9.5564e-08 0 9.73509e-08)
(9.86746e-08 -2.99827e-09 0 9.60652e-08 0 9.73442e-08)
(9.8509e-08 -3.03784e-09 0 9.60946e-08 0 9.73026e-08)
(9.86591e-08 -3.05083e-09 0 9.59706e-08 0 9.73106e-08)
(9.88077e-08 -3.04074e-09 0 9.5728e-08 0 9.72788e-08)
(9.87464e-08 -2.98328e-09 0 9.58429e-08 0 9.72909e-08)
(9.80378e-08 -2.8781e-09 0 9.64714e-08 0 9.72503e-08)
(9.62607e-08 -2.64941e-09 0 9.83479e-08 0 9.7276e-08)
(9.275e-08 -2.24775e-09 0 1.02069e-07 0 9.73976e-08)
(8.58721e-08 -1.42648e-09 0 1.11547e-07 0 9.86579e-08)
(7.65207e-08 2.06859e-11 0 1.30677e-07 0 1.03374e-07)
(6.88156e-08 1.06697e-09 0 1.62257e-07 0 1.15058e-07)
(6.75556e-08 1.2382e-09 0 2.02275e-07 0 1.32201e-07)
(6.83202e-08 8.35357e-09 0 2.24019e-07 0 1.45066e-07)
(7.04807e-08 1.831e-08 0 2.18421e-07 0 1.45292e-07)
(7.0036e-08 9.40437e-09 0 2.12727e-07 0 1.42871e-07)
(7.25328e-08 8.61204e-09 0 2.03824e-07 0 1.38788e-07)
(7.70019e-08 -4.51919e-09 0 1.90064e-07 0 1.33817e-07)
(9.7603e-08 -3.03192e-09 0 9.70998e-08 0 9.73509e-08)
(9.73541e-08 -3.0008e-09 0 9.73409e-08 0 9.7347e-08)
(9.69252e-08 -2.98167e-09 0 9.7769e-08 0 9.73464e-08)
(9.64407e-08 -2.98282e-09 0 9.82713e-08 0 9.73534e-08)
(9.59965e-08 -2.99381e-09 0 9.87227e-08 0 9.73592e-08)
(9.57197e-08 -3.01761e-09 0 9.90175e-08 0 9.73675e-08)