/*--------------------------------*- C++ -*----------------------------------*\
| =========                 |                                                 |
| \\      /  F ield         | OpenFOAM: The Open Source CFD Toolbox           |
|  \\    /   O peration     | Version:  v1912                                 |
|   \\  /    A nd           | Website:  www.openfoam.com                      |
|    \\/     M anipulation  |                                                 |
\*---------------------------------------------------------------------------*/
FoamFile
{
    version     2.0;
    format      ascii;
    class       volVectorField;
    location    "80";
    object      U;
}
// * * * * * * * * * * * * * * * * * * * * * * * * * * * * * * * * * * * * * //

dimensions      [0 1 -1 0 0 0 0];


internalField   nonuniform List<vector> 
14268
(
(-1.64403 -0.0822164 0)
(-1.62452 -0.0812624 -5.66307e-25)
(-1.59656 -0.0798874 4.3538e-25)
(-1.56289 -0.0780493 0)
(-1.52662 -0.0758139 0)
(-1.48929 -0.0730365 0)
(-1.45528 -0.0698756 0)
(-1.42971 -0.0658202 0)
(-1.6423 -0.082455 0)
(-1.62288 -0.0815714 -1.65265e-24)
(-1.59514 -0.0803995 1.28489e-24)
(-1.56191 -0.0788974 0)
(-1.52632 -0.0775744 0)
(-1.48968 -0.0766067 0)
(-1.45619 -0.0764713 0)
(-1.43074 -0.0775936 0)
(-1.64244 -0.0824733 0)
(-1.62307 -0.0816374 0)
(-1.59541 -0.0805136 2.12474e-24)
(-1.56221 -0.0787111 0)
(-1.52655 -0.0765779 0)
(-1.48987 -0.0738646 0)
(-1.45644 -0.0709339 0)
(-1.43113 -0.067242 0)
(-1.64254 -0.0828305 5.1923e-24)
(-1.6232 -0.0820558 0)
(-1.59557 -0.0811157 3.00054e-24)
(-1.5624 -0.0796029 -2.31959e-24)
(-1.52669 -0.0782879 0)
(-1.48994 -0.0772007 0)
(-1.45634 -0.0770159 0)
(-1.43065 -0.0774238 0)
(-1.64281 -0.0828293 6.6311e-24)
(-1.6235 -0.0821019 0)
(-1.59591 -0.0812354 0)
(-1.56268 -0.0794556 -5.08449e-31)
(-1.52682 -0.0773871 0)
(-1.48994 -0.074754 0)
(-1.45628 -0.0721196 0)
(-1.43055 -0.0688454 0)
(-1.64346 -0.08322 0)
(-1.62419 -0.0825618 0)
(-1.59667 -0.0818462 0)
(-1.56339 -0.080316 3.62546e-24)
(-1.52735 -0.0789928 0)
(-1.49026 -0.0777311 0)
(-1.45629 -0.0774042 0)
(-1.4301 -0.0770736 0)
(-1.64508 -0.0833043 -9.58604e-24)
(-1.62591 -0.082685 0)
(-1.59853 -0.0820736 0)
(-1.56507 -0.0803103 0)
(-1.52859 -0.0783145 0)
(-1.49108 -0.0757803 -4.01337e-24)
(-1.45674 -0.0734621 0)
(-1.43018 -0.0705576 0)
(-1.64876 -0.0838029 -1.10998e-23)
(-1.62979 -0.0832733 -8.31084e-24)
(-1.6027 -0.0828179 0)
(-1.56882 -0.0812525 0)
(-1.53149 -0.0798408 0)
(-1.49312 -0.078329 -4.8652e-24)
(-1.45788 -0.0777776 0)
(-1.43033 -0.0767518 0)
(-1.6561 -0.0842213 0)
(-1.63765 -0.0837445 -9.41372e-24)
(-1.61113 -0.0834226 7.30509e-24)
(-1.57656 -0.081653 0)
(-1.53741 -0.0796631 0)
(-1.49723 -0.0771486 0)
(-1.46015 -0.0750767 0)
(-1.43066 -0.0722937 0)
(-1.66481 -0.0848927 0)
(-1.64766 -0.0845675 0)
(-1.62215 -0.0844501 8.19254e-24)
(-1.58765 -0.0828803 0)
(-1.54649 -0.0812558 0)
(-1.503 -0.0792988 0)
(-1.46263 -0.0783057 0)
(-1.42981 -0.0765248 1.0013e-22)
(-1.67106 -0.0852829 0)
(-1.65505 -0.0850617 0)
(-1.63039 -0.085101 0)
(-1.59635 -0.0834729 0)
(-1.55366 -0.08149 0)
(-1.50694 -0.0788054 0)
(-1.4637 -0.0767815 0)
(-1.42804 -0.0738632 9.28601e-23)
(-1.67463 -0.0856598 1.718e-23)
(-1.65936 -0.08554 0)
(-1.63518 -0.0857629 0)
(-1.60188 -0.0843369 0)
(-1.55843 -0.0826444 0)
(-1.5089 -0.0802419 0)
(-1.46315 -0.0788323 0)
(-1.42504 -0.0762922 0)
(-1.67582 -0.0857542 -2.27695e-31)
(-1.66085 -0.0857131 0)
(-1.6369 -0.086036 0)
(-1.60415 -0.0846378 0)
(-1.56126 -0.0829228 0)
(-1.51022 -0.0802 0)
(-1.46274 -0.0782709 0)
(-1.42332 -0.0752617 0)
(-1.67428 -0.0858594 -2.05175e-23)
(-1.65905 -0.0858658 0)
(-1.63419 -0.0863281 0)
(-1.60248 -0.0850791 0)
(-1.56178 -0.0836558 0)
(-1.51236 -0.0811904 0)
(-1.46514 -0.0795817 0)
(-1.42437 -0.0763885 0)
(-1.65937 -0.0857938 0)
(-1.64186 -0.0858238 0)
(-1.61523 -0.0864718 1.2167e-23)
(-1.58148 -0.0850496 0)
(-1.54141 -0.0836515 0)
(-1.49753 -0.0812949 0)
(-1.45552 -0.0797774 0)
(-1.42031 -0.0769339 0)
(-1.64463 -0.0857273 0)
(-1.62551 -0.0860168 0)
(-1.59762 -0.0871855 1.63851e-23)
(-1.56266 -0.0857608 0)
(-1.52265 -0.0844495 -5.00844e-24)
(-1.48142 -0.0820804 0)
(-1.44357 -0.0806391 1.93903e-24)
(-1.41391 -0.0772188 0)
(-1.63946 -0.087122 2.04903e-23)
(-1.62011 -0.0876338 0)
(-1.59201 -0.0892302 -8.12313e-24)
(-1.55678 -0.0876428 0)
(-1.5165 -0.0861429 -1.03893e-23)
(-1.47593 -0.0834268 2.17673e-24)
(-1.43945 -0.08182 3.32253e-24)
(-1.41156 -0.0777565 -4.34105e-23)
(-1.63683 -0.0878524 4.93225e-23)
(-1.61738 -0.0886544 0)
(-1.58924 -0.0907298 -1.01207e-23)
(-1.55393 -0.0891317 0)
(-1.51388 -0.0876712 -3.13238e-24)
(-1.4738 -0.0847387 3.59915e-24)
(-1.43793 -0.0828974 0)
(-1.41045 -0.0784423 -4.19257e-23)
(-1.63611 -0.0890017 2.83514e-23)
(-1.61656 -0.0901119 0)
(-1.58835 -0.0926499 0)
(-1.55307 -0.0910052 0)
(-1.51321 -0.0892308 0)
(-1.47336 -0.0858048 1.5619e-24)
(-1.43759 -0.0836967 0)
(-1.40985 -0.0791811 0)
(-1.63624 -0.0895958 0)
(-1.61653 -0.0911177 0)
(-1.58818 -0.0940209 0)
(-1.55289 -0.0924006 0)
(-1.51314 -0.0907757 0)
(-1.47359 -0.0873358 0)
(-1.43789 -0.0850012 0)
(-1.40945 -0.0799962 0)
(-1.6374 -0.0913743 0)
(-1.61725 -0.092953 0)
(-1.58839 -0.0963549 0)
(-1.55308 -0.0945096 0)
(-1.51359 -0.0926888 0)
(-1.4744 -0.0889105 0)
(-1.43881 -0.0868684 0)
(-1.40919 -0.0805335 0)
(-1.64157 -0.0950195 0)
(-1.6211 -0.0976753 0)
(-1.59174 -0.10289 -4.73841e-24)
(-1.55623 -0.100668 0)
(-1.51605 -0.0984743 1.35592e-24)
(-1.47619 -0.0938635 0)
(-1.44037 -0.0895896 4.88342e-26)
(-1.41059 -0.0818484 1.06751e-23)
(-1.64768 -0.0983717 0)
(-1.62731 -0.103075 0)
(-1.59818 -0.111802 -7.1857e-24)
(-1.56308 -0.111507 0)
(-1.52174 -0.111376 3.23791e-24)
(-1.48026 -0.107618 0)
(-1.44154 -0.105745 -1.07216e-24)
(-1.40622 -0.0990346 -1.29192e-26)
(-1.65112 -0.105058 0)
(-1.63041 -0.111607 0)
(-1.60066 -0.121616 9.57307e-24)
(-1.56502 -0.121502 0)
(-1.5228 -0.121387 0)
(-1.47991 -0.116625 0)
(-1.4392 -0.113764 0)
(-1.40077 -0.105622 -3.07279e-24)
(-1.65495 -0.109385 0)
(-1.63315 -0.117276 0)
(-1.60207 -0.131293 1.21314e-23)
(-1.56529 -0.133273 0)
(-1.52153 -0.135165 0)
(-1.4771 -0.133689 0)
(-1.43492 -0.130485 0)
(-1.39378 -0.120371 3.74234e-25)
(-1.65903 -0.114729 0)
(-1.63566 -0.1261 2.0642e-23)
(-1.60343 -0.141195 0)
(-1.5654 -0.144155 -1.08208e-23)
(-1.52018 -0.146745 0)
(-1.47448 -0.142575 0)
(-1.42996 -0.138963 0)
(-1.38516 -0.131409 4.16669e-24)
(-1.66489 -0.122 0)
(-1.64015 -0.135189 7.4132e-27)
(-1.60634 -0.153048 0)
(-1.56639 -0.15856 -1.25579e-23)
(-1.51935 -0.162104 -1.12818e-23)
(-1.47127 -0.159944 0)
(-1.42403 -0.154666 0)
(-1.37561 -0.144966 0)
(-1.67011 -0.125759 0)
(-1.64388 -0.142037 -7.76738e-27)
(-1.60864 -0.161194 0)
(-1.56711 -0.168329 0)
(-1.51821 -0.173831 -9.94562e-27)
(-1.46766 -0.172341 -1.37742e-23)
(-1.41696 -0.167444 0)
(-1.36505 -0.157778 -1.09405e-23)
(-1.67106 -0.1345 0)
(-1.64363 -0.153654 2.77765e-23)
(-1.60699 -0.174526 1.99718e-23)
(-1.56352 -0.184302 0)
(-1.51226 -0.19036 1.50531e-23)
(-1.45917 -0.1886 -1.58027e-23)
(-1.40458 -0.182621 1.57972e-23)
(-1.35058 -0.172362 -1.44669e-23)
(-1.64752 -0.139394 0)
(-1.61964 -0.161788 0)
(-1.58237 -0.18425 9.14162e-27)
(-1.53827 -0.196952 0)
(-1.48597 -0.204787 1.65703e-23)
(-1.43193 -0.204178 0)
(-1.37538 -0.197045 1.18104e-26)
(-1.31963 -0.185246 0)
(-1.564 -0.145447 -4.52297e-23)
(-1.53626 -0.172511 0)
(-1.50016 -0.19658 -2.15409e-23)
(-1.45742 -0.211966 0)
(-1.40737 -0.220557 1.81354e-23)
(-1.35518 -0.219942 -2.13229e-23)
(-1.2991 -0.212282 -1.18607e-26)
(-1.23881 -0.199956 -2.30568e-23)
(-1.45824 -0.158146 -3.93814e-23)
(-1.4188 -0.184272 0)
(-1.37243 -0.207438 0)
(-1.31985 -0.224965 0)
(-1.26325 -0.236199 1.51875e-23)
(-1.20692 -0.237991 -1.96939e-23)
(-1.15066 -0.231226 2.50482e-23)
(-1.08517 -0.220142 -2.62952e-23)
(-1.39462 -0.163146 0)
(-1.33432 -0.19629 0)
(-1.26564 -0.222954 0)
(-1.19054 -0.239673 0)
(-1.11367 -0.248741 1.58151e-23)
(-1.04239 -0.249974 2.13764e-23)
(-0.980808 -0.246065 -3.0683e-23)
(-0.927725 -0.241111 0)
(-0.865975 -0.175461 0)
(-0.911782 -0.211459 2.42977e-23)
(-0.924214 -0.246934 0)
(-0.874089 -0.273503 0)
(-0.786465 -0.284044 0)
(-0.71546 -0.276128 3.61738e-23)
(-0.69093 -0.257347 -5.81128e-27)
(-0.738003 -0.24383 4.26602e-23)
(1.41035 -0.116561 0)
(1.32078 -0.159824 1.04076e-23)
(1.16238 -0.202921 0)
(0.875104 -0.239993 0)
(0.482024 -0.257725 0)
(0.123953 -0.254342 0)
(0.0131087 -0.226027 6.6394e-23)
(0.0532828 -0.186505 7.10385e-23)
(1.97912 -0.10603 0)
(1.88529 -0.130375 0)
(1.8089 -0.123238 0)
(1.72969 -0.0997135 0)
(1.62897 -0.0991915 0)
(1.45248 -0.15075 0)
(1.34104 -0.224494 5.0997e-23)
(1.30035 -0.215709 0)
(2.02695 -0.063954 3.13046e-23)
(1.9243 -0.107439 0)
(1.86318 -0.137649 -1.35096e-23)
(1.84014 -0.150669 0)
(1.84845 -0.138245 -1.27598e-23)
(1.8723 -0.133905 0)
(1.88425 -0.171742 -9.44206e-27)
(1.8953 -0.196896 0)
(1.69298 -0.0380282 -2.87816e-26)
(1.60072 -0.0885785 3.42085e-23)
(1.54854 -0.111556 -2.93265e-23)
(1.52481 -0.119102 -3.73073e-23)
(1.52687 -0.14076 -5.51294e-23)
(1.55667 -0.176277 0)
(1.56428 -0.238952 -6.57355e-23)
(1.54937 -0.235302 7.90036e-23)
(1.45473 -0.00932865 -6.05246e-23)
(1.37316 -0.0693097 -2.40055e-26)
(1.31981 -0.108905 3.42046e-23)
(1.2918 -0.128101 -2.77011e-23)
(1.28692 -0.131529 0)
(1.30263 -0.134918 0)
(1.30058 -0.172588 0)
(1.27846 -0.197128 6.65166e-23)
(1.3052 0.0122513 0)
(1.22668 -0.0525547 -5.77114e-23)
(1.16959 -0.0947778 4.73286e-23)
(1.13117 -0.1232 0)
(1.10928 -0.158362 0)
(1.11238 -0.180061 0)
(1.10622 -0.224251 -5.99493e-23)
(1.083 -0.234373 0)
(1.21172 0.0320021 8.68583e-23)
(1.13494 -0.0351281 6.95827e-23)
(1.07714 -0.0804133 5.67375e-23)
(1.03627 -0.106795 5.01207e-23)
(1.00727 -0.128321 -5.1409e-23)
(0.997905 -0.142655 5.62277e-23)
(0.985141 -0.175895 1.08382e-26)
(0.956287 -0.200184 6.38424e-23)
(1.16355 0.0550047 -2.58526e-26)
(1.08843 -0.0148232 7.95162e-23)
(1.0294 -0.065356 6.58307e-23)
(0.981321 -0.102793 -1.60524e-26)
(0.9416 -0.142518 -5.8066e-23)
(0.919384 -0.166779 6.02483e-23)
(0.897428 -0.202218 6.217e-23)
(0.867525 -0.214644 6.44923e-23)
(1.14039 0.0720085 -1.06777e-22)
(1.06675 0.00108201 0)
(1.01004 -0.05003 0)
(0.960378 -0.084833 -6.54151e-23)
(0.918947 -0.117185 0)
(0.886942 -0.139228 6.52247e-23)
(0.857807 -0.170347 0)
(0.822162 -0.192506 0)
(1.13625 0.0962237 0)
(1.05927 0.0217092 0)
(1.00329 -0.0329737 -7.97732e-23)
(0.949711 -0.0743599 0)
(0.905865 -0.115525 6.74898e-23)
(0.86768 -0.143332 6.72201e-23)
(0.832237 -0.175233 -6.6479e-23)
(0.796728 -0.189797 0)
(1.13344 0.114822 0)
(1.05823 0.0384408 0)
(1.00053 -0.0174638 1.78475e-26)
(0.944568 -0.0593801 0)
(0.899242 -0.0980646 7.29214e-23)
(0.85801 -0.124576 0)
(0.818014 -0.155746 1.10108e-26)
(0.780074 -0.177126 0)
(1.12539 0.13758 -1.2855e-22)
(1.05156 0.0588194 -1.08037e-22)
(0.99138 -0.000942265 1.86967e-22)
(0.936428 -0.0448893 -8.2329e-23)
(0.888428 -0.0877719 0)
(0.845444 -0.115953 -7.29884e-23)
(0.801708 -0.148379 7.05406e-23)
(0.764144 -0.168429 -6.93845e-23)
(1.10581 0.156376 -1.36042e-22)
(1.03337 0.0776665 -1.1459e-22)
(0.966507 0.0169438 9.82634e-23)
(0.914872 -0.0302535 -8.74678e-23)
(0.863346 -0.0726966 0)
(0.821822 -0.103095 -7.68004e-23)
(0.778731 -0.13491 0)
(0.742124 -0.159236 -7.05907e-23)
(1.07129 0.175969 0)
(0.998803 0.0981103 0)
(0.93479 0.0324475 1.04488e-22)
(0.884458 -0.0158057 0)
(0.830265 -0.0609009 0)
(0.791737 -0.0909218 0)
(0.750064 -0.124875 7.56483e-23)
(0.714256 -0.150699 0)
(1.04123 0.195622 -7.47875e-23)
(0.971727 0.116422 -6.35507e-23)
(0.913443 0.0500442 1.0965e-22)
(0.863396 -0.00125878 -4.87813e-23)
(0.807628 -0.0473578 4.4461e-23)
(0.768485 -0.0800727 0)
(0.726723 -0.114024 7.80299e-23)
(0.690815 -0.141982 -3.68542e-23)
(1.01729 0.21436 -7.75037e-23)
(0.951197 0.134688 -1.3205e-22)
(0.895552 0.0641518 5.72331e-23)
(0.847177 0.0142918 -1.01471e-22)
(0.791195 -0.033651 -6.11293e-27)
(0.751129 -0.0682288 0)
(0.708421 -0.103119 0)
(0.67187 -0.132092 -3.7607e-23)
(0.995642 0.231559 0)
(0.933356 0.150054 -1.36563e-22)
(0.879857 0.0797434 1.18714e-22)
(0.831647 0.0284811 6.55311e-27)
(0.776326 -0.020023 -4.75585e-23)
(0.73653 -0.0561969 -4.38325e-23)
(0.693546 -0.0917325 4.09876e-23)
(0.656209 -0.121743 0)
(0.973333 0.250069 8.20222e-23)
(0.916751 0.16684 -1.40576e-22)
(0.863812 0.0949456 6.12735e-23)
(0.816054 0.0434616 1.08385e-22)
(0.761728 -0.00587419 4.87352e-23)
(0.722901 -0.0436709 5.31701e-27)
(0.680458 -0.0797242 4.18888e-23)
(0.643404 -0.110311 3.90855e-23)
(0.946667 0.263585 8.40026e-23)
(0.898238 0.179942 7.12851e-27)
(0.846608 0.108719 -6.30108e-23)
(0.799835 0.0571384 5.57759e-23)
(0.747707 0.00660578 -5.58072e-27)
(0.709797 -0.0333434 4.63681e-23)
(0.667985 -0.069556 -4.28896e-23)
(0.632304 -0.100267 3.98836e-23)
(0.920488 0.280008 0)
(0.878687 0.193554 1.47812e-22)
(0.83009 0.125036 -6.44691e-23)
(0.785175 0.0702716 0)
(0.736011 0.0198191 -5.15606e-23)
(0.698525 -0.0217606 0)
(0.657156 -0.0581907 -4.35566e-23)
(0.623297 -0.0895673 4.04848e-23)
(0.894178 0.292661 8.69611e-23)
(0.856398 0.205476 -6.29179e-27)
(0.808495 0.136908 0)
(0.768266 0.0837911 5.85126e-23)
(0.723143 0.032843 0)
(0.68752 -0.00924195 4.83439e-23)
(0.646867 -0.0468075 0)
(0.615041 -0.0784379 8.2292e-23)
(0.870949 0.304141 8.80593e-23)
(0.836243 0.216203 -1.53145e-22)
(0.790919 0.150012 0)
(0.751939 0.0928521 5.96374e-23)
(0.708875 0.0421364 0)
(0.675166 -0.00173257 -4.69807e-27)
(0.636196 -0.0391701 0)
(0.606056 -0.0714244 4.17546e-23)
(0.847932 0.316603 0)
(0.815813 0.229688 -1.55031e-22)
(0.773574 0.163252 6.80407e-23)
(0.738524 0.107472 -6.05545e-23)
(0.697795 0.0563186 5.45524e-23)
(0.666059 0.012379 -4.94826e-23)
(0.628167 -0.0256583 0)
(0.599502 -0.0588195 0)
(0.824383 0.322957 -8.95519e-23)
(0.793087 0.23663 -7.83241e-23)
(0.751679 0.170635 6.89498e-23)
(0.718531 0.113359 -6.14541e-23)
(0.680326 0.0625935 5.54442e-23)
(0.651077 0.0180573 0)
(0.615493 -0.0208936 0)
(0.588538 -0.0543482 0)
(0.802338 0.335264 4.54023e-27)
(0.774425 0.252283 0)
(0.735078 0.185508 0)
(0.704713 0.127573 0)
(0.66874 0.075426 0)
(0.640967 0.0304622 0)
(0.606966 -0.00840866 0)
(0.581479 -0.0420751 0)
(0.778761 0.336986 9.01651e-23)
(0.752705 0.256135 0)
(0.714597 0.189691 7.01325e-23)
(0.68706 0.132699 0)
(0.654264 0.0820902 0)
(0.62848 0.0365614 0)
(0.596072 -0.00277677 -4.72765e-23)
(0.571356 -0.0378122 0)
(0.756814 0.347667 0)
(0.733205 0.271161 0)
(0.699026 0.203352 -3.95151e-27)
(0.673334 0.143959 0)
(0.641387 0.0913466 5.71684e-23)
(0.617283 0.0459298 0)
(0.586734 0.00718276 -9.6475e-23)
(0.564011 -0.0275073 0)
(0.734556 0.349182 0)
(0.711425 0.273998 0)
(0.681821 0.207542 -7.07336e-23)
(0.658968 0.149928 0)
(0.629487 0.099481 5.74933e-23)
(0.606609 0.0530218 0)
(0.576838 0.0130656 -4.79868e-23)
(0.555277 -0.0227176 0)
(0.712286 0.358019 4.46969e-23)
(0.691667 0.285281 3.9628e-23)
(0.666005 0.217363 0)
(0.645299 0.157828 0)
(0.616991 0.105927 0)
(0.595968 0.0598685 2.63807e-23)
(0.567918 0.0212679 0)
(0.548168 -0.0141497 2.24031e-23)
(0.691162 0.359907 4.43518e-23)
(0.672586 0.287884 3.94753e-23)
(0.650269 0.22202 0)
(0.632245 0.164364 0)
(0.606243 0.114348 0)
(0.586259 0.0673661 2.64782e-23)
(0.558754 0.0274497 0)
(0.539955 -0.00908369 2.25901e-23)
(0.670647 0.366445 0)
(0.654618 0.29567 0)
(0.634611 0.228421 -3.53126e-23)
(0.618713 0.169719 3.19518e-23)
(0.594267 0.11953 2.90233e-23)
(0.575853 0.0729341 0)
(0.549858 0.0342281 -2.44497e-23)
(0.532537 -0.00211383 0)
(0.650958 0.367922 -4.34387e-23)
(0.637216 0.298306 0)
(0.619574 0.23306 -3.51622e-23)
(0.605912 0.175956 3.19063e-23)
(0.583121 0.126728 2.90288e-23)
(0.565943 0.0797522 0)
(0.540639 0.0402543 -2.45166e-23)
(0.523926 0.00327428 0)
(0.631848 0.372981 -4.28762e-23)
(0.620376 0.303824 0)
(0.604831 0.237414 3.49691e-23)
(0.591904 0.180351 -3.18192e-23)
(0.570682 0.131142 0)
(0.554768 0.0851717 0)
(0.531056 0.0461601 0)
(0.514767 0.00906156 0)
(0.612787 0.373736 0)
(0.603164 0.30579 3.82648e-23)
(0.590491 0.241324 3.47401e-23)
(0.578374 0.185717 -6.33536e-23)
(0.558321 0.137143 -2.89812e-23)
(0.543116 0.09121 0)
(0.520486 0.0516325 0)
(0.504506 0.0144333 2.28962e-23)
(0.593119 0.377109 0)
(0.584502 0.309655 7.56913e-23)
(0.575456 0.24467 -3.44876e-23)
(0.562884 0.190686 9.9019e-28)
(0.544602 0.140364 -5.78388e-23)
(0.530047 0.0962832 2.66637e-23)
(0.508945 0.0571264 0)
(0.49302 0.020054 2.29396e-23)
(0.572717 0.377814 2.04757e-23)
(0.565317 0.310694 3.73873e-23)
(0.55924 0.24738 -3.42027e-23)
(0.545453 0.195011 3.13117e-23)
(0.531336 0.146008 -2.88389e-23)
(0.516474 0.102017 2.66011e-23)
(0.496594 0.0615882 0)
(0.481032 0.02506 0)
(0.550265 0.37887 2.01408e-23)
(0.545101 0.313323 0)
(0.540636 0.250367 -1.69459e-23)
(0.527035 0.198578 0)
(0.515462 0.148643 1.43677e-23)
(0.501264 0.1068 0)
(0.484947 0.0668891 -1.23501e-23)
(0.469258 0.0303188 0)
(0.5274 0.378835 0)
(0.524894 0.31306 0)
(0.520976 0.253213 -1.6766e-23)
(0.509445 0.202218 0)
(0.498494 0.153195 2.85936e-23)
(0.484967 0.110536 -1.32458e-23)
(0.471233 0.0711193 5.02216e-28)
(0.456995 0.0349234 0)
(0.504881 0.37819 -1.94195e-23)
(0.506086 0.314987 0)
(0.501506 0.255274 0)
(0.492479 0.204402 0)
(0.481824 0.156278 1.42096e-23)
(0.470322 0.114272 -2.64032e-23)
(0.456985 0.0748769 -4.6827e-28)
(0.444665 0.0389795 -1.15078e-23)
(0.483791 0.376402 -2.85527e-23)
(0.487393 0.314064 0)
(0.483326 0.257186 -8.18282e-24)
(0.477678 0.207932 0)
(0.466393 0.159271 -7.05653e-24)
(0.456909 0.117817 -1.31423e-23)
(0.444205 0.0784766 -1.84234e-23)
(0.432872 0.0427628 -1.14951e-23)
(0.464939 0.37544 -9.31514e-24)
(0.469786 0.314719 0)
(0.46618 0.258351 4.16925e-29)
(0.462664 0.209454 0)
(0.452752 0.162338 -7.00137e-24)
(0.443907 0.120726 0)
(0.43294 0.0820266 -6.11891e-24)
(0.421305 0.0457011 0)
(0.447148 0.373181 0)
(0.453047 0.313945 0)
(0.450708 0.259228 1.19398e-23)
(0.448266 0.211545 0)
(0.439808 0.164813 3.47065e-24)
(0.431378 0.123248 0)
(0.422421 0.0853667 -3.04608e-24)
(0.410553 0.0486486 0)
(0.430038 0.371014 0)
(0.437191 0.313711 0)
(0.435913 0.259967 3.9184e-24)
(0.434518 0.213107 0)
(0.427518 0.167164 3.43808e-24)
(0.419488 0.125698 0)
(0.411979 0.0884535 -3.03104e-24)
(0.400608 0.0515069 0)
(0.384173 0.360991 0)
(0.393649 0.30864 0)
(0.396518 0.259376 0)
(0.396733 0.214563 0)
(0.394065 0.172017 0)
(0.387768 0.130721 0)
(0.382839 0.0949979 0)
(0.373639 0.0584593 0)
(0.320423 0.344087 0)
(0.329125 0.299525 0)
(0.337786 0.257028 0)
(0.339068 0.214726 0)
(0.341296 0.176822 0)
(0.338226 0.138055 0)
(0.335877 0.103854 0)
(0.330118 0.0688486 0)
(0.260279 0.324567 0)
(0.271121 0.284511 0)
(0.280568 0.247359 0)
(0.285283 0.209784 0)
(0.288408 0.174274 0)
(0.288748 0.139344 0)
(0.287964 0.106458 0)
(0.285271 0.0741954 0)
(0.209716 0.304263 0)
(0.221722 0.270782 0)
(0.230658 0.237306 0)
(0.236935 0.204107 0)
(0.240797 0.171321 0)
(0.242803 0.139237 0)
(0.243225 0.107975 0)
(0.242389 0.0775958 0)
(0.166494 0.28515 0)
(0.177659 0.255947 0)
(0.186334 0.226349 0)
(0.192651 0.196364 0)
(0.19706 0.166432 0)
(0.199733 0.136654 0)
(0.201064 0.107333 0)
(0.201211 0.0784677 0)
(0.128963 0.268499 0)
(0.138651 0.242913 0)
(0.14629 0.216335 0)
(0.152092 0.189096 0)
(0.156305 0.161458 0)
(0.159132 0.133683 0)
(0.160803 0.105954 0)
(0.161513 0.0784539 0)
(0.0956014 0.254682 0)
(0.103354 0.231778 0)
(0.109565 0.207615 0)
(0.114376 0.182508 0)
(0.117978 0.156735 0)
(0.120504 0.13054 0)
(0.122135 0.104158 0)
(0.123004 0.0777503 0)
(0.0655379 0.244186 0)
(0.0711685 0.223223 0)
(0.0757331 0.200812 0)
(0.0793293 0.177271 0)
(0.0820683 0.152869 0)
(0.0840567 0.127867 0)
(0.0854032 0.102481 0)
(0.0862161 0.0769074 0)
(0.0397521 0.237321 0)
(0.043194 0.217577 0)
(0.046004 0.19628 0)
(0.0482377 0.173731 0)
(0.0499615 0.150209 0)
(0.051245 0.125969 0)
(0.0521453 0.101229 0)
(0.0527329 0.0761871 0)
(0.0179991 0.232973 0)
(0.0192136 0.213941 0)
(0.0202124 0.193297 0)
(0.0210183 0.171342 0)
(0.0216507 0.148348 0)
(0.0221274 0.124569 0)
(0.0224748 0.100224 0)
(0.0227112 0.0755099 0)
(-1.36423 0.00290999 0)
(-1.28861 -0.00109806 0)
(-1.22431 0.000318146 0)
(-1.17194 -0.000103866 0)
(-1.12291 -7.6148e-05 0)
(-1.07311 -0.000171776 0)
(-1.02003 -0.000205097 0)
(-0.964164 -0.000230004 0)
(-0.905667 -0.000243498 0)
(-0.844317 -0.000251701 0)
(-0.780329 -0.00025754 0)
(-0.715251 -0.00028529 0)
(-0.65004 -0.00029424 0)
(-0.583519 -0.000316815 0)
(-0.516809 -0.000347848 0)
(-0.442368 -0.000430351 0)
(-0.358338 -0.000464983 0)
(-0.267202 -0.000511591 0)
(-0.164204 -0.000529389 0)
(-0.0674407 -0.000485937 0)
(0.0270783 -0.0004426 0)
(0.102766 -0.000317832 0)
(0.161577 -0.000301444 0)
(0.215864 -0.000235981 0)
(0.259413 -0.000251937 0)
(0.311359 -0.000287496 0)
(0.368844 -0.000261173 0)
(0.410847 -0.000170908 0)
(0.435661 -8.07141e-05 0)
(0.447514 -5.50771e-06 0)
(0.444905 7.62842e-05 0)
(0.425828 0.000169956 0)
(0.388712 0.000247005 0)
(0.338383 0.000307049 0)
(0.279495 0.000345172 0)
(0.216234 0.000360191 0)
(0.150462 0.0003761 0)
(0.0794023 0.000411822 0)
(-0.000738588 0.000438132 0)
(-0.083481 0.000415819 0)
(-0.153547 0.000330908 0)
(-0.202281 0.000219234 0)
(-0.230333 0.000117173 0)
(-0.241304 4.85649e-05 0)
(-0.244987 3.31382e-05 0)
(-0.251018 5.93818e-05 0)
(-0.265074 0.000111288 0)
(-0.291003 0.00017414 0)
(-0.330421 0.000227275 0)
(-0.375446 0.000235154 0)
(-0.412278 0.000177183 0)
(-0.432421 8.52236e-05 0)
(-0.436451 1.08782e-05 0)
(-0.429841 -3.06449e-05 0)
(-0.419468 -3.90659e-05 0)
(-0.410991 -2.05882e-05 0)
(-0.407399 9.83813e-06 0)
(-0.409039 3.38095e-05 0)
(-0.412889 3.3981e-05 0)
(-0.415172 1.74957e-05 0)
(-0.415799 1.08945e-05 0)
(-0.417549 2.64462e-05 0)
(-0.422993 5.00239e-05 0)
(-0.431738 5.88826e-05 0)
(-0.440826 3.77462e-05 0)
(-0.447765 2.4213e-05 0)
(-0.450951 -5.43439e-07 0)
(-0.449642 -2.97778e-05 0)
(-0.44375 -6.13669e-05 0)
(-0.433976 -8.24101e-05 0)
(-0.421083 -9.63524e-05 0)
(-0.405867 -0.000103955 0)
(-0.389889 -0.000102639 0)
(-0.373502 -9.81364e-05 0)
(-0.357586 -8.86206e-05 0)
(-0.342607 -8.1991e-05 0)
(-0.327806 -8.22115e-05 0)
(-0.312691 -8.98384e-05 0)
(-0.296401 -0.000107511 0)
(-0.278915 -0.000126454 0)
(-0.259116 -0.000144595 0)
(-0.236341 -0.000164233 0)
(-0.21103 -0.00018323 0)
(-0.183124 -0.000187968 0)
(-0.152582 -0.000177279 0)
(-0.120016 -0.000150171 0)
(-0.086359 -0.000132813 0)
(-0.0518858 -0.000133922 0)
(-0.0172527 -0.000139538 0)
(0.0167655 -0.000164222 0)
(0.05018 -0.000190826 0)
(0.0835979 -0.000219378 0)
(0.11742 -0.000235592 0)
(0.152467 -0.000227981 0)
(0.189437 -0.000196536 0)
(0.228929 -0.000179974 0)
(0.271519 -0.000173056 0)
(0.317501 -0.000170433 0)
(0.366817 -0.000178918 0)
(0.4191 -0.000206625 0)
(0.474319 -0.000258143 0)
(0.532601 -0.000302032 0)
(0.59382 -0.000336 0)
(0.658098 -0.000378523 0)
(0.726465 -0.000404166 0)
(0.799971 -0.000399059 0)
(0.879358 -0.000395754 0)
(0.966047 -0.000402327 0)
(1.06121 -0.000423907 0)
(1.16461 -0.000460673 0)
(1.27429 -0.000494377 0)
(1.38613 -0.000500956 0)
(1.49391 -0.00047883 0)
(1.58918 -0.000407411 0)
(1.66379 -0.000262845 0)
(1.70927 -8.35151e-05 0)
(1.71892 0.00013467 0)
(1.69332 0.000336579 0)
(1.62588 0.000542792 0)
(1.52154 0.000705962 0)
(1.3905 0.000813059 0)
(1.24617 0.000848062 0)
(1.1002 0.000826713 0)
(0.960782 0.000771571 0)
(0.833807 0.000697899 0)
(0.721895 0.000602568 0)
(0.626354 0.000501994 0)
(0.547023 0.000413799 0)
(0.482816 0.000336635 0)
(0.431685 0.000271197 0)
(0.391254 0.000224399 0)
(0.358561 0.00019915 0)
(0.331319 0.000191578 0)
(0.307281 0.00018719 0)
(0.284455 0.000176377 0)
(0.262015 0.000162328 0)
(0.239359 0.000152161 0)
(0.217316 0.000138634 0)
(0.195432 0.000137208 0)
(0.174099 0.000152859 0)
(0.153026 0.000163351 0)
(0.131166 0.00015801 0)
(0.109168 0.00014786 0)
(0.0867567 0.000129295 0)
(0.0652402 0.000115905 0)
(0.0441406 0.000120728 0)
(0.0237582 0.00015797 0)
(0.00398217 0.000175991 0)
(-0.0160223 0.000160082 0)
(-0.0354362 0.000140042 0)
(-0.0537485 0.000123825 0)
(-0.0699622 0.000100791 0)
(-0.0831079 6.96949e-05 0)
(-0.0924427 3.77524e-05 0)
(-0.0967538 9.30039e-06 0)
(-0.0952482 -2.29792e-06 0)
(-1.36521 -0.00402055 0)
(-1.28963 -0.000533208 0)
(-1.22527 -0.00146084 0)
(-1.17265 -0.000939496 0)
(-1.12342 -0.000926403 0)
(-1.07347 -0.00088155 0)
(-1.02033 -0.000916915 0)
(-0.964425 -0.000933844 0)
(-0.905893 -0.000986874 0)
(-0.844506 -0.00102921 0)
(-0.78048 -0.00107684 0)
(-0.715362 -0.00106459 0)
(-0.650117 -0.0010476 0)
(-0.58358 -0.00108469 0)
(-0.516849 -0.00108085 0)
(-0.442399 -0.00122188 0)
(-0.358364 -0.00133607 0)
(-0.267227 -0.00148454 0)
(-0.16423 -0.00156244 0)
(-0.0674685 -0.00146009 0)
(0.0270505 -0.00136127 0)
(0.102738 -0.000994398 0)
(0.161549 -0.000933114 0)
(0.215837 -0.00071414 0)
(0.259387 -0.000735508 0)
(0.311335 -0.000842 0)
(0.368821 -0.000785195 0)
(0.410825 -0.000550624 0)
(0.435638 -0.00030194 0)
(0.44749 -7.38979e-05 0)
(0.444882 0.000153781 0)
(0.425805 0.000428217 0)
(0.388688 0.000655452 0)
(0.338359 0.000830168 0)
(0.279471 0.000937312 0)
(0.21621 0.000990624 0)
(0.150438 0.00104972 0)
(0.0793781 0.00116421 0)
(-0.00076359 0.001239 0)
(-0.0835074 0.001176 0)
(-0.153574 0.000929582 0)
(-0.202308 0.000606265 0)
(-0.230359 0.000302219 0)
(-0.241328 9.46519e-05 0)
(-0.245009 4.94392e-05 0)
(-0.251039 0.0001282 0)
(-0.265094 0.000285825 0)
(-0.291022 0.000475694 0)
(-0.33044 0.000634428 0)
(-0.375465 0.000651839 0)
(-0.412297 0.000465149 0)
(-0.43244 0.000194931 0)
(-0.436469 -3.91668e-05 0)
(-0.429859 -0.000162447 0)
(-0.419485 -0.000181658 0)
(-0.411008 -0.000121508 0)
(-0.407415 -2.78077e-05 0)
(-0.409054 4.19245e-05 0)
(-0.412905 4.68247e-05 0)
(-0.415188 1.98464e-06 0)
(-0.415816 -9.3317e-06 0)
(-0.417567 3.25227e-05 0)
(-0.423011 0.000100537 0)
(-0.431756 0.00013861 0)
(-0.440844 0.000143405 0)
(-0.447782 8.9516e-05 0)
(-0.450969 2.07959e-05 0)
(-0.44966 -4.79672e-05 0)
(-0.443768 -0.000102927 0)
(-0.433994 -0.000154822 0)
(-0.421102 -0.000192872 0)
(-0.405886 -0.000223176 0)
(-0.389908 -0.000230044 0)
(-0.37352 -0.000239039 0)
(-0.357603 -0.000229646 0)
(-0.342624 -0.000225068 0)
(-0.327822 -0.000225375 0)
(-0.312708 -0.000229403 0)
(-0.296419 -0.000240338 0)
(-0.278933 -0.00025183 0)
(-0.259135 -0.000295742 0)
(-0.23636 -0.000331403 0)
(-0.211049 -0.00036932 0)
(-0.183142 -0.000416446 0)
(-0.152598 -0.000476884 0)
(-0.120031 -0.000532892 0)
(-0.0863717 -0.000570254 0)
(-0.0518979 -0.000577848 0)
(-0.0172652 -0.000568065 0)
(0.0167518 -0.000531778 0)
(0.0501645 -0.000498985 0)
(0.0835807 -0.000473695 0)
(0.117402 -0.000474054 0)
(0.15245 -0.000513394 0)
(0.189421 -0.000590015 0)
(0.228915 -0.000663851 0)
(0.271507 -0.000737971 0)
(0.31749 -0.000810612 0)
(0.366807 -0.000868669 0)
(0.419089 -0.000898207 0)
(0.474307 -0.000908152 0)
(0.532586 -0.000922211 0)
(0.593803 -0.000947019 0)
(0.658079 -0.000975008 0)
(0.726447 -0.0010476 0)
(0.799954 -0.00116056 0)
(0.879344 -0.0013027 0)
(0.966036 -0.00146515 0)
(1.0612 -0.00161961 0)
(1.1646 -0.00173821 0)
(1.27428 -0.00179956 0)
(1.38613 -0.00178029 0)
(1.4939 -0.00163632 0)
(1.58917 -0.00137848 0)
(1.66378 -0.00101119 0)
(1.70927 -0.000516775 0)
(1.71891 4.08457e-05 0)
(1.69332 0.000602307 0)
(1.62588 0.00123085 0)
(1.52154 0.00174914 0)
(1.39049 0.00207363 0)
(1.24616 0.00220476 0)
(1.1002 0.00217429 0)
(0.960773 0.00202131 0)
(0.833797 0.00179781 0)
(0.721885 0.00155748 0)
(0.626344 0.00131516 0)
(0.547014 0.00107539 0)
(0.482808 0.000858324 0)
(0.431676 0.000676823 0)
(0.391245 0.000531823 0)
(0.358552 0.000420277 0)
(0.33131 0.000337993 0)
(0.307271 0.000298659 0)
(0.284446 0.000293752 0)
(0.262006 0.000304579 0)
(0.239351 0.000309679 0)
(0.217308 0.000314507 0)
(0.195423 0.000307871 0)
(0.174091 0.00028375 0)
(0.153018 0.00028066 0)
(0.131157 0.000296414 0)
(0.10916 0.000312823 0)
(0.0867484 0.000326843 0)
(0.0652316 0.000326892 0)
(0.0441316 0.000310909 0)
(0.0237486 0.000259996 0)
(0.00397205 0.000236971 0)
(-0.0160322 0.000248278 0)
(-0.0354454 0.000250542 0)
(-0.0537574 0.000233652 0)
(-0.069971 0.000203685 0)
(-0.0831169 0.000162923 0)
(-0.0924518 0.000102679 0)
(-0.0967639 1.67911e-05 0)
(-0.095258 -9.69718e-05 0)
(-1.36543 0.00049311 0)
(-1.29014 -0.00253262 0)
(-1.22583 -0.000920141 0)
(-1.17314 -0.00118935 0)
(-1.12381 -0.00112558 0)
(-1.07376 -0.00126668 0)
(-1.02054 -0.00137034 0)
(-0.964603 -0.00143744 0)
(-0.906049 -0.0015183 0)
(-0.844651 -0.00157395 0)
(-0.780615 -0.00162506 0)
(-0.715482 -0.0016536 0)
(-0.650217 -0.00165822 0)
(-0.583657 -0.00173698 0)
(-0.516909 -0.00178906 0)
(-0.442448 -0.00211223 0)
(-0.358405 -0.00228682 0)
(-0.267267 -0.0025315 0)
(-0.16427 -0.00264339 0)
(-0.0675081 -0.00245167 0)
(0.0270121 -0.00226448 0)
(0.102697 -0.00165735 0)
(0.161506 -0.00155983 0)
(0.215795 -0.00120045 0)
(0.259343 -0.00124952 0)
(0.311291 -0.00142456 0)
(0.36878 -0.00131525 0)
(0.410786 -0.000896007 0)
(0.435597 -0.000465307 0)
(0.447448 -8.76706e-05 0)
(0.444838 0.000289985 0)
(0.425762 0.000740473 0)
(0.388645 0.00111216 0)
(0.338315 0.00140066 0)
(0.279425 0.00158295 0)
(0.216165 0.00166973 0)
(0.150394 0.00176599 0)
(0.0793355 0.0019616 0)
(-0.000807167 0.00209017 0)
(-0.0835532 0.00199119 0)
(-0.153621 0.00158426 0)
(-0.202355 0.00104225 0)
(-0.230405 0.00053608 0)
(-0.241372 0.000192037 0)
(-0.24505 0.000114129 0)
(-0.251077 0.000241457 0)
(-0.265131 0.000499536 0)
(-0.291058 0.000813655 0)
(-0.330474 0.00107974 0)
(-0.3755 0.00111584 0)
(-0.412333 0.000815292 0)
(-0.432477 0.000361783 0)
(-0.436506 -2.18171e-05 0)
(-0.429895 -0.000227072 0)
(-0.41952 -0.000261719 0)
(-0.411042 -0.0001639 0)
(-0.407449 -9.26428e-06 0)
(-0.409089 0.000109135 0)
(-0.41294 0.000113892 0)
(-0.415223 3.61638e-05 0)
(-0.41585 1.14429e-05 0)
(-0.417599 8.39808e-05 0)
(-0.423043 0.000199242 0)
(-0.431786 0.000255193 0)
(-0.440873 0.000218243 0)
(-0.447811 0.00013693 0)
(-0.450998 1.87558e-05 0)
(-0.449689 -0.000111234 0)
(-0.443795 -0.000230488 0)
(-0.434021 -0.000325209 0)
(-0.421127 -0.00039169 0)
(-0.40591 -0.000437659 0)
(-0.389932 -0.000442272 0)
(-0.373544 -0.000442439 0)
(-0.357628 -0.000413564 0)
(-0.342649 -0.000395474 0)
(-0.327847 -0.000396424 0)
(-0.312732 -0.000415654 0)
(-0.296443 -0.000461084 0)
(-0.278958 -0.000509591 0)
(-0.259159 -0.000589915 0)
(-0.236385 -0.000664279 0)
(-0.211075 -0.000737991 0)
(-0.183169 -0.000795225 0)
(-0.152626 -0.000838248 0)
(-0.120058 -0.000843528 0)