/*--------------------------------*- C++ -*----------------------------------*\
| =========                 |                                                 |
| \\      /  F ield         | OpenFOAM: The Open Source CFD Toolbox           |
|  \\    /   O peration     | Version:  v1912                                 |
|   \\  /    A nd           | Website:  www.openfoam.com                      |
|    \\/     M anipulation  |                                                 |
\*---------------------------------------------------------------------------*/
FoamFile
{
    version     2.0;
    format      ascii;
    class       volScalarField;
    location    "50";
    object      omega;
}
// * * * * * * * * * * * * * * * * * * * * * * * * * * * * * * * * * * * * * //

dimensions      [0 0 -1 0 0 0 0];


internalField   nonuniform List<scalar> 
14268
(
126.47
147.264
155.621
149.19
131.616
101.626
85.1954
86.9924
113.795
115.375
106.724
105.369
103.071
98.6079
96.8246
100.967
105.248
104.011
95.9415
83.5403
80.8459
82.9963
84.7015
82.3032
74.5304
62.4107
58.0116
54.2728
44.7389
38.3532
43.9045
48.8979
52.9393
57.6765
64.0119
79.5656
72.9153
60.27
59.4501
65.8692
61.2758
52.7931
49.6822
50.3033
53.2418
61.4506
75.3279
89.2754
92.8615
86.805
68.2052
51.3646
47.2499
47.2606
51.3543
59.0539
61.7093
63.3387
69.4932
80.6466
91.8338
91.5057
75.1345
47.1332
43.6978
46.689
46.0839
44.8497
44.626
44.5961
44.5922
44.5917
44.5916
44.5916
44.5916
44.5916
44.5916
44.5916
44.5916
44.5916
44.5916
44.5916
44.5916
44.5916
44.5916
44.5916
44.5916
44.5916
44.5916
44.5916
44.5916
44.5916
44.5916
44.5916
44.5916
44.5916
44.5916
44.5916
44.5916
44.5916
44.5916
44.5916
44.5916
44.5916
44.5916
44.5916
44.5916
44.5916
44.5916
44.5916
44.5916
44.5916
44.5916
44.5916
44.5916
44.5916
44.5916
44.5916
44.5916
44.5916
44.5916
44.5916
44.5916
44.5916
44.5916
44.5916
44.5916
44.5916
44.5916
44.5916
44.5916
44.5916
44.5916
44.5916
44.5916
44.5916
44.5916
44.5916
44.5916
44.5916
44.5916
44.5916
44.5916
44.5916
44.5916
44.5916
44.5916
44.5916
44.5916
44.5916
41.6599
49.0214
51.4946
49.9137
45.0211
38.8656
35.1297
36.3838
42.6708
41.146
37.4265
37.0207
36.1043
34.4829
33.3992
34.2079
35.3788
34.8007
32.0286
27.9502
26.8463
27.2386
27.4464
26.6372
24.1763
20.4048
18.7319
18.517
20.5758
25.3437
27.3372
26.7897
27.8033
27.2748
25.2887
25.9102
23.4414
19.4985
21.0777
23.6526
21.8224
21.5457
19.8186
19.037
19.3073
21.119
25.1217
29.6441
30.5194
28.6226
23.4181
20.9255
20.5631
18.2566
17.8629
19.1786
20.1519
21.3326
23.4748
27.2426
31.2563
30.8034
24.3073
14.7627
13.522
13.9354
13.1961
11.0146
9.36909
8.67796
8.39521
8.26716
8.21025
8.19378
8.19852
8.22114
8.26003
8.30773
8.35851
8.40865
8.45646
8.50058
8.53957
8.57325
8.60157
8.62485
8.64349
8.6575
8.66772
8.67384
8.67654
8.6764
8.67376
8.66845
8.66095
8.65167
8.64089
8.62885
8.61572
8.60164
8.58676
8.57124
8.55526
8.53896
8.52242
8.5057
8.48882
8.47183
8.45479
8.4378
8.42092
8.40419
8.38765
8.37133
8.35526
8.33944
8.3239
8.30864
8.29367
8.27902
8.26468
8.25067
8.237
8.22367
8.21069
8.19805
8.18577
8.17384
8.16226
8.15103
8.14014
8.1296
8.1194
8.10953
8.09999
8.09078
8.08188
8.0733
8.06502
8.05704
8.04935
8.04195
8.03482
8.02796
8.02137
8.01508
8.00904
8.00345
7.99825
7.99006
24.7712
29.4974
31.2744
30.6855
28.0477
26.1118
24.5896
24.5367
27.8549
26.7592
24.3123
23.968
23.151
21.9783
21.0972
21.2683
21.7529
21.323
19.5274
16.95
16.1497
16.2736
16.297
15.7628
14.2317
11.9046
10.8809
10.904
12.7418
19.1588
18.3248
17.5614
17.8951
16.1287
15.5063
15.8634
14.0486
11.697
13.0324
15.283
14.1258
12.4026
10.9277
10.8034
11.3536
12.8875
15.3875
18.0981
18.522
17.4504
14.4965
12.4139
11.6649
10.5046
10.6793
11.8175
12.4641
13.1848
14.594
17.1686
19.6031
19.2412
14.9769
8.87154
8.1983
8.23453
7.26653
5.09515
3.67028
3.17868
3.00537
2.94017
2.91971
2.9196
2.93217
2.95884
2.99443
3.03253
3.06887
3.10291
3.13427
3.16215
3.18607
3.2061
3.22237
3.23514
3.24472
3.25121
3.25501
3.25624
3.2557
3.25321
3.24873
3.24271
3.23547
3.22723
3.21812
3.20832
3.19792
3.18705
3.17577
3.1642
3.15244
3.14057
3.12865
3.11672
3.10481
3.09294
3.08116
3.06949
3.05798
3.04663
3.03548
3.02454
3.01381
3.00331
2.99304
2.98301
2.97322
2.96367
2.95437
2.94533
2.93653
2.92799
2.91971
2.91167
2.90388
2.89634
2.88905
2.88199
2.87518
2.86859
2.86224
2.85611
2.85019
2.8445
2.83901
2.83373
2.82864
2.82375
2.81904
2.81452
2.81017
2.806
2.80199
2.79817
2.79451
2.79114
2.78794
2.78319
18.1824
21.4801
22.9494
22.7177
21.0732
21.1078
20.4759
19.9966
21.9598
20.993
18.809
18.5845
17.9066
16.9108
15.9549
15.794
16.0159
15.6672
14.3248
12.4448
11.8156
11.8386
11.8044
11.3944
10.2551
8.51277
7.59412
7.6822
9.15512
14.7988
13.0598
12.6598
12.936
11.6951
11.7597
12.0869
10.6332
8.55945
9.45762
12.0255
11.2516
9.32275
7.86563
7.83024
8.37307
9.65321
11.5508
13.3845
13.5981
12.9019
10.9875
9.36038
8.61616
7.97108
8.24114
9.14489
9.6131
10.1054
11.2
13.2025
14.9509
14.6079
11.4022
6.68347
6.19794
6.28001
5.42137
3.45787
2.13542
1.68282
1.53877
1.49614
1.48891
1.49477
1.51322
1.54169
1.57424
1.60478
1.63276
1.65823
1.68089
1.70035
1.71647
1.72939
1.73929
1.74641
1.75099
1.7532
1.75353
1.75235
1.74927
1.74454
1.73854
1.73156
1.72377
1.71532
1.70633
1.69692
1.68718
1.67719
1.66702
1.65672
1.64638
1.63605
1.62578
1.6156
1.60552
1.59556
1.58575
1.5761
1.56664
1.55737
1.54831
1.53946
1.53084
1.52243
1.51425
1.50629
1.49856
1.49106
1.48378
1.47673
1.4699
1.46329
1.4569
1.45072
1.44475
1.43899
1.43344
1.42808
1.42292
1.41794
1.41315
1.40855
1.40411
1.39985
1.39575
1.39181
1.38803
1.3844
1.38091
1.37757
1.37436
1.37128
1.36833
1.36553
1.36283
1.36036
1.358
1.35462
14.6116
16.9772
18.1601
18.0511
17.0301
17.4392
17.1247
17.2235
18.7694
18.0221
15.719
15.5657
15.0028
14.049
12.9532
12.6343
12.7549
12.484
11.4376
10.0232
9.54292
9.54076
9.49516
9.16348
8.26043
6.8925
6.0084
5.94109
6.97743
10.651
9.4586
9.48167
9.98756
9.38908
9.71979
10.0753
8.93249
7.08844
7.45917
9.84477
9.63565
7.81413
6.33098
6.27877
6.77164
7.87587
9.46212
10.79
10.9011
10.4034
9.0426
7.79501
7.25281
6.8292
7.05109
7.7674
8.13013
8.49417
9.40137
11.0495
12.4118
12.0886
9.51075
5.63684
5.05305
5.22435
4.5837
2.79686
1.5293
1.10563
0.979712
0.948649
0.946531
0.955309
0.975152
1.00148
1.02816
1.05177
1.07302
1.09181
1.10795
1.1213
1.13184
1.13972
1.14514
1.14829
1.14945
1.14915
1.14729
1.1437
1.13871
1.13265
1.12573
1.11811
1.10995
1.10136
1.09247
1.08335
1.07408
1.06472
1.05532
1.04593
1.03659
1.02736
1.01826
1.0093
1.00051
0.991882
0.983447
0.975209
0.967178
0.95936
0.95176
0.944379
0.937219
0.930278
0.923556
0.91705
0.910758
0.904677
0.898804
0.893136
0.887669
0.882399
0.877321
0.872432
0.867725
0.863197
0.858842
0.854656
0.850633
0.84677
0.843059
0.839498
0.83608
0.832802
0.829657
0.826644
0.823754
0.820986
0.818333
0.815794
0.81336
0.811032
0.808805
0.806687
0.804657
0.802802
0.801014
0.798535
12.4812
14.0862
14.9825
14.9608
14.3942
14.8597
14.986
15.6161
16.8998
16.1791
13.5762
13.4558
13.0021
12.0484
10.8621
10.4783
10.5443
10.3361
9.55225
8.51623
8.16083
8.1374
8.07479
7.79944
7.06902
5.96383
5.17236
4.99669
5.63745
7.68254
7.08969
7.31987
8.06655
7.96505
8.42122
8.77054
7.87487
6.29629
6.17672
7.95686
8.33627
6.80952
5.39305
5.33852
5.77989
6.73895
8.08069
9.0691
9.10706
8.7409
7.75646
6.82608
6.45594
6.1548
6.3259
6.87902
7.17187
7.47709
8.26862
9.67699
10.7684
10.4429
8.29436
5.04045
4.24408
4.47538
4.01482
2.42928
1.21537
0.825092
0.716791
0.693682
0.693726
0.703165
0.721176
0.743204
0.76394
0.782041
0.797947
0.811586
0.822876
0.831756
0.838262
0.842549
0.844801
0.845346
0.84464
0.842321
0.838463
0.83341
0.827436
0.820704
0.813351
0.80552
0.797345
0.788935
0.780378
0.771743
0.763092
0.754472
0.745911
0.737448
0.729119
0.72095
0.712961
0.705162
0.697563
0.690167
0.682983
0.676014
0.669264
0.662733
0.656422
0.650328
0.64445
0.638782
0.633321
0.628063
0.623002
0.618135
0.613456
0.60896
0.604642
0.600497
0.596519
0.592704
0.589045
0.585537
0.582175
0.578955
0.57587
0.572917
0.570088
0.567382
0.564791
0.562314
0.559943
0.557676
0.555508
0.553436
0.551455
0.549562
0.547752
0.546024
0.544374
0.542807
0.541307
0.53994
0.538618
0.536823
11.0564
12.1923
12.9542
13.0115
12.7433
13.2375
13.5743
14.3318
15.5976
14.8693
12.2668
12.0172
11.5705
10.6392
9.48948
9.076
9.08768
8.91258
8.29551
7.49666
7.22352
7.18459
7.10692
6.86649
6.25458
5.33705
4.64903
4.43149
4.82037
5.95794
5.67532
5.9512
6.7605
6.97837
7.51394
7.85222
7.13501
5.7825
5.3965
6.38468
6.96112
5.79342
4.7116
4.70656
5.12031
5.95607
7.05923
7.81633
7.82295
7.5372
6.8178
6.14705
5.91378
5.68802
5.80909
6.22603
6.47538
6.7605
7.47421
8.71258
9.60904
9.28603
7.4431
4.64954
3.60569
3.72325
3.42116
2.08769
0.992218
0.65494
0.570059
0.554628
0.555858
0.564592
0.579462
0.596982
0.613092
0.626937
0.638796
0.648627
0.656391
0.662074
0.665738
0.667552
0.667859
0.667005
0.664582
0.660727
0.655821
0.650116
0.643752
0.636836
0.62949
0.621845
0.614014
0.606089
0.598144
0.590239
0.582414
0.574694
0.567107
0.559679
0.552434
0.54539
0.538557
0.531939
0.52554
0.519359
0.513398
0.507656
0.502132
0.496821
0.491722
0.486828
0.482135
0.477636
0.473326
0.469198
0.465247
0.461466
0.45785
0.454391
0.451086
0.447926
0.444908
0.442025
0.439271
0.436642
0.434132
0.431736
0.429449
0.427267
0.425184
0.423198
0.421302
0.419495
0.41777
0.416126
0.414557
0.413062
0.411636
0.410276
0.408979
0.407744
0.406566
0.405451
0.404384
0.403415
0.402475
0.40122
10.0203
10.8813
11.5656
11.6664
11.5999
12.2818
12.8046
13.4764
14.685
13.7145
11.309
10.9971
10.5674
9.67594
8.56253
8.11392
8.07182
7.90935
7.39433
6.7498
6.52447
6.47184
6.38184
6.16927
5.65108
4.87637
4.27613
4.04633
4.29565
4.96152
4.82425
5.08551
5.85947
6.26177
6.83426
7.15428
6.57038
5.40508
4.92628
5.33577
5.53852
4.81168
4.1913
4.24978
4.65108
5.36675
6.27961
6.86726
6.85334
6.61023
6.08347
5.63769
5.51532
5.34673
5.38883
5.65547
5.87524
6.19084
6.87016
7.98722
8.727
8.39866
6.79025
4.36219
3.19719
2.94125
2.64141
1.64144
0.780683
0.532839
0.477831
0.469415
0.471087
0.478191
0.489702
0.503439
0.516173
0.526833
0.535695
0.542754
0.547997
0.551438
0.553174
0.55351
0.552787
0.550598
0.547028
0.54246
0.537186
0.531339
0.52501
0.518298
0.511317
0.504178
0.49698
0.489807
0.482704
0.475709
0.468857
0.462166
0.455655
0.449341
0.443238
0.437355
0.431696
0.42626
0.421045
0.416046
0.411261
0.406686
0.402315
0.398142
0.394162
0.390367
0.386751
0.383306
0.380026
0.376903
0.37393
0.371101
0.36841
0.36585
0.363415
0.3611
0.358898
0.356805
0.354814
0.352923
0.351123
0.349413
0.347787
0.346242
0.344772
0.343376
0.342047
0.340785
0.339584
0.338443
0.337357
0.336325
0.335344
0.334411
0.333523
0.332679
0.331876
0.331118
0.330394
0.32974
0.329101
0.328264
9.23039
9.93877
10.5773
10.6909
10.7758
11.5597
12.1216
12.8603
13.8996
12.55
10.4392
10.3078
9.88408
8.99714
7.88648
7.40547
7.32142
7.16461
6.71918
6.18148
5.98257
5.92019
5.82544
5.63432
5.18435
4.51689
3.98792
3.75745
3.92457
4.3407
4.26864
4.50793
5.22102
5.71816
6.30637
6.61127
6.12577
5.11066
4.59944
4.68718
4.64723
4.11649
3.77942
3.89933
4.29143
4.90928
5.68416
6.15576
6.13145
5.90841
5.49762
5.22795
5.20365
5.06704
4.99549
5.0963
5.29334
5.6863
6.37326
7.40252
8.01524
7.68607
6.2628
4.12124
2.94613
2.37663
1.81233
1.06177
0.585779
0.448057
0.417714
0.413074
0.414293
0.419328
0.427865
0.438675
0.44894
0.457223
0.46387
0.468917
0.472374
0.474285
0.474837
0.47443
0.472749
0.469709
0.465663
0.46094
0.455718
0.450076
0.444098
0.437878
0.431518
0.425114
0.41876
0.412495
0.406354
0.400371
0.394569
0.388961
0.383557
0.378365
0.373392
0.368641
0.364109
0.359792
0.355684
0.351779
0.348069
0.344549
0.341211
0.338048
0.335052
0.332215
0.32953
0.326989
0.324584
0.32231
0.320158
0.318122
0.316197
0.314375
0.312653
0.311023
0.309482
0.308024
0.306644
0.305339
0.304103
0.302934
0.301827
0.300779
0.299787
0.298848
0.297958
0.297115
0.296316
0.29556
0.294843
0.294163
0.293519
0.292908
0.292329
0.29178
0.291258
0.290768
0.290299
0.289879
0.289465
0.288935
8.59276
9.2034
9.78725
9.87364
10.1256
11.0653
11.696
12.3379
13.2363
11.1542
9.52405
9.74683
9.36002
8.47229
7.34281
6.83197
6.71982
6.56167
6.17225
5.72262
5.54248
5.4695
5.3717
5.20089
4.80798
4.22742
3.75705
3.52941
3.64246
3.91331
3.87728
4.09871
4.75274
5.29418
5.87975
6.16961
5.761
4.86837
4.35185
4.27889
4.08963
3.64645
3.45969
3.61741
3.99733
4.53714
5.21192
5.60129
5.56867
5.3604
5.02438
4.89151
4.95193
4.8276
4.63194
4.57968
4.74178
5.20922
5.93774
6.90723
7.4127
7.08177
5.81432
3.90633
2.76283
2.03085
1.33284
0.744495
0.476171
0.397247
0.377383
0.373466
0.373924
0.377083
0.383239
0.391793
0.400182
0.406667
0.411668
0.415257
0.417465
0.418383
0.418339
0.41732
0.415007
0.411634
0.407562
0.40302
0.398116
0.392916
0.387501
0.381958
0.376375
0.370845
0.365413
0.36011
0.354968
0.350009
0.345249
0.340694
0.336346
0.332208
0.32828
0.324561
0.321044
0.317723
0.314588
0.311633
0.308848
0.306226
0.303759
0.301439
0.299257
0.297206
0.295279
0.293467
0.291765
0.290165
0.288661
0.287247
0.285918
0.284668
0.283493
0.282388
0.281349
0.280371
0.27945
0.278584
0.277768
0.277
0.276276
0.275594
0.27495
0.274345
0.273773
0.273234
0.272724
0.272244
0.271791
0.271363
0.270958
0.270576
0.270214
0.269873
0.26955
0.269247
0.268958
0.268701
0.268444
0.268127
8.07877
8.59406
9.05609
9.12247
9.56486
10.6523
11.3085
11.7352
12.6053
10.0023
8.64895
9.15613
8.91454
8.06415
6.90547
6.35003
6.22391
6.05415
5.7062
5.33426
5.17565
5.09377
4.99496
4.84495
4.49848
3.98757
3.56513
3.34284
3.42016
3.60057
3.58536
3.79429
4.39774
4.95416
5.5306
5.80766
5.4577
4.66533
4.15048
3.97625
3.7007
3.31836
3.21161
3.38052
3.74651
4.22988
4.83133
5.15909
5.12312
4.92773
4.64196
4.61092
4.74288
4.63059
4.3336
4.18504
4.31488
4.78433
5.53857
6.47356
6.91058
6.59217
5.43552
3.71671
2.6126
1.81576
1.091
0.613621
0.423501
0.365441
0.34864
0.344434
0.344267
0.34602
0.350354
0.35713
0.364036
0.369144
0.372914
0.37545
0.376807
0.377147
0.376745
0.375274
0.372702
0.369353
0.365521
0.361354
0.356929
0.35231
0.347573
0.342793
0.338058
0.333414
0.328895
0.324531
0.320342
0.316343
0.312543
0.30894
0.305533
0.302321
0.299299
0.296463
0.293804
0.291315
0.288985
0.286806
0.284769
0.282866
0.281089
0.279431
0.277884
0.27644
0.275092
0.273834
0.27266
0.271565
0.270542
0.269586
0.268694
0.26786
0.267081
0.266353
0.265672
0.265035
0.264439
0.263881
0.263358
0.262869
0.26241
0.26198
0.261577
0.261198
0.260843
0.26051
0.260196
0.259902
0.259625
0.259365
0.259121
0.25889
0.258673
0.258469
0.258277
0.258098
0.257925
0.257776
0.257621
0.257443
7.65149
8.06326
8.36715
8.43338
9.05966
10.3606
11.0309
11.1392
12.017
9.15772
7.78497
8.44134
8.48154
7.69358
6.49524
5.90267
5.7864
5.61063
5.28862
4.97608
4.84187
4.75213
4.65356
4.5285
4.23198
3.78507
3.40374
3.18712
3.23784
3.35856
3.35745
3.55796
4.11973
4.67598
5.23557
5.50145
5.19903
4.49001
3.98232
3.74006
3.41496
3.07831
3.01499
3.17903
3.52816
3.96764
4.51333
4.79226
4.7531
4.5703
4.32629
4.374
4.56944
4.46159
4.09327
3.88925
4
4.43891
5.18977
6.10065
6.49628
6.19565
5.12791
3.55654
2.48675
1.66046
0.955086
0.54778
0.392807
0.343111
0.327455
0.322888
0.322191
0.323039
0.325992
0.331342
0.337042
0.341089
0.343937
0.345718
0.346513
0.346548
0.345876
0.344184
0.341624
0.338508
0.335054
0.331361
0.327493
0.323511
0.319482
0.31548
0.311556
0.307741
0.304068
0.300554
0.297216
0.294058
0.291085
0.288292
0.285674
0.283228
0.280945
0.278821
0.276845
0.275011
0.273307
0.271727
0.27026
0.268901
0.267641
0.266474
0.265392
0.26439
0.263461
0.2626
0.261802
0.261062
0.260375
0.259739
0.259148
0.2586
0.25809
0.257617
0.257177
0.256768
0.256388
0.256034
0.255705
0.255398
0.255112
0.254846
0.254597
0.254365
0.254149
0.253947
0.253758
0.253581
0.253416
0.253261
0.253117
0.252981
0.252854
0.252735
0.252623
0.25252
0.25242
0.252337
0.252245
0.252151
7.28891
7.6108
7.81435
7.89376
8.62688
10.0946
10.8433
10.4511
11.3598
8.53315
6.98735
7.69856
7.95604
7.23698
6.03597
5.49459
5.41494
5.24976
4.93811
4.6368
4.51463
4.42278
4.32825
4.22311
3.98418
3.60687
3.26457
3.05506
3.08564
3.16509
3.17292
3.36742
3.89649
4.44419
4.98516
5.24172
4.97723
4.33791
3.83672
3.543
3.19011
2.89222
2.85491
3.00903
3.33818
3.74452
4.24531
4.48619
4.44637
4.27495
4.06145
4.16995
4.41559
4.30294
3.88724
3.6583
3.75707
4.16741
4.90117
5.78845
6.15421
5.8705
4.87508
3.42
2.37967
1.54415
0.866937
0.506523
0.371381
0.326563
0.311752
0.306961
0.305806
0.306091
0.308033
0.312235
0.316939
0.320167
0.322327
0.323574
0.324014
0.323884
0.323036
0.321312
0.318925
0.316143
0.313121
0.309931
0.30663
0.303272
0.299924
0.296632
0.293432
0.290348
0.287407
0.284617
0.281991
0.279527
0.277227
0.275085
0.273091
0.271245
0.269533
0.267954
0.266494
0.265151
0.263909
0.262768
0.261714
0.260746
0.259852
0.259032
0.258274
0.257578
0.256935
0.256345
0.255799
0.255298
0.254834
0.254408
0.254014
0.253651
0.253315
0.253006
0.25272
0.252455
0.252211
0.251984
0.251775
0.251581
0.251402
0.251236
0.251081
0.250938
0.250806
0.250683
0.250568
0.250462
0.250363
0.250271
0.250185
0.250106
0.250031
0.249962
0.249897
0.249839
0.24978
0.249735
0.249678
0.249634
6.97007
7.21876
7.35468
7.45627
8.23736
9.89557
10.6826
9.75432
10.4534
7.84757
6.32244
7.00347
7.33345
6.66016
5.54019
5.15191
5.10925
4.95181
4.64661
4.33413
4.206
4.11698
4.03062
3.93855
3.75181
3.44646
3.14412
2.94155
2.95543
3.00524
3.01911
3.20952
3.71377
4.24831
4.76791
5.01671
4.78386
4.20318
3.71032
3.37859
3.007
2.73962
2.71926
2.86394
3.172
3.55115
4.01398
4.22295
4.18229
4.02144
3.83286
3.98482
4.26323
4.14411
3.70377
3.46737
3.55855
3.94766
4.66691
5.5302
5.86749
5.59488
4.65998
3.30196
2.28777
1.45402
0.805655
0.477995
0.355676
0.314278
0.300213
0.295354
0.293834
0.293759
0.294981
0.29826
0.302124
0.304696
0.306326
0.307185
0.307403
0.30716
0.30623
0.304581
0.302437
0.300014
0.297422
0.294716
0.291946
0.289165
0.286423
0.283743
0.281162
0.278696
0.276366
0.274173
0.272125
0.270217
0.268448
0.26681
0.265297
0.263903
0.262617
0.26144
0.260355
0.259362
0.258447
0.257612
0.256841
0.256138
0.25549
0.254901
0.254355
0.253861
0.253401
0.252986
0.252599
0.252251
0.251925
0.251632
0.251357
0.25111
0.250879
0.250669
0.250475
0.250297
0.250134
0.249982
0.249844
0.249716
0.249598
0.24949
0.24939
0.249298
0.249213
0.249134
0.249062
0.248995
0.248933
0.248876
0.248823
0.248774
0.248729
0.248687
0.248647
0.248613
0.248577
0.248552
0.248514
0.248497
6.53282
6.72211
6.79372
6.91939
7.69158
9.60198
10.2957
9.02858
8.75905
6.81685
5.53169
6.0889
6.43376
5.86603
4.95863
4.7334
4.73011
4.58287
4.28536
3.9587
3.81643
3.73615
3.66511
3.58347
3.44075
3.22055
2.97881
2.79253
2.78512
2.80258
2.82233
3.00919
3.48627
3.99837
4.48597
4.72517
4.53073
4.02384
3.54069
3.16264
2.77714
2.54515
2.53977
2.67555
2.956
3.3022
3.71381
3.88443
3.84392
3.69695
3.53673
3.71535
4.02873
3.90443
3.46732
3.23159
3.3133
3.67673
4.37388
5.20258
5.50257
5.24597
4.38754
3.14714
2.16143
1.34303
0.737884
0.446209
0.33781
0.300681
0.28781
0.283014
0.281131
0.280672
0.2813
0.283616
0.286525
0.288393
0.289491
0.289997
0.290056
0.28974
0.288852
0.287452
0.285735
0.283848
0.281861
0.279812
0.277741
0.275694
0.273693
0.271757
0.269906
0.268149
0.266496
0.264949
0.263511
0.26218
0.260953
0.259823
0.258786
0.257833
0.25696
0.256162
0.255431
0.254765
0.254155
0.253603
0.253095
0.252636
0.252213
0.251832
0.251477
0.251159
0.250862
0.250596
0.250347
0.250125
0.249916
0.24973
0.249555
0.249399
0.249253
0.249122
0.249
0.248889
0.248789
0.248695
0.24861
0.248531
0.248458
0.248391
0.24833
0.248274
0.248223
0.248176
0.248133
0.248093
0.248057
0.248024
0.247994
0.247966
0.247941
0.247918
0.247894
0.247876
0.247856
0.247846
0.24782
0.247823
6.03328
6.21366
6.25638
6.39698
7.08172
9.20669
9.81746
8.55035
6.90084
5.59627
4.77834
5.21262
5.53253
5.11378
4.42324
4.32459
4.34912
4.21278
3.92695
3.60396
3.45398
3.37716
3.31411
3.23852
3.11521
2.95219
2.77655
2.61613
2.60018
2.5942
2.61577
2.80552
3.26436
3.7461
4.19263
4.42197
4.26413
3.82878
3.36223
2.9465
2.55299
2.34769
2.34903
2.47409
2.7277
3.04186
3.40059
3.53225
3.49022
3.35806
3.23458
3.40881
3.76078
3.65736
3.24111
2.98991
3.06085
3.41058
4.0957
4.8872
5.14264
4.89417
4.10884
2.98611
2.02324
1.22453
0.674985
0.417863
0.323055
0.290686
0.279334
0.274812
0.272702
0.271921
0.27219
0.273771
0.275864
0.277157
0.277863
0.278146
0.278135
0.27782
0.277085
0.276012
0.274741
0.273368
0.271936
0.270469
0.269006
0.267554
0.266134
0.264764
0.263458
0.262225
0.261075
0.260004
0.259014
0.258098
0.257252
0.256473
0.255757
0.255099
0.254493
0.253937
0.253422
0.25295
0.252512
0.252108
0.251729
0.25138
0.251057
0.250762
0.250489
0.25024
0.250009
0.249799
0.249604
0.249426
0.249261
0.249112
0.248973
0.248846
0.248729
0.248623
0.248524
0.24843
0.248343
0.248263
0.248193
0.248132
0.248079
0.248031
0.247987
0.247947
0.247911
0.247878
0.247847
0.24782
0.247795
0.247772
0.247751
0.247732
0.247714
0.247704
0.247699
0.247688
0.247672
0.247666
0.247644
0.247653
5.61697
5.75995
5.79169
5.95821
6.64433
8.88489
9.546
8.10732
5.61383
4.73518
4.23941
4.59119
4.89427
4.58717
4.04115
4.02279
4.0611
3.93343
3.65507
3.33741
3.18302
3.11086
3.05233
2.98056
2.86826
2.72575
2.5799
2.43905
2.42546
2.40931
2.43176
2.63549
3.09478
3.54684
3.95952
4.18365
4.05142
3.66721
3.20968
2.7633
2.37642
2.19387
2.19648
2.31047
2.5408
2.83419
3.15041
3.25511
3.21092
3.08787
2.99559
3.17224
3.55572
3.47446
3.05772
2.78654
2.85272
3.20333
3.88044
4.64141
4.86436
4.62441
3.89302
2.85587
1.91201
1.12706
0.625313
0.397573
0.31394
0.285428
0.27527
0.271006
0.268819
0.267867
0.267988
0.269233
0.270909
0.271899
0.2724
0.272573
0.272533
0.272237
0.271622
0.270766
0.269774
0.268702
0.267579
0.266423
0.265253
0.264123
0.263013
0.261932
0.260919
0.259966
0.259065
0.258213
0.257407
0.256647
0.255936
0.255269
0.254642
0.254056
0.253509
0.253001
0.252528
0.252093
0.251695
0.251334
0.251007
0.250713
0.250443
0.250196
0.249968
0.249759
0.249566
0.249391
0.249228
0.249081
0.248945
0.248821
0.248708
0.248606
0.248512
0.248426
0.248348
0.248282
0.248227
0.248183
0.248143
0.2481
0.24805
0.248003
0.24796
0.247921
0.247885
0.247852
0.247822
0.247795
0.24777
0.247748
0.247727
0.247708
0.24769
0.247669
0.247635
0.247622
0.24761
0.247608
0.247591
0.247605
5.28854
5.34668
5.3542
5.53331
6.28948
8.60571
9.24686
7.27814
4.75935
4.13981
3.84364
4.13235
4.41335
4.17513
3.7368
3.77465
3.8171
3.7007
3.43145
3.12303
2.96668
2.89848
2.84392
2.77554
2.67143
2.53788
2.40037
2.2678
2.25308
2.23645
2.2604
2.47658
2.94905
3.38278
3.76717
3.98957
3.87707
3.53085
3.08113
2.61369
2.23498
2.07295
2.07736
2.18009
2.38945
2.66194
2.94121
3.02473
2.97974
2.86233
2.7975
2.98356
3.39481
3.33446
2.91245
2.6032
2.66142
3.02724
3.71187
4.44771
4.63841
4.4018
3.71345
2.74945
1.82707
1.05921
0.590611
0.383817
0.3083
0.282421
0.273057
0.268998
0.266843
0.265881
0.265992
0.267088
0.268461
0.269244
0.269651
0.269791
0.269752
0.269493
0.268965
0.268236
0.267394
0.266496
0.265557
0.264609
0.263665
0.262712
0.26177
0.260859
0.259928
0.259008
0.258147
0.257343
0.256597
0.255902
0.255257
0.25466
0.254111
0.253607
0.253145
0.252724
0.25234
0.251987
0.251661
0.251359
0.251072
0.250795
0.250534
0.250294
0.250071
0.249866
0.249676
0.249502
0.249339
0.249191
0.249053
0.248925
0.248808
0.248701
0.248602
0.24851
0.248426
0.248347
0.248271
0.248194
0.248116
0.248045
0.247992
0.247947
0.247906
0.247869
0.247836
0.247805
0.247778
0.247754
0.247732
0.247712
0.247695
0.24768
0.247666
0.247654
0.247649
0.247643
0.247634
0.247635
0.247623
0.247637
5.02327
5.02794
4.99801
5.15338
5.92215
8.18339
8.85182
6.31432
4.19889
3.73397
3.55176
3.79543
4.05174
3.86347
3.49827
3.56265
3.60041
3.49951
3.24737
2.9494
2.7925
2.72885
2.67665
2.61135
2.51486
2.3888
2.25638
2.12656
2.10388
2.08898
2.11445
2.3226
2.81118
3.23571
3.60442
3.83081
3.73374
3.4142
2.96596
2.48198
2.11927
1.97608
1.98249
2.07579
2.26649
2.51964
2.76689
2.83403
2.78785
2.67401
2.63039
2.82795
3.26147
3.22413
2.79541
2.44721
2.49226
2.8709
3.56819
4.27774
4.43424
4.20397
3.55844
2.65649
1.75713
1.01002
0.566329
0.374238
0.304675
0.280862
0.272169
0.268262
0.266031
0.264974
0.265026
0.266025
0.267318
0.26802
0.268339
0.268426
0.268371
0.268117
0.267625
0.26696
0.266195
0.265378
0.264527
0.263642
0.262735
0.261815
0.260919
0.260038
0.259257
0.258513
0.257783
0.257075
0.2564
0.255765
0.255172
0.254616
0.254093
0.253603
0.253142
0.25271
0.252301
0.251912
0.251539
0.251185
0.25086
0.250576
0.25032
0.250084
0.249866
0.249666
0.249481
0.249311
0.249154
0.249012
0.248879
0.248757
0.248648
0.248548
0.248455
0.24837
0.248292
0.248219
0.248152
0.248091
0.248039
0.247998
0.247958
0.24792
0.247886
0.247856
0.247829
0.247804
0.247782
0.247762
0.247745
0.247729
0.247716
0.247705
0.247696
0.247696
0.247706
0.247709
0.24771
0.247722
0.247738
0.247764
4.80124
4.77201
4.72833
4.84356
5.50143
7.76544
8.63353
5.62223
3.82326
3.43877
3.32643
3.53511
3.76393
3.60541
3.29647
3.36307
3.39128
3.30733
3.08198
2.79947
2.64551
2.58654
2.53686
2.47427
2.38394
2.26531
2.1394
2.01444
1.98356
1.96997
1.99584
2.18457
2.67181
3.09176
3.46365
3.69876
3.61373
3.31403
2.86649
2.37125
2.02524
1.89686
1.90442
1.98947
2.16375
2.39694
2.61541
2.6693
2.62234
2.5128
2.48456
2.69413
3.15174
3.13158
2.69373
2.31777
2.34756
2.72193
3.43956
4.12684
4.24148
4.01514
3.41524
2.57149
1.69994
0.972395
0.548135
0.367073
0.301695
0.279329
0.271132
0.267432
0.265412
0.264563
0.264753
0.265811
0.266985
0.267605
0.267911
0.268005
0.267956
0.26771
0.267255
0.266645
0.265941
0.265174
0.264362
0.263521
0.262652
0.261817
0.260982
0.260158
0.259331
0.258517
0.257767
0.257063
0.2564
0.255771
0.255178
0.254616
0.254082
0.25358
0.253104
0.252655
0.252235
0.251847
0.251492
0.251172
0.250882
0.250618
0.250373
0.250148
0.249941
0.249752
0.249578
0.24942
0.249273
0.249142
0.249021
0.248909
0.248807
0.248714
0.248627
0.248546
0.248471
0.248405
0.248348
0.248298
0.248256
0.248217
0.248175
0.248134
0.248097
0.248063
0.248032
0.248005
0.247981
0.247961
0.247944
0.247931
0.247921
0.247916
0.247916
0.247922
0.247925
0.247947
0.247988
0.248058
0.248198
0.24817
4.61876
4.56423
4.51397
4.61414
5.11924
7.24874
8.38956
5.15457
3.56967
3.2288
3.15357
3.33954
3.54077
3.40087
3.12164
3.17613
3.19676
3.12739
2.93239
2.66902
2.52182
2.46793
2.42025
2.36007
2.27511
2.16299
2.04301
1.9228
1.88693
1.87403
1.8993
2.07176
2.53179
2.9506
3.34264
3.58645
3.51109
3.22479
2.77445
2.27415
1.94692
1.83089
1.83875
1.91668
2.07634
2.29175
2.48512
2.52711
2.47832
2.37391
2.35539
2.57164
3.04608
3.03143
2.59663
2.20991
2.23047
2.5772
3.2989
3.97292
4.05602
3.83727
3.27861
2.4864
1.64607
0.939364
0.532268
0.360301
0.298874
0.27833
0.270858
0.267369
0.265328
0.264405
0.264569
0.265557
0.266629
0.267198
0.267492
0.267577
0.267516
0.267263
0.266802
0.266198
0.265509
0.264761
0.263961
0.263127
0.262308
0.261498
0.260672
0.259864
0.259096
0.258351
0.25762
0.256918
0.256262
0.255649
0.255069
0.254519
0.254
0.253515
0.253069
0.252664
0.252299
0.251974
0.251681
0.251412
0.251152
0.250887
0.250633
0.250398
0.250178
0.249975
0.249785
0.249609
0.249444
0.249292
0.249149
0.249016
0.248895
0.248783
0.24868
0.248585
0.248498
0.248417
0.24834
0.248264
0.248187
0.248119
0.248071
0.248032
0.247998
0.24797
0.247947
0.247926
0.247909
0.247894
0.247881
0.24787
0.247864
0.24786
0.247859
0.247863
0.247873
0.247888
0.247909
0.247942
0.248039
0.248027
4.05075
3.95632
3.90817
3.98407
4.0458
5.33942
5.79303
4.00314
2.93624
2.7105
2.70113
2.82723
2.94048
2.82309
2.6183
2.60623
2.59928
2.57128
2.47215
2.28335
2.17685
2.14574
2.10897
2.05556
1.98109
1.88737
1.78729
1.68654
1.6461
1.63472
1.66177
1.80196
2.15766
2.57092
3.0398
3.30167
3.24876
2.9981
2.54236
2.03899
1.76115
1.67492
1.68239
1.74167
1.86631
2.03612
2.17357
2.19271
2.14589
2.05958
2.05306
2.26748
2.73157
2.7473
2.31341
1.976
1.99074
2.23803
2.90887
3.59367
3.62237
3.42062
2.95716
2.28307
1.5187
0.860677
0.493746
0.343906
0.293062
0.276229
0.26981
0.266642
0.264832
0.264181
0.26455
0.265672
0.266678
0.267193
0.267437
0.2675
0.267449
0.267231
0.266805
0.26621
0.265514
0.264763
0.263973
0.263151
0.262313
0.261455
0.260622
0.259781
0.259006
0.258294
0.257613
0.256947
0.256303
0.255688
0.25511
0.254566
0.254053
0.25357
0.253117
0.252691
0.252289
0.251907
0.251545
0.251206
0.250894
0.250616
0.250363
0.250131
0.249915
0.249716
0.249533
0.249363
0.249206
0.249062
0.248929
0.248806
0.248695
0.248594
0.248502
0.248418
0.248341
0.248273
0.248212
0.248162
0.248121
0.248085
0.248045
0.248005
0.24797
0.247937
0.247907
0.247879
0.247854
0.247833
0.247814
0.247799
0.247785
0.247774
0.247766
0.247761
0.24776
0.247764
0.247774
0.247794
0.247862
0.247866
3.4995
3.48759
3.4904
3.55481
3.54148
3.71015
3.82235
3.10458
2.48613
2.27538
2.2567
2.33179
2.43075
2.3656
2.20605
2.04894
1.98266
1.96429
1.9416
1.90101
1.88062
1.86727
1.83872
1.79483
1.73501
1.65747
1.56917
1.48868
1.45837
1.45049
1.47194
1.58561
1.84788
2.24621
2.76586
2.98304
2.94715
2.72589
2.26622
1.81873
1.60595
1.53706
1.53625
1.5722
1.65893
1.7844
1.86447
1.85769
1.81005
1.74685
1.7489
1.87471
2.1764
2.1615
1.92063
1.76227
1.77947
1.93262
2.31435
2.84398
2.9074
2.76803
2.44421
1.96619
1.33469
0.743217
0.442554
0.327302
0.28836
0.274773
0.269162
0.266238
0.264626
0.264195
0.264749
0.265912
0.266778
0.26726
0.267519
0.267598
0.267543
0.267284
0.266828
0.266246
0.265586
0.264867
0.264102
0.263319
0.262519
0.261725
0.260929
0.260149
0.259351
0.258515
0.257729
0.257011
0.25634
0.255703
0.255104
0.254546
0.254029
0.253548
0.2531
0.252683
0.252298
0.251942
0.251613
0.25131
0.251026
0.250754
0.2505
0.250263
0.250044
0.249841
0.249654
0.249481
0.249321
0.249175
0.24904
0.248914
0.2488
0.248695
0.248599
0.248509
0.248427
0.248353
0.248285
0.248223
0.248167
0.248114
0.248066
0.248021
0.24798
0.247941
0.247905
0.247872
0.247842
0.247816
0.247794
0.247774
0.247758
0.247744
0.247734
0.247728
0.247727
0.247731
0.247741
0.247763
0.247831
0.247833
3.02959
3.12498
3.19982
3.33346
3.30807
3.2423
3.15395
2.74857
2.20202
1.89937
1.85556
1.91655
2.03105
2.03291
1.9432
1.79927
1.72748
1.70697
1.70218
1.6969
1.6984
1.68742
1.65996
1.62146
1.57415
1.51202
1.43147
1.36663
1.34578
1.34189
1.36052
1.45127
1.66027
2.05226
2.60308
2.7613
2.7058
2.48636
2.05114
1.6831
1.51538
1.44954
1.43755
1.45884
1.51969
1.60772
1.64356
1.6271