/*--------------------------------*- C++ -*----------------------------------*\
| =========                 |                                                 |
| \\      /  F ield         | OpenFOAM: The Open Source CFD Toolbox           |
|  \\    /   O peration     | Version:  v1912                                 |
|   \\  /    A nd           | Website:  www.openfoam.com                      |
|    \\/     M anipulation  |                                                 |
\*---------------------------------------------------------------------------*/
FoamFile
{
    version     2.0;
    format      ascii;
    class       volSymmTensorField;
    location    "50";
    object      R;
}
// * * * * * * * * * * * * * * * * * * * * * * * * * * * * * * * * * * * * * //

dimensions      [0 2 -2 0 0 0 0];


internalField   nonuniform List<symmTensor> 
14268
(
(0.0122227 -0.00212032 0 0.0151335 0 0.0123618)
(0.0135103 -0.00184324 0 0.0259265 0 0.013923)
(0.0139652 -0.0012658 0 0.0308347 0 0.0150258)
(0.0123293 -0.00053338 0 0.0290454 0 0.013212)
(0.0091546 6.53854e-06 0 0.022877 0 0.00932439)
(0.005016 0.000592298 0 0.012839 0 0.0046763)
(0.00357717 0.000852562 0 0.00759939 0 0.00308487)
(0.00388146 1.0362e-06 0 0.00768279 0 0.00349826)
(0.00725407 -0.000364852 0 0.015183 0 0.00702499)
(0.0072871 -0.000264421 0 0.0157003 0 0.00743429)
(0.00602409 -0.000591983 0 0.0129676 0 0.00626485)
(0.00597664 -0.000696846 0 0.0124062 0 0.00610962)
(0.00580374 -0.000639621 0 0.0115934 0 0.00581726)
(0.00531188 -0.000557411 0 0.0101811 0 0.00530368)
(0.00520243 -0.000650607 0 0.00932402 0 0.00533403)
(0.00576912 -0.000819665 0 0.0102635 0 0.00602353)
(0.00620398 -0.000708854 0 0.0115607 0 0.00665992)
(0.00594619 -0.000419966 0 0.0112999 0 0.00649007)
(0.00491937 -0.000223262 0 0.00912874 0 0.00537618)
(0.00354832 -0.000171199 0 0.00612175 0 0.00379816)
(0.00331931 -0.000189326 0 0.00542725 0 0.0035413)
(0.00356245 -0.00016898 0 0.00582691 0 0.00384932)
(0.00374284 -3.21042e-05 0 0.00615048 0 0.00411564)
(0.00350626 0.000117086 0 0.00558732 0 0.00383705)
(0.00275258 0.000217185 0 0.00398135 0 0.00293588)
(0.00159016 0.000134789 0 0.00200127 0 0.00163107)
(0.00116423 6.21074e-05 0 0.00146332 0 0.00117118)
(0.000839683 -1.95383e-05 0 0.00101223 0 0.000821772)
(0.000275346 -6.36482e-06 0 0.000201509 0 0.000253181)
(0.000197407 -2.49793e-06 0 1.00071e-05 0 0.000158368)
(0.000902343 -3.66786e-05 0 1e-15 0 0.000685676)
(0.00152981 -5.00929e-05 0 1e-15 0 0.00115781)
(0.00213175 -7.55016e-05 0 1e-15 0 0.00159232)
(0.00300445 -0.000216995 0 1e-15 0 0.00222049)
(0.00427894 -0.000784329 0 1e-15 0 0.00333339)
(0.00574287 -0.00100383 0 0.00289608 0 0.00523267)
(0.00496791 -0.000423439 0 0.00140765 0 0.00478636)
(0.00290517 0.0001273 0 0.000819986 0 0.00291001)
(0.00169407 -2.39492e-05 0 0.00226113 0 0.00168155)
(0.0017197 -0.000169628 0 0.00358967 0 0.0016513)
(0.00168862 -0.000486205 0 0.0023277 0 0.00148656)
(0.00136783 -0.000334925 0 0.000447734 0 0.00111366)
(0.00114145 -0.000129967 0 1e-15 0 0.000929322)
(0.00121362 -0.000121845 0 1e-15 0 0.000993053)
(0.00150658 -0.000224207 0 0.000178009 0 0.00126454)
(0.00226619 -0.000488523 0 0.0010891 0 0.00201406)
(0.00361726 -0.00087468 0 0.00327076 0 0.00346332)
(0.00493122 -0.000973414 0 0.00628011 0 0.00523919)
(0.00510175 -0.000630736 0 0.00731785 0 0.0058049)
(0.00455179 -0.000482675 0 0.005761 0 0.00518246)
(0.0030586 -0.000362467 0 0.00192981 0 0.00331237)
(0.00150327 -0.000143877 0 0.000128727 0 0.00139812)
(0.00106369 -7.61524e-05 0 2.78143e-05 0 0.000849391)
(0.00100782 -8.92129e-05 0 6.28278e-05 0 0.000803781)
(0.00131709 -0.00024446 0 0.000387543 0 0.00110761)
(0.00187798 -0.000456443 0 0.00143765 0 0.00172266)
(0.00217135 -0.000533806 0 0.00175976 0 0.00200245)
(0.00252822 -0.000659318 0 0.00184047 0 0.00223011)
(0.00326195 -0.00086697 0 0.00279972 0 0.00285224)
(0.00444654 -0.00105625 0 0.00495997 0 0.00406988)
(0.00553155 -0.00109209 0 0.00769652 0 0.00544053)
(0.00525609 -0.000632408 0 0.00784254 0 0.00542518)
(0.00358219 -0.000111315 0 0.00389619 0 0.00375996)
(0.000809871 3.89136e-05 0 0.00040373 0 0.000837831)
(0.000258093 2.22788e-05 0 0.000254696 0 0.000257186)
(0.000181986 3.89386e-05 0 0.000359815 0 0.000174513)
(9.17597e-05 2.25246e-05 0 0.000184356 0 8.71957e-05)
(1.64499e-05 3.49285e-06 0 3.0035e-05 0 1.55936e-05)
(2.28055e-06 3.76528e-07 0 3.80817e-06 0 2.17427e-06)
(3.0741e-07 3.95664e-08 0 4.83779e-07 0 2.94769e-07)
(4.26603e-08 4.42867e-09 0 6.43634e-08 0 4.10805e-08)
(6.11455e-09 5.29011e-10 0 8.90281e-09 0 5.90665e-09)
(9.04126e-10 6.71038e-11 0 1.27084e-09 0 8.75381e-10)
(1.39669e-10 9.12576e-12 0 1.88665e-10 0 1.3543e-10)
(2.36107e-11 1.37382e-12 0 3.02469e-11 0 2.29042e-11)
(5.08046e-12 2.50972e-13 0 5.94547e-12 0 4.91832e-12)
(1.89772e-12 7.12509e-14 0 1.94413e-12 0 1.82603e-12)
(1.29443e-12 3.89791e-14 0 1.21612e-12 0 1.2385e-12)
(1.16593e-12 3.24561e-14 0 1.0656e-12 0 1.11219e-12)
(1.13851e-12 3.1088e-14 0 1.03221e-12 0 1.08418e-12)
(1.13779e-12 3.09349e-14 0 1.02877e-12 0 1.08249e-12)
(1.14893e-12 3.10622e-14 0 1.0369e-12 0 1.09223e-12)
(1.17598e-12 3.14303e-14 0 1.05941e-12 0 1.11707e-12)
(1.21616e-12 3.20193e-14 0 1.09424e-12 0 1.15458e-12)
(1.26503e-12 3.27761e-14 0 1.13744e-12 0 1.20062e-12)
(1.32062e-12 3.36584e-14 0 1.18714e-12 0 1.25325e-12)
(1.38299e-12 3.46367e-14 0 1.24336e-12 0 1.31254e-12)
(1.45249e-12 3.56915e-14 0 1.30641e-12 0 1.3788e-12)
(1.52886e-12 3.68121e-14 0 1.37608e-12 0 1.45181e-12)
(1.61166e-12 3.79765e-14 0 1.45201e-12 0 1.53117e-12)
(1.70049e-12 3.91632e-14 0 1.53387e-12 0 1.6165e-12)
(1.79508e-12 4.03568e-14 0 1.62143e-12 0 1.70757e-12)
(1.89514e-12 4.15406e-14 0 1.71448e-12 0 1.80413e-12)
(2.00028e-12 4.26992e-14 0 1.81266e-12 0 1.90578e-12)
(2.11001e-12 4.3815e-14 0 1.91558e-12 0 2.01211e-12)
(2.22387e-12 4.48749e-14 0 2.02283e-12 0 2.12266e-12)
(2.34143e-12 4.58656e-14 0 2.13402e-12 0 2.23704e-12)
(2.4623e-12 4.67779e-14 0 2.24882e-12 0 2.35488e-12)
(2.58614e-12 4.76025e-14 0 2.36692e-12 0 2.47586e-12)
(2.71264e-12 4.8334e-14 0 2.48805e-12 0 2.59968e-12)
(2.84152e-12 4.89661e-14 0 2.61198e-12 0 2.72609e-12)
(2.9725e-12 4.94953e-14 0 2.73841e-12 0 2.85481e-12)
(3.10524e-12 4.99173e-14 0 2.86706e-12 0 2.98552e-12)
(3.23941e-12 5.02301e-14 0 2.99759e-12 0 3.11788e-12)
(3.37469e-12 5.0432e-14 0 3.1297e-12 0 3.2516e-12)
(3.51081e-12 5.05226e-14 0 3.26312e-12 0 3.38639e-12)
(3.64752e-12 5.05029e-14 0 3.39763e-12 0 3.52201e-12)
(3.7846e-12 5.03736e-14 0 3.53298e-12 0 3.65825e-12)
(3.92177e-12 5.01375e-14 0 3.66892e-12 0 3.79482e-12)
(4.05885e-12 4.97969e-14 0 3.80523e-12 0 3.93154e-12)
(4.19549e-12 4.93556e-14 0 3.94158e-12 0 4.06806e-12)
(4.3316e-12 4.88176e-14 0 4.07785e-12 0 4.20427e-12)
(4.46685e-12 4.81863e-14 0 4.2137e-12 0 4.33984e-12)
(4.60118e-12 4.74679e-14 0 4.34905e-12 0 4.47469e-12)
(4.73426e-12 4.66647e-14 0 4.48356e-12 0 4.60851e-12)
(4.86607e-12 4.57852e-14 0 4.61718e-12 0 4.74124e-12)
(4.9963e-12 4.48303e-14 0 4.74961e-12 0 4.8726e-12)
(5.12495e-12 4.38105e-14 0 4.88079e-12 0 5.00253e-12)
(5.25177e-12 4.27256e-14 0 5.01047e-12 0 5.1308e-12)
(5.37671e-12 4.15873e-14 0 5.13858e-12 0 5.25734e-12)
(5.4996e-12 4.03949e-14 0 5.26491e-12 0 5.38197e-12)
(5.62036e-12 3.916e-14 0 5.38938e-12 0 5.50461e-12)
(5.7389e-12 3.78828e-14 0 5.51187e-12 0 5.62514e-12)
(5.85511e-12 3.65729e-14 0 5.63224e-12 0 5.74344e-12)
(5.96897e-12 3.52324e-14 0 5.75044e-12 0 5.85949e-12)
(6.08032e-12 3.38683e-14 0 5.86631e-12 0 5.97312e-12)
(6.18924e-12 3.24846e-14 0 5.97989e-12 0 6.08438e-12)
(6.29554e-12 3.10859e-14 0 6.09098e-12 0 6.19308e-12)
(6.39933e-12 2.96776e-14 0 6.19967e-12 0 6.29934e-12)
(6.50043e-12 2.82619e-14 0 6.30576e-12 0 6.40295e-12)
(6.59899e-12 2.68456e-14 0 6.40936e-12 0 6.50404e-12)
(6.69483e-12 2.54291e-14 0 6.51029e-12 0 6.60243e-12)
(6.7881e-12 2.40196e-14 0 6.6087e-12 0 6.69828e-12)
(6.87865e-12 2.26161e-14 0 6.7044e-12 0 6.79142e-12)
(6.96664e-12 2.12261e-14 0 6.79755e-12 0 6.882e-12)
(7.05193e-12 1.98478e-14 0 6.88798e-12 0 6.96987e-12)
(7.1347e-12 1.84879e-14 0 6.97587e-12 0 7.05521e-12)
(7.21482e-12 1.7145e-14 0 7.06108e-12 0 7.13788e-12)
(7.29245e-12 1.58241e-14 0 7.14375e-12 0 7.21804e-12)
(7.36751e-12 1.45248e-14 0 7.2238e-12 0 7.2956e-12)
(7.44013e-12 1.32502e-14 0 7.30135e-12 0 7.37068e-12)
(7.51028e-12 1.20009e-14 0 7.37635e-12 0 7.44327e-12)
(7.57805e-12 1.07778e-14 0 7.4489e-12 0 7.51343e-12)
(7.64348e-12 9.58378e-15 0 7.51901e-12 0 7.5812e-12)
(7.70647e-12 8.41614e-15 0 7.58661e-12 0 7.64651e-12)
(7.76713e-12 7.28501e-15 0 7.65172e-12 0 7.70939e-12)
(7.82513e-12 6.1728e-15 0 7.71416e-12 0 7.76964e-12)
(7.87992e-12 5.12538e-15 0 7.7729e-12 0 7.82634e-12)
(7.93083e-12 4.0919e-15 0 7.82809e-12 0 7.87954e-12)
(8.00271e-12 2.97313e-15 0 7.90534e-12 0 7.95386e-12)
(0.0364694 -0.00749199 0 0.0456299 0 0.0376377)
(0.0358316 -0.00835308 0 0.0908702 0 0.0376889)
(0.0350217 -0.00679149 0 0.113183 0 0.0395811)
(0.0301847 -0.00370293 0 0.10889 0 0.0338803)
(0.0221008 -0.00219869 0 0.0896917 0 0.022503)
(0.012147 0.00053475 0 0.0578562 0 0.0103785)
(0.0103496 0.00397397 0 0.038295 0 0.00791058)
(0.0110864 0.000780225 0 0.0348502 0 0.00938656)
(0.01918 -0.00147051 0 0.0623366 0 0.0181985)
(0.0189407 -0.00243427 0 0.0627522 0 0.0193308)
(0.015727 -0.00359947 0 0.0521827 0 0.016537)
(0.0160025 -0.00372366 0 0.0503576 0 0.0164364)
(0.0160504 -0.0035525 0 0.0474635 0 0.0159338)
(0.0150976 -0.00315077 0 0.0418438 0 0.014904)
(0.0150591 -0.00329896 0 0.0372511 0 0.015574)
(0.0165562 -0.00381601 0 0.0402142 0 0.0177157)
(0.0173413 -0.00332968 0 0.0451235 0 0.0194761)
(0.0165048 -0.00217672 0 0.0439496 0 0.0190446)
(0.0139695 -0.00135074 0 0.0356405 0 0.0161975)
(0.0107495 -0.00104032 0 0.0243926 0 0.0120791)
(0.0103439 -0.000985595 0 0.0214694 0 0.0115663)
(0.010992 -0.000788874 0 0.0225703 0 0.0125188)
(0.0114615 -0.00012831 0 0.0235761 0 0.0133543)
(0.010915 0.000532291 0 0.0213043 0 0.0125943)
(0.00913929 0.00114314 0 0.0153135 0 0.0101337)
(0.00611111 0.000885396 0 0.0081277 0 0.00636518)
(0.00477618 0.000562315 0 0.00655856 0 0.00484767)
(0.00371567 3.53839e-05 0 0.0053824 0 0.00372229)
(0.00194827 -1.5905e-05 0 0.00074685 0 0.00172584)
(0.00231942 4.91739e-05 0 1e-15 0 0.00168852)
(0.00684095 -7.96467e-06 0 1e-15 0 0.00471682)
(0.00907607 2.47928e-06 0 1e-15 0 0.00626639)
(0.0119975 -0.000194233 0 1e-15 0 0.00813554)
(0.0155725 -0.00114645 0 1e-15 0 0.0103808)
(0.0196666 -0.004306 0 0.000340598 0 0.0139437)
(0.0217555 -0.00485183 0 0.0151287 0 0.0191828)
(0.0191179 -0.00178495 0 0.00193552 0 0.0183614)
(0.0124652 0.00116006 0 1e-15 0 0.0124744)
(0.00586181 -0.000119468 0 0.00873369 0 0.00579051)
(0.00529807 -0.00101298 0 0.0185804 0 0.00502461)
(0.0060944 -0.00251086 0 0.0136434 0 0.00523574)
(0.00793998 -0.0023864 0 0.00398563 0 0.0060169)
(0.0073516 -0.000889505 0 1e-15 0 0.00560404)
(0.00743025 -0.000783206 0 1e-15 0 0.00570116)
(0.0081286 -0.00126498 0 0.00082443 0 0.0064247)
(0.00975942 -0.00240403 0 0.0046092 0 0.00836644)
(0.0127186 -0.00379788 0 0.0131767 0 0.0122675)
(0.0153942 -0.00384605 0 0.0246081 0 0.017347)
(0.0155773 -0.00258042 0 0.0287034 0 0.0192462)
(0.0144673 -0.00162654 0 0.023616 0 0.0180845)
(0.011792 -0.00146069 0 0.00893928 0 0.0135991)
(0.00839575 -0.000753775 0 4.77966e-06 0 0.00763133)
(0.00711897 -0.000443669 0 1e-15 0 0.0052324)
(0.00629783 -0.000494704 0 1e-15 0 0.00462008)
(0.00668275 -0.00134769 0 0.00170093 0 0.0052813)
(0.00746481 -0.00219476 0 0.00768885 0 0.00672204)
(0.0082645 -0.00241732 0 0.00949164 0 0.00759579)
(0.00967211 -0.00293666 0 0.0100162 0 0.00832824)
(0.0117582 -0.00364966 0 0.0143909 0 0.00994232)
(0.0146984 -0.00398965 0 0.0236116 0 0.0133028)
(0.0170641 -0.00381224 0 0.0350266 0 0.0172057)
(0.0162988 -0.00218716 0 0.0354075 0 0.0174228)
(0.012392 -0.000391281 0 0.0175647 0 0.0133824)
(0.00397948 0.000536445 0 1e-15 0 0.00417094)
(0.0013647 0.00018228 0 0.00113054 0 0.00133967)
(0.00100685 0.000256426 0 0.00320325 0 0.000933167)
(0.000661322 0.000266497 0 0.00218564 0 0.000592466)
(0.000181027 6.87948e-05 0 0.000544717 0 0.000161841)
(3.27954e-05 1.03824e-05 0 8.59698e-05 0 2.96514e-05)
(5.39793e-06 1.36856e-06 0 1.26089e-05 0 4.94155e-06)
(8.52102e-07 1.73671e-07 0 1.81636e-06 0 7.88165e-07)
(1.32548e-07 2.22075e-08 0 2.61727e-07 0 1.23583e-07)
(2.0733e-08 2.93887e-09 0 3.81191e-08 0 1.94447e-08)
(3.35119e-09 4.13055e-10 0 5.70924e-09 0 3.15583e-09)
(5.93429e-10 6.41193e-11 0 9.16573e-10 0 5.60028e-10)
(1.36023e-10 1.20911e-11 0 1.7851e-10 0 1.28114e-10)
(5.46639e-11 3.54127e-12 0 5.68746e-11 0 5.10641e-11)
(3.87258e-11 1.96984e-12 0 3.47333e-11 0 3.58886e-11)
(3.52164e-11 1.64413e-12 0 3.01267e-11 0 3.24907e-11)
(3.44352e-11 1.57198e-12 0 2.90592e-11 0 3.16862e-11)
(3.43999e-11 1.56062e-12 0 2.88985e-11 0 3.16085e-11)
(3.47163e-11 1.56366e-12 0 2.90767e-11 0 3.18614e-11)
(3.55101e-11 1.57827e-12 0 2.96558e-11 0 3.25504e-11)
(3.66979e-11 1.60393e-12 0 3.05878e-11 0 3.36109e-11)
(3.81445e-11 1.63805e-12 0 3.17619e-11 0 3.49211e-11)
(3.9791e-11 1.67853e-12 0 3.31248e-11 0 3.64252e-11)
(4.16401e-11 1.72386e-12 0 3.46765e-11 0 3.81252e-11)
(4.37018e-11 1.77307e-12 0 3.64255e-11 0 4.00299e-11)
(4.59679e-11 1.82552e-12 0 3.83658e-11 0 4.21327e-11)
(4.8425e-11 1.88017e-12 0 4.04882e-11 0 4.4422e-11)
(5.1061e-11 1.93592e-12 0 4.27837e-11 0 4.68873e-11)
(5.38676e-11 1.99203e-12 0 4.52467e-11 0 4.95218e-11)
(5.6836e-11 2.04768e-12 0 4.78713e-11 0 5.23181e-11)
(5.99541e-11 2.1021e-12 0 5.06482e-11 0 5.52655e-11)
(6.32075e-11 2.15444e-12 0 5.35667e-11 0 5.83514e-11)
(6.6582e-11 2.20404e-12 0 5.66154e-11 0 6.1563e-11)
(7.00645e-11 2.25026e-12 0 5.97842e-11 0 6.48888e-11)
(7.36434e-11 2.29265e-12 0 6.30634e-11 0 6.83182e-11)
(7.73083e-11 2.33076e-12 0 6.64447e-11 0 7.18416e-11)
(8.10501e-11 2.36433e-12 0 6.9921e-11 0 7.54511e-11)
(8.48605e-11 2.39307e-12 0 7.34854e-11 0 7.91391e-11)
(8.87308e-11 2.4168e-12 0 7.71303e-11 0 8.28973e-11)
(9.2651e-11 2.4353e-12 0 8.08467e-11 0 8.67163e-11)
(9.66112e-11 2.4485e-12 0 8.46254e-11 0 9.05865e-11)
(1.00602e-10 2.4563e-12 0 8.84576e-11 0 9.44988e-11)
(1.04615e-10 2.4587e-12 0 9.23359e-11 0 9.84454e-11)
(1.08643e-10 2.45575e-12 0 9.62532e-11 0 1.02419e-10)
(1.1268e-10 2.4475e-12 0 1.00203e-10 0 1.06414e-10)
(1.16718e-10 2.43407e-12 0 1.04178e-10 0 1.10421e-10)
(1.20751e-10 2.41558e-12 0 1.08171e-10 0 1.14435e-10)
(1.24769e-10 2.39222e-12 0 1.12172e-10 0 1.18446e-10)
(1.28769e-10 2.36417e-12 0 1.16178e-10 0 1.2245e-10)
(1.32742e-10 2.33161e-12 0 1.20178e-10 0 1.26437e-10)
(1.36685e-10 2.29484e-12 0 1.2417e-10 0 1.30406e-10)
(1.4059e-10 2.25398e-12 0 1.28144e-10 0 1.34346e-10)
(1.44455e-10 2.20943e-12 0 1.32098e-10 0 1.38257e-10)
(1.48273e-10 2.16125e-12 0 1.36022e-10 0 1.42129e-10)
(1.52042e-10 2.10995e-12 0 1.39915e-10 0 1.45961e-10)
(1.55756e-10 2.05552e-12 0 1.43769e-10 0 1.49746e-10)
(1.59413e-10 1.99852e-12 0 1.47582e-10 0 1.53482e-10)
(1.63009e-10 1.93894e-12 0 1.51347e-10 0 1.57163e-10)
(1.66541e-10 1.87731e-12 0 1.55061e-10 0 1.60787e-10)
(1.70006e-10 1.81368e-12 0 1.58721e-10 0 1.64351e-10)
(1.73402e-10 1.74848e-12 0 1.62322e-10 0 1.6785e-10)
(1.76728e-10 1.68183e-12 0 1.65862e-10 0 1.71284e-10)
(1.79979e-10 1.61407e-12 0 1.69337e-10 0 1.74647e-10)
(1.83158e-10 1.5454e-12 0 1.72746e-10 0 1.77942e-10)
(1.86259e-10 1.47602e-12 0 1.76084e-10 0 1.81163e-10)
(1.89287e-10 1.40621e-12 0 1.79354e-10 0 1.84312e-10)
(1.92235e-10 1.33609e-12 0 1.82548e-10 0 1.87384e-10)
(1.95107e-10 1.26596e-12 0 1.85671e-10 0 1.90382e-10)
(1.97899e-10 1.19586e-12 0 1.88716e-10 0 1.93301e-10)
(2.00616e-10 1.12613e-12 0 1.91688e-10 0 1.96146e-10)
(2.03253e-10 1.05673e-12 0 1.9458e-10 0 1.98911e-10)
(2.05815e-10 9.88012e-13 0 1.97397e-10 0 2.01601e-10)
(2.08297e-10 9.19899e-13 0 2.00134e-10 0 2.04211e-10)
(2.10705e-10 8.52714e-13 0 2.02797e-10 0 2.06747e-10)
(2.13035e-10 7.8638e-13 0 2.0538e-10 0 2.09204e-10)
(2.15293e-10 7.21157e-13 0 2.07888e-10 0 2.11587e-10)
(2.17475e-10 6.57004e-13 0 2.10318e-10 0 2.13893e-10)
(2.19586e-10 5.94087e-13 0 2.12673e-10 0 2.16127e-10)
(2.21624e-10 5.32429e-13 0 2.14953e-10 0 2.18286e-10)
(2.23593e-10 4.72076e-13 0 2.17159e-10 0 2.20374e-10)
(2.25493e-10 4.1316e-13 0 2.19293e-10 0 2.22391e-10)
(2.27323e-10 3.55552e-13 0 2.21351e-10 0 2.24335e-10)
(2.29084e-10 2.99762e-13 0 2.23334e-10 0 2.26207e-10)
(2.30767e-10 2.44893e-13 0 2.25238e-10 0 2.28002e-10)
(2.32359e-10 1.93271e-13 0 2.27027e-10 0 2.29689e-10)
(2.33832e-10 1.42388e-13 0 2.28713e-10 0 2.31276e-10)
(2.35928e-10 8.70972e-14 0 2.31074e-10 0 2.33493e-10)
(0.0555265 -0.0116225 0 0.0637932 0 0.0576592)
(0.0515327 -0.0111679 0 0.118676 0 0.0548788)
(0.0491275 -0.00983852 0 0.154162 0 0.0562063)
(0.0423228 -0.00602359 0 0.155013 0 0.0479388)
(0.0304641 -0.00427791 0 0.128774 0 0.0308647)
(0.0164936 -0.000584415 0 0.0971688 0 0.0135118)
(0.014546 0.00476837 0 0.0743508 0 0.0105462)
(0.0168376 -0.000457007 0 0.0573871 0 0.0138053)
(0.0275272 -0.0041689 0 0.099245 0 0.0257049)
(0.0264857 -0.00509761 0 0.10157 0 0.0267392)
(0.0216614 -0.0061832 0 0.0832423 0 0.0225603)
(0.0222168 -0.00654242 0 0.0831314 0 0.0226266)
(0.0224401 -0.00626593 0 0.0793054 0 0.0220357)
(0.0212314 -0.0054594 0 0.0695355 0 0.0207369)
(0.0213317 -0.00541099 0 0.0595493 0 0.0219505)
(0.0235287 -0.00610848 0 0.0627998 0 0.0252232)
(0.0245098 -0.00545935 0 0.0702849 0 0.027794)
(0.0233049 -0.0038699 0 0.0681618 0 0.0272476)
(0.0198184 -0.00261814 0 0.0536739 0 0.0233729)
(0.0155254 -0.00206188 0 0.0344445 0 0.0177166)
(0.0151388 -0.00194329 0 0.0297979 0 0.01716)
(0.0161336 -0.00168128 0 0.031486 0 0.0186229)
(0.0167722 -0.000736774 0 0.0333701 0 0.0198069)
(0.0159765 0.000249368 0 0.0292068 0 0.0186642)
(0.0134992 0.00134791 0 0.0181829 0 0.0151297)
(0.0095429 0.00134067 0 0.00660743 0 0.00995575)
(0.00767115 0.000982299 0 0.00425356 0 0.00775997)
(0.00615097 0.000167836 0 0.00574202 0 0.00630058)
(0.00435383 -4.45739e-05 0 0.000917907 0 0.00394899)
(0.00575734 8.2244e-05 0 1e-15 0 0.00424316)
(0.00874811 -1.78424e-05 0 1e-15 0 0.00626321)
(0.0107695 -0.000118507 0 1e-15 0 0.00759544)
(0.0143427 -0.00112603 0 0.000685364 0 0.00968794)
(0.0178543 -0.00350317 0 0.00546853 0 0.0117231)
(0.0240337 -0.00793478 0 0.0234686 0 0.0169893)
(0.0300929 -0.00915191 0 0.0549796 0 0.0263482)
(0.0282473 -0.00411934 0 0.022991 0 0.0271039)
(0.020482 0.00208922 0 1e-15 0 0.0204556)
(0.00890931 0.000371543 0 0.00582505 0 0.00875858)
(0.00740154 -0.00181028 0 0.0304952 0 0.00695832)
(0.00832127 -0.00394867 0 0.0328665 0 0.00726396)
(0.00864246 -0.00313622 0 0.0148921 0 0.00727197)
(0.00869176 -0.00184754 0 0.00529717 0 0.00715019)
(0.00923361 -0.00167392 0 0.00536504 0 0.00749008)
(0.0106146 -0.00211547 0 0.00693522 0 0.00875739)
(0.013465 -0.00356239 0 0.0126491 0 0.0118779)
(0.0179295 -0.00570064 0 0.0255712 0 0.0176485)
(0.0217999 -0.00598509 0 0.0431407 0 0.0251256)
(0.0220565 -0.00417292 0 0.0497241 0 0.0279392)
(0.0204625 -0.00257493 0 0.0438694 0 0.0263406)
(0.0163744 -0.00188918 0 0.0266025 0 0.0197781)
(0.0117352 -0.00171714 0 0.00949301 0 0.011399)
(0.00941812 -0.00141684 0 0.00434048 0 0.00707227)
(0.00837968 -0.00120685 0 0.0041387 0 0.00619559)
(0.0087207 -0.00208566 0 0.0107801 0 0.007135)
(0.00977685 -0.00302812 0 0.0231965 0 0.00914291)
(0.0110141 -0.00347407 0 0.026526 0 0.010414)
(0.0128413 -0.00424174 0 0.0280267 0 0.0113136)
(0.0157992 -0.00537498 0 0.0367883 0 0.0134977)
(0.0201011 -0.00592365 0 0.0538875 0 0.0183833)
(0.0234861 -0.00601621 0 0.073963 0 0.0240104)
(0.0226207 -0.00395956 0 0.0747295 0 0.0245313)
(0.0172869 -0.00107501 0 0.0439357 0 0.0189563)
(0.00679088 0.00104188 0 0.000415891 0 0.00711978)
(0.00215694 0.000424376 0 0.000252929 0 0.00209912)
(0.00136746 0.00014136 0 0.00526662 0 0.00124123)
(0.000829788 7.44593e-05 0 0.0049512 0 0.000719562)
(0.000290767 3.96468e-05 0 0.00165885 0 0.000248109)
(6.06274e-05 9.67698e-06 0 0.000295521 0 5.19443e-05)
(1.16534e-05 1.88301e-06 0 4.85646e-05 0 1.0098e-05)
(2.12766e-06 3.37425e-07 0 7.70862e-06 0 1.86463e-06)
(3.78619e-07 5.90624e-08 0 1.20245e-06 0 3.35067e-07)
(6.74511e-08 1.04228e-08 0 1.87192e-07 0 6.01845e-08)
(1.24716e-08 1.9032e-09 0 2.97895e-08 0 1.12061e-08)
(2.57968e-09 3.73456e-10 0 5.08965e-09 0 2.3309e-09)
(7.23472e-10 8.69963e-11 0 1.06504e-09 0 6.54426e-10)
(3.52618e-10 3.03808e-11 0 3.6366e-10 0 3.16945e-10)
(2.72056e-10 1.8424e-11 0 2.28956e-10 0 2.42713e-10)
(2.52818e-10 1.56637e-11 0 1.99589e-10 0 2.24437e-10)
(2.48475e-10 1.49642e-11 0 1.92535e-10 0 2.19879e-10)
(2.48533e-10 1.48089e-11 0 1.91439e-10 0 2.19556e-10)
(2.51047e-10 1.47779e-11 0 1.92581e-10 0 2.21444e-10)
(2.56969e-10 1.4839e-11 0 1.96375e-10 0 2.2633e-10)
(2.65615e-10 1.49977e-11 0 2.02494e-10 0 2.3372e-10)
(2.76038e-10 1.52331e-11 0 2.10221e-10 0 2.42793e-10)
(2.87845e-10 1.5525e-11 0 2.19217e-10 0 2.5319e-10)
(3.01064e-10 1.58589e-11 0 2.29483e-10 0 2.6493e-10)
(3.15756e-10 1.62251e-11 0 2.41069e-10 0 2.78064e-10)
(3.31853e-10 1.66144e-11 0 2.53933e-10 0 2.92541e-10)
(3.49251e-10 1.70173e-11 0 2.68015e-10 0 3.08277e-10)
(3.67858e-10 1.74248e-11 0 2.83254e-10 0 3.25197e-10)
(3.87622e-10 1.78307e-11 0 2.99622e-10 0 3.43261e-10)
(4.08472e-10 1.82275e-11 0 3.17079e-10 0 3.62414e-10)
(4.30307e-10 1.86083e-11 0 3.35559e-10 0 3.82571e-10)
(4.53021e-10 1.89659e-11 0 3.54989e-10 0 4.03644e-10)
(4.76512e-10 1.92951e-11 0 3.75298e-10 0 4.25545e-10)
(5.00686e-10 1.95908e-11 0 3.96417e-10 0 4.48194e-10)
(5.25456e-10 1.98498e-11 0 4.18284e-10 0 4.71516e-10)
(5.50748e-10 2.00687e-11 0 4.40841e-10 0 4.95446e-10)
(5.76495e-10 2.0246e-11 0 4.64043e-10 0 5.19926e-10)
(6.02639e-10 2.03795e-11 0 4.87844e-10 0 5.44904e-10)
(6.29116e-10 2.04684e-11 0 5.12192e-10 0 5.70324e-10)
(6.55858e-10 2.05113e-11 0 5.37026e-10 0 5.9612e-10)
(6.82796e-10 2.05087e-11 0 5.62285e-10 0 6.22227e-10)
(7.09864e-10 2.04598e-11 0 5.8791e-10 0 6.48582e-10)
(7.37011e-10 2.0366e-11 0 6.1385e-10 0 6.75135e-10)
(7.64183e-10 2.02274e-11 0 6.40058e-10 0 7.01835e-10)
(7.91342e-10 2.00457e-11 0 6.66492e-10 0 7.28642e-10)
(8.18431e-10 1.98216e-11 0 6.93095e-10 0 7.55498e-10)
(8.45414e-10 1.95572e-11 0 7.19826e-10 0 7.82366e-10)
(8.72228e-10 1.92539e-11 0 7.46618e-10 0 8.0918e-10)
(8.98856e-10 1.89141e-11 0 7.73444e-10 0 8.35917e-10)
(9.25234e-10 1.85393e-11 0 8.00238e-10 0 8.62514e-10)
(9.51355e-10 1.81326e-11 0 8.26978e-10 0 8.88955e-10)
(9.77156e-10 1.7695e-11 0 8.53598e-10 0 9.15177e-10)
(1.00264e-09 1.72301e-11 0 8.80085e-10 0 9.41171e-10)
(1.02774e-09 1.6739e-11 0 9.06377e-10 0 9.66881e-10)
(1.05248e-09 1.62251e-11 0 9.3246e-10 0 9.92299e-10)
(1.07679e-09 1.56898e-11 0 9.58283e-10 0 1.01738e-09)
(1.10069e-09 1.51364e-11 0 9.83829e-10 0 1.04211e-09)
(1.12413e-09 1.45663e-11 0 1.00906e-09 0 1.06645e-09)
(1.1471e-09 1.39823e-11 0 1.03394e-09 0 1.09039e-09)
(1.1696e-09 1.33864e-11 0 1.05846e-09 0 1.11391e-09)
(1.19161e-09 1.27808e-11 0 1.08258e-09 0 1.13698e-09)
(1.21312e-09 1.21676e-11 0 1.1063e-09 0 1.1596e-09)
(1.23411e-09 1.15485e-11 0 1.12958e-09 0 1.18174e-09)
(1.2546e-09 1.09257e-11 0 1.15241e-09 0 1.20341e-09)
(1.27455e-09 1.03006e-11 0 1.17477e-09 0 1.22458e-09)
(1.294e-09 9.67537e-12 0 1.19667e-09 0 1.24525e-09)
(1.3129e-09 9.05094e-12 0 1.21806e-09 0 1.26541e-09)
(1.33129e-09 8.42949e-12 0 1.23897e-09 0 1.28506e-09)
(1.34914e-09 7.81153e-12 0 1.25936e-09 0 1.30419e-09)
(1.36648e-09 7.19934e-12 0 1.27926e-09 0 1.32281e-09)
(1.38329e-09 6.59283e-12 0 1.29862e-09 0 1.3409e-09)
(1.3996e-09 5.99447e-12 0 1.31748e-09 0 1.35849e-09)
(1.41538e-09 5.40362e-12 0 1.3358e-09 0 1.37554e-09)
(1.43067e-09 4.82281e-12 0 1.35362e-09 0 1.3921e-09)
(1.44544e-09 4.25115e-12 0 1.3709e-09 0 1.40813e-09)
(1.45974e-09 3.69086e-12 0 1.38768e-09 0 1.42368e-09)
(1.47355e-09 3.14119e-12 0 1.40394e-09 0 1.43871e-09)
(1.48689e-09 2.60367e-12 0 1.4197e-09 0 1.45326e-09)
(1.49976e-09 2.07811e-12 0 1.43495e-09 0 1.46733e-09)
(1.51217e-09 1.56492e-12 0 1.44971e-09 0 1.48092e-09)
(1.52415e-09 1.06504e-12 0 1.46398e-09 0 1.49404e-09)
(1.53566e-09 5.77194e-13 0 1.47774e-09 0 1.50668e-09)
(1.54674e-09 1.0612e-13 0 1.491e-09 0 1.51885e-09)
(1.55731e-09 -3.57004e-13 0 1.50373e-09 0 1.53051e-09)
(1.56733e-09 -7.89483e-13 0 1.51568e-09 0 1.54147e-09)
(1.57653e-09 -1.21268e-12 0 1.52698e-09 0 1.55179e-09)
(1.58972e-09 -1.68966e-12 0 1.54273e-09 0 1.56615e-09)
(0.0729001 -0.0212432 0 0.110691 0 0.0739522)
(0.0627547 -0.0136895 0 0.124394 0 0.0671504)
(0.057137 -0.0116278 0 0.154568 0 0.0661872)
(0.0479765 -0.00699434 0 0.159179 0 0.0550765)
(0.0342084 -0.00456873 0 0.125313 0 0.0344615)
(0.0166372 -0.000329322 0 0.0824646 0 0.0125685)
(0.0144267 0.00381009 0 0.0665642 0 0.00931771)
(0.0191103 -0.00243989 0 0.0737648 0 0.0147989)
(0.0312482 -0.00610292 0 0.137414 0 0.0287615)
(0.0295029 -0.00642885 0 0.137614 0 0.0296124)
(0.0234437 -0.00701404 0 0.0910851 0 0.024266)
(0.0244534 -0.00806472 0 0.095562 0 0.0247006)
(0.0253769 -0.00803759 0 0.0970464 0 0.0246268)
(0.0243521 -0.00678433 0 0.0836603 0 0.0235506)
(0.0247176 -0.00648356 0 0.0659545 0 0.0252976)
(0.0273744 -0.00737102 0 0.0690413 0 0.0293831)
(0.0283011 -0.00657955 0 0.0790373 0 0.0324332)
(0.026878 -0.00484942 0 0.0781317 0 0.0318813)
(0.0232605 -0.00362422 0 0.0619007 0 0.0278606)
(0.0188276 -0.00313585 0 0.0411319 0 0.0217348)
(0.0185532 -0.00296025 0 0.0376 0 0.0212459)
(0.0196764 -0.00257504 0 0.0417376 0 0.0229773)
(0.0202841 -0.0012711 0 0.045857 0 0.0242671)
(0.0194027 0.000114319 0 0.0408225 0 0.0229427)
(0.0167576 0.00160049 0 0.0256086 0 0.0189328)
(0.0124254 0.00173361 0 0.00870656 0 0.0129862)
(0.0103508 0.00146638 0 0.00107277 0 0.010446)
(0.00855982 0.000554031 0 0.00111374 0 0.00891307)
(0.00669567 -7.50337e-08 0 1e-15 0 0.00634466)
(0.00910348 -0.00018195 0 1e-15 0 0.00697074)
(0.0102183 -0.000304647 0 1e-15 0 0.00770396)
(0.0118485 -0.000417687 0 1e-15 0 0.00856291)
(0.0156028 -0.0017677 0 0.0019856 0 0.0105122)
(0.0201852 -0.00505327 0 0.0104973 0 0.0129435)
(0.0287149 -0.0114381 0 0.0397119 0 0.0197863)
(0.0360692 -0.0145841 0 0.0922475 0 0.0307166)
(0.0343078 -0.00847836 0 0.0693315 0 0.0324326)
(0.0268672 0.00127784 0 0.00755684 0 0.0267017)
(0.0119864 0.001761 0 1e-15 0 0.0118123)
(0.00826511 -0.00145522 0 0.0289663 0 0.00776473)
(0.00946945 -0.00561629 0 0.0481587 0 0.00812399)
(0.0101171 -0.00453263 0 0.0239403 0 0.00855889)
(0.0107033 -0.00281245 0 0.0080571 0 0.00885101)
(0.0115643 -0.00254888 0 0.00702659 0 0.00935301)
(0.0134815 -0.00319083 0 0.00891848 0 0.0109904)
(0.0171672 -0.00520948 0 0.0160217 0 0.0148746)
(0.0222405 -0.00807171 0 0.0331183 0 0.0216152)
(0.0261227 -0.00829734 0 0.0554373 0 0.0302246)
(0.0259326 -0.00565707 0 0.0633008 0 0.0333757)
(0.0241526 -0.00349215 0 0.0572505 0 0.0316813)
(0.0195333 -0.00272338 0 0.039346 0 0.0239491)
(0.0141738 -0.00281176 0 0.023576 0 0.0139896)
(0.0110175 -0.00243249 0 0.0184387 0 0.00825152)
(0.00985662 -0.00201579 0 0.0175442 0 0.00720101)
(0.0103445 -0.00325705 0 0.0246982 0 0.00844284)
(0.011402 -0.00447512 0 0.0380948 0 0.0105856)
(0.0129628 -0.0053199 0 0.0421329 0 0.0121141)
(0.0153176 -0.00655587 0 0.0448012 0 0.0132695)
(0.0188649 -0.00818309 0 0.0575073 0 0.0157432)
(0.0237339 -0.00887058 0 0.0804584 0 0.0213744)
(0.027201 -0.00888357 0 0.106513 0 0.0277159)
(0.0259132 -0.00626902 0 0.107747 0 0.0281974)
(0.0199458 -0.00232362 0 0.071616 0 0.0220339)
(0.00888807 0.00104594 0 0.00695416 0 0.00931063)
(0.00274918 0.00067603 0 1e-15 0 0.00265161)
(0.00154501 0.000228939 0 0.00606275 0 0.00138975)
(0.000840825 -0.000112695 0 0.00759243 0 0.0007074)
(0.000340521 -5.25822e-05 0 0.0028908 0 0.000277402)
(7.29837e-05 -7.4748e-06 0 0.00052207 0 5.88739e-05)
(1.46822e-05 -6.57719e-07 0 8.88233e-05 0 1.19217e-05)
(2.85377e-06 2.65492e-08 0 1.46753e-05 0 2.3446e-06)
(5.47788e-07 3.13834e-08 0 2.37827e-06 0 4.55653e-07)
(1.07036e-07 1.06204e-08 0 3.85476e-07 0 9.01278e-08)
(2.2276e-08 2.93225e-09 0 6.46528e-08 0 1.89932e-08)
(5.44938e-09 7.83581e-10 0 1.19567e-08 0 4.70387e-09)
(1.93489e-09 2.37586e-10 0 2.83027e-09 0 1.68181e-09)
(1.15241e-09 1.03506e-10 0 1.11211e-09 0 9.98952e-10)
(9.63983e-10 7.04095e-11 0 7.53219e-10 0 8.30746e-10)
(9.15018e-10 6.17526e-11 0 6.68742e-10 0 7.8487e-10)
(9.04087e-10 5.92327e-11 0 6.47445e-10 0 7.72977e-10)
(9.05406e-10 5.85631e-11 0 6.4431e-10 0 7.72796e-10)
(9.1556e-10 5.82557e-11 0 6.48374e-10 0 7.80171e-10)
(9.37694e-10 5.82649e-11 0 6.61312e-10 0 7.9782e-10)
(9.69069e-10 5.86389e-11 0 6.81853e-10 0 8.23797e-10)
(1.00644e-09 5.93045e-11 0 7.07679e-10 0 8.55378e-10)
(1.04857e-09 6.018e-11 0 7.37742e-10 0 8.91442e-10)
(1.09555e-09 6.12048e-11 0 7.72054e-10 0 9.32065e-10)
(1.14754e-09 6.2335e-11 0 8.1075e-10 0 9.77379e-10)
(1.20424e-09 6.35279e-11 0 8.53657e-10 0 1.02716e-09)
(1.26527e-09 6.47529e-11 0 9.00579e-10 0 1.08111e-09)
(1.33031e-09 6.59777e-11 0 9.51331e-10 0 1.13899e-09)
(1.39911e-09 6.71763e-11 0 1.00579e-09 0 1.2006e-09)
(1.47135e-09 6.83201e-11 0 1.06381e-09 0 1.26572e-09)
(1.54668e-09 6.9385e-11 0 1.12514e-09 0 1.33406e-09)
(1.62472e-09 7.03473e-11 0 1.18957e-09 0 1.40529e-09)
(1.70507e-09 7.11892e-11 0 1.25684e-09 0 1.47911e-09)
(1.7874e-09 7.18945e-11 0 1.32672e-09 0 1.55522e-09)
(1.87138e-09 7.24525e-11 0 1.39898e-09 0 1.63337e-09)
(1.95677e-09 7.28541e-11 0 1.47345e-09 0 1.71331e-09)
(2.04331e-09 7.30953e-11 0 1.54995e-09 0 1.79486e-09)
(2.1308e-09 7.31697e-11 0 1.62833e-09 0 1.87783e-09)
(2.21903e-09 7.30773e-11 0 1.70841e-09 0 1.96202e-09)
(2.30775e-09 7.28142e-11 0 1.79e-09 0 2.04722e-09)
(2.39675e-09 7.23851e-11 0 1.87288e-09 0 2.1332e-09)
(2.48579e-09 7.17891e-11 0 1.95685e-09 0 2.21975e-09)
(2.57472e-09 7.10338e-11 0 2.04175e-09 0 2.30672e-09)
(2.66337e-09 7.01204e-11 0 2.12742e-09 0 2.39393e-09)
(2.75162e-09 6.90572e-11 0 2.21373e-09 0 2.48126e-09)
(2.83928e-09 6.7848e-11 0 2.30046e-09 0 2.56851e-09)
(2.92625e-09 6.65022e-11 0 2.3875e-09 0 2.65558e-09)
(3.01236e-09 6.50253e-11 0 2.47464e-09 0 2.74226e-09)
(3.09755e-09 6.34277e-11 0 2.56179e-09 0 2.82848e-09)
(3.18162e-09 6.17155e-11 0 2.64872e-09 0 2.91404e-09)
(3.26457e-09 5.99001e-11 0 2.73537e-09 0 2.99889e-09)
(3.34621e-09 5.79873e-11 0 2.82152e-09 0 3.08284e-09)
(3.42656e-09 5.5989e-11 0 2.90714e-09 0 3.16588e-09)
(3.50545e-09 5.39108e-11 0 2.99202e-09 0 3.24782e-09)