/*--------------------------------*- C++ -*----------------------------------*\
| =========                 |                                                 |
| \\      /  F ield         | OpenFOAM: The Open Source CFD Toolbox           |
|  \\    /   O peration     | Version:  v1912                                 |
|   \\  /    A nd           | Website:  www.openfoam.com                      |
|    \\/     M anipulation  |                                                 |
\*---------------------------------------------------------------------------*/
FoamFile
{
    version     2.0;
    format      ascii;
    class       volVectorField;
    location    "50";
    object      U;
}
// * * * * * * * * * * * * * * * * * * * * * * * * * * * * * * * * * * * * * //

dimensions      [0 1 -1 0 0 0 0];


internalField   nonuniform List<vector> 
14268
(
(0.263869 -0.0552826 0)
(0.296256 -0.0891726 0)
(0.419841 -0.0999675 0)
(0.627794 -0.0702844 0)
(0.785208 -0.0280625 0)
(0.756628 -0.0103922 0)
(0.517271 -0.0173334 0)
(0.159885 -0.0666438 0)
(-0.0105893 -0.124375 0)
(-0.0478462 -0.118601 0)
(0.0886531 -0.0860343 0)
(0.196261 -0.0773132 0)
(0.275921 -0.0589057 0)
(0.29589 -0.0451009 0)
(0.334778 -0.0400336 0)
(0.440776 -0.0291023 0)
(0.558966 -0.0155172 0)
(0.677663 -0.00727208 0)
(0.797506 0.0150477 0)
(0.835927 0.0364671 0)
(0.851631 0.0433529 0)
(0.887877 0.0443964 0)
(0.958643 0.0496929 0)
(1.05434 0.0625015 0)
(1.09975 0.0831271 0)
(1.08912 0.0898337 0)
(1.06526 0.0895318 0)
(1.02444 0.0895624 0)
(0.883252 0.0846367 0)
(0.162895 0.0198175 0)
(-0.0080519 -0.000807546 0)
(0.0992483 0.00796382 0)
(0.195274 0.0182927 0)
(0.297674 0.0281886 0)
(0.452038 0.0377296 0)
(0.60728 0.0362076 0)
(0.717531 0.054168 0)
(0.788913 0.0629655 0)
(0.803227 0.0511197 0)
(0.751044 0.042909 0)
(0.633062 0.0442353 0)
(0.491236 0.0474342 0)
(0.46629 0.0453513 0)
(0.490297 0.0467167 0)
(0.52915 0.0461624 0)
(0.564507 0.0389888 0)
(0.600748 0.0233086 0)
(0.659838 0.0173737 0)
(0.770496 0.0221643 0)
(0.916251 0.0474163 0)
(0.913536 0.0780793 0)
(0.815403 0.0792068 0)
(0.641444 0.0621621 0)
(0.612001 0.0564782 0)
(0.628874 0.0536463 0)
(0.668686 0.0490425 0)
(0.722947 0.0530025 0)
(0.724059 0.0495375 0)
(0.711396 0.0367497 0)
(0.717798 0.0287235 0)
(0.738123 0.0193188 0)
(0.800293 0.0253206 0)
(0.88776 0.0623303 0)
(0.897081 0.082053 0)
(0.881466 0.0816868 0)
(0.842528 0.0790739 0)
(0.773959 0.0760536 0)
(0.703044 0.0705667 0)
(0.663535 0.0666645 0)
(0.643321 0.0645122 0)
(0.631508 0.0632611 0)
(0.623224 0.0624013 0)
(0.616635 0.061728 0)
(0.610859 0.0611445 0)
(0.605356 0.0605931 0)
(0.599792 0.0600389 0)
(0.593915 0.0594558 0)
(0.587498 0.0588205 0)
(0.580419 0.0581202 0)
(0.572613 0.0573476 0)
(0.56406 0.0565004 0)
(0.554775 0.0555797 0)
(0.544805 0.0545899 0)
(0.534222 0.0535379 0)
(0.523105 0.0524316 0)
(0.511532 0.051279 0)
(0.499578 0.0500873 0)
(0.487314 0.0488639 0)
(0.47482 0.0476168 0)
(0.462146 0.0463509 0)
(0.449358 0.0450731 0)
(0.436509 0.0437885 0)
(0.42365 0.0425024 0)
(0.410826 0.0412194 0)
(0.398078 0.0399435 0)
(0.385441 0.0386784 0)
(0.372945 0.037427 0)
(0.360614 0.036192 0)
(0.34847 0.0349754 0)
(0.336532 0.0337792 0)
(0.324815 0.0326051 0)
(0.313335 0.0314544 0)
(0.302101 0.0303282 0)
(0.29112 0.0292273 0)
(0.280398 0.0281523 0)
(0.269941 0.0271036 0)
(0.259751 0.0260817 0)
(0.249833 0.0250869 0)
(0.24019 0.0241196 0)
(0.230823 0.02318 0)
(0.221732 0.0222678 0)
(0.212915 0.0213832 0)
(0.204369 0.0205257 0)
(0.196092 0.0196951 0)
(0.18808 0.0188911 0)
(0.18033 0.0181132 0)
(0.172836 0.0173612 0)
(0.165596 0.0166344 0)
(0.158605 0.0159326 0)
(0.151857 0.0152553 0)
(0.145348 0.0146019 0)
(0.139073 0.0139719 0)
(0.133027 0.0133649 0)
(0.127204 0.0127802 0)
(0.121598 0.0122174 0)
(0.116205 0.0116758 0)
(0.111017 0.0111549 0)
(0.10603 0.0106541 0)
(0.101239 0.0101729 0)
(0.0966358 0.00971067 0)
(0.0922167 0.00926683 0)
(0.087975 0.00884085 0)
(0.0839059 0.00843212 0)
(0.0800031 0.00804014 0)
(0.0762617 0.00766432 0)
(0.072676 0.00730416 0)
(0.0692408 0.00695907 0)
(0.065951 0.0066286 0)
(0.0628012 0.00631218 0)
(0.0597868 0.00600935 0)
(0.0569025 0.00571958 0)
(0.054144 0.00544243 0)
(0.0515061 0.00517741 0)
(0.0489851 0.00492411 0)
(0.0465751 0.00468197 0)
(0.0442741 0.00445078 0)
(0.0420719 0.00422951 0)
(0.0399758 0.00401893 0)
(0.037949 0.00381536 0)
(0.0360492 0.00362391 0)
(0.302285 0.101041 0)
(0.281117 0.130489 0)
(0.383631 0.158263 0)
(0.57965 0.169728 0)
(0.721821 0.164271 0)
(0.690319 0.154302 0)
(0.462825 0.120796 0)
(0.152567 0.102226 0)
(-0.0296827 0.1167 0)
(-0.0871452 0.0950372 0)
(0.0635309 0.089591 0)
(0.178599 0.104672 0)
(0.258136 0.104254 0)
(0.280103 0.0962802 0)
(0.326051 0.0983856 0)
(0.438386 0.107031 0)
(0.553886 0.116052 0)
(0.663724 0.130622 0)
(0.7794 0.134575 0)
(0.823334 0.125077 0)
(0.845003 0.122314 0)
(0.881938 0.127043 0)
(0.949324 0.134277 0)
(1.03935 0.140897 0)
(1.08422 0.132216 0)
(1.08053 0.126667 0)
(1.06514 0.123483 0)
(1.03446 0.118571 0)
(0.905963 0.110646 0)
(0.321176 0.0467597 0)
(0.436015 0.044765 0)
(0.584506 0.0559396 0)
(0.661666 0.0635459 0)
(0.665416 0.0641847 0)
(0.677396 0.0715246 0)
(0.718775 0.089257 0)
(0.777107 0.0929466 0)
(0.794593 0.0928642 0)
(0.795254 0.108076 0)
(0.743865 0.107461 0)
(0.684173 0.0905054 0)
(0.682856 0.0736814 0)
(0.703364 0.0718017 0)
(0.717071 0.0733025 0)
(0.707764 0.0764307 0)
(0.680789 0.0835565 0)
(0.672535 0.100443 0)
(0.695856 0.111335 0)
(0.784381 0.123456 0)
(0.93371 0.131976 0)
(0.998019 0.11402 0)
(0.957849 0.10561 0)
(0.858442 0.0927398 0)
(0.773828 0.0825409 0)
(0.749111 0.083604 0)
(0.762909 0.0911642 0)
(0.817962 0.0990811 0)
(0.8514 0.107698 0)
(0.838657 0.117453 0)
(0.812014 0.121582 0)
(0.797698 0.12919 0)
(0.825664 0.130567 0)
(0.894748 0.111994 0)
(0.897018 0.0976337 0)
(0.869083 0.0939198 0)
(0.813032 0.0878787 0)
(0.742021 0.0779408 0)
(0.690026 0.0709787 0)
(0.659334 0.0668772 0)
(0.642051 0.0646964 0)
(0.631018 0.0634127 0)
(0.622915 0.0625218 0)
(0.61636 0.0618274 0)
(0.610586 0.061233 0)
(0.605078 0.0606789 0)
(0.599509 0.060128 0)
(0.593628 0.0595529 0)
(0.587206 0.058929 0)
(0.58012 0.0582418 0)
(0.572303 0.0574828 0)
(0.563735 0.0566487 0)
(0.554435 0.0557405 0)
(0.544453 0.0547621 0)
(0.533859 0.0537203 0)
(0.522733 0.0526228 0)
(0.511153 0.0514776 0)
(0.499191 0.0502919 0)
(0.486922 0.0490733 0)
(0.474424 0.04783 0)
(0.461747 0.0465666 0)
(0.448957 0.0452904 0)
(0.436107 0.0440066 0)
(0.423248 0.0427203 0)
(0.410426 0.0414364 0)
(0.39768 0.040159 0)
(0.385046 0.0388918 0)
(0.372554 0.0376379 0)
(0.360228 0.0364 0)
(0.348089 0.0351801 0)
(0.336156 0.0339803 0)
(0.324447 0.0328023 0)
(0.312973 0.0316476 0)
(0.301746 0.0305173 0)
(0.290773 0.0294121 0)
(0.280059 0.0283327 0)
(0.269609 0.0272796 0)
(0.259428 0.0262532 0)
(0.249518 0.0252539 0)
(0.239884 0.024282 0)
(0.230525 0.0233377 0)
(0.221443 0.0224209 0)
(0.212634 0.0215317 0)
(0.204097 0.0206697 0)
(0.195828 0.0198346 0)
(0.187825 0.0190262 0)
(0.180083 0.018244 0)
(0.172598 0.0174876 0)
(0.165366 0.0167567 0)
(0.158382 0.0160508 0)
(0.151642 0.0153693 0)
(0.145141 0.014712 0)
(0.138874 0.0140781 0)
(0.132835 0.0134672 0)
(0.127019 0.0128788 0)
(0.121421 0.0123124 0)
(0.116034 0.0117672 0)
(0.110853 0.0112429 0)
(0.105873 0.0107388 0)
(0.101088 0.0102543 0)
(0.0964908 0.0097889 0)
(0.0920777 0.00934196 0)
(0.0878418 0.00891302 0)
(0.0837783 0.00850138 0)
(0.079881 0.00810663 0)
(0.0761448 0.00772807 0)
(0.0725642 0.00736531 0)
(0.0691339 0.00701768 0)
(0.0658488 0.00668477 0)
(0.0627036 0.00636598 0)
(0.0596936 0.00606087 0)
(0.0568135 0.00576891 0)
(0.054059 0.00548963 0)
(0.051425 0.00522257 0)
(0.0489077 0.0049673 0)
(0.0465013 0.00472327 0)
(0.0442038 0.00449027 0)
(0.0420049 0.00426727 0)
(0.039912 0.00405509 0)
(0.0378882 0.00385007 0)
(0.0359915 0.00365601 0)
(0.267204 -0.0414503 0)
(0.310932 -0.0675537 0)
(0.423279 -0.0806281 0)
(0.618127 -0.0534522 0)
(0.770244 -0.0142745 0)
(0.738438 0.00522994 0)
(0.473815 0.000128928 0)
(0.12538 -0.0446127 0)
(-0.0345809 -0.106747 0)
(-0.059031 -0.10773 0)
(0.0893292 -0.0783515 0)
(0.197512 -0.0691297 0)
(0.277223 -0.0507859 0)
(0.298456 -0.0371744 0)
(0.340223 -0.0334411 0)
(0.446918 -0.0222504 0)
(0.562028 -0.0078186 0)
(0.67504 -0.000388361 0)
(0.789543 0.0202636 0)
(0.827625 0.0401794 0)
(0.843285 0.0468132 0)
(0.876812 0.0476429 0)
(0.94342 0.052461 0)
(1.03314 0.0644407 0)
(1.07077 0.0836807 0)
(1.06387 0.0904786 0)
(1.04755 0.0911046 0)
(1.02078 0.0958436 0)
(0.929087 0.106305 0)
(0.545751 0.0675314 0)
(0.760955 0.071036 0)
(0.818687 0.0756093 0)
(0.798836 0.0762533 0)
(0.704567 0.0663924 0)
(0.61653 0.0474741 0)
(0.642318 0.0379045 0)
(0.719026 0.0532334 0)
(0.803689 0.0657452 0)
(0.799502 0.0553838 0)
(0.743532 0.0495262 0)
(0.658296 0.051493 0)
(0.663708 0.0633221 0)
(0.692248 0.0663321 0)
(0.695594 0.0657319 0)
(0.66918 0.0597601 0)
(0.633922 0.0473734 0)
(0.639127 0.0300986 0)
(0.67859 0.0237395 0)
(0.781297 0.0275027 0)
(0.92496 0.0502011 0)
(0.977694 0.0852017 0)
(0.95846 0.0942089 0)
(0.898056 0.0919579 0)
(0.794572 0.0776031 0)
(0.725688 0.0634054 0)
(0.730674 0.0551971 0)
(0.76982 0.0573542 0)
(0.777742 0.0555602 0)
(0.76229 0.0444561 0)
(0.752562 0.036631 0)
(0.76355 0.0277067 0)
(0.813517 0.0316813 0)
(0.903814 0.0659875 0)
(0.909435 0.084896 0)
(0.879945 0.084594 0)
(0.817869 0.0803428 0)
(0.73871 0.0756789 0)
(0.685303 0.0703826 0)
(0.656992 0.066873 0)
(0.641146 0.0648333 0)
(0.630584 0.0635509 0)
(0.622592 0.0626368 0)
(0.616048 0.0619228 0)
(0.610263 0.0613172 0)
(0.604744 0.0607602 0)
(0.599166 0.0602127 0)
(0.593282 0.0596462 0)
(0.586861 0.0590351 0)
(0.579773 0.0583626 0)
(0.571948 0.0576188 0)
(0.56337 0.0567996 0)
(0.55406 0.0559057 0)
(0.544071 0.0549404 0)
(0.533474 0.0539107 0)
(0.522347 0.0528239 0)
(0.510767 0.0516876 0)
(0.498806 0.0505094 0)
(0.48654 0.0492969 0)
(0.474045 0.0480584 0)
(0.461372 0.0467984 0)
(0.448588 0.0455246 0)
(0.435744 0.0442421 0)
(0.422892 0.042956 0)
(0.410077 0.0416717 0)
(0.39734 0.040393 0)
(0.384714 0.0391238 0)
(0.372231 0.0378674 0)
(0.359914 0.0366265 0)
(0.347784 0.0354033 0)
(0.33586 0.0341998 0)
(0.32416 0.0330177 0)
(0.312695 0.0318588 0)
(0.301478 0.030724 0)
(0.290513 0.0296142 0)
(0.279808 0.0285301 0)
(0.269367 0.0274721 0)
(0.259195 0.0264408 0)
(0.249294 0.0254365 0)
(0.239668 0.0244596 0)
(0.230318 0.0235102 0)
(0.221243 0.0225884 0)
(0.212442 0.0216942 0)
(0.203912 0.0208272 0)
(0.195651 0.0199872 0)
(0.187655 0.0191739 0)
(0.17992 0.0183869 0)
(0.172441 0.0176259 0)
(0.165216 0.0168903 0)
(0.158238 0.0161798 0)
(0.151505 0.0154938 0)
(0.145009 0.0148321 0)
(0.138748 0.0141939 0)
(0.132714 0.0135789 0)
(0.126904 0.0129863 0)
(0.12131 0.0124159 0)
(0.115929 0.0118668 0)
(0.110753 0.0113387 0)
(0.105777 0.0108309 0)
(0.100996 0.0103428 0)
(0.0964033 0.00987393 0)
(0.0919941 0.00942361 0)
(0.0877621 0.00899139 0)
(0.0837022 0.00857658 0)
(0.0798084 0.00817875 0)
(0.0760756 0.00779722 0)
(0.0724982 0.00743158 0)
(0.0690711 0.00708118 0)
(0.0657889 0.00674558 0)
(0.0626465 0.00642421 0)
(0.0596392 0.0061166 0)
(0.0567617 0.00582224 0)
(0.0540097 0.00554064 0)
(0.051378 0.00527134 0)
(0.048863 0.00501392 0)
(0.0464588 0.00476784 0)
(0.0441634 0.00453285 0)
(0.0419664 0.00430797 0)
(0.0398754 0.00409404 0)
(0.0378534 0.00388742 0)
(0.0359585 0.00369063 0)
(0.211782 0.0753326 0)
(0.278272 0.112296 0)
(0.380042 0.131533 0)
(0.570241 0.140472 0)
(0.713382 0.148548 0)
(0.671769 0.145655 0)
(0.405845 0.115452 0)
(0.130861 0.0949414 0)
(-0.0260688 0.106946 0)
(-0.0750151 0.0822264 0)
(0.0740964 0.0711134 0)
(0.18498 0.0884789 0)
(0.263556 0.0931769 0)
(0.287358 0.0877794 0)
(0.334019 0.0861841 0)
(0.445521 0.090789 0)
(0.560231 0.0989129 0)
(0.666001 0.113319 0)
(0.774132 0.121411 0)
(0.817478 0.118538 0)
(0.840962 0.116435 0)
(0.881087 0.118435 0)
(0.951847 0.123285 0)
(1.0439 0.131453 0)
(1.08605 0.128225 0)
(1.07592 0.124549 0)
(1.05568 0.122599 0)
(1.02973 0.120721 0)
(0.961068 0.126062 0)
(0.780024 0.0973967 0)
(0.934697 0.0883698 0)
(0.934347 0.0900409 0)
(0.875926 0.0871165 0)
(0.730199 0.0754389 0)
(0.654811 0.0735634 0)
(0.676227 0.0803748 0)
(0.724397 0.0788737 0)
(0.820069 0.0938523 0)
(0.807682 0.10768 0)
(0.747134 0.105507 0)
(0.674854 0.0864452 0)
(0.673781 0.0718975 0)
(0.697444 0.0713593 0)
(0.705026 0.0737274 0)
(0.686618 0.0761318 0)
(0.654068 0.0813058 0)
(0.655561 0.0944227 0)
(0.6887 0.100068 0)
(0.783284 0.107829 0)
(0.929675 0.119686 0)
(0.989862 0.111302 0)
(0.965905 0.107007 0)
(0.899687 0.0967259 0)
(0.795393 0.0857822 0)
(0.741981 0.0835296 0)
(0.749901 0.0867733 0)
(0.797288 0.0936584 0)
(0.824515 0.103866 0)
(0.813948 0.113491 0)
(0.791596 0.116042 0)
(0.787001 0.121141 0)
(0.816582 0.118444 0)
(0.890268 0.104423 0)
(0.892792 0.0962062 0)
(0.864138 0.0940522 0)
(0.806915 0.0888614 0)
(0.733298 0.0788971 0)
(0.682367 0.0718151 0)
(0.655927 0.0674138 0)
(0.640706 0.0650958 0)
(0.630266 0.0637163 0)
(0.622285 0.0627573 0)
(0.615731 0.0620188 0)
(0.609935 0.0614013 0)
(0.604408 0.0608413 0)
(0.598827 0.0602974 0)
(0.592945 0.0597398 0)
(0.586529 0.0591414 0)
(0.579445 0.0584838 0)
(0.57162 0.0577552 0)
(0.563038 0.0569508 0)
(0.553725 0.056071 0)
(0.543736 0.0551188 0)
(0.533142 0.0541009 0)
(0.52202 0.0530245 0)
(0.510446 0.0518973 0)
(0.498491 0.0507267 0)
(0.486231 0.0495203 0)
(0.473743 0.0482868 0)
(0.461078 0.0470303 0)
(0.448302 0.0457592 0)
(0.435466 0.0444783 0)
(0.422623 0.0431928 0)
(0.409817 0.0419082 0)
(0.397088 0.0406284 0)
(0.384471 0.0393576 0)
(0.371996 0.038099 0)
(0.359688 0.0368553 0)
(0.347566 0.035629 0)
(0.335651 0.0344219 0)
(0.323959 0.0332361 0)
(0.312503 0.032073 0)
(0.301293 0.0309339 0)
(0.290336 0.0298196 0)
(0.279638 0.0287309 0)
(0.269204 0.0276682 0)
(0.259038 0.0266321 0)
(0.249144 0.0256228 0)
(0.239525 0.0246409 0)
(0.230181 0.0236865 0)
(0.221112 0.0227597 0)
(0.212316 0.0218604 0)
(0.203792 0.0209884 0)
(0.195537 0.0201435 0)
(0.187545 0.0193253 0)
(0.179815 0.0185335 0)
(0.172341 0.0177676 0)
(0.16512 0.0170273 0)
(0.158147 0.0163122 0)
(0.151418 0.0156217 0)
(0.144926 0.0149555 0)
(0.138669 0.014313 0)
(0.132639 0.0136936 0)
(0.126832 0.0130969 0)
(0.121242 0.0125224 0)
(0.115863 0.0119694 0)
(0.11069 0.0114373 0)
(0.105717 0.0109257 0)
(0.100939 0.010434 0)
(0.096349 0.00996153 0)
(0.0919424 0.00950774 0)
(0.0877128 0.00907215 0)
(0.0836552 0.00865408 0)
(0.0797636 0.00825309 0)
(0.076033 0.00786851 0)
(0.0724576 0.00749991 0)
(0.0690323 0.00714665 0)
(0.065752 0.00680829 0)
(0.0626114 0.00648426 0)
(0.0596057 0.00617407 0)
(0.0567298 0.00587723 0)
(0.0539793 0.00559324 0)
(0.0513491 0.00532165 0)
(0.0488355 0.00506201 0)
(0.0464326 0.00481379 0)
(0.0441385 0.00457677 0)
(0.0419427 0.00434994 0)
(0.0398528 0.0041342 0)
(0.0378318 0.00392593 0)
(0.0359381 0.00372635 0)
(0.169562 -0.0421555 0)
(0.248272 -0.0620269 0)
(0.401942 -0.0649423 0)
(0.613984 -0.0342422 0)
(0.767479 -0.00154022 0)
(0.724428 0.0302325 0)
(0.459328 0.0320331 0)
(0.147419 -0.0149929 0)
(-0.0294629 -0.087712 0)
(-0.0649218 -0.0991816 0)
(0.0795149 -0.0680202 0)
(0.201847 -0.0575274 0)
(0.282409 -0.0418652 0)
(0.2916 -0.0308035 0)
(0.325912 -0.0260197 0)
(0.434077 -0.0136276 0)
(0.551023 0.00159248 0)
(0.663941 0.008613 0)
(0.781422 0.0269634 0)
(0.827088 0.0438758 0)
(0.846641 0.0503996 0)
(0.882831 0.0520314 0)
(0.94927 0.0568273 0)
(1.03669 0.0684738 0)
(1.07163 0.0857 0)
(1.0603 0.0919808 0)
(1.04252 0.0914463 0)
(1.02857 0.098865 0)
(0.985117 0.118481 0)
(0.962451 0.109912 0)
(1.02383 0.0955881 0)
(1.00729 0.0961163 0)
(0.921916 0.0932305 0)
(0.733712 0.0745695 0)
(0.644647 0.0526784 0)
(0.670408 0.0453772 0)
(0.721794 0.0542951 0)
(0.81065 0.0610582 0)
(0.796791 0.0596766 0)
(0.744418 0.0596607 0)
(0.6757 0.0589427 0)
(0.670392 0.063952 0)
(0.689223 0.0655303 0)
(0.696164 0.0660981 0)
(0.677595 0.0623576 0)
(0.6498 0.0505898 0)
(0.657383 0.0351989 0)
(0.692147 0.0305832 0)
(0.788681 0.0339888 0)
(0.931881 0.0551309 0)
(0.994014 0.0876703 0)
(0.971021 0.100293 0)
(0.903887 0.0970414 0)
(0.789314 0.0811335 0)
(0.729795 0.0655301 0)
(0.740301 0.057878 0)
(0.783899 0.0602507 0)
(0.799254 0.0591258 0)
(0.786903 0.0502773 0)
(0.772101 0.042996 0)
(0.780139 0.0351645 0)
(0.822629 0.0399117 0)
(0.902896 0.0700911 0)
(0.901471 0.0858156 0)
(0.864629 0.0860149 0)
(0.804551 0.0835804 0)
(0.731506 0.0772153 0)
(0.680655 0.0712504 0)
(0.655374 0.0676029 0)
(0.640515 0.0653209 0)
(0.630032 0.0638862 0)
(0.622014 0.0628827 0)
(0.615444 0.0621184 0)
(0.609642 0.0614889 0)
(0.604114 0.0609265 0)
(0.598534 0.0603866 0)
(0.592658 0.059838 0)
(0.58625 0.0592527 0)
(0.579171 0.0586102 0)
(0.571347 0.0578974 0)
(0.562764 0.0571084 0)
(0.553451 0.0562433 0)
(0.543465 0.0553046 0)
(0.532877 0.0542991 0)
(0.521762 0.0532336 0)
(0.510194 0.0521158 0)
(0.498245 0.0509528 0)
(0.485992 0.0497527 0)
(0.473512 0.0485242 0)
(0.460854 0.0472714 0)
(0.448086 0.0460028 0)
(0.435258 0.0447234 0)
(0.422422 0.0434384 0)
(0.409624 0.0421534 0)
(0.396902 0.0408724 0)
(0.384293 0.0395997 0)
(0.371826 0.0383386 0)
(0.359524 0.037092 0)
(0.34741 0.0358623 0)
(0.335502 0.0346515 0)
(0.323816 0.0334615 0)
(0.312366 0.032294 0)
(0.301162 0.0311503 0)
(0.290211 0.0300313 0)
(0.279519 0.0289378 0)
(0.26909 0.0278701 0)
(0.258929 0.0268289 0)
(0.24904 0.0258145 0)
(0.239425 0.0248273 0)
(0.230086 0.0238676 0)
(0.221021 0.0229356 0)
(0.21223 0.022031 0)
(0.20371 0.0211539 0)
(0.195458 0.0203038 0)
(0.18747 0.0194805 0)
(0.179743 0.0186837 0)
(0.172273 0.0179129 0)
(0.165055 0.0171677 0)
(0.158085 0.0164478 0)
(0.151358 0.0157526 0)
(0.14487 0.0150818 0)
(0.138614 0.0144347 0)
(0.132587 0.013811 0)
(0.126782 0.0132099 0)
(0.121195 0.0126312 0)
(0.115818 0.0120741 0)
(0.110647 0.011538 0)
(0.105676 0.0110226 0)
(0.1009 0.010527 0)
(0.0963118 0.0100509 0)
(0.0919069 0.00959355 0)
(0.0876789 0.00915451 0)
(0.0836229 0.0087331 0)
(0.0797328 0.00832887 0)
(0.0760036 0.00794116 0)
(0.0724295 0.00756953 0)
(0.0690056 0.00721336 0)
(0.0657265 0.00687217 0)
(0.062587 0.00654541 0)
(0.0595825 0.0062326 0)
(0.0567077 0.00593323 0)
(0.0539582 0.00564679 0)
(0.051329 0.00537285 0)
(0.0488163 0.00511094 0)
(0.0464143 0.00486056 0)
(0.044121 0.00462146 0)
(0.041926 0.00439263 0)
(0.0398369 0.00417505 0)
(0.0378166 0.00396507 0)
(0.0359238 0.00376267 0)
(0.157941 0.0525054 0)
(0.221264 0.0842673 0)
(0.385503 0.0965949 0)
(0.583358 0.103014 0)
(0.712327 0.127784 0)
(0.685825 0.131438 0)
(0.441634 0.106744 0)
(0.139159 0.0841347 0)
(-0.0268363 0.0954345 0)
(-0.0847338 0.0653891 0)
(0.0514113 0.0475673 0)
(0.174541 0.0703949 0)
(0.246088 0.08168 0)
(0.271731 0.0786347 0)
(0.330292 0.072279 0)
(0.443176 0.0727211 0)
(0.559952 0.0804003 0)
(0.670648 0.0954105 0)
(0.780936 0.107807 0)
(0.820797 0.111622 0)
(0.839705 0.109688 0)
(0.876777 0.109092 0)
(0.946849 0.112452 0)
(1.03795 0.121833 0)
(1.07161 0.123481 0)
(1.05886 0.121777 0)
(1.02796 0.118356 0)
(1.01454 0.116213 0)
(1.00379 0.128485 0)
(1.02419 0.120979 0)
(1.06288 0.099864 0)
(1.03936 0.1023 0)
(0.946158 0.10016 0)
(0.748117 0.0828635 0)
(0.658805 0.073558 0)
(0.680772 0.0745572 0)
(0.730533 0.0757508 0)
(0.807937 0.0912486 0)
(0.790783 0.104745 0)
(0.729424 0.10365 0)
(0.665262 0.0891578 0)
(0.682756 0.0735918 0)
(0.703574 0.0705434 0)
(0.703521 0.0732308 0)
(0.686638 0.0757601 0)
(0.661401 0.0810435 0)
(0.657069 0.0894836 0)
(0.685896 0.089456 0)
(0.783041 0.0934144 0)
(0.928202 0.107362 0)
(0.994735 0.109378 0)
(0.973506 0.10813 0)
(0.906689 0.102073 0)
(0.795246 0.0898035 0)
(0.746791 0.0841532 0)
(0.755916 0.0830003 0)
(0.79879 0.0890605 0)
(0.818583 0.101369 0)
(0.806539 0.110331 0)
(0.785187 0.111856 0)
(0.785339 0.113391 0)
(0.817675 0.106716 0)
(0.892237 0.0976828 0)
(0.895301 0.0958653 0)
(0.857832 0.0947222 0)
(0.795742 0.090632 0)
(0.724499 0.0826066 0)
(0.679435 0.0731954 0)
(0.655322 0.0681958 0)
(0.640513 0.0656332 0)
(0.629862 0.0640757 0)
(0.621785 0.0630147 0)
(0.615201 0.0622227 0)
(0.609399 0.0615816 0)
(0.603875 0.0610172 0)
(0.5983 0.0604816 0)
(0.592431 0.0599422 0)
(0.586029 0.0593699 0)
(0.578953 0.0587425 0)
(0.57113 0.0580454 0)
(0.562547 0.0572719 0)
(0.553235 0.0564216 0)
(0.543253 0.0554964 0)
(0.532671 0.0545033 0)
(0.521561 0.0534485 0)
(0.509999 0.0523399 0)
(0.498057 0.0511846 0)
(0.485809 0.0499906 0)
(0.473336 0.0487671 0)
(0.460684 0.0475178 0)
(0.447922 0.0462516 0)
(0.435101 0.0449736 0)
(0.422271 0.0436888 0)
(0.409479 0.0424033 0)
(0.396764 0.0411209 0)
(0.384161 0.0398462 0)
(0.371699 0.0385825 0)
(0.359403 0.0373328 0)
(0.347294 0.0360995 0)
(0.335391 0.0348847 0)
(0.32371 0.0336905 0)
(0.312264 0.0325185 0)
(0.301065 0.0313701 0)
(0.290118 0.0302462 0)
(0.27943 0.0291477 0)
(0.269005 0.0280749 0)
(0.258849 0.0270284 0)
(0.248963 0.0260087 0)
(0.239351 0.0250162 0)
(0.230015 0.0240512 0)
(0.220954 0.0231137 0)
(0.212166 0.0222039 0)
(0.203648 0.0213214 0)
(0.195399 0.0204661 0)
(0.187414 0.0196376 0)
(0.17969 0.0188357 0)
(0.172222 0.0180598 0)
(0.165006 0.0173097 0)
(0.158038 0.0165849 0)
(0.151313 0.015885 0)
(0.144827 0.0152094 0)
(0.138573 0.0145578 0)
(0.132548 0.0139295 0)
(0.126745 0.0133242 0)
(0.121159 0.0127411 0)
(0.115784 0.0121798 0)
(0.110614 0.0116397 0)
(0.105645 0.0111203 0)
(0.10087 0.010621 0)
(0.0962831 0.0101411 0)
(0.0918795 0.00968019 0)
(0.0876527 0.00923765 0)
(0.0835979 0.00881286 0)
(0.0797089 0.00840535 0)
(0.0759807 0.00801449 0)
(0.0724077 0.00763979 0)
(0.0689846 0.00728066 0)
(0.0657065 0.00693661 0)
(0.0625679 0.00660711 0)
(0.0595642 0.00629163 0)
(0.0566902 0.0059897 0)
(0.0539415 0.0057008 0)
(0.051313 0.00542448 0)
(0.0488011 0.00516029 0)
(0.0463997 0.00490771 0)
(0.044107 0.00466651 0)
(0.0419127 0.00443568 0)
(0.0398241 0.00421623 0)
(0.0378044 0.00400453 0)
(0.0359122 0.00379929 0)
(0.150271 -0.0327958 0)
(0.239834 -0.0518642 0)
(0.405522 -0.0490006 0)
(0.595021 -0.0184382 0)
(0.729242 0.00787718 0)
(0.702809 0.0494547 0)
(0.438984 0.0556245 0)
(0.140809 0.0138567 0)
(-0.0144008 -0.0656631 0)
(-0.0777261 -0.0879955 0)
(0.101958 -0.0624332 0)
(0.192863 -0.0508166 0)
(0.281246 -0.0358591 0)
(0.308065 -0.024363 0)
(0.343181 -0.0206723 0)
(0.441426 -0.00933047 0)
(0.553559 0.00628612 0)
(0.662443 0.0138067 0)
(0.773599 0.0322421 0)
(0.822041 0.0481557 0)
(0.844579 0.0549223 0)
(0.882816 0.0568309 0)
(0.951671 0.061022 0)
(1.04091 0.0731144 0)
(1.07584 0.0890499 0)
(1.0641 0.0958989 0)
(1.03682 0.0947334 0)
(1.01404 0.101053 0)
(1.01545 0.120897 0)
(1.04877 0.115805 0)
(1.07194 0.0986122 0)
(1.04992 0.102275 0)
(0.956087 0.102346 0)
(0.753034 0.0826182 0)
(0.662159 0.0571701 0)
(0.686199 0.0492502 0)
(0.737102 0.0550625 0)
(0.810464 0.0627382 0)
(0.803312 0.0638408 0)
(0.74557 0.0620119 0)
(0.688294 0.0623083 0)
(0.709225 0.0676681 0)
(0.715236 0.0682553 0)
(0.707471 0.0677087 0)
(0.683647 0.0644419 0)
(0.647499 0.052366 0)
(0.648715 0.0384769 0)
(0.685576 0.0352632 0)
(0.787781 0.0381481 0)
(0.934757 0.059404 0)
(1.00276 0.0895131 0)
(0.979318 0.103877 0)
(0.909367 0.101858 0)
(0.79814 0.0862034 0)
(0.744938 0.0686065 0)
(0.752901 0.0611863 0)
(0.796327 0.0634528 0)
(0.816636 0.0623239 0)
(0.804266 0.0557229 0)
(0.786508 0.0481238 0)
(0.7913 0.0420704 0)
(0.826195 0.04661 0)
(0.898328 0.0726001 0)
(0.898734 0.0876289 0)
(0.858802 0.0887806 0)
(0.790683 0.0848312 0)
(0.727748 0.0805501 0)
(0.685334 0.0746471 0)
(0.657493 0.0689226 0)
(0.640803 0.065967 0)
(0.629741 0.0642643 0)
(0.621593 0.0631469 0)
(0.615003 0.0623305 0)
(0.609204 0.0616789 0)
(0.603687 0.0611129 0)
(0.598119 0.0605818 0)
(0.592255 0.0600515 0)
(0.585858 0.0594921 0)
(0.578784 0.0588797 0)
(0.570961 0.0581982 0)
(0.562377 0.0574401 0)
(0.553068 0.0566046 0)
(0.543089 0.0556928 0)
(0.532511 0.0547118 0)
(0.521406 0.0536677 0)
(0.509849 0.0525682 0)
(0.497911 0.0514204 0)
(0.485668 0.0502324 0)
(0.473199 0.0490137 0)
(0.460552 0.0477677 0)
(0.447795 0.0465039 0)
(0.434979 0.0452271 0)
(0.422154 0.0439424 0)
(0.409367 0.0426562 0)
(0.396656 0.0413724 0)
(0.384057 0.0400954 0)
(0.3716 0.038829 0)
(0.359308 0.037576 0)
(0.347203 0.0363391 0)
(0.335303 0.0351203 0)
(0.323626 0.0339216 0)
(0.312184 0.032745 0)
(0.300988 0.0315918 0)
(0.290045 0.030463 0)
(0.27936 0.0293593 0)
(0.268938 0.0282813 0)
(0.258784 0.0272295 0)
(0.248901 0.0262045 0)
(0.239292 0.0252065 0)
(0.229958 0.024236 0)
(0.220899 0.0232931 0)
(0.212113 0.0223778 0)
(0.203598 0.02149 0)
(0.195351 0.0206294 0)
(0.187368 0.0197957 0)
(0.179645 0.0189886 0)
(0.172179 0.0182077 0)
(0.164965 0.0174525 0)
(0.157999 0.0167228 0)
(0.151276 0.016018 0)
(0.144791 0.0153378 0)
(0.138539 0.0146815 0)
(0.132515 0.0140487 0)
(0.126713 0.0134389 0)
(0.121128 0.0128516 0)
(0.115755 0.0122861 0)
(0.110587 0.011742 0)
(0.105618 0.0112186 0)
(0.100844 0.0107154 0)
(0.0962586 0.0102318 0)
(0.091856 0.00976722 0)
(0.0876302 0.00932117 0)
(0.0835763 0.00889298 0)
(0.0796882 0.00848217 0)
(0.0759609 0.00808812 0)
(0.0723887 0.00771034 0)
(0.0689665 0.00734825 0)
(0.0656891 0.00700133 0)
(0.0625513 0.00666906 0)
(0.0595483 0.00635091 0)
(0.0566749 0.00604641 0)
(0.0539269 0.00575502 0)
(0.051299 0.00547632 0)
(0.0487876 0.00520982 0)
(0.0463869 0.00495504 0)
(0.0440947 0.00471173 0)
(0.0419009 0.00447888 0)
(0.0398128 0.00425756 0)
(0.0377935 0.00404413 0)
(0.0359018 0.00383604 0)
(0.154012 0.037281 0)
(0.25722 0.0666914 0)
(0.410292 0.0712834 0)
(0.581555 0.0765677 0)
(0.702078 0.111711 0)
(0.684293 0.121828 0)
(0.429243 0.103407 0)
(0.137061 0.0780742 0)
(-0.0474074 0.0799448 0)
(-0.092145 0.0540881 0)
(0.104501 0.0366651 0)
(0.191321 0.0519382 0)
(0.24829 0.06687 0)
(0.27074 0.0674289 0)
(0.316605 0.059514 0)
(0.430626 0.0583164 0)
(0.553603 0.0662876 0)
(0.662056 0.0800375 0)
(0.766469 0.0942365 0)
(0.811889 0.103439 0)
(0.837279 0.102791 0)
(0.878833 0.100905 0)
(0.949451 0.10293 0)
(1.03742 0.113141 0)
(1.06988 0.119626 0)
(1.05901 0.120082 0)
(1.0323 0.117443 0)
(1.01095 0.114719 0)
(1.01697 0.129011 0)
(1.05479 0.122395 0)
(1.07383 0.10146 0)
(1.05161 0.106033 0)
(0.960141 0.107223 0)
(0.759503 0.0898059 0)
(0.669126 0.0749596 0)
(0.691242 0.0708532 0)
(0.742022 0.0725499 0)
(0.80996 0.0883134 0)
(0.803146 0.103139 0)
(0.76304 0.105947 0)
(0.711337 0.086524 0)
(0.704612 0.0736138 0)
(0.711284 0.0717749 0)
(0.709388 0.0744041 0)
(0.686138 0.0763537 0)
(0.647999 0.0793339 0)
(0.651723 0.0835331 0)
(0.687041 0.0786117 0)
(0.7829 0.0785477 0)
(0.926195 0.094492 0)
(1.00068 0.107115 0)
(0.980716 0.1103 0)
(0.913969 0.106084 0)
(0.80063 0.0924012 0)
(0.739839 0.0847592 0)
(0.755271 0.0822589 0)
(0.807399 0.0883509 0)
(0.833617 0.101409 0)
(0.82005 0.109056 0)
(0.794679 0.110023 0)
(0.792678 0.106895 0)
(0.823211 0.0969887 0)
(0.893326 0.0919741 0)
(0.894961 0.0951722 0)
(0.858219 0.0945192 0)
(0.78971 0.0905612 0)
(0.728312 0.0822546 0)
(0.68669 0.0750786 0)
(0.658302 0.0694568 0)
(0.6407 0.0662292 0)
(0.629551 0.0644331 0)
(0.621418 0.0632783 0)
(0.61484 0.0624415 0)
(0.609051 0.0617801 0)
(0.603541 0.0612127 0)
(0.597979 0.060686 0)
(0.592121 0.0601648 0)
(0.585727 0.0596181 0)
(0.578654 0.0590206 0)
(0.570829 0.0583546 0)
(0.562244 0.0576119 0)
(0.552936 0.056791 0)
(0.54296 0.0558926 0)
(0.532385 0.0549236 0)
(0.521284 0.0538901 0)
(0.50973 0.0527995 0)
(0.497795 0.0516591 0)
(0.485556 0.050477 0)
(0.47309 0.049263 0)
(0.460447 0.0480202 0)
(0.447693 0.0467585 0)
(0.43488 0.0454828 0)
(0.422059 0.0441982 0)
(0.409275 0.0429112 0)
(0.396568 0.0416257 0)
(0.383972 0.0403464 0)
(0.371518 0.0390771 0)
(0.35923 0.0378209 0)
(0.347128 0.0365802 0)
(0.335231 0.0353572 0)
(0.323556 0.0341541 0)
(0.312117 0.0329727 0)
(0.300924 0.0318146 0)
(0.289982 0.0306808 0)
(0.2793 0.0295719 0)
(0.26888 0.0284886 0)
(0.258728 0.0274315 0)
(0.248848 0.026401 0)
(0.239241 0.0253976 0)
(0.229909 0.0244216 0)
(0.220851 0.0234732 0)
(0.212067 0.0225525 0)
(0.203554 0.0216592 0)
(0.195309 0.0207933 0)
(0.187327 0.0199543 0)
(0.179606 0.019142 0)
(0.172141 0.018356 0)
(0.164929 0.0175958 0)
(0.157964 0.0168611 0)
(0.151242 0.0161515 0)
(0.144759 0.0154665 0)
(0.138508 0.0148056 0)
(0.132485 0.0141683 0)
(0.126685 0.013554 0)
(0.121101 0.0129624 0)
(0.115728 0.0123927 0)
(0.110561 0.0118444 0)
(0.105594 0.0113171 0)
(0.100821 0.01081 0)
(0.0962362 0.0103227 0)
(0.0918345 0.00985445 0)
(0.0876096 0.00940488 0)
(0.0835565 0.00897327 0)
(0.0796692 0.00855917 0)
(0.0759426 0.00816192 0)
(0.0723712 0.00778105 0)
(0.0689497 0.00741598 0)
(0.065673 0.00706618 0)
(0.0625358 0.00673114 0)
(0.0595335 0.00641031 0)
(0.0566607 0.00610323 0)
(0.0539133 0.00580936 0)
(0.051286 0.00552827 0)
(0.0487751 0.00525946 0)
(0.0463749 0.00500247 0)
(0.0440832 0.00475705 0)
(0.0418898 0.00452218 0)
(0.0398022 0.00429898 0)
(0.0377833 0.00408382 0)
(0.0358921 0.00387287 0)
(0.154182 -0.0258081 0)
(0.286057 -0.0369481 0)
(0.420686 -0.0371155 0)
(0.587944 -0.0102564 0)
(0.722852 0.0153978 0)
(0.692188 0.0697723 0)
(0.439271 0.0820415 0)
(0.123185 0.0238378 0)
(-0.0462367 -0.0451605 0)
(-0.0371023 -0.0768311 0)
(0.10632 -0.0490997 0)
(0.22299 -0.0381289 0)
(0.276224 -0.026787 0)
(0.285303 -0.017915 0)
(0.333775 -0.0150931 0)
(0.447916 -0.00289406 0)
(0.565626 0.0124783 0)
(0.671392 0.020425 0)
(0.775378 0.0375073 0)
(0.820218 0.0518546 0)
(0.843639 0.0585069 0)
(0.884796 0.0602137 0)
(0.954382 0.0635524 0)
(1.04048 0.0757052 0)
(1.07295 0.0912273 0)
(1.06195 0.0988263 0)
(1.0353 0.0978163 0)
(1.01279 0.103057 0)
(1.01966 0.122146 0)
(1.05879 0.116871 0)
(1.07576 0.0992395 0)
(1.05353 0.105055 0)
(0.963611 0.109141 0)
(0.764748 0.0897292 0)
(0.675449 0.0606253 0)
(0.698009 0.0513733 0)
(0.747768 0.0549016 0)
(0.813402 0.0633315 0)
(0.802783 0.0698932 0)
(0.761361 0.0690806 0)
(0.708693 0.0704715 0)
(0.696979 0.0669245 0)
(0.707234 0.0672205 0)
(0.710087 0.0688055 0)
(0.684563 0.0668306 0)
(0.652241 0.0546376 0)
(0.656974 0.0424696 0)
(0.68947 0.0389471 0)
(0.783718 0.040076 0)
(0.925257 0.0599606 0)
(1.00224 0.0902386 0)
(0.982567 0.107034 0)
(0.914975 0.106357 0)
(0.789603 0.0904305 0)
(0.734411 0.0697675 0)
(0.753431 0.0608509 0)
(0.804707 0.0645494 0)
(0.833577 0.065694 0)
(0.818797 0.0614384 0)
(0.788491 0.0521084 0)
(0.787096 0.0477162 0)
(0.82027 0.0521095 0)
(0.891726 0.0750587 0)
(0.895492 0.0901877 0)
(0.860668 0.0921333 0)
(0.790356 0.0892261 0)
(0.726465 0.082293 0)
(0.68415 0.0747413 0)