/*--------------------------------*- C++ -*----------------------------------*\
| =========                 |                                                 |
| \\      /  F ield         | OpenFOAM: The Open Source CFD Toolbox           |
|  \\    /   O peration     | Version:  v1912                                 |
|   \\  /    A nd           | Website:  www.openfoam.com                      |
|    \\/     M anipulation  |                                                 |
\*---------------------------------------------------------------------------*/
FoamFile
{
    version     2.0;
    format      ascii;
    class       volScalarField;
    location    "90";
    object      nut;
}
// * * * * * * * * * * * * * * * * * * * * * * * * * * * * * * * * * * * * * //

dimensions      [0 2 -1 0 0 0 0];


internalField   nonuniform List<scalar> 
14268
(
8.83046e-10
8.69253e-10
8.47189e-10
8.15385e-10
7.75448e-10
7.3091e-10
6.78893e-10
6.44706e-10
6.38594e-10
6.412e-10
6.54078e-10
6.76119e-10
7.02066e-10
7.36928e-10
7.61234e-10
7.64646e-10
7.67239e-10
7.68498e-10
7.53234e-10
7.27151e-10
6.97403e-10
6.58679e-10
6.14792e-10
5.85867e-10
5.54076e-10
5.38714e-10
5.23426e-10
5.17352e-10
5.23119e-10
5.28925e-10
5.35895e-10
5.44769e-10
5.40524e-10
5.30682e-10
5.16259e-10
4.97681e-10
4.9573e-10
5.0616e-10
5.40611e-10
6.27292e-10
8.20758e-10
1.23382e-09
2.05031e-09
3.59277e-09
6.51464e-09
1.17364e-08
2.07453e-08
3.63247e-08
6.27514e-08
1.05856e-07
1.73631e-07
2.76178e-07
4.26035e-07
6.35162e-07
9.09438e-07
1.25108e-06
1.64933e-06
2.10694e-06
2.63731e-06
3.26004e-06
3.98557e-06
4.84412e-06
5.78232e-06
6.80651e-06
7.84791e-06
8.92967e-06
9.9089e-06
1.07552e-05
1.13698e-05
1.18675e-05
1.2339e-05
1.29184e-05
1.38885e-05
1.56471e-05
1.87204e-05
2.35686e-05
3.05394e-05
4.01406e-05
5.29623e-05
6.95503e-05
9.12529e-05
0.00012447
0.000154576
0.000154254
0.000151756
0.000161447
0.000208611
0.000341109
0.000476072
0.000527154
0.000517645
0.000451469
0.000310302
0.000159715
0.000114409
0.000132289
0.000137495
0.000103052
6.88221e-05
7.55661e-05
0.000120966
0.000212719
0.000377636
0.000446489
3.81763e-08
3.74551e-08
3.63446e-08
3.47737e-08
3.28097e-08
3.06406e-08
2.82036e-08
2.61338e-08
2.53625e-08
2.52915e-08
2.56478e-08
2.63374e-08
2.71543e-08
2.82496e-08
2.88961e-08
2.89205e-08
2.88472e-08
2.86144e-08
2.76563e-08
2.62136e-08
2.46123e-08
2.27281e-08
2.07559e-08
1.9267e-08
1.77431e-08
1.67756e-08
1.59212e-08
1.5278e-08
1.53371e-08
1.53631e-08
1.5434e-08
1.55791e-08
1.53751e-08
1.49064e-08
1.42402e-08
1.34689e-08
1.30518e-08
1.28844e-08
1.31958e-08
1.45023e-08
1.77333e-08
2.46443e-08
3.75315e-08
6.23908e-08
1.08615e-07
1.9133e-07
3.33067e-07
5.82107e-07
1.01711e-06
1.75494e-06
2.99131e-06
5.02227e-06
8.24211e-06
1.30815e-05
1.94693e-05
2.69175e-05
3.50622e-05
4.36496e-05
5.26635e-05
6.23242e-05
7.24646e-05
8.43532e-05
9.56815e-05
0.000106611
0.000115555
0.000123338
0.000126973
0.00012918
0.000130934
0.000130736
0.000129703
0.00012995
0.000134411
0.000146474
0.000171379
0.000214467
0.000279904
0.000375618
0.000509664
0.000693188
0.000938206
0.00127489
0.00164289
0.00149045
0.001324
0.00132634
0.00168081
0.00253156
0.00370145
0.00463049
0.00519602
0.00470198
0.00293227
0.00113411
0.000696077
0.00104775
0.00116146
0.00071027
0.000611221
0.000507316
0.000610286
0.00122366
0.00265951
0.00342151
1.63726e-07
1.62032e-07
1.5943e-07
1.55674e-07
1.50827e-07
1.45262e-07
1.38762e-07
1.32548e-07
1.30021e-07
1.29765e-07
1.30686e-07
1.32547e-07
1.34637e-07
1.37367e-07
1.38782e-07
1.38651e-07
1.38129e-07
1.37024e-07
1.33729e-07
1.28916e-07
1.23499e-07
1.17007e-07
1.10108e-07
1.04384e-07
9.83989e-08
9.43452e-08
9.06021e-08
8.73873e-08
8.7216e-08
8.68676e-08
8.67232e-08
8.68475e-08
8.56298e-08
8.33045e-08
8.03166e-08
7.68876e-08
7.46213e-08
7.37537e-08
7.54027e-08
8.18572e-08
9.72825e-08
1.29855e-07
1.90265e-07
3.06525e-07
5.24793e-07
9.10906e-07
1.56407e-06
2.71525e-06
4.69745e-06
7.97744e-06
1.33979e-05
2.1977e-05
3.45686e-05
5.16881e-05
7.33578e-05
9.81676e-05
0.000124088
0.000149199
0.000173915
0.000199296
0.000225525
0.000256505
0.000285606
0.00031118
0.000329495
0.000342985
0.000343616
0.000338176
0.000330473
0.000319706
0.000306142
0.000295698
0.000294704
0.000309019
0.000349323
0.0004276
0.00055834
0.000764536
0.00106337
0.00150088
0.00215628
0.00311185
0.00428729
0.0038798
0.00291165
0.00271266
0.00359245
0.00526379
0.00725241
0.00896623
0.0105936
0.0106327
0.00716689
0.002517
0.00175994
0.0028338
0.00291349
0.00157563
0.0015197
0.00130431
0.000597038
0.00132878
0.0046211
0.00653504
2.49079e-07
2.47974e-07
2.46311e-07
2.43922e-07
2.40828e-07
2.37202e-07
2.32763e-07
2.28541e-07
2.26814e-07
2.2655e-07
2.27207e-07
2.28522e-07
2.29901e-07
2.31729e-07
2.32605e-07
2.32283e-07
2.31666e-07
2.30663e-07
2.28013e-07
2.2419e-07
2.19805e-07
2.14298e-07
2.08216e-07
2.03089e-07
1.97461e-07
1.93227e-07
1.89055e-07
1.85156e-07
1.84406e-07
1.83395e-07
1.8259e-07
1.82086e-07
1.79981e-07
1.76647e-07
1.73393e-07
1.70043e-07
1.67767e-07
1.69526e-07
1.78289e-07
1.99846e-07
2.45625e-07
3.38562e-07
5.09774e-07
8.19946e-07
1.40437e-06
2.42142e-06
4.08436e-06
6.97867e-06
1.18001e-05
1.94342e-05
3.13567e-05
4.92161e-05
7.44166e-05
0.000107797
0.000148609
0.000193426
0.000238615
0.000281065
0.000322388
0.000364285
0.000407752
0.000459388
0.000508792
0.000550104
0.000577221
0.000594638
0.000591118
0.000575657
0.00055373
0.000526769
0.000496621
0.000471325
0.000459131
0.000466513
0.000506637
0.000595627
0.000761705
0.00104954
0.00148125
0.00210095
0.00305761
0.00466191
0.00683
0.00775002
0.00500445
0.00399043
0.00521171
0.00715199
0.00993223
0.0121534
0.0142245
0.015308
0.0112515
0.00431428
0.00305658
0.00464183
0.00567679
0.00289623
0.00264358
0.00274654
0.00223389
0.00336995
0.00687201
0.0085347
2.73806e-07
2.73191e-07
2.72279e-07
2.71022e-07
2.6945e-07
2.67627e-07
2.65346e-07
2.63259e-07
2.62643e-07
2.6253e-07
2.62787e-07
2.63386e-07
2.64006e-07
2.64923e-07
2.65076e-07
2.64725e-07
2.64299e-07
2.63693e-07
2.62327e-07
2.60322e-07
2.58006e-07
2.55004e-07
2.51662e-07
2.48981e-07
2.45804e-07
2.43328e-07
2.40567e-07
2.3805e-07
2.37081e-07
2.35827e-07
2.34639e-07
2.33581e-07
2.31286e-07
2.28758e-07
2.26691e-07
2.25208e-07
2.26504e-07
2.34731e-07
2.55078e-07
2.98204e-07
3.81419e-07
5.50189e-07
8.61692e-07
1.3958e-06
2.40461e-06
4.15131e-06
6.89102e-06
1.16686e-05
1.9526e-05
3.17044e-05
5.04346e-05
7.77272e-05
0.000115383
0.000164982
0.000225102
0.000290106
0.000353541
0.000411843
0.000469672
0.000529227
0.000590987
0.000663383
0.000734106
0.000793601
0.000832271
0.000856546
0.000849969
0.000825837
0.000791516
0.00074883
0.000700604
0.000658771
0.000633872
0.000632218
0.000665677
0.000753667
0.000939384
0.00128495
0.00181981
0.00259322
0.00379176
0.0057183
0.00840803
0.0110179
0.007917
0.00534885
0.00634989
0.00908882
0.0127272
0.015468
0.0179472
0.0199547
0.0154315
0.00646969
0.00371676
0.004767
0.00704166
0.00466801
0.00441299
0.00767373
0.00889321
0.0108854
0.0077397
0.00807136
2.79407e-07
2.78958e-07
2.78292e-07
2.77409e-07
2.76358e-07
2.75223e-07
2.73867e-07
2.72762e-07
2.72498e-07
2.72473e-07
2.72651e-07
2.72996e-07
2.73281e-07
2.73765e-07
2.73584e-07
2.73272e-07
2.72971e-07
2.72582e-07
2.71792e-07
2.70633e-07
2.69228e-07
2.67521e-07
2.65495e-07
2.63995e-07
2.62021e-07
2.60588e-07
2.58826e-07
2.57287e-07
2.56481e-07
2.55118e-07
2.53703e-07
2.52293e-07
2.50125e-07
2.48322e-07
2.46836e-07
2.4769e-07
2.53046e-07
2.68028e-07
3.00477e-07
3.65904e-07
4.84963e-07
7.26076e-07
1.16882e-06
1.91609e-06
3.32972e-06
5.78927e-06
9.57043e-06
1.61738e-05
2.70697e-05
4.38918e-05
6.95159e-05
0.000106248
0.000156329
0.000222265
0.000301697
0.00038585
0.000464954
0.00053583
0.000608534
0.000685502
0.000765689
0.000858111
0.000950152
0.00102915
0.0010818
0.00111571
0.00110831
0.00107862
0.00103408
0.000977066
0.000912654
0.000854981
0.000817553
0.00080803
0.000839686
0.000928089
0.00112885
0.00151321
0.0021063
0.00296075
0.00429612
0.00639328
0.00904802
0.0119527
0.0109041
0.00664209
0.00713763
0.0106662
0.0159317
0.0185709
0.0213958
0.024042
0.0208854
0.00921625
0.00407872
0.00418273
0.00603618
0.00613896
0.0104595
0.0197092
0.0154356
0.0106444
0.00675634
0.00655951
2.79739e-07
2.79356e-07
2.7878e-07
2.78016e-07
2.77102e-07
2.76192e-07
2.75204e-07
2.74476e-07
2.74323e-07
2.74298e-07
2.74407e-07
2.74605e-07
2.74728e-07
2.75011e-07
2.74752e-07
2.74438e-07
2.74199e-07
2.73947e-07
2.73338e-07
2.72403e-07
2.71395e-07
2.70245e-07
2.68829e-07
2.6785e-07
2.66539e-07
2.65637e-07
2.64444e-07
2.63171e-07
2.62298e-07
2.60844e-07
2.59265e-07
2.57684e-07
2.55729e-07
2.54263e-07
2.53581e-07
2.56444e-07
2.6556e-07
2.8729e-07
3.3215e-07
4.2149e-07
5.79971e-07
9.01087e-07
1.48738e-06
2.46714e-06
4.31455e-06
7.55357e-06
1.24529e-05
2.09345e-05
3.49523e-05
5.65342e-05
8.90348e-05
0.000135099
0.000197593
0.00027993
0.00037919
0.000482527
0.000574781
0.000655284
0.000741053
0.000835274
0.000933806
0.00104477
0.00115643
0.00125572
0.00132611
0.00137256
0.00136403
0.00133095
0.00128077
0.00121358
0.00113427
0.00106082
0.00101238
0.00100232
0.00104994
0.00117439
0.00141247
0.00182464
0.00243117
0.00330321
0.00469868
0.0068725
0.0093742
0.0119873
0.0129611
0.00740011
0.00777263
0.0137856
0.0249008
0.0257873
0.0261048
0.0280334
0.0297526
0.0150632
0.00509675
0.00465803
0.00549557
0.00820368
0.0222084
0.0320017
0.0164881
0.00930554
0.00602484
0.00541766
2.80016e-07
2.79628e-07
2.79057e-07
2.78305e-07
2.7739e-07
2.76483e-07
2.75519e-07
2.7483e-07
2.74681e-07
2.74671e-07
2.74786e-07
2.74974e-07
2.75068e-07
2.75332e-07
2.75047e-07
2.74732e-07
2.74501e-07
2.74287e-07
2.73691e-07
2.7277e-07
2.71849e-07
2.70773e-07
2.69414e-07
2.68487e-07
2.67306e-07
2.666e-07
2.65628e-07
2.64348e-07
2.63431e-07
2.61913e-07
2.60345e-07
2.58905e-07
2.57208e-07
2.5595e-07
2.56044e-07
2.60562e-07
2.73137e-07
3.01753e-07
3.58842e-07
4.72529e-07
6.71098e-07
1.07214e-06
1.79767e-06
2.99839e-06
5.27324e-06
9.28139e-06
1.53252e-05
2.56736e-05
4.29796e-05
6.97341e-05
0.000109681
0.000165847
0.00024162
0.000340648
0.000459278
0.000580206
0.00068027
0.000766971
0.000863989
0.000974499
0.00109127
0.00121929
0.00134981
0.00147011
0.00156253
0.00162456
0.00161445
0.0015787
0.00152452
0.00144988
0.00135969
0.00127313
0.00121475
0.00120421
0.00127176
0.00143584
0.00171859
0.00217343
0.00277724
0.003604
0.00498315
0.00713537
0.00939439
0.0115772
0.0134842
0.00782212
0.00836325
0.020145
0.0402585
0.0399626
0.0324621
0.0315739
0.035045
0.0290078
0.0104496
0.0059037
0.00666019
0.0133435
0.0247387
0.0351478
0.0178533
0.00882604
0.00881608
0.00787909
2.79625e-07
2.7925e-07
2.78692e-07
2.77941e-07
2.77035e-07
2.76188e-07
2.75282e-07
2.74653e-07
2.74506e-07
2.74499e-07
2.74606e-07
2.74761e-07
2.74857e-07
2.75119e-07
2.7477e-07
2.74462e-07
2.74238e-07
2.74018e-07
2.73434e-07
2.72573e-07
2.71716e-07
2.70698e-07
2.69396e-07
2.68574e-07
2.67541e-07
2.66896e-07
2.6598e-07
2.64741e-07
2.63818e-07
2.6229e-07
2.60747e-07
2.59313e-07
2.57789e-07
2.56903e-07
2.58071e-07
2.64756e-07
2.81729e-07
3.19004e-07
3.90809e-07
5.33315e-07
7.79374e-07
1.27419e-06
2.16186e-06
3.62176e-06
6.39088e-06
1.12854e-05
1.87187e-05
3.11792e-05
5.21359e-05
8.46475e-05
0.000132373
0.00019881
0.000288208
0.000403932
0.000541706
0.000678898
0.000784192
0.000875002
0.000981413
0.00110678
0.00124096
0.00138419
0.00153117
0.00167208
0.00179092
0.00186849
0.00185728
0.00182027
0.00176477
0.00168611
0.00158766
0.00149017
0.00142378
0.00141647
0.00150505
0.00170706
0.00204154
0.00255009
0.00315412
0.00393179
0.00526447
0.00732424
0.00932216
0.0109986
0.0127364
0.0079769
0.00991711
0.0296142
0.047668
0.0494056
0.0403731
0.0355773
0.0371605
0.0375349
0.0226977
0.0116171
0.0130383
0.0168174
0.0216748
0.0328858
0.0228567
0.0134446
0.0162852
0.0153537
2.79542e-07
2.79139e-07
2.78567e-07
2.77845e-07
2.76953e-07
2.76023e-07
2.75042e-07
2.74415e-07
2.74247e-07
2.74208e-07
2.74289e-07
2.74436e-07
2.74553e-07
2.74861e-07
2.74558e-07
2.74255e-07
2.73954e-07
2.73695e-07
2.73067e-07
2.7221e-07
2.7138e-07
2.70366e-07
2.69065e-07
2.68253e-07
2.67272e-07
2.66637e-07
2.65721e-07
2.64494e-07
2.63569e-07
2.62035e-07
2.60499e-07
2.59061e-07
2.57669e-07
2.57201e-07
2.59658e-07
2.68516e-07
2.899e-07
3.36628e-07
4.24733e-07
5.98928e-07
8.98291e-07
1.49671e-06
2.5653e-06
4.31584e-06
7.63457e-06
1.34576e-05
2.24565e-05
3.71809e-05
6.20064e-05
0.000100949
0.000157439
0.000235166
0.000338885
0.000470913
0.000626779
0.000778427
0.000887451
0.000980975
0.00109487
0.00123367
0.00138464
0.00154206
0.00170296
0.00186288
0.00200941
0.00210246
0.00209089
0.00205337
0.00199766
0.00191654
0.00181393
0.00171045
0.00164131
0.00164463
0.00176961
0.00203419
0.00244314
0.00301848
0.00364183
0.00436208
0.00562456
0.00752413
0.00945925
0.0105521
0.0114886
0.00913032
0.014329
0.0348607
0.0489456
0.0518682
0.0473892
0.0395992
0.0382502
0.0389427
0.0302031
0.0172279
0.0163817
0.0147817
0.0181627
0.0290096
0.0277886
0.0224854
0.0210068
0.0197144
2.79504e-07
2.79155e-07
2.78605e-07
2.77858e-07
2.76956e-07
2.76022e-07
2.74981e-07
2.74271e-07
2.74154e-07
2.74148e-07
2.74245e-07
2.74402e-07
2.74462e-07
2.74639e-07
2.74272e-07
2.7397e-07
2.73784e-07
2.73609e-07
2.73042e-07
2.72182e-07
2.71319e-07
2.70279e-07
2.68923e-07
2.68061e-07
2.67025e-07
2.66387e-07
2.65471e-07
2.64272e-07
2.63403e-07
2.61941e-07
2.60537e-07
2.59323e-07
2.58412e-07
2.58672e-07
2.62484e-07
2.74012e-07
3.0086e-07
3.58832e-07
4.66201e-07
6.7506e-07
1.03421e-06
1.74725e-06
3.01543e-06
5.10667e-06
9.08679e-06
1.59979e-05
2.68827e-05
4.44289e-05
7.37958e-05
0.000120124
0.000186331
0.000275693
0.000393643
0.000541708
0.000713688
0.000878267
0.000990172
0.00108558
0.00120577
0.0013568
0.00152351
0.00169457
0.00186737
0.00204514
0.00221958
0.00232757
0.00231472
0.0022759
0.00222235
0.00214264
0.00203842
0.00193299
0.00186768
0.0018941
0.00207724
0.00243005
0.00294252
0.0036136
0.00436474
0.0051416
0.00619567
0.00787332
0.0103236
0.0107961
0.0104864
0.0110634
0.0192799
0.0379306
0.0490618
0.0532177
0.053414
0.0450787
0.0390778
0.0369898
0.027416
0.0181844
0.0143282
0.012534
0.014209
0.024424
0.0274877
0.0230615
0.0194068
0.0195318
2.79439e-07
2.79045e-07
2.78352e-07
2.77509e-07
2.76562e-07
2.75759e-07
2.74929e-07
2.74191e-07
2.73953e-07
2.73954e-07
2.74026e-07
2.74038e-07
2.74046e-07
2.74234e-07
2.7395e-07
2.73663e-07
2.73496e-07
2.73359e-07
2.72842e-07
2.72044e-07
2.71188e-07
2.70177e-07
2.68877e-07
2.67984e-07
2.66928e-07
2.66321e-07
2.65344e-07
2.64159e-07
2.63322e-07
2.62001e-07
2.60832e-07
2.60068e-07
2.59715e-07
2.60981e-07
2.6675e-07
2.81911e-07
3.1534e-07
3.86543e-07
5.1711e-07
7.65318e-07
1.1959e-06
2.043e-06
3.54844e-06
6.06883e-06
1.08735e-05
1.90193e-05
3.20799e-05
5.30037e-05
8.75102e-05
0.000142143
0.000218916
0.000320409
0.000453476
0.000616538
0.000801795
0.000977291
0.00109228
0.00118938
0.00131474
0.001477
0.00165872
0.00184343
0.00202699
0.00221984
0.00241912
0.00254141
0.00252855
0.00248806
0.00243555
0.00235888
0.00225788
0.00215597
0.00210225
0.00216524
0.0024321
0.00290147
0.00352382
0.00428062
0.00529626
0.00618687
0.00688403
0.00839301
0.0119913
0.0119093
0.00998077
0.0112246
0.0206509
0.0382576
0.0485645
0.0535936
0.0578216
0.051721
0.0409476
0.0351376
0.0254099
0.0190343
0.0122445
0.00989206
0.0104566
0.0199769
0.0244504
0.0196442
0.01522
0.0156976
2.79793e-07
2.7908e-07
2.78281e-07
2.774e-07
2.76386e-07
2.75465e-07
2.74562e-07
2.73841e-07
2.73573e-07
2.73542e-07
2.73595e-07
2.73689e-07
2.73766e-07
2.74075e-07
2.73972e-07
2.73756e-07
2.73614e-07
2.73497e-07
2.7294e-07
2.72191e-07
2.71365e-07
2.70292e-07
2.68865e-07
2.68053e-07
2.67049e-07
2.66465e-07
2.65574e-07
2.64713e-07
2.64057e-07
2.63383e-07
2.63158e-07
2.63768e-07
2.64935e-07
2.68168e-07
2.77018e-07
2.97051e-07
3.38381e-07
4.25616e-07
5.85012e-07
8.77811e-07
1.39399e-06
2.40625e-06
4.19041e-06
7.23616e-06
1.30379e-05
2.26075e-05
3.81897e-05
6.31928e-05
0.000103656
0.000167349
0.000255481
0.00037062
0.000519077
0.000695421
0.000891202
0.0010755
0.00119329
0.00129207
0.00142241
0.00159518
0.00179111
0.00198908
0.00218239
0.00238829
0.00260911
0.0027429
0.00273189
0.00268923
0.00263751
0.00256521
0.00247103
0.00237736
0.00234218
0.0024526
0.0028234
0.00345829
0.00419012
0.00495426
0.00599423
0.00702318
0.00759741
0.00890611
0.0127191
0.0130644
0.00972048
0.0108097
0.0204482
0.037829
0.0479326
0.0536914
0.0599909
0.0578667
0.0447075
0.0350127
0.024729
0.0217635
0.0138735
0.0079342
0.00815928
0.0164791
0.0213622
0.0163277
0.0120694
0.0125254
2.80204e-07
2.79565e-07
2.78774e-07
2.77848e-07
2.76784e-07
2.75661e-07
2.74471e-07
2.7361e-07
2.73322e-07
2.73258e-07
2.73325e-07
2.73513e-07
2.73861e-07
2.74508e-07
2.75211e-07
2.75388e-07
2.75643e-07
2.75888e-07
2.75417e-07
2.74651e-07
2.73671e-07
2.72278e-07
2.70435e-07
2.69563e-07
2.6862e-07
2.68132e-07
2.67514e-07
2.66959e-07
2.67235e-07
2.6805e-07
2.70161e-07
2.74129e-07
2.79157e-07
2.86818e-07
3.01347e-07
3.29748e-07
3.83647e-07
4.93809e-07
6.93262e-07
1.0465e-06
1.67363e-06
2.90289e-06
5.03826e-06
8.75879e-06
1.58002e-05
2.7143e-05
4.57276e-05
7.54856e-05
0.000122537
0.000196021
0.0002965
0.000425958
0.000589392
0.000777728
0.000981591
0.00117196
0.00129306
0.00139366
0.00152928
0.00171194
0.00192131
0.00213266
0.00233454
0.00254977
0.00278661
0.00293175
0.00292438
0.00288003
0.00282858
0.00275969
0.00267392
0.00259364
0.00258298
0.00274589
0.00324489
0.00408639
0.0049078
0.00560837
0.0063768
0.0074509
0.00826141
0.0093378
0.0121985
0.0136941
0.00968635
0.0102603
0.0197394
0.0370345
0.0469757
0.0532754
0.0603667
0.0618098
0.0495159
0.0371145
0.0298314
0.0295178
0.0236193
0.0093345
0.00931413
0.0147435
0.0181342
0.0139442
0.0101512
0.0105654
2.8134e-07
2.80735e-07
2.79858e-07
2.7874e-07
2.77477e-07
2.76117e-07
2.74544e-07
2.73391e-07
2.73085e-07
2.73088e-07
2.73268e-07
2.73693e-07
2.74443e-07
2.75707e-07
2.77704e-07
2.79395e-07
2.80905e-07
2.81844e-07
2.81182e-07
2.80073e-07
2.78668e-07
2.76429e-07
2.73731e-07
2.72572e-07
2.72068e-07
2.71924e-07
2.71871e-07
2.72538e-07
2.75589e-07
2.80894e-07
2.9033e-07
3.04454e-07
3.20298e-07
3.38369e-07
3.6657e-07
4.16172e-07
4.99453e-07
6.57717e-07
9.37964e-07
1.40757e-06
2.24493e-06
3.89183e-06
6.66579e-06
1.16352e-05
2.09142e-05
3.53794e-05
5.89969e-05
9.69829e-05
0.000155576
0.000245254
0.000364783
0.000515294
0.000700156
0.000902993
0.00111466
0.00131067
0.00143606
0.00153941
0.00168419
0.00188072
0.00210834
0.0023383
0.00255115
0.00277587
0.00303243
0.0031896
0.00318683
0.00314338
0.00309514
0.00303375
0.00296151
0.00290592
0.00293911
0.00317994
0.00383079
0.00489391
0.00584509
0.00641504
0.00687762
0.00774705
0.00889868
0.00993469
0.0115731
0.0138286
0.0108139
0.0103273
0.0196118
0.0364409
0.0451692
0.0519004
0.0603307
0.064934
0.0549562
0.0396349
0.0385153
0.0403483
0.0380819
0.0258627
0.0194031
0.015084
0.0151119
0.0128447
0.0159886
0.0132188
2.8891e-07
2.88373e-07
2.87147e-07
2.85158e-07
2.82508e-07
2.79498e-07
2.76427e-07
2.74907e-07
2.7474e-07
2.75116e-07
2.76258e-07
2.78328e-07
2.81677e-07
2.87115e-07
2.94759e-07
3.03535e-07
3.10548e-07
3.14756e-07
3.1317e-07
3.10267e-07
3.06706e-07
3.00901e-07
2.94733e-07
2.92937e-07
2.92386e-07
2.93422e-07
2.96082e-07
3.02031e-07
3.1631e-07
3.38187e-07
3.74136e-07
4.22675e-07
4.73215e-07
5.2612e-07
5.98055e-07
7.04444e-07
8.65346e-07
1.14271e-06
1.61331e-06
2.34796e-06
3.63873e-06
6.15021e-06
1.01884e-05
1.74919e-05
3.0976e-05
5.14681e-05
8.41964e-05
0.000136732
0.000215144
0.000329078
0.000474418
0.000653624
0.00086445
0.00108028
0.0012951
0.00149082
0.00162411
0.00173656
0.00189478
0.00210866
0.00235865
0.00261232
0.00283651
0.00306139
0.00332844
0.00348528
0.00348971
0.00344947
0.00340661
0.00335628
0.00330296
0.00328823
0.00338963
0.00370873
0.00441432
0.0055184
0.00657398
0.00700386
0.00729722
0.00791058
0.00901299
0.0102289
0.0113036
0.0121957
0.0123939
0.0131768
0.0232471
0.035477
0.0407362
0.0478553
0.0586154
0.065271
0.0569932
0.0387983
0.030836
0.0332935
0.0328519
0.028934
0.0301555
0.0215656
0.0171226
0.015517
0.0262703
0.0288819
3.17661e-07
3.17462e-07
3.15512e-07
3.11362e-07
3.05206e-07
2.97641e-07
2.90367e-07
2.87353e-07
2.87147e-07
2.88388e-07
2.92674e-07
3.00815e-07
3.13418e-07
3.32498e-07
3.57774e-07
3.8683e-07
4.114e-07
4.24924e-07
4.20321e-07
4.11935e-07
4.01462e-07
3.83824e-07
3.67679e-07
3.64613e-07
3.6388e-07
3.68644e-07
3.78994e-07
3.9974e-07
4.46142e-07
5.15789e-07
6.28117e-07
7.80675e-07
9.34801e-07
1.08919e-06
1.27669e-06
1.51574e-06
1.85122e-06
2.3868e-06
3.24471e-06
4.50046e-06
6.61747e-06
1.06017e-05
1.67359e-05
2.76248e-05
4.73566e-05
7.6648e-05
0.000121504
0.000191802
0.000292892
0.000431915
0.000602147
0.000807227
0.00103963
0.00126425
0.00147559
0.0016663
0.00180551
0.00193411
0.00210662
0.00233483
0.00260218
0.00287517
0.00310814
0.00332752
0.00357685
0.00371434
0.00372314
0.00369289
0.00366082
0.00362678
0.0035941
0.00361053
0.0037616
0.00412739
0.00483931
0.00590052
0.00697564
0.00736527
0.00760509
0.0080552
0.0088589
0.00976674
0.0111487
0.0107765
0.0113053
0.0149417
0.0252905
0.0320322
0.0341606
0.0416325
0.0554698
0.0639414
0.0583397
0.0380584
0.0268017
0.024979
0.0241471
0.0278936
0.0393559
0.0379523
0.0245799
0.0203711
0.0481753
0.062203
3.9995e-07
3.99934e-07
3.95297e-07
3.85104e-07
3.69753e-07
3.50856e-07
3.33198e-07
3.26555e-07
3.26455e-07
3.31092e-07
3.44817e-07
3.70169e-07
4.08923e-07
4.66338e-07
5.39972e-07
6.21545e-07
6.89403e-07
7.22947e-07
7.08225e-07
6.8645e-07
6.58899e-07
6.11421e-07
5.68098e-07
5.60294e-07
5.60244e-07
5.76708e-07
6.101e-07
6.73014e-07
8.03935e-07
9.95866e-07
1.29028e-06
1.69307e-06
2.08396e-06
2.46521e-06
2.90067e-06
3.40086e-06
4.06883e-06
5.08528e-06
6.62937e-06
8.78553e-06
1.22612e-05
1.85039e-05
2.77831e-05
4.35301e-05
7.12555e-05
0.00011139
0.000170187
0.000259628
0.00038541
0.000550156
0.000744524
0.000973347
0.00122431
0.00145575
0.00165898
0.00184191
0.00198807
0.00213693
0.0023208
0.00255797
0.00283726
0.00312673
0.00336206
0.00356231
0.00376479
0.00387345
0.00388678
0.0038717
0.003856
0.00384157
0.00383133
0.00387006
0.00404747
0.00444548
0.00517701
0.00624892
0.00741393
0.00781699
0.00801619
0.00834028
0.00893629
0.00929936
0.0104929
0.0115162
0.0101424
0.0146741
0.0248318
0.0270075
0.0273709
0.0350942
0.0508623
0.0621427
0.0627593
0.0400715
0.0221472
0.0191689
0.0183832
0.0283399
0.0522742
0.0509569
0.0317423
0.0270655
0.0870685
0.101186
6.19584e-07
6.19956e-07
6.07495e-07
5.81082e-07
5.41897e-07
4.93403e-07
4.49806e-07
4.33692e-07
4.3356e-07
4.47238e-07
4.85991e-07
5.5505e-07
6.5833e-07
8.08424e-07
9.98501e-07
1.20605e-06
1.36834e-06
1.44689e-06
1.41286e-06
1.36104e-06
1.29731e-06
1.18629e-06
1.08791e-06
1.07113e-06
1.07267e-06
1.11542e-06
1.20379e-06
1.3667e-06
1.68762e-06
2.14524e-06
2.81754e-06
3.74539e-06
4.59433e-06
5.41522e-06
6.32524e-06
7.28717e-06
8.51237e-06
1.03162e-05
1.29521e-05
1.6518e-05
2.20339e-05
3.14826e-05
4.49813e-05
6.65632e-05
0.000103464
0.000155785
0.000229869
0.000339683
0.000490755
0.000680437
0.000897756
0.00114787
0.00141689
0.00165871
0.00185556
0.00202297
0.00218073
0.00234366
0.00253548
0.00277572
0.00305914
0.00336258
0.00358777
0.00375216
0.00389465
0.00396901
0.00398538
0.00399015
0.00399468
0.00400244
0.00401559
0.00407646
0.00427777
0.00470398
0.00545819
0.00654824
0.00778893
0.00832323
0.00853196
0.00877166
0.00936411
0.00953101
0.0101608
0.0131245
0.0114381
0.0141827
0.0225486
0.0224772
0.0262087
0.033708
0.0462025
0.0598843
0.0707617
0.05197
0.0201991
0.0147765
0.0171204
0.042722
0.0627832
0.046954
0.0346702
0.0346831
0.129653
0.136879
1.12602e-06
1.1247e-06
1.09599e-06
1.03458e-06
9.42494e-07
8.29182e-07
7.29993e-07
6.94606e-07
6.9686e-07
7.34369e-07
8.33345e-07
1.00493e-06
1.25872e-06
1.61959e-06
2.06554e-06
2.54053e-06
2.90289e-06
3.06984e-06
2.98817e-06
2.87105e-06
2.72116e-06
2.46764e-06
2.25951e-06
2.22952e-06
2.23766e-06
2.33974e-06
2.53516e-06
2.90175e-06
3.6131e-06
4.593e-06
5.97556e-06
7.88105e-06
9.54382e-06
1.11165e-05
1.28131e-05
1.44994e-05
1.65947e-05
1.95892e-05
2.38108e-05
2.93763e-05
3.7617e-05
5.09791e-05
6.96252e-05
9.83662e-05
0.000146169
0.000212879
0.000304663
0.000437118
0.000614308
0.000827285
0.00106414
0.00133048
0.00162079
0.00188219
0.00207378
0.00221717
0.00237672
0.00254439
0.00273676
0.00297299
0.00325635
0.00357395
0.00376179
0.00388214
0.00397142
0.00401203
0.00402807
0.00405005
0.00407651
0.00410802
0.00414357
0.00422456
0.00444822
0.00490493
0.00568603
0.00679739
0.00808867
0.00880744
0.00905116
0.00923664
0.00985467
0.0108759
0.0111991
0.0133315
0.0154022
0.0164098
0.0201585
0.0215841
0.0278587
0.0347234
0.0432882
0.0577996
0.0731597
0.066796
0.0259556
0.0149901
0.0274571
0.0556658
0.0573816
0.0448217
0.0407189
0.0538518
0.165917
0.175794
2.16916e-06
2.1575e-06
2.09799e-06
1.96735e-06
1.77157e-06
1.53322e-06
1.33958e-06
1.27554e-06
1.28682e-06
1.38055e-06
1.60524e-06
1.98613e-06
2.54307e-06
3.31426e-06
4.23011e-06
5.20467e-06
5.93913e-06
6.2082e-06
6.04502e-06
5.81647e-06
5.51748e-06
5.01675e-06
4.61739e-06
4.55378e-06
4.56762e-06
4.77003e-06
5.17712e-06
5.93497e-06
7.34996e-06
9.24608e-06
1.18689e-05
1.54e-05
1.82902e-05
2.10736e-05
2.40179e-05
2.67775e-05
3.01418e-05
3.48455e-05
4.12557e-05
4.95148e-05
6.12971e-05
7.94715e-05
0.000104491
0.000142006
0.000202301
0.000285118
0.000395607
0.000550045
0.000752177
0.000987498
0.00124132
0.00151851
0.00183816
0.00211116
0.00227241
0.00237699
0.00252823
0.0026993
0.00289212
0.00312274
0.00340356
0.00372526
0.0038663
0.00394115
0.00399076
0.00400398
0.00401941
0.00405264
0.00409589
0.00414751
0.00420258
0.00430354
0.0045499
0.00503896
0.00584957
0.00698203
0.00831181
0.00924097
0.00951507
0.00968543
0.0102899
0.0118302
0.0125891
0.0139137
0.0170408
0.0202228
0.0198809
0.0217689
0.0302892
0.0365322
0.0425211
0.0561766
0.0709365
0.0694981
0.0523924
0.0318452
0.0412385
0.0540434
0.0519069
0.0449836
0.0480842
0.0796773
0.202639
0.21461
1.30669e-05
1.28109e-05
1.23083e-05
1.14244e-05
1.02531e-05
8.86273e-06
7.8791e-06
7.60034e-06
7.7617e-06
8.52916e-06
1.00737e-05
1.26425e-05
1.61768e-05
2.0642e-05
2.56178e-05
3.11078e-05
3.4525e-05
3.47372e-05
3.41147e-05
3.3126e-05
3.17232e-05
2.93962e-05
2.76232e-05
2.7102e-05
2.7193e-05
2.82848e-05
3.08378e-05
3.52038e-05
4.24851e-05
5.18426e-05
6.4592e-05
8.03376e-05
9.15946e-05
0.000103775
0.000115344
0.000126083
0.00013888
0.000155893
0.000177496
0.000203903
0.0002384
0.000286545
0.000348079
0.000431789
0.000551383
0.000704408
0.000889695
0.00112874
0.00142326
0.00173206
0.00202782
0.00230797
0.00252529
0.00257276
0.00250533
0.00252494
0.00265421
0.00281176
0.0029882
0.0031917
0.00343007
0.00362952
0.00363189
0.00360559
0.00358903
0.00356002
0.0035682
0.00359432
0.00363873
0.00370066
0.00379566
0.0039728
0.00432319
0.00494934
0.00588322
0.00711205
0.00861084
0.0100229
0.0107909
0.0113212
0.0119826
0.0132874
0.0150168
0.0165593
0.0192152
0.022109
0.022126
0.0281213
0.0398107
0.0430931
0.0433121
0.0501587
0.0599899
0.0677788
0.0773103
0.108515
0.118035
0.0748046
0.0525393
0.0576175
0.0910176
0.185088
0.207461
0.220885
8.93451e-05
8.73807e-05
8.40835e-05
7.88164e-05
7.20285e-05
6.42324e-05
5.98567e-05
5.91135e-05
6.0994e-05
6.71482e-05
7.84469e-05
9.6095e-05
0.000118311
0.000144711
0.000171202
0.000197081
0.000206294
0.000205303
0.000202818
0.000198648
0.000192413
0.000182247
0.000176778
0.000177827
0.000180932
0.000189043
0.000204815
0.000231042
0.000270454
0.000316985
0.000374791
0.000433006
0.000474353
0.000518472
0.000561099
0.000605837
0.000656371
0.000718942
0.000792163
0.000877019
0.000977622
0.00110026
0.00124443
0.00141768
0.00162623
0.00186099
0.00210364
0.00234559
0.00255925
0.00270465
0.00277646
0.00279147
0.0026772
0.00249612
0.00241374
0.00243819
0.00252899
0.00264647
0.00278532
0.00295525
0.00311543
0.00308759
0.00301478
0.00291859
0.00286489
0.00282793
0.00281049
0.00280473
0.00281226
0.00283763
0.0029203
0.00312141
0.00350768
0.00417829
0.00516293
0.00648623
0.00822173
0.0101227
0.011797
0.0130903
0.013996
0.014669
0.0157022
0.0172872
0.0192621
0.0244607
0.0347076
0.0530479
0.0646627
0.072294
0.0615139
0.04241
0.0421401
0.046076
0.0551517
0.0687687
0.0847812
0.108878
0.149693
0.172171
0.183602
0.153703
0.10161
0.10276
0.000299766
0.000295536
0.000288267
0.000277688
0.000263486
0.000250824
0.000249674
0.000253864
0.000265927
0.000293503
0.000337115
0.000396728
0.00046413
0.000534702
0.000586419
0.000619974
0.000615538
0.000608887
0.000605589
0.000600215
0.000593084
0.000582393
0.000590147
0.000613066
0.000637486
0.00067105
0.000725634
0.000802828
0.000896907
0.000995549
0.00109199
0.00113028
0.00115305
0.00119009
0.00124609
0.00131493
0.00139078
0.00147195
0.00155284
0.00163384
0.00171937
0.00180994
0.00190783
0.00201108
0.00211092
0.00219044
0.00224039
0.00226861
0.00227559
0.00224951
0.0021985
0.00211561
0.00199131
0.00192218
0.00190967
0.0019235
0.00195644
0.00201781
0.00207455
0.00204501
0.00197986
0.00189412
0.0018077
0.001723
0.00169082
0.00167374
0.00167785
0.00169081
0.00172298
0.00179605
0.00193798
0.00216344
0.00250157
0.00304624
0.00385534
0.00499861
0.00649281
0.00828008
0.0102574
0.0122428
0.0139882
0.015379
0.0166817
0.0181387
0.0202513
0.0277192
0.0352869
0.0371359
0.0352488
0.0340033
0.0324834
0.0227784
0.0211645
0.0223583
0.0256376
0.0320108
0.041682
0.057623
0.0834573
0.0890143
0.0826454
0.0641178
0.0503241
0.0515541
0.00036182
0.000362385
0.000366685
0.000376042
0.00039003
0.000416394
0.000445252
0.000472081
0.000504855
0.00054529
0.000590681
0.000633392
0.000671328
0.000690616
0.00069152
0.000674222
0.000661292
0.000659513
0.000662299
0.000668976
0.00068196
0.000705133
0.000740477
0.000793567
0.000839894
0.000886847
0.000938599
0.000987361
0.00102078
0.00103868
0.00100949
0.000966403
0.000951591
0.000960276
0.000993325
0.00103827
0.00108736
0.00113208
0.00116935
0.001202
0.00123719
0.00127244
0.00131048
0.00134794
0.00137865
0.00139084
0.00138548
0.00136887
0.00133758
0.00130461
0.00125117
0.00117123
0.00110457
0.00104373
0.000988025
0.000944389
0.000915869
0.000895239
0.000877847
0.00085618
0.000831453
0.000801394
0.00076868
0.000741139
0.000733037
0.000739266
0.000757798
0.000790273
0.000811063
0.00083298
0.000865708
0.000906617
0.000965028
0.00106481
0.00123554
0.00151935
0.0019719
0.00266669
0.00373565
0.00532544
0.00742354