/*--------------------------------*- C++ -*----------------------------------*\
| =========                 |                                                 |
| \\      /  F ield         | OpenFOAM: The Open Source CFD Toolbox           |
|  \\    /   O peration     | Version:  v1912                                 |
|   \\  /    A nd           | Website:  www.openfoam.com                      |
|    \\/     M anipulation  |                                                 |
\*---------------------------------------------------------------------------*/
FoamFile
{
    version     2.0;
    format      ascii;
    class       surfaceScalarField;
    location    "100";
    object      alphaPhi0.water;
}
// * * * * * * * * * * * * * * * * * * * * * * * * * * * * * * * * * * * * * //

dimensions      [0 3 -1 0 0 0 0];
oriented        oriented;


internalField   nonuniform List<scalar> 
28285
(
-0.0254049
0.000103897
-0.0253457
-5.91703e-05
-0.0251257
-0.00022003
-0.024747
-0.000378724
-0.0242086
-0.000538425
-0.0235187
-0.000689907
-0.0226714
-0.000847225
-0.021676
-0.000995384
-0.0205325
-0.00114357
-0.019244
-0.00128846
-0.0178212
-0.00142279
-0.0162607
-0.00156054
-0.0145827
-0.00167799
-0.0127817
-0.00180099
-0.0108803
-0.00190142
-0.00888142
-0.00199887
-0.00679987
-0.00208155
-0.00465267
-0.0021472
-0.00244805
-0.00220462
-0.000210145
-0.00223791
0.00205038
-0.00226052
0.00430931
-0.00225893
0.00655279
-0.00224348
0.00875934
-0.00220655
0.010908
-0.00214871
0.0129831
-0.00207509
0.01496
-0.00197689
0.0168251
-0.0018651
0.0185542
-0.0017291
0.0201366
-0.00158235
0.0215484
-0.00141178
0.0227834
-0.00123509
0.0238213
-0.00103788
0.0246551
-0.000833789
0.0252768
-0.000621653
0.0256751
-0.000398337
0.025851
-0.00017587
0.0257998
5.11584e-05
0.0255235
0.000276294
0.0250323
0.000491268
0.0243206
0.000711613
0.0233991
0.000921537
0.0222783
0.00112084
0.0209723
0.00130592
0.0194946
0.00147775
0.0178636
0.00163096
0.0160954
0.00176821
0.014211
0.00188442
0.0122319
0.00197913
0.0101757
0.00205619
0.0080683
0.00210738
0.00593178
0.00213652
0.00378098
0.0021508
0.00164993
0.00213106
-0.000456268
0.00210619
-0.00250626
0.00204999
-0.00448842
0.00198217
-0.0063845
0.00189607
-0.00818139
0.0017969
-0.0098671
0.00168571
-0.0114315
0.00156437
-0.0128667
0.00143528
-0.0141681
0.00130131
-0.015332
0.00116393
-0.0163555
0.00102356
-0.0172438
0.000888255
-0.017994
0.000750244
-0.0186171
0.000623078
-0.0191123
0.000495151
-0.0194935
0.000381217
-0.0197635
0.000269969
-0.0199361
0.000172666
-0.0200142
7.80538e-05
-0.0200164
2.22097e-06
-0.0199375
-7.88779e-05
-0.0198058
-0.000131692
-0.0196102
-0.000195586
-0.0193755
-0.00023476
-0.0191013
-0.000274132
-0.0187981
-0.00030322
-0.0184709
-0.000327277
-0.0181277
-0.000343135
-0.0177724
-0.000355272
-0.0174091
-0.000363324
-0.017041
-0.000368107
-0.0166698
-0.000371233
-0.0162956
-0.000374195
-0.0159183
-0.000377322
-0.0155365
-0.000381812
-0.0151482
-0.000388277
-0.0147508
-0.000397402
-0.0143415
-0.000409298
-0.0139169
-0.000424592
-0.0134741
-0.000442778
-0.013009
-0.000465061
-0.0125187
-0.000490296
-0.0119995
-0.000519204
-0.0114486
-0.000550925
-0.0108627
-0.000585958
-0.010239
-0.000623657
-0.00957494
-0.000664069
-0.00886826
-0.000706678
-0.00811739
-0.000750871
-0.00732124
-0.000796145
-0.00647885
-0.000842395
-0.00559057
-0.000888272
-0.00465864
-0.000931936
-0.0036825
-0.000976143
-0.00267241
-0.00101009
-0.0016255
-0.00104691
-0.000558009
-0.00106749
0.000529176
-0.00108718
0.00161558
-0.00108641
0.00269386
-0.00107827
0.00374173
-0.00104788
0.00474294
-0.00100121
0.0056735
-0.000930554
0.00651227
-0.000838772
0.00723527
-0.000722999
0.00782033
-0.000585065
0.00824517
-0.000424841
0.00848926
-0.000244087
0.00853712
-4.78587e-05
0.00837997
0.000157147
0.00802074
0.000359236
0.00747168
0.000549055
0.00676135
0.00071033
0.00592917
0.000832178
0.0049987
0.000930474
0.0040209
0.000977801
0.00305405
0.000966846
0.00215122
0.000902833
0.0013607
0.000790521
0.000637476
0.000723223
-0.0254096
0.000200028
-0.0253423
-0.000126514
-0.0251148
-0.000447532
-0.0247289
-0.00076465
-0.0241834
-0.00108392
-0.0234869
-0.00138636
-0.022633
-0.00170112
-0.0216314
-0.00199699
-0.0204818
-0.00229319
-0.0191874
-0.00258282
-0.0177592
-0.00285101
-0.0161933
-0.00312647
-0.0145105
-0.00336076
-0.0127047
-0.00360677
-0.0107992
-0.00380697
-0.00879655
-0.0040015
-0.00671154
-0.00416656
-0.00456161
-0.00429713
-0.0023549
-0.00441133
-0.000115813
-0.004477
0.00214448
-0.00452081
0.00440249
-0.00451695
0.00664455
-0.00448554
0.00884884
-0.00441084
0.0109947
-0.00429454
0.0130665
-0.00414689
0.0150393
-0.00394972
0.0168997
-0.00372549
0.0186233
-0.00345271
0.0201996
-0.00315867
0.0216046
-0.00281679
0.0228327
-0.00246312
0.0238629
-0.00206811
0.0246888
-0.00165973
0.0253024
-0.00123521
0.0256924
-0.000788339
0.0258602
-0.000343639
0.0258009
0.000110433
0.0255168
0.000560388
0.0250178
0.000990235
0.0242988
0.00143064
0.0233703
0.00185001
0.0222431
0.00224809
0.0209313
0.00261765
0.0194484
0.00296066
0.0178132
0.00326624
0.0160413
0.00354005
0.014154
0.00377172
0.0121728
0.00396033
0.0101154
0.00411359
0.0080075
0.0042153
0.00587105
0.00427297
0.00372071
0.00430114
0.00159112
0.00426065
-0.000512972
0.00421029
-0.00256047
0.00409748
-0.00453965
0.00396135
-0.00643222
0.00378864
-0.00822521
0.00358989
-0.00990669
0.00336718
-0.0114666
0.00312426
-0.0128972
0.00286593
-0.0141939
0.00259793
-0.0153531
0.00232316
-0.016372
0.00204247
-0.0172558
0.00177203
-0.0180016
0.00149608
-0.0186206
0.00124207
-0.0191119
0.000986434
-0.0194896
0.000758961
-0.0197564
0.000536757
-0.0199261
0.000342365
-0.0200016
0.000153535
-0.0200017
2.31045e-06
-0.0199206
-0.000159992
-0.0197873
-0.000264945
-0.0195905
-0.000392428
-0.0193549
-0.000470366
-0.0190801
-0.000548872
-0.0187765
-0.000606888
-0.0184489
-0.000654827
-0.0181057
-0.000686369
-0.0177504
-0.000710544
-0.0173872
-0.000726534
-0.0170193
-0.000736
-0.0166484
-0.00074216
-0.0162745
-0.000748042
-0.0158976
-0.000754245
-0.0155162
-0.000763217
-0.0151283
-0.00077618
-0.0147312
-0.000794457
-0.0143223
-0.000818269
-0.0138979
-0.00084891
-0.0134554
-0.000885321
-0.0129906
-0.000929905
-0.0125005
-0.000980406
-0.0119814
-0.00103826
-0.0114306
-0.00110168
-0.0108448
-0.00117177
-0.0102213
-0.00124722
-0.00955744
-0.00132791
-0.00885093
-0.00141318
-0.00810032
-0.00150149
-0.00730446
-0.001592
-0.00646236
-0.0016845
-0.00557436
-0.00177627
-0.00464286
-0.00186343
-0.0036672
-0.00195181
-0.0026576
-0.00201968
-0.00161142
-0.00209309
-0.000544968
-0.00213394
0.000541021
-0.00217317
0.0016262
-0.00217158
0.00270312
-0.00215519
0.00374946
-0.00209422
0.00474906
-0.00200081
0.00567799
-0.00185948
0.00651512
-0.0016759
0.00723646
-0.00144434
0.00781993
-0.00116854
0.0082432
-0.000848111
0.00848597
-0.000486855
0.00853304
-9.493e-05
0.00837501
0.000315179
0.00801486
0.000719379
0.00746519
0.00109873
0.00675464
0.00142088
0.00592257
0.00166425
0.0049923
0.00186075
0.00401494
0.00195515
0.00304912
0.00193267
0.00214771
0.00180424
0.00135851
0.00157973
0.00127399
0.00072199
-0.0254866
0.000288094
-0.0254109
-0.000202182
-0.0251755
-0.000682901
-0.0247818
-0.00115841
-0.0242281
-0.00163764
-0.0235239
-0.0020905
-0.0226618
-0.00256328
-0.0216521
-0.00300665
-0.0204943
-0.00345102
-0.0191913
-0.00388575
-0.0177549
-0.00428742
-0.0161801
-0.00470129
-0.0144892
-0.00505167
-0.0126745
-0.00542147
-0.0107608
-0.00572064
-0.00874987
-0.00601244
-0.00665694
-0.00625948
-0.00449987
-0.0064542
-0.00228584
-0.00662535
-3.86583e-05
-0.00672418
0.00222665
-0.00678612
0.00449051
-0.00678081
0.00673816
-0.00673318
0.00894734
-0.00662002
0.0110969
-0.00644414
0.0131714
-0.00622137
0.0151455
-0.00592381
0.0170064
-0.00558636
0.0187293
-0.00517563
0.0203042
-0.00473352
0.0217064
-0.00421905
0.0229311
-0.00368784
0.0239567
-0.00309371
0.0247774
-0.00248037
0.0253849
-0.00184276
0.0257679
-0.00117135
0.0259285
-0.00050425
0.025861
0.000177976
0.0255687
0.000852687
0.0250611
0.00149781
0.0243333
0.0021585
0.023396
0.00278732
0.0222599
0.00338415
0.0209395
0.00393802
0.0194482
0.00445197
0.0178049
0.00490952
0.0160255
0.00531953
0.014131
0.00566619
0.0121432
0.00594816
0.0100793
0.00617748
0.00796572
0.00632885
0.0058245
0.00641419
0.00367023
0.00645541
0.00153776
0.00639312
-0.00056844
0.00631649
-0.00261715
0.0061462
-0.00459681
0.00594102
-0.00648908
0.00568091
-0.00828111
0.00538192
-0.00996104
0.00504712
-0.0115189
0.0046821
-0.012947
0.00429405
-0.0142408
0.00389172
-0.0153969
0.00347924
-0.0164123
0.00305786
-0.0172926
0.00265235
-0.0180348
0.0022383
-0.0186504
0.00185764
-0.0191381
0.00147417
-0.0195125
0.00113331
-0.019776
0.000800323
-0.0199429
0.0005092
-0.0200154
0.000226084
-0.0200128
-3.20544e-07
-0.0199295
-0.000243276
-0.0197945
-0.000399968
-0.0195957
-0.000591187
-0.0193586
-0.000707495
-0.0190826
-0.000824819
-0.018778
-0.000911578
-0.0184495
-0.000983271
-0.0181057
-0.00103021
-0.01775
-0.00106618
-0.0173867
-0.0010899
-0.0170188
-0.00110385
-0.0166481
-0.00111292
-0.0162744
-0.00112168
-0.0158977
-0.00113097
-0.0155165
-0.00114445
-0.0151287
-0.00116392
-0.0147318
-0.00119137
-0.014323
-0.00122712
-0.0138988
-0.0012731
-0.0134563
-0.00132775
-0.0129916
-0.00139468
-0.0125015
-0.00147046
-0.0119824
-0.00155733
-0.0114316
-0.0016525
-0.0108457
-0.00175768
-0.010222
-0.00187094
-0.00955778
-0.00199209
-0.00885094
-0.00212003
-0.00809995
-0.00225248
-0.00730365
-0.0023883
-0.00646117
-0.00252698
-0.00557281
-0.00266463
-0.0046409
-0.00279535
-0.00366486
-0.00292785
-0.00265505
-0.0030295
-0.00160869
-0.00313944
-0.00054188
-0.00320076
0.000544169
-0.00325922
0.00162938
-0.00325679
0.0027063
-0.00323212
0.00375248
-0.0031404
0.00475169
-0.00300002
0.00567992
-0.00278771
0.00651621
-0.00251219
0.00723666
-0.0021648
0.0078193
-0.00175117
0.00824175
-0.00127057
0.00848347
-0.000728568
0.00852923
-0.000140695
0.00837062
0.000473786
0.00801044
0.00107956
0.00746091
0.00164826
0.0067504
0.00213139
0.0059181
0.00249654
0.00498787
0.00279099
0.0040108
0.00293222
0.00304554
0.00289793
0.00214518
0.00270459
0.00135703
0.00236788
0.00190974
0.000721279
-0.0256061
0.000368101
-0.0255212
-0.000287128
-0.0252773
-0.000926796
-0.0248751
-0.0015606
-0.0243123
-0.00220041
-0.0236001
-0.00280273
-0.0227289
-0.00343448
-0.0217104
-0.00402515
-0.0205435
-0.00461794
-0.0192307
-0.0051985
-0.017785
-0.00573313
-0.0161996
-0.00628671
-0.014499
-0.0067523
-0.0126733
-0.00724717
-0.0107492
-0.00764471
-0.0087275
-0.00803412
-0.00662361
-0.00836338
-0.00445599
-0.00862183
-0.00223146
-0.00884988
2.26958e-05
-0.00897834
0.00230062
-0.00906405
0.00457349
-0.00905367
0.0068296
-0.0089893
0.00904613
-0.00883654
0.011202
-0.0086
0.0132823
-0.00830171
0.015261
-0.00790245
0.0171255
-0.00745091
0.0188505
-0.00690062
0.0204265
-0.00630953
0.0218281
-0.00562068
0.0230515
-0.00491121
0.024074
-0.00411615
0.0248904
-0.00329685
0.0254928
-0.00244508
0.025869
-0.00154758
0.0260212
-0.000656455
0.0259459
0.000253312
0.025645
0.0011535
0.0251279
0.00201495
0.0243899
0.00289655
0.0234421
0.00373511
0.0222953
0.00453087
0.0209643
0.00526903
0.0194624
0.00595392
0.0178087
0.0065632
0.016019
0.00710924
0.014115
0.0075702
0.0121185
0.00794465
0.0100466
0.0082494
0.00792601
0.00844941
0.00577848
0.00856173
0.00361825
0.00861564
0.00148142
0.00852995
-0.000628343
0.00842625
-0.00267968
0.00819753
-0.00466111
0.00792245
-0.00655417
0.00757397
-0.00834611
0.00717386
-0.0100252
0.00672618
-0.0115814
0.0062383
-0.0130071
0.00571983
-0.0142981
0.00518264
-0.0154508
0.004632
-0.0164623
0.00406933
-0.0173387
0.00352879
-0.0180766
0.00297616
-0.0186881
0.00246916
-0.0191716
0.00195768
-0.0195421
0.00150374
-0.0198019
0.00106013
-0.0199651
0.000672437
-0.0200347
0.000295698
-0.0200297
-5.28043e-06
-0.0199434
-0.000329658
-0.0198062
-0.00053717
-0.0196049
-0.000792427
-0.0193658
-0.000946662
-0.019088
-0.00110253
-0.0187816
-0.001218
-0.0184519
-0.00131295
-0.0181073
-0.00137487
-0.017751
-0.00142241
-0.0173872
-0.00145376
-0.017019
-0.00147209
-0.0166479
-0.00148398
-0.016274
-0.00149554
-0.0158972
-0.00150782
-0.0155159
-0.00152573
-0.0151282
-0.00155164
-0.0147313
-0.00158825
-0.0143225
-0.00163597
-0.0138982
-0.00169734
-0.0134557
-0.0017703
-0.0129907
-0.00185967
-0.0125003
-0.00196085
-0.0119808
-0.00207681
-0.0114295
-0.00220383
-0.0108431
-0.0023441
-0.0102188
-0.0024952
-0.00955425
-0.00265667
-0.00884692
-0.00282736
-0.00809549
-0.00300391
-0.00729868
-0.00318511
-0.00645565
-0.00337001
-0.0055667
-0.00355357
-0.00463421
-0.00372785
-0.00365762
-0.00390443
-0.00264727
-0.00403985
-0.0016003
-0.00418641
-0.000533112
-0.00426794
0.000553167
-0.0043455
0.00163862
-0.00434224
0.0027157
-0.0043092
0.00376178
-0.00418648
0.00476073
-0.00399897
0.00568853
-0.00371551
0.00652422
-0.00334788
0.00724381
-0.00288438
0.00782529
-0.00233266
0.00824641
-0.00169168
0.00848693
-0.000969092
0.00853192
-0.000185681
0.00837212
0.000633578
0.00801072
0.00144097
0.00745997
0.00219901
0.00674857
0.0028428
0.00591612
0.00332899
0.00498573
0.00372138
0.00400857
0.00390938
0.00304363
0.00386287
0.00214375
0.00360446
0.00135603
0.00315561
0.00254509
0.00072068
-0.0257619
0.00043961
-0.0256676
-0.000381385
-0.0254153
-0.00117916
-0.0250047
-0.00197115
-0.0244326
-0.00277259
-0.0237121
-0.00352318
-0.0228314
-0.00431524
-0.0218034
-0.00505312
-0.0206266
-0.00579468
-0.019303
-0.00652218
-0.0178468
-0.00718928
-0.0162491
-0.00788441
-0.0145374
-0.00846406
-0.0126987
-0.0090858
-0.0107622
-0.00958123
-0.00872756
-0.0100688
-0.00661008
-0.0104809
-0.00442979
-0.0108021
-0.00219205
-0.0110876
7.42927e-05
-0.0112447
0.00236561
-0.0113554
0.0046505
-0.0113386
0.00691831
-0.0112571
0.00914565
-0.0110639
0.0113112
-0.0107656
0.0134005
-0.010391
0.0153862
-0.00988819
0.017257
-0.00932168
0.0189864
-0.00863005
0.0205659
-0.00788904
0.0219688
-0.00702357
0.0231927
-0.00613512
0.0242134
-0.00513685
0.0250269
-0.00411037
0.025625
-0.00304316
0.0259952
-0.00191781
0.026142
-0.000803213
0.0260574
0.000337921
0.025747
0.00146391
0.0252194
0.00254252
0.0244702
0.0036458
0.0235107
0.00469462
0.0223518
0.00568973
0.0210085
0.00661233
0.0194941
0.00746827
0.0178283
0.00822902
0.0160266
0.00891096
0.0141111
0.00948569
0.0121038
0.00995194
0.0100215
0.0103317
0.0078915
0.0105794
0.00573571
0.0107175
0.00356775
0.0107836
0.00142523
0.0106725
-0.000689952
0.0105414
-0.00274515
0.0102527
-0.00472945
0.00990675
-0.00662422
0.00946874
-0.00841681
0.00896644
-0.0100955
0.0084049
-0.0116505
0.00779324
-0.0130741
0.00714348
-0.0143623
0.00647086
-0.0155119
0.00578153
-0.0165194
0.00507688
-0.0173919
0.00440133
-0.0181251
0.0037093
-0.018732
0.00307608
-0.0192105
0.00243615
-0.0195764
0.00186961
-0.0198317
0.00131547
-0.0199908
0.000831517
-0.0200559
0.000360821
-0.0200475
-1.3707e-05
-0.0199578
-0.000419289
-0.0198182
-0.000676782
-0.0196143
-0.000996354
-0.019373
-0.00118795
-0.0190937
-0.00138189
-0.0187857
-0.00152592
-0.0184549
-0.00164379
-0.0181094
-0.00172042
-0.0177524
-0.00177934
-0.017388
-0.00181818
-0.0170195
-0.00184062
-0.0166483
-0.00185512
-0.0162745
-0.00186934
-0.0158978
-0.00188452
-0.0155167
-0.00190681
-0.0151292
-0.00193917
-0.0147325
-0.00198499
-0.0143237
-0.00204476
-0.0138994
-0.00212159
-0.0134569
-0.00221288
-0.0129918
-0.00232472
-0.0125014
-0.0024513
-0.0119818
-0.00259636
-0.0114304
-0.00275524
-0.0108438
-0.0029307
-0.0102193
-0.00311969
-0.00955427
-0.00332169
-0.00884646
-0.00353517
-0.00809449
-0.00375587
-0.00729713
-0.00398247
-0.00645358
-0.00421356
-0.00556425
-0.00444291
-0.00463121
-0.00466088
-0.00365409
-0.00488156
-0.00264324
-0.0050507
-0.00159571
-0.00523393
-0.000527936
-0.00533572
0.000558773
-0.00543221
0.0016445
-0.00542797
0.00272182
-0.00538652
0.00376808
-0.00523274
0.00476725
-0.00499814
0.00569516
-0.00464342
0.00653082
-0.00418354
0.00725016
-0.00360372
0.00783121
-0.00291372
0.00825172
-0.00211218
0.00849147
-0.00120885
0.00853517
-0.000229373
0.00837396
0.000794789
0.0080112
0.00180372
0.00745958
0.00275063
0.00674802
0.00355436
0.00591494
0.00416206
0.00498375
0.00465258
0.00400726
0.00488587
0.00304326
0.00482687
0.00214322
0.0045045
0.00135532
0.00394351
0.00318026
0.000720149
-0.0259534
0.000502997
-0.0258492
-0.00048559
-0.0255881
-0.00144028
-0.025169
-0.00239022
-0.0245868
-0.00335477
-0.023858
-0.00425204
-0.022967
-0.00520618
-0.0219288
-0.00609134
-0.0207415
-0.00698197
-0.0194057
-0.00785804
-0.0179381
-0.00865689
-0.0163266
-0.00949592
-0.0146021
-0.0101885
-0.0127484
-0.0109395
-0.0107974
-0.0115322
-0.00874748
-0.0121187
-0.00661392
-0.0126144
-0.00441821
-0.0129978
-0.00216388
-0.0133419
0.000118238
-0.0135268
0.0024255
-0.0136626
0.00472527
-0.0136383
0.00700785
-0.0135397
0.0092489
-0.0133049
0.0114267
-0.0129434
0.0135279
-0.0124921
0.0155237
-0.011884
0.0174034
-0.0112015
0.0191398
-0.0103664
0.0207251
-0.00947431
0.0221312
-0.00842969
0.0233574
-0.00736139
0.0243777
-0.00615713
0.0251893
-0.00492198
0.0257839
-0.00363777
0.0261482
-0.00228209
0.0262867
-0.000941669
0.0261946
0.000430037
0.0258749
0.00178361
0.0253364
0.00308097
0.0245751
0.00440711
0.0236028
0.00566694
0.0224305
0.00686205
0.0210734
0.00796937
0.019545
0.0089967
0.0178653
0.00990872
0.0160496
0.0107267
0.0141206
0.0114147
0.0121004
0.0119721
0.0100056
0.0124266
0.0078643
0.0127207
0.00569815
0.0128837
0.00352039
0.0129614
0.00137009
0.0128228
-0.000752024
0.0126635
-0.00281261
0.0123133
-0.00480109
0.0118952
-0.00669869
0.0113663
-0.00849284
0.0107606
-0.010172
0.0100841
-0.0117263
0.00934753
-0.0131482
0.00856542
-0.014434
0.00775662
-0.0155803
0.00692783
-0.0165836
0.00608018
-0.0174518
0.00526957
-0.0181799
0.00443736
-0.0187822
0.00367835
-0.0192556
0.00290959
-0.0196166
0.00223059
-0.019867
0.00156591
-0.0200216
0.000986089
-0.0200828
0.000421991
-0.0200705
-2.60102e-05
-0.0199765
-0.000513263
-0.0198339
-0.000819376
-0.0196266
-0.00120366
-0.0193826
-0.00143191
-0.0191012
-0.00166336
-0.018791
-0.00183613
-0.0184583
-0.00197643
-0.0181115
-0.00206719
-0.0177537
-0.00213714
-0.0173887
-0.00218324
-0.0170198
-0.00220953
-0.0166485
-0.00222644
-0.0162746
-0.00224324
-0.0158978
-0.00226124
-0.0155168
-0.00228783
-0.0151294
-0.00232655
-0.0147328
-0.0023816
-0.0143242
-0.00245339
-0.0139001
-0.0025457
-0.0134576
-0.0026554
-0.0129925
-0.0027898
-0.0125019
-0.00294186
-0.0119822
-0.00311611
-0.0114304
-0.00330695
-0.0108436
-0.00351759
-0.0102187
-0.00374456
-0.00955328
-0.0039871
-0.00884516
-0.00424329
-0.00809276
-0.00450827
-0.007295
-0.00478023
-0.00645085
-0.00505771
-0.00556074
-0.00533302
-0.00462715
-0.00559448
-0.00364935
-0.00585935
-0.0026378
-0.00606225
-0.0015898
-0.00628193
-0.000521419
-0.0064041
0.000565743
-0.00651937
0.00165193
-0.00651416
0.00272973
-0.00646432
0.00377624
-0.00627925
0.00477549
-0.00599739
0.00570323
-0.00557116
0.00653853
-0.00501883
0.00725729
-0.00432248
0.00783764
-0.00349406
0.00825738
-0.00253192
0.00849605
-0.00144752
0.00853885
-0.000272175
0.00837739
0.000956252
0.00801419
0.00216692
0.00746172
0.0033031
0.00674827
0.0042678
0.00591375
0.00499659
0.00498296
0.00558337
0.00400755
0.00586127
0.00304418
0.00579025
0.00214358
0.0054051
0.00135506
0.00473203
0.00381553
0.000719798
-0.0261799
0.000557637
-0.0260656
-0.000599859
-0.0257955
-0.00171035
-0.025368
-0.00281776
-0.0247752
-0.00394753
-0.0240378
-0.00498941
-0.0231362
-0.00610779
-0.0220871
-0.00714046
-0.0208886
-0.00818045
-0.0195393
-0.00920739
-0.0180592
-0.010137
-0.0164319
-0.0111231
-0.0146935
-0.011927
-0.0128226
-0.0128103
-0.010855
-0.0134999
-0.00878742
-0.0141863
-0.00663495
-0.0147669
-0.00442099
-0.0152118
-0.00214739
-0.0156155
0.00015337
-0.0158276
0.0024797
-0.015989
0.00479743
-0.0159561
0.00709794
-0.0158402
0.00935598
-0.015563
0.0115494
-0.0151368
0.0136655
-0.0146082
0.015674
-0.0138924
0.0175655
-0.013093
0.0193112
-0.0121121
0.0209045
-0.0110677
0.0223157
-0.00984091
0.0235461
-0.00859172
0.0245672
-0.0071783
0.025378
-0.00573274
0.02597
-0.00422977
0.0263288
-0.0026409
0.0264612
-0.00107406
0.0263596
0.00053168
0.0260296
0.0021136
0.0254793
0.00363125
0.0247048
0.00518161
0.0237183
0.00665341
0.022531
0.00804937
0.0211585
0.00934188
0.0196141
0.0105411
0.0179185
0.0116043
0.0160868
0.0125584
0.0141423
0.0133592
0.0121074
0.014007
0.00999783
0.0145362
0.00784329
0.0148752
0.0056648
0.0150622
0.00347559
0.0151506
0.00131617
0.0149822
-0.000814534
0.0147942
-0.00288173
0.0143805
-0.00487551
0.013889
-0.00677687
0.0132677
-0.00857339
0.0125571
-0.0102536
0.0117643
-0.0118076
0.0109015
-0.013228
0.0099858
-0.0145114
0.00903998
-0.0156545
0.00807092
-0.0166535
0.00707925
-0.0175176
0.00613363
-0.0182402
0.00515998
-0.0188372
0.0042753
-0.0193046
0.00337702
-0.0196601
0.00258611
-0.0199054
0.00181122
-0.0200547
0.00113534
-0.0201105
0.000477825
-0.0200943
-4.21664e-05
-0.0199961
-0.000611548
-0.0198503
-0.000965102
-0.0196393
-0.00141468
-0.0193925
-0.00167878
-0.0191087
-0.0019471
-0.0187961
-0.00214871
-0.018462
-0.00231054
-0.0181141
-0.00241514
-0.0177554
-0.00249586
-0.0173896
-0.00254903
-0.0170202
-0.00257886
-0.0166488
-0.00259787
-0.016275
-0.00261705
-0.0158985
-0.00263771
-0.0155178
-0.00266855
-0.0151307
-0.00271365
-0.0147344
-0.00277795
-0.0143259
-0.00286179
-0.013902
-0.00296966
-0.0134596
-0.00309775
-0.0129947
-0.00325475
-0.0125042
-0.00343237
-0.0119845
-0.00363582
-0.0114328
-0.0038586
-0.0108458
-0.00410458
-0.0102208
-0.00436964
-0.0095551
-0.00465274
-0.00884659
-0.00495181
-0.00809365
-0.00526121
-0.00729538
-0.0055785
-0.00645071
-0.00590238
-0.00556009
-0.00622364
-0.00462583
-0.00652874
-0.0036473
-0.00683788
-0.00263515
-0.0070744
-0.00158637
-0.00733071
-0.000517275
-0.00747319
0.000570579
-0.00760723
0.00165729
-0.00760086
0.00273563
-0.00754266
0.00378255
-0.00732617
0.00478219
-0.00699703
0.00571014
-0.00649912
0.00654559
-0.00585427
0.00726436
-0.00504126
0.0078446
-0.0040743
0.008264
-0.00295132
0.00850248
-0.001686
0.0085451
-0.000314792
0.00838178
0.00111957
0.00801644
0.00253226
0.007462
0.00385753
0.00674764
0.00498216
0.00591334
0.00583088
0.00498382
0.00651289
0.0040097
0.00683539
0.00304638
0.00675357
0.00214478
0.0063067
0.00135525
0.00552156
0.00445111
0.000719664
-0.0264429
0.000603941
-0.026318
-0.000724747
-0.0260387
-0.0019897
-0.0256026
-0.00325387
-0.0249985
-0.00455154
-0.0242525
-0.00573544
-0.0233398
-0.00702054
-0.0222789
-0.00820138
-0.0210686
-0.00939075
-0.0197043
-0.0105717
-0.0182107
-0.0116306
-0.0165662
-0.0127677
-0.0148121
-0.0136811
-0.0129219
-0.0147005
-0.0109355
-0.0154863
-0.00884818
-0.0162736
-0.006674
-0.0169411
-0.00443898
-0.0174468
-0.00214312
-0.0179114
0.000179634
-0.0181503
0.00252827
-0.0183376
0.00486713
-0.0182949
0.0071888
-0.0181619
0.00946711
-0.0178413
0.0116791
-0.0173488
0.0138133
-0.0167425
0.0158375
-0.0159165
0.0177436
-0.0149991
0.0195011
-0.0138696
0.0211049
-0.0126715
0.0225231
-0.0112591
0.0237595
-0.00982807
0.0247829
-0.0082017
0.025594
-0.00654386
0.0261842
-0.00482
0.0265379
-0.0029946
0.0266634
-0.00119958
0.026553
0.000642138
0.0262123
0.00245429
0.0256494
0.00419408
0.0248607
0.0059703
0.0238589
0.00765528
0.0226551
0.00925318
0.0212654
0.0107315
0.0197033
0.0121033
0.0179899
0.0133176
0.0161402
0.0144082
0.014178
0.0153213
0.0121262
0.0160588
0.00999989
0.0166625
0.00783011
0.017045
0.00563753
0.0172547
0.00343463
0.0173535
0.001264
0.0171528
-0.000877165
0.0169354
-0.00295251
0.0164559
-0.00495297
0.0158895
-0.00685925
0.015174
-0.00865898
0.0143568
-0.010341
0.0134463
-0.0118953
0.0124559
-0.0133147
0.0114052
-0.0145961
0.0103214
-0.0157361
0.00921089
-0.0167306
0.00807374
-0.0175898
0.00699286
-0.0183067
0.00587683
-0.0188984
0.00486704
-0.0193599
0.00383855
-0.0197096
0.00293576
-0.0199486
0.00205026
-0.0200927
0.00127935
-0.0201435
0.000528624
-0.0201224
-6.32301e-05
-0.020019
-0.000714956
-0.0198697
-0.00111441
-0.0196545
-0.00162987
-0.0194043
-0.00192898
-0.0191181
-0.00223332
-0.0188027
-0.00246408
-0.0184665
-0.00264671
-0.018117
-0.00276464
-0.0177572
-0.00285571
-0.0173905
-0.00291567
-0.0170208
-0.00294863
-0.0166492
-0.00296944
-0.0162754
-0.00299085
-0.015899
-0.00301405
-0.0155185
-0.00304905
-0.0151318
-0.00310042
-0.0147358
-0.00317392
-0.0143277
-0.00326985
-0.013904
-0.00339335
-0.0134619
-0.0035399
-0.012997
-0.00371962
-0.0125065
-0.00392287
-0.0119867
-0.00415562
-0.0114349
-0.00441045
-0.0108477
-0.00469178
-0.0102223
-0.00499502
-0.00955639
-0.00531867
-0.00884747
-0.00566072
-0.00809417
-0.00601451
-0.00729549
-0.00637717
-0.00645024
-0.00674763
-0.00555903
-0.00711485
-0.00462415
-0.00746363
-0.00364488
-0.00781715
-0.00263204
-0.00808724
-0.00158231
-0.00838044
-0.00051253
-0.00854297
0.000575998
-0.00869576
0.00166334
-0.00868821
0.00274238
-0.0086217
0.00378976
-0.00837355
0.00478977
-0.00799704
0.00571783
-0.00742718
0.0065532
-0.00668964
0.0072717
-0.00575976
0.0078515
-0.00465411
0.00827028
-0.0033701
0.00850758
-0.0019233
0.00854823
-0.000355437
0.00838406
0.00128374
0.00801804
0.00289828
0.00746301
0.00441257
0.00674862
0.00569655
0.00591472
0.00666479
0.00498614
0.00744146
0.0040131
0.00780843
0.00304969
0.00771699
0.00214664
0.00720975
0.00135594
0.00631226
0.00508721
0.00071984
-0.0267417
0.000641563
-0.0266061
-0.000860374
-0.0263171
-0.00227867
-0.0258727
-0.00369833
-0.0252568
-0.00516745
-0.024502
-0.00649023
-0.0235779
-0.00794464
-0.0225043
-0.00927494
-0.0212817
-0.0106134
-0.0199011
-0.0119523
-0.0183931
-0.0131385
-0.0167295
-0.0144313
-0.0149582
-0.0154524
-0.013047
-0.0166116
-0.0110392
-0.0174942
-0.00892974
-0.018383
-0.006731
-0.0191398
-0.00447228
-0.0197055
-0.00215088
-0.0202328
0.000196622
-0.0204978
0.00257082
-0.0207118
0.00493402
-0.0206581
0.00728007
-0.0205079
0.00958196
-0.0201432
0.0118156
-0.0195824
0.0139712
-0.0188981
0.0160139
-0.0179592
0.0179373
-0.0169225
0.0197091
-0.0156414
0.0213258
-0.0142881
0.0227531
-0.0126865
0.0239971
-0.011072
0.0250243
-0.00922887
0.0258367
-0.00735632
0.026426
-0.00540927
0.0267749
-0.0033435
0.0268937
-0.00131846
0.026774
0.00076185
0.026422
0.00280629
0.0258458
0.00477032
0.0250417
0.00677435
0.0240231
0.00867394
0.0228012
0.010475
0.0213927
0.01214
0.0198109
0.0136851
0.0180778
0.0150507
0.0162079
0.0162781
0.014226
0.0173032
0.0121551
0.0181297
0.0100096
0.018808
0.00782225
0.0192324
0.00561323
0.0194637
0.00339462
0.0195721
0.00121199
0.0193355
-0.000940748
0.0190881
-0.00302554
0.0185406
-0.00503381
0.0178977
-0.00694595
0.0170861
-0.00874987
0.0161608
-0.0104344
0.0151308
-0.0119895
0.014011
-0.0134078
0.0128236
-0.0146871
0.0116006
-0.0158236
0.0103475
-0.0168135
0.0090636
-0.0176684
0.00784773
-0.0183792
0.00658766
-0.018965
0.0054528
-0.0194194
0.00429295
-0.0197624
0.00327884
-0.0199952
0.00228303
-0.0201329
0.00141704
-0.0201773
0.000573049
-0.0201515
-8.90478e-05
-0.0200427
-0.000823723
-0.0198895
-0.00126761
-0.0196697
-0.00184969
-0.0194159
-0.00218285
-0.0191268
-0.00252235
-0.0188083
-0.00278263
-0.01847
-0.00298503
-0.018119
-0.0031156
-0.017758
-0.00321667
-0.0173905
-0.00328325
-0.0170202
-0.00331893
-0.0166485
-0.00334114
-0.0162747
-0.00336456
-0.0158987
-0.00339013
-0.0155186
-0.00342916
-0.0151323
-0.00348673
-0.0147367
-0.00356948
-0.014329
-0.00367753
-0.0139056
-0.00381674
-0.0134638
-0.00398169
-0.0129992
-0.0041842
-0.012509
-0.0044131
-0.0119894
-0.00467519
-0.0114377
-0.00496217
-0.0108505
-0.00527899
-0.010225
-0.00562048
-0.00955895
-0.00598477
-0.00884976
-0.00636991
-0.00809612
-0.00676815
-0.00729696
-0.00717633
-0.00645127
-0.00759333
-0.00555966
-0.00800646
-0.00462417
-0.00839911
-0.00364412
-0.00879719
-0.00263056
-0.00910081
-0.00158007
-0.00943093
-0.000509561
-0.00961348
0.000579916
-0.00978523
0.00166798
-0.00977627
0.00274777
-0.00970149
0.00379574
-0.00942152
0.00479629
-0.00899759
0.00572469
-0.00835558
0.00656028
-0.00752523
0.0072787
-0.00647818
0.00785808
-0.00523349
0.00827611
-0.00378813
0.00851253
-0.00215971
0.00855282
-0.000395736
0.00838765
0.00144892
0.00802087
0.00326506
0.00746541
0.00496803
0.00675073
0.00641123
0.00591702
0.00749851
0.00498938
0.0083691
0.00401707
0.00878073
0.00305302
0.00868104
0.00214866
0.00811411
0.00135703
0.00710389
0.00572403
0.000720205
-0.0270761
0.000670792
-0.0269295
-0.00100701
-0.0266305
-0.00257763
-0.0261779
-0.00415091
-0.0255495
-0.00579588
-0.0247859
-0.00725382
-0.0238503
-0.0088802
-0.0227631
-0.0103621
-0.0215278
-0.0118488
-0.0201295
-0.0133505
-0.0186061
-0.014662
-0.0169216
-0.0161158
-0.0151316
-0.0172423
-0.0131972
-0.018546
-0.011166
-0.0195253
-0.00903221
-0.0205169
-0.00680613
-0.0213659
-0.00452072
-0.0219909
-0.00217074
-0.0225828
0.000204802
-0.0228734
0.0026078
-0.0231148
0.00499868
-0.023049
0.00737229
-0.0228815
0.00970116
-0.022472
0.0119596
-0.0218409
0.0141398
-0.0210782
0.0162039
-0.0200234
0.0181475
-0.0188661
0.0199363
-0.0174302
0.021568
-0.0159199
0.0230065
-0.014125
0.02426
-0.0123255
0.0252923
-0.0102612
0.0261072
-0.00817122
0.0266963
-0.00599839
0.0270408
-0.00368794
0.0271531
-0.00143082
0.0270239
0.000891064
0.0266601
0.00317015
0.0260696
0.00536076
0.0252492
0.00759479
0.0242124
0.00971069
0.022971
0.0117165
0.0215418
0.0135691
0.0199384
0.0152886
0.0181836
0.0168055
0.0162914
0.0181703
0.0142877
0.0193069
0.0121957
0.0202217
0.0100292
0.0209744
0.00782285
0.0214388
0.00559607
0.0216905
0.00336022
0.0218079
0.00116248
0.0215332
-0.00100437
0.021255
-0.00309991
0.0206362
-0.00511716
0.019915
-0.00703615
0.0190051
-0.00884471
0.0179693
-0.010532
0.0168181
-0.012088
0.015567
-0.0135058
0.0142413
-0.0147835
0.0128783
-0.0159169
0.0114809
-0.0169021
0.0100488
-0.0177516
0.00869723
-0.0184555
0.00729156
-0.0190345
0.00603178
-0.0194813
0.00473977
-0.0198173
0.00361486
-0.0200434
0.00250909
-0.0201743
0.00154801
-0.0202127
0.000611436
-0.0201809
-0.000120834
-0.0200661
-0.000938573
-0.0199086
-0.00142509
-0.0196835
-0.00207474
-0.0194257
-0.00244072
-0.0191336
-0.00281443
-0.0188116
-0.00310464
-0.0184707
-0.00332591
-0.0181179
-0.00346841
-0.0177556
-0.00357901
-0.0173869
-0.00365192
-0.017016
-0.00368981
-0.0166442
-0.00371301
-0.0162705
-0.00373824
-0.0158946
-0.003766
-0.0155148
-0.00380897
-0.0151289
-0.00387268
-0.0147337
-0.00396466
-0.0143265
-0.00408471
-0.0139037
-0.00423957
-0.0134624
-0.00442292
-0.0129983
-0.00464834