/*--------------------------------*- C++ -*----------------------------------*\
| =========                 |                                                 |
| \\      /  F ield         | OpenFOAM: The Open Source CFD Toolbox           |
|  \\    /   O peration     | Version:  v1912                                 |
|   \\  /    A nd           | Website:  www.openfoam.com                      |
|    \\/     M anipulation  |                                                 |
\*---------------------------------------------------------------------------*/
FoamFile
{
    version     2.0;
    format      ascii;
    class       volScalarField;
    location    "100";
    object      k;
}
// * * * * * * * * * * * * * * * * * * * * * * * * * * * * * * * * * * * * * //

dimensions      [0 2 -2 0 0 0 0];


internalField   nonuniform List<scalar> 
14268
(
5.78118e-07
5.76674e-07
5.7533e-07
5.74057e-07
5.72891e-07
5.71835e-07
5.70821e-07
5.69909e-07
5.69048e-07
5.68286e-07
5.67522e-07
5.66857e-07
5.66175e-07
5.65599e-07
5.64962e-07
5.644e-07
5.63854e-07
5.63308e-07
5.62829e-07
5.6233e-07
5.61908e-07
5.61424e-07
5.60921e-07
5.60409e-07
5.59831e-07
5.59234e-07
5.58549e-07
5.57824e-07
5.56963e-07
5.56035e-07
5.54941e-07
5.53742e-07
5.5237e-07
5.50803e-07
5.4906e-07
5.47122e-07
5.45008e-07
5.42748e-07
5.40428e-07
5.38056e-07
5.35709e-07
5.3332e-07
5.3095e-07
5.2856e-07
5.2619e-07
5.23835e-07
5.21483e-07
5.19139e-07
5.1688e-07
5.14638e-07
5.1246e-07
5.10348e-07
5.0823e-07
5.06101e-07
5.04039e-07
5.01824e-07
4.99701e-07
4.97491e-07
4.95312e-07
4.93071e-07
4.90877e-07
4.88664e-07
4.86448e-07
4.84263e-07
4.82005e-07
4.79823e-07
4.77461e-07
4.75251e-07
4.72765e-07
4.70488e-07
4.67912e-07
4.65524e-07
4.62784e-07
4.60388e-07
4.57423e-07
4.55138e-07
4.5217e-07
4.49788e-07
4.47047e-07
4.44461e-07
4.41816e-07
4.39216e-07
4.36574e-07
4.33912e-07
4.31222e-07
4.28489e-07
4.25748e-07
4.22956e-07
4.20047e-07
4.17095e-07
4.14026e-07
4.10891e-07
4.07655e-07
4.04319e-07
4.00875e-07
3.97355e-07
3.93741e-07
3.90043e-07
3.86362e-07
3.82576e-07
3.78755e-07
3.74863e-07
3.70833e-07
3.66717e-07
3.62444e-07
3.58145e-07
3.53785e-07
3.49329e-07
3.4464e-07
3.39665e-07
3.34373e-07
3.28556e-07
3.22392e-07
3.15352e-07
3.0742e-07
2.98574e-07
2.88599e-07
2.77468e-07
2.6493e-07
2.50879e-07
2.36313e-07
2.21368e-07
2.0591e-07
1.90609e-07
1.75345e-07
1.57636e-07
1.35946e-07
1.12426e-07
8.42753e-08
5.25488e-08
2.85916e-08
1.40563e-08
6.54457e-09
2.72696e-09
2.43203e-07
2.43333e-07
2.43641e-07
2.44016e-07
2.4446e-07
2.45092e-07
2.45735e-07
2.46555e-07
2.47451e-07
2.48454e-07
2.49619e-07
2.50809e-07
2.52239e-07
2.53647e-07
2.55284e-07
2.56973e-07
2.58757e-07
2.60706e-07
2.62679e-07
2.64819e-07
2.66984e-07
2.69273e-07
2.71574e-07
2.73927e-07
2.76326e-07
2.78689e-07
2.81084e-07
2.83395e-07
2.85691e-07
2.87838e-07
2.89924e-07
2.91776e-07
2.93507e-07
2.94993e-07
2.96209e-07
2.97195e-07
2.97846e-07
2.98182e-07
2.98179e-07
2.97796e-07
2.97012e-07
2.95822e-07
2.94242e-07
2.92278e-07
2.89961e-07
2.87301e-07
2.84352e-07
2.81121e-07
2.77673e-07
2.74082e-07
2.70302e-07
2.66444e-07
2.62566e-07
2.58583e-07
2.54752e-07
2.50908e-07
2.47214e-07
2.43647e-07
2.40262e-07
2.37071e-07
2.34094e-07
2.31348e-07
2.28839e-07
2.26565e-07
2.24531e-07
2.2274e-07
2.21146e-07
2.19786e-07
2.18581e-07
2.17606e-07
2.16753e-07
2.16099e-07
2.15528e-07
2.15178e-07
2.14786e-07
2.14664e-07
2.14342e-07
2.14329e-07
2.14166e-07
2.14094e-07
2.14038e-07
2.14e-07
2.13934e-07
2.13853e-07
2.13757e-07
2.13622e-07
2.13444e-07
2.13226e-07
2.12965e-07
2.12659e-07
2.1232e-07
2.11959e-07
2.11584e-07
2.11208e-07
2.10837e-07
2.10489e-07
2.10177e-07
2.09915e-07
2.09712e-07
2.09584e-07
2.09535e-07
2.0959e-07
2.09743e-07
2.09986e-07
2.10309e-07
2.10721e-07
2.11213e-07
2.11772e-07
2.12445e-07
2.13113e-07
2.13791e-07
2.14351e-07
2.14744e-07
2.14865e-07
2.14585e-07
2.13577e-07
2.11704e-07
2.088e-07
2.0458e-07
1.98789e-07
1.91393e-07
1.82796e-07
1.73632e-07
1.64057e-07
1.53556e-07
1.41475e-07
1.2679e-07
1.09183e-07
8.98604e-08
6.95609e-08
4.97567e-08
3.48141e-08
2.20383e-08
1.2341e-08
8.71427e-08
8.73361e-08
8.76014e-08
8.78915e-08
8.82077e-08
8.86029e-08
8.90011e-08
8.94755e-08
8.99839e-08
9.05386e-08
9.11701e-08
9.18113e-08
9.25667e-08
9.3313e-08
9.4173e-08
9.50615e-08
9.60001e-08
9.7029e-08
9.80757e-08
9.9222e-08
1.00389e-07
1.01636e-07
1.029e-07
1.04211e-07
1.0556e-07
1.06907e-07
1.08304e-07
1.09674e-07
1.11078e-07
1.12419e-07
1.13779e-07
1.15027e-07
1.16266e-07
1.17395e-07
1.18404e-07
1.19336e-07
1.20092e-07
1.20707e-07
1.21127e-07
1.21307e-07
1.2126e-07
1.2097e-07
1.20437e-07
1.19656e-07
1.18645e-07
1.17416e-07
1.16009e-07
1.14433e-07
1.12728e-07
1.1095e-07
1.0907e-07
1.07165e-07
1.05278e-07
1.03352e-07
1.01546e-07
9.97564e-08
9.80778e-08
9.64889e-08
9.50159e-08
9.36608e-08
9.24295e-08
9.1327e-08
9.03528e-08
8.95026e-08
8.87696e-08
8.81704e-08
8.76578e-08
8.72858e-08
8.6969e-08
8.68086e-08
8.66737e-08
8.6686e-08
8.66879e-08
8.6892e-08
8.69533e-08
8.72935e-08
8.73906e-08
8.77789e-08
8.80201e-08
8.83492e-08
8.86839e-08
8.90344e-08
8.9372e-08
8.97099e-08
9.00508e-08
9.03799e-08
9.06943e-08
9.09989e-08
9.12914e-08
9.15755e-08
9.18559e-08
9.21432e-08
9.24391e-08
9.27577e-08
9.30955e-08
9.34752e-08
9.39e-08
9.4382e-08
9.49276e-08
9.55465e-08
9.62432e-08
9.70177e-08
9.78841e-08
9.88515e-08
9.99235e-08
1.01116e-07
1.02434e-07
1.03877e-07
1.05513e-07
1.07253e-07
1.0918e-07
1.11212e-07
1.13334e-07
1.15461e-07
1.17559e-07
1.19516e-07
1.21203e-07
1.22449e-07
1.23116e-07
1.23137e-07
1.22491e-07
1.21187e-07
1.19502e-07
1.17906e-07
1.1632e-07
1.13625e-07
1.08091e-07
9.86918e-08
8.5567e-08
6.91318e-08
5.43567e-08
4.23583e-08
3.24984e-08
2.33249e-08
4.98628e-08
4.99501e-08
5.00582e-08
5.01748e-08
5.03037e-08
5.04535e-08
5.06114e-08
5.07915e-08
5.09854e-08
5.11989e-08
5.14347e-08
5.16846e-08
5.19667e-08
5.22573e-08
5.25844e-08
5.29293e-08
5.3296e-08
5.36977e-08
5.4114e-08
5.45667e-08
5.50366e-08
5.55397e-08
5.60578e-08
5.65996e-08
5.71656e-08
5.774e-08
5.83399e-08
5.89396e-08
5.95586e-08
6.01625e-08
6.07807e-08
6.13604e-08
6.1944e-08
6.24885e-08
6.29878e-08
6.34608e-08
6.38613e-08
6.42031e-08
6.44593e-08
6.46054e-08
6.46436e-08
6.45708e-08
6.43836e-08
6.4079e-08
6.36666e-08
6.31528e-08
6.25582e-08
6.18886e-08
6.11655e-08
6.0412e-08
5.96174e-08
5.8818e-08
5.8032e-08
5.72404e-08
5.65054e-08
5.57891e-08
5.51254e-08
5.4508e-08
5.39446e-08
5.3435e-08
5.29802e-08
5.25809e-08
5.22353e-08
5.19408e-08
5.16963e-08
5.15012e-08
5.13445e-08
5.12362e-08
5.11579e-08
5.11305e-08
5.11303e-08
5.11713e-08
5.12327e-08
5.13373e-08
5.14464e-08
5.16069e-08
5.17345e-08
5.19242e-08
5.20896e-08
5.22707e-08
5.2461e-08
5.26538e-08
5.2848e-08
5.30432e-08
5.32435e-08
5.34398e-08
5.36315e-08
5.38221e-08
5.4011e-08
5.41977e-08
5.4389e-08
5.45858e-08
5.47927e-08
5.50141e-08
5.52494e-08
5.5507e-08
5.57892e-08
5.61024e-08
5.64479e-08
5.68324e-08
5.7255e-08
5.77281e-08
5.82546e-08
5.88392e-08
5.94851e-08
6.0211e-08
6.10258e-08
6.19325e-08
6.29596e-08
6.40891e-08
6.53624e-08
6.67555e-08
6.82736e-08
6.98796e-08
7.15538e-08
7.32446e-08
7.49001e-08
7.64345e-08
7.77431e-08
7.87527e-08
7.94668e-08
7.99762e-08
8.04729e-08
8.10869e-08
8.17377e-08
8.26455e-08
8.30088e-08
8.17075e-08
7.59216e-08
6.54055e-08
5.35553e-08
4.41891e-08
3.75106e-08
3.04371e-08
4.07525e-08
4.07882e-08
4.0824e-08
4.08626e-08
4.09114e-08
4.09555e-08
4.10138e-08
4.10709e-08
4.1135e-08
4.12093e-08
4.12813e-08
4.13727e-08
4.14585e-08
4.15641e-08
4.16699e-08
4.179e-08
4.19189e-08
4.20565e-08
4.22092e-08
4.2368e-08
4.25439e-08
4.27277e-08
4.29238e-08
4.31301e-08
4.33466e-08
4.35733e-08
4.38078e-08
4.40514e-08
4.42999e-08
4.45521e-08
4.48069e-08
4.50547e-08
4.53028e-08
4.55391e-08
4.57587e-08
4.59663e-08
4.61469e-08
4.63023e-08
4.64213e-08
4.64935e-08
4.65178e-08
4.64942e-08
4.64206e-08
4.6296e-08
4.61248e-08
4.59111e-08
4.56629e-08
4.53834e-08
4.50833e-08
4.47731e-08
4.44521e-08
4.41335e-08
4.38232e-08
4.35201e-08
4.32381e-08
4.29724e-08
4.27272e-08
4.25058e-08
4.23071e-08
4.21322e-08
4.19801e-08
4.18502e-08
4.17406e-08
4.16503e-08
4.1581e-08
4.15236e-08
4.14912e-08
4.14609e-08
4.14615e-08
4.14521e-08
4.14792e-08
4.14889e-08
4.15442e-08
4.15648e-08
4.16434e-08
4.16665e-08
4.17512e-08
4.18015e-08
4.18823e-08
4.19499e-08
4.2033e-08
4.21121e-08
4.21957e-08
4.22782e-08
4.23632e-08
4.24476e-08
4.25333e-08
4.26195e-08
4.27061e-08
4.27949e-08
4.28858e-08
4.29816e-08
4.30819e-08
4.3188e-08
4.33024e-08
4.34264e-08
4.35621e-08
4.37122e-08
4.38765e-08
4.40614e-08
4.42655e-08
4.44897e-08
4.47418e-08
4.50217e-08
4.53347e-08
4.56886e-08
4.60857e-08
4.65391e-08
4.70592e-08
4.76403e-08
4.83077e-08
4.90617e-08
4.99044e-08
5.08347e-08
5.18529e-08
5.29357e-08
5.40547e-08
5.51633e-08
5.61936e-08
5.70977e-08
5.78574e-08
5.8551e-08
5.93045e-08
6.04255e-08
6.20646e-08
6.37735e-08
6.48031e-08
6.45038e-08
6.25707e-08
5.78546e-08
5.09136e-08
4.48396e-08
4.0477e-08
3.50941e-08
3.84845e-08
3.85037e-08
3.85144e-08
3.85256e-08
3.85459e-08
3.85526e-08
3.8577e-08
3.85909e-08
3.86091e-08
3.86349e-08
3.86482e-08
3.86832e-08
3.86976e-08
3.87376e-08
3.87624e-08
3.88003e-08
3.88423e-08
3.88797e-08
3.89337e-08
3.89792e-08
3.90424e-08
3.91008e-08
3.91708e-08
3.92439e-08
3.93201e-08
3.94068e-08
3.94908e-08
3.95869e-08
3.96791e-08
3.97814e-08
3.98787e-08
3.99809e-08
4.00788e-08
4.01763e-08
4.02671e-08
4.03527e-08
4.04284e-08
4.04925e-08
4.05425e-08
4.05717e-08
4.05807e-08
4.05688e-08
4.05352e-08
4.04785e-08
4.04029e-08
4.03094e-08
4.0203e-08
4.0086e-08
3.99626e-08
3.98344e-08
3.97059e-08
3.95779e-08
3.94578e-08
3.93428e-08
3.92382e-08
3.91442e-08
3.90604e-08
3.89886e-08
3.89276e-08
3.88769e-08
3.8836e-08
3.8805e-08
3.87807e-08
3.87614e-08
3.87552e-08
3.87421e-08
3.87482e-08
3.87403e-08
3.8758e-08
3.87595e-08
3.87839e-08
3.8791e-08
3.88206e-08
3.88312e-08
3.88735e-08
3.88839e-08
3.89325e-08
3.89472e-08
3.89889e-08
3.90119e-08
3.90487e-08
3.90757e-08
3.91096e-08
3.91414e-08
3.91751e-08
3.92079e-08
3.92418e-08
3.92759e-08
3.93119e-08
3.93483e-08
3.93866e-08
3.94262e-08
3.94692e-08
3.95147e-08
3.95654e-08
3.9619e-08
3.96769e-08
3.97418e-08
3.98107e-08
3.98883e-08
3.9974e-08
4.00704e-08
4.01793e-08
4.02978e-08
4.04303e-08
4.05835e-08
4.07591e-08
4.09649e-08
4.11951e-08
4.14709e-08
4.17922e-08
4.21761e-08
4.26162e-08
4.3119e-08
4.36824e-08
4.42961e-08
4.49406e-08
4.55943e-08
4.62276e-08
4.68024e-08
4.73372e-08
4.78382e-08
4.8586e-08
4.97447e-08
5.12849e-08
5.28505e-08
5.37451e-08
5.38262e-08
5.30545e-08
5.08039e-08
4.76353e-08
4.49341e-08
4.24555e-08
3.84289e-08
3.79358e-08
3.79474e-08
3.79504e-08
3.79535e-08
3.79641e-08
3.79614e-08
3.79732e-08
3.79733e-08
3.79766e-08
3.79859e-08
3.79809e-08
3.79972e-08
3.79884e-08
3.80066e-08
3.80033e-08
3.80136e-08
3.80261e-08
3.80287e-08
3.80488e-08
3.80548e-08
3.80789e-08
3.80933e-08
3.81184e-08
3.81451e-08
3.817e-08
3.82051e-08
3.82339e-08
3.82745e-08
3.8308e-08
3.83528e-08
3.83886e-08
3.84347e-08
3.84756e-08
3.85171e-08
3.85554e-08
3.85882e-08
3.86197e-08
3.86441e-08
3.86635e-08
3.86731e-08
3.86725e-08
3.86622e-08
3.86417e-08
3.86125e-08
3.85749e-08
3.85301e-08
3.84797e-08
3.84252e-08
3.83662e-08
3.83087e-08
3.82534e-08
3.82024e-08
3.81506e-08
3.81183e-08
3.80763e-08
3.80508e-08
3.80223e-08
3.80075e-08
3.79933e-08
3.79869e-08
3.79849e-08
3.79871e-08
3.79925e-08
3.79972e-08
3.80089e-08
3.80138e-08
3.80336e-08
3.80433e-08
3.80606e-08
3.80658e-08
3.80816e-08
3.80912e-08
3.81056e-08
3.81089e-08
3.81278e-08
3.81247e-08
3.81458e-08
3.81457e-08
3.81623e-08
3.81696e-08
3.8183e-08
3.81902e-08
3.82035e-08
3.82148e-08
3.82265e-08
3.82377e-08
3.82508e-08
3.82634e-08
3.82778e-08
3.82934e-08
3.83093e-08
3.83262e-08
3.83443e-08
3.83627e-08
3.83844e-08
3.84062e-08
3.84304e-08
3.84586e-08
3.84867e-08
3.85163e-08
3.85514e-08
3.85866e-08
3.86235e-08
3.8661e-08
3.87047e-08
3.87555e-08
3.8813e-08
3.88883e-08
3.89688e-08
3.90803e-08
3.92085e-08
3.93724e-08
3.95685e-08
3.98105e-08
4.00939e-08
4.04282e-08
4.08009e-08
4.12008e-08
4.16181e-08
4.20437e-08
4.24691e-08
4.29043e-08
4.34282e-08
4.40354e-08
4.47701e-08
4.56649e-08
4.66951e-08
4.74669e-08
4.73819e-08
4.68239e-08
4.59575e-08
4.4874e-08
4.36727e-08
4.09281e-08
3.78123e-08
3.78226e-08
3.78223e-08
3.78244e-08
3.78345e-08
3.78287e-08
3.78382e-08
3.78332e-08
3.78316e-08
3.78371e-08
3.78267e-08
3.78384e-08
3.78219e-08
3.78345e-08
3.78213e-08
3.78231e-08
3.78245e-08
3.78156e-08
3.78249e-08
3.78164e-08
3.78275e-08
3.78249e-08
3.78341e-08
3.78429e-08
3.78488e-08
3.78644e-08
3.78727e-08
3.78923e-08
3.79038e-08
3.79263e-08
3.79391e-08
3.79623e-08
3.79808e-08
3.79993e-08
3.80172e-08
3.80275e-08
3.80409e-08
3.80503e-08
3.80548e-08
3.80548e-08
3.80485e-08
3.80377e-08
3.80204e-08
3.80002e-08
3.7973e-08
3.79468e-08
3.79146e-08
3.78816e-08
3.78541e-08
3.78211e-08
3.77917e-08
3.7775e-08
3.77407e-08
3.77354e-08
3.77064e-08
3.77099e-08
3.77003e-08
3.77056e-08
3.77112e-08
3.77216e-08
3.77344e-08
3.77504e-08
3.7767e-08
3.77852e-08
3.781e-08
3.78276e-08
3.78458e-08
3.78539e-08
3.78722e-08
3.78841e-08
3.79006e-08
3.79093e-08
3.79242e-08
3.79283e-08
3.79497e-08
3.79459e-08
3.79666e-08
3.79672e-08
3.79778e-08
3.79835e-08
3.79904e-08
3.79945e-08
3.8001e-08
3.80069e-08
3.80126e-08
3.80173e-08
3.80237e-08
3.80302e-08
3.80381e-08
3.80459e-08
3.80544e-08
3.80624e-08
3.8072e-08
3.80816e-08
3.80932e-08
3.81035e-08
3.81159e-08
3.813e-08
3.81412e-08
3.81508e-08
3.81609e-08
3.81677e-08
3.81709e-08
3.81709e-08
3.81716e-08
3.81747e-08
3.81762e-08
3.81885e-08
3.81925e-08
3.82184e-08
3.82451e-08
3.82971e-08
3.83644e-08
3.84658e-08
3.85916e-08
3.87482e-08
3.89295e-08
3.91278e-08
3.93225e-08
3.94868e-08
3.95909e-08
3.9664e-08
3.98474e-08
4.02828e-08
4.1093e-08
4.21877e-08
4.30525e-08
4.35455e-08
4.40127e-08
4.44051e-08
4.47159e-08
4.45996e-08
4.42293e-08
4.2925e-08
3.77953e-08
3.78062e-08
3.78053e-08
3.78069e-08
3.78183e-08
3.78118e-08
3.78216e-08
3.78151e-08
3.78124e-08
3.78179e-08
3.78068e-08
3.78175e-08
3.78e-08
3.78114e-08
3.77956e-08
3.77954e-08
3.77928e-08
3.77821e-08
3.77879e-08
3.77755e-08
3.7783e-08
3.77749e-08
3.77799e-08
3.77817e-08
3.77807e-08
3.77896e-08
3.77893e-08
3.78006e-08
3.78029e-08
3.78166e-08
3.78195e-08
3.7834e-08
3.78428e-08
3.78513e-08
3.78617e-08
3.78632e-08
3.78699e-08
3.78743e-08
3.78723e-08
3.78681e-08
3.78597e-08
3.78487e-08
3.78314e-08
3.78161e-08
3.77929e-08
3.77748e-08
3.77496e-08
3.77261e-08
3.77118e-08
3.76858e-08
3.76667e-08
3.76621e-08
3.76356e-08
3.76542e-08
3.76416e-08
3.76562e-08
3.7654e-08
3.76681e-08
3.76799e-08
3.76954e-08
3.77144e-08
3.77361e-08
3.77565e-08
3.77763e-08
3.77958e-08
3.78065e-08
3.78281e-08
3.784e-08
3.78618e-08
3.78737e-08
3.78907e-08
3.79017e-08
3.79152e-08
3.79169e-08
3.79361e-08
3.79274e-08
3.79449e-08
3.7942e-08
3.79471e-08
3.79495e-08
3.79505e-08
3.79502e-08
3.79527e-08
3.79554e-08
3.7957e-08
3.79578e-08
3.79607e-08
3.79643e-08
3.79687e-08
3.79734e-08
3.79799e-08
3.79877e-08
3.79954e-08
3.80016e-08
3.80095e-08
3.80163e-08
3.80264e-08
3.80346e-08
3.80388e-08
3.80405e-08
3.8041e-08
3.80377e-08
3.80319e-08
3.80214e-08
3.80102e-08
3.79954e-08
3.7976e-08
3.79632e-08
3.79407e-08
3.79337e-08
3.79155e-08
3.79179e-08
3.7922e-08
3.79475e-08
3.79899e-08
3.80569e-08
3.81458e-08
3.82647e-08
3.84155e-08
3.85945e-08
3.87745e-08
3.89716e-08
3.91946e-08
3.94949e-08
3.99421e-08
4.05222e-08
4.11881e-08
4.1891e-08
4.26203e-08
4.31894e-08
4.35651e-08
4.39216e-08
4.41191e-08
4.36583e-08
3.7814e-08
3.78259e-08
3.78261e-08
3.78273e-08
3.78407e-08
3.78351e-08
3.78448e-08
3.78384e-08
3.78348e-08
3.78431e-08
3.7831e-08
3.78415e-08
3.78237e-08
3.78348e-08
3.78188e-08
3.78168e-08
3.78126e-08
3.78019e-08
3.78046e-08
3.77923e-08
3.77974e-08
3.77879e-08
3.77916e-08
3.77894e-08
3.77865e-08
3.7793e-08
3.77904e-08
3.77994e-08
3.7799e-08
3.781e-08
3.78092e-08
3.78209e-08
3.78255e-08
3.78286e-08
3.7835e-08
3.78315e-08
3.78346e-08
3.78358e-08
3.78294e-08
3.78225e-08
3.78122e-08
3.78003e-08
3.77819e-08
3.77678e-08
3.77449e-08
3.77305e-08
3.77069e-08
3.76856e-08
3.76768e-08
3.76532e-08
3.76422e-08
3.76413e-08
3.76144e-08
3.76324e-08
3.76105e-08
3.76266e-08
3.76277e-08
3.76424e-08
3.76565e-08
3.76739e-08
3.76948e-08
3.77165e-08
3.7737e-08
3.77581e-08
3.77826e-08
3.78016e-08
3.7829e-08
3.78462e-08
3.7871e-08
3.78836e-08
3.78993e-08
3.79117e-08
3.79265e-08
3.7929e-08
3.79512e-08
3.79426e-08
3.79632e-08
3.79617e-08
3.79692e-08
3.79741e-08
3.79774e-08
3.7979e-08
3.79824e-08
3.79843e-08
3.79853e-08
3.79862e-08
3.79889e-08
3.7991e-08
3.79947e-08
3.80007e-08
3.80066e-08
3.8012e-08
3.80182e-08
3.8024e-08
3.80312e-08
3.80365e-08
3.80433e-08
3.80497e-08
3.80529e-08
3.80549e-08
3.80559e-08
3.8051e-08
3.80426e-08
3.80289e-08
3.80127e-08
3.79925e-08
3.79655e-08
3.79444e-08
3.79102e-08
3.78911e-08
3.78559e-08
3.78402e-08
3.78184e-08
3.78126e-08
3.78128e-08
3.78273e-08
3.78463e-08
3.78731e-08
3.7904e-08
3.79284e-08
3.79724e-08
3.80399e-08
3.81595e-08
3.83747e-08
3.86765e-08
3.90874e-08
3.96437e-08
4.04187e-08
4.12877e-08
4.17454e-08
4.22716e-08
4.29172e-08
4.35889e-08
4.35988e-08
3.78568e-08
3.78706e-08
3.78748e-08
3.7874e-08
3.78906e-08
3.78843e-08
3.78933e-08
3.78906e-08
3.7887e-08
3.78965e-08
3.78819e-08
3.78955e-08
3.78741e-08
3.78856e-08
3.78722e-08
3.78675e-08
3.78638e-08
3.78504e-08
3.78522e-08
3.78387e-08
3.78416e-08
3.78327e-08
3.78339e-08
3.78289e-08
3.78246e-08
3.78288e-08
3.78243e-08
3.78309e-08
3.7828e-08
3.78369e-08
3.78333e-08
3.78434e-08
3.78457e-08
3.78459e-08
3.78504e-08
3.78446e-08
3.78456e-08
3.78452e-08
3.78366e-08
3.78282e-08
3.78167e-08
3.78037e-08
3.77841e-08
3.77694e-08
3.77456e-08
3.77313e-08
3.7707e-08
3.76851e-08
3.76771e-08
3.76531e-08
3.76438e-08
3.76439e-08
3.76165e-08
3.76377e-08
3.76186e-08
3.76417e-08
3.76458e-08
3.76653e-08
3.76849e-08
3.77081e-08
3.7735e-08
3.77656e-08
3.7795e-08
3.78271e-08
3.78605e-08
3.78848e-08
3.79127e-08
3.79274e-08
3.7951e-08
3.79647e-08
3.79825e-08
3.79941e-08
3.80093e-08
3.80097e-08
3.80313e-08
3.80185e-08
3.80382e-08
3.80339e-08
3.80372e-08
3.804e-08
3.80413e-08
3.80401e-08
3.80406e-08
3.80411e-08
3.80398e-08
3.80386e-08
3.8039e-08
3.80392e-08
3.80403e-08
3.80418e-08
3.80436e-08
3.8047e-08
3.80529e-08
3.8058e-08
3.80647e-08
3.80696e-08
3.80746e-08
3.80805e-08
3.80848e-08
3.80828e-08
3.80777e-08
3.80736e-08
3.80674e-08
3.80562e-08
3.8042e-08
3.80244e-08
3.79994e-08
3.79798e-08
3.79352e-08
3.79073e-08
3.78675e-08
3.7843e-08
3.78109e-08
3.78008e-08
3.77977e-08
3.78069e-08
3.78277e-08
3.78643e-08
3.79072e-08
3.79528e-08
3.8008e-08
3.80832e-08
3.82009e-08
3.83789e-08
3.86398e-08
3.90072e-08
3.95124e-08
4.01679e-08
4.07669e-08
4.10631e-08
4.10896e-08
4.15288e-08
4.25134e-08
4.31734e-08
3.7917e-08
3.79333e-08
3.79421e-08
3.79395e-08
3.79605e-08
3.79544e-08
3.79604e-08
3.7964e-08
3.79607e-08
3.79714e-08
3.79559e-08
3.79725e-08
3.795e-08
3.79626e-08
3.79519e-08
3.7947e-08
3.79391e-08
3.79265e-08
3.79244e-08
3.79104e-08
3.79101e-08
3.79008e-08
3.78959e-08
3.78895e-08
3.7882e-08
3.78836e-08
3.78756e-08
3.78803e-08
3.78739e-08
3.7881e-08
3.78737e-08
3.7882e-08
3.78817e-08
3.78781e-08
3.78814e-08
3.78724e-08
3.78712e-08
3.78689e-08
3.78576e-08
3.78477e-08
3.78347e-08
3.78203e-08
3.77993e-08
3.77839e-08
3.7759e-08
3.7745e-08
3.77205e-08
3.76981e-08
3.76919e-08
3.76674e-08
3.76603e-08
3.76604e-08
3.76317e-08
3.76619e-08
3.76495e-08
3.76773e-08
3.76827e-08
3.77057e-08
3.77248e-08
3.77474e-08
3.77739e-08
3.78016e-08
3.78258e-08
3.78498e-08
3.78722e-08
3.78862e-08
3.79136e-08
3.79275e-08
3.79526e-08
3.79645e-08
3.79809e-08
3.79929e-08
3.80074e-08
3.80091e-08
3.80321e-08
3.80208e-08
3.80424e-08
3.80408e-08
3.80466e-08
3.80519e-08
3.80552e-08
3.8057e-08
3.80597e-08
3.80617e-08
3.80627e-08
3.80631e-08
3.80647e-08
3.80654e-08
3.8066e-08
3.80675e-08
3.80694e-08
3.80745e-08
3.80817e-08
3.80886e-08
3.80968e-08
3.81038e-08
3.81116e-08
3.81194e-08
3.81265e-08
3.81286e-08
3.81281e-08
3.81231e-08
3.81157e-08
3.81036e-08
3.80922e-08
3.80762e-08
3.80525e-08
3.8037e-08
3.80008e-08
3.79783e-08
3.79359e-08
3.79094e-08
3.78682e-08
3.78362e-08
3.7807e-08
3.77923e-08
3.77887e-08
3.78062e-08
3.78441e-08
3.79066e-08
3.79894e-08
3.80801e-08
3.81841e-08
3.83321e-08
3.85678e-08
3.89036e-08
3.93513e-08
3.99091e-08
4.03284e-08
4.04037e-08
3.99827e-08
3.98966e-08
4.08696e-08
4.20452e-08
3.79637e-08
3.79817e-08
3.79934e-08
3.79887e-08
3.8015e-08
3.80098e-08
3.80134e-08
3.80225e-08
3.80185e-08
3.80346e-08
3.8018e-08
3.80375e-08
3.80165e-08
3.80307e-08
3.8022e-08
3.80212e-08
3.80153e-08
3.80066e-08
3.80029e-08
3.79929e-08
3.79913e-08
3.79827e-08
3.79806e-08
3.7973e-08
3.79645e-08
3.79634e-08
3.79533e-08
3.79555e-08
3.79455e-08
3.79497e-08
3.79382e-08
3.79435e-08
3.79409e-08
3.79322e-08
3.79334e-08
3.79211e-08
3.79167e-08
3.79122e-08
3.7898e-08
3.7886e-08
3.78713e-08
3.78548e-08
3.78317e-08
3.78151e-08
3.77886e-08
3.77737e-08
3.77466e-08
3.77228e-08
3.77176e-08
3.76903e-08
3.76858e-08
3.76854e-08
3.7653e-08
3.76816e-08
3.76576e-08
3.76824e-08
3.76869e-08
3.77074e-08
3.77275e-08
3.77503e-08
3.77765e-08
3.78031e-08
3.78267e-08
3.78541e-08
3.78831e-08
3.7903e-08
3.79307e-08
3.79431e-08
3.79673e-08
3.79789e-08
3.79952e-08
3.80064e-08
3.80208e-08
3.80201e-08
3.80427e-08
3.80269e-08
3.80483e-08
3.8044e-08
3.80476e-08
3.80513e-08
3.8053e-08
3.80521e-08
3.80532e-08
3.80543e-08
3.80535e-08
3.80518e-08
3.80513e-08
3.80491e-08
3.8048e-08
3.80469e-08
3.8047e-08
3.80466e-08
3.80485e-08
3.80515e-08
3.80567e-08
3.80608e-08
3.8065e-08
3.80668e-08
3.8069e-08
3.80676e-08
3.80587e-08
3.80505e-08
3.80387e-08
3.80247e-08
3.80103e-08
3.79949e-08
3.79772e-08
3.79685e-08
3.79383e-08
3.79288e-08
3.79038e-08
3.78959e-08
3.78751e-08
3.78639e-08
3.78498e-08
3.78363e-08
3.78218e-08
3.78089e-08
3.77922e-08
3.77855e-08
3.77869e-08
3.78115e-08
3.7891e-08
3.80645e-08
3.83299e-08
3.86786e-08
3.90755e-08
3.95285e-08
3.97004e-08
3.95241e-08
3.93706e-08
3.93839e-08
3.96533e-08
4.05689e-08
3.79906e-08
3.8008e-08
3.80232e-08
3.80142e-08
3.80457e-08
3.80413e-08
3.80425e-08
3.80566e-08
3.80497e-08
3.80727e-08
3.80546e-08
3.8076e-08
3.80581e-08
3.80722e-08
3.80647e-08
3.80644e-08
3.80649e-08
3.80578e-08
3.80574e-08
3.8048e-08
3.805e-08
3.80438e-08
3.80434e-08
3.80391e-08
3.80324e-08
3.80349e-08
3.80259e-08
3.80288e-08
3.80194e-08
3.80236e-08
3.80109e-08
3.80164e-08
3.80141e-08
3.80023e-08
3.80015e-08
3.79858e-08
3.79787e-08
3.7972e-08
3.79535e-08
3.79381e-08
3.79198e-08
3.78996e-08
3.78718e-08
3.78518e-08
3.78201e-08
3.78026e-08
3.77705e-08
3.77446e-08
3.77385e-08
3.7706e-08
3.77017e-08
3.76981e-08
3.76671e-08
3.76959e-08
3.76703e-08
3.7697e-08
3.76986e-08
3.77184e-08
3.77367e-08
3.77565e-08
3.77813e-08
3.78075e-08
3.78301e-08
3.78581e-08
3.78842e-08
3.79002e-08
3.79265e-08
3.79359e-08
3.79584e-08
3.7966e-08
3.7979e-08
3.79865e-08
3.79988e-08
3.79957e-08
3.80165e-08
3.79972e-08
3.8017e-08
3.80081e-08
3.80078e-08
3.8008e-08
3.80058e-08
3.80007e-08
3.79977e-08
3.79948e-08
3.79914e-08
3.79881e-08
3.79857e-08
3.79834e-08
3.79817e-08
3.79805e-08
3.79804e-08
3.79812e-08
3.79824e-08
3.79832e-08
3.79867e-08
3.79897e-08
3.79939e-08
3.79958e-08
3.79977e-08
3.79975e-08
3.79927e-08
3.79864e-08
3.79751e-08
3.79601e-08
3.79438e-08
3.79258e-08
3.79026e-08
3.78873e-08
3.78493e-08
3.78317e-08
3.77964e-08
3.77842e-08
3.7766e-08
3.77711e-08
3.77811e-08
3.78046e-08
3.78302e-08
3.78662e-08
3.79084e-08
3.7967e-08
3.80339e-08
3.81089e-08
3.82013e-08
3.83184e-08
3.85201e-08
3.8818e-08
3.91535e-08
3.93268e-08
3.92609e-08
3.92687e-08
3.91681e-08
3.8898e-08
3.87162e-08
3.91637e-08
3.7987e-08
3.80004e-08
3.80239e-08
3.8011e-08
3.80477e-08
3.80453e-08
3.80441e-08
3.80637e-08
3.80543e-08
3.80817e-08
3.8064e-08
3.80866e-08
3.80732e-08
3.80853e-08
3.80769e-08
3.80765e-08
3.80818e-08
3.80769e-08
3.80768e-08
3.80683e-08
3.80713e-08
3.80666e-08
3.80664e-08
3.8065e-08
3.80598e-08
3.80645e-08
3.80559e-08
3.80605e-08
3.8052e-08
3.80578e-08
3.80455e-08
3.80524e-08
3.80514e-08
3.80383e-08
3.80375e-08
3.80206e-08
3.80112e-08
3.80033e-08
3.79818e-08
3.79636e-08
3.79425e-08
3.79195e-08
3.78878e-08
3.78656e-08
3.78306e-08
3.78122e-08
3.77779e-08
3.77504e-08
3.77438e-08
3.77087e-08
3.77035e-08
3.7697e-08
3.7665e-08
3.76909e-08
3.76628e-08
3.76866e-08
3.76839e-08
3.77013e-08
3.77167e-08
3.77342e-08
3.77583e-08
3.77831e-08
3.78042e-08
3.78314e-08
3.78563e-08
3.78719e-08
3.78993e-08
3.79089e-08
3.79341e-08
3.79437e-08
3.79608e-08
3.7974e-08
3.79882e-08
3.79887e-08
3.80115e-08
3.79947e-08
3.80175e-08
3.80123e-08
3.80147e-08
3.80185e-08
3.80199e-08
3.80176e-08
3.80174e-08
3.80173e-08
3.80144e-08
3.80127e-08
3.80122e-08
3.80106e-08
3.80101e-08
3.80107e-08
3.8012e-08
3.80127e-08
3.80119e-08
3.8013e-08
3.80172e-08
3.80212e-08
3.8026e-08
3.80277e-08
3.80246e-08
3.80222e-08
3.80184e-08
3.80129e-08
3.80045e-08
3.79908e-08
3.79742e-08
3.79537e-08
3.79239e-08
3.79025e-08
3.78582e-08
3.78318e-08
3.77816e-08
3.77524e-08
3.77089e-08
3.76846e-08
3.76585e-08
3.76461e-08
3.76374e-08
3.76425e-08
3.76563e-08
3.76779e-08
3.76979e-08
3.7716e-08
3.77356e-08
3.77879e-08
3.7902e-08
3.80891e-08
3.82743e-08
3.83606e-08
3.84378e-08
3.84702e-08
3.84205e-08
3.82471e-08
3.80553e-08
3.79265e-08
3.79828e-08
3.79917e-08
3.80225e-08
3.80065e-08
3.80467e-08
3.80486e-08
3.8045e-08
3.80689e-08
3.80575e-08
3.80877e-08
3.80699e-08
3.80935e-08
3.80849e-08
3.8093e-08
3.80831e-08
3.80825e-08
3.80897e-08
3.80881e-08
3.80857e-08
3.80782e-08
3.80801e-08
3.80757e-08
3.80738e-08
3.8075e-08
3.80695e-08
3.80738e-08
3.80655e-08
3.80689e-08
3.80604e-08
3.8066e-08
3.80533e-08
3.80598e-08
3.80589e-08
3.8044e-08
3.80429e-08
3.8025e-08
3.80139e-08
3.80056e-08
3.79831e-08
3.79643e-08
3.79428e-08
3.79192e-08
3.78866e-08
3.78639e-08
3.78279e-08
3.78088e-08
3.77731e-08
3.7744e-08
3.77364e-08
3.76977e-08
3.76913e-08
3.7681e-08
3.76467e-08
3.7676e-08
3.76472e-08
3.76784e-08
3.76796e-08
3.77032e-08
3.77246e-08
3.775e-08
3.77841e-08
3.78197e-08
3.78521e-08
3.78927e-08
3.79304e-08
3.79571e-08
3.79949e-08
3.80119e-08
3.80452e-08
3.80594e-08
3.80771e-08
3.80878e-08
3.81017e-08
3.80993e-08
3.81227e-08
3.8103e-08
3.81267e-08
3.81174e-08
3.8117e-08
3.81189e-08
3.81167e-08
3.81093e-08
3.8105e-08
3.8101e-08
3.80925e-08
3.8086e-08
3.80819e-08
3.80783e-08
3.80754e-08
3.80743e-08
3.80749e-08
3.80738e-08
3.80714e-08
3.807e-08
3.80713e-08
3.80733e-08
3.80759e-08
3.80743e-08
3.80667e-08
3.80605e-08
3.80532e-08
3.80465e-08
3.80356e-08
3.80201e-08
3.80021e-08
3.79806e-08
3.79506e-08
3.79314e-08
3.7885e-08
3.78605e-08
3.78087e-08
3.77817e-08
3.77386e-08
3.77185e-08
3.76917e-08
3.76767e-08
3.76592e-08
3.76539e-08
3.76508e-08
3.76508e-08
3.76469e-08
3.76516e-08
3.7672e-08
3.77301e-08
3.78475e-08
3.80304e-08
3.82489e-08
3.83859e-08
3.83961e-08
3.83397e-08
3.82221e-08
3.80387e-08
3.78104e-08
3.7618e-08
3.79823e-08
3.79865e-08
3.80227e-08
3.80057e-08
3.80501e-08
3.80556e-08
3.80507e-08
3.80803e-08
3.80685e-08
3.81028e-08
3.80875e-08
3.81105e-08
3.81074e-08
3.8111e-08
3.81e-08
3.80972e-08
3.8106e-08
3.81081e-08
3.81023e-08
3.80928e-08
3.80932e-08
3.80881e-08
3.80848e-08
3.80858e-08
3.80799e-08
3.8083e-08
3.80745e-08
3.80755e-08
3.80671e-08
3.80717e-08
3.80589e-08
3.8064e-08
3.80631e-08
3.80469e-08
3.80461e-08
3.80278e-08
3.80154e-08
3.80071e-08
3.79831e-08
3.7963e-08
3.79403e-08
3.79151e-08
3.78805e-08
3.78563e-08
3.78181e-08
3.77986e-08
3.77602e-08
3.77317e-08
3.77257e-08
3.76851e-08
3.76857e-08
3.76779e-08
3.76454e-08
3.76824e-08
3.76562e-08
3.76958e-08
3.77034e-08
3.77353e-08
3.77646e-08
3.7797e-08
3.78363e-08
3.78745e-08
3.79079e-08
3.79478e-08
3.79826e-08
3.80072e-08
3.80414e-08
3.80547e-08
3.80846e-08
3.80956e-08
3.81194e-08
3.814e-08
3.81585e-08
3.81594e-08
3.81855e-08
3.81658e-08
3.81929e-08
3.81858e-08
3.8184e-08
3.81862e-08
3.81859e-08
3.81769e-08
3.81705e-08
3.81642e-08
3.81533e-08
3.81445e-08
3.81391e-08
3.81339e-08
3.81297e-08
3.81274e-08
3.81266e-08
3.81239e-08
3.81209e-08
3.8119e-08
3.81196e-08
3.81214e-08
3.8122e-08
3.81169e-08
3.81072e-08
3.80979e-08
3.80849e-08
3.80727e-08
3.80568e-08
3.80369e-08
3.80167e-08
3.79907e-08
3.79535e-08
3.79301e-08
3.78749e-08
3.78441e-08
3.77802e-08
3.77441e-08
3.76914e-08
3.76653e-08
3.76313e-08
3.76142e-08
3.75962e-08
3.7596e-08
3.75999e-08
3.76028e-08
3.75989e-08
3.75909e-08
3.75935e-08
3.76214e-08
3.7689e-08
3.78068e-08
3.79629e-08
3.80834e-08
3.81736e-08
3.81639e-08
3.80382e-08
3.78296e-08
3.76228e-08
3.74482e-08
3.79729e-08
3.79736e-08
3.80157e-08
3.79979e-08
3.80459e-08
3.80552e-08
3.80481e-08
3.80831e-08
3.80719e-08
3.81101e-08
3.80999e-08
3.81216e-08
3.81221e-08
3.81298e-08
3.8126e-08
3.81249e-08
3.81352e-08
3.81406e-08
3.81371e-08
3.81247e-08
3.81229e-08
3.81147e-08
3.81093e-08
3.81083e-08
3.80997e-08
3.81016e-08
3.80905e-08
3.80901e-08
3.8079e-08
3.80828e-08
3.8069e-08
3.80741e-08
3.80733e-08
3.80533e-08
3.80543e-08
3.80361e-08
3.80209e-08
3.80125e-08
3.7987e-08
3.79661e-08
3.79428e-08
3.79168e-08
3.78811e-08
3.78567e-08
3.78176e-08
3.77989e-08
3.77595e-08
3.77326e-08
3.77284e-08
3.76878e-08
3.76926e-08
3.76863e-08
3.76549e-08
3.76984e-08
3.76728e-08
3.77172e-08
3.77256e-08
3.77592e-08
3.77891e-08
3.78227e-08
3.78645e-08
3.79059e-08
3.79437e-08
3.79912e-08
3.80344e-08
3.80681e-08
3.81138e-08
3.81391e-08
3.81853e-08
3.82104e-08
3.82387e-08
3.82625e-08
3.82878e-08
3.82926e-08
3.83249e-08
3.8307e-08
3.83403e-08
3.83397e-08
3.83397e-08
3.83484e-08
3.83532e-08
3.83519e-08
3.83522e-08
3.83542e-08
3.83526e-08
3.83486e-08
3.83464e-08
3.8344e-08
3.83427e-08
3.83428e-08
3.83439e-08
3.8342e-08
3.83386e-08
3.83372e-08
3.83411e-08
3.83456e-08
3.8348e-08
3.83454e-08
3.83407e-08
3.83357e-08
3.83207e-08
3.83086e-08
3.82889e-08
3.82662e-08
3.82444e-08
3.82177e-08
3.8176e-08
3.81518e-08
3.80878e-08
3.80533e-08
3.79791e-08
3.79328e-08
3.78604e-08
3.78218e-08
3.77654e-08
3.77258e-08
3.7681e-08
3.7658e-08
3.76365e-08
3.76158e-08
3.75883e-08
3.75515e-08
3.75318e-08
3.75585e-08
3.76421e-08
3.779e-08
3.79768e-08
3.81171e-08
3.8145e-08
3.80682e-08
3.79002e-08
3.77079e-08
3.75493e-08
3.74228e-08
3.79489e-08
3.79475e-08
3.79946e-08
3.79754e-08
3.8029e-08
3.8044e-08
3.80338e-08
3.80763e-08
3.80661e-08
3.81073e-08
3.81008e-08
3.81221e-08
3.81247e-08
3.81359e-08
3.81391e-08
3.81411e-08
3.81544e-08
3.81653e-08
3.81671e-08
3.81586e-08
3.81581e-08
3.81515e-08
3.81466e-08
3.81464e-08
3.81384e-08
3.81394e-08
3.81284e-08
3.81251e-08
3.81124e-08
3.81122e-08
3.80968e-08
3.80981e-08
3.80967e-08
3.80735e-08
3.80723e-08
3.80528e-08
3.80349e-08
3.8026e-08
3.79985e-08