/*--------------------------------*- C++ -*----------------------------------*\
| =========                 |                                                 |
| \\      /  F ield         | OpenFOAM: The Open Source CFD Toolbox           |
|  \\    /   O peration     | Version:  v1912                                 |
|   \\  /    A nd           | Website:  www.openfoam.com                      |
|    \\/     M anipulation  |                                                 |
\*---------------------------------------------------------------------------*/
FoamFile
{
    version     2.0;
    format      ascii;
    class       volScalarField;
    location    "50";
    object      nut;
}
// * * * * * * * * * * * * * * * * * * * * * * * * * * * * * * * * * * * * * //

dimensions      [0 2 -1 0 0 0 0];


internalField   nonuniform List<scalar> 
14268
(
2.87254e-13
2.88188e-13
2.89083e-13
2.89938e-13
2.90755e-13
2.91535e-13
2.9228e-13
2.92991e-13
2.93669e-13
2.94315e-13
2.94932e-13
2.9552e-13
2.9608e-13
2.96613e-13
2.97122e-13
2.97605e-13
2.98066e-13
2.98504e-13
2.98921e-13
2.99317e-13
2.99694e-13
3.00052e-13
3.00392e-13
3.00715e-13
3.01022e-13
3.01313e-13
3.0159e-13
3.01852e-13
3.02101e-13
3.02337e-13
3.0256e-13
3.02772e-13
3.02973e-13
3.03164e-13
3.03344e-13
3.03514e-13
3.03676e-13
3.03829e-13
3.03973e-13
3.0411e-13
3.04239e-13
3.04361e-13
3.04477e-13
3.04586e-13
3.04689e-13
3.04786e-13
3.04878e-13
3.04964e-13
3.05046e-13
3.05123e-13
3.05195e-13
3.05264e-13
3.05328e-13
3.05389e-13
3.05446e-13
3.055e-13
3.05551e-13
3.05598e-13
3.05643e-13
3.05685e-13
3.05725e-13
3.05762e-13
3.05797e-13
3.0583e-13
3.05861e-13
3.05889e-13
3.05917e-13
3.05942e-13
3.05966e-13
3.05988e-13
3.06009e-13
3.06029e-13
3.06047e-13
3.06064e-13
3.0608e-13
3.06095e-13
3.06109e-13
3.06123e-13
3.06135e-13
3.06146e-13
3.06157e-13
3.06167e-13
3.06176e-13
3.06185e-13
3.06193e-13
3.06201e-13
3.06208e-13
3.06214e-13
3.0622e-13
3.06226e-13
3.06231e-13
3.06236e-13
3.0624e-13
3.06245e-13
3.06249e-13
3.06252e-13
3.06256e-13
3.06259e-13
3.06262e-13
3.06264e-13
3.06267e-13
3.06269e-13
3.06271e-13
3.06273e-13
3.06275e-13
3.06276e-13
3.06278e-13
3.06279e-13
3.06281e-13
3.06282e-13
3.06283e-13
3.06284e-13
3.06285e-13
3.06285e-13
3.06286e-13
3.06287e-13
3.06287e-13
3.06288e-13
3.06288e-13
3.06289e-13
3.06289e-13
3.06289e-13
3.06289e-13
3.0629e-13
3.06289e-13
3.0629e-13
3.06289e-13
3.0629e-13
3.06289e-13
3.0629e-13
3.06288e-13
3.06289e-13
3.06287e-13
3.06289e-13
3.06287e-13
3.06289e-13
3.06287e-13
3.0629e-13
3.06288e-13
3.06293e-13
3.0629e-13
3.06295e-13
3.06293e-13
3.06299e-13
3.06298e-13
3.06302e-13
3.063e-13
3.06303e-13
3.06301e-13
3.06303e-13
3.06301e-13
3.06302e-13
3.06301e-13
3.06301e-13
3.063e-13
3.06301e-13
3.063e-13
3.063e-13
3.063e-13
3.063e-13
3.06303e-13
3.06304e-13
3.06448e-13
3.09579e-13
4.74479e-11
4.76206e-11
4.77862e-11
4.79445e-11
4.80958e-11
4.82404e-11
4.83785e-11
4.85103e-11
4.86362e-11
4.87562e-11
4.88708e-11
4.898e-11
4.90841e-11
4.91833e-11
4.92778e-11
4.93678e-11
4.94535e-11
4.9535e-11
4.96126e-11
4.96864e-11
4.97566e-11
4.98233e-11
4.98868e-11
4.9947e-11
5.00042e-11
5.00586e-11
5.01102e-11
5.01591e-11
5.02055e-11
5.02496e-11
5.02913e-11
5.03309e-11
5.03684e-11
5.0404e-11
5.04376e-11
5.04695e-11
5.04997e-11
5.05282e-11
5.05552e-11
5.05808e-11
5.06049e-11
5.06277e-11
5.06493e-11
5.06697e-11
5.06889e-11
5.07071e-11
5.07243e-11
5.07404e-11
5.07557e-11
5.07701e-11
5.07837e-11
5.07965e-11
5.08085e-11
5.08199e-11
5.08306e-11
5.08406e-11
5.08501e-11
5.0859e-11
5.08674e-11
5.08753e-11
5.08827e-11
5.08897e-11
5.08962e-11
5.09023e-11
5.09081e-11
5.09135e-11
5.09186e-11
5.09233e-11
5.09278e-11
5.0932e-11
5.09359e-11
5.09396e-11
5.0943e-11
5.09462e-11
5.09492e-11
5.0952e-11
5.09547e-11
5.09571e-11
5.09594e-11
5.09616e-11
5.09636e-11
5.09654e-11
5.09672e-11
5.09688e-11
5.09703e-11
5.09717e-11
5.0973e-11
5.09743e-11
5.09754e-11
5.09764e-11
5.09774e-11
5.09783e-11
5.09792e-11
5.098e-11
5.09807e-11
5.09814e-11
5.0982e-11
5.09826e-11
5.09831e-11
5.09836e-11
5.09841e-11
5.09845e-11
5.09849e-11
5.09853e-11
5.09856e-11
5.09859e-11
5.09862e-11
5.09865e-11
5.09867e-11
5.09869e-11
5.09871e-11
5.09873e-11
5.09875e-11
5.09876e-11
5.09878e-11
5.09879e-11
5.0988e-11
5.09881e-11
5.09882e-11
5.09882e-11
5.09883e-11
5.09884e-11
5.09883e-11
5.09884e-11
5.09884e-11
5.09885e-11
5.09883e-11
5.09885e-11
5.09883e-11
5.09884e-11
5.09882e-11
5.09884e-11
5.0988e-11
5.09883e-11
5.09879e-11
5.09884e-11
5.09879e-11
5.09885e-11
5.09881e-11
5.0989e-11
5.09885e-11
5.09894e-11
5.09891e-11
5.09901e-11
5.09899e-11
5.09905e-11
5.09903e-11
5.09907e-11
5.09904e-11
5.09907e-11
5.09904e-11
5.09906e-11
5.09903e-11
5.09904e-11
5.09902e-11
5.09903e-11
5.09901e-11
5.09902e-11
5.09901e-11
5.09903e-11
5.09907e-11
5.09909e-11
5.10149e-11
5.15126e-11
9.16199e-10
9.19651e-10
9.22962e-10
9.26126e-10
9.29154e-10
9.32044e-10
9.34807e-10
9.37444e-10
9.39963e-10
9.42365e-10
9.44657e-10
9.46842e-10
9.48927e-10
9.50912e-10
9.52804e-10
9.54605e-10
9.56322e-10
9.57954e-10
9.59508e-10
9.60986e-10
9.62392e-10
9.63728e-10
9.64998e-10
9.66205e-10
9.67351e-10
9.68439e-10
9.69473e-10
9.70453e-10
9.71383e-10
9.72265e-10
9.73102e-10
9.73895e-10
9.74646e-10
9.75358e-10
9.76033e-10
9.76671e-10
9.77276e-10
9.77848e-10
9.78389e-10
9.78901e-10
9.79385e-10
9.79842e-10
9.80274e-10
9.80683e-10
9.81068e-10
9.81432e-10
9.81776e-10
9.82101e-10
9.82407e-10
9.82695e-10
9.82967e-10
9.83224e-10
9.83465e-10
9.83693e-10
9.83907e-10
9.84109e-10
9.84299e-10
9.84477e-10
9.84645e-10
9.84803e-10
9.84952e-10
9.85091e-10
9.85222e-10
9.85345e-10
9.85461e-10
9.85569e-10
9.85671e-10
9.85766e-10
9.85856e-10
9.8594e-10
9.86018e-10
9.86092e-10
9.8616e-10
9.86225e-10
9.86285e-10
9.86341e-10
9.86394e-10
9.86443e-10
9.86489e-10
9.86532e-10
9.86572e-10
9.8661e-10
9.86645e-10
9.86677e-10
9.86707e-10
9.86736e-10
9.86762e-10
9.86787e-10
9.86809e-10
9.86831e-10
9.8685e-10
9.86869e-10
9.86886e-10
9.86901e-10
9.86916e-10
9.8693e-10
9.86942e-10
9.86954e-10
9.86965e-10
9.86975e-10
9.86984e-10
9.86992e-10
9.87e-10
9.87008e-10
9.87014e-10
9.8702e-10
9.87026e-10
9.87031e-10
9.87036e-10
9.8704e-10
9.87044e-10
9.87048e-10
9.87051e-10
9.87054e-10
9.87057e-10
9.8706e-10
9.87062e-10
9.87064e-10
9.87065e-10
9.87067e-10
9.87068e-10
9.87069e-10
9.87069e-10
9.87071e-10
9.87069e-10
9.87072e-10
9.87069e-10
9.87072e-10
9.87067e-10
9.87071e-10
9.87065e-10
9.8707e-10
9.87063e-10
9.87069e-10
9.87061e-10
9.87069e-10
9.87061e-10
9.87073e-10
9.87064e-10
9.87081e-10
9.87073e-10
9.8709e-10
9.87084e-10
9.87104e-10
9.87099e-10
9.87111e-10
9.87106e-10
9.87114e-10
9.87109e-10
9.87114e-10
9.87109e-10
9.87112e-10
9.87108e-10
9.87109e-10
9.87106e-10
9.87107e-10
9.87104e-10
9.87106e-10
9.87104e-10
9.87106e-10
9.87114e-10
9.87119e-10
9.87578e-10
9.96293e-10
6.1521e-09
6.17565e-09
6.19824e-09
6.21983e-09
6.24048e-09
6.2602e-09
6.27905e-09
6.29704e-09
6.31422e-09
6.33061e-09
6.34626e-09
6.36116e-09
6.37539e-09
6.38893e-09
6.40185e-09
6.41414e-09
6.42585e-09
6.43699e-09
6.44759e-09
6.45768e-09
6.46727e-09
6.47639e-09
6.48506e-09
6.49329e-09
6.50111e-09
6.50854e-09
6.51559e-09
6.52228e-09
6.52863e-09
6.53465e-09
6.54036e-09
6.54577e-09
6.5509e-09
6.55576e-09
6.56036e-09
6.56472e-09
6.56885e-09
6.57275e-09
6.57644e-09
6.57994e-09
6.58324e-09
6.58636e-09
6.58931e-09
6.5921e-09
6.59473e-09
6.59722e-09
6.59956e-09
6.60178e-09
6.60387e-09
6.60584e-09
6.60769e-09
6.60944e-09
6.61109e-09
6.61265e-09
6.61411e-09
6.61549e-09
6.61678e-09
6.618e-09
6.61915e-09
6.62022e-09
6.62124e-09
6.62219e-09
6.62309e-09
6.62392e-09
6.62471e-09
6.62545e-09
6.62615e-09
6.6268e-09
6.62741e-09
6.62798e-09
6.62852e-09
6.62902e-09
6.62949e-09
6.62993e-09
6.63034e-09
6.63072e-09
6.63108e-09
6.63142e-09
6.63173e-09
6.63203e-09
6.6323e-09
6.63255e-09
6.63279e-09
6.63302e-09
6.63322e-09
6.63341e-09
6.63359e-09
6.63376e-09
6.63392e-09
6.63406e-09
6.6342e-09
6.63432e-09
6.63444e-09
6.63454e-09
6.63464e-09
6.63474e-09
6.63482e-09
6.6349e-09
6.63498e-09
6.63505e-09
6.63511e-09
6.63517e-09
6.63522e-09
6.63527e-09
6.63532e-09
6.63536e-09
6.6354e-09
6.63543e-09
6.63546e-09
6.63549e-09
6.63552e-09
6.63555e-09
6.63557e-09
6.63559e-09
6.63561e-09
6.63562e-09
6.63564e-09
6.63565e-09
6.63566e-09
6.63567e-09
6.63568e-09
6.63569e-09
6.63569e-09
6.6357e-09
6.63569e-09
6.63571e-09
6.63569e-09
6.63571e-09
6.63568e-09
6.6357e-09
6.63567e-09
6.63569e-09
6.63565e-09
6.63569e-09
6.63564e-09
6.63569e-09
6.63563e-09
6.63572e-09
6.63566e-09
6.63577e-09
6.63572e-09
6.63583e-09
6.63579e-09
6.63592e-09
6.63589e-09
6.63597e-09
6.63594e-09
6.63599e-09
6.63596e-09
6.63599e-09
6.63596e-09
6.63598e-09
6.63595e-09
6.63596e-09
6.63594e-09
6.63594e-09
6.63592e-09
6.63593e-09
6.63592e-09
6.63594e-09
6.63599e-09
6.63602e-09
6.63904e-09
6.69095e-09
2.30033e-08
2.30885e-08
2.31702e-08
2.32483e-08
2.3323e-08
2.33943e-08
2.34624e-08
2.35274e-08
2.35894e-08
2.36486e-08
2.37051e-08
2.37589e-08
2.38102e-08
2.38591e-08
2.39057e-08
2.395e-08
2.39923e-08
2.40324e-08
2.40707e-08
2.4107e-08
2.41416e-08
2.41744e-08
2.42057e-08
2.42353e-08
2.42635e-08
2.42903e-08
2.43157e-08
2.43398e-08
2.43627e-08
2.43843e-08
2.44049e-08
2.44244e-08
2.44429e-08
2.44604e-08
2.44769e-08
2.44926e-08
2.45075e-08
2.45215e-08
2.45348e-08
2.45474e-08
2.45593e-08
2.45705e-08
2.45812e-08
2.45912e-08
2.46007e-08
2.46096e-08
2.46181e-08
2.4626e-08
2.46335e-08
2.46406e-08
2.46473e-08
2.46536e-08
2.46595e-08
2.46651e-08
2.46704e-08
2.46754e-08
2.468e-08
2.46844e-08
2.46885e-08
2.46924e-08
2.46961e-08
2.46995e-08
2.47027e-08
2.47057e-08
2.47086e-08
2.47112e-08
2.47137e-08
2.47161e-08
2.47183e-08
2.47203e-08
2.47223e-08
2.47241e-08
2.47258e-08
2.47273e-08
2.47288e-08
2.47302e-08
2.47315e-08
2.47327e-08
2.47338e-08
2.47349e-08
2.47359e-08
2.47368e-08
2.47377e-08
2.47385e-08
2.47392e-08
2.47399e-08
2.47405e-08
2.47411e-08
2.47417e-08
2.47422e-08
2.47427e-08
2.47432e-08
2.47436e-08
2.4744e-08
2.47443e-08
2.47447e-08
2.4745e-08
2.47453e-08
2.47455e-08
2.47458e-08
2.4746e-08
2.47462e-08
2.47464e-08
2.47466e-08
2.47467e-08
2.47469e-08
2.4747e-08
2.47472e-08
2.47473e-08
2.47474e-08
2.47475e-08
2.47476e-08
2.47477e-08
2.47477e-08
2.47478e-08
2.47479e-08
2.47479e-08
2.4748e-08
2.4748e-08
2.4748e-08
2.47481e-08
2.47481e-08
2.47481e-08
2.47481e-08
2.47481e-08
2.47482e-08
2.47481e-08
2.47482e-08
2.47481e-08
2.47481e-08
2.4748e-08
2.47481e-08
2.4748e-08
2.47481e-08
2.47479e-08
2.47481e-08
2.47479e-08
2.47482e-08
2.4748e-08
2.47484e-08
2.47482e-08
2.47486e-08
2.47485e-08
2.47489e-08
2.47488e-08
2.47491e-08
2.4749e-08
2.47492e-08
2.47491e-08
2.47492e-08
2.47491e-08
2.47491e-08
2.4749e-08
2.47491e-08
2.4749e-08
2.4749e-08
2.47489e-08
2.4749e-08
2.47489e-08
2.4749e-08
2.47492e-08
2.47493e-08
2.476e-08
2.49282e-08
5.87467e-08
5.89438e-08
5.91327e-08
5.93131e-08
5.94855e-08
5.96499e-08
5.9807e-08
5.99568e-08
6.00997e-08
6.02359e-08
6.03659e-08
6.04896e-08
6.06076e-08
6.07199e-08
6.08269e-08
6.09287e-08
6.10256e-08
6.11178e-08
6.12055e-08
6.12888e-08
6.13681e-08
6.14434e-08
6.15149e-08
6.15829e-08
6.16474e-08
6.17087e-08
6.17668e-08
6.1822e-08
6.18743e-08
6.19239e-08
6.1971e-08
6.20155e-08
6.20578e-08
6.20978e-08
6.21357e-08
6.21716e-08
6.22055e-08
6.22376e-08
6.2268e-08
6.22968e-08
6.23239e-08
6.23496e-08
6.23739e-08
6.23968e-08
6.24185e-08
6.24389e-08
6.24582e-08
6.24764e-08
6.24936e-08
6.25097e-08
6.2525e-08
6.25394e-08
6.25529e-08
6.25657e-08
6.25777e-08
6.2589e-08
6.25997e-08
6.26097e-08
6.26191e-08
6.2628e-08
6.26363e-08
6.26442e-08
6.26515e-08
6.26584e-08
6.26649e-08
6.2671e-08
6.26767e-08
6.2682e-08
6.2687e-08
6.26917e-08
6.26961e-08
6.27003e-08
6.27041e-08
6.27077e-08
6.27111e-08
6.27143e-08
6.27172e-08
6.272e-08
6.27226e-08
6.2725e-08
6.27273e-08
6.27294e-08
6.27313e-08
6.27331e-08
6.27348e-08
6.27364e-08
6.27379e-08
6.27393e-08
6.27406e-08
6.27418e-08
6.27429e-08
6.27439e-08
6.27448e-08
6.27457e-08
6.27466e-08
6.27473e-08
6.2748e-08
6.27487e-08
6.27493e-08
6.27499e-08
6.27504e-08
6.27509e-08
6.27513e-08
6.27517e-08
6.27521e-08
6.27524e-08
6.27528e-08
6.27531e-08
6.27533e-08
6.27536e-08
6.27538e-08
6.2754e-08
6.27542e-08
6.27544e-08
6.27545e-08
6.27546e-08
6.27548e-08
6.27549e-08
6.2755e-08
6.27551e-08
6.27551e-08
6.27552e-08
6.27552e-08
6.27553e-08
6.27552e-08
6.27553e-08
6.27552e-08
6.27553e-08
6.27551e-08
6.27553e-08
6.2755e-08
6.27552e-08
6.27548e-08
6.27552e-08
6.27547e-08
6.27552e-08
6.27547e-08
6.27554e-08
6.27549e-08
6.27559e-08
6.27554e-08
6.27564e-08
6.2756e-08
6.27571e-08
6.27569e-08
6.27575e-08
6.27573e-08
6.27577e-08
6.27574e-08
6.27577e-08
6.27574e-08
6.27576e-08
6.27573e-08
6.27574e-08
6.27572e-08
6.27573e-08
6.27571e-08
6.27572e-08
6.27571e-08
6.27573e-08
6.27577e-08
6.2758e-08
6.27825e-08
6.31411e-08
1.13518e-07
1.13835e-07
1.14139e-07
1.14429e-07
1.14705e-07
1.14969e-07
1.15221e-07
1.1546e-07
1.15689e-07
1.15906e-07
1.16113e-07
1.16311e-07
1.16499e-07
1.16677e-07
1.16848e-07
1.17009e-07
1.17164e-07
1.1731e-07
1.17449e-07
1.17581e-07
1.17707e-07
1.17826e-07
1.1794e-07
1.18047e-07
1.1815e-07
1.18247e-07
1.18339e-07
1.18426e-07
1.18509e-07
1.18587e-07
1.18661e-07
1.18732e-07
1.18799e-07
1.18862e-07
1.18922e-07
1.18978e-07
1.19032e-07
1.19083e-07
1.19131e-07
1.19176e-07
1.19219e-07
1.19259e-07
1.19298e-07
1.19334e-07
1.19368e-07
1.194e-07
1.19431e-07
1.19459e-07
1.19486e-07
1.19512e-07
1.19536e-07
1.19558e-07
1.1958e-07
1.196e-07
1.19619e-07
1.19637e-07
1.19654e-07
1.19669e-07
1.19684e-07
1.19698e-07
1.19711e-07
1.19724e-07
1.19735e-07
1.19746e-07
1.19756e-07
1.19766e-07
1.19775e-07
1.19783e-07
1.19791e-07
1.19799e-07
1.19805e-07
1.19812e-07
1.19818e-07
1.19824e-07
1.19829e-07
1.19834e-07
1.19839e-07
1.19843e-07
1.19847e-07
1.19851e-07
1.19854e-07
1.19858e-07
1.19861e-07
1.19864e-07
1.19866e-07
1.19869e-07
1.19871e-07
1.19873e-07
1.19875e-07
1.19877e-07
1.19879e-07
1.19881e-07
1.19882e-07
1.19884e-07
1.19885e-07
1.19886e-07
1.19887e-07
1.19888e-07
1.19889e-07
1.1989e-07
1.19891e-07
1.19892e-07
1.19892e-07
1.19893e-07
1.19894e-07
1.19894e-07
1.19895e-07
1.19895e-07
1.19896e-07
1.19896e-07
1.19896e-07
1.19897e-07
1.19897e-07
1.19897e-07
1.19898e-07
1.19898e-07
1.19898e-07
1.19898e-07
1.19898e-07
1.19898e-07
1.19898e-07
1.19899e-07
1.19899e-07
1.19899e-07
1.19899e-07
1.19899e-07
1.19899e-07
1.19899e-07
1.19898e-07
1.19899e-07
1.19898e-07
1.19899e-07
1.19898e-07
1.19899e-07
1.19898e-07
1.19899e-07
1.19898e-07
1.19899e-07
1.19898e-07
1.199e-07
1.19899e-07
1.19901e-07
1.199e-07
1.19902e-07
1.19901e-07
1.19902e-07
1.19902e-07
1.19903e-07
1.19902e-07
1.19903e-07
1.19902e-07
1.19902e-07
1.19902e-07
1.19902e-07
1.19902e-07
1.19902e-07
1.19902e-07
1.19902e-07
1.19902e-07
1.19902e-07
1.19903e-07
1.19903e-07
1.19942e-07
1.20491e-07
1.76981e-07
1.77361e-07
1.77725e-07
1.78071e-07
1.78401e-07
1.78715e-07
1.79015e-07
1.793e-07
1.79572e-07
1.7983e-07
1.80076e-07
1.8031e-07
1.80533e-07
1.80745e-07
1.80947e-07
1.81138e-07
1.8132e-07
1.81493e-07
1.81658e-07
1.81814e-07
1.81962e-07
1.82103e-07
1.82237e-07
1.82364e-07
1.82484e-07
1.82598e-07
1.82707e-07
1.82809e-07
1.82907e-07
1.82999e-07
1.83087e-07
1.8317e-07
1.83248e-07
1.83322e-07
1.83393e-07
1.83459e-07
1.83522e-07
1.83582e-07
1.83638e-07
1.83692e-07
1.83742e-07
1.83789e-07
1.83834e-07
1.83877e-07
1.83917e-07
1.83955e-07
1.8399e-07
1.84024e-07
1.84056e-07
1.84086e-07
1.84114e-07
1.84141e-07
1.84166e-07
1.84189e-07
1.84212e-07
1.84232e-07
1.84252e-07
1.84271e-07
1.84288e-07
1.84304e-07
1.8432e-07
1.84334e-07
1.84348e-07
1.84361e-07
1.84373e-07
1.84384e-07
1.84394e-07
1.84404e-07
1.84414e-07
1.84422e-07
1.8443e-07
1.84438e-07
1.84445e-07
1.84452e-07
1.84458e-07
1.84464e-07
1.84469e-07
1.84475e-07
1.84479e-07
1.84484e-07
1.84488e-07
1.84492e-07
1.84495e-07
1.84499e-07
1.84502e-07
1.84505e-07
1.84508e-07
1.8451e-07
1.84513e-07
1.84515e-07
1.84517e-07
1.84519e-07
1.84521e-07
1.84522e-07
1.84524e-07
1.84525e-07
1.84526e-07
1.84528e-07
1.84529e-07
1.8453e-07
1.84531e-07
1.84532e-07
1.84533e-07
1.84533e-07
1.84534e-07
1.84535e-07
1.84535e-07
1.84536e-07
1.84536e-07
1.84537e-07
1.84537e-07
1.84538e-07
1.84538e-07
1.84538e-07
1.84539e-07
1.84539e-07
1.84539e-07
1.84539e-07
1.84539e-07
1.8454e-07
1.8454e-07
1.8454e-07
1.8454e-07
1.8454e-07
1.8454e-07
1.8454e-07
1.8454e-07
1.8454e-07
1.8454e-07
1.8454e-07
1.84539e-07
1.8454e-07
1.84539e-07
1.8454e-07
1.84539e-07
1.8454e-07
1.84539e-07
1.8454e-07
1.84539e-07
1.84541e-07
1.8454e-07
1.84542e-07
1.84541e-07
1.84543e-07
1.84543e-07
1.84544e-07
1.84544e-07
1.84544e-07
1.84544e-07
1.84544e-07
1.84544e-07
1.84544e-07
1.84544e-07
1.84544e-07
1.84544e-07
1.84544e-07
1.84543e-07
1.84544e-07
1.84543e-07
1.84544e-07
1.84545e-07
1.84545e-07
1.8459e-07
1.85238e-07
2.34964e-07
2.35323e-07
2.35666e-07
2.35993e-07
2.36304e-07
2.366e-07
2.36882e-07
2.3715e-07
2.37405e-07
2.37647e-07
2.37877e-07
2.38096e-07
2.38305e-07
2.38503e-07
2.38691e-07
2.38869e-07
2.39039e-07
2.392e-07
2.39354e-07
2.39499e-07
2.39637e-07
2.39768e-07
2.39892e-07
2.4001e-07
2.40122e-07
2.40228e-07
2.40329e-07
2.40424e-07
2.40515e-07
2.406e-07
2.40682e-07
2.40758e-07
2.40831e-07
2.409e-07
2.40965e-07
2.41027e-07
2.41085e-07
2.4114e-07
2.41192e-07
2.41242e-07
2.41288e-07
2.41332e-07
2.41374e-07
2.41413e-07
2.4145e-07
2.41485e-07
2.41518e-07
2.41549e-07
2.41579e-07
2.41606e-07
2.41633e-07
2.41657e-07
2.4168e-07
2.41702e-07
2.41723e-07
2.41742e-07
2.4176e-07
2.41777e-07
2.41793e-07
2.41809e-07
2.41823e-07
2.41836e-07
2.41849e-07
2.41861e-07
2.41872e-07
2.41882e-07
2.41892e-07
2.41901e-07
2.41909e-07
2.41917e-07
2.41925e-07
2.41932e-07
2.41939e-07
2.41945e-07
2.41951e-07
2.41956e-07
2.41961e-07
2.41966e-07
2.4197e-07
2.41974e-07
2.41978e-07
2.41982e-07
2.41985e-07
2.41988e-07
2.41991e-07
2.41994e-07
2.41996e-07
2.41999e-07
2.42001e-07
2.42003e-07
2.42005e-07
2.42007e-07
2.42008e-07
2.4201e-07
2.42011e-07
2.42012e-07
2.42014e-07
2.42015e-07
2.42016e-07
2.42017e-07
2.42018e-07
2.42019e-07
2.42019e-07
2.4202e-07
2.42021e-07
2.42021e-07
2.42022e-07
2.42022e-07
2.42023e-07
2.42023e-07
2.42024e-07
2.42024e-07
2.42024e-07
2.42025e-07
2.42025e-07
2.42025e-07
2.42025e-07
2.42025e-07
2.42026e-07
2.42026e-07
2.42026e-07
2.42026e-07
2.42026e-07
2.42026e-07
2.42026e-07
2.42026e-07
2.42026e-07
2.42026e-07
2.42026e-07
2.42026e-07
2.42026e-07
2.42026e-07
2.42025e-07
2.42026e-07
2.42025e-07
2.42026e-07
2.42025e-07
2.42026e-07
2.42025e-07
2.42027e-07
2.42026e-07
2.42028e-07
2.42028e-07
2.42029e-07
2.42029e-07
2.4203e-07
2.4203e-07
2.4203e-07
2.4203e-07
2.4203e-07
2.4203e-07
2.4203e-07
2.4203e-07
2.4203e-07
2.4203e-07
2.4203e-07
2.42029e-07
2.4203e-07
2.42029e-07
2.4203e-07
2.4203e-07
2.42031e-07
2.42072e-07
2.42712e-07
2.78721e-07
2.79003e-07
2.79272e-07
2.79528e-07
2.79772e-07
2.80003e-07
2.80223e-07
2.80432e-07
2.80631e-07
2.80819e-07
2.80999e-07
2.81169e-07
2.81331e-07
2.81484e-07
2.81631e-07
2.81769e-07
2.81901e-07
2.82025e-07
2.82144e-07
2.82256e-07
2.82363e-07
2.82464e-07
2.8256e-07
2.82651e-07
2.82738e-07
2.8282e-07
2.82897e-07
2.82971e-07
2.83041e-07
2.83107e-07
2.83169e-07
2.83228e-07
2.83285e-07
2.83338e-07
2.83388e-07
2.83435e-07
2.8348e-07
2.83523e-07
2.83563e-07
2.83601e-07
2.83637e-07
2.8367e-07
2.83702e-07
2.83733e-07
2.83761e-07
2.83788e-07
2.83813e-07
2.83837e-07
2.8386e-07
2.83881e-07
2.83901e-07
2.8392e-07
2.83938e-07
2.83955e-07
2.8397e-07
2.83985e-07
2.83999e-07
2.84012e-07
2.84025e-07
2.84036e-07
2.84047e-07
2.84058e-07
2.84067e-07
2.84076e-07
2.84085e-07
2.84093e-07
2.841e-07
2.84107e-07
2.84114e-07
2.8412e-07
2.84126e-07
2.84131e-07
2.84136e-07
2.84141e-07
2.84145e-07
2.8415e-07
2.84153e-07
2.84157e-07
2.8416e-07
2.84164e-07
2.84166e-07
2.84169e-07
2.84172e-07
2.84174e-07
2.84176e-07
2.84179e-07
2.8418e-07
2.84182e-07
2.84184e-07
2.84185e-07
2.84187e-07
2.84188e-07
2.8419e-07
2.84191e-07
2.84192e-07
2.84193e-07
2.84194e-07
2.84195e-07
2.84195e-07
2.84196e-07
2.84197e-07
2.84197e-07
2.84198e-07
2.84199e-07
2.84199e-07
2.842e-07
2.842e-07
2.842e-07
2.84201e-07
2.84201e-07
2.84201e-07
2.84202e-07
2.84202e-07
2.84202e-07
2.84202e-07
2.84202e-07
2.84203e-07
2.84203e-07
2.84203e-07
2.84203e-07
2.84203e-07
2.84203e-07
2.84203e-07
2.84203e-07
2.84203e-07
2.84203e-07
2.84203e-07
2.84203e-07
2.84203e-07
2.84203e-07
2.84203e-07
2.84203e-07
2.84203e-07
2.84203e-07
2.84202e-07
2.84203e-07
2.84202e-07
2.84203e-07
2.84203e-07
2.84204e-07
2.84203e-07
2.84205e-07
2.84204e-07
2.84206e-07
2.84205e-07
2.84206e-07
2.84206e-07
2.84206e-07
2.84206e-07
2.84206e-07
2.84206e-07
2.84206e-07
2.84206e-07
2.84206e-07
2.84206e-07
2.84206e-07
2.84206e-07
2.84206e-07
2.84206e-07
2.84206e-07
2.84206e-07
2.84207e-07
2.84237e-07
2.84817e-07
3.07231e-07
3.07423e-07
3.07607e-07
3.07781e-07
3.07947e-07
3.08104e-07
3.08253e-07
3.08395e-07
3.0853e-07
3.08658e-07
3.08779e-07
3.08894e-07
3.09004e-07
3.09107e-07
3.09206e-07
3.09299e-07
3.09388e-07
3.09472e-07
3.09552e-07
3.09628e-07
3.097e-07
3.09768e-07
3.09832e-07
3.09894e-07
3.09952e-07
3.10007e-07
3.10059e-07
3.10108e-07
3.10155e-07
3.10199e-07
3.10242e-07
3.10281e-07
3.10319e-07
3.10354e-07
3.10388e-07
3.1042e-07
3.1045e-07
3.10479e-07
3.10506e-07
3.10531e-07
3.10555e-07
3.10578e-07
3.10599e-07
3.1062e-07
3.10639e-07
3.10657e-07
3.10674e-07
3.1069e-07
3.10705e-07
3.10719e-07
3.10733e-07
3.10745e-07
3.10757e-07
3.10768e-07
3.10779e-07
3.10789e-07
3.10798e-07
3.10807e-07
3.10815e-07
3.10823e-07
3.1083e-07
3.10837e-07
3.10844e-07
3.1085e-07
3.10855e-07
3.10861e-07
3.10866e-07
3.10871e-07
3.10875e-07
3.10879e-07
3.10883e-07
3.10886e-07
3.1089e-07
3.10893e-07
3.10896e-07
3.10899e-07
3.10901e-07
3.10904e-07
3.10906e-07
3.10908e-07
3.1091e-07
3.10912e-07
3.10914e-07
3.10915e-07
3.10917e-07
3.10918e-07
3.10919e-07
3.10921e-07
3.10922e-07
3.10923e-07
3.10924e-07
3.10925e-07
3.10925e-07
3.10926e-07
3.10927e-07
3.10928e-07
3.10928e-07
3.10929e-07
3.10929e-07
3.1093e-07
3.1093e-07
3.10931e-07
3.10931e-07
3.10931e-07
3.10932e-07
3.10932e-07
3.10932e-07
3.10933e-07
3.10933e-07
3.10933e-07
3.10933e-07
3.10933e-07
3.10934e-07
3.10934e-07
3.10934e-07
3.10934e-07
3.10934e-07
3.10934e-07
3.10934e-07
3.10934e-07
3.10934e-07
3.10934e-07
3.10934e-07
3.10935e-07
3.10934e-07
3.10935e-07
3.10934e-07
3.10935e-07
3.10934e-07
3.10935e-07
3.10934e-07
3.10934e-07
3.10934e-07
3.10934e-07
3.10934e-07
3.10934e-07
3.10934e-07
3.10935e-07
3.10934e-07
3.10935e-07
3.10935e-07
3.10936e-07
3.10935e-07
3.10936e-07
3.10936e-07
3.10937e-07
3.10936e-07
3.10937e-07
3.10936e-07
3.10937e-07
3.10936e-07
3.10937e-07
3.10936e-07
3.10937e-07
3.10936e-07
3.10936e-07
3.10936e-07
3.10936e-07
3.10936e-07
3.10936e-07
3.10937e-07
3.10937e-07
3.10957e-07
3.11456e-07
3.23852e-07
3.23969e-07
3.24081e-07
3.24187e-07
3.24289e-07
3.24385e-07
3.24476e-07
3.24562e-07
3.24644e-07
3.24722e-07
3.24796e-07
3.24866e-07
3.24933e-07
3.24996e-07
3.25056e-07
3.25112e-07
3.25166e-07
3.25217e-07
3.25266e-07
3.25311e-07
3.25355e-07
3.25396e-07
3.25435e-07
3.25472e-07
3.25508e-07
3.25541e-07
3.25573e-07
3.25603e-07
3.25631e-07
3.25658e-07
3.25683e-07
3.25707e-07
3.2573e-07
3.25752e-07
3.25772e-07
3.25792e-07
3.2581e-07
3.25827e-07
3.25843e-07
3.25859e-07
3.25873e-07
3.25887e-07
3.259e-07
3.25912e-07
3.25924e-07
3.25935e-07
3.25945e-07
3.25955e-07
3.25964e-07
3.25973e-07
3.25981e-07
3.25989e-07
3.25996e-07
3.26003e-07
3.26009e-07
3.26015e-07
3.26021e-07
3.26026e-07
3.26031e-07
3.26036e-07
3.2604e-07
3.26044e-07
3.26048e-07
3.26052e-07
3.26055e-07
3.26059e-07
3.26062e-07
3.26065e-07
3.26067e-07
3.2607e-07
3.26072e-07
3.26074e-07
3.26076e-07
3.26078e-07
3.2608e-07
3.26082e-07
3.26083e-07
3.26085e-07
3.26086e-07
3.26087e-07
3.26089e-07
3.2609e-07
3.26091e-07
3.26092e-07
3.26093e-07
3.26093e-07
3.26094e-07
3.26095e-07
3.26096e-07
3.26096e-07
3.26097e-07
3.26097e-07
3.26098e-07
3.26098e-07
3.26099e-07
3.26099e-07
3.26099e-07
3.261e-07
3.261e-07
3.261e-07
3.26101e-07
3.26101e-07
3.26101e-07
3.26101e-07
3.26102e-07
3.26102e-07
3.26102e-07
3.26102e-07
3.26102e-07
3.26102e-07
3.26102e-07
3.26103e-07
3.26103e-07
3.26103e-07
3.26103e-07
3.26103e-07
3.26103e-07
3.26103e-07
3.26103e-07
3.26103e-07
3.26103e-07
3.26103e-07
3.26103e-07
3.26103e-07
3.26103e-07
3.26103e-07
3.26103e-07
3.26103e-07
3.26103e-07
3.26103e-07
3.26103e-07
3.26103e-07
3.26103e-07
3.26103e-07
3.26103e-07
3.26103e-07
3.26103e-07
3.26103e-07
3.26103e-07
3.26104e-07
3.26103e-07
3.26104e-07
3.26103e-07
3.26104e-07
3.26104e-07
3.26105e-07
3.26104e-07
3.26105e-07
3.26104e-07
3.26105e-07
3.26104e-07
3.26104e-07
3.26104e-07
3.26104e-07
3.26104e-07
3.26104e-07
3.26104e-07
3.26104e-07
3.26104e-07
3.26104e-07
3.26104e-07
3.26105e-07
3.26117e-07
3.26463e-07
3.32723e-07
3.32788e-07
3.32851e-07
3.3291e-07
3.32967e-07
3.33021e-07
3.33072e-07
3.3312e-07
3.33166e-07
3.3321e-07
3.33251e-07
3.3329e-07
3.33328e-07
3.33363e-07
3.33397e-07
3.33428e-07
3.33458e-07
3.33487e-07
3.33514e-07
3.33539e-07
3.33564e-07
3.33587e-07
3.33609e-07
3.3363e-07
3.33649e-07
3.33668e-07
3.33686e-07
3.33702e-07
3.33719e-07
3.33734e-07
3.33748e-07
3.33761e-07
3.33774e-07
3.33786e-07
3.33798e-07
3.33809e-07
3.33819e-07
3.33829e-07
3.33838e-07
3.33847e-07
3.33855e-07
3.33863e-07
3.3387e-07
3.33877e-07
3.33883e-07
3.3389e-07
3.33895e-07
3.33901e-07
3.33906e-07
3.33911e-07
3.33915e-07
3.3392e-07
3.33924e-07
3.33928e-07
3.33931e-07
3.33935e-07
3.33938e-07
3.33941e-07
3.33944e-07
3.33946e-07
3.33949e-07
3.33951e-07
3.33953e-07
3.33956e-07
3.33957e-07
3.33959e-07
3.33961e-07
3.33963e-07
3.33964e-07
3.33966e-07
3.33967e-07
3.33968e-07
3.33969e-07
3.3397e-07
3.33971e-07
3.33972e-07
3.33973e-07
3.33974e-07
3.33975e-07
3.33975e-07
3.33976e-07
3.33977e-07
3.33977e-07
3.33978e-07
3.33978e-07
3.33979e-07
3.33979e-07
3.3398e-07
3.3398e-07
3.3398e-07
3.33981e-07
3.33981e-07
3.33981e-07
3.33982e-07
3.33982e-07
3.33982e-07
3.33982e-07
3.33982e-07
3.33983e-07
3.33983e-07
3.33983e-07
3.33983e-07
3.33983e-07
3.33983e-07
3.33983e-07
3.33984e-07
3.33984e-07
3.33984e-07
3.33984e-07
3.33984e-07
3.33984e-07
3.33984e-07
3.33984e-07
3.33984e-07
3.33984e-07
3.33984e-07
3.33984e-07
3.33984e-07
3.33984e-07
3.33984e-07
3.33984e-07
3.33984e-07
3.33984e-07
3.33984e-07
3.33984e-07
3.33984e-07
3.33984e-07
3.33984e-07
3.33984e-07
3.33984e-07
3.33984e-07
3.33984e-07
3.33984e-07
3.33984e-07
3.33984e-07
3.33984e-07
3.33984e-07
3.33984e-07
3.33984e-07
3.33985e-07
3.33984e-07
3.33985e-07
3.33984e-07
3.33985e-07
3.33985e-07
3.33985e-07
3.33985e-07
3.33985e-07
3.33985e-07
3.33985e-07
3.33985e-07
3.33985e-07
3.33985e-07
3.33985e-07
3.33985e-07
3.33985e-07
3.33985e-07
3.33985e-07
3.33985e-07
3.33985e-07
3.33985e-07
3.33985e-07
3.33994e-07
3.34007e-07
3.37083e-07
3.37117e-07
3.3715e-07
3.37181e-07
3.37211e-07
3.37239e-07
3.37266e-07
3.37292e-07
3.37316e-07
3.37339e-07
3.37361e-07
3.37381e-07
3.37401e-07
3.3742e-07
3.37437e-07
3.37454e-07
3.3747e-07
3.37485e-07
3.375e-07
3.37513e-07
3.37526e-07
3.37538e-07
3.3755e-07
3.37561e-07
3.37572e-07
3.37582e-07
3.37591e-07
3.376e-07
3.37609e-07
3.37617e-07
3.37624e-07
3.37632e-07
3.37639e-07
3.37645e-07
3.37651e-07
3.37657e-07
3.37663e-07
3.37668e-07
3.37673e-07
3.37678e-07
3.37682e-07
3.37687e-07
3.37691e-07
3.37694e-07
3.37698e-07
3.37701e-07
3.37704e-07
3.37707e-07
3.3771e-07
3.37713e-07
3.37715e-07
3.37718e-07
3.3772e-07
3.37722e-07
3.37724e-07
3.37726e-07
3.37728e-07
3.37729e-07
3.37731e-07
3.37732e-07
3.37734e-07
3.37735e-07
3.37736e-07
3.37737e-07
3.37738e-07
3.37739e-07
3.3774e-07
3.37741e-07
3.37742e-07
3.37743e-07
3.37743e-07
3.37744e-07
3.37745e-07
3.37745e-07
3.37746e-07
3.37746e-07
3.37747e-07
3.37747e-07
3.37748e-07
3.37748e-07
3.37748e-07
3.37749e-07
3.37749e-07
3.37749e-07
3.3775e-07
3.3775e-07
3.3775e-07
3.3775e-07
3.37751e-07
3.37751e-07
3.37751e-07
3.37751e-07
3.37751e-07
3.37751e-07
3.37752e-07
3.37752e-07
3.37752e-07
3.37752e-07
3.37752e-07
3.37752e-07
3.37752e-07
3.37752e-07
3.37752e-07
3.37752e-07
3.37752e-07
3.37753e-07
3.37753e-07
3.37753e-07
3.37753e-07
3.37753e-07
3.37753e-07
3.37753e-07
3.37753e-07
3.37753e-07
3.37753e-07
3.37753e-07
3.37753e-07
3.37753e-07
3.37753e-07
3.37753e-07
3.37753e-07
3.37753e-07
3.37753e-07
3.37753e-07
3.37753e-07
3.37753e-07
3.37753e-07
3.37753e-07
3.37753e-07
3.37753e-07
3.37753e-07
3.37753e-07
3.37753e-07
3.37753e-07
3.37753e-07
3.37753e-07
3.37753e-07
3.37753e-07
3.37753e-07
3.37753e-07
3.37753e-07
3.37753e-07
3.37753e-07
3.37753e-07
3.37753e-07
3.37753e-07
3.37753e-07
3.37753e-07
3.37753e-07
3.37753e-07
3.37753e-07
3.37753e-07
3.37753e-07
3.37753e-07
3.37753e-07
3.37753e-07
3.37753e-07
3.37753e-07
3.37753e-07
3.37753e-07
3.37753e-07
3.37753e-07
3.3776e-07
3.37265e-07
3.39914e-07
3.39923e-07
3.39934e-07
3.39944e-07
3.39954e-07
3.39963e-07
3.39972e-07
3.3998e-07
3.39989e-07
3.39996e-07
3.40004e-07
3.4001e-07
3.40017e-07
3.40023e-07
3.4003e-07
3.40035e-07
3.40041e-07
3.40046e-07
3.40051e-07
3.40056e-07
3.4006e-07
3.40064e-07
3.40069e-07
3.40073e-07
3.40076e-07
3.4008e-07
3.40083e-07
3.40087e-07
3.4009e-07
3.40093e-07
3.40096e-07
3.40098e-07
3.40101e-07
3.40103e-07
3.40106e-07
3.40108e-07
3.4011e-07
3.40112e-07
3.40114e-07
3.40116e-07
3.40118e-07
3.40119e-07
3.40121e-07
3.40122e-07
3.40124e-07
3.40125e-07
3.40126e-07
3.40127e-07
3.40128e-07
3.4013e-07
3.4013e-07
3.40131e-07
3.40132e-07
3.40133e-07
3.40134e-07
3.40135e-07
3.40135e-07
3.40136e-07
3.40137e-07
3.40137e-07
3.40138e-07
3.40138e-07
3.40139e-07
3.40139e-07
3.4014e-07
3.4014e-07
3.4014e-07
3.40141e-07
3.40141e-07
3.40141e-07
3.40142e-07
3.40142e-07
3.40142e-07
3.40142e-07
3.40143e-07
3.40143e-07
3.40143e-07
3.40143e-07
3.40143e-07
3.40143e-07
3.40144e-07
3.40144e-07
3.40144e-07
3.40144e-07
3.40144e-07
3.40144e-07
3.40144e-07
3.40144e-07
3.40144e-07
3.40145e-07
3.40145e-07
3.40145e-07
3.40145e-07
3.40145e-07
3.40145e-07
3.40145e-07
3.40145e-07
3.40145e-07
3.40145e-07
3.40145e-07
3.40145e-07
3.40145e-07
3.40145e-07
3.40145e-07
3.40145e-07
3.40145e-07
3.40145e-07
3.40145e-07
3.40145e-07
3.40145e-07
3.40145e-07
3.40145e-07
3.40145e-07
3.40145e-07
3.40145e-07
3.40145e-07
3.40145e-07
3.40145e-07
3.40145e-07
3.40145e-07
3.40145e-07
3.40145e-07
3.40145e-07
3.40145e-07
3.40145e-07
3.40145e-07
3.40145e-07
3.40145e-07
3.40145e-07
3.40145e-07
3.40145e-07
3.40145e-07
3.40145e-07
3.40145e-07
3.40145e-07
3.40145e-07
3.40145e-07
3.40145e-07
3.40145e-07
3.40146e-07
3.40145e-07
3.40146e-07
3.40145e-07
3.40146e-07
3.40145e-07
3.40146e-07
3.40145e-07
3.40146e-07
3.40145e-07
3.40146e-07
3.40145e-07
3.40146e-07
3.40145e-07
3.40146e-07
3.40145e-07