/*--------------------------------*- C++ -*----------------------------------*\
| =========                 |                                                 |
| \\      /  F ield         | OpenFOAM: The Open Source CFD Toolbox           |
|  \\    /   O peration     | Version:  v1912                                 |
|   \\  /    A nd           | Website:  www.openfoam.com                      |
|    \\/     M anipulation  |                                                 |
\*---------------------------------------------------------------------------*/
FoamFile
{
    version     2.0;
    format      ascii;
    class       volVectorField;
    location    "100";
    object      U;
}
// * * * * * * * * * * * * * * * * * * * * * * * * * * * * * * * * * * * * * //

dimensions      [0 1 -1 0 0 0 0];


internalField   uniform (0 0 0);

boundaryField
{
    atmosphere
    {
        type            pressureInletOutletVelocity;
        value           nonuniform List<vector> 
164
(
(0 -0.148074 0)
(0 -0.148663 0)
(0 -0.149283 0)
(0 -0.149935 0)
(0 -0.150617 0)
(0 -0.151328 0)
(0 -0.152069 0)
(0 -0.152837 0)
(0 -0.153632 0)
(0 -0.154453 0)
(0 -0.1553 0)
(0 -0.156172 0)
(0 -0.157067 0)
(0 -0.157986 0)
(0 -0.158926 0)
(0 -0.159888 0)
(0 -0.16087 0)
(0 -0.161872 0)
(0 -0.162893 0)
(0 -0.163931 0)
(0 -0.164986 0)
(0 -0.166057 0)
(0 -0.167143 0)
(0 -0.168244 0)
(0 -0.169357 0)
(0 -0.170484 0)
(0 -0.171622 0)
(0 -0.17277 0)
(0 -0.173929 0)
(0 -0.175096 0)
(0 -0.176272 0)
(0 -0.177456 0)
(0 -0.178644 0)
(0 -0.17984 0)
(0 -0.181041 0)
(0 -0.182247 0)
(0 -0.183456 0)
(0 -0.184669 0)
(0 -0.185884 0)
(0 -0.1871 0)
(0 -0.188317 0)
(0 -0.189534 0)
(0 -0.19075 0)
(0 -0.191964 0)
(0 -0.193176 0)
(0 -0.194385 0)
(0 -0.19559 0)
(0 -0.196792 0)
(0 -0.197989 0)
(0 -0.199181 0)
(0 -0.200368 0)
(0 -0.201548 0)
(0 -0.202722 0)
(0 -0.20389 0)
(0 -0.205051 0)
(0 -0.206203 0)
(0 -0.207347 0)
(0 -0.208482 0)
(0 -0.209609 0)
(0 -0.210725 0)
(0 -0.211832 0)
(0 -0.21293 0)
(0 -0.214019 0)
(0 -0.215099 0)
(0 -0.216169 0)
(0 -0.21723 0)
(0 -0.21828 0)
(0 -0.219321 0)
(0 -0.220352 0)
(0 -0.221373 0)
(0 -0.222385 0)
(0 -0.223388 0)
(0 -0.224384 0)
(0 -0.225372 0)
(0 -0.226351 0)
(0 -0.227323 0)
(0 -0.22829 0)
(0 -0.22925 0)
(0 -0.230204 0)
(0 -0.231152 0)
(0 -0.232094 0)
(0 -0.233032 0)
(0 -0.233962 0)
(0 -0.234887 0)
(0 -0.235807 0)
(0 -0.236724 0)
(0 -0.237638 0)
(0 -0.238551 0)
(0 -0.239461 0)
(0 -0.240373 0)
(0 -0.241293 0)
(0 -0.242217 0)
(0 -0.243145 0)
(0 -0.244071 0)
(0 -0.244992 0)
(0 -0.24591 0)
(0 -0.246824 0)
(0 -0.247735 0)
(0 -0.248641 0)
(0 -0.249543 0)
(0 -0.250441 0)
(0 -0.251333 0)
(0 -0.252218 0)
(0 -0.253094 0)
(0 -0.254396 0)
(0 -0.256087 0)
(0 -0.25772 0)
(0 -0.259271 0)
(0 -0.260737 0)
(0 -0.262081 0)
(0 -0.263275 0)
(0 -0.264307 0)
(0 -0.265148 0)
(0 -0.265768 0)
(0 -0.26614 0)
(0 -0.266226 0)
(0 -0.266019 0)
(0 -0.265494 0)
(0 -0.264635 0)
(0 -0.263421 0)
(0 -0.261834 0)
(0 -0.259849 0)
(0 -0.257463 0)
(0 -0.254663 0)
(0 -0.25147 0)
(0 -0.247873 0)
(0 -0.24389 0)
(0 -0.2395 0)
(0 -0.234772 0)
(0 -0.229677 0)
(0 -0.224305 0)
(0 -0.218616 0)
(0 -0.212689 0)
(0 -0.206519 0)
(0 -0.200155 0)
(0 -0.193641 0)
(0 -0.186985 0)
(0 -0.180159 0)
(0 -0.173314 0)
(0 -0.166565 0)
(0 -0.160051 0)
(0 -0.153765 0)
(0 -0.147369 0)
(0 -0.141039 0)
(0 -0.134668 0)
(0 -0.128348 0)
(0 -0.122024 0)
(0 -0.115712 0)
(0 -0.109303 0)
(0 -0.1028 0)
(0 -0.0962858 0)
(0 -0.0899169 0)
(0 -0.0835502 0)
(0 -0.0772982 0)
(0 -0.071136 0)
(0 -0.0648116 0)
(0 -0.0582745 0)
(0 -0.0517066 0)
(0 -0.0451319 0)
(0 -0.0383363 0)
(0 -0.0315157 0)
(0 -0.0241768 0)
(0 -0.0166432 0)
(0 -0.00862932 0)
)
;
    }
    inlet
    {
        type            waveVelocity;
        refValue        nonuniform 0();
        refGradient     uniform ( 0 0 0 );
        valueFraction   uniform 1;
        value           nonuniform 0();
    }
    outlet
    {
        type            pressureInletOutletVelocity;
        value           nonuniform 0();
    }
    bottom
    {
        type            slip;
    }
    frontBack
    {
        type            empty;
    }
    procBoundary5to4
    {
        type            processor;
        value           uniform (0 0 0);
    }
    procBoundary5to6
    {
        type            processor;
        value           uniform (0 0 0);
    }
}


// ************************************************************************* //
