/*--------------------------------*- C++ -*----------------------------------*\
| =========                 |                                                 |
| \\      /  F ield         | OpenFOAM: The Open Source CFD Toolbox           |
|  \\    /   O peration     | Version:  v1912                                 |
|   \\  /    A nd           | Website:  www.openfoam.com                      |
|    \\/     M anipulation  |                                                 |
\*---------------------------------------------------------------------------*/
FoamFile
{
    version     2.0;
    format      ascii;
    class       surfaceScalarField;
    location    "10";
    object      phi;
}
// * * * * * * * * * * * * * * * * * * * * * * * * * * * * * * * * * * * * * //

dimensions      [0 3 -1 0 0 0 0];
oriented        oriented;


internalField   nonuniform List<scalar> 
28285
(
-2.05397e-06
9.85622e-07
-2.68321e-06
6.29244e-07
-2.41193e-06
-2.71289e-07
1.16426e-06
-3.57619e-06
9.22651e-06
-8.06225e-06
1.21108e-05
-2.88434e-06
3.76267e-06
8.34818e-06
1.52403e-05
-1.14776e-05
-2.07715e-06
1.96985e-06
-2.70524e-06
1.25733e-06
-2.43292e-06
-5.43606e-07
1.14209e-06
-7.1512e-06
9.19709e-06
-1.61172e-05
1.20731e-05
-5.76034e-06
3.72396e-06
1.66973e-05
3.04711e-05
-1.15069e-05
-2.08787e-06
2.95382e-06
-2.71553e-06
1.88498e-06
-2.44115e-06
-8.17986e-07
1.13785e-06
-1.07302e-05
9.19339e-06
-2.41728e-05
1.20621e-05
-8.62905e-06
3.70535e-06
2.50541e-05
4.57004e-05
-1.15239e-05
-2.09177e-06
3.93748e-06
-2.71868e-06
2.51189e-06
-2.44256e-06
-1.09411e-06
1.14007e-06
-1.43128e-05
9.19703e-06
-3.22297e-05
1.20594e-05
-1.14914e-05
3.69601e-06
3.34174e-05
6.09279e-05
-1.15315e-05
-2.09155e-06
4.92112e-06
-2.71831e-06
3.13865e-06
-2.44069e-06
-1.37172e-06
1.14589e-06
-1.78994e-05
9.2047e-06
-4.02886e-05
1.20609e-05
-1.43475e-05
3.69149e-06
4.17868e-05
7.61555e-05
-1.15361e-05
-2.09374e-06
5.90452e-06
-2.71998e-06
3.76489e-06
-2.44113e-06
-1.65057e-06
1.14925e-06
-2.14898e-05
9.2109e-06
-4.83502e-05
1.20617e-05
-1.71984e-05
3.68577e-06
5.01627e-05
9.13828e-05
-1.15415e-05
-2.09381e-06
6.88796e-06
-2.72011e-06
4.39118e-06
-2.44008e-06
-1.9306e-06
1.15456e-06
-2.50844e-05
9.21927e-06
-5.64149e-05
1.20648e-05
-2.00439e-05
3.68249e-06
5.8545e-05
0.000106611
-1.15461e-05
-2.09575e-06
7.87121e-06
-2.72173e-06
5.01716e-06
-2.44089e-06
-2.21144e-06
1.15782e-06
-2.86831e-05
9.2268e-06
-6.44839e-05
1.2068e-05
-2.28851e-05
3.67842e-06
6.69346e-05
0.000121841
-1.15516e-05
-2.09626e-06
8.85456e-06
-2.7225e-06
5.6434e-06
-2.44082e-06
-2.49312e-06
1.16249e-06
-3.22864e-05
9.23581e-06
-7.25572e-05
1.20725e-05
-2.57218e-05
3.67609e-06
7.5331e-05
0.000137074
-1.15564e-05
-2.09794e-06
9.8378e-06
-2.72408e-06
6.26955e-06
-2.44199e-06
-2.77521e-06
1.16566e-06
-3.58941e-05
9.24463e-06
-8.06362e-05
1.20781e-05
-2.85552e-05
3.67369e-06
8.37355e-05
0.00015231
-1.15621e-05
-2.09889e-06
1.08212e-05
-2.7255e-06
6.89616e-06
-2.44294e-06
-3.05777e-06
1.1696e-06
-3.95066e-05
9.25423e-06
-8.87208e-05
1.2084e-05
-3.1385e-05
3.67223e-06
9.21472e-05
0.000167549
-1.15671e-05
-2.10038e-06
1.18045e-05
-2.72718e-06
7.52295e-06
-2.44471e-06
-3.34024e-06
1.17223e-06
-4.31236e-05
9.2633e-06
-9.68119e-05
1.20911e-05
-3.42128e-05
3.67089e-06
0.000100567
0.000182793
-1.15734e-05
-2.10207e-06
1.27885e-05
-2.73014e-06
8.15102e-06
-2.44836e-06
-3.62203e-06
1.17351e-06
-4.67454e-05
9.27118e-06
-0.00010491
1.20969e-05
-3.70386e-05
3.67593e-06
0.000108988
0.000198042
-1.15729e-05
-2.11255e-06
1.37764e-05
-2.74399e-06
8.78247e-06
-2.45504e-06
-3.91098e-06
1.20155e-06
-5.0402e-05
9.34403e-06
-0.000113052
1.22044e-05
-3.9899e-05
3.65806e-06
0.000117535
0.000213362
-1.16619e-05
-1.25846e-05
1.90838e-05
-1.4966e-05
1.11639e-05
-1.2129e-05
-6.74796e-06
4.26671e-06
-6.67978e-05
3.40628e-05
-0.000142848
3.93803e-05
-4.52165e-05
1.12457e-05
0.000145669
0.000247119
-2.2511e-05
-1.2697e-05
2.43789e-05
-1.50942e-05
1.35611e-05
-1.2334e-05
-9.50817e-06
3.97909e-06
-8.31108e-05
3.36751e-05
-0.000172544
3.89002e-05
-5.04415e-05
1.12063e-05
0.000173363
0.000280702
-2.23771e-05
-1.26367e-05
2.96542e-05
-1.5052e-05
1.59763e-05
-1.22948e-05
-1.22653e-05
4.16491e-06
-9.95705e-05
3.40491e-05
-0.000202428
3.93123e-05
-5.57047e-05
1.15825e-05
0.000201093
0.000314521
-2.22361e-05
-1.28459e-05
3.49634e-05
-1.5324e-05
1.84545e-05
-1.26534e-05
-1.49359e-05
3.91339e-06
-0.000116137
3.40253e-05
-0.00023254
3.92471e-05
-6.09264e-05
1.13104e-05
0.00022903
0.000348243
-2.24118e-05
-1.28011e-05
4.02576e-05
-1.53131e-05
2.09665e-05
-1.26503e-05
-1.75987e-05
4.107e-06
-0.000132895
3.45059e-05
-0.000262939
3.97879e-05
-6.62084e-05
1.17553e-05
0.000257062
0.000382259
-2.22604e-05
-1.30217e-05
4.55973e-05
-1.56364e-05
2.35811e-05
-1.31316e-05
-2.01034e-05
3.73964e-06
-0.000149766
3.44289e-05
-0.000293628
3.97342e-05
-7.15137e-05
1.15035e-05
0.000285293
0.000416203
-2.24406e-05
-1.3003e-05
5.09297e-05
-1.56559e-05
2.6234e-05
-1.3128e-05
-2.26314e-05
4.08075e-06
-0.000166975
3.54059e-05
-0.000324954
4.05988e-05
-7.67066e-05
1.19134e-05
0.000313978
0.000450447
-2.2331e-05
-6.09504e-05
7.87352e-05
-8.12347e-05
4.65183e-05
-7.83247e-05
-2.55413e-05
3.01855e-05
-0.000275485
0.000272979
-0.000567747
0.000354371
-0.000158099
0.000110841
0.000557508
0.000880397
-0.000319109
-6.55099e-05
0.000108745
-9.44538e-05
7.54622e-05
-0.000101423
-1.8572e-05
1.76505e-05
-0.000394559
0.000299585
-0.000849681
0.00040844
-0.000266955
0.000141171
0.000824777
0.0013569
-0.000335327
-6.77566e-05
0.000139511
-9.92854e-05
0.000106991
-0.000127181
9.32325e-06
-7.09295e-05
-0.00045081
0.000126492
-0.0010471
0.000283195
-0.000423658
0.000101745
0.00100623
0.00182776
-0.000369117
-0.00296936
0.000313643
-0.0031218
0.000259428
-0.00335181
0.000239331
-0.00397631
0.000173692
-0.00487497
-0.000148437
-0.00514828
-0.000150355
-0.00399818
-0.000143866
-0.000318731
-0.0018517
0.00403068
-0.00105547
0.00541773
-0.00112762
0.00684266
-0.0011856
0.00807846
-0.00106211
0.00814734
-0.000217321
0.00773157
0.000265414
0.00756866
1.90471e-05
0.000229361
0.00702057
0.158533
-0.00587038
0.163294
-0.00588815
0.168143
-0.00603537
0.173519
-0.00643784
0.177182
-0.00388064
0.179802
-0.00235461
0.183321
-0.00349995
-0.000409042
0.18396
0.0139337
-0.00401179
0.0127421
-0.00469656
0.0119487
-0.00524197
0.0114553
-0.0059445
0.0117991
-0.00422442
0.0123081
-0.00286358
0.0115766
-0.00276847
-0.00277496
0.0139425
0.00193688
-0.00381337
0.0017665
-0.00452618
0.00144866
-0.00492413
0.000869957
-0.0053658
0.00108304
-0.0044375
0.00201086
-0.0037914
0.00258416
-0.00334177
-0.00328309
0.00309228
0.00250816
-0.00289252
0.00180643
-0.00382445
0.00127951
-0.00439721
0.000844084
-0.00493037
0.000312431
-0.00390584
0.000499543
-0.00397852
0.00215744
-0.00499966
-0.0045019
0.00337625
0.00152606
-0.00270119
0.00131874
-0.00361713
0.00100148
-0.00407995
0.000501844
-0.00443073
-7.89769e-05
-0.00332502
-0.00110926
-0.00294823
-0.00189855
-0.00421037
-0.00441034
-0.00199011
0.00246753
-0.00205203
0.0019592
-0.00310881
0.00162129
-0.00374204
0.00138588
-0.00419532
0.0015095
-0.00344864
0.00195665
-0.00339539
0.00251354
-0.00476726
-0.00412064
0.00222384
0.00137715
-0.00192472
0.00123718
-0.00296884
0.0010464
-0.00355126
0.000819599
-0.00396852
0.00083811
-0.00346715
0.000634689
-0.00319197
0.000424232
-0.0045568
-0.0044927
0.000796288
0.0022614
-0.00146862
0.00183863
-0.00254607
0.00154692
-0.00325954
0.00135068
-0.00377228
0.00143384
-0.00355031
0.0015656
-0.00332373
0.00159204
-0.00458323
-0.00445871
0.00155804
0.00123322
-0.00139145
0.00115607
-0.00246892
0.00103417
-0.00313765
0.000772012
-0.00351011
0.000682993
-0.0034613
0.000732214
-0.00337295
0.000725942
-0.00457696
-0.00464001
0.000907245
0.00202019
-0.00109711
0.00168026
-0.00212899
0.00142858
-0.00288597
0.00127148
-0.00335302
0.00131466
-0.00350447
0.00137133
-0.00342962
0.00130791
-0.00451354
-0.00456354
0.00123144
0.00109849
-0.00106214
0.00107282
-0.00210332
0.00101393
-0.00282708
0.00086548
-0.00320457
0.000799171
-0.00343816
0.000802269
-0.00343272
0.0007947
-0.00450597
-0.00465287
0.000884036
0.00176549
-0.000875136
0.00149557
-0.0018334
0.00130173
-0.00263324
0.00116657
-0.00306941
0.00112305
-0.00339464
0.00113105
-0.00344072
0.00106903
-0.00444395
-0.00460319
0.00101934
0.000982176
-0.000879862
0.000989625
-0.00184085
0.000950256
-0.00259387
0.000864101
-0.00298325
0.00086591
-0.00339645
0.000889507
-0.00346432
0.000834119
-0.00438856
-0.00459206
0.000822995
0.0015295
-0.000766396
0.00133426
-0.00164561
0.00118607
-0.00244568
0.00105954
-0.00285673
0.00100346
-0.00334037
0.000994689
-0.00345555
0.000931615
-0.00432548
-0.00454077
0.000880318
0.000877561
-0.000804945
0.000908551
-0.0016766
0.000901904
-0.00243903
0.000860285
-0.00281511
0.000844234
-0.00332432
0.000856051
-0.00346737
0.000805465
-0.0042749
-0.00448748
0.000752174
0.0013204
-0.000736948
0.0011629
-0.0015191
0.00103346
-0.0023096
0.000942128
-0.00272377
0.000911237
-0.00329343
0.000904132
-0.00346026
0.000832692
-0.00420346
-0.00441546
0.000760677
0.000793078
-0.000813628
0.000855397
-0.00158142
0.000862881
-0.00231708
0.000831147
-0.00269204
0.000797981
-0.00326026
0.000783417
-0.0034457
0.000734647
-0.00415469
-0.00436767
0.000686854
0.00111226
-0.000771755
0.00100418
-0.00147333
0.000918251
-0.00223116
0.000858872
-0.00263266
0.000829632
-0.00323102
0.00081144
-0.0034275
0.000738517
-0.00408176
-0.00429479
0.000665638
0.000718822
-0.00087691
0.00079144
-0.00154595
0.00080293
-0.00224265
0.000776381
-0.00260611
0.000742286
-0.00319693
0.000723412
-0.00340863
0.000673823
-0.00403218
-0.00424122
0.000620254
0.000934991
-0.000851957
0.000867504
-0.00147847
0.000816711
-0.00219185
0.000782907
-0.00257231
0.000751637
-0.00316566
0.000726819
-0.00338381
0.000658805
-0.00396416
-0.00417009
0.000587678
0.000649539
-0.000973686
0.000722646
-0.00155157
0.000732474
-0.00220168
0.000713058
-0.00255289
0.000683175
-0.00313577
0.000661422
-0.00336206
0.000613548
-0.00391629
-0.00411408
0.000557531
0.000780242
-0.000965582
0.000748175
-0.00151951
0.000728102
-0.00218161
0.00070981
-0.0025346
0.000679329
-0.00310529
0.000650219
-0.00333295
0.00058955
-0.00385562
-0.00404839
0.000523861
0.000588579
-0.0010895
0.000655851
-0.00158678
0.000663009
-0.00218877
0.000650857
-0.00252245
0.000625277
-0.00307971
0.000599671
-0.00330734
0.000554546
-0.00381049
-0.00399606
0.000502222
0.000646486
-0.0010995
0.000647418
-0.00158771
0.00064807
-0.00218942
0.000640409
-0.00251479
0.000613547
-0.00305285
0.000581747
-0.00327554
0.00052808
-0.00375683
-0.00393834
0.000470352
0.000529647
-0.00121584
0.000587032
-0.00164509
0.000595512
-0.0021979
0.000591396
-0.00251067
0.00056761
-0.00302906
0.000541724
-0.00324966
0.000500019
-0.00371512
-0.00388967
0.000451352
0.000534351
-0.0012438
0.000560694
-0.00167144
0.000572
-0.0022092
0.00057351
-0.00251218
0.000550491
-0.00300604
0.000522074
-0.00322124
0.000474034
-0.00366708
-0.00383794
0.000422307
0.000468588
-0.00134493
0.000517919
-0.00172077
0.000531308
-0.00222259
0.000532663
-0.00251354
0.000512354
-0.00298574
0.000491032
-0.00319992
0.000450851
-0.0036269
-0.00379178
0.000404693
0.000446565
-0.00138993
0.000485607
-0.00175981
0.000502499
-0.00223949
0.000507207
-0.00251825
0.000490152
-0.00296868
0.000469292
-0.00317906
0.000425898
-0.0035835
-0.00374679
0.000380908
0.000406035
-0.00147476
0.000452113
-0.00180589
0.000470005
-0.00225738
0.000476164
-0.0025244
0.000460656
-0.00295317
0.0004429
-0.0031613
0.000404833
-0.00354544
-0.00370494
0.00036298
0.000377015
-0.00153318
0.000421768
-0.00185064
0.000440176
-0.00227579
0.000449182
-0.00253341
0.000437101
-0.00294109
0.000419591
-0.00314379
0.000383123
-0.00350897
-0.00366528
0.000343466
0.00034606
-0.00160467
0.000392522
-0.0018971
0.000412324
-0.00229559
0.000422688
-0.00254377
0.000412744
-0.00293115
0.000396919
-0.00312797
0.000363341
-0.00347539
-0.00362795
0.000326003
0.000318801
-0.00166778
0.000364512
-0.00194281
0.00038651
-0.00231759
0.000398128
-0.00255539
0.000389274
-0.00292229
0.000375407
-0.0031141
0.000343892
-0.00344388
-0.00359291
0.000308859
0.000292891
-0.00173226
0.000338707
-0.00198863
0.000361445
-0.00234032
0.000374049
-0.002568
0.000367138
-0.00291538
0.000354737
-0.0031017
0.00032553
-0.00341467
-0.00356002
0.000292639
0.000269008
-0.00179428
0.000314349
-0.00203397
0.000337795
-0.00236377
0.000351284
-0.00258149
0.000345922
-0.00291002
0.000334972
-0.00309075
0.000307868
-0.00338757
-0.00352922
0.000277067
0.000246668
-0.00185486
0.000291413
-0.00207872
0.000315338
-0.0023877
0.000329588
-0.00259574
0.000325676
-0.00290611
0.000316082
-0.00308116
0.000291004
-0.00336249
-0.0035004
0.000262182
0.00022584
-0.00191365
0.00026986
-0.00212273
0.000294122
-0.00241196
0.000308963
-0.00261058
0.000306372
-0.00290352
0.000298033
-0.00307282
0.000274874
-0.00333933
-0.00347346
0.000247936
0.000206437
-0.00197064
0.00024966
-0.00216596
0.000274107
-0.0024364
0.000289368
-0.00262584
0.000287981
-0.00290213
0.000280809
-0.00306564
0.000259458
-0.00331798
-0.00344832
0.000234314
0.00018836
-0.00202571
0.00023064
-0.00220824
0.000255205
-0.00246097
0.000270756
-0.00264139
0.000270461
-0.00290184
0.000264365
-0.00305955
0.000244724
-0.00329834
-0.00342488
0.000221284
0.000171585
-0.00207879
0.000212688
-0.00224934
0.000237351
-0.00248563
0.000253103
-0.00265714
0.000253794
-0.00290253
0.00024869
-0.00305444
0.000230646
-0.0032803
-0.00340303
0.000208802
0.000156096
-0.00213002
0.000195893
-0.00228914
0.000220477
-0.00251022
0.000236394
-0.00267306
0.000237937
-0.00290407
0.000233751
-0.00305026
0.000217212
-0.00326376
-0.00338269
0.000196874
0.000141721
-0.0021796
0.000180341
-0.00232776
0.00020451
-0.00253438
0.000220601
-0.00268915
0.000222869
-0.00290634
0.000219519
-0.00304691
0.000204383
-0.00324862
-0.00336378
0.000185465
0.000128226
-0.00222749
0.000165819
-0.00236535
0.00018946
-0.00255802
0.000205618
-0.00270531
0.000208559
-0.00290928
0.000205968
-0.00304432
0.000192135
-0.00323479
-0.00334617
0.00017453
0.000115621
-0.00227357
0.000152134
-0.00240186
0.000175402
-0.00258129
0.000191431
-0.00272134
0.000194986
-0.00291283
0.000193074
-0.0030424
0.000180468
-0.00322218
-0.00332978
0.000164074
0.000103858
-0.00231773
0.000139299
-0.00243731
0.000162245
-0.00260424
0.000178027
-0.00273712
0.000182117
-0.00291692
0.000180814
-0.0030411
0.000169344
-0.00321071
-0.00331452
0.000154082
9.2955e-05
-0.00236013
0.000127232
-0.00247158
0.000149795
-0.0026268
0.000165367
-0.00275269
0.000169903
-0.00292146
0.000169157
-0.00304036
0.00015872
-0.00320027
-0.00330032
0.000144522
8.28243e-05
-0.00240081
0.000115927
-0.00250469
0.000138043
-0.00264892
0.000153376
-0.00276802
0.00015829
-0.00292637
0.000158056
-0.00304012
0.000148578
-0.00319079
-0.00328719
0.000135447
7.35665e-05
-0.00243983
0.000105476
-0.0025366
0.0001271
-0.00267054
0.000142173
-0.0027831
0.000147371
-0.00293157
0.000147552
-0.0030403
0.000138938
-0.00318218
-0.00327523
0.000126976
6.50902e-05
-0.00247729
9.58436e-05
-0.00256735
0.000116958
-0.00269166
0.000131795
-0.00279793
0.000137208
-0.00293698
0.000137686
-0.00304078
0.00012989
-0.00317438
-0.00326418
0.000118845
5.73108e-05
-0.00251316
8.68949e-05
-0.00259693
0.000107511
-0.00271227
0.000122135
-0.00281256
0.000127802
-0.00294265
0.000128641
-0.00304162
0.000121801
-0.00316754
-0.00325389
0.00011151
5.10358e-05
-0.00254754
7.94678e-05
-0.00262537
9.95102e-05
-0.00273232
0.000113798
-0.00282684
0.000119626
-0.00294848
0.00012092
-0.00304291
0.000114992
-0.00316161
-0.00324439
0.000105488
4.41494e-05
-0.00258049
7.14755e-05
-0.00265269
9.09445e-05
-0.00275179
0.000104934
-0.00284083
0.000110974
-0.00295452
0.000112848
-0.00304479
0.000107721
-0.00315649
-0.00323559
9.89288e-05
0.000115058
-0.00272185
0.000233452
-0.00277109
0.000320686
-0.00283902
0.000384599
-0.00290475
0.000416419
-0.00298634
0.000427601
-0.00305597
0.000408831
-0.00313772
-0.0032009
0.000374138
2.06955e-05
-0.00283457
0.000115956
-0.00286635
0.000188447
-0.00291151
0.000242408
-0.00295871
0.000272009
-0.00301594
0.000284172
-0.00306813
0.00027351
-0.00312706
-0.00317611
0.00024872
-4.25209e-05
-0.00292405
3.37581e-05
-0.00294262
9.34374e-05
-0.00297119
0.000138215
-0.00300349
0.000164802
-0.00304253
0.000177115
-0.00308045
0.000172241
-0.00312218
-0.00315884
0.000154967
-7.81298e-05
-0.00299417
-1.79478e-05
-0.00300281
3.00441e-05
-0.00301918
6.63166e-05
-0.00303976
8.9064e-05
-0.00306528
0.000100108
-0.00309149
9.78769e-05
-0.00311995
-0.00314606
8.51005e-05
-9.34016e-05
-0.00304833
-4.66743e-05
-0.00304953
-8.93506e-06
-0.00305692
1.97012e-05
-0.00306839
3.82583e-05
-0.00308383
4.74906e-05
-0.00310072
4.67535e-05
-0.00311921
-0.00313673
3.74215e-05
-9.43135e-05
-0.00308908
-5.90512e-05
-0.0030848
-3.03486e-05
-0.00308562
-8.45365e-06
-0.00309029
5.97661e-06
-0.00309826
1.3181e-05
-0.00310793
1.28778e-05
-0.00311891
-0.00312955
5.69607e-06
-8.36568e-05
-0.00311852
-5.81757e-05
-0.00311028
-3.73599e-05
-0.00310644
-2.15013e-05
-0.00310615
-1.1065e-05
-0.0031087
-5.93605e-06
-0.00311306
-6.30855e-06
-0.00311854
-0.00312406
-1.17946e-05
-6.47072e-05
-0.00313817
-4.77595e-05
-0.00312723
-3.39681e-05
-0.00312023
-2.3602e-05
-0.00311651
-1.69177e-05
-0.00311538
-1.39322e-05
-0.00311604
-1.47118e-05
-0.00311776
-0.0031197
-1.9076e-05
-4.10448e-05
-0.00314913
-3.16773e-05
-0.00313659
-2.41616e-05
-0.00312775
-1.8672e-05
-0.003122
-1.53419e-05
-0.00311871
-1.4213e-05
-0.00311717
-1.53077e-05
-0.00311666
-0.00311644
-1.85601e-05
-2.83999e-05
-2.55048e-05
-2.32156e-05
-2.15927e-05
-2.06755e-05
-2.04777e-05
-2.09983e-05
-2.22112e-05
-2.59533e-05
1.44757e-05
-3.21049e-05
6.15159e-06
-2.97996e-05
-2.30531e-06
-2.42802e-05
-5.51934e-06
-1.76891e-05
-6.59116e-06
-1.26158e-05
-5.07326e-06
-9.59135e-06
-3.02444e-06
-8.29096e-06
-1.30039e-06
-7.87604e-06
-4.1492e-07
-7.53105e-06
-3.4499e-07
-6.93738e-06
-5.93668e-07
-6.15324e-06
-7.84148e-07
-5.47015e-06
-6.83084e-07
-5.10234e-06
-3.67814e-07
-5.01744e-06
-8.49002e-08
-5.00958e-06
-7.86258e-09
-4.84397e-06
-1.65605e-07
-4.37107e-06
-4.729e-07
-3.58405e-06
-7.87016e-07
-2.60914e-06
-9.74916e-07
-1.5988e-06
-1.01034e-06
-6.86607e-07
-9.12192e-07
3.41269e-08
-7.20734e-07
5.32922e-07
-4.98795e-07
8.42437e-07
-3.09515e-07
1.01463e-06
-1.72192e-07
1.10091e-06
-8.62813e-08
1.13957e-06
-3.86565e-08
1.15596e-06
-1.63886e-08
1.16107e-06
-5.11745e-09
1.15566e-06
5.41661e-09
1.14873e-06
6.92173e-09
1.13491e-06
1.38208e-08
1.11031e-06
2.45995e-08
1.07363e-06
3.66806e-08
1.01634e-06
5.72896e-08
9.33949e-07
8.23946e-08
8.35386e-07
9.85632e-08
7.3259e-07
1.02796e-07
6.25302e-07
1.07288e-07
5.13637e-07
1.11664e-07
4.00901e-07
1.12736e-07
2.67739e-07
1.33163e-07
7.7557e-08
1.90182e-07
-2.46373e-07
3.2393e-07
-8.13426e-07
5.67054e-07
-1.69638e-06
8.82957e-07
-2.74743e-06
1.05105e-06
-3.52158e-06
7.74151e-07
-3.53933e-06
1.7745e-08
-2.54154e-06
-9.97792e-07
-4.75986e-07
-2.06555e-06
2.23698e-06
-2.71297e-06
4.53329e-06
-2.29631e-06
4.91608e-06
-3.82788e-07
3.85053e-06
1.06555e-06
2.71105e-06
1.13948e-06
1.86845e-06
8.42601e-07
1.31469e-06
5.53757e-07
9.59832e-07
3.54862e-07
7.31367e-07
2.28465e-07
5.80676e-07
1.50691e-07
4.77896e-07
1.0278e-07
4.051e-07
7.27961e-08
3.51509e-07
5.35909e-08
3.10597e-07
4.09116e-08
2.78366e-07
3.22312e-08
2.5229e-07
2.60758e-08
2.30723e-07
2.15675e-08
2.1255e-07
1.81729e-08
1.97007e-07
1.55432e-08
1.83543e-07
1.34635e-08
1.71765e-07
1.17785e-08
1.61364e-07
1.04007e-08
1.52117e-07
9.2464e-09
1.43835e-07
8.28212e-09
1.36384e-07
7.45129e-09
1.29636e-07
6.748e-09
1.23509e-07
6.12664e-09
1.17913e-07
5.59654e-09
1.12795e-07
5.11754e-09
1.08089e-07
4.70637e-09
1.03761e-07
4.32793e-09
9.97599e-08
4.00103e-09
9.60646e-08
3.69531e-09
9.26347e-08
3.42993e-09
8.94554e-08
3.17927e-09
8.64971e-08
2.95827e-09
8.37454e-08
2.75177e-09
8.11837e-08
2.56162e-09
7.87922e-08
2.39156e-09
7.65692e-08
2.22303e-09
7.44856e-08
2.08356e-09
7.25529e-08
1.93271e-09
7.07369e-08
1.816e-09
6.90559e-08
1.68105e-09
6.74758e-08
1.58002e-09
6.60145e-08
1.46138e-09
6.46473e-08
1.36718e-09
6.33764e-08
1.27093e-09
6.22034e-08
1.17291e-09
6.11044e-08
1.09904e-09
6.01091e-08
9.95299e-10
5.91673e-08
9.41782e-10
5.83336e-08
8.33729e-10
5.75325e-08
8.01045e-10
5.68511e-08
6.81445e-10
5.61765e-08
6.7457e-10
5.56369e-08
5.39662e-10
5.5085e-08
5.51837e-10
5.46727e-08
4.12344e-10
5.425e-08
4.22687e-10
5.3943e-08
3.07024e-10
5.36571e-08
2.85831e-10
5.34571e-08
2.00027e-10
5.32846e-08
1.72553e-10
5.31891e-08
9.54646e-11
5.31705e-08
1.86146e-11
5.31633e-08
7.19736e-12
5.31992e-08
-3.59369e-11
5.32724e-08
-7.31227e-11
5.33915e-08
-1.19117e-10
5.3565e-08
-1.73492e-10
5.37985e-08
-2.33554e-10
5.40956e-08
-2.97112e-10
5.44578e-08
-3.62205e-10
5.4885e-08
-4.27143e-10
5.53767e-08
-4.9175e-10
5.59349e-08
-5.58205e-10
5.65647e-08
-6.29798e-10
5.72702e-08
-7.05504e-10
5.8055e-08
-7.84771e-10
5.89229e-08
-8.67893e-10
5.98785e-08
-9.55582e-10
6.0927e-08
-1.04851e-09
6.20742e-08
-1.14726e-09
6.33263e-08
-1.25202e-09
6.46887e-08
-1.36244e-09
6.61654e-08
-1.4767e-09
6.7756e-08
-1.59064e-09
6.94515e-08
-1.69542e-09
7.12257e-08
-1.77427e-09
7.30221e-08
-1.79637e-09
7.47251e-08
-1.70297e-09
7.60946e-08
-1.36955e-09
7.67324e-08
-6.37815e-10
7.65065e-08
2.25945e-10
7.38975e-08
2.60896e-09
6.78308e-08
6.06671e-09
5.60845e-08
1.17463e-08
3.57087e-08
2.03759e-08
1.02592e-09
3.46827e-08
-5.33403e-08
5.43663e-08
-1.38424e-07
8.50841e-08
-2.68339e-07
1.29915e-07
1.94276e-07
-2.5976e-05
2.89448e-05
-3.21281e-05
1.23037e-05
-2.98226e-05
-4.6108e-06
-2.4303e-05
-1.10389e-05
-1.77118e-05
-1.31824e-05
-1.26386e-05
-1.01465e-05
-9.61414e-06
-6.04888e-06
-8.31389e-06
-2.60064e-06
-7.89906e-06
-8.2974e-07
-7.55416e-06
-6.89895e-07
-6.96049e-06
-1.18734e-06
-6.1763e-06
-1.56833e-06
-5.49318e-06
-1.36621e-06
-5.12538e-06
-7.35614e-07
-5.04051e-06
-1.69767e-07
-5.03275e-06
-1.56214e-08
-4.86715e-06
-3.31208e-07
-4.39426e-06
-9.45788e-07
-3.60725e-06
-1.57403e-06
-2.63235e-06
-1.94982e-06
-1.62197e-06
-2.02071e-06
-7.0979e-07
-1.82438e-06
1.06394e-08
-1.44116e-06
5.09714e-07
-9.97869e-07
8.19209e-07
-6.19011e-07
9.91417e-07
-3.44399e-07
1.07771e-06
-1.72576e-07
1.11638e-06
-7.73281e-08
1.13277e-06
-3.27728e-08
1.13787e-06
-1.02172e-08
1.13248e-06
1.0804e-08
1.12553e-06
1.38764e-08
1.11172e-06
2.76288e-08
1.08714e-06
4.91809e-08
1.05044e-06
7.33807e-08
9.9314e-07
1.14585e-07
9.10779e-07
1.64756e-07
8.12263e-07
1.97079e-07
7.09467e-07
2.05592e-07
6.02192e-07
2.14564e-07
4.9056e-07
2.23296e-07
3.77882e-07
2.25414e-07
2.44742e-07
2.66303e-07
5.48858e-08
3.80038e-07
-2.69775e-07
6.4859e-07
-8.36443e-07
1.13372e-06
-1.7193e-06
1.76581e-06
-2.77044e-06
2.10219e-06
-3.54473e-06
1.54845e-06
-3.56253e-06
3.55454e-08
-2.56466e-06
-1.99566e-06
-4.99622e-07
-4.13059e-06
2.21439e-06
-5.42699e-06
4.51011e-06
-4.59203e-06
4.89277e-06
-7.65442e-07
3.82743e-06
2.13089e-06
2.68794e-06
2.27897e-06
1.84536e-06
1.68518e-06
1.29161e-06
1.10751e-06
9.36743e-07
7.09727e-07
7.0827e-07
4.56939e-07
5.57569e-07
3.01392e-07
4.54778e-07
2.05571e-07
3.81972e-07
1.45602e-07
3.28373e-07
1.0719e-07
2.87455e-07
8.18297e-08
2.55218e-07
6.44676e-08
2.29139e-07
5.21555e-08
2.07568e-07
4.31382e-08
1.89393e-07
3.63481e-08
1.73848e-07
3.10885e-08
1.60383e-07
2.69284e-08
1.48603e-07
2.35584e-08
1.38201e-07
2.08025e-08
1.28954e-07
1.84939e-08
1.20671e-07
1.65649e-08
1.13219e-07
1.49035e-08
1.0647e-07
1.34965e-08
1.00343e-07
1.22539e-08
9.47458e-08
1.11936e-08
8.96279e-08
1.02354e-08
8.4921e-08
9.41333e-09
8.05929e-08
8.65594e-09
7.65911e-08
8.00284e-09
7.28961e-08
7.39034e-09
6.94649e-08
6.86111e-09
6.62866e-08
6.35762e-09
6.3327e-08
5.9179e-09
6.05763e-08
5.50244e-09
5.80136e-08
5.12437e-09
5.56229e-08
4.78217e-09
5.33987e-08
4.44722e-09
5.13161e-08
4.1662e-09
4.93825e-08
3.86631e-09
4.75672e-08
3.63134e-09
4.58848e-08
3.36337e-09
4.43061e-08
3.1588e-09
4.28423e-08
2.92515e-09
4.14776e-08
2.73187e-09
4.02031e-08
2.54544e-09
3.90341e-08
2.34185e-09
3.7931e-08
2.20219e-09
3.69401e-08
1.98618e-09
3.59943e-08
1.88759e-09
3.51642e-08
1.66381e-09
3.43604e-08
1.60489e-09
3.36801e-08
1.36171e-09
3.30065e-08
1.34818e-09
3.24626e-08
1.08356e-09
3.19176e-08
1.09687e-09
3.14957e-08
8.34165e-10
3.10841e-08
8.3438e-10
3.07646e-08
6.26439e-10
3.04927e-08
5.57724e-10
3.02785e-08
4.14286e-10
3.0119e-08
3.32079e-10
3.00165e-08
1.97902e-10
2.99987e-08
3.63984e-11
2.99912e-08
1.47776e-11
3.00269e-08
-7.16659e-11
3.00999e-08
-1.46093e-10
3.0219e-08
-2.38259e-10
3.03926e-08
-3.47052e-10
3.06262e-08
-4.67167e-10
3.09233e-08
-5.94269e-10
3.12856e-08
-7.24468e-10
3.17128e-08
-8.54356e-10
3.22046e-08
-9.83579e-10
3.27629e-08
-1.11648e-09
3.33928e-08
-1.25964e-09
3.40983e-08
-1.41105e-09
3.48831e-08
-1.56961e-09
3.57511e-08
-1.73586e-09
3.67068e-08
-1.91124e-09
3.77554e-08
-2.0971e-09
3.89027e-08
-2.29459e-09
4.01548e-08
-2.50412e-09
4.15173e-08
-2.72494e-09
4.2994e-08
-2.95344e-09
4.45847e-08
-3.18127e-09
4.62801e-08
-3.39086e-09
4.80543e-08
-3.54849e-09
4.98496e-08
-3.5916e-09
5.15485e-08
-3.40195e-09
5.29097e-08
-2.73069e-09
5.35462e-08
-1.27433e-09
5.32958e-08
4.76364e-10
5.06735e-08
5.2312e-09
4.4591e-08
1.21493e-08
3.28191e-08
2.35182e-08
1.23345e-08
4.08605e-08
-2.19507e-08
6.89679e-08
-7.63701e-08
1.08786e-07
-1.61489e-07
1.70203e-07
-2.9142e-07
2.59846e-07
3.88561e-07
-2.59891e-05
4.34099e-05
-3.21406e-05
1.84552e-05
-2.98341e-05
-6.91731e-06
-2.43141e-05
-1.65589e-05
-1.77226e-05
-1.97738e-05
-1.26494e-05
-1.52197e-05
-9.6251e-06
-9.07317e-06
-8.32503e-06
-3.90071e-06
-7.91036e-06
-1.24441e-06
-7.56558e-06
-1.03468e-06
-6.97196e-06
-1.78096e-06
-6.18774e-06
-2.35255e-06
-5.50452e-06
-2.04944e-06
-5.13665e-06
-1.10348e-06
-5.05176e-06
-2.54665e-07
-5.04401e-06
-2.33683e-08
-4.87853e-06
-4.9669e-07
-4.40568e-06
-1.41863e-06
-3.61866e-06
-2.36105e-06
-2.64374e-06
-2.92474e-06
-1.63337e-06
-3.03109e-06
-7.21185e-07
-2.73656e-06
-1.31512e-09
-2.16103e-06
4.98353e-07
-1.49754e-06
8.07838e-07
-9.28496e-07
9.80063e-07
-5.16624e-07
1.06637e-06
-2.58882e-07
1.10504e-06
-1.15998e-07
1.12143e-06
-4.91613e-08
1.1266e-06
-1.53924e-08
1.12118e-06
1.62267e-08
1.11422e-06
2.08367e-08
1.10039e-06
4.14618e-08
1.0758e-06
7.37676e-08
1.03909e-06
1.10085e-07
9.81791e-07
1.71889e-07
8.99431e-07
2.47116e-07
8.0093e-07
2.9558e-07
6.98135e-07
3.08387e-07
5.90864e-07
3.21835e-07
4.79241e-07
3.34919e-07
3.66594e-07
3.38061e-07
2.33473e-07
3.99424e-07
4.38161e-08
5.69694e-07
-2.81218e-07
9.73625e-07
-8.47707e-07
1.70021e-06
-1.73054e-06
2.64864e-06
-2.78177e-06
3.15342e-06
-3.55621e-06
2.32289e-06
-3.57399e-06
5.33267e-08
-2.57615e-06
-2.99351e-06
-5.11422e-07
-6.19532e-06
2.20335e-06
-8.14176e-06
4.49893e-06
-6.88761e-06
4.88152e-06
-1.14803e-06
3.81609e-06
3.19631e-06
2.67652e-06
3.41855e-06
1.83396e-06
2.52773e-06
1.28023e-06
1.66125e-06
9.25377e-07
1.06458e-06
6.96912e-07
6.85404e-07
5.46213e-07
4.52091e-07
4.43423e-07
3.08361e-07
3.70615e-07
2.18409e-07
3.17015e-07
1.60791e-07
2.76096e-07
1.22749e-07
2.43858e-07
9.67049e-08
2.17778e-07
7.8236e-08
1.96206e-07
6.47095e-08
1.78031e-07
5.45237e-08
1.62485e-07
4.6634e-08
1.4902e-07
4.03935e-08
1.3724e-07
3.53385e-08
1.26838e-07
3.12042e-08
1.17591e-07
2.77415e-08
1.09308e-07
2.48477e-08
1.01855e-07
2.23557e-08
9.51068e-08
2.02452e-08
8.89796e-08
1.83811e-08
8.33824e-08
1.67909e-08
7.82647e-08
1.53531e-08
7.35574e-08
1.41206e-08
6.92298e-08
1.29836e-08
6.52274e-08
1.20052e-08
6.1533e-08
1.10847e-08
5.81008e-08
1.02933e-08
5.49236e-08
9.53483e-09
5.19626e-08
8.8789e-09
4.92134e-08
8.25164e-09
4.66493e-08
7.68848e-09
4.42602e-08
7.1713e-09
4.20344e-08
6.673e-09
3.99534e-08
6.24718e-09
3.80183e-08
5.80148e-09
3.62045e-08
5.4451e-09
3.45204e-08
5.04751e-09
3.29436e-08
4.73559e-09
3.14769e-08
4.39181e-09
3.01156e-08
4.09321e-09
2.88372e-08
3.82382e-09
2.76733e-08
3.50577e-09
2.65654e-08
3.31006e-09
2.55793e-08
2.97234e-09
2.46293e-08
2.83757e-09
2.38024e-08
2.4907e-09
2.29965e-08
2.41079e-09
2.23161e-08
2.04214e-09
2.16446e-08
2.01964e-09
2.10957e-08
1.6325e-09
2.05573e-08
1.63527e-09
2.01269e-08
1.26455e-09
1.97248e-08
1.23648e-09
1.93939e-08
9.57302e-10
1.91347e-08
8.16929e-10
1.89081e-08
6.4085e-10
1.87591e-08
4.81138e-10
1.86521e-08
3.04901e-10
1.86366e-08
5.18792e-11
1.86291e-08
2.22434e-11
1.86655e-08
-1.08065e-10
1.87392e-08
-2.19805e-10
1.88588e-08
-3.5783e-10
1.90325e-08
-5.20717e-10
1.9266e-08
-7.00722e-10
1.95631e-08
-8.91291e-10
1.99252e-08
-1.08658e-09
2.03523e-08
-1.28149e-09
2.08441e-08
-1.47542e-09
2.14024e-08
-1.67477e-09
2.20323e-08
-1.88951e-09
2.27379e-08
-2.11663e-09
2.35227e-08
-2.35446e-09
2.43907e-08
-2.60386e-09
2.53465e-08
-2.86695e-09
2.63951e-08
-3.14576e-09
2.75425e-08
-3.442e-09
2.87947e-08
-3.75629e-09
3.01573e-08
-4.0875e-09
3.1634e-08
-4.43021e-09
3.32246e-08
-4.77187e-09
3.492e-08
-5.08619e-09
3.66938e-08
-5.3223e-09
3.84873e-08
-5.38514e-09
4.01818e-08
-5.09641e-09
4.15328e-08
-4.08175e-09
4.21638e-08
-1.90531e-09
4.19129e-08
7.27245e-10
3.92886e-08
7.85553e-09
3.31985e-08
1.82394e-08
2.14106e-08
3.5306e-08
7.503e-10
6.15208e-08
-3.32125e-08
1.02931e-07
-8.76506e-08
1.63224e-07
-1.72779e-07
2.55332e-07
-3.02714e-07
3.89781e-07
5.82845e-07
-2.59934e-05
5.78717e-05
-3.21442e-05
2.4606e-05
-2.98367e-05
-9.22483e-06
-2.43156e-05
-2.208e-05
-1.77235e-05
-2.63659e-05
-1.265e-05
-2.02933e-05
-9.62576e-06
-1.20974e-05
-8.32596e-06
-5.20052e-06
-7.91155e-06
-1.65882e-06
-7.56687e-06
-1.37936e-06
-6.97319e-06
-2.37463e-06
-6.18889e-06
-3.13685e-06
-5.50566e-06
-2.73267e-06
-5.13789e-06
-1.47125e-06
-5.05313e-06
-3.39421e-07
-5.04553e-06
-3.09718e-08
-4.87999e-06
-6.62232e-07
-4.40711e-06
-1.89151e-06
-3.62006e-06
-3.1481e-06
-2.64511e-06
-3.89969e-06
-1.63467e-06
-4.04153e-06
-7.22447e-07
-3.64878e-06
-2.84801e-09
-2.88063e-06
4.97023e-07
-1.99741e-06
8.06483e-07
-1.23796e-06
9.78671e-07
-6.88813e-07
1.06495e-06
-3.45163e-07
1.10362e-06
-1.54666e-07
1.12e-06
-6.55362e-08
1.12507e-06
-2.04672e-08
1.1197e-06
2.15942e-08
1.11273e-06
2.78099e-08
1.09894e-06
5.52553e-08
1.07437e-06
9.8335e-08
1.03766e-06
1.46795e-07
9.80362e-07
2.29185e-07
8.98018e-07
3.2946e-07
7.99524e-07
3.94075e-07
6.96726e-07
4.11184e-07
5.89461e-07
4.29101e-07
4.77848e-07
4.46531e-07
3.65214e-07
4.50695e-07
2.32109e-07
5.32529e-07
4.25025e-08
7.59301e-07
-2.82542e-07
1.29867e-06
-8.48992e-07