/*--------------------------------*- C++ -*----------------------------------*\
| =========                 |                                                 |
| \\      /  F ield         | OpenFOAM: The Open Source CFD Toolbox           |
|  \\    /   O peration     | Version:  v1912                                 |
|   \\  /    A nd           | Website:  www.openfoam.com                      |
|    \\/     M anipulation  |                                                 |
\*---------------------------------------------------------------------------*/
FoamFile
{
    version     2.0;
    format      ascii;
    class       volScalarField;
    location    "70";
    object      k;
}
// * * * * * * * * * * * * * * * * * * * * * * * * * * * * * * * * * * * * * //

dimensions      [0 2 -2 0 0 0 0];


internalField   nonuniform List<scalar> 
14268
(
5.50148e-12
5.50326e-12
5.50496e-12
5.50659e-12
5.50813e-12
5.5096e-12
5.511e-12
5.51234e-12
5.51361e-12
5.51482e-12
5.51597e-12
5.51707e-12
5.51811e-12
5.5191e-12
5.52004e-12
5.52093e-12
5.52178e-12
5.52259e-12
5.52336e-12
5.52409e-12
5.52478e-12
5.52544e-12
5.52606e-12
5.52665e-12
5.52721e-12
5.52775e-12
5.52825e-12
5.52873e-12
5.52918e-12
5.52961e-12
5.53002e-12
5.5304e-12
5.53077e-12
5.53112e-12
5.53144e-12
5.53175e-12
5.53205e-12
5.53232e-12
5.53258e-12
5.53283e-12
5.53307e-12
5.53329e-12
5.53349e-12
5.53369e-12
5.53388e-12
5.53405e-12
5.53422e-12
5.53438e-12
5.53452e-12
5.53466e-12
5.53479e-12
5.53492e-12
5.53503e-12
5.53514e-12
5.53524e-12
5.53534e-12
5.53543e-12
5.53552e-12
5.5356e-12
5.53568e-12
5.53575e-12
5.53581e-12
5.53588e-12
5.53594e-12
5.53599e-12
5.53604e-12
5.53609e-12
5.53614e-12
5.53618e-12
5.53622e-12
5.53626e-12
5.53629e-12
5.53633e-12
5.53636e-12
5.53639e-12
5.53641e-12
5.53644e-12
5.53646e-12
5.53648e-12
5.5365e-12
5.53652e-12
5.53654e-12
5.53656e-12
5.53657e-12
5.53658e-12
5.5366e-12
5.53661e-12
5.53662e-12
5.53663e-12
5.53664e-12
5.53665e-12
5.53666e-12
5.53666e-12
5.53667e-12
5.53667e-12
5.53668e-12
5.53668e-12
5.53669e-12
5.53669e-12
5.53669e-12
5.5367e-12
5.53669e-12
5.5367e-12
5.53668e-12
5.5367e-12
5.53668e-12
5.5367e-12
5.53667e-12
5.5367e-12
5.53666e-12
5.5367e-12
5.53665e-12
5.5367e-12
5.53664e-12
5.5367e-12
5.53663e-12
5.5367e-12
5.53663e-12
5.53672e-12
5.53663e-12
5.53674e-12
5.53661e-12
5.53676e-12
5.53658e-12
5.53677e-12
5.53653e-12
5.53678e-12
5.53648e-12
5.53681e-12
5.53647e-12
5.53688e-12
5.5365e-12
5.53696e-12
5.53657e-12
5.53701e-12
5.53666e-12
5.53704e-12
5.5367e-12
5.53704e-12
5.53684e-12
5.53703e-12
5.53687e-12
5.53701e-12
5.53689e-12
5.53699e-12
5.53689e-12
5.53697e-12
5.53687e-12
5.53694e-12
5.53686e-12
5.53691e-12
5.53684e-12
5.53689e-12
5.53683e-12
5.53688e-12
5.53683e-12
5.53687e-12
5.53683e-12
5.53687e-12
5.53685e-12
5.53697e-12
5.53697e-12
5.54047e-12
5.60687e-12
1.62395e-10
1.62449e-10
1.62499e-10
1.62548e-10
1.62594e-10
1.62638e-10
1.6268e-10
1.6272e-10
1.62758e-10
1.62794e-10
1.62828e-10
1.62861e-10
1.62892e-10
1.62921e-10
1.62949e-10
1.62976e-10
1.63001e-10
1.63026e-10
1.63048e-10
1.6307e-10
1.63091e-10
1.63111e-10
1.63129e-10
1.63147e-10
1.63164e-10
1.63179e-10
1.63194e-10
1.63209e-10
1.63222e-10
1.63235e-10
1.63247e-10
1.63259e-10
1.6327e-10
1.6328e-10
1.6329e-10
1.63299e-10
1.63308e-10
1.63316e-10
1.63324e-10
1.63331e-10
1.63338e-10
1.63345e-10
1.63351e-10
1.63357e-10
1.63362e-10
1.63368e-10
1.63373e-10
1.63377e-10
1.63382e-10
1.63386e-10
1.6339e-10
1.63393e-10
1.63397e-10
1.634e-10
1.63403e-10
1.63406e-10
1.63409e-10
1.63411e-10
1.63414e-10
1.63416e-10
1.63418e-10
1.6342e-10
1.63422e-10
1.63424e-10
1.63426e-10
1.63427e-10
1.63429e-10
1.6343e-10
1.63431e-10
1.63432e-10
1.63433e-10
1.63435e-10
1.63436e-10
1.63436e-10
1.63437e-10
1.63438e-10
1.63439e-10
1.6344e-10
1.6344e-10
1.63441e-10
1.63441e-10
1.63442e-10
1.63442e-10
1.63443e-10
1.63443e-10
1.63444e-10
1.63444e-10
1.63444e-10
1.63445e-10
1.63445e-10
1.63445e-10
1.63445e-10
1.63446e-10
1.63446e-10
1.63446e-10
1.63446e-10
1.63446e-10
1.63446e-10
1.63446e-10
1.63446e-10
1.63447e-10
1.63446e-10
1.63447e-10
1.63446e-10
1.63447e-10
1.63446e-10
1.63447e-10
1.63446e-10
1.63447e-10
1.63446e-10
1.63447e-10
1.63445e-10
1.63447e-10
1.63445e-10
1.63447e-10
1.63445e-10
1.63447e-10
1.63445e-10
1.63447e-10
1.63445e-10
1.63448e-10
1.63444e-10
1.63449e-10
1.63443e-10
1.63449e-10
1.63442e-10
1.63449e-10
1.6344e-10
1.6345e-10
1.6344e-10
1.63452e-10
1.63441e-10
1.63454e-10
1.63443e-10
1.63456e-10
1.63445e-10
1.63456e-10
1.63447e-10
1.63456e-10
1.63451e-10
1.63456e-10
1.63452e-10
1.63456e-10
1.63452e-10
1.63455e-10
1.63452e-10
1.63454e-10
1.63452e-10
1.63454e-10
1.63451e-10
1.63453e-10
1.63451e-10
1.63452e-10
1.63451e-10
1.63452e-10
1.6345e-10
1.63452e-10
1.63451e-10
1.63452e-10
1.63451e-10
1.63454e-10
1.63455e-10
1.63557e-10
1.65345e-10
1.10089e-09
1.10124e-09
1.10158e-09
1.1019e-09
1.1022e-09
1.10249e-09
1.10277e-09
1.10303e-09
1.10328e-09
1.10352e-09
1.10375e-09
1.10396e-09
1.10417e-09
1.10437e-09
1.10455e-09
1.10473e-09
1.10489e-09
1.10505e-09
1.1052e-09
1.10535e-09
1.10548e-09
1.10561e-09
1.10574e-09
1.10585e-09
1.10596e-09
1.10607e-09
1.10617e-09
1.10626e-09
1.10635e-09
1.10644e-09
1.10652e-09
1.10659e-09
1.10667e-09
1.10673e-09
1.1068e-09
1.10686e-09
1.10692e-09
1.10697e-09
1.10702e-09
1.10707e-09
1.10712e-09
1.10716e-09
1.1072e-09
1.10724e-09
1.10728e-09
1.10731e-09
1.10734e-09
1.10738e-09
1.1074e-09
1.10743e-09
1.10746e-09
1.10748e-09
1.1075e-09
1.10753e-09
1.10755e-09
1.10757e-09
1.10758e-09
1.1076e-09
1.10762e-09
1.10763e-09
1.10765e-09
1.10766e-09
1.10767e-09
1.10768e-09
1.10769e-09
1.1077e-09
1.10771e-09
1.10772e-09
1.10773e-09
1.10774e-09
1.10775e-09
1.10775e-09
1.10776e-09
1.10777e-09
1.10777e-09
1.10778e-09
1.10778e-09
1.10779e-09
1.10779e-09
1.10779e-09
1.1078e-09
1.1078e-09
1.10781e-09
1.10781e-09
1.10781e-09
1.10781e-09
1.10782e-09
1.10782e-09
1.10782e-09
1.10782e-09
1.10782e-09
1.10782e-09
1.10783e-09
1.10783e-09
1.10783e-09
1.10783e-09
1.10783e-09
1.10783e-09
1.10783e-09
1.10783e-09
1.10783e-09
1.10783e-09
1.10783e-09
1.10783e-09
1.10783e-09
1.10783e-09
1.10783e-09
1.10783e-09
1.10783e-09
1.10783e-09
1.10783e-09
1.10782e-09
1.10783e-09
1.10782e-09
1.10783e-09
1.10782e-09
1.10783e-09
1.10782e-09
1.10784e-09
1.10782e-09
1.10784e-09
1.10782e-09
1.10785e-09
1.10781e-09
1.10785e-09
1.1078e-09
1.10785e-09
1.10779e-09
1.10786e-09
1.10779e-09
1.10787e-09
1.10779e-09
1.10788e-09
1.10781e-09
1.10789e-09
1.10782e-09
1.1079e-09
1.10783e-09
1.1079e-09
1.10786e-09
1.1079e-09
1.10787e-09
1.10789e-09
1.10787e-09
1.10789e-09
1.10787e-09
1.10788e-09
1.10787e-09
1.10788e-09
1.10786e-09
1.10787e-09
1.10786e-09
1.10787e-09
1.10786e-09
1.10787e-09
1.10786e-09
1.10787e-09
1.10786e-09
1.10787e-09
1.10786e-09
1.10788e-09
1.10789e-09
1.10856e-09
1.11914e-09
3.67121e-09
3.67232e-09
3.67338e-09
3.67439e-09
3.67535e-09
3.67627e-09
3.67714e-09
3.67798e-09
3.67877e-09
3.67952e-09
3.68024e-09
3.68092e-09
3.68156e-09
3.68218e-09
3.68277e-09
3.68332e-09
3.68385e-09
3.68436e-09
3.68483e-09
3.68529e-09
3.68572e-09
3.68613e-09
3.68651e-09
3.68688e-09
3.68723e-09
3.68756e-09
3.68788e-09
3.68818e-09
3.68846e-09
3.68872e-09
3.68898e-09
3.68922e-09
3.68945e-09
3.68966e-09
3.68986e-09
3.69006e-09
3.69024e-09
3.69041e-09
3.69057e-09
3.69073e-09
3.69087e-09
3.69101e-09
3.69114e-09
3.69126e-09
3.69138e-09
3.69149e-09
3.69159e-09
3.69169e-09
3.69178e-09
3.69187e-09
3.69195e-09
3.69202e-09
3.6921e-09
3.69217e-09
3.69223e-09
3.69229e-09
3.69235e-09
3.6924e-09
3.69245e-09
3.6925e-09
3.69254e-09
3.69258e-09
3.69262e-09
3.69266e-09
3.69269e-09
3.69273e-09
3.69276e-09
3.69278e-09
3.69281e-09
3.69284e-09
3.69286e-09
3.69288e-09
3.6929e-09
3.69292e-09
3.69294e-09
3.69296e-09
3.69297e-09
3.69299e-09
3.693e-09
3.69301e-09
3.69302e-09
3.69303e-09
3.69304e-09
3.69305e-09
3.69306e-09
3.69307e-09
3.69308e-09
3.69308e-09
3.69309e-09
3.6931e-09
3.6931e-09
3.69311e-09
3.69311e-09
3.69311e-09
3.69312e-09
3.69312e-09
3.69312e-09
3.69313e-09
3.69313e-09
3.69313e-09
3.69313e-09
3.69313e-09
3.69314e-09
3.69312e-09
3.69314e-09
3.69312e-09
3.69314e-09
3.69312e-09
3.69314e-09
3.69311e-09
3.69313e-09
3.6931e-09
3.69313e-09
3.6931e-09
3.69313e-09
3.69309e-09
3.69314e-09
3.69309e-09
3.69315e-09
3.69309e-09
3.69316e-09
3.69308e-09
3.69317e-09
3.69306e-09
3.69318e-09
3.69303e-09
3.69319e-09
3.693e-09
3.6932e-09
3.69299e-09
3.69324e-09
3.69301e-09
3.69329e-09
3.69306e-09
3.69332e-09
3.69311e-09
3.69333e-09
3.69314e-09
3.69333e-09
3.69322e-09
3.69333e-09
3.69323e-09
3.69332e-09
3.69324e-09
3.69331e-09
3.69324e-09
3.69329e-09
3.69324e-09
3.69328e-09
3.69323e-09
3.69326e-09
3.69322e-09
3.69325e-09
3.69321e-09
3.69324e-09
3.69321e-09
3.69323e-09
3.69321e-09
3.69324e-09
3.69323e-09
3.69329e-09
3.6933e-09
3.69541e-09
3.72548e-09
8.36261e-09
8.36492e-09
8.36712e-09
8.36923e-09
8.37123e-09
8.37314e-09
8.37495e-09
8.37668e-09
8.37832e-09
8.37989e-09
8.38138e-09
8.3828e-09
8.38414e-09
8.38543e-09
8.38664e-09
8.3878e-09
8.3889e-09
8.38995e-09
8.39094e-09
8.39188e-09
8.39278e-09
8.39363e-09
8.39443e-09
8.3952e-09
8.39593e-09
8.39662e-09
8.39727e-09
8.39789e-09
8.39847e-09
8.39903e-09
8.39956e-09
8.40006e-09
8.40053e-09
8.40097e-09
8.4014e-09
8.4018e-09
8.40218e-09
8.40254e-09
8.40287e-09
8.40319e-09
8.4035e-09
8.40378e-09
8.40405e-09
8.40431e-09
8.40455e-09
8.40478e-09
8.40499e-09
8.40519e-09
8.40538e-09
8.40556e-09
8.40573e-09
8.40589e-09
8.40604e-09
8.40618e-09
8.40632e-09
8.40644e-09
8.40656e-09
8.40667e-09
8.40678e-09
8.40687e-09
8.40697e-09
8.40705e-09
8.40714e-09
8.40721e-09
8.40728e-09
8.40735e-09
8.40741e-09
8.40747e-09
8.40753e-09
8.40758e-09
8.40763e-09
8.40767e-09
8.40772e-09
8.40776e-09
8.40779e-09
8.40783e-09
8.40786e-09
8.40789e-09
8.40792e-09
8.40795e-09
8.40797e-09
8.40799e-09
8.40801e-09
8.40803e-09
8.40805e-09
8.40807e-09
8.40808e-09
8.4081e-09
8.40811e-09
8.40812e-09
8.40813e-09
8.40814e-09
8.40815e-09
8.40816e-09
8.40817e-09
8.40817e-09
8.40818e-09
8.40818e-09
8.40819e-09
8.40819e-09
8.4082e-09
8.40819e-09
8.4082e-09
8.40818e-09
8.40821e-09
8.40817e-09
8.40821e-09
8.40816e-09
8.4082e-09
8.40815e-09
8.4082e-09
8.40814e-09
8.4082e-09
8.40813e-09
8.4082e-09
8.40812e-09
8.4082e-09
8.40811e-09
8.40822e-09
8.40811e-09
8.40825e-09
8.40809e-09
8.40828e-09
8.40804e-09
8.40829e-09
8.40798e-09
8.40831e-09
8.40792e-09
8.40834e-09
8.4079e-09
8.40842e-09
8.40795e-09
8.40852e-09
8.40804e-09
8.40858e-09
8.40815e-09
8.40861e-09
8.40821e-09
8.40861e-09
8.40837e-09
8.4086e-09
8.40841e-09
8.40858e-09
8.40843e-09
8.40856e-09
8.40843e-09
8.40852e-09
8.40841e-09
8.40849e-09
8.4084e-09
8.40846e-09
8.40838e-09
8.40844e-09
8.40837e-09
8.40842e-09
8.40836e-09
8.40841e-09
8.40836e-09
8.40841e-09
8.40839e-09
8.40853e-09
8.40855e-09
8.41291e-09
8.47008e-09
1.50176e-08
1.50213e-08
1.50248e-08
1.50281e-08
1.50313e-08
1.50343e-08
1.50371e-08
1.50399e-08
1.50425e-08
1.50449e-08
1.50473e-08
1.50495e-08
1.50516e-08
1.50537e-08
1.50556e-08
1.50574e-08
1.50592e-08
1.50608e-08
1.50624e-08
1.50639e-08
1.50653e-08
1.50666e-08
1.50679e-08
1.50691e-08
1.50702e-08
1.50713e-08
1.50724e-08
1.50733e-08
1.50743e-08
1.50751e-08
1.5076e-08
1.50768e-08
1.50775e-08
1.50782e-08
1.50789e-08
1.50795e-08
1.50801e-08
1.50807e-08
1.50812e-08
1.50817e-08
1.50822e-08
1.50826e-08
1.50831e-08
1.50835e-08
1.50839e-08
1.50842e-08
1.50846e-08
1.50849e-08
1.50852e-08
1.50855e-08
1.50857e-08
1.5086e-08
1.50862e-08
1.50864e-08
1.50867e-08
1.50869e-08
1.5087e-08
1.50872e-08
1.50874e-08
1.50875e-08
1.50877e-08
1.50878e-08
1.50879e-08
1.50881e-08
1.50882e-08
1.50883e-08
1.50884e-08
1.50885e-08
1.50886e-08
1.50886e-08
1.50887e-08
1.50888e-08
1.50889e-08
1.50889e-08
1.5089e-08
1.5089e-08
1.50891e-08
1.50891e-08
1.50892e-08
1.50892e-08
1.50893e-08
1.50893e-08
1.50893e-08
1.50894e-08
1.50894e-08
1.50894e-08
1.50894e-08
1.50895e-08
1.50895e-08
1.50895e-08
1.50895e-08
1.50895e-08
1.50896e-08
1.50896e-08
1.50896e-08
1.50896e-08
1.50896e-08
1.50896e-08
1.50896e-08
1.50896e-08
1.50896e-08
1.50896e-08
1.50896e-08
1.50896e-08
1.50896e-08
1.50896e-08
1.50896e-08
1.50896e-08
1.50896e-08
1.50895e-08
1.50896e-08
1.50895e-08
1.50896e-08
1.50895e-08
1.50896e-08
1.50895e-08
1.50896e-08
1.50895e-08
1.50897e-08
1.50895e-08
1.50897e-08
1.50895e-08
1.50898e-08
1.50894e-08
1.50898e-08
1.50893e-08
1.50898e-08
1.50892e-08
1.50899e-08
1.50892e-08
1.509e-08
1.50892e-08
1.50901e-08
1.50894e-08
1.50902e-08
1.50895e-08
1.50903e-08
1.50896e-08
1.50903e-08
1.50899e-08
1.50903e-08
1.509e-08
1.50902e-08
1.509e-08
1.50902e-08
1.509e-08
1.50901e-08
1.509e-08
1.50901e-08
1.50899e-08
1.509e-08
1.50899e-08
1.509e-08
1.50899e-08
1.509e-08
1.50899e-08
1.509e-08
1.50899e-08
1.509e-08
1.50899e-08
1.50901e-08
1.50902e-08
1.50971e-08
1.51808e-08
2.28973e-08
2.2902e-08
2.29064e-08
2.29107e-08
2.29148e-08
2.29187e-08
2.29224e-08
2.29259e-08
2.29292e-08
2.29324e-08
2.29354e-08
2.29383e-08
2.2941e-08
2.29437e-08
2.29461e-08
2.29485e-08
2.29507e-08
2.29528e-08
2.29549e-08
2.29568e-08
2.29586e-08
2.29603e-08
2.2962e-08
2.29635e-08
2.2965e-08
2.29664e-08
2.29677e-08
2.2969e-08
2.29702e-08
2.29713e-08
2.29724e-08
2.29734e-08
2.29743e-08
2.29753e-08
2.29761e-08
2.29769e-08
2.29777e-08
2.29784e-08
2.29791e-08
2.29798e-08
2.29804e-08
2.2981e-08
2.29815e-08
2.2982e-08
2.29825e-08
2.2983e-08
2.29834e-08
2.29838e-08
2.29842e-08
2.29846e-08
2.29849e-08
2.29853e-08
2.29856e-08
2.29858e-08
2.29861e-08
2.29864e-08
2.29866e-08
2.29868e-08
2.29871e-08
2.29873e-08
2.29874e-08
2.29876e-08
2.29878e-08
2.29879e-08
2.29881e-08
2.29882e-08
2.29883e-08
2.29885e-08
2.29886e-08
2.29887e-08
2.29888e-08
2.29889e-08
2.2989e-08
2.2989e-08
2.29891e-08
2.29892e-08
2.29893e-08
2.29893e-08
2.29894e-08
2.29894e-08
2.29895e-08
2.29895e-08
2.29896e-08
2.29896e-08
2.29896e-08
2.29897e-08
2.29897e-08
2.29897e-08
2.29898e-08
2.29898e-08
2.29898e-08
2.29898e-08
2.29899e-08
2.29899e-08
2.29899e-08
2.29899e-08
2.29899e-08
2.29899e-08
2.29899e-08
2.29899e-08
2.29899e-08
2.29899e-08
2.299e-08
2.29899e-08
2.299e-08
2.29899e-08
2.299e-08
2.29899e-08
2.299e-08
2.29898e-08
2.299e-08
2.29898e-08
2.29899e-08
2.29898e-08
2.29899e-08
2.29898e-08
2.299e-08
2.29898e-08
2.299e-08
2.29898e-08
2.29901e-08
2.29897e-08
2.29901e-08
2.29896e-08
2.29901e-08
2.29895e-08
2.29902e-08
2.29894e-08
2.29902e-08
2.29893e-08
2.29904e-08
2.29894e-08
2.29906e-08
2.29896e-08
2.29907e-08
2.29898e-08
2.29908e-08
2.299e-08
2.29908e-08
2.29903e-08
2.29908e-08
2.29904e-08
2.29907e-08
2.29904e-08
2.29907e-08
2.29904e-08
2.29906e-08
2.29904e-08
2.29906e-08
2.29904e-08
2.29905e-08
2.29903e-08
2.29904e-08
2.29903e-08
2.29904e-08
2.29903e-08
2.29904e-08
2.29903e-08
2.29904e-08
2.29903e-08
2.29906e-08
2.29907e-08
2.29995e-08
2.31008e-08
3.0994e-08
3.09992e-08
3.10041e-08
3.10087e-08
3.10132e-08
3.10174e-08
3.10215e-08
3.10253e-08
3.1029e-08
3.10324e-08
3.10357e-08
3.10389e-08
3.10419e-08
3.10447e-08
3.10474e-08
3.105e-08
3.10524e-08
3.10548e-08
3.1057e-08
3.10591e-08
3.1061e-08
3.10629e-08
3.10647e-08
3.10664e-08
3.1068e-08
3.10696e-08
3.1071e-08
3.10724e-08
3.10737e-08
3.10749e-08
3.10761e-08
3.10772e-08
3.10782e-08
3.10792e-08
3.10802e-08
3.10811e-08
3.10819e-08
3.10827e-08
3.10835e-08
3.10842e-08
3.10848e-08
3.10855e-08
3.10861e-08
3.10866e-08
3.10872e-08
3.10877e-08
3.10882e-08
3.10886e-08
3.1089e-08
3.10894e-08
3.10898e-08
3.10902e-08
3.10905e-08
3.10908e-08
3.10911e-08
3.10914e-08
3.10916e-08
3.10919e-08
3.10921e-08
3.10923e-08
3.10925e-08
3.10927e-08
3.10929e-08
3.10931e-08
3.10933e-08
3.10934e-08
3.10935e-08
3.10937e-08
3.10938e-08
3.10939e-08
3.1094e-08
3.10941e-08
3.10942e-08
3.10943e-08
3.10944e-08
3.10945e-08
3.10945e-08
3.10946e-08
3.10947e-08
3.10947e-08
3.10948e-08
3.10948e-08
3.10949e-08
3.10949e-08
3.1095e-08
3.1095e-08
3.1095e-08
3.10951e-08
3.10951e-08
3.10951e-08
3.10952e-08
3.10952e-08
3.10952e-08
3.10952e-08
3.10952e-08
3.10952e-08
3.10953e-08
3.10953e-08
3.10953e-08
3.10953e-08
3.10953e-08
3.10953e-08
3.10953e-08
3.10953e-08
3.10953e-08
3.10952e-08
3.10953e-08
3.10952e-08
3.10953e-08
3.10952e-08
3.10953e-08
3.10952e-08
3.10953e-08
3.10951e-08
3.10953e-08
3.10951e-08
3.10953e-08
3.10951e-08
3.10954e-08
3.10951e-08
3.10954e-08
3.1095e-08
3.10955e-08
3.10949e-08
3.10955e-08
3.10948e-08
3.10955e-08
3.10947e-08
3.10956e-08
3.10946e-08
3.10958e-08
3.10947e-08
3.1096e-08
3.10949e-08
3.10962e-08
3.10952e-08
3.10962e-08
3.10953e-08
3.10962e-08
3.10957e-08
3.10962e-08
3.10958e-08
3.10962e-08
3.10958e-08
3.10961e-08
3.10958e-08
3.1096e-08
3.10958e-08
3.1096e-08
3.10957e-08
3.10959e-08
3.10957e-08
3.10958e-08
3.10957e-08
3.10958e-08
3.10957e-08
3.10958e-08
3.10957e-08
3.10958e-08
3.10957e-08
3.1096e-08
3.10961e-08
3.11057e-08
3.12111e-08
3.83936e-08
3.83986e-08
3.84033e-08
3.84079e-08
3.84122e-08
3.84163e-08
3.84202e-08
3.84239e-08
3.84275e-08
3.84308e-08
3.8434e-08
3.84371e-08
3.844e-08
3.84428e-08
3.84454e-08
3.84479e-08
3.84503e-08
3.84525e-08
3.84546e-08
3.84567e-08
3.84586e-08
3.84604e-08
3.84622e-08
3.84638e-08
3.84654e-08
3.84669e-08
3.84683e-08
3.84696e-08
3.84709e-08
3.84721e-08
3.84732e-08
3.84743e-08
3.84753e-08
3.84763e-08
3.84772e-08
3.8478e-08
3.84789e-08
3.84796e-08
3.84804e-08
3.8481e-08
3.84817e-08
3.84823e-08
3.84829e-08
3.84834e-08
3.8484e-08
3.84845e-08
3.84849e-08
3.84854e-08
3.84858e-08
3.84862e-08
3.84865e-08
3.84869e-08
3.84872e-08
3.84875e-08
3.84878e-08
3.8488e-08
3.84883e-08
3.84885e-08
3.84888e-08
3.8489e-08
3.84892e-08
3.84894e-08
3.84895e-08
3.84897e-08
3.84899e-08
3.849e-08
3.84901e-08
3.84903e-08
3.84904e-08
3.84905e-08
3.84906e-08
3.84907e-08
3.84908e-08
3.84909e-08
3.8491e-08
3.8491e-08
3.84911e-08
3.84912e-08
3.84912e-08
3.84913e-08
3.84914e-08
3.84914e-08
3.84915e-08
3.84915e-08
3.84915e-08
3.84916e-08
3.84916e-08
3.84916e-08
3.84917e-08
3.84917e-08
3.84917e-08
3.84917e-08
3.84918e-08
3.84918e-08
3.84918e-08
3.84918e-08
3.84918e-08
3.84918e-08
3.84918e-08
3.84918e-08
3.84919e-08
3.84918e-08
3.84919e-08
3.84918e-08
3.84919e-08
3.84918e-08
3.84919e-08
3.84918e-08
3.84919e-08
3.84917e-08
3.84919e-08
3.84917e-08
3.84919e-08
3.84917e-08
3.84919e-08
3.84917e-08
3.84919e-08
3.84917e-08
3.84919e-08
3.84917e-08
3.8492e-08
3.84916e-08
3.8492e-08
3.84915e-08
3.84921e-08
3.84914e-08
3.84921e-08
3.84912e-08
3.84922e-08
3.84912e-08
3.84924e-08
3.84913e-08
3.84926e-08
3.84915e-08
3.84927e-08
3.84917e-08
3.84928e-08
3.84919e-08
3.84928e-08
3.84922e-08
3.84927e-08
3.84923e-08
3.84927e-08
3.84924e-08
3.84926e-08
3.84924e-08
3.84926e-08
3.84923e-08
3.84925e-08
3.84923e-08
3.84924e-08
3.84923e-08
3.84924e-08
3.84922e-08
3.84923e-08
3.84922e-08
3.84923e-08
3.84922e-08
3.84923e-08
3.84923e-08
3.84926e-08
3.84926e-08
3.85018e-08
3.85987e-08
4.45159e-08
4.45202e-08
4.45244e-08
4.45284e-08
4.45322e-08
4.45358e-08
4.45392e-08
4.45425e-08
4.45456e-08
4.45486e-08
4.45514e-08
4.45541e-08
4.45566e-08
4.45591e-08
4.45614e-08
4.45636e-08
4.45656e-08
4.45676e-08
4.45695e-08
4.45713e-08
4.4573e-08
4.45746e-08
4.45761e-08
4.45775e-08
4.45789e-08
4.45802e-08
4.45815e-08
4.45826e-08
4.45837e-08
4.45848e-08
4.45858e-08
4.45867e-08
4.45876e-08
4.45885e-08
4.45893e-08
4.459e-08
4.45907e-08
4.45914e-08
4.45921e-08
4.45927e-08
4.45932e-08
4.45938e-08
4.45943e-08
4.45948e-08
4.45952e-08
4.45956e-08
4.45961e-08
4.45964e-08
4.45968e-08
4.45971e-08
4.45975e-08
4.45978e-08
4.4598e-08
4.45983e-08
4.45986e-08
4.45988e-08
4.4599e-08
4.45992e-08
4.45994e-08
4.45996e-08
4.45998e-08
4.46e-08
4.46001e-08
4.46003e-08
4.46004e-08
4.46005e-08
4.46007e-08
4.46008e-08
4.46009e-08
4.4601e-08
4.46011e-08
4.46012e-08
4.46012e-08
4.46013e-08
4.46014e-08
4.46014e-08
4.46015e-08
4.46016e-08
4.46016e-08
4.46017e-08
4.46017e-08
4.46018e-08
4.46018e-08
4.46018e-08
4.46019e-08
4.46019e-08
4.46019e-08
4.4602e-08
4.4602e-08
4.4602e-08
4.4602e-08
4.46021e-08
4.46021e-08
4.46021e-08
4.46021e-08
4.46021e-08
4.46021e-08
4.46021e-08
4.46021e-08
4.46021e-08
4.46022e-08
4.46021e-08
4.46022e-08
4.46021e-08
4.46022e-08
4.46021e-08
4.46022e-08
4.46021e-08
4.46022e-08
4.46021e-08
4.46022e-08
4.4602e-08
4.46022e-08
4.4602e-08
4.46022e-08
4.4602e-08
4.46022e-08
4.4602e-08
4.46022e-08
4.4602e-08
4.46023e-08
4.46019e-08
4.46023e-08
4.46018e-08
4.46023e-08
4.46017e-08
4.46024e-08
4.46016e-08
4.46025e-08
4.46016e-08
4.46026e-08
4.46016e-08
4.46028e-08
4.46018e-08
4.46029e-08
4.4602e-08
4.4603e-08
4.46022e-08
4.4603e-08
4.46025e-08
4.46029e-08
4.46026e-08
4.46029e-08
4.46026e-08
4.46028e-08
4.46026e-08
4.46028e-08
4.46026e-08
4.46027e-08
4.46025e-08
4.46027e-08
4.46025e-08
4.46026e-08
4.46025e-08
4.46026e-08
4.46025e-08
4.46026e-08
4.46025e-08
4.46026e-08
4.46025e-08
4.46028e-08
4.46028e-08
4.46106e-08
4.46909e-08
4.91626e-08
4.91661e-08
4.91695e-08
4.91727e-08
4.91757e-08
4.91786e-08
4.91814e-08
4.9184e-08
4.91865e-08
4.91889e-08
4.91912e-08
4.91933e-08
4.91954e-08
4.91973e-08
4.91992e-08
4.92009e-08
4.92026e-08
4.92042e-08
4.92057e-08
4.92071e-08
4.92085e-08
4.92098e-08
4.9211e-08
4.92122e-08
4.92133e-08
4.92143e-08
4.92153e-08
4.92163e-08
4.92172e-08
4.9218e-08
4.92188e-08
4.92196e-08
4.92203e-08
4.9221e-08
4.92216e-08
4.92222e-08
4.92228e-08
4.92233e-08
4.92238e-08
4.92243e-08
4.92248e-08
4.92252e-08
4.92256e-08
4.9226e-08
4.92264e-08
4.92267e-08
4.92271e-08
4.92274e-08
4.92277e-08
4.92279e-08
4.92282e-08
4.92284e-08
4.92287e-08
4.92289e-08
4.92291e-08
4.92293e-08
4.92295e-08
4.92296e-08
4.92298e-08
4.92299e-08
4.92301e-08
4.92302e-08
4.92303e-08
4.92304e-08
4.92306e-08
4.92307e-08
4.92308e-08
4.92308e-08
4.92309e-08
4.9231e-08
4.92311e-08
4.92312e-08
4.92312e-08
4.92313e-08
4.92313e-08
4.92314e-08
4.92314e-08
4.92315e-08
4.92315e-08
4.92316e-08
4.92316e-08
4.92316e-08
4.92317e-08
4.92317e-08
4.92317e-08
4.92318e-08
4.92318e-08
4.92318e-08
4.92318e-08
4.92318e-08
4.92319e-08
4.92319e-08
4.92319e-08
4.92319e-08
4.92319e-08
4.92319e-08
4.92319e-08
4.92319e-08
4.92319e-08
4.92319e-08
4.9232e-08
4.92319e-08
4.9232e-08
4.92319e-08
4.9232e-08
4.92319e-08
4.9232e-08
4.92319e-08
4.9232e-08
4.92319e-08
4.9232e-08
4.92319e-08
4.9232e-08
4.92318e-08
4.9232e-08
4.92318e-08
4.9232e-08
4.92318e-08
4.9232e-08
4.92318e-08
4.9232e-08
4.92318e-08
4.92321e-08
4.92317e-08
4.92321e-08
4.92316e-08
4.92321e-08
4.92315e-08
4.92322e-08
4.92314e-08
4.92323e-08
4.92315e-08
4.92325e-08
4.92317e-08
4.92326e-08
4.92318e-08
4.92326e-08
4.92319e-08
4.92326e-08
4.92322e-08
4.92326e-08
4.92323e-08
4.92326e-08
4.92323e-08
4.92325e-08
4.92323e-08
4.92325e-08
4.92323e-08
4.92324e-08
4.92323e-08
4.92324e-08
4.92322e-08
4.92323e-08
4.92322e-08
4.92323e-08
4.92322e-08
4.92323e-08
4.92322e-08
4.92323e-08
4.92323e-08
4.92325e-08
4.92325e-08
4.92385e-08
4.92993e-08
5.24291e-08
5.24317e-08
5.24342e-08
5.24366e-08
5.24388e-08
5.2441e-08
5.2443e-08
5.2445e-08
5.24469e-08
5.24486e-08
5.24503e-08
5.24519e-08
5.24535e-08
5.24549e-08
5.24563e-08
5.24576e-08
5.24588e-08
5.246e-08
5.24612e-08
5.24622e-08
5.24632e-08
5.24642e-08
5.24651e-08
5.2466e-08
5.24668e-08
5.24676e-08
5.24683e-08
5.2469e-08
5.24697e-08
5.24703e-08
5.24709e-08
5.24715e-08
5.2472e-08
5.24725e-08
5.2473e-08
5.24734e-08
5.24739e-08
5.24743e-08
5.24746e-08
5.2475e-08
5.24753e-08
5.24757e-08
5.2476e-08
5.24763e-08
5.24765e-08
5.24768e-08
5.2477e-08
5.24773e-08
5.24775e-08
5.24777e-08
5.24779e-08
5.2478e-08
5.24782e-08
5.24784e-08
5.24785e-08
5.24787e-08
5.24788e-08
5.24789e-08
5.2479e-08
5.24792e-08
5.24793e-08
5.24794e-08
5.24795e-08
5.24795e-08
5.24796e-08
5.24797e-08
5.24798e-08
5.24798e-08
5.24799e-08
5.248e-08
5.248e-08
5.24801e-08
5.24801e-08
5.24802e-08
5.24802e-08
5.24802e-08
5.24803e-08
5.24803e-08
5.24803e-08
5.24804e-08
5.24804e-08
5.24804e-08
5.24804e-08
5.24805e-08
5.24805e-08
5.24805e-08
5.24805e-08
5.24805e-08
5.24806e-08
5.24806e-08
5.24806e-08
5.24806e-08
5.24806e-08
5.24806e-08
5.24806e-08
5.24806e-08
5.24806e-08
5.24806e-08
5.24806e-08
5.24806e-08
5.24807e-08
5.24806e-08
5.24807e-08
5.24806e-08
5.24807e-08
5.24806e-08
5.24807e-08
5.24806e-08
5.24807e-08
5.24806e-08
5.24807e-08
5.24806e-08
5.24807e-08
5.24806e-08
5.24807e-08
5.24806e-08
5.24807e-08
5.24805e-08
5.24807e-08
5.24805e-08
5.24807e-08
5.24805e-08
5.24808e-08
5.24804e-08
5.24808e-08
5.24803e-08
5.24808e-08
5.24803e-08
5.24809e-08
5.24802e-08
5.2481e-08
5.24803e-08
5.24811e-08
5.24804e-08
5.24812e-08
5.24805e-08
5.24812e-08
5.24806e-08
5.24812e-08
5.24808e-08
5.24812e-08
5.24809e-08
5.24811e-08
5.24809e-08
5.24811e-08
5.24809e-08
5.2481e-08
5.24809e-08
5.2481e-08
5.24809e-08
5.2481e-08
5.24809e-08
5.24809e-08
5.24808e-08
5.24809e-08
5.24808e-08
5.24809e-08
5.24808e-08
5.24809e-08
5.24809e-08
5.2481e-08
5.2481e-08
5.24853e-08
5.2528e-08
5.4569e-08
5.45708e-08
5.45725e-08
5.45742e-08
5.45758e-08
5.45773e-08
5.45787e-08
5.45801e-08
5.45814e-08
5.45826e-08
5.45838e-08
5.45849e-08
5.4586e-08
5.4587e-08
5.45879e-08
5.45889e-08
5.45897e-08
5.45906e-08
5.45913e-08
5.45921e-08
5.45928e-08
5.45934e-08
5.45941e-08
5.45947e-08
5.45953e-08
5.45958e-08
5.45963e-08
5.45968e-08
5.45973e-08
5.45977e-08
5.45981e-08
5.45985e-08
5.45989e-08
5.45992e-08
5.45996e-08
5.45999e-08
5.46002e-08
5.46004e-08
5.46007e-08
5.4601e-08
5.46012e-08
5.46014e-08
5.46016e-08
5.46018e-08
5.4602e-08
5.46022e-08
5.46024e-08
5.46025e-08
5.46027e-08
5.46028e-08
5.4603e-08
5.46031e-08
5.46032e-08
5.46033e-08
5.46034e-08
5.46035e-08
5.46036e-08
5.46037e-08
5.46038e-08
5.46039e-08
5.46039e-08
5.4604e-08
5.46041e-08
5.46041e-08
5.46042e-08
5.46042e-08
5.46043e-08
5.46043e-08
5.46044e-08
5.46044e-08
5.46044e-08
5.46045e-08
5.46045e-08
5.46045e-08
5.46046e-08
5.46046e-08
5.46046e-08
5.46047e-08
5.46047e-08
5.46047e-08
5.46047e-08
5.46047e-08
5.46048e-08
5.46048e-08
5.46048e-08
5.46048e-08
5.46048e-08
5.46048e-08
5.46048e-08
5.46048e-08
5.46048e-08
5.46049e-08
5.46049e-08
5.46049e-08
5.46049e-08
5.46049e-08
5.46049e-08
5.46049e-08
5.46049e-08
5.46049e-08
5.46049e-08
5.46049e-08
5.46049e-08
5.46049e-08
5.46049e-08
5.46049e-08
5.46049e-08
5.46049e-08
5.46049e-08
5.46049e-08
5.46049e-08
5.46048e-08
5.46049e-08
5.46048e-08
5.46049e-08
5.46048e-08
5.46049e-08
5.46048e-08
5.46049e-08
5.46048e-08
5.4605e-08
5.46048e-08
5.4605e-08
5.46047e-08
5.4605e-08
5.46046e-08
5.4605e-08
5.46046e-08
5.46051e-08
5.46046e-08
5.46052e-08
5.46046e-08
5.46052e-08
5.46047e-08
5.46053e-08
5.46048e-08
5.46053e-08
5.46048e-08
5.46053e-08
5.4605e-08
5.46053e-08
5.4605e-08
5.46052e-08
5.4605e-08
5.46052e-08
5.4605e-08
5.46052e-08
5.4605e-08
5.46051e-08
5.4605e-08
5.46051e-08
5.4605e-08
5.46051e-08
5.4605e-08
5.46051e-08
5.4605e-08
5.46051e-08
5.4605e-08
5.46051e-08
5.4605e-08
5.46052e-08
5.46052e-08
5.4608e-08
5.46362e-08
5.58776e-08
5.58787e-08
5.58799e-08
5.5881e-08
5.5882e-08
5.5883e-08
5.5884e-08
5.58849e-08
5.58857e-08
5.58866e-08
5.58873e-08
5.58881e-08
5.58888e-08
5.58895e-08
5.58901e-08
5.58907e-08
5.58913e-08
5.58918e-08
5.58923e-08
5.58928e-08
5.58933e-08
5.58937e-08
5.58941e-08
5.58945e-08
5.58949e-08
5.58953e-08
5.58956e-08
5.58959e-08
5.58962e-08
5.58965e-08
5.58968e-08
5.58971e-08
5.58973e-08
5.58975e-08
5.58978e-08
5.5898e-08
5.58982e-08
5.58984e-08
5.58985e-08
5.58987e-08
5.58989e-08
5.5899e-08
5.58991e-08
5.58993e-08
5.58994e-08
5.58995e-08
5.58996e-08
5.58997e-08
5.58998e-08
5.58999e-08
5.59e-08
5.59001e-08
5.59002e-08
5.59003e-08
5.59003e-08
5.59004e-08
5.59004e-08
5.59005e-08
5.59006e-08
5.59006e-08
5.59007e-08
5.59007e-08
5.59007e-08
5.59008e-08
5.59008e-08
5.59009e-08
5.59009e-08
5.59009e-08
5.59009e-08
5.5901e-08
5.5901e-08
5.5901e-08
5.5901e-08
5.59011e-08
5.59011e-08
5.59011e-08
5.59011e-08
5.59011e-08
5.59011e-08
5.59012e-08
5.59012e-08
5.59012e-08
5.59012e-08
5.59012e-08
5.59012e-08
5.59012e-08
5.59012e-08
5.59012e-08
5.59012e-08
5.59013e-08
5.59013e-08
5.59013e-08
5.59013e-08
5.59013e-08
5.59013e-08
5.59013e-08
5.59013e-08
5.59013e-08
5.59013e-08
5.59013e-08
5.59013e-08
5.59013e-08
5.59013e-08
5.59013e-08
5.59013e-08
5.59013e-08
5.59013e-08
5.59013e-08
5.59013e-08
5.59013e-08
5.59013e-08
5.59013e-08
5.59013e-08
5.59012e-08
5.59013e-08
5.59012e-08
5.59013e-08
5.59012e-08
5.59013e-08
5.59012e-08
5.59014e-08
5.59012e-08
5.59014e-08
5.59011e-08
5.59014e-08
5.59011e-08
5.59014e-08
5.5901e-08
5.59015e-08
5.5901e-08
5.59015e-08
5.5901e-08
5.59016e-08
5.59011e-08
5.59016e-08
5.59011e-08
5.59016e-08
5.59012e-08
5.59016e-08
5.59013e-08
5.59016e-08
5.59013e-08
5.59016e-08
5.59014e-08
5.59015e-08
5.59014e-08
5.59015e-08
5.59014e-08
5.59015e-08
5.59014e-08
5.59014e-08
5.59014e-08
5.59014e-08
5.59014e-08
5.59014e-08
5.59014e-08
5.59014e-08
5.59014e-08
5.59014e-08
5.59014e-08
5.59015e-08
5.59014e-08
5.59032e-08
5.59218e-08
5.699e-08
5.69905e-08
5.69911e-08
5.69916e-08
5.69921e-08
5.69926e-08
5.6993e-08
5.69935e-08
5.69939e-08
5.69943e-08
5.69946e-08
5.6995e-08
5.69953e-08
5.69956e-08
5.69959e-08
5.69962e-08
5.69965e-08
5.69968e-08
5.6997e-08
5.69972e-08
5.69975e-08
5.69977e-08
5.69979e-08
5.69981e-08
5.69983e-08
5.69984e-08
5.69986e-08
5.69987e-08
5.69989e-08
5.6999e-08
5.69992e-08
5.69993e-08
5.69994e-08
5.69995e-08
5.69996e-08
5.69997e-08
5.69998e-08
5.69999e-08
5.7e-08
5.70001e-08
5.70001e-08
5.70002e-08
5.70003e-08
5.70003e-08
5.70004e-08
5.70005e-08
5.70005e-08
5.70006e-08
5.70006e-08
5.70006e-08
5.70007e-08
5.70007e-08
5.70008e-08
5.70008e-08
5.70008e-08
5.70009e-08
5.70009e-08
5.70009e-08
5.70009e-08
5.7001e-08
5.7001e-08
5.7001e-08
5.7001e-08
5.70011e-08
5.70011e-08
5.70011e-08
5.70011e-08
5.70011e-08
5.70011e-08
5.70011e-08
5.70012e-08
5.70012e-08
5.70012e-08
5.70012e-08
5.70012e-08
5.70012e-08
5.70012e-08
5.70012e-08
5.70012e-08
5.70012e-08
5.70012e-08
5.70012e-08
5.70012e-08
5.70013e-08
5.70013e-08
5.70013e-08
5.70013e-08
5.70013e-08
5.70013e-08
5.70013e-08
5.70013e-08
5.70013e-08
5.70013e-08
5.70013e-08
5.70013e-08
5.70013e-08
5.70013e-08
5.70013e-08
5.70013e-08
5.70013e-08
5.70013e-08
5.70013e-08
5.70013e-08
5.70013e-08
5.70013e-08
5.70013e-08
5.70013e-08
5.70013e-08
5.70013e-08
5.70013e-08
5.70013e-08
5.70013e-08
5.70013e-08
5.70012e-08
5.70013e-08
5.70012e-08
5.70013e-08
5.70012e-08
5.70013e-08
5.70012e-08
5.70014e-08
5.70012e-08
5.70014e-08
5.70012e-08
5.70014e-08
5.70011e-08
5.70014e-08
5.70011e-08
5.70014e-08
5.70011e-08
5.70015e-08
5.70011e-08
5.70015e-08
5.70011e-08
5.70015e-08
5.70011e-08
5.70015e-08
5.70012e-08
5.70015e-08
5.70012e-08
5.70015e-08
5.70013e-08
5.70015e-08
5.70013e-08
5.70014e-08
5.70013e-08
5.70014e-08
5.70013e-08
5.70014e-08
5.70013e-08
5.70014e-08
5.70013e-08
5.70014e-08
5.70013e-08
5.70014e-08
5.70013e-08