/*--------------------------------*- C++ -*----------------------------------*\
| =========                 |                                                 |
| \\      /  F ield         | OpenFOAM: The Open Source CFD Toolbox           |
|  \\    /   O peration     | Version:  v1912                                 |
|   \\  /    A nd           | Website:  www.openfoam.com                      |
|    \\/     M anipulation  |                                                 |
\*---------------------------------------------------------------------------*/
FoamFile
{
    version     2.0;
    format      ascii;
    class       volSymmTensorField;
    location    "70";
    object      R;
}
// * * * * * * * * * * * * * * * * * * * * * * * * * * * * * * * * * * * * * //

dimensions      [0 2 -2 0 0 0 0];


internalField   nonuniform List<symmTensor> 
14268
(
(3.66845e-12 -4.68477e-15 0 3.66684e-12 0 3.66765e-12)
(3.66959e-12 -4.70408e-15 0 3.66808e-12 0 3.66884e-12)
(3.67068e-12 -4.72247e-15 0 3.66926e-12 0 3.66998e-12)
(3.67172e-12 -4.73998e-15 0 3.67039e-12 0 3.67106e-12)
(3.67271e-12 -4.75663e-15 0 3.67146e-12 0 3.67209e-12)
(3.67365e-12 -4.7725e-15 0 3.67248e-12 0 3.67307e-12)
(3.67455e-12 -4.78757e-15 0 3.67346e-12 0 3.67401e-12)
(3.6754e-12 -4.80192e-15 0 3.67438e-12 0 3.6749e-12)
(3.67621e-12 -4.81556e-15 0 3.67526e-12 0 3.67574e-12)
(3.67699e-12 -4.82853e-15 0 3.6761e-12 0 3.67655e-12)
(3.67772e-12 -4.84085e-15 0 3.6769e-12 0 3.67732e-12)
(3.67842e-12 -4.85257e-15 0 3.67766e-12 0 3.67805e-12)
(3.67909e-12 -4.8637e-15 0 3.67838e-12 0 3.67874e-12)
(3.67972e-12 -4.87426e-15 0 3.67907e-12 0 3.6794e-12)
(3.68032e-12 -4.88431e-15 0 3.67972e-12 0 3.68003e-12)
(3.6809e-12 -4.89383e-15 0 3.68035e-12 0 3.68063e-12)
(3.68144e-12 -4.90288e-15 0 3.68094e-12 0 3.68119e-12)
(3.68196e-12 -4.91146e-15 0 3.6815e-12 0 3.68173e-12)
(3.68245e-12 -4.91961e-15 0 3.68203e-12 0 3.68224e-12)
(3.68291e-12 -4.92734e-15 0 3.68254e-12 0 3.68273e-12)
(3.68335e-12 -4.93467e-15 0 3.68302e-12 0 3.68319e-12)
(3.68377e-12 -4.94161e-15 0 3.68347e-12 0 3.68363e-12)
(3.68417e-12 -4.9482e-15 0 3.6839e-12 0 3.68404e-12)
(3.68455e-12 -4.95444e-15 0 3.68431e-12 0 3.68444e-12)
(3.68491e-12 -4.96035e-15 0 3.6847e-12 0 3.68481e-12)
(3.68525e-12 -4.96596e-15 0 3.68507e-12 0 3.68517e-12)
(3.68557e-12 -4.97126e-15 0 3.68542e-12 0 3.6855e-12)
(3.68588e-12 -4.97629e-15 0 3.68576e-12 0 3.68582e-12)
(3.68617e-12 -4.98104e-15 0 3.68607e-12 0 3.68613e-12)
(3.68644e-12 -4.98555e-15 0 3.68637e-12 0 3.68641e-12)
(3.6867e-12 -4.9898e-15 0 3.68665e-12 0 3.68668e-12)
(3.68695e-12 -4.99383e-15 0 3.68692e-12 0 3.68694e-12)
(3.68718e-12 -4.99763e-15 0 3.68717e-12 0 3.68718e-12)
(3.6874e-12 -5.00124e-15 0 3.68741e-12 0 3.68741e-12)
(3.68761e-12 -5.00464e-15 0 3.68764e-12 0 3.68763e-12)
(3.68781e-12 -5.00786e-15 0 3.68785e-12 0 3.68784e-12)
(3.688e-12 -5.01089e-15 0 3.68806e-12 0 3.68803e-12)
(3.68818e-12 -5.01377e-15 0 3.68825e-12 0 3.68822e-12)
(3.68834e-12 -5.01647e-15 0 3.68843e-12 0 3.68839e-12)
(3.6885e-12 -5.01904e-15 0 3.6886e-12 0 3.68856e-12)
(3.68865e-12 -5.02145e-15 0 3.68877e-12 0 3.68871e-12)
(3.68879e-12 -5.02373e-15 0 3.68892e-12 0 3.68886e-12)
(3.68892e-12 -5.02588e-15 0 3.68906e-12 0 3.689e-12)
(3.68905e-12 -5.02791e-15 0 3.6892e-12 0 3.68913e-12)
(3.68917e-12 -5.02981e-15 0 3.68933e-12 0 3.68926e-12)
(3.68928e-12 -5.03162e-15 0 3.68945e-12 0 3.68937e-12)
(3.68939e-12 -5.03331e-15 0 3.68957e-12 0 3.68948e-12)
(3.68949e-12 -5.03491e-15 0 3.68968e-12 0 3.68959e-12)
(3.68958e-12 -5.03642e-15 0 3.68978e-12 0 3.68969e-12)
(3.68967e-12 -5.03783e-15 0 3.68987e-12 0 3.68978e-12)
(3.68975e-12 -5.03917e-15 0 3.68996e-12 0 3.68987e-12)
(3.68983e-12 -5.04042e-15 0 3.69005e-12 0 3.68995e-12)
(3.68991e-12 -5.04161e-15 0 3.69013e-12 0 3.69003e-12)
(3.68998e-12 -5.04271e-15 0 3.69021e-12 0 3.6901e-12)
(3.69004e-12 -5.04376e-15 0 3.69028e-12 0 3.69017e-12)
(3.69011e-12 -5.04474e-15 0 3.69035e-12 0 3.69023e-12)
(3.69016e-12 -5.04567e-15 0 3.69041e-12 0 3.69029e-12)
(3.69022e-12 -5.04653e-15 0 3.69047e-12 0 3.69035e-12)
(3.69027e-12 -5.04734e-15 0 3.69052e-12 0 3.6904e-12)
(3.69032e-12 -5.04811e-15 0 3.69058e-12 0 3.69045e-12)
(3.69036e-12 -5.04882e-15 0 3.69063e-12 0 3.6905e-12)
(3.69041e-12 -5.04949e-15 0 3.69067e-12 0 3.69055e-12)
(3.69045e-12 -5.05013e-15 0 3.69072e-12 0 3.69059e-12)
(3.69048e-12 -5.05072e-15 0 3.69076e-12 0 3.69063e-12)
(3.69052e-12 -5.05127e-15 0 3.6908e-12 0 3.69067e-12)
(3.69055e-12 -5.05179e-15 0 3.69083e-12 0 3.6907e-12)
(3.69058e-12 -5.05228e-15 0 3.69087e-12 0 3.69073e-12)
(3.69061e-12 -5.05273e-15 0 3.6909e-12 0 3.69076e-12)
(3.69064e-12 -5.05316e-15 0 3.69093e-12 0 3.69079e-12)
(3.69067e-12 -5.05355e-15 0 3.69096e-12 0 3.69082e-12)
(3.69069e-12 -5.05393e-15 0 3.69098e-12 0 3.69084e-12)
(3.69071e-12 -5.05428e-15 0 3.69101e-12 0 3.69087e-12)
(3.69073e-12 -5.0546e-15 0 3.69103e-12 0 3.69089e-12)
(3.69075e-12 -5.0549e-15 0 3.69105e-12 0 3.69091e-12)
(3.69077e-12 -5.05519e-15 0 3.69107e-12 0 3.69093e-12)
(3.69079e-12 -5.05545e-15 0 3.69109e-12 0 3.69095e-12)
(3.69081e-12 -5.0557e-15 0 3.69111e-12 0 3.69096e-12)
(3.69082e-12 -5.05593e-15 0 3.69112e-12 0 3.69098e-12)
(3.69083e-12 -5.05615e-15 0 3.69114e-12 0 3.69099e-12)
(3.69085e-12 -5.05635e-15 0 3.69115e-12 0 3.69101e-12)
(3.69086e-12 -5.05653e-15 0 3.69116e-12 0 3.69102e-12)
(3.69087e-12 -5.05671e-15 0 3.69118e-12 0 3.69103e-12)
(3.69088e-12 -5.05687e-15 0 3.69119e-12 0 3.69104e-12)
(3.69089e-12 -5.05702e-15 0 3.6912e-12 0 3.69105e-12)
(3.6909e-12 -5.05715e-15 0 3.69121e-12 0 3.69106e-12)
(3.69091e-12 -5.05728e-15 0 3.69122e-12 0 3.69107e-12)
(3.69092e-12 -5.0574e-15 0 3.69123e-12 0 3.69108e-12)
(3.69092e-12 -5.05751e-15 0 3.69123e-12 0 3.69108e-12)
(3.69093e-12 -5.05761e-15 0 3.69124e-12 0 3.69109e-12)
(3.69093e-12 -5.05771e-15 0 3.69125e-12 0 3.6911e-12)
(3.69094e-12 -5.05779e-15 0 3.69125e-12 0 3.6911e-12)
(3.69095e-12 -5.05787e-15 0 3.69126e-12 0 3.69111e-12)
(3.69095e-12 -5.05794e-15 0 3.69126e-12 0 3.69111e-12)
(3.69095e-12 -5.05801e-15 0 3.69127e-12 0 3.69112e-12)
(3.69096e-12 -5.05807e-15 0 3.69127e-12 0 3.69112e-12)
(3.69096e-12 -5.05812e-15 0 3.69127e-12 0 3.69112e-12)
(3.69096e-12 -5.05817e-15 0 3.69128e-12 0 3.69113e-12)
(3.69096e-12 -5.05821e-15 0 3.69128e-12 0 3.69113e-12)
(3.69097e-12 -5.05826e-15 0 3.69128e-12 0 3.69113e-12)
(3.69097e-12 -5.05828e-15 0 3.69128e-12 0 3.69113e-12)
(3.69097e-12 -5.05832e-15 0 3.69129e-12 0 3.69114e-12)
(3.69097e-12 -5.05833e-15 0 3.69128e-12 0 3.69113e-12)
(3.69097e-12 -5.05837e-15 0 3.69129e-12 0 3.69114e-12)
(3.69096e-12 -5.05835e-15 0 3.69128e-12 0 3.69113e-12)
(3.69098e-12 -5.0584e-15 0 3.69129e-12 0 3.69114e-12)
(3.69096e-12 -5.05837e-15 0 3.69127e-12 0 3.69112e-12)
(3.69098e-12 -5.05841e-15 0 3.69129e-12 0 3.69114e-12)
(3.69095e-12 -5.05837e-15 0 3.69127e-12 0 3.69112e-12)
(3.69098e-12 -5.05841e-15 0 3.69129e-12 0 3.69114e-12)
(3.69095e-12 -5.05836e-15 0 3.69126e-12 0 3.69111e-12)
(3.69097e-12 -5.05839e-15 0 3.69129e-12 0 3.69114e-12)
(3.69094e-12 -5.05836e-15 0 3.69126e-12 0 3.69111e-12)
(3.69097e-12 -5.05837e-15 0 3.69129e-12 0 3.69114e-12)
(3.69093e-12 -5.05836e-15 0 3.69125e-12 0 3.6911e-12)
(3.69097e-12 -5.05836e-15 0 3.69129e-12 0 3.69114e-12)
(3.69093e-12 -5.05838e-15 0 3.69124e-12 0 3.69109e-12)
(3.69098e-12 -5.05837e-15 0 3.69129e-12 0 3.69114e-12)
(3.69093e-12 -5.05842e-15 0 3.69124e-12 0 3.69109e-12)
(3.69099e-12 -5.05844e-15 0 3.6913e-12 0 3.69115e-12)
(3.69093e-12 -5.05847e-15 0 3.69124e-12 0 3.69109e-12)
(3.691e-12 -5.05856e-15 0 3.69132e-12 0 3.69117e-12)
(3.69092e-12 -5.05847e-15 0 3.69123e-12 0 3.69108e-12)
(3.69102e-12 -5.05868e-15 0 3.69133e-12 0 3.69118e-12)
(3.69089e-12 -5.05836e-15 0 3.69121e-12 0 3.69106e-12)
(3.69102e-12 -5.05887e-15 0 3.69134e-12 0 3.69119e-12)
(3.69086e-12 -5.05812e-15 0 3.69117e-12 0 3.69102e-12)
(3.69103e-12 -5.0592e-15 0 3.69134e-12 0 3.69119e-12)
(3.69083e-12 -5.05792e-15 0 3.69114e-12 0 3.69099e-12)
(3.69105e-12 -5.06012e-15 0 3.69136e-12 0 3.69121e-12)
(3.69082e-12 -5.05787e-15 0 3.69113e-12 0 3.69098e-12)
(3.69109e-12 -5.05939e-15 0 3.69141e-12 0 3.69126e-12)
(3.69084e-12 -5.0581e-15 0 3.69115e-12 0 3.69101e-12)
(3.69114e-12 -5.05962e-15 0 3.69147e-12 0 3.69131e-12)
(3.69089e-12 -5.05858e-15 0 3.6912e-12 0 3.69105e-12)
(3.69118e-12 -5.05994e-15 0 3.6915e-12 0 3.69135e-12)
(3.69094e-12 -5.05906e-15 0 3.69126e-12 0 3.69111e-12)
(3.69119e-12 -5.06015e-15 0 3.69152e-12 0 3.69136e-12)
(3.69097e-12 -5.05979e-15 0 3.69129e-12 0 3.69114e-12)
(3.69119e-12 -5.06012e-15 0 3.69152e-12 0 3.69136e-12)
(3.69106e-12 -5.05998e-15 0 3.69139e-12 0 3.69123e-12)
(3.69119e-12 -5.06027e-15 0 3.69152e-12 0 3.69136e-12)
(3.69108e-12 -5.06011e-15 0 3.69141e-12 0 3.69125e-12)
(3.69118e-12 -5.0602e-15 0 3.6915e-12 0 3.69135e-12)
(3.69109e-12 -5.06013e-15 0 3.69142e-12 0 3.69126e-12)
(3.69116e-12 -5.0601e-15 0 3.69149e-12 0 3.69133e-12)
(3.69109e-12 -5.06005e-15 0 3.69142e-12 0 3.69126e-12)
(3.69115e-12 -5.05996e-15 0 3.69147e-12 0 3.69131e-12)
(3.69108e-12 -5.05991e-15 0 3.69141e-12 0 3.69125e-12)
(3.69113e-12 -5.05982e-15 0 3.69145e-12 0 3.6913e-12)
(3.69107e-12 -5.05975e-15 0 3.6914e-12 0 3.69124e-12)
(3.69111e-12 -5.05969e-15 0 3.69144e-12 0 3.69128e-12)
(3.69107e-12 -5.05961e-15 0 3.69139e-12 0 3.69123e-12)
(3.6911e-12 -5.05957e-15 0 3.69142e-12 0 3.69127e-12)
(3.69106e-12 -5.0595e-15 0 3.69138e-12 0 3.69123e-12)
(3.69109e-12 -5.05948e-15 0 3.69141e-12 0 3.69126e-12)
(3.69106e-12 -5.05946e-15 0 3.69138e-12 0 3.69122e-12)
(3.69108e-12 -5.05944e-15 0 3.6914e-12 0 3.69125e-12)
(3.69106e-12 -5.0595e-15 0 3.69138e-12 0 3.69123e-12)
(3.69108e-12 -5.05948e-15 0 3.69141e-12 0 3.69125e-12)
(3.69107e-12 -5.05941e-15 0 3.69139e-12 0 3.69124e-12)
(3.69115e-12 -5.05997e-15 0 3.69147e-12 0 3.69132e-12)
(3.69115e-12 -5.05642e-15 0 3.69148e-12 0 3.69132e-12)
(3.69343e-12 -5.06977e-15 0 3.69387e-12 0 3.69365e-12)
(3.7376e-12 -4.72961e-15 0 3.73822e-12 0 3.73792e-12)
(1.08304e-10 -2.46544e-13 0 1.08223e-10 0 1.08264e-10)
(1.08337e-10 -2.47509e-13 0 1.08261e-10 0 1.08299e-10)
(1.08368e-10 -2.48427e-13 0 1.08297e-10 0 1.08333e-10)
(1.08398e-10 -2.49302e-13 0 1.08332e-10 0 1.08365e-10)
(1.08427e-10 -2.50134e-13 0 1.08365e-10 0 1.08396e-10)
(1.08454e-10 -2.50927e-13 0 1.08396e-10 0 1.08426e-10)
(1.0848e-10 -2.5168e-13 0 1.08426e-10 0 1.08453e-10)
(1.08505e-10 -2.52397e-13 0 1.08454e-10 0 1.0848e-10)
(1.08529e-10 -2.53078e-13 0 1.08481e-10 0 1.08505e-10)
(1.08551e-10 -2.53727e-13 0 1.08507e-10 0 1.08529e-10)
(1.08572e-10 -2.54342e-13 0 1.08531e-10 0 1.08552e-10)
(1.08593e-10 -2.54928e-13 0 1.08555e-10 0 1.08574e-10)
(1.08612e-10 -2.55484e-13 0 1.08577e-10 0 1.08595e-10)
(1.0863e-10 -2.56012e-13 0 1.08598e-10 0 1.08614e-10)
(1.08648e-10 -2.56514e-13 0 1.08618e-10 0 1.08633e-10)
(1.08664e-10 -2.56991e-13 0 1.08637e-10 0 1.08651e-10)
(1.0868e-10 -2.57443e-13 0 1.08655e-10 0 1.08668e-10)
(1.08695e-10 -2.57872e-13 0 1.08672e-10 0 1.08684e-10)
(1.08709e-10 -2.5828e-13 0 1.08689e-10 0 1.08699e-10)
(1.08723e-10 -2.58666e-13 0 1.08704e-10 0 1.08714e-10)
(1.08735e-10 -2.59032e-13 0 1.08719e-10 0 1.08728e-10)
(1.08748e-10 -2.5938e-13 0 1.08733e-10 0 1.08741e-10)
(1.08759e-10 -2.59709e-13 0 1.08746e-10 0 1.08753e-10)
(1.0877e-10 -2.60021e-13 0 1.08759e-10 0 1.08765e-10)
(1.0878e-10 -2.60317e-13 0 1.08771e-10 0 1.08776e-10)
(1.0879e-10 -2.60598e-13 0 1.08782e-10 0 1.08787e-10)
(1.088e-10 -2.60863e-13 0 1.08793e-10 0 1.08797e-10)
(1.08809e-10 -2.61114e-13 0 1.08803e-10 0 1.08806e-10)
(1.08817e-10 -2.61352e-13 0 1.08813e-10 0 1.08815e-10)
(1.08825e-10 -2.61577e-13 0 1.08822e-10 0 1.08824e-10)
(1.08832e-10 -2.6179e-13 0 1.0883e-10 0 1.08832e-10)
(1.0884e-10 -2.61992e-13 0 1.08839e-10 0 1.08839e-10)
(1.08846e-10 -2.62182e-13 0 1.08846e-10 0 1.08847e-10)
(1.08853e-10 -2.62363e-13 0 1.08854e-10 0 1.08854e-10)
(1.08859e-10 -2.62533e-13 0 1.08861e-10 0 1.0886e-10)
(1.08864e-10 -2.62694e-13 0 1.08867e-10 0 1.08866e-10)
(1.0887e-10 -2.62846e-13 0 1.08874e-10 0 1.08872e-10)
(1.08875e-10 -2.6299e-13 0 1.08879e-10 0 1.08878e-10)
(1.0888e-10 -2.63125e-13 0 1.08885e-10 0 1.08883e-10)
(1.08884e-10 -2.63253e-13 0 1.0889e-10 0 1.08888e-10)
(1.08889e-10 -2.63374e-13 0 1.08895e-10 0 1.08892e-10)
(1.08893e-10 -2.63488e-13 0 1.089e-10 0 1.08897e-10)
(1.08897e-10 -2.63596e-13 0 1.08904e-10 0 1.08901e-10)
(1.089e-10 -2.63698e-13 0 1.08909e-10 0 1.08905e-10)
(1.08904e-10 -2.63793e-13 0 1.08913e-10 0 1.08909e-10)
(1.08907e-10 -2.63883e-13 0 1.08916e-10 0 1.08912e-10)
(1.0891e-10 -2.63968e-13 0 1.0892e-10 0 1.08915e-10)
(1.08913e-10 -2.64048e-13 0 1.08923e-10 0 1.08918e-10)
(1.08916e-10 -2.64124e-13 0 1.08926e-10 0 1.08921e-10)
(1.08918e-10 -2.64195e-13 0 1.08929e-10 0 1.08924e-10)
(1.08921e-10 -2.64262e-13 0 1.08932e-10 0 1.08927e-10)
(1.08923e-10 -2.64324e-13 0 1.08935e-10 0 1.08929e-10)
(1.08925e-10 -2.64384e-13 0 1.08937e-10 0 1.08932e-10)
(1.08927e-10 -2.64439e-13 0 1.08939e-10 0 1.08934e-10)
(1.08929e-10 -2.64492e-13 0 1.08942e-10 0 1.08936e-10)
(1.08931e-10 -2.64541e-13 0 1.08944e-10 0 1.08938e-10)
(1.08933e-10 -2.64587e-13 0 1.08946e-10 0 1.08939e-10)
(1.08934e-10 -2.6463e-13 0 1.08947e-10 0 1.08941e-10)
(1.08936e-10 -2.64671e-13 0 1.08949e-10 0 1.08943e-10)
(1.08937e-10 -2.64709e-13 0 1.08951e-10 0 1.08944e-10)
(1.08938e-10 -2.64745e-13 0 1.08952e-10 0 1.08946e-10)
(1.0894e-10 -2.64779e-13 0 1.08954e-10 0 1.08947e-10)
(1.08941e-10 -2.64811e-13 0 1.08955e-10 0 1.08948e-10)
(1.08942e-10 -2.6484e-13 0 1.08956e-10 0 1.08949e-10)
(1.08943e-10 -2.64868e-13 0 1.08958e-10 0 1.08951e-10)
(1.08944e-10 -2.64894e-13 0 1.08959e-10 0 1.08952e-10)
(1.08945e-10 -2.64919e-13 0 1.0896e-10 0 1.08953e-10)
(1.08946e-10 -2.64941e-13 0 1.08961e-10 0 1.08953e-10)
(1.08946e-10 -2.64963e-13 0 1.08962e-10 0 1.08954e-10)
(1.08947e-10 -2.64983e-13 0 1.08962e-10 0 1.08955e-10)
(1.08948e-10 -2.65001e-13 0 1.08963e-10 0 1.08956e-10)
(1.08949e-10 -2.65019e-13 0 1.08964e-10 0 1.08957e-10)
(1.08949e-10 -2.65035e-13 0 1.08965e-10 0 1.08957e-10)
(1.0895e-10 -2.6505e-13 0 1.08965e-10 0 1.08958e-10)
(1.0895e-10 -2.65065e-13 0 1.08966e-10 0 1.08958e-10)
(1.08951e-10 -2.65078e-13 0 1.08966e-10 0 1.08959e-10)
(1.08951e-10 -2.6509e-13 0 1.08967e-10 0 1.08959e-10)
(1.08952e-10 -2.65102e-13 0 1.08968e-10 0 1.0896e-10)
(1.08952e-10 -2.65113e-13 0 1.08968e-10 0 1.0896e-10)
(1.08952e-10 -2.65123e-13 0 1.08968e-10 0 1.08961e-10)
(1.08953e-10 -2.65132e-13 0 1.08969e-10 0 1.08961e-10)
(1.08953e-10 -2.65141e-13 0 1.08969e-10 0 1.08961e-10)
(1.08953e-10 -2.65149e-13 0 1.0897e-10 0 1.08962e-10)
(1.08954e-10 -2.65156e-13 0 1.0897e-10 0 1.08962e-10)
(1.08954e-10 -2.65163e-13 0 1.0897e-10 0 1.08962e-10)
(1.08954e-10 -2.6517e-13 0 1.0897e-10 0 1.08963e-10)
(1.08954e-10 -2.65176e-13 0 1.08971e-10 0 1.08963e-10)
(1.08955e-10 -2.65181e-13 0 1.08971e-10 0 1.08963e-10)
(1.08955e-10 -2.65186e-13 0 1.08971e-10 0 1.08963e-10)
(1.08955e-10 -2.65191e-13 0 1.08971e-10 0 1.08963e-10)
(1.08955e-10 -2.65195e-13 0 1.08971e-10 0 1.08964e-10)
(1.08955e-10 -2.65199e-13 0 1.08972e-10 0 1.08964e-10)
(1.08955e-10 -2.65203e-13 0 1.08972e-10 0 1.08964e-10)
(1.08955e-10 -2.65206e-13 0 1.08972e-10 0 1.08964e-10)
(1.08956e-10 -2.65209e-13 0 1.08972e-10 0 1.08964e-10)
(1.08956e-10 -2.65212e-13 0 1.08972e-10 0 1.08964e-10)
(1.08956e-10 -2.65214e-13 0 1.08972e-10 0 1.08964e-10)
(1.08956e-10 -2.65216e-13 0 1.08972e-10 0 1.08964e-10)
(1.08956e-10 -2.65218e-13 0 1.08972e-10 0 1.08965e-10)
(1.08956e-10 -2.6522e-13 0 1.08972e-10 0 1.08964e-10)
(1.08956e-10 -2.65222e-13 0 1.08973e-10 0 1.08965e-10)
(1.08956e-10 -2.65222e-13 0 1.08972e-10 0 1.08964e-10)
(1.08956e-10 -2.65224e-13 0 1.08973e-10 0 1.08965e-10)
(1.08956e-10 -2.65223e-13 0 1.08972e-10 0 1.08964e-10)
(1.08956e-10 -2.65226e-13 0 1.08973e-10 0 1.08965e-10)
(1.08956e-10 -2.65224e-13 0 1.08972e-10 0 1.08964e-10)
(1.08956e-10 -2.65226e-13 0 1.08973e-10 0 1.08965e-10)
(1.08955e-10 -2.65224e-13 0 1.08972e-10 0 1.08964e-10)
(1.08956e-10 -2.65226e-13 0 1.08973e-10 0 1.08965e-10)
(1.08955e-10 -2.65224e-13 0 1.08972e-10 0 1.08964e-10)
(1.08956e-10 -2.65225e-13 0 1.08973e-10 0 1.08965e-10)
(1.08955e-10 -2.65223e-13 0 1.08972e-10 0 1.08964e-10)
(1.08956e-10 -2.65224e-13 0 1.08973e-10 0 1.08965e-10)
(1.08955e-10 -2.65223e-13 0 1.08971e-10 0 1.08964e-10)
(1.08956e-10 -2.65223e-13 0 1.08973e-10 0 1.08965e-10)
(1.08955e-10 -2.65224e-13 0 1.08971e-10 0 1.08963e-10)
(1.08956e-10 -2.65224e-13 0 1.08973e-10 0 1.08965e-10)
(1.08955e-10 -2.65226e-13 0 1.08971e-10 0 1.08963e-10)
(1.08956e-10 -2.65227e-13 0 1.08973e-10 0 1.08965e-10)
(1.08955e-10 -2.65229e-13 0 1.08971e-10 0 1.08963e-10)
(1.08957e-10 -2.65233e-13 0 1.08973e-10 0 1.08965e-10)
(1.08954e-10 -2.65229e-13 0 1.08971e-10 0 1.08963e-10)
(1.08957e-10 -2.65239e-13 0 1.08974e-10 0 1.08966e-10)
(1.08954e-10 -2.65223e-13 0 1.0897e-10 0 1.08962e-10)
(1.08958e-10 -2.65241e-13 0 1.08974e-10 0 1.08966e-10)
(1.08953e-10 -2.65211e-13 0 1.08969e-10 0 1.08961e-10)
(1.08958e-10 -2.65242e-13 0 1.08974e-10 0 1.08966e-10)
(1.08952e-10 -2.652e-13 0 1.08968e-10 0 1.0896e-10)
(1.08958e-10 -2.65248e-13 0 1.08975e-10 0 1.08967e-10)
(1.08952e-10 -2.65198e-13 0 1.08968e-10 0 1.0896e-10)
(1.08959e-10 -2.65265e-13 0 1.08976e-10 0 1.08968e-10)
(1.08952e-10 -2.6521e-13 0 1.08969e-10 0 1.08961e-10)
(1.08961e-10 -2.65287e-13 0 1.08978e-10 0 1.0897e-10)
(1.08954e-10 -2.65234e-13 0 1.0897e-10 0 1.08962e-10)
(1.08962e-10 -2.65304e-13 0 1.08979e-10 0 1.08971e-10)
(1.08955e-10 -2.65259e-13 0 1.08972e-10 0 1.08964e-10)
(1.08962e-10 -2.65314e-13 0 1.08979e-10 0 1.08971e-10)
(1.08956e-10 -2.65272e-13 0 1.08973e-10 0 1.08965e-10)
(1.08962e-10 -2.65313e-13 0 1.08979e-10 0 1.08971e-10)
(1.08958e-10 -2.65306e-13 0 1.08976e-10 0 1.08967e-10)
(1.08962e-10 -2.65321e-13 0 1.08979e-10 0 1.08971e-10)
(1.08959e-10 -2.65313e-13 0 1.08976e-10 0 1.08968e-10)
(1.08962e-10 -2.65317e-13 0 1.08979e-10 0 1.08971e-10)
(1.08959e-10 -2.65314e-13 0 1.08977e-10 0 1.08968e-10)
(1.08961e-10 -2.65312e-13 0 1.08979e-10 0 1.0897e-10)
(1.08959e-10 -2.6531e-13 0 1.08976e-10 0 1.08968e-10)
(1.08961e-10 -2.65305e-13 0 1.08978e-10 0 1.0897e-10)
(1.08959e-10 -2.65302e-13 0 1.08976e-10 0 1.08968e-10)
(1.0896e-10 -2.65298e-13 0 1.08977e-10 0 1.08969e-10)
(1.08959e-10 -2.65295e-13 0 1.08976e-10 0 1.08968e-10)
(1.0896e-10 -2.65291e-13 0 1.08977e-10 0 1.08969e-10)
(1.08959e-10 -2.65287e-13 0 1.08976e-10 0 1.08968e-10)
(1.0896e-10 -2.65285e-13 0 1.08977e-10 0 1.08968e-10)
(1.08958e-10 -2.65282e-13 0 1.08975e-10 0 1.08967e-10)
(1.08959e-10 -2.65281e-13 0 1.08976e-10 0 1.08968e-10)
(1.08958e-10 -2.65278e-13 0 1.08975e-10 0 1.08967e-10)
(1.08959e-10 -2.65279e-13 0 1.08976e-10 0 1.08968e-10)
(1.08958e-10 -2.65276e-13 0 1.08975e-10 0 1.08967e-10)
(1.08959e-10 -2.65281e-13 0 1.08976e-10 0 1.08968e-10)
(1.08959e-10 -2.65277e-13 0 1.08976e-10 0 1.08968e-10)
(1.08961e-10 -2.65306e-13 0 1.08978e-10 0 1.0897e-10)
(1.08961e-10 -2.6512e-13 0 1.08978e-10 0 1.0897e-10)
(1.09027e-10 -2.6578e-13 0 1.0905e-10 0 1.09038e-10)
(1.10214e-10 -2.47649e-13 0 1.10246e-10 0 1.1023e-10)
(7.34319e-10 -2.68645e-12 0 7.33535e-10 0 7.33931e-10)
(7.34529e-10 -2.69491e-12 0 7.33794e-10 0 7.34165e-10)
(7.34729e-10 -2.70298e-12 0 7.34041e-10 0 7.34388e-10)
(7.34921e-10 -2.71067e-12 0 7.34276e-10 0 7.34602e-10)
(7.35103e-10 -2.71798e-12 0 7.345e-10 0 7.34805e-10)
(7.35276e-10 -2.72495e-12 0 7.34714e-10 0 7.34998e-10)
(7.35441e-10 -2.73157e-12 0 7.34917e-10 0 7.35182e-10)
(7.35599e-10 -2.73788e-12 0 7.3511e-10 0 7.35358e-10)
(7.35748e-10 -2.74387e-12 0 7.35294e-10 0 7.35525e-10)
(7.35891e-10 -2.74958e-12 0 7.3547e-10 0 7.35684e-10)
(7.36026e-10 -2.755e-12 0 7.35637e-10 0 7.35835e-10)
(7.36155e-10 -2.76016e-12 0 7.35795e-10 0 7.35979e-10)
(7.36278e-10 -2.76506e-12 0 7.35946e-10 0 7.36116e-10)
(7.36395e-10 -2.76971e-12 0 7.3609e-10 0 7.36246e-10)
(7.36505e-10 -2.77414e-12 0 7.36226e-10 0 7.36369e-10)
(7.36611e-10 -2.77834e-12 0 7.36356e-10 0 7.36487e-10)
(7.36711e-10 -2.78233e-12 0 7.36479e-10 0 7.36599e-10)
(7.36806e-10 -2.78611e-12 0 7.36597e-10 0 7.36705e-10)
(7.36896e-10 -2.78971e-12 0 7.36708e-10 0 7.36806e-10)
(7.36982e-10 -2.79312e-12 0 7.36813e-10 0 7.36901e-10)
(7.37064e-10 -2.79636e-12 0 7.36914e-10 0 7.36992e-10)
(7.37141e-10 -2.79942e-12 0 7.37009e-10 0 7.37079e-10)
(7.37214e-10 -2.80234e-12 0 7.37099e-10 0 7.37161e-10)
(7.37284e-10 -2.8051e-12 0 7.37185e-10 0 7.37238e-10)
(7.3735e-10 -2.80771e-12 0 7.37267e-10 0 7.37312e-10)
(7.37413e-10 -2.81019e-12 0 7.37344e-10 0 7.37382e-10)
(7.37472e-10 -2.81254e-12 0 7.37417e-10 0 7.37448e-10)
(7.37529e-10 -2.81477e-12 0 7.37486e-10 0 7.37511e-10)
(7.37582e-10 -2.81687e-12 0 7.37552e-10 0 7.37571e-10)
(7.37633e-10 -2.81887e-12 0 7.37614e-10 0 7.37627e-10)
(7.3768e-10 -2.82075e-12 0 7.37673e-10 0 7.37681e-10)
(7.37726e-10 -2.82254e-12 0 7.37729e-10 0 7.37731e-10)
(7.37769e-10 -2.82423e-12 0 7.37782e-10 0 7.37779e-10)
(7.37809e-10 -2.82583e-12 0 7.37832e-10 0 7.37825e-10)
(7.37848e-10 -2.82734e-12 0 7.3788e-10 0 7.37868e-10)
(7.37884e-10 -2.82877e-12 0 7.37925e-10 0 7.37908e-10)
(7.37919e-10 -2.83012e-12 0 7.37967e-10 0 7.37947e-10)
(7.37951e-10 -2.8314e-12 0 7.38007e-10 0 7.37983e-10)
(7.37982e-10 -2.8326e-12 0 7.38045e-10 0 7.38017e-10)
(7.38011e-10 -2.83374e-12 0 7.38081e-10 0 7.3805e-10)
(7.38039e-10 -2.83481e-12 0 7.38115e-10 0 7.38081e-10)
(7.38065e-10 -2.83583e-12 0 7.38147e-10 0 7.3811e-10)
(7.3809e-10 -2.83679e-12 0 7.38177e-10 0 7.38137e-10)
(7.38113e-10 -2.83769e-12 0 7.38206e-10 0 7.38163e-10)
(7.38135e-10 -2.83854e-12 0 7.38233e-10 0 7.38187e-10)
(7.38155e-10 -2.83935e-12 0 7.38258e-10 0 7.38211e-10)
(7.38175e-10 -2.8401e-12 0 7.38282e-10 0 7.38232e-10)
(7.38193e-10 -2.84082e-12 0 7.38305e-10 0 7.38253e-10)
(7.3821e-10 -2.84149e-12 0 7.38326e-10 0 7.38272e-10)
(7.38227e-10 -2.84212e-12 0 7.38347e-10 0 7.3829e-10)
(7.38242e-10 -2.84272e-12 0 7.38366e-10 0 7.38308e-10)
(7.38257e-10 -2.84328e-12 0 7.38384e-10 0 7.38324e-10)
(7.3827e-10 -2.84381e-12 0 7.384e-10 0 7.38339e-10)
(7.38283e-10 -2.84431e-12 0 7.38416e-10 0 7.38353e-10)
(7.38295e-10 -2.84478e-12 0 7.38431e-10 0 7.38367e-10)
(7.38307e-10 -2.84522e-12 0 7.38445e-10 0 7.3838e-10)
(7.38318e-10 -2.84563e-12 0 7.38458e-10 0 7.38392e-10)
(7.38328e-10 -2.84602e-12 0 7.38471e-10 0 7.38403e-10)
(7.38337e-10 -2.84638e-12 0 7.38483e-10 0 7.38414e-10)
(7.38346e-10 -2.84672e-12 0 7.38494e-10 0 7.38424e-10)
(7.38355e-10 -2.84705e-12 0 7.38504e-10 0 7.38433e-10)
(7.38362e-10 -2.84735e-12 0 7.38514e-10 0 7.38442e-10)
(7.3837e-10 -2.84763e-12 0 7.38523e-10 0 7.3845e-10)
(7.38377e-10 -2.8479e-12 0 7.38531e-10 0 7.38458e-10)
(7.38383e-10 -2.84815e-12 0 7.38539e-10 0 7.38465e-10)
(7.38389e-10 -2.84838e-12 0 7.38547e-10 0 7.38472e-10)
(7.38395e-10 -2.8486e-12 0 7.38554e-10 0 7.38478e-10)
(7.384e-10 -2.8488e-12 0 7.38561e-10 0 7.38484e-10)
(7.38406e-10 -2.849e-12 0 7.38567e-10 0 7.3849e-10)
(7.3841e-10 -2.84918e-12 0 7.38573e-10 0 7.38495e-10)
(7.38415e-10 -2.84934e-12 0 7.38578e-10 0 7.385e-10)
(7.38419e-10 -2.8495e-12 0 7.38583e-10 0 7.38505e-10)
(7.38423e-10 -2.84965e-12 0 7.38588e-10 0 7.38509e-10)
(7.38426e-10 -2.84979e-12 0 7.38592e-10 0 7.38513e-10)
(7.3843e-10 -2.84991e-12 0 7.38597e-10 0 7.38517e-10)
(7.38433e-10 -2.85003e-12 0 7.386e-10 0 7.3852e-10)
(7.38436e-10 -2.85015e-12 0 7.38604e-10 0 7.38524e-10)
(7.38438e-10 -2.85025e-12 0 7.38607e-10 0 7.38527e-10)
(7.38441e-10 -2.85035e-12 0 7.38611e-10 0 7.3853e-10)
(7.38443e-10 -2.85044e-12 0 7.38614e-10 0 7.38532e-10)
(7.38446e-10 -2.85052e-12 0 7.38616e-10 0 7.38535e-10)
(7.38448e-10 -2.8506e-12 0 7.38619e-10 0 7.38537e-10)
(7.3845e-10 -2.85067e-12 0 7.38621e-10 0 7.38539e-10)
(7.38451e-10 -2.85074e-12 0 7.38623e-10 0 7.38541e-10)
(7.38453e-10 -2.8508e-12 0 7.38625e-10 0 7.38543e-10)
(7.38455e-10 -2.85086e-12 0 7.38627e-10 0 7.38545e-10)
(7.38456e-10 -2.85091e-12 0 7.38629e-10 0 7.38546e-10)
(7.38457e-10 -2.85096e-12 0 7.38631e-10 0 7.38548e-10)
(7.38458e-10 -2.85101e-12 0 7.38632e-10 0 7.38549e-10)
(7.3846e-10 -2.85105e-12 0 7.38633e-10 0 7.3855e-10)
(7.38461e-10 -2.85109e-12 0 7.38635e-10 0 7.38551e-10)
(7.38461e-10 -2.85113e-12 0 7.38636e-10 0 7.38552e-10)
(7.38462e-10 -2.85116e-12 0 7.38637e-10 0 7.38553e-10)
(7.38463e-10 -2.85119e-12 0 7.38638e-10 0 7.38554e-10)
(7.38464e-10 -2.85121e-12 0 7.38638e-10 0 7.38555e-10)
(7.38464e-10 -2.85124e-12 0 7.38639e-10 0 7.38555e-10)
(7.38465e-10 -2.85126e-12 0 7.3864e-10 0 7.38556e-10)
(7.38465e-10 -2.85128e-12 0 7.3864e-10 0 7.38556e-10)
(7.38466e-10 -2.8513e-12 0 7.38641e-10 0 7.38557e-10)
(7.38465e-10 -2.85131e-12 0 7.38641e-10 0 7.38557e-10)
(7.38466e-10 -2.85132e-12 0 7.38642e-10 0 7.38558e-10)
(7.38465e-10 -2.85132e-12 0 7.38641e-10 0 7.38557e-10)
(7.38467e-10 -2.85134e-12 0 7.38642e-10 0 7.38558e-10)
(7.38465e-10 -2.85133e-12 0 7.3864e-10 0 7.38556e-10)
(7.38467e-10 -2.85136e-12 0 7.38643e-10 0 7.38559e-10)
(7.38464e-10 -2.85134e-12 0 7.38639e-10 0 7.38555e-10)
(7.38467e-10 -2.85136e-12 0 7.38643e-10 0 7.38559e-10)
(7.38463e-10 -2.85133e-12 0 7.38638e-10 0 7.38554e-10)
(7.38467e-10 -2.85135e-12 0 7.38642e-10 0 7.38558e-10)
(7.38462e-10 -2.85133e-12 0 7.38637e-10 0 7.38553e-10)
(7.38467e-10 -2.85134e-12 0 7.38642e-10 0 7.38558e-10)
(7.3846e-10 -2.85132e-12 0 7.38635e-10 0 7.38552e-10)
(7.38467e-10 -2.85132e-12 0 7.38641e-10 0 7.38558e-10)
(7.38459e-10 -2.85132e-12 0 7.38634e-10 0 7.38551e-10)
(7.38467e-10 -2.85131e-12 0 7.38641e-10 0 7.38558e-10)
(7.38458e-10 -2.85132e-12 0 7.38633e-10 0 7.3855e-10)
(7.38468e-10 -2.85132e-12 0 7.38642e-10 0 7.38558e-10)
(7.38458e-10 -2.85134e-12 0 7.38633e-10 0 7.38549e-10)
(7.38469e-10 -2.85135e-12 0 7.38644e-10 0 7.3856e-10)
(7.38457e-10 -2.85136e-12 0 7.38633e-10 0 7.38549e-10)
(7.38472e-10 -2.85141e-12 0 7.38648e-10 0 7.38563e-10)
(7.38456e-10 -2.85136e-12 0 7.38631e-10 0 7.38547e-10)
(7.38475e-10 -2.85147e-12 0 7.38651e-10 0 7.38566e-10)
(7.38451e-10 -2.8513e-12 0 7.38626e-10 0 7.38543e-10)
(7.38476e-10 -2.85148e-12 0 7.38652e-10 0 7.38567e-10)
(7.38445e-10 -2.85118e-12 0 7.38618e-10 0 7.38536e-10)
(7.38478e-10 -2.85149e-12 0 7.38653e-10 0 7.38569e-10)
(7.3844e-10 -2.85107e-12 0 7.38612e-10 0 7.3853e-10)
(7.38481e-10 -2.85155e-12 0 7.38657e-10 0 7.38572e-10)
(7.38438e-10 -2.85104e-12 0 7.3861e-10 0 7.38528e-10)
(7.38489e-10 -2.85171e-12 0 7.38666e-10 0 7.38581e-10)
(7.38442e-10 -2.85116e-12 0 7.38615e-10 0 7.38533e-10)
(7.38498e-10 -2.85194e-12 0 7.38677e-10 0 7.38591e-10)
(7.3845e-10 -2.85141e-12 0 7.38625e-10 0 7.38542e-10)
(7.38503e-10 -2.8521e-12 0 7.38684e-10 0 7.38597e-10)
(7.3846e-10 -2.85166e-12 0 7.38637e-10 0 7.38553e-10)
(7.38506e-10 -2.85221e-12 0 7.38688e-10 0 7.386e-10)
(7.38466e-10 -2.85179e-12 0 7.38644e-10 0 7.38559e-10)
(7.38506e-10 -2.8522e-12 0 7.38688e-10 0 7.386e-10)
(7.38481e-10 -2.85214e-12 0 7.38662e-10 0 7.38576e-10)
(7.38505e-10 -2.85228e-12 0 7.38687e-10 0 7.386e-10)
(7.38485e-10 -2.85221e-12 0 7.38667e-10 0 7.3858e-10)
(7.38503e-10 -2.85225e-12 0 7.38685e-10 0 7.38597e-10)
(7.38487e-10 -2.85222e-12 0 7.38669e-10 0 7.38582e-10)
(7.385e-10 -2.8522e-12 0 7.38682e-10 0 7.38595e-10)
(7.38487e-10 -2.85218e-12 0 7.38668e-10 0 7.38582e-10)
(7.38497e-10 -2.85214e-12 0 7.38678e-10 0 7.38591e-10)
(7.38486e-10 -2.85211e-12 0 7.38667e-10 0 7.3858e-10)
(7.38494e-10 -2.85207e-12 0 7.38675e-10 0 7.38588e-10)
(7.38484e-10 -2.85203e-12 0 7.38665e-10 0 7.38578e-10)
(7.38491e-10 -2.852e-12 0 7.38672e-10 0 7.38585e-10)
(7.38483e-10 -2.85196e-12 0 7.38663e-10 0 7.38577e-10)
(7.38489e-10 -2.85194e-12 0 7.38669e-10 0 7.38582e-10)
(7.38482e-10 -2.85191e-12 0 7.38661e-10 0 7.38575e-10)
(7.38487e-10 -2.8519e-12 0 7.38667e-10 0 7.3858e-10)
(7.38481e-10 -2.85187e-12 0 7.3866e-10 0 7.38575e-10)
(7.38486e-10 -2.85188e-12 0 7.38665e-10 0 7.38579e-10)
(7.38482e-10 -2.85185e-12 0 7.38661e-10 0 7.38575e-10)
(7.38486e-10 -2.8519e-12 0 7.38666e-10 0 7.3858e-10)
(7.38484e-10 -2.85186e-12 0 7.38664e-10 0 7.38578e-10)
(7.38497e-10 -2.85215e-12 0 7.38679e-10 0 7.38592e-10)
(7.38498e-10 -2.85017e-12 0 7.38681e-10 0 7.38593e-10)
(7.38919e-10 -2.85647e-12 0 7.39157e-10 0 7.39042e-10)
(7.4592e-10 -2.6569e-12 0 7.46265e-10 0 7.46096e-10)
(2.44909e-09 -1.2705e-11 0 2.44585e-09 0 2.44749e-09)
(2.44973e-09 -1.27375e-11 0 2.44669e-09 0 2.44823e-09)
(2.45034e-09 -1.27685e-11 0 2.44749e-09 0 2.44893e-09)
(2.45092e-09 -1.2798e-11 0 2.44826e-09 0 2.44961e-09)
(2.45147e-09 -1.2826e-11 0 2.44899e-09 0 2.45025e-09)
(2.452e-09 -1.28528e-11 0 2.44969e-09 0 2.45086e-09)
(2.4525e-09 -1.28782e-11 0 2.45035e-09 0 2.45144e-09)
(2.45298e-09 -1.29025e-11 0 2.45098e-09 0 2.45199e-09)
(2.45343e-09 -1.29255e-11 0 2.45158e-09 0 2.45252e-09)
(2.45387e-09 -1.29474e-11 0 2.45215e-09 0 2.45302e-09)
(2.45428e-09 -1.29683e-11 0 2.45269e-09 0 2.4535e-09)
(2.45467e-09 -1.29881e-11 0 2.45321e-09 0 2.45396e-09)
(2.45504e-09 -1.3007e-11 0 2.4537e-09 0 2.45439e-09)
(2.4554e-09 -1.30249e-11 0 2.45417e-09 0 2.4548e-09)
(2.45573e-09 -1.30419e-11 0 2.45461e-09 0 2.45519e-09)
(2.45605e-09 -1.30581e-11 0 2.45504e-09 0 2.45556e-09)
(2.45636e-09 -1.30735e-11 0 2.45544e-09 0 2.45591e-09)
(2.45665e-09 -1.3088e-11 0 2.45582e-09 0 2.45625e-09)
(2.45692e-09 -1.31019e-11 0 2.45618e-09 0 2.45657e-09)
(2.45718e-09 -1.3115e-11 0 2.45653e-09 0 2.45687e-09)
(2.45743e-09 -1.31275e-11 0 2.45685e-09 0 2.45716e-09)
(2.45766e-09 -1.31394e-11 0 2.45716e-09 0 2.45743e-09)
(2.45789e-09 -1.31506e-11 0 2.45746e-09 0 2.45769e-09)
(2.4581e-09 -1.31613e-11 0 2.45774e-09 0 2.45793e-09)
(2.4583e-09 -1.31713e-11 0 2.458e-09 0 2.45817e-09)
(2.45849e-09 -1.31809e-11 0 2.45825e-09 0 2.45839e-09)
(2.45867e-09 -1.319e-11 0 2.45849e-09 0 2.4586e-09)
(2.45884e-09 -1.31986e-11 0 2.45872e-09 0 2.45879e-09)
(2.459e-09 -1.32067e-11 0 2.45893e-09 0 2.45898e-09)
(2.45915e-09 -1.32145e-11 0 2.45913e-09 0 2.45916e-09)
(2.4593e-09 -1.32217e-11 0 2.45933e-09 0 2.45933e-09)
(2.45944e-09 -1.32287e-11 0 2.45951e-09 0 2.45949e-09)
(2.45957e-09 -1.32352e-11 0 2.45968e-09 0 2.45964e-09)
(2.45969e-09 -1.32414e-11 0 2.45984e-09 0 2.45978e-09)
(2.45981e-09 -1.32472e-11 0 2.46e-09 0 2.45992e-09)
(2.45992e-09 -1.32528e-11 0 2.46014e-09 0 2.46005e-09)
(2.46002e-09 -1.3258e-11 0 2.46028e-09 0 2.46017e-09)
(2.46012e-09 -1.3263e-11 0 2.46041e-09 0 2.46028e-09)
(2.46022e-09 -1.32676e-11 0 2.46054e-09 0 2.46039e-09)
(2.4603e-09 -1.32721e-11 0 2.46065e-09 0 2.4605e-09)
(2.46039e-09 -1.32762e-11 0 2.46076e-09 0 2.46059e-09)