/*--------------------------------*- C++ -*----------------------------------*\
| =========                 |                                                 |
| \\      /  F ield         | OpenFOAM: The Open Source CFD Toolbox           |
|  \\    /   O peration     | Version:  v1912                                 |
|   \\  /    A nd           | Website:  www.openfoam.com                      |
|    \\/     M anipulation  |                                                 |
\*---------------------------------------------------------------------------*/
FoamFile
{
    version     2.0;
    format      ascii;
    class       volScalarField;
    location    "100";
    object      nut;
}
// * * * * * * * * * * * * * * * * * * * * * * * * * * * * * * * * * * * * * //

dimensions      [0 2 -1 0 0 0 0];


internalField   nonuniform List<scalar> 
14268
(
3.74117e-05
3.77844e-05
3.88137e-05
4.04798e-05
4.2736e-05
4.54878e-05
4.82459e-05
5.03846e-05
5.18611e-05
5.28356e-05
5.34563e-05
5.38321e-05
5.40595e-05
5.42036e-05
5.42895e-05
5.43223e-05
5.43305e-05
5.43429e-05
5.43648e-05
5.43994e-05
5.44499e-05
5.45184e-05
5.46033e-05
5.46997e-05
5.47936e-05
5.48711e-05
5.49209e-05
5.49351e-05
5.49187e-05
5.48823e-05
5.48176e-05
5.47404e-05
5.46636e-05
5.45922e-05
5.4534e-05
5.45017e-05
5.44966e-05
5.4517e-05
5.45632e-05
5.46268e-05
5.46987e-05
5.47704e-05
5.48329e-05
5.48674e-05
5.48779e-05
5.48702e-05
5.48515e-05
5.48276e-05
5.48039e-05
5.47926e-05
5.47955e-05
5.48086e-05
5.48282e-05
5.48504e-05
5.48711e-05
5.48905e-05
5.49203e-05
5.49598e-05
5.50107e-05
5.50702e-05
5.51379e-05
5.52132e-05
5.5287e-05
5.53579e-05
5.54301e-05
5.55014e-05
5.55763e-05
5.56534e-05
5.57297e-05
5.57959e-05
5.58539e-05
5.59025e-05
5.59399e-05
5.59644e-05
5.59739e-05
5.59728e-05
5.59673e-05
5.59492e-05
5.59206e-05
5.58897e-05
5.58606e-05
5.58395e-05
5.58329e-05
5.58455e-05
5.58812e-05
5.594e-05
5.60196e-05
5.61154e-05
5.62213e-05
5.63283e-05
5.64237e-05
5.64773e-05
5.64926e-05
5.64816e-05
5.64664e-05
5.64828e-05
5.65072e-05
5.65238e-05
5.65262e-05
5.6522e-05
5.65256e-05
5.65263e-05
5.65213e-05
5.65054e-05
5.64731e-05
5.64211e-05
5.63536e-05
5.62748e-05
5.61901e-05
5.61052e-05
5.60296e-05
5.59671e-05
5.59222e-05
5.58958e-05
5.58855e-05
5.58907e-05
5.59056e-05
5.59219e-05
5.59269e-05
5.59129e-05
5.58721e-05
5.58219e-05
5.57586e-05
5.56844e-05
5.56126e-05
5.5549e-05
5.54973e-05
5.5458e-05
5.54304e-05
5.54166e-05
5.54173e-05
5.54323e-05
5.54616e-05
5.55024e-05
5.55518e-05
5.56081e-05
5.56655e-05
5.57061e-05
5.57259e-05
5.57246e-05
5.57084e-05
5.5686e-05
5.56856e-05
5.57196e-05
5.57736e-05
5.5834e-05
5.58942e-05
5.59713e-05
5.60656e-05
5.61692e-05
5.62822e-05
5.63982e-05
5.65112e-05
5.66218e-05
5.67277e-05
5.68301e-05
5.69291e-05
5.70154e-05
5.70817e-05
5.71128e-05
5.71281e-05
5.7148e-05
5.71704e-05
5.71897e-05
5.44132e-08
1.01956e-07
1.82613e-07
3.18939e-07
5.27831e-07
8.25823e-07
1.19847e-06
1.58238e-06
1.92309e-06
2.19312e-06
2.39224e-06
2.53604e-06
2.64526e-06
2.73665e-06
2.8246e-06
2.91996e-06
3.03167e-06
3.16585e-06
3.3268e-06
3.51653e-06
3.73687e-06
3.9869e-06
4.25786e-06
4.53339e-06
4.79319e-06
5.01357e-06
5.17196e-06
5.25185e-06
5.25252e-06
5.17894e-06
5.03677e-06
4.84246e-06
4.61063e-06
4.35534e-06
4.08983e-06
3.82594e-06
3.57514e-06
3.34599e-06
3.14324e-06
2.96876e-06
2.82255e-06
2.70354e-06
2.60981e-06
2.53882e-06
2.48787e-06
2.45429e-06
2.43561e-06
2.42925e-06
2.4345e-06
2.44806e-06
2.46967e-06
2.5002e-06
2.54091e-06
2.59342e-06
2.65932e-06
2.74016e-06
2.83673e-06
2.94888e-06
3.07534e-06
3.21336e-06
3.35867e-06
3.50702e-06
3.65335e-06
3.79372e-06
3.92522e-06
4.04779e-06
4.16429e-06
4.27946e-06
4.39865e-06
4.52711e-06
4.66819e-06
4.82028e-06
4.97474e-06
5.11822e-06
5.23486e-06
5.30881e-06
5.33004e-06
5.29359e-06
5.19054e-06
5.02772e-06
4.81673e-06
4.57119e-06
4.30478e-06
4.02993e-06
3.75945e-06
3.50365e-06
3.26986e-06
3.06191e-06
2.88188e-06
2.73101e-06
2.61015e-06
2.51994e-06
2.46057e-06
2.43072e-06
2.43065e-06
2.45486e-06
2.50189e-06
2.57128e-06
2.66095e-06
2.76692e-06
2.88335e-06
3.00313e-06
3.11824e-06
3.22073e-06
3.30483e-06
3.36833e-06
3.41368e-06
3.44714e-06
3.47645e-06
3.51142e-06
3.56139e-06
3.63389e-06
3.73408e-06
3.86426e-06
4.02275e-06
4.20279e-06
4.39115e-06
4.56869e-06
4.71386e-06
4.80621e-06
4.83378e-06
4.79778e-06
4.69891e-06
4.55164e-06
4.37294e-06
4.17773e-06
3.97874e-06
3.7854e-06
3.6019e-06
3.4292e-06
3.26786e-06
3.11741e-06
2.97696e-06
2.84597e-06
2.72476e-06
2.61423e-06
2.51602e-06
2.43231e-06
2.36516e-06
2.31614e-06
2.28644e-06
2.27723e-06
2.28921e-06
2.31957e-06
2.37051e-06
2.44343e-06
2.53966e-06
2.66094e-06
2.80925e-06
2.98646e-06
3.1934e-06
3.4298e-06
3.6948e-06
3.98495e-06
4.2928e-06
4.60409e-06
4.89386e-06
5.13518e-06
5.30295e-06
5.37758e-06
5.36816e-06
5.28716e-06
5.15087e-06
4.9844e-06
1.11733e-08
2.13184e-08
3.97938e-08
7.34369e-08
1.29081e-07
2.13627e-07
3.30958e-07
4.64963e-07
5.91052e-07
6.94506e-07
7.72718e-07
8.29991e-07
8.72693e-07
9.06627e-07
9.36915e-07
9.6748e-07
1.00114e-06
1.03993e-06
1.08508e-06
1.13696e-06
1.19555e-06
1.26007e-06
1.32804e-06
1.39531e-06
1.457e-06
1.50786e-06
1.5433e-06
1.56056e-06
1.55976e-06
1.53867e-06
1.49837e-06
1.44358e-06
1.37879e-06
1.30847e-06
1.23693e-06
1.16777e-06
1.10229e-06
1.04252e-06
9.89884e-07
9.44932e-07
9.07648e-07
8.777e-07
8.54513e-07
8.37347e-07
8.2539e-07
8.17849e-07
8.14004e-07
8.13252e-07
8.15368e-07
8.19588e-07
8.25935e-07
8.34716e-07
8.46264e-07
8.60998e-07
8.79325e-07
9.01604e-07
9.27956e-07
9.58221e-07
9.91911e-07
1.02817e-06
1.06581e-06
1.10357e-06
1.14019e-06
1.17468e-06
1.20674e-06
1.23661e-06
1.26515e-06
1.29369e-06
1.32367e-06
1.3565e-06
1.39284e-06
1.43222e-06
1.47267e-06
1.51075e-06
1.54274e-06
1.56463e-06
1.57192e-06
1.5626e-06
1.5341e-06
1.48843e-06
1.42937e-06
1.36133e-06
1.28883e-06
1.2158e-06
1.14393e-06
1.07566e-06
1.01323e-06
9.57835e-07
9.10106e-07
8.70338e-07
8.38678e-07
8.15138e-07
7.99575e-07
7.91521e-07
7.90958e-07
7.96605e-07
8.08339e-07
8.26177e-07
8.49623e-07
8.77364e-07
9.07705e-07
9.38663e-07
9.68247e-07
9.94581e-07
1.01628e-06
1.03289e-06
1.04513e-06
1.05459e-06
1.06325e-06
1.07348e-06
1.0877e-06
1.10771e-06
1.13464e-06
1.16881e-06
1.20952e-06
1.25487e-06
1.30165e-06
1.34521e-06
1.38062e-06
1.40361e-06
1.41158e-06
1.40272e-06
1.37644e-06
1.33694e-06
1.28936e-06
1.23819e-06
1.18692e-06
1.13706e-06
1.08953e-06
1.04467e-06
1.00287e-06
9.6393e-07
9.27556e-07
8.93715e-07
8.62639e-07
8.34586e-07
8.09914e-07
7.89184e-07
7.7286e-07
7.61133e-07
7.54277e-07
7.52669e-07
7.56472e-07
7.65217e-07
7.7966e-07
8.00151e-07
8.26974e-07
8.60472e-07
9.01026e-07
9.48931e-07
1.00417e-06
1.0662e-06
1.13438e-06
1.2075e-06
1.2831e-06
1.35739e-06
1.42499e-06
1.48026e-06
1.51816e-06
1.53492e-06
1.53254e-06
1.51092e-06
1.4742e-06
1.42916e-06
3.39445e-09
6.61397e-09
1.30268e-08
2.5738e-08
4.83798e-08
8.5008e-08
1.38929e-07
2.08891e-07
2.80824e-07
3.43215e-07
3.91419e-07
4.27027e-07
4.53169e-07
4.73048e-07
4.89688e-07
5.053e-07
5.21641e-07
5.39814e-07
5.60524e-07
5.84061e-07
6.1047e-07
6.3939e-07
6.69696e-07
6.9951e-07
7.26605e-07
7.48659e-07
7.63712e-07
7.70885e-07
7.7011e-07
7.60375e-07
7.4227e-07
7.1783e-07
6.88949e-07
6.5749e-07
6.25179e-07
5.93495e-07
5.63556e-07
5.36486e-07
5.1298e-07
4.93227e-07
4.77139e-07
4.64456e-07
4.54823e-07
4.47848e-07
4.43132e-07
4.403e-07
4.38996e-07
4.38989e-07
4.40134e-07
4.42105e-07
4.44866e-07
4.48622e-07
4.5354e-07
4.59811e-07
4.67624e-07
4.77158e-07
4.88493e-07
5.01582e-07
5.16221e-07
5.32042e-07
5.48496e-07
5.64988e-07
5.80915e-07
5.95826e-07
6.09558e-07
6.22332e-07
6.34598e-07
6.46956e-07
6.60094e-07
6.74651e-07
6.90903e-07
7.08642e-07
7.27013e-07
7.444e-07
7.59167e-07
7.69392e-07
7.73096e-07
7.69346e-07
7.57053e-07
7.37052e-07
7.11005e-07
6.80761e-07
6.48124e-07
6.14699e-07
5.81901e-07
5.5098e-07
5.23115e-07
4.9881e-07
4.78256e-07
4.61471e-07
4.48398e-07
4.38894e-07
4.32757e-07
4.29661e-07
4.29589e-07
4.3182e-07
4.36338e-07
4.4332e-07
4.52649e-07
4.6379e-07
4.76062e-07
4.88642e-07
5.0068e-07
5.11399e-07
5.20214e-07
5.26906e-07
5.3177e-07
5.35512e-07
5.38993e-07
5.43307e-07
5.49488e-07
5.58344e-07
5.70374e-07
5.8572e-07
6.04064e-07
6.2455e-07
6.45728e-07
6.65453e-07
6.81492e-07
6.92073e-07
6.95914e-07
6.92235e-07
6.80824e-07
6.63478e-07
6.42453e-07
6.19684e-07
5.9673e-07
5.74532e-07
5.53475e-07
5.33724e-07
5.15494e-07
4.98672e-07
4.83107e-07
4.68779e-07
4.55787e-07
4.44264e-07
4.34327e-07
4.26159e-07
4.19932e-07
4.15613e-07
4.13342e-07
4.1323e-07
4.15205e-07
4.18918e-07
4.24868e-07
4.3323e-07
4.44159e-07
4.57861e-07
4.74571e-07
4.94486e-07
5.17671e-07
5.43956e-07
5.7318e-07
6.05053e-07
6.38309e-07
6.71106e-07
7.0098e-07
7.25365e-07
7.41873e-07
7.49039e-07
7.47874e-07
7.3828e-07
7.22076e-07
7.02129e-07
1.31269e-09
2.62214e-09
5.45683e-09
1.1519e-08
2.30495e-08
4.27957e-08
7.33522e-08
1.16292e-07
1.67047e-07
2.1477e-07
2.53676e-07
2.82906e-07
3.04361e-07
3.20159e-07
3.32463e-07
3.43016e-07
3.5305e-07
3.63488e-07
3.74875e-07
3.87501e-07
4.01491e-07
4.16698e-07
4.32609e-07
4.48237e-07
4.62351e-07
4.73682e-07
4.81357e-07
4.84811e-07
4.83962e-07
4.7822e-07
4.68047e-07
4.54532e-07
4.38723e-07
4.2165e-07
4.04276e-07
3.87404e-07
3.71652e-07
3.57716e-07
3.45969e-07
3.36432e-07
3.2896e-07
3.23332e-07
3.19289e-07
3.16564e-07
3.14901e-07
3.14072e-07
3.13883e-07
3.14227e-07
3.14998e-07
3.16089e-07
3.17502e-07
3.19325e-07
3.21697e-07
3.2471e-07
3.28466e-07
3.33051e-07
3.38524e-07
3.44863e-07
3.51997e-07
3.59766e-07
3.67902e-07
3.76096e-07
3.8402e-07
3.91432e-07
3.98207e-07
4.04448e-07
4.10484e-07
4.1667e-07
4.23405e-07
4.31021e-07
4.39661e-07
4.49195e-07
4.59157e-07
4.68692e-07
4.76895e-07
4.82621e-07
4.84781e-07
4.82855e-07
4.76223e-07
4.65487e-07
4.51532e-07
4.3538e-07
4.18092e-07
4.00634e-07
3.83782e-07
3.68238e-07
3.54661e-07
3.4324e-07
3.33971e-07
3.26773e-07
3.21505e-07
3.17977e-07
3.15984e-07
3.15246e-07
3.1569e-07
3.16914e-07
3.18819e-07
3.21719e-07
3.25648e-07
3.30385e-07
3.35639e-07
3.41051e-07
3.46223e-07
3.50801e-07
3.54525e-07
3.57274e-07
3.59176e-07
3.60584e-07
3.61928e-07
3.63775e-07
3.66666e-07
3.70978e-07
3.76942e-07
3.84657e-07
3.93966e-07
4.04437e-07
4.15317e-07
4.25455e-07
4.33763e-07
4.39284e-07
4.41282e-07
4.393e-07
4.33233e-07
4.24117e-07
4.13166e-07
4.01453e-07
3.89814e-07
3.78664e-07
3.68245e-07
3.58652e-07
3.49975e-07
3.42134e-07
3.3505e-07
3.28701e-07
3.23123e-07
3.18369e-07
3.14496e-07
3.11548e-07
3.0953e-07
3.08401e-07
3.08114e-07
3.08752e-07
3.10145e-07
3.12157e-07
3.14954e-07
3.18792e-07
3.23756e-07
3.29976e-07
3.37615e-07
3.46824e-07
3.57686e-07
3.7017e-07
3.84257e-07
3.99934e-07
4.16591e-07
4.33229e-07
4.48479e-07
4.60903e-07
4.69218e-07
4.7275e-07
4.71975e-07
4.66655e-07
4.57953e-07
4.47368e-07
6.47817e-10
1.32313e-09
2.86663e-09
6.34321e-09
1.32541e-08
2.55554e-08
4.53295e-08
7.41615e-08
1.12278e-07
1.52483e-07
1.87832e-07
2.15494e-07
2.36358e-07
2.51894e-07
2.63585e-07
2.72849e-07
2.80816e-07
2.88256e-07
2.9571e-07
3.03491e-07
3.11776e-07
3.20552e-07
3.29587e-07
3.38383e-07
3.46243e-07
3.52483e-07
3.56553e-07
3.58146e-07
3.57197e-07
3.53382e-07
3.47074e-07
3.38879e-07
3.29422e-07
3.19322e-07
3.09146e-07
2.99327e-07
2.90245e-07
2.8242e-07
2.76055e-07
2.71122e-07
2.67479e-07
2.6494e-07
2.63315e-07
2.62408e-07
2.62012e-07
2.61996e-07
2.62249e-07
2.62688e-07
2.63284e-07
2.64023e-07
2.64942e-07
2.66109e-07
2.67539e-07
2.69323e-07
2.71522e-07
2.74159e-07
2.77239e-07
2.80751e-07
2.84658e-07
2.88866e-07
2.93239e-07
2.97618e-07
3.01837e-07
3.05785e-07
3.09366e-07
3.12652e-07
3.15782e-07
3.19012e-07
3.22632e-07
3.26833e-07
3.31682e-07
3.37068e-07
3.4267e-07
3.48101e-07
3.52839e-07
3.5618e-07
3.57475e-07
3.5639e-07
3.52562e-07
3.46363e-07
3.38352e-07
3.29237e-07
3.19635e-07
3.10121e-07
3.01126e-07
2.93021e-07
2.86247e-07
2.80835e-07
2.76736e-07
2.73859e-07
2.72068e-07
2.71261e-07
2.7122e-07
2.7174e-07
2.72698e-07
2.73831e-07
2.75003e-07
2.76422e-07
2.78247e-07
2.80385e-07
2.827e-07
2.85039e-07
2.87224e-07
2.89078e-07
2.90484e-07
2.91392e-07
2.91881e-07
2.92144e-07
2.92424e-07
2.9307e-07
2.94395e-07
2.96578e-07
2.99704e-07
3.03783e-07
3.08737e-07
3.14324e-07
3.20128e-07
3.25576e-07
3.30081e-07
3.33025e-07
3.33982e-07
3.32677e-07
3.29082e-07
3.23857e-07
3.17711e-07
3.11248e-07
3.04917e-07
2.98979e-07
2.93578e-07
2.88718e-07
2.84448e-07
2.80745e-07
2.77474e-07
2.74657e-07
2.72311e-07
2.7049e-07
2.69225e-07
2.68539e-07
2.68355e-07
2.68658e-07
2.69349e-07
2.70402e-07
2.71715e-07
2.73181e-07
2.74806e-07
2.76822e-07
2.79382e-07
2.82528e-07
2.8635e-07
2.90966e-07
2.96458e-07
3.02795e-07
3.09986e-07
3.18116e-07
3.26897e-07
3.35774e-07
3.43934e-07
3.50589e-07
3.54952e-07
3.56695e-07
3.56047e-07
3.52814e-07
3.47868e-07
3.41822e-07
3.98244e-10
8.17647e-10
1.79168e-09
4.03181e-09
8.56383e-09
1.67662e-08
3.02094e-08
5.03048e-08
7.79585e-08
1.11529e-07
1.43744e-07
1.70843e-07
1.9229e-07
2.09021e-07
2.21953e-07
2.32039e-07
2.40306e-07
2.47513e-07
2.54107e-07
2.60403e-07
2.66578e-07
2.72688e-07
2.78672e-07
2.84304e-07
2.89211e-07
2.92975e-07
2.95262e-07
2.95942e-07
2.94908e-07
2.9211e-07
2.87795e-07
2.82332e-07
2.76091e-07
2.69396e-07
2.62532e-07
2.55702e-07
2.49192e-07
2.43574e-07
2.38999e-07
2.35415e-07
2.32786e-07
2.30981e-07
2.29831e-07
2.29292e-07
2.29139e-07
2.29274e-07
2.29632e-07
2.30158e-07
2.30848e-07
2.31724e-07
2.32813e-07
2.34174e-07
2.35765e-07
2.3758e-07
2.39689e-07
2.42082e-07
2.44711e-07
2.47597e-07
2.50643e-07
2.53733e-07
2.56792e-07
2.59728e-07
2.62452e-07
2.64922e-07
2.67165e-07
2.69244e-07
2.71218e-07
2.73221e-07
2.75443e-07
2.78045e-07
2.81057e-07
2.84405e-07
2.87933e-07
2.91306e-07
2.94189e-07
2.96175e-07
2.96883e-07
2.96056e-07
2.93538e-07
2.89585e-07
2.84544e-07
2.78885e-07
2.73007e-07
2.67279e-07
2.61878e-07
2.56938e-07
2.52816e-07
2.49543e-07
2.47124e-07
2.45553e-07
2.44788e-07
2.44813e-07
2.45543e-07
2.46806e-07
2.48408e-07
2.50183e-07
2.5193e-07
2.53538e-07
2.55218e-07
2.56901e-07
2.58479e-07
2.59856e-07
2.6096e-07
2.61745e-07
2.62176e-07
2.6225e-07
2.6205e-07
2.61724e-07
2.61438e-07
2.61486e-07
2.62067e-07
2.63265e-07
2.65099e-07
2.67487e-07
2.70334e-07
2.73466e-07
2.76657e-07
2.79659e-07
2.82074e-07
2.83536e-07
2.83844e-07
2.82794e-07
2.80432e-07
2.7716e-07
2.73411e-07
2.69535e-07
2.65795e-07
2.62395e-07
2.59424e-07
2.56766e-07
2.54452e-07
2.52467e-07
2.50724e-07
2.49269e-07
2.48111e-07
2.47302e-07
2.46931e-07
2.46992e-07
2.47476e-07
2.48357e-07
2.49491e-07
2.50899e-07
2.52428e-07
2.53928e-07
2.55543e-07
2.57193e-07
2.59127e-07
2.6136e-07
2.6388e-07
2.66757e-07
2.70037e-07
2.7368e-07
2.77711e-07
2.82178e-07
2.87016e-07
2.91888e-07
2.9633e-07
2.99861e-07
3.0212e-07
3.02906e-07
3.02285e-07
3.00172e-07
2.97097e-07
2.93297e-07
2.83579e-10
5.71983e-10
1.23198e-09
2.74363e-09
5.7887e-09
1.12937e-08
2.03563e-08
3.40871e-08
5.33585e-08
7.85589e-08
1.0656e-07
1.32331e-07
1.539e-07
1.71603e-07
1.86084e-07
1.97758e-07
2.07423e-07
2.15789e-07
2.23253e-07
2.3007e-07
2.36361e-07
2.42131e-07
2.47377e-07
2.52014e-07
2.55865e-07
2.58699e-07
2.60337e-07
2.60684e-07
2.59652e-07
2.5734e-07
2.53862e-07
2.49432e-07
2.44236e-07
2.38398e-07
2.32106e-07
2.25541e-07
2.18995e-07
2.13163e-07
2.08196e-07
2.04099e-07
2.00948e-07
1.98643e-07
1.97095e-07
1.96287e-07
1.96003e-07
1.96149e-07
1.96656e-07
1.97426e-07
1.98464e-07
1.99813e-07
2.01489e-07
2.03529e-07
2.05869e-07
2.08483e-07
2.11342e-07
2.14437e-07
2.17732e-07
2.21243e-07
2.24796e-07
2.28238e-07
2.31469e-07
2.34416e-07
2.37023e-07
2.39293e-07
2.41285e-07
2.43097e-07
2.44856e-07
2.46657e-07
2.48586e-07
2.50775e-07
2.53207e-07
2.55765e-07
2.58369e-07
2.60782e-07
2.62771e-07
2.6406e-07
2.6442e-07
2.6358e-07
2.61527e-07
2.58448e-07
2.54582e-07
2.5028e-07
2.45764e-07
2.41136e-07
2.36327e-07
2.31539e-07
2.2732e-07
2.23768e-07
2.20981e-07
2.19082e-07
2.18099e-07
2.1804e-07
2.18977e-07
2.20757e-07
2.23226e-07
2.26223e-07
2.29444e-07
2.32577e-07
2.35558e-07
2.38362e-07
2.40794e-07
2.4272e-07
2.44078e-07
2.44873e-07
2.45153e-07
2.44999e-07
2.44528e-07
2.43896e-07
2.43289e-07
2.43012e-07
2.4329e-07
2.44154e-07
2.45573e-07
2.47405e-07
2.49507e-07
2.51705e-07
2.53893e-07
2.55895e-07
2.57408e-07
2.58198e-07
2.5816e-07
2.57174e-07
2.55322e-07
2.52859e-07
2.50033e-07
2.47061e-07
2.44156e-07
2.4148e-07
2.39134e-07
2.37064e-07
2.35036e-07
2.33446e-07
2.31938e-07
2.30605e-07
2.29451e-07
2.28593e-07
2.28121e-07
2.28059e-07
2.28427e-07
2.29302e-07
2.30567e-07
2.32201e-07
2.34138e-07
2.36281e-07
2.38594e-07
2.41014e-07
2.4349e-07
2.46134e-07
2.4891e-07
2.51789e-07
2.54774e-07
2.57776e-07
2.60793e-07
2.63832e-07
2.66882e-07
2.69857e-07
2.72512e-07
2.7456e-07
2.75782e-07
2.76101e-07
2.75441e-07
2.73936e-07
2.71791e-07
2.69168e-07
2.16994e-10
4.2215e-10
8.76412e-10
1.89642e-09
3.91207e-09
7.50619e-09
1.3381e-08
2.23081e-08
3.50248e-08
5.21155e-08
7.39504e-08
9.7255e-08
1.18074e-07
1.3588e-07
1.51202e-07
1.64088e-07
1.75093e-07
1.84813e-07
1.93562e-07
2.0155e-07
2.0885e-07
2.1541e-07
2.21152e-07
2.26018e-07
2.29902e-07
2.32662e-07
2.34194e-07
2.34388e-07
2.33265e-07
2.30941e-07
2.27461e-07
2.2296e-07
2.17475e-07
2.11027e-07
2.03793e-07
1.96037e-07
1.88257e-07
1.81192e-07
1.75047e-07
1.69887e-07
1.65729e-07
1.62535e-07
1.60283e-07
1.58962e-07
1.58421e-07
1.58523e-07
1.59173e-07
1.60252e-07
1.61756e-07
1.63748e-07
1.6622e-07
1.69132e-07
1.7242e-07
1.76062e-07
1.80014e-07
1.84162e-07
1.88532e-07
1.93138e-07
1.97755e-07
2.02166e-07
2.06217e-07
2.09821e-07
2.12925e-07
2.1554e-07
2.17755e-07
2.19721e-07
2.21615e-07
2.23613e-07
2.25822e-07
2.2824e-07
2.30838e-07
2.33494e-07
2.36043e-07
2.38284e-07
2.40036e-07
2.41097e-07
2.4123e-07
2.40198e-07
2.38023e-07
2.34787e-07
2.30715e-07
2.26118e-07
2.2105e-07
2.15527e-07
2.09662e-07
2.03843e-07
1.98511e-07
1.93828e-07
1.89992e-07
1.87152e-07
1.85407e-07
1.84782e-07
1.85531e-07
1.87705e-07
1.91176e-07
1.95723e-07
2.00939e-07
2.0635e-07
2.1154e-07
2.16449e-07
2.20749e-07
2.24208e-07
2.26711e-07
2.28256e-07
2.28911e-07
2.28834e-07
2.28251e-07
2.27389e-07
2.26512e-07
2.26045e-07
2.26248e-07
2.27152e-07
2.2868e-07
2.30625e-07
2.32763e-07
2.34914e-07
2.3702e-07
2.38808e-07
2.40017e-07
2.40484e-07
2.40109e-07
2.38828e-07
2.36764e-07
2.34113e-07
2.31071e-07
2.27833e-07
2.24632e-07
2.21643e-07
2.18994e-07
2.16668e-07
2.14453e-07
2.12623e-07
2.10762e-07
2.09003e-07
2.07341e-07
2.05899e-07
2.04801e-07
2.0416e-07
2.04055e-07
2.04622e-07
2.05899e-07
2.07873e-07
2.10602e-07
2.13974e-07
2.17531e-07
2.2141e-07
2.25287e-07
2.29175e-07
2.3313e-07
2.37049e-07
2.40846e-07
2.44395e-07
2.47701e-07
2.50706e-07
2.5345e-07
2.55897e-07
2.57978e-07
2.59502e-07
2.60376e-07
2.60502e-07
2.59872e-07
2.58694e-07
2.56995e-07
2.54819e-07
1.6981e-10
3.14897e-10
6.22819e-10
1.29429e-09
2.58248e-09
4.82567e-09
8.43025e-09
1.38677e-08
2.16601e-08
3.23494e-08
4.64154e-08
6.42411e-08
8.33491e-08
1.00679e-07
1.16105e-07
1.29695e-07
1.41851e-07
1.52991e-07
1.63262e-07
1.72687e-07
1.81248e-07
1.88817e-07
1.95316e-07
2.00712e-07
2.04945e-07
2.07895e-07
2.09472e-07
2.096e-07
2.08278e-07
2.05655e-07
2.01747e-07
1.96661e-07
1.90363e-07
1.82836e-07
1.74298e-07
1.65119e-07
1.55953e-07
1.47482e-07
1.39967e-07
1.33522e-07
1.28173e-07
1.23911e-07
1.20744e-07
1.1866e-07
1.1757e-07
1.17332e-07
1.17863e-07
1.19048e-07
1.20884e-07
1.23414e-07
1.26558e-07
1.30171e-07
1.34226e-07
1.38738e-07
1.43713e-07
1.49092e-07
1.54803e-07
1.60804e-07
1.66885e-07
1.72713e-07
1.77976e-07
1.82539e-07
1.86347e-07
1.8943e-07
1.91909e-07
1.94017e-07
1.96031e-07
1.98223e-07
2.00761e-07
2.03592e-07
2.06637e-07
2.0976e-07
2.12685e-07
2.15182e-07
2.17086e-07
2.18228e-07
2.18283e-07
2.17006e-07
2.14364e-07
2.10374e-07
2.05337e-07
1.99587e-07
1.93212e-07
1.8631e-07
1.79151e-07
1.72126e-07
1.65456e-07
1.59337e-07
1.54052e-07
1.49787e-07
1.46711e-07
1.44932e-07
1.44819e-07
1.46902e-07
1.50967e-07
1.56828e-07
1.64061e-07
1.72098e-07
1.80304e-07
1.88276e-07
1.95433e-07
2.01267e-07
2.0556e-07
2.08311e-07
2.09663e-07
2.09847e-07
2.09182e-07
2.08013e-07
2.06769e-07
2.06094e-07
2.06262e-07
2.0733e-07
2.09195e-07
2.11618e-07
2.14241e-07
2.16933e-07
2.19483e-07
2.21517e-07
2.22754e-07
2.23034e-07
2.22201e-07
2.20324e-07
2.17536e-07
2.14069e-07
2.10164e-07
2.06066e-07
2.02096e-07
1.98476e-07
1.953e-07
1.92487e-07
1.89971e-07
1.87655e-07
1.85283e-07
1.82847e-07
1.80325e-07
1.7786e-07
1.75687e-07
1.74034e-07
1.73085e-07
1.73121e-07
1.74242e-07
1.76514e-07
1.80049e-07
1.84654e-07
1.90108e-07
1.96127e-07
2.02262e-07
2.0823e-07
2.1406e-07
2.19665e-07
2.24942e-07
2.29751e-07
2.34058e-07
2.37798e-07
2.41014e-07
2.4373e-07
2.45889e-07
2.47437e-07
2.4824e-07
2.48287e-07
2.47608e-07
2.46387e-07
2.44612e-07
2.42351e-07
1.32199e-10
2.31793e-10
4.33381e-10
8.57824e-10
1.64192e-09
2.96255e-09
5.02754e-09
8.08553e-09
1.24393e-08
1.84595e-08
2.65808e-08
3.72135e-08
5.07822e-08
6.62116e-08
8.09005e-08
9.44308e-08
1.07232e-07
1.19548e-07
1.31322e-07
1.42333e-07
1.52398e-07
1.61253e-07
1.6874e-07
1.74826e-07
1.79502e-07
1.82695e-07
1.84339e-07
1.84384e-07
1.82839e-07
1.79823e-07
1.75363e-07
1.69568e-07
1.6236e-07
1.53701e-07
1.43847e-07
1.33284e-07
1.22786e-07
1.13017e-07
1.04285e-07
9.67368e-08
9.0393e-08
8.52403e-08
8.12851e-08
7.85236e-08
7.68826e-08
7.61957e-08
7.64225e-08
7.75057e-08
7.94172e-08
8.2111e-08
8.54595e-08
8.9251e-08
9.34723e-08
9.82045e-08
1.03585e-07
1.09695e-07
1.16444e-07
1.23713e-07
1.31207e-07
1.3858e-07
1.45285e-07
1.51026e-07
1.55685e-07
1.59294e-07
1.62022e-07
1.64195e-07
1.66228e-07
1.6853e-07
1.71357e-07
1.74649e-07
1.7833e-07
1.82149e-07
1.85711e-07
1.88703e-07
1.90959e-07
1.92344e-07
1.92465e-07
1.91009e-07
1.87859e-07
1.82978e-07
1.76768e-07
1.69652e-07
1.6189e-07
1.53735e-07
1.45448e-07
1.37176e-07
1.29035e-07
1.21343e-07
1.14437e-07
1.08535e-07
1.03835e-07
1.0061e-07
9.92827e-08
1.00536e-07
1.04316e-07
1.10541e-07
1.18977e-07
1.29079e-07
1.40186e-07
1.51592e-07
1.62267e-07
1.71249e-07
1.78037e-07
1.8252e-07
1.84877e-07
1.85457e-07
1.84718e-07
1.83175e-07
1.81472e-07
1.80468e-07
1.80534e-07
1.81824e-07
1.84294e-07
1.87679e-07
1.91447e-07
1.95306e-07
1.98794e-07
2.01425e-07
2.02924e-07
2.03083e-07
2.0181e-07
1.99237e-07
1.95532e-07
1.90981e-07
1.85881e-07
1.80592e-07
1.75521e-07
1.70955e-07
1.67031e-07
1.6358e-07
1.60538e-07
1.57553e-07
1.54396e-07
1.50777e-07
1.46556e-07
1.42114e-07
1.37924e-07
1.34395e-07
1.31911e-07
1.30857e-07
1.31663e-07
1.3433e-07
1.38835e-07
1.45086e-07
1.52973e-07
1.6215e-07
1.71806e-07
1.81215e-07
1.90101e-07
1.98363e-07
2.05872e-07
2.1248e-07
2.1827e-07
2.23188e-07
2.27306e-07
2.30685e-07
2.33285e-07
2.35103e-07
2.36009e-07
2.36006e-07
2.35123e-07
2.3357e-07
2.31434e-07
2.28797e-07
1.00716e-10
1.65465e-10
2.90233e-10
5.43056e-10
9.886e-10
1.70491e-09
2.77946e-09
4.31874e-09
6.46494e-09
9.41474e-09
1.34296e-08
1.88578e-08
2.61235e-08
3.57235e-08
4.74822e-08
6.02533e-08
7.30704e-08
8.60045e-08
9.89299e-08
1.11382e-07
1.22934e-07
1.33133e-07
1.41695e-07
1.48547e-07
1.53702e-07
1.57163e-07
1.58871e-07
1.58803e-07
1.57014e-07
1.53534e-07
1.4846e-07
1.41917e-07
1.33811e-07
1.24116e-07
1.13153e-07
1.01537e-07
9.01326e-08
7.95952e-08
7.02353e-08
6.21636e-08
5.53711e-08
4.98428e-08
4.55922e-08
4.25944e-08
4.07282e-08
3.98198e-08
3.97928e-08
4.07188e-08
4.24717e-08
4.49326e-08
4.8011e-08
5.14719e-08
5.53185e-08
5.96584e-08
6.46915e-08
7.06895e-08
7.77156e-08
8.5555e-08
9.38883e-08
1.0226e-07
1.10045e-07
1.16731e-07
1.22047e-07
1.25972e-07
1.28724e-07
1.30737e-07
1.3258e-07
1.34815e-07
1.37789e-07
1.41426e-07
1.45753e-07
1.50394e-07
1.54818e-07
1.58583e-07
1.61465e-07
1.63319e-07
1.63756e-07
1.62287e-07
1.58731e-07
1.5301e-07
1.45654e-07
1.37297e-07
1.28478e-07
1.1955e-07
1.10506e-07
1.01137e-07
9.17931e-08
8.3034e-08
7.51556e-08
6.82477e-08
6.24608e-08
5.81606e-08
5.57743e-08
5.58642e-08
5.85473e-08
6.39145e-08
7.20131e-08
8.2535e-08
9.50268e-08
1.08774e-07
1.2246e-07
1.34494e-07
1.43838e-07
1.50102e-07
1.5339e-07
1.54168e-07
1.53088e-07
1.50913e-07
1.48571e-07
1.47093e-07
1.46953e-07
1.4847e-07
1.51741e-07
1.56533e-07
1.62135e-07
1.67934e-07
1.73059e-07
1.76875e-07
1.79052e-07
1.79393e-07
1.77839e-07
1.74611e-07
1.69925e-07
1.64106e-07
1.57548e-07
1.50782e-07
1.44337e-07
1.386e-07
1.33758e-07
1.296e-07
1.25908e-07
1.22195e-07
1.1794e-07
1.12363e-07
1.05286e-07
9.80921e-08
9.15307e-08
8.61601e-08
8.23849e-08
8.04856e-08
8.06888e-08
8.30793e-08
8.7668e-08
9.455e-08
1.04117e-07
1.16514e-07
1.3072e-07
1.45217e-07
1.58862e-07
1.71257e-07
1.82198e-07
1.91557e-07
1.99529e-07
2.06141e-07
2.11543e-07
2.15864e-07
2.19139e-07
2.21406e-07
2.2251e-07
2.22467e-07
2.21316e-07
2.19256e-07
2.16532e-07
2.13223e-07
7.28986e-11
1.10742e-10
1.81098e-10
3.17399e-10
5.42626e-10
8.79207e-10
1.34933e-09
1.98082e-09
2.81874e-09
3.93071e-09
5.44774e-09
7.57974e-09
1.06201e-08
1.49293e-08
2.09742e-08
2.93759e-08
4.0501e-08
5.3392e-08
6.69363e-08
8.06172e-08
9.3603e-08
1.0516e-07
1.14799e-07
1.22375e-07
1.27947e-07
1.31606e-07
1.33361e-07
1.33159e-07
1.31103e-07
1.27142e-07
1.21474e-07
1.1426e-07
1.05428e-07
9.50061e-08
8.34182e-08
7.14148e-08
5.98939e-08
4.94466e-08
4.03314e-08
3.26212e-08
2.63692e-08
2.16973e-08
1.84307e-08
1.62845e-08
1.49523e-08
1.42295e-08
1.40765e-08
1.4611e-08
1.56586e-08
1.71001e-08
1.89974e-08
2.12858e-08
2.3991e-08
2.72448e-08
3.13e-08
3.64387e-08
4.29378e-08
5.05484e-08
5.89004e-08
6.75089e-08
7.56816e-08
8.27451e-08
8.82503e-08
9.20776e-08
9.44913e-08
9.60754e-08
9.74828e-08
9.9483e-08
1.02379e-07
1.06105e-07
1.10798e-07
1.16076e-07
1.21298e-07
1.25921e-07
1.29616e-07
1.32135e-07
1.33095e-07
1.31859e-07
1.28134e-07
1.21831e-07
1.13616e-07
1.04459e-07
9.51654e-08
8.59862e-08
7.65762e-08
6.66864e-08
5.71061e-08
4.84786e-08
4.07948e-08
3.38423e-08
2.78503e-08
2.32625e-08
2.03542e-08
1.92536e-08
2.05085e-08
2.48145e-08
3.12519e-08
4.00753e-08
5.17102e-08
6.53998e-08
8.02472e-08
9.41575e-08
1.05348e-07
1.12885e-07
1.16687e-07
1.17298e-07
1.15584e-07
1.12608e-07
1.09597e-07
1.07621e-07
1.07219e-07
1.08875e-07
1.1286e-07
1.1901e-07
1.26521e-07
1.34403e-07
1.41375e-07
1.46663e-07
1.49864e-07
1.50821e-07
1.49356e-07
1.45766e-07
1.40248e-07
1.33118e-07
1.24998e-07
1.16688e-07
1.08914e-07
1.02256e-07
9.68264e-08
9.23494e-08
8.83567e-08
8.41467e-08
7.86191e-08
7.06242e-08
6.1029e-08
5.25607e-08
4.55442e-08
4.01468e-08
3.6337e-08
3.403e-08
3.34456e-08
3.45782e-08
3.74528e-08
4.2361e-08
5.02736e-08
6.23265e-08
7.88213e-08
9.85314e-08
1.18405e-07
1.36669e-07
1.52644e-07
1.66054e-07
1.77136e-07
1.86075e-07
1.932e-07
1.98723e-07
2.02841e-07
2.05713e-07
2.07116e-07
2.07032e-07
2.05472e-07
2.0264e-07
1.98925e-07
1.94472e-07
4.95938e-11
6.90685e-11
1.0384e-10
1.65989e-10
2.55966e-10
3.70208e-10
5.05045e-10
6.53076e-10
8.21591e-10
1.0361e-09
1.34519e-09
1.83193e-09
2.61198e-09
3.82811e-09
5.81136e-09
9.25521e-09
1.49535e-08
2.40312e-08
3.65694e-08
5.08603e-08
6.50797e-08
7.81024e-08
8.8994e-08
9.73269e-08
1.03165e-07
1.0676e-07
1.08324e-07
1.0788e-07
1.05558e-07
1.01194e-07
9.5069e-08
8.7415e-08
7.82349e-08
6.76527e-08
5.62046e-08
4.47075e-08
3.39905e-08
2.46873e-08
1.74275e-08
1.21764e-08
8.60833e-09
6.23507e-09
4.71356e-09
3.74889e-09
3.13753e-09
2.79491e-09
2.69045e-09
2.87045e-09
3.19708e-09
3.64925e-09
4.29166e-09
5.17044e-09
6.33762e-09
7.86802e-09
9.84155e-09
1.24999e-08
1.6501e-08
2.20812e-08
2.92096e-08
3.7237e-08
4.52468e-08
5.22787e-08
5.77475e-08
6.13242e-08
6.3284e-08
6.43285e-08
6.52467e-08
6.69024e-08
6.94891e-08
7.30245e-08
7.76349e-08
8.30257e-08
8.85058e-08
9.3531e-08
9.77474e-08
1.00859e-07
1.02378e-07
1.01613e-07
9.80406e-08
9.15605e-08
8.29834e-08
7.37003e-08
6.46856e-08
5.59366e-08
4.68603e-08
3.73939e-08
2.8783e-08
2.12967e-08
1.46479e-08
9.07482e-09
5.17571e-09
2.93107e-09
2.0657e-09
1.80477e-09
2.02099e-09
3.24965e-09
7.07058e-09
1.12674e-08
1.78123e-08
2.80324e-08
4.12461e-08
5.51008e-08
6.69406e-08
7.50797e-08
7.90567e-08
7.93462e-08
7.6974e-08
7.32744e-08
6.96555e-08
6.72141e-08
6.65758e-08
6.8311e-08
7.27992e-08
7.99796e-08
8.90298e-08
9.85204e-08
1.06768e-07
1.1282e-07
1.16418e-07
1.17752e-07
1.16747e-07
1.13322e-07
1.07408e-07
9.9339e-08
9.01351e-08
8.10071e-08
7.29604e-08
6.65366e-08
6.15209e-08
5.73813e-08
5.35425e-08
4.90792e-08
4.26478e-08
3.40598e-08
2.59224e-08
1.98078e-08
1.51825e-08
1.16631e-08
9.02484e-09
7.04914e-09
5.63904e-09
5.36813e-09
6.80783e-09
8.896e-09
1.19673e-08
1.75262e-08
2.79447e-08
4.56362e-08
6.91288e-08
9.3392e-08
1.15638e-07
1.3464e-07
1.50324e-07
1.62779e-07
1.7241e-07
1.79582e-07
1.84517e-07
1.87755e-07
1.8923e-07
1.88977e-07
1.86869e-07
1.82971e-07
1.77658e-07
1.71515e-07
3.70823e-11
4.83168e-11
6.71345e-11
9.7445e-11
1.33704e-10
1.67802e-10
1.93127e-10
2.0538e-10
2.12137e-10
2.28005e-10
2.68699e-10
3.534e-10
5.09308e-10
7.68715e-10
1.26394e-09
2.37077e-09
4.708e-09
9.51786e-09
1.80454e-08
3.07609e-08
4.5355e-08
5.92921e-08
7.14117e-08
8.0849e-08
8.73975e-08
9.13044e-08
9.29273e-08
9.24297e-08
8.9989e-08
8.5477e-08
7.92208e-08
7.15019e-08
6.2379e-08
5.20441e-08
4.10965e-08
3.03969e-08
2.09077e-08
1.38981e-08
8.96856e-09
5.61471e-09
3.41775e-09
2.06723e-09
1.28767e-09
8.42866e-10
5.87162e-10
4.58173e-10
4.15638e-10
4.41073e-10
4.98537e-10
5.90091e-10
7.4013e-10
9.82481e-10
1.37618e-09
1.99465e-09
2.82755e-09
3.96472e-09
5.99327e-09
9.17181e-09
1.37143e-08
1.96685e-08
2.65359e-08
3.31961e-08
3.86552e-08
4.23675e-08
4.43399e-08
4.52553e-08
4.60108e-08
4.74803e-08
4.98612e-08
5.3313e-08
5.79638e-08
6.35578e-08
6.93638e-08
7.47657e-08
7.93664e-08
8.28396e-08
8.46767e-08
8.42178e-08
8.08796e-08
7.45419e-08
6.61111e-08
5.716e-08
4.86818e-08
4.05598e-08
3.2187e-08
2.36518e-08
1.62078e-08
1.0037e-08
5.46816e-09
2.60218e-09
1.21811e-09
7.55167e-10
6.53387e-10
2.92814e-10
1.96882e-10
3.58554e-10
7.06375e-10
2.5079e-09
5.12623e-09
9.86722e-09
1.80842e-08
2.95575e-08
4.07541e-08
4.85747e-08
5.23377e-08
5.23867e-08
4.9786e-08
4.59828e-08
4.23886e-08
3.99974e-08
3.94149e-08
4.11731e-08
4.57012e-08
5.31394e-08
6.29864e-08
7.38795e-08
8.38058e-08
9.12796e-08
9.57884e-08
9.76569e-08
9.70748e-08
9.38812e-08
8.79883e-08
7.978e-08
7.05024e-08
6.15286e-08
5.38957e-08
4.80011e-08
4.34516e-08
3.96429e-08
3.60599e-08
3.18436e-08
2.58922e-08
1.86603e-08
1.25879e-08
8.24009e-09
5.06279e-09
3.05639e-09
1.86897e-09
1.38768e-09
1.23316e-09
1.09128e-09
9.76927e-10
1.08307e-09
2.08986e-09
3.8655e-09
6.92971e-09
1.40205e-08
3.13488e-08
5.68471e-08
8.3299e-08
1.07038e-07
1.26998e-07
1.43077e-07
1.55654e-07
1.65107e-07