/*--------------------------------*- C++ -*----------------------------------*\
| =========                 |                                                 |
| \\      /  F ield         | OpenFOAM: The Open Source CFD Toolbox           |
|  \\    /   O peration     | Version:  v1912                                 |
|   \\  /    A nd           | Website:  www.openfoam.com                      |
|    \\/     M anipulation  |                                                 |
\*---------------------------------------------------------------------------*/
FoamFile
{
    version     2.0;
    format      ascii;
    class       volScalarField;
    location    "100";
    object      p_rgh;
}
// * * * * * * * * * * * * * * * * * * * * * * * * * * * * * * * * * * * * * //

dimensions      [1 -1 -2 0 0 0 0];


internalField   nonuniform List<scalar> 
14268
(
937.088
-351.604
-2073.39
-4236.01
-5923.01
-7481.29
-8902.28
-10143.6
-11151.6
-11872
-12252.6
-12275.8
-11940.5
-11175.8
-9982.13
-8391.18
-6449.05
-4204.95
-1518.21
1428.17
3750.24
5846.2
7749.62
9388.61
10708.1
11682.1
12296.3
12551.8
12434.8
11985.4
11215.1
10113.4
8689.77
6964.93
4987.37
2826.25
580.364
-1244.29
-3386.87
-5651.85
-7827.32
-9830.8
-11610.6
-13126.9
-14352.4
-15275.7
-15896.1
-16206.7
-16220.3
-15948.3
-15375
-14501.1
-13332.3
-11884.9
-10186.8
-8283.21
-6235.31
-4104.67
-1935.56
150.935
1789.11
3372.05
5002.74
6537.47
7965.39
9286.72
10506.5
11629.5
12656.3
13579.8
14385.6
15047.2
15527.2
15786
15782.8
15464.5
14822.5
13862.5
12581.5
10986.4
9093.34
6918.73
4492.75
1858.45
-942.846
-3894.84
-6782.98
-9582.61
-12195.7
-14521.2
-16450.8
-17875.3
-18711.3
-18892.3
-18414.1
-17396.7
-15901.6
-14058.6
-12007.1
-9880.91
-7757.87
-5693.61
-3863.52
-2352.33
-1149.62
-112.145
582.644
1726.37
2841.28
4029.4
5313.95
6658.58
8005.27
9297.99
10512.1
11628
12558.9
13239.5
13626.3
13700.4
13440.4
12891.9
12068.2
10989.7
9680.29
8161.93
6461.11
4607.98
2627.53
544.687
-1618.87
-3845.38
-6111.72
-8381.64
-10611.5
-12748.1
-14728.8
-16475.9
-17900.4
-18908.2
-19392.5
-19272.7
-18611
-17353.5
-15566.4
-13322
-10726.6
-7900.39
-4955.98
-1984.91
946.908
3648.1
6285.99
8653.54
10759.8
12568.9
14062.5
15221.7
16036.4
16505.3
16629.4
16478.9
16067
15427.8
2250.39
1015.31
-616.689
-2791.11
-4558.93
-6246.54
-7844.06
-9307.93
-10580.9
-11600.5
-12298.8
-12566.7
-12457.3
-11910.8
-10934.8
-9586.53
-7877.63
-5849.54
-3396.18
-466.387
1968.52
4224.57
6290.55
8115.87
9662
10898.8
11800.6
12355.6
12543
12405.1
11926.7
11092.1
9911.66
8401.38
6598.36
4564.6
2390.6
515.115
-1764.69
-4165.95
-6495.79
-8671.39
-10639.2
-12350
-13756.7
-14847.3
-15634.3
-16111.4
-16284.9
-16163.2
-15733
-14993.3
-13949.4
-12617.3
-11021.9
-9202.04
-7211.76
-5113.95
-2979.99
-914.902
756.145
2436.2
4154.99
5777.74
7288.92
8683.23
9953.94
11117.2
12193.1
13174.3
14038.4
14756.4
15305.9
15660.1
15771.9
15570.7
15059.9
14236.7
13090.5
11621.4
9839.88
7757.75
5402.16
2814.36
36.7036
-2962.87
-5879.68
-8746.14
-11456.5
-13905.4
-15980.1
-17565.2
-18569.4
-18925
-18582.4
-17689
-16290.4
-14510.3
-12488.2
-10362.5
-8226.88
-6136.23
-4264.07
-2705.3
-1453.6
-379.306
370.096
1525.85
2643.08
3828.32
5104.34
6440.92
7785.15
9085.28
10309.3
11443.1
12409.6
13136.7
13576.9
13706.9
13499.1
13003.1
12220.9
11174.4
9887.08
8381.62
6686.15
4833.01
2850.07
764.134
-1409.01
-3645.4
-5926.12
-8215.33
-10470.1
-12633.5
-14641.9
-16424.6
-17889.4
-18938.4
-19460.8
-19372.3
-18735.4
-17495.5
-15717.8
-13475.1
-10876.6
-8044.27
-5091.22
-2108.2
836.291
3552.08
6208.11
8595.49
10722.8
12553.1
14066.5
15243.2
16071.4
16549.6
16679.4
16529.6
16114.8
15469.3
3096.87
1869.98
279.839
-1911.36
-3736.5
-5512.21
-7228.26
-8840.21
-10287.5
-11500.9
-12400.5
-12862.3
-12933.5
-12550.6
-11706.6
-10426.4
-8774.23
-6840.99
-4522.11
-1588.37
915.213
3268.63
5447.8
7402.16
9094.49
10493.4
11569.4
12305.1
12674.4
12723.4
12417
11735.6
10687.2
9285.04
7562.95
5580.32
3423.06
1471.47
-924.308
-3419.6
-5837.38
-8085.7
-10124.2
-11912.7
-13417
-14620.2
-15521.4
-16109.1
-16385.1
-16357.3
-16014.4
-15353
-14376.1
-13097.3
-11541.2
-9747.57
-7773.01
-5683.15
-3552.77
-1484.61
208.096
1954.77
3724.62
5391.63
6935.89
8340.86
9630.59
10830.8
11951.8
12984.8
13906
14683.3
15282
15676.1
15841.4
15694.8
15248.6
14492.1
13409.2
11996.8
10262.6
8216.78
5885.43
3309.84
534.204
-2529.79
-5471.65
-8389.42
-11168.6
-13699.5
-15866.1
-17547.7
-18645
-19086.7
-18803.5
-17956.6
-16581.3
-14801.2
-12761.1
-10607.7
-8441.57
-6323.35
-4429.26
-2853.39
-1586.48
-507.654
263.691
1417.77
2527.88
3707.6
4981.09
6320.74
7674.57
8990.69
10234
11387.6
12382.5
13141.9
13615.2
13776.2
13596.8
13118.5
12349.4
11309.5
10023.1
8513.9
6811.75
4950.94
2961.03
868.669
-1310.83
-3557.39
-5851.68
-8159.34
-10438.8
-12632.8
-14673.8
-16486.7
-17986.7
-19072
-19615.4
-19553.9
-18926.1
-17686.4
-15899.8
-13640.5
-11021.9
-8168.67
-5195.09
-2188.82
776.592
3511.08
6190.06
8599.92
10749.8
12601.4
14133.4
15324.3
16161.1
16641.7
16769.8
16611
16183.8
15523
3818.86
2583.28
1015.88
-1192.69
-3069.07
-4923.36
-6744.97
-8488.6
-10090.5
-11475.1
-12553
-13191.5
-13427.3
-13186.9
-12455.7
-11250.6
-9628.01
-7713.77
-5477.88
-2523.49
42.825
2485.71
4770.33
6843.81
8668
10210.1
11437.3
12328.7
12853
13058.6
12894.7
12337.3
11391.8
10068.5
8399.21
6441.44
4277.37
2230.05
-277.944
-2833.16
-5301.4
-7624.13
-9744.49
-11616.3
-13207
-14500.9
-15494.8
-16174.9
-16534.9
-16587.3
-16319.3
-15724.4
-14802.4
-13564.8
-12035.1
-10253.9
-8280.54
-6184.05
-4042.77
-1958.87
-243.944
1565.82
3379.19
5076.41
6630.58
8046.36
9358.26
10591.1
11754.5
12838.3
13816.3
14654.1
15314.3
15764.6
15956.2
15857.8
15468.9
14768.9
13737.4
12369.2
10669.9
8648.24
6330.07
3757.28
976.664
-2160.38
-5150.02
-8120.85
-10976.4
-13596.8
-15861.4
-17644.4
-18835.4
-19344.7
-19119.2
-18304.8
-16933.1
-15128.8
-13046.8
-10846.8
-8634.15
-6479.16
-4563.82
-2977
-1702.23
-628.688
154.303
1305.63
2401.25
3571
4841.78
6188.15
7557.67
8897.01
10168
11349.4
12380.7
13179.8
13692.2
13888.7
13740.2
13280.1
12522.2
11486.1
10196.6
8679.42
6966.36
5094.06
3095.3
995.61
-1191.62
-3450.62
-5762.47
-8094.94
-10407.9
-12644.5
-14736
-16597.9
-18147
-19276.7
-19855.2
-19837.1
-19218.2
-17975.9
-16172.8
-13884.9
-11233.9
-8348.62
-5344.64
-2304.32
690.432
3451.11
6163.26
8605.82
10789.1
12673
14233.3
15446.5
16296.5
16781.6
16909.6
16738.8
16293
15609.2
4503.07
3246.32
1688.05
-537.063
-2463.94
-4395.9
-6321.76
-8195.03
-9948.56
-11500.7
-12752.6
-13568.6
-13965.5
-13861.6
-13236
-12100.5
-10510.1
-8583.61
-6386.18
-3391.95
-758.424
1776.94
4170.01
6364.36
8319.92
10001.9
11375
12414.3
13083.9
13432.2
13396
12946.9
12087.3
10824.4
9188.45
7235.8
5045.62
2888.65
288.438
-2323.04
-4864.34
-7267.34
-9470.34
-11423.7
-13094.7
-14468.7
-15543.4
-16305.9
-16736.2
-16859
-16657.9
-16122.3
-15248
-14043.1
-12530
-10750.1
-8765.28
-6648.6
-4482.34
-2368.58
-627.876
1243.43
3095.73
4812.58
6372.64
7799.6
9130.4
10392.5
11595.9
12729.1
13763.1
14660.4
15380.6
15885.9
16133.4
16085.5
15732.9
15071.2
14077.5
12740.5
11062.7
9051.83
6733.72
4151.76
1356.25
-1846.06
-4903.48
-7961.58
-10904.1
-13611.5
-15978.4
-17866.6
-19152.3
-19714.9
-19531.3
-18731.1
-17339.5
-15483.8
-13333.1
-11065.3
-8788.05
-6585.21
-4646.01
-3051.61
-1776.4
-736.164
86.186
1210.71
2283.2
3437.49
4704.37
6060.12
7450.42
8819.22
10126.1
11344.4
12418.9
13262.5
13816.4
14047.9
13925.7
13478.7
12724.5
11683.5
10382.2
8847.82
7114.81
5228.34
3218.2
1107.47
-1089.67
-3363.38
-5695.42
-8056.59
-10408.8
-12695.7
-14847.5
-16776.2
-18383.1
-19560.4
-20179.7
-20228
-19597.7
-18345.1
-16515.1
-14186.1
-11490.5
-8561.1
-5515.15
-2428.49
606.151
3400.89
6155.63
8638.83
10863.2
12785.8
14379.9
15617.7
16481.5
16968.4
17094.2
16903.8
16431.1
15715.3
5185.37
3896.08
2334.87
96.6255
-1881.96
-3894.23
-5927.93
-7934.92
-9844.42
-11568.4
-13002.8
-14002
-14562.7
-14595.9
-14074.6
-13005.6
-11442
-9502.22
-7304.36
-4249.24
-1540.77
1095.35
3605.06
5927.67
8020.61
9846.81
11368.1
12556.1
13370.2
13854.9
13939.5
13590
12805.5
11590.5
9973.53
8010.38
5777.89
3500.53
821.193
-1866.41
-4495.01
-6987.85
-9278.9
-11315.3
-13064.5
-14512.6
-15659.8
-16498.4
-16989
-17176.1
-17038
-16558.6
-15728.2
-14551.1
-13047.8
-11260
-9252.93
-7103.72
-4899.13
-2743.43
-970.707
963.345
2851.72
4583.99
6150.91
7587.03
8933.84
10222.5
11464.1
12646
13736.4
14693.9
15475
16037.8
16346.8
16359.2
16040.7
15421
14455.1
13136
11467.8
9456.26
7125.69
4522.06
1701.72
-1558.76
-4693.38
-7853.66
-10914.8
-13747.3
-16215.8
-18210.4
-19594.3
-20202.3
-20050
-19249.6
-17816.8
-15882.9
-13636.1
-11279.3
-8918.68
-6656.95
-4689.24
-3088.24
-1817.67
-823.846
42.509
1127.33
2167.28
3299.37
4560.08
5926.92
7342.49
8746.77
10097.3
11362.7
12489.1
13384.1
13984.2
14253
14156
13718.6
12962.6
11909.6
10587.9
9025.64
7270.77
5367.13
3342.49
1218.24
-991.25
-3281.51
-5636.29
-8030.37
-10428.2
-12774.8
-14998.7
-17012.6
-18687.2
-19926.8
-20605.5
-20711.8
-20074.2
-18807.1
-16939.3
-14554.9
-11802.7
-8817.81
-5718.34
-2573.38
510.749
3346.9
6153.79
8686.29
10960.7
12931.4
14566.6
15836.2
16713.8
17201
17332.3
17114
16605.9
15848.9
5884.64
4551.4
2975.43
730.655
-1301.79
-3398.99
-5547.01
-7695.22
-9768.83
-11674.1
-13303.9
-14502.1
-15229.5
-15403.2
-14988.3
-13984.8
-12444.1
-10490.2
-8263.97
-5127.8
-2334.62
413.803
3051.62
5513.39
7753.63
9732.54
11409.1
12751.2
13713.6
14333.3
14535.9
14281.1
13564.6
12388
10778.5
8791.45
6502.35
4096.95
1336.92
-1446.77
-4177.61
-6772.09
-9159.27
-11282.6
-13109.7
-14627.9
-15840.3
-16747.6
-17291.9
-17539.9
-17463.4
-17039.6
-16252.1
-15100
-13601.3
-11797.8
-9758.29
-7564.64
-5308.65
-3098.5
-1286.56
712.763
2637.61
4384.87
5958.88
7401.99
8761.97
10074.8
11353.1
12583.3
13730.7
14750
15594.2
16217.5
16590.6
16659
16386.6
15801.2
14863.1
13560.1
11898.1
9881.55
7533.34
4894.99
2029.45
-1283.9
-4507.18
-7784.19
-10981.8
-13962.9
-16575.9
-18689.6
-20154
-20812.5
-20685.7
-19872
-18376.5
-16335.4
-13963.9
-11496
-9032.44
-6700.12
-4697.16
-3088.37
-1825.28
-882.674
20.7327
1056.53
2053.28
3155.41
4406.2
5784.87
7229.55
8675.11
10077.5
11400.8
12588.6
13543.1
14195.2
14504.3
14432.1
14000.7
13236.8
12163.8
10809.1
9215.91
7434.9
5509.32
3466.46
1326.11
-898.305
-3206.66
-5586.31
-8016.92
-10466.3
-12881.3
-15189.2
-17301.4
-19067.1
-20381.4
-21141
-21332.9
-20651.1
-19362.6
-17445.7
-14991.9
-12177.7
-9125.79
-5958.42
-2739.51
406.219
3292.07
6161.22
8751.64
11085.2
13112.3
14796.9
16099.1
16995.1
17477.4
17627
17366.3
16813.7
16005.6
6612.19
5223.21
3620.55
1379.6
-709.413
-2897.65
-5168.72
-7467.96
-9716
-11813.6
-13650.4
-15123.5
-15974.8
-16292.8
-15989.1
-15052.4
-13531.8
-11560.4
-9284.99
-6051.63
-3161.63
-286.601
2493.36
5107.88
7508.25
9651.47
11493.5
12998.4
14116.2
14872.1
15192.5
15029.9
14376.5
13230.8
11618.9
9596.18
7237.38
4698.51
1844.45
-1053.72
-3902.97
-6612.99
-9106.62
-11322.2
-13228.2
-14813.5
-16084.7
-17046.3
-17642.9
-17950.7
-17936.3
-17569.7
-16826.1
-15698
-14200
-12373.4
-10291.9
-8042.04
-5721.38
-3443.48
-1584.07
484.741
2448.88
4212.27
5792.95
7240.68
8610.99
9945.43
11258.8
12536.7
13741.9
14825.2
15736.1
16424.3
16864.6
16986.1
16771.5
16217.1
15305.2
14016.8
12357.6
10331.3
7959.29
5280.36
2351.01
-1008.03
-4335.32
-7744.33
-11097.1
-14248.3
-17031.6
-19298.2
-20833.8
-21556
-21452.6
-20612.4
-19030.4
-16849.9
-14323.3
-11721.4
-9134.74
-6718.81
-4672.11
-3053.04
-1798.63
-905.656
21.0695
998.583
1940.45
3003.51
4239.02
5629.29
7106.49
8599.13
10061.9
11454.7
12714.9
13738
14449.2
14802.6
14755.4
14326.2
13548
12443.1
11050.1
9421.61
7608.51
5655.77
3590.79
1432
-809.622
-3136.91
-5542.95
-8013.19
-10519.6
-13012.4
-15416.8
-17638.8
-19524.7
-20928
-21765.4
-21966.3
-21328.7
-20018.3
-18039.6
-15505.6
-12614.4
-9482.9
-6238.51
-2931.4
289.53
3233.23
6174.58
8831.49
11233.3
13326.6
15067.6
16408
17328.3
17818.7
17962.6
17663.4
17057.6
16187.8
7374.6
5918.56
4277.43
2054.6
-94.1353
-2381.02
-4786.04
-7247.93
-9682
-11983.6
-14032.6
-15796.6
-16800.7
-17271.1
-17086.7
-16220.4
-14718.2
-12722.3
-10381
-7043.31
-4039.84
-1021.03
1917.35
4700.63
7276.54
9598.24
11618.4
13297.3
14579.7
15475.5
15915.1
15843.8
15250
14129.1
12506.3
10437.1
7996.32
5318.3
2351.67
-680.003
-3665.49
-6507.22
-9119.93
-11434.3
-13421
-15070.8
-16395.2
-17391
-18041
-18408.2
-18457.4
-18151.6
-17455
-16351.8
-14851.9
-12995.3
-10862.6
-8544.46
-6145.3
-3785.42
-1868.5
275.791
2283.71
4064.69
5651.39
7101.34
8478.99
9832.2
11178.3
12502.8
13766.5
14916.4
15898.7
16659.3
17169.2
17354
17188.9
16668.5
15783.9
14509.2
12850.3
10809.9
8408.37
5681.2
2664.48
-712.308
-4171.05
-7727.5
-11254.8
-14599.1
-17576.8
-20021
-21656.2
-22450.8
-22370.5
-21487.4
-19791.4
-17433.9
-14721.5
-11960.9
-9230.18
-6715.37
-4614.85
-2982.03
-1734.89
-886.424
46.4225
955.017
1828.31
2840.79
4054.81
5455.25
6968.04
8513.72
10046
11521
12865.4
13967.7
14746
15148.5
15127.3
14696.3
13894.5
12749.4
11314.2
9643.63
7791.7
5806.06
3714.83
1535.2
-724.804
-3071.4
-5504.62
-8016.88
-10585.4
-13165
-15679.7
-18026.4
-20060
-21578.8
-22508.5
-22738.8
-22122.6
-20781.6
-18724.9
-16098.1
-13112.8
-9887.92
-6554.73
-3153.55
159.294
3169.4
6192.94
8924.86
11404.3
13574.7
15376.7
16764.4
17712.6
18227.6
18338.3
18004.6
17336.5
16393.8
8172.12
6643.73
4952.89
2765.42
553.316
-1841.61
-4394.09
-7031.89
-9664.2
-12182.6
-14448.2
-16414.1
-17691.5
-18341.8
-18290.1
-17499.4
-16017.5
-13984.4
-11556.7
-8129.97
-4985.82
-1802.96
1312.15
4282.59
7052.04
9568.88
11782.1
13648.1
15106.5
16147.2
16708.7
16728.7
16191.9
15090.8
13449.6
11324.2
8789.69
5965.81
2866.06
-320.121
-3461.52
-6453.89
-9201.01
-11621.3
-13691.1
-15401.9
-16775.3
-17784.6
-18485.8
-18911
-19026.2
-18787.3
-18143
-17067.6
-15564.4
-13671
-11478.2
-9079.58
-6587.29
-4130.22
-2142.79
84.4796
2141.63
3941.79
5533.99
6983.83
8365.55
9733.97
11109.5
12478.5
13800.8
15020.3
16079.3
16920.3
17504.6
17757.3
17648.7
17154.8
16300.6
15040.3
13379.5
11320.8
8884.42
6103.71
3005.39
-421.784
-4010.86
-7728.3
-11450.4
-15012.8
-18209.4
-20876.9
-22657.5
-23525.8
-23469
-22516.7
-20673.8
-18094.4
-15167.3
-12221.2
-9322.51
-6690.9
-4525.13
-2874.99
-1664.62
-784.784
102.589
927.946
1717.98
2668.21
3849.58
5257.17
6808.3
8413.39
10025
11596
13037.7
14230.9
15085.5
15542.9
15549.4
15110.2
14275.9
13087
11602.7
9882.27
7984.05
5959.33
3837.52
1634.83
-643.945
-3009.28
-5469.56
-8025.3
-10660.4
-13336
-15975.9
-18464.3
-20671.6
-22334.1
-23348.7
-23626.8
-23045.4
-21658.8
-19506
-16769.9
-13675.6
-10342.7
-6907.91
-3404.62
13.4272
3098.88
6214.11
9029.32
11596.2
13854
15724.1
17168.3
18147.9
18691.5
18774
18395.5
17653
16624.5
8994.12
7404.21
5659.96
3521.81
1241.93
-1272.83
-3989.73
-6818.3
-9661.02
-12410.4
-14911
-17114.4
-18656.2
-19509.8
-19608.2
-18899.9
-17445.6
-15358.2
-12791.9
-9360.7
-6014.86
-2645.19
666.707
3845.3
6829.08
9560.35
11983.6
14051.6
15699.4
16891.2
17577.6
17689.5
17208.1
16122.5
14456.6
12266.2
9626.62
6649.13
3394.84
30.4344
-3288.52
-6453.86
-9354.17
-11887.6
-14043.3
-15810
-17227.3
-18225.4
-18976.5
-19456.7
-19640.5
-19477.7
-18893.7
-17851.4
-16345.2
-14408.1
-12146.9
-9654.99
-7053.8
-4483.75
-2407.84
-89.407
2022.49
3844.32
5441.96
6889.56
8271.62
9650.55
11050.5
12460.6
13841
15133.1
16274.3
17204
17872
18262.4
18160.5
17676.1
16856.9
15612.5
13948
11867
9390.61
6552.01
3372.35
-127.897
-3850.23
-7741.64
-11679.9
-15488.3
-18928
-21870.7
-23869.1
-24825.2
-24786.1
-23720.9
-21693.6
-18837.1
-15673
-12510.7
-9414.18
-6645.54
-4401.62
-2729.19
-1543.19
-630.117
193.673
920.518
1610.56
2482.5
3617.43
5028.48
6620.48
8292.02
9993.89
11675.9
13228.9
14526.2
15467.6
15986.3
16022.8
15566.5
14696.4
13458.1
11916.3
10137.2
8184.65
6114.14
3957.22
1729.27
-567.245
-2949.92
-5435.98
-8035.59
-10740.6
-13521.4
-16302.9
-18952.6
-21362.3
-23218.7
-24372.6
-24749.2
-24096.5
-22663.4
-20388.8
-17523.4
-14305.1
-10848.9
-7299.37
-3684.07
-150.774
3020.31
6235.93
9142.63
11807
14161.8
16109.8
17619.6
18633.4
19217.5
19263.9
18835.3
18005.8
16877.9
9820.74
8187.94
6435.75
4334.6
1981.28
-668.58
-3571.75
-6607.41
-9671.5
-12666.9
-15421.7
-17891.9
-19688.5
-20780.2
-21050.9
-20432.9
-19012.4
-16867.7
-14151.1
-10701.6
-7136.82
-3560.41
-30.4526
3380.32
6602.48
9570.41
12223.1
14508.4
16362.5
17711.6
18525.9
18730.6
18303.1
17229.8
15533.8
13270.9
10515.5
7375.88
3945.55
375.451
-3144.45
-6509.18
-9586.37
-12239.1
-14484.3
-16299.7
-17728.8
-18726.4
-19512.3
-20041
-20295.9
-20223.3
-19710.7
-18709.4
-17202.9
-15213.9
-12877.5
-10278.6
-7551.13
-4851.76
-2663.51
-245.919
1925.46
3774.77
5378.05
6821.49
8199.41
9582.69
11000
12445.7
13882.8
15250
16479.5
17506.4
18267.7
18723.3
18728.2
18225.8
17454.6
16228.6
14558.5
12450.9
9929.32
7028.6
3764.95
175.215
-3684.04
-7762.17
-11939
-16025.4
-19730.2
-23003.2
-25325.8
-26453.7
-26396.8
-25114.6
-22868.9
-19666.3
-16252.5
-12836
-9506.24
-6578.83
-4242.91
-2544.51
-1351.27
-419.99
325.133
935.346
1504.77
2279.36
3353.06
4761.55
6396.66
8142.75
9947.24
11756
13435.5
14851.8
15891.8
16478.4
16543.1
16067.8
15158.8
13863.8
12255.2
10408
8392.14
6268.55
4071.76
1816.72
-495.738
-2892.85
-5401.97
-8044.39
-10821.3
-13715.9
-16657.6
-19492.4
-22134.5
-24211.5
-25444.9
-25880.7
-25354.5
-23800.3
-21382.8
-18361
-15004.9
-11407.9
-7730.23
-3993.56
-337.268
2932.16
6255.55
9261.91
12033.6
14495.3
16532.6
18117.8
19168.8
19808.1
19812.5
19330.2
18400
17157.3
10630.9
8999.32
7302.81
5216.01
2782.25
-22.9766
-3141.35
-6401.53
-9695.04
-12951.9
-15975.3
-18731.7
-20785.3
-22159
-22629.8
-22125.1
-20724.4
-18528.3
-15660.7
-12162.6
-8362.98
-4562.37
-791.985
2878.89
6367.32
9597.66
12501.8
15018.3
17102.4
18613.1
19557.7
19855.9
19481
18417.2
16687
14345.8
11464.8
8153.8
4526.98
717.932
-3027.19
-6622.51
-9907.94
-12682.9
-15023.2
-16875.3
-18268
-19288.7
-20090.5
-20657.3
-20985.3
-21024.2
-20597.1
-19647.7
-18147.9
-16095.8
-13680.3
-10959
-8085.29
-5229.66
-2920.56
-389.376
1854.04
3737.48
5346.67
6784.44
8152.4
9532.04
10956.4
12430
13921.2
15365.6
16689.5
17823
18691.3
19225.1
19324.4
18836.5
18096.4
16891
15213.5
13074.6
10502.3
7535.09
4183.38
491.384
-3506.72
-7783.88
-12223
-16625.1
-20610.5
-24267.4
-26992.6
-28352.1
-28287.7
-26723.4
-24221.1
-20584.7
-16911.3
-13196
-9598.65
-6490.02
-4048.22
-2325.31
-1066
-148.831
502.117
975.738
1402.86
2057.97
3052.71
4447.26
6127.43
7957.65
9879.37
11830.2
13653.1
15205.4
16357.3
17018.7
17108.7
16617.2
15665.1
14304.9
12619.1
10693.2
8604.42
6419.87
4178.27
1894.66
-430.821
-2837.74
-5365.72
-8048.51
-10898
-13914.7
-17035.6
-20084.8
-22977.7
-25341.5
-26906.3
-27471.1
-26643.9
-25088.3
-22500.1
-19285.2
-15778.4
-12021
-8201.3
-4335.95
-551.648
2833.15
6269.81
9384.05
12272.7
14851.9
16990.9
18662.3
19749.6
20462.3
20421.5
19876
18829.5
17452.7
11398.9
9847.87
8274.01
6183.27
3655.35
667.503
-2704.81
-6206.92
-9731.67
-13265.6
-16565
-19605.1
-21973.4
-23635.8
-24357.2
-23981.4
-22627.9
-20366.2
-17340.2
-13760.9
-9713.44
-5672.87
-1637.62
2327.76
6116.27
9640.15
12822.6
15578.7
17931.1
19600.3
20675.6
21066.8
20742.2
19684.6
17916.9
15493.6
12477.7
8985.73
5145.54
1055.41
-2937.02
-6799.26
-10335.5
-13227.9
-15676.3
-17503.9
-18880
-19899.1
-20707.1
-21296.7
-21697
-21880.6
-21556.7
-20672.5
-19195
-17063.2
-14570.2
-11708.6
-8665.36
-5656.81
-3154.65
-514.58
1804.53
3737.99
5351.76
6785.29
8135.31
9501.54
10919.7
12410.2
13949.9
15472.6
16896.8
18147
19135.3
19767.6
19943.5
19525.3
18785
17601.8
15914.9
13738.8
11109
8070.62
4622.49
823.812
-3313.56
-7800.72
-12526.3
-17291.1
-21555.4
-25653.3
-29016.8
-31766.9
-30482.7
-28260.6
-25789.1
-21594.5
-17658.8
-13589.8
-9691.22
-6379.46
-3818.09
-2038.41
-697.778
191.872
734.015
1048.5
1308.27
1818.76
2708.94
4073.22
5801.28
7727.17
9783.07
11889.8
13874.2
15581.8
16861.3
17605.5
17717.6
17217.5
16217.7
14783.7
13009.7
10993.9
8821.17
6566.21
4273.77
1959.83
-374.509
-2784.63
-5324.32
-8041.86
-10961
-14105.2
-17433.8
-20718.1
-23911.7
-26692.7
-28063.6
-28680.4
-28420.4
-26556.5
-23759.3
-20298.7
-16632.5
-12691.9
-8715.47
-4715.66
-796.388
2722.19
6274.88
9505.32
12519.8
15227.3
17481.9
19250.9
20362.1
21184.3
21100.4
20484.4
19308.3
17781.8
11845.2
10424.8
8961.2
6890.05
4277.62
1149.37
-2424.78
-6098.53
-9773
-13507.7
-16991.6
-20226.9
-22858.6
-24743.9
-25631.6
-25348.9
-24047.1
-21742.1
-18583
-14919.9
-10696.3
-6485.34
-2256.53
1931.93
5944.25
9685.08
13073.4
15978.7
18561.3
20317.1
21478.4
21928.1
21630.9
20569.8
18768.9
16283.8
13166.7
9543.66
5554.88
1241.35
-2919.61
-6980.9
-10718.2
-13671.1
-16161.2
-17988.1
-19349.9
-20345.4
-21145.1
-21739.2
-22188.6
-22509.4
-22268.3
-21432.3
-19987
-17775.4
-15234.8
-12259.1
-9078.94
-5958.54
-3304.78
-581.472
1783.05
3753.55
5384.98
6798.57
8132.55
9486.21
10892.1
12389.6
13962.4
15541.6
17039.2
18376.4
19454.7
20165.2
20400.9
20044.9
19272.9
18105.1
16405.9
14195.1
11516.9
8424.23
4901.29
1025.5
-3203.99
-7840.74
-12775.5
-17825.7
-22295.4
-26574.7
-15587.5
-363.021
-1470.88
-18878.4
-26855.3
-22340
-18225.1
-13866.8
-9751.35
-6283.49
-3633.3
-1783.66
-395.92
464.97
918.792
1106.77
1235.14
1632.29
2432.78
3769.53
5534.43
7537.62
9697.42
11921.6
14029.9
15857.2
17233.2
18035.5
18161.6
17657.3
16618
15122.7
13277.4
11192.2
8956.21
6649.69
4321.68
1988.29
-349.719
-2752.97
-5296.84
-8036.07
-11001.7
-14238.3
-17717.3
-21197.8
-24612.7
-27433.3
-28921.9
-27103.4
-27353.2
-27340.1
-24704.2
-21039.4
-17263.3
-13177.7
-9086.37
-4994.15
-980.154
2637.99
6268.19
9583.4
12688.1
15491.6
17835
19681.5
20798.8
21730.9
21602.3
20931.2
19652.2
18004.4
12065.5
10733
9331.88
7275.13
4613.8
1408.06
-2279.78
-6045.32
-9795.96
-13639.8
-17219.6
-20556.2
-23333.7
-25346.8
-26320.1
-26083.8
-24810.8
-22482.6
-19246
-15533.1
-11215.8
-6915.21
-2583.77
1724.91
5856.62
9712.9
13211.9
16213.2
18883
20701.1
21908.4
22389.2
22106.9
21044.3
19226.3
16709.3
13538.3
9844.92
5778.27
1337.78
-2911.89
-7083.23
-10935.7
-13916.3
-16419.1
-18256.6
-19603.5
-20585.8
-21377.6
-21970.7
-22445.6
-22848.5
-22653
-21840.7
-20417.8
-18156.3
-15592.8
-12552.4
-9295.46
-6115.03
-3380.24
-612.609
1778.04
3766.87
5406.12
6812.35
8132.61
9479.46
10876
12376.9
13967.5
15576.9
17114
18498.1
19625.2
20378.7
20647
20327.6
19533
18374.8
16669.5
14440.2
11736.3
8615.43
5052.56
1136.04
-3140.4
-7857.06
-12904.8
-18134.6
-22623.7
-12750.4
1168.46
995.051
707.23
-37.7807
-18241.7
-22750.1
-18536
-14014.4
-9782.68
-6228.2
-3530.48
-1636.16
-227.308
616.37
1021.06
1138.56
1195.11
1529.46
2279.58
3600.29
5385.23
7431.42
9648.24
11936.5
14112.5
16005.2
17433.2
18266.7
18399.5
17893.8
16833.1
15304.4
13420.3
11297.4
9027.15
6692.64
4345.52
2001.89
-337.602
-2735.72
-5279.43
-8029.41
-11018.8
-14302.9
-17868.5
-21450.7
-24684.2
-19401.6
-4424.97
-710.547
-4648.25
-17295.9
-24474.9
-21442.9
-17603.2
-13438.6
-9285.62
-5145.19
-1080.63
2592.48
6262.75
9623.5
12776.3
15632
18023.3
19913.3
21058.3
22003.7
21872
21172.2
19837.6
18121.9
12277
11055.8
9722.31
7682.78
4966.46
1677.51
-2134.55
-5994.4
-9818.16
-13775.8
-17450.9
-20886
-23817.1
-25964
-27035.2
-26838.3
-25599.4
-23249
-19926.7
-16158.6
-11746.8
-7355.77
-2919.65
1514.36
5769.16
9744.28
13358.4
16477.1
19198.2
21096.4
22351.6
22864.8
22598.5
21535.5
19701.9
17154.9
13929.7
10164.2
6020.17
1439.62
-2899.98
-7189.74
-11171.2
-14174.6
-16686
-18535.1
-19867.4
-20835.3
-21614.5
-22200.7
-22700.8
-23198.1
-23050.4
-22259.2
-20867.4
-18546.8
-15964.1
-12853.2
-9514.35
-6272.43
-3454.38
-641.102
1778.91
3787.43
5432.48
6835.25
8139.57
9475.91
10861.4
12361.8
13969.9
15609.7
17186.9
18619.3
19797.2
20596.2
20899.7
20620.8
19799.3
18653.2
16943.3
14695.7
11966.4
8818.07
5214.74
1257.52
-3063.73
-7861.65
-13032.9
-18418.7
-15834.9
1504.19
1333.21
997.09
684.374
315.317
-1942.39
-20797.4
-18863.8
-14166.7
-9814.63
-6169.09
-3421.04
-1474.81
-46.5198
778.709
1131.99
1175.19
1156.24
1423.11
2118.32
3419.92
5225.36
7317.02
9593.23
11947.8
14194.2
16155.4
17637.2
18503.3
18643.9
18137.6
17055.3
15492.6
13568.6
11406.8
9100.61
6736.38
4368.95
2014.56
-325.832
-2717.65
-5258.06
-8017.22
-11029.2
-14360.1
-18035.2
-21419.5
-16280.8
-1283.97
128.167
93.137
-27.7297
-1591.43
-13393.6
-21527.8
-17956
-13707.4
-9491.36
-5303.1
-1186.38
2545.77
6255.51
9662.99
12864.5
15773.6
18214.9
20151.6
21345.7
22278.6
22150.4
21422.5
20030.8
18247.1
12476.7
11391.3
10129.5
8109.64
5332.25
1955.01
-1992.4
-5948.11
-9840.28
-13916.6
-17685.5
-21216.5
-24309.4
-26597.8
-27778.5
-27614.8
-26418.4
-24048
-20631.4
-16803.7
-12296.7
-7814.37
-3270.63
1295.82
5679.02
9777.72
13512.3
16750.4
19527.9
21502.8
22806.6
23351.7
23101.2
22037.3
20187.9
17612
14331.5
10491.9
6272.65
1538.19
-2889.43
-7304.77
-11432.2
-14440.4
-13593.6
-11046.9
-11880.1
-14495
-17665.9
-20738.3
-22827.9
-23450.1
-23373.3
-22687.9
-21340.8
-18950.2
-16352.4
-13164
-9737.94
-6433.47
-3529.66
-669.067
1783.68
3814.38
5466.18
6862.94
8154.28
9474.94
10848.4
12343
13969
15639.3
17257.3
18739.4
19970.5
20817.7
21159.2
20924.8
20069.7
18938.2
17223.4
14956.5
12200.3
9024.32
5378.91
1380.18
-2983.22
-7864.63
-13167.5
-17809.1
-739.746
1795.96
1332.27
989.857
680.597
340.346
-122.634
-8227.86
-19209.3
-14322.6
-9847.44
-6107.16
-3304.73
-1300.78
146.223
951.944
1251.46
1216.37
1117.71
1313.02
1948.13
3227.3
5053.88
7193.65
9531.55
11954.8
14274.4
16307.3
17845.1
18745.3
18894.6
18388.5
17283.6
15685.3
13719.4
11517
9173.24
6777.87
4389.45
2024.12
-316.314
-2700.71
-5235.48
-8002.28
-11035
-14422.6
-18084.3
-16769.6
-1329.37
170.04
129.494
91.3373
34.5259
-54.873
-1415.52
-14067.6
-18318.8
-13983.6
-9702.13
-5466.87
-1296.4
2497.49
6245.59
9701.04
12951.9
15916
18409.3
20396.1
21635
22567.5
22436.7
21680.4
20229.3
18373.1
12664.3
11741.6
10554.8
8556.79
5711.63
2241.06
-1854.49
-5907.34
-9861.78
-14062.4
-17923.1
-21548.2
-24810.9
-27249.8
-28552.3
-28412.6
-27269.9
-24881.6
-21360.5
-17469.1
-12866.4
-8292.15
-3637.88
1068.82
5586.02
9813.18
13673.7
17035.5
19871.4
21920.9
23273.3
23850.1
23614.9
22549.8
20684.4
18080.8
14744
10828
6537.47
1632.47
-2881.6
-7434.75
-8311.73
2236.92
5870.62
4565.56
3320.94
2188.38
1178.7
357.241
-1443.06
-5738.6
-11829.2
-20095.4
-21717.7
-19368.8
-16759
-13484.1
-9965.97
-6598.4
-3606.34
-696.676
1792.18
3848.19
5507.7
6898.25
8174.3
9475.88
10834.8
12323.1
13964.1
15665.1
17324.5
18857.9
20144.4
21042.8
21425.5
21240.1
20343.5
19229.7
17510
15222.4
12438.1
9234.27
5545.03
1503.77
-2898.11
-7870.77
-13269.4
-7865.52
2208.08
1774.54
1326.89
986.144
669.934
320.566
-52.5392
-836.591
-16498
-14476.5
-9881.47
-6042.61
-3180.21
-1114.17
351.356
1136.54
1379.81
1262.38
1079.43
1199.08
1768.52
3021.47
4869.94
7060.57
9462.56
11956.8
14352.4
16460.6
18056.3
18992.7
19151.9
18646.5
17518.1
15882.4
13872.6
11628
9244.91
6817.01
4406.95
2030.44
-308.95
-2684.61
-5212.17
-7982.9
-11035.4
-14475
-16657.8
-2818.55
216.632
168.431
125.346
89.5096
34.662
-21.2746
-117.381
-2193.02
-15509.1
-14265.1
-9917.3
-5636.96
-1410.99
2447.48
6232.52
9737.29
13038.1
16058.6
18606.2
20646.3
21930
22863.7
22731.5
21946.8
20433.7
18500.9
12839.8
12109.3
10999.6
9025.53
6104.96
2536.28
-1722.21
-5873.09
-9881.85
-14214.2
-18164.3
-21883.3
-25314.2
-27852.6
-29282.7
-29231.7
-28156.2
-25751.7
-22114.6
-18155.3
-13457.1
-8790.36
-4022.75
832.82
5489.98
9850.58
13842.5
17334.3
20228.4
22351.1
23752.1
24359.9
24139.7
23072.9
21191.4
18562
15167.6
11172.5
6816.78
1719.08
-2877.17
-3376.36
7549.65
7244.94
5894.01
4568.54
3329.36
2201.12
1190.01
340.842
-628.351
-1701.86
-2492.66
-3776.44
-14145
-19601.8
-17187.4
-13812.6
-10198.3
-6767.66
-3684.73
-724.275
1804.23
3889.33
5557.65
6941.55
8199.85
9481.02
10821.1
12301.9
13954.9
15686.7
17388
18974.2
20318.7
21271.1
21698.6
21568.1
20618.7
19528
17803.3
15493.4
12679.5
9448.06
5713.05
1627.95
-2809.88
-7860.04
-11287.8
1952.25
2170.79
1763.06
1322.08
980.33
663.15
320.39
-49.174
-490.342
-5883.6
-14627.2
-9917.13
-5975.73
-3046.24
-915.046
569.243
1332.9
1517.33
1313.28
1041.07
1081.08
1578.71
2801.33
4672.64
6916.96
9385.56
11953.3
14427.7
16614.8
18270.3
19245.7
19415.8
18911.8
17758.7
16084
14027.9
11739.5
9315.59
6853.69
4421.35
2033.25
-303.695
-2669.26
-5188.49
-7957.61
-11052.8
-14106.5
-6050.16
250.546
213.609
166.517
124.485
85.9752
32.7461
-19.7616
-65.3682
-287.038
-4996.57
-14078.3
-10143.2
-5814.14
-1530.07
2395.7
6215.87
9771.44
13122.5
16201.2
18805.1
20902
22230.5
23168.3
23034.5
22221.4
20643.5
18628.9
13004
12497.5
11465.5
9517.79
6512.79
2841.67
-1597.05
-5846.78
-9900.55
-13080.5
-10616.3
-8949.74
-9719.05
-13568.3
-21080.1
-28928.3
-29082.5
-26660
-22893.3
-18862.4
-14068.9
-9309.65
-4426.22
587.769
5391.03
9889.99
14018.6
17649
20598.2
22793.9
24243.2
24881.4
24675.9
23606.8
21709.3
19056.6
15603.6
11526.1
7113.44
1794.86
-907.463
8930.43
8571.57
7181.12
5838.37
4535.63
3314.97
2200.97
1197.13
340.674
-597.465
-1657.53
-2461.54
-3327.59
-4154.52
-11906.1
-17523.6
-14149
-10434.5
-6941.56
-3764.95
-752.082
1819.89
3938.45
5616.72
6993.17
8231.27
9491.13
10806.8
12276.2
13941
15703.7
17447.1
19087.7
20492.6
21502.2
21977.7
21884.1
20920.6
19833.8
18103.6
15770
12924.9
9666.16
5883.27
1752.71
-2717.07
-7857.42
-2847.71
2632.58
2160.66
1746.1
1315.97
974.962
655.394
313.978
-48.5248
-421.359
-1061.48
-12701
-9954.53
-5906.68
-2901.5
-703.333
800.289
1541.42
1664.21
1369.03
1001.75
957.52
1381.47
2563.65
4461.01
6761.92
9299.88
11943.7
14499.8
16769.5
18486.8
19504.1
19686.5
19184.5
18005.5
16289.9
14185.5
11851.7
9385.18
6887.75
4432.56
2032.24
-300.558
-2654.54
-5161.71
-7942.63
-10880.2
-8694.16
199.066
258.656
211.887
164.333
121.749
83.9554
31.7796
-19.8807
-64.0986
-115.576
-544.636
-8687.74
-10369.9
-6001.15
-1654.41
2342.26
6195.36
9803.26
13204.9
16343.2
19005.8
21163
22537.4
23481.7
23346.2
22504.4
20858.7
18759.7
13163.3
12924.3
11971.4
10053.9
6950.18
3169.38
-1478.13
-4857.59
-1871.64
25.2726
-2507.49
-5299.83
-8295.03
-11348.3
-14121.9
-18412.7
-28187.3
-27644.7
-23726.1
-19616.8
-14725.8
-9870.95
-4865.34
324.054
5285.32
9932.73
14208.7
17993.7
20993.8
23265.8
24764.7
25433.4
25242.8
24170.9
22256.7
19583.2
16068.4
11901.1
7438.62
1926.81
8855.19
10093.7
8476.08
7111.96
5787.2
4504.36
3301.63
2200.77
1203.94
338.675
-595.293
-1619.97
-2423.39
-3262.27
-4070.23
-4838.72
-12481.1
-14542.1
-10683.3
-7127.26
-3850.4