/*--------------------------------*- C++ -*----------------------------------*\
| =========                 |                                                 |
| \\      /  F ield         | OpenFOAM: The Open Source CFD Toolbox           |
|  \\    /   O peration     | Version:  v1912                                 |
|   \\  /    A nd           | Website:  www.openfoam.com                      |
|    \\/     M anipulation  |                                                 |
\*---------------------------------------------------------------------------*/
FoamFile
{
    version     2.0;
    format      ascii;
    class       volScalarField;
    location    "90";
    object      alpha.water;
}
// * * * * * * * * * * * * * * * * * * * * * * * * * * * * * * * * * * * * * //

dimensions      [0 0 0 0 0 0 0];


internalField   nonuniform List<scalar> 
14268
(
1
1
1
1
1
1
1
1
1
1
1
1
1
1
1
1
1
1
1
1
1
1
1
1
1
1
1
1
1
1
1
1
1
1
1
1
1
1
1
1
1
1
1
1
1
1
1
1
1
1
1
1
1
1
1
1
1
1
1
1
1
1
1
1
1
1
1
1
1
1
1
1
1
1
1
1
1
1
1
1
1
1
1
1
1
1
1
1
1
1
1
1
1
1
1
1
1
1
1
1
1
1
1
1
1
1
1
1
1
1
1
1
1
1
1
1
1
1
1
1
1
1
1
1
1
1
1
1
1
1
1
1
1
1
1
1
1
1
1
1
1
1
1
1
1
1
1
1
1
1
1
1
1
1
1
1
1
1
1
1
1
1
1
1
1
1
1
1
1
1
1
1
1
1
1
1
1
1
1
1
1
1
1
1
1
1
1
1
1
1
1
1
1
1
1
1
1
1
1
1
1
1
1
1
1
1
1
1
1
1
1
1
1
1
1
1
1
1
1
1
1
1
1
1
1
1
1
1
1
1
1
1
1
1
1
1
1
1
1
1
1
1
1
1
1
1
1
1
1
1
1
1
1
1
1
1
1
1
1
1
1
1
1
1
1
1
1
1
1
1
1
1
1
1
1
1
1
1
1
1
1
1
1
1
1
1
1
1
1
1
1
1
1
1
1
1
1
1
1
1
1
1
1
1
1
1
1
1
1
1
1
1
1
1
1
1
1
1
1
1
1
1
1
1
1
1
1
1
1
1
1
1
1
1
1
1
1
1
1
1
1
1
1
1
1
1
1
1
1
1
1
1
1
1
1
1
1
1
1
1
1
1
1
1
1
1
1
1
1
1
1
1
1
1
1
1
1
1
1
1
1
1
1
1
1
1
1
1
1
1
1
1
1
1
1
1
1
1
1
1
1
1
1
1
1
1
1
1
1
1
1
1
1
1
1
1
1
1
1
1
1
1
1
1
1
1
1
1
1
1
1
1
1
1
1
1
1
1
1
1
1
1
1
1
1
1
1
1
1
1
1
1
1
1
1
1
1
1
1
1
1
1
1
1
1
1
1
1
1
1
1
1
1
1
1
1
1
1
1
1
1
1
1
1
1
1
1
1
1
1
1
1
1
1
1
1
1
1
1
1
1
1
1
1
1
1
1
1
1
1
1
1
1
1
1
1
1
1
1
1
1
1
1
1
1
1
1
1
1
1
1
1
1
1
1
1
1
1
1
1
1
1
1
1
1
1
1
1
1
1
1
1
1
1
1
1
1
1
1
1
1
1
1
1
1
1
1
1
1
1
1
1
1
1
1
1
1
1
1
1
1
1
1
1
1
1
1
1
1
1
1
1
1
1
1
1
1
1
1
1
1
1
1
1
1
1
1
1
1
1
1
1
1
1
1
1
1
1
1
1
1
1
1
1
1
1
1
1
1
1
1
1
1
1
1
1
1
1
1
1
1
1
1
1
1
1
1
1
1
1
1
1
1
1
1
1
1
1
1
1
1
1
1
1
1
1
1
1
1
1
1
1
1
1
1
1
1
1
1
1
1
1
1
1
1
1
1
1
1
1
1
1
1
1
1
1
1
1
1
1
1
1
1
1
1
1
1
1
1
1
1
1
1
1
1
1
1
1
1
1
1
1
1
1
1
1
1
1
1
1
1
1
1
1
1
1
1
1
1
1
1
1
1
1
1
1
1
1
1
1
1
1
1
1
1
1
1
1
1
1
1
1
1
1
1
1
1
1
1
1
1
1
1
1
1
1
1
1
1
1
1
1
1
1
1
1
1
1
1
1
1
1
1
1
1
1
1
1
1
1
1
1
1
1
1
1
1
1
1
1
1
1
1
1
1
1
1
1
1
1
1
1
1
1
1
1
1
1
1
1
1
1
1
1
1
1
1
1
1
1
1
1
1
1
1
1
1
1
1
1
1
1
1
1
1
1
1
1
1
1
1
1
1
1
1
1
1
1
1
1
1
1
1
1
1
1
1
1
1
1
1
1
1
1
1
1
1
1
1
1
1
1
1
1
1
1
1
1
1
1
1
1
1
1
1
1
1
1
1
1
1
1
1
1
1
1
1
1
1
1
1
1
1
1
1
1
1
1
1
1
1
1
1
1
1
1
1
1
1
1
1
1
1
1
1
1
1
1
1
1
1
1
1
1
1
1
1
1
1
1
1
1
1
1
1
1
1
1
1
1
1
1
1
1
1
1
1
1
1
1
1
1
1
1
1
1
1
1
1
1
1
1
1
1
1
1
1
1
1
1
1
1
1
1
1
1
1
1
1
1
1
1
1
1
1
1
1
1
1
1
1
1
1
1
1
1
1
1
1
1
1
1
1
1
1
1
1
1
1
1
1
1
1
1
1
1
1
1
1
1
1
1
1
1
1
1
1
1
1
1
1
1
1
1
1
1
1
1
1
1
1
1
1
1
1
1
1
1
1
1
1
1
1
1
1
1
1
1
1
1
1
1
1
1
1
1
1
1
1
1
1
1
1
1
1
1
1
1
1
1
1
1
1
1
1
1
1
1
1
1
1
1
1
1
1
1
1
1
1
1
1
1
1
1
1
1
1
1
1
1
1
1
1
1
1
1
1
1
1
1
1
1
1
1
1
1
1
1
1
1
1
1
1
1
1
1
1
1
1
1
1
1
1
1
1
1
1
1
1
1
1
1
1
1
1
1
1
1
1
1
1
1
1
1
1
1
1
1
1
1
1
1
1
1
1
1
1
1
1
1
1
1
1
1
1
1
1
1
1
1
1
1
1
1
1
1
1
1
1
1
1
1
1
1
1
1
1
1
1
1
1
1
1
1
1
1
1
1
1
1
1
1
1
1
1
1
1
1
1
1
1
1
1
1
1
1
1
1
1
1
1
1
1
1
1
1
1
1
1
1
1
1
1
1
1
1
1
1
1
1
1
1
1
1
1
1
1
1
1
1
1
1
1
1
1
1
1
1
1
1
1
1
1
1
1
1
1
1
1
1
1
1
1
1
1
1
1
1
1
1
1
1
1
1
1
1
1
1
1
1
1
1
1
1
1
1
1
1
1
1
1
1
1
1
1
1
1
1
1
1
1
1
1
1
1
1
1
1
1
1
1
1
1
1
1
1
1
1
1
1
1
1
1
1
1
1
1
1
1
1
1
1
1
1
1
1
1
1
1
1
1
1
1
1
1
1
1
1
1
1
1
1
1
1
1
1
1
1
1
1
1
1
1
1
1
1
1
1
1
1
1
1
1
1
1
1
1
1
1
1
1
1
1
1
1
1
1
1
1
1
1
1
1
1
1
1
1
1
1
1
1
1
1
1
1
1
1
1
1
1
1
1
1
1
1
1
1
1
1
1
1
1
1
1
1
1
1
1
1
1
1
1
1
1
1
1
1
1
1
1
1
1
1
1
1
1
1
1
1
1
1
1
1
1
1
1
1
1
1
1
1
1
1
1
1
1
1
1
1
1
1
1
1
1
1
1
1
1
1
1
1
1
1
1
1
1
1
1
1
1
1
1
1
1
1
1
1
1
1
1
1
1
1
1
1
1
1
1
1
1
1
1
1
1
1
1
1
1
1
1
1
1
1
1
1
1
1
1
1
1
1
1
1
1
1
1
1
1
1
1
1
1
1
1
1
1
1
1
1
1
1
1
1
1
1
1
1
1
1
1
1
1
1
1
0.999999
0.999998
0.999997
0.999995
0.999996
0.999997
0.999998
0.999999
0.999999
0.999999
1
1
1
1
1
1
1
1
1
1
1
1
1
1
1
1
1
1
1
1
1
1
1
1
1
1
1
1
1
1
1
1
1
1
1
1
1
1
1
1
1
1
1
1
1
1
1
1
1
1
1
1
1
1
1
1
1
1
1
1
1
1
1
1
1
1
1
1
1
1
1
1
1
1
0.999999
0.999999
0.999998
0.999996
0.999992
0.999988
0.999989
0.999993
0.999997
0.999998
0.999998
0.999998
1
1
1
1
1
1
1
1
1
1
1
1
1
1
1
1
1
1
1
1
1
1
1
1
1
1
1
1
1
1
1
1
1
1
1
1
1
1
1
1
1
1
1
1
1
1
1
1
1
1
1
1
1
1
1
1
1
1
1
1
1
1
1
1
1
1
1
1
1
1
0.999999
0.999991
0.999936
0.999707
0.999132
0.998329
0.997991
0.999085
0.999995
0.999998
0.999998
0.999998
0.999998
0.999998
0.999998
0.999998
1
1
1
1
1
1
1
1
1
1
1
1
1
1
1
1
1
1
1
1
1
1
1
1
1
1
1
1
1
1
1
1
1
1
1
1
1
1
1
1
1
1
1
1
1
1
1
1
1
1
1
1
1
1
1
1
1
1
1
1
1
1
1
1
1
1
1
1
1
0.999997
0.999962
0.999676
0.998089
0.991983
0.975723
0.94874
0.921112
0.902554
0.882098
0.859404
0.854316
0.853296
0.8491
0.842159
0.833616
0.827535
1
1
1
1
1
1
1
1
1
1
1
1
1
1
1
1
1
1
1
1
1
1
1
1
1
1
1
1
1
1
1
1
1
1
1
1
1
1
1
1
1
1
1
1
1
1
1
1
1
1
1
1
1
1
1
1
1
1
1
1
1
1
1
1
1
1
1
1
0.999997
0.999936
0.999222
0.992997
0.95034
0.794409
0.582873
0.427
0.329067
0.276456
0.251221
0.252922
0.257347
0.257402
0.24876
0.236861
0.223745
0.214881
1
1
1
1
1
1
1
1
1
1
1
1
1
1
1
1
1
1
1
1
1
1
1
1
1
1
1
1
1
1
1
1
1
1
1
1
1
1
1
1
1
1
1
1
1
1
1
1
1
1
1
1
1
1
1
1
1
1
1
1
1
1
1
1
1
1
1
0.999998
0.999944
0.998967
0.984239
0.825857
0.448109
0.184555
0.0765304
0.0280563
0.00942134
0.0044957
0.0056615
0.00816834
0.00848149
0.00878533
0.00867983
0.00836032
0.00807598
0.00790678
1
1
1
1
1
1
1
1
1
1
1
1
1
1
1
1
1
1
1
1
1
1
1
1
1
1
1
1
1
1
1
1
1
1
1
1
1
1
1
1
1
1
1
1
1
1
1
1
1
1
1
1
1
1
1
1
1
1
1
1
1
1
1
1
1
1
0.999999
0.999972
0.999208
0.980393
0.683195
0.211226
0.0342593
4.57488e-07
3.95289e-06
7.63793e-06
8.49556e-06
7.73051e-06
3.44676e-06
2.12493e-07
5.84389e-06
0.00017942
0.000306241
0.000306934
0.000315027
0.000311595
1
1
1
1
1
1
1
1
1
1
1
1
1
1
1
1
1
1
1
1
1
1
1
1
1
1
1
1
1
1
1
1
1
1
1
1
1
1
1
1
1
1
1
1
1
1
1
1
1
1
1
1
1
1
1
1
1
1
1
1
1
1
1
1
1
1
0.999991
0.99964
0.986719
0.644709
0.122339
2.54307e-05
4.40117e-10
2.752e-10
2.38429e-10
1.75225e-10
1.3706e-10
2.56722e-10
1.2113e-09
3.43009e-09
1.06999e-08
9.4443e-09
1.70294e-09
2.66536e-10
2.68833e-10
1.95666e-10
1
1
1
1
1
1
1
1
1
1
1
1
1
1
1
1
1
1
1
1
1
1
1
1
1
1
1
1
1
1
1
1
1
1
1
1
1
1
1
1
1
1
1
1
1
1
1
1
1
1
1
1
1
1
1
1
1
1
1
1
1
1
1
1
1
0.999998
0.999893
0.995156
0.735576
0.107599
5.78302e-12
5.78689e-12
5.79861e-12
9.00559e-12
1.218e-11
1.63346e-11
2.03712e-11
2.55819e-11
4.47679e-11
1.7468e-10
6.4723e-10
4.5028e-10
1.32007e-10
1.23239e-10
1.23242e-10
1.23244e-10
1
1
1
1
1
1
1
1
1
1
1
1
1
1
1
1
1
1
1
1
1
1
1
1
1
1
1
1
1
1
1
1
1
1
1
1
1
1
1
1
1
1
1
1
1
1
1
1
1
1
1
1
1
1
1
1
1
1
1
1
1
1
1
1
1
0.999976
0.998887
0.907492
0.166277
5.78302e-12
5.78302e-12
6.26831e-12
1.12502e-11
1.82534e-11
2.55043e-11
3.3119e-11
3.6258e-11
4.06174e-11
5.96731e-11
9.65619e-11
1.20596e-10
1.21215e-10
1.21548e-10
1.23236e-10
1.23693e-10
1.24105e-10
1
1
1
1
1
1
1
1
1
1
1
1
1
1
1
1
1
1
1
1
1
1
1
1
1
1
1
1
1
1
1
1
1
1
1
1
1
1
1
1
1
1
1
1
1
1
1
1
1
1
1
1
1
1
1
1
1
1
1
1
1
1
1
1
0.999996
0.999794
0.985256
0.369221
0.00209687
5.78302e-12
6.33321e-12
1.12491e-11
2.2195e-11
2.92627e-11
3.54866e-11
3.66687e-11
3.44247e-11
3.57147e-11
6.44597e-11
1.18171e-10
1.36885e-10
1.44979e-10
1.49248e-10
1.23239e-10
1.23242e-10
1.23244e-10
0.851571
0.93891
0.99058
1
1
1
1
1
1
1
1
1
1
1
1
1
1
1
1
1
1
1
1
1
1
1
1
1
1
1
1
1
1
1
1
1
1
1
1
1
1
1
1
1
1
1
1
1
1
1
1
1
1
1
1
1
1
1
1
1
1
1
1
0.999999
0.999964
0.998284
0.769438
0.0391944
5.78302e-12
5.78302e-12
1.07604e-11
2.08665e-11
2.57558e-11
2.84996e-11
3.09883e-11
2.68347e-11
2.574e-11
3.71994e-11
7.91978e-11
1.29454e-10
1.56306e-10
2.02053e-10
5.18524e-10
5.07116e-10
3.3554e-10
1.23247e-10
0.224332
0.44713
0.668739
0.832353
0.925077
0.980217
0.999733
1
1
1
1
1
1
1
1
1
1
1
1
1
1
1
1
1
1
1
1
1
1
1
1
1
1
1
1
1
1
1
1
1
1
1
1
1
1
1
1
1
1
1
1
1
1
1
1
1
1
1
1
1
1
1
1
0.999995
0.999759
0.980029
0.236479
5.78302e-12
5.78302e-12
7.67242e-12
1.8452e-11
2.25778e-11
2.23896e-11
1.97115e-11
1.59488e-11
9.98098e-12
2.79928e-11
4.66424e-10
8.7454e-10
7.64696e-10
5.48517e-10
9.80494e-10
2.87025e-09
1.79235e-08
1.41102e-08
3.97622e-09
0.00283661
0.0141679
0.0668576
0.214367
0.423101
0.619517
0.775829
0.870183
0.93324
0.974852
0.996313
1
1
1
1
1
1
1
1
1
1
1
1
1
1
1
1
1
1
1
1
1
1
1
1
1
1
1
1
1
1
1
1
1
1
1
1
1
1
1
1
1
1
1
1
1
1
1
1
1
1
1
0.999999
0.999963
0.998461
0.74945
0.0318611
5.78302e-12
6.02725e-12
1.27907e-11
1.99147e-11
2.01658e-11
1.25842e-11
6.75878e-12
2.7888e-12
3.86992e-12
6.41003e-11
2.83599e-09
2.75826e-08
3.46726e-08
1.55815e-08
1.08006e-08
2.86639e-08
3.00055e-07
6.17906e-07
1.71415e-06
3.24809e-05
0.000153994
0.000706535
0.00325799
0.0150419
0.0591736
0.156597
0.310603
0.465158
0.607073
0.735241
0.830555
0.904625
0.96129
0.993971
1
1
1
1
1
1
1
1
1
1
1
1
1
1
1
1
1
1
1
1
1
1
1
1
1
1
1
1
1
1
1
1
1
1
1
1
1
1
1
1
1
1
1
1
1
1
1
0.999995
0.999785
0.986131
0.261938
5.22617e-05
5.78838e-12
9.06841e-12
1.57751e-11
1.82574e-11
1.20652e-11
2.86513e-12
2.44944e-13
4.78205e-13
5.41741e-12
1.12004e-10
2.03943e-08
1.46802e-07
3.82771e-07
1.25713e-07
6.70859e-08
2.24984e-06
4.72281e-06
3.62001e-06
1.20246e-05
3.64676e-07
1.78716e-06
8.94921e-06
4.28612e-05
0.000189786
0.000739939
0.00269637
0.00939844
0.0299416
0.071791
0.141947
0.26127
0.403669
0.561328
0.717718
0.838421
0.924932
0.980659
0.999906
1
1
1
1
1
1
1
1
1
1
1
1
1
1
1
1
1
1
1
1
1
1
1
1
1
1
1
1
1
1
1
1
1
1
1
1
1
1
1
1
1
1
0.999999
0.99997
0.998927
0.847577
0.0604761
5.89072e-12
6.07734e-12
1.24965e-11
1.52745e-11
1.19518e-11
3.25981e-12
2.16215e-14
3.26018e-14
6.01954e-13
1.11664e-11
1.34309e-10
2.5623e-08
7.48014e-07
7.60801e-07
2.45958e-07
1.19742e-06
1.2432e-05
1.65146e-05
1.17059e-05
2.65507e-05
3.99798e-09
2.19161e-08
1.19804e-07
6.04878e-07
2.84671e-06
1.20567e-05
4.70803e-05
0.000163089
0.000512271
0.00153599
0.00466151
0.0142774
0.0361809
0.0721631
0.140868
0.275473
0.448217
0.63148
0.791421
0.896336
0.964941
0.997169
1
1
1
1
1
1
1
1
1
0.999999
0.999999
0.999999
0.999999
0.999999
0.999999
0.999999
0.999999
0.999999
1
1
1
1
1
1
1
1
1
1
1
1
1
1
1
1
1
1
1
1
1
0.999996
0.999836
0.993043
0.399964
0.00602639
5.89426e-12
8.63829e-12
1.29356e-11
1.17423e-11
4.27545e-12
4.24874e-14
4.58623e-15
2.76122e-14
1.21811e-12
1.98789e-11
1.45062e-10
1.86643e-08
3.66899e-07
6.28646e-07
5.23168e-07
1.03512e-05
2.13422e-05
2.13444e-05
2.13422e-05
8.60695e-06
3.95912e-11
2.32341e-10
1.47554e-09
8.54628e-09
4.55143e-08
2.13818e-07
8.89526e-07
3.26299e-06
1.10458e-05
3.55935e-05
0.000108712
0.00033867
0.0011361
0.00391879
0.0129033
0.0281526
0.0511691
0.0949929
0.197605
0.366819
0.553219
0.73072
0.857175
0.938031
0.985466
0.99997
1
1
0.999999
0.999997
0.999994
0.99999
0.999986
0.999983
0.999983
0.999984
0.999986
0.999988
0.99999
0.999992
0.999994
0.999996
0.999998
0.999999
0.999999
0.999999
1
1
1
1
1
1
1
1
1
1
1
1
1
1
0.999999
0.999976
0.999258
0.939843
0.138501
5.83874e-12
5.8387e-12
1.07956e-11
1.18581e-11
6.03041e-12
2.63218e-13
3.39283e-15
1.04328e-15
2.81025e-14
2.49121e-12
2.88626e-11
1.38218e-10
5.0355e-09
5.63444e-08
2.02043e-07
2.71802e-06
1.70334e-05
1.61072e-05
9.87279e-06
9.12971e-06
4.40438e-06
7.17002e-13
3.12557e-12
1.78944e-11
1.07257e-10
6.0799e-10
3.27028e-09
1.5272e-08
6.17822e-08
2.2139e-07
7.06891e-07
2.21555e-06
7.42574e-06
2.6372e-05
9.50819e-05
0.000361289
0.00140933
0.00510457
0.0127918
0.0215502
0.0347797
0.0623943
0.130364
0.272396
0.450964
0.631486
0.783212
0.876695
0.935263
0.97241
0.992664
0.999644
0.999888
0.999846
0.999825
0.999824
0.999831
0.999849
0.999871
0.999892
0.999911
0.999931
0.999952
0.99997
0.999983
0.99999
0.999994
0.999996
0.999997
0.999998
0.999999
0.999999
0.999999
0.999999
0.999999
0.999999
1
1
1
1
1
0.999995
0.999877
0.99636
0.632834
0.0378952
5.85312e-12
6.78202e-12
1.09561e-11
8.36781e-12
1.32745e-12
2.08237e-15
9.28655e-16
2.67101e-16
3.42585e-14
3.52201e-12
3.29319e-11
9.96402e-11
4.08089e-11
3.20836e-09
3.03102e-07
1.00908e-05
1.00964e-05
2.78605e-06
4.02112e-07
1.61213e-06
1.11049e-06
2.12862e-14
9.35872e-14
4.36203e-13
1.81846e-12
7.99579e-12
4.03118e-11
1.96396e-10
8.2162e-10
3.24795e-09
1.11392e-08
3.67379e-08
1.19012e-07
4.04731e-07
1.52721e-06
6.45489e-06
2.69034e-05
0.000105024
0.000386231
0.00132565
0.00396244
0.00764376
0.0114508
0.018281
0.0340561
0.0718901
0.155803
0.291588
0.432719
0.563078
0.677204
0.76828
0.830447
0.872441
0.905093
0.931729
0.954783
0.974865
0.990397
0.998402
0.999261
0.999314
0.999423
0.999581
0.99974
0.999859
0.999929
0.999967
0.999266
0.998476
0.999646
0.999995
0.999996
0.999996
0.999996
0.999996
0.999997
0.999998
0.999999
0.999999
0.999998
0.999977
0.999437
0.976105
0.287167
0.00094935
5.80366e-12
8.64101e-12
1.00067e-11
4.01718e-12
3.39947e-14
5.47163e-16
2.50992e-16
6.76992e-17
4.54712e-14
3.49433e-12
3.09087e-11
4.59641e-11
2.32276e-11
3.17643e-08
2.04365e-06
1.06558e-05
4.28942e-06
2.21129e-07
3.05498e-08
2.62048e-07
3.70678e-07
4.09259e-16
2.02481e-15
1.107e-14
4.90534e-14
1.89851e-13
6.77843e-13
2.42601e-12
8.46722e-12
3.14536e-11
1.08925e-10
3.64876e-10
1.23742e-09
4.3752e-09
1.64786e-08
6.56618e-08
2.78031e-07
1.15999e-06
4.58844e-06
1.60017e-05
4.96804e-05
0.000145386
0.000403251
0.00100801
0.00221178
0.00392115
0.00684116
0.0129787
0.0249266
0.0468703
0.084239
0.141178
0.216092
0.293627
0.366852
0.438111
0.51126
0.590018
0.675639
0.758303
0.822142
0.864183
0.889364
0.898617
0.896826
0.883203
0.854662
0.811043
0.762031
0.743993
0.770265
0.849341
0.946852
0.999369
0.999974
0.999976
0.999982
0.999991
0.999997
0.999997
0.999991
0.999885
0.997459
0.83
0.108714
5.78302e-12
5.78302e-12
9.08847e-12
7.0087e-12
7.95951e-13
2.83771e-16
1.55443e-16
7.14294e-17
1.90021e-17
4.59303e-14
2.77567e-12
2.05314e-11
1.54461e-11
1.75473e-11
2.51985e-07
7.20241e-06
8.0449e-06
1.9678e-06
3.39163e-10
6.35913e-10
2.36952e-08
1.76267e-07
1.77479e-18
1.3661e-17
1.23868e-16
7.41167e-16
3.21961e-15
1.17323e-14
4.01798e-14
1.18858e-13
3.2445e-13
8.70382e-13
2.3511e-12
6.78245e-12
2.34085e-11
9.20386e-11
3.94447e-10
1.76353e-09
7.25099e-09
2.61235e-08
8.75848e-08
2.91158e-07
1.04057e-06
4.02703e-06
1.39236e-05
3.60405e-05
5.82405e-05
0.000114438
0.00034692
0.000848039
0.00168273
0.00289919
0.00469645
0.00753054
0.0118531
0.0182335
0.0273814
0.0404197
0.0598264
0.0916288
0.142958
0.215201
0.287867
0.339699
0.359388
0.353637
0.322187
0.266731
0.195678
0.140792
0.125315
0.144414
0.245398
0.477276
0.794666
0.981188
0.999828
0.999877
0.999935
0.999979
0.999983
0.999953
0.999421
0.985362
0.466783
0.0232455
5.81497e-12
6.42724e-12
8.60206e-12
3.40529e-12
2.16808e-14
7.85689e-17
4.18427e-17
1.87137e-17
5.05363e-18
3.66006e-14
1.41961e-12
8.74283e-12
5.95879e-12
3.99621e-11
4.75002e-07
3.89478e-06
2.57431e-06
3.23756e-07
3.11227e-10
3.1124e-10
1.2e-09
6.21822e-08
3.85697e-22
3.51441e-21
3.9259e-20
2.98903e-19
1.72248e-18
7.94437e-18
2.61879e-17
7.46793e-17
2.10904e-16
6.25626e-16
2.03294e-15
7.06817e-15
3.13861e-14
1.87359e-13
1.3544e-12
5.35833e-12
1.59418e-11
4.08976e-11
1.03558e-10
2.84993e-10
8.87665e-10
3.16459e-09
1.023e-08
2.79781e-08
4.3557e-08
2.05627e-07
3.00274e-06
1.29198e-05
2.77987e-05
5.14317e-05
9.61223e-05
0.000184916
0.000350842
0.000634902
0.00107248
0.00167736
0.0024938
0.00367529
0.00557504
0.00872328
0.0131612
0.0175648
0.0192987
0.0180829
0.0143799
0.0103047
0.00692538
0.00490956
0.00439892
0.00509969
0.00936923
0.0317502
0.174936
0.606625
0.944416
0.999186
0.999622
0.999862
0.99989
0.999719
0.996808
0.896136
0.1885
5.78302e-12
5.78302e-12
7.55984e-12
6.46777e-12
7.46649e-13
4.89978e-17
2.09786e-17
1.08456e-17
4.96989e-18
1.41235e-18
1.56135e-14
3.70728e-13
2.08184e-12
2.72672e-12
3.91617e-10
2.65618e-07
1.14754e-06
3.4555e-07
2.33473e-09
3.11213e-10
3.9306e-10
3.89372e-10
8.17452e-09
-6.43239e-54
4.16474e-34
3.63804e-32
1.4548e-29
2.16178e-27
1.64386e-25
7.62338e-24
2.84216e-22
9.14072e-21
2.08163e-19
3.06481e-18
2.90002e-17
2.35405e-16
1.27727e-15
3.85026e-15
8.65257e-15
1.54794e-14
2.35376e-14
3.25495e-14
4.97549e-14
1.32553e-13
5.97645e-13
3.12534e-12
1.04341e-11
1.04536e-11
1.77945e-11
2.65764e-11
5.7555e-12
4.04877e-13
3.83754e-13
3.15406e-13
1.62662e-13
8.11912e-14
1.25696e-14
1.04285e-14
1.06415e-14
1.18644e-14
3.32078e-11
1.71672e-09
1.17426e-08
2.33497e-07
4.35495e-06
5.22623e-05
0.000291397
0.000487095
0.000443884
0.000297155
0.000195496
0.00017454
0.000207516
0.000389067
0.00125837
0.00722072
0.0681706
0.456484
0.899111
0.997312
0.999026
0.999165
0.997974
0.977102
0.524833
0.0389408
5.78302e-12
5.78302e-12
7.64837e-12
3.5673e-12
3.40051e-14
1.22338e-17
5.26805e-18
2.69919e-18
1.21819e-18
3.55936e-19
1.3832e-15
7.41933e-14
5.20849e-13
2.89251e-12
6.36481e-10
6.01378e-08
3.37779e-08
6.33505e-10
1.12985e-10
3.06961e-10
4.16939e-10
3.89379e-10
2.54705e-10
-9.94178e-36
1.74619e-36
8.33274e-33
3.45677e-30
5.41243e-28
4.66975e-26
2.42955e-24
1.02589e-22
3.93477e-21
1.07659e-19
1.84418e-18
1.92672e-17
1.50263e-16
1.10113e-15
4.05985e-15
1.08221e-14
2.32578e-14
4.19478e-14
6.6741e-14
9.32019e-14
1.17782e-13
1.50398e-13
1.89161e-13
2.42534e-13
3.45438e-13
4.2455e-13
4.6007e-13
5.44623e-13
7.45232e-13
7.14105e-13
5.88195e-13
5.02807e-13
5.24719e-13
2.53306e-14
1.00159e-14
1.00156e-14
1.00159e-14
6.82088e-10
1.278e-08
1.84409e-08
7.36736e-08
2.62637e-07
2.15086e-07
2.04713e-07
2.26457e-07
3.24295e-07
6.18216e-07
1.11998e-06
1.83287e-06
3.50958e-06
9.31243e-06
4.02942e-05
0.000286868
0.00280894
0.0358894
0.343006
0.837004
0.989126
0.99166
0.980764
0.779374
0.153127
5.78302e-12
5.78302e-12
6.68063e-12
6.85437e-12
1.16978e-12
8.12356e-18
2.97714e-18
1.23889e-18
6.19424e-19
2.95332e-19
9.46551e-20
1.7541e-16
3.40584e-14
1.75608e-13
2.92554e-12
5.01069e-10
9.77401e-11
3.84435e-12
2.62621e-11
8.17891e-11
2.71163e-10
4.15216e-10
3.95697e-10
1.77957e-10
-1.78434e-37
2.43356e-37
1.62004e-33
6.25241e-31
1.01187e-28
8.55657e-27
4.32667e-25
1.82926e-23
7.61863e-22
2.4552e-20
4.99566e-19
5.8349e-18
4.42042e-17
3.66995e-16
2.00331e-15
6.83088e-15
1.78342e-14
3.788e-14
6.68385e-14
1.03379e-13
1.51008e-13
2.22056e-13
3.30537e-13
4.97057e-13
7.47044e-13
1.04749e-12
1.32072e-12
1.63693e-12
1.88602e-12
1.88443e-12
1.74305e-12
3.97089e-12
7.71761e-12
5.07506e-12
2.23029e-12
8.6813e-11
6.57907e-09
4.28863e-08
1.79288e-07
5.3351e-07
1.09443e-06
1.01808e-06
8.2368e-07
5.68234e-07
2.57164e-07
4.32422e-08
4.22232e-11
2.18147e-11
3.25851e-10
5.28744e-09
4.98006e-08
4.6472e-07
5.25683e-06
7.70849e-05
0.0013059
0.0210804
0.21507
0.631276
0.807733
0.709445
0.253263
0.00544603
5.78302e-12
5.78302e-12
7.17537e-12
4.61408e-12
1.01726e-13
1.83142e-18
6.75462e-19
2.78149e-19
1.3778e-19
6.79602e-20
2.32296e-20
1.94228e-16
1.55621e-14
2.9462e-14
2.29186e-12
1.33184e-10
9.2983e-12
3.84435e-12
2.29381e-11
6.12751e-11
2.37558e-10
3.03113e-10
3.46889e-10
1.7891e-10
3.78332e-38
2.60521e-38
2.83711e-34
1.16812e-31
2.05842e-29
1.81413e-27
9.37748e-26
4.07659e-24
1.80017e-22
6.2995e-21
1.3758e-19
1.67925e-18
1.45428e-17
9.86327e-17
6.70922e-16
2.9364e-15
9.2987e-15
2.34707e-14
4.94086e-14
9.0125e-14
1.47132e-13
2.23606e-13
3.36548e-13
5.13082e-13
7.72743e-13
1.10625e-12
1.46553e-12
1.84789e-12
2.15531e-12
2.24723e-12
2.35349e-12
8.60953e-12
1.96303e-11
2.06026e-11
3.47556e-11
2.31658e-09
3.4106e-08
1.33177e-07
4.20144e-07
1.58198e-06
2.39062e-06
2.39062e-06
2.39062e-06
2.02868e-06
9.82036e-07
1.73819e-07
6.14393e-10
9.57396e-11
6.15716e-11
2.23253e-11
6.02545e-12
5.78302e-12
5.78302e-12
5.78302e-12
5.78302e-12
6.441e-05
0.00740881
0.0900375
0.181797
0.139923
0.0168881
5.78302e-12
5.78302e-12
6.60295e-12
7.14659e-12
2.12675e-12
9.02966e-16
4.01125e-19
1.45921e-19
5.95772e-20
3.00306e-20
1.56581e-20
5.6265e-21
1.89098e-16
2.93475e-15
3.0776e-15
9.05076e-13
1.9638e-13
1.98461e-13
4.47193e-12
1.38105e-11
4.0267e-11
1.83067e-10
1.67365e-10
2.27144e-10
1.37652e-10
1.38981e-43
2.61641e-39
4.64557e-35
1.98657e-32
3.68136e-30
3.38432e-28
1.78031e-26
7.91219e-25
3.64817e-23
1.34402e-21
3.02792e-20
3.74202e-19
3.28185e-18
2.33702e-17
1.58407e-16
8.52068e-16
3.54538e-15
1.11341e-14
2.79985e-14
5.98297e-14
1.13502e-13
1.98345e-13
3.23883e-13
5.06512e-13
7.66077e-13
1.11082e-12
1.4931e-12
1.89215e-12
2.21551e-12
2.35656e-12
2.64776e-12
1.1812e-11
3.08121e-11
5.42612e-11
3.65687e-10
6.32844e-09
5.66679e-08
1.20667e-07
1.54281e-07
1.18818e-06
2.39062e-06
2.39062e-06
2.39062e-06
2.39062e-06
1.90401e-06
4.97998e-07
3.05425e-08
3.13353e-09
4.04364e-10
5.70943e-11
6.70674e-12
5.78302e-12
5.78302e-12
5.78302e-12
5.78302e-12
5.78302e-12
5.78302e-12
5.78302e-12
5.78302e-12
5.78302e-12
5.78302e-12
5.78302e-12
5.98477e-12
7.49539e-12
6.12461e-12
4.03946e-13
2.27873e-19
7.72072e-20
2.92997e-20
1.21838e-20
6.26116e-21
3.41437e-21
1.28141e-21
1.31741e-16
1.5956e-16
9.39849e-16
4.56902e-14
2.11929e-15
1.90232e-13
5.05301e-12
5.77664e-12
2.46008e-11
1.06182e-10
6.63889e-11
1.0716e-10
8.60911e-11
-3.26086e-40
1.80047e-40
6.51103e-36
2.91458e-33
5.74295e-31
5.53262e-29
2.97551e-27
1.35823e-25
6.60019e-24
2.60732e-22
6.11971e-21
7.69645e-20
7.00474e-19
5.02603e-18
3.30471e-17
1.80244e-16
8.54255e-16
3.51739e-15
1.15611e-14
3.04628e-14
6.84796e-14
1.37828e-13
2.50655e-13
4.18449e-13
6.42841e-13
9.73692e-13
1.39374e-12
1.79936e-12
2.1572e-12
2.35e-12
2.66545e-12
1.23429e-11
3.63929e-11
1.09409e-10
8.51132e-10
7.09211e-09
1.25882e-08
3.97084e-09
3.32187e-09
4.92006e-08
1.2226e-06
1.98144e-06
1.70299e-06
1.40355e-06
9.42243e-07
5.23325e-07
9.48541e-08
9.71516e-09
7.46066e-10
1.01007e-10
1.44146e-11
6.00312e-12
5.78315e-12
5.98585e-12
6.15829e-12
5.78302e-12
5.78302e-12
5.78302e-12
5.78302e-12
5.78302e-12
5.78302e-12
5.91451e-12
7.14304e-12
7.57452e-12
3.68813e-12
1.08995e-14
5.49053e-20
1.7333e-20
6.06865e-21
2.34526e-21
1.26205e-21
7.27188e-22
2.84915e-22
3.61981e-17
3.35761e-17
2.64088e-16
2.68949e-16
2.94161e-16
1.43923e-13
3.61177e-12
2.14183e-12
1.60272e-11
4.38464e-11
1.97039e-11
3.21167e-11
4.21397e-11
-4.72322e-40
1.46956e-41
7.57135e-37
3.60163e-34
7.62949e-32
7.75152e-30
4.26533e-28
2.00358e-26
1.03205e-24
4.43858e-23
1.09279e-21
1.40334e-20
1.32423e-19
9.72672e-19
6.29603e-18
3.50538e-17
1.73531e-16
7.7507e-16
3.07203e-15
1.0814e-14
3.12493e-14
7.60123e-14
1.58021e-13
2.85861e-13
4.49074e-13
6.98266e-13
1.04019e-12
1.36302e-12
1.69684e-12
1.96091e-12
2.24857e-12
1.13283e-11
3.74262e-11
1.5969e-10
9.34033e-10
1.70346e-09
1.02183e-09
2.98626e-10
1.55753e-10
1.00992e-08
8.81935e-08
2.43162e-07
1.35866e-07
1.07109e-07
9.27797e-08
8.97082e-08
7.74535e-08
1.62709e-08
1.08959e-09
1.10021e-10
1.50655e-11
5.77029e-12
5.52325e-12
6.15027e-12
6.7862e-12
6.56608e-12
6.11626e-12
5.86552e-12
5.82468e-12
5.83062e-12
5.92783e-12
6.75238e-12
8.06452e-12
7.18533e-12
1.18064e-12
2.20495e-20
5.27011e-21
2.01892e-21
8.98821e-22
4.10759e-22
2.41993e-22
1.48255e-22
6.08213e-23
9.74509e-20
7.58098e-18
6.45838e-17
6.77657e-17
7.25847e-17
5.33167e-14
9.42439e-13
7.37686e-13
1.01042e-11
1.04371e-11
7.33872e-12
1.04737e-11
1.81504e-11
-4.08559e-40
2.34561e-42
6.99587e-38
3.6106e-35
8.34088e-33
8.99811e-31
5.06899e-29
2.45476e-27
1.349e-25
6.4414e-24
1.67439e-22
2.20117e-21
2.1578e-20
1.64277e-19
1.05888e-18
6.03037e-18
3.1277e-17
1.50678e-16
6.45921e-16
2.53103e-15
9.34102e-15
3.02799e-14
7.71787e-14
1.57791e-13
2.57001e-13
4.11473e-13
6.37947e-13
8.44388e-13
1.08559e-12
1.30992e-12
1.59636e-12
9.15582e-12
3.62265e-11
1.66265e-10
5.57713e-10
5.89532e-10
1.81183e-10
3.23103e-12
3.22961e-12
1.3309e-09
8.32617e-09
1.44542e-08
7.30002e-09
9.68779e-09
1.22333e-08
1.00767e-08
9.66809e-09
7.82057e-09
1.34166e-09
1.13141e-10
1.50408e-11
4.78597e-12
4.62272e-12
6.15958e-12
7.064e-12
7.64437e-12
7.2372e-12
6.44267e-12
6.17165e-12
6.2491e-12
6.874e-12
8.2743e-12
8.11505e-12
5.2751e-12
2.30659e-14
7.04972e-21
1.70183e-21
6.3252e-22
2.50645e-22
8.60378e-23
4.63678e-23
2.83728e-23
1.20864e-23
5.83839e-21
1.89587e-18
1.57964e-17
1.65038e-17
1.73414e-17
2.29141e-15
3.78415e-15
2.48515e-13
3.89095e-12
3.84633e-12
4.99636e-12
7.41324e-12
7.56185e-12
-3.05922e-40
-4.99767e-59
4.74311e-39
2.78589e-36
7.16947e-34
8.28234e-32
4.77865e-30
2.38933e-28
1.41275e-26
7.70534e-25
2.12962e-23
2.8724e-22
2.94279e-21
2.3471e-20
1.5227e-19
8.90252e-19
4.86648e-18
2.55173e-17
1.19005e-16
5.02313e-16
1.99583e-15
7.55716e-15
2.46701e-14
6.08226e-14
1.05603e-13
1.76951e-13
2.90916e-13
3.89842e-13
5.23834e-13
6.70422e-13
9.12105e-13
6.57301e-12
2.84232e-11
1.07077e-10
2.75415e-10
3.79211e-10
2.06385e-10
6.14636e-12
4.76806e-12
7.38813e-11
5.79411e-10
9.75309e-10
4.39418e-10
6.75138e-10
1.22144e-09
1.34492e-09
1.60168e-09
2.21263e-09
1.04458e-09
1.15953e-10
1.40304e-11
3.52769e-12
3.34073e-12
5.33588e-12
7.11705e-12
8.14359e-12
8.57081e-12
7.96384e-12
7.53476e-12
7.72233e-12
8.45521e-12
8.64892e-12
7.70782e-12
2.35284e-12
9.73993e-22
1.45693e-21
4.13282e-22
1.00814e-22
1.62311e-23
7.08304e-24
7.81236e-24
6.16235e-24
2.75972e-24
1.54154e-21
4.59582e-19
3.71017e-18
3.84887e-18
3.98372e-18
1.01663e-17
6.9684e-16
8.20342e-14
4.75608e-13
1.95893e-12
4.00365e-12
5.58657e-12
3.85938e-12
-2.27264e-40
-6.96401e-41
2.0498e-40
1.51765e-37
4.52251e-35
5.65621e-33
3.34346e-31
1.72886e-29
1.11522e-27
7.26495e-26
2.15225e-24
2.98751e-23
3.23952e-22
2.73832e-21
1.81212e-20
1.09199e-19
6.3273e-19
3.65402e-18
1.86951e-17
8.53424e-17
3.64405e-16
1.49065e-15
5.20479e-15
1.41862e-14
2.60748e-14
4.50815e-14
7.82415e-14
1.05895e-13
1.50963e-13
2.11563e-13
3.39734e-13
3.7591e-12
1.79717e-11
5.64068e-11
1.39199e-10
2.0768e-10
1.53354e-10
8.2026e-12
5.814e-12
8.61192e-12
5.27337e-12
3.20285e-12
3.20002e-12
1.83905e-11
1.02896e-10
1.98463e-10
3.35794e-10
5.68877e-10
7.01992e-10
9.22673e-11
1.11178e-11
2.2236e-12
1.88208e-12
3.72803e-12
6.22812e-12
8.21681e-12
9.09346e-12
9.39191e-12
9.2625e-12
9.16617e-12
9.17063e-12
8.57123e-12
5.75778e-12
2.72686e-13
2.92474e-22
6.82071e-23
1.96569e-23
8.94033e-24
4.53191e-24
2.38631e-24
1.22815e-24
6.7618e-25
3.18635e-25
3.91632e-22
1.0595e-19
8.26831e-19
8.5631e-19
8.68851e-19
1.89297e-18
1.48779e-16
1.8239e-14
1.83769e-13
1.60993e-12
3.06658e-12
3.76348e-12
2.33058e-12
-1.69285e-40
-1.66303e-40
2.65523e-58
4.73251e-39
1.85007e-36
2.54357e-34
1.54079e-32
8.25404e-31
5.98025e-29
5.04034e-27
1.61672e-25
2.32439e-24
2.73546e-23
2.49385e-22
1.70782e-21
1.06513e-20
6.61488e-20
4.27696e-19
2.42194e-18
1.20107e-17
5.52125e-17
2.4261e-16
9.09269e-16
2.63305e-15
5.01605e-15
8.52444e-15
1.44662e-14
1.92955e-14
2.74066e-14
3.89564e-14
6.84036e-14
1.4062e-12
8.01361e-12
2.22688e-11
4.30263e-11
6.07898e-11
5.06882e-11
8.65779e-12
5.97177e-12
1.26106e-11
1.23967e-11
9.55927e-12
6.51683e-12
2.19633e-12
7.99157e-13
1.86693e-11
7.37334e-11
1.70843e-10
3.16391e-10
5.69941e-11
7.49562e-12
1.13019e-12
6.89593e-13
1.96863e-12
4.33453e-12
7.14961e-12
8.98702e-12
9.5168e-12
9.54763e-12
9.51925e-12
9.11155e-12
7.47885e-12
2.75507e-12
4.46008e-22
9.29568e-23
2.21465e-23
6.4823e-24
2.9704e-24
1.50083e-24
6.72774e-25
3.51737e-25
2.1735e-25
1.05201e-25
7.99452e-23
2.28474e-20
1.73935e-19
1.81482e-19
1.80287e-19
3.46419e-19
3.29683e-17
4.64696e-15
1.64004e-13
1.39764e-12
2.20746e-12
2.18275e-12
1.36536e-12
-1.08543e-40
-1.5032e-40
-1.5115e-40
7.89221e-58
3.60327e-38
5.64859e-36
3.50798e-34
1.95078e-32
1.74769e-30
2.27796e-28
8.01584e-27
1.21315e-25
1.63284e-24
1.65433e-23
1.18976e-22
7.70773e-22
5.23546e-21
3.89309e-20
2.47042e-19
1.33702e-18
6.60671e-18
3.09125e-17
1.27614e-16
4.10661e-16
8.4863e-16
1.42566e-15
2.25709e-15
2.8673e-15
3.85028e-15
5.25468e-15
9.37854e-15
2.77335e-13
1.82647e-12
4.58804e-12
7.33031e-12
8.99249e-12
1.1051e-11
8.54758e-12
5.02803e-12
1.30281e-11
1.44015e-11
1.37426e-11
1.03594e-11
4.49506e-12
7.99273e-13
1.65094e-13
9.69088e-12
4.61044e-11
7.08889e-11
2.8739e-11
3.95375e-12
4.39093e-13
1.29233e-13
5.91743e-13
2.18813e-12
4.96734e-12
7.68143e-12
9.12019e-12
9.41911e-12
9.22965e-12
8.08023e-12
4.78079e-12
4.27749e-13
1.44687e-22
3.04386e-23
7.31765e-24
2.17168e-24
9.48746e-25
3.28142e-25
1.07151e-26
1.87852e-26
4.60507e-26
2.76663e-26
1.20486e-23
4.49254e-21
3.34175e-20
3.64918e-20
3.60004e-20
6.16033e-20
6.98194e-18
6.50948e-16
1.56441e-13
1.14948e-12
1.46348e-12
1.27248e-12
7.40999e-13
-6.11179e-41
-1.03399e-40
-1.60194e-40
-2.21152e-40
-2.71812e-40
-2.85609e-40
-2.28455e-40
5.00589e-53
1.20128e-32
4.9954e-30
1.96469e-28
3.3418e-27
5.94882e-26
7.06875e-25
5.43621e-24
3.68445e-23
2.85369e-22
2.55809e-21
1.84758e-20
1.0945e-19
5.7754e-19
2.84536e-18
1.48853e-17
6.61937e-17
1.79386e-16
3.51446e-16
5.23739e-16
6.06848e-16
6.9387e-16
7.62466e-16
9.0307e-16
3.24298e-14
2.29091e-13
5.15809e-13
6.15356e-13
5.05625e-13
2.363e-12
5.86308e-12
3.35991e-12
1.19389e-11
1.44015e-11
1.43992e-11
1.09645e-11
4.97089e-12
1.12197e-12
1.651e-13
5.09687e-13
8.28565e-12
1.21747e-11
9.51165e-12
1.35347e-12
1.27805e-13
1.29088e-14
7.82059e-14
5.7109e-13
2.31559e-12
4.97799e-12
7.22225e-12
8.14116e-12
7.53623e-12
5.35456e-12
1.814e-12
1.64109e-22
4.60534e-23
9.11317e-24
2.10089e-24
5.91568e-25
9.9352e-26
1.58775e-36
1.80184e-48
1.52e-45
6.35295e-45
6.68725e-29
7.594e-25
8.54365e-22
6.10866e-21
7.05827e-21
6.85846e-21
1.03165e-20
1.32218e-18
1.884e-16
1.43019e-13
8.60993e-13
9.85626e-13
8.20361e-13
4.39039e-13
-3.1164e-41
-5.65351e-41
-9.28118e-41
-1.34836e-40
-1.74305e-40
-1.95235e-40
-1.83869e-40
-1.31365e-40
-5.59915e-41
-1.7048e-41
-1.96208e-49
1.55827e-29
9.13768e-28
1.44161e-26
1.21805e-25
8.69109e-25
8.7883e-24
1.05896e-22
8.9424e-22
5.82205e-21
3.2345e-20
1.71402e-19
2.09371e-18
1.83916e-17
7.2325e-17
1.82715e-16
2.8849e-16
3.28772e-16
3.60161e-16
3.63251e-16
2.58362e-16
1.37932e-15
1.01585e-14
1.30771e-14
2.24809e-16
1.35718e-14
5.8748e-13
2.0103e-12
1.6984e-12
8.04706e-12
1.32545e-11
1.37184e-11
1.04431e-11
4.95588e-12
1.14491e-12
1.74695e-13
3.50884e-14
7.43119e-13
1.57492e-12
1.58241e-12
2.59141e-13
2.87772e-14
1.21385e-16
2.22612e-15
5.56281e-14
4.74505e-13
1.95104e-12
3.95294e-12
5.02968e-12
4.31121e-12
2.21127e-12
1.15542e-13
5.03347e-23
7.60552e-24
4.81854e-25
4.99548e-26
4.03688e-27
4.24168e-43
-3.37006e-32
-8.87796e-32
-7.35775e-32
-7.48237e-32
2.8223e-48
2.40907e-40
1.4268e-22
9.28157e-22
1.28599e-21
1.25428e-21