/*--------------------------------*- C++ -*----------------------------------*\
| =========                 |                                                 |
| \\      /  F ield         | OpenFOAM: The Open Source CFD Toolbox           |
|  \\    /   O peration     | Version:  v1912                                 |
|   \\  /    A nd           | Website:  www.openfoam.com                      |
|    \\/     M anipulation  |                                                 |
\*---------------------------------------------------------------------------*/
FoamFile
{
    version     2.0;
    format      ascii;
    class       volScalarField;
    location    "90";
    object      omega;
}
// * * * * * * * * * * * * * * * * * * * * * * * * * * * * * * * * * * * * * //

dimensions      [0 0 -1 0 0 0 0];


internalField   nonuniform List<scalar> 
14268
(
0.00889641
0.00892074
0.00894582
0.00897171
0.00899841
0.00902589
0.00905412
0.00908293
0.00911087
0.00913718
0.00916134
0.00918325
0.00920353
0.00922247
0.00923977
0.0092551
0.00926834
0.00927981
0.00928942
0.00929702
0.00930216
0.00930433
0.00930391
0.00929992
0.00929048
0.00927501
0.00925325
0.00922694
0.00920996
0.00920407
0.0092038
0.00920585
0.00921159
0.0092212
0.00922872
0.00923085
0.00923021
0.00922622
0.00921726
0.00920766
0.00920523
0.00920608
0.00921062
0.00922167
0.00924153
0.00927124
0.00931029
0.00935668
0.00940272
0.00944015
0.00947033
0.00949429
0.00951266
0.00952616
0.0095367
0.00954656
0.00955648
0.00956561
0.00957197
0.00957417
0.00957217
0.00956535
0.00955568
0.00954604
0.00953768
0.00953129
0.00952581
0.00952013
0.00951431
0.00950984
0.00950723
0.00950607
0.00950648
0.00951071
0.00952158
0.00954196
0.00957941
0.00964285
0.00969451
0.0097148
0.00971041
0.00964964
0.00953771
0.0094708
0.00945339
0.00951453
0.101417
0.10048
0.0995047
0.0984894
0.0974357
0.0963444
0.0952183
0.0940666
0.0929286
0.091817
0.09074
0.0897036
0.088703
0.0877303
0.0867675
0.0857951
0.0847978
0.0837618
0.0826822
0.0815716
0.0805118
0.0795686
0.0787902
0.0782225
0.07789
0.0777894
0.0778524
0.0781395
0.0785121
0.0785774
0.07851
0.0782705
0.0777914
0.0770628
0.0761546
0.0754084
0.0749407
0.0746975
0.074626
0.0746682
0.074874
0.0752688
0.075785
0.0763034
0.0766559
0.0767962
0.0768045
0.0767162
0.0764857
0.0761471
0.0757863
0.0754537
0.0751601
0.0749423
0.074821
0.0748156
0.0750003
0.0754643
0.0762584
0.077409
0.0789139
0.0807741
0.0830161
0.0856584
0.0886569
0.0918941
0.095249
0.09859
0.10177
0.104609
0.107018
0.10908
0.11092
0.112477
0.113676
0.114461
0.114777
0.114231
0.113175
0.112894
0.113676
0.116823
0.119644
0.120341
0.118628
0.112418
0.1448
0.144375
0.143918
0.14343
0.142913
0.142365
0.141784
0.141174
0.140547
0.139928
0.139327
0.138742
0.138163
0.137589
0.137012
0.136421
0.135808
0.135162
0.134481
0.133769
0.13308
0.132466
0.131958
0.131589
0.131377
0.131319
0.131369
0.131575
0.131832
0.13188
0.13184
0.131692
0.131386
0.130916
0.130337
0.129897
0.129646
0.129542
0.129537
0.129625
0.129858
0.13022
0.130642
0.131026
0.131242
0.13131
0.131298
0.131204
0.130999
0.13072
0.130441
0.130193
0.129986
0.129845
0.129771
0.129767
0.129871
0.130133
0.13058
0.131224
0.132058
0.13307
0.134255
0.135599
0.13706
0.138561
0.140044
0.141458
0.142751
0.143863
0.144767
0.145505
0.146097
0.146536
0.146837
0.147029
0.147123
0.147038
0.146753
0.14664
0.146789
0.147629
0.148687
0.148997
0.148583
0.146797
0.157036
0.156884
0.156706
0.156506
0.156282
0.156032
0.155752
0.155442
0.155111
0.154785
0.154475
0.154168
0.153858
0.153541
0.153214
0.152875
0.15252
0.152144
0.151747
0.151336
0.150934
0.150567
0.150252
0.150013
0.149863
0.149807
0.149816
0.149894
0.149999
0.150018
0.149999
0.149926
0.149775
0.149543
0.149277
0.149102
0.149017
0.148999
0.14903
0.149141
0.149332
0.149564
0.149819
0.150008
0.150091
0.150106
0.150083
0.150002
0.149856
0.149671
0.14949
0.149331
0.149206
0.149135
0.149094
0.149073
0.149076
0.149119
0.149216
0.149375
0.149598
0.149883
0.150223
0.15061
0.151021
0.151433
0.151845
0.152254
0.152646
0.153005
0.153302
0.15352
0.153673
0.153756
0.153774
0.153753
0.153703
0.153588
0.153471
0.153431
0.153502
0.153928
0.154479
0.154657
0.154544
0.153845
0.160781
0.160748
0.160691
0.16061
0.160508
0.160386
0.160246
0.160084
0.159903
0.159712
0.159527
0.159343
0.159154
0.158958
0.158751
0.158532
0.1583
0.158053
0.157795
0.157533
0.157276
0.157035
0.156822
0.156647
0.15652
0.156447
0.15642
0.156419
0.156425
0.156423
0.156408
0.156367
0.156292
0.156182
0.156057
0.155973
0.155932
0.155925
0.155944
0.156008
0.156122
0.156268
0.156396
0.156471
0.156502
0.156506
0.156486
0.156421
0.156305
0.15615
0.155992
0.155862
0.155771
0.155733
0.155729
0.155725
0.155705
0.155668
0.155614
0.15555
0.155491
0.155437
0.155388
0.155344
0.155311
0.155291
0.155285
0.155317
0.155398
0.155513
0.155604
0.15564
0.155638
0.155597
0.15554
0.155484
0.155427
0.15537
0.155305
0.155263
0.155282
0.155544
0.155992
0.156172
0.156179
0.155814
0.161942
0.161953
0.161938
0.1619
0.161847
0.161784
0.161707
0.16161
0.161492
0.161358
0.161221
0.16109
0.160956
0.160816
0.160667
0.160506
0.160333
0.160151
0.159962
0.159769
0.159576
0.159391
0.159225
0.159086
0.158976
0.158902
0.158853
0.158818
0.158794
0.158776
0.158757
0.158732
0.15869
0.158624
0.158557
0.158526
0.158522
0.158539
0.15859
0.158668
0.158754
0.158838
0.158906
0.158945
0.158957
0.158951
0.158917
0.158842
0.158732
0.158605
0.158487
0.158391
0.158329
0.158312
0.158304
0.158284
0.158228
0.158138
0.158012
0.157851
0.157666
0.157464
0.157255
0.157052
0.156842
0.156649
0.156502
0.156413
0.156392
0.156431
0.156443
0.15643
0.156393
0.156353
0.156282
0.15619
0.156097
0.155996
0.155889
0.155825
0.155828
0.156079
0.156606
0.156891
0.156935
0.156482
0.162451
0.16247
0.16246
0.162434
0.162401
0.162362
0.162306
0.162225
0.162117
0.16199
0.161865
0.161752
0.161639
0.161523
0.161398
0.161262
0.161114
0.160959
0.160805
0.16065
0.160491
0.160334
0.16019
0.160065
0.159962
0.159881
0.159816
0.159764
0.159724
0.159698
0.159677
0.159658
0.159635
0.159603
0.159564
0.159541
0.159535
0.15954
0.159564
0.159612
0.15968
0.159755
0.159832
0.159891
0.159922
0.159931
0.15992
0.159874
0.159784
0.159657
0.159525
0.159421
0.159362
0.159358
0.159392
0.159411
0.159373
0.159272
0.159113
0.158903
0.158658
0.158396
0.158113
0.157821
0.157546
0.157302
0.157103
0.156977
0.156943
0.156975
0.156981
0.156976
0.156946
0.156889
0.156783
0.156671
0.156578
0.156496
0.156401
0.156322
0.156305
0.156482
0.157047
0.157417
0.157528
0.157205
0.162788
0.1628
0.162785
0.162755
0.162721
0.162682
0.162625
0.162542
0.162429
0.162293
0.16216
0.162042
0.161928
0.161814
0.161693
0.161563
0.161425
0.161284
0.161148
0.161013
0.160876
0.160736
0.1606
0.160479
0.160374
0.160287
0.160214
0.160147
0.160098
0.160061
0.160047
0.160043
0.160034
0.160013
0.159992
0.159991
0.160009
0.160053
0.160124
0.160209
0.160276
0.160337
0.160393
0.160434
0.160457
0.160465
0.160459
0.16043
0.160373
0.160296
0.160205
0.16012
0.160062
0.160045
0.160033
0.160011
0.159955
0.159845
0.159678
0.159458
0.1592
0.158918
0.15864
0.158365
0.158073
0.157817
0.157618
0.157497
0.157482
0.15753
0.157537
0.15754
0.157516
0.15746
0.157371
0.157271
0.157189
0.157113
0.157002
0.156888
0.156855
0.156989
0.157601
0.158109
0.158268
0.157894
0.163183
0.163179
0.16315
0.163106
0.163058
0.163003
0.162932
0.162834
0.162705
0.16255
0.1624
0.162264
0.162135
0.162005
0.161874
0.161742
0.161613
0.161488
0.161366
0.161243
0.161116
0.160983
0.16085
0.160725
0.160616
0.16052
0.160433
0.160361
0.160307
0.160273
0.160259
0.160254
0.160248
0.160234
0.160214
0.160209
0.16021
0.160221
0.160246
0.160292
0.160362
0.16046
0.160583
0.160711
0.160799
0.160847
0.160863
0.160856
0.160812
0.160724
0.160605
0.160491
0.160416
0.160404
0.16045
0.160489
0.160478
0.160394
0.160234
0.15999
0.159696
0.159406
0.159111
0.15881
0.158548
0.158327
0.158139
0.158055
0.158081
0.158153
0.158175
0.158196
0.158194
0.158176
0.158102
0.158002
0.15792
0.157845
0.157722
0.157565
0.157515
0.157616
0.158262
0.158948
0.15921
0.158969
0.163824
0.163777
0.163711
0.163631
0.163545
0.163451
0.16334
0.163204
0.163039
0.162852
0.162675
0.162513
0.162353
0.162197
0.162053
0.161923
0.161802
0.161692
0.161582
0.161468
0.161349
0.161222
0.161086
0.160952
0.160835
0.160731
0.160644
0.160563
0.160503
0.160465
0.160457
0.160463
0.160468
0.160461
0.160452
0.160455
0.160476
0.160516
0.160576
0.160654
0.160743
0.160846
0.160963
0.16109
0.161218
0.161311
0.161359
0.161371
0.161349
0.161276
0.161156
0.16104
0.160983
0.160989
0.161023
0.161035
0.161023
0.160918
0.16073
0.160487
0.160203
0.1599
0.159598
0.159322
0.159071
0.158885
0.158752
0.158711
0.158794
0.158906
0.158972
0.159051
0.159116
0.159128
0.159081
0.159003
0.158947
0.158909
0.1588
0.158646
0.158608
0.158744
0.15946
0.160266
0.160592
0.160405
0.16506
0.16492
0.164765
0.164599
0.164429
0.164251
0.164059
0.163844
0.163612
0.163369
0.163151
0.162938
0.162728
0.162537
0.162379
0.162245
0.16213
0.162028
0.161928
0.161823
0.161711
0.161585
0.161447
0.161297
0.161163
0.161039
0.160932
0.160854
0.160793
0.160751
0.160736
0.160735
0.160733
0.160723
0.160702
0.160671
0.160639
0.160624
0.160628
0.160669
0.160774
0.160959
0.161216
0.161468
0.161647
0.161754
0.161806
0.161819
0.161797
0.161722
0.161597
0.161463
0.161381
0.16137
0.161442
0.161488
0.161506
0.161469
0.161333
0.161065
0.160707
0.160386
0.160114
0.159902
0.159729
0.159602
0.159545
0.159625
0.159828
0.160071
0.160277
0.160478
0.160639
0.16075
0.160774
0.160736
0.160703
0.160679
0.160542
0.16034
0.160288
0.160464
0.161281
0.162276
0.162674
0.16243
0.167298
0.166968
0.166629
0.166289
0.165956
0.165623
0.165282
0.164932
0.164592
0.164255
0.163972
0.163697
0.163436
0.163215
0.163045
0.162902
0.16278
0.162686
0.162594
0.162498
0.162387
0.162252
0.162092
0.161913
0.161733
0.161583
0.16147
0.16137
0.161295
0.161229
0.161178
0.161133
0.161081
0.161004
0.160929
0.160904
0.160902
0.160922
0.16099
0.161112
0.161289
0.161521
0.161806
0.162123
0.162378
0.162529
0.162599
0.162612
0.162568
0.162435
0.162221
0.162027
0.161939
0.161945
0.162044
0.162141
0.162172
0.162103
0.161879
0.161592
0.161307
0.161064
0.160859
0.160677
0.160594
0.160656
0.160809
0.161126
0.161616
0.162122
0.162588
0.163052
0.16348
0.163779
0.163972
0.164096
0.164247
0.164376
0.164255
0.163945
0.163911
0.164322
0.165772
0.167197
0.167521
0.166074
0.171286
0.170592
0.169899
0.169232
0.168591
0.167964
0.167346
0.16677
0.166244
0.165763
0.165385
0.165036
0.164718
0.164462
0.164267
0.164114
0.16399
0.16391
0.163838
0.163756
0.163644
0.163486
0.163282
0.163048
0.162812
0.162616
0.162466
0.162358
0.162263
0.16217
0.162075
0.161977
0.161869
0.161739
0.161605
0.161526
0.16147
0.161455
0.161466
0.161548
0.161767
0.162156
0.162683
0.163138
0.163409
0.163542
0.163584
0.163567
0.163477
0.163305
0.163064
0.16281
0.162664
0.162635
0.162718
0.162798
0.162822
0.162815
0.162721
0.16258
0.162387
0.162152
0.161994
0.161985
0.162131
0.162445
0.163022
0.163856
0.164969
0.166139
0.167318
0.168516
0.169602
0.170408
0.170955
0.171517
0.172153
0.172703
0.172895
0.172617
0.172908
0.174353
0.178399
0.18208
0.183108
0.179932
0.178347
0.176986
0.175651
0.174371
0.173146
0.171977
0.170896
0.169934
0.1691
0.168392
0.16783
0.16733
0.166896
0.166556
0.166309
0.166132
0.166006
0.165953
0.165905
0.165836
0.165713
0.165514
0.165244
0.164925
0.164608
0.164361
0.164177
0.164027
0.163896
0.163758
0.163597
0.163381
0.163076
0.16269
0.162409
0.162279
0.162222
0.162242
0.162355
0.162617
0.163058
0.163694
0.164458
0.164978
0.165231
0.165328
0.165336
0.165259
0.165064
0.1648
0.164541
0.164302
0.164122
0.16405
0.164102
0.164204
0.164217
0.164191
0.164053
0.163848
0.163675
0.163583
0.163676
0.164057
0.164729
0.165744
0.167134
0.169156
0.171697
0.174597
0.177653
0.180844
0.183814
0.186075
0.187576
0.189254
0.191364
0.193561
0.194953
0.195226
0.196457
0.199944
0.208946
0.217472
0.220275
0.215108
0.186618
0.18452
0.182462
0.180448
0.178525
0.176757
0.175161
0.173763
0.17257
0.171551
0.170742
0.170042
0.169455
0.169005
0.168686
0.168469
0.168322
0.168268
0.168215
0.16812
0.167938
0.167645
0.167259
0.166813
0.166397
0.166082
0.165835
0.165652
0.165485
0.165306
0.165079
0.16476
0.164331
0.163778
0.163372
0.163164
0.163131
0.163153
0.163296
0.163642
0.164214
0.165015
0.165887
0.16641
0.16667
0.166778
0.166787
0.166697
0.166473
0.166181
0.165918
0.165678
0.165488
0.165414
0.165463
0.165477
0.165423
0.165309
0.165085
0.164819
0.164754
0.164879
0.165211
0.165778
0.166848
0.168577
0.170788
0.173884
0.177798
0.182456
0.187575
0.193168
0.198836
0.203647
0.207433
0.211403
0.216486
0.221754
0.225723
0.227006
0.229826
0.236011
0.250335
0.268265
0.27627
0.271913
0.192331
0.189767
0.18724
0.184738
0.182342
0.180147
0.178174
0.176474
0.175035
0.173821
0.172862
0.172053
0.17138
0.170866
0.170507
0.170273
0.170127
0.170085
0.170042
0.169939
0.169721
0.169366
0.1689
0.168358
0.167869
0.167488
0.167208
0.166985
0.16679
0.16658
0.166317
0.165952
0.16543
0.164705
0.164094
0.163741
0.163631
0.163634
0.163786
0.164198
0.164921
0.165957
0.166932
0.167469
0.167754
0.167897
0.167922
0.167824
0.167552
0.16717
0.16682
0.166503
0.166224
0.166045
0.166039
0.166067
0.166024
0.165938
0.165844
0.165765
0.165765
0.165875
0.166229
0.166979
0.168414
0.170611
0.173481
0.177433
0.182603
0.188927
0.196366
0.205315
0.215695
0.225792
0.234509
0.243304
0.253764
0.264618
0.273284
0.276382
0.281412
0.291213
0.311215
0.343101
0.362422
0.363699
0.198764
0.195646
0.192618
0.189629
0.186688
0.183948
0.18149
0.179402
0.177675
0.176241
0.175123
0.174199
0.173441
0.172861
0.172456
0.172196
0.172042
0.172005
0.171967
0.171853
0.171601
0.171193
0.170659
0.170049
0.169477
0.169051
0.168728
0.168486
0.168255
0.168012
0.167703
0.16726
0.166606
0.165758
0.165043
0.164651
0.16453
0.164539
0.164708
0.165154
0.165929
0.167029
0.168128
0.168776
0.169147
0.16935
0.169403
0.169305
0.168977
0.168498
0.168085
0.16773
0.167425
0.167232
0.167199
0.167186
0.167081
0.166879
0.166732
0.166622
0.166599
0.16673
0.167298
0.168475
0.170368
0.173096
0.17692
0.182159
0.189384
0.198872
0.211513
0.228722
0.250837
0.273896
0.293937
0.312197
0.332704
0.353634
0.371219
0.379003
0.385494
0.399099
0.425211
0.478168
0.527235
0.541171
0.207011
0.203093
0.19939
0.195796
0.192259
0.188905
0.185853
0.183237
0.181096
0.179347
0.178012
0.176949
0.176095
0.175447
0.174998
0.174714
0.174549
0.174524
0.174472
0.17432
0.174002
0.1735
0.172859
0.172118
0.171477
0.170974
0.170608
0.170327
0.170077
0.169801
0.169446
0.168933
0.168194
0.167188
0.166274
0.165763
0.165562
0.165557
0.165745
0.166284
0.16726
0.168653
0.169975
0.170748
0.171187
0.17142
0.171474
0.171338
0.170904
0.170253
0.16965
0.169138
0.168687
0.168377
0.168292
0.168232
0.168083
0.167834
0.167634
0.167503
0.16756
0.167915
0.168821
0.170419
0.172839
0.17625
0.181372
0.188757
0.199764
0.215862
0.239801
0.274592
0.319683
0.366012
0.405105
0.438632
0.474888
0.511651
0.544801
0.565725
0.57727
0.596236
0.627972
0.685881
0.762665
0.799889
0.217505
0.212309
0.207479
0.202972
0.198684
0.194647
0.190948
0.187713
0.185056
0.182896
0.181261
0.180012
0.179047
0.178336
0.177859
0.177569
0.177416
0.177415
0.177366
0.177191
0.176811
0.176218
0.175457
0.174604
0.173829
0.173268
0.172847
0.172542
0.172246
0.171934
0.171525
0.170921
0.170031
0.168803
0.167618
0.167004
0.166768
0.166752
0.166946
0.167543
0.168641
0.170217
0.171784
0.172742
0.173312
0.173619
0.17368
0.173499
0.172929
0.17207
0.171273
0.170623
0.170063
0.169658
0.169453
0.169326
0.169156
0.168913
0.168801
0.168758
0.168924
0.169481
0.170627
0.172646
0.175775
0.180319
0.187472
0.198722
0.217113
0.246681
0.292151
0.355966
0.43322
0.510265
0.573681
0.623461
0.670543
0.716597
0.76106
0.793728
0.797097
0.804305
0.823934
0.862304
0.933339
0.98429
0.23304
0.225685
0.218854
0.212616
0.206984
0.201916
0.197394
0.193428
0.190153
0.187462
0.185402
0.183856
0.18269
0.181851
0.181303
0.180982
0.180825
0.180848
0.180796
0.180587
0.180134
0.179426
0.178535
0.177514
0.176659
0.175998
0.175536
0.175164
0.17485
0.174499
0.174037
0.173338
0.172287
0.170873
0.16951
0.168782
0.168512
0.168511
0.168775
0.169508
0.170829
0.172715
0.174683
0.175927
0.176625
0.176922
0.176917
0.176552
0.175679
0.17452
0.173536
0.172721
0.172036
0.17151
0.171215
0.170965
0.170663
0.170305
0.17016
0.170142
0.170395
0.17114
0.17263
0.175263
0.179473
0.185967
0.196472
0.214772
0.247346
0.301079
0.3791
0.477687
0.583158
0.676857
0.746125
0.796923
0.843488
0.888465
0.956788
1.00398
0.979257
0.965135
0.973899
0.994099
1.03749
1.07865
0.256896
0.245767
0.235541
0.226283
0.21816
0.211196
0.205299
0.200324
0.196292
0.192996
0.190451
0.188546
0.187118
0.186089
0.185419
0.185029
0.184843
0.184868
0.184797
0.184539
0.183997
0.183171
0.182129
0.180972
0.179942
0.179215
0.178657
0.178274
0.177899
0.177508
0.176984
0.176204
0.175035
0.173383
0.171702
0.170788
0.170408
0.170377
0.170657
0.171506
0.17306
0.175299
0.177738
0.179291
0.180157
0.180517
0.180492
0.18
0.178856
0.177355
0.176081
0.175038
0.174166
0.173482
0.173042
0.172648
0.172241
0.171798
0.17161
0.171627
0.172044
0.173127
0.17518
0.17873
0.184506
0.193847
0.210201
0.241726
0.299367
0.389026
0.507527
0.640069
0.757794
0.836401
0.883481
0.926542
0.973777
1.07017
1.2935
1.45043
1.26396
1.14915
1.1322
1.13406
1.13508
1.14728
0.297354
0.278945
0.262571
0.248147
0.235653
0.225137
0.216554
0.209663
0.204318
0.200117
0.196916
0.194556
0.192789
0.191499
0.190639
0.190121
0.189853
0.189837
0.189714
0.189362
0.188692
0.187701
0.186485
0.185105
0.183965
0.183085
0.182491
0.182023
0.181634
0.181202
0.180631
0.179743
0.178402
0.176541
0.174541
0.173397
0.17296
0.17295
0.173282
0.174267
0.17606
0.178676
0.181733
0.183769
0.184846
0.185217
0.185109
0.184328
0.182701
0.180754
0.179204
0.177904
0.176807
0.175948
0.175317
0.174738
0.174195
0.173693
0.173526
0.173631
0.174273
0.175797
0.17858
0.183411
0.191423
0.205748
0.234058
0.290171
0.387394
0.529558
0.712933
0.916974
1.07154
1.13114
1.10723
1.14075
1.23546
1.51065
2.36356
2.97107
2.34923
1.75723
1.52625
1.44923
1.35798
1.28485
0.367847
0.335047
0.307091
0.283561
0.263725
0.247196
0.233848
0.223374
0.215501
0.20964
0.205327
0.202268
0.200033
0.198391
0.197265
0.196556
0.196146
0.196015
0.19578
0.19528
0.194424
0.193232
0.191792
0.190221
0.188829
0.187848
0.187123
0.186631
0.186173
0.185701
0.185061
0.184092
0.182605
0.180494
0.178187
0.176808
0.176245
0.176195
0.176577
0.177755
0.179909
0.183035
0.18682
0.189485
0.190826
0.191223
0.190993
0.189834
0.187603
0.185095
0.183222
0.181639
0.180266
0.179203
0.178397
0.177598
0.176861
0.176229
0.176028
0.176192
0.177061
0.179125
0.182904
0.189571
0.201521
0.225651
0.276354
0.372616
0.530508
0.766149
1.09235
1.49966
1.83119
2.06123
2.37688
2.90847
2.35318
2.50868
4.38828
5.42616
5.49456
3.69696
2.61723
2.18374
1.8111
1.59901
0.487119
0.428893
0.380503
0.341033
0.308759
0.282343
0.261124
0.244521
0.232121
0.223142
0.216709
0.212335
0.209258
0.207036
0.205498
0.204478
0.203839
0.203485
0.203042
0.202314
0.201205
0.19974
0.198035
0.196165
0.194614
0.193437
0.192637
0.192057
0.19157
0.191053
0.190366
0.189304
0.187665
0.185335
0.182651
0.181006
0.180307
0.180235
0.180648
0.182
0.184555
0.188315
0.192964
0.196326
0.197999
0.19847
0.19814
0.19654
0.193563
0.190335
0.187955
0.185975
0.184246
0.182846
0.181819
0.180821
0.179951
0.179213
0.178963
0.179197
0.180374
0.183186
0.188411
0.198033
0.21721
0.258458
0.345721
0.505998
0.76402
1.17828
1.76505
2.4489
2.90425
3.37096
3.91461
4.8311
4.37843
6.36526
7.70848
7.59836
9.82865
15.2215
16.1063
8.18907
2.87452
2.05213
0.669656
0.576682
0.499153
0.434989
0.382397
0.339592
0.305294
0.278435
0.25832
0.243781
0.23346
0.226539
0.221776
0.218399
0.216067
0.214469
0.213425
0.212645
0.2118
0.210699
0.209232
0.207434
0.205399
0.203276
0.201439
0.200089
0.199145
0.1985
0.197957
0.197389
0.196662
0.195545
0.19382
0.191344
0.188337
0.186342
0.185456
0.185353
0.185823
0.18739
0.190398
0.194934
0.200716
0.205003
0.207103
0.20765
0.207165
0.204984
0.201015
0.196872
0.193838
0.191288
0.189043
0.187212
0.185867
0.184577
0.183545
0.182731
0.182483
0.182881
0.184535
0.188412
0.19585
0.210552
0.242024
0.310066
0.45623
0.727176
1.15962
1.87313
2.69098
3.4838
3.70817
6.58109
6.02341
5.75443
6.15142
6.65296
5.56179
5.18333
15.6777
35.1697
34.2696
32.2426
3.4083
2.4223
0.875456
0.781333
0.678905
0.585802
0.504972
0.436728
0.380686
0.336021
0.302228
0.277617
0.260165
0.248354
0.240254
0.234545
0.230561
0.227749
0.225851
0.224266
0.222668
0.220902
0.218865
0.216567
0.214076
0.211575
0.209496
0.207895
0.206795
0.206088
0.205518
0.20496
0.204226
0.203102
0.201359
0.198811
0.195606
0.193256
0.192167
0.191997
0.192496
0.194324
0.197992
0.203627
0.210875
0.216283
0.218889
0.219518
0.218821
0.21591
0.210678
0.205309
0.201378
0.198062
0.195125
0.192664
0.190843
0.189276
0.188025
0.187072
0.186851
0.187514
0.189875
0.195341
0.206385
0.229519
0.279908
0.387576
0.632472
1.10157
1.82695
2.84742
3.64247
5.29079
5.32307
6.8159
5.48314
4.60754
4.09224
3.64353
3.11689
3.38228
4.03084
5.59248
4.83589
4.43326
3.82266
2.88657
1.06472
1.00644
0.919042
0.810848
0.702858
0.6027
0.514388
0.439965
0.381323
0.337538
0.306263
0.284806
0.269991
0.259511
0.252076
0.246733
0.242928
0.239752
0.236761
0.233801
0.230815
0.227782
0.224649
0.221756
0.219302
0.217349
0.216036
0.215204
0.214657
0.214113
0.213458
0.212451
0.210826
0.208375
0.205149
0.202534
0.201267
0.201072
0.201701
0.203973
0.208507
0.21548
0.224437
0.231104
0.234402
0.235213
0.234326
0.230568
0.223747
0.216557
0.211242
0.206799
0.202841
0.199532
0.197102
0.19506
0.193482
0.19238
0.19222
0.193331
0.196824
0.204851
0.221804
0.257859
0.335001
0.501637
0.917024
1.73428
2.8328
4.02277
5.84323
5.07667
4.78193
5.26983
3.96536
2.91007
2.59932
2.48653
2.45886
2.70575
3.21227
3.05595
2.26347
2.10584
2.3777
2.46073
1.25159
1.22801
1.18031
1.10655
1.0014
0.876234
0.749117
0.632608
0.532376
0.452537
0.392889
0.351123
0.322106
0.301504
0.286697
0.275984
0.268032
0.261634
0.256039
0.250936
0.246272
0.241977
0.237858
0.234262
0.231324
0.228945
0.227243
0.226363
0.225876
0.225524
0.225077
0.224328
0.223025
0.220922
0.217991
0.215357
0.214078
0.213929
0.214792
0.217714
0.223318
0.231887
0.242855
0.251126
0.255386
0.256585
0.255734
0.251315
0.242615
0.232674
0.225137
0.218856
0.213375
0.208627
0.205002
0.202256
0.200317
0.199011
0.198982
0.200832
0.206188
0.218417
0.244553
0.298831
0.412822
0.672881
1.38249
2.72324
4.3005
6.98852
5.64905
4.33764
3.22721
2.71662
2.06895
1.68436
1.59683
1.57015
1.5436
1.56275
1.84832
1.71689
1.43391
1.43962
1.64787
1.90969
1.47584
1.46053
1.42541
1.39006
1.33827
1.25807
1.13894
0.987099
0.827536
0.686435
0.570164
0.48387
0.422424
0.378401
0.347033
0.324578
0.307893
0.294862
0.284177
0.275179
0.267614
0.261209
0.255603
0.250845
0.247078
0.24405
0.241923
0.240734
0.240359
0.240237
0.240141
0.239883
0.239212
0.237876
0.235782
0.233558
0.232563
0.232591
0.233802
0.237429
0.244278
0.254713
0.268104
0.278594
0.284373
0.286317
0.285612
0.280895
0.270415
0.256915
0.245728
0.23648
0.228397
0.221719
0.216503
0.212334
0.20957
0.207984
0.20821
0.211255
0.219556
0.238165
0.277518
0.356559
0.524343
0.944102
2.11987
3.94601
6.49761
6.56624
4.74391
2.82098
1.83412
1.57896
1.39395
1.30989
1.30312
1.32275
1.30868
1.26716
1.22966
1.17513
1.23279
1.28723
1.33554
1.39889
1.71454
1.67679
1.6461
1.62602
1.61333
1.5869
1.54174
1.45992
1.3366
1.16022
0.951943
0.768146
0.633975
0.532976
0.46158
0.411561
0.375916
0.349271
0.328441
0.311921
0.29889
0.28863
0.28016
0.273369
0.268141
0.264283
0.26149
0.260027
0.259649
0.259893
0.26051
0.261108
0.261451
0.261384
0.260801
0.259624
0.258818
0.258876
0.260304
0.264625
0.272852
0.285474
0.302018
0.315937
0.324047
0.327326
0.32695
0.322024
0.309853
0.292194
0.275798
0.262191
0.250347
0.240634
0.233341
0.227147
0.223032
0.220714
0.221162
0.225929
0.23857
0.266588
0.324264
0.438755
0.692179
1.39222
3.09828
5.15957
10.3244
5.29366
3.05428
1.74877
1.39985
1.32991
1.30211
1.30482
1.3287
1.3611
1.36766
1.32937
1.25102
1.29193
1.4094
1.38009
1.3233
1.32561
2.3588
1.891
1.81569
1.79103
1.78616
1.7991
1.81014
1.80363
1.76946
1.69813
1.56311
1.35611
1.10302
0.867467
0.698507
0.580956
0.501372
0.445303
0.403911
0.372637
0.348938
0.330962
0.31712
0.306587
0.298845
0.293341
0.289736
0.287727
0.28716
0.287502
0.288773
0.290743
0.292893
0.294399
0.295288
0.295398
0.295118
0.295177
0.296647
0.301327
0.310625
0.325394
0.345665
0.365183
0.377305
0.383306
0.383986
0.379566
0.366099
0.344192
0.320063
0.299007
0.280736
0.265581
0.254718
0.246545
0.24082
0.237938
0.238846
0.245908
0.264766
0.305951
0.390833
0.559596
0.963985
2.11382
4.08641
10.8872
8.23791
3.36586
1.86904
1.39721
1.31583
1.30398
1.30812
1.32387
1.34546
1.35065
1.36457
1.3939
1.41691
1.58895
1.4788
1.32108
1.31103
1.31739
10.2616
6.78476
3.07092
2.0885
1.86565
1.8822
1.91594
1.94686
1.97401
1.98568
1.97038
1.89537
1.74581
1.51565
1.21784
0.939646
0.752307
0.628382
0.542523
0.480689
0.435311
0.401667
0.376455
0.358289
0.345542
0.337095
0.331856
0.329313
0.328773
0.329441
0.331418
0.334744
0.33932
0.343527
0.346338
0.347294
0.347181
0.346786
0.347488
0.3514
0.360702
0.376867
0.400416
0.427737
0.446967
0.458622
0.462567
0.460043
0.44664
0.420541
0.387053
0.354393
0.325091
0.300233
0.281886
0.270087
0.263633
0.260363
0.262273
0.272943
0.300945
0.362014
0.488603
0.746573
1.42365
3.06982
5.11434
15.7543
5.56836
2.09798
1.44456
1.31
1.28609
1.27936
1.27591
1.26043
1.24965
1.20445
1.19689
1.30544
1.56308
1.74632
1.24949
0.988416
1.08742
1.18001
7.4834
9.11227
9.3744
7.59737
4.73729
2.47503
2.03793
1.95903
1.9879
2.02403
2.06583
2.10228
2.07886
2.0189
1.87728
1.62862
1.29532
1.00967
0.8166
0.687476
0.597003
0.531497
0.482892
0.448328
0.424886
0.410117
0.401794
0.398266
0.398041
0.399923
0.403801
0.409367
0.416673
0.423971
0.428622
0.429731
0.428857
0.426197
0.424334
0.425735
0.43313
0.449363
0.475259
0.509211
0.53974
0.561397
0.573442
0.575279
0.564905
0.536446
0.492753
0.443031
0.396103
0.355509
0.324469
0.304286
0.294442
0.290631
0.294375
0.310982
0.352836
0.444311
0.635547
1.0514
2.17234
4.07094
13.1537
12.3888
3.31146
1.56815
1.31607
1.26446
1.22185
1.1839
1.13652
1.05896
1.00831
0.920464
0.902478
1.13894
1.57402
1.39243
0.884436
0.747681
0.824933
0.97578
2.72349
3.5625
4.81495
6.48692
7.55558
7.39062
6.06009
4.17443
2.35637
1.91387
1.88828
1.94992
2.07074
2.14007
2.17217
2.12763
1.98607
1.73099
1.39757
1.10966
0.914612
0.783256
0.686429
0.61719
0.570227
0.542271
0.528054
0.523826
0.525369
0.530917
0.53847
0.547281
0.558136
0.567529
0.571521
0.570911
0.566246
0.556934
0.547507
0.543934
0.547137
0.562132
0.591657
0.633048
0.676453
0.711614
0.737417
0.74874
0.744006
0.716016
0.660934
0.586914
0.510243
0.443945
0.392974
0.358809
0.341493
0.335113
0.340978
0.366462
0.429017
0.566661
0.860943
1.55401
3.22384
5.30669
21.2947
8.18149
2.14865
1.365
1.25219
1.18988
1.07341
0.984112
0.886601
0.775342
0.716238
0.643683
0.659016
0.913136
1.25976
0.956432
0.666341
0.60705
0.664094
0.7922
1.45342
1.72924
2.09709
2.59711
3.3182
4.27771
5.31463
5.7767
5.22898
3.98922
2.59697
1.62547
1.55191
1.63928
1.89184
2.15531
2.26254
2.23316
2.11824
1.8901
1.57313
1.29314
1.08822
0.947777
0.854123
0.799043
0.777865
0.775696
0.782563
0.793532
0.800436
0.806954
0.815493
0.820435
0.819927
0.813788
0.797877
0.773335
0.749194
0.734559
0.731285
0.741184
0.771765
0.821829
0.88177
0.939053
0.986621
1.01636
1.02164
0.996511
0.928233
0.820905
0.697545
0.588244
0.504152
0.446129
0.415977
0.403708
0.411254
0.448551
0.541709
0.749364
1.21322
2.34042
4.36218
6.96001
17.3768
4.85119
1.64387
1.26043
1.17298
1.04839
0.840914
0.722061
0.625279
0.558405
0.513847
0.466231
0.514388
0.722739
0.881683
0.745294
0.540032
0.498614
0.596317
0.683775
0.99899
1.1362
1.29367
1.47971
1.72443
2.0345
2.42749
2.84976
3.24214
3.57021
3.54574
3.31734
3.26654
2.09767
1.25725
1.13656
1.3047
1.96627
2.328
2.43509
2.41097
2.25564
1.92437
1.57059
1.39542
1.28396
1.24144
1.24555
1.27026
1.28247
1.27716
1.26533
1.24989
1.23795
1.22791
1.20641
1.16471
1.10767
1.05672
1.02335
1.00894
1.01322
1.04342
1.10395
1.18443
1.27266
1.35501
1.41982
1.44826
1.43304
1.3523
1.19843
1.00413
0.823352
0.683332
0.58518
0.531648
0.508577
0.517864
0.571023
0.709317
1.02451
1.75665
3.44095
5.56001
20.7577
12.3287
2.79965
1.40097
1.15994
1.04007
0.83392
0.608164
0.519903
0.453444
0.415455
0.380544
0.35074
0.419968
0.621565
0.680537
0.533336
0.451687
0.412452
0.594893
0.670929
0.753303
0.844164
0.942979
1.05048
1.18003
1.33055
1.51235
1.70627
1.92021
2.162
2.44737
2.82076
3.19678
3.49017
3.3673
2.20727
1.07328
0.836456
1.07074
1.60978
2.49044
2.88262
3.04769
2.96433
2.52807
2.16485
2.00979
1.98193
2.00607
2.0161
1.99836
1.94943
1.87966
1.83312
1.79758
1.75271
1.68565
1.59567
1.5043
1.44129
1.41093
1.40911
1.43697
1.50371
1.60128
1.72095
1.85514
1.97244
2.04197
2.05217
1.98554
1.80183
1.5191
1.21518
0.972926
0.80517
0.710997
0.668285
0.678322
0.754186
0.960191
1.43963
2.55107
4.63061
6.87051
21.3113
7.74097
1.9536
1.24315
1.026
0.843638
0.607497
0.453634
0.389012
0.343103
0.317764
0.289264
0.281619
0.371405
0.560759
0.571594
0.430743
0.366543
0.326908
0.564951
0.662657
0.578989
0.644798
0.717383
0.795249
0.888681
0.993113
1.11547
1.23824
1.36067
1.48709
1.62104
1.79192
2.10099
2.66885
3.28017
3.59917
3.27765
2.67146
1.63681
1.12715
1.25826
1.84114
2.89562
4.13597
4.65755
4.24285
3.70165
3.33452
3.18532
3.08182
2.96186
2.79685
2.60312
2.43798
2.3191
2.22127
2.1311
2.04182
1.95298
1.89187
1.86748
1.8699
1.89827
1.95949
2.06101
2.21207
2.4032
2.57762
2.69946
2.75899
2.74038
2.59762
2.3047
1.86867
1.44798
1.15861
0.990353
0.912365
0.919892
1.02806
1.33451
2.0478
3.61955
5.74573
12.0113
18.4185
4.60266
1.53777
1.08972
0.837161
0.626568
0.456509
0.352195
0.305072
0.275199
0.257278
0.235937
0.242152
0.334836
0.486225
0.530506
0.417017
0.302958
0.265815
0.422498
0.538729
0.446268
0.493514
0.548014
0.606588
0.677981
0.757771
0.851727
0.945283
1.03647
1.12138
1.19772
1.27609
1.38927
1.56835
1.88262
2.34466
2.7244
2.92613
3.03754
3.04359
3.01275
3.07394
3.41857
4.00819
4.77118
5.19991
6.76622
7.31819
7.1782
6.62932
5.46153
4.45939
3.69712
3.15685
2.8301
2.60417
2.43069
2.31146
2.2433
2.20167
2.17693
2.16788
2.18255
2.2534
2.41225
2.68333