/*--------------------------------*- C++ -*----------------------------------*\
| =========                 |                                                 |
| \\      /  F ield         | OpenFOAM: The Open Source CFD Toolbox           |
|  \\    /   O peration     | Version:  v1912                                 |
|   \\  /    A nd           | Website:  www.openfoam.com                      |
|    \\/     M anipulation  |                                                 |
\*---------------------------------------------------------------------------*/
FoamFile
{
    version     2.0;
    format      ascii;
    class       volScalarField;
    location    "90";
    object      alpha.water;
}
// * * * * * * * * * * * * * * * * * * * * * * * * * * * * * * * * * * * * * //

dimensions      [0 0 0 0 0 0 0];


internalField   nonuniform List<scalar> 
14268
(
0.753312
0.443488
0.082
0.0174058
0.0236751
0.0250693
0.0171456
0.00252677
4.41446e-05
4.41495e-05
6.0839e-05
8.04988e-05
9.71649e-05
0.00011005
0.000110341
9.92603e-05
6.37929e-05
3.32783e-05
2.61166e-05
2.44891e-05
2.22499e-05
2.13925e-05
2.28063e-05
3.18024e-05
4.34303e-05
5.12537e-05
5.6969e-05
6.6247e-05
9.12306e-05
9.12367e-05
9.12306e-05
9.12319e-05
8.83254e-05
8.3325e-05
7.73519e-05
7.10208e-05
6.03247e-05
3.68047e-05
1.08324e-05
4.28143e-06
4.27166e-06
6.84147e-06
1.17077e-05
1.26462e-05
1.3733e-05
1.33315e-05
1.33306e-05
1.32408e-05
1.27003e-05
1.23972e-05
1.2398e-05
1.23954e-05
1.23975e-05
1.2395e-05
1.23973e-05
1.23956e-05
1.23967e-05
1.31947e-05
2.36831e-05
4.61217e-05
5.2863e-05
5.2863e-05
5.02962e-05
2.37145e-05
3.28698e-06
4.17257e-07
3.61749e-07
4.35647e-07
1.26905e-06
1.0178e-05
5.69679e-05
8.57286e-05
8.5728e-05
8.43558e-05
8.02944e-05
7.82945e-05
7.82939e-05
7.82932e-05
7.82926e-05
6.57566e-05
2.05484e-05
4.95943e-07
1.7319e-27
-1.10764e-27
-5.74929e-28
-1.51192e-28
-3.73258e-29
-1.12366e-29
-3.7786e-30
-1.25791e-30
-4.0696e-31
-1.29903e-31
-4.09793e-32
-1.25736e-32
-3.67862e-33
-1.01173e-33
-2.59692e-34
-6.20622e-35
-1.38118e-35
-2.86624e-36
-5.55577e-37
-1.00756e-37
-1.71212e-38
-2.72932e-39
-4.08551e-40
-5.74666e-41
-7.59952e-42
-9.45171e-43
-1.10582e-43
-1.21722e-44
-1.26063e-45
-1.22843e-46
-1.1263e-47
-9.71607e-49
-7.88594e-50
-6.02189e-51
-4.32636e-52
-2.92427e-53
-1.85958e-54
-1.11254e-55
-6.26202e-57
-3.316e-58
-1.65201e-59
-7.743e-61
-3.41431e-62
-1.41641e-63
-5.52793e-65
-2.02962e-66
-7.01025e-68
-2.27774e-69
-6.96151e-71
-2.0013e-72
-5.4113e-74
-1.37607e-75
-3.29079e-77
-7.40019e-79
-1.5647e-80
-3.11047e-82
-5.81286e-84
-1.02112e-85
-1.68595e-87
-2.61605e-89
-3.81451e-91
-5.22605e-93
-6.72676e-95
-8.13357e-97
-9.23732e-99
-9.85223e-101
-9.86624e-103
-9.27303e-105
0.544871
0.435313
0.128415
0.014772
0.0136633
0.0187158
0.0182249
0.00428071
9.49138e-05
0.000249191
0.000251766
0.000284024
0.000284004
0.000281177
0.000292687
0.00029266
0.000284721
0.000247863
0.00022459
0.000198031
0.000126428
3.987e-05
8.20253e-06
8.20242e-06
8.29123e-06
8.29125e-06
1.10758e-05
2.88541e-05
5.87507e-05
8.36119e-05
7.27629e-05
5.18381e-05
3.15236e-05
2.39594e-05
1.72629e-05
1.44089e-05
1.44084e-05
1.35598e-05
7.6924e-06
4.27166e-06
4.27166e-06
4.27166e-06
5.08112e-06
1.09698e-05
1.43906e-05
1.81344e-05
2.15303e-05
2.32312e-05
2.30022e-05
2.18594e-05
2.15513e-05
2.28411e-05
2.27948e-05
2.06811e-05
1.98909e-05
1.91275e-05
1.64325e-05
1.09937e-05
1.01909e-05
1.05788e-05
1.61236e-05
3.31972e-05
4.32488e-05
3.66434e-05
1.53137e-05
1.53554e-06
1.81721e-07
1.81724e-07
6.66611e-07
5.8717e-06
3.22202e-05
5.58945e-05
5.26954e-05
3.79163e-05
2.16485e-05
1.79553e-05
2.03995e-05
2.96658e-05
4.32419e-05
4.87103e-05
3.66283e-05
1.03284e-05
4.33989e-08
8.54496e-22
2.49316e-40
-2.18094e-28
-3.11668e-29
-4.93803e-30
-1.66368e-30
-7.38411e-31
-3.18391e-31
-1.26204e-31
-4.56302e-32
-1.50579e-32
-4.54906e-33
-1.26298e-33
-3.23516e-34
-7.67378e-35
-1.69092e-35
-3.47061e-36
-6.64998e-37
-1.19162e-37
-1.99968e-38
-3.14588e-39
-4.64334e-40
-6.43414e-41
-8.37394e-42
-1.02406e-42
-1.17713e-43
-1.27224e-44
-1.29327e-45
-1.23685e-46
-1.11319e-47
-9.43124e-49
-7.52348e-50
-5.65221e-51
-3.99993e-52
-2.66678e-53
-1.67522e-54
-9.91607e-56
-5.53097e-57
-2.90706e-58
-1.43971e-59
-6.71784e-61
-2.95305e-62
-1.22277e-63
-4.76849e-65
-1.75111e-66
-6.05426e-68
-1.97037e-69
-6.03522e-71
-1.73945e-72
-4.71659e-74
-1.20298e-75
-2.88553e-77
-6.50811e-79
-1.37999e-80
-2.75055e-82
-5.15251e-84
-9.07007e-86
-1.50016e-87
-2.33096e-89
-3.40214e-91
-4.66372e-93
-6.0038e-95
-7.25734e-97
-8.23628e-99
-8.77453e-101
-8.77322e-103
-8.22947e-105
0.307646
0.335865
0.178494
0.0342255
0.00576157
0.00864939
0.012428
0.00524205
0.000333973
0.000428971
0.00038115
0.000234721
0.000112638
5.49813e-05
6.72655e-05
0.000151924
0.000420799
0.0005037
0.000503702
0.000503096
0.000308014
0.000122143
2.5762e-05
1.59959e-05
1.78974e-05
2.56312e-05
2.46468e-05
2.42396e-05
3.33821e-05
4.70713e-05
4.23861e-05
4.2265e-05
5.5096e-05
8.96624e-05
9.6346e-05
7.75327e-05
4.08003e-05
1.53111e-05
1.05382e-05
6.10337e-06
4.53268e-06
4.27166e-06
6.32039e-06
1.66065e-05
3.22094e-05
3.97456e-05
4.00238e-05
3.89657e-05
3.54177e-05
3.38991e-05
3.45472e-05
3.4545e-05
3.45472e-05
3.12249e-05
3.43412e-05
3.4545e-05
3.45467e-05
3.24585e-05
1.98059e-05
1.11913e-05
1.11221e-05
1.38662e-05
2.37658e-05
2.84591e-05
2.40824e-05
9.90496e-06
1.52005e-06
5.84735e-07
5.87497e-07
2.19132e-06
1.24237e-05
2.39904e-05
2.30821e-05
1.62351e-05
7.69479e-06
3.22618e-06
3.36387e-06
5.38188e-06
1.20997e-05
2.1791e-05
2.55593e-05
1.60511e-05
2.50399e-06
2.15567e-19
3.2304e-30
-1.5264e-30
-6.04415e-31
-4.62922e-31
-3.74391e-31
-2.47101e-31
-1.34138e-31
-6.16606e-32
-2.45786e-32
-8.65164e-33
-2.72747e-33
-7.78693e-34
-2.03113e-34
-4.87389e-35
-1.0817e-35
-2.22956e-36
-4.28118e-37
-7.67657e-38
-1.28766e-38
-2.02324e-39
-2.98092e-40
-4.12162e-41
-5.35176e-42
-6.52973e-43
-7.49023e-44
-8.08176e-45
-8.20577e-46
-7.84346e-47
-7.06032e-48
-5.98688e-49
-4.78349e-50
-3.60196e-51
-2.55646e-52
-1.71032e-53
-1.0786e-54
-6.41167e-56
-3.59229e-57
-1.89674e-58
-9.4365e-60
-4.42291e-61
-1.95261e-62
-8.1179e-64
-3.17765e-65
-1.17088e-66
-4.06046e-68
-1.32498e-69
-4.06751e-71
-1.1745e-72
-3.18939e-74
-8.14361e-76
-1.95484e-77
-4.41089e-79
-9.35407e-81
-1.86412e-82
-3.49053e-84
-6.14045e-86
-1.01473e-87
-1.57505e-89
-2.29607e-91
-3.14323e-93
-4.04044e-95
-4.87631e-97
-5.52483e-99
-5.87565e-101
-5.86425e-103
-5.49066e-105
0.301513
0.299091
0.216746
0.0519871
0.00578287
0.00529318
0.00937666
0.00585762
0.000538385
0.000214327
8.25604e-05
3.85929e-05
1.21234e-05
3.42197e-06
3.37136e-06
6.03121e-06
5.33612e-05
0.00020408
0.000215343
0.000170318
0.000197179
0.000190929
0.00015499
0.000101674
9.60132e-05
0.000107956
9.16006e-05
3.97847e-05
1.87342e-05
1.83268e-05
2.28287e-05
6.35825e-05
0.000151619
0.000188895
0.000188882
0.000184724
0.000114455
3.3639e-05
5.86554e-06
5.77697e-06
6.19572e-06
6.69582e-06
1.6933e-05
5.71714e-05
6.38239e-05
4.8715e-05
1.78387e-05
9.90015e-06
9.89934e-06
1.24812e-05
1.69262e-05
2.47883e-05
2.79461e-05
2.85656e-05
1.54074e-05
1.10719e-05
1.10713e-05
1.53222e-05
2.40718e-05
2.45142e-05
1.90327e-05
1.24289e-05
1.33411e-05
1.52205e-05
1.55765e-05
1.25102e-05
8.56665e-06
6.30033e-06
3.21929e-06
2.42513e-06
3.76015e-06
7.57446e-06
7.93811e-06
6.11554e-06
2.93911e-06
8.22065e-07
5.81062e-07
7.87353e-07
2.11608e-06
7.35146e-06
1.39823e-05
1.40315e-05
4.7529e-06
7.08757e-08
1.22147e-21
1.16877e-41
-7.9748e-30
-1.3384e-30
-4.2906e-31
-2.56264e-31
-1.35623e-31
-5.95992e-32
-2.23472e-32
-7.33029e-33
-2.14592e-33
-5.69844e-34
-1.39069e-34
-3.15069e-35
-6.67344e-36
-1.32732e-36
-2.48469e-37
-4.38119e-38
-7.27678e-39
-1.13806e-39
-1.67538e-40
-2.32107e-41
-3.02594e-42
-3.71259e-43
-4.28769e-44
-4.66242e-45
-4.77481e-46
-4.60645e-47
-4.18727e-48
-3.58689e-49
-2.8958e-50
-2.20342e-51
-1.58015e-52
-1.06792e-53
-6.80097e-55
-4.0807e-56
-2.30651e-57
-1.22788e-58
-6.15537e-60
-2.90514e-61
-1.29066e-62
-5.3965e-64
-2.12321e-65
-7.8593e-67
-2.73664e-68
-8.96254e-70
-2.76034e-71
-7.99389e-73
-2.17652e-74
-5.57087e-76
-1.34027e-77
-3.03058e-79
-6.43988e-81
-1.2859e-82
-2.41253e-84
-4.25241e-86
-7.04139e-88
-1.09522e-89
-1.60004e-91
-2.19535e-93
-2.82873e-95
-3.42254e-97
-3.88807e-99
-4.14664e-101
-4.15097e-103
-3.8988e-105
0.190463
0.192711
0.163867
0.0834022
0.0124228
0.00378306
0.00753854
0.00790529
0.00171836
2.71811e-05
2.19431e-05
2.38964e-05
1.12105e-05
3.45354e-06
3.37136e-06
3.41636e-06
8.34427e-06
2.10929e-05
2.94793e-05
6.60523e-05
0.000206552
0.000354215
0.000346976
0.000278737
0.000239114
0.000246459
0.000212487
9.84358e-05
1.057e-05
8.86036e-06
3.46574e-05
0.000116719
0.000116126
0.000119232
0.000157065
0.000184702
0.000170301
7.6174e-05
1.06379e-05
5.77862e-06
2.10926e-05
2.73041e-05
5.99067e-05
6.42476e-05
4.71464e-05
1.80398e-05
1.56463e-05
2.24768e-05
2.923e-05
3.62064e-05
3.2817e-05
2.285e-05
2.11705e-05
3.03116e-05
3.67436e-05
3.62756e-05
2.84082e-05
1.22699e-05
1.05285e-05
1.17003e-05
1.22978e-05
1.13183e-05
9.05001e-06
8.55276e-06
1.02882e-05
1.33106e-05
1.33917e-05
1.33912e-05
1.2127e-05
5.40168e-06
1.81827e-06
1.81851e-06
1.79204e-06
1.41659e-06
7.43569e-07
3.40937e-07
3.40108e-07
3.42148e-07
6.78887e-07
2.82985e-06
8.18936e-06
1.02342e-05
5.36402e-06
4.54669e-07
4.72219e-20
2.60075e-33
-5.81462e-30
-2.66388e-30
-1.05082e-30
-4.74471e-31
-2.06645e-31
-7.90683e-32
-2.64011e-32
-7.79912e-33
-2.07128e-33
-5.02255e-34
-1.12814e-34
-2.37713e-35
-4.74568e-36
-9.0333e-37
-1.64367e-37
-2.85754e-38
-4.73536e-39
-7.45731e-40
-1.11284e-40
-1.57002e-41
-2.09067e-42
-2.62478e-43
-3.10478e-44
-3.45872e-45
-3.62772e-46
-3.58187e-47
-3.3288e-48
-2.91149e-49
-2.39633e-50
-1.85581e-51
-1.35215e-52
-9.26777e-54
-5.97498e-55
-3.62296e-56
-2.06593e-57
-1.10778e-58
-5.58533e-60
-2.64771e-61
-1.18003e-62
-4.94424e-64
-1.94748e-65
-7.21108e-67
-2.50996e-68
-8.21225e-70
-2.52565e-71
-7.3011e-73
-1.98378e-74
-5.06613e-76
-1.21597e-77
-2.74291e-79
-5.81477e-81
-1.15841e-82
-2.16864e-84
-3.81488e-86
-6.30553e-88
-9.79226e-90
-1.4287e-91
-1.95823e-93
-2.52131e-95
-3.04921e-97
-3.46345e-99
-3.69437e-101
-3.69993e-103
-3.47786e-105
0.186548
0.180749
0.111306
0.0327268
0.00363353
0.00325428
0.00562563
0.00790163
0.00348535
4.18953e-05
1.00642e-05
2.28405e-05
2.14909e-05
1.27192e-05
1.73615e-05
2.88866e-05
2.31251e-05
2.83365e-05
8.4608e-05
0.000238971
0.000504823
0.000505855
0.000505818
0.000505855
0.000437544
0.000363711
0.000309812
0.000193642
2.60847e-05
1.02057e-05
3.46902e-05
3.18289e-05
1.75141e-05
1.27235e-05
1.94035e-05
0.000106768
0.000170105
0.000110558
3.20279e-05
5.77697e-06
1.03404e-05
6.37674e-05
6.55986e-05
5.56452e-05
2.17083e-05
2.05214e-05
3.97787e-05
4.75478e-05
4.75474e-05
2.88393e-05
8.15225e-06
2.43565e-06
2.37635e-06
4.80647e-06
2.28239e-05
4.23175e-05
4.23282e-05
3.37333e-05
1.25536e-05
6.54334e-06
6.54328e-06
6.75329e-06
5.82395e-06
5.17594e-06
5.71785e-06
7.00361e-06
8.49188e-06
1.07425e-05
1.16679e-05
1.09504e-05
4.41584e-06
6.48776e-07
5.89431e-07
7.0123e-07
1.01975e-06
1.17881e-06
1.00291e-06
5.73265e-07
5.53817e-07
1.42647e-06
5.15974e-06
8.05081e-06
5.10673e-06
7.21402e-07
1.09061e-19
3.14918e-35
-1.80092e-30
-1.76411e-30
-1.11327e-30
-5.41767e-31
-2.1627e-31
-7.36431e-32
-2.20218e-32
-5.91927e-33
-1.45888e-33
-3.35555e-34
-7.31345e-35
-1.52828e-35
-3.08319e-36
-6.0145e-37
-1.13136e-37
-2.04153e-38
-3.51384e-39
-5.73994e-40
-8.86478e-41
-1.29095e-41
-1.76964e-42
-2.28107e-43
-2.76312e-44
-3.14427e-45
-3.36061e-46
-3.37331e-47
-3.17995e-48
-2.81518e-49
-2.34057e-50
-1.82758e-51
-1.34026e-52
-9.23156e-54
-5.97247e-55
-3.6295e-56
-2.07193e-57
-1.11113e-58
-5.59806e-60
-2.64986e-61
-1.17854e-62
-4.92532e-64
-1.93426e-65
-7.13858e-67
-2.47599e-68
-8.07133e-70
-2.47297e-71
-7.12169e-73
-1.92774e-74
-4.9048e-76
-1.17302e-77
-2.63695e-79
-5.57194e-81
-1.10665e-82
-2.06589e-84
-3.62475e-86
-5.97735e-88
-9.26349e-90
-1.34913e-91
-1.84636e-93
-2.37429e-95
-2.86856e-97
-3.25586e-99
-3.47122e-101
-3.47553e-103
-3.2668e-105
0.153425
0.180476
0.114818
0.0337803
0.00241599
0.00187784
0.00345991
0.0053658
0.00174835
1.45491e-05
4.4648e-06
1.77516e-05
2.91861e-05
2.94475e-05
4.63624e-05
6.58796e-05
6.58985e-05
6.50897e-05
0.000185025
0.000304092
0.000300385
0.000371606
0.000427007
0.000399552
0.000222985
6.72954e-05
6.20836e-05
6.20763e-05
2.96655e-05
2.82683e-05
2.45188e-05
1.26967e-05
7.28506e-06
7.2851e-06
7.28506e-06
2.18229e-05
0.000133454
0.000141836
7.41215e-05
1.95471e-05
1.0952e-05
3.19519e-05
5.79131e-05
2.84856e-05
2.33039e-05
4.4764e-05
5.14429e-05
3.83708e-05
9.10148e-06
3.57366e-07
1.62467e-07
1.62468e-07
1.62439e-07
1.6244e-07
5.04118e-07
5.95923e-06
2.97855e-05
3.54387e-05
2.8745e-05
9.92722e-06
2.74822e-06
2.74899e-06
2.80036e-06
2.90931e-06
2.93137e-06
2.6815e-06
1.7031e-06
1.2355e-06
2.68678e-06
8.08783e-06
7.38456e-06
2.3633e-06
5.89427e-07
9.15254e-07
2.11547e-06
3.10777e-06
3.07535e-06
2.02348e-06
7.90678e-07
1.07821e-06
3.12312e-06
6.21423e-06
5.92226e-06
1.27288e-06
1.06488e-20
5.53463e-40
-1.09992e-29
-6.34466e-30
-1.62574e-30
-2.48456e-31
-3.68739e-32
-1.22849e-32
-5.25332e-33
-1.86732e-33
-5.60679e-34
-1.50536e-34
-3.75425e-35
-8.86631e-36
-1.99508e-36
-4.27217e-37
-8.67108e-38
-1.66133e-38
-2.99519e-39
-5.07087e-40
-8.05194e-41
-1.19842e-41
-1.67146e-42
-2.18441e-43
-2.67519e-44
-3.07048e-45
-3.30331e-46
-3.33162e-47
-3.15063e-48
-2.79416e-49
-2.32431e-50
-1.81386e-51
-1.32817e-52
-9.12698e-54
-5.88699e-55
-3.56472e-56
-2.02673e-57
-1.0821e-58
-5.42642e-60
-2.55618e-61
-1.13126e-62
-4.7042e-64
-1.83829e-65
-6.75143e-67
-2.33065e-68
-7.56303e-70
-2.3072e-71
-6.61716e-73
-1.78434e-74
-4.52395e-76
-1.07845e-77
-2.41732e-79
-5.09462e-81
-1.00955e-82
-1.88094e-84
-3.29479e-86
-5.42586e-88
-8.39977e-90
-1.22235e-91
-1.67191e-93
-2.14923e-95
-2.59631e-97
-2.94701e-99
-3.14262e-101
-3.14765e-103
-2.95999e-105
0.104086
0.169587
0.137201
0.061302
0.00904791
0.000784209
0.0015821
0.00213891
0.000584438
4.29034e-06
2.29059e-06
8.31094e-06
3.46899e-05
3.76555e-05
2.88406e-05
3.91032e-05
8.35041e-05
8.40013e-05
6.76048e-05
3.9833e-05
3.77826e-05
0.000102444
0.00014651
0.000177658
0.000177686
0.000204296
0.000157984
5.85579e-05
4.50416e-05
1.89293e-05
1.13486e-05
1.13457e-05
1.15058e-05
8.34299e-06
7.2851e-06
1.22161e-05
8.77339e-05
0.000141839
0.000125521
7.48635e-05
2.1476e-05
1.25689e-05
1.70696e-05
1.64872e-05
4.97846e-05
5.7018e-05
3.99813e-05
7.08755e-06
2.26652e-07
1.62471e-07
1.62471e-07
1.62442e-07
1.62442e-07
1.62413e-07
1.62413e-07
4.53117e-07
4.73792e-06
2.74882e-05
3.0717e-05
1.97691e-05
4.58662e-06
1.30024e-06
1.29996e-06
1.79419e-06
2.152e-06
1.97716e-06
1.13975e-06
5.02202e-07
7.61686e-07
3.65061e-06
6.77214e-06
4.69068e-06
1.68092e-06
1.66073e-06
3.08336e-06
3.93985e-06
3.94004e-06
3.55061e-06
1.65382e-06
1.02506e-06
1.74186e-06
4.0869e-06
4.79956e-06
2.07548e-06
1.53908e-07
2.25136e-20
2.0488e-30
2.69989e-30
1.18105e-30
3.8395e-32
-5.19236e-34
-2.76322e-33
-1.67525e-33
-7.12459e-34
-2.51031e-34
-7.85142e-35
-2.24772e-35
-5.96009e-36
-1.46899e-36
-3.36804e-37
-7.18545e-38
-1.42714e-38
-2.64075e-39
-4.55611e-40
-7.33519e-41
-1.10279e-41
-1.54924e-42
-2.0348e-43
-2.49983e-44
-2.87387e-45
-3.09284e-46
-3.11698e-47
-2.94268e-48
-2.6033e-49
-2.15879e-50
-1.67855e-51
-1.2241e-52
-8.37494e-54
-5.37703e-55
-3.24049e-56
-1.83353e-57
-9.74267e-59
-4.86262e-60
-2.28012e-61
-1.00466e-62
-4.16042e-64
-1.6195e-65
-5.92673e-67
-2.03937e-68
-6.59891e-70
-2.00809e-71
-5.74726e-73
-1.54713e-74
-3.91739e-76
-9.32986e-78
-2.09007e-79
-4.404e-81
-8.728e-83
-1.62683e-84
-2.85168e-86
-4.70062e-88
-7.28554e-90
-1.06165e-91
-1.45431e-93
-1.87259e-95
-2.26608e-97
-2.57685e-99
-2.75303e-101
-2.76264e-103
-2.60285e-105
0.0770816
0.129487
0.145934
0.0996258
0.0247068
0.000493799
0.000475328
0.000640863
0.000130491
2.9036e-06
2.2251e-06
4.77261e-06
1.76852e-05
1.83122e-05
6.99477e-06
2.39359e-06
5.81686e-06
2.10465e-05
1.8931e-05
8.93457e-06
1.37415e-05
8.10706e-05
0.000237831
0.000322805
0.00041353
0.000462376
0.000399523
0.000170681
2.62849e-05
8.59788e-06
8.59558e-06
2.87927e-05
3.34022e-05
2.52076e-05
1.08786e-05
1.03597e-05
5.25655e-05
0.000141649
0.000141853
0.000141854
6.26439e-05
1.22545e-05
1.22555e-05
2.10277e-05
5.86612e-05
4.88318e-05
1.19242e-05
2.97002e-07
1.62501e-07
1.62501e-07
1.79678e-07
1.7602e-07
1.62413e-07
1.62413e-07
1.62385e-07
1.70167e-07
8.14015e-07
8.89867e-06
2.69357e-05
2.38046e-05
9.4577e-06
1.50884e-06
1.13157e-06
1.38606e-06
1.6463e-06
1.35231e-06
5.7125e-07
3.03159e-07
3.28705e-07
1.02729e-06
3.86979e-06
4.66437e-06
4.30639e-06
2.15015e-06
6.82412e-07
6.68897e-07
1.65771e-06
2.98063e-06
2.22217e-06
1.02551e-06
1.04857e-06
2.03916e-06
3.27696e-06
3.27756e-06
8.90309e-07
6.6045e-10
4.00131e-30
1.30483e-30
1.42679e-31
8.86223e-34
-1.09245e-33
-1.26657e-33
-7.87736e-34
-3.70386e-34
-1.4615e-34
-5.05981e-35
-1.57041e-35
-4.42159e-36
-1.13778e-36
-2.69002e-37
-5.86698e-38
-1.18415e-38
-2.21719e-39
-3.85877e-40
-6.2517e-41
-9.44005e-42
-1.32984e-42
-1.74914e-43
-2.14956e-44
-2.46967e-45
-2.65417e-46
-2.66955e-47
-2.51403e-48
-2.21777e-49
-1.83342e-50
-1.42094e-51
-1.03282e-52
-7.04311e-54
-4.50757e-55
-2.70831e-56
-1.52814e-57
-8.09952e-59
-4.03368e-60
-1.88798e-61
-8.30696e-63
-3.43661e-64
-1.33702e-65
-4.89257e-67
-1.68417e-68
-5.4542e-70
-1.66192e-71
-4.76479e-73
-1.28543e-74
-3.26305e-76
-7.79405e-78
-1.75166e-79
-3.70387e-81
-7.36796e-83
-1.37875e-84
-2.42672e-86
-4.01699e-88
-6.25269e-90
-9.15084e-92
-1.25897e-93
-1.62804e-95
-1.97851e-97
-2.25923e-99
-2.42351e-101
-2.44158e-103
-2.30913e-105
0.0770816
0.082289
0.133224
0.133558
0.0509928
0.00273917
1.55547e-05
5.72501e-05
3.58494e-06
2.13123e-06
2.22166e-06
3.20034e-06
7.35201e-06
6.58069e-06
3.08402e-06
2.23915e-06
2.22814e-06
2.26222e-06
2.405e-06
2.4055e-06
8.85097e-06
5.04984e-05
0.000355827
0.000563546
0.000563525
0.000563546
0.000557718
0.000352595
3.66259e-05
8.58563e-06
1.53698e-05
3.91324e-05
3.91411e-05
3.47257e-05
2.39711e-05
1.03555e-05
2.52929e-05
0.000102653
0.000135362
0.00012259
0.000102859
2.22142e-05
1.22545e-05
4.53175e-05
5.86512e-05
2.17745e-05
7.86898e-07
2.00531e-07
2.00654e-07
2.41192e-07
2.62116e-07
2.62117e-07
2.02829e-07
1.62385e-07
1.62385e-07
1.62358e-07
3.62865e-07
2.78434e-06
1.85624e-05
2.51113e-05
1.64587e-05
4.09926e-06
1.13058e-06
1.05309e-06
1.0529e-06
5.91539e-07
1.69115e-07
2.76854e-07
3.57136e-07
3.62359e-07
1.05118e-06
2.37005e-06
2.11867e-06
1.07412e-06
2.72211e-07
2.02985e-07
4.66557e-07
1.86554e-06
2.1835e-06
1.17275e-06
5.7466e-07
8.26392e-07
1.42621e-06
1.47448e-06
6.87829e-07
5.54674e-08
5.18947e-21
3.19672e-32
8.47081e-37
-3.10382e-33
-2.69793e-33
-1.52968e-33
-7.13593e-34
-2.94819e-34
-1.10443e-34
-3.76896e-35
-1.17221e-35
-3.32741e-36
-8.64425e-37
-2.0623e-37
-4.53361e-38
-9.21084e-39
-1.7338e-39
-3.02982e-40
-4.92327e-41
-7.44875e-42
-1.05047e-42
-1.38219e-43
-1.69822e-44
-1.94977e-45
-2.09329e-46
-2.10283e-47
-1.9777e-48
-1.74233e-49
-1.4386e-50
-1.11378e-51
-8.08912e-53
-5.51358e-54
-3.52833e-55
-2.12066e-56
-1.19753e-57
-6.35553e-59
-3.17099e-60
-1.48776e-61
-6.56538e-63
-2.72565e-64
-1.06472e-65
-3.91397e-67
-1.35413e-68
-4.40957e-70
-1.35158e-71
-3.89939e-73
-1.05889e-74
-2.70635e-76
-6.50971e-78
-1.47346e-79
-3.13811e-81
-6.28768e-83
-1.18507e-84
-2.10068e-86
-3.50163e-88
-5.48781e-90
-8.08492e-92
-1.11949e-93
-1.45668e-95
-1.78082e-97
-2.04511e-99
-2.20577e-101
-2.23371e-103
-2.12291e-105
0.121423
0.05817
0.0803787
0.11481
0.0795725
0.0131935
2.70033e-06
2.13171e-06
2.13151e-06
2.13143e-06
2.13151e-06
2.21857e-06
2.43553e-06
2.33153e-06
2.26994e-06
2.22756e-06
2.22783e-06
2.22814e-06
2.22849e-06
3.73161e-06
9.64504e-06
1.93169e-05
6.58396e-05
0.000307569
0.000381598
0.000169435
7.66815e-05
0.000114555
4.29697e-05
8.58701e-06
2.09373e-05
3.4499e-05
1.67845e-05
3.7679e-06
5.58607e-06
1.06514e-05
2.05775e-05
6.08867e-05
6.12518e-05
3.75737e-05
6.54743e-05
2.94037e-05
1.58969e-05
7.53753e-05
4.13963e-05
4.53578e-06
2.4561e-07
1.99411e-07
2.62115e-07
2.62115e-07
2.62116e-07
2.62116e-07
2.62116e-07
1.9846e-07
1.62368e-07
1.62369e-07
2.80752e-07
1.35799e-06
1.19341e-05
2.51065e-05
2.48916e-05
1.53692e-05
4.51638e-06
1.42829e-06
2.38923e-07
7.34734e-08
7.34605e-08
3.50104e-07
8.79624e-07
8.04624e-07
3.74101e-07
3.72821e-07
3.04566e-07
1.77077e-07
1.69558e-07
1.69528e-07
2.40512e-07
1.22326e-06
1.87584e-06
9.55448e-07
2.31546e-07
2.14764e-07
3.37184e-07
3.30121e-07
1.96871e-07
2.84009e-08
4.77301e-12
3.8984e-26
1.3656e-44
-2.86687e-33
-2.09623e-33
-1.1174e-33
-5.0715e-34
-2.07411e-34
-7.76202e-35
-2.65728e-35
-8.30484e-36
-2.3702e-36
-6.1912e-37
-1.48475e-37
-3.27943e-38
-6.69038e-39
-1.26377e-39
-2.21472e-40
-3.60685e-41
-5.46639e-42
-7.71899e-43
-1.01664e-43
-1.25008e-44
-1.43628e-45
-1.54318e-46
-1.55161e-47
-1.46095e-48
-1.28898e-49
-1.06628e-50
-8.27456e-52
-6.02689e-53
-4.12211e-54
-2.64857e-55
-1.59934e-56
-9.07945e-58
-4.84737e-59
-2.43443e-60
-1.15037e-61
-5.11572e-63
-2.14129e-64
-8.43702e-66
-3.12954e-67
-1.09285e-68
-3.59277e-70
-1.1119e-71
-3.23924e-73
-8.88206e-75
-2.29206e-76
-5.56569e-78
-1.27152e-79
-2.73257e-81
-5.52309e-83
-1.04974e-84
-1.87582e-86
-3.15087e-88
-4.97415e-90
-7.37877e-92
-1.02836e-93
-1.34626e-95
-1.65524e-97
-1.91101e-99
-2.07134e-101
-2.1072e-103
-2.01116e-105
0.0495228
0.0325892
0.0369101
0.0730273
0.0789515
0.0318334
0.000954375
2.13151e-06
2.13152e-06
2.1315e-06
2.19164e-06
2.19612e-06
2.20898e-06
2.21242e-06
2.24027e-06
2.2207e-06
2.29728e-06
2.44126e-06
4.33873e-06
1.19331e-05
1.74921e-05
1.74832e-05
2.43505e-05
9.40693e-05
0.000106734
4.4956e-05
3.65531e-05
0.000106266
4.88261e-05
8.97907e-06
2.91372e-05
1.88037e-05
4.61613e-06
3.47267e-06
3.47269e-06
1.75365e-05
2.15968e-05
2.91284e-05
2.23537e-05
1.28369e-05
5.87242e-05
6.6742e-05
7.19664e-05
7.94269e-05
2.35523e-05
4.03218e-07
1.88173e-07
2.22091e-07
2.01374e-07
2.09377e-07
2.62115e-07
2.5958e-07
1.85362e-07
1.62375e-07
1.62375e-07
1.62348e-07
2.40292e-07
7.77356e-07
4.80076e-06
2.00082e-05
2.52611e-05
2.52641e-05
2.0323e-05
6.04286e-06
3.17946e-07
3.03732e-07
1.70109e-07
1.66273e-07
1.04598e-06
1.94873e-06
1.25521e-06
6.43251e-07
3.32228e-07
2.25741e-07
2.66273e-07
4.0232e-07
9.49388e-07
1.64493e-06
1.45236e-06
8.75558e-07
1.75798e-07
1.20599e-09
3.70473e-11
3.24259e-11
2.7021e-09
2.19113e-09
4.01378e-10
5.78594e-23
3.43128e-42
-9.24086e-34
-9.26042e-34
-5.81323e-34
-2.91941e-34
-1.27218e-34
-4.94535e-35
-1.73119e-35
-5.48528e-36
-1.58031e-36
-4.15806e-37
-1.00326e-37
-2.22772e-38
-4.56609e-39
-8.6609e-40
-1.52344e-40
-2.48941e-41
-3.78469e-42
-5.36046e-43
-7.08153e-44
-8.73511e-45
-1.00704e-45
-1.08604e-46
-1.09655e-47
-1.03732e-48
-9.20035e-50
-7.6556e-51
-5.97985e-52
-4.38699e-53
-3.02423e-54
-1.95981e-55
-1.19432e-56
-6.84655e-58
-3.69295e-59
-1.87462e-60
-8.95685e-62
-4.02851e-63
-1.70571e-64
-6.79895e-66
-2.55121e-67
-9.01132e-69
-2.99593e-70
-9.37398e-72
-2.75997e-73
-7.64551e-75
-1.9923e-76
-4.88289e-78
-1.12536e-79
-2.4385e-81
-4.96693e-83
-9.50855e-85
-1.7105e-86
-2.89095e-88
-4.58978e-90
-6.84403e-92
-9.5836e-94
-1.26003e-95
-1.55524e-97
-1.80182e-99
-1.95907e-101
-1.99849e-103
-1.91203e-105
0.0180565
0.0136685
0.014504
0.0271311
0.0537471
0.0538682
0.00718552
2.13199e-06
2.13145e-06
2.13167e-06
2.44787e-06
2.2149e-06
2.21075e-06
2.21267e-06
2.21863e-06
2.21967e-06
2.2207e-06
4.84982e-06
1.6582e-05
3.85897e-05
6.12809e-05
6.11361e-05
4.26343e-05
3.23412e-05
3.23409e-05
3.23411e-05
3.23411e-05
0.000100436
9.93715e-05
2.24983e-05
4.2615e-05
1.24636e-05
3.47267e-06
3.47266e-06
3.47267e-06
6.01616e-06
1.24649e-05
1.25748e-05
1.16824e-05
1.16824e-05
3.6683e-05
8.89182e-05
8.89172e-05
7.13216e-05
1.08247e-05
1.90118e-07
1.88165e-07
1.88425e-07
1.88168e-07
1.88169e-07
2.62116e-07
2.62113e-07
1.62408e-07
1.62395e-07
1.62369e-07
1.62369e-07
2.14836e-07
1.36494e-06
4.56577e-06
9.69018e-06
1.75295e-05
1.89249e-05
1.26544e-05
3.83003e-06
7.56469e-07
7.57423e-07
5.18523e-07
2.41977e-07
6.31856e-07
3.46846e-06
3.46363e-06
3.33137e-06
1.90536e-06
1.14677e-06
1.4653e-06
1.78854e-06
2.20048e-06
2.2754e-06
1.99502e-06
1.15201e-06
2.62944e-07
9.73194e-16
1.10259e-15
4.31117e-14
2.27205e-12
6.46659e-11
7.82494e-11
1.09295e-11
-8.18277e-31
-6.24996e-33
-8.12278e-34
-3.41906e-34
-1.66524e-34
-7.4339e-35
-2.96569e-35
-1.05905e-35
-3.40546e-36
-9.92441e-37
-2.63618e-37
-6.4131e-38
-1.43448e-38
-2.95991e-39
-5.6493e-40
-9.99601e-41
-1.64287e-41
-2.51215e-42
-3.57921e-43
-4.7577e-44
-5.90727e-45
-6.85834e-46
-7.45268e-47
-7.58659e-48
-7.24043e-49
-6.48296e-50
-5.44937e-51
-4.30254e-52
-3.1924e-53
-2.22689e-54
-1.46089e-55
-9.0154e-57
-5.23468e-58
-2.86019e-59
-1.47073e-60
-7.1175e-62
-3.24169e-63
-1.38947e-64
-5.60438e-66
-2.12699e-67
-7.59472e-69
-2.55097e-70
-8.05899e-72
-2.39425e-73
-6.68807e-75
-1.75631e-76
-4.33509e-78
-1.00559e-79
-2.19179e-81
-4.48813e-83
-8.63286e-85
-1.55956e-86
-2.64573e-88
-4.21431e-90
-6.30215e-92
-8.84653e-94
-1.16555e-95
-1.44112e-97
-1.67197e-99
-1.8199e-101
-1.85805e-103
-1.77866e-105
0.010164
0.0092214
0.00642143
0.00829914
0.0160886
0.0262694
0.0101086
0.000128363
2.13175e-06
4.67363e-06
1.00833e-05
4.24073e-06
2.21267e-06
2.21438e-06
2.24261e-06
2.22069e-06
2.22172e-06
7.84582e-06
3.23701e-05
8.25883e-05
0.000140076
0.00018472
0.000155991
5.40258e-05
3.2341e-05
3.23408e-05
3.23411e-05
7.7075e-05
0.000100977
7.31074e-05
5.73256e-05
6.72148e-06
3.47266e-06
3.47263e-06
3.47266e-06
3.92829e-06
6.76753e-06
6.77679e-06
1.23191e-05
1.7659e-05
1.82504e-05
8.74942e-05
8.89182e-05
4.60275e-05
3.88314e-06
1.88157e-07
1.8816e-07
1.88164e-07
1.88167e-07
1.88165e-07
2.62116e-07
2.59943e-07
2.3907e-07
1.91981e-07
1.62369e-07
1.62343e-07
1.62344e-07
3.02416e-06
7.75164e-06
6.90845e-06
6.96226e-06
6.41698e-06
3.49565e-06
1.37372e-06
1.29645e-06
1.44685e-06
1.48997e-06
1.11334e-06
7.24351e-07
1.61838e-06
5.59703e-06
5.59713e-06
4.15951e-06
3.17711e-06
3.79643e-06
4.48419e-06
4.53001e-06
3.88747e-06
2.6543e-06
1.36977e-06
3.38444e-07
7.55049e-18
4.29894e-18
6.17634e-17
1.87987e-15
1.06834e-13
3.38957e-12
2.19309e-12
1.21737e-13
-4.97341e-34
-2.21311e-34
-1.44541e-34
-8.07318e-35
-3.88091e-35
-1.6258e-35
-6.00583e-36
-1.9794e-36
-5.87857e-37
-1.58551e-37
-3.90711e-38
-8.83886e-39
-1.8427e-39
-3.55127e-40
-6.34306e-41
-1.05229e-41
-1.6244e-42
-2.33708e-43
-3.1383e-44
-3.93825e-45
-4.62366e-46
-5.08358e-47
-5.23879e-48
-5.06405e-49
-4.59464e-50
-3.91499e-51
-3.13425e-52
-2.35841e-53
-1.66846e-54
-1.10997e-55
-6.94491e-57
-4.08718e-58
-2.26254e-59
-1.1781e-60
-5.76981e-62
-2.65772e-63
-1.1513e-64
-4.68976e-66
-1.79619e-67
-6.46749e-69
-2.18901e-70
-6.96354e-72
-2.08172e-73
-5.84749e-75
-1.54316e-76
-3.82552e-78
-8.90745e-80
-1.94781e-81
-3.99958e-83
-7.71102e-85
-1.39568e-86
-2.37132e-88
-3.7816e-90
-5.6598e-92
-7.94911e-94
-1.04758e-95
-1.29526e-97
-1.5024e-99
-1.63459e-101
-1.66776e-103
-1.59514e-105
0.00703339
0.00728565
0.0050316
0.00429289
0.00550111
0.00825551
0.00999563
0.000764225
2.85636e-06
2.78922e-05
4.00698e-05
1.66846e-05
2.5466e-06
2.21644e-06
3.89605e-06
1.37067e-05
2.27132e-05
2.31501e-05
5.00168e-05
0.000152298
0.000273158
0.00037542
0.000366369
0.000207513
8.02451e-05
0.00010427
7.50106e-05
5.00566e-05
9.01122e-05
9.00819e-05
3.10127e-05
1.22182e-05
1.08765e-05
1.5491e-05
1.32102e-05
1.47903e-05
1.2836e-05
1.16071e-05
3.40845e-05
8.15202e-05
5.24552e-05
5.51837e-05
7.37979e-05
2.73759e-05
1.06309e-06
1.88152e-07
1.88156e-07
1.8816e-07
1.88163e-07
2.63181e-07
2.21695e-07
1.64303e-07
2.39614e-07
2.39683e-07
1.62446e-07
1.62369e-07
1.62343e-07
5.67619e-07
7.29581e-06
1.22698e-05
8.84617e-06
3.03597e-06
1.26947e-06
1.26947e-06
1.64135e-06
3.14965e-06
5.3011e-06
5.48246e-06
3.65545e-06
1.87817e-06
2.3663e-06
3.91219e-06
4.9607e-06
7.71335e-06
7.7931e-06
8.49273e-06
8.65602e-06
7.23514e-06
4.07324e-06
1.67703e-06
3.2328e-07
1.6274e-18
1.58875e-18
2.85582e-17
7.98323e-16
2.34464e-14
2.11109e-13
1.5196e-13
2.61707e-14
2.19071e-21
1.47455e-35
-2.15657e-35
-2.00357e-35
-1.18251e-35
-5.48223e-36
-2.15176e-36
-7.40414e-37
-2.27581e-37
-6.3205e-38
-1.59869e-38
-3.70463e-39
-7.90142e-40
-1.55689e-40
-2.8425e-41
-4.82059e-42
-7.60922e-43
-1.11987e-43
-1.53891e-44
-1.97703e-45
-2.37691e-46
-2.67663e-47
-2.82518e-48
-2.79665e-49
-2.59755e-50
-2.26455e-51
-1.85359e-52
-1.42477e-53
-1.02859e-54
-6.975e-56
-4.443e-57
-2.65857e-58
-1.49438e-59
-7.89051e-61
-3.91355e-62
-1.82322e-63
-7.97799e-65
-3.27878e-66
-1.26554e-67
-4.58729e-69
-1.56147e-70
-4.99085e-72
-1.49781e-73
-4.22036e-75
-1.11641e-76
-2.77234e-78
-6.46237e-80
-1.41393e-81
-2.90349e-83
-5.59556e-85
-1.01196e-86
-1.71731e-88
-2.73442e-90
-4.08495e-92
-5.72498e-94
-7.52661e-96
-9.28158e-98
-1.07351e-99
-1.16439e-101
-1.1842e-103
-1.12873e-105
0.00438859
0.00460592
0.00345082
0.00149459
0.00147569
0.0014712
0.00539571
0.00266664
5.69832e-05
5.49057e-05
6.35869e-05
3.87595e-05
6.96567e-06
2.93601e-06
1.00191e-05
4.96558e-05
8.6019e-05
6.48869e-05
6.78551e-05
0.000168757
0.000344942
0.00042915
0.000432465
0.000429864
0.000364288
0.000367049
0.000297574
7.79844e-05
3.11794e-05
2.95883e-05
1.91127e-05
2.12559e-05
3.22689e-05
6.66616e-05
6.38163e-05
4.05618e-05
2.72129e-05
2.51469e-05
8.12868e-05
0.000148151
0.000132038
3.5212e-05
1.74471e-05
3.54984e-06
1.90866e-07
1.88152e-07
2.76321e-07
4.11718e-07
3.9231e-07
3.44364e-07
1.64303e-07
1.64292e-07
1.64292e-07
1.64283e-07
1.68711e-07
1.80011e-07
1.80517e-07
2.80001e-07
3.3653e-06
1.82023e-05
1.86725e-05
1.2156e-05
4.27163e-06
2.48056e-06
3.40524e-06
6.28454e-06
1.13413e-05
1.23499e-05
1.03681e-05
4.2783e-06
1.25929e-06
1.25999e-06
1.64125e-06
3.00299e-06
7.28148e-06
9.63377e-06
9.63372e-06
9.63377e-06
7.93797e-06
3.17049e-06
3.95084e-07
2.44864e-19
3.14535e-19
4.8784e-18
3.22649e-17
5.25173e-18
9.62459e-19
2.76431e-17
6.73563e-16
1.52582e-16
1.01816e-29
1.26396e-48
-3.29245e-36
-2.97946e-36
-1.68373e-36
-7.38352e-37
-2.72513e-37
-8.80411e-38
-2.54334e-38
-6.65454e-39
-1.59034e-39
-3.49232e-40
-7.07796e-41
-1.3284e-41
-2.31474e-42
-3.75257e-43
-5.66928e-44
-7.99257e-45
-1.05264e-45
-1.29625e-46
-1.49358e-47
-1.61119e-48
-1.62797e-49
-1.54131e-50
-1.36774e-51
-1.13789e-52
-8.87681e-54
-6.49456e-55
-4.45691e-56
-2.86916e-57
-1.73281e-58
-9.81872e-60
-5.22026e-61
-2.60427e-62
-1.21915e-63
-5.35574e-65
-2.20795e-66
-8.54229e-68
-3.10157e-69
-1.05686e-70
-3.37966e-72