/*--------------------------------*- C++ -*----------------------------------*\
| =========                 |                                                 |
| \\      /  F ield         | OpenFOAM: The Open Source CFD Toolbox           |
|  \\    /   O peration     | Version:  v1912                                 |
|   \\  /    A nd           | Website:  www.openfoam.com                      |
|    \\/     M anipulation  |                                                 |
\*---------------------------------------------------------------------------*/
FoamFile
{
    version     2.0;
    format      ascii;
    class       volScalarField;
    location    "70";
    object      p;
}
// * * * * * * * * * * * * * * * * * * * * * * * * * * * * * * * * * * * * * //

dimensions      [1 -1 -2 0 0 0 0];


internalField   nonuniform List<scalar> 
14268
(
-145.445
-146.037
-146.628
-147.22
-147.811
-148.402
-148.993
-149.584
-150.175
-150.766
-151.356
-151.947
-152.537
-153.128
-153.718
-154.308
-154.898
-155.488
-156.078
-156.668
-157.258
-157.847
-158.437
-159.027
-159.616
-160.206
-160.795
-161.384
-161.974
-162.563
-163.152
-163.742
-164.331
-164.92
-165.509
-166.098
-166.687
-167.276
-167.865
-168.454
-169.043
-169.632
-170.221
-170.81
-171.399
-171.988
-172.576
-173.165
-173.754
-174.343
-174.932
-175.52
-176.109
-176.698
-177.287
-177.875
-178.464
-179.053
-179.641
-180.23
-180.819
-181.408
-181.996
-182.585
-183.174
-183.762
-184.351
-184.94
-185.528
-186.117
-186.706
-187.294
-187.883
-188.471
-189.06
-189.649
-190.237
-190.826
-191.415
-192.003
-192.592
-193.18
-193.769
-194.358
-194.946
-195.535
-196.123
-196.712
-197.301
-197.889
-198.478
-199.067
-199.655
-200.244
-200.832
-201.421
-202.01
-202.598
-203.187
-203.775
-204.364
-204.953
-205.541
-206.13
-206.718
-207.307
-207.896
-208.484
-209.073
-209.661
-210.25
-210.839
-211.427
-212.016
-212.604
-213.193
-213.782
-214.37
-214.959
-215.547
-216.136
-216.725
-217.313
-217.902
-218.49
-219.079
-219.668
-220.256
-220.845
-221.433
-222.022
-222.611
-223.199
-223.788
-224.376
-224.965
-225.554
-226.142
-226.731
-227.319
-227.908
-228.497
-229.085
-229.674
-230.262
-230.851
-231.44
-232.028
-232.617
-233.205
-233.794
-234.383
-234.971
-235.56
-236.148
-236.737
-237.326
-237.914
-238.503
-239.091
-239.68
-240.269
-240.857
-241.446
-145.567
-146.159
-146.75
-147.342
-147.933
-148.524
-149.115
-149.706
-150.297
-150.888
-151.478
-152.069
-152.659
-153.25
-153.84
-154.43
-155.02
-155.61
-156.2
-156.79
-157.38
-157.969
-158.559
-159.148
-159.738
-160.328
-160.917
-161.506
-162.096
-162.685
-163.274
-163.863
-164.453
-165.042
-165.631
-166.22
-166.809
-167.398
-167.987
-168.576
-169.165
-169.754
-170.343
-170.932
-171.521
-172.109
-172.698
-173.287
-173.876
-174.465
-175.054
-175.642
-176.231
-176.82
-177.409
-177.997
-178.586
-179.175
-179.763
-180.352
-180.941
-181.529
-182.118
-182.707
-183.296
-183.884
-184.473
-185.061
-185.65
-186.239
-186.827
-187.416
-188.005
-188.593
-189.182
-189.771
-190.359
-190.948
-191.536
-192.125
-192.714
-193.302
-193.891
-194.48
-195.068
-195.657
-196.245
-196.834
-197.423
-198.011
-198.6
-199.188
-199.777
-200.366
-200.954
-201.543
-202.131
-202.72
-203.309
-203.897
-204.486
-205.075
-205.663
-206.252
-206.84
-207.429
-208.018
-208.606
-209.195
-209.783
-210.372
-210.961
-211.549
-212.138
-212.726
-213.315
-213.904
-214.492
-215.081
-215.669
-216.258
-216.847
-217.435
-218.024
-218.612
-219.201
-219.79
-220.378
-220.967
-221.555
-222.144
-222.733
-223.321
-223.91
-224.498
-225.087
-225.676
-226.264
-226.853
-227.441
-228.03
-228.619
-229.207
-229.796
-230.384
-230.973
-231.562
-232.15
-232.739
-233.327
-233.916
-234.505
-235.093
-235.682
-236.27
-236.859
-237.448
-238.036
-238.625
-239.213
-239.802
-240.391
-240.979
-241.568
-145.689
-146.281
-146.872
-147.464
-148.055
-148.646
-149.237
-149.828
-150.419
-151.01
-151.6
-152.191
-152.781
-153.371
-153.962
-154.552
-155.142
-155.732
-156.322
-156.912
-157.501
-158.091
-158.681
-159.27
-159.86
-160.449
-161.039
-161.628
-162.218
-162.807
-163.396
-163.985
-164.575
-165.164
-165.753
-166.342
-166.931
-167.52
-168.109
-168.698
-169.287
-169.876
-170.465
-171.054
-171.643
-172.231
-172.82
-173.409
-173.998
-174.587
-175.175
-175.764
-176.353
-176.942
-177.53
-178.119
-178.708
-179.297
-179.885
-180.474
-181.063
-181.651
-182.24
-182.829
-183.417
-184.006
-184.595
-185.183
-185.772
-186.361
-186.949
-187.538
-188.127
-188.715
-189.304
-189.893
-190.481
-191.07
-191.658
-192.247
-192.836
-193.424
-194.013
-194.601
-195.19
-195.779
-196.367
-196.956
-197.545
-198.133
-198.722
-199.31
-199.899
-200.488
-201.076
-201.665
-202.253
-202.842
-203.431
-204.019
-204.608
-205.196
-205.785
-206.374
-206.962
-207.551
-208.139
-208.728
-209.317
-209.905
-210.494
-211.082
-211.671
-212.26
-212.848
-213.437
-214.025
-214.614
-215.203
-215.791
-216.38
-216.968
-217.557
-218.146
-218.734
-219.323
-219.911
-220.5
-221.089
-221.677
-222.266
-222.854
-223.443
-224.032
-224.62
-225.209
-225.797
-226.386
-226.975
-227.563
-228.152
-228.74
-229.329
-229.918
-230.506
-231.095
-231.683
-232.272
-232.861
-233.449
-234.038
-234.626
-235.215
-235.804
-236.392
-236.981
-237.569
-238.158
-238.747
-239.335
-239.924
-240.512
-241.101
-241.69
-145.811
-146.402
-146.994
-147.585
-148.177
-148.768
-149.359
-149.95
-150.541
-151.132
-151.722
-152.313
-152.903
-153.493
-154.084
-154.674
-155.264
-155.854
-156.444
-157.034
-157.623
-158.213
-158.803
-159.392
-159.982
-160.571
-161.161
-161.75
-162.34
-162.929
-163.518
-164.107
-164.697
-165.286
-165.875
-166.464
-167.053
-167.642
-168.231
-168.82
-169.409
-169.998
-170.587
-171.176
-171.764
-172.353
-172.942
-173.531
-174.12
-174.709
-175.297
-175.886
-176.475
-177.064
-177.652
-178.241
-178.83
-179.419
-180.007
-180.596
-181.185
-181.773
-182.362
-182.951
-183.539
-184.128
-184.717
-185.305
-185.894
-186.483
-187.071
-187.66
-188.249
-188.837
-189.426
-190.014
-190.603
-191.192
-191.78
-192.369
-192.958
-193.546
-194.135
-194.723
-195.312
-195.901
-196.489
-197.078
-197.666
-198.255
-198.844
-199.432
-200.021
-200.61
-201.198
-201.787
-202.375
-202.964
-203.553
-204.141
-204.73
-205.318
-205.907
-206.496
-207.084
-207.673
-208.261
-208.85
-209.439
-210.027
-210.616
-211.204
-211.793
-212.382
-212.97
-213.559
-214.147
-214.736
-215.325
-215.913
-216.502
-217.09
-217.679
-218.268
-218.856
-219.445
-220.033
-220.622
-221.211
-221.799
-222.388
-222.976
-223.565
-224.154
-224.742
-225.331
-225.919
-226.508
-227.097
-227.685
-228.274
-228.862
-229.451
-230.04
-230.628
-231.217
-231.805
-232.394
-232.983
-233.571
-234.16
-234.748
-235.337
-235.926
-236.514
-237.103
-237.691
-238.28
-238.869
-239.457
-240.046
-240.634
-241.223
-241.812
-145.933
-146.524
-147.116
-147.707
-148.299
-148.89
-149.481
-150.072
-150.663
-151.253
-151.844
-152.435
-153.025
-153.615
-154.206
-154.796
-155.386
-155.976
-156.566
-157.156
-157.745
-158.335
-158.925
-159.514
-160.104
-160.693
-161.283
-161.872
-162.461
-163.051
-163.64
-164.229
-164.818
-165.408
-165.997
-166.586
-167.175
-167.764
-168.353
-168.942
-169.531
-170.12
-170.709
-171.298
-171.886
-172.475
-173.064
-173.653
-174.242
-174.831
-175.419
-176.008
-176.597
-177.186
-177.774
-178.363
-178.952
-179.54
-180.129
-180.718
-181.307
-181.895
-182.484
-183.073
-183.661
-184.25
-184.839
-185.427
-186.016
-186.605
-187.193
-187.782
-188.37
-188.959
-189.548
-190.136
-190.725
-191.314
-191.902
-192.491
-193.079
-193.668
-194.257
-194.845
-195.434
-196.023
-196.611
-197.2
-197.788
-198.377
-198.966
-199.554
-200.143
-200.731
-201.32
-201.909
-202.497
-203.086
-203.674
-204.263
-204.852
-205.44
-206.029
-206.617
-207.206
-207.795
-208.383
-208.972
-209.561
-210.149
-210.738
-211.326
-211.915
-212.504
-213.092
-213.681
-214.269
-214.858
-215.447
-216.035
-216.624
-217.212
-217.801
-218.39
-218.978
-219.567
-220.155
-220.744
-221.333
-221.921
-222.51
-223.098
-223.687
-224.276
-224.864
-225.453
-226.041
-226.63
-227.219
-227.807
-228.396
-228.984
-229.573
-230.162
-230.75
-231.339
-231.927
-232.516
-233.105
-233.693
-234.282
-234.87
-235.459
-236.048
-236.636
-237.225
-237.813
-238.402
-238.991
-239.579
-240.168
-240.756
-241.345
-241.934
-146.055
-146.646
-147.238
-147.829
-148.421
-149.012
-149.603
-150.194
-150.785
-151.375
-151.966
-152.556
-153.147
-153.737
-154.327
-154.918
-155.508
-156.098
-156.688
-157.277
-157.867
-158.457
-159.047
-159.636
-160.226
-160.815
-161.405
-161.994
-162.583
-163.173
-163.762
-164.351
-164.94
-165.53
-166.119
-166.708
-167.297
-167.886
-168.475
-169.064
-169.653
-170.242
-170.831
-171.419
-172.008
-172.597
-173.186
-173.775
-174.364
-174.952
-175.541
-176.13
-176.719
-177.308
-177.896
-178.485
-179.074
-179.662
-180.251
-180.84
-181.429
-182.017
-182.606
-183.195
-183.783
-184.372
-184.961
-185.549
-186.138
-186.726
-187.315
-187.904
-188.492
-189.081
-189.67
-190.258
-190.847
-191.436
-192.024
-192.613
-193.201
-193.79
-194.379
-194.967
-195.556
-196.144
-196.733
-197.322
-197.91
-198.499
-199.088
-199.676
-200.265
-200.853
-201.442
-202.031
-202.619
-203.208
-203.796
-204.385
-204.974
-205.562
-206.151
-206.739
-207.328
-207.917
-208.505
-209.094
-209.682
-210.271
-210.86
-211.448
-212.037
-212.625
-213.214
-213.803
-214.391
-214.98
-215.568
-216.157
-216.746
-217.334
-217.923
-218.511
-219.1
-219.689
-220.277
-220.866
-221.454
-222.043
-222.632
-223.22
-223.809
-224.397
-224.986
-225.575
-226.163
-226.752
-227.34
-227.929
-228.518
-229.106
-229.695
-230.283
-230.872
-231.461
-232.049
-232.638
-233.226
-233.815
-234.404
-234.992
-235.581
-236.169
-236.758
-237.347
-237.935
-238.524
-239.112
-239.701
-240.29
-240.878
-241.467
-242.055
-146.177
-146.768
-147.36
-147.951
-148.543
-149.134
-149.725
-150.316
-150.907
-151.497
-152.088
-152.678
-153.269
-153.859
-154.449
-155.04
-155.63
-156.22
-156.81
-157.399
-157.989
-158.579
-159.169
-159.758
-160.348
-160.937
-161.527
-162.116
-162.705
-163.295
-163.884
-164.473
-165.062
-165.651
-166.241
-166.83
-167.419
-168.008
-168.597
-169.186
-169.775
-170.364
-170.952
-171.541
-172.13
-172.719
-173.308
-173.897
-174.486
-175.074
-175.663
-176.252
-176.841
-177.429
-178.018
-178.607
-179.196
-179.784
-180.373
-180.962
-181.55
-182.139
-182.728
-183.316
-183.905
-184.494
-185.082
-185.671
-186.26
-186.848
-187.437
-188.026
-188.614
-189.203
-189.792
-190.38
-190.969
-191.557
-192.146
-192.735
-193.323
-193.912
-194.501
-195.089
-195.678
-196.266
-196.855
-197.444
-198.032
-198.621
-199.209
-199.798
-200.387
-200.975
-201.564
-202.153
-202.741
-203.33
-203.918
-204.507
-205.096
-205.684
-206.273
-206.861
-207.45
-208.039
-208.627
-209.216
-209.804
-210.393
-210.982
-211.57
-212.159
-212.747
-213.336
-213.925
-214.513
-215.102
-215.69
-216.279
-216.868
-217.456
-218.045
-218.633
-219.222
-219.811
-220.399
-220.988
-221.576
-222.165
-222.754
-223.342
-223.931
-224.519
-225.108
-225.697
-226.285
-226.874
-227.462
-228.051
-228.64
-229.228
-229.817
-230.405
-230.994
-231.583
-232.171
-232.76
-233.348
-233.937
-234.526
-235.114
-235.703
-236.291
-236.88
-237.469
-238.057
-238.646
-239.234
-239.823
-240.412
-241
-241.589
-242.177
-146.299
-146.89
-147.482
-148.073
-148.665
-149.256
-149.847
-150.438
-151.029
-151.619
-152.21
-152.8
-153.391
-153.981
-154.571
-155.161
-155.752
-156.342
-156.931
-157.521
-158.111
-158.701
-159.29
-159.88
-160.47
-161.059
-161.649
-162.238
-162.827
-163.417
-164.006
-164.595
-165.184
-165.773
-166.362
-166.952
-167.541
-168.13
-168.719
-169.308
-169.897
-170.486
-171.074
-171.663
-172.252
-172.841
-173.43
-174.019
-174.608
-175.196
-175.785
-176.374
-176.963
-177.551
-178.14
-178.729
-179.318
-179.906
-180.495
-181.084
-181.672
-182.261
-182.85
-183.438
-184.027
-184.616
-185.204
-185.793
-186.382
-186.97
-187.559
-188.148
-188.736
-189.325
-189.914
-190.502
-191.091
-191.679
-192.268
-192.857
-193.445
-194.034
-194.623
-195.211
-195.8
-196.388
-196.977
-197.566
-198.154
-198.743
-199.331
-199.92
-200.509
-201.097
-201.686
-202.274
-202.863
-203.452
-204.04
-204.629
-205.217
-205.806
-206.395
-206.983
-207.572
-208.16
-208.749
-209.338
-209.926
-210.515
-211.103
-211.692
-212.281
-212.869
-213.458
-214.046
-214.635
-215.224
-215.812
-216.401
-216.989
-217.578
-218.167
-218.755
-219.344
-219.932
-220.521
-221.11
-221.698
-222.287
-222.875
-223.464
-224.053
-224.641
-225.23
-225.818
-226.407
-226.996
-227.584
-228.173
-228.761
-229.35
-229.939
-230.527
-231.116
-231.704
-232.293
-232.882
-233.47
-234.059
-234.647
-235.236
-235.825
-236.413
-237.002
-237.59
-238.179
-238.768
-239.356
-239.945
-240.533
-241.122
-241.711
-242.299
-146.42
-147.012
-147.604
-148.195
-148.786
-149.378
-149.969
-150.56
-151.15
-151.741
-152.332
-152.922
-153.513
-154.103
-154.693
-155.283
-155.873
-156.463
-157.053
-157.643
-158.233
-158.823
-159.412
-160.002
-160.592
-161.181
-161.77
-162.36
-162.949
-163.538
-164.128
-164.717
-165.306
-165.895
-166.484
-167.073
-167.663
-168.252
-168.841
-169.43
-170.018
-170.607
-171.196
-171.785
-172.374
-172.963
-173.552
-174.141
-174.729
-175.318
-175.907
-176.496
-177.085
-177.673
-178.262
-178.851
-179.439
-180.028
-180.617
-181.206
-181.794
-182.383
-182.972
-183.56
-184.149
-184.738
-185.326
-185.915
-186.504
-187.092
-187.681
-188.27
-188.858
-189.447
-190.035
-190.624
-191.213
-191.801
-192.39
-192.979
-193.567
-194.156
-194.744
-195.333
-195.922
-196.51
-197.099
-197.687
-198.276
-198.865
-199.453
-200.042
-200.631
-201.219
-201.808
-202.396
-202.985
-203.574
-204.162
-204.751
-205.339
-205.928
-206.517
-207.105
-207.694
-208.282
-208.871
-209.46
-210.048
-210.637
-211.225
-211.814
-212.403
-212.991
-213.58
-214.168
-214.757
-215.346
-215.934
-216.523
-217.111
-217.7
-218.289
-218.877
-219.466
-220.054
-220.643
-221.232
-221.82
-222.409
-222.997
-223.586
-224.175
-224.763
-225.352
-225.94
-226.529
-227.118
-227.706
-228.295
-228.883
-229.472
-230.061
-230.649
-231.238
-231.826
-232.415
-233.004
-233.592
-234.181
-234.769
-235.358
-235.947
-236.535
-237.124
-237.712
-238.301
-238.89
-239.478
-240.067
-240.655
-241.244
-241.833
-242.421
-146.542
-147.134
-147.726
-148.317
-148.908
-149.5
-150.091
-150.682
-151.272
-151.863
-152.454
-153.044
-153.635
-154.225
-154.815
-155.405
-155.995
-156.585
-157.175
-157.765
-158.355
-158.945
-159.534
-160.124
-160.713
-161.303
-161.892
-162.482
-163.071
-163.66
-164.25
-164.839
-165.428
-166.017
-166.606
-167.195
-167.784
-168.373
-168.962
-169.551
-170.14
-170.729
-171.318
-171.907
-172.496
-173.085
-173.674
-174.263
-174.851
-175.44
-176.029
-176.618
-177.206
-177.795
-178.384
-178.973
-179.561
-180.15
-180.739
-181.328
-181.916
-182.505
-183.094
-183.682
-184.271
-184.86
-185.448
-186.037
-186.626
-187.214
-187.803
-188.391
-188.98
-189.569
-190.157
-190.746
-191.335
-191.923
-192.512
-193.1
-193.689
-194.278
-194.866
-195.455
-196.044
-196.632
-197.221
-197.809
-198.398
-198.987
-199.575
-200.164
-200.752
-201.341
-201.93
-202.518
-203.107
-203.695
-204.284
-204.873
-205.461
-206.05
-206.639
-207.227
-207.816
-208.404
-208.993
-209.582
-210.17
-210.759
-211.347
-211.936
-212.525
-213.113
-213.702
-214.29
-214.879
-215.468
-216.056
-216.645
-217.233
-217.822
-218.411
-218.999
-219.588
-220.176
-220.765
-221.354
-221.942
-222.531
-223.119
-223.708
-224.297
-224.885
-225.474
-226.062
-226.651
-227.24
-227.828
-228.417
-229.005
-229.594
-230.183
-230.771
-231.36
-231.948
-232.537
-233.126
-233.714
-234.303
-234.891
-235.48
-236.069
-236.657
-237.246
-237.834
-238.423
-239.012
-239.6
-240.189
-240.777
-241.366
-241.955
-242.543
-146.664
-147.256
-147.848
-148.439
-149.03
-149.621
-150.213
-150.803
-151.394
-151.985
-152.576
-153.166
-153.757
-154.347
-154.937
-155.527
-156.117
-156.707
-157.297
-157.887
-158.477
-159.067
-159.656
-160.246
-160.835
-161.425
-162.014
-162.604
-163.193
-163.782
-164.372
-164.961
-165.55
-166.139
-166.728
-167.317
-167.906
-168.495
-169.084
-169.673
-170.262
-170.851
-171.44
-172.029
-172.618
-173.207
-173.796
-174.384
-174.973
-175.562
-176.151
-176.74
-177.328
-177.917
-178.506
-179.095
-179.683
-180.272
-180.861
-181.449
-182.038
-182.627
-183.215
-183.804
-184.393
-184.981
-185.57
-186.159
-186.747
-187.336
-187.925
-188.513
-189.102
-189.691
-190.279
-190.868
-191.457
-192.045
-192.634
-193.222
-193.811
-194.4
-194.988
-195.577
-196.166
-196.754
-197.343
-197.931
-198.52
-199.109
-199.697
-200.286
-200.874
-201.463
-202.052
-202.64
-203.229
-203.817
-204.406
-204.995
-205.583
-206.172
-206.76
-207.349
-207.938
-208.526
-209.115
-209.703
-210.292
-210.881
-211.469
-212.058
-212.646
-213.235
-213.824
-214.412
-215.001
-215.589
-216.178
-216.767
-217.355
-217.944
-218.532
-219.121
-219.71
-220.298
-220.887
-221.475
-222.064
-222.653
-223.241
-223.83
-224.418
-225.007
-225.596
-226.184
-226.773
-227.361
-227.95
-228.539
-229.127
-229.716
-230.304
-230.893
-231.482
-232.07
-232.659
-233.247
-233.836
-234.425
-235.013
-235.602
-236.19
-236.779
-237.368
-237.956
-238.545
-239.133
-239.722
-240.311
-240.899
-241.488
-242.076
-242.665
-146.786
-147.378
-147.969
-148.561
-149.152
-149.743
-150.334
-150.925
-151.516
-152.107
-152.698
-153.288
-153.878
-154.469
-155.059
-155.649
-156.239
-156.829
-157.419
-158.009
-158.599
-159.189
-159.778
-160.368
-160.957
-161.547
-162.136
-162.726
-163.315
-163.904
-164.494
-165.083
-165.672
-166.261
-166.85
-167.439
-168.028
-168.617
-169.206
-169.795
-170.384
-170.973
-171.562
-172.151
-172.74
-173.329
-173.918
-174.506
-175.095
-175.684
-176.273
-176.862
-177.45
-178.039
-178.628
-179.217
-179.805
-180.394
-180.983
-181.571
-182.16
-182.749
-183.337
-183.926
-184.515
-185.103
-185.692
-186.281
-186.869
-187.458
-188.047
-188.635
-189.224
-189.813
-190.401
-190.99
-191.578
-192.167
-192.756
-193.344
-193.933
-194.522
-195.11
-195.699
-196.287
-196.876
-197.465
-198.053
-198.642
-199.23
-199.819
-200.408
-200.996
-201.585
-202.174
-202.762
-203.351
-203.939
-204.528
-205.117
-205.705
-206.294
-206.882
-207.471
-208.06
-208.648
-209.237
-209.825
-210.414
-211.003
-211.591
-212.18
-212.768
-213.357
-213.946
-214.534
-215.123
-215.711
-216.3
-216.889
-217.477
-218.066
-218.654
-219.243
-219.832
-220.42
-221.009
-221.597
-222.186
-222.775
-223.363
-223.952
-224.54
-225.129
-225.718
-226.306
-226.895
-227.483
-228.072
-228.661
-229.249
-229.838
-230.426
-231.015
-231.604
-232.192
-232.781
-233.369
-233.958
-234.547
-235.135
-235.724
-236.312
-236.901
-237.49
-238.078
-238.667
-239.255
-239.844
-240.433
-241.021
-241.61
-242.198
-242.787
-146.908
-147.5
-148.091
-148.683
-149.274
-149.865
-150.456
-151.047
-151.638
-152.229
-152.819
-153.41
-154
-154.591
-155.181
-155.771
-156.361
-156.951
-157.541
-158.131
-158.721
-159.31
-159.9
-160.49
-161.079
-161.669
-162.258
-162.848
-163.437
-164.026
-164.615
-165.205
-165.794
-166.383
-166.972
-167.561
-168.15
-168.739
-169.328
-169.917
-170.506
-171.095
-171.684
-172.273
-172.862
-173.451
-174.039
-174.628
-175.217
-175.806
-176.395
-176.983
-177.572
-178.161
-178.75
-179.338
-179.927
-180.516
-181.105
-181.693
-182.282
-182.871
-183.459
-184.048
-184.637
-185.225
-185.814
-186.403
-186.991
-187.58
-188.169
-188.757
-189.346
-189.935
-190.523
-191.112
-191.7
-192.289
-192.878
-193.466
-194.055
-194.644
-195.232
-195.821
-196.409
-196.998
-197.587
-198.175
-198.764
-199.352
-199.941
-200.53
-201.118
-201.707
-202.295
-202.884
-203.473
-204.061
-204.65
-205.238
-205.827
-206.416
-207.004
-207.593
-208.181
-208.77
-209.359
-209.947
-210.536
-211.124
-211.713
-212.302
-212.89
-213.479
-214.068
-214.656
-215.245
-215.833
-216.422
-217.011
-217.599
-218.188
-218.776
-219.365
-219.954
-220.542
-221.131
-221.719
-222.308
-222.897
-223.485
-224.074
-224.662
-225.251
-225.84
-226.428
-227.017
-227.605
-228.194
-228.783
-229.371
-229.96
-230.548
-231.137
-231.726
-232.314
-232.903
-233.491
-234.08
-234.669
-235.257
-235.846
-236.434
-237.023
-237.612
-238.2
-238.789
-239.377
-239.966
-240.555
-241.143
-241.732
-242.32
-242.909
-147.03
-147.622
-148.213
-148.805
-149.396
-149.987
-150.578
-151.169
-151.76
-152.351
-152.941
-153.532
-154.122
-154.713
-155.303
-155.893
-156.483
-157.073
-157.663
-158.253
-158.843
-159.432
-160.022
-160.612
-161.201
-161.791
-162.38
-162.969
-163.559
-164.148
-164.737
-165.327
-165.916
-166.505
-167.094
-167.683
-168.272
-168.861
-169.45
-170.039
-170.628
-171.217
-171.806
-172.395
-172.984
-173.573
-174.161
-174.75
-175.339
-175.928
-176.517
-177.105
-177.694
-178.283
-178.872
-179.46
-180.049
-180.638
-181.227
-181.815
-182.404
-182.993
-183.581
-184.17
-184.759
-185.347
-185.936
-186.525
-187.113
-187.702
-188.291
-188.879
-189.468
-190.056
-190.645
-191.234
-191.822
-192.411
-193
-193.588
-194.177
-194.765
-195.354
-195.943
-196.531
-197.12
-197.709
-198.297
-198.886
-199.474
-200.063
-200.652
-201.24
-201.829
-202.417
-203.006
-203.595
-204.183
-204.772
-205.36
-205.949
-206.538
-207.126
-207.715
-208.303
-208.892
-209.481
-210.069
-210.658
-211.246
-211.835
-212.424
-213.012
-213.601
-214.189
-214.778
-215.367
-215.955
-216.544
-217.132
-217.721
-218.31
-218.898
-219.487
-220.075
-220.664
-221.253
-221.841
-222.43
-223.018
-223.607
-224.196
-224.784
-225.373
-225.961
-226.55
-227.139
-227.727
-228.316
-228.904
-229.493
-230.082
-230.67
-231.259
-231.847
-232.436
-233.025
-233.613
-234.202
-234.79
-235.379
-235.968
-236.556
-237.145
-237.733
-238.322
-238.911
-239.499
-240.088
-240.676
-241.265
-241.854
-242.442
-243.031
-147.213
-147.805
-148.396
-148.988
-149.579
-150.17
-150.761
-151.352
-151.943
-152.534
-153.124
-153.715
-154.305
-154.896
-155.486
-156.076
-156.666
-157.256
-157.846
-158.436
-159.026
-159.615
-160.205
-160.795
-161.384
-161.974
-162.563
-163.152
-163.742
-164.331
-164.92
-165.509
-166.099
-166.688
-167.277
-167.866
-168.455
-169.044
-169.633
-170.222
-170.811
-171.4
-171.989
-172.578
-173.167
-173.755
-174.344
-174.933
-175.522
-176.111
-176.7
-177.288
-177.877
-178.466
-179.055
-179.643
-180.232
-180.821
-181.409
-181.998
-182.587
-183.175
-183.764
-184.353
-184.941
-185.53
-186.119
-186.707
-187.296
-187.885
-188.473
-189.062
-189.651
-190.239
-190.828
-191.417
-192.005
-192.594
-193.182
-193.771
-194.36
-194.948
-195.537
-196.126
-196.714
-197.303
-197.891
-198.48
-199.069
-199.657
-200.246
-200.834
-201.423
-202.012
-202.6
-203.189
-203.777
-204.366
-204.955
-205.543
-206.132
-206.72
-207.309
-207.898
-208.486
-209.075
-209.664
-210.252
-210.841
-211.429
-212.018
-212.607
-213.195
-213.784
-214.372
-214.961
-215.55
-216.138
-216.727
-217.315
-217.904
-218.493
-219.081
-219.67
-220.258
-220.847
-221.436
-222.024
-222.613
-223.201
-223.79
-224.379
-224.967
-225.556
-226.144
-226.733
-227.322
-227.91
-228.499
-229.087
-229.676
-230.265
-230.853
-231.442
-232.03
-232.619
-233.208
-233.796
-234.385
-234.973
-235.562
-236.151
-236.739
-237.328
-237.916
-238.505
-239.094
-239.682
-240.271
-240.859
-241.448
-242.037
-242.625
-243.214
-147.457
-148.049
-148.64
-149.232
-149.823
-150.414
-151.005
-151.596
-152.187
-152.778
-153.368
-153.959
-154.549
-155.139
-155.73
-156.32
-156.91
-157.5
-158.09
-158.68
-159.269
-159.859
-160.449
-161.038
-161.628
-162.217
-162.807
-163.396
-163.986
-164.575
-165.164
-165.753
-166.343
-166.932
-167.521
-168.11
-168.699
-169.288
-169.877
-170.466
-171.055
-171.644
-172.233
-172.822
-173.41
-173.999
-174.588
-175.177
-175.766
-176.355
-176.943
-177.532
-178.121
-178.71
-179.298
-179.887
-180.476
-181.065
-181.653
-182.242
-182.831
-183.419
-184.008
-184.597
-185.185
-185.774
-186.363
-186.951
-187.54
-188.129
-188.717
-189.306
-189.895
-190.483
-191.072
-191.66
-192.249
-192.838
-193.426
-194.015
-194.604
-195.192
-195.781
-196.369
-196.958
-197.547
-198.135
-198.724
-199.312
-199.901
-200.49
-201.078
-201.667
-202.256
-202.844
-203.433
-204.021
-204.61
-205.199
-205.787
-206.376
-206.964
-207.553
-208.142
-208.73
-209.319
-209.907
-210.496
-211.085
-211.673
-212.262
-212.85
-213.439
-214.028
-214.616
-215.205
-215.793
-216.382
-216.971
-217.559
-218.148
-218.736
-219.325
-219.914
-220.502
-221.091
-221.679
-222.268
-222.857
-223.445
-224.034
-224.622
-225.211
-225.8
-226.388
-226.977
-227.565
-228.154
-228.743
-229.331
-229.92
-230.508
-231.097
-231.686
-232.274
-232.863
-233.451
-234.04
-234.629
-235.217
-235.806
-236.394
-236.983
-237.572
-238.16
-238.749
-239.337
-239.926
-240.515
-241.103
-241.692
-242.28
-242.869
-243.458
-147.701
-148.292
-148.884
-149.475
-150.067
-150.658
-151.249
-151.84
-152.431
-153.021
-153.612
-154.203
-154.793
-155.383
-155.973
-156.564
-157.154
-157.744
-158.334
-158.923
-159.513
-160.103
-160.693
-161.282
-161.872
-162.461
-163.051
-163.64
-164.229
-164.819
-165.408
-165.997
-166.586
-167.175
-167.765
-168.354
-168.943
-169.532
-170.121
-170.71
-171.299
-171.888
-172.477
-173.065
-173.654
-174.243
-174.832
-175.421
-176.01
-176.598
-177.187
-177.776
-178.365
-178.953
-179.542
-180.131
-180.72
-181.308
-181.897
-182.486
-183.074
-183.663
-184.252
-184.841
-185.429
-186.018
-186.607
-187.195
-187.784
-188.372
-188.961
-189.55
-190.138
-190.727
-191.316
-191.904
-192.493
-193.082
-193.67
-194.259
-194.847
-195.436
-196.025
-196.613
-197.202
-197.79
-198.379
-198.968
-199.556
-200.145
-200.734
-201.322
-201.911
-202.499
-203.088
-203.677
-204.265
-204.854
-205.442
-206.031
-206.62
-207.208
-207.797
-208.385
-208.974
-209.563
-210.151
-210.74
-211.328
-211.917
-212.506
-213.094
-213.683
-214.271
-214.86
-215.449
-216.037
-216.626
-217.214
-217.803
-218.392
-218.98
-219.569
-220.157
-220.746
-221.335
-221.923
-222.512
-223.1
-223.689
-224.278
-224.866
-225.455
-226.043
-226.632
-227.221
-227.809
-228.398
-228.986
-229.575
-230.164
-230.752
-231.341
-231.929
-232.518
-233.107
-233.695
-234.284
-234.872
-235.461
-236.05
-236.638
-237.227
-237.815
-238.404
-238.993
-239.581
-240.17
-240.758
-241.347
-241.936
-242.524
-243.113
-243.701
-147.945
-148.536
-149.128
-149.719
-150.311
-150.902
-151.493
-152.084
-152.675
-153.265
-153.856
-154.446
-155.037
-155.627
-156.217
-156.808
-157.398
-157.988
-158.577
-159.167
-159.757
-160.347
-160.936
-161.526
-162.116
-162.705
-163.295
-163.884
-164.473
-165.063
-165.652
-166.241
-166.83
-167.419
-168.008
-168.598
-169.187
-169.776
-170.365
-170.954
-171.543
-172.131
-172.72
-173.309
-173.898
-174.487
-175.076
-175.665
-176.253
-176.842
-177.431
-178.02
-178.609
-179.197
-179.786
-180.375
-180.964
-181.552
-182.141
-182.73
-183.318
-183.907
-184.496
-185.084
-185.673
-186.262
-186.85
-187.439
-188.028
-188.616
-189.205
-189.794
-190.382
-190.971
-191.559
-192.148
-192.737
-193.325
-193.914
-194.503
-195.091
-195.68
-196.268
-196.857
-197.446
-198.034
-198.623
-199.212
-199.8
-200.389
-200.977
-201.566
-202.155
-202.743
-203.332
-203.92
-204.509
-205.098
-205.686
-206.275
-206.863
-207.452
-208.041
-208.629
-209.218
-209.806
-210.395
-210.984
-211.572
-212.161
-212.749
-213.338
-213.927
-214.515
-215.104
-215.692
-216.281
-216.87
-217.458
-218.047
-218.635
-219.224
-219.813
-220.401
-220.99
-221.578
-222.167
-222.756
-223.344
-223.933
-224.521
-225.11
-225.699
-226.287
-226.876
-227.464
-228.053
-228.642
-229.23
-229.819
-230.407
-230.996
-231.585
-232.173
-232.762
-233.35
-233.939
-234.528
-235.116
-235.705
-236.293
-236.882
-237.471
-238.059
-238.648
-239.236
-239.825
-240.414
-241.002
-241.591
-242.179
-242.768
-243.357
-243.945
-148.188
-148.78
-149.372
-149.963
-150.554
-151.146
-151.737
-152.328
-152.918
-153.509
-154.1
-154.69
-155.281
-155.871
-156.461
-157.051
-157.641
-158.231
-158.821
-159.411
-160.001
-160.591
-161.18
-161.77
-162.359
-162.949
-163.538
-164.128
-164.717
-165.306
-165.896
-166.485
-167.074
-167.663
-168.252
-168.841
-169.43
-170.019
-170.608
-171.197
-171.786
-172.375
-172.964
-173.553
-174.142
-174.731
-175.32
-175.909
-176.497
-177.086
-177.675
-178.264
-178.852
-179.441
-180.03
-180.619
-181.207
-181.796
-182.385
-182.973
-183.562
-184.151
-184.74
-185.328
-185.917
-186.506
-187.094
-187.683
-188.272
-188.86
-189.449
-190.037
-190.626
-191.215
-191.803
-192.392
-192.981
-193.569
-194.158
-194.746
-195.335
-195.924
-196.512
-197.101
-197.69
-198.278
-198.867
-199.455
-200.044
-200.633
-201.221
-201.81
-202.398
-202.987
-203.576
-204.164
-204.753
-205.341
-205.93
-206.519
-207.107
-207.696
-208.284
-208.873
-209.462
-210.05
-210.639
-211.228
-211.816
-212.405
-212.993
-213.582
-214.171
-214.759
-215.348
-215.936
-216.525
-217.114
-217.702
-218.291
-218.879
-219.468
-220.057
-220.645
-221.234
-221.822
-222.411
-223
-223.588
-224.177
-224.765
-225.354
-225.943
-226.531
-227.12
-227.708
-228.297
-228.886
-229.474
-230.063
-230.651
-231.24
-231.829
-232.417
-233.006
-233.594
-234.183
-234.772
-235.36
-235.949
-236.537
-237.126
-237.715
-238.303
-238.892
-239.48
-240.069
-240.658
-241.246
-241.835
-242.423
-243.012
-243.601
-244.189
-148.432
-149.024
-149.616
-150.207
-150.798
-151.389
-151.981
-152.571
-153.162
-153.753
-154.344
-154.934
-155.525
-156.115
-156.705
-157.295
-157.885
-158.475
-159.065
-159.655
-160.245
-160.835
-161.424
-162.014
-162.603
-163.193
-163.782
-164.372
-164.961
-165.55
-166.14
-166.729
-167.318
-167.907
-168.496
-169.085
-169.674
-170.263
-170.852
-171.441
-172.03
-172.619
-173.208
-173.797
-174.386
-174.975
-175.564
-176.152
-176.741
-177.33
-177.919
-178.508
-179.096
-179.685
-180.274
-180.863
-181.451
-182.04
-182.629
-183.217
-183.806
-184.395
-184.983
-185.572
-186.161
-186.749
-187.338
-187.927
-188.515
-189.104
-189.693
-190.281
-190.87
-191.459
-192.047
-192.636
-193.224
-193.813
-194.402
-194.99
-195.579
-196.168
-196.756
-197.345
-197.933
-198.522
-199.111
-199.699
-200.288
-200.876
-201.465
-202.054
-202.642
-203.231
-203.82
-204.408
-204.997
-205.585
-206.174
-206.763
-207.351
-207.94
-208.528
-209.117
-209.706
-210.294
-210.883
-211.471
-212.06
-212.649
-213.237
-213.826
-214.414
-215.003
-215.592
-216.18
-216.769
-217.357
-217.946
-218.535
-219.123
-219.712
-220.3
-220.889
-221.478
-222.066
-222.655
-223.243
-223.832
-224.421
-225.009
-225.598
-226.186
-226.775
-227.364
-227.952
-228.541
-229.129
-229.718
-230.307
-230.895
-231.484
-232.072
-232.661
-233.25
-233.838
-234.427
-235.015
-235.604
-236.193
-236.781
-237.37
-237.958
-238.547
-239.136
-239.724
-240.313
-240.901
-241.49
-242.079
-242.667
-243.256