/*--------------------------------*- C++ -*----------------------------------*\
| =========                 |                                                 |
| \\      /  F ield         | OpenFOAM: The Open Source CFD Toolbox           |
|  \\    /   O peration     | Version:  v1912                                 |
|   \\  /    A nd           | Website:  www.openfoam.com                      |
|    \\/     M anipulation  |                                                 |
\*---------------------------------------------------------------------------*/
FoamFile
{
    version     2.0;
    format      ascii;
    class       volScalarField;
    location    "90";
    object      p_rgh;
}
// * * * * * * * * * * * * * * * * * * * * * * * * * * * * * * * * * * * * * //

dimensions      [1 -1 -2 0 0 0 0];


internalField   nonuniform List<scalar> 
14268
(
-617.376
-1545.69
-2090.67
-2415.58
-2611.76
-2552.29
-2303.76
-1884.67
-623.09
-1550.35
-2094.41
-2418.62
-2614.31
-2554.56
-2305.67
-1885.62
-623.109
-1550.16
-2094.06
-2418.15
-2613.67
-2553.6
-2304.83
-1884.65
-627.065
-1553.25
-2096.46
-2420.06
-2615.26
-2555.2
-2305.93
-1884.83
-626.904
-1552.96
-2096.05
-2419.54
-2614.61
-2554.2
-2305.19
-1883.89
-630.248
-1555.6
-2098.09
-2421.15
-2615.94
-2555.56
-2305.93
-1883.8
-630.276
-1555.46
-2097.8
-2420.75
-2615.42
-2554.79
-2305.45
-1883
-633.524
-1557.98
-2099.71
-2422.22
-2616.6
-2555.94
-2306
-1882.8
-633.648
-1557.97
-2099.54
-2421.99
-2616.22
-2555.4
-2305.67
-1882.04
-636.813
-1560.49
-2101.4
-2423.28
-2617.28
-2556.36
-2306.1
-1881.8
-637.447
-1560.7
-2101.38
-2423.22
-2617.04
-2556.11
-2305.93
-1881.08
-640.128
-1562.95
-2103.1
-2424.44
-2618.04
-2556.89
-2306.26
-1880.8
-641.19
-1563.47
-2103.26
-2424.48
-2617.9
-2556.87
-2306.21
-1880.16
-643.791
-1565.7
-2104.97
-2425.71
-2618.87
-2557.6
-2306.54
-1879.79
-639.738
-1562.19
-2102.04
-2423.51
-2618.05
-2560.04
-2312.24
-1888.52
-657.312
-1574.75
-2110.15
-2428.49
-2621.6
-2562.41
-2313.21
-1887.87
-672.894
-1584.74
-2115.59
-2431.05
-2622.8
-2564.13
-2313.72
-1886.74
-693.045
-1597.89
-2123.32
-2435.69
-2625.58
-2566.17
-2314.71
-1886.07
-714.654
-1611.6
-2130.54
-2438.45
-2627.8
-2568.8
-2315.46
-1885.07
-738.974
-1626.04
-2137.87
-2441.83
-2628.97
-2569.71
-2316.14
-1884.29
-764.563
-1641.91
-2145.5
-2443.9
-2632.34
-2572.33
-2317.12
-1883.51
-806.172
-1653.4
-2132
-2412.43
-2576.23
-2524.24
-2277.61
-1859.71
-898.585
-1679.4
-2115.81
-2270.39
-2406.24
-2384.46
-2082.03
-1636.75
-886.836
-1602.79
-1973.94
-2158.46
-2227.9
-2089.68
-1764.33
-1257.07
-413.682
-591.054
-581.324
-543.651
-433.156
-367.564
-245.554
-99.6073
297.644
137.219
85.1693
48.7055
36.4935
50.134
126.148
273.289
28.541
26.1319
17.685
14.368
12.0199
9.93836
9.03556
7.33132
15.1314
18.27
14.1705
12.5135
10.5087
9.11471
8.14749
7.44848
14.115
16.3998
13.4437
11.3168
10.0254
8.96067
7.93028
7.2923
13.0206
14.6683
12.7092
11.1515
9.92187
8.91142
7.79131
6.89506
11.6028
12.9813
11.6238
10.5933
9.72143
8.73656
7.6651
6.7519
10.2003
11.6059
11.2815
10.5593
9.61416
8.62073
7.58492
6.6215
9.06222
10.7518
10.8185
10.148
9.35701
8.45901
7.50424
6.65298
8.46415
10.0926
10.4509
9.93496
9.16713
8.33625
7.43742
6.62095
8.07345
9.56075
9.95505
9.52796
8.92574
8.17906
7.36594
6.61633
7.75523
9.10666
9.53282
9.29054
8.7075
8.02752
7.27978
6.5873
7.51821
8.72124
9.14497
8.92985
8.48324
7.87311
7.19401
6.55269
7.3248
8.38905
8.79593
8.67088
8.27013
7.71639
7.09957
6.50822
7.16772
8.10701
8.48538
8.41311
8.06438
7.56742
7.00387
6.45668
7.03727
7.85671
8.20382
8.14567
7.86405
7.41703
6.90462
6.39878
6.92756
7.63962
7.95319
7.92924
7.67695
7.27198
6.80419
6.33649
6.83143
7.44488
7.72432
7.70589
7.49686
7.13129
6.70413
6.27072
6.74714
7.27359
7.51917
7.50948
7.32896
6.99513
6.60376
6.20169
6.66958
7.11843
7.33246
7.32645
7.16603
6.86186
6.50269
6.13017
6.59961
6.97889
7.16247
7.15659
7.00945
6.73481
6.40357
6.05719
6.5325
6.85098
7.00689
7.00161
6.86189
6.61106
6.30523
5.98258
6.47026
6.73413
6.86331
6.85157
6.7217
6.49219
6.20843
5.9067
6.40971
6.62561
6.73015
6.71289
6.58907
6.37801
6.11324
5.83017
6.35136
6.52484
6.60637
6.58153
6.4628
6.26741
6.01911
5.75295
6.29394
6.42985
6.49012
6.45536
6.3421
6.16144
5.92675
5.67547
6.23729
6.34013
6.3813
6.34913
6.22819
6.05743
5.83567
5.59774
6.18082
6.25426
6.27742
6.23464
6.11983
5.95521
5.74653
5.52021
6.12442
6.17199
6.17871
6.12787
6.01536
5.85589
5.65841
5.44368
6.06762
6.09228
6.08388
6.02708
5.91418
5.75984
5.57165
5.36751
6.01047
6.01494
5.99278
5.92887
5.81682
5.66617
5.48687
5.2903
5.95272
5.93927
5.90462
5.83347
5.72288
5.57515
5.4033
5.21352
5.89441
5.86504
5.81909
5.74237
5.6309
5.48678
5.32034
5.13773
5.83537
5.79177
5.73565
5.65353
5.54119
5.39995
5.23859
5.06223
5.77558
5.71925
5.65396
5.56695
5.45356
5.3145
5.15799
4.98677
5.71484
5.64726
5.5737
5.48185
5.36783
5.23046
5.07816
4.9115
5.65303
5.57564
5.49461
5.39816
5.2837
5.14781
4.99888
4.83659
5.59014
5.50423
5.41653
5.31578
5.20087
5.06638
4.9202
4.76203
5.52619
5.43289
5.33918
5.23489
5.11899
4.98603
4.84215
4.68782
5.46119
5.3615
5.26225
5.15528
5.03797
4.90658
4.76482
4.61396
5.39513
5.28997
5.18571
5.0765
4.95791
4.82778
4.68819
4.54041
5.32803
5.21823
5.10942
4.9984
4.87873
4.74947
4.61213
4.46714
5.25991
5.14618
5.03348
4.92059
4.80027
4.6716
4.53649
4.39413
5.19078
5.0737
4.959
4.84306
4.72234
4.59423
4.46115
4.32135
5.12066
5.00054
4.8835
4.76583
4.64485
4.51737
4.38606
4.24877
5.04967
4.92671
4.80807
4.68878
4.56761
4.44109
4.31115
4.1764
4.97785
4.85235
4.73236
4.61188
4.49053
4.3653
4.23646
4.10415
4.90511
4.77755
4.65616
4.53519
4.4136
4.28978
4.16203
4.03203
4.83141
4.70225
4.57952
4.45871
4.33684
4.21445
4.08778
3.95999
4.75682
4.62637
4.50261
4.38201
4.2604
4.13905
4.01377
3.88797
4.68125
4.54996
4.42548
4.30502
4.18414
4.0635
3.93999
3.8159
4.60464
4.47301
4.34818
4.22784
4.10781
3.988
3.86627
3.74379
4.52667
4.39549
4.27067
4.15049
4.0314
3.91256
3.79256
3.67171
4.29315
4.16439
4.04034
3.92141
3.805
3.68938
3.57417
3.45831
3.88756
3.76491
3.64859
3.53535
3.42546
3.31689
3.20999
3.10295
3.46519
3.35236
3.24531
3.14113
3.04009
2.94095
2.84321
2.74605
3.02895
2.92841
2.83206
2.73906
2.64857
2.56008
2.47277
2.38644
2.58132
2.49454
2.4111
2.33048
2.25194
2.17501
2.0993
2.02434
2.12438
2.05234
1.98278
1.91556
1.84996
1.78566
1.7223
1.6596
1.66022
1.60358
1.54873
1.49562
1.44369
1.39269
1.34238
1.29253
1.19035
1.14954
1.10986
1.07147
1.03379
0.996664
0.959936
0.923442
0.716522
0.691937
0.668036
0.644589
0.621445
0.59852
0.575712
0.552919
0.239564
0.231273
0.2231
0.215052
0.206816
0.198394
0.189769
0.180915
-1380.71
-1090.42
-873.058
-755.457
-719.503
-716.996
-741.56
-794.5
-877.812
-918.327
-861.533
-720.887
-464.235
84.0141
906.576
1522.81
1817.85
1877.59
1835.87
1727.39
1510.1
1128.98
554.527
-1.70224
-189.854
32.1988
494.86
811.374
912.033
830.808
651.767
469.93
337.554
281.72
316.084
451.179
627.072
801.26
962.013
1112.01
1250.84
1380.57
1502.09
1619.06
1731.53
1832.35
1917.69
1989.38
2052.39
2105.98
2169.04
2260.91
2392.16
2552.56
2712.14
2851.29
2976.73
3108.34
3267.11
3450.81
3630.45
3780.91
3886.19
3950.88
3986.06
4003.13
4013.86
4025.08
4029.08
3988.14
3852.78
3581.25
3165.36
2667.51
2220.4
1917.58
1771.72
1714.74
1710.57
1727.07
1736.45
1737.29
1775
1861.95
1919.04
1940.35
1951.85
1962.01
1985.43
2029.8
2080.19
2122.87
2152.87
2167.26
2190.09
2243.8
2340.58
2481.89
2638.42
2792.42
2936.12
3070.48
3196.81
3314.9
3428.73
3545.61
3671.19
3804.14
3938.16
4066.05
4183.78
4288.36
4377.19
4449.78
4509.06
4560.34
4609.72
4662.79
4723.2
4792.52
4869.26
4948.98
5027.14
5101.57
5174.85
5248.81
5328.01
5414.49
5507.7
5607.38
5711.43
5817.37
5921.48
6018.27
6101.4
6166.57
6213.55
6245.51
6266.78
6283.51
6302.05
6327.84
6364.53
6415.47
6483.47
6569.72
6671.97
6784.64
6900.48
7011.71
7112.3
7203.05
7288.26
7367.76
7430.19
7455.78
-1382.05
-1092.1
-874.552
-756.252
-719.833
-717.034
-741.557
-794.499
-877.815
-918.338
-861.54
-720.9
-464.26
83.9887
906.58
1522.84
1817.88
1877.6
1835.88
1727.4
1510.12
1129
554.525
-1.73206
-189.893
32.1715
494.865
811.394
912.051
830.818
651.768
469.925
337.547
281.711
316.074
451.172
627.07
801.26
962.013
1112.01
1250.84
1380.57
1502.09
1619.06
1731.53
1832.35
1917.69
1989.38
2052.39
2105.98
2169.03
2260.91
2392.15
2552.56
2712.14
2851.29
2976.73
3108.34
3267.11
3450.8
3630.45
3780.91
3886.19
3950.89
3986.06
4003.13
4013.86
4025.08
4029.09
3988.15
3852.79
3581.26
3165.37
2667.5
2220.38
1917.57
1771.71
1714.73
1710.57
1727.07
1736.45
1737.29
1775
1861.95
1919.04
1940.35
1951.85
1962.01
1985.43
2029.8
2080.19
2122.87
2152.87
2167.26
2190.09
2243.79
2340.58
2481.88
2638.42
2792.42
2936.12
3070.48
3196.81
3314.9
3428.72
3545.61
3671.19
3804.14
3938.16
4066.05
4183.78
4288.36
4377.19
4449.78
4509.06
4560.35
4609.72
4662.79
4723.2
4792.52
4869.26
4948.98
5027.14
5101.57
5174.85
5248.81
5328.01
5414.49
5507.7
5607.38
5711.43
5817.37
5921.48
6018.27
6101.4
6166.57
6213.55
6245.51
6266.78
6283.51
6302.05
6327.84
6364.53
6415.47
6483.47
6569.72
6671.97
6784.64
6900.48
7011.71
7112.3
7203.05
7288.26
7367.76
7430.19
7455.78
-1381.5
-1091.65
-874.218
-756.08
-719.796
-717.069
-741.554
-794.497
-877.821
-918.359
-861.56
-720.926
-464.312
83.9378
906.59
1522.89
1817.92
1877.63
1835.89
1727.42
1510.15
1129.02
554.52
-1.79187
-189.972
32.117
494.875
811.434
912.086
830.84
651.771
469.916
337.532
281.691
316.053
451.158
627.065
801.261
962.015
1112.01
1250.84
1380.58
1502.09
1619.06
1731.53
1832.36
1917.69
1989.39
2052.39
2105.98
2169.03
2260.9
2392.15
2552.55
2712.15
2851.29
2976.73
3108.33
3267.1
3450.8
3630.46
3780.92
3886.2
3950.89
3986.06
4003.13
4013.86
4025.09
4029.1
3988.17
3852.82
3581.29
3165.38
2667.49
2220.35
1917.54
1771.69
1714.72
1710.57
1727.07
1736.44
1737.28
1774.99
1861.95
1919.05
1940.36
1951.85
1962.01
1985.42
2029.8
2080.19
2122.87
2152.87
2167.26
2190.08
2243.79
2340.57
2481.88
2638.42
2792.43
2936.12
3070.49
3196.81
3314.9
3428.72
3545.6
3671.19
3804.14
3938.16
4066.05
4183.78
4288.36
4377.19
4449.79
4509.06
4560.35
4609.72
4662.78
4723.2
4792.52
4869.26
4948.98
5027.14
5101.58
5174.85
5248.81
5328
5414.49
5507.7
5607.38
5711.43
5817.37
5921.48
6018.27
6101.41
6166.57
6213.55
6245.52
6266.78
6283.51
6302.05
6327.84
6364.53
6415.46
6483.47
6569.72
6671.96
6784.64
6900.49
7011.71
7112.3
7203.05
7288.26
7367.76
7430.2
7455.79
-1382.04
-1092.6
-875.077
-756.547
-720.038
-717.105
-741.551
-794.494
-877.83
-918.391
-861.589
-720.964
-464.388
83.8614
906.604
1522.97
1817.99
1877.67
1835.92
1727.45
1510.2
1129.06
554.514
-1.88127
-190.09
32.0351
494.891
811.494
912.138
830.873
651.774
469.901
337.509
281.662
316.022
451.137
627.057
801.262
962.017
1112.01
1250.84
1380.58
1502.09
1619.06
1731.53
1832.36
1917.7
1989.39
2052.4
2105.98
2169.02
2260.89
2392.14
2552.55
2712.15
2851.3
2976.73
3108.33
3267.09
3450.8
3630.47
3780.93
3886.22
3950.9
3986.07
4003.13
4013.86
4025.09
4029.11
3988.2
3852.86
3581.32
3165.4
2667.47
2220.3
1917.49
1771.66
1714.7
1710.56
1727.07
1736.44
1737.28
1774.98
1861.95
1919.06
1940.36
1951.85
1962.01
1985.42
2029.8
2080.19
2122.88
2152.87
2167.26
2190.07
2243.77
2340.55
2481.87
2638.42
2792.43
2936.12
3070.49
3196.82
3314.9
3428.72
3545.6
3671.18
3804.14
3938.17
4066.05
4183.79
4288.37
4377.2
4449.79
4509.06
4560.35
4609.72
4662.78
4723.19
4792.52
4869.26
4948.98
5027.14
5101.58
5174.85
5248.81
5328
5414.48
5507.7
5607.38
5711.42
5817.37
5921.48
6018.27
6101.41
6166.58
6213.56
6245.52
6266.79
6283.51
6302.05
6327.83
6364.52
6415.46
6483.46
6569.71
6671.96
6784.64
6900.49
7011.72
7112.3
7203.05
7288.26
7367.77
7430.21
7455.8
-1381.42
-1092.19
-874.788
-756.421
-720.006
-717.15
-741.557
-794.491
-877.843
-918.434
-861.607
-721.016
-464.491
83.7589
906.623
1523.08
1818.09
1877.73
1835.95
1727.5
1510.26
1129.11
554.506
-2.00101
-190.248
31.9261
494.911
811.576
912.208
830.916
651.779
469.882
337.479
281.623
315.981
451.11
627.047
801.263
962.019
1112.02
1250.85
1380.58
1502.1
1619.07
1731.54
1832.37
1917.7
1989.39
2052.4
2105.98
2169.01
2260.87
2392.12
2552.55
2712.16
2851.3
2976.73
3108.32
3267.08
3450.8
3630.48
3780.95
3886.23
3950.92
3986.08
4003.14
4013.86
4025.09
4029.13
3988.24
3852.91
3581.37
3165.42
2667.45
2220.24
1917.42
1771.62
1714.68
1710.55
1727.07
1736.44
1737.27
1774.97
1861.96
1919.07
1940.37
1951.85
1962
1985.41
2029.79
2080.19
2122.88
2152.88
2167.26
2190.06
2243.75
2340.53
2481.86
2638.41
2792.43
2936.12
3070.49
3196.82
3314.9
3428.72
3545.6
3671.18
3804.14
3938.17
4066.05
4183.79
4288.38
4377.2
4449.8
4509.06
4560.35
4609.72
4662.78
4723.19
4792.51
4869.26
4948.98
5027.14
5101.58
5174.85
5248.8
5328
5414.48
5507.69
5607.38
5711.42
5817.37
5921.49
6018.28
6101.42
6166.59
6213.56
6245.52
6266.79
6283.51
6302.05
6327.83
6364.52
6415.45
6483.45
6569.7
6671.96
6784.64
6900.49
7011.72
7112.31
7203.06
7288.26
7367.78
7430.22
7455.81
-1381.74
-1092.83
-875.397
-756.77
-720.202
-717.196
-741.571
-794.487
-877.859
-918.487
-861.69
-721.082
-464.62
83.6294
906.645
1523.22
1818.21
1877.79
1836
1727.55
1510.34
1129.17
554.495
-2.14991
-190.444
31.79
494.94
811.678
912.295
830.97
651.785
469.858
337.442
281.574
315.931
451.076
627.035
801.265
962.023
1112.02
1250.85
1380.59
1502.1
1619.07
1731.54
1832.38
1917.71
1989.4
2052.4
2105.97
2168.99
2260.85
2392.11
2552.55
2712.16
2851.31
2976.73
3108.3
3267.07
3450.8
3630.49
3780.97
3886.26
3950.93
3986.09
4003.14
4013.86
4025.1
4029.15
3988.29
3852.98
3581.44
3165.44
2667.42
2220.17
1917.34
1771.57
1714.65
1710.54
1727.07
1736.44
1737.25
1774.95
1861.96
1919.09
1940.37
1951.85
1962
1985.4
2029.79
2080.19
2122.88
2152.88
2167.26
2190.05
2243.73
2340.51
2481.85
2638.41
2792.43
2936.13
3070.49
3196.82
3314.9
3428.72
3545.59
3671.17
3804.14
3938.17
4066.06
4183.8
4288.38
4377.21
4449.8
4509.07
4560.35
4609.71
4662.77
4723.18
4792.51
4869.25
4948.98
5027.14
5101.58
5174.85
5248.8
5327.99
5414.48
5507.69
5607.37
5711.42
5817.37
5921.49
6018.29
6101.43
6166.59
6213.57
6245.53
6266.79
6283.51
6302.04
6327.82
6364.51
6415.44
6483.44
6569.69
6671.95
6784.63
6900.49
7011.73
7112.31
7203.06
7288.26
7367.78
7430.24
7455.83
-1381.13
-1092.55
-875.184
-756.689
-720.202
-717.25
-741.591
-794.482
-877.877
-918.552
-861.716
-721.159
-464.775
83.4708
906.668
1523.38
1818.35
1877.88
1836.05
1727.61
1510.43
1129.24
554.482
-2.32936
-190.679
31.6282
494.974
811.799
912.4
831.034
651.793
469.829
337.396
281.516
315.87
451.036
627.021
801.267
962.027
1112.03
1250.86
1380.59
1502.1
1619.07
1731.55
1832.38
1917.72
1989.4
2052.4
2105.97
2168.98
2260.83
2392.09
2552.54
2712.17
2851.32
2976.72
3108.29
3267.05
3450.8
3630.51
3781
3886.28
3950.95
3986.1
4003.15
4013.87
4025.11
4029.18
3988.35
3853.06
3581.51
3165.48
2667.38
2220.07
1917.24
1771.5
1714.62
1710.52
1727.07
1736.44
1737.24
1774.93
1861.97
1919.11
1940.38
1951.85
1961.99
1985.39
2029.78
2080.2
2122.89
2152.89
2167.25
2190.03
2243.71
2340.48
2481.83
2638.41
2792.44
2936.13
3070.49
3196.82
3314.9
3428.71
3545.58
3671.17
3804.14
3938.17
4066.07
4183.81
4288.39
4377.22
4449.81
4509.07
4560.35
4609.71
4662.77
4723.18
4792.5
4869.25
4948.98
5027.14
5101.58
5174.85
5248.8
5327.99
5414.47
5507.68
5607.37
5711.42
5817.37
5921.49
6018.29
6101.44
6166.61
6213.58
6245.54
6266.79
6283.51
6302.04
6327.81
6364.5
6415.43
6483.43
6569.68
6671.94
6784.63
6900.5
7011.73
7112.32
7203.06
7288.27
7367.79
7430.27
7455.85
-1381.32
-1093.02
-875.656
-756.982
-720.361
-717.312
-741.619
-794.479
-877.898
-918.626
-861.754
-721.249
-464.952
83.2969
906.704
1523.57
1818.51
1877.97
1836.11
1727.69
1510.54
1129.33
554.467
-2.53793
-190.954
31.44
495.011
811.94
912.522
831.112
651.801
469.796
337.344
281.447
315.798
450.988
627.004
801.27
962.031
1112.03
1250.87
1380.6
1502.11
1619.08
1731.56
1832.4
1917.73
1989.41
2052.41
2105.96
2168.96
2260.8
2392.06
2552.54
2712.18
2851.33
2976.72
3108.27
3267.03
3450.79
3630.53
3781.03
3886.31
3950.97
3986.11
4003.15
4013.87
4025.11
4029.21
3988.41
3853.16
3581.6
3165.51
2667.34
2219.97
1917.13
1771.43
1714.58
1710.51
1727.07
1736.44
1737.22
1774.91
1861.97
1919.13
1940.39
1951.85
1961.98
1985.37
2029.77
2080.2
2122.9
2152.9
2167.25
2190.01
2243.67
2340.45
2481.81
2638.41
2792.44
2936.13
3070.5
3196.83
3314.9
3428.71
3545.57
3671.16
3804.13
3938.18
4066.07
4183.82
4288.4
4377.23
4449.82
4509.08
4560.35
4609.71
4662.76
4723.17
4792.5
4869.25
4948.98
5027.15
5101.58
5174.85
5248.79
5327.98
5414.47
5507.68
5607.37
5711.42
5817.37
5921.5
6018.3
6101.45
6166.62
6213.59
6245.54
6266.8
6283.5
6302.03
6327.8
6364.49
6415.41
6483.42
6569.67
6671.94
6784.63
6900.5
7011.74
7112.33
7203.07
7288.27
7367.81
7430.29
7455.87
-1380.74
-1092.77
-875.491
-756.921
-720.394
-717.372
-741.652
-794.485
-877.923
-918.712
-861.876
-721.354
-465.157
83.0961
906.747
1523.79
1818.7
1878.08
1836.18
1727.77
1510.66
1129.43
554.451
-2.77622
-191.268
31.2231
495.055
812.102
912.661
831.196
651.811
469.758
337.284
281.37
315.717
450.933
626.984
801.273
962.037
1112.04
1250.87
1380.61
1502.11
1619.08
1731.57
1832.41
1917.74
1989.42
2052.41
2105.96
2168.93
2260.77
2392.04
2552.53
2712.2
2851.34
2976.71
3108.25
3267.01
3450.79
3630.55
3781.07
3886.35
3951
3986.13
4003.16
4013.87
4025.12
4029.25
3988.49
3853.26
3581.7
3165.56
2667.29
2219.84
1917
1771.34
1714.53
1710.49
1727.07
1736.44
1737.2
1774.88
1861.98
1919.16
1940.4
1951.85
1961.97
1985.36
2029.76
2080.2
2122.91
2152.9
2167.24
2189.99
2243.64
2340.41
2481.79
2638.4
2792.45
2936.14
3070.5
3196.83
3314.9
3428.71
3545.57
3671.15
3804.13
3938.18
4066.08
4183.83
4288.42
4377.25
4449.83
4509.09
4560.35
4609.7
4662.75
4723.16
4792.49
4869.25
4948.98
5027.15
5101.58
5174.85
5248.79
5327.98
5414.46
5507.67
5607.36
5711.42
5817.37
5921.5
6018.31
6101.47
6166.63
6213.6
6245.55
6266.8
6283.5
6302.02
6327.79
6364.47
6415.4
6483.4
6569.66
6671.93
6784.63
6900.5
7011.75
7112.33
7203.07
7288.27
7367.82
7430.32
7455.9
-1380.83
-1093.14
-875.872
-757.188
-720.53
-717.451
-741.697
-794.502
-877.951
-918.808
-861.921
-721.471
-465.389
82.8654
906.789
1524.05
1818.91
1878.21
1836.26
1727.86
1510.8
1129.54
554.434
-3.04507
-191.621
30.9791
495.103
812.285
912.819
831.297
651.822
469.714
337.216
281.282
315.625
450.872
626.962
801.276
962.043
1112.05
1250.88
1380.61
1502.12
1619.08
1731.58
1832.42
1917.75
1989.42
2052.41
2105.95
2168.91
2260.74
2392
2552.53
2712.21
2851.36
2976.71
3108.23
3266.98
3450.79
3630.58
3781.11
3886.39
3951.03
3986.15
4003.17
4013.87
4025.13
4029.29
3988.58
3853.38
3581.81
3165.61
2667.24
2219.7
1916.85
1771.25
1714.48
1710.47
1727.07
1736.44
1737.17
1774.85
1861.99
1919.19
1940.42
1951.85
1961.96
1985.34
2029.75
2080.2
2122.92
2152.91
2167.24
2189.96
2243.6
2340.37
2481.77
2638.4
2792.45
2936.14
3070.5
3196.83
3314.91
3428.7
3545.56
3671.14
3804.13
3938.18
4066.09
4183.84
4288.43
4377.26
4449.84
4509.09
4560.35
4609.7
4662.75
4723.15
4792.48
4869.24
4948.98
5027.15
5101.59
5174.85
5248.78
5327.97
5414.45
5507.67
5607.36
5711.41
5817.37
5921.51
6018.33
6101.48
6166.65
6213.62
6245.56
6266.8
6283.5
6302.02
6327.78
6364.46
6415.38
6483.38
6569.64
6671.92
6784.63
6900.51
7011.76
7112.34
7203.07
7288.27
7367.84
7430.36
7455.93
-1380.28
-1092.92
-875.735
-757.133
-720.583
-717.514
-741.739
-794.529
-877.986
-918.916
-862.051
-721.6
-465.645
82.6094
906.837
1524.32
1819.15
1878.34
1836.35
1727.97
1510.96
1129.66
554.412
-3.34351
-192.014
30.708
495.158
812.487
912.993
831.4
651.833
469.666
337.141
281.184
315.522
450.803
626.937
801.28
962.049
1112.06
1250.89
1380.62
1502.12
1619.09
1731.59
1832.44
1917.77
1989.43
2052.42
2105.94
2168.88
2260.7
2391.97
2552.52
2712.23
2851.37
2976.7
3108.2
3266.96
3450.78
3630.6
3781.15
3886.43
3951.06
3986.17
4003.18
4013.88
4025.14
4029.34
3988.67
3853.52
3581.93
3165.66
2667.18
2219.55
1916.69
1771.14
1714.42
1710.44
1727.07
1736.43
1737.14
1774.81
1862
1919.22
1940.43
1951.85
1961.95
1985.32
2029.74
2080.21
2122.93
2152.92
2167.23
2189.93
2243.56
2340.32
2481.74
2638.4
2792.46
2936.15
3070.51
3196.84
3314.91
3428.7
3545.54
3671.13
3804.13
3938.19
4066.1
4183.85
4288.45
4377.28
4449.86
4509.1
4560.35
4609.69
4662.74
4723.14
4792.48
4869.24
4948.99
5027.16
5101.59
5174.85
5248.77
5327.96
5414.44
5507.66
5607.35
5711.41
5817.37
5921.51
6018.34
6101.5
6166.67
6213.63
6245.57
6266.81
6283.5
6302.01
6327.77
6364.44
6415.36
6483.36
6569.63
6671.9
6784.62
6900.51
7011.77
7112.36
7203.08
7288.28
7367.85
7430.4
7455.96
-1380.29
-1093.21
-876.054
-757.388
-720.711
-717.612
-741.802
-794.565
-878.029
-919.033
-862.099
-721.742
-465.927
82.3274
906.886
1524.62
1819.41
1878.49
1836.44
1728.08
1511.13
1129.8
554.388
-3.6718
-192.446
30.409
495.216
812.71
913.185
831.526
651.846
469.613
337.058
281.077
315.41
450.728
626.91
801.284
962.057
1112.07
1250.9
1380.63
1502.13
1619.1
1731.6
1832.45
1917.79
1989.44
2052.43
2105.94
2168.85
2260.66
2391.93
2552.51
2712.24
2851.39
2976.7
3108.17
3266.92
3450.78
3630.63
3781.2
3886.48
3951.1
3986.19
4003.19
4013.88
4025.15
4029.39
3988.78
3853.67
3582.07
3165.72
2667.12
2219.38
1916.51
1771.03
1714.36
1710.42
1727.07
1736.43
1737.12
1774.78
1862.01
1919.26
1940.45
1951.85
1961.94
1985.3
2029.73
2080.21
2122.94
2152.93
2167.23
2189.9
2243.51
2340.27
2481.72
2638.39
2792.47
2936.16
3070.51
3196.84
3314.91
3428.69
3545.53
3671.12
3804.12
3938.2
4066.11
4183.87
4288.47
4377.3
4449.87
4509.11
4560.35
4609.69
4662.73
4723.13
4792.47
4869.24
4948.99
5027.16
5101.59
5174.85
5248.77
5327.95
5414.44
5507.65
5607.35
5711.41
5817.37
5921.52
6018.35
6101.52
6166.69
6213.65
6245.58
6266.81
6283.5
6302
6327.75
6364.42
6415.34
6483.34
6569.61
6671.89
6784.62
6900.52
7011.79
7112.37
7203.08
7288.28
7367.87
7430.44
7456
-1379.76
-1093
-875.932
-757.337
-720.772
-717.679
-741.852
-794.61
-878.089
-919.165
-862.284
-721.897
-466.233
82.0204
906.939
1524.95
1819.69
1878.66
1836.54
1728.21
1511.32
1129.95
554.362
-4.03005
-192.918
30.0821
495.279
812.952
913.394
831.646
651.86
469.555
336.968
280.96
315.288
450.647
626.881
801.288
962.064
1112.08
1250.91
1380.64
1502.14
1619.1
1731.61
1832.47
1917.8
1989.45
2052.43
2105.93
2168.81
2260.61
2391.89
2552.5
2712.26
2851.41
2976.69
3108.14
3266.89
3450.77
3630.67
3781.26
3886.53
3951.14
3986.21
4003.2
4013.89
4025.16
4029.44
3988.89
3853.83
3582.22
3165.78
2667.05
2219.2
1916.31
1770.9
1714.29
1710.39
1727.07
1736.43
1737.08
1774.74
1862.02
1919.3
1940.46
1951.85
1961.93
1985.28
2029.72
2080.21
2122.95
2152.95
2167.22
2189.86
2243.45
2340.22
2481.68
2638.39
2792.48
2936.16
3070.52
3196.85
3314.91
3428.69
3545.52
3671.11
3804.12
3938.2
4066.12
4183.88
4288.48
4377.32
4449.89
4509.12
4560.36
4609.68
4662.72
4723.12
4792.46
4869.23
4948.99
5027.17
5101.59
5174.85
5248.76
5327.94
5414.43
5507.64
5607.34
5711.4
5817.37
5921.53
6018.37
6101.55
6166.71
6213.67
6245.6
6266.82
6283.49
6301.99
6327.74
6364.4
6415.31
6483.31
6569.59
6671.88
6784.62
6900.53
7011.8
7112.38
7203.09
7288.29
7367.89
7430.48
7456.04
-1379.73
-1093.24
-876.213
-757.584
-720.909
-717.796
-741.935
-794.667
-878.159
-919.312
-862.286
-722.066
-466.566
81.6864
906.994
1525.3
1819.99
1878.84
1836.66
1728.35
1511.52
1130.11
554.333
-4.41819
-193.429
29.7269
495.347
813.215
913.622
831.8
651.876
469.493
336.87
280.833
315.152
450.556
626.849
801.293
962.073
1112.09
1250.93
1380.66
1502.15
1619.11
1731.63
1832.49
1917.82
1989.46
2052.44
2105.92
2168.77
2260.56
2391.85
2552.49
2712.28
2851.43
2976.69
3108.11
3266.85
3450.77
3630.7
3781.32
3886.59
3951.18
3986.24
4003.21
4013.89
4025.18
4029.5
3989.02
3854
3582.38
3165.86
2666.97
2219
1916.1
1770.77
1714.22
1710.36
1727.07
1736.43
1737.05
1774.69
1862.04
1919.34
1940.48
1951.85
1961.91
1985.25
2029.7
2080.22
2122.96
2152.96
2167.21
2189.82
2243.4
2340.16
2481.65
2638.38
2792.49
2936.17
3070.53
3196.86
3314.92
3428.68
3545.5
3671.09
3804.11
3938.21
4066.13
4183.9
4288.51
4377.34
4449.91
4509.13
4560.36
4609.68
4662.7
4723.1
4792.45
4869.23
4948.99
5027.17
5101.6
5174.85
5248.75
5327.93
5414.42
5507.63
5607.33
5711.4
5817.37
5921.53
6018.39
6101.57
6166.73
6213.69
6245.61
6266.83
6283.49
6301.98
6327.72
6364.38
6415.29
6483.29
6569.56
6671.86
6784.61
6900.53
7011.82
7112.4
7203.1
7288.29
7367.92
7430.53
7456.09
-1378.94
-1092.92
-876.034
-757.519
-720.993
-717.901
-742.017
-794.755
-878.285
-919.563
-862.748
-722.34
-467.101
81.1488
907.084
1525.87
1820.48
1879.12
1836.84
1728.57
1511.85
1130.37
554.289
-5.04504
-194.257
29.1523
495.458
813.639
913.986
832.005
651.902
469.391
336.712
280.628
314.934
450.406
626.797
801.301
962.087
1112.11
1250.95
1380.68
1502.16
1619.12
1731.65
1832.52
1917.85
1989.48
2052.45
2105.9
2168.71
2260.48
2391.78
2552.48
2712.31
2851.46
2976.67
3108.05
3266.79
3450.76
3630.76
3781.41
3886.68
3951.25
3986.28
4003.23
4013.9
4025.2
4029.6
3989.22
3854.29
3582.65
3165.97
2666.85
2218.67
1915.75
1770.54
1714.1
1710.3
1727.06
1736.42
1736.99
1774.62
1862.06
1919.41
1940.51
1951.85
1961.89
1985.22
2029.68
2080.22
2122.98
2152.98
2167.2
2189.76
2243.3
2340.06
2481.6
2638.38
2792.5
2936.19
3070.54
3196.87
3314.92
3428.67
3545.48
3671.07
3804.11
3938.22
4066.15
4183.93
4288.54
4377.38
4449.94
4509.15
4560.36
4609.67
4662.68
4723.08
4792.43
4869.22
4948.99
5027.18
5101.6
5174.85
5248.74
5327.91
5414.4
5507.61
5607.32
5711.4
5817.37
5921.55
6018.42
6101.61
6166.77
6213.72
6245.63
6266.84
6283.49
6301.96
6327.7
6364.35
6415.25
6483.24
6569.53
6671.84
6784.6
6900.54
7011.84
7112.42
7203.11
7288.3
7367.95
7430.61
7456.16
-1378.71
-1093.26
-876.525
-757.986
-721.319
-718.19
-742.245
-794.939
-878.498
-919.96
-862.863
-722.756
-467.916
80.3461
907.247
1526.74
1821.23
1879.56
1837.11
1728.91
1512.34
1130.76
554.221
-6.00071
-195.514
28.2896
495.635
814.291
914.548
832.384
651.941
469.238
336.471
280.319
314.613
450.19
626.719
801.313
962.108
1112.13
1250.98
1380.7
1502.18
1619.13
1731.69
1832.57
1917.9
1989.51
2052.47
2105.88
2168.62
2260.36
2391.67
2552.46
2712.36
2851.51
2976.66
3107.97
3266.7
3450.75
3630.85
3781.56
3886.82
3951.35
3986.34
4003.26
4013.91
4025.23
4029.75
3989.53
3854.72
3583.05
3166.15
2666.66
2218.18
1915.23
1770.21
1713.92
1710.24
1727.07
1736.42
1736.92
1774.52
1862.09
1919.52
1940.56
1951.85
1961.85
1985.15
2029.64
2080.23
2123.02
2153.01
2167.18
2189.67
2243.16
2339.91
2481.52
2638.36
2792.52
2936.21
3070.55
3196.88
3314.93
3428.65
3545.44
3671.04
3804.1
3938.23
4066.18
4183.97
4288.59
4377.43
4449.98
4509.18
4560.37
4609.65
4662.66
4723.05
4792.4
4869.21
4949
5027.19
5101.61
5174.85
5248.72
5327.88
5414.37
5507.59
5607.3
5711.39
5817.37
5921.57
6018.46
6101.67
6166.83
6213.77
6245.67
6266.85
6283.48
6301.93
6327.66
6364.29
6415.18
6483.18
6569.47
6671.8
6784.6
6900.56
7011.88
7112.46
7203.12
7288.31
7368.01
7430.74
7456.27
-1377.63
-1092.76
-876.251
-757.914
-721.393
-718.343
-742.373
-795.095
-878.745
-920.427
-863.394
-723.261
-468.843
79.4323
907.433
1527.73
1822.08
1880.05
1837.42
1729.28
1512.9
1131.21
554.145
-7.07574
-196.926
27.318
495.834
815.021
915.173
832.739
651.982
469.066
336.2
279.967
314.246
449.951
626.632
801.325
962.132
1112.16
1251.01
1380.74
1502.2
1619.16
1731.72
1832.63
1917.95
1989.54
2052.48
2105.85
2168.51
2260.22
2391.54
2552.43
2712.42
2851.56
2976.64
3107.87
3266.6
3450.73
3630.94
3781.72
3886.98
3951.47
3986.41
4003.29
4013.92
4025.27
4029.91
3989.88
3855.21
3583.5
3166.34
2666.45
2217.63
1914.64
1769.83
1713.71
1710.14
1727.06
1736.4
1736.8
1774.39
1862.13
1919.64
1940.61
1951.85
1961.81
1985.09
2029.6
2080.25
2123.06
2153.05
2167.16
2189.56
2243
2339.74
2481.42
2638.35
2792.55
2936.23
3070.57
3196.9
3314.94
3428.63
3545.4
3671
3804.09
3938.25
4066.22
4184.02
4288.65
4377.49
4450.03
4509.21
4560.37
4609.63
4662.62
4723.01
4792.37
4869.2
4949
5027.21
5101.62
5174.84
5248.69
5327.85
5414.34
5507.56
5607.28
5711.38
5817.38
5921.59
6018.51
6101.73
6166.9
6213.82
6245.7
6266.87
6283.47
6301.9
6327.61
6364.23
6415.11
6483.1
6569.41
6671.76
6784.58
6900.58
7011.92
7112.49
7203.14
7288.32
7368.07
7430.87
7456.38
-1377.17
-1092.96
-876.699
-758.37
-721.791
-718.696
-742.678
-795.382
-879.061
-920.961
-863.747
-723.79
-469.871
78.4038
907.621
1528.83
1823.02
1880.6
1837.79
1729.7
1513.53
1131.7
554.062
-8.27059
-198.501
26.232
496.052
815.836
915.876
833.21
652.034
468.874
335.9
279.577
313.835
449.678
626.535
801.34
962.158
1112.2
1251.05
1380.77
1502.22
1619.17
1731.77
1832.69
1918.02
1989.58
2052.5
2105.82
2168.4
2260.06
2391.41
2552.41
2712.48
2851.62
2976.62
3107.77
3266.49
3450.72
3631.05
3781.9
3887.15
3951.59
3986.49
4003.32
4013.94
4025.31
4030.1
3990.26
3855.75
3584
3166.56
2666.21
2217.01
1913.99
1769.41
1713.48
1710.06
1727.07
1736.4
1736.72
1774.26
1862.17
1919.78
1940.67
1951.85
1961.77
1985.01
2029.56
2080.26
2123.1
2153.09
2167.14
2189.44
2242.83
2339.56
2481.32
2638.34
2792.58
2936.25
3070.59
3196.92
3314.94
3428.61
3545.35
3670.96
3804.07
3938.27
4066.26
4184.07
4288.71
4377.56
4450.09
4509.24
4560.38
4609.61
4662.58
4722.97
4792.34
4869.18
4949
5027.22
5101.63
5174.84
5248.67
5327.82
5414.31
5507.53
5607.26
5711.37
5817.38
5921.61
6018.56
6101.81
6166.97
6213.88
6245.75
6266.89
6283.47
6301.87
6327.56
6364.17
6415.03
6483.02
6569.34
6671.71
6784.58
6900.61
7011.97
7112.54
7203.16
7288.33
7368.14
7431.03
7456.52
-1376.01
-1092.3
-876.31
-758.259
-721.797
-718.852
-742.816
-795.558
-879.377
-921.545
-864.285
-724.451
-471.033
77.2746
907.828
1530.04
1824.05
1881.2
1838.1
1730.16
1514.21
1132.25
553.973
-9.58477
-200.235
25.0373
496.292
816.73
916.641
833.643
652.076
468.657
335.566
279.147
313.386
449.377
626.43
801.361
962.187
1112.24
1251.09
1380.82
1502.26
1619.2
1731.81
1832.75
1918.08
1989.61
2052.52
2105.79
2168.27
2259.9
2391.26
2552.38
2712.55
2851.69
2976.6
3107.65
3266.36
3450.7
3631.17
3782.1
3887.35
3951.74
3986.58
4003.36
4013.95
4025.36
4030.3
3990.69
3856.34
3584.54
3166.8
2665.95
2216.33
1913.26
1768.94
1713.23
1709.93
1727.06
1736.38
1736.57
1774.11
1862.21
1919.92
1940.72
1951.85
1961.72
1984.93
2029.51
2080.28
2123.14
2153.14
2167.11
2189.31
2242.63
2339.35
2481.21
2638.32
2792.61
2936.28
3070.6
3196.94
3314.95
3428.59
3545.3
3670.91
3804.06
3938.29
4066.3
4184.13
4288.78
4377.63
4450.15
4509.27
4560.38
4609.59
4662.54
4722.92
4792.3
4869.17
4949.01
5027.24
5101.64
5174.84
5248.63
5327.78
5414.27
5507.5
5607.24
5711.35
5817.38
5921.63
6018.62
6101.89
6167.05