/*--------------------------------*- C++ -*----------------------------------*\
| =========                 |                                                 |
| \\      /  F ield         | OpenFOAM: The Open Source CFD Toolbox           |
|  \\    /   O peration     | Version:  v1912                                 |
|   \\  /    A nd           | Website:  www.openfoam.com                      |
|    \\/     M anipulation  |                                                 |
\*---------------------------------------------------------------------------*/
FoamFile
{
    version     2.0;
    format      ascii;
    class       volScalarField;
    location    "40";
    object      p_rgh;
}
// * * * * * * * * * * * * * * * * * * * * * * * * * * * * * * * * * * * * * //

dimensions      [1 -1 -2 0 0 0 0];


internalField   nonuniform List<scalar> 
14268
(
-10385.9
-10086
-9736
-9370.03
-9025.31
-8703.18
-8390.15
-8080.63
-7774.41
-7475.33
-7193.57
-6941.05
-6747.3
-6627.84
-6599.35
-6675.94
-6867.71
-7178.86
-7605.81
-8135.41
-8743.15
-9393.58
-10085.2
-10829.2
-11625.8
-12466.3
-13335.4
-14215.9
-15089.4
-15938.5
-16747.8
-17504.7
-18201.1
-18817.7
-19331.4
-19739.2
-20037.4
-20218.6
-20277.4
-20211.7
-20021.9
-19712
-19288.8
-18761.2
-18140.5
-17438.8
-16667
-15834.5
-14948.5
-14013.7
-13032.9
-12007.3
-10937.3
-9823.32
-8666.76
-7473.65
-6247.22
-4980.73
-3696.42
-2399.54
-1095.98
208.128
1508.31
2801.97
4088.33
5367.99
6642.32
7912.91
9180.91
10446.8
11710
12969.2
14222.8
15468.8
16705.4
17931.5
19146.4
20349.8
21541.8
22721.8
23888.7
25039.8
26171.1
27276.9
28350.7
29385.3
30371.7
31300.2
32161.5
32947
33649.1
34261.1
34778
35195.7
35519
35766.5
35906.1
35921.5
35823.4
35617.4
35308.7
34903.4
34408.9
33834.2
33190.4
32490.5
31747.5
30960.4
30127.4
29249.3
28328.7
27369.8
26377
25355.4
24309.9
23246.3
22170.7
21089.7
20010.2
18938.7
17881.2
16842.2
15824.5
14828.5
13852.4
12891.5
11939.2
10987.1
10025.1
9043.04
8030.26
6976.73
5873.18
4711.19
3481.45
2174.26
941.17
-497.314
-1993.81
-3553.27
-5174.34
-6853.28
-8584.21
-10359.5
-12169.7
-14004
-15850.3
-17695.7
-19526.5
-21329
-23090
-24796.8
-26438.4
-28005.8
-29490.8
-30886.8
-32190.4
-33399.5
-34512.9
-35531.3
-36452.7
-37268.4
-37991.2
-38650.3
-9931.35
-9651.76
-9336.34
-9001.32
-8669.39
-8361.53
-8083.99
-7826.6
-7587.01
-7368.17
-7179.56
-7019.99
-6936.84
-6934.89
-7023.78
-7211.96
-7504.17
-7899.37
-8389.21
-8957.56
-9581.4
-10248.7
-10956.1
-11700
-12475.5
-13273.8
-14082.1
-14886.1
-15670.7
-16421.6
-17126
-17773.3
-18356.2
-18857.2
-19258.7
-19552.5
-19736.2
-19804.4
-19754.2
-19585.6
-19301.6
-18908.2
-18413.9
-17828.5
-17163
-16428.6
-15634
-14786
-13889
-12945.3
-11955.9
-10921.1
-9841.3
-8718.08
-7554.43
-6358.31
-5132.16
-3876.17
-2607.89
-1333.3
-57.0941
1216.5
2485.16
3748.34
5006.8
6262.03
7515.52
8768.24
10020.3
11270.8
12518.1
13760.1
14994.8
16220.3
17435.7
18640.5
19834.9
21019.4
22193.9
23357.5
24508.1
25641.7
26752.7
27833.8
28877.3
29875.5
30819.1
31699
32506.9
33235.7
33879.3
34432.6
34892
35255.1
35527.3
35728.1
35822.3
35797.3
35663.2
35425.8
35090.3
34663.3
34152.1
33565.6
32914
32209.4
31463.5
30676.1
29845.2
28970.9
28055.7
27103
26117.2
25103
24065.6
23010.6
21944.4
20873.5
19805
18745.2
17699.8
16672.9
15666.9
14681.8
13715.1
12762.2
11816
10868.2
9908.88
8927.98
7915.27
6861.07
5756.44
4593.39
3362.59
2049.39
823.867
-619.563
-2115.23
-3673.24
-5292.5
-6969.21
-8697.49
-10469.7
-12276.4
-14106.9
-15949.1
-17790
-19616.2
-21414
-23170
-24871.8
-26508.4
-28070.8
-29550.9
-30942
-32240.9
-33445.6
-34555.1
-35569.9
-36488.2
-37301.4
-38022.2
-38680.2
-9825.39
-9550.38
-9244.26
-8918.55
-8592.05
-8284.64
-8010.34
-7763.44
-7541.48
-7345.41
-7173.94
-7057.3
-7017.45
-7059.34
-7190.35
-7416.69
-7741.22
-8161.48
-8668.41
-9246.53
-9877.86
-10554.7
-11270.9
-12020
-12794.7
-13585.1
-14378.1
-15159.4
-15914.4
-16629.6
-17293.5
-17896.7
-18433.1
-18886
-19241.5
-19486.5
-19620.5
-19639.3
-19540.6
-19325.4
-18997.6
-18564.1
-18034.2
-17418.5
-16728.2
-15974.4
-15165.2
-14306.5
-13401.8
-12452.2
-11457.8
-10418.4
-9334.08
-8206.73
-7039.78
-5841.8
-4614.93
-3362.04
-2099.06
-832.43
433.45
1694.96
2950.59
4200.63
5446.59
6690.44
7933.88
9177.77
10421.8
11664.8
12904.4
14138.4
15364.4
16580.6
17786.2
18981
20165.8
21341
22507
23662.6
24805.4
25930.8
27032.7
28103.2
29134
30117
31042.9
31902.6
32688.3
33393.3
34011.9
34540
34974.3
35313
35560.8
35744.3
35818.8
35775.7
35625
35372.6
35024.2
34586
34065.8
33472.4
32816
32108.4
31359.3
30567.7
29733.1
28856.4
27939.8
26986.9
26001.7
24988.7
23953
22900.2
21836.7
20769.1
19704.3
18648.8
17608.1
16586.4
15585.8
14606.1
13644.9
12697.1
11755.8
10812.2
9856.56
8878.65
7868.3
6815.88
5712.66
4550.9
3321.32
1998.33
786.86
-666.44
-2161.26
-3719.07
-5338.62
-7015.95
-8745.07
-10518.3
-12326.2
-14157.9
-16001.4
-17843.6
-19670.9
-21469.5
-23226.1
-24928.1
-26564.5
-28126.3
-29605.4
-30994.9
-32291.9
-33494.7
-34602.4
-35615.5
-36532.5
-37344.8
-38065.4
-38724
-9792.59
-9519.28
-9216.29
-8893.77
-8569.63
-8260.31
-7982.73
-7736.93
-7517.33
-7322.6
-7167.4
-7073.02
-7055.91
-7119.97
-7271.31
-7515.1
-7853.82
-8285.19
-8800.75
-9385.94
-10025.1
-10710.5
-11435.4
-12192.5
-12973.3
-13766.6
-14558.2
-15332.9
-16075.5
-16772.7
-17413.8
-17990.9
-18498.9
-18925.7
-19249.2
-19461.4
-19561.6
-19545.9
-19412.3
-19162.3
-18800.4
-18334.4
-17774.4
-17131.5
-16417.9
-15644.7
-14820.1
-13949.5
-13035.5
-12078.5
-11077.8
-10032.4
-8942.3
-7809.19
-6636.76
-5434.04
-4203.84
-2948.96
-1686.12
-421.891
839.395
2094.5
3342.48
4584.33
5822.24
7058.71
8295.73
9534.14
10773.5
12012
13247.3
14476.4
15696.9
16907
18105.9
19293.8
20471.7
21640.4
22800.3
23950.4
25088
26208.1
27304
28367.1
29388.5
30359.8
31271.6
32114.5
32881.1
33564.8
34160.7
34665.1
35075.3
35390.2
35614.8
35777.1
35835.1
35773.1
35604.5
35335.5
34971.8
34520.1
33988.4
33385.7
32722.8
32010.9
31255
30455.2
29613
28730
27808.9
26852.9
25865.9
24852.1
23816.4
22764.4
21702.2
20636.7
19574.8
18523.2
17487.2
16471
15476.5
14503.5
13548.9
12607.7
11672.5
10734.3
9783.34
8809.16
7801.62
6751.19
5649.34
4488.87
3262.39
1961.97
690.923
-739.745
-2232.13
-3790.27
-5410.94
-7089.77
-8820.66
-10595.8
-12405.8
-14239.8
-16085.3
-17929.4
-19758.4
-21558.3
-23315.6
-25017.7
-26653.6
-28214.3
-29691.4
-31077.9
-32371.6
-33571.1
-34675.7
-35686
-36600.7
-37411.7
-38131.9
-38791.1
-9772.47
-9500.2
-9197.83
-8875.26
-8550.58
-8239.83
-7959.23
-7710.94
-7490.76
-7301.13
-7156.26
-7072.58
-7067.21
-7142.11
-7302.45
-7553.06
-7896.89
-8332.85
-8853.91
-9446.13
-10093.2
-10787.1
-11521.2
-12288.2
-13078.9
-13880.9
-14678.6
-15455.5
-16194.9
-16883.8
-17512.5
-18073.9
-18564.6
-18977.4
-19279.5
-19470
-19547.4
-19507.7
-19349
-19072.8
-18684.2
-18191.7
-17606.2
-16939.7
-16205.1
-15414.2
-14575.4
-13693.8
-12771.4
-11808
-10801.9
-9751.49
-8656.37
-7517.98
-6340.08
-5132.05
-3897.41
-2638.24
-1372.88
-108.085
1151.76
2403.61
3646.95
4883.34
6115.62
7346.82
8579.28
9813.94
11050.2
12286
13518.6
14744.8
15961.8
17167.8
18362
19544.8
20717.5
21881.4
23037
24183.6
25318.1
26435.4
27528.2
28587.5
29603.8
30568.3
31471.3
32303.5
33057
33725.9
34305.4
34792.2
35184.1
35480.3
35686
35827.3
35875.9
35800.1
35617.2
35334.2
34957.1
34493.2
33950.8
33339.5
32670.5
31952.8
31188
30378.1
29526.3
28635.1
27707.4
26746.4
25755.8
24739.4
23701.9
22648.8
21586.2
20521
19460.3
18410.7
17377.9
16365.9
15376.7
14409.7
13461.9
12527.7
11599.5
10668.1
9723.21
8754.37
7751.24
6704.28
5605.11
4447
3224.14
1933.79
628.034
-792.723
-2283.3
-3842.47
-5465.32
-7147.07
-8881.44
-10660.6
-12475
-14313.6
-16163.9
-18012.7
-19846
-21649.8
-23410.4
-25114.8
-26752
-28313.3
-29789.8
-31174.4
-32465.4
-33662.4
-34764.4
-35772.2
-36684.8
-37494.7
-38215
-38875.7
-9752.75
-9482.39
-9181.94
-8860.93
-8536.73
-8224.84
-7940.17
-7689.2
-7468.92
-7282.26
-7141.56
-7060.62
-7060.13
-7139.02
-7301.68
-7552.94
-7896.61
-8333.55
-8858.98
-9459.15
-10115.2
-10818.6
-11563.7
-12342.9
-13146.4
-13961
-14769.7
-15554
-16296
-16982.4
-17604.5
-18156.7
-18638
-19042.3
-19330.4
-19506.3
-19568.1
-19511.2
-19333.4
-19036.3
-18625.5
-18110
-17501.4
-16812.9
-16058.4
-15250.7
-14398.3
-13506.3
-12576.3
-11607.3
-10596.8
-9542.28
-8442.77
-7299.4
-6115.86
-4901.91
-3661.76
-2396.24
-1126.25
141.364
1402.04
2652.8
3893.46
5126.12
6354.29
7581.58
8810.74
10042.9
11277.3
12511.8
13743.1
14967.9
16182.9
17386.3
18577.2
19756.4
20925.3
22085.7
23238.5
24383
25516.3
26633
27725.4
28783.9
29798.5
30759.9
31658.4
32483.9
33228.9
33887.2
34454.3
34927.3
35304.3
35584.9
35773.7
35897.9
35931.6
35848.4
35653.7
35358.1
34968.5
34492.6
33939.6
33319.8
32644.3
31917.8
31141.5
30319.4
29455.9
28554.5
27618.2
26650.3
25654.2
24633.5
23592.6
22536.8
21472.1
20405.5
19344.4
18295.6
17264.9
16256.4
15272
14311.1
13370.3
12443.8
11523.6
10600.1
9662.56
8700.2
7702.5
6659.83
5563.89
4408.35
3188.24
1901.13
574.614
-842.919
-2333.34
-3894.6
-5520.74
-7206.7
-8946.05
-10730.8
-12551.5
-14396.7
-16253.7
-18109.2
-19948.8
-21758.4
-23523.8
-25231.9
-26871.7
-28434.5
-29910.9
-31293.4
-32580.9
-33774.5
-34873.3
-35878.1
-36788.3
-37597.5
-38318.5
-38981
-9743.68
-9476.08
-9178.26
-8859.05
-8535.16
-8221.74
-7933.31
-7678.57
-7455.95
-7268.16
-7126
-7041.02
-7040.42
-7118.29
-7278.55
-7526.24
-7866.13
-8301.91
-8831.88
-9441.48
-10108.6
-10823.8
-11582.1
-12375.7
-13194.5
-14024.3
-14847.2
-15642.9
-16391.1
-17078.7
-17698.1
-18245.4
-18723.7
-19121.4
-19400.4
-19566.9
-19618.2
-19549
-19356.5
-19042
-18611.7
-18075.2
-17444.9
-16734.9
-15960.9
-15136.5
-14271
-13369.1
-12432.2
-11458.6
-10444.7
-9387.05
-8283.91
-7135.95
-5946.68
-4726.19
-3479.92
-2206.15
-929.768
342.435
1605.63
2856.82
4096.07
5326.04
6550.93
7775.04
9001.59
10231.9
11465.3
12699.4
13930.5
15154.9
16369.2
17571
18759.8
19936.2
21102.2
22260.1
23411.1
24554.8
25688.4
26806.3
27900.5
28960.9
29976.9
30938.7
31836.1
32658.9
33399
34050.4
34608.6
35071
35436.2
35703.7
35877.5
35986.5
36004.1
35912.3
35709.9
35403.6
35002.5
34515.4
33952.1
33324.2
32640.5
31902.4
31112.7
30276.9
29400.4
28487.4
27541.3
26565.2
25562.3
24536.1
23490.5
22430.6
21362.4
20293.1
19230.2
18180.9
17151.3
16145.6
15165.7
14211
13277.8
12360
11449
10534.7
9605.98
8651.52
7660.52
6623.21
5531.27
4378.61
3160.52
1873.51
533.842
-883.509
-2375.39
-3939.84
-5570.41
-7261.88
-9007.7
-10799.9
-12628.7
-14482.5
-16348.5
-18212.8
-20061
-21878.4
-23650.5
-25363.9
-27007.3
-28572.3
-30049.1
-31429.5
-32713.7
-33904.5
-35000.5
-36002.4
-36910
-37718.3
-38439.8
-39104.4
-9750.86
-9486.8
-9191.76
-8873.92
-8549.6
-8233.87
-7941.59
-7682.24
-7454.65
-7261.42
-7111.64
-7017.81
-7012.02
-7084.39
-7238.23
-7479.04
-7812.45
-8246.5
-8782.48
-9403.48
-10084.3
-10814.4
-11588.5
-12398.8
-13234.4
-14081.1
-14920.6
-15730.4
-16487.5
-17178.8
-17798.2
-18344.1
-18822.6
-19214.7
-19488.7
-19649.7
-19694.5
-19616.8
-19412.8
-19083.2
-18635.1
-18078.9
-17427
-16695.4
-15901.6
-15060.5
-14181.8
-13270.4
-12327.2
-11350
-10333.8
-9274
-8168.07
-7015.97
-5820.96
-4593.56
-3340.15
-2056.46
-772.129
506.235
1773.37
3026.19
4264.94
5492.83
6714.87
7936.1
9160.35
10389.3
11622.2
12856.4
14088.2
15313.2
16527.6
17728.9
18916.3
20090.7
21254.5
22410.5
23560.4
24704.3
25839.5
26960.2
28058.3
29123.1
30143.2
31108.4
32008.2
32831.6
33570.2
34217.8
34770.1
35224.6
35580.4
35837
35997.3
36092.2
36095.3
35990.1
35780.3
35466.3
35055.2
34557.5
33984.4
33348
32653.8
31902.4
31097.9
30247
29356.3
28430.6
27473.6
26488.3
25477.6
24444.8
23393.4
22328.1
21255.2
20181.8
19115.8
18064.9
17035.4
16031.9
15056.2
14107.8
13182.8
12274.5
11373.9
10470.3
9551.77
8606.57
7623.5
6592.51
5505.2
4355.59
3138.85
1850.33
501.645
-916.931
-2411.79
-3980.58
-5616.73
-7315.03
-9068.84
-10870.1
-12709
-14573.7
-16450.8
-18326.1
-20185.1
-22012.4
-23793.1
-25513.4
-27162
-28731.1
-30209.9
-31588.6
-32868.3
-34055.1
-35147.1
-36145
-37049.1
-37856.8
-38580.2
-39247.4
-9777.57
-9517.82
-9225.52
-8908.44
-8582.73
-8263.82
-7967.4
-7702.41
-7467.17
-7264.26
-7101.22
-6992.93
-6977.59
-7039.92
-7183.45
-7414.5
-7739.33
-8173.08
-8717.86
-9352.84
-10050.6
-10798.7
-11591.4
-12420.2
-13273.9
-14138.1
-14995.5
-15821.8
-16589.8
-17286.5
-17907.6
-18455.4
-18934
-19322.1
-19594.5
-19753.3
-19794.8
-19711.8
-19498.6
-19155.5
-18690.7
-18115.4
-17441.8
-16687.6
-15873.3
-15014.7
-14122.7
-13201.9
-12252.9
-11273.1
-10255.8
-9194.96
-8087.23
-6931.54
-5730.82
-4496.07
-3234.67
-1939.27
-645.473
640.569
1912.97
3168.47
4407.37
5633.53
6852.83
8071.18
9293.13
10520.7
11753.4
12988.4
14221.4
15447.8
16663.2
17864.8
19051.5
20224.5
21386.6
22541.1
23690.5
24835.4
25973.1
27098.2
28201.9
29273.4
30300.2
31271.7
32176.9
33004.1
33744.4
34391.1
34940
35389
35737.4
35985.2
36133.1
36214.6
36204.4
36085.5
35863.7
35541.1
35121.8
34614.5
34031.6
33386
32680.3
31914.8
31094.3
30227.2
29321.3
28382.1
27413.4
26418.1
25398.8
24358.5
23300.3
22228.7
21149.7
20070.9
19000.6
17946.9
16916.7
15914.7
14943.1
14001.3
13085.1
12187.4
11298.5
10407.1
9500.39
8565.93
7592.06
6568.41
5486.36
4339.97
3124.06
1833.19
477.713
-942.692
-2441.91
-4016.2
-5659.09
-7365.53
-9128.82
-10940.9
-12791.9
-14669.5
-16559.9
-18448.6
-20320.6
-22160.1
-23951.2
-25679.9
-27334.4
-28907.8
-30387.4
-31762.8
-33036.9
-34221
-35310.7
-36306.1
-37207.4
-38015.1
-38740.1
-39408.8
-9826.11
-9571.56
-9282.02
-8965.11
-8637.17
-8314.28
-8013.4
-7741.09
-7495.23
-7278.55
-7097.94
-6966.94
-6938.96
-6986.31
-7115.49
-7334.17
-7648.93
-8086.1
-8642.73
-9293.68
-10010.7
-10779
-11593
-12443.4
-13317.8
-14200.1
-15075.3
-15920.5
-16701
-17404.2
-18028.6
-18579.9
-19058.1
-19443.5
-19717.4
-19876.6
-19917.7
-19832.2
-19611.9
-19256.2
-18775.2
-18181.3
-17485
-16706.8
-15870.7
-14993.6
-14088
-13157.7
-12203.2
-11221.8
-10204.7
-9144.05
-8035.67
-6877.07
-5670.73
-4428.35
-3157.75
-1848.87
-544.109
751.182
2030.16
3289.35
4528.95
5753.5
6969.93
8185.09
9404.48
10630.6
11863
13099
14333.9
15562.4
16779.6
17982.3
19169.1
20341.2
21501.9
22655.2
23804.5
24950.8
26092
27222.6
28333.6
29413.7
30449.7
31430.4
32344
33178.1
33923
34571.6
35119.6
35565
35907.8
36148.8
36285.2
36354.2
36331.5
36199.1
35963.8
35628.8
35198.6
34680.9
34088
33433.2
32716.6
31936.7
31099.5
30215.3
29293.5
28340.1
27359
26353
25324.5
24276.1
23210.4
22131.5
21045.4
19959.9
18884
17826.4
16794.6
15793.5
14825.7
13890.8
12984.3
12098.3
11222.6
10345
9451.7
8529.51
7566.16
6550.88
5474.72
4331.71
3116.16
1822.56
461.364
-961.064
-2465.94
-4046.87
-5697.63
-7413.51
-9187.77
-11012.5
-12877.5
-14770.3
-16676.2
-18580.5
-20467.8
-22321.5
-24124.9
-25864.1
-27526.4
-29106.3
-30590.5
-31967.1
-33235.7
-34415
-35498.7
-36488.2
-37382.3
-38187.8
-38914.6
-39586.2
-9898.53
-9650.29
-9363.66
-9046.58
-8715.82
-8388.34
-8082.08
-7800.1
-7540.35
-7306.01
-7104.1
-6942.83
-6898.05
-6924.3
-7034.81
-7238.58
-7542.93
-7986.3
-8553.98
-9222.08
-9960.53
-10751.2
-11589.3
-12464.9
-13364.4
-14269.1
-15162.6
-16028.9
-16823.2
-17533.7
-18162.8
-18717.1
-19194.9
-19579
-19856.9
-20018.9
-20062.2
-19976.7
-19751
-19383.2
-18886.2
-18274.4
-17553.9
-16749.4
-15890.1
-14993.1
-14073.3
-13133.1
-12173.2
-11191.6
-10176
-9116.88
-8009.29
-6848.55
-5636.77
-4386.41
-3105.42
-1781.08
-463.805
842.461
2129.37
3393.33
4634.06
5856.98
7070.2
8281.58
9497.91
10722.2
11954.2
13191.3
14428.5
15659.9
16879.8
18084.4
19271.9
20443.5
21603.1
22755.4
23904.7
25052.8
26198
27335.1
28455
29545.6
30593.2
31585.8
32510.8
33354.8
34107.2
34760.3
35309.6
35753.4
36092.2
36328
36453.7
36511.4
36476.7
36331.1
36081.9
35733
35289.5
34759.1
34154.2
33487.3
32759.1
31966.2
31111.9
30209.8
29271.3
28303
27309.1
26292
25253.8
24196.8
23123
22036
20941.6
19848.2
18765.4
17702.7
16668.4
15667.6
14703.6
13775.9
12879.7
12006.7
11145.8
10283.8
9405.77
8497.46
7546.04
6540.2
5470.54
4331.01
3115.48
1818.93
452.404
-972.069
-2483.9
-4072.58
-5732.32
-7458.93
-9245.61
-11084.7
-12965.9
-14876.1
-16799.9
-18722.3
-20627.4
-22498.2
-24316.2
-26067.3
-27736.7
-29323.9
-30811
-32179.5
-33431.1
-34607.3
-35690.9
-36680.3
-37571.4
-38380.9
-39114.8
-39786.9
-9996.97
-9756.42
-9473.08
-9155.7
-8821.75
-8489.1
-8175.9
-7881.47
-7604.04
-7348.11
-7123.07
-6928
-6857.42
-6854.02
-6941.21
-7127.56
-7423.24
-7870.01
-8447.81
-9134.13
-9896.62
-10711.8
-11577.1
-12481.9
-13411.3
-14343.2
-15258.6
-16148.9
-16958.3
-17676.4
-18310.7
-18867
-19344.5
-19728.4
-20013
-20179.5
-20227.5
-20144.6
-19915.3
-19535.3
-19021.9
-18393.2
-17646.5
-16812.6
-15928.6
-15009.7
-14075.2
-13124.5
-12158.9
-11178.7
-10166.2
-9110.01
-8005.06
-6843.06
-5626.13
-4367.44
-3074.76
-1732.7
-401.356
917.87
2214.18
3484.11
4726.35
5947.46
7156.9
8363.64
9576.15
10797.9
12029.1
13267.5
14507.3
15742.3
16965.7
18173.3
19362.2
20533.9
21692.5
22843.8
23993.1
25143
26292.6
27437
28566.9
29669.9
30731.5
31738.6
32678
33535.1
34298
34958.3
35511.2
35955
36291
36523.4
36639
36686.9
36640.6
36481.9
36218.5
35855
35396.9
34852.3
34234
33551.8
32807.6
32000.9
31130
30209.2
29253.3
28269.7
27262.6
26234
25185.8
24119.9
23037.6
21941.7
20838
19735.4
18644.4
17575.2
16537.6
15536.6
14576.1
13656
12771
11912.2
11067.9
10223.5
9362.63
8469.93
7531.93
6536.69
5474.11
4338.1
3122.4
1822.84
450.751
-975.613
-2495.77
-4093.25
-5763.01
-7501.63
-9302.12
-11157.4
-13056.8
-14986.9
-16930.9
-18873.2
-20798.8
-22688.6
-24521.4
-26286.8
-27968.4
-29565.9
-31053.9
-32429.2
-33683.1
-34863.3
-35937
-36915.7
-37791.2
-38594
-39322.6
-39992.8
-10123.9
-9892.8
-9613.3
-9295.56
-8958.19
-8619.94
-8297.78
-7987.34
-7687.38
-7405.18
-7159.88
-7030.91
-6820.65
-6774.61
-6833.96
-7000.47
-7288.14
-7734.54
-8321.09
-9026.34
-9815.64
-10657.6
-11553.8
-12492.1
-13457
-14421.1
-15362.4
-16282.1
-17107.5
-17833.1
-18472.4
-19029.6
-19506.8
-19891.2
-20185.5
-20358
-20413
-20335.3
-20104.2
-19711.5
-19181.1
-18537.4
-17761.4
-16894.3
-15984.2
-15040.4
-14091.2
-13128.8
-12157
-11180.3
-10172.6
-9120.7
-8020.83
-6858.5
-5636.92
-4369.44
-3063.71
-1701.26
-354.338
980.245
2287.47
3564.85
4808.87
6027.86
7232.81
8433.68
9641.39
10859.7
12089.4
13329
14571.8
15811.3
17039.3
18250.9
19442.1
20614.3
21772.1
22922.1
24071.1
25222.7
26376.7
27529.1
28670.1
29787.1
30864.9
31889.3
32846.1
33719.6
34496.2
35166.5
35725.1
36170.5
36504.8
36734.9
36842.2
36881.7
36823.7
36651.8
36374.1
35995.5
35522
34962.4
34329.1
33628.8
32864.5
32039.2
31152.3
30212.2
29238.4
28239
27218.5
26178.1
25119.5
24044.8
22953.5
21848.2
20734.1
19620.9
18520.3
17443.5
16401.5
15399.6
14442.3
13530.3
12657.6
11814.6
10988.6
10164.1
9322.43
8447.12
7524.08
6540.66
5485.65
4353.03
3137.02
1834.73
456.455
-972.037
-2501.85
-4109.16
-5789.92
-7541.81
-9357.43
-11230.7
-13150.5
-15103.1
-17069.6
-19035
-20984
-22895.5
-24747.5
-26533.6
-28214.8
-29820.7
-31324.9
-32702.7
-33898.8
-35047.4
-36112.4
-37085.7
-37921.1
-38676.3
-39326.2
-39867.9
-10282.3
-10063
-9788.1
-9469.76
-9128.97
-8784.99
-8451.13
-8119.52
-7790.36
-7474.51
-7193.44
-6971.86
-6768.83
-6683.29
-6711.9
-6856.56
-7135.03
-7577.87
-8171.37
-8895.31
-9713.98
-10585.1
-11517
-12493.7
-13500.8
-14502.6
-15472.5
-16430.1
-17272.5
-18004.2
-18647.8
-19205
-19681.5
-20065.9
-20375
-20553.6
-20618.3
-20548.2
-20317.5
-19911.4
-19362.4
-18706.9
-17897.9
-16991.9
-16055.1
-15082.2
-14118.8
-13143.4
-12163.7
-11193.7
-10192.5
-9146.23
-8054.84
-6892.94
-5667.62
-4390.6
-3070.38
-1684.32
-320.495
1032.48
2352.13
3638.85
4884.73
6101.17
7300.71
8494.06
9695.79
10909.4
12136.7
13377.4
14623.4
15868.4
17102
18319
19513.5
20686.8
21843.9
22992.2
24140.5
25293.4
26451.7
27612.2
28765.2
29897.6
30993.6
32038.2
33015.6
33909
34702.6
35385.6
35952.3
36401.2
36734.5
36962.2
37065.1
37096.8
37026.7
36841.5
36549.2
36155.1
35665.7
35090.7
34440.7
33719
32931.1
32082.4
31177.8
30218
29225.7
28210.1
27176.1
26123.8
25054.7
23971.2
22870.9
21755.8
20630.3
19505.1
18393.4
17307.2
16259.9
15256.1
14301.5
13398.1
12538.5
11712.9
10907.2
10105.2
9285.05
8429.16
7522.9
6552.79
5505.89
4376.41
3160.43
1855.7
470.627
-960.436
-2501.36
-4119.36
-5811.99
-7578.32
-9410.18
-11303.6
-13245.7
-15223.7
-17215.9
-19205.7
-21180.4
-23121.9
-24988.7
-26776.3
-28451.6
-30009.2
-31317.6
-32310.1
-32740.6
-32493.2
-31103.6
-28301.2
-24880.7
-21692.6
-18770.1
-16135.5
-10415.4
-10206.4
-9934.58
-9614.52
-9270.49
-8922.33
-8576.7
-8224.72
-7869.15
-7523.6
-7209.01
-6939.11
-6721.38
-6610.99
-6618.16
-6747.5
-7018.65
-7457.27
-8054.4
-8789.81
-9630.11
-10523.5
-11483.8
-12490.1
-13531.1
-14561.8
-15550.8
-16542.2
-17396.1
-18129.9
-18776.2
-19332.7
-19808.4
-20197.2
-20509
-20697.4
-20770.9
-20707.2
-20478.6
-20062.5
-19498.4
-18838.8
-18003.7
-17065.9
-16111.9
-15114.7
-14143.4
-13158
-12171.2
-11209.4
-10214
-9171.88
-8089.44
-6927.61
-5700.61
-4415.85
-3084.78
-1679.76
-303.995
1064.02
2392.65
3687.1
4933.76
6147.77
7342.8
8529.54
9726.54
10936.3
12161.3
13402.9
14651.4
15901.1
17139.2
18361
19558.1
20732.3
21888.7
23035.3
24182.8
25336.2
26497.4
27663.9
28825.7
29969.8
31079.7
32139.9
33133.4
34042.5
34849.6
35542.9
36116.3
36568.2
36901
37124.9
37231
37256.4
37177.4
36983.1
36680.9
36275.9
35775.6
35189.6
34526
33787.4
32981.2
32114.2
31195.4
30222.6
29217.8
28191.2
27148.1
26087.4
25010.9
23921.6
22815
21692.7
20558.5
19424
18303.9
17210.5
16159.8
15154.4
14201.4
13304.5
12454.6
11642
10851.7
10066.7
9262.49
8420.88
7527
6566.76
5525.14
4397.33
3181.64
1875.31
484.971
-948.724
-2498.42
-4124.27
-5825.54
-7602.61
-9446.12
-11354.7
-13313.4
-15310.7
-17321.1
-19328
-21327.2
-23282.2
-25148.6
-26946.7
-28578.2
-29908.9
-30398.2
-28664.2
-22581.1
-14302.3
-8364.71
-5500.6
-4098.88
-2964.81
-1926.95
-1086.89
-10490.2
-10287.2
-10017
-9695.68
-9349.76
-8999.14
-8646.34
-8282.3
-7911.54
-7549.19
-7215.84
-6922.61
-6694.39
-6571.13
-6567.02
-6688.28
-6955.32
-7391.3
-7990.13
-8731.07
-9582.22
-10488.3
-11464.3
-12486.8
-13546.9
-14593.5
-15592
-16603.2
-17463
-18197.5
-18845.2
-19401.1
-19876.4
-20268.3
-20579.8
-20774.7
-20853.2
-20793
-20565.9
-20144.6
-19572
-18911
-18061.8
-17106
-16143.4
-15132.5
-14157.6
-13166.8
-12175.7
-11219.1
-10226.9
-9186.99
-8110.07
-6948.15
-5720.61
-4431.44
-3094.58
-1679.01
-296.987
1079.54
2412.91
3711.78
4958.71
6171.31
7363.83
8546.75
9741.15
10948.7
12172.3
13414.6
14664.4
15916.7
17157.3
18381.8
19580.4
20755.1
21911.1
23056.6
24203.6
25357.4
26519.9
27689.6
28856.1
30006.6
31124
32192.8
33195.2
34113
34927.7
35626.6
36203.7
36657.4
36990.2
37211.1
37320.9
37342.3
37258.7
37059.8
36752.4
36341.9
35836
35244
34572.9
33825
33008.8
32131.7
31204.9
30225.1
29213.7
28181.2
27133.4
26068.4
24988
23895.6
22785.7
21659.7
20520.8
19381.2
18256.4
17159.1
16106.4
15100.1
14147.9
13254.4
12409.8
11604.3
10822.4
10046.7
9251.15
8417.22
7530.02
6575.12
5536.18
4409.32
3193.85
1886.71
493.485
-941.875
-2496.38
-4126.44
-5832.33
-7615.19
-9464.85
-11381.7
-13349.2
-15357.1
-17377.5
-19394.9
-21402.5
-23367.1
-25230.7
-26949.3
-28134.6
-26930.5
-19445
-9602.46
-3473.94
-1398.39
-465.52
-146.544
-19.0157
30.0703
28.6484
25.6183
-10569.8
-10373.6
-10105.5
-9782.71
-9434.85
-9081.34
-8720.35
-8342.75
-7955.49
-7575.12
-7222.1
-6907.32
-6665.67
-6529.31
-6513.72
-6626.82
-6889.42
-7322.18
-7922.49
-8668.37
-9529.46
-10449.5
-11442.2
-12481.7
-13562.2
-14625.6
-15633.1
-16666.7
-17532.3
-18266.7
-18916
-19471.1
-19945.9
-20340.5
-20652.2
-20853.9
-20938
-20881.5
-20656.4
-20229.8
-19647.9
-18986.7
-18122.8
-17147.5
-16177.2
-15151.1
-14173.3
-13176.6
-12180.6
-11230.2
-10241.6
-9203.68
-8133.33
-6971.18
-5743.6
-4449.58
-3106.89
-1680.16
-291.873
1093.92
2432.1
3735.88
4982.99
6194.08
7383.96
8562.67
9754.29
10959.3
12181.4
13424.3
14675.4
15930.6
17173.8
18401.3
19601.6
20776.9
21932.5
23076.9
24223.2
25377.1
26540.8
27713.8
28885
30042
31167.3
32245
33256.8
34183.9
35006.6
35711.8
36293
36748.8
37081.6
37298.6
37414.4
37431.1
37342.8
37139.3
36826.8
36410.8
35899.3
35301.3
34622.4
33864.6
33038
32150.2
31214.8
30227.7
29209.6
28171.2
27118.7
26049.3
24965
23869.9
22756.7
21627.1
20483.3
19338.4
18208.7
17106.9
16052
15044.5
14093
13203.2
12364.1
11565.9
10792.6
10026.7
9240.19
8414.25
7534.04
6584.77
5548.5
4422.63
3207.52
1899.65
503.522
-933.7
-2493.19
-4127.45
-5838.02
-7626.79
-9482.61
-11408
-13384.7
-15403.3
-17435.5
-19460.8
-21476.2
-23425.2
-25115.1
-25369.9
-19491.3
-8516.49
-1959.09
-130.194
48.9622
46.4219
42.3403
38.1961
33.0834
30.1647
28.5026
25.6155
-10654.5
-10466.5
-10200.9
-9876.26
-9526.28
-9169.27
-8798.82
-8405.97
-8000.81
-7601.23
-7227.77
-6892.7
-6635.27
-6485.47
-6458.17
-6563.09
-6821.03
-7249.98
-7851.69
-8601.74
-9471.65
-10407.4
-11417.8
-12474.9
-13577.5
-14658.7
-15673.9
-16732.9
-17604
-18337.6
-18988.7
-19542.7
-20016.9
-20413.8
-20725.9
-20935
-21025.3
-20972.6
-20749.9
-20318.1
-19726.1
-19065.6
-18186.6
-17190.1
-16212.8
-15170
-14190
-13187.2
-12185.4
-11242.5
-10257.5
-9221.52
-8158.94
-6996.25
-5769.28
-4469.78
-3121.29
-1682.69
-288.207
1107.72
2450.7
3759.94
5007.08
6216.54
7403.67
8577.7
9766.42
10968.7
12189
13432.5
14684.9
15943.3
17189.2
18420.1
19622.1
20798.1
21953.3
23096.4
24242.1
25395.9
26560.7
27736.8
28912.8
30076.5
31209.8
32297
33318.6
34255.5
35086.8
35798.6
36384.2
36842.4
37175.6
37387.3
37511.9
37522.7
37429.5
37221.4
36903.8
36482.4
35965.3
35361.1
34673.9
33905.9
33068.4
32169.4
31224.9
30230.4
29205.5
28161.2
27104
26030.3
24942.1
23844.3
22727.9
21594.5
20445.7
19295.3
18160.4
17053.9
15996.9
14987.9
14037.1
13151.1
12317.4
11526.8
10762.4
10006.9
9229.72
8412.02
7539.05
6595.69
5562.02
4437.15
3222.53
1914.02
514.932
-924.463
-2489.13
-4127.58
-5842.9
-7637.73
-9499.63
-11434.4
-13419.3
-15450.4
-17493.5
-19520
-21495.4
-23022.7
-21157.3
-11021.6
-2420.22
-34.9399
57.508
53.089
48.837
45.9544
42.0052
37.8862
32.8197
29.9155
28.2399
25.3885
-10744.4
-10566.2
-10303.8
-9977.05
-9623.82
-9263.19
-8881.72
-8471.71
-8047.28
-7627.32
-7232.81
-6878.3
-6603.21
-6439.57
-6400.34
-6497.07
-6750.15
-7174.66
-7777.81
-8529.36
-9407.96
-10362.1
-11390.9
-12466.5
-13592.9
-14692.8
-15714.2
-16802.1
-17678.4
-18410.2
-19063.3
-19615.8
-20089.2
-20488.1
-20800.6
-21018.1
-21115.2
-21066.3
-20846.4
-20409.5
-19806.3
-19148.1
-18253.3
-17233.4
-16250.5
-15188.9
-14207.9
-13198.5
-12189.7
-11255.8
-10274.8
-9240.33
-8186.99
-7023.31
-5797.74
-4491.94
-3137.78
-1686.54
-286.004
1121.05
2468.74
3784.11
5031.08
6238.77
7423.03
8591.88
9777.56
10976.8
12195
13439.2
14692.8
15954.7
17203.5
18438.2
19642
20818.9
21973.7
23115.3
24260.2
25413.9
26579.5
27758.7
28939.5
30110
31251.6
32348.5
33380.4
34327.7
35168.3
35887
36477.5
36938.2
37272
37476.7
37614
37617.1
37519
37306.4
36983.7
36556.7
36034.2
35423.5
34727.6
33948.7
33100
32189.2
31235.3
30233.1
29201.5
28151.1
27089.4
26011.3
24919.1
23818.8
22699.2
21562.1
20408
19251.7
18111.6
17000
15940.8
14930.2
13979.7
13097.7
12269.8
11487
10731.9
9987.24
9219.68
8410.47
7544.99
6607.82
5576.62
4452.79
3238.74
1929.62
527.54
-914.49
-2484.55
-4127.21
-5847.39
-7648.45
-9516.57
-11459
-13454.3
-15501.5
-17537.4
-19496.6
-20561.2
-15384.4
-4699.07
-351.587
70.1373
64.6959
57.3851
52.6693
48.3576
45.4635
41.4636
37.5161
32.7511
29.7796
27.9845
25.1966
-10839.6
-10673.4
-10415.2
-10085.4
-9727.12
-9363.48
-8968.96
-8539.68
-8094.65
-7653.19
-7237.1
-6863.68
-6569.5
-6391.58
-6340.15
-6428.73
-6676.8
-7096.12
-7700.91
-8451.93
-9337.34
-10313.8
-11361.4
-12456.4
-13608.6
-14728.2
-15753.6
-16874.5
-17755.4
-18484.4
-19140
-19690.9
-20163.8
-20565
-20872.6
-21085
-21175.8
-21125.5
-20909.8
-20486
-19888.4
-19233
-18323
-17277.9
-16290.8
-15207.5
-14226.8
-13210.5
-12193.4
-11270.3
-10293.5
-9259.94
-8217.57
-7052.26
-5829.12
-4515.92
-3156.41
-1691.65
-285.284
1134.06
2486.27
3808.52
5055.08
6260.85
7442.15
8605.23
9787.78
10983.7
12199.4
13444.4
14699.3
15964.9
17216.7
18455.6
19661.4
20839.2
21993.6
23133.6
24277.6
25431
26597.3
27779.4
28964.9
30142.5
31292.5
32399.7
33442.4
34400.7
35251
35977.1
36572.7
37036.4
37371.2
37566.5
37721.4
37714.2
37611.3
37394.2
37066.4
36633.9
36105.9
35488.4
34783.3
33993.1
33132.7
32209.6
31245.9
30235.7
29197.3
28140.8
27074.7
25992.2
24895.9
23793.3
22670.5
21529.7
20370.2
19207.9
18062.2
16945.2
15883.7
14871.4
13921.4
13043.9
12221.2
11446.5
10701
9967.7
9210.11
8409.61
7551.91
6621.24
5592.34
4469.64
3256.26
1946.59
541.537
-903.731
-2479.36
-4126.17
-5851.42
-7658.85
-9531.06
-11487.1
-13496.3
-15526.4
-17444.4
-17713.2
-9849.82
-1690.08
83.903
78.1084
69.7349
63.8551
57.0166
52.3298
48.0011
45.0155
41.0452
37.1102
32.5481
29.5838
27.7186
24.9804
-10940
-10789
-10536.4
-10201.6
-9836.34
-9470.76
-9060.34
-8609.5
-8142.66
-7678.64
-7240.47
-6848.5
-6534.13
-6341.48
-6277.58
-6358.03
-6601.01
-7014.28
-7621.28
-8370.93
-9258.28
-10262.9
-11328.9
-12444.5
-13624
-14764.8
-15790
-14894.1
-11022.6
-7857.74
-5469.05
-3710.9
-2520.16
-1854.31
-1723.04
-2219.25
-3442.93
-5536.35
-8643.91
-12812.2
-17867.4
-19210
-18362
-17321.7
-16332.7
-15226.2
-14247.6
-13223.4
-12196
-11285.8
-10313.4
-9280.13
-8250.85
-7082.99
-5863.57
-4541.58
-3177.27
-1698
-286.114
1146.87
2503.27
3833.31
5079.13
6282.82
7461.11
8617.73
9797.09
10989.4
12202.2
13448.1
14704.1
15973.9
17228.8
18472.4
19680.3
20859.1
22013.2
23151.2
24294.3
25447.2
26613.8
27798.9
28989.1
30173.9
31332.6
32450.5
33504.3
34474.3
35334.9
36069
36670.1
37136.9
37473.3
37666.1
37824.3
37814
37706.5
37484.9
37152
36714.1
36180.7
35555.9
34841.2
34039.1
33166.5
32230.5
31256.7
30238.1
29193.1
28130.4
27059.9
25972.9
24872.5
23767.9
22641.9
21497.5
20332.4
19163.7
18012.2
16889.4
15825.7
14811.4
13862.5
12988
12171.6
11405.2
10669.6
9948.31
9200.99
8409.45
7559.8
6635.97
5609.17
4487.7
3275.11
1964.94
557.022
-892.257
-2473.58
-4124.67
-5854.76
-7667.72
-9550.52
-11518.6
-13504
-15323.5
-14237.3
-5385.23
-399.116
82.3983
83.3632
76.4142
69.0881
63.3757
56.5462
51.9025
47.6103
44.5351
40.6083
36.7754
32.3903
29.4009
27.4642
24.7733
-11049.1
-10918.5
-10673.4
-10331.5
-9955.55
-9589.19
-9158.92
-8683.26
-8192.8
-7704.38
-7242.85
-6831.93
-6495.78
-6287.41
-6210.24
-6282.36
-6520.05
-6925.97
-7536.4
-8281.9
-9165.63
-10207.5
-11290.7
-12427.7
-10273.9
-5326.96
-873.036
1299.92
1021.7
821.325
574.936
337.693
90.7163
-163.749
-417.195
-679.187
-934.356
-1176.16
-1402.14
-1558.85
-1859.87
-5716.52
-11428.7
-16410.2
-16290.1
-15242.7
-14269
-13237.5
-12198
-11303.6