/*--------------------------------*- C++ -*----------------------------------*\
| =========                 |                                                 |
| \\      /  F ield         | OpenFOAM: The Open Source CFD Toolbox           |
|  \\    /   O peration     | Version:  v1912                                 |
|   \\  /    A nd           | Website:  www.openfoam.com                      |
|    \\/     M anipulation  |                                                 |
\*---------------------------------------------------------------------------*/
FoamFile
{
    version     2.0;
    format      ascii;
    class       volSymmTensorField;
    location    "30";
    object      R;
}
// * * * * * * * * * * * * * * * * * * * * * * * * * * * * * * * * * * * * * //

dimensions      [0 2 -2 0 0 0 0];


internalField   nonuniform List<symmTensor> 
14268
(
(0.015196 -0.000519838 0 0.0093321 0 0.0148508)
(0.00465944 0.000624696 0 0.000393192 0 0.00503188)
(0.00307997 -0.000493949 0 0.0027001 0 0.00308683)
(0.00465997 -0.0015944 0 0.00816299 0 0.00449745)
(0.00683431 -0.0022429 0 0.00380284 0 0.00562659)
(0.00770119 -0.0012925 0 1e-15 0 0.00580294)
(0.00603805 -0.000525713 0 1e-15 0 0.00450764)
(0.00507338 -0.000316974 0 1e-15 0 0.00380253)
(0.00475101 -0.00023102 0 1e-15 0 0.00357946)
(0.00495938 -0.000159685 0 1e-15 0 0.00379965)
(0.00556186 -0.000204194 0 0.000314078 0 0.00428598)
(0.00564586 -0.00020677 0 0.000384175 0 0.00434231)
(0.00477936 -0.000111447 0 0.000189463 0 0.00365913)
(0.00361237 -3.65252e-05 0 7.30185e-05 0 0.00279074)
(0.0032806 -5.07684e-05 0 1e-15 0 0.00253392)
(0.00341219 -0.000175847 0 1e-15 0 0.00261465)
(0.00295632 -0.000203631 0 1e-15 0 0.00231994)
(0.00278893 -0.000292297 0 1e-15 0 0.00232361)
(0.00315553 -0.000478082 0 1e-15 0 0.00282051)
(0.0041592 -0.000786337 0 1e-15 0 0.00382416)
(0.00556361 -0.00104632 0 1e-15 0 0.0049583)
(0.00555648 -0.000915421 0 0.000245961 0 0.00472462)
(0.00486437 -0.00064483 0 8.78769e-05 0 0.00392989)
(0.00351695 -0.000447478 0 1e-15 0 0.0027676)
(0.0022249 -0.000245757 0 1e-15 0 0.00177871)
(0.00136433 -0.00011656 0 1e-15 0 0.00115652)
(0.00107247 -9.26798e-05 0 1e-15 0 0.000981219)
(0.00104421 -0.000111823 0 1e-15 0 0.00101441)
(0.0010202 -0.000140435 0 1e-15 0 0.0010607)
(0.000968432 -0.000151734 0 1e-15 0 0.00105207)
(0.000850426 -0.000146903 0 1e-15 0 0.000950815)
(0.000624928 -0.000111924 0 1e-15 0 0.000705034)
(0.00029984 -4.45068e-05 0 1e-15 0 0.000343648)
(9.23982e-05 -5.54457e-06 0 1e-15 0 0.000108118)
(2.39991e-05 3.51378e-07 0 1.44366e-06 0 2.79436e-05)
(5.94407e-06 1.69661e-07 0 1.75689e-06 0 6.68012e-06)
(1.47125e-06 4.6783e-08 0 1.01364e-06 0 1.57945e-06)
(3.64853e-07 2.04081e-08 0 3.01206e-07 0 3.76307e-07)
(8.62288e-08 6.71931e-09 0 7.41439e-08 0 8.61224e-08)
(1.88485e-08 1.54879e-09 0 1.63421e-08 0 1.84041e-08)
(3.80081e-09 2.91891e-10 0 3.30292e-09 0 3.65767e-09)
(7.09157e-10 5.04898e-11 0 6.16843e-10 0 6.75747e-10)
(1.23952e-10 8.21825e-12 0 1.07862e-10 0 1.17237e-10)
(2.27659e-11 1.35438e-12 0 1.97714e-11 0 2.1371e-11)
(7.30091e-12 3.35456e-13 0 6.29785e-12 0 6.79811e-12)
(5.65312e-12 2.10306e-13 0 4.87377e-12 0 5.25798e-12)
(5.91925e-12 2.05979e-13 0 5.1236e-12 0 5.51693e-12)
(6.68486e-12 2.18981e-13 0 5.8265e-12 0 6.25196e-12)
(7.55611e-12 2.34102e-13 0 6.63356e-12 0 7.09134e-12)
(8.33533e-12 2.45779e-13 0 7.3633e-12 0 7.84586e-12)
(9.08707e-12 2.55213e-13 0 8.0739e-12 0 8.57707e-12)
(9.82491e-12 2.62803e-13 0 8.77715e-12 0 9.29768e-12)
(1.05484e-11 2.68702e-13 0 9.47199e-12 0 1.00069e-11)
(1.12565e-11 2.73045e-13 0 1.01568e-11 0 1.07035e-11)
(1.19481e-11 2.75962e-13 0 1.08301e-11 0 1.13861e-11)
(1.26229e-11 2.77582e-13 0 1.1491e-11 0 1.2054e-11)
(1.32804e-11 2.7803e-13 0 1.21387e-11 0 1.27068e-11)
(1.39207e-11 2.77421e-13 0 1.27728e-11 0 1.33441e-11)
(1.4544e-11 2.75865e-13 0 1.3393e-11 0 1.39659e-11)
(1.51504e-11 2.7346e-13 0 1.39992e-11 0 1.45724e-11)
(1.57403e-11 2.70299e-13 0 1.45915e-11 0 1.51636e-11)
(1.63139e-11 2.66462e-13 0 1.51699e-11 0 1.57397e-11)
(1.68717e-11 2.62029e-13 0 1.57345e-11 0 1.6301e-11)
(1.7414e-11 2.57071e-13 0 1.62854e-11 0 1.68478e-11)
(1.79415e-11 2.51649e-13 0 1.68231e-11 0 1.73805e-11)
(1.84546e-11 2.45819e-13 0 1.73478e-11 0 1.78995e-11)
(1.89536e-11 2.39633e-13 0 1.78598e-11 0 1.8405e-11)
(1.94388e-11 2.33137e-13 0 1.83592e-11 0 1.88975e-11)
(1.99109e-11 2.26374e-13 0 1.88463e-11 0 1.93772e-11)
(2.037e-11 2.19384e-13 0 1.93214e-11 0 1.98444e-11)
(2.08166e-11 2.12201e-13 0 1.97848e-11 0 2.02995e-11)
(2.12511e-11 2.04857e-13 0 2.02367e-11 0 2.07428e-11)
(2.16736e-11 1.97382e-13 0 2.06774e-11 0 2.11744e-11)
(2.20847e-11 1.89803e-13 0 2.11069e-11 0 2.15948e-11)
(2.24844e-11 1.82144e-13 0 2.15257e-11 0 2.20041e-11)
(2.28732e-11 1.74428e-13 0 2.19338e-11 0 2.24027e-11)
(2.32513e-11 1.66675e-13 0 2.23316e-11 0 2.27907e-11)
(2.3619e-11 1.58903e-13 0 2.27191e-11 0 2.31683e-11)
(2.39765e-11 1.51131e-13 0 2.30967e-11 0 2.35359e-11)
(2.4324e-11 1.43375e-13 0 2.34644e-11 0 2.38936e-11)
(2.46617e-11 1.35649e-13 0 2.38225e-11 0 2.42415e-11)
(2.499e-11 1.27965e-13 0 2.4171e-11 0 2.458e-11)
(2.53089e-11 1.20337e-13 0 2.45103e-11 0 2.49092e-11)
(2.56188e-11 1.12774e-13 0 2.48405e-11 0 2.52292e-11)
(2.59197e-11 1.05288e-13 0 2.51617e-11 0 2.55403e-11)
(2.62119e-11 9.78872e-14 0 2.5474e-11 0 2.58426e-11)
(2.64956e-11 9.058e-14 0 2.57777e-11 0 2.61364e-11)
(2.6771e-11 8.33741e-14 0 2.60729e-11 0 2.64217e-11)
(2.70382e-11 7.6276e-14 0 2.63598e-11 0 2.66987e-11)
(2.72974e-11 6.92917e-14 0 2.66384e-11 0 2.69677e-11)
(2.75488e-11 6.24266e-14 0 2.69091e-11 0 2.72287e-11)
(2.77925e-11 5.56853e-14 0 2.71718e-11 0 2.7482e-11)
(2.80288e-11 4.90719e-14 0 2.74268e-11 0 2.77277e-11)
(2.82578e-11 4.25898e-14 0 2.76742e-11 0 2.79659e-11)
(2.84797e-11 3.62423e-14 0 2.79142e-11 0 2.81968e-11)
(2.86945e-11 3.00314e-14 0 2.81469e-11 0 2.84207e-11)
(2.89026e-11 2.39596e-14 0 2.83725e-11 0 2.86375e-11)
(2.9104e-11 1.80281e-14 0 2.8591e-11 0 2.88475e-11)
(2.9299e-11 1.22385e-14 0 2.88028e-11 0 2.90509e-11)
(2.94875e-11 6.59099e-15 0 2.90079e-11 0 2.92477e-11)
(2.967e-11 1.08656e-15 0 2.92064e-11 0 2.94382e-11)
(2.98463e-11 -4.27509e-15 0 2.93986e-11 0 2.96225e-11)
(3.00169e-11 -9.49394e-15 0 2.95845e-11 0 2.98007e-11)
(3.01816e-11 -1.45706e-14 0 2.97644e-11 0 2.99731e-11)
(3.03409e-11 -1.95059e-14 0 2.99383e-11 0 3.01396e-11)
(3.04946e-11 -2.43004e-14 0 3.01064e-11 0 3.03006e-11)
(3.06431e-11 -2.89562e-14 0 3.02688e-11 0 3.04561e-11)
(3.07865e-11 -3.34737e-14 0 3.04257e-11 0 3.06062e-11)
(3.09248e-11 -3.78557e-14 0 3.05773e-11 0 3.07512e-11)
(3.10583e-11 -4.21024e-14 0 3.07237e-11 0 3.08911e-11)
(3.11871e-11 -4.62179e-14 0 3.08649e-11 0 3.10261e-11)
(3.13113e-11 -5.02015e-14 0 3.10013e-11 0 3.11564e-11)
(3.1431e-11 -5.40587e-14 0 3.11328e-11 0 3.1282e-11)
(3.15464e-11 -5.7788e-14 0 3.12596e-11 0 3.14031e-11)
(3.16576e-11 -6.13961e-14 0 3.13819e-11 0 3.15198e-11)
(3.17647e-11 -6.48807e-14 0 3.14998e-11 0 3.16324e-11)
(3.18679e-11 -6.82494e-14 0 3.16133e-11 0 3.17407e-11)
(3.19673e-11 -7.14995e-14 0 3.17228e-11 0 3.18452e-11)
(3.20628e-11 -7.46391e-14 0 3.18281e-11 0 3.19456e-11)
(3.21549e-11 -7.76654e-14 0 3.19297e-11 0 3.20425e-11)
(3.22434e-11 -8.05862e-14 0 3.20273e-11 0 3.21355e-11)
(3.23287e-11 -8.33998e-14 0 3.21214e-11 0 3.22252e-11)
(3.24105e-11 -8.61125e-14 0 3.22118e-11 0 3.23113e-11)
(3.24894e-11 -8.87247e-14 0 3.22989e-11 0 3.23943e-11)
(3.25651e-11 -9.12398e-14 0 3.23825e-11 0 3.24739e-11)
(3.26379e-11 -9.36615e-14 0 3.2463e-11 0 3.25506e-11)
(3.27078e-11 -9.59899e-14 0 3.25403e-11 0 3.26242e-11)
(3.2775e-11 -9.82318e-14 0 3.26146e-11 0 3.26949e-11)
(3.28395e-11 -1.00384e-13 0 3.2686e-11 0 3.27629e-11)
(3.29014e-11 -1.02457e-13 0 3.27546e-11 0 3.28282e-11)
(3.2961e-11 -1.04445e-13 0 3.28205e-11 0 3.28909e-11)
(3.3018e-11 -1.06357e-13 0 3.28837e-11 0 3.2951e-11)
(3.30729e-11 -1.08191e-13 0 3.29445e-11 0 3.30088e-11)
(3.31254e-11 -1.09954e-13 0 3.30026e-11 0 3.30642e-11)
(3.31759e-11 -1.11644e-13 0 3.30586e-11 0 3.31174e-11)
(3.32241e-11 -1.13266e-13 0 3.31121e-11 0 3.31683e-11)
(3.32706e-11 -1.14821e-13 0 3.31636e-11 0 3.32173e-11)
(3.33149e-11 -1.16312e-13 0 3.32128e-11 0 3.3264e-11)
(3.33576e-11 -1.17742e-13 0 3.32602e-11 0 3.3309e-11)
(3.33983e-11 -1.19111e-13 0 3.33054e-11 0 3.3352e-11)
(3.34374e-11 -1.20424e-13 0 3.33488e-11 0 3.33933e-11)
(3.34748e-11 -1.2168e-13 0 3.33904e-11 0 3.34328e-11)
(3.35107e-11 -1.22883e-13 0 3.34302e-11 0 3.34706e-11)
(3.3545e-11 -1.24034e-13 0 3.34683e-11 0 3.35068e-11)
(3.35777e-11 -1.25135e-13 0 3.35047e-11 0 3.35414e-11)
(3.3609e-11 -1.26185e-13 0 3.35394e-11 0 3.35744e-11)
(3.36385e-11 -1.27189e-13 0 3.35722e-11 0 3.36056e-11)
(3.36664e-11 -1.28129e-13 0 3.36031e-11 0 3.36349e-11)
(3.36935e-11 -1.29053e-13 0 3.36335e-11 0 3.36637e-11)
(3.37304e-11 -1.30074e-13 0 3.36742e-11 0 3.37024e-11)
(0.0610886 -0.00137876 0 0.0421357 0 0.0595498)
(0.0185981 0.00461176 0 1e-15 0 0.0209642)
(0.00999682 -0.00161858 0 0.00267031 0 0.0101575)
(0.0126433 -0.00671856 0 0.0384981 0 0.0127617)
(0.0274024 -0.0116792 0 0.0239676 0 0.021625)
(0.0436779 -0.0084685 0 0.00662873 0 0.0303813)
(0.0384949 -0.00271633 0 1e-15 0 0.0265192)
(0.0309601 -0.000879629 0 1e-15 0 0.0213259)
(0.0273493 -0.000213282 0 1e-15 0 0.0188838)
(0.0250985 9.9011e-06 0 1e-15 0 0.0176347)
(0.0269457 -0.000227707 0 1e-15 0 0.0190685)
(0.0271316 -0.000371222 0 1e-15 0 0.0192014)
(0.0237062 -0.000162288 0 1e-15 0 0.0167426)
(0.0184541 0.000201246 0 1e-15 0 0.0131459)
(0.0173779 0.00016023 0 1e-15 0 0.0123735)
(0.0195676 -0.000637172 0 1e-15 0 0.0137417)
(0.0179381 -0.000831002 0 1e-15 0 0.0128828)
(0.0163813 -0.00134823 0 1e-15 0 0.0125999)
(0.0168674 -0.00241557 0 1e-15 0 0.0143218)
(0.0200305 -0.00418306 0 1e-15 0 0.018108)
(0.0248154 -0.00560324 0 1e-15 0 0.0217489)
(0.024696 -0.00481209 0 1e-15 0 0.020314)
(0.022665 -0.00347758 0 1e-15 0 0.0173992)
(0.0177991 -0.00256362 0 1e-15 0 0.0131498)
(0.0122579 -0.0015129 0 1e-15 0 0.00915909)
(0.00805949 -0.000678614 0 1e-15 0 0.00641318)
(0.00625548 -0.000477202 0 1e-15 0 0.00547963)
(0.00586054 -0.000613913 0 1e-15 0 0.00557293)
(0.00552534 -0.000828048 0 1e-15 0 0.00576463)
(0.00514788 -0.000919717 0 1e-15 0 0.00572397)
(0.00458376 -0.000910956 0 1e-15 0 0.00532303)
(0.00365847 -0.000760924 0 1e-15 0 0.0043081)
(0.00218701 -0.000374647 0 1e-15 0 0.00262686)
(0.000864495 -3.00529e-05 0 1e-15 0 0.00110366)
(0.000300178 3.54177e-05 0 1e-15 0 0.000381543)
(0.000100099 1.29109e-05 0 1e-15 0 0.000119751)
(3.09148e-05 3.36868e-06 0 2.21933e-05 0 3.45784e-05)
(8.37064e-06 1.10149e-06 0 6.90068e-06 0 8.81027e-06)
(2.03429e-06 2.96783e-07 0 1.63491e-06 0 2.03631e-06)
(4.52355e-07 6.35625e-08 0 3.57257e-07 0 4.36671e-07)
(9.31765e-08 1.2018e-08 0 7.29221e-08 0 8.77346e-08)
(1.77666e-08 2.10943e-09 0 1.38514e-08 0 1.64338e-08)
(3.17018e-09 3.48527e-10 0 2.4705e-09 0 2.8927e-09)
(6.01203e-10 5.86115e-11 0 4.68098e-10 0 5.41246e-10)
(2.04862e-10 1.50963e-11 0 1.58974e-10 0 1.82086e-10)
(1.64048e-10 9.75454e-12 0 1.2778e-10 0 1.45671e-10)
(1.72925e-10 9.60186e-12 0 1.3569e-10 0 1.54088e-10)
(1.9585e-10 1.02188e-11 0 1.55521e-10 0 1.75499e-10)
(2.21391e-10 1.09196e-11 0 1.77936e-10 0 1.99486e-10)
(2.44307e-10 1.14622e-11 0 1.984e-10 0 2.21177e-10)
(2.66469e-10 1.19012e-11 0 2.18494e-10 0 2.42307e-10)
(2.88225e-10 1.22538e-11 0 2.38491e-10 0 2.63187e-10)
(3.09554e-10 1.25268e-11 0 2.58344e-10 0 2.83782e-10)
(3.30422e-10 1.27263e-11 0 2.77995e-10 0 3.04047e-10)
(3.50799e-10 1.28584e-11 0 2.97395e-10 0 3.23941e-10)
(3.70668e-10 1.29289e-11 0 3.16503e-10 0 3.43435e-10)
(3.9002e-10 1.29438e-11 0 3.35292e-10 0 3.62512e-10)
(4.08854e-10 1.29085e-11 0 3.5374e-10 0 3.81159e-10)
(4.27175e-10 1.2828e-11 0 3.71835e-10 0 3.99373e-10)
(4.44989e-10 1.27071e-11 0 3.89568e-10 0 4.17153e-10)
(4.62307e-10 1.25502e-11 0 4.06935e-10 0 4.34502e-10)
(4.79137e-10 1.23611e-11 0 4.2393e-10 0 4.51421e-10)
(4.9549e-10 1.21435e-11 0 4.40552e-10 0 4.67915e-10)
(5.11381e-10 1.19008e-11 0 4.56803e-10 0 4.83992e-10)
(5.26826e-10 1.16359e-11 0 4.72693e-10 0 4.99665e-10)
(5.41838e-10 1.13516e-11 0 4.88224e-10 0 5.14942e-10)
(5.56429e-10 1.10503e-11 0 5.034e-10 0 5.29832e-10)
(5.70612e-10 1.07343e-11 0 5.18227e-10 0 5.44342e-10)
(5.84398e-10 1.04056e-11 0 5.3271e-10 0 5.58481e-10)
(5.978e-10 1.0066e-11 0 5.46856e-10 0 5.7226e-10)
(6.1083e-10 9.71732e-12 0 5.6067e-10 0 5.85687e-10)
(6.23497e-10 9.36102e-12 0 5.74158e-10 0 5.98769e-10)
(6.35812e-10 8.99853e-12 0 5.87325e-10 0 6.11514e-10)
(6.47783e-10 8.63114e-12 0 6.00176e-10 0 6.23929e-10)
(6.59422e-10 8.26003e-12 0 6.12717e-10 0 6.36022e-10)
(6.70735e-10 7.88627e-12 0 6.24954e-10 0 6.47801e-10)
(6.81733e-10 7.51086e-12 0 6.3689e-10 0 6.59271e-10)
(6.92422e-10 7.13466e-12 0 6.48532e-10 0 6.7044e-10)
(7.0281e-10 6.75855e-12 0 6.59885e-10 0 6.81314e-10)
(7.12905e-10 6.38331e-12 0 6.70951e-10 0 6.91897e-10)
(7.22713e-10 6.00961e-12 0 6.81737e-10 0 7.02197e-10)
(7.32242e-10 5.63806e-12 0 6.92246e-10 0 7.12218e-10)
(7.41497e-10 5.26924e-12 0 7.02484e-10 0 7.21967e-10)
(7.50485e-10 4.90369e-12 0 7.12454e-10 0 7.31448e-10)
(7.59211e-10 4.54189e-12 0 7.2216e-10 0 7.40666e-10)
(7.67683e-10 4.18428e-12 0 7.31607e-10 0 7.49628e-10)
(7.75905e-10 3.83126e-12 0 7.40799e-10 0 7.58336e-10)
(7.83883e-10 3.48318e-12 0 7.4974e-10 0 7.66798e-10)
(7.91622e-10 3.14035e-12 0 7.58435e-10 0 7.75016e-10)
(7.99128e-10 2.80307e-12 0 7.66886e-10 0 7.82997e-10)
(8.06406e-10 2.47158e-12 0 7.751e-10 0 7.90744e-10)
(8.13462e-10 2.14611e-12 0 7.83078e-10 0 7.98262e-10)
(8.20299e-10 1.82685e-12 0 7.90827e-10 0 8.05557e-10)
(8.26924e-10 1.51396e-12 0 7.9835e-10 0 8.12631e-10)
(8.33341e-10 1.20759e-12 0 8.05651e-10 0 8.19492e-10)
(8.39555e-10 9.0784e-13 0 8.12734e-10 0 8.26141e-10)
(8.45572e-10 6.14825e-13 0 8.19604e-10 0 8.32585e-10)
(8.51394e-10 3.28599e-13 0 8.26265e-10 0 8.38828e-10)
(8.57028e-10 4.92342e-14 0 8.32721e-10 0 8.44874e-10)
(8.62478e-10 -2.23253e-13 0 8.38976e-10 0 8.50727e-10)
(8.67749e-10 -4.88827e-13 0 8.45035e-10 0 8.56393e-10)
(8.72845e-10 -7.475e-13 0 8.50902e-10 0 8.61875e-10)
(8.7777e-10 -9.99274e-13 0 8.56581e-10 0 8.67177e-10)
(8.82529e-10 -1.24418e-12 0 8.62076e-10 0 8.72305e-10)
(8.87127e-10 -1.48226e-12 0 8.67392e-10 0 8.77263e-10)
(8.91567e-10 -1.71355e-12 0 8.72533e-10 0 8.82053e-10)
(8.95854e-10 -1.93814e-12 0 8.77503e-10 0 8.86683e-10)
(8.99992e-10 -2.15605e-12 0 8.82306e-10 0 8.91153e-10)
(9.03986e-10 -2.36743e-12 0 8.86947e-10 0 8.95471e-10)
(9.07838e-10 -2.57228e-12 0 8.91429e-10 0 8.99639e-10)
(9.11554e-10 -2.7708e-12 0 8.95758e-10 0 9.03661e-10)
(9.15137e-10 -2.96296e-12 0 8.99935e-10 0 9.07542e-10)
(9.18591e-10 -3.14902e-12 0 9.03967e-10 0 9.11285e-10)
(9.21921e-10 -3.32892e-12 0 9.07856e-10 0 9.14894e-10)
(9.25128e-10 -3.50297e-12 0 9.11607e-10 0 9.18373e-10)
(9.28218e-10 -3.67107e-12 0 9.15224e-10 0 9.21728e-10)
(9.31193e-10 -3.83358e-12 0 9.18709e-10 0 9.24957e-10)
(9.34059e-10 -3.99038e-12 0 9.22071e-10 0 9.28071e-10)
(9.36815e-10 -4.14184e-12 0 9.25305e-10 0 9.31066e-10)
(9.39471e-10 -4.28785e-12 0 9.28424e-10 0 9.33955e-10)
(9.42022e-10 -4.42876e-12 0 9.31423e-10 0 9.36729e-10)
(9.44481e-10 -4.56452e-12 0 9.34315e-10 0 9.39405e-10)
(9.4684e-10 -4.6954e-12 0 9.37092e-10 0 9.41973e-10)
(9.49113e-10 -4.82145e-12 0 9.39769e-10 0 9.44449e-10)
(9.51294e-10 -4.94281e-12 0 9.4234e-10 0 9.46825e-10)
(9.53393e-10 -5.05967e-12 0 9.44816e-10 0 9.49112e-10)
(9.55408e-10 -5.17204e-12 0 9.47194e-10 0 9.51309e-10)
(9.57344e-10 -5.28023e-12 0 9.4948e-10 0 9.5342e-10)
(9.59205e-10 -5.38413e-12 0 9.51678e-10 0 9.55449e-10)
(9.60989e-10 -5.48415e-12 0 9.53787e-10 0 9.57396e-10)
(9.62705e-10 -5.58011e-12 0 9.55817e-10 0 9.59269e-10)
(9.64348e-10 -5.67243e-12 0 9.57761e-10 0 9.61062e-10)
(9.65929e-10 -5.76097e-12 0 9.59633e-10 0 9.62789e-10)
(9.67441e-10 -5.84604e-12 0 9.61424e-10 0 9.6444e-10)
(9.68896e-10 -5.92765e-12 0 9.63148e-10 0 9.6603e-10)
(9.70286e-10 -6.00595e-12 0 9.64796e-10 0 9.67549e-10)
(9.71624e-10 -6.08107e-12 0 9.66382e-10 0 9.69011e-10)
(9.72902e-10 -6.15305e-12 0 9.67899e-10 0 9.70408e-10)
(9.7413e-10 -6.22212e-12 0 9.69357e-10 0 9.71751e-10)
(9.75304e-10 -6.28822e-12 0 9.7075e-10 0 9.73035e-10)
(9.76431e-10 -6.35163e-12 0 9.72089e-10 0 9.74268e-10)
(9.77508e-10 -6.41228e-12 0 9.73369e-10 0 9.75447e-10)
(9.78541e-10 -6.47042e-12 0 9.74597e-10 0 9.76577e-10)
(9.79529e-10 -6.526e-12 0 9.75771e-10 0 9.77658e-10)
(9.80472e-10 -6.57921e-12 0 9.76893e-10 0 9.78691e-10)
(9.81373e-10 -6.62995e-12 0 9.77964e-10 0 9.79676e-10)
(9.82223e-10 -6.67842e-12 0 9.78976e-10 0 9.80608e-10)
(9.83025e-10 -6.72377e-12 0 9.79927e-10 0 9.81483e-10)
(9.83805e-10 -6.76842e-12 0 9.80866e-10 0 9.82346e-10)
(9.8487e-10 -6.8181e-12 0 9.82121e-10 0 9.835e-10)
(0.0915932 -0.00054782 0 0.168006 0 0.0910918)
(0.0335264 0.00797827 0 1e-15 0 0.0367426)
(0.014375 -0.000469211 0 1e-15 0 0.015924)
(0.016042 -0.00835612 0 0.0615078 0 0.0169993)
(0.0288232 -0.0152184 0 0.0731526 0 0.0257993)
(0.0349881 -0.0132206 0 0.0366531 0 0.028451)
(0.0319664 -0.00712971 0 0.00900765 0 0.02457)
(0.0295291 -0.00298609 0 0.000167727 0 0.021774)
(0.0300533 -0.00117479 0 1e-15 0 0.0216142)
(0.0332261 -0.000193266 0 1e-15 0 0.0236028)
(0.0387547 -0.000528199 0 1e-15 0 0.027388)
(0.038939 -0.000857513 0 1e-15 0 0.0275312)
(0.0343539 -0.000753408 0 1e-15 0 0.0242427)
(0.0273105 -4.6689e-05 0 1e-15 0 0.0194079)
(0.0245376 0.000245971 0 1e-15 0 0.017599)
(0.0234915 -0.00165639 0 0.00443119 0 0.0170057)
(0.0189734 -0.00194385 0 0.0109342 0 0.0147615)
(0.016597 -0.00271559 0 0.0116096 0 0.0147687)
(0.0169765 -0.00472007 0 0.0100231 0 0.0179118)
(0.0204184 -0.00787343 0 0.0103368 0 0.0233673)
(0.0285626 -0.0105155 0 0.00846848 0 0.029019)
(0.031735 -0.00896256 0 0.00793103 0 0.0280692)
(0.0292807 -0.0065904 0 0.00710717 0 0.0235856)
(0.0222018 -0.00510391 0 0.00627228 0 0.0171304)
(0.0155069 -0.00320228 0 0.00835022 0 0.012014)
(0.0106244 -0.00163788 0 0.00582683 0 0.00876726)
(0.00814855 -0.00115471 0 0.0051395 0 0.00756002)
(0.00746991 -0.00134844 0 0.0070446 0 0.00761086)
(0.00690531 -0.00165885 0 0.00939437 0 0.00781321)
(0.00634047 -0.00176732 0 0.0101953 0 0.00772523)
(0.00552841 -0.00170346 0 0.00950553 0 0.00716107)
(0.00428921 -0.00147481 0 0.00728487 0 0.00581223)
(0.00261299 -0.000898566 0 0.00404556 0 0.00367186)
(0.00128662 -0.000271422 0 0.00134575 0 0.00185486)
(0.000598524 2.33227e-05 0 1e-15 0 0.00080433)
(0.000243274 3.93008e-05 0 1e-15 0 0.000295157)
(8.74636e-05 1.43228e-05 0 4.04064e-05 0 9.7722e-05)
(2.69418e-05 4.23106e-06 0 1.99625e-05 0 2.81366e-05)
(7.27889e-06 1.04007e-06 0 4.61009e-06 0 7.17963e-06)
(1.77901e-06 2.23286e-07 0 1.02256e-06 0 1.6774e-06)
(3.96587e-07 4.63056e-08 0 2.19863e-07 0 3.61573e-07)
(8.05271e-08 9.03194e-09 0 4.48571e-08 0 7.15571e-08)
(1.52535e-08 1.65891e-09 0 8.77019e-09 0 1.32738e-08)
(3.21774e-09 3.20943e-10 0 1.97167e-09 0 2.74498e-09)
(1.32705e-09 1.03998e-10 0 8.86242e-10 0 1.11914e-09)
(1.15755e-09 7.69228e-11 0 8.02312e-10 0 9.78949e-10)
(1.23652e-09 7.65422e-11 0 8.70473e-10 0 1.05178e-09)
(1.40312e-09 8.0685e-11 0 1.00644e-09 0 1.20318e-09)
(1.57695e-09 8.49121e-11 0 1.1508e-09 0 1.36234e-09)
(1.73245e-09 8.79691e-11 0 1.28318e-09 0 1.5063e-09)
(1.88277e-09 9.02301e-11 0 1.414e-09 0 1.64689e-09)
(2.02948e-09 9.18072e-11 0 1.54424e-09 0 1.7854e-09)
(2.17248e-09 9.27668e-11 0 1.67355e-09 0 1.92159e-09)
(2.31159e-09 9.31704e-11 0 1.80153e-09 0 2.05518e-09)
(2.4467e-09 9.30756e-11 0 1.92783e-09 0 2.18594e-09)
(2.57777e-09 9.25373e-11 0 2.05221e-09 0 2.31371e-09)
(2.70481e-09 9.16062e-11 0 2.17446e-09 0 2.43841e-09)
(2.82787e-09 9.03289e-11 0 2.29445e-09 0 2.56e-09)
(2.94705e-09 8.87481e-11 0 2.4121e-09 0 2.67847e-09)
(3.06244e-09 8.69016e-11 0 2.52734e-09 0 2.79384e-09)
(3.17417e-09 8.48238e-11 0 2.64015e-09 0 2.90616e-09)
(3.28232e-09 8.25455e-11 0 2.7505e-09 0 3.01547e-09)
(3.38703e-09 8.00948e-11 0 2.85837e-09 0 3.12181e-09)
(3.4884e-09 7.74969e-11 0 2.96379e-09 0 3.22526e-09)
(3.5866e-09 7.47736e-11 0 3.06681e-09 0 3.32592e-09)
(3.68173e-09 7.19441e-11 0 3.16746e-09 0 3.42386e-09)
(3.7739e-09 6.90262e-11 0 3.26577e-09 0 3.51915e-09)
(3.86322e-09 6.60357e-11 0 3.36177e-09 0 3.61185e-09)
(3.94978e-09 6.29869e-11 0 3.4555e-09 0 3.70204e-09)
(4.03369e-09 5.98924e-11 0 3.547e-09 0 3.78979e-09)
(4.11505e-09 5.67635e-11 0 3.63632e-09 0 3.87516e-09)
(4.19394e-09 5.36104e-11 0 3.72348e-09 0 3.95823e-09)
(4.27044e-09 5.04426e-11 0 3.80854e-09 0 4.03904e-09)
(4.34462e-09 4.72682e-11 0 3.89152e-09 0 4.11765e-09)
(4.41657e-09 4.40947e-11 0 3.97246e-09 0 4.19413e-09)
(4.48635e-09 4.09287e-11 0 4.0514e-09 0 4.26852e-09)
(4.55403e-09 3.77767e-11 0 4.12838e-09 0 4.34088e-09)
(4.61968e-09 3.4644e-11 0 4.20343e-09 0 4.41125e-09)
(4.68334e-09 3.1535e-11 0 4.27658e-09 0 4.47968e-09)
(4.74509e-09 2.84544e-11 0 4.34786e-09 0 4.54622e-09)
(4.80496e-09 2.54066e-11 0 4.41731e-09 0 4.6109e-09)
(4.86302e-09 2.23951e-11 0 4.48495e-09 0 4.67377e-09)
(4.91931e-09 1.94229e-11 0 4.55082e-09 0 4.73487e-09)
(4.97387e-09 1.64929e-11 0 4.61494e-09 0 4.79423e-09)
(5.02677e-09 1.36078e-11 0 4.67735e-09 0 4.8519e-09)
(5.07803e-09 1.07697e-11 0 4.73806e-09 0 4.90791e-09)
(5.12771e-09 7.98059e-12 0 4.79712e-09 0 4.96229e-09)
(5.17583e-09 5.24229e-12 0 4.85455e-09 0 5.01508e-09)
(5.22245e-09 2.55624e-12 0 4.91038e-09 0 5.06631e-09)
(5.2676e-09 -7.6279e-14 0 4.96462e-09 0 5.11602e-09)
(5.31132e-09 -2.65421e-12 0 5.01733e-09 0 5.16424e-09)
(5.35364e-09 -5.17667e-12 0 5.06851e-09 0 5.21101e-09)
(5.3946e-09 -7.64298e-12 0 5.1182e-09 0 5.25634e-09)
(5.43424e-09 -1.00526e-11 0 5.16643e-09 0 5.30029e-09)
(5.47259e-09 -1.24052e-11 0 5.21322e-09 0 5.34287e-09)
(5.50968e-09 -1.47004e-11 0 5.25861e-09 0 5.38411e-09)
(5.54555e-09 -1.69383e-11 0 5.30261e-09 0 5.42406e-09)
(5.58023e-09 -1.91189e-11 0 5.34527e-09 0 5.46273e-09)
(5.61375e-09 -2.12421e-11 0 5.3866e-09 0 5.50017e-09)
(5.64614e-09 -2.33085e-11 0 5.42664e-09 0 5.53639e-09)
(5.67744e-09 -2.53182e-11 0 5.46542e-09 0 5.57143e-09)
(5.70766e-09 -2.72717e-11 0 5.50295e-09 0 5.60532e-09)
(5.73686e-09 -2.91695e-11 0 5.53928e-09 0 5.63808e-09)
(5.76504e-09 -3.10123e-11 0 5.57442e-09 0 5.66975e-09)
(5.79224e-09 -3.28005e-11 0 5.60841e-09 0 5.70035e-09)
(5.81849e-09 -3.45351e-11 0 5.64127e-09 0 5.72991e-09)
(5.84381e-09 -3.62167e-11 0 5.67303e-09 0 5.75845e-09)
(5.86823e-09 -3.78461e-11 0 5.70372e-09 0 5.78601e-09)
(5.89179e-09 -3.94244e-11 0 5.73337e-09 0 5.81262e-09)
(5.91449e-09 -4.09521e-11 0 5.762e-09 0 5.83829e-09)
(5.93638e-09 -4.24307e-11 0 5.78964e-09 0 5.86306e-09)
(5.95747e-09 -4.38605e-11 0 5.81631e-09 0 5.88694e-09)
(5.97779e-09 -4.52432e-11 0 5.84205e-09 0 5.90997e-09)
(5.99736e-09 -4.65791e-11 0 5.86688e-09 0 5.93217e-09)
(6.01621e-09 -4.787e-11 0 5.89082e-09 0 5.95356e-09)
(6.03435e-09 -4.9116e-11 0 5.9139e-09 0 5.97418e-09)
(6.05181e-09 -5.03192e-11 0 5.93614e-09 0 5.99403e-09)
(6.06863e-09 -5.14797e-11 0 5.95758e-09 0 6.01316e-09)
(6.08478e-09 -5.25995e-11 0 5.97821e-09 0 6.03156e-09)
(6.10035e-09 -5.36787e-11 0 5.9981e-09 0 6.04929e-09)
(6.11529e-09 -5.47191e-11 0 6.01723e-09 0 6.06632e-09)
(6.12969e-09 -5.57215e-11 0 6.03566e-09 0 6.08274e-09)
(6.1435e-09 -5.66868e-11 0 6.05337e-09 0 6.0985e-09)
(6.1568e-09 -5.76165e-11 0 6.07044e-09 0 6.11368e-09)
(6.16955e-09 -5.85109e-11 0 6.08683e-09 0 6.12826e-09)
(6.18182e-09 -5.93721e-11 0 6.10261e-09 0 6.14228e-09)
(6.1936e-09 -6.01997e-11 0 6.11776e-09 0 6.15575e-09)
(6.20491e-09 -6.09963e-11 0 6.13233e-09 0 6.16869e-09)
(6.21577e-09 -6.17613e-11 0 6.14633e-09 0 6.18112e-09)
(6.22618e-09 -6.24972e-11 0 6.15977e-09 0 6.19305e-09)
(6.2362e-09 -6.32035e-11 0 6.1727e-09 0 6.20452e-09)
(6.24578e-09 -6.38824e-11 0 6.18508e-09 0 6.2155e-09)
(6.255e-09 -6.4534e-11 0 6.197e-09 0 6.22607e-09)
(6.26382e-09 -6.51594e-11 0 6.20841e-09 0 6.23619e-09)
(6.2723e-09 -6.57598e-11 0 6.21939e-09 0 6.24592e-09)
(6.2804e-09 -6.63354e-11 0 6.22988e-09 0 6.25522e-09)
(6.28819e-09 -6.68881e-11 0 6.23998e-09 0 6.26416e-09)
(6.29564e-09 -6.74172e-11 0 6.24964e-09 0 6.27271e-09)
(6.30279e-09 -6.79252e-11 0 6.25892e-09 0 6.28093e-09)
(6.30962e-09 -6.84113e-11 0 6.26779e-09 0 6.28878e-09)
(6.31619e-09 -6.88777e-11 0 6.27631e-09 0 6.29632e-09)
(6.32245e-09 -6.93238e-11 0 6.28445e-09 0 6.30353e-09)
(6.32846e-09 -6.97514e-11 0 6.29227e-09 0 6.31044e-09)
(6.33421e-09 -7.01603e-11 0 6.29974e-09 0 6.31705e-09)
(6.3397e-09 -7.05516e-11 0 6.30688e-09 0 6.32337e-09)
(6.34494e-09 -7.09247e-11 0 6.31369e-09 0 6.32939e-09)
(6.34988e-09 -7.1281e-11 0 6.32014e-09 0 6.33509e-09)
(6.35455e-09 -7.16121e-11 0 6.32618e-09 0 6.34044e-09)
(6.35907e-09 -7.19397e-11 0 6.33217e-09 0 6.34571e-09)
(6.36529e-09 -7.23207e-11 0 6.34014e-09 0 6.35276e-09)
(0.109539 -0.00359632 0 0.312641 0 0.109249)
(0.0457525 0.00762241 0 0.00365451 0 0.049601)
(0.0183226 -0.000130931 0 1e-15 0 0.0216819)
(0.0174265 -0.00667 0 0.0442298 0 0.019636)
(0.028207 -0.0150988 0 0.089621 0 0.0273569)
(0.0321934 -0.0153196 0 0.0658374 0 0.0291888)
(0.030013 -0.010287 0 0.029076 0 0.025755)
(0.0303086 -0.00624352 0 0.0108819 0 0.0238619)
(0.0341208 -0.00316988 0 0.00106383 0 0.025198)
(0.0411124 -0.00147256 0 1e-15 0 0.0293369)
(0.0469542 -0.00141416 0 1e-15 0 0.0333785)
(0.0459001 -0.00182493 0 1e-15 0 0.0327987)
(0.0404584 -0.00190752 0 1e-15 0 0.0288378)
(0.0332566 -0.000994345 0 1e-15 0 0.0237305)
(0.0302885 -0.000204519 0 1e-15 0 0.0217665)
(0.0270191 -0.000662442 0 0.00427674 0 0.0199108)
(0.0217892 -0.000790091 0 0.0102971 0 0.0177492)
(0.0193013 -0.00298658 0 0.00875854 0 0.0184467)
(0.0205635 -0.00698607 0 0.00386256 0 0.0235985)
(0.0257634 -0.0119819 0 0.00347056 0 0.0313082)
(0.0365237 -0.0153793 0 0.00144433 0 0.0382485)
(0.0411587 -0.0128325 0 1e-15 0 0.0367981)
(0.0380214 -0.00923283 0 1e-15 0 0.0306222)
(0.0286862 -0.007533 0 0.00738292 0 0.0219708)
(0.0196744 -0.00512694 0 0.0157447 0 0.0150422)
(0.0134054 -0.00294448 0 0.0144027 0 0.0108778)
(0.00993808 -0.00210222 0 0.0140746 0 0.00912429)
(0.00885913 -0.00231819 0 0.01695 0 0.00901244)
(0.00809295 -0.00270453 0 0.0192929 0 0.00914251)
(0.00740242 -0.00282278 0 0.0194151 0 0.00899437)
(0.00639377 -0.00268458 0 0.0177034 0 0.00830075)
(0.00493926 -0.00230686 0 0.014138 0 0.00674059)
(0.0030568 -0.00150369 0 0.00917033 0 0.00430861)
(0.00160543 -0.000667758 0 0.00542676 0 0.00227556)
(0.000832979 -0.000124008 0 0.00172655 0 0.00110598)
(0.000383731 3.46733e-05 0 8.81709e-06 0 0.000455511)
(0.000152227 2.08698e-05 0 1e-15 0 0.000163988)
(5.2821e-05 6.12639e-06 0 1.63543e-05 0 5.27011e-05)
(1.587e-05 1.76979e-06 0 5.98529e-06 0 1.48875e-05)
(4.18976e-06 4.65402e-07 0 1.68149e-06 0 3.74982e-06)
(9.83648e-07 1.11168e-07 0 4.27707e-07 0 8.50039e-07)
(2.07112e-07 2.37518e-08 0 9.80372e-08 0 1.74173e-07)
(4.07212e-08 4.64104e-09 0 2.10236e-08 0 3.34818e-08)
(9.36994e-09 9.56439e-10 0 5.33711e-09 0 7.56961e-09)
(4.46101e-09 3.37251e-10 0 2.75881e-09 0 3.60298e-09)
(4.09286e-09 2.59706e-10 0 2.60343e-09 0 3.33196e-09)
(4.39979e-09 2.56868e-10 0 2.84671e-09 0 3.61086e-09)
(4.97473e-09 2.66713e-10 0 3.29301e-09 0 4.12412e-09)
(5.54276e-09 2.76138e-10 0 3.747e-09 0 4.63584e-09)
(6.04917e-09 2.82081e-10 0 4.16522e-09 0 5.09838e-09)
(6.53516e-09 2.85402e-10 0 4.57814e-09 0 5.54804e-09)
(7.00501e-09 2.86456e-10 0 4.98778e-09 0 5.98803e-09)
(7.45872e-09 2.85515e-10 0 5.39293e-09 0 6.41775e-09)
(7.89622e-09 2.82823e-10 0 5.79242e-09 0 6.83656e-09)
(8.31758e-09 2.78607e-10 0 6.1853e-09 0 7.24401e-09)
(8.72306e-09 2.73074e-10 0 6.57084e-09 0 7.63985e-09)
(9.11307e-09 2.66408e-10 0 6.94855e-09 0 8.02406e-09)
(9.48812e-09 2.58775e-10 0 7.31807e-09 0 8.39668e-09)
(9.84878e-09 2.50321e-10 0 7.67924e-09 0 8.75793e-09)
(1.01956e-08 2.41175e-10 0 8.03196e-09 0 9.10806e-09)
(1.05293e-08 2.31448e-10 0 8.37625e-09 0 9.44737e-09)
(1.08504e-08 2.21242e-10 0 8.71207e-09 0 9.77611e-09)
(1.11593e-08 2.10644e-10 0 9.03946e-09 0 1.00946e-08)
(1.14567e-08 1.99733e-10 0 9.35854e-09 0 1.04031e-08)
(1.17432e-08 1.88573e-10 0 9.66956e-09 0 1.07022e-08)
(1.20193e-08 1.77221e-10 0 9.97265e-09 0 1.0992e-08)
(1.22853e-08 1.65728e-10 0 1.0268e-08 0 1.12729e-08)
(1.25419e-08 1.54141e-10 0 1.05556e-08 0 1.15453e-08)
(1.27894e-08 1.42499e-10 0 1.08358e-08 0 1.18094e-08)
(1.30281e-08 1.30835e-10 0 1.11088e-08 0 1.20655e-08)
(1.32586e-08 1.19181e-10 0 1.13746e-08 0 1.23138e-08)
(1.34811e-08 1.07563e-10 0 1.16335e-08 0 1.25547e-08)
(1.36959e-08 9.60055e-11 0 1.18856e-08 0 1.27884e-08)
(1.39034e-08 8.45291e-11 0 1.2131e-08 0 1.3015e-08)
(1.41039e-08 7.31517e-11 0 1.237e-08 0 1.32349e-08)
(1.42976e-08 6.18896e-11 0 1.26026e-08 0 1.34482e-08)
(1.44848e-08 5.07587e-11 0 1.2829e-08 0 1.36551e-08)
(1.46657e-08 3.97708e-11 0 1.30493e-08 0 1.38559e-08)
(1.48406e-08 2.89327e-11 0 1.32637e-08 0 1.40507e-08)
(1.50096e-08 1.82562e-11 0 1.34723e-08 0 1.42396e-08)
(1.5173e-08 7.7521e-12 0 1.36751e-08 0 1.44228e-08)
(1.53309e-08 -2.57308e-12 0 1.38724e-08 0 1.46006e-08)
(1.54836e-08 -1.27137e-11 0 1.40642e-08 0 1.47729e-08)
(1.56313e-08 -2.26643e-11 0 1.42507e-08 0 1.49401e-08)
(1.57739e-08 -3.24206e-11 0 1.44319e-08 0 1.51021e-08)
(1.59119e-08 -4.19785e-11 0 1.4608e-08 0 1.52592e-08)
(1.60452e-08 -5.13352e-11 0 1.4779e-08 0 1.54114e-08)
(1.6174e-08 -6.04881e-11 0 1.49451e-08 0 1.5559e-08)
(1.62985e-08 -6.94356e-11 0 1.51063e-08 0 1.57019e-08)
(1.64188e-08 -7.81761e-11 0 1.52628e-08 0 1.58404e-08)
(1.6535e-08 -8.67091e-11 0 1.54147e-08 0 1.59745e-08)
(1.66473e-08 -9.50341e-11 0 1.5562e-08 0 1.61043e-08)
(1.67557e-08 -1.03151e-10 0 1.57049e-08 0 1.623e-08)
(1.68604e-08 -1.11061e-10 0 1.58434e-08 0 1.63517e-08)
(1.69615e-08 -1.18765e-10 0 1.59776e-08 0 1.64694e-08)
(1.70592e-08 -1.26263e-10 0 1.61077e-08 0 1.65833e-08)
(1.71534e-08 -1.33558e-10 0 1.62337e-08 0 1.66935e-08)
(1.72443e-08 -1.4065e-10 0 1.63558e-08 0 1.68e-08)
(1.73321e-08 -1.47543e-10 0 1.64739e-08 0 1.6903e-08)
(1.74168e-08 -1.54238e-10 0 1.65882e-08 0 1.70026e-08)
(1.74985e-08 -1.60738e-10 0 1.66989e-08 0 1.70987e-08)
(1.75772e-08 -1.67046e-10 0 1.68059e-08 0 1.71917e-08)
(1.76532e-08 -1.73164e-10 0 1.69094e-08 0 1.72814e-08)
(1.77264e-08 -1.79095e-10 0 1.70094e-08 0 1.73681e-08)
(1.7797e-08 -1.84843e-10 0 1.71061e-08 0 1.74517e-08)
(1.78651e-08 -1.90411e-10 0 1.71995e-08 0 1.75325e-08)
(1.79306e-08 -1.95802e-10 0 1.72897e-08 0 1.76104e-08)