/*--------------------------------*- C++ -*----------------------------------*\
| =========                 |                                                 |
| \\      /  F ield         | OpenFOAM: The Open Source CFD Toolbox           |
|  \\    /   O peration     | Version:  v1912                                 |
|   \\  /    A nd           | Website:  www.openfoam.com                      |
|    \\/     M anipulation  |                                                 |
\*---------------------------------------------------------------------------*/
FoamFile
{
    version     2.0;
    format      ascii;
    class       surfaceScalarField;
    location    "60";
    object      alphaPhi0.water;
}
// * * * * * * * * * * * * * * * * * * * * * * * * * * * * * * * * * * * * * //

dimensions      [0 3 -1 0 0 0 0];
oriented        oriented;


internalField   nonuniform List<scalar> 
28285
(
0.128826
0.00803596
0.127937
0.000888312
0.128816
-0.000879014
0.128887
-7.03348e-05
0.127063
0.00182386
0.122803
0.00426018
0.115903
0.00689955
0.106414
0.0094893
0.0945551
0.0118586
0.0806827
0.0138724
0.0652708
0.0154119
0.048893
0.0163777
0.032101
0.0167921
0.0135023
0.0185986
-0.00556614
0.0190685
-0.0214397
0.0158735
-0.035692
0.0142524
-0.0479598
0.0122678
-0.0580666
0.0101068
-0.0659428
0.0078762
-0.0716672
0.00572438
-0.0755151
0.00384791
-0.0779778
0.00246275
-0.0791015
0.00112371
-0.0795775
0.00047593
-0.0796748
9.72936e-05
-0.0794664
-0.000208351
-0.0789371
-0.000529302
-0.0780947
-0.000842432
-0.0769921
-0.00110263
-0.0755784
-0.0014137
-0.0739527
-0.00162565
-0.0718624
-0.00209026
-0.0691309
-0.00273151
-0.0656189
-0.00351205
-0.0612667
-0.00435222
-0.056116
-0.00515062
-0.0503085
-0.0058075
-0.0440706
-0.00623795
-0.0376947
-0.00637587
-0.0314624
-0.0062323
-0.0247232
-0.00673925
-0.0173451
-0.00737805
-0.00987561
-0.00746952
-0.00237927
-0.00749635
0.00516664
-0.0075459
0.0129964
-0.00782975
0.0212762
-0.0082798
0.0300239
-0.00874768
0.0387555
-0.00873166
0.0469465
-0.00819096
0.055883
-0.00893648
0.0652919
-0.00940895
0.0746702
-0.00937825
0.0835153
-0.0088451
0.0913371
-0.00782188
0.097689
-0.00635189
0.102203
-0.00451441
0.104623
-0.00241959
0.104798
-0.000174551
0.102768
0.00202992
0.0986343
0.00413337
0.0926225
0.00601179
0.0850283
0.0075942
0.0761891
0.00883922
0.0664566
0.00973253
0.0561863
0.0102702
0.04577
0.0104163
0.0354465
0.0103235
0.0237575
0.011689
0.0122155
0.011542
0.000752689
0.0114628
-0.00941921
0.0101719
-0.0193527
0.00993346
-0.0288883
0.00953563
-0.0381182
0.00922984
-0.0470345
0.00891634
-0.0556481
0.00861362
-0.0639538
0.00830568
-0.071926
0.00797221
-0.0795074
0.00758139
-0.0865984
0.00709096
-0.0930477
0.00644935
-0.0986468
0.00559914
-0.10313
0.00448353
-0.106185
0.00305455
-0.107485
0.00129977
-0.106781
-0.00070386
-0.103725
-0.00305554
-0.09819
-0.00553532
-0.0901477
-0.00804232
-0.0797264
-0.0104212
-0.0672201
-0.0125063
-0.0530874
-0.0141327
-0.0379158
-0.0151716
-0.0224959
-0.0154198
-0.00577551
-0.0167204
0.00991757
-0.0156931
0.0242324
-0.0143148
0.0372261
-0.0129937
0.0487499
-0.0115238
0.0587653
-0.0100154
0.0673324
-0.00856713
0.0745479
-0.0072155
0.0805127
-0.00596477
0.0852872
-0.00477457
0.0888674
-0.00358014
0.0911741
-0.00230677
0.0920601
-0.000885949
0.0913297
0.000730434
0.088813
0.00251667
0.0843429
0.00447005
0.0778543
0.00648861
0.0693959
0.00845847
0.0591647
0.0102311
0.0474584
0.0117063
0.0348964
0.012562
0.0214547
0.0134417
0.00769286
0.0137618
-0.00579518
0.013488
-0.018032
0.0122369
-0.0291094
0.0110773
-0.0387317
0.00962232
-0.0467717
0.00804005
-0.0531862
0.0064145
-0.0579837
0.00479753
-0.0612231
0.00323938
-0.0629828
0.00175972
-0.0632675
0.000284646
-0.0621949
-0.00107258
-0.0597486
-0.00244629
-0.0559515
-0.0037971
-0.0508383
-0.00511319
-0.044467
-0.00637129
-0.0369609
-0.00750616
-0.0284596
-0.0085013
-0.0193378
-0.00912178
-0.00947908
-0.00985872
0.000678047
-0.0101571
0.0104072
-0.0097292
0.0197659
-0.00935863
0.0283797
-0.00861387
0.036052
-0.0076723
0.0426077
-0.00655568
0.0479346
-0.00532688
0.0519705
-0.0040359
0.0546872
-0.00271668
0.0560814
-0.00139418
0.0561747
-9.33759e-05
0.0550102
0.00116457
0.0525624
0.00244776
0.0488507
0.00371174
0.0438946
0.00495604
0.0377289
0.00616577
0.0303957
0.00733313
0.022034
0.00836168
0.0127072
0.00932688
0.00256706
0.0101401
-0.00809326
0.0106603
-0.0189491
0.0108558
-0.0296515
0.0107024
-0.0398587
0.0102072
-0.0491492
0.00929048
0.00807666
0.129241
0.00609195
0.130191
-6.1694e-05
0.131157
-0.00184511
0.131108
-2.15588e-05
0.129171
0.00376054
0.12478
0.00865108
0.117713
0.0139666
0.108019
0.0191835
0.0959149
0.0239628
0.0817474
0.0280399
0.0659639
0.0311954
0.0490306
0.033311
0.031089
0.0347337
0.0128234
0.0368642
-0.00556813
0.03746
-0.022016
0.0323214
-0.036568
0.0288043
-0.0490786
0.0247784
-0.059351
0.0203793
-0.067301
0.0158262
-0.0729794
0.0114027
-0.0767576
0.00762615
-0.0789234
0.00462852
-0.0796988
0.00189908
-0.0797846
0.000561704
-0.0794894
-0.000197836
-0.0789725
-0.000725277
-0.0783546
-0.00114716
-0.077699
-0.00149807
-0.0768929
-0.00190871
-0.0759735
-0.00233309
-0.0746374
-0.00296176
-0.072755
-0.0039727
-0.0701298
-0.00535666
-0.0666198
-0.00702212
-0.0621698
-0.0088022
-0.0568263
-0.0104941
-0.0507289
-0.0119049
-0.0440766
-0.0128902
-0.0370654
-0.013387
-0.0298159
-0.0134818
-0.0227906
-0.0137646
-0.0160782
-0.0140905
-0.00912508
-0.0144227
-0.00197085
-0.0146506
0.00501814
-0.0145349
0.0123872
-0.0151988
0.0201067
-0.0159993
0.0278923
-0.0165333
0.0362665
-0.0171058
0.0457664
-0.0176909
0.0556424
-0.0188125
0.0656903
-0.0194568
0.0755773
-0.0192653
0.0848495
-0.0181173
0.0930178
-0.0159902
0.0996225
-0.0129566
0.104283
-0.00917529
0.106736
-0.00487198
0.106817
-0.000255721
0.104603
0.00424431
0.100196
0.00853956
0.0938481
0.01236
0.0858808
0.0155615
0.07665
0.01807
0.0665122
0.0198704
0.0557893
0.0209931
0.0447104
0.0214952
0.033416
0.0216179
0.0225633
0.0225418
0.0113372
0.0227681
0.000237906
0.022562
-0.00998938
0.0203992
-0.0199449
0.019889
-0.0294952
0.0190859
-0.0387067
0.0184413
-0.0475895
0.0177991
-0.0561638
0.017188
-0.0644407
0.0165826
-0.0724137
0.0159452
-0.0800437
0.0152115
-0.0872436
0.0142909
-0.0938637
0.0130694
-0.099684
0.0114195
-0.104417
0.00921628
-0.107725
0.00636265
-0.10926
0.00283529
-0.108652
-0.00131231
-0.10564
-0.00606782
-0.100021
-0.0111536
-0.0917571
-0.0163067
-0.0809837
-0.0211946
-0.0680124
-0.0254776
-0.0533185
-0.0288266
-0.0374527
-0.0310374
-0.0211394
-0.0317332
-0.00457138
-0.0332885
0.0111583
-0.0314227
0.0256996
-0.0288561
0.0387618
-0.026056
0.0502369
-0.0229989
0.0601172
-0.0198956
0.0685069
-0.0169569
0.0755519
-0.0142605
0.0813955
-0.0118083
0.0861261
-0.00950525
0.089746
-0.00719997
0.0921603
-0.0047211
0.0931876
-0.00191325
0.0925808
0.00133722
0.0901365
0.00496099
0.0856491
0.00895746
0.0790307
0.013107
0.0703263
0.0171628
0.0597363
0.0208212
0.0475935
0.0238491
0.0343289
0.0258266
0.0205486
0.027222
0.0065536
0.0277569
-0.00697646
0.0270181
-0.0194437
0.0247041
-0.0306013
0.0222349
-0.0402129
0.0192339
-0.0481656
0.0159927
-0.0544472
0.0126961
-0.0590958
0.00944612
-0.062193
0.00633657
-0.0638318
0.00339856
-0.0640561
0.00050899
-0.0628985
-0.00223022
-0.0603848
-0.00495995
-0.05651
-0.00767197
-0.0512886
-0.0103345
-0.0447687
-0.0128912
-0.0370646
-0.0152102
-0.0283309
-0.017235
-0.0188287
-0.018624
-0.00881757
-0.0198698
0.00141075
-0.0203854
0.011388
-0.0197065
0.0208802
-0.0188509
0.0295766
-0.0173103
0.0372662
-0.0153619
0.0437854
-0.0130749
0.0490339
-0.0105754
0.0529641
-0.00796609
0.0555652
-0.00531782
0.0568424
-0.00267132
0.056814
-6.49404e-05
0.0555358
0.00244269
0.0529722
0.00501134
0.0491307
0.00755324
0.0440203
0.0100665
0.0376638
0.0125222
0.0301084
0.0148885
0.0214416
0.0170285
0.011853
0.0189155
0.00151547
0.0204776
-0.00930368
0.0214795
-0.0202971
0.0218493
-0.0310638
0.0214691
-0.0412316
0.020375
-0.0503993
0.0184581
0.0159353
0.128187
-0.000587304
0.13179
-0.00366497
0.133513
-0.00356866
0.133605
-0.000112798
0.131663
0.00570222
0.127148
0.0131656
0.119857
0.021258
0.109872
0.0291684
0.0974195
0.0364156
0.0828409
0.0426186
0.0665874
0.0474489
0.0492211
0.0506773
0.0310151
0.0529397
0.0122424
0.0556369
-0.00667476
0.0563772
-0.0228352
0.0484819
-0.0376424
0.0436116
-0.0503791
0.037515
-0.0607891
0.0307893
-0.0687897
0.0238268
-0.0744933
0.0171064
-0.078028
0.0111608
-0.0797046
0.00630512
-0.0802971
0.00249163
-0.0800634
0.000327968
-0.0795491
-0.00071217
-0.0788981
-0.00137627
-0.0781812
-0.00186399
-0.0775128
-0.00216648
-0.0769366
-0.00248491
-0.0762229
-0.00304682
-0.0751192
-0.00406545
-0.073389
-0.00570287
-0.0708218
-0.00792392
-0.0672789
-0.010565
-0.0627186
-0.0133625
-0.0572028
-0.0160099
-0.0508849
-0.0182228
-0.0439753
-0.0197998
-0.0366864
-0.0206759
-0.0291905
-0.0209777
-0.0218757
-0.0210794
-0.0148954
-0.0210707
-0.00823969
-0.0210784
-0.00174319
-0.0211471
0.00502066
-0.0212987
0.0120373
-0.0222154
0.0191955
-0.0231575
0.0270934
-0.0244312
0.0359213
-0.0259338
0.0456738
-0.0274434
0.0557923
-0.0289309
0.0660511
-0.0297156
0.0761078
-0.0293219
0.0855076
-0.0275171
0.0937607
-0.0242433
0.100406
-0.0196018
0.105063
-0.0138319
0.107467
-0.00727688
0.107495
-0.000283348
0.105174
0.00656566
0.100648
0.0130655
0.0941726
0.0188353
0.0860758
0.0236583
0.0767169
0.0274289
0.0664541
0.0301333
0.0556079
0.0318393
0.0444158
0.0326873
0.0330759
0.0329578
0.0222417
0.033376
0.0110705
0.0339393
2.70074e-05
0.0336055
-0.0101908
0.030617
-0.0201477
0.0298459
-0.0297111
0.0286494
-0.0389313
0.0276615
-0.0478216
0.0266895
-0.0564039
0.0257702
-0.0646912
0.0248699
-0.0726786
0.0239326
-0.0803274
0.0228603
-0.0875488
0.0215123
-0.0941899
0.0197105
-0.100027
0.0172564
-0.104767
0.0139566
-0.108066
0.00966149
-0.109563
0.00433204
-0.108946
-0.00192883
-0.105886
-0.00912848
-0.100208
-0.0168309
-0.0918792
-0.0246357
-0.0810367
-0.0320371
-0.0679936
-0.0385207
-0.0532234
-0.0435968
-0.0372833
-0.0469775
-0.0208741
-0.0481423
-0.00438936
-0.0497732
0.0113628
-0.0471749
0.0259123
-0.0434056
0.0389898
-0.0391335
0.0504801
-0.0344892
0.0603726
-0.0297881
0.0687694
-0.0253538
0.0758156
-0.0213066
0.0816533
-0.017646
0.0863699
-0.0142219
0.0899663
-0.0107963
0.0923463
-0.00710111
0.0933285
-0.00289551
0.0926742
0.00199154
0.0901748
0.00746046
0.0856344
0.0134978
0.0789697
0.0197717
0.0702288
0.0259038
0.0596126
0.0314374
0.047458
0.0360037
0.0341991
0.0390854
0.0204328
0.0409883
0.00646269
0.0417269
-0.00706563
0.0405464
-0.0195289
0.0371674
-0.0306882
0.0333941
-0.0403104
0.0288561
-0.0482744
0.0239567
-0.0545634
0.0189851
-0.0592123
0.014095
-0.062298
0.00942228
-0.0639202
0.00502076
-0.0640945
0.000683352
-0.0629158
-0.00340898
-0.0603652
-0.00751049
-0.056454
-0.0115832
-0.051202
-0.0155866
-0.0446606
-0.0194326
-0.0369446
-0.0229262
-0.0282107
-0.0259689
-0.018729
-0.0281057
-0.00872349
-0.0298754
0.00149
-0.0305989
0.011446
-0.0296625
0.0209195
-0.0283243
0.0296021
-0.0259929
0.0372806
-0.0230404
0.0437915
-0.0195857
0.0490322
-0.0158161
0.0529532
-0.0118871
0.0555371
-0.00790174
0.0567831
-0.00391735
0.0567575
-3.93651e-05
0.0554424
0.00375785
0.0528497
0.00760401
0.0489875
0.0114154
0.0438707
0.0151833
0.0375288
0.0188642
0.0300096
0.0224077
0.021423
0.0256151
0.0119036
0.0284349
0.00161609
0.0307651
-0.00914538
0.0322409
-0.0200923
0.0327962
-0.0308421
0.032219
-0.0410307
0.0305636
-0.0502516
0.027679
0.0238671
0.127467
-0.010008
0.133222
-0.00942002
0.135966
-0.00631246
0.136415
-0.000562242
0.13484
0.00727749
0.13024
0.0177663
0.122712
0.0287851
0.112386
0.0394952
0.0995019
0.0492993
0.0843971
0.0577233
0.0674508
0.0643952
0.0490035
0.0691246
0.0297667
0.0721765
0.01116
0.0742436
-0.00697032
0.0745075
-0.0240046
0.0655162
-0.039168
0.058775
-0.0521317
0.0504786
-0.0626362
0.0412938
-0.0705972
0.0317878
-0.0761061
0.0226153
-0.0793773
0.014432
-0.0807581
0.00768595
-0.0808678
0.00260127
-0.0804418
-9.79663e-05
-0.0797209
-0.00143312
-0.0788408
-0.00225638
-0.078062
-0.00264275
-0.0774852
-0.0027433
-0.0770546
-0.00291547
-0.0765513
-0.00355011
-0.0756592
-0.00495764
-0.0740906
-0.00727142
-0.0716087
-0.0104058
-0.068065
-0.0141086
-0.0634193
-0.0180082
-0.0577437
-0.0216855
-0.0512089
-0.0247577
-0.0440518
-0.0269569
-0.0365353
-0.0281925
-0.028927
-0.028586
-0.0215424
-0.028464
-0.014551
-0.0280621
-0.00798607
-0.0276433
-0.00167751
-0.0274556
0.00474271
-0.027719
0.011282
-0.0287547
0.0184722
-0.0303478
0.0265318
-0.0324907
0.0355261
-0.0349281
0.0453905
-0.0373078
0.0557841
-0.0393245
0.0663759
-0.0403074
0.076765
-0.0397111
0.0864697
-0.0372218
0.0949797
-0.0327533
0.101817
-0.0264387
0.106586
-0.0186016
0.109018
-0.00970817
0.109
-0.000265976
0.106547
0.00901846
0.101831
0.0177817
0.0951229
0.0255435
0.0867685
0.0320127
0.0771467
0.0370506
0.0666281
0.0406519
0.0555406
0.0429268
0.0441446
0.0440833
0.0326531
0.0444493
0.0215428
0.0444863
0.0105602
0.044922
-0.000359665
0.0445253
-0.0105762
0.0408335
-0.0205322
0.0398018
-0.0301055
0.0382227
-0.0393214
0.0368774
-0.048202
0.0355701
-0.0567744
0.0343426
-0.0650615
0.0331569
-0.0730688
0.0319399
-0.0807682
0.0305597
-0.0880782
0.0288222
-0.0948478
0.0264801
-0.100848
0.0232564
-0.105772
0.0188811
-0.109257
0.013146
-0.110916
0.00599168
-0.110415
-0.00242976
-0.107403
-0.0121407
-0.101684
-0.0225503
-0.0932113
-0.0331081
-0.0821253
-0.0431232
-0.0687498
-0.0518962
-0.0535724
-0.0587742
-0.0371861
-0.0633638
-0.0201534
-0.065175
-0.00364492
-0.0662817
0.012274
-0.0630938
0.0269851
-0.0581167
0.0401365
-0.0522848
0.051619
-0.0459717
0.0614413
-0.0396104
0.0697344
-0.0336469
0.0766776
-0.0282499
0.082443
-0.0234114
0.0871382
-0.0189171
0.0907698
-0.014428
0.0932329
-0.00956422
0.0943236
-0.00398617
0.0937707
0.00254444
0.0913347
0.0098965
0.0867939
0.0180385
0.0800445
0.0265211
0.0711285
0.0348198
0.060249
0.0423169
0.0477662
0.0484865
0.0341207
0.0527309
0.0199796
0.0551295
0.00575698
0.0559495
-0.00794063
0.054244
-0.0206018
0.0498286
-0.0318641
0.0446565
-0.0415228
0.0385148
-0.0494617
0.0318957
-0.0556835
0.0252069
-0.0602444
0.0186559
-0.06324
0.0124179
-0.0647775
0.00655824
-0.0649097
0.000815567
-0.0636694
-0.00464927
-0.0610705
-0.0101094
-0.0571004
-0.0155532
-0.0517644
-0.0209226
-0.0451048
-0.0260922
-0.0372273
-0.0308038
-0.0283022
-0.034894
-0.0185633
-0.0378446
-0.00836404
-0.0400747
0.00200846
-0.0409714
0.0121705
-0.0398246
0.0217919
-0.0379457
0.0305831
-0.0347841
0.0383183
-0.0307756
0.0448396
-0.026107
0.0500526
-0.0210291
0.0539179
-0.0157524
0.0564322
-0.010416
0.0576145
-0.00509971
0.0574795
9.56366e-05
0.0560985
0.00513886
0.0534239
0.0102787
0.0494694
0.0153699
0.0442424
0.0204103
0.0377635
0.0253431
0.0300817
0.0300895
0.0212867
0.0344101
0.0115473
0.0381743
0.00107209
0.0412403
-0.00986933
0.0431824
-0.020983
0.0439098
-0.0318693
0.0431053
-0.0421336
0.0408279
-0.0513758
0.0369212
0.0317472
0.12745
-0.0207414
0.134593
-0.0165629
0.137824
-0.0095432
0.139199
-0.00193704
0.138017
0.00845879
0.133306
0.0224772
0.125471
0.0366202
0.11473
0.0502364
0.101358
0.0626719
0.085705
0.0733759
0.0681861
0.0819142
0.0492787
0.0880319
0.0296833
0.0917719
0.0105506
0.0933763
-0.00771645
0.0927746
-0.0251884
0.0829881
-0.0407029
0.0742895
-0.0539042
0.0636799
-0.0645188
0.0519084
-0.0724591
0.039728
-0.0778201
0.0279763
-0.0808359
0.0174478
-0.0818844
0.00873446
-0.0815038
0.00222067
-0.0807291
-0.000872654
-0.0799612
-0.00220103
-0.0789906
-0.00322697
-0.0781316
-0.00350179
-0.0775551
-0.0033198
-0.0772338
-0.00323678
-0.0769125
-0.00387142
-0.0762215
-0.00564863
-0.0748147
-0.00867826
-0.0724226
-0.0127979
-0.0688818
-0.0176494
-0.0641514
-0.0227386
-0.0583158
-0.0275211
-0.0515687
-0.0315047
-0.0441817
-0.0343439
-0.0364635
-0.0359107
-0.0287282
-0.0363213
-0.0212856
-0.0359066
-0.0143093
-0.0350384
-0.00781043
-0.0341422
-0.00162337
-0.0336427
0.00456725
-0.0339096
0.0110176
-0.035205
0.0181403
-0.0374704
0.0261714
-0.0405218
0.0352149
-0.0439717
0.045205
-0.0472979
0.0558297
-0.0499492
0.0667192
-0.0511969
0.0774263
-0.0504182
0.0874343
-0.0472298
0.0962051
-0.0415241
0.103238
-0.0334716
0.108125
-0.0234883
0.110592
-0.012175
0.110507
-0.000181049
0.10793
0.0115956
0.103023
0.0226884
0.0960827
0.0324836
0.0874769
0.0406185
0.0776029
0.0469247
0.0668469
0.0514078
0.0555503
0.0542234
0.0439884
0.0556452
0.0323867
0.056051
0.0210118
0.0558612
0.0101518
0.055782
-0.000631414
0.0553085
-0.0109268
0.0511289
-0.0208857
0.0497608
-0.0304679
0.0478048
-0.0396831
0.0460925
-0.0485597
0.0444468
-0.0571301
0.042913
-0.0654244
0.0414512
-0.0734569
0.0399724
-0.0812072
0.0383099
-0.0885997
0.0362148
-0.0954848
0.0333653
-0.101629
0.0294004
-0.106715
0.0239668
-0.110358
0.0167892
-0.112141
0.00777481
-0.111759
-0.00281125
-0.108788
-0.0151119
-0.10303
-0.0283082
-0.0944327
-0.0417059
-0.0831349
-0.0544209
-0.069473
-0.0655581
-0.0539548
-0.0742925
-0.0372103
-0.0801083
-0.0198683
-0.0825169
-0.00306137
-0.0830887
0.0130404
-0.0791955
0.0278939
-0.0729702
0.0411148
-0.0655058
0.0525992
-0.0574561
0.0623726
-0.0493838
0.0705888
-0.0418631
0.0774539
-0.035115
0.083163
-0.0291205
0.0878391
-0.0235932
0.091493
-0.0180818
0.0940122
-0.0120834
0.0951761
-0.00515003
0.094697
0.00302351
0.0923004
0.0122931
0.0877541
0.0225848
0.0809376
0.0333376
0.0718875
0.04387
0.0608107
0.0533936
0.0480833
0.0612139
0.0341677
0.0666465
0.0197627
0.0695346
0.00530893
0.0704033
-0.00856962
0.0681226
-0.0213852
0.0626441
-0.0327408
0.0560121
-0.0424433
0.0482173
-0.0503804
0.0398328
-0.0565659
0.0313923
-0.0610711
0.023161
-0.0640032
0.0153501
-0.0654816
0.00803664
-0.0655546
0.00088852
-0.0642781
-0.0059257
-0.0616386
-0.012749
-0.0576235
-0.0195684
-0.0522289
-0.0263171
-0.0454914
-0.0328297
-0.0375115
-0.0387837
-0.0284634
-0.0439421
-0.0185819
-0.047726
-0.00824091
-0.0504156
0.00227339
-0.0514857
0.0125669
-0.0501181
0.0222948
-0.0476737
0.0311663
-0.0436556
0.0389507
-0.0385599
0.0454918
-0.0326481
0.0507
-0.0262373
0.0545417
-0.0195941
0.05702
-0.0128943
0.0581509
-0.00623062
0.0579948
0.000251707
0.0565622
0.0065715
0.0538486
0.0129922
0.0498571
0.0193614
0.0445935
0.0256739
0.0380749
0.0318617
0.0303459
0.0378186
0.0215027
0.0432532
0.0117008
0.0479762
0.00112852
0.0518126
-0.00992769
0.0542386
-0.0211672
0.0551494
-0.0321953
0.0541333
-0.0426058
0.0512384
-0.051986
0.0463014
0.0397421
0.12804
-0.0319075
0.135628
-0.0241508
0.139746
-0.0136612
0.141884
-0.00407453
0.141082
0.00926088
0.136358
0.0272008
0.128306
0.0446719
0.117219
0.0613237
0.103409
0.0764822
0.0872525
0.0895321
0.0691997
0.0999671
0.0497924
0.107439
0.0297587
0.111806
0.0100715
0.113064
-0.00860244
0.111449
-0.0265244
0.10091
-0.0424176
0.0901827
-0.0558776
0.0771399
-0.0666113
0.0626421
-0.074523
0.0476397
-0.0797104
0.0331637
-0.0824298
0.0201673
-0.0830393
0.00934395
-0.082304
0.00148535
-0.0812579
-0.00191873
-0.0800899
-0.00336903
-0.0791546
-0.0041623
-0.0782368
-0.00441957
-0.0776626
-0.00389394
-0.0774508
-0.00344859
-0.0773215
-0.0040008
-0.0768443
-0.00612574
-0.0756163
-0.0099063
-0.0733308
-0.0150834
-0.0698036
-0.0211766
-0.0649901
-0.0275521
-0.0589871
-0.0335241
-0.0520155
-0.0384763
-0.0443858
-0.0419737
-0.0364529
-0.0438435
-0.0285716
-0.0442026
-0.021054
-0.0434242
-0.0140768
-0.0420156
-0.00764648
-0.0405726
-0.00158755
-0.0397016
0.00442166
-0.0399188
0.0107369
-0.0415203
0.0177467
-0.0444802
0.0257355
-0.0485106
0.0348259
-0.0530621
0.0449519
-0.0574239
0.0558299
-0.0608272
0.0670595
-0.0624265
0.0781469
-0.0615056
0.0885319
-0.0576147
0.0976378
-0.05063
0.104932
-0.0407664
0.109985
-0.0285404
0.11251
-0.0146999
0.11238
-5.14943e-05
0.109658
0.0143176
0.104527
0.0278189
0.0973112
0.0396999
0.0884034
0.0495262
0.0782266
0.0571015
0.0671882
0.0624461
0.0556471
0.0657646
0.0438943
0.067398
0.0321647
0.0677806
0.0206616
0.0673643
0.00973349
0.06671
-0.000939231
0.0659812
-0.011324
0.0615137
-0.0212914
0.0597282
-0.0308802
0.0573936
-0.0400911
0.0553035
-0.0489592
0.0533149
-0.0575231
0.0514769
-0.065823
0.0497512
-0.073885
0.0480344
-0.0817007
0.0461256
-0.0892041
0.0437182
-0.0962498
0.040411
-0.1026
0.0357503
-0.107923
0.0292902
-0.111809
0.0206754
-0.113795
0.00976057
-0.113607
-0.00299945
-0.110728
-0.0179904
-0.10495
-0.0340864
-0.0962048
-0.0504512
-0.0846313
-0.0659944
-0.070581
-0.0796084
-0.0545919
-0.0902816
-0.0373446
-0.0973556
-0.0195507
-0.100311
-0.00229248
-0.100347
0.0140832
-0.0955712
0.0291471
-0.0880342
0.0424679
-0.0788266
0.0539483
-0.0689365
0.0636415
-0.059077
0.0717369
-0.0499585
0.0784829
-0.041861
0.084111
-0.0347486
0.0887692
-0.0282514
0.0924758
-0.0217884
0.0951081
-0.0147157
0.0964192
-0.00646119
0.0960882
0.00335455
0.0937899
0.0145913
0.0892699
0.0271048
0.0823778
0.0402297
0.0731402
0.0531076
0.06177
0.0647639
0.0486657
0.0743181
0.0343311
0.0809811
0.0194799
0.0843858
0.00466509
0.0852181
-0.00950616
0.0822938
-0.022571
0.0757089
-0.0340798
0.067521
-0.0438521
0.0579895
-0.0517863
0.047767
-0.0579156
0.0375216
-0.0623377
0.0275832
-0.0651841
0.0181965
-0.0665884
0.00944094
-0.0665832
0.0008833
-0.0652749
-0.007234
-0.0626008
-0.0154231
-0.0585369
-0.0236323
-0.0530641
-0.0317898
-0.0462062
-0.0396876
-0.0380551
-0.0469348
-0.0287922
-0.053205
-0.0186593
-0.0578589
-0.00804779
-0.0610272
0.00271256
-0.0622461
0.0132534
-0.0606589
0.023183
-0.0576033
0.0322091
-0.0526816
0.0400912
-0.0464421
0.0466764
-0.0392333
0.0518832
-0.0314441
0.0556899
-0.0234008
0.0581081
-0.0153125
0.0591723
-0.00729477
0.0589564
0.000467613
0.0574605
0.00806733
0.0546759
0.0157769
0.0506086
0.0234287
0.045255
0.0310275
0.0386231
0.0384936
0.0307527
0.045689
0.0217275
0.0522785
0.0117154
0.0579883
0.000930119
0.0625979
-0.0103586
0.0655273
-0.0218376
0.0666283
-0.0331001
0.0653958
-0.0437101
0.0618483
-0.0532438
0.0558351
0.047822
0.128983
-0.0433265
0.137112
-0.0322799
0.142417
-0.0189663
0.144846
-0.00650377
0.144272
0.00983521
0.139556
0.0319167
0.13132
0.0529077
0.119908
0.0727364
0.105667
0.0907224
0.0890067
0.106193
0.0704103
0.118564
0.0504652
0.127384
0.029907
0.132364
0.00962693
0.133344
-0.00963351
0.130709
-0.0280505
0.119327
-0.0443603
0.106493
-0.0581038
0.0908835
-0.0689641
0.0735023
-0.0768353
0.0555109
-0.0818206
0.0381491
-0.0841998
0.0225464
-0.084309
0.00945317
-0.0832155
0.000391826
-0.0818571
-0.00327709
-0.0803459
-0.00488022
-0.0791908
-0.00531738
-0.0783211
-0.00528931
-0.0777673
-0.00444774
-0.077686
-0.00352986
-0.0777746
-0.00391226
-0.0775389
-0.00636145
-0.076515
-0.0109302
-0.0743549
-0.0172434
-0.0708497
-0.0246818
-0.0659486
-0.0324532
-0.0597623
-0.0397105
-0.0525426
-0.045696
-0.0446434
-0.0498728
-0.0364678
-0.0520191
-0.0284103
-0.0522601
-0.0207987
-0.0510358
-0.0138169
-0.0489973
-0.00746552
-0.046924
-0.00155433
-0.0456128
0.00426648
-0.0457396
0.0104043
-0.0476581
0.0172799
-0.0513558
0.0252115
-0.0564421
0.0343479
-0.0621986
0.044634
-0.06771
0.0557955
-0.0719887
0.0674066
-0.0740377
0.0789286
-0.0730276
0.0897518
-0.0684379
0.0992528
-0.060131
0.10686
-0.0483735
0.112113
-0.033793
0.114707
-0.0172939
0.114543
0.000112305
0.11165
0.01721
0.106263
0.033206
0.0987305
0.0472327
0.0894779
0.0587788
0.0789582
0.0676212
0.0676047
0.0737997
0.0557954
0.0775739
0.0438356
0.0793578
0.0319651
0.0796511
0.0203749
0.0789545
0.0093243
0.0777606
-0.00130361
0.0766092
-0.0117519
0.071962
-0.0217307
0.069707
-0.0313231
0.0669859
-0.0405273
0.0645076
-0.0493838
0.0621714
-0.0579386
0.0600317
-0.0662428
0.0580553
-0.0743359
0.0561275
-0.0822237
0.0540134
-0.089852
0.0513465
-0.0970812
0.0476401
-0.10367
0.0423387
-0.109272
0.0348923
-0.113447
0.0248504
-0.115666
0.0119802
-0.11572
-0.00294615
-0.112961
-0.0207494
-0.107172
-0.0398748
-0.0982688
-0.0593546
-0.0863878
-0.0778754
-0.0718993
-0.0940969
-0.0553784
-0.106802
-0.0375612
-0.115173
-0.0192308
-0.118641
-0.00144515
-0.118133
0.0152503
-0.112267
0.0305516
-0.103335
0.0439833
-0.0922583
0.0554527
-0.0804059
0.0650474
-0.0686717
0.0729993
-0.0579104
0.079605
-0.0484667
0.0851386
-0.0402822
0.0897763
-0.0328891
0.0935449
-0.0255571
0.096309
-0.0174798
0.0977927
-0.00794487
0.097642
0.00350527
0.095465
0.0167683
0.0909878
0.0315821
0.0840259
0.0471916
0.0745919
0.0625416
0.0629051
0.0764507
0.0493876
0.0878356
0.0345859
0.0957828
0.0192448
0.0997269
0.00400794
0.100455
-0.010508
0.0968098
-0.0238483
0.0890492
-0.0355273
0.0792
-0.0453735
0.0678358
-0.0533017
0.0556951
-0.0593667
0.0435867
-0.0636957
0.0319122
-0.0664437
0.0209445
-0.0677606
0.0107578
-0.0677021
0.000824786
-0.0663534
-0.00858265
-0.0636454
-0.0181311
-0.0595396
-0.0277381
-0.0539967
-0.0373326
-0.0470258
-0.0466585
-0.0387093
-0.0552514
-0.0292307
-0.0626836
-0.0188439
-0.0682458
-0.00795587
-0.0719152
0.00307933
-0.0732813
0.0138746
-0.0714542
0.0240173
-0.0677459
0.0332046
-0.0618689
0.0411908
-0.0544283
0.0478254
-0.0458679
0.0530368
-0.0366555
0.0568149
-0.0271789
0.0591894
-0.0176871
0.0602043
-0.00830963
0.0599367
0.000735236
0.0583947
0.00960928
0.055573
0.0185986
0.0514671
0.0275346
0.0460653
0.0364293
0.0393649
0.045194
0.0313957
0.0536582
0.022242
0.0614321
0.0120592
0.0681712
0.00105345
0.0736036
-0.010491
0.0770717
-0.0222438
0.0783811
-0.0337876
0.0769397
-0.0446629
0.0727236
-0.0544283
0.0656005
0.056084
0.130518
-0.0552352
0.139459
-0.0412216
0.145481
-0.0249878
0.148194
-0.00921656
0.147737
0.0102919
0.14301
0.0366438
0.134592
0.0613256
0.122852
0.084476
0.108171
0.105403
0.0909843
0.12338
0.0718076
0.13774
0.0512606
0.147931
0.0300876
0.153537
0.00914785
0.154283
-0.010828
0.150685
-0.0298055
0.138305
-0.046581
0.123268
-0.0606388
0.104941
-0.0716335
0.0844971
-0.0794475
0.0633249
-0.0841887
0.0428904
-0.0861678
0.0245254
-0.0857106
0.00899603
-0.0842242
-0.00109463
-0.0825041
-0.00499719
-0.0806519
-0.00673241
-0.0791687
-0.00680059
-0.0783546
-0.00610338
-0.0778405
-0.00496186
-0.0779258
-0.00344459
-0.0782722
-0.00356582
-0.0783184
-0.00631525
-0.0775338
-0.0117149
-0.0755236
-0.0192536
-0.0720496
-0.0281559
-0.0670531
-0.0374496
-0.0606601
-0.0461035
-0.0531579
-0.0531982
-0.0449495
-0.0580811
-0.036491
-0.0604777
-0.0282217
-0.0605295
-0.0204947
-0.0587628
-0.0135056
-0.0559864
-0.00725071
-0.0531788
-0.00151942
-0.0513441
0.00407545
-0.0513345
0.00999325
-0.0535759
0.0167002
-0.0580628
0.024557
-0.0642989
0.0337426
-0.0713841
0.0442147
-0.0781821
0.0557023
-0.0834762
0.0677529
-0.0860883
0.0797801
-0.0850549
0.0911181
-0.0797758
0.101088
-0.0701008
0.109069
-0.0563551
0.114566
-0.0392899
0.117252
-0.0199799
0.117045
0.000319679
0.113961
0.0202937
0.108278
0.0388887
0.100379
0.0551319
0.0907286
0.0684295
0.0798154
0.0785344
0.0681031
0.085512
0.0559917
0.0896853
0.0437991
0.0915504
0.0317663
0.0916839
0.0200712
0.0906495
0.00889777
0.0889341
-0.00172769
0.0872346
-0.0122221
0.0824564
-0.0222139
0.0796988
-0.0318068
0.0765788
-0.0410006
0.0737015
-0.0498405
0.0710113
-0.058381
0.0685722
-0.0666856
0.0663599
-0.0748103
0.0642522
-0.0827785
0.0619816
-0.0905512
0.0591192
-0.0979974
0.0550863
-0.104873
0.0492143
-0.110817
0.040836
-0.115362
0.0293961
-0.117887
0.0145049
-0.118228
-0.00260565
-0.115629
-0.0233477
-0.109848
-0.0456557
-0.100772
-0.0684312
-0.0885337
-0.0901135
-0.0735266
-0.109104
-0.0563711
-0.123958
-0.0378702
-0.133674
-0.0188779
-0.137633
-0.000422599
-0.136588
0.0166394
-0.129329
0.0322178
-0.118914
0.0457803
-0.105821
0.0572277
-0.0918533
0.0666921
-0.0781361
0.0744597
-0.065678
0.0808878
-0.0548948
0.0863039
-0.0456982
0.0909199
-0.0375051
0.0947735
-0.0294107
0.0977132
-0.0204195
0.0994265
-0.00965824
0.0995224
0.00340939
0.0975088
0.018782
0.0931035
0.0359873
0.0860708
0.0542243
0.0764058
0.0722067
0.0643374
0.0885191
0.0503183
0.101855
0.0349499
0.111151
0.0190048
0.115672
0.00324767
0.116212
-0.0116942
0.111752
-0.0253733
0.102728
-0.0372664
0.0910931
-0.0472062
0.0777756
-0.0551292
0.0636181
-0.0611173
0.0495747
-0.0653354
0.0361303
-0.0679728
0.0235819
-0.0691969
0.0119818
-0.0690536
0.00068149
-0.0676872
-0.00994901
-0.0649589
-0.0208595
-0.0608162
-0.0318808
-0.0551981
-0.0429508
-0.0480932
-0.0537634
-0.0395722
-0.0637724
-0.0298218
-0.072434
-0.0191117
-0.0789558
-0.00786351
-0.0831634
0.00352199
-0.0846668
0.0146481
-0.0825803
0.0250694
-0.0781672
0.0344695
-0.071269
0.042595
-0.0625538
0.0492985
-0.0525713
0.0545205
-0.0418775
0.0582669
-0.0309253
0.0605788
-0.019999
0.0615218
-0.00925256
0.0612047
0.00105229
0.0596058
0.0112082
0.0567237
0.0214806
0.0525553
0.0317029
0.0470762
0.0419084
0.0402711
0.0519991
0.0321595
0.0617699
0.0228127
0.0707788
0.0123964
0.0785875
0.00112212
0.0848779
-0.0107382
0.088932
-0.0228359
0.0904789
-0.0347361
0.0888398
-0.0459465
0.0839341
-0.0559984
0.0756524
0.0645525
0.132675
-0.0678597
0.142398
-0.050944
0.148975
-0.0315652
0.151962
-0.0122038
0.151571
0.0106827
0.146803
0.041412
0.138186
0.0699432
0.1261
0.0965615
0.110951
0.120553
0.093199
0.141131
0.0733869
0.157552
0.0521608
0.169157
0.0302793
0.175418
0.00859531
0.175967
-0.0122045
0.171485
-0.0318222
0.157922
-0.0491219
0.140568
-0.0635303
0.11935
-0.0746685
0.0956353
-0.0824049
0.0710612
-0.0868592
0.0473448
-0.0883698
0.026036
-0.0872359
0.00786215
-0.0853598
-0.00297074
-0.0831918
-0.00716516
-0.0809445
-0.00897973
-0.0791578
-0.00858722
-0.0782663
-0.00699488
-0.0778366
-0.00539161
-0.0781426
-0.00313854
-0.0788121
-0.00289632
-0.0791949
-0.00593245
-0.0786921
-0.0122177
-0.0768619
-0.0210837
-0.0734293
-0.0315885
-0.0683261
-0.0425528
-0.0616955
-0.0527341
-0.053866
-0.0610277
-0.0452972
-0.06665
-0.0365057
-0.0692692
-0.0279834
-0.0690517
-0.0201179
-0.0666283
-0.0131215
-0.0629829
-0.0069863
-0.059314
-0.00147577
-0.0568546
0.00384418
-0.0566544
0.00949049
-0.0592222
0.0159877
-0.06456
0.0237473
-0.0720585
0.032984
-0.0806209
0.0436712
-0.0888693
0.0555349
-0.0953399
0.0680928
-0.0986462
0.0807058
-0.0976679
0.0926439
-0.091714
0.103163
-0.0806197
0.111585
-0.0647774
0.117371
-0.0450762
0.120172
-0.0227803
0.119905
0.000586278
0.116604
0.0235948
0.11058
0.0449131
0.102258
0.0634538
0.0921494
0.0785378
0.0807868
0.0898971
0.0686683
0.0976305
0.0562178
0.102136
0.0437652
0.104003
0.0315495
0.1039
0.0197333
0.102466
0.00844497
0.100222
-0.00221161
0.0978912
-0.0127391
0.0929839
-0.0227436
0.0897032
-0.0323334
0.0861687
-0.0415124
0.0828805
-0.0503298
0.0798287
-0.0588488
0.0770912
-0.0671475
0.0746586
-0.0753013
0.0724061