/*--------------------------------*- C++ -*----------------------------------*\
| =========                 |                                                 |
| \\      /  F ield         | OpenFOAM: The Open Source CFD Toolbox           |
|  \\    /   O peration     | Version:  v1912                                 |
|   \\  /    A nd           | Website:  www.openfoam.com                      |
|    \\/     M anipulation  |                                                 |
\*---------------------------------------------------------------------------*/
FoamFile
{
    version     2.0;
    format      ascii;
    class       volScalarField;
    location    "70";
    object      k;
}
// * * * * * * * * * * * * * * * * * * * * * * * * * * * * * * * * * * * * * //

dimensions      [0 2 -2 0 0 0 0];


internalField   nonuniform List<scalar> 
14268
(
6.63591e-07
6.61504e-07
6.59396e-07
6.57521e-07
6.5583e-07
6.54317e-07
6.52873e-07
6.51419e-07
6.49978e-07
6.48637e-07
6.47457e-07
6.46429e-07
6.45504e-07
6.44561e-07
6.4346e-07
6.41657e-07
6.38615e-07
6.34595e-07
6.3064e-07
6.27088e-07
6.24364e-07
6.22362e-07
6.20935e-07
6.20049e-07
6.19496e-07
6.18994e-07
6.18532e-07
6.18053e-07
6.17601e-07
6.17259e-07
6.16945e-07
6.16456e-07
6.15426e-07
6.14047e-07
6.13143e-07
6.11824e-07
6.11664e-07
6.12728e-07
6.14382e-07
6.15886e-07
6.16352e-07
6.16571e-07
6.16917e-07
6.17312e-07
6.17712e-07
6.18038e-07
6.18212e-07
6.18158e-07
6.17577e-07
6.16764e-07
6.15775e-07
6.14636e-07
6.13296e-07
6.12063e-07
6.11056e-07
6.10088e-07
6.08936e-07
6.07563e-07
6.06549e-07
6.0582e-07
6.04838e-07
6.04645e-07
6.04152e-07
6.03663e-07
6.03918e-07
6.04547e-07
6.05189e-07
6.05875e-07
6.06916e-07
6.08223e-07
6.09558e-07
6.10866e-07
6.12402e-07
6.142e-07
6.1602e-07
6.17784e-07
6.19606e-07
6.21503e-07
6.2337e-07
6.25209e-07
6.26917e-07
6.28339e-07
6.29437e-07
6.30338e-07
6.31207e-07
6.3213e-07
6.32952e-07
6.33436e-07
6.3356e-07
6.33406e-07
6.33073e-07
6.3298e-07
6.3366e-07
6.34585e-07
6.35588e-07
6.36693e-07
6.37719e-07
6.38334e-07
6.38457e-07
6.38182e-07
6.38563e-07
6.38767e-07
6.39674e-07
6.40851e-07
6.41251e-07
6.40432e-07
6.41208e-07
6.4163e-07
6.39735e-07
6.39134e-07
6.39792e-07
6.39114e-07
6.3477e-07
6.28752e-07
6.23272e-07
6.19772e-07
6.10919e-07
6.00831e-07
5.95968e-07
5.92391e-07
5.87392e-07
5.81841e-07
5.77485e-07
5.73468e-07
5.6569e-07
5.56932e-07
5.52729e-07
5.50065e-07
5.45745e-07
5.37494e-07
5.22613e-07
4.95062e-07
4.41133e-07
3.13312e-07
4.35292e-07
4.34425e-07
4.32995e-07
4.30704e-07
4.27322e-07
4.2268e-07
4.16745e-07
4.09728e-07
4.02056e-07
3.94549e-07
3.87699e-07
3.81493e-07
3.75706e-07
3.69914e-07
3.63297e-07
3.54712e-07
3.42748e-07
3.27113e-07
3.09636e-07
2.91952e-07
2.74441e-07
2.57647e-07
2.42003e-07
2.28531e-07
2.1781e-07
2.09788e-07
2.03757e-07
1.98719e-07
1.93968e-07
1.89206e-07
1.84104e-07
1.78555e-07
1.73272e-07
1.69401e-07
1.68013e-07
1.69438e-07
1.71853e-07
1.74228e-07
1.77688e-07
1.81099e-07
1.83313e-07
1.8391e-07
1.83863e-07
1.83482e-07
1.82775e-07
1.82095e-07
1.81719e-07
1.8079e-07
1.79051e-07
1.77698e-07
1.77202e-07
1.77565e-07
1.78173e-07
1.79725e-07
1.816e-07
1.82496e-07
1.82224e-07
1.82275e-07
1.83445e-07
1.84439e-07
1.85338e-07
1.8761e-07
1.88435e-07
1.88498e-07
1.90514e-07
1.93725e-07
1.95362e-07
1.96137e-07
1.98754e-07
2.02551e-07
2.04892e-07
2.05907e-07
2.08537e-07
2.1272e-07
2.15946e-07
2.18218e-07
2.21243e-07
2.2489e-07
2.28155e-07
2.32089e-07
2.3687e-07
2.40571e-07
2.43374e-07
2.46429e-07
2.50069e-07
2.54789e-07
2.59617e-07
2.63387e-07
2.66527e-07
2.69507e-07
2.72337e-07
2.75163e-07
2.80077e-07
2.85578e-07
2.90551e-07
2.96631e-07
3.03049e-07
3.09063e-07
3.14583e-07
3.20324e-07
3.26471e-07
3.34049e-07
3.43059e-07
3.51898e-07
3.62753e-07
3.73663e-07
3.85407e-07
3.97752e-07
4.09063e-07
4.20213e-07
4.32814e-07
4.45017e-07
4.54996e-07
4.62687e-07
4.68912e-07
4.74094e-07
4.78341e-07
4.82277e-07
4.87222e-07
4.9467e-07
5.06e-07
5.21325e-07
5.38643e-07
5.54593e-07
5.66508e-07
5.74134e-07
5.78584e-07
5.88153e-07
6.06768e-07
6.48346e-07
7.2446e-07
8.53615e-07
1.05031e-06
1.06062e-06
1.95362e-07
1.95227e-07
1.94719e-07
1.93575e-07
1.915e-07
1.88459e-07
1.84542e-07
1.79918e-07
1.74925e-07
1.70021e-07
1.65567e-07
1.61698e-07
1.58281e-07
1.54924e-07
1.51111e-07
1.46271e-07
1.39685e-07
1.31339e-07
1.22479e-07
1.14146e-07
1.06491e-07
9.97499e-08
9.4036e-08
8.95751e-08
8.63261e-08
8.40611e-08
8.24671e-08
8.12294e-08
8.01371e-08
7.90887e-08
7.80085e-08
7.69265e-08
7.60022e-08
7.5399e-08
7.52371e-08
7.56036e-08
7.61625e-08
7.67456e-08
7.75271e-08
7.8252e-08
7.87989e-08
7.90369e-08
7.90882e-08
7.90586e-08
7.90095e-08
7.89641e-08
7.89157e-08
7.88146e-08
7.86322e-08
7.84848e-08
7.84386e-08
7.8606e-08
7.89172e-08
7.93612e-08
7.98384e-08
8.01455e-08
8.02955e-08
8.04978e-08
8.07676e-08
8.11236e-08
8.16582e-08
8.2154e-08
8.24966e-08
8.27853e-08
8.33789e-08
8.41268e-08
8.46606e-08
8.51767e-08
8.59318e-08
8.68677e-08
8.76366e-08
8.82397e-08
8.90539e-08
9.02037e-08
9.13002e-08
9.22364e-08
9.32929e-08
9.44526e-08
9.56368e-08
9.70859e-08
9.87592e-08
1.002e-07
1.01347e-07
1.0255e-07
1.04046e-07
1.05952e-07
1.07954e-07
1.09664e-07
1.1106e-07
1.1237e-07
1.13613e-07
1.1501e-07
1.17231e-07
1.1984e-07
1.22194e-07
1.25165e-07
1.28437e-07
1.31675e-07
1.3482e-07
1.38184e-07
1.4168e-07
1.4622e-07
1.51824e-07
1.57315e-07
1.64975e-07
1.73003e-07
1.81816e-07
1.92655e-07
2.02374e-07
2.11148e-07
2.22246e-07
2.35434e-07
2.46138e-07
2.54018e-07
2.6016e-07
2.65691e-07
2.69411e-07
2.71116e-07
2.72401e-07
2.756e-07
2.8198e-07
2.94435e-07
3.15278e-07
3.44716e-07
3.80417e-07
4.21614e-07
4.62228e-07
5.1308e-07
5.67369e-07
6.56255e-07
8.07901e-07
1.09558e-06
1.53263e-06
1.90729e-06
1.06361e-07
1.06359e-07
1.06183e-07
1.0569e-07
1.04717e-07
1.03228e-07
1.01276e-07
9.89957e-08
9.65575e-08
9.41773e-08
9.20918e-08
9.03033e-08
8.8759e-08
8.73168e-08
8.57193e-08
8.36706e-08
8.08768e-08
7.74013e-08
7.39215e-08
7.09113e-08
6.83506e-08
6.63072e-08
6.4768e-08
6.37244e-08
6.31052e-08
6.27511e-08
6.24995e-08
6.22907e-08
6.21339e-08
6.20135e-08
6.19354e-08
6.18908e-08
6.19754e-08
6.2066e-08
6.22122e-08
6.23493e-08
6.2409e-08
6.24146e-08
6.24134e-08
6.23768e-08
6.24471e-08
6.25653e-08
6.2634e-08
6.26601e-08
6.26887e-08
6.27677e-08
6.27841e-08
6.28126e-08
6.29229e-08
6.30405e-08
6.31356e-08
6.32805e-08
6.34468e-08
6.35903e-08
6.3695e-08
6.38309e-08
6.39829e-08
6.41595e-08
6.42735e-08
6.44164e-08
6.46397e-08
6.47566e-08
6.48988e-08
6.51168e-08
6.53013e-08
6.53822e-08
6.55212e-08
6.57782e-08
6.596e-08
6.60628e-08
6.62185e-08
6.64921e-08
6.67068e-08
6.68414e-08
6.70617e-08
6.73734e-08
6.76759e-08
6.7933e-08
6.82514e-08
6.85951e-08
6.89909e-08
6.94309e-08
6.9853e-08
7.02721e-08
7.07536e-08
7.12883e-08
7.18726e-08
7.24998e-08
7.30545e-08
7.35958e-08
7.41029e-08
7.47488e-08
7.54918e-08
7.63874e-08
7.7341e-08
7.84775e-08
7.96773e-08
8.09815e-08
8.22565e-08
8.37243e-08
8.51444e-08
8.72468e-08
8.94555e-08
9.20128e-08
9.54456e-08
9.91197e-08
1.03411e-07
1.08801e-07
1.14116e-07
1.19047e-07
1.25131e-07
1.32969e-07
1.39571e-07
1.44389e-07
1.48201e-07
1.51862e-07
1.54516e-07
1.55845e-07
1.56815e-07
1.58908e-07
1.63119e-07
1.71368e-07
1.85783e-07
2.0751e-07
2.38613e-07
2.82272e-07
3.32354e-07
4.07483e-07
4.96717e-07
6.4689e-07
8.90944e-07
1.34683e-06
2.03942e-06
2.74775e-06
7.54669e-08
7.5477e-08
7.54044e-08
7.51737e-08
7.47132e-08
7.40068e-08
7.30532e-08
7.18972e-08
7.07004e-08
6.96639e-08
6.87776e-08
6.80458e-08
6.74165e-08
6.67911e-08
6.608e-08
6.52014e-08
6.40351e-08
6.26351e-08
6.13945e-08
6.0387e-08
5.96438e-08
5.91527e-08
5.89059e-08
5.88202e-08
5.88166e-08
5.88574e-08
5.89638e-08
5.90996e-08
5.9229e-08
5.93608e-08
5.94783e-08
5.97378e-08
6.00474e-08
6.03025e-08
6.05146e-08
6.06151e-08
6.05868e-08
6.04336e-08
6.0248e-08
6.00894e-08
6.00304e-08
6.00976e-08
6.01762e-08
6.02219e-08
6.02507e-08
6.03098e-08
6.03895e-08
6.05011e-08
6.06238e-08
6.07366e-08
6.0857e-08
6.09722e-08
6.10789e-08
6.11949e-08
6.12736e-08
6.13704e-08
6.14614e-08
6.15861e-08
6.16949e-08
6.17926e-08
6.19316e-08
6.20476e-08
6.21592e-08
6.22522e-08
6.2329e-08
6.2379e-08
6.24167e-08
6.24626e-08
6.24726e-08
6.2464e-08
6.24697e-08
6.25067e-08
6.25008e-08
6.24821e-08
6.24819e-08
6.2536e-08
6.25769e-08
6.25821e-08
6.26005e-08
6.26094e-08
6.26449e-08
6.27302e-08
6.28418e-08
6.29602e-08
6.3082e-08
6.31932e-08
6.33311e-08
6.35413e-08
6.37654e-08
6.40234e-08
6.43077e-08
6.46517e-08
6.49067e-08
6.51814e-08
6.55383e-08
6.59213e-08
6.62986e-08
6.67921e-08
6.73084e-08
6.79552e-08
6.85927e-08
6.95091e-08
7.03323e-08
7.14771e-08
7.28356e-08
7.43539e-08
7.62242e-08
7.85758e-08
8.11094e-08
8.36491e-08
8.67506e-08
9.07135e-08
9.43242e-08
9.71146e-08
9.94891e-08
1.01853e-07
1.03731e-07
1.05034e-07
1.06217e-07
1.08106e-07
1.11259e-07
1.1678e-07
1.25862e-07
1.39909e-07
1.61197e-07
1.94826e-07
2.39659e-07
3.19195e-07
4.28892e-07
6.20784e-07
9.42662e-07
1.54384e-06
2.49887e-06
3.58569e-06
6.43432e-08
6.44153e-08
6.44271e-08
6.43542e-08
6.41277e-08
6.37378e-08
6.32557e-08
6.2754e-08
6.22225e-08
6.16844e-08
6.12044e-08
6.07978e-08
6.04534e-08
6.01742e-08
5.99109e-08
5.95828e-08
5.90757e-08
5.85135e-08
5.79969e-08
5.76192e-08
5.74744e-08
5.74672e-08
5.76757e-08
5.79765e-08
5.83063e-08
5.85169e-08
5.86053e-08
5.86294e-08
5.87383e-08
5.88655e-08
5.90908e-08
5.94482e-08
5.98174e-08
6.01104e-08
6.0349e-08
6.04592e-08
6.04033e-08
6.01715e-08
5.98884e-08
5.9634e-08
5.95283e-08
5.95899e-08
5.96937e-08
5.97434e-08
5.97671e-08
5.98403e-08
5.9964e-08
6.01119e-08
6.02545e-08
6.03839e-08
6.05121e-08
6.06319e-08
6.07482e-08
6.08737e-08
6.09438e-08
6.10392e-08
6.11336e-08
6.12488e-08
6.13544e-08
6.14534e-08
6.15734e-08
6.16811e-08
6.17813e-08
6.1864e-08
6.19229e-08
6.19618e-08
6.19854e-08
6.19912e-08
6.19727e-08
6.19345e-08
6.18976e-08
6.18579e-08
6.1801e-08
6.17481e-08
6.17102e-08
6.16769e-08
6.16357e-08
6.15669e-08
6.14949e-08
6.1428e-08
6.13852e-08
6.13647e-08
6.13584e-08
6.13607e-08
6.13672e-08
6.13781e-08
6.14056e-08
6.14679e-08
6.15749e-08
6.17239e-08
6.18977e-08
6.20699e-08
6.22043e-08
6.23146e-08
6.24415e-08
6.25452e-08
6.26291e-08
6.27747e-08
6.29837e-08
6.32424e-08
6.35207e-08
6.38349e-08
6.40949e-08
6.44819e-08
6.48739e-08
6.53975e-08
6.61275e-08
6.69747e-08
6.80531e-08
6.9268e-08
7.0781e-08
7.26571e-08
7.45474e-08
7.6127e-08
7.77248e-08
7.93493e-08
8.07651e-08
8.20546e-08
8.33734e-08
8.51335e-08
8.76878e-08
9.16194e-08
9.7434e-08
1.06211e-07
1.20896e-07
1.47068e-07
1.85332e-07
2.62023e-07
3.78818e-07
6.01129e-07
9.91955e-07
1.71575e-06
2.88965e-06
4.31905e-06
6.0356e-08
6.03538e-08
6.03334e-08
6.02818e-08
6.01971e-08
6.00345e-08
5.97243e-08
5.92586e-08
5.88416e-08
5.85389e-08
5.83225e-08
5.82244e-08
5.81879e-08
5.81515e-08
5.80541e-08
5.78735e-08
5.75926e-08
5.72749e-08
5.6991e-08
5.69069e-08
5.69747e-08
5.7108e-08
5.74173e-08
5.76891e-08
5.79529e-08
5.81909e-08
5.84058e-08
5.85824e-08
5.874e-08
5.89101e-08
5.91099e-08
5.94869e-08
5.99291e-08
6.03069e-08
6.06454e-08
6.08088e-08
6.07375e-08
6.04447e-08
6.01042e-08
5.9815e-08
5.96906e-08
5.97847e-08
5.99775e-08
6.0087e-08
6.01262e-08
6.01825e-08
6.02607e-08
6.03858e-08
6.05291e-08
6.06565e-08
6.08002e-08
6.09427e-08
6.10771e-08
6.12171e-08
6.12778e-08
6.13597e-08
6.14406e-08
6.15412e-08
6.16379e-08
6.17324e-08
6.18469e-08
6.19572e-08
6.20614e-08
6.21345e-08
6.21839e-08
6.22065e-08
6.22091e-08
6.21971e-08
6.21567e-08
6.20969e-08
6.20427e-08
6.19919e-08
6.19328e-08
6.18606e-08
6.17985e-08
6.17396e-08
6.16734e-08
6.15849e-08
6.14956e-08
6.13939e-08
6.13152e-08
6.12613e-08
6.12265e-08
6.11988e-08
6.11601e-08
6.11228e-08
6.11144e-08
6.11381e-08
6.12113e-08
6.13304e-08
6.14622e-08
6.15771e-08
6.16612e-08
6.17198e-08
6.17485e-08
6.17484e-08
6.17359e-08
6.1758e-08
6.18594e-08
6.20058e-08
6.21434e-08
6.22433e-08
6.23138e-08
6.2369e-08
6.23899e-08
6.24611e-08
6.2632e-08
6.28135e-08
6.31786e-08
6.36716e-08
6.42974e-08
6.50642e-08
6.59804e-08
6.68973e-08
6.80021e-08
6.91668e-08
7.03275e-08
7.1604e-08
7.30115e-08
7.47024e-08
7.69312e-08
7.98747e-08
8.36667e-08
8.92336e-08
9.91838e-08
1.19405e-07
1.52934e-07
2.28153e-07
3.49512e-07
5.89433e-07
1.02315e-06
1.85255e-06
3.22762e-06
4.96916e-06
5.91536e-08
5.92277e-08
5.92451e-08
5.91901e-08
5.89992e-08
5.87193e-08
5.8537e-08
5.83732e-08
5.81753e-08
5.79641e-08
5.77873e-08
5.76775e-08
5.76442e-08
5.75908e-08
5.75107e-08
5.73506e-08
5.708e-08
5.69192e-08
5.68887e-08
5.68239e-08
5.69388e-08
5.71598e-08
5.76164e-08
5.80745e-08
5.84986e-08
5.8761e-08
5.8884e-08
5.88572e-08
5.88989e-08
5.90326e-08
5.92322e-08
5.97347e-08
6.03167e-08
6.08363e-08
6.1375e-08
6.19485e-08
6.14756e-08
6.10415e-08
6.0589e-08
6.01437e-08
5.99238e-08
6.00146e-08
6.01889e-08
6.02303e-08
6.02334e-08
6.03301e-08
6.04963e-08
6.06884e-08
6.08469e-08
6.09548e-08
6.10665e-08
6.1207e-08
6.13445e-08
6.15015e-08
6.15705e-08
6.1656e-08
6.17357e-08
6.18346e-08
6.19456e-08
6.20535e-08
6.21812e-08
6.22997e-08
6.24036e-08
6.24933e-08
6.25563e-08
6.25954e-08
6.26074e-08
6.26026e-08
6.25696e-08
6.25161e-08
6.24533e-08
6.23864e-08
6.2287e-08
6.21774e-08
6.20859e-08
6.20006e-08
6.1909e-08
6.17971e-08
6.16799e-08
6.15525e-08
6.14459e-08
6.1368e-08
6.13168e-08
6.12786e-08
6.12348e-08
6.11836e-08
6.11616e-08
6.11728e-08
6.12314e-08
6.13352e-08
6.14653e-08
6.15782e-08
6.16434e-08
6.16666e-08
6.16614e-08
6.16286e-08
6.16011e-08
6.15998e-08
6.16372e-08
6.17497e-08
6.18414e-08
6.18765e-08
6.18697e-08
6.18267e-08
6.17194e-08
6.15909e-08
6.14601e-08
6.13699e-08
6.13545e-08
6.14624e-08
6.16307e-08
6.18355e-08
6.21866e-08
6.27232e-08
6.34846e-08
6.43615e-08
6.53684e-08
6.66207e-08
6.81093e-08
6.98494e-08
7.20451e-08
7.44759e-08
7.69571e-08
8.03503e-08
8.74136e-08
1.03787e-07
1.33659e-07
2.07092e-07
3.33585e-07
5.89698e-07
1.07474e-06
2.00822e-06
3.57254e-06
5.59788e-06
5.83512e-08
5.84565e-08
5.85566e-08
5.8649e-08
5.8671e-08
5.86113e-08
5.84533e-08
5.82081e-08
5.79356e-08
5.76657e-08
5.74941e-08
5.7445e-08
5.74375e-08
5.74559e-08
5.7436e-08
5.73757e-08
5.72387e-08
5.70541e-08
5.68068e-08
5.67531e-08
5.69452e-08
5.71437e-08
5.75857e-08
5.79712e-08
5.83983e-08
5.87258e-08
5.88727e-08
5.89505e-08
5.90857e-08
5.92438e-08
5.95232e-08
6.06423e-08
6.35048e-08
7.0087e-08
8.85974e-08
1.25115e-07
7.43497e-08
6.1411e-08
6.08108e-08
6.03805e-08
6.01907e-08
6.03836e-08
6.07455e-08
6.08742e-08
6.08405e-08
6.0867e-08
6.09431e-08
6.10805e-08
6.12101e-08
6.13148e-08
6.14444e-08
6.16158e-08
6.17814e-08
6.19515e-08
6.20198e-08
6.20942e-08
6.21632e-08
6.22611e-08
6.23759e-08
6.24936e-08
6.26292e-08
6.27577e-08
6.28641e-08
6.2948e-08
6.30129e-08
6.305e-08
6.3065e-08
6.30639e-08
6.30382e-08
6.29876e-08
6.29279e-08
6.28647e-08
6.27794e-08
6.26789e-08
6.25901e-08
6.25074e-08
6.24226e-08
6.23267e-08
6.22307e-08
6.21151e-08
6.20021e-08
6.19086e-08
6.18366e-08
6.17784e-08
6.17139e-08
6.16204e-08
6.15647e-08
6.15553e-08
6.15875e-08
6.16735e-08
6.17874e-08
6.18728e-08
6.19205e-08
6.19326e-08
6.19168e-08
6.18687e-08
6.18134e-08
6.17796e-08
6.17698e-08
6.18229e-08
6.18825e-08
6.18983e-08
6.18675e-08
6.17817e-08
6.16177e-08
6.14088e-08
6.11639e-08
6.09426e-08
6.07991e-08
6.07067e-08
6.06478e-08
6.06177e-08
6.06941e-08
6.09751e-08
6.14877e-08
6.21692e-08
6.30681e-08
6.42936e-08
6.5901e-08
6.7929e-08
7.03779e-08
7.26216e-08
7.44144e-08
7.62513e-08
8.12227e-08
9.52173e-08
1.22861e-07
1.96083e-07
3.27544e-07
5.98799e-07
1.11753e-06
2.12541e-06
3.84778e-06
6.14765e-06
5.85297e-08
5.85397e-08
5.85326e-08
5.84871e-08
5.84076e-08
5.82845e-08
5.80873e-08
5.77731e-08
5.74524e-08
5.7289e-08
5.7198e-08
5.71921e-08
5.73039e-08
5.73847e-08
5.7476e-08
5.73648e-08
5.70767e-08
5.68897e-08
5.68288e-08
5.69004e-08
5.87434e-08
9.08789e-08
5.01705e-07
2.41396e-06
6.72098e-06
1.10161e-05
1.23848e-05
1.10464e-05
9.01541e-06
7.52912e-06
7.26431e-06
7.28322e-06
4.63551e-06
2.15961e-06
3.47968e-06
5.7659e-06
1.16773e-06
7.77927e-08
6.15525e-08
6.08078e-08
6.04105e-08
6.05241e-08
6.07915e-08
6.08521e-08
6.07761e-08
6.08755e-08
6.10732e-08
6.1317e-08
6.15106e-08
6.16054e-08
6.17039e-08
6.19038e-08
6.21105e-08
6.23022e-08
6.23904e-08
6.24654e-08
6.25283e-08
6.26197e-08
6.27425e-08
6.2876e-08
6.30148e-08
6.31678e-08
6.33058e-08
6.34102e-08
6.34872e-08
6.35278e-08
6.35369e-08
6.35229e-08
6.34808e-08
6.34109e-08
6.33274e-08
6.32417e-08
6.31494e-08
6.30455e-08
6.2935e-08
6.28249e-08
6.27156e-08
6.26076e-08
6.25019e-08
6.23854e-08
6.22827e-08
6.22e-08
6.21359e-08
6.20818e-08
6.20148e-08
6.19221e-08
6.18684e-08
6.18596e-08
6.18921e-08
6.19709e-08
6.20687e-08
6.21672e-08
6.22466e-08
6.22824e-08
6.22786e-08
6.22109e-08
6.21031e-08
6.20615e-08
6.20791e-08
6.21635e-08
6.21897e-08
6.21819e-08
6.21092e-08
6.19723e-08
6.17832e-08
6.15535e-08
6.12637e-08
6.09623e-08
6.07328e-08
6.05395e-08
6.03563e-08
6.02374e-08
6.02121e-08
6.03453e-08
6.07329e-08
6.13033e-08
6.21468e-08
6.34511e-08
6.52649e-08
6.76778e-08
7.08703e-08
7.34983e-08
7.47172e-08
7.52178e-08
7.84958e-08
9.09028e-08
1.17641e-07
1.91534e-07
3.26596e-07
6.1364e-07
1.1738e-06
2.2659e-06
4.14137e-06
6.67101e-06
5.86507e-08
5.88685e-08
5.90048e-08
5.90222e-08
5.89422e-08
5.86636e-08
5.82338e-08
5.80499e-08
5.78601e-08
5.75546e-08
5.73688e-08
5.73884e-08
5.75079e-08
5.73625e-08
5.42892e-08
6.55363e-08
2.55769e-07
1.08648e-06
1.90392e-06
5.45133e-06
2.73292e-05
0.000133643
0.000567788
0.00146201
0.00262837
0.0035076
0.00381016
0.00364853
0.00337519
0.00321499
0.00333665
0.0035748
0.00292597
0.0014307
0.000690322
0.000400271
7.14353e-05
1.53283e-06
6.31672e-08
6.12167e-08
6.09119e-08
6.13013e-08
6.19636e-08
6.22087e-08
6.2103e-08
6.21663e-08
6.22835e-08
6.24634e-08
6.25979e-08
6.26695e-08
6.27165e-08
6.2937e-08
6.3185e-08
6.33787e-08
6.34597e-08
6.35056e-08
6.35408e-08
6.36113e-08
6.37133e-08
6.38344e-08
6.3953e-08
6.40704e-08
6.41924e-08
6.43234e-08
6.44431e-08
6.45348e-08
6.45803e-08
6.45828e-08
6.45399e-08
6.44468e-08
6.43319e-08
6.42024e-08
6.40275e-08
6.38326e-08
6.36561e-08
6.34871e-08
6.33158e-08
6.31351e-08
6.29625e-08
6.28139e-08
6.26939e-08
6.25997e-08
6.2536e-08
6.24963e-08
6.2458e-08
6.23727e-08
6.23007e-08
6.22815e-08
6.2307e-08
6.23871e-08
6.24983e-08
6.2587e-08
6.264e-08
6.26652e-08
6.26587e-08
6.26069e-08
6.25465e-08
6.25271e-08
6.25487e-08
6.26349e-08
6.26808e-08
6.26775e-08
6.25927e-08
6.24242e-08
6.21333e-08
6.17502e-08
6.13855e-08
6.10657e-08
6.07852e-08
6.05301e-08
6.03068e-08
6.01545e-08
6.01109e-08
6.0201e-08
6.0544e-08
6.11067e-08
6.20095e-08
6.35678e-08
6.62412e-08
7.10266e-08
8.00659e-08
8.64554e-08
8.59314e-08
7.95793e-08
7.84124e-08
8.91912e-08
1.15538e-07
1.90729e-07
3.30622e-07
6.32894e-07
1.22565e-06
2.38695e-06
4.41032e-06
7.17053e-06
5.82614e-08
5.84543e-08
5.85849e-08
5.86509e-08
5.8723e-08
5.87481e-08
5.86378e-08
5.82562e-08
5.77212e-08
5.73898e-08
5.66895e-08
5.40971e-08
5.95906e-08
2.30105e-07
2.13291e-06
1.45626e-05
6.41099e-05
0.000185448
0.000387935
0.000901964
0.00258349
0.00698186
0.0170449
0.031444
0.0462102
0.0564497
0.0603491
0.0596046
0.0582879
0.0589182
0.0637824
0.0718799
0.0724191
0.0523413
0.0325918
0.0159942
0.00323779
0.000102526
2.58976e-07
6.22822e-08
6.16522e-08
6.18432e-08
6.24193e-08
6.26147e-08
6.24032e-08
6.25895e-08
6.29633e-08
6.33541e-08
6.36088e-08
6.36854e-08
6.37324e-08
6.39171e-08
6.42416e-08
6.44644e-08
6.45779e-08
6.46306e-08
6.46678e-08
6.47262e-08
6.48095e-08
6.49134e-08
6.50145e-08
6.51497e-08
6.52712e-08
6.53776e-08
6.54743e-08
6.55358e-08
6.55654e-08
6.55718e-08
6.55598e-08
6.55098e-08
6.54282e-08
6.53215e-08
6.5191e-08
6.50307e-08
6.48374e-08
6.46331e-08
6.4433e-08
6.42183e-08
6.39882e-08
6.37503e-08
6.3525e-08
6.33282e-08
6.31704e-08
6.30485e-08
6.29338e-08
6.28071e-08
6.27015e-08
6.26573e-08
6.26642e-08
6.27347e-08
6.28655e-08
6.29773e-08
6.30376e-08
6.30457e-08
6.30165e-08
6.29404e-08
6.28723e-08
6.28529e-08
6.29044e-08
6.29987e-08
6.30462e-08
6.30319e-08
6.29436e-08
6.27913e-08
6.25612e-08
6.22223e-08
6.18027e-08
6.14144e-08
6.11026e-08
6.08013e-08
6.05206e-08
6.03264e-08
6.02689e-08
6.03615e-08
6.0739e-08
6.14465e-08
6.2885e-08
6.61464e-08
7.37476e-08
9.12323e-08
1.27834e-07
1.54119e-07
1.50718e-07
1.11249e-07
8.77423e-08
8.99686e-08
1.15341e-07
1.9252e-07
3.39164e-07
6.56121e-07
1.28315e-06
2.51121e-06
4.66038e-06
7.63149e-06
5.87474e-08
5.89061e-08
5.89937e-08
5.89709e-08
5.88508e-08
5.87314e-08
5.81767e-08
5.69207e-08
5.79779e-08
8.47554e-08
2.80315e-07
1.337e-06
6.2283e-06
2.73033e-05
0.000110782
0.000398307
0.00121658
0.00293279
0.00584144
0.0120598
0.0263653
0.0540776
0.102188
0.160744
0.215651
0.252184
0.266898
0.266421
0.265968
0.275835
0.303794
0.358078
0.398294
0.372879
0.304503
0.194323
0.0664606
0.00484506
2.2099e-05
6.28348e-08
6.29976e-08
6.37058e-08
6.49788e-08
6.56091e-08
6.52386e-08
6.53789e-08
6.5655e-08
6.59808e-08
6.60996e-08
6.60557e-08
6.59598e-08
6.6082e-08
6.64705e-08
6.6584e-08
6.65269e-08
6.63836e-08
6.62568e-08
6.61817e-08
6.61594e-08
6.61714e-08
6.61786e-08
6.6164e-08
6.61439e-08
6.61543e-08
6.61741e-08
6.61916e-08
6.61977e-08
6.61837e-08
6.61528e-08
6.61171e-08
6.60591e-08
6.59879e-08
6.59165e-08
6.58282e-08
6.56943e-08
6.5512e-08
6.53195e-08
6.51262e-08
6.49307e-08
6.47433e-08
6.45289e-08
6.43044e-08
6.40964e-08
6.39022e-08
6.37058e-08
6.35124e-08
6.33695e-08
6.33021e-08
6.32971e-08
6.33438e-08
6.34339e-08
6.35261e-08
6.36033e-08
6.36308e-08
6.36115e-08
6.3514e-08
6.33721e-08
6.32879e-08
6.3257e-08
6.32771e-08
6.32301e-08
6.31738e-08
6.30693e-08
6.29416e-08
6.27753e-08
6.25311e-08
6.21972e-08
6.18572e-08
6.15572e-08
6.12752e-08
6.10021e-08
6.08212e-08
6.08012e-08
6.10734e-08
6.18759e-08
6.35992e-08
6.76527e-08
7.83496e-08
1.05825e-07
1.71885e-07
3.12695e-07
4.20536e-07
4.17522e-07
2.56313e-07
1.39357e-07
1.03078e-07
1.1843e-07
1.96909e-07
3.51016e-07
6.83357e-07
1.34364e-06
2.63978e-06
4.91727e-06
8.08253e-06
6.03076e-08
6.23164e-08
6.60899e-08
7.34985e-08
8.92461e-08
1.26046e-07
2.21601e-07
5.20864e-07
1.61145e-06
5.5725e-06
1.85316e-05
5.60477e-05
0.000155782
0.000426329
0.0011725
0.00310641
0.00756343
0.0160127
0.0299178
0.0563311
0.105488
0.186502
0.309947
0.452378
0.583546
0.670652
0.705427
0.705233
0.706367
0.732097
0.798643
0.955449
1.10982
1.17881
1.15023
0.953881
0.514251
0.100008
0.00167364
2.39376e-07
6.58069e-08
6.67212e-08
6.83029e-08
6.91381e-08
6.87647e-08
6.92331e-08
7.01266e-08
7.09874e-08
7.13543e-08
7.13349e-08
7.10786e-08
7.10381e-08
7.13107e-08
7.10555e-08
7.06395e-08
7.00206e-08
6.93696e-08
6.87722e-08
6.82331e-08
6.77422e-08
6.73035e-08
6.69392e-08
6.66474e-08
6.64602e-08
6.6365e-08
6.63324e-08
6.63267e-08
6.63295e-08
6.63469e-08
6.63573e-08
6.63498e-08
6.63225e-08
6.62925e-08
6.62358e-08
6.6152e-08
6.60456e-08
6.59232e-08
6.57985e-08
6.56692e-08
6.55528e-08
6.5404e-08
6.52045e-08
6.50099e-08
6.48382e-08
6.46682e-08
6.44381e-08
6.42354e-08
6.41215e-08
6.40896e-08
6.411e-08
6.41815e-08
6.42234e-08
6.4231e-08
6.4223e-08
6.41523e-08
6.40027e-08
6.38468e-08
6.37515e-08
6.36852e-08
6.36562e-08
6.36282e-08
6.34729e-08
6.33417e-08
6.32333e-08
6.30822e-08
6.28574e-08
6.25913e-08
6.23233e-08
6.20878e-08
6.18564e-08
6.16859e-08
6.16552e-08
6.19955e-08
6.32458e-08
6.58681e-08
7.14348e-08
8.49549e-08
1.21468e-07
2.15267e-07
4.35169e-07
8.96955e-07
1.27323e-06
1.29752e-06
7.8751e-07
3.52791e-07
1.7025e-07
1.37603e-07
2.08613e-07
3.68811e-07
7.20855e-07
1.41663e-06
2.77752e-06
5.17847e-06
8.52553e-06
6.88598e-08
7.16004e-08
8.63741e-08
1.17995e-07
1.88567e-07
3.65457e-07
8.71614e-07
2.59716e-06
9.34948e-06
3.76864e-05
0.000146633
0.000414587
0.000889053
0.00185581
0.00411615
0.00936564
0.0202567
0.0402572
0.0725578
0.130323
0.229994
0.383522
0.60921
0.872432
1.11874
1.2863
1.3441
1.33271
1.32606
1.35662
1.44438
1.69573
1.99331
2.23911
2.40566
2.4069
1.81099
0.694376
0.0498345
0.000118
1.89195e-06
3.70018e-07
1.00947e-07
7.33431e-08
7.32727e-08
7.39463e-08
7.49477e-08
7.58569e-08
7.63124e-08
7.61715e-08
7.56395e-08
7.53215e-08
7.54725e-08
7.48866e-08
7.39653e-08
7.27679e-08
7.15327e-08
7.04014e-08
6.93776e-08
6.84788e-08
6.77213e-08
6.71079e-08
6.66126e-08
6.6237e-08
6.59962e-08
6.58712e-08
6.58313e-08
6.58409e-08
6.59346e-08
6.60575e-08
6.61681e-08
6.62676e-08
6.63489e-08
6.63899e-08
6.63965e-08
6.63475e-08
6.62687e-08
6.62045e-08
6.61621e-08
6.61371e-08
6.60962e-08
6.59922e-08
6.5862e-08
6.5755e-08
6.5653e-08
6.54681e-08
6.52408e-08
6.50923e-08
6.50292e-08
6.50171e-08
6.5044e-08
6.50644e-08
6.50667e-08
6.5063e-08
6.50192e-08
6.48868e-08
6.47213e-08
6.46486e-08
6.46501e-08
6.47076e-08
6.4832e-08
6.48974e-08
6.48905e-08
6.48461e-08
6.48716e-08
6.50401e-08
6.52616e-08
6.54298e-08
6.57019e-08
6.60744e-08
6.64565e-08
6.73748e-08
7.02083e-08
7.71416e-08
9.2057e-08
1.24806e-07
2.06045e-07
4.20917e-07
9.62888e-07
2.21406e-06
4.88833e-06
7.50268e-06
8.19652e-06
5.70984e-06
2.73481e-06
1.07257e-06
4.5668e-07
3.57754e-07
5.07443e-07
9.8238e-07
1.99985e-06
4.04909e-06
7.94217e-06
1.37315e-05
6.78714e-06
6.01921e-07
2.40583e-07
3.40739e-07
7.33712e-07
1.97035e-06
6.68671e-06
2.89215e-05
0.000145886
0.000746483
0.00298686
0.00654554
0.00827581
0.00922498
0.0127146
0.0224762
0.0421843
0.0767528
0.132058
0.228877
0.388968
0.620794
0.953803
1.35541
1.7362
1.99231
2.07169
2.04482
2.02747
2.06522
2.15536
2.42773
2.77959
3.1252
3.45233
3.77784
3.63123
2.11433
0.448118
0.0142227
0.00190523
0.000754426
0.000276966
8.37792e-06
8.44922e-08
9.42792e-08
1.12118e-07
1.17268e-07
9.12838e-08
7.6519e-08
7.63834e-08
7.72505e-08
8.37272e-08
8.81381e-08
7.76016e-08
7.28823e-08
7.10687e-08
6.9832e-08
6.85579e-08
6.73537e-08
6.62513e-08
6.52734e-08
6.44709e-08
6.39114e-08
6.35948e-08
6.34897e-08
6.3502e-08
6.35978e-08
6.37905e-08
6.40567e-08
6.43832e-08
6.47776e-08
6.52438e-08
6.56079e-08
6.58623e-08
6.60303e-08
6.61434e-08
6.62234e-08
6.62944e-08
6.63721e-08
6.64292e-08
6.6442e-08
6.6449e-08
6.6497e-08
6.65433e-08
6.65338e-08
6.64358e-08
6.63944e-08
6.64101e-08
6.64595e-08
6.64735e-08
6.63928e-08
6.63443e-08
6.63493e-08
6.63234e-08
6.62447e-08
6.61906e-08
6.61892e-08
6.64506e-08
6.69333e-08
6.75085e-08
6.81804e-08
6.88507e-08
6.9702e-08
7.104e-08
7.33283e-08
7.65562e-08
8.03366e-08
8.52879e-08
9.0955e-08
9.68936e-08
1.07071e-07
1.31053e-07
1.84823e-07
3.00037e-07
5.52602e-07
1.16467e-06
2.73329e-06
6.58467e-06
1.5283e-05
3.3805e-05
5.60379e-05
6.53614e-05
5.38243e-05
3.09602e-05
1.47183e-05
6.14955e-06
2.91927e-06
1.8381e-06
1.96123e-06
3.49118e-06
7.15819e-06
1.46311e-05
2.75429e-05
0.000558191
4.96542e-05
5.54949e-06
3.16996e-06
6.37623e-06
2.09036e-05
8.64553e-05
0.000425182
0.00205585
0.00828284
0.0248867
0.0456291
0.050753
0.0432287
0.0393387
0.050494
0.0803055
0.134332
0.222232
0.371609
0.607345
0.93145
1.3804
1.96325
2.55908
2.97244
3.03133
2.94107
2.87725
2.88123
2.95675
3.20288
3.36394
3.66101
4.04898
4.68637
5.4569
4.58385
1.89654
0.261973
0.069247
0.0416972
0.0289697
0.00612993
9.50755e-05
2.57326e-05
2.30802e-05
1.79672e-05
3.89456e-06
9.44475e-08
8.26239e-08
2.11506e-07
7.81364e-07
1.17092e-06
4.14334e-07
1.0837e-07
6.56765e-08
6.12797e-08
5.97029e-08
5.83785e-08
5.71416e-08
5.60912e-08
5.53113e-08
5.49122e-08
5.48346e-08
5.50041e-08
5.54411e-08
5.61437e-08
5.70888e-08
5.81002e-08
5.91589e-08
6.02722e-08
6.13782e-08
6.23395e-08
6.31494e-08
6.38424e-08
6.44351e-08
6.49485e-08
6.54037e-08
6.58029e-08
6.61087e-08
6.63303e-08
6.65031e-08
6.66899e-08
6.6858e-08
6.69794e-08
6.70625e-08
6.71734e-08
6.73616e-08
6.76477e-08
6.78857e-08
6.8031e-08
6.81803e-08
6.83381e-08
6.84539e-08
6.85461e-08
6.87392e-08
6.92912e-08
7.04535e-08
7.2394e-08
7.52338e-08
7.88251e-08
8.29516e-08
8.86117e-08
9.71126e-08
1.10954e-07
1.30349e-07
1.53805e-07
1.83934e-07
2.19761e-07
2.61175e-07
3.28901e-07
4.77524e-07
8.07143e-07
1.51277e-06
3.04159e-06
6.62586e-06
1.54035e-05
3.61226e-05
8.12647e-05
0.000174199
0.000301852
0.000370998
0.000349751
0.00024285
0.00014565
7.63721e-05
4.02276e-05
2.17223e-05
1.25224e-05
9.98487e-06
1.32604e-05
2.41988e-05
4.58252e-05
0.00991918
0.00113443
0.000121889
3.73213e-05
6.00357e-05
0.000198546
0.000816344
0.00351048
0.0130225
0.0384382
0.0905834
0.151148
0.167528
0.140658
0.101556
0.103475
0.138731
0.216211
0.345743
0.562265
0.891396
1.31713
1.88349
2.6828
3.55545
4.26354
4.31026
4.04039
3.85847
3.78048
3.76045
3.90466
3.63433
3.61051
3.97455
4.70977
6.32504
7.21434
4.89628
1.47276
0.551877
0.426963
0.444543
0.221735
0.0183826
0.00555483
0.00467416
0.003937
0.00120921
4.02029e-05
1.85746e-06
1.25624e-05
5.61036e-05
7.63219e-05
2.59637e-05
4.12488e-06
3.99791e-07
6.26965e-08
4.52792e-08
4.30504e-08
4.14987e-08
4.01547e-08
3.90716e-08
3.8366e-08
3.80141e-08
3.79371e-08
3.82559e-08
3.90565e-08
4.0445e-08
4.25101e-08
4.49952e-08
4.73862e-08
5.01584e-08
5.29748e-08
5.54836e-08
5.75875e-08
5.92149e-08
6.05657e-08
6.17033e-08
6.27131e-08
6.35856e-08
6.4304e-08
6.4892e-08
6.54015e-08
6.58806e-08
6.6313e-08
6.66787e-08
6.69922e-08
6.73214e-08
6.7813e-08
6.84833e-08
6.93423e-08
7.01634e-08
7.10802e-08
7.19963e-08
7.28936e-08
7.41004e-08
7.65378e-08
8.13638e-08
8.94346e-08
1.01665e-07
1.18335e-07
1.38658e-07
1.64344e-07
2.01632e-07
2.61064e-07
3.47308e-07
4.58193e-07
5.98194e-07
7.6912e-07
9.83233e-07
1.32607e-06
2.04045e-06
3.60044e-06
6.91544e-06
1.39513e-05
2.97577e-05
6.63515e-05
0.000148059
0.000315594
0.000635973
0.00109941
0.00140424
0.00143681
0.00120486
0.000899887
0.000607404
0.000394735
0.00024628
0.00014481
8.71437e-05
6.1464e-05
6.23664e-05
8.47891e-05
0.0625764
0.0115423
0.00148442
0.000373646
0.0004826
0.00140506
0.00491133
0.0162205
0.045211
0.10561
0.214603
0.344617
0.390135
0.340076
0.230309
0.192592
0.224062
0.324927
0.503463
0.797957
1.21798
1.75981
2.53754
3.58347
4.7134
5.88932
6.0717
5.43214
5.02818
4.85559
4.7709
5.07287
4.73694
4.50811
4.8553
5.16133
6.45977
9.05755
8.41981
4.35972
2.0743
1.8635
2.35342
1.93784
0.435047
0.130429
0.106218
0.0999524
0.0518031
0.0115818
0.00197647
0.00134485
0.00394486
0.00415806
0.00153789
0.00031059
3.91289e-05
2.46507e-06
1.32275e-07
4.14981e-08
3.56361e-08
3.35277e-08
3.18133e-08
3.03477e-08
2.90871e-08
2.79886e-08
2.70441e-08
2.63416e-08
2.58731e-08
2.55415e-08
2.80992e-08
3.03328e-08
3.20733e-08
3.44294e-08
3.73707e-08
4.10079e-08
4.49736e-08
4.84337e-08
5.12506e-08
5.36955e-08
5.5854e-08
5.77253e-08
5.91894e-08
6.02984e-08
6.12957e-08
6.22633e-08
6.31818e-08
6.40347e-08
6.50008e-08
6.65953e-08
6.88113e-08
7.10916e-08
7.35735e-08
7.61758e-08
7.87099e-08
8.17419e-08
8.62298e-08
9.44412e-08
1.09766e-07