/*--------------------------------*- C++ -*----------------------------------*\
| =========                 |                                                 |
| \\      /  F ield         | OpenFOAM: The Open Source CFD Toolbox           |
|  \\    /   O peration     | Version:  v1912                                 |
|   \\  /    A nd           | Website:  www.openfoam.com                      |
|    \\/     M anipulation  |                                                 |
\*---------------------------------------------------------------------------*/
FoamFile
{
    version     2.0;
    format      ascii;
    class       surfaceScalarField;
    location    "90";
    object      alphaPhi0.water;
}
// * * * * * * * * * * * * * * * * * * * * * * * * * * * * * * * * * * * * * //

dimensions      [0 3 -1 0 0 0 0];
oriented        oriented;


internalField   nonuniform List<scalar> 
28285
(
-0.127519
-0.00806966
-0.116004
-0.0115143
-0.101597
-0.0144076
-0.0849167
-0.0166799
-0.0666047
-0.018312
-0.0472763
-0.0193284
-0.0274938
-0.0197825
-0.00774863
-0.0197452
0.0115994
-0.0193481
0.0301521
-0.0185527
0.0474848
-0.0173327
0.0633228
-0.015838
0.0774519
-0.0141292
0.089681
-0.012229
0.0998575
-0.0101765
0.107885
-0.00802721
0.113732
-0.0058473
0.117439
-0.00370707
0.119111
-0.00167196
0.118858
0.000253496
0.116939
0.0019183
0.113493
0.00344627
0.108667
0.00482605
0.102567
0.00610022
0.0952476
0.00731909
0.0867225
0.00852504
0.0769831
0.00973939
0.0660295
0.0109536
0.0539033
0.0121262
0.0407151
0.0131882
0.0266609
0.0140543
0.0120202
0.0146406
-0.00286842
0.0148886
-0.0176833
0.0148149
-0.0319756
0.0142923
-0.0454345
0.013459
-0.0578422
0.0124077
-0.0690894
0.0112472
-0.0791593
0.0100699
-0.0881038
0.00894447
-0.0960056
0.00790181
-0.102931
0.0069257
-0.108885
0.00595399
-0.113775
0.00488982
-0.117438
0.00366337
-0.11944
0.0020015
-0.119121
-0.000318733
-0.116318
-0.00280361
-0.110679
-0.00563871
-0.101968
-0.00871074
-0.0901165
-0.0118517
-0.0752564
-0.0148601
-0.0577329
-0.0175235
-0.0380823
-0.0196506
-0.0169943
-0.021088
0.00473662
-0.0217309
0.0263143
-0.0215777
0.0469332
-0.0206188
0.065874
-0.0189408
0.0825303
-0.0166564
0.0964265
-0.0138961
0.107222
-0.0107959
0.11471
-0.00748807
0.118803
-0.00409266
0.119521
-0.00071754
0.11697
0.00255053
0.111433
0.0055374
0.103215
0.00821747
0.0927539
0.0104613
0.0805749
0.012179
0.0672758
0.0132992
0.0535219
0.0137539
0.0399791
0.0135428
0.0271957
0.0127834
0.0155842
0.0116116
0.0053879
0.0101963
-0.00335308
0.00874097
-0.0108207
0.00746763
-0.0172642
0.00644346
-0.0231591
0.00589494
-0.0290719
0.00591276
-0.035517
0.00644516
-0.0429033
0.00738628
-0.0514631
0.00855977
-0.0612015
0.00973845
-0.0718727
0.0106712
-0.082966
0.0110933
-0.0936691
0.0107031
-0.103121
0.00945159
-0.110511
0.00739047
-0.115077
0.00456628
-0.116237
0.00115996
-0.113473
-0.0027642
-0.106781
-0.00669201
-0.0963219
-0.0104593
-0.082499
-0.0138229
-0.0659278
-0.0165712
-0.0473751
-0.0185527
-0.0276519
-0.0197232
-0.00751088
-0.0201411
0.0123468
-0.0198577
0.0314993
-0.0191524
0.0496146
-0.0181153
0.0664929
-0.0168783
0.0820275
-0.0155346
0.0961535
-0.014126
0.108797
-0.0126432
0.11983
-0.0110334
0.129052
-0.00922209
0.13618
-0.00712807
0.140869
-0.00468896
0.142748
-0.00187862
0.141404
0.00134409
0.136772
0.00463145
0.128622
0.00815
0.117028
0.0115944
0.102252
0.0147763
0.0847389
0.0175126
0.0650964
0.0196425
0.04404
0.0210564
0.0223391
0.0217009
0.000743459
0.0215957
-0.020304
0.0210475
-0.039952
0.019648
-0.0577566
0.0178046
-0.0733821
0.0156255
-0.0865967
0.0132146
-0.0972773
0.0106806
-0.105373
0.00809545
-0.110908
0.00553548
-0.114022
0.00311364
-0.114821
0.000799607
-0.113526
-0.00129576
-0.110485
-0.00304118
-0.106076
-0.00440887
-0.100715
-0.00536037
-0.0948245
-0.00589081
-0.0888026
-0.00602186
-0.0829716
-0.005831
-0.0775133
-0.00545831
-0.0724345
-0.00507882
-0.0675799
-0.0048546
-0.0626305
-0.00494938
-0.0571348
-0.00549573
-0.0506163
-0.00651846
-0.042631
-0.0079853
-0.0328282
-0.00980286
-0.0210743
-0.0117538
-0.00750708
-0.0135673
0.00745844
-0.0149655
0.0231981
-0.0157397
0.03897
-0.0157719
0.0539764
-0.0150064
0.0674559
-0.0134795
0.0787934
-0.0113375
0.0876273
-0.00883394
0.0938595
-0.00623215
0.0976243
-0.00376484
0.0992616
-0.00163726
0.0992346
2.69813e-05
0.0980802
0.00115435
0.0961921
0.00188812
0.0939871
0.00220505
0.00223308
-0.127863
-0.0163296
-0.116228
-0.0231494
-0.101741
-0.0288943
-0.0850081
-0.033413
-0.0666578
-0.0366624
-0.0472981
-0.0386881
-0.0274866
-0.039594
-0.00771495
-0.0395168
0.011603
-0.0386661
0.0300276
-0.0369772
0.047307
-0.0346121
0.0631652
-0.0316963
0.0773385
-0.0283024
0.0896141
-0.0245047
0.0998319
-0.0203943
0.107892
-0.0160876
0.113763
-0.0117184
0.117485
-0.00742815
0.119159
-0.0033469
0.118922
0.00049111
0.117
0.00384002
0.11355
0.00689654
0.108722
0.00965398
0.102624
0.0121985
0.0953099
0.0146327
0.0867924
0.0170426
0.0770605
0.0194713
0.0661123
0.0219018
0.0539882
0.0242504
0.0407978
0.0263785
0.0267363
0.0281159
0.0120818
0.0292951
-0.00282601
0.0297964
-0.0175684
0.0295573
-0.0318299
0.0285538
-0.045293
0.0269221
-0.0577246
0.0248392
-0.0689935
0.0225161
-0.0790727
0.0201491
-0.0880112
0.0178831
-0.0958915
0.015782
-0.102779
0.013813
-0.108675
0.01185
-0.113484
0.00969921
-0.11712
0.00729922
-0.119078
0.00395958
-0.118867
-0.000529581
-0.116248
-0.00542244
-0.110739
-0.0111477
-0.102109
-0.0173409
-0.0903008
-0.0236603
-0.0754511
-0.0297098
-0.0579111
-0.0350634
-0.0382219
-0.0393398
-0.0170775
-0.0422324
0.00472923
-0.0435377
0.0263751
-0.0432236
0.0470563
-0.0413
0.0660473
-0.0379318
0.0827401
-0.0333492
0.0966586
-0.0278146
0.107464
-0.021601
0.114949
-0.0149738
0.119031
-0.00817442
0.119736
-0.00142228
0.117154
0.00513231
0.111585
0.0111062
0.103323
0.0164795
0.0928083
0.0209763
0.0805711
0.0244161
0.0672373
0.026633
0.0534741
0.0275171
0.0398968
0.0271201
0.0270654
0.0256148
0.0154125
0.0232644
0.00519337
0.0204154
-0.00352819
0.0174625
-0.0109246
0.0148641
-0.0173021
0.0128209
-0.0231487
0.0117415
-0.0290042
0.0117682
-0.035398
0.012839
-0.0427506
0.0147389
-0.0512981
0.0171073
-0.0610383
0.0194786
-0.0717057
0.0213386
-0.0827914
0.022179
-0.0936055
0.0215173
-0.103206
0.0190521
-0.110734
0.014918
-0.115464
0.00929623
-0.116659
0.00235514
-0.11393
-0.00549298
-0.107243
-0.0133793
-0.0967532
-0.0209487
-0.082863
-0.0277132
-0.0661937
-0.0332404
-0.0475345
-0.0372119
-0.0277164
-0.0395413
-0.00748122
-0.0403763
0.0124248
-0.0397637
0.0316032
-0.0383308
0.049729
-0.0362411
0.0666081
-0.0337574
0.0821399
-0.0310665
0.0962662
-0.0282523
0.108918
-0.0252948
0.119971
-0.0220869
0.129227
-0.0184773
0.136399
-0.0143005
0.141139
-0.00942877
0.14307
-0.00380948
0.141748
0.00266548
0.137147
0.00923222
0.129
0.0162971
0.117386
0.023209
0.102569
0.0295932
0.0849982
0.0350832
0.0652851
0.0393557
0.0441498
0.0421917
0.0223624
0.0434882
0.000662691
0.0432954
-0.0203093
0.0420194
-0.040013
0.0393517
-0.0579057
0.0356973
-0.0735908
0.0313106
-0.0868479
0.0264718
-0.0975589
0.0213915
-0.105671
0.0162074
-0.111208
0.011073
-0.114331
0.00623582
-0.115092
0.00156098
-0.113759
-0.00262822
-0.11067
-0.00613016
-0.106208
-0.00887125
-0.100794
-0.0107749
-0.0948477
-0.0118367
-0.0887802
-0.0120893
-0.082925
-0.0116862
-0.0774657
-0.0109176
-0.0724068
-0.0101378
-0.0675901
-0.00967128
-0.0626904
-0.00984905
-0.0572629
-0.0109233
-0.0508202
-0.0129611
-0.0428916
-0.0159138
-0.0331136
-0.0195809
-0.021346
-0.0235214
-0.00772587
-0.0271874
0.00731114
-0.0300025
0.0231499
-0.0315785
0.039024
-0.031646
0.0541225
-0.0301049
0.0676572
-0.0270142
0.0790126
-0.0226928
0.0878614
-0.0176828
0.0941135
-0.0124842
0.0978812
-0.0075326
0.0994822
-0.00323825
0.0994141
9.51097e-05
0.0981981
0.00237033
0.096255
0.00383122
0.0940126
0.00444748
0.0044862
-0.128802
-0.0247488
-0.116986
-0.034966
-0.102315
-0.0435646
-0.0854089
-0.0503195
-0.0669016
-0.0551697
-0.0474038
-0.0581859
-0.0274735
-0.0595242
-0.00760221
-0.0593882
0.0117769
-0.0580452
0.0302808
-0.0554811
0.0476326
-0.0519638
0.0635443
-0.047608
0.0777642
-0.0425223
0.0900796
-0.0368201
0.100326
-0.0306405
0.108399
-0.0241608
0.114265
-0.0175843
0.117964
-0.0111269
0.119604
-0.00498725
0.119325
0.000770019
0.117364
0.00580104
0.113878
0.0103829
0.109026
0.0145061
0.102917
0.0183067
0.095606
0.0219441
0.0870972
0.0255514
0.0773721
0.0291964
0.0664201
0.0328538
0.0542738
0.0363966
0.041039
0.0396133
0.026911
0.0422439
0.0121747
0.0440314
-0.00281064
0.0447818
-0.0176563
0.0444029
-0.0320004
0.0428979
-0.0455176
0.0404393
-0.0579744
0.037296
-0.069244
0.0337857
-0.0793052
0.0302103
-0.0882163
0.0267942
-0.0960714
0.0236371
-0.102948
0.0206898
-0.108859
0.0177605
-0.113728
0.0145684
-0.117384
0.0109551
-0.119365
0.00594028
-0.119218
-0.000676452
-0.116678
-0.00796264
-0.111327
-0.0164983
-0.102807
-0.0258607
-0.0910216
-0.0354458
-0.0761206
-0.0446109
-0.0584685
-0.0527155
-0.0386182
-0.0591901
-0.0172776
-0.063573
0.00475196
-0.0655673
0.0266094
-0.0650811
0.0474799
-0.0621705
0.0666276
-0.0570795
0.0834403
-0.0501618
0.0974403
-0.0418147
0.108291
-0.0324512
0.115786
-0.0224695
0.119847
-0.012235
0.12051
-0.00208584
0.117848
0.00779426
0.112169
0.0167852
0.103764
0.0248844
0.0930931
0.0316477
0.0807236
0.0367856
0.06728
0.0400766
0.0533882
0.0414089
0.0396814
0.0408269
0.0267397
0.0385565
0.015015
0.0349891
0.00477547
0.030655
-0.0039095
0.0261475
-0.0112007
0.0221553
-0.0174454
0.0190656
-0.0231419
0.017438
-0.0288518
0.0174781
-0.0351279
0.0191152
-0.0424118
0.0220228
-0.0509519
0.0256474
-0.0607482
0.0292749
-0.071528
0.0321184
-0.0827694
0.0334203
-0.0937794
0.0325273
-0.103685
0.0289582
-0.1115
0.0227329
-0.116425
0.0142207
-0.117729
0.00365963
-0.115045
-0.00817671
-0.10833
-0.0200947
-0.097738
-0.0315409
-0.0836743
-0.0417769
-0.0667762
-0.0501385
-0.0478738
-0.0561143
-0.0278314
-0.0595836
-0.00740368
-0.060804
0.0126277
-0.0597951
0.03189
-0.0575932
0.0500637
-0.0544148
0.0669651
-0.0506588
0.0825086
-0.0466099
0.0966499
-0.0423936
0.109333
-0.0379775
0.120441
-0.0331951
0.129776
-0.0278126
0.137049
-0.0215732
0.141898
-0.014278
0.143934
-0.00584488
0.14268
0.00391877
0.138118
0.0137944
0.129957
0.0244577
0.118273
0.0348933
0.103334
0.0445326
0.0855975
0.0528196
0.0656893
0.0592638
0.0443462
0.0635348
0.0223518
0.0654826
0.000449147
0.0651981
-0.0206296
0.0630982
-0.0404135
0.0591356
-0.0584348
0.0537186
-0.0742255
0.0471013
-0.0875439
0.0397902
-0.0982879
0.0321355
-0.106406
0.0243252
-0.11193
0.016597
-0.115007
0.00931344
-0.115687
0.00224116
-0.114268
-0.00404813
-0.111068
-0.0093299
-0.10648
-0.0134586
-0.100938
-0.0163174
-0.0948774
-0.0178972
-0.088721
-0.0182457
-0.0828155
-0.0175917
-0.077358
-0.0163751
-0.0723488
-0.015147
-0.0676254
-0.0143947
-0.062854
-0.0146204
-0.0575696
-0.0162077
-0.0512616
-0.0192692
-0.0434333
-0.0237422
-0.0336931
-0.0293211
-0.0218853
-0.0353293
-0.00814368
-0.0409289
0.00708488
-0.0452311
0.0231414
-0.047635
0.0392409
-0.0477455
0.0545368
-0.0454008
0.0681837
-0.0406611
0.079618
-0.0341271
0.0885227
-0.0265874
0.0947689
-0.0187304
0.0984787
-0.0112424
0.0999624
-0.00472194
0.0997729
0.000284632
0.0984131
0.00373006
0.0963513
0.00589303
0.094033
0.00676586
0.00676449
-0.130248
-0.0333747
-0.118177
-0.0470371
-0.103235
-0.0585073
-0.0860594
-0.0674947
-0.0673011
-0.073928
-0.047578
-0.077909
-0.027452
-0.0796503
-0.00741404
-0.0794261
0.0120988
-0.077558
0.0307361
-0.0741185
0.0482008
-0.0694285
0.0642091
-0.0636163
0.0785111
-0.0568243
0.0908915
-0.0492005
0.10118
-0.0409292
0.109269
-0.0322493
0.11512
-0.0234357
0.118777
-0.0147833
0.120355
-0.0065657
0.120003
0.00112247
0.117971
0.00783233
0.114423
0.013931
0.109529
0.0194001
0.103402
0.024434
0.0960908
0.0292551
0.0875924
0.0340499
0.0778744
0.0389143
0.0669119
0.0438163
0.0547257
0.0485828
0.0414145
0.0529245
0.0271745
0.0564839
0.0122995
0.0589063
-0.00283249
0.0599138
-0.017838
0.0594084
-0.0323134
0.0573732
-0.0459228
0.0540488
-0.0584267
0.0497999
-0.0697015
0.0450605
-0.0797366
0.0402454
-0.0886071
0.0356646
-0.0964276
0.0314576
-0.103296
0.0275584
-0.10924
0.0237046
-0.114199
0.0195272
-0.117966
0.0147224
-0.120104
0.00807839
-0.120128
-0.000652724
-0.117713
-0.0103772
-0.112423
-0.0217883
-0.103974
-0.0343102
-0.0921996
-0.0472201
-0.0772023
-0.0596081
-0.0593614
-0.0705564
-0.0392447
-0.0793068
-0.0175845
-0.0852332
0.00479554
-0.0879473
0.0269905
-0.0872761
0.0481583
-0.0833383
0.0675509
-0.0764721
0.0845479
-0.0671588
0.0986671
-0.0559338
0.109569
-0.0433528
0.117047
-0.0299475
0.121027
-0.0162148
0.121594
-0.00265312
0.118789
0.0105996
0.112978
0.0225957
0.104444
0.0334186
0.0936332
0.0424585
0.0810822
0.0493366
0.0674088
0.0537499
0.0532778
0.05554
0.039352
0.0547527
0.0262357
0.0516728
0.0144035
0.0468213
0.00413943
0.040919
-0.00449108
0.034778
-0.0116363
0.0293005
-0.0176756
0.025105
-0.0231361
0.0228985
-0.0286187
0.0229606
-0.0347132
0.0252097
-0.0418929
0.0292024
-0.0504266
0.0341811
-0.060322
0.0391703
-0.071298
0.0430943
-0.0828093
0.0449317
-0.0941262
0.0438442
-0.104474
0.0393061
-0.112707
0.0309654
-0.117882
0.0193958
-0.119368
0.00514529
-0.11675
-0.0107942
-0.109987
-0.0268582
-0.0992328
-0.0422946
-0.0849004
-0.0561093
-0.0676498
-0.0673891
-0.0483749
-0.0753893
-0.0279874
-0.0799711
-0.00727821
-0.0815132
0.0129453
-0.0800186
0.0323362
-0.0769841
0.050583
-0.0726616
0.0675179
-0.0675937
0.0830778
-0.0621698
0.09724
-0.0565558
0.109967
-0.0507046
0.121156
-0.044384
0.130611
-0.0372676
0.138035
-0.0289968
0.143048
-0.0192911
0.145239
-0.00803616
0.144093
0.00506472
0.139584
0.0183033
0.1314
0.0326413
0.119609
0.0466847
0.104483
0.0596588
0.0864941
0.0708082
0.0662898
0.0794681
0.0446324
0.0851922
0.0223294
0.0877855
0.000109098
0.0874184
-0.0211531
0.0843603
-0.0410857
0.0790683
-0.0592265
0.0718594
-0.0751771
0.0630519
-0.0885934
0.0532066
-0.0993877
0.0429297
-0.107517
0.0324547
-0.113006
0.0220858
-0.11602
0.012327
-0.116583
0.00280491
-0.115028
-0.00560311
-0.11166
-0.0126987
-0.106884
-0.0182341
-0.10115
-0.0220512
-0.0949171
-0.0241304
-0.0886188
-0.024544
-0.0826416
-0.023569
-0.0771816
-0.021835
-0.0722457
-0.0200829
-0.0676622
-0.0189782
-0.0630844
-0.0191983
-0.0580181
-0.0212739
-0.051919
-0.0253682
-0.0442467
-0.0314145
-0.0345666
-0.0390012
-0.0226993
-0.0471965
-0.00877349
-0.0548548
0.0067401
-0.0607447
0.0231175
-0.0640123
0.0395395
-0.0641675
0.0550991
-0.0609604
0.0689821
-0.0545441
0.0805924
-0.0457374
0.0895514
-0.0355464
0.0957596
-0.0249386
0.099365
-0.0148479
0.10068
-0.00603674
0.100317
0.000647356
0.0987399
0.00530724
0.096499
0.00813391
0.0940644
0.00920047
0.00909518
-0.132193
-0.0422696
-0.119788
-0.0594419
-0.104483
-0.0738116
-0.0869467
-0.0850314
-0.0678466
-0.0930281
-0.0478145
-0.097941
-0.0274188
-0.100046
-0.00714944
-0.0996954
0.0125586
-0.097266
0.0313731
-0.092933
0.0489931
-0.0870485
0.0651367
-0.0797599
0.079554
-0.0712417
0.092025
-0.0616715
0.102372
-0.0512765
0.110481
-0.040358
0.116311
-0.0292657
0.119907
-0.0183793
0.121396
-0.0080545
0.120943
0.001575
0.11881
0.00996602
0.115174
0.0175665
0.110221
0.0243531
0.104067
0.0305882
0.096756
0.0365661
0.0882716
0.0425343
0.0785633
0.0486226
0.067586
0.0547936
0.0553439
0.060825
0.0419262
0.0663422
0.0275297
0.0708804
0.0124595
0.0739764
-0.00288719
0.0752605
-0.0181041
0.0746254
-0.0327594
0.0720285
-0.0464974
0.0677868
-0.0590688
0.0623712
-0.0703526
0.0563443
-0.0803527
0.0502455
-0.0891678
0.0444797
-0.0969415
0.0392313
-0.1038
0.0344174
-0.109793
0.0296975
-0.114867
0.024601
-0.118815
0.0186702
-0.12119
0.0104535
-0.121459
-0.000383777
-0.119269
-0.0125667
-0.114125
-0.0269325
-0.105702
-0.0427336
-0.0938751
-0.0590468
-0.0787235
-0.0747598
-0.0606091
-0.0886709
-0.0401115
-0.0998043
-0.0180008
-0.107344
0.00484681
-0.110795
0.0275101
-0.109939
0.0490722
-0.1049
0.0687729
-0.0961728
0.0859728
-0.0843587
0.100187
-0.0701477
0.111107
-0.0542738
0.118585
-0.0374249
0.122566
-0.0201961
0.123083
-0.00316972
0.120265
0.0134171
0.114326
0.0285347
0.105592
0.0421533
0.094514
0.053536
0.0816451
0.0622054
0.0676244
0.0677706
0.0531468
0.0700176
0.0389091
0.0689903
0.025548
0.0650339
0.0135678
0.0588015
0.00327476
0.0512121
-0.00528457
0.0433374
-0.0122354
0.0362513
-0.0179931
0.0308626
-0.0231296
0.028035
-0.0282995
0.0281306
-0.0341451
0.0310553
-0.0411833
0.0362407
-0.0497115
0.0427094
-0.0597498
0.0492086
-0.0710071
0.0543516
-0.0829073
0.0568319
-0.0946745
0.0556114
-0.105586
0.0502173
-0.114323
0.039703
-0.119862
0.0249349
-0.121599
0.00688224
-0.119068
-0.0133257
-0.112233
-0.0336925
-0.101254
-0.0532744
-0.0865508
-0.0708122
-0.0688185
-0.0851214
-0.0490381
-0.0951696
-0.0281811
-0.100828
-0.00710212
-0.102592
0.0133856
-0.100506
0.0329502
-0.0965487
0.0512949
-0.0910063
0.0682733
-0.0845721
0.0838531
-0.0777496
0.0980404
-0.0707431
0.110824
-0.0634885
0.122121
-0.0556803
0.131738
-0.0468855
0.139369
-0.0366272
0.144606
-0.0245283
0.147006
-0.010436
0.146021
0.00604927
0.141573
0.022752
0.133355
0.0408587
0.121415
0.0586252
0.106032
0.075042
0.0876987
0.0891412
0.0670919
0.100075
0.0450081
0.107276
0.0222913
0.110502
-0.000257773
0.109968
-0.0218855
0.105988
-0.0420627
0.0992454
-0.0603725
0.0901692
-0.0764803
0.0791597
-0.0900313
0.0667576
-0.100892
0.0537903
-0.10902
0.0405823
-0.114443
0.0275096
-0.117377
0.015261
-0.117781
0.00320814
-0.11604
-0.00734358
-0.112451
-0.0162873
-0.107429
-0.0232561
-0.101444
-0.0280365
-0.0949793
-0.0305953
-0.0884911
-0.0310321
-0.0824029
-0.0296572
-0.0769361
-0.0273018
-0.0720975
-0.0249215
-0.067705
-0.0233707
-0.0633925
-0.0235107
-0.0586247
-0.0260418
-0.0528078
-0.031185
-0.0453479
-0.0388745
-0.0357517
-0.0485974
-0.0238058
-0.0591424
-0.00962846
-0.0690321
0.00628325
-0.0766564
0.0230992
-0.0808283
0.0399695
-0.0810379
0.0559505
-0.0769415
0.0701818
-0.0687753
0.0819946
-0.0575503
0.091011
-0.0445628
0.0971516
-0.0310792
0.100586
-0.0182827
0.101662
-0.00711218
0.101036
0.00127298
0.0991553
0.00718815
0.0966688
0.0106205
0.0940757
0.0117935
0.0114827
-0.134637
-0.0515066
-0.121815
-0.0722646
-0.106057
-0.0895693
-0.0880642
-0.103024
-0.0685312
-0.112561
-0.0481068
-0.118365
-0.0273685
-0.120784
-0.00680535
-0.120259
0.0131543
-0.117226
0.0321893
-0.111968
0.0500057
-0.104865
0.0663219
-0.0960762
0.0808874
-0.0858071
0.093475
-0.0742592
0.103898
-0.0616995
0.112033
-0.0484927
0.117835
-0.035068
0.121352
-0.0218961
0.122721
-0.00942356
0.122142
0.00215385
0.119872
0.0122361
0.116123
0.0213156
0.111094
0.0293823
0.104905
0.0367764
0.0975962
0.0438753
0.0891322
0.0509983
0.0794389
0.058316
0.0684451
0.0657873
0.056133
0.0731371
0.0425794
0.0798958
0.0279814
0.0854784
0.0126585
0.0892993
-0.00296774
0.0908868
-0.018455
0.0901127
-0.0333409
0.0869143
-0.0472441
0.08169
-0.059902
0.0750291
-0.0711962
0.0676385
-0.0811493
0.0601986
-0.0898902
0.0532207
-0.0976006
0.0469417
-0.104445
0.0412615
-0.110499
0.0357519
-0.115715
0.0298169
-0.1199
0.0228549
-0.122597
0.0131505
-0.123172
0.000191372
-0.121287
-0.0144512
-0.116353
-0.0318667
-0.108006
-0.0510805
-0.0960915
-0.0709617
-0.0807172
-0.0901341
-0.0622311
-0.107157
-0.0412248
-0.120811
-0.0185228
-0.130046
0.00490638
-0.134224
0.0280995
-0.133133
0.0501517
-0.126953
0.070242
-0.116263
0.0877426
-0.101859
0.102192
-0.0845971
0.113287
-0.065369
0.120854
-0.0449921
0.124838
-0.0241794
0.125259
-0.00359061
0.122321
0.0163547
0.116161
0.0346952
0.107131
0.0511828
0.0956872
0.0649797
0.0823949
0.0754978
0.0679185
0.082247
0.0529885
0.0849476
0.0383441
0.0836348
0.0246643
0.0787137
0.0124922
0.0709736
0.00216833
0.0615359
-0.00630665
0.0518123
-0.0130097
0.0429544
-0.0184027
0.0362556
-0.0231203
0.0327527
-0.0278857
0.032896
-0.0334088
0.0365784
-0.0402638
0.0430957
-0.0487858
0.0512313
-0.0590109
0.0594337
-0.070636
0.0659767
-0.0830468
0.0692427
-0.0954022
0.0679668
-0.106929
0.0617444
-0.116334
0.0491078
-0.122377
0.0309777
-0.124441
0.00894592
-0.122019
-0.0157473
-0.115091
-0.0406204
-0.103817
-0.0645489
-0.0886338
-0.0859949
-0.0702825
-0.103473
-0.0498567
-0.115595
-0.0284022
-0.122283
-0.00686423
-0.12413
0.0139608
-0.121331
0.033741
-0.116329
0.0522041
-0.109469
0.0692303
-0.101598
0.0848269
-0.0933462
0.0990342
-0.0849504
0.11188
-0.0763338
0.123308
-0.0671087
0.133136
-0.0567139
0.141036
-0.0445266
0.146563
-0.0300554
0.149232
-0.0131054
0.148466
0.00681569
0.144082
0.0271352
0.135822
0.0491195
0.123689
0.0707581
0.107977
0.0907537
0.0892082
0.10791
0.0680934
0.12119
0.0454704
0.129899
0.0222275
0.133745
-0.000786771
0.132982
-0.0228344
0.128036
-0.0433339
0.119745
-0.0618798
0.108715
-0.078166
0.0954459
-0.0918796
0.0804712
-0.102797
0.0647082
-0.110897
0.0486814
-0.116252
0.0328653
-0.119079
0.0180878
-0.119291
0.00342034
-0.117321
-0.00931377
-0.113452
-0.0201567
-0.108114
-0.028594
-0.101803
-0.0343476
-0.0950357
-0.0373622
-0.0883166
-0.0377513
-0.0820782
-0.0358956
-0.0766018
-0.0327782
-0.071885
-0.0296384
-0.0677387
-0.027517
-0.0637674
-0.027482
-0.0593862
-0.030423
-0.0539366
-0.0366347
-0.0467557
-0.0460554
-0.0372727
-0.0580803
-0.0252287
-0.0711865
-0.0107271
-0.0835338
0.00569689
-0.0930804
0.0230811
-0.0982125
0.0405372
-0.098494
0.0570726
-0.0934769
0.0717285
-0.0834311
0.0837938
-0.0696156
0.0928815
-0.0536505
0.0989316
-0.0371293
0.102136
-0.0214869
0.102917
-0.00789318
0.101938
0.00225149
0.0996654
0.0094612
0.0968635
0.0134224
0.0940667
0.0145902
0.013947
-0.137589
-0.0611692
-0.124261
-0.0855926
-0.107954
-0.105876
-0.0894074
-0.121571
-0.0693484
-0.13262
-0.0484475
-0.139266
-0.0272936
-0.141938
-0.00637811
-0.141174
0.0138863
-0.13749
0.0331877
-0.131269
0.0512392
-0.122916
0.0677649
-0.112602
0.0825115
-0.100554
0.0952429
-0.0869905
0.105759
-0.0722161
0.113927
-0.0566599
0.119695
-0.040836
0.123113
-0.0253144
0.124329
-0.01064
0.123594
0.00288928
0.121152
0.0146785
0.117261
0.025206
0.112139
0.0345049
0.10591
0.0430045
0.0986071
0.0511787
0.0901733
0.0594321
0.080504
0.0679853
0.0694952
0.0767961
0.057101
0.0855313
0.0433822
0.0936147
0.0285363
0.100324
0.0129005
0.104935
-0.00307307
0.10686
-0.0188945
0.105934
-0.0340649
0.102085
-0.0481712
0.0957964
-0.0609338
0.0877917
-0.072237
0.0789417
-0.0821267
0.0700883
-0.0907693
0.0618633
-0.0983944
0.0545668
-0.105214
0.0480811
-0.11134
0.041878
-0.116728
0.0352044
-0.121196
0.0273233
-0.124257
0.0162111
-0.125309
0.00124338
-0.123765
-0.0159946
-0.119097
-0.0365349
-0.110862
-0.0593158
-0.0988631
-0.0829604
-0.0832091
-0.105788
-0.0642446
-0.126121
-0.042591
-0.142464
-0.0191424
-0.153494
0.00505212
-0.158419
0.0289338
-0.157014
0.0515946
-0.149613
0.0722026
-0.136871
0.0901065
-0.119763
0.104836
-0.0993263
0.116097
-0.07663
0.123731
-0.0526267
0.127694
-0.0281419
0.127988
-0.00388485
0.124881
0.019462
0.11844
0.0411365
0.109042
0.0605807
0.0971436
0.0768778
0.083327
0.0893144
0.0682863
0.0972877
0.0527952
0.100439
0.0376449
0.0987851
0.0235675
0.0927911
0.0111547
0.0833863
0.000808718
0.071882
-0.00757999
0.060201
-0.0139744
0.0493487
-0.0189115
0.0411927
-0.0231067
0.0369479
-0.0273659
0.0371552
-0.032485
0.0416975
-0.0391109
0.0497215
-0.0476225
0.0597429
-0.0580789
0.0698901
-0.0701619
0.0780597
-0.0832109
0.0822918
-0.0963032
0.081059
-0.108536
0.073977
-0.118752
0.0593241
-0.125446
0.0376718
-0.127917
0.0114171
-0.125634
-0.0180308
-0.118589
-0.0476652
-0.106944
-0.0761936
-0.0911606
-0.101779
-0.0720439
-0.122589
-0.050824
-0.136815
-0.0286437
-0.144463
-0.00655019
-0.146224
0.0146876
-0.142569
0.0347207
-0.136362
0.053314
-0.128063
0.0703661
-0.11865
0.0859173
-0.108897
0.100077
-0.0991102
0.112984
-0.0892408
0.124622
-0.0787465
0.134756
-0.0668474
0.143011
-0.0527816
0.148907
-0.0359522
0.151911
-0.0161089
0.15143
0.00729645
0.147099
0.0314663
0.138778
0.0574404
0.126397
0.0831393
0.110285
0.106865
0.0910037
0.127192
0.0692883
0.142905
0.046015
0.153172
0.0221298
0.15763
-0.00146424
0.156576
-0.0240107
0.150582
-0.0449028
0.140637
-0.0637491
0.127561
-0.0802738
0.111971
-0.09414
0.0943373
-0.105086
0.0756539
-0.11316
0.0567556
-0.11845
0.038155
-0.121125
0.0207634
-0.121128
0.00342336
-0.118876
-0.0115662
-0.114663
-0.0243697
-0.108936
-0.0343206
-0.102222
-0.0410618
-0.095081
-0.0445033
-0.0880731
-0.0447591
-0.0816559
-0.0423129
-0.0761645
-0.0382696
-0.0715954
-0.0342074
-0.0677538
-0.0313586
-0.064205
-0.0310309
-0.0603064
-0.0343216
-0.0553173
-0.0416237
-0.0484909
-0.0528817
-0.0391583
-0.067413
-0.0269993
-0.0833454
-0.0120944
-0.0984387
0.00495847
-0.110133
0.0230617
-0.116316
0.041257
-0.116689
0.0584726
-0.110692
0.0736489
-0.0986074
0.0860226
-0.0819893
0.0951937
-0.0628216
0.101128
-0.0430633
0.104037
-0.0243966
0.104477
-0.00833291
0.103001
0.00372775
0.100248
0.0122143
0.0970574
0.0166126
0.0940102
0.0176374
0.0164991
-0.141056
-0.0713552
-0.127133
-0.0995159
-0.110176
-0.122833
-0.0909721
-0.140775
-0.0702908
-0.153302
-0.0488279
-0.160729
-0.0271868
-0.163579
-0.00585858
-0.162502
0.0147602
-0.158109
0.0343698
-0.150879
0.0526958
-0.141242
0.069468
-0.129374
0.0844298
-0.115516
0.0973335
-0.0998942
0.107963
-0.0828457
0.11617
-0.0648666
0.121897
-0.0465631
0.125197
-0.0286145
0.126225
-0.0116679
0.125294
0.00381967
0.122643
0.01733
0.118582
0.0292673
0.113347
0.0397395
0.107075
0.049277
0.0997844
0.0584691
0.0913949
0.0678216
0.0817633
0.0776169
0.0707448
0.0878146
0.0582586
0.0980175
0.0443455
0.107528
0.029203
0.115467
0.01319
0.120948
-0.00320376
0.123254
-0.0194287
0.122159
-0.0349417
0.117598
-0.049291
0.110146
-0.0621759
0.100677
-0.0734832
0.090249
-0.0832879
0.079893
-0.0918011
0.0703765
-0.0993121
0.0620778
-0.106092
0.0548615
-0.112298
0.0480834
-0.117891
0.0407972
-0.12269
0.0321232
-0.12621
0.019731
-0.127811
0.00284404
-0.126709
-0.0170964
-0.122371
-0.0408736
-0.114282
-0.0674039
-0.102206
-0.0950369
-0.0862189
-0.121775
-0.0666658
-0.145675
-0.0442194
-0.164911
-0.0198659
-0.177848
0.00524689
-0.183531
0.0299827
-0.18175
0.0533917
-0.173022
0.0746118
-0.158091
0.0929783
-0.13813
0.108023
-0.114371
0.119467
-0.0880739
0.127169
-0.0603296
0.131098
-0.0320705
0.131259
-0.00404611
0.127934
0.0227872
0.12116
0.0479108
0.111324
0.0704162
0.0988852
0.0893172
0.084442
0.103758
0.0687246
0.113005
0.0525581
0.116605
0.0367963
0.114547
0.0222363
0.107351
0.00952503
0.0960976
-0.000954059
0.082361
-0.009137
0.068384
-0.015144
0.0553558
-0.0195288
0.0455774
-0.0230865
0.0405057
-0.0267263
0.0407949
-0.0313431
0.0463143
-0.0376826
0.056061
-0.0461864
0.0682468
-0.0569209
0.0806246
-0.0695571
0.0906958
-0.0833787
0.0961133
-0.0973696
0.09505
-0.110466
0.0870733
-0.121575
0.0704334
-0.129094
0.0451909
-0.132064
0.0143872
-0.129953
-0.0201419
-0.122767
-0.0548519
-0.110666
-0.0882937
-0.0941441
-0.118301
-0.0741057
-0.142628
-0.0519328
-0.158988
-0.0289001
-0.167496
-0.00614696
-0.168977
0.0155857
-0.164302
0.0359138
-0.15669
0.0546363
-0.146785
0.0716855
-0.1357
0.0871675
-0.124379
0.101323
-0.113265
0.114298
-0.102216
0.126084
-0.090532
0.136493
-0.0772566
0.145151
-0.0614401
0.15151
-0.0423114
0.15493
-0.0195282
0.154814
0.00741254
0.150484
0.0357957
0.142121
0.065804
0.129491
0.0957693
0.112937
0.123419
0.0930574
0.147071
0.0706598
0.165303
0.0466367
0.177195
0.0219898
0.182277
-0.00229547
0.180861
-0.0254287
0.173715
-0.0467825
0.161991
-0.0659897
0.146769
-0.0827865
0.128767
-0.0967774
0.108328
-0.10777
0.0866461
-0.115821
0.0648067
-0.121048
0.0433826
-0.123526
0.0232411
-0.123292
0.00318974
-0.120713
-0.0141454
-0.116092
-0.0289907
-0.109899
-0.0405138
-0.102697
-0.0482636
-0.0951016
-0.0520989
-0.087739
-0.0521218
-0.081113
-0.0489388
-0.0756003
-0.0437823
-0.0712071
-0.0386006
-0.0677307
-0.034835
-0.0646955
-0.0340661
-0.0613886
-0.0376284
-0.0569669
-0.0460455
-0.0505833
-0.0592653
-0.0414471
-0.0765492
-0.0291541
-0.0956384
-0.0137592
-0.113834
0.00404351
-0.127936
0.0230296
-0.135302
0.0421297
-0.13579
0.0601644
-0.128727
0.0759643
-0.114407
0.0887027
-0.0947277
0.0979667
-0.0720857
0.103755
-0.0488514
0.106317
-0.0269584
0.106341
-0.00835754
0.10423
0.00583945
0.100899
0.0155449
0.0972379
0.0202738
0.0938894
0.0209859
0.019151
-0.145047
-0.0821796
-0.130439
-0.114124
-0.112724
-0.140548
-0.0927535
-0.160745
-0.0713498
-0.174705
-0.0492374
-0.182842
-0.0270374
-0.185779
-0.00523856
-0.184301
0.0157819
-0.179129
0.0357399
-0.170837
0.0543788
-0.159881
0.0714346
-0.14643
0.0866472
-0.130728
0.0997538
-0.113001
0.110518
-0.0936096
0.118772
-0.0731209
0.124451
-0.0522416
0.127612
-0.0317761
0.128411
-0.0124667
0.127242
0.00498849
0.124341
0.020231
0.120075
0.0335329
0.11471
0.0451051
0.108389
0.0555973
0.101123
0.0657354
0.0927972
0.0761475
0.0832227
0.0871914
0.0722047
0.0988326
0.0596195
0.110603
0.0454828
0.121664
0.0299922
0.130957
0.013532
0.137408
-0.00336116
0.140147
-0.0200656
0.138863
-0.0359846
0.133517
-0.0506194
0.12478
-0.0636438
0.113701
-0.0749463
0.101552
-0.0846379
0.0895846
-0.0929826
0.0787212
-0.100342
0.0694372
-0.107061
0.061581
-0.113351
0.0543726
-0.119187
0.0466341
-0.124369
0.037305
-0.128454
0.023816
-0.130662
0.00505142
-0.130133
-0.017625
-0.126197
-0.0448094
-0.118301
-0.0753003
-0.106154
-0.107183
-0.0897723
-0.138157
-0.0695142
-0.165933
-0.0461228
-0.188302
-0.0206964
-0.203274
0.00549584
-0.209724
0.031236
-0.20749
0.0555225
-0.197309
0.0774521
-0.180021
0.0963472
-0.157025
0.111746
-0.12977
0.123393
-0.0997204
0.131167
-0.0681044
0.135052
-0.0359551
0.135073
-0.00406696
0.131482
0.026378
0.124329
0.0550634
0.113988
0.080757
0.10092
0.102386
0.085744
0.118933
0.0692312
0.129518
0.0522675
0.133569
0.0357808
0.131034
0.0206473
0.122485
0.00757976
0.109165
-0.00306453
0.0930053
-0.0110038
0.0763232
-0.0165372
0.0608892
-0.0202666
0.0493068
-0.0230572
0.0432963
-0.0259587
0.0436964
-0.0299841
0.0503397
-0.035967
0.0620439
-0.0444384
0.0767182
-0.0554977
0.091684
-0.0687891
0.103987
-0.0835277
0.110852
-0.098596
0.110118
-0.112719
0.101197
-0.124852
0.0825665
-0.133349
0.053687
-0.136924
0.0179629
-0.13503
-0.0220367
-0.127673
-0.0622089
-0.115019
-0.100947
-0.0975978
-0.135722
-0.0764712
-0.163754
-0.0531809
-0.182278
-0.0291556
-0.191521
-0.00562569
-0.192507
0.0166855
-0.186613
0.0373416
-0.177346
0.0561959
-0.165639
0.0732365
-0.15274
0.0886817
-0.139825
0.102842
-0.127426
0.115911
-0.115285
0.127921
-0.102543
0.13868
-0.0880156
0.147776
-0.0705355
0.154624
-0.0491599
0.158526
-0.0234295