/*--------------------------------*- C++ -*----------------------------------*\
| =========                 |                                                 |
| \\      /  F ield         | OpenFOAM: The Open Source CFD Toolbox           |
|  \\    /   O peration     | Version:  v1912                                 |
|   \\  /    A nd           | Website:  www.openfoam.com                      |
|    \\/     M anipulation  |                                                 |
\*---------------------------------------------------------------------------*/
FoamFile
{
    version     2.0;
    format      ascii;
    class       volScalarField;
    location    "10";
    object      alpha.water;
}
// * * * * * * * * * * * * * * * * * * * * * * * * * * * * * * * * * * * * * //

dimensions      [0 0 0 0 0 0 0];


internalField   nonuniform List<scalar> 
14268
(
-6.31156e-44
-2.1664e-45
-6.81159e-47
-1.96792e-48
-5.23875e-50
-1.2883e-51
-2.93366e-53
-6.19998e-55
-1.21875e-56
-2.23324e-58
-3.82326e-60
-6.12953e-62
-9.22586e-64
-1.30721e-65
-1.74866e-67
-2.21529e-69
-2.66633e-71
-3.0587e-73
-3.35421e-75
-3.52506e-77
-3.55691e-79
-3.44954e-81
-3.216e-83
-2.88064e-85
-2.47621e-87
-2.03969e-89
-1.60741e-91
-1.21006e-93
-8.68972e-96
-5.94609e-98
-3.87341e-100
-2.4005e-102
-1.41465e-104
-7.92502e-107
-4.21969e-109
-2.13528e-111
-1.02688e-113
-4.6934e-116
-2.03891e-118
-8.41962e-121
-3.30535e-123
-1.23375e-125
-4.37893e-128
-1.47807e-130
-4.74519e-133
-1.44908e-135
-4.20972e-138
-1.16353e-140
-3.05988e-143
-7.65723e-146
-1.82353e-148
-4.133e-151
-8.91578e-154
-1.83074e-156
-3.57852e-159
-6.65913e-162
-1.17979e-164
-1.99019e-167
-3.19685e-170
-4.89017e-173
-7.12412e-176
-9.88508e-179
-1.30649e-181
-1.64491e-184
-1.97299e-187
-2.25468e-190
-2.45502e-193
-2.54721e-196
-2.51848e-199
-2.37302e-202
-2.13094e-205
-1.82372e-208
-1.48757e-211
-1.15644e-214
-8.5684e-218
-6.05049e-221
-4.07174e-224
-2.61122e-227
-1.5957e-230
-9.29099e-234
-5.15389e-237
-2.72346e-240
-1.37076e-243
-6.57055e-247
-2.99899e-250
-1.30322e-253
-5.39085e-257
-2.12239e-260
-7.95145e-264
-2.83433e-267
-9.61087e-271
-3.09963e-274
-9.50647e-278
-2.77217e-281
-7.68491e-285
-2.02492e-288
-5.07061e-292
-1.2065e-295
-2.72738e-299
-5.85666e-303
-1.19448e-306
-2.31353e-310
-4.25478e-314
-7.42898e-318
-1.12647e-321
0
0
0
0
0
0
0
0
0
0
0
0
0
0
0
0
0
0
0
0
0
0
0
0
0
0
0
0
0
0
0
0
0
0
0
0
0
0
0
0
0
0
0
0
0
-3.21337e-44
-1.08291e-45
-3.38213e-47
-9.77258e-49
-2.61415e-50
-6.48732e-52
-1.49798e-53
-3.22987e-55
-6.52809e-57
-1.24182e-58
-2.23223e-60
-3.80581e-62
-6.17409e-64
-9.55389e-66
-1.41232e-67
-1.99568e-69
-2.69494e-71
-3.47491e-73
-4.27314e-75
-5.00477e-77
-5.57574e-79
-5.9024e-81
-5.93182e-83
-5.656e-85
-5.11466e-87
-4.38545e-89
-3.56511e-91
-2.74796e-93
-2.00853e-95
-1.39238e-97
-9.15662e-100
-5.71359e-102
-3.38359e-104
-1.90211e-106
-1.01525e-108
-5.14603e-111
-2.47746e-113
-1.13303e-115
-4.92298e-118
-2.03243e-120
-7.97336e-123
-2.97259e-125
-1.05323e-127
-3.54666e-130
-1.13512e-132
-3.45298e-135
-9.98356e-138
-2.74358e-140
-7.16623e-143
-1.77911e-145
-4.19812e-148
-9.41546e-151
-2.00705e-153
-4.06634e-156
-7.83019e-159
-1.43305e-161
-2.49267e-164
-4.12081e-167
-6.47456e-170
-9.66819e-173
-1.3721e-175
-1.85067e-178
-2.37233e-181
-2.89017e-184
-3.34637e-187
-3.68236e-190
-3.85108e-193
-3.82775e-196
-3.61588e-199
-3.24636e-202
-2.77011e-205
-2.24658e-208
-1.73172e-211
-1.26875e-214
-8.83536e-218
-5.84844e-221
-3.67992e-224
-2.20109e-227
-1.25158e-230
-6.76591e-234
-3.47753e-237
-1.69951e-240
-7.89806e-244
-3.49063e-247
-1.4673e-250
-5.867e-254
-2.23177e-257
-8.07757e-261
-2.7821e-264
-9.11994e-268
-2.84584e-271
-8.45475e-275
-2.39187e-278
-6.44453e-282
-1.654e-285
-4.04425e-289
-9.42233e-293
-2.09194e-296
-4.42645e-300
-8.92704e-304
-1.71602e-307
-3.14416e-311
-5.49089e-315
-9.13853e-319
-6.42285e-323
0
0
0
0
0
0
0
0
0
0
0
0
0
0
0
0
0
0
0
0
0
0
0
0
0
0
0
0
0
0
0
0
0
0
0
0
0
0
0
0
0
0
0
0
0
-8.65791e-44
-2.93664e-45
-9.19322e-47
-2.66555e-48
-7.18414e-50
-1.80604e-51
-4.24789e-53
-9.37171e-55
-1.94319e-56
-3.79196e-58
-6.9702e-60
-1.20746e-61
-1.97172e-63
-3.03528e-65
-4.40508e-67
-6.0276e-69
-7.77751e-71
-9.46575e-73
-1.08704e-74
-1.17847e-76
-1.20674e-78
-1.16791e-80
-1.06906e-82
-9.26224e-85
-7.60116e-87
-5.91331e-89
-4.36417e-91
-3.05786e-93
-2.03558e-95
-1.28825e-97
-7.75555e-100
-4.4438e-102
-2.42447e-104
-1.25994e-106
-6.23843e-109
-2.94352e-111
-1.32363e-113
-5.6727e-116
-2.31695e-118
-9.01808e-121
-3.34448e-123
-1.18167e-125
-3.97691e-128
-1.2747e-130
-3.89054e-133
-1.13053e-135
-3.12725e-138
-8.23363e-141
-2.06309e-143
-4.91928e-146
-1.1161e-148
-2.40929e-151
-4.94811e-154
-9.66797e-157
-1.79706e-159
-3.17772e-162
-5.34552e-165
-8.55434e-168
-1.3023e-170
-1.88613e-173
-2.59887e-176
-3.40693e-179
-4.24943e-182
-5.04329e-185
-5.69566e-188
-6.12152e-191
-6.26184e-194
-6.09712e-197
-5.6518e-200
-4.98835e-203
-4.19289e-206
-3.35697e-209
-2.5607e-212
-1.8615e-215
-1.28999e-218
-8.52436e-222
-5.37332e-225
-3.2321e-228
-1.85588e-231
-1.01766e-234
-5.33103e-238
-2.66884e-241
-1.27726e-244
-5.84522e-248
-2.55844e-251
-1.07118e-254
-4.29021e-258
-1.64365e-261
-6.02274e-265
-2.11026e-268
-7.06812e-272
-2.26223e-275
-6.91593e-279
-2.01857e-282
-5.62223e-286
-1.49357e-289
-3.78255e-293
-9.12796e-297
-2.09793e-300
-4.59038e-304
-9.55796e-308
-1.89311e-311
-3.56553e-315
-6.38372e-319
-2.47033e-323
0
0
0
0
0
0
0
0
0
0
0
0
0
0
0
0
0
0
0
0
0
0
0
0
0
0
0
0
0
0
0
0
0
0
0
0
0
0
0
0
0
0
0
0
0
-2.12139e-44
-7.32157e-46
-2.34538e-47
-6.99656e-49
-1.94929e-50
-5.08388e-52
-1.24333e-53
-2.85472e-55
-6.15812e-57
-1.24869e-58
-2.38091e-60
-4.27037e-62
-7.20783e-64
-1.14549e-65
-1.71516e-67
-2.4215e-69
-3.22633e-71
-4.06062e-73
-4.83245e-75
-5.44342e-77
-5.80945e-79
-5.87982e-81
-5.64845e-83
-5.15414e-85
-4.4701e-87
-3.6866e-89
-2.89226e-91
-2.159e-93
-1.53363e-95
-1.03669e-97
-6.66827e-100
-4.08094e-102
-2.37589e-104
-1.31564e-106
-6.92825e-109
-3.4691e-111
-1.65142e-113
-7.47299e-116
-3.21436e-118
-1.31411e-120
-5.1062e-123
-1.8858e-125
-6.61967e-128
-2.20876e-130
-7.00596e-133
-2.1127e-135
-6.05781e-138
-1.65182e-140
-4.28396e-143
-1.05692e-145
-2.48105e-148
-5.54255e-151
-1.17858e-153
-2.38601e-156
-4.59994e-159
-8.4468e-162
-1.47772e-164
-2.46346e-167
-3.91422e-170
-5.929e-173
-8.56313e-176
-1.17943e-178
-1.54939e-181
-1.94157e-184
-2.32104e-187
-2.64714e-190
-2.88034e-193
-2.99005e-196
-2.96117e-199
-2.79747e-202
-2.52079e-205
-2.16633e-208
-1.77526e-211
-1.38699e-214
-1.03295e-217
-7.33148e-221
-4.9582e-224
-3.19438e-227
-1.96014e-230
-1.14535e-233
-6.3716e-237
-3.37391e-240
-1.70024e-243
-8.15264e-247
-3.71896e-250
-1.61364e-253
-6.65862e-257
-2.61269e-260
-9.74663e-264
-3.45641e-267
-1.16504e-270
-3.73207e-274
-1.13605e-277
-3.28578e-281
-9.02859e-285
-2.35667e-288
-5.84291e-292
-1.37584e-295
-3.07662e-299
-6.53289e-303
-1.31711e-306
-2.52107e-310
-4.58095e-314
-7.90124e-318
-1.17588e-321
0
0
0
0
0
0
0
0
0
0
0
0
0
0
0
0
0
0
0
0
0
0
0
0
0
0
0
0
0
0
0
0
0
0
0
0
0
0
0
0
0
0
0
0
0
-5.43978e-45
-2.05567e-46
-7.27616e-48
-2.41081e-49
-7.47695e-51
-2.17077e-52
-5.90002e-54
-1.50139e-55
-3.57779e-57
-7.98644e-59
-1.67066e-60
-3.27668e-62
-6.02888e-64
-1.04126e-65
-1.68917e-67
-2.57547e-69
-3.69304e-71
-4.98343e-73
-6.33225e-75
-7.58111e-77
-8.55676e-79
-9.11037e-81
-9.15495e-83
-8.68777e-85
-7.7898e-87
-6.60296e-89
-5.29384e-91
-4.01646e-93
-2.88519e-95
-1.96327e-97
-1.2661e-99
-7.74187e-102
-4.49073e-104
-2.47218e-106
-1.29219e-108
-6.4157e-111
-3.02701e-113
-1.35771e-115
-5.79143e-118
-2.3502e-120
-9.07624e-123
-3.33672e-125
-1.16806e-127
-3.89447e-130
-1.23697e-132
-3.74351e-135
-1.07962e-137
-2.96745e-140
-7.77425e-143
-1.94143e-145
-4.62158e-148
-1.04874e-150
-2.26856e-153
-4.67763e-156
-9.19341e-159
-1.72218e-161
-3.07468e-164
-5.23129e-167
-8.48145e-170
-1.31022e-172
-1.92837e-175
-2.70376e-178
-3.61105e-181
-4.59353e-184
-5.56497e-187
-6.42008e-190
-7.0524e-193
-7.37583e-196
-7.34381e-199
-6.96029e-202
-6.27898e-205
-5.39099e-208
-4.40481e-211
-3.42474e-214
-2.53357e-217
-1.78323e-220
-1.19404e-223
-7.60552e-227
-4.60795e-230
-2.65535e-233
-1.45526e-236
-7.58454e-240
-3.75891e-243
-1.77136e-246
-7.93662e-250
-3.3808e-253
-1.36908e-256
-5.27037e-260
-1.92852e-263
-6.70739e-267
-2.21719e-270
-6.96536e-274
-2.07947e-277
-5.89931e-281
-1.59025e-284
-4.07303e-288
-9.91135e-292
-2.29131e-295
-5.03203e-299
-1.04975e-302
-2.08008e-306
-3.91472e-310
-6.9971e-314
-1.18769e-317
-1.80334e-321
0
0
0
0
0
0
0
0
0
0
0
0
0
0
0
0
0
0
0
0
0
0
0
0
0
0
0
0
0
0
0
0
0
0
0
0
0
0
0
0
0
0
0
0
0
-3.19897e-44
-1.28462e-45
-4.71027e-47
-1.58104e-48
-4.87015e-50
-1.37994e-51
-3.60475e-53
-8.69974e-55
-1.9437e-56
-4.02784e-58
-7.75576e-60
-1.39006e-61
-2.32281e-63
-3.62453e-65
-5.28942e-67
-7.22978e-69
-9.26886e-71
-1.11616e-72
-1.26423e-74
-1.34873e-76
-1.35711e-78
-1.28968e-80
-1.15906e-82
-9.86426e-85
-7.95997e-87
-6.09799e-89
-4.44021e-91
-3.07636e-93
-2.03013e-95
-1.27716e-97
-7.6653e-100
-4.39184e-102
-2.40329e-104
-1.25649e-106
-6.27775e-109
-2.99777e-111
-1.36822e-113
-5.96846e-116
-2.48817e-118
-9.91192e-121
-3.77251e-123
-1.3716e-125
-4.76296e-128
-1.57944e-130
-5.0007e-133
-1.51142e-135
-4.36002e-138
-1.20025e-140
-3.1525e-143
-7.89893e-146
-1.88772e-148
-4.30222e-151
-9.34889e-154
-1.93674e-156
-3.82434e-159
-7.19699e-162
-1.29059e-164
-2.205e-167
-3.58882e-170
-5.56362e-173
-8.21435e-176
-1.1549e-178
-1.54606e-181
-1.97044e-184
-2.39065e-187
-2.76082e-190
-3.03451e-193
-3.17416e-196
-3.15951e-199
-2.99244e-202
-2.69657e-205
-2.31178e-208
-1.88536e-211
-1.46261e-214
-1.07923e-217
-7.57403e-221
-5.05517e-224
-3.2086e-227
-1.9366e-230
-1.11142e-233
-6.06475e-237
-3.1464e-240
-1.55188e-243
-7.27653e-247
-3.24329e-250
-1.37411e-253
-5.53357e-257
-2.11797e-260
-7.7044e-264
-2.66343e-267
-8.74995e-271
-2.73155e-274
-8.10267e-278
-2.28372e-281
-6.11544e-285
-1.55583e-288
-3.76031e-292
-8.63349e-296
-1.8829e-299
-3.90052e-303
-7.67445e-307
-1.43408e-310
-2.54495e-314
-4.28877e-318
-5.73116e-322
0
0
0
0
0
0
0
0
0
0
0
0
0
0
0
0
0
0
0
0
0
0
0
0
0
0
0
0
0
0
0
0
0
0
0
0
0
0
0
0
0
0
0
0
0
-2.00656e-44
-8.03119e-46
-2.9346e-47
-9.81309e-49
-3.01029e-50
-8.49155e-52
-2.20759e-53
-5.3006e-55
-1.17779e-56
-2.42638e-58
-4.64248e-60
-8.2633e-62
-1.37036e-63
-2.12045e-65
-3.06568e-67
-4.14672e-69
-5.25424e-71
-6.24417e-73
-6.96812e-75
-7.31044e-77
-7.2188e-79
-6.71722e-81
-5.89701e-83
-4.89011e-85
-3.83523e-87
-2.84844e-89
-2.00607e-91
-1.34155e-93
-8.53092e-96
-5.16579e-98
-2.98295e-100
-1.64483e-102
-8.67216e-105
-4.37692e-107
-2.11679e-109
-9.81734e-112
-4.36866e-114
-1.8658e-116
-7.64818e-119
-3.00851e-121
-1.13523e-123
-4.10716e-126
-1.42384e-128
-4.7268e-131
-1.50165e-133
-4.56236e-136
-1.32483e-138
-3.67482e-141
-9.73178e-144
-2.45938e-146
-5.9287e-149
-1.3628e-151
-2.98611e-154
-6.23526e-157
-1.24043e-159
-2.35052e-162
-4.24173e-165
-7.28846e-168
-1.19228e-170
-1.85655e-173
-2.75152e-176
-3.88084e-179
-5.20863e-182
-6.65161e-185
-8.08162e-188
-9.34127e-191
-1.02711e-193
-1.07425e-196
-1.06867e-199
-1.01113e-202
-9.09847e-206
-7.78588e-209
-6.33581e-212
-4.90265e-215
-3.60724e-218
-2.52355e-221
-1.67852e-224
-1.06144e-227
-6.38126e-231
-3.64701e-234
-1.9814e-237
-1.02327e-240
-5.02318e-244
-2.34379e-247
-1.03942e-250
-4.38108e-254
-1.75497e-257
-6.68101e-261
-2.41701e-264
-8.30925e-268
-2.7144e-271
-8.42553e-275
-2.48492e-278
-6.96309e-282
-1.85372e-285
-4.68836e-289
-1.12645e-292
-2.57095e-296
-5.57374e-300
-1.14775e-303
-2.24477e-307
-4.16962e-311
-7.3552e-315
-1.23209e-318
-9.88131e-323
0
0
0
0
0
0
0
0
0
0
0
0
0
0
0
0
0
0
0
0
0
0
0
0
0
0
0
0
0
0
0
0
0
0
0
0
0
0
0
0
0
0
0
0
0
-1.031e-44
-4.26769e-46
-1.60691e-47
-5.5194e-49
-1.7341e-50
-4.99618e-52
-1.32314e-53
-3.22799e-55
-7.26946e-57
-1.51406e-58
-2.92161e-60
-5.23201e-62
-8.70885e-64
-1.34941e-65
-1.94908e-67
-2.62787e-69
-3.31158e-71
-3.90547e-73
-4.31583e-75
-4.47459e-77
-4.35811e-79
-3.99277e-81
-3.44579e-83
-2.8054e-85
-2.15824e-87
-1.57174e-89
-1.08565e-91
-7.12782e-94
-4.45841e-96
-2.66319e-98
-1.52288e-100
-8.35518e-103
-4.40677e-105
-2.23773e-107
-1.09496e-109
-5.16406e-112
-2.34641e-114
-1.02618e-116
-4.31395e-119
-1.74061e-121
-6.73012e-124
-2.48996e-126
-8.80302e-129
-2.97057e-131
-9.55886e-134
-2.93087e-136
-8.55758e-139
-2.37833e-141
-6.28944e-144
-1.58221e-146
-3.78578e-149
-8.61465e-152
-1.86415e-154
-3.83591e-157
-7.50583e-160
-1.39661e-162
-2.47121e-165
-4.15827e-168
-6.65432e-171
-1.01274e-173
-1.46595e-176
-2.01827e-179
-2.64303e-182
-3.29231e-185
-3.90116e-188
-4.39739e-191
-4.71538e-194
-4.81028e-197
-4.66837e-200
-4.31031e-203
-3.78621e-206
-3.16415e-209
-2.51575e-212
-1.90297e-215
-1.36946e-218
-9.37592e-222
-6.10685e-225
-3.78399e-228
-2.23049e-231
-1.25071e-234
-6.67119e-238
-3.38472e-241
-1.63342e-244
-7.49735e-248
-3.27289e-251
-1.35877e-254
-5.36452e-258
-2.01399e-261
-7.18955e-265
-2.44026e-268
-7.87467e-272
-2.41581e-275
-7.04523e-279
-1.953e-282
-5.14576e-286
-1.28857e-289
-3.06649e-293
-6.93458e-297
-1.49007e-300
-3.04206e-304
-5.90019e-308
-1.08709e-311
-1.90253e-315
-3.16148e-319
0
0
0
0
0
0
0
0
0
0
0
0
0
0
0
0
0
0
0
0
0
0
0
0
0
0
0
0
0
0
0
0
0
0
0
0
0
0
0
0
0
0
0
0
0
0
-3.70872e-45
-1.55244e-46
-5.89206e-48
-2.03453e-49
-6.41151e-51
-1.84925e-52
-4.89442e-54
-1.19157e-55
-2.67427e-57
-5.54435e-59
-1.06385e-60
-1.89263e-62
-3.12701e-64
-4.80574e-66
-6.88033e-68
-9.18983e-70
-1.14675e-71
-1.33875e-73
-1.46424e-75
-1.50258e-77
-1.44889e-79
-1.31496e-81
-1.12522e-83
-9.09615e-86
-6.96178e-88
-5.05673e-90
-3.49499e-92
-2.30495e-94
-1.45463e-96
-8.80832e-99
-5.12999e-101
-2.87873e-103
-1.55811e-105
-8.13563e-108
-4.09566e-110
-1.98544e-112
-9.25256e-115
-4.13745e-117
-1.77199e-119
-7.25605e-122
-2.83663e-124
-1.05737e-126
-3.75439e-129
-1.26884e-131
-4.07923e-134
-1.247e-136
-3.62365e-139
-1.00076e-141
-2.62644e-144
-6.54979e-147
-1.55204e-149
-3.49461e-152
-7.47702e-155
-1.52025e-157
-2.93756e-160
-5.39474e-163
-9.41678e-166
-1.56248e-168
-2.46459e-171
-3.69594e-174
-5.26975e-177
-7.14457e-180
-9.2112e-183
-1.12938e-185
-1.317e-188
-1.46075e-191
-1.54114e-194
-1.54671e-197
-1.47675e-200
-1.34138e-203
-1.15923e-206
-9.53184e-210
-7.45744e-213
-5.55166e-216
-3.93266e-219
-2.65088e-222
-1.70035e-225
-1.03785e-228
-6.02804e-232
-3.33168e-235
-1.75222e-238
-8.76883e-242
-4.17553e-245
-1.89183e-248
-8.15525e-252
-3.34468e-255
-1.30501e-258
-4.84378e-262
-1.71018e-265
-5.74321e-269
-1.83439e-272
-5.57206e-276
-1.60951e-279
-4.42067e-283
-1.1544e-286
-2.86591e-290
-6.76336e-294
-1.5171e-297
-3.23424e-301
-6.55231e-305
-1.26135e-308
-2.307e-312
-4.00853e-316
-6.60418e-320
0
0
0
0
0
0
0
0
0
0
0
0
0
0
0
0
0
0
0
0
0
0
0
0
0
0
0
0
0
0
0
0
0
0
0
0
0
0
0
0
0
0
0
0
0
0
-9.64683e-46
-4.02784e-47
-1.52202e-48
-5.22482e-50
-1.63497e-51
-4.67812e-53
-1.22736e-54
-2.96017e-56
-6.57847e-58
-1.34999e-59
-2.56334e-61
-4.51191e-63
-7.37498e-65
-1.12133e-66
-1.58848e-68
-2.09985e-70
-2.59438e-72
-3.0006e-74
-3.25405e-76
-3.31466e-78
-3.17736e-80
-2.8721e-82
-2.45374e-84
-1.98631e-86
-1.52774e-88
-1.11973e-90
-7.84417e-93
-5.26762e-95
-3.39963e-97
-2.11282e-99
-1.26599e-101
-7.31584e-104
-4.07504e-106
-2.18521e-108
-1.12618e-110
-5.56734e-113
-2.63498e-115
-1.19188e-117
-5.14449e-120
-2.11622e-122
-8.28804e-125
-3.088e-127
-1.09393e-129
-3.68309e-132
-1.17821e-134
-3.58045e-137
-1.03352e-139
-2.8336e-142
-7.37903e-145
-1.8252e-147
-4.28838e-150
-9.57138e-153
-2.02949e-155
-4.08853e-158
-7.82621e-161
-1.42357e-163
-2.46088e-166
-4.04318e-169
-6.31422e-172
-9.37386e-175
-1.323e-177
-1.77533e-180
-2.26525e-183
-2.74859e-186
-3.17171e-189
-3.48099e-192
-3.63389e-195
-3.60855e-198
-3.40891e-201
-3.06374e-204
-2.6198e-207
-2.13152e-210
-1.65021e-213
-1.21573e-216
-8.5232e-220
-5.68659e-223
-3.61074e-226
-2.18195e-229
-1.25488e-232
-6.86869e-236
-3.57814e-239
-1.77397e-242
-8.37018e-246
-3.75845e-249
-1.60603e-252
-6.53057e-256
-2.52683e-259
-9.30259e-263
-3.25841e-266
-1.0858e-269
-3.44189e-273
-1.0378e-276
-2.9762e-280
-8.11703e-284
-2.10511e-287
-5.191e-291
-1.21696e-294
-2.71211e-298
-5.74501e-302
-1.15659e-305
-2.21267e-309
-4.02215e-313
-6.94621e-317
-1.13141e-320
0
0
0
0
0
0
0
0
0
0
0
0
0
0
0
0
0
0
0
0
0
0
0
0
0
0
0
0
0
0
0
0
0
0
0
0
0
0
0
0
0
0
0
0
0
0
-1.96495e-46
-8.13487e-48
-3.04427e-49
-1.03406e-50
-3.19991e-52
-9.05051e-54
-2.34657e-55
-5.59216e-57
-1.22793e-58
-2.48997e-60
-4.67252e-62
-8.13021e-64
-1.31419e-65
-1.977e-67
-2.77278e-69
-3.63202e-71
-4.45133e-73
-5.11393e-75
-5.51837e-77
-5.60524e-79
-5.37195e-81
-4.87021e-83
-4.18856e-85
-3.42754e-87
-2.67692e-89
-2.0013e-91
-1.43605e-93
-9.91094e-96
-6.5875e-98
-4.21874e-100
-2.60209e-102
-1.54402e-104
-8.80001e-107
-4.80854e-109
-2.51441e-111
-1.25604e-113
-5.98502e-116
-2.71691e-118
-1.17383e-120
-4.82305e-123
-1.88358e-125
-6.98907e-128
-2.46325e-130
-8.24472e-133
-2.62049e-135
-7.90882e-138
-2.26655e-140
-6.16818e-143
-1.59409e-145
-3.91259e-148
-9.12109e-151
-2.01976e-153
-4.24875e-156
-8.49131e-159
-1.61244e-161
-2.90957e-164
-4.98945e-167
-8.13203e-170
-1.25982e-172
-1.85534e-175
-2.59768e-178
-3.45806e-181
-4.37729e-184
-5.26917e-187
-6.03229e-190
-6.56843e-193
-6.80325e-196
-6.70319e-199
-6.28334e-202
-5.60369e-205
-4.75515e-208
-3.83961e-211
-2.95032e-214
-2.15742e-217
-1.50142e-220
-9.94471e-224
-6.26927e-227
-3.76174e-230
-2.1484e-233
-1.16788e-236
-6.04284e-240
-2.97603e-243
-1.39501e-246
-6.22376e-250
-2.64268e-253
-1.0679e-256
-4.10671e-260
-1.5028e-263
-5.23263e-267
-1.73348e-270
-5.46336e-274
-1.63795e-277
-4.67092e-281
-1.26682e-284
-3.26736e-288
-8.01301e-292
-1.86836e-295
-4.14137e-299
-8.7255e-303
-1.74722e-306
-3.32477e-310
-6.01145e-314
-1.03263e-317
-1.57607e-321
0
0
0
0
0
0
0
0
0
0
0
0
0
0
0
0
0
0
0
0
0
0
0
0
0
0
0
0
0
0
0
0
0
0
0
0
0
0
0
0
0
0
0
0
0
0
-3.33297e-47
-1.36411e-48
-5.04276e-50
-1.69129e-51
-5.1663e-53
-1.44227e-54
-3.69109e-56
-8.68396e-58
-1.88299e-59
-3.772e-61
-6.99609e-63
-1.20397e-64
-1.92637e-66
-2.8714e-68
-3.99532e-70
-5.20007e-72
-6.34451e-74
-7.27298e-76
-7.85274e-78
-8.00718e-80
-7.73265e-82
-7.09373e-84
-6.20082e-86
-5.18012e-88
-4.14665e-90
-3.18744e-92
-2.35601e-94
-1.67551e-96
-1.14614e-98
-7.53433e-101
-4.75276e-103
-2.8722e-105
-1.65999e-107
-9.16037e-110
-4.81971e-112
-2.41499e-114
-1.15129e-116
-5.21809e-119
-2.2473e-121
-9.19325e-124
-3.57128e-126
-1.31721e-128
-4.61243e-131
-1.53332e-133
-4.8392e-136
-1.45e-138
-4.12521e-141
-1.1144e-143
-2.85887e-146
-6.96538e-149
-1.6119e-151
-3.5434e-154
-7.40004e-157
-1.46833e-159
-2.76846e-162
-4.96041e-165
-8.44712e-168
-1.36727e-170
-2.10376e-173
-3.07737e-176
-4.27999e-179
-5.66017e-182
-7.11835e-185
-8.51396e-188
-9.68556e-191
-1.04809e-193
-1.07891e-196
-1.05663e-199
-9.84563e-203
-8.72934e-206
-7.36487e-209
-5.9132e-212
-4.51835e-215
-3.28594e-218
-2.27448e-221
-1.49852e-224
-9.39756e-228
-5.60982e-231
-3.18765e-234
-1.72418e-237
-8.87726e-241
-4.35067e-244
-2.02957e-247
-9.01167e-251
-3.80839e-254
-1.53176e-257
-5.86307e-261
-2.13557e-264
-7.40156e-268
-2.44071e-271
-7.65688e-275
-2.28501e-278
-6.48603e-282
-1.75097e-285
-4.49506e-289
-1.09724e-292
-2.54639e-296
-5.6176e-300
-1.17795e-303
-2.34747e-307
-4.44544e-311
-7.99864e-315
-1.36727e-318
-1.13635e-322
0
0
0
0
0
0
0
0
0
0
0
0
0
0
0
0
0
0
0
0
0
0
0
0
0
0
0
0
0
0
0
0
0
0
0
0
0
0
0
0
0
0
0
0
0
0
-4.88024e-48
-1.97473e-49
-7.20955e-51
-2.38664e-52
-7.19412e-54
-1.98189e-55
-5.0063e-57
-1.16299e-58
-2.4914e-60
-4.93424e-62
-9.05643e-64
-1.54406e-65
-2.45097e-67
-3.63059e-69
-5.03047e-71
-6.53582e-73
-7.98322e-75
-9.19262e-77
-1.0008e-78
-1.03325e-80
-1.0147e-82
-9.50616e-85
-8.5179e-87
-7.31519e-89
-6.02968e-91
-4.77326e-93
-3.62859e-95
-2.64689e-97
-1.85047e-99
-1.23806e-101
-7.915e-104
-4.82811e-106
-2.80646e-108
-1.55283e-110
-8.17134e-113
-4.08673e-115
-1.94158e-117
-8.75945e-120
-3.75182e-122
-1.52542e-124
-5.88694e-127
-2.15644e-129
-7.49794e-132
-2.47474e-134
-7.75413e-137
-2.3067e-139
-6.51546e-142
-1.7476e-144
-4.45176e-147
-1.07711e-149
-2.47555e-152
-5.40533e-155
-1.12138e-157
-2.21063e-160
-4.14148e-163
-7.37423e-166
-1.24809e-168
-2.00811e-171
-3.07174e-174
-4.46767e-177
-6.179e-180
-8.12713e-183
-1.01667e-185
-1.20972e-188
-1.36926e-191
-1.47444e-194
-1.51057e-197
-1.47252e-200
-1.36591e-203
-1.20572e-206
-1.01291e-209
-8.09873e-213
-6.16321e-216
-4.46437e-219
-3.07817e-222
-2.02031e-225
-1.26225e-228
-7.50724e-232
-4.25033e-235
-2.29071e-238
-1.17521e-241
-5.73914e-245
-2.66778e-248
-1.18034e-251
-4.97039e-255
-1.99194e-258
-7.59682e-262
-2.75693e-265
-9.51959e-269
-3.12731e-272
-9.7733e-276
-2.90525e-279
-8.21397e-283
-2.20852e-286
-5.64645e-290
-1.37255e-293
-3.1718e-297
-6.96716e-301
-1.45454e-304
-2.88577e-308
-5.44013e-312
-9.7435e-316
-1.65705e-319
0
0
0
0
0
0
0
0
0
0
0
0
0
0
0
0
0
0
0
0
0
0
0
0
0
0
0
0
0
0
0
0
0
0
0
0
0
0
0
0
0
0
0
0
0
0
0
-6.31432e-49
-2.52918e-50
-9.12731e-52
-2.98451e-53
-8.88397e-55
-2.41711e-56
-6.03236e-58
-1.38542e-59
-2.93679e-61
-5.76217e-63
-1.04929e-64
-1.77808e-66
-2.81135e-68
-4.15874e-70
-5.7717e-72
-7.537e-74
-9.28846e-76
-1.08357e-77
-1.20018e-79
-1.26572e-81
-1.27414e-83
-1.22673e-85
-1.13119e-87
-9.99678e-90
-8.46688e-92
-6.86867e-94
-5.33183e-96
-3.95551e-98
-2.80082e-100
-1.89052e-102
-1.21508e-104
-7.4292e-107
-4.3178e-109
-2.38402e-111
-1.24996e-113
-6.22144e-116
-2.93907e-118
-1.31767e-120
-5.60609e-123
-2.26347e-125
-8.67302e-128
-3.15411e-130
-1.08877e-132
-3.56769e-135
-1.1099e-137
-3.27851e-140
-9.19635e-143
-2.44993e-145
-6.19934e-148
-1.49019e-150
-3.40323e-153
-7.385e-156
-1.52288e-158
-2.9846e-161
-5.5598e-164
-9.84541e-167
-1.6575e-169
-2.65318e-172
-4.03844e-175
-5.84574e-178
-8.04795e-181
-1.05388e-183
-1.3128e-186
-1.55576e-189
-1.75413e-192
-1.88186e-195
-1.92113e-198
-1.86637e-201
-1.7256e-204
-1.51847e-207
-1.27182e-210
-1.01394e-213
-7.69457e-217
-5.55849e-220
-3.82243e-223
-2.50229e-226
-1.55939e-229
-9.25103e-233
-5.22439e-236
-2.80856e-239
-1.43721e-242
-7.0005e-246
-3.24555e-249
-1.4321e-252
-6.01389e-256
-2.40328e-259
-9.13873e-263
-3.30645e-266
-1.13814e-269
-3.72685e-273
-1.1608e-276
-3.43874e-280
-9.68766e-284
-2.59518e-287
-6.60995e-291
-1.60051e-294
-3.68383e-298
-8.05877e-302
-1.67539e-305
-3.30969e-309
-6.21202e-313
-1.10764e-316
-1.86362e-320
0
0
0
0
0
0
0
0
0
0
0
0
0
0
0
0
0
0
0
0
0
0
0
0
0
0
0
0
0
0
0
0
0
0
0
0
0
0
0
0
0
0
0
0
0
0
0
-3.88034e-50
-1.53822e-51
-5.48827e-53
-1.77351e-54
-5.2174e-56
-1.40352e-57
-3.4661e-59
-7.88649e-61
-1.65886e-62
-3.23607e-64
-5.87314e-66
-9.94761e-68
-1.5773e-69
-2.34867e-71
-3.29459e-73
-4.36713e-75
-5.48648e-77
-6.55043e-79
-7.44959e-81
-8.08475e-83
-8.38296e-85
-8.30959e-87
-7.87437e-89
-7.13023e-91
-6.16452e-93
-5.08366e-95
-3.99473e-97
-2.98816e-99
-2.12589e-101
-1.43741e-103
-9.23135e-106
-5.62858e-108
-3.25718e-110
-1.78856e-112
-9.31807e-115
-4.60567e-117
-2.15975e-119
-9.60893e-122
-4.05641e-124
-1.62497e-126
-6.17785e-129
-2.2293e-131
-7.63654e-134
-2.48359e-136
-7.66968e-139
-2.2493e-141
-6.26539e-144
-1.65782e-146
-4.16747e-149
-9.95421e-152
-2.25942e-154
-4.87408e-157
-9.99419e-160
-1.9481e-162
-3.6102e-165
-6.36145e-168
-1.06594e-170
-1.69864e-173
-2.5746e-176
-3.7119e-179
-5.09099e-182
-6.64301e-185
-8.24746e-188
-9.74323e-191
-1.09533e-193
-1.17186e-196
-1.19322e-199
-1.15639e-202
-1.06672e-205
-9.36649e-209
-7.82885e-212
-6.2291e-215
-4.71811e-218
-3.40198e-221
-2.33516e-224
-1.52588e-227
-9.49153e-231
-5.62025e-234
-3.16786e-237
-1.69961e-240
-8.67928e-244
-4.21841e-247
-1.95126e-250
-8.58928e-254
-3.59782e-257
-1.43393e-260
-5.43734e-264
-1.96144e-267
-6.73063e-271
-2.19677e-274
-6.81895e-278
-2.01285e-281
-5.64961e-285
-1.50763e-288
-3.82463e-292
-9.22271e-296
-2.11374e-299
-4.60387e-303
-9.52841e-307
-1.87369e-310
-3.50029e-314
-6.21151e-318
-1.04248e-321
0
0
0
0
0
0
0
0
0
0
0
0
0
0
0
0
0
0
0
0
0
0
0
0
0
0
0
0
0
0
0
0
0
0
0
0
0
0
0
0
0
0
0
0
0
0
0
-2.30593e-51
-9.05064e-53
-3.19656e-54
-1.0227e-55
-2.98064e-57
-7.95206e-59
-1.95063e-60
-4.41741e-62
-9.27115e-64
-1.81002e-65
-3.299e-67
-5.63309e-69
-9.04163e-71
-1.3686e-72
-1.95939e-74
-2.66018e-76
-3.43223e-78
-4.2152e-80
-4.93277e-82
-5.50308e-84
-5.85289e-86
-5.9324e-88
-5.72697e-90
-5.26184e-92
-4.59771e-94
-3.81795e-96
-3.01115e-98
-2.2544e-100
-1.60159e-102
-1.07938e-104
-6.89952e-107
-4.18255e-109
-2.40451e-111
-1.31094e-113
-6.7786e-116
-3.3246e-118
-1.54679e-120
-6.8277e-123
-2.85976e-125
-1.13675e-127
-4.28888e-130
-1.53616e-132
-5.2241e-135
-1.68707e-137
-5.17451e-140
-1.50759e-142
-4.17288e-145
-1.09746e-147
-2.74287e-150
-6.51534e-153
-1.4711e-155
-3.15772e-158
-6.44442e-161
-1.25061e-163
-2.308e-166
-4.05108e-169
-6.76351e-172
-1.07419e-174
-1.62306e-177
-2.33332e-180
-3.19178e-183
-4.15472e-186
-5.14676e-189
-6.06783e-192
-6.80874e-195
-7.27202e-198
-7.39293e-201
-7.15429e-204
-6.59049e-207
-5.77934e-210
-4.82451e-213
-3.83395e-216
-2.90039e-219
-2.08871e-222
-1.43187e-225
-9.34372e-229
-5.80385e-232
-3.43142e-235
-1.93096e-238
-1.03416e-241
-5.27108e-245
-2.55666e-248
-1.18e-251
-5.18196e-255
-2.16507e-258
-8.60566e-262
-3.2538e-265
-1.17018e-268
-4.0025e-272
-1.30192e-275
-4.02692e-279
-1.18427e-282
-3.31114e-286
-8.80052e-290
-2.2233e-293
-5.3383e-297
-1.21809e-300
-2.64106e-304
-5.44074e-308
-1.06481e-311
-1.97958e-315
-3.4963e-319
-3.95253e-323
0
0
0
0
0
0
0
0
0
0
0
0
0
0
0
0
0
0
0
0
0
0
0
0
0
0
0
0
0
0
0
0
0
0
0
0
0
0
0
0
0
0
0
0
0
0
0
-1.44114e-49
-7.59933e-51
-3.58454e-52
-1.51963e-53
-5.81568e-55
-2.01714e-56
-6.36328e-58
-1.83153e-59
-4.82371e-61
-1.16549e-62
-2.58958e-64
-5.30244e-66
-1.00256e-67
-1.75357e-69
-2.84212e-71
-4.27508e-73
-5.97658e-75
-7.77589e-77
-9.42716e-79
-1.06624e-80
-1.12631e-82
-1.11236e-84
-1.02816e-86
-8.90308e-89
-7.22968e-91
-5.51118e-93
-3.9482e-95
-2.66144e-97
-1.69052e-99
-1.01361e-101
-5.74927e-104
-3.09352e-106
-1.58464e-108
-7.76215e-111
-3.65544e-113
-1.6651e-115
-7.38169e-118
-3.20176e-120
-1.3633e-122
-5.70214e-125
-2.33776e-127
-9.35497e-130
-3.63484e-132
-1.36408e-134
-4.92138e-137
-1.70058e-139
-5.61227e-142
-1.7653e-144
-5.28468e-147
-1.50423e-149
-4.06849e-152
-1.04519e-154
-2.54972e-157
-5.90561e-160
-1.29861e-162
-2.71094e-165
-5.37264e-168
-1.01086e-170
-1.80567e-173
-3.06228e-176
-4.93085e-179
-7.5385e-182
-1.09432e-184
-1.5084e-187
-1.97428e-190
-2.45373e-193
-2.8959e-196
-3.24551e-199
-3.45405e-202
-3.4908e-205
-3.35021e-208
-3.05332e-211
-2.64254e-214
-2.1718e-217
-1.69497e-220
-1.25615e-223
-8.84008e-227
-5.90738e-230
-3.74843e-233
-2.25844e-236
-1.29201e-239
-7.01781e-243
-3.61917e-246
-1.77203e-249
-8.23703e-253
-3.63491e-256
-1.52273e-259
-6.05532e-263
-2.2857e-266
-8.18933e-270
-2.78486e-273
-8.98793e-277
-2.75294e-280
-8.00184e-284
-2.20705e-287
-5.77619e-291
-1.43433e-294
-3.37913e-298
-7.55237e-302
-1.60123e-305
-3.22025e-309
-6.14265e-313
-1.11128e-316
-1.90808e-320
0
0
0
0
0
0
0
0
0
0
0
0
0
0
0
0
0
0
0
0
0
0
0
0
0
0
0
0
0
0
0
0
0
0
0
0
0
0
0
0
0
0
0
0
0
0
-8.32682e-50
-4.32737e-51
-2.01075e-52
-8.39667e-54
-3.16549e-55
-1.0817e-56
-3.36249e-58
-9.53876e-60
-2.47659e-61
-5.90041e-63
-1.29302e-64
-2.61191e-66
-4.8731e-68
-8.41266e-70
-1.34608e-71
-1.99936e-73
-2.7607e-75
-3.54849e-77
-4.25122e-79
-4.75282e-81
-4.96431e-83
-4.84981e-85
-4.43644e-87
-3.80443e-89
-3.06208e-91
-2.31635e-93
-1.64939e-95
-1.10761e-97
-7.03056e-100
-4.23056e-102
-2.42214e-104
-1.32546e-106
-6.97029e-109
-3.54377e-111
-1.75236e-113
-8.47076e-116
-4.01516e-118
-1.86703e-120
-8.49779e-123
-3.77019e-125
-1.62226e-127
-6.73565e-130
-2.68667e-132
-1.02582e-134
-3.73916e-137
-1.29861e-139
-4.2913e-142
-1.34806e-144
-4.02327e-147
-1.14034e-149
-3.06882e-152
-7.8404e-155
-1.90155e-157
-4.37798e-160
-9.56835e-163
-1.98523e-165
-3.91027e-168
-7.31212e-171
-1.29819e-173
-2.1883e-176
-3.50238e-179
-5.32263e-182
-7.68078e-185
-1.05248e-187
-1.3695e-190
-1.69221e-193
-1.98565e-196
-2.21265e-199
-2.34145e-202
-2.353e-205
-2.24557e-208
-2.03516e-211
-1.75159e-214
-1.43163e-217
-1.11118e-220
-8.19011e-224
-5.73244e-227
-3.81001e-230
-2.40458e-233
-1.44101e-236
-8.19979e-240
-4.43027e-243
-2.27267e-246
-1.10689e-249
-5.11827e-253
-2.24684e-256
-9.36342e-260
-3.70418e-263
-1.39099e-266
-4.95805e-270
-1.67738e-273
-5.38593e-277
-1.64126e-280
-4.74632e-284
-1.30249e-287
-3.39158e-291
-8.37944e-295
-1.9642e-298
-4.36801e-302
-9.2147e-306
-1.84394e-309
-3.49987e-313
-6.30033e-317
-1.08003e-320
0
0
0
0
0
0
0
0
0
0
0
0
0
0
0
0
0
0
0
0
0
0
0
0
0
0
0
0
0
0
0
0
0
0
0
0
0
0
0
0
0
0
0
0
0
0
-2.4801e-50
-1.28371e-51
-5.93413e-53
-2.46301e-54
-9.22221e-56
-3.12794e-57
-9.64567e-59
-2.71323e-60
-6.98241e-62
-1.64835e-63
-3.57828e-65
-7.15879e-67
-1.3226e-68
-2.26072e-70
-3.58131e-72
-5.26634e-74
-7.19936e-76
-9.16234e-78
-1.08699e-79
-1.20369e-81
-1.24573e-83
-1.20646e-85
-1.09488e-87
-9.32442e-90
-7.46449e-92
-5.62796e-94
-4.00599e-96
-2.69998e-98
-1.72945e-100
-1.05758e-102
-6.20735e-105
-3.51767e-107
-1.93607e-109
-1.04008e-111
-5.47068e-114
-2.81894e-116
-1.42016e-118
-6.96799e-121
-3.31361e-123
-1.51988e-125
-6.69516e-128
-2.82254e-130
-1.13578e-132
-4.35393e-135
-1.5879e-137
-5.50454e-140
-1.81267e-142
-5.66829e-145
-1.68277e-147
-4.74229e-150
-1.26857e-152
-3.22107e-155
-7.76344e-158
-1.77618e-160
-3.85763e-163
-7.95376e-166
-1.55691e-168
-2.89342e-171
-5.10548e-174
-8.55375e-177
-1.36078e-179
-2.05561e-182
-2.94872e-185
-4.01674e-188
-5.19603e-191
-6.38316e-194
-7.44682e-197
-8.25054e-200
-8.68107e-203
-8.67452e-206
-8.23189e-209
-7.4188e-212
-6.3496e-215
-5.161e-218
-3.98374e-221
-2.92019e-224
-2.03277e-227
-1.34373e-230
-8.43478e-234
-5.02763e-237
-2.84556e-240
-1.52924e-243
-7.80315e-247
-3.78041e-250
-1.73886e-253
-7.59332e-257
-3.1479e-260
-1.23883e-263
-4.62795e-267
-1.64107e-270
-5.52342e-274
-1.76444e-277
-5.34933e-281
-1.53909e-284
-4.20216e-288
-1.08868e-291
-2.67622e-295
-6.24176e-299
-1.38111e-302
-2.89905e-306
-5.77245e-310
-1.09021e-313
-1.95288e-317
-3.33e-321
0
0
0
0
0
0
0
0
0
0
0
0
0
0
0
0
0
0
0
0
0
0
0
0
0
0
0
0
0
0
0
0
0
0
0
0
0
0
0
0
0
0
0
0
0
0
-1.30722e-49
-5.93373e-51
-2.37158e-52
-8.41062e-54
-2.66461e-55
-7.587e-57
-1.95218e-58
-4.56239e-60
-9.73129e-62
-1.90306e-63
-3.42753e-65
-5.71019e-67
-8.83695e-69
-1.27558e-70
-1.72396e-72
-2.18902e-74
-2.61908e-76
-2.95962e-78
-3.16407e-80
-3.20371e-82
-3.0742e-84
-2.7966e-86
-2.41256e-88
-1.97466e-90
-1.53488e-92
-1.13479e-94
-7.99973e-97
-5.39558e-99
-3.49712e-101
-2.18937e-103
-1.33096e-105
-7.89345e-108
-4.58063e-110
-2.60278e-112
-1.44559e-114