/*--------------------------------*- C++ -*----------------------------------*\
| =========                 |                                                 |
| \\      /  F ield         | OpenFOAM: The Open Source CFD Toolbox           |
|  \\    /   O peration     | Version:  v1912                                 |
|   \\  /    A nd           | Website:  www.openfoam.com                      |
|    \\/     M anipulation  |                                                 |
\*---------------------------------------------------------------------------*/
FoamFile
{
    version     2.0;
    format      ascii;
    class       surfaceScalarField;
    location    "10";
    object      alphaPhi0.water;
}
// * * * * * * * * * * * * * * * * * * * * * * * * * * * * * * * * * * * * * //

dimensions      [0 3 -1 0 0 0 0];
oriented        oriented;


internalField   nonuniform List<scalar> 
28285
(
-1.95992e-47
-9.28165e-49
-6.42471e-49
-2.98583e-50
-1.9307e-50
-8.818e-52
-5.335e-52
-2.39775e-53
-1.35923e-53
-6.01879e-55
-3.20093e-55
-1.39809e-56
-6.98386e-57
-3.01205e-58
-1.41487e-58
-6.03148e-60
-2.66731e-60
-1.12494e-61
-4.68931e-62
-1.95838e-63
-7.70519e-64
-3.18904e-65
-1.18606e-65
-4.86866e-67
-1.71458e-67
-6.98558e-69
-2.33398e-69
-9.44457e-71
-3.00042e-71
-1.20666e-72
-3.65382e-73
-1.46126e-74
-4.22842e-75
-1.68261e-76
-4.66496e-77
-1.84802e-78
-4.92081e-79
-1.94163e-80
-4.97539e-81
-1.95628e-82
-4.83074e-83
-1.89356e-84
-4.50852e-85
-1.76254e-86
-4.04537e-87
-1.57787e-88
-3.48761e-89
-1.35769e-90
-2.8856e-91
-1.12154e-92
-2.28787e-93
-8.88082e-95
-1.73546e-95
-6.72983e-97
-1.2575e-97
-4.87289e-99
-8.69202e-100
-3.36664e-101
-5.72467e-102
-2.21681e-103
-3.58928e-104
-1.3899e-105
-2.14091e-106
-8.29211e-108
-1.21428e-108
-4.70501e-110
-6.5468e-111
-2.53816e-112
-3.35471e-113
-1.30142e-114
-1.63364e-115
-6.34356e-117
-7.56013e-118
-2.93876e-119
-3.32498e-120
-1.29401e-121
-1.38985e-122
-5.41601e-124
-5.52214e-125
-2.15493e-126
-2.08571e-127
-8.15158e-129
-7.48956e-130
-2.93191e-131
-2.5572e-132
-1.00278e-133
-8.30289e-135
-3.26178e-136
-2.56387e-137
-1.00912e-138
-7.53025e-140
-2.96966e-141
-2.10384e-142
-8.31367e-144
-5.59172e-145
-2.21431e-146
-1.41399e-147
-5.61144e-149
-3.40213e-150
-1.35311e-151
-7.78921e-153
-3.10502e-154
-1.6971e-155
-6.78088e-157
-3.51905e-158
-1.40938e-159
-6.94509e-161
-2.78821e-162
-1.30466e-163
-5.25056e-165
-2.333e-166
-9.4124e-168
-3.97158e-169
-1.60635e-170
-6.43686e-172
-2.61009e-173
-9.93301e-175
-4.03813e-176
-1.45954e-177
-5.94903e-179
-2.04228e-180
-8.34615e-182
-2.72152e-183
-1.11515e-184
-3.45415e-186
-1.41914e-187
-4.17577e-189
-1.72025e-190
-4.80875e-192
-1.9864e-193
-5.27546e-195
-2.18515e-196
-5.51382e-198
-2.29018e-199
-5.49082e-201
-2.28695e-202
-5.21004e-204
-2.17605e-205
-4.71069e-207
-1.973e-208
-4.0587e-210
-1.70472e-211
-3.33244e-213
-1.40363e-214
-2.60745e-216
-1.10139e-217
-1.94425e-219
-8.23597e-221
-1.38155e-222
-5.86908e-224
-9.35501e-226
-3.98563e-227
-6.0363e-229
-2.57914e-230
-3.71125e-232
-1.59032e-233
-2.17401e-235
-9.3429e-237
-1.21327e-238
-5.22926e-240
-6.44998e-242
-2.78812e-243
-3.26603e-245
-1.41594e-246
-1.57501e-248
-6.84831e-250
-7.23256e-252
-3.15406e-253
-3.16213e-255
-1.38306e-256
-1.31607e-258
-5.7733e-260
-5.21343e-262
-2.2938e-263
-1.96535e-265
-8.67286e-267
-7.04941e-269
-3.12012e-270
-2.40543e-272
-1.06784e-273
-7.80699e-276
-3.47615e-277
-2.40965e-279
-1.07614e-280
-7.07176e-283
-3.16774e-284
-1.97304e-286
-8.86471e-288
-5.23245e-290
-2.358e-291
-1.31876e-293
-5.96099e-295
-3.15829e-297
-1.43192e-298
-7.18614e-301
-3.26798e-302
-1.55321e-304
-7.08489e-306
-3.18856e-308
-1.45888e-309
-6.2162e-312
-2.85281e-313
-1.1507e-315
-5.29704e-317
-2.02231e-319
-9.33784e-321
-3.45846e-323
0
0
0
0
0
0
0
0
0
0
0
0
0
0
0
0
0
0
0
0
0
0
0
0
0
0
0
0
0
0
0
0
0
0
0
0
0
0
0
0
0
0
0
0
0
0
0
0
0
0
0
0
0
0
0
0
0
0
0
0
0
0
0
0
0
0
0
0
0
0
0
0
0
0
0
0
0
0
0
0
0
0
0
0
0
0
0
0
0
0
0
0
0
-9.94671e-48
-9.43298e-49
-3.20211e-49
-2.9801e-50
-9.55994e-51
-8.74366e-52
-2.64227e-52
-2.37811e-53
-6.76504e-54
-5.99891e-55
-1.6078e-55
-1.4063e-56
-3.55743e-57
-3.07248e-58
-7.35366e-59
-6.27769e-60
-1.42561e-60
-1.20406e-61
-2.60234e-62
-2.17641e-63
-4.49071e-64
-3.72206e-65
-7.3529e-66
-6.0444e-67
-1.14596e-67
-9.3499e-69
-1.70409e-69
-1.38092e-70
-2.42143e-71
-1.95015e-72
-3.28968e-73
-2.63469e-74
-4.27185e-75
-3.40421e-76
-5.2976e-77
-4.20277e-78
-6.26625e-79
-4.95148e-80
-7.06015e-81
-5.55924e-82
-7.56731e-83
-5.94026e-84
-7.70743e-85
-6.03412e-86
-7.45314e-87
-5.8217e-88
-6.8384e-89
-5.33122e-90
-5.95081e-91
-4.63186e-92
-4.91027e-93
-3.81704e-94
-3.84157e-95
-2.98332e-96
-2.84971e-97
-2.21146e-98
-2.00461e-99
-1.55492e-100
-1.33744e-101
-1.03718e-102
-8.46477e-104
-6.56438e-105
-5.08336e-106
-3.94293e-107
-2.89717e-108
-2.24812e-109
-1.56739e-110
-1.21695e-111
-8.05104e-113
-6.25486e-114
-3.92711e-115
-3.05388e-116
-1.81933e-117
-1.41628e-118
-8.00628e-120
-6.23995e-121
-3.34721e-122
-2.61214e-123
-1.32957e-124
-1.03906e-125
-5.01826e-127
-3.92776e-128
-1.79985e-129
-1.41102e-130
-6.13457e-132
-4.81758e-133
-1.98707e-134
-1.5633e-135
-6.11692e-137
-4.82149e-138
-1.78959e-139
-1.41336e-140
-4.97596e-142
-3.93786e-143
-1.31494e-144
-1.0428e-145
-3.30248e-147
-2.62465e-148
-7.88273e-150
-6.27858e-151
-1.78819e-152
-1.42753e-153
-3.85519e-155
-3.08479e-156
-7.89895e-158
-6.33542e-159
-1.53808e-160
-1.2366e-161
-2.84624e-163
-2.29394e-164
-5.00543e-166
-4.04415e-167
-8.36536e-169
-6.77582e-170
-1.32861e-171
-1.0789e-172
-2.00529e-174
-1.63259e-175
-2.8762e-177
-2.34773e-178
-3.92032e-180
-3.20842e-181
-5.07787e-183
-4.1668e-184
-6.25027e-186
-5.14258e-187
-7.31091e-189
-6.03148e-190
-8.12642e-192
-6.7225e-193
-8.58386e-195
-7.12034e-196
-8.61632e-198
-7.16695e-199
-8.219e-201
-6.8554e-202
-7.45035e-204
-6.23159e-205
-6.41798e-207
-5.38314e-208
-5.25399e-210
-4.41923e-211
-4.08747e-213
-3.44778e-214
-3.02206e-216
-2.55634e-217
-2.12346e-219
-1.80134e-220
-1.41803e-222
-1.20637e-223
-9.00006e-226
-7.67867e-227
-5.42921e-229
-4.64546e-230
-3.113e-232
-2.6713e-233
-1.69665e-235
-1.46015e-236
-8.79029e-239
-7.58702e-240
-4.32952e-242
-3.74778e-243
-2.02737e-245
-1.7601e-246
-9.02654e-249
-7.8596e-250
-3.82159e-252
-3.33733e-253
-1.53868e-255
-1.34767e-256
-5.89229e-259
-5.1761e-260
-2.14637e-262
-1.89109e-263
-7.43829e-266
-6.57306e-267
-2.45273e-269
-2.17389e-270
-7.6967e-273
-6.84206e-274
-2.29883e-276
-2.04969e-277
-6.53628e-280
-5.84535e-281
-1.76949e-283
-1.5872e-284
-4.56178e-287
-4.10414e-288
-1.1201e-290
-1.01077e-291
-2.61991e-294
-2.37133e-295
-5.83823e-298
-5.30027e-299
-1.23964e-301
-1.12882e-302
-2.50823e-305
-2.29095e-306
-4.83653e-309
-4.43098e-310
-8.88807e-313
-8.16757e-314
-1.55666e-316
-1.43483e-317
-2.59829e-320
-2.40116e-321
-4.94066e-324
0
0
0
0
0
0
0
0
0
0
0
0
0
0
0
0
0
0
0
0
0
0
0
0
0
0
0
0
0
0
0
0
0
0
0
0
0
0
0
0
0
0
0
0
0
0
0
0
0
0
0
0
0
0
0
0
0
0
0
0
0
0
0
0
0
0
0
0
0
0
0
0
0
0
0
0
0
0
0
0
0
0
0
0
0
0
0
0
0
0
0
0
0
-2.67788e-47
-3.80998e-48
-8.67544e-49
-1.21129e-49
-2.59603e-50
-3.56214e-51
-7.20014e-52
-9.72209e-53
-1.85751e-53
-2.47114e-54
-4.47247e-55
-5.86894e-56
-1.00809e-56
-1.30623e-57
-2.13239e-58
-2.73106e-59
-4.24114e-60
-5.37399e-61
-7.94193e-62
-9.96489e-63
-1.40139e-63
-1.7426e-64
-2.3312e-65
-2.87505e-66
-3.65653e-67
-4.47587e-68
-5.40817e-69
-6.57505e-70
-7.54279e-71
-9.11381e-72
-9.92065e-73
-1.19203e-73
-1.23065e-74
-1.47132e-75
-1.44018e-76
-1.71413e-77
-1.59053e-78
-1.88556e-79
-1.65846e-80
-1.9592e-81
-1.63358e-82
-1.92388e-83
-1.52098e-84
-1.78649e-85
-1.33951e-86
-1.56975e-87
-1.11666e-88
-1.30607e-89
-8.81812e-91
-1.02974e-91
-6.60152e-93
-7.6991e-94
-4.6887e-95
-5.46284e-96
-3.16172e-97
-3.68109e-98
-2.02563e-99
-2.35729e-100
-1.23381e-101
-1.43549e-102
-7.14892e-104
-8.31751e-105
-3.94242e-106
-4.58782e-107
-2.07015e-108
-2.41003e-109
-1.0354e-110
-1.20608e-111
-4.93393e-113
-5.75088e-114
-2.24044e-115
-2.61389e-116
-9.69537e-118
-1.13234e-118
-3.99851e-120
-4.67545e-121
-1.5715e-122
-1.83994e-123
-5.88541e-125
-6.90052e-126
-2.10005e-127
-2.46602e-128
-7.13849e-130
-8.39612e-131
-2.3112e-132
-2.72305e-133
-7.12601e-135
-8.41105e-136
-2.092e-137
-2.47392e-138
-5.84676e-140
-6.92772e-141
-1.55539e-142
-1.84671e-143
-3.938e-145
-4.6854e-146
-9.48799e-148
-1.13131e-148
-2.17515e-150
-2.59926e-151
-4.74441e-153
-5.68238e-154
-9.84517e-156
-1.1819e-156
-1.94351e-158
-2.33867e-159
-3.64968e-161
-4.40231e-162
-6.5195e-164
-7.88315e-165
-1.10779e-166
-1.34282e-167
-1.79051e-169
-2.17585e-170
-2.75281e-172
-3.35377e-173
-4.02587e-175
-4.9174e-176
-5.60064e-178
-6.85871e-179
-7.41175e-181
-9.10052e-182
-9.33097e-184
-1.14875e-184
-1.11758e-186
-1.37954e-187
-1.2735e-189
-1.57625e-190
-1.38076e-192
-1.71367e-193
-1.42456e-195
-1.77286e-196
-1.3987e-198
-1.74547e-199
-1.30708e-201
-1.63566e-202
-1.16271e-204
-1.45906e-205
-9.84706e-208
-1.23914e-208
-7.94111e-211
-1.00211e-211
-6.09939e-214
-7.71877e-215
-4.46298e-217
-5.66394e-218
-3.11179e-220
-3.96041e-221
-2.06809e-223
-2.63961e-224
-1.3105e-226
-1.67747e-227
-7.92072e-230
-1.0168e-230
-4.56781e-233
-5.88075e-234
-2.51438e-236
-3.2465e-237
-1.3216e-239
-1.71138e-240
-6.6355e-243
-8.61763e-244
-3.18353e-246
-4.14661e-247
-1.45996e-249
-1.90722e-250
-6.40165e-253
-8.3874e-254
-2.6844e-256
-3.52747e-257
-1.07662e-259
-1.41894e-260
-4.1301e-263
-5.45943e-264
-1.51536e-266
-2.00906e-267
-5.31707e-270
-7.07036e-271
-1.78373e-273
-2.37899e-274
-5.71942e-277
-7.65094e-278
-1.75219e-280
-2.35096e-281
-5.12663e-284
-6.89918e-285
-1.43186e-287
-1.93274e-288
-3.81573e-291
-5.16603e-292
-9.69719e-295
-1.31685e-295
-2.34905e-298
-3.19958e-299
-5.42132e-302
-7.40665e-303
-1.19147e-305
-1.63274e-306
-2.49253e-309
-3.42604e-310
-4.96127e-313
-6.84013e-314
-9.39239e-317
-1.29889e-317
-1.69069e-320
-2.34681e-321
-4.94066e-324
0
0
0
0
0
0
0
0
0
0
0
0
0
0
0
0
0
0
0
0
0
0
0
0
0
0
0
0
0
0
0
0
0
0
0
0
0
0
0
0
0
0
0
0
0
0
0
0
0
0
0
0
0
0
0
0
0
0
0
0
0
0
0
0
0
0
0
0
0
0
0
0
0
0
0
0
0
0
0
0
0
0
0
0
0
0
0
0
0
0
0
0
0
-6.55801e-48
-1.24388e-48
-2.16202e-49
-4.02434e-50
-6.62088e-51
-1.21115e-51
-1.88949e-52
-3.4013e-53
-5.0394e-54
-8.93776e-55
-1.25892e-55
-2.20239e-56
-2.95069e-57
-5.09718e-58
-6.49591e-59
-1.10915e-59
-1.34417e-60
-2.27067e-61
-2.61551e-62
-4.37515e-63
-4.78734e-64
-7.93637e-65
-8.24527e-66
-1.35569e-66
-1.33677e-67
-2.18151e-68
-2.04112e-69
-3.30834e-70
-2.93707e-71
-4.73125e-72
-3.98583e-73
-6.385e-74
-5.10568e-75
-8.13809e-76
-6.1791e-77
-9.80507e-78
-7.07225e-79
-1.11778e-79
-7.6627e-81
-1.20685e-81
-7.86721e-83
-1.23526e-83
-7.66079e-85
-1.19964e-85
-7.08116e-87
-1.10634e-87
-6.21774e-89
-9.69575e-90
-5.18948e-91
-8.07942e-92
-4.11895e-93
-6.40451e-94
-3.11006e-95
-4.83102e-96
-2.23444e-97
-3.46838e-98
-1.52766e-99
-2.3702e-100
-9.93912e-102
-1.54173e-102
-6.15321e-104
-9.54469e-105
-3.62438e-106
-5.62322e-107
-2.03084e-108
-3.15213e-109
-1.08231e-110
-1.68085e-111
-5.48513e-113
-8.52389e-114
-2.64309e-115
-4.11129e-116
-1.21078e-117
-1.88534e-118
-5.27222e-120
-8.21924e-121
-2.18203e-122
-3.40616e-123
-8.58307e-125
-1.34172e-125
-3.20867e-127
-5.02351e-128
-1.14002e-129
-1.78772e-130
-3.84959e-132
-6.04715e-133
-1.23554e-134
-1.94437e-135
-3.76944e-137
-5.94318e-138
-1.09324e-139
-1.72707e-140
-3.01459e-142
-4.77208e-143
-7.90451e-145
-1.25391e-145
-1.97118e-147
-3.13368e-148
-4.67579e-150
-7.44971e-151
-1.05522e-152
-1.68507e-153
-2.2661e-155
-3.62711e-156
-4.63179e-158
-7.43118e-159
-9.01256e-161
-1.44945e-161
-1.66984e-163
-2.69209e-164
-2.9466e-166
-4.76228e-167
-4.95323e-169
-8.02555e-170
-7.9336e-172
-1.28873e-172
-1.21104e-174
-1.97229e-175
-1.76214e-177
-2.87729e-178
-2.44454e-180
-4.00205e-181
-3.23368e-183
-5.30807e-184
-4.07949e-186
-6.71441e-187
-4.90876e-189
-8.10113e-190
-5.6342e-192
-9.32367e-193
-6.16893e-195
-1.02366e-195
-6.44339e-198
-1.07215e-198
-6.42007e-201
-1.07123e-201
-6.10192e-204
-1.02099e-204
-5.53173e-207
-9.28184e-208
-4.78275e-210
-8.04774e-211
-3.94329e-213
-6.65403e-214
-3.09983e-216
-5.24564e-217
-2.32295e-219
-3.94221e-220
-1.65914e-222
-2.82377e-223
-1.12923e-225
-1.92743e-226
-7.32232e-229
-1.25342e-229
-4.52262e-232
-7.76422e-233
-2.66021e-235
-4.58023e-236
-1.48983e-238
-2.57262e-239
-7.94264e-242
-1.37554e-242
-4.03007e-245
-6.99995e-246
-1.94579e-248
-3.38967e-249
-8.93792e-252
-1.56163e-252
-3.90532e-255
-6.84361e-256
-1.62287e-258
-2.85233e-259
-6.41277e-262
-1.13046e-262
-2.40924e-265
-4.25974e-266
-8.60439e-269
-1.52589e-269
-2.92084e-272
-5.19531e-273
-9.42293e-276
-1.6811e-276
-2.88868e-279
-5.16909e-280
-8.41387e-283
-1.51015e-283
-2.32823e-286
-4.19144e-287
-6.11986e-290
-1.10508e-290
-1.52791e-293
-2.76737e-294
-3.62281e-297
-6.58169e-298
-8.1573e-301
-1.48649e-301
-1.74404e-304
-3.18783e-305
-3.54024e-308
-6.49085e-309
-6.82238e-312
-1.25468e-312
-1.24804e-315
-2.30229e-316
-2.16702e-319
-4.00984e-320
-3.45846e-323
-4.94066e-324
0
0
0
0
0
0
0
0
0
0
0
0
0
0
0
0
0
0
0
0
0
0
0
0
0
0
0
0
0
0
0
0
0
0
0
0
0
0
0
0
0
0
0
0
0
0
0
0
0
0
0
0
0
0
0
0
0
0
0
0
0
0
0
0
0
0
0
0
0
0
0
0
0
0
0
0
0
0
0
0
0
0
0
0
0
0
0
0
0
0
0
0
-1.68262e-48
-3.9887e-49
-6.07528e-50
-1.41333e-50
-2.05605e-51
-4.70066e-52
-6.51785e-53
-1.46639e-53
-1.93528e-54
-4.28982e-55
-5.38208e-56
-1.17678e-56
-1.40194e-57
-3.02682e-58
-3.42066e-59
-7.29981e-60
-7.81907e-61
-1.65086e-61
-1.67488e-62
-3.50165e-63
-3.36325e-64
-6.96854e-65
-6.3341e-66
-1.30166e-66
-1.11942e-67
-2.28324e-68
-1.85752e-69
-3.763e-70
-2.8958e-71
-5.83029e-72
-4.24389e-73
-8.49704e-74
-5.85042e-75
-1.16552e-75
-7.59103e-77
-1.50553e-77
-9.27608e-79
-1.83243e-79
-1.06815e-80
-2.10267e-81
-1.15971e-82
-2.27591e-83
-1.18786e-84
-2.32493e-85
-1.14844e-86
-2.24266e-87
-1.04862e-88
-2.04379e-89
-9.04733e-91
-1.76054e-91
-7.37969e-93
-1.4342e-93
-5.69368e-95
-1.10544e-95
-4.15721e-97
-8.06554e-98
-2.87395e-99
-5.57327e-100
-1.88206e-101
-3.64896e-102
-1.16809e-103
-2.2647e-104
-6.87393e-106
-1.33301e-106
-3.83729e-108
-7.44443e-109
-2.03295e-110
-3.94624e-111
-1.0226e-112
-1.98627e-113
-4.88591e-115
-9.49932e-116
-2.2183e-117
-4.31747e-118
-9.57423e-120
-1.86563e-120
-3.92965e-122
-7.66729e-123
-1.53435e-124
-2.99798e-125
-5.70103e-127
-1.11563e-127
-2.01638e-129
-3.95229e-130
-6.79041e-132
-1.33328e-132
-2.17786e-134
-4.28393e-135
-6.6537e-137
-1.31129e-137
-1.93675e-139
-3.82439e-140
-5.37184e-142
-1.06291e-142
-1.41992e-144
-2.81547e-145
-3.57708e-147
-7.10814e-148
-8.58911e-150
-1.71054e-150
-1.96577e-152
-3.92382e-153
-4.28835e-155
-8.57977e-156
-8.91687e-158
-1.78824e-158
-1.76721e-160
-3.55262e-161
-3.33808e-163
-6.72699e-164
-6.00915e-166
-1.214e-166
-1.03088e-168
-2.08788e-169
-1.68518e-171
-3.42179e-172
-2.62477e-174
-5.34343e-175
-3.89498e-177
-7.95e-178
-5.50611e-180
-1.12681e-180
-7.4143e-183
-1.52136e-183
-9.50906e-186
-1.95644e-186
-1.16146e-188
-2.39612e-189
-1.35091e-191
-2.79456e-192
-1.49611e-194
-3.10343e-195
-1.5775e-197
-3.28131e-198
-1.58344e-200
-3.30285e-201
-1.51295e-203
-3.16464e-204
-1.37592e-206
-2.88611e-207
-1.19087e-209
-2.50504e-210
-9.80859e-213
-2.06913e-213
-7.68733e-216
-1.62628e-216
-5.73239e-219
-1.21618e-219
-4.06677e-222
-8.65291e-223
-2.74461e-225
-5.85664e-226
-1.76196e-228
-3.77071e-229
-1.07587e-231
-2.30914e-232
-6.24797e-235
-1.34492e-235
-3.45065e-238
-7.44956e-239
-1.81223e-241
-3.92391e-242
-9.0499e-245
-1.96531e-245
-4.29699e-248
-9.35913e-249
-1.93974e-251
-4.23742e-252
-8.32437e-255
-1.82391e-255
-3.39594e-258
-7.46289e-259
-1.31687e-261
-2.90261e-262
-4.85366e-265
-1.07304e-265
-1.70025e-268
-3.77023e-269
-5.66041e-272
-1.25896e-272
-1.7908e-275
-3.99506e-276
-5.38371e-279
-1.20469e-279
-1.5379e-282
-3.45176e-283
-4.17405e-286
-9.39709e-287
-1.07633e-289
-2.43057e-290
-2.63673e-293
-5.9725e-294
-6.13607e-297
-1.39416e-297
-1.35642e-300
-3.09138e-301
-2.84805e-304
-6.51093e-305
-5.6797e-308
-1.30246e-308
-1.07572e-311
-2.47445e-312
-1.93481e-315
-4.46445e-316
-3.30456e-319
-7.64863e-320
-5.43472e-323
-1.4822e-323
0
0
0
0
0
0
0
0
0
0
0
0
0
0
0
0
0
0
0
0
0
0
0
0
0
0
0
0
0
0
0
0
0
0
0
0
0
0
0
0
0
0
0
0
0
0
0
0
0
0
0
0
0
0
0
0
0
0
0
0
0
0
0
0
0
0
0
0
0
0
0
0
0
0
0
0
0
0
0
0
0
0
0
0
0
0
0
0
0
0
0
0
-9.9061e-48
-2.81758e-48
-3.79941e-49
-1.06053e-49
-1.33159e-50
-3.65279e-51
-4.27515e-52
-1.15406e-52
-1.2604e-53
-3.35226e-54
-3.42007e-55
-8.97254e-56
-8.56025e-57
-2.21758e-57
-1.98045e-58
-5.07112e-59
-4.24349e-60
-1.07502e-60
-8.4368e-62
-2.11645e-62
-1.55919e-63
-3.87635e-64
-2.68299e-65
-6.61567e-66
-4.30568e-67
-1.05377e-67
-6.45418e-69
-1.56887e-69
-9.05039e-71
-2.18643e-71
-1.18891e-72
-2.85628e-73
-1.46523e-74
-3.50255e-75
-1.69644e-76
-4.03716e-77
-1.84775e-78
-4.37981e-79
-1.89588e-80
-4.47816e-81
-1.83496e-82
-4.32096e-83
-1.67753e-84
-3.93975e-85
-1.45051e-86
-3.39881e-87
-1.18779e-88
-2.77786e-89
-9.22325e-91
-2.1536e-91
-6.79965e-93
-1.58567e-93
-4.76492e-95
-1.11008e-95
-3.17733e-97
-7.39692e-98
-2.01807e-99
-4.69598e-100
-1.22196e-101
-2.84284e-102
-7.05911e-104
-1.64227e-104
-3.89292e-106
-9.05867e-107
-2.05041e-108
-4.77319e-109
-1.03179e-110
-2.40332e-111
-4.9617e-113
-1.15644e-113
-2.28035e-115
-5.32002e-116
-1.00166e-117
-2.33934e-118
-4.20502e-120
-9.8323e-121
-1.68696e-122
-3.94966e-123
-6.46662e-125
-1.51618e-125
-2.36819e-127
-5.56102e-128
-8.28428e-130
-1.9485e-130
-2.76767e-132
-6.52094e-133
-8.82914e-135
-2.08402e-135
-2.689e-137
-6.35914e-138
-7.81729e-140
-1.85233e-140
-2.16889e-142
-5.14975e-143
-5.74193e-145
-1.36623e-145
-1.45025e-147
-3.45819e-148
-3.49399e-150
-8.34994e-151
-8.02814e-153
-1.92296e-153
-1.75895e-155
-4.22298e-156
-3.6742e-158
-8.84217e-159
-7.31599e-161
-1.76489e-161
-1.38841e-163
-3.35758e-164
-2.51087e-166
-6.08717e-167
-4.32646e-169
-1.05152e-169
-7.10196e-172
-1.73051e-172
-1.11045e-174
-2.71281e-175
-1.65364e-177
-4.05038e-178
-2.34501e-180
-5.75899e-181
-3.16635e-183
-7.79683e-184
-4.07036e-186
-1.00498e-186
-4.98101e-189
-1.23317e-189
-5.80187e-192
-1.44032e-192
-6.43192e-195
-1.60112e-195
-6.78568e-198
-1.69387e-198
-6.81218e-201
-1.70522e-201
-6.50699e-204
-1.6334e-204
-5.91344e-207
-1.48859e-207
-5.11247e-210
-1.29061e-210
-4.20453e-213
-1.06443e-213
-3.28904e-216
-8.35048e-217
-2.44711e-219
-6.23078e-220
-1.73157e-222
-4.42163e-223
-1.1652e-225
-2.98401e-226
-7.45604e-229
-1.915e-229
-4.53662e-232
-1.16859e-232
-2.62451e-235
-6.78028e-236
-1.44354e-238
-3.74028e-239
-7.54828e-242
-1.96157e-242
-3.75217e-245
-9.77965e-246
-1.77299e-248
-4.63487e-249
-7.96337e-252
-2.08795e-252
-3.39962e-255
-8.94026e-256
-1.37937e-258
-3.63833e-259
-5.319e-262
-1.4072e-262
-1.94917e-265
-5.1723e-266
-6.78769e-269
-1.80662e-269
-2.24606e-272
-5.99628e-273
-7.06198e-276
-1.89106e-276
-2.10967e-279
-5.66652e-280
-5.98773e-283
-1.61321e-283
-1.61454e-286
-4.36322e-287
-4.13569e-290
-1.12109e-290
-1.00633e-293
-2.73634e-294
-2.32595e-297
-6.34411e-298
-5.10629e-301
-1.39708e-301
-1.06471e-304
-2.92208e-305
-2.10839e-308
-5.8045e-309
-3.96499e-312
-1.09499e-312
-7.08071e-316
-1.96156e-316
-1.20068e-319
-3.33692e-320
-1.97626e-323
-4.94066e-324
0
0
0
0
0
0
0
0
0
0
0
0
0
0
0
0
0
0
0
0
0
0
0
0
0
0
0
0
0
0
0
0
0
0
0
0
0
0
0
0
0
0
0
0
0
0
0
0
0
0
0
0
0
0
0
0
0
0
0
0
0
0
0
0
0
0
0
0
0
0
0
0
0
0
0
0
0
0
0
0
0
0
0
0
0
0
0
0
0
0
0
0
-6.2111e-48
-2.06088e-48
-2.37439e-49
-7.73162e-50
-8.29291e-51
-2.65385e-51
-2.65246e-52
-8.35297e-53
-7.78774e-54
-2.41634e-54
-2.10378e-55
-6.43868e-56
-5.24046e-57
-1.58373e-57
-1.20621e-58
-3.60315e-59
-2.57042e-60
-7.59658e-61
-5.08046e-62
-1.48681e-62
-9.32956e-64
-2.70588e-64
-1.59431e-65
-4.5862e-66
-2.53919e-67
-7.24972e-68
-3.77436e-69
-1.07032e-69
-5.24329e-71
-1.47774e-71
-6.81616e-73
-1.91037e-73
-8.30213e-75
-2.31524e-75
-9.48581e-77
-2.63354e-77
-1.0179e-78
-2.81479e-79
-1.02703e-80
-2.8301e-81
-9.75468e-83
-2.67977e-83
-8.73158e-85
-2.39233e-85
-7.37452e-87
-2.01591e-87
-5.8838e-89
-1.60532e-89
-4.44018e-91
-1.20952e-91
-3.17335e-93
-8.63329e-94
-2.15072e-95
-5.84541e-96
-1.38418e-97
-3.75936e-98
-8.47131e-100
-2.29972e-100
-4.93716e-102
-1.34e-102
-2.74401e-104
-7.44759e-105
-1.45636e-106
-3.95361e-107
-7.39078e-109
-2.00722e-109
-3.59046e-111
-9.75675e-112
-1.67139e-113
-4.54474e-114
-7.46112e-116
-2.03073e-116
-3.19564e-118
-8.70701e-119
-1.31358e-120
-3.5833e-121
-5.18221e-123
-1.4155e-123
-1.96177e-125
-5.36611e-126
-7.12347e-128
-1.9515e-128
-2.47986e-130
-6.80479e-131
-8.27167e-133
-2.27369e-133
-2.64184e-135
-7.27499e-136
-8.07383e-138
-2.22756e-138
-2.35956e-140
-6.52284e-141
-6.59012e-143
-1.82552e-143
-1.758e-145
-4.88011e-146
-4.47698e-148
-1.24547e-148
-1.0879e-150
-3.03316e-151
-2.52142e-153
-7.04607e-154
-5.57188e-156
-1.56068e-156
-1.17358e-158
-3.29502e-159
-2.35537e-161
-6.62907e-162
-4.50328e-164
-1.27054e-164
-8.20026e-167
-2.31936e-167
-1.4219e-169
-4.03188e-170
-2.34737e-172
-6.67313e-173
-3.68888e-175
-1.0514e-175
-5.5176e-178
-1.57674e-178
-7.85409e-181
-2.25036e-181
-1.06385e-183
-3.05631e-184
-1.37109e-186
-3.94957e-187
-1.68115e-189
-4.8559e-190
-1.96097e-192
-5.67962e-193
-2.17581e-195
-6.31923e-196
-2.29629e-198
-6.68766e-199
-2.30495e-201
-6.7316e-202
-2.20036e-204
-6.44422e-205
-1.99757e-207
-5.86683e-208
-1.72449e-210
-5.07917e-211
-1.41562e-213
-4.18134e-214
-1.10494e-216
-3.27302e-217
-8.19996e-220
-2.43597e-220
-5.78561e-223
-1.7237e-223
-3.88088e-226
-1.15958e-226
-2.47477e-229
-7.41602e-230
-1.50018e-232
-4.50868e-233
-8.6445e-236
-2.60567e-236
-4.73483e-239
-1.4314e-239
-2.46501e-242
-7.4741e-243
-1.21974e-245
-3.70931e-246
-5.73626e-249
-1.74963e-249
-2.56383e-252
-7.84333e-253
-1.089e-255
-3.34149e-256
-4.39572e-259
-1.35283e-259
-1.68608e-262
-5.20474e-263
-6.14542e-266
-1.90276e-266
-2.12831e-269
-6.60971e-270
-7.00342e-273
-2.1816e-273
-2.18957e-276
-6.84143e-277
-6.50372e-280
-2.03834e-280
-1.83527e-283
-5.76959e-284
-4.9199e-287
-1.55144e-287
-1.25288e-290
-3.96299e-291
-3.03067e-294
-9.61598e-295
-6.96343e-298
-2.21627e-298
-1.51965e-301
-4.85167e-302
-3.14973e-305
-1.00873e-305
-6.20003e-309
-1.99182e-309
-1.15899e-312
-3.73502e-313
-2.05734e-316
-6.65095e-317
-3.46785e-320
-1.12449e-320
-4.94066e-324
0
0
0
0
0
0
0
0
0
0
0
0
0
0
0
0
0
0
0
0
0
0
0
0
0
0
0
0
0
0
0
0
0
0
0
0
0
0
0
0
0
0
0
0
0
0
0
0
0
0
0
0
0
0
0
0
0
0
0
0
0
0
0
0
0
0
0
0
0
0
0
0
0
0
0
0
0
0
0
0
0
0
0
0
0
0
0
0
0
0
0
0
0
-3.19179e-48
-1.21028e-48
-1.26188e-49
-4.69577e-50
-4.54148e-51
-1.66088e-51
-1.49204e-52
-5.36963e-53
-4.48659e-54
-1.59088e-54
-1.23789e-55
-4.32967e-56
-3.14111e-57
-1.08485e-57
-7.34593e-59
-2.50774e-59
-1.58651e-60
-5.3584e-61
-3.17016e-62
-1.06025e-62
-5.87105e-64
-1.94599e-64
-1.00939e-65
-3.3183e-66
-1.61352e-67
-5.26478e-68
-2.40158e-69
-7.78303e-70
-3.33295e-71
-1.0735e-71
-4.31861e-73
-1.38326e-73
-5.23118e-75
-1.6672e-75
-5.93115e-77
-1.88186e-77
-6.30232e-79
-1.9917e-79
-6.28379e-81
-1.9789e-81
-5.88645e-83
-1.84809e-83
-5.1876e-85
-1.62435e-85
-4.30688e-87
-1.34551e-87
-3.37358e-89
-1.05191e-89
-2.49721e-91
-7.77418e-92
-1.74997e-93
-5.44096e-94
-1.16323e-95
-3.61314e-96
-7.35006e-98
-2.28139e-98
-4.42488e-100
-1.37282e-100
-2.54412e-102
-7.89142e-103
-1.40036e-104
-4.34371e-105
-7.39586e-107
-2.29458e-107
-3.75514e-109
-1.16552e-109
-1.83566e-111
-5.70081e-112
-8.64692e-114
-2.68709e-114
-3.92572e-116
-1.22112e-116
-1.71702e-118
-5.34659e-119
-7.22785e-121
-2.25334e-121
-2.92443e-123
-9.12908e-124
-1.13556e-125
-3.54988e-126
-4.22504e-128
-1.32282e-128
-1.50404e-130
-4.71671e-131
-5.1158e-133
-1.60711e-133
-1.66072e-135
-5.22656e-136
-5.14037e-138
-1.62083e-138
-1.51592e-140
-4.78935e-141
-4.25679e-143
-1.34763e-143
-1.13766e-145
-3.60926e-146
-2.89284e-148
-9.19749e-149
-6.99695e-151
-2.22952e-151
-1.6095e-153
-5.14029e-154
-3.52065e-156
-1.12702e-156
-7.32275e-159
-2.34971e-159
-1.44821e-161
-4.65823e-162
-2.72325e-164
-8.781e-165
-4.86911e-167
-1.57394e-167
-8.27799e-170
-2.68263e-170
-1.33822e-172
-4.34786e-173
-2.05719e-175
-6.7011e-176
-3.00734e-178
-9.82178e-179
-4.18089e-181
-1.36907e-181
-5.5278e-184
-1.81496e-184
-6.95106e-187
-2.28842e-187
-8.31345e-190
-2.74438e-190
-9.45712e-193
-3.13047e-193
-1.02329e-195
-3.39659e-196
-1.0532e-198
-3.50558e-199
-1.03112e-201
-3.44166e-202
-9.60279e-205
-3.21423e-205
-8.50722e-208
-2.85556e-208
-7.16938e-211
-2.41333e-211
-5.74755e-214
-1.94024e-214
-4.3832e-217
-1.48391e-217
-3.17984e-220
-1.07962e-220
-2.19443e-223
-7.47207e-224
-1.44056e-226
-4.9194e-227
-8.99564e-230
-3.0809e-230
-5.3433e-233
-1.83537e-233
-3.01893e-236
-1.04002e-236
-1.62237e-239
-5.60554e-240
-8.29247e-243
-2.87366e-243
-4.03124e-246
-1.40112e-246
-1.86378e-249
-6.49717e-250
-8.19468e-253
-2.86522e-253
-3.42633e-256
-1.20159e-256
-1.36227e-259
-4.79175e-260
-5.15006e-263
-1.81698e-263
-1.85118e-266
-6.55086e-267
-6.32626e-270
-2.2455e-270
-2.05532e-273
-7.31752e-274
-6.34771e-277
-2.26687e-277
-1.86351e-280
-6.67526e-281
-5.1999e-284
-1.86837e-284
-1.37903e-287
-4.97021e-288
-3.47565e-291
-1.25654e-291
-8.32434e-295
-3.01879e-295
-1.89445e-298
-6.89146e-299
-4.09639e-302
-1.49479e-302
-8.41529e-306
-3.08035e-306
-1.6423e-309
-6.03034e-310
-3.04448e-313
-1.1214e-313
-5.36064e-317
-1.98076e-317
-8.96235e-321
-3.32506e-321
0
0
0
0
0
0
0
0
0
0
0
0
0
0
0
0
0
0
0
0
0
0
0
0
0
0
0
0
0
0
0
0
0
0
0
0
0
0
0
0
0
0
0
0
0
0
0
0
0
0
0
0
0
0
0
0
0
0
0
0
0
0
0
0
0
0
0
0
0
0
0
0
0
0
0
0
0
0
0
0
0
0
0
0
0
0
0
0
0
0
0
0
0
0
-1.14791e-48
-4.89667e-49
-4.58926e-50
-1.92119e-50
-1.66481e-51
-6.84932e-52
-5.49838e-53
-2.22608e-53
-1.65836e-54
-6.61518e-55
-4.58046e-56
-1.80229e-56
-1.16155e-57
-4.51306e-58
-2.71073e-59
-1.04104e-59
-5.83437e-61
-2.21683e-61
-1.16046e-62
-4.36625e-63
-2.13702e-64
-7.96861e-65
-3.64993e-66
-1.34987e-66
-5.79119e-68
-2.1258e-68
-8.54934e-70
-3.11698e-70
-1.17604e-71
-4.26135e-72
-1.50958e-73
-5.43958e-74
-1.81066e-75
-6.49198e-76
-2.0322e-77
-7.25382e-78
-2.13722e-79
-7.59846e-80
-2.10915e-81
-7.47242e-82
-1.95611e-83
-6.90901e-84
-1.7077e-85
-6.01559e-86
-1.40581e-87
-4.94086e-88
-1.09341e-89
-3.83553e-90
-8.05239e-92
-2.82019e-92
-5.62852e-94
-1.96877e-94
-3.74397e-96
-1.3083e-96
-2.37655e-98
-8.29875e-99
-1.44368e-100
-5.03894e-101
-8.41548e-103
-2.93665e-103
-4.71837e-105
-1.64652e-105
-2.54907e-107
-8.89716e-108
-1.32827e-109
-4.63807e-110
-6.677e-112
-2.33283e-112
-3.23592e-114
-1.1313e-114
-1.51003e-116
-5.28425e-117
-6.77351e-119
-2.37287e-119
-2.9152e-121
-1.02245e-121
-1.20154e-123
-4.21972e-124
-4.73458e-126
-1.66512e-126
-1.78092e-128
-6.27299e-129
-6.38692e-131
-2.25336e-131
-2.18167e-133
-7.71043e-134
-7.09252e-136
-2.51119e-136
-2.19319e-138
-7.78002e-139
-6.44815e-141
-2.2919e-141
-1.80196e-143
-6.41791e-144
-4.78545e-146
-1.708e-146
-1.20757e-148
-4.31936e-149
-2.89529e-151
-1.0379e-151
-6.59547e-154
-2.36975e-154
-1.42751e-156
-5.14104e-157
-2.93568e-159
-1.05977e-159
-5.73661e-162
-2.0759e-162
-1.06523e-164
-3.86422e-165
-1.87977e-167
-6.83606e-168
-3.15261e-170
-1.1494e-170
-5.02546e-173
-1.8369e-173
-7.61471e-176
-2.79054e-176
-1.09683e-178
-4.03005e-179
-1.50199e-181
-5.53332e-182
-1.95555e-184
-7.2235e-185
-2.42092e-187
-8.96661e-188
-2.84992e-190
-1.05842e-190
-3.19048e-193
-1.18815e-193
-3.39688e-196
-1.2685e-196
-3.4398e-199
-1.28809e-199
-3.31316e-202
-1.24414e-202
-3.0355e-205
-1.14308e-205
-2.64559e-208
-9.99059e-209
-2.19349e-211
-8.30685e-212
-1.73018e-214
-6.57097e-215
-1.29838e-217
-4.94521e-218
-9.27009e-221
-3.54092e-221
-6.29719e-224
-2.41231e-224
-4.07004e-227
-1.56367e-227
-2.50291e-230
-9.64397e-231
-1.46449e-233
-5.65938e-234
-8.15315e-237
-3.15996e-237
-4.31872e-240
-1.67877e-240
-2.17656e-243
-8.48575e-244
-1.04367e-246
-4.08103e-247
-4.76122e-250
-1.86731e-250
-2.06643e-253
-8.12861e-254
-8.53207e-257
-3.36628e-257
-3.35116e-260
-1.32616e-260
-1.25205e-263
-4.96971e-264
-4.44946e-267
-1.77145e-267
-1.50392e-270
-6.00566e-271
-4.83437e-274
-1.9364e-274
-1.47782e-277
-5.93749e-278
-4.29574e-281
-1.73119e-281
-1.18727e-284
-4.79942e-285
-3.11974e-288
-1.26501e-288
-7.79302e-292
-3.16971e-292
-1.85043e-295
-7.54968e-296
-4.17612e-299
-1.70913e-299
-8.95709e-303
-3.67723e-303
-1.82562e-306
-7.51824e-307
-3.53554e-310
-1.46057e-310
-6.5052e-314
-2.6958e-314
-1.13704e-317
-4.72683e-318
-1.88733e-321
-7.85564e-322
0
0
0
0
0
0
0
0
0
0
0
0
0
0
0
0
0
0
0
0
0
0
0
0
0
0
0
0
0
0
0
0
0
0
0
0
0
0
0
0
0
0
0
0
0
0
0
0
0
0
0
0
0
0
0
0
0
0
0
0
0
0
0
0
0
0
0
0
0
0
0
0
0
0
0
0
0
0
0
0
0
0
0
0
0
0
0
0
0
0
0
0
0
0
-2.98455e-49
-1.41456e-49
-1.19015e-50
-5.53584e-51
-4.2985e-52
-1.96495e-52
-1.41136e-53
-6.3489e-54
-4.22686e-55
-1.87343e-55
-1.15817e-56
-5.06344e-57
-2.91135e-58
-1.25685e-58
-6.73085e-60
-2.87217e-60
-1.43448e-61
-6.0561e-62
-2.82418e-63
-1.18067e-63
-5.14653e-65
-2.13229e-65
-8.69677e-67
-3.57376e-67
-1.36514e-68
-5.56792e-69
-1.99382e-70
-8.07696e-71
-2.71378e-72
-1.0926e-72
-3.44761e-74
-1.38035e-74
-4.09439e-76
-1.63114e-76
-4.55268e-78
-1.80564e-78
-4.74744e-80
-1.87542e-80
-4.65068e-82
-1.83077e-82
-4.28793e-84
-1.6828e-84
-3.72857e-86
-1.4594e-86
-3.06469e-88
-1.19682e-88
-2.3871e-90
-9.30421e-91
-1.76681e-92
-6.8756e-93
-1.24629e-94
-4.8438e-95
-8.40355e-97
-3.2629e-97
-5.43225e-99
-2.10771e-99
-3.37504e-101
-1.30892e-101
-2.01937e-103
-7.8299e-104
-1.16492e-105
-4.51691e-106
-6.4811e-108
-2.51355e-108
-3.47552e-110
-1.34846e-110
-1.79416e-112
-6.96518e-113
-8.90081e-115
-3.45762e-115
-4.23533e-117
-1.64685e-117
-1.92929e-119
-7.50978e-120
-8.39838e-122
-3.27296e-122
-3.4883e-124
-1.36122e-124
-1.38071e-126
-5.39555e-127
-5.20268e-129
-2.03623e-129
-1.86489e-131
-7.31074e-132
-6.35519e-134
-2.49568e-134
-2.05816e-136
-8.09709e-137
-6.33258e-139
-2.49606e-139
-1.85078e-141
-7.30948e-142
-5.13756e-144
-2.03318e-144
-1.35445e-146
-5.37155e-147
-3.39136e-149
-1.34788e-149
-8.06486e-152
-3.21242e-152
-1.8216e-154
-7.27248e-155
-3.90813e-157
-1.56391e-157
-7.96485e-160
-3.19486e-160
-1.5421e-162
-6.20064e-163
-2.83669e-165
-1.14341e-165
-4.95807e-168
-2.00348e-168
-8.23483e-171
-3.336e-171
-1.2998e-173
-5.2791e-174
-1.94993e-176
-7.94012e-177
-2.78049e-179
-1.13518e-179
-3.76895e-182
-1.54281e-182
-4.85685e-185
-1.99346e-185
-5.95061e-188
-2.44897e-188
-6.93232e-191
-2.86074e-191
-7.67963e-194
-3.17781e-194
-8.09062e-197
-3.35711e-197
-8.10655e-200
-3.37306e-200
-7.72566e-203
-3.22356e-203
-7.00343e-206
-2.93042e-206
-6.03935e-209
-2.53416e-209
-4.95452e-212
-2.08486e-212
-3.86696e-215
-1.63186e-215
-2.87155e-218
-1.21528e-218
-2.02892e-221
-8.61136e-222
-1.36405e-224
-5.80619e-225
-8.72623e-228