/*--------------------------------*- C++ -*----------------------------------*\
| =========                 |                                                 |
| \\      /  F ield         | OpenFOAM: The Open Source CFD Toolbox           |
|  \\    /   O peration     | Version:  v1912                                 |
|   \\  /    A nd           | Website:  www.openfoam.com                      |
|    \\/     M anipulation  |                                                 |
\*---------------------------------------------------------------------------*/
FoamFile
{
    version     2.0;
    format      ascii;
    class       volScalarField;
    location    "10";
    object      nut;
}
// * * * * * * * * * * * * * * * * * * * * * * * * * * * * * * * * * * * * * //

dimensions      [0 2 -1 0 0 0 0];


internalField   nonuniform List<scalar> 
14268
(
1.20352e-11
1.21985e-11
1.23508e-11
1.24937e-11
1.26278e-11
1.2754e-11
1.28728e-11
1.29848e-11
1.30907e-11
1.31909e-11
1.32859e-11
1.33761e-11
1.34618e-11
1.35434e-11
1.36211e-11
1.36953e-11
1.37661e-11
1.38338e-11
1.38985e-11
1.39606e-11
1.402e-11
1.40771e-11
1.41318e-11
1.41844e-11
1.4235e-11
1.42836e-11
1.43304e-11
1.43754e-11
1.44188e-11
1.44607e-11
1.4501e-11
1.45398e-11
1.45773e-11
1.46135e-11
1.46485e-11
1.46822e-11
1.47147e-11
1.47462e-11
1.47765e-11
1.48059e-11
1.48342e-11
1.48616e-11
1.48881e-11
1.49137e-11
1.49384e-11
1.49624e-11
1.49855e-11
1.50078e-11
1.50294e-11
1.50503e-11
1.50705e-11
1.509e-11
1.51089e-11
1.51271e-11
1.51447e-11
1.51618e-11
1.51783e-11
1.51942e-11
1.52096e-11
1.52244e-11
1.52388e-11
1.52527e-11
1.52661e-11
1.5279e-11
1.52916e-11
1.53036e-11
1.53153e-11
1.53266e-11
1.53375e-11
1.5348e-11
1.53581e-11
1.53679e-11
1.53774e-11
1.53865e-11
1.53953e-11
1.54038e-11
1.54121e-11
1.542e-11
1.54276e-11
1.54349e-11
1.5442e-11
1.54489e-11
1.54555e-11
1.54619e-11
1.5468e-11
1.54739e-11
1.54796e-11
1.54851e-11
1.54904e-11
1.54955e-11
1.55004e-11
1.55052e-11
1.55097e-11
1.55141e-11
1.55183e-11
1.55224e-11
1.55263e-11
1.55301e-11
1.55337e-11
1.55372e-11
1.55406e-11
1.55438e-11
1.55469e-11
1.55499e-11
1.55528e-11
1.55556e-11
1.55582e-11
1.55608e-11
1.55632e-11
1.55656e-11
1.55678e-11
1.557e-11
1.55721e-11
1.55741e-11
1.55761e-11
1.55779e-11
1.55797e-11
1.55814e-11
1.5583e-11
1.55846e-11
1.55861e-11
1.55876e-11
1.5589e-11
1.55903e-11
1.55916e-11
1.55928e-11
1.5594e-11
1.55951e-11
1.55962e-11
1.55972e-11
1.55982e-11
1.55992e-11
1.56001e-11
1.5601e-11
1.56018e-11
1.56026e-11
1.56034e-11
1.56041e-11
1.56048e-11
1.56055e-11
1.56061e-11
1.56067e-11
1.56073e-11
1.56079e-11
1.56084e-11
1.56089e-11
1.56094e-11
1.56099e-11
1.56103e-11
1.56109e-11
1.73159e-09
1.76553e-09
1.79733e-09
1.82721e-09
1.85533e-09
1.88183e-09
1.90682e-09
1.93043e-09
1.95277e-09
1.97393e-09
1.99401e-09
2.01308e-09
2.03122e-09
2.04848e-09
2.06494e-09
2.08065e-09
2.09566e-09
2.11001e-09
2.12374e-09
2.13691e-09
2.14953e-09
2.16164e-09
2.17328e-09
2.18446e-09
2.19521e-09
2.20556e-09
2.21552e-09
2.22511e-09
2.23436e-09
2.24327e-09
2.25187e-09
2.26017e-09
2.26817e-09
2.27591e-09
2.28338e-09
2.29058e-09
2.29755e-09
2.30428e-09
2.31079e-09
2.31708e-09
2.32316e-09
2.32904e-09
2.33473e-09
2.34023e-09
2.34555e-09
2.35069e-09
2.35567e-09
2.36048e-09
2.36513e-09
2.36964e-09
2.37399e-09
2.3782e-09
2.38228e-09
2.38622e-09
2.39003e-09
2.39371e-09
2.39728e-09
2.40072e-09
2.40406e-09
2.40728e-09
2.41039e-09
2.4134e-09
2.41631e-09
2.41913e-09
2.42184e-09
2.42447e-09
2.42701e-09
2.42946e-09
2.43183e-09
2.43412e-09
2.43633e-09
2.43846e-09
2.44052e-09
2.44251e-09
2.44443e-09
2.44629e-09
2.44808e-09
2.4498e-09
2.45147e-09
2.45308e-09
2.45463e-09
2.45612e-09
2.45757e-09
2.45896e-09
2.4603e-09
2.46159e-09
2.46284e-09
2.46404e-09
2.4652e-09
2.46632e-09
2.46739e-09
2.46843e-09
2.46943e-09
2.47039e-09
2.47131e-09
2.47221e-09
2.47306e-09
2.47389e-09
2.47469e-09
2.47545e-09
2.47619e-09
2.4769e-09
2.47758e-09
2.47823e-09
2.47886e-09
2.47947e-09
2.48005e-09
2.48062e-09
2.48115e-09
2.48168e-09
2.48217e-09
2.48265e-09
2.48311e-09
2.48355e-09
2.48397e-09
2.48438e-09
2.48477e-09
2.48515e-09
2.4855e-09
2.48586e-09
2.48618e-09
2.4865e-09
2.4868e-09
2.4871e-09
2.48738e-09
2.48765e-09
2.48791e-09
2.48816e-09
2.4884e-09
2.48862e-09
2.48884e-09
2.48905e-09
2.48925e-09
2.48944e-09
2.48963e-09
2.4898e-09
2.48997e-09
2.49013e-09
2.49029e-09
2.49043e-09
2.49058e-09
2.4907e-09
2.49084e-09
2.49096e-09
2.49108e-09
2.49119e-09
2.4913e-09
2.4914e-09
2.49149e-09
2.49163e-09
2.74872e-08
2.803e-08
2.85378e-08
2.90144e-08
2.94624e-08
2.9884e-08
3.02813e-08
3.06563e-08
3.10108e-08
3.13465e-08
3.16647e-08
3.19667e-08
3.22538e-08
3.2527e-08
3.27874e-08
3.30357e-08
3.32728e-08
3.34994e-08
3.37163e-08
3.39239e-08
3.41229e-08
3.43138e-08
3.44971e-08
3.46731e-08
3.48424e-08
3.50052e-08
3.51619e-08
3.53128e-08
3.54582e-08
3.55983e-08
3.57334e-08
3.58637e-08
3.59895e-08
3.6111e-08
3.62282e-08
3.63414e-08
3.64507e-08
3.65564e-08
3.66584e-08
3.67571e-08
3.68525e-08
3.69447e-08
3.70339e-08
3.712e-08
3.72034e-08
3.7284e-08
3.7362e-08
3.74373e-08
3.75103e-08
3.75808e-08
3.76489e-08
3.77149e-08
3.77787e-08
3.78403e-08
3.79e-08
3.79576e-08
3.80134e-08
3.80673e-08
3.81194e-08
3.81698e-08
3.82185e-08
3.82656e-08
3.83111e-08
3.8355e-08
3.83975e-08
3.84386e-08
3.84782e-08
3.85165e-08
3.85536e-08
3.85893e-08
3.86238e-08
3.86572e-08
3.86893e-08
3.87204e-08
3.87504e-08
3.87794e-08
3.88073e-08
3.88343e-08
3.88603e-08
3.88854e-08
3.89096e-08
3.8933e-08
3.89555e-08
3.89772e-08
3.89982e-08
3.90184e-08
3.90378e-08
3.90566e-08
3.90747e-08
3.90921e-08
3.91089e-08
3.91251e-08
3.91407e-08
3.91557e-08
3.91701e-08
3.9184e-08
3.91974e-08
3.92103e-08
3.92227e-08
3.92347e-08
3.92462e-08
3.92572e-08
3.92679e-08
3.92781e-08
3.92879e-08
3.92974e-08
3.93064e-08
3.93153e-08
3.93236e-08
3.93318e-08
3.93395e-08
3.9347e-08
3.93541e-08
3.93611e-08
3.93676e-08
3.9374e-08
3.93801e-08
3.9386e-08
3.93915e-08
3.9397e-08
3.94021e-08
3.94072e-08
3.94119e-08
3.94165e-08
3.94208e-08
3.94251e-08
3.94291e-08
3.94329e-08
3.94367e-08
3.94402e-08
3.94437e-08
3.94469e-08
3.945e-08
3.9453e-08
3.94559e-08
3.94586e-08
3.94613e-08
3.94637e-08
3.94663e-08
3.94684e-08
3.94708e-08
3.94728e-08
3.94749e-08
3.94767e-08
3.94786e-08
3.94804e-08
3.9482e-08
3.94836e-08
3.94851e-08
3.94872e-08
1.27923e-07
1.29988e-07
1.31905e-07
1.3369e-07
1.35356e-07
1.36914e-07
1.38374e-07
1.39744e-07
1.41032e-07
1.42246e-07
1.43391e-07
1.44473e-07
1.45498e-07
1.46468e-07
1.4739e-07
1.48266e-07
1.491e-07
1.49894e-07
1.50651e-07
1.51374e-07
1.52066e-07
1.52727e-07
1.5336e-07
1.53966e-07
1.54548e-07
1.55106e-07
1.55642e-07
1.56157e-07
1.56652e-07
1.57128e-07
1.57587e-07
1.58028e-07
1.58454e-07
1.58864e-07
1.59259e-07
1.5964e-07
1.60007e-07
1.60362e-07
1.60704e-07
1.61034e-07
1.61353e-07
1.6166e-07
1.61958e-07
1.62245e-07
1.62522e-07
1.6279e-07
1.63048e-07
1.63298e-07
1.6354e-07
1.63773e-07
1.63999e-07
1.64216e-07
1.64427e-07
1.6463e-07
1.64827e-07
1.65017e-07
1.652e-07
1.65377e-07
1.65548e-07
1.65714e-07
1.65874e-07
1.66028e-07
1.66177e-07
1.66321e-07
1.6646e-07
1.66594e-07
1.66724e-07
1.66849e-07
1.6697e-07
1.67087e-07
1.67199e-07
1.67308e-07
1.67413e-07
1.67514e-07
1.67612e-07
1.67706e-07
1.67797e-07
1.67885e-07
1.6797e-07
1.68051e-07
1.6813e-07
1.68206e-07
1.68279e-07
1.6835e-07
1.68418e-07
1.68483e-07
1.68546e-07
1.68607e-07
1.68666e-07
1.68723e-07
1.68777e-07
1.68829e-07
1.6888e-07
1.68929e-07
1.68975e-07
1.6902e-07
1.69064e-07
1.69106e-07
1.69146e-07
1.69185e-07
1.69222e-07
1.69258e-07
1.69292e-07
1.69325e-07
1.69357e-07
1.69388e-07
1.69417e-07
1.69446e-07
1.69473e-07
1.69499e-07
1.69524e-07
1.69548e-07
1.69571e-07
1.69594e-07
1.69615e-07
1.69636e-07
1.69655e-07
1.69675e-07
1.69693e-07
1.6971e-07
1.69727e-07
1.69743e-07
1.69758e-07
1.69773e-07
1.69788e-07
1.69801e-07
1.69814e-07
1.69827e-07
1.69839e-07
1.6985e-07
1.69862e-07
1.69872e-07
1.69882e-07
1.69892e-07
1.69901e-07
1.6991e-07
1.69919e-07
1.69927e-07
1.69935e-07
1.69942e-07
1.6995e-07
1.69956e-07
1.69963e-07
1.69969e-07
1.69975e-07
1.69981e-07
1.69986e-07
1.69991e-07
1.69996e-07
1.70003e-07
2.84353e-07
2.87105e-07
2.89632e-07
2.91966e-07
2.94125e-07
2.96128e-07
2.9799e-07
2.99725e-07
3.01346e-07
3.02864e-07
3.04288e-07
3.05627e-07
3.06887e-07
3.08076e-07
3.092e-07
3.10263e-07
3.1127e-07
3.12227e-07
3.13135e-07
3.14e-07
3.14823e-07
3.15608e-07
3.16357e-07
3.17072e-07
3.17757e-07
3.18412e-07
3.19039e-07
3.19639e-07
3.20216e-07
3.20768e-07
3.21299e-07
3.2181e-07
3.22301e-07
3.22773e-07
3.23227e-07
3.23664e-07
3.24085e-07
3.24491e-07
3.24882e-07
3.25258e-07
3.25621e-07
3.25971e-07
3.26309e-07
3.26634e-07
3.26948e-07
3.27251e-07
3.27544e-07
3.27826e-07
3.28098e-07
3.28361e-07
3.28615e-07
3.2886e-07
3.29096e-07
3.29324e-07
3.29544e-07
3.29757e-07
3.29962e-07
3.3016e-07
3.30352e-07
3.30536e-07
3.30715e-07
3.30887e-07
3.31053e-07
3.31213e-07
3.31368e-07
3.31517e-07
3.31661e-07
3.318e-07
3.31934e-07
3.32064e-07
3.32189e-07
3.32309e-07
3.32425e-07
3.32537e-07
3.32646e-07
3.3275e-07
3.3285e-07
3.32947e-07
3.33041e-07
3.33131e-07
3.33218e-07
3.33302e-07
3.33383e-07
3.3346e-07
3.33535e-07
3.33608e-07
3.33677e-07
3.33744e-07
3.33809e-07
3.33871e-07
3.33931e-07
3.33989e-07
3.34044e-07
3.34098e-07
3.34149e-07
3.34199e-07
3.34247e-07
3.34293e-07
3.34337e-07
3.34379e-07
3.3442e-07
3.3446e-07
3.34498e-07
3.34534e-07
3.34569e-07
3.34603e-07
3.34635e-07
3.34666e-07
3.34695e-07
3.34725e-07
3.34752e-07
3.34779e-07
3.34804e-07
3.34829e-07
3.34852e-07
3.34875e-07
3.34896e-07
3.34917e-07
3.34937e-07
3.34957e-07
3.34974e-07
3.34993e-07
3.35009e-07
3.35026e-07
3.35041e-07
3.35056e-07
3.3507e-07
3.35084e-07
3.35097e-07
3.3511e-07
3.35122e-07
3.35133e-07
3.35145e-07
3.35155e-07
3.35166e-07
3.35175e-07
3.35185e-07
3.35193e-07
3.35202e-07
3.3521e-07
3.35218e-07
3.35225e-07
3.35233e-07
3.3524e-07
3.35246e-07
3.35252e-07
3.35258e-07
3.35264e-07
3.35269e-07
3.35277e-07
3.99487e-07
4.01339e-07
4.0302e-07
4.04556e-07
4.05964e-07
4.07257e-07
4.0845e-07
4.09552e-07
4.10574e-07
4.11524e-07
4.12409e-07
4.13237e-07
4.14011e-07
4.14737e-07
4.1542e-07
4.16063e-07
4.1667e-07
4.17243e-07
4.17785e-07
4.18299e-07
4.18786e-07
4.19249e-07
4.19689e-07
4.20109e-07
4.20508e-07
4.2089e-07
4.21254e-07
4.21602e-07
4.21934e-07
4.22253e-07
4.22558e-07
4.2285e-07
4.2313e-07
4.23399e-07
4.23657e-07
4.23905e-07
4.24144e-07
4.24374e-07
4.24594e-07
4.24807e-07
4.25012e-07
4.25209e-07
4.25399e-07
4.25582e-07
4.25758e-07
4.25928e-07
4.26091e-07
4.26249e-07
4.26401e-07
4.26548e-07
4.2669e-07
4.26826e-07
4.26958e-07
4.27085e-07
4.27207e-07
4.27325e-07
4.27439e-07
4.27549e-07
4.27655e-07
4.27758e-07
4.27856e-07
4.27951e-07
4.28043e-07
4.28132e-07
4.28217e-07
4.283e-07
4.28379e-07
4.28456e-07
4.2853e-07
4.28601e-07
4.2867e-07
4.28737e-07
4.28801e-07
4.28862e-07
4.28922e-07
4.28979e-07
4.29034e-07
4.29088e-07
4.29139e-07
4.29188e-07
4.29236e-07
4.29282e-07
4.29326e-07
4.29369e-07
4.2941e-07
4.2945e-07
4.29488e-07
4.29525e-07
4.2956e-07
4.29594e-07
4.29627e-07
4.29659e-07
4.29689e-07
4.29718e-07
4.29746e-07
4.29774e-07
4.298e-07
4.29825e-07
4.29849e-07
4.29872e-07
4.29894e-07
4.29916e-07
4.29937e-07
4.29956e-07
4.29976e-07
4.29994e-07
4.30011e-07
4.30029e-07
4.30044e-07
4.30061e-07
4.30075e-07
4.3009e-07
4.30104e-07
4.30117e-07
4.3013e-07
4.30143e-07
4.30154e-07
4.30166e-07
4.30176e-07
4.30187e-07
4.30197e-07
4.30207e-07
4.30215e-07
4.30225e-07
4.30233e-07
4.30241e-07
4.30249e-07
4.30256e-07
4.30264e-07
4.3027e-07
4.30277e-07
4.30283e-07
4.3029e-07
4.30295e-07
4.30301e-07
4.30306e-07
4.30311e-07
4.30316e-07
4.30321e-07
4.30325e-07
4.3033e-07
4.30333e-07
4.30338e-07
4.30341e-07
4.30345e-07
4.30348e-07
4.30351e-07
4.30355e-07
4.30357e-07
4.30362e-07
4.50503e-07
4.51292e-07
4.52002e-07
4.52646e-07
4.53231e-07
4.53765e-07
4.54254e-07
4.54702e-07
4.55116e-07
4.55498e-07
4.55852e-07
4.56182e-07
4.56489e-07
4.56775e-07
4.57044e-07
4.57296e-07
4.57533e-07
4.57756e-07
4.57966e-07
4.58165e-07
4.58353e-07
4.58531e-07
4.58701e-07
4.58861e-07
4.59014e-07
4.5916e-07
4.59298e-07
4.59431e-07
4.59557e-07
4.59678e-07
4.59793e-07
4.59904e-07
4.6001e-07
4.60111e-07
4.60208e-07
4.60302e-07
4.60391e-07
4.60477e-07
4.6056e-07
4.6064e-07
4.60717e-07
4.60791e-07
4.60863e-07
4.60931e-07
4.60998e-07
4.61062e-07
4.61123e-07
4.61183e-07
4.6124e-07
4.61295e-07
4.61349e-07
4.614e-07
4.6145e-07
4.61498e-07
4.61544e-07
4.61589e-07
4.61632e-07
4.61674e-07
4.61714e-07
4.61752e-07
4.6179e-07
4.61826e-07
4.6186e-07
4.61894e-07
4.61926e-07
4.61958e-07
4.61988e-07
4.62017e-07
4.62045e-07
4.62072e-07
4.62098e-07
4.62123e-07
4.62147e-07
4.62171e-07
4.62193e-07
4.62215e-07
4.62236e-07
4.62256e-07
4.62276e-07
4.62295e-07
4.62313e-07
4.6233e-07
4.62347e-07
4.62363e-07
4.62379e-07
4.62394e-07
4.62408e-07
4.62422e-07
4.62436e-07
4.62449e-07
4.62461e-07
4.62473e-07
4.62485e-07
4.62496e-07
4.62507e-07
4.62517e-07
4.62527e-07
4.62536e-07
4.62546e-07
4.62554e-07
4.62563e-07
4.62571e-07
4.62579e-07
4.62586e-07
4.62594e-07
4.62601e-07
4.62607e-07
4.62614e-07
4.6262e-07
4.62626e-07
4.62632e-07
4.62637e-07
4.62643e-07
4.62648e-07
4.62653e-07
4.62657e-07
4.62662e-07
4.62666e-07
4.6267e-07
4.62674e-07
4.62678e-07
4.62682e-07
4.62685e-07
4.62689e-07
4.62692e-07
4.62695e-07
4.62698e-07
4.62701e-07
4.62704e-07
4.62706e-07
4.62709e-07
4.62711e-07
4.62713e-07
4.62715e-07
4.62718e-07
4.6272e-07
4.62722e-07
4.62723e-07
4.62725e-07
4.62727e-07
4.62729e-07
4.6273e-07
4.62732e-07
4.62733e-07
4.62734e-07
4.62736e-07
4.62737e-07
4.62738e-07
4.62739e-07
4.62741e-07
4.67142e-07
4.67372e-07
4.67584e-07
4.67776e-07
4.67949e-07
4.68107e-07
4.68251e-07
4.68384e-07
4.68506e-07
4.68618e-07
4.68722e-07
4.68819e-07
4.6891e-07
4.68994e-07
4.69074e-07
4.69148e-07
4.69218e-07
4.69284e-07
4.69346e-07
4.69405e-07
4.69461e-07
4.69514e-07
4.69565e-07
4.69613e-07
4.69659e-07
4.69702e-07
4.69744e-07
4.69784e-07
4.69822e-07
4.69859e-07
4.69894e-07
4.69928e-07
4.6996e-07
4.69991e-07
4.70021e-07
4.70049e-07
4.70077e-07
4.70104e-07
4.7013e-07
4.70155e-07
4.70179e-07
4.70203e-07
4.70225e-07
4.70248e-07
4.70269e-07
4.7029e-07
4.7031e-07
4.70329e-07
4.70348e-07
4.70367e-07
4.70384e-07
4.70402e-07
4.70418e-07
4.70434e-07
4.7045e-07
4.70465e-07
4.7048e-07
4.70494e-07
4.70508e-07
4.70521e-07
4.70534e-07
4.70547e-07
4.70559e-07
4.7057e-07
4.70582e-07
4.70592e-07
4.70603e-07
4.70613e-07
4.70623e-07
4.70633e-07
4.70642e-07
4.70651e-07
4.70659e-07
4.70668e-07
4.70676e-07
4.70683e-07
4.70691e-07
4.70698e-07
4.70705e-07
4.70712e-07
4.70718e-07
4.70725e-07
4.70731e-07
4.70737e-07
4.70742e-07
4.70748e-07
4.70753e-07
4.70758e-07
4.70763e-07
4.70768e-07
4.70772e-07
4.70777e-07
4.70781e-07
4.70785e-07
4.70789e-07
4.70793e-07
4.70796e-07
4.708e-07
4.70803e-07
4.70806e-07
4.70809e-07
4.70812e-07
4.70815e-07
4.70818e-07
4.70821e-07
4.70824e-07
4.70826e-07
4.70829e-07
4.7083e-07
4.70833e-07
4.70835e-07
4.70837e-07
4.70839e-07
4.70841e-07
4.70843e-07
4.70845e-07
4.70846e-07
4.70848e-07
4.70849e-07
4.70851e-07
4.70852e-07
4.70854e-07
4.70855e-07
4.70856e-07
4.70857e-07
4.70858e-07
4.7086e-07
4.70861e-07
4.70862e-07
4.70863e-07
4.70864e-07
4.70865e-07
4.70866e-07
4.70866e-07
4.70867e-07
4.70868e-07
4.70869e-07
4.70869e-07
4.7087e-07
4.70871e-07
4.70872e-07
4.70872e-07
4.70873e-07
4.70873e-07
4.70874e-07
4.70874e-07
4.70875e-07
4.70876e-07
4.70875e-07
4.70877e-07
4.71661e-07
4.71695e-07
4.71721e-07
4.71746e-07
4.71772e-07
4.71796e-07
4.71819e-07
4.7184e-07
4.71861e-07
4.71881e-07
4.719e-07
4.71918e-07
4.71935e-07
4.71952e-07
4.71969e-07
4.71984e-07
4.71999e-07
4.72014e-07
4.72028e-07
4.72042e-07
4.72055e-07
4.72068e-07
4.72081e-07
4.72093e-07
4.72105e-07
4.72117e-07
4.72128e-07
4.72139e-07
4.72149e-07
4.7216e-07
4.7217e-07
4.7218e-07
4.72189e-07
4.72199e-07
4.72208e-07
4.72216e-07
4.72225e-07
4.72234e-07
4.72242e-07
4.72251e-07
4.72259e-07
4.72268e-07
4.72276e-07
4.72284e-07
4.72292e-07
4.723e-07
4.72308e-07
4.72315e-07
4.72323e-07
4.7233e-07
4.72337e-07
4.72344e-07
4.72351e-07
4.72358e-07
4.72364e-07
4.72371e-07
4.72377e-07
4.72383e-07
4.72389e-07
4.72395e-07
4.72401e-07
4.72406e-07
4.72412e-07
4.72417e-07
4.72422e-07
4.72427e-07
4.72432e-07
4.72436e-07
4.72441e-07
4.72445e-07
4.7245e-07
4.72454e-07
4.72458e-07
4.72462e-07
4.72466e-07
4.72469e-07
4.72473e-07
4.72476e-07
4.7248e-07
4.72483e-07
4.72486e-07
4.72489e-07
4.72492e-07
4.72495e-07
4.72498e-07
4.725e-07
4.72503e-07
4.72505e-07
4.72508e-07
4.7251e-07
4.72512e-07
4.72514e-07
4.72517e-07
4.72519e-07
4.7252e-07
4.72522e-07
4.72524e-07
4.72526e-07
4.72528e-07
4.72529e-07
4.72531e-07
4.72532e-07
4.72534e-07
4.72535e-07
4.72537e-07
4.72538e-07
4.72539e-07
4.72541e-07
4.72541e-07
4.72543e-07
4.72544e-07
4.72545e-07
4.72546e-07
4.72547e-07
4.72548e-07
4.72549e-07
4.72549e-07
4.72551e-07
4.72551e-07
4.72552e-07
4.72553e-07
4.72554e-07
4.72554e-07
4.72555e-07
4.72556e-07
4.72556e-07
4.72557e-07
4.72557e-07
4.72558e-07
4.72558e-07
4.72559e-07
4.72559e-07
4.7256e-07
4.7256e-07
4.72561e-07
4.72561e-07
4.72562e-07
4.72562e-07
4.72563e-07
4.72562e-07
4.72563e-07
4.72563e-07
4.72564e-07
4.72564e-07
4.72564e-07
4.72565e-07
4.72565e-07
4.72565e-07
4.72565e-07
4.72566e-07
4.72746e-07
4.72719e-07
4.72691e-07
4.72666e-07
4.72647e-07
4.72632e-07
4.72619e-07
4.72609e-07
4.726e-07
4.72594e-07
4.72588e-07
4.72585e-07
4.72582e-07
4.7258e-07
4.72579e-07
4.72578e-07
4.72578e-07
4.72579e-07
4.7258e-07
4.72582e-07
4.72583e-07
4.72586e-07
4.72588e-07
4.72591e-07
4.72594e-07
4.72597e-07
4.726e-07
4.72603e-07
4.72606e-07
4.7261e-07
4.72613e-07
4.72617e-07
4.72621e-07
4.72624e-07
4.72628e-07
4.72632e-07
4.72636e-07
4.7264e-07
4.72644e-07
4.72649e-07
4.72653e-07
4.72658e-07
4.72663e-07
4.72667e-07
4.72672e-07
4.72677e-07
4.72681e-07
4.72686e-07
4.72691e-07
4.72696e-07
4.727e-07
4.72705e-07
4.72709e-07
4.72714e-07
4.72718e-07
4.72723e-07
4.72727e-07
4.72731e-07
4.72735e-07
4.72739e-07
4.72743e-07
4.72747e-07
4.72751e-07
4.72755e-07
4.72758e-07
4.72762e-07
4.72765e-07
4.72769e-07
4.72772e-07
4.72775e-07
4.72779e-07
4.72782e-07
4.72785e-07
4.72787e-07
4.7279e-07
4.72793e-07
4.72796e-07
4.72798e-07
4.72801e-07
4.72803e-07
4.72806e-07
4.72808e-07
4.7281e-07
4.72812e-07
4.72814e-07
4.72816e-07
4.72818e-07
4.7282e-07
4.72822e-07
4.72824e-07
4.72825e-07
4.72827e-07
4.72829e-07
4.7283e-07
4.72832e-07
4.72833e-07
4.72835e-07
4.72836e-07
4.72837e-07
4.72839e-07
4.7284e-07
4.72841e-07
4.72842e-07
4.72843e-07
4.72844e-07
4.72846e-07
4.72846e-07
4.72848e-07
4.72848e-07
4.72849e-07
4.7285e-07
4.72851e-07
4.72852e-07
4.72853e-07
4.72853e-07
4.72854e-07
4.72855e-07
4.72856e-07
4.72856e-07
4.72857e-07
4.72857e-07
4.72858e-07
4.72858e-07
4.72859e-07
4.7286e-07
4.7286e-07
4.72861e-07
4.72861e-07
4.72862e-07
4.72862e-07
4.72862e-07
4.72863e-07
4.72863e-07
4.72863e-07
4.72864e-07
4.72864e-07
4.72865e-07
4.72865e-07
4.72865e-07
4.72865e-07
4.72866e-07
4.72866e-07
4.72867e-07
4.72867e-07
4.72867e-07
4.72867e-07
4.72867e-07
4.72868e-07
4.72867e-07
4.72869e-07
4.72982e-07
4.72938e-07
4.72895e-07
4.72858e-07
4.72827e-07
4.72802e-07
4.7278e-07
4.72761e-07
4.72746e-07
4.72732e-07
4.72721e-07
4.72712e-07
4.72704e-07
4.72697e-07
4.72692e-07
4.72688e-07
4.72684e-07
4.72682e-07
4.7268e-07
4.72679e-07
4.72678e-07
4.72678e-07
4.72678e-07
4.72679e-07
4.72679e-07
4.72681e-07
4.72682e-07
4.72684e-07
4.72686e-07
4.72688e-07
4.7269e-07
4.72692e-07
4.72695e-07
4.72698e-07
4.727e-07
4.72703e-07
4.72706e-07
4.72709e-07
4.72713e-07
4.72717e-07
4.7272e-07
4.72724e-07
4.72728e-07
4.72732e-07
4.72737e-07
4.72741e-07
4.72745e-07
4.72749e-07
4.72753e-07
4.72758e-07
4.72762e-07
4.72766e-07
4.7277e-07
4.72774e-07
4.72778e-07
4.72782e-07
4.72786e-07
4.7279e-07
4.72794e-07
4.72798e-07
4.72801e-07
4.72805e-07
4.72808e-07
4.72812e-07
4.72815e-07
4.72818e-07
4.72822e-07
4.72825e-07
4.72828e-07
4.72831e-07
4.72834e-07
4.72837e-07
4.72839e-07
4.72842e-07
4.72845e-07
4.72847e-07
4.7285e-07
4.72852e-07
4.72854e-07
4.72857e-07
4.72859e-07
4.72861e-07
4.72863e-07
4.72865e-07
4.72867e-07
4.72869e-07
4.72871e-07
4.72872e-07
4.72874e-07
4.72876e-07
4.72877e-07
4.72879e-07
4.7288e-07
4.72882e-07
4.72883e-07
4.72885e-07
4.72886e-07
4.72887e-07
4.72888e-07
4.7289e-07
4.72891e-07
4.72892e-07
4.72893e-07
4.72894e-07
4.72895e-07
4.72896e-07
4.72897e-07
4.72898e-07
4.72898e-07
4.729e-07
4.729e-07
4.72901e-07
4.72902e-07
4.72902e-07
4.72903e-07
4.72904e-07
4.72904e-07
4.72905e-07
4.72905e-07
4.72907e-07
4.72907e-07
4.72908e-07
4.72908e-07
4.72908e-07
4.72909e-07
4.72909e-07
4.7291e-07
4.7291e-07
4.72911e-07
4.72911e-07
4.72912e-07
4.72912e-07
4.72912e-07
4.72913e-07
4.72913e-07
4.72913e-07
4.72914e-07
4.72914e-07
4.72915e-07
4.72914e-07
4.72915e-07
4.72915e-07
4.72916e-07
4.72916e-07
4.72916e-07
4.72916e-07
4.72916e-07
4.72917e-07
4.72916e-07
4.72918e-07
4.73026e-07
4.72979e-07
4.72933e-07
4.72892e-07
4.72859e-07
4.72831e-07
4.72807e-07
4.72787e-07
4.7277e-07
4.72755e-07
4.72743e-07
4.72732e-07
4.72723e-07
4.72716e-07
4.7271e-07
4.72705e-07
4.72701e-07
4.72698e-07
4.72695e-07
4.72694e-07
4.72692e-07
4.72692e-07
4.72692e-07
4.72692e-07
4.72692e-07
4.72693e-07
4.72695e-07
4.72696e-07
4.72698e-07
4.72699e-07
4.72702e-07
4.72704e-07
4.72706e-07
4.72708e-07
4.72711e-07
4.72714e-07
4.72716e-07
4.7272e-07
4.72723e-07
4.72726e-07
4.7273e-07
4.72734e-07
4.72738e-07
4.72741e-07
4.72745e-07
4.72749e-07
4.72754e-07
4.72758e-07
4.72762e-07
4.72766e-07
4.7277e-07
4.72774e-07
4.72778e-07
4.72782e-07
4.72786e-07
4.7279e-07
4.72794e-07
4.72798e-07
4.72801e-07
4.72805e-07
4.72809e-07
4.72812e-07
4.72816e-07
4.72819e-07
4.72823e-07
4.72826e-07
4.72829e-07
4.72832e-07
4.72835e-07
4.72838e-07
4.72841e-07
4.72844e-07
4.72847e-07
4.72849e-07
4.72852e-07
4.72855e-07
4.72857e-07
4.72859e-07
4.72862e-07
4.72864e-07
4.72866e-07
4.72868e-07
4.7287e-07
4.72872e-07
4.72874e-07
4.72876e-07
4.72878e-07
4.72879e-07
4.72881e-07
4.72883e-07
4.72884e-07
4.72886e-07
4.72887e-07
4.72889e-07
4.7289e-07
4.72891e-07
4.72893e-07
4.72894e-07
4.72895e-07
4.72896e-07
4.72897e-07
4.72898e-07
4.729e-07
4.729e-07
4.72901e-07
4.72902e-07
4.72903e-07
4.72904e-07
4.72905e-07
4.72906e-07
4.72906e-07
4.72907e-07
4.72908e-07
4.72909e-07
4.7291e-07
4.7291e-07
4.72911e-07
4.72912e-07
4.72912e-07
4.72913e-07
4.72913e-07
4.72914e-07
4.72914e-07
4.72915e-07
4.72915e-07
4.72916e-07
4.72916e-07
4.72917e-07
4.72917e-07
4.72918e-07
4.72918e-07
4.72918e-07
4.72919e-07
4.72919e-07
4.7292e-07
4.7292e-07
4.7292e-07
4.7292e-07
4.72921e-07
4.72921e-07
4.72922e-07
4.72922e-07
4.72922e-07
4.72922e-07
4.72923e-07
4.72923e-07
4.72923e-07
4.72924e-07
4.72923e-07
4.72925e-07
4.73031e-07
4.72983e-07
4.72937e-07
4.72896e-07
4.72862e-07
4.72834e-07
4.7281e-07
4.72789e-07
4.72772e-07
4.72757e-07
4.72745e-07
4.72734e-07
4.72725e-07
4.72718e-07
4.72711e-07
4.72706e-07
4.72702e-07
4.72699e-07
4.72696e-07
4.72695e-07
4.72693e-07
4.72693e-07
4.72693e-07
4.72693e-07
4.72693e-07
4.72694e-07
4.72695e-07
4.72697e-07
4.72698e-07
4.727e-07
4.72702e-07
4.72704e-07
4.72706e-07
4.72709e-07
4.72711e-07
4.72714e-07
4.72717e-07
4.7272e-07
4.72723e-07
4.72727e-07
4.7273e-07
4.72734e-07
4.72738e-07
4.72742e-07
4.72746e-07
4.7275e-07
4.72754e-07
4.72758e-07
4.72762e-07
4.72766e-07
4.7277e-07
4.72775e-07
4.72779e-07
4.72783e-07
4.72787e-07
4.72791e-07
4.72795e-07
4.72799e-07
4.72803e-07
4.72806e-07
4.7281e-07
4.72814e-07
4.72817e-07
4.72821e-07
4.72824e-07
4.72828e-07
4.72831e-07
4.72834e-07
4.72837e-07
4.7284e-07
4.72843e-07
4.72846e-07
4.72849e-07
4.72852e-07
4.72854e-07
4.72857e-07
4.72859e-07
4.72862e-07
4.72864e-07
4.72866e-07
4.72868e-07
4.7287e-07
4.72872e-07
4.72874e-07
4.72876e-07
4.72878e-07
4.7288e-07
4.72882e-07
4.72883e-07
4.72885e-07
4.72887e-07
4.72888e-07
4.7289e-07
4.72891e-07
4.72892e-07
4.72894e-07
4.72895e-07
4.72896e-07
4.72897e-07
4.72898e-07
4.729e-07
4.72901e-07
4.72902e-07
4.72903e-07
4.72904e-07
4.72905e-07
4.72905e-07
4.72907e-07
4.72907e-07
4.72908e-07
4.72909e-07
4.72909e-07
4.7291e-07
4.72911e-07
4.72911e-07
4.72912e-07
4.72913e-07
4.72914e-07
4.72914e-07
4.72915e-07
4.72915e-07
4.72916e-07
4.72916e-07
4.72916e-07
4.72917e-07
4.72917e-07
4.72918e-07
4.72918e-07
4.72919e-07
4.72919e-07
4.72919e-07
4.72919e-07
4.7292e-07
4.7292e-07
4.7292e-07
4.72921e-07
4.72921e-07
4.72921e-07
4.72922e-07
4.72921e-07
4.72922e-07
4.72922e-07
4.72922e-07
4.72922e-07
4.72923e-07
4.72923e-07
4.72923e-07
4.72924e-07
4.72923e-07
4.72924e-07
4.7303e-07
4.72982e-07
4.72935e-07
4.72894e-07
4.72861e-07
4.72833e-07
4.72809e-07
4.72788e-07
4.72771e-07
4.72756e-07
4.72743e-07
4.72733e-07
4.72724e-07
4.72716e-07
4.7271e-07
4.72705e-07
4.72701e-07
4.72698e-07
4.72695e-07
4.72694e-07
4.72692e-07
4.72692e-07
4.72692e-07
4.72692e-07
4.72692e-07
4.72693e-07
4.72694e-07
4.72696e-07
4.72697e-07
4.72699e-07
4.72701e-07
4.72703e-07
4.72705e-07
4.72708e-07
4.7271e-07
4.72713e-07
4.72716e-07
4.72719e-07
4.72722e-07
4.72726e-07
4.72729e-07
4.72733e-07
4.72737e-07
4.72741e-07
4.72745e-07
4.72749e-07
4.72753e-07
4.72758e-07
4.72762e-07
4.72766e-07
4.7277e-07
4.72774e-07
4.72779e-07
4.72783e-07
4.72787e-07
4.72791e-07
4.72795e-07
4.72799e-07
4.72803e-07
4.72806e-07
4.7281e-07
4.72814e-07
4.72817e-07
4.72821e-07
4.72824e-07
4.72828e-07
4.72831e-07
4.72834e-07
4.72837e-07
4.7284e-07
4.72843e-07
4.72846e-07
4.72849e-07
4.72851e-07
4.72854e-07
4.72856e-07
4.72859e-07
4.72861e-07
4.72864e-07
4.72866e-07
4.72868e-07
4.7287e-07
4.72873e-07
4.72875e-07
4.72877e-07
4.72879e-07
4.7288e-07
4.72882e-07
4.72884e-07
4.72886e-07
4.72887e-07
4.72889e-07
4.72891e-07
4.72892e-07
4.72893e-07
4.72895e-07
4.72896e-07
4.72898e-07
4.72899e-07
4.729e-07
4.72901e-07
4.72902e-07
4.72903e-07
4.72904e-07
4.72906e-07
4.72907e-07
4.72907e-07
4.72909e-07
4.72909e-07
4.7291e-07
4.72911e-07
4.72912e-07
4.72912e-07
4.72913e-07
4.72914e-07
4.72915e-07
4.72915e-07
4.72916e-07
4.72916e-07
4.72917e-07
4.72917e-07
4.72918e-07
4.72919e-07
4.72919e-07
4.7292e-07
4.7292e-07
4.72921e-07
4.72921e-07
4.72922e-07
4.72922e-07
4.72922e-07
4.72923e-07
4.72923e-07
4.72923e-07
4.72924e-07
4.72924e-07
4.72924e-07
4.72924e-07
4.72925e-07
4.72925e-07
4.72925e-07
4.72925e-07
4.72926e-07
4.72926e-07
4.72926e-07
4.72926e-07
4.72926e-07
4.72927e-07
4.72926e-07
4.72927e-07
4.73026e-07
4.72978e-07
4.72931e-07
4.72891e-07
4.72857e-07
4.72829e-07
4.72805e-07
4.72785e-07
4.72768e-07
4.72753e-07
4.7274e-07
4.7273e-07
4.72721e-07
4.72714e-07
4.72708e-07
4.72703e-07
4.72699e-07
4.72696e-07
4.72693e-07
4.72691e-07
4.7269e-07
4.7269e-07
4.72689e-07
4.7269e-07
4.7269e-07
4.72691e-07
4.72692e-07
4.72694e-07
4.72695e-07
4.72697e-07
4.72699e-07
4.72701e-07
4.72704e-07
4.72706e-07
4.72709e-07
4.72711e-07
4.72714e-07
4.72718e-07
4.72721e-07
4.72725e-07
4.72728e-07
4.72732e-07
4.72736e-07
4.7274e-07
4.72744e-07
4.72748e-07
4.72753e-07
4.72757e-07
4.72761e-07
4.72765e-07
4.72769e-07
4.72774e-07
4.72778e-07
4.72782e-07
4.72786e-07
4.7279e-07
4.72794e-07
4.72798e-07
4.72802e-07
4.72806e-07
4.72809e-07
4.72813e-07
4.72817e-07
4.7282e-07
4.72823e-07
4.72827e-07
4.7283e-07
4.72833e-07
4.72837e-07
4.7284e-07
4.72843e-07
4.72846e-07
4.72849e-07
4.72851e-07
4.72854e-07
4.72857e-07
4.7286e-07
4.72862e-07
4.72865e-07
4.72867e-07
4.72869e-07
4.72872e-07
4.72874e-07
4.72876e-07
4.72878e-07
4.7288e-07
4.72882e-07
4.72884e-07
4.72886e-07
4.72887e-07
4.72889e-07
4.72891e-07
4.72892e-07
4.72894e-07
4.72895e-07
4.72896e-07
4.72898e-07
4.72899e-07
4.729e-07
4.72901e-07
4.72902e-07
4.72903e-07
4.72904e-07
4.72905e-07
4.72906e-07
4.72907e-07
4.72908e-07
4.72909e-07
4.72909e-07
4.7291e-07
4.72911e-07
4.72912e-07
4.72912e-07
4.72913e-07
4.72913e-07
4.72914e-07
4.72914e-07
4.72915e-07
4.72915e-07
4.72916e-07
4.72916e-07
4.72917e-07
4.72917e-07
4.72918e-07
4.72918e-07
4.72918e-07
4.72919e-07
4.72919e-07
4.7292e-07
4.7292e-07
4.7292e-07
4.72921e-07
4.72921e-07
4.72921e-07
4.72922e-07
4.72922e-07
4.72922e-07
4.72922e-07
4.72923e-07
4.72922e-07
4.72923e-07
4.72923e-07
4.72923e-07
4.72923e-07
4.72924e-07
4.72924e-07
4.72924e-07
4.72924e-07
4.72924e-07
4.72925e-07
4.73015e-07
4.72968e-07
4.72923e-07
4.72883e-07
4.7285e-07
4.72822e-07
4.72799e-07
4.72779e-07
4.72762e-07
4.72747e-07
4.72735e-07
4.72725e-07
4.72716e-07
4.72709e-07
4.72703e-07
4.72699e-07
4.72695e-07
4.72692e-07
4.72689e-07
4.72688e-07
4.72687e-07
4.72686e-07
4.72686e-07
4.72686e-07
4.72687e-07
4.72688e-07
4.72689e-07
4.72691e-07
4.72693e-07
4.72694e-07
4.72697e-07
4.72699e-07
4.72701e-07
4.72704e-07
4.72706e-07
4.72709e-07
4.72712e-07
4.72715e-07
4.72719e-07
4.72722e-07
4.72726e-07
4.7273e-07
4.72734e-07
4.72738e-07
4.72742e-07
4.72747e-07
4.72751e-07
4.72755e-07
4.72759e-07
4.72764e-07
4.72768e-07
4.72772e-07
4.72776e-07
4.7278e-07
4.72785e-07
4.72789e-07
4.72793e-07
4.72797e-07
4.72801e-07
4.72804e-07
4.72808e-07
4.72812e-07
4.72816e-07
4.72819e-07
4.72823e-07
4.72826e-07
4.72829e-07
4.72833e-07
4.72836e-07
4.72839e-07
4.72842e-07
4.72845e-07
4.72848e-07
4.72851e-07
4.72854e-07
4.72856e-07
4.72859e-07
4.72861e-07
4.72864e-07
4.72866e-07
4.72868e-07
4.7287e-07
4.72872e-07
4.72874e-07
4.72876e-07
4.72878e-07
4.7288e-07
4.72881e-07
4.72883e-07
4.72885e-07
4.72886e-07
4.72888e-07
4.72889e-07
4.72891e-07
4.72892e-07
4.72893e-07
4.72895e-07
4.72896e-07
4.72897e-07
4.72898e-07
4.729e-07
4.72901e-07
4.72902e-07
4.72903e-07
4.72904e-07
4.72905e-07
4.72905e-07
4.72907e-07
4.72907e-07
4.72909e-07
4.72909e-07
4.7291e-07
4.72911e-07
4.72911e-07
4.72912e-07
4.72913e-07
4.72913e-07
4.72915e-07
4.72915e-07
4.72916e-07
4.72916e-07
4.72917e-07
4.72917e-07
4.72918e-07
4.72918e-07
4.72919e-07
4.72919e-07
4.72919e-07
4.7292e-07
4.7292e-07
4.72921e-07
4.72921e-07
4.72922e-07
4.72922e-07
4.72923e-07
4.72923e-07
4.72924e-07
4.72924e-07
4.72924e-07
4.72924e-07
4.72925e-07
4.72925e-07
4.72926e-07
4.72926e-07
4.72926e-07
4.72926e-07
4.72926e-07
4.72927e-07
4.72926e-07
4.72927e-07
4.73022e-07
4.72973e-07
4.72926e-07
4.72885e-07
4.72852e-07
4.72823e-07
4.72799e-07
4.72778e-07
4.72761e-07
4.72746e-07
4.72733e-07
4.72723e-07
4.72714e-07
4.72707e-07
4.727e-07
4.72695e-07
4.72691e-07
4.72688e-07
4.72686e-07
4.72684e-07
4.72683e-07
4.72683e-07
4.72683e-07
4.72683e-07
4.72684e-07
4.72685e-07
4.72686e-07
4.72688e-07
4.7269e-07
4.72692e-07
4.72694e-07
4.72696e-07
4.72698e-07
4.72701e-07
4.72704e-07
4.72706e-07
4.72709e-07
4.72713e-07
4.72716e-07
4.7272e-07
4.72724e-07
4.72728e-07
4.72732e-07
4.72736e-07
4.72741e-07
4.72745e-07
4.72749e-07
4.72753e-07
4.72757e-07
4.72762e-07
4.72766e-07
4.7277e-07