/*--------------------------------*- C++ -*----------------------------------*\
| =========                 |                                                 |
| \\      /  F ield         | OpenFOAM: The Open Source CFD Toolbox           |
|  \\    /   O peration     | Version:  v1912                                 |
|   \\  /    A nd           | Website:  www.openfoam.com                      |
|    \\/     M anipulation  |                                                 |
\*---------------------------------------------------------------------------*/
FoamFile
{
    version     2.0;
    format      ascii;
    class       volScalarField;
    location    "80";
    object      k;
}
// * * * * * * * * * * * * * * * * * * * * * * * * * * * * * * * * * * * * * //

dimensions      [0 2 -2 0 0 0 0];


internalField   nonuniform List<scalar> 
14268
(
4.12205e-10
4.21583e-10
4.30731e-10
4.38088e-10
4.44602e-10
4.49895e-10
4.56917e-10
4.63803e-10
4.71774e-10
4.82381e-10
4.94867e-10
5.12242e-10
5.34146e-10
5.6268e-10
6.0788e-10
6.74401e-10
7.76433e-10
9.31472e-10
1.17493e-09
1.48703e-09
1.96276e-09
2.98041e-09
5.03333e-09
8.21887e-09
1.06941e-08
1.39195e-08
1.32424e-08
9.98224e-09
6.52112e-09
4.42401e-09
3.16725e-09
2.24586e-09
1.50274e-09
9.54718e-10
6.20465e-10
4.35152e-10
3.13193e-10
2.22127e-10
1.68952e-10
1.50589e-10
1.4867e-10
1.55671e-10
1.65127e-10
9.58072e-11
9.00087e-09
9.18313e-09
9.36147e-09
9.51326e-09
9.65247e-09
9.76961e-09
9.8944e-09
1.00056e-08
1.01252e-08
1.02783e-08
1.04595e-08
1.06979e-08
1.09766e-08
1.13165e-08
1.18504e-08
1.26383e-08
1.37996e-08
1.54384e-08
1.77878e-08
2.06432e-08
2.44284e-08
2.97699e-08
3.76333e-08
4.76104e-08
5.58242e-08
6.69216e-08
6.81409e-08
6.32178e-08
5.48732e-08
4.5397e-08
3.60012e-08
2.66159e-08
1.80723e-08
1.19893e-08
8.50206e-09
6.71535e-09
5.38549e-09
4.17341e-09
3.46959e-09
3.31841e-09
3.36614e-09
3.68785e-09
3.8302e-09
2.89684e-09
2.91888e-08
2.96327e-08
3.00597e-08
3.0435e-08
3.07835e-08
3.10781e-08
3.13486e-08
3.15745e-08
3.17934e-08
3.20493e-08
3.2341e-08
3.26994e-08
3.30845e-08
3.35168e-08
3.41712e-08
3.50889e-08
3.6349e-08
3.79633e-08
4.0083e-08
4.24603e-08
4.54258e-08
4.95728e-08
5.58136e-08
6.39447e-08
7.09564e-08
8.00341e-08
8.24043e-08
7.8935e-08
7.32406e-08
6.6755e-08
5.98823e-08
5.20362e-08
4.26847e-08
3.20192e-08
2.5048e-08
2.15509e-08
1.85042e-08
1.53482e-08
1.37714e-08
1.36437e-08
1.39936e-08
1.56109e-08
1.59636e-08
1.29529e-08
4.27416e-08
4.2995e-08
4.32371e-08
4.34427e-08
4.36321e-08
4.3789e-08
4.39316e-08
4.40522e-08
4.41694e-08
4.43032e-08
4.44561e-08
4.4639e-08
4.48282e-08
4.50386e-08
4.53675e-08
4.58316e-08
4.6455e-08
4.7276e-08
4.84405e-08
4.98316e-08
5.17351e-08
5.46937e-08
5.95654e-08
6.6409e-08
7.27664e-08
8.11212e-08
8.35912e-08
8.04264e-08
7.56128e-08
7.05879e-08
6.56551e-08
6.03064e-08
5.42044e-08
4.67947e-08
4.11476e-08
3.76676e-08
3.43452e-08
3.05396e-08
2.85304e-08
2.84081e-08
2.89288e-08
3.09876e-08
3.20701e-08
2.85973e-08
4.75258e-08
4.7627e-08
4.77291e-08
4.78157e-08
4.79003e-08
4.79581e-08
4.80173e-08
4.80635e-08
4.81136e-08
4.81722e-08
4.82322e-08
4.83116e-08
4.83912e-08
4.84851e-08
4.86367e-08
4.88395e-08
4.91801e-08
4.96459e-08
5.03988e-08
5.14e-08
5.29241e-08
5.54659e-08
5.99611e-08
6.67253e-08
7.30386e-08
8.12999e-08
8.38877e-08
8.08072e-08
7.61365e-08
7.12121e-08
6.69655e-08
6.2829e-08
5.82761e-08
5.24879e-08
4.82813e-08
4.59696e-08
4.38086e-08
4.11699e-08
3.94197e-08
3.92824e-08
3.96273e-08
4.11317e-08
4.1862e-08
3.99303e-08
4.88853e-08
4.89203e-08
4.89603e-08
4.89858e-08
4.90155e-08
4.90414e-08
4.90635e-08
4.90799e-08
4.91024e-08
4.91265e-08
4.91531e-08
4.91909e-08
4.92273e-08
4.9275e-08
4.93551e-08
4.94946e-08
4.97051e-08
5.00611e-08
5.07175e-08
5.16414e-08
5.30707e-08
5.55393e-08
6.00192e-08
6.67429e-08
7.30253e-08
8.126e-08
8.36753e-08
8.05791e-08
7.60109e-08
7.14364e-08
6.73818e-08
6.34315e-08
5.95335e-08
5.5089e-08
5.19837e-08
5.01054e-08
4.8365e-08
4.63039e-08
4.50765e-08
4.49473e-08
4.51642e-08
4.57899e-08
4.67033e-08
4.4898e-08
4.91827e-08
4.91959e-08
4.92147e-08
4.9226e-08
4.92426e-08
4.92382e-08
4.92404e-08
4.92517e-08
4.92723e-08
4.92895e-08
4.93119e-08
4.93354e-08
4.93621e-08
4.94034e-08
4.9477e-08
4.95956e-08
4.9795e-08
5.01174e-08
5.07433e-08
5.164e-08
5.30683e-08
5.55587e-08
6.00456e-08
6.67362e-08
7.29692e-08
8.12631e-08
8.37926e-08
8.06912e-08
7.60582e-08
7.13214e-08
6.72819e-08
6.36809e-08
5.98775e-08
5.57408e-08
5.32203e-08
5.17607e-08
5.0414e-08
4.89648e-08
4.78334e-08
4.76315e-08
4.76693e-08
4.80089e-08
4.83011e-08
4.74931e-08
4.92744e-08
4.92769e-08
4.92869e-08
4.92897e-08
4.92997e-08
4.93029e-08
4.93187e-08
4.93239e-08
4.93336e-08
4.93468e-08
4.93568e-08
4.93777e-08
4.94033e-08
4.94378e-08
4.94986e-08
4.96076e-08
4.98123e-08
5.01413e-08
5.07648e-08
5.16558e-08
5.30869e-08
5.5573e-08
6.00654e-08
6.67368e-08
7.30015e-08
8.1151e-08
8.36908e-08
8.06164e-08
7.59903e-08
7.12476e-08
6.73246e-08
6.36229e-08
5.99595e-08
5.60807e-08
5.36571e-08
5.23212e-08
5.1321e-08
5.02067e-08
4.92953e-08
4.87844e-08
4.87315e-08
4.8818e-08
4.92213e-08
4.82308e-08
4.92693e-08
4.92695e-08
4.92781e-08
4.92789e-08
4.92884e-08
4.92861e-08
4.92859e-08
4.92911e-08
4.93083e-08
4.93205e-08
4.9337e-08
4.936e-08
4.93858e-08
4.94238e-08
4.94932e-08
4.96095e-08
4.98002e-08
5.01286e-08
5.07547e-08
5.16641e-08
5.30897e-08
5.55698e-08
6.00924e-08
6.67824e-08
7.30331e-08
8.12685e-08
8.37399e-08
8.06659e-08
7.6081e-08
7.14027e-08
6.74243e-08
6.3567e-08
5.9845e-08
5.62113e-08
5.38849e-08
5.26141e-08
5.16003e-08
5.07974e-08
4.99038e-08
4.94804e-08
4.90778e-08
4.91365e-08
4.91984e-08
4.92949e-08
4.92852e-08
4.92871e-08
4.92977e-08
4.93013e-08
4.9311e-08
4.9311e-08
4.93197e-08
4.93265e-08
4.93376e-08
4.93511e-08
4.93672e-08
4.93874e-08
4.94116e-08
4.94458e-08
4.95059e-08
4.96114e-08
4.9814e-08
5.01429e-08
5.07654e-08
5.16551e-08
5.30878e-08
5.55347e-08
5.99875e-08
6.66863e-08
7.28935e-08
8.10651e-08
8.3657e-08
8.0591e-08
7.59609e-08
7.13064e-08
6.73429e-08
6.36646e-08
5.99611e-08
5.62776e-08
5.39243e-08
5.26475e-08
5.17997e-08
5.09342e-08
5.01688e-08
4.96215e-08
4.93083e-08
4.92565e-08
4.94422e-08
4.92445e-08
4.92704e-08
4.92697e-08
4.92766e-08
4.92759e-08
4.92849e-08
4.92852e-08
4.92849e-08
4.92881e-08
4.93035e-08
4.93153e-08
4.9327e-08
4.93508e-08
4.93769e-08
4.94134e-08
4.94805e-08
4.95966e-08
4.97895e-08
5.01149e-08
5.07565e-08
5.16491e-08
5.30619e-08
5.55617e-08
6.00227e-08
6.66849e-08
7.29556e-08
8.11984e-08
8.36e-08
8.05667e-08
7.60687e-08
7.12907e-08
6.72868e-08
6.35692e-08
5.98912e-08
5.63195e-08
5.40721e-08
5.26998e-08
5.18065e-08
5.10603e-08
5.02602e-08
4.97533e-08
4.92524e-08
4.92771e-08
4.93104e-08
4.97152e-08
4.92813e-08
4.9282e-08
4.92918e-08
4.9295e-08
4.9304e-08
4.93039e-08
4.93143e-08
4.93202e-08
4.93305e-08
4.93432e-08
4.93591e-08
4.9378e-08
4.94015e-08
4.94354e-08
4.94976e-08
4.96099e-08
4.98082e-08
5.01351e-08
5.07457e-08
5.16604e-08
5.30941e-08
5.55815e-08
6.01035e-08
6.67831e-08
7.30096e-08
8.12489e-08
8.37257e-08
8.05829e-08
7.58885e-08
7.12745e-08
6.74558e-08
6.36651e-08
5.98515e-08
5.62822e-08
5.403e-08
5.26193e-08
5.17653e-08
5.10258e-08
5.02809e-08
4.97852e-08
4.93999e-08
4.93072e-08
4.94285e-08
4.95897e-08
4.92718e-08
4.92724e-08
4.9281e-08
4.9282e-08
4.92912e-08
4.92878e-08
4.92878e-08
4.92925e-08
4.93107e-08
4.9323e-08
4.93363e-08
4.93639e-08
4.9395e-08
4.94386e-08
4.95143e-08
4.96355e-08
4.98231e-08
5.01589e-08
5.07654e-08
5.16529e-08
5.30661e-08
5.54704e-08
5.99768e-08
6.6678e-08
7.28781e-08
8.1054e-08
8.36288e-08
8.06538e-08
7.61086e-08
7.14079e-08
6.74418e-08
6.36775e-08
5.9905e-08
5.63224e-08
5.40636e-08
5.2616e-08
5.17996e-08
5.10937e-08
5.03092e-08
4.97684e-08
4.92609e-08
4.92691e-08
4.93175e-08
4.97748e-08
4.92978e-08
4.93015e-08
4.93139e-08
4.93213e-08
4.93341e-08
4.93355e-08
4.93436e-08
4.93515e-08
4.93632e-08
4.93764e-08
4.93944e-08
4.94175e-08
4.94389e-08
4.94687e-08
4.95232e-08
4.96206e-08
4.98188e-08
5.01338e-08
5.07655e-08
5.16257e-08
5.30219e-08
5.55328e-08
5.99466e-08
6.66111e-08
7.28718e-08
8.12822e-08
8.35477e-08
8.04646e-08
7.60291e-08
7.13561e-08
6.73385e-08
6.3477e-08
5.97969e-08
5.63832e-08
5.41656e-08
5.27273e-08
5.18493e-08
5.11023e-08
5.03493e-08
4.98519e-08
4.94233e-08
4.93494e-08
4.94282e-08
4.97123e-08
4.92525e-08
4.92505e-08
4.92562e-08
4.92536e-08
4.926e-08
4.92586e-08
4.92595e-08
4.92612e-08
4.92738e-08
4.92827e-08
4.92923e-08
4.93152e-08
4.93441e-08
4.93803e-08
4.94455e-08
4.956e-08
4.9764e-08
5.00873e-08
5.07237e-08
5.1656e-08
5.30685e-08
5.55724e-08
5.99874e-08
6.66535e-08
7.29375e-08
8.13045e-08
8.38254e-08
8.0611e-08
7.58083e-08
7.11137e-08
6.74429e-08
6.37497e-08
5.98899e-08
5.62679e-08
5.40218e-08
5.25591e-08
5.17649e-08
5.1062e-08
5.02968e-08
4.97484e-08
4.92539e-08
4.92225e-08
4.93049e-08
4.96836e-08
4.93031e-08
4.9307e-08
4.93199e-08
4.93281e-08
4.93403e-08
4.93394e-08
4.93474e-08
4.9356e-08
4.93705e-08
4.93851e-08
4.9404e-08
4.94259e-08
4.94478e-08
4.94798e-08
4.95388e-08
4.9638e-08
4.98284e-08
5.01521e-08
5.07464e-08
5.15967e-08
5.30683e-08
5.54589e-08
6.00743e-08
6.67985e-08
7.29473e-08
8.13145e-08
8.37321e-08
8.07532e-08
7.62451e-08
7.14879e-08
6.74027e-08
6.35847e-08
5.98767e-08
5.63981e-08
5.41788e-08
5.2614e-08
5.17549e-08
5.10864e-08
5.03786e-08
4.98876e-08
4.9433e-08
4.93831e-08
4.9424e-08
4.9784e-08
4.92547e-08
4.92523e-08
4.92569e-08
4.92534e-08
4.926e-08
4.9261e-08
4.92596e-08
4.92596e-08
4.92722e-08
4.92802e-08
4.92891e-08
4.9313e-08
4.9347e-08
4.93882e-08
4.94613e-08
4.95843e-08
4.97603e-08
5.00881e-08
5.07225e-08
5.15962e-08
5.30238e-08
5.55886e-08
6.00801e-08
6.6765e-08
7.29603e-08
8.15832e-08
8.37867e-08
8.05656e-08
7.58689e-08
7.1178e-08
6.73917e-08
6.35871e-08
5.97972e-08
5.62789e-08
5.41131e-08
5.27036e-08
5.18461e-08
5.10663e-08
5.02498e-08
4.97001e-08
4.92292e-08
4.91939e-08
4.92973e-08
4.96155e-08
4.92868e-08
4.92894e-08
4.93009e-08
4.93074e-08
4.93175e-08
4.93144e-08
4.93222e-08
4.93269e-08
4.93412e-08
4.93544e-08
4.93728e-08
4.93884e-08
4.94053e-08
4.94299e-08
4.94824e-08
4.95819e-08
4.97841e-08
5.00895e-08
5.07006e-08
5.16345e-08
5.29884e-08
5.54759e-08
5.98683e-08
6.65654e-08
7.28219e-08
8.14585e-08
8.40152e-08
8.10288e-08
7.64255e-08
7.16035e-08
6.76744e-08
6.38643e-08
6.00896e-08
5.64583e-08
5.4133e-08
5.25815e-08
5.17825e-08
5.11518e-08
5.04614e-08
4.99258e-08
4.94418e-08
4.93856e-08
4.94071e-08
4.97558e-08
4.92339e-08
4.92293e-08
4.92322e-08
4.92273e-08
4.92339e-08
4.92352e-08
4.92343e-08
4.9232e-08
4.92412e-08
4.92469e-08
4.9253e-08
4.92797e-08
4.93143e-08
4.93495e-08
4.94141e-08
4.95228e-08
4.97117e-08
5.00391e-08
5.06561e-08
5.15249e-08
5.30051e-08
5.54253e-08
6.02044e-08
6.68769e-08
7.27852e-08
8.18692e-08
8.38779e-08
8.06169e-08
7.60055e-08
7.13489e-08
6.74445e-08
6.37595e-08
5.99262e-08
5.64264e-08
5.42232e-08
5.27438e-08
5.18388e-08
5.10503e-08
5.02377e-08
4.96942e-08
4.92266e-08
4.91742e-08
4.92756e-08
4.95775e-08
4.92847e-08
4.92881e-08
4.92994e-08
4.93058e-08
4.93172e-08
4.93163e-08
4.93217e-08
4.93307e-08
4.93475e-08
4.9361e-08
4.93779e-08
4.93958e-08
4.94154e-08
4.94418e-08
4.95038e-08
4.96096e-08
4.97981e-08
5.01179e-08
5.07597e-08
5.1684e-08
5.31443e-08
5.58407e-08
6.02557e-08
6.70425e-08
7.27218e-08
8.23641e-08
8.50768e-08
8.1529e-08
7.65178e-08
7.1551e-08
6.76903e-08
6.36867e-08
5.98379e-08
5.62605e-08
5.40144e-08
5.24947e-08
5.17672e-08
5.11596e-08
5.04907e-08
4.99373e-08
4.94348e-08
4.93708e-08
4.93893e-08
4.97017e-08
4.91648e-08
4.91594e-08
4.91622e-08
4.91547e-08
4.91581e-08
4.9155e-08
4.91561e-08
4.91438e-08
4.91465e-08
4.91512e-08
4.91567e-08
4.91772e-08
4.92109e-08
4.92565e-08
4.9328e-08
4.94561e-08
4.96645e-08
5.00172e-08
5.07025e-08
5.16757e-08
5.30889e-08
5.56412e-08
5.99184e-08
6.70144e-08
7.26112e-08
8.29611e-08
8.58383e-08
8.16927e-08
7.6098e-08
7.12393e-08
6.75483e-08
6.381e-08
6.01641e-08
5.6597e-08
5.43574e-08
5.27862e-08
5.17812e-08
5.10066e-08
5.02149e-08
4.96948e-08
4.92321e-08
4.91634e-08
4.92647e-08
4.95615e-08
4.93098e-08
4.93133e-08
4.93251e-08
4.93297e-08
4.93398e-08
4.93391e-08
4.9344e-08
4.93529e-08
4.93696e-08
4.93851e-08
4.94015e-08
4.9423e-08
4.94468e-08
4.94778e-08
4.95386e-08
4.96417e-08
4.98349e-08
5.01553e-08
5.07677e-08
5.16396e-08
5.30457e-08
5.54726e-08
6.00843e-08
6.79985e-08
7.8556e-08
1.00538e-07
1.01122e-07
9.16104e-08
8.11891e-08
7.3988e-08
6.91571e-08
6.48229e-08
6.06313e-08
5.67085e-08
5.42248e-08
5.26826e-08
5.18846e-08
5.12188e-08
5.05005e-08
4.99402e-08
4.94339e-08
4.9315e-08
4.93315e-08
4.95356e-08
4.92457e-08
4.9246e-08
4.92545e-08
4.9255e-08
4.92637e-08
4.92633e-08
4.92676e-08
4.927e-08
4.92806e-08
4.929e-08
4.93026e-08
4.93277e-08
4.93566e-08
4.93844e-08
4.94488e-08
4.95599e-08
4.97393e-08
5.00563e-08
5.06876e-08
5.15691e-08
5.29471e-08
5.5546e-08
6.05779e-08
7.72252e-08
1.18835e-07
2.4234e-07
2.46738e-07
1.88761e-07
1.2718e-07
9.81843e-08
8.39444e-08
7.39905e-08
6.65143e-08
6.01209e-08
5.5907e-08
5.34725e-08
5.2211e-08
5.13694e-08
5.05192e-08
4.9805e-08
4.92429e-08
4.91123e-08
4.91336e-08
4.92961e-08
4.93036e-08
4.93025e-08
4.93122e-08
4.93185e-08
4.93283e-08
4.9327e-08
4.9331e-08
4.93385e-08
4.93551e-08
4.93676e-08
4.93809e-08
4.94017e-08
4.94221e-08
4.94419e-08
4.94949e-08
4.95874e-08
4.97705e-08
5.00831e-08
5.06926e-08
5.15062e-08
5.28623e-08
5.53389e-08
6.17229e-08
1.38131e-07
3.64272e-07
9.666e-07
1.025e-06
7.38284e-07
4.14192e-07
2.43101e-07
1.64706e-07
1.21045e-07
9.30632e-08
7.41111e-08
6.3296e-08
5.79052e-08
5.51323e-08
5.32599e-08
5.16747e-08
5.05537e-08
4.97792e-08
4.94151e-08
4.92838e-08
4.93068e-08
4.92178e-08
4.9218e-08
4.92259e-08
4.92254e-08
4.92324e-08
4.9231e-08
4.92318e-08
4.92357e-08
4.92478e-08
4.92567e-08
4.92669e-08
4.9296e-08
4.9322e-08
4.93424e-08
4.94028e-08
4.95025e-08
4.96666e-08
4.99797e-08
5.06248e-08
5.14332e-08
5.27497e-08
5.52508e-08
6.71682e-08
4.83907e-07
1.49876e-06
3.56023e-06
3.86597e-06
2.86235e-06
1.61654e-06
8.60573e-07
4.92741e-07
2.93492e-07
1.84235e-07
1.20277e-07
8.7011e-08
7.13172e-08
6.33536e-08
5.84559e-08
5.47283e-08
5.21222e-08
5.03248e-08
4.94255e-08
4.91496e-08
4.91662e-08
4.92844e-08
4.92834e-08
4.92918e-08
4.92971e-08
4.93077e-08
4.93069e-08
4.93067e-08
4.9312e-08
4.93298e-08
4.93373e-08
4.9344e-08
4.93623e-08
4.93741e-08
4.93861e-08
4.94351e-08
4.95131e-08
4.96801e-08
4.99918e-08
5.06118e-08
5.13375e-08
5.25906e-08
5.51508e-08
1.0136e-07
1.92457e-06
5.71902e-06
1.04563e-05
1.15474e-05
8.68504e-06
4.99287e-06
2.60174e-06
1.3802e-06
7.30064e-07
3.99826e-07
2.2857e-07
1.45703e-07
1.06182e-07
8.52743e-08
7.21298e-08
6.26196e-08
5.60014e-08
5.19841e-08
5.00419e-08
4.93531e-08
4.91763e-08
4.91735e-08
4.91676e-08
4.91746e-08
4.91767e-08
4.91816e-08
4.91782e-08
4.91774e-08
4.9182e-08
4.91916e-08
4.91986e-08
4.92112e-08
4.92425e-08
4.92661e-08
4.92777e-08
4.93345e-08
4.9423e-08
4.95698e-08
4.98608e-08
5.0432e-08
5.09659e-08
5.16715e-08
5.58635e-08
2.75482e-07
6.58617e-06
1.85376e-05
2.37011e-05
2.40097e-05
1.85071e-05
1.0935e-05
5.70807e-06
2.96721e-06
1.48187e-06
7.72534e-07
4.26131e-07
2.59116e-07
1.75897e-07
1.28974e-07
9.86656e-08
7.76452e-08
6.38397e-08
5.56884e-08
5.15129e-08
4.96125e-08
4.9227e-08
4.92492e-08
4.92474e-08
4.92517e-08
4.92571e-08
4.92658e-08
4.92659e-08
4.92606e-08
4.92661e-08
4.92849e-08
4.9287e-08
4.92868e-08
4.92992e-08
4.92971e-08
4.92983e-08
4.93602e-08
4.94225e-08
4.95608e-08
4.98017e-08
5.02722e-08
5.0509e-08
5.08251e-08
6.48829e-08
1.06938e-06
1.96077e-05
4.76768e-05
4.15991e-05
3.23383e-05
2.46247e-05
1.65268e-05
8.80973e-06
4.53547e-06
2.30789e-06
1.23543e-06
6.97253e-07
4.27896e-07
2.83271e-07
1.96278e-07
1.39775e-07
1.02429e-07
7.83041e-08
6.37024e-08
5.54616e-08
5.12374e-08
4.95575e-08
4.90684e-08
4.90472e-08
4.90501e-08
4.90422e-08
4.90439e-08
4.90424e-08
4.90401e-08
4.90358e-08
4.90324e-08
4.90198e-08
4.90168e-08
4.90236e-08
4.90307e-08
4.89991e-08
4.89586e-08
4.89496e-08
4.8964e-08
4.88583e-08
4.8621e-08
4.77732e-08
5.08669e-08
1.61145e-07
4.95306e-06
4.84936e-05
7.80586e-05
6.24101e-05
3.29696e-05
2.47243e-05
2.14412e-05
1.33041e-05
6.36186e-06
2.99998e-06
1.62733e-06
9.742e-07
6.25209e-07
4.18036e-07
2.84702e-07
1.95751e-07
1.38787e-07
1.02987e-07
8.06525e-08
6.66818e-08
5.72452e-08
5.25095e-08
4.89827e-08
4.89501e-08
4.89169e-08
4.89036e-08
4.88846e-08
4.88719e-08
4.8854e-08
4.88573e-08
4.88577e-08
4.88134e-08
4.87546e-08
4.86678e-08
4.85059e-08
4.83715e-08
4.83212e-08
4.81464e-08
4.77583e-08
4.71734e-08
4.64749e-08
4.49088e-08
6.79445e-08
9.42956e-07
1.74497e-05
7.17823e-05
9.7171e-05
7.65876e-05
2.35109e-05
1.50821e-05
1.70354e-05
1.21997e-05
7.3281e-06
3.90826e-06
2.36693e-06
1.42962e-06
8.93583e-07
6.15087e-07
4.46594e-07
3.51616e-07
3.30046e-07
3.19176e-07
2.77728e-07
2.07218e-07
1.07178e-07
7.14563e-08
4.75744e-08
4.73521e-08
4.7133e-08
4.69431e-08
4.67882e-08
4.67203e-08
4.66966e-08
4.65998e-08
4.63964e-08
4.61433e-08
4.59083e-08
4.55494e-08
4.51701e-08
4.49006e-08
4.45759e-08
4.40796e-08
4.3395e-08
4.24629e-08
4.07169e-08
4.20083e-08
1.99917e-07
3.13258e-06
2.53885e-05
8.01041e-05
0.000114554
9.25364e-05
3.17132e-05
1.74098e-05
1.10113e-05
7.97533e-06
5.68352e-06
3.79841e-06
3.01908e-06
4.05969e-06
6.23253e-06
8.83302e-06
1.02719e-05
1.0407e-05
1.11307e-05
1.11175e-05
9.52744e-06
6.97573e-06
3.01418e-06
1.20987e-06
4.34551e-08
4.27994e-08
4.20952e-08
4.14922e-08
4.10098e-08
4.08359e-08
4.08061e-08
4.0648e-08
4.02634e-08
3.97546e-08
3.92625e-08
3.84481e-08
3.77304e-08
3.74129e-08
3.71616e-08
3.66251e-08
3.58672e-08
3.4092e-08
3.0897e-08
5.41106e-08
5.08071e-07
4.5099e-06
2.27968e-05
7.2972e-05
0.000134736
0.000162325
0.000160166
0.000118341
8.11651e-05
5.55384e-05
4.96749e-05
6.20436e-05
0.000109658
0.00017649
0.000233739
0.000285314
0.000312506
0.000310415
0.0003054
0.00027774
0.000227774
0.000179288
0.000119101
7.73577e-05
3.05795e-08
2.81751e-08
2.58065e-08
2.3836e-08
2.21844e-08
2.1084e-08
2.05704e-08
2.01876e-08
1.95894e-08
1.90342e-08
1.86601e-08
1.82149e-08
1.82565e-08
1.88867e-08
1.91943e-08
1.89414e-08
1.80255e-08
1.55851e-08
1.56559e-08
7.49949e-08
5.00523e-07
2.33822e-06
9.13969e-06
3.18529e-05
9.17644e-05
0.000177312
0.000249852
0.00031133
0.000371674
0.000449652
0.000525958
0.000648761
0.000794248
0.000940154
0.00109232
0.00126608
0.00142684
0.00150987
0.00149769
0.00126863
0.000944433
0.000735315
0.000585631
0.000454307
1.07483e-08
8.15929e-09
6.48558e-09
5.55961e-09
5.38365e-09
5.50526e-09
5.39626e-09
5.67046e-09
5.91671e-09
6.03007e-09
6.10768e-09
5.99728e-09
5.84086e-09
6.00407e-09
5.80107e-09
4.96556e-09
3.97689e-09
3.36009e-09
4.4664e-09
1.72355e-08
7.77838e-08
3.11274e-07
1.04971e-06
2.09301e-06
3.39387e-06
8.53602e-06
2.33282e-05
4.16718e-05
6.08492e-05
8.79725e-05
0.000118854
0.00014455
0.000165127
0.000183319
0.00020366
0.000224404
0.000236506
0.000236057
0.000218739
0.000179081
0.000153305
0.00013854
0.000138491
0.000162837
2.11924e-09
1.41392e-09
9.95236e-10
7.4214e-10
6.06738e-10
4.98437e-10
3.79349e-10
3.06975e-10
2.56878e-10
2.51503e-10
3.6526e-10
4.95987e-10
6.85052e-10
9.7402e-10
1.03921e-09
9.20563e-10
7.37431e-10
7.04138e-10
1.20211e-09
2.38824e-09
3.69583e-09
3.95376e-09
2.13566e-09
1.45408e-10
2.74737e-11
5.71967e-10
1.68622e-08
2.6422e-07
2.98522e-06
7.97187e-06
1.20529e-05
1.49675e-05
1.74293e-05
1.97789e-05
2.22296e-05
2.40084e-05
2.46341e-05
2.42838e-05
2.36203e-05
2.40511e-05
2.75194e-05
3.39923e-05
4.8937e-05
6.79729e-05
5.25242e-10
2.92617e-10
1.84405e-10
1.18845e-10
8.03081e-11
5.09905e-11
2.82189e-11
1.61401e-11
1.03903e-11
9.13846e-12
1.45055e-11
4.15578e-11
2.35313e-10
5.89837e-10
6.67587e-10
2.85507e-10
7.65847e-11
4.86302e-11
1.30285e-10
3.53618e-10
3.69149e-10
1.79904e-10
1.85871e-10
6.76012e-10
1.10314e-09
9.1667e-09
2.06335e-07
1.4076e-06
2.37871e-06
6.18776e-07
1.04033e-07
2.12658e-07
1.63437e-06
4.25266e-06
6.76303e-06
8.56524e-06
8.96223e-06
8.3818e-06
7.71141e-06
8.11546e-06
1.01201e-05
1.28134e-05
1.2931e-05
1.08571e-05
8.04778e-09
6.04872e-10
2.15089e-10
1.58963e-10
1.38004e-10
1.23552e-10
9.9349e-11
8.63663e-11
9.34973e-11
1.13064e-10
1.82779e-10
3.30364e-10
5.03502e-10
7.27965e-10
8.04189e-10
9.34648e-10
1.89241e-09
2.58192e-09
2.31636e-09
1.65355e-09
6.89014e-10
5.25326e-10
1.16528e-12
6.31145e-11
6.45685e-10
9.05524e-10
4.47758e-09
9.14899e-09
1.70002e-08
5.40278e-07
2.60893e-06
5.18302e-06
6.42924e-06
7.13306e-06
4.26007e-06
1.83026e-06
1.91244e-06
3.35485e-06
4.6944e-06
9.43355e-06
1.37525e-05
2.0782e-05
2.29352e-05
3.96787e-05
5.2785e-05
8.79207e-07
5.35833e-08
2.82635e-08
2.10107e-08
1.80505e-08
1.49482e-08
1.20989e-08
1.09262e-08
1.01673e-08
1.37938e-08
3.09678e-08
4.70017e-08
5.50599e-08
5.581e-08
5.46568e-08
6.02756e-08
6.82267e-08
7.3799e-08
8.01913e-08
8.80726e-08
7.50114e-08
3.48249e-08
4.34009e-09
5.45827e-09
1.80508e-08
3.67238e-08
4.53744e-08
3.64201e-08
7.1828e-08
6.00771e-08
4.13597e-09
2.19242e-08
4.65156e-07
4.42218e-07
3.99475e-07
5.94559e-07
9.75056e-07
1.39455e-06
1.91677e-06
1.95504e-06
2.09128e-06
1.37288e-06
5.23056e-07
0.0013199
0.000164782
5.50707e-06
3.78303e-07
1.81074e-07
1.18037e-07
7.99644e-08
5.37046e-08
4.48772e-08
3.8931e-08
4.06319e-08
7.04149e-08
9.70688e-08
1.09114e-07
1.10607e-07
1.06993e-07
1.05866e-07
1.10689e-07
1.17977e-07
1.22335e-07
1.36407e-07
1.54153e-07
1.45896e-07
6.44042e-08
2.14218e-08
3.47131e-08
7.46627e-08
9.1778e-08
7.53689e-08
5.55031e-08
6.84044e-08
6.30648e-08
5.17627e-08
5.12301e-08
5.27306e-08
5.92264e-08
8.79168e-08
1.38191e-07
1.86109e-07
2.35206e-07
2.17412e-07
2.24121e-07
1.67026e-07
3.9085e-07
0.0041714
0.00133204
0.000159137
1.40424e-05
2.08187e-06
6.83982e-07
2.91803e-07
1.60159e-07
1.13347e-07
9.22302e-08
7.4312e-08
8.81602e-08
1.07513e-07
1.19868e-07
1.21673e-07
1.16889e-07
1.08365e-07
9.75163e-08
8.34448e-08
7.18725e-08
6.65076e-08
6.95429e-08
8.72698e-08
1.38207e-07
9.33425e-08
7.01419e-08
8.6247e-08
9.13379e-08
7.61647e-08
5.88998e-08
5.38524e-08
5.2133e-08
5.19965e-08
5.06883e-08
4.92013e-08
4.9517e-08
5.16282e-08
5.64115e-08
6.17209e-08
6.72894e-08
7.01111e-08
7.78149e-08
8.26194e-08
9.66381e-08
0.00570418
0.0034204
0.000809198
0.000118348
1.94758e-05
4.84107e-06
1.37588e-06
4.28088e-07
1.89459e-07
1.29314e-07
1.03286e-07
9.98914e-08
1.02251e-07
1.0027e-07
9.31862e-08
8.25884e-08
7.1559e-08
6.22549e-08
5.58581e-08
5.20105e-08
5.00457e-08
5.01725e-08
5.10032e-08
7.17094e-08
9.41018e-08
9.27272e-08
7.93948e-08
6.06502e-08
5.35789e-08
5.17367e-08
5.03163e-08
5.01748e-08
4.95546e-08
4.95849e-08
4.97501e-08
4.9986e-08
5.10724e-08
5.26907e-08
5.47437e-08
5.73609e-08
6.12537e-08
6.83235e-08
7.447e-08
8.64635e-08
0.00577895
0.00492956
0.00213565
0.000472653
9.66162e-05
2.34887e-05
6.16475e-06
1.58387e-06
4.4276e-07
1.84542e-07
1.21311e-07
1.02992e-07
9.11992e-08
8.14291e-08
7.30001e-08
6.47909e-08
5.78173e-08
5.26743e-08
4.95667e-08
4.83179e-08
4.78646e-08
4.77482e-08
4.83394e-08
5.08431e-08
6.0218e-08
5.88878e-08
5.56523e-08
5.1443e-08
5.06606e-08
5.12412e-08
5.14338e-08
5.03002e-08
4.91126e-08
4.81709e-08
4.81353e-08
4.85142e-08
4.95072e-08
5.1184e-08
5.36373e-08
5.66792e-08
6.06737e-08
6.77539e-08
7.42187e-08
8.026e-08
0.00551192
0.00504945
0.00352009
0.00121874
0.00029539
7.64845e-05
2.04449e-05
5.17197e-06
1.26987e-06
3.44908e-07
1.45667e-07
9.56314e-08
7.51963e-08
6.49406e-08
5.86579e-08
5.42522e-08
5.12003e-08
4.92191e-08
4.80812e-08
4.76775e-08
4.76642e-08
4.82601e-08
4.8779e-08
4.92366e-08
5.24395e-08
5.15362e-08
4.98749e-08
4.85881e-08
4.88404e-08
4.94138e-08
4.92539e-08
4.94271e-08
4.95874e-08
4.95587e-08
4.95458e-08
4.97715e-08
5.06199e-08
5.20565e-08
5.40424e-08
5.6692e-08
5.97124e-08
6.48102e-08
7.0468e-08
7.76693e-08
0.00493475
0.00477473
0.00398862
0.00219273
0.000668122
0.000191348
5.23001e-05
1.32483e-05
3.17494e-06
7.47464e-07
2.10771e-07
9.46199e-08
6.50064e-08
5.61107e-08
5.27185e-08
5.10408e-08
4.99223e-08
4.90065e-08
4.86812e-08
4.86607e-08
4.85687e-08
4.82062e-08
4.77857e-08
4.7773e-08
4.74811e-08
4.82253e-08
4.96551e-08
5.00911e-08
5.07684e-08
5.16628e-08
5.0927e-08
4.97331e-08
4.89403e-08
4.82209e-08
4.82694e-08
4.87371e-08
4.97428e-08
5.12705e-08
5.33255e-08
5.59385e-08
5.89821e-08
6.35607e-08
6.82907e-08
7.32276e-08
0.00408102
0.00417893
0.00384931
0.00289979
0.00128011
0.000403346
0.000114299
2.91571e-05
6.89516e-06
1.56376e-06
3.71847e-07
1.18373e-07
6.53506e-08
5.4245e-08
5.14329e-08
5.02967e-08
4.96046e-08
4.92245e-08
4.90571e-08
4.89546e-08
4.88485e-08
4.9107e-08
4.93221e-08
4.93483e-08
5.00557e-08
4.95053e-08
4.89281e-08
4.88516e-08
4.91565e-08
4.93961e-08
4.92506e-08
4.92117e-08
4.93539e-08
4.94689e-08
4.96096e-08
4.99156e-08
5.07052e-08
5.1998e-08
5.37429e-08
5.62158e-08
5.87903e-08
6.2721e-08
6.77535e-08
7.15377e-08
0.00302178
0.00334871
0.00345522
0.00297146
0.00190839
0.000727295
0.000214789
5.5418e-05
1.30643e-05
2.90175e-06
6.45674e-07
1.70558e-07
7.37084e-08
5.51592e-08
5.15108e-08
5.04495e-08
4.99844e-08
4.96862e-08
4.94049e-08
4.9214e-08
4.89424e-08
4.8524e-08
4.80452e-08
4.7679e-08
4.77479e-08
4.82244e-08
4.94508e-08
4.99019e-08
5.0518e-08
5.1143e-08
5.05227e-08
4.97475e-08
4.91665e-08
4.86568e-08
4.8733e-08
4.92099e-08
5.01128e-08
5.14767e-08
5.3223e-08
5.55789e-08
5.80631e-08
6.13163e-08
6.51048e-08
6.90479e-08
0.00179526
0.00232643
0.00290846
0.00280542
0.00222299
0.00114755
0.000365281
9.65444e-05
2.27714e-05
4.98474e-06
1.06273e-06
2.48802e-07
8.74135e-08
5.73828e-08
5.18486e-08
5.05798e-08
5.00817e-08
4.96669e-08
4.93364e-08
4.9192e-08
4.90772e-08
4.91937e-08
4.93259e-08
4.94937e-08
4.98877e-08
4.95949e-08
4.93468e-08
4.92e-08
4.94338e-08
4.94026e-08
4.91657e-08
4.92077e-08
4.93333e-08
4.94759e-08
4.97073e-08
5.00978e-08
5.08612e-08
5.20727e-08
5.3582e-08
5.58181e-08
5.79905e-08
6.0957e-08
6.45374e-08
6.74389e-08
0.000866313
0.00136701
0.0022339
0.00250797
0.00220739
0.00147357
0.000559067
0.000151301
3.60415e-05
7.86169e-06
1.63122e-06
3.53035e-07
1.05223e-07
6.01504e-08
5.22693e-08
5.06777e-08
5.01558e-08
4.98719e-08
4.95986e-08
4.93541e-08
4.9056e-08
4.87168e-08
4.83013e-08
4.79006e-08
4.79411e-08
4.8358e-08
4.92522e-08
4.97231e-08
5.0249e-08
5.07956e-08
5.01986e-08
4.97742e-08
4.9495e-08
4.91824e-08
4.93067e-08
4.9787e-08
5.06098e-08
5.18261e-08
5.32678e-08
5.52936e-08
5.74572e-08
5.99952e-08
6.32258e-08
6.56147e-08
0.000367185
0.000734848
0.00149047
0.00214344
0.00208777
0.00161509
0.000769642
0.000223063
5.43851e-05
1.18826e-05
2.42243e-06
4.95575e-07
1.28871e-07
6.38345e-08
5.2878e-08
5.08634e-08
5.02827e-08
4.98662e-08
4.9505e-08
4.93145e-08
4.9166e-08
4.92417e-08
4.93273e-08
4.95446e-08
4.98081e-08
4.96418e-08
4.96126e-08
4.94889e-08
4.96558e-08
4.94633e-08
4.93141e-08
4.92452e-08
4.93249e-08
4.95409e-08
4.98424e-08
5.02895e-08
5.10083e-08
5.21396e-08
5.34227e-08
5.52856e-08
5.70869e-08
5.92638e-08
6.18303e-08
6.40303e-08
0.000143155
0.000373281
0.000915381
0.00171538
0.0019008
0.00162514
0.000975818
0.000307114
7.7455e-05
1.70933e-05
3.4511e-06
6.78322e-07
1.58638e-07
6.82586e-08
5.34294e-08
5.09331e-08
5.02846e-08
4.99187e-08
4.96692e-08
4.9455e-08
4.921e-08
4.892e-08
4.85723e-08
4.82162e-08
4.82423e-08
4.86011e-08
4.92175e-08
4.9648e-08
5.00971e-08
5.05298e-08
5.01918e-08
4.99661e-08
4.98742e-08
4.97376e-08
4.99168e-08
5.03755e-08
5.10806e-08
5.21714e-08
5.33852e-08
5.51076e-08
5.69444e-08
5.89632e-08
6.13966e-08
6.30079e-08
5.54725e-05
0.000185525
0.000548407
0.00126389
0.001685
0.00157027
0.00106554
0.000391146
0.00010283
2.32556e-05
4.7057e-06
9.03907e-07
1.95267e-07
7.36741e-08
5.4256e-08
5.11148e-08
5.03882e-08
4.99687e-08
4.96426e-08
4.94467e-08
4.92833e-08
4.93156e-08
4.93605e-08
4.95589e-08
4.97602e-08
4.96884e-08
4.9781e-08
4.96804e-08
4.97596e-08
4.95183e-08
4.92295e-08
4.92659e-08
4.93568e-08
4.96211e-08
4.99577e-08
5.04588e-08
5.11515e-08
5.21829e-08
5.32805e-08
5.47988e-08
5.63924e-08
5.80346e-08
5.98557e-08
6.14018e-08
2.50394e-05
9.52806e-05
0.000329515
0.000862605
0.00145841
0.0014661
0.00112619
0.000506682
0.000137425
3.12705e-05
6.29893e-06
1.18445e-06
2.39817e-07
8.01024e-08
5.50628e-08
5.1245e-08
5.04216e-08
4.99911e-08
4.97175e-08
4.95296e-08
4.93055e-08
4.90828e-08
4.88281e-08
4.85544e-08
4.85661e-08
4.88673e-08
4.92888e-08
4.96237e-08
4.99842e-08
5.02964e-08
5.02604e-08
5.00485e-08
5.00734e-08
5.01204e-08
5.03382e-08
5.07809e-08
5.13908e-08
5.23472e-08
5.33443e-08
5.47557e-08
5.63193e-08
5.78932e-08
5.94755e-08
6.02314e-08
1.48731e-05
5.19246e-05
0.000200529
0.000588419
0.0012125
0.00135556
0.00112018
0.000574165
0.000164981
3.87603e-05
7.90779e-06
1.47887e-06
2.8734e-07
8.69554e-08
5.60327e-08
5.14159e-08
5.04818e-08
5.00339e-08
4.97562e-08
4.95836e-08
4.94266e-08
4.93988e-08
4.94152e-08
4.95749e-08
4.97395e-08
4.97247e-08
4.98262e-08
4.97753e-08
4.98057e-08
4.95637e-08
4.9347e-08
4.94609e-08
4.95709e-08
4.98199e-08
5.01599e-08
5.06753e-08
5.13119e-08
5.22355e-08
5.31732e-08
5.4411e-08
5.57439e-08
5.69906e-08
5.83729e-08
5.92375e-08
1.30488e-05
3.25369e-05
0.000127149
0.000411796
0.000987017
0.00124298
0.00109128
0.000652261
0.000203621
4.90553e-05
9.99422e-06
1.84058e-06
3.43044e-07
9.46831e-08
5.70138e-08
5.15557e-08
5.05259e-08
5.00842e-08
4.98042e-08
4.9615e-08
4.9416e-08
4.92455e-08
4.90591e-08
4.8872e-08
4.88853e-08
4.91151e-08
4.94091e-08
4.96401e-08
4.9936e-08
5.01234e-08
5.02841e-08
5.01294e-08
5.01892e-08
5.03103e-08
5.05376e-08
5.09616e-08
5.15012e-08
5.23425e-08
5.32042e-08
5.43402e-08
5.55987e-08
5.6794e-08
5.80029e-08
5.84874e-08
1.4107e-05
2.3518e-05
8.36183e-05
0.000292407
0.000782341
0.00113121
0.00105266
0.000688781
0.000231108
5.64132e-05
1.16799e-05
2.15995e-06
3.94842e-07
1.02115e-07
5.79952e-08
5.16948e-08
5.05588e-08
5.00944e-08
4.9855e-08
4.9687e-08
4.95462e-08
4.94888e-08
4.94858e-08
4.95921e-08
4.97295e-08
4.97527e-08
4.98416e-08
4.98041e-08
4.98326e-08
4.96361e-08
4.95524e-08
4.96842e-08
4.98111e-08
5.00454e-08
5.03673e-08
5.08466e-08
5.14081e-08
5.22162e-08
5.30358e-08
5.40426e-08
5.51061e-08
5.6044e-08
5.71169e-08
5.76875e-08
1.67073e-05
2.12161e-05
5.90447e-05
0.000211257
0.000602274
0.00103685
0.00100971
0.000715194
0.00027168
6.77173e-05
1.40734e-05
2.57883e-06
4.58189e-07
1.10616e-07
5.90637e-08
5.18656e-08
5.06147e-08
5.01645e-08
4.9903e-08
4.97124e-08
4.95305e-08
4.9377e-08
4.92523e-08
4.91377e-08
4.91692e-08
4.92962e-08
4.94823e-08
4.96606e-08
4.99108e-08
5.00696e-08
5.02828e-08
5.0247e-08
5.03197e-08
5.04557e-08
5.0671e-08
5.10616e-08
5.15438e-08