/*--------------------------------*- C++ -*----------------------------------*\
| =========                 |                                                 |
| \\      /  F ield         | OpenFOAM: The Open Source CFD Toolbox           |
|  \\    /   O peration     | Version:  v1912                                 |
|   \\  /    A nd           | Website:  www.openfoam.com                      |
|    \\/     M anipulation  |                                                 |
\*---------------------------------------------------------------------------*/
FoamFile
{
    version     2.0;
    format      ascii;
    class       volScalarField;
    location    "80";
    object      omega;
}
// * * * * * * * * * * * * * * * * * * * * * * * * * * * * * * * * * * * * * //

dimensions      [0 0 -1 0 0 0 0];


internalField   nonuniform List<scalar> 
14268
(
2.98317
2.98317
2.98317
2.98317
2.98317
2.98317
2.98317
2.98317
2.98317
2.98318
2.98318
2.98318
2.98318
2.98318
2.98319
2.9832
2.98321
2.98323
2.98326
2.9833
2.98336
2.98348
2.98374
2.98413
2.98444
2.98484
2.98476
2.98435
2.98392
2.98366
2.98351
2.98339
2.9833
2.98323
2.98319
2.98317
2.98315
2.98314
2.98314
2.98313
2.98313
2.98313
2.98314
2.98313
0.650359
0.631358
0.614135
0.598328
0.583662
0.571115
0.560535
0.552148
0.545266
0.5389
0.532772
0.526074
0.519865
0.514357
0.506845
0.496683
0.483987
0.469226
0.452061
0.435419
0.416949
0.394265
0.36818
0.346846
0.34108
0.34527
0.354408
0.383682
0.489971
0.643376
0.813884
0.995107
1.13316
1.14641
1.11916
1.06047
0.984996
0.906764
0.84664
0.800909
0.766505
0.745458
0.792768
0.87845
0.250345
0.24631
0.242722
0.239578
0.236749
0.234378
0.232408
0.230902
0.229623
0.228235
0.226709
0.224939
0.223182
0.221381
0.218838
0.215376
0.211191
0.206661
0.202066
0.198182
0.194957
0.192471
0.193919
0.199365
0.205935
0.215268
0.218682
0.217193
0.227679
0.255205
0.305069
0.381508
0.478311
0.558255
0.562992
0.548406
0.520726
0.487466
0.45388
0.420679
0.387285
0.346537
0.349495
0.377761
0.179923
0.178873
0.177927
0.177093
0.176346
0.175716
0.175193
0.174799
0.174463
0.1741
0.173705
0.173269
0.172849
0.172431
0.171869
0.171131
0.170313
0.169732
0.169608
0.170092
0.171498
0.174615
0.180796
0.19001
0.198571
0.209722
0.212314
0.20777
0.208412
0.213349
0.226522
0.252519
0.29059
0.335504
0.349456
0.345715
0.336262
0.323152
0.30742
0.288538
0.266481
0.236678
0.230264
0.239496
0.16586
0.165597
0.165366
0.165165
0.164983
0.164817
0.164685
0.164588
0.164511
0.164442
0.164366
0.164306
0.164252
0.164218
0.164189
0.164151
0.164269
0.164625
0.165467
0.166786
0.168993
0.172825
0.17962
0.189515
0.198352
0.209684
0.212365
0.207542
0.206941
0.208766
0.213721
0.223613
0.238874
0.25824
0.264398
0.26219
0.257087
0.249971
0.240962
0.229304
0.214885
0.196618
0.189499
0.19218
0.163145
0.163096
0.163052
0.163003
0.162962
0.162929
0.162896
0.162871
0.162857
0.162853
0.162858
0.162884
0.162908
0.162954
0.163028
0.163175
0.163423
0.163921
0.164937
0.166411
0.168708
0.172633
0.179546
0.189476
0.198301
0.209641
0.21209
0.207423
0.20679
0.207967
0.21125
0.217065
0.2253
0.231022
0.230543
0.227906
0.223774
0.218625
0.212093
0.203304
0.192775
0.18062
0.176052
0.175938
0.162626
0.162634
0.162637
0.162634
0.162628
0.162604
0.162587
0.162585
0.162589
0.162603
0.162632
0.162668
0.162704
0.162769
0.162875
0.163043
0.163333
0.163829
0.164848
0.166324
0.168653
0.172631
0.179584
0.189472
0.19823
0.209655
0.212258
0.207436
0.206655
0.207943
0.21098
0.215801
0.221347
0.221592
0.219423
0.215321
0.210452
0.205248
0.199301
0.191837
0.182776
0.175579
0.170847
0.171045
0.162551
0.162569
0.16258
0.162583
0.162583
0.162571
0.162578
0.162574
0.162571
0.162587
0.162603
0.162644
0.162689
0.162751
0.16285
0.16302
0.163339
0.163863
0.164886
0.16635
0.168683
0.172657
0.179619
0.189481
0.198292
0.209524
0.212133
0.207477
0.206803
0.208013
0.210835
0.216184
0.219314
0.218422
0.215362
0.210654
0.205315
0.199898
0.194028
0.186878
0.179239
0.172997
0.170362
0.168306
0.162541
0.162564
0.162579
0.162586
0.162585
0.162573
0.162567
0.16257
0.162576
0.162592
0.162624
0.16267
0.162707
0.162772
0.16288
0.163056
0.163343
0.163859
0.16488
0.16637
0.168691
0.172655
0.179667
0.18956
0.198349
0.209692
0.212205
0.207453
0.206678
0.207849
0.210725
0.216615
0.21873
0.217322
0.213733
0.208756
0.203323
0.19779
0.191857
0.185035
0.177462
0.172798
0.168959
0.168926
0.162554
0.162579
0.162597
0.162606
0.162605
0.162595
0.162599
0.162603
0.162605
0.162624
0.162656
0.162699
0.162736
0.162796
0.162894
0.163059
0.163376
0.163898
0.164911
0.166365
0.168692
0.172605
0.179516
0.189438
0.198168
0.209426
0.212096
0.207443
0.206831
0.207934
0.210827
0.216464
0.218255
0.216877
0.213293
0.208188
0.202556
0.196956
0.191031
0.184205
0.177124
0.172351
0.169327
0.167688
0.162563
0.162588
0.162605
0.162612
0.162609
0.162601
0.162606
0.162615
0.162617
0.162637
0.16267
0.162713
0.16274
0.162796
0.162899
0.163077
0.163365
0.16387
0.16491
0.166361
0.168657
0.172662
0.179591
0.189444
0.198271
0.209601
0.212018
0.207325
0.206598
0.208004
0.210992
0.216691
0.218269
0.216721
0.212907
0.207735
0.202201
0.19671
0.190825
0.184047
0.17672
0.172555
0.168726
0.168513
0.162581
0.162608
0.162625
0.162633
0.16263
0.162621
0.162637
0.162647
0.162651
0.162674
0.162712
0.162748
0.162776
0.162831
0.162928
0.1631
0.163404
0.163913
0.164896
0.16639
0.16872
0.172708
0.179728
0.189598
0.198347
0.209664
0.21218
0.207434
0.206837
0.207931
0.210691
0.216519
0.218302
0.21678
0.212986
0.207806
0.202225
0.196631
0.190656
0.183848
0.176861
0.172371
0.169182
0.167709
0.162614
0.162643
0.162665
0.162676
0.162674
0.162661
0.162664
0.162681
0.162691
0.162713
0.162752
0.16279
0.162814
0.162873
0.162982
0.163162
0.163437
0.163957
0.16494
0.16639
0.168694
0.172548
0.17955
0.189447
0.198157
0.209396
0.212049
0.207456
0.206757
0.207913
0.210771
0.216498
0.218184
0.216691
0.21292
0.207763
0.202167
0.196578
0.190606
0.183771
0.176646
0.172459
0.168842
0.168252
0.162642
0.162664
0.162681
0.162689
0.162688
0.162679
0.162683
0.162697
0.162702
0.162726
0.162768
0.162805
0.162829
0.162875
0.162957
0.163104
0.163418
0.163918
0.164952
0.166362
0.168638
0.172672
0.179508
0.18934
0.198145
0.209685
0.211935
0.207206
0.206546
0.207964
0.211036
0.216976
0.218285
0.216596
0.212713
0.207532
0.202009
0.196479
0.190597
0.183863
0.176856
0.172576
0.169107
0.167969
0.162601
0.162616
0.162626
0.162628
0.162618
0.162605
0.162598
0.162606
0.162609
0.162627
0.162657
0.162687
0.162708
0.16276
0.162858
0.16303
0.163348
0.16386
0.164903
0.166435
0.168748
0.172745
0.179566
0.189385
0.198227
0.209692
0.212279
0.207488
0.206856
0.20802
0.210749
0.216484
0.21833
0.216815
0.213003
0.207808
0.202178
0.196561
0.190557
0.183728
0.176643
0.172409
0.169008
0.167974
0.162623
0.162641
0.162658
0.162665
0.162664
0.162651
0.162655
0.162669
0.162683
0.162711
0.162757
0.162796
0.162828
0.162888
0.162993
0.163162
0.163477
0.164011
0.164993
0.166386
0.16877
0.172564
0.179677
0.189584
0.198217
0.209604
0.212068
0.20746
0.206585
0.207848
0.210906
0.216857
0.218244
0.216622
0.212749
0.207618
0.202109
0.196596
0.190696
0.183987
0.176911
0.172653
0.169042
0.168103
0.162648
0.162665
0.16268
0.162686
0.162678
0.162666
0.162672
0.16269
0.162699
0.162723
0.162761
0.162789
0.162811
0.162872
0.16299
0.163191
0.163464
0.163986
0.165013
0.166417
0.168701
0.172757
0.179668
0.189529
0.198219
0.20976
0.211993
0.207524
0.207019
0.208229
0.210998
0.216894
0.218459
0.216828
0.212884
0.207587
0.201985
0.196465
0.19051
0.183725
0.176689
0.172375
0.169055
0.167762
0.162685
0.162699
0.162715
0.162722
0.162717
0.162702
0.162718
0.162739
0.162758
0.162791
0.162843
0.162872
0.162894
0.162941
0.163037
0.163206
0.163539
0.164025
0.164994
0.166472
0.168606
0.172535
0.179323
0.189243
0.197995
0.209195
0.212038
0.207506
0.206766
0.207992
0.210807
0.216561
0.218059
0.216535
0.21281
0.207714
0.202137
0.196624
0.190738
0.184063
0.176974
0.17279
0.169106
0.168066
0.162743
0.162756
0.162776
0.162786
0.162782
0.162775
0.16279
0.162815
0.162825
0.162846
0.162882
0.162906
0.162919
0.162957
0.163049
0.163201
0.163474
0.16395
0.164885
0.166239
0.168592
0.172432
0.179845
0.189734
0.197905
0.209008
0.211482
0.207385
0.207063
0.208347
0.211326
0.216877
0.218414
0.216692
0.212689
0.207446
0.201964
0.196495
0.190546
0.183763
0.176771
0.172468
0.169125
0.167723
0.162827
0.162839
0.162856
0.162866
0.162862
0.162847
0.162843
0.162881
0.162909
0.162938
0.162976
0.162996
0.163006
0.163033
0.163122
0.163268
0.163532
0.163985
0.164965
0.166425
0.168782
0.173091
0.179935
0.189987
0.197699
0.208879
0.212138
0.207354
0.206704
0.208104
0.211065
0.217352
0.218706
0.217078
0.21314
0.207882
0.202206
0.196742
0.190855
0.184179
0.177097
0.172914
0.16929
0.167996
0.162824
0.162817
0.162802
0.162794
0.162768
0.162741
0.162718
0.162728
0.162723
0.162718
0.162715
0.162695
0.162674
0.162675
0.162738
0.162895
0.163176
0.163689
0.164779
0.166361
0.16867
0.17278
0.179422
0.189932
0.197348
0.20851
0.212012
0.207561
0.207086
0.208291
0.211144
0.21711
0.21826
0.21655
0.21257
0.20738
0.202023
0.196632
0.190699
0.183915
0.176941
0.172617
0.169283
0.167735
0.162555
0.162569
0.162576
0.162573
0.16257
0.162559
0.162546
0.162541
0.162549
0.162567
0.16259
0.16263
0.162674
0.16274
0.162846
0.163006
0.163307
0.163827
0.16485
0.166303
0.168619
0.172529
0.179717
0.190582
0.200326
0.210421
0.212983
0.208792
0.207951
0.20921
0.212128
0.217905
0.219201
0.21747
0.213396
0.208013
0.202339
0.196848
0.190953
0.184208
0.176928
0.172431
0.169029
0.167414
0.162549
0.162562
0.162571
0.162571
0.162567
0.162561
0.162557
0.162551
0.162551
0.162566
0.162594
0.162638
0.162677
0.162736
0.162849
0.163025
0.163296
0.163793
0.164827
0.166289
0.168563
0.172767
0.180795
0.194477
0.206687
0.227583
0.235175
0.226732
0.218378
0.216598
0.217335
0.22022
0.219878
0.217512
0.213273
0.208274
0.203282
0.198129
0.192116
0.184854
0.177272
0.172656
0.16923
0.167337
0.162578
0.162599
0.162612
0.162609
0.16261
0.162604
0.162592
0.162583
0.162587
0.162603
0.162628
0.162669
0.162708
0.162762
0.162869
0.163027
0.163328
0.163853
0.16489
0.16627
0.168543
0.172726
0.183633
0.20726
0.249864
0.335815
0.368105
0.333798
0.290295
0.259955
0.244586
0.235957
0.228058
0.219772
0.212842
0.207762
0.20349
0.199013
0.19339
0.185996
0.178049
0.172621
0.169481
0.167016
0.162672
0.162693
0.162707
0.162709
0.162703
0.162694
0.162687
0.162688
0.162689
0.162702
0.162732
0.162786
0.162822
0.162867
0.162977
0.163135
0.163381
0.16388
0.164959
0.166345
0.168644
0.173855
0.193525
0.278216
0.41826
0.618737
0.694992
0.624378
0.511143
0.408678
0.346218
0.300412
0.267412
0.241307
0.224837
0.215526
0.209069
0.202841
0.195718
0.186914
0.178477
0.172872
0.1696
0.167305
0.162696
0.16271
0.162727
0.162731
0.162733
0.162727
0.162714
0.16271
0.162719
0.162732
0.162759
0.162807
0.162841
0.162885
0.162987
0.163124
0.163415
0.163963
0.165079
0.166518
0.169487
0.178852
0.231059
0.493659
0.822519
0.986179
1.00919
0.94201
0.814876
0.6651
0.530962
0.420711
0.341399
0.286603
0.255703
0.238987
0.227155
0.215737
0.203496
0.190442
0.180598
0.17401
0.170175
0.167854
0.162813
0.162845
0.162875
0.162884
0.16288
0.162874
0.16286
0.162859
0.162858
0.162869
0.162905
0.162969
0.162999
0.163027
0.16313
0.163276
0.163502
0.164019
0.165236
0.167221
0.172916
0.198579
0.34643
0.949787
1.25433
1.22532
1.17836
1.10135
1.0031
0.892858
0.761595
0.604155
0.45219
0.35993
0.309801
0.282
0.260623
0.239442
0.217858
0.199132
0.18551
0.176717
0.171387
0.168515
0.162892
0.1629
0.162922
0.162937
0.162944
0.162936
0.162916
0.162916
0.16294
0.162953
0.16298
0.163036
0.163067
0.1631
0.16324
0.163378
0.16372
0.164538
0.16704
0.173021
0.190558
0.260901
0.616894
1.42466
1.49976
1.34347
1.21669
1.15925
1.06871
0.957813
0.832649
0.702144
0.564135
0.450949
0.384167
0.342587
0.30705
0.272683
0.241625
0.216077
0.196894
0.184014
0.175346
0.170547
0.163075
0.163092
0.163115
0.163141
0.163148
0.163145
0.163127
0.163122
0.163133
0.163139
0.163193
0.163294
0.163371
0.163416
0.163472
0.163702
0.164349
0.166195
0.173294
0.193496
0.245189
0.419975
1.12048
1.72927
1.60261
1.37404
1.22919
1.24715
1.18823
1.04952
0.89677
0.738107
0.611104
0.520238
0.459021
0.40992
0.360563
0.313028
0.273566
0.243136
0.219866
0.20204
0.1876
0.17738
0.16342
0.163455
0.163495
0.163548
0.163559
0.163524
0.163504
0.163559
0.163673
0.163773
0.163877
0.164072
0.164283
0.164553
0.165203
0.166263
0.16869
0.176512
0.203428
0.26575
0.385401
0.751536
1.56351
1.83066
1.54661
1.31376
1.18136
1.21451
1.26733
1.16089
1.01849
0.824832
0.712835
0.620525
0.545782
0.478365
0.412408
0.355836
0.314677
0.28629
0.263836
0.243469
0.221416
0.199921
0.164652
0.165087
0.165606
0.165925
0.16583
0.165575
0.16557
0.165698
0.165975
0.166354
0.166756
0.167584
0.168873
0.170393
0.173026
0.177961
0.188858
0.218057
0.297993
0.428334
0.621903
1.19246
1.7646
1.84126
1.53226
1.26026
1.11165
1.08629
1.10907
1.11399
1.02135
0.91727
0.834807
0.751469
0.669047
0.599994
0.549934
0.517091
0.503355
0.492782
0.47261
0.437996
0.377785
0.310818
0.17268
0.178502
0.184817
0.188229
0.18613
0.181919
0.181386
0.181118
0.181161
0.181925
0.183225
0.18674
0.192343
0.197824
0.208146
0.227181
0.26488
0.351285
0.496336
0.604264
0.894153
1.45931
1.89124
2.12984
2.05813
1.61046
1.40719
1.25705
1.14732
1.07124
1.04084
1.0478
1.08906
1.18373
1.25999
1.32748
1.36384
1.3683
1.37675
1.37715
1.34127
1.25904
1.08036
0.916411
0.23811
0.295715
0.344974
0.370675
0.353919
0.320564
0.31484
0.298256
0.276283
0.263362
0.256767
0.261071
0.276552
0.28445
0.309386
0.363
0.444766
0.555741
0.649374
0.755359
1.09529
1.54463
2.36016
3.42823
3.76555
2.79997
2.09349
1.80927
1.74394
1.80073
1.85721
1.97167
2.15136
2.30515
2.43936
2.55916
2.65524
2.71437
2.73688
2.72831
2.69587
2.6588
2.60604
2.57885
0.699026
0.949784
1.10229
1.19928
1.20573
1.17729
1.19804
1.04827
0.849423
0.68374
0.55014
0.493765
0.489365
0.446861
0.457413
0.507532
0.589769
0.665291
0.732217
0.891838
1.19418
1.63229
3.3057
8.05847
11.9186
11.5565
6.0247
2.56039
1.55426
1.48361
1.5844
1.69489
1.7607
1.83233
1.91028
1.98388
2.04171
2.08291
2.11292
2.13645
2.15857
2.14949
2.11954
2.09049
2.01305
2.192
2.26799
2.43004
2.7308
3.18931
3.56578
3.73632
3.82672
3.26107
2.05846
1.36748
1.00897
0.724987
0.651577
0.656054
0.764482
0.82011
0.870494
1.07669
1.35923
2.0158
5.08297
17.7765
60.0455
78.2768
44.8108
14.9274
2.6224
1.97545
2.39987
2.14707
1.55985
1.46097
1.44411
1.45588
1.50371
1.55848
1.63011
1.74683
1.90114
2.06938
2.28815
2.47107
2.73409
2.63844
2.629
2.91331
3.36346
3.93071
4.78597
6.65394
9.29131
10.6918
9.9921
4.54418
1.93736
1.13576
0.776496
1.02453
3.48035
6.13649
2.35476
1.57431
1.92531
4.23163
7.57036
4.39194
2.14699
2.69139
3.30814
2.62655
2.58292
6.22864
28.6111
20.5679
4.58097
2.84254
2.27539
2.16321
2.18441
2.28164
2.36796
2.38872
2.40802
2.6958
3.44003
4.46261
2.8215
2.52244
2.34719
2.30092
2.12244
1.84879
1.73461
1.9261
2.03039
2.22772
2.43828
2.54957
2.44228
1.58858
1.24541
1.09948
0.82525
0.772937
0.745309
0.890926
2.0675
15.5291
59.0163
35.0489
3.0757
3.53722
3.72263
2.65076
3.34384
2.13696
2.59056
3.52875
3.45496
3.52082
3.06015
2.86575
3.06675
3.23911
3.41536
2.82437
2.92311
3.65009
3.84754
5.22078
1.66577
1.42915
1.32416
1.2937
1.31339
1.29342
1.19256
1.09591
1.06764
1.11026
1.16904
1.11557
0.950332
0.896956
0.846637
0.802148
0.763212
0.74237
0.73111
0.716474
0.698537
0.73817
8.34409
9.626
1.37312
1.05807
1.0376
0.959695
0.830043
0.563071
0.384093
11.286
3.76542
1.98182
1.80828
1.59411
1.47025
1.40431
1.30496
1.23108
1.13145
1.0955
0.916536
0.617712
1.55204
1.05085
0.844223
0.859169
0.856241
0.869296
0.879548
0.888995
0.875142
0.869232
0.860507
0.852123
0.818265
0.788593
0.776382
0.782608
0.777776
0.762603
0.718203
0.653513
0.595015
0.515555
0.552632
1.13329
0.823231
0.86308
0.72471
0.53336
0.36312
0.27313
0.228945
0.203555
0.200443
0.244326
0.322821
0.343046
0.395545
0.438794
0.428018
0.42505
0.392191
0.381793
0.292095
0.289242
1.62219
1.18449
0.812801
0.634139
0.597027
0.602676
0.649411
0.738681
0.80576
0.84722
0.864218
0.835408
0.737128
0.614974
0.562425
0.574813
0.569829
0.521597
0.446758
0.374401
0.320525
0.298548
0.318008
0.430666
0.571071
0.634995
0.530089
0.366191
0.248823
0.201237
0.191254
0.186855
0.186503
0.186598
0.187324
0.18564
0.188091
0.195066
0.198976
0.202728
0.204218
0.212442
0.21574
0.229319
1.55734
1.42234
0.961498
0.564836
0.397878
0.360894
0.378492
0.432902
0.496301
0.556157
0.612156
0.576123
0.497756
0.403735
0.340931
0.322666
0.309185
0.288792
0.261638
0.234481
0.214147
0.203814
0.199277
0.231576
0.336068
0.384934
0.313673
0.227906
0.193689
0.185121
0.183577
0.181667
0.182009
0.182455
0.181452
0.179294
0.179437
0.180434
0.181984
0.184749
0.188384
0.19708
0.202901
0.216061
1.34159
1.42468
1.18938
0.679077
0.379277
0.277542
0.258245
0.270514
0.304346
0.348204
0.39132
0.373057
0.329918
0.276719
0.241723
0.225123
0.214396
0.204073
0.1936
0.185816
0.180082
0.176186
0.175957
0.182008
0.206207
0.217625
0.199503
0.182245
0.177014
0.178235
0.179769
0.179088
0.179953
0.179782
0.17836
0.176189
0.175388
0.175634
0.177392
0.180542
0.184998
0.193755
0.201034
0.207706
1.01764
1.33674
1.2672
0.900182
0.475903
0.295482
0.234142
0.217362
0.219988
0.23362
0.254115
0.248396
0.232225
0.210337
0.194385
0.185408
0.180109
0.176105
0.172885
0.170672
0.168811
0.169082
0.169499
0.170783
0.177623
0.178334
0.17661
0.173877
0.173639
0.175919
0.177142
0.176772
0.177722
0.177939
0.176839
0.175149
0.175016
0.175573
0.176876
0.179323
0.182321
0.188471
0.195227
0.203864
0.739318
1.13776
1.23866
1.08748
0.698773
0.389214
0.258245
0.210493
0.194157
0.192253
0.194499
0.192886
0.188241
0.181611
0.175995
0.172426
0.170265
0.16874
0.167592
0.167053
0.166372
0.16657
0.167011
0.166854
0.168239
0.168925
0.170283
0.170773
0.171495
0.174246
0.17538
0.175304
0.175954
0.175772
0.174615
0.172906
0.172323
0.172629
0.174039
0.176746
0.180126
0.18586
0.191786
0.197983
0.566339
0.875108
1.15969
1.13478
0.916832
0.555082
0.319206
0.225269
0.19183
0.180196
0.176909
0.175216
0.173768
0.17205
0.170072
0.168149
0.166897
0.166182
0.165824
0.165561
0.165278
0.165883
0.166629
0.16704
0.168675
0.168229
0.169043
0.169978
0.170581
0.172254
0.173455
0.173213
0.173891
0.174065
0.17338
0.172042
0.171855
0.172339
0.17359
0.176231
0.179076
0.184114
0.190792
0.195694
0.447364
0.657364
1.01502
1.11722
1.01791
0.735377
0.404635
0.251837
0.196402
0.178172
0.172775
0.170738
0.169776
0.169143
0.168309
0.167217
0.166343
0.165867
0.165471
0.165274
0.164925
0.165207
0.165796
0.166296
0.166552
0.166682
0.167805
0.168632
0.169292
0.171189
0.172269
0.172201
0.17256
0.172348
0.171428
0.170104
0.169732
0.170276
0.171731
0.174439
0.177435
0.18171
0.18684
0.192278
0.364904
0.510498
0.838274
1.06847
1.04413
0.855851
0.522485
0.291665
0.207584
0.180326
0.172301
0.169761
0.168875
0.168273
0.167508
0.166568
0.165794
0.165247
0.164909
0.16482
0.164678
0.165007
0.165514
0.166107
0.167097
0.166778
0.167154
0.16811
0.168359
0.169658
0.170898
0.170703
0.170902
0.170896
0.17017
0.16933
0.169379
0.170138
0.171515
0.174224
0.17696
0.181017
0.186007
0.190121
0.310666
0.410452
0.658096
0.977703
1.02991
0.922514
0.641502
0.338968
0.221431
0.184105
0.173314
0.169918
0.168545
0.1678
0.167069
0.166281
0.165619
0.165309
0.165023
0.164735
0.164335
0.164489
0.164991
0.165699
0.166014
0.165837
0.166325
0.167117
0.167541
0.16902
0.170054
0.169921
0.169812
0.169481
0.16853
0.167889
0.167951
0.168871
0.17037
0.172981
0.175873
0.17943
0.184052
0.187562
0.280386
0.345756
0.525359
0.853853
0.996977
0.942716
0.72455
0.405852
0.241257
0.189734
0.175085
0.170502
0.168817
0.167846
0.166927
0.166127
0.165515
0.165027
0.164628
0.164447
0.164196
0.164383
0.164716
0.165353
0.166097
0.165859
0.165855
0.166615
0.166776
0.167857
0.169025
0.168848
0.168651
0.168399
0.167689
0.167383
0.167669
0.168769
0.170245
0.172738
0.175202
0.178314
0.182059
0.185324
0.265809
0.307313
0.435233
0.719778
0.946661
0.935846
0.784807
0.478676
0.265736
0.197056
0.177561
0.171535
0.169079
0.167693
0.166634
0.165884
0.165321
0.164957
0.164721
0.164447
0.16401
0.164013
0.164376
0.165025
0.165312
0.165061
0.165296
0.165931
0.166377
0.167456
0.16856
0.168425
0.168107
0.167441
0.166636
0.166573
0.167052
0.168307
0.169823
0.172244
0.17487
0.177842
0.181483
0.1839
0.259255
0.284687
0.373042
0.589728
0.873744
0.919122
0.809382
0.539762
0.293016
0.205391
0.180013
0.172411
0.169485
0.167829
0.166646
0.165825
0.165305
0.164888
0.164495
0.164226
0.163924
0.164023
0.164204
0.164712
0.165262
0.165108
0.165155
0.165583
0.165707
0.166588
0.167895
0.167632
0.167222
0.166651
0.166111
0.166237
0.166763
0.168015
0.169471
0.171653
0.173978
0.176441
0.179227
0.181538
0.257848
0.274247
0.335097
0.499649
0.786944
0.892019
0.824762
0.602795
0.326893
0.215533
0.183133
0.173618
0.170003
0.167856
0.166449
0.165731
0.165205
0.164782
0.164479
0.164187
0.163757
0.163656
0.163909
0.164409
0.164651
0.164404
0.164585
0.165083
0.165529
0.166368
0.167452
0.167184
0.166804
0.166135
0.165931
0.166196
0.166792
0.168055
0.169436
0.171508
0.173852
0.176264
0.178715
0.179813
0.258181
0.268879
0.310794
0.433589
0.693718
0.859226
0.822184
0.633146
0.356161
0.224838
0.185882
0.174581
0.170414
0.167953
0.166496
0.165729
0.165162
0.164711
0.164362
0.164088
0.16379
0.163762
0.163842
0.164201
0.164601
0.164524
0.164638
0.164873
0.165017
0.1657
0.166804
0.166471
0.166167
0.165605
0.165392
0.16572
0.166409
0.167702
0.169068
0.170939
0.172975
0.174909
0.177066
0.178335
0.25996
0.267481
0.297472
0.391211
0.613709
0.824126
0.813296
0.666804
0.397336
0.237301
0.189366
0.175846
0.170959
0.168075
0.16646
0.165686
0.165125
0.164665
0.164302
0.163979
0.163596
0.16344
0.163564
0.163876
0.164055
0.16389
0.164131
0.16453
0.164944
0.16557
0.16643
0.166138
0.165881
0.165545
0.165537
0.165899
0.166557
0.167785
0.169073
0.170815
0.172775
0.174648
0.176541
0.177224
0.264388
0.268786
0.289498
0.361607
0.544848
0.78334
0.802461
0.682715
0.421641
0.246115
0.192051
0.176774
0.171306
0.16822
0.166492
0.165672
0.165081
0.164564
0.164224
0.163957
0.16367
0.163583
0.163609
0.163815
0.164091
0.164108
0.164258
0.164432
0.164554
0.165056
0.165865
0.165637
0.165377
0.165041
0.16508
0.165528
0.16628
0.167513
0.168776
0.170351
0.172025
0.173502
0.175186
0.176009
0.274302
0.272691
0.286742
0.34143
0.4908
0.739886
0.791512
0.695592
0.455239
0.259247
0.195879
0.17807
0.171806
0.168394
0.166557
0.165703
0.165081
0.164559
0.164177
0.163853
0.16348
0.163344
0.163337
0.163495
0.163577
0.163585
0.163825
0.164147
0.164488
0.164934
0.165657
0.165518
0.165331
0.165187
0.165293
0.165761
0.166452
0.167588
0.168777
0.170207
0.171746
0.173205
0.174679
0.175023
0.291455
0.279736
0.288271
0.329272
0.456041
0.7002
0.776634
0.700353
0.474799
0.266969
0.198323
0.178903
0.172142
0.168561
0.166595
0.16566
0.165054
0.164538
0.164152
0.163857
0.163596
0.163487
0.163483
0.163605
0.163778
0.163877
0.164126
0.164166
0.16423
0.164598
0.165173
0.165038
0.164871
0.164797
0.164981
0.165521
0.166272
0.167394
0.168521
0.1698
0.171121
0.172351
0.17362
0.174006
0.314677
0.290215
0.292635
0.322743
0.430919
0.658612
0.764799
0.706722
0.4974
0.277987
0.201978
0.180172
0.172633
0.168725
0.166683
0.165717
0.165066
0.164506
0.164101
0.163797
0.163464
0.163315
0.16327
0.163286
0.163345
0.163435
0.163618
0.163892
0.164165
0.164547
0.165144
0.165114
0.165037
0.165052
0.165237
0.165746
0.166409
0.167421
0.16848
0.169647
0.170839
0.172062
0.173154
0.173256
0.343024
0.30503
0.299006
0.321307
0.407589
0.617801
0.756788
0.70736
0.509811
0.285078
0.204171
0.180891
0.172922
0.168878
0.166738
0.165692
0.165044
0.164535
0.164134
0.16382
0.163583
0.163446
0.163447
0.163517
0.163665
0.163759
0.164023
0.164038
0.16409
0.164318
0.164697
0.164659
0.164647
0.164739
0.165031
0.165599
0.166316
0.167275
0.168242
0.16928
0.170346
0.171407
0.172253
0.172437
0.376821
0.324282
0.306944
0.322947
0.396086
0.595255
0.74592
0.706584
0.523049
0.293841
0.206924
0.181864
0.173293
0.169038
0.166813
0.165765
0.165076
0.164522
0.164096
0.163805
0.163535
0.163307
0.163241
0.163262
0.163319
0.163363
0.163512
0.163725
0.163947
0.164418
0.164799
0.164837
0.164896
0.165012
0.165275
0.165772
0.166386
0.167231
0.168158
0.169145
0.170118
0.171133
0.171829
0.171821
0.404181
0.346851
0.316893
0.326147
0.38911
0.571245
0.736435
0.707684
0.531186
0.299207
0.208547
0.182366
0.173503
0.169141
0.166874
0.165761
0.165058
0.164554
0.164148
0.163814
0.163617
0.163452
0.163457
0.163503
0.163653
0.163729
0.163889
0.164028
0.164084
0.164225
0.164473
0.164468
0.164545
0.164764
0.165132
0.165679
0.166319
0.167133
0.167973
0.168831
0.169693
0.170525
0.171102
0.171168
0.430662
0.374956
0.327904
0.331146
0.38392
0.552782
0.732952
0.707136
0.536846
0.304353
0.210225
0.182918
0.173715
0.169245
0.166938
0.165795
0.165093
0.164569
0.164134
0.163838
0.163597
0.163342
0.163258
0.163265
0.163344
0.163381
0.16346
0.163718
0.163875
0.164305
0.16462
0.164683
0.164832
0.165029
0.165332
0.165793
0.166357
0.167067
0.167866
0.168702
0.169491
0.170276
0.17072
0.170705
0.445032
0.400949
0.34129
0.337946
0.383998
0.543531
0.726546
0.705212
0.540567
0.30737
0.2112
0.183297
0.173878
0.169339
0.166987
0.165829
0.16511
0.164583
0.164198
0.163865
0.163686
0.163499
0.163509
0.163541
0.163684
0.163731
0.16381
0.164044
0.164081
0.164211
0.164305
0.164379
0.164566
0.164849
0.165231
0.16572
0.166276
0.166958
0.167704
0.168417
0.169099
0.169728
0.170109
0.170127
0.452196
0.419618
0.356692
0.346292
0.385129
0.531993
0.721927
0.705622
0.54183
0.308987
0.211872
0.183535
0.174013
0.169414
0.167026
0.165851
0.165118
0.164609
0.164192
0.163867
0.163659
0.16343
0.16334
0.163319
0.163376
0.163463
0.163527
0.163786
0.1639
0.164162
0.164547
0.164619
0.164848
0.165077
0.16538
0.165798
0.166306
0.166917
0.167606
0.168282
0.168918
0.16951
0.169781
0.169691
0.454233
0.432302
0.372748
0.353999
0.388309
0.529951
0.722965
0.704468
0.541324
0.30929
0.212129
0.183757
0.174149
0.169483
0.167063
0.165888
0.165165
0.16464
0.164266
0.16395
0.163794
0.163626
0.163616
0.163652
0.16372
0.163829
0.163846
0.164092
0.164098
0.16425
0.164346
0.164422
0.164667
0.164952
0.165293
0.165716
0.16621
0.16679
0.167442
0.168007
0.168547
0.169013
0.16925
0.169205
0.453073
0.440486
0.389282
0.361499
0.392506
0.531499
0.722239
0.702717
0.540446
0.30845
0.211862
0.183795
0.174208
0.169506
0.167085
0.165901
0.165174
0.16465
0.16427
0.163942
0.163742
0.163545
0.163435
0.16345
0.163459
0.163628
0.163641
0.163865
0.164008
0.164151
0.164539
0.164638
0.164866
0.1651
0.165394
0.165779
0.166241
0.166768
0.167351
0.167875
0.168379
0.16881
0.168951
0.168871
0.450567
0.442727
0.401265
0.369625
0.397246
0.534546
0.72287
0.703286
0.538093
0.305838
0.211174
0.183709
0.174202
0.169506
0.167108
0.165935
0.165228
0.164702
0.164339
0.164056
0.163906
0.16377
0.163724
0.163833
0.163807
0.163911
0.163874
0.164089
0.164132
0.164288
0.164526
0.164609
0.164785
0.165024
0.16532
0.165695
0.166139
0.166631
0.167174
0.167624
0.168023
0.168367
0.168493
0.168434
0.446879
0.442153
0.407971
0.376405
0.403347
0.541003
0.725748
0.703528
0.532994
0.301331
0.210035
0.183514
0.174157
0.169484
0.167114
0.165948
0.165241
0.164716
0.164351
0.164033
0.163837
0.163676
0.163543
0.163624
0.163575
0.163741
0.163713
0.163895
0.164086
0.164285
0.164582
0.164699
0.164871
0.165103
0.165392
0.165749
0.166165
0.166616
0.167091
0.167502
0.167851
0.168174
0.168243
0.168147
0.441743
0.440935
0.414179
0.383392
0.41019
0.549507
0.730698
0.703593
0.524837
0.295077
0.208494
0.183213
0.17406
0.169441
0.167124
0.16598
0.165292
0.164778
0.164428
0.164149
0.164014
0.163908
0.163835
0.163952
0.163913
0.164002
0.163921
0.164067
0.164252
0.164362
0.164596
0.164703
0.164879
0.165105
0.16536
0.165676
0.166057
0.166464
0.166901
0.167263
0.167541
0.167797
0.167867
0.167809
0.43431
0.439303
0.418623
0.39002
0.417824
0.560218
0.737135
0.70295
0.513704
0.287661
0.206677
0.182816
0.173913
0.169377
0.167118
0.165995
0.16531
0.164804
0.164429
0.164134
0.163943
0.163786
0.163673
0.163769
0.163709
0.163855
0.163817
0.16395
0.164302
0.164441
0.164643
0.164764
0.16491
0.165116
0.165369
0.165687
0.16604
0.166396
0.166786
0.167138
0.167381
0.167618
0.167666
0.167588
0.428093
0.437329
0.420916
0.396438
0.426077
0.573171
0.744576
0.701063
0.499394
0.279603
0.204695
0.182335
0.173717
0.169289
0.16711
0.166014
0.165354
0.164856
0.16451
0.164252
0.164119
0.164025
0.163957
0.164061
0.164043
0.164151
0.164056
0.164129
0.164446
0.164419
0.164615
0.164741
0.164897
0.165118
0.165374
0.165656
0.165976
0.166318
0.166667
0.166945
0.167166
0.167326
0.167384
0.167342
0.421362
0.436328
0.42364
0.403411
0.434852
0.588808
0.752476
0.697545
0.481792
0.27143
0.202583
0.181765
0.17347
0.169183
0.167102
0.166036
0.165377
0.164886
0.164513
0.164236
0.16404
0.163905
0.163798
0.16388
0.16387
0.164049
0.164071
0.164134
0.164503
0.164505
0.164671
0.164801
0.16495
0.165132
0.165353
0.165618
0.165915
0.16622
0.166543
0.166825
0.167045
0.167172
0.167242
0.167193
0.418775
0.436279
0.42582
0.40843
0.444082
0.60777
0.760292
0.691927
0.461182
0.263032
0.20034
0.181112
0.173178
0.16906
0.167081
0.16604
0.165402
0.164925
0.164586
0.164359
0.16422
0.164123
0.16409
0.164147
0.164205
0.164355
0.164322
0.164352
0.164528
0.164515
0.164607
0.164749
0.164906
0.165103
0.165354
0.165616
0.165901
0.166194
0.166489
0.166703
0.166892
0.166964
0.167032
0.167018
0.415994
0.436262
0.426125
0.413362
0.453954
0.630788
0.768221
0.683611
0.43795
0.254266
0.197979
0.180386
0.172843
0.168931
0.167069
0.166061
0.165439
0.164974
0.164601
0.164338
0.164151
0.163977
0.163943
0.164
0.164122
0.164274
0.164265
0.164263
0.164427
0.164556
0.164665
0.164812
0.164962
0.165138
0.165339
0.16557
0.165833
0.166091
0.166369
0.166592
0.166779
0.166846
0.166927
0.166911
0.415181
0.434967
0.426817
0.419347
0.464625
0.658178
0.775829
0.671516
0.412019
0.245193
0.195548
0.179611
0.172476
0.168797
0.167042
0.166058
0.165448
0.164994
0.164656
0.164453
0.164319
0.164236
0.164268
0.164432
0.1646
0.164553
0.164436
0.164316
0.164433
0.164508
0.16459
0.164762
0.164905
0.165089
0.165314
0.165567
0.165839
0.166089
0.166351
0.166499
0.166647
0.16669
0.166754
0.16678
0.415473
0.435672
0.426243
0.420214
0.475806
0.691221
0.78146
0.654261
0.383894
0.236053
0.193087
0.178803
0.172083
0.168663