/*--------------------------------*- C++ -*----------------------------------*\
| =========                 |                                                 |
| \\      /  F ield         | OpenFOAM: The Open Source CFD Toolbox           |
|  \\    /   O peration     | Version:  v1912                                 |
|   \\  /    A nd           | Website:  www.openfoam.com                      |
|    \\/     M anipulation  |                                                 |
\*---------------------------------------------------------------------------*/
FoamFile
{
    version     2.0;
    format      ascii;
    class       volScalarField;
    location    "80";
    object      p;
}
// * * * * * * * * * * * * * * * * * * * * * * * * * * * * * * * * * * * * * //

dimensions      [1 -1 -2 0 0 0 0];


internalField   nonuniform List<scalar> 
14268
(
43513.5
43181.1
42881.7
42616.1
42384.1
42184.8
42017.1
41878.4
41766.7
41679.5
41613.8
41566.4
41534.6
41516.3
41510.9
41518.5
41539.5
41573.4
41618.6
41669
41725.5
41773.6
41816
41835.9
41823.7
41840.5
41874.1
41915.7
41979.2
42056.2
42137
42216.8
42298.5
42382.3
42469.7
42556.5
42638.4
42711.8
42776.4
42836.3
42896.5
42962.2
43030.8
43101.3
43411.9
43079.5
42780.1
42514.5
42282.5
42083.2
41915.5
41776.8
41665.1
41577.9
41512.2
41464.8
41433
41414.7
41409.3
41416.9
41437.9
41471.8
41517
41567.4
41623.9
41672
41714.4
41734.3
41722.1
41738.9
41772.5
41814.1
41877.6
41954.6
42035.4
42115.2
42196.9
42280.7
42368.1
42454.9
42536.8
42610.2
42674.8
42734.7
42794.9
42860.6
42929.2
42999.6
43310.3
42977.9
42678.5
42412.9
42180.9
41981.6
41813.9
41675.2
41563.5
41476.3
41410.6
41363.2
41331.4
41313.1
41307.7
41315.3
41336.3
41370.2
41415.4
41465.8
41522.3
41570.4
41612.8
41632.7
41620.5
41637.3
41670.9
41712.5
41775.9
41853
41933.8
42013.5
42095.3
42179.1
42266.5
42353.3
42435.2
42508.6
42573.2
42633.1
42693.3
42759
42827.6
42898
43208.7
42876.3
42576.9
42311.3
42079.3
41880
41712.3
41573.6
41461.9
41374.7
41309
41261.6
41229.7
41211.5
41206.1
41213.7
41234.7
41268.6
41313.8
41364.2
41420.7
41468.8
41511.2
41531.1
41518.9
41535.7
41569.3
41610.9
41674.3
41751.4
41832.2
41911.9
41993.7
42077.5
42164.9
42251.7
42333.6
42407
42471.6
42531.5
42591.7
42657.4
42726
42796.3
43107.1
42774.7
42475.3
42209.7
41977.7
41778.3
41610.7
41472
41360.2
41273.1
41207.4
41160
41128.1
41109.9
41104.5
41112.1
41133.1
41167
41212.2
41262.6
41319.1
41367.1
41409.6
41429.5
41417.3
41434.1
41467.7
41509.3
41572.7
41649.8
41730.6
41810.3
41892
41975.9
42063.3
42150.1
42232
42305.4
42370
42429.9
42490.1
42555.8
42624.4
42694.7
43005.5
42673
42373.6
42108.1
41876.1
41676.7
41509.1
41370.3
41258.6
41171.5
41105.8
41058.4
41026.5
41008.3
41002.9
41010.5
41031.5
41065.4
41110.6
41161
41217.5
41265.5
41308
41327.9
41315.7
41332.5
41366.1
41407.7
41471.1
41548.2
41629
41708.7
41790.4
41874.3
41961.7
42048.5
42130.4
42203.8
42268.4
42328.3
42388.5
42454.2
42522.8
42593
42903.8
42571.4
42272
42006.4
41774.4
41575.1
41407.4
41268.7
41157
41069.8
41004.2
40956.8
40924.9
40906.7
40901.3
40908.9
40929.9
40963.8
41008.9
41059.4
41115.9
41163.9
41206.4
41226.3
41214
41230.8
41264.5
41306.1
41369.5
41446.6
41527.4
41607.1
41688.8
41772.7
41860.1
41946.9
42028.8
42102.2
42166.8
42226.6
42286.9
42352.6
42421.2
42491.4
42802.2
42469.8
42170.4
41904.8
41672.8
41473.5
41305.8
41167.1
41055.4
40968.2
40902.5
40855.2
40823.3
40805.1
40799.6
40807.3
40828.3
40862.2
40907.3
40957.8
41014.3
41062.3
41104.8
41124.6
41112.4
41129.2
41162.9
41204.5
41267.9
41345
41425.8
41505.5
41587.2
41671.1
41758.5
41845.3
41927.2
42000.6
42065.2
42125
42185.3
42251
42319.6
42389.7
42700.6
42368.1
42068.7
41803.2
41571.2
41371.8
41204.2
41065.5
40953.8
40866.6
40800.9
40753.5
40721.7
40703.4
40698
40705.6
40726.7
40760.6
40805.7
40856.2
40912.6
40960.7
41003.2
41023
41010.8
41027.6
41061.2
41102.8
41166.3
41243.4
41324.2
41403.9
41485.6
41569.5
41656.8
41743.7
41825.6
41899.1
41963.6
42023.4
42083.7
42149.4
42218
42288.1
42598.9
42266.5
41967.1
41701.5
41469.5
41270.2
41102.6
40963.8
40852.1
40765
40699.3
40651.9
40620.1
40601.8
40596.4
40604
40625
40659
40704.1
40754.6
40811
40859.1
40901.6
40921.4
40909.2
40926
40959.6
41001.2
41064.7
41141.8
41222.6
41302.3
41384
41467.8
41555.2
41642.1
41724
41797.5
41862
41921.8
41982.1
42047.8
42116.4
42186.4
42497.3
42164.9
41865.5
41599.9
41367.9
41168.6
41000.9
40862.2
40750.5
40663.3
40597.7
40550.3
40518.4
40500.2
40494.8
40502.4
40523.4
40557.3
40602.5
40653
40709.4
40757.5
40800
40819.8
40807.5
40824.3
40858
40899.6
40963
41040.2
41121
41200.7
41282.4
41366.2
41453.6
41540.5
41622.4
41695.9
41760.4
41820.2
41880.4
41946.2
42014.8
42084.8
42395.6
42063.2
41763.8
41498.2
41266.2
41066.9
40899.3
40760.6
40648.9
40561.7
40496.1
40448.7
40416.8
40398.6
40393.2
40400.8
40421.8
40455.7
40500.9
40551.3
40607.8
40655.9
40698.4
40718.2
40705.9
40722.7
40756.4
40798
40861.4
40938.6
41019.3
41099.1
41180.8
41264.6
41352
41438.9
41520.8
41594.3
41658.8
41718.6
41778.8
41844.6
41913.2
41983.1
42294
41961.6
41662.2
41396.6
41164.6
40965.3
40797.6
40658.9
40547.2
40460.1
40394.4
40347.1
40315.2
40297
40291.6
40299.2
40320.2
40354.1
40399.3
40449.7
40506.2
40554.3
40596.8
40616.6
40604.3
40621.1
40654.7
40696.3
40759.8
40837
40917.7
40997.5
41079.2
41163
41250.4
41337.3
41419.2
41492.7
41557.2
41617
41677.2
41743
41811.6
41881.5
42192.3
41859.9
41560.5
41294.9
41062.9
40863.6
40696
40557.3
40445.6
40358.4
40292.8
40245.4
40213.6
40195.4
40189.9
40197.5
40218.6
40252.5
40297.7
40348.1
40404.6
40452.8
40495.2
40515
40502.6
40519.5
40553.1
40594.7
40658.2
40735.3
40816.1
40895.9
40977.6
41061.4
41148.8
41235.7
41317.6
41391.1
41455.6
41515.4
41575.6
41641.3
41710
41779.9
42039.8
41707.4
41408
41142.4
40910.5
40711.1
40543.5
40404.8
40293.1
40206
40140.3
40093
40061.1
40042.9
40037.5
40045.1
40066.1
40100.1
40145.2
40195.7
40252.2
40300.4
40342.8
40362.5
40350.1
40367
40400.6
40442.3
40505.8
40582.9
40663.7
40743.4
40825.2
40909
40996.4
41083.3
41165.2
41238.7
41303.2
41363
41423.2
41488.9
41557.6
41627.4
41836.5
41504.1
41204.7
40939.1
40707.1
40507.8
40340.2
40201.5
40089.8
40002.7
39937.1
39889.7
39857.9
39839.7
39834.2
39841.9
39862.9
39896.8
39942
39992.5
40049
40097.2
40139.6
40159.3
40146.8
40163.7
40197.4
40239
40302.5
40379.7
40460.5
40540.2
40621.9
40705.8
40793.2
40880.2
40962
41035.5
41100
41159.8
41220
41285.7
41354.4
41424.2
41633.1
41300.7
41001.3
40735.8
40503.8
40304.5
40136.9
39998.2
39886.5
39799.4
39733.8
39686.5
39654.6
39636.4
39631
39638.6
39659.6
39693.6
39738.8
39789.3
39845.8
39894
39936.4
39956
39943.5
39960.4
39994.1
40035.7
40099.3
40176.5
40257.3
40337
40418.7
40502.6
40590
40677
40758.9
40832.3
40896.8
40956.6
41016.7
41082.5
41151.2
41220.9
41429.8
41097.4
40798
40532.4
40300.4
40101.1
39933.6
39794.9
39683.2
39596.1
39530.5
39483.2
39451.4
39433.1
39427.7
39435.3
39456.4
39490.3
39535.5
39586.1
39642.6
39690.8
39733.2
39752.8
39740.2
39757.1
39790.8
39832.4
39896
39973.2
40054
40133.8
40215.5
40299.3
40386.8
40473.8
40555.7
40629.2
40693.6
40753.4
40813.5
40879.3
40948
41017.6
41226.4
40894
40594.6
40329
40097.1
39897.8
39730.2
39591.5
39479.9
39392.8
39327.2
39279.9
39248.1
39229.9
39224.4
39232.1
39253.1
39287.1
39332.3
39382.8
39439.4
39487.6
39530.1
39549.5
39536.9
39553.8
39587.5
39629.2
39692.7
39770
39850.8
39930.5
40012.2
40096.1
40183.6
40270.6
40352.5
40426
40490.4
40550.2
40610.3
40676.1
40744.8
40814.4
41023
40690.6
40391.2
40125.6
39893.7
39694.4
39526.8
39388.2
39276.6
39189.5
39123.9
39076.6
39044.8
39026.6
39021.2
39028.8
39049.8
39083.8
39129
39179.6
39236.2
39284.4
39326.9
39346.3
39333.5
39350.5
39384.2
39425.9
39489.4
39566.8
39647.6
39727.3
39809
39892.9
39980.4
40067.4
40149.4
40222.8
40287.3
40346.9
40407.1
40472.8
40541.6
40611.2
40819.6
40487.2
40187.8
39922.2
39690.3
39491
39323.5
39184.8
39073.2
38986.2
38920.6
38873.3
38841.5
38823.3
38817.9
38825.5
38846.5
38880.5
38925.8
38976.4
39033
39081.2
39123.7
39143
39130.2
39147.2
39180.8
39222.6
39286.1
39363.5
39444.3
39524.1
39605.8
39689.6
39777.2
39864.2
39946.2
40019.7
40084.1
40143.7
40203.8
40269.6
40338.3
40407.9
39331.6
38999.1
38699.7
38434.2
38202.4
38003.2
37835.8
37697.2
37585.7
37498.8
37433.4
37386.3
37354.5
37336.4
37330.9
37338.5
37359.6
37393.7
37439.1
37489.9
37546.7
37595
37637.6
37656.2
37642.6
37659.6
37693.1
37735.7
37799
37876.9
37957.7
38037.4
38119.1
38203.1
38290.8
38378.1
38460.2
38533.8
38597.9
38657.3
38717.2
38783.1
38852
38921.4
36556.1
36223.5
35924.2
35658.8
35427.3
35228.5
35061.3
34923.2
34812.1
34725.7
34660.9
34614.2
34582.7
34564.7
34559.2
34566.8
34587.9
34622.3
34668.3
34719.9
34777.3
34826.1
34868.9
34884.7
34868.3
34886.6
34920.1
34964.7
35026.5
35106.3
35187.6
35267
35348.8
35432.9
35521.2
35609.2
35691.9
35765.4
35828.9
35887.5
35946.9
36012.7
36082.6
36152.6
33777.6
33444.8
33145.5
32880.4
32649.3
32451.1
32284.5
32146.9
32036.5
31950.9
31886.8
31840.8
31809.9
31792
31786.4
31793.9
31815.1
31850.1
31896.8
31949.7
32007.9
32057.4
32100.7
32112.1
32091.9
32111.8
32145.3
32191.7
32254.4
32334.9
32416.5
32496.3
32577.7
32662.3
32751.7
32841.1
32924.8
32998.1
33060.5
33117.6
33176
33242.1
33313.3
33384.7
30996
30663.1
30363.8
30099.1
29868.6
29671.2
29505.2
29368.4
29258.9
29174.4
29111.4
29066.3
29035.9
29018.3
29012.6
29019.9
29041.2
29076.9
29124.7
29179.2
29238.8
29289.4
29332
29339.9
29313
29334.8
29369.2
29416.1
29481.3
29563.3
29645.8
29724.9
29806.5
29891.4
29982
30073
30157.9
30231.2
30292.4
30347.4
30404.8
30471.2
30544.1
30617.9
28211.4
27878.2
27579.1
27314.9
27085.1
26888.6
26723.5
26587.6
26479.3
26396.1
26334.5
26290.6
26261
26243.5
26237.8
26244.8
26266.1
26302.7
26352
26408.4
26470
26521.6
26565.6
26564.8
26531.1
26556.8
26596.3
26638.5
26708.4
26791.3
26873.4
26953
27034
27119.8
27212.5
27305.8
27392.8
27465.7
27524.8
27577
27632.7
27699.4
27774.8
27851.2
25423.7
25090.2
24791.3
24527.6
24298.8
24103.5
23939.4
23804.6
23697.6
23616
23556.1
23513.6
23484.9
23467.9
23461.9
23468.5
23489.9
23527.6
23578.6
23637.3
23701.3
23754.9
23800.1
23788.5
23749.6
23778.5
23824.1
23861.4
23935.7
24020.6
24103.3
24181
24261.7
24347.8
24442.6
24538.8
24627.7
24700.8
24757.6
24806.3
24860.1
24927.6
25005.5
25087.2
22632.9
22299.1
22000.3
21737.4
21509.7
21315.9
21152.9
21019.3
20913.9
20834.3
20776.4
20735.7
20708.1
20691.3
20684.9
20691.1
20712.3
20751.3
20804.5
20866
20933.3
20988.9
21034.8
21014
20970
21000.1
21051.8
21096.5
21164.9
21250.2
21330.7
21407.3
21487.4
21574.8
21672.5
21772.8
21864.7
21937.7
21990.8
22035
22086.1
22154.2
22236.1
22321.2
19838.9
19504.8
19206.2
18944.1
18717.7
18525.7
18363.9
18231.7
18128.1
18050.7
17995.1
17956.5
17930.1
17913.5
17906.8
17912.2
17933.4
17973.7
18029.5
18094.3
18165.3
18224.3
18272.8
18240.8
18186.5
18223.4
18280.5
18324.9
18395.7
18481.6
18561.9
18636
18712.8
18800.9
18902.1
19007
19102.2
19175.3
19224.7
19263.1
19311.4
19380.6
19466.8
19561.5
17041.7
16707.3
16408.8
16147.7
15922.9
15733
15572.4
15441.8
15340.3
15265.5
15212.8
15176.6
15151.8
15135.9
15128.2
15132.5
15153.2
15195.1
15254
15322.6
15397.4
15459.8
15509.4
15471.6
15412
15447.5
15511.9
15561.9
15628.4
15714.5
15791.2
15859.7
15935.3
16025.6
16130.9
16242.4
16342.6
16414.7
16458.8
16490.1
16534.9
16605
16696.3
16794.9
14241.2
13906.4
13608.1
13348.1
13125.4
12937.4
12778.5
12649.4
12550.1
12478.3
12428.8
12395.3
12372
12355.6
12347.5
12350.4
12370.9
12414.8
12477.4
12550.4
12629.5
12693.9
12743.6
12705.5
12644.4
12678.3
12743.8
12796.9
12867.4
12948.7
13021.8
13087.3
13157.2
13248.2
13359.2
13478.1
13583.8
13655.9
13693.9
13716.1
13756.8
13828.7
13928.6
14040.2
11437.5
11102.5
10804.4
10545.9
10325.5
10139.6
9982.39
9854.94
9758.17
9689.75
9644.06
9613.8
9592.6
9577.68
9567.7
9568.63
9587.95
9633.14
9699.37
9777.72
9861.97
9925.43
9976.84
9941.62
9869.19
9916.22
9973.91
10034.3
10105.9
10184.7
10251.3
10309.2
10376.3
10469.3
10586.2
10714.8
10827.2
10898.8
10928.4
10940.3
10976.5
11049.6
11155.5
11274.2
8630.46
8294.57
7996.22
7738.91
7521.44
7337.94
7182.64
7056.85
6962.76
6898.33
6857.09
6830.39
6811.21
6794.82
6783.94
6782.17
6800.24
6849.25
6921.02
7005.21
7092.04
7157.51
7209.19
7171.16
7104.53
7147.86
7209.41
7271.48
7344.55
7419.52
7479.2
7528.97
7590.23
7685.66
7811.94
7951.74
8072.08
8143.87
8163.88
8163.82
8194.29
8269.9
8390.12
8519.77
5821.25
5485.23
5187.86
4933.08
4719.26
4538.56
4384.94
4260.81
4169.73
4109.65
4073.23
4050.4
4033.53
4019.26
4005.67
4001.07
4016.87
4066.32
4143.74
4239.46
4337.53
4406.3
4460.16
4417.14
4353.05
4382.04
4444.01
4509.37
4585.29
4656.94
4709.67
4750.33
4806.38
4903.87
5037.64
5191.54
5320.27
5391.52
5400.72
5387.5
5412.14
5487.68
5617.49
5757.12
3049.63
2735.44
2462.22
2237.87
2060.97
1918.78
1801.86
1710.46
1646.79
1608.54
1588.88
1579.29
1572.2
1561.64
1548.37
1538.96
1545.15
1584.51
1655.9
1745.71
1835.85
1900.35
1951.95
1957.2
1924.29
1938.56
1977.76
2010.87
2055.66
2099.43
2121.08
2136.5
2176.02
2261.55
2388.23
2532.88
2652.07
2710.88
2708.22
2687.92
2705.8
2782.44
2903.47
3033.41
921.04
741.981
598.666
491.417
415.74
361.167
320.803
292.028
273.363
263.422
259.971
260.73
261.584
258.849
251.994
246.069
245.551
260.411
289.681
327.974
367.096
396.115
420.748
455.094
457.386
472.052
493.567
498.364
506.117
507.369
492.015
479.925
493.599
535.458
600.109
672.788
737.153
764.565
753.091
732.406
731.373
767.801
823.675
887.133
85.604
52.5231
30.3869
17.3775
10.7543
7.72814
6.6864
6.75993
6.88348
6.92484
7.11555
7.4128
7.55481
7.03017
6.24495
5.72619
5.5114
5.77225
6.73096
8.47463
10.7342
13.2562
12.8553
17.7311
23.6203
35.0736
46.0024
49.1856
49.2847
43.2516
31.2972
23.0436
23.9992
29.5551
36.412
41.6088
48.3581
51.6367
47.5367
42.2638
38.7558
40.3902
38.2211
41.8683
-6.62957
-6.58491
-6.49932
-6.34569
-6.18535
-6.09542
-6.13186
-6.17817
-6.2059
-6.26715
-6.35209
-6.43183
-6.47067
-6.47508
-6.43766
-6.39961
-6.40283
-6.47807
-6.62167
-6.80086
-6.93586
-7.00806
-7.0367
-7.13096
-7.25356
-7.23276
-7.24579
-7.3384
-7.35593
-7.30914
-7.20771
-7.08178
-7.10337
-7.13832
-7.19874
-7.44241
-7.60116
-7.63812
-7.53402
-7.36911
-7.31284
-7.40791
-7.66032
-7.96772
-9.98735
-9.91669
-9.83223
-9.68661
-9.54049
-9.47125
-9.50148
-9.54076
-9.5671
-9.62075
-9.69634
-9.7674
-9.82215
-9.82958
-9.80107
-9.7617
-9.75011
-9.77834
-9.90596
-10.081
-10.2359
-10.2545
-10.1046
-10.294
-10.6717
-10.7128
-10.6756
-10.7549
-10.8089
-10.8609
-10.769
-10.4858
-10.4071
-10.2905
-10.3086
-10.5596
-10.8371
-10.9207
-10.8547
-10.7248
-10.6939
-10.7884
-10.9981
-11.1977
-13.3911
-13.3321
-13.2306
-13.0969
-12.9617
-12.8819
-12.8865
-12.9105
-12.933
-12.9813
-13.0462
-13.1089
-13.1438
-13.1497
-13.126
-13.1061
-13.12
-13.2076
-13.3108
-13.4533
-13.5645
-13.6372
-13.6848
-13.759
-13.8719
-13.8812
-13.8962
-13.9704
-13.987
-13.9757
-13.9056
-13.7971
-13.7963
-13.8279
-13.8794
-14.0556
-14.1736
-14.2096
-14.1547
-14.0586
-14.0343
-14.1074
-14.294
-14.4771
-16.7676
-16.6898
-16.5921
-16.463
-16.3459
-16.273
-16.2631
-16.2769
-16.2952
-16.3353
-16.3908
-16.4452
-16.4816
-16.4916
-16.4842
-16.471
-16.4781
-16.5022
-16.6016
-16.7351
-16.8552
-16.903
-16.8416
-16.9824
-17.2291
-17.2862
-17.2826
-17.3358
-17.3715
-17.3855
-17.3254
-17.1601
-17.1071
-17.0143
-17.0628
-17.2301
-17.4159
-17.4909
-17.4686
-17.4026
-17.3912
-17.4644
-17.6228
-17.7526
-20.1483
-20.0645
-19.9699
-19.8486
-19.7355
-19.6609
-19.638
-19.6419
-19.6558
-19.6896
-19.7375
-19.7841
-19.8178
-19.826
-19.8158
-19.8098
-19.8306
-19.9033
-20.0137
-20.1164
-20.2058
-20.2779
-20.3428
-20.4
-20.5016
-20.5281
-20.548
-20.6064
-20.6209
-20.6204
-20.5727
-20.489
-20.4828
-20.5302
-20.5511
-20.6833
-20.7694
-20.8032
-20.7823
-20.7329
-20.7275
-20.7874
-20.9183
-21.0395
-23.5315
-23.4387
-23.3425
-23.2254
-23.1177
-23.0433
-23.0107
-23.0061
-23.0155
-23.0428
-23.0825
-23.1237
-23.1504
-23.1631
-23.1666
-23.1701
-23.1878
-23.2259
-23.287
-23.3857
-23.4945
-23.5548
-23.5378
-23.6562
-23.8106
-23.8826
-23.9017
-23.9406
-23.9664
-23.9636
-23.9245
-23.8286
-23.7954
-23.7226
-23.7714
-23.8944
-24.0274
-24.0922
-24.0944
-24.0637
-24.068
-24.1254
-24.2371
-24.3317
-26.9108
-26.811
-26.7104
-26.5989
-26.4973
-26.4227
-26.3816
-26.3685
-26.373
-26.3946
-26.4279
-26.4645
-26.4907
-26.5016
-26.5036
-26.5082
-26.5319
-26.5855
-26.6884
-26.7824
-26.8547
-26.925
-27.0017
-27.044
-27.1282
-27.1674
-27.1899
-27.2315
-27.2509
-27.2515
-27.2242
-27.1641
-27.1592
-27.1983
-27.2346
-27.3149
-27.3799
-27.4127
-27.4125
-27.3929
-27.4023
-27.453
-27.5471
-27.6286
-30.2882
-30.1836
-30.0777
-29.9699
-29.8726
-29.7978
-29.7504
-29.7298
-29.7299
-29.7462
-29.7735
-29.805
-29.8275
-29.8406
-29.8496
-29.8627
-29.8866
-29.9314
-29.9789
-30.055
-30.1466
-30.2085
-30.2143
-30.3154
-30.429
-30.4899
-30.5236
-30.5584
-30.5791
-30.577
-30.5491
-30.496
-30.4748
-30.4266
-30.4614
-30.5596
-30.6576
-30.7125
-30.7271
-30.7186
-30.7331
-30.779
-30.8586
-30.9289
-33.6632
-33.555
-33.4456
-33.337
-33.2452
-33.1701
-33.1166
-33.0897
-33.0848
-33.0963
-33.1187
-33.1464
-33.1673
-33.1802
-33.1893
-33.2016
-33.226
-33.2746
-33.3615
-33.436
-33.5069
-33.5745
-33.6474
-33.693
-33.7582
-33.8029
-33.8282
-33.8608
-33.8793
-33.8832
-33.8663
-33.8291
-33.8259
-33.8554
-33.8936
-33.9487
-33.9999
-34.0332
-34.0462
-34.0447
-34.0625
-34.105
-34.1739
-34.2333
-37.0374
-36.9255
-36.8135
-36.7018
-36.6132
-36.5377
-36.4799
-36.4484
-36.4389
-36.4461
-36.464
-36.4878
-36.5061
-36.5198
-36.5323
-36.5518
-36.578
-36.6205
-36.6698
-36.739
-36.8064
-36.8644
-36.8891
-36.9707
-37.0597
-37.1167
-37.1505
-37.1829
-37.2021
-37.2046
-37.1879
-37.1588
-37.1475
-37.1232
-37.1524
-37.2268
-37.2987
-37.3433
-37.3634
-37.3683
-37.3888
-37.4273
-37.4866
-37.5392
-40.4108
-40.2952
-40.1806
-40.0668
-39.9758
-39.9031
-39.8405
-39.805
-39.7915
-39.7946
-39.8088
-39.8294
-39.8461
-39.8599
-39.8735
-39.8896
-39.9196
-39.9618
-40.0197
-40.0903
-40.1617
-40.2253
-40.2902
-40.3385
-40.3924
-40.4353
-40.4646
-40.4931
-40.5111
-40.5172
-40.5091
-40.4882
-40.4865
-40.5055
-40.5389
-40.5826
-40.6281
-40.6624
-40.6829
-40.6923
-40.7143
-40.7507
-40.8022
-40.8479
-43.7838
-43.6646
-43.5471
-43.4312
-43.3344
-43.2629
-43.1975
-43.1598
-43.1429
-43.1428
-43.1538
-43.1709
-43.186
-43.1999
-43.2146
-43.2334
-43.2637
-43.3039
-43.3564
-43.4134
-43.4679
-43.5218
-43.5599
-43.6263
-43.6986
-43.7498
-43.7836
-43.813
-43.8313
-43.8383
-43.8308
-43.8162
-43.8136
-43.8098
-43.8358
-43.8903
-43.9428
-43.9789
-44.0019
-44.0149
-44.0382
-44.0722
-44.1175
-44.1583
-47.1562
-47.0335
-46.9124
-46.7938
-46.69
-46.6184
-46.5529
-46.5124
-46.4928
-46.4898
-46.4981
-46.5123
-46.5262
-46.5401
-46.5555
-46.5753
-46.6048
-46.6436
-46.6937
-46.7523
-46.8203
-46.8774
-46.9343
-46.9819
-47.03
-47.0708
-47.1016
-47.1282
-47.1463
-47.1546
-47.1531
-47.1438
-47.1449
-47.1558
-47.1842
-47.2227
-47.265
-47.298
-47.3218
-47.3375
-47.3612
-47.3931
-47.433
-47.4699
-50.5279
-50.4023
-50.2775
-50.155
-50.0472
-49.9703
-49.904
-49.8628
-49.8415
-49.8361
-49.842
-49.8537
-49.8664
-49.8801
-49.8959
-49.9165
-49.9455
-49.9833
-50.0307
-50.0835
-50.1326
-50.181
-50.2256
-50.2819
-50.3413
-50.3878
-50.4206
-50.4476
-50.4659
-50.4757
-50.4757
-50.4706
-50.4736
-50.4817
-50.5068
-50.5455
-50.5857
-50.6174
-50.6419
-50.6596
-50.6837
-50.714
-50.7501
-50.7832
-53.8993
-53.7709
-53.6419
-53.5144
-53.4036
-53.3158
-53.2553
-53.212
-53.189
-53.1815
-53.1852
-53.1949
-53.2066
-53.22
-53.2362
-53.2571
-53.2855
-53.322
-53.3668
-53.4173
-53.473
-53.5303
-53.5808
-53.6263
-53.6707
-53.7095
-53.7403
-53.7659
-53.7843
-53.7949
-53.7981
-53.797
-53.8018
-53.812
-53.8362
-53.8705
-53.9074
-53.9375
-53.9623
-53.9815
-54.0053
-54.0338
-54.0667
-54.0973
-57.271
-57.1396
-57.0056
-56.8728
-56.758
-56.6633
-56.6046
-56.5582
-56.5351
-56.5262
-56.528
-56.536
-56.5467
-56.5597
-56.576
-56.597
-56.6249
-56.6601
-56.7028
-56.7504
-56.7987
-56.8413
-56.8872
-56.9366
-56.9864
-57.0289
-57.0603
-57.0858
-57.1044
-57.1163
-57.1214
-57.123
-57.1296
-57.1408
-57.164
-57.1953
-57.2294
-57.2582
-57.2831
-57.3032
-57.3269
-57.3542
-57.3844
-57.4123
-60.6435
-60.5092
-60.3691
-60.23
-60.1126
-60.0112
-59.9505
-59.9037
-59.8804
-59.8701
-59.8702
-59.8767
-59.8866
-59.8993
-59.9155
-59.9364
-59.9637
-59.9976
-60.0383
-60.0835
-60.1318
-60.1847
-60.2294
-60.273
-60.314
-60.3509
-60.381
-60.4059
-60.4247
-60.4372
-60.4444
-60.4485
-60.4566
-60.4689
-60.491
-60.52
-60.5518
-60.5793
-60.6039
-60.6247
-60.648
-60.6739
-60.7019
-60.7278
-64.0166
-63.879
-63.7321
-63.5864
-63.4646
-63.3577
-63.2965
-63.2474
-63.2244
-63.2132
-63.212
-63.2173
-63.2264
-63.2387
-63.2547
-63.2754
-63.3019
-63.3347
-63.3735
-63.4164
-63.4611
-63.5021
-63.546
-63.5905
-63.6335
-63.672
-63.7021
-63.7267
-63.7457
-63.7592
-63.7679
-63.7738
-63.7833
-63.7964
-63.8176
-63.8447
-63.8744
-63.9008
-63.925
-63.9462
-63.9691
-63.994
-64.02
-64.0441
-67.3905
-67.2495
-67.0956
-66.9421
-66.8156
-66.7077
-66.6395
-66.5899
-66.5677
-66.5557
-66.5534
-66.5576
-66.5659
-66.5778
-66.5935
-66.6139
-66.6397
-66.6713
-66.7083
-66.7492
-66.7923
-66.8368
-66.8802
-66.9214
-66.9598
-66.9948
-67.0237
-67.0479
-67.0671
-67.0811
-67.0913
-67.0991
-67.1094
-67.1232
-67.1438
-67.1692
-67.1971
-67.2225
-67.2462
-67.2676
-67.2899
-67.3136
-67.3381
-67.3608
-70.7659
-70.6206
-70.4586
-70.2964
-70.1692
-70.0556
-69.9813
-69.9325
-69.91
-69.8974
-69.8942
-69.8975
-69.9051
-69.9166
-69.932
-69.9519
-69.9771
-70.0075
-70.0429
-70.0819
-70.1228
-70.163
-70.2033
-70.2435
-70.282
-70.3171
-70.3457
-70.3697
-70.389
-70.4037
-70.415
-70.4242
-70.4354
-70.4497
-70.4697
-70.4937
-70.52
-70.5445
-70.5677
-70.5889
-70.6108
-70.6336
-70.6567
-70.678
-74.1415
-73.9914
-73.8211
-73.6531
-73.5179
-73.3986
-73.3237
-73.2734
-73.2515
-73.2386
-73.2347
-73.2371
-73.2441
-73.2551
-73.2702
-73.2896
-73.314
-73.3433
-73.3771
-73.4144
-73.4535
-73.4935
-73.5332
-73.5715
-73.6075
-73.6402
-73.6682
-73.6918
-73.7112
-73.7263
-73.7386
-73.7491
-73.761
-73.7758
-73.7952
-73.8181
-73.843
-73.8666
-73.8892
-73.9103
-73.9316
-73.9534
-73.9752
-73.9954
-77.5198
-77.3645
-77.186
-77.008
-76.8623
-76.7477
-76.6659
-76.6141
-76.5926
-76.5793
-76.5747
-76.5764
-76.5829
-76.5934
-76.608
-76.627
-76.6506
-76.6788
-76.7112
-76.7467
-76.7841
-76.8219
-76.8594
-76.8964
-76.9314
-76.9636
-76.991
-77.0143
-77.0338
-77.0494
-77.0625
-77.0739
-77.0865
-77.1016
-77.1205
-77.1424
-77.1661
-77.1888
-77.2108
-77.2316
-77.2524
-77.2735
-77.2942
-77.3133
-80.8999
-80.7391
-80.5508
-80.3568
-80.2139
-80.0952
-80.0044
-79.9544
-79.9329
-79.9194
-79.9143
-79.9154
-79.9213
-79.9314
-79.9456
-79.964
-79.9868
-80.0139
-80.045
-80.079
-80.1148
-80.1512
-80.1879
-80.2231
-80.2566
-80.2874
-80.3142
-80.3372
-80.3566
-80.3726
-80.3862
-80.3986
-80.4118
-80.4271
-80.4456
-80.4666
-80.4892
-80.5112
-80.5325
-80.553
-80.5732
-80.5934
-80.6132
-80.6314
-84.2784
-84.1092
-83.9103
-83.7131
-83.5659
-83.4345
-83.3449
-83.2949
-83.2729
-83.2591
-83.2535
-83.2542
-83.2595
-83.2691
-83.2828
-83.3006
-83.3227
-83.3488
-83.3785
-83.4111
-83.4453
-83.4803
-83.515
-83.5492
-83.5815
-83.6114
-83.6376
-83.6603
-83.6797
-83.6961
-83.7103
-83.7233
-83.7369
-83.7524
-83.7705
-83.7907
-83.8124
-83.8336
-83.8544
-83.8744
-83.894
-83.9136
-83.9325
-83.9499
-87.6651
-87.4856
-87.2774
-87.0716
-86.9063
-86.7818
-86.6884
-86.6342
-86.6121
-86.5983
-86.5923
-86.5924
-86.5974
-86.6066
-86.6198
-86.637
-86.6583
-86.6834
-86.7119
-86.7431
-86.7759
-86.8095
-86.843
-86.8758
-86.907
-86.9358
-86.9614
-86.9838
-87.0031
-87.0197
-87.0342
-87.0479
-87.0619
-87.0775
-87.0952
-87.1148
-87.1356
-87.1561
-87.1763
-87.1958
-87.2149
-87.2338
-87.2519
-87.2685
-91.0618
-90.8637
-90.6446
-90.4233
-90.2471
-90.1239
-90.0247
-89.9741
-89.9513
-89.9373
-89.931
-89.9305
-89.935
-89.9437
-89.9565
-89.9731
-89.9936
-90.0177
-90.0451
-90.0749
-90.1064
-90.1386
-90.1707
-90.2023
-90.2324
-90.2604
-90.2853
-90.3075
-90.3267
-90.3435
-90.3585
-90.3725
-90.3868
-90.4024
-90.4198
-90.4388
-90.4588
-90.4787
-90.4983
-90.5173
-90.5359
-90.5541
-90.5715
-90.5874
-94.4564
-94.2367
-94.0089
-93.7714
-93.6007
-93.4617
-93.3645
-93.3141
-93.2902
-93.2757
-93.2692
-93.2684
-93.2724
-93.2806
-93.2929
-93.3089
-93.3287
-93.3519
-93.3781
-93.4067
-93.4369
-93.4678
-93.4988
-93.5292
-93.5583
-93.5853
-93.6096
-93.6314
-93.6505
-93.6675
-93.6825
-93.697
-93.7116
-93.7272
-93.7443
-93.7627
-93.782
-93.8013
-93.8203
-93.8389
-93.8569
-93.8745
-93.8912
-93.9065
-97.8492
-97.6071
-97.3717
-97.1308
-96.9479
-96.8081
-96.7074
-96.6518
-96.6287
-96.6139
-96.607
-96.6058
-96.6095
-96.6173
-96.629
-96.6445
-96.6635
-96.6858
-96.7109
-96.7384
-96.7673
-96.797
-96.8268
-96.856
-96.8841
-96.9103
-96.9341
-96.9555
-96.9745
-96.9916
-97.0069
-97.0216
-97.0363
-97.0519
-97.0686
-97.0866
-97.1053
-97.124
-97.1425
-97.1605
-97.178
-97.195
-97.2111
-97.2259
-101.247
-100.981
-100.727
-100.488
-100.291
-100.147
-100.043
-99.9908
-99.9667
-99.9518
-99.9444
-99.943
-99.9463
-99.9537
-99.9649
-99.9798
-99.998
-100.019
-100.044
-100.07
-100.098
-100.126
-100.155
-100.183
-100.21
-100.236
-100.259
-100.28
-100.299
-100.316
-100.331
-100.346
-100.361
-100.376
-100.393
-100.41
-100.429
-100.447
-100.465
-100.482
-100.499
-100.516
-100.531
-100.545
-104.646
-104.356
-104.085
-103.836
-103.636
-103.487
-103.381
-103.329
-103.304
-103.289
-103.282
-103.28
-103.283
-103.29
-103.301
-103.315
-103.332
-103.353
-103.376
-103.401
-103.428
-103.455
-103.483
-103.51
-103.536
-103.561
-103.584
-103.604
-103.623
-103.64
-103.656
-103.671
-103.686
-103.701
-103.717
-103.734
-103.752
-103.769
-103.787
-103.804
-103.82
-103.836
-103.851
-103.865
-108.042
-107.73
-107.443
-107.182
-106.976
-106.826
-106.721
-106.667
-106.641
-106.626
-106.619
-106.617
-106.619
-106.626
-106.636
-106.65
-106.667
-106.686
-106.709
-106.733
-106.758
-106.785
-106.811
-106.838
-106.863
-106.887
-106.909
-106.929
-106.948
-106.964
-106.98
-106.995
-107.01
-107.025
-107.041
-107.058
-107.075
-107.092
-107.109
-107.126
-107.142
-107.157
-107.172
-107.185
-111.433
-111.102
-110.799
-110.528
-110.314
-110.161
-110.055
-110.004
-109.978
-109.963
-109.955
-109.953
-109.955
-109.961
-109.971
-109.984
-110
-110.019
-110.041
-110.064
-110.089
-110.114
-110.14
-110.165
-110.189
-110.212
-110.234
-110.254
-110.272
-110.289
-110.305
-110.32
-110.335
-110.35
-110.365
-110.382
-110.398
-110.415
-110.431
-110.448
-110.463
-110.478
-110.492
-110.505
-114.821
-114.469
-114.151
-113.872
-113.652
-113.495
-113.391
-113.341
-113.315
-113.3
-113.292
-113.289
-113.291
-113.297
-113.306
-113.319
-113.334
-113.352
-113.373
-113.395
-113.419
-113.443
-113.468
-113.492
-113.516
-113.538
-113.559
-113.579
-113.597
-113.614
-113.629
-113.644
-113.659
-113.674
-113.69
-113.705
-113.722
-113.738
-113.754
-113.769
-113.785
-113.799
-113.813
-113.825
-118.199
-117.829
-117.5
-117.215
-116.989
-116.83
-116.724
-116.678
-116.651
-116.636
-116.628
-116.625
-116.627
-116.632
-116.641
-116.653
-116.668
-116.685
-116.705
-116.726
-116.749
-116.772
-116.796
-116.82
-116.842
-116.864
-116.885
-116.904
-116.922
-116.938
-116.954
-116.969
-116.984
-116.998
-117.014
-117.029
-117.045
-117.061
-117.076
-117.091
-117.106
-117.12
-117.133
-117.145
-121.569
-121.182
-120.844
-120.556
-120.325
-120.164
-120.057
-120.014
-119.987
-119.972
-119.964
-119.961
-119.962
-119.967
-119.976
-119.987
-120.001
-120.018
-120.037
-120.057
-120.079
-120.102
-120.125
-120.147
-120.169
-120.191
-120.211
-120.229
-120.247
-120.263
-120.278
-120.294
-120.308
-120.323
-120.338
-120.353
-120.368
-120.384
-120.399
-120.414
-120.428
-120.441
-120.454
-120.466
-124.922
-124.526
-124.182
-123.893
-123.659
-123.497
-123.389
-123.349
-123.322
-123.308
-123.3
-123.296
-123.297
-123.302
-123.31
-123.321
-123.334
-123.35
-123.369
-123.388
-123.409
-123.431
-123.453
-123.475
-123.496
-123.517
-123.536
-123.555
-123.572
-123.588
-123.603
-123.618
-123.633
-123.647
-123.662
-123.677
-123.692
-123.707
-123.721
-123.736
-123.749
-123.763
-123.775
-123.786
-128.257
-127.857
-127.512
-127.225
-126.99
-126.827
-126.721
-126.684
-126.658
-126.643
-126.635
-126.632
-126.632
-126.637
-126.644
-126.655
-126.668
-126.683
-126.7
-126.719
-126.739
-126.76
-126.781
-126.803
-126.823
-126.843
-126.862
-126.88
-126.897
-126.913
-126.928
-126.943
-126.957
-126.971
-126.986
-127
-127.015
-127.03
-127.044
-127.058
-127.071
-127.084
-127.096
-127.107
-131.579
-131.183
-130.838
-130.553
-130.32
-130.157
-130.053
-130.019
-129.993
-129.979
-129.97
-129.967
-129.967
-129.971
-129.978
-129.988
-130.001
-130.015
-130.032
-130.05
-130.069
-130.089
-130.11
-130.13
-130.15
-130.17
-130.188
-130.206
-130.222
-130.238
-130.253
-130.268
-130.282
-130.296
-130.31
-130.324
-130.338
-130.353
-130.366
-130.38
-130.393
-130.405
-130.417
-130.428
-134.89
-134.496
-134.158
-133.877
-133.647
-133.485
-133.385
-133.353
-133.328
-133.314
-133.305
-133.302
-133.302
-133.305
-133.312
-133.321
-133.333
-133.347
-133.363
-133.381
-133.399
-133.419
-133.438
-133.458
-133.477
-133.496
-133.514
-133.531
-133.548
-133.563
-133.578
-133.592
-133.606
-133.62
-133.634
-133.648
-133.662
-133.676
-133.689
-133.702
-133.715
-133.727
-133.738
-133.748
-138.182
-137.8
-137.47
-137.196
-136.971
-136.812
-136.718
-136.687
-136.663
-136.649
-136.64
-136.636
-136.636
-136.64
-136.646
-136.655
-136.666
-136.679
-136.695
-136.711
-136.729
-136.748
-136.767
-136.786
-136.804
-136.823
-136.84
-136.857
-136.873
-136.888
-136.903
-136.917
-136.931
-136.944
-136.958
-136.972
-136.985
-136.999
-137.012
-137.025
-137.037
-137.049
-137.059
-137.069
-147.887
-147.542
-147.268
-147.019
-146.819
-146.674
-146.595
-146.561
-146.54
-146.525
-146.517
-146.513
-146.512
-146.514
-146.519
-146.526
-146.536
-146.548
-146.561
-146.576
-146.591
-146.608
-146.625
-146.642
-146.659
-146.676
-146.692
-146.707
-146.722
-146.737
-146.751
-146.764
-146.777
-146.79
-146.803
-146.816
-146.828
-146.841
-146.853
-146.865
-146.876
-146.886
-146.896
-146.905
-163.884
-163.688
-163.497
-163.308
-163.152
-163.058
-163.007
-162.977
-162.956
-162.942
-162.932
-162.926
-162.924
-162.925
-162.928
-162.933
-162.941
-162.95
-162.96
-162.972
-162.985
-162.999
-163.013
-163.027
-163.041
-163.056
-163.07
-163.083
-163.097
-163.11
-163.122
-163.134
-163.146
-163.158
-163.169
-163.181
-163.192
-163.203