/*--------------------------------*- C++ -*----------------------------------*\
| =========                 |                                                 |
| \\      /  F ield         | OpenFOAM: The Open Source CFD Toolbox           |
|  \\    /   O peration     | Version:  v1912                                 |
|   \\  /    A nd           | Website:  www.openfoam.com                      |
|    \\/     M anipulation  |                                                 |
\*---------------------------------------------------------------------------*/
FoamFile
{
    version     2.0;
    format      ascii;
    class       volScalarField;
    location    "80";
    object      p_rgh;
}
// * * * * * * * * * * * * * * * * * * * * * * * * * * * * * * * * * * * * * //

dimensions      [1 -1 -2 0 0 0 0];


internalField   nonuniform List<scalar> 
14268
(
1185.13
852.72
553.321
287.728
55.7348
-143.616
-311.262
-450.003
-561.715
-648.893
-714.576
-761.962
-793.836
-812.069
-817.494
-809.878
-788.863
-754.957
-709.813
-659.393
-602.925
-554.838
-512.413
-492.501
-504.673
-487.887
-454.255
-412.665
-349.243
-272.15
-191.375
-111.642
-29.9315
53.8987
141.277
228.142
309.972
383.448
447.993
507.874
568.108
633.825
702.428
772.886
1185.13
852.716
553.317
287.725
55.7311
-143.619
-311.266
-450.006
-561.717
-648.895
-714.578
-761.964
-793.838
-812.071
-817.496
-809.88
-788.865
-754.958
-709.814
-659.393
-602.925
-554.838
-512.412
-492.503
-504.676
-487.89
-454.258
-412.667
-349.245
-272.151
-191.375
-111.643
-29.9321
53.8983
141.277
228.142
309.973
383.449
447.993
507.874
568.107
633.825
702.428
772.783
1185.12
852.708
553.309
287.717
55.7236
-143.626
-311.272
-450.012
-561.723
-648.9
-714.582
-761.967
-793.841
-812.074
-817.498
-809.883
-788.868
-754.961
-709.816
-659.394
-602.924
-554.837
-512.411
-492.504
-504.682
-487.894
-454.262
-412.671
-349.247
-272.152
-191.376
-111.644
-29.9333
53.8973
141.277
228.143
309.974
383.451
447.994
507.873
568.106
633.824
702.428
772.781
1185.11
852.696
553.297
287.705
55.7126
-143.637
-311.282
-450.021
-561.731
-648.907
-714.588
-761.972
-793.845
-812.078
-817.503
-809.887
-788.872
-754.964
-709.818
-659.395
-602.924
-554.836
-512.409
-492.508
-504.691
-487.901
-454.269
-412.677
-349.251
-272.154
-191.378
-111.646
-29.935
53.8961
141.277
228.145
309.977
383.453
447.996
507.873
568.105
633.823
702.429
772.688
1185.09
852.68
553.281
287.69
55.6978
-143.65
-311.295
-450.033
-561.742
-648.916
-714.596
-761.979
-793.851
-812.083
-817.508
-809.893
-788.877
-754.969
-709.822
-659.396
-602.924
-554.834
-512.407
-492.512
-504.702
-487.91
-454.278
-412.684
-349.256
-272.157
-191.38
-111.648
-29.9373
53.8942
141.277
228.147
309.981
383.457
447.997
507.872
568.102
633.822
702.428
772.682
1185.07
852.66
553.261
287.67
55.6792
-143.668
-311.311
-450.047
-561.755
-648.928
-714.606
-761.987
-793.859
-812.09
-817.516
-809.9
-788.884
-754.975
-709.826
-659.397
-602.923
-554.832
-512.404
-492.517
-504.717
-487.922
-454.289
-412.694
-349.263
-272.16
-191.383
-111.651
-29.9402
53.8922
141.277
228.15
309.986
383.461
448
507.872
568.1
633.82
702.429
772.6
1185.05
852.635
553.237
287.646
55.6569
-143.689
-311.33
-450.065
-561.771
-648.942
-714.618
-761.997
-793.867
-812.099
-817.524
-809.909
-788.893
-754.982
-709.831
-659.399
-602.923
-554.83
-512.4
-492.523
-504.735
-487.936
-454.303
-412.705
-349.271
-272.164
-191.386
-111.654
-29.9437
53.8895
141.277
228.153
309.991
383.467
448.003
507.871
568.097
633.819
702.429
772.589
1185.02
852.607
553.208
287.619
55.631
-143.713
-311.353
-450.086
-561.79
-648.958
-714.632
-762.009
-793.878
-812.109
-817.534
-809.919
-788.903
-754.99
-709.836
-659.401
-602.922
-554.827
-512.396
-492.53
-504.756
-487.952
-454.319
-412.719
-349.28
-272.168
-191.39
-111.658
-29.9477
53.8865
141.278
228.156
309.998
383.473
448.006
507.87
568.093
633.816
702.43
772.519
1184.99
852.575
553.176
287.588
55.6013
-143.741
-311.379
-450.11
-561.811
-648.977
-714.647
-762.023
-793.89
-812.12
-817.545
-809.931
-788.914
-754.999
-709.843
-659.404
-602.921
-554.824
-512.391
-492.538
-504.779
-487.97
-454.337
-412.735
-349.29
-272.173
-191.394
-111.663
-29.9524
53.883
141.278
228.161
310.005
383.48
448.01
507.869
568.089
633.814
702.43
772.503
1184.95
852.538
553.14
287.553
55.5679
-143.772
-311.408
-450.137
-561.835
-648.998
-714.665
-762.038
-793.903
-812.132
-817.558
-809.944
-788.927
-755.01
-709.85
-659.406
-602.92
-554.82
-512.386
-492.547
-504.806
-487.991
-454.357
-412.752
-349.301
-272.179
-191.399
-111.668
-29.9575
53.8791
141.278
228.166
310.014
383.488
448.014
507.868
568.084
633.811
702.43
772.444
1184.91
852.498
553.1
287.514
55.5308
-143.806
-311.44
-450.167
-561.862
-649.021
-714.685
-762.054
-793.918
-812.146
-817.572
-809.958
-788.941
-755.022
-709.858
-659.409
-602.919
-554.816
-512.38
-492.557
-504.835
-488.014
-454.379
-412.771
-349.314
-272.185
-191.404
-111.674
-29.9633
53.8748
141.278
228.171
310.023
383.498
448.019
507.867
568.079
633.808
702.43
772.423
1184.87
852.453
553.055
287.471
55.49
-143.845
-311.476
-450.199
-561.892
-649.047
-714.707
-762.073
-793.934
-812.162
-817.588
-809.974
-788.956
-755.034
-709.867
-659.413
-602.918
-554.812
-512.374
-492.568
-504.868
-488.04
-454.404
-412.793
-349.328
-272.192
-191.41
-111.68
-29.9696
53.87
141.278
228.177
310.033
383.507
448.024
507.865
568.074
633.804
702.431
772.375
1184.82
852.404
553.007
287.424
55.4455
-143.886
-311.515
-450.235
-561.924
-649.075
-714.731
-762.093
-793.952
-812.179
-817.605
-809.992
-788.973
-755.049
-709.877
-659.416
-602.917
-554.807
-512.367
-492.581
-504.903
-488.068
-454.431
-412.816
-349.344
-272.2
-191.417
-111.687
-29.9765
53.8648
141.278
228.183
310.045
383.518
448.03
507.864
568.067
633.8
702.432
772.35
1184.77
852.352
552.955
287.373
55.3973
-143.931
-311.557
-450.274
-561.959
-649.105
-714.756
-762.115
-793.971
-812.197
-817.623
-810.01
-788.991
-755.064
-709.888
-659.42
-602.916
-554.802
-512.359
-492.594
-504.942
-488.097
-454.46
-412.841
-349.36
-272.208
-191.424
-111.695
-29.9841
53.8591
141.278
228.19
310.057
383.53
448.036
507.862
568.061
633.796
702.432
772.311
1184.69
852.267
552.87
287.291
55.3195
-144.004
-311.625
-450.337
-562.015
-649.154
-714.798
-762.15
-794.002
-812.226
-817.653
-810.041
-789.021
-755.088
-709.905
-659.426
-602.914
-554.793
-512.347
-492.615
-505.004
-488.146
-454.507
-412.882
-349.387
-272.222
-191.435
-111.707
-29.9962
53.8499
141.278
228.201
310.076
383.548
448.046
507.859
568.049
633.789
702.433
772.272
1184.56
852.137
552.741
287.166
55.2008
-144.115
-311.729
-450.432
-562.101
-649.229
-714.861
-762.204
-794.049
-812.271
-817.699
-810.087
-789.066
-755.126
-709.931
-659.436
-602.91
-554.78
-512.327
-492.647
-505.098
-488.22
-454.58
-412.944
-349.426
-272.242
-191.453
-111.726
-30.0146
53.8364
141.279
228.219
310.106
383.581
448.062
507.856
568.033
633.78
702.434
772.213
1184.42
851.991
552.597
287.025
55.0673
-144.24
-311.845
-450.539
-562.197
-649.313
-714.933
-762.264
-794.103
-812.322
-817.75
-810.14
-789.117
-755.168
-709.961
-659.446
-602.907
-554.766
-512.308
-492.685
-505.205
-488.304
-454.661
-413.021
-349.472
-272.266
-191.473
-111.748
-30.0361
53.8203
141.279
228.238
310.14
383.607
448.079
507.851
568.013
633.766
702.436
772.163
1184.26
851.829
552.435
286.869
54.9189
-144.378
-311.975
-450.658
-562.304
-649.406
-715.012
-762.331
-794.162
-812.378
-817.806
-810.198
-789.173
-755.215
-709.994
-659.458
-602.903
-554.752
-512.286
-492.727
-505.324
-488.397
-454.75
-413.081
-349.534
-272.291
-191.495
-111.771
-30.0588
53.8032
141.279
228.259
310.178
383.652
448.099
507.846
567.994
633.755
702.437
772.121
1184.08
851.651
552.258
286.697
54.7558
-144.53
-312.117
-450.789
-562.422
-649.509
-715.099
-762.406
-794.228
-812.44
-817.869
-810.262
-789.235
-755.266
-710.03
-659.471
-602.898
-554.734
-512.256
-492.77
-505.454
-488.498
-454.851
-413.139
-349.617
-272.32
-191.52
-111.796
-30.0846
53.784
141.28
228.283
310.219
383.681
448.119
507.84
567.97
633.739
702.439
772.081
1183.89
851.456
552.065
286.51
54.5777
-144.697
-312.272
-450.932
-562.551
-649.621
-715.194
-762.486
-794.298
-812.506
-817.937
-810.331
-789.302
-755.323
-710.069
-659.485
-602.894
-554.711
-512.228
-492.819
-505.597
-488.607
-454.954
-413.198
-349.705
-272.354
-191.546
-111.825
-30.1123
53.7627
141.279
228.309
310.264
383.736
448.144
507.834
567.946
633.725
702.441
772.052
1183.68
851.246
551.856
286.307
54.3851
-144.877
-312.441
-451.087
-562.69
-649.742
-715.297
-762.573
-794.376
-812.58
-818.011
-810.407
-789.376
-755.384
-710.112
-659.501
-602.889
-554.692
-512.199
-492.874
-505.753
-488.741
-455.095
-413.266
-349.799
-272.39
-191.573
-111.853
-30.1416
53.7409
141.281
228.337
310.312
383.77
448.168
507.827
567.917
633.707
702.442
772.023
1182.09
849.614
550.228
284.723
52.8779
-146.287
-313.761
-452.304
-563.784
-650.696
-716.107
-763.259
-794.975
-813.14
-818.584
-810.996
-789.945
-755.857
-710.444
-659.622
-602.848
-554.53
-511.935
-493.299
-506.916
-489.885
-456.388
-413.789
-350.486
-272.63
-191.767
-112.065
-30.3922
53.5495
141.274
228.553
310.706
384.242
448.387
507.784
567.715
633.584
702.462
771.904
1176.19
843.591
544.226
278.886
47.3255
-151.477
-318.619
-456.782
-567.813
-654.205
-719.087
-765.784
-797.206
-815.25
-820.724
-813.187
-792.076
-757.629
-711.675
-660.036
-602.686
-553.823
-511.03
-495.273
-511.655
-493.342
-459.874
-415.289
-353.421
-273.658
-192.35
-112.963
-31.1141
52.9845
141.259
229.307
311.981
385.428
449.005
507.564
566.919
632.756
702.687
772.642
1167.19
834.439
535.131
270.067
38.959
-159.276
-325.911
-463.499
-573.849
-659.455
-723.533
-769.537
-800.515
-818.414
-823.934
-816.49
-795.296
-760.309
-713.55
-660.644
-602.507
-552.951
-509.655
-498.234
-518.507
-498.587
-465.063
-418.631
-355.987
-275.466
-193.886
-114.024
-32.6448
51.8935
141.367
230.686
314.425
387.774
450.117
507.207
565.672
631.759
702.946
774.327
1155.21
822.262
523.032
258.337
27.8337
-169.638
-335.604
-472.44
-581.889
-666.439
-729.437
-774.51
-804.889
-822.517
-828.152
-820.862
-799.598
-763.895
-716.05
-661.556
-601.979
-551.402
-508.796
-500.901
-527.829
-506.043
-471.603
-424.733
-359.506
-277.526
-194.993
-115.917
-34.2887
50.56
141.213
232.204
317.084
390.404
451.581
506.654
563.983
630.417
703.265
777.062
1140.14
806.969
507.854
243.641
13.9122
-182.586
-347.717
-483.622
-591.937
-675.146
-736.769
-780.652
-810.26
-827.703
-833.47
-826.42
-805.088
-768.479
-719.238
-662.821
-601.239
-549.594
-505.598
-506.43
-540.116
-514.376
-474.955
-432.732
-362.789
-279.905
-197.845
-118.176
-37.257
48.5507
141.245
234.624
321.556
394.449
453.537
505.814
561.477
628.193
703.584
779.937
1122.04
788.599
489.608
225.978
-2.80568
-198.112
-362.259
-497.072
-604.043
-685.636
-745.572
-788.011
-816.737
-833.777
-839.785
-833.1
-811.773
-774.092
-723.087
-664.344
-600.328
-546.705
-501.534
-513.169
-552.048
-523.114
-477.581
-440.256
-365.967
-281.073
-198.322
-120.679
-39.9214
46.1445
140.923
237.155
326.012
399.171
455.914
504.689
558.448
625.944
703.847
785.561
1100.78
767.051
468.219
205.297
-22.3483
-216.188
-379.214
-512.771
-618.143
-697.787
-755.698
-796.359
-823.953
-840.799
-847.148
-841.015
-819.751
-780.801
-727.584
-666.073
-598.761
-543.165
-497.309
-518.04
-562.089
-532.009
-480.254
-435.603
-367.185
-281.884
-201.342
-124.775
-44.6464
42.7066
140.451
240.702
332.63
405.593
458.764
502.879
554.072
622.102
703.991
789.152
1076.39
742.335
443.67
181.577
-44.7543
-236.838
-398.645
-530.818
-634.409
-711.817
-767.354
-806.011
-832.401
-848.952
-855.654
-850.266
-829.141
-788.774
-733.014
-668.244
-597.172
-538.197
-489.747
-521.747
-576.013
-539.136
-481.975
-437.602
-366.786
-280.945
-200.596
-126.461
-49.6586
38.4112
139.599
244.538
339.7
412.821
462.163
500.604
548.927
618.14
704.26
799.035
1048.73
714.355
415.889
154.789
-70.0046
-259.95
-420.484
-551.128
-652.648
-727.426
-780.142
-816.308
-841.148
-857.005
-864.72
-860.464
-839.755
-797.84
-738.937
-670.346
-595.504
-533.14
-483.536
-521.375
-580.909
-545.448
-481.064
-431.072
-364.48
-278.394
-201.688
-133.231
-57.5843
32.6433
138.005
249.442
349.665
421.79
465.877
497.159
541.933
612.046
703.329
801.953
1017.83
683.059
384.752
124.79
-97.995
-285.991
-444.899
-573.929
-673.248
-745.066
-794.574
-828.055
-851.36
-867.725
-875.851
-872.96
-852.488
-808.574
-746.002
-672.955
-593.872
-529.493
-479.793
-517.896
-578.997
-545.039
-479.588
-426.467
-355.985
-274.683
-201.544
-136.083
-66.143
24.8035
135.825
254.715
360.475
432.558
470.499
492.758
533.411
605.359
705.205
816.854
983.754
648.733
350.663
92.0828
-128.258
-314.198
-471.392
-598.838
-695.608
-764.029
-809.719
-839.976
-861.178
-876.099
-886.081
-885.149
-865.835
-820.643
-754.411
-676.058
-591.809
-528.352
-476.937
-512.163
-584.596
-537.561
-479.876
-419.502
-347.844
-269.057
-202.488
-144.543
-77.4946
15.5229
132.464
260.999
373.46
444.996
474.617
486.533
522.714
595.805
701.767
820.425
946.252
610.363
312.011
54.7001
-162.768
-346.271
-501.565
-627.353
-721.447
-785.881
-827.123
-853.823
-872.996
-889.391
-900.264
-902.035
-883.966
-834.956
-763.186
-678.998
-591.942
-525.663
-473.636
-512.609
-579.675
-536.353
-474.797
-412.732
-339.658
-264.692
-205.004
-155.239
-93.9828
1.44971
127.733
267.531
387.871
459.663
479.673
479.613
510.083
585.694
705.918
835.571
907.322
572.066
275.567
21.6387
-191.261
-370.839
-523.553
-647.198
-737.686
-796.987
-833.013
-855.816
-872.995
-887.343
-900.923
-906.033
-892.089
-844.152
-763.148
-653.428
-535.956
-449.623
-387.546
-428.281
-496.45
-495.648
-453.557
-400.735
-327.555
-256.062
-203.427
-162.783
-106.697
-8.96835
125.088
279.092
407.769
478.786
487.875
474.634
499.4
575.169
705.031
844.037
972.552
690.905
458.576
281.59
155.654
67.0127
3.85262
-39.3046
-66.1657
-79.9294
-84.3649
-81.0134
-76.7421
-78.9068
-88.6233
-97.1669
-98.8121
-76.6844
-30.7122
24.6706
82.7894
129.628
180.236
273.133
288.219
287.606
290.919
273.859
267.333
267.712
255.247
248.485
273.252
337.8
435.115
547.152
638.703
681.705
677.701
661.754
678.331
741.912
830.085
930.71
1253.97
1024.91
837.668
694.454
591.052
514.809
457.173
415.309
388.127
373.681
368.507
369.338
370.442
366.961
357.728
349.589
349.013
370.339
411.955
465.97
520.682
560.62
596.895
641.855
639.601
650.912
671.905
676.583
687.852
694.852
683.156
672.79
691.309
747.14
835.222
937.033
1024.88
1061.66
1047.53
1021.09
1022.48
1074.06
1157.86
1246.22
307.371
193.109
116.456
71.0768
47.7086
37.0913
33.7319
34.2553
34.7653
35.0748
35.977
37.2323
37.9086
36.1206
33.2557
31.2851
30.4622
31.448
35.1339
41.7386
50.0586
58.6736
56.5183
73.9826
95.756
135.332
172.767
184.035
184.601
164.058
122.555
92.9129
95.9269
114.616
138.361
157.188
181.566
193.079
178.534
159.77
147.525
153.469
146.697
160.083
0.766819
0.811477
0.897069
1.0507
1.21104
1.30097
1.26453
1.21822
1.19049
1.12924
1.0443
0.964559
0.92572
0.921309
0.958735
0.996783
0.993557
0.918323
0.77472
0.595531
0.460534
0.388333
0.359689
0.265433
0.142832
0.163634
0.150601
0.0579861
0.0404599
0.0872514
0.188681
0.314614
0.29302
0.258072
0.197648
-0.0460164
-0.204774
-0.241729
-0.137626
0.0272771
0.0835498
-0.0115246
-0.263932
-0.571326
0.732528
0.803188
0.887645
1.03326
1.17939
1.24862
1.2184
1.17912
1.15277
1.09912
1.02354
0.95248
0.897725
0.890296
0.918804
0.958177
0.969771
0.941536
0.813919
0.638914
0.484012
0.465394
0.615232
0.4259
0.0482096
0.00711138
0.0442576
-0.0350412
-0.0890439
-0.141061
-0.0491699
0.234033
0.312812
0.429333
0.411258
0.160316
-0.117226
-0.200813
-0.134851
-0.00491528
0.0259972
-0.0685376
-0.278217
-0.477805
0.652305
0.711304
0.812815
0.946515
1.0817
1.16147
1.1569
1.13291
1.11039
1.06211
0.997195
0.934425
0.899547
0.89362
0.917339
0.937236
0.923327
0.83572
0.732552
0.590027
0.478881
0.406118
0.35859
0.284399
0.171442
0.162173
0.147129
0.0730061
0.0563688
0.067683
0.13776
0.246314
0.247085
0.21542
0.163951
-0.0122331
-0.13023
-0.166247
-0.111306
-0.0152331
0.00904588
-0.0640159
-0.250636
-0.433757
0.599274
0.677006
0.774747
0.903819
1.02095
1.09381
1.1038
1.09
1.0717
1.03152
0.976082
0.921687
0.88523
0.875247
0.882685
0.895816
0.888772
0.864701
0.765213
0.631725
0.511613
0.463854
0.525295
0.384412
0.137748
0.0806275
0.0842887
0.0310234
-0.00464778
-0.0186053
0.0414783
0.206786
0.259762
0.352518
0.304045
0.136772
-0.0490738
-0.124022
-0.101738
-0.03574
-0.0243025
-0.0975592
-0.255906
-0.3857
0.54207
0.625875
0.720453
0.841714
0.954842
1.02944
1.05232
1.04845
1.03453
1.00075
0.952882
0.906275
0.872549
0.864386
0.874537
0.880531
0.859713
0.787087
0.6766
0.573985
0.484579
0.412393
0.347584
0.290375
0.188712
0.162214
0.142391
0.0839002
0.0694579
0.069895
0.117605
0.201294
0.207563
0.160116
0.139273
0.00703133
-0.0790497
-0.112874
-0.0919199
-0.0425123
-0.037117
-0.0970092
-0.227968
-0.349158
0.482292
0.575117
0.671363
0.788401
0.896137
0.970518
1.00317
1.00778
0.998283
0.971072
0.931324
0.890152
0.863402
0.850681
0.847272
0.8437
0.826017
0.787884
0.72681
0.628159
0.519283
0.459011
0.476022
0.357619
0.203179
0.131215
0.11212
0.0732405
0.0474228
0.0502433
0.0892912
0.185234
0.218471
0.291252
0.242456
0.119464
-0.0135504
-0.0783721
-0.0806104
-0.0498596
-0.0541416
-0.111617
-0.223279
-0.3179
0.426546
0.526367
0.626949
0.738407
0.840066
0.914576
0.95569
0.968814
0.964335
0.942701
0.90943
0.872856
0.846658
0.835693
0.833721
0.829068
0.805448
0.751858
0.648922
0.554961
0.482622
0.4123
0.335597
0.293326
0.209165
0.169869
0.147442
0.105808
0.0864622
0.0858499
0.113138
0.173196
0.178107
0.139065
0.102744
0.0223766
-0.0425575
-0.0754024
-0.0751453
-0.0555582
-0.064985
-0.115657
-0.209784
-0.291266
0.372617
0.47716
0.583121
0.690869
0.788176
0.86297
0.910434
0.930997
0.93088
0.914653
0.887314
0.855798
0.833303
0.820247
0.811194
0.798126
0.774181
0.729399
0.681898
0.60585
0.514207
0.452264
0.446531
0.345414
0.231804
0.170862
0.137187
0.102363
0.0816924
0.0838263
0.111746
0.164811
0.186037
0.234226
0.199382
0.101185
0.00321912
-0.0517233
-0.0663365
-0.0578282
-0.0722541
-0.118156
-0.197832
-0.268071
0.32113
0.429255
0.538718
0.647295
0.739101
0.814152
0.867689
0.894637
0.899519
0.888022
0.865609
0.837889
0.816971
0.80411
0.794962
0.782685
0.758249
0.709714
0.622772
0.548317
0.477359
0.409801
0.336874
0.291284
0.226096
0.181439
0.156093
0.123493
0.104977
0.101066
0.117958
0.155145
0.15841
0.128933
0.0906895
0.0356114
-0.0156297
-0.048911
-0.0618717
-0.060443
-0.0781724
-0.120667
-0.189611
-0.249052
0.27039
0.382316
0.494253
0.60599
0.694605
0.770104
0.827908
0.859394
0.868832
0.861662
0.843778
0.819953
0.801635
0.78795
0.775491
0.756029
0.729781
0.687276
0.637949
0.568739
0.501333
0.443417
0.418686
0.337051
0.248104
0.191091
0.157247
0.124903
0.105688
0.103211
0.119834
0.149027
0.160314
0.184625
0.15541
0.080947
0.00908499
-0.0355467
-0.0556473
-0.0604997
-0.081
-0.119568
-0.178833
-0.231453
0.220452
0.33609
0.450643
0.564472
0.65545
0.728216
0.790719
0.826227
0.839781
0.836672
0.822455
0.801858
0.785157
0.771328
0.757765
0.741635
0.711691
0.669502
0.611519
0.540964
0.469537
0.405974
0.341098
0.292816
0.23888
0.195969
0.166654
0.138181
0.120173
0.114063
0.122137
0.143043
0.144775
0.125764
0.0923671
0.0486882
0.00318273
-0.0310952
-0.0516415
-0.0610376
-0.0829902
-0.119412
-0.170895
-0.216672
0.170947
0.290198
0.40764
0.52353
0.62033
0.691821
0.757273
0.795001
0.811856
0.81198
0.800945
0.783811
0.768735
0.75485
0.740199
0.721373
0.691083
0.650878
0.598342
0.541372
0.486854
0.432961
0.394904
0.328421
0.256115
0.204967
0.171201
0.141752
0.123497
0.116473
0.124001
0.138522
0.141183
0.145
0.118908
0.064483
0.0119398
-0.0241346
-0.0471586
-0.0601429
-0.0834295
-0.117469
-0.162743
-0.203564
0.122066
0.244777
0.365798
0.484403
0.588258
0.659803
0.725388
0.765828
0.78546
0.788488
0.780187
0.765952
0.752032
0.738162
0.722762
0.702897
0.673456
0.634603
0.584525
0.525915
0.457923
0.400877
0.343952
0.296301
0.248243
0.207428
0.176645
0.150011
0.131945
0.123637
0.125152
0.134487
0.133363
0.122407
0.094025
0.0555449
0.0132865
-0.0197499
-0.0435783
-0.0592419
-0.0829598
-0.114851
-0.154749
-0.191652
0.073789
0.199433
0.324271
0.446765
0.554484
0.63147
0.697728
0.738909
0.760192
0.765585
0.759703
0.748022
0.735316
0.721681
0.705825
0.685222
0.656247
0.618427
0.571072
0.518211
0.469104
0.420686
0.376144
0.319857
0.260431
0.213977
0.18116
0.154123
0.135827
0.126051
0.126011
0.131119
0.128132
0.120007
0.0949468
0.0562269
0.0159962
-0.0156596
-0.0401926
-0.0579027
-0.0819187
-0.112219
-0.148402
-0.181429
0.0258871
0.154348
0.283313
0.410853
0.521624
0.609435
0.669919
0.713248
0.736221
0.743688
0.740052
0.730272
0.718588
0.705195
0.689049
0.668145
0.639728
0.603261
0.558385
0.507921
0.452223
0.394917
0.344462
0.298922
0.254567
0.215704
0.184936
0.159303
0.14091
0.130364
0.127127
0.128239
0.123377
0.113194
0.089008
0.0547392
0.0178337
-0.0123042
-0.037125
-0.056252
-0.0801151
-0.1086
-0.141498
-0.17208
-0.0223014
0.109105
0.24306
0.375877
0.490709
0.585364
0.644103
0.69048
0.71359
0.722472
0.720737
0.712704
0.701991
0.688964
0.67274
0.651712
0.623851
0.588615
0.545899
0.49831
0.450026
0.407422
0.361533
0.312058
0.262339
0.219853
0.188386
0.162933
0.144267
0.132428
0.127311
0.125729
0.119154
0.107874
0.0847396
0.0533899
0.0192576
-0.00951527
-0.034347
-0.0545059
-0.078219
-0.105532
-0.135677
-0.163584
-0.0713116
0.0629565
0.203048
0.342207
0.459591
0.561045
0.621671
0.66847
0.691755
0.702048
0.701961
0.695454
0.685564
0.672857
0.656674
0.635762
0.608543
0.574557
0.533908
0.488681
0.440376
0.387531
0.342757
0.299164
0.258223
0.221263
0.19117
0.166333
0.147476
0.135007
0.127802
0.123679
0.115608
0.103328
0.0811576
0.0521961
0.0204297
-0.00711386
-0.0317283
-0.0525188
-0.0757994
-0.101686
-0.129659
-0.155645
-0.120918
0.0166827
0.163606
0.309235
0.431076
0.537962
0.599159
0.648299
0.671298
0.682467
0.683667
0.678353
0.669317
0.657016
0.641019
0.620326
0.593767
0.560989
0.522221
0.47927
0.434583
0.393559
0.349666
0.305221
0.262182
0.223634
0.193543
0.169012
0.14994
0.136501
0.127795
0.121841
0.112381
0.0993086
0.078062
0.050976
0.0213058
-0.00510931
-0.0293399
-0.0505188
-0.073413
-0.098306
-0.124315
-0.148419
-0.171359
-0.0303308
0.123523
0.277067
0.403606
0.511493
0.579643
0.629228
0.651495
0.663481
0.665797
0.661583
0.653301
0.641406
0.625659
0.605309
0.579466
0.547883
0.510865
0.469966
0.426903
0.382375
0.338957
0.297806
0.259417
0.224413
0.195437
0.171277
0.152046
0.138046
0.127893
0.120085
0.109723
0.0959465
0.075385
0.0499436
0.0220652
-0.00332708
-0.0270746
-0.0483912
-0.0707473
-0.0944789
-0.118926
-0.141625
-0.223212
-0.0779251
0.084027
0.246259
0.373453
0.487049
0.561401
0.610181
0.63262
0.645235
0.648425
0.645165
0.637516
0.626074
0.610658
0.590718
0.565608
0.535181
0.499798
0.460809
0.419877
0.379655
0.339399
0.299111
0.260658
0.225601
0.196911
0.173007
0.153661
0.138935
0.127663
0.11848
0.10729
0.0929756
0.0729681
0.0489124
0.0226379
-0.00179939
-0.0249935
-0.0462765
-0.0681355
-0.0909781
-0.114015
-0.135304
-0.275355
-0.12529
0.0450801
0.213055
0.348219
0.467569
0.542487
0.592697
0.614597
0.627541
0.631473
0.628998
0.622018
0.611014
0.595978
0.576509
0.552156
0.522856
0.489006
0.451791
0.412643
0.372692
0.332924
0.294626
0.258691
0.225917
0.197942
0.174376
0.154967
0.1398
0.127583
0.117074
0.105139
0.0903754
0.0709533
0.0480495
0.0231517
-0.000412412
-0.023014
-0.0441073
-0.0654039
-0.0872903
-0.109103
-0.129288
-0.330121
-0.174891
0.00365645
0.181604
0.327379
0.44189
0.523705
0.575528
0.597016
0.610384
0.614946
0.613195
0.606765
0.596224
0.581611
0.562661
0.539075
0.510869
0.478464
0.442906
0.405506
0.367713
0.330217
0.293243
0.258228
0.226073
0.198662
0.175329
0.15588
0.140185
0.127137
0.115712
0.103092
0.0880208
0.069112
0.0472157
0.0235606
0.000819258
-0.0211743
-0.0419803
-0.0627426
-0.0838327
-0.104571
-0.123679
-0.386749
-0.225929
-0.0376489
0.156314
0.299259
0.417925
0.508754
0.558717
0.580254
0.59376
0.598821
0.597726
0.591802
0.581717
0.567553
0.549154
0.526342
0.499199
0.468157
0.434155
0.398361
0.361894
0.32522
0.289978
0.256549
0.225744
0.19897
0.175953
0.156539
0.140516
0.126883
0.114482
0.101347
0.0860311
0.06755
0.0465152
0.0239334
0.00195462
-0.0194233
-0.0398421
-0.0600471
-0.080309
-0.100075
-0.118327
-0.441821
-0.27263
-0.0737213
0.123506
0.27067
0.402065
0.491685
0.541674
0.563667
0.577511
0.583072
0.582423
0.577104
0.56749
0.553793
0.535967
0.51393
0.487817
0.458067
0.42553
0.39127
0.356331
0.321624
0.287394
0.25508
0.225209
0.199048
0.176276
0.156903
0.140508
0.126261
0.113284
0.0996713
0.0842035
0.0661324
0.0458612
0.0242492
0.00299727
-0.0177727
-0.0377678
-0.0574367
-0.0769871
-0.0958881
-0.11328
-0.504987
-0.325454
-0.117295
0.0884624
0.253799
0.378344
0.471719
0.525866
0.547972
0.5618
0.56776
0.567649
0.562688
0.553534
0.540324
0.523083
0.501818
0.476703
0.448181
0.417027
0.384201
0.350634
0.317116
0.284273
0.25314
0.22427
0.198733
0.176318
0.157035
0.140408
0.125866
0.112181
0.0981996
0.0826242
0.064912
0.0453072
0.0245464
0.00397073
-0.0161977
-0.0357143
-0.0548304
-0.0736519
-0.0917647
-0.108423
-0.578166
-0.380099
-0.161006
0.0602625
0.236482
0.359708
0.458885
0.509456
0.532263
0.546334
0.552621
0.553085
0.548576
0.539853
0.527131
0.510486
0.489987
0.465839
0.438486
0.408639
0.377183
0.344984
0.312851
0.281254
0.251164
0.223193
0.198266
0.176112
0.156929
0.140069
0.125107
0.111066
0.0967811
0.0811682
0.0637961
0.0447991
0.0248098
0.00488411
-0.0146991
-0.0337346
-0.0523221
-0.0705115
-0.0878962
-0.103849
-0.649303
-0.429644
-0.20178
0.035629
0.20639
0.345377
0.44261
0.492941
0.516891
0.531333
0.537913
0.538685
0.534699
0.526433
0.514209
0.498164
0.478418
0.455209
0.42897
0.400365
0.370196
0.339256
0.308265
0.277856
0.248811
0.221755
0.197445
0.175656
0.156615
0.139612
0.12453
0.110045
0.0955095
0.0798962
0.0628233
0.0443661
0.0250668
0.00575103
-0.0132649
-0.031793
-0.0498368
-0.0673827
-0.0841035
-0.0994642
-0.718671
-0.476582
-0.241111
-0.000273337
0.182697
0.322464
0.423211
0.478761
0.501909
0.51662
0.523538
0.524716
0.521102
0.513272
0.501546
0.486101
0.467097
0.444795
0.419622
0.392196
0.36326
0.33356
0.303772
0.274585
0.246464
0.220242
0.196489
0.175042
0.156084
0.139006
0.12369
0.108975
0.0942433
0.0787028
0.061922
0.0439686
0.0253002
0.00656935
-0.0118958
-0.0299275
-0.0474586
-0.0644383
-0.0805323
-0.09529
-0.793044
-0.52692
-0.272638
-0.0334937
0.163521
0.30679
0.410848
0.463255
0.487339
0.50226
0.509653
0.511015
0.507772
0.500366
0.489134
0.474285
0.45601
0.434586
0.410433
0.384129
0.356359
0.327813
0.299102
0.270864
0.243756
0.218408
0.195232
0.174171
0.155367
0.138302
0.122902
0.107987
0.093075
0.077641
0.0611244
0.0436271
0.0255333
0.00735645
-0.0105796
-0.0281076
-0.0451158
-0.0615218
-0.0770449
-0.0912694
-0.868428
-0.578356
-0.307962
-0.05808
0.141115
0.290939
0.396729
0.448432
0.47339
0.488238
0.495999
0.497596
0.494693
0.487704
0.476963
0.462703
0.445144
0.42457
0.401394
0.37616
0.349506
0.322088
0.294483
0.267486
0.241129
0.216519
0.193863
0.173156
0.154488
0.137494
0.121973
0.106956
0.0919021
0.0766288
0.0603765
0.0433081
0.0257454
0.00809851
-0.00932386
-0.0263636
-0.0428813
-0.0587718
-0.0737483
-0.0874604
-0.941236
-0.629362
-0.34242
-0.080679
0.124746
0.274719
0.380267
0.434162
0.460022
0.474912
0.482418
0.484415
0.481857
0.475278
0.465024
0.451347
0.434486
0.414735
0.392496
0.368285
0.342691
0.316327
0.289721
0.263313
0.238154
0.214356
0.192245
0.171911
0.153461
0.136578
0.121009
0.1059
0.0908372
0.0756931
0.059696
0.0430286
0.0259587
0.00881754
-0.00811251
-0.0246683
-0.0406934
-0.0560674
-0.0705377
-0.0837886
-1.00889
-0.677497
-0.374223
-0.103127
0.110257
0.263132
0.369092
0.420087
0.446575
0.461679
0.469193
0.471485
0.469258
0.463081
0.453307
0.440205
0.424027
0.405073
0.383734
0.360499
0.335923
0.310585
0.28501
0.259923
0.235302
0.212139
0.190521
0.170559
0.15231
0.135573
0.119967
0.104794
0.0898217
0.0747866
0.0590479
0.0427604
0.0261521
0.00949368
-0.00695821
-0.023047
-0.0386057
-0.0535068
-0.0674955
-0.0802922
-1.07302
-0.721062
-0.403468
-0.123961
0.0956183
0.252683
0.357478
0.406725
0.433446
0.448387
0.456237
0.45879
0.456888
0.451105
0.441805
0.429268
0.413756
0.395573
0.375099
0.352799
0.329192
0.30482
0.280179
0.255835
0.232094
0.209676
0.188599
0.169028
0.151027
0.13447
0.118866
0.103703
0.0888083
0.0739085
0.0584349
0.0425149
0.0263423
0.0101467
-0.00584566
-0.0214765
-0.0365763
-0.051009
-0.064543
-0.0769273
-1.12757
-0.75734
-0.428424
-0.143614
0.0821549
0.241486
0.347184
0.393856
0.420625
0.435492
0.443552
0.44633
0.444739
0.439343
0.430509
0.418526
0.403664
0.386228
0.366586
0.345183
0.322507
0.299071
0.275366
0.251906
0.229011
0.207181
0.186567
0.1674
0.149665
0.133253
0.117706
0.102599
0.0877979
0.0730473
0.0578423
0.0422747
0.0265157
0.0107639
-0.00478389
-0.0199733
-0.0346349
-0.0486319
-0.0617357
-0.0737165
-1.17355
-0.78667
-0.449187
-0.160895
0.0700606
0.230479
0.337885
0.381447
0.408138
0.422955
0.431109
0.434094
0.432804
0.427786
0.419412
0.407972
0.393744
0.37703
0.358189
0.337645
0.315859
0.293309
0.270469
0.247763
0.225599
0.204474
0.184376
0.165639
0.148201
0.131944
0.116492
0.10147
0.0867966
0.0722006
0.0572656
0.0420412
0.0266787
0.0113506
-0.00376776
-0.0185259
-0.0327596
-0.0463289
-0.0590189
-0.0706263
-1.20312
-0.807445
-0.463582
-0.17416
0.0594619
0.221422
0.329059
0.369481
0.39597
0.41071
0.418896
0.422075
0.421074
0.416427
0.408504
0.397597
0.383986
0.367972
0.349903
0.330185
0.309255
0.287565
0.265579
0.243667
0.222327
0.201731
0.1821
0.163801
0.146635
0.130549
0.115235
0.1003
0.0857936
0.0713632
0.0566973
0.0418074
0.0268263
0.0119089
-0.00279258
-0.0171389
-0.0309632
-0.0441287
-0.05643
-0.0676749
-1.21479
-0.814821
-0.470418
-0.183027
0.0514569
0.214458
0.320566
0.35788
0.38405
0.398687
0.406891
0.410259
0.409539
0.40526
0.39778
0.387395
0.374386
0.359049
0.341724
0.322797
0.302686
0.281815
0.260629
0.239444
0.218738
0.198814
0.179698
0.161818
0.144952
0.129073
0.113952
0.0990918
0.0847922
0.0705367
0.0561325
0.0415692
0.0269558
0.0124289
-0.00187157
-0.0158109
-0.0292374
-0.0420083
-0.0539308
-0.0648398
-1.21326
-0.817529
-0.472224
-0.187671
0.0456362
0.208757
0.312166
0.346656
0.37235
0.386871
0.395089
0.398637
0.398195
0.394276
0.387232
0.377358