/*--------------------------------*- C++ -*----------------------------------*\
| =========                 |                                                 |
| \\      /  F ield         | OpenFOAM: The Open Source CFD Toolbox           |
|  \\    /   O peration     | Version:  v1912                                 |
|   \\  /    A nd           | Website:  www.openfoam.com                      |
|    \\/     M anipulation  |                                                 |
\*---------------------------------------------------------------------------*/
FoamFile
{
    version     2.0;
    format      ascii;
    class       volScalarField;
    location    "50";
    object      alpha.water;
}
// * * * * * * * * * * * * * * * * * * * * * * * * * * * * * * * * * * * * * //

dimensions      [0 0 0 0 0 0 0];


internalField   nonuniform List<scalar> 
14268
(
1
1
1
1
1
1
1
1
1
1
1
1
1
1
1
1
1
1
1
1
1
1
1
1
1
1
1
1
1
1
1
1
1
1
1
1
1
1
1
1
1
1
1
1
1
1
1
1
1
1
1
1
1
1
1
1
1
1
1
1
1
1
1
1
1
1
1
1
1
1
1
1
1
1
1
1
1
1
1
1
1
1
1
1
1
1
1
1
1
1
1
1
1
1
1
1
1
1
1
1
1
1
1
1
1
1
1
1
1
1
1
1
1
1
1
1
1
1
1
1
1
1
1
1
1
1
1
1
1
1
1
1
1
1
1
1
1
1
1
1
1
1
1
1
1
1
1
1
1
1
1
1
1
1
1
1
1
1
1
1
1
1
1
1
1
1
1
1
1
1
1
1
1
1
1
1
1
1
1
1
1
1
1
1
1
1
1
1
1
1
1
1
1
1
1
1
1
1
1
1
1
1
1
1
1
1
1
1
1
1
1
1
1
1
1
1
1
1
1
1
1
1
1
1
1
1
1
1
1
1
1
1
1
1
1
1
1
1
1
1
1
1
1
1
1
1
1
1
1
1
1
1
1
1
1
1
1
1
1
1
1
1
1
1
1
1
1
1
1
1
1
1
1
1
1
1
1
1
1
1
1
1
1
1
1
1
1
1
1
1
1
1
1
1
1
1
1
1
1
1
1
1
1
1
1
1
1
1
1
1
1
1
1
1
1
1
1
1
1
1
1
1
1
1
1
1
1
1
1
1
1
1
1
1
1
1
1
1
1
1
1
1
1
1
1
1
1
1
1
1
1
1
1
1
1
1
1
1
1
1
1
1
1
1
1
1
1
1
1
1
1
1
1
1
1
1
1
1
1
1
1
1
1
1
1
1
1
1
1
1
1
1
1
1
1
1
1
1
1
1
1
1
1
1
1
1
1
1
1
1
1
1
1
1
1
1
1
1
1
1
1
1
1
1
1
1
1
1
1
1
1
1
1
1
1
1
1
1
1
1
1
1
1
1
1
1
1
1
1
1
1
1
1
1
1
1
1
1
1
1
1
1
1
1
1
1
1
1
1
1
1
1
1
1
1
1
1
1
1
1
1
1
1
1
1
1
1
1
1
1
1
1
1
1
1
1
1
1
1
1
1
1
1
1
1
1
1
1
1
1
1
1
1
1
1
1
1
1
1
1
1
1
1
1
1
1
1
1
1
1
1
1
1
1
1
1
1
1
1
1
1
1
1
1
1
1
1
1
1
1
1
1
1
1
1
1
1
1
1
1
1
1
1
1
1
1
1
1
1
1
1
1
1
1
1
1
1
1
1
1
1
1
1
1
1
1
1
1
1
1
1
1
1
1
1
1
1
1
1
1
1
1
1
1
1
1
1
1
1
1
1
1
1
1
1
1
1
1
1
1
1
1
1
1
1
1
1
1
1
1
1
1
1
1
1
1
1
1
1
1
1
1
1
1
1
1
1
1
1
1
1
1
1
1
1
1
1
1
1
1
1
1
1
1
1
1
1
1
1
1
1
1
1
1
1
1
1
1
1
1
1
1
1
1
1
1
1
1
1
1
1
1
1
1
1
1
1
1
1
1
1
1
1
1
1
1
1
1
1
1
1
1
1
1
1
1
1
1
1
1
1
1
1
1
1
1
1
1
1
1
1
1
1
1
1
1
1
1
1
1
1
1
1
1
1
1
1
1
1
1
1
1
1
1
1
1
1
1
1
1
1
1
1
1
1
1
1
1
1
1
1
1
1
1
1
1
1
1
1
1
1
1
1
1
1
1
1
1
1
1
1
1
1
1
1
1
1
1
1
1
1
1
1
1
1
1
1
1
1
1
1
1
1
1
1
1
1
1
1
1
1
1
1
1
1
1
1
1
1
1
1
1
1
1
1
1
1
1
1
1
1
1
1
1
1
1
1
1
1
1
1
1
1
1
1
1
1
1
1
1
1
1
1
1
1
1
1
1
1
1
1
1
1
1
1
1
1
1
1
1
1
1
1
1
1
1
1
1
1
1
1
1
1
1
1
1
1
1
1
1
1
1
1
1
1
1
1
1
1
1
1
1
1
1
1
1
1
1
1
1
1
1
1
1
1
1
1
1
1
1
1
1
1
1
1
1
1
1
1
1
1
1
1
1
1
1
1
1
1
1
1
1
1
1
1
1
1
1
1
1
1
1
1
1
1
1
1
1
1
1
1
1
1
1
1
1
1
1
1
1
1
1
1
1
1
1
1
1
1
1
1
1
1
1
1
1
1
1
1
1
1
1
1
1
1
1
1
1
1
1
1
1
1
1
1
1
1
1
1
1
1
1
1
1
1
1
1
1
1
1
1
1
1
1
1
1
1
1
1
1
1
1
1
1
1
1
1
1
1
1
1
1
1
1
1
1
1
1
1
1
1
1
1
1
1
1
1
1
1
1
1
1
1
1
1
1
1
1
1
1
1
1
1
1
1
1
1
1
1
1
1
1
1
1
1
1
1
1
1
1
1
1
1
1
1
1
1
1
1
1
1
1
1
1
1
1
1
1
1
1
1
1
1
1
1
1
1
1
1
1
1
1
1
1
1
1
1
1
1
1
1
1
1
1
1
1
1
1
1
1
1
1
1
1
1
1
1
1
1
1
1
1
1
1
1
1
1
1
1
1
1
1
1
1
1
1
1
1
1
1
1
1
1
1
1
1
1
1
1
1
1
1
1
1
1
1
1
1
1
1
1
1
1
1
1
1
1
1
1
1
1
1
1
1
1
1
1
1
1
1
1
1
1
1
1
1
1
1
1
1
1
1
1
1
1
1
1
1
1
1
1
1
1
1
1
1
1
1
1
1
1
1
1
1
1
1
1
1
1
1
1
1
1
1
1
1
1
1
1
1
1
1
1
1
1
1
1
1
1
1
1
1
1
1
1
1
1
1
1
1
1
1
1
1
1
1
1
1
1
1
1
1
1
1
1
1
1
1
1
1
1
1
1
1
1
1
1
1
1
1
1
1
1
1
1
1
1
1
1
1
1
1
1
1
1
1
1
1
1
1
1
1
1
1
1
1
1
1
1
1
1
1
1
1
1
1
1
1
1
1
1
1
1
1
1
1
1
1
1
1
1
1
1
1
1
1
1
1
1
1
1
1
1
1
1
1
1
1
1
1
1
1
1
1
1
1
1
1
1
1
1
1
1
1
1
1
1
1
1
1
1
1
1
1
1
1
1
1
1
1
1
1
1
1
1
1
1
1
1
1
1
1
1
1
1
1
1
1
1
1
1
1
1
1
1
1
1
1
1
1
1
1
1
1
1
1
1
1
1
1
1
1
1
1
1
1
1
1
1
1
1
1
1
1
1
1
1
1
1
1
1
1
1
1
1
1
1
1
1
1
1
1
1
1
1
1
1
1
1
1
1
1
1
1
1
1
1
1
1
1
1
1
1
1
1
1
1
1
1
1
1
1
1
1
1
1
1
1
1
1
1
1
1
1
1
1
1
1
1
1
1
1
1
1
1
1
1
1
1
1
1
1
1
1
1
1
1
1
1
1
1
1
1
1
1
1
1
1
1
1
1
1
1
1
1
1
1
1
1
1
1
1
1
1
1
1
1
1
1
1
1
1
1
1
1
1
1
1
1
1
1
1
1
1
1
1
1
1
1
1
1
1
1
1
1
1
1
1
1
1
1
1
1
1
1
1
1
1
1
1
1
1
1
1
1
1
1
1
1
1
1
1
1
1
1
1
1
1
1
1
1
1
1
1
1
1
1
1
1
1
1
1
1
1
1
1
1
1
1
1
1
1
1
1
1
1
1
1
1
1
1
1
1
1
1
1
1
1
1
1
1
1
1
1
1
1
1
1
1
1
1
1
1
1
1
1
1
1
1
1
1
1
1
1
1
1
1
1
1
1
1
1
1
1
1
1
1
1
1
1
1
1
1
1
1
1
1
1
1
1
1
1
1
1
1
1
1
1
1
1
1
1
1
1
1
1
1
1
1
1
1
1
1
1
1
1
1
1
1
1
1
1
1
1
1
1
1
1
1
1
1
1
1
1
1
1
1
1
1
1
1
1
1
1
1
1
1
1
1
1
1
1
1
1
1
1
1
1
1
1
1
1
1
1
1
1
1
1
1
1
1
1
1
1
1
1
1
1
1
1
1
1
1
1
1
1
1
1
1
1
1
1
1
1
1
1
1
1
1
1
1
1
1
1
1
1
1
1
1
1
1
1
1
1
1
1
1
1
1
1
1
1
1
1
1
1
1
1
1
1
1
1
1
1
1
1
1
1
1
1
1
1
1
1
1
1
1
1
1
1
1
1
1
1
1
1
1
1
1
1
1
1
1
1
1
1
1
1
1
1
1
1
1
1
1
1
1
1
1
1
1
1
1
1
1
1
1
1
1
1
1
1
1
1
1
1
1
1
1
1
1
1
1
1
1
1
1
1
1
1
1
1
1
1
1
1
1
1
1
1
1
1
1
1
1
1
1
1
1
1
1
1
1
1
1
1
1
1
1
1
1
1
1
1
1
1
1
1
1
1
1
1
1
1
1
1
1
1
1
1
1
1
1
1
1
1
1
1
1
1
1
1
1
1
1
1
1
1
1
1
1
1
1
1
1
1
1
1
1
1
1
1
1
1
1
1
1
1
1
1
1
1
1
1
1
1
1
1
1
1
1
1
1
1
1
1
1
1
1
1
1
1
1
1
1
1
1
1
1
1
1
1
1
1
1
1
1
1
1
1
1
1
1
1
1
1
1
1
1
1
1
1
1
1
1
1
1
1
1
1
1
1
1
1
1
1
1
1
1
1
1
1
1
1
1
1
1
1
1
1
1
1
1
1
1
1
1
1
1
1
1
1
1
1
1
1
1
1
1
1
1
1
1
1
1
1
1
1
1
1
1
1
1
1
1
1
1
1
1
1
1
1
1
1
1
1
1
1
1
1
1
1
1
1
1
1
1
1
1
1
1
1
1
1
1
1
1
1
1
1
1
1
1
1
1
1
1
1
1
1
1
1
1
1
1
1
1
1
1
1
1
1
1
1
1
1
1
1
1
1
1
1
1
1
1
1
1
1
1
1
1
1
1
1
1
1
1
1
1
1
1
1
1
1
1
1
1
1
1
1
1
1
1
1
1
1
1
1
1
1
1
1
1
1
1
1
1
1
1
1
1
1
1
1
1
1
1
1
1
1
1
1
1
1
1
1
1
1
1
1
1
1
1
1
1
1
1
1
1
1
1
1
1
1
1
1
1
1
1
1
1
1
1
1
1
1
1
1
1
1
1
1
1
1
1
1
1
1
1
1
1
1
1
1
1
1
1
1
1
1
1
1
1
1
1
1
1
1
1
1
1
1
1
1
1
1
1
1
1
1
1
1
1
1
1
1
1
1
1
1
1
1
1
1
1
1
1
1
1
1
1
1
1
1
1
1
1
1
1
1
1
1
1
1
1
1
1
1
1
1
1
1
1
1
1
1
1
1
1
1
1
1
1
1
1
1
1
1
1
1
1
1
1
1
1
1
1
1
1
1
1
1
1
1
1
1
1
1
1
1
1
1
1
1
1
1
1
1
1
1
1
1
1
1
1
1
1
1
1
1
1
1
1
1
1
1
1
1
1
1
1
1
1
1
1
1
1
1
1
1
1
1
1
1
1
1
1
1
1
1
1
1
1
1
1
1
1
1
1
1
1
1
1
1
1
1
1
1
1
1
1
1
1
1
1
1
1
1
1
1
1
1
1
1
1
1
1
1
1
1
1
1
1
1
1
1
1
1
1
1
1
1
1
1
1
1
1
1
1
1
1
1
1
1
1
1
1
1
1
1
1
1
1
1
1
1
1
1
1
1
1
1
1
1
1
1
1
1
1
1
1
1
1
1
1
1
1
1
1
1
1
1
1
1
1
1
1
1
1
1
1
1
1
1
1
1
1
1
1
1
1
1
1
1
1
1
1
1
1
1
1
1
1
1
1
1
1
1
1
1
1
1
1
1
1
1
1
1
1
1
1
1
1
1
1
1
1
1
1
1
1
1
1
1
1
1
1
1
1
1
1
1
1
1
1
1
1
1
1
1
1
1
1
1
1
1
1
1
1
1
1
1
1
1
1
1
1
1
1
1
1
1
1
1
1
1
1
1
1
1
1
1
1
1
1
1
1
1
1
1
1
1
1
1
1
1
1
1
1
1
1
1
1
1
1
1
1
1
1
1
1
1
1
1
1
1
1
1
1
1
1
1
1
1
1
1
1
1
1
1
1
1
1
1
1
1
1
1
1
1
1
1
1
1
1
1
1
1
1
1
1
1
1
1
1
1
1
1
1
1
1
1
1
1
1
1
1
1
1
1
1
1
1
1
1
1
1
1
1
1
1
1
1
1
1
1
1
1
1
1
1
1
1
1
1
1
1
1
1
1
1
1
1
1
1
1
1
1
1
1
1
1
1
1
1
1
1
1
1
1
1
1
1
1
1
1
1
1
1
1
1
1
1
1
1
1
1
1
1
1
1
1
1
1
1
1
1
1
1
1
1
1
1
1
1
1
1
1
1
1
1
1
1
1
1
1
1
1
1
1
1
1
1
1
1
1
1
1
1
1
1
1
1
1
1
1
1
1
1
1
1
1
1
1
1
1
1
1
1
1
1
1
1
1
1
1
1
1
1
1
1
1
1
1
1
1
1
1
1
1
1
1
1
1
1
1
1
1
1
1
1
1
1
1
1
1
1
1
1
1
1
1
1
1
1
1
1
1
1
1
1
1
1
1
1
1
1
1
1
1
1
1
1
1
1
1
1
1
1
1
1
1
1
1
1
1
1
1
1
1
1
1
1
1
1
1
1
1
1
1
1
1
1
1
1
1
1
1
1
1
1
1
1
1
1
1
1
1
1
1
1
1
1
1
1
1
1
1
1
1
1
1
1
1
1
1
1
1
1
1
1
1
1
1
1
1
1
1
1
1
1
1
1
1
1
1
1
1
1
1
1
1
1
1
1
1
1
1
1
1
1
1
1
1
1
1
1
1
1
1
1
1
1
1
1
1
1
1
1
1
1
1
1
1
1
1
1
1
1
1
1
1
1
1
1
1
1
1
1
1
1
1
1
1
1
1
1
1
1
1
1
1
1
1
1
1
1
1
1
1
1
1
1
1
1
1
1
1
1
1
1
1
1
1
1
1
1
1
1
1
1
1
1
1
1
1
1
1
1
1
1
1
1
1
1
1
1
1
1
1
1
1
1
1
1
1
1
1
1
1
1
1
1
1
1
1
1
1
1
1
1
1
1
1
1
1
1
1
1
1
1
1
1
1
1
1
1
1
1
1
1
1
1
1
1
1
1
1
1
1
1
1
1
1
1
1
1
1
1
1
1
1
1
1
1
1
1
1
1
1
1
1
1
1
1
1
1
1
1
1
1
1
1
1
1
1
1
1
1
1
1
1
1
1
1
1
1
1
1
1
1
1
1
1
1
1
1
1
1
1
1
1
1
1
1
1
1
1
1
1
1
1
1
1
1
1
1
1
1
1
1
1
1
1
1
1
1
1
1
1
1
1
1
1
1
1
1
1
1
1
1
1
1
1
1
1
1
1
1
1
1
1
1
1
1
1
1
1
1
1
1
1
1
1
1
1
1
1
1
1
1
1
1
1
1
1
1
1
1
1
1
1
1
1
1
1
1
1
1
1
1
1
1
1
1
1
1
1
1
1
1
1
1
1
1
1
1
1
1
1
1
1
1
1
1
1
1
1
1
1
1
1
1
1
1
1
1
1
1
1
1
1
1
1
1
1
1
1
1
1
1
1
1
1
1
1
1
1
1
1
1
1
1
1
1
1
1
1
1
1
1
1
1
1
1
1
1
1
1
1
1
1
1
1
1
1
1
1
1
1
1
1
1
1
1
1
1
1
1
1
1
1
1
1
1
1
1
1
1
1
1
1
1
1
1
1
1
1
1
1
1
1
1
1
1
1
1
1
1
1
1
1
1
1
1
1
1
1
1
1
1
1
1
1
1
1
1
1
1
1
1
1
1
1
1
1
1
1
1
1
1
1
1
1
1
1
1
1
1
1
1
1
1
1
1
1
1
1
1
1
1
1
1
1
1
1
1
1
1
1
1
1
1
1
1
1
1
1
1
1
1
1
1
1
1
1
1
1
1
1
1
1
1
1
1
1
1
1
1
1
1
1
1
1
1
1
1
1
1
1
1
1
1
1
1
1
1
1
1
1
1
1
1
1
1
1
1
1
1
1
1
1
1
1
1
1
1
1
1
1
1
1
1
1
1
1
1
1
1
1
1
1
1
1
1
1
1
1
1
1
1
1
1
1
1
1
1
1
1
1
1
1
1
1
1
1
1
1
1
1
1
1
1
1
1
1
1
1
1
1
1
1
1
1
1
1
1
1
1
1
1
1
1
1
1
1
1
1
1
1
1
1
1
1
1
1
1
1
1
1
1
1
1
1
1
1
1
1
1
1
1
1
1
1
1
1
1
1
1
1
1
1
1
1
1
1
1
1
1
1
1
1
1
1
1
1
1
1
1
1
1
1
1
1
1
1
1
1
1
1
1
1
1
1
1
1
1
1
1
1
1
1
1
1
1
1
1
1
1
1
1
1
1
1
1
1
1
1
1
1
1
1
1
1
1
1
1
1
1
1
1
1
1
1
1
1
1
1
1
1
1
1
1
1
1
1
1
1
1
1
1
1
1
1
1
1
1
1
1
1
1
1
1
1
1
1
1
1
1
1
1
1
1
1
1
1
1
1
1
1
1
1
1
1
1
1
1
1
1
1
1
1
1
1
1
1
1
1
1
1
1
1
1
1
1
1
1
1
1
1
1
1
1
1
1
1
1
1
1
1
1
1
1
1
1
1
1
1
1
1
1
1
1
1
1
1
1
1
1
1
1
1
1
1
1
1
1
1
1
1
1
1
1
1
1
1
1
1
1
1
1
1
1
1
1
1
1
1
1
1
1
1
1
1
1
1
1
1
1
1
1
1
1
1
1
1
1
1
1
1
1
1
1
1
1
1
1
1
1
1
1
1
1
1
1
1
1
1
1
1
1
1
1
1
1
1
1
1
1
1
1
1
1
1
1
1
1
1
1
1
1
1
1
1
1
1
1
1
1
1
1
1
1
1
1
1
1
1
1
1
1
1
1
1
1
1
1
1
1
1
1
1
1
1
1
1
1
1
1
1
1
1
1
1
1
1
1
1
1
1
1
1
1
1
1
1
1
1
1
1
1
1
1
1
1
1
1
1
1
1
1
1
1
1
1
1
1
1
1
1
1
1
1
1
1
1
1
1
1
1
1
1
1
1
1
1
1
1
1
1
1
1
1
1
1
1
1
1
1
1
1
1
1
1
1
1
1
1
1
1
1
1
1
1
1
1
1
1
1
1
1
1
1
1
1
1
1
1
1
1
1
1
1
1
1
1
1
1
1
1
1
1
1
1
1
1
1
1
1
1
1
1
1
1
1
1
1
1
1
1
1
1
1
1
1
1
1
1
1
1
1
1
1
1
1
1
1
1
1
1
1
1
1
1
1
1
1
1
1
1
1
1
1
1
1
1
1
1
1
1
1
1
1
1
1
1
1
1
1
1
1
1
1
1
1
1
1
1
1
1
1
1
1
1
1
1
1
1
1
1
1
1
1
1
1
1
1
1
1
1
1
1
1
1
1
1
1
1
1
1
1
1
1
1
1
1
1
1
1
1
1
1
1
1
1
1
1
1
1
1
1
1
1
1
1
1
1
1
1
1
1
1
1
1
1
1
1
1
1
1
1
1
1
1
1
1
1
1
1
1
0.999999
0.999999
0.999999
0.999998
0.999997
0.999995
0.999993
0.999991
0.999987
0.999984
0.99998
0.999977
0.999974
0.999972
0.999973
0.999975
0.999979
0.999985
0.999991
0.999996
0.999999
1
1
1
1
1
1
1
1
1
1
1
1
1
1
1
1
1
1
1
1
1
1
1
1
1
1
1
1
1
1
1
1
1
1
1
1
1
1
1
1
1
1
1
1
1
1
1
1
1
1
1
1
1
1
1
1
1
1
1
1
1
1
1
1
1
1
1
1
1
1
1
1
1
1
1
1
1
1
1
1
1
1
1
1
1
1
1
1
1
1
1
1
1
1
1
1
1
1
1
1
1
1
0.999999
0.999999
0.999999
0.999999
0.999998
0.999996
0.999994
0.999991
0.999984
0.999972
0.999952
0.999915
0.999851
0.99974
0.999546
0.999216
0.998657
0.997724
0.996175
0.993638
0.989571
0.983328
0.974259
0.961843
0.945836
0.926392
0.904181
0.880394
0.856642
0.834709
0.816287
0.802883
0.795268
0.793625
0.797386
0.805188
0.816311
0.830072
0.84611
0.864031
0.883236
0.903107
0.922992
0.942176
0.959886
0.975299
0.987564
0.995879
0.999733
1
1
1
1
1
1
1
1
1
1
1
1
1
1
1
1
1
1
1
1
1
1
1
1
1
1
1
1
1
1
1
1
1
1
1
1
1
1
1
1
1
1
1
1
1
1
1
1
1
1
1
1
1
1
0.997151
0.999984
0.999994
0.999993
0.999993
0.999993
0.999993
0.999993
0.999993
0.999993
0.999993
0.999993
0.999994
0.999994
0.999994
0.999994
0.999994
0.999994
0.999994
0.999994
0.999994
0.999994
0.999994
0.999994
0.999994
0.999995
0.999995
0.999994
0.999994
0.999993
0.999991
0.999988
0.999984
0.999978
0.999968
0.999951
0.999924
0.999877
0.999797
0.999657
0.999412
0.998976
0.998196
0.996777
0.994139
0.989127
0.979678
0.962568
0.933234
0.885915
0.815284
0.727125
0.639045
0.554709
0.476461
0.4061
0.34494
0.293748
0.252599
0.220931
0.198005
0.182741
0.173316
0.168583
0.168091
0.172265
0.181556
0.196445
0.217194
0.24371
0.275872
0.313691
0.357132
0.406076
0.460213
0.518993
0.581521
0.646326
0.711003
0.771927
0.823493
0.865891
0.903608
0.936163
0.962821
0.982742
0.99516
0.999891
0.999976
0.999975
0.999974
0.999973
0.999972
0.999972
0.999971
0.999971
0.99997
0.999969
0.999968
0.999967
0.999966
0.999964
0.999964
0.999964
0.999963
0.999963
0.999962
0.999963
0.999964
0.999963
0.999959
0.999952
0.999942
0.99993
0.999911
0.999884
0.999841
0.999767
0.999639
0.999399
0.998971
0.998477
0.99821
0.998007
0.997608
0.99688
0.995635
0.993743
0.99116
0.987677
0.983211
0.978148
0.972884
0.96672
0.725926
0.787915
0.837863
0.880466
0.917796
0.949238
0.973856
0.990625
0.998894
0.999916
0.999913
0.999911
0.999909
0.999909
0.99991
0.99991
0.999912
0.999913
0.999914
0.999915
0.999916
0.999917
0.999918
0.999919
0.99992
0.999921
0.999921
0.999916
0.999907
0.999892
0.999868
0.99983
0.999772
0.999679
0.999531
0.999286
0.998872
0.998155
0.996866
0.994447
0.989684
0.980065
0.960923
0.924253
0.857704
0.751067
0.629491
0.506185
0.388029
0.28326
0.201095
0.144494
0.100833
0.0674822
0.0429479
0.0259053
0.0150049
0.00885818
0.00610087
0.00540729
0.00557029
0.00571304
0.00583087
0.00592521
0.00599666
0.00615705
0.00652656
0.00713649
0.00804195
0.00932451
0.011111
0.0135975
0.0170692
0.0219517
0.0288763
0.0387946
0.0530915
0.0737529
0.103616
0.146491
0.206493
0.278989
0.357886
0.44189
0.529384
0.617933
0.703458
0.779805
0.838678
0.885734
0.924904
0.956043
0.978808
0.993023
0.999101
0.999532
0.999504
0.999478
0.999455
0.999432
0.999411
0.999397
0.999388
0.999383
0.999378
0.99937
0.999368
0.999372
0.999373
0.999348
0.999286
0.999184
0.999037
0.998831
0.998533
0.998098
0.997445
0.996415
0.994763
0.992171
0.988223
0.982535
0.974742
0.963709
0.947497
0.923941
0.890565
0.845809
0.789793
0.730324
0.673018
0.619148
0.569866
0.523054
0.113682
0.163314
0.231317
0.309341
0.393848
0.483372
0.57579
0.667417
0.752284
0.821006
0.873091
0.916143
0.950581
0.97564
0.991392
0.998317
0.99898
0.998948
0.998926
0.998916
0.998915
0.99892
0.998929
0.998942
0.998957
0.998973
0.998968
0.998909
0.998787
0.998581
0.998248
0.997719
0.996866
0.995442
0.992965
0.988431
0.979828
0.963284
0.93159
0.872081
0.768612
0.639302
0.502091
0.366268
0.246217
0.159982
0.0975862
0.0514003
0.0206237
0.00437395
0.000181998
0.000193084
0.000203192
0.000211088
0.000216998
0.000221524
0.000225239
0.000228794
0.000232421
0.000235784
0.000238931
0.000242083
0.000245139
0.000247921
0.000250254
0.000256753
0.000271751
0.000296382
0.000332136
0.000380886
0.000446048
0.000533837
0.000652411
0.000814791
0.00104065
0.00136214
0.00182618
0.00250628
0.00352185
0.00505283
0.00742851
0.0111749
0.0170257
0.0262403
0.0407945
0.0636548
0.0992286
0.153297
0.230154
0.317962
0.410436
0.504992
0.598581
0.687011
0.764549
0.824292
0.868876
0.905061
0.933632
0.955243
0.970659
0.980838
0.986848
0.989823
0.990893
0.991
0.990842
0.990748
0.990642
0.990169
0.98915
0.987445
0.984817
0.980868
0.974895
0.965852
0.952112
0.931145
0.899599
0.853559
0.788344
0.710311
0.62559
0.537876
0.45145
0.37013
0.296839
0.234649
0.186133
0.148497
0.11695
0.0905772
0.0683617
0.0505792
0.0040212
0.00585901
0.00873576
0.0133118
0.0206896
0.0326408
0.0519034
0.0826834
0.131161
0.204134
0.294584
0.390572
0.48968
0.587478
0.679765
0.759676
0.820255
0.864576
0.899757
0.926946
0.947166
0.961556
0.971284
0.977446
0.980933
0.982337
0.982274
0.981079
0.978483
0.973919
0.966296
0.9537
0.932778
0.897668
0.838915
0.747792
0.637521
0.515088
0.386833
0.265117
0.170661
0.101946
0.0501795
0.0163491
0.00127352
5.96343e-06
6.32182e-06
6.5712e-06
6.69911e-06
6.77098e-06
6.86736e-06
6.98135e-06
7.11968e-06
7.27832e-06
7.44297e-06
7.62293e-06
7.81594e-06
7.98644e-06
8.11468e-06
8.18575e-06
8.21914e-06
8.28391e-06
8.37943e-06
8.48158e-06
8.57459e-06
8.78517e-06
9.28791e-06
1.01479e-05
1.14026e-05
1.31102e-05
1.53761e-05
1.84422e-05
2.25764e-05
2.84063e-05
3.6609e-05
4.845e-05
6.59807e-05
9.23524e-05
0.000132231
0.000189651
0.000277086
0.000413415
0.000604635
0.000889215
0.00134135
0.00205759
0.00321914
0.00510429
0.00821012
0.0133523
0.0218071
0.0355265
0.0572309
0.0905697
0.140047
0.209146
0.288321
0.36811
0.446027
0.519809
0.587158
0.646294
0.695911
0.735101
0.764038
0.783901
0.795595
0.800462
0.798968
0.789373
0.770788
0.742907
0.705654
0.659136
0.603625
0.539952
0.469666
0.395359
0.320885
0.251503
0.192951
0.145069
0.102317
0.0661481
0.0379357
0.0181381
0.00632012
0.000920987
0.000126058
0.00010109
8.12256e-05
6.59028e-05
4.37991e-05
3.57662e-05
0.000175805
0.000251257
0.000362695
0.000530061
0.000789409
0.00119727
0.00183918
0.00286518
0.00455158
0.0073938
0.0122271
0.0203719
0.0339391
0.0557025
0.0897872
0.140441
0.21027
0.28882
0.365671
0.437545
0.50177
0.556284
0.599806
0.631936
0.652996
0.663413
0.662935
0.650038
0.624194
0.585103
0.532424
0.466725
0.389929
0.306344
0.224766
0.157601
0.101014
0.0542167
0.0203189
0.00255393
1.3674e-07
1.52273e-07
1.67982e-07
1.72562e-07
1.68426e-07
1.63527e-07
1.62943e-07
1.64486e-07
1.67207e-07
1.70426e-07
1.7425e-07
1.77847e-07
1.81489e-07
1.85477e-07
1.89096e-07
1.92633e-07
1.96765e-07
2.00684e-07
2.03605e-07
2.03926e-07
2.02292e-07
2.014e-07
2.02586e-07
2.05141e-07
2.07687e-07
2.12841e-07
2.25157e-07
2.47047e-07
2.79175e-07
3.23154e-07
3.79483e-07
4.54275e-07
5.53354e-07
6.9815e-07
9.03845e-07
1.19291e-06
1.6029e-06
2.23122e-06
3.35732e-06
4.88831e-06
7.06149e-06
1.13949e-05
1.69016e-05
2.42154e-05
3.73254e-05
5.84245e-05
9.58394e-05
0.000152013
0.000235992
0.000382602
0.000616322
0.000987994
0.00159015
0.0025433
0.00408419
0.00658144
0.0105392
0.0165765
0.0254325
0.0378017
0.0540795
0.0742874
0.0979175
0.123476
0.148564
0.170558
0.18668
0.194697
0.194175
0.187364
0.175158
0.158138
0.137233
0.113698
0.0889967
0.0646406
0.0422477
0.0235118
0.00979145
0.00197942
2.24896e-20
-2.28582e-23
-5.35451e-27
-1.42772e-27
-2.30776e-27
1.69522e-28
-2.43641e-27
-3.32477e-27
1.13683e-28
-5.61101e-28
2.34805e-28
9.19722e-28
-1.036e-27
1.1643e-27
5.01529e-06
7.32494e-06
1.08388e-05
1.62987e-05
2.50472e-05
3.92315e-05
6.21908e-05
9.97041e-05
0.00016221
0.000266786
0.000441837
0.00072697
0.00120215
0.00196654
0.00323153
0.00527393
0.00852751
0.0135879
0.0210567
0.0314052
0.0447344
0.0605156
0.0774056
0.0932755
0.105612
0.112084
0.112068
0.106217
0.0948169
0.0788717
0.0597604
0.0395707
0.020934
0.0068601
0.000301405
3.10697e-10
2.85768e-10
2.55578e-10
2.31526e-10
2.01026e-10
1.79747e-10
1.80805e-10
1.77911e-10
1.60769e-10
1.32236e-10
1.06443e-10
8.82419e-11
7.48386e-11
6.28701e-11
5.17161e-11
4.17616e-11
3.32497e-11
2.62232e-11
2.02779e-11
1.50805e-11
1.05571e-11
6.86464e-12
4.07062e-12
2.12377e-12
8.92083e-13
2.16442e-13
2.77694e-27
1.39024e-21
1.24251e-21
1.82156e-23
8.46236e-22
-8.28661e-42
4.00379e-23
4.5475e-23
4.89665e-43
-6.51516e-24
-2.91071e-24
2.1812e-21
3.37319e-41
2.94839e-20
-1.25509e-40
1.00086e-20
9.39848e-21
-3.36146e-40
5.19744e-20
2.46766e-22
-3.66498e-24
-4.74468e-24
4.74144e-20
1.02911e-12
8.88577e-12
4.47935e-11
1.44054e-10
3.55859e-10
9.75298e-10
2.13496e-09
3.25506e-09
4.47377e-09
6.61318e-09
1.25028e-08
1.97527e-08
1.59048e-08
4.63345e-09
2.55652e-11
3.84086e-17
-4.58311e-37
-7.3655e-26
1.10549e-16
-6.24248e-37
-1.37144e-26
1.02294e-16
-1.6236e-37
-1.58515e-23
7.38709e-17
1.68295e-16
1.37751e-17
6.7437e-17
5.70903e-17
3.57688e-21
1.0059e-22
2.7671e-19
2.04404e-17
-3.83448e-21
1.33322e-18
2.68547e-19
-2.24766e-23
-1.26756e-24
-2.17606e-26
-1.20708e-26
-5.04485e-27
-1.61783e-27
-1.54782e-27
-2.02664e-27
-1.40264e-27
-9.49903e-28
-2.10609e-26
-2.08998e-26
-1.15929e-26
-4.33626e-27
-8.92419e-24
-1.2268e-24
-3.6801e-25
1.89962e-22
1.2645e-23
-1.12188e-25
2.14598e-21
1.50582e-22
-3.2299e-43
5.63129e-20
-2.79623e-24
-6.7037e-24
-9.25862e-24
8.05844e-40
3.77834e-19
-1.09858e-24
1.30649e-17
1.70923e-18
2.04625e-39
-3.33535e-23
-1.52383e-24
-3.52267e-24
2.46665e-22
2.60009e-24
6.63213e-17
4.02606e-19
2.14618e-19
6.99422e-17
-1.67731e-21
2.52064e-21
3.08653e-17
9.74985e-31
-2.11671e-31
3.61734e-27
7.5324e-25
2.46539e-24
2.69167e-25
5.15213e-29
1.37102e-24
-2.72807e-30
-4.56408e-29
1.85771e-24
-1.18099e-29
-6.82999e-31
-5.25601e-32
9.89004e-25
-3.80448e-30
2.64812e-25
5.79382e-30
5.51463e-26
3.73779e-30
-4.80859e-31
4.14468e-26
-2.37625e-30
-1.89236e-31
-5.84049e-32
8.71031e-27
2.28868e-31
-2.32121e-32
1.55743e-28
1.2781e-32
-3.34264e-26
1.66445e-41
2.58457e-38
-1.33997e-25
-2.16265e-25
-1.59347e-24
-1.27733e-24
-7.41786e-25
-2.63088e-24
-4.56891e-24
-1.44522e-24
-1.97956e-25
-5.31679e-26
-4.99743e-26
-4.02422e-25
-6.91622e-25
-1.9092e-24
-8.18597e-24
-9.60933e-25
-2.11525e-24
-6.57316e-24
-3.71761e-24
-4.89727e-24
-7.71733e-24
-3.19779e-24
-3.85103e-24
-9.52524e-26
-2.17684e-25
-3.34669e-25
-1.13688e-24
-5.52605e-24
-5.02526e-24
-4.63285e-24
-9.98392e-24
-2.10183e-23
-1.17407e-25
-1.017e-25
-4.39752e-26
-3.82612e-26
-1.41322e-25
-5.87222e-25
-1.85825e-24
-2.71591e-24
-3.96209e-25
-6.36651e-24
-7.1273e-23
-4.8481e-22
2.12136e-34
4.80711e-32
-2.29713e-39
1.31411e-37
1.26838e-36
3.10305e-37
1.7399e-40
-1.4224e-38
-8.71415e-37
-8.98493e-23
5.30882e-38
-2.97975e-39
-3.75669e-24
-1.56558e-25
-5.06326e-26
-2.16359e-26
-6.99506e-27
-1.85695e-27
-1.08393e-27
-1.24196e-27
-9.58785e-28
-6.25105e-28
-1.0095e-26
-8.13298e-27
-3.18833e-27
-6.95368e-28
-4.14711e-24
-1.11917e-24
-4.16996e-25
-2.20252e-25
-3.26689e-25
-6.69187e-25
-2.54332e-25
-2.36227e-25
-1.38555e-24
-1.60076e-24
-4.99712e-24
-1.04459e-23
-1.23924e-23
-7.03966e-24
-1.01238e-23
-1.91422e-23
-8.92001e-24
-2.61259e-23
-4.08357e-23
-1.08952e-22
-3.73894e-24
-3.39087e-23
-1.51049e-22
-9.3587e-23
-4.3188e-24
-4.95968e-23
1.0826e-37
2.50993e-37
-1.02133e-23
-8.2279e-41
-1.411e-36
-1.56159e-28
-2.04641e-28
-3.29168e-46
-1.46926e-44
-3.87526e-44
-3.11785e-44
-6.01705e-28
-1.10555e-43
-9.18917e-28
-1.10333e-27
-2.27942e-43
-1.5692e-27
-2.38716e-27
-2.8248e-27
1.85029e-43
-9.87704e-27
6.63847e-45
-1.44223e-25
-3.21136e-25
-3.46036e-25
-2.1028e-25
-7.71859e-26
-3.24691e-26
-1.7888e-26
-2.06656e-26
-3.3551e-26
-6.48317e-26
-9.83404e-26
-9.40096e-26
-6.49227e-26
-5.16816e-26
-4.37475e-26
-5.15846e-26
-7.44221e-26
-2.14686e-25
-6.32766e-25
-1.11963e-24
-7.84841e-25
-1.06719e-24
-1.58669e-24
-5.66506e-25
-1.26795e-25
-3.4644e-26
-5.76003e-26
-2.1039e-25
-7.65934e-25
-2.09398e-24
-3.16368e-24
-9.51727e-25
-1.8271e-24
-3.0384e-24
-1.9603e-24
-5.45809e-24
-8.75297e-24
-3.14214e-24
-4.53353e-24
-1.86453e-25
-1.86267e-25
-4.87475e-25
-1.56526e-24
-4.81023e-24
-7.85586e-24
-5.27532e-24
-1.73527e-23
-2.63116e-23
-1.96933e-25
-2.42713e-25
-9.1585e-26
-1.01401e-25
-4.51403e-25
-2.28881e-24
-9.31293e-24
-1.9396e-23
-1.98345e-24
-1.0507e-23
-4.72934e-23
-1.19068e-22
-3.74648e-25
-1.13402e-25
-1.01585e-25
-4.66826e-25
-4.45659e-24
-4.98665e-23
-9.2625e-25
-1.00658e-24
-1.05269e-24
-4.25517e-24
-1.52092e-24
-7.58462e-23
-3.75352e-25
-1.23929e-25
-5.43447e-26
-1.91234e-26
-5.24215e-27
-1.18007e-27
-4.60936e-28
-4.2501e-28
-3.16762e-28
-1.94889e-28
-2.33683e-27
-1.53392e-27
-4.56515e-28
-7.43335e-29
-7.56642e-25
-6.67041e-26
-4.39394e-26
-9.24748e-26
-1.1881e-25
-1.02596e-25
-1.56904e-25
-1.65453e-25
-5.09422e-25
-1.43934e-24
-2.9522e-24
-3.67341e-24
-1.1532e-24
-1.03688e-24
-1.86136e-24
-1.32118e-24
-1.87996e-24
-4.3504e-24
-5.87623e-24
-1.10506e-23
-5.0333e-25
-3.3099e-24
-1.18012e-23
-9.24947e-24
-1.77429e-24
-8.81914e-24
-1.80748e-26
-4.85174e-25
-8.05837e-24
-9.92275e-25
-4.68696e-28
-9.21963e-28
-1.16979e-27
-1.39113e-27
-1.13678e-27
-3.93631e-28
-6.52618e-28
-3.0527e-27
-1.48795e-27
-4.07945e-27
-4.32044e-27
-1.46955e-27
-5.48724e-27
-7.33603e-27
-8.04802e-27
-4.85891e-27
-2.36853e-26
-4.6961e-26
-2.46493e-25
-5.05166e-25
-4.5976e-25
-2.48602e-25
-9.24343e-26
-3.21037e-26
-1.70674e-26
-1.85202e-26
-2.83919e-26
-4.4829e-26
-5.83586e-26
-5.01148e-26
-3.18146e-26
-2.34368e-26
-1.92634e-26
-2.12955e-26
-2.46239e-26
-5.24339e-26
-1.28777e-25
-2.10445e-25
-1.58912e-25
-2.21484e-25
-3.20073e-25
-1.12055e-25
-2.97305e-26
-1.16359e-26
-2.21989e-26
-6.93515e-26
-2.06994e-25
-4.76537e-25
-6.63222e-25
-1.99682e-25
-4.13262e-25
-6.70888e-25
-4.9505e-25
-1.1921e-24
-1.66908e-24
-6.69889e-25
-9.6419e-25
-8.58761e-26
-9.50325e-26
-2.05617e-25
-4.93625e-25
-1.38781e-24
-2.19026e-24
-1.38576e-24
-4.27918e-24
-6.67741e-24
-1.33852e-25
-1.75195e-25
-7.0744e-26
-6.27087e-26
-2.2402e-25
-1.00039e-24
-4.05574e-24
-8.68591e-24
-1.3648e-24
-4.44954e-24
-1.30524e-23
-1.99526e-23
-5.10465e-25
-1.7648e-25
-1.17167e-25
-3.26927e-25
-1.06239e-24
-9.06271e-24
-5.9974e-25
-7.79247e-25
-7.37379e-25
-7.30572e-25
-4.21509e-25
-1.77458e-23
-1.71391e-25
-9.06603e-26
-3.64991e-26
-1.06916e-26
-2.49611e-27
-4.81603e-28
-1.38915e-28
-1.00596e-28
-6.92686e-29
-3.94795e-29
-3.39826e-28
-1.8407e-28
-4.24272e-29
-5.00744e-30
-1.12729e-25
-1.55386e-26
-1.18131e-26
-1.39795e-26
-1.60229e-26
-2.13997e-26
-3.49542e-26
-5.24124e-26
-1.125e-25
-2.82164e-25
-5.94417e-25
-7.40359e-25
-1.18967e-25
-7.84979e-26
-1.20456e-25
-7.88737e-26
-8.76767e-26
-2.21717e-25
-3.34348e-25
-6.70905e-25
-2.35466e-26
-1.46127e-25
-5.72536e-25
-6.63626e-25
-1.41244e-25
-7.77277e-25
-3.32391e-27
-3.18234e-26
-4.87653e-25
-2.08214e-25
-1.8457e-27
-2.65287e-27
-3.11478e-27
-3.82599e-27
-3.88488e-27
-1.61854e-27
-2.20439e-27
-7.16988e-27
-5.18084e-27
-8.68345e-27
-8.201e-27
-4.26511e-27
-9.35761e-27
-1.11526e-26
-1.13695e-26
-9.93801e-27
-2.7908e-26
-6.16169e-26
-2.0663e-25
-3.7631e-25
-3.04203e-25
-1.47555e-25
-5.06491e-26
-1.63948e-26
-8.90522e-27
-9.16297e-27
-1.27596e-26
-1.76424e-26
-2.0898e-26
-1.72105e-26
-1.0721e-26
-7.84292e-27
-6.23683e-27
-6.62089e-27
-6.64319e-27
-1.04825e-26
-2.0636e-26
-3.17005e-26
-2.70389e-26
-3.32445e-26
-4.70963e-26
-1.9672e-26
-7.13203e-27
-3.45311e-27
-6.3081e-27
-1.71106e-26
-4.26275e-26
-8.0872e-26
-1.0668e-25
-3.5054e-26
-7.17488e-26
-1.21848e-25
-1.02512e-25
-2.04115e-25
-2.3856e-25
-9.85436e-26
-1.49133e-25
-3.2378e-26
-3.29176e-26
-6.22042e-26
-1.05948e-25
-2.73715e-25
-4.39183e-25
-2.93022e-25
-8.2597e-25
-1.28624e-24
-5.4022e-26
-7.41454e-26
-3.21417e-26
-2.43314e-26
-7.1146e-26
-2.62124e-25
-1.05186e-24
-2.35132e-24
-8.37686e-25
-1.78763e-24
-3.42681e-24
-2.80083e-24
-3.89823e-25
-1.55994e-25
-8.51872e-26
-1.77469e-25
-2.26544e-25
-1.04656e-24
-2.34274e-25
-3.89469e-25
-3.32745e-25
-2.29368e-25
-9.44243e-26
-2.68259e-24
-8.03841e-26
-4.78105e-26
-1.74773e-26
-4.42432e-27
-9.0368e-28
-1.51922e-28
-3.3146e-29
-1.79741e-29
-1.1102e-29
-5.74397e-30
-3.53199e-29
-1.57172e-29
-2.82857e-30
-2.49267e-31
-2.33381e-26
-1.22598e-26
-1.12759e-26
-1.14353e-26
-1.25092e-26
-1.76316e-26
-2.66561e-26
-4.27277e-26
-7.58881e-26
-1.23866e-25
-1.75686e-25
-1.95942e-25
-8.49622e-26
-3.84303e-26
-2.66398e-26
-1.70376e-26
-9.41484e-27
-1.72324e-26
-2.81166e-26
-4.60085e-26
-7.10192e-27
-1.01924e-26
-3.0547e-26
-4.72559e-26
-8.43996e-27
-4.9066e-26
-5.2448e-27
-6.13998e-27
-2.5767e-26
-3.31302e-26
-4.22559e-27
-4.98442e-27
-5.39359e-27
-6.4628e-27
-6.90141e-27
-3.34578e-27
-4.19204e-27
-1.07794e-26
-9.21005e-27
-1.19164e-26
-1.01791e-26
-6.2725e-27
-1.04011e-26
-1.11994e-26
-1.06342e-26
-1.04784e-26
-2.16804e-26
-4.35611e-26
-1.14106e-25
-1.84374e-25
-1.33909e-25
-5.86563e-26
-1.85399e-26
-5.91279e-27
-3.43767e-27
-3.33881e-27
-4.16976e-27
-5.17837e-27
-5.74021e-27
-4.6012e-27
-2.81525e-27
-2.05789e-27
-1.57832e-27
-1.64253e-27
-1.55404e-27
-2.08403e-27
-3.35156e-27
-4.66545e-27
-4.42117e-27
-4.53117e-27
-6.09883e-27
-3.10093e-27
-1.46796e-27
-8.16604e-28
-1.4795e-27
-3.66389e-27
-8.02933e-27
-1.24122e-26
-1.50825e-26
-5.18849e-27
-1.08356e-26
-1.95196e-26
-1.99645e-26
-3.35596e-26
-2.95967e-26
-1.26334e-26
-2.03078e-26
-9.16045e-27
-8.71621e-27
-1.55696e-26
-2.00872e-26
-4.5151e-26
-7.29638e-26
-5.87557e-26
-1.47434e-25
-2.20589e-25
-1.55545e-26
-2.17491e-26
-1.02767e-26
-7.39958e-27
-1.94516e-26
-6.05918e-26
-2.3524e-25
-5.61643e-25
-4.80913e-25
-7.84243e-25
-9.4348e-25
-4.82657e-25
-2.26193e-25
-1.02132e-25
-5.09061e-26
-7.8803e-26
-6.12102e-26
-1.11417e-25
-8.17294e-26
-1.66385e-25
-1.30114e-25
-7.56628e-26
-2.45586e-26
-3.45556e-25
-3.07982e-26
-1.91498e-26
-6.38701e-27
-1.4183e-27
-2.56138e-28
-3.79665e-29
-6.5528e-30
-2.61278e-30
-1.40501e-30
-6.49202e-31
-2.80129e-30
-1.02289e-30
-1.44714e-31
-9.68356e-33
-1.30522e-26
-1.12903e-26
-1.08062e-26
-1.08402e-26
-1.19543e-26
-1.70332e-26
-2.54236e-26
-4.11765e-26
-7.32691e-26
-1.11726e-25
-1.36228e-25
-1.36395e-25
-9.15604e-26
-4.27285e-26
-2.39245e-26
-1.33954e-26
-9.06489e-27
-1.20452e-26
-1.69644e-26
-1.86428e-26
-1.00165e-26
-6.52529e-27
-5.68309e-27
-5.8798e-27
-2.97189e-27
-7.26162e-27
-8.06197e-27
-8.40448e-27
-1.04701e-26
-1.12881e-26
-6.72416e-27
-6.85236e-27
-6.86197e-27
-7.90836e-27
-8.44455e-27
-4.58826e-27
-5.48016e-27
-1.18066e-26
-1.09165e-26
-1.19289e-26
-9.32391e-27
-6.18168e-27
-8.51173e-27
-8.36673e-27
-7.41369e-27
-7.5063e-27
-1.25579e-26
-2.17492e-26
-4.69314e-26
-6.73061e-26
-4.41754e-26
-1.75924e-26
-5.19941e-27
-1.74884e-27
-1.11963e-27
-1.00568e-27
-1.10466e-27
-1.23779e-27
-1.29284e-27
-1.00911e-27
-6.05737e-28
-4.40079e-28
-3.24239e-28
-3.30641e-28
-3.07409e-28
-3.82964e-28
-5.41744e-28
-6.85623e-28
-7.05268e-28
-6.05253e-28
-7.58927e-28
-4.87174e-28
-2.72754e-28
-1.63762e-28
-2.89127e-28
-6.65274e-28
-1.35221e-27
-1.78159e-27
-2.00677e-27
-7.33744e-28
-1.49345e-27
-2.84629e-27
-3.54635e-27
-5.36841e-27
-3.59449e-27
-1.72785e-27
-2.90565e-27
-2.10225e-27
-1.84336e-27
-3.22478e-27
-3.5127e-27
-6.76446e-27
-1.0851e-26
-1.0639e-26
-2.38919e-26
-3.42805e-26
-3.52975e-27
-4.99075e-27
-2.61806e-27
-1.94779e-27
-5.00341e-27
-1.50919e-26
-5.66599e-26
-1.51184e-25
-2.44519e-25
-3.5791e-25
-3.00799e-25
-1.37372e-25
-1.09784e-25
-5.38722e-26
-2.67728e-26
-3.2266e-26
-2.0178e-26
-1.72616e-26
-2.79962e-26
-6.26285e-26
-4.6071e-26
-2.39214e-26
-7.39412e-27
-4.32777e-26
-9.73053e-27
-6.11085e-27
-1.87404e-27
-3.73531e-28
-6.04716e-29
-7.97359e-30
-1.11827e-30
-3.20188e-31
-1.45232e-31
-5.89299e-32
-1.77338e-31
-5.29497e-32
-5.97136e-33
-3.16886e-34
-1.01825e-26
-9.48128e-27
-9.1847e-27
-9.23776e-27
-1.02799e-26
-1.4663e-26
-2.18975e-26
-3.55737e-26
-6.3856e-26
-9.86181e-26
-1.20561e-25
-1.19609e-25
-8.56268e-26
-4.21379e-26
-2.31721e-26
-1.29878e-26
-9.82e-27
-1.29042e-26
-1.77495e-26
-1.89704e-26
-1.21731e-26
-7.56641e-27
-4.82521e-27
-2.99059e-27
-3.08647e-27
-5.96758e-27
-9.38178e-27
-1.05422e-26
-1.2307e-26
-1.08561e-26
-8.07575e-27
-7.35143e-27
-6.85165e-27
-7.56623e-27
-7.93544e-27
-4.68171e-27
-5.39215e-27
-1.00981e-26
-9.65559e-27
-9.3268e-27
-6.7367e-27
-4.57903e-27
-5.48521e-27
-4.96427e-27
-4.11164e-27
-4.09141e-27
-5.80458e-27
-8.52707e-27
-1.53872e-26
-1.95811e-26
-1.16702e-26
-4.26228e-27
-1.21584e-27
-4.70784e-28
-3.31606e-28
-2.68065e-28
-2.5177e-28
-2.51793e-28
-2.46823e-28
-1.86503e-28
-1.09199e-28
-7.85204e-29
-5.55567e-29
-5.58572e-29
-5.22642e-29
-6.33003e-29
-8.34755e-29
-9.78662e-29
-1.05168e-28
-8.03503e-29
-9.38348e-29
-7.16683e-29
-4.37341e-29
-2.8644e-29
-5.00085e-29
-1.05646e-28
-2.02076e-28
-2.38335e-28
-2.54952e-28
-1.00771e-28
-1.97739e-28
-3.89601e-28
-5.6307e-28
-8.05407e-28
-4.54647e-28