/*--------------------------------*- C++ -*----------------------------------*\
| =========                 |                                                 |
| \\      /  F ield         | OpenFOAM: The Open Source CFD Toolbox           |
|  \\    /   O peration     | Version:  v1912                                 |
|   \\  /    A nd           | Website:  www.openfoam.com                      |
|    \\/     M anipulation  |                                                 |
\*---------------------------------------------------------------------------*/
FoamFile
{
    version     2.0;
    format      ascii;
    class       surfaceScalarField;
    location    "100";
    object      alphaPhi0.water;
}
// * * * * * * * * * * * * * * * * * * * * * * * * * * * * * * * * * * * * * //

dimensions      [0 3 -1 0 0 0 0];
oriented        oriented;


internalField   nonuniform List<scalar> 
28285
(
3.26581e-08
-7.71278e-09
3.80523e-08
-8.98734e-09
4.71401e-08
-8.32159e-09
5.56293e-08
-9.00201e-09
6.31528e-08
-1.4101e-08
5.81113e-08
-9.74014e-09
5.82618e-08
-1.50435e-10
5.37835e-08
4.47829e-09
7.35382e-08
2.44544e-10
1.09494e-07
-4.37507e-09
1.25e-07
-1.11552e-08
1.36145e-07
-1.10034e-08
1.42089e-07
-6.08605e-09
7.03507e-08
2.05385e-09
3.37639e-08
5.98308e-09
3.35254e-08
2.654e-09
3.31491e-08
-6.77445e-10
3.54447e-08
-5.30656e-10
3.61384e-08
-1.23455e-09
3.8019e-08
-4.36668e-10
3.84708e-08
-9.11615e-10
4.09173e-08
-1.08655e-09
4.29678e-08
-2.44687e-09
4.74709e-08
-3.1218e-09
5.11857e-08
-4.11404e-09
5.23215e-08
-1.16688e-10
2.01283e-07
2.27165e-08
4.34782e-07
1.98541e-08
2.89733e-07
1.18078e-07
2.45448e-07
6.62494e-08
2.38079e-07
9.26144e-10
2.75356e-07
-5.05778e-08
3.26277e-07
-4.70542e-08
3.90512e-07
-4.98908e-08
4.4936e-07
-4.45348e-08
2.13257e-07
-3.62651e-08
4.10094e-08
-5.31506e-09
4.09816e-08
-8.14453e-10
4.39254e-08
-2.97856e-09
4.85725e-08
-4.61237e-09
5.18375e-08
-3.29976e-09
7.32294e-08
6.64929e-09
8.71234e-08
2.22669e-09
8.04871e-08
1.09025e-08
7.10289e-08
3.46088e-09
6.62094e-08
7.46547e-09
5.489e-08
6.49571e-09
5.17395e-08
3.5244e-09
2.10169e-08
-1.06197e-11
1.68815e-09
6.91632e-10
1.47765e-09
3.1739e-10
1.47968e-09
1.07473e-10
1.64451e-09
-2.4185e-12
1.83542e-09
-2.86678e-11
2.18545e-09
-5.20884e-11
3.03257e-09
-9.25817e-11
4.26801e-09
-1.25248e-10
4.57939e-09
-7.74583e-11
4.86797e-09
-4.98999e-11
5.0573e-09
-1.12894e-10
5.44613e-09
-1.47895e-10
6.3307e-09
-7.6871e-11
1.26568e-08
1.32925e-10
2.75636e-08
4.38556e-10
2.83974e-08
1.79974e-09
2.02148e-08
2.14635e-09
7.50735e-09
8.67379e-10
0
2.81463e-10
0
0
-7.60661e-33
-7.86199e-34
-1.18178e-32
-8.95322e-34
-1.03718e-32
-5.58725e-34
-7.13778e-33
-3.21317e-34
-4.30578e-33
-1.78365e-34
-2.33752e-33
-9.29015e-35
-1.14472e-33
-4.44226e-35
-5.07185e-34
-1.93859e-35
-2.04694e-34
-7.74744e-36
-7.5877e-35
-2.85453e-36
-2.60365e-35
-9.76331e-37
-8.32407e-36
-3.11763e-37
-2.49166e-36
-9.33415e-38
-7.00636e-37
-2.62817e-38
-1.85447e-37
-6.97279e-39
-4.62499e-38
-1.74473e-39
-1.08718e-38
-4.11745e-40
-2.40857e-39
-9.16136e-41
-5.02774e-40
-1.92127e-41
-9.88593e-41
-3.7954e-42
-1.83056e-41
-7.06439e-43
-3.19144e-42
-1.2387e-43
-5.2382e-43
-2.04517e-44
-8.0939e-44
-3.17883e-45
-1.17741e-44
-4.65122e-46
-1.6126e-45
-6.4076e-47
-2.07969e-46
-8.31314e-48
-2.52572e-47
-1.01591e-48
-2.8889e-48
-1.16944e-49
-3.11233e-49
-1.26784e-50
-3.15859e-50
-1.29469e-51
-3.01994e-51
-1.24539e-52
-2.72046e-52
-1.12871e-53
-2.3092e-53
-9.63896e-55
-1.84708e-54
-7.75748e-56
-1.39233e-55
-5.88376e-57
-9.89114e-57
-4.20599e-58
-6.62243e-58
-2.83359e-59
-4.17893e-59
-1.79906e-60
-2.48542e-60
-1.07656e-61
-1.39324e-61
-6.07084e-63
-7.36118e-63
-3.22695e-64
-3.66574e-64
-1.61629e-65
-1.72054e-65
-7.63179e-67
-7.61112e-67
-3.39516e-68
-3.17322e-68
-1.42398e-69
-1.24684e-69
-5.62614e-71
-4.61696e-71
-2.0957e-72
-1.61111e-72
-7.35288e-74
-5.29767e-74
-2.43195e-75
-1.64143e-75
-7.5759e-77
-4.79183e-77
-2.22427e-78
-1.31796e-78
-6.15076e-80
-3.41498e-80
-1.6025e-81
-8.33558e-82
-3.93273e-83
-1.91648e-83
-9.08961e-85
-4.15023e-85
-1.97913e-86
-8.46439e-87
-4.05677e-88
-1.62572e-88
-7.83419e-90
-2.94027e-90
-1.42373e-91
-5.00704e-92
-2.43767e-93
-8.02775e-94
-3.92662e-95
-1.21167e-95
-5.95835e-97
-1.72154e-97
-8.50464e-99
-2.30223e-99
-1.14328e-100
-2.89767e-101
-1.44555e-102
-3.43213e-103
-1.72085e-104
-3.82532e-105
-1.92677e-106
-4.01147e-107
-2.03044e-108
-3.95771e-109
-2.01245e-110
-3.67308e-111
-1.87656e-112
-3.20653e-113
-1.64581e-114
-2.63269e-115
-1.35746e-116
-2.03278e-117
-1.05302e-118
-1.47588e-119
-7.67934e-121
-1.0075e-121
-5.2672e-123
-6.46553e-124
-3.39617e-125
-3.90011e-126
-2.05949e-127
-2.21083e-128
-1.17537e-129
-1.1774e-130
-6.30706e-132
-3.09279e-134
-5.89791e-133
7.76114e-08
-2.16966e-08
8.61662e-08
-2.31257e-08
1.14965e-07
-3.23225e-08
1.27647e-07
-2.82369e-08
1.45536e-07
-2.07779e-08
1.42276e-07
-1.76921e-08
1.29972e-07
-1.00424e-08
5.82894e-08
1.12625e-09
4.26222e-08
2.64689e-10
3.33829e-08
-2.08896e-09
3.67565e-08
-5.32792e-10
8.95853e-08
-1.01776e-09
1.34162e-07
-3.95765e-09
1.54984e-07
2.16027e-09
1.12093e-07
3.72645e-08
7.69625e-08
9.37869e-09
6.5697e-08
-3.97924e-09
6.74259e-08
-8.4232e-09
7.10094e-08
-7.19694e-09
8.15308e-08
-7.29416e-09
1.03897e-07
-1.25124e-08
1.2279e-07
-1.84042e-08
1.29106e-07
-1.46393e-08
1.35795e-07
-2.42772e-08
1.08178e-07
-2.15875e-08
6.88756e-08
9.41524e-11
1.26017e-07
3.888e-08
3.89594e-07
3.37262e-08
3.58497e-07
1.76146e-07
3.45931e-07
5.18449e-08
2.96321e-07
-4.73983e-08
2.14517e-07
-9.15953e-08
1.31138e-07
-4.39216e-08
1.31063e-07
-1.38844e-08
2.01672e-07
-9.78401e-09
2.26635e-07
-8.03966e-09
2.36833e-07
-2.706e-09
1.56819e-07
-9.47558e-09
7.23888e-08
-4.54377e-09
7.94318e-08
-1.66827e-08
8.47249e-08
-2.35833e-08
7.20739e-08
1.89542e-08
8.05756e-08
1.1059e-08
6.40429e-08
8.63369e-09
4.3012e-08
1.84598e-09
4.01458e-08
2.31814e-09
4.48673e-08
3.49849e-09
4.48573e-08
2.09277e-09
3.10084e-08
9.15283e-10
8.8915e-09
4.92725e-09
1.43831e-10
1.17079e-09
1.34736e-10
4.94042e-11
1.17098e-10
-1.47824e-12
1.05903e-10
-7.59385e-12
1.24824e-10
-1.53221e-11
2.81672e-10
-4.51072e-11
6.47997e-10
-1.48799e-10
8.74765e-10
-1.58031e-10
9.13048e-10
-1.082e-10
9.68138e-10
-2.04979e-10
1.02346e-09
-2.5581e-10
1.50053e-09
-6.39318e-11
6.49749e-09
1.00032e-11
2.87506e-08
6.27404e-10
3.29207e-08
3.84033e-10
2.30347e-08
2.57116e-09
9.9779e-09
2.28484e-09
2.2218e-10
9.58617e-10
1.64184e-24
1.84859e-12
8.95336e-34
3.32495e-27
-4.30103e-46
1.46074e-38
-3.6484e-32
-3.87979e-33
-2.89552e-32
-2.59851e-33
-1.72584e-32
-1.42954e-33
-8.60462e-33
-6.84315e-34
-3.72431e-33
-2.89254e-34
-1.43036e-33
-1.09423e-34
-4.96349e-34
-3.75996e-35
-1.58216e-34
-1.19131e-35
-4.7015e-35
-3.52862e-36
-1.31826e-35
-9.88198e-37
-3.51761e-36
-2.63747e-37
-8.97312e-37
-6.73687e-38
-2.19023e-37
-1.64828e-38
-5.10727e-38
-3.85621e-39
-1.13452e-38
-8.59994e-40
-2.39367e-39
-1.8223e-40
-4.78457e-40
-3.65943e-41
-9.0437e-41
-6.9493e-42
-1.61456e-41
-1.2471e-42
-2.72065e-42
-2.11351e-43
-4.32579e-43
-3.38038e-44
-6.48943e-44
-5.10118e-45
-9.18608e-45
-7.26311e-46
-1.22715e-45
-9.75933e-47
-1.54728e-46
-1.23791e-47
-1.84162e-47
-1.48261e-48
-2.0693e-48
-1.67657e-49
-2.19513e-49
-1.78977e-50
-2.19845e-50
-1.8036e-51
-2.07867e-51
-1.71573e-52
-1.85545e-52
-1.54078e-53
-1.56343e-53
-1.30618e-54
-1.24347e-54
-1.04526e-55
-9.33433e-56
-7.89505e-57
-6.61255e-57
-5.62792e-58
-4.42026e-58
-3.78551e-59
-2.78786e-59
-2.4022e-60
-1.65879e-60
-1.43807e-61
-9.31026e-62
-8.11985e-63
-4.92877e-63
-4.32446e-64
-2.4608e-64
-2.17173e-65
-1.1586e-65
-1.02858e-66
-5.14356e-67
-4.59254e-68
-2.15291e-68
-1.9336e-69
-8.49533e-70
-7.67296e-71
-3.15994e-71
-2.8707e-72
-1.10787e-72
-1.01205e-73
-3.66061e-74
-3.36326e-75
-1.13985e-75
-1.05302e-76
-3.34435e-77
-3.107e-78
-9.2453e-79
-8.63614e-80
-2.40779e-80
-2.26144e-81
-5.90715e-82
-5.57826e-83
-1.36504e-83
-1.29584e-84
-2.9709e-85
-2.83559e-86
-6.08921e-87
-5.8415e-88
-1.17524e-88
-1.13349e-89
-2.13572e-90
-2.07001e-91
-3.65402e-92
-3.56043e-93
-5.88534e-94
-5.76218e-95
-8.92273e-96
-8.78167e-97
-1.27326e-97
-1.25907e-98
-1.70994e-99
-1.6995e-100
-2.16102e-101
-2.15791e-102
-2.56978e-103
-2.57879e-104
-2.87517e-105
-2.89877e-106
-3.02627e-107
-3.06576e-108
-2.99639e-109
-3.04974e-110
-2.79048e-111
-2.8534e-112
-2.44411e-113
-2.51097e-114
-2.0131e-115
-2.07757e-116
-1.55913e-117
-1.61657e-118
-1.13531e-119
-1.18237e-120
-7.77179e-122
-8.13243e-123
-5.00085e-124
-5.25782e-125
-3.02431e-126
-3.19646e-127
-1.71854e-128
-1.82884e-129
-9.17359e-131
-9.83504e-132
-4.83433e-134
-4.60537e-133
7.81145e-08
-8.1232e-10
7.55135e-08
-8.23632e-10
5.94087e-08
-7.42364e-10
5.03772e-08
-5.39992e-10
5.57381e-08
-6.11948e-10
7.98798e-08
-1.10613e-09
9.23057e-08
-1.47698e-09
7.71074e-08
2.80905e-09
2.70614e-08
9.65107e-10
1.5342e-09
-9.48099e-10
1.05118e-09
-1.97019e-10
2.60305e-09
-2.3381e-10
2.62104e-08
-5.6992e-10
1.72975e-07
1.97808e-09
2.70106e-07
3.07683e-08
2.57828e-07
2.46491e-08
2.63938e-07
-1.30817e-08
2.30263e-07
-7.82503e-09
2.16607e-07
-1.86606e-08
2.19865e-07
-1.10523e-08
2.55006e-07
-5.76442e-08
2.7304e-07
-4.64384e-08
3.03903e-07
-4.79871e-08
3.15324e-07
-2.58849e-08
3.02352e-07
-1.84294e-08
1.87438e-07
-5.59701e-09
1.91313e-07
9.6512e-08
3.95005e-07
1.03081e-08
4.52095e-07
1.21499e-07
3.87735e-07
1.70004e-08
3.0279e-07
-7.56216e-08
1.75116e-07
-8.40649e-08
6.48717e-08
-2.71587e-08
3.42996e-08
-5.9113e-09
3.47303e-08
-4.61839e-09
6.82321e-08
-5.10865e-09
1.23249e-07
-5.62026e-09
1.59642e-07
-5.37893e-09
1.70545e-07
-1.36794e-08
1.79152e-07
-1.81447e-08
1.81177e-07
-1.85127e-08
1.44031e-07
6.7761e-09
2.74536e-08
5.42095e-08
9.62139e-09
9.5009e-09
8.91395e-09
3.12835e-11
9.48812e-09
9.32196e-10
1.50715e-08
1.90029e-14
2.35991e-08
4.66086e-10
2.82681e-08
9.71367e-10
2.10178e-08
1.08366e-09
2.88594e-09
6.52865e-09
2.751e-11
4.32936e-10
1.53775e-11
-2.79492e-11
2.13718e-11
-1.04559e-11
2.67125e-11
-1.04257e-11
8.71173e-11
-1.30213e-11
4.99657e-10
-7.36874e-11
7.2402e-10
-2.00017e-10
7.3863e-10
-8.54435e-11
7.93084e-10
-2.07053e-10
9.19306e-10
-4.0134e-10
1.01305e-09
-8.59132e-11
3.16649e-09
1.49386e-12
1.93101e-08
4.14181e-10
2.97263e-08
1.17453e-09
2.92108e-08
3.37951e-09
1.49125e-08
5.09505e-09
1.82374e-09
2.61521e-09
1.75931e-22
1.38393e-10
5.19128e-36
8.32787e-24
9.94662e-38
2.08548e-38
-2.10426e-32
-3.29969e-33
-1.59462e-32
-2.13709e-33
-8.20116e-33
-1.01834e-33
-3.6799e-33
-4.39117e-34
-1.5283e-33
-1.78133e-34
-5.90382e-34
-6.77822e-35
-2.11848e-34
-2.40848e-35
-7.0891e-35
-8.01096e-36
-2.22756e-35
-2.50908e-36
-6.61351e-36
-7.44026e-37
-1.86208e-36
-2.09531e-37
-4.97726e-37
-5.60806e-38
-1.26205e-37
-1.42535e-38
-3.03076e-38
-3.4342e-39
-6.88138e-39
-7.8281e-40
-1.4752e-39
-1.6854e-40
-2.98328e-40
-3.4242e-41
-5.68877e-41
-6.56e-42
-1.02279e-41
-1.18555e-42
-1.73403e-42
-2.02151e-43
-2.77295e-43
-3.25182e-44
-4.18386e-44
-4.93541e-45
-5.95794e-45
-7.06916e-46
-8.00969e-46
-9.5591e-47
-1.01677e-46
-1.22073e-47
-1.21892e-47
-1.47257e-48
-1.38004e-48
-1.67788e-49
-1.47562e-49
-1.80544e-50
-1.49005e-50
-1.83441e-51
-1.42082e-51
-1.75984e-52
-1.27921e-52
-1.59404e-53
-1.0873e-53
-1.36314e-54
-8.72373e-55
-1.10041e-55
-6.60594e-56
-8.38434e-57
-4.7204e-57
-6.02862e-58
-3.18251e-58
-4.08983e-59
-2.02415e-59
-2.61722e-60
-1.21433e-60
-1.57973e-61
-6.87059e-62
-8.99164e-63
-3.66573e-63
-4.82622e-64
-1.84411e-64
-2.44216e-65
-8.74615e-66
-1.16512e-66
-3.91029e-67
-5.23911e-68
-1.64783e-68
-2.22074e-69
-6.54463e-70
-8.87006e-71
-2.4495e-71
-3.3391e-72
-8.63884e-73
-1.18421e-73
-2.87055e-74
-3.95743e-75
-8.98619e-76
-1.24573e-76
-2.64993e-77
-3.69408e-78
-7.36057e-79
-1.03172e-79
-1.92556e-80
-2.71372e-81
-4.74396e-82
-6.72215e-83
-1.10057e-83
-1.56773e-84
-2.4041e-85
-3.44308e-86
-4.9443e-87
-7.11733e-88
-9.57281e-89
-1.38537e-89
-1.74469e-90
-2.53744e-91
-2.99297e-92
-4.3759e-93
-4.83234e-94
-7.09946e-95
-7.34245e-96
-1.08431e-96
-1.04984e-97
-1.55778e-98
-1.4124e-99
-2.10634e-100
-1.78778e-101
-2.67879e-102
-2.12885e-103
-3.20552e-104
-2.38465e-105
-3.60765e-106
-2.51247e-107
-3.81914e-108
-2.48969e-109
-3.8024e-110
-2.3201e-111
-3.55981e-112
-2.03309e-113
-3.13417e-114
-1.67511e-115
-2.59401e-116
-1.29758e-117
-2.01878e-118
-9.44877e-120
-1.47659e-120
-6.46747e-122
-1.01549e-122
-4.16054e-124
-6.56382e-125
-2.51518e-126
-3.98888e-127
-1.42852e-128
-2.28115e-129
-7.62077e-131
-1.22592e-131
-6.02187e-134
-3.82305e-133
1.7394e-09
-8.72223e-11
1.45534e-09
-1.10364e-10
9.81113e-10
-1.27894e-10
7.89035e-10
-1.22465e-10
8.95051e-10
-1.18053e-10
3.09245e-09
-1.04415e-10
1.24808e-08
-4.66715e-11
1.48854e-08
-1.29314e-15
7.29357e-09
-4.63382e-17
4.6161e-10
-9.6808e-11
3.39846e-10
-1.43208e-10
4.18242e-10
-1.77519e-10
2.83504e-09
-2.04715e-10
3.36292e-08
1.32482e-14
1.16299e-07
5.16815e-11
2.04777e-07
6.89748e-09
3.09351e-07
-5.41144e-09
3.363e-07
-2.43224e-08
3.5122e-07
-2.31928e-08
3.54145e-07
-2.45369e-08
2.76366e-07
-2.223e-08
1.99783e-07
-2.09118e-08
1.18196e-07
-1.59492e-08
9.64605e-08
-7.56669e-09
1.01274e-07
-4.18162e-09
1.89353e-07
-1.18404e-09
2.66005e-07
3.94013e-08
3.05018e-07
4.71019e-08
3.53894e-07
4.83074e-08
3.13746e-07
4.61566e-09
2.46089e-07
-5.47921e-08
1.54656e-07
-5.73691e-08
5.07858e-08
-8.04257e-09
1.59639e-08
1.2801e-10
1.61098e-08
-2.46986e-09
3.02185e-08
-2.48612e-09
4.73282e-08
-2.18419e-09
4.90081e-08
-2.08959e-09
2.78348e-08
-2.95366e-09
2.37527e-08
-3.73388e-09
6.40942e-08
-7.65877e-09
1.3112e-07
4.81218e-09
8.5355e-08
7.71292e-08
1.28248e-08
4.39225e-08
4.31995e-09
2.43908e-09
4.0413e-09
1.60066e-09
4.03186e-09
3.98351e-10
8.06963e-09
1.61754e-13
1.87737e-08
5.77018e-10
2.02147e-08
1.50656e-09
1.48702e-08
2.90455e-09
3.31818e-09
8.39679e-10
2.26258e-11
-2.7337e-11
1.85318e-11
-6.36181e-12
2.19104e-11
-1.37963e-11
2.61233e-11
-1.72341e-11
1.50975e-10
-2.68288e-11
1.0003e-09
-2.51728e-11
1.95311e-09
-5.81967e-11
1.92527e-09
-3.01613e-10
1.99631e-09
-3.49978e-10
2.34853e-09
-2.76875e-10
2.55255e-09
1.63233e-11
9.06055e-09
1.25636e-10
2.88255e-08
2.0612e-09
3.01484e-08
1.76375e-09
2.48496e-08
1.81412e-10
6.67851e-09
6.80324e-09
7.25851e-22
1.39041e-09
7.34566e-35
3.03969e-22
6.95087e-36
3.81975e-36
-9.60475e-33
-1.97921e-33
-9.80262e-33
-1.74458e-33
-5.94701e-33
-9.83886e-34
-2.81589e-33
-4.48072e-34
-1.14918e-33
-1.78644e-34
-4.23557e-34
-6.48593e-35
-1.44583e-34
-2.19237e-35
-4.63789e-35
-6.9902e-36
-1.4104e-35
-2.11885e-36
-4.08757e-36
-6.13325e-37
-1.13182e-36
-1.69861e-37
-2.99464e-37
-4.50017e-38
-7.55887e-38
-1.13857e-38
-1.81558e-38
-2.74376e-39
-4.13892e-39
-6.27946e-40
-8.93574e-40
-1.36155e-40
-1.82425e-40
-2.79252e-41
-3.51848e-41
-5.41111e-42
-6.40835e-42
-9.90659e-43
-1.102e-42
-1.71333e-43
-1.78916e-43
-2.79816e-44
-2.74264e-44
-4.31472e-45
-3.96975e-45
-6.28159e-46
-5.42551e-46
-8.63525e-47
-7.00151e-47
-1.12103e-47
-8.53069e-48
-1.37441e-48
-9.81227e-49
-1.59099e-49
-1.06534e-49
-1.73829e-50
-1.09163e-50
-1.79222e-51
-1.05551e-51
-1.74348e-52
-9.62903e-53
-1.60016e-53
-8.28649e-54
-1.38543e-54
-6.72604e-55
-1.13144e-55
-5.14858e-56
-8.71447e-57
-3.71615e-57
-6.32923e-58
-2.52884e-58
-4.33386e-59
-1.62226e-59
-2.79728e-60
-9.80945e-61
-1.70179e-61
-5.59049e-62
-9.75687e-63
-3.00259e-63
-5.27174e-64
-1.51966e-64
-2.6838e-65
-7.24712e-66
-1.28745e-66
-3.25628e-67
-5.81814e-68
-1.3784e-68
-2.47725e-69
-5.49673e-70
-9.93482e-71
-2.06474e-71
-3.75339e-72
-7.30533e-73
-1.33545e-73
-2.43435e-74
-4.47544e-75
-7.63968e-76
-1.41232e-76
-2.25774e-77
-4.19712e-78
-6.28289e-79
-1.17441e-79
-1.64622e-80
-3.09388e-81
-4.06109e-82
-7.67391e-83
-9.43148e-84
-1.79161e-84
-2.06195e-85
-3.93802e-86
-4.24325e-87
-8.14556e-88
-8.21894e-89
-1.58615e-89
-1.49829e-90
-2.90593e-91
-2.57043e-92
-5.01155e-93
-4.1497e-94
-8.13009e-95
-6.30363e-96
-1.24138e-96
-9.00954e-98
-1.78277e-98
-1.21146e-99
-2.40925e-100
-1.53245e-101
-3.06211e-102
-1.82342e-103
-3.66136e-104
-2.04076e-105
-4.1172e-106
-2.14807e-107
-4.35428e-108
-2.12635e-109
-4.33068e-110
-1.97925e-111
-4.04972e-112
-1.73228e-113
-3.56117e-114
-1.42541e-115
-2.94357e-116
-1.10264e-117
-2.2877e-118
-8.01778e-120
-1.67088e-120
-5.47977e-122
-1.14738e-122
-3.51967e-124
-7.4049e-125
-2.12433e-126
-4.49275e-127
-1.20453e-128
-2.56508e-129
-6.41487e-131
-1.3761e-131
-6.74789e-134
-3.21246e-133
3.17831e-10
-2.15905e-11
3.09735e-10
-4.24579e-14
2.72779e-10
-9.74922e-11
2.66494e-10
-8.5609e-11
2.70693e-10
-1.21457e-10
2.87948e-10
-9.15571e-11
3.48154e-10
-3.25716e-11
3.37473e-10
2.31875e-11
3.06842e-10
1.20645e-11
3.08615e-10
-6.99898e-11
3.22386e-10
-1.63343e-10
3.57676e-10
-1.71306e-10
7.81742e-10
-1.81188e-10
4.25702e-09
3.75156e-14
2.52068e-08
1.63594e-13
6.08692e-08
1.6334e-13
8.84701e-08
-7.90547e-09
9.6996e-08
-2.92644e-08
9.78242e-08
-2.93504e-08
8.5606e-08
-2.41013e-08
6.80866e-08
-1.84509e-08
4.66719e-08
-1.41121e-08
2.48107e-08
-8.1573e-09
9.81622e-09
-2.39103e-09
9.88169e-09
-8.39984e-10
3.75744e-08
-2.9708e-10
1.36121e-07
6.3808e-09
2.08483e-07
3.407e-08
2.18451e-07
2.04794e-08
2.09882e-07
1.78515e-09
2.01544e-07
-2.71649e-08
1.62608e-07
-2.14657e-08
4.23881e-08
1.31304e-08
1.02162e-08
5.98119e-11
1.13607e-08
-2.75813e-10
1.17414e-08
4.7273e-10
1.25378e-08
-5.62103e-10
9.46e-09
-5.94621e-10
4.66559e-09
-1.44596e-09
4.91917e-09
-2.21516e-09
1.59475e-08
-4.62861e-09
7.82447e-08
3.05281e-09
8.99116e-08
4.24667e-08
7.54415e-08
1.63551e-08
2.2311e-08
2.5347e-08
4.66263e-09
6.51856e-09
3.54098e-09
2.26019e-09
3.48226e-09
7.98961e-10
9.13442e-09
1.59727e-10
1.28374e-08
1.58632e-09
1.08953e-08
1.75368e-09
2.90177e-09
6.42236e-10
2.41087e-11
-3.24981e-11
1.86792e-11
-9.24221e-13
2.21093e-11
-1.72265e-11
2.63244e-11
-2.14412e-11
3.42757e-11
-2.52162e-11
8.18278e-11
-1.99913e-11
2.90945e-10
-2.27133e-11
7.58794e-10
-8.24862e-11
1.28301e-09
-2.61788e-10
1.67572e-09
-1.77914e-10
2.03657e-09
4.90345e-11
4.19142e-09
1.25732e-10
1.49251e-08
3.24782e-10
2.96383e-08
1.9627e-09
2.74101e-08
1.82555e-09
1.73353e-08
1.42733e-09
6.41734e-10
5.86209e-09
1.10377e-23
3.03745e-11
1.97921e-33
8.48973e-26
-1.56888e-44
-3.9942e-45
-1.54191e-32
-3.41802e-33
-1.09915e-32
-2.27144e-33
-5.2739e-33
-1.04898e-33
-2.05133e-33
-3.98666e-34
-7.05556e-34
-1.35076e-34
-2.252e-34
-4.26924e-35
-6.79696e-35
-1.28076e-35
-1.94356e-35
-3.65037e-36
-5.25497e-36
-9.85768e-37
-1.34475e-36
-2.52311e-37
-3.2716e-37
-6.14638e-38
-7.61115e-38
-1.43327e-38
-1.70124e-38
-3.21415e-39
-3.66123e-39
-6.94433e-40
-7.58153e-40
-1.4442e-40
-1.50666e-40
-2.88331e-41
-2.86344e-41
-5.50533e-42
-5.18662e-42
-1.00236e-42
-8.92751e-43
-1.73521e-43
-1.45695e-43
-2.84858e-44
-2.25068e-44
-4.42644e-45
-3.28724e-45
-6.50271e-46
-4.53572e-46
-9.02476e-47
-5.90881e-47
-1.18272e-47
-7.26446e-48
-1.46315e-48
-8.42571e-49
-1.70788e-49
-9.21711e-50
-1.8801e-50
-9.50772e-51
-1.9514e-51
-9.24656e-52
-1.90936e-52
-8.47708e-53
-1.76106e-53
-7.32532e-54
-1.53105e-54
-5.96594e-55
-1.25458e-55
-4.57897e-56
-9.68877e-57
-3.31176e-57
-7.05121e-58
-2.25698e-58
-4.83534e-59
-1.44926e-59
-3.12398e-60
-8.76793e-61
-1.90153e-61
-4.99756e-62
-1.09035e-62
-2.68355e-63
-5.88995e-64
-1.35749e-64
-2.99699e-65
-6.46875e-66
-1.43657e-66
-2.90364e-67
-6.48561e-68
-1.22767e-68
-2.75814e-69
-4.889e-70
-1.10464e-70
-1.83372e-71
-4.16706e-72
-6.47743e-73
-1.48026e-73
-2.15476e-74
-4.95215e-75
-6.75005e-76
-1.55995e-76
-1.99108e-77
-4.62709e-78
-5.53009e-79
-1.29222e-79
-1.44609e-80
-3.39746e-81
-3.56014e-82
-8.40978e-83
-8.25099e-84
-1.95935e-84
-1.80009e-85
-4.29769e-86
-3.69652e-87
-8.87076e-88
-7.14467e-89
-1.72366e-89
-1.29965e-90
-3.1511e-91
-2.22484e-92
-5.42257e-93
-3.58399e-94
-8.77794e-95
-5.43246e-96
-1.33737e-96
-7.74752e-98
-1.91647e-98
-1.0395e-99
-2.58427e-100
-1.31206e-101
-3.27746e-102
-1.5578e-103
-3.9103e-104
-1.7397e-105
-4.38764e-106
-1.82721e-107
-4.63021e-108
-1.80483e-109
-4.59521e-110
-1.67635e-111
-4.2878e-112
-1.46403e-113
-3.76245e-114
-1.2021e-115
-3.10328e-116
-9.27913e-118
-2.40668e-118
-6.73288e-120
-1.75405e-120
-4.59185e-122
-1.20194e-122
-2.94313e-124
-7.74064e-125
-1.77261e-126
-4.68656e-127
-1.00299e-128
-2.67016e-129
-5.3304e-131
-1.42944e-131
-6.99493e-134
-2.66382e-133
1.29059e-09
-1.55533e-10
2.95561e-10
-7.93106e-11
2.49551e-10
-2.05231e-11
2.51479e-10
-8.71959e-11
2.67697e-10
-1.06827e-10
2.82086e-10
-1.05601e-10
2.95582e-10
-1.52868e-11
2.86994e-10
3.21237e-11
2.80788e-10
4.89827e-11
2.78155e-10
-6.65577e-11
3.19914e-10
-1.7408e-10
3.41596e-10
-2.03376e-10
5.81558e-10
-8.6639e-11
2.3519e-09
7.66692e-12
1.06518e-08
7.59405e-12
3.40427e-08
-1.41218e-09
7.02106e-08
-1.01276e-08
8.03815e-08
-2.46457e-08
7.84978e-08
-2.22765e-08
6.35808e-08
-1.69174e-08
4.38918e-08
-1.15284e-08
2.35648e-08
-6.91471e-09
7.84642e-09
-2.13602e-09
1.72093e-09
-3.41923e-10
1.66097e-09
-2.49976e-10
4.82939e-09
-6.52006e-11
4.13903e-08
7.50036e-14
9.38685e-08
1.01349e-08
1.07127e-07
8.73198e-09
1.14959e-07
1.00862e-09
1.6058e-07
-7.16636e-09
1.27552e-07
1.36032e-09
7.31542e-08
5.22886e-08
3.00369e-08
1.02027e-08
8.71718e-09
-1.43116e-09
3.33161e-09
-6.16685e-10
3.11637e-09
-3.45771e-10
3.28353e-09
-7.60004e-10
3.63458e-09
-1.79593e-09
4.11247e-09
-2.69127e-09
6.9636e-09
-3.28198e-09
4.31372e-08
1.55002e-10
7.8748e-08
1.91474e-08
5.95341e-08
1.39082e-08
3.41804e-08
8.67762e-09
6.18145e-09
1.20417e-08
2.66435e-09
3.27834e-09
1.96189e-09
1.03334e-09
4.04705e-09
1.69821e-10
5.52863e-09
6.03143e-10
4.49243e-09
6.2424e-10
1.12445e-09
1.67775e-10
2.02971e-11
-1.19284e-11
1.6294e-11
-8.61757e-12
2.02097e-11
-2.11342e-11
2.40582e-11
-2.52898e-11
2.58892e-11
-2.7039e-11
4.03859e-11
-3.07739e-11
7.63982e-11
-5.81805e-11
1.79243e-10
-1.75862e-10
4.53156e-10
-3.61983e-10
8.55717e-10
-7.27877e-11
1.34461e-09
3.35439e-10
1.9082e-09
5.16881e-10
5.83356e-09
3.77784e-13
1.35909e-08
1.92562e-10
1.9525e-08
1.39076e-09
1.7762e-08
1.85916e-09
9.082e-09
2.91564e-09
6.67121e-22
2.5284e-09
2.25878e-28
6.67674e-22
-5.21107e-31
-1.70128e-31
-1.64709e-31
-4.36804e-32
-2.64185e-32
-6.54683e-33
-5.68919e-33
-1.35777e-33
-1.80932e-33
-4.21975e-34
-6.39812e-34
-1.46996e-34
-2.12954e-34
-4.84485e-35
-6.4895e-35
-1.46749e-35
-1.82437e-35
-4.11208e-36
-4.79283e-36
-1.07896e-36
-1.19216e-36
-2.68434e-37
-2.8408e-37
-6.40484e-38
-6.54168e-38
-1.47834e-38
-1.46197e-38
-3.31472e-39
-3.16985e-39
-7.2152e-40
-6.64285e-40
-1.51855e-40
-1.33833e-40
-3.07357e-41
-2.57832e-41
-5.94888e-42
-4.72855e-42
-1.09666e-42
-8.22726e-43
-1.91902e-43
-1.35482e-43
-3.17883e-44
-2.10819e-44
-4.97569e-45
-3.09659e-45
-7.35103e-46
-4.29052e-46
-1.02447e-46
-5.60524e-47
-1.34641e-47
-6.90253e-48
-1.66838e-48
-8.01058e-49
-1.94856e-49
-8.75999e-50
-2.14432e-50
-9.02594e-51
-2.22311e-51
-8.76213e-52
-2.17128e-52
-8.01391e-53
-1.99789e-53
-6.90543e-54
-1.73202e-54
-5.6059e-55
-1.4147e-55
-4.28754e-56
-1.0887e-56
-3.0894e-57
-7.89365e-58
-2.09723e-58
-5.39192e-59
-1.34127e-59
-3.46958e-60
-8.0814e-61
-2.10325e-61
-4.58724e-62
-1.20104e-62
-2.45304e-63
-6.46107e-64
-1.23578e-64
-3.27407e-65
-5.8647e-66
-1.56297e-66
-2.62188e-67
-7.02785e-68
-1.10414e-68
-2.97685e-69
-4.37991e-70
-1.18759e-70
-1.63649e-71
-4.46282e-72
-5.7591e-73
-1.57939e-73
-1.90879e-74
-5.26441e-75
-5.9581e-76
-1.6524e-76
-1.75134e-77
-4.88414e-78
-4.84761e-79
-1.35936e-79
-1.26341e-80
-3.56207e-81
-3.10027e-82
-8.78857e-83
-7.16239e-84
-2.04111e-84
-1.55775e-85
-4.46314e-86
-3.1892e-87
-9.18444e-88
-6.1459e-89
-1.77933e-89
-1.11474e-90
-3.24351e-91
-1.90292e-92
-5.56581e-93
-3.05696e-94
-8.98505e-95
-4.62111e-96
-1.36522e-96
-6.57302e-98
-1.95124e-98
-8.79634e-100
-2.62434e-100
-1.10748e-101
-3.3199e-102
-1.31164e-103
-3.95109e-104
-1.46124e-105
-4.42269e-106
-1.5311e-107
-4.65609e-108
-1.50882e-109
-4.61016e-110
-1.39821e-111
-4.29191e-112
-1.21838e-113
-3.75764e-114
-9.98201e-116
-3.0925e-116
-7.68861e-118
-2.39314e-118
-5.567e-120
-1.74049e-120
-3.78883e-122
-1.19017e-122
-2.42347e-124
-7.64926e-125
-1.45671e-126
-4.62195e-127
-8.2262e-129
-2.6282e-129
-4.36336e-131
-1.40421e-131
-6.85847e-134
-2.17641e-133
5.47111e-09
-2.55447e-10
8.89321e-10
-4.30204e-10
2.70159e-10
-1.15515e-10
2.58055e-10
-1.64353e-10
2.53105e-10
-2.09469e-10
2.68297e-10
-8.94506e-11
2.71206e-10
-1.78507e-11
2.4579e-10
8.8321e-11
2.41684e-10
7.13173e-11
2.73874e-10
-1.18322e-10
3.05726e-10
-2.24392e-10
3.86447e-10
-2.18567e-10
3.61176e-10
-8.61872e-11
1.77744e-09
3.23686e-12
1.12331e-08
4.5017e-10
4.27771e-08
3.00087e-09
5.28092e-08
-3.48588e-09
4.95789e-08
-4.9425e-09
4.52675e-08
-3.42206e-09
3.50546e-08
-2.11157e-09
1.96856e-08
-1.17865e-09
6.34064e-09
-4.68985e-10
7.35963e-10
-3.56474e-10
5.41806e-10
-2.55101e-10
5.73332e-10
-2.19302e-10
8.16167e-10
-4.04344e-11
4.83416e-09
2.62287e-11
2.50025e-08
3.65658e-15
3.5765e-08
1.70964e-09
4.20193e-08
1.89841e-10
8.22173e-08
-7.7233e-10
1.89756e-07
4.1587e-09
1.23583e-07
8.70489e-08
7.22155e-08
3.49791e-08
4.8838e-08
-5.69066e-09
3.05231e-08
-6.41567e-09
1.8795e-08
-5.82174e-09
1.12457e-08
-5.42588e-09
6.26392e-09
-8.24333e-09
3.99648e-09
-4.95807e-09
4.69637e-09
-3.98187e-09
1.43157e-08
1.14931e-09
3.35857e-08
7.58441e-09
2.8271e-08
5.78843e-09
1.76407e-08
1.13644e-09
8.23384e-09
1.04497e-08
2.44924e-09
6.23905e-09
1.12478e-09
1.88883e-09
1.31949e-09
1.19985e-09
1.61092e-09
1.28877e-10
1.11181e-09
4.61234e-11
2.31901e-10
1.06719e-14
4.0842e-11
-1.65964e-11
4.62788e-11
-7.68726e-11
5.08862e-11
-6.20326e-11
5.48636e-11
-3.58491e-11
8.70175e-11
-2.67406e-11
2.64006e-10
-3.44719e-11
7.63983e-10
-1.25644e-10
1.42486e-09
-5.83445e-10
1.77184e-09
-1.23027e-09
1.53366e-09
-5.26995e-10
1.42168e-09
4.57802e-10
1.35467e-09
5.94507e-10
2.61763e-09
-5.14864e-12
5.34291e-09
1.65773e-13
8.38835e-09
1.5427e-10
9.20868e-09
1.07598e-09
6.19751e-09
1.17678e-09
1.31525e-09
1.01435e-09
0
6.83823e-11
-3.8071e-32
-1.49143e-33
-1.35666e-32
-4.18759e-33
-5.9297e-33
-1.71329e-33
-2.8554e-33
-7.94917e-34
-1.1959e-33
-3.25383e-34
-4.31961e-34
-1.15782e-34
-1.40152e-34
-3.71997e-35
-4.20754e-35
-1.11005e-35
-1.18957e-35
-3.12816e-36
-3.20717e-36
-8.4234e-37
-8.32852e-37
-2.18787e-37
-2.09665e-37
-5.51499e-38
-5.12486e-38
-1.3512e-38
-1.21277e-38
-3.20804e-39
-2.76322e-39
-7.338e-40
-6.02476e-40
-1.60682e-40
-1.25039e-40
-3.35028e-41
-2.46035e-41
-6.6229e-42
-4.57715e-42
-1.23849e-42
-8.03654e-43
-2.18699e-43
-1.3303e-43
-3.64158e-44
-2.07477e-44
-5.71306e-45
-3.04783e-45
-8.44132e-46
-4.21644e-46
-1.1746e-46
-5.49304e-47
-1.53939e-47
-6.7389e-48
-1.90034e-48
-7.78555e-49
-2.20951e-49
-8.47101e-50
-2.41923e-50
-8.68071e-51
-2.49448e-51
-8.37882e-52
-2.4224e-52
-7.61815e-53
-2.21582e-53
-6.52508e-54
-1.90943e-54
-5.26524e-55
-1.55023e-55
-4.00285e-56
-1.18584e-56
-2.86718e-57
-8.54708e-58
-1.93504e-58
-5.80427e-59
-1.23051e-59
-3.71368e-60
-7.37296e-61
-2.23875e-61
-4.16261e-62
-1.27155e-62
-2.21439e-63
-6.80479e-64
-1.10995e-64
-3.43094e-65
-5.24205e-66
-1.62992e-66
-2.3326e-67
-7.29477e-68
-9.77909e-69
-3.07605e-69
-3.86247e-70
-1.22189e-70
-1.43718e-71
-4.57264e-72
-5.03755e-73
-1.61183e-73
-1.66325e-74
-5.35196e-75
-5.17261e-76
-1.67371e-76
-1.51507e-77
-4.92964e-78
-4.17939e-79
-1.36736e-79
-1.08569e-80
-3.57132e-81
-2.65578e-82
-8.78366e-83
-6.11689e-84
-2.03379e-84
-1.32647e-85
-4.43411e-86
-2.70805e-87
-9.09904e-88
-5.20448e-89
-1.75798e-89
-9.4151e-91
-3.1962e-91
-1.60312e-92
-5.47068e-93
-2.56904e-94
-8.80993e-95
-3.87434e-96
-1.33543e-96
-5.49821e-98
-1.90432e-98
-7.34169e-100
-2.55554e-100
-9.22355e-102
-3.22597e-102
-1.09013e-103
-3.83133e-104
-1.21203e-105
-4.28007e-106
-1.26751e-107
-4.49718e-108
-1.24672e-109
-4.44449e-110
-1.15323e-111
-4.13016e-112
-1.00314e-113
-3.60968e-114
-8.20461e-116
-2.96568e-116
-6.30919e-118
-2.29124e-118
-4.56095e-120
-1.66374e-120
-3.09935e-122
-1.13593e-122
-1.97951e-124
-7.28986e-125
-1.18814e-126
-4.39846e-127
-6.70026e-129
-2.49768e-129
-3.54921e-131
-1.33266e-131
-6.50056e-134
-1.76804e-133
1.39657e-08
9.92963e-11
2.21969e-09
-2.1114e-10
1.07744e-09
-9.47703e-11
1.07048e-09
-3.31427e-10
9.80953e-10
-4.94807e-10
5.19641e-10
-4.6884e-10
2.69032e-10
-2.49846e-11
2.51485e-10
1.59534e-10
4.97809e-10
1.54339e-10
6.29038e-10
-2.27823e-10
4.58952e-10
-5.64182e-11
3.63612e-10
-1.66808e-10
4.48982e-10
-1.02425e-10
1.37497e-09
1.92192e-11
7.05969e-09
5.67391e-10
1.19478e-08
4.24176e-10
8.80671e-09
-4.18456e-10
5.76046e-09
-3.9245e-10
4.27895e-09
-2.27736e-10
2.86791e-09
-1.45209e-10
1.39751e-09
-1.27781e-10
5.42493e-10
-1.48446e-10
5.07976e-10
-1.62661e-10
4.56863e-10
-2.03166e-10
4.86449e-10
-2.49709e-10
5.23873e-10
-7.70371e-11
5.66031e-10
-1.67509e-11
1.05039e-09
3.92127e-10
4.06116e-09
2.76671e-10
7.33874e-09
2.344e-15
2.56019e-08
3.46657e-14
1.2012e-07
6.93511e-09
1.60853e-07
4.59228e-08
1.40065e-07
4.8664e-08
1.27151e-07
-7.73663e-09
1.11246e-07
-1.71251e-08
9.31874e-08
-9.85392e-09
6.97203e-08
-1.4025e-08
4.04707e-08
-2.95408e-08
7.72545e-09
-1.62556e-08
4.39042e-09
-6.46843e-10
4.39691e-09
1.14284e-09
7.03909e-09
3.93221e-09
8.28864e-09
1.16393e-12
8.17957e-09
7.0401e-09
1.38893e-08
8.12575e-09
1.06477e-08
9.31562e-09
2.54811e-09
7.8317e-09
5.10093e-11
1.38428e-09
5.75965e-11
9.07885e-11
5.15953e-11
1.955e-11
8.39602e-11
5.51768e-14
1.01857e-10
-1.81688e-11
1.19827e-10
-7.85584e-11
1.07982e-10
-8.92509e-11
1.00764e-10
-3.68279e-11
1.44143e-10
-2.20007e-11
4.84888e-10
-3.44427e-11
1.87215e-09
-9.17378e-11
2.86836e-09
-5.72831e-10
3.00012e-09
-1.36297e-09
3.12593e-09
-6.51873e-10
2.91831e-09
6.6449e-10
2.16708e-09
1.3387e-09
2.06233e-09
1.22379e-09
2.60585e-09
2.98464e-13
2.67649e-09
4.08887e-12
2.77436e-09
1.12343e-10
2.08808e-09
2.18548e-10
6.77826e-10
1.7427e-10
0
3.64626e-11
2.29926e-33
0
-1.04878e-33
-3.69252e-34
-1.71972e-33
-5.67523e-34
-1.09e-33
-3.46722e-34
-4.93605e-34
-1.53472e-34
-1.89152e-34
-5.79392e-35
-6.60193e-35
-2.00254e-35
-2.16738e-35
-6.53467e-36
-6.78777e-36
-2.03988e-36
-2.04038e-36
-6.12431e-37
-5.89409e-37
-1.7695e-37
-1.63226e-37
-4.90672e-38
-4.31422e-38
-1.29994e-38
-1.08314e-38
-3.27441e-39
-2.57279e-39
-7.80827e-40
-5.76529e-40
-1.75726e-40
-1.21665e-40
-3.72554e-41
-2.41561e-41
-7.43134e-42
-4.5105e-42
-1.3948e-42
-7.91993e-43
-2.46316e-43
-1.30784e-43
-4.09156e-44
-2.03144e-44
-6.39289e-45
-2.96873e-45
-9.39688e-46
-4.08273e-46
-1.29984e-46
-5.28495e-47
-1.69268e-47
-6.44057e-48
-2.0757e-48
-7.39054e-49
-2.39707e-49
-7.98666e-50
-2.60679e-50
-8.12934e-51
-2.6698e-51
-7.7948e-52
-2.57554e-52
-7.04152e-53
-2.34073e-53
-5.99356e-54
-2.00449e-54