/*--------------------------------*- C++ -*----------------------------------*\
| =========                 |                                                 |
| \\      /  F ield         | OpenFOAM: The Open Source CFD Toolbox           |
|  \\    /   O peration     | Version:  v1912                                 |
|   \\  /    A nd           | Website:  www.openfoam.com                      |
|    \\/     M anipulation  |                                                 |
\*---------------------------------------------------------------------------*/
FoamFile
{
    version     2.0;
    format      ascii;
    class       volScalarField;
    location    "60";
    object      omega;
}
// * * * * * * * * * * * * * * * * * * * * * * * * * * * * * * * * * * * * * //

dimensions      [0 0 -1 0 0 0 0];


internalField   nonuniform List<scalar> 
14268
(
3.01303
3.01304
3.01311
3.07163
7.74861
14.9307
19.9145
19.7315
18.9573
17.7563
17.4672
17.5911
18.2596
17.9267
17.4519
25.6094
30.6067
32.6448
50.9917
53.3523
47.1506
30.0638
57.5198
90.5797
103.496
96.1302
82.5718
81.0798
97.09
104.074
94.0261
90.5144
118.872
158.098
123.534
73.7235
155.223
187.096
210.014
219.551
186.389
161.216
152.976
211.252
125.003
88.1038
220.825
208.894
236.746
263.187
184.826
143.666
106.777
135.001
141.463
144.903
156.59
168.129
138.273
99.0977
89.1734
81.8881
229.847
205.689
115.253
63.6651
61.91
60.0533
145.151
133.649
143.951
126.384
111.178
114.42
137.059
205.06
143.747
202.193
90.5032
171.972
185.57
177.374
140.804
67.6704
107.316
127.347
103.625
74.1078
88.8173
105.174
88.6863
106.45
92.4069
121.156
53.3768
123.635
213.024
197.045
193.935
211.791
132.265
103.034
132.29
147.63
1.18675
1.08809
0.922447
0.674579
1.52423
3.55533
5.83108
6.60783
6.69478
6.39544
6.0848
6.07768
6.2015
6.22584
6.60007
9.78532
13.4645
14.0592
16.6382
17.2387
22.4796
21.2131
26.563
33.3017
36.2729
33.9639
30.1067
29.5739
35.4082
38.4456
36.4729
36.4112
44.0256
59.1488
51.4904
39.9934
66.5217
77.0745
85.1448
83.3438
63.5165
63.7138
65.5161
76.2848
53.5935
47.6154
68.5235
70.5957
78.0815
96.4816
60.406
63.9642
45.8257
54.5396
69.1902
70.897
66.3006
73.3564
60.6876
58.6601
40.9302
43.9492
98.7748
88.1472
60.6472
36.6899
33.5287
34.598
58.3181
59.1758
49.6823
44.2283
46.7765
47.6958
62.5329
79.277
70.7912
77.4465
46.8052
65.8873
69.082
67.3479
69.336
53.3637
47.0532
49.0686
46.4588
38.4428
38.0581
41.1452
37.2675
50.8858
57.511
81.3194
36.8948
53.7317
86.5345
88.5367
88.1904
88.2505
55.4694
44.1487
53.3639
52.0191
0.567615
0.538131
0.471309
0.400537
0.805846
1.85486
3.1987
3.90372
4.14432
4.04215
3.86398
3.83355
3.88042
3.93439
4.23325
6.18786
8.89019
9.72299
10.3657
10.3895
15.5973
17.8334
18.9814
21.7971
23.3759
21.8213
19.7315
19.794
23.4518
25.5006
24.6731
25.1543
29.5076
38.4733
36.1802
31.6464
46.6561
52.603
56.3799
52.4208
41.196
42.3766
45.4161
53.6504
38.8265
35.5712
43.9853
45.8171
50.6739
59.7193
40.3932
45.0239
34.7485
41.5311
53.1334
51.7901
47.63
55.4164
46.3731
48.5282
33.5606
47.5082
61.1158
58.2745
52.1127
39.5888
31.9051
29.5665
38.8841
38.0841
31.4807
28.6573
31.4585
50.7909
77.9583
60.1245
54.6552
54.5493
35.106
45.8407
50.9103
54.3303
46.8214
40.9304
42.4667
35.7184
34.8226
32.2089
33.1012
33.5751
32.4996
39.9355
50.7117
57.1272
32.4696
45.8791
57.5513
58.042
60.9003
61.3962
41.3437
32.8747
37.5747
32.7738
0.352539
0.342881
0.30713
0.336837
0.635857
1.346
2.2681
2.84594
3.10887
3.0726
2.96848
2.94259
2.97578
3.04056
3.30692
4.74528
7.0035
7.94963
7.70872
7.84264
12.6961
14.6759
15.917
17.0839
17.8947
16.7125
15.4647
15.8473
18.6057
20.2999
20.087
20.8429
23.6924
29.2763
29.5688
29.3535
38.87
41.5113
41.7627
37.9241
32.5401
34.9515
37.6396
44.0024
32.5557
32.8987
35.0051
36.4355
40.4439
45.8069
34.1917
41.0386
31.1029
35.9029
47.65
42.4254
42.0905
47.8846
41.0256
44.7757
31.8518
51.2583
45.5435
46.2123
50.4758
41.3971
32.2988
28.1552
32.9339
30.4079
25.0103
24.5512
38.9147
90.8169
122.69
62.1802
48.5955
46.9742
33.2812
38.3298
43.8717
59.8838
41.601
33.2816
41.4523
30.992
30.6826
29.6761
34.0354
35.7099
30.23
35.7133
47.8154
45.0476
29.1948
43.3052
45.5145
46.4447
50.2664
51.0377
35.3491
29.0904
39.1944
26.28
0.274996
0.271807
0.261124
0.327568
0.594825
1.14328
1.83723
2.31091
2.55935
2.55133
2.48607
2.46935
2.50107
2.57613
2.83357
4.01359
6.03676
6.93516
6.30573
6.68766
10.8332
13.389
14.0283
14.502
14.9
13.9048
12.9916
13.4971
15.7146
17.2299
17.3448
18.2069
20.3334
24.944
25.8408
27.6363
33.3982
34.9164
35.7354
32.4611
28.1973
29.5551
32.4077
39.5837
29.7473
31.7115
30.1879
31.0962
34.132
38.7401
34.0224
40.1407
29.817
32.9062
47.4347
38.5184
38.9464
44.1566
36.8809
40.7964
30.7592
53.5838
39.6939
40.4501
48.2396
42.1242
32.1263
29.5695
29.5276
26.1151
25.0185
24.1248
44.5791
63.338
87.9993
115.918
47.7279
41.4874
35.2726
34.3084
43.5481
57.4725
47.2427
39.0719
40.4475
28.3108
28.8041
29.219
36.9141
39.6686
31.1999
32.6044
46.2626
40.8565
30.4023
42.1522
41.552
39.7688
42.7339
44.3635
32.7091
27.1539
65.8616
24.2642
0.246635
0.246742
0.250216
0.343759
0.603888
1.05672
1.60561
1.99965
2.22642
2.2339
2.19224
2.18484
2.21904
2.29971
2.54714
3.57087
5.4521
6.24828
5.40523
6.01146
9.47793
12.969
13.0331
12.9484
12.968
12.1167
11.3394
11.7271
13.5214
14.9365
15.2955
16.1347
17.7035
22.2522
23.63
26.5727
29.6299
31.0428
32.5355
29.3436
25.3826
26.2517
29.0323
37.5272
28.4724
32.3748
27.524
27.4522
30.9454
34.9028
39.4498
59.7523
29.4881
32.0472
46.6538
35.4778
36.6042
39.9202
35.2733
37.2647
32.0944
53.1567
36.9502
37.3818
47.5224
40.7732
30.8317
33.6396
29.9587
28.6133
31.8305
26.8515
41.4967
53.0858
72.3737
109.749
45.5161
38.2051
35.2714
31.5443
42.422
58.1605
50.9453
42.9998
38.7928
26.7665
27.6056
28.848
42.3326
37.9974
31.9848
31.6002
45.9546
39.1991
36.4299
42.0073
38.2503
35.9698
37.9752
40.3586
33.7596
26.7528
57.1495
22.6955
0.235183
0.238195
0.253062
0.373974
0.638696
1.02703
1.47346
1.80536
2.00969
2.0237
1.99626
1.99701
2.03618
2.12389
2.36639
3.2906
5.08717
5.75402
4.8438
5.59847
8.55616
12.5013
12.6868
11.9913
11.8706
11.0981
10.2848
10.4186
11.8686
13.2323
13.6553
14.4724
15.9417
20.1374
21.9892
26.153
27.0777
28.3404
29.9032
27.1411
24.0941
24.5474
26.3346
35.5669
27.2862
31.9411
26.1295
25.2358
28.9966
32.6594
43.6363
58.2993
31.0439
32.2629
40.8397
34.5804
35.4803
37.0422
33.474
36.3437
36.7489
46.1129
34.5745
35.1894
43.9033
40.8624
29.7297
35.5079
33.2177
34.7978
51.9808
33.5401
41.9693
47.6506
59.0058
99.0601
43.3549
34.548
34.9299
29.9182
41.055
50.8464
49.889
44.4889
36.5167
25.9079
26.9559
28.1991
42.4468
35.4687
32.3762
31.1126
43.5879
37.0617
37.1704
39.437
36.7927
33.2044
34.805
38.7182
36.6053
26.8983
43.5349
22.1636
0.230482
0.235316
0.264632
0.413529
0.688756
1.02871
1.39614
1.67605
1.85769
1.87785
1.86196
1.86991
1.91456
2.00761
2.24505
3.09178
4.82461
5.34588
4.48119
5.3114
7.73836
12.1516
12.5683
11.3578
11.102
10.4369
9.58001
9.49713
10.6273
11.9417
12.4076
13.2389
14.6325
18.1808
20.7929
25.3873
25.3241
26.5042
27.3955
25.1274
22.8265
23.6321
25.268
33.8798
26.6586
31.6576
25.1361
23.9996
27.8211
31.9109
42.9748
55.1342
31.8266
33.4763
36.7145
35.809
35.391
34.3043
32.4649
36.2362
38.6995
39.3388
32.348
33.588
41.3314
40.9825
28.5459
38.0481
39.0214
41.4448
90.3534
35.9185
42.3242
44.2342
51.6278
83.3361
39.2421
33.6388
36.3946
29.0655
42.8515
53.492
53.4748
46.7308
35.3528
25.3035
26.8941
29.1654
36.8969
34.5069
33.3519
31.0069
41.7462
35.025
34.2666
40.507
36.5056
31.2592
33.1584
39.436
38.3046
27.099
36.4241
21.7994
0.229246
0.235061
0.281168
0.460183
0.749085
1.0495
1.35298
1.58878
1.74925
1.77364
1.76733
1.78223
1.83403
1.93169
2.16396
2.94618
4.62747
5.04035
4.27859
5.13553
7.15348
11.8188
12.0439
10.8274
10.4734
9.88263
9.07106
8.86792
9.75501
11.0526
11.5522
12.4125
13.6395
16.5396
19.7363
25.0994
24.2972
24.9837
25.3563
23.6193
21.5112
22.9524
26.6616
32.8994
27.8608
31.405
24.257
23.2801
26.6603
31.0695
39.3344
48.304
32.5949
36.2296
33.7113
42.0624
37.5515
31.7883
31.1601
36.0021
40.434
33.6297
30.0193
32.0986
40.0613
40.7841
29.2427
38.4125
39.1486
45.8535
74.5856
34.1827
44.2729
42.0901
47.9777
68.8347
36.56
36.7594
39.4654
28.3981
42.2849
47.7964
60.6403
50.668
32.7962
24.7515
27.9513
29.7478
33.7923
34.4179
33.3574
31.5027
40.6295
33.8548
35.0493
40.1461
37.2274
30.0781
32.3785
37.3828
40.1893
27.1609
32.0344
21.3638
0.229187
0.235734
0.302563
0.512856
0.816655
1.08169
1.33118
1.5287
1.66869
1.69616
1.69871
1.72095
1.78022
1.8831
2.1088
2.83634
4.47127
4.78249
4.15097
5.02741
6.76156
11.5794
11.6826
10.3619
9.85092
9.3428
8.65834
8.39133
9.13695
10.4309
10.9684
11.817
12.7004
15.0935
18.8984
24.6373
23.6573
23.7557
23.5386
22.5805
20.6451
22.6705
29.0845
32.1126
27.6512
32.2295
23.8052
22.9297
24.6318
29.3014
37.851
44.4039
33.831
39.2371
32.4238
46.642
40.1087
30.48
30.09
36.0861
40.0452
29.1545
27.4199
30.3197
41.6717
39.7706
29.8727
37.6292
38.9937
45.8417
62.465
33.4198
48.7407
42.2697
43.1808
57.1867
36.0557
108.403
44.5056
27.675
41.6022
45.3875
65.168
55.4745
29.5756
24.3499
26.7322
28.3832
32.057
34.1623
33.1105
31.0664
42.981
33.7074
41.321
38.6173
37.2946
29.6112
34.0725
35.6754
40.1388
27.274
29.4303
20.9009
0.230177
0.239986
0.329396
0.570782
0.888454
1.12114
1.32458
1.48823
1.60943
1.63872
1.64961
1.67981
1.74704
1.85582
2.07409
2.75767
4.33946
4.57891
4.06471
4.97862
6.55262
11.3207
11.4251
9.9129
9.27768
8.84351
8.29241
8.02583
8.71498
9.98573
10.5296
11.3082
11.921
14.0108
17.9818
23.7491
22.6472
22.576
21.9125
21.6515
19.8111
22.8538
32.3029
30.5798
27.864
32.0429
23.6361
22.4823
23.5515
28.6252
36.4568
42.1158
34.9943
44.1157
35.1669
41.1316
42.7677
29.1427
28.7284
35.3911
38.7894
26.9062
25.7261
29.163
35.7301
38.9804
30.1945
37.4209
38.2571
44.7784
53.6803
33.1473
50.442
40.9357
39.0691
46.5942
34.1569
76.2898
45.8146
27.196
36.0101
44.444
70.1662
57.6163
28.104
24.152
25.5362
27.7138
30.551
32.9894
32.5017
30.8051
43.9917
37.3997
47.416
41.2234
36.4875
29.4363
33.3212
35.1589
39.3745
26.8213
27.4895
20.6331
0.232729
0.245769
0.361058
0.63311
0.961949
1.16498
1.32825
1.46146
1.56499
1.59545
1.61425
1.65284
1.72874
1.84384
2.05499
2.70388
4.22022
4.39718
3.99997
4.96017
6.45672
11.1222
11.1943
9.47936
8.70919
8.35419
7.9371
7.70648
8.41385
9.65188
10.1997
10.834
11.1465
13.1062
16.979
22.8534
21.8325
21.5984
20.3896
20.5288
19.0423
24.1123
30.7909
28.7216
27.87
31.9484
23.6682
21.7576
22.3433
28.4731
33.5049
40.3241
35.2389
51.4818
34.1917
37.8922
43.5716
28.7058
28.0429
35.0829
36.8943
25.4898
24.4184
30.2633
33.4467
36.8505
30.4555
39.4917
38.4036
44.8047
48.7911
32.8187
54.1756
40.9931
35.3852
41.201
31.1873
54.6391
52.4119
27.0506
33.2012
42.1934
75.6092
55.5269
27.4887
24.0822
24.5432
26.3751
28.9639
32.3231
31.9142
30.2995
47.5506
36.9599
54.3317
44.2671
36.5591
28.9969
32.4072
32.8603
39.5388
26.692
26.0931
20.4879
0.239165
0.259068
0.397926
0.699114
1.03537
1.2114
1.33963
1.44533
1.53259
1.56402
1.59021
1.63763
1.72326
1.84436
2.04925
2.6716
4.10783
4.24327
3.95007
4.96988
6.36856
11.0275
10.9602
9.04718
8.18028
7.90083
7.60553
7.42227
8.15159
9.33655
9.87338
10.3489
10.3756
12.371
16.0716
22.1861
21.1095
20.4856
19.216
19.9391
18.4544
23.8465
29.132
26.9875
27.7809
31.0185
23.0042
20.8448
21.5187
28.4866
30.5144
39.2711
33.2952
51.1771
32.8216
37.3809
44.6815
28.4662
26.6589
33.4521
34.6179
24.6307
23.2593
30.5572
31.7914
35.873
30.7052
40.1232
39.3306
45.1079
43.2412
32.3791
51.6854
40.6681
32.7564
38.4064
28.9042
48.3489
54.8254
25.7658
31.1386
40.6952
78.9316
53.5735
27.3402
23.9517
23.6331
24.4494
27.9427
32.1179
31.2461
29.7837
46.4067
34.3608
51.2984
48.3863
36.1935
28.3124
31.1625
31.0899
39.3686
26.5614
25.0519
20.2183
0.249209
0.276143
0.439013
0.7681
1.1075
1.25904
1.35618
1.43684
1.50921
1.54145
1.57474
1.63145
1.72764
1.85395
2.05373
2.65837
4.01295
4.11535
3.91795
4.99855
6.29942
10.8599
10.8596
8.61759
7.66338
7.45756
7.27569
7.14952
7.90667
9.03398
9.55471
9.85765
9.57598
11.7155
15.3221
21.5499
20.4266
19.2725
18.3681
19.6256
18.0566
22.285
28.5316
25.1712
27.9394
30.4332
22.4292
20.1006
20.852
27.9368
29.2155
37.2492
31.9297
48.9251
31.6949
35.634
46.3117
27.8887
25.4384
30.6522
32.8718
24.0686
22.1538
26.0719
30.4172
34.8161
30.0597
37.5926
40.5411
40.7684
38.7881
31.58
48.9012
39.198
30.5982
36.8107
27.5015
44.8959
47.2357
25.0947
28.7416
38.0971
62.4045
50.8509
26.7765
22.5774
22.7404
23.0624
27.3952
32.3478
30.4122
29.0489
38.0179
33.1531
47.1685
49.8272
34.3583
27.6634
30.6857
29.5141
38.4698
25.9934
23.6267
20.0214
0.270053
0.309366
0.506808
0.875456
1.21273
1.33122
1.38725
1.4337
1.48552
1.51963
1.56307
1.63432
1.74774
1.88114
2.0732
2.6573
3.91003
3.97534
3.89793
5.08794
6.23677
10.4677
10.5733
7.96441
6.99306
6.82714
6.82272
6.78136
7.57423
8.59168
9.02463
9.04034
8.70006
10.9977
14.2844
20.4094
19.0778
17.6529
17.3038
19.143
17.797
20.4987
27.8234
22.7794
27.462
30.3923
21.8775
19.4075
19.9494
25.843
27.8437
35.1872
29.2563
45.647
27.4164
31.017
44.706
26.1334
24.4101
27.296
30.1766
23.1136
20.8281
21.7259
28.2679
34.3388
28.7814
32.4465
41.436
37.3878
34.9299
30.0054
46.9816
34.4729
27.8174
33.914
25.9157
41.0632
41.6464
24.4506
27.6493
33.5017
45.5095
40.9827
21.9824
21.46
21.8368
21.8295
26.0556
31.9849
27.1874
27.126
31.726
31.5039
40.9325
46.8061
30.7076
25.6819
25.7474
27.2727
37.1367
24.7739
21.725
19.6908
0.30568
0.365505
0.608879
1.02267
1.34391
1.42601
1.43937
1.44708
1.47726
1.51349
1.57075
1.66364
1.801
1.94504
2.12439
2.66603
3.84309
3.88263
4.00073
5.35006
6.19193
9.83053
10.0108
7.26436
6.34405
6.11545
6.29934
6.40002
7.19993
8.07088
8.35534
8.12056
8.43348
10.4772
13.3871
18.7019
17.4888
16.0995
16.2807
18.7072
18.1747
19.0269
24.9112
20.5952
27.1961
30.8214
21.4696
19.0107
18.5596
23.7359
26.3347
33.9262
26.256
30.6711
24.8819
26.7553
41.6606
27.2342
23.3886
24.518
27.0047
22.2936
19.1882
19.7114
26.8546
30.27
27.7767
29.9967
39.7675
37.8425
30.0205
28.5794
40.7159
32.1892
25.1054
31.067
23.838
34.68
34.3877
24.3007
24.0047
29.3574
37.9539
28.1944
18.9428
20.493
20.841
20.9477
25.4948
32.2794
25.4496
22.884
27.7884
29.0762
35.0625
43.5995
29.781
21.3838
18.4902
24.8163
35.1347
23.5211
19.7526
19.0843
0.352283
0.43523
0.71926
1.16716
1.46661
1.51887
1.49947
1.47285
1.48853
1.52687
1.59927
1.71585
1.87771
2.033
2.19792
2.6783
3.83415
3.84967
4.23297
5.75081
6.05727
9.06365
9.39372
6.73205
5.94262
5.68534
5.82449
6.09622
6.91666
7.61186
7.72197
7.47701
8.42869
10.3078
12.777
18.0687
16.9216
14.9621
15.7084
17.789
18.8486
18.626
22.1155
18.7732
25.3422
32.0345
21.4267
18.6239
17.3974
22.2705
24.6089
30.2587
22.3617
27.2849
23.218
24.4678
37.6498
28.2177
23.5738
22.9503
26.5034
21.7983
18.3422
18.7308
25.8598
27.1488
26.4531
37.3475
36.3365
34.9146
26.2344
26.4129
37.3152
32.2269
25.4295
24.8875
22.5431
29.374
30.9179
23.1207
25.0159
25.9597
34.7976
25.0657
17.0816
19.2572
19.8707
19.6239
23.9805
32.0106
25.6546
21.2312
25.4321
30.477
31.8053
40.8178
26.7443
20.0519
15.5024
22.3503
33.9966
22.6309
18.4018
18.1809
0.410261
0.514303
0.832551
1.30467
1.5822
1.61147
1.56502
1.50854
1.51542
1.55745
1.64699
1.78891
1.9727
2.13891
2.28813
2.70471
3.81822
3.85573
4.69846
6.00634
5.84784
8.3193
8.95623
6.38742
5.69004
5.40043
5.39543
5.83149
6.65111
7.1775
7.20195
7.13884
8.53551
10.4157
12.4
17.0812
16.6517
13.9527
15.3065
17.3006
19.6741
18.9149
19.2581
16.9101
23.781
29.5192
21.2515
17.841
17.0146
20.7684
23.6732
27.111
20.594
25.1419
21.89
23.6581
34.8415
28.0299
22.9534
22.1777
25.0903
20.1309
17.7554
17.8074
23.4522
25.7739
24.793
45.1791
33.2124
31.8094
23.0752
24.4985
32.5038
39.6587
36.6249
22.1214
21.7403
26.5875
27.3246
22.5962
25.8935
27.1563
36.3033
22.4937
15.9626
17.6962
18.312
18.3688
20.9806
28.7513
23.0856
21.0914
24.1309
29.158
29.8736
39.837
24.8785
20.3374
13.5209
17.9463
33.0425
21.4005
17.006
16.6346
0.476488
0.601297
0.947404
1.43576
1.69492
1.70757
1.63561
1.55367
1.55599
1.60474
1.71475
1.88314
2.08331
2.25713
2.38894
2.73799
3.77959
3.8993
5.27479
6.24475
5.68442
7.73676
8.53014
6.08475
5.52779
5.25463
5.17959
5.68978
6.50505
6.92716
6.95789
7.08609
8.78077
10.7297
12.11
15.926
15.8879
13.1922
15.2403
17.0127
20.4517
18.3016
16.8875
15.918
21.0522
27.7148
20.1474
17.3725
16.852
19.4755
22.2582
26.1703
19.6234
23.2368
20.6591
22.5879
32.575
31.3364
21.3669
21.4226
24.6548
19.3406
17.5245
17.0511
21.3248
24.4861
23.9092
35.065
33.3697
29.8242
20.6066
22.2338
28.9389
36.384
202.977
19.0048
20.777
25.5578
29.2734
21.5794
21.8151
27.9986
37.8323
19.764
15.11
16.5725
17.3002
17.3331
19.2578
26.0333
21.5787
21.7465
22.5356
30.2216
39.0315
37.5961
22.8339
16.2123
12.0564
15.5038
29.9666
20.117
15.969
15.1518
0.548973
0.6943
1.06149
1.56156
1.80792
1.81019
1.71043
1.60772
1.60886
1.66941
1.80387
1.99496
2.20439
2.37661
2.49429
2.79206
3.74633
3.98005
5.6066
6.34166
5.62405
7.21758
8.03473
5.88714
5.4415
5.17783
5.0631
5.579
6.35356
6.97419
7.05431
7.21054
9.10519
11.2643
12.0258
15.0182
15.0275
12.6639
15.562
16.997
20.616
17.0578
15.6356
15.4202
19.2212
25.1752
19.2926
16.7369
14.9779
18.7116
21.8606
25.361
18.7215
20.8996
19.1732
22.2164
31.304
31.2586
20.0109
21.1342
23.9284
19.2253
17.1507
14.8555
19.3232
23.4827
22.4493
28.2031
29.1516
26.9998
18.3077
20.3381
25.4663
31.8618
107.216
16.4089
19.9102
23.1467
28.4165
17.9753
17.6992
24.2334
37.6168
18.0214
13.9426
15.8568
16.3793
16.492
18.1647
25.8642
23.7729
19.2277
20.9917
27.0204
34.9101
34.1038
20.7439
13.4813
11.0534
13.9445
26.9564
18.6648
15.0784
14.1987
0.629181
0.792747
1.17664
1.68739
1.92675
1.9222
1.78725
1.6729
1.68072
1.75813
1.91588
2.12019
2.32536
2.48789
2.60326
2.87767
3.74945
4.09089
5.90879
6.284
5.56775
6.8982
7.55533
5.7905
5.4137
5.16493
5.05571
5.477
6.2589
7.1499
7.34815
7.43676
9.64188
11.98
12.1341
14.5301
14.2653
12.437
15.7242
17.2619
20.0946
15.8653
14.3836
14.8861
18.6414
23.529
18.3349
16.1578
14.7522
15.7199
20.3514
23.4978
17.9383
19.5494
18.1673
21.1883
28.5817
26.093
19.1851
19.9469
22.8601
19.1162
16.9088
13.3552
17.7194
23.0344
21.7245
23.2868
24.8279
24.7242
16.489
18.9023
23.3482
28.5366
40.5114
15.3403
19.1704
21.9574
23.5087
15.5076
15.2577
20.6263
38.6885
17.0308
13.3333
15.2956
15.9183
15.5967
17.6779
21.9739
19.9202
16.0196
19.7031
23.5441
27.5512
31.6077
16.9883
11.9267
10.3224
12.7909
25.3689
17.6902
14.5546
13.6613
1.18309
1.43462
1.8558
2.32944
2.54752
2.50465
2.20336
2.06295
2.12955
2.31436
2.58466
2.79889
2.92007
3.03995
3.37547
3.54365
3.63447
4.10314
7.06635
5.54457
4.93526
5.36103
5.7199
5.77968
5.82532
5.66536
5.62942
5.60872
6.24457
7.99043
9.06967
9.78744
12.3537
14.2235
13.7977
13.0208
13.2402
13.2932
15.7661
18.0673
21.1713
14.8584
11.7947
17.0416
20.0015
16.0687
14.4719
13.7926
15.3658
10.484
13.6402
15.0585
13.5369
13.913
13.7175
15.4599
18.4095
13.8263
13.9963
13.2558
17.3095
19.6064
17.2725
11.3267
12.9853
15.059
13.5027
13.3294
14.0537
13.7338
13.5439
15.834
16.0017
16.2419
15.3417
15.1701
17.0616
16.1874
14.8566
11.3764
15.0561
17.0213
20.8679
13.5785
11.8234
12.1589
12.0856
12.9745
13.6355
13.0081
13.7317
11.8569
14.0117
17.5101
18.4887
20.6201
13.4843
9.79607
9.42069
10.1306
14.2328
13.7018
12.7048
11.2667
2.23383
2.46809
2.59426
2.67865
2.80716
3.04433
3.23668
3.37828
3.54528
3.81375
4.12913
4.61217
5.71802
6.74919
6.90535
6.34388
6.05582
6.33887
7.3806
7.56727
7.58757
6.9696
6.8863
8.91208
8.90487
9.43097
10.2166
10.5051
10.8344
11.6352
12.7236
14.55
15.8021
15.8539
14.9101
14.0424
13.9427
14.1941
14.7768
16.8718
21.7384
22.3771
22.241
20.9781
19.5795
17.6987
17.5044
16.6544
17.7816
20.5886
18.7398
15.4779
16.3427
19.6454
19.0695
19.1329
21.5038
18.0215
15.8557
15.9419
17.8285
17.6819
18.8675
20.4834
20.6346
22.2611
21.5406
19.3454
14.8858
12.9705
16.0746
20.9742
21.0894
14.0152
12.0621
20.02
19.2117
21.0311
23.8767
17.9136
11.7086
13.9774
13.3308
14.7995
16.3315
14.771
12.6669
13.9881
16.2774
13.3596
13.5313
14.6199
15.3945
16.1369
14.9477
13.6096
10.7863
10.0306
10.5432
11.2937
10.8202
11.3044
12.1383
11.4646
2.46518
2.77186
3.19332
3.46651
3.63743
4.00472
4.62142
5.00956
5.1954
5.22198
5.80055
6.88992
8.56318
9.86045
11.048
11.9471
12.2834
13.6183
15.7235
16.447
17.2729
17.9762
18.1384
18.3586
18.5872
18.5483
18.4995
18.1945
17.5311
16.652
16.2172
16.1756
16.4021
16.4515
16.1238
15.4522
15.5338
16.2653
17.3234
17.4967
17.1572
16.6181
16.3561
16.1342
15.6676
15.0744
14.1868
13.9331
14.3105
17.0286
16.5223
15.9375
16.4918
17.2888
16.8967
16.7681
17.9712
20.5366
20.4552
20.3478
22.0934
24.0756
22.554
22.1435
23.0004
24.8956
24.168
21.2552
19.5509
19.549
19.7082
20.2987
25.5837
25.1739
19.1271
16.9951
16.7389
17.3581
20.9221
26.3696
25.7954
25.5203
24.3569
20.6438
16.97
16.2858
16.7856
20.2671
21.8072
19.0384
17.2547
16.6734
14.9506
15.4655
14.3201
13.2101
11.6867
11.1897
11.0277
10.43
9.69224
8.86841
9.19247
10.6871
3.96144
4.36317
4.91202
5.92937
6.85671
6.98006
7.22292
7.52664
7.95217
8.87968
10.1021
11.3876
12.2991
12.5025
12.5283
12.5046
12.2205
11.7516
11.3715
11.8436
12.872
14.2445
15.6835
17.2415
17.8131
18.5565
19.2293
19.9862
20.2678
20.2432
20.1113
19.9281
19.7075
19.5543
19.3761
19.3311
19.1038
18.569
17.8354
17.0648
16.8233
16.5019
16.0851
15.6584
15.2749
14.876
14.4406
14.0444
13.5908
13.5719
13.7881
14.4851
16.8434
21.3541
26.8538
32.3165
34.634
35.1755
37.3668
40.3713
40.2359
39.3521
40.8053
39.7659
32.8925
32.663
33.5793
35.279
35.1803
33.4062
29.916
24.0533
24.4183
24.9798
22.6394
20.222
18.1056
17.6425
18.3316
20.5689
23.9672
24.9908
24.5928
23.2361
21.5071
18.6096
16.6492
15.2733
15.0149
15.0975
16.7951
22.4877
23.2154
20.9391
17.0826
13.988
12.2619
12.3517
13.1108
13.1522
12.5948
11.4278
9.57826
8.37
10.9388
11.7492
12.6538
13.357
14.1247
14.1914
14.1518
14.9471
16.4976
18.3802
20.1677
21.1411
21.4755
21.7412
21.6901
21.5869
21.4274
21.4916
21.4793
21.2958
20.8797
20.262
19.4863
18.628
17.7643
16.807
15.7385
15.0117
14.4494
14.0489
13.669
13.3912
13.2393
13.0971
12.9141
12.7962
12.8718
13.0493
13.3821
13.5261
13.3681
13.1153
13.0853
12.947
12.6515
12.5259
12.5491
12.6499
12.6819
12.7888
12.7967
12.7701
12.72
12.7632
12.7084
12.6425
13.1635
14.1118
13.8732
13.9448
14.1673
14.559
14.6112
15.8357
17.6481
20.9987
21.9878
21.2792
19.846
17.4443
16.2525
16.6083
17.7748
20.1629
19.2556
17.2494
15.0592
13.9718
13.7704
13.817
14.3642
14.2788
14.0367
13.6467
13.1328
13.0888
12.9747
12.7684
12.5483
12.2647
12.0728
12.5865
15.7353
17.3276
16.9636
16.9075
17.0123
16.8322
16.3278
15.6079
14.5161
13.0438
11.1296
9.08459
16.4595
18.2831
19.8215
21.362
22.2138
22.8388
23.4598
23.5267
23.2417
22.5734
21.6612
20.5497
19.3296
18.1935
17.2708
16.4018
15.7532
15.1271
14.5869
14.1891
13.8494
13.6744
13.5643
13.562
13.5551
13.5224
13.4625
13.3793
13.3215
13.2121
13.0329
12.8855
12.74
12.5349
12.4149
12.4035
12.4735
12.5942
12.7312
12.6074
12.3302
12.0125
11.9292
11.7431
11.4982
11.2381
10.896
10.855
10.8993
11.065
11.4075
12.004
12.7528
13.5139
13.4542
13.1603
12.8152
12.3844
12.3623
12.4273
12.621
13.0032
12.9755
12.8968
13.0522
13.726
14.2839
14.2712
14.0834
13.7179
13.1431
13.0442
13.3597
14.4207
14.0719
13.4931
13.3497
13.1166
12.7302
12.33
11.9522
11.7508
11.534
11.279
11.0262
10.785
10.4967
10.3291
10.2194
10.0556
9.91013
9.99481
10.4274
11.4157
12.671
14.137
15.4528
15.6161
15.4704
15.0948
14.436
13.3375
11.6405
9.60392
19.1738
18.4817
17.6397
16.7252
16.0025
15.3794
14.7915
14.2729
13.953
13.8261
13.8418
13.8779
13.9703
14.0711
14.0147
13.8605
13.6535
13.4164
13.1482
12.8143
12.599
12.5186
12.4601
12.3721
12.1608
11.8845
11.6196
11.3964
11.2448
11.0682
10.8831
10.7189
10.6017
10.4581
10.3026
10.1681
10.0295
9.84193
9.63015
9.40787
9.21371
9.00841
8.92189
8.80025
8.77156
8.79686
8.84409
9.02524
9.31634
9.66057
10.3232
11.1942
11.4841
11.2665
10.7319
10.2502
10.1167
10.1433
10.3724
10.7644
11.2879
11.8922
12.0759
12.1252
12.2281
12.4799
12.7419
12.6897
12.4753
12.088
11.6283
11.4326
11.5087
11.8719
12.4346
12.8752
12.8399
12.4929
11.95
11.3422
10.8983
10.5829
10.3705
10.2095
10.131
10.0775
10.044
9.99223
9.91158
9.77308
9.57018
9.32884
9.34077
9.50514
9.7981
10.3955
11.3851
12.3556
12.8271
12.8546
12.593
11.9166
10.7982
9.38576
13.8657
13.5982
13.3799
13.2697
13.1622
13.0355
12.8895
12.7895
12.7941
12.8317
12.9056
13.037
13.007
12.847
12.5415
12.1172
11.6264
11.1304
10.7507
10.4494
10.1624
9.86308
9.54971
9.23326
8.90284
8.72028
8.56115
8.40855
8.27443
8.12055
7.98954
7.86848
7.76022
7.64061
7.50707
7.41318
7.33341
7.22893
7.12219
6.97463
6.80768
6.66756
6.60849
6.52807
6.52633
6.56362
6.66186
6.87194
7.18343
7.596
8.34121
8.7575
8.66703
8.33683
8.03892
7.94377
7.99256
8.19038
8.57011
9.08504
9.698
10.1138
10.3072
10.499
10.6168
10.6969
10.694
10.5672
10.3719
10.2252
10.1691
10.2557
10.4291
10.9439
11.5123
11.5509
11.3689
10.9149
10.3298
9.76943
9.43519
9.27046
9.23181
9.24855
9.32255
9.46826
9.66861
9.8883
9.97219
9.94
9.80998
9.56336
9.18479
9.04604
9.08779
9.25912
9.61834
10.173
10.8911
11.1701
11.0736
10.6637
9.96187
9.01937
12.2955
12.0491
11.7965
11.5266
11.2832
11.114
10.9807
10.8432
10.689
10.4869
10.1865
9.81026
9.427
9.04166
8.67324
8.32769
8.00158
7.72576
7.54601
7.36507
7.18745
7.013
6.8299
6.63259
6.41219
6.26754
6.13798
6.03309
5.95926
5.88437
5.82495
5.77424
5.72277
5.66866
5.59887
5.56142
5.51825
5.45691
5.38753
5.29691
5.20869
5.13871
5.10454
5.08721
5.10037
5.14219
5.23075
5.3865
5.60455
5.88132
6.2683
6.46542
6.4362
6.34461
6.30058
6.33637
6.47784
6.72881
7.07869
7.48291
7.82544
8.04377
8.21976
8.35194
8.45832
8.50166
8.50311
8.46754
8.45866
8.50394
8.64088
8.93123
9.20327
9.68025
9.8775
9.81475
9.53808
9.09509
8.61951
8.27945
8.13489
8.11757
8.16494
8.29882
8.52931
8.83792
9.20264
9.46025
9.51576
9.46534
9.32309
9.08447
8.72201
8.48406
8.46502
8.53386
8.72966
9.09181
9.67696
10.0666
10.0417
9.79096
9.31036
8.58691
8.92577
8.63843
8.33705
8.09933
7.94702
7.81747
7.6662
7.4858
7.29133
7.0933
6.88344
6.64879
6.38902
6.14454
5.91972
5.72239
5.56253
5.44189
5.34622
5.24705
5.15386
5.05608
4.95324
4.84954
4.74176
4.67448
4.60884
4.55313
4.50452
4.45915
4.42356
4.38723
4.34884
4.31635
4.27895
4.25882
4.23843
4.21083
4.17715
4.12496
4.071
4.0389
4.02424
4.02486
4.04565
4.0958
4.17731
4.29183
4.43721
4.60934
4.8156
4.96867
5.01764
5.03724
5.08208
5.17527
5.32843
5.53913
5.79669
6.0546
6.25333
6.40274
6.51914
6.60771
6.68648
6.74028
6.78962
6.83681
6.90744
7.01993
7.19295
7.48227
7.70601
8.00164
8.08312
7.98244
7.76628
7.474
7.19266
7.04358
7.01415
7.05052
7.16794
7.35915
7.61187
7.90667
8.23201
8.46547
8.54761
8.539
8.4807
8.35038
8.12258
7.98056
7.99334
8.08391
8.28083
8.60093
9.08844
9.49954
9.52152
9.35632
8.93701
8.20274
6.02578
5.87471
5.71826
5.58178
5.47069
5.36081
5.24449
5.12635
5.00898
4.88659
4.74997
4.60404
4.463
4.33738
4.22194
4.12028
4.03521
3.97181
3.91627
3.86385
3.81113
3.75421
3.69548
3.63275
3.56719
3.51783
3.46757
3.42507
3.39574
3.37364
3.35594
3.33842
3.32029
3.3104
3.29932
3.29494
3.28968
3.27879
3.26402
3.23963
3.2235
3.2205
3.22782
3.24769
3.28371
3.33638
3.40697
3.4975
3.60654
3.72727
3.85497
3.96092
4.02844
4.08636
4.15742
4.25592
4.3878
4.5469
4.72431
4.87737
4.99866
5.10426
5.19585
5.2704
5.34334
5.41223
5.48733
5.56605
5.66002
5.77453
5.9203
6.12388
6.25389
6.39763
6.44093
6.39311
6.28891
6.1385
6.03532
6.01332
6.04772
6.15479
6.33132
6.55898
6.81894
7.10164
7.39213
7.61498
7.75628
7.82661
7.8351
7.81261
7.74278
7.73193
7.78884
7.94652
8.20144
8.55101
9.0418
9.3696
9.35049
9.10684
8.56195
7.67671
4.11982
4.05081
3.98105
3.91506
3.85309
3.78551
3.70912
3.62462
3.54336
3.46268
3.37805
3.29188
3.21102
3.13945
3.07251
3.01303
2.96582
2.93002
2.89642
2.86649
2.83397
2.80016
2.76588
2.73107
2.69812
2.6735
2.6505
2.63459
2.62211
2.61195
2.60458
2.59741
2.59197
2.59111
2.59093
2.59367
2.59727
2.60013
2.60009
2.59574
2.59666
2.6045
2.62036
2.64594
2.68357
2.73325
2.79568
2.86983
2.95434
3.04446
3.13684
3.22083
3.28826
3.35241
3.42436
3.51202
3.61731
3.73411
3.85586
3.95716
4.04286
4.12135
4.19036
4.25697
4.32812
4.40065
4.4785
4.56046
4.64967
4.74724
4.86134
5.00198
5.0953
5.18479
5.23761
5.22749
5.19012
5.14393
5.13985
5.17945
5.27622
5.4302
5.62987
5.85597
6.0968
6.34804
6.60193
6.81479
6.99492
7.16004
7.3227
7.45918
7.53755
7.6228
7.77388
8.01328
8.32347
8.69949
9.14701
9.27755
9.16054
8.74738
7.98729
6.91553
2.90673
2.8665
2.82535
2.78242
2.7375
2.68643
2.63228
2.57701
2.5264
2.47532
2.42246
2.37038
2.32447
2.28545
2.24957
2.21866
2.19415
2.17515
2.15718
2.14108
2.12428
2.10698
2.08967
2.07222
2.05668
2.04464
2.03288
2.02666
2.02446
2.02416
2.02524
2.02776
2.032
2.03905
2.04766
2.05761
2.06732
2.0765
2.08413
2.09134
2.10283
2.12008
2.14351
2.1739
2.21239
2.25913
2.31424
2.3758
2.44272
2.51194
2.58175
2.64876
2.71005
2.76988
2.83383
2.90593
2.98633
3.07029
3.15321
3.22294
3.28685
3.34904
3.40837
3.46893
3.53302
3.59895
3.6702
3.74351
3.81978
3.89916
3.98733
4.0859
4.15692
4.22129
4.27396
4.29824
4.31855
4.34566
4.39917
4.48826
4.61404
4.77519
4.95905
5.15088
5.3458
5.55029
5.76036
5.96865
6.1872
6.44034
6.74365
7.07941
7.35655
7.57692
7.83976
8.1858
8.59176
8.95835
9.14737
9.09147
8.76231
8.07912
7.10232
5.98207
2.04936
2.02528
1.99989
1.97258
1.94292
1.90962
1.87553
1.84107
1.81004
1.77965
1.74879
1.72021
1.69542
1.67462
1.65564
1.63977
1.62734
1.61806
1.60968
1.603
1.59631
1.59068
1.58586
1.58168
1.57972
1.5802
1.58214
1.58672
1.5926
1.59919
1.60635
1.61416
1.62287
1.63305
1.64419
1.65661
1.6692
1.68212
1.69453
1.70725
1.72278
1.74245
1.76657
1.79621
1.8319
1.87296
1.91919
1.96962
2.02427
2.08101
2.13821
2.19434
2.24785
2.30083
2.356
2.41514
2.47789
2.54064
2.60119
2.6543
2.70549
2.75564
2.80513
2.85645
2.91139
2.9698
3.03204
3.09517
3.15974
3.22639
3.2984
3.37538
3.44024
3.50156
3.55907
3.60642
3.65394
3.70918
3.784
3.88411
4.00663
4.14703
4.29712
4.4467
4.59747
4.76118
4.94009
5.1386
5.37886
5.6921
6.09548
6.58647
7.04535
7.42422
7.80313
8.21093
8.59348
8.80717
8.78456
8.50226
7.89153
6.99811
5.98448
5.11014
1.44808
1.43276
1.41577
1.3967
1.37554
1.35284
1.33127
1.31086
1.29318
1.27655
1.2608
1.24661
1.2349
1.22548
1.21762
1.21201
1.20846
1.20686
1.20636
1.20717
1.20903
1.21234
1.21644
1.22121
1.22698
1.23356
1.24095
1.24983
1.25934
1.26888
1.27884
1.28938
1.30069
1.3131
1.32624
1.33992
1.35365
1.3676
1.38177
1.3969
1.41468
1.43571
1.46011
1.4885
1.52122
1.55791