/*--------------------------------*- C++ -*----------------------------------*\
| =========                 |                                                 |
| \\      /  F ield         | OpenFOAM: The Open Source CFD Toolbox           |
|  \\    /   O peration     | Version:  v1912                                 |
|   \\  /    A nd           | Website:  www.openfoam.com                      |
|    \\/     M anipulation  |                                                 |
\*---------------------------------------------------------------------------*/
FoamFile
{
    version     2.0;
    format      ascii;
    class       volScalarField;
    location    "60";
    object      nut;
}
// * * * * * * * * * * * * * * * * * * * * * * * * * * * * * * * * * * * * * //

dimensions      [0 2 -1 0 0 0 0];


internalField   nonuniform List<scalar> 
14268
(
3.07677e-07
7.64784e-08
1.88413e-08
5.1614e-09
1.35869e-09
3.28754e-10
7.40245e-11
1.57159e-11
3.17605e-12
6.17541e-13
1.22876e-13
3.38169e-14
2.03151e-14
1.9766e-14
2.15716e-14
2.4719e-14
2.79311e-14
3.08975e-14
3.38525e-14
3.68271e-14
3.98257e-14
4.28376e-14
4.58512e-14
4.88585e-14
5.18551e-14
5.48363e-14
5.77977e-14
6.07359e-14
6.36477e-14
6.65308e-14
6.93828e-14
7.22021e-14
7.49871e-14
7.77365e-14
8.04494e-14
8.31248e-14
8.5762e-14
8.83605e-14
9.09195e-14
9.34389e-14
9.59181e-14
9.8357e-14
1.00755e-13
1.03112e-13
1.05429e-13
1.07704e-13
1.09936e-13
1.12132e-13
1.14276e-13
1.16391e-13
1.18454e-13
1.20489e-13
1.22473e-13
1.24416e-13
1.26318e-13
1.2818e-13
1.30001e-13
1.31782e-13
1.33522e-13
1.35223e-13
1.36884e-13
1.38505e-13
1.40087e-13
1.41631e-13
1.43136e-13
1.44604e-13
1.46034e-13
1.47427e-13
1.48784e-13
1.50104e-13
1.51389e-13
1.52639e-13
1.53855e-13
1.55036e-13
1.56185e-13
1.57301e-13
1.58384e-13
1.59436e-13
1.60457e-13
1.61448e-13
1.62409e-13
1.63341e-13
1.64244e-13
1.65119e-13
1.65967e-13
1.66789e-13
1.67584e-13
1.68354e-13
1.69099e-13
1.6982e-13
1.70518e-13
1.71192e-13
1.71844e-13
1.72474e-13
1.73082e-13
1.7367e-13
1.74238e-13
1.74787e-13
1.75316e-13
1.75827e-13
1.7632e-13
1.76795e-13
1.77254e-13
1.77696e-13
1.78122e-13
1.78533e-13
1.78928e-13
1.7931e-13
1.79677e-13
1.80031e-13
1.80371e-13
1.80699e-13
1.81015e-13
1.81318e-13
1.8161e-13
1.81891e-13
1.82161e-13
1.8242e-13
1.8267e-13
1.8291e-13
1.8314e-13
1.83361e-13
1.83575e-13
1.83778e-13
1.83975e-13
1.84162e-13
1.84344e-13
1.84517e-13
1.84684e-13
1.84842e-13
1.84996e-13
1.85142e-13
1.85284e-13
1.85418e-13
1.85548e-13
1.85672e-13
1.8579e-13
1.85904e-13
1.86013e-13
1.86117e-13
1.86217e-13
1.86313e-13
1.86404e-13
1.86491e-13
1.86575e-13
1.86654e-13
1.86729e-13
1.86799e-13
1.8687e-13
1.86962e-13
2.79352e-05
8.57358e-06
2.39696e-06
7.44135e-07
1.93338e-07
4.40992e-08
9.70274e-09
2.08015e-09
4.29516e-10
8.50942e-11
1.71931e-11
4.83581e-12
2.96551e-12
2.90783e-12
3.18984e-12
3.67013e-12
4.16127e-12
4.61969e-12
5.07951e-12
5.54505e-12
6.01681e-12
6.49301e-12
6.9718e-12
7.45184e-12
7.93226e-12
8.41222e-12
8.89092e-12
9.36767e-12
9.8419e-12
1.03131e-11
1.07808e-11
1.12446e-11
1.17041e-11
1.21592e-11
1.26095e-11
1.30548e-11
1.3495e-11
1.39298e-11
1.4359e-11
1.47826e-11
1.52005e-11
1.56125e-11
1.60185e-11
1.64185e-11
1.68123e-11
1.71999e-11
1.7581e-11
1.79566e-11
1.8324e-11
1.8687e-11
1.90417e-11
1.93925e-11
1.97348e-11
2.00708e-11
2.04e-11
2.07228e-11
2.1039e-11
2.13487e-11
2.16519e-11
2.19485e-11
2.22386e-11
2.25221e-11
2.27992e-11
2.30698e-11
2.33341e-11
2.3592e-11
2.38437e-11
2.40891e-11
2.43283e-11
2.45615e-11
2.47886e-11
2.50097e-11
2.52249e-11
2.54344e-11
2.56381e-11
2.58363e-11
2.60288e-11
2.62159e-11
2.63977e-11
2.65742e-11
2.67455e-11
2.69118e-11
2.70731e-11
2.72295e-11
2.73811e-11
2.75281e-11
2.76705e-11
2.78084e-11
2.7942e-11
2.80713e-11
2.81964e-11
2.83175e-11
2.84345e-11
2.85478e-11
2.86572e-11
2.8763e-11
2.88652e-11
2.89639e-11
2.90593e-11
2.91513e-11
2.92402e-11
2.93259e-11
2.94086e-11
2.94884e-11
2.95653e-11
2.96396e-11
2.9711e-11
2.978e-11
2.98463e-11
2.99103e-11
2.99718e-11
3.00311e-11
3.00882e-11
3.01431e-11
3.0196e-11
3.02468e-11
3.02957e-11
3.03427e-11
3.03879e-11
3.04313e-11
3.04732e-11
3.05132e-11
3.05519e-11
3.05888e-11
3.06245e-11
3.06585e-11
3.06914e-11
3.07227e-11
3.0753e-11
3.07818e-11
3.08098e-11
3.08363e-11
3.08619e-11
3.08863e-11
3.09099e-11
3.09323e-11
3.09539e-11
3.09746e-11
3.09943e-11
3.10133e-11
3.10314e-11
3.10488e-11
3.10653e-11
3.10813e-11
3.10964e-11
3.11108e-11
3.11245e-11
3.11372e-11
3.11501e-11
3.11668e-11
0.000203917
9.20243e-05
2.27613e-05
7.19034e-06
2.29383e-06
5.65623e-07
1.30993e-07
2.93837e-08
6.31435e-09
1.29866e-09
2.7329e-10
8.25473e-11
5.39027e-11
5.36811e-11
5.93223e-11
6.84511e-11
7.7661e-11
8.63425e-11
9.50905e-11
1.03972e-10
1.1299e-10
1.22109e-10
1.31295e-10
1.40523e-10
1.49776e-10
1.59035e-10
1.68284e-10
1.77509e-10
1.86697e-10
1.95839e-10
2.04925e-10
2.13946e-10
2.22895e-10
2.31766e-10
2.40553e-10
2.49251e-10
2.57857e-10
2.66366e-10
2.74774e-10
2.83078e-10
2.91277e-10
2.99367e-10
3.07345e-10
3.15209e-10
3.22961e-10
3.30592e-10
3.38104e-10
3.45508e-10
3.52757e-10
3.59925e-10
3.66931e-10
3.73866e-10
3.80635e-10
3.87282e-10
3.938e-10
4.00194e-10
4.06461e-10
4.12602e-10
4.18615e-10
4.24501e-10
4.3026e-10
4.35892e-10
4.41397e-10
4.46777e-10
4.52031e-10
4.57162e-10
4.62169e-10
4.67055e-10
4.71819e-10
4.76462e-10
4.80988e-10
4.85395e-10
4.89686e-10
4.93863e-10
4.97928e-10
5.01881e-10
5.05724e-10
5.0946e-10
5.1309e-10
5.16615e-10
5.20037e-10
5.2336e-10
5.26583e-10
5.2971e-10
5.32742e-10
5.35681e-10
5.38529e-10
5.41288e-10
5.4396e-10
5.46548e-10
5.49052e-10
5.51476e-10
5.53819e-10
5.56087e-10
5.58278e-10
5.60397e-10
5.62445e-10
5.64422e-10
5.66333e-10
5.68177e-10
5.69958e-10
5.71676e-10
5.73334e-10
5.74934e-10
5.76476e-10
5.77964e-10
5.79396e-10
5.8078e-10
5.82109e-10
5.83393e-10
5.84627e-10
5.85817e-10
5.86961e-10
5.88064e-10
5.89124e-10
5.90144e-10
5.91125e-10
5.92068e-10
5.92977e-10
5.93847e-10
5.94687e-10
5.95491e-10
5.96267e-10
5.97008e-10
5.97724e-10
5.98407e-10
5.99068e-10
5.99696e-10
6.00305e-10
6.00884e-10
6.01444e-10
6.01977e-10
6.02492e-10
6.02982e-10
6.03455e-10
6.03906e-10
6.04339e-10
6.04754e-10
6.0515e-10
6.05532e-10
6.05894e-10
6.06244e-10
6.06576e-10
6.06896e-10
6.072e-10
6.07491e-10
6.07765e-10
6.08021e-10
6.08279e-10
6.08615e-10
0.000479494
0.000316825
9.3876e-05
2.35856e-05
8.22624e-06
2.30805e-06
5.65861e-07
1.3305e-07
2.98525e-08
6.41255e-09
1.43181e-09
4.83816e-10
3.45604e-10
3.51195e-10
3.92323e-10
4.53931e-10
5.14841e-10
5.73023e-10
6.31936e-10
6.91897e-10
7.52849e-10
8.14549e-10
8.76787e-10
9.39414e-10
1.00229e-09
1.06527e-09
1.12826e-09
1.19115e-09
1.25385e-09
1.31628e-09
1.37838e-09
1.44009e-09
1.50135e-09
1.56212e-09
1.62236e-09
1.68202e-09
1.74108e-09
1.79951e-09
1.85728e-09
1.91437e-09
1.97076e-09
2.02642e-09
2.08134e-09
2.13551e-09
2.18891e-09
2.24151e-09
2.2933e-09
2.34437e-09
2.3944e-09
2.44388e-09
2.49225e-09
2.54015e-09
2.58692e-09
2.63286e-09
2.67792e-09
2.72213e-09
2.76548e-09
2.80797e-09
2.84958e-09
2.89033e-09
2.9302e-09
2.9692e-09
3.00733e-09
3.0446e-09
3.08102e-09
3.11658e-09
3.15129e-09
3.18516e-09
3.21819e-09
3.2504e-09
3.28179e-09
3.31236e-09
3.34214e-09
3.37113e-09
3.39934e-09
3.42678e-09
3.45346e-09
3.4794e-09
3.5046e-09
3.52908e-09
3.55285e-09
3.57593e-09
3.59832e-09
3.62004e-09
3.6411e-09
3.66153e-09
3.68132e-09
3.7005e-09
3.71906e-09
3.73705e-09
3.75445e-09
3.77131e-09
3.7876e-09
3.80336e-09
3.8186e-09
3.83333e-09
3.84757e-09
3.86132e-09
3.87461e-09
3.88744e-09
3.89982e-09
3.91177e-09
3.92331e-09
3.93444e-09
3.94516e-09
3.95552e-09
3.96548e-09
3.9751e-09
3.98435e-09
3.99329e-09
4.00187e-09
4.01015e-09
4.01811e-09
4.02578e-09
4.03316e-09
4.04026e-09
4.04709e-09
4.05365e-09
4.05997e-09
4.06604e-09
4.07188e-09
4.07747e-09
4.08287e-09
4.08803e-09
4.09302e-09
4.09777e-09
4.10237e-09
4.10674e-09
4.11098e-09
4.11501e-09
4.11891e-09
4.12262e-09
4.1262e-09
4.12962e-09
4.13291e-09
4.13605e-09
4.13906e-09
4.14195e-09
4.14471e-09
4.14737e-09
4.14989e-09
4.15233e-09
4.15464e-09
4.15687e-09
4.15898e-09
4.16101e-09
4.16292e-09
4.16469e-09
4.16649e-09
4.16883e-09
0.000750451
0.000618644
0.000255928
6.03179e-05
1.78146e-05
5.53281e-06
1.44006e-06
3.50798e-07
8.15543e-08
1.82223e-08
4.3456e-09
1.66446e-09
1.29601e-09
1.34224e-09
1.51489e-09
1.75533e-09
1.98837e-09
2.21376e-09
2.44268e-09
2.67594e-09
2.91288e-09
3.15271e-09
3.39469e-09
3.63817e-09
3.88256e-09
4.12735e-09
4.37208e-09
4.61635e-09
4.85982e-09
5.10217e-09
5.34314e-09
5.58248e-09
5.81999e-09
6.05549e-09
6.28882e-09
6.51983e-09
6.74839e-09
6.9744e-09
7.19776e-09
7.41837e-09
7.63615e-09
7.85104e-09
8.06297e-09
8.27185e-09
8.47771e-09
8.68037e-09
8.87983e-09
9.07641e-09
9.26885e-09
9.45912e-09
9.64506e-09
9.82905e-09
1.00087e-08
1.0185e-08
1.03579e-08
1.05274e-08
1.06936e-08
1.08564e-08
1.10158e-08
1.11717e-08
1.13243e-08
1.14735e-08
1.16193e-08
1.17617e-08
1.19009e-08
1.20367e-08
1.21692e-08
1.22984e-08
1.24245e-08
1.25473e-08
1.2667e-08
1.27835e-08
1.28969e-08
1.30073e-08
1.31147e-08
1.32191e-08
1.33207e-08
1.34193e-08
1.35151e-08
1.36082e-08
1.36985e-08
1.37862e-08
1.38713e-08
1.39538e-08
1.40337e-08
1.41112e-08
1.41863e-08
1.42591e-08
1.43295e-08
1.43977e-08
1.44637e-08
1.45276e-08
1.45893e-08
1.4649e-08
1.47068e-08
1.47626e-08
1.48165e-08
1.48685e-08
1.49188e-08
1.49674e-08
1.50143e-08
1.50595e-08
1.51031e-08
1.51452e-08
1.51858e-08
1.52249e-08
1.52626e-08
1.5299e-08
1.5334e-08
1.53677e-08
1.54002e-08
1.54315e-08
1.54616e-08
1.54905e-08
1.55184e-08
1.55452e-08
1.5571e-08
1.55958e-08
1.56197e-08
1.56426e-08
1.56647e-08
1.56858e-08
1.57062e-08
1.57257e-08
1.57445e-08
1.57624e-08
1.57798e-08
1.57963e-08
1.58123e-08
1.58275e-08
1.58422e-08
1.58562e-08
1.58697e-08
1.58826e-08
1.5895e-08
1.59069e-08
1.59183e-08
1.59292e-08
1.59396e-08
1.59496e-08
1.59591e-08
1.59683e-08
1.5977e-08
1.59854e-08
1.59934e-08
1.60011e-08
1.60083e-08
1.6015e-08
1.60218e-08
1.60306e-08
0.000909823
0.000899672
0.000490368
0.000124738
3.06314e-05
9.75517e-06
2.73957e-06
6.85872e-07
1.64229e-07
3.80138e-08
9.72505e-09
4.22887e-09
3.54431e-09
3.73176e-09
4.24614e-09
4.91868e-09
5.55939e-09
6.18545e-09
6.82155e-09
7.46873e-09
8.12495e-09
8.78794e-09
9.45561e-09
1.01261e-08
1.07978e-08
1.14692e-08
1.21392e-08
1.28065e-08
1.34702e-08
1.41296e-08
1.47839e-08
1.54325e-08
1.60749e-08
1.67105e-08
1.73391e-08
1.79602e-08
1.85735e-08
1.91789e-08
1.9776e-08
2.03647e-08
2.09447e-08
2.1516e-08
2.20783e-08
2.26316e-08
2.31759e-08
2.37108e-08
2.42363e-08
2.47533e-08
2.52586e-08
2.57574e-08
2.62441e-08
2.67248e-08
2.71935e-08
2.76528e-08
2.81025e-08
2.85429e-08
2.89738e-08
2.93954e-08
2.98076e-08
3.02105e-08
3.0604e-08
3.09884e-08
3.13635e-08
3.17296e-08
3.20866e-08
3.24348e-08
3.27741e-08
3.31047e-08
3.34267e-08
3.37401e-08
3.40452e-08
3.4342e-08
3.46306e-08
3.49112e-08
3.5184e-08
3.54489e-08
3.57063e-08
3.59561e-08
3.61987e-08
3.6434e-08
3.66622e-08
3.68835e-08
3.7098e-08
3.7306e-08
3.75074e-08
3.77025e-08
3.78913e-08
3.80742e-08
3.82511e-08
3.84224e-08
3.85879e-08
3.8748e-08
3.89027e-08
3.90523e-08
3.91968e-08
3.93364e-08
3.94713e-08
3.96014e-08
3.97271e-08
3.98483e-08
3.99653e-08
4.00781e-08
4.01869e-08
4.02919e-08
4.0393e-08
4.04905e-08
4.05843e-08
4.06749e-08
4.07619e-08
4.0846e-08
4.09267e-08
4.10045e-08
4.10793e-08
4.11513e-08
4.12206e-08
4.12871e-08
4.13512e-08
4.14128e-08
4.1472e-08
4.15288e-08
4.15836e-08
4.1636e-08
4.16865e-08
4.17348e-08
4.17815e-08
4.1826e-08
4.1869e-08
4.19099e-08
4.19496e-08
4.19872e-08
4.20237e-08
4.20584e-08
4.20919e-08
4.21238e-08
4.21545e-08
4.21838e-08
4.2212e-08
4.2239e-08
4.22647e-08
4.22896e-08
4.23131e-08
4.23359e-08
4.23575e-08
4.23783e-08
4.2398e-08
4.24169e-08
4.24347e-08
4.24513e-08
4.24681e-08
4.249e-08
0.000789017
0.000919679
0.000684737
0.000216273
4.9109e-05
1.37549e-05
4.16332e-06
1.09256e-06
2.70292e-07
6.49195e-08
1.79568e-08
8.85963e-09
7.89323e-09
8.42724e-09
9.64212e-09
1.11442e-08
1.25545e-08
1.39422e-08
1.53486e-08
1.6774e-08
1.82134e-08
1.96616e-08
2.1114e-08
2.25663e-08
2.40151e-08
2.54572e-08
2.68901e-08
2.83115e-08
2.97193e-08
3.11122e-08
3.24885e-08
3.38474e-08
3.51879e-08
3.65091e-08
3.78106e-08
3.90918e-08
4.03523e-08
4.15917e-08
4.28099e-08
4.40066e-08
4.51816e-08
4.63349e-08
4.74662e-08
4.85755e-08
4.96629e-08
5.0728e-08
5.17708e-08
5.27936e-08
5.37898e-08
5.47701e-08
5.57238e-08
5.66628e-08
5.75756e-08
5.84675e-08
5.93382e-08
6.01886e-08
6.10187e-08
6.18284e-08
6.26181e-08
6.33879e-08
6.41381e-08
6.48689e-08
6.55806e-08
6.62735e-08
6.69478e-08
6.76039e-08
6.8242e-08
6.88624e-08
6.94655e-08
7.00515e-08
7.06207e-08
7.11734e-08
7.171e-08
7.22308e-08
7.27361e-08
7.32262e-08
7.37016e-08
7.41623e-08
7.46089e-08
7.50415e-08
7.54606e-08
7.58665e-08
7.62594e-08
7.66397e-08
7.70077e-08
7.73638e-08
7.7708e-08
7.80409e-08
7.83626e-08
7.86736e-08
7.89739e-08
7.92642e-08
7.95443e-08
7.98149e-08
8.0076e-08
8.0328e-08
8.05712e-08
8.08057e-08
8.1032e-08
8.12501e-08
8.14605e-08
8.16631e-08
8.18585e-08
8.20468e-08
8.2228e-08
8.24028e-08
8.25707e-08
8.27329e-08
8.28885e-08
8.30387e-08
8.31828e-08
8.33218e-08
8.34552e-08
8.35837e-08
8.37072e-08
8.38258e-08
8.394e-08
8.40496e-08
8.41551e-08
8.42561e-08
8.43535e-08
8.44467e-08
8.45365e-08
8.46223e-08
8.47052e-08
8.47842e-08
8.48606e-08
8.49332e-08
8.50036e-08
8.50704e-08
8.51351e-08
8.51966e-08
8.5256e-08
8.53125e-08
8.5367e-08
8.5419e-08
8.54689e-08
8.55168e-08
8.55624e-08
8.56064e-08
8.56481e-08
8.56884e-08
8.57266e-08
8.57634e-08
8.57984e-08
8.58318e-08
8.58633e-08
8.58928e-08
8.59223e-08
8.59613e-08
0.000538661
0.000633695
0.000623874
0.000302492
7.41185e-05
1.79787e-05
5.14707e-06
1.43482e-06
3.72388e-07
9.42938e-08
2.89066e-08
1.62398e-08
1.52201e-08
1.64359e-08
1.88555e-08
2.16986e-08
2.43355e-08
2.69366e-08
2.95583e-08
3.21978e-08
3.48448e-08
3.74896e-08
4.01235e-08
4.27393e-08
4.53309e-08
4.78931e-08
5.0422e-08
5.29139e-08
5.53661e-08
5.77762e-08
6.0142e-08
6.24624e-08
6.47364e-08
6.69636e-08
6.91437e-08
7.12768e-08
7.33629e-08
7.54023e-08
7.73955e-08
7.93429e-08
8.12452e-08
8.31029e-08
8.49168e-08
8.66876e-08
8.84155e-08
9.00988e-08
9.17384e-08
9.33381e-08
9.48887e-08
9.64068e-08
9.78769e-08
9.93172e-08
1.00711e-07
1.02067e-07
1.03385e-07
1.04667e-07
1.05912e-07
1.07123e-07
1.08299e-07
1.0944e-07
1.10549e-07
1.11625e-07
1.12669e-07
1.13681e-07
1.14664e-07
1.15616e-07
1.1654e-07
1.17435e-07
1.18303e-07
1.19143e-07
1.19957e-07
1.20746e-07
1.21509e-07
1.22248e-07
1.22963e-07
1.23655e-07
1.24324e-07
1.24971e-07
1.25597e-07
1.26203e-07
1.26788e-07
1.27353e-07
1.27899e-07
1.28427e-07
1.28937e-07
1.29429e-07
1.29904e-07
1.30363e-07
1.30806e-07
1.31234e-07
1.31646e-07
1.32044e-07
1.32427e-07
1.32798e-07
1.33154e-07
1.33499e-07
1.3383e-07
1.3415e-07
1.34458e-07
1.34754e-07
1.3504e-07
1.35315e-07
1.3558e-07
1.35835e-07
1.36081e-07
1.36317e-07
1.36544e-07
1.36763e-07
1.36973e-07
1.37176e-07
1.3737e-07
1.37558e-07
1.37737e-07
1.3791e-07
1.38077e-07
1.38236e-07
1.3839e-07
1.38537e-07
1.38678e-07
1.38814e-07
1.38945e-07
1.3907e-07
1.3919e-07
1.39305e-07
1.39416e-07
1.39522e-07
1.39625e-07
1.39722e-07
1.39816e-07
1.39905e-07
1.39992e-07
1.40074e-07
1.40154e-07
1.40229e-07
1.40302e-07
1.40372e-07
1.40438e-07
1.40502e-07
1.40563e-07
1.40622e-07
1.40678e-07
1.40732e-07
1.40783e-07
1.40832e-07
1.40878e-07
1.40923e-07
1.40965e-07
1.41004e-07
1.41044e-07
1.41096e-07
0.000496156
0.000400258
0.000400787
0.000288781
9.5997e-05
2.381e-05
6.26117e-06
1.75926e-06
4.77355e-07
1.27391e-07
4.3224e-08
2.7142e-08
2.63875e-08
2.87157e-08
3.29284e-08
3.76494e-08
4.19829e-08
4.62458e-08
5.05034e-08
5.47478e-08
5.89624e-08
6.3132e-08
6.72431e-08
7.12845e-08
7.52482e-08
7.91285e-08
8.29216e-08
8.66254e-08
9.02392e-08
9.37633e-08
9.71964e-08
1.00532e-07
1.03769e-07
1.06911e-07
1.09957e-07
1.1291e-07
1.15773e-07
1.18546e-07
1.21233e-07
1.23835e-07
1.26354e-07
1.28792e-07
1.31152e-07
1.33435e-07
1.35646e-07
1.37786e-07
1.39858e-07
1.41867e-07
1.43804e-07
1.45691e-07
1.47507e-07
1.49278e-07
1.50983e-07
1.52633e-07
1.5423e-07
1.55776e-07
1.57271e-07
1.58718e-07
1.60118e-07
1.61472e-07
1.62781e-07
1.64046e-07
1.6527e-07
1.66453e-07
1.67596e-07
1.68701e-07
1.69769e-07
1.70801e-07
1.71798e-07
1.72761e-07
1.73691e-07
1.74589e-07
1.75457e-07
1.76294e-07
1.77103e-07
1.77883e-07
1.78636e-07
1.79363e-07
1.80064e-07
1.80741e-07
1.81394e-07
1.82023e-07
1.82631e-07
1.83216e-07
1.83781e-07
1.84325e-07
1.8485e-07
1.85356e-07
1.85843e-07
1.86312e-07
1.86765e-07
1.87201e-07
1.8762e-07
1.88025e-07
1.88414e-07
1.88789e-07
1.8915e-07
1.89497e-07
1.89832e-07
1.90153e-07
1.90463e-07
1.9076e-07
1.91047e-07
1.91323e-07
1.91587e-07
1.91843e-07
1.92087e-07
1.92323e-07
1.92549e-07
1.92767e-07
1.92976e-07
1.93177e-07
1.9337e-07
1.93555e-07
1.93733e-07
1.93904e-07
1.94068e-07
1.94225e-07
1.94377e-07
1.94522e-07
1.94661e-07
1.94795e-07
1.94923e-07
1.95046e-07
1.95165e-07
1.95277e-07
1.95386e-07
1.9549e-07
1.9559e-07
1.95686e-07
1.95778e-07
1.95865e-07
1.9595e-07
1.9603e-07
1.96108e-07
1.96182e-07
1.96252e-07
1.9632e-07
1.96385e-07
1.96448e-07
1.96507e-07
1.96564e-07
1.96618e-07
1.9667e-07
1.9672e-07
1.96767e-07
1.96812e-07
1.96854e-07
1.96895e-07
1.96951e-07
0.000712419
0.000359373
0.000254155
0.000204438
0.000100159
2.89525e-05
7.83735e-06
2.17133e-06
6.0159e-07
1.67372e-07
6.19611e-08
4.22952e-08
4.21012e-08
4.5977e-08
5.25364e-08
5.95631e-08
6.59517e-08
7.21822e-08
7.83249e-08
8.43656e-08
9.02846e-08
9.60677e-08
1.01706e-07
1.07183e-07
1.12477e-07
1.17583e-07
1.22501e-07
1.2723e-07
1.31772e-07
1.36129e-07
1.40306e-07
1.44318e-07
1.48171e-07
1.5187e-07
1.55423e-07
1.58834e-07
1.6211e-07
1.65257e-07
1.68279e-07
1.71182e-07
1.73972e-07
1.76653e-07
1.7923e-07
1.81707e-07
1.84091e-07
1.86382e-07
1.88585e-07
1.90709e-07
1.92743e-07
1.94711e-07
1.96596e-07
1.98422e-07
2.00171e-07
2.01855e-07
2.03475e-07
2.05036e-07
2.06539e-07
2.07986e-07
2.09379e-07
2.1072e-07
2.12012e-07
2.13255e-07
2.14453e-07
2.15606e-07
2.16716e-07
2.17785e-07
2.18815e-07
2.19806e-07
2.20761e-07
2.2168e-07
2.22565e-07
2.23417e-07
2.24237e-07
2.25027e-07
2.25788e-07
2.2652e-07
2.27225e-07
2.27903e-07
2.28557e-07
2.29185e-07
2.29791e-07
2.30373e-07
2.30934e-07
2.31473e-07
2.31992e-07
2.32492e-07
2.32972e-07
2.33435e-07
2.3388e-07
2.34308e-07
2.3472e-07
2.35116e-07
2.35497e-07
2.35863e-07
2.36215e-07
2.36554e-07
2.3688e-07
2.37193e-07
2.37494e-07
2.37783e-07
2.38062e-07
2.38329e-07
2.38586e-07
2.38833e-07
2.3907e-07
2.39298e-07
2.39516e-07
2.39727e-07
2.39929e-07
2.40123e-07
2.40309e-07
2.40488e-07
2.4066e-07
2.40824e-07
2.40983e-07
2.41134e-07
2.4128e-07
2.41419e-07
2.41554e-07
2.41682e-07
2.41806e-07
2.41924e-07
2.42038e-07
2.42146e-07
2.42251e-07
2.4235e-07
2.42447e-07
2.42538e-07
2.42627e-07
2.42711e-07
2.42792e-07
2.42869e-07
2.42944e-07
2.43015e-07
2.43083e-07
2.43148e-07
2.43211e-07
2.43271e-07
2.43328e-07
2.43383e-07
2.43435e-07
2.43485e-07
2.43533e-07
2.43579e-07
2.43622e-07
2.43664e-07
2.43703e-07
2.4374e-07
2.43776e-07
2.43826e-07
0.000985259
0.000470385
0.00020461
0.000134735
8.39697e-05
3.07765e-05
9.20949e-06
2.64757e-06
7.47325e-07
2.15293e-07
8.55804e-08
6.20871e-08
6.26949e-08
6.84801e-08
7.77532e-08
8.72539e-08
9.58034e-08
1.04031e-07
1.12028e-07
1.19746e-07
1.27152e-07
1.34226e-07
1.40956e-07
1.47349e-07
1.53426e-07
1.59198e-07
1.64677e-07
1.69874e-07
1.74804e-07
1.79481e-07
1.83919e-07
1.88132e-07
1.92132e-07
1.95932e-07
1.99542e-07
2.02973e-07
2.06237e-07
2.09341e-07
2.12297e-07
2.15111e-07
2.17793e-07
2.20349e-07
2.22786e-07
2.25111e-07
2.27331e-07
2.2945e-07
2.31473e-07
2.3341e-07
2.35252e-07
2.37024e-07
2.3871e-07
2.40335e-07
2.41881e-07
2.43361e-07
2.44779e-07
2.46136e-07
2.47437e-07
2.48684e-07
2.49879e-07
2.51024e-07
2.52121e-07
2.53174e-07
2.54183e-07
2.55151e-07
2.5608e-07
2.5697e-07
2.57825e-07
2.58646e-07
2.59433e-07
2.60188e-07
2.60914e-07
2.6161e-07
2.62278e-07
2.6292e-07
2.63536e-07
2.64128e-07
2.64696e-07
2.65242e-07
2.65766e-07
2.6627e-07
2.66753e-07
2.67218e-07
2.67664e-07
2.68092e-07
2.68504e-07
2.68899e-07
2.69279e-07
2.69643e-07
2.69994e-07
2.7033e-07
2.70653e-07
2.70964e-07
2.71262e-07
2.71548e-07
2.71823e-07
2.72088e-07
2.72341e-07
2.72585e-07
2.72819e-07
2.73043e-07
2.73259e-07
2.73466e-07
2.73665e-07
2.73856e-07
2.74039e-07
2.74216e-07
2.74384e-07
2.74547e-07
2.74702e-07
2.74851e-07
2.74994e-07
2.75132e-07
2.75264e-07
2.7539e-07
2.75512e-07
2.75628e-07
2.7574e-07
2.75847e-07
2.7595e-07
2.76048e-07
2.76142e-07
2.76233e-07
2.7632e-07
2.76402e-07
2.76483e-07
2.76558e-07
2.76632e-07
2.76702e-07
2.7677e-07
2.76833e-07
2.76896e-07
2.76954e-07
2.77011e-07
2.77065e-07
2.77117e-07
2.77167e-07
2.77214e-07
2.7726e-07
2.77303e-07
2.77345e-07
2.77385e-07
2.77423e-07
2.77459e-07
2.77494e-07
2.77528e-07
2.77559e-07
2.77589e-07
2.77617e-07
2.77644e-07
2.77683e-07
0.00125276
0.000654942
0.000238729
0.000101398
6.43542e-05
2.95972e-05
9.67719e-06
2.91826e-06
8.54896e-07
2.59198e-07
1.12137e-07
8.61811e-08
8.79502e-08
9.58719e-08
1.07913e-07
1.19726e-07
1.30171e-07
1.39946e-07
1.49142e-07
1.578e-07
1.65935e-07
1.73563e-07
1.80704e-07
1.87386e-07
1.93636e-07
1.99479e-07
2.04943e-07
2.10053e-07
2.14834e-07
2.1931e-07
2.23504e-07
2.27435e-07
2.31123e-07
2.34585e-07
2.37839e-07
2.40899e-07
2.4378e-07
2.46494e-07
2.49052e-07
2.51467e-07
2.53747e-07
2.55902e-07
2.5794e-07
2.5987e-07
2.61697e-07
2.63429e-07
2.65071e-07
2.66632e-07
2.68108e-07
2.69518e-07
2.70851e-07
2.72129e-07
2.73337e-07
2.74489e-07
2.75585e-07
2.7663e-07
2.77627e-07
2.78577e-07
2.79484e-07
2.80349e-07
2.81175e-07
2.81964e-07
2.82717e-07
2.83437e-07
2.84126e-07
2.84784e-07
2.85413e-07
2.86015e-07
2.86591e-07
2.87142e-07
2.87669e-07
2.88174e-07
2.88657e-07
2.8912e-07
2.89564e-07
2.89989e-07
2.90396e-07
2.90786e-07
2.9116e-07
2.91518e-07
2.91862e-07
2.92191e-07
2.92507e-07
2.92809e-07
2.931e-07
2.93378e-07
2.93645e-07
2.93901e-07
2.94147e-07
2.94383e-07
2.94608e-07
2.94826e-07
2.95033e-07
2.95233e-07
2.95424e-07
2.95608e-07
2.95784e-07
2.95953e-07
2.96116e-07
2.96271e-07
2.96421e-07
2.96564e-07
2.96701e-07
2.96833e-07
2.96959e-07
2.97081e-07
2.97197e-07
2.97309e-07
2.97415e-07
2.97518e-07
2.97616e-07
2.97711e-07
2.97802e-07
2.97888e-07
2.97972e-07
2.98051e-07
2.98128e-07
2.98201e-07
2.98272e-07
2.98339e-07
2.98404e-07
2.98465e-07
2.98525e-07
2.98581e-07
2.98636e-07
2.98688e-07
2.98738e-07
2.98786e-07
2.98832e-07
2.98875e-07
2.98918e-07
2.98958e-07
2.98997e-07
2.99033e-07
2.99069e-07
2.99103e-07
2.99135e-07
2.99166e-07
2.99196e-07
2.99224e-07
2.99251e-07
2.99278e-07
2.99302e-07
2.99326e-07
2.99349e-07
2.9937e-07
2.9939e-07
2.9941e-07
2.99427e-07
2.99456e-07
0.00150228
0.000862475
0.000336735
0.000112961
4.98764e-05
2.59577e-05
9.51106e-06
3.00663e-06
9.11287e-07
2.92763e-07
1.39593e-07
1.13746e-07
1.17065e-07
1.27159e-07
1.41567e-07
1.54748e-07
1.66136e-07
1.76558e-07
1.86173e-07
1.95041e-07
2.03205e-07
2.10714e-07
2.17614e-07
2.23955e-07
2.29783e-07
2.35142e-07
2.40073e-07
2.44615e-07
2.48803e-07
2.52668e-07
2.56241e-07
2.59546e-07
2.62609e-07
2.65451e-07
2.68092e-07
2.70548e-07
2.72836e-07
2.7497e-07
2.76962e-07
2.78826e-07
2.8057e-07
2.82204e-07
2.83737e-07
2.85177e-07
2.86531e-07
2.87804e-07
2.89003e-07
2.90136e-07
2.91199e-07
2.9221e-07
2.93159e-07
2.94065e-07
2.94916e-07
2.95723e-07
2.96488e-07
2.97213e-07
2.97902e-07
2.98556e-07
2.99177e-07
2.99767e-07
3.00328e-07
3.00863e-07
3.01371e-07
3.01855e-07
3.02317e-07
3.02756e-07
3.03176e-07
3.03575e-07
3.03957e-07
3.04321e-07
3.04669e-07
3.05001e-07
3.05318e-07
3.05621e-07
3.05911e-07
3.06188e-07
3.06453e-07
3.06706e-07
3.06948e-07
3.0718e-07
3.07402e-07
3.07615e-07
3.07818e-07
3.08013e-07
3.082e-07
3.08378e-07
3.08549e-07
3.08713e-07
3.0887e-07
3.09021e-07
3.09165e-07
3.09303e-07
3.09436e-07
3.09563e-07
3.09684e-07
3.09801e-07
3.09913e-07
3.1002e-07
3.10123e-07
3.10221e-07
3.10316e-07
3.10406e-07
3.10493e-07
3.10577e-07
3.10656e-07
3.10733e-07
3.10806e-07
3.10877e-07
3.10944e-07
3.11009e-07
3.11071e-07
3.1113e-07
3.11187e-07
3.11242e-07
3.11294e-07
3.11344e-07
3.11393e-07
3.11438e-07
3.11483e-07
3.11525e-07
3.11566e-07
3.11604e-07
3.11642e-07
3.11677e-07
3.11711e-07
3.11744e-07
3.11775e-07
3.11805e-07
3.11834e-07
3.11861e-07
3.11888e-07
3.11913e-07
3.11938e-07
3.1196e-07
3.11983e-07
3.12004e-07
3.12024e-07
3.12044e-07
3.12062e-07
3.1208e-07
3.12097e-07
3.12114e-07
3.12129e-07
3.12144e-07
3.12158e-07
3.12172e-07
3.12184e-07
3.12197e-07
3.12207e-07
3.12226e-07
0.00169735
0.00107278
0.000471674
0.000150937
5.00566e-05
2.1654e-05
8.71174e-06
2.91602e-06
9.16688e-07
3.15128e-07
1.67132e-07
1.43749e-07
1.48724e-07
1.60419e-07
1.7597e-07
1.89517e-07
2.01036e-07
2.11335e-07
2.20617e-07
2.2898e-07
2.36509e-07
2.43288e-07
2.49391e-07
2.54891e-07
2.59853e-07
2.64335e-07
2.6839e-07
2.72065e-07
2.75401e-07
2.78436e-07
2.81202e-07
2.83727e-07
2.86037e-07
2.88155e-07
2.901e-07
2.91889e-07
2.93538e-07
2.95061e-07
2.96468e-07
2.97773e-07
2.98984e-07
3.00109e-07
3.01155e-07
3.02131e-07
3.03042e-07
3.03893e-07
3.04688e-07
3.05436e-07
3.06133e-07
3.06792e-07
3.07407e-07
3.07991e-07
3.08537e-07
3.09053e-07
3.09539e-07
3.09998e-07
3.10433e-07
3.10844e-07
3.11232e-07
3.11601e-07
3.1195e-07
3.12281e-07
3.12595e-07
3.12894e-07
3.13178e-07
3.13447e-07
3.13704e-07
3.13948e-07
3.14181e-07
3.14402e-07
3.14613e-07
3.14814e-07
3.15006e-07
3.15189e-07
3.15364e-07
3.15531e-07
3.1569e-07
3.15843e-07
3.15988e-07
3.16127e-07
3.1626e-07
3.16387e-07
3.16509e-07
3.16625e-07
3.16737e-07
3.16843e-07
3.16945e-07
3.17043e-07
3.17136e-07
3.17226e-07
3.17312e-07
3.17394e-07
3.17473e-07
3.17548e-07
3.17621e-07
3.1769e-07
3.17756e-07
3.1782e-07
3.17881e-07
3.17939e-07
3.17995e-07
3.18049e-07
3.181e-07
3.1815e-07
3.18197e-07
3.18243e-07
3.18286e-07
3.18328e-07
3.18367e-07
3.18406e-07
3.18442e-07
3.18478e-07
3.18511e-07
3.18544e-07
3.18575e-07
3.18604e-07
3.18633e-07
3.1866e-07
3.18686e-07
3.18711e-07
3.18735e-07
3.18758e-07
3.1878e-07
3.18801e-07
3.18821e-07
3.1884e-07
3.18859e-07
3.18877e-07
3.18894e-07
3.1891e-07
3.18926e-07
3.18941e-07
3.18955e-07
3.18969e-07
3.18982e-07
3.18995e-07
3.19007e-07
3.19018e-07
3.19029e-07
3.1904e-07
3.1905e-07
3.1906e-07
3.19069e-07
3.19078e-07
3.19086e-07
3.19094e-07
3.19102e-07
3.1911e-07
3.19114e-07
3.19128e-07
0.00184163
0.0013844
0.000687476
0.00024319
7.34712e-05
2.36034e-05
8.33876e-06
2.80426e-06
9.22469e-07
3.53085e-07
2.12893e-07
1.92665e-07
1.99159e-07
2.11565e-07
2.26766e-07
2.39195e-07
2.49372e-07
2.58095e-07
2.65637e-07
2.72169e-07
2.77834e-07
2.82753e-07
2.87034e-07
2.90768e-07
2.94033e-07
2.96895e-07
2.99413e-07
3.01633e-07
3.03597e-07
3.0534e-07
3.06891e-07
3.08275e-07
3.09514e-07
3.10626e-07
3.11627e-07
3.12529e-07
3.13348e-07
3.14088e-07
3.14763e-07
3.15377e-07
3.1594e-07
3.16454e-07
3.16926e-07
3.17361e-07
3.17761e-07
3.18131e-07
3.18472e-07
3.1879e-07
3.19084e-07
3.19358e-07
3.19613e-07
3.19852e-07
3.20074e-07
3.20282e-07
3.20477e-07
3.20661e-07
3.20833e-07
3.20995e-07
3.21148e-07
3.21292e-07
3.21428e-07
3.21556e-07
3.21678e-07
3.21793e-07
3.21902e-07
3.22006e-07
3.22104e-07
3.22198e-07
3.22287e-07
3.22371e-07
3.22451e-07
3.22528e-07
3.22601e-07
3.22671e-07
3.22737e-07
3.22801e-07
3.22862e-07
3.2292e-07
3.22975e-07
3.23028e-07
3.23079e-07
3.23127e-07
3.23174e-07
3.23218e-07
3.23261e-07
3.23302e-07
3.23341e-07
3.23378e-07
3.23414e-07
3.23449e-07
3.23481e-07
3.23513e-07
3.23543e-07
3.23573e-07
3.236e-07
3.23627e-07
3.23653e-07
3.23678e-07
3.23702e-07
3.23724e-07
3.23746e-07
3.23767e-07
3.23787e-07
3.23806e-07
3.23824e-07
3.23843e-07
3.23859e-07
3.23876e-07
3.23891e-07
3.23907e-07
3.23921e-07
3.23935e-07
3.23948e-07
3.23961e-07
3.23973e-07
3.23985e-07
3.23996e-07
3.24007e-07
3.24017e-07
3.24027e-07
3.24037e-07
3.24046e-07
3.24054e-07
3.24063e-07
3.24071e-07
3.24078e-07
3.24086e-07
3.24093e-07
3.241e-07
3.24106e-07
3.24113e-07
3.24118e-07
3.24125e-07
3.2413e-07
3.24135e-07
3.2414e-07
3.24145e-07
3.2415e-07
3.24154e-07
3.24159e-07
3.24163e-07
3.24167e-07
3.2417e-07
3.24174e-07
3.24178e-07
3.24181e-07
3.24184e-07
3.24188e-07
3.24188e-07
3.24197e-07
0.00172317
0.00155833
0.000929163
0.000359761
0.000118754
3.6154e-05
1.11103e-05
3.48893e-06
1.11677e-06
4.39584e-07
2.7759e-07
2.5177e-07
2.56364e-07
2.65842e-07
2.76956e-07
2.85909e-07
2.92795e-07
2.98361e-07
3.02904e-07
3.0662e-07
3.0967e-07
3.12181e-07
3.14255e-07
3.15978e-07
3.1741e-07
3.18594e-07
3.19585e-07
3.20418e-07
3.2112e-07
3.21712e-07
3.22213e-07
3.22638e-07
3.23e-07
3.23308e-07
3.23572e-07
3.23798e-07
3.23993e-07
3.2416e-07
3.24305e-07
3.24431e-07
3.2454e-07
3.24636e-07
3.24719e-07
3.24792e-07
3.24857e-07
3.24915e-07
3.24965e-07
3.25012e-07
3.25051e-07
3.25089e-07
3.25121e-07
3.25153e-07
3.2518e-07
3.25206e-07
3.25229e-07
3.25251e-07
3.25271e-07
3.25291e-07
3.25309e-07
3.25326e-07
3.25342e-07
3.25357e-07
3.25372e-07
3.25386e-07
3.254e-07
3.25413e-07
3.25427e-07
3.2544e-07
3.25452e-07
3.25465e-07
3.25476e-07
3.25487e-07
3.25498e-07
3.25509e-07
3.25519e-07
3.25529e-07
3.25539e-07
3.25549e-07
3.25558e-07
3.25567e-07
3.25577e-07
3.25585e-07
3.25594e-07
3.25603e-07
3.25611e-07
3.25619e-07
3.25627e-07
3.25635e-07
3.25642e-07
3.2565e-07
3.25657e-07
3.25664e-07
3.2567e-07
3.25677e-07
3.25684e-07
3.2569e-07
3.25696e-07
3.25702e-07
3.25708e-07
3.25713e-07
3.25719e-07
3.25724e-07
3.25729e-07
3.25734e-07
3.25738e-07
3.25744e-07
3.25747e-07
3.25752e-07
3.25756e-07
3.25761e-07
3.25764e-07
3.25768e-07
3.25772e-07
3.25775e-07
3.25779e-07
3.25782e-07
3.25786e-07
3.25788e-07
3.25792e-07
3.25794e-07
3.25797e-07
3.258e-07
3.25802e-07
3.25805e-07
3.25807e-07
3.25809e-07
3.25812e-07
3.25814e-07
3.25816e-07
3.25818e-07
3.2582e-07
3.25822e-07
3.25824e-07
3.25825e-07
3.25827e-07
3.25829e-07
3.2583e-07
3.25832e-07
3.25833e-07
3.25835e-07
3.25836e-07
3.25837e-07
3.25838e-07
3.2584e-07
3.25841e-07
3.25842e-07
3.25843e-07
3.25845e-07
3.25843e-07
3.25849e-07
0.0015467
0.00139076
0.000983442
0.000431155
0.000157864
5.22989e-05
1.62133e-05
4.86597e-06
1.48029e-06
5.6035e-07
3.40677e-07
2.99167e-07
2.98235e-07
3.04187e-07
3.10405e-07
3.15456e-07
3.19167e-07
3.21919e-07
3.23858e-07
3.25282e-07
3.26358e-07
3.2715e-07
3.27716e-07
3.28111e-07
3.28374e-07
3.28538e-07
3.28627e-07
3.28659e-07
3.28649e-07
3.28607e-07
3.28543e-07
3.28462e-07
3.28371e-07
3.28272e-07
3.28169e-07
3.28064e-07
3.2796e-07
3.27856e-07
3.27755e-07
3.27656e-07
3.27561e-07
3.2747e-07
3.27382e-07
3.27299e-07
3.2722e-07
3.27144e-07
3.27074e-07
3.27003e-07
3.26944e-07
3.26882e-07
3.26824e-07
3.26771e-07