/*--------------------------------*- C++ -*----------------------------------*\
| =========                 |                                                 |
| \\      /  F ield         | OpenFOAM: The Open Source CFD Toolbox           |
|  \\    /   O peration     | Version:  v1912                                 |
|   \\  /    A nd           | Website:  www.openfoam.com                      |
|    \\/     M anipulation  |                                                 |
\*---------------------------------------------------------------------------*/
FoamFile
{
    version     2.0;
    format      ascii;
    class       volScalarField;
    location    "30";
    object      nut;
}
// * * * * * * * * * * * * * * * * * * * * * * * * * * * * * * * * * * * * * //

dimensions      [0 2 -1 0 0 0 0];


internalField   nonuniform List<scalar> 
14268
(
1.58607e-09
1.59759e-09
1.6035e-09
1.60347e-09
1.59961e-09
1.59457e-09
1.59073e-09
1.58721e-09
1.58064e-09
1.57183e-09
1.56285e-09
1.55529e-09
1.54996e-09
1.54643e-09
1.54356e-09
1.54113e-09
1.54667e-09
1.55999e-09
1.58083e-09
1.60776e-09
1.639e-09
1.67177e-09
1.70252e-09
1.728e-09
1.74741e-09
1.75927e-09
1.76593e-09
1.77697e-09
1.80231e-09
1.84918e-09
1.93643e-09
2.10807e-09
2.40417e-09
2.82141e-09
3.40924e-09
4.16219e-09
5.14659e-09
5.87167e-09
5.27961e-09
4.0682e-09
3.03277e-09
2.28023e-09
1.77635e-09
1.14467e-09
1.39128e-07
1.39559e-07
1.39915e-07
1.4017e-07
1.40324e-07
1.40307e-07
1.40011e-07
1.39463e-07
1.38596e-07
1.37493e-07
1.36349e-07
1.35346e-07
1.34639e-07
1.34271e-07
1.34185e-07
1.34196e-07
1.34336e-07
1.34573e-07
1.34957e-07
1.35489e-07
1.36185e-07
1.36996e-07
1.37831e-07
1.38584e-07
1.39308e-07
1.39967e-07
1.40649e-07
1.41349e-07
1.42562e-07
1.44781e-07
1.49021e-07
1.54816e-07
1.62545e-07
1.71707e-07
1.82692e-07
1.95377e-07
2.10788e-07
2.23019e-07
2.19582e-07
1.91009e-07
1.50944e-07
1.22768e-07
9.56511e-08
6.69023e-08
3.37689e-07
3.37897e-07
3.38072e-07
3.38197e-07
3.38271e-07
3.38263e-07
3.38112e-07
3.37837e-07
3.37384e-07
3.36798e-07
3.36184e-07
3.35635e-07
3.35244e-07
3.35033e-07
3.34972e-07
3.34923e-07
3.34952e-07
3.35022e-07
3.35179e-07
3.35408e-07
3.35742e-07
3.36133e-07
3.36564e-07
3.36932e-07
3.37312e-07
3.37638e-07
3.38018e-07
3.3839e-07
3.39108e-07
3.40311e-07
3.42586e-07
3.45548e-07
3.49407e-07
3.53776e-07
3.58856e-07
3.64583e-07
3.71942e-07
3.78627e-07
3.78867e-07
3.67679e-07
3.46335e-07
3.25341e-07
2.96535e-07
2.57331e-07
3.78266e-07
3.78302e-07
3.78333e-07
3.78353e-07
3.78363e-07
3.78358e-07
3.78326e-07
3.7827e-07
3.78168e-07
3.78041e-07
3.77913e-07
3.77799e-07
3.77724e-07
3.77679e-07
3.77672e-07
3.77649e-07
3.77659e-07
3.7766e-07
3.77695e-07
3.77725e-07
3.77793e-07
3.77859e-07
3.77949e-07
3.78001e-07
3.78084e-07
3.78126e-07
3.78215e-07
3.78242e-07
3.78395e-07
3.78584e-07
3.79086e-07
3.79675e-07
3.80611e-07
3.81815e-07
3.83596e-07
3.86089e-07
3.9011e-07
3.94152e-07
3.9485e-07
3.89681e-07
3.81393e-07
3.73773e-07
3.66959e-07
3.49649e-07
3.82797e-07
3.828e-07
3.82803e-07
3.82805e-07
3.82806e-07
3.82806e-07
3.82799e-07
3.8279e-07
3.8277e-07
3.82747e-07
3.82729e-07
3.82715e-07
3.8271e-07
3.82708e-07
3.8271e-07
3.82697e-07
3.82699e-07
3.82695e-07
3.82701e-07
3.82696e-07
3.82703e-07
3.82701e-07
3.82719e-07
3.82715e-07
3.82738e-07
3.82731e-07
3.8276e-07
3.82731e-07
3.82774e-07
3.82775e-07
3.82924e-07
3.83091e-07
3.83524e-07
3.84228e-07
3.85535e-07
3.87607e-07
3.91066e-07
3.94824e-07
3.95627e-07
3.91232e-07
3.85218e-07
3.81485e-07
3.76095e-07
3.74906e-07
3.82968e-07
3.82966e-07
3.82964e-07
3.82959e-07
3.82952e-07
3.82945e-07
3.82942e-07
3.82941e-07
3.82925e-07
3.82908e-07
3.82897e-07
3.82888e-07
3.82887e-07
3.8288e-07
3.82882e-07
3.82861e-07
3.82865e-07
3.82851e-07
3.82858e-07
3.82845e-07
3.82854e-07
3.82847e-07
3.82864e-07
3.82849e-07
3.82869e-07
3.82848e-07
3.82871e-07
3.82823e-07
3.82858e-07
3.82829e-07
3.82965e-07
3.83114e-07
3.8354e-07
3.84228e-07
3.85506e-07
3.87528e-07
3.91185e-07
3.9503e-07
3.95924e-07
3.9143e-07
3.8521e-07
3.80873e-07
3.795e-07
3.79146e-07
3.83169e-07
3.83169e-07
3.83168e-07
3.83167e-07
3.83166e-07
3.83166e-07
3.83162e-07
3.83157e-07
3.83144e-07
3.83132e-07
3.83127e-07
3.83126e-07
3.83129e-07
3.83129e-07
3.83131e-07
3.83117e-07
3.8312e-07
3.83114e-07
3.83116e-07
3.83106e-07
3.83108e-07
3.83097e-07
3.83106e-07
3.83093e-07
3.83109e-07
3.83093e-07
3.83114e-07
3.83075e-07
3.83106e-07
3.83084e-07
3.83195e-07
3.83316e-07
3.837e-07
3.84363e-07
3.85637e-07
3.87676e-07
3.91225e-07
3.94978e-07
3.95747e-07
3.91431e-07
3.85256e-07
3.82086e-07
3.78418e-07
3.81713e-07
3.83002e-07
3.83e-07
3.82998e-07
3.82992e-07
3.82985e-07
3.82979e-07
3.82977e-07
3.82977e-07
3.82963e-07
3.82948e-07
3.8294e-07
3.82935e-07
3.82936e-07
3.82931e-07
3.82932e-07
3.82911e-07
3.82916e-07
3.82904e-07
3.8291e-07
3.82896e-07
3.82904e-07
3.82898e-07
3.82914e-07
3.82899e-07
3.82919e-07
3.82897e-07
3.82918e-07
3.82869e-07
3.829e-07
3.82866e-07
3.82995e-07
3.8314e-07
3.83566e-07
3.84261e-07
3.85546e-07
3.87585e-07
3.91164e-07
3.94953e-07
3.95886e-07
3.91395e-07
3.85533e-07
3.81136e-07
3.79638e-07
3.8127e-07
3.83166e-07
3.83164e-07
3.83163e-07
3.83162e-07
3.83161e-07
3.8316e-07
3.83156e-07
3.83153e-07
3.83141e-07
3.8313e-07
3.83124e-07
3.83122e-07
3.83124e-07
3.83124e-07
3.83125e-07
3.83112e-07
3.83115e-07
3.83108e-07
3.83109e-07
3.83098e-07
3.83098e-07
3.83087e-07
3.83096e-07
3.83084e-07
3.83099e-07
3.83082e-07
3.83103e-07
3.83063e-07
3.83091e-07
3.83066e-07
3.83177e-07
3.83294e-07
3.83681e-07
3.84345e-07
3.85617e-07
3.87649e-07
3.91215e-07
3.95018e-07
3.9583e-07
3.91532e-07
3.85259e-07
3.82237e-07
3.78524e-07
3.82392e-07
3.83011e-07
3.83008e-07
3.83006e-07
3.83001e-07
3.82994e-07
3.82989e-07
3.82987e-07
3.82987e-07
3.82973e-07
3.82958e-07
3.82951e-07
3.82947e-07
3.8295e-07
3.82946e-07
3.82946e-07
3.82926e-07
3.82932e-07
3.82921e-07
3.82927e-07
3.82913e-07
3.8292e-07
3.82915e-07
3.82931e-07
3.82919e-07
3.82939e-07
3.82917e-07
3.82937e-07
3.82888e-07
3.82917e-07
3.82885e-07
3.83012e-07
3.8316e-07
3.83585e-07
3.84281e-07
3.85565e-07
3.876e-07
3.91184e-07
3.94977e-07
3.9589e-07
3.91406e-07
3.85524e-07
3.81262e-07
3.79661e-07
3.81751e-07
3.83159e-07
3.83158e-07
3.83157e-07
3.83155e-07
3.83153e-07
3.83152e-07
3.83149e-07
3.83146e-07
3.83134e-07
3.83122e-07
3.83116e-07
3.83113e-07
3.83115e-07
3.83114e-07
3.83115e-07
3.83102e-07
3.83105e-07
3.83098e-07
3.83098e-07
3.83086e-07
3.83086e-07
3.83075e-07
3.83084e-07
3.83073e-07
3.83089e-07
3.83071e-07
3.83092e-07
3.8305e-07
3.83078e-07
3.83051e-07
3.83163e-07
3.83282e-07
3.83676e-07
3.84338e-07
3.85609e-07
3.87643e-07
3.91233e-07
3.95039e-07
3.95875e-07
3.91609e-07
3.85267e-07
3.82332e-07
3.7859e-07
3.8255e-07
3.83023e-07
3.83021e-07
3.83019e-07
3.83014e-07
3.83007e-07
3.83002e-07
3.83001e-07
3.83001e-07
3.82988e-07
3.82974e-07
3.82968e-07
3.82966e-07
3.8297e-07
3.82967e-07
3.82967e-07
3.82948e-07
3.82954e-07
3.82945e-07
3.8295e-07
3.82935e-07
3.82944e-07
3.82938e-07
3.82955e-07
3.82943e-07
3.82964e-07
3.82943e-07
3.82962e-07
3.82913e-07
3.82939e-07
3.82908e-07
3.83034e-07
3.83182e-07
3.83607e-07
3.84313e-07
3.85618e-07
3.87686e-07
3.91255e-07
3.95027e-07
3.95902e-07
3.91403e-07
3.85523e-07
3.81418e-07
3.79666e-07
3.82046e-07
3.83151e-07
3.8315e-07
3.83149e-07
3.83147e-07
3.83144e-07
3.83144e-07
3.83142e-07
3.83138e-07
3.83125e-07
3.83113e-07
3.83107e-07
3.83104e-07
3.83106e-07
3.83104e-07
3.83106e-07
3.83093e-07
3.83096e-07
3.83089e-07
3.83089e-07
3.83077e-07
3.83078e-07
3.83067e-07
3.83078e-07
3.83068e-07
3.83085e-07
3.83068e-07
3.83087e-07
3.83046e-07
3.83073e-07
3.83046e-07
3.83162e-07
3.83289e-07
3.8369e-07
3.84377e-07
3.85668e-07
3.87705e-07
3.91261e-07
3.95024e-07
3.95883e-07
3.91655e-07
3.85379e-07
3.82261e-07
3.788e-07
3.82682e-07
3.83049e-07
3.83047e-07
3.83046e-07
3.83041e-07
3.83036e-07
3.83033e-07
3.83034e-07
3.83034e-07
3.83019e-07
3.83006e-07
3.83001e-07
3.83e-07
3.83006e-07
3.83006e-07
3.83007e-07
3.82988e-07
3.82995e-07
3.82991e-07
3.82998e-07
3.82986e-07
3.82995e-07
3.82992e-07
3.8301e-07
3.83002e-07
3.83023e-07
3.83005e-07
3.83023e-07
3.82977e-07
3.83002e-07
3.82972e-07
3.83096e-07
3.83247e-07
3.83685e-07
3.84373e-07
3.85645e-07
3.87629e-07
3.91215e-07
3.95e-07
3.95887e-07
3.91384e-07
3.8542e-07
3.81498e-07
3.79506e-07
3.82241e-07
3.83191e-07
3.83193e-07
3.83194e-07
3.83193e-07
3.83193e-07
3.83195e-07
3.83193e-07
3.83194e-07
3.83181e-07
3.8317e-07
3.83166e-07
3.83163e-07
3.83166e-07
3.83166e-07
3.83171e-07
3.83159e-07
3.83161e-07
3.83154e-07
3.83159e-07
3.83148e-07
3.83151e-07
3.8314e-07
3.83154e-07
3.83142e-07
3.83163e-07
3.83147e-07
3.8317e-07
3.83128e-07
3.83158e-07
3.83128e-07
3.83246e-07
3.8337e-07
3.8375e-07
3.84393e-07
3.85631e-07
3.87653e-07
3.91207e-07
3.95007e-07
3.95922e-07
3.91618e-07
3.85481e-07
3.82107e-07
3.79273e-07
3.82679e-07
3.83097e-07
3.83096e-07
3.83095e-07
3.83091e-07
3.83086e-07
3.83084e-07
3.83083e-07
3.83085e-07
3.8307e-07
3.83057e-07
3.83052e-07
3.83048e-07
3.83053e-07
3.83054e-07
3.83059e-07
3.83039e-07
3.83046e-07
3.83039e-07
3.83045e-07
3.83032e-07
3.83039e-07
3.83033e-07
3.8305e-07
3.8304e-07
3.83063e-07
3.83044e-07
3.83066e-07
3.83016e-07
3.83043e-07
3.83005e-07
3.83124e-07
3.83253e-07
3.83669e-07
3.84351e-07
3.85618e-07
3.87635e-07
3.91188e-07
3.95017e-07
3.95858e-07
3.91459e-07
3.85301e-07
3.81737e-07
3.79007e-07
3.82627e-07
3.83199e-07
3.83201e-07
3.83205e-07
3.83204e-07
3.83204e-07
3.83207e-07
3.83206e-07
3.83206e-07
3.83194e-07
3.83183e-07
3.83179e-07
3.83177e-07
3.8318e-07
3.83179e-07
3.83185e-07
3.83172e-07
3.83175e-07
3.83167e-07
3.83173e-07
3.83161e-07
3.83165e-07
3.83155e-07
3.83168e-07
3.83156e-07
3.83174e-07
3.83157e-07
3.83181e-07
3.83139e-07
3.83166e-07
3.83131e-07
3.8324e-07
3.83355e-07
3.83731e-07
3.84383e-07
3.8566e-07
3.87695e-07
3.91359e-07
3.9512e-07
3.95998e-07
3.91544e-07
3.85616e-07
3.81877e-07
3.79834e-07
3.83063e-07
3.83112e-07
3.83111e-07
3.83108e-07
3.83103e-07
3.83096e-07
3.83091e-07
3.8309e-07
3.83091e-07
3.83075e-07
3.83062e-07
3.83056e-07
3.83053e-07
3.83058e-07
3.83057e-07
3.83063e-07
3.83042e-07
3.83051e-07
3.83045e-07
3.83051e-07
3.83037e-07
3.83043e-07
3.83035e-07
3.83057e-07
3.83048e-07
3.83074e-07
3.83054e-07
3.83074e-07
3.83019e-07
3.83044e-07
3.83e-07
3.83111e-07
3.83233e-07
3.83644e-07
3.84309e-07
3.85547e-07
3.87549e-07
3.90956e-07
3.94893e-07
3.95866e-07
3.91634e-07
3.85285e-07
3.81739e-07
3.7883e-07
3.82756e-07
3.83165e-07
3.83169e-07
3.83173e-07
3.83173e-07
3.83174e-07
3.83179e-07
3.83178e-07
3.83182e-07
3.8317e-07
3.8316e-07
3.83158e-07
3.83153e-07
3.83152e-07
3.8315e-07
3.83154e-07
3.83144e-07
3.83144e-07
3.83132e-07
3.83137e-07
3.83127e-07
3.83133e-07
3.83123e-07
3.83135e-07
3.83113e-07
3.83131e-07
3.83117e-07
3.83149e-07
3.83112e-07
3.83144e-07
3.83111e-07
3.83223e-07
3.83335e-07
3.83705e-07
3.84322e-07
3.85571e-07
3.87569e-07
3.91298e-07
3.95107e-07
3.95832e-07
3.9137e-07
3.85573e-07
3.8247e-07
3.79941e-07
3.83021e-07
3.83136e-07
3.83136e-07
3.83136e-07
3.83133e-07
3.8313e-07
3.8313e-07
3.8313e-07
3.83128e-07
3.83117e-07
3.83104e-07
3.83099e-07
3.83099e-07
3.83103e-07
3.83103e-07
3.83106e-07
3.83088e-07
3.83093e-07
3.83091e-07
3.83097e-07
3.83086e-07
3.83091e-07
3.83084e-07
3.831e-07
3.83093e-07
3.83115e-07
3.83099e-07
3.83121e-07
3.83072e-07
3.83089e-07
3.83033e-07
3.83126e-07
3.8325e-07
3.83665e-07
3.8438e-07
3.85693e-07
3.87815e-07
3.91383e-07
3.95198e-07
3.95914e-07
3.91715e-07
3.85344e-07
3.80834e-07
3.78102e-07
3.82571e-07
3.83127e-07
3.83132e-07
3.83135e-07
3.83137e-07
3.83136e-07
3.83135e-07
3.83135e-07
3.8314e-07
3.8313e-07
3.83115e-07
3.83104e-07
3.83096e-07
3.83098e-07
3.83093e-07
3.83099e-07
3.8308e-07
3.83082e-07
3.83065e-07
3.83069e-07
3.83059e-07
3.83068e-07
3.8306e-07
3.83068e-07
3.83042e-07
3.83064e-07
3.8305e-07
3.83083e-07
3.83051e-07
3.83098e-07
3.83093e-07
3.83253e-07
3.83392e-07
3.83803e-07
3.84447e-07
3.8564e-07
3.8758e-07
3.90857e-07
3.94915e-07
3.95512e-07
3.91349e-07
3.85498e-07
3.83332e-07
3.80299e-07
3.82945e-07
3.83182e-07
3.83185e-07
3.83188e-07
3.83187e-07
3.83184e-07
3.83188e-07
3.83188e-07
3.83194e-07
3.83185e-07
3.8318e-07
3.83182e-07
3.8318e-07
3.83182e-07
3.83175e-07
3.83176e-07
3.83163e-07
3.83168e-07
3.8316e-07
3.83166e-07
3.83151e-07
3.83153e-07
3.83141e-07
3.83161e-07
3.83152e-07
3.83176e-07
3.83157e-07
3.83177e-07
3.83127e-07
3.83141e-07
3.8308e-07
3.83159e-07
3.8324e-07
3.83592e-07
3.84191e-07
3.854e-07
3.87355e-07
3.91021e-07
3.94868e-07
3.95924e-07
3.91547e-07
3.85134e-07
3.81427e-07
3.78947e-07
3.83154e-07
3.83186e-07
3.83189e-07
3.83192e-07
3.83193e-07
3.83195e-07
3.83196e-07
3.83197e-07
3.83203e-07
3.83191e-07
3.83173e-07
3.83163e-07
3.83155e-07
3.83154e-07
3.83142e-07
3.83148e-07
3.83125e-07
3.83123e-07
3.83107e-07
3.83105e-07
3.8309e-07
3.83093e-07
3.83082e-07
3.8309e-07
3.83068e-07
3.83088e-07
3.8307e-07
3.83095e-07
3.83045e-07
3.83062e-07
3.82997e-07
3.83083e-07
3.83155e-07
3.83519e-07
3.84083e-07
3.85278e-07
3.87302e-07
3.91062e-07
3.95134e-07
3.96575e-07
3.92438e-07
3.86335e-07
3.8435e-07
3.80485e-07
3.82277e-07
3.83141e-07
3.83146e-07
3.83152e-07
3.83151e-07
3.83143e-07
3.83138e-07
3.83141e-07
3.83159e-07
3.83163e-07
3.83163e-07
3.83169e-07
3.83163e-07
3.83161e-07
3.83148e-07
3.83148e-07
3.83141e-07
3.83143e-07
3.8313e-07
3.83127e-07
3.83108e-07
3.83104e-07
3.8309e-07
3.83105e-07
3.83097e-07
3.83116e-07
3.83099e-07
3.83115e-07
3.8307e-07
3.83058e-07
3.82942e-07
3.82935e-07
3.82942e-07
3.83216e-07
3.83734e-07
3.84877e-07
3.86894e-07
3.90987e-07
3.9542e-07
3.97281e-07
3.92473e-07
3.84821e-07
3.80542e-07
3.77819e-07
3.82875e-07
3.83142e-07
3.83146e-07
3.83154e-07
3.83157e-07
3.83164e-07
3.83169e-07
3.8317e-07
3.83173e-07
3.83152e-07
3.83128e-07
3.83113e-07
3.831e-07
3.83086e-07
3.83061e-07
3.8305e-07
3.83016e-07
3.83011e-07
3.82997e-07
3.82987e-07
3.8296e-07
3.82957e-07
3.82943e-07
3.82949e-07
3.82925e-07
3.82943e-07
3.82921e-07
3.82938e-07
3.82879e-07
3.82874e-07
3.82774e-07
3.82835e-07
3.82865e-07
3.83193e-07
3.83655e-07
3.84705e-07
3.86861e-07
3.91486e-07
3.96521e-07
3.98558e-07
3.94366e-07
3.86877e-07
3.85023e-07
3.82055e-07
3.81284e-07
3.83097e-07
3.83103e-07
3.8311e-07
3.83107e-07
3.83094e-07
3.83083e-07
3.83089e-07
3.83119e-07
3.83133e-07
3.83142e-07
3.83144e-07
3.83135e-07
3.83129e-07
3.83107e-07
3.83105e-07
3.83106e-07
3.83104e-07
3.83086e-07
3.83075e-07
3.83047e-07
3.83035e-07
3.83016e-07
3.83025e-07
3.8301e-07
3.83029e-07
3.83015e-07
3.8303e-07
3.82982e-07
3.82953e-07
3.82804e-07
3.82729e-07
3.82592e-07
3.82863e-07
3.83335e-07
3.84413e-07
3.86675e-07
3.91849e-07
3.97659e-07
4.0007e-07
3.94049e-07
3.84185e-07
3.79286e-07
3.76182e-07
3.81938e-07
3.83086e-07
3.83093e-07
3.83108e-07
3.83109e-07
3.83114e-07
3.83124e-07
3.83132e-07
3.83126e-07
3.83088e-07
3.83055e-07
3.83036e-07
3.83019e-07
3.82994e-07
3.82953e-07
3.82933e-07
3.82891e-07
3.8288e-07
3.82864e-07
3.82856e-07
3.82829e-07
3.82821e-07
3.82811e-07
3.82813e-07
3.82781e-07
3.82794e-07
3.8277e-07
3.82781e-07
3.82715e-07
3.82675e-07
3.82554e-07
3.82568e-07
3.8263e-07
3.8293e-07
3.83311e-07
3.84198e-07
3.86589e-07
3.92308e-07
3.99345e-07
4.00493e-07
3.94558e-07
3.84511e-07
3.83483e-07
3.81078e-07
3.80839e-07
3.83018e-07
3.83022e-07
3.83022e-07
3.83014e-07
3.82995e-07
3.82979e-07
3.83001e-07
3.83051e-07
3.83079e-07
3.83092e-07
3.83092e-07
3.83082e-07
3.83066e-07
3.83034e-07
3.83027e-07
3.83035e-07
3.83025e-07
3.83004e-07
3.8299e-07
3.82951e-07
3.82931e-07
3.82901e-07
3.82897e-07
3.82876e-07
3.82895e-07
3.82885e-07
3.82906e-07
3.8284e-07
3.82796e-07
3.82594e-07
3.82419e-07
3.82194e-07
3.82504e-07
3.82919e-07
3.83876e-07
3.86323e-07
3.90013e-07
4.09127e-07
4.11651e-07
3.94056e-07
3.78259e-07
3.74862e-07
3.73078e-07
3.80734e-07
3.8286e-07
3.82862e-07
3.82889e-07
3.829e-07
3.82897e-07
3.8291e-07
3.82894e-07
3.82858e-07
3.82823e-07
3.82806e-07
3.82804e-07
3.82786e-07
3.82756e-07
3.82717e-07
3.82716e-07
3.82654e-07
3.8264e-07
3.82608e-07
3.82593e-07
3.82546e-07
3.82515e-07
3.82513e-07
3.82504e-07
3.82454e-07
3.82464e-07
3.82443e-07
3.82454e-07
3.82391e-07
3.82366e-07
3.82243e-07
3.82257e-07
3.82431e-07
3.82788e-07
3.83093e-07
3.83359e-07
3.81798e-07
3.8719e-07
4.70426e-07
4.78818e-07
4.3683e-07
3.96636e-07
3.81713e-07
3.73607e-07
3.76418e-07
3.8284e-07
3.82855e-07
3.8288e-07
3.829e-07
3.82902e-07
3.82864e-07
3.82923e-07
3.8298e-07
3.82968e-07
3.82973e-07
3.82973e-07
3.82957e-07
3.82897e-07
3.82819e-07
3.82774e-07
3.82795e-07
3.82772e-07
3.82757e-07
3.82745e-07
3.8271e-07
3.827e-07
3.82691e-07
3.82697e-07
3.82701e-07
3.82735e-07
3.82731e-07
3.82744e-07
3.82671e-07
3.82569e-07
3.82322e-07
3.82078e-07
3.81653e-07
3.81418e-07
3.80661e-07
3.77944e-07
3.63078e-07
4.23973e-07
6.42757e-07
6.73209e-07
5.67187e-07
4.57649e-07
4.0684e-07
3.83706e-07
3.78895e-07
3.82453e-07
3.82427e-07
3.82427e-07
3.82442e-07
3.82413e-07
3.82378e-07
3.8234e-07
3.82336e-07
3.82336e-07
3.82343e-07
3.82371e-07
3.82394e-07
3.82389e-07
3.82358e-07
3.82402e-07
3.82344e-07
3.82295e-07
3.82193e-07
3.82072e-07
3.8194e-07
3.81826e-07
3.81711e-07
3.81594e-07
3.81463e-07
3.81396e-07
3.81296e-07
3.81291e-07
3.81184e-07
3.81095e-07
3.80929e-07
3.80704e-07
3.80269e-07
3.78464e-07
3.72306e-07
3.53635e-07
3.25186e-07
5.74721e-07
8.12254e-07
8.3111e-07
7.2852e-07
5.67042e-07
4.65671e-07
4.14619e-07
3.87485e-07
3.82178e-07
3.82106e-07
3.82088e-07
3.82131e-07
3.82168e-07
3.82113e-07
3.82122e-07
3.82122e-07
3.82063e-07
3.82054e-07
3.82038e-07
3.81956e-07
3.81799e-07
3.816e-07
3.815e-07
3.8155e-07
3.81552e-07
3.81413e-07
3.81168e-07
3.80836e-07
3.80388e-07
3.79866e-07
3.79313e-07
3.78837e-07
3.7824e-07
3.77549e-07
3.77152e-07
3.76728e-07
3.76088e-07
3.74831e-07
3.72343e-07
3.66957e-07
3.51341e-07
3.20398e-07
2.72922e-07
3.18656e-07
7.34596e-07
8.67946e-07
8.68041e-07
8.62946e-07
6.78913e-07
5.34197e-07
4.81846e-07
4.149e-07
3.67303e-07
3.65678e-07
3.64933e-07
3.6513e-07
3.6549e-07
3.65508e-07
3.6486e-07
3.63886e-07
3.63777e-07
3.64703e-07
3.65792e-07
3.66458e-07
3.66521e-07
3.65994e-07
3.65482e-07
3.65569e-07
3.65203e-07
3.62449e-07
3.58699e-07
3.54785e-07
3.50314e-07
3.44902e-07
3.39917e-07
3.37946e-07
3.33113e-07
3.26526e-07
3.23512e-07
3.21498e-07
3.18971e-07
3.14509e-07
3.05086e-07
2.86301e-07
2.54394e-07
2.1045e-07
1.9414e-07
4.79138e-07
7.40453e-07
7.11e-07
7.12453e-07
8.78388e-07
9.26374e-07
9.9027e-07
1.05928e-06
1.13675e-06
2.27035e-07
2.24707e-07
2.23243e-07
2.22803e-07
2.22693e-07
2.22197e-07
2.20066e-07
2.11927e-07
2.07e-07
2.10309e-07
2.1494e-07
2.18168e-07
2.19263e-07
2.1809e-07
2.15666e-07
2.09237e-07
1.95019e-07
1.80033e-07
1.68514e-07
1.61777e-07
1.55845e-07
1.47906e-07
1.43163e-07
1.59166e-07
1.63008e-07
1.61366e-07
1.66312e-07
1.72488e-07
1.79136e-07
1.83808e-07
1.85068e-07
1.81469e-07
1.63881e-07
1.29198e-07
2.21125e-07
5.46097e-07
6.44843e-07
5.9604e-07
5.35369e-07
5.26272e-07
6.07425e-07
6.95628e-07
8.07104e-07
1.0083e-06
1.30425e-07
1.26125e-07
1.22415e-07
1.20119e-07
1.18947e-07
1.14931e-07
1.0227e-07
6.1476e-08
4.72903e-08
5.0026e-08
5.60385e-08
6.18022e-08
6.53803e-08
6.56392e-08
6.23697e-08
4.93003e-08
3.19277e-08
2.28066e-08
1.96134e-08
1.94162e-08
1.96201e-08
1.89668e-08
2.00353e-08
3.42291e-08
4.75856e-08
6.31461e-08
7.80786e-08
9.27565e-08
1.08238e-07
1.1914e-07
1.27395e-07
1.27632e-07
1.06079e-07
1.18411e-07
3.21298e-07
6.12214e-07
6.69341e-07
6.14351e-07
5.07584e-07
4.73177e-07
4.81517e-07
5.26972e-07
6.14454e-07
7.49495e-07
3.11075e-08
2.57169e-08
2.17495e-08
2.10202e-08
2.08454e-08
1.45107e-08
5.06665e-09
9.24e-10
6.81221e-10
1.09589e-09
1.63374e-09
2.2388e-09
2.79916e-09
3.17572e-09
3.28032e-09
2.9548e-09
2.3798e-09
2.02967e-09
1.98503e-09
2.21351e-09
2.52455e-09
2.91933e-09
4.42295e-09
1.03471e-08
2.26704e-08
3.99494e-08
5.20388e-08
5.68952e-08
6.04074e-08
7.14232e-08
9.35282e-08
9.85712e-08
9.34106e-08
1.04659e-07
1.86511e-07
4.0256e-07
7.10458e-07
8.47437e-07
7.81266e-07
3.52427e-07
2.05471e-07
1.85422e-07
1.75615e-07
2.19813e-07
7.77053e-09
7.18323e-09
9.52486e-09
1.50412e-08
1.60847e-08
9.16156e-09
2.56766e-09
1.01892e-09
4.53521e-10
3.56082e-10
4.16997e-10
5.25757e-10
6.61944e-10
8.12617e-10
9.00147e-10
8.8962e-10
8.50258e-10
8.67606e-10
1.06539e-09
1.62354e-09
3.05147e-09
7.24075e-09
1.76383e-08
3.60591e-08
5.61479e-08
6.55622e-08
6.56215e-08
6.28028e-08
5.28577e-08
4.54905e-08
4.28572e-08
3.91633e-08
3.26724e-08
3.08143e-08
5.33118e-08
1.57185e-07
3.80142e-07
6.02488e-07
7.80762e-07
9.75936e-07
1.02561e-06
1.08784e-06
1.01495e-06
7.79236e-07
1.70714e-07
1.60154e-07
1.39095e-07
1.08362e-07
5.7501e-08
1.1358e-08
2.74027e-09
6.5738e-09
2.03237e-08
2.49874e-08
2.00059e-08
1.43826e-08
1.29779e-08
1.58086e-08
2.46355e-08
3.56989e-08
4.66887e-08
5.4138e-08
5.64931e-08
5.898e-08
6.82034e-08
8.39657e-08
9.45796e-08
9.60425e-08
9.27833e-08
8.6902e-08
7.19256e-08
6.09474e-08
5.90692e-08
6.97736e-08
9.32758e-08
1.15101e-07
1.26017e-07
1.08418e-07
8.37582e-08
8.73071e-08
1.45384e-07
2.39736e-07
2.51127e-07
2.79838e-07
3.53035e-07
5.03309e-07
3.44076e-07
4.65909e-07
3.09748e-07
2.98807e-07
2.88926e-07
2.77156e-07
2.57142e-07
2.11736e-07
1.68077e-07
2.03894e-07
2.70625e-07
2.80283e-07
2.5064e-07
2.10849e-07
1.82842e-07
1.8149e-07
2.20189e-07
2.59317e-07
2.72775e-07
2.83059e-07
2.82309e-07
2.82111e-07
2.89974e-07
3.13005e-07
3.44605e-07
3.45467e-07
3.17684e-07
2.9554e-07
2.79889e-07
2.66369e-07
2.55911e-07
2.54556e-07
2.73053e-07
3.35638e-07
4.01701e-07
4.05133e-07
3.407e-07
2.38726e-07
2.68802e-07
3.83079e-07
4.30877e-07
4.12733e-07
4.4843e-07
4.15975e-07
6.07267e-07
8.98736e-07
3.73454e-07
3.71859e-07
3.69331e-07
3.6693e-07
3.63198e-07
3.53471e-07
3.40963e-07
3.46541e-07
3.57208e-07
3.58681e-07
3.54149e-07
3.4526e-07
3.34634e-07
3.33088e-07
3.45854e-07
3.58635e-07
3.63412e-07
3.67025e-07
3.69414e-07
3.71311e-07
3.72414e-07
3.76259e-07
3.83916e-07
3.88997e-07
3.86098e-07
3.81192e-07
3.77157e-07
3.7229e-07
3.64124e-07
3.58017e-07
3.64235e-07
3.85336e-07
3.96547e-07
3.99159e-07
3.99837e-07
3.79617e-07
3.6966e-07
3.72769e-07
3.70731e-07
3.70852e-07
3.7652e-07
3.96178e-07
4.05056e-07
4.42082e-07
3.83099e-07
3.82685e-07
3.81128e-07
3.79434e-07
3.77531e-07
3.73737e-07
3.68931e-07
3.68435e-07
3.71957e-07
3.75483e-07
3.75627e-07
3.74337e-07
3.7177e-07
3.7007e-07
3.71841e-07
3.74461e-07
3.75374e-07
3.75637e-07
3.7581e-07
3.75486e-07
3.7374e-07
3.72651e-07
3.7375e-07
3.75676e-07
3.76641e-07
3.7701e-07
3.7743e-07
3.7758e-07
3.7705e-07
3.76679e-07
3.76814e-07
3.74998e-07
3.75397e-07
3.76199e-07
3.77804e-07
3.78614e-07
3.7773e-07
3.71433e-07
3.57102e-07
3.59763e-07
3.74686e-07
3.95624e-07
4.14223e-07
4.48333e-07
3.79446e-07
3.79086e-07
3.78889e-07
3.79843e-07
3.8085e-07
3.81349e-07
3.8046e-07
3.79002e-07
3.77959e-07
3.76455e-07
3.75747e-07
3.76084e-07
3.76453e-07
3.76364e-07
3.76029e-07
3.74923e-07
3.74374e-07
3.74113e-07
3.74567e-07
3.75046e-07
3.74573e-07
3.73746e-07
3.73626e-07
3.73939e-07
3.74339e-07
3.74667e-07
3.75175e-07
3.75958e-07
3.76867e-07
3.77765e-07
3.78454e-07
3.79114e-07
3.78978e-07
3.75903e-07
3.75123e-07
3.72655e-07
3.72911e-07
3.7693e-07
3.78947e-07
3.82184e-07
3.83565e-07
3.91336e-07
3.96169e-07
4.13058e-07
3.83262e-07
3.83201e-07
3.82291e-07
3.80999e-07
3.79583e-07
3.77557e-07
3.74904e-07
3.73353e-07
3.74266e-07
3.76861e-07
3.77837e-07
3.7734e-07
3.76347e-07
3.75398e-07
3.75938e-07
3.7759e-07
3.78572e-07
3.78562e-07
3.78435e-07
3.78122e-07
3.77441e-07
3.76892e-07
3.77176e-07
3.77982e-07
3.78493e-07
3.78674e-07
3.78582e-07
3.78285e-07
3.78223e-07
3.78431e-07
3.78518e-07
3.77405e-07
3.7817e-07
3.78041e-07
3.78515e-07
3.78922e-07
3.77895e-07
3.74248e-07
3.65833e-07
3.70144e-07
3.80225e-07
3.93226e-07
4.05281e-07
4.20279e-07
3.80166e-07
3.79572e-07
3.79236e-07
3.79749e-07
3.80596e-07
3.8084e-07
3.80312e-07
3.79382e-07
3.78652e-07
3.77762e-07
3.77228e-07
3.772e-07
3.77512e-07
3.77588e-07
3.77467e-07
3.76423e-07
3.75987e-07
3.75731e-07
3.75928e-07
3.76148e-07
3.75968e-07
3.75519e-07
3.7532e-07
3.75434e-07
3.75543e-07
3.75692e-07
3.76144e-07
3.76967e-07
3.78034e-07
3.78896e-07
3.79476e-07
3.80096e-07
3.79718e-07
3.77739e-07
3.7704e-07
3.75415e-07
3.75655e-07
3.78472e-07
3.80036e-07
3.83614e-07
3.84643e-07
3.8986e-07
3.9493e-07
4.06036e-07
3.83222e-07
3.83324e-07
3.83015e-07
3.82162e-07
3.80735e-07
3.79155e-07
3.77069e-07
3.75501e-07
3.75648e-07
3.77137e-07
3.77723e-07
3.77445e-07
3.76708e-07
3.76346e-07
3.76611e-07
3.78268e-07
3.79286e-07
3.79413e-07
3.7927e-07
3.79191e-07
3.78945e-07
3.78601e-07
3.79e-07
3.79578e-07
3.79872e-07
3.80034e-07
3.80059e-07
3.79958e-07
3.79769e-07
3.79732e-07
3.79764e-07
3.79426e-07
3.8036e-07
3.79963e-07
3.80424e-07
3.80758e-07
3.79358e-07
3.77515e-07
3.72164e-07
3.76287e-07
3.82904e-07
3.91336e-07
3.99618e-07
4.08599e-07
3.80764e-07
3.80102e-07
3.79629e-07
3.79881e-07
3.80504e-07
3.80594e-07
3.80371e-07
3.79916e-07
3.79493e-07
3.79034e-07
3.78463e-07
3.78406e-07
3.78589e-07
3.78548e-07
3.78391e-07
3.77748e-07
3.77216e-07
3.76969e-07
3.7711e-07
3.77403e-07
3.77539e-07
3.77416e-07
3.77329e-07
3.77283e-07
3.77217e-07
3.77162e-07
3.77326e-07
3.77803e-07
3.78623e-07
3.79581e-07
3.80567e-07
3.81066e-07
3.80692e-07
3.78906e-07
3.78012e-07
3.77025e-07
3.76768e-07
3.78966e-07
3.80841e-07
3.84267e-07
3.85384e-07
3.89603e-07
3.93758e-07
4.0003e-07
3.83217e-07
3.83348e-07
3.83334e-07
3.8293e-07
3.81627e-07
3.80457e-07
3.78944e-07
3.77523e-07
3.77239e-07
3.77721e-07
3.78111e-07
3.77852e-07
3.77435e-07
3.77302e-07
3.77532e-07
3.78882e-07
3.79968e-07
3.80246e-07
3.80247e-07
3.80098e-07
3.79756e-07
3.79694e-07
3.799e-07
3.80371e-07
3.8092e-07
3.81063e-07
3.80934e-07
3.80906e-07
3.81037e-07
3.81242e-07
3.8115e-07
3.80819e-07
3.80618e-07
3.80421e-07
3.80692e-07
3.81005e-07
3.79904e-07
3.79561e-07
3.76466e-07
3.79841e-07
3.84106e-07
3.89292e-07
3.95003e-07
3.99523e-07
3.81248e-07
3.80621e-07
3.8008e-07
3.80123e-07
3.80498e-07
3.80503e-07
3.80423e-07
3.80255e-07
3.8005e-07
3.79715e-07
3.79434e-07
3.7932e-07
3.79259e-07
3.7924e-07
3.79124e-07
3.78984e-07
3.78433e-07
3.78188e-07
3.78344e-07
3.78722e-07
3.78723e-07
3.78639e-07
3.78583e-07
3.78602e-07
3.787e-07
3.78701e-07
3.78924e-07
3.79312e-07
3.79843e-07
3.80443e-07
3.81129e-07
3.81398e-07
3.81314e-07
3.7946e-07
3.78137e-07
3.7766e-07
3.77529e-07
3.79333e-07
3.81589e-07
3.84075e-07
3.85248e-07
3.88248e-07
3.91457e-07
3.95079e-07
3.83242e-07
3.8338e-07
3.83436e-07
3.83283e-07
3.82324e-07
3.81428e-07
3.80455e-07
3.79242e-07
3.78761e-07
3.78631e-07
3.78604e-07
3.78412e-07
3.78285e-07
3.78259e-07
3.7854e-07
3.79334e-07
3.80369e-07
3.80684e-07
3.80721e-07
3.80391e-07
3.80283e-07
3.8031e-07
3.80499e-07
3.80817e-07
3.81078e-07
3.81394e-07
3.81531e-07
3.81596e-07
3.81538e-07
3.81454e-07
3.8103e-07
3.8032e-07
3.79457e-07
3.79586e-07
3.79773e-07
3.80214e-07
3.79995e-07
3.80844e-07
3.79397e-07
3.81616e-07
3.84388e-07
3.87817e-07
3.91443e-07
3.93822e-07
3.81626e-07
3.81084e-07
3.8055e-07
3.80435e-07
3.80547e-07
3.80397e-07
3.80282e-07
3.8029e-07
3.80286e-07
3.8015e-07
3.79942e-07
3.79829e-07
3.79744e-07
3.79691e-07
3.79566e-07
3.79462e-07
3.79303e-07
3.79216e-07
3.79244e-07
3.79344e-07
3.79411e-07
3.79472e-07
3.79503e-07
3.79581e-07
3.79686e-07
3.79795e-07
3.79904e-07
3.80016e-07
3.80219e-07
3.8042e-07
3.80679e-07
3.80757e-07
3.80414e-07
3.79524e-07
3.78433e-07
3.78337e-07
3.78328e-07
3.79928e-07
3.81752e-07
3.8368e-07
3.84695e-07
3.86517e-07
3.88787e-07
3.91509e-07
3.83293e-07
3.83415e-07
3.83486e-07
3.83447e-07
3.82911e-07
3.8213e-07
3.81507e-07
3.80649e-07
3.8012e-07
3.79616e-07
3.79441e-07
3.79206e-07
3.79139e-07
3.79074e-07
3.79354e-07
3.79852e-07
3.80577e-07
3.80632e-07
3.80697e-07
3.80561e-07
3.80539e-07
3.80607e-07
3.80785e-07
3.81011e-07
3.81104e-07
3.81152e-07
3.81083e-07
3.80966e-07
3.80672e-07
3.80361e-07
3.79786e-07
3.79121e-07
3.78341e-07
3.78569e-07
3.78931e-07
3.79879e-07
3.80041e-07
3.81336e-07
3.80963e-07
3.82238e-07
3.84158e-07
3.86539e-07
3.8867e-07
3.89753e-07
3.81833e-07
3.81338e-07
3.80798e-07
3.80542e-07
3.80348e-07
3.80262e-07
3.8013e-07
3.80186e-07
3.80272e-07
3.80333e-07
3.80212e-07
3.80128e-07
3.80048e-07
3.80021e-07
3.79923e-07
3.79873e-07
3.79845e-07
3.79829e-07
3.79834e-07
3.79912e-07
3.80048e-07
3.80234e-07
3.80395e-07
3.80435e-07
3.80326e-07
3.80051e-07
3.79884e-07
3.79802e-07
3.79814e-07
3.79885e-07
3.80108e-07
3.80127e-07
3.79821e-07
3.79566e-07
3.78907e-07
3.79222e-07
3.7913e-07
3.80386e-07
3.81699e-07
3.8327e-07
3.84001e-07
3.8506e-07
3.86543e-07
3.88304e-07
3.8333e-07
3.83416e-07
3.83464e-07
3.83443e-07
3.83322e-07
3.82576e-07
3.82145e-07
3.81605e-07
3.81185e-07
3.80515e-07
3.80215e-07
3.79919e-07
3.79893e-07
3.79827e-07
3.80071e-07
3.80312e-07
3.80893e-07
3.80865e-07
3.80943e-07
3.80854e-07
3.80859e-07
3.80852e-07
3.80743e-07
3.80635e-07
3.80482e-07
3.80358e-07
3.80115e-07
3.79902e-07
3.79617e-07
3.79397e-07
3.78806e-07
3.7859e-07
3.78034e-07
3.78427e-07
3.78613e-07
3.79721e-07
3.80158e-07
3.81449e-07
3.81456e-07
3.82301e-07
3.83652e-07
3.85219e-07
3.8658e-07
3.87113e-07
3.81871e-07
3.81462e-07
3.81014e-07
3.80706e-07
3.80345e-07
3.80333e-07
3.80128e-07
3.80112e-07
3.8025e-07
3.80468e-07
3.80465e-07
3.80428e-07
3.80367e-07
3.80384e-07
3.80356e-07
3.80397e-07
3.80451e-07
3.80436e-07
3.80432e-07
3.80479e-07
3.80577e-07
3.80667e-07
3.80518e-07
3.80174e-07
3.799e-07
3.79715e-07
3.7959e-07
3.79557e-07
3.79599e-07
3.79732e-07
3.79765e-07
3.79929e-07
3.79684e-07
3.79812e-07
3.79381e-07
3.79952e-07
3.79873e-07
3.80716e-07
3.81445e-07
3.82738e-07
3.83442e-07
3.83871e-07
3.84804e-07
3.86162e-07
3.83248e-07
3.83314e-07
3.83363e-07
3.83374e-07
3.83351e-07
3.83064e-07
3.82631e-07
3.8223e-07
3.81991e-07
3.81442e-07
3.81055e-07
3.80695e-07
3.80643e-07
3.80562e-07
3.80721e-07
3.80803e-07
3.8122e-07
3.8116e-07
3.8122e-07
3.81127e-07
3.81035e-07
3.80826e-07
3.80575e-07
3.80273e-07
3.79935e-07
3.7965e-07
3.79362e-07
3.79193e-07
3.78924e-07
3.78826e-07
3.78508e-07
3.7858e-07
3.78201e-07
3.78744e-07
3.78742e-07
3.79842e-07
3.80208e-07
3.81217e-07
3.81426e-07
3.82032e-07
3.82871e-07
3.83956e-07
3.84862e-07
3.85393e-07
3.8196e-07
3.81642e-07
3.81267e-07
3.8093e-07
3.80549e-07
3.80322e-07
3.80233e-07
3.80174e-07
3.80239e-07
3.80525e-07
3.80651e-07
3.80711e-07
3.8069e-07
3.8075e-07
3.80826e-07
3.80997e-07
3.8101e-07
3.80969e-07
3.80939e-07
3.80924e-07
3.80771e-07
3.80435e-07
3.80009e-07
3.79763e-07
3.79622e-07
3.7957e-07
3.79554e-07
3.79591e-07
3.79622e-07
3.7975e-07
3.7972e-07
3.7998e-07