/*--------------------------------*- C++ -*----------------------------------*\
| =========                 |                                                 |
| \\      /  F ield         | OpenFOAM: The Open Source CFD Toolbox           |
|  \\    /   O peration     | Version:  v1912                                 |
|   \\  /    A nd           | Website:  www.openfoam.com                      |
|    \\/     M anipulation  |                                                 |
\*---------------------------------------------------------------------------*/
FoamFile
{
    version     2.0;
    format      ascii;
    class       volScalarField;
    location    "50";
    object      p;
}
// * * * * * * * * * * * * * * * * * * * * * * * * * * * * * * * * * * * * * //

dimensions      [1 -1 -2 0 0 0 0];


internalField   nonuniform List<scalar> 
14268
(
41962.7
42030.7
42082.9
42115.6
42128.8
42125
42108
42082.8
42054.4
42026.9
42005.2
41994.8
42000.7
42026.1
42069.2
42125.6
42184.8
42234.5
42265.9
42276
42267.2
42245.4
42222
42205
42202.2
42212.2
42234.5
42250.6
42262.6
42244.5
42215.7
42218
42236.7
42250.2
42253.3
42251.1
42241.2
42224.3
42202.2
42179.6
42162.7
42157.1
42164
42181.5
41861.1
41929.1
41981.3
42014
42027.2
42023.4
42006.4
41981.2
41952.8
41925.3
41903.6
41893.2
41899.1
41924.4
41967.5
42024
42083.2
42132.9
42164.3
42174.4
42165.6
42143.8
42120.4
42103.4
42100.5
42110.6
42132.9
42149
42160.9
42142.9
42114.1
42116.4
42135.1
42148.6
42151.7
42149.5
42139.6
42122.7
42100.6
42078
42061.1
42055.5
42062.4
42079.9
41759.5
41827.5
41879.7
41912.4
41925.6
41921.8
41904.8
41879.6
41851.2
41823.7
41802
41791.6
41797.5
41822.8
41865.9
41922.4
41981.6
42031.3
42062.7
42072.8
42064
42042.2
42018.8
42001.8
41998.9
42009
42031.3
42047.4
42059.3
42041.3
42012.5
42014.8
42033.5
42047
42050.1
42047.9
42038
42021.1
41998.9
41976.4
41959.5
41953.9
41960.8
41978.3
41657.9
41725.9
41778.1
41810.8
41824
41820.2
41803.2
41778
41749.6
41722.1
41700.4
41690
41695.9
41721.2
41764.3
41820.8
41880
41929.7
41961.1
41971.2
41962.4
41940.6
41917.2
41900.2
41897.3
41907.3
41929.7
41945.8
41957.7
41939.7
41910.9
41913.2
41931.9
41945.3
41948.5
41946.3
41936.4
41919.5
41897.3
41874.8
41857.9
41852.2
41859.2
41876.6
41556.3
41624.3
41676.5
41709.2
41722.4
41718.6
41701.6
41676.4
41648
41620.5
41598.8
41588.4
41594.3
41619.6
41662.7
41719.2
41778.4
41828.1
41859.5
41869.6
41860.8
41839
41815.6
41798.6
41795.7
41805.7
41828.1
41844.2
41856.1
41838.1
41809.3
41811.6
41830.3
41843.7
41846.9
41844.7
41834.7
41817.9
41795.7
41773.2
41756.3
41750.6
41757.6
41775
41454.7
41522.7
41574.9
41607.6
41620.8
41617
41600
41574.8
41546.4
41518.9
41497.2
41486.8
41492.7
41518
41561.1
41617.5
41676.8
41726.5
41757.9
41768
41759.2
41737.4
41714
41697
41694.1
41704.1
41726.5
41742.6
41754.5
41736.5
41707.7
41710
41728.7
41742.1
41745.3
41743.1
41733.1
41716.3
41694.1
41671.6
41654.7
41649
41655.9
41673.4
41353.1
41421.1
41473.4
41506
41519.2
41515.4
41498.4
41473.2
41444.8
41417.3
41395.6
41385.1
41391
41416.4
41459.5
41515.9
41575.2
41624.9
41656.3
41666.4
41657.6
41635.8
41612.4
41595.4
41592.5
41602.5
41624.9
41641
41653
41634.9
41606
41608.4
41627
41640.5
41643.7
41641.5
41631.6
41614.7
41592.5
41570
41553.1
41547.4
41554.3
41571.8
41251.5
41319.5
41371.8
41404.5
41417.6
41413.8
41396.8
41371.6
41343.2
41315.7
41294
41283.5
41289.4
41314.8
41357.9
41414.3
41473.6
41523.3
41554.7
41564.8
41556
41534.2
41510.8
41493.8
41490.9
41500.9
41523.3
41539.4
41551.4
41533.3
41504.4
41506.7
41525.4
41538.9
41542.1
41539.9
41530
41513.1
41490.9
41468.4
41451.5
41445.8
41452.7
41470.1
41149.9
41217.9
41270.2
41302.9
41316
41312.2
41295.2
41270
41241.6
41214.1
41192.4
41181.9
41187.8
41213.2
41256.3
41312.7
41372
41421.7
41453.1
41463.2
41454.4
41432.6
41409.2
41392.2
41389.3
41399.3
41421.7
41437.8
41449.8
41431.6
41402.8
41405.1
41423.8
41437.3
41440.5
41438.3
41428.4
41411.5
41389.3
41366.8
41349.9
41344.2
41351.1
41368.5
41048.3
41116.3
41168.6
41201.3
41214.5
41210.6
41193.6
41168.4
41140
41112.5
41090.8
41080.3
41086.2
41111.5
41154.7
41211.1
41270.4
41320.1
41351.5
41361.6
41352.8
41331
41307.6
41290.6
41287.7
41297.7
41320.1
41336.2
41348.2
41330
41301.2
41303.5
41322.2
41335.7
41338.9
41336.7
41326.8
41309.9
41287.7
41265.2
41248.2
41242.6
41249.5
41266.9
40946.7
41014.7
41067
41099.7
41112.9
41109
41092
41066.8
41038.4
41010.8
40989.1
40978.7
40984.6
41009.9
41053.1
41109.5
41168.8
41218.5
41250
41260
41251.2
41229.4
41205.9
41188.9
41186
41196.1
41218.5
41234.6
41246.6
41228.4
41199.5
41201.9
41220.6
41234.1
41237.3
41235.1
41225.2
41208.3
41186.1
41163.6
41146.6
41141
41147.9
41165.3
40845.1
40913.1
40965.4
40998.1
41011.3
41007.4
40990.4
40965.2
40936.8
40909.2
40887.5
40877.1
40882.9
40908.3
40951.4
41007.9
41067.2
41116.9
41148.4
41158.4
41149.7
41127.8
41104.3
41087.3
41084.4
41094.5
41116.9
41133
41145
41126.8
41097.9
41100.3
41119
41132.5
41135.7
41133.5
41123.6
41106.7
41084.5
41061.9
41045
41039.3
41046.3
41063.6
40743.5
40811.5
40863.8
40896.5
40909.7
40905.9
40888.8
40863.6
40835.2
40807.6
40785.9
40775.4
40781.3
40806.7
40849.8
40906.3
40965.7
41015.3
41046.8
41056.9
41048.1
41026.2
41002.7
40985.7
40982.8
40992.8
41015.3
41031.4
41043.4
41025.2
40996.3
40998.7
41017.4
41030.9
41034.1
41032
41022
41005.1
40982.9
40960.3
40943.4
40937.7
40944.7
40962
40641.9
40710
40762.3
40795
40808.1
40804.3
40787.2
40762
40733.5
40706
40684.3
40673.8
40679.7
40705
40748.2
40804.7
40864.1
40913.8
40945.2
40955.3
40946.5
40924.6
40901.1
40884.1
40881.2
40891.2
40913.6
40929.8
40941.8
40923.6
40894.6
40897
40915.8
40929.3
40932.5
40930.4
40920.4
40903.5
40881.3
40858.7
40841.8
40836.1
40843
40860.4
40489.5
40557.6
40609.9
40642.6
40655.8
40651.9
40634.8
40609.6
40581.1
40553.6
40531.9
40521.4
40527.2
40552.6
40595.8
40652.3
40711.7
40761.4
40792.9
40802.9
40794.1
40772.2
40748.7
40731.6
40728.7
40738.8
40761.2
40777.4
40789.4
40771.2
40742.2
40744.6
40763.4
40776.9
40780.1
40778
40768
40751.1
40728.9
40706.3
40689.3
40683.7
40690.6
40707.9
40286.3
40354.4
40406.8
40439.5
40452.6
40448.7
40431.6
40406.4
40377.9
40350.4
40328.6
40318.1
40324
40349.3
40392.5
40449.1
40508.5
40558.3
40589.7
40599.8
40590.9
40569
40545.5
40528.4
40525.5
40535.6
40558
40574.3
40586.2
40568
40538.9
40541.4
40560.2
40573.8
40576.9
40574.8
40564.8
40547.9
40525.7
40503.1
40486.1
40480.4
40487.4
40504.7
40083.1
40151.3
40203.6
40236.3
40249.5
40245.6
40228.4
40203.2
40174.7
40147.1
40125.4
40114.8
40120.7
40146
40189.3
40245.9
40305.3
40355.1
40386.6
40396.6
40387.8
40365.8
40342.2
40325.1
40322.2
40332.3
40354.8
40371.1
40383.1
40364.7
40335.6
40338.1
40357
40370.6
40373.8
40371.6
40361.6
40344.7
40322.5
40299.8
40282.8
40277.1
40284.1
40301.4
39879.9
39948.1
40000.5
40033.2
40046.3
40042.4
40025.3
40000
39971.5
39943.9
39922.1
39911.6
39917.4
39942.8
39986
40042.6
40102.2
40152
40183.5
40193.5
40184.6
40162.6
40139
40121.9
40119
40129.1
40151.6
40167.9
40179.9
40161.5
40132.3
40134.8
40153.8
40167.4
40170.6
40168.4
40158.5
40141.6
40119.3
40096.6
40079.6
40073.9
40080.9
40098.2
39676.8
39745
39797.4
39830.1
39843.2
39839.3
39822.1
39796.8
39768.3
39740.7
39718.8
39708.3
39714.1
39739.5
39782.7
39839.4
39899
39948.8
39980.4
39990.4
39981.4
39959.4
39935.7
39918.6
39915.7
39925.8
39948.4
39964.7
39976.7
39958.3
39929
39931.6
39950.5
39964.2
39967.4
39965.3
39955.3
39938.4
39916.1
39893.4
39876.3
39870.6
39877.6
39894.9
39473.6
39541.9
39594.3
39627
39640.1
39636.1
39618.9
39593.7
39565.1
39537.4
39515.6
39505
39510.8
39536.2
39579.5
39636.2
39695.8
39745.7
39777.3
39787.3
39778.3
39756.2
39732.5
39715.3
39712.4
39722.6
39745.2
39761.5
39773.6
39755
39725.6
39728.3
39747.3
39761
39764.2
39762.1
39752.1
39735.2
39712.9
39690.1
39673.1
39667.3
39674.4
39691.7
39270.4
39338.7
39391.2
39423.9
39437
39433
39415.8
39390.5
39361.9
39334.2
39312.3
39301.7
39307.5
39332.9
39376.2
39433
39492.7
39542.6
39574.2
39584.2
39575.2
39553
39529.3
39512.1
39509.1
39519.3
39542
39558.4
39570.4
39551.8
39522.3
39525
39544.1
39557.8
39561.1
39558.9
39548.9
39532
39509.7
39486.9
39469.8
39464.1
39471.1
39488.4
37784.3
37853
37905.6
37938.3
37951.3
37947.1
37929.7
37904.2
37875.4
37847.5
37825.4
37814.6
37820.3
37845.7
37889.3
37946.5
38006.7
38057
38088.8
38098.6
38089.3
38066.7
38042.6
38025.1
38022.2
38032.5
38055.6
38072.3
38084.5
38065.2
38034.8
38038.1
38057.6
38071.6
38074.9
38072.9
38062.9
38045.9
38023.3
38000.2
37982.9
37977.1
37984.3
38001.7
35015.9
35085.8
35139
35171.7
35184.4
35179.5
35161.4
35135.2
35105.7
35077
35053.9
35042.2
35047.6
35073.3
35117.9
35176.7
35238.5
35290.1
35321.6
35331.9
35321.5
35297.5
35271.9
35253.5
35250.4
35261.5
35286
35303.7
35316.4
35294.7
35261.2
35266.6
35287.7
35302.6
35306.3
35304.4
35294.4
35277.1
35253.7
35229.7
35211.5
35205.4
35213.1
35231.4
32248
32319.8
32374
32406.9
32418.9
32413
32393.7
32366.5
32335.9
32306
32281.9
32269.1
32273.5
32299.5
32345.5
32406.6
32471.2
32524.7
32558.6
32566.8
32554.7
32528.4
32500.6
32480.7
32477.6
32489.7
32516.4
32535.5
32549.2
32523.1
32485.5
32493.3
32517.9
32534.2
32538.5
32536.8
32526.7
32509.2
32484.4
32458.6
32439.1
32432.7
32441.1
32460.9
29480.8
29555.1
29610.5
29643.3
29654.6
29647.3
29626.5
29597.9
29565.9
29534.5
29508.4
29493.7
29497.6
29524.1
29572
29636.4
29704.5
29760.6
29793.4
29803.1
29788.7
29759.4
29728.7
29706.8
29703.4
29717.1
29746.8
29768.2
29782.6
29750.6
29706.7
29718.6
29748.3
29765.4
29770.6
29769.4
29759.5
29740.8
29714.7
29686.9
29665.6
29658.7
29668.2
29690.1
26714.3
26791.7
26848.8
26882.1
26892.1
26882.8
26860.2
26829.8
26796
26762.7
26734.6
26718.1
26720.2
26747.1
26797.5
26866
26938.8
26998.4
27035.6
27041.4
27024
26990.7
26956.1
26931.6
26928
26943.6
26977.3
27001.7
27016.9
26977.4
26925.7
26941.3
26977.6
26999
27004.3
27003.1
26993.2
26974.9
26946
26914.8
26891.1
26883.6
26894.4
26919.3
23948.5
24029.8
24088.7
24121.4
24130.6
24119.1
24094.2
24061.7
24025.9
23990.2
23959.2
23939.4
23940.7
23968.2
24021.6
24095.4
24173.9
24237.7
24272.7
24281.1
24260.1
24222
24182.6
24154.9
24150.9
24169.1
24207.7
24236.1
24253.1
24201.4
24140.7
24165.2
24207.1
24229.8
24237.2
24237.1
24227.1
24206.9
24176
24141.9
24115.1
24106.9
24119.5
24147.9
21183.6
21269.7
21330.9
21364.5
21371.1
21356.6
21329
21294.2
21256
21217.6
21183.6
21161.2
21159.5
21187.3
21244.5
21324.6
21410.2
21479.2
21520.4
21523.3
21497.7
21453.5
21408.2
21376.6
21372.2
21393.7
21438.5
21471.6
21490.6
21426.8
21359
21381.7
21437.8
21465.4
21472.4
21471.9
21463
21442
21407.9
21368.7
21337.8
21328.7
21343.3
21376.7
18419.6
18511.1
18574.6
18606.9
18612.6
18594.9
18564.2
18526.7
18485.8
18444.3
18406.4
18377.8
18375.8
18404.1
18465.7
18553.4
18647.5
18722.4
18761.7
18767.2
18736.3
18685.1
18632.6
18596.2
18591.3
18616.7
18668.8
18708.5
18727.3
18655.4
18588.1
18603.1
18667.3
18696.3
18706.1
18707.5
18698.9
18677.2
18638.7
18594
18558.9
18548.7
18565.9
18604.6
15657.1
15754.8
15821.5
15854.8
15856.3
15834.5
15800.2
15759.6
15715.9
15670.9
15629
15602.2
15590.2
15618.6
15685.2
15782.1
15886.2
15968.8
16014.3
16014.1
15976.7
15916.8
15855.8
15813.8
15808.3
15838.6
15899.8
15947.4
15971.3
15897.8
15809.9
15825
15899.3
15933.4
15941.4
15944.7
15936.7
15914.1
15871.1
15818.9
15778.1
15766.8
15786.8
15833.2
12895.3
13000.1
13069.5
13101.4
13101.3
13074.9
13036.5
12992.7
12945.9
12897
12849.8
12811.9
12800.9
12829.8
12902.5
13010.1
13126
13217
13262.7
13263.6
13218.5
13148.5
13077.4
13028.5
13022.1
13058.6
13129.3
13187.7
13213.3
13137.2
13054.1
13064
13134
13164.3
13174.1
13181.3
13175.1
13152
13102.8
13042.3
12995.1
12982.6
13006.2
13059.8
10136.1
10249
10321.9
10353.5
10348.4
10316.4
10273.4
10226.1
10176.1
10123.1
10070
10028.4
10009.5
10038.3
10118
10238.2
10368.3
10469.6
10519.4
10516.5
10462.4
10380.4
10297.3
10240.3
10233.3
10277.9
10360.7
10427.3
10458.7
10383.4
10293.2
10297
10365.6
10397.7
10408.5
10418.5
10415.9
10392.1
10336.6
10264.4
10209.9
10195.8
10224.1
10288.4
7377.05
7499.1
7575.9
7607.45
7597.54
7559.21
7510.98
7459.95
7406.62
7349.02
7289.15
7235.15
7212.91
7241.78
7329.42
7464.66
7611.22
7724.69
7778.55
7773.22
7708.31
7612.33
7515.26
7448.51
7437.63
7490.72
7586.37
7666.29
7702.64
7631.06
7537.52
7543.87
7598.46
7626.4
7638.39
7655.34
7658.22
7634.06
7570.69
7486.9
7422.35
7406.43
7439.81
7512.59
4622.26
4753.52
4833.57
4859.86
4847.47
4801.54
4747.58
4693.16
4636.93
4575.05
4508.56
4450.4
4415.33
4444.08
4540.94
4692.47
4857.16
4984.41
5039.56
5033.27
4956.01
4843.67
4730.69
4653.94
4643.9
4703.99
4814.87
4908.89
4952.83
4882.02
4783.34
4785.32
4826.76
4852.34
4868.65
4893.98
4902.95
4880.92
4808.21
4711.34
4637.38
4616.92
4655.85
4742.75
2017.98
2138.84
2213.02
2237.03
2219.49
2173.81
2121.58
2071.95
2024.06
1972.27
1911.98
1852.65
1818.86
1839.06
1925.73
2067.34
2227.1
2355.37
2417.94
2401.99
2324.46
2214.34
2105.4
2031.03
2021.78
2082.61
2191.55
2287.56
2341.93
2305.11
2229.56
2202.68
2200.07
2203.35
2220.53
2251.91
2262.77
2240
2168.05
2072.34
1995.72
1964.55
1988.09
2067.8
405.633
463.918
502.732
514.995
504.434
481.361
455.1
431.682
411.892
392.366
367.786
341.934
326.267
332.037
366.944
431.122
512.086
584.766
620.573
612.063
569.76
512.388
458.152
422.704
419.453
448.67
502.452
554.391
587.727
593.143
570.975
534.836
504.878
491.807
497.414
515.931
525.632
512.875
474.361
425.625
383.779
360.67
359.58
399.693
8.09011
12.843
17.1322
18.7048
18.065
16.1952
13.8635
12.0981
11.3559
11.156
10.5467
9.64071
8.90106
8.70284
9.7347
13.8449
21.9126
31.6786
37.5363
36.7588
31.3271
24.8807
19.6727
16.4864
15.7332
17.756
23.0049
29.2141
32.9198
36.3065
37.5462
33.2656
25.7319
19.313
17.2088
18.8455
20.3692
18.8254
15.4516
12.2153
9.29008
7.08387
3.42113
5.27547
-7.30199
-7.58494
-7.7272
-7.72447
-7.64506
-7.52936
-7.41345
-7.31279
-7.24902
-7.16752
-7.06022
-6.93893
-6.84958
-6.85377
-6.99155
-7.25016
-7.56205
-7.79141
-7.86951
-7.82368
-7.663
-7.4321
-7.18934
-7.01086
-6.97053
-7.10297
-7.35628
-7.58033
-7.69458
-7.71391
-7.6407
-7.47747
-7.39576
-7.3667
-7.45953
-7.63446
-7.78945
-7.76433
-7.59802
-7.36367
-7.12475
-7.02008
-7.0686
-7.3718
-10.5562
-10.8373
-10.9907
-11.0347
-10.9657
-10.8577
-10.7353
-10.6205
-10.5349
-10.4849
-10.4006
-10.2989
-10.2168
-10.2144
-10.3341
-10.5658
-10.8544
-11.0722
-11.1781
-11.1242
-10.9742
-10.7619
-10.5462
-10.3827
-10.3239
-10.4237
-10.6549
-10.8663
-10.9838
-11.033
-11.0132
-10.8979
-10.7839
-10.6739
-10.6673
-10.882
-11.0745
-11.0838
-10.9565
-10.7683
-10.5601
-10.4762
-10.6542
-11.1227
-13.8868
-14.1332
-14.2619
-14.2828
-14.223
-14.1375
-14.0419
-13.9539
-13.8926
-13.8226
-13.739
-13.6505
-13.5869
-13.599
-13.7135
-13.9156
-14.1567
-14.3411
-14.4079
-14.3756
-14.2522
-14.073
-13.8887
-13.752
-13.7221
-13.8167
-14.0052
-14.1772
-14.2738
-14.2946
-14.2534
-14.1568
-14.0851
-14.0428
-14.1332
-14.2481
-14.3538
-14.3326
-14.216
-14.0463
-13.8716
-13.8024
-13.8814
-14.0367
-17.1861
-17.3982
-17.5237
-17.5577
-17.5345
-17.4536
-17.3615
-17.2727
-17.1949
-17.1425
-17.0755
-17.0043
-16.9534
-16.9677
-17.067
-17.2426
-17.452
-17.615
-17.6884
-17.6641
-17.5551
-17.3997
-17.2421
-17.1277
-17.0905
-17.1592
-17.3158
-17.4676
-17.5592
-17.6078
-17.5926
-17.5169
-17.4392
-17.3902
-17.379
-17.5076
-17.624
-17.6301
-17.5424
-17.4131
-17.278
-17.2326
-17.3437
-17.5701
-20.5025
-20.6962
-20.8076
-20.8427
-20.8137
-20.7477
-20.6728
-20.5995
-20.5416
-20.481
-20.4153
-20.3527
-20.3124
-20.3309
-20.4215
-20.5761
-20.7585
-20.9011
-20.9641
-20.9416
-20.8496
-20.7161
-20.5789
-20.4768
-20.456
-20.5198
-20.6552
-20.7864
-20.8671
-20.8897
-20.8669
-20.8043
-20.756
-20.7284
-20.7785
-20.8599
-20.9264
-20.9196
-20.8406
-20.7187
-20.6017
-20.5457
-20.6342
-20.7228
-23.8166
-23.9851
-24.0871
-24.1228
-24.1071
-24.0578
-23.9885
-23.9184
-23.8538
-23.8036
-23.7504
-23.7002
-23.6702
-23.6898
-23.7716
-23.9067
-24.064
-24.1874
-24.2448
-24.231
-24.1528
-24.0387
-23.9234
-23.8423
-23.8168
-23.8676
-23.9768
-24.0873
-24.156
-24.2009
-24.191
-24.1445
-24.0944
-24.0675
-24.0746
-24.1415
-24.214
-24.2139
-24.1515
-24.0573
-23.9723
-23.944
-24.0111
-24.1553
-27.1323
-27.281
-27.3761
-27.4156
-27.406
-27.3628
-27.3034
-27.2439
-27.1917
-27.1408
-27.0897
-27.0454
-27.0219
-27.043
-27.1172
-27.2361
-27.3727
-27.4815
-27.5338
-27.5224
-27.4571
-27.3593
-27.2587
-27.1835
-27.1685
-27.2131
-27.3079
-27.4071
-27.4729
-27.4975
-27.4865
-27.448
-27.4149
-27.3985
-27.4182
-27.4805
-27.5248
-27.5192
-27.4651
-27.3818
-27.3055
-27.2653
-27.331
-27.4105
-30.4492
-30.5815
-30.6694
-30.7085
-30.7031
-30.6688
-30.6178
-30.5628
-30.5106
-30.466
-30.4237
-30.3882
-30.3716
-30.3933
-30.4603
-30.5647
-30.6837
-30.7791
-30.8262
-30.8191
-30.7636
-30.6802
-30.5949
-30.5365
-30.5201
-30.5565
-30.6351
-30.7175
-30.775
-30.8083
-30.8043
-30.777
-30.7459
-30.7315
-30.7453
-30.7807
-30.8224
-30.8198
-30.7777
-30.7082
-30.6521
-30.6353
-30.6823
-30.7714
-33.766
-33.8852
-33.9666
-34.0055
-34.0053
-33.978
-33.9344
-33.8868
-33.8421
-33.8002
-33.761
-33.7302
-33.7181
-33.7396
-33.8002
-33.8923
-33.9963
-34.0801
-34.1227
-34.1158
-34.0721
-34.0015
-33.9286
-33.8753
-33.8634
-33.8954
-33.9628
-34.0368
-34.0905
-34.1148
-34.1112
-34.0884
-34.0666
-34.0573
-34.0706
-34.1066
-34.1368
-34.1318
-34.0949
-34.0351
-33.988
-33.9637
-34.0009
-34.0718
-37.0845
-37.1918
-37.2673
-37.3058
-37.3092
-37.2877
-37.2502
-37.2074
-37.1655
-37.128
-37.0946
-37.0696
-37.0618
-37.0833
-37.1381
-37.2194
-37.3104
-37.3844
-37.4232
-37.4198
-37.3825
-37.3226
-37.2605
-37.217
-37.2074
-37.2341
-37.2903
-37.3533
-37.3993
-37.4262
-37.4272
-37.4128
-37.3939
-37.3857
-37.3959
-37.42
-37.4437
-37.4394
-37.4108
-37.3609
-37.324
-37.3122
-37.3454
-37.4047
-40.404
-40.5012
-40.5713
-40.6088
-40.6151
-40.5985
-40.567
-40.5297
-40.493
-40.4591
-40.4295
-40.4085
-40.4036
-40.4246
-40.4741
-40.546
-40.626
-40.6913
-40.7265
-40.725
-40.6946
-40.644
-40.5914
-40.5543
-40.5453
-40.5687
-40.6174
-40.6727
-40.7152
-40.7383
-40.7399
-40.7274
-40.7142
-40.7098
-40.7186
-40.7391
-40.7581
-40.7535
-40.7289
-40.6866
-40.6564
-40.6432
-40.6688
-40.7209
-43.7242
-43.8127
-43.8778
-43.9143
-43.923
-43.9107
-43.8842
-43.8516
-43.8185
-43.7883
-43.7624
-43.7452
-43.7429
-43.7634
-43.8083
-43.8721
-43.9426
-44.0003
-44.0326
-44.033
-44.008
-43.9653
-43.9207
-43.8894
-43.8837
-43.9032
-43.9443
-43.9924
-44.0289
-44.0521
-44.0567
-44.0503
-44.0393
-44.0353
-44.0423
-44.0578
-44.0723
-44.0675
-44.0475
-44.0121
-43.9881
-43.9805
-44.0035
-44.0454
-47.0456
-47.1263
-47.1869
-47.2222
-47.2327
-47.224
-47.2021
-47.1737
-47.1444
-47.1176
-47.0952
-47.0813
-47.081
-47.1007
-47.1414
-47.1981
-47.2603
-47.3117
-47.341
-47.3429
-47.3227
-47.287
-47.2494
-47.223
-47.2161
-47.2351
-47.2709
-47.3128
-47.3466
-47.3671
-47.3721
-47.3665
-47.3591
-47.3578
-47.3639
-47.3766
-47.3878
-47.3832
-47.3667
-47.3371
-47.3174
-47.3103
-47.3293
-47.366
-50.3679
-50.4416
-50.498
-50.5321
-50.544
-50.5383
-50.5204
-50.4959
-50.4702
-50.4465
-50.4272
-50.4158
-50.4171
-50.436
-50.473
-50.5235
-50.5787
-50.6246
-50.6513
-50.6543
-50.6375
-50.6085
-50.5769
-50.5548
-50.5501
-50.5662
-50.5969
-50.6337
-50.6633
-50.6832
-50.6899
-50.6887
-50.6828
-50.6815
-50.6865
-50.696
-50.7046
-50.7002
-50.6865
-50.662
-50.6463
-50.6421
-50.6584
-50.6887
-53.691
-53.7586
-53.8111
-53.8439
-53.8569
-53.8537
-53.8392
-53.8183
-53.7958
-53.7751
-53.7585
-53.7496
-53.7522
-53.7703
-53.804
-53.8491
-53.898
-53.9391
-53.9635
-53.9675
-53.9544
-53.9303
-53.904
-53.8856
-53.8822
-53.8962
-53.923
-53.9551
-53.9822
-54.0003
-54.0071
-54.0061
-54.0024
-54.0032
-54.0078
-54.0155
-54.022
-54.018
-54.0066
-53.9864
-53.9735
-53.97
-53.9841
-54.0107
-57.0151
-57.0771
-57.1259
-57.1573
-57.171
-57.17
-57.1586
-57.1408
-57.1213
-57.1033
-57.0893
-57.0824
-57.0859
-57.103
-57.1338
-57.1743
-57.2177
-57.2547
-57.277
-57.2819
-57.2718
-57.252
-57.2302
-57.215
-57.2126
-57.225
-57.2485
-57.2768
-57.3009
-57.3181
-57.3258
-57.3276
-57.3256
-57.3257
-57.3295
-57.3356
-57.3405
-57.3368
-57.3272
-57.3107
-57.3003
-57.2986
-57.3106
-57.3328
-60.34
-60.3969
-60.4423
-60.4723
-60.4865
-60.4873
-60.4785
-60.4636
-60.4468
-60.4313
-60.4195
-60.4143
-60.4186
-60.4349
-60.463
-60.4995
-60.5383
-60.5715
-60.592
-60.5975
-60.59
-60.574
-60.5561
-60.5437
-60.5422
-60.5534
-60.574
-60.5989
-60.6208
-60.6367
-60.6444
-60.6463
-60.6455
-60.6469
-60.6506
-60.6555
-60.6593
-60.6561
-60.648
-60.6346
-60.6261
-60.6249
-60.6356
-60.6549
-63.6657
-63.7179
-63.7601
-63.7886
-63.8031
-63.8054
-63.7988
-63.7866
-63.7722
-63.759
-63.7492
-63.7455
-63.7504
-63.7659
-63.7916
-63.8244
-63.8592
-63.8891
-63.9082
-63.9142
-63.9088
-63.8959
-63.8813
-63.8714
-63.8707
-63.8808
-63.899
-63.921
-63.9408
-63.9558
-63.9638
-63.9673
-63.9678
-63.969
-63.9722
-63.9761
-63.9789
-63.9759
-63.9691
-63.9583
-63.9516
-63.9514
-63.9607
-63.9772
-66.9922
-67.04
-67.0791
-67.1062
-67.1208
-67.1243
-67.1196
-67.1097
-67.0976
-67.0864
-67.0785
-67.076
-67.0814
-67.0961
-67.1196
-67.1493
-67.1806
-67.2076
-67.2253
-67.2316
-67.2281
-67.2181
-67.2063
-67.1985
-67.1985
-67.2078
-67.224
-67.2436
-67.2615
-67.2755
-67.2834
-67.287
-67.2883
-67.2901
-67.2932
-67.2965
-67.2987
-67.2962
-67.2904
-67.2818
-67.2764
-67.2766
-67.2849
-67.2993
-70.3194
-70.363
-70.3992
-70.4249
-70.4394
-70.4439
-70.4409
-70.433
-70.423
-70.4136
-70.4073
-70.4059
-70.4116
-70.4256
-70.4472
-70.4741
-70.5024
-70.5268
-70.5433
-70.55
-70.548
-70.5403
-70.531
-70.5249
-70.5256
-70.5341
-70.5485
-70.5661
-70.5824
-70.5954
-70.6034
-70.6078
-70.61
-70.6118
-70.6146
-70.6173
-70.619
-70.6168
-70.6119
-70.6052
-70.6009
-70.6017
-70.609
-70.6215
-73.6473
-73.6869
-73.7204
-73.7446
-73.7589
-73.7642
-73.7626
-73.7565
-73.7483
-73.7406
-73.7357
-73.7353
-73.7412
-73.7544
-73.7744
-73.7988
-73.8244
-73.8467
-73.862
-73.8689
-73.8682
-73.8625
-73.8554
-73.8509
-73.8522
-73.86
-73.8731
-73.8889
-73.9037
-73.9159
-73.9237
-73.9283
-73.9308
-73.933
-73.9357
-73.9381
-73.9394
-73.9377
-73.9336
-73.9283
-73.925
-73.926
-73.9326
-73.9437
-76.9757
-77.0116
-77.0424
-77.0652
-77.0792
-77.0851
-77.0847
-77.0801
-77.0736
-77.0675
-77.0637
-77.0642
-77.0703
-77.0828
-77.1012
-77.1235
-77.1467
-77.1671
-77.1815
-77.1885
-77.1889
-77.1849
-77.1796
-77.1764
-77.1782
-77.1855
-77.1973
-77.2115
-77.2251
-77.2365
-77.2442
-77.2491
-77.2522
-77.2545
-77.2571
-77.2591
-77.2602
-77.2588
-77.2555
-77.2513
-77.2489
-77.2502
-77.2562
-77.2658
-80.3045
-80.337
-80.3653
-80.3867
-80.4003
-80.4066
-80.4072
-80.404
-80.3989
-80.3941
-80.3915
-80.3926
-80.3989
-80.4107
-80.4278
-80.4481
-80.4693
-80.488
-80.5014
-80.5086
-80.5099
-80.5074
-80.5036
-80.5016
-80.5037
-80.5107
-80.5215
-80.5344
-80.5468
-80.5575
-80.565
-80.57
-80.5733
-80.5758
-80.5783
-80.5802
-80.5812
-80.5801
-80.5774
-80.5742
-80.5725
-80.5739
-80.5794
-80.5879
-83.6338
-83.663
-83.6888
-83.7088
-83.7219
-83.7286
-83.73
-83.728
-83.7242
-83.7206
-83.7189
-83.7207
-83.727
-83.7383
-83.754
-83.7727
-83.792
-83.8093
-83.822
-83.8291
-83.8312
-83.8299
-83.8275
-83.8265
-83.829
-83.8356
-83.8454
-83.8572
-83.8687
-83.8786
-83.886
-83.891
-83.8946
-83.8972
-83.8997
-83.9015
-83.9024
-83.9015
-83.8994
-83.897
-83.8959
-83.8975
-83.9024
-83.91
-86.9634
-86.9895
-87.013
-87.0316
-87.0442
-87.0511
-87.0532
-87.0521
-87.0494
-87.0469
-87.0461
-87.0484
-87.0547
-87.0654
-87.0801
-87.0973
-87.115
-87.1309
-87.1429
-87.15
-87.1527
-87.1525
-87.1512
-87.1511
-87.1539
-87.1602
-87.1693
-87.1801
-87.1907
-87.2
-87.2072
-87.2122
-87.216
-87.2187
-87.2211
-87.2228
-87.2237
-87.2231
-87.2215
-87.2197
-87.2191
-87.2208
-87.2253
-87.2321
-90.2932
-90.3164
-90.3378
-90.355
-90.367
-90.3739
-90.3766
-90.3764
-90.3747
-90.3731
-90.3731
-90.3758
-90.3821
-90.3923
-90.406
-90.4218
-90.4381
-90.4528
-90.4642
-90.4713
-90.4746
-90.4752
-90.4749
-90.4755
-90.4785
-90.4846
-90.493
-90.503
-90.5128
-90.5215
-90.5285
-90.5335
-90.5373
-90.5401
-90.5425
-90.5443
-90.5451
-90.5448
-90.5437
-90.5424
-90.5422
-90.544
-90.5481
-90.5542
-93.6232
-93.6437
-93.663
-93.6789
-93.6903
-93.6972
-93.7004
-93.7009
-93.7
-93.6993
-93.6999
-93.7029
-93.7092
-93.7189
-93.7317
-93.7464
-93.7614
-93.7751
-93.7858
-93.7929
-93.7966
-93.7979
-93.7984
-93.7997
-93.8029
-93.8088
-93.8167
-93.8259
-93.835
-93.8432
-93.8499
-93.855
-93.8588
-93.8617
-93.8641
-93.8658
-93.8667
-93.8666
-93.8658
-93.865
-93.8651
-93.867
-93.8708
-93.8762
-96.9533
-96.9713
-96.9886
-97.0032
-97.014
-97.0209
-97.0243
-97.0254
-97.0253
-97.0253
-97.0264
-97.0298
-97.036
-97.0453
-97.0573
-97.0709
-97.0848
-97.0975
-97.1077
-97.1147
-97.1188
-97.1208
-97.122
-97.1237
-97.1272
-97.1328
-97.1403
-97.1488
-97.1573
-97.1651
-97.1715
-97.1765
-97.1803
-97.1833
-97.1857
-97.1874
-97.1883
-97.1885
-97.188
-97.1876
-97.188
-97.1898
-97.1934
-97.1983
-100.284
-100.299
-100.315
-100.328
-100.338
-100.345
-100.349
-100.35
-100.351
-100.351
-100.353
-100.356
-100.363
-100.371
-100.383
-100.395
-100.408
-100.42
-100.43
-100.437
-100.441
-100.444
-100.445
-100.448
-100.451
-100.457
-100.464
-100.472
-100.48
-100.487
-100.493
-100.498
-100.502
-100.505
-100.507
-100.509
-100.51
-100.51
-100.51
-100.51
-100.511
-100.513
-100.516
-100.52
-103.614
-103.627
-103.641
-103.653
-103.663
-103.669
-103.673
-103.675
-103.676
-103.677
-103.679
-103.683
-103.689
-103.697
-103.708
-103.72
-103.732
-103.743
-103.752
-103.759
-103.764
-103.767
-103.769
-103.771
-103.775
-103.781
-103.787
-103.795
-103.802
-103.809
-103.815
-103.82
-103.824
-103.827
-103.829
-103.831
-103.832
-103.832
-103.832
-103.833
-103.833
-103.835
-103.838
-103.842
-106.944
-106.955
-106.967
-106.978
-106.987
-106.994
-106.998
-107
-107.001
-107.003
-107.005
-107.009
-107.015
-107.023
-107.033
-107.044
-107.056
-107.066
-107.075
-107.082
-107.086
-107.09
-107.092
-107.095
-107.099
-107.104
-107.111
-107.118
-107.125
-107.131
-107.137
-107.142
-107.145
-107.148
-107.151
-107.153
-107.154
-107.154
-107.155
-107.155
-107.156
-107.158
-107.161
-107.164
-110.274
-110.284
-110.294
-110.304
-110.312
-110.318
-110.322
-110.325
-110.327
-110.329
-110.331
-110.335
-110.341
-110.349
-110.358
-110.369
-110.379
-110.389
-110.398
-110.404
-110.409
-110.413
-110.416
-110.419
-110.423
-110.428
-110.434
-110.44
-110.447
-110.453
-110.459
-110.464
-110.467
-110.47
-110.473
-110.474
-110.476
-110.477
-110.477
-110.478
-110.479
-110.48
-110.483
-110.487
-113.604
-113.612
-113.621
-113.63
-113.637
-113.643
-113.647
-113.65
-113.652
-113.654
-113.657
-113.661
-113.667
-113.675
-113.683
-113.693
-113.703
-113.713
-113.721
-113.727
-113.732
-113.736
-113.739
-113.742
-113.746
-113.751
-113.757
-113.763
-113.77
-113.776
-113.781
-113.786
-113.789
-113.792
-113.795
-113.796
-113.798
-113.799
-113.799
-113.8
-113.801
-113.803
-113.806
-113.809
-116.934
-116.94
-116.948
-116.956
-116.963
-116.968
-116.972
-116.975
-116.978
-116.98
-116.983
-116.987
-116.993
-117
-117.009
-117.018
-117.027
-117.036
-117.044
-117.05
-117.055
-117.059
-117.062
-117.066
-117.07
-117.075
-117.08
-117.086
-117.092
-117.098
-117.103
-117.108
-117.111
-117.114
-117.117
-117.118
-117.12
-117.121
-117.122
-117.122
-117.124
-117.126
-117.128
-117.131
-120.264
-120.269
-120.275
-120.282
-120.288
-120.294
-120.297
-120.3
-120.303
-120.306
-120.309
-120.313
-120.319
-120.325
-120.333
-120.342
-120.351
-120.359
-120.367
-120.373
-120.378
-120.382
-120.386
-120.389
-120.393
-120.398
-120.404
-120.409
-120.415
-120.42
-120.425
-120.43
-120.433
-120.436
-120.439
-120.44
-120.442
-120.443
-120.444
-120.445
-120.446
-120.448
-120.45
-120.453
-123.593
-123.597
-123.602
-123.609
-123.614
-123.619
-123.623
-123.626
-123.628
-123.631
-123.635
-123.639
-123.644
-123.651
-123.658
-123.667
-123.675
-123.683
-123.69
-123.696
-123.701
-123.705
-123.709
-123.713
-123.717
-123.722
-123.727
-123.732
-123.738
-123.743
-123.748
-123.752
-123.755
-123.758
-123.761
-123.763
-123.764
-123.765
-123.766
-123.767
-123.769
-123.77
-123.773
-123.775
-126.923
-126.925
-126.93
-126.935
-126.94
-126.944
-126.948
-126.951
-126.954
-126.957
-126.96
-126.964
-126.97
-126.976
-126.983
-126.991
-126.999
-127.007
-127.013
-127.019
-127.024
-127.029
-127.032
-127.036
-127.04
-127.045
-127.05
-127.055
-127.06
-127.065
-127.07
-127.074
-127.077
-127.08
-127.083
-127.085
-127.086
-127.088
-127.089
-127.09
-127.091
-127.093
-127.095
-127.097
-130.252
-130.253
-130.257
-130.261
-130.266
-130.27
-130.274
-130.277
-130.279
-130.282
-130.286
-130.29
-130.295
-130.301
-130.308
-130.316
-130.323
-130.33
-130.337
-130.343
-130.348
-130.352
-130.356
-130.36
-130.364
-130.368
-130.373
-130.378
-130.383
-130.388
-130.392
-130.396
-130.4
-130.403
-130.405
-130.407
-130.408
-130.41
-130.411
-130.412
-130.414
-130.415
-130.417
-130.419
-133.581
-133.581
-133.584
-133.588
-133.592
-133.596
-133.599
-133.602
-133.605
-133.608
-133.611
-133.615
-133.62
-133.626
-133.633
-133.64
-133.647
-133.654
-133.66
-133.666
-133.671
-133.675
-133.679
-133.683
-133.687
-133.692
-133.696
-133.701
-133.706
-133.711
-133.715
-133.719
-133.722
-133.725
-133.727
-133.729
-133.731
-133.732
-133.733
-133.735
-133.736
-133.738
-133.74
-133.742
-136.91
-136.91
-136.911
-136.914
-136.918
-136.921
-136.925
-136.927
-136.93
-136.933
-136.937
-136.941
-136.946
-136.951
-136.958
-136.964
-136.971
-136.978
-136.984
-136.989
-136.994
-136.999
-137.003
-137.007
-137.011
-137.015
-137.019
-137.024
-137.029
-137.033
-137.037
-137.041
-137.044
-137.047
-137.049
-137.051
-137.053
-137.054
-137.056
-137.057
-137.058
-137.06
-137.062
-137.064
-146.769
-146.766
-146.766
-146.767
-146.769
-146.772
-146.774
-146.777
-146.779
-146.782
-146.786
-146.79
-146.794
-146.799
-146.805
-146.811
-146.816
-146.822
-146.828
-146.833
-146.837
-146.842
-146.846
-146.85
-146.854
-146.858
-146.862
-146.866
-146.87
-146.874
-146.878
-146.881
-146.884
-146.887
-146.889
-146.891
-146.893
-146.894
-146.896
-146.897
-146.899
-146.9
-146.902
-146.903
-163.152
-163.148
-163.145
-163.145
-163.145
-163.146
-163.148
-163.15
-163.152
-163.155
-163.158
-163.161
-163.165
-163.169
-163.174
-163.178
-163.183
-163.188
-163.192
-163.197
-163.201
-163.205
-163.209
-163.212
-163.216
-163.219
-163.223
-163.227
-163.23
-163.234
-163.237
-163.24
-163.242
-163.245
-163.247
-163.249
-163.251
-163.252
-163.254
-163.255
-163.257
-163.258
-163.26
-163.261
-179.531
-179.526