/*--------------------------------*- C++ -*----------------------------------*\
| =========                 |                                                 |
| \\      /  F ield         | OpenFOAM: The Open Source CFD Toolbox           |
|  \\    /   O peration     | Version:  v1912                                 |
|   \\  /    A nd           | Website:  www.openfoam.com                      |
|    \\/     M anipulation  |                                                 |
\*---------------------------------------------------------------------------*/
FoamFile
{
    version     2.0;
    format      ascii;
    class       volScalarField;
    location    "30";
    object      omega;
}
// * * * * * * * * * * * * * * * * * * * * * * * * * * * * * * * * * * * * * //

dimensions      [0 0 -1 0 0 0 0];


internalField   nonuniform List<scalar> 
14268
(
90.8389
68.6331
49.9145
56.4628
57.8695
51.0556
48.6628
64.3368
76.8625
80.798
80.5949
88.8953
124.637
147.251
146.266
111.594
76.1511
77.3843
98.0528
112.772
117.399
122.426
127.541
129.12
123.679
109.879
96.7527
82.9458
79.0693
91.5663
92.156
90.5944
94.7221
92.8696
91.7689
82.6271
75.915
75.2364
79.8623
79.832
79.8871
79.4853
73.6731
74.7303
82.7172
82.7004
80.703
79.0588
78.7938
80.3235
78.3049
77.3203
84.6389
91.4923
89.7005
85.3273
74.6687
65.7314
62.963
64.4369
70.537
75.5265
59.5182
68.817
76.9085
94.9262
99.9014
69.8102
55.8916
70.057
118.952
136.786
114.254
75.3349
67.1619
107.77
113.97
100.888
97.9101
69.1766
59.8728
71.8427
69.3148
67.7284
59.0272
55.879
54.4568
58.8876
67.0848
77.178
78.3899
78.0413
72.5605
60.345
54.981
66.6502
72.4897
72.7248
66.5311
56.1985
48.6358
53.2137
58.8509
62.2716
60.4314
45.7426
36.3743
28.1646
34.6575
29.5375
27.4544
31.9983
41.6746
44.5081
43.0871
43.5634
50.5879
59.4407
59.1864
47.09
38.0699
38.0476
43.7357
47.0025
48.8927
50.5266
51.3655
51.1499
48.7217
43.8176
37.943
33.6268
34.1679
42.5714
53.3344
56.4552
61.0275
63.2117
62.677
57.7015
50.2772
48.2167
48.1928
46.2546
45.963
44.8353
39.7561
37.7153
40.3631
39.9863
37.0898
34.622
33.8147
34.9928
37.4322
43.7268
50.2104
53.626
55.0248
52.448
50.461
45.3179
37.8382
36.0605
39.523
43.4013
28.8839
34.8263
38.0704
40.9242
47.3317
49.3785
32.4204
34.4632
45.8381
52.2296
42.5874
27.9109
26.2669
39.612
41.7087
36.4
36.3234
26.2181
26.2135
36.1809
37.3938
44.6946
38.1537
33.3855
30.056
28.757
28.9783
31.1182
34.0269
40.4632
42.6056
32.8148
22.7086
24.3682
26.3747
25.9128
24.3216
20.7142
18.3872
20.3924
24.5527
26.889
31.1579
25.8016
21.3526
18.1179
20.0317
19.146
22.243
25.3195
28.2249
29.2776
28.8312
28.5357
34.526
40.6703
40.2366
31.7942
25.5536
25.2996
28.7447
31.8941
33.6178
34.6554
35.0693
34.6038
32.9407
30.1571
26.9418
24.5717
25.9405
28.1489
32.9008
33.7196
32.809
33.2046
32.6475
30.7068
28.5968
29.0547
29.8315
28.9107
28.6398
27.7421
24.9214
24.0842
26.0349
25.964
24.2995
22.6812
21.9327
22.2303
23.3007
25.7564
28.2876
29.2347
28.7454
27.0557
26.4547
25.3835
22.7429
21.5429
22.8286
24.5957
18.4645
21.0482
21.8052
23.8052
28.1173
29.5282
20.0495
24.1894
32.0136
35.3699
28.6907
19.2585
16.9292
26.7838
28.572
24.5476
25.283
17.5549
18.4605
23.9612
20.1747
22.49
19.9291
18.5348
19.1469
18.8484
17.0505
18.3193
19.7953
23.1341
27.659
24.759
16.9132
16.3515
18.1478
18.0455
17.328
14.8665
12.456
13.9639
16.6438
17.4233
21.3639
18.7549
16.1876
14.773
15.1918
14.6373
18.973
22.3903
23.3943
22.8859
22.1144
22.5584
28.1601
32.9588
31.8866
25.3879
20.6537
20.3189
23.3873
26.3742
27.9273
28.7411
28.8875
28.1636
26.6823
24.532
22.1594
20.1078
19.9991
21.5077
24.0501
24.0141
22.5387
22.527
22.2918
21.1481
20.4913
23.2486
23.9955
23.4531
23.181
22.3517
19.9631
18.98
20.4765
20.4768
19.393
18.1412
17.464
17.5277
18.1613
19.2855
20.4893
20.6172
19.4587
18.1547
18.202
18.6525
17.8198
16.6182
17.306
18.0355
14.6961
16.1552
16.0637
17.5711
20.7583
19.6184
15.149
20.0259
26.4956
28.2929
23.1155
16.1566
13.9474
21.8781
23.6392
19.6145
20.6764
14.5572
13.8918
16.6806
14.3241
15.1201
13.9357
12.85
13.4844
13.5214
12.477
13.4924
14.3203
16.0182
19.6846
21.2039
15.5896
13.4436
15.2365
15.3598
15.4323
13.4493
10.4836
11.3861
12.9952
12.7043
17.02
15.3894
13.452
12.8209
12.7816
12.3858
17.2818
21.1664
20.9339
19.6515
19.1283
19.8547
24.7223
28.5919
27.4696
22.1551
18.2794
17.8708
20.5838
23.4821
24.9512
25.667
25.6027
24.716
23.4446
21.3749
19.4252
17.8339
17.3797
17.9814
19.1858
19.3028
18.2132
17.9171
17.6761
16.7472
16.6975
20.5481
20.9703
20.1969
19.972
19.1792
17.0836
16.3777
17.6361
17.6396
16.8409
15.784
15.1596
15.1717
15.6898
16.3359
16.9938
16.6594
15.3505
14.1371
13.895
15.0837
15.1398
13.9694
14.4936
14.7978
12.8575
13.7278
12.994
14.3195
16.949
15.3751
12.8905
17.9205
23.2406
24.1922
20.1389
14.6639
12.5048
18.6244
21.61
15.1713
17.4304
13.3681
11.7169
12.9645
11.6927
11.9433
11.1701
10.3491
10.4463
10.4576
10.1983
11.0437
11.593
12.5331
14.7243
18.1
15.0026
12.0316
13.601
14.4331
14.5552
12.1475
9.48898
10.0216
10.8159
10.2041
14.6148
13.4643
11.7373
11.187
10.9561
10.8107
15.5316
20.5796
19.7007
17.8767
17.4729
18.1993
22.4839
25.6861
24.5504
20.0964
16.8804
16.388
18.6564
21.2558
22.6306
23.2965
23.169
22.2295
21.131
19.385
17.8164
16.5172
16.0054
16.2676
16.9187
16.9303
15.8858
15.3698
15.0309
14.2365
14.1583
18.6038
19.0815
17.3438
17.3007
16.8191
14.8238
14.7984
15.9456
15.9138
15.2891
14.3286
13.7352
13.7747
14.2757
14.6845
15.0825
14.427
13.097
11.9323
11.2663
12.6224
13.4631
11.8032
12.5912
12.9606
11.7479
12.2047
11.07
12.2317
14.5142
12.9926
11.6756
16.7712
21.1327
21.5755
18.2787
13.7674
11.4985
15.9247
18.7358
11.7822
14.1853
12.7812
10.1353
11.0783
10.2383
10.2574
9.61085
8.92935
8.84827
8.81432
8.82773
9.52099
9.92594
10.504
11.7256
14.9954
14.2137
11.2638
12.6842
14.1741
12.0192
9.95645
8.6057
9.09946
9.43065
8.7756
13.0682
12.2255
10.5224
9.68643
9.39277
9.50776
13.5585
19.8058
18.9383
16.7097
16.3745
17.1022
20.8376
23.3685
22.2534
18.6087
15.8681
15.4087
17.1823
19.2971
20.4977
21.1081
21.013
20.1604
19.2805
17.9268
16.7218
15.6825
15.1808
15.3357
15.8215
15.4915
14.3636
13.6775
13.2964
12.6216
12.2055
15.6224
15.2155
13.3248
13.4749
13.5834
12.8035
13.4187
14.6839
14.7885
14.3097
13.3957
12.7445
12.8366
13.3314
13.6258
13.8371
12.9747
11.6379
10.5462
9.74044
10.4034
11.6149
9.82078
10.9928
11.7809
11.0197
11.164
9.73119
10.7476
12.7269
11.4378
10.9641
15.9191
19.5777
19.963
17.1281
13.2176
10.8478
13.2051
14.9998
10.165
11.0771
12.1623
9.1799
10.006
9.29474
9.2039
8.62424
8.0118
7.86389
7.80768
7.90301
8.47676
8.80381
9.18296
9.8789
12.3395
13.0029
10.5353
11.9617
12.136
9.30444
7.95631
7.62264
8.33009
8.52048
7.85294
12.0168
11.3913
9.69304
8.66433
8.27092
8.37613
11.6892
18.554
18.3454
15.8982
15.618
16.3218
19.6438
21.5842
20.4856
17.45
15.1027
14.6942
16.1404
18.0417
19.1158
19.7696
19.6476
18.7373
17.981
16.8469
15.934
15.1133
14.6321
14.7208
15.1589
14.5024
13.3154
12.4547
12.0503
11.4908
10.9003
12.6444
12.1442
11.2655
11.556
11.8948
11.5043
12.0963
13.4056
13.6069
13.2968
12.5293
11.9832
12.1475
12.6857
12.891
12.9759
11.9178
10.6029
9.58519
8.82846
8.99908
9.81434
8.41847
9.37336
10.985
10.5116
10.4408
8.87177
9.74171
11.4618
10.368
10.5426
15.0603
18.4616
18.8162
16.3279
12.7741
10.4794
11.7245
12.7682
9.194
9.09377
11.2829
8.55644
9.2759
8.58301
8.45098
7.94346
7.36989
7.18628
7.1154
7.23319
7.7055
7.97259
8.22714
8.63114
10.3487
11.5535
9.76265
11.3859
9.63762
7.57438
6.77581
6.78159
7.67413
7.86262
7.1782
11.184
10.7446
9.15086
8.03931
7.60741
7.59045
10.1643
17.0607
17.8161
15.3157
15.0684
15.7853
18.7257
20.247
19.1672
16.5419
14.4829
14.1133
15.3789
17.0658
17.9626
18.5292
18.3654
17.5983
17.1511
16.1404
15.4012
14.7241
14.2613
14.3416
14.7411
13.6469
12.4892
11.538
11.1339
10.6578
10.0537
10.8906
10.5197
10.066
10.3774
10.8306
10.6772
10.9186
12.0139
12.3074
12.1547
11.6094
11.3125
11.5935
12.1596
12.3648
12.2678
11.0874
9.81143
8.87768
8.20402
8.12329
8.54142
7.53756
7.92188
10.3921
10.1523
10.0136
8.26471
9.00004
10.5164
9.60154
10.2015
14.2416
17.5302
17.8213
15.5555
12.3656
10.2418
10.9244
11.3044
8.48687
7.8079
9.87593
8.06385
8.75878
7.998
7.81887
7.4356
6.89585
6.68414
6.60449
6.72174
7.11533
7.34212
7.51235
7.73416
8.89644
10.175
9.31349
11.1508
8.14597
6.60285
6.00365
6.15147
7.15069
7.3627
6.66851
10.4947
10.2004
8.76853
7.64915
7.15393
7.05879
9.01089
15.5144
17.1936
14.8068
14.6298
15.3916
18.0706
19.2984
18.1494
15.7614
13.9487
13.6435
14.7988
16.2811
16.9808
17.3474
17.0726
16.5645
16.335
15.5224
14.9503
14.3828
14.0342
14.0944
14.3691
12.9503
11.7612
10.7261
10.3554
10.0073
9.47483
9.84678
9.53824
9.25145
9.54489
10.1093
10.1054
10.1206
10.9657
11.2432
11.1932
10.8884
10.7882
11.1053
11.6815
11.8823
11.6788
10.4169
9.20132
8.3332
7.73554
7.52252
7.70194
6.88956
7.01681
9.85088
9.93243
9.59803
7.80923
8.41761
9.76503
9.01649
9.9033
13.6404
16.8276
16.8231
14.7583
11.9033
10.0094
10.4833
10.2677
7.9445
6.9858
8.90015
7.7199
8.33812
7.53918
7.24964
7.01746
6.52355
6.29901
6.21028
6.31895
6.64853
6.84124
6.95281
7.05452
7.82237
9.00058
9.05328
10.8771
7.29567
5.99565
5.49725
5.68964
6.73101
6.96053
6.26145
9.94382
9.80635
8.47851
7.36422
6.80846
6.67591
8.15129
14.0364
16.4216
14.3649
14.2862
15.1093
17.5317
18.5569
17.3602
15.2019
13.571
13.3399
14.3884
15.738
16.2853
16.5266
16.0703
15.5992
15.4034
14.8719
14.4547
14.049
13.7661
13.8228
13.8352
12.1077
11.0248
9.95357
9.60444
9.49743
9.04483
9.15633
8.86721
8.66543
8.93791
9.58094
9.67807
9.54812
10.2212
10.4982
10.5152
10.3264
10.2876
10.6462
11.2373
11.4219
11.1394
9.91224
8.71462
7.90404
7.3736
7.08037
7.09373
6.36874
6.4649
9.36421
9.76416
9.24483
7.45161
7.95009
9.16606
8.54461
9.68077
13.1604
15.9637
15.5524
13.6802
11.02
9.77398
10.2328
9.51858
7.50572
6.48692
8.03069
7.45932
8.01176
7.20754
6.74828
6.63345
6.21177
5.98978
5.8951
5.99302
6.27156
6.43858
6.50797
6.52588
7.02499
8.02459
8.78316
9.89994
6.76414
5.59163
5.13958
5.34255
6.39718
6.63168
5.93072
9.5309
9.52028
8.2491
7.13362
6.54794
6.37095
7.48532
12.7331
15.6972
14.0168
14.0403
14.8926
17.1585
18.0236
16.744
14.7628
13.2755
13.1369
14.1249
15.3907
15.847
15.9908
15.3652
14.9304
14.6785
14.1792
13.83
13.6706
13.4838
13.4156
13.032
11.4157
10.439
9.20861
8.85802
9.04127
8.6768
8.66997
8.37424
8.21607
8.47372
9.18198
9.35255
9.12297
9.68814
9.97711
10.0276
9.86473
9.82172
10.1983
10.8007
11.031
10.7302
9.49435
8.31087
7.55212
7.0827
6.73915
6.6401
5.95347
6.09897
8.97958
9.65217
8.92957
7.15821
7.55954
8.67515
8.1397
9.47987
12.8576
15.0392
13.6414
12.4382
10.3006
9.58737
9.99085
8.92336
7.14634
6.15338
7.1634
7.21729
7.72503
6.9536
6.3431
6.24309
5.91767
5.73233
5.63768
5.72472
5.96265
6.106
6.14512
6.10388
6.4176
7.23619
8.54507
8.71415
6.31929
5.29035
4.87083
5.07568
6.12451
6.35526
5.65444
9.21744
9.31096
8.0741
6.94375
6.32685
6.12829
6.9711
11.6029
15.1839
13.7612
13.8315
14.7618
16.7977
17.5242
16.1846
14.4022
13.086
12.9989
13.9
15.0709
15.4509
15.5375
14.9333
14.5164
14.1901
13.653
13.3516
13.2862
13.1404
12.9468
12.4142
10.8941
9.98912
8.63748
8.24588
8.60329
8.37205
8.30922
8.00259
7.8633
8.10735
8.86494
9.08709
8.7907
9.29718
9.60061
9.66794
9.50197
9.45338
9.85294
10.4594
10.7262
10.4042
9.06231
7.93706
7.25257
6.84721
6.47138
6.2886
5.64577
5.82958
8.61622
9.60748
8.65958
6.9092
7.22886
8.27826
7.78607
9.32252
12.3798
13.8816
12.1852
11.4921
9.75878
9.38865
9.85079
8.46685
6.8473
5.89727
6.47194
6.93332
7.41431
6.75682
6.04014
5.8722
5.63391
5.51582
5.42296
5.50034
5.70544
5.82914
5.84567
5.7626
5.9436
6.60994
8.31724
7.7395
5.93507
5.03468
4.64838
4.86537
5.89923
6.1198
5.4205
8.9802
9.14931
7.94017
6.80833
6.14953
5.92911
6.57369
10.6008
14.7309
13.5209
13.6942
14.6901
16.5227
17.0844
15.6743
14.0684
12.9158
12.7972
13.6454
14.7529
15.0523
15.107
14.5364
14.1652
13.8734
13.2789
13.0276
13.0227
12.8788
12.5175
11.9869
10.4728
9.61903
8.18756
7.76762
8.17478
8.11644
8.04017
7.70986
7.57104
7.81104
8.61001
8.87975
8.53501
9.00345
9.31104
9.38776
9.23849
9.203
9.62459
10.2263
10.5111
10.0427
8.59575
7.56315
7.00195
6.65381
6.25705
6.01033
5.41108
5.59877
8.27399
9.6018
8.47779
6.68658
6.94627
7.93465
7.48091
9.2216
11.7895
12.2785
11.0819
10.6761
9.30165
9.24133
9.78496
8.09675
6.59405
5.69587
6.04711
6.52041
7.07224
6.57162
5.81336
5.55268
5.39522
5.33271
5.24113
5.31066
5.49033
5.59484
5.59467
5.48253
5.56563
6.10764
8.05829
7.03593
5.61766
4.80841
4.45993
4.69341
5.70935
5.91665
5.21934
8.70731
8.97789
7.79198
6.65558
5.94043
5.67499
6.10419
9.26687
13.8949
13.1216
13.4578
14.5244
16.2381
16.5092
15.0392
13.6582
12.6256
12.3383
13.0688
13.9461
14.4285
14.4708
13.9587
13.6999
13.4045
12.8415
12.6583
12.6923
12.5917
12.0972
11.4536
9.93145
9.16996
7.6475
7.20428
7.59441
7.78776
7.70952
7.34505
7.16658
7.42238
8.31482
8.61242
8.22567
8.62782
8.9133
9.02898
8.91823
8.87941
9.30407
9.914
10.1861
9.43817
7.84228
7.09413
6.69275
6.417
5.99931
5.67677
5.13877
5.27614
7.8006
9.21886
8.25498
6.3985
6.59225
7.46512
7.07764
8.9576
10.8893
10.3267
9.9133
9.77826
8.76104
9.00094
9.65764
7.59486
6.27043
5.43085
5.61919
5.87025
6.40705
6.24203
5.54084
5.17572
5.11216
5.09967
5.00733
5.06905
5.21929
5.29672
5.27883
5.13664
5.10517
5.50063
7.3381
6.29856
5.27752
4.53821
4.24054
4.48624
5.46454
5.649
4.95745
8.44553
8.81345
7.72838
6.57441
5.70606
5.40727
5.68394
7.94337
12.6022
12.7175
13.2621
14.3881
15.5234
15.7208
14.4242
13.3493
12.4933
11.8328
11.9755
12.3905
13.0512
13.6035
13.2659
13.149
12.8535
12.4573
12.3069
12.4719
12.4825
12.0211
10.8467
9.18599
8.6435
7.16074
6.72209
7.06483
7.3924
7.44434
6.99157
6.67291
6.96381
8.08061
8.3702
7.83797
8.09974
8.37927
8.58838
8.57396
8.54318
8.99142
9.69228
9.9683
8.31818
7.11581
6.65769
6.3978
6.19168
5.77025
5.38096
4.91263
4.94843
7.08573
8.39622
8.11154
6.09265
6.23858
6.89973
6.64437
8.38508
9.69899
8.90872
8.9012
8.86613
8.26102
8.77764
9.30683
6.88406
5.96034
5.20532
5.2477
5.30197
5.46139
5.49743
5.14058
4.83451
4.86523
4.87297
4.77454
4.83312
4.95026
4.99742
4.96745
4.81142
4.6847
4.94892
6.1601
5.6075
4.97593
4.33963
4.09522
4.32071
5.22188
5.37123
4.68642
8.23524
8.68875
7.74843
6.60736
5.46884
5.17989
5.38425
7.00018
11.5592
12.3673
13.2155
14.1978
14.9345
14.9896
13.8761
13.1533
12.7009
11.5394
11.0709
11.1649
11.7126
12.5731
12.6123
12.564
12.3116
12.1259
12.07
12.399
12.5717
11.8496
9.9656
8.50136
8.16438
6.79364
6.38782
6.70814
7.03916
7.21973
6.71333
6.23931
6.55172
7.81887
8.21248
7.51005
7.44988
7.60536
7.99672
8.28544
8.26486
8.49617
8.97052
8.95668
7.41858
6.60224
6.33238
6.17707
6.02768
5.61787
5.18892
4.76562
4.77015
6.31678
7.7507
7.58815
5.80866
5.95677
6.4087
6.26902
7.83035
9.10448
7.97239
8.14947
8.11567
7.80936
8.74724
8.05674
6.38364
5.71084
5.00162
5.00009
4.96928
4.83522
4.80773
4.74064
4.58095
4.68776
4.70286
4.59943
4.65617
4.73133
4.76319
4.72857
4.5718
4.3915
4.55082
5.30282
5.10158
4.75001
4.255
4.02979
4.22673
5.03865
5.14279
4.47013
8.0801
8.57984
7.79972
6.60174
5.22626
4.98745
5.16297
6.32959
10.7986
12.2365
13.2255
14.1614
14.1925
14.1644
13.4857
13.2056
13.2394
11.3152
10.4046
10.2513
10.7197
11.7343
12.0548
12.0448
11.8427
11.4435
11.1492
11.7354
12.2634
11.2757
9.16576
7.99436
7.77707
6.5354
6.16531
6.47773
6.78506
7.06368
6.50328
5.94773
6.23738
7.55654
7.98631
7.27243
7.02087
7.07487
7.45896
7.97527
7.88324
7.75239
8.34953
8.22214
6.84937
6.22203
6.0896
6.00713
5.90278
5.515
5.06302
4.66805
4.66945
5.68126
7.16711
6.97336
5.56974
5.75469
6.0716
5.95889
7.43978
8.76974
7.31922
7.50346
7.41548
7.39135
8.78784
7.1007
6.00532
5.52456
4.8633
4.81034
4.73041
4.4587
4.38263
4.44146
4.39392
4.55979
4.57507
4.469
4.5189
4.54749
4.5709
4.54056
4.39151
4.1853
4.2613
4.74347
4.73337
4.59957
4.23318
4.0049
4.17507
4.89825
4.95576
4.2943
7.93252
8.4511
7.98903
6.37634
4.98057
4.81546
4.99328
5.84528
10.0156
12.2079
13.2824
14.2189
13.5428
13.3466
13.0255
13.5564
13.1403
11.0719
9.87913
9.57265
9.97989
11.1525
11.669
11.6039
11.18
10.3818
10.0108
10.5951
11.0669
10.3099
8.51196
7.61163
7.47736
6.34772
5.99711
6.33752
6.61993
7.02314
6.2948
5.7423
6.02548
7.273
7.75834
7.02023
6.7077
6.74084
7.06213
7.48125
7.28052
7.01335
7.77478
7.84328
6.46532
5.93313
5.90141
5.87531
5.80714
5.45094
4.98858
4.60957
4.6179
5.2865
6.59724
6.43082
5.35999
5.61259
5.83382
5.71008
7.15492
8.52179
6.84511
7.04842
6.85301
6.95438
7.91381
6.41786
5.67158
5.3596
4.7202
4.67159
4.58151
4.26131
4.20356
4.21582
4.25558
4.46355
4.47945
4.37333
4.40617
4.39376
4.40341
4.38694
4.25433
4.0399
4.04934
4.35104
4.49404
4.4764
4.2443
4.00765
4.15138
4.78749
4.79737
4.1486
7.69245
8.31859
8.21942
5.98591
4.73173
4.66402
4.86159
5.49649
9.11651
12.0349
13.1798
14.5419
13.2171
12.5735
12.4383
13.3777
12.3105
10.6154
9.36267
8.98239
9.34192
10.6003
11.3257
11.2622
10.5418
9.50666
9.11882
9.63373
9.93714
9.36507
7.97469
7.30559
7.23667
6.22005
5.8693
6.26314
6.5141
7.03278
6.06611
5.58296
5.88806
6.98047
7.53038
6.78448
6.46392
6.49222
6.76243
6.98042
6.69357
6.45148
7.23112
7.70774
6.16789
5.69654
5.75278
5.76747
5.73473
5.41614
4.95131
4.58481
4.59469
5.06464
6.11596
5.9969
5.18473
5.5
5.63615
5.51791
6.78707
8.17825
6.44965
6.71416
6.48856
6.48241
6.95651
5.87964
5.38035
5.22061
4.61103
4.55032
4.44902
4.16566
4.12518
4.07128
4.16038
4.39079
4.41778
4.30965
4.31232
4.26831
4.25978
4.25993
4.14938
3.93662
3.8837
4.08685
4.30326
4.28836
4.17261
3.99981
4.14154
4.69865
4.66153
4.02658
7.44153
8.22087
8.01829
5.51312
4.48368
4.52539
4.75712
5.25795
8.14053
11.4771
13.0748
14.3514
13.1714
12.0158
11.7276
12.1657
11.3489
10.0479
8.8789
8.46691
8.78177
9.97526
10.7828
10.7568
9.91125
8.80605
8.40778
8.90722
9.12004
8.62668
7.54229
7.05291
7.02235
6.1392
5.78209
6.23032
6.47657
6.90699
5.8811
5.46587
5.82055
6.77077
7.24118
6.58393
6.2959
6.3325
6.55344
6.6473
6.29667
6.07863
6.7583
7.53705
5.93039
5.49027
5.63366
5.67987
5.68236
5.41163
4.95787
4.58928
4.5941
4.93473
5.74011
5.67142
5.03226
5.39395
5.44817
5.36213
6.41847
7.74763
6.11975
6.44181
6.18921
6.08168
6.30342
5.42208
5.11193
5.08002
4.5039
4.45428
4.37173
4.11265
4.08496
4.00108
4.08585
4.32323
4.38144
4.27756
4.25411
4.17468
4.1357
4.15245
4.06878
3.86338
3.75631
3.9119
4.1028
4.05227
3.99586
3.94305
4.13049
4.62516
4.54266
3.92392
4.96663
5.19982
4.92935
4.05871
3.68564
3.85287
4.25225
4.5631
5.20213
7.0878
10.1628
11.696
11.5619
10.7342
8.84015
7.96665
7.60083
7.19409
6.58705
6.26784
6.35353
6.9053
7.51225
7.68252
6.68774
5.9262
5.9566
6.50529
6.58658
6.26154
5.90369
5.90544
6.05651
5.85565
5.51804
6.25494
6.65991
6.24409
5.28917
5.16433
5.76947
6.11969
6.06189
5.5808
5.61314
5.73576
5.75205
5.5989
5.16809
5.06294
5.42255
5.89429
4.88071
4.62144
5.0563
5.2341
5.4778
5.50143
5.1734
4.66214
4.61775
4.57839
4.60014
4.51461
4.37849
4.93302
4.62069
4.72385
4.91941
5.3174
4.81688
5.27331
4.91433
4.58914
4.26799
4.07576
4.08508
4.2967
4.00404
3.99503
4.03769
3.99062
4.01204
3.94289
3.86728
4.01688
4.27975
4.27058
4.13849
3.79307
3.61665
3.69044
3.75497
3.62376
3.33297
3.28201
3.18223
3.17865
3.31969
3.60762
4.06704
4.31957
4.0166
3.49271
4.46283
4.25356
3.96885
3.62602
3.1222
2.86514
2.96765
3.50565
4.08774
4.65457
5.66863
6.92672
7.67975
7.03104
5.53975
4.46892
3.95009
3.63397
3.62631
3.86715
4.22591
4.23914
4.24995
4.55537
4.83691
4.83947
4.78357
4.57123
4.27603
4.00062
3.86009
3.94432
4.36276
4.87694
5.17514
5.48739
5.81361
6.16109
6.34092
6.38589
6.1379
5.84123
5.4647
5.07527
4.78105
4.39634
4.21672
4.14964
4.06349
4.03552
4.16892
4.37504
4.28884
4.09261
3.92
3.91215
4.01667
4.24109
4.24825
4.16246
4.08837
3.98651
3.94917
3.96859
4.04394
4.14622
4.19686
4.76608
5.15221
4.94199
4.33869
3.93243
3.64084
3.44553
3.69515
3.93849
3.83721
3.63419
3.55331
3.2602
2.89909
3.01893
3.39126
4.01284
4.24263
4.253
4.19609
4.04379
3.75264
3.3037
3.01486
3.00218
3.12304
3.26897
3.22353
3.09628
2.90425
2.8594
2.92942
3.19413
3.79628
4.09996
3.85251
3.40627
3.96137
3.82451
3.64824
3.40979
2.98522
2.68387
2.57594
2.58738
2.91341
3.25704
3.52649
3.82645
4.05769
3.84164
3.40693
2.96739
2.58939
2.29028
2.09072
2.04033
2.06022
2.10957
2.15865
2.24953
2.34446
2.38928
2.42063
2.38575
2.37786
2.36339
2.36201
2.4
2.58054
2.89904
3.30027
3.66767
4.0336
4.44865
4.96301
5.40345
5.50992
5.50107
5.32716
4.93929
4.45136
3.83909
3.51698
3.49695
3.48946
3.53176
3.73504
3.89871
3.82445
3.64047
3.44141
3.41807
3.45582
3.51715
3.55758
3.56322
3.58214
3.56684
3.47023
3.32559
3.34936
3.54158
3.66321
3.78853
3.9434
3.79335
3.38827
2.82285
2.46727
2.20859
2.1326
2.08781
2.03476
2.06764
2.07071
1.87631
1.59002
1.42035
1.44072
1.56678
1.75575
2.01933
2.37578
2.4664
2.39755
2.23046
2.0439
2.01921
2.09878
2.3164
2.6486
2.81783
2.83285
2.85911
2.92071
3.11409
3.58961
3.93018
3.77576
3.45238
3.66591
3.74774
3.72776
3.56565
3.19591
2.99452
2.79729
2.56449
2.50498
2.49494
2.47602
2.48571
2.48156
2.36635
2.11245
1.82333
1.59472
1.4246
1.31178
1.25143
1.22622
1.22727
1.23944
1.26755
1.28083
1.28465
1.29687
1.32119
1.36442
1.40776
1.43443
1.46902
1.54802
1.68211
1.88406
2.19337
2.64272
3.28568
4.05697
4.61692
4.90123
5.04786
5.04358
4.93094
4.72259
4.33253
3.80779
3.45744
3.38095
3.54858
3.83043
4.00255
3.97139
3.76203
3.44111
3.27962
3.26188
3.27278
3.27856
3.25909
3.24726
3.26412
3.26413
3.20173
3.049
2.98074
2.97921
2.9864
2.9715
2.86042
2.61732
2.2627
1.81162
1.35434
1.12485
1.02023
0.947296
0.932261
0.919268
0.879498
0.82634
0.794638
0.801468
0.830704
0.888903
0.974934
1.09071
1.22533
1.24992
1.23759
1.23195
1.24297
1.29454
1.42957
1.67579
1.99849
2.31408
2.57828
2.77152
2.99801
3.3841
3.76103
3.71377
3.52778
2.10451
2.62307
3.31919
3.6294
3.62393
3.58755
3.34086
2.77205
2.46573
2.39672
2.32973
2.25408
2.17245
2.0319
1.81598
1.5754
1.41549
1.29545
1.18783
1.1017
1.03701
0.988452
0.952843
0.938526
0.935927
0.935843
0.940419
0.952449
0.974959
1.00889
1.05402
1.11018
1.18314
1.26865
1.36227
1.47006
1.63469
1.92399
2.45521
3.21001
3.86773
4.25821
4.48654
4.55216
4.53977
4.44643
4.22859
4.01402
3.83622
3.65997
3.64588
3.68554
3.68403
3.55739
3.29627
3.13168
3.12894
3.14515
3.17489
3.17972
3.15581
3.11459
3.08298
3.05025
2.99698
2.90101
2.74284
2.54465
2.35923
2.16581
1.93243
1.63001
1.25009
0.923962
0.746641
0.661943
0.62757
0.616779
0.616354
0.615644
0.613249
0.607737
0.607935
0.613167
0.627059
0.649211
0.679238
0.716251
0.747433
0.772668
0.800484
0.836269
0.893186
0.981877
1.10571
1.28483
1.53926
1.86814
2.24227
2.6344
3.08008
3.51224
3.59937
3.51231
1.10006
1.34679
1.79381
2.51849
3.29594
3.85404
3.78888
3.09939
2.59455
2.51833
2.4383
2.3375
2.21788
2.05443
1.86579
1.75291
1.64069
1.50575
1.35187
1.20556
1.07389
0.97096
0.891298
0.841786
0.822034
0.812968
0.81409
0.823725
0.846248
0.882868
0.935016
1.00111
1.08096
1.17326
1.27435
1.37063
1.45349
1.53636
1.65637
1.88331
2.28527
2.8477
3.41916
3.81363
4.08223
4.1638
4.17486
4.14987
4.02328
3.81638
3.56576
3.46859
3.39352
3.29535
3.14962
2.98766
2.93902
2.95584
3.00472
3.09333
3.12793
3.1054
3.06304
3.02505
2.98568
2.90244
2.72988
2.46348
2.13277
1.80329
1.4906
1.17878
0.910157
0.731129
0.641471
0.606084
0.599944
0.602416
0.609263
0.606156
0.597838
0.582226
0.568996
0.564696
0.565801
0.571016
0.579543
0.590163
0.601605
0.613934
0.631536
0.657873
0.702494
0.767407
0.855425
0.966074
1.10775
1.30541
1.59259
2.00117
2.53311
3.06796
3.37963
3.37768
0.876791
0.932163
1.11365
1.5798
2.40351
3.59479
4.00006
3.53962
2.97955
2.82042
2.79587
2.56575
2.44631
2.36074
2.29234
2.28934
2.1981
2.01036
1.76727
1.48508
1.23021
1.02883
0.891856
0.807079
0.755726
0.733837
0.73044
0.735265
0.75236
0.788226
0.849401
0.932731
1.03369
1.15322
1.29754
1.44466
1.54349
1.64524
1.75072
1.8011
1.84644
1.96273
2.17657
2.48955
2.91782
3.37915
3.72938
3.85557
3.81743
3.70903
3.61702
3.54089
3.44228
3.31042
3.15424
2.98669
2.85083
2.79117
2.79299
2.83158
2.91441
3.01162
3.05068
3.04808
3.02444
2.9454
2.77021
2.47562
2.05259
1.57719
1.21937
0.958837
0.784828
0.687555
0.641513
0.623329
0.618932
0.620855
0.623459
0.622755
0.614306
0.594493
0.568696
0.551497
0.542738
0.539557
0.53944
0.540719
0.542975
0.546786
0.554644
0.567954
0.593021
0.631794
0.686378
0.761154
0.860478
0.993002
1.16725
1.43846
1.86183
2.39945
2.89478
3.08542
0.85831
0.865227
0.925265
1.14549
1.69035
2.85434
3.91636
3.77208
3.30585
3.09783
2.98002
2.78131
2.81258
2.95634
3.04046
3.03501
2.86842
2.60116
2.29172
1.94375
1.54893
1.21427
0.972367
0.820391
0.733237
0.694567
0.682847
0.683357
0.695793
0.729076
0.790608
0.881323
1.00406
1.15992
1.34391
1.528
1.67742
1.81609
1.96392
2.11503
2.15686
2.14211
2.1069
2.11488
2.19802
2.37257
2.63755
3.06289
3.28565
3.28098
3.25919
3.20745
3.1152
2.99935
2.88758
2.82498
2.79144
2.75207
2.70663
2.71028
2.74771
2.83158
2.95555
3.05188
3.06231
3.01042
2.84443
2.53429
2.07293
1.51628
1.12442
0.902592
0.793304
0.761366
0.766743
0.794378
0.832479
0.854383
0.858893
0.848066
0.809026
0.738494
0.655853
0.593567
0.553871
0.533722
0.523217
0.518076
0.517989
0.51944
0.520565
0.523511
0.532253
0.549602
0.57793
0.623792
0.687438
0.775007
0.893605
1.06526
1.32194
1.68666
2.15854
2.54627
0.95482
0.941137
0.948697
1.03756
1.31121
2.11993
3.5042
3.72653
3.41009
3.38653
3.13313
2.97357
3.07367
3.15907
3.26444
3.35766
3.26276
3.02094
2.73578
2.39406
1.95776
1.46942
1.09579
0.860226
0.726169
0.662293
0.639564
0.638142
0.648031
0.677219
0.733927
0.82279
0.946829
1.1085
1.29937
1.49746
1.68714
1.87427
2.04582
2.17277
2.30395
2.45872
2.5
2.45691
2.33321
2.26225
2.27816
2.3759
2.58367
2.71521
2.76565
2.76396
2.74352
2.719
2.72274
2.73568
2.74287
2.73611
2.71327
2.69897
2.71578
2.77549
2.89304
3.03193
3.06494
3.03259
2.89877
2.60576
2.12819
1.52951
1.11706
0.919904
0.870925
0.889887
0.956263
1.04722
1.10504
1.12853
1.13068
1.11154
1.05519
0.953328
0.818682
0.700488
0.614341
0.55938
0.522886
0.503759
0.49524
0.493948
0.494469
0.495617
0.501459
0.513171
0.526945
0.547856
0.579716
0.630588
0.704979
0.817093
0.976072
1.19611
1.48189
1.83626
1.11396
1.11923
1.11648
1.1317
1.2491
1.66771
2.76659
3.59722
3.6037
3.71449
3.38027
3.2005
3.19399
3.19911
3.34604
3.42165
3.48033
3.37472
3.13727
2.82145
2.35656
1.752
1.23417
0.909168
0.727435
0.639403
0.605361
0.599122
0.605259
0.628791
0.674121
0.746324
0.8519
0.992981
1.166
1.36778
1.59369
1.80971
1.98103
2.14963
2.33841
2.56319
2.67751
2.78203
2.8483
2.82978
2.73038
2.54993
2.43287
2.38148
2.39012
2.4248
2.48734
2.57627
2.68608
2.83967
2.92353
2.90945
2.87147
2.79896
2.76585
2.78468
2.85221
2.98244
3.06053
3.04725
2.93888
2.67543
2.21795
1.58525
1.14833
1.00639
1.01373
1.09921
1.24797
1.34397
1.3819
1.39099
1.3851
1.35741
1.29504
1.1923
1.04966
0.882299
0.739913
0.64001
0.570126
0.525767
0.498116
0.487671
0.48286
0.481726
0.485356
0.49122
0.49899
0.510929
0.528053
0.553156
0.589806
0.648301
0.735647
0.857452
1.02374
1.21797
1.22267
1.31347
1.40329
1.37326
1.37877
1.55358
2.12173
3.12405
3.69347
3.97512
3.6977
3.25569
3.2649
3.21865
3.26776
3.41692
3.54713
3.57973
3.48247
3.229
2.78241
2.13106
1.44251
0.997276
0.74857
0.62823
0.58067
0.56901
0.571355
0.586881
0.620003
0.671987
0.745036
0.8407
0.960838
1.10852
1.28153
1.47143
1.67949
1.91311
2.18481
2.41914
2.61661
2.8329
3.04127
3.15494
3.1905
3.16591
3.06305
2.92198
2.8809
2.90082
2.97201
3.0739
3.18343
3.24418
3.23031
3.16914
3.0712
2.94606
2.82035
2.80205
2.82984
2.924
3.02859
3.01908
2.9307
2.71289
2.28049
1.63417
1.22712
1.14698
1.1939
1.33427
1.47217
1.53182
1.55491
1.56176
1.55894
1.53856
1.48808
1.39684
1.26021
1.08274
0.886763
0.733548
0.62859
0.558709
0.514573
0.490141
0.477092
0.470782
0.469866
0.469886
0.473467
0.480054
0.491507
0.505827
0.525909
0.556125
0.59786
0.654983
0.735594
0.829815
1.40108
1.53951
1.62937
1.61992
1.56227
1.60387
1.86727
2.51568
3.42886
3.95134
3.89827
3.4557
3.23947
3.20992
3.22938
3.31277
3.53651
3.72175
3.69909
3.53429
3.13754
2.48535
1.68028
1.10088
0.780498
0.625321
0.563026
0.544722
0.544031
0.552978
0.574708
0.610452
0.662104
0.729821
0.814293
0.915958
1.03236
1.16438
1.32121
1.51777
1.75482
2.00037
2.25802
2.55103
2.85156
3.10051
3.25564
3.37731
3.50584
3.56083
3.5952
3.62284
3.60693
3.5339
3.43402
3.33932
3.23486
3.12428
3.01125
2.89447
2.7826
2.75911
2.78306
2.86119
2.96588
2.98204
2.93143
2.73968
2.31677
1.6806
1.34233
1.31643
1.40596
1.56426
1.65204
1.68354
1.69647
1.7046
1.70467
1.69196
1.65005
1.57077
1.44503
1.27665
1.06772
0.859355
0.711321
0.609855
0.546876
0.50718
0.484601
0.471415
0.466548
0.465699
0.466171
0.467568
0.473005
0.480042
0.490039
0.50578
0.525097
0.550947
0.58667
0.627622
1.60841
1.72241
1.85031
1.84528
1.803
1.73567
1.83245
2.15244
2.86947
3.73747
3.8656
3.67711
3.35792
3.16214
3.10971
3.15231
3.38537
3.78678
3.86795
3.77275
3.41824
2.77937
1.91876
1.21035
0.816401
0.628172
0.551225
0.52647
0.523073
0.526494
0.539128
0.562844
0.597675
0.643192
0.699672
0.767073
0.844286
0.93337
1.0404
1.17146
1.32726
1.51138
1.74307
2.03786
2.39085
2.68568
2.91853
3.16829
3.44601
3.57028
3.59992
3.57796
3.46866
3.24863
3.0353
2.83829
2.66471
2.6363
2.65126
2.67535
2.66661
2.66507
2.69393
2.77455
2.89428
2.94187
2.90887
2.73449
2.33023
1.73365
1.47597
1.47835
1.5755
1.6797
1.72818
1.7552
1.77641
1.79565
1.80174
1.79708
1.76938
1.70342
1.5935
1.43939
1.23974
1.00659
0.809982
0.670667
0.581563
0.525025
0.490582
0.470669
0.463028
0.460949
0.460414
0.460859
0.464189
0.470065
0.477837
0.48834
0.498924
0.511828
0.531287
0.550266
1.78515
1.89052
1.98255
1.98651
1.96567
1.91174
1.90557
2.03465
2.40658
3.19722
3.70843
3.66793
3.4899
3.24054
3.14412
3.18484
3.41994
3.97276
4.14102
4.01021
3.63294
2.98789
2.11032
1.30098
0.845003
0.631452
0.543126
0.512484
0.506546
0.508208
0.515179
0.530345
0.553473
0.584097
0.62223
0.667547
0.719478
0.779551
0.851007
0.937419
1.04248
1.17272
1.33937
1.54563
1.80528
2.01046
2.1842
2.40605
2.58206
2.629
2.65123
2.63831
2.54631
2.361
2.2406
2.16621
2.14076
2.16119
2.23475
2.36661
2.46487
2.52778
2.59144
2.67782
2.81381
2.88321
2.86805
2.72701
2.33215
1.78679
1.61074
1.6279
1.70614
1.76644
1.79538
1.82267
1.85244
1.87495
1.88331
1.87738
1.8535
1.79962
1.70822
1.57151
1.38818
1.16277
0.920856
0.740293
0.624542
0.551989
0.508812
0.481783
0.463291
0.455749
0.45249
0.452237
0.453596
0.457589
0.463723
0.472704
0.481214
0.490439
0.504466
0.515562
1.92167
2.02006
2.03347
2.01476
1.98566
1.9552
1.95671
2.00494
2.17903
2.62003
3.29759
3.55863