/*--------------------------------*- C++ -*----------------------------------*\
| =========                 |                                                 |
| \\      /  F ield         | OpenFOAM: The Open Source CFD Toolbox           |
|  \\    /   O peration     | Version:  v1912                                 |
|   \\  /    A nd           | Website:  www.openfoam.com                      |
|    \\/     M anipulation  |                                                 |
\*---------------------------------------------------------------------------*/
FoamFile
{
    version     2.0;
    format      ascii;
    class       surfaceScalarField;
    location    "80";
    object      phi;
}
// * * * * * * * * * * * * * * * * * * * * * * * * * * * * * * * * * * * * * //

dimensions      [0 3 -1 0 0 0 0];
oriented        oriented;


internalField   nonuniform List<scalar> 
28285
(
0.123919
-0.00321783
0.124927
-0.00100736
0.123752
0.00117434
0.120267
0.00348506
0.114328
0.00593952
0.105988
0.00833952
0.095335
0.0106531
0.0825009
0.0128341
0.0677204
0.0147805
0.0513105
0.01641
0.0336252
0.0176853
0.0150551
0.0185701
-0.0039327
0.0189878
-0.0227891
0.0188564
-0.0409191
0.01813
-0.0577607
0.0168416
-0.0728131
0.0150523
-0.0856653
0.0128522
-0.096029
0.0103637
-0.103783
0.00775428
-0.108911
0.00512744
-0.111547
0.00263614
-0.111824
0.000277521
-0.110012
-0.00181236
-0.106509
-0.00350282
-0.101532
-0.00497728
-0.0953465
-0.00618546
-0.0881435
-0.00720299
-0.080126
-0.00801746
-0.0713761
-0.00874996
-0.062055
-0.00932104
-0.0521253
-0.00992968
-0.0417734
-0.0103519
-0.0308751
-0.0108983
-0.0196787
-0.0111964
-0.00811852
-0.0115602
0.00356121
-0.0116797
0.0152432
-0.011682
0.0266843
-0.0114411
0.037649
-0.0109648
0.0478446
-0.0101955
0.0570098
-0.00916527
0.0648601
-0.00785027
0.0711528
-0.00629269
0.0756637
-0.0045109
0.078235
-0.00257131
0.0787329
-0.000497866
0.077193
0.00153989
0.0735346
0.00365837
0.0678245
0.00571012
0.060174
0.00765051
0.0509218
0.00925216
0.0401997
0.0107221
0.0285008
0.0116989
0.0160261
0.0124747
0.00323861
0.0127875
-0.00954336
0.012782
-0.0219549
0.0124116
-0.0336444
0.0116895
-0.044285
0.0106406
-0.0535732
0.00928824
-0.0612241
0.00765088
-0.0669912
0.00576706
-0.0706835
0.00369231
-0.0721064
0.00142293
-0.071085
-0.0010214
-0.0676746
-0.00341038
-0.0619702
-0.00570439
-0.0541705
-0.0077997
-0.0445906
-0.00957997
-0.0336641
-0.0109264
-0.0218921
-0.011772
-0.00986162
-0.0120305
0.00186806
-0.0117297
0.0127153
-0.0108473
0.022246
-0.00953066
0.0301283
-0.00788231
0.0362077
-0.00607942
0.0405153
-0.00430757
0.0432022
-0.00268687
0.0445366
-0.00133444
0.0448399
-0.000303315
0.044439
0.000400918
0.0437324
0.000706599
0.0428457
0.000886674
0.000704837
0.0421409
0.124204
-0.0064768
0.125247
-0.00205043
0.124097
0.00232466
0.120633
0.00694832
0.114705
0.0118679
0.106364
0.0166804
0.0956981
0.0213191
0.0828313
0.025701
0.0680056
0.0296061
0.0515393
0.0328763
0.0337883
0.0354363
0.0151459
0.0372125
-0.0039233
0.038057
-0.0228654
0.0377985
-0.041078
0.0363426
-0.0579956
0.0337592
-0.073113
0.0301697
-0.0860138
0.0257531
-0.0964043
0.0207542
-0.104166
0.0155155
-0.109281
0.0102428
-0.111886
0.00524155
-0.112124
0.000515072
-0.110269
-0.00366694
-0.106725
-0.00704719
-0.10171
-0.00999242
-0.0954908
-0.0124044
-0.0882606
-0.0144331
-0.0802229
-0.0160551
-0.0714585
-0.0175144
-0.0621284
-0.0186511
-0.052192
-0.0198661
-0.0418349
-0.020709
-0.0309276
-0.0218057
-0.0197181
-0.0224059
-0.00813955
-0.0231387
0.00356463
-0.0233839
0.0152762
-0.0233936
0.0267522
-0.022917
0.0377553
-0.0219679
0.0479898
-0.02043
0.0571935
-0.0183689
0.0650812
-0.0157381
0.0714052
-0.0126166
0.0759408
-0.0090465
0.0785308
-0.00516137
0.0790535
-0.00102049
0.0775033
0.00309002
0.0738337
0.007328
0.0681023
0.0114415
0.0604221
0.0153308
0.0511314
0.0185429
0.0403643
0.0214892
0.0286162
0.023447
0.0160897
0.0250011
0.00324947
0.0256278
-0.00958489
0.0256163
-0.0220482
0.0248748
-0.0337865
0.0234278
-0.0444734
0.0213275
-0.0538044
0.0186192
-0.0614925
0.015339
-0.0672905
0.0115651
-0.0710058
0.00740761
-0.0724433
0.00286041
-0.0714242
-0.00204045
-0.068002
-0.00683267
-0.0622699
-0.0114364
-0.0544262
-0.0156435
-0.0447849
-0.0192212
-0.0337839
-0.0219274
-0.0219289
-0.023627
-0.00981757
-0.0241419
0.00198605
-0.0235333
0.0128968
-0.021758
0.0224732
-0.0191071
0.0303777
-0.0157868
0.0364531
-0.0121548
0.0407355
-0.00858993
0.0433981
-0.00534951
0.0447491
-0.00268538
0.0451463
-0.000700525
0.0449748
0.000572384
0.0444844
0.00119702
0.0436643
0.00170681
0.00226909
0.0421
0.124857
-0.00981774
0.125946
-0.0031387
0.124808
0.00346213
0.121352
0.0104047
0.115405
0.0178149
0.107022
0.0250629
0.0963084
0.0320331
0.0833856
0.0386237
0.0684725
0.0445193
0.0519018
0.049447
0.0340342
0.0533039
0.0152632
0.0559835
-0.00395026
0.0572704
-0.02305
0.0568983
-0.0414236
0.0547161
-0.0584908
0.0508264
-0.0737302
0.0454092
-0.0867173
0.0387402
-0.0971494
0.0311862
-0.104916
0.0232819
-0.110003
0.0153295
-0.112542
0.00778132
-0.112705
0.000677879
-0.110768
-0.00560372
-0.107143
-0.0106723
-0.102055
-0.0150809
-0.0957708
-0.0186883
-0.0884879
-0.021716
-0.0804112
-0.0241318
-0.0716185
-0.0263071
-0.0622707
-0.0279989
-0.0523207
-0.0298161
-0.0419519
-0.0310778
-0.0310249
-0.0327327
-0.0197911
-0.0336396
-0.00817579
-0.034754
0.00357851
-0.0351382
0.0153501
-0.0351652
0.026896
-0.0344629
0.0379753
-0.0330472
0.0482889
-0.0307436
0.0575712
-0.0276512
0.0655292
-0.0236961
0.0719165
-0.0190039
0.076502
-0.0136319
0.0791246
-0.00778401
0.0796369
-0.00153277
0.078099
0.00462793
0.0744134
0.0110136
0.0686402
0.0172146
0.0608979
0.0230731
0.0515302
0.0279105
0.0406713
0.0323481
0.0288257
0.0352926
0.0161963
0.0376306
0.00325261
0.0385715
-0.00968354
0.0385525
-0.0222467
0.037438
-0.0340796
0.0352607
-0.0448575
0.0321054
-0.0542718
0.0280335
-0.0620318
0.023099
-0.0678889
0.0174222
-0.0716485
0.0111672
-0.0731187
0.00433057
-0.0721011
-0.00305804
-0.0686523
-0.0102815
-0.062863
-0.0172257
-0.0549298
-0.0235767
-0.0451683
-0.0289827
-0.0340245
-0.0330712
-0.022008
-0.0356435
-0.00973126
-0.0364186
0.00222756
-0.0354921
0.0132683
-0.0327988
0.0229377
-0.0287765
0.0308888
-0.023738
0.0369621
-0.0182281
0.0411995
-0.0128273
0.0437767
-0.00792678
0.0450134
-0.00392203
0.0452894
-0.00097654
0.0449443
0.000917448
0.0442612
0.00188018
0.0434875
0.00248047
0.00296361
0.042793
0.125786
-0.0132725
0.126967
-0.00432018
0.125877
0.00455267
0.122454
0.0138276
0.116498
0.0237702
0.108071
0.0334902
0.0972763
0.042828
0.0842251
0.0516748
0.0691792
0.0595653
0.0524568
0.0661694
0.0344114
0.0713493
0.0154405
0.0749543
-0.0039966
0.0767075
-0.0233406
0.0762423
-0.0419618
0.0733374
-0.059252
0.0681166
-0.0746742
0.0608314
-0.0877913
0.0518574
-0.0982873
0.0416822
-0.106061
0.0310559
-0.111106
0.0203745
-0.113537
0.0102117
-0.113588
0.000729576
-0.111529
-0.0076631
-0.107782
-0.0144195
-0.102582
-0.0202805
-0.0962001
-0.0250705
-0.0888376
-0.0290785
-0.0807015
-0.0322679
-0.0718675
-0.0351411
-0.0624937
-0.0373727
-0.052524
-0.0397858
-0.0421389
-0.0414629
-0.031186
-0.0436856
-0.0199129
-0.0449127
-0.00824245
-0.0464245
0.00358671
-0.0469674
0.0154478
-0.0470262
0.0270998
-0.046115
0.0382961
-0.0442435
0.0487286
-0.0411761
0.0581273
-0.03705
0.0661986
-0.0317674
0.0726806
-0.0254859
0.0773401
-0.0182915
0.0800178
-0.0104617
0.0805791
-0.00209402
0.0790167
0.0061903
0.0752966
0.0147336
0.0694566
0.0230547
0.0616181
0.0309116
0.0521304
0.0373982
0.0411292
0.0433493
0.0291346
0.0472872
0.016347
0.0504182
0.00324451
0.0516739
-0.00984242
0.0516394
-0.022556
0.0501515
-0.0345303
0.0472351
-0.0454429
0.043018
-0.0549811
0.0375717
-0.0628492
0.0309671
-0.0687964
0.0233694
-0.0726231
0.0149939
-0.0741393
0.00584678
-0.0731279
-0.00406945
-0.0696434
-0.0137659
-0.0637715
-0.0230976
-0.0557052
-0.0316431
-0.0457616
-0.0389263
-0.034394
-0.0444388
-0.0221244
-0.0479131
-0.00959672
-0.0489463
0.00259375
-0.0476826
0.0138288
-0.0440339
0.0236384
-0.0385861
0.0316594
-0.031759
0.0377296
-0.0242983
0.0419002
-0.0169979
0.0443673
-0.0103939
0.045474
-0.00502877
0.0456142
-0.00111674
0.0451769
0.00135475
0.0444771
0.00258
0.0437321
0.00322555
0.0037816
0.0429141
0.127062
-0.016886
0.128343
-0.00560134
0.127291
0.00560488
0.123894
0.0172242
0.117914
0.0297501
0.109419
0.0419853
0.0985234
0.0537236
0.085332
0.0648662
0.0701139
0.0747834
0.0531898
0.0830935
0.0349131
0.089626
0.0156784
0.094189
-0.00405155
0.0964375
-0.0237173
0.095908
-0.0426704
0.0922905
-0.0602634
0.0857096
-0.0759341
0.0765021
-0.0892283
0.0651516
-0.0998114
0.0522653
-0.107593
0.0388371
-0.112584
0.0253654
-0.114854
0.0124823
-0.11477
0.000645429
-0.112541
-0.00989235
-0.108629
-0.0183309
-0.103281
-0.0256288
-0.0967667
-0.0315849
-0.0892973
-0.0365479
-0.0810822
-0.040483
-0.0721926
-0.0440308
-0.062784
-0.0467813
-0.0527892
-0.0497805
-0.0423832
-0.0518689
-0.0313968
-0.054672
-0.0200729
-0.0562366
-0.0083312
-0.0581663
0.00359945
-0.058898
0.0155823
-0.059009
0.0273768
-0.0579095
0.0387286
-0.0555953
0.0493214
-0.0517689
0.0588796
-0.0466082
0.0670958
-0.0399836
0.0737049
-0.0320949
0.078466
-0.0230526
0.0812131
-0.0132088
0.0817938
-0.00267479
0.0802384
0.00774572
0.0764807
0.0184914
0.0705537
0.0289817
0.0625874
0.0388779
0.0529397
0.047046
0.0417491
0.0545399
0.0295534
0.0594829
0.0165542
0.0634173
0.00324179
0.0649864
-0.01005
0.0649312
-0.0229637
0.0630653
-0.0351261
0.0593974
-0.0462188
0.0541107
-0.0559241
0.047277
-0.0639383
0.0389812
-0.0700078
0.0294388
-0.0739221
0.0189082
-0.0755046
0.0074293
-0.0744982
-0.00507585
-0.070962
-0.0173021
-0.0649767
-0.0290829
-0.0567318
-0.039888
-0.0465427
-0.0491153
-0.0348783
-0.0561032
-0.0222765
-0.0605149
-0.00941539
-0.0618074
0.00308727
-0.0601852
0.0145862
-0.0555328
0.0245854
-0.0485853
0.0327014
-0.039875
0.038764
-0.0303608
0.0428395
-0.0210735
0.0451458
-0.0127002
0.046046
-0.00592898
0.0459862
-0.00105695
0.0453514
0.00198959
0.0445057
0.00342568
0.0437307
0.00400058
0.00435835
0.0431539
0.128643
-0.0206935
0.130073
-0.00703127
0.129083
0.00659459
0.125727
0.0205802
0.119718
0.0357598
0.111131
0.0505724
0.100092
0.0647622
0.0867179
0.0782402
0.0712826
0.0902187
0.054108
0.100268
0.0355426
0.108191
0.0159781
0.113754
-0.0041212
0.116537
-0.0241924
0.115979
-0.0435662
0.111664
-0.0615459
0.103689
-0.0775327
0.0924888
-0.0910505
0.0786694
-0.101744
0.0629589
-0.109532
0.0466247
-0.114447
0.0302807
-0.116506
0.0145418
-0.116238
0.00037648
-0.113806
-0.0123241
-0.109687
-0.02245
-0.10415
-0.0311651
-0.0974699
-0.0382652
-0.0898669
-0.0441509
-0.0815537
-0.0487963
-0.0725964
-0.0529881
-0.0631476
-0.05623
-0.0531261
-0.0598021
-0.0426963
-0.0622988
-0.0316714
-0.0656969
-0.020285
-0.067623
-0.00845452
-0.0699967
0.00360403
-0.0709566
0.0157391
-0.0711441
0.0277146
-0.069885
0.039264
-0.0671447
0.0500578
-0.0625627
0.0598142
-0.0563645
0.0682184
-0.0483878
0.0749884
-0.0388649
0.0798766
-0.0279407
0.082714
-0.0160462
0.08334
-0.00330079
0.0817729
0.00931276
0.0779645
0.0222998
0.0719282
0.0350179
0.0638004
0.0470056
0.0539484
0.056898
0.0425184
0.0659699
0.0300696
0.0719317
0.0168058
0.0766811
0.00322829
0.0785639
-0.0103183
0.0784778
-0.0234841
0.0762311
-0.0358823
0.0717957
-0.0472
0.0654284
-0.0571142
0.0571912
-0.0653127
0.0471798
-0.0715365
0.0356625
-0.0755676
0.0229393
-0.0772322
0.00909397
-0.0762382
-0.00606984
-0.0726448
-0.0208956
-0.0665224
-0.0352052
-0.0580535
-0.0483569
-0.047556
-0.0596128
-0.0355143
-0.068145
-0.0224808
-0.0735484
-0.00918514
-0.075103
0.00371936
-0.0730897
0.015554
-0.0673675
0.0257936
-0.0588249
0.0340301
-0.0481114
0.0400816
-0.0364123
0.0440319
-0.0250238
0.0461259
-0.0147942
0.0467727
-0.00657578
0.0464574
-0.000741588
0.0455958
0.00285115
0.0446214
0.00440009
0.0438091
0.00481293
0.00492418
0.0432432
0.130573
-0.0247409
0.132166
-0.00862425
0.13124
0.00752123
0.127925
0.0238947
0.121877
0.0418078
0.113181
0.0592682
0.101975
0.0759684
0.0883846
0.0918306
0.0726884
0.105915
0.0552158
0.117741
0.0363091
0.127098
0.0163532
0.133709
-0.00419445
0.137084
-0.0247577
0.136542
-0.0446439
0.13155
-0.0630995
0.122145
-0.0794756
0.108865
-0.0932692
0.0924629
-0.104099
0.0737889
-0.111889
0.0544145
-0.116704
0.0350959
-0.118506
0.016344
-0.118014
-0.000115914
-0.115326
-0.0150124
-0.110952
-0.026824
-0.105186
-0.0369309
-0.0983026
-0.0451485
-0.090537
-0.0519165
-0.0821046
-0.0572286
-0.0730684
-0.0620244
-0.0635737
-0.0657247
-0.053524
-0.0698517
-0.0430689
-0.0727539
-0.032003
-0.0767628
-0.020543
-0.079083
-0.00860636
-0.0819333
0.00360451
-0.0831675
0.0159251
-0.0834647
0.0281202
-0.0820801
0.0399089
-0.0789334
0.0509484
-0.0736022
0.0609467
-0.0663629
0.0695751
-0.0570162
0.0765413
-0.0458311
0.0815848
-0.0329842
0.0845314
-0.0189928
0.0852096
-0.00397907
0.0836341
0.0108883
0.0797659
0.026168
0.0735976
0.0411862
0.0652739
0.0553294
0.0551745
0.0669974
0.0434556
0.0776888
0.0306988
0.0846885
0.0171135
0.0902665
0.00321549
0.0924619
-0.0106373
0.0923306
-0.0241036
0.0896974
-0.0367845
0.0844766
-0.0483748
0.0770187
-0.0585405
0.0673569
-0.0669605
0.0555999
-0.0733764
0.0420784
-0.0775468
0.0271096
-0.0793169
0.0108641
-0.0783364
-0.00705039
-0.0746702
-0.0245618
-0.0683798
-0.0414956
-0.0596419
-0.0570949
-0.0487726
-0.070482
-0.0362691
-0.0806485
-0.0227086
-0.0871089
-0.00888658
-0.088925
0.00450422
-0.0864805
0.0167475
-0.0796107
0.0272785
-0.0693559
0.0356633
-0.0564963
0.0416965
-0.0424455
0.0454867
-0.028814
0.0473157
-0.0166232
0.0476517
-0.00691174
0.047001
-9.08398e-05
0.0458518
0.0040003
0.0446827
0.00556926
0.0437818
0.00571373
0.00542649
0.0432795
0.132837
-0.0290686
0.134637
-0.0104247
0.133791
0.00836694
0.130525
0.0271613
0.124426
0.047906
0.115593
0.0681017
0.104181
0.0873806
0.0903312
0.10568
0.0743288
0.121917
0.0565095
0.13556
0.0372071
0.146401
0.016796
0.15412
-0.00427335
0.158154
-0.0254161
0.157685
-0.0459131
0.152047
-0.0649385
0.14117
-0.0817796
0.125706
-0.0959015
0.106585
-0.106895
0.0847828
-0.114685
0.0622039
-0.119364
0.0397749
-0.12085
0.0178306
-0.120077
-0.000889273
-0.117099
-0.0179908
-0.112421
-0.0315022
-0.106383
-0.0429688
-0.0992604
-0.0522707
-0.0913041
-0.0598729
-0.0827331
-0.0657996
-0.0736088
-0.0711487
-0.0640634
-0.0752701
-0.0539878
-0.0799273
-0.0435081
-0.0832336
-0.0324037
-0.0878672
-0.0208593
-0.0906274
-0.00880108
-0.0939915
0.00359081
-0.0955593
0.0161307
-0.0960046
0.0285868
-0.0945362
0.0406586
-0.0910052
0.0519886
-0.0849322
0.0622709
-0.0766452
0.0711666
-0.0659119
0.0783644
-0.0530289
0.083591
-0.0382108
0.0866679
-0.0220697
0.0874091
-0.00472026
0.085823
0.0124745
0.0818836
0.0301074
0.0755643
0.0475056
0.0670115
0.0638822
0.0566152
0.0773937
0.0445542
0.0897498
0.0314324
0.0978103
0.0174711
0.104228
0.00319887
0.106734
-0.011013
0.106542
-0.0248322
0.103517
-0.0378461
0.0974905
-0.0497589
0.0889315
-0.0602262
0.0778241
-0.0689099
0.0642836
-0.0755489
0.0487174
-0.0798842
0.0314449
-0.0817855
0.0127654
-0.0808323
-0.00800361
-0.0770871
-0.028307
-0.0706046
-0.0479781
-0.0615547
-0.0661448
-0.0502424
-0.0817944
-0.0371814
-0.0937096
-0.0229871
-0.101303
-0.00852828
-0.103384
0.00545065
-0.100459
0.0181848
-0.0923449
0.029061
-0.0802321
0.0376248
-0.0650601
0.043632
-0.0484527
0.0472254
-0.0324074
0.0487287
-0.0181265
0.0486814
-0.00686446
0.0476177
0.000972892
0.0461352
0.00548271
0.0447372
0.00696728
0.0437397
0.00671122
0.00590038
0.0432658
0.135465
-0.0337267
0.137501
-0.0124607
0.136743
0.00912488
0.133525
0.0303799
0.127366
0.0540644
0.118374
0.0770937
0.106726
0.0990287
0.0925835
0.119823
0.076231
0.13827
0.0580185
0.153772
0.03827
0.166149
0.0173361
0.175054
-0.00433965
0.17983
-0.0261628
0.179508
-0.0473765
0.173261
-0.0670789
0.160873
-0.0844713
0.143098
-0.0989785
0.121092
-0.110164
0.0959685
-0.117943
0.0699825
-0.122432
0.0442637
-0.123573
0.018972
-0.122455
-0.00200695
-0.119134
-0.0213117
-0.114101
-0.0365356
-0.107745
-0.0493248
-0.100345
-0.0596705
-0.092168
-0.0680499
-0.0834356
-0.0745321
-0.0742117
-0.0803725
-0.0646128
-0.084869
-0.0545174
-0.0900227
-0.0440141
-0.0937369
-0.0328713
-0.09901
-0.0212351
-0.102264
-0.00903996
-0.106187
0.00355968
-0.108159
0.0163536
-0.108799
0.0291128
-0.107295
0.0415132
-0.103406
0.0531809
-0.0965999
0.0637948
-0.0872591
0.0729969
-0.075114
0.0804657
-0.0604978
0.0859082
-0.0436533
0.0891343
-0.0252958
0.089949
-0.0055349
0.0883489
0.0140745
0.0843318
0.0341245
0.0778389
0.0539985
0.0690159
0.0727051
0.0582776
0.0881321
0.0458238
0.102204
0.0322829
0.111351
0.0178886
0.118622
0.00318075
0.121442
-0.0114535
0.121177
-0.0256854
0.117748
-0.0390815
0.110887
-0.0513627
0.101213
-0.0621699
0.0886313
-0.071148
0.0732617
-0.0780507
0.0556201
-0.0825741
0.0359683
-0.0846287
0.0148201
-0.0837115
-0.00892084
-0.0798814
-0.0321371
-0.0731808
-0.0546786
-0.0637618
-0.0755638
-0.0519334
-0.0936228
-0.0382285
-0.107415
-0.023289
-0.116243
-0.00808231
-0.118591
0.00658524
-0.115127
0.0198969
-0.105657
0.0311675
-0.0915027
0.0399461
-0.0738387
0.045914
-0.0544206
0.0492588
-0.0357522
0.0503855
-0.0192532
0.0498547
-0.00633361
0.0482964
0.00253115
0.0464179
0.00736118
0.0447514
0.0086338
0.0436274
0.00783521
0.00635192
0.0431759
0.138458
-0.0387611
0.140765
-0.0147675
0.14011
0.00978047
0.136941
0.0335481
0.130711
0.060295
0.121526
0.0862789
0.109591
0.110963
0.0950962
0.134318
0.078343
0.155023
0.0596902
0.172425
0.0394468
0.186392
0.0179414
0.19656
-0.0044048
0.202176
-0.0269945
0.202098
-0.0490372
0.195304
-0.0695225
0.181358
-0.087555
0.161131
-0.102512
0.136049
-0.113924
0.107381
-0.121703
0.0777615
-0.125896
0.048456
-0.126681
0.0197575
-0.125143
-0.00354515
-0.121437
-0.0250179
-0.115996
-0.041976
-0.109277
-0.056044
-0.101562
-0.0673856
-0.0931319
-0.0764801
-0.0842141
-0.0834499
-0.0748843
-0.0897023
-0.0652244
-0.0945289
-0.0551189
-0.100128
-0.0445931
-0.104263
-0.0334191
-0.110184
-0.0216797
-0.114003
-0.00933166
-0.118535
0.00350451
-0.120995
0.016588
-0.121882
0.0296935
-0.120401
0.0424688
-0.116181
0.0545232
-0.108654
0.0655126
-0.0982485
0.075075
-0.0846764
0.0828511
-0.0682738
0.0885421
-0.0493444
0.0919396
-0.0286933
0.0928474
-0.0064427
0.0912375
0.0156844
0.0871226
0.0382394
0.0804356
0.0606855
0.0713195
0.0818212
0.0601893
0.0992623
0.0472867
0.115106
0.0332502
0.125388
0.0183516
0.133521
0.00314855
0.136645
-0.0119625
0.136288
-0.0266561
0.132442
-0.0404839
0.124714
-0.0531821
0.113911
-0.0643808
0.0998301
-0.0736995
0.0825804
-0.0808999
0.0628204
-0.0856395
0.040708
-0.0878704
0.0170509
-0.0870094
-0.00978182
-0.0830851
-0.0360613
-0.0761381
-0.0616256
-0.0663076
-0.0853943
-0.0538937
-0.106037
-0.0394415
-0.121867
-0.0236365
-0.132048
-0.00755538
-0.134672
0.00792066
-0.130603
0.0219095
-0.119645
0.0336184
-0.103212
0.0426526
-0.0828729
0.0485667
-0.0603347
0.0516163
-0.0388017
0.0522937
-0.0199306
0.0511481
-0.00518803
0.0490334
0.00464586
0.0467073
0.0096873
0.0447117
0.0106293
0.0434327
0.00911422
0.00677646
0.0430082
0.141846
-0.0442272
0.144468
-0.0173891
0.14394
0.010308
0.140818
0.0366699
0.134498
0.0666153
0.125098
0.0956794
0.112855
0.123206
0.0979905
0.149182
0.0808034
0.17221
0.061669
0.19156
0.040879
0.207182
0.0187254
0.218713
-0.00441196
0.225313
-0.0279003
0.225586
-0.0509044
0.218308
-0.072319
0.202773
-0.0911025
0.179914
-0.106564
0.151511
-0.118228
0.119044
-0.126004
0.0855384
-0.129734
0.0521856
-0.130233
0.0202563
-0.12818
-0.00559847
-0.124017
-0.0291804
-0.118124
-0.0478688
-0.111
-0.0631678
-0.102935
-0.0754511
-0.0942231
-0.0851919
-0.0850909
-0.0925821
-0.0756469
-0.0991464
-0.0659196
-0.104256
-0.05582
-0.110228
-0.0452711
-0.114812
-0.0340743
-0.121381
-0.0222261
-0.125851
-0.00970598
-0.131055
0.00339684
-0.134098
0.0168064
-0.135292
0.0303046
-0.133899
0.0435061
-0.129382
0.0560053
-0.121153
0.0674293
-0.109672
0.0773756
-0.0946227
0.0855083
-0.0764066
0.0914852
-0.0553213
0.0950838
-0.0322918
0.0960832
-0.00744216
0.0944514
0.0173163
0.0902506
0.0424402
0.0833613
0.0675748
0.0738998
0.0912827
0.0623258
0.110836
0.0488986
0.128533
0.034295
0.139991
0.0188225
0.148993
0.00305891
0.152409
-0.0125741
0.151921
-0.0277785
0.147646
-0.0420804
0.139016
-0.0552395
0.12707
-0.066866
0.111457
-0.0765529
0.0922672
-0.0840996
0.0703672
-0.089076
0.0456844
-0.0914952
0.01947
-0.0907115
-0.0105655
-0.0866957
-0.040077
-0.0794859
-0.0688354
-0.0692
-0.0956802
-0.0561395
-0.119097
-0.0408515
-0.137155
-0.0240408
-0.148858
-0.00693162
-0.151781
0.00946685
-0.147002
0.0242628
-0.134441
0.0364774
-0.115426
0.0457904
-0.0921859
0.0516289
-0.0661732
0.054344
-0.0415168
0.0544086
-0.0199951
0.0525726
-0.00335211
0.0498224
0.00739614
0.0469518
0.0125579
0.0445956
0.0129855
0.0431596
0.0105502
0.00719816
0.042738
0.145637
-0.0501772
0.148603
-0.0203546
0.148206
0.0107047
0.145109
0.0397669
0.138693
0.073031
0.12903
0.105343
0.116391
0.135845
0.101048
0.164525
0.0833357
0.189922
0.063657
0.211238
0.0422877
0.228552
0.019467
0.241534
-0.00446368
0.249244
-0.0289156
0.250038
-0.0529872
0.24238
-0.0754225
0.225208
-0.0950574
0.199549
-0.111107
0.16756
-0.123043
0.13098
-0.130844
0.0933391
-0.134013
0.0553548
-0.134166
0.0204095
-0.131509
-0.00825549
-0.126833
-0.0338568
-0.120446
-0.0542554
-0.112882
-0.0707314
-0.104445
-0.0838887
-0.0954311
-0.0942055
-0.0860585
-0.101955
-0.0764995
-0.108705
-0.0666978
-0.114058
-0.0566216
-0.120304
-0.0460568
-0.125376
-0.0348459
-0.132592
-0.0228827
-0.137814
-0.0101739
-0.143764
0.00323093
-0.147503
0.0170084
-0.149069
0.0309471
-0.147838
0.0446317
-0.143067
0.0576311
-0.134153
0.069536
-0.121577
0.0799621
-0.105049
0.0884881
-0.0849326
0.0947976
-0.0616309
0.0986041
-0.0360983
0.0997511
-0.00858917
0.0981049
0.0189625
0.0937796
0.0467654
0.086661
0.0746934
0.0768223
0.101121
0.0647088
0.12295
0.0507078
0.142534
0.0354455
0.155254
0.0193478
0.165091
0.00298486
0.168771
-0.0132361
0.168142
-0.0289851
0.163396
-0.0438086
0.15384
-0.0574775
0.140739
-0.0695859
0.123565
-0.0796862
0.102368
-0.0876137
0.0782948
-0.0928663
0.050937
-0.0954883
0.022092
-0.0948357
-0.0112181
-0.0907117
-0.0442011
-0.083216
-0.0763311
-0.0724495
-0.106447
-0.0586886
-0.132858
-0.0424681
-0.153375
-0.0245141
-0.166812
-0.00621266
-0.170082
0.0112359
-0.16445
0.0269685
-0.150174
0.0397735
-0.128231
0.0493657
-0.101778
0.0551286
-0.071936
0.0574374
-0.0438257
0.0567675
-0.0193252
0.0541463
-0.000730983
0.0506234
0.0109191
0.0471508
0.0160304
0.0443828
0.0157535
0.042763
0.01217
0.00763069
0.0423305
0.149861
-0.056672
0.153222
-0.0237151
0.153031
0.010896
0.149965
0.0428325
0.143422
0.0795743
0.133454
0.115311
0.120404
0.148895
0.104614
0.180316
0.0864332
0.208103
0.0662711
0.2314
0.0443067
0.250516
0.0206931
0.265148
-0.00422447
0.274161
-0.0298464
0.27566
-0.0552258
0.267759
-0.0789342
0.248916
-0.0995729
0.220188
-0.116246
0.184233
-0.128454
0.143189
-0.136118
0.101003
-0.138785
0.0580219
-0.138433
0.0200574
-0.135085
-0.0116031
-0.129771
-0.0391711
-0.12282
-0.061206
-0.114754
-0.0787976
-0.105904
-0.0927389
-0.0965717
-0.103538
-0.086951
-0.111575
-0.07729
-0.118367
-0.0674398
-0.123908
-0.0574296
-0.130314
-0.0468868
-0.135919
-0.0357179
-0.143761
-0.023678
-0.149854
-0.0107939
-0.156648
0.00291394
-0.161211
0.0170834
-0.163238
0.0315028
-0.162257
0.0457204
-0.157285
0.0592983
-0.147731
0.0717936
-0.134073
0.0827338
-0.115989
0.0917302
-0.0939289
0.0984302
-0.0683309
0.102506
-0.0401735
0.103798
-0.00988129
0.102152
0.0206081
0.0977577
0.0511597
0.0903757
0.0820755
0.0800521
0.111445
0.0673457
0.135656
0.0526356
0.157244
0.0366918
0.171197
0.0198647
0.181918
0.00279377
0.185842
-0.0140003
0.184936
-0.0303432
0.179738
-0.0457143
0.169211
-0.0598986
0.154923
-0.0724972
0.136164
-0.0830265
0.112897
-0.091388
0.0866563
-0.0969265
0.0564755
-0.099742
0.0249076
-0.0992953
-0.0116649
-0.0950747
-0.0484216
-0.0872594
-0.0841464
-0.0759371
-0.117769
-0.0614352
-0.14736
-0.0442546
-0.170556
-0.0251013
-0.185966
-0.00547577
-0.189708
0.0132003
-0.183126
0.0300499
-0.167024
0.043606
-0.141787
0.0534399
-0.111612
0.0590902
-0.0775863
0.0608474
-0.0455829
0.0593836
-0.0178613
0.0558374
0.00281522
0.0514668
0.0152897
0.0472709
0.0202264
0.044017
0.0190073
0.042206
0.0139809
0.00808307
0.0417536
0.154553
-0.0637829
0.158329
-0.0274916
0.158352
0.0108729
0.155229
0.0459555
0.148582
0.0862213
0.138295
0.125598
0.124798
0.162392
0.10843
0.196683
0.0895937
0.226939
0.0686677
0.252326
0.0458725
0.273311
0.0214411
0.289579
-0.00448179
0.300084
-0.0312654
0.302444
-0.0578126
0.294306
-0.0827309
0.273835
-0.104454
0.241911
-0.121815
0.201593
-0.134343
0.155717
-0.141405
0.108065
-0.143873
0.0604903
-0.142842
0.0190264
-0.138596
-0.0158497
-0.132547
-0.04522
-0.124966
-0.0687869
-0.116349
-0.0874146
-0.107042
-0.102046
-0.0973698
-0.11321
-0.08751
-0.121435
-0.0777349
-0.128142
-0.0678334
-0.133809
-0.0578969
-0.140251
-0.0474106
-0.146405
-0.0363291
-0.154842
-0.0242745
-0.161909
-0.0112917
-0.169631
0.00267298
-0.175175
0.0171933
-0.177759
0.0320449
-0.177109
0.0467651
-0.172005
0.0608902
-0.161856
0.0739279
-0.14711
0.0854375
-0.127499
0.0949489
-0.10344
0.102109
-0.0754907
0.106472
-0.0445369
0.107954
-0.0113636
0.106333
0.0222299
0.10179
0.0557021
0.0941446
0.089721
0.0833699
0.12222
0.0700564
0.14897
0.0547327
0.172568
0.0379087
0.188021
0.0204132
0.199414
0.00277404
0.203481
-0.0147165
0.202426
-0.0315738
0.196596
-0.0474435
0.185081
-0.0621057
0.169585
-0.0751264
0.149184
-0.0859732
0.123744
-0.0946431
0.0953263
-0.100395
0.0622269
-0.103351
0.0278637
-0.103156
-0.0118594
-0.098983
-0.0525947
-0.0910237
-0.0921057
-0.0793042
-0.129489
-0.0640863
-0.162578
-0.0459231
-0.188719
-0.0256987
-0.20619
-0.0045268
-0.21088
0.0155426
-0.203196
0.0335001
-0.184981
0.0479006
-0.156188
0.057743
-0.121455
0.0635343
-0.0833775
0.0646162
-0.0466648
0.0622322
-0.0154773
0.0576436
0.00740376
0.0522703
0.020663
0.0473143
0.0251824
0.043524
0.0227976
0.0414414
0.0160636
0.00856205
0.0409624
0.0559022
-0.0664469
0.0573354
-0.0289248
0.0574021
0.0108062
0.0562925
0.0470652
0.0539166
0.0885972
0.0501931
0.129321
0.0452813
0.167304
0.0393337
0.202631
0.0324944
0.233779
0.0248983
0.259922
0.0166869
0.281523
0.00791154
0.298354
-0.00140081
0.309397
-0.0111236
0.312167
-0.0209601
0.304143
-0.0302401
0.283115
-0.0382462
0.249918
-0.0445771
0.207924
-0.0490692
0.160209
-0.0513309
0.110327
-0.052105
0.0612644
-0.0514636
0.018385
-0.0497455
-0.0175679
-0.0474186
-0.0475469
-0.0445763
-0.0716292
-0.0413939
-0.0905969
-0.0380016
-0.105438
-0.0345103
-0.116701
-0.0309878
-0.124958
-0.0275068
-0.131623
-0.0240062
-0.13731
-0.0204922
-0.143765
-0.0167833
-0.150114
-0.0128617
-0.158764
-0.00856792
-0.166203
-0.00392348
-0.174275
0.00108898
-0.180188
0.00633263
-0.183002
0.0117018
-0.182478
0.0170229
-0.177326
0.0221338
-0.166967
0.0268616
-0.151838
0.0310468
-0.131684
0.0345189
-0.106912
0.0371582
-0.07813
0.0387726
-0.0461513
0.039362
-0.0119529
0.0387925
0.0227993
0.0371708
0.0573239
0.0344135
0.0924783
0.030511
0.126122
0.0256262
0.153854
0.0199809
0.178213
0.0138679
0.194135
0.007473
0.205808
0.00103041
0.209924
-0.00525675
0.208713
-0.0113481
0.202687
-0.0170821
0.190815
-0.0223325
0.174836
-0.0269638
0.153816
-0.030851
0.127631
-0.0339336
0.0984089
-0.0359731
0.0642664
-0.0370672
0.0289577
-0.0370114
-0.0119152
-0.0355705
-0.0540356
-0.0327593
-0.0949168
-0.0285555
-0.133692
-0.0230614
-0.168072
-0.016485
-0.195296
-0.00914591
-0.213529
-0.00132466
-0.218701
0.00605871
-0.210579
0.0126247
-0.191547
0.018203
-0.161766
0.0217651
-0.125017
0.0237042
-0.0853166
0.0239276
-0.0468882
0.0228156
-0.0143653
0.0208921
0.00932723
0.0187076
0.0228475
0.0167356
0.0271544
0.015248
0.0242851
0.0144492
0.0168624
0.0087328
0.0142785
0.0565769
-0.0692036
0.0580768
-0.0304247
0.0581803
0.0107027
0.057038
0.0482075
0.0546367
0.0909984
0.0508568
0.133101
0.0458645
0.172296
0.0398145
0.208681
0.0328494
0.240744
0.0252018
0.26757
0.0170235
0.289701
0.00825238
0.307126
-0.00117967
0.318829
-0.0112107
0.322198
-0.0212811
0.314213
-0.0307145
0.292548
-0.0388579
0.258061
-0.0452183
0.214284
-0.0497765
0.164767
-0.0519114
0.112462
-0.0525175
0.0618705
-0.0517258
0.0175933
-0.049894
-0.0193996
-0.0474699
-0.0499711
-0.0445757
-0.0745234
-0.0413531
-0.0938195
-0.037927
-0.108864
-0.0344105
-0.120218
-0.0308648
-0.128503
-0.0273746
-0.135113
-0.0238919
-0.140793
-0.020433
-0.147224
-0.0167627
-0.153785
-0.0128764
-0.16265
-0.00857781
-0.170501
-0.0039052
-0.178948
0.0011637
-0.185257
0.0064833
-0.188322
0.0119371
-0.187932
0.0173452
-0.182734
0.0225345
-0.172156
0.0273362
-0.15664
0.0315785
-0.135926
0.0351105
-0.110444
0.0378046
-0.0808242
0.0394502
-0.0477968
0.0400492
-0.012552
0.0394799
0.0233687
0.0378302
0.0589736
0.0350082
0.0953002
0.0310075
0.130123
0.0260253
0.158837
0.0203124
0.183926
0.0141097
0.200337
0.00765984
0.212258
0.00115086
0.216433
-0.00524264
0.215107
-0.0113885
0.208833
-0.0171526
0.196579
-0.0224034
0.180086
-0.026994
0.158406
-0.0308313
0.131468
-0.0338915
0.101469
-0.0359399
0.0663147
-0.0370608
0.0300786
-0.0370052
-0.0119709
-0.0355861
-0.0554547
-0.0327836
-0.0977194
-0.0285609
-0.137915
-0.0229742
-0.173659
-0.0164775
-0.201792
-0.00905678
-0.22095
-0.00108613
-0.226671
0.00659308
-0.218258
0.0133022
-0.198256
0.0188506
-0.167314
0.0225467
-0.128713
0.0243845
-0.0871545
0.0245002
-0.0470039
0.0232287
-0.0130939
0.0211297
0.0114263
0.018787
0.0251902
0.0166998
0.0292416
0.0151669
0.0258181
0.014358
0.0176712
0.00891538
0.0141755
0.0572781
-0.0720544
0.0588402
-0.0319868
0.058978
0.0105649
0.0578346
0.0493509
0.0554154
0.0934177
0.0515706
0.136946
0.0464766
0.17739
0.0403009
0.214857
0.0332806
0.247764
0.0256957
0.275155
0.017506
0.297891
0.00852079
0.316111
-0.00130198
0.328651
-0.0115393
0.332435
-0.0216717
0.324346
-0.0312469
0.302123
-0.0396211
0.266435
-0.0461079
0.220771
-0.0505963
0.169255
-0.0526472
0.114513
-0.0530577
0.062281
-0.052063
0.0165986
-0.0499224
-0.0215402
-0.0473192
-0.0525742
-0.0443286
-0.0775141
-0.0410656
-0.0970824
-0.0376242
-0.112306
-0.0341036
-0.123738
-0.0305674
-0.13204
-0.0271083
-0.138572
-0.0236304
-0.144271
-0.020176
-0.150678
-0.0165544
-0.157406
-0.0127385
-0.166466
-0.00848421
-0.174755
-0.00383329
-0.183599
0.00124329
-0.190333
0.00661637
-0.193695
0.0121462
-0.193462
0.0176387
-0.188226
0.0229152
-0.177432
0.0277964
-0.161521