/*--------------------------------*- C++ -*----------------------------------*\
| =========                 |                                                 |
| \\      /  F ield         | OpenFOAM: The Open Source CFD Toolbox           |
|  \\    /   O peration     | Version:  v1912                                 |
|   \\  /    A nd           | Website:  www.openfoam.com                      |
|    \\/     M anipulation  |                                                 |
\*---------------------------------------------------------------------------*/
FoamFile
{
    version     2.0;
    format      ascii;
    class       volScalarField;
    location    "50";
    object      nut;
}
// * * * * * * * * * * * * * * * * * * * * * * * * * * * * * * * * * * * * * //

dimensions      [0 2 -1 0 0 0 0];


internalField   nonuniform List<scalar> 
14268
(
7.93492e-05
7.94666e-05
7.92148e-05
7.86278e-05
7.79208e-05
7.74366e-05
7.71222e-05
7.68921e-05
7.66881e-05
7.64783e-05
7.62451e-05
7.59775e-05
7.56757e-05
7.53492e-05
7.50209e-05
7.47164e-05
7.44565e-05
7.42567e-05
7.41243e-05
7.40567e-05
7.40434e-05
7.40721e-05
7.41272e-05
7.41959e-05
7.42662e-05
7.43406e-05
7.44336e-05
7.45483e-05
7.4685e-05
7.48424e-05
7.50195e-05
7.52148e-05
7.54285e-05
7.56599e-05
7.59079e-05
7.61691e-05
7.64389e-05
7.67129e-05
7.69722e-05
7.72074e-05
7.74095e-05
7.75693e-05
7.76808e-05
7.77413e-05
7.7752e-05
7.77168e-05
7.76407e-05
7.75403e-05
7.74377e-05
7.73315e-05
7.72211e-05
7.71077e-05
7.6994e-05
7.68834e-05
7.678e-05
7.6689e-05
7.66098e-05
7.65428e-05
7.64892e-05
7.64465e-05
7.64114e-05
7.63836e-05
7.63616e-05
7.63438e-05
7.63277e-05
7.63103e-05
7.62905e-05
7.62667e-05
7.62433e-05
7.62349e-05
7.62434e-05
7.62715e-05
7.63207e-05
7.63902e-05
7.64772e-05
7.65763e-05
7.66795e-05
7.67847e-05
7.68837e-05
7.69646e-05
7.70287e-05
7.7075e-05
7.71052e-05
7.71224e-05
7.71302e-05
7.71318e-05
7.713e-05
7.71263e-05
7.7121e-05
7.71124e-05
7.70976e-05
7.70727e-05
7.70336e-05
7.69806e-05
7.69275e-05
7.68753e-05
7.6823e-05
7.677e-05
7.67165e-05
7.6663e-05
7.66101e-05
7.65582e-05
7.65079e-05
7.6459e-05
7.64112e-05
7.63641e-05
7.63172e-05
7.62701e-05
7.62228e-05
7.61755e-05
7.61291e-05
7.60844e-05
7.60422e-05
7.60026e-05
7.59655e-05
7.593e-05
7.58952e-05
7.58599e-05
7.5845e-05
7.58663e-05
7.59217e-05
7.6011e-05
7.61318e-05
7.62827e-05
7.6461e-05
7.66642e-05
7.68889e-05
7.71316e-05
7.73926e-05
7.76564e-05
7.79187e-05
7.81724e-05
7.84098e-05
7.8623e-05
7.88057e-05
7.89535e-05
7.90646e-05
7.91387e-05
7.91777e-05
7.91813e-05
7.91498e-05
7.91057e-05
7.9054e-05
7.89952e-05
7.89341e-05
7.88766e-05
7.88218e-05
7.8769e-05
7.87185e-05
7.86694e-05
7.8621e-05
7.85725e-05
7.85243e-05
7.84785e-05
7.84348e-05
7.83943e-05
7.83569e-05
7.83215e-05
7.82876e-05
7.82538e-05
7.82167e-05
7.81739e-05
7.81224e-05
7.80835e-05
5.13466e-08
1.66882e-07
5.22912e-07
9.32441e-07
1.15118e-06
1.24151e-06
1.27352e-06
1.27915e-06
1.27176e-06
1.25719e-06
1.23602e-06
1.20859e-06
1.17664e-06
1.14257e-06
1.10767e-06
1.07355e-06
1.04189e-06
1.0138e-06
9.89859e-07
9.70478e-07
9.5587e-07
9.46098e-07
9.41022e-07
9.40279e-07
9.44061e-07
9.51514e-07
9.62545e-07
9.76248e-07
9.91802e-07
1.00878e-06
1.02731e-06
1.04756e-06
1.06967e-06
1.0938e-06
1.12006e-06
1.14847e-06
1.17892e-06
1.21172e-06
1.24574e-06
1.28059e-06
1.31548e-06
1.34951e-06
1.38168e-06
1.4109e-06
1.43613e-06
1.45649e-06
1.47136e-06
1.47943e-06
1.47845e-06
1.46879e-06
1.45164e-06
1.42863e-06
1.40155e-06
1.37233e-06
1.34297e-06
1.31287e-06
1.28244e-06
1.25512e-06
1.23336e-06
1.2151e-06
1.20087e-06
1.19003e-06
1.18216e-06
1.17686e-06
1.17378e-06
1.17278e-06
1.17434e-06
1.17854e-06
1.18493e-06
1.19246e-06
1.20155e-06
1.21276e-06
1.22624e-06
1.24208e-06
1.26019e-06
1.28016e-06
1.30137e-06
1.32347e-06
1.34574e-06
1.36725e-06
1.38777e-06
1.40697e-06
1.42508e-06
1.4422e-06
1.45891e-06
1.4756e-06
1.49258e-06
1.51009e-06
1.52809e-06
1.54619e-06
1.56368e-06
1.57962e-06
1.59305e-06
1.60277e-06
1.60652e-06
1.60375e-06
1.59434e-06
1.57894e-06
1.55856e-06
1.5343e-06
1.50726e-06
1.47838e-06
1.44833e-06
1.41761e-06
1.38633e-06
1.35455e-06
1.32242e-06
1.29014e-06
1.25808e-06
1.2268e-06
1.19703e-06
1.16958e-06
1.14532e-06
1.12511e-06
1.10969e-06
1.09962e-06
1.09515e-06
1.09686e-06
1.10251e-06
1.11113e-06
1.12276e-06
1.13748e-06
1.15525e-06
1.17624e-06
1.20048e-06
1.22803e-06
1.25912e-06
1.2935e-06
1.33127e-06
1.37166e-06
1.41437e-06
1.45838e-06
1.50259e-06
1.54564e-06
1.58609e-06
1.62242e-06
1.65323e-06
1.67743e-06
1.69418e-06
1.70379e-06
1.70689e-06
1.70217e-06
1.68953e-06
1.67072e-06
1.64697e-06
1.61926e-06
1.58862e-06
1.5558e-06
1.52125e-06
1.4847e-06
1.44701e-06
1.40863e-06
1.3698e-06
1.331e-06
1.29203e-06
1.25301e-06
1.2147e-06
1.17753e-06
1.14164e-06
1.10761e-06
1.07581e-06
1.04717e-06
1.02132e-06
9.99158e-07
1.89469e-08
5.97556e-08
1.78163e-07
3.17608e-07
3.93053e-07
4.24763e-07
4.3576e-07
4.37388e-07
4.34308e-07
4.28325e-07
4.20462e-07
4.11131e-07
4.00849e-07
3.90195e-07
3.79515e-07
3.69358e-07
3.60043e-07
3.51808e-07
3.44783e-07
3.3903e-07
3.34545e-07
3.31283e-07
3.29213e-07
3.28314e-07
3.28752e-07
3.30515e-07
3.33e-07
3.36003e-07
3.39369e-07
3.42998e-07
3.46914e-07
3.5118e-07
3.55853e-07
3.60989e-07
3.66628e-07
3.72797e-07
3.79401e-07
3.86417e-07
3.93813e-07
4.0142e-07
4.0896e-07
4.16231e-07
4.22993e-07
4.29001e-07
4.34036e-07
4.3792e-07
4.4054e-07
4.41853e-07
4.41501e-07
4.39522e-07
4.36175e-07
4.31763e-07
4.2663e-07
4.21139e-07
4.15636e-07
4.10258e-07
4.04985e-07
4.00364e-07
3.9675e-07
3.93833e-07
3.91657e-07
3.90113e-07
3.89118e-07
3.88585e-07
3.88443e-07
3.88663e-07
3.89279e-07
3.90324e-07
3.91771e-07
3.93474e-07
3.95509e-07
3.9796e-07
4.00876e-07
4.04276e-07
4.08136e-07
4.12383e-07
4.16892e-07
4.21532e-07
4.26146e-07
4.30594e-07
4.34783e-07
4.38658e-07
4.42259e-07
4.45653e-07
4.48955e-07
4.5228e-07
4.55726e-07
4.59342e-07
4.63118e-07
4.6697e-07
4.7074e-07
4.74222e-07
4.772e-07
4.79419e-07
4.80472e-07
4.8025e-07
4.78732e-07
4.76065e-07
4.72465e-07
4.68166e-07
4.63398e-07
4.58351e-07
4.53154e-07
4.47882e-07
4.42551e-07
4.37171e-07
4.31765e-07
4.26371e-07
4.2105e-07
4.15906e-07
4.11071e-07
4.06684e-07
4.02882e-07
3.99796e-07
3.97533e-07
3.96168e-07
3.95728e-07
3.96343e-07
3.97619e-07
3.99347e-07
4.01537e-07
4.04205e-07
4.07359e-07
4.11028e-07
4.15257e-07
4.2007e-07
4.25546e-07
4.31621e-07
4.38259e-07
4.45529e-07
4.53335e-07
4.61464e-07
4.6971e-07
4.77781e-07
4.85387e-07
4.9223e-07
4.98026e-07
5.02555e-07
5.05656e-07
5.07359e-07
5.0795e-07
5.07071e-07
5.04783e-07
5.01396e-07
4.9714e-07
4.92209e-07
4.86786e-07
4.81001e-07
4.74954e-07
4.6867e-07
4.62262e-07
4.55815e-07
4.49378e-07
4.43021e-07
4.3673e-07
4.30568e-07
4.24634e-07
4.18994e-07
4.13665e-07
4.08746e-07
4.04368e-07
4.00632e-07
3.97189e-07
3.94276e-07
1.62075e-08
4.82268e-08
1.33773e-07
2.26528e-07
2.73302e-07
2.91507e-07
2.97638e-07
2.9917e-07
2.99059e-07
2.98106e-07
2.9653e-07
2.94485e-07
2.92175e-07
2.89834e-07
2.87599e-07
2.85617e-07
2.83965e-07
2.82692e-07
2.81794e-07
2.81251e-07
2.81031e-07
2.81094e-07
2.81461e-07
2.82136e-07
2.83169e-07
2.84598e-07
2.86231e-07
2.87998e-07
2.8983e-07
2.91685e-07
2.93574e-07
2.95515e-07
2.97529e-07
2.99639e-07
3.01861e-07
3.04212e-07
3.06635e-07
3.09127e-07
3.1175e-07
3.14431e-07
3.17048e-07
3.19553e-07
3.21878e-07
3.23956e-07
3.25731e-07
3.27164e-07
3.2824e-07
3.29e-07
3.29378e-07
3.29392e-07
3.29111e-07
3.28613e-07
3.27984e-07
3.27313e-07
3.2667e-07
3.26109e-07
3.2565e-07
3.25357e-07
3.25216e-07
3.25201e-07
3.25326e-07
3.25547e-07
3.25848e-07
3.2621e-07
3.26617e-07
3.27053e-07
3.27525e-07
3.28042e-07
3.28602e-07
3.29207e-07
3.29866e-07
3.30591e-07
3.31393e-07
3.32278e-07
3.33243e-07
3.3428e-07
3.35362e-07
3.36464e-07
3.37567e-07
3.38633e-07
3.39652e-07
3.40608e-07
3.41511e-07
3.42378e-07
3.4323e-07
3.44093e-07
3.44986e-07
3.45918e-07
3.46882e-07
3.47857e-07
3.48807e-07
3.49687e-07
3.50447e-07
3.51049e-07
3.51384e-07
3.5142e-07
3.51155e-07
3.50629e-07
3.499e-07
3.49029e-07
3.48073e-07
3.47079e-07
3.46077e-07
3.45085e-07
3.44107e-07
3.43144e-07
3.42218e-07
3.41358e-07
3.40578e-07
3.39898e-07
3.39337e-07
3.38906e-07
3.3861e-07
3.38443e-07
3.3839e-07
3.38436e-07
3.38572e-07
3.38792e-07
3.3906e-07
3.39394e-07
3.3981e-07
3.4032e-07
3.40924e-07
3.41634e-07
3.42464e-07
3.43424e-07
3.44533e-07
3.45767e-07
3.47111e-07
3.48573e-07
3.50165e-07
3.51843e-07
3.5357e-07
3.55268e-07
3.56876e-07
3.5832e-07
3.59524e-07
3.60438e-07
3.61032e-07
3.61322e-07
3.61395e-07
3.61139e-07
3.60579e-07
3.59791e-07
3.5884e-07
3.57753e-07
3.56575e-07
3.55351e-07
3.54088e-07
3.52802e-07
3.51536e-07
3.50323e-07
3.49175e-07
3.48145e-07
3.47202e-07
3.4626e-07
3.45415e-07
3.44701e-07
3.44095e-07
3.43609e-07
3.43262e-07
3.43131e-07
3.42765e-07
3.42482e-07
1.53176e-08
4.53532e-08
1.26292e-07
2.12932e-07
2.55328e-07
2.71281e-07
2.76635e-07
2.7848e-07
2.79329e-07
2.7975e-07
2.79963e-07
2.80065e-07
2.80138e-07
2.80283e-07
2.80539e-07
2.80929e-07
2.81467e-07
2.82155e-07
2.82958e-07
2.83838e-07
2.84772e-07
2.8573e-07
2.86674e-07
2.87592e-07
2.88501e-07
2.89412e-07
2.90365e-07
2.91328e-07
2.92298e-07
2.93275e-07
2.94262e-07
2.95265e-07
2.96293e-07
2.97358e-07
2.98475e-07
2.99665e-07
3.00879e-07
3.02119e-07
3.03456e-07
3.04861e-07
3.06259e-07
3.0763e-07
3.08926e-07
3.101e-07
3.11108e-07
3.11914e-07
3.12499e-07
3.1294e-07
3.13258e-07
3.13448e-07
3.1352e-07
3.13507e-07
3.13444e-07
3.13362e-07
3.13287e-07
3.13241e-07
3.13236e-07
3.13289e-07
3.13379e-07
3.13517e-07
3.13712e-07
3.13939e-07
3.14191e-07
3.14457e-07
3.14732e-07
3.15011e-07
3.153e-07
3.15606e-07
3.1595e-07
3.1632e-07
3.16724e-07
3.17169e-07
3.17663e-07
3.18214e-07
3.18824e-07
3.19487e-07
3.20185e-07
3.20894e-07
3.21601e-07
3.22264e-07
3.22877e-07
3.23429e-07
3.2393e-07
3.24393e-07
3.24844e-07
3.25305e-07
3.25797e-07
3.26327e-07
3.26889e-07
3.27465e-07
3.28024e-07
3.28524e-07
3.28924e-07
3.29206e-07
3.29382e-07
3.29446e-07
3.29399e-07
3.29259e-07
3.29049e-07
3.28796e-07
3.28519e-07
3.28236e-07
3.27958e-07
3.2769e-07
3.27431e-07
3.27182e-07
3.26946e-07
3.26724e-07
3.2652e-07
3.26341e-07
3.26194e-07
3.26084e-07
3.26012e-07
3.25981e-07
3.25987e-07
3.26055e-07
3.26196e-07
3.26406e-07
3.26639e-07
3.26863e-07
3.2709e-07
3.27332e-07
3.27592e-07
3.27882e-07
3.28225e-07
3.28636e-07
3.29155e-07
3.29748e-07
3.30416e-07
3.31261e-07
3.32251e-07
3.33336e-07
3.34499e-07
3.35679e-07
3.36814e-07
3.37836e-07
3.3868e-07
3.39295e-07
3.39647e-07
3.39769e-07
3.39776e-07
3.39673e-07
3.39472e-07
3.39192e-07
3.38869e-07
3.38515e-07
3.38138e-07
3.37756e-07
3.37366e-07
3.36974e-07
3.36606e-07
3.36281e-07
3.35997e-07
3.35754e-07
3.35532e-07
3.35315e-07
3.35139e-07
3.34999e-07
3.34884e-07
3.34821e-07
3.34773e-07
3.34966e-07
3.34944e-07
3.3504e-07
1.49197e-08
4.42848e-08
1.25424e-07
2.14215e-07
2.57548e-07
2.73634e-07
2.79022e-07
2.81073e-07
2.82376e-07
2.83578e-07
2.84773e-07
2.85966e-07
2.87155e-07
2.88389e-07
2.89696e-07
2.9101e-07
2.9231e-07
2.93579e-07
2.94775e-07
2.95871e-07
2.96848e-07
2.97702e-07
2.98446e-07
2.99084e-07
2.9965e-07
3.00166e-07
3.00678e-07
3.01184e-07
3.01689e-07
3.02199e-07
3.02718e-07
3.0325e-07
3.03801e-07
3.04383e-07
3.0501e-07
3.05699e-07
3.06415e-07
3.07157e-07
3.07981e-07
3.08846e-07
3.09687e-07
3.10497e-07
3.11245e-07
3.119e-07
3.1244e-07
3.12844e-07
3.13114e-07
3.13335e-07
3.13534e-07
3.13708e-07
3.13862e-07
3.1401e-07
3.14169e-07
3.14351e-07
3.14563e-07
3.14811e-07
3.15097e-07
3.15412e-07
3.15733e-07
3.16065e-07
3.16406e-07
3.16744e-07
3.17074e-07
3.17389e-07
3.17687e-07
3.17971e-07
3.1824e-07
3.18505e-07
3.18775e-07
3.19055e-07
3.19339e-07
3.19624e-07
3.19914e-07
3.20214e-07
3.20527e-07
3.20855e-07
3.21189e-07
3.21524e-07
3.21861e-07
3.22175e-07
3.22471e-07
3.22747e-07
3.23007e-07
3.23259e-07
3.23514e-07
3.2378e-07
3.24065e-07
3.24366e-07
3.24681e-07
3.24996e-07
3.25295e-07
3.25558e-07
3.25766e-07
3.25935e-07
3.26075e-07
3.26184e-07
3.26263e-07
3.26321e-07
3.26367e-07
3.26409e-07
3.26456e-07
3.2651e-07
3.26574e-07
3.2665e-07
3.26733e-07
3.26824e-07
3.26927e-07
3.27044e-07
3.27176e-07
3.27346e-07
3.27569e-07
3.27846e-07
3.2817e-07
3.28516e-07
3.28857e-07
3.29171e-07
3.29437e-07
3.29644e-07
3.29802e-07
3.29914e-07
3.30014e-07
3.30114e-07
3.30215e-07
3.30318e-07
3.30434e-07
3.30568e-07
3.30731e-07
3.30925e-07
3.31137e-07
3.31456e-07
3.31852e-07
3.32285e-07
3.32752e-07
3.3323e-07
3.33681e-07
3.34077e-07
3.3439e-07
3.34601e-07
3.34698e-07
3.34716e-07
3.34717e-07
3.34697e-07
3.34646e-07
3.34564e-07
3.34473e-07
3.34378e-07
3.34282e-07
3.34188e-07
3.34092e-07
3.34002e-07
3.33936e-07
3.33908e-07
3.33913e-07
3.33976e-07
3.34075e-07
3.34129e-07
3.34221e-07
3.34386e-07
3.34585e-07
3.34845e-07
3.35158e-07
3.3559e-07
3.35783e-07
3.36011e-07
1.469e-08
4.37185e-08
1.26664e-07
2.2109e-07
2.67723e-07
2.84896e-07
2.9059e-07
2.92779e-07
2.94147e-07
2.95417e-07
2.96708e-07
2.98048e-07
2.99389e-07
3.0072e-07
3.02012e-07
3.03238e-07
3.04371e-07
3.05405e-07
3.06321e-07
3.07115e-07
3.07788e-07
3.08348e-07
3.08803e-07
3.09171e-07
3.09477e-07
3.09722e-07
3.09957e-07
3.10186e-07
3.10412e-07
3.10639e-07
3.10869e-07
3.11103e-07
3.11343e-07
3.11595e-07
3.1187e-07
3.12184e-07
3.12514e-07
3.12875e-07
3.13327e-07
3.13842e-07
3.1437e-07
3.14903e-07
3.15413e-07
3.1587e-07
3.16247e-07
3.1652e-07
3.16692e-07
3.16846e-07
3.16999e-07
3.17146e-07
3.17293e-07
3.17448e-07
3.1762e-07
3.17815e-07
3.18033e-07
3.18276e-07
3.18541e-07
3.18812e-07
3.19081e-07
3.1934e-07
3.19596e-07
3.1984e-07
3.20067e-07
3.20278e-07
3.20475e-07
3.20662e-07
3.20835e-07
3.21011e-07
3.21203e-07
3.21413e-07
3.21628e-07
3.21845e-07
3.22066e-07
3.22298e-07
3.22541e-07
3.22797e-07
3.23062e-07
3.23331e-07
3.23598e-07
3.23844e-07
3.24075e-07
3.24286e-07
3.24483e-07
3.24675e-07
3.24872e-07
3.25085e-07
3.25321e-07
3.25579e-07
3.25853e-07
3.2613e-07
3.26391e-07
3.26613e-07
3.26778e-07
3.26909e-07
3.27018e-07
3.27105e-07
3.27167e-07
3.27212e-07
3.27247e-07
3.27277e-07
3.27308e-07
3.27341e-07
3.27379e-07
3.27422e-07
3.27466e-07
3.27512e-07
3.2756e-07
3.27612e-07
3.27667e-07
3.27733e-07
3.27809e-07
3.27904e-07
3.28043e-07
3.28214e-07
3.28403e-07
3.286e-07
3.28798e-07
3.28995e-07
3.29167e-07
3.29298e-07
3.29397e-07
3.29482e-07
3.29558e-07
3.29633e-07
3.29729e-07
3.29865e-07
3.30074e-07
3.30337e-07
3.30645e-07
3.31077e-07
3.31609e-07
3.32201e-07
3.32844e-07
3.33489e-07
3.341e-07
3.34636e-07
3.35057e-07
3.35332e-07
3.35446e-07
3.35465e-07
3.35458e-07
3.35437e-07
3.35388e-07
3.35308e-07
3.35222e-07
3.35133e-07
3.35035e-07
3.34938e-07
3.34838e-07
3.34737e-07
3.34652e-07
3.34592e-07
3.3456e-07
3.3456e-07
3.34552e-07
3.34526e-07
3.34519e-07
3.34545e-07
3.34557e-07
3.3464e-07
3.34755e-07
3.35011e-07
3.35048e-07
3.35209e-07
1.44537e-08
4.28648e-08
1.26695e-07
2.2719e-07
2.78704e-07
2.97914e-07
3.04025e-07
3.05991e-07
3.06886e-07
3.0767e-07
3.08487e-07
3.09359e-07
3.10241e-07
3.11109e-07
3.11942e-07
3.12721e-07
3.13451e-07
3.1413e-07
3.14737e-07
3.15262e-07
3.157e-07
3.16049e-07
3.16316e-07
3.16527e-07
3.16681e-07
3.16771e-07
3.16842e-07
3.16911e-07
3.16982e-07
3.17058e-07
3.17141e-07
3.17229e-07
3.17323e-07
3.17429e-07
3.17553e-07
3.1771e-07
3.17876e-07
3.18063e-07
3.18327e-07
3.18646e-07
3.18974e-07
3.19308e-07
3.19629e-07
3.1991e-07
3.20129e-07
3.20264e-07
3.20333e-07
3.20408e-07
3.20497e-07
3.20597e-07
3.2071e-07
3.2084e-07
3.20988e-07
3.21154e-07
3.21338e-07
3.2154e-07
3.21756e-07
3.21971e-07
3.22187e-07
3.22394e-07
3.22595e-07
3.22784e-07
3.22957e-07
3.23119e-07
3.2327e-07
3.23406e-07
3.23535e-07
3.23671e-07
3.23826e-07
3.23999e-07
3.24175e-07
3.24349e-07
3.2452e-07
3.24692e-07
3.24863e-07
3.25033e-07
3.25205e-07
3.25374e-07
3.25537e-07
3.25685e-07
3.25827e-07
3.2596e-07
3.26091e-07
3.26226e-07
3.26375e-07
3.26546e-07
3.26744e-07
3.26963e-07
3.27195e-07
3.27423e-07
3.2763e-07
3.27794e-07
3.27906e-07
3.27995e-07
3.28066e-07
3.28117e-07
3.28151e-07
3.28174e-07
3.28191e-07
3.28207e-07
3.28226e-07
3.28248e-07
3.28276e-07
3.2831e-07
3.2835e-07
3.28396e-07
3.28452e-07
3.28522e-07
3.28607e-07
3.28721e-07
3.28893e-07
3.29127e-07
3.29416e-07
3.29736e-07
3.3006e-07
3.30363e-07
3.30627e-07
3.3084e-07
3.31008e-07
3.31129e-07
3.31209e-07
3.31267e-07
3.31319e-07
3.31375e-07
3.31441e-07
3.31525e-07
3.31666e-07
3.31851e-07
3.32072e-07
3.32394e-07
3.32795e-07
3.33241e-07
3.33725e-07
3.34218e-07
3.34682e-07
3.35076e-07
3.35371e-07
3.35545e-07
3.35593e-07
3.35585e-07
3.35575e-07
3.35555e-07
3.355e-07
3.35409e-07
3.35314e-07
3.35217e-07
3.35098e-07
3.34992e-07
3.34878e-07
3.34759e-07
3.34658e-07
3.34581e-07
3.34532e-07
3.34522e-07
3.34524e-07
3.34513e-07
3.34533e-07
3.34634e-07
3.34777e-07
3.34984e-07
3.35247e-07
3.35611e-07
3.35756e-07
3.35991e-07
1.41823e-08
4.17568e-08
1.24724e-07
2.29264e-07
2.84816e-07
3.06244e-07
3.13134e-07
3.15189e-07
3.15866e-07
3.16296e-07
3.16698e-07
3.17134e-07
3.17608e-07
3.18108e-07
3.18627e-07
3.1913e-07
3.19615e-07
3.2008e-07
3.20502e-07
3.20867e-07
3.21181e-07
3.2144e-07
3.21631e-07
3.2176e-07
3.21821e-07
3.2182e-07
3.21786e-07
3.2175e-07
3.21719e-07
3.21697e-07
3.21688e-07
3.21687e-07
3.21695e-07
3.21714e-07
3.2175e-07
3.21816e-07
3.21889e-07
3.21984e-07
3.22148e-07
3.22364e-07
3.22589e-07
3.2282e-07
3.23039e-07
3.23224e-07
3.23349e-07
3.23393e-07
3.23394e-07
3.23403e-07
3.23419e-07
3.23447e-07
3.23487e-07
3.23543e-07
3.23617e-07
3.2371e-07
3.23823e-07
3.23953e-07
3.24098e-07
3.24246e-07
3.24406e-07
3.24565e-07
3.2472e-07
3.24861e-07
3.2499e-07
3.25109e-07
3.25215e-07
3.25307e-07
3.25392e-07
3.2549e-07
3.25623e-07
3.25776e-07
3.25933e-07
3.26088e-07
3.26239e-07
3.26386e-07
3.26526e-07
3.2666e-07
3.26791e-07
3.2691e-07
3.27014e-07
3.27103e-07
3.27184e-07
3.27258e-07
3.27334e-07
3.27423e-07
3.27535e-07
3.27677e-07
3.27848e-07
3.28045e-07
3.28253e-07
3.28455e-07
3.28629e-07
3.28755e-07
3.28836e-07
3.28898e-07
3.28942e-07
3.28966e-07
3.28974e-07
3.28974e-07
3.28969e-07
3.28965e-07
3.28962e-07
3.28962e-07
3.28964e-07
3.2897e-07
3.28978e-07
3.28987e-07
3.29001e-07
3.29023e-07
3.29053e-07
3.29108e-07
3.29219e-07
3.29391e-07
3.29618e-07
3.29882e-07
3.30159e-07
3.30429e-07
3.30679e-07
3.30902e-07
3.31086e-07
3.31222e-07
3.31313e-07
3.31379e-07
3.31416e-07
3.31472e-07
3.31543e-07
3.31642e-07
3.31797e-07
3.32005e-07
3.32256e-07
3.32607e-07
3.3304e-07
3.33521e-07
3.34044e-07
3.34567e-07
3.35054e-07
3.35465e-07
3.35765e-07
3.35931e-07
3.35969e-07
3.35955e-07
3.35937e-07
3.35907e-07
3.35839e-07
3.35733e-07
3.35627e-07
3.35523e-07
3.35391e-07
3.35271e-07
3.35142e-07
3.35012e-07
3.34895e-07
3.34805e-07
3.34738e-07
3.34703e-07
3.34675e-07
3.34627e-07
3.34599e-07
3.34602e-07
3.34645e-07
3.34741e-07
3.34895e-07
3.35141e-07
3.35183e-07
3.35391e-07
1.38636e-08
4.04113e-08
1.21775e-07
2.28261e-07
2.87479e-07
3.10864e-07
3.18593e-07
3.20879e-07
3.21502e-07
3.21769e-07
3.21963e-07
3.22162e-07
3.22403e-07
3.22679e-07
3.22986e-07
3.23292e-07
3.23603e-07
3.23918e-07
3.24236e-07
3.24566e-07
3.24867e-07
3.25107e-07
3.25271e-07
3.2536e-07
3.25373e-07
3.25321e-07
3.25229e-07
3.25134e-07
3.2504e-07
3.24957e-07
3.24892e-07
3.24839e-07
3.24796e-07
3.24764e-07
3.24747e-07
3.24755e-07
3.24775e-07
3.24812e-07
3.2491e-07
3.25053e-07
3.252e-07
3.25346e-07
3.25475e-07
3.25567e-07
3.25598e-07
3.25557e-07
3.25502e-07
3.25451e-07
3.25409e-07
3.25377e-07
3.2536e-07
3.2536e-07
3.25381e-07
3.25425e-07
3.25493e-07
3.25583e-07
3.25691e-07
3.25809e-07
3.25946e-07
3.26087e-07
3.26224e-07
3.26345e-07
3.26455e-07
3.2655e-07
3.26631e-07
3.26702e-07
3.26761e-07
3.26823e-07
3.26942e-07
3.27086e-07
3.27242e-07
3.27396e-07
3.27542e-07
3.27677e-07
3.27798e-07
3.27906e-07
3.28007e-07
3.28086e-07
3.2814e-07
3.28179e-07
3.28211e-07
3.28238e-07
3.28273e-07
3.2833e-07
3.28418e-07
3.28543e-07
3.28706e-07
3.28898e-07
3.29104e-07
3.29301e-07
3.29466e-07
3.29574e-07
3.29641e-07
3.29682e-07
3.29698e-07
3.29691e-07
3.29664e-07
3.29625e-07
3.29579e-07
3.29533e-07
3.29488e-07
3.29447e-07
3.2941e-07
3.29381e-07
3.29358e-07
3.29341e-07
3.29333e-07
3.29336e-07
3.29353e-07
3.29422e-07
3.29564e-07
3.29782e-07
3.30068e-07
3.30402e-07
3.30754e-07
3.31093e-07
3.314e-07
3.31662e-07
3.31875e-07
3.32027e-07
3.32134e-07
3.32204e-07
3.32236e-07
3.32284e-07
3.32345e-07
3.3243e-07
3.32563e-07
3.32744e-07
3.32966e-07
3.33274e-07
3.33652e-07
3.34071e-07
3.34522e-07
3.34969e-07
3.35375e-07
3.35702e-07
3.35922e-07
3.36016e-07
3.36017e-07
3.35982e-07
3.35951e-07
3.35911e-07
3.35829e-07
3.3571e-07
3.35595e-07
3.35486e-07
3.35345e-07
3.35216e-07
3.35077e-07
3.34939e-07
3.34813e-07
3.34715e-07
3.34639e-07
3.34592e-07
3.34556e-07
3.345e-07
3.34465e-07
3.34504e-07
3.34594e-07
3.34739e-07
3.34945e-07
3.35237e-07
3.35335e-07
3.35603e-07
1.34962e-08
3.8859e-08
1.17998e-07
2.25769e-07
2.87583e-07
3.13033e-07
3.217e-07
3.24305e-07
3.24969e-07
3.25177e-07
3.25258e-07
3.25281e-07
3.25338e-07
3.25433e-07
3.25572e-07
3.25729e-07
3.25914e-07
3.26166e-07
3.265e-07
3.26857e-07
3.27185e-07
3.27446e-07
3.27619e-07
3.27706e-07
3.27703e-07
3.27629e-07
3.27511e-07
3.2739e-07
3.27269e-07
3.27158e-07
3.27061e-07
3.26982e-07
3.26915e-07
3.26858e-07
3.26818e-07
3.26793e-07
3.26788e-07
3.26791e-07
3.26845e-07
3.26936e-07
3.27027e-07
3.2711e-07
3.27166e-07
3.27179e-07
3.27128e-07
3.27023e-07
3.26915e-07
3.26806e-07
3.26707e-07
3.26621e-07
3.26551e-07
3.26502e-07
3.26478e-07
3.26483e-07
3.2652e-07
3.26589e-07
3.26684e-07
3.26796e-07
3.26927e-07
3.27061e-07
3.27191e-07
3.2731e-07
3.27415e-07
3.27495e-07
3.27553e-07
3.27611e-07
3.2766e-07
3.27697e-07
3.27807e-07
3.27944e-07
3.28116e-07
3.28289e-07
3.28445e-07
3.28583e-07
3.28695e-07
3.28782e-07
3.28855e-07
3.2889e-07
3.2889e-07
3.28876e-07
3.28845e-07
3.28811e-07
3.28801e-07
3.28824e-07
3.28892e-07
3.29007e-07
3.29169e-07
3.29364e-07
3.29574e-07
3.29773e-07
3.29933e-07
3.30028e-07
3.30083e-07
3.3011e-07
3.30105e-07
3.30072e-07
3.30016e-07
3.29947e-07
3.29872e-07
3.29798e-07
3.29733e-07
3.29675e-07
3.29623e-07
3.29578e-07
3.29537e-07
3.29501e-07
3.29469e-07
3.29446e-07
3.29443e-07
3.29504e-07
3.29643e-07
3.29863e-07
3.30152e-07
3.30492e-07
3.30854e-07
3.31208e-07
3.31535e-07
3.31827e-07
3.32064e-07
3.32234e-07
3.32361e-07
3.32436e-07
3.32499e-07
3.32539e-07
3.32588e-07
3.32668e-07
3.328e-07
3.32981e-07
3.33213e-07
3.33523e-07
3.33899e-07
3.34314e-07
3.34755e-07
3.35185e-07
3.35564e-07
3.35855e-07
3.36032e-07
3.36086e-07
3.36073e-07
3.36023e-07
3.35979e-07
3.35922e-07
3.35821e-07
3.35685e-07
3.35554e-07
3.35434e-07
3.35278e-07
3.35136e-07
3.34977e-07
3.34818e-07
3.34672e-07
3.34539e-07
3.34435e-07
3.34348e-07
3.34275e-07
3.34185e-07
3.34101e-07
3.34085e-07
3.34115e-07
3.342e-07
3.34344e-07
3.34562e-07
3.34602e-07
3.34872e-07
1.30876e-08
3.71436e-08
1.13442e-07
2.22055e-07
2.8638e-07
3.13553e-07
3.23045e-07
3.25963e-07
3.26697e-07
3.26875e-07
3.2688e-07
3.26786e-07
3.26725e-07
3.26711e-07
3.26756e-07
3.26841e-07
3.2699e-07
3.27294e-07
3.27694e-07
3.28122e-07
3.28519e-07
3.28845e-07
3.29075e-07
3.29202e-07
3.29214e-07
3.29136e-07
3.29012e-07
3.28881e-07
3.28752e-07
3.28634e-07
3.28529e-07
3.28437e-07
3.28363e-07
3.28297e-07
3.28248e-07
3.28208e-07
3.28188e-07
3.28163e-07
3.28179e-07
3.28221e-07
3.28257e-07
3.28279e-07
3.28267e-07
3.28198e-07
3.28064e-07
3.27914e-07
3.27759e-07
3.27606e-07
3.27462e-07
3.27328e-07
3.27216e-07
3.27127e-07
3.27069e-07
3.27049e-07
3.27071e-07
3.27135e-07
3.27232e-07
3.27353e-07
3.27492e-07
3.27641e-07
3.2779e-07
3.27919e-07
3.28027e-07
3.28097e-07
3.28139e-07
3.28187e-07
3.28237e-07
3.28276e-07
3.2838e-07
3.28515e-07
3.28713e-07
3.28918e-07
3.291e-07
3.29255e-07
3.29369e-07
3.29447e-07
3.29501e-07
3.29503e-07
3.29449e-07
3.29393e-07
3.29316e-07
3.29224e-07
3.29161e-07
3.29147e-07
3.29191e-07
3.29298e-07
3.29464e-07
3.29671e-07
3.29894e-07
3.301e-07
3.30255e-07
3.30341e-07
3.30383e-07
3.30391e-07
3.30364e-07
3.30305e-07
3.30222e-07
3.30126e-07
3.30029e-07
3.29938e-07
3.29855e-07
3.29782e-07
3.29715e-07
3.29654e-07
3.29596e-07
3.29538e-07
3.29483e-07
3.29434e-07
3.29413e-07
3.29463e-07
3.29604e-07
3.29836e-07
3.30151e-07
3.30531e-07
3.30948e-07
3.31363e-07
3.31743e-07
3.32085e-07
3.32359e-07
3.32562e-07
3.32711e-07
3.32813e-07
3.32874e-07
3.32936e-07
3.32996e-07
3.33081e-07
3.33211e-07
3.33386e-07
3.33611e-07
3.33898e-07
3.34243e-07
3.34614e-07
3.35003e-07
3.35372e-07
3.35685e-07
3.35902e-07
3.36003e-07
3.3601e-07
3.35973e-07
3.35902e-07
3.35837e-07
3.35755e-07
3.35629e-07
3.3547e-07
3.35315e-07
3.35175e-07
3.35e-07
3.34839e-07
3.34656e-07
3.34475e-07
3.34309e-07
3.34151e-07
3.34027e-07
3.33916e-07
3.33822e-07
3.33714e-07
3.3362e-07
3.33612e-07
3.33656e-07
3.3376e-07
3.33922e-07
3.34152e-07
3.34217e-07
3.34561e-07
1.26487e-08
3.53136e-08
1.08247e-07
2.16981e-07
2.84217e-07
3.13041e-07
3.23444e-07
3.26664e-07
3.27443e-07
3.27613e-07
3.27603e-07
3.27458e-07
3.27359e-07
3.27302e-07
3.27299e-07
3.27328e-07
3.27473e-07
3.27822e-07
3.28285e-07
3.28788e-07
3.29266e-07
3.29671e-07
3.29974e-07
3.30159e-07
3.30218e-07
3.30163e-07
3.30053e-07
3.29933e-07
3.29815e-07
3.29711e-07
3.29617e-07
3.29536e-07
3.29468e-07
3.29407e-07
3.2935e-07
3.29311e-07
3.29271e-07
3.29221e-07
3.292e-07
3.29192e-07
3.29166e-07
3.29113e-07
3.29013e-07
3.28849e-07
3.28657e-07
3.28459e-07
3.2826e-07
3.28064e-07
3.27881e-07
3.27723e-07
3.27584e-07
3.27473e-07
3.27396e-07
3.27359e-07
3.27367e-07
3.27417e-07
3.27511e-07
3.27638e-07
3.27805e-07
3.27983e-07
3.28146e-07
3.28281e-07
3.28385e-07
3.28447e-07
3.28479e-07
3.28517e-07
3.28573e-07
3.28632e-07
3.2873e-07
3.28881e-07
3.29119e-07
3.29367e-07
3.29603e-07
3.29791e-07
3.29916e-07
3.29984e-07
3.30002e-07
3.29957e-07
3.29846e-07
3.29749e-07
3.29633e-07
3.29487e-07
3.29368e-07
3.29314e-07
3.29334e-07
3.29432e-07
3.29603e-07
3.29827e-07
3.30067e-07
3.30283e-07
3.30429e-07
3.3051e-07
3.30545e-07
3.30538e-07
3.30491e-07
3.3041e-07
3.30303e-07
3.30183e-07
3.30059e-07
3.29935e-07
3.29824e-07
3.29728e-07
3.2964e-07
3.29555e-07
3.29475e-07
3.29392e-07
3.29302e-07
3.29218e-07
3.29171e-07
3.29201e-07
3.29332e-07
3.2957e-07
3.29905e-07
3.30314e-07
3.30768e-07
3.31233e-07
3.31659e-07
3.32042e-07
3.32369e-07
3.32601e-07
3.3277e-07
3.32875e-07
3.3297e-07
3.33051e-07
3.33134e-07
3.3324e-07
3.33377e-07
3.33567e-07
3.33804e-07
3.34085e-07
3.34418e-07
3.34763e-07
3.35108e-07
3.35425e-07
3.35675e-07
3.3582e-07
3.35851e-07
3.35825e-07
3.35767e-07
3.35669e-07
3.35576e-07
3.35463e-07
3.35301e-07
3.35115e-07
3.3493e-07
3.34766e-07
3.3457e-07
3.34389e-07
3.34181e-07
3.33984e-07
3.338e-07
3.33617e-07
3.33464e-07
3.33333e-07
3.33212e-07
3.3306e-07
3.3294e-07
3.32886e-07
3.32883e-07
3.32926e-07
3.33022e-07
3.33182e-07
3.33201e-07
3.33558e-07
1.21891e-08
3.34108e-08
1.02597e-07
2.10611e-07
2.80909e-07
3.11839e-07
3.23219e-07
3.2689e-07
3.27829e-07
3.28011e-07
3.2795e-07
3.27721e-07
3.27513e-07
3.27329e-07
3.27204e-07
3.27137e-07
3.2726e-07
3.27616e-07
3.28106e-07
3.28658e-07
3.29203e-07
3.29685e-07
3.3007e-07
3.30324e-07
3.30447e-07
3.30447e-07
3.30374e-07
3.30296e-07
3.30218e-07
3.30172e-07
3.30136e-07
3.30119e-07
3.30105e-07
3.30092e-07
3.30076e-07
3.3005e-07
3.30006e-07
3.29945e-07
3.29895e-07
3.29855e-07
3.29792e-07
3.29683e-07
3.29516e-07
3.29316e-07
3.29091e-07
3.28854e-07
3.28615e-07
3.28386e-07
3.28162e-07
3.27956e-07
3.27762e-07
3.27591e-07
3.27447e-07
3.27344e-07
3.27288e-07
3.27301e-07
3.27365e-07
3.27494e-07
3.27697e-07
3.27919e-07
3.28118e-07
3.28275e-07
3.2839e-07
3.28461e-07
3.28501e-07
3.28523e-07
3.2857e-07
3.28674e-07
3.28802e-07
3.28961e-07
3.29224e-07
3.29518e-07
3.29837e-07
3.30083e-07
3.3024e-07
3.30306e-07
3.30288e-07
3.30186e-07
3.30029e-07
3.29875e-07
3.29723e-07
3.2957e-07
3.29433e-07
3.29331e-07
3.29313e-07
3.29394e-07
3.29567e-07
3.29801e-07
3.30066e-07
3.30309e-07
3.30463e-07
3.30546e-07
3.30574e-07
3.30548e-07
3.30478e-07
3.30365e-07
3.30217e-07
3.30048e-07
3.2988e-07
3.29746e-07
3.29619e-07
3.29504e-07
3.29396e-07
3.29285e-07
3.29156e-07
3.29038e-07
3.28888e-07
3.28759e-07
3.28648e-07
3.28659e-07
3.28753e-07
3.28967e-07
3.29297e-07
3.29722e-07
3.30199e-07
3.3071e-07
3.31192e-07
3.31631e-07
3.32013e-07
3.32313e-07
3.32542e-07
3.32713e-07
3.32859e-07
3.32993e-07
3.33132e-07
3.33296e-07
3.33446e-07
3.33665e-07
3.33929e-07
3.34218e-07
3.34537e-07
3.34855e-07
3.35149e-07
3.35399e-07
3.35568e-07
3.35623e-07
3.35605e-07
3.35543e-07
3.35456e-07
3.35323e-07
3.35193e-07
3.35038e-07
3.34833e-07
3.34617e-07
3.344e-07
3.34205e-07
3.33989e-07
3.3378e-07
3.33551e-07
3.33329e-07
3.33124e-07
3.32922e-07
3.32718e-07
3.32558e-07
3.32394e-07
3.32194e-07
3.32034e-07
3.31942e-07
3.31907e-07
3.31937e-07
3.32028e-07
3.32181e-07
3.32231e-07
3.3263e-07
1.1877e-08
3.21184e-08
9.8722e-08
2.05926e-07
2.78277e-07
3.10773e-07
3.22809e-07
3.26781e-07
3.27831e-07
3.28005e-07
3.2787e-07
3.27548e-07
3.27247e-07
3.26978e-07
3.26771e-07
3.26626e-07
3.26691e-07
3.26995e-07
3.27464e-07
3.2801e-07
3.28549e-07
3.29038e-07
3.29448e-07
3.29745e-07
3.29915e-07
3.2998e-07
3.29951e-07
3.29891e-07
3.29866e-07
3.29876e-07
3.29911e-07
3.29979e-07
3.3006e-07
3.30142e-07
3.30214e-07
3.3027e-07
3.303e-07
3.30292e-07
3.30261e-07
3.30207e-07
3.30121e-07
3.29986e-07
3.29802e-07
3.29581e-07
3.29329e-07
3.29064e-07
3.28798e-07
3.2852e-07
3.28243e-07
3.27985e-07
3.27739e-07
3.27512e-07
3.27314e-07
3.27157e-07
3.27054e-07
3.27025e-07
3.27062e-07
3.27195e-07
3.27411e-07
3.27662e-07
3.27895e-07
3.28082e-07
3.28217e-07
3.28302e-07
3.28353e-07
3.28375e-07
3.28431e-07
3.28553e-07
3.28721e-07
3.28922e-07
3.29212e-07
3.29531e-07
3.29902e-07
3.30215e-07
3.30403e-07
3.30463e-07
3.30424e-07
3.30294e-07
3.30106e-07
3.29907e-07
3.29712e-07
3.29537e-07
3.29393e-07
3.2928e-07
3.29229e-07
3.29294e-07
3.29476e-07
3.29746e-07
3.30037e-07
3.30286e-07
3.3044e-07
3.30518e-07
3.30539e-07
3.30499e-07
3.30401e-07
3.30261e-07
3.30088e-07
3.29906e-07
3.29711e-07
3.29521e-07
3.29348e-07
3.29192e-07
3.29046e-07
3.28908e-07
3.2875e-07
3.28601e-07
3.28413e-07
3.28239e-07
3.28078e-07
3.28043e-07
3.28095e-07
3.28269e-07
3.28578e-07
3.28995e-07
3.29464e-07
3.29966e-07
3.30455e-07
3.3091e-07
3.31319e-07
3.31664e-07
3.31964e-07
3.32227e-07
3.32482e-07
3.32726e-07
3.32971e-07
3.33205e-07
3.33337e-07
3.33523e-07
3.33816e-07
3.34135e-07
3.34476e-07
3.34806e-07
3.35093e-07
3.35306e-07
3.35428e-07
3.35445e-07
3.35402e-07
3.35316e-07
3.35211e-07
3.35051e-07
3.3489e-07
3.34703e-07
3.34468e-07
3.34228e-07
3.33991e-07
3.33771e-07
3.33541e-07
3.33308e-07
3.33064e-07
3.32821e-07
3.32599e-07
3.32384e-07
3.32138e-07
3.31951e-07
3.31749e-07
3.31513e-07