/*--------------------------------*- C++ -*----------------------------------*\
| =========                 |                                                 |
| \\      /  F ield         | OpenFOAM: The Open Source CFD Toolbox           |
|  \\    /   O peration     | Version:  v1912                                 |
|   \\  /    A nd           | Website:  www.openfoam.com                      |
|    \\/     M anipulation  |                                                 |
\*---------------------------------------------------------------------------*/
FoamFile
{
    version     2.0;
    format      ascii;
    class       volScalarField;
    location    "20";
    object      nut;
}
// * * * * * * * * * * * * * * * * * * * * * * * * * * * * * * * * * * * * * //

dimensions      [0 2 -1 0 0 0 0];


internalField   nonuniform List<scalar> 
14268
(
0.000120974
0.00011107
9.89028e-05
9.06191e-05
7.5688e-05
5.7309e-05
2.77944e-05
1.11798e-05
2.83461e-05
2.73902e-05
1.17718e-05
1.63275e-06
1.70272e-07
1.67974e-08
1.65276e-09
1.6249e-10
1.65277e-11
2.51918e-12
1.26127e-12
1.19587e-12
1.23643e-12
1.30007e-12
1.35785e-12
1.41157e-12
1.46372e-12
1.51452e-12
1.56399e-12
1.61214e-12
1.65898e-12
1.70453e-12
1.74882e-12
1.79186e-12
1.83368e-12
1.87429e-12
1.91374e-12
1.95206e-12
1.98926e-12
2.0254e-12
2.06042e-12
2.09461e-12
2.12759e-12
2.15983e-12
2.19099e-12
2.22128e-12
2.25069e-12
2.27926e-12
2.30701e-12
2.33397e-12
2.36015e-12
2.38558e-12
2.41028e-12
2.43427e-12
2.45757e-12
2.48019e-12
2.50216e-12
2.52349e-12
2.5442e-12
2.56431e-12
2.58383e-12
2.60277e-12
2.62116e-12
2.639e-12
2.65631e-12
2.6731e-12
2.68939e-12
2.70519e-12
2.72051e-12
2.73536e-12
2.74976e-12
2.76371e-12
2.77723e-12
2.79033e-12
2.80302e-12
2.81531e-12
2.82721e-12
2.83873e-12
2.84988e-12
2.86067e-12
2.87111e-12
2.88122e-12
2.89099e-12
2.90044e-12
2.90957e-12
2.9184e-12
2.92694e-12
2.93519e-12
2.94316e-12
2.95085e-12
2.95829e-12
2.96547e-12
2.9724e-12
2.97909e-12
2.98554e-12
2.99177e-12
2.99778e-12
3.00357e-12
3.00916e-12
3.01455e-12
3.01974e-12
3.02475e-12
3.02957e-12
3.03422e-12
3.0387e-12
3.04301e-12
3.04716e-12
3.05116e-12
3.05501e-12
3.05871e-12
3.06228e-12
3.0657e-12
3.069e-12
3.07218e-12
3.07522e-12
3.07816e-12
3.08098e-12
3.08369e-12
3.08629e-12
3.0888e-12
3.09119e-12
3.09351e-12
3.09572e-12
3.09785e-12
3.09989e-12
3.10186e-12
3.10373e-12
3.10555e-12
3.10728e-12
3.10894e-12
3.11053e-12
3.11206e-12
3.11353e-12
3.11493e-12
3.11628e-12
3.11756e-12
3.11881e-12
3.11998e-12
3.12113e-12
3.1222e-12
3.12325e-12
3.12424e-12
3.1252e-12
3.1261e-12
3.12698e-12
3.12781e-12
3.12861e-12
3.12937e-12
3.13008e-12
3.13076e-12
3.13142e-12
3.13231e-12
0.00123706
0.00118037
0.00105005
0.00100981
0.000858017
0.000734678
0.000488228
0.000141108
0.000302733
0.000389242
0.000220291
5.3472e-05
9.00042e-06
1.21894e-06
1.47268e-07
1.65657e-08
1.86225e-09
3.20541e-10
1.75876e-10
1.69998e-10
1.77071e-10
1.87201e-10
1.96421e-10
2.05097e-10
2.1356e-10
2.21842e-10
2.29945e-10
2.37873e-10
2.45625e-10
2.53203e-10
2.60609e-10
2.67842e-10
2.74906e-10
2.81802e-10
2.88531e-10
2.95098e-10
3.01504e-10
3.07752e-10
3.13837e-10
3.19798e-10
3.25572e-10
3.31245e-10
3.36741e-10
3.42107e-10
3.47335e-10
3.52431e-10
3.57396e-10
3.62235e-10
3.66949e-10
3.71542e-10
3.76015e-10
3.80372e-10
3.84614e-10
3.88745e-10
3.92766e-10
3.9668e-10
4.00489e-10
4.04196e-10
4.07802e-10
4.11309e-10
4.14721e-10
4.18037e-10
4.21262e-10
4.24396e-10
4.27441e-10
4.304e-10
4.33274e-10
4.36065e-10
4.38774e-10
4.41405e-10
4.43957e-10
4.46434e-10
4.48836e-10
4.51166e-10
4.53425e-10
4.55615e-10
4.57737e-10
4.59793e-10
4.61784e-10
4.63713e-10
4.6558e-10
4.67388e-10
4.69138e-10
4.7083e-10
4.72468e-10
4.74052e-10
4.75584e-10
4.77065e-10
4.78496e-10
4.79879e-10
4.81216e-10
4.82507e-10
4.83753e-10
4.84957e-10
4.86119e-10
4.8724e-10
4.88322e-10
4.89366e-10
4.90373e-10
4.91344e-10
4.9228e-10
4.93183e-10
4.94052e-10
4.9489e-10
4.95698e-10
4.96475e-10
4.97224e-10
4.97945e-10
4.9864e-10
4.99308e-10
4.9995e-10
5.00569e-10
5.01164e-10
5.01737e-10
5.02286e-10
5.02816e-10
5.03324e-10
5.03814e-10
5.04282e-10
5.04735e-10
5.05166e-10
5.05584e-10
5.05982e-10
5.06368e-10
5.06735e-10
5.07089e-10
5.07428e-10
5.07753e-10
5.08066e-10
5.08364e-10
5.08652e-10
5.08926e-10
5.09192e-10
5.09443e-10
5.09687e-10
5.09917e-10
5.10141e-10
5.10353e-10
5.10558e-10
5.10752e-10
5.1094e-10
5.11118e-10
5.11289e-10
5.11453e-10
5.11609e-10
5.11758e-10
5.11898e-10
5.12031e-10
5.12161e-10
5.12336e-10
0.00345463
0.00328331
0.00302907
0.00305151
0.00281838
0.00271649
0.00242121
0.000281425
0.000335158
0.000847616
0.000639376
0.00021758
4.9243e-05
7.94471e-06
1.07711e-06
1.34006e-07
1.74145e-08
4.19757e-09
2.93134e-09
2.93174e-09
3.07397e-09
3.25261e-09
3.41323e-09
3.56702e-09
3.71773e-09
3.86567e-09
4.01085e-09
4.15323e-09
4.29279e-09
4.42951e-09
4.56335e-09
4.69431e-09
4.82239e-09
4.94758e-09
5.0699e-09
5.18939e-09
5.30607e-09
5.41999e-09
5.53098e-09
5.63983e-09
5.74529e-09
5.849e-09
5.94953e-09
6.0477e-09
6.1434e-09
6.23672e-09
6.32769e-09
6.41637e-09
6.5028e-09
6.58702e-09
6.66907e-09
6.74901e-09
6.82687e-09
6.90269e-09
6.97652e-09
7.04841e-09
7.11837e-09
7.18647e-09
7.25272e-09
7.31718e-09
7.37988e-09
7.44085e-09
7.50013e-09
7.55776e-09
7.61376e-09
7.66817e-09
7.72103e-09
7.77237e-09
7.82222e-09
7.87061e-09
7.91757e-09
7.96315e-09
8.00736e-09
8.05024e-09
8.09181e-09
8.13212e-09
8.17118e-09
8.20904e-09
8.2457e-09
8.28122e-09
8.31561e-09
8.3489e-09
8.38112e-09
8.41229e-09
8.44246e-09
8.47163e-09
8.49984e-09
8.52712e-09
8.55348e-09
8.57895e-09
8.60356e-09
8.62733e-09
8.65029e-09
8.67246e-09
8.69386e-09
8.71452e-09
8.73445e-09
8.75368e-09
8.77223e-09
8.79011e-09
8.80736e-09
8.82399e-09
8.84001e-09
8.85545e-09
8.87033e-09
8.88466e-09
8.89846e-09
8.91174e-09
8.92453e-09
8.93685e-09
8.94869e-09
8.9601e-09
8.97106e-09
8.98161e-09
8.99174e-09
9.00151e-09
9.01086e-09
9.01989e-09
9.02853e-09
9.03687e-09
9.04483e-09
9.05253e-09
9.05987e-09
9.06697e-09
9.07374e-09
9.08027e-09
9.08652e-09
9.09251e-09
9.09828e-09
9.10378e-09
9.10909e-09
9.11414e-09
9.11903e-09
9.12366e-09
9.12816e-09
9.13241e-09
9.13654e-09
9.14044e-09
9.14422e-09
9.1478e-09
9.15126e-09
9.15454e-09
9.15771e-09
9.16072e-09
9.1636e-09
9.16634e-09
9.16893e-09
9.17138e-09
9.17378e-09
9.177e-09
0.00649832
0.00601772
0.00548942
0.00541029
0.00493898
0.00466909
0.00463129
0.000699201
0.000273079
0.00119032
0.00109557
0.000440593
0.000111708
1.99695e-05
2.92149e-06
3.93115e-07
5.98274e-08
2.02556e-08
1.66494e-08
1.69869e-08
1.79032e-08
1.89251e-08
1.98479e-08
2.07401e-08
2.16141e-08
2.24708e-08
2.33102e-08
2.41321e-08
2.49364e-08
2.57229e-08
2.64915e-08
2.72422e-08
2.7975e-08
2.869e-08
2.93873e-08
3.00672e-08
3.07298e-08
3.13756e-08
3.20036e-08
3.26183e-08
3.32129e-08
3.37964e-08
3.43611e-08
3.49115e-08
3.54472e-08
3.59687e-08
3.64763e-08
3.69704e-08
3.74511e-08
3.79189e-08
3.8374e-08
3.88167e-08
3.92474e-08
3.96662e-08
4.00736e-08
4.04696e-08
4.08547e-08
4.1229e-08
4.15928e-08
4.19463e-08
4.22898e-08
4.26235e-08
4.29476e-08
4.32623e-08
4.35679e-08
4.38645e-08
4.41524e-08
4.44318e-08
4.47028e-08
4.49657e-08
4.52207e-08
4.54679e-08
4.57075e-08
4.59398e-08
4.61648e-08
4.63829e-08
4.6594e-08
4.67985e-08
4.69964e-08
4.7188e-08
4.73735e-08
4.75529e-08
4.77264e-08
4.78943e-08
4.80566e-08
4.82135e-08
4.83651e-08
4.85116e-08
4.86532e-08
4.879e-08
4.8922e-08
4.90495e-08
4.91726e-08
4.92914e-08
4.94061e-08
4.95167e-08
4.96235e-08
4.97264e-08
4.98256e-08
4.99213e-08
5.00136e-08
5.01025e-08
5.01882e-08
5.02707e-08
5.03502e-08
5.04267e-08
5.05004e-08
5.05714e-08
5.06397e-08
5.07054e-08
5.07687e-08
5.08295e-08
5.0888e-08
5.09443e-08
5.09984e-08
5.10504e-08
5.11003e-08
5.11485e-08
5.11945e-08
5.1239e-08
5.12814e-08
5.13225e-08
5.13616e-08
5.13994e-08
5.14355e-08
5.14703e-08
5.15036e-08
5.15355e-08
5.15662e-08
5.15955e-08
5.16238e-08
5.16507e-08
5.16768e-08
5.17014e-08
5.17254e-08
5.1748e-08
5.177e-08
5.17907e-08
5.18108e-08
5.18299e-08
5.18483e-08
5.18658e-08
5.18827e-08
5.18987e-08
5.1914e-08
5.19286e-08
5.19424e-08
5.19554e-08
5.19682e-08
5.19854e-08
0.00844981
0.00784032
0.00724235
0.0070154
0.00614667
0.00544793
0.00589458
0.00147489
0.000324294
0.000961755
0.00116776
0.000627213
0.000170448
3.25002e-05
5.05602e-06
7.35325e-07
1.34103e-07
5.98956e-08
5.37605e-08
5.53196e-08
5.82544e-08
6.13176e-08
6.40889e-08
6.67584e-08
6.93524e-08
7.18745e-08
7.4326e-08
7.67079e-08
7.9021e-08
8.12665e-08
8.34454e-08
8.55589e-08
8.76086e-08
8.95956e-08
9.15216e-08
9.33885e-08
9.51977e-08
9.69511e-08
9.86476e-08
1.00299e-07
1.01889e-07
1.03439e-07
1.04931e-07
1.06376e-07
1.07775e-07
1.09129e-07
1.10441e-07
1.11711e-07
1.1294e-07
1.14131e-07
1.15284e-07
1.164e-07
1.17481e-07
1.18528e-07
1.19542e-07
1.20523e-07
1.21474e-07
1.22395e-07
1.23286e-07
1.24149e-07
1.24985e-07
1.25794e-07
1.26577e-07
1.27335e-07
1.28068e-07
1.28779e-07
1.29466e-07
1.30131e-07
1.30774e-07
1.31396e-07
1.31998e-07
1.3258e-07
1.33143e-07
1.33687e-07
1.34213e-07
1.34722e-07
1.35213e-07
1.35688e-07
1.36147e-07
1.3659e-07
1.37019e-07
1.37432e-07
1.37832e-07
1.38217e-07
1.38589e-07
1.38948e-07
1.39295e-07
1.39629e-07
1.39952e-07
1.40263e-07
1.40564e-07
1.40853e-07
1.41132e-07
1.41401e-07
1.41661e-07
1.41911e-07
1.42152e-07
1.42384e-07
1.42608e-07
1.42823e-07
1.43031e-07
1.43231e-07
1.43423e-07
1.43608e-07
1.43787e-07
1.43958e-07
1.44123e-07
1.44282e-07
1.44435e-07
1.44582e-07
1.44723e-07
1.44859e-07
1.44989e-07
1.45115e-07
1.45235e-07
1.45351e-07
1.45463e-07
1.4557e-07
1.45672e-07
1.45771e-07
1.45865e-07
1.45957e-07
1.46044e-07
1.46128e-07
1.46208e-07
1.46285e-07
1.46359e-07
1.4643e-07
1.46498e-07
1.46563e-07
1.46625e-07
1.46685e-07
1.46743e-07
1.46797e-07
1.4685e-07
1.46901e-07
1.46949e-07
1.46995e-07
1.4704e-07
1.47082e-07
1.47123e-07
1.47161e-07
1.47199e-07
1.47234e-07
1.47268e-07
1.473e-07
1.47331e-07
1.4736e-07
1.47388e-07
1.47426e-07
0.00926835
0.00851819
0.00785637
0.00737997
0.00586091
0.00409714
0.00419801
0.00141573
0.000421859
0.00040983
0.000679357
0.000581631
0.000200519
4.2475e-05
7.11182e-06
1.12425e-06
2.42805e-07
1.30055e-07
1.21496e-07
1.25002e-07
1.30776e-07
1.36569e-07
1.4175e-07
1.46656e-07
1.5134e-07
1.55815e-07
1.60092e-07
1.64179e-07
1.68086e-07
1.7182e-07
1.75389e-07
1.788e-07
1.82063e-07
1.85182e-07
1.88166e-07
1.91021e-07
1.93753e-07
1.9637e-07
1.98872e-07
2.01281e-07
2.03576e-07
2.05796e-07
2.07915e-07
2.09955e-07
2.11914e-07
2.13799e-07
2.15612e-07
2.17356e-07
2.19034e-07
2.2065e-07
2.22205e-07
2.23703e-07
2.25147e-07
2.26537e-07
2.27877e-07
2.29168e-07
2.30412e-07
2.31612e-07
2.32769e-07
2.33884e-07
2.3496e-07
2.35997e-07
2.36998e-07
2.37962e-07
2.38893e-07
2.3979e-07
2.40656e-07
2.41491e-07
2.42297e-07
2.43073e-07
2.43823e-07
2.44545e-07
2.45242e-07
2.45914e-07
2.46562e-07
2.47187e-07
2.4779e-07
2.48371e-07
2.48931e-07
2.49471e-07
2.49991e-07
2.50493e-07
2.50976e-07
2.51442e-07
2.51891e-07
2.52324e-07
2.52741e-07
2.53142e-07
2.53529e-07
2.53901e-07
2.5426e-07
2.54606e-07
2.54939e-07
2.55259e-07
2.55568e-07
2.55865e-07
2.56152e-07
2.56427e-07
2.56692e-07
2.56947e-07
2.57193e-07
2.57429e-07
2.57657e-07
2.57875e-07
2.58085e-07
2.58288e-07
2.58482e-07
2.58669e-07
2.58849e-07
2.59022e-07
2.59188e-07
2.59347e-07
2.595e-07
2.59648e-07
2.59789e-07
2.59925e-07
2.60055e-07
2.60181e-07
2.60301e-07
2.60416e-07
2.60527e-07
2.60633e-07
2.60735e-07
2.60833e-07
2.60927e-07
2.61017e-07
2.61103e-07
2.61186e-07
2.61265e-07
2.61341e-07
2.61414e-07
2.61484e-07
2.61551e-07
2.61615e-07
2.61676e-07
2.61735e-07
2.61792e-07
2.61845e-07
2.61897e-07
2.61946e-07
2.61994e-07
2.62038e-07
2.62082e-07
2.62123e-07
2.62163e-07
2.622e-07
2.62236e-07
2.62269e-07
2.62301e-07
2.62347e-07
0.0118983
0.0108465
0.0098247
0.00920689
0.00707211
0.00320983
0.00212578
0.00108601
0.000547833
0.000328352
0.000351166
0.000486173
0.000235315
5.27727e-05
9.34542e-06
1.57255e-06
3.80057e-07
2.22689e-07
2.09843e-07
2.14126e-07
2.21062e-07
2.28062e-07
2.34193e-07
2.39878e-07
2.452e-07
2.50194e-07
2.54884e-07
2.59294e-07
2.63444e-07
2.67353e-07
2.71038e-07
2.74514e-07
2.77798e-07
2.809e-07
2.83835e-07
2.86614e-07
2.89248e-07
2.91746e-07
2.94113e-07
2.96373e-07
2.98507e-07
3.00553e-07
3.0249e-07
3.04339e-07
3.06101e-07
3.07782e-07
3.09388e-07
3.10922e-07
3.12387e-07
3.13789e-07
3.1513e-07
3.16414e-07
3.17643e-07
3.18821e-07
3.1995e-07
3.21031e-07
3.22069e-07
3.23064e-07
3.24019e-07
3.24936e-07
3.25816e-07
3.26661e-07
3.27473e-07
3.28252e-07
3.29002e-07
3.29721e-07
3.30413e-07
3.31078e-07
3.31718e-07
3.32332e-07
3.32923e-07
3.33492e-07
3.34038e-07
3.34564e-07
3.35069e-07
3.35555e-07
3.36023e-07
3.36473e-07
3.36905e-07
3.37321e-07
3.37722e-07
3.38107e-07
3.38477e-07
3.38833e-07
3.39176e-07
3.39505e-07
3.39822e-07
3.40127e-07
3.4042e-07
3.40702e-07
3.40973e-07
3.41233e-07
3.41484e-07
3.41725e-07
3.41957e-07
3.4218e-07
3.42394e-07
3.426e-07
3.42799e-07
3.4299e-07
3.43173e-07
3.43349e-07
3.43519e-07
3.43682e-07
3.43838e-07
3.43989e-07
3.44134e-07
3.44273e-07
3.44406e-07
3.44534e-07
3.44657e-07
3.44776e-07
3.44889e-07
3.44998e-07
3.45103e-07
3.45204e-07
3.453e-07
3.45393e-07
3.45481e-07
3.45567e-07
3.45648e-07
3.45727e-07
3.45802e-07
3.45875e-07
3.45944e-07
3.4601e-07
3.46074e-07
3.46135e-07
3.46193e-07
3.46249e-07
3.46303e-07
3.46354e-07
3.46404e-07
3.4645e-07
3.46496e-07
3.46539e-07
3.46581e-07
3.4662e-07
3.46658e-07
3.46694e-07
3.46729e-07
3.46762e-07
3.46794e-07
3.46824e-07
3.46853e-07
3.46881e-07
3.46907e-07
3.46932e-07
3.46955e-07
3.46989e-07
0.0170572
0.0156777
0.0141507
0.0134457
0.0110045
0.00497835
0.0021918
0.00129522
0.000657291
0.000631774
0.00068459
0.000672572
0.000275223
6.46308e-05
1.18276e-05
2.05501e-06
5.20019e-07
3.12026e-07
2.92321e-07
2.95593e-07
3.01476e-07
3.07663e-07
3.12971e-07
3.17768e-07
3.22167e-07
3.26216e-07
3.29951e-07
3.33403e-07
3.366e-07
3.39565e-07
3.4232e-07
3.44883e-07
3.47272e-07
3.49501e-07
3.51585e-07
3.53536e-07
3.55364e-07
3.5708e-07
3.58691e-07
3.60213e-07
3.61638e-07
3.62993e-07
3.64263e-07
3.65467e-07
3.66605e-07
3.67683e-07
3.68705e-07
3.69675e-07
3.70596e-07
3.71472e-07
3.72304e-07
3.73096e-07
3.73851e-07
3.7457e-07
3.75255e-07
3.75909e-07
3.76533e-07
3.77129e-07
3.77699e-07
3.78243e-07
3.78764e-07
3.79262e-07
3.79738e-07
3.80194e-07
3.80631e-07
3.81049e-07
3.8145e-07
3.81834e-07
3.82202e-07
3.82555e-07
3.82893e-07
3.83218e-07
3.83529e-07
3.83828e-07
3.84114e-07
3.84389e-07
3.84653e-07
3.84907e-07
3.8515e-07
3.85383e-07
3.85608e-07
3.85823e-07
3.8603e-07
3.86228e-07
3.86419e-07
3.86602e-07
3.86778e-07
3.86947e-07
3.87109e-07
3.87265e-07
3.87414e-07
3.87558e-07
3.87696e-07
3.87829e-07
3.87956e-07
3.88079e-07
3.88196e-07
3.88309e-07
3.88418e-07
3.88522e-07
3.88622e-07
3.88719e-07
3.88812e-07
3.88901e-07
3.88986e-07
3.89068e-07
3.89147e-07
3.89223e-07
3.89296e-07
3.89366e-07
3.89433e-07
3.89498e-07
3.89559e-07
3.89619e-07
3.89676e-07
3.89731e-07
3.89783e-07
3.89834e-07
3.89882e-07
3.89929e-07
3.89973e-07
3.90016e-07
3.90057e-07
3.90096e-07
3.90134e-07
3.9017e-07
3.90204e-07
3.90237e-07
3.90269e-07
3.903e-07
3.90329e-07
3.90357e-07
3.90384e-07
3.90409e-07
3.90434e-07
3.90457e-07
3.9048e-07
3.90501e-07
3.90522e-07
3.90541e-07
3.9056e-07
3.90578e-07
3.90596e-07
3.90612e-07
3.90628e-07
3.90643e-07
3.90657e-07
3.90671e-07
3.90682e-07
3.90703e-07
0.0217105
0.0200382
0.0181799
0.0172896
0.0145826
0.00730819
0.00357708
0.00230615
0.00141152
0.00136963
0.00139042
0.000953289
0.000341039
7.88366e-05
1.44502e-05
2.51884e-06
6.38549e-07
3.80911e-07
3.53325e-07
3.54367e-07
3.58158e-07
3.62321e-07
3.65905e-07
3.69046e-07
3.71866e-07
3.74411e-07
3.76717e-07
3.78812e-07
3.80721e-07
3.82464e-07
3.84061e-07
3.85526e-07
3.86875e-07
3.88117e-07
3.89266e-07
3.90329e-07
3.91316e-07
3.92233e-07
3.93085e-07
3.93884e-07
3.94624e-07
3.95325e-07
3.95974e-07
3.96587e-07
3.97162e-07
3.97703e-07
3.98213e-07
3.98694e-07
3.99148e-07
3.99577e-07
3.99984e-07
4.00368e-07
4.00733e-07
4.01079e-07
4.01408e-07
4.01721e-07
4.02018e-07
4.02301e-07
4.0257e-07
4.02826e-07
4.03071e-07
4.03304e-07
4.03527e-07
4.03739e-07
4.03942e-07
4.04136e-07
4.04322e-07
4.04499e-07
4.04669e-07
4.04831e-07
4.04987e-07
4.05136e-07
4.05278e-07
4.05415e-07
4.05545e-07
4.05671e-07
4.05791e-07
4.05906e-07
4.06017e-07
4.06123e-07
4.06224e-07
4.06322e-07
4.06415e-07
4.06505e-07
4.06591e-07
4.06674e-07
4.06753e-07
4.06829e-07
4.06902e-07
4.06972e-07
4.0704e-07
4.07104e-07
4.07167e-07
4.07226e-07
4.07283e-07
4.07338e-07
4.07391e-07
4.07442e-07
4.0749e-07
4.07537e-07
4.07582e-07
4.07626e-07
4.07667e-07
4.07707e-07
4.07746e-07
4.07783e-07
4.07818e-07
4.07853e-07
4.07886e-07
4.07917e-07
4.07948e-07
4.07977e-07
4.08005e-07
4.08032e-07
4.08058e-07
4.08082e-07
4.08106e-07
4.08129e-07
4.08151e-07
4.08172e-07
4.08192e-07
4.08212e-07
4.0823e-07
4.08248e-07
4.08265e-07
4.08282e-07
4.08298e-07
4.08313e-07
4.08327e-07
4.08341e-07
4.08354e-07
4.08367e-07
4.08379e-07
4.08391e-07
4.08402e-07
4.08413e-07
4.08423e-07
4.08433e-07
4.08442e-07
4.08451e-07
4.0846e-07
4.08468e-07
4.08476e-07
4.08483e-07
4.08491e-07
4.08498e-07
4.08504e-07
4.08511e-07
4.08515e-07
4.08526e-07
0.0256417
0.0238582
0.0218669
0.0208161
0.0178012
0.00938676
0.00512665
0.00394759
0.00277458
0.00230802
0.00206386
0.00120916
0.000409193
9.25071e-05
1.67316e-05
2.88869e-06
7.22984e-07
4.25502e-07
3.91162e-07
3.89794e-07
3.9177e-07
3.93909e-07
3.95821e-07
3.97457e-07
3.98892e-07
4.0016e-07
4.01285e-07
4.02289e-07
4.03187e-07
4.03993e-07
4.04721e-07
4.05379e-07
4.05977e-07
4.0652e-07
4.07016e-07
4.0747e-07
4.07887e-07
4.08272e-07
4.08625e-07
4.08953e-07
4.09256e-07
4.09539e-07
4.09802e-07
4.10045e-07
4.10275e-07
4.1049e-07
4.10691e-07
4.1088e-07
4.11057e-07
4.11225e-07
4.11383e-07
4.11532e-07
4.11673e-07
4.11806e-07
4.11933e-07
4.12053e-07
4.12167e-07
4.12276e-07
4.12379e-07
4.12477e-07
4.12571e-07
4.1266e-07
4.12745e-07
4.12827e-07
4.12904e-07
4.12978e-07
4.13049e-07
4.13117e-07
4.13182e-07
4.13245e-07
4.13304e-07
4.13361e-07
4.13416e-07
4.13469e-07
4.13519e-07
4.13567e-07
4.13614e-07
4.13658e-07
4.13701e-07
4.13742e-07
4.13781e-07
4.13819e-07
4.13856e-07
4.1389e-07
4.13924e-07
4.13956e-07
4.13987e-07
4.14017e-07
4.14046e-07
4.14073e-07
4.14099e-07
4.14125e-07
4.14149e-07
4.14173e-07
4.14195e-07
4.14217e-07
4.14238e-07
4.14258e-07
4.14277e-07
4.14296e-07
4.14314e-07
4.14332e-07
4.14348e-07
4.14365e-07
4.1438e-07
4.14395e-07
4.1441e-07
4.14424e-07
4.14437e-07
4.1445e-07
4.14463e-07
4.14475e-07
4.14487e-07
4.14498e-07
4.14509e-07
4.14519e-07
4.14529e-07
4.14539e-07
4.14548e-07
4.14557e-07
4.14565e-07
4.14574e-07
4.14582e-07
4.14589e-07
4.14597e-07
4.14604e-07
4.1461e-07
4.14617e-07
4.14623e-07
4.14629e-07
4.14635e-07
4.1464e-07
4.14645e-07
4.1465e-07
4.14655e-07
4.1466e-07
4.14664e-07
4.14668e-07
4.14673e-07
4.14676e-07
4.1468e-07
4.14684e-07
4.14687e-07
4.1469e-07
4.14694e-07
4.14697e-07
4.14699e-07
4.14703e-07
4.14703e-07
4.1471e-07
0.0280016
0.0266049
0.0249478
0.0240161
0.0206838
0.011007
0.00581738
0.00483874
0.0041317
0.00349123
0.00281527
0.0014705
0.000472979
0.000103337
1.84081e-05
3.13914e-06
7.7445e-07
4.50711e-07
4.11877e-07
4.08622e-07
4.09211e-07
4.10054e-07
4.10787e-07
4.11402e-07
4.11922e-07
4.12365e-07
4.12744e-07
4.13071e-07
4.13355e-07
4.13602e-07
4.13819e-07
4.14009e-07
4.14179e-07
4.14329e-07
4.14463e-07
4.14584e-07
4.14693e-07
4.14792e-07
4.14881e-07
4.14965e-07
4.15039e-07
4.15111e-07
4.15174e-07
4.15235e-07
4.15291e-07
4.15344e-07
4.15393e-07
4.1544e-07
4.15483e-07
4.15525e-07
4.15564e-07
4.15602e-07
4.15637e-07
4.15671e-07
4.15704e-07
4.15735e-07
4.15765e-07
4.15794e-07
4.15822e-07
4.15848e-07
4.15874e-07
4.15898e-07
4.15922e-07
4.15945e-07
4.15967e-07
4.15989e-07
4.1601e-07
4.1603e-07
4.16049e-07
4.16068e-07
4.16086e-07
4.16104e-07
4.16121e-07
4.16137e-07
4.16153e-07
4.16169e-07
4.16184e-07
4.16198e-07
4.16212e-07
4.16226e-07
4.16239e-07
4.16252e-07
4.16264e-07
4.16276e-07
4.16288e-07
4.16299e-07
4.1631e-07
4.16321e-07
4.16331e-07
4.16341e-07
4.1635e-07
4.1636e-07
4.16369e-07
4.16377e-07
4.16386e-07
4.16394e-07
4.16402e-07
4.16409e-07
4.16417e-07
4.16424e-07
4.16431e-07
4.16438e-07
4.16445e-07
4.16451e-07
4.16458e-07
4.16464e-07
4.1647e-07
4.16476e-07
4.16482e-07
4.16487e-07
4.16493e-07
4.16498e-07
4.16503e-07
4.16508e-07
4.16513e-07
4.16517e-07
4.16522e-07
4.16526e-07
4.1653e-07
4.16535e-07
4.16538e-07
4.16542e-07
4.16546e-07
4.16549e-07
4.16553e-07
4.16556e-07
4.16559e-07
4.16562e-07
4.16565e-07
4.16568e-07
4.16571e-07
4.16573e-07
4.16576e-07
4.16578e-07
4.16581e-07
4.16583e-07
4.16585e-07
4.16587e-07
4.16589e-07
4.1659e-07
4.16593e-07
4.16594e-07
4.16596e-07
4.16597e-07
4.16599e-07
4.166e-07
4.16602e-07
4.16604e-07
4.16603e-07
4.16608e-07
0.0275246
0.0275301
0.0268165
0.0261243
0.0227572
0.0120143
0.00548675
0.00458314
0.0048825
0.00462754
0.00359176
0.00172859
0.000527456
0.0001116
1.95e-05
3.27308e-06
7.98353e-07
4.62949e-07
4.22117e-07
4.17788e-07
4.17509e-07
4.17582e-07
4.17646e-07
4.17677e-07
4.17684e-07
4.17673e-07
4.17649e-07
4.17617e-07
4.17579e-07
4.17538e-07
4.17496e-07
4.17452e-07
4.1741e-07
4.17369e-07
4.17329e-07
4.17291e-07
4.17255e-07
4.17222e-07
4.1719e-07
4.17162e-07
4.17133e-07
4.1711e-07
4.17085e-07
4.17065e-07
4.17046e-07
4.17028e-07
4.17013e-07
4.16999e-07
4.16986e-07
4.16975e-07
4.16965e-07
4.16956e-07
4.16948e-07
4.16942e-07
4.16936e-07
4.16931e-07
4.16928e-07
4.16924e-07
4.16922e-07
4.1692e-07
4.16919e-07
4.16918e-07
4.16918e-07
4.16919e-07
4.16919e-07
4.16921e-07
4.16922e-07
4.16924e-07
4.16926e-07
4.16928e-07
4.16931e-07
4.16933e-07
4.16936e-07
4.16939e-07
4.16942e-07
4.16946e-07
4.16949e-07
4.16952e-07
4.16956e-07
4.1696e-07
4.16963e-07
4.16967e-07
4.1697e-07
4.16974e-07
4.16978e-07
4.16981e-07
4.16985e-07
4.16989e-07
4.16992e-07
4.16996e-07
4.16999e-07
4.17003e-07
4.17006e-07
4.1701e-07
4.17013e-07
4.17016e-07
4.1702e-07
4.17023e-07
4.17026e-07
4.17029e-07
4.17032e-07
4.17036e-07
4.17039e-07
4.17042e-07
4.17045e-07
4.17048e-07
4.17052e-07
4.17055e-07
4.17058e-07
4.17061e-07
4.17064e-07
4.17067e-07
4.17069e-07
4.17072e-07
4.17075e-07
4.17077e-07
4.1708e-07
4.17083e-07
4.17085e-07
4.17087e-07
4.1709e-07
4.17092e-07
4.17094e-07
4.17096e-07
4.17098e-07
4.171e-07
4.17102e-07
4.17104e-07
4.17106e-07
4.17107e-07
4.17109e-07
4.17111e-07
4.17112e-07
4.17114e-07
4.17115e-07
4.17117e-07
4.17118e-07
4.17119e-07
4.17121e-07
4.17122e-07
4.17123e-07
4.17124e-07
4.17125e-07
4.17126e-07
4.17127e-07
4.17128e-07
4.17129e-07
4.1713e-07
4.17129e-07
4.17134e-07
0.0245361
0.0258368
0.0266134
0.0259218
0.0225857
0.012007
0.00481828
0.00399325
0.0053084
0.00565639
0.00439525
0.00197309
0.000571854
0.000117033
1.99545e-05
3.29862e-06
8.01133e-07
4.67302e-07
4.26688e-07
4.21936e-07
4.21203e-07
4.20869e-07
4.20583e-07
4.20315e-07
4.20063e-07
4.19827e-07
4.19607e-07
4.19403e-07
4.19214e-07
4.1904e-07
4.18879e-07
4.18731e-07
4.18595e-07
4.1847e-07
4.18355e-07
4.18249e-07
4.18152e-07
4.18063e-07
4.17981e-07
4.17907e-07
4.17836e-07
4.17775e-07
4.17716e-07
4.17663e-07
4.17614e-07
4.1757e-07
4.17529e-07
4.17492e-07
4.17458e-07
4.17427e-07
4.17398e-07
4.17372e-07
4.17349e-07
4.17327e-07
4.17308e-07
4.1729e-07
4.17274e-07
4.17259e-07
4.17246e-07
4.17234e-07
4.17224e-07
4.17214e-07
4.17206e-07
4.17198e-07
4.17192e-07
4.17186e-07
4.17181e-07
4.17176e-07
4.17172e-07
4.17169e-07
4.17166e-07
4.17164e-07
4.17162e-07
4.17161e-07
4.17159e-07
4.17159e-07
4.17158e-07
4.17158e-07
4.17158e-07
4.17158e-07
4.17159e-07
4.17159e-07
4.1716e-07
4.17161e-07
4.17162e-07
4.17163e-07
4.17165e-07
4.17166e-07
4.17168e-07
4.17169e-07
4.17171e-07
4.17172e-07
4.17174e-07
4.17176e-07
4.17178e-07
4.17179e-07
4.17181e-07
4.17183e-07
4.17185e-07
4.17187e-07
4.17189e-07
4.17191e-07
4.17193e-07
4.17195e-07
4.17197e-07
4.172e-07
4.17202e-07
4.17204e-07
4.17206e-07
4.17208e-07
4.17211e-07
4.17213e-07
4.17215e-07
4.17217e-07
4.17219e-07
4.17221e-07
4.17223e-07
4.17225e-07
4.17227e-07
4.17229e-07
4.1723e-07
4.17232e-07
4.17234e-07
4.17236e-07
4.17237e-07
4.17239e-07
4.1724e-07
4.17242e-07
4.17243e-07
4.17245e-07
4.17246e-07
4.17247e-07
4.17249e-07
4.1725e-07
4.17251e-07
4.17252e-07
4.17253e-07
4.17254e-07
4.17255e-07
4.17256e-07
4.17257e-07
4.17258e-07
4.17259e-07
4.1726e-07
4.17261e-07
4.17262e-07
4.17262e-07
4.17264e-07
4.17262e-07
4.17267e-07
0.0202296
0.0217008
0.0227945
0.0219969
0.0190382
0.0104832
0.00417237
0.00331451
0.00514833
0.00642842
0.00516638
0.00218085
0.000601526
0.000118612
1.98128e-05
3.23101e-06
7.88444e-07
4.66992e-07
4.28386e-07
4.23675e-07
4.22746e-07
4.22218e-07
4.21766e-07
4.21357e-07
4.20986e-07
4.20649e-07
4.20342e-07
4.20064e-07
4.1981e-07
4.19579e-07
4.19369e-07
4.19178e-07
4.19004e-07
4.18845e-07
4.187e-07
4.18567e-07
4.18446e-07
4.18336e-07
4.18235e-07
4.18144e-07
4.18058e-07
4.17982e-07
4.1791e-07
4.17846e-07
4.17786e-07
4.17732e-07
4.17682e-07
4.17637e-07
4.17595e-07
4.17557e-07
4.17523e-07
4.17491e-07
4.17462e-07
4.17435e-07
4.17411e-07
4.17389e-07
4.17369e-07
4.17351e-07
4.17334e-07
4.17319e-07
4.17306e-07
4.17293e-07
4.17282e-07
4.17272e-07
4.17263e-07
4.17255e-07
4.17248e-07
4.17242e-07
4.17236e-07
4.17231e-07
4.17226e-07
4.17223e-07
4.17219e-07
4.17217e-07
4.17214e-07
4.17212e-07
4.17211e-07
4.17209e-07
4.17208e-07
4.17208e-07
4.17207e-07
4.17207e-07
4.17207e-07
4.17207e-07
4.17208e-07
4.17208e-07
4.17209e-07
4.1721e-07
4.1721e-07
4.17211e-07
4.17212e-07
4.17214e-07
4.17215e-07
4.17216e-07
4.17217e-07
4.17219e-07
4.1722e-07
4.17222e-07
4.17223e-07
4.17225e-07
4.17226e-07
4.17228e-07
4.1723e-07
4.17232e-07
4.17234e-07
4.17236e-07
4.17238e-07
4.1724e-07
4.17242e-07
4.17244e-07
4.17246e-07
4.17247e-07
4.17249e-07
4.17251e-07
4.17253e-07
4.17255e-07
4.17257e-07
4.17259e-07
4.1726e-07
4.17262e-07
4.17264e-07
4.17266e-07
4.17267e-07
4.17269e-07
4.1727e-07
4.17272e-07
4.17273e-07
4.17275e-07
4.17276e-07
4.17277e-07
4.17279e-07
4.1728e-07
4.17281e-07
4.17282e-07
4.17283e-07
4.17284e-07
4.17285e-07
4.17286e-07
4.17287e-07
4.17288e-07
4.17289e-07
4.1729e-07
4.17291e-07
4.17291e-07
4.17292e-07
4.17293e-07
4.17294e-07
4.17295e-07
4.17293e-07
4.17298e-07
0.0143023
0.0151848
0.0157402
0.0151214
0.0132801
0.00823794
0.00371647
0.00217652
0.00402671
0.00675798
0.00612788
0.0024295
0.000620372
0.000116547
1.86699e-05
2.95995e-06
7.4215e-07
4.61405e-07
4.28581e-07
4.24511e-07
4.23536e-07
4.22898e-07
4.2235e-07
4.21862e-07
4.21424e-07
4.21031e-07
4.20678e-07
4.20359e-07
4.20071e-07
4.19811e-07
4.19576e-07
4.19363e-07
4.19169e-07
4.18993e-07
4.18834e-07
4.18689e-07
4.18556e-07
4.18436e-07
4.18326e-07
4.18227e-07
4.18134e-07
4.18052e-07
4.17975e-07
4.17906e-07
4.17843e-07
4.17785e-07
4.17731e-07
4.17683e-07
4.17639e-07
4.17598e-07
4.17561e-07
4.17527e-07
4.17496e-07
4.17468e-07
4.17442e-07
4.17418e-07
4.17397e-07
4.17377e-07
4.17359e-07
4.17343e-07
4.17328e-07
4.17315e-07
4.17303e-07
4.17292e-07
4.17283e-07
4.17274e-07
4.17266e-07
4.17259e-07
4.17253e-07
4.17248e-07
4.17243e-07
4.17239e-07
4.17235e-07
4.17232e-07
4.17229e-07
4.17227e-07
4.17225e-07
4.17223e-07
4.17222e-07
4.17221e-07
4.1722e-07
4.1722e-07
4.1722e-07
4.1722e-07
4.1722e-07
4.1722e-07
4.1722e-07
4.17221e-07
4.17222e-07
4.17222e-07
4.17223e-07
4.17224e-07
4.17225e-07
4.17226e-07
4.17227e-07
4.17228e-07
4.1723e-07
4.17231e-07
4.17232e-07
4.17234e-07
4.17235e-07
4.17237e-07
4.17239e-07
4.1724e-07
4.17242e-07
4.17244e-07
4.17246e-07
4.17248e-07
4.17249e-07
4.17251e-07
4.17253e-07
4.17255e-07
4.17257e-07
4.17259e-07
4.1726e-07
4.17262e-07
4.17264e-07
4.17266e-07
4.17267e-07
4.17269e-07
4.17271e-07
4.17272e-07
4.17274e-07
4.17275e-07
4.17277e-07
4.17278e-07
4.1728e-07
4.17281e-07
4.17282e-07
4.17284e-07
4.17285e-07
4.17286e-07
4.17287e-07
4.17288e-07
4.17289e-07
4.1729e-07
4.17292e-07
4.17292e-07
4.17293e-07
4.17294e-07
4.17295e-07
4.17296e-07
4.17297e-07
4.17298e-07
4.17298e-07
4.17299e-07
4.173e-07
4.17301e-07
4.17299e-07
4.17305e-07
0.01183
0.0117638
0.0119666
0.0130202
0.0134383
0.0102136
0.0045116
0.00188452
0.00212955
0.00452847
0.00505921
0.00233983
0.000564191
0.000100604
1.53193e-05
2.37934e-06
6.56571e-07
4.50709e-07
4.27618e-07
4.2458e-07
4.23663e-07
4.23001e-07
4.22428e-07
4.2192e-07
4.21466e-07
4.2106e-07
4.20697e-07
4.20371e-07
4.20077e-07
4.19813e-07
4.19575e-07
4.19359e-07
4.19165e-07
4.18988e-07
4.18828e-07
4.18684e-07
4.18552e-07
4.18433e-07
4.18323e-07
4.18228e-07
4.18136e-07
4.18057e-07
4.1798e-07
4.17911e-07
4.17848e-07
4.17789e-07
4.17736e-07
4.17687e-07
4.17642e-07
4.17601e-07
4.17564e-07
4.1753e-07
4.17498e-07
4.1747e-07
4.17444e-07
4.17421e-07
4.174e-07
4.17382e-07
4.17364e-07
4.17349e-07
4.17335e-07
4.17321e-07
4.17309e-07
4.17298e-07
4.17288e-07
4.17278e-07
4.1727e-07
4.17263e-07
4.17256e-07
4.1725e-07
4.17245e-07
4.17241e-07
4.17237e-07
4.17233e-07
4.1723e-07
4.17228e-07
4.17226e-07
4.17224e-07
4.17222e-07
4.17221e-07
4.1722e-07
4.1722e-07
4.1722e-07
4.17219e-07
4.17219e-07
4.1722e-07
4.1722e-07
4.17221e-07
4.17221e-07
4.17222e-07
4.17223e-07
4.17224e-07
4.17225e-07
4.17226e-07
4.17227e-07
4.17228e-07
4.1723e-07
4.17231e-07
4.17233e-07
4.17234e-07
4.17236e-07
4.17238e-07
4.17239e-07
4.17241e-07
4.17243e-07
4.17245e-07
4.17247e-07
4.17249e-07
4.17251e-07
4.17253e-07
4.17255e-07
4.17257e-07
4.17259e-07
4.17261e-07
4.17263e-07
4.17265e-07
4.17266e-07
4.17268e-07
4.1727e-07
4.17272e-07
4.17273e-07
4.17275e-07
4.17277e-07
4.17278e-07
4.1728e-07
4.17281e-07
4.17283e-07
4.17284e-07
4.17286e-07
4.17287e-07
4.17288e-07
4.1729e-07
4.17291e-07
4.17292e-07
4.17293e-07
4.17294e-07
4.17295e-07
4.17296e-07
4.17297e-07
4.17298e-07
4.17299e-07
4.173e-07
4.17301e-07
4.17302e-07
4.17302e-07
4.17303e-07
4.17304e-07
4.17305e-07
4.17303e-07
4.17308e-07
0.0125751
0.0120771
0.0120193
0.0136402
0.0149474
0.0132641
0.00692122
0.00213709
0.00115008
0.00218106
0.00282248
0.00176163
0.00043004
7.35781e-05
1.07963e-05
1.72516e-06
5.73955e-07
4.41476e-07
4.26763e-07
4.2461e-07
4.23764e-07
4.23104e-07
4.22528e-07
4.22016e-07
4.2156e-07
4.21152e-07
4.20786e-07
4.20458e-07
4.20162e-07
4.19895e-07
4.19653e-07
4.19434e-07
4.19236e-07
4.19056e-07
4.18893e-07
4.18743e-07
4.18607e-07
4.18482e-07
4.1837e-07
4.18259e-07
4.18162e-07
4.18072e-07
4.1799e-07
4.17918e-07
4.17853e-07
4.17793e-07
4.17739e-07
4.17689e-07
4.17643e-07
4.17601e-07
4.17563e-07
4.17527e-07
4.17494e-07
4.17464e-07
4.17436e-07
4.1741e-07
4.17387e-07
4.17366e-07
4.17346e-07
4.17328e-07
4.17313e-07
4.17298e-07
4.17286e-07
4.17276e-07
4.17267e-07
4.17259e-07
4.17252e-07
4.17247e-07