/*--------------------------------*- C++ -*----------------------------------*\
| =========                 |                                                 |
| \\      /  F ield         | OpenFOAM: The Open Source CFD Toolbox           |
|  \\    /   O peration     | Version:  v1912                                 |
|   \\  /    A nd           | Website:  www.openfoam.com                      |
|    \\/     M anipulation  |                                                 |
\*---------------------------------------------------------------------------*/
FoamFile
{
    version     2.0;
    format      ascii;
    class       volScalarField;
    location    "20";
    object      omega;
}
// * * * * * * * * * * * * * * * * * * * * * * * * * * * * * * * * * * * * * //

dimensions      [0 0 -1 0 0 0 0];


internalField   nonuniform List<scalar> 
14268
(
95.9938
89.7358
81.8914
76.7215
67.4327
56.3625
40.4888
35.595
51.5223
55.9425
49.196
45.2042
44.6551
44.5979
44.5922
44.5917
44.5916
44.5916
44.5916
44.5916
44.5916
44.5916
44.5916
44.5916
44.5916
44.5916
44.5916
44.5916
44.5916
44.5916
44.5916
44.5916
44.5916
44.5916
44.5916
44.5916
44.5916
44.5916
44.5916
44.5916
44.5916
44.5916
44.5916
44.5916
44.5916
44.5916
44.5916
44.5916
44.5916
44.5916
44.5916
44.5916
44.5916
44.5916
44.5916
44.5916
44.5916
44.5916
44.5916
44.5916
44.5916
44.5916
44.5916
44.5916
44.5916
44.5916
44.5916
44.5916
44.5916
44.5916
44.5916
44.5916
44.5916
44.5916
44.5916
44.5916
44.5916
44.5916
44.5916
44.5916
44.5916
44.5916
44.5916
44.5916
44.5916
44.5916
44.5916
44.5916
44.5916
44.5916
44.5916
44.5916
44.5916
44.5916
44.5916
44.5916
44.5916
44.5916
44.5916
44.5916
44.5916
44.5916
44.5916
44.5916
44.5916
44.5916
44.5916
44.5916
44.5916
44.5916
44.5916
44.5916
44.5916
44.5916
44.5916
44.5916
44.5916
44.5916
44.5916
44.5916
44.5916
44.5916
44.5916
44.5916
44.5916
44.5916
44.5916
44.5916
44.5916
44.5916
44.5916
44.5916
44.5916
44.5916
44.5916
44.5916
44.5916
44.5916
44.5916
44.5916
44.5916
44.5916
44.5916
44.5916
44.5916
44.5916
44.5916
44.5916
44.5916
44.5916
53.0766
49.2165
44.2024
39.2042
33.0675
25.624
14.6484
12.4478
17.127
18.0113
15.3162
11.7993
10.1397
9.56147
9.32822
9.19391
9.08928
9.00495
8.95091
8.90232
8.85823
8.8184
8.78201
8.74832
8.71678
8.68702
8.65876
8.6318
8.60599
8.58123
8.55741
8.53449
8.51239
8.49108
8.47052
8.45066
8.43147
8.41295
8.39504
8.3777
8.36106
8.34471
8.32913
8.31397
8.29934
8.28518
8.27148
8.25822
8.24538
8.23296
8.22093
8.20929
8.19802
8.18711
8.17654
8.16632
8.15642
8.14683
8.13755
8.12857
8.11987
8.11145
8.1033
8.09542
8.08778
8.0804
8.07325
8.06633
8.05964
8.05317
8.04691
8.04086
8.035
8.02934
8.02387
8.01858
8.01347
8.00853
8.00376
7.99915
7.9947
7.99041
7.98626
7.98225
7.97838
7.97465
7.97104
7.96756
7.9642
7.96097
7.95784
7.95483
7.95192
7.94912
7.94642
7.94381
7.9413
7.93888
7.93655
7.93431
7.93215
7.93007
7.92806
7.92613
7.92427
7.92249
7.92077
7.91911
7.91752
7.91599
7.91452
7.9131
7.91175
7.91044
7.90918
7.90797
7.90681
7.9057
7.90463
7.9036
7.90262
7.90167
7.90076
7.89989
7.89905
7.89825
7.89748
7.89674
7.89603
7.89535
7.8947
7.89408
7.89348
7.89291
7.89236
7.89183
7.89133
7.89085
7.89039
7.88995
7.88952
7.88912
7.88873
7.88836
7.88801
7.88767
7.88735
7.88706
7.88676
7.88637
30.5555
28.7169
26.2785
23.6301
20.2246
16.0198
9.6719
8.21191
10.7295
11.1574
9.12441
5.79555
4.20386
3.74408
3.59682
3.51802
3.45347
3.40605
3.37988
3.35528
3.33144
3.30891
3.28752
3.26709
3.24747
3.22859
3.21041
3.19288
3.17598
3.1597
3.144
3.12888
3.11432
3.10029
3.08679
3.07378
3.06126
3.04921
3.03762
3.02641
3.01569
3.00524
2.99528
2.98565
2.97638
2.96744
2.95882
2.9505
2.94248
2.93474
2.92728
2.92007
2.91312
2.90641
2.89993
2.89367
2.88763
2.8818
2.87616
2.87072
2.86547
2.86039
2.85549
2.85076
2.84618
2.84177
2.8375
2.83338
2.8294
2.82556
2.82185
2.81827
2.81481
2.81147
2.80824
2.80513
2.80212
2.79923
2.79643
2.79373
2.79112
2.78861
2.78618
2.78385
2.78159
2.77942
2.77732
2.7753
2.77335
2.77147
2.76966
2.76792
2.76623
2.76462
2.76306
2.76155
2.7601
2.75871
2.75737
2.75608
2.75483
2.75363
2.75248
2.75137
2.75031
2.74928
2.74829
2.74734
2.74643
2.74555
2.74471
2.7439
2.74312
2.74237
2.74165
2.74096
2.7403
2.73966
2.73905
2.73846
2.7379
2.73735
2.73684
2.73634
2.73586
2.7354
2.73496
2.73454
2.73414
2.73375
2.73338
2.73302
2.73268
2.73236
2.73204
2.73174
2.73146
2.73118
2.73092
2.73067
2.73043
2.7302
2.72998
2.72976
2.72956
2.72937
2.72919
2.72902
2.72885
2.72863
22.6125
21.3554
19.7726
17.9157
15.6047
12.778
8.24655
6.49759
7.8461
8.72275
7.05842
3.97769
2.54224
2.14436
2.01817
1.94881
1.89338
1.85676
1.83452
1.81305
1.7925
1.77306
1.75465
1.73716
1.72052
1.70466
1.68954
1.67513
1.66139
1.64827
1.63576
1.62383
1.61244
1.60157
1.59118
1.58126
1.57178
1.56272
1.55407
1.54575
1.53783
1.53019
1.52291
1.51593
1.50923
1.5028
1.49663
1.4907
1.48501
1.47954
1.47428
1.46922
1.46435
1.45967
1.45517
1.45083
1.44665
1.44263
1.43876
1.43503
1.43143
1.42797
1.42463
1.42141
1.41831
1.41532
1.41244
1.40966
1.40698
1.4044
1.40191
1.39951
1.39719
1.39496
1.39281
1.39074
1.38874
1.38682
1.38496
1.38317
1.38145
1.37979
1.37819
1.37664
1.37516
1.37373
1.37235
1.37102
1.36974
1.36851
1.36732
1.36618
1.36508
1.36402
1.363
1.36202
1.36108
1.36017
1.35929
1.35845
1.35764
1.35686
1.35611
1.35539
1.3547
1.35403
1.35339
1.35277
1.35218
1.35161
1.35106
1.35054
1.35003
1.34955
1.34908
1.34864
1.34821
1.34779
1.3474
1.34702
1.34665
1.3463
1.34597
1.34565
1.34534
1.34504
1.34476
1.34448
1.34422
1.34397
1.34373
1.3435
1.34328
1.34307
1.34287
1.34268
1.34249
1.34232
1.34215
1.34198
1.34183
1.34168
1.34154
1.3414
1.34127
1.34115
1.34103
1.34092
1.34081
1.34067
18.7474
17.6584
16.3934
14.8935
13.1171
11.1045
7.59958
5.82635
6.26495
7.24468
5.92576
3.1174
1.81682
1.47193
1.36064
1.29763
1.24964
1.22022
1.20029
1.18137
1.16365
1.14714
1.13175
1.11735
1.10385
1.09117
1.07924
1.06801
1.05743
1.04745
1.03803
1.02913
1.02072
1.01276
1.00522
0.998074
0.991295
0.984859
0.978752
0.972919
0.9674
0.962108
0.95709
0.9523
0.947729
0.943362
0.939189
0.935198
0.93138
0.927725
0.924224
0.920871
0.917656
0.914573
0.911616
0.908778
0.906054
0.903438
0.900925
0.898511
0.896192
0.893962
0.891819
0.889758
0.887776
0.88587
0.884037
0.882273
0.880576
0.878943
0.877372
0.87586
0.874405
0.873005
0.871657
0.87036
0.869112
0.86791
0.866754
0.865641
0.86457
0.863539
0.862546
0.861592
0.860673
0.859789
0.858938
0.85812
0.857332
0.856575
0.855846
0.855145
0.85447
0.853821
0.853196
0.852595
0.852017
0.85146
0.850925
0.850411
0.849916
0.84944
0.848983
0.848543
0.84812
0.847714
0.847324
0.846949
0.846588
0.846242
0.845909
0.84559
0.845283
0.844988
0.844705
0.844433
0.844173
0.843922
0.843683
0.843452
0.843231
0.843018
0.842816
0.84262
0.842433
0.842254
0.842082
0.841917
0.841759
0.841608
0.841462
0.841324
0.84119
0.841063
0.84094
0.840824
0.840712
0.840605
0.840502
0.840404
0.84031
0.84022
0.840135
0.840052
0.839974
0.839899
0.839829
0.839763
0.839697
0.83961
16.3737
15.3397
14.2235
12.9004
11.3391
9.84039
7.13959
5.54182
5.32262
5.93181
4.92986
2.52455
1.40166
1.11049
1.01498
0.960552
0.921255
0.898766
0.882591
0.867549
0.853719
0.841057
0.829429
0.818712
0.808804
0.799622
0.791095
0.783163
0.775773
0.768876
0.762432
0.756401
0.75075
0.745449
0.740469
0.735785
0.731373
0.727215
0.723294
0.719575
0.716075
0.712742
0.709597
0.706612
0.703778
0.701084
0.698522
0.696083
0.69376
0.691546
0.689434
0.687419
0.685495
0.683657
0.6819
0.68022
0.678613
0.677075
0.675602
0.674192
0.672841
0.671546
0.670304
0.669114
0.667972
0.666877
0.665826
0.664817
0.663849
0.662919
0.662027
0.66117
0.660347
0.659556
0.658797
0.658067
0.657366
0.656693
0.656046
0.655424
0.654827
0.654253
0.653701
0.653171
0.652662
0.652172
0.651702
0.65125
0.650816
0.650399
0.649998
0.649612
0.649241
0.648885
0.648542
0.648213
0.647896
0.647591
0.647298
0.647017
0.646747
0.646487
0.646237
0.645997
0.645766
0.645545
0.645332
0.645128
0.644932
0.644743
0.644562
0.644388
0.644221
0.644061
0.643908
0.64376
0.643619
0.643482
0.643352
0.643227
0.643107
0.642992
0.642882
0.642776
0.642675
0.642578
0.642484
0.642395
0.642309
0.642228
0.642149
0.642074
0.642002
0.641933
0.641867
0.641804
0.641743
0.641685
0.641629
0.641576
0.641526
0.641477
0.641431
0.641386
0.641344
0.641304
0.641266
0.64123
0.641195
0.641147
14.6283
13.6363
12.6228
11.3775
9.84617
8.47387
6.5831
5.03323
4.53945
4.46871
3.70908
1.95738
1.12333
0.896219
0.817741
0.772231
0.740786
0.724218
0.712417
0.701578
0.691765
0.682921
0.674922
0.667653
0.661024
0.654958
0.649394
0.644277
0.639561
0.635207
0.631179
0.627445
0.623978
0.620753
0.61775
0.614947
0.612328
0.609878
0.607583
0.605423
0.603401
0.601491
0.599698
0.598007
0.59641
0.594901
0.593474
0.592122
0.590841
0.589627
0.588474
0.587379
0.586338
0.585348
0.584406
0.583508
0.582653
0.581838
0.581061
0.580319
0.579611
0.578934
0.578288
0.577671
0.57708
0.576515
0.575975
0.575458
0.574963
0.574489
0.574035
0.573601
0.573185
0.572786
0.572403
0.572037
0.571686
0.571349
0.571026
0.570716
0.570419
0.570134
0.569861
0.569599
0.569347
0.569106
0.568875
0.568653
0.56844
0.568235
0.568039
0.567851
0.56767
0.567497
0.56733
0.56717
0.567016
0.566868
0.566726
0.56659
0.566459
0.566333
0.566212
0.566096
0.565984
0.565877
0.565775
0.565676
0.565581
0.56549
0.565403
0.565319
0.565239
0.565161
0.565087
0.565016
0.564948
0.564883
0.56482
0.56476
0.564702
0.564647
0.564594
0.564543
0.564494
0.564448
0.564403
0.56436
0.564319
0.56428
0.564242
0.564206
0.564171
0.564138
0.564106
0.564076
0.564047
0.564019
0.563992
0.563967
0.563943
0.563919
0.563897
0.563876
0.563856
0.563836
0.563818
0.563801
0.563784
0.563761
13.2704
12.3633
11.4392
10.2762
8.78206
7.27994
5.65444
4.42501
3.94589
3.58709
2.78314
1.54062
0.946965
0.769976
0.704887
0.666817
0.641469
0.629543
0.621625
0.61438
0.607893
0.602129
0.596993
0.592389
0.588244
0.584498
0.581103
0.578016
0.575202
0.572631
0.570276
0.568114
0.566126
0.564294
0.562602
0.561037
0.559586
0.55824
0.556988
0.55582
0.554733
0.553716
0.552765
0.551876
0.551041
0.550258
0.549521
0.548828
0.548175
0.54756
0.546979
0.54643
0.545912
0.545421
0.544956
0.544516
0.544099
0.543703
0.543327
0.54297
0.542631
0.542308
0.542001
0.541709
0.541431
0.541166
0.540913
0.540672
0.540443
0.540224
0.540015
0.539815
0.539625
0.539443
0.539269
0.539103
0.538944
0.538792
0.538647
0.538508
0.538375
0.538248
0.538127
0.53801
0.537899
0.537792
0.53769
0.537593
0.537499
0.537409
0.537324
0.537241
0.537163
0.537087
0.537015
0.536945
0.536879
0.536815
0.536754
0.536695
0.536639
0.536584
0.536532
0.536482
0.536434
0.536388
0.536344
0.536301
0.536261
0.536222
0.536184
0.536148
0.536113
0.53608
0.536048
0.536018
0.535989
0.53596
0.535933
0.535908
0.535883
0.535859
0.535836
0.535814
0.535794
0.535773
0.535754
0.535736
0.535718
0.535701
0.535685
0.53567
0.535655
0.535641
0.535627
0.535614
0.535602
0.53559
0.535578
0.535567
0.535557
0.535547
0.535537
0.535528
0.53552
0.535511
0.535504
0.535496
0.535489
0.535478
12.3865
11.5328
10.6583
9.55473
8.10013
6.55579
5.10579
4.07379
3.6237
3.2186
2.37777
1.30832
0.840528
0.695703
0.641301
0.609292
0.588392
0.579802
0.574786
0.570154
0.566027
0.562402
0.559214
0.556393
0.553883
0.55164
0.549628
0.547819
0.546187
0.54471
0.54337
0.542152
0.541042
0.540028
0.5391
0.538248
0.537466
0.536746
0.536081
0.535468
0.534898
0.534373
0.533882
0.53343
0.533007
0.532613
0.532246
0.531902
0.531581
0.53128
0.530998
0.530733
0.530485
0.530252
0.530032
0.529825
0.529631
0.529447
0.529274
0.529111
0.528956
0.52881
0.528672
0.528542
0.528418
0.528301
0.52819
0.528085
0.527985
0.52789
0.5278
0.527715
0.527633
0.527556
0.527483
0.527413
0.527347
0.527284
0.527223
0.527166
0.527111
0.527059
0.52701
0.526963
0.526918
0.526875
0.526834
0.526794
0.526757
0.526722
0.526688
0.526655
0.526624
0.526594
0.526566
0.526539
0.526513
0.526488
0.526465
0.526442
0.52642
0.526399
0.526379
0.526359
0.526341
0.526323
0.526306
0.526289
0.526273
0.526258
0.526243
0.526229
0.526216
0.526203
0.52619
0.526178
0.526167
0.526156
0.526145
0.526135
0.526126
0.526116
0.526107
0.526099
0.526091
0.526083
0.526075
0.526068
0.526061
0.526054
0.526048
0.526042
0.526036
0.526031
0.526025
0.52602
0.526015
0.526011
0.526006
0.526002
0.525998
0.525994
0.52599
0.525986
0.525983
0.52598
0.525977
0.525974
0.525971
0.525966
11.7762
10.958
10.1218
9.04996
7.62866
6.08522
4.73374
3.85223
3.47873
3.04974
2.16444
1.16935
0.774842
0.65256
0.607005
0.579184
0.561156
0.554716
0.551615
0.548684
0.546062
0.543759
0.541754
0.539998
0.538449
0.537076
0.535855
0.534766
0.53379
0.532914
0.532127
0.531414
0.530772
0.530188
0.529658
0.529176
0.528734
0.528334
0.527961
0.527629
0.527311
0.527033
0.526762
0.526524
0.526299
0.526092
0.525899
0.525721
0.525556
0.525402
0.525259
0.525126
0.525002
0.524887
0.524779
0.524678
0.524584
0.524496
0.524414
0.524337
0.524265
0.524197
0.524134
0.524074
0.524018
0.523966
0.523916
0.52387
0.523826
0.523785
0.523746
0.52371
0.523676
0.523643
0.523613
0.523584
0.523557
0.523531
0.523507
0.523484
0.523462
0.523442
0.523422
0.523404
0.523387
0.52337
0.523355
0.52334
0.523326
0.523313
0.5233
0.523288
0.523277
0.523266
0.523256
0.523246
0.523237
0.523228
0.52322
0.523211
0.523204
0.523196
0.523189
0.523182
0.523175
0.523169
0.523162
0.523156
0.523151
0.523145
0.52314
0.523135
0.52313
0.523125
0.52312
0.523116
0.523112
0.523107
0.523104
0.5231
0.523096
0.523093
0.523089
0.523086
0.523083
0.52308
0.523077
0.523074
0.523072
0.523069
0.523067
0.523065
0.523062
0.52306
0.523058
0.523056
0.523054
0.523053
0.523051
0.523049
0.523048
0.523046
0.523045
0.523043
0.523042
0.523041
0.52304
0.523038
0.523038
0.523035
11.3346
10.5503
9.74078
8.6837
7.28613
5.76461
4.51181
3.73388
3.38513
2.93384
2.01304
1.07726
0.732325
0.628754
0.588892
0.563967
0.547739
0.542624
0.540676
0.538722
0.536949
0.535403
0.53406
0.532885
0.531852
0.53094
0.530131
0.529411
0.528769
0.528195
0.52768
0.527216
0.526799
0.526421
0.52608
0.52577
0.525488
0.525233
0.524997
0.524787
0.524588
0.524415
0.524246
0.524099
0.523961
0.523834
0.523718
0.52361
0.523511
0.523419
0.523335
0.523257
0.523184
0.523118
0.523056
0.522998
0.522945
0.522896
0.52285
0.522808
0.522769
0.522732
0.522699
0.522667
0.522638
0.522611
0.522586
0.522562
0.52254
0.52252
0.522501
0.522483
0.522467
0.522452
0.522438
0.522425
0.522412
0.522401
0.52239
0.52238
0.522371
0.522362
0.522354
0.522347
0.52234
0.522333
0.522327
0.522321
0.522316
0.522311
0.522306
0.522302
0.522298
0.522294
0.522291
0.522287
0.522284
0.522281
0.522278
0.522276
0.522273
0.52227
0.522268
0.522265
0.522263
0.52226
0.522258
0.522256
0.522254
0.522252
0.52225
0.522248
0.522246
0.522244
0.522242
0.52224
0.522239
0.522237
0.522236
0.522234
0.522233
0.522231
0.52223
0.522229
0.522227
0.522226
0.522225
0.522224
0.522223
0.522222
0.522221
0.52222
0.522219
0.522218
0.522217
0.522216
0.522215
0.522215
0.522214
0.522213
0.522212
0.522212
0.522211
0.522211
0.52221
0.522209
0.522209
0.522208
0.522209
0.522207
11.0215
10.2624
9.46896
8.41765
7.02894
5.53272
4.37649
3.65786
3.33441
2.87201
1.91072
1.01535
0.704592
0.614114
0.57898
0.556292
0.541312
0.537026
0.535721
0.534307
0.53298
0.531827
0.530822
0.529941
0.529164
0.528476
0.527866
0.527322
0.526837
0.526402
0.526011
0.525659
0.525343
0.525056
0.524796
0.524562
0.524348
0.524154
0.523976
0.523816
0.523667
0.523535
0.523409
0.523298
0.523194
0.5231
0.523013
0.522933
0.522859
0.522792
0.52273
0.522673
0.52262
0.522571
0.522527
0.522486
0.522448
0.522413
0.522381
0.522351
0.522324
0.522299
0.522275
0.522254
0.522234
0.522216
0.5222
0.522184
0.52217
0.522157
0.522145
0.522134
0.522124
0.522115
0.522107
0.522099
0.522092
0.522085
0.522079
0.522074
0.522069
0.522064
0.52206
0.522056
0.522052
0.522049
0.522046
0.522044
0.522041
0.522039
0.522037
0.522035
0.522034
0.522032
0.522031
0.52203
0.522028
0.522027
0.522026
0.522026
0.522025
0.522024
0.522022
0.522021
0.52202
0.522019
0.522018
0.522017
0.522016
0.522016
0.522015
0.522014
0.522013
0.522012
0.522011
0.52201
0.522009
0.522008
0.522008
0.522007
0.522006
0.522005
0.522005
0.522004
0.522003
0.522002
0.522002
0.522001
0.522001
0.522
0.521999
0.521999
0.521998
0.521998
0.521997
0.521997
0.521997
0.521996
0.521996
0.521995
0.521995
0.521994
0.521994
0.521994
0.521993
0.521993
0.521993
0.521992
0.521993
0.521991
10.7903
10.0507
9.26995
8.22091
6.82783
5.34637
4.27489
3.59992
3.28505
2.81394
1.8296
0.969678
0.685494
0.605098
0.573947
0.552479
0.538288
0.534549
0.533568
0.532429
0.531318
0.530354
0.52951
0.528767
0.528109
0.527524
0.527004
0.526538
0.526121
0.525746
0.525409
0.525105
0.52483
0.524581
0.524356
0.524151
0.523965
0.523796
0.52364
0.523501
0.52337
0.523254
0.523145
0.523047
0.522956
0.522873
0.522797
0.522727
0.522663
0.522604
0.52255
0.5225
0.522455
0.522413
0.522374
0.522338
0.522306
0.522276
0.522248
0.522223
0.5222
0.522178
0.522159
0.522141
0.522124
0.522109
0.522095
0.522082
0.522071
0.52206
0.52205
0.522042
0.522033
0.522026
0.522019
0.522013
0.522008
0.522003
0.521998
0.521994
0.52199
0.521987
0.521984
0.521981
0.521979
0.521977
0.521975
0.521973
0.521972
0.52197
0.521969
0.521968
0.521967
0.521967
0.521966
0.521965
0.521965
0.521964
0.521964
0.521964
0.521963
0.521963
0.521962
0.521961
0.521961
0.52196
0.52196
0.521959
0.521958
0.521958
0.521957
0.521956
0.521956
0.521955
0.521954
0.521954
0.521953
0.521953
0.521952
0.521951
0.521951
0.52195
0.52195
0.521949
0.521949
0.521948
0.521948
0.521947
0.521947
0.521946
0.521946
0.521945
0.521945
0.521945
0.521944
0.521944
0.521944
0.521943
0.521943
0.521943
0.521942
0.521942
0.521942
0.521942
0.521941
0.521941
0.521941
0.52194
0.521941
0.521939
10.6024
9.89189
9.13272
8.06297
6.64719
5.1718
4.17182
3.556
3.25514
2.7771
1.77047
0.936176
0.672755
0.600748
0.571324
0.550456
0.536785
0.533434
0.532611
0.531609
0.530607
0.529738
0.528974
0.528297
0.527696
0.527159
0.52668
0.526249
0.525863
0.525514
0.5252
0.524915
0.524658
0.524424
0.524212
0.524019
0.523843
0.523683
0.523536
0.523404
0.52328
0.52317
0.523066
0.522973
0.522887
0.522808
0.522735
0.522669
0.522608
0.522552
0.5225
0.522453
0.522409
0.522369
0.522333
0.522299
0.522268
0.522239
0.522213
0.522189
0.522167
0.522147
0.522128
0.522111
0.522096
0.522082
0.522068
0.522057
0.522046
0.522036
0.522027
0.522019
0.522011
0.522004
0.521998
0.521993
0.521987
0.521983
0.521979
0.521975
0.521972
0.521969
0.521966
0.521964
0.521962
0.52196
0.521958
0.521957
0.521956
0.521954
0.521953
0.521953
0.521952
0.521951
0.521951
0.521951
0.52195
0.52195
0.52195
0.521949
0.521949
0.521949
0.521948
0.521948
0.521947
0.521947
0.521946
0.521946
0.521945
0.521944
0.521944
0.521943
0.521943
0.521942
0.521942
0.521941
0.521941
0.52194
0.521939
0.521939
0.521938
0.521938
0.521937
0.521937
0.521936
0.521936
0.521936
0.521935
0.521935
0.521934
0.521934
0.521933
0.521933
0.521933
0.521932
0.521932
0.521932
0.521931
0.521931
0.521931
0.521931
0.52193
0.52193
0.52193
0.52193
0.521929
0.521929
0.521929
0.521929
0.521928
10.361
9.66121
8.89049
7.79616
6.37419
4.81783
3.91878
3.51104
3.18051
2.71674
1.70167
0.897816
0.659323
0.594276
0.567194
0.547813
0.535591
0.533057
0.532297
0.531333
0.530375
0.529545
0.528811
0.52816
0.527578
0.527058
0.526592
0.526172
0.525795
0.525454
0.525145
0.524866
0.524613
0.524383
0.524174
0.523984
0.52381
0.523652
0.523507
0.523374
0.523251
0.523142
0.52304
0.522948
0.522864
0.522786
0.522715
0.52265
0.52259
0.522535
0.522484
0.522438
0.522395
0.522356
0.522319
0.522286
0.522256
0.522228
0.522202
0.522178
0.522156
0.522137
0.522119
0.522102
0.522087
0.522073
0.52206
0.522049
0.522038
0.522029
0.52202
0.522012
0.522005
0.521998
0.521992
0.521987
0.521982
0.521977
0.521973
0.52197
0.521967
0.521964
0.521961
0.521959
0.521957
0.521955
0.521954
0.521952
0.521951
0.52195
0.521949
0.521949
0.521948
0.521948
0.521947
0.521947
0.521947
0.521947
0.521946
0.521946
0.521946
0.521945
0.521945
0.521945
0.521944
0.521944
0.521943
0.521943
0.521942
0.521942
0.521941
0.521941
0.52194
0.52194
0.521939
0.521939
0.521938
0.521937
0.521937
0.521936
0.521936
0.521935
0.521935
0.521934
0.521934
0.521934
0.521933
0.521933
0.521932
0.521932
0.521932
0.521931
0.521931
0.52193
0.52193
0.52193
0.521929
0.521929
0.521929
0.521929
0.521928
0.521928
0.521928
0.521927
0.521927
0.521927
0.521927
0.521926
0.521927
0.521925
9.83521
9.21452
8.292
7.04904
5.68029
4.15653
3.28984
3.1935
3.02492
2.62531
1.62529
0.861545
0.644674
0.586592
0.562201
0.544559
0.53448
0.532885
0.532075
0.531089
0.530159
0.529351
0.528637
0.528002
0.527435
0.526927
0.526472
0.526063
0.525694
0.525361
0.525061
0.524788
0.524542
0.524318
0.524115
0.523931
0.523763
0.523611
0.523469
0.523349
0.523232
0.523129
0.52303
0.52294
0.522856
0.52278
0.522709
0.522645
0.522585
0.52253
0.52248
0.522434
0.522392
0.522353
0.522318
0.522286
0.522257
0.52223
0.522205
0.522182
0.522162
0.522142
0.522124
0.522107
0.522091
0.522077
0.522064
0.522052
0.522041
0.522031
0.522022
0.522013
0.522006
0.521999
0.521993
0.521987
0.521982
0.521978
0.521974
0.52197
0.521967
0.521964
0.521961
0.521959
0.521957
0.521955
0.521954
0.521952
0.521951
0.52195
0.521949
0.521949
0.521948
0.521948
0.521947
0.521947
0.521947
0.521946
0.521946
0.521946
0.521945
0.521945
0.521945
0.521944
0.521944
0.521943
0.521943
0.521942
0.521941
0.521941
0.52194
0.52194
0.521939
0.521939
0.521938
0.521938
0.521937
0.521936
0.521936
0.521935
0.521935
0.521934
0.521934
0.521933
0.521933
0.521932
0.521932
0.521931
0.521931
0.521931
0.52193
0.52193
0.52193
0.521929
0.521929
0.521928
0.521928
0.521928
0.521928
0.521927
0.521927
0.521927
0.521926
0.521926
0.521926
0.521926
0.521925
0.521925
0.521926
0.521924
8.8943
8.50025
7.61375
6.41843
5.17414
3.7545
2.86565
2.75152
2.75138
2.45227
1.52962
0.826928
0.631552
0.579855
0.557408
0.541449
0.53395
0.533069
0.532201
0.531178
0.530258
0.529455
0.528744
0.52811
0.527544
0.527037
0.526581
0.526171
0.5258
0.525465
0.525162
0.524886
0.524636
0.524408
0.5242
0.524011
0.523837
0.523677
0.523534
0.523392
0.523267
0.52315
0.523044
0.52295
0.522864
0.522786
0.522715
0.522649
0.522588
0.522532
0.52248
0.522432
0.522388
0.522348
0.52231
0.522274
0.522242
0.522212
0.522184
0.522159
0.522136
0.522115
0.522097
0.522081
0.522066
0.522054
0.522043
0.522033
0.522023
0.522015
0.522007
0.522001
0.521994
0.521989
0.521984
0.521979
0.521975
0.521971
0.521968
0.521965
0.521962
0.52196
0.521958
0.521956
0.521955
0.521953
0.521952
0.521951
0.52195
0.521949
0.521949
0.521948
0.521948
0.521948
0.521947
0.521947
0.521947
0.521947
0.521946
0.521946
0.521945
0.521945
0.521944
0.521944
0.521943
0.521943
0.521942
0.521942
0.521941
0.521941
0.52194
0.52194
0.521939
0.521938
0.521938
0.521937
0.521937
0.521936
0.521936
0.521935
0.521935
0.521934
0.521934
0.521933
0.521933
0.521932
0.521932
0.521932
0.521931
0.521931
0.52193
0.52193
0.52193
0.521929
0.521929
0.521929
0.521929
0.521928
0.521928
0.521928
0.521927
0.521927
0.521927
0.521927
0.521926
0.521926
0.521926
0.521926
0.521926
0.521924
8.17264
7.98677
7.19754
5.99222
4.80148
3.4801
2.62009
2.43765
2.43217
2.22746
1.41635
0.790449
0.619678
0.573746
0.552862
0.538815
0.533809
0.533119
0.532151
0.531087
0.53016
0.529347
0.528627
0.527986
0.527413
0.526901
0.526441
0.526027
0.525654
0.525318
0.525014
0.524739
0.524491
0.524265
0.524061
0.523876
0.523707
0.523556
0.523413
0.523298
0.523183
0.523094
0.523005
0.522922
0.522843
0.522768
0.5227
0.522637
0.522579
0.522527
0.522479
0.522436
0.522397
0.522362
0.522331
0.522303
0.522278
0.522255
0.522233
0.522213
0.522195
0.522178
0.522162
0.522147
0.522131
0.522116
0.5221
0.522086
0.522073
0.522061
0.52205
0.52204
0.522031
0.522022
0.522014
0.522007
0.522001
0.521995
0.521989
0.521984
0.52198
0.521976
0.521972
0.521968
0.521965
0.521962
0.52196
0.521957
0.521955
0.521953
0.521952
0.52195
0.521949
0.521948
0.521947
0.521946
0.521945
0.521944
0.521943
0.521943
0.521942
0.521942
0.521942
0.521941
0.521941
0.521941
0.52194
0.52194
0.52194
0.521939
0.521939
0.521938
0.521938
0.521937
0.521937
0.521937
0.521936
0.521936
0.521935
0.521935
0.521934
0.521934
0.521934
0.521934
0.521933
0.521933
0.521933
0.521932
0.521932
0.521931
0.521931
0.52193
0.52193
0.52193
0.521929
0.521929
0.521929
0.521928
0.521928
0.521927
0.521927
0.521927
0.521927
0.521926
0.521926
0.521926
0.521926
0.521926
0.521926
0.521926
7.46909
7.43872
6.77977
5.64258
4.51011
3.27544
2.44667
2.22718
2.18875
1.97811
1.27737
0.752119
0.6095
0.568859
0.548907
0.536821
0.533884
0.533097
0.532043
0.530985
0.53008
0.529284
0.52858
0.527954
0.527397
0.526898
0.526453
0.526054
0.525696
0.525376
0.525087
0.524827
0.524593
0.524382
0.524188
0.524014
0.523852
0.523705
0.523561
0.523418
0.523291
0.52314
0.523021
0.522914
0.522825
0.522747
0.522678
0.522616
0.522558
0.522505
0.522457
0.522413
0.522372
0.522336
0.522301
0.522268
0.522237
0.522207
0.522178
0.522151
0.522126
0.522103
0.522082
0.522063
0.522047
0.522035
0.522026
0.522018
0.52201
0.522004
0.521998
0.521993
0.521988
0.521984
0.521981
0.521978
0.521975
0.521973
0.521971
0.52197
0.521968
0.521967
0.521966
0.521965
0.521964
0.521964
0.521963
0.521962
0.521961
0.52196
0.521959
0.521958
0.521957
0.521956
0.521955
0.521954
0.521953
0.521952
0.521951
0.52195
0.521949
0.521948
0.521947
0.521946
0.521945
0.521944
0.521943
0.521942
0.521941
0.52194
0.52194
0.521939
0.521938
0.521937
0.521937
0.521936
0.521935
0.521935
0.521934
0.521934
0.521933
0.521933
0.521932
0.521931
0.521931
0.52193
0.52193
0.52193
0.521929
0.521929
0.521929
0.521928
0.521928
0.521928
0.521927
0.521927
0.521927
0.521927
0.521926
0.521926
0.521926
0.521926
0.521926
0.521926
0.521927
0.521928
0.52193
0.521932
0.521934
0.521935
6.85545
6.94585
6.42991
5.38364
4.29729
3.12445
2.31934
2.07701
2.04321
1.79838
1.14647
0.716439
0.599253
0.563446
0.545242
0.535701
0.534213
0.533374
0.532279
0.531233
0.530335
0.529545
0.528844
0.528219
0.527659
0.527157
0.526704
0.526295
0.525923
0.525585
0.525277
0.524995
0.524737
0.5245
0.524282
0.524086
0.523905
0.523738
0.523585
0.523448
0.52332
0.523233
0.523135
0.523043
0.522957
0.522879
0.522804
0.522735
0.522671
0.522612
0.522559
0.52251
0.522465
0.522424
0.522386
0.522351
0.522319
0.52229
0.522263
0.522237
0.522214
0.522194
0.522176
0.522159
0.522144
0.522129
0.522115
0.522102
0.522089
0.522078
0.522067
0.522057
0.522048
0.52204
0.522032
0.522024
0.522017
0.522011
0.522005
0.521999
0.521994
0.521989
0.521985
0.52198
0.521976
0.521973
0.521969
0.521966
0.521963
0.52196
0.521957
0.521955
0.521953
0.52195
0.521948
0.521947
0.521945
0.521943
0.521942
0.52194
0.521939
0.521938
0.521937
0.521936
0.521935
0.521934
0.521934
0.521933
0.521932
0.521932
0.521932
0.521931
0.521931
0.521931
0.521931
0.521931
0.521931
0.521931
0.521931
0.521931
0.521931
0.521932
0.521932
0.521932
0.521933
0.521933
0.521934
0.521934
0.521934
0.521935
0.521935
0.521936
0.521936
0.521937
0.521938
0.521938
0.521939
0.52194
0.521941
0.521942
0.521944
0.521946
0.521948
0.52195
0.521953
0.521957
0.521962
0.52197
0.521978
0.521967
6.31208
6.49227
6.10172
5.18018
4.142
3.0086
2.22265
1.95909
1.8853
1.61517
1.02782
0.685197
0.591654
0.559605
0.542385
0.535013
0.534161
0.533235
0.532068
0.531
0.53008
0.529267
0.528545
0.5279
0.527322
0.526803
0.526336
0.525915
0.525534
0.52519
0.524879
0.524597
0.524343
0.524112
0.523901
0.523716
0.523542
0.52339
0.523243
0.523139
0.523046
0.52299
0.522924
0.522851
0.522776
0.522705
0.522638
0.522578
0.522521
0.52247
0.522425
0.522385
0.522349
0.522319
0.522294
0.522274
0.522256
0.522241
0.522227
0.522214
0.522201
0.52219
0.522178
0.522166
0.522152
0.522135
0.522118
0.522102
0.522087
0.522073
0.522061
0.522049
0.522039
0.522029
0.52202
0.522011
0.522003
0.521996
0.52199
0.521984
0.521979
0.521974
0.521969
0.521965
0.521961
0.521958
0.521955
0.521952
0.52195
0.521947
0.521945
0.521943
0.521942
0.52194
0.521939
0.521937
0.521936
0.521935
0.521934
0.521933
0.521932
0.521931
0.521931
0.52193
0.52193
0.521929
0.521929
0.521929
0.521929
0.521929
0.521929
0.521929
0.52193
0.52193
0.52193
0.52193
0.521931
0.521931
0.521931
0.521932
0.521932
0.521932
0.521933
0.521933
0.521933
0.521934
0.521934
0.521935
0.521935
0.521936
0.521937
0.521937
0.521938
0.521939
0.52194
0.52194
0.521941
0.521942
0.521943
0.521944
0.521945
0.521946
0.521947
0.521949
0.52195
0.521952
0.521954
0.521957
0.521964
0.521957
4.74224
5.04843
5.072
4.6371
3.74035
2.69062
1.96455
1.62145
1.35308
1.03034
0.745683
0.626324
0.578784
0.552873
0.538311
0.535079
0.534309
0.53323
0.532035
0.531001
0.530103
0.529314
0.528617
0.527998
0.527447
0.526955
0.526512
0.526116
0.525758
0.525435
0.525143
0.524878
0.524638
0.524418
0.524217
0.524036
0.523868
0.523712
0.523566
0.523413
0.523285
0.523134
0.523015
0.522912
0.522825
0.522748
0.522679
0.522617
0.522559
0.522506
0.522458
0.522414
0.522374
0.522338
0.522303
0.522269
0.522237
0.522207
0.52218
0.522155
0.522132
0.522111
0.522091
0.522074
0.522059
0.522047
0.522036
0.522027
0.522018
0.522011
0.522004
0.521998
0.521992
0.521987
0.521983
0.521979
0.521976
0.521973
0.521971
0.521969
0.521967
0.521965
0.521964
0.521963
0.521962
0.521962
0.521961
0.521961
0.521961
0.52196
0.52196
0.52196
0.521959
0.521959
0.521959
0.521958
0.521957
0.521957
0.521956
0.521955
0.521955
0.521954
0.521953
0.521953
0.521952
0.521951
0.521951
0.52195
0.52195
0.521949
0.521949
0.521948
0.521948
0.521947
0.521947
0.521947
0.521946
0.521946
0.521946
0.521946
0.521946
0.521945
0.521945
0.521945
0.521945
0.521945
0.521945
0.521945
0.521946
0.521946
0.521947
0.521947
0.521948
0.521948
0.521949
0.52195
0.521952
0.521953
0.521954
0.521956
0.521957
0.521959
0.521962
0.521964
0.521967
0.52197
0.521975
0.52198
0.52199
0.52198
3.14558
3.46906
3.73208
3.60226
3.04746
2.27002
1.7482
1.36768
0.994175
0.73797
0.614787
0.567521
0.548119
0.538569
0.536298
0.535826
0.534777
0.533402
0.532198
0.531172
0.530272
0.529473
0.528761
0.528123
0.527551
0.527036
0.526571
0.526153
0.525774
0.525431
0.525122
0.524839
0.524585
0.52435
0.524138
0.523949
0.523775
0.523617
0.523471
0.523357
0.523248
0.523178
0.523098
0.523011
0.522926
0.522847
0.522774
0.522706
0.522644
0.522587
0.522534
0.522486
0.522441
0.522401
0.522363
0.52233
0.522299
0.522271
0.522245
0.522221
0.522199
0.522178
0.52216
0.522142
0.522126
0.52211
0.522095
0.522081
0.522069
0.522057
0.522047