/*--------------------------------*- C++ -*----------------------------------*\
| =========                 |                                                 |
| \\      /  F ield         | OpenFOAM: The Open Source CFD Toolbox           |
|  \\    /   O peration     | Version:  v1912                                 |
|   \\  /    A nd           | Website:  www.openfoam.com                      |
|    \\/     M anipulation  |                                                 |
\*---------------------------------------------------------------------------*/
FoamFile
{
    version     2.0;
    format      ascii;
    class       volScalarField;
    location    "10";
    object      alpha.water;
}
// * * * * * * * * * * * * * * * * * * * * * * * * * * * * * * * * * * * * * //

dimensions      [0 0 0 0 0 0 0];


internalField   nonuniform List<scalar> 
14268
(
1
1
1
1
1
1
1
1
1
1
1
1
1
1
1
1
1
1
1
1
1
1
1
1
1
1
1
1
1
1
1
1
1
1
1
1
1
1
1
1
1
1
1
1
1
1
1
1
1
1
1
1
1
1
1
1
1
1
1
1
1
1
1
1
1
1
1
1
1
1
1
1
1
1
1
1
1
1
1
1
1
1
1
1
1
1
1
1
1
1
1
1
1
1
1
1
1
1
1
1
1
1
1
1
1
1
1
1
1
1
1
1
1
1
1
1
1
1
1
1
1
1
1
1
1
1
1
1
1
1
1
1
1
1
1
1
1
1
1
1
1
1
1
1
1
1
1
1
1
1
1
1
1
1
1
1
1
1
1
1
1
1
1
1
1
1
1
1
1
1
1
1
1
1
1
1
1
1
1
1
1
1
1
1
1
1
1
1
1
1
1
1
1
1
1
1
1
1
1
1
1
1
1
1
0.999998
0.999901
0.998458
0.994974
0.641554
0.618442
0.596112
0.575326
0.555485
0.534498
0.509889
0.483646
0.0199902
0.018121
0.0163242
0.0146856
0.013206
0.0120629
0.0116819
0.0117012
-8.46901e-27
-5.54555e-27
-3.53819e-27
-2.20152e-27
-1.31394e-27
-7.45904e-28
-4.13471e-28
1.50403e-19
-3.44837e-32
-5.86339e-32
-8.60046e-32
-1.19299e-31
-1.69536e-31
-2.60063e-31
-4.74663e-31
-1.99206e-30
-8.3121e-32
-1.15837e-31
-1.42536e-31
-1.83377e-31
-2.66888e-31
-4.93478e-31
-1.39663e-30
-2.29322e-29
-1.01167e-31
-1.19437e-31
-1.3834e-31
-1.93616e-31
-3.28486e-31
-8.52545e-31
-4.51658e-30
-2.00778e-28
-8.1872e-32
-8.80931e-32
-1.07983e-31
-1.74336e-31
-3.62235e-31
-1.45503e-30
-1.50122e-29
-1.00957e-27
-4.71366e-32
-5.23636e-32
-7.09322e-32
-1.30409e-31
-3.59823e-31
-2.78645e-30
-5.65167e-29
-9.2839e-28
-2.22374e-32
-2.62359e-32
-3.88244e-32
-8.23059e-32
-2.90266e-31
-1.79521e-30
-1.58069e-29
-1.73211e-28
-8.23278e-33
-1.00689e-32
-1.54209e-32
-3.54335e-32
-1.39935e-31
-8.77257e-31
-5.48268e-30
-3.4765e-29
-2.4321e-33
-3.10884e-33
-4.87654e-33
-1.18175e-32
-4.98425e-32
-3.2853e-31
-1.99904e-30
-9.83208e-30
-5.76733e-34
-7.77558e-34
-1.27175e-33
-3.30663e-33
-1.51145e-32
-1.04251e-31
-6.58219e-31
-3.17674e-30
-1.08257e-34
-1.54545e-34
-2.60187e-34
-7.11468e-34
-3.48927e-33
-2.5644e-32
-1.72857e-31
-8.84661e-31
-1.64907e-35
-2.50638e-35
-4.41958e-35
-1.30033e-34
-6.97462e-34
-5.4095e-33
-3.83897e-32
-2.07777e-31
-2.01554e-36
-3.27746e-36
-5.98384e-36
-1.8575e-35
-1.07998e-34
-8.9973e-34
-6.85686e-33
-4.00024e-32
-2.03954e-37
-3.55973e-37
-6.84407e-37
-2.29271e-36
-1.46549e-35
-1.30023e-34
-1.05036e-33
-6.5262e-33
-1.68376e-38
-3.17361e-38
-6.37781e-38
-2.27277e-37
-1.59e-36
-1.52428e-35
-1.32839e-34
-8.94816e-34
-1.17184e-39
-2.38894e-39
-5.10404e-39
-1.98335e-38
-1.53525e-37
-1.57485e-36
-1.46294e-35
-1.05767e-34
-6.74978e-41
-1.4989e-40
-3.3906e-40
-1.42221e-39
-1.21633e-38
-1.35234e-37
-1.35981e-36
-1.0734e-35
-3.3248e-42
-8.04608e-42
-1.96143e-41
-9.13329e-41
-8.69496e-40
-1.03687e-38
-1.11546e-37
-9.53252e-37
-1.37016e-43
-3.64262e-43
-9.56247e-43
-4.91392e-42
-5.21085e-41
-6.74511e-40
-7.86634e-39
-7.38695e-38
-4.88026e-45
-1.42458e-44
-4.10972e-44
-2.40295e-43
-2.84711e-42
-3.95501e-41
-4.94572e-40
-5.06949e-39
-1.46383e-46
-4.73478e-46
-1.50609e-45
-1.00094e-44
-1.32831e-43
-2.00209e-42
-2.71345e-41
-3.07033e-40
-3.82327e-48
-1.36958e-47
-4.92184e-47
-3.83331e-46
-5.68438e-45
-9.18966e-44
-1.33664e-42
-1.65616e-41
-8.43506e-50
-3.38307e-49
-1.38712e-48
-1.271e-47
-2.11172e-46
-3.69565e-45
-5.81674e-44
-7.9248e-43
-1.62912e-51
-7.32382e-51
-3.53275e-50
-3.90155e-49
-7.20605e-48
-1.35075e-46
-2.28224e-45
-3.39589e-44
-2.66034e-53
-1.35997e-52
-7.87219e-52
-1.05318e-50
-2.16629e-49
-4.37961e-48
-7.98802e-47
-1.29989e-45
-3.81643e-55
-2.23391e-54
-1.61188e-53
-2.63244e-52
-5.96005e-51
-1.28933e-49
-2.52532e-48
-4.47293e-47
-4.63611e-57
-3.1785e-56
-2.94529e-55
-5.86093e-54
-1.46134e-52
-3.39741e-51
-7.16737e-50
-1.38136e-48
-4.96788e-59
-4.07698e-58
-5.02899e-57
-1.20186e-55
-3.26017e-54
-8.10683e-53
-1.83736e-51
-3.8415e-50
-4.54693e-61
-4.65607e-60
-7.81051e-59
-2.21001e-57
-6.51821e-56
-1.73854e-54
-4.24104e-53
-9.61096e-52
-3.72615e-63
-4.98846e-62
-1.13964e-60
-3.71319e-59
-1.18004e-57
-3.36807e-56
-8.83337e-55
-2.16566e-53
-2.69722e-65
-5.00137e-64
-1.52148e-62
-5.60223e-61
-1.91709e-59
-5.86809e-58
-1.65694e-56
-4.3919e-55
-1.84577e-67
-4.89871e-66
-1.88453e-64
-7.65671e-63
-2.80745e-61
-9.21102e-60
-2.79967e-58
-8.01609e-57
-1.21812e-69
-4.59384e-68
-2.11894e-66
-9.38354e-65
-3.68716e-63
-1.29902e-61
-4.25499e-60
-1.31564e-58
-8.26194e-72
-4.13161e-70
-2.16853e-68
-1.03395e-66
-4.34713e-65
-1.64554e-63
-5.81188e-62
-1.93977e-60
-5.64179e-74
-3.44377e-72
-1.99253e-70
-1.01825e-68
-4.58606e-67
-1.86828e-65
-7.1235e-64
-2.56507e-62
-3.79488e-76
-2.62972e-74
-1.64182e-72
-8.95909e-71
-4.32483e-69
-1.89849e-67
-7.82211e-66
-3.03585e-64
-2.38125e-78
-1.80301e-76
-1.20397e-74
-7.01506e-73
-3.63608e-71
-1.72292e-69
-7.67908e-68
-3.20732e-66
-1.36057e-80
-1.10292e-78
-7.84e-77
-4.87912e-75
-2.72008e-73
-1.39358e-71
-6.72424e-70
-3.01499e-68
-6.91828e-83
-5.96541e-81
-4.51245e-79
-3.00513e-77
-1.80593e-75
-1.00206e-73
-5.23752e-72
-2.5119e-70
-3.10629e-85
-2.84169e-83
-2.28918e-81
-1.63523e-79
-1.06162e-77
-6.38858e-76
-3.61681e-74
-1.8459e-72
-1.22109e-87
-1.18601e-85
-1.01975e-83
-7.83732e-82
-5.50984e-80
-3.60051e-78
-2.20573e-76
-1.18965e-74
-4.18287e-90
-4.321e-88
-3.9771e-86
-3.29881e-84
-2.51666e-82
-1.78734e-80
-1.18218e-78
-6.67636e-77
-1.24158e-92
-1.3684e-90
-1.35347e-88
-1.21548e-86
-1.0081e-84
-7.78183e-83
-5.53395e-81
-3.23523e-79
-3.17994e-95
-3.75393e-93
-4.00657e-91
-3.90689e-89
-3.5271e-87
-2.95584e-85
-2.24647e-83
-1.35847e-81
-6.99586e-98
-8.88934e-96
-1.02806e-93
-1.09109e-91
-1.07265e-89
-9.73122e-88
-7.85533e-86
-4.95973e-84
-1.3174e-100
-1.81094e-98
-2.27715e-96
-2.63402e-94
-2.81713e-92
-2.75403e-90
-2.3504e-88
-1.5755e-86
-2.11735e-103
-3.16331e-101
-4.335e-99
-5.46569e-97
-6.3412e-95
-6.64042e-93
-5.9854e-91
-4.36446e-89
-2.88537e-106
-4.70243e-104
-7.03226e-102
-9.65259e-100
-1.20924e-97
-1.34943e-95
-1.29239e-93
-1.05711e-91
-3.30475e-109
-5.88978e-107
-9.6158e-105
-1.43295e-102
-1.92793e-100
-2.28989e-98
-2.36784e-96
-2.23789e-94
-4.3549e-113
-8.75494e-111
-1.61545e-108
-2.71685e-106
-4.11178e-104
-5.52618e-102
-6.67561e-100
-7.78291e-98
-1.59353e-118
-4.01706e-116
-9.29452e-114
-2.0142e-111
-4.14222e-109
-7.99772e-107
-1.40173e-104
-2.17914e-102
-1.94649e-124
-1.6432e-122
-1.66401e-120
-2.83413e-118
-7.29799e-116
-1.99308e-113
-5.01395e-111
-1.16389e-108
-7.17432e-128
-6.57876e-126
-5.57989e-124
-4.38127e-122
-3.18542e-120
-2.14266e-118
-1.33052e-116
-7.59316e-115
-1.9847e-131
-2.17509e-129
-2.20611e-127
-2.0717e-125
-1.80065e-123
-1.44644e-121
-1.07053e-119
-7.25977e-118
-3.61358e-135
-4.87963e-133
-6.09804e-131
-7.05259e-129
-7.54228e-127
-7.44276e-125
-6.75067e-123
-5.59207e-121
-3.58365e-139
-6.23387e-137
-1.00291e-134
-1.49169e-132
-2.04839e-130
-2.58978e-128
-3.0005e-126
-3.16249e-124
-1.31319e-143
-3.18345e-141
-7.12505e-139
-1.47093e-136
-2.79519e-134
-4.87169e-132
-7.74346e-130
-1.11305e-127
-7.66317e-149
-2.99988e-146
-1.08096e-143
-3.57977e-141
-1.08643e-138
-3.00768e-136
-7.54167e-134
-1.69505e-131
-1.51773e-156
-1.58066e-153
-1.50891e-150
-1.31511e-147
-1.04053e-144
-7.41267e-142
-4.69963e-139
-2.60873e-136
1
1
1
1
1
1
1
1
1
1
1
1
1
1
1
1
1
1
1
1
1
1
1
1
1
1
1
1
1
1
1
1
1
1
1
1
1
1
1
1
1
1
1
1
1
1
1
1
1
1
1
1
1
1
1
1
1
1
1
1
1
1
1
1
1
1
1
1
1
1
1
1
1
1
1
1
1
1
1
1
1
1
1
1
1
1
1
1
1
1
1
1
1
1
1
1
1
1
1
1
1
1
1
1
1
1
1
1
1
1
1
1
1
1
1
1
1
1
1
1
1
1
1
1
1
1
1
1
1
1
1
1
1
1
1
1
1
1
1
1
1
1
1
1
1
1
1
1
1
1
1
1
1
1
1
1
1
1
1
1
1
1
1
1
1
1
1
1
1
1
1
1
1
1
1
1
1
1
1
1
1
1
1
1
1
1
1
1
1
1
1
1
1
1
1
1
1
1
1
1
1
1
1
1
1
1
1
1
1
1
1
1
1
1
1
1
1
1
1
1
1
1
1
1
1
1
1
1
1
1
1
1
1
1
1
1
1
1
1
1
1
1
1
1
1
1
1
1
1
1
1
1
1
1
1
1
1
1
1
1
1
1
1
1
1
1
1
1
1
1
1
1
1
1
1
1
1
1
1
1
1
1
1
1
1
1
1
1
1
1
1
1
1
1
1
1
1
1
1
1
1
1
1
1
1
1
1
1
1
1
1
1
1
1
1
1
1
1
1
1
1
1
1
1
1
1
1
1
1
1
1
1
1
1
1
1
1
1
1
1
1
1
1
1
1
1
1
1
1
1
1
1
1
1
1
1
1
1
1
1
1
1
1
1
1
1
1
1
1
1
1
1
1
1
1
1
1
1
1
1
1
1
1
1
1
1
1
1
1
1
1
1
1
1
1
1
1
1
1
1
1
1
1
1
1
1
1
1
1
1
1
1
1
1
1
1
1
1
1
1
1
1
1
1
1
1
1
1
1
1
1
1
1
1
1
1
1
1
1
1
1
1
1
1
1
1
1
1
1
1
1
1
1
1
1
1
1
1
1
1
1
1
1
1
1
1
1
1
1
1
1
1
1
1
1
1
1
1
1
1
1
1
1
1
1
1
1
1
1
1
1
1
1
1
1
1
1
1
1
1
1
1
1
1
1
1
1
1
1
1
1
1
1
1
1
1
1
1
1
1
1
1
1
1
1
1
1
1
1
1
1
1
1
1
1
1
1
1
1
1
1
1
1
1
1
1
1
1
1
1
1
1
1
1
1
1
1
1
1
1
1
1
1
1
1
1
1
1
1
1
1
1
1
1
1
1
1
1
1
1
1
1
1
1
1
1
1
1
1
1
1
1
1
1
1
1
1
1
1
1
1
1
1
1
1
1
1
1
1
1
1
1
1
1
1
1
1
1
1
1
1
1
1
1
1
1
1
1
1
1
1
1
1
1
1
1
1
1
1
1
1
1
1
1
1
1
1
1
1
1
1
1
1
1
1
1
1
1
1
1
1
1
1
1
1
1
1
1
1
1
1
1
1
1
1
1
1
1
1
1
1
1
1
1
1
1
1
1
1
1
1
1
1
1
1
1
1
1
1
1
1
1
1
1
1
1
1
1
1
1
1
1
1
1
1
1
1
1
1
1
1
1
1
1
1
1
1
1
1
1
1
1
1
1
1
1
1
1
1
1
1
1
1
1
1
1
1
1
1
1
1
1
1
1
1
1
1
1
1
1
1
1
1
1
1
1
1
1
1
1
1
1
1
1
1
1
1
1
1
1
1
1
1
1
1
1
1
1
1
1
1
1
1
1
1
1
1
1
1
1
1
1
1
1
1
1
1
1
1
1
1
1
1
1
1
1
1
1
1
1
1
1
1
1
1
1
1
1
1
1
1
1
1
1
1
1
1
1
1
1
1
1
1
1
1
1
1
1
1
1
1
1
1
1
1
1
1
1
1
1
1
1
1
1
1
1
1
1
1
1
1
1
1
1
1
1
1
1
1
1
1
1
1
1
1
1
1
1
1
1
1
1
1
1
1
1
1
1
1
1
1
1
1
1
1
1
1
1
1
1
1
1
1
1
1
1
1
1
1
1
1
1
1
1
1
1
1
1
1
1
1
1
1
1
1
1
1
1
1
1
1
1
1
1
1
1
1
1
1
1
1
1
1
1
1
1
1
1
1
1
1
1
1
1
1
1
1
1
1
1
1
1
1
1
1
1
1
1
1
1
1
1
1
1
1
1
1
1
1
1
1
1
1
1
1
1
1
1
1
1
1
1
1
1
1
1
1
1
1
1
1
1
1
1
1
1
1
1
1
1
1
1
1
1
1
1
1
1
1
1
1
1
1
1
1
1
1
1
1
1
1
1
1
1
1
1
1
1
1
1
1
1
1
1
1
1
1
1
1
1
1
1
1
1
1
1
1
1
1
1
1
1
1
1
1
1
1
1
1
1
1
1
1
1
1
1
1
1
1
1
1
1
1
1
1
1
1
1
1
1
1
1
1
1
1
1
1
1
1
1
1
1
1
1
1
1
1
1
1
1
1
1
1
1
1
1
1
1
1
1
1
1
1
1
1
1
1
1
1
1
1
1
1
1
1
1
1
1
1
1
1
1
1
1
1
1
1
1
1
1
1
1
1
1
1
1
1
1
1
1
1
1
1
1
1
1
1
1
1
1
1
1
1
1
1
1
1
1
1
1
1
1
1
1
1
1
1
1
1
1
1
1
1
1
1
1
1
1
1
1
1
1
1
1
1
1
1
1
1
1
1
1
1
1
1
1
1
1
1
1
1
1
1
1
1
1
1
1
1
1
1
1
1
1
1
1
1
1
1
1
1
1
1
1
1
1
1
1
1
1
1
1
1
1
1
1
1
1
1
1
1
1
1
1
1
1
1
1
1
1
1
1
1
1
1
1
1
1
1
1
1
1
1
1
1
1
1
1
1
1
1
1
1
1
1
1
1
1
1
1
1
1
1
1
1
1
1
1
1
1
1
1
1
1
1
1
1
1
1
1
1
1
1
1
1
1
1
1
1
1
1
1
1
1
1
1
1
1
1
1
1
1
1
1
1
1
1
1
1
1
1
1
1
1
1
1
1
1
1
1
1
1
1
1
1
1
1
1
1
1
1
1
1
1
1
1
1
1
1
1
1
1
1
1
1
1
1
1
1
1
1
1
1
1
1
1
1
1
1
1
1
1
1
1
1
1
1
1
1
1
1
1
1
1
1
1
1
1
1
1
1
1
1
1
1
1
1
1
1
1
1
1
1
1
1
1
1
1
1
1
1
1
1
1
1
1
1
1
1
1
1
1
1
1
1
1
1
1
1
1
1
1
1
1
1
1
1
1
1
1
1
1
1
1
1
1
1
1
1
1
1
1
1
1
1
1
1
1
1
1
1
1
1
1
1
1
1
1
1
1
1
1
1
1
1
1
1
1
1
1
1
1
1
1
1
1
1
1
1
1
1
1
1
1
1
1
1
1
1
1
1
1
1
1
1
1
1
1
1
1
1
1
1
1
1
1
1
1
1
1
1
1
1
1
1
1
1
1
1
1
1
1
1
1
1
1
1
1
1
1
1
1
1
1
1
1
1
1
1
1
1
1
1
1
1
1
1
1
1
1
1
1
1
1
1
1
1
1
1
1
1
1
1
1
1
1
1
1
1
1
1
1
1
1
1
1
1
1
1
1
1
1
1
1
1
1
1
1
1
1
1
1
1
1
1
1
1
1
1
1
1
1
1
1
1
1
1
1
1
1
1
1
1
1
1
1
1
1
1
1
1
1
1
1
1
1
1
1
1
1
1
1
1
1
1
1
1
1
1
1
1
1
1
1
1
1
1
1
1
1
1
1
1
1
1
1
1
1
1
1
1
1
1
1
1
1
1
1
1
1
1
1
1
1
1
1
1
1
1
1
1
1
1
1
1
1
1
1
1
1
1
1
1
1
1
1
1
1
1
1
1
1
1
1
1
1
1
1
1
1
1
1
1
1
1
1
1
1
1
1
1
1
1
1
1
1
1
1
1
1
1
1
1
1
1
1
1
1
1
1
1
1
1
1
1
1
1
1
1
1
1
1
1
1
1
1
1
1
1
1
1
1
1
1
1
1
1
1
1
1
1
1
1
1
1
1
1
1
1
1
1
1
1
1
1
1
1
1
1
1
1
1
1
1
1
1
1
1
1
1
1
1
1
1
1
1
1
1
1
1
1
1
1
1
1
1
1
1
1
1
1
1
1
1
1
1
1
1
1
1
1
1
1
1
1
1
1
1
1
1
1
1
1
1
1
1
1
1
1
1
1
1
1
1
1
1
1
1
1
1
1
1
1
1
1
1
1
1
1
1
1
1
1
1
1
1
1
1
1
1
1
1
1
1
1
1
1
1
1
1
1
1
1
1
1
1
1
1
1
1
1
1
1
1
1
1
1
1
1
1
1
1
1
1
1
1
1
1
1
1
1
1
1
1
1
1
1
1
1
1
1
1
1
1
1
1
1
1
1
1
1
1
1
1
1
1
1
1
1
1
1
1
1
1
1
1
1
1
1
1
1
1
1
1
1
1
1
1
1
1
1
1
1
1
1
1
1
1
1
1
1
1
1
1
1
1
1
1
1
1
1
1
1
1
1
1
1
1
1
1
1
1
1
1
1
1
1
1
1
1
1
1
1
1
1
1
1
1
1
1
1
1
1
1
1
1
1
1
1
1
1
1
1
1
1
1
1
1
1
1
1
1
1
1
1
1
1
1
1
1
1
1
1
1
1
1
1
1
1
1
1
1
1
1
1
1
1
1
1
1
1
1
1
1
1
1
1
1
1
1
1
1
1
1
1
1
1
1
1
1
1
1
1
1
1
1
1
1
1
1
1
1
1
1
1
1
1
1
1
1
1
1
1
1
1
1
1
1
1
1
1
1
1
1
1
1
1
1
1
1
1
1
1
1
1
1
1
1
1
1
1
1
1
1
1
1
1
1
1
1
1
1
1
1
1
1
1
1
1
1
1
1
1
1
1
1
1
1
1
1
1
1
1
1
1
1
1
1
1
1
1
1
1
1
1
1
1
1
1
1
1
1
1
1
1
1
1
1
1
1
1
1
1
1
1
1
1
1
1
1
1
1
1
1
1
1
1
1
1
1
1
1
1
1
1
1
1
1
1
1
1
1
1
1
1
1
1
1
1
1
1
1
1
1
1
1
1
1
1
1
1
1
1
1
1
1
1
1
1
1
1
1
1
1
1
1
1
1
1
1
1
1
1
1
1
1
1
1
1
1
1
1
1
1
1
1
1
1
1
1
1
1
1
1
1
1
1
1
1
1
1
1
1
1
1
1
1
1
1
1
1
1
1
1
1
1
1
1
1
1
1
1
1
1
1
1
1
1
1
1
1
1
1
1
1
1
1
1
1
1
1
1
1
1
1
1
1
1
1
1
1
1
1
1
1
1
1
1
1
1
1
1
1
1
1
1
1
1
1
1
1
1
1
1
1
1
1
1
1
1
1
1
1
1
1
1
1
1
1
1
1
1
1
1
1
1
1
1
1
1
1
1
1
1
1
1
1
1
1
1
1
1
1
1
1
1
1
1
1
1
1
1
1
1
1
1
1
1
1
1
1
1
1
1
1
1
1
1
1
1
1
1
1
1
1
1
1
1
1
1
1
1
1
1
1
1
1
1
1
1
1
1
1
1
1
1
1
1
1
1
1
1
1
1
1
1
1
1
1
1
1
1
1
1
1
1
1
1
1
1
1
1
1
1
1
1
1
1
1
1
1
1
1
1
1
1
1
1
1
1
1
1
1
1
1
1
1
1
1
1
1
1
1
1
1
1
1
1
1
1
1
1
1
1
1
1
1
1
1
1
1
1
1
1
1
1
1
1
1
1
1
1
1
1
1
1
1
1
1
1
1
1
1
1
1
1
1
1
1
1
1
1
1
1
1
1
1
1
1
1
1
1
1
1
1
1
1
1
1
1
1
1
1
1
1
1
1
1
1
1
1
1
1
1
1
1
1
1
1
1
1
1
1
1
1
1
1
1
1
1
1
1
1
1
1
1
1
1
1
1
1
1
1
1
1
1
1
1
1
1
1
1
1
1
1
1
1
1
1
1
1
1
1
1
1
1
1
1
1
1
1
1
1
1
1
1
1
1
1
1
1
1
1
1
1
1
1
1
1
1
1
1
1
1
1
1
1
1
1
1
1
1
1
1
1
1
1
1
1
1
1
1
1
1
1
1
1
1
1
1
1
1
1
1
1
1
1
1
1
1
1
1
1
1
1
1
1
1
1
1
1
1
1
1
1
1
1
1
1
1
1
1
1
1
1
1
1
1
1
1
1
1
1
1
1
1
1
1
1
1
1
1
1
1
1
1
1
1
1
1
1
1
1
1
1
1
1
1
1
1
1
1
1
1
1
1
1
1
1
1
1
1
1
1
1
1
1
1
1
1
1
1
1
1
1
1
1
1
1
1
1
1
1
1
1
1
1
1
1
1
1
1
1
1
1
1
1
1
1
1
1
1
1
1
1
1
1
1
1
1
1
1
1
1
1
1
1
1
1
1
1
1
1
1
1
1
1
1
1
1
1
1
1
1
1
1
1
1
1
1
1
1
1
1
1
1
1
1
1
1
1
1
1
1
1
1
1
1
1
1
1
1
1
1
1
1
1
1
1
1
1
1
1
1
1
1
1
1
1
1
1
1
1
1
1
1
1
1
1
1
1
1
1
1
1
1
1
1
1
1
1
1
1
1
1
1
1
1
1
1
1
1
1
1
1
1
1
1
1
1
1
1
1
1
1
1
1
1
1
1
1
1
1
1
1
1
1
1
1
1
1
1
1
1
1
1
1
1
1
1
1
1
1
1
1
1
1
1
1
1
1
1
1
1
1
1
1
1
1
1
1
1
1
1
1
1
1
1
1
1
1
1
1
1
1
1
1
1
1
1
1
1
1
1
1
1
1
1
1
1
1
1
1
1
1
1
1
1
1
1
1
1
1
1
1
1
1
1
1
1
1
1
1
1
1
1
1
1
1
1
1
1
1
1
1
1
1
1
1
1
1
1
1
1
1
1
1
1
1
1
1
1
1
1
1
1
1
1
1
1
1
1
1
1
1
1
1
1
1
1
1
1
1
1
1
1
1
1
1
1
1
1
1
1
1
1
1
1
1
1
1
1
1
1
1
1
1
1
1
1
1
1
1
1
1
1
1
1
1
1
1
1
1
1
1
1
1
1
1
1
1
1
1
1
1
1
1
1
1
1
1
1
1
1
1
1
1
1
1
1
1
1
1
1
1
1
1
1
1
1
1
1
1
1
1
1
1
1
1
1
1
1
1
1
1
1
1
1
1
1
1
1
1
1
1
1
1
1
1
1
1
1
1
1
1
1
1
1
1
1
1
1
1
1
1
1
1
1
1
1
1
1
1
1
1
1
1
1
1
1
1
1
1
1
1
1
1
1
1
1
1
1
1
1
1
1
1
1
1
1
1
1
1
1
1
1
1
1
1
1
1
1
1
1
1
1
1
1
1
1
1
1
1
1
1
1
1
1
1
1
1
1
1
1
1
1
1
1
1
1
1
1
1
1
1
1
1
1
1
1
1
1
1
1
1
1
1
1
1
1
1
1
1
1
1
1
1
1
1
1
1
1
1
1
1
1
1
1
1
1
1
1
1
1
1
1
1
1
1
1
1
1
1
1
1
1
1
1
1
1
1
1
1
1
1
1
1
1
1
1
1
1
1
1
1
1
1
1
1
1
1
1
1
1
1
1
1
1
1
1
1
1
1
1
1
1
1
1
1
1
1
1
1
1
1
1
1
1
1
1
1
1
1
1
1
1
1
1
1
1
1
1
1
1
1
1
1
1
1
1
1
1
1
1
1
1
1
1
1
1
1
1
1
1
1
1
1
1
1
1
1
1
1
1
1
1
1
1
1
1
1
1
1
1
1
1
1
1
1
1
1
1
1
1
1
1
1
1
1
1
1
1
1
1
1
1
1
1
1
1
1
1
1
1
1
1
1
1
1
1
1
1
1
1
1
1
1
1
1
1
1
1
1
1
1
1
1
1
1
1
1
1
1
1
1
1
1
1
1
1
1
1
1
1
1
1
1
1
1
1
1
1
1
1
1
1
1
1
1
1
1
1
1
1
1
1
1
1
1
1
1
1
1
1
1
1
1
1
1
1
1
1
1
1
1
1
1
1
1
1
1
1
1
1
1
1
1
1
1
1
1
1
1
1
1
1
1
1
1
1
1
1
1
1
1
1
1
1
1
1
1
1
1
1
1
1
1
1
1
1
1
1
1
1
1
1
1
1
1
1
1
1
1
1
1
1
1
1
1
1
1
1
1
1
1
1
1
1
1
1
1
1
1
1
1
1
1
1
1
1
1
1
1
1
1
1
1
1
1
1
1
1
1
1
1
1
1
1
1
1
1
1
1
1
1
1
1
1
1
1
1
1
1
1
1
1
1
1
1
1
1
1
1
1
1
1
1
1
1
1
1
1
1
1
1
1
1
1
1
1
1
1
1
1
1
1
1
1
1
1
1
1
1
1
1
1
1
1
1
1
1
1
1
1
1
1
1
1
1
1
1
1
1
1
1
1
1
1
1
1
1
1
1
1
1
1
1
1
1
1
1
1
1
1
1
1
1
1
1
1
1
1
1
1
1
1
1
1
1
1
1
1
1
1
1
1
1
1
1
1
1
1
1
1
1
1
1
1
1
1
1
1
1
1
1
1
1
1
1
1
1
1
1
1
1
1
1
1
1
1
1
1
1
1
1
1
1
1
1
1
1
1
1
1
1
1
1
1
1
1
0.992975
0.99365
0.993482
0.99453
0.995286
0.995749
0.996155
0.996429
0.996589
0.996664
0.996651
0.996686
0.996766
0.996757
0.996676
0.996588
0.996498
0.996406
0.996315
0.996223
0.996128
0.996088
0.996088
0.996087
0.996082
0.996079
0.996011
0.995869
0.995717
0.995456
0.995204
0.995204
0.995241
0.994885
0.994382
0.993753
0.992922
0.992093
0.991874
0.991368
0.990914
0.992432
0.996074
0.99904
0.999984
1
1
1
1
1
1
1
1
1
1
1
1
1
1
1
1
1
1
1
1
1
1
1
1
1
1
1
1
1
1
1
1
1
1
1
1
1
1
1
1
1
1
1
1
1
1
1
1
1
1
1
1
1
1
1
1
1
1
1
1
1
1
1
1
1
1
1
0.999999
0.999999
0.999999
0.999999
0.999998
0.999998
0.999998
0.999998
0.999997
0.999997
0.999997
0.999996
0.999996
0.999995
0.999995
0.999995
0.999994
0.999994
0.999993
0.999993
0.999992
0.999992
0.999991
0.99999
0.99999
0.999989
0.999988
0.999988
0.999987
0.999987
0.999987
0.999987
0.999987
0.999986
0.999986
0.999986
0.999986
0.999986
0.999986
0.999985
0.999985
0.999985
0.999985
0.999985
0.470471
0.469463
0.472344
0.475758
0.478628
0.48032
0.481306
0.481759
0.48181
0.481756
0.481872
0.482229
0.482882
0.483451
0.483644
0.483491
0.48314
0.482773
0.48253
0.482487
0.482679
0.483102
0.483756
0.484598
0.485551
0.486545
0.487527
0.488466
0.489379
0.490119
0.491116
0.492969
0.49488
0.495172
0.492412
0.485955
0.478645
0.475619
0.476035
0.473748
0.471479
0.476403
0.487501
0.496323
0.49863
0.498019
0.496894
0.495757
0.494697
0.493769
0.492996
0.492374
0.491885
0.491508
0.49122
0.491002
0.490838
0.490713
0.490619
0.490546
0.490491
0.490448
0.490413
0.490386
0.490364
0.490345
0.49033
0.490317
0.490306
0.490297
0.490288
0.490281
0.490274
0.490268
0.490263
0.490258
0.490254
0.49025
0.490246
0.490243
0.49024
0.490237
0.490234
0.490232
0.49023
0.490227
0.490225
0.490223
0.490222
0.49022
0.490218
0.490217
0.490215
0.490214
0.490213
0.490211
0.49021
0.490209
0.490208
0.490207
0.490206
0.490205
0.490204
0.490203
0.490202
0.490201
0.4902
0.490199
0.490198
0.490197
0.490196
0.490196
0.490195
0.490194
0.490193
0.490192
0.490191
0.49019
0.490189
0.490188
0.490187
0.490186
0.490185
0.490184
0.490182
0.490181
0.49018
0.490179
0.490177
0.490176
0.490174
0.490172
0.490171
0.490169
0.490167
0.490165
0.490163
0.49016
0.490158
0.490156
0.490155
0.490154
0.490154
0.490156
0.49016
0.490169
0.490183
0.490207
0.490243
0.490298
0.490379
0.490497
0.490665
0.490903
0.491234
0.491688
0.0114038
0.0110241
0.01078
0.0105653
0.0103571
0.0101023
0.00978407
0.00942741
0.00912151
0.00887117
0.00858309
0.00816828
0.00756571
0.00683826
0.00613524
0.00552507
0.00502475
0.00462489
0.00429048
0.00397717
0.0036927
0.00347614
0.00331691
0.00318945
0.00313541
0.00313869
0.00315319
0.00318556
0.00323792
0.00331381
0.0033937
0.00346609
0.00361705
0.00420455
0.00635174
0.00859773
0.00988408
0.0162072
0.0259947
0.0243549
0.0158481
0.0131493
0.0132968
0.0100464
0.00508461
0.00335294
0.00270215
0.00219965
0.00175607
0.00137895
0.00107096
0.00082678
0.000637343
0.000492618
0.000383161
0.000300835
0.000239014
0.000192501
0.000157329
0.000130525
0.00010989
9.38148e-05
8.11242e-05
7.0963e-05
6.27066e-05
5.59013e-05
5.02142e-05
4.53993e-05
4.12738e-05
3.76997e-05
3.45748e-05
3.18162e-05
2.93654e-05
2.71698e-05
2.51929e-05
2.3401e-05
2.17716e-05
2.02799e-05
1.89122e-05
1.76522e-05
1.64868e-05
1.54074e-05
1.44026e-05
1.34681e-05
1.2594e-05
1.17767e-05
1.10092e-05
1.02879e-05
9.6085e-06
8.96623e-06
8.3618e-06
7.78777e-06
7.24386e-06
6.72746e-06
6.2358e-06
5.76786e-06
5.3206e-06
4.89417e-06
4.48679e-06
4.09562e-06
3.72318e-06
3.36242e-06
3.0203e-06
2.68539e-06
2.36938e-06
2.05766e-06
1.7664e-06
1.47991e-06
1.21613e-06
9.58081e-07
7.21295e-07
4.98834e-07
2.87771e-07
1.0006e-07
8.59455e-10
9.14143e-26
4.00745e-42
-3.81447e-40
-1.07139e-42
-1.56426e-45
-1.59548e-48
-1.28591e-51
-8.75786e-55
-5.24944e-58
-2.84524e-61
-1.42042e-64
-6.61769e-68
-2.90733e-71
-1.21559e-74
-4.88227e-78
-1.90395e-81
-7.31297e-85
-2.82498e-88
-1.13167e-91
-4.88792e-95
-2.35659e-98
-1.2819e-101
-7.72205e-105
-4.99004e-108
-3.36503e-111
-2.32648e-114
3.96846e-09
2.67299e-07
1.11941e-06
2.90007e-06
6.10076e-06
1.14288e-05
1.98474e-05
3.27787e-05
5.22848e-05
8.11662e-05
0.000123283
0.00018386
0.000269866
0.000390403
0.000557057
-1.34107e-28
1.87775e-17
1.81599e-16
1.85328e-16
4.15232e-17
-6.50633e-42
-1.41169e-27
-1.53874e-27
-1.2859e-27
-9.62281e-28
-7.37523e-28
-5.88171e-28
-4.28674e-28
-2.83804e-28
-1.69884e-28
-9.6867e-29
-4.31114e-29
-2.73637e-29
-1.99968e-29
-1.7506e-29
-1.66162e-29
-1.86954e-29
-2.58332e-29
-4.23526e-29
-8.23432e-29
-5.99308e-29
-2.66261e-29
-9.80151e-30
5.16483e-24
-1.13214e-43
-1.3688e-28
-2.46535e-26
-1.92565e-23
8.38196e-23
7.20347e-23
2.2982e-23
2.5492e-25
8.13634e-27
8.07306e-39
8.2934e-41
9.88728e-54
5.04873e-57
-3.13261e-66
-3.54944e-78
-2.28213e-90
-1.00637e-102
-6.27117e-105
-1.58149e-117
-3.0425e-130
-4.6547e-143
-1.06312e-145
-1.04794e-158
-8.6733e-172
-6.00264e-185
-3.51924e-198
-1.78297e-211
-7.79887e-225
7.61253e-236
-6.88079e-234
6.49062e-232
-6.39748e-230
6.57478e-228
-7.03416e-226
7.82225e-224
-2.43088e-208
6.56376e-194
-8.19036e-192
1.04271e-189
-1.36052e-187
1.80964e-185
-2.43335e-183
3.30806e-181
-1.30348e-165
1.52868e-146
-1.99761e-144
2.58419e-142
-3.36199e-140
4.43198e-138
-5.89194e-136
7.66598e-134
-3.6949e-119
4.04873e-100
-4.49217e-98
4.64538e-96
-4.43413e-94
3.83503e-92
-2.91348e-90
1.87136e-88
-9.49358e-87
3.39549e-85
-6.39059e-84
-4.80719e-45
-2.47119e-45
2.03164e-54
-2.33149e-55
-1.89189e-59
-4.90808e-57
1.65899e-47
2.50837e-44
1.41363e-43
-6.54938e-47
3.65803e-45
-1.04853e-43
4.77797e-44
1.60976e-43
4.22612e-45
2.76669e-57
-1.51431e-42
-6.47773e-43
-1.98165e-42
-3.58239e-44
-2.79289e-46
7.31621e-42
1.78268e-44
-2.14483e-41
-3.06012e-54
-2.76503e-41
-1.02838e-43
-1.84266e-46
-2.1953e-49
-1.99314e-52
-1.48687e-55
-9.56054e-59
-5.52892e-62
-2.94938e-65
-1.46823e-68
-6.8861e-72
-3.06823e-75
-1.30913e-78
-5.39444e-82
-2.16929e-85
-8.63838e-89
-3.4814e-92
-1.46532e-95
-6.68971e-99
-3.41356e-102
-1.95554e-105
-1.2306e-108
-8.248e-112
-5.74182e-115
-4.08719e-118
-2.95045e-121
-2.15323e-124
-1.58809e-127
-1.91599e-131
-2.22443e-135
-2.13678e-139
-1.69172e-143
-1.03947e-147
-4.81132e-152
-5.00141e-154
-4.16701e-161
-7.98235e-166
-2.13308e-170
-1.54218e-174
-1.3383e-178
-3.91067e-25
-6.8198e-38
3.07863e-36
1.43087e-36
5.03882e-38
-1.40471e-27
-1.30276e-27
-8.95746e-28
-6.17734e-28
-4.48758e-28
-3.37355e-28
-2.5572e-28
-1.8924e-28
-1.35881e-28
-9.70787e-29
-6.94757e-29
-5.09314e-29
-3.79379e-29
-2.92537e-29
-2.36156e-29
-1.99454e-29
-1.77016e-29
-1.65991e-29
-1.64953e-29
-1.73889e-29
-1.7959e-29
-2.01616e-29
-2.44677e-29
-2.90044e-29
-7.10484e-28
-2.01234e-27
-2.78893e-27
-3.06005e-27
-3.97874e-27
-6.46182e-27
-8.98526e-27
-9.82793e-27
-1.00648e-26
-9.47594e-27
-1.07659e-26
-8.67052e-27
-3.62589e-27
-7.64607e-28
-9.89118e-29
-1.03838e-29
-8.88632e-31
-5.31969e-32
-2.22275e-33
-6.92098e-35
-1.68777e-36
-3.32678e-38
-5.42299e-40
-7.44424e-42
-8.72903e-44
-8.84265e-46
-7.80923e-48
-6.0572e-50
-4.15214e-52
-2.52891e-54
-1.37503e-56
-6.70267e-59
-2.94041e-61
-1.16495e-63
-4.1814e-66
-1.36369e-68
-4.05171e-71
-1.09938e-73
-2.73031e-76
-6.21903e-79
-1.3017e-81
-2.50807e-84
-4.45585e-87
-7.31057e-90
-1.10928e-92
-1.55883e-95
-2.03145e-98
-2.45821e-101
-2.76549e-104
-2.89592e-107
-2.82596e-110
-2.57278e-113
-7.91871e-122
-4.59712e-101
6.31717e-118
-5.14225e-97
3.99262e-114
-4.15674e-93
-1.51988e-110
-1.96175e-89
-1.72578e-107
-3.25545e-86
-2.35941e-47
-1.11566e-47
-2.28975e-49
-3.09385e-51
-3.03874e-53
-2.29868e-55
-4.00148e-70
-3.80684e-68
-8.48463e-70
-7.21563e-50
-7.66524e-68
-2.31974e-46
-1.11951e-47
-5.22763e-46
-1.45014e-47
-2.28911e-49
-1.36326e-44
-1.91968e-44
-6.0397e-44
-1.19213e-45
-1.14883e-47
-1.79991e-41
-2.37285e-43
-5.89777e-40
-2.73345e-42
-8.80758e-45
-1.74721e-47
-2.32675e-50
-2.29531e-53
-1.79559e-56
-1.16402e-59
-6.43848e-63
-3.23878e-66
-1.52737e-69
-6.80655e-73
-2.88606e-76
-1.17203e-79
-4.58992e-83
-1.74702e-86
-6.52801e-90
-2.42929e-93
-9.1975e-97
-3.65153e-100
-1.57474e-103
-7.57716e-107
-4.07984e-110
-2.40806e-113
-1.51398e-116
-9.9031e-120
-6.63904e-123
-4.52269e-126
-3.11341e-129
-2.21484e-132
-2.12663e-135
-1.62364e-138
-1.1539e-141
-8.12247e-145
-5.73582e-148
-4.07816e-151
-2.94407e-154
-2.17339e-157
-1.67147e-160
-1.37133e-163
-1.2315e-166
-1.23583e-169
-2.41205e-25
-1.52209e-25
-4.23323e-26
-6.04987e-27
-1.0841e-27
-5.28294e-28
-1.74916e-28
-4.55461e-29
-1.41158e-29
-6.02189e-30
-3.74388e-30
-3.04017e-30
-3.32637e-30
-4.46599e-30
-5.10597e-30
-5.27452e-30
-5.14856e-30
-5.08279e-30
-5.18704e-30
-5.37873e-30
-5.83466e-30
-7.10598e-30
-9.11495e-30
-1.12421e-29
-1.34766e-29
-1.6337e-29
-2.07748e-29
-2.78489e-29
-3.85213e-29
-5.3558e-29
-7.69405e-29
-1.45906e-28
-3.86491e-28
-1.18063e-27
-3.56692e-27
-8.09871e-27
-1.27325e-26
-1.51202e-26
-1.68214e-26
-1.87094e-26
-1.34303e-26
-4.9252e-27
-9.6394e-28
-1.21156e-28
-1.13043e-29
-7.99025e-31
-4.16725e-32
-1.62786e-33
-4.87003e-35
-1.14899e-36
-2.19626e-38
-3.47544e-40
-4.63228e-42
-5.27328e-44
-5.18546e-46
-4.44589e-48
-3.34931e-50
-2.23151e-52
-1.32223e-54
-7.00154e-57
-3.32758e-59
-1.4249e-61
-5.51656e-64
-1.93709e-66
-6.18695e-69
-1.80213e-71
-4.79868e-74
-1.1707e-76
-2.6221e-79
-5.402e-82
-1.02548e-84
-1.79676e-87
-2.91018e-90
-4.36373e-93
-6.06616e-96
-7.82846e-99
-9.39092e-102
-1.04846e-104
-1.09077e-107
-1.05867e-110
-9.59657e-114
-8.13032e-117
-6.20983e-104
-4.23725e-106
-7.65863e-100
-5.71281e-102
-7.26136e-96
-6.22095e-98
-4.48272e-92
-4.78153e-94
-1.25093e-88
-8.60097e-50
-3.79143e-50
-1.01196e-51
-1.49701e-53
-1.52228e-55
-1.16244e-57
-1.07589e-54
-8.89224e-56
-2.87987e-55
-8.39137e-53
-5.16983e-55
-3.84696e-49
-1.74023e-49
-1.81407e-48
-4.69702e-50
-6.10353e-52
-2.51533e-47
-3.35903e-47
-9.38563e-47
-1.75354e-48
-1.59783e-50
-1.70393e-44
-2.05541e-46
-1.4931e-43
-6.22702e-46
-1.47848e-48
-2.30518e-51
-2.58047e-54
-2.2202e-57
-1.54016e-60
-8.89655e-64
-4.38726e-67
-1.9721e-70
-8.39843e-74
-3.406e-77
-1.32268e-80
-4.94829e-84
-1.79565e-87
-6.37382e-91
-2.23824e-94
-7.90429e-98
-2.87473e-101
-1.11069e-104
-4.7032e-108
-2.22041e-111
-1.16132e-114
-6.57514e-118
-3.92865e-121
-2.43048e-124
-1.53884e-127
-9.90762e-131
-6.46946e-134
-4.28466e-137
-4.34172e-140
-9.08698e-143
-1.56718e-145
-2.25625e-148
-2.90168e-151
-3.48703e-154
-4.03924e-157
-4.61479e-160
-5.32909e-163
-6.37629e-166
-8.0765e-169
-1.09777e-171
-1.01564e-25
-8.55102e-26
-2.20148e-26
-2.66655e-27
-4.89449e-28
-1.1196e-28
-1.54022e-29
-1.60759e-30
-5.394e-31
-7.27076e-31
-6.05559e-31
-6.63575e-31
-1.31234e-30
-2.07978e-30
-1.71259e-30
-1.47734e-30
-1.38697e-30
-1.54691e-30
-1.7673e-30
-1.99005e-30
-2.64593e-30
-4.20326e-30
-5.96573e-30
-7.27861e-30
-8.96846e-30
-1.20118e-29
-1.70054e-29
-2.45837e-29
-3.54727e-29
-5.00845e-29
-7.23344e-29
-1.27021e-28
-3.28136e-28
-1.08456e-27
-3.57014e-27
-8.67271e-27
-1.44404e-26
-1.89913e-26
-2.26179e-26
-2.36238e-26
-1.51458e-26
-4.95875e-27
-9.03019e-28
-1.0905e-28
-9.84214e-30
-6.68759e-31
-3.31469e-32
-1.21761e-33
-3.44116e-35
-7.72403e-37
-1.41193e-38
-2.14521e-40
-2.75445e-42
-3.02934e-44
-2.88501e-46
-2.40057e-48
-1.75817e-50
-1.14055e-52
-6.58914e-55
-3.40609e-57
-1.58207e-59
-6.6279e-62
-2.51302e-64
-8.65043e-67
-2.71105e-69
-7.75581e-72
-2.03027e-74
-4.87393e-77
-1.07523e-79
-2.184e-82
-4.09183e-85
-7.08322e-88
-1.13472e-90
-1.68484e-93
-2.32205e-96
-2.97464e-99
-3.54671e-102
-3.94099e-105
-4.08604e-108
-3.95754e-111
-3.58466e-114
-3.03962e-117
-1.00353e-106
-1.21748e-108
-1.3349e-102
-1.73956e-104
-1.43241e-98
-2.08646e-100
-1.08147e-94
-1.87163e-96
-4.2677e-91
-2.76828e-52
-1.14176e-52
-3.33296e-54
-5.11217e-56
-5.25631e-58
-4.00347e-60
-6.6468e-57
-5.27488e-58
-1.57509e-57
-1.00104e-55
-9.86481e-58
-5.63174e-52
-4.30199e-52
-3.45974e-51
-8.4983e-53
-1.02258e-54
-3.1866e-50
-3.87217e-50
-9.54035e-50
-1.67967e-51
-1.43838e-53
-1.01905e-47
-1.12882e-49
-2.52103e-47
-9.72068e-50
-1.99528e-52
-2.71246e-55
-2.69814e-58
-2.0887e-61
-1.31004e-64
-6.83694e-68
-3.02658e-71
-1.2293e-74
-4.76615e-78
-1.77239e-81
-6.35117e-85
-2.20568e-88
-7.47806e-92
-2.49921e-95
-8.34645e-99
-2.84057e-102
-1.01168e-105
-3.88524e-109
-1.64603e-112
-7.72498e-116
-3.95577e-119
-2.15933e-122
-1.23087e-125
-7.22519e-129
-4.33209e-132
-2.64155e-135
-1.63423e-138
-1.0235e-141
-6.48281e-145
-2.09345e-147
-9.94858e-150
-3.08743e-152
-7.30477e-155
-1.46276e-157
-2.6421e-160
-4.48184e-163
-7.38779e-166
-1.21836e-168
-2.05432e-171
-3.58406e-174
-3.42811e-26
-3.47662e-26
-7.6328e-27
-8.93688e-28
-1.64417e-28
-2.37822e-29
-2.16335e-30
-2.17261e-31
-1.20885e-31
-1.54953e-31
-1.34555e-31
-2.08372e-31
-4.38976e-31
-5.96066e-31
-4.16093e-31
-3.65349e-31
-3.83986e-31
-4.71154e-31
-5.86033e-31
-7.48795e-31
-1.21009e-30
-2.10536e-30
-3.05508e-30
-3.90916e-30
-5.49056e-30
-8.31621e-30
-1.22584e-29
-1.81977e-29
-2.71392e-29
-3.94871e-29
-5.99572e-29
-1.1788e-28
-3.4441e-28
-1.20408e-27
-3.97405e-27
-9.97688e-27
-1.67803e-26
-2.26484e-26
-2.70634e-26
-2.59464e-26
-1.4561e-26
-4.09126e-27
-6.58541e-28
-7.21092e-29
-5.87511e-30
-3.61472e-31
-1.66331e-32
-5.78334e-34
-1.55996e-35
-3.35775e-37
-5.90636e-39
-8.65741e-41
-1.07442e-42
-1.14379e-44
-1.05578e-46
-8.52534e-49
-6.0672e-51
-3.82943e-53
-2.15525e-55
-1.08676e-57
-4.93007e-60
-2.01972e-62
-7.49749e-65
-2.5297e-67
-7.77993e-70
-2.18657e-72
-5.62958e-75
-1.33069e-77
-2.89377e-80
-5.80076e-83
-1.07381e-85
-1.83883e-88
-2.91768e-91
-4.29622e-94
-5.87938e-97
-7.48831e-100
-8.88837e-103
-9.84451e-106
-1.01862e-108
-9.85717e-112
-8.92998e-115
-7.58055e-118
-1.84262e-109
-3.00214e-111
-2.5965e-105
-4.47794e-107
-3.06694e-101
-5.78515e-103
-2.69986e-97
-5.84211e-99
-1.36285e-93
-8.31983e-55
-3.21549e-55
-9.71656e-57
-1.50742e-58
-1.54669e-60
-1.16594e-62
-2.55508e-59
-1.94598e-60
-5.35486e-60
-1.21127e-58
-1.47508e-60
-7.6844e-55
-7.66577e-55
-5.25037e-54
-1.22656e-55
-1.39125e-57
-3.36368e-53
-3.67365e-53
-7.95105e-53
-1.31598e-54
-1.05547e-56
-4.90223e-51
-5.00551e-53
-3.64375e-51
-1.31943e-53
-2.45973e-56
-3.03665e-59
-2.75836e-62
-1.95679e-65
-1.12579e-68
-5.3874e-72
-2.19092e-75
-8.17163e-79
-2.92513e-82
-1.00887e-85
-3.36929e-89
-1.0967e-92
-3.51008e-96
-1.11834e-99
-3.60948e-103
-1.20835e-106
-4.3135e-110
-1.68131e-113
-7.22105e-117
-3.38625e-120
-1.69982e-123
-8.95295e-127
-4.87546e-130
-2.7204e-133
-1.54765e-136
-8.95475e-140
-5.26396e-143
-3.14515e-146
-1.91328e-149
-2.5977e-152
-3.7445e-154
-2.77854e-156
-1.25815e-158
-4.26675e-161
-1.21157e-163
-3.06956e-166
-7.26447e-169
-1.66005e-171
-3.73904e-174
-8.37824e-177
-7.8186e-27
-1.09223e-26
-2.22935e-27
-2.77442e-28
-4.58822e-29
-5.07547e-30
-4.17237e-31
-4.68327e-32
-2.3154e-32
-2.90453e-32
-2.7229e-32
-4.22647e-32
-9.79823e-32
-1.46604e-31
-1.06202e-31
-9.11354e-32