/*--------------------------------*- C++ -*----------------------------------*\
| =========                 |                                                 |
| \\      /  F ield         | OpenFOAM: The Open Source CFD Toolbox           |
|  \\    /   O peration     | Version:  v1912                                 |
|   \\  /    A nd           | Website:  www.openfoam.com                      |
|    \\/     M anipulation  |                                                 |
\*---------------------------------------------------------------------------*/
FoamFile
{
    version     2.0;
    format      ascii;
    class       volScalarField;
    location    "10";
    object      nut;
}
// * * * * * * * * * * * * * * * * * * * * * * * * * * * * * * * * * * * * * //

dimensions      [0 2 -1 0 0 0 0];


internalField   nonuniform List<scalar> 
14268
(
2.91193e-08
2.91089e-08
2.90985e-08
2.90852e-08
2.90749e-08
2.90826e-08
2.90199e-08
2.88288e-08
3.79757e-07
3.79409e-07
3.79018e-07
3.78483e-07
3.78038e-07
3.78049e-07
3.75806e-07
3.68712e-07
4.67937e-07
4.67891e-07
4.67844e-07
4.67791e-07
4.67728e-07
4.67752e-07
4.67488e-07
4.66627e-07
4.72209e-07
4.72211e-07
4.72216e-07
4.72228e-07
4.72216e-07
4.72224e-07
4.72062e-07
4.71864e-07
4.72991e-07
4.72988e-07
4.72986e-07
4.72987e-07
4.72966e-07
4.72991e-07
4.72994e-07
4.73055e-07
4.72355e-07
4.72372e-07
4.72394e-07
4.72424e-07
4.72429e-07
4.72417e-07
4.72278e-07
4.7218e-07
4.73e-07
4.72994e-07
4.7299e-07
4.72986e-07
4.72963e-07
4.72992e-07
4.72994e-07
4.73033e-07
4.72323e-07
4.72354e-07
4.72389e-07
4.72438e-07
4.72447e-07
4.72429e-07
4.72305e-07
4.72274e-07
4.73006e-07
4.72996e-07
4.72989e-07
4.72982e-07
4.72959e-07
4.72988e-07
4.72991e-07
4.73006e-07
4.72294e-07
4.7234e-07
4.72393e-07
4.72468e-07
4.72475e-07
4.72466e-07
4.7237e-07
4.72445e-07
4.73015e-07
4.73002e-07
4.72991e-07
4.72978e-07
4.72959e-07
4.72984e-07
4.72989e-07
4.72978e-07
4.72265e-07
4.7233e-07
4.72407e-07
4.72517e-07
4.72515e-07
4.72541e-07
4.72477e-07
4.72701e-07
4.73209e-07
4.732e-07
4.73189e-07
4.73172e-07
4.73152e-07
4.73158e-07
4.73045e-07
4.7286e-07
4.7277e-07
4.7287e-07
4.72946e-07
4.73052e-07
4.73061e-07
4.73105e-07
4.73064e-07
4.73561e-07
4.72967e-07
4.7297e-07
4.72974e-07
4.72993e-07
4.73004e-07
4.7305e-07
4.73122e-07
4.73561e-07
4.72501e-07
4.72508e-07
4.72522e-07
4.72551e-07
4.72476e-07
4.72569e-07
4.72471e-07
4.73075e-07
4.73019e-07
4.73007e-07
4.72996e-07
4.72982e-07
4.72979e-07
4.72965e-07
4.73026e-07
4.72791e-07
4.7237e-07
4.72419e-07
4.72477e-07
4.72547e-07
4.7249e-07
4.72641e-07
4.72372e-07
4.72964e-07
4.73077e-07
4.73058e-07
4.73041e-07
4.73021e-07
4.73013e-07
4.72987e-07
4.73103e-07
4.7282e-07
4.72127e-07
4.72199e-07
4.72276e-07
4.72364e-07
4.7232e-07
4.72517e-07
4.7208e-07
4.72815e-07
4.73155e-07
4.73124e-07
4.73098e-07
4.73061e-07
4.73029e-07
4.72959e-07
4.73128e-07
4.72613e-07
4.72595e-07
4.72629e-07
4.72676e-07
4.72699e-07
4.72698e-07
4.72725e-07
4.72816e-07
4.72936e-07
4.72993e-07
4.72968e-07
4.72948e-07
4.72929e-07
4.72893e-07
4.7296e-07
4.73118e-07
4.73002e-07
4.72491e-07
4.72527e-07
4.72587e-07
4.72629e-07
4.72603e-07
4.72656e-07
4.72801e-07
4.72954e-07
4.67801e-07
4.68061e-07
4.68387e-07
4.68804e-07
4.6917e-07
4.66833e-07
4.3683e-07
3.41918e-07
2.5516e-07
2.54396e-07
2.53094e-07
2.52373e-07
2.50016e-07
2.46309e-07
2.43245e-07
3.5352e-07
1.13656e-06
7.41725e-07
7.79453e-07
1.7355e-06
1.76149e-06
1.41817e-06
1.21169e-07
1.73029e-06
2.1055e-07
2.12067e-07
2.09219e-07
2.06019e-07
2.04547e-07
1.59517e-07
6.55573e-08
6.68923e-08
0.000234966
0.000187421
0.000147659
0.000120098
9.68688e-05
7.2186e-05
5.06249e-05
4.24912e-05
9.49792e-05
8.71212e-05
8.03274e-05
7.33109e-05
6.41097e-05
5.25612e-05
4.49568e-05
4.32657e-05
9.96396e-06
1.28408e-05
1.53205e-05
1.67474e-05
1.73939e-05
1.82171e-05
2.09103e-05
2.62888e-05
7.27911e-06
9.04065e-06
1.02882e-05
1.11707e-05
1.19158e-05
1.32999e-05
1.59982e-05
2.18829e-05
4.46631e-06
5.6216e-06
6.6177e-06
7.59365e-06
8.61532e-06
1.04237e-05
1.32065e-05
1.77024e-05
1.85822e-06
2.44178e-06
3.04729e-06
3.78301e-06
4.76472e-06
6.46415e-06
8.90102e-06
1.19361e-05
8.27928e-07
1.02848e-06
1.25942e-06
1.56505e-06
2.01836e-06
2.88589e-06
4.37687e-06
6.59303e-06
5.06518e-07
5.50541e-07
6.06752e-07
6.86042e-07
8.08431e-07
1.06134e-06
1.53458e-06
2.37648e-06
4.60684e-07
4.68256e-07
4.77274e-07
4.89917e-07
5.09443e-07
5.54689e-07
6.4138e-07
8.1158e-07
4.49319e-07
4.52076e-07
4.54644e-07
4.57936e-07
4.60728e-07
4.66382e-07
4.76907e-07
5.00322e-07
4.59466e-07
4.59015e-07
4.58166e-07
4.57487e-07
4.57888e-07
4.59064e-07
4.60279e-07
4.63888e-07
4.5678e-07
4.58067e-07
4.58998e-07
4.58811e-07
4.58205e-07
4.58612e-07
4.58701e-07
4.60351e-07
4.63238e-07
4.63073e-07
4.62623e-07
4.62688e-07
4.62783e-07
4.62675e-07
4.62407e-07
4.63505e-07
4.6265e-07
4.63464e-07
4.63446e-07
4.62927e-07
4.62867e-07
4.63209e-07
4.62953e-07
4.64008e-07
4.65992e-07
4.66122e-07
4.66071e-07
4.66111e-07
4.65919e-07
4.65964e-07
4.65708e-07
4.6643e-07
4.65993e-07
4.66477e-07
4.66261e-07
4.65953e-07
4.6589e-07
4.66159e-07
4.65864e-07
4.66562e-07
4.68389e-07
4.68702e-07
4.6861e-07
4.68472e-07
4.68124e-07
4.68235e-07
4.67999e-07
4.68408e-07
4.67999e-07
4.68492e-07
4.68388e-07
4.68205e-07
4.67956e-07
4.6814e-07
4.67852e-07
4.68345e-07
4.7002e-07
4.70336e-07
4.70291e-07
4.70155e-07
4.69742e-07
4.69786e-07
4.69549e-07
4.69739e-07
4.69273e-07
4.69731e-07
4.69813e-07
4.69828e-07
4.6946e-07
4.69589e-07
4.69294e-07
4.6961e-07
4.71069e-07
4.71316e-07
4.71313e-07
4.71351e-07
4.70975e-07
4.70925e-07
4.70513e-07
4.70598e-07
4.70113e-07
4.70496e-07
4.70624e-07
4.70828e-07
4.7055e-07
4.70723e-07
4.70311e-07
4.70597e-07
4.71755e-07
4.71966e-07
4.71931e-07
4.71999e-07
4.71673e-07
4.71651e-07
4.71139e-07
4.71109e-07
4.70746e-07
4.71047e-07
4.71088e-07
4.71316e-07
4.71156e-07
4.71444e-07
4.7108e-07
4.71476e-07
4.72202e-07
4.72342e-07
4.72238e-07
4.72316e-07
4.71994e-07
4.72025e-07
4.71507e-07
4.7141e-07
4.71247e-07
4.71479e-07
4.71453e-07
4.7166e-07
4.71503e-07
4.71868e-07
4.71683e-07
4.72021e-07
4.72463e-07
4.7255e-07
4.72414e-07
4.72492e-07
4.72167e-07
4.72135e-07
4.71667e-07
4.71757e-07
4.71649e-07
4.71835e-07
4.71792e-07
4.72007e-07
4.71871e-07
4.72238e-07
4.72011e-07
4.72193e-07
4.72628e-07
4.72685e-07
4.72532e-07
4.72592e-07
4.72293e-07
4.7233e-07
4.7198e-07
4.72059e-07
4.71991e-07
4.72147e-07
4.72095e-07
4.72298e-07
4.72181e-07
4.72443e-07
4.72219e-07
4.72342e-07
4.7274e-07
4.72787e-07
4.72634e-07
4.72689e-07
4.72433e-07
4.72507e-07
4.7222e-07
4.72296e-07
4.72283e-07
4.72421e-07
4.72363e-07
4.72531e-07
4.72423e-07
4.72586e-07
4.72379e-07
4.72467e-07
4.72823e-07
4.72863e-07
4.72728e-07
4.7278e-07
4.72578e-07
4.72658e-07
4.72433e-07
4.72482e-07
4.72538e-07
4.72653e-07
4.72594e-07
4.72727e-07
4.72614e-07
4.7272e-07
4.72532e-07
4.72584e-07
4.72898e-07
4.72932e-07
4.72818e-07
4.72868e-07
4.72711e-07
4.72785e-07
4.72604e-07
4.72639e-07
4.72749e-07
4.72848e-07
4.72787e-07
4.72882e-07
4.72769e-07
4.72837e-07
4.72683e-07
4.7271e-07
4.72967e-07
4.73002e-07
4.72915e-07
4.72966e-07
4.72846e-07
4.72893e-07
4.72748e-07
4.72766e-07
4.72923e-07
4.72996e-07
4.72937e-07
4.73e-07
4.72902e-07
4.72942e-07
4.72811e-07
4.72823e-07
4.7304e-07
4.73079e-07
4.73012e-07
4.73051e-07
4.72958e-07
4.72989e-07
4.7287e-07
4.72874e-07
4.73055e-07
4.73104e-07
4.73053e-07
4.7309e-07
4.73008e-07
4.73034e-07
4.72927e-07
4.72923e-07
4.73123e-07
4.73156e-07
4.7311e-07
4.73135e-07
4.73059e-07
4.73074e-07
4.72978e-07
4.72971e-07
4.73156e-07
4.73187e-07
4.73151e-07
4.73172e-07
4.73104e-07
4.73113e-07
4.73025e-07
4.73017e-07
4.73202e-07
4.73226e-07
4.73191e-07
4.73207e-07
4.73146e-07
4.7315e-07
4.7307e-07
4.73055e-07
4.73235e-07
4.73257e-07
4.73228e-07
4.73239e-07
4.73186e-07
4.73186e-07
4.73112e-07
4.73093e-07
4.73273e-07
4.73289e-07
4.7326e-07
4.73268e-07
4.73218e-07
4.73216e-07
4.73145e-07
4.73128e-07
4.73325e-07
4.7334e-07
4.73316e-07
4.73321e-07
4.73275e-07
4.73267e-07
4.73199e-07
4.73179e-07
4.73335e-07
4.73352e-07
4.7334e-07
4.73345e-07
4.73311e-07
4.73311e-07
4.73256e-07
4.73239e-07
4.73324e-07
4.73335e-07
4.73317e-07
4.7332e-07
4.73291e-07
4.73292e-07
4.73243e-07
4.7323e-07
4.73343e-07
4.73346e-07
4.73325e-07
4.73319e-07
4.73277e-07
4.73258e-07
4.73201e-07
4.73176e-07
4.7342e-07
4.73424e-07
4.73413e-07
4.73408e-07
4.73383e-07
4.7337e-07
4.73331e-07
4.73308e-07
4.73509e-07
4.73514e-07
4.7351e-07
4.73507e-07
4.73495e-07
4.73485e-07
4.73461e-07
4.73443e-07
4.73519e-07
4.73524e-07
4.73524e-07
4.73523e-07
4.73515e-07
4.73508e-07
4.73493e-07
4.73478e-07
4.735e-07
4.73507e-07
4.73509e-07
4.7351e-07
4.73509e-07
4.73505e-07
4.73498e-07
4.7349e-07
4.7348e-07
4.73486e-07
4.73489e-07
4.7349e-07
4.73489e-07
4.73486e-07
4.73481e-07
4.73475e-07
4.73465e-07
4.7347e-07
4.73474e-07
4.73475e-07
4.73475e-07
4.73473e-07
4.73469e-07
4.73464e-07
4.73456e-07
4.73461e-07
4.73464e-07
4.73466e-07
4.73466e-07
4.73465e-07
4.73462e-07
4.73458e-07
4.73451e-07
4.73455e-07
4.73457e-07
4.73458e-07
4.73458e-07
4.73457e-07
4.73454e-07
4.7345e-07
4.73898e-07
4.73841e-07
4.73787e-07
4.73738e-07
4.73694e-07
4.73654e-07
4.73617e-07
4.73585e-07
4.91613e-07
4.90461e-07
4.89308e-07
4.88163e-07
4.87035e-07
4.85932e-07
4.84859e-07
4.83825e-07
2.90285e-08
2.93344e-08
2.95708e-08
2.95637e-08
2.95742e-08
2.95626e-08
2.95603e-08
2.95573e-08
2.95554e-08
2.95551e-08
2.95566e-08
2.95548e-08
2.955e-08
2.95499e-08
2.95546e-08
2.95611e-08
2.95691e-08
2.95775e-08
2.95853e-08
2.95919e-08
2.95962e-08
2.95965e-08
2.95936e-08
2.95878e-08
2.95794e-08
2.9569e-08
2.95585e-08
2.95499e-08
2.95402e-08
2.9533e-08
2.95266e-08
2.95139e-08
2.95057e-08
2.95183e-08
2.95494e-08
2.96e-08
2.9661e-08
2.97155e-08
2.97536e-08
2.98027e-08
2.98485e-08
2.97989e-08
2.96566e-08
2.95239e-08
2.94657e-08
2.94565e-08
2.94595e-08
2.94649e-08
2.94706e-08
2.94758e-08
2.94802e-08
2.94838e-08
2.94866e-08
2.94889e-08
2.94905e-08
2.94918e-08
2.94928e-08
2.94935e-08
2.9494e-08
2.94944e-08
2.94947e-08
2.9495e-08
2.94952e-08
2.94953e-08
2.94954e-08
2.94955e-08
2.94956e-08
2.94956e-08
2.94957e-08
2.94957e-08
2.94958e-08
2.94958e-08
2.94958e-08
2.94959e-08
2.94959e-08
2.94959e-08
2.94959e-08
2.9496e-08
2.9496e-08
2.9496e-08
2.9496e-08
2.9496e-08
2.9496e-08
2.9496e-08
2.9496e-08
2.94961e-08
2.94961e-08
2.94961e-08
2.94961e-08
2.94961e-08
2.94961e-08
2.94961e-08
2.94961e-08
2.94961e-08
2.94961e-08
2.94961e-08
2.94961e-08
2.94961e-08
2.94961e-08
2.94961e-08
2.94962e-08
2.94962e-08
2.94962e-08
2.94962e-08
2.94962e-08
2.94962e-08
2.94962e-08
2.94962e-08
2.94962e-08
2.94962e-08
2.94962e-08
2.94962e-08
2.94962e-08
2.94962e-08
2.94962e-08
2.94962e-08
2.94962e-08
2.94962e-08
2.94963e-08
2.94963e-08
2.94963e-08
2.94963e-08
2.94963e-08
2.94963e-08
2.94963e-08
2.94963e-08
2.94963e-08
2.94963e-08
2.94964e-08
2.94964e-08
2.94964e-08
2.94964e-08
2.94964e-08
2.94964e-08
2.94965e-08
2.94965e-08
2.94965e-08
2.94965e-08
2.94965e-08
2.94965e-08
2.94965e-08
2.94965e-08
2.94965e-08
2.94965e-08
2.94964e-08
2.94964e-08
2.94963e-08
2.94961e-08
2.94959e-08
2.94956e-08
2.94951e-08
2.94943e-08
2.94933e-08
2.94919e-08
2.94898e-08
2.94871e-08
3.68325e-07
3.79334e-07
3.84626e-07
3.8496e-07
3.85393e-07
3.85465e-07
3.856e-07
3.85662e-07
3.85709e-07
3.85711e-07
3.85696e-07
3.85646e-07
3.85539e-07
3.85412e-07
3.85346e-07
3.8535e-07
3.85405e-07
3.85465e-07
3.85503e-07
3.85492e-07
3.85426e-07
3.85332e-07
3.85215e-07
3.85074e-07
3.84897e-07
3.84675e-07
3.84418e-07
3.84149e-07
3.83832e-07
3.83461e-07
3.83052e-07
3.82607e-07
3.8215e-07
3.81847e-07
3.82101e-07
3.82989e-07
3.84163e-07
3.8482e-07
3.85033e-07
3.85422e-07
3.85608e-07
3.85418e-07
3.85007e-07
3.84606e-07
3.84381e-07
3.8427e-07
3.84365e-07
3.84555e-07
3.84762e-07
3.84954e-07
3.85119e-07
3.85256e-07
3.85364e-07
3.8545e-07
3.85515e-07
3.85566e-07
3.85604e-07
3.85633e-07
3.85655e-07
3.85672e-07
3.85685e-07
3.85696e-07
3.85704e-07
3.8571e-07
3.85716e-07
3.8572e-07
3.85723e-07
3.85726e-07
3.85729e-07
3.85731e-07
3.85733e-07
3.85735e-07
3.85736e-07
3.85738e-07
3.85739e-07
3.8574e-07
3.85741e-07
3.85742e-07
3.85743e-07
3.85744e-07
3.85744e-07
3.85745e-07
3.85745e-07
3.85746e-07
3.85747e-07
3.85747e-07
3.85747e-07
3.85748e-07
3.85748e-07
3.85749e-07
3.85749e-07
3.85749e-07
3.8575e-07
3.8575e-07
3.8575e-07
3.8575e-07
3.85751e-07
3.85751e-07
3.85751e-07
3.85751e-07
3.85751e-07
3.85752e-07
3.85752e-07
3.85752e-07
3.85752e-07
3.85752e-07
3.85752e-07
3.85753e-07
3.85753e-07
3.85753e-07
3.85753e-07
3.85753e-07
3.85753e-07
3.85753e-07
3.85753e-07
3.85753e-07
3.85753e-07
3.85753e-07
3.85753e-07
3.85753e-07
3.85753e-07
3.85753e-07
3.85753e-07
3.85753e-07
3.85753e-07
3.85753e-07
3.85753e-07
3.85753e-07
3.85753e-07
3.85753e-07
3.85753e-07
3.85753e-07
3.85753e-07
3.85753e-07
3.85753e-07
3.85753e-07
3.85753e-07
3.85753e-07
3.85753e-07
3.85753e-07
3.85753e-07
3.85753e-07
3.85753e-07
3.85752e-07
3.85751e-07
3.85748e-07
3.85743e-07
3.85737e-07
3.85727e-07
3.85713e-07
3.85692e-07
3.85662e-07
3.85621e-07
3.85564e-07
3.85486e-07
3.8538e-07
4.66559e-07
4.67895e-07
4.68427e-07
4.68464e-07
4.68524e-07
4.68511e-07
4.68538e-07
4.68528e-07
4.68535e-07
4.68533e-07
4.6854e-07
4.68539e-07
4.68529e-07
4.68521e-07
4.68517e-07
4.68516e-07
4.68519e-07
4.68523e-07
4.68526e-07
4.68526e-07
4.68519e-07
4.68509e-07
4.68496e-07
4.6848e-07
4.68461e-07
4.68437e-07
4.6841e-07
4.68382e-07
4.68352e-07
4.68318e-07
4.68281e-07
4.68239e-07
4.68197e-07
4.68171e-07
4.68194e-07
4.68264e-07
4.6837e-07
4.68449e-07
4.68459e-07
4.68483e-07
4.68515e-07
4.68498e-07
4.68452e-07
4.68405e-07
4.68384e-07
4.68374e-07
4.68382e-07
4.68396e-07
4.68411e-07
4.68425e-07
4.68436e-07
4.68445e-07
4.6845e-07
4.68454e-07
4.68456e-07
4.68457e-07
4.68458e-07
4.68458e-07
4.68458e-07
4.68457e-07
4.68457e-07
4.68456e-07
4.68455e-07
4.68455e-07
4.68454e-07
4.68454e-07
4.68453e-07
4.68453e-07
4.68452e-07
4.68452e-07
4.68451e-07
4.68451e-07
4.68451e-07
4.6845e-07
4.6845e-07
4.6845e-07
4.6845e-07
4.68449e-07
4.68449e-07
4.68449e-07
4.68449e-07
4.68448e-07
4.68448e-07
4.68448e-07
4.68448e-07
4.68448e-07
4.68448e-07
4.68447e-07
4.68447e-07
4.68447e-07
4.68447e-07
4.68447e-07
4.68447e-07
4.68447e-07
4.68447e-07
4.68447e-07
4.68447e-07
4.68447e-07
4.68446e-07
4.68446e-07
4.68446e-07
4.68446e-07
4.68446e-07
4.68446e-07
4.68446e-07
4.68446e-07
4.68446e-07
4.68446e-07
4.68446e-07
4.68446e-07
4.68446e-07
4.68446e-07
4.68446e-07
4.68446e-07
4.68446e-07
4.68446e-07
4.68446e-07
4.68446e-07
4.68446e-07
4.68446e-07
4.68446e-07
4.68446e-07
4.68446e-07
4.68446e-07
4.68446e-07
4.68447e-07
4.68447e-07
4.68447e-07
4.68447e-07
4.68447e-07
4.68447e-07
4.68447e-07
4.68447e-07
4.68448e-07
4.68448e-07
4.68448e-07
4.68448e-07
4.68448e-07
4.68448e-07
4.68449e-07
4.68449e-07
4.68449e-07
4.68449e-07
4.68449e-07
4.68449e-07
4.6845e-07
4.6845e-07
4.68451e-07
4.68451e-07
4.68452e-07
4.68452e-07
4.68452e-07
4.68451e-07
4.6845e-07
4.68447e-07
4.68442e-07
4.71885e-07
4.72295e-07
4.72447e-07
4.72462e-07
4.72502e-07
4.72484e-07
4.72526e-07
4.72517e-07
4.72536e-07
4.7253e-07
4.72538e-07
4.7254e-07
4.72533e-07
4.72522e-07
4.72521e-07
4.72521e-07
4.72525e-07
4.72526e-07
4.7253e-07
4.7253e-07
4.7253e-07
4.7253e-07
4.72532e-07
4.72537e-07
4.72533e-07
4.72522e-07
4.72514e-07
4.72521e-07
4.72515e-07
4.72505e-07
4.72508e-07
4.72507e-07
4.72502e-07
4.72504e-07
4.72523e-07
4.72528e-07
4.72545e-07
4.72578e-07
4.72577e-07
4.72577e-07
4.72611e-07
4.72639e-07
4.72633e-07
4.72621e-07
4.72624e-07
4.72628e-07
4.7264e-07
4.7265e-07
4.7266e-07
4.72668e-07
4.72676e-07
4.72682e-07
4.72687e-07
4.72692e-07
4.72696e-07
4.72699e-07
4.72702e-07
4.72705e-07
4.72707e-07
4.7271e-07
4.72711e-07
4.72713e-07
4.72714e-07
4.72716e-07
4.72717e-07
4.72718e-07
4.72719e-07
4.7272e-07
4.7272e-07
4.72721e-07
4.72722e-07
4.72722e-07
4.72723e-07
4.72724e-07
4.72724e-07
4.72725e-07
4.72725e-07
4.72725e-07
4.72726e-07
4.72726e-07
4.72727e-07
4.72727e-07
4.72727e-07
4.72727e-07
4.72728e-07
4.72728e-07
4.72728e-07
4.72729e-07
4.72729e-07
4.72729e-07
4.72729e-07
4.72729e-07
4.7273e-07
4.7273e-07
4.7273e-07
4.7273e-07
4.7273e-07
4.7273e-07
4.7273e-07
4.72731e-07
4.72731e-07
4.72731e-07
4.72731e-07
4.72731e-07
4.72731e-07
4.72731e-07
4.72731e-07
4.72731e-07
4.72731e-07
4.72731e-07
4.72731e-07
4.72731e-07
4.72731e-07
4.72731e-07
4.72731e-07
4.72731e-07
4.72731e-07
4.72731e-07
4.72731e-07
4.72731e-07
4.72731e-07
4.72731e-07
4.72731e-07
4.72731e-07
4.72731e-07
4.72731e-07
4.72731e-07
4.7273e-07
4.7273e-07
4.7273e-07
4.7273e-07
4.7273e-07
4.72729e-07
4.72729e-07
4.72729e-07
4.72729e-07
4.72728e-07
4.72728e-07
4.72728e-07
4.72728e-07
4.72727e-07
4.72727e-07
4.72727e-07
4.72727e-07
4.72726e-07
4.72726e-07
4.72725e-07
4.72724e-07
4.72723e-07
4.72721e-07
4.72719e-07
4.72716e-07
4.72714e-07
4.7271e-07
4.72706e-07
4.72701e-07
4.73049e-07
4.73018e-07
4.72951e-07
4.72951e-07
4.72961e-07
4.72946e-07
4.72956e-07
4.72948e-07
4.72951e-07
4.7295e-07
4.72954e-07
4.72955e-07
4.72955e-07
4.72957e-07
4.72957e-07
4.72956e-07
4.72955e-07
4.72956e-07
4.72957e-07
4.72959e-07
4.72957e-07
4.72958e-07
4.72958e-07
4.72958e-07
4.7296e-07
4.72961e-07
4.7296e-07
4.72959e-07
4.72962e-07
4.72963e-07
4.72965e-07
4.72965e-07
4.7296e-07
4.72954e-07
4.72947e-07
4.72931e-07
4.7293e-07
4.72948e-07
4.72937e-07
4.72927e-07
4.72943e-07
4.72953e-07
4.7295e-07
4.72942e-07
4.72942e-07
4.72941e-07
4.7294e-07
4.72938e-07
4.72937e-07
4.72936e-07
4.72934e-07
4.72933e-07
4.72932e-07
4.72931e-07
4.7293e-07
4.72929e-07
4.72928e-07
4.72928e-07
4.72927e-07
4.72926e-07
4.72926e-07
4.72925e-07
4.72925e-07
4.72925e-07
4.72924e-07
4.72924e-07
4.72924e-07
4.72924e-07
4.72923e-07
4.72923e-07
4.72923e-07
4.72923e-07
4.72923e-07
4.72922e-07
4.72922e-07
4.72922e-07
4.72922e-07
4.72922e-07
4.72922e-07
4.72922e-07
4.72922e-07
4.72922e-07
4.72921e-07
4.72921e-07
4.72921e-07
4.72921e-07
4.72921e-07
4.72921e-07
4.72921e-07
4.72921e-07
4.72921e-07
4.72921e-07
4.72921e-07
4.72921e-07
4.72921e-07
4.7292e-07
4.7292e-07
4.7292e-07
4.7292e-07
4.7292e-07
4.7292e-07
4.7292e-07
4.7292e-07
4.7292e-07
4.7292e-07
4.7292e-07
4.7292e-07
4.7292e-07
4.7292e-07
4.7292e-07
4.7292e-07
4.7292e-07
4.7292e-07
4.7292e-07
4.7292e-07
4.7292e-07
4.7292e-07
4.7292e-07
4.7292e-07
4.7292e-07
4.7292e-07
4.7292e-07
4.7292e-07
4.7292e-07
4.7292e-07
4.7292e-07
4.7292e-07
4.7292e-07
4.7292e-07
4.72921e-07
4.72921e-07
4.72921e-07
4.72921e-07
4.72921e-07
4.72921e-07
4.72921e-07
4.72921e-07
4.72921e-07
4.72921e-07
4.72921e-07
4.72921e-07
4.72921e-07
4.72921e-07
4.72922e-07
4.72922e-07
4.72922e-07
4.72922e-07
4.72922e-07
4.72923e-07
4.72923e-07
4.72924e-07
4.72925e-07
4.72925e-07
4.72926e-07
4.72927e-07
4.72929e-07
4.72216e-07
4.72503e-07
4.72637e-07
4.72653e-07
4.72687e-07
4.72672e-07
4.72711e-07
4.72699e-07
4.72716e-07
4.72706e-07
4.72711e-07
4.72713e-07
4.72704e-07
4.72695e-07
4.72698e-07
4.72699e-07
4.72703e-07
4.72704e-07
4.72707e-07
4.72708e-07
4.72712e-07
4.72712e-07
4.72717e-07
4.72726e-07
4.72713e-07
4.72697e-07
4.72691e-07
4.72704e-07
4.72696e-07
4.72685e-07
4.72691e-07
4.72692e-07
4.72694e-07
4.72699e-07
4.72712e-07
4.72705e-07
4.72712e-07
4.72744e-07
4.72741e-07
4.7274e-07
4.72774e-07
4.72798e-07
4.72794e-07
4.72785e-07
4.7279e-07
4.72796e-07
4.72806e-07
4.72814e-07
4.72822e-07
4.72829e-07
4.72835e-07
4.7284e-07
4.72845e-07
4.72849e-07
4.72852e-07
4.72856e-07
4.72859e-07
4.72861e-07
4.72864e-07
4.72866e-07
4.72868e-07
4.7287e-07
4.72871e-07
4.72873e-07
4.72874e-07
4.72875e-07
4.72876e-07
4.72877e-07
4.72878e-07
4.72879e-07
4.7288e-07
4.72881e-07
4.72882e-07
4.72882e-07
4.72883e-07
4.72884e-07
4.72884e-07
4.72885e-07
4.72885e-07
4.72886e-07
4.72886e-07
4.72887e-07
4.72887e-07
4.72887e-07
4.72888e-07
4.72888e-07
4.72888e-07
4.72889e-07
4.72889e-07
4.7289e-07
4.7289e-07
4.7289e-07
4.7289e-07
4.72891e-07
4.72891e-07
4.72891e-07
4.72891e-07
4.72892e-07
4.72892e-07
4.72892e-07
4.72892e-07
4.72892e-07
4.72893e-07
4.72893e-07
4.72893e-07
4.72893e-07
4.72893e-07
4.72893e-07
4.72893e-07
4.72893e-07
4.72893e-07
4.72893e-07
4.72893e-07
4.72893e-07
4.72893e-07
4.72894e-07
4.72894e-07
4.72893e-07
4.72893e-07
4.72893e-07
4.72893e-07
4.72893e-07
4.72893e-07
4.72892e-07
4.72892e-07
4.72892e-07
4.72892e-07
4.72891e-07
4.72891e-07
4.72891e-07
4.72891e-07
4.7289e-07
4.7289e-07
4.7289e-07
4.72889e-07
4.72889e-07
4.72888e-07
4.72888e-07
4.72888e-07
4.72887e-07
4.72887e-07
4.72887e-07
4.72886e-07
4.72886e-07
4.72885e-07
4.72885e-07
4.72884e-07
4.72883e-07
4.72881e-07
4.7288e-07
4.72878e-07
4.72876e-07
4.72873e-07
4.7287e-07
4.72867e-07
4.72864e-07
4.73012e-07
4.73002e-07
4.72933e-07
4.72945e-07
4.72956e-07
4.72941e-07
4.72952e-07
4.72945e-07
4.72946e-07
4.72946e-07
4.7295e-07
4.72951e-07
4.72951e-07
4.72953e-07
4.72952e-07
4.7295e-07
4.72948e-07
4.72948e-07
4.72949e-07
4.72949e-07
4.72945e-07
4.72946e-07
4.72946e-07
4.72946e-07
4.72955e-07
4.7296e-07
4.72959e-07
4.72959e-07
4.72962e-07
4.72964e-07
4.72965e-07
4.72964e-07
4.72957e-07
4.7295e-07
4.72944e-07
4.7293e-07
4.7293e-07
4.72946e-07
4.72935e-07
4.72926e-07
4.72943e-07
4.72957e-07
4.72954e-07
4.72946e-07
4.72946e-07
4.72944e-07
4.72943e-07
4.72942e-07
4.72941e-07
4.7294e-07
4.72939e-07
4.72938e-07
4.72937e-07
4.72936e-07
4.72935e-07
4.72934e-07
4.72934e-07
4.72933e-07
4.72932e-07
4.72932e-07
4.72931e-07
4.72931e-07
4.72931e-07
4.7293e-07
4.7293e-07
4.7293e-07
4.72929e-07
4.72929e-07
4.72929e-07
4.72929e-07
4.72928e-07
4.72928e-07
4.72928e-07
4.72928e-07
4.72928e-07
4.72927e-07
4.72927e-07
4.72927e-07
4.72927e-07
4.72927e-07
4.72927e-07
4.72927e-07
4.72926e-07
4.72926e-07
4.72926e-07
4.72926e-07
4.72926e-07
4.72926e-07
4.72926e-07
4.72926e-07
4.72926e-07
4.72926e-07
4.72926e-07
4.72925e-07
4.72925e-07
4.72925e-07
4.72925e-07
4.72925e-07
4.72925e-07
4.72925e-07
4.72925e-07
4.72925e-07
4.72925e-07
4.72925e-07
4.72925e-07
4.72925e-07
4.72925e-07
4.72925e-07
4.72925e-07
4.72925e-07
4.72924e-07
4.72924e-07
4.72924e-07
4.72924e-07
4.72924e-07
4.72924e-07
4.72924e-07
4.72925e-07
4.72925e-07
4.72925e-07
4.72925e-07
4.72925e-07
4.72925e-07
4.72925e-07
4.72925e-07
4.72925e-07
4.72925e-07
4.72925e-07
4.72925e-07
4.72925e-07
4.72925e-07
4.72926e-07
4.72926e-07
4.72926e-07
4.72926e-07
4.72926e-07
4.72926e-07
4.72926e-07
4.72926e-07
4.72926e-07
4.72926e-07
4.72927e-07
4.72927e-07
4.72927e-07
4.72927e-07
4.72927e-07
4.72927e-07
4.72927e-07
4.72928e-07
4.72928e-07
4.72929e-07
4.72929e-07
4.7293e-07
4.72931e-07
4.72932e-07
4.72933e-07
4.72323e-07
4.72571e-07
4.72721e-07
4.72716e-07
4.72746e-07
4.72735e-07
4.72768e-07
4.72756e-07
4.7277e-07
4.72757e-07
4.72758e-07
4.72759e-07
4.72751e-07
4.72745e-07
4.72749e-07
4.72749e-07
4.72752e-07
4.72756e-07
4.72761e-07
4.72761e-07
4.72764e-07
4.72763e-07
4.72765e-07
4.72769e-07
4.72754e-07
4.72725e-07
4.72711e-07
4.72721e-07
4.72709e-07
4.72694e-07
4.727e-07
4.72703e-07
4.72708e-07
4.72711e-07
4.72718e-07
4.72708e-07
4.72714e-07
4.72748e-07
4.72744e-07
4.72743e-07
4.72778e-07
4.72804e-07
4.728e-07
4.7279e-07
4.72795e-07
4.72801e-07
4.7281e-07
4.72817e-07
4.72823e-07
4.72829e-07
4.72834e-07
4.72839e-07
4.72842e-07
4.72846e-07
4.72849e-07
4.72852e-07
4.72855e-07
4.72858e-07
4.7286e-07
4.72862e-07
4.72864e-07
4.72866e-07
4.72868e-07
4.72869e-07
4.72871e-07
4.72872e-07
4.72873e-07
4.72875e-07
4.72876e-07
4.72877e-07
4.72878e-07
4.72879e-07
4.72879e-07
4.7288e-07
4.72881e-07
4.72882e-07
4.72882e-07
4.72883e-07
4.72884e-07
4.72884e-07
4.72885e-07
4.72885e-07
4.72886e-07
4.72886e-07
4.72887e-07
4.72887e-07
4.72888e-07
4.72888e-07
4.72888e-07
4.72889e-07
4.72889e-07
4.7289e-07
4.7289e-07
4.7289e-07
4.72891e-07
4.72891e-07
4.72891e-07
4.72892e-07
4.72892e-07
4.72892e-07
4.72892e-07
4.72893e-07
4.72893e-07
4.72893e-07
4.72893e-07
4.72894e-07
4.72894e-07
4.72894e-07
4.72894e-07
4.72894e-07
4.72894e-07
4.72894e-07
4.72894e-07
4.72894e-07
4.72894e-07
4.72894e-07
4.72894e-07
4.72894e-07
4.72894e-07
4.72894e-07
4.72893e-07
4.72893e-07
4.72893e-07
4.72893e-07
4.72892e-07
4.72892e-07
4.72891e-07
4.72891e-07
4.72891e-07
4.7289e-07
4.7289e-07
4.7289e-07
4.72889e-07
4.72889e-07
4.72888e-07
4.72888e-07
4.72887e-07
4.72887e-07
4.72886e-07
4.72886e-07
4.72885e-07
4.72885e-07
4.72885e-07
4.72884e-07
4.72883e-07
4.72883e-07
4.72882e-07
4.72881e-07
4.7288e-07
4.72878e-07
4.72877e-07
4.72875e-07
4.72872e-07
4.7287e-07
4.72868e-07
4.72865e-07
4.72972e-07
4.72968e-07
4.72862e-07
4.7292e-07
4.72939e-07
4.72918e-07
4.72935e-07
4.72925e-07
4.72926e-07
4.72924e-07
4.72927e-07
4.72927e-07
4.72927e-07
4.72925e-07
4.72923e-07
4.7292e-07
4.72919e-07
4.72914e-07
4.72911e-07
4.72912e-07
4.72908e-07
4.7291e-07
4.72912e-07
4.72912e-07
4.72921e-07
4.72943e-07
4.7295e-07
4.72952e-07
4.72956e-07
4.72959e-07
4.7296e-07
4.72957e-07
4.72948e-07
4.72941e-07
4.72936e-07
4.72922e-07
4.72922e-07
4.72939e-07
4.72929e-07
4.72921e-07
4.7294e-07
4.72955e-07
4.72952e-07
4.72945e-07
4.72944e-07
4.72942e-07
4.72941e-07
4.72941e-07
4.7294e-07
4.72939e-07
4.72939e-07
4.72938e-07
4.72937e-07
4.72936e-07
4.72936e-07
4.72935e-07
4.72934e-07
4.72934e-07
4.72933e-07
4.72933e-07
4.72932e-07
4.72932e-07
4.72931e-07
4.72931e-07
4.72931e-07
4.7293e-07
4.7293e-07
4.7293e-07
4.72929e-07
4.72929e-07
4.72929e-07
4.72929e-07
4.72929e-07
4.72928e-07
4.72928e-07
4.72928e-07
4.72928e-07
4.72928e-07
4.72927e-07
4.72927e-07
4.72927e-07
4.72927e-07
4.72927e-07
4.72927e-07
4.72927e-07
4.72927e-07
4.72926e-07
4.72926e-07
4.72926e-07
4.72926e-07
4.72926e-07
4.72926e-07
4.72926e-07
4.72926e-07
4.72926e-07
4.72926e-07
4.72925e-07
4.72925e-07
4.72925e-07
4.72925e-07
4.72925e-07
4.72925e-07
4.72925e-07
4.72925e-07
4.72925e-07
4.72925e-07
4.72925e-07
4.72925e-07
4.72925e-07
4.72925e-07
4.72924e-07
4.72924e-07
4.72924e-07
4.72924e-07
4.72924e-07
4.72924e-07
4.72924e-07
4.72925e-07
4.72925e-07
4.72925e-07
4.72925e-07
4.72925e-07
4.72925e-07
4.72925e-07
4.72925e-07
4.72925e-07
4.72925e-07
4.72925e-07
4.72926e-07
4.72926e-07
4.72926e-07
4.72926e-07
4.72926e-07
4.72926e-07
4.72926e-07
4.72926e-07
4.72926e-07
4.72927e-07
4.72927e-07
4.72927e-07
4.72927e-07
4.72927e-07
4.72927e-07
4.72927e-07
4.72927e-07
4.72928e-07
4.72928e-07
4.72928e-07
4.72928e-07
4.72929e-07
4.72929e-07
4.72929e-07
4.7293e-07
4.72931e-07
4.72931e-07
4.72932e-07
4.72507e-07
4.7272e-07
4.72844e-07
4.72828e-07
4.72847e-07
4.72829e-07
4.72836e-07
4.72816e-07
4.72827e-07
4.7282e-07
4.72826e-07
4.72824e-07
4.72821e-07
4.72821e-07
4.7282e-07
4.72814e-07
4.72809e-07
4.72811e-07
4.72809e-07
4.72802e-07
4.72795e-07
4.72787e-07
4.72784e-07
4.72784e-07
4.72772e-07
4.7276e-07
4.72749e-07
4.7275e-07
4.72728e-07
4.72708e-07
4.72713e-07
4.72718e-07
4.72723e-07
4.72725e-07
4.72727e-07
4.72715e-07
4.72722e-07
4.72756e-07
4.72751e-07
4.72749e-07
4.72784e-07
4.72812e-07
4.72809e-07
4.72798e-07
4.72802e-07
4.72807e-07
4.72814e-07
4.72819e-07
4.72825e-07
4.7283e-07
4.72834e-07
4.72838e-07
4.72841e-07
4.72844e-07
4.72847e-07
4.7285e-07
4.72852e-07
4.72855e-07
4.72857e-07
4.72859e-07
4.72861e-07
4.72863e-07
4.72865e-07
4.72867e-07
4.72868e-07
4.7287e-07
4.72871e-07
4.72872e-07
4.72873e-07
4.72874e-07
4.72876e-07
4.72876e-07
4.72877e-07
4.72878e-07
4.72879e-07
4.7288e-07
4.72881e-07
4.72881e-07
4.72882e-07
4.72883e-07
4.72884e-07
4.72884e-07
4.72885e-07
4.72885e-07
4.72886e-07
4.72886e-07
4.72887e-07
4.72887e-07
4.72888e-07
4.72888e-07
4.72889e-07
4.72889e-07
4.72889e-07
4.7289e-07
4.7289e-07
4.72891e-07
4.72891e-07
4.72891e-07
4.72892e-07
4.72892e-07
4.72892e-07
4.72893e-07
4.72893e-07
4.72893e-07
4.72894e-07
4.72894e-07
4.72894e-07
4.72894e-07
4.72895e-07
4.72895e-07
4.72895e-07
4.72895e-07
4.72895e-07
4.72895e-07
4.72895e-07
4.72895e-07
4.72895e-07
4.72895e-07
4.72894e-07
4.72894e-07
4.72893e-07
4.72893e-07
4.72893e-07
4.72892e-07
4.72892e-07
4.72891e-07
4.72891e-07
4.72891e-07
4.7289e-07
4.7289e-07
4.72889e-07
4.72889e-07
4.72888e-07
4.72888e-07
4.72887e-07
4.72887e-07
4.72886e-07
4.72885e-07
4.72885e-07
4.72884e-07
4.72883e-07
4.72883e-07
4.72883e-07
4.72882e-07
4.72881e-07
4.72881e-07
4.7288e-07
4.72879e-07
4.72878e-07
4.72877e-07
4.72875e-07
4.72874e-07
4.72872e-07
4.7287e-07
4.72868e-07
4.72867e-07
4.72927e-07
4.72847e-07
4.72736e-07
4.72815e-07
4.72847e-07
4.72833e-07
4.72881e-07
4.72875e-07
4.72881e-07
4.7287e-07
4.72872e-07
4.72873e-07
4.72865e-07
4.72853e-07
4.72855e-07
4.72855e-07
4.72861e-07
4.72856e-07
4.72858e-07
4.72865e-07
4.72871e-07
4.72879e-07
4.72886e-07
4.72888e-07
4.72894e-07
4.72902e-07
4.72911e-07
4.72922e-07
4.72946e-07
4.72951e-07
4.72952e-07
4.72947e-07
4.72938e-07
4.7293e-07
4.72925e-07
4.72911e-07
4.72911e-07
4.72929e-07
4.7292e-07
4.72914e-07
4.72935e-07
4.72952e-07
4.7295e-07
4.72943e-07
4.72942e-07
4.7294e-07
4.7294e-07
4.72939e-07
4.72939e-07
4.72939e-07
4.72938e-07
4.72938e-07
4.72937e-07
4.72936e-07
4.72936e-07
4.72935e-07
4.72935e-07
4.72934e-07
4.72934e-07
4.72933e-07
4.72933e-07
4.72932e-07
4.72932e-07
4.72932e-07
4.72931e-07
4.72931e-07
4.72931e-07
4.7293e-07
4.7293e-07
4.7293e-07
4.72929e-07
4.72929e-07
4.72929e-07
4.72929e-07
4.72929e-07
4.72928e-07
4.72928e-07
4.72928e-07
4.72928e-07
4.72928e-07
4.72928e-07
4.72927e-07
4.72927e-07
4.72927e-07
4.72927e-07
4.72927e-07
4.72927e-07
4.72927e-07
4.72926e-07
4.72926e-07
4.72926e-07
4.72926e-07
4.72926e-07
4.72926e-07
4.72926e-07
4.72926e-07
4.72926e-07
4.72926e-07
4.72925e-07
4.72925e-07
4.72925e-07
4.72925e-07
4.72925e-07
4.72925e-07
4.72925e-07
4.72925e-07
4.72925e-07
4.72925e-07
4.72925e-07
4.72925e-07
4.72924e-07
4.72924e-07
4.72924e-07
4.72924e-07
4.72924e-07
4.72924e-07
4.72925e-07
4.72925e-07
4.72925e-07
4.72925e-07
4.72925e-07
4.72925e-07
4.72925e-07
4.72925e-07
4.72925e-07
4.72925e-07
4.72926e-07
4.72926e-07
4.72926e-07
4.72926e-07
4.72926e-07
4.72926e-07
4.72926e-07
4.72926e-07
4.72927e-07
4.72927e-07
4.72927e-07
4.72927e-07
4.72927e-07
4.72927e-07
4.72927e-07
4.72928e-07
4.72928e-07
4.72928e-07
4.72928e-07
4.72928e-07
4.72928e-07
4.72928e-07
4.72929e-07
4.72929e-07
4.72929e-07
4.7293e-07
4.7293e-07
4.7293e-07
4.72931e-07
4.72931e-07
4.72875e-07
4.72897e-07
4.72904e-07
4.729e-07
4.72908e-07
4.72898e-07
4.72901e-07
4.72879e-07
4.7288e-07
4.72876e-07
4.72874e-07
4.72872e-07
4.72867e-07
4.72862e-07
4.72857e-07
4.72849e-07
4.72841e-07
4.72838e-07
4.72836e-07
4.72828e-07
4.72818e-07
4.7281e-07
4.72805e-07
4.72804e-07
4.72795e-07
4.72785e-07
4.72776e-07
4.72776e-07
4.72768e-07
4.72734e-07
4.72735e-07
4.72739e-07
4.7274e-07
4.7274e-07
4.72737e-07
4.72724e-07
4.72731e-07
4.72765e-07
4.7276e-07