/*--------------------------------*- C++ -*----------------------------------*\
| =========                 |                                                 |
| \\      /  F ield         | OpenFOAM: The Open Source CFD Toolbox           |
|  \\    /   O peration     | Version:  v1912                                 |
|   \\  /    A nd           | Website:  www.openfoam.com                      |
|    \\/     M anipulation  |                                                 |
\*---------------------------------------------------------------------------*/
FoamFile
{
    version     2.0;
    format      ascii;
    class       volScalarField;
    location    "10";
    object      p_rgh;
}
// * * * * * * * * * * * * * * * * * * * * * * * * * * * * * * * * * * * * * //

dimensions      [1 -1 -2 0 0 0 0];


internalField   nonuniform List<scalar> 
14268
(
-29.0245
-29.2368
-28.3569
-25.9446
-22.9896
-21.7164
-25.5686
-33.673
-29.025
-29.2371
-28.3565
-25.9436
-22.9886
-21.7169
-25.5716
-33.6772
-29.0253
-29.237
-28.3558
-25.9421
-22.987
-21.7166
-25.574
-33.6812
-29.0258
-29.2373
-28.3555
-25.9409
-22.9854
-21.7161
-25.5762
-33.6855
-29.0261
-29.2375
-28.355
-25.9395
-22.9833
-21.7149
-25.578
-33.6898
-29.0266
-29.238
-28.3549
-25.9384
-22.9813
-21.7135
-25.5795
-33.6944
-29.027
-29.2384
-28.3548
-25.937
-22.9789
-21.7115
-25.5806
-33.699
-29.0277
-29.2391
-28.355
-25.936
-22.9764
-21.7091
-25.5814
-33.7039
-29.0282
-29.2397
-28.355
-25.9346
-22.9736
-21.7062
-25.5819
-33.7089
-29.0289
-29.2407
-28.3555
-25.9336
-22.9707
-21.703
-25.5821
-33.7141
-29.0295
-29.2415
-28.3559
-25.9324
-22.9674
-21.6993
-25.5819
-33.7194
-29.0303
-29.2427
-28.3566
-25.9314
-22.9641
-21.6952
-25.5814
-33.7249
-29.0309
-29.2438
-28.3572
-25.9302
-22.9604
-21.6905
-25.5805
-33.7305
-29.032
-29.2452
-28.3583
-25.9294
-22.9567
-21.6856
-25.5794
-33.7363
-29.0307
-29.2521
-28.376
-25.9541
-22.9716
-21.6555
-25.4762
-33.5936
-29.0408
-29.2666
-28.3872
-25.952
-22.9535
-21.6313
-25.4689
-33.608
-29.0454
-29.279
-28.3965
-25.9467
-22.9292
-21.6012
-25.4578
-33.623
-29.0614
-29.3036
-28.4174
-25.9477
-22.9059
-21.5668
-25.445
-33.6387
-29.0668
-29.3214
-28.4314
-25.9422
-22.8744
-21.5261
-25.4274
-33.6548
-29.0886
-29.3564
-28.4626
-25.9474
-22.8457
-21.4812
-25.4089
-33.6719
-29.0954
-29.3801
-28.4813
-25.9402
-22.8067
-21.4299
-25.385
-33.6891
-29.1686
-29.5063
-28.5948
-25.9489
-22.6525
-21.1988
-25.3587
-33.9645
-29.2489
-29.731
-28.8062
-25.8622
-22.0853
-20.403
-24.8054
-34.2553
-29.3995
-30.1258
-29.2792
-26.0931
-21.7373
-19.3241
-24.1503
-34.8349
-29.594
-30.6097
-29.7927
-26.026
-20.5337
-17.4356
-22.8238
-35.2826
-29.7257
-31.1231
-30.5676
-26.4069
-19.9461
-15.4617
-15.1842
-15.5534
639.04
654.128
667.126
679.335
690.504
698.543
700.047
694.934
73.6671
67.9658
62.2935
56.9809
52.1741
48.3829
47.1291
44.6326
0.12128
0.154249
0.17719
0.226592
0.396531
0.347361
-0.775129
-3.71363
-0.00148501
-0.000705368
-0.00902327
-0.0148516
0.00139612
-0.0202369
-0.910508
-4.00548
0.0991124
0.122643
0.142408
0.198514
0.273191
0.101267
-1.03243
-4.14073
-0.010755
-0.0145104
-0.0275064
-0.0430747
-0.0744745
-0.204364
-1.2438
-4.11047
0.0609366
0.0683437
0.0666218
0.0771062
0.0122275
-0.287531
-1.32447
-3.80765
-0.0332262
-0.0453147
-0.0719923
-0.114675
-0.210852
-0.436766
-1.32451
-3.43143
0.0102151
-0.00127366
-0.0310977
-0.0726244
-0.217381
-0.53415
-1.33738
-3.04152
-0.0520328
-0.0736462
-0.114497
-0.178905
-0.313899
-0.596337
-1.30524
-2.70601
-0.0334985
-0.0593689
-0.108721
-0.184456
-0.35736
-0.642856
-1.25637
-2.347
-0.0716392
-0.102073
-0.153234
-0.232479
-0.395133
-0.669764
-1.20728
-2.08856
-0.0695209
-0.105313
-0.164613
-0.256816
-0.422492
-0.682745
-1.14711
-1.8445
-0.0912779
-0.128629
-0.187599
-0.279323
-0.440746
-0.684644
-1.08844
-1.64927
-0.0976354
-0.139271
-0.202905
-0.297077
-0.451769
-0.67762
-1.02577
-1.47227
-0.109789
-0.152046
-0.215896
-0.310193
-0.457035
-0.665096
-0.965993
-1.32422
-0.118336
-0.16237
-0.226583
-0.319537
-0.457561
-0.647152
-0.906199
-1.19207
-0.126368
-0.17101
-0.234828
-0.325464
-0.454707
-0.62654
-0.849494
-1.07876
-0.13328
-0.178179
-0.2411
-0.328478
-0.448603
-0.603278
-0.794765
-0.977672
-0.139188
-0.183873
-0.245468
-0.329107
-0.440317
-0.579199
-0.743245
-0.890174
-0.144134
-0.188322
-0.248201
-0.327534
-0.429973
-0.554164
-0.694392
-0.811007
-0.148167
-0.191597
-0.249446
-0.324355
-0.418449
-0.529247
-0.648745
-0.742614
-0.151369
-0.193843
-0.249351
-0.319641
-0.405751
-0.504332
-0.605813
-0.676253
-0.153777
-0.195123
-0.248159
-0.313919
-0.392541
-0.48003
-0.566223
-0.623487
-0.155476
-0.195532
-0.245957
-0.307187
-0.378786
-0.456254
-0.529206
-0.5731
-0.156528
-0.195175
-0.242986
-0.299862
-0.364949
-0.433371
-0.495045
-0.528856
-0.156988
-0.194106
-0.239272
-0.291924
-0.350983
-0.411281
-0.46322
-0.488392
-0.156943
-0.192466
-0.235045
-0.28368
-0.337198
-0.390195
-0.433851
-0.452317
-0.1564
-0.190272
-0.230302
-0.275115
-0.32355
-0.370026
-0.406583
-0.419854
-0.155466
-0.187676
-0.225236
-0.266446
-0.310218
-0.350867
-0.381348
-0.390235
-0.154122
-0.184673
-0.21984
-0.257673
-0.297196
-0.332643
-0.357946
-0.36337
-0.152484
-0.181393
-0.21426
-0.248928
-0.284568
-0.31538
-0.336234
-0.338732
-0.150521
-0.177826
-0.208496
-0.240224
-0.27233
-0.299033
-0.316256
-0.316182
-0.148341
-0.174079
-0.20265
-0.231642
-0.260524
-0.283565
-0.297806
-0.295399
-0.145919
-0.170145
-0.196728
-0.223195
-0.249139
-0.268942
-0.280635
-0.276475
-0.14334
-0.166104
-0.190799
-0.214929
-0.238198
-0.255249
-0.264533
-0.259084
-0.14059
-0.161957
-0.184877
-0.20685
-0.22766
-0.242452
-0.249464
-0.243123
-0.13773
-0.157755
-0.179001
-0.198983
-0.217608
-0.230317
-0.235448
-0.228407
-0.134761
-0.153511
-0.17319
-0.191322
-0.208056
-0.218807
-0.222392
-0.214838
-0.131719
-0.14925
-0.167473
-0.183927
-0.198872
-0.207957
-0.210218
-0.202293
-0.128618
-0.144985
-0.161855
-0.17681
-0.190055
-0.197714
-0.198858
-0.190682
-0.125479
-0.140735
-0.156344
-0.169935
-0.181641
-0.188043
-0.188248
-0.179918
-0.122318
-0.136536
-0.150929
-0.163292
-0.173612
-0.17891
-0.17833
-0.169929
-0.119131
-0.132415
-0.145636
-0.156872
-0.165954
-0.170281
-0.169048
-0.160639
-0.115923
-0.128346
-0.140483
-0.15068
-0.158649
-0.162126
-0.160352
-0.151972
-0.112731
-0.124324
-0.135472
-0.144713
-0.151684
-0.154415
-0.152197
-0.143884
-0.109561
-0.120364
-0.130602
-0.138966
-0.145042
-0.147122
-0.144543
-0.136335
-0.106417
-0.116477
-0.125873
-0.133433
-0.138708
-0.140219
-0.137351
-0.129278
-0.103306
-0.112668
-0.121287
-0.12811
-0.132669
-0.133684
-0.130589
-0.122674
-0.100229
-0.108936
-0.116837
-0.122987
-0.126907
-0.127493
-0.124221
-0.116483
-0.0971871
-0.105281
-0.112521
-0.118054
-0.121407
-0.121622
-0.11822
-0.110675
-0.0883427
-0.0947415
-0.100184
-0.104063
-0.105939
-0.105224
-0.101552
-0.0946006
-0.0750575
-0.0794917
-0.0830034
-0.0852037
-0.085781
-0.0844098
-0.0808565
-0.0749607
-0.063007
-0.0660139
-0.0681992
-0.0693184
-0.0691655
-0.0675511
-0.0643388
-0.0594611
-0.0522467
-0.0542671
-0.0555967
-0.0560771
-0.0555738
-0.0539679
-0.0511838
-0.0471986
-0.042535
-0.0438643
-0.0446366
-0.04475
-0.0441155
-0.0426604
-0.040345
-0.0371675
-0.0337292
-0.0345799
-0.0349979
-0.034916
-0.0342753
-0.0330328
-0.0311688
-0.0286908
-0.0256454
-0.0261656
-0.0263658
-0.026202
-0.0256367
-0.0246444
-0.0232161
-0.0213614
-0.0181125
-0.0183999
-0.0184686
-0.018291
-0.0178446
-0.0171153
-0.0160996
-0.0148058
-0.0109701
-0.0110872
-0.0110782
-0.0109281
-0.0106248
-0.0101612
-0.00953618
-0.00875593
-0.00405092
-0.00402829
-0.00396683
-0.00386249
-0.00371243
-0.00351537
-0.00327191
-0.00298489
-40.0529
-39.8335
-33.5514
-24.9594
-17.6896
-12.5809
-9.37688
-7.8488
-7.38722
-7.50958
-7.78209
-8.04607
-8.37704
-9.20415
-10.6221
-12.5122
-14.5961
-16.5743
-18.2028
-19.3052
-19.7537
-19.4374
-18.377
-16.7034
-14.5701
-12.176
-9.75253
-7.36376
-4.98536
-2.71891
-0.194188
2.82104
5.19804
4.34661
0.10239
-8.7048
-19.0472
-14.94
-5.44985
-6.60215
-13.1624
-4.20411
14.8757
27.2468
30.2836
29.2138
26.1714
22.4461
18.6949
15.2425
12.2347
9.7258
7.69475
6.08547
4.82963
3.85942
3.11413
2.54262
2.10357
1.7646
1.50083
1.29349
1.12855
0.995558
0.886808
0.796594
0.72071
0.656034
0.600233
0.551554
0.508667
0.470555
0.43643
0.405668
0.377776
0.352354
0.329082
0.307688
0.28796
0.269703
0.252766
0.237008
0.222322
0.208597
0.195757
0.183713
0.172406
0.161762
0.151743
0.142286
0.133363
0.124922
0.116923
0.109341
0.102136
0.0952909
0.088762
0.0825443
0.0766036
0.0709141
0.065473
0.0602296
0.0552108
0.0503321
0.0456659
0.0411084
0.036695
0.0324341
0.0281602
0.0242059
0.0199967
0.0161444
0.012189
0.00823379
0.00427897
0.000318423
-0.00365243
-0.00764219
-0.0116617
-0.0157223
-0.0198384
-0.024028
-0.0283076
-0.0326913
-0.0371959
-0.0418397
-0.0466416
-0.0516209
-0.0567973
-0.0621901
-0.0678169
-0.0736916
-0.0798198
-0.0861932
-0.0927788
-0.099501
-0.10622
-0.112698
-0.118536
-0.123035
-0.124851
-0.124288
-0.117446
-0.101203
-0.0717924
-0.0226992
0.0548034
0.175127
0.3548
0.617824
0.998127
1.53948
2.29952
3.35219
4.79001
6.72546
-40.0537
-39.8343
-33.5519
-24.9596
-17.6896
-12.5809
-9.37696
-7.84894
-7.38741
-7.50983
-7.78237
-8.04633
-8.37725
-9.20436
-10.6224
-12.5125
-14.5963
-16.5746
-18.2031
-19.3055
-19.7541
-19.4378
-18.3774
-16.7037
-14.5705
-12.1763
-9.7528
-7.36404
-4.98563
-2.71922
-0.194483
2.82089
5.19806
4.34668
0.10246
-8.70521
-19.0482
-14.9416
-5.44954
-6.6022
-13.1637
-4.20521
14.8757
27.2475
30.2838
29.2137
26.1712
22.4458
18.6946
15.2422
12.2344
9.72548
7.69443
6.08516
4.82932
3.85913
3.11384
2.54233
2.10328
1.76431
1.50054
1.29321
1.12826
0.995271
0.88652
0.796306
0.720421
0.655745
0.599944
0.551264
0.508376
0.470264
0.436139
0.405376
0.377485
0.352062
0.32879
0.307396
0.287667
0.26941
0.252473
0.236715
0.222029
0.208304
0.195464
0.183419
0.172113
0.161469
0.15145
0.141993
0.13307
0.124628
0.116629
0.109048
0.101843
0.0949968
0.0884681
0.0822502
0.0763096
0.0706201
0.0651788
0.0599356
0.0549163
0.0500383
0.0453712
0.0408143
0.0364009
0.0321389
0.0278677
0.0239092
0.0197045
0.0158487
0.0118933
0.00793812
0.00398353
2.32172e-05
-0.0039476
-0.00793736
-0.0119568
-0.0160173
-0.0201334
-0.0243229
-0.0286025
-0.032986
-0.0374905
-0.0421342
-0.0469361
-0.0519154
-0.0570917
-0.0624844
-0.0681113
-0.0739858
-0.080114
-0.0864876
-0.0930734
-0.0997959
-0.106516
-0.112995
-0.118835
-0.12334
-0.12517
-0.124606
-0.117729
-0.101485
-0.0720739
-0.0229808
0.0545219
0.174844
0.354515
0.617537
0.997837
1.53918
2.29922
3.35188
4.78969
6.72513
-40.0548
-39.8355
-33.5525
-24.9594
-17.6892
-12.5805
-9.3766
-7.84868
-7.38726
-7.50973
-7.78229
-8.04626
-8.37713
-9.20418
-10.6222
-12.5124
-14.5963
-16.5746
-18.2032
-19.3056
-19.7541
-19.4379
-18.3774
-16.7037
-14.5704
-12.1763
-9.75274
-7.36397
-4.98557
-2.71921
-0.19447
2.82114
5.19871
4.34758
0.103212
-8.70552
-19.0498
-14.9414
-5.44804
-6.60169
-13.1655
-4.20682
14.8763
27.2492
30.2849
29.2143
26.1714
22.4459
18.6946
15.2421
12.2343
9.72542
7.69439
6.08513
4.82931
3.85913
3.11386
2.54236
2.10332
1.76436
1.5006
1.29326
1.12832
0.995338
0.88659
0.796379
0.720497
0.655823
0.600023
0.551344
0.508458
0.470347
0.436223
0.405461
0.37757
0.352147
0.328876
0.307482
0.287754
0.269497
0.252561
0.236803
0.222117
0.208393
0.195553
0.183508
0.172202
0.161558
0.151539
0.142082
0.133159
0.124718
0.116719
0.109137
0.101932
0.0950871
0.0885581
0.0823406
0.0763999
0.0707104
0.0652695
0.0600258
0.0550075
0.0501282
0.0454629
0.0409048
0.0364912
0.0322315
0.0279549
0.0240051
0.019791
0.0159425
0.0119871
0.00803181
0.00407675
0.000115976
-0.00385493
-0.00784472
-0.0118643
-0.015925
-0.0200412
-0.0242308
-0.0285104
-0.0328943
-0.0373989
-0.0420427
-0.0468446
-0.051824
-0.0570004
-0.0623932
-0.0680201
-0.0738947
-0.0800229
-0.0863963
-0.0929817
-0.0997036
-0.106422
-0.112899
-0.118735
-0.123229
-0.125031
-0.124474
-0.117663
-0.101423
-0.0720158
-0.0229261
0.0545702
0.17489
0.354552
0.617564
0.997852
1.53918
2.2992
3.35184
4.78963
6.72503
-40.0565
-39.8372
-33.5534
-24.9592
-17.6886
-12.5799
-9.37611
-7.84835
-7.3871
-7.50971
-7.78235
-8.04629
-8.37703
-9.2041
-10.6222
-12.5124
-14.5964
-16.5747
-18.2034
-19.3059
-19.7545
-19.4382
-18.3777
-16.7039
-14.5706
-12.1764
-9.7528
-7.36403
-4.98564
-2.71936
-0.194591
2.82143
5.19946
4.3486
0.104196
-8.70603
-19.0522
-14.9447
-5.44643
-6.60106
-13.1686
-4.20931
14.8771
27.2518
30.2864
29.2149
26.1716
22.4458
18.6945
15.2419
12.2341
9.72522
7.6942
6.08496
4.82916
3.859
3.11374
2.54225
2.10322
1.76426
1.5005
1.29317
1.12823
0.995245
0.886496
0.796284
0.720401
0.655725
0.599924
0.551244
0.508357
0.470245
0.43612
0.405357
0.377465
0.352042
0.328771
0.307376
0.287648
0.269391
0.252454
0.236696
0.222009
0.208285
0.195444
0.1834
0.172093
0.161449
0.15143
0.141973
0.13305
0.124608
0.116609
0.109027
0.101822
0.0949766
0.088448
0.08223
0.0762894
0.0705999
0.0651585
0.0599156
0.0548958
0.0500184
0.0453506
0.0407943
0.0363809
0.032118
0.0278492
0.0238866
0.0196863
0.0158271
0.0118717
0.00791658
0.00396224
2.1402e-06
-0.00396863
-0.00795834
-0.0119777
-0.0160381
-0.0201541
-0.0243435
-0.0286231
-0.0330067
-0.0375111
-0.0421548
-0.0469566
-0.0519358
-0.057112
-0.0625047
-0.0681316
-0.0740061
-0.0801344
-0.086508
-0.093094
-0.0998169
-0.106537
-0.113018
-0.11886
-0.123371
-0.125216
-0.124645
-0.117744
-0.101501
-0.0720936
-0.0230047
0.0544899
0.174807
0.354463
0.617467
0.997743
1.53906
2.29905
3.35167
4.78942
6.72478
-40.0587
-39.8395
-33.5545
-24.9589
-17.6877
-12.579
-9.37542
-7.84785
-7.38682
-7.50957
-7.78228
-8.04621
-8.37683
-9.20375
-10.6219
-12.5122
-14.5964
-16.5749
-18.2036
-19.3061
-19.7547
-19.4384
-18.3779
-16.7041
-14.5707
-12.1763
-9.75273
-7.36397
-4.98558
-2.7194
-0.194623
2.8219
5.20075
4.35027
0.105633
-8.70665
-19.0554
-14.9453
-5.44348
-6.60008
-13.1724
-4.2126
14.8783
27.2552
30.2885
29.216
26.172
22.4459
18.6944
15.2418
12.234
9.72506
7.69406
6.08485
4.82908
3.85895
3.11371
2.54224
2.10323
1.76429
1.50054
1.29322
1.12829
0.99531
0.886567
0.796359
0.72048
0.655808
0.60001
0.551333
0.508447
0.470337
0.436214
0.405452
0.377562
0.35214
0.328869
0.307476
0.287748
0.269491
0.252555
0.236797
0.222111
0.208387
0.195548
0.183503
0.172197
0.161553
0.151534
0.142077
0.133155
0.124713
0.116714
0.109133
0.101928
0.0950829
0.0885538
0.0823364
0.0763957
0.0707061
0.0652655
0.0600216
0.0550037
0.0501238
0.0454592
0.0409006
0.0364869
0.0322282
0.0279489
0.0240039
0.0197846
0.01594
0.0119845
0.00802918
0.00407387
0.000112916
-0.00385803
-0.00784789
-0.0118675
-0.0159282
-0.0200445
-0.0242341
-0.0285137
-0.0328976
-0.0374022
-0.0420461
-0.0468481
-0.0518275
-0.0570039
-0.0623967
-0.0680236
-0.0738982
-0.0800263
-0.0863997
-0.092985
-0.0997068
-0.106425
-0.112902
-0.118736
-0.123226
-0.125012
-0.124477
-0.117682
-0.101447
-0.072045
-0.0229623
0.0545229
0.174831
0.354473
0.617461
0.997716
1.539
2.29896
3.35154
4.78924
6.72454
-40.0616
-39.8425
-33.5559
-24.9585
-17.6866
-12.578
-9.37457
-7.84726
-7.38651
-7.50948
-7.78231
-8.04619
-8.37661
-9.20356
-10.6217
-12.5122
-14.5965
-16.5751
-18.2039
-19.3065
-19.7552
-19.4389
-18.3783
-16.7044
-14.5708
-12.1764
-9.75275
-7.36399
-4.98562
-2.71958
-0.194761
2.82241
5.20204
4.35211
0.107344
-8.70747
-19.0595
-14.9499
-5.44065
-6.59898
-13.1773
-4.21672
14.8797
27.2595
30.2911
29.2171
26.1724
22.446
18.6942
15.2415
12.2337
9.72477
7.6938
6.08463
4.82889
3.85879
3.11358
2.54213
2.10313
1.76419
1.50046
1.29314
1.1282
0.995228
0.886485
0.796276
0.720396
0.655722
0.599922
0.551244
0.508357
0.470245
0.436121
0.405359
0.377467
0.352044
0.328773
0.307379
0.28765
0.269393
0.252456
0.236698
0.222011
0.208287
0.195447
0.183402
0.172095
0.161452
0.151432
0.141975
0.133052
0.12461
0.116612
0.10903
0.101825
0.0949789
0.0884505
0.0822323
0.0762918
0.0706023
0.0651608
0.059918
0.054898
0.050021
0.0453527
0.0407969
0.0363835
0.03212
0.0278531
0.0238868
0.019691
0.0158284
0.011873
0.00791792
0.00396384
3.89989e-06
-0.0039668
-0.00795644
-0.0119758
-0.0160361
-0.020152
-0.0243414
-0.0286209
-0.0330045
-0.0375088
-0.0421524
-0.0469542
-0.0519333
-0.0571096
-0.0625022
-0.068129
-0.0740036
-0.0801319
-0.0865056
-0.0930919
-0.0998151
-0.106536
-0.113018
-0.118863
-0.123379
-0.125239
-0.124656
-0.117744
-0.101505
-0.0721031
-0.0230231
0.0544575
0.17476
0.35439
0.617362
0.997595
1.53885
2.29878
3.3513
4.78894
6.72418
-40.065
-39.8459
-33.5576
-24.9581
-17.6853
-12.5767
-9.37354
-7.84654
-7.38613
-7.50931
-7.78225
-8.04611
-8.37633
-9.20311
-10.6214
-12.512
-14.5965
-16.5753
-18.2042
-19.3069
-19.7556
-19.4393
-18.3787
-16.7046
-14.571
-12.1764
-9.7527
-7.36394
-4.98558
-2.71969
-0.194845
2.8231
5.20394
4.3545
0.109456
-8.70842
-19.0643
-14.9516
-5.43641
-6.59755
-13.1832
-4.22166
14.8814
27.2647
30.2942
29.2187
26.173
22.4461
18.6941
15.2413
12.2334
9.72449
7.69356
6.08443
4.82874
3.85867
3.1135
2.54208
2.1031
1.76419
1.50047
1.29316
1.12824
0.995275
0.886539
0.796337
0.720462
0.655793
0.599997
0.551321
0.508438
0.470328
0.436206
0.405445
0.377555
0.352134
0.328864
0.30747
0.287743
0.269486
0.252551
0.236793
0.222107
0.208383
0.195544
0.183499
0.172193
0.16155
0.151531
0.142074
0.133151
0.12471
0.116711
0.10913
0.101925
0.09508
0.0885508
0.0823336
0.0763929
0.0707033
0.0652629
0.0600186
0.0550013
0.0501208
0.0454569
0.0408977
0.036484
0.0322263
0.0279445
0.024004
0.0197794
0.0159388
0.0119833
0.00802782
0.00407226
0.000111186
-0.00385983
-0.00784974
-0.0118693
-0.0159302
-0.0200464
-0.0242361
-0.0285157
-0.0328995
-0.0374041
-0.042048
-0.04685
-0.0518294
-0.0570058
-0.0623986
-0.0680255
-0.0739001
-0.0800282
-0.0864015
-0.0929868
-0.0997085
-0.106427
-0.112903
-0.118737
-0.123224
-0.124995
-0.124483
-0.117699
-0.101471
-0.0720775
-0.0230056
0.0544633
0.174753
0.354364
0.617311
0.997514
1.53873
2.29861
3.35107
4.78864
6.72379
-40.069
-39.85
-33.5596
-24.9575
-17.6838
-12.5753
-9.37235
-7.84571
-7.38568
-7.50915
-7.78224
-8.04605
-8.37601
-9.20276
-10.6211
-12.5119
-14.5966
-16.5755
-18.2046
-19.3074
-19.7562
-19.4399
-18.3791
-16.705
-14.5712
-12.1765
-9.75269
-7.36393
-4.98559
-2.71991
-0.195014
2.82383
5.2058
4.35716
0.111879
-8.70955
-19.07
-14.9572
-5.43225
-6.59597
-13.1901
-4.22744
14.8834
27.2708
30.2978
29.2203
26.1736
22.4461
18.6939
15.2409
12.233
9.72412
7.69322
6.08414
4.8285
3.85848
3.11334
2.54194
2.10299
1.76409
1.50038
1.29308
1.12816
0.995199
0.886463
0.79626
0.720384
0.655713
0.599916
0.551239
0.508354
0.470243
0.43612
0.405358
0.377467
0.352044
0.328773
0.307379
0.287651
0.269394
0.252457
0.236699
0.222012
0.208288
0.195448
0.183403
0.172097
0.161453
0.151433
0.141977
0.133054
0.124612
0.116613
0.109032
0.101827
0.0949807
0.0884524
0.0822342
0.0762938
0.0706043
0.0651628
0.0599202
0.0549
0.0500233
0.0453546
0.0407993
0.0363859
0.032122
0.0278565
0.0238874
0.019695
0.0158298
0.0118742
0.00791919
0.00396539
5.55709e-06
-0.00396502
-0.00795459
-0.0119739
-0.0160341
-0.02015
-0.0243393
-0.0286188
-0.0330024
-0.0375067
-0.0421503
-0.046952
-0.0519311
-0.0571073
-0.0624999
-0.0681267
-0.0740013
-0.0801296
-0.0865035
-0.0930899
-0.0998136
-0.106535
-0.113018
-0.118865
-0.123387
-0.12526
-0.124669
-0.117751
-0.101518
-0.0721251
-0.0230578
0.0544037
0.174684
0.354277
0.617203
0.997373
1.53855
2.29837
3.35076
4.78825
6.7233
-40.0735
-39.8547
-33.5619
-24.9569
-17.6821
-12.5736
-9.37098
-7.84475
-7.38517
-7.50894
-7.7822
-8.04597
-8.37565
-9.20224
-10.6207
-12.5117
-14.5967
-16.5758
-18.205
-19.3079
-19.7568
-19.4405
-18.3797
-16.7054
-14.5714
-12.1766
-9.75265
-7.3639
-4.98556
-2.72009
-0.195144
2.82473
5.20826
4.36029
0.114679
-8.71083
-19.0764
-14.9604
-5.42679
-6.59409
-13.1979
-4.23403
14.8857
27.2777
30.302
29.2223
26.1743
22.4462
18.6937
15.2406
12.2326
9.72372
7.69287
6.08385
4.82827
3.8583
3.11321
2.54186
2.10294
1.76406
1.50037
1.29309
1.12819
0.995231
0.886504
0.796309
0.720439
0.655774
0.599981
0.551309
0.508427
0.470319
0.436198
0.405438
0.377549
0.352128
0.328858
0.307465
0.287738
0.269482
0.252547
0.236789
0.222103
0.20838
0.195541
0.183496
0.17219
0.161547
0.151528
0.142071
0.133149
0.124707
0.116709
0.109127
0.101922
0.0950775
0.0885482
0.0823311
0.0763904
0.0707007
0.0652605
0.0600161
0.0549991
0.050118
0.0454548
0.0408952
0.0364813
0.0322245
0.0279405
0.024004
0.0197749
0.0159378
0.0119821
0.00802663
0.00407081
0.000109636
-0.00386147
-0.00785141
-0.011871
-0.0159318
-0.0200481
-0.0242377
-0.0285173
-0.0329011
-0.0374057
-0.0420495
-0.0468515
-0.0518308
-0.0570072
-0.0624
-0.0680268
-0.0739014
-0.0800295
-0.0864028
-0.0929881
-0.0997099
-0.106428
-0.112905
-0.118739
-0.123225
-0.124983
-0.124493
-0.117718
-0.101499
-0.072116
-0.023059
0.054388
0.174651
0.35422
0.617114
0.997245
1.53837
2.29813
3.35044
4.78783
6.72277
-40.0786
-39.8599
-33.5644
-24.9562
-17.6802
-12.5717
-9.36944
-7.84367
-7.3846
-7.50873
-7.78216
-8.04588
-8.37524
-9.2017
-10.6203
-12.5115
-14.5968
-16.5761
-18.2055
-19.3086
-19.7576
-19.4412
-18.3802
-16.7058
-14.5717
-12.1766
-9.75262
-7.36387
-4.98557
-2.72034
-0.195345
2.82568
5.21072
4.36375
0.117808
-8.71228
-19.0837
-14.9668
-5.42124
-6.59204
-13.2067
-4.24145
14.8883
27.2855
30.3066
29.2244
26.175
22.4463
18.6934
15.2401
12.2321
9.72325
7.69246
6.0835
4.82798
3.85807
3.11302
2.5417
2.10281
1.76396
1.50028
1.29301
1.12811
0.995158
0.886433
0.796238
0.720367
0.655701
0.599906
0.551232
0.508348
0.470239
0.436116
0.405355
0.377465
0.352043
0.328772
0.307378
0.28765
0.269393
0.252457
0.236699
0.222012
0.208289
0.195449
0.183404
0.172097
0.161454
0.151434
0.141978
0.133055
0.124613
0.116614
0.109033
0.101828
0.0949819
0.0884538
0.0822354
0.0762952
0.0706057
0.0651643
0.0599217
0.0549015
0.0500251
0.0453561
0.0408013
0.0363877
0.0321237
0.0278591
0.0238883
0.0196981
0.015831
0.0118752
0.00792031
0.00396679
7.06596e-06
-0.00396341
-0.00795292
-0.0119722
-0.0160324
-0.0201482
-0.0243376
-0.028617
-0.0330005
-0.0375048
-0.0421484
-0.0469501
-0.0519292
-0.0571054
-0.062498
-0.0681247
-0.0739993
-0.0801277
-0.0865017
-0.0930883
-0.0998124
-0.106535
-0.113019
-0.118869
-0.123395
-0.125278
-0.124683
-0.117764
-0.101539
-0.072158
-0.0231075
0.0543297
0.174579
0.354125
0.616989
0.997078
1.53815
2.29783
3.35006
4.78734
6.72215
-40.0843
-39.8657
-33.5672
-24.9555
-17.678
-12.5696
-9.36773
-7.84247
-7.38396
-7.50848
-7.78213
-8.04578
-8.37479
-9.20117
-10.6198
-12.5113
-14.5969
-16.5765
-18.206
-19.3093
-19.7584
-19.442
-18.3809
-16.7063
-14.572
-12.1767
-9.75259
-7.36384
-4.98555
-2.72058
-0.195523
2.82679
5.21372
4.36764
0.121302
-8.71389
-19.0917
-14.9715
-5.41459
-6.58971
-13.2165
-4.2497
14.8911
27.2941
30.3118
29.2268
26.1759
22.4464
18.6931
15.2397
12.2316
9.72275
7.69201
6.08313
4.82768
3.85784
3.11285
2.54158
2.10273
1.7639
1.50025
1.293
1.12812
0.995177
0.886462
0.796276
0.720413
0.655752
0.599964
0.551293
0.508414
0.470308
0.436188
0.405429
0.377541
0.352121
0.328852
0.30746
0.287733
0.269477
0.252542
0.236785
0.2221
0.208376
0.195537
0.183493
0.172187
0.161543
0.151525
0.142068
0.133146
0.124705
0.116706
0.109125
0.10192
0.0950753
0.0885459
0.0823289
0.0763883
0.0706985
0.0652585
0.0600138
0.0549971
0.0501157
0.0454529
0.040893
0.036479
0.0322229
0.0279371
0.0240038
0.0197709
0.0159369
0.0119811
0.00802555
0.00406947
0.000108238
-0.00386291
-0.00785285
-0.0118725
-0.0159332
-0.0200494
-0.024239
-0.0285185
-0.0329023
-0.0374068
-0.0420506
-0.0468525
-0.0518318
-0.0570082
-0.0624009
-0.0680277
-0.0739022
-0.0800303
-0.0864037
-0.0929891
-0.099711
-0.10643
-0.112907
-0.118742
-0.123228
-0.124975
-0.124508
-0.117738
-0.101531
-0.0721616
-0.0231234
0.0542966
0.174526
0.354042
0.616869
0.996909
1.53792
2.29752
3.34964
4.7868
6.72147
-40.0905
-39.8721
-33.5704
-24.9546
-17.6757
-12.5673
-9.36585
-7.84116
-7.38326
-7.50821
-7.78207
-8.04567
-8.37428
-9.20038
-10.6193
-12.5111
-14.597
-16.5768
-18.2066
-19.31
-19.7592
-19.4428
-18.3816
-16.7068
-14.5723
-12.1768
-9.75253
-7.3638
-4.98553
-2.72088
-0.195754
2.82798
5.21682
4.37189
0.125134
-8.71566
-19.1006
-14.9786
-5.40764
-6.58718
-13.2273
-4.25878
14.8943
27.3036
30.3175
29.2295
26.1768
22.4466
18.6928
15.2391
12.231
9.72219
7.69151
6.0827
4.82733
3.85756
3.11263
2.5414
2.10259
1.76379
1.50016
1.29292
1.12804
0.995106
0.886394
0.796209
0.720345
0.655684
0.599893
0.551222
0.50834
0.470232
0.436111
0.405351
0.377461
0.35204
0.32877
0.307377
0.287649
0.269392
0.252456
0.236699
0.222012
0.208288
0.195448
0.183404
0.172098
0.161454
0.151435
0.141978
0.133055
0.124613
0.116615
0.109033
0.101829
0.0949827
0.0884547
0.0822363
0.0762962
0.0706067
0.0651654
0.0599229
0.0549027
0.0500265
0.0453572
0.0408028
0.0363891
0.0321253
0.0278609
0.0238895
0.0197003
0.0158322
0.0118762
0.0079214
0.00396813
8.45385e-06
-0.00396196
-0.00795144
-0.0119707
-0.0160309
-0.0201466
-0.024336
-0.0286154
-0.0329989
-0.0375032
-0.0421467
-0.0469483
-0.0519274
-0.0571035
-0.0624961
-0.0681228
-0.0739974
-0.0801258
-0.0864999
-0.0930868
-0.0998113
-0.106534
-0.11302
-0.118872
-0.123404
-0.125294
-0.124699
-0.117783
-0.101567
-0.0722014
-0.0231717
0.0542356
0.174447
0.353934
0.616723
0.996711
1.53765
2.29717
3.34918
4.78621
6.72072
-40.0973
-39.8791
-33.5738
-24.9537
-17.6731
-12.5648
-9.3638
-7.83972
-7.3825
-7.50792
-7.78204
-8.04556
-8.37374
-9.19987
-10.6187
-12.5108
-14.5971
-16.5773
-18.2073
-19.3109
-19.7603
-19.4438
-18.3824
-16.7074
-14.5727
-12.1769
-9.75251
-7.36377
-4.98553
-2.72119
-0.195984
2.82929
5.22033
4.37655
0.129325
-8.71759
-19.1103
-14.9849
-5.39979
-6.58439
-13.239
-4.26868
14.8977
27.314
30.3237
29.2324
26.1779
22.4467
18.6925
15.2386
12.2303
9.72158
7.69097
6.08225
4.82697
3.85727
3.11241
2.54125
2.10247
1.76371
1.50011
1.29289
1.12803
0.995113
0.886413
0.796237
0.720382
0.655727
0.599943
0.551276
0.508399
0.470295
0.436177
0.40542
0.377533
0.352113
0.328845
0.307453
0.287727
0.269472
0.252537
0.23678
0.222095
0.208372
0.195533
0.183489
0.172184
0.16154
0.151522
0.142065
0.133143
0.124702
0.116703
0.109123
0.101917
0.095073
0.0885435
0.0823267
0.0763861
0.0706964
0.0652565
0.0600116
0.0549953
0.0501135
0.0454512
0.040891
0.0364769
0.0322214
0.027934
0.0240036
0.0197676
0.015936
0.0119801
0.00802441
0.00406817
0.000106936
-0.00386422
-0.00785413
-0.0118737
-0.0159344
-0.0200506
-0.0242401
-0.0285196
-0.0329033
-0.0374078
-0.0420516
-0.0468534
-0.0518327
-0.057009
-0.0624017
-0.0680285
-0.073903
-0.0800311
-0.0864045
-0.0929901
-0.0997123
-0.106431
-0.112909
-0.118746
-0.123233
-0.124972
-0.124528
-0.117761
-0.101567
-0.0722145
-0.023199
0.0541887
0.174376
0.353829
0.616573
0.996503
1.53737
2.29679
3.34868
4.78556
6.71991
-40.1047
-39.8866
-33.5775
-24.9527
-17.6703
-12.5621
-9.36158
-7.83817
-7.38167
-7.50759
-7.78197
-8.04541
-8.37314
-9.19882
-10.6181
-12.5105
-14.5972
-16.5777
-18.2079
-19.3117
-19.7612
-19.4448
-18.3832
-16.7081
-14.573
-12.1769
-9.75243
-7.3637
-4.98549
-2.72151
-0.196241
2.83071
5.22408
4.38158
0.133861
-8.71968
-19.1208
-14.9927
-5.39147
-6.58139
-13.2518
-4.27942
14.9014
27.3253
30.3305
29.2355
26.179
22.4469
18.6921
15.238
12.2297
9.72092
7.69038
6.08175
4.82656
3.85695
3.11216
2.54105
2.10231
1.76359
1.5
1.2928
1.12796
0.995043
0.886346
0.796172
0.720317
0.655662
0.599877
0.551208
0.50833
0.470224
0.436105
0.405346
0.377457
0.352037
0.328767
0.307374
0.287647
0.269391
0.252455
0.236698
0.222011
0.208288
0.195448
0.183404
0.172097
0.161454
0.151435
0.141978
0.133055
0.124614
0.116616
0.109034
0.101829
0.0949834
0.0884555
0.0822371
0.0762972
0.0706075
0.0651664
0.0599238
0.0549038
0.0500276
0.0453583
0.0408042
0.0363902
0.0321269
0.0278621
0.0238911
0.0197017
0.0158336
0.0118773
0.00792261
0.00396947
9.79805e-06
-0.00396058
-0.00795004
-0.0119692
-0.0160294
-0.0201451
-0.0243344
-0.0286138
-0.0329973
-0.0375015
-0.0421449
-0.0469465
-0.0519255
-0.0571016
-0.0624941
-0.0681207
-0.0739953
-0.0801238
-0.0864979
-0.093085
-0.09981
-0.106534
-0.11302
-0.118875
-0.123412
-0.125307
-0.124716
-0.117805
-0.101603
-0.0722547
-0.0232499
0.0541221
0.174287
0.353706
0.616404
0.996273
1.53706
2.29637
3.34814
4.78486
6.71903
-40.1166
-39.8989
-33.5835
-24.9511
-17.6658
-12.5577
-9.358
-7.83566
-7.38034
-7.5071
-7.78193
-8.04524
-8.37221
-9.19806
-10.6171
-12.5101
-14.5975
-16.5785
-18.2091
-19.3133
-19.7631
-19.4465
-18.3847
-16.7091
-14.5737
-12.1772
-9.75241
-7.36369
-4.98552
-2.7221
-0.196684
2.83296
5.23008
4.38972
0.141193
-8.72306
-19.1377
-15.0043
-5.37782
-6.57651
-13.2724
-4.29677
14.9074
27.3434
30.3414
29.2406
26.1808
22.4471
18.6915
15.237
12.2285
9.71985
7.68944
6.08096
4.82592
3.85645
3.11177
2.54076
2.10211
1.76344
1.49991
1.29274
1.12793
0.995038
0.886361
0.796203
0.720361
0.655718
0.599941
0.551281
0.50841
0.47031
0.436196
0.405441
0.377556
0.352139
0.328873
0.307483
0.287758
0.269504
0.252571
0.236814
0.22213
0.208407
0.19557
0.183526
0.172222
0.161578
0.151561
0.142104
0.133182
0.124741
0.116743
0.109163
0.101957
0.095114
0.0885838
0.0823679
0.0764271
0.0707373
0.0652983
0.0600522
0.0550382
0.0501531
0.045495
0.0409314
0.0365172
0.0322665
0.0279659
0.0240591
0.0197961
0.0159857
0.0120297
0.00807333
0.00411552
0.000153567
-0.00381792
-0.00780801
-0.0118277
-0.0158887
-0.020005
-0.0241945
-0.028474
-0.0328579
-0.0373625
-0.0420063
-0.0468082
-0.0517876
-0.0569639
-0.0623567
-0.0679834
-0.0738579
-0.0799859
-0.0863591
-0.0929442
-0.0996656
-0.106383
-0.112858
-0.118689
-0.123154
-0.124806
-0.12447
-0.117779
-0.101612
-0.0722856
-0.0233049
0.0540341
0.174157
0.353516
0.616138
0.995906
1.53656
2.29571
3.34726
4.78373
6.7176
-40.1348
-39.9175
-33.5925
-24.9487
-17.6589
-12.5511
-9.35252
-7.83183
-7.3783
-7.50628
-7.78175
-8.04489
-8.37072
-9.1953
-10.6155
-12.5094
-14.5977
-16.5796
-18.2108
-19.3152
-19.7654
-19.4489
-18.3867
-16.7106
-14.5745
-12.1773
-9.7522
-7.3635
-4.98538
-2.72281
-0.197235
2.83654
5.23967
4.40213
0.152375
-8.72821
-19.1635
-15.0229
-5.35716
-6.56909
-13.3038
-4.32324
14.9166
27.3712
30.358
29.2483
26.1836
22.4475
18.6906
15.2355
12.2269
9.71822
7.68799
6.07974
4.82492
3.85565
3.11115
2.54028
2.10173
1.76314
1.49967
1.29255
1.12776
0.994889
0.886224
0.796072
0.720233
0.65559
0.599813
0.551151
0.508277
0.470174
0.436057
0.405299
0.377412
0.351992
0.328723
0.307331
0.287604
0.269348
0.252412
0.236656
0.221969
0.208246
0.195406
0.183362
0.172055
0.161412
0.151392
0.141936
0.133013
0.124571
0.116573
0.108992
0.101787