/*--------------------------------*- C++ -*----------------------------------*\
| =========                 |                                                 |
| \\      /  F ield         | OpenFOAM: The Open Source CFD Toolbox           |
|  \\    /   O peration     | Version:  v1912                                 |
|   \\  /    A nd           | Website:  www.openfoam.com                      |
|    \\/     M anipulation  |                                                 |
\*---------------------------------------------------------------------------*/
FoamFile
{
    version     2.0;
    format      ascii;
    class       volScalarField;
    location    "100";
    object      omega;
}
// * * * * * * * * * * * * * * * * * * * * * * * * * * * * * * * * * * * * * //

dimensions      [0 0 -1 0 0 0 0];


internalField   nonuniform List<scalar> 
14268
(
44.5916
44.5916
44.5916
44.5916
44.5916
44.5916
44.5916
44.5916
44.5916
44.5916
44.5916
44.5916
44.5916
44.5916
44.5916
44.5916
44.5916
44.5916
44.5916
44.5916
44.5916
44.5916
44.5916
44.5916
44.5916
44.5916
44.5916
44.5916
44.5916
44.5916
44.5916
44.5916
44.5916
44.5916
44.5916
44.5916
44.5916
44.5916
44.5916
44.5916
44.5916
44.5916
44.5916
44.5916
44.5916
44.5916
44.5916
44.5916
44.5916
44.5916
44.5916
44.5916
44.5916
44.5916
44.5916
44.5916
44.5916
44.5916
44.5916
44.5916
44.5916
44.5916
44.5916
44.5916
44.5916
44.5916
44.5916
44.5916
44.5916
44.5916
44.5916
44.5916
44.5916
44.5916
44.5916
44.5916
44.5916
44.5916
44.5916
44.5916
44.5916
44.5916
44.5916
44.5916
44.5916
44.5916
44.5916
44.5916
44.5916
44.5916
44.5916
44.5916
44.5916
44.5916
44.5916
44.5916
44.5916
44.5916
44.5916
44.5916
44.5916
44.5916
44.5916
44.5916
44.5916
44.5916
44.5916
44.5916
44.5916
44.5916
44.5916
44.5916
44.5916
44.5916
44.5916
44.5916
44.5916
44.5916
44.5916
44.5916
44.5916
44.5916
44.5916
44.5916
44.5916
44.5916
44.5916
44.5916
44.5916
44.5916
44.5916
44.5916
44.5916
44.5916
44.5916
44.5916
44.5916
44.5916
44.5916
44.5916
44.5916
44.5916
44.5916
44.5916
44.5916
44.5916
44.5916
44.5916
44.5916
44.5916
44.5916
44.5916
44.5916
44.5916
44.5916
44.5916
44.5916
44.5916
44.5916
44.5916
44.5916
44.5916
44.5916
44.5916
7.91297
7.91131
7.90974
7.90823
7.9068
7.90543
7.90412
7.90288
7.9017
7.90057
7.89949
7.89847
7.8975
7.89657
7.89569
7.89486
7.89406
7.8933
7.89258
7.8919
7.89125
7.89063
7.89005
7.88949
7.88897
7.88846
7.88799
7.88754
7.88711
7.88671
7.88633
7.88596
7.88562
7.88529
7.88499
7.88469
7.88442
7.88416
7.88391
7.88368
7.88346
7.88325
7.88305
7.88286
7.88269
7.88252
7.88237
7.88222
7.88208
7.88195
7.88182
7.88171
7.8816
7.88149
7.8814
7.88131
7.88122
7.88114
7.88106
7.88099
7.88092
7.88086
7.8808
7.88074
7.88069
7.88064
7.8806
7.88055
7.88051
7.88047
7.88044
7.88041
7.88037
7.88034
7.88032
7.88029
7.88027
7.88025
7.88022
7.88021
7.88019
7.88017
7.88015
7.88014
7.88013
7.88011
7.8801
7.88009
7.88008
7.88007
7.88006
7.88005
7.88005
7.88004
7.88003
7.88003
7.88002
7.88002
7.88001
7.88001
7.88
7.88
7.88
7.87999
7.87999
7.87999
7.87999
7.87998
7.87998
7.87998
7.87998
7.87998
7.87998
7.87998
7.87997
7.87997
7.87997
7.87997
7.87997
7.87997
7.87997
7.87997
7.87996
7.87997
7.87996
7.87997
7.87996
7.87998
7.87996
7.87998
7.87995
7.87997
7.87995
7.87997
7.87995
7.87996
7.87995
7.87995
7.87995
7.87995
7.87995
7.87995
7.87995
7.87995
7.87995
7.87995
7.87995
7.87995
7.87995
7.87995
7.87995
7.87995
7.87995
7.87995
7.87995
7.87995
7.87995
7.87995
7.87995
7.87995
7.87995
7.87995
7.8799
7.87533
2.73647
2.73548
2.73453
2.73362
2.73276
2.73194
2.73116
2.73041
2.7297
2.72902
2.72838
2.72777
2.72719
2.72663
2.7261
2.7256
2.72512
2.72467
2.72424
2.72383
2.72344
2.72307
2.72272
2.72239
2.72208
2.72178
2.72149
2.72122
2.72097
2.72073
2.7205
2.72028
2.72007
2.71988
2.7197
2.71952
2.71936
2.7192
2.71905
2.71891
2.71878
2.71866
2.71854
2.71843
2.71832
2.71823
2.71813
2.71804
2.71796
2.71788
2.71781
2.71774
2.71767
2.71761
2.71755
2.7175
2.71745
2.7174
2.71735
2.71731
2.71727
2.71723
2.7172
2.71716
2.71713
2.7171
2.71707
2.71705
2.71702
2.717
2.71698
2.71696
2.71694
2.71692
2.71691
2.71689
2.71688
2.71687
2.71685
2.71684
2.71683
2.71682
2.71681
2.7168
2.71679
2.71679
2.71678
2.71677
2.71677
2.71676
2.71676
2.71675
2.71675
2.71674
2.71674
2.71673
2.71673
2.71673
2.71673
2.71672
2.71672
2.71672
2.71672
2.71672
2.71671
2.71671
2.71671
2.71671
2.71671
2.71671
2.71671
2.71671
2.7167
2.71671
2.7167
2.7167
2.7167
2.7167
2.7167
2.7167
2.7167
2.7167
2.7167
2.7167
2.7167
2.7167
2.7167
2.71671
2.71669
2.71671
2.71669
2.7167
2.71669
2.7167
2.71668
2.71669
2.71668
2.71669
2.71668
2.71669
2.71668
2.71669
2.71668
2.71668
2.71668
2.71669
2.71668
2.71669
2.71669
2.71669
2.71669
2.71669
2.71669
2.71669
2.71669
2.71669
2.71669
2.71669
2.71669
2.71669
2.71669
2.71669
2.71663
2.71387
1.31784
1.3171
1.3164
1.31573
1.31509
1.31448
1.31391
1.31335
1.31283
1.31233
1.31185
1.3114
1.31097
1.31056
1.31017
1.3098
1.30945
1.30911
1.30879
1.30849
1.30821
1.30793
1.30767
1.30743
1.3072
1.30698
1.30677
1.30657
1.30638
1.3062
1.30603
1.30587
1.30572
1.30558
1.30544
1.30531
1.30519
1.30508
1.30497
1.30487
1.30477
1.30468
1.30459
1.30451
1.30443
1.30436
1.30429
1.30423
1.30416
1.30411
1.30405
1.304
1.30395
1.30391
1.30386
1.30382
1.30379
1.30375
1.30372
1.30369
1.30366
1.30363
1.3036
1.30358
1.30355
1.30353
1.30351
1.30349
1.30348
1.30346
1.30344
1.30343
1.30341
1.3034
1.30339
1.30338
1.30337
1.30336
1.30335
1.30334
1.30333
1.30333
1.30332
1.30331
1.30331
1.3033
1.3033
1.30329
1.30329
1.30328
1.30328
1.30327
1.30327
1.30327
1.30326
1.30326
1.30326
1.30326
1.30326
1.30325
1.30325
1.30325
1.30325
1.30325
1.30325
1.30325
1.30324
1.30324
1.30324
1.30324
1.30324
1.30324
1.30324
1.30324
1.30324
1.30324
1.30324
1.30324
1.30324
1.30324
1.30324
1.30324
1.30323
1.30324
1.30323
1.30324
1.30323
1.30324
1.30323
1.30324
1.30323
1.30324
1.30323
1.30324
1.30322
1.30323
1.30322
1.30323
1.30322
1.30323
1.30322
1.30322
1.30322
1.30322
1.30322
1.30322
1.30322
1.30322
1.30322
1.30323
1.30323
1.30323
1.30323
1.30323
1.30323
1.30323
1.30323
1.30323
1.30323
1.30323
1.30322
1.30322
1.30316
1.30133
0.763861
0.763289
0.762744
0.762224
0.761729
0.761258
0.760809
0.760381
0.759975
0.759588
0.759219
0.758869
0.758535
0.758218
0.757917
0.757631
0.757358
0.7571
0.756854
0.756621
0.756399
0.756189
0.75599
0.7558
0.75562
0.75545
0.755289
0.755135
0.75499
0.754853
0.754722
0.754599
0.754482
0.754371
0.754267
0.754168
0.754074
0.753985
0.753901
0.753822
0.753747
0.753677
0.75361
0.753547
0.753487
0.753431
0.753378
0.753328
0.753281
0.753236
0.753194
0.753155
0.753118
0.753083
0.75305
0.753019
0.752989
0.752962
0.752936
0.752912
0.752889
0.752867
0.752847
0.752828
0.752811
0.752794
0.752778
0.752764
0.75275
0.752737
0.752725
0.752714
0.752703
0.752693
0.752684
0.752675
0.752667
0.75266
0.752653
0.752646
0.75264
0.752634
0.752629
0.752624
0.752619
0.752615
0.752611
0.752607
0.752604
0.752601
0.752598
0.752595
0.752592
0.75259
0.752588
0.752586
0.752584
0.752582
0.752581
0.752579
0.752578
0.752577
0.752576
0.752575
0.752574
0.752573
0.752572
0.752572
0.752571
0.752571
0.75257
0.752571
0.752569
0.75257
0.752568
0.752569
0.752568
0.752569
0.752567
0.752568
0.752566
0.752568
0.752565
0.752568
0.752564
0.75257
0.752564
0.752572
0.752562
0.752572
0.75256
0.75257
0.752556
0.752567
0.752555
0.752563
0.752554
0.752561
0.752553
0.752556
0.752553
0.752555
0.752554
0.752555
0.752554
0.752555
0.752555
0.752556
0.752556
0.752556
0.752556
0.752557
0.752557
0.752558
0.752557
0.752558
0.752557
0.752558
0.752557
0.752558
0.752555
0.752555
0.752492
0.751168
0.498036
0.497588
0.497162
0.496756
0.496369
0.496001
0.495651
0.495317
0.495
0.494698
0.49441
0.494137
0.493877
0.49363
0.493395
0.493172
0.49296
0.492759
0.492567
0.492386
0.492213
0.49205
0.491894
0.491747
0.491607
0.491475
0.491349
0.49123
0.491117
0.49101
0.490909
0.490813
0.490722
0.490636
0.490555
0.490478
0.490405
0.490336
0.490271
0.490209
0.490151
0.490096
0.490044
0.489995
0.489949
0.489905
0.489864
0.489825
0.489789
0.489754
0.489721
0.489691
0.489662
0.489635
0.489609
0.489585
0.489562
0.489541
0.489521
0.489502
0.489484
0.489467
0.489452
0.489437
0.489423
0.48941
0.489398
0.489387
0.489376
0.489366
0.489357
0.489348
0.48934
0.489332
0.489325
0.489318
0.489312
0.489306
0.489301
0.489296
0.489291
0.489286
0.489282
0.489278
0.489275
0.489272
0.489268
0.489266
0.489263
0.48926
0.489258
0.489256
0.489254
0.489252
0.48925
0.489249
0.489247
0.489246
0.489245
0.489244
0.489243
0.489242
0.489241
0.489241
0.48924
0.489239
0.489238
0.489239
0.489237
0.489238
0.489237
0.489238
0.489236
0.489237
0.489236
0.489237
0.489235
0.489236
0.489235
0.489235
0.489234
0.489235
0.489233
0.489236
0.489232
0.489238
0.489232
0.489239
0.48923
0.489239
0.489229
0.489238
0.489225
0.489234
0.489224
0.489231
0.489223
0.48923
0.489223
0.489225
0.489223
0.489224
0.489223
0.489224
0.489223
0.489224
0.489224
0.489225
0.489225
0.489226
0.489225
0.489226
0.489226
0.489227
0.489226
0.489227
0.489226
0.489227
0.489226
0.489227
0.489224
0.489224
0.489164
0.488166
0.353403
0.353055
0.352724
0.352409
0.352109
0.351823
0.351551
0.351292
0.351046
0.350812
0.350589
0.350377
0.350176
0.349985
0.349803
0.34963
0.349466
0.34931
0.349162
0.349022
0.348888
0.348762
0.348642
0.348528
0.34842
0.348317
0.34822
0.348128
0.348041
0.347958
0.34788
0.347806
0.347736
0.347669
0.347607
0.347547
0.347491
0.347438
0.347387
0.34734
0.347295
0.347252
0.347212
0.347175
0.347139
0.347105
0.347073
0.347043
0.347015
0.346988
0.346963
0.346939
0.346917
0.346896
0.346876
0.346858
0.34684
0.346824
0.346808
0.346794
0.34678
0.346767
0.346755
0.346744
0.346733
0.346723
0.346714
0.346705
0.346697
0.346689
0.346682
0.346675
0.346669
0.346663
0.346657
0.346652
0.346647
0.346643
0.346639
0.346635
0.346631
0.346627
0.346624
0.346621
0.346619
0.346616
0.346614
0.346611
0.346609
0.346607
0.346606
0.346604
0.346602
0.346601
0.3466
0.346599
0.346597
0.346596
0.346595
0.346595
0.346594
0.346593
0.346592
0.346592
0.346591
0.346591
0.34659
0.346591
0.34659
0.34659
0.346589
0.34659
0.346589
0.34659
0.346589
0.346589
0.346588
0.346589
0.346588
0.346588
0.346587
0.346588
0.346586
0.346589
0.346586
0.34659
0.346585
0.346592
0.346584
0.346592
0.346583
0.34659
0.34658
0.346588
0.346578
0.346585
0.346578
0.346584
0.346578
0.34658
0.346577
0.346579
0.346578
0.346579
0.346578
0.346579
0.346579
0.346579
0.346579
0.34658
0.34658
0.346581
0.34658
0.346581
0.346581
0.346581
0.346581
0.346582
0.346581
0.346581
0.346579
0.346579
0.346525
0.345762
0.268498
0.268231
0.267977
0.267736
0.267506
0.267287
0.267079
0.266881
0.266693
0.266514
0.266344
0.266182
0.266028
0.265882
0.265743
0.265612
0.265486
0.265367
0.265255
0.265147
0.265046
0.264949
0.264858
0.264771
0.264689
0.264611
0.264537
0.264467
0.2644
0.264337
0.264278
0.264221
0.264168
0.264117
0.264069
0.264024
0.263981
0.263941
0.263903
0.263866
0.263832
0.2638
0.263769
0.263741
0.263714
0.263688
0.263664
0.263641
0.263619
0.263599
0.26358
0.263562
0.263545
0.263529
0.263514
0.2635
0.263486
0.263474
0.263462
0.263451
0.263441
0.263431
0.263422
0.263413
0.263405
0.263397
0.26339
0.263383
0.263377
0.263371
0.263366
0.263361
0.263356
0.263351
0.263347
0.263343
0.26334
0.263336
0.263333
0.26333
0.263327
0.263325
0.263322
0.26332
0.263318
0.263316
0.263314
0.263312
0.263311
0.263309
0.263308
0.263307
0.263305
0.263304
0.263303
0.263303
0.263302
0.263301
0.2633
0.2633
0.263299
0.263299
0.263298
0.263298
0.263297
0.263297
0.263296
0.263297
0.263296
0.263296
0.263296
0.263296
0.263295
0.263296
0.263295
0.263296
0.263295
0.263295
0.263294
0.263295
0.263294
0.263295
0.263293
0.263296
0.263293
0.263297
0.263293
0.263298
0.263292
0.263298
0.263291
0.263297
0.263288
0.263295
0.263287
0.263292
0.263286
0.263291
0.263286
0.263288
0.263286
0.263287
0.263286
0.263287
0.263287
0.263287
0.263287
0.263288
0.263288
0.263288
0.263288
0.263289
0.263288
0.263289
0.263289
0.263289
0.263289
0.263289
0.263289
0.263289
0.263287
0.263287
0.263241
0.262662
0.216481
0.216281
0.21609
0.215909
0.215736
0.215572
0.215416
0.215268
0.215127
0.214993
0.214865
0.214744
0.214629
0.21452
0.214416
0.214317
0.214224
0.214135
0.21405
0.21397
0.213894
0.213822
0.213754
0.213689
0.213628
0.213569
0.213514
0.213462
0.213412
0.213365
0.213321
0.213279
0.213239
0.213201
0.213166
0.213132
0.2131
0.21307
0.213041
0.213014
0.212989
0.212965
0.212942
0.21292
0.2129
0.212881
0.212863
0.212846
0.21283
0.212815
0.2128
0.212787
0.212774
0.212762
0.212751
0.212741
0.212731
0.212721
0.212713
0.212704
0.212697
0.212689
0.212682
0.212676
0.21267
0.212664
0.212659
0.212654
0.212649
0.212645
0.212641
0.212637
0.212633
0.21263
0.212627
0.212624
0.212621
0.212619
0.212616
0.212614
0.212612
0.21261
0.212608
0.212607
0.212605
0.212603
0.212602
0.212601
0.2126
0.212599
0.212598
0.212597
0.212596
0.212595
0.212594
0.212594
0.212593
0.212592
0.212592
0.212591
0.212591
0.212591
0.21259
0.21259
0.21259
0.21259
0.212589
0.212589
0.212589
0.212589
0.212589
0.212589
0.212588
0.212589
0.212588
0.212589
0.212588
0.212588
0.212588
0.212588
0.212587
0.212588
0.212587
0.212589
0.212586
0.21259
0.212586
0.21259
0.212585
0.21259
0.212585
0.21259
0.212583
0.212588
0.212582
0.212586
0.212581
0.212585
0.212581
0.212583
0.212581
0.212582
0.212581
0.212582
0.212581
0.212582
0.212582
0.212582
0.212582
0.212583
0.212583
0.212583
0.212583
0.212583
0.212583
0.212584
0.212583
0.212584
0.212583
0.212584
0.212582
0.212582
0.212544
0.212114
0.183982
0.183835
0.183695
0.183562
0.183436
0.183316
0.183201
0.183093
0.182989
0.182891
0.182798
0.18271
0.182626
0.182546
0.18247
0.182398
0.18233
0.182265
0.182203
0.182145
0.18209
0.182037
0.181987
0.18194
0.181895
0.181853
0.181813
0.181775
0.181738
0.181704
0.181672
0.181641
0.181612
0.181585
0.181559
0.181534
0.181511
0.181489
0.181468
0.181448
0.18143
0.181412
0.181396
0.18138
0.181365
0.181352
0.181338
0.181326
0.181314
0.181303
0.181293
0.181283
0.181274
0.181265
0.181257
0.181249
0.181242
0.181235
0.181229
0.181223
0.181217
0.181212
0.181207
0.181202
0.181198
0.181194
0.18119
0.181186
0.181183
0.18118
0.181177
0.181174
0.181171
0.181169
0.181167
0.181165
0.181163
0.181161
0.181159
0.181157
0.181156
0.181154
0.181153
0.181152
0.181151
0.18115
0.181149
0.181148
0.181147
0.181146
0.181145
0.181145
0.181144
0.181144
0.181143
0.181143
0.181142
0.181142
0.181141
0.181141
0.181141
0.18114
0.18114
0.18114
0.18114
0.18114
0.181139
0.181139
0.181139
0.181139
0.181139
0.181139
0.181139
0.181139
0.181139
0.181139
0.181138
0.181139
0.181138
0.181139
0.181138
0.181139
0.181137
0.181139
0.181137
0.18114
0.181137
0.18114
0.181137
0.18114
0.181136
0.18114
0.181134
0.181138
0.181134
0.181137
0.181133
0.181136
0.181133
0.181134
0.181133
0.181134
0.181133
0.181134
0.181133
0.181134
0.181134
0.181134
0.181134
0.181135
0.181134
0.181135
0.181135
0.181135
0.181135
0.181135
0.181135
0.181135
0.181135
0.181135
0.181134
0.181134
0.181105
0.180792
0.163602
0.163496
0.163397
0.163302
0.163211
0.163126
0.163044
0.162967
0.162893
0.162824
0.162757
0.162694
0.162635
0.162578
0.162524
0.162473
0.162424
0.162378
0.162335
0.162293
0.162254
0.162217
0.162181
0.162148
0.162116
0.162086
0.162057
0.16203
0.162005
0.161981
0.161958
0.161936
0.161915
0.161896
0.161878
0.16186
0.161844
0.161828
0.161813
0.161799
0.161786
0.161774
0.161762
0.161751
0.161741
0.161731
0.161722
0.161713
0.161704
0.161697
0.161689
0.161682
0.161676
0.16167
0.161664
0.161659
0.161653
0.161649
0.161644
0.16164
0.161636
0.161632
0.161629
0.161625
0.161622
0.161619
0.161617
0.161614
0.161612
0.161609
0.161607
0.161605
0.161603
0.161602
0.1616
0.161599
0.161597
0.161596
0.161595
0.161593
0.161592
0.161591
0.16159
0.16159
0.161589
0.161588
0.161587
0.161587
0.161586
0.161585
0.161585
0.161584
0.161584
0.161584
0.161583
0.161583
0.161583
0.161582
0.161582
0.161582
0.161582
0.161581
0.161581
0.161581
0.161581
0.161581
0.161581
0.161581
0.16158
0.161581
0.16158
0.161581
0.16158
0.161581
0.16158
0.16158
0.16158
0.16158
0.16158
0.16158
0.16158
0.16158
0.161579
0.16158
0.161579
0.161581
0.161579
0.161581
0.161579
0.161582
0.161578
0.161581
0.161577
0.16158
0.161576
0.161579
0.161576
0.161579
0.161576
0.161577
0.161576
0.161577
0.161576
0.161577
0.161576
0.161577
0.161577
0.161577
0.161577
0.161577
0.161577
0.161577
0.161577
0.161578
0.161577
0.161578
0.161577
0.161578
0.161577
0.161578
0.161577
0.161577
0.161555
0.161333
0.150915
0.150842
0.150772
0.150707
0.150644
0.150585
0.150528
0.150475
0.150424
0.150375
0.15033
0.150286
0.150245
0.150206
0.150168
0.150133
0.1501
0.150068
0.150038
0.150009
0.149982
0.149956
0.149932
0.149909
0.149887
0.149867
0.149847
0.149828
0.149811
0.149794
0.149778
0.149763
0.149749
0.149736
0.149723
0.149711
0.1497
0.149689
0.149679
0.149669
0.14966
0.149652
0.149644
0.149636
0.149629
0.149622
0.149616
0.14961
0.149604
0.149599
0.149594
0.149589
0.149584
0.14958
0.149576
0.149572
0.149569
0.149566
0.149563
0.14956
0.149557
0.149554
0.149552
0.14955
0.149547
0.149545
0.149544
0.149542
0.14954
0.149539
0.149537
0.149536
0.149535
0.149533
0.149532
0.149531
0.14953
0.149529
0.149528
0.149528
0.149527
0.149526
0.149526
0.149525
0.149524
0.149524
0.149523
0.149523
0.149523
0.149522
0.149522
0.149522
0.149521
0.149521
0.149521
0.14952
0.14952
0.14952
0.14952
0.14952
0.14952
0.149519
0.149519
0.149519
0.149519
0.149519
0.149519
0.149519
0.149519
0.149519
0.149519
0.149519
0.149519
0.149519
0.149519
0.149519
0.149519
0.149519
0.149518
0.149519
0.149518
0.149519
0.149518
0.149519
0.149518
0.149519
0.149518
0.14952
0.149518
0.14952
0.149517
0.149519
0.149516
0.149519
0.149516
0.149518
0.149516
0.149518
0.149516
0.149516
0.149516
0.149516
0.149516
0.149516
0.149516
0.149516
0.149516
0.149516
0.149516
0.149517
0.149516
0.149517
0.149517
0.149517
0.149517
0.149517
0.149517
0.149517
0.149517
0.149517
0.149516
0.149516
0.149501
0.149346
0.143143
0.143093
0.143046
0.143002
0.14296
0.14292
0.142882
0.142845
0.142811
0.142779
0.142748
0.142719
0.142691
0.142665
0.14264
0.142616
0.142594
0.142572
0.142552
0.142533
0.142515
0.142498
0.142481
0.142466
0.142451
0.142438
0.142424
0.142412
0.1424
0.142389
0.142379
0.142369
0.142359
0.14235
0.142342
0.142334
0.142326
0.142319
0.142312
0.142306
0.1423
0.142294
0.142289
0.142284
0.142279
0.142274
0.14227
0.142266
0.142262
0.142259
0.142255
0.142252
0.142249
0.142246
0.142244
0.142241
0.142239
0.142237
0.142235
0.142233
0.142231
0.142229
0.142227
0.142226
0.142224
0.142223
0.142222
0.142221
0.14222
0.142219
0.142218
0.142217
0.142216
0.142215
0.142214
0.142214
0.142213
0.142212
0.142212
0.142211
0.142211
0.14221
0.14221
0.142209
0.142209
0.142209
0.142208
0.142208
0.142208
0.142208
0.142207
0.142207
0.142207
0.142207
0.142207
0.142206
0.142206
0.142206
0.142206
0.142206
0.142206
0.142206
0.142206
0.142206
0.142205
0.142206
0.142205
0.142205
0.142205
0.142205
0.142205
0.142205
0.142205
0.142205
0.142205
0.142205
0.142205
0.142205
0.142205
0.142205
0.142205
0.142205
0.142205
0.142205
0.142205
0.142206
0.142205
0.142206
0.142204
0.142206
0.142204
0.142206
0.142204
0.142205
0.142203
0.142205
0.142203
0.142205
0.142203
0.142204
0.142203
0.142204
0.142203
0.142204
0.142203
0.142204
0.142203
0.142204
0.142204
0.142204
0.142204
0.142204
0.142204
0.142204
0.142204
0.142204
0.142204
0.142204
0.142204
0.142204
0.142203
0.142203
0.142193
0.142084
0.138499
0.138467
0.138436
0.138406
0.138379
0.138352
0.138327
0.138303
0.138281
0.138259
0.138239
0.13822
0.138202
0.138184
0.138168
0.138153
0.138138
0.138124
0.138111
0.138098
0.138086
0.138075
0.138064
0.138054
0.138045
0.138036
0.138027
0.138019
0.138011
0.138004
0.137997
0.137991
0.137985
0.137979
0.137973
0.137968
0.137963
0.137958
0.137954
0.13795
0.137946
0.137942
0.137939
0.137935
0.137932
0.137929
0.137926
0.137924
0.137921
0.137919
0.137917
0.137915
0.137913
0.137911
0.137909
0.137907
0.137906
0.137905
0.137903
0.137902
0.137901
0.1379
0.137899
0.137898
0.137897
0.137896
0.137895
0.137894
0.137893
0.137893
0.137892
0.137892
0.137891
0.13789
0.13789
0.137889
0.137889
0.137889
0.137888
0.137888
0.137888
0.137887
0.137887
0.137887
0.137887
0.137886
0.137886
0.137886
0.137886
0.137886
0.137885
0.137885
0.137885
0.137885
0.137885
0.137885
0.137885
0.137885
0.137885
0.137884
0.137884
0.137884
0.137884
0.137884
0.137884
0.137884
0.137884
0.137884
0.137884
0.137884
0.137884
0.137884
0.137884
0.137884
0.137884
0.137884
0.137884
0.137884
0.137884
0.137884
0.137884
0.137884
0.137884
0.137884
0.137884
0.137884
0.137884
0.137885
0.137883
0.137885
0.137883
0.137884
0.137883
0.137884
0.137883
0.137884
0.137883
0.137884
0.137883
0.137883
0.137883
0.137883
0.137883
0.137883
0.137883
0.137883
0.137883
0.137883
0.137883
0.137883
0.137883
0.137883
0.137883
0.137883
0.137883
0.137883
0.137883
0.137883
0.137883
0.137883
0.137883
0.137883
0.137876
0.137795
0.134516
0.134499
0.134483
0.134469
0.134455
0.134441
0.134429
0.134417
0.134406
0.134395
0.134385
0.134375
0.134366
0.134358
0.13435
0.134342
0.134335
0.134328
0.134321
0.134315
0.134309
0.134304
0.134298
0.134293
0.134289
0.134284
0.13428
0.134276
0.134272
0.134269
0.134265
0.134262
0.134259
0.134256
0.134254
0.134251
0.134249
0.134246
0.134244
0.134242
0.13424
0.134238
0.134237
0.134235
0.134233
0.134232
0.134231
0.134229
0.134228
0.134227
0.134226
0.134225
0.134224
0.134223
0.134222
0.134221
0.134221
0.13422
0.134219
0.134219
0.134218
0.134217
0.134217
0.134216
0.134216
0.134216
0.134215
0.134215
0.134214
0.134214
0.134214
0.134213
0.134213
0.134213
0.134213
0.134212
0.134212
0.134212
0.134212
0.134212
0.134212
0.134211
0.134211
0.134211
0.134211
0.134211
0.134211
0.134211
0.134211
0.134211
0.13421
0.13421
0.13421
0.13421
0.13421
0.13421
0.13421
0.13421
0.13421
0.13421
0.13421
0.13421
0.13421
0.13421
0.13421
0.13421
0.13421
0.13421
0.13421
0.13421
0.13421
0.13421
0.13421
0.13421
0.13421
0.13421
0.13421
0.13421
0.13421
0.13421
0.13421
0.13421
0.13421
0.13421
0.13421
0.13421
0.13421
0.13421
0.134209
0.13421
0.134209
0.13421
0.134209
0.13421
0.134209
0.13421
0.134209
0.13421
0.134209
0.134209
0.134209
0.134209
0.134209
0.134209
0.134209
0.134209
0.134209
0.134209
0.134209
0.134209
0.134209
0.134209
0.134209
0.134209
0.134209
0.134209
0.134209
0.134209
0.134209
0.134209
0.134209
0.134209
0.134206
0.13415
0.132719
0.132712
0.132706
0.1327
0.132694
0.132689
0.132684
0.132679
0.132675
0.132671
0.132667
0.132663
0.13266
0.132656
0.132653
0.13265
0.132647
0.132645
0.132642
0.13264
0.132638
0.132636
0.132634
0.132632
0.13263
0.132628
0.132627
0.132625
0.132624
0.132622
0.132621
0.13262
0.132619
0.132618
0.132617
0.132616
0.132615
0.132614
0.132613
0.132612
0.132612
0.132611
0.13261
0.13261
0.132609
0.132609
0.132608
0.132608
0.132607
0.132607
0.132606
0.132606
0.132606
0.132605
0.132605
0.132605
0.132604
0.132604
0.132604
0.132604
0.132603
0.132603
0.132603
0.132603
0.132603
0.132602
0.132602
0.132602
0.132602
0.132602
0.132602
0.132602
0.132602
0.132601
0.132601
0.132601
0.132601
0.132601
0.132601
0.132601
0.132601
0.132601
0.132601
0.132601
0.132601
0.132601
0.132601
0.132601
0.132601
0.132601
0.132601
0.132601
0.1326
0.1326
0.1326
0.1326
0.1326
0.1326
0.1326
0.1326
0.1326
0.1326
0.1326
0.1326
0.1326
0.1326
0.1326
0.1326
0.1326
0.1326
0.1326
0.1326
0.1326
0.1326
0.1326
0.1326
0.1326
0.1326
0.1326
0.1326
0.1326
0.1326
0.1326
0.1326
0.1326
0.1326
0.1326
0.132601
0.1326
0.132601
0.1326
0.132601
0.1326
0.132601
0.1326
0.1326
0.1326
0.1326
0.1326
0.1326
0.1326
0.1326
0.1326
0.1326
0.1326
0.1326
0.1326
0.1326
0.1326
0.1326
0.1326
0.1326
0.1326
0.1326
0.1326
0.1326
0.1326
0.1326
0.1326
0.1326
0.1326
0.1326
0.132599
0.132568
0.132155
0.132152
0.13215
0.132148
0.132145
0.132143
0.132141
0.13214
0.132138
0.132136
0.132135
0.132134
0.132132
0.132131
0.13213
0.132129
0.132128
0.132127
0.132126
0.132125
0.132124
0.132124
0.132123
0.132122
0.132122
0.132121
0.13212
0.13212
0.132119
0.132119
0.132119
0.132118
0.132118
0.132117
0.132117
0.132117
0.132116
0.132116
0.132116
0.132116
0.132115
0.132115
0.132115
0.132115
0.132114
0.132114
0.132114
0.132114
0.132114
0.132114
0.132113
0.132113
0.132113
0.132113
0.132113
0.132113
0.132113
0.132113
0.132113
0.132112
0.132112
0.132112
0.132112
0.132112
0.132112
0.132112
0.132112
0.132112
0.132112
0.132112
0.132112
0.132112
0.132112
0.132112
0.132112
0.132112
0.132112
0.132112
0.132112
0.132112
0.132112
0.132112
0.132111
0.132111
0.132111
0.132111
0.132111
0.132111
0.132111
0.132111
0.132111
0.132111
0.132111
0.132111
0.132111
0.132111
0.132111
0.132111
0.132111
0.132111
0.132111
0.132111
0.132111
0.132111
0.132111
0.132111
0.132111
0.132111
0.132111
0.132111
0.132111
0.132111
0.132111
0.132111
0.132111
0.132111
0.132111
0.132111
0.132111
0.132111
0.132111
0.132111
0.132111
0.132111
0.132111
0.132111
0.132111
0.132112
0.132111
0.132112
0.132111
0.132112
0.132111
0.132112
0.132111
0.132112
0.132111
0.132111
0.132111
0.132111
0.132111
0.132111
0.132111
0.132111
0.132111
0.132111
0.132111
0.132111
0.132111
0.132111
0.132111
0.132111
0.132111
0.132111
0.132111
0.132111
0.132111
0.132111
0.132111
0.132111
0.132111
0.132111
0.13211
0.132171
0.131991
0.131989
0.131988
0.131987
0.131986
0.131985
0.131985
0.131984
0.131983
0.131982
0.131982
0.131981
0.131981
0.13198
0.13198
0.13198
0.131979
0.131979
0.131979
0.131978
0.131978
0.131978
0.131977
0.131977
0.131977
0.131977
0.131977
0.131976
0.131976
0.131976
0.131976
0.131976
0.131976
0.131976
0.131976
0.131975
0.131975
0.131975
0.131975
0.131975
0.131975
0.131975
0.131975
0.131975
0.131975
0.131975
0.131975
0.131974
0.131974
0.131974
0.131974
0.131974
0.131974
0.131974
0.131974
0.131974
0.131974
0.131974
0.131974
0.131974
0.131974
0.131974
0.131974
0.131974
0.131974
0.131974
0.131974
0.131974
0.131974
0.131974
0.131974
0.131974
0.131974
0.131974
0.131974
0.131974
0.131974
0.131974
0.131974
0.131974
0.131974
0.131974
0.131974
0.131974
0.131974
0.131974
0.131974
0.131974
0.131974
0.131974
0.131974
0.131974
0.131974
0.131974
0.131974
0.131974
0.131974
0.131974
0.131974
0.131974
0.131974
0.131974
0.131974
0.131974
0.131974
0.131974
0.131974
0.131974
0.131974
0.131974
0.131974
0.131974
0.131974
0.131974
0.131974
0.131974
0.131974
0.131974
0.131974
0.131974
0.131974
0.131974
0.131974
0.131974
0.131974
0.131974
0.131974
0.131974
0.131974
0.131974
0.131974
0.131974
0.131974
0.131974
0.131974
0.131974
0.131974
0.131974
0.131974
0.131974
0.131974
0.131974
0.131974
0.131974
0.131974
0.131974
0.131974
0.131974
0.131974
0.131974
0.131974
0.131974
0.131974
0.131974
0.131974
0.131974
0.131974
0.131974
0.131974
0.131974
0.131974
0.131974
0.131972
0.132268
0.131946
0.131945
0.131944
0.131944
0.131943
0.131943
0.131942
0.131942
0.131941
0.131941
0.131941
0.131941
0.13194
0.13194
0.13194
0.13194
0.13194
0.131939
0.131939
0.131939
0.131939
0.131939
0.131939
0.131939
0.131939
0.131939
0.131939
0.131939
0.131939
0.131938
0.131938
0.131938
0.131938
0.131938
0.131938
0.131938
0.131938
0.131938
0.131938
0.131938
0.131938
0.131938
0.131938
0.131938
0.131938
0.131938
0.131938
0.131938
0.131938
0.131938
0.131938
0.131938
0.131938
0.131938
0.131938
0.131938
0.131938
0.131938
0.131938
0.131938
0.131938
0.131938
0.131938
0.131938
0.131938
0.131938
0.131938
0.131938
0.131938
0.131938
0.131938
0.131938
0.131938
0.131938
0.131938
0.131938
0.131938
0.131938
0.131938
0.131938
0.131938
0.131938
0.131938
0.131938
0.131938
0.131938
0.131938
0.131938
0.131938
0.131938
0.131938
0.131938
0.131938
0.131938
0.131938
0.131938
0.131938
0.131938
0.131938
0.131938
0.131938
0.131938
0.131938
0.131938
0.131938
0.131938
0.131938
0.131938
0.131938
0.131938
0.131938
0.131938
0.131938
0.131938
0.131938
0.131938
0.131938
0.131938
0.131938
0.131938
0.131938
0.131938
0.131938
0.131938
0.131938
0.131938
0.131938
0.131938
0.131938
0.131938
0.131938
0.131938
0.131938
0.131938
0.131938
0.131938
0.131938
0.131938
0.131938
0.131938
0.131938
0.131938
0.131938
0.131938
0.131938
0.131938
0.131938
0.131938
0.131938
0.131938
0.131938
0.131938
0.131938
0.131938
0.131938
0.131938
0.131938
0.131938
0.131938
0.131938
0.131938
0.131938
0.131937
0.132618
0.131934
0.131934
0.131933
0.131933
0.131932
0.131932
0.131932
0.131931
0.131931
0.131931
0.131931
0.13193
0.13193
0.13193
0.13193
0.13193
0.13193
0.13193
0.13193
0.13193
0.131929
0.131929
0.131929
0.131929
0.131929
0.131929
0.131929
0.131929
0.131929
0.131929
0.131929
0.131929
0.131929
0.131929
0.131929
0.131929
0.131929
0.131929
0.131929
0.131929
0.131929
0.131929
0.131929
0.131929
0.131929
0.131929
0.131929
0.131929
0.131929
0.131929
0.131929
0.131929
0.131929
0.131929
0.131929
0.131929
0.131929
0.131929
0.131929
0.131929
0.131929
0.131929
0.131929
0.131929
0.131929
0.131929
0.131929
0.131929
0.131929
0.131929
0.131929
0.131929
0.131929
0.131929
0.131929
0.131929
0.131929
0.131929
0.131929
0.131929
0.131929
0.131929
0.131929
0.131929
0.131929
0.131929
0.131929
0.131929
0.131929
0.131929
0.131929
0.131929
0.131929
0.131929
0.131929
0.131929
0.131929
0.131929
0.131929
0.131929
0.131929
0.131929
0.131929
0.131929
0.131929
0.131929
0.131929
0.131929
0.131929
0.131929
0.131929
0.131929
0.131929
0.131929
0.131929
0.131929
0.131929
0.131929
0.131929
0.131929
0.131929
0.131929
0.131929
0.131929
0.131929
0.131929
0.131929
0.131929
0.131929
0.131929
0.131929
0.131929
0.131929
0.131929
0.131929
0.131929
0.131929
0.131929
0.131929
0.131929
0.131929
0.131929
0.131929
0.131929
0.131929
0.131929
0.131929
0.131929
0.131929
0.131929
0.131929
0.131929
0.131929
0.131929
0.131929
0.131929
0.131929
0.131929
0.131929
0.131929
0.131929
0.131929
0.131929
0.133036
0.131931
0.131931
0.13193
0.13193
0.13193
0.131929
0.131929
0.131929
0.131929
0.131928
0.131928
0.131928
0.131928
0.131928
0.131928
0.131928
0.131927
0.131927
0.131927
0.131927
0.131927
0.131927
0.131927
0.131927
0.131927
0.131927
0.131927
0.131927
0.131927
0.131927
0.131927
0.131927
0.131927
0.131927
0.131927
0.131927
0.131927
0.131927
0.131927
0.131927
0.131927
0.131927
0.131927
0.131927
0.131927
0.131927
0.131927
0.131927
0.131927
0.131927
0.131927
0.131927
0.131927
0.131927
0.131927
0.131927
0.131927
0.131927
0.131927
0.131927
0.131927
0.131927
0.131927
0.131927
0.131927
0.131927
0.131927
0.131927
0.131927
0.131927
0.131927
0.131927
0.131927
0.131927
0.131927
0.131927
0.131927
0.131927
0.131927
0.131927