/*--------------------------------*- C++ -*----------------------------------*\
| =========                 |                                                 |
| \\      /  F ield         | OpenFOAM: The Open Source CFD Toolbox           |
|  \\    /   O peration     | Version:  v1912                                 |
|   \\  /    A nd           | Website:  www.openfoam.com                      |
|    \\/     M anipulation  |                                                 |
\*---------------------------------------------------------------------------*/
FoamFile
{
    version     2.0;
    format      ascii;
    class       volScalarField;
    location    "90";
    object      p;
}
// * * * * * * * * * * * * * * * * * * * * * * * * * * * * * * * * * * * * * //

dimensions      [1 -1 -2 0 0 0 0];


internalField   nonuniform List<scalar> 
14268
(
16565.3
16406.3
16252.6
16103.5
15956.3
15810.8
15666
15521.8
15375.5
15223.3
15064.3
14901.8
14743.4
14596.6
14463.5
14342.8
14228.3
14113.4
14001.2
13896.4
13797.4
13704.1
13614.6
13524.3
13429
13326.6
13215.8
13102.6
12993.7
12893.7
12804.5
12733.1
12667
12605.4
12539.7
12463.6
12383.2
12287.5
12187
12106.5
12050.7
12012
11984.3
11965.9
11963.1
11977.9
12017.4
12084.3
12157.9
12209.8
12222.3
12188
12106
11979.2
11832.9
11694.2
11551.3
11406
11249.6
11071.2
10868.8
10647
10411.9
10159.6
9912.88
9684.29
9470.35
9304.36
9181.07
9096.38
8994.83
8914.84
8859.81
8840.09
8837.24
8852.37
8886.98
8942.44
9005.03
9100.25
9192.54
9242.1
9224.9
9128.18
8951.73
8711.3
8428.98
8145.18
7897.44
7705.74
7587.01
7524.8
7488.93
7452.7
7391.49
7273.56
7144.82
7009.45
6854.85
6691.56
6539.65
6411.1
6258.73
6180.08
16463.9
16304.9
16151.2
16002.1
15854.9
15709.4
15564.6
15420.3
15274
15121.6
14962.5
14799.9
14641.4
14494.4
14361.2
14240.3
14125.5
14010.3
13897.9
13793.1
13694.2
13600.9
13511.5
13421.2
13326
13223.8
13112.9
13000.1
12891.7
12792
12703.1
12631.9
12565.9
12504.4
12438.7
12362.6
12282.1
12186.4
12085.9
12005.5
11949.8
11911.1
11883.4
11865
11862.3
11877.1
11916.6
11983.6
12057.1
12108.7
12121
12086.4
12004.1
11877.1
11730.8
11591.7
11448.9
11303.5
11147.1
10968.4
10765.8
10543.8
10308.4
10055.9
9809.15
9580.5
9366.68
9200.89
9077.73
8993.34
8890.99
8811.99
8757.07
8737.49
8734.76
8750
8784.74
8840.26
8902.98
8997.63
9090.59
9140.01
9122.33
9024.92
8847.47
8605.37
8320.28
8032.32
7779.96
7585.26
7465.31
7401.94
7364.78
7326.92
7262.38
7139.73
7006.83
6865.77
6705.19
6538.53
6385.68
6254.35
6101.69
6032.04
16362.6
16203.6
16049.9
15900.8
15753.6
15608.1
15463.3
15319
15172.7
15020.3
14861.2
14698.6
14540.1
14393.2
14260.1
14139.2
14024.6
13909.5
13797.2
13692.3
13593.4
13500
13410.6
13320.4
13225.2
13122.8
13012.3
12899.1
12790.6
12691
12602
12530.9
12465
12403.5
12337.7
12261.7
12181.2
12085.4
11984.9
11904.5
11848.9
11810.3
11782.7
11764.3
11761.6
11776.4
11816.1
11883.3
11956.8
12008.5
12020.6
11985.8
11903.3
11776.1
11629.5
11491
11347.8
11202.3
11045.8
10867.1
10664.4
10442.3
10206.9
9954.4
9707.66
9479.04
9265.32
9099.78
8976.79
8892.36
8791.19
8711.23
8656.22
8636.69
8633.97
8649.35
8684.29
8739.86
8802.58
8898.75
8990.12
9039.11
9021.06
8923.21
8745.08
8502.5
8217.21
7929.21
7676.84
7482.28
7363.19
7301.67
7266.62
7231.98
7173.72
7057.34
6927.21
6787.55
6625.18
6448.99
6285.47
6148.63
5989.09
5915.08
16261.1
16102.2
15948.5
15799.5
15652.2
15506.7
15361.9
15217.6
15071.3
14918.8
14759.6
14596.9
14438.3
14291.3
14158.1
14037.2
13922.4
13807.1
13694.6
13589.8
13490.9
13397.7
13308.4
13218.1
13123
13020.7
12909.9
12797.2
12688.9
12589.5
12500.7
12429.8
12363.9
12302.5
12236.8
12160.7
12080.2
11984.3
11883.7
11803.4
11747.9
11709.4
11681.8
11663.5
11660.8
11675.6
11715.4
11782.6
11856.2
11907.7
11919.6
11884.5
11801.7
11674.3
11527.6
11388.4
11245.8
11100.3
10943.8
10764.9
10562.1
10339.8
10104.2
9851.49
9604.68
9375.98
9162.38
8997.02
8874.17
8790.31
8687.2
8609.28
8554.33
8534.95
8532.33
8547.74
8582.82
8638.49
8701.28
8795.63
8888.74
8937.35
8918.41
8819.54
8640.09
8396.11
8108.84
7817.17
7561.24
7365.32
7246.03
7184.92
7151.22
7117.27
7056.24
6935.81
6803.67
6661.93
6501.13
6336.18
6175.45
6039.55
5874.18
5792.84
16159.7
16000.8
15847.2
15698.1
15550.9
15405.4
15260.6
15116.3
14970
14817.5
14658.2
14495.5
14336.9
14190
14056.9
13936.1
13821.4
13706.3
13593.9
13489
13390.1
13296.9
13207.5
13117.3
13022.1
12919.7
12809.3
12696.2
12587.8
12488.4
12399.5
12328.9
12262.9
12201.6
12135.9
12059.8
11979.2
11883.3
11782.6
11702.3
11646.9
11608.5
11581
11562.7
11559.9
11574.8
11614.7
11682.3
11755.9
11807.6
11819.4
11784.1
11701.3
11573.5
11426.5
11287.9
11144.7
10999.2
10842.6
10663.7
10460.8
10238.5
10002.7
9749.96
9503.16
9274.42
9060.85
8895.81
8773.13
8689.33
8587.83
8508.67
8453.53
8434.16
8431.51
8447.09
8482.47
8538.28
8601.09
8698.27
8789.05
8837.31
8817.74
8717.9
8536.86
8290.39
8001.38
7709.15
7453.34
7258.36
7140.3
7080.67
7049.46
7017.08
6957.12
6835.09
6702.62
6563.3
6412.6
6259.51
6109.04
5971.78
5808.9
5716.91
16058.2
15899.3
15745.7
15596.7
15449.5
15304
15159.2
15014.9
14868.6
14716.1
14556.7
14393.9
14235.2
14088.2
13955
13834.2
13719.4
13604.1
13491.5
13386.8
13287.9
13194.8
13105.6
13015.4
12920.3
12817.9
12707.2
12594.5
12486.3
12387
12298.2
12227.7
12161.8
12100.6
12034.9
11958.9
11878.3
11782.3
11681.4
11601.2
11545.8
11507.5
11480.1
11461.8
11459.1
11474
11513.9
11581.7
11655.4
11707
11718.7
11683.1
11599.9
11471.8
11324.6
11185.4
11042.9
10897.4
10740.8
10561.8
10358.8
10136.3
9900.31
9647.39
9400.5
9171.69
8958.23
8793.3
8670.79
8587.58
8484.14
8406.8
8351.79
8332.55
8329.98
8345.54
8381.12
8437.06
8499.87
8594.7
8688.43
8737.01
8717.38
8617.26
8435.1
8185.6
7891.26
7593.36
7332.76
7135.55
7017.95
6958.69
6929.03
6899.52
6841.67
6717.58
6574.4
6423.42
6264.21
6111.61
5961
5820.21
5646.63
5563.14
15956.8
15797.9
15644.3
15495.4
15348.1
15202.6
15057.8
14913.6
14767.3
14614.7
14455.3
14292.4
14133.7
13986.8
13853.7
13733
13618.4
13503.3
13390.7
13285.8
13187
13093.9
13004.7
12914.6
12819.4
12716.9
12606.6
12493.4
12385.1
12285.7
12196.9
12126.8
12060.7
11999.6
11934
11858
11777.3
11681.3
11580.2
11500
11444.8
11406.5
11379.2
11360.9
11358.2
11373
11413.2
11481.2
11555.2
11606.9
11618.5
11582.7
11499.4
11371
11223.5
11084.8
10941.8
10796.2
10639.7
10460.7
10257.6
10034.9
9798.73
9545.64
9298.68
9069.71
8856.27
8691.61
8569.25
8486.35
8384.75
8305.78
8250.81
8231.59
8229
8244.75
8280.7
8336.81
8399.64
8498.03
8588.88
8637.49
8617.95
8517.81
8335.51
8086.84
7794.4
7496.13
7231.48
7030.42
6913.33
6855.36
6826.76
6803.15
6748.01
6631.97
6498.51
6353.17
6202.72
6053.92
5905.77
5762.88
5590.86
5464.9
15855.2
15696.4
15542.9
15393.9
15246.7
15101.2
14956.4
14812.2
14665.9
14513.3
14353.8
14190.8
14031.9
13885
13751.9
13631.2
13516.5
13401.2
13288.6
13183.8
13085.1
12992.1
12903
12812.8
12717.7
12615.3
12504.7
12391.8
12283.6
12184.3
12095.5
12025.6
11959.5
11898.6
11833.1
11757.1
11676.3
11580.3
11478.9
11398.7
11343.6
11305.5
11278.2
11259.9
11257.2
11272
11312.3
11380.6
11454.8
11506.6
11518.2
11482.1
11398.4
11269.7
11121.7
10982.6
10840.1
10694.7
10538.1
10359
10155.8
9932.96
9696.62
9443.47
9196.42
8967.36
8754.03
8589.57
8467.46
8384.9
8281.89
8203.77
8148.99
8129.91
8127.41
8143.21
8179.47
8235.86
8298.67
8394.11
8488.39
8537.38
8517.93
8417.64
8235.21
7986.68
7694.59
7396.3
7132.9
6933.35
6816.57
6757.87
6728.96
6700.9
6644.27
6525.37
6392.08
6247.07
6087.11
5933.23
5783.25
5648.6
5477.09
5357.17
15753.7
15595
15441.4
15292.5
15145.3
14999.9
14855
14710.9
14564.6
14411.9
14252.4
14089.2
13930.3
13783.5
13650.4
13529.9
13415.4
13300.2
13187.6
13082.7
12984
12891
12802
12712
12616.8
12514.3
12404
12290.6
12182.4
12083
11994.2
11924.6
11858.4
11797.6
11732.1
11656.3
11575.4
11479.4
11377.6
11297.5
11242.5
11204.5
11177.2
11159
11156.2
11171
11211.4
11280.2
11354.6
11406.6
11418.1
11381.7
11297.9
11168.8
11020.5
10881.7
10738.9
10593.5
10436.9
10257.8
10054.5
9831.44
9594.83
9341.46
9094.28
8865.13
8651.84
8487.59
8365.73
8283.74
8182.26
8102.7
8047.87
8028.71
8026.04
8041.92
8078.53
8135.17
8198.21
8297.87
8388.97
8438.09
8418.61
8318.32
8136.03
7888.23
7597.85
7301.67
7040.24
6842.72
6726.61
6669.28
6641.56
6612.18
6555.86
6439.93
6312.19
6172.66
6023.65
5873.98
5725.09
5583.23
5418.1
5285.92
15652.1
15493.4
15339.9
15191.1
15043.9
14898.4
14753.6
14609.5
14463.2
14310.5
14150.9
13987.6
13828.6
13681.7
13548.7
13428.1
13313.6
13198.3
13085.6
12980.8
12882.2
12789.3
12700.4
12610.4
12515.3
12412.7
12302.3
12189.1
12080.9
11981.6
11892.7
11823.2
11757.3
11696.6
11631.2
11555.4
11474.4
11378.4
11276.2
11196.1
11141.2
11103.3
11076.2
11058
11055.2
11069.9
11110.5
11179.6
11254.3
11306.5
11318
11281.3
11197.2
11067.7
10918.8
10779.7
10637.2
10492
10335.6
10156.6
9953.08
9729.87
9493.02
9239.4
8992.06
8762.74
8549.51
8385.44
8263.84
8182.24
8080.2
8001.01
7946.35
7927.22
7924.43
7940.21
7977.06
8033.93
8097.09
8193.63
8288.54
8338.1
8318.72
8218.42
8035.97
7788.01
7497.51
7201.79
6941.89
6746.08
6630.87
6573.75
6544.43
6512.88
6453.95
6334.16
6204.28
6063.6
5903.15
5747.54
5596.31
5465.47
5300.83
5191.55
15550.6
15391.9
15238.5
15089.6
14942.5
14797
14652.2
14508.1
14361.9
14209.2
14049.4
13886
13726.9
13580
13447.1
13326.8
13212.4
13097.3
12984.5
12879.6
12781
12688.2
12599.4
12509.5
12414.4
12311.7
12201.4
12088
11979.6
11880.2
11791.3
11722.2
11656.3
11595.6
11530.3
11454.6
11373.5
11277.5
11174.8
11094.7
11040
11002.2
10975.2
10957
10954.1
10968.8
11009.5
11079
11154.1
11206.6
11218.1
11181
11096.8
10966.9
10817.6
10678.8
10536.1
10390.8
10234.5
10055.4
9851.8
9628.37
9391.26
9137.44
8889.93
8660.45
8447.28
8283.36
8162.09
8081.11
7980.26
7899.88
7845.26
7826.22
7823.4
7839.2
7876.21
7933
7996.26
8097.42
8189.11
8238.97
8219.61
8119.27
7936.91
7689.31
7399.94
7106.04
6847.95
6653.16
6537.93
6481.15
6452.86
6421.36
6363.53
6246
6120.41
5984.69
5836.77
5686.5
5536.87
5395.25
5234.91
5117.37
15448.9
15290.4
15137
14988.2
14841
14695.6
14550.8
14406.7
14260.5
14107.8
13947.9
13784.4
13625.2
13478.2
13345.3
13225
13110.7
12995.5
12882.7
12777.8
12679.3
12586.6
12497.9
12408
12313
12210.2
12099.8
11986.6
11878.1
11778.7
11689.8
11620.5
11555.2
11494.5
11429.3
11353.7
11272.5
11176.5
11073.4
10993.3
10938.6
10901.1
10874.2
10855.9
10853
10867.5
10908.5
10978.5
11053.8
11106.6
11118.2
11080.8
10996.3
10865.8
10715.9
10576.9
10434.4
10289.3
10133.2
9954.14
9750.42
9526.78
9289.37
9035.31
8787.6
8557.93
8344.82
8181.06
8060.11
7979.56
7878.68
7798.21
7743.73
7724.8
7721.96
7737.81
7775.11
7831.89
7894.97
7992.85
8088.62
8139.04
8119.9
8019.57
7836.96
7588.92
7299.12
7005.41
6748.59
6554.88
6439.93
6384.06
6355.13
6322.61
6262.02
6140.19
6011.1
5872.92
5713.56
5557.81
5406.83
5277.06
5120.38
5022.22
15347.3
15188.9
15035.5
14886.7
14739.6
14594.2
14449.4
14305.4
14159.2
14006.4
13846.5
13682.8
13523.4
13376.5
13243.7
13123.6
13009.5
12894.3
12781.4
12676.4
12578
12485.4
12396.9
12307.1
12212.1
12109.3
11998.7
11885.5
11776.8
11677.3
11588.3
11519.7
11454.1
11393.5
11328.4
11252.9
11171.6
11075.7
10971.9
10891.8
10837.3
10799.9
10773.1
10754.9
10751.8
10766.2
10807.4
10877.9
10953.7
11006.8
11018.4
10980.8
10896
10765.1
10614.7
10475.9
10333.3
10188.3
10032.3
9853.19
9649.34
9425.44
9187.72
8933.43
8685.47
8455.6
8242.52
8078.89
7958.31
7878.42
7778.65
7697.01
7642.55
7623.66
7620.77
7636.76
7674.46
7731.28
7794.26
7896.59
7989.11
8039.9
8020.92
7920.68
7738.17
7490.23
7201.12
6908.9
6653.33
6459.91
6345
6288.69
6260.51
6228.82
6169.72
6049.93
5924.58
5790.52
5640.99
5491.89
5341.85
5202.31
5048.15
4941.63
15245.7
15087.4
14934
14785.3
14638.2
14492.8
14348
14204
14057.8
13905.1
13745
13581.1
13421.6
13274.7
13142
13021.9
12907.9
12792.7
12679.7
12574.7
12476.3
12383.9
12295.5
12205.8
12110.8
12007.9
11897.1
11784.2
11675.3
11575.7
11486.8
11418.2
11352.9
11292.5
11227.5
11152.1
11070.6
10974.7
10870.4
10790.3
10735.9
10698.6
10672
10653.8
10650.6
10664.9
10706.3
10777.3
10853.5
10907
10918.7
10880.7
10795.6
10664.1
10513
10374.1
10231.6
10086.8
9930.97
9751.95
9548
9323.86
9085.81
8831.25
8583.08
8352.98
8139.92
7976.42
7856.24
7776.88
7677.32
7595.3
7540.97
7522.2
7519.22
7535.34
7573.51
7630.44
7693.24
7792.58
7888.74
7940.07
7921.3
7821.14
7638.32
7389.65
7099.75
6807.11
6551.8
6358.12
6243.07
6187.2
6160.76
6129.2
6067.12
5943.75
5815.26
5678.29
5518.63
5358.48
5207.13
5077.44
4930.49
4843.35
15093.3
14935.1
14781.8
14633.1
14486.1
14340.7
14195.9
14052
13905.9
13753.1
13592.9
13428.7
13269
13122.1
12989.5
12869.7
12755.9
12640.8
12527.7
12422.6
12324.3
12232
12143.9
12054.3
11959.4
11856.4
11745.7
11632.5
11523.3
11423.5
11334.5
11266.4
11201.3
11140.9
11076.1
11001
10919.2
10823.5
10718.1
10638
10583.8
10546.8
10520.3
10502.1
10498.7
10512.8
10554.5
10626.5
10703.4
10757.5
10769.4
10731
10645.3
10513
10361.1
10222.4
10079.8
9935.23
9779.63
9600.66
9396.5
9171.95
8933.35
8678.37
8429.76
8199.3
7986.34
7823
7703.48
7625.08
7527.49
7443.39
7389.08
7370.34
7367.28
7383.52
7422.34
7479.54
7542.48
7648.27
7739.57
7791.31
7772.69
7672.82
7490.15
7241.2
6951.33
6659.3
6403.08
6207.17
6090.57
6034.19
6011.12
5982.92
5922.04
5803.38
5682.25
5553.02
5407.53
5258.62
5099.13
4953.42
4805.42
4709.78
14889.9
14732
14578.9
14430.2
14283.2
14137.8
13993.1
13849.3
13703.4
13550.5
13390
13225.4
13065.3
12918.4
12785.9
12666.4
12552.8
12437.7
12324.3
12219.2
12121.1
12029.1
11941.3
11851.9
11757.1
11653.9
11542.2
11429.9
11320.3
11220.4
11131.2
11063.3
10998.9
10938.8
10874.3
10799.6
10717.3
10621.8
10514.8
10434.7
10380.8
10344.2
10318
10299.8
10296.1
10309.7
10351.9
10425.2
10503.3
10558.4
10570.5
10531.3
10445
10311.2
10157.9
10019
9876.67
9732.48
9577.3
9398.48
9194.16
8969.07
8729.71
8474.14
8224.85
7993.77
7780.84
7617.68
7499.08
7422.03
7325.09
7239.88
7185.72
7167.22
7163.85
7180.39
7220.38
7277.84
7340.48
7439.45
7539.88
7592.68
7573.45
7472.27
7287.51
7035.29
6741.6
6445.9
6187.65
5992.7
5879.46
5825.25
5803.9
5777.73
5717.1
5592.81
5465.18
5327.94
5165.15
4999.4
4846.54
4712.94
4574.18
4500.79
14686.7
14529.1
14376.1
14227.5
14080.5
13935.1
13790.4
13646.8
13501
13348
13187.3
13022.2
12861.8
12714.8
12582.5
12463.5
12350.3
12235.2
12121.6
12016.2
11918.3
11826.7
11739.2
11650
11555.4
11452.1
11341.1
11227.7
11117.6
11017.3
10928
10860.6
10796.6
10736.7
10672.6
10598.3
10515.6
10420.3
10311.4
10231.3
10177.6
10141.5
10115.6
10097.4
10093.2
10106.4
10149.2
10224
10303.4
10359.7
10372.2
10332.4
10245.2
10109.9
9955.21
9816.54
9674.21
9530.42
9375.76
9197.13
8992.51
8766.76
8526.49
8270.23
8020.15
7788.37
7575.51
7412.58
7294.97
7219.47
7125.81
7037.14
6982.86
6964.35
6960.71
6977.57
7018.6
7076.33
7139.06
7249.69
7341.89
7395.63
7375.92
7273.54
7086.63
6831.26
6534.97
6237.89
5979.49
5786.34
5674.85
5623.96
5606.79
5583.6
5524.79
5404.29
5284.69
5157.75
5012.75
4865.46
4707.41
4560.89
4406.69
4317.95
14483.3
14326
14173.3
14024.7
13877.7
13732.4
13587.7
13444.2
13298.6
13145.6
12984.6
12819
12658.1
12511
12378.8
12260.2
12147.3
12032.2
11918.3
11812.8
11715.2
11623.9
11536.8
11448
11353.4
11249.8
11136.9
11025.4
10914.7
10814
10724.5
10657.5
10594.1
10534.6
10470.9
10397
10313.8
10218.4
10108.4
10027.7
9974.38
9938.7
9913.18
9894.91
9890.26
9902.85
9946.26
10022.7
10103.5
10161.1
10174
10133.4
10045.4
9908.33
9751.97
9613.19
9471.1
9327.86
9173.79
8995.38
8790.59
8564.14
8322.91
8065.89
7814.94
7582.4
7369.57
7206.81
7090.23
7016.37
6924.19
6833.47
6779.21
6760.92
6756.86
6774.07
6816.52
6874.52
6936.89
7040.19
7142.95
7198.43
7179.09
7076.18
6887.12
6627.99
6328.01
6030.05
5773.6
5583.02
5473.15
5424.32
5409.82
5386.69
5326.48
5198.39
5070.46
4934.5
4773.14
4609.45
4458.23
4329.26
4188.6
4117.18
14279.7
14122.9
13970.7
13822.1
13675.2
13529.8
13385.2
13241.9
13096.5
12943.5
12782.1
12615.9
12454.5
12307.4
12175.4
12057.4
11944.9
11829.8
11715.6
11609.8
11512.3
11421.4
11334.8
11246.3
11152
11048.3
10936.5
10823.1
10711.9
10610.9
10521.1
10454.6
10391.8
10332.5
10269.4
10196
10112.2
10016.2
9905.66
9823.99
9770.95
9735.79
9710.66
9692.33
9687.09
9699.01
9743.09
9821.39
9903.89
9963.14
9976.52
9935.06
9846.14
9707.14
9549.11
9410.47
9268.53
9125.86
8972.39
8794.32
8589.26
8362.07
8119.73
7861.89
7609.98
7376.59
7163.69
7001.11
6885.66
6813.61
6725.22
6630.48
6576.04
6557.65
6553.11
6570.8
6614.53
6672.72
6735.12
6852.31
6945.35
7002.52
6983.54
6880.87
6691.47
6431.1
6130.07
5830.6
5573.44
5382.02
5273.16
5226.98
5215.75
5193.89
5135.45
5009.69
4889.32
4763.16
4618.27
4471.4
4313.54
4166.48
4009.24
3932.47
14075.9
13919.6
13767.9
13619.5
13472.5
13327.2
13182.6
13039.6
12894.4
12741.4
12579.7
12412.8
12250.8
12103.6
11971.8
11854.2
11742.1
11626.9
11512.2
11406.2
11309.1
11218.6
11132.5
11044.4
10950.2
10846.2
10733.3
10620.1
10508.9
10407.7
10317.4
10251.5
10189.2
10130.4
10067.8
9995.02
9910.7
9813.95
9702.9
9620.21
9567.47
9532.91
9508.19
9489.78
9483.83
9494.97
9539.72
9620.02
9704.25
9765.35
9779.05
9736.67
9646.85
9505.82
9345.89
9207.2
9065.49
8923.45
8770.9
8593.26
8387.86
8159.8
7916.34
7657.49
7404.39
7170.17
6957.32
6794.88
6680.64
6610.53
6524.59
6426.56
6372.08
6353.83
6348.68
6366.85
6412.29
6470.72
6532.7
6640.05
6746.78
6806.55
6788.23
6685.63
6495.24
6232.03
5927.55
5627.3
5369.93
5177.71
5070.59
5027.45
5020.63
5000.17
4940.16
4806.53
4676.8
4542.13
4381.26
4217.86
4067.94
3937.11
3796.21
3733.43
13871.9
13716
13564.8
13416.7
13269.9
13124.7
12980.2
12837.4
12692.5
12539.5
12377.4
12209.7
12047.1
11899.8
11768.3
11651.4
11539.7
11424.5
11309.4
11203
11106.1
11016
10930.5
10842.8
10748.9
10644.7
10532.4
10417.7
10306.2
10204.5
10113.8
10048.3
9986.76
9928.45
9866.45
9794.28
9709.29
9612.11
9500.11
9416.31
9363.75
9329.79
9305.53
9287.03
9280.3
9290.57
9336.08
9418.68
9504.96
9568.4
9582.27
9538.87
9448.04
9304.73
9142.86
9004.11
8862.7
8721.38
8569.67
8392.44
8186.86
7957.67
7712.95
7453.33
7199.15
6963.86
6750.86
6588.62
6475.63
6407.48
6325.91
6223.13
6168.44
6150.04
6144.27
6163.15
6210.13
6268.77
6330.42
6453.88
6549.75
6611.69
6594.04
6491.61
6300.45
6035.52
5730.36
5428.17
5166.9
4973.77
4868.35
4827.76
4823.83
4806
4747.8
4615.73
4495.35
4369.11
4222.23
4074.77
3917.61
3771.53
3613.01
3548.41
12641.7
12490.3
12347.2
12206
12062.4
11918.4
11775
11635.6
11494.8
11344.4
11182.1
11011.9
10847.1
10701.1
10572.9
10461.5
10354.4
10240.5
10124.8
10018.8
9925.68
9841.16
9761.74
9678.82
9588.2
9484.13
9368.94
9255.87
9145.4
9043.99
8952.95
8892.43
8837.7
8784.98
8728.98
8663.1
8578.18
8473.34
8362.48
8274.88
8225.7
8197.69
8178.14
8161.08
8151.81
8159.02
8210.96
8309.13
8408.72
8487.51
8504.49
8456.97
8363.8
8209.78
8038.2
7902.98
7765.6
7630.98
7485.54
7313.51
7108.87
6874.4
6625.12
6363.77
6104.66
5866.1
5653.8
5494.59
5391.14
5335.64
5277.93
5151.07
5098.12
5082.01
5073.13
5097.55
5157.44
5219.76
5279.63
5379.55
5523.46
5605.82
5595.66
5496.36
5300.22
5018.81
4694.41
4378.58
4120.13
3938.28
3852.58
3829.76
3837.07
3838.75
3779.85
3613.95
3435.64
3276.51
3059.28
2856.16
2729.54
2658.17
2622.18
2625.31
10379.9
10236.9
10103.3
9967.5
9829.86
9697.02
9567.48
9440.81
9312.64
9168.99
9001.41
8819.9
8643.85
8499.22
8379.71
8284.92
8191.34
8080.81
7960.7
7846.2
7766.16
7693.76
7631
7562.31
7477.47
7372.23
7259.87
7139.51
7024.19
6918.15
6822.41
6756.05
6731.49
6699.87
6663.15
6610.96
6525.65
6389
6281.82
6191.93
6144.02
6129.28
6127
6112.66
6081.15
6066.97
6134.89
6283.9
6428.72
6549.28
6600.63
6546.15
6424.17
6232.58
6023.42
5868.57
5751.95
5649.6
5532.03
5377.93
5174.2
4919.44
4657.24
4382.39
4102.78
3849.75
3632.58
3483.08
3397.24
3365.89
3329.53
3233.03
3151.99
3128.71
3114.38
3169.26
3256.12
3315.23
3380.35
3543.39
3739.99
3847.14
3851.52
3756.41
3532.53
3203.81
2850.53
2514.44
2197
1968.84
1876.28
1900.58
1998.36
2080.26
2068.23
1971.3
1849.44
1756.59
1631.96
1481.38
1288.76
1187.18
1096.01
1041.41
8119.91
7993.3
7876.87
7750.05
7610.24
7466.87
7338.38
7224.87
7118.75
6998.21
6830.65
6616.27
6411.55
6272
6180.94
6122.2
6054.86
5932.41
5789.4
5649.73
5595.33
5549.85
5515.69
5468.94
5389.93
5286.45
5153.88
5022.31
4902.95
4787.16
4682.22
4626.5
4633.94
4635.63
4627.96
4599.5
4510.21
4332.04
4175.79
4062.98
4043.84
4059.3
4080.29
4060.09
3991.43
3946.96
4040.52
4278.14
4539.59
4680.94
4752.55
4684.74
4517.27
4254.79
3991.89
3877.44
3782.83
3706.2
3616.15
3483.45
3256.26
2962.64
2685.4
2411.61
2127.44
1848.57
1647.2
1538.29
1491.14
1547.73
1646.13
1511.12
1353.92
1331.26
1257.56
1258
1370.82
1437.75
1469.15
1678.46
1893.65
2075.47
2130.49
2084.21
1887.3
1534.16
1115.84
785.212
566.827
447.259
428.727
469.086
582.998
676.553
683.623
647.014
608.269
544.182
455.607
349.431
236.119
161.027
119.368
90.5192
5845.54
5752.99
5672.01
5556.8
5404.9
5253.91
5149.46
5055.88
4977.01
4869.91
4688.23
4434.72
4201.43
4040.59
3964.7
3965.05
3940.57
3807.46
3627.95
3479.81
3405.93
3407.43
3426.51
3416.36
3338.65
3185.28
3047.88
2912.15
2788.17
2655.77
2552.81
2499.74
2487.35
2559.53
2617.48
2654.64
2558.09
2293.46
2098.98
2001.03
2062.56
2096.98
2118.27
2071.85
1918.79
1750.7
1905.33
2256.54
2619.7
2841.31
2993.8
2930.41
2664.67
2296.86
1869.04
1760.77
1722.29
1727.78
1735.77
1694.57
1530.09
1257.14
1037.78
850.436
649.043
447.318
321.451
266.229
242.174
247.567
257.495
291.695
254.614
216.93
183.107
180.67
220.237
252.431
210.123
347.195
637.383
736.573
772.935
754.116
590.607
332.408
142.829
46.0704
-11.2785
-30.1811
-35.2324
-31.6829
-25.0125
-10.7856
16.3839
114.894
180.021
127.632
36.5185
-11.9618
-25.3491
-29.4952
-39.7816
-49.2527
3573.15
3517.1
3493.03
3399.53
3226.12
3042.3
2917.95
2891.39
2887.22
2830.46
2641.71
2278.56
1930.48
1753.78
1797.28
1906.79
1976.78
1827.66
1552.05
1357.25
1346.41
1463.6
1531.02
1540.15
1578.76
1480.14
1256.09
1031.09
940.265
864.464
787.838
728.585
760.765
853.161
963.422
1104.02
1120.68
998.456
760.445
519.61
511.954
590.315
619.363
560.749
423.738
313.428
368.763
699.982
1068.62
1279.5
1419.25
1368.77
1098.98
733.904
431.944
362.222
395.758
453.754
471.317
460.487
368.199
216.044
172.316
153.583
101.673
24.7578
-20.1203
-28.4478
-29.4714
-31.5567
-22.2258
-20.0561
-32.6591
-42.9397
-41.6482
-38.274
-34.7983
-33.9047
-41.0309
-37.318
-32.6819
-5.81163
31.5422
39.5367
50.8631
36.38
-4.76053
-37.339
-53.4879
-56.6986
-54.687
-53.8783
-54.7195
-55.9536
-57.1469
-59.4741
-59.6444
-57.8969
-56.3573
-52.967
-46.8157
-45.7985
-52.3528
-57.4332
1344.1
1421.8
1537.19
1500.98
1263.18
1015.5
984.21
1080.21
1201.72
1216.4
1050.57
734.05
519.703
377.317
345.977
477.496
517.809
429.123
234.13
185.825
261.925
378.281
482.456
510.862
456.065
341.036
197.104
69.9033
58.1012
63.8268
60.2528
42.9513
41.2269
54.8156
104.855
200.001
262.036
235.596
168.32
105.082
42.1393
0.331594
9.16065
-0.963935
-17.5308
-3.33969
30.2491
99.3234
125.975
212.106
388.48
362.02
198.366
68.2392
-11.701
-39.4363
-38.8908
-38.6774
-41.2601
-36.8246
-36.4733
-28.621
-2.54324
2.91989
-15.0049
-39.509
-44.5952
-43.6804
-43.022
-43.4126
-43.7982
-45.1411
-49.1428
-52.7094
-54.5975
-54.698
-54.0177
-53.5698
-54.2863
-54.5125
-53.8166
-52.2629
-54.2168
-52.1147
-51.6151
-53.3851
-54.9373
-55.3239
-56.7861
-58.5052
-58.8507
-57.2922
-54.0215
-51.1754
-52.1204
-55.57
-57.3514
-58.9303
-59.5923
-59.5115
-58.6169
-59.0836
-60.8565
-62.0308
188.796
221.677
322.119
316.085
209.194
99.6203
111.992
197.759
243.302
272.581
259.164
137.723
47.146
7.42212
-24.1693
-28.0489
-26.4192
-18.3996
-13.3217
-9.9825
32.1553
125.898
125.68
66.8881
12.5525
-14.5066
-40.1494
-49.6468
-47.6145
-48.2609
-42.1116
-33.1137
-30.2761
-36.2104
-31.3836
-26.7084
-23.6649
-19.8962
-19.8228
-27.0776
-41.3866
-44.2068
-46.3542
-45.6503
-44.638
-45.6972
-47.7004
-45.2969
-43.4838
-31.2056
-24.8144
-27.7608
-35.2379
-39.0704
-44.2971
-47.2607
-46.5592
-46.7237
-48.0465
-48.8542
-50.9135
-52.5137
-51.8183
-50.3269
-50.0441
-50.2206
-48.3882
-45.9883
-44.0322
-43.5132
-44.777
-45.5174
-49.8664
-56.2244
-58.2992
-57.5546
-56.7437
-55.5539
-55.4984
-56.496
-54.4608
-51.0447
-49.6404
-53.2573
-54.4661
-55.6994
-57.6992
-59.1646
-60.1458
-61.3321
-62.4079
-62.8241
-60.8025
-60.7653
-62.3236
-62.4288
-62.4871
-62.3034
-62.694
-61.01
-59.2207
-59.563
-61.5966
-63.2121
-36.614
-39.141
-39.3773
-33.0647
-17.5788
-7.63033
-17.822
-1.3706
50.726
44.3838
2.62668
-31.3698
-38.7453
-36.7665
-36.2821
-36.667
-36.9567
-35.9149
-35.508
-39.7038
-44.609
-45.2513
-43.8577
-40.6725
-34.8646
-33.5026
-39.639
-46.1043
-48.4755
-48.6965
-46.1355
-43.4295
-42.4896
-42.7432
-44.5129
-46.1133
-46.9098
-46.2871
-45.2232
-45.2503
-45.1281
-44.683
-46.984
-48.0907
-48.5028
-49.7499
-50.9513
-50.2484
-49.2111
-47.9078
-49.366
-50.1606
-49.1436
-48.0023
-47.9703
-48.9458
-49.8965
-50.8013
-51.192
-52.0984
-51.7921
-48.8677
-48.1269
-49.4269
-50.2923
-51.2501
-51.802
-51.8189
-51.0693
-51.3851
-51.8285
-52.9314
-55.1918
-58.2559
-59.8629
-59.9255
-59.0418
-57.9899
-57.524
-56.903
-55.9426
-55.8945
-56.5088
-57.0691
-57.8431
-58.9553
-60.1638
-61.4901
-62.4092
-63.1107
-63.5503
-62.4566
-60.667
-60.1577
-60.0759
-60.7001
-62.3928
-63.5657
-63.9976
-64.2104
-64.1593
-65.1558
-65.9046
-66.5964
-32.1501
-36.767
-39.5612
-38.2052
-36.0313
-34.5618
-40.1612
-43.8342
-40.7137
-34.8669
-32.5105
-34.09
-36.1477
-39.1315
-41.297
-45.2484
-42.8653
-38.0346
-35.0984
-36.0114
-41.0971
-45.4442
-47.2784
-47.6471
-46.8201
-46.8642
-49.0165
-52.1176
-54.4744
-50.1871
-46.2787
-41.6928
-39.8309
-42.1954
-45.4558
-47.783
-48.8042
-49.6788
-50.7017
-52.2048
-51.7414
-52.6845
-52.2548
-51.478
-51.2706
-51.9909
-52.778
-52.9954
-51.7279
-49.95
-48.8107
-50.9488
-50.4852
-50.2547
-51.3063
-52.0383
-52.2187
-52.593
-53.1861
-54.0951
-55.0464
-55.1521
-54.9887
-54.8325
-54.5696
-54.1317
-53.3091
-52.3379
-51.8142
-51.7136
-52.4611
-53.7115
-56.2144
-58.7854
-60.422
-60.6491
-60.4835
-59.9896
-59.9164
-59.6547
-58.3596
-57.2133
-56.5287
-57.2308
-58.592
-60.172
-61.6811
-63.053
-64.1304
-64.9618
-65.4119
-65.2885
-65.3423
-65.4053
-65.8845
-66.2267
-66.2588
-66.398
-66.1654
-65.5996
-65.5628
-66.0707
-66.9784
-67.9072
-43.3924
-43.8846
-42.93
-39.4779
-34.9359
-31.767
-32.7827
-39.6497
-41.8585
-41.3884
-41.3932
-42.5799
-43.0161
-42.9813
-43.6182
-44.6361
-44.9102
-43.5244
-42.9625
-45.0094
-47.1548
-48.8799
-48.6704
-46.7166
-45.3759
-45.4315
-48.2501
-50.7713
-51.0072
-50.7733
-48.611
-46.9556
-47.9383
-48.8567
-50.0943
-51.3531
-51.856
-52.2665
-52.8768
-53.5565
-54.3596
-54.7036
-54.3563
-53.9603
-54.0216
-54.8232
-55.5423
-56.1327
-54.852
-53.319
-52.2363
-52.0924
-51.7128
-51.9332
-52.6954
-53.4699
-54.2169
-54.841
-55.3897
-55.6694
-55.5106
-54.9779
-55.1097
-55.791
-56.21
-56.3641
-56.6485
-56.9551
-56.9524
-57.0304
-57.4105
-58.2061
-59.5703
-61.0066
-61.8993
-62.3627
-62.2061
-61.869
-61.533
-61.1518
-60.6491
-60.2148
-60.5129
-61.3447
-62.2329
-63.1719
-64.2259
-65.1826
-65.9374
-66.3992
-66.6034
-66.3606
-66.0065
-65.9529
-66.1375
-66.5317
-67.2895
-67.949
-68.3383
-68.6957
-69.208
-69.7003
-70.2321
-70.7776
-42.0726
-43.4759
-44.2463
-43.341
-42.4402
-43.83
-45.2394
-45.985
-44.997
-42.9678
-42.1808
-42.7357
-44.0341
-45.2758
-46.6676
-47.6584
-47.4259
-46.4216
-45.7639
-45.828
-47.9618
-50.0073
-50.9375
-51.6125
-52.0564
-52.6101
-53.5054
-54.3348
-54.1768
-52.9319
-51.0557
-49.4161
-48.7905
-49.7229
-51.5602
-53.1793
-54.3911
-55.5336
-56.5198
-57.2463
-57.6971
-57.6464
-57.3389
-56.9145
-56.7445
-57.0099
-57.3373
-57.6147
-56.7019
-55.8916
-55.1731
-54.6332
-54.9562
-55.5119
-55.729
-55.8923
-56.3
-56.8931
-57.5731
-58.193
-58.6662
-59.0055
-58.7905
-58.6034
-58.5481
-58.4282
-58.2676
-58.1068
-58.0133
-58.2808
-58.9724
-59.9614
-61.2273
-62.5323
-63.3471
-63.8496
-63.9444
-63.8344
-63.5814
-63.1744
-62.7136
-62.392
-62.3752
-62.9499
-63.8146
-65.0025
-66.1486
-67.0773
-67.8054
-68.4063
-68.7837
-68.9263
-69.0968
-69.3583
-69.6474
-69.9049
-70.0533
-70.2171
-70.3731
-70.4739
-70.8249
-71.4026
-72.124
-72.9402
-47.9553
-48.1938
-46.8956
-45.1124
-43.4226
-41.8727
-43.4581
-45.4377
-46.645
-47.2213
-47.591
-47.9174
-48.1387
-48.4296
-49.0862
-49.6417
-49.8674
-49.8728
-49.9841
-50.4675
-51.2542
-52.0793
-52.3288
-52.3545
-52.4917
-53.0817
-54.1303
-54.8725
-55.0249
-54.746
-53.922
-53.6388
-53.8203
-54.2856
-55.0627
-55.9981
-56.897
-57.6842
-58.3626
-58.9295
-59.2864
-59.4642
-59.3423
-59.1233
-59.0863
-59.3179
-59.648
-59.6885
-58.9623
-58.3511
-57.6463
-57.2413
-57.1795
-57.2248
-57.4695
-58.0706
-58.5876
-59.1462
-59.6379
-59.9787
-60.1585
-60.3031
-60.5953
-60.7913
-61.0085
-61.2042
-61.3321
-61.4323
-61.56
-61.8046
-62.2652
-62.9569
-63.7904
-64.5898
-65.1832
-65.6013
-65.7209
-65.6602
-65.542
-65.3601
-65.2118
-65.3085
-65.5805
-66.1442
-66.7928
-67.5761
-68.361
-69.0355
-69.6277
-70.118
-70.3895
-70.4807
-70.5771
-70.7738
-71.0821
-71.5494
-72.0548
-72.4747
-72.8848
-73.2881
-73.7306
-74.1659
-74.7305
-75.374
-48.6809
-49.0855
-49.1417
-48.8024
-48.6361
-49.3514
-49.693
-49.8848
-49.5488
-49.1749
-49.1717
-49.5498
-50.2933
-51.057
-51.7492
-52.1806
-52.3391
-52.2726
-52.3416
-52.9039
-53.8268
-54.6873
-55.3989
-55.995
-56.4403
-56.8516
-57.3051
-57.447
-57.39
-56.8516
-56.1743
-55.6824
-55.8714
-56.5571
-57.5653
-58.5119
-59.3828
-60.1157
-60.6881
-61.1988
-61.4785
-61.5587
-61.5157
-61.4335
-61.4373
-61.5626
-61.7207
-61.6308
-61.2735
-60.7869
-60.2827
-59.9891
-60.0278
-60.2137
-60.392
-60.6242
-61.062
-61.5558
-62.0359
-62.4637
-62.7723
-62.8877
-62.974
-63.0592
-63.1303
-63.1578
-63.1911
-63.304
-63.5489
-63.9703
-64.536
-65.2123
-65.9495
-66.6163
-67.1666
-67.5406
-67.6993
-67.702
-67.6263
-67.4988
-67.3933
-67.4345
-67.718
-68.253
-68.9579
-69.7432
-70.4598
-71.1405
-71.7557
-72.2477
-72.5981
-72.8696
-73.1383
-73.4138
-73.6835
-73.95
-74.2723
-74.582
-74.9137
-75.3146
-75.8039
-76.3624
-77.0399
-77.74
-52.1445
-51.9377
-51.4888
-50.9197
-50.3756
-50.0445
-50.7886
-51.6015
-52.1805
-52.5685
-52.8536
-53.0852
-53.3285
-53.7425
-54.2001
-54.5848
-54.8534
-55.0457
-55.2914
-55.6816
-56.2174
-56.7691
-57.2262
-57.647
-58.0787
-58.5811
-59.0666
-59.3699
-59.456
-59.3229
-59.1486
-59.1071
-59.2341
-59.5693
-60.1972
-60.888
-61.566
-62.1878
-62.717
-63.1572
-63.4714
-63.673
-63.7535
-63.7832
-63.8383
-63.9061
-63.9169
-63.7871
-63.4795
-63.0721
-62.6647
-62.425
-62.3981
-62.4428
-62.66
-63.0172
-63.4077
-63.8328
-64.2162
-64.5336
-64.8205
-65.0624
-65.2367
-65.3947