/*--------------------------------*- C++ -*----------------------------------*\
| =========                 |                                                 |
| \\      /  F ield         | OpenFOAM: The Open Source CFD Toolbox           |
|  \\    /   O peration     | Version:  v1912                                 |
|   \\  /    A nd           | Website:  www.openfoam.com                      |
|    \\/     M anipulation  |                                                 |
\*---------------------------------------------------------------------------*/
FoamFile
{
    version     2.0;
    format      ascii;
    class       volScalarField;
    location    "40";
    object      p_rgh;
}
// * * * * * * * * * * * * * * * * * * * * * * * * * * * * * * * * * * * * * //

dimensions      [1 -1 -2 0 0 0 0];


internalField   nonuniform List<scalar> 
14268
(
1714.2
1976.84
2229.59
2471.25
2700.68
2916.8
3118.61
3305.21
3475.75
3629.47
3765.69
3883.85
3983.51
4064.3
4125.99
4168.44
4191.63
4195.68
4180.67
4147.16
4095.46
4026.01
3939.46
3836.53
3718.05
3584.91
3438.08
3278.61
3107.61
2926.22
2735.64
2537.13
2331.97
2121.42
1906.8
1689.37
1470.4
1251.12
1032.76
816.462
603.342
394.453
190.778
-6.75622
-197.299
-380.086
-554.424
-719.7
-875.384
-1021.02
-1156.25
-1280.79
-1394.41
-1496.98
-1588.41
-1668.7
-1737.92
-1796.17
-1843.63
-1880.51
-1907.08
-1923.64
-1930.52
-1928.02
-1916.69
-1896.89
-1869.04
-1833.62
-1791.07
-1741.88
-1686.51
-1625.43
-1559.14
-1488.09
-1412.77
-1333.63
-1251.15
-1165.77
-1077.93
-988.086
-896.651
-804.044
-710.667
-616.914
-523.163
-429.78
-337.118
-245.512
-155.287
-66.7469
19.8034
103.993
185.804
264.814
340.831
413.654
483.098
549
611.214
669.619
724.118
774.639
821.135
863.586
901.983
936.326
966.618
992.871
1015.11
1033.39
1047.78
1058.38
1065.29
1068.62
1068.49
1065.03
1058.35
1048.59
1035.88
1020.34
1002.12
981.336
958.138
932.753
905.423
876.615
846.755
816.353
785.54
754.412
722.928
691.127
659.104
626.983
1722.26
1984.91
2237.62
2479.21
2708.52
2924.48
3126.09
3312.45
3482.72
3636.12
3772
3889.79
3989.05
4069.42
4130.66
4172.65
4195.38
4198.91
4183.44
4149.42
4097.21
4027.25
3940.2
3836.79
3717.82
3584.22
3436.96
3277.07
3105.68
2923.93
2733.02
2534.21
2328.79
2118.03
1903.21
1685.6
1466.49
1247.11
1028.67
812.328
599.196
390.323
186.693
-10.7689
-201.218
-383.889
-558.093
-723.219
-878.738
-1024.2
-1159.24
-1283.59
-1397.01
-1499.37
-1590.6
-1670.69
-1739.7
-1797.76
-1845.02
-1881.71
-1908.11
-1924.48
-1931.19
-1928.53
-1917.05
-1897.1
-1869.12
-1833.57
-1790.91
-1741.61
-1686.14
-1624.98
-1558.61
-1487.5
-1412.11
-1332.93
-1250.39
-1164.98
-1077.11
-987.245
-895.793
-803.175
-709.794
-616.041
-522.296
-428.923
-336.275
-244.687
-154.483
-65.9679
20.5581
104.713
186.495
265.471
341.454
414.241
483.648
549.512
611.689
670.056
724.518
775.002
821.462
863.879
902.242
936.553
966.814
993.037
1015.25
1033.5
1047.87
1058.45
1065.34
1068.65
1068.51
1065.03
1058.33
1048.56
1035.85
1020.3
1002.07
981.283
958.082
932.695
905.364
876.558
846.701
816.302
785.494
754.371
722.892
691.096
659.078
626.963
1731.98
1994.91
2247.85
2489.6
2719.02
2935.02
3136.6
3322.88
3493
3646.19
3781.8
3899.27
3998.15
4078.1
4138.87
4180.34
4202.48
4205.4
4189.41
4154.72
4101.86
4031.23
3943.51
3839.43
3719.8
3585.54
3437.63
3277.13
3105.14
2922.82
2731.37
2532.06
2326.17
2114.99
1899.79
1681.85
1462.45
1242.83
1024.18
807.684
594.433
385.486
181.821
-15.6352
-206.045
-388.646
-562.748
-727.746
-883.114
-1028.41
-1163.26
-1287.4
-1400.61
-1502.74
-1593.74
-1673.59
-1742.37
-1800.18
-1847.21
-1883.67
-1909.82
-1925.99
-1932.48
-1929.62
-1917.94
-1897.81
-1869.66
-1833.94
-1791.13
-1741.69
-1686.09
-1624.81
-1558.33
-1487.12
-1411.64
-1332.38
-1249.78
-1164.3
-1076.39
-986.473
-894.987
-802.342
-708.94
-615.174
-521.422
-428.048
-335.404
-243.826
-153.636
-65.1395
21.371
105.489
187.25
266.195
342.144
414.896
484.267
550.093
612.231
670.56
724.982
775.427
821.848
864.227
902.554
936.83
967.059
993.252
1015.43
1033.65
1048
1058.54
1065.41
1068.7
1068.54
1065.04
1058.34
1048.55
1035.82
1020.27
1002.03
981.238
958.032
932.642
905.309
876.502
846.648
816.253
785.449
754.331
722.856
691.066
659.053
626.944
1743.39
2006.89
2260.31
2502.47
2732.2
2948.43
3150.17
3336.5
3506.6
3659.69
3795.11
3912.3
4010.83
4090.35
4150.62
4191.52
4213.01
4215.16
4198.65
4163.13
4109.44
4037.99
3949.42
3844.48
3723.99
3588.88
3440.13
3278.79
3106
2922.9
2730.7
2530.69
2324.14
2112.32
1896.56
1678.12
1458.27
1238.26
1019.29
802.516
589.049
379.939
176.163
-21.3537
-211.78
-394.352
-568.387
-733.28
-888.511
-1033.64
-1168.3
-1292.22
-1405.2
-1507.09
-1597.82
-1677.41
-1745.91
-1803.46
-1850.21
-1886.4
-1912.29
-1928.19
-1934.42
-1931.31
-1919.39
-1899.03
-1870.66
-1834.74
-1791.74
-1742.12
-1686.35
-1624.92
-1558.29
-1486.95
-1411.36
-1331.99
-1249.3
-1163.74
-1075.75
-985.775
-894.235
-801.546
-708.109
-614.316
-520.543
-427.157
-334.507
-242.93
-152.747
-64.2621
22.2225
106.342
188.069
266.985
342.902
415.62
484.955
550.743
612.841
671.129
725.509
775.913
822.292
864.63
902.917
937.155
967.346
993.502
1015.65
1033.84
1048.15
1058.67
1065.51
1068.78
1068.6
1065.08
1058.35
1048.55
1035.81
1020.25
1002
981.199
957.987
932.592
905.256
876.448
846.595
816.203
785.403
754.291
722.821
691.036
659.028
626.924
1756.52
2020.86
2275.03
2517.82
2748.09
2964.76
3166.81
3353.36
3523.56
3676.64
3811.94
3928.91
4027.11
4106.2
4165.95
4206.24
4227.06
4228.36
4211.06
4174.63
4119.98
4047.53
3957.93
3851.94
3730.4
3594.22
3444.4
3282.03
3108.21
2924.12
2730.98
2530.06
2322.65
2110.05
1893.54
1674.43
1453.98
1233.44
1014.01
796.841
583.051
373.685
169.717
-27.9283
-218.425
-401.013
-575.013
-739.824
-894.931
-1039.89
-1174.36
-1298.06
-1410.79
-1512.4
-1602.86
-1682.14
-1750.34
-1807.57
-1854.01
-1889.88
-1915.46
-1931.05
-1936.98
-1933.58
-1921.38
-1900.75
-1872.12
-1835.96
-1792.73
-1742.89
-1686.92
-1625.3
-1558.51
-1487.01
-1411.27
-1331.77
-1248.95
-1163.29
-1075.2
-985.147
-893.536
-800.785
-707.298
-613.463
-519.659
-426.249
-333.583
-241.998
-151.813
-63.3349
23.1313
107.253
188.952
267.841
343.728
416.412
485.711
551.461
613.518
671.763
726.101
776.459
822.794
865.088
903.333
937.529
967.682
993.8
1015.91
1034.06
1048.34
1058.83
1065.64
1068.88
1068.67
1065.13
1058.39
1048.57
1035.82
1020.24
1001.98
981.168
957.948
932.547
905.206
876.396
846.544
816.154
785.359
754.251
722.785
691.005
659.003
626.904
1771.39
2036.84
2292.02
2535.7
2766.72
2984.01
3186.56
3373.47
3543.9
3697.06
3832.31
3949.1
4046.99
4125.65
4184.85
4224.47
4244.53
4244.98
4226.62
4189.21
4133.46
4059.85
3969.04
3861.81
3739.01
3601.56
3450.48
3286.84
3111.8
2926.51
2732.2
2530.18
2321.72
2108.14
1890.72
1670.77
1449.57
1228.35
1008.32
790.644
576.426
366.711
162.472
-35.3683
-225.991
-408.637
-582.633
-747.385
-902.38
-1047.18
-1181.45
-1304.91
-1417.38
-1518.7
-1608.84
-1687.8
-1755.65
-1812.53
-1858.61
-1894.13
-1919.36
-1934.6
-1940.17
-1936.44
-1923.91
-1902.97
-1874.05
-1837.6
-1794.1
-1744.01
-1687.8
-1625.96
-1558.96
-1487.27
-1411.37
-1331.7
-1248.74
-1162.95
-1074.75
-984.59
-892.889
-800.06
-706.506
-612.616
-518.767
-425.322
-332.631
-241.029
-150.836
-62.3577
24.0977
108.222
189.898
268.763
344.622
417.274
486.537
552.247
614.263
672.464
726.755
777.067
823.354
865.601
903.8
937.952
968.062
994.138
1016.21
1034.32
1048.56
1059.01
1065.79
1069
1068.77
1065.21
1058.44
1048.6
1035.83
1020.23
1001.97
981.143
957.914
932.505
905.159
876.345
846.494
816.106
785.314
754.211
722.75
690.975
658.978
626.885
1788.03
2054.88
2311.32
2556.12
2788.12
3006.23
3209.45
3396.87
3567.64
3720.99
3856.26
3972.92
4070.52
4148.73
4207.35
4246.26
4265.47
4264.94
4245.46
4206.9
4149.89
4074.95
3982.76
3874.09
3749.83
3610.9
3458.34
3293.24
3116.75
2930.04
2734.37
2531.04
2321.34
2106.58
1888.08
1667.13
1445.01
1222.97
1002.22
783.912
569.163
359.007
154.419
-43.6827
-234.483
-417.23
-591.255
-755.968
-910.863
-1055.51
-1189.58
-1312.79
-1424.97
-1525.98
-1615.77
-1694.37
-1761.84
-1818.33
-1864.02
-1899.14
-1923.97
-1938.82
-1943.99
-1939.88
-1926.99
-1905.69
-1876.43
-1839.67
-1795.86
-1745.47
-1689
-1626.9
-1559.66
-1487.76
-1411.64
-1331.8
-1248.67
-1162.72
-1074.39
-984.102
-892.293
-799.37
-705.734
-611.775
-517.869
-424.378
-331.651
-240.024
-149.815
-61.33
25.1216
109.251
190.909
269.751
345.584
418.204
487.432
553.102
615.075
673.231
727.474
777.736
823.972
866.169
904.319
938.424
968.487
994.519
1016.55
1034.62
1048.82
1059.23
1065.97
1069.15
1068.89
1065.3
1058.51
1048.65
1035.85
1020.24
1001.96
981.126
957.886
932.468
905.115
876.296
846.444
816.058
785.27
754.171
722.715
690.945
658.953
626.865
1806.46
2075
2332.96
2579.12
2812.32
3031.44
3235.5
3423.58
3594.81
3748.44
3883.81
4000.38
4097.71
4175.47
4233.48
4271.61
4289.89
4288.27
4267.57
4227.7
4169.28
4092.83
3999.07
3888.79
3762.86
3622.24
3467.99
3301.2
3123.05
2934.72
2737.48
2532.63
2321.49
2105.38
1885.6
1663.48
1440.29
1217.29
995.681
776.634
561.248
350.563
145.548
-52.8815
-243.913
-426.802
-600.885
-765.581
-920.388
-1064.89
-1198.74
-1321.69
-1433.56
-1534.23
-1623.66
-1701.86
-1768.92
-1824.98
-1870.23
-1904.91
-1929.31
-1943.72
-1948.43
-1943.91
-1930.61
-1908.92
-1879.28
-1842.15
-1797.99
-1747.28
-1690.5
-1628.11
-1560.61
-1488.45
-1412.11
-1332.05
-1248.73
-1162.6
-1074.11
-983.684
-891.748
-798.713
-704.981
-610.939
-516.963
-423.415
-330.643
-238.982
-148.749
-60.2514
26.2029
110.339
191.983
270.806
346.614
419.204
488.396
554.026
615.955
674.063
728.256
778.466
824.649
866.792
904.891
938.945
968.96
994.944
1016.92
1034.95
1049.1
1059.47
1066.18
1069.32
1069.03
1065.4
1058.59
1048.7
1035.89
1020.26
1001.96
981.116
957.863
932.435
905.074
876.248
846.396
816.01
785.226
754.131
722.68
690.915
658.928
626.845
1826.72
2097.22
2356.97
2604.74
2839.34
3059.69
3264.76
3453.63
3625.46
3779.47
3915
4031.52
4128.59
4205.9
4263.26
4300.56
4317.82
4315.01
4292.96
4251.64
4191.64
4113.52
4018
3905.89
3778.09
3635.58
3479.42
3310.73
3130.7
2940.53
2741.5
2534.94
2322.16
2104.5
1883.28
1659.81
1435.4
1211.29
988.701
768.794
552.67
341.365
135.844
-62.9762
-254.29
-437.361
-611.533
-776.231
-930.96
-1075.31
-1208.94
-1331.63
-1443.17
-1543.48
-1632.5
-1710.27
-1776.88
-1832.48
-1877.25
-1911.45
-1935.36
-1949.3
-1953.51
-1948.53
-1934.78
-1912.65
-1882.58
-1845.05
-1800.51
-1749.43
-1692.31
-1629.6
-1561.79
-1489.36
-1412.76
-1332.46
-1248.92
-1162.59
-1073.92
-983.334
-891.253
-798.091
-704.246
-610.108
-516.05
-422.434
-329.607
-237.902
-147.638
-59.1216
27.3415
111.487
193.122
271.928
347.712
420.273
489.429
555.019
616.903
674.962
729.102
779.257
825.384
867.471
905.514
939.515
969.477
995.409
1017.34
1035.31
1049.42
1059.75
1066.41
1069.52
1069.18
1065.53
1058.69
1048.78
1035.94
1020.29
1001.98
981.112
957.846
932.406
905.035
876.203
846.348
815.963
785.182
754.092
722.645
690.884
658.903
626.826
1848.84
2121.58
2383.38
2633
2869.24
3091
3297.25
3487.08
3659.63
3814.1
3949.87
4066.38
4163.2
4240.04
4296.72
4333.14
4349.28
4345.17
4321.65
4278.73
4216.99
4137.02
4039.55
3925.42
3795.54
3650.92
3492.63
3321.82
3139.69
2947.47
2746.44
2537.95
2323.34
2103.94
1881.09
1656.12
1430.32
1204.96
981.261
760.377
543.412
331.4
125.295
-73.9791
-265.626
-448.919
-623.209
-787.927
-942.588
-1086.78
-1220.2
-1342.59
-1453.8
-1553.71
-1642.3
-1719.61
-1785.73
-1840.82
-1885.08
-1918.75
-1942.14
-1955.56
-1959.2
-1953.73
-1939.48
-1916.87
-1886.34
-1848.36
-1803.4
-1751.93
-1694.42
-1631.36
-1563.22
-1490.48
-1413.59
-1333.03
-1249.25
-1162.7
-1073.82
-983.052
-890.808
-797.501
-703.53
-609.281
-515.128
-421.433
-328.541
-236.785
-146.483
-57.9403
28.5376
112.695
194.325
273.117
348.879
421.411
490.532
556.082
617.919
675.927
730.013
780.11
826.177
868.204
906.189
940.134
970.04
995.918
1017.79
1035.72
1049.77
1060.05
1066.67
1069.73
1069.36
1065.67
1058.8
1048.86
1036
1020.33
1002
981.116
957.835
932.381
904.999
876.158
846.302
815.916
785.139
754.053
722.611
690.854
658.878
626.806
1872.84
2148.11
2412.24
2663.95
2902.05
3125.42
3333.03
3523.96
3697.34
3852.39
3988.45
4104.99
4201.59
4277.94
4333.89
4369.39
4384.31
4378.79
4353.66
4309
4245.35
4163.35
4063.74
3947.38
3815.21
3668.26
3507.62
3334.47
3150.02
2955.52
2752.28
2541.66
2325.01
2103.68
1879.02
1652.37
1425.04
1198.29
973.343
751.367
533.461
320.651
113.886
-85.9037
-277.934
-461.487
-635.922
-800.68
-955.28
-1099.33
-1232.51
-1354.6
-1465.44
-1564.94
-1653.06
-1729.87
-1795.47
-1850.02
-1893.71
-1926.82
-1949.63
-1962.51
-1965.52
-1959.52
-1944.73
-1921.6
-1890.56
-1852.1
-1806.67
-1754.77
-1696.85
-1633.4
-1564.89
-1491.81
-1414.61
-1333.75
-1249.7
-1162.91
-1073.81
-982.838
-890.413
-796.944
-702.83
-608.457
-514.198
-420.412
-327.445
-235.63
-145.282
-56.7072
29.7913
113.964
195.592
274.373
350.115
422.619
491.705
557.213
619.003
676.958
730.987
781.024
827.028
868.993
906.916
940.801
970.651
996.47
1018.29
1036.15
1050.16
1060.39
1066.96
1069.97
1069.56
1065.84
1058.93
1048.96
1036.07
1020.38
1002.02
981.127
957.829
932.361
904.966
876.116
846.256
815.87
785.096
754.014
722.576
690.824
658.853
626.786
1898.75
2176.86
2443.57
2697.62
2937.8
3162.99
3372.14
3564.32
3738.66
3894.37
4030.8
4147.41
4243.78
4319.63
4374.82
4409.36
4422.93
4415.9
4389.02
4342.46
4276.74
4192.52
4090.57
3971.78
3837.1
3687.6
3524.39
3348.67
3161.68
2964.68
2759.01
2546.05
2327.15
2103.7
1877.06
1648.56
1419.53
1191.25
964.93
741.747
522.798
309.105
101.601
-98.7646
-291.226
-475.077
-649.685
-814.498
-969.046
-1112.94
-1245.89
-1367.66
-1478.11
-1577.16
-1664.8
-1741.07
-1806.11
-1860.06
-1903.16
-1935.65
-1957.84
-1970.11
-1972.49
-1965.9
-1950.53
-1926.82
-1895.24
-1856.25
-1810.33
-1757.94
-1699.58
-1635.7
-1566.8
-1493.35
-1415.8
-1334.63
-1250.29
-1163.23
-1073.88
-982.69
-890.066
-796.419
-702.148
-607.637
-513.259
-419.371
-326.32
-234.436
-144.035
-55.4219
31.1026
115.295
196.925
275.696
351.42
423.897
492.948
558.414
620.155
678.056
732.025
781.999
827.938
869.837
907.696
941.518
971.304
997.064
1018.82
1036.63
1050.57
1060.75
1067.27
1070.24
1069.78
1066.02
1059.07
1049.07
1036.16
1020.44
1002.06
981.144
957.829
932.345
904.936
876.074
846.211
815.824
785.053
753.975
722.541
690.794
658.828
626.767
1926.62
2207.84
2477.42
2734.06
2976.56
3203.76
3414.62
3608.21
3783.63
3940.1
4076.96
4193.68
4289.84
4365.16
4419.53
4453.1
4465.17
4456.55
4427.74
4379.14
4311.18
4224.55
4120.06
3998.62
3861.23
3708.95
3542.94
3364.42
3174.66
2974.94
2766.62
2551.1
2329.77
2104
1875.18
1644.67
1413.79
1183.82
956.003
731.498
511.407
296.745
88.4213
-112.578
-305.517
-489.703
-664.51
-829.394
-983.896
-1127.64
-1260.33
-1381.77
-1491.82
-1590.39
-1677.5
-1753.21
-1817.64
-1870.97
-1913.41
-1945.25
-1966.78
-1978.36
-1980.12
-1972.87
-1956.86
-1932.54
-1900.37
-1860.82
-1814.36
-1761.46
-1702.61
-1638.28
-1568.95
-1495.1
-1417.18
-1335.66
-1251
-1163.65
-1074.04
-982.609
-889.767
-795.926
-701.482
-606.819
-512.31
-418.31
-325.165
-233.204
-142.742
-54.0841
32.4717
116.687
198.322
277.087
352.794
425.245
494.261
559.684
621.375
679.221
733.128
783.036
828.906
870.736
908.527
942.284
972.007
997.703
1019.4
1037.14
1051.02
1061.14
1067.61
1070.53
1070.03
1066.22
1059.24
1049.2
1036.25
1020.51
1002.11
981.169
957.834
932.332
904.909
876.035
846.168
815.778
785.011
753.937
722.507
690.764
658.803
626.747
1956.49
2241.12
2513.83
2773.32
3018.36
3247.78
3460.53
3655.67
3832.3
3989.63
4126.99
4243.86
4339.81
4414.58
4468.05
4500.81
4511.04
4500.77
4469.9
4419.09
4348.71
4259.47
4152.24
4027.94
3887.59
3732.31
3563.27
3381.72
3188.95
2986.29
2775.1
2556.81
2332.82
2104.54
1873.37
1640.67
1407.78
1175.99
946.537
720.597
499.265
283.555
74.3262
-127.36
-320.822
-505.377
-680.408
-845.379
-999.841
-1143.43
-1275.86
-1396.94
-1506.56
-1604.63
-1691.18
-1766.28
-1830.07
-1882.73
-1924.48
-1955.61
-1976.43
-1987.29
-1988.37
-1980.42
-1963.73
-1938.76
-1905.96
-1865.8
-1818.76
-1765.32
-1705.95
-1641.13
-1571.34
-1497.06
-1418.74
-1336.85
-1251.85
-1164.18
-1074.29
-982.593
-889.515
-795.463
-700.831
-606.003
-511.35
-417.228
-323.979
-231.932
-141.403
-52.6936
33.8989
118.141
199.785
278.545
354.237
426.662
495.644
561.024
622.664
680.451
734.295
784.135
829.933
871.69
909.41
943.097
972.752
998.38
1020.01
1037.68
1051.5
1061.56
1067.97
1070.84
1070.29
1066.43
1059.41
1049.34
1036.36
1020.59
1002.16
981.201
957.845
932.324
904.885
875.997
846.125
815.733
784.968
753.899
722.473
690.735
658.778
626.727
1981.24
2268.8
2544.22
2806.19
3053.45
3284.86
3499.32
3695.9
3873.67
4031.85
4169.77
4286.88
4382.79
4457.2
4509.94
4540.39
4550.84
4539.34
4506.83
4454.18
4381.76
4290.32
4180.75
4054
3911.1
3753.21
3581.51
3397.29
3201.86
2996.56
2782.8
2562
2335.6
2105.02
1871.67
1636.93
1402.15
1168.63
937.625
710.295
487.747
271.001
60.8382
-141.557
-335.584
-520.563
-695.881
-861.009
-1015.5
-1159.01
-1291.26
-1412.07
-1521.33
-1618.97
-1705.03
-1779.59
-1842.79
-1894.83
-1935.95
-1966.41
-1986.55
-1996.71
-1997.12
-1988.47
-1971.11
-1945.48
-1912.03
-1871.25
-1823.61
-1769.58
-1709.66
-1644.32
-1574.03
-1499.27
-1420.5
-1338.2
-1252.8
-1164.77
-1074.53
-982.516
-889.147
-794.828
-699.953
-604.906
-510.056
-415.759
-322.357
-230.178
-139.536
-50.7331
35.9346
120.241
201.924
280.708
356.408
428.827
497.788
563.134
624.728
682.457
736.23
785.99
831.7
873.365
910.993
944.588
974.15
999.682
1021.2
1038.77
1052.49
1062.44
1068.74
1071.51
1070.87
1066.92
1059.81
1049.65
1036.59
1020.73
1002.22
981.19
957.754
932.149
904.625
875.653
845.723
815.275
784.467
753.353
721.863
690.042
657.967
625.738
1999.12
2288.93
2566.46
2830.39
3079.45
3312.48
3528.39
3726.21
3905.02
4064.03
4202.55
4320.04
4416.1
4490.42
4542.82
4572.96
4582.44
4570.12
4536.47
4482.5
4408.59
4315.53
4204.2
4075.57
3930.7
3770.75
3596.94
3410.57
3212.97
3005.51
2789.6
2566.69
2338.24
2105.67
1870.42
1633.88
1397.42
1162.33
929.883
701.252
477.54
259.781
48.6893
-154.446
-349.085
-534.557
-710.245
-875.625
-1030.26
-1173.8
-1305.99
-1426.64
-1535.66
-1632.99
-1718.67
-1792.8
-1855.52
-1907.04
-1947.6
-1977.49
-1997.01
-2006.54
-2006.32
-1997.03
-1979.03
-1952.76
-1918.69
-1877.3
-1829.06
-1774.45
-1713.96
-1648.07
-1577.25
-1501.99
-1422.74
-1339.97
-1254.14
-1165.69
-1075.06
-982.677
-888.961
-794.318
-699.142
-603.817
-508.711
-414.181
-320.567
-228.198
-137.387
-48.4367
38.3598
122.779
204.55
283.401
359.148
431.596
500.569
565.908
627.479
685.166
738.881
788.567
834.19
875.76
913.29
946.787
976.247
1001.67
1023.07
1040.52
1054.1
1063.92
1070.09
1072.73
1071.96
1067.89
1060.66
1050.39
1037.22
1021.26
1002.65
981.513
957.967
932.242
904.591
875.486
845.485
814.967
784.14
753.012
721.508
689.673
657.581
625.333
2017.61
2309.77
2589.5
2855.48
3106.43
3341.17
3558.59
3757.72
3937.64
4097.52
4236.7
4354.6
4450.83
4525.08
4577.17
4606.93
4615.45
4602.31
4567.47
4512.13
4436.69
4341.94
4228.77
4098.19
3951.26
3789.17
3613.16
3424.55
3224.69
3014.96
2796.8
2571.69
2341.08
2106.43
1869.18
1630.75
1392.51
1155.78
921.816
691.812
466.874
248.014
36.0052
-167.949
-363.238
-549.238
-725.325
-890.98
-1045.77
-1189.36
-1321.49
-1441.99
-1550.77
-1647.78
-1733.08
-1806.76
-1868.99
-1919.97
-1959.96
-1989.24
-2008.13
-2017
-2016.12
-2006.16
-1987.49
-1960.56
-1925.83
-1883.79
-1834.92
-1779.7
-1718.61
-1652.14
-1580.77
-1504.98
-1425.21
-1341.96
-1255.66
-1166.76
-1075.71
-982.936
-888.847
-793.856
-698.355
-602.728
-507.344
-412.558
-318.712
-226.132
-135.133
-46.0171
40.9258
125.472
207.347
286.278
362.086
434.576
503.57
568.913
630.467
688.119
741.78
791.394
836.93
878.405
915.838
949.238
978.597
1003.9
1025.18
1042.5
1055.95
1065.62
1071.66
1074.17
1073.26
1069.07
1061.7
1051.31
1038.02
1021.95
1003.22
981.983
958.313
932.451
904.645
875.374
845.289
814.676
783.829
752.692
721.168
689.307
657.192
624.925
2036.71
2331.32
2613.36
2881.48
3134.41
3370.93
3589.94
3790.46
3971.54
4132.35
4272.22
4390.57
4487
4561.19
4612.98
4642.29
4649.87
4635.93
4599.85
4543.07
4466.04
4369.54
4254.48
4121.86
3972.8
3808.48
3630.17
3439.22
3236.99
3024.9
2804.4
2576.97
2344.11
2107.28
1867.95
1627.54
1387.44
1148.97
913.416
681.968
455.738
235.721
22.7429
-182.079
-378.055
-564.618
-741.134
-907.088
-1062.06
-1205.7
-1337.78
-1458.13
-1566.66
-1663.35
-1748.25
-1821.48
-1883.19
-1933.62
-1973.01
-2001.67
-2019.91
-2028.07
-2026.51
-2015.85
-1996.48
-1968.86
-1933.44
-1890.73
-1841.19
-1785.33
-1723.62
-1656.54
-1584.59
-1508.22
-1427.92
-1344.14
-1257.35
-1167.99
-1076.49
-983.292
-888.805
-793.44
-697.589
-601.637
-505.952
-410.89
-316.79
-223.98
-132.774
-43.473
43.6339
128.323
210.317
289.343
365.225
437.767
506.794
572.149
633.694
691.317
744.927
794.472
839.92
881.299
918.636
951.939
981.198
1006.39
1027.55
1044.73
1058.03
1067.56
1073.45
1075.81
1074.77
1070.43
1062.93
1052.41
1039
1022.8
1003.95
982.602
958.793
932.774
904.788
875.312
845.12
814.417
783.535
752.386
720.842
688.953
656.811
624.522
2056.43
2353.59
2638.03
2908.4
3163.38
3401.77
3622.46
3824.43
4006.73
4168.53
4309.13
4427.97
4524.61
4598.77
4650.27
4679.06
4685.68
4671.01
4633.59
4575.34
4496.66
4398.34
4281.31
4146.59
3995.3
3828.66
3647.96
3454.57
3249.89
3035.33
2812.38
2582.54
2347.32
2108.22
1866.7
1624.22
1382.17
1141.89
904.669
671.706
444.12
222.893
8.88605
-196.852
-393.545
-580.708
-757.681
-923.956
-1079.12
-1222.83
-1354.86
-1475.06
-1583.35
-1679.71
-1764.2
-1836.96
-1898.14
-1947.99
-1986.77
-2014.78
-2032.35
-2039.76
-2037.49
-2026.11
-2006.01
-1977.66
-1941.53
-1898.11
-1847.88
-1791.34
-1728.97
-1661.26
-1588.69
-1511.73
-1430.86
-1346.54
-1259.22
-1169.36
-1077.39
-983.743
-888.833
-793.069
-696.845
-600.545
-504.536
-409.175
-314.801
-221.741
-130.308
-40.8034
46.4853
131.333
213.461
292.597
368.564
441.171
510.24
575.616
637.161
694.76
748.323
797.801
843.162
884.443
921.683
954.891
984.051
1009.13
1030.16
1047.19
1060.34
1069.72
1075.46
1077.67
1076.48
1072
1064.35
1053.69
1040.15
1023.82
1004.84
983.364
959.407
933.214
905.018
875.3
844.972
814.193
783.268
752.105
720.532
688.609
656.427
624.089
2076.78
2376.6
2663.54
2936.24
3193.37
3433.72
3656.15
3859.64
4043.23
4206.07
4347.45
4466.8
4563.7
4637.83
4689.04
4717.3
4722.87
4707.58
4668.73
4608.94
4528.56
4428.36
4309.29
4172.37
4018.77
3849.72
3666.55
3470.62
3263.37
3046.25
2820.74
2588.39
2350.72
2109.24
1865.44
1620.79
1376.7
1134.53
895.561
661.014
432.007
209.521
-5.58785
-212.27
-409.717
-597.517
-774.976
-941.594
-1096.96
-1240.76
-1372.75
-1492.8
-1600.84
-1696.86
-1780.94
-1853.2
-1913.84
-1963.1
-2001.24
-2028.58
-2045.46
-2052.07
-2049.07
-2036.94
-2016.08
-1986.97
-1950.09
-1905.93
-1854.98
-1797.73
-1734.68
-1666.3
-1593.08
-1515.5
-1434.03
-1349.13
-1261.27
-1170.88
-1078.41
-984.289
-888.929
-792.742
-696.12
-599.448
-503.093
-407.412
-312.743
-219.412
-127.733
-38.0068
49.4814
134.503
216.78
296.04
372.106
444.788
513.911
579.318
640.87
698.451
751.971
801.383
846.655
887.836
924.979
958.095
987.156
1012.12
1033.02
1049.91
1062.89
1072.11
1077.69
1079.74
1078.39
1073.76
1065.96
1055.16
1041.47
1025.01
1005.89
984.268
960.157
933.772
905.335
875.335
844.823
813.975
783.008
751.835
720.238
688.276
656.055
623.675
2097.76
2400.34
2689.88
2965.01
3224.39
3466.77
3691.03
3896.12
4081.06
4244.98
4387.19
4507.09
4604.26
4678.39
4729.31
4757.01
4761.39
4745.71
4705.25
4643.89
4561.75
4459.6
4338.41
4199.23
4043.23
3871.68
3685.92
3487.35
3277.44
3057.65
2829.49
2594.52
2354.29
2110.33
1864.16
1617.25
1371.03
1126.87
886.084
649.88
419.388
195.586
-20.6818
-228.334
-426.588
-615.058
-793.028
-960.011
-1115.6
-1259.49
-1391.45
-1511.35
-1619.14
-1714.81
-1798.45
-1870.21
-1930.29
-1978.93
-2016.41
-2043.06
-2059.22
-2065.01
-2061.25
-2048.33
-2026.68
-1996.79
-1959.13
-1914.2
-1862.49
-1804.51
-1740.73
-1671.66
-1597.77
-1519.53
-1437.43
-1351.93
-1263.49
-1172.55
-1079.55
-984.927
-889.093
-792.456
-695.413
-598.345
-501.622
-405.599
-310.614
-216.993
-125.048
-35.0816
52.6232
137.836
220.277
299.674
375.852
448.622
517.808
583.254
644.821
702.39
755.87
805.218
850.4
891.479
928.525
961.549
990.515
1015.37
1036.12
1052.86
1065.67
1074.72
1080.14
1082.03
1080.51
1075.72
1067.76
1056.8
1042.96
1026.36
1007.1
985.321
961.046
934.451
905.742
875.423
844.753
813.801
782.785
751.593
719.961
687.952
655.676
623.242
2120.5
2426.09
2718.48
2996.26
3258.1
3502.73
3729
3935.85
4122.28
4287.42
4430.55
4551.08
4648.57
4722.72
4773.36
4800.48
4803.88
4787.13
4745.23
4682.18
4598.13
4493.87
4370.37
4228.71
4070.09
3895.8
3707.21
3505.76
3292.93
3070.2
2839.13
2601.28
2358.23
2111.54
1862.75
1613.35
1364.79
1118.44
875.638
637.602
405.466
180.206
-37.3428
-246.077
-445.234
-634.448
-812.995
-980.391
-1136.24
-1280.24
-1412.17
-1531.91
-1639.43
-1734.72
-1817.9
-1889.11
-1948.57
-1996.54
-2033.3
-2059.2
-2074.61
-2079.43
-2074.84
-2061.06
-2038.54
-2007.78
-1969.25
-1923.47
-1870.93
-1812.13
-1747.56
-1677.71
-1603.06
-1524.1
-1441.3
-1355.13
-1266.04
-1174.48
-1080.89
-985.703
-889.334
-792.192
-694.672
-597.157
-500.015
-403.603
-308.258
-214.304
-122.054
-31.8101
56.1467
141.581
224.215
303.774
380.086
452.963
522.229
587.729
649.32
706.884
760.326
809.606
854.692
895.657
932.6
965.53
994.396
1019.12
1039.73
1056.29
1068.91
1077.77
1083
1084.71
1083
1078.04
1069.89
1058.75
1044.75
1027.99
1008.57
986.615
962.152
935.31
906.254
875.497
844.56
813.559
782.523
751.337
719.678
687.613
655.283
622.782
2145.11
2454
2749.5
3030.2
3294.74
3541.84
3770.32
3979.12
4167.21
4333.7
4477.87
4599.12
4696.98
4771.18
4821.54
4848.08
4850.76
4832.13
4789
4724.15
4638.03
4531.47
4405.45
4261.09
4099.6
3922.32
3730.63
3526.01
3309.97
3084.03
2849.75
2608.74
2362.59
2112.9
1861.22
1609.07
1357.91
1109.15
864.122
624.06
390.107
163.23
-55.7344
-265.672
-465.839
-655.884
-835.077
-1002.94
-1159.08
-1303.21
-1435.12
-1554.71
-1661.93
-1756.82
-1839.49
-1910.1
-1968.89
-2016.13
-2052.1
-2077.17
-2091.72
-2095.48
-2090.02
-2075.28
-2051.8
-2020.08
-1980.6
-1933.88
-1880.41
-1820.7
-1755.25
-1684.54
-1609.06
-1529.29
-1445.71
-1358.78
-1268.97
-1176.72
-1082.47
-986.646
-889.676
-791.964
-693.906
-595.884
-498.267
-401.412
-305.657
-211.322
-118.721
-28.1566
60.0928
145.786
228.644
308.397
384.869
457.876
527.243
592.812
654.442
712.009
765.416
814.627
859.607
900.445
937.278
970.114
998.88
1023.47
1043.92
1060.29
1072.73
1081.34
1086.36
1087.86
1085.94
1080.78
1072.43
1061.09
1046.9
1029.96
1010.36
988.202
963.538
936.424
906.993
875.795
844.636
813.421
782.316
751.11
719.398
687.263
654.843
622.268
2170.51
2482.84
2781.58
3065.32
3332.67
3582.34
3813.14
4023.98
4213.81
4381.73
4526.99
4648.99
4747.27
4821.53
4871.61
4897.54
4899.39
4879.05
4834.51
4767.82
4679.56
4570.61
4441.98
4294.81
4130.35
3949.94
3755.03
3547.12
3327.74
3098.45
2860.83
2616.52
2367.14
2114.31
1859.62
1604.6
1350.74
1099.45
852.093
609.914
374.063
145.499
-74.9412
-286.138
-487.369
-678.283
-858.155
-1026.51
-1182.97
-1327.24
-1459.14
-1578.56
-1685.49
-1779.95
-1862.09
-1932.09
-1990.18
-2036.65
-2071.82
-2096.02
-2109.67
-2112.41
-2105.97
-2090.23
-2065.75
-2033.02
-1992.55
-1944.85
-1890.42
-1829.76
-1763.38
-1691.77
-1615.42
-1534.8
-1450.4
-1362.69
-1272.12
-1179.14
-1084.19
-987.703
-890.098
-791.784
-693.156
-594.597
-496.476
-399.151
-302.958
-208.216
-115.239
-24.3309
64.236
150.207
233.31
313.274
389.923
463.075
532.557
598.209
659.887
717.466
770.843
819.985
864.856
905.557
942.282
975.031
1003.7
1028.15
1048.43
1064.6
1076.81
1085.2
1090.01
1091.29
1089.16
1083.77
1075.2
1063.66
1049.27
1032.14
1012.36
989.989
965.089
937.689
907.746
875.75
844.254
813.126
782.041
750.881
719.143
686.93
654.445
621.759
2196.72
2512.61
2814.72
3101.61
3371.9
3624.25
3857.48
4070.45
4262.1
4431.52
4577.94
4700.74
4799.47
4873.81
4923.63
4948.97
4949.86
4927.91
4881.83
4813.22
4722.75
4611.32
4479.98
4329.9
4162.34
3978.69
3780.42
3569.08
3346.23
3113.45
2872.36
2624.61
2371.86
2115.77
1857.93
1599.92
1343.23
1089.32
839.529
595.143
357.312
126.991
-94.9838
-307.493
-509.844
-701.664
-882.247
-1051.12
-1207.91
-1352.34
-1484.22
-1603.47
-1710.09
-1804.13
-1885.72
-1955.08
-2012.44
-2058.13
-2092.45
-2115.75
-2128.37
-2130.2
-2122.68
-2105.91
-2080.38
-2046.61
-2005.1
-1956.38
-1900.94
-1839.3
-1771.96
-1699.41
-1622.14
-1540.64
-1455.38
-1366.84
-1275.48
-1181.74
-1086.06
-988.872
-890.599
-791.651
-692.422
-593.296
-494.642
-396.818
-300.161
-204.986
-111.608
-20.3316
68.5786
154.849
238.215
318.41
395.253
468.566
538.176
603.924
665.663
723.263
776.614
825.686
870.446
910.997
947.613
980.283
1008.87
1033.18
1053.29
1069.26
1081.25
1089.36
1093.95
1095.01
1092.65
1087.02
1078.23
1066.46
1051.87
1034.55
1014.57
991.982
966.972
939.179
908.764
876.316
844.527
813.042
781.879
750.713
718.912
686.605
653.998
621.232
2223.74
2543.33
2848.94
3139.12
3412.45
3667.6
3903.35
4118.55
4312.1
4483.09
4630.72
4754.38
4853.58
4928.02
4977.56
5002.22
5002.13
4978.62
4930.92
4860.34
4767.58
4653.58
4519.44
4366.33
4195.56
4008.54
3806.79
3591.88
3365.43
3129.03
2884.32
2632.99
2376.74
2117.24
1856.13
1595.01
1335.38
1078.72
826.407
579.722
339.835
107.685
-115.878
-329.754
-533.282
-726.041
-907.367
-1076.79
-1233.92
-1378.51
-1510.38
-1629.47
-1735.77
-1829.35
-1910.38
-1979.07
-2035.68
-2080.55
-2114
-2136.39
-2147.92
-2148.78
-2140.17
-2122.31
-2095.7
-2060.84
-2018.26
-1968.47
-1911.98
-1849.32
-1780.98
-1707.45
-1629.23
-1546.8
-1460.65
-1371.25
-1279.06
-1184.52
-1088.07
-990.147
-891.174
-791.56
-691.698
-591.974
-492.758
-394.408
-297.26
-201.626
-107.822
-16.1537
73.1254
159.713
243.361
323.807
400.858
474.346
544.099
609.955
671.766
729.395
782.724
831.726
876.365
916.751
953.259
985.863
1014.37
1038.54
1058.46
1074.19
1085.91
1093.66
1098.17
1099
1096.42
1090.53
1081.5
1069.5
1054.69
1037.17
1017
994.169
968.753
940.804
909.691
876.021
843.828
812.68
781.602
750.534
718.709
686.303
653.627
620.702
2251.57
2574.99
2884.23
3177.81
3454.31
3712.38
3950.76
4168.29
4363.84
4536.47
4685.38
4809.94
4909.66
4984.23
5033.5
5057.55
5056.41
5031.28
4981.87
4909.25
4814.12
4697.46
4560.41
4404.17
4230.06
4039.55
3834.17
3615.56
3385.36
3145.2
2896.75
2641.7
2381.79
2118.75
1854.24
1589.88
1327.19
1067.68
812.729
563.652
321.628
87.5744
-137.631
-352.932
-557.697
-751.428
-933.534
-1103.52
-1261.02
-1405.79
-1537.65
-1656.56
-1762.53
-1855.65
-1936.09