/*--------------------------------*- C++ -*----------------------------------*\
| =========                 |                                                 |
| \\      /  F ield         | OpenFOAM: The Open Source CFD Toolbox           |
|  \\    /   O peration     | Version:  v1912                                 |
|   \\  /    A nd           | Website:  www.openfoam.com                      |
|    \\/     M anipulation  |                                                 |
\*---------------------------------------------------------------------------*/
FoamFile
{
    version     2.0;
    format      ascii;
    class       volScalarField;
    location    "40";
    object      nut;
}
// * * * * * * * * * * * * * * * * * * * * * * * * * * * * * * * * * * * * * //

dimensions      [0 2 -1 0 0 0 0];


internalField   nonuniform List<scalar> 
14268
(
9.17823e-10
8.95402e-10
8.74687e-10
8.5695e-10
8.47223e-10
8.46925e-10
8.52925e-10
8.62432e-10
8.73865e-10
8.85547e-10
8.94005e-10
8.9537e-10
8.86988e-10
8.75406e-10
8.64056e-10
8.55829e-10
8.59945e-10
8.72948e-10
8.83114e-10
8.78814e-10
8.66679e-10
8.54063e-10
8.42771e-10
8.40272e-10
8.55703e-10
8.71649e-10
8.73283e-10
8.70925e-10
8.71686e-10
8.82487e-10
9.20729e-10
1.03967e-09
1.31868e-09
2.03302e-09
3.5149e-09
5.61545e-09
9.02794e-09
1.38114e-08
1.89611e-08
1.85736e-08
1.53035e-08
1.07153e-08
6.95685e-09
3.79263e-09
6.60942e-08
6.57583e-08
6.53009e-08
6.5101e-08
6.52834e-08
6.57846e-08
6.65371e-08
6.7455e-08
6.84654e-08
6.94982e-08
7.04213e-08
7.10897e-08
7.13845e-08
7.12204e-08
7.09895e-08
7.11769e-08
7.18055e-08
7.27267e-08
7.3525e-08
7.3795e-08
7.31078e-08
7.19411e-08
7.12361e-08
7.15071e-08
7.23798e-08
7.33461e-08
7.37198e-08
7.27421e-08
7.13653e-08
7.13446e-08
7.43226e-08
8.10934e-08
9.44613e-08
1.19956e-07
1.59195e-07
2.06204e-07
2.59533e-07
3.1712e-07
3.78695e-07
3.84111e-07
3.58623e-07
2.80888e-07
1.83672e-07
8.55849e-08
2.54731e-07
2.54282e-07
2.53673e-07
2.53382e-07
2.53578e-07
2.5417e-07
2.5507e-07
2.56173e-07
2.57379e-07
2.58607e-07
2.59696e-07
2.60486e-07
2.6083e-07
2.60678e-07
2.60474e-07
2.60756e-07
2.61546e-07
2.62668e-07
2.6361e-07
2.63931e-07
2.63201e-07
2.61942e-07
2.61142e-07
2.61381e-07
2.62299e-07
2.63315e-07
2.63688e-07
2.6266e-07
2.61311e-07
2.61585e-07
2.65383e-07
2.7321e-07
2.87163e-07
3.10415e-07
3.37983e-07
3.68939e-07
4.05978e-07
4.45133e-07
4.88821e-07
5.02394e-07
4.92036e-07
4.6246e-07
3.89862e-07
2.95438e-07
3.3845e-07
3.38307e-07
3.381e-07
3.37996e-07
3.38052e-07
3.38236e-07
3.38517e-07
3.38865e-07
3.39249e-07
3.39646e-07
3.39995e-07
3.4024e-07
3.40309e-07
3.40178e-07
3.40069e-07
3.40181e-07
3.40442e-07
3.408e-07
3.41063e-07
3.4109e-07
3.40715e-07
3.40227e-07
3.39926e-07
3.39985e-07
3.40256e-07
3.4055e-07
3.40635e-07
3.40152e-07
3.39609e-07
3.39584e-07
3.40904e-07
3.43452e-07
3.48201e-07
3.56159e-07
3.69625e-07
3.88306e-07
4.16815e-07
4.51075e-07
4.90653e-07
5.06373e-07
4.97591e-07
4.74172e-07
4.34593e-07
3.32448e-07
3.5522e-07
3.55217e-07
3.55184e-07
3.55156e-07
3.55168e-07
3.55198e-07
3.5525e-07
3.55317e-07
3.55398e-07
3.55487e-07
3.55579e-07
3.55623e-07
3.55586e-07
3.55509e-07
3.55447e-07
3.55456e-07
3.55525e-07
3.55628e-07
3.55659e-07
3.55612e-07
3.55399e-07
3.55226e-07
3.55154e-07
3.55188e-07
3.55249e-07
3.55322e-07
3.55305e-07
3.55087e-07
3.54899e-07
3.54854e-07
3.55246e-07
3.55889e-07
3.57739e-07
3.62241e-07
3.72512e-07
3.89623e-07
4.17484e-07
4.51341e-07
4.90754e-07
5.0719e-07
4.98654e-07
4.7859e-07
4.30684e-07
3.90856e-07
3.57885e-07
3.57878e-07
3.57873e-07
3.57873e-07
3.57851e-07
3.57851e-07
3.57842e-07
3.57851e-07
3.57858e-07
3.57898e-07
3.57892e-07
3.57908e-07
3.57861e-07
3.57753e-07
3.57735e-07
3.57794e-07
3.57829e-07
3.57868e-07
3.57822e-07
3.57775e-07
3.57612e-07
3.57509e-07
3.57457e-07
3.57482e-07
3.57474e-07
3.57503e-07
3.57446e-07
3.57252e-07
3.57177e-07
3.57127e-07
3.57312e-07
3.57578e-07
3.58884e-07
3.62724e-07
3.72862e-07
3.89786e-07
4.17227e-07
4.50983e-07
4.904e-07
5.06641e-07
4.98176e-07
4.74689e-07
4.39162e-07
3.72483e-07
3.58307e-07
3.58326e-07
3.58334e-07
3.58321e-07
3.58313e-07
3.58313e-07
3.583e-07
3.58282e-07
3.58299e-07
3.58304e-07
3.58333e-07
3.5834e-07
3.58253e-07
3.58224e-07
3.58172e-07
3.5816e-07
3.58166e-07
3.58181e-07
3.58132e-07
3.58066e-07
3.57876e-07
3.57851e-07
3.57831e-07
3.57834e-07
3.57835e-07
3.57832e-07
3.57823e-07
3.57711e-07
3.57631e-07
3.57542e-07
3.57679e-07
3.57894e-07
3.59117e-07
3.62934e-07
3.72832e-07
3.89729e-07
4.1752e-07
4.51599e-07
4.88832e-07
5.06538e-07
4.98561e-07
4.78386e-07
4.33124e-07
3.92819e-07
3.58321e-07
3.58335e-07
3.58348e-07
3.58347e-07
3.58346e-07
3.58314e-07
3.58293e-07
3.58313e-07
3.5827e-07
3.58306e-07
3.58286e-07
3.58282e-07
3.58219e-07
3.58087e-07
3.58055e-07
3.58093e-07
3.58122e-07
3.58197e-07
3.58173e-07
3.58114e-07
3.57944e-07
3.57851e-07
3.57819e-07
3.57819e-07
3.5782e-07
3.57857e-07
3.57784e-07
3.57613e-07
3.5756e-07
3.57514e-07
3.57654e-07
3.57836e-07
3.59057e-07
3.62942e-07
3.72938e-07
3.89778e-07
4.17426e-07
4.50021e-07
4.84432e-07
5.01056e-07
4.95673e-07
4.7506e-07
4.39538e-07
3.7999e-07
3.5837e-07
3.58367e-07
3.5837e-07
3.58382e-07
3.58372e-07
3.58353e-07
3.58331e-07
3.58345e-07
3.5831e-07
3.58335e-07
3.58337e-07
3.58359e-07
3.5833e-07
3.5824e-07
3.58212e-07
3.58257e-07
3.58236e-07
3.58267e-07
3.58199e-07
3.58129e-07
3.57994e-07
3.5792e-07
3.5788e-07
3.5791e-07
3.57899e-07
3.5791e-07
3.57901e-07
3.57775e-07
3.57705e-07
3.57618e-07
3.57762e-07
3.57944e-07
3.59131e-07
3.6285e-07
3.72727e-07
3.89777e-07
4.16863e-07
4.49216e-07
4.82913e-07
4.94892e-07
4.90516e-07
4.74991e-07
4.35344e-07
3.89689e-07
3.58358e-07
3.58376e-07
3.5839e-07
3.58379e-07
3.58367e-07
3.58368e-07
3.58358e-07
3.58308e-07
3.58374e-07
3.58354e-07
3.58357e-07
3.58329e-07
3.5818e-07
3.58165e-07
3.5807e-07
3.58075e-07
3.58098e-07
3.58151e-07
3.58129e-07
3.58077e-07
3.57867e-07
3.57823e-07
3.5781e-07
3.57823e-07
3.57815e-07
3.57836e-07
3.57788e-07
3.57641e-07
3.57574e-07
3.57518e-07
3.5764e-07
3.57827e-07
3.59075e-07
3.62905e-07
3.72917e-07
3.89749e-07
4.16761e-07
4.49011e-07
4.76735e-07
4.84136e-07
4.80266e-07
4.67466e-07
4.35096e-07
3.86847e-07
3.58354e-07
3.58368e-07
3.58381e-07
3.58369e-07
3.58356e-07
3.58344e-07
3.58334e-07
3.58352e-07
3.58318e-07
3.58346e-07
3.58338e-07
3.58358e-07
3.58337e-07
3.58241e-07
3.58241e-07
3.58267e-07
3.5829e-07
3.58259e-07
3.58226e-07
3.58185e-07
3.58036e-07
3.57983e-07
3.57954e-07
3.57972e-07
3.57966e-07
3.5798e-07
3.57947e-07
3.57814e-07
3.57761e-07
3.57694e-07
3.57825e-07
3.57986e-07
3.59084e-07
3.6277e-07
3.72793e-07
3.89716e-07
4.16488e-07
4.46856e-07
4.66572e-07
4.75736e-07
4.71923e-07
4.60577e-07
4.31637e-07
3.83056e-07
3.58411e-07
3.58416e-07
3.58415e-07
3.58417e-07
3.58398e-07
3.58383e-07
3.58346e-07
3.58336e-07
3.58289e-07
3.58319e-07
3.58311e-07
3.58295e-07
3.58185e-07
3.58102e-07
3.58007e-07
3.58011e-07
3.57982e-07
3.58062e-07
3.58006e-07
3.57937e-07
3.57763e-07
3.57685e-07
3.57656e-07
3.57672e-07
3.57685e-07
3.57706e-07
3.57686e-07
3.57553e-07
3.57497e-07
3.57423e-07
3.57561e-07
3.57754e-07
3.59023e-07
3.62893e-07
3.72766e-07
3.89533e-07
4.14359e-07
4.43618e-07
4.58246e-07
4.69668e-07
4.65426e-07
4.5439e-07
4.24717e-07
3.87996e-07
3.58352e-07
3.58366e-07
3.5838e-07
3.58389e-07
3.58387e-07
3.5837e-07
3.58347e-07
3.58344e-07
3.58343e-07
3.58343e-07
3.5834e-07
3.58343e-07
3.58315e-07
3.58273e-07
3.58256e-07
3.5828e-07
3.58298e-07
3.58348e-07
3.58308e-07
3.58265e-07
3.58118e-07
3.5806e-07
3.58022e-07
3.58041e-07
3.5802e-07
3.58028e-07
3.58009e-07
3.57878e-07
3.57811e-07
3.57735e-07
3.57852e-07
3.57978e-07
3.591e-07
3.62928e-07
3.73145e-07
3.89647e-07
4.13512e-07
4.42064e-07
4.5127e-07
4.65857e-07
4.61705e-07
4.49166e-07
4.22634e-07
3.78045e-07
3.58279e-07
3.58288e-07
3.58297e-07
3.58248e-07
3.58233e-07
3.58205e-07
3.58156e-07
3.5814e-07
3.58103e-07
3.58079e-07
3.58082e-07
3.58097e-07
3.58037e-07
3.57887e-07
3.57788e-07
3.57787e-07
3.5782e-07
3.57835e-07
3.57815e-07
3.57738e-07
3.57546e-07
3.57459e-07
3.57408e-07
3.57438e-07
3.57467e-07
3.57511e-07
3.57489e-07
3.57367e-07
3.57321e-07
3.57262e-07
3.57418e-07
3.57687e-07
3.58956e-07
3.6279e-07
3.73081e-07
3.89669e-07
4.13212e-07
4.38903e-07
4.47293e-07
4.62225e-07
4.58846e-07
4.47617e-07
4.16033e-07
3.80023e-07
3.58388e-07
3.58401e-07
3.58416e-07
3.58428e-07
3.58404e-07
3.58404e-07
3.58394e-07
3.58367e-07
3.58376e-07
3.58393e-07
3.58385e-07
3.58394e-07
3.58327e-07
3.58304e-07
3.5828e-07
3.58303e-07
3.58315e-07
3.58365e-07
3.58316e-07
3.58288e-07
3.58148e-07
3.58116e-07
3.58101e-07
3.58126e-07
3.58113e-07
3.58128e-07
3.58102e-07
3.57954e-07
3.57874e-07
3.5779e-07
3.57889e-07
3.57996e-07
3.59072e-07
3.62737e-07
3.72875e-07
3.88693e-07
4.09476e-07
4.32531e-07
4.45127e-07
4.58475e-07
4.55403e-07
4.4487e-07
4.19912e-07
3.70063e-07
3.58256e-07
3.58238e-07
3.58203e-07
3.5817e-07
3.58141e-07
3.58095e-07
3.58052e-07
3.58063e-07
3.58064e-07
3.58101e-07
3.58121e-07
3.58135e-07
3.58068e-07
3.57968e-07
3.57915e-07
3.57925e-07
3.57933e-07
3.57956e-07
3.57886e-07
3.57758e-07
3.5754e-07
3.57452e-07
3.57414e-07
3.57442e-07
3.57468e-07
3.57508e-07
3.57495e-07
3.57349e-07
3.57289e-07
3.57225e-07
3.57386e-07
3.57621e-07
3.58892e-07
3.6277e-07
3.73812e-07
3.88508e-07
4.0529e-07
4.26571e-07
4.4171e-07
4.57699e-07
4.54851e-07
4.45893e-07
4.23508e-07
3.76156e-07
3.58398e-07
3.58414e-07
3.58446e-07
3.58453e-07
3.58451e-07
3.58438e-07
3.58405e-07
3.58382e-07
3.58323e-07
3.58314e-07
3.58308e-07
3.58309e-07
3.58283e-07
3.58233e-07
3.58199e-07
3.58253e-07
3.58295e-07
3.58353e-07
3.58337e-07
3.58332e-07
3.58219e-07
3.58181e-07
3.58146e-07
3.58162e-07
3.58129e-07
3.5812e-07
3.58081e-07
3.57935e-07
3.57844e-07
3.57739e-07
3.57815e-07
3.57872e-07
3.58884e-07
3.62872e-07
3.74746e-07
3.87327e-07
4.0081e-07
4.19271e-07
4.39906e-07
4.67177e-07
4.64097e-07
4.53562e-07
4.36228e-07
3.77651e-07
3.57981e-07
3.57944e-07
3.57907e-07
3.57859e-07
3.578e-07
3.57734e-07
3.57688e-07
3.57663e-07
3.57674e-07
3.57718e-07
3.57734e-07
3.57742e-07
3.57672e-07
3.576e-07
3.5754e-07
3.5752e-07
3.57523e-07
3.57541e-07
3.57467e-07
3.57333e-07
3.57122e-07
3.57047e-07
3.57016e-07
3.5705e-07
3.57096e-07
3.57142e-07
3.57134e-07
3.56979e-07
3.56936e-07
3.56894e-07
3.57064e-07
3.57363e-07
3.58592e-07
3.63581e-07
3.74876e-07
3.83196e-07
3.9478e-07
4.16157e-07
4.49362e-07
4.94256e-07
4.90168e-07
4.74464e-07
4.55684e-07
3.93024e-07
3.57968e-07
3.58003e-07
3.58011e-07
3.57993e-07
3.58002e-07
3.58005e-07
3.57964e-07
3.57922e-07
3.5787e-07
3.57834e-07
3.57778e-07
3.57752e-07
3.57697e-07
3.57648e-07
3.57623e-07
3.57676e-07
3.57741e-07
3.5782e-07
3.5782e-07
3.57869e-07
3.57831e-07
3.57835e-07
3.57817e-07
3.57853e-07
3.57849e-07
3.57863e-07
3.57858e-07
3.57736e-07
3.5768e-07
3.57609e-07
3.57726e-07
3.57819e-07
3.59114e-07
3.65277e-07
3.73233e-07
3.76589e-07
3.89239e-07
4.16361e-07
4.70705e-07
5.41093e-07
5.42154e-07
5.1738e-07
4.84093e-07
4.14284e-07
3.57734e-07
3.57689e-07
3.57638e-07
3.57557e-07
3.57453e-07
3.57434e-07
3.57456e-07
3.57542e-07
3.57597e-07
3.57684e-07
3.57726e-07
3.57696e-07
3.57575e-07
3.57495e-07
3.57444e-07
3.5744e-07
3.57491e-07
3.57577e-07
3.57566e-07
3.5745e-07
3.57253e-07
3.57168e-07
3.57123e-07
3.57168e-07
3.57299e-07
3.5741e-07
3.57416e-07
3.57266e-07
3.57234e-07
3.57233e-07
3.57616e-07
3.58431e-07
3.61123e-07
3.67749e-07
3.67788e-07
3.70131e-07
3.83434e-07
4.18476e-07
4.9166e-07
5.71277e-07
6.13984e-07
5.77029e-07
5.22388e-07
4.44032e-07
3.59405e-07
3.59434e-07
3.59443e-07
3.59445e-07
3.59431e-07
3.59414e-07
3.59434e-07
3.59491e-07
3.59561e-07
3.59639e-07
3.59679e-07
3.59714e-07
3.59694e-07
3.59643e-07
3.59609e-07
3.59659e-07
3.59691e-07
3.59733e-07
3.5972e-07
3.59727e-07
3.59619e-07
3.59561e-07
3.59544e-07
3.59612e-07
3.59671e-07
3.59772e-07
3.59833e-07
3.59739e-07
3.59664e-07
3.59686e-07
3.60079e-07
3.60821e-07
3.63455e-07
3.69152e-07
3.62875e-07
3.65566e-07
3.78256e-07
4.20531e-07
5.09528e-07
5.82454e-07
6.8281e-07
6.41965e-07
5.72724e-07
4.82219e-07
3.57512e-07
3.57542e-07
3.57555e-07
3.57542e-07
3.57515e-07
3.57477e-07
3.5743e-07
3.5739e-07
3.5734e-07
3.5733e-07
3.573e-07
3.57285e-07
3.57208e-07
3.57132e-07
3.57079e-07
3.57089e-07
3.57089e-07
3.57112e-07
3.57058e-07
3.57015e-07
3.56878e-07
3.56843e-07
3.56828e-07
3.56826e-07
3.56789e-07
3.56758e-07
3.56678e-07
3.56503e-07
3.56398e-07
3.56244e-07
3.56164e-07
3.55818e-07
3.55528e-07
3.53403e-07
3.44467e-07
3.45633e-07
3.85587e-07
4.9243e-07
6.91848e-07
9.14978e-07
1.03575e-06
9.89425e-07
9.19248e-07
7.94223e-07
3.54516e-07
3.54603e-07
3.54679e-07
3.54714e-07
3.5466e-07
3.54499e-07
3.5426e-07
3.53988e-07
3.53678e-07
3.53364e-07
3.53074e-07
3.5287e-07
3.52734e-07
3.52649e-07
3.52605e-07
3.52611e-07
3.52423e-07
3.52117e-07
3.51773e-07
3.51634e-07
3.51509e-07
3.51477e-07
3.51401e-07
3.51166e-07
3.50594e-07
3.49953e-07
3.49471e-07
3.48957e-07
3.48412e-07
3.47567e-07
3.46094e-07
3.42435e-07
3.34096e-07
3.02283e-07
2.79423e-07
3.05249e-07
4.40421e-07
7.39767e-07
1.09764e-06
1.61956e-06
2.23527e-06
2.89484e-06
2.7271e-06
2.29854e-06
3.05915e-07
3.06724e-07
3.07526e-07
3.08001e-07
3.07691e-07
3.06471e-07
3.04622e-07
3.02409e-07
2.99964e-07
2.97448e-07
2.95157e-07
2.93561e-07
2.9299e-07
2.93034e-07
2.93197e-07
2.93033e-07
2.91704e-07
2.89464e-07
2.87425e-07
2.86882e-07
2.87557e-07
2.88502e-07
2.8876e-07
2.87459e-07
2.84025e-07
2.80056e-07
2.7739e-07
2.75975e-07
2.74894e-07
2.72185e-07
2.65138e-07
2.48032e-07
2.15285e-07
1.59102e-07
2.00844e-07
3.00265e-07
5.3173e-07
8.9397e-07
1.24068e-06
1.98935e-06
3.31135e-06
4.95745e-06
6.15221e-06
5.99548e-06
1.32294e-07
1.33742e-07
1.35295e-07
1.36211e-07
1.35877e-07
1.34222e-07
1.31735e-07
1.28861e-07
1.25797e-07
1.2271e-07
1.19984e-07
1.18195e-07
1.17777e-07
1.18332e-07
1.19008e-07
1.19008e-07
1.17475e-07
1.14923e-07
1.12856e-07
1.12714e-07
1.14466e-07
1.1683e-07
1.18186e-07
1.17155e-07
1.13561e-07
1.0956e-07
1.07186e-07
1.06492e-07
1.05994e-07
1.02705e-07
9.266e-08
7.39678e-08
5.62756e-08
6.57053e-08
2.00286e-07
2.92373e-07
2.92654e-07
2.83319e-07
3.45539e-07
5.28701e-07
1.01442e-06
1.946e-06
3.75621e-06
6.19383e-06
2.63154e-08
2.70279e-08
2.78804e-08
2.84615e-08
2.85375e-08
2.81779e-08
2.75287e-08
2.67311e-08
2.58355e-08
2.487e-08
2.39644e-08
2.33205e-08
2.30815e-08
2.32135e-08
2.33503e-08
2.30991e-08
2.23732e-08
2.14106e-08
2.06607e-08
2.04932e-08
2.11407e-08
2.22449e-08
2.31628e-08
2.3299e-08
2.28104e-08
2.21377e-08
2.15264e-08
2.10581e-08
1.978e-08
1.6393e-08
1.00046e-08
5.59676e-09
7.35435e-09
5.2866e-08
1.55427e-07
2.07276e-07
2.32911e-07
2.32728e-07
2.27721e-07
2.12469e-07
2.04527e-07
2.73987e-07
5.65777e-07
1.07685e-06
4.04931e-09
4.17296e-09
4.3211e-09
4.39219e-09
4.36027e-09
4.25562e-09
4.121e-09
3.97632e-09
3.81083e-09
3.63622e-09
3.48161e-09
3.37156e-09
3.31192e-09
3.30995e-09
3.28239e-09
3.13858e-09
2.92851e-09
2.74334e-09
2.63117e-09
2.64139e-09
2.86308e-09
3.24384e-09
3.62844e-09
3.89657e-09
4.1698e-09
4.46397e-09
4.77121e-09
5.17014e-09
5.26005e-09
4.59584e-09
3.08361e-09
1.86187e-09
2.04978e-09
1.05624e-08
3.92998e-08
6.16824e-08
8.52101e-08
1.1744e-07
1.92101e-07
2.90183e-07
3.70535e-07
4.98171e-07
4.22962e-07
2.66683e-07
4.54222e-10
4.94834e-10
5.45378e-10
5.5077e-10
5.22374e-10
4.92411e-10
4.64999e-10
4.36825e-10
4.06756e-10
3.79411e-10
3.58163e-10
3.42067e-10
3.36425e-10
3.85542e-10
4.32387e-10
4.23764e-10
4.05995e-10
4.00223e-10
3.98535e-10
3.83775e-10
4.53109e-10
6.11387e-10
7.6246e-10
8.58177e-10
9.80577e-10
1.06138e-09
1.09427e-09
1.34678e-09
1.66894e-09
1.61174e-09
1.0685e-09
6.85647e-10
6.52816e-10
2.15376e-09
8.95924e-09
1.80725e-08
2.62218e-08
4.05664e-08
7.34591e-08
1.54017e-07
2.75685e-07
4.09733e-07
3.80717e-07
4.24355e-07
6.06848e-08
5.77905e-08
5.49067e-08
5.38097e-08
5.49747e-08
5.79297e-08
6.2026e-08
6.65859e-08
7.11248e-08
7.54494e-08
7.88688e-08
8.02007e-08
7.79684e-08
7.25617e-08
6.88264e-08
6.99847e-08
7.5763e-08
8.40125e-08
9.06309e-08
9.05984e-08
8.03875e-08
6.8678e-08
6.27543e-08
6.33674e-08
6.85664e-08
7.40018e-08
7.39143e-08
6.5819e-08
5.69425e-08
5.25273e-08
5.55852e-08
6.65816e-08
7.57366e-08
6.00043e-08
4.24476e-08
3.30806e-08
3.2252e-08
4.28594e-08
6.84628e-08
9.02721e-08
1.15742e-07
1.42438e-07
1.30481e-07
2.48656e-07
2.09315e-07
2.09239e-07
2.08214e-07
2.09289e-07
2.12955e-07
2.17912e-07
2.23625e-07
2.29912e-07
2.36636e-07
2.43267e-07
2.49895e-07
2.5594e-07
2.59422e-07
2.5888e-07
2.57877e-07
2.61321e-07
2.68494e-07
2.76716e-07
2.84665e-07
2.90409e-07
2.87038e-07
2.76405e-07
2.68379e-07
2.69409e-07
2.74381e-07
2.80122e-07
2.82727e-07
2.73042e-07
2.55645e-07
2.46682e-07
2.542e-07
2.72129e-07
2.89919e-07
2.80693e-07
2.45973e-07
2.07461e-07
1.93823e-07
2.17515e-07
2.65801e-07
2.99322e-07
3.05462e-07
3.29227e-07
3.98558e-07
5.09928e-07
3.19512e-07
3.19724e-07
3.19501e-07
3.19904e-07
3.20927e-07
3.22333e-07
3.23872e-07
3.25359e-07
3.26832e-07
3.28334e-07
3.29777e-07
3.31021e-07
3.31917e-07
3.32204e-07
3.32433e-07
3.33081e-07
3.34401e-07
3.36037e-07
3.37652e-07
3.38967e-07
3.3985e-07
3.39739e-07
3.39156e-07
3.39037e-07
3.39559e-07
3.40083e-07
3.40249e-07
3.39829e-07
3.38324e-07
3.36462e-07
3.37133e-07
3.39315e-07
3.42578e-07
3.42483e-07
3.40574e-07
3.37781e-07
3.37982e-07
3.44403e-07
3.53387e-07
3.61347e-07
3.74788e-07
3.98741e-07
4.30324e-07
5.09443e-07
3.45039e-07
3.45151e-07
3.45155e-07
3.45179e-07
3.45116e-07
3.45029e-07
3.44971e-07
3.44955e-07
3.45078e-07
3.45306e-07
3.45747e-07
3.4615e-07
3.46412e-07
3.46503e-07
3.46476e-07
3.46128e-07
3.45351e-07
3.44579e-07
3.44315e-07
3.44569e-07
3.45013e-07
3.45361e-07
3.45432e-07
3.44798e-07
3.43929e-07
3.43437e-07
3.43493e-07
3.4371e-07
3.44068e-07
3.44478e-07
3.44014e-07
3.42654e-07
3.4189e-07
3.44121e-07
3.4756e-07
3.4904e-07
3.52439e-07
3.55325e-07
3.57548e-07
3.6259e-07
3.7355e-07
3.86672e-07
3.99286e-07
4.35262e-07
3.52526e-07
3.52375e-07
3.52292e-07
3.52171e-07
3.52145e-07
3.52187e-07
3.52284e-07
3.52387e-07
3.52332e-07
3.52234e-07
3.52138e-07
3.51959e-07
3.51608e-07
3.51448e-07
3.51382e-07
3.51426e-07
3.51582e-07
3.51849e-07
3.52054e-07
3.52105e-07
3.51894e-07
3.51409e-07
3.51122e-07
3.5137e-07
3.51768e-07
3.52232e-07
3.5268e-07
3.52898e-07
3.52978e-07
3.5316e-07
3.53963e-07
3.54554e-07
3.55189e-07
3.55067e-07
3.55346e-07
3.56011e-07
3.5738e-07
3.61292e-07
3.67193e-07
3.73591e-07
3.82725e-07
4.02582e-07
4.08953e-07
4.40753e-07
3.5284e-07
3.52935e-07
3.52943e-07
3.52912e-07
3.52859e-07
3.52785e-07
3.52684e-07
3.52578e-07
3.52524e-07
3.52492e-07
3.52473e-07
3.52539e-07
3.52672e-07
3.5276e-07
3.52776e-07
3.52742e-07
3.5249e-07
3.5198e-07
3.51518e-07
3.51404e-07
3.5166e-07
3.51936e-07
3.52048e-07
3.51974e-07
3.51503e-07
3.50931e-07
3.50908e-07
3.51381e-07
3.52171e-07
3.52962e-07
3.53484e-07
3.5324e-07
3.52805e-07
3.54037e-07
3.56277e-07
3.57137e-07
3.60129e-07
3.64402e-07
3.66916e-07
3.71223e-07
3.77226e-07
3.88937e-07
3.94576e-07
4.04551e-07
3.54872e-07
3.54877e-07
3.54756e-07
3.546e-07
3.54503e-07
3.54468e-07
3.5453e-07
3.54625e-07
3.5463e-07
3.5455e-07
3.5446e-07
3.54328e-07
3.54121e-07
3.53939e-07
3.5383e-07
3.5369e-07
3.53563e-07
3.53706e-07
3.54e-07
3.54254e-07
3.54294e-07
3.5419e-07
3.54119e-07
3.5396e-07
3.53949e-07
3.54149e-07
3.54481e-07
3.54543e-07
3.54635e-07
3.54637e-07
3.54931e-07
3.54853e-07
3.55031e-07
3.54365e-07
3.55074e-07
3.56557e-07
3.58377e-07
3.62073e-07
3.6741e-07
3.74196e-07
3.80053e-07
3.91626e-07
4.00068e-07
4.11675e-07
3.56078e-07
3.56087e-07
3.56099e-07
3.56067e-07
3.56021e-07
3.56006e-07
3.55991e-07
3.55963e-07
3.55916e-07
3.55867e-07
3.55816e-07
3.55804e-07
3.55839e-07
3.55978e-07
3.56116e-07
3.56216e-07
3.56235e-07
3.5625e-07
3.56228e-07
3.56227e-07
3.56407e-07
3.56598e-07
3.56804e-07
3.57017e-07
3.57186e-07
3.57256e-07
3.57404e-07
3.57739e-07
3.58269e-07
3.58872e-07
3.59531e-07
3.59938e-07
3.60389e-07
3.60704e-07
3.6147e-07
3.61971e-07
3.63774e-07
3.6711e-07
3.69153e-07
3.72142e-07
3.75462e-07
3.82214e-07
3.88858e-07
3.95856e-07
3.5581e-07
3.55886e-07
3.55881e-07
3.55797e-07
3.5573e-07
3.55715e-07
3.5574e-07
3.55799e-07
3.55849e-07
3.55859e-07
3.55856e-07
3.55819e-07
3.55775e-07
3.55629e-07
3.55492e-07
3.55362e-07
3.5528e-07
3.55248e-07
3.55359e-07
3.55561e-07
3.55688e-07
3.55693e-07
3.55439e-07
3.55068e-07
3.54834e-07
3.54706e-07
3.54924e-07
3.55133e-07
3.55451e-07
3.55487e-07
3.55724e-07
3.55237e-07
3.55133e-07
3.5454e-07
3.55329e-07
3.57109e-07
3.59185e-07
3.62733e-07
3.66745e-07
3.71834e-07
3.75881e-07
3.83208e-07
3.90744e-07
3.98106e-07
3.57493e-07
3.57494e-07
3.57504e-07
3.57508e-07
3.57498e-07
3.57474e-07
3.57448e-07
3.57432e-07
3.57416e-07
3.57391e-07
3.57362e-07
3.57363e-07
3.57412e-07
3.57539e-07
3.57673e-07
3.57788e-07
3.57843e-07
3.57852e-07
3.57838e-07
3.57801e-07
3.578e-07
3.57841e-07
3.57962e-07
3.5814e-07
3.58307e-07
3.58437e-07
3.58625e-07
3.58936e-07
3.59431e-07
3.60012e-07
3.60684e-07
3.61056e-07
3.61648e-07
3.61951e-07
3.62548e-07
3.63416e-07
3.647e-07
3.66675e-07
3.67748e-07
3.70071e-07
3.72389e-07
3.76876e-07
3.82213e-07
3.88643e-07
3.56786e-07
3.56766e-07
3.56769e-07
3.56758e-07
3.56737e-07
3.56716e-07
3.56726e-07
3.56775e-07
3.56844e-07
3.56902e-07
3.56956e-07
3.56979e-07
3.56982e-07
3.56941e-07
3.56842e-07
3.56729e-07
3.56609e-07
3.56486e-07
3.56459e-07
3.56529e-07
3.56671e-07
3.56715e-07
3.56592e-07
3.56334e-07
3.56168e-07
3.56044e-07
3.56183e-07
3.56424e-07
3.56814e-07
3.56841e-07
3.57123e-07
3.56487e-07
3.56477e-07
3.55865e-07
3.56485e-07
3.58402e-07
3.60468e-07
3.63384e-07
3.65716e-07
3.68943e-07
3.71844e-07
3.77229e-07
3.82935e-07
3.87705e-07
3.5794e-07
3.57941e-07
3.57944e-07
3.57945e-07
3.57933e-07
3.57914e-07
3.579e-07
3.57897e-07
3.579e-07
3.57905e-07
3.57903e-07
3.57895e-07
3.57892e-07
3.57916e-07
3.57952e-07
3.57963e-07
3.57938e-07
3.57893e-07
3.57843e-07
3.57824e-07
3.57839e-07
3.57911e-07
3.58005e-07
3.58117e-07
3.58248e-07
3.58399e-07
3.58614e-07
3.58889e-07
3.59302e-07
3.59746e-07
3.60425e-07
3.60751e-07
3.61487e-07
3.61884e-07
3.62414e-07
3.63633e-07
3.64445e-07
3.65857e-07
3.66169e-07
3.67746e-07
3.69548e-07
3.72827e-07
3.76885e-07
3.81766e-07
3.57494e-07
3.57445e-07
3.57402e-07
3.57356e-07
3.57313e-07
3.57289e-07
3.5728e-07
3.57292e-07
3.57308e-07
3.57322e-07
3.57341e-07
3.57364e-07
3.57384e-07
3.57406e-07
3.57375e-07
3.57303e-07
3.57196e-07
3.57093e-07
3.57061e-07
3.57122e-07
3.57274e-07
3.57362e-07
3.57378e-07
3.57278e-07
3.57225e-07
3.57186e-07
3.5732e-07
3.57547e-07
3.57938e-07
3.57953e-07
3.58283e-07
3.57659e-07
3.57774e-07
3.57283e-07
3.57647e-07
3.59523e-07
3.61155e-07
3.63436e-07
3.64616e-07
3.66742e-07
3.69046e-07
3.72979e-07
3.76993e-07
3.79666e-07
3.58148e-07
3.58167e-07
3.58179e-07
3.58186e-07
3.58186e-07
3.58174e-07
3.58159e-07
3.58154e-07
3.58149e-07
3.58134e-07
3.58108e-07
3.58084e-07
3.58068e-07
3.58059e-07
3.58047e-07
3.58023e-07
3.57988e-07
3.57955e-07
3.57937e-07
3.57932e-07
3.57949e-07
3.57976e-07
3.58026e-07
3.58099e-07
3.58216e-07
3.58354e-07
3.58552e-07
3.58766e-07
3.59132e-07
3.59393e-07
3.59983e-07
3.60237e-07
3.60939e-07
3.61488e-07
3.61859e-07
3.6291e-07
3.63331e-07
3.64484e-07
3.64654e-07
3.65961e-07
3.67428e-07
3.69843e-07
3.72842e-07
3.76144e-07
3.57944e-07
3.57927e-07
3.57903e-07
3.57871e-07
3.57837e-07
3.57807e-07
3.57769e-07
3.57726e-07
3.57674e-07
3.57628e-07
3.5759e-07
3.57565e-07
3.57547e-07
3.57546e-07
3.57536e-07
3.57519e-07
3.5748e-07
3.5744e-07
3.5743e-07
3.57464e-07
3.5754e-07
3.57628e-07
3.57707e-07
3.5773e-07
3.57773e-07
3.57844e-07
3.58071e-07
3.58314e-07
3.58679e-07
3.58741e-07
3.59089e-07
3.58715e-07
3.58833e-07
3.58594e-07
3.58665e-07
3.60026e-07
3.6103e-07
3.62714e-07
3.6349e-07
3.65119e-07
3.67028e-07
3.69882e-07
3.72663e-07
3.7452e-07
3.58212e-07
3.58227e-07
3.58241e-07
3.58251e-07
3.58253e-07
3.58238e-07
3.58216e-07
3.58191e-07
3.58166e-07
3.58142e-07
3.58116e-07
3.58086e-07
3.58063e-07
3.58052e-07
3.58046e-07
3.58036e-07
3.58018e-07
3.58003e-07
3.58002e-07
3.58023e-07
3.58067e-07
3.58112e-07
3.58157e-07
3.58202e-07
3.5829e-07
3.58399e-07
3.58575e-07
3.58683e-07
3.58949e-07
3.59035e-07
3.59486e-07
3.59604e-07
3.60126e-07
3.60849e-07
3.61038e-07
3.61769e-07
3.62042e-07
3.63205e-07
3.63443e-07
3.64674e-07
3.65763e-07
3.67465e-07
3.69677e-07
3.7232e-07
3.58114e-07
3.58115e-07
3.58105e-07
3.58089e-07
3.58058e-07
3.58016e-07
3.57948e-07
3.57869e-07
3.57788e-07
3.57715e-07
3.57653e-07
3.5762e-07
3.576e-07
3.57599e-07
3.57595e-07
3.57598e-07
3.57596e-07
3.57603e-07
3.57624e-07
3.57669e-07
3.57743e-07
3.5782e-07
3.5791e-07
3.57995e-07
3.58105e-07
3.58221e-07
3.58426e-07
3.58571e-07
3.58888e-07
3.58878e-07
3.59261e-07
3.59114e-07
3.59148e-07
3.5944e-07
3.59297e-07
3.59866e-07
3.60436e-07
3.61835e-07
3.62469e-07
3.63711e-07
3.65242e-07
3.67375e-07
3.69409e-07
3.71346e-07
3.58312e-07
3.58309e-07
3.58301e-07
3.58286e-07
3.58264e-07
3.58239e-07
3.58213e-07
3.58195e-07
3.58181e-07
3.58166e-07
3.58145e-07
3.58117e-07
3.58092e-07
3.58072e-07
3.58059e-07
3.58048e-07
3.58042e-07
3.58038e-07
3.58054e-07
3.58081e-07
3.58128e-07
3.58177e-07
3.5824e-07
3.58297e-07
3.58385e-07
3.58474e-07
3.58628e-07
3.58691e-07
3.58901e-07
3.58825e-07
3.59134e-07
3.59084e-07
3.59312e-07
3.59978e-07
3.60096e-07
3.6066e-07
3.6099e-07
3.62108e-07
3.62391e-07
3.63379e-07
3.64218e-07
3.65531e-07
3.67208e-07
3.69221e-07
3.58091e-07
3.58082e-07
3.5806e-07
3.58024e-07
3.57981e-07
3.57941e-07
3.579e-07
3.5785e-07
3.57789e-07
3.57727e-07
3.57677e-07
3.57656e-07
3.57643e-07
3.57646e-07
3.57656e-07
3.57677e-07
3.57703e-07
3.5775e-07
3.57797e-07
3.57856e-07
3.57931e-07
3.58007e-07
3.5809e-07
3.58174e-07
3.58285e-07
3.58351e-07
3.58512e-07
3.58555e-07
3.58821e-07
3.58808e-07
3.591e-07
3.59114e-07
3.59138e-07
3.5943e-07
3.59216e-07
3.59467e-07
3.59863e-07
3.61014e-07
3.6146e-07
3.62369e-07
3.63503e-07
3.65377e-07
3.66989e-07
3.68507e-07
3.58382e-07
3.58364e-07
3.58346e-07
3.58324e-07
3.58295e-07
3.5827e-07
3.5824e-07
3.58224e-07
3.58215e-07
3.58212e-07
3.58205e-07
3.5819e-07
3.58174e-07
3.58163e-07
3.58156e-07
3.58151e-07
3.58153e-07
3.58149e-07
3.58156e-07
3.58173e-07
3.58203e-07
3.58236e-07
3.5829e-07
3.5834e-07
3.58431e-07
3.585e-07
3.58649e-07
3.5866e-07
3.58839e-07
3.58727e-07
3.58896e-07
3.5887e-07
3.58775e-07
3.59213e-07
3.59231e-07
3.59735e-07
3.60129e-07
3.61089e-07
3.61328e-07
3.62093e-07
3.63025e-07
3.63995e-07
3.65303e-07
3.66957e-07
3.57999e-07
3.57971e-07
3.5794e-07
3.57915e-07
3.57894e-07
3.57869e-07
3.57848e-07
3.57823e-07
3.57793e-07
3.57757e-07
3.57729e-07
3.57719e-07
3.5772e-07
3.57733e-07
3.5776e-07
3.57797e-07
3.57836e-07
3.57883e-07
3.57942e-07
3.57998e-07
3.58065e-07
3.58121e-07
3.58186e-07
3.58235e-07
3.58311e-07
3.58345e-07
3.58479e-07
3.5847e-07
3.58675e-07
3.58605e-07
3.58711e-07
3.58919e-07
3.58747e-07
3.59164e-07
3.59162e-07
3.59218e-07
3.59416e-07
3.60185e-07
3.60556e-07
3.61271e-07
3.62233e-07
3.63647e-07
3.64982e-07
3.66336e-07
3.58467e-07
3.5845e-07
3.58432e-07
3.58412e-07
3.58388e-07
3.58365e-07
3.5834e-07
3.58316e-07
3.58299e-07
3.58291e-07
3.58283e-07
3.58274e-07
3.58265e-07
3.58261e-07
3.58256e-07
3.5825e-07
3.5824e-07
3.5824e-07
3.58241e-07
3.58251e-07
3.58275e-07
3.58301e-07
3.58344e-07
3.58379e-07
3.5845e-07
3.58477e-07
3.58554e-07
3.58515e-07
3.58671e-07
3.5861e-07
3.58623e-07
3.58695e-07
3.58393e-07
3.58789e-07
3.58816e-07
3.58983e-07
3.59329e-07
3.60142e-07
3.60458e-07
3.61109e-07
3.61977e-07
3.628e-07
3.63858e-07
3.65284e-07
3.57926e-07
3.57914e-07
3.57898e-07
3.57887e-07
3.57876e-07
3.57866e-07
3.57856e-07
3.57849e-07
3.57844e-07
3.57838e-07
3.57836e-07
3.57838e-07
3.57855e-07
3.57871e-07
3.57897e-07
3.57937e-07
3.57982e-07
3.58012e-07
3.58045e-07
3.58074e-07
3.58109e-07
3.58146e-07
3.58193e-07
3.58228e-07
3.58292e-07
3.58293e-07
3.58421e-07
3.58391e-07
3.58438e-07
3.58497e-07
3.58395e-07
3.58573e-07
3.58291e-07
3.58625e-07
3.58888e-07
3.58888e-07
3.59054e-07
3.59578e-07
3.59882e-07
3.60429e-07
3.61223e-07
3.62254e-07
3.63349e-07
3.64683e-07
3.58542e-07
3.58524e-07
3.58507e-07
3.58487e-07
3.58466e-07
3.58445e-07
3.58424e-07
3.58404e-07
3.58386e-07
3.58372e-07
3.58359e-07
3.58351e-07
3.58338e-07
3.58328e-07
3.58317e-07
3.58305e-07
3.58295e-07
3.58288e-07
3.58288e-07
3.58297e-07
3.58316e-07
3.58336e-07
3.58361e-07
3.58369e-07
3.58404e-07
3.5839e-07
3.58429e-07
3.58416e-07
3.58431e-07
3.58482e-07
3.58266e-07
3.5855e-07
3.58179e-07
3.58416e-07
3.58632e-07
3.58573e-07
3.58803e-07
3.59426e-07
3.59796e-07
3.60323e-07
3.61048e-07
3.61843e-07
3.62742e-07
3.64041e-07
3.57928e-07
3.57926e-07
3.57924e-07
3.57923e-07
3.57921e-07
3.5792e-07
3.57922e-07
3.57926e-07
3.57932e-07
3.5794e-07
3.57958e-07
3.57965e-07
3.57976e-07
3.57999e-07
3.58014e-07
3.58026e-07
3.58033e-07
3.58051e-07
3.58074e-07
3.581e-07
3.58131e-07
3.58162e-07
3.58193e-07
3.58211e-07
3.58247e-07
3.58243e-07
3.58253e-07
3.58243e-07
3.58215e-07
3.58289e-07
3.58031e-07
3.58338e-07
3.58007e-07
3.58173e-07
3.5855e-07
3.58389e-07
3.58619e-07
3.59084e-07
3.59333e-07
3.59728e-07
3.60387e-07
3.61284e-07
3.62284e-07
3.63615e-07
3.58601e-07
3.58584e-07
3.58566e-07
3.58547e-07
3.58527e-07
3.58509e-07
3.58489e-07
3.58468e-07
3.58449e-07
3.58432e-07
3.58408e-07
3.58388e-07
3.58372e-07
3.58353e-07
3.58336e-07
3.58326e-07
3.58318e-07
3.58314e-07
3.58312e-07
3.58318e-07
3.58323e-07
3.58328e-07
3.5832e-07
3.58302e-07
3.58287e-07
3.58244e-07
3.58277e-07
3.58283e-07
3.58178e-07
3.5832e-07
3.57999e-07
3.58323e-07
3.57988e-07
3.58064e-07
3.58367e-07
3.58221e-07
3.58434e-07
3.58875e-07
3.59169e-07
3.59614e-07
3.60282e-07
3.61062e-07
3.61899e-07
3.63104e-07
3.57975e-07
3.57981e-07
3.57988e-07
3.57995e-07
3.58e-07
3.58007e-07
3.58014e-07
3.58019e-07
3.58035e-07
3.5804e-07
3.58041e-07
3.5805e-07
3.58044e-07
3.58051e-07
3.58053e-07
3.58055e-07
3.58062e-07
3.58078e-07
3.58099e-07
3.58124e-07
3.58144e-07
3.58165e-07
3.58172e-07
3.5817e-07
3.58181e-07
3.58173e-07
3.58094e-07
3.58147e-07
3.57955e-07
3.58135e-07
3.57762e-07
3.58089e-07
3.57798e-07
3.5782e-07
3.58181e-07
3.58027e-07
3.58233e-07
3.58628e-07
3.58894e-07
3.59245e-07
3.5982e-07
3.60647e-07
3.61581e-07
3.62826e-07
3.58641e-07
3.58625e-07
3.58607e-07
3.58588e-07
3.58568e-07
3.58548e-07
3.58525e-07
3.58503e-07
3.58472e-07
3.58442e-07
3.58419e-07
3.58394e-07
3.58376e-07
3.58364e-07
3.58351e-07
3.58338e-07
3.58326e-07
3.58316e-07
3.58305e-07
3.58298e-07
3.58273e-07
3.58258e-07
3.58222e-07
3.58195e-07
3.58144e-07
3.58155e-07
3.58071e-07
3.5814e-07
3.5793e-07
3.58146e-07
3.57758e-07