/*--------------------------------*- C++ -*----------------------------------*\
| =========                 |                                                 |
| \\      /  F ield         | OpenFOAM: The Open Source CFD Toolbox           |
|  \\    /   O peration     | Version:  v1912                                 |
|   \\  /    A nd           | Website:  www.openfoam.com                      |
|    \\/     M anipulation  |                                                 |
\*---------------------------------------------------------------------------*/
FoamFile
{
    version     2.0;
    format      ascii;
    class       volScalarField;
    location    "40";
    object      omega;
}
// * * * * * * * * * * * * * * * * * * * * * * * * * * * * * * * * * * * * * //

dimensions      [0 0 -1 0 0 0 0];


internalField   nonuniform List<scalar> 
14268
(
2.98345
2.98345
2.98344
2.98343
2.98343
2.98343
2.98343
2.98343
2.98344
2.98344
2.98345
2.98345
2.98344
2.98344
2.98343
2.98343
2.98343
2.98344
2.98344
2.98344
2.98344
2.98343
2.98343
2.98343
2.98343
2.98344
2.98344
2.98344
2.98344
2.98344
2.98346
2.9835
2.9836
2.98387
2.98442
2.98519
2.98645
2.98823
2.99013
2.98999
2.98878
2.98708
2.98569
2.98452
0.673777
0.673314
0.673846
0.672784
0.669936
0.666033
0.661272
0.656025
0.650642
0.645416
0.640739
0.637029
0.634622
0.634737
0.63523
0.633391
0.630194
0.626261
0.622744
0.620819
0.623714
0.629488
0.632417
0.630139
0.626258
0.622153
0.620425
0.626832
0.636808
0.640237
0.62978
0.609618
0.577399
0.534806
0.497754
0.474582
0.473382
0.481272
0.499169
0.512474
0.519152
0.585047
0.734678
1.0559
0.354645
0.354758
0.355006
0.355005
0.354657
0.35405
0.353241
0.352313
0.351334
0.350364
0.349483
0.348793
0.348375
0.348326
0.348329
0.348007
0.347392
0.34659
0.345866
0.3455
0.345858
0.346635
0.347094
0.346848
0.346222
0.345502
0.345195
0.345916
0.347024
0.347057
0.344846
0.340621
0.334315
0.326791
0.328405
0.337192
0.356494
0.382824
0.416279
0.424641
0.416306
0.4075
0.425219
0.482174
0.308131
0.308165
0.308228
0.308241
0.308188
0.308083
0.307934
0.307768
0.307595
0.30743
0.307275
0.307154
0.30709
0.307114
0.307137
0.307094
0.307006
0.306885
0.30677
0.306729
0.306847
0.307033
0.307146
0.307133
0.307053
0.30693
0.306901
0.307099
0.307374
0.307421
0.307068
0.30648
0.306004
0.307448
0.314967
0.328483
0.350903
0.379072
0.413458
0.421554
0.412381
0.399478
0.393883
0.428852
0.301705
0.301701
0.301707
0.30171
0.301699
0.301678
0.301649
0.301624
0.3016
0.301583
0.301561
0.301543
0.30154
0.301561
0.301575
0.301588
0.301594
0.301594
0.301585
0.301597
0.301652
0.301711
0.301742
0.301768
0.301784
0.301771
0.301785
0.301864
0.301959
0.302012
0.302047
0.302208
0.30283
0.30547
0.3137
0.327886
0.350767
0.379245
0.414036
0.422158
0.413048
0.398393
0.395326
0.388819
0.300848
0.300844
0.300839
0.300835
0.300835
0.300829
0.300821
0.300818
0.30082
0.300825
0.300823
0.30082
0.300829
0.300853
0.300865
0.300879
0.3009
0.300926
0.30094
0.30096
0.301004
0.301039
0.301054
0.301086
0.301119
0.301123
0.301142
0.301198
0.301255
0.30131
0.301409
0.301692
0.302457
0.305153
0.313681
0.327936
0.350562
0.37915
0.414255
0.421636
0.41241
0.40005
0.391247
0.394366
0.30074
0.300733
0.300727
0.300724
0.300724
0.300721
0.300716
0.300716
0.300721
0.300731
0.300735
0.300734
0.300744
0.300772
0.300784
0.300798
0.300823
0.300851
0.300865
0.300886
0.300932
0.300957
0.300968
0.301001
0.301036
0.301039
0.301063
0.301114
0.301167
0.301222
0.301332
0.301633
0.302426
0.305223
0.313637
0.327895
0.350863
0.379965
0.414365
0.421839
0.412738
0.398606
0.394391
0.385895
0.300723
0.300716
0.30071
0.300707
0.300705
0.300704
0.300703
0.300699
0.300709
0.300716
0.300723
0.300722
0.300731
0.30076
0.300771
0.300781
0.300804
0.300831
0.300848
0.300874
0.300915
0.300945
0.300957
0.300987
0.30102
0.301027
0.301046
0.301097
0.301149
0.301203
0.30131
0.301611
0.3024
0.305238
0.313737
0.327952
0.350846
0.379086
0.412354
0.42032
0.411888
0.399945
0.391582
0.391051
0.300715
0.300711
0.300706
0.3007
0.300699
0.300698
0.300696
0.300694
0.300704
0.300711
0.300719
0.300724
0.300741
0.300767
0.300771
0.300788
0.30082
0.300844
0.300861
0.300878
0.300914
0.30094
0.300952
0.300987
0.301024
0.301032
0.301048
0.301093
0.301141
0.301198
0.301312
0.301621
0.302418
0.305166
0.313567
0.32796
0.350482
0.378816
0.413096
0.420002
0.411147
0.398348
0.393717
0.387192
0.300715
0.300708
0.300701
0.300698
0.300698
0.300696
0.300689
0.300693
0.300696
0.300709
0.300714
0.300715
0.300736
0.300756
0.300772
0.300783
0.300808
0.300831
0.300841
0.300865
0.300919
0.300947
0.300953
0.300978
0.301008
0.301011
0.301035
0.301088
0.30114
0.301195
0.3013
0.3016
0.302401
0.305212
0.313742
0.32796
0.350739
0.379269
0.411687
0.41833
0.409723
0.39763
0.392464
0.388716
0.300718
0.300709
0.300702
0.3007
0.300699
0.300697
0.300693
0.300694
0.300704
0.300724
0.300737
0.300743
0.300755
0.300771
0.300784
0.300807
0.300841
0.300885
0.300897
0.300906
0.300938
0.300956
0.300969
0.301004
0.301045
0.301055
0.301064
0.301099
0.301145
0.301198
0.301317
0.301629
0.302408
0.305122
0.313645
0.32797
0.350943
0.379
0.409193
0.417531
0.409217
0.396493
0.391396
0.389291
0.300709
0.300704
0.3007
0.300695
0.300695
0.300696
0.3007
0.300702
0.300714
0.300721
0.30073
0.300732
0.300754
0.300782
0.300798
0.300814
0.300845
0.300858
0.300872
0.300896
0.300942
0.300975
0.300981
0.300998
0.301021
0.301023
0.301044
0.301098
0.30115
0.301209
0.301304
0.301601
0.302398
0.305222
0.31361
0.327865
0.350256
0.377887
0.408001
0.417306
0.409004
0.39526
0.391363
0.387221
0.300717
0.300713
0.300708
0.300703
0.300708
0.30071
0.300715
0.300722
0.300741
0.300764
0.300777
0.300778
0.300776
0.300795
0.300813
0.300842
0.300876
0.300915
0.300927
0.30094
0.300967
0.300986
0.301008
0.301047
0.301089
0.301098
0.301098
0.301126
0.301168
0.301219
0.301338
0.301643
0.302425
0.305256
0.313934
0.328154
0.350309
0.378388
0.406871
0.417788
0.409291
0.395359
0.389158
0.388494
0.300733
0.300728
0.300721
0.300729
0.300731
0.300732
0.300738
0.300742
0.300756
0.300771
0.300772
0.30077
0.30078
0.300812
0.300844
0.300857
0.300865
0.300885
0.300891
0.300918
0.300974
0.301014
0.301028
0.301035
0.30105
0.301047
0.301065
0.301122
0.301175
0.301235
0.301317
0.301609
0.302392
0.305178
0.313812
0.328367
0.351158
0.379412
0.40637
0.420584
0.412275
0.396217
0.389594
0.386337
0.300734
0.300736
0.300734
0.300733
0.300742
0.300747
0.30075
0.300765
0.300775
0.300793
0.300804
0.300805
0.300806
0.300812
0.30082
0.300849
0.300886
0.300921
0.300945
0.300959
0.300989
0.301002
0.301015
0.301049
0.301089
0.301097
0.301103
0.301138
0.301185
0.301238
0.301355
0.301656
0.302438
0.305161
0.313546
0.327767
0.350789
0.379905
0.406179
0.425549
0.416819
0.399968
0.387434
0.387003
0.300764
0.300764
0.300769
0.300776
0.300779
0.300785
0.300792
0.300791
0.300795
0.300795
0.30079
0.300784
0.300796
0.300821
0.300837
0.300843
0.300856
0.300875
0.300893
0.300935
0.300995
0.30103
0.301036
0.301043
0.301059
0.301055
0.301069
0.301126
0.30118
0.30124
0.301325
0.30162
0.302417
0.305255
0.313797
0.328402
0.350594
0.382192
0.410056
0.441008
0.431346
0.409231
0.389222
0.384703
0.300781
0.300793
0.300796
0.300802
0.300816
0.300828
0.300837
0.300849
0.300872
0.300889
0.300889
0.300886
0.300875
0.300881
0.300889
0.30091
0.300936
0.300971
0.300995
0.30102
0.301043
0.301056
0.301078
0.301118
0.301166
0.301184
0.301193
0.301228
0.301276
0.301325
0.301444
0.301753
0.302585
0.305371
0.314278
0.328894
0.352938
0.389126
0.424358
0.470214
0.458149
0.429924
0.395369
0.386844
0.300898
0.300903
0.300908
0.30092
0.30093
0.300941
0.300951
0.300958
0.300961
0.300961
0.300975
0.300979
0.300987
0.301004
0.301013
0.301021
0.301025
0.30104
0.301055
0.301093
0.301149
0.301178
0.301181
0.301179
0.301185
0.301181
0.301195
0.301267
0.301322
0.301376
0.301444
0.301714
0.302588
0.305536
0.314668
0.329154
0.355137
0.396586
0.449161
0.522254
0.503355
0.462676
0.4119
0.389676
0.301011
0.30102
0.301034
0.301056
0.301075
0.301081
0.301083
0.301083
0.301095
0.301105
0.301124
0.301136
0.301144
0.301148
0.301154
0.301176
0.301204
0.301242
0.301258
0.301255
0.30124
0.301233
0.301257
0.301297
0.301351
0.30137
0.301376
0.301404
0.301427
0.301457
0.301558
0.3019
0.302763
0.305828
0.315298
0.330191
0.358614
0.408712
0.485513
0.596316
0.573887
0.513454
0.443466
0.397689
0.301114
0.301112
0.301117
0.301135
0.301166
0.301182
0.30119
0.30119
0.301211
0.301232
0.301258
0.301293
0.301333
0.301362
0.301376
0.301388
0.301395
0.301413
0.301425
0.301447
0.301475
0.301496
0.3015
0.301501
0.301508
0.301518
0.301542
0.301618
0.301679
0.301747
0.301845
0.302197
0.303214
0.306079
0.315862
0.331918
0.364164
0.425871
0.522405
0.667547
0.65727
0.581315
0.49066
0.413881
0.301268
0.301281
0.301299
0.301321
0.301336
0.301336
0.301345
0.301366
0.301408
0.301453
0.30149
0.301519
0.301525
0.301519
0.301537
0.301579
0.301605
0.301629
0.301637
0.301642
0.301621
0.301613
0.301634
0.301664
0.301692
0.301702
0.301715
0.301732
0.301773
0.301824
0.301968
0.302295
0.303365
0.306267
0.317314
0.336104
0.368868
0.441733
0.555151
0.737524
0.728205
0.65276
0.552683
0.445028
0.300878
0.300867
0.30086
0.30086
0.30086
0.300857
0.300856
0.300857
0.300866
0.300866
0.300864
0.300856
0.300864
0.300885
0.300902
0.300915
0.30094
0.300962
0.300969
0.30098
0.301018
0.301046
0.301058
0.301089
0.301126
0.301134
0.301153
0.301212
0.301264
0.30133
0.301423
0.301742
0.302538
0.305765
0.318612
0.352428
0.445297
0.661223
0.940443
1.23355
1.22711
1.10424
0.920614
0.712108
0.30132
0.301294
0.30127
0.30125
0.301239
0.301244
0.30126
0.301291
0.301338
0.301396
0.301446
0.30148
0.301485
0.301494
0.301493
0.301504
0.301544
0.301603
0.301633
0.301631
0.301624
0.301617
0.301608
0.301641
0.301715
0.301773
0.301817
0.301887
0.301969
0.302115
0.302423
0.303293
0.305967
0.31811
0.372068
0.494407
0.826505
1.30813
1.71799
2.07735
2.33948
2.33315
2.06209
1.63442
0.31016
0.309825
0.309521
0.309278
0.3092
0.309342
0.309624
0.309985
0.31039
0.310803
0.311147
0.311314
0.31122
0.311008
0.310807
0.310647
0.310702
0.310931
0.311082
0.310904
0.310523
0.310216
0.310096
0.310241
0.310783
0.311467
0.311917
0.312248
0.312717
0.31362
0.315642
0.320934
0.33579
0.390197
0.589074
0.871145
1.29829
1.68147
1.92885
2.2172
2.60499
2.95735
3.16759
2.89706
0.375396
0.372948
0.370624
0.368677
0.367647
0.367778
0.368601
0.369736
0.371045
0.372418
0.373488
0.373652
0.372458
0.370796
0.369204
0.367832
0.36774
0.368543
0.36871
0.366936
0.36426
0.361945
0.360469
0.360437
0.362871
0.365853
0.367443
0.368823
0.370965
0.375296
0.386109
0.415444
0.477878
0.626115
1.02744
1.19235
1.14394
1.31415
1.57105
1.72108
1.91028
2.16839
2.43145
2.70165
0.594146
0.583463
0.572499
0.563759
0.558921
0.557121
0.557237
0.558377
0.560347
0.563054
0.565512
0.565932
0.563016
0.557946
0.553275
0.551137
0.552775
0.5562
0.557161
0.552357
0.542233
0.530826
0.522085
0.519951
0.525749
0.533648
0.538836
0.542274
0.549827
0.57401
0.646719
0.774771
0.923868
1.05419
1.25403
1.38234
1.50555
1.82722
2.08737
2.22582
2.41817
2.97649
3.41115
4.02561
1.03479
1.01677
0.997643
0.982721
0.973283
0.968705
0.965889
0.96495
0.969471
0.978528
0.989797
0.99933
1.00159
0.99152
0.974873
0.967226
0.973299
0.983394
1.0002
1.01629
1.01129
0.979497
0.946745
0.935433
0.935693
0.93015
0.922144
0.904252
0.881856
0.882246
0.937244
1.07153
1.28185
1.46609
1.58449
1.69718
1.69029
1.74331
2.12293
2.98662
3.61617
4.06087
3.68622
4.09273
1.38059
1.37955
1.39113
1.41235
1.43948
1.46956
1.49369
1.51552
1.543
1.57053
1.58804
1.58618
1.5762
1.55178
1.52641
1.51376
1.51186
1.51736
1.5218
1.51193
1.45397
1.36377
1.29621
1.25219
1.22742
1.2248
1.22214
1.18228
1.13813
1.10914
1.16776
1.31077
1.47624
1.55886
1.65906
1.70073
1.70714
1.70228
1.73077
2.00746
2.47643
2.84028
2.83217
3.76951
0.729845
0.734745
0.741691
0.741534
0.733718
0.721003
0.70406
0.68541
0.668748
0.654621
0.644598
0.640457
0.647948
0.673401
0.693746
0.691604
0.678718
0.663765
0.653159
0.654202
0.688673
0.733203
0.754545
0.753735
0.746744
0.736128
0.735841
0.76302
0.793729
0.814364
0.815646
0.802348
0.795001
0.869918
0.990392
1.0757
1.05602
0.926703
0.757306
0.704546
0.763771
0.84301
0.680935
0.567283
0.498033
0.500672
0.503452
0.504597
0.503056
0.499355
0.494873
0.490462
0.486616
0.483485
0.48187
0.482728
0.486414
0.490895
0.493849
0.49308
0.487311
0.479804
0.475383
0.476019
0.482808
0.493266
0.502245
0.506828
0.507887
0.509194
0.515531
0.525461
0.532888
0.52769
0.504515
0.46979
0.434468
0.429371
0.444774
0.464356
0.461213
0.429369
0.387976
0.369947
0.372953
0.377166
0.38019
0.425222
0.339545
0.339911
0.340333
0.340096
0.339329
0.338352
0.337369
0.336398
0.335414
0.334501
0.333747
0.333332
0.333548
0.334444
0.335123
0.334622
0.333482
0.332345
0.331759
0.331717
0.333273
0.335749
0.33752
0.33763
0.337398
0.337219
0.337896
0.340965
0.344386
0.343979
0.338774
0.332198
0.326847
0.325762
0.327128
0.329897
0.331137
0.329824
0.328281
0.32922
0.334843
0.348176
0.366239
0.426074
0.308955
0.309003
0.309055
0.308966
0.308884
0.308791
0.308671
0.308514
0.30835
0.308171
0.307969
0.307931
0.308099
0.30839
0.308583
0.308536
0.308563
0.308606
0.308594
0.308669
0.309185
0.309923
0.310424
0.310696
0.310955
0.311069
0.311409
0.312515
0.313846
0.314516
0.314412
0.314367
0.31439
0.314725
0.316743
0.319132
0.321659
0.323187
0.323665
0.325807
0.329552
0.336635
0.343945
0.368696
0.304692
0.304684
0.304662
0.304661
0.304628
0.304613
0.304604
0.304594
0.304594
0.304599
0.304586
0.304599
0.304673
0.304744
0.304806
0.304835
0.304898
0.305007
0.305164
0.30527
0.305362
0.305565
0.305727
0.305781
0.305942
0.306184
0.306399
0.306592
0.30687
0.30708
0.30735
0.30778
0.308372
0.308926
0.310385
0.313118
0.314965
0.316485
0.318152
0.320441
0.32533
0.34109
0.347677
0.375297
0.303422
0.303458
0.303495
0.303544
0.303558
0.303565
0.303572
0.30358
0.3036
0.303651
0.303684
0.303703
0.303837
0.303964
0.304063
0.304144
0.304219
0.304346
0.3045
0.304615
0.304856
0.30517
0.305422
0.305582
0.305847
0.306153
0.306431
0.306926
0.307529
0.308083
0.308333
0.308705
0.309221
0.309823
0.311494
0.313716
0.316054
0.316908
0.316288
0.317733
0.320586
0.328962
0.334843
0.343983
0.302582
0.302562
0.302593
0.302637
0.302672
0.302673
0.302646
0.302612
0.302622
0.302661
0.302713
0.302769
0.302846
0.302921
0.30298
0.303056
0.303129
0.303146
0.303179
0.303226
0.303243
0.303314
0.303393
0.303504
0.303612
0.303785
0.304031
0.304295
0.304544
0.304796
0.305058
0.305393
0.305928
0.306905
0.308454
0.310634
0.311514
0.312507
0.313489
0.316225
0.320495
0.331097
0.338963
0.349231
0.301901
0.30189
0.301939
0.301998
0.302026
0.302017
0.302001
0.301996
0.302014
0.302045
0.30209
0.302158
0.302259
0.302395
0.30248
0.302526
0.302538
0.302516
0.30246
0.302407
0.302535
0.302718
0.302921
0.303125
0.303326
0.303505
0.303693
0.304056
0.304526
0.305042
0.305463
0.305878
0.306542
0.307634
0.309264
0.310797
0.312811
0.313526
0.313172
0.314494
0.317023
0.323222
0.329477
0.335346
0.301639
0.301635
0.301623
0.301642
0.301664
0.301676
0.301674
0.30166
0.301644
0.301646
0.301662
0.301697
0.301744
0.301812
0.301864
0.30191
0.301946
0.301986
0.302013
0.302035
0.302082
0.302157
0.302295
0.302463
0.30263
0.30279
0.302917
0.3031
0.303291
0.303472
0.303718
0.304138
0.304799
0.305625
0.30675
0.308423
0.30902
0.309903
0.311017
0.313934
0.317486
0.32443
0.331439
0.337555
0.301224
0.301223
0.301221
0.301238
0.301255
0.301267
0.301269
0.30126
0.301247
0.301246
0.301262
0.301301
0.301354
0.301432
0.301505
0.301555
0.301576
0.301606
0.30165
0.301704
0.301806
0.30196
0.302168
0.30238
0.302572
0.302778
0.303005
0.303283
0.303633
0.304075
0.30452
0.304979
0.305738
0.306792
0.308182
0.309617
0.31038
0.311058
0.311099
0.312708
0.314917
0.319184
0.324005
0.329344
0.301097
0.301109
0.301109
0.301113
0.301122
0.301134
0.301136
0.301128
0.301116
0.301108
0.301107
0.30112
0.301139
0.30117
0.301216
0.301266
0.301325
0.301393
0.301448
0.301487
0.30153
0.301609
0.301737
0.301881
0.302032
0.302197
0.302324
0.302438
0.302527
0.302646
0.302901
0.30333
0.303957
0.304714
0.305476
0.306522
0.307071
0.308168
0.309358
0.311923
0.314785
0.319826
0.324909
0.328591
0.300869
0.300907
0.300932
0.300947
0.30096
0.300971
0.30098
0.300979
0.300974
0.300969
0.300973
0.300992
0.301025
0.301069
0.301122
0.301173
0.301224
0.301284
0.301351
0.30141
0.301489
0.301583
0.301709
0.301868
0.302034
0.302212
0.302419
0.302648
0.302949
0.303288
0.303739
0.304156
0.304916
0.305797
0.306785
0.307906
0.308339
0.309252
0.30961
0.311215
0.313048
0.316113
0.319611
0.323449
0.300768
0.300788
0.300805
0.300823
0.300841
0.300853
0.300861
0.30086
0.30086
0.300863
0.300867
0.300875
0.300892
0.300908
0.300937
0.300982
0.30104
0.301102
0.301152
0.30118
0.301196
0.30125
0.301352
0.30148
0.30161
0.301737
0.301859
0.301965
0.302105
0.302233
0.302525
0.302842
0.303327
0.303916
0.304442
0.305093
0.305716
0.307234
0.308415
0.310533
0.312825
0.316439
0.319818
0.32161
0.300644
0.300669
0.300689
0.300708
0.300726
0.300741
0.300757
0.300767
0.300779
0.300795
0.300816
0.300838
0.300865
0.300894
0.300929
0.300967
0.301006
0.301048
0.301096
0.301147
0.301207
0.301276
0.301364
0.301467
0.301584
0.301719
0.301896
0.302076
0.302364
0.302591
0.303078
0.303383
0.304078
0.304864
0.305545
0.306477
0.306912
0.308101
0.308555
0.310019
0.311507
0.313684
0.316146
0.318552
0.300595
0.300594
0.300595
0.300601
0.300608
0.30062
0.300637
0.300656
0.300675
0.300693
0.30071
0.300725
0.300747
0.300771
0.300795
0.300825
0.300865
0.300906
0.30094
0.300971
0.301018
0.30107
0.301141
0.301235
0.301341
0.301437
0.301537
0.301633
0.301853
0.301935
0.302302
0.302412
0.302794
0.303259
0.303638
0.304297
0.305048
0.306681
0.307669
0.309412
0.311267
0.313797
0.316028
0.317051
0.300537
0.300541
0.300546
0.300554
0.300564
0.30058
0.300603
0.300629
0.300656
0.300684
0.300714
0.300742
0.300772
0.300801
0.300831
0.300858
0.300886
0.300915
0.300953
0.300994
0.301045
0.301103
0.301172
0.301239
0.301327
0.301412
0.301547
0.301675
0.301945
0.30209
0.302559
0.302778
0.303348
0.304137
0.304589
0.305446
0.30593
0.307252
0.307744
0.309152
0.310191
0.311648
0.313344
0.315005
0.300504
0.300507
0.30051
0.300516
0.300527
0.300542
0.300559
0.300574
0.300591
0.30061
0.30063
0.300649
0.300671
0.300694
0.300717
0.300739
0.300763
0.300787
0.300809
0.300836
0.300873
0.30092
0.300985
0.301051
0.301134
0.301222
0.301381
0.30152
0.301846
0.301907
0.302327
0.302364
0.302611
0.303053
0.303254
0.303906
0.304618
0.306147
0.306983
0.308341
0.309796
0.311617
0.313119
0.314044
0.300489
0.300493
0.300498
0.300507
0.300518
0.30053
0.300545
0.300564
0.300591
0.30062
0.30065
0.300679
0.300708
0.300735
0.300761
0.300782
0.300802
0.300816
0.300844
0.300874
0.30092
0.300968
0.301031
0.30108
0.301154
0.301232
0.30137
0.301466
0.301744
0.301802
0.302197
0.302335
0.30273
0.303545
0.303952
0.304701
0.305225
0.306501
0.307001
0.308137
0.308889
0.309913
0.311118
0.312125
0.300476
0.300482
0.300489
0.300498
0.30051
0.300523
0.300538
0.300551
0.30056
0.300571
0.300583
0.300596
0.300612
0.300631
0.300651
0.300666
0.300681
0.300695
0.300711
0.300736
0.300776
0.300825
0.300888
0.300953
0.301039
0.301101
0.301251
0.301344
0.301664
0.301784
0.30217
0.302387
0.302648
0.30318
0.303282
0.303741
0.304326
0.30562
0.306258
0.30724
0.308275
0.309774
0.310911
0.311379
0.300462
0.30047
0.300479
0.300489
0.300499
0.300509
0.300519
0.300531
0.300546
0.300568
0.300591
0.300615
0.300639
0.300661
0.300681
0.300696
0.300714
0.300724
0.30074
0.300766
0.300804
0.300846
0.300907
0.300965
0.301057
0.30114
0.301302
0.301384
0.301653
0.301694
0.302001
0.302212
0.302414
0.303056
0.303366
0.304069
0.304651
0.305769
0.306204
0.307023
0.307862
0.30848
0.309341
0.309962
0.30045
0.300458
0.300465
0.300473
0.30048
0.300489
0.300498
0.300508
0.300517
0.300525
0.300533
0.300541
0.300552
0.300564
0.300576
0.300586
0.300596
0.30061
0.300633
0.300663
0.300711
0.300757
0.300815
0.300863
0.300939
0.300995
0.301154
0.301227
0.301521
0.30161
0.301897
0.302312
0.302467
0.303047
0.303357
0.30369
0.304114
0.305054
0.305542
0.306269
0.307116
0.308159
0.309014
0.309289
0.300447
0.300455
0.300463
0.30047
0.300477
0.300485
0.300493
0.300501
0.300509
0.30052
0.300534
0.300551
0.300567
0.300585
0.3006
0.300609
0.300618
0.300635
0.300656
0.300685
0.30073
0.300777
0.300842
0.300899
0.300995
0.301065
0.301203
0.301264
0.301532
0.301634
0.301865
0.302254
0.302243
0.302745
0.303107
0.303546
0.304106
0.305066
0.305475
0.30612
0.306889
0.307322
0.30793
0.308291
0.300432
0.300435
0.300439
0.300442
0.300447
0.300452
0.300457
0.300462
0.300466
0.300469
0.300472
0.300478
0.300484
0.300491
0.300501
0.300513
0.300531
0.300549
0.300572
0.300596
0.300629
0.300668
0.300722
0.300774
0.300863
0.300918
0.301113
0.301187
0.301371
0.301578
0.301746
0.302183
0.302204
0.30266
0.303222
0.303512
0.303904
0.304571
0.304949
0.305483
0.306147
0.306788
0.30742
0.307657
0.300422
0.300427
0.300432
0.300437
0.300442
0.300446
0.300451
0.300455
0.30046
0.300465
0.300472
0.300485
0.300495
0.300508
0.300523
0.30054
0.300559
0.30058
0.300608
0.300642
0.300686
0.300729
0.300786
0.300836
0.300929
0.300993
0.301132
0.301231
0.301405
0.301641
0.301711
0.302195
0.302159
0.302532
0.303064
0.303282
0.303692
0.30444
0.304864
0.305364
0.305955
0.306357
0.306795
0.306989
0.300407
0.300406
0.300406
0.300406
0.300408
0.300409
0.30041
0.300412
0.300413
0.300414
0.300414
0.300417
0.300424
0.300434
0.300446
0.300459
0.300472
0.300488
0.300507
0.300531
0.300563
0.300599
0.300656
0.300713
0.300812
0.300892
0.301014
0.301121
0.301273
0.301549
0.30156
0.302044
0.302044
0.302375
0.303048
0.303161
0.303539
0.304121
0.304421
0.304788
0.305296
0.305795
0.306312
0.306509
0.300388
0.30039
0.300392
0.300395
0.300397
0.300399
0.300401
0.300404
0.300405
0.300413
0.300419
0.300428
0.300445
0.300458
0.300475
0.300498
0.300523
0.300547
0.30057
0.300597
0.30063
0.300667
0.30072
0.300772
0.300849
0.300907
0.301066
0.301199
0.301301
0.301624
0.301586
0.302082
0.302078
0.302334
0.302933
0.303046
0.303384
0.303924
0.304249
0.304645
0.305157
0.305521
0.305887
0.305972
0.300378
0.300374
0.30037
0.300368
0.300366
0.300365
0.300364
0.300365
0.300364
0.300365
0.300369
0.300374
0.300382
0.300391
0.300401
0.300413
0.300424
0.300437
0.300454
0.300476
0.300508
0.300551
0.300616
0.300684
0.300792
0.300882
0.300956
0.301152
0.301165
0.301496
0.301431
0.30193
0.30196
0.30216
0.302801
0.302887
0.3032
0.303682
0.303965
0.304258
0.304655
0.3051
0.305528
0.305623
0.30035
0.300349
0.30035
0.300351
0.300352
0.300354
0.300355
0.300362
0.300366
0.30037
0.300382
0.300391
0.300405
0.300423
0.300443
0.300465
0.300482
0.300499
0.300517
0.300542
0.300573
0.300613
0.300663
0.30072
0.300786
0.300907
0.300977
0.30119
0.301197
0.301559
0.301484
0.301962
0.302009
0.302168
0.302747
0.302815
0.303086
0.303498
0.303768
0.304059
0.304489
0.30486
0.305157
0.305172
0.300346
0.300341
0.300336
0.300331
0.300329
0.300328
0.300326
0.30033
0.300333
0.300333
0.300337
0.300341
0.300346
0.300354
0.300362
0.300371
0.30038
0.300392
0.300409
0.300439
0.300481
0.300534
0.300594
0.300668
0.300744
0.300857
0.300907
0.30113
0.301087
0.301457
0.301354
0.301807
0.301899
0.302003
0.302567
0.302646
0.302889
0.303295
0.303592
0.303869
0.304228
0.304586
0.304894
0.304866
0.300312
0.300311
0.30031
0.300311
0.300312
0.300317
0.300321
0.300325
0.300334
0.300338
0.300347
0.30036
0.300375
0.300392
0.300407
0.300421
0.300433
0.30045
0.300469
0.3005
0.300533
0.30058
0.300629
0.300704
0.300767
0.300897
0.300911
0.301155
0.301108
0.301498
0.301407
0.301833
0.301942
0.302026
0.30253
0.302592
0.302806
0.303148
0.303438
0.30369
0.304051
0.304354
0.30449
0.304441
0.300315
0.300309
0.300302
0.300298
0.300297
0.300298
0.300301
0.3003
0.300303
0.300305
0.300308
0.300312
0.300316
0.300321
0.300327
0.300333
0.300342
0.30036
0.300388
0.300426
0.300473
0.300532
0.300579
0.300666
0.300705
0.300862
0.300863
0.30111
0.301029
0.301413
0.301303
0.30168
0.30183
0.301874
0.302345
0.302436
0.302631
0.303
0.303317
0.3036
0.303904
0.304165
0.304248
0.304134
0.300279
0.300277
0.300277
0.300279
0.300285
0.300287
0.300294
0.300296
0.300302
0.300312
0.300324
0.300336
0.300346
0.300356
0.300366
0.300378
0.300392
0.300412
0.300436
0.300474
0.300499
0.300549
0.3006
0.300684
0.30072
0.30087
0.300854
0.301128
0.301046
0.301439
0.301348
0.301697
0.301868
0.301899
0.302314
0.302407
0.302591
0.302918
0.303181
0.303391
0.303666
0.303827
0.303817
0.303725
0.300283
0.300277
0.300275
0.300273
0.300276
0.300275
0.300277
0.300279
0.30028
0.300284
0.300287
0.300289
0.300289
0.30029
0.300295
0.300308
0.30033
0.300361
0.300395
0.300438
0.30048
0.300545
0.300584
0.300678
0.300695
0.300859
0.300811
0.301089
0.300985
0.301363
0.301264
0.301552
0.301758
0.301763
0.302154
0.302284
0.302455
0.302776
0.303066
0.303307
0.303524
0.303623
0.303579
0.303429
0.30025
0.30025
0.300253
0.300258
0.300262
0.300267
0.30027
0.300276
0.300284
0.300291
0.300298
0.300304
0.30031
0.300319
0.30033
0.300344
0.300361
0.300386
0.300407
0.300445
0.300481
0.300535
0.300563
0.30067
0.300665
0.30086
0.300811
0.301099
0.300997
0.301371
0.301295
0.301556
0.301793
0.301792
0.302141
0.302284
0.302438
0.302711
0.302897
0.303029
0.303183
0.303228
0.303184
0.303097
0.30026
0.30026
0.300259
0.300261
0.300258
0.30026
0.300262
0.300263
0.300264
0.300264
0.300263
0.300263
0.300266
0.300278
0.300295
0.300319
0.300338
0.300367
0.300402
0.30044
0.300467
0.300527
0.30056
0.300669
0.300667
0.300841
0.300774
0.301063
0.30095
0.301303
0.301237
0.301436
0.301699
0.301689
0.302005
0.302157
0.302292
0.302535
0.302732
0.302894
0.303014
0.303037
0.302983
0.302859
0.300234
0.300237
0.300238
0.300241
0.300242
0.300246
0.300252
0.300259
0.300263
0.300266
0.30027
0.300275
0.300283
0.300292
0.300303
0.300321
0.300347
0.300378
0.300406
0.30044
0.300473
0.300533
0.300561
0.300658
0.300653
0.300836
0.300768
0.301056
0.300946
0.301294
0.301245
0.301432
0.301711
0.301707
0.301975
0.302121
0.302232
0.302414
0.302577
0.302634
0.302706
0.302713
0.302674
0.302612
0.300251
0.30025
0.30025
0.300245
0.300245
0.300244
0.300245
0.300246
0.300247
0.300247
0.300249
0.300257
0.300268
0.300283
0.300301
0.300321
0.30034
0.300375
0.300394
0.300436
0.300462
0.300526
0.300549
0.300656
0.300631
0.300826
0.300748
0.301035
0.300928
0.301249
0.30122
0.301361
0.30163
0.301622
0.301849
0.301993
0.302087
0.302249
0.302387
0.30248
0.30257
0.30258
0.302532
0.30244
0.300224
0.300224
0.300225
0.300227
0.300231
0.300236
0.300238
0.300241
0.300243
0.300248
0.300254
0.300262
0.300272
0.300286
0.300304
0.300321
0.300341
0.300363
0.300389
0.300426
0.300457
0.300519
0.300541
0.300657
0.300627
0.300817
0.300742
0.301026
0.300923
0.301226
0.301212
0.301335
0.301594
0.30159
0.301781
0.301913
0.301988
0.302114
0.302253
0.302299
0.302335
0.302331
0.302291
0.302241
0.30024
0.300237
0.300233
0.300233
0.300234
0.300236
0.300236
0.300236
0.300238
0.300243
0.30025
0.300259
0.30027
0.30028
0.300294
0.300317
0.300342
0.300376
0.3004
0.300436
0.300458
0.300521
0.300533
0.300653
0.300615
0.300808
0.300734
0.301006
0.300908
0.30118
0.30118
0.30128
0.301516
0.301515
0.301674
0.301806
0.30188
0.301999
0.302106
0.30217
0.302232
0.30224
0.302199
0.302123
0.300219
0.300219
0.300221
0.300223
0.300225
0.300227
0.30023
0.300233
0.300237
0.300242
0.300248
0.300256
0.300268
0.300285
0.300302
0.300317
0.300337
0.300372
0.300395
0.300427
0.300457
0.300526
0.300533
0.300645
0.300608
0.300807
0.300727
0.300985
0.300898
0.301145
0.301158
0.30124
0.301459
0.301464
0.301595
0.301728
0.3018
0.3019
0.302008
0.302037
0.30205
0.302045
0.302008
0.301958
0.300228
0.300226
0.300227
0.300229
0.300229
0.300229
0.30023
0.300232
0.300237
0.300242
0.300249
0.300258
0.300268
0.300285
0.300295
0.300321
0.300337
0.30036
0.300385
0.300426
0.30046
0.300517
0.300524
0.300638
0.30061
0.300797
0.30072
0.300958
0.300882
0.301108
0.301131
0.301201
0.301399
0.301415
0.301526
0.301659
0.301729
0.301819
0.301896
0.30193
0.30197
0.301986
0.301954
0.301877
0.300218
0.300219
0.30022
0.300221
0.300224
0.300227
0.300229
0.300233
0.300237
0.300242
0.300248
0.300259
0.300267
0.300278
0.300299
0.300322
0.300346
0.300376
0.300397
0.300434
0.300454
0.300508
0.300523
0.300646
0.300608
0.300782
0.300706
0.300939
0.300876
0.301076
0.30111
0.301167
0.301346
0.301376
0.301474
0.301601
0.301667
0.301738
0.301809
0.30182
0.301836
0.301825
0.30178
0.301717
0.300224
0.300225
0.300226
0.300227
0.300227
0.300228
0.30023
0.300232
0.300237
0.300243
0.300252
0.300258
0.300272
0.300286
0.300304
0.300312
0.300339
0.300362
0.300392
0.300429
0.300447
0.300502
0.300536
0.300645
0.300603
0.300771
0.3007
0.30092
0.30086
0.301035
0.301083
0.301137
0.301296
0.301339
0.301426
0.301544
0.301601
0.301656
0.301706
0.301729
0.301757
0.301769
0.301724
0.301635
0.30022
0.30022
0.300222
0.300223
0.300225
0.300227
0.300229
0.300233
0.300238
0.300246
0.300254
0.300264
0.300274
0.300288
0.300301
0.300327
0.300338
0.300363
0.300385
0.30042
0.300447
0.300532
0.300538
0.300643
0.300612
0.300756
0.300695
0.300894
0.300849
0.301003
0.30106
0.301113
0.301248
0.301303
0.301378
0.301479
0.301528
0.301574
0.301625
0.301643
0.301657
0.301626
0.301563
0.301494
0.300222
0.300222
0.300223
0.300224
0.300227
0.300229
0.300232
0.300235
0.30024
0.300246
0.300252
0.300263
0.300276
0.300291
0.300308
0.300333
0.300355
0.30038
0.300393
0.30043
0.300478
0.300534
0.300517
0.300623
0.300598
0.300748
0.300691
0.300874
0.300839
0.300969
0.301033
0.301085
0.301199
0.301263
0.301331
0.301417
0.301464
0.301509
0.301555
0.301574
0.301578
0.301551
0.301489
0.301411
0.300223
0.300225
0.300227
0.300229
0.300231
0.300232
0.300235
0.300238
0.300243
0.300249
0.300263
0.300271
0.300284
0.300297
0.300313
0.30033
0.300356
0.300381
0.300415
0.300451
0.300467
0.300505
0.300509
0.300596
0.300591
0.300735
0.300684
0.300848
0.300824
0.300938
0.301012
0.301063
0.301161
0.301228
0.301292
0.301367
0.301415
0.301459
0.3015
0.301511
0.301503
0.30146
0.301397
0.301329
0.30023
0.300229
0.300229
0.30023
0.30023
0.300232
0.300234
0.300237
0.300239
0.300244
0.300252
0.300265
0.300276
0.300291
0.300307
0.300325
0.300344
0.300369
0.300383
0.300406
0.300437
0.300495
0.300507
0.300595
0.3006
0.300719
0.300684
0.300836
0.300821
0.30092
0.300997
0.301047
0.30113
0.301199
0.301259
0.301326
0.301374
0.301414
0.301449
0.301453