/*--------------------------------*- C++ -*----------------------------------*\
| =========                 |                                                 |
| \\      /  F ield         | OpenFOAM: The Open Source CFD Toolbox           |
|  \\    /   O peration     | Version:  v1912                                 |
|   \\  /    A nd           | Website:  www.openfoam.com                      |
|    \\/     M anipulation  |                                                 |
\*---------------------------------------------------------------------------*/
FoamFile
{
    version     2.0;
    format      ascii;
    class       volScalarField;
    location    "50";
    object      omega;
}
// * * * * * * * * * * * * * * * * * * * * * * * * * * * * * * * * * * * * * //

dimensions      [0 0 -1 0 0 0 0];


internalField   nonuniform List<scalar> 
14268
(
44.5916
44.5916
44.5916
44.5916
44.5916
44.5916
44.5916
44.5916
44.5916
44.5916
44.5916
44.5916
44.5916
44.5916
44.5916
44.5916
44.5916
44.5916
44.5916
44.5916
44.5916
44.5916
44.5916
44.5916
44.5916
44.5916
44.5916
44.5916
44.5916
44.5916
44.5916
44.5916
44.5916
44.5916
44.5916
44.5916
44.5916
44.5916
44.5916
44.5916
44.5916
44.5916
44.5916
44.5916
44.5916
44.5916
44.5916
44.5916
44.5916
44.5916
44.5916
44.5916
44.5916
44.5916
44.5916
44.5916
44.5916
44.5916
44.5916
44.5916
44.5916
44.5916
44.5916
44.5916
44.5916
44.5916
44.5916
44.5916
44.5916
44.5916
44.5916
44.5916
44.5916
44.5916
44.5916
44.5916
44.5916
44.5916
44.5916
44.5916
44.5916
44.5916
44.5916
44.5916
44.5916
44.5916
44.5916
44.5916
44.5916
44.5916
44.5916
44.5916
44.5916
44.5916
44.5916
44.5916
44.5916
44.5916
44.5916
44.5916
44.5916
44.5916
44.5916
44.5916
44.5916
44.5916
44.5916
44.5916
44.5916
44.5916
44.5916
44.5916
44.5916
44.5916
44.5916
44.5916
44.5916
44.5916
44.5916
44.5916
44.5916
44.5916
44.5916
44.5916
44.5916
44.5916
44.5916
44.5916
44.5916
44.5916
44.5916
44.5916
44.5916
44.5916
44.5916
44.5916
44.5916
44.5916
44.5916
44.5916
44.5916
44.5916
44.5916
44.5916
44.5916
44.5916
44.5916
44.5916
44.5916
44.5916
44.5916
44.5916
44.5916
44.5916
44.5916
44.5916
44.5916
44.5916
44.5916
44.5916
44.5916
44.5916
44.5916
44.5916
7.94967
7.94621
7.94291
7.93976
7.93676
7.93389
7.93115
7.92854
7.92605
7.92368
7.92142
7.91927
7.91722
7.91527
7.91341
7.91165
7.90997
7.90837
7.90685
7.90541
7.90403
7.90273
7.90149
7.90031
7.8992
7.89814
7.89713
7.89618
7.89527
7.89441
7.8936
7.89283
7.8921
7.89141
7.89075
7.89013
7.88955
7.88899
7.88847
7.88797
7.8875
7.88706
7.88664
7.88624
7.88587
7.88552
7.88518
7.88487
7.88457
7.88429
7.88403
7.88378
7.88355
7.88333
7.88312
7.88293
7.88274
7.88257
7.88241
7.88225
7.88211
7.88198
7.88185
7.88173
7.88162
7.88151
7.88142
7.88132
7.88124
7.88116
7.88108
7.88101
7.88094
7.88088
7.88082
7.88077
7.88072
7.88067
7.88062
7.88058
7.88054
7.88051
7.88047
7.88044
7.88041
7.88039
7.88036
7.88034
7.88031
7.88029
7.88028
7.88026
7.88024
7.88023
7.88021
7.8802
7.88019
7.88017
7.88016
7.88015
7.88015
7.88014
7.88013
7.88012
7.88012
7.88011
7.8801
7.8801
7.88009
7.88009
7.88009
7.88008
7.88008
7.88008
7.88007
7.88007
7.88007
7.88007
7.88007
7.88006
7.88006
7.88006
7.88006
7.88006
7.88006
7.88006
7.88006
7.88006
7.88006
7.88006
7.88006
7.88006
7.88006
7.88006
7.88006
7.88005
7.88006
7.88005
7.88006
7.88005
7.88005
7.88004
7.88005
7.88004
7.88004
7.88004
7.88004
7.88004
7.88004
7.88004
7.88004
7.88004
7.88004
7.88004
7.88004
7.88004
7.88004
7.88004
7.88004
7.88004
7.88004
7.88004
7.87999
7.87542
2.75855
2.75651
2.75455
2.75269
2.75091
2.74922
2.7476
2.74606
2.7446
2.7432
2.74187
2.7406
2.73939
2.73825
2.73715
2.73612
2.73513
2.73419
2.7333
2.73245
2.73164
2.73088
2.73015
2.72946
2.72881
2.72819
2.7276
2.72704
2.72651
2.72601
2.72553
2.72508
2.72465
2.72425
2.72386
2.7235
2.72316
2.72284
2.72253
2.72224
2.72196
2.72171
2.72146
2.72123
2.72101
2.72081
2.72061
2.72043
2.72025
2.72009
2.71994
2.71979
2.71966
2.71953
2.71941
2.71929
2.71919
2.71908
2.71899
2.7189
2.71882
2.71874
2.71866
2.71859
2.71853
2.71847
2.71841
2.71836
2.71831
2.71826
2.71822
2.71817
2.71814
2.7181
2.71806
2.71803
2.718
2.71798
2.71795
2.71793
2.7179
2.71788
2.71786
2.71784
2.71783
2.71781
2.7178
2.71778
2.71777
2.71776
2.71775
2.71774
2.71773
2.71772
2.71771
2.7177
2.71769
2.71769
2.71768
2.71768
2.71767
2.71767
2.71766
2.71766
2.71765
2.71765
2.71765
2.71764
2.71764
2.71764
2.71764
2.71763
2.71763
2.71763
2.71763
2.71763
2.71763
2.71762
2.71762
2.71762
2.71762
2.71762
2.71762
2.71762
2.71762
2.71762
2.71762
2.71762
2.71762
2.71762
2.71762
2.71762
2.71762
2.71762
2.71762
2.71762
2.71762
2.71762
2.71762
2.71761
2.71762
2.71761
2.71761
2.71761
2.71761
2.71761
2.71761
2.71761
2.71761
2.71761
2.71761
2.71761
2.71761
2.71761
2.71761
2.71761
2.71761
2.71761
2.71761
2.71761
2.71761
2.71761
2.71754
2.71479
1.33652
1.33504
1.33364
1.33229
1.33102
1.3298
1.32864
1.32753
1.32648
1.32548
1.32453
1.32362
1.32276
1.32194
1.32115
1.32041
1.31971
1.31903
1.3184
1.31779
1.31722
1.31667
1.31615
1.31566
1.31519
1.31475
1.31433
1.31393
1.31355
1.3132
1.31286
1.31254
1.31223
1.31195
1.31167
1.31141
1.31117
1.31094
1.31072
1.31052
1.31032
1.31014
1.30996
1.3098
1.30964
1.3095
1.30936
1.30923
1.3091
1.30899
1.30888
1.30878
1.30868
1.30859
1.3085
1.30842
1.30835
1.30827
1.30821
1.30814
1.30808
1.30803
1.30797
1.30793
1.30788
1.30784
1.3078
1.30776
1.30772
1.30769
1.30766
1.30763
1.3076
1.30757
1.30755
1.30753
1.30751
1.30749
1.30747
1.30745
1.30743
1.30742
1.30741
1.30739
1.30738
1.30737
1.30736
1.30735
1.30734
1.30733
1.30732
1.30732
1.30731
1.3073
1.3073
1.30729
1.30729
1.30728
1.30728
1.30727
1.30727
1.30727
1.30726
1.30726
1.30726
1.30725
1.30725
1.30725
1.30725
1.30725
1.30725
1.30724
1.30724
1.30724
1.30724
1.30724
1.30724
1.30724
1.30724
1.30724
1.30724
1.30723
1.30723
1.30723
1.30723
1.30723
1.30723
1.30723
1.30723
1.30723
1.30723
1.30723
1.30723
1.30723
1.30723
1.30723
1.30723
1.30723
1.30723
1.30723
1.30723
1.30723
1.30723
1.30723
1.30723
1.30722
1.30722
1.30722
1.30722
1.30722
1.30722
1.30722
1.30722
1.30722
1.30722
1.30722
1.30722
1.30722
1.30722
1.30722
1.30722
1.30722
1.30716
1.30536
0.784931
0.783842
0.782804
0.781816
0.780874
0.779978
0.779124
0.778312
0.777539
0.776803
0.776103
0.775437
0.774804
0.774202
0.77363
0.773086
0.772569
0.772078
0.771612
0.771169
0.770748
0.770349
0.769971
0.769611
0.769271
0.768947
0.768641
0.768351
0.768075
0.767814
0.767567
0.767333
0.767112
0.766902
0.766703
0.766515
0.766338
0.76617
0.766011
0.76586
0.765718
0.765584
0.765458
0.765338
0.765225
0.765118
0.765018
0.764923
0.764833
0.764749
0.764669
0.764594
0.764524
0.764457
0.764395
0.764336
0.764281
0.764228
0.764179
0.764133
0.76409
0.764049
0.764011
0.763975
0.763942
0.76391
0.76388
0.763853
0.763827
0.763802
0.763779
0.763758
0.763738
0.763719
0.763701
0.763685
0.76367
0.763655
0.763642
0.76363
0.763618
0.763607
0.763597
0.763587
0.763579
0.76357
0.763563
0.763556
0.763549
0.763543
0.763537
0.763532
0.763527
0.763522
0.763518
0.763514
0.76351
0.763507
0.763504
0.763501
0.763498
0.763496
0.763493
0.763491
0.763489
0.763487
0.763486
0.763484
0.763483
0.763482
0.76348
0.763479
0.763478
0.763477
0.763477
0.763476
0.763475
0.763475
0.763474
0.763474
0.763473
0.763473
0.763473
0.763472
0.763472
0.763472
0.763472
0.763472
0.763472
0.763471
0.763472
0.763472
0.763473
0.763472
0.763473
0.763471
0.763473
0.763471
0.763472
0.763469
0.76347
0.763467
0.763468
0.763465
0.763466
0.763464
0.763465
0.763464
0.763464
0.763464
0.763464
0.763464
0.763464
0.763464
0.763465
0.763465
0.763465
0.763465
0.763465
0.763465
0.763464
0.763463
0.763403
0.762163
0.526819
0.526032
0.525283
0.52457
0.523892
0.523246
0.522632
0.522048
0.521492
0.520964
0.520462
0.519984
0.51953
0.519099
0.518689
0.5183
0.51793
0.517579
0.517246
0.516929
0.516629
0.516344
0.516074
0.515818
0.515575
0.515345
0.515126
0.514919
0.514723
0.514537
0.514361
0.514194
0.514036
0.513887
0.513745
0.513612
0.513485
0.513365
0.513252
0.513145
0.513044
0.512949
0.512859
0.512773
0.512693
0.512617
0.512546
0.512478
0.512415
0.512355
0.512298
0.512245
0.512194
0.512147
0.512103
0.512061
0.512021
0.511984
0.51195
0.511917
0.511886
0.511857
0.51183
0.511804
0.51178
0.511758
0.511737
0.511717
0.511699
0.511681
0.511665
0.51165
0.511636
0.511622
0.51161
0.511598
0.511587
0.511577
0.511568
0.511559
0.51155
0.511543
0.511535
0.511529
0.511522
0.511516
0.511511
0.511506
0.511501
0.511497
0.511493
0.511489
0.511485
0.511482
0.511479
0.511476
0.511474
0.511471
0.511469
0.511467
0.511465
0.511463
0.511462
0.51146
0.511459
0.511458
0.511456
0.511455
0.511454
0.511453
0.511453
0.511452
0.511451
0.51145
0.51145
0.511449
0.511449
0.511448
0.511448
0.511448
0.511447
0.511447
0.511447
0.511447
0.511447
0.511446
0.511447
0.511446
0.511447
0.511446
0.511447
0.511446
0.511447
0.511446
0.511447
0.511446
0.511447
0.511446
0.511447
0.511445
0.511446
0.511443
0.511444
0.511442
0.511442
0.511441
0.511441
0.51144
0.511441
0.51144
0.511441
0.51144
0.511441
0.511441
0.511441
0.511441
0.511441
0.511441
0.511441
0.511441
0.51144
0.51144
0.51139
0.510529
0.394152
0.393606
0.393087
0.392593
0.392124
0.391678
0.391254
0.390851
0.390468
0.390104
0.389758
0.38943
0.389118
0.388821
0.38854
0.388273
0.388019
0.387779
0.38755
0.387334
0.387128
0.386933
0.386749
0.386573
0.386407
0.386249
0.3861
0.385958
0.385824
0.385697
0.385577
0.385463
0.385355
0.385253
0.385157
0.385065
0.384979
0.384897
0.38482
0.384747
0.384678
0.384613
0.384552
0.384494
0.384439
0.384387
0.384338
0.384292
0.384249
0.384208
0.384169
0.384133
0.384099
0.384067
0.384036
0.384008
0.383981
0.383956
0.383932
0.38391
0.383889
0.383869
0.38385
0.383833
0.383817
0.383801
0.383787
0.383774
0.383761
0.383749
0.383738
0.383728
0.383718
0.383709
0.3837
0.383692
0.383685
0.383678
0.383672
0.383666
0.38366
0.383655
0.38365
0.383645
0.383641
0.383637
0.383633
0.38363
0.383626
0.383623
0.383621
0.383618
0.383616
0.383613
0.383611
0.383609
0.383608
0.383606
0.383605
0.383603
0.383602
0.383601
0.383599
0.383598
0.383597
0.383597
0.383596
0.383595
0.383594
0.383594
0.383593
0.383593
0.383592
0.383592
0.383591
0.383591
0.383591
0.38359
0.38359
0.38359
0.38359
0.38359
0.383589
0.383589
0.383589
0.383589
0.383589
0.383589
0.383589
0.383589
0.38359
0.383589
0.38359
0.383589
0.38359
0.383589
0.38359
0.383589
0.383589
0.383588
0.383588
0.383587
0.383587
0.383586
0.383586
0.383585
0.383585
0.383585
0.383585
0.383585
0.383585
0.383585
0.383585
0.383585
0.383585
0.383585
0.383585
0.383585
0.383585
0.383585
0.383585
0.383584
0.383547
0.382959
0.323507
0.323147
0.322804
0.322479
0.32217
0.321877
0.321599
0.321334
0.321083
0.320845
0.320618
0.320404
0.3202
0.320006
0.319823
0.319649
0.319483
0.319327
0.319178
0.319037
0.318904
0.318777
0.318657
0.318543
0.318435
0.318332
0.318235
0.318143
0.318056
0.317974
0.317896
0.317822
0.317752
0.317686
0.317623
0.317564
0.317508
0.317455
0.317405
0.317358
0.317313
0.317271
0.317231
0.317193
0.317158
0.317124
0.317093
0.317063
0.317035
0.317008
0.316983
0.31696
0.316938
0.316917
0.316897
0.316879
0.316861
0.316845
0.316829
0.316815
0.316801
0.316789
0.316777
0.316765
0.316755
0.316745
0.316736
0.316727
0.316719
0.316711
0.316704
0.316697
0.316691
0.316685
0.31668
0.316674
0.31667
0.316665
0.316661
0.316657
0.316653
0.31665
0.316647
0.316644
0.316641
0.316638
0.316636
0.316634
0.316632
0.31663
0.316628
0.316626
0.316625
0.316623
0.316622
0.316621
0.316619
0.316618
0.316617
0.316616
0.316616
0.316615
0.316614
0.316613
0.316613
0.316612
0.316612
0.316611
0.316611
0.31661
0.31661
0.31661
0.316609
0.316609
0.316609
0.316609
0.316608
0.316608
0.316608
0.316608
0.316608
0.316608
0.316608
0.316607
0.316608
0.316607
0.316607
0.316607
0.316608
0.316607
0.316608
0.316607
0.316608
0.316607
0.316608
0.316607
0.316608
0.316607
0.316608
0.316606
0.316607
0.316606
0.316606
0.316605
0.316605
0.316605
0.316605
0.316604
0.316605
0.316604
0.316605
0.316604
0.316605
0.316605
0.316605
0.316605
0.316605
0.316605
0.316605
0.316605
0.316604
0.316604
0.316579
0.316178
0.285896
0.28567
0.285455
0.285252
0.28506
0.284877
0.284703
0.284539
0.284383
0.284235
0.284094
0.283961
0.283835
0.283715
0.283602
0.283494
0.283392
0.283296
0.283204
0.283117
0.283035
0.282957
0.282883
0.282813
0.282746
0.282683
0.282624
0.282567
0.282514
0.282463
0.282415
0.28237
0.282327
0.282286
0.282248
0.282211
0.282177
0.282145
0.282114
0.282085
0.282058
0.282032
0.282007
0.281984
0.281962
0.281942
0.281922
0.281904
0.281887
0.281871
0.281855
0.281841
0.281827
0.281815
0.281803
0.281791
0.281781
0.281771
0.281761
0.281752
0.281744
0.281736
0.281729
0.281722
0.281716
0.281709
0.281704
0.281698
0.281693
0.281689
0.281684
0.28168
0.281676
0.281673
0.281669
0.281666
0.281663
0.281661
0.281658
0.281656
0.281653
0.281651
0.281649
0.281647
0.281646
0.281644
0.281643
0.281641
0.28164
0.281639
0.281638
0.281637
0.281636
0.281635
0.281634
0.281633
0.281633
0.281632
0.281631
0.281631
0.28163
0.28163
0.281629
0.281629
0.281628
0.281628
0.281628
0.281628
0.281627
0.281627
0.281627
0.281627
0.281626
0.281626
0.281626
0.281626
0.281626
0.281626
0.281626
0.281625
0.281625
0.281625
0.281625
0.281625
0.281625
0.281625
0.281625
0.281625
0.281625
0.281625
0.281625
0.281625
0.281625
0.281625
0.281626
0.281625
0.281626
0.281625
0.281625
0.281625
0.281625
0.281624
0.281624
0.281624
0.281624
0.281623
0.281624
0.281623
0.281623
0.281623
0.281623
0.281623
0.281623
0.281623
0.281624
0.281624
0.281624
0.281624
0.281624
0.281624
0.281623
0.281623
0.281607
0.281319
0.26628
0.266145
0.266017
0.265897
0.265783
0.265675
0.265572
0.265475
0.265383
0.265296
0.265213
0.265135
0.265061
0.264991
0.264925
0.264862
0.264802
0.264745
0.264692
0.264641
0.264593
0.264548
0.264505
0.264464
0.264425
0.264389
0.264354
0.264321
0.26429
0.264261
0.264233
0.264207
0.264182
0.264158
0.264136
0.264115
0.264095
0.264076
0.264058
0.264041
0.264026
0.264011
0.263996
0.263983
0.26397
0.263958
0.263947
0.263937
0.263927
0.263917
0.263908
0.2639
0.263892
0.263885
0.263878
0.263871
0.263865
0.263859
0.263854
0.263849
0.263844
0.263839
0.263835
0.263831
0.263827
0.263824
0.263821
0.263817
0.263815
0.263812
0.263809
0.263807
0.263805
0.263803
0.263801
0.263799
0.263797
0.263795
0.263794
0.263793
0.263791
0.26379
0.263789
0.263788
0.263787
0.263786
0.263785
0.263784
0.263784
0.263783
0.263782
0.263782
0.263781
0.263781
0.26378
0.26378
0.263779
0.263779
0.263779
0.263778
0.263778
0.263778
0.263777
0.263777
0.263777
0.263777
0.263777
0.263776
0.263776
0.263776
0.263776
0.263776
0.263776
0.263776
0.263776
0.263775
0.263775
0.263775
0.263775
0.263775
0.263775
0.263775
0.263775
0.263775
0.263775
0.263775
0.263775
0.263775
0.263775
0.263775
0.263775
0.263775
0.263775
0.263775
0.263775
0.263775
0.263775
0.263775
0.263775
0.263775
0.263775
0.263774
0.263775
0.263774
0.263774
0.263774
0.263774
0.263774
0.263774
0.263774
0.263774
0.263774
0.263774
0.263774
0.263774
0.263774
0.263774
0.263774
0.263774
0.263774
0.263774
0.263774
0.263765
0.263525
0.256368
0.256291
0.256219
0.256151
0.256087
0.256026
0.255968
0.255914
0.255862
0.255814
0.255768
0.255724
0.255683
0.255644
0.255607
0.255572
0.255539
0.255508
0.255478
0.25545
0.255423
0.255398
0.255375
0.255352
0.255331
0.255311
0.255292
0.255274
0.255257
0.255241
0.255225
0.255211
0.255197
0.255184
0.255172
0.25516
0.255149
0.255139
0.255129
0.25512
0.255111
0.255103
0.255095
0.255088
0.255081
0.255074
0.255068
0.255062
0.255057
0.255052
0.255047
0.255042
0.255038
0.255034
0.25503
0.255026
0.255023
0.25502
0.255017
0.255014
0.255011
0.255009
0.255007
0.255004
0.255002
0.255
0.254999
0.254997
0.254995
0.254994
0.254993
0.254991
0.25499
0.254989
0.254988
0.254987
0.254986
0.254985
0.254984
0.254983
0.254983
0.254982
0.254981
0.254981
0.25498
0.25498
0.254979
0.254979
0.254978
0.254978
0.254978
0.254977
0.254977
0.254977
0.254977
0.254976
0.254976
0.254976
0.254976
0.254976
0.254975
0.254975
0.254975
0.254975
0.254975
0.254975
0.254975
0.254975
0.254974
0.254974
0.254974
0.254974
0.254974
0.254974
0.254974
0.254974
0.254974
0.254974
0.254974
0.254974
0.254974
0.254974
0.254974
0.254974
0.254974
0.254974
0.254974
0.254974
0.254974
0.254974
0.254974
0.254974
0.254974
0.254974
0.254974
0.254974
0.254974
0.254974
0.254974
0.254974
0.254974
0.254973
0.254974
0.254973
0.254973
0.254973
0.254973
0.254973
0.254973
0.254973
0.254973
0.254973
0.254973
0.254973
0.254973
0.254973
0.254973
0.254973
0.254973
0.254973
0.254973
0.254973
0.254968
0.254737
0.251546
0.251504
0.251465
0.251428
0.251393
0.25136
0.251329
0.2513
0.251273
0.251247
0.251222
0.251199
0.251177
0.251156
0.251137
0.251118
0.251101
0.251084
0.251069
0.251054
0.25104
0.251027
0.251015
0.251003
0.250992
0.250981
0.250971
0.250962
0.250953
0.250945
0.250937
0.250929
0.250922
0.250915
0.250909
0.250903
0.250897
0.250892
0.250887
0.250882
0.250877
0.250873
0.250869
0.250865
0.250861
0.250858
0.250855
0.250852
0.250849
0.250846
0.250844
0.250841
0.250839
0.250837
0.250835
0.250833
0.250831
0.25083
0.250828
0.250827
0.250825
0.250824
0.250823
0.250822
0.25082
0.250819
0.250819
0.250818
0.250817
0.250816
0.250815
0.250815
0.250814
0.250813
0.250813
0.250812
0.250812
0.250811
0.250811
0.250811
0.25081
0.25081
0.25081
0.250809
0.250809
0.250809
0.250808
0.250808
0.250808
0.250808
0.250808
0.250807
0.250807
0.250807
0.250807
0.250807
0.250807
0.250807
0.250807
0.250806
0.250806
0.250806
0.250806
0.250806
0.250806
0.250806
0.250806
0.250806
0.250806
0.250806
0.250806
0.250806
0.250806
0.250806
0.250806
0.250806
0.250806
0.250806
0.250806
0.250806
0.250806
0.250806
0.250806
0.250806
0.250806
0.250806
0.250806
0.250806
0.250806
0.250806
0.250806
0.250806
0.250806
0.250806
0.250806
0.250806
0.250806
0.250806
0.250806
0.250805
0.250806
0.250805
0.250805
0.250805
0.250805
0.250805
0.250805
0.250805
0.250805
0.250805
0.250805
0.250805
0.250805
0.250805
0.250805
0.250805
0.250805
0.250805
0.250805
0.250805
0.250805
0.250805
0.250802
0.250581
0.249297
0.249274
0.249253
0.249234
0.249216
0.249199
0.249182
0.249167
0.249153
0.24914
0.249127
0.249115
0.249104
0.249093
0.249084
0.249074
0.249065
0.249057
0.249049
0.249042
0.249035
0.249028
0.249022
0.249016
0.249011
0.249006
0.249001
0.248996
0.248992
0.248988
0.248984
0.24898
0.248976
0.248973
0.24897
0.248967
0.248964
0.248961
0.248959
0.248956
0.248954
0.248952
0.24895
0.248948
0.248946
0.248944
0.248943
0.248941
0.24894
0.248939
0.248937
0.248936
0.248935
0.248934
0.248933
0.248932
0.248931
0.24893
0.248929
0.248929
0.248928
0.248927
0.248927
0.248926
0.248926
0.248925
0.248925
0.248924
0.248924
0.248923
0.248923
0.248923
0.248922
0.248922
0.248922
0.248922
0.248921
0.248921
0.248921
0.248921
0.24892
0.24892
0.24892
0.24892
0.24892
0.24892
0.24892
0.248919
0.248919
0.248919
0.248919
0.248919
0.248919
0.248919
0.248919
0.248919
0.248919
0.248919
0.248919
0.248919
0.248919
0.248919
0.248919
0.248918
0.248918
0.248918
0.248918
0.248918
0.248918
0.248918
0.248918
0.248918
0.248918
0.248918
0.248918
0.248918
0.248918
0.248918
0.248918
0.248918
0.248918
0.248918
0.248918
0.248918
0.248918
0.248918
0.248918
0.248918
0.248918
0.248918
0.248918
0.248918
0.248918
0.248918
0.248918
0.248918
0.248918
0.248918
0.248918
0.248918
0.248918
0.248918
0.248918
0.248918
0.248918
0.248918
0.248918
0.248918
0.248918
0.248918
0.248918
0.248918
0.248918
0.248918
0.248918
0.248918
0.248918
0.248918
0.248918
0.248918
0.248918
0.248918
0.248916
0.248756
0.248303
0.24829
0.248279
0.248269
0.248259
0.24825
0.248242
0.248234
0.248227
0.24822
0.248213
0.248207
0.248202
0.248196
0.248191
0.248187
0.248182
0.248178
0.248175
0.248171
0.248168
0.248164
0.248161
0.248159
0.248156
0.248154
0.248151
0.248149
0.248147
0.248145
0.248143
0.248141
0.248139
0.248138
0.248136
0.248135
0.248133
0.248132
0.248131
0.24813
0.248128
0.248127
0.248126
0.248125
0.248125
0.248124
0.248123
0.248122
0.248121
0.248121
0.24812
0.24812
0.248119
0.248118
0.248118
0.248117
0.248117
0.248117
0.248116
0.248116
0.248116
0.248115
0.248115
0.248115
0.248114
0.248114
0.248114
0.248114
0.248113
0.248113
0.248113
0.248113
0.248113
0.248113
0.248112
0.248112
0.248112
0.248112
0.248112
0.248112
0.248112
0.248112
0.248112
0.248112
0.248111
0.248111
0.248111
0.248111
0.248111
0.248111
0.248111
0.248111
0.248111
0.248111
0.248111
0.248111
0.248111
0.248111
0.248111
0.248111
0.248111
0.248111
0.248111
0.248111
0.248111
0.248111
0.248111
0.248111
0.248111
0.248111
0.248111
0.248111
0.248111
0.248111
0.248111
0.248111
0.248111
0.248111
0.248111
0.248111
0.248111
0.248111
0.248111
0.248111
0.248111
0.248111
0.248111
0.248111
0.248111
0.248111
0.248111
0.248111
0.248111
0.248111
0.248111
0.248111
0.248111
0.248111
0.248111
0.248111
0.248111
0.248111
0.248111
0.248111
0.248111
0.248111
0.248111
0.248111
0.248111
0.248111
0.248111
0.248111
0.248111
0.248111
0.248111
0.248111
0.248111
0.248111
0.248111
0.248111
0.248111
0.248111
0.248108
0.248035
0.247724
0.247718
0.247713
0.247709
0.247705
0.247701
0.247698
0.247695
0.247692
0.247689
0.247687
0.247684
0.247682
0.24768
0.247679
0.247677
0.247676
0.247674
0.247673
0.247672
0.247671
0.24767
0.247669
0.247668
0.247667
0.247666
0.247666
0.247665
0.247664
0.247664
0.247663
0.247662
0.247662
0.247661
0.247661
0.24766
0.24766
0.247659
0.247659
0.247659
0.247658
0.247658
0.247658
0.247657
0.247657
0.247657
0.247656
0.247656
0.247656
0.247656
0.247655
0.247655
0.247655
0.247655
0.247655
0.247654
0.247654
0.247654
0.247654
0.247654
0.247654
0.247654
0.247654
0.247653
0.247653
0.247653
0.247653
0.247653
0.247653
0.247653
0.247653
0.247653
0.247653
0.247653
0.247653
0.247653
0.247653
0.247653
0.247652
0.247652
0.247652
0.247652
0.247652
0.247652
0.247652
0.247652
0.247652
0.247652
0.247652
0.247652
0.247652
0.247652
0.247652
0.247652
0.247652
0.247652
0.247652
0.247652
0.247652
0.247652
0.247652
0.247652
0.247652
0.247652
0.247652
0.247652
0.247652
0.247652
0.247652
0.247652
0.247652
0.247652
0.247652
0.247652
0.247652
0.247652
0.247652
0.247652
0.247652
0.247652
0.247652
0.247652
0.247652
0.247652
0.247652
0.247652
0.247652
0.247652
0.247652
0.247652
0.247652
0.247652
0.247652
0.247652
0.247652
0.247652
0.247652
0.247652
0.247652
0.247652
0.247652
0.247652
0.247652
0.247652
0.247652
0.247652
0.247652
0.247652
0.247652
0.247652
0.247652
0.247652
0.247652
0.247652
0.247652
0.247652
0.247652
0.247652
0.247652
0.247652
0.247652
0.247652
0.247651
0.249271
0.247576
0.247572
0.24757
0.247567
0.247565
0.247563
0.247562
0.24756
0.247559
0.247558
0.247557
0.247556
0.247555
0.247554
0.247553
0.247553
0.247552
0.247552
0.247551
0.247551
0.247551
0.24755
0.24755
0.24755
0.24755
0.247549
0.247549
0.247549
0.247549
0.247549
0.247549
0.247548
0.247548
0.247548
0.247548
0.247548
0.247548
0.247547
0.247547
0.247547
0.247547
0.247547
0.247547
0.247547
0.247547
0.247546
0.247546
0.247546
0.247546
0.247546
0.247546
0.247546
0.247546
0.247546
0.247546
0.247546
0.247546
0.247545
0.247545
0.247545
0.247545
0.247545
0.247545
0.247545
0.247545
0.247545
0.247545
0.247545
0.247545
0.247545
0.247545
0.247545
0.247545
0.247545
0.247545
0.247545
0.247545
0.247545
0.247545
0.247545
0.247545
0.247545
0.247545
0.247545
0.247545
0.247545
0.247545
0.247545
0.247545
0.247545
0.247545
0.247545
0.247545
0.247545
0.247545
0.247545
0.247545
0.247545
0.247545
0.247545
0.247545
0.247545
0.247545
0.247545
0.247545
0.247545
0.247545
0.247545
0.247545
0.247545
0.247545
0.247545
0.247545
0.247545
0.247545
0.247545
0.247545
0.247545
0.247545
0.247545
0.247545
0.247545
0.247545
0.247545
0.247545
0.247545
0.247545
0.247545
0.247545
0.247545
0.247545
0.247545
0.247545
0.247545
0.247545
0.247545
0.247545
0.247545
0.247545
0.247545
0.247545
0.247545
0.247545
0.247545
0.247545
0.247545
0.247545
0.247545
0.247545
0.247545
0.247545
0.247545
0.247545
0.247545
0.247545
0.247545
0.247545
0.247545
0.247545
0.247545
0.247545
0.247545
0.247546
0.250792
0.24755
0.247547
0.247545
0.247543
0.247541
0.24754
0.247539
0.247537
0.247536
0.247536
0.247535
0.247534
0.247534
0.247533
0.247533
0.247532
0.247532
0.247532
0.247531
0.247531
0.247531
0.247531
0.247531
0.247531
0.247531
0.247531
0.247531
0.24753
0.24753
0.24753
0.24753
0.24753
0.24753
0.24753
0.24753
0.24753
0.24753
0.24753
0.247529
0.247529
0.247529
0.247529
0.247529
0.247529
0.247529
0.247529
0.247529
0.247529
0.247529
0.247529
0.247529
0.247529
0.247528
0.247528
0.247528
0.247528
0.247528
0.247528
0.247528
0.247528
0.247528
0.247528
0.247528
0.247528
0.247528
0.247528
0.247528
0.247528
0.247528
0.247528
0.247528
0.247528
0.247528
0.247528
0.247528
0.247528
0.247528
0.247528
0.247528
0.247528
0.247528
0.247528
0.247528
0.247528
0.247528
0.247528
0.247528
0.247528
0.247528
0.247528
0.247528
0.247528
0.247528
0.247528
0.247528
0.247528
0.247528
0.247528
0.247528
0.247528
0.247528
0.247528
0.247528
0.247528
0.247528
0.247528
0.247528
0.247528
0.247528
0.247528
0.247528
0.247528
0.247528
0.247528
0.247528
0.247528
0.247528
0.247528
0.247528
0.247528
0.247528
0.247528
0.247528
0.247528
0.247528
0.247528
0.247528
0.247528
0.247528
0.247528
0.247528
0.247528
0.247528
0.247528
0.247528
0.247528
0.247528
0.247528
0.247528
0.247528
0.247528
0.247528
0.247528
0.247528
0.247528
0.247528
0.247528
0.247528
0.247528
0.247528
0.247528
0.247528
0.247528
0.247528
0.247528
0.247528
0.247528
0.247528
0.247528
0.247528
0.247528
0.247528
0.24753
0.251051
0.247546
0.247543
0.247541
0.247539
0.247537
0.247536
0.247535
0.247534
0.247533
0.247532
0.247531
0.247531
0.24753
0.24753
0.24753
0.247529
0.247529
0.247529
0.247529
0.247528
0.247528
0.247528
0.247528
0.247528
0.247528
0.247528
0.247528
0.247528
0.247528
0.247528
0.247528
0.247528
0.247527
0.247527
0.247527
0.247527
0.247527
0.247527
0.247527
0.247527
0.247527
0.247527
0.247527
0.247527
0.247527
0.247526
0.247526
0.247526
0.247526
0.247526
0.247526
0.247526
0.247526
0.247526
0.247526
0.247526
0.247526
0.247526
0.247526
0.247526
0.247526
0.247526
0.247526
0.247526
0.247526
0.247526
0.247526
0.247525
0.247525
0.247525
0.247525
0.247525
0.247525
0.247525
0.247525
0.247525
0.247525
0.247525
0.247525
0.247525
0.247525
0.247525
0.247525
0.247525
0.247525
0.247525
0.247525
0.247525
0.247525
0.247525
0.247525
0.247525
0.247525
0.247525
0.247525
0.247525
0.247525
0.247525
0.247525
0.247525
0.247525
0.247525
0.247525
0.247525
0.247525
0.247525
0.247525
0.247525
0.247525
0.247525
0.247525
0.247525
0.247525
0.247525
0.247525
0.247525
0.247525
0.247525
0.247525
0.247525
0.247525
0.247525
0.247525
0.247525
0.247525
0.247525
0.247525
0.247525
0.247525
0.247525
0.247525
0.247525
0.247525
0.247525
0.247525
0.247525
0.247525
0.247525
0.247525
0.247525
0.247525
0.247525
0.247525
0.247525
0.247525
0.247525
0.247525
0.247525
0.247525
0.247525
0.247525
0.247525
0.247525
0.247525
0.247525
0.247525
0.247525
0.247525
0.247525
0.247525
0.247525
0.247525
0.247528
0.25109
0.247545
0.247542
0.24754
0.247538
0.247537
0.247535
0.247534
0.247533
0.247532
0.247532
0.247531
0.24753
0.24753
0.247529
0.247529
0.247529
0.247529
0.247528
0.247528
0.247528
0.247528
0.247528
0.247528
0.247528
0.247528
0.247528
0.247528
0.247528
0.247527
0.247527
0.247527
0.247527
0.247527
0.247527
0.247527
0.247527
0.247527
0.247527
0.247527
0.247527
0.247527
0.247526
0.247526
0.247526
0.247526
0.247526
0.247526
0.247526
0.247526
0.247526
0.247526
0.247526
0.247526
0.247526
0.247526
0.247526
0.247526
0.247525
0.247525
0.247525
0.247525
0.247525
0.247525
0.247525
0.247525
0.247525
0.247525
0.247525
0.247525
0.247525
0.247525
0.247525
0.247525
0.247525
0.247525
0.247525
0.247525
0.247525
0.247525
0.247525
0.247525
0.247525
0.247525
0.247525
0.247525
0.247525
0.247525
0.247525
0.247525
0.247525
0.247525
0.247525
0.247525
0.247525
0.247525
0.247525
0.247525
0.247525
0.247525
0.247525
0.247525
0.247525
0.247525
0.247525
0.247525
0.247525
0.247525
0.247525
0.247525
0.247525
0.247525
0.247525
0.247525
0.247525
0.247525
0.247525
0.247525
0.247525
0.247525
0.247525
0.247525
0.247525
0.247525
0.247525
0.247525
0.247525
0.247525
0.247525
0.247525
0.247525
0.247525
0.247525
0.247525
0.247525
0.247525
0.247525
0.247525
0.247525
0.247525
0.247525
0.247525
0.247525
0.247525
0.247525
0.247525
0.247525
0.247525
0.247525
0.247525
0.247525
0.247525
0.247525
0.247525
0.247525
0.247525
0.247525
0.247525
0.247525
0.247525
0.247525
0.247525
0.247525
0.247528
0.251096
0.247545
0.247542
0.24754
0.247538
0.247537
0.247535
0.247534
0.247533
0.247532
0.247532
0.247531
0.24753
0.24753
0.247529
0.247529
0.247529
0.247529
0.247528
0.247528
0.247528
0.247528
0.247528
0.247528
0.247528
0.247528
0.247528
0.247528
0.247528
0.247528
0.247527
0.247527
0.247527
0.247527
0.247527
0.247527
0.247527
0.247527
0.247527
0.247527
0.247527
0.247527
0.247526
0.247526
0.247526
0.247526
0.247526
0.247526
0.247526
0.247526
0.247526
0.247526
0.247526
0.247526
0.247526
0.247526
0.247526
0.247526
0.247525
0.247525
0.247525
0.247525
0.247525
0.247525
0.247525
0.247525
0.247525
0.247525
0.247525
0.247525
0.247525
0.247525
0.247525
0.247525
0.247525
0.247525
0.247525
0.247525
0.247525
0.247525
0.247525
0.247525
0.247525
0.247525
0.247525
0.247525
0.247525
0.247525
0.247525
0.247525
0.247525
0.247525
0.247525
0.247525
0.247525
0.247525
0.247525
0.247525
0.247525
0.247525
0.247525
0.247525
0.247525
0.247525
0.247525
0.247525
0.247525
0.247525
0.247525
0.247525
0.247525
0.247525
0.247525
0.247525
0.247525
0.247525
0.247525
0.247525
0.247525
0.247525
0.247525
0.247525
0.247525
0.247525
0.247525
0.247525
0.247525
0.247525
0.247525
0.247525
0.247525
0.247525
0.247525
0.247525
0.247525
0.247525
0.247525
0.247525
0.247525
0.247525
0.247525
0.247525
0.247525
0.247525
0.247525
0.247525
0.247525
0.247525
0.247525
0.247525
0.247525
0.247525
0.247525
0.247525
0.247525
0.247525
0.247525
0.247525
0.247525
0.247525
0.247525
0.247525
0.247525
0.247528
0.251098
0.247545
0.247542
0.24754
0.247538
0.247537
0.247535
0.247534
0.247533
0.247532
0.247532
0.247531
0.24753
0.24753
0.247529
0.247529
0.247529
0.247529
0.247528
0.247528
0.247528
0.247528
0.247528
0.247528
0.247528
0.247528
0.247528
0.247528
0.247528
0.247528
0.247527
0.247527
0.247527
0.247527
0.247527
0.247527
0.247527
0.247527
0.247527
0.247527
0.247527
0.247527
0.247526
0.247526
0.247526
0.247526
0.247526
0.247526
0.247526
0.247526
0.247526
0.247526