/*--------------------------------*- C++ -*----------------------------------*\
| =========                 |                                                 |
| \\      /  F ield         | OpenFOAM: The Open Source CFD Toolbox           |
|  \\    /   O peration     | Version:  v1912                                 |
|   \\  /    A nd           | Website:  www.openfoam.com                      |
|    \\/     M anipulation  |                                                 |
\*---------------------------------------------------------------------------*/
FoamFile
{
    version     2.0;
    format      ascii;
    class       surfaceScalarField;
    location    "50";
    object      phi;
}
// * * * * * * * * * * * * * * * * * * * * * * * * * * * * * * * * * * * * * //

dimensions      [0 3 -1 0 0 0 0];
oriented        oriented;


internalField   nonuniform List<scalar> 
28285
(
2.14091e-05
1.21329e-06
2.0256e-05
1.15309e-06
1.91604e-05
1.0956e-06
1.81197e-05
1.04071e-06
1.71313e-05
9.88328e-07
1.6193e-05
9.38344e-07
1.53023e-05
8.90664e-07
1.44571e-05
8.45194e-07
1.36553e-05
8.01844e-07
1.28948e-05
7.60527e-07
1.21736e-05
7.21157e-07
1.149e-05
6.83654e-07
1.0842e-05
6.47938e-07
1.02281e-05
6.13934e-07
9.64651e-06
5.81568e-07
9.09574e-06
5.50769e-07
8.57427e-06
5.2147e-07
8.08067e-06
4.93605e-07
7.61356e-06
4.6711e-07
7.17163e-06
4.41925e-07
6.75364e-06
4.17992e-07
6.35839e-06
3.95253e-07
5.98473e-06
3.73656e-07
5.63158e-06
3.53148e-07
5.2979e-06
3.3368e-07
4.9827e-06
3.15203e-07
4.68503e-06
2.97672e-07
4.40398e-06
2.81043e-07
4.13871e-06
2.65273e-07
3.88839e-06
2.50321e-07
3.65224e-06
2.3615e-07
3.42952e-06
2.22722e-07
3.21952e-06
2.10001e-07
3.02156e-06
1.97953e-07
2.83502e-06
1.86546e-07
2.65927e-06
1.75749e-07
2.49374e-06
1.65531e-07
2.33787e-06
1.55864e-07
2.19115e-06
1.46721e-07
2.05308e-06
1.38075e-07
1.92318e-06
1.29903e-07
1.801e-06
1.22179e-07
1.68611e-06
1.14882e-07
1.57812e-06
1.0799e-07
1.47664e-06
1.01482e-07
1.3813e-06
9.53383e-08
1.29176e-06
8.95402e-08
1.20769e-06
8.40698e-08
1.12878e-06
7.89101e-08
1.05474e-06
7.40448e-08
9.8528e-07
6.94584e-08
9.20144e-07
6.51362e-08
8.5908e-07
6.10641e-08
8.01851e-07
5.72288e-08
7.48234e-07
5.36175e-08
6.98015e-07
5.02183e-08
6.50996e-07
4.70195e-08
6.06985e-07
4.40104e-08
5.65805e-07
4.11805e-08
5.27285e-07
3.85199e-08
4.91266e-07
3.60193e-08
4.57596e-07
3.36698e-08
4.26133e-07
3.14629e-08
3.96742e-07
2.93908e-08
3.69297e-07
2.74456e-08
3.43676e-07
2.56204e-08
3.19768e-07
2.39082e-08
2.97466e-07
2.23025e-08
2.76668e-07
2.07972e-08
2.57282e-07
1.93866e-08
2.39217e-07
1.80651e-08
2.22389e-07
1.68275e-08
2.0672e-07
1.56689e-08
1.92136e-07
1.45846e-08
1.78566e-07
1.35702e-08
1.65944e-07
1.26215e-08
1.54209e-07
1.17346e-08
1.43304e-07
1.09058e-08
1.33172e-07
1.01316e-08
1.23763e-07
9.40856e-09
1.1503e-07
8.73363e-09
1.06926e-07
8.10383e-09
9.94096e-08
7.51637e-09
9.24409e-08
6.96862e-09
8.59829e-08
6.45809e-09
8.00004e-08
5.98244e-09
7.4461e-08
5.53946e-09
6.93339e-08
5.12708e-09
6.45905e-08
4.74336e-09
6.02041e-08
4.38643e-09
5.61495e-08
4.05458e-09
5.24033e-08
3.74618e-09
4.89436e-08
3.4597e-09
4.57499e-08
3.19369e-09
4.28031e-08
2.94682e-09
4.00853e-08
2.7178e-09
3.75799e-08
2.50546e-09
3.52712e-08
2.30867e-09
3.31448e-08
2.1264e-09
3.11871e-08
1.95765e-09
2.93856e-08
1.80151e-09
2.77285e-08
1.65712e-09
2.62048e-08
1.52368e-09
2.48044e-08
1.40044e-09
2.35177e-08
1.2867e-09
2.23359e-08
1.18179e-09
2.12508e-08
1.08512e-09
2.02547e-08
9.96103e-10
1.93405e-08
9.14228e-10
1.85015e-08
8.3899e-10
1.77315e-08
7.6995e-10
1.70249e-08
7.06657e-10
1.63761e-08
6.4878e-10
1.57802e-08
5.95859e-10
1.52325e-08
5.47758e-10
1.47286e-08
5.03821e-10
1.42642e-08
4.64411e-10
1.38361e-08
4.28172e-10
1.34393e-08
3.96744e-10
1.30724e-08
3.66876e-10
1.27292e-08
3.43206e-10
1.24107e-08
3.18523e-10
1.21081e-08
3.02596e-10
1.18269e-08
2.81248e-10
1.15524e-08
2.74496e-10
1.12987e-08
2.53692e-10
1.10404e-08
2.58242e-10
1.08057e-08
2.34728e-10
1.05527e-08
2.53014e-10
1.03301e-08
2.22553e-10
1.00747e-08
2.55388e-10
9.85504e-09
2.19705e-10
9.59586e-09
2.59185e-10
9.37752e-09
2.18337e-10
9.11489e-09
2.62631e-10
8.90708e-09
2.07815e-10
8.65152e-09
2.55554e-10
8.47711e-09
1.74408e-10
8.25514e-09
2.21973e-10
8.14672e-09
1.0842e-10
7.99936e-09
1.47357e-10
7.96759e-09
3.1774e-11
7.909e-09
5.85948e-11
7.98545e-09
-7.6458e-11
8.04413e-09
-5.86736e-11
8.18765e-09
-1.43524e-10
8.31021e-09
-1.22558e-10
8.48206e-09
-1.71853e-10
8.62948e-09
-1.47422e-10
8.80316e-09
-1.73674e-10
8.95096e-09
-1.47802e-10
9.11093e-09
-1.59974e-10
9.24612e-09
-1.35187e-10
9.38624e-09
-1.40116e-10
9.50462e-09
-1.18379e-10
9.62525e-09
-1.20637e-10
9.7289e-09
-1.03647e-10
9.83536e-09
-1.06461e-10
9.93527e-09
-9.99093e-11
1.00409e-08
-1.05621e-10
1.02042e-08
-1.63355e-10
1.0383e-08
-1.78752e-10
1.32504e-08
-2.86739e-09
-2.87381e-09
2.13727e-05
2.42458e-06
2.02215e-05
2.30428e-06
1.91277e-05
2.18939e-06
1.80887e-05
2.07971e-06
1.7102e-05
1.97502e-06
1.61652e-05
1.87513e-06
1.52761e-05
1.77985e-06
1.44323e-05
1.68898e-06
1.36318e-05
1.60235e-06
1.28725e-05
1.51978e-06
1.21526e-05
1.44111e-06
1.147e-05
1.36616e-06
1.08232e-05
1.29479e-06
1.02103e-05
1.22684e-06
9.62971e-06
1.16216e-06
9.07987e-06
1.10061e-06
8.55928e-06
1.04206e-06
8.06651e-06
9.86375e-07
7.60019e-06
9.33429e-07
7.15901e-06
8.83101e-07
6.74173e-06
8.35274e-07
6.34715e-06
7.89835e-07
5.97413e-06
7.46677e-07
5.62158e-06
7.05695e-07
5.28847e-06
6.66791e-07
4.97381e-06
6.29868e-07
4.67664e-06
5.94836e-07
4.39608e-06
5.61604e-07
4.13126e-06
5.30091e-07
3.88137e-06
5.00213e-07
3.64563e-06
4.71895e-07
3.42329e-06
4.45061e-07
3.21365e-06
4.19641e-07
3.01604e-06
3.95566e-07
2.82981e-06
3.72771e-07
2.65437e-06
3.51194e-07
2.48912e-06
3.30776e-07
2.33353e-06
3.11458e-07
2.18706e-06
2.93187e-07
2.04922e-06
2.75911e-07
1.91955e-06
2.5958e-07
1.79758e-06
2.44147e-07
1.6829e-06
2.29565e-07
1.57509e-06
2.15793e-07
1.47379e-06
2.02787e-07
1.37861e-06
1.90511e-07
1.28923e-06
1.78924e-07
1.20531e-06
1.67993e-07
1.12653e-06
1.57683e-07
1.05262e-06
1.4796e-07
9.83282e-07
1.38795e-07
9.1826e-07
1.30159e-07
8.57302e-07
1.22021e-07
8.00174e-07
1.14357e-07
7.4665e-07
1.07141e-07
6.9652e-07
1.00349e-07
6.49583e-07
9.39565e-08
6.0565e-07
8.79435e-08
5.64542e-07
8.22885e-08
5.2609e-07
7.6972e-08
4.90134e-07
7.19751e-08
4.56524e-07
6.72802e-08
4.25116e-07
6.28703e-08
3.95777e-07
5.87296e-08
3.6838e-07
5.48428e-08
3.42805e-07
5.11955e-08
3.18939e-07
4.7774e-08
2.96676e-07
4.45655e-08
2.75916e-07
4.15576e-08
2.56564e-07
3.87388e-08
2.38531e-07
3.60981e-08
2.21733e-07
3.36251e-08
2.06092e-07
3.13099e-08
1.91534e-07
2.91432e-08
1.77988e-07
2.71161e-08
1.65389e-07
2.52205e-08
1.53675e-07
2.34483e-08
1.42789e-07
2.17922e-08
1.32675e-07
2.0245e-08
1.23284e-07
1.88003e-08
1.14566e-07
1.74516e-08
1.06476e-07
1.61931e-08
9.89735e-08
1.50192e-08
9.20174e-08
1.39247e-08
8.55709e-08
1.29045e-08
7.95993e-08
1.19541e-08
7.40698e-08
1.10689e-08
6.8952e-08
1.02449e-08
6.42172e-08
9.47814e-09
5.98387e-08
8.76493e-09
5.57915e-08
8.10182e-09
5.20521e-08
7.48557e-09
4.85987e-08
6.91311e-09
4.54108e-08
6.38158e-09
4.24693e-08
5.88827e-09
3.97564e-08
5.43066e-09
3.72556e-08
5.00635e-09
3.49511e-08
4.61313e-09
3.28286e-08
4.24891e-09
3.08745e-08
3.91171e-09
2.90763e-08
3.59972e-09
2.74222e-08
3.31121e-09
2.59013e-08
3.04458e-09
2.45034e-08
2.79832e-09
2.32191e-08
2.57104e-09
2.20395e-08
2.36142e-09
2.09563e-08
2.16825e-09
1.99621e-08
1.99038e-09
1.90495e-08
1.82678e-09
1.82121e-08
1.67645e-09
1.74435e-08
1.53849e-09
1.67381e-08
1.41203e-09
1.60905e-08
1.29638e-09
1.54958e-08
1.19064e-09
1.4949e-08
1.09453e-09
1.44461e-08
1.00675e-09
1.39825e-08
9.27985e-10
1.3555e-08
8.55619e-10
1.3159e-08
7.92762e-10
1.27927e-08
7.33214e-10
1.24501e-08
6.85734e-10
1.21319e-08
6.36739e-10
1.18301e-08
6.04469e-10
1.15489e-08
5.62377e-10
1.12752e-08
5.48236e-10
1.10215e-08
5.07428e-10
1.0764e-08
5.15696e-10
1.05291e-08
4.69645e-10
1.02769e-08
5.05202e-10
1.0054e-08
4.45424e-10
9.7995e-09
5.0991e-10
9.57939e-09
4.39818e-10
9.3211e-09
5.17472e-10
9.10229e-09
4.37144e-10
8.84061e-09
5.24319e-10
8.63229e-09
4.16136e-10
8.37774e-09
5.10105e-10
8.20281e-09
3.4933e-10
7.9819e-09
4.42885e-10
7.87299e-09
2.17332e-10
7.72667e-09
2.93678e-10
7.69436e-09
6.40812e-11
7.63679e-09
1.16164e-10
7.71275e-09
-1.5242e-10
7.77226e-09
-1.18178e-10
7.91517e-09
-2.86439e-10
8.03837e-09
-2.45758e-10
8.20958e-09
-3.43056e-10
8.3575e-09
-2.95346e-10
8.53054e-09
-3.4671e-10
8.67874e-09
-2.96005e-10
8.83811e-09
-3.1935e-10
8.97364e-09
-2.70713e-10
9.11321e-09
-2.79684e-10
9.2319e-09
-2.37068e-10
9.35203e-09
-2.40771e-10
9.45599e-09
-2.07606e-10
9.56198e-09
-2.1245e-10
9.66224e-09
-2.0017e-10
9.7675e-09
-2.10876e-10
9.93114e-09
-3.26999e-10
1.01138e-08
-3.61399e-10
1.29811e-08
-5.7347e-09
-5.74502e-09
2.13525e-05
3.63478e-06
2.02024e-05
3.45442e-06
1.91096e-05
3.28218e-06
1.80716e-05
3.11775e-06
1.70858e-05
2.96081e-06
1.61498e-05
2.81107e-06
1.52614e-05
2.66822e-06
1.44184e-05
2.532e-06
1.36187e-05
2.40213e-06
1.28601e-05
2.27835e-06
1.21408e-05
2.1604e-06
1.14589e-05
2.04805e-06
1.08126e-05
1.94105e-06
1.02003e-05
1.83918e-06
9.62024e-06
1.74221e-06
9.07091e-06
1.64995e-06
8.55079e-06
1.56217e-06
8.05847e-06
1.47869e-06
7.59258e-06
1.39932e-06
7.15181e-06
1.32387e-06
6.73491e-06
1.25217e-06
6.34069e-06
1.18405e-06
5.96801e-06
1.11935e-06
5.61579e-06
1.05792e-06
5.28298e-06
9.99596e-07
4.96861e-06
9.44244e-07
4.67172e-06
8.91725e-07
4.39142e-06
8.41907e-07
4.12684e-06
7.94664e-07
3.87718e-06
7.49874e-07
3.64165e-06
7.07422e-07
3.41952e-06
6.67194e-07
3.21008e-06
6.29086e-07
3.01265e-06
5.92995e-07
2.82659e-06
5.58823e-07
2.65131e-06
5.26477e-07
2.48622e-06
4.95867e-07
2.33077e-06
4.66908e-07
2.18444e-06
4.39518e-07
2.04673e-06
4.13619e-07
1.91718e-06
3.89137e-07
1.79532e-06
3.66e-07
1.68075e-06
3.44141e-07
1.57305e-06
3.23494e-07
1.47184e-06
3.03998e-07
1.37675e-06
2.85594e-07
1.28745e-06
2.68224e-07
1.20361e-06
2.51837e-07
1.12491e-06
2.36381e-07
1.05107e-06
2.21806e-07
9.81794e-07
2.08067e-07
9.16833e-07
1.95119e-07
8.55934e-07
1.82921e-07
7.9886e-07
1.71432e-07
7.45387e-07
1.60614e-07
6.95305e-07
1.50431e-07
6.48412e-07
1.40849e-07
6.04521e-07
1.31835e-07
5.63453e-07
1.23357e-07
5.25037e-07
1.15387e-07
4.89116e-07
1.07896e-07
4.55538e-07
1.00858e-07
4.24161e-07
9.42475e-08
3.9485e-07
8.80402e-08
3.67479e-07
8.22134e-08
3.41929e-07
7.67458e-08
3.18086e-07
7.16167e-08
2.95845e-07
6.68068e-08
2.75105e-07
6.22978e-08
2.55771e-07
5.80722e-08
2.37756e-07
5.41135e-08
2.20975e-07
5.04063e-08
2.05349e-07
4.69356e-08
1.90805e-07
4.36875e-08
1.77272e-07
4.06488e-08
1.64685e-07
3.78071e-08
1.52983e-07
3.51504e-08
1.42108e-07
3.26678e-08
1.32004e-07
3.03485e-08
1.22622e-07
2.81827e-08
1.13912e-07
2.61609e-08
1.05831e-07
2.42744e-08
9.83358e-08
2.25146e-08
9.13867e-08
2.08739e-08
8.49466e-08
1.93446e-08
7.89809e-08
1.79198e-08
7.3457e-08
1.65929e-08
6.83443e-08
1.53576e-08
6.36143e-08
1.42082e-08
5.92402e-08
1.3139e-08
5.5197e-08
1.2145e-08
5.14614e-08
1.12212e-08
4.80115e-08
1.0363e-08
4.48269e-08
9.56624e-09
4.18884e-08
8.82674e-09
3.91783e-08
8.14075e-09
3.668e-08
7.5047e-09
3.43779e-08
6.91524e-09
3.22575e-08
6.36925e-09
3.03054e-08
5.86378e-09
2.85091e-08
5.39609e-09
2.68567e-08
4.9636e-09
2.53374e-08
4.5639e-09
2.39409e-08
4.19476e-09
2.26579e-08
3.85405e-09
2.14795e-08
3.53982e-09
2.03975e-08
3.25025e-09
1.94043e-08
2.98363e-09
1.84927e-08
2.73839e-09
1.76561e-08
2.51303e-09
1.68883e-08
2.30624e-09
1.61837e-08
2.11667e-09
1.55367e-08
1.94331e-09
1.49426e-08
1.78482e-09
1.43964e-08
1.64073e-09
1.38939e-08
1.50917e-09
1.34308e-08
1.39109e-09
1.30038e-08
1.28265e-09
1.26082e-08
1.18838e-09
1.22422e-08
1.09921e-09
1.19e-08
1.02791e-09
1.15821e-08
9.5469e-10
1.12805e-08
9.06028e-10
1.09996e-08
8.43329e-10
1.07261e-08
8.21653e-10
1.04725e-08
7.61105e-10
1.02154e-08
7.72771e-10
9.98038e-09
7.04648e-10
9.72868e-09
7.5691e-10
9.50555e-09
6.68549e-10
9.25163e-09
7.6383e-10
9.03112e-09
6.60329e-10
8.77354e-09
7.75046e-10
8.55423e-09
6.56462e-10
8.29337e-09
7.85174e-10
8.08444e-09
6.25063e-10
7.83087e-09
7.63684e-10
7.65528e-09
5.24916e-10
7.43546e-09
6.627e-10
7.32588e-09
3.26914e-10
7.18069e-09
4.3887e-10
7.14767e-09
9.71009e-11
7.09123e-09
1.726e-10
7.16658e-09
-2.27763e-10
7.227e-09
-1.78595e-10
7.36926e-09
-4.287e-10
7.49313e-09
-3.69631e-10
7.66373e-09
-5.13652e-10
7.81211e-09
-4.43732e-10
7.98462e-09
-5.19224e-10
8.13313e-09
-4.44506e-10
8.29207e-09
-4.78299e-10
8.42779e-09
-4.06425e-10
8.56701e-09
-4.18911e-10
8.68583e-09
-3.55881e-10
8.80568e-09
-3.60623e-10
8.90975e-09
-3.11678e-10
9.0155e-09
-3.18196e-10
9.11589e-09
-3.00566e-10
9.221e-09
-3.15982e-10
9.3846e-09
-4.90596e-10
9.57047e-09
-5.47272e-10
1.24082e-08
-8.5724e-09
-8.58817e-09
2.134e-05
4.84431e-06
2.01904e-05
4.60394e-06
1.90982e-05
4.37439e-06
1.80607e-05
4.15524e-06
1.70755e-05
3.94607e-06
1.61401e-05
3.7465e-06
1.52522e-05
3.55611e-06
1.44096e-05
3.37456e-06
1.36103e-05
3.20147e-06
1.28521e-05
3.0365e-06
1.21332e-05
2.8793e-06
1.14517e-05
2.72956e-06
1.08058e-05
2.58696e-06
1.01938e-05
2.45119e-06
9.61404e-06
2.32196e-06
9.065e-06
2.19899e-06
8.54518e-06
2.082e-06
8.05313e-06
1.97074e-06
7.58749e-06
1.86496e-06
7.14696e-06
1.7644e-06
6.73029e-06
1.66884e-06
6.33629e-06
1.57806e-06
5.96382e-06
1.49183e-06
5.61179e-06
1.40995e-06
5.27917e-06
1.33222e-06
4.96497e-06
1.25844e-06
4.66824e-06
1.18845e-06
4.38809e-06
1.12205e-06
4.12367e-06
1.05909e-06
3.87415e-06
9.99396e-07
3.63875e-06
9.42817e-07
3.41674e-06
8.89204e-07
3.20741e-06
8.38415e-07
3.0101e-06
7.90314e-07
2.82415e-06
7.4477e-07
2.64896e-06
7.0166e-07
2.48397e-06
6.60865e-07
2.3286e-06
6.22269e-07
2.18236e-06
5.85765e-07
2.04473e-06
5.51248e-07
1.91524e-06
5.1862e-07
1.79346e-06
4.87784e-07
1.67895e-06
4.58651e-07
1.57131e-06
4.31134e-07
1.47016e-06
4.0515e-07
1.37513e-06
3.80622e-07
1.28588e-06
3.57473e-07
1.20208e-06
3.35633e-07
1.12343e-06
3.15033e-07
1.04963e-06
2.95609e-07
9.80398e-07
2.77298e-07
9.15475e-07
2.60042e-07
8.54611e-07
2.43785e-07
7.9757e-07
2.28473e-07
7.44129e-07
2.14055e-07
6.94075e-07
2.00484e-07
6.47211e-07
1.87713e-07
6.03345e-07
1.757e-07
5.62301e-07
1.64402e-07
5.23908e-07
1.5378e-07
4.88008e-07
1.43796e-07
4.5445e-07
1.34417e-07
4.23092e-07
1.25606e-07
3.93798e-07
1.17333e-07
3.66444e-07
1.09568e-07
3.40909e-07
1.02281e-07
3.17081e-07
9.54451e-08
2.94853e-07
8.90348e-08
2.74125e-07
8.30255e-08
2.54803e-07
7.73939e-08
2.36799e-07
7.21181e-08
2.20028e-07
6.71773e-08
2.04412e-07
6.25517e-08
1.89876e-07
5.8223e-08
1.76352e-07
5.41732e-08
1.63773e-07
5.0386e-08
1.52078e-07
4.68454e-08
1.41209e-07
4.35367e-08
1.31112e-07
4.04457e-08
1.21735e-07
3.75593e-08
1.13031e-07
3.48649e-08
1.04955e-07
3.23506e-08
9.74644e-08
3.00054e-08
9.05196e-08
2.78187e-08
8.40836e-08
2.57806e-08
7.81217e-08
2.38817e-08
7.26012e-08
2.21133e-08
6.74918e-08
2.04671e-08
6.27648e-08
1.89352e-08
5.83935e-08
1.75103e-08
5.43529e-08
1.61856e-08
5.06197e-08
1.49544e-08
4.7172e-08
1.38107e-08
4.39894e-08
1.27488e-08
4.10528e-08
1.17633e-08
3.83445e-08
1.08491e-08
3.58477e-08
1.00014e-08
3.35471e-08
9.21584e-09
3.14282e-08
8.48821e-09
2.94774e-08
7.81457e-09
2.76822e-08
7.19128e-09
2.60309e-08
6.6149e-09
2.45126e-08
6.08222e-09
2.31171e-08
5.59027e-09
2.18349e-08
5.13621e-09
2.06573e-08
4.71745e-09
1.9576e-08
4.33154e-09
1.85834e-08
3.97622e-09
1.76724e-08
3.6494e-09
1.68363e-08
3.34907e-09
1.60691e-08
3.07348e-09
1.53649e-08
2.82085e-09
1.47184e-08
2.58982e-09
1.41246e-08
2.3786e-09
1.35788e-08
2.18658e-09
1.30767e-08
2.01127e-09
1.26139e-08
1.85389e-09
1.21871e-08
1.70941e-09
1.17918e-08
1.58373e-09
1.1426e-08
1.46501e-09
1.1084e-08
1.36986e-09
1.07662e-08
1.2725e-09
1.04649e-08
1.20735e-09
1.0184e-08
1.12424e-09
9.91086e-09
1.09478e-09
9.65708e-09
1.01488e-09
9.40041e-09
1.02944e-09
9.16511e-09
9.39948e-10
8.914e-09
1.00803e-09
8.69034e-09
8.92208e-10
8.43722e-09
1.01695e-09
8.21596e-09
8.81589e-10
7.95936e-09
1.03164e-09
7.73912e-09
8.76705e-10
7.47943e-09
1.04486e-09
7.26943e-09
8.35068e-10
7.01721e-09
1.0159e-09
6.84044e-09
7.01695e-10
6.62217e-09
8.80968e-10
6.51135e-09
4.37731e-10
6.36777e-09
5.82454e-10
6.33348e-09
1.31388e-10
6.27869e-09
2.27391e-10
6.35293e-09
-3.02e-10
6.41475e-09
-2.40415e-10
6.55595e-09
-5.69904e-10
6.68091e-09
-4.94589e-10
6.85058e-09
-6.8332e-10
6.99975e-09
-5.92906e-10
7.1715e-09
-6.90973e-10
7.32055e-09
-5.93552e-10
7.47889e-09
-6.36642e-10
7.61497e-09
-5.42507e-10
7.75372e-09
-5.57663e-10
7.8728e-09
-4.74962e-10
7.99227e-09
-4.80087e-10
8.09657e-09
-4.15984e-10
8.20198e-09
-4.23596e-10
8.30263e-09
-4.01223e-10
8.40748e-09
-4.20831e-10
8.57107e-09
-6.5419e-10
8.75927e-09
-7.35468e-10
1.1496e-08
-1.13092e-08
-1.13326e-08
2.13308e-05
6.0534e-06
2.01817e-05
5.75303e-06
1.90899e-05
5.46619e-06
1.80528e-05
5.19234e-06
1.70679e-05
4.93097e-06
1.61328e-05
4.68158e-06
1.52453e-05
4.44368e-06
1.4403e-05
4.21681e-06
1.3604e-05
4.00052e-06
1.28461e-05
3.79437e-06
1.21275e-05
3.59794e-06
1.14462e-05
3.41082e-06
1.08005e-05
3.23262e-06
1.01888e-05
3.06296e-06
9.60923e-06
2.90148e-06
9.0604e-06
2.74782e-06
8.54077e-06
2.60163e-06
8.04891e-06
2.46261e-06
7.58345e-06
2.33042e-06
7.14309e-06
2.20476e-06
6.72657e-06
2.08536e-06
6.33272e-06
1.97191e-06
5.96039e-06
1.86416e-06
5.6085e-06
1.76184e-06
5.276e-06
1.66471e-06
4.96192e-06
1.57253e-06
4.66531e-06
1.48506e-06
4.38527e-06
1.40209e-06
4.12095e-06
1.32342e-06
3.87152e-06
1.24882e-06
3.63622e-06
1.17812e-06
3.4143e-06
1.11113e-06
3.20505e-06
1.04766e-06
3.00781e-06
9.87555e-07
2.82194e-06
9.30645e-07
2.64682e-06
8.76775e-07
2.48189e-06
8.25798e-07
2.32659e-06
7.7757e-07
2.1804e-06
7.31954e-07
2.04282e-06
6.88823e-07
1.91339e-06
6.48051e-07
1.79166e-06
6.09519e-07
1.67719e-06
5.73115e-07
1.5696e-06
5.38731e-07
1.46848e-06
5.06262e-07
1.37349e-06
4.75612e-07
1.28428e-06
4.46686e-07
1.20052e-06
4.19395e-07
1.1219e-06
3.93654e-07
1.04813e-06
3.69382e-07
9.78923e-07
3.46501e-07
9.14027e-07
3.24938e-07
8.53188e-07
3.04623e-07
7.96171e-07
2.8549e-07
7.42751e-07
2.67474e-07
6.92719e-07
2.50516e-07
6.45874e-07
2.34559e-07
6.02027e-07
2.19547e-07
5.61e-07
2.05429e-07
5.22623e-07
1.92156e-07
4.86739e-07
1.79681e-07
4.53195e-07
1.6796e-07
4.21849e-07
1.56951e-07
3.92569e-07
1.46614e-07
3.65226e-07
1.3691e-07
3.39702e-07
1.27805e-07
3.15884e-07
1.19263e-07
2.93666e-07
1.11253e-07
2.72947e-07
1.03744e-07
2.53634e-07
9.67071e-08
2.35637e-07
9.01147e-08
2.18873e-07
8.39409e-08
2.03264e-07
7.8161e-08
1.88735e-07
7.2752e-08
1.75217e-07
6.76916e-08
1.62643e-07
6.29592e-08
1.50954e-07
5.85351e-08
1.4009e-07
5.44007e-08
1.29997e-07
5.05384e-08
1.20625e-07
4.69317e-08
1.11925e-07
4.35648e-08
1.03852e-07
4.04231e-08
9.63648e-08
3.74927e-08
8.94232e-08
3.47603e-08
8.29902e-08
3.22136e-08
7.7031e-08
2.98409e-08
7.15131e-08
2.76312e-08
6.6406e-08
2.55741e-08
6.16812e-08
2.366e-08
5.7312e-08
2.18796e-08
5.32733e-08
2.02242e-08
4.95418e-08
1.86859e-08
4.60958e-08
1.72568e-08
4.29147e-08
1.59299e-08
3.99795e-08
1.46985e-08
3.72725e-08
1.35561e-08
3.47769e-08
1.24969e-08
3.24774e-08
1.15153e-08
3.03595e-08
1.06061e-08
2.84097e-08
9.76441e-09
2.66153e-08
8.9856e-09
2.49649e-08
8.2654e-09
2.34473e-08
7.59981e-09
2.20524e-08
6.9851e-09
2.07709e-08
6.41774e-09
1.95939e-08
5.8945e-09
1.85131e-08
5.4123e-09
1.7521e-08
4.96832e-09
1.66105e-08
4.55995e-09
1.57748e-08
4.18469e-09
1.5008e-08
3.84034e-09
1.43041e-08
3.52468e-09
1.3658e-08
3.236e-09
1.30645e-08
2.9721e-09
1.25189e-08
2.73217e-09
1.2017e-08
2.51313e-09
1.15544e-08
2.31646e-09
1.11279e-08
2.136e-09
1.07327e-08
1.97888e-09
1.0367e-08
1.83069e-09
1.00253e-08
1.7116e-09
9.70754e-09
1.59025e-09
9.40644e-09
1.50846e-09
9.12548e-09
1.40519e-09
8.85266e-09
1.3676e-09
8.59865e-09
1.26889e-09
8.34248e-09
1.28561e-09
8.10669e-09
1.17574e-09
7.85633e-09
1.25839e-09
7.63186e-09
1.11668e-09
7.37979e-09
1.26902e-09
7.15742e-09
1.10396e-09
6.90214e-09
1.28692e-09
6.68054e-09
1.0983e-09
6.42243e-09
1.30298e-09
6.21084e-09
1.04666e-09
5.96047e-09
1.26626e-09
5.78192e-09
8.80244e-10
5.56575e-09
1.09714e-09
5.45308e-09
5.50401e-10
5.3117e-09
7.23833e-10
5.27553e-09
1.67565e-10
5.22296e-09
2.79959e-10
5.29553e-09
-3.74572e-10
5.35929e-09
-3.04177e-10
5.49897e-09
-7.09582e-10
5.62547e-09
-6.21095e-10
5.79384e-09
-8.51685e-10
5.94417e-09
-7.43236e-10
6.11487e-09
-8.61673e-10
6.26474e-09
-7.43423e-10
6.42227e-09
-7.94173e-10
6.55893e-09
-6.79167e-10
6.69706e-09
-6.95789e-10
6.81657e-09
-5.94471e-10
6.93552e-09
-5.9904e-10
7.0402e-09
-5.20665e-10
7.14514e-09
-5.28533e-10
7.24619e-09
-5.02279e-10
7.35064e-09
-5.25282e-10
7.51421e-09
-8.17761e-10
7.70355e-09
-9.24808e-10
1.02274e-08
-1.3833e-08
-1.38645e-08
2.13232e-05
7.26215e-06
2.01744e-05
6.9018e-06
1.90829e-05
6.55767e-06
1.80461e-05
6.22914e-06
1.70615e-05
5.91558e-06
1.61267e-05
5.61639e-06
1.52394e-05
5.33098e-06
1.43974e-05
5.05881e-06
1.35986e-05
4.79933e-06
1.28409e-05
4.55202e-06
1.21225e-05
4.31636e-06
1.14414e-05
4.09188e-06
1.0796e-05
3.8781e-06
1.01844e-05
3.67456e-06
9.60501e-06
3.48083e-06
9.05634e-06
3.29648e-06
8.53686e-06
3.12111e-06
8.04514e-06
2.95432e-06
7.57982e-06
2.79574e-06
7.13959e-06
2.64499e-06
6.7232e-06
2.50174e-06
6.32947e-06
2.36564e-06
5.95725e-06
2.23638e-06
5.60546e-06
2.11363e-06
5.27307e-06
1.9971e-06
4.95908e-06
1.88651e-06
4.66256e-06
1.78158e-06
4.38261e-06
1.68205e-06
4.11837e-06
1.58766e-06
3.86902e-06
1.49817e-06
3.63379e-06
1.41335e-06
3.41193e-06
1.33298e-06
3.20275e-06
1.25684e-06
3.00557e-06
1.18473e-06
2.81976e-06
1.11646e-06
2.6447e-06
1.05184e-06
2.47982e-06
9.90678e-07
2.32457e-06
9.32821e-07
2.17842e-06
8.78097e-07
2.04089e-06
8.26354e-07
1.9115e-06
7.77441e-07
1.78981e-06
7.31216e-07
1.67538e-06
6.87542e-07
1.56782e-06
6.46292e-07
1.46674e-06
6.07341e-07
1.37178e-06
5.70571e-07
1.2826e-06
5.35869e-07
1.19886e-06
5.0313e-07
1.12027e-06
4.72249e-07
1.04652e-06
4.4313e-07
9.77338e-07
4.15681e-07
9.12463e-07
3.89813e-07
8.51645e-07
3.65442e-07
7.94646e-07
3.42488e-07
7.41245e-07
3.20875e-07
6.9123e-07
3.00532e-07
6.44401e-07
2.81388e-07
6.00569e-07
2.63379e-07
5.59556e-07
2.46442e-07
5.21192e-07
2.30519e-07
4.8532e-07
2.15554e-07
4.51788e-07
2.01493e-07
4.20453e-07
1.88285e-07
3.91183e-07
1.75884e-07
3.6385e-07
1.64243e-07
3.38335e-07
1.5332e-07
3.14525e-07
1.43073e-07
2.92315e-07
1.33464e-07
2.71604e-07
1.24455e-07
2.52297e-07
1.16013e-07
2.34307e-07
1.08105e-07
2.1755e-07
1.00698e-07
2.01946e-07
9.37647e-08
1.87422e-07
8.72757e-08
1.73909e-07
8.12051e-08
1.6134e-07
7.55279e-08
1.49655e-07
7.02205e-08
1.38795e-07
6.52606e-08
1.28706e-07
6.06273e-08
1.19337e-07
5.63005e-08
1.10641e-07
5.22615e-08
1.02571e-07
4.84926e-08
9.50866e-08
4.49771e-08
8.81476e-08
4.16992e-08
8.17171e-08
3.86441e-08
7.57602e-08
3.57977e-08
7.02445e-08
3.31469e-08
6.51394e-08
3.06792e-08
6.04164e-08
2.83829e-08
5.60489e-08
2.62471e-08
5.20118e-08
2.42613e-08
4.82819e-08
2.24158e-08
4.48372e-08
2.07015e-08
4.16574e-08
1.91098e-08
3.87234e-08
1.76325e-08
3.60174e-08
1.62621e-08
3.35229e-08
1.49914e-08
3.12244e-08
1.38139e-08
2.91073e-08
1.27232e-08
2.71583e-08
1.17134e-08
2.53647e-08
1.07792e-08
2.37149e-08
9.9152e-09
2.2198e-08
9.11675e-09
2.08037e-08
8.37934e-09
1.95227e-08
7.69874e-09
1.83462e-08
7.07104e-09
1.72659e-08
6.49259e-09
1.62742e-08
5.95999e-09
1.53641e-08
5.47011e-09
1.45288e-08
5.01995e-09
1.37623e-08
4.60687e-09
1.30587e-08
4.2282e-09
1.24128e-08
3.88192e-09
1.18196e-08
3.56534e-09
1.12742e-08
3.27751e-09
1.07726e-08
3.01479e-09
1.03102e-08
2.77883e-09
9.88377e-09
2.56243e-09
9.4888e-09
2.37385e-09
9.12322e-09
2.19627e-09
8.78167e-09
2.05315e-09
8.46395e-09
1.90797e-09
8.16307e-09
1.80934e-09
7.882e-09
1.68626e-09
7.60955e-09
1.64005e-09
7.35519e-09
1.52325e-09
7.09962e-09
1.54118e-09
6.86316e-09
1.4122e-09
6.61374e-09
1.50782e-09
6.38818e-09
1.34223e-09
6.13745e-09
1.51975e-09
5.91361e-09
1.3278e-09
5.66001e-09
1.54052e-09
5.43661e-09
1.32171e-09
5.18051e-09
1.55907e-09
4.96681e-09
1.26036e-09
4.71883e-09
1.51424e-09
4.5379e-09
1.06117e-09
4.32445e-09
1.3106e-09
4.20926e-09
6.65591e-10
4.07077e-09
8.6232e-10
4.03203e-09
2.06299e-10
3.98236e-09
3.29628e-10
4.05262e-09
-4.44828e-10
4.11893e-09
-3.70491e-10
4.25653e-09
-8.47174e-10
4.38509e-09
-7.49657e-10
4.55172e-09
-1.01831e-09
4.7036e-09
-8.95121e-10
4.87293e-09
-1.031e-09
5.02393e-09
-8.94424e-10
5.18041e-09
-9.50654e-10
5.31789e-09
-8.16639e-10
5.45521e-09
-8.33112e-10
5.57533e-09
-7.14589e-10
5.69363e-09
-7.17341e-10
5.79884e-09
-6.25874e-10
5.90318e-09
-6.32877e-10
6.00479e-09
-6.03887e-10
6.10869e-09
-6.29183e-10
6.27217e-09
-9.81244e-10
6.46124e-09
-1.11388e-09
8.64984e-09
-1.60216e-08
-1.60589e-08
2.13162e-05
8.47059e-06
2.01677e-05
8.05028e-06
1.90765e-05
7.64889e-06
1.804e-05
7.26569e-06
1.70556e-05
6.89994e-06
1.6121e-05
6.55096e-06
1.52339e-05
6.21806e-06
1.43921e-05
5.9006e-06
1.35935e-05
5.59794e-06
1.28361e-05
5.30947e-06
1.21178e-05
5.0346e-06
1.1437e-05
4.77277e-06
1.07916e-05
4.52341e-06
1.01802e-05
4.286e-06
9.60101e-06
4.06003e-06
9.05248e-06
3.84501e-06
8.53314e-06
3.64046e-06
8.04155e-06
3.44591e-06
7.57635e-06
3.26094e-06
7.13624e-06
3.08511e-06
6.71996e-06
2.91802e-06
6.32633e-06
2.75927e-06
5.95421e-06
2.60849e-06
5.60252e-06
2.46532e-06
5.27022e-06
2.3294e-06
4.95632e-06
2.20041e-06
4.65988e-06
2.07802e-06
4.38e-06
1.96192e-06
4.11583e-06
1.85183e-06
3.86655e-06
1.74745e-06
3.63139e-06
1.64852e-06
3.40959e-06
1.55477e-06
3.20047e-06
1.46597e-06
3.00335e-06
1.38186e-06
2.81758e-06
1.30222e-06
2.64257e-06
1.22685e-06
2.47774e-06
1.15551e-06
2.32253e-06
1.08803e-06
2.17643e-06
1.0242e-06
2.03894e-06
9.63846e-07
1.90959e-06
9.06793e-07
1.78793e-06
8.52877e-07
1.67353e-06
8.01936e-07
1.566e-06
7.53823e-07
1.46495e-06
7.0839e-07
1.37002e-06
6.65502e-07
1.28086e-06
6.25026e-07
1.19715e-06
5.86839e-07
1.11858e-06
5.5082e-07
1.04486e-06
5.16857e-07
9.75697e-07
4.8484e-07
9.10842e-07
4.54668e-07
8.50042e-07
4.26242e-07
7.93061e-07
3.99469e-07
7.39677e-07
3.7426e-07
6.89677e-07
3.50532e-07
6.42862e-07
3.28202e-07
5.99044e-07
3.07197e-07
5.58043e-07
2.87442e-07
5.19692e-07
2.6887e-07
4.83831e-07
2.51415e-07
4.50309e-07
2.35014e-07
4.18985e-07
2.1961e-07
3.89724e-07
2.05145e-07
3.624e-07
1.91568e-07
3.36893e-07
1.78827e-07
3.13091e-07
1.66875e-07
2.90888e-07
1.55667e-07
2.70183e-07
1.4516e-07
2.50883e-07
1.35313e-07
2.32899e-07
1.26089e-07
2.16147e-07
1.1745e-07
2.00549e-07
1.09363e-07
1.8603e-07
1.01795e-07
1.72521e-07
9.4714e-08
1.59957e-07
8.80923e-08
1.48275e-07
8.19019e-08
1.37419e-07
7.61169e-08
1.27334e-07
7.07127e-08
1.17968e-07
6.56661e-08
1.09274e-07
6.09552e-08
1.01208e-07
5.65593e-08
9.37258e-08
5.24589e-08
8.67893e-08
4.86358e-08
8.03611e-08
4.50724e-08
7.44063e-08
4.17525e-08
6.88926e-08
3.86607e-08
6.37893e-08
3.57824e-08
5.90681e-08
3.31042e-08
5.47022e-08
3.0613e-08
5.06666e-08
2.82969e-08
4.6938e-08
2.61444e-08
4.34945e-08
2.41449e-08
4.03159e-08
2.22884e-08
3.7383e-08
2.05654e-08
3.46781e-08
1.8967e-08
3.21846e-08
1.7485e-08
2.98869e-08
1.61116e-08
2.77706e-08
1.48394e-08
2.58223e-08
1.36617e-08
2.40295e-08
1.2572e-08
2.23803e-08
1.15644e-08
2.08639e-08
1.06331e-08
1.94703e-08
9.77304e-09
1.81898e-08
8.97922e-09
1.70137e-08
8.24713e-09
1.59338e-08
7.57246e-09
1.49425e-08
6.95128e-09
1.40327e-08
6.37992e-09
1.31978e-08
5.85488e-09
1.24316e-08
5.3731e-09
1.17283e-08
4.93146e-09
1.10827e-08
4.52757e-09
1.04896e-08
4.15836e-09
9.94451e-09
3.82265e-09
9.44303e-09
3.51627e-09
8.98085e-09
3.24101e-09
8.55455e-09
2.98873e-09
8.15977e-09
2.76863e-09
7.79425e-09
2.56179e-09
7.4529e-09
2.3945e-09
7.13517e-09
2.22571e-09
6.83454e-09
2.10996e-09
6.5533e-09
1.9675e-09
6.28126e-09
1.91208e-09
6.02646e-09
1.77805e-09
5.7716e-09
1.79604e-09
5.53431e-09
1.64949e-09
5.286e-09
1.75612e-09
5.05912e-09
1.56912e-09
4.81e-09
1.76887e-09
4.58435e-09
1.55346e-09
4.33278e-09
1.79208e-09
4.10715e-09
1.54733e-09
3.85353e-09
1.8127e-09
3.63718e-09
1.47671e-09
3.39214e-09
1.75927e-09
3.20818e-09
1.24513e-09
2.99812e-09
1.52066e-09
2.87966e-09
7.84051e-10
2.74482e-09
9.97157e-10
2.70276e-09
2.48359e-10
2.65676e-09
3.75629e-10
2.72397e-09
-5.12038e-10
2.79353e-09
-4.4005e-10
2.92843e-09
-9.82072e-10
3.05961e-09
-8.80838e-10
3.22403e-09
-1.18273e-09
3.3779e-09
-1.04899e-09
3.54551e-09
-1.19861e-09
3.69796e-09
-1.04687e-09
3.85314e-09
-1.10583e-09
3.99165e-09
-9.55152e-10
4.12798e-09
-9.69444e-10
4.24889e-09
-8.35494e-10
4.36639e-09
-8.34841e-10
4.47228e-09
-7.31767e-10
4.5759e-09
-7.36494e-10
4.67821e-09
-7.06206e-10
4.78143e-09
-7.32394e-10
4.94479e-09
-1.14461e-09
5.13224e-09
-1.30132e-09
6.89527e-09
-1.77847e-08
-1.78233e-08
2.13096e-05
9.67876e-06
2.01614e-05
9.19849e-06
1.90704e-05
8.73985e-06
1.80341e-05
8.30199e-06
1.705e-05
7.88407e-06
1.61156e-05
7.48532e-06
1.52288e-05
7.10493e-06
1.43872e-05
6.74219e-06
1.35888e-05
6.39636e-06
1.28315e-05
6.06675e-06
1.21134e-05
5.75267e-06
1.14327e-05
5.45349e-06
1.07875e-05
5.16856e-06
1.01762e-05
4.89729e-06
9.59719e-06
4.63909e-06
9.0488e-06
4.3934e-06
8.52958e-06
4.15967e-06
8.03812e-06
3.93738e-06
7.57303e-06
3.72602e-06
7.13303e-06
3.52511e-06
6.71686e-06
3.33419e-06
6.32333e-06
3.1528e-06
5.9513e-06
2.98052e-06
5.5997e-06
2.81692e-06
5.26748e-06
2.66162e-06
4.95366e-06
2.51423e-06
4.6573e-06
2.37438e-06
4.37749e-06
2.24173e-06
4.11339e-06
2.11593e-06
3.86418e-06
1.99666e-06
3.62907e-06
1.88362e-06
3.40734e-06
1.77651e-06
3.19827e-06
1.67503e-06
3.0012e-06
1.57893e-06
2.81549e-06
1.48794e-06
2.64052e-06
1.40181e-06
2.47573e-06
1.3203e-06
2.32057e-06
1.24319e-06
2.17451e-06
1.17026e-06
2.03705e-06
1.1013e-06
1.90773e-06
1.03611e-06
1.78611e-06
9.74504e-07
1.67175e-06
9.16299e-07
1.56424e-06
8.61323e-07
1.46322e-06
8.09411e-07
1.36832e-06
7.60406e-07
1.27919e-06
7.14158e-07
1.1955e-06
6.70525e-07
1.11695e-06
6.29369e-07
1.04325e-06
5.90562e-07
9.74108e-07
5.53979e-07
9.09272e-07
5.19504e-07
8.48489e-07
4.87024e-07
7.91525e-07
4.56433e-07
7.38156e-07
4.27629e-07
6.88171e-07
4.00517e-07
6.4137e-07
3.75003e-07
5.97565e-07
3.51002e-07
5.56576e-07
3.28431e-07
5.18237e-07
3.0721e-07
4.82387e-07
2.87265e-07
4.48875e-07
2.68526e-07
4.1756e-07
2.50925e-07
3.88308e-07
2.34397e-07
3.60992e-07
2.18883e-07
3.35494e-07
2.04326e-07
3.11699e-07
1.90669e-07
2.89503e-07
1.77863e-07
2.68805e-07
1.65858e-07
2.49511e-07
1.54607e-07
2.31532e-07
1.44068e-07
2.14786e-07
1.34197e-07
1.99192e-07
1.24956e-07
1.84678e-07
1.16309e-07
1.71174e-07