/*--------------------------------*- C++ -*----------------------------------*\
| =========                 |                                                 |
| \\      /  F ield         | OpenFOAM: The Open Source CFD Toolbox           |
|  \\    /   O peration     | Version:  v1912                                 |
|   \\  /    A nd           | Website:  www.openfoam.com                      |
|    \\/     M anipulation  |                                                 |
\*---------------------------------------------------------------------------*/
FoamFile
{
    version     2.0;
    format      ascii;
    class       surfaceScalarField;
    location    "80";
    object      phi;
}
// * * * * * * * * * * * * * * * * * * * * * * * * * * * * * * * * * * * * * //

dimensions      [0 3 -1 0 0 0 0];
oriented        oriented;


internalField   nonuniform List<scalar> 
28285
(
0.183728
0.000277606
0.182781
0.000946035
0.18123
0.00155116
0.179124
0.00210614
0.176514
0.00261059
0.173442
0.00307205
0.169936
0.00350574
0.166004
0.00393175
0.161633
0.00437129
0.15679
0.00484267
0.151432
0.00535781
0.145513
0.00591972
0.138991
0.00652135
0.131845
0.00714617
0.124075
0.00777022
0.115709
0.00836538
0.106806
0.00890335
0.0974464
0.00935968
0.0877292
0.00971719
0.0777609
0.00996831
0.0676447
0.0101162
0.0574698
0.0101749
0.0473019
0.0101679
0.03718
0.0101219
0.0271468
0.0100331
0.0172303
0.00991657
0.00744051
0.00978977
-0.00221829
0.0096588
-0.0116848
0.00946649
-0.0210045
0.00931976
-0.0301638
0.0091593
-0.0391423
0.00897849
-0.047916
0.00877363
-0.0564619
0.00854596
-0.0647637
0.00830181
-0.0728154
0.00805167
-0.0806238
0.00780842
-0.0882087
0.0075849
-0.0956001
0.00739135
-0.102833
0.00723329
-0.109944
0.00711024
-0.116959
0.00701559
-0.123897
0.00693759
-0.130758
0.00686139
-0.13753
0.00677174
-0.144186
0.00665581
-0.150691
0.00650558
-0.157011
0.00631936
-0.163113
0.00610211
-0.168977
0.00586455
-0.174599
0.0056212
-0.179986
0.00538758
-0.185163
0.00517727
-0.190162
0.00499911
-0.195018
0.00485524
-0.199758
0.00474017
-0.204399
0.00464123
-0.208939
0.00454005
-0.213354
0.00441523
-0.2176
0.00424534
-0.221612
0.00401193
-0.225314
0.00370214
-0.228624
0.00331052
-0.231464
0.00283976
-0.233764
0.00230009
-0.235472
0.0017075
-0.236552
0.00108065
-0.237
0.000447453
-0.236818
-0.000182274
-0.236034
-0.000783833
-0.234683
-0.00135042
-0.232807
-0.0018765
-0.230445
-0.00236207
-0.227633
-0.00281159
-0.224401
-0.00323257
-0.220766
-0.00363416
-0.216741
-0.00402589
-0.212324
-0.00441646
-0.207511
-0.00481297
-0.202291
-0.00522038
-0.196649
-0.00564139
-0.190573
-0.00607656
-0.184048
-0.00652449
-0.177066
-0.006982
-0.169622
-0.00744434
-0.161716
-0.00790557
-0.153357
-0.00835896
-0.14456
-0.00879746
-0.135346
-0.00921424
-0.125742
-0.00960325
-0.115782
-0.00996008
-0.1055
-0.0102824
-0.09493
-0.01057
-0.0841053
-0.0108247
-0.0730559
-0.0110494
-0.0618088
-0.0112471
-0.0503885
-0.0114202
-0.0388174
-0.0115711
-0.0271085
-0.0117089
-0.0152784
-0.0118301
-0.00339596
-0.0118825
0.00840341
-0.0117994
0.0200808
-0.0116774
0.0315495
-0.0114687
0.0427085
-0.011159
0.0534524
-0.0107439
0.0636823
-0.0102299
0.0733142
-0.00963188
0.0822868
-0.00897259
0.090567
-0.0082802
0.0981521
-0.00758507
0.105068
-0.00691634
0.111367
-0.00629831
0.117115
-0.00574827
0.12239
-0.00527493
0.127269
-0.00487864
0.131822
-0.00455293
0.136109
-0.00428712
0.140178
-0.00406945
0.144068
-0.00389008
0.147811
-0.00374328
0.15144
-0.00362835
0.154989
-0.00354905
0.158501
-0.00351214
0.162026
-0.00352453
0.165615
-0.00358965
0.169321
-0.00370574
0.173184
-0.00386311
0.177228
-0.00404423
0.181453
-0.00422519
0.185832
-0.0043782
0.190307
-0.00447566
0.194801
-0.00449378
0.199217
-0.004416
0.203453
-0.00423598
0.207411
-0.00395811
0.211007
-0.00359579
0.214177
-0.00316986
0.216882
-0.00270473
0.219106
-0.00222444
0.220855
-0.00174903
0.222147
-0.00129187
0.223005
-0.00085762
0.223444
-0.000439699
0.223471
-2.6507e-05
0.223145
0.000326127
0.222424
0.000720888
0.221299
0.00112512
0.219765
0.0015335
0.217807
0.0019585
0.215399
0.00240767
0.212543
0.00285591
0.209253
0.00328973
0.205552
0.00370101
0.201466
0.00408653
0.197017
0.00444858
0.192223
0.00479432
0.187088
0.00513443
0.181608
0.00548019
0.175764
0.00584392
0.169534
0.00623069
0.16288
0.00665373
0.155783
0.00709659
0.00758087
0.183942
0.000445639
0.183039
0.00184864
0.181494
0.00309627
0.179378
0.00422224
0.176753
0.00523488
0.173671
0.00615451
0.170162
0.00701495
0.166235
0.00785896
0.161875
0.008731
0.157048
0.00966926
0.151708
0.0106986
0.145802
0.0118253
0.139288
0.0130353
0.132139
0.0142948
0.124355
0.0155548
0.115962
0.016758
0.107019
0.0178464
0.0976088
0.0187701
0.0878319
0.0194941
0.0777976
0.0200027
0.0676128
0.020301
0.0573743
0.0204133
0.047165
0.0203773
0.0370496
0.0202373
0.0270491
0.0200336
0.0171671
0.0197986
0.00740251
0.0195543
-0.00224701
0.0193083
-0.0117306
0.01895
-0.0210668
0.018656
-0.0302429
0.0183353
-0.0392379
0.0179735
-0.0480267
0.0175625
-0.0565851
0.0171044
-0.0648952
0.0166119
-0.0729501
0.0161065
-0.0807565
0.0156148
-0.0883348
0.0151633
-0.0957169
0.0147734
-0.102941
0.0144569
-0.110043
0.0142129
-0.117056
0.014028
-0.123996
0.0138778
-0.130866
0.0137314
-0.137651
0.0135572
-0.144324
0.0133284
-0.150847
0.0130283
-0.15718
0.0126532
-0.163292
0.0122136
-0.169159
0.0117318
-0.174776
0.011238
-0.180153
0.0107647
-0.185316
0.0103402
-0.1903
0.00998313
-0.195143
0.00969805
-0.199876
0.0094737
-0.204519
0.00928382
-0.209069
0.00909031
-0.213503
0.00884894
-0.217773
0.0085156
-0.221814
0.00805245
-0.225545
0.00743331
-0.228882
0.00664722
-0.231742
0.00570005
-0.234055
0.00461292
-0.235766
0.00341888
-0.236843
0.00215715
-0.237283
0.000887834
-0.237085
-0.00038007
-0.236281
-0.00158819
-0.234908
-0.00272354
-0.233009
-0.0037755
-0.230626
-0.00474464
-0.227797
-0.00564052
-0.224551
-0.00647874
-0.220907
-0.0072781
-0.216875
-0.00805814
-0.212455
-0.00883659
-0.20764
-0.00962776
-0.202419
-0.0104416
-0.196777
-0.0112834
-0.190699
-0.0121542
-0.184172
-0.0130511
-0.177187
-0.0139677
-0.169737
-0.0148943
-0.161824
-0.0158187
-0.153455
-0.0167275
-0.144646
-0.0176064
-0.135419
-0.0184415
-0.125801
-0.0192206
-0.115827
-0.0199347
-0.10553
-0.0205792
-0.0949459
-0.0211541
-0.0841073
-0.0216633
-0.0730436
-0.0221132
-0.0617798
-0.0225108
-0.0503387
-0.0228614
-0.0387435
-0.0231664
-0.0270265
-0.0234258
-0.0152186
-0.023638
-0.00335671
-0.0237443
0.00846025
-0.0236163
0.0201633
-0.0233805
0.031659
-0.0229644
0.0428439
-0.0223439
0.0536112
-0.0215112
0.0638599
-0.0204786
0.0735046
-0.0192766
0.082483
-0.017951
0.0907616
-0.0165589
0.0983383
-0.0151618
0.105241
-0.0138188
0.111521
-0.012579
0.11725
-0.0114772
0.122506
-0.0105308
0.127368
-0.00973992
0.131906
-0.00909114
0.136181
-0.00856233
0.140241
-0.00812931
0.144123
-0.00777192
0.147858
-0.0074785
0.151477
-0.00724785
0.155016
-0.00708792
0.158517
-0.0070129
0.16203
-0.00703739
0.165609
-0.00716856
0.169307
-0.00740374
0.173167
-0.00772296
0.177213
-0.00809093
0.181447
-0.00845918
0.18584
-0.00877069
0.190335
-0.00897062
0.194851
-0.00900955
0.199289
-0.00885433
0.203545
-0.00849235
0.20752
-0.00793271
0.211127
-0.00720285
0.214302
-0.00634528
0.217007
-0.0054097
0.219228
-0.00444492
0.22097
-0.00349152
0.222255
-0.00257634
0.223105
-0.00170832
0.223539
-0.000873781
0.223559
-4.60716e-05
0.223239
0.000645807
0.222528
0.00143223
0.221408
0.00224514
0.219871
0.0030706
0.217898
0.00393144
0.215477
0.00482864
0.212609
0.00572347
0.209309
0.00659018
0.205598
0.00741171
0.201503
0.00818134
0.197048
0.00890362
0.19225
0.00959303
0.187113
0.0102712
0.181632
0.0109611
0.175788
0.0116876
0.169558
0.012461
0.162904
0.0133078
0.155806
0.0141949
0.015164
0.184147
0.000611955
0.183253
0.0027419
0.181707
0.00464298
0.179582
0.00634743
0.176947
0.00786964
0.173857
0.009244
0.170347
0.0105249
0.166426
0.0117799
0.162079
0.0130782
0.157269
0.0144794
0.151946
0.0160219
0.146055
0.0177159
0.13955
0.01954
0.132403
0.0214426
0.124608
0.0233491
0.116195
0.0251715
0.10722
0.0268208
0.0977706
0.0282199
0.0879498
0.0293149
0.0778714
0.0300811
0.0676469
0.0305256
0.0573767
0.0306834
0.0471445
0.0306095
0.037016
0.0303658
0.0270118
0.0300377
0.0171288
0.0296817
0.00736357
0.0293195
-0.0022893
0.0289612
-0.0117812
0.028442
-0.0211275
0.0280023
-0.0303151
0.027523
-0.0393225
0.0269809
-0.048123
0.026363
-0.0566908
0.0256721
-0.0650063
0.0249275
-0.0730619
0.0241621
-0.0808641
0.023417
-0.0884345
0.0227336
-0.0958062
0.0221452
-0.103019
0.0216701
-0.110114
0.0213075
-0.117122
0.0210364
-0.124064
0.0208194
-0.130941
0.0206086
-0.137739
0.0203547
-0.144426
0.020016
-0.150964
0.0195664
-0.157312
0.0190004
-0.163432
0.0183342
-0.169303
0.0176024
-0.174917
0.016852
-0.180286
0.0161337
-0.185437
0.0154915
-0.190409
0.0149546
-0.195241
0.0145302
-0.199968
0.0142012
-0.204612
0.0139271
-0.20917
0.013649
-0.21362
0.0132986
-0.217912
0.0128081
-0.22198
0.0121195
-0.225739
0.0111928
-0.229103
0.010011
-0.231986
0.00858336
-0.234316
0.00694243
-0.236036
0.00513909
-0.237113
0.00323407
-0.237549
0.00132368
-0.237339
-0.000589953
-0.236518
-0.00240914
-0.235126
-0.00411557
-0.233208
-0.00569358
-0.230808
-0.00714469
-0.227964
-0.00848424
-0.224706
-0.00973638
-0.221054
-0.0109299
-0.217018
-0.0120949
-0.212596
-0.0132585
-0.207781
-0.0144424
-0.202561
-0.0156614
-0.196921
-0.0169236
-0.190845
-0.0182304
-0.184319
-0.0195773
-0.177332
-0.0209545
-0.169879
-0.0223472
-0.161961
-0.0237371
-0.153585
-0.0251036
-0.144766
-0.0264251
-0.135527
-0.0276804
-0.125897
-0.0288509
-0.115909
-0.0299229
-0.105598
-0.0308896
-0.0950012
-0.031751
-0.0841507
-0.0325138
-0.073076
-0.0331879
-0.0618018
-0.0337849
-0.0503501
-0.0343131
-0.0387431
-0.0347734
-0.0270112
-0.0351577
-0.0151958
-0.0354534
-0.00332862
-0.0356116
0.00851209
-0.035457
0.0202447
-0.0351131
0.0317729
-0.0344926
0.0429906
-0.0335615
0.053788
-0.0323086
0.0640619
-0.0307525
0.0737244
-0.0289391
0.0827117
-0.0269383
0.0909899
-0.0248371
0.0985573
-0.0227292
0.105443
-0.0207046
0.111702
-0.018838
0.117407
-0.017182
0.122639
-0.0157626
0.127478
-0.0145794
0.131998
-0.0136109
0.136258
-0.0128228
0.140307
-0.0121774
0.144178
-0.0116437
0.147904
-0.0112039
0.151512
-0.0108564
0.155038
-0.0106139
0.158524
-0.0104988
0.162021
-0.0105343
0.165585
-0.0107328
0.169271
-0.0110899
0.173125
-0.0115763
0.177172
-0.0121382
0.181415
-0.0127017
0.185824
-0.0131806
0.190343
-0.0134892
0.194887
-0.0135534
0.199355
-0.0133223
0.203639
-0.0127768
0.207638
-0.011931
0.211262
-0.0108273
0.214448
-0.00953084
0.217156
-0.00811777
0.219373
-0.00666269
0.221109
-0.00522749
0.222386
-0.00385276
0.223229
-0.00255169
0.223658
-0.00130285
0.223681
-6.84375e-05
0.223359
0.000967353
0.222648
0.00214333
0.221532
0.00336083
0.219998
0.0046051
0.218025
0.00590468
0.2156
0.00725308
0.212726
0.0085974
0.209417
0.00989895
0.205698
0.0111313
0.201595
0.0122843
0.197134
0.0133648
0.192332
0.014395
0.187195
0.015408
0.181717
0.0164388
0.17588
0.0175255
0.169657
0.018684
0.16301
0.0199546
0.155918
0.0212863
0.0227422
0.184438
0.000793344
0.183531
0.00364821
0.181967
0.00620709
0.179822
0.0084922
0.177171
0.0105214
0.174071
0.0123437
0.17056
0.0140358
0.166648
0.0156918
0.162318
0.0174083
0.15753
0.019267
0.152231
0.0213214
0.146361
0.0235856
0.139871
0.0260306
0.132727
0.0285867
0.124923
0.0311525
0.116487
0.0336077
0.107477
0.0358306
0.0979823
0.0377148
0.0881116
0.0391856
0.0779838
0.0402088
0.0677158
0.0407936
0.0574125
0.0409868
0.0471616
0.0408604
0.037018
0.0405094
0.0269911
0.0400646
0.0170892
0.0395836
0.00731209
0.0390966
-0.00234893
0.0386222
-0.0118468
0.0379398
-0.0212019
0.0373574
-0.0304013
0.0367224
-0.0394222
0.0360018
-0.0482359
0.0351767
-0.056814
0.0342502
-0.0651351
0.0332485
-0.0731901
0.032217
-0.0809855
0.0312125
-0.0885439
0.030292
-0.0959008
0.0295021
-0.103099
0.0288685
-0.110182
0.0283903
-0.117184
0.0280388
-0.124127
0.0277622
-0.131013
0.0274946
-0.137826
0.0271676
-0.144533
0.0267232
-0.151092
0.0261251
-0.157457
0.0253657
-0.16359
0.0244674
-0.169466
0.0234781
-0.175077
0.0224631
-0.180436
0.0214926
-0.185573
0.020628
-0.190528
0.0199098
-0.195346
0.0193486
-0.200066
0.018921
-0.20471
0.0185713
-0.20928
0.0182188
-0.213751
0.0177697
-0.218074
0.0171308
-0.222177
0.016223
-0.225976
0.0149916
-0.229378
0.0134132
-0.232295
0.0115003
-0.23465
0.00929744
-0.236386
0.00687431
-0.237465
0.00431389
-0.237898
0.00175609
-0.237674
-0.000813876
-0.236833
-0.0032504
-0.235417
-0.00553112
-0.233475
-0.00763549
-0.231053
-0.00956653
-0.228191
-0.0113462
-0.22492
-0.0130078
-0.221259
-0.0145906
-0.217218
-0.0161361
-0.212795
-0.0176811
-0.207983
-0.0192549
-0.202767
-0.0208775
-0.197131
-0.0225595
-0.191058
-0.0243027
-0.184535
-0.0261009
-0.177548
-0.027941
-0.170093
-0.0298028
-0.162168
-0.0316614
-0.153783
-0.0334889
-0.144952
-0.0352561
-0.135698
-0.0369346
-0.12605
-0.0384985
-0.116044
-0.0399295
-0.105715
-0.0412183
-0.0951006
-0.0423653
-0.0842343
-0.04338
-0.0731456
-0.0442767
-0.061859
-0.0450715
-0.0503954
-0.0457767
-0.0387757
-0.0463931
-0.027026
-0.0469074
-0.0151867
-0.0472927
-0.00329737
-0.0475009
0.00857883
-0.0473332
0.0203552
-0.0468895
0.0319321
-0.0460694
0.0431992
-0.0448286
0.0540428
-0.0431523
0.0643555
-0.0410652
0.0740458
-0.0386294
0.0830475
-0.03594
0.0913259
-0.0331154
0.0988799
-0.0302832
0.105741
-0.0275658
0.111968
-0.0250646
0.117636
-0.0228507
0.122832
-0.0209584
0.127639
-0.0193861
0.132131
-0.0181032
0.13637
-0.0170613
0.140401
-0.0162083
0.144258
-0.015501
0.147969
-0.0149149
0.151561
-0.0144486
0.155067
-0.0141203
0.15853
-0.0139618
0.162003
-0.0140066
0.165544
-0.0142736
0.169211
-0.0147573
0.173054
-0.0154192
0.177102
-0.0161865
0.181359
-0.0169583
0.185795
-0.0176167
0.190351
-0.0180454
0.19494
-0.0181421
0.199455
-0.0178377
0.203785
-0.0171062
0.207821
-0.0159676
0.211474
-0.01448
0.214676
-0.0127331
0.21739
-0.0108314
0.219604
-0.00887693
0.221331
-0.006954
0.222595
-0.00511744
0.223428
-0.00338422
0.223849
-0.00172431
0.223866
-8.52634e-05
0.223546
0.00128772
0.222841
0.00284771
0.221739
0.00446324
0.220212
0.00613239
0.218236
0.00787982
0.215804
0.00968543
0.212919
0.0114827
0.209596
0.0132214
0.205863
0.0148652
0.201747
0.0164002
0.197276
0.0178357
0.192469
0.0192021
0.187332
0.0205447
0.181859
0.0219115
0.17603
0.0233545
0.169818
0.0248957
0.163183
0.0265903
0.156101
0.0283674
0.0303138
0.184826
0.000998306
0.183891
0.00458263
0.182295
0.00780327
0.180119
0.0106687
0.177441
0.0131991
0.174326
0.0154586
0.170813
0.0175486
0.166912
0.0195927
0.162605
0.0217162
0.157846
0.0240256
0.152577
0.02659
0.146735
0.029428
0.140263
0.0325026
0.133125
0.0357251
0.125311
0.038966
0.116847
0.0420714
0.107794
0.0448839
0.0982436
0.0472652
0.0883112
0.0491179
0.078123
0.0503971
0.0678026
0.051114
0.0574624
0.0513269
0.0471956
0.0511273
0.0370176
0.0506874
0.0269589
0.0501233
0.017034
0.0495085
0.0072426
0.048888
-0.00242694
0.0482917
-0.0119302
0.0474431
-0.0212945
0.0467217
-0.0305074
0.0459354
-0.0395444
0.0450387
-0.0483739
0.0440062
-0.0569644
0.0428407
-0.0652916
0.0415757
-0.0733447
0.0402702
-0.0811303
0.038998
-0.0886721
0.0378338
-0.0960086
0.0368386
-0.103187
0.0360465
-0.110253
0.0354567
-0.117247
0.0350322
-0.12419
0.0347057
-0.131087
0.0343914
-0.137919
0.034
-0.144651
0.0334555
-0.151236
0.0327101
-0.157625
0.0317542
-0.163774
0.0306167
-0.169657
0.0293603
-0.175264
0.0280703
-0.180609
0.0268383
-0.185726
0.025745
-0.19066
0.0248437
-0.19546
0.0241487
-0.200169
0.02363
-0.204814
0.023216
-0.209398
0.0228023
-0.213895
0.0222675
-0.218256
0.0214915
-0.222405
0.0203724
-0.226254
0.0188405
-0.229706
0.016865
-0.232667
0.0144612
-0.235056
0.0116861
-0.236811
0.00862991
-0.237896
0.00539867
-0.238324
0.00218418
-0.238083
-0.00105494
-0.237217
-0.00411674
-0.235772
-0.00697567
-0.233801
-0.00960665
-0.231353
-0.0120148
-0.228469
-0.01423
-0.225181
-0.0162957
-0.22151
-0.0182614
-0.217465
-0.0201814
-0.213043
-0.0221032
-0.208234
-0.0240635
-0.203024
-0.0260875
-0.197395
-0.0281886
-0.191329
-0.0303689
-0.18481
-0.0326203
-0.177825
-0.0349261
-0.170367
-0.0372607
-0.162436
-0.0395919
-0.15404
-0.0418848
-0.145194
-0.0441021
-0.135921
-0.0462076
-0.126252
-0.0481675
-0.116223
-0.0499588
-0.105872
-0.0515698
-0.0952361
-0.0530009
-0.0843508
-0.0542653
-0.0732454
-0.055382
-0.0619442
-0.0563728
-0.0504663
-0.0572546
-0.0388306
-0.0580288
-0.0270602
-0.0586778
-0.0151905
-0.0591625
-0.00326688
-0.0594245
0.00865664
-0.0592568
0.0204898
-0.0587227
0.0321296
-0.0577093
0.0434611
-0.0561601
0.0543651
-0.0540562
0.0647285
-0.0514286
0.0744553
-0.0483562
0.083476
-0.0449607
0.0917546
-0.0413941
0.0992911
-0.0378197
0.10612
-0.0343947
0.112304
-0.0312487
0.117926
-0.0284721
0.123075
-0.0261074
0.127839
-0.0241506
0.132296
-0.0225602
0.136507
-0.0212722
0.140516
-0.0202177
0.144356
-0.0193401
0.148049
-0.018608
0.15162
-0.0180201
0.155101
-0.0176015
0.158535
-0.0173952
0.161975
-0.0174467
0.165484
-0.0177831
0.169127
-0.0183994
0.172955
-0.0192476
0.177003
-0.0202349
0.181277
-0.0212319
0.185748
-0.0220871
0.190352
-0.0226501
0.194999
-0.022789
0.199576
-0.0224148
0.203964
-0.0214944
0.208051
-0.020054
0.21174
-0.0181695
0.214964
-0.0159571
0.217685
-0.0135521
0.219894
-0.0110861
0.221608
-0.0086675
0.222856
-0.00636609
0.223674
-0.00420228
0.224087
-0.00213683
0.224106
-0.000104302
0.22379
0.00160404
0.223091
0.00354607
0.221993
0.00556145
0.22047
0.00765573
0.218497
0.0098529
0.216063
0.0121186
0.213169
0.0143771
0.209831
0.0165592
0.20608
0.0186163
0.201948
0.020532
0.197466
0.0223183
0.192653
0.0240145
0.187518
0.0256796
0.182055
0.0273754
0.17624
0.0291692
0.170046
0.03109
0.163427
0.0332088
0.156362
0.035433
0.0378753
0.185315
0.00123446
0.18434
0.00555787
0.182698
0.00944535
0.180477
0.0128896
0.177764
0.0159121
0.174629
0.0185942
0.171113
0.0210647
0.167226
0.0234797
0.162945
0.0259963
0.158223
0.0287477
0.152993
0.0318199
0.147185
0.0352364
0.140736
0.0389514
0.133606
0.0428558
0.12578
0.0467913
0.117283
0.0505683
0.108177
0.0539904
0.0985583
0.0568839
0.0885506
0.0591256
0.0782894
0.0606583
0.0679103
0.0614931
0.0575413
0.0616959
0.0472232
0.0614453
0.0369974
0.0609133
0.0269043
0.0602164
0.0169574
0.0594554
0.00715277
0.0586927
-0.00252364
0.0579681
-0.0120321
0.0569515
-0.0214066
0.0560963
-0.0306355
0.0551642
-0.0396919
0.0540952
-0.0485407
0.052855
-0.0571463
0.0514462
-0.0654806
0.0499101
-0.0735309
0.0483205
-0.0813033
0.0467704
-0.0888233
0.0453538
-0.0961331
0.0441484
-0.103284
0.0431978
-0.110329
0.0425017
-0.117311
0.0420136
-0.124254
0.0416493
-0.131164
0.041301
-0.13802
0.0408564
-0.144784
0.040219
-0.151402
0.0393282
-0.15782
0.0381719
-0.163989
0.0367865
-0.16988
0.0352507
-0.175482
0.0336722
-0.18081
0.032167
-0.185902
0.030837
-0.190809
0.02975
-0.195585
0.0289249
-0.20028
0.0283248
-0.204924
0.0278604
-0.209523
0.0274019
-0.214054
0.0267979
-0.218461
0.0258984
-0.222667
0.0245781
-0.226578
0.0227516
-0.230092
0.0203793
-0.233108
0.0174776
-0.23554
0.0141174
-0.237321
0.0104116
-0.238413
0.00649062
-0.238836
0.00260668
-0.238574
-0.00131714
-0.237677
-0.00501377
-0.236197
-0.00845567
-0.23419
-0.0116134
-0.23171
-0.014495
-0.2288
-0.01714
-0.225493
-0.0196028
-0.221811
-0.0219433
-0.217761
-0.0242307
-0.213341
-0.0265235
-0.208539
-0.0288659
-0.203338
-0.0312884
-0.197718
-0.033808
-0.191661
-0.0364265
-0.185148
-0.0391334
-0.178165
-0.0419084
-0.170706
-0.0447204
-0.162768
-0.0475293
-0.15436
-0.0502931
-0.145497
-0.0529655
-0.136201
-0.0555032
-0.126506
-0.0578624
-0.116449
-0.0600156
-0.10607
-0.0619488
-0.095409
-0.0636621
-0.084501
-0.0651734
-0.0733761
-0.0665068
-0.0620581
-0.0676908
-0.0505638
-0.0687489
-0.0389092
-0.0696834
-0.0271141
-0.0704729
-0.0152082
-0.0710683
-0.00323769
-0.071395
0.00874513
-0.0712396
0.0206492
-0.0706268
0.0323678
-0.0694278
0.0437801
-0.0675724
0.05476
-0.0650362
0.0651875
-0.0618561
0.0749606
-0.0581293
0.0840053
-0.0540054
0.0922842
-0.049673
0.0997986
-0.0453341
0.106587
-0.0411827
0.112717
-0.0373793
0.118279
-0.034034
0.123369
-0.0311975
0.128081
-0.0288622
0.132494
-0.0269737
0.136672
-0.0254494
0.140655
-0.0242014
0.144473
-0.023158
0.148145
-0.0222799
0.151691
-0.0215666
0.155142
-0.0210517
0.158538
-0.0207913
0.161937
-0.0208457
0.165406
-0.0212526
0.169015
-0.0220087
0.172824
-0.0230567
0.176872
-0.0242829
0.181167
-0.0255268
0.185681
-0.0266003
0.190347
-0.0273165
0.195068
-0.02751
0.199724
-0.0270706
0.204187
-0.0259574
0.208337
-0.0242041
0.212073
-0.0219058
0.215325
-0.0192085
0.218054
-0.0162813
0.220256
-0.0132884
0.221953
-0.0103643
0.223181
-0.00759444
0.223981
-0.00500221
0.224383
-0.00253825
0.2244
-0.000121612
0.224089
0.0019149
0.223403
0.00423253
0.222318
0.00664638
0.220803
0.00917034
0.21883
0.0118261
0.216388
0.0145602
0.213482
0.0172834
0.210128
0.0199129
0.206357
0.0223875
0.202205
0.0246837
0.197708
0.0268156
0.192889
0.0288337
0.187756
0.030812
0.182304
0.0328281
0.176507
0.0349655
0.170335
0.0372618
0.163739
0.039805
0.156695
0.0424777
0.0454229
0.185909
0.00150981
0.184881
0.00658635
0.183179
0.0111473
0.180901
0.0151677
0.178142
0.0186704
0.174981
0.021756
0.17146
0.0245851
0.16759
0.0273499
0.163344
0.0302424
0.158667
0.0334249
0.153484
0.0370024
0.147717
0.0410032
0.141297
0.0453717
0.134176
0.0499769
0.126337
0.0546304
0.1178
0.0591046
0.10863
0.0631605
0.0989299
0.0665842
0.0888329
0.0692227
0.0784903
0.0710009
0.0680618
0.0719215
0.0576246
0.0721331
0.0472285
0.0718415
0.0369491
0.0711926
0.0268228
0.0703426
0.0168568
0.0694213
0.00704145
0.0685081
-0.00263891
0.0676485
-0.0121523
0.0664649
-0.0215385
0.0654825
-0.0307864
0.0644121
-0.0398665
0.0631752
-0.0487389
0.0617274
-0.0573628
0.0600702
-0.0657057
0.058253
-0.073752
0.0563668
-0.0815077
0.054526
-0.0890002
0.0528464
-0.0962763
0.0514244
-0.103394
0.0503153
-0.110411
0.0495191
-0.117377
0.0489792
-0.12432
0.0485922
-0.131244
0.0482257
-0.13813
0.0477419
-0.144932
0.0470208
-0.151591
0.0459871
-0.158044
0.0446256
-0.164239
0.0429813
-0.170139
0.041151
-0.175735
0.0392675
-0.181042
0.0374743
-0.186103
0.0358975
-0.190974
0.0346216
-0.19572
0.0336708
-0.200396
0.033001
-0.205039
0.0325033
-0.209657
0.03202
-0.214226
0.0313667
-0.218688
0.0303603
-0.222961
0.028851
-0.226947
0.0267379
-0.230539
0.023971
-0.233624
0.0205626
-0.236107
0.016601
-0.237921
0.0122252
-0.239023
0.00759242
-0.239438
0.00302135
-0.239149
-0.00160539
-0.238215
-0.00594807
-0.236692
-0.00997849
-0.234642
-0.0136632
-0.232124
-0.0170134
-0.229183
-0.0200808
-0.225853
-0.0229327
-0.222159
-0.0256378
-0.218106
-0.0282835
-0.213689
-0.0309404
-0.208895
-0.0336597
-0.203707
-0.0364767
-0.198101
-0.0394145
-0.192054
-0.042473
-0.185549
-0.0456379
-0.178571
-0.0488865
-0.17111
-0.0521817
-0.163165
-0.0554741
-0.154743
-0.0587157
-0.145859
-0.0618493
-0.136537
-0.0648256
-0.126811
-0.0675882
-0.116721
-0.070105
-0.106309
-0.0723608
-0.0956179
-0.0743537
-0.0846833
-0.076108
-0.0735359
-0.0776542
-0.0621989
-0.0790278
-0.0506862
-0.0802615
-0.0390101
-0.0813595
-0.027186
-0.082297
-0.0152386
-0.0830157
-0.00321124
-0.0834224
0.00884323
-0.0832941
0.020833
-0.0826165
0.0326469
-0.0812418
0.0441575
-0.0790829
0.05523
-0.0761087
0.0657357
-0.0723618
0.0755651
-0.0679586
0.0846391
-0.0630794
0.0929181
-0.057952
0.100405
-0.052821
0.107143
-0.0479205
0.113208
-0.0434441
0.118697
-0.0395231
0.123715
-0.036216
0.128363
-0.0335101
0.132724
-0.0313352
0.136862
-0.0295871
0.140816
-0.0281556
0.14461
-0.0269518
0.148258
-0.0259277
0.151775
-0.025084
0.155189
-0.0244648
0.15854
-0.0241422
0.161888
-0.0241942
0.165308
-0.0246723
0.168876
-0.0255768
0.17266
-0.0268411
0.176707
-0.0283292
0.181027
-0.0298469
0.185592
-0.0311655
0.190333
-0.032058
0.195145
-0.0323216
0.199897
-0.0318227
0.204452
-0.030512
0.208679
-0.0284316
0.212472
-0.0256987
0.215756
-0.0224925
0.218495
-0.0190198
0.220687
-0.0154809
0.222362
-0.0120391
0.223564
-0.00879654
0.224341
-0.00577918
0.224729
-0.00292641
0.224749
-0.00014131
0.224447
0.00221726
0.223775
0.00490366
0.222708
0.00771397
0.221206
0.0106717
0.219238
0.0137944
0.216789
0.0170091
0.213863
0.0202094
0.210483
0.0232937
0.206684
0.0261864
0.202509
0.0288581
0.197996
0.0313286
0.19317
0.0336597
0.188042
0.0359401
0.182605
0.0382652
0.176833
0.0407372
0.170692
0.0434037
0.164125
0.0463715
0.157107
0.0494961
0.0529539
0.186609
0.00183317
0.185515
0.00768118
0.183738
0.0129239
0.181389
0.017517
0.178575
0.0214844
0.175381
0.0249497
0.171855
0.0281109
0.168005
0.0311998
0.163801
0.0344472
0.159178
0.0380477
0.154053
0.0421274
0.148336
0.0467201
0.14195
0.0517579
0.134841
0.0570861
0.126986
0.0624853
0.118403
0.0676872
0.109158
0.0724054
0.0993624
0.07638
0.0891641
0.079421
0.0787467
0.0814184
0.0682341
0.0824341
0.0576805
0.0826867
0.0472017
0.0823203
0.036869
0.0815253
0.0267122
0.0804995
0.016731
0.0794025
0.00690821
0.0783309
-0.00277226
0.077329
-0.0122902
0.0759828
-0.0216896
0.0748819
-0.0309603
0.0736827
-0.040069
0.072284
-0.0489701
0.0706285
-0.0576165
0.0687165
-0.0659698
0.0666064
-0.0740112
0.0644082
-0.0817464
0.0622612
-0.089205
0.060305
-0.0964394
0.0586587
-0.103515
0.057391
-0.110498
0.0565025
-0.117444
0.0559251
-0.124386
0.0555335
-0.131328
0.055168
-0.138248
0.0546623
-0.145096
0.0538687
-0.151804
0.0526953
-0.158302
0.0511234
-0.164527
0.0492066
-0.17044
0.0470634
-0.176027
0.0448548
-0.181308
0.0427551
-0.186329
0.040919
-0.191158
0.0394503
-0.195867
0.0383794
-0.200519
0.0376537
-0.205159
0.0371432
-0.209798
0.036659
-0.214411
0.0359798
-0.218936
0.0348852
-0.223288
0.0332026
-0.227363
0.0308131
-0.231049
0.0276573
-0.234217
0.0237309
-0.236764
0.0191472
-0.238615
0.0140768
-0.23973
0.00870725
-0.240134
0.00342489
-0.239814
-0.00192524
-0.238835
-0.006927
-0.237261
-0.0115524
-0.23516
-0.0157642
-0.232596
-0.0195769
-0.22962
-0.0230576
-0.226263
-0.0262895
-0.222554
-0.0293463
-0.218498
-0.0323393
-0.214086
-0.0353524
-0.209304
-0.038442
-0.204133
-0.041648
-0.198543
-0.0450046
-0.19251
-0.0485059
-0.186016
-0.0521316
-0.179044
-0.0558587
-0.171581
-0.0596442
-0.163629
-0.0634266
-0.15519
-0.0671547
-0.146283
-0.0707563
-0.136929
-0.0741794
-0.127167
-0.0773504
-0.117039
-0.0802324
-0.106589
-0.0828114
-0.0958621
-0.0850804
-0.0848969
-0.0870732
-0.0737239
-0.0888272
-0.0623662
-0.0903856
-0.0508336
-0.0917941
-0.0391338
-0.0930594
-0.0272775
-0.0941533
-0.0152828
-0.0950104
-0.00318936
-0.0955158
0.0089493
-0.0954327
0.0210401
-0.0947073
0.0329672
-0.0931689
0.0445947
-0.0907105
0.0557777
-0.0872916
0.0663769
-0.082961
0.0762735
-0.0778553
0.0853822
-0.0721882
0.0936609
-0.0662307
0.101114
-0.0602744
0.107791
-0.0545975
0.113777
-0.0494297
0.119179
-0.0449248
0.124112
-0.0411491
0.128684
-0.0380826
0.132985
-0.0356362
0.137078
-0.03368
0.141
-0.0320774
0.144768
-0.0307197
0.148389
-0.0295492
0.151874
-0.0285686
0.155244
-0.027835
0.158541
-0.0274395
0.161829
-0.0274819
0.165188
-0.0280316
0.168706
-0.0290942
0.172459
-0.0305944
0.176502
-0.0323722
0.180851
-0.0341963
0.185478
-0.0357923
0.190309
-0.0368894
0.19523
-0.0372418
0.200097
-0.0366903
0.204762
-0.0351764
0.209082
-0.0327517
0.212942
-0.0295587
0.216263
-0.0258143
0.219011
-0.0217678
0.22119
-0.01766
0.222837
-0.013686
0.224007
-0.00996598
0.224756
-0.0065281
0.225128
-0.00329906
0.22515
-0.000162917
0.224859
0.00250853
0.224208
0.00555429
0.223163
0.00875853
0.221679
0.012156
0.219718
0.0157559
0.217262
0.0194644
0.214317
0.0231552
0.210905
0.026705
0.207071
0.0300211
0.202863
0.0330662
0.198327
0.0358644
0.193494
0.0384922
0.188374
0.0410604
0.182957
0.0436821
0.177217
0.0464777
0.171113
0.0495078
0.164585
0.0528989
0.157596
0.056485
0.0604671
0.187419
0.00221436
0.186244
0.00885663
0.184377
0.0147914
0.181941
0.0199527
0.17906
0.0243651
0.175828
0.0281815
0.172296
0.031643
0.168471
0.0350252
0.164316
0.038602
0.159759
0.0426046
0.154703
0.0471831
0.149047
0.0523769
0.142701
0.058103
0.135607
0.064181
0.127733
0.070359
0.119096
0.0763241
0.109764
0.0817373
0.0998593
0.0862847
0.0895561
0.0897241
0.0790446
0.0919299
0.0683786
0.0931
0.0577044
0.0933609
0.0471403
0.0928844
0.036755
0.0919106
0.0265709
0.0906835
0.0165792
0.0893942
0.00675303
0.0881571
-0.00292285
0.0870049
-0.0124446
0.0855046
-0.021859
0.0842964
-0.0311569
0.0829806
-0.0403003
0.0814274
-0.0492361
0.0795643
-0.0579099
0.0773903
-0.0662759
0.0749725
-0.0743113
0.0724435
-0.0820219
0.0699718
-0.0894396
0.0677228
-0.0966232
0.0658424
-0.103648
0.0644156
-0.11059
0.0634443
-0.117511
0.0628465
-0.12445
0.0624723
-0.131412
0.0621306
-0.138374
0.0616238
-0.145277
0.0607713
-0.152044
0.0594625
-0.158594
0.0576741
-0.164857
0.0554687
-0.170784
0.0529905
-0.176362
0.0504329
-0.181611
0.0480041
-0.186585
0.0458932
-0.191362
0.0442268
-0.196025
0.0430424
-0.200648
0.0422767
-0.205282
0.0417779
-0.209945
0.0413217
-0.214608
0.040643
-0.219202
0.0394794
-0.223645
0.037645
-0.227823
0.0349917
-0.231626
0.0314596
-0.234893
0.0269985
-0.237513
0.021767
-0.239409
0.0159728
-0.24054
0.0098383
-0.240928
0.00381318
-0.240571
-0.0022825
-0.239539
-0.00795879
-0.237905
-0.0131868
-0.235743
-0.0179259
-0.233127
-0.0221938
-0.230108
-0.0260762
-0.226719
-0.0296781
-0.222996
-0.0330699
-0.218938
-0.0363974
-0.214532
-0.0397582
-0.209764
-0.0432096
-0.204616
-0.0467965
-0.199046
-0.0505743
-0.193029
-0.0545231
-0.186549
-0.0586119
-0.179584
-0.0628233
-0.172121
-0.0671077
-0.16416
-0.0713869
-0.155702
-0.0756128
-0.146769
-0.0796891
-0.137379
-0.0835697
-0.127575
-0.0871549
-0.117404
-0.0904031
-0.106908
-0.0933071
-0.0961407
-0.0958478
-0.0851412
-0.0980727
-0.0739394
-0.100029
-0.0625595
-0.101765
-0.0510062
-0.103347
-0.0392812
-0.104784
-0.02739
-0.106044
-0.0153429
-0.107058
-0.00317447
-0.107684
0.00906127
-0.107668
0.0212693
-0.106915
0.0333285
-0.105228
0.0450933
-0.102475
0.0564062
-0.0986045
0.0671152
-0.09367
0.0770909
-0.087831
0.0862402
-0.0813374
0.0945178
-0.0745083
0.101931
-0.0676875
0.108535
-0.0612019
0.114427
-0.0553211
0.119725
-0.0502232
0.124558
-0.0459818
0.129043
-0.0425674
0.133275
-0.039868
0.137317
-0.0377228
0.141204
-0.0359644
0.144945
-0.0344606
0.148539
-0.0331431
0.151988
-0.0320173
0.155309
-0.0311561
0.158544
-0.0306742
0.161759
-0.0306976
0.165046
-0.0313181
0.168502
-0.03255
0.172217
-0.0343092
0.176254
-0.0364096
0.180637
-0.0385789
0.185336