/*--------------------------------*- C++ -*----------------------------------*\
| =========                 |                                                 |
| \\      /  F ield         | OpenFOAM: The Open Source CFD Toolbox           |
|  \\    /   O peration     | Version:  v1912                                 |
|   \\  /    A nd           | Website:  www.openfoam.com                      |
|    \\/     M anipulation  |                                                 |
\*---------------------------------------------------------------------------*/
FoamFile
{
    version     2.0;
    format      ascii;
    class       volSymmTensorField;
    location    "80";
    object      R;
}
// * * * * * * * * * * * * * * * * * * * * * * * * * * * * * * * * * * * * * //

dimensions      [0 2 -2 0 0 0 0];


internalField   nonuniform List<symmTensor> 
14268
(
(2.91501e-07 -4.04412e-08 0 2.60926e-07 0 2.70575e-07)
(2.9161e-07 -4.04728e-08 0 2.6103e-07 0 2.70924e-07)
(2.92338e-07 -4.04208e-08 0 2.60715e-07 0 2.71418e-07)
(2.93417e-07 -4.0328e-08 0 2.60885e-07 0 2.72205e-07)
(2.95249e-07 -4.03049e-08 0 2.61894e-07 0 2.73857e-07)
(2.98313e-07 -4.04483e-08 0 2.64325e-07 0 2.76769e-07)
(3.02765e-07 -4.08238e-08 0 2.68752e-07 0 2.81331e-07)
(3.09441e-07 -4.15068e-08 0 2.74852e-07 0 2.8779e-07)
(3.18262e-07 -4.25049e-08 0 2.82996e-07 0 2.96402e-07)
(3.29354e-07 -4.37407e-08 0 2.93424e-07 0 3.07004e-07)
(3.42885e-07 -4.53012e-08 0 3.05153e-07 0 3.19862e-07)
(3.57501e-07 -4.69176e-08 0 3.19236e-07 0 3.33916e-07)
(3.71872e-07 -4.8553e-08 0 3.32211e-07 0 3.47784e-07)
(3.82946e-07 -4.98088e-08 0 3.43896e-07 0 3.59018e-07)
(3.91173e-07 -5.08112e-08 0 3.53023e-07 0 3.67858e-07)
(3.96233e-07 -5.14974e-08 0 3.60529e-07 0 3.74203e-07)
(3.98931e-07 -5.19669e-08 0 3.6619e-07 0 3.78568e-07)
(3.99762e-07 -5.22497e-08 0 3.70531e-07 0 3.81325e-07)
(3.99346e-07 -5.24066e-08 0 3.73733e-07 0 3.82923e-07)
(3.98243e-07 -5.24758e-08 0 3.7602e-07 0 3.83714e-07)
(3.9686e-07 -5.24965e-08 0 3.77686e-07 0 3.84051e-07)
(3.95038e-07 -5.24858e-08 0 3.79358e-07 0 3.8419e-07)
(3.92096e-07 -5.24219e-08 0 3.81561e-07 0 3.84118e-07)
(3.88912e-07 -5.22933e-08 0 3.83207e-07 0 3.83634e-07)
(3.85863e-07 -5.21375e-08 0 3.84284e-07 0 3.82912e-07)
(3.82645e-07 -5.19804e-08 0 3.85503e-07 0 3.82196e-07)
(3.79265e-07 -5.18279e-08 0 3.86803e-07 0 3.81446e-07)
(3.76162e-07 -5.17006e-08 0 3.8778e-07 0 3.80645e-07)
(3.73207e-07 -5.15874e-08 0 3.8866e-07 0 3.79889e-07)
(3.70297e-07 -5.1467e-08 0 3.89523e-07 0 3.79157e-07)
(3.67467e-07 -5.13491e-08 0 3.90338e-07 0 3.78418e-07)
(3.6455e-07 -5.12309e-08 0 3.91244e-07 0 3.77689e-07)
(3.61644e-07 -5.1103e-08 0 3.92141e-07 0 3.76954e-07)
(3.5869e-07 -5.0981e-08 0 3.93082e-07 0 3.76208e-07)
(3.55681e-07 -5.08525e-08 0 3.94056e-07 0 3.75446e-07)
(3.52696e-07 -5.07193e-08 0 3.94976e-07 0 3.74662e-07)
(3.49641e-07 -5.0587e-08 0 3.95946e-07 0 3.73859e-07)
(3.46588e-07 -5.04515e-08 0 3.96889e-07 0 3.7304e-07)
(3.43501e-07 -5.03159e-08 0 3.97848e-07 0 3.72208e-07)
(3.4033e-07 -5.01787e-08 0 3.98881e-07 0 3.71368e-07)
(3.37074e-07 -5.00399e-08 0 3.99982e-07 0 3.70524e-07)
(3.33481e-07 -4.98963e-08 0 4.01403e-07 0 3.69672e-07)
(3.29856e-07 -4.97519e-08 0 4.02896e-07 0 3.68841e-07)
(3.26385e-07 -4.96108e-08 0 4.04318e-07 0 3.68042e-07)
(3.23101e-07 -4.94743e-08 0 4.05632e-07 0 3.67276e-07)
(3.19887e-07 -4.93403e-08 0 4.06945e-07 0 3.66539e-07)
(3.16736e-07 -4.92082e-08 0 4.0827e-07 0 3.65829e-07)
(3.13645e-07 -4.90765e-08 0 4.09615e-07 0 3.6515e-07)
(3.10809e-07 -4.89451e-08 0 4.10748e-07 0 3.64487e-07)
(3.08133e-07 -4.88111e-08 0 4.11737e-07 0 3.63828e-07)
(3.05545e-07 -4.86752e-08 0 4.12659e-07 0 3.63174e-07)
(3.03017e-07 -4.85396e-08 0 4.13541e-07 0 3.62525e-07)
(3.00561e-07 -4.8407e-08 0 4.14372e-07 0 3.6188e-07)
(2.98201e-07 -4.82794e-08 0 4.15127e-07 0 3.61239e-07)
(2.95935e-07 -4.81578e-08 0 4.15809e-07 0 3.60604e-07)
(2.93772e-07 -4.80431e-08 0 4.16409e-07 0 3.59974e-07)
(2.91726e-07 -4.7936e-08 0 4.16915e-07 0 3.59352e-07)
(2.89795e-07 -4.78368e-08 0 4.17328e-07 0 3.58738e-07)
(2.87966e-07 -4.77455e-08 0 4.17659e-07 0 3.58131e-07)
(2.86233e-07 -4.76609e-08 0 4.17911e-07 0 3.5753e-07)
(2.84603e-07 -4.75806e-08 0 4.18076e-07 0 3.5693e-07)
(2.83085e-07 -4.75043e-08 0 4.18141e-07 0 3.56327e-07)
(2.81688e-07 -4.7433e-08 0 4.18096e-07 0 3.55717e-07)
(2.80415e-07 -4.73653e-08 0 4.17941e-07 0 3.55097e-07)
(2.79265e-07 -4.72985e-08 0 4.17678e-07 0 3.54465e-07)
(2.78233e-07 -4.72321e-08 0 4.17317e-07 0 3.5382e-07)
(2.77318e-07 -4.71643e-08 0 4.16862e-07 0 3.53164e-07)
(2.76521e-07 -4.7095e-08 0 4.16321e-07 0 3.52499e-07)
(2.7584e-07 -4.70245e-08 0 4.15707e-07 0 3.51832e-07)
(2.75321e-07 -4.69659e-08 0 4.15123e-07 0 3.51241e-07)
(2.74972e-07 -4.69235e-08 0 4.14604e-07 0 3.50751e-07)
(2.74778e-07 -4.68956e-08 0 4.14142e-07 0 3.50352e-07)
(2.74734e-07 -4.68803e-08 0 4.13717e-07 0 3.50033e-07)
(2.74822e-07 -4.68757e-08 0 4.13324e-07 0 3.49786e-07)
(2.75032e-07 -4.68807e-08 0 4.12953e-07 0 3.49603e-07)
(2.75351e-07 -4.68941e-08 0 4.12597e-07 0 3.49476e-07)
(2.75854e-07 -4.69196e-08 0 4.12189e-07 0 3.4939e-07)
(2.76439e-07 -4.69528e-08 0 4.11816e-07 0 3.49367e-07)
(2.77144e-07 -4.6995e-08 0 4.11446e-07 0 3.49397e-07)
(2.77968e-07 -4.70468e-08 0 4.11085e-07 0 3.49482e-07)
(2.7892e-07 -4.71093e-08 0 4.10735e-07 0 3.49626e-07)
(2.80005e-07 -4.7184e-08 0 4.10401e-07 0 3.49833e-07)
(2.8123e-07 -4.72721e-08 0 4.10083e-07 0 3.5011e-07)
(2.82595e-07 -4.73752e-08 0 4.09789e-07 0 3.50461e-07)
(2.8412e-07 -4.74938e-08 0 4.09504e-07 0 3.50888e-07)
(2.85816e-07 -4.76279e-08 0 4.09217e-07 0 3.51391e-07)
(2.87695e-07 -4.77771e-08 0 4.08916e-07 0 3.5197e-07)
(2.89761e-07 -4.79417e-08 0 4.08596e-07 0 3.52627e-07)
(2.92021e-07 -4.81216e-08 0 4.08245e-07 0 3.53357e-07)
(2.94485e-07 -4.83166e-08 0 4.07845e-07 0 3.54159e-07)
(2.97178e-07 -4.85255e-08 0 4.07348e-07 0 3.55022e-07)
(3.00087e-07 -4.87486e-08 0 4.06761e-07 0 3.55946e-07)
(3.03287e-07 -4.89834e-08 0 4.05978e-07 0 3.56911e-07)
(3.06694e-07 -4.92307e-08 0 4.05093e-07 0 3.57934e-07)
(3.10311e-07 -4.94903e-08 0 4.04091e-07 0 3.5901e-07)
(3.14248e-07 -4.97609e-08 0 4.02827e-07 0 3.60119e-07)
(3.18576e-07 -5.00427e-08 0 4.01228e-07 0 3.61259e-07)
(3.232e-07 -5.03337e-08 0 3.99471e-07 0 3.62463e-07)
(3.28103e-07 -5.06329e-08 0 3.97601e-07 0 3.63742e-07)
(3.33354e-07 -5.09407e-08 0 3.95543e-07 0 3.65093e-07)
(3.38629e-07 -5.12516e-08 0 3.93639e-07 0 3.66546e-07)
(3.44057e-07 -5.15609e-08 0 3.91746e-07 0 3.68073e-07)
(3.49769e-07 -5.18722e-08 0 3.89728e-07 0 3.69667e-07)
(3.55544e-07 -5.21696e-08 0 3.87757e-07 0 3.7131e-07)
(3.61368e-07 -5.24468e-08 0 3.85781e-07 0 3.72972e-07)
(3.67485e-07 -5.27146e-08 0 3.8351e-07 0 3.74638e-07)
(3.73484e-07 -5.29631e-08 0 3.81293e-07 0 3.76281e-07)
(3.7905e-07 -5.31955e-08 0 3.79233e-07 0 3.77822e-07)
(3.83928e-07 -5.3406e-08 0 3.77524e-07 0 3.79238e-07)
(3.8794e-07 -5.35828e-08 0 3.76303e-07 0 3.805e-07)
(3.91247e-07 -5.37296e-08 0 3.754e-07 0 3.81596e-07)
(3.94168e-07 -5.3857e-08 0 3.74531e-07 0 3.82536e-07)
(3.96923e-07 -5.39734e-08 0 3.73538e-07 0 3.83349e-07)
(3.99531e-07 -5.40838e-08 0 3.72465e-07 0 3.84069e-07)
(4.01919e-07 -5.41947e-08 0 3.71442e-07 0 3.8473e-07)
(4.04042e-07 -5.43063e-08 0 3.70566e-07 0 3.85352e-07)
(4.06011e-07 -5.4421e-08 0 3.69776e-07 0 3.85947e-07)
(4.07932e-07 -5.45363e-08 0 3.68996e-07 0 3.86521e-07)
(4.09868e-07 -5.46484e-08 0 3.68177e-07 0 3.87087e-07)
(4.11734e-07 -5.47607e-08 0 3.67409e-07 0 3.87651e-07)
(4.13549e-07 -5.48747e-08 0 3.6668e-07 0 3.88218e-07)
(4.1531e-07 -5.49928e-08 0 3.66e-07 0 3.88787e-07)
(4.17084e-07 -5.51122e-08 0 3.65312e-07 0 3.89363e-07)
(4.18872e-07 -5.52342e-08 0 3.64624e-07 0 3.89956e-07)
(4.20683e-07 -5.53597e-08 0 3.63949e-07 0 3.90573e-07)
(4.22433e-07 -5.54925e-08 0 3.63394e-07 0 3.91221e-07)
(4.24369e-07 -5.56335e-08 0 3.62732e-07 0 3.91911e-07)
(4.26398e-07 -5.57871e-08 0 3.62077e-07 0 3.92653e-07)
(4.28593e-07 -5.59538e-08 0 3.61369e-07 0 3.9346e-07)
(4.31034e-07 -5.61306e-08 0 3.60541e-07 0 3.94343e-07)
(4.33595e-07 -5.63157e-08 0 3.59724e-07 0 3.95303e-07)
(4.36335e-07 -5.65045e-08 0 3.58845e-07 0 3.96334e-07)
(4.39283e-07 -5.66873e-08 0 3.57842e-07 0 3.97417e-07)
(4.4209e-07 -5.68658e-08 0 3.57016e-07 0 3.98518e-07)
(4.45241e-07 -5.70249e-08 0 3.55812e-07 0 3.99608e-07)
(4.47937e-07 -5.71827e-08 0 3.5497e-07 0 4.00654e-07)
(4.5076e-07 -5.73173e-08 0 3.53862e-07 0 4.01641e-07)
(4.53147e-07 -5.74433e-08 0 3.53014e-07 0 4.02549e-07)
(4.55494e-07 -5.75456e-08 0 3.52026e-07 0 4.03373e-07)
(4.57432e-07 -5.76351e-08 0 3.51288e-07 0 4.04112e-07)
(4.59338e-07 -5.77063e-08 0 3.50448e-07 0 4.04778e-07)
(4.61153e-07 -5.77677e-08 0 3.49599e-07 0 4.05382e-07)
(4.62796e-07 -5.78279e-08 0 3.48852e-07 0 4.05937e-07)
(4.64205e-07 -5.78915e-08 0 3.48295e-07 0 4.06461e-07)
(4.65455e-07 -5.7957e-08 0 3.47871e-07 0 4.06967e-07)
(4.66638e-07 -5.80304e-08 0 3.47538e-07 0 4.07486e-07)
(4.67879e-07 -5.81086e-08 0 3.47242e-07 0 4.08054e-07)
(4.69129e-07 -5.81934e-08 0 3.47053e-07 0 4.08679e-07)
(4.70339e-07 -5.82851e-08 0 3.47032e-07 0 4.09363e-07)
(4.71587e-07 -5.83812e-08 0 3.47102e-07 0 4.10108e-07)
(4.72906e-07 -5.8479e-08 0 3.47221e-07 0 4.10905e-07)
(4.742e-07 -5.85852e-08 0 3.47483e-07 0 4.11737e-07)
(4.75454e-07 -5.87088e-08 0 3.47898e-07 0 4.12616e-07)
(4.76861e-07 -5.88192e-08 0 3.48291e-07 0 4.13553e-07)
(4.78343e-07 -5.89522e-08 0 3.48796e-07 0 4.14533e-07)
(4.79594e-07 -5.91437e-08 0 3.49715e-07 0 4.15594e-07)
(4.8099e-07 -5.93363e-08 0 3.50657e-07 0 4.16749e-07)
(4.82884e-07 -5.95155e-08 0 3.51273e-07 0 4.17979e-07)
(4.85599e-07 -5.96685e-08 0 3.51292e-07 0 4.19337e-07)
(4.88033e-07 -5.97729e-08 0 3.51579e-07 0 4.20694e-07)
(4.88633e-07 -5.98772e-08 0 3.53223e-07 0 4.21829e-07)
(4.8923e-07 -5.99647e-08 0 3.54724e-07 0 4.22848e-07)
(4.91317e-07 -5.99966e-08 0 3.54982e-07 0 4.23894e-07)
(4.93344e-07 -5.99789e-08 0 3.55158e-07 0 4.24965e-07)
(8.36639e-08 -7.16836e-09 0 6.76562e-08 0 7.48454e-08)
(8.54922e-08 -7.46684e-09 0 6.90425e-08 0 7.66048e-08)
(9.23578e-08 -8.42055e-09 0 7.33954e-08 0 8.22616e-08)
(1.0596e-07 -1.03683e-08 0 8.2218e-08 0 9.3399e-08)
(1.22953e-07 -1.27637e-08 0 9.32301e-08 0 1.07404e-07)
(1.34152e-07 -1.4142e-08 0 1.00927e-07 0 1.16847e-07)
(1.42762e-07 -1.50453e-08 0 1.07488e-07 0 1.24459e-07)
(1.51844e-07 -1.59176e-08 0 1.14378e-07 0 1.32447e-07)
(1.62814e-07 -1.69923e-08 0 1.2286e-07 0 1.4222e-07)
(1.76621e-07 -1.83204e-08 0 1.33713e-07 0 1.54476e-07)
(1.9303e-07 -1.99005e-08 0 1.46372e-07 0 1.69098e-07)
(2.09466e-07 -2.14355e-08 0 1.59867e-07 0 1.83951e-07)
(2.23129e-07 -2.26867e-08 0 1.71172e-07 0 1.96512e-07)
(2.3305e-07 -2.35653e-08 0 1.80616e-07 0 2.06158e-07)
(2.39589e-07 -2.41365e-08 0 1.87671e-07 0 2.13019e-07)
(2.41842e-07 -2.43459e-08 0 1.92954e-07 0 2.16845e-07)
(2.41538e-07 -2.43219e-08 0 1.9579e-07 0 2.18189e-07)
(2.40122e-07 -2.41971e-08 0 1.96947e-07 0 2.18113e-07)
(2.36763e-07 -2.39069e-08 0 1.97601e-07 0 2.16831e-07)
(2.31892e-07 -2.34809e-08 0 1.97458e-07 0 2.14389e-07)
(2.26487e-07 -2.29976e-08 0 1.96574e-07 0 2.1129e-07)
(2.20709e-07 -2.24911e-08 0 1.95407e-07 0 2.07873e-07)
(2.14607e-07 -2.19737e-08 0 1.94119e-07 0 2.04258e-07)
(2.08615e-07 -2.14522e-08 0 1.92583e-07 0 2.00561e-07)
(2.02858e-07 -2.09335e-08 0 1.90918e-07 0 1.969e-07)
(1.97193e-07 -2.04243e-08 0 1.89295e-07 0 1.9331e-07)
(1.91657e-07 -1.99297e-08 0 1.87725e-07 0 1.89807e-07)
(1.86413e-07 -1.94513e-08 0 1.86104e-07 0 1.86409e-07)
(1.81414e-07 -1.89866e-08 0 1.84466e-07 0 1.83127e-07)
(1.76584e-07 -1.85319e-08 0 1.82867e-07 0 1.7995e-07)
(1.71961e-07 -1.80902e-08 0 1.81287e-07 0 1.76875e-07)
(1.67509e-07 -1.76618e-08 0 1.79753e-07 0 1.73905e-07)
(1.63232e-07 -1.7249e-08 0 1.78272e-07 0 1.71044e-07)
(1.59145e-07 -1.6855e-08 0 1.76843e-07 0 1.68299e-07)
(1.55239e-07 -1.64791e-08 0 1.75484e-07 0 1.65676e-07)
(1.51547e-07 -1.61211e-08 0 1.74166e-07 0 1.63178e-07)
(1.48031e-07 -1.57809e-08 0 1.72918e-07 0 1.60799e-07)
(1.44708e-07 -1.5455e-08 0 1.71706e-07 0 1.58532e-07)
(1.41551e-07 -1.51416e-08 0 1.7053e-07 0 1.56364e-07)
(1.3853e-07 -1.48368e-08 0 1.69384e-07 0 1.54278e-07)
(1.35637e-07 -1.45381e-08 0 1.68238e-07 0 1.52254e-07)
(1.32827e-07 -1.42432e-08 0 1.67105e-07 0 1.50275e-07)
(1.30109e-07 -1.3952e-08 0 1.65952e-07 0 1.48332e-07)
(1.27469e-07 -1.36653e-08 0 1.64785e-07 0 1.46418e-07)
(1.24914e-07 -1.33846e-08 0 1.63603e-07 0 1.44537e-07)
(1.22435e-07 -1.31119e-08 0 1.6243e-07 0 1.42698e-07)
(1.20045e-07 -1.28497e-08 0 1.6128e-07 0 1.40913e-07)
(1.17756e-07 -1.26003e-08 0 1.60167e-07 0 1.39195e-07)
(1.15578e-07 -1.23649e-08 0 1.59107e-07 0 1.37559e-07)
(1.13514e-07 -1.21433e-08 0 1.58115e-07 0 1.36012e-07)
(1.11569e-07 -1.1935e-08 0 1.57194e-07 0 1.3456e-07)
(1.09732e-07 -1.17393e-08 0 1.56344e-07 0 1.33197e-07)
(1.07989e-07 -1.1555e-08 0 1.55561e-07 0 1.31914e-07)
(1.06329e-07 -1.13789e-08 0 1.54825e-07 0 1.30696e-07)
(1.04741e-07 -1.12071e-08 0 1.54118e-07 0 1.29526e-07)
(1.03205e-07 -1.10381e-08 0 1.53425e-07 0 1.2839e-07)
(1.01707e-07 -1.08714e-08 0 1.52739e-07 0 1.27275e-07)
(1.00246e-07 -1.07072e-08 0 1.52051e-07 0 1.26177e-07)
(9.88251e-08 -1.05474e-08 0 1.51359e-07 0 1.25096e-07)
(9.7457e-08 -1.03933e-08 0 1.50671e-07 0 1.24043e-07)
(9.61526e-08 -1.02479e-08 0 1.50007e-07 0 1.23034e-07)
(9.49363e-08 -1.01168e-08 0 1.49384e-07 0 1.2209e-07)
(9.38355e-08 -1.00083e-08 0 1.48822e-07 0 1.21237e-07)
(9.28698e-08 -9.92658e-09 0 1.4835e-07 0 1.20499e-07)
(9.20668e-08 -9.87062e-09 0 1.47981e-07 0 1.19897e-07)
(9.14412e-08 -9.84344e-09 0 1.47735e-07 0 1.19449e-07)
(9.10068e-08 -9.84236e-09 0 1.47618e-07 0 1.19165e-07)
(9.07456e-08 -9.86848e-09 0 1.47632e-07 0 1.19037e-07)
(9.06665e-08 -9.92646e-09 0 1.47802e-07 0 1.19082e-07)
(9.07322e-08 -9.99325e-09 0 1.48025e-07 0 1.19228e-07)
(9.09002e-08 -1.00685e-08 0 1.48285e-07 0 1.19444e-07)
(9.1163e-08 -1.01514e-08 0 1.48579e-07 0 1.19726e-07)
(9.15106e-08 -1.02414e-08 0 1.48905e-07 0 1.20066e-07)
(9.1937e-08 -1.03381e-08 0 1.49258e-07 0 1.20461e-07)
(9.24366e-08 -1.04413e-08 0 1.49637e-07 0 1.20905e-07)
(9.30062e-08 -1.05514e-08 0 1.5004e-07 0 1.21397e-07)
(9.36449e-08 -1.06694e-08 0 1.50466e-07 0 1.21936e-07)
(9.43551e-08 -1.07967e-08 0 1.50918e-07 0 1.22523e-07)
(9.51409e-08 -1.09319e-08 0 1.51397e-07 0 1.23162e-07)
(9.60079e-08 -1.10758e-08 0 1.51903e-07 0 1.23856e-07)
(9.69628e-08 -1.12302e-08 0 1.52438e-07 0 1.24609e-07)
(9.80141e-08 -1.13965e-08 0 1.53006e-07 0 1.25427e-07)
(9.91712e-08 -1.1576e-08 0 1.53609e-07 0 1.26315e-07)
(1.00444e-07 -1.17697e-08 0 1.54249e-07 0 1.2728e-07)
(1.01841e-07 -1.19782e-08 0 1.5493e-07 0 1.28329e-07)
(1.03372e-07 -1.22017e-08 0 1.55657e-07 0 1.29467e-07)
(1.05043e-07 -1.24401e-08 0 1.5643e-07 0 1.307e-07)
(1.06863e-07 -1.26934e-08 0 1.57253e-07 0 1.32031e-07)
(1.08838e-07 -1.29618e-08 0 1.58124e-07 0 1.33464e-07)
(1.10974e-07 -1.32452e-08 0 1.59043e-07 0 1.35002e-07)
(1.13273e-07 -1.35435e-08 0 1.60012e-07 0 1.36647e-07)
(1.1574e-07 -1.38563e-08 0 1.61027e-07 0 1.38398e-07)
(1.18375e-07 -1.41837e-08 0 1.62089e-07 0 1.40257e-07)
(1.21187e-07 -1.4526e-08 0 1.63192e-07 0 1.42224e-07)
(1.24177e-07 -1.48842e-08 0 1.64338e-07 0 1.44302e-07)
(1.27352e-07 -1.52589e-08 0 1.65526e-07 0 1.46494e-07)
(1.30724e-07 -1.56505e-08 0 1.66749e-07 0 1.48801e-07)
(1.34306e-07 -1.60596e-08 0 1.68007e-07 0 1.51228e-07)
(1.38108e-07 -1.64873e-08 0 1.69307e-07 0 1.53785e-07)
(1.42135e-07 -1.69334e-08 0 1.70662e-07 0 1.56481e-07)
(1.46396e-07 -1.73962e-08 0 1.72058e-07 0 1.59317e-07)
(1.5088e-07 -1.78696e-08 0 1.73498e-07 0 1.62286e-07)
(1.55577e-07 -1.83511e-08 0 1.74966e-07 0 1.6537e-07)
(1.60473e-07 -1.88369e-08 0 1.76435e-07 0 1.68552e-07)
(1.65524e-07 -1.93171e-08 0 1.77875e-07 0 1.71796e-07)
(1.7064e-07 -1.97854e-08 0 1.79315e-07 0 1.7507e-07)
(1.75748e-07 -2.02358e-08 0 1.80735e-07 0 1.78329e-07)
(1.80756e-07 -2.06622e-08 0 1.8213e-07 0 1.81526e-07)
(1.85612e-07 -2.10601e-08 0 1.83454e-07 0 1.84611e-07)
(1.90264e-07 -2.14288e-08 0 1.8468e-07 0 1.87544e-07)
(1.94651e-07 -2.177e-08 0 1.85821e-07 0 1.90301e-07)
(1.98752e-07 -2.20875e-08 0 1.86877e-07 0 1.92872e-07)
(2.02584e-07 -2.23865e-08 0 1.87842e-07 0 1.95262e-07)
(2.06172e-07 -2.26726e-08 0 1.88733e-07 0 1.97492e-07)
(2.09548e-07 -2.29521e-08 0 1.89578e-07 0 1.99592e-07)
(2.12759e-07 -2.32303e-08 0 1.90395e-07 0 2.01596e-07)
(2.15855e-07 -2.35112e-08 0 1.91192e-07 0 2.03533e-07)
(2.18878e-07 -2.37948e-08 0 1.91974e-07 0 2.05426e-07)
(2.21851e-07 -2.40792e-08 0 1.92745e-07 0 2.0729e-07)
(2.24791e-07 -2.43631e-08 0 1.93506e-07 0 2.09133e-07)
(2.27707e-07 -2.46461e-08 0 1.94258e-07 0 2.1096e-07)
(2.30611e-07 -2.49297e-08 0 1.94997e-07 0 2.12773e-07)
(2.33518e-07 -2.52161e-08 0 1.95727e-07 0 2.14584e-07)
(2.36438e-07 -2.55098e-08 0 1.96465e-07 0 2.16407e-07)
(2.39408e-07 -2.58155e-08 0 1.97226e-07 0 2.18268e-07)
(2.42492e-07 -2.61385e-08 0 1.98014e-07 0 2.20195e-07)
(2.45762e-07 -2.64859e-08 0 1.98833e-07 0 2.22227e-07)
(2.4929e-07 -2.68638e-08 0 1.99689e-07 0 2.24404e-07)
(2.53146e-07 -2.72745e-08 0 2.0059e-07 0 2.26767e-07)
(2.57373e-07 -2.77163e-08 0 2.01547e-07 0 2.29345e-07)
(2.61988e-07 -2.81834e-08 0 2.02571e-07 0 2.32155e-07)
(2.6697e-07 -2.8665e-08 0 2.03662e-07 0 2.35183e-07)
(2.72267e-07 -2.91471e-08 0 2.04798e-07 0 2.3839e-07)
(2.77778e-07 -2.96152e-08 0 2.05958e-07 0 2.41712e-07)
(2.83365e-07 -3.00545e-08 0 2.07088e-07 0 2.45055e-07)
(2.88804e-07 -3.04546e-08 0 2.08189e-07 0 2.48311e-07)
(2.93997e-07 -3.08077e-08 0 2.09198e-07 0 2.514e-07)
(2.98766e-07 -3.11146e-08 0 2.10141e-07 0 2.5425e-07)
(3.03051e-07 -3.13748e-08 0 2.10971e-07 0 2.56806e-07)
(3.06802e-07 -3.15931e-08 0 2.11703e-07 0 2.5905e-07)
(3.10083e-07 -3.17731e-08 0 2.123e-07 0 2.60988e-07)
(3.12926e-07 -3.19244e-08 0 2.12783e-07 0 2.62644e-07)
(3.15351e-07 -3.20568e-08 0 2.13184e-07 0 2.6405e-07)
(3.17375e-07 -3.21777e-08 0 2.13537e-07 0 2.65236e-07)
(3.19037e-07 -3.22882e-08 0 2.13851e-07 0 2.6623e-07)
(3.20416e-07 -3.23853e-08 0 2.1413e-07 0 2.67073e-07)
(3.21557e-07 -3.24607e-08 0 2.14369e-07 0 2.67782e-07)
(3.22428e-07 -3.25074e-08 0 2.1456e-07 0 2.68338e-07)
(3.23007e-07 -3.25233e-08 0 2.14697e-07 0 2.68729e-07)
(3.23301e-07 -3.25059e-08 0 2.1476e-07 0 2.68942e-07)
(3.23315e-07 -3.24603e-08 0 2.1475e-07 0 2.68973e-07)
(3.23016e-07 -3.23813e-08 0 2.14685e-07 0 2.68816e-07)
(3.22372e-07 -3.22778e-08 0 2.14581e-07 0 2.6846e-07)
(3.21518e-07 -3.21468e-08 0 2.14398e-07 0 2.67945e-07)
(3.20528e-07 -3.20197e-08 0 2.14157e-07 0 2.67326e-07)
(3.19318e-07 -3.19169e-08 0 2.14058e-07 0 2.66661e-07)
(3.18111e-07 -3.18018e-08 0 2.14001e-07 0 2.66001e-07)
(3.17099e-07 -3.16578e-08 0 2.13774e-07 0 2.65321e-07)
(3.16243e-07 -3.14838e-08 0 2.13276e-07 0 2.64592e-07)
(3.14985e-07 -3.12737e-08 0 2.12785e-07 0 2.63685e-07)
(3.12738e-07 -3.10493e-08 0 2.12514e-07 0 2.62474e-07)
(3.0998e-07 -3.07409e-08 0 2.12099e-07 0 2.60893e-07)
(3.07245e-07 -3.03319e-08 0 2.11076e-07 0 2.5894e-07)
(3.04051e-07 -2.98832e-08 0 2.09794e-07 0 2.56719e-07)
(2.04407e-08 -1.41625e-09 0 1.5961e-08 0 1.8051e-08)
(2.09208e-08 -1.47346e-09 0 1.62986e-08 0 1.84996e-08)
(2.27202e-08 -1.67344e-09 0 1.73926e-08 0 1.9964e-08)
(2.63982e-08 -2.10161e-09 0 1.96879e-08 0 2.29446e-08)
(3.13672e-08 -2.65507e-09 0 2.28766e-08 0 2.70278e-08)
(3.56347e-08 -3.03961e-09 0 2.58474e-08 0 3.06416e-08)
(3.94971e-08 -3.33391e-09 0 2.8745e-08 0 3.40215e-08)
(4.38798e-08 -3.64762e-09 0 3.20557e-08 0 3.78576e-08)
(4.96179e-08 -4.07122e-09 0 3.64595e-08 0 4.29292e-08)
(5.71704e-08 -4.62748e-09 0 4.2306e-08 0 4.95923e-08)
(6.627e-08 -5.29108e-09 0 4.93459e-08 0 5.76655e-08)
(7.61426e-08 -5.95791e-09 0 5.72588e-08 0 6.65097e-08)
(8.52305e-08 -6.52806e-09 0 6.47081e-08 0 7.47808e-08)
(9.24057e-08 -6.93778e-09 0 7.10465e-08 0 8.15143e-08)
(9.74543e-08 -7.19461e-09 0 7.59829e-08 0 8.65138e-08)
(1.00261e-07 -7.30185e-09 0 7.94918e-08 0 8.96773e-08)
(1.0078e-07 -7.25368e-09 0 8.1786e-08 0 9.11058e-08)
(1.003e-07 -7.16413e-09 0 8.2599e-08 0 9.12871e-08)
(9.90342e-08 -7.0285e-09 0 8.2866e-08 0 9.08037e-08)
(9.67462e-08 -6.8219e-09 0 8.27311e-08 0 8.96114e-08)
(9.39627e-08 -6.58938e-09 0 8.21887e-08 0 8.79654e-08)
(9.09938e-08 -6.35569e-09 0 8.13959e-08 0 8.61022e-08)
(8.79588e-08 -6.12693e-09 0 8.04708e-08 0 8.41441e-08)
(8.49913e-08 -5.90564e-09 0 7.94584e-08 0 8.21748e-08)
(8.22021e-08 -5.69605e-09 0 7.84185e-08 0 8.02767e-08)
(7.95416e-08 -5.49546e-09 0 7.74028e-08 0 7.84545e-08)
(7.69933e-08 -5.30213e-09 0 7.64321e-08 0 7.67091e-08)
(7.45838e-08 -5.11759e-09 0 7.54857e-08 0 7.50423e-08)
(7.23046e-08 -4.94341e-09 0 7.45694e-08 0 7.34569e-08)
(7.01469e-08 -4.77774e-09 0 7.36894e-08 0 7.19506e-08)
(6.8117e-08 -4.62025e-09 0 7.28406e-08 0 7.0521e-08)
(6.61982e-08 -4.47306e-09 0 7.20336e-08 0 6.91671e-08)
(6.43919e-08 -4.33655e-09 0 7.12691e-08 0 6.78893e-08)
(6.27007e-08 -4.21087e-09 0 7.0546e-08 0 6.66889e-08)
(6.11192e-08 -4.09584e-09 0 6.98689e-08 0 6.55657e-08)
(5.96488e-08 -3.99006e-09 0 6.92318e-08 0 6.45174e-08)
(5.82759e-08 -3.89277e-09 0 6.86384e-08 0 6.35392e-08)
(5.69968e-08 -3.80151e-09 0 6.80791e-08 0 6.26247e-08)
(5.57977e-08 -3.71498e-09 0 6.7551e-08 0 6.17657e-08)
(5.46653e-08 -3.63165e-09 0 6.70496e-08 0 6.0953e-08)
(5.35889e-08 -3.55048e-09 0 6.65673e-08 0 6.01777e-08)
(5.25548e-08 -3.47108e-09 0 6.61021e-08 0 5.94318e-08)
(5.15564e-08 -3.39381e-09 0 6.56494e-08 0 5.87098e-08)
(5.05911e-08 -3.31919e-09 0 6.52078e-08 0 5.80097e-08)
(4.96602e-08 -3.24832e-09 0 6.47786e-08 0 5.73328e-08)
(4.87673e-08 -3.18197e-09 0 6.4365e-08 0 5.66823e-08)
(4.79152e-08 -3.12126e-09 0 6.39713e-08 0 5.60621e-08)
(4.71056e-08 -3.06723e-09 0 6.3603e-08 0 5.54757e-08)
(4.63411e-08 -3.02e-09 0 6.32641e-08 0 5.49267e-08)
(4.56283e-08 -2.97798e-09 0 6.29526e-08 0 5.44171e-08)
(4.49704e-08 -2.93956e-09 0 6.26652e-08 0 5.39468e-08)
(4.43579e-08 -2.90477e-09 0 6.24051e-08 0 5.3513e-08)
(4.37798e-08 -2.87331e-09 0 6.21736e-08 0 5.31107e-08)
(4.32335e-08 -2.84317e-09 0 6.19619e-08 0 5.27342e-08)
(4.27174e-08 -2.81243e-09 0 6.17602e-08 0 5.23778e-08)
(4.22235e-08 -2.78076e-09 0 6.15653e-08 0 5.20358e-08)
(4.17408e-08 -2.74972e-09 0 6.13793e-08 0 5.17038e-08)
(4.12708e-08 -2.71901e-09 0 6.11968e-08 0 5.13798e-08)
(4.08174e-08 -2.68915e-09 0 6.10164e-08 0 5.10647e-08)
(4.03837e-08 -2.66152e-09 0 6.08409e-08 0 5.07617e-08)
(3.99693e-08 -2.6394e-09 0 6.06809e-08 0 5.04761e-08)
(3.95838e-08 -2.62374e-09 0 6.0539e-08 0 5.02142e-08)
(3.92378e-08 -2.61435e-09 0 6.04178e-08 0 4.99824e-08)
(3.8935e-08 -2.61288e-09 0 6.0326e-08 0 4.97868e-08)
(3.86862e-08 -2.61847e-09 0 6.02638e-08 0 4.96329e-08)
(3.84934e-08 -2.63132e-09 0 6.02363e-08 0 4.95243e-08)
(3.83625e-08 -2.64979e-09 0 6.02422e-08 0 4.94631e-08)
(3.82797e-08 -2.6776e-09 0 6.02903e-08 0 4.94471e-08)
(3.82639e-08 -2.70987e-09 0 6.03753e-08 0 4.94828e-08)
(3.82933e-08 -2.74303e-09 0 6.04695e-08 0 4.95458e-08)
(3.83588e-08 -2.77693e-09 0 6.05681e-08 0 4.9629e-08)
(3.84572e-08 -2.81127e-09 0 6.06718e-08 0 4.97313e-08)
(3.85858e-08 -2.84602e-09 0 6.07807e-08 0 4.98512e-08)
(3.87424e-08 -2.88132e-09 0 6.08947e-08 0 4.99877e-08)
(3.89252e-08 -2.91753e-09 0 6.1014e-08 0 5.01398e-08)
(3.91333e-08 -2.95512e-09 0 6.11387e-08 0 5.03074e-08)
(3.93669e-08 -2.99456e-09 0 6.12691e-08 0 5.04904e-08)
(3.9627e-08 -3.03634e-09 0 6.14057e-08 0 5.06896e-08)
(3.99151e-08 -3.08108e-09 0 6.15491e-08 0 5.09064e-08)
(4.02337e-08 -3.12923e-09 0 6.17002e-08 0 5.11422e-08)
(4.05858e-08 -3.18096e-09 0 6.18597e-08 0 5.13988e-08)
(4.09748e-08 -3.23648e-09 0 6.20288e-08 0 5.16786e-08)
(4.14045e-08 -3.29603e-09 0 6.22087e-08 0 5.1984e-08)
(4.18787e-08 -3.35979e-09 0 6.24007e-08 0 5.23177e-08)
(4.24017e-08 -3.42786e-09 0 6.26068e-08 0 5.26827e-08)
(4.29774e-08 -3.50038e-09 0 6.28288e-08 0 5.30819e-08)
(4.36097e-08 -3.57724e-09 0 6.30686e-08 0 5.35181e-08)
(4.43023e-08 -3.65847e-09 0 6.33279e-08 0 5.39939e-08)
(4.50587e-08 -3.74413e-09 0 6.36086e-08 0 5.4512e-08)
(4.58821e-08 -3.83416e-09 0 6.39123e-08 0 5.50747e-08)
(4.67752e-08 -3.92862e-09 0 6.42405e-08 0 5.56841e-08)
(4.77399e-08 -4.02762e-09 0 6.45945e-08 0 5.63419e-08)
(4.87794e-08 -4.13128e-09 0 6.49749e-08 0 5.70498e-08)
(4.98958e-08 -4.24005e-09 0 6.53837e-08 0 5.78098e-08)
(5.10916e-08 -4.35457e-09 0 6.58234e-08 0 5.86247e-08)
(5.23714e-08 -4.47539e-09 0 6.62944e-08 0 5.94969e-08)
(5.37417e-08 -4.603e-09 0 6.67972e-08 0 6.04293e-08)
(5.52092e-08 -4.73795e-09 0 6.73329e-08 0 6.14259e-08)
(5.6781e-08 -4.88073e-09 0 6.79047e-08 0 6.24914e-08)
(5.8463e-08 -5.03154e-09 0 6.85172e-08 0 6.36311e-08)
(6.02577e-08 -5.18951e-09 0 6.91724e-08 0 6.48482e-08)
(6.21667e-08 -5.35229e-09 0 6.98681e-08 0 6.61418e-08)
(6.41884e-08 -5.51852e-09 0 7.0598e-08 0 6.75068e-08)
(6.63142e-08 -5.68638e-09 0 7.1358e-08 0 6.89376e-08)
(6.85243e-08 -5.85212e-09 0 7.21402e-08 0 7.04211e-08)
(7.07927e-08 -6.01282e-09 0 7.29385e-08 0 7.19408e-08)
(7.30842e-08 -6.16604e-09 0 7.37462e-08 0 7.34761e-08)
(7.53609e-08 -6.30972e-09 0 7.45515e-08 0 7.50027e-08)
(7.7588e-08 -6.44249e-09 0 7.53418e-08 0 7.64971e-08)
(7.97344e-08 -6.56447e-09 0 7.61067e-08 0 7.79384e-08)
(8.17768e-08 -6.67743e-09 0 7.6839e-08 0 7.9311e-08)
(8.37044e-08 -6.78466e-09 0 7.75327e-08 0 8.06073e-08)
(8.55181e-08 -6.88941e-09 0 7.81867e-08 0 8.1827e-08)
(8.72275e-08 -6.99409e-09 0 7.88063e-08 0 8.29777e-08)
(8.88488e-08 -7.10115e-09 0 7.94006e-08 0 8.4072e-08)
(9.04044e-08 -7.21247e-09 0 7.99765e-08 0 8.51245e-08)
(9.19178e-08 -7.32885e-09 0 8.05382e-08 0 8.61493e-08)
(9.34067e-08 -7.44977e-09 0 8.10909e-08 0 8.71574e-08)
(9.4882e-08 -7.57393e-09 0 8.16383e-08 0 8.81562e-08)
(9.63501e-08 -7.70001e-09 0 8.21815e-08 0 8.91499e-08)
(9.78142e-08 -7.82707e-09 0 8.27209e-08 0 9.014e-08)
(9.92783e-08 -7.9556e-09 0 8.32559e-08 0 9.11282e-08)
(1.00747e-07 -8.08718e-09 0 8.37895e-08 0 9.21184e-08)
(1.02227e-07 -8.22406e-09 0 8.43298e-08 0 9.31183e-08)
(1.0374e-07 -8.36899e-09 0 8.48836e-08 0 9.41405e-08)
(1.05316e-07 -8.52525e-09 0 8.54553e-08 0 9.52013e-08)
(1.06991e-07 -8.69716e-09 0 8.60519e-08 0 9.63218e-08)
(1.08802e-07 -8.88792e-09 0 8.66796e-08 0 9.75246e-08)
(1.10785e-07 -9.09797e-09 0 8.73463e-08 0 9.8832e-08)
(1.12968e-07 -9.32537e-09 0 8.80612e-08 0 1.00262e-07)
(1.15365e-07 -9.56542e-09 0 8.88291e-08 0 1.01826e-07)
(1.17974e-07 -9.81118e-09 0 8.96497e-08 0 1.03521e-07)
(1.20769e-07 -1.00556e-08 0 9.05122e-08 0 1.05327e-07)
(1.23702e-07 -1.02901e-08 0 9.13991e-08 0 1.07213e-07)
(1.26691e-07 -1.05067e-08 0 9.22861e-08 0 1.09126e-07)
(1.29628e-07 -1.06992e-08 0 9.31482e-08 0 1.11e-07)
(1.32439e-07 -1.08649e-08 0 9.39611e-08 0 1.12789e-07)
(1.35045e-07 -1.10046e-08 0 9.47169e-08 0 1.14451e-07)
(1.37398e-07 -1.11206e-08 0 9.53997e-08 0 1.15953e-07)
(1.39477e-07 -1.12161e-08 0 9.60063e-08 0 1.17283e-07)
(1.41293e-07 -1.12963e-08 0 9.65302e-08 0 1.18441e-07)
(1.42863e-07 -1.13661e-08 0 9.6979e-08 0 1.19439e-07)
(1.44206e-07 -1.14303e-08 0 9.73641e-08 0 1.20294e-07)
(1.45342e-07 -1.14913e-08 0 9.76984e-08 0 1.21025e-07)
(1.46298e-07 -1.15487e-08 0 9.79908e-08 0 1.2165e-07)
(1.47098e-07 -1.15992e-08 0 9.82422e-08 0 1.22181e-07)
(1.47733e-07 -1.16344e-08 0 9.84415e-08 0 1.22607e-07)
(1.48178e-07 -1.16484e-08 0 9.85774e-08 0 1.22909e-07)
(1.48412e-07 -1.16396e-08 0 9.8641e-08 0 1.23074e-07)
(1.48433e-07 -1.16114e-08 0 9.86311e-08 0 1.23096e-07)
(1.48226e-07 -1.15553e-08 0 9.85386e-08 0 1.22966e-07)
(1.47753e-07 -1.14729e-08 0 9.83647e-08 0 1.22661e-07)
(1.4705e-07 -1.13738e-08 0 9.81341e-08 0 1.22205e-07)
(1.46186e-07 -1.12652e-08 0 9.78419e-08 0 1.21636e-07)
(1.45229e-07 -1.11599e-08 0 9.7502e-08 0 1.21e-07)
(1.44186e-07 -1.10575e-08 0 9.71915e-08 0 1.20326e-07)
(1.43114e-07 -1.09467e-08 0 9.68913e-08 0 1.1963e-07)
(1.42051e-07 -1.08248e-08 0 9.6536e-08 0 1.18903e-07)
(1.40938e-07 -1.06904e-08 0 9.60757e-08 0 1.1811e-07)
(1.39604e-07 -1.05342e-08 0 9.55503e-08 0 1.17183e-07)
(1.3787e-07 -1.03628e-08 0 9.50034e-08 0 1.16084e-07)
(1.35891e-07 -1.01474e-08 0 9.43577e-08 0 1.14794e-07)
(1.33759e-07 -9.88744e-09 0 9.35131e-08 0 1.13289e-07)
(1.31319e-07 -9.60341e-09 0 9.25516e-08 0 1.1161e-07)
(5.73409e-09 -3.1711e-10 0 4.44179e-09 0 5.05314e-09)
(5.88208e-09 -3.30512e-10 0 4.54284e-09 0 5.18905e-09)
(6.41584e-09 -3.77538e-10 0 4.86821e-09 0 5.62437e-09)
(7.51159e-09 -4.76832e-10 0 5.54804e-09 0 6.51302e-09)
(9.04041e-09 -6.01378e-10 0 6.54757e-09 0 7.77966e-09)
(1.06901e-08 -7.01583e-10 0 7.72293e-09 0 9.19023e-09)
(1.24388e-08 -7.92895e-10 0 9.03791e-09 0 1.07215e-08)
(1.46311e-08 -9.03959e-10 0 1.07002e-08 0 1.26439e-08)
(1.76899e-08 -1.06553e-09 0 1.3049e-08 0 1.53466e-08)
(2.188e-08 -1.28692e-09 0 1.62817e-08 0 1.90453e-08)
(2.7128e-08 -1.55926e-09 0 2.03641e-08 0 2.37094e-08)
(3.3147e-08 -1.84916e-09 0 2.51231e-08 0 2.90821e-08)
(3.96161e-08 -2.13544e-09 0 3.03584e-08 0 3.49333e-08)
(4.54633e-08 -2.37312e-09 0 3.52835e-08 0 4.03103e-08)
(4.99091e-08 -2.53623e-09 0 3.9276e-08 0 4.45306e-08)
(5.28415e-08 -2.62324e-09 0 4.22675e-08 0 4.74935e-08)
(5.4353e-08 -2.64349e-09 0 4.43229e-08 0 4.92829e-08)
(5.48456e-08 -2.62446e-09 0 4.55525e-08 0 5.01497e-08)
(5.43638e-08 -2.5678e-09 0 4.62813e-08 0 5.02811e-08)
(5.37522e-08 -2.5137e-09 0 4.64692e-08 0 5.00739e-08)
(5.26853e-08 -2.44143e-09 0 4.65037e-08 0 4.95634e-08)
(5.13961e-08 -2.36734e-09 0 4.63872e-08 0 4.88667e-08)
(5.00467e-08 -2.2968e-09 0 4.61739e-08 0 4.8092e-08)
(4.87129e-08 -2.23164e-09 0 4.59041e-08 0 4.72964e-08)
(4.74362e-08 -2.1717e-09 0 4.56172e-08 0 4.65199e-08)
(4.62197e-08 -2.11517e-09 0 4.53396e-08 0 4.57775e-08)
(4.5076e-08 -2.06263e-09 0 4.50748e-08 0 4.50766e-08)
(4.40081e-08 -2.01449e-09 0 4.48211e-08 0 4.44183e-08)
(4.2997e-08 -1.968e-09 0 4.45887e-08 0 4.37999e-08)
(4.20359e-08 -1.92276e-09 0 4.43828e-08 0 4.32197e-08)
(4.11281e-08 -1.88277e-09 0 4.42024e-08 0 4.26778e-08)
(4.02768e-08 -1.84904e-09 0 4.40432e-08 0 4.21743e-08)
(3.94877e-08 -1.81889e-09 0 4.38984e-08 0 4.17085e-08)
(3.87521e-08 -1.79374e-09 0 4.37731e-08 0 4.12789e-08)
(3.80631e-08 -1.77454e-09 0 4.36717e-08 0 4.08843e-08)
(3.74281e-08 -1.75789e-09 0 4.35838e-08 0 4.05233e-08)
(3.68413e-08 -1.74338e-09 0 4.35093e-08 0 4.01929e-08)
(3.62937e-08 -1.73017e-09 0 4.34497e-08 0 3.98895e-08)
(3.57809e-08 -1.71669e-09 0 4.34024e-08 0 3.96096e-08)
(3.52996e-08 -1.70268e-09 0 4.33638e-08 0 3.93496e-08)
(3.48409e-08 -1.68822e-09 0 4.33357e-08 0 3.91061e-08)