/*--------------------------------*- C++ -*----------------------------------*\
| =========                 |                                                 |
| \\      /  F ield         | OpenFOAM: The Open Source CFD Toolbox           |
|  \\    /   O peration     | Version:  v1912                                 |
|   \\  /    A nd           | Website:  www.openfoam.com                      |
|    \\/     M anipulation  |                                                 |
\*---------------------------------------------------------------------------*/
FoamFile
{
    version     2.0;
    format      ascii;
    class       volVectorField;
    location    "80";
    object      U;
}
// * * * * * * * * * * * * * * * * * * * * * * * * * * * * * * * * * * * * * //

dimensions      [0 1 -1 0 0 0 0];


internalField   nonuniform List<vector> 
14268
(
(2.43994 0.000409181 0)
(2.44763 0.00113139 0)
(2.43192 0.00183223 0)
(2.40801 0.00248797 0)
(2.37675 0.00309191 0)
(2.33889 0.00365086 0)
(2.29501 0.00418172 0)
(2.24539 0.00470765 0)
(2.19 0.00525349 0)
(2.12853 0.00584102 0)
(2.06044 0.0064847 0)
(1.98506 0.00718854 0)
(1.90176 0.00794464 0)
(1.81007 0.00873356 0)
(1.70983 0.00952669 0)
(1.60121 0.0102899 0)
(1.48481 0.0109885 0)
(1.36161 0.0115919 0)
(1.23286 0.012078 0)
(1.1 0.0124361 0)
(0.964499 0.0126693 0)
(0.827743 0.0127946 0)
(0.690898 0.0128432 0)
(0.554882 0.0128509 0)
(0.420328 0.0128003 0)
(0.287603 0.012708 0)
(0.156968 0.0125984 0)
(0.0290873 0.01248 0)
(-0.0979129 0.0122572 0)
(-0.223969 0.012114 0)
(-0.347106 0.0119518 0)
(-0.46786 0.0117622 0)
(-0.58595 0.01154 0)
(-0.701059 0.0112868 0)
(-0.812909 0.0110104 0)
(-0.921341 0.0107241 0)
(-1.02636 0.0104447 0)
(-1.12816 0.0101886 0)
(-1.2271 0.0099695 0)
(-1.32365 0.00979483 0)
(-1.41832 0.0096644 0)
(-1.51159 0.00956997 0)
(-1.60378 0.00949645 0)
(-1.69503 0.00942448 0)
(-1.78526 0.0093339 0)
(-1.87419 0.0092075 0)
(-1.96138 0.0090342 0)
(-2.04633 0.00881122 0)
(-2.12856 0.00854464 0)
(-2.20769 0.00824831 0)
(-2.28354 0.00794139 0)
(-2.35616 0.00764469 0)
(-2.42578 0.00737665 0)
(-2.49284 0.0071496 0)
(-2.55783 0.00696689 0)
(-2.62122 0.0068215 0)
(-2.68336 0.00669643 0)
(-2.74436 0.00656654 0)
(-2.80406 0.00640205 0)
(-2.86198 0.00617258 0)
(-2.91735 0.00585124 0)
(-2.96917 0.00541855 0)
(-3.01632 0.00486514 0)
(-3.05768 0.00419314 0)
(-3.09221 0.00341545 0)
(-3.11905 0.00255354 0)
(-3.13766 0.00163238 0)
(-3.14777 0.00069172 0)
(-3.14943 -0.00024998 0)
(-3.14277 -0.00115803 0)
(-3.12828 -0.00202305 0)
(-3.10653 -0.00283551 0)
(-3.0781 -0.00359418 0)
(-3.04353 -0.00430451 0)
(-3.00325 -0.00497667 0)
(-2.95761 -0.00562366 0)
(-2.90677 -0.00625936 0)
(-2.8508 -0.00689691 0)
(-2.78965 -0.00754726 0)
(-2.72317 -0.00821838 0)
(-2.6512 -0.0089149 0)
(-2.57351 -0.00963818 0)
(-2.48993 -0.0103865 0)
(-2.40028 -0.0111553 0)
(-2.30447 -0.0119374 0)
(-2.20246 -0.0127234 0)
(-2.09432 -0.0135029 0)
(-1.9802 -0.0142644 0)
(-1.86034 -0.0149967 0)
(-1.73508 -0.0156897 0)
(-1.60483 -0.0163356 0)
(-1.47004 -0.0169297 0)
(-1.33119 -0.0174711 0)
(-1.18871 -0.0179616 0)
(-1.04303 -0.0184046 0)
(-0.894507 -0.018804 0)
(-0.743466 -0.0191631 0)
(-0.5902 -0.0194895 0)
(-0.435029 -0.0198183 0)
(-0.278424 -0.0201384 0)
(-0.121715 -0.0203143 0)
(0.0353957 -0.0201972 0)
(0.192037 -0.0200591 0)
(0.34646 -0.0197774 0)
(0.497368 -0.0193222 0)
(0.643371 -0.018682 0)
(0.783094 -0.0178657 0)
(0.915292 -0.0168968 0)
(1.03898 -0.015813 0)
(1.15351 -0.0146616 0)
(1.25866 -0.0134951 0)
(1.35459 -0.0123643 0)
(1.44183 -0.0113126 0)
(1.52122 -0.0103718 0)
(1.59374 -0.00955926 0)
(1.66046 -0.00887755 0)
(1.72237 -0.00831724 0)
(1.78036 -0.00786105 0)
(1.83515 -0.00748938 0)
(1.88733 -0.00718556 0)
(1.93735 -0.00693994 0)
(1.98563 -0.00675171 0)
(2.03262 -0.00662799 0)
(2.07883 -0.00658151 0)
(2.12489 -0.00662642 0)
(2.17148 -0.00677407 0)
(2.21932 -0.00700558 0)
(2.26905 -0.00732212 0)
(2.32112 -0.00768589 0)
(2.37568 -0.00805273 0)
(2.43256 -0.00838643 0)
(2.4912 -0.00858931 0)
(2.55066 -0.00865752 0)
(2.60975 -0.00854555 0)
(2.66711 -0.0082379 0)
(2.72134 -0.00774009 0)
(2.77124 -0.00707484 0)
(2.81578 -0.00627977 0)
(2.85428 -0.00540021 0)
(2.88639 -0.00448165 0)
(2.91205 -0.0035628 0)
(2.93145 -0.00267004 0)
(2.94491 -0.00181329 0)
(2.95266 -0.000978659 0)
(2.95455 -0.000138719 0)
(2.95167 0.000528731 0)
(2.94372 0.00130177 0)
(2.93022 0.00211816 0)
(2.91082 0.00293352 0)
(2.88552 0.0037974 0)
(2.85458 0.00474013 0)
(2.8181 0.00568835 0)
(2.77606 0.00661312 0)
(2.72868 0.00749846 0)
(2.67626 0.00833716 0)
(2.61913 0.00913306 0)
(2.55752 0.00989954 0)
(2.49159 0.0106572 0)
(2.4213 0.011428 0)
(2.34649 0.0122377 0)
(2.26674 0.0130965 0)
(2.18205 0.0140396 0)
(2.09068 0.0150307 0)
(1.99613 0.0161356 0)
(2.44111 0.00136065 0)
(2.44857 0.00564947 0)
(2.4328 0.00965049 0)
(2.40881 0.0132941 0)
(2.37747 0.0165782 0)
(2.33956 0.019562 0)
(2.29565 0.0223543 0)
(2.24603 0.0250941 0)
(2.19068 0.027926 0)
(2.12927 0.0309753 0)
(2.06125 0.0343238 0)
(1.98594 0.0379939 0)
(1.90269 0.0419403 0)
(1.81103 0.0460542 0)
(1.71076 0.0501764 0)
(1.60208 0.0541195 0)
(1.48557 0.0576945 0)
(1.36222 0.0607378 0)
(1.23331 0.0631335 0)
(1.10028 0.064829 0)
(0.964624 0.0658394 0)
(0.827741 0.0662435 0)
(0.690808 0.0661697 0)
(0.554726 0.0657689 0)
(0.420119 0.0651358 0)
(0.287366 0.064378 0)
(0.156721 0.063581 0)
(0.0287998 0.0627778 0)
(-0.0982111 0.0617535 0)
(-0.224249 0.0608543 0)
(-0.347416 0.059863 0)
(-0.468207 0.0587336 0)
(-0.586337 0.0574405 0)
(-0.701479 0.0559907 0)
(-0.813349 0.0544258 0)
(-0.921781 0.0528166 0)
(-1.02678 0.0512507 0)
(-1.12854 0.0498162 0)
(-1.22742 0.0485839 0)
(-1.32391 0.0475928 0)
(-1.41853 0.0468407 0)
(-1.51176 0.0462832 0)
(-1.60394 0.0458401 0)
(-1.6952 0.0454094 0)
(-1.78546 0.044886 0)
(-1.87444 0.0441806 0)
(-1.9617 0.043237 0)
(-2.04671 0.0420425 0)
(-2.12898 0.040631 0)
(-2.20813 0.0390764 0)
(-2.28398 0.0374795 0)
(-2.35657 0.0359487 0)
(-2.42615 0.0345791 0)
(-2.49314 0.0334332 0)
(-2.55808 0.032527 0)
(-2.62143 0.0318229 0)
(-2.68355 0.031233 0)
(-2.74458 0.0306292 0)
(-2.80434 0.0298617 0)
(-2.86235 0.0287801 0)
(-2.91784 0.0272547 0)
(-2.9698 0.0251947 0)
(-3.01709 0.0225616 0)
(-3.05858 0.0193735 0)
(-3.09321 0.0157011 0)
(-3.12013 0.0116565 0)
(-3.13878 0.00737345 0)
(-3.14888 0.00303404 0)
(-3.15051 -0.00128399 0)
(-3.14379 -0.00541603 0)
(-3.12923 -0.00930863 0)
(-3.10741 -0.0129244 0)
(-3.0789 -0.0162643 0)
(-3.04427 -0.0193604 0)
(-3.00395 -0.022266 0)
(-2.95827 -0.0250459 0)
(-2.90742 -0.0277672 0)
(-2.85146 -0.0304909 0)
(-2.79032 -0.0332663 0)
(-2.72386 -0.0361281 0)
(-2.65191 -0.0390947 0)
(-2.57424 -0.04217 0)
(-2.49067 -0.0453437 0)
(-2.40103 -0.0485936 0)
(-2.30522 -0.051886 0)
(-2.2032 -0.0551793 0)
(-2.09503 -0.058426 0)
(-1.98087 -0.0615758 0)
(-1.86096 -0.0645801 0)
(-1.73564 -0.0673956 0)
(-1.60532 -0.0699904 0)
(-1.47047 -0.0723475 0)
(-1.33154 -0.0744654 0)
(-1.189 -0.0763567 0)
(-1.04326 -0.0780422 0)
(-0.894685 -0.0795446 0)
(-0.743596 -0.08088 0)
(-0.590295 -0.082056 0)
(-0.435096 -0.0830931 0)
(-0.278399 -0.0839705 0)
(-0.121484 -0.0844257 0)
(0.0357951 -0.0840613 0)
(0.192553 -0.0833174 0)
(0.347158 -0.0819313 0)
(0.498265 -0.0798106 0)
(0.644465 -0.0769261 0)
(0.784363 -0.0733206 0)
(0.916699 -0.0690999 0)
(1.04047 -0.0644266 0)
(1.15503 -0.0595034 0)
(1.26015 -0.05455 0)
(1.35599 -0.049778 0)
(1.44311 -0.0453644 0)
(1.52235 -0.041436 0)
(1.59472 -0.0380573 0)
(1.66128 -0.035232 0)
(1.72306 -0.0329142 0)
(1.78094 -0.031027 0)
(1.83565 -0.0294853 0)
(1.88775 -0.0282179 0)
(1.93771 -0.0271838 0)
(1.98592 -0.0263789 0)
(2.03283 -0.0258321 0)
(2.07895 -0.0255947 0)
(2.12491 -0.0257184 0)
(2.1714 -0.0262264 0)
(2.21916 -0.0271216 0)
(2.26882 -0.0283182 0)
(2.32087 -0.0296927 0)
(2.37547 -0.0310685 0)
(2.43245 -0.0322248 0)
(2.49123 -0.0329965 0)
(2.55087 -0.0331673 0)
(2.61017 -0.0326232 0)
(2.66774 -0.0313165 0)
(2.72216 -0.0292776 0)
(2.7722 -0.0266055 0)
(2.81684 -0.0234546 0)
(2.85539 -0.020007 0)
(2.88749 -0.0164421 0)
(2.91311 -0.0129101 0)
(2.93245 -0.00951132 0)
(2.94585 -0.00628139 0)
(2.95354 -0.00317474 0)
(2.95537 -0.000112952 0)
(2.95246 0.00258926 0)
(2.94452 0.00558613 0)
(2.93104 0.00863074 0)
(2.91164 0.0117333 0)
(2.88636 0.0149582 0)
(2.85542 0.0183364 0)
(2.81889 0.021712 0)
(2.77678 0.0249854 0)
(2.72932 0.0280932 0)
(2.67681 0.03101 0)
(2.6196 0.0337529 0)
(2.55794 0.0363765 0)
(2.49197 0.0389629 0)
(2.42167 0.0416 0)
(2.34687 0.0443812 0)
(2.26712 0.0473474 0)
(2.18244 0.050591 0)
(2.09107 0.0539918 0)
(1.99649 0.0576898 0)
(2.44361 0.00201887 0)
(2.45077 0.00980982 0)
(2.43481 0.0170023 0)
(2.41061 0.0234989 0)
(2.37909 0.0293128 0)
(2.34104 0.0345616 0)
(2.29706 0.0394486 0)
(2.24745 0.0442297 0)
(2.19218 0.04917 0)
(2.13091 0.0544973 0)
(2.06306 0.060361 0)
(1.98791 0.0668017 0)
(1.90478 0.0737382 0)
(1.81316 0.0809741 0)
(1.71285 0.0882228 0)
(1.60402 0.0951477 0)
(1.48727 0.10141 0)
(1.3636 0.106718 0)
(1.23433 0.110865 0)
(1.10093 0.113759 0)
(0.964928 0.115428 0)
(0.827753 0.116007 0)
(0.690599 0.115707 0)
(0.55437 0.114777 0)
(0.419684 0.113479 0)
(0.2869 0.112018 0)
(0.156253 0.11052 0)
(0.0282917 0.109038 0)
(-0.0987425 0.107314 0)
(-0.224783 0.105677 0)
(-0.34801 0.103882 0)
(-0.468882 0.101844 0)
(-0.587098 0.0995184 0)
(-0.702313 0.0969154 0)
(-0.814226 0.0941091 0)
(-0.922659 0.0912256 0)
(-1.02761 0.0884215 0)
(-1.12928 0.0858541 0)
(-1.22804 0.0836502 0)
(-1.3244 0.0818792 0)
(-1.41891 0.0805374 0)
(-1.51205 0.0795451 0)
(-1.60419 0.0787594 0)
(-1.69547 0.0779984 0)
(-1.78581 0.0770745 0)
(-1.8749 0.0758291 0)
(-1.96229 0.0741623 0)
(-2.04742 0.0720525 0)
(-2.12979 0.0695604 0)
(-2.20899 0.0668184 0)
(-2.28483 0.0640062 0)
(-2.35735 0.0613168 0)
(-2.42683 0.0589195 0)
(-2.4937 0.0569253 0)
(-2.55851 0.0553624 0)
(-2.62177 0.0541648 0)
(-2.68387 0.0531768 0)
(-2.74494 0.0521729 0)
(-2.80482 0.0508897 0)
(-2.86303 0.0490642 0)
(-2.91876 0.0464707 0)
(-2.97101 0.0429534 0)
(-3.01859 0.0384476 0)
(-3.06034 0.0329883 0)
(-3.09519 0.0267019 0)
(-3.12226 0.0197867 0)
(-3.14098 0.0124816 0)
(-3.15108 0.00509848 0)
(-3.15264 -0.00223603 0)
(-3.14581 -0.0092371 0)
(-3.13111 -0.015808 0)
(-3.10913 -0.0218885 0)
(-3.08049 -0.0274843 0)
(-3.04574 -0.0326543 0)
(-3.00533 -0.0374932 0)
(-2.9596 -0.0421142 0)
(-2.90874 -0.0466335 0)
(-2.85278 -0.0511558 0)
(-2.79167 -0.0557647 0)
(-2.72526 -0.0605183 0)
(-2.65336 -0.065447 0)
(-2.57574 -0.070556 0)
(-2.49221 -0.0758274 0)
(-2.40259 -0.0812225 0)
(-2.30679 -0.0866844 0)
(-2.20475 -0.092142 0)
(-2.09654 -0.0975152 0)
(-1.98231 -0.10272 0)
(-1.86231 -0.107673 0)
(-1.73688 -0.112302 0)
(-1.60644 -0.116555 0)
(-1.47146 -0.120404 0)
(-1.33241 -0.123848 0)
(-1.18976 -0.126911 0)
(-1.04392 -0.129632 0)
(-0.895257 -0.132053 0)
(-0.744086 -0.134204 0)
(-0.5907 -0.136085 0)
(-0.435409 -0.137664 0)
(-0.278576 -0.138896 0)
(-0.121392 -0.139559 0)
(0.0361806 -0.13908 0)
(0.193209 -0.137815 0)
(0.348157 -0.135461 0)
(0.499636 -0.13188 0)
(0.646202 -0.127032 0)
(0.786428 -0.120988 0)
(0.919024 -0.113926 0)
(1.04296 -0.10612 0)
(1.15758 -0.0979096 0)
(1.26266 -0.089661 0)
(1.35835 -0.0817278 0)
(1.44525 -0.074404 0)
(1.52422 -0.0678984 0)
(1.59631 -0.0623151 0)
(1.6626 -0.0576565 0)
(1.72415 -0.0538414 0)
(1.78184 -0.0507378 0)
(1.8364 -0.0482008 0)
(1.88838 -0.0461096 0)
(1.93822 -0.0443947 0)
(1.98632 -0.0430496 0)
(2.03309 -0.0421239 0)
(2.07905 -0.0417045 0)
(2.12482 -0.0418817 0)
(2.17113 -0.0427035 0)
(2.21872 -0.0441477 0)
(2.26826 -0.0461045 0)
(2.32027 -0.0483599 0)
(2.37492 -0.0506215 0)
(2.43205 -0.0525554 0)
(2.49107 -0.053801 0)
(2.55104 -0.054083 0)
(2.6107 -0.0531921 0)
(2.66862 -0.0510488 0)
(2.72338 -0.0477059 0)
(2.77368 -0.0433286 0)
(2.8185 -0.0381737 0)
(2.85713 -0.0325425 0)
(2.88924 -0.0267314 0)
(2.91481 -0.0209874 0)
(2.93405 -0.0154741 0)
(2.94736 -0.010248 0)
(2.95497 -0.00523316 0)
(2.95678 -0.000301825 0)
(2.95389 0.00409667 0)
(2.94594 0.00891981 0)
(2.93247 0.0137581 0)
(2.91311 0.0187564 0)
(2.88788 0.0239954 0)
(2.85698 0.0294501 0)
(2.82041 0.034892 0)
(2.77823 0.0401685 0)
(2.73066 0.0451758 0)
(2.67805 0.0498706 0)
(2.62075 0.0542788 0)
(2.55903 0.0584891 0)
(2.49306 0.0626353 0)
(2.42278 0.0668603 0)
(2.34805 0.0713179 0)
(2.2684 0.0760763 0)
(2.18381 0.0812939 0)
(2.09254 0.0867786 0)
(1.99803 0.0927678 0)
(2.44745 0.0027848 0)
(2.45427 0.0141547 0)
(2.43799 0.0246159 0)
(2.41345 0.0340296 0)
(2.38163 0.0424202 0)
(2.34336 0.049966 0)
(2.29926 0.0569709 0)
(2.24967 0.063816 0)
(2.19453 0.0708955 0)
(2.13348 0.0785484 0)
(2.0659 0.0869972 0)
(1.99101 0.0963034 0)
(1.90807 0.106348 0)
(1.81654 0.116842 0)
(1.71615 0.127362 0)
(1.60709 0.137413 0)
(1.48996 0.146494 0)
(1.36579 0.154174 0)
(1.23594 0.160151 0)
(1.10195 0.164291 0)
(0.965402 0.166635 0)
(0.827762 0.167381 0)
(0.690254 0.166841 0)
(0.553795 0.165384 0)
(0.418993 0.163411 0)
(0.286173 0.161222 0)
(0.15553 0.158998 0)
(0.027532 0.156819 0)
(-0.0995333 0.154389 0)
(-0.225596 0.152022 0)
(-0.348918 0.149427 0)
(-0.469918 0.146475 0)
(-0.588272 0.143097 0)
(-0.703605 0.139308 0)
(-0.815587 0.135216 0)
(-0.924021 0.131008 0)
(-1.0289 0.126916 0)
(-1.13042 0.123173 0)
(-1.22899 0.119968 0)
(-1.32514 0.117404 0)
(-1.41946 0.115477 0)
(-1.51247 0.114068 0)
(-1.60455 0.112966 0)
(-1.69587 0.111902 0)
(-1.78632 0.110599 0)
(-1.8756 0.108821 0)
(-1.96319 0.10642 0)
(-2.04852 0.103364 0)
(-2.13104 0.0997428 0)
(-2.21032 0.0957533 0)
(-2.28615 0.0916617 0)
(-2.35857 0.0877545 0)
(-2.42787 0.0842827 0)
(-2.49454 0.0814118 0)
(-2.55916 0.0791844 0)
(-2.62227 0.0775042 0)
(-2.68432 0.0761425 0)
(-2.74545 0.0747674 0)
(-2.80553 0.0729918 0)
(-2.86404 0.0704289 0)
(-2.92018 0.0667483 0)
(-2.97287 0.061722 0)
(-3.02092 0.0552558 0)
(-3.06309 0.0474025 0)
(-3.09827 0.0383488 0)
(-3.12557 0.0283865 0)
(-3.14441 0.0178683 0)
(-3.1545 0.00724995 0)
(-3.15596 -0.00328898 0)
(-3.14894 -0.013333 0)
(-3.13402 -0.0227398 0)
(-3.11181 -0.0314249 0)
(-3.08295 -0.0394003 0)
(-3.04801 -0.0467553 0)
(-3.00748 -0.0536306 0)
(-2.96167 -0.0601921 0)
(-2.91078 -0.0666103 0)
(-2.85485 -0.0730375 0)
(-2.79379 -0.0795945 0)
(-2.72745 -0.0863644 0)
(-2.65563 -0.0933904 0)
(-2.57809 -0.100679 0)
(-2.49462 -0.108204 0)
(-2.40505 -0.115909 0)
(-2.30925 -0.123711 0)
(-2.2072 -0.131507 0)
(-2.09892 -0.139183 0)
(-1.98459 -0.146615 0)
(-1.86445 -0.153685 0)
(-1.73885 -0.160288 0)
(-1.60823 -0.166347 0)
(-1.47305 -0.171822 0)
(-1.33382 -0.176714 0)
(-1.19099 -0.181061 0)
(-1.045 -0.184919 0)
(-0.896209 -0.188353 0)
(-0.744915 -0.191409 0)
(-0.591397 -0.194088 0)
(-0.435951 -0.19633 0)
(-0.278905 -0.19802 0)
(-0.121342 -0.198938 0)
(0.0366762 -0.198394 0)
(0.194148 -0.196632 0)
(0.34964 -0.193288 0)
(0.501704 -0.188172 0)
(0.648849 -0.181228 0)
(0.789595 -0.172559 0)
(0.922602 -0.162421 0)
(1.04681 -0.151211 0)
(1.16153 -0.139421 0)
(1.26653 -0.127584 0)
(1.36199 -0.116211 0)
(1.44855 -0.105728 0)
(1.5271 -0.0964354 0)
(1.59875 -0.08848 0)
(1.66462 -0.0818607 0)
(1.7258 -0.0764547 0)
(1.7832 -0.0720654 0)
(1.83753 -0.0684784 0)
(1.88932 -0.065516 0)
(1.939 -0.0630767 0)
(1.98692 -0.0611529 0)
(2.03348 -0.0598198 0)
(2.07918 -0.059208 0)
(2.12466 -0.0594527 0)
(2.17067 -0.0606314 0)
(2.21799 -0.0627205 0)
(2.26734 -0.0655554 0)
(2.31927 -0.0688308 0)
(2.374 -0.0721226 0)
(2.43137 -0.0749313 0)
(2.49079 -0.0767753 0)
(2.55126 -0.077213 0)
(2.6115 -0.0759522 0)
(2.67001 -0.0728795 0)
(2.72529 -0.0680736 0)
(2.77602 -0.0617769 0)
(2.82112 -0.0543651 0)
(2.8599 -0.046278 0)
(2.89202 -0.0379472 0)
(2.9175 -0.029731 0)
(2.93661 -0.0218652 0)
(2.94976 -0.0144288 0)
(2.95726 -0.00730722 0)
(2.95901 -0.000323167 0)
(2.95609 0.0058817 0)
(2.94816 0.0127648 0)
(2.93475 0.0197889 0)
(2.91549 0.027013 0)
(2.89038 0.0345243 0)
(2.85951 0.0422586 0)
(2.82289 0.0500009 0)
(2.78058 0.0575211 0)
(2.73285 0.0646462 0)
(2.68007 0.0713143 0)
(2.62263 0.0775651 0)
(2.56083 0.0835289 0)
(2.49483 0.0894018 0)
(2.4246 0.0953937 0)
(2.34997 0.101728 0)
(2.27048 0.108505 0)
(2.18605 0.115945 0)
(2.09493 0.123768 0)
(2.00052 0.132296 0)
(2.45269 0.00367521 0)
(2.45908 0.0186691 0)
(2.44235 0.0324299 0)
(2.41734 0.0447714 0)
(2.38509 0.0557281 0)
(2.3465 0.0655419 0)
(2.30225 0.0746247 0)
(2.25267 0.0834919 0)
(2.19772 0.0926771 0)
(2.13698 0.10264 0)
(2.06978 0.113683 0)
(1.99526 0.12589 0)
(1.9126 0.139105 0)
(1.82118 0.152938 0)
(1.7207 0.166821 0)
(1.61132 0.180088 0)
(1.49365 0.192066 0)
(1.36879 0.202176 0)
(1.23814 0.210014 0)
(1.10334 0.215399 0)
(0.966029 0.21839 0)
(0.827747 0.219257 0)
(0.689752 0.218419 0)
(0.552984 0.2164 0)
(0.41803 0.213717 0)
(0.285166 0.21076 0)
(0.154537 0.207782 0)
(0.0265116 0.204889 0)
(-0.100587 0.201757 0)
(-0.226688 0.198674 0)
(-0.350143 0.195289 0)
(-0.471322 0.191424 0)
(-0.58987 0.186982 0)
(-0.705369 0.181981 0)
(-0.817451 0.176565 0)
(-0.925887 0.170988 0)
(-1.03066 0.165563 0)
(-1.13198 0.160606 0)
(-1.23028 0.156375 0)
(-1.32614 0.153011 0)
(-1.42019 0.150507 0)
(-1.51302 0.148706 0)
(-1.60502 0.147322 0)
(-1.69638 0.14599 0)
(-1.787 0.144336 0)
(-1.87652 0.14204 0)
(-1.96441 0.138903 0)
(-2.05002 0.134879 0)
(-2.13275 0.130092 0)
(-2.21214 0.124807 0)
(-2.28795 0.119385 0)
(-2.36023 0.114215 0)
(-2.42929 0.109637 0)
(-2.49567 0.105876 0)
(-2.56001 0.102994 0)
(-2.62292 0.10086 0)
(-2.68489 0.0991699 0)
(-2.74611 0.0974775 0)
(-2.80645 0.095263 0)
(-2.86539 0.0920077 0)
(-2.92208 0.0872689 0)
(-2.97539 0.0807427 0)
(-3.02407 0.0723031 0)
(-3.06682 0.0620219 0)
(-3.10247 0.0501505 0)
(-3.13009 0.0370814 0)
(-3.14907 0.0232879 0)
(-3.15916 0.00937933 0)
(-3.16046 -0.00440904 0)
(-3.15319 -0.0175242 0)
(-3.13796 -0.0297779 0)
(-3.11542 -0.0410621 0)
(-3.08626 -0.0513976 0)
(-3.05108 -0.0609091 0)
(-3.01036 -0.0697866 0)
(-2.96446 -0.078252 0)
(-2.91354 -0.086534 0)
(-2.85763 -0.0948346 0)
(-2.79665 -0.103313 0)
(-2.73042 -0.112076 0)
(-2.65871 -0.121181 0)
(-2.58128 -0.130635 0)
(-2.4979 -0.140401 0)
(-2.40839 -0.150406 0)
(-2.31261 -0.160539 0)
(-2.21052 -0.170667 0)
(-2.10216 -0.180635 0)
(-1.98769 -0.190284 0)
(-1.86737 -0.199456 0)
(-1.74154 -0.208011 0)
(-1.61066 -0.215849 0)
(-1.47523 -0.222917 0)
(-1.33574 -0.229218 0)
(-1.19268 -0.234804 0)
(-1.04649 -0.239755 0)
(-0.897525 -0.244161 0)
(-0.746069 -0.248086 0)
(-0.592378 -0.251533 0)
(-0.436716 -0.25442 0)
(-0.279381 -0.256571 0)
(-0.121352 -0.257722 0)
(0.0372462 -0.257155 0)
(0.195342 -0.254915 0)
(0.351577 -0.250591 0)
(0.504439 -0.243938 0)
(0.652372 -0.234882 0)
(0.793826 -0.223554 0)
(0.927395 -0.210297 0)
(1.05196 -0.195633 0)
(1.16681 -0.180214 0)
(1.27171 -0.164745 0)
(1.36687 -0.149905 0)
(1.45295 -0.136253 0)
(1.53093 -0.124182 0)
(1.60198 -0.113883 0)
(1.66729 -0.105343 0)
(1.72798 -0.0983931 0)
(1.78497 -0.092763 0)
(1.839 -0.0881618 0)
(1.89056 -0.0843493 0)
(1.94002 -0.08119 0)
(1.9877 -0.0786761 0)
(2.03398 -0.0769126 0)
(2.07934 -0.0760799 0)
(2.12443 -0.0763668 0)
(2.17002 -0.0778848 0)
(2.21696 -0.080609 0)
(2.26605 -0.0843298 0)
(2.31787 -0.0886465 0)
(2.3727 -0.0929991 0)
(2.43039 -0.0967346 0)
(2.49035 -0.0991949 0)
(2.55151 -0.0998137 0)
(2.61252 -0.0982006 0)
(2.67183 -0.0942072 0)
(2.72782 -0.0879408 0)
(2.77911 -0.0797265 0)
(2.8246 -0.0700657 0)
(2.86356 -0.0595435 0)
(2.89569 -0.0487325 0)
(2.92104 -0.038106 0)
(2.93996 -0.0279725 0)
(2.95291 -0.0184314 0)
(2.96024 -0.00933114 0)
(2.96193 -0.000445425 0)
(2.95904 0.00749108 0)
(2.95119 0.0163309 0)
(2.93787 0.0254511 0)
(2.9187 0.0348626 0)
(2.89366 0.0446322 0)
(2.86283 0.0545873 0)
(2.82616 0.0644632 0)
(2.78371 0.0740406 0)
(2.73577 0.0831324 0)
(2.68278 0.0916328 0)
(2.62516 0.0995766 0)
(2.56325 0.107135 0)
(2.49724 0.11457 0)
(2.4271 0.122161 0)
(2.35264 0.130205 0)
(2.27338 0.138841 0)
(2.18918 0.148356 0)
(2.0983 0.158389 0)
(2.00405 0.169351 0)
(2.45934 0.00471236 0)
(2.46522 0.0233845 0)
(2.44789 0.0404743 0)
(2.42226 0.0557439 0)
(2.38945 0.0692377 0)
(2.35045 0.0812665 0)
(2.30599 0.0923592 0)
(2.25643 0.103178 0)
(2.20173 0.11441 0)
(2.14141 0.126648 0)
(2.07471 0.140281 0)
(2.00068 0.155423 0)
(1.91839 0.171873 0)
(1.82713 0.189138 0)
(1.72654 0.206492 0)
(1.61674 0.223083 0)
(1.49839 0.238051 0)
(1.37262 0.250658 0)
(1.24094 0.260388 0)
(1.10508 0.267014 0)
(0.966791 0.270615 0)
(0.82768 0.271538 0)
(0.689072 0.270343 0)
(0.551919 0.267707 0)
(0.416776 0.264254 0)
(0.283865 0.260488 0)
(0.153267 0.256734 0)
(0.0252298 0.253126 0)
(-0.101898 0.249308 0)
(-0.228053 0.245536 0)
(-0.35168 0.241384 0)
(-0.473096 0.236619 0)
(-0.5919 0.231107 0)
(-0.70762 0.22487 0)
(-0.819835 0.218091 0)
(-0.928277 0.211094 0)
(-1.03291 0.204286 0)
(-1.13397 0.198076 0)
(-1.23192 0.192796 0)
(-1.32739 0.188629 0)
(-1.4211 0.18557 0)
(-1.51367 0.183417 0)
(-1.60557 0.181803 0)
(-1.69699 0.180258 0)
(-1.78782 0.178298 0)
(-1.87768 0.175513 0)
(-1.96595 0.171643 0)
(-2.05193 0.166632 0)
(-2.13495 0.160637 0)
(-2.21447 0.154 0)
(-2.29026 0.147188 0)
(-2.36234 0.140701 0)
(-2.43109 0.134981 0)
(-2.49709 0.13032 0)
(-2.56106 0.126798 0)
(-2.6237 0.124254 0)
(-2.68556 0.122298 0)
(-2.74688 0.120362 0)
(-2.80756 0.117783 0)
(-2.86704 0.113896 0)
(-2.92445 0.108139 0)
(-2.97857 0.100126 0)
(-3.02806 0.0896964 0)
(-3.07155 0.0769415 0)
(-3.10781 0.0621831 0)
(-3.13584 0.0459235 0)
(-3.15501 0.0287658 0)
(-3.16508 0.0114852 0)
(-3.16618 -0.00562387 0)
(-3.15858 -0.0218611 0)
(-3.14294 -0.0369923 0)
(-3.11998 -0.0508868 0)
(-3.09043 -0.0635776 0)
(-3.05493 -0.0752303 0)
(-3.01399 -0.0860898 0)
(-2.96796 -0.096437 0)
(-2.917 -0.106564 0)
(-2.86114 -0.116727 0)
(-2.80026 -0.127122 0)
(-2.73417 -0.137883 0)
(-2.66261 -0.14908 0)
(-2.58532 -0.160718 0)
(-2.50206 -0.172752 0)
(-2.41262 -0.185089 0)
(-2.31687 -0.197591 0)
(-2.21475 -0.210088 0)
(-2.10628 -0.22239 0)
(-1.99164 -0.234296 0)
(-1.87107 -0.245609 0)
(-1.74496 -0.256148 0)
(-1.61376 -0.265789 0)
(-1.47798 -0.274466 0)
(-1.33817 -0.282184 0)
(-1.19483 -0.289012 0)
(-1.04839 -0.295057 0)
(-0.899206 -0.300438 0)
(-0.747553 -0.305245 0)
(-0.59365 -0.309485 0)
(-0.437721 -0.313057 0)
(-0.280022 -0.315734 0)
(-0.121433 -0.317176 0)
(0.0378809 -0.316638 0)
(0.196785 -0.313974 0)
(0.353972 -0.308705 0)
(0.507857 -0.300519 0)
(0.656801 -0.28932 0)
(0.799165 -0.275271 0)
(0.933456 -0.2588 0)
(1.05849 -0.240564 0)
(1.17351 -0.22139 0)
(1.27827 -0.202169 0)
(1.37302 -0.183754 0)
(1.45849 -0.166854 0)
(1.53574 -0.151959 0)
(1.60601 -0.1393 0)
(1.6706 -0.128852 0)
(1.73066 -0.120386 0)
(1.78717 -0.113549 0)
(1.84082 -0.107962 0)
(1.89208 -0.103315 0)
(1.94128 -0.099435 0)
(1.98869 -0.0963154 0)
(2.03461 -0.0940981 0)
(2.07954 -0.0930233 0)
(2.12411 -0.0933441 0)
(2.16917 -0.0952182 0)
(2.21563 -0.0986254 0)
(2.26436 -0.10331 0)
(2.31604 -0.10877 0)
(2.37099 -0.114298 0)
(2.42909 -0.119066 0)
(2.48972 -0.122246 0)
(2.55177 -0.12311 0)
(2.61379 -0.121166 0)
(2.67411 -0.116227 0)
(2.73101 -0.108433 0)
(2.78304 -0.0982009 0)
(2.82901 -0.086172 0)
(2.86821 -0.073092 0)
(2.90033 -0.059689 0)
(2.92552 -0.0465618 0)
(2.94417 -0.0340959 0)
(2.95685 -0.022409 0)
(2.96397 -0.0113037 0)
(2.96558 -0.00049895 0)
(2.96271 0.00916364 0)
(2.95496 0.0199317 0)
(2.94179 0.0310657 0)
(2.9228 0.0426556 0)
(2.8979 0.054797 0)
(2.86708 0.0672359 0)
(2.8303 0.0795306 0)
(2.78766 0.0913563 0)
(2.73948 0.102485 0)
(2.68622 0.112819 0)
(2.62837 0.122457 0)
(2.56632 0.131627 0)
(2.5003 0.140649 0)
(2.43027 0.149877 0)
(2.35604 0.159685 0)
(2.27707 0.170255 0)
(2.19319 0.181941 0)
(2.10261 0.194289 0)
(2.00858 0.207791 0)
(2.46745 0.00592629 0)
(2.4727 0.0283446 0)
(2.45463 0.0487976 0)
(2.42822 0.0669913 0)
(2.3947 0.08298 0)
(2.35518 0.0971502 0)
(2.31045 0.11016 0)
(2.26093 0.122836 0)
(2.20654 0.136033 0)
(2.14675 0.150492 0)
(2.08069 0.166704 0)
(2.00729 0.184814 0)
(1.92547 0.204579 0)
(1.83442 0.225387 0)
(1.7337 0.246341 0)
(1.6234 0.266386 0)
(1.50419 0.284457 0)
(1.3773 0.299639 0)
(1.24434 0.311296 0)
(1.10717 0.319153 0)
(0.967661 0.32331 0)
(0.827537 0.324216 0)
(0.688186 0.322592 0)
(0.550569 0.319244 0)
(0.415208 0.314942 0)
(0.282257 0.310317 0)
(0.151715 0.305766 0)
(0.0236905 0.301449 0)
(-0.103457 0.296971 0)
(-0.229681 0.292546 0)
(-0.353523 0.287662 0)
(-0.475238 0.282014 0)
(-0.594369 0.275429 0)
(-0.710372 0.267927 0)
(-0.822759 0.259735 0)
(-0.931214 0.251259 0)
(-1.03568 0.243007 0)
(-1.13641 0.235493 0)
(-1.23391 0.229134 0)
(-1.3289 0.224165 0)
(-1.42216 0.22058 0)
(-1.51441 0.218127 0)
(-1.60618 0.216349 0)
(-1.69767 0.21466 0)
(-1.78878 0.212455 0)
(-1.87906 0.209217 0)
(-1.96782 0.204622 0)
(-2.05427 0.198599 0)
(-2.13764 0.191345 0)
(-2.21735 0.183287 0)
(-2.2931 0.175009 0)
(-2.36494 0.167139 0)
(-2.43329 0.160232 0)
(-2.4988 0.154657 0)
(-2.5623 0.150518 0)
(-2.62458 0.147619 0)
(-2.6863 0.145478 0)
(-2.74775 0.143394 0)
(-2.80883 0.140544 0)
(-2.86899 0.136105 0)
(-2.92728 0.129384 0)
(-2.9824 0.119906 0)
(-3.03291 0.10747 0)
(-3.07733 0.0921899 0)
(-3.11433 0.0744647 0)
(-3.14286 0.0549181 0)
(-3.16226 0.0342951 0)
(-3.17229 0.01355 0)
(-3.17314 -0.00695683 0)
(-3.16512 -0.0263684 0)
(-3.14896 -0.0444036 0)
(-3.12548 -0.0609105 0)
(-3.09544 -0.0759387 0)
(-3.05955 -0.0897027 0)
(-3.01833 -0.102509 0)
(-2.97215 -0.114699 0)
(-2.92116 -0.126639 0)
(-2.86536 -0.138638 0)
(-2.80462 -0.150934 0)
(-2.73869 -0.163686 0)
(-2.66732 -0.176977 0)
(-2.59021 -0.190813 0)
(-2.5071 -0.205133 0)
(-2.41776 -0.219826 0)
(-2.32204 -0.234726 0)
(-2.21987 -0.249625 0)
(-2.11129 -0.264295 0)
(-1.99643 -0.27849 0)
(-1.87558 -0.291973 0)
(-1.7491 -0.304518 0)
(-1.6175 -0.315972 0)
(-1.48132 -0.32626 0)
(-1.34112 -0.335385 0)
(-1.19742 -0.343441 0)
(-1.05068 -0.350562 0)
(-0.901245 -0.356904 0)
(-0.749366 -0.36259 0)
(-0.595219 -0.367636 0)
(-0.438977 -0.371924 0)
(-0.280844 -0.37518 0)
(-0.121603 -0.376976 0)
(0.0385615 -0.376528 0)
(0.198463 -0.373497 0)
(0.356818 -0.367319 0)
(0.511963 -0.357606 0)
(0.662156 -0.344231 0)
(0.805643 -0.32739 0)
(0.940825 -0.307598 0)
(1.06643 -0.285662 0)
(1.18165 -0.262595 0)
(1.28624 -0.239488 0)
(1.38049 -0.217389 0)
(1.46519 -0.197163 0)
(1.54153 -0.179405 0)
(1.61085 -0.164384 0)
(1.67454 -0.152056 0)
(1.73385 -0.142121 0)
(1.78976 -0.134129 0)
(1.84297 -0.127598 0)
(1.8939 -0.122137 0)
(1.9428 -0.117534 0)
(1.98988 -0.113784 0)
(2.03538 -0.111076 0)
(2.07978 -0.10972 0)
(2.12373 -0.110049 0)
(2.16812 -0.112278 0)
(2.21397 -0.116401 0)
(2.26225 -0.122116 0)
(2.31374 -0.128815 0)
(2.36883 -0.135633 0)
(2.42742 -0.141548 0)
(2.48888 -0.145543 0)
(2.55203 -0.146716 0)
(2.61529 -0.144464 0)
(2.67687 -0.138558 0)
(2.7349 -0.129175 0)
(2.78782 -0.116835 0)
(2.83438 -0.102337 0)
(2.87385 -0.0866028 0)
(2.90596 -0.0705332 0)
(2.93091 -0.054864 0)
(2.94923 -0.0400628 0)
(2.96156 -0.0262637 0)
(2.96841 -0.0132224 0)
(2.96993 -0.000596322 0)
(2.9671 0.0107544 0)
(2.95949 0.0234289 0)
(2.94652 0.0365916 0)
(2.92776 0.0503628 0)
(2.90306 0.0648271 0)
(2.8723 0.0796859 0)
(2.83539 0.0944573 0)
(2.79246 0.108657 0)
(2.74392 0.121924 0)
(2.6903 0.134118 0)
(2.63219 0.14536 0)
(2.56999 0.155982 0)
(2.50397 0.166449 0)
(2.4341 0.177203 0)
(2.36016 0.188688 0)
(2.28159 0.201149 0)
(2.19811 0.215002 0)
(2.10793 0.22977 0)
(2.01416 0.245879 0)
(2.47703 0.00735341 0)
(2.48154 0.0336014 0)
(2.46256 0.057459 0)
(2.43519 0.0785699 0)
(2.40081 0.0969991 0)
(2.36064 0.113217 0)
(2.3156 0.128026 0)
(2.26612 0.142435 0)
(2.21212 0.157492 0)
(2.15299 0.174104 0)
(2.08773 0.192877 0)
(2.0151 0.213994 0)
(1.93389 0.237166 0)
(1.84311 0.261651 0)
(1.74224 0.286364 0)
(1.63134 0.31002 0)
(1.51111 0.331329 0)
(1.38286 0.349181 0)
(1.24834 0.362807 0)
(1.10958 0.371876 0)
(0.968614 0.376524 0)
(0.827283 0.377335 0)
(0.687053 0.375164 0)
(0.548896 0.370984 0)
(0.413296 0.36574 0)
(0.280325 0.360195 0)
(0.149879 0.354828 0)
(0.0219012 0.349811 0)
(-0.10525 0.344713 0)
(-0.231556 0.339684 0)
(-0.35566 0.334111 0)
(-0.477746 0.327604 0)
(-0.597284 0.319943 0)
(-0.713644 0.311141 0)
(-0.826249 0.301477 0)
(-0.934724 0.291446 0)
(-1.03899 0.281674 0)
(-1.13931 0.272794 0)
(-1.23626 0.265322 0)
(-1.33064 0.25955 0)
(-1.42336 0.255475 0)
(-1.51522 0.252789 0)
(-1.60682 0.250932 0)
(-1.69841 0.249187 0)
(-1.78985 0.24681 0)
(-1.88065 0.243167 0)
(-1.97002 0.237858 0)
(-2.05704 0.230795 0)
(-2.14086 0.222218 0)
(-2.22079 0.212653 0)
(-2.2965 0.202816 0)
(-2.36805 0.193482 0)
(-2.43589 0.185333 0)
(-2.50079 0.178827 0)
(-2.5637 0.174097 0)
(-2.62555 0.170911 0)
(-2.68707 0.168687 0)
(-2.74865 0.166572 0)
(-2.81023 0.163569 0)
(-2.87121 0.158678 0)
(-2.93056 0.15106 0)
(-2.98689 0.140145 0)
(-3.03863 0.125688 0)
(-3.08416 0.10782 0)
(-3.12206 0.0870321 0)
(-3.15118 0.0640833 0)
(-3.17086 0.0398753 0)
(-3.18083 0.0155568 0)
(-3.18136 -0.00843691 0)
(-3.17281 -0.0310819 0)
(-3.15604 -0.052049 0)
(-3.13191 -0.0711671 0)
(-3.10129 -0.0885066 0)
(-3.06493 -0.104342 0)
(-3.02339 -0.11905 0)
(-2.97703 -0.133034 0)
(-2.92601 -0.146743 0)
(-2.87029 -0.160548 0)
(-2.80971 -0.174725 0)
(-2.74399 -0.189457 0)
(-2.67285 -0.204849 0)
(-2.59596 -0.220896 0)
(-2.51303 -0.237522 0)
(-2.42381 -0.2546 0)
(-2.32814 -0.271933 0)
(-2.22592 -0.289271 0)
(-2.11719 -0.306351 0)
(-2.00209 -0.322874 0)
(-1.88088 -0.338565 0)
(-1.75398 -0.353141 0)
(-1.62191 -0.366424 0)
(-1.48524 -0.378327 0)
(-1.34457 -0.388848 0)
(-1.20045 -0.398115 0)
(-1.05336 -0.406293 0)
(-0.903639 -0.413579 0)
(-0.751508 -0.420143 0)
(-0.597093 -0.426014 0)
(-0.440504 -0.431062 0)
(-0.281874 -0.434966 0)
(-0.121891 -0.437201 0)
(0.0392632 -0.436921 0)
(0.200355 -0.433599 0)
(0.360108 -0.426563 0)
(0.516764 -0.415337 0)
(0.668458 -0.399755 0)
(0.813298 -0.380039 0)
(0.949555 -0.356804 0)
(1.07585 -0.331014 0)
(1.19131 -0.303887 0)
(1.29568 -0.276737 0)
(1.3893 -0.250821 0)
(1.47308 -0.227178 0)
(1.5483 -0.206512 0)
(1.61647 -0.189132 0)
(1.6791 -0.174963 0)
(1.73751 -0.163622 0)
(1.79273 -0.15454 0)
(1.84544 -0.147119 0)
(1.896 -0.140875 0)
(1.94458 -0.135547 0)
(1.99129 -0.131139 0)
(2.03631 -0.127896 0)
(2.08008 -0.126214 0)
(2.12328 -0.126521 0)
(2.16686 -0.12911 0)
(2.21196 -0.133995 0)
(2.25968 -0.140832 0)
(2.31091 -0.148899 0)
(2.36615 -0.157155 0)
(2.42534 -0.164367 0)
(2.4878 -0.169309 0)
(2.55227 -0.170879 0)
(2.61703 -0.168351 0)
(2.68012 -0.161451 0)
(2.73951 -0.1504 0)
(2.7935 -0.135834 0)
(2.84076 -0.118728 0)
(2.88053 -0.100205 0)
(2.9126 -0.0813573 0)
(2.93725 -0.0630719 0)
(2.95514 -0.0459042 0)
(2.96704 -0.0300022 0)