/*--------------------------------*- C++ -*----------------------------------*\
| =========                 |                                                 |
| \\      /  F ield         | OpenFOAM: The Open Source CFD Toolbox           |
|  \\    /   O peration     | Version:  v1912                                 |
|   \\  /    A nd           | Website:  www.openfoam.com                      |
|    \\/     M anipulation  |                                                 |
\*---------------------------------------------------------------------------*/
FoamFile
{
    version     2.0;
    format      ascii;
    class       surfaceScalarField;
    location    "10";
    object      alphaPhi0.water;
}
// * * * * * * * * * * * * * * * * * * * * * * * * * * * * * * * * * * * * * //

dimensions      [0 3 -1 0 0 0 0];
oriented        oriented;


internalField   nonuniform List<scalar> 
28285
(
-3.99755e-174
-1.41982e-175
-4.96009e-177
-1.76396e-178
-5.88931e-180
-2.0973e-181
-6.69246e-183
-2.38679e-184
-7.28011e-186
-2.60034e-187
-7.58268e-189
-2.71275e-190
-7.56423e-192
-2.71066e-193
-7.22951e-195
-2.59519e-196
-6.62255e-198
-2.38156e-199
-5.81713e-201
-2.09577e-202
-4.90205e-204
-1.76943e-205
-3.96528e-207
-1.43408e-208
-3.08077e-210
-1.1164e-211
-2.30044e-213
-8.35315e-215
-1.65202e-216
-6.01105e-218
-1.1417e-219
-4.16295e-221
-7.59794e-223
-2.77633e-224
-4.87177e-226
-1.78403e-227
-3.01113e-229
-1.1051e-230
-1.79464e-232
-6.60108e-234
-1.03162e-235
-3.8031e-237
-5.71988e-239
-2.11345e-240
-3.05864e-242
-1.13275e-243
-1.57702e-245
-5.85399e-247
-7.83692e-249
-2.91594e-250
-3.75181e-252
-1.39927e-253
-1.72931e-255
-6.46501e-257
-7.66968e-259
-2.87419e-260
-3.27094e-262
-1.22874e-263
-1.34055e-265
-5.04812e-267
-5.2765e-269
-1.99184e-270
-1.99346e-272
-7.54372e-274
-7.22497e-276
-2.74088e-277
-2.51087e-279
-9.54902e-281
-8.36342e-283
-3.18863e-284
-2.66901e-286
-1.02013e-287
-8.15787e-290
-3.12594e-291
-2.38747e-293
-9.17155e-295
-6.6884e-297
-2.57592e-298
-1.79323e-300
-6.92396e-302
-4.60043e-304
-1.78086e-305
-1.12911e-307
-4.38211e-309
-2.65089e-311
-1.03147e-312
-5.95263e-315
-2.32219e-316
-1.27833e-318
-4.99994e-320
-2.61855e-322
-9.88131e-324
0
0
0
0
0
0
0
0
0
0
0
0
0
0
0
0
0
0
0
0
0
0
0
0
0
0
0
0
0
0
0
0
0
0
0
0
0
0
0
0
0
0
0
0
0
0
0
0
0
0
0
0
0
0
0
0
0
0
0
0
0
0
0
0
0
0
0
0
0
0
0
0
0
0
0
0
0
0
0
0
0
0
0
0
0
0
0
0
0
0
0
0
0
0
0
0
0
0
0
0
0
0
0
0
0
0
0
0
0
0
0
0
0
0
0
0
0
0
0
0
0
0
0
0
0
0
0
0
0
0
0
0
0
0
0
0
0
0
0
0
0
0
0
0
0
0
0
0
0
0
0
0
0
0
0
0
0
0
0
0
0
0
0
0
0
0
0
0
0
0
0
0
0
0
0
0
0
0
0
0
0
0
0
0
0
0
0
0
0
0
0
0
0
0
0
0
0
0
0
0
0
0
0
0
0
0
0
0
-6.55316e-174
-4.66052e-175
-8.74253e-177
-6.22559e-178
-1.11706e-179
-7.96558e-181
-1.36691e-182
-9.76135e-184
-1.60175e-185
-1.14559e-186
-1.79734e-188
-1.28754e-189
-1.9312e-191
-1.38573e-192
-1.98691e-194
-1.42818e-195
-1.9574e-197
-1.40947e-198
-1.84639e-200
-1.33198e-201
-1.66767e-203
-1.20533e-204
-1.44225e-206
-1.04443e-207
-1.19431e-209
-8.66594e-211
-9.4698e-213
-6.88524e-214
-7.18981e-216
-5.23831e-217
-5.22697e-219
-3.81624e-220
-3.63869e-222
-2.6623e-223
-2.42553e-225
-1.77852e-226
-1.54824e-228
-1.13775e-229
-9.46341e-232
-6.96981e-233
-5.53908e-235
-4.08874e-236
-3.10465e-238
-2.29696e-239
-1.66639e-241
-1.23571e-242
-8.56511e-245
-6.3662e-246
-4.21581e-248
-3.14085e-249
-1.98712e-251
-1.48394e-252
-8.9694e-255
-6.71412e-256
-3.87701e-258
-2.90914e-259
-1.60481e-261
-1.20709e-262
-6.36126e-265
-4.7964e-266
-2.41464e-268
-1.8251e-269
-8.7771e-272
-6.6505e-273
-3.05517e-275
-2.32066e-276
-1.01837e-278
-7.75463e-280
-3.25055e-282
-2.4814e-283
-9.93559e-286
-7.6036e-287
-2.90814e-289
-2.2312e-290
-8.1513e-293
-6.26973e-294
-2.18792e-296
-1.68716e-297
-5.62391e-300
-4.3478e-301
-1.38439e-303
-1.073e-304
-3.26365e-307
-2.53606e-308
-7.36872e-311
-5.74071e-312
-1.59348e-314
-1.24463e-315
-3.30057e-318
-2.58466e-319
-6.57107e-322
-4.94066e-323
0
0
0
0
0
0
0
0
0
0
0
0
0
0
0
0
0
0
0
0
0
0
0
0
0
0
0
0
0
0
0
0
0
0
0
0
0
0
0
0
0
0
0
0
0
0
0
0
0
0
0
0
0
0
0
0
0
0
0
0
0
0
0
0
0
0
0
0
0
0
0
0
0
0
0
0
0
0
0
0
0
0
0
0
0
0
0
0
0
0
0
0
0
0
0
0
0
0
0
0
0
0
0
0
0
0
0
0
0
0
0
0
0
0
0
0
0
0
0
0
0
0
0
0
0
0
0
0
0
0
0
0
0
0
0
0
0
0
0
0
0
0
0
0
0
0
0
0
0
0
0
0
0
0
0
0
0
0
0
0
0
0
0
0
0
0
0
0
0
0
0
0
0
0
0
0
0
0
0
0
0
0
0
0
0
0
0
0
0
0
0
0
0
0
0
0
0
0
0
0
0
0
0
0
0
0
0
0
-8.31791e-173
-8.87551e-174
-1.11197e-175
-1.18804e-176
-1.42322e-178
-1.52267e-179
-1.74395e-181
-1.86853e-182
-2.04582e-184
-2.19532e-185
-2.29754e-187
-2.46938e-188
-2.47007e-190
-2.65924e-191
-2.54215e-193
-2.74157e-194
-2.50456e-196
-2.70586e-197
-2.36208e-199
-2.55662e-200
-2.13248e-202
-2.31248e-203
-1.8429e-205
-2.00233e-206
-1.52454e-208
-1.65972e-209
-1.20725e-211
-1.31696e-212
-9.15108e-215
-1.00033e-215
-6.63998e-218
-7.2736e-219
-4.61191e-221
-5.06279e-222
-3.06631e-224
-3.37339e-225
-1.95153e-227
-2.15169e-228
-1.18896e-230
-1.31382e-231
-6.93415e-234
-7.67966e-235
-3.87138e-237
-4.29738e-238
-2.06916e-240
-2.30214e-241
-1.05875e-243
-1.1807e-244
-5.18651e-247
-5.79748e-248
-2.43255e-250
-2.72554e-251
-1.09238e-253
-1.22686e-254
-4.69711e-257
-5.28807e-258
-1.93404e-260
-2.18263e-261
-7.6261e-264
-8.62729e-265
-2.8799e-267
-3.26597e-268
-1.04166e-270
-1.18421e-271
-3.60899e-274
-4.11304e-275
-1.19783e-277
-1.36853e-278
-3.80892e-281
-4.36257e-282
-1.1605e-284
-1.33251e-285
-3.38822e-288
-3.90027e-289
-9.48037e-292
-1.09408e-292
-2.54244e-295
-2.94156e-296
-6.5357e-299
-7.58097e-300
-1.6106e-302
-1.87297e-303
-3.80516e-306
-4.4364e-307
-8.6195e-310
-1.00753e-310
-1.87215e-313
-2.194e-314
-3.89911e-317
-4.58128e-318
-7.78647e-321
-9.18962e-322
0
0
0
0
0
0
0
0
0
0
0
0
0
0
0
0
0
0
0
0
0
0
0
0
0
0
0
0
0
0
0
0
0
0
0
0
0
0
0
0
0
0
0
0
0
0
0
0
0
0
0
0
0
0
0
0
0
0
0
0
0
0
0
0
0
0
0
0
0
0
0
0
0
0
0
0
0
0
0
0
0
0
0
0
0
0
0
0
0
0
0
0
0
0
0
0
0
0
0
0
0
0
0
0
0
0
0
0
0
0
0
0
0
0
0
0
0
0
0
0
0
0
0
0
0
0
0
0
0
0
0
0
0
0
0
0
0
0
0
0
0
0
0
0
0
0
0
0
0
0
0
0
0
0
0
0
0
0
0
0
0
0
0
0
0
0
0
0
0
0
0
0
0
0
0
0
0
0
0
0
0
0
0
0
0
0
0
0
0
0
0
0
0
0
0
0
0
0
0
0
0
0
0
0
0
0
0
0
-7.93561e-173
-1.12902e-173
-1.06644e-175
-1.51922e-176
-1.37385e-178
-1.95983e-179
-1.69656e-181
-2.42371e-182
-2.00827e-184
-2.87343e-185
-2.27876e-187
-3.26567e-188
-2.47852e-190
-3.55788e-191
-2.58409e-193
-3.71585e-194
-2.58252e-196
-3.72024e-197
-2.47402e-199
-3.57052e-200
-2.27189e-202
-3.28502e-203
-1.99986e-205
-2.89729e-206
-1.68747e-208
-2.44958e-209
-1.36489e-211
-1.98534e-212
-1.05824e-214
-1.54247e-215
-7.86478e-218
-1.14878e-218
-5.60278e-221
-8.20127e-222
-3.82583e-224
-5.61238e-225
-2.50406e-227
-3.68148e-228
-1.57091e-230
-2.31471e-231
-9.44557e-234
-1.39494e-234
-5.44333e-237
-8.05717e-238
-3.00638e-240
-4.46029e-241
-1.59128e-243
-2.36634e-244
-8.07153e-247
-1.20312e-247
-3.92328e-250
-5.86179e-251
-1.82728e-253
-2.73668e-254
-8.15456e-257
-1.22423e-257
-3.48667e-260
-5.24718e-261
-1.42827e-263
-2.15469e-264
-5.60492e-267
-8.47639e-268
-2.10701e-270
-3.19432e-271
-7.58697e-274
-1.15308e-274
-2.61667e-277
-3.9868e-278
-8.64329e-281
-1.32021e-281
-2.73419e-284
-4.18679e-285
-8.2826e-288
-1.27151e-288
-2.4025e-291
-3.69762e-292
-6.67252e-295
-1.02957e-295
-1.77424e-298
-2.74467e-299
-4.51651e-302
-7.00482e-303
-1.1006e-305
-1.71137e-306
-2.56722e-309
-4.00221e-310
-5.73152e-313
-8.95846e-314
-1.22468e-316
-1.91918e-317
-2.50442e-320
-3.93276e-321
-4.94066e-324
0
0
0
0
0
0
0
0
0
0
0
0
0
0
0
0
0
0
0
0
0
0
0
0
0
0
0
0
0
0
0
0
0
0
0
0
0
0
0
0
0
0
0
0
0
0
0
0
0
0
0
0
0
0
0
0
0
0
0
0
0
0
0
0
0
0
0
0
0
0
0
0
0
0
0
0
0
0
0
0
0
0
0
0
0
0
0
0
0
0
0
0
0
0
0
0
0
0
0
0
0
0
0
0
0
0
0
0
0
0
0
0
0
0
0
0
0
0
0
0
0
0
0
0
0
0
0
0
0
0
0
0
0
0
0
0
0
0
0
0
0
0
0
0
0
0
0
0
0
0
0
0
0
0
0
0
0
0
0
0
0
0
0
0
0
0
0
0
0
0
0
0
0
0
0
0
0
0
0
0
0
0
0
0
0
0
0
0
0
0
0
0
0
0
0
0
0
0
0
0
0
0
0
0
0
0
0
-5.91291e-173
-1.05155e-173
-7.82986e-176
-1.39427e-176
-9.94151e-179
-1.77274e-179
-1.21031e-181
-2.16135e-182
-1.41285e-184
-2.52691e-185
-1.58143e-187
-2.83296e-188
-1.69733e-190
-3.04569e-191
-1.74685e-193
-3.13999e-194
-1.72394e-196
-3.10438e-197
-1.63147e-199
-2.94329e-200
-1.48056e-202
-2.67613e-203
-1.28848e-205
-2.33347e-206
-1.07531e-208
-1.95129e-209
-8.60595e-212
-1.56485e-212
-6.6051e-215
-1.20352e-215
-4.86156e-218
-8.87702e-219
-3.43153e-221
-6.2793e-222
-2.32281e-224
-4.25974e-225
-1.50782e-227
-2.77127e-228
-9.3862e-231
-1.72898e-231
-5.60306e-234
-1.03445e-234
-3.20734e-237
-5.93505e-238
-1.76051e-240
-3.26529e-241
-9.26586e-244
-1.7226e-244
-4.67597e-247
-8.71355e-248
-2.26243e-250
-4.22602e-251
-1.04947e-253
-1.96503e-254
-4.66698e-257
-8.75959e-258
-1.98949e-260
-3.74322e-261
-8.12936e-264
-1.53329e-264
-3.18383e-267
-6.01991e-268
-1.19506e-270
-2.2652e-271
-4.2987e-274
-8.16841e-275
-1.48169e-277
-2.82259e-278
-4.89346e-281
-9.34543e-282
-1.54836e-284
-2.96449e-285
-4.69338e-288
-9.00891e-289
-1.36276e-291
-2.6225e-292
-3.78992e-295
-7.3121e-296
-1.00944e-298
-1.95259e-299
-2.57473e-302
-4.99327e-303
-6.28841e-306
-1.2227e-306
-1.47051e-309
-2.86669e-310
-3.29212e-313
-6.43461e-314
-7.0554e-317
-1.38263e-317
-1.44712e-320
-2.84582e-321
-4.94066e-324
0
0
0
0
0
0
0
0
0
0
0
0
0
0
0
0
0
0
0
0
0
0
0
0
0
0
0
0
0
0
0
0
0
0
0
0
0
0
0
0
0
0
0
0
0
0
0
0
0
0
0
0
0
0
0
0
0
0
0
0
0
0
0
0
0
0
0
0
0
0
0
0
0
0
0
0
0
0
0
0
0
0
0
0
0
0
0
0
0
0
0
0
0
0
0
0
0
0
0
0
0
0
0
0
0
0
0
0
0
0
0
0
0
0
0
0
0
0
0
0
0
0
0
0
0
0
0
0
0
0
0
0
0
0
0
0
0
0
0
0
0
0
0
0
0
0
0
0
0
0
0
0
0
0
0
0
0
0
0
0
0
0
0
0
0
0
0
0
0
0
0
0
0
0
0
0
0
0
0
0
0
0
0
0
0
0
0
0
0
0
0
0
0
0
0
0
0
0
0
0
0
0
0
0
0
0
0
-6.54253e-173
-1.39623e-173
-8.78527e-176
-1.87728e-176
-1.13035e-178
-2.41873e-179
-1.39342e-181
-2.98602e-182
-1.64564e-184
-3.53195e-185
-1.86187e-187
-4.00248e-188
-2.01792e-190
-4.34522e-191
-2.095e-193
-4.51906e-194
-2.08344e-196
-4.50221e-197
-1.98466e-199
-4.2967e-200
-1.81091e-202
-3.928e-203
-1.58275e-205
-3.43981e-206
-1.32506e-208
-2.88553e-209
-1.06261e-211
-2.31873e-212
-8.16275e-215
-1.7849e-215
-6.00664e-218
-1.31622e-218
-4.23421e-221
-9.29828e-222
-2.85938e-224
-6.29289e-225
-1.84988e-227
-4.08023e-228
-1.14659e-230
-2.53467e-231
-6.80886e-234
-1.5086e-234
-3.87402e-237
-8.60321e-238
-2.11197e-240
-4.70103e-241
-1.10322e-243
-2.46143e-244
-5.5221e-247
-1.23497e-247
-2.64865e-250
-5.93762e-251
-1.2174e-253
-2.73569e-254
-5.36221e-257
-1.20789e-257
-2.26339e-260
-5.11098e-261
-9.15558e-264
-2.07252e-264
-3.54917e-267
-8.05403e-268
-1.3185e-270
-2.99949e-271
-4.69401e-274
-1.07053e-274
-1.60144e-277
-3.66151e-278
-5.23568e-281
-1.20011e-281
-1.64028e-284
-3.76932e-285
-4.92411e-288
-1.13445e-288
-1.4164e-291
-3.2716e-292
-3.90365e-295
-9.03991e-296
-1.03076e-298
-2.39318e-299
-2.60749e-302
-6.06969e-303
-6.31875e-306
-1.47472e-306
-1.46675e-309
-3.43218e-310
-3.26107e-313
-7.65095e-314
-6.94402e-317
-1.63347e-317
-1.41599e-320
-3.33988e-321
-4.94066e-324
0
0
0
0
0
0
0
0
0
0
0
0
0
0
0
0
0
0
0
0
0
0
0
0
0
0
0
0
0
0
0
0
0
0
0
0
0
0
0
0
0
0
0
0
0
0
0
0
0
0
0
0
0
0
0
0
0
0
0
0
0
0
0
0
0
0
0
0
0
0
0
0
0
0
0
0
0
0
0
0
0
0
0
0
0
0
0
0
0
0
0
0
0
0
0
0
0
0
0
0
0
0
0
0
0
0
0
0
0
0
0
0
0
0
0
0
0
0
0
0
0
0
0
0
0
0
0
0
0
0
0
0
0
0
0
0
0
0
0
0
0
0
0
0
0
0
0
0
0
0
0
0
0
0
0
0
0
0
0
0
0
0
0
0
0
0
0
0
0
0
0
0
0
0
0
0
0
0
0
0
0
0
0
0
0
0
0
0
0
0
0
0
0
0
0
0
0
0
0
0
0
0
0
0
0
0
0
-1.91303e-172
-4.76295e-173
-2.58676e-175
-6.44874e-176
-3.34576e-178
-8.35248e-179
-4.13942e-181
-1.0349e-181
-4.89885e-184
-1.22665e-184
-5.54582e-187
-1.39089e-187
-6.00565e-190
-1.50875e-190
-6.22138e-193
-1.56567e-193
-6.16533e-196
-1.55436e-196
-5.84496e-199
-1.47632e-199
-5.30122e-202
-1.34154e-202
-4.59996e-205
-1.16635e-205
-3.81886e-208
-9.70235e-209
-3.03341e-211
-7.72256e-212
-2.30551e-214
-5.88167e-215
-1.67672e-217
-4.28661e-218
-1.1669e-220
-2.98966e-221
-7.77151e-224
-1.99546e-224
-4.95338e-227
-1.27468e-227
-3.02165e-230
-7.79327e-231
-1.76424e-233
-4.56059e-234
-9.85976e-237
-2.55463e-237
-5.27468e-240
-1.36983e-240
-2.70129e-243
-7.03173e-244
-1.3244e-246
-3.45572e-247
-6.21678e-250
-1.62601e-250
-2.79406e-253
-7.32552e-254
-1.20242e-256
-3.1602e-257
-4.95515e-260
-1.3055e-260
-1.95551e-263
-5.16473e-264
-7.39083e-267
-1.95685e-267
-2.67536e-270
-7.10117e-271
-9.27585e-274
-2.46826e-274
-3.08058e-277
-8.21795e-278
-9.80035e-281
-2.62103e-281
-2.9868e-284
-8.00827e-285
-8.72061e-288
-2.3442e-288
-2.43942e-291
-6.57432e-292
-6.53798e-295
-1.76657e-295
-1.67895e-298
-4.5483e-299
-4.13125e-302
-1.12208e-302
-9.74073e-306
-2.65259e-306
-2.20079e-309
-6.00892e-310
-4.76485e-313
-1.3044e-313
-9.88576e-317
-2.71344e-317
-1.96539e-320
-5.41002e-321
-4.94066e-324
0
0
0
0
0
0
0
0
0
0
0
0
0
0
0
0
0
0
0
0
0
0
0
0
0
0
0
0
0
0
0
0
0
0
0
0
0
0
0
0
0
0
0
0
0
0
0
0
0
0
0
0
0
0
0
0
0
0
0
0
0
0
0
0
0
0
0
0
0
0
0
0
0
0
0
0
0
0
0
0
0
0
0
0
0
0
0
0
0
0
0
0
0
0
0
0
0
0
0
0
0
0
0
0
0
0
0
0
0
0
0
0
0
0
0
0
0
0
0
0
0
0
0
0
0
0
0
0
0
0
0
0
0
0
0
0
0
0
0
0
0
0
0
0
0
0
0
0
0
0
0
0
0
0
0
0
0
0
0
0
0
0
0
0
0
0
0
0
0
0
0
0
0
0
0
0
0
0
0
0
0
0
0
0
0
0
0
0
0
0
0
0
0
0
0
0
0
0
0
0
0
0
0
0
0
0
0
-1.36489e-172
-3.8837e-173
-1.83327e-175
-5.2232e-176
-2.35524e-178
-6.71967e-179
-2.89429e-181
-8.26975e-182
-3.40224e-184
-9.7361e-185
-3.82578e-187
-1.09658e-187
-4.11553e-190
-1.18162e-190
-4.23548e-193
-1.21817e-193
-4.17031e-196
-1.20159e-196
-3.92867e-199
-1.13407e-199
-3.54124e-202
-1.02418e-202
-3.05437e-205
-8.85101e-206
-2.52097e-208
-7.31992e-209
-1.99121e-211
-5.79352e-212
-1.5052e-214
-4.38859e-215
-1.089e-217
-3.18184e-218
-7.54127e-221
-2.20816e-221
-4.99887e-224
-1.46692e-224
-3.17204e-227
-9.32905e-228
-1.92697e-230
-5.68001e-231
-1.12075e-233
-3.31111e-234
-6.24134e-237
-1.84816e-237
-3.3282e-240
-9.87826e-241
-1.69956e-243
-5.05624e-244
-8.31179e-247
-2.47865e-247
-3.89329e-250
-1.16379e-250
-1.74678e-253
-5.23414e-254
-7.50752e-257
-2.25506e-257
-3.09118e-260
-9.30783e-261
-1.21944e-263
-3.68089e-264
-4.60933e-267
-1.39479e-267
-1.66953e-270
-5.06462e-271
-5.79512e-274
-1.76241e-274
-1.92788e-277
-5.87785e-278
-6.1472e-281
-1.87896e-281
-1.87883e-284
-5.75745e-285
-5.50479e-288
-1.69121e-288
-1.54619e-291
-4.76255e-292
-4.1637e-295
-1.28581e-295
-1.07501e-298
-3.32841e-299
-2.66118e-302
-8.26099e-303
-6.31661e-306
-1.96597e-306
-1.43763e-309
-4.48622e-310
-3.13737e-313
-9.81622e-314
-6.56506e-317
-2.05952e-317
-1.31718e-320
-4.14521e-321
-4.94066e-324
0
0
0
0
0
0
0
0
0
0
0
0
0
0
0
0
0
0
0
0
0
0
0
0
0
0
0
0
0
0
0
0
0
0
0
0
0
0
0
0
0
0
0
0
0
0
0
0
0
0
0
0
0
0
0
0
0
0
0
0
0
0
0
0
0
0
0
0
0
0
0
0
0
0
0
0
0
0
0
0
0
0
0
0
0
0
0
0
0
0
0
0
0
0
0
0
0
0
0
0
0
0
0
0
0
0
0
0
0
0
0
0
0
0
0
0
0
0
0
0
0
0
0
0
0
0
0
0
0
0
0
0
0
0
0
0
0
0
0
0
0
0
0
0
0
0
0
0
0
0
0
0
0
0
0
0
0
0
0
0
0
0
0
0
0
0
0
0
0
0
0
0
0
0
0
0
0
0
0
0
0
0
0
0
0
0
0
0
0
0
0
0
0
0
0
0
0
0
0
0
0
0
0
0
0
0
0
-1.56484e-172
-5.00927e-173
-2.08365e-175
-6.67872e-176
-2.65366e-178
-8.51755e-179
-3.23262e-181
-1.03911e-181
-3.76688e-184
-1.21272e-184
-4.19905e-187
-1.35403e-187
-4.47804e-190
-1.44643e-190
-4.56898e-193
-1.47837e-193
-4.46038e-196
-1.44583e-196
-4.1665e-199
-1.35308e-199
-3.72433e-202
-1.21179e-202
-3.18588e-205
-1.03863e-205
-2.60824e-208
-8.52013e-209
-2.04378e-211
-6.68989e-212
-1.53292e-214
-5.02818e-215
-1.10063e-217
-3.61787e-218
-7.56548e-221
-2.4922e-221
-4.97895e-224
-1.64374e-224
-3.1375e-227
-1.03811e-227
-1.89328e-230
-6.27842e-231
-1.09413e-233
-3.63658e-234
-6.05605e-237
-2.01749e-237
-3.21081e-240
-1.07213e-240
-1.63075e-243
-5.45807e-244
-7.93502e-247
-2.66214e-247
-3.69948e-250
-1.24412e-250
-1.65275e-253
-5.57153e-254
-7.07599e-257
-2.39117e-257
-2.90351e-260
-9.83578e-261
-1.14197e-263
-3.87802e-264
-4.30547e-267
-1.46573e-267
-1.55617e-270
-5.31098e-271
-5.39265e-274
-1.84505e-274
-1.79179e-277
-6.14596e-278
-5.70877e-281
-1.96312e-281
-1.74421e-284
-6.01319e-285
-5.11067e-288
-1.76645e-288
-1.43616e-291
-4.97672e-292
-3.87069e-295
-1.34478e-295
-1.00057e-298
-3.48529e-299
-2.48079e-302
-8.6639e-303
-5.89952e-306
-2.06575e-306
-1.34563e-309
-4.72418e-310
-2.94379e-313
-1.03622e-313
-6.17659e-317
-2.17994e-317
-1.24307e-320
-4.39718e-321
0
0
0
0
0
0
0
0
0
0
0
0
0
0
0
0
0
0
0
0
0
0
0
0
0
0
0
0
0
0
0
0
0
0
0
0
0
0
0
0
0
0
0
0
0
0
0
0
0
0
0
0
0
0
0
0
0
0
0
0
0
0
0
0
0
0
0
0
0
0
0
0
0
0
0
0
0
0
0
0
0
0
0
0
0
0
0
0
0
0
0
0
0
0
0
0
0
0
0
0
0
0
0
0
0
0
0
0
0
0
0
0
0
0
0
0
0
0
0
0
0
0
0
0
0
0
0
0
0
0
0
0
0
0
0
0
0
0
0
0
0
0
0
0
0
0
0
0
0
0
0
0
0
0
0
0
0
0
0
0
0
0
0
0
0
0
0
0
0
0
0
0
0
0
0
0
0
0
0
0
0
0
0
0
0
0
0
0
0
0
0
0
0
0
0
0
0
0
0
0
0
0
0
0
0
0
0
0
-1.03835e-172
-3.69329e-173
-1.39648e-175
-4.97357e-176
-1.79754e-178
-6.41085e-179
-2.21471e-181
-7.91027e-182
-2.61207e-184
-9.34393e-185
-2.94929e-187
-1.05673e-187
-3.18821e-190
-1.14426e-190
-3.29994e-193
-1.18642e-193
-3.27057e-196
-1.17798e-196
-3.10404e-199
-1.12008e-199
-2.82125e-202
-1.01998e-202
-2.45579e-205
-8.89589e-206
-2.04737e-208
-7.43127e-209
-1.63484e-211
-5.94607e-212
-1.25039e-214
-4.55728e-215
-9.1606e-218
-3.34582e-218
-6.42862e-221
-2.35306e-221
-4.32154e-224
-1.58527e-224
-2.78288e-227
-1.02311e-227
-1.71668e-230
-6.32548e-231
-1.01444e-233
-3.74645e-234
-5.74262e-237
-2.1257e-237
-3.11414e-240
-1.15542e-240
-1.61775e-243
-6.01635e-244
-8.05054e-247
-3.00108e-247
-3.83777e-250
-1.43407e-250
-1.75254e-253
-6.56457e-254
-7.66638e-257
-2.87862e-257
-3.21248e-260
-1.2092e-260
-1.28948e-263
-4.86567e-264
-4.95807e-267
-1.8755e-267
-1.82612e-270
-6.92495e-271
-6.44258e-274
-2.44928e-274
-2.17724e-277
-8.29813e-278
-7.04797e-281
-2.69302e-281
-2.18542e-284
-8.37169e-285
-6.49107e-288
-2.49293e-288
-1.84675e-291
-7.11085e-292
-5.03283e-295
-1.94289e-295
-1.3138e-298
-5.085e-299
-3.28514e-302
-1.27482e-302
-7.86846e-306
-3.06142e-306
-1.80524e-309
-7.0422e-310
-3.96721e-313
-1.55169e-313
-8.35101e-317
-3.27497e-317
-1.68378e-320
-6.62048e-321
-4.94066e-324
0
0
0
0
0
0
0
0
0
0
0
0
0
0
0
0
0
0
0
0
0
0
0
0
0
0
0
0
0
0
0
0
0
0
0
0
0
0
0
0
0
0
0
0
0
0
0
0
0
0
0
0
0
0
0
0
0
0
0
0
0
0
0
0
0
0
0
0
0
0
0
0
0
0
0
0
0
0
0
0
0
0
0
0
0
0
0
0
0
0
0
0
0
0
0
0
0
0
0
0
0
0
0
0
0
0
0
0
0
0
0
0
0
0
0
0
0
0
0
0
0
0
0
0
0
0
0
0
0
0
0
0
0
0
0
0
0
0
0
0
0
0
0
0
0
0
0
0
0
0
0
0
0
0
0
0
0
0
0
0
0
0
0
0
0
0
0
0
0
0
0
0
0
0
0
0
0
0
0
0
0
0
0
0
0
0
0
0
0
0
0
0
0
0
0
0
0
0
0
0
0
0
0
0
0
0
0
-5.25087e-173
-2.05451e-173
-7.14201e-176
-2.79809e-176
-9.29888e-179
-3.64816e-179
-1.15902e-181
-4.55379e-182
-1.38303e-184
-5.4423e-185
-1.58006e-187
-6.22768e-188
-1.72839e-190
-6.82376e-191
-1.81031e-193
-7.15968e-194
-1.81563e-196
-7.19367e-197
-1.74373e-199
-6.92163e-200
-1.60369e-202
-6.37791e-203
-1.41242e-205
-5.62821e-206
-1.19129e-208
-4.75654e-209
-9.62243e-212
-3.84988e-212
-7.44347e-215
-2.9843e-215
-5.51432e-218
-2.21554e-218
-3.91236e-221
-1.57529e-221
-2.65837e-224
-1.07273e-224
-1.72992e-227
-6.99622e-228
-1.07813e-230
-4.37003e-231
-6.43501e-234
-2.61427e-234
-3.67844e-237
-1.49784e-237
-2.01379e-240
-8.21913e-241
-1.05585e-243
-4.31951e-244
-5.30189e-247
-2.17417e-247
-2.54977e-250
-1.0481e-250
-1.1744e-253
-4.8391e-254
-5.18063e-257
-2.13986e-257
-2.18878e-260
-9.06292e-261
-8.8569e-264
-3.67636e-264
-3.43264e-267
-1.42838e-267
-1.27423e-270
-5.31553e-271
-4.53054e-274
-1.89469e-274
-1.54291e-277
-6.46883e-278
-5.03303e-281
-2.11551e-281
-1.57262e-284
-6.62695e-285
-4.7069e-288
-1.98856e-288
-1.34948e-291
-5.71597e-292
-3.70618e-295
-1.57389e-295
-9.75038e-299
-4.15141e-299
-2.45729e-302
-1.04897e-302
-5.93242e-306
-2.53908e-306
-1.37199e-309
-5.88758e-310
-3.03958e-313
-1.30781e-313
-6.45079e-317
-2.78287e-317
-1.31125e-320
-5.67187e-321
-4.94066e-324
0
0
0
0
0
0
0
0
0
0
0
0
0
0
0
0
0
0
0
0
0
0
0
0
0
0
0
0
0
0
0
0
0
0
0
0
0
0
0
0
0
0
0
0
0
0
0
0
0
0
0
0
0
0
0
0
0
0
0
0
0
0
0
0
0
0
0
0
0
0
0
0
0
0
0
0
0
0
0
0
0
0
0
0
0
0
0
0
0
0
0
0
0
0
0
0
0
0
0
0
0
0
0
0
0
0
0
0
0
0
0
0
0
0
0
0
0
0
0
0
0
0
0
0
0
0
0
0
0
0
0
0
0
0
0
0
0
0
0
0
0
0
0
0
0
0
0
0
0
0
0
0
0
0
0
0
0
0
0
0
0
0
0
0
0
0
0
0
0
0
0
0
0
0
0
0
0
0
0
0
0
0
0
0
0
0
0
0
0
0
0
0
0
0
0
0
0
0
0
0
0
0
0
0
0
0
0
-2.15535e-173
-9.20027e-174
-2.95835e-176
-1.26443e-176
-3.88742e-179
-1.66384e-179
-4.89087e-182
-2.0964e-182
-5.8919e-185
-2.52937e-185
-6.79665e-188
-2.9225e-188
-7.5081e-191
-3.23385e-191
-7.94298e-194
-3.42712e-194
-8.04776e-197
-3.47859e-197
-7.80948e-200
-3.38187e-200
-7.25841e-203
-3.14923e-203
-6.46169e-206
-2.80905e-206
-5.50996e-209
-2.40011e-209
-4.50048e-212
-1.96439e-212
-3.52117e-215
-1.54014e-215
-2.639e-218
-1.15673e-218
-1.89462e-221
-8.32246e-222
-1.30298e-224
-5.73614e-225
-8.58411e-228
-3.78739e-228
-5.41743e-231
-2.3956e-231
-3.27518e-234
-1.45159e-234
-1.89679e-237
-8.42616e-238
-1.05232e-240
-4.68565e-241
-5.59269e-244
-2.4961e-244
-2.8473e-247
-1.27381e-247
-1.38862e-250
-6.22719e-251
-6.48733e-254
-2.91624e-254
-2.90321e-257
-1.30825e-257
-1.24455e-260
-5.62195e-261
-5.11048e-264
-2.31424e-264
-2.01011e-267
-9.1252e-268
-7.57313e-271
-3.44653e-271
-2.73288e-274
-1.24686e-274
-9.44587e-278
-4.32052e-278
-3.12701e-281
-1.43392e-281
-9.91447e-285
-4.55794e-285
-3.01057e-288
-1.3876e-288
-8.75489e-292
-4.04561e-292
-2.43815e-295
-1.12958e-295
-6.50226e-299
-3.02029e-299
-1.66051e-302
-7.7332e-303
-4.06049e-306
-1.89598e-306
-9.50726e-310
-4.45093e-310
-2.13135e-313
-1.00045e-313
-4.57465e-317
-2.15302e-317
-9.40207e-321
-4.43671e-321
0
0
0
0
0
0
0
0
0
0
0
0
0
0
0
0
0
0
0
0
0
0
0
0
0
0
0
0
0
0
0
0
0
0
0
0
0
0
0
0
0
0
0
0
0
0
0
0
0
0
0
0
0
0
0
0
0
0
0
0
0
0
0
0
0
0
0
0
0
0
0
0
0
0
0
0
0
0
0
0
0
0
0
0
0
0
0
0
0
0
0
0
0
0
0
0
0
0
0
0
0
0
0
0
0
0
0
0
0
0
0
0
0
0
0
0
0
0
0
0
0
0
0
0
0
0
0
0
0
0
0
0
0
0
0
0
0
0
0
0
0
0
0
0
0
0
0
0
0
0
0
0
0
0
0
0
0
0
0
0
0
0
0
0
0
0
0
0
0
0
0
0
0
0
0
0
0
0
0
0
0
0
0
0
0
0
0
0
0
0
0
0
0
0
0
0
0
0
0
0
0
0
0
0
0
0
0
0
-7.62847e-174
-3.52777e-174
-1.05692e-176
-4.89407e-177
-1.40233e-179
-6.50254e-180
-1.78198e-182
-8.27506e-183
-2.16881e-185
-1.0087e-185
-2.52837e-188
-1.17783e-188
-2.82345e-191
-1.31751e-191
-3.02038e-194
-1.41186e-194
-3.0953e-197
-1.44949e-197
-3.0389e-200
-1.42572e-200
-2.85834e-203
-1.34357e-203
-2.57575e-206
-1.21311e-206
-2.22379e-209
-1.04944e-209
-1.83943e-212
-8.69835e-213
-1.45773e-215
-6.90771e-216
-1.1068e-218
-5.25592e-219
-8.05121e-222
-3.83156e-222
-5.61103e-225
-2.67613e-225
-3.74635e-228
-1.79076e-228
-2.39634e-231
-1.14803e-231
-1.46843e-234
-7.05093e-235
-8.61999e-238
-4.14859e-238
-4.84728e-241
-2.33831e-241
-2.61103e-244
-1.26252e-244
-1.3472e-247
-6.5296e-248
-6.65793e-251
-3.23469e-251
-3.1515e-254
-1.53483e-254
-1.42872e-257
-6.97501e-258
-6.20311e-261
-3.03578e-261
-2.57919e-264
-1.26536e-264
-1.02695e-267
-5.05079e-268
-3.91552e-271
-1.93055e-271
-1.42948e-274
-7.06582e-275
-4.99689e-278
-2.47617e-278
-1.67237e-281
-8.30832e-282
-5.35865e-285
-2.66895e-285
-1.6438e-288
-8.20826e-289
-4.82723e-292
-2.41667e-292
-1.357e-295
-6.8112e-296
-3.65158e-299
-1.8376e-299
-9.40546e-303
-4.74552e-303
-2.3188e-306
-1.17302e-306
-5.47163e-310
-2.77523e-310
-1.23573e-313
-6.28423e-314
-2.67099e-317
-1.36191e-317
-5.52365e-321
-2.82606e-321
0
0
0
0
0
0
0
0
0
0
0
0
0
0
0
0
0
0
0
0
0
0
0
0
0
0
0
0
0
0
0
0
0
0
0
0
0
0
0
0
0
0
0
0
0
0
0
0
0
0
0
0
0
0
0
0
0
0
0
0
0
0
0
0
0
0
0
0
0
0
0
0
0
0
0
0
0
0
0
0
0
0
0
0
0
0
0
0
0
0
0
0
0
0
0
0
0
0
0
0
0
0
0
0
0
0
0
0
0
0
0
0
0
0
0
0
0
0
0
0
0
0
0
0
0
0
0
0
0
0
0
0
0
0
0
0
0
0
0
0
0
0
0
0
0
0
0
0
0
0
0
0
0
0
0
0
0
0
0
0
0
0
0
0
0
0
0
0
0
0
0
0
0
0
0
0
0
0
0
0
0
0
0
0
0
0
0
0
0
0
0
0
0
0
0
0
0
0
0
0
0
0
0
0
0
0
0
0
-2.42471e-174
-1.20763e-174
-3.39162e-177
-1.69139e-177
-4.5441e-180
-2.26928e-180
-5.83188e-183
-2.91667e-183
-7.16985e-186
-3.59136e-186
-8.4444e-189
-4.23662e-189
-9.52792e-192
-4.78828e-192
-1.02993e-194
-5.18497e-195
-1.0666e-197
-5.37927e-198
-1.05824e-200
-5.34701e-201
-1.00589e-203
-5.09222e-204
-9.16012e-207
-4.64631e-207
-7.99151e-210
-4.06167e-210
-6.67921e-213
-3.40164e-213
-5.34786e-216
-2.72928e-216
-4.10186e-219
-2.09783e-219
-3.0138e-222
-1.54468e-222
-2.12112e-225
-1.08954e-225
-1.42994e-228
-7.36137e-229
-9.23328e-232
-4.76402e-232
-5.71034e-235
-2.95303e-235
-3.38234e-238
-1.75317e-238
-1.91869e-241
-9.96829e-242
-1.04233e-244
-5.42802e-245
-5.4225e-248
-2.83052e-248
-2.70129e-251
-1.41344e-251
-1.28855e-254
-6.75859e-255
-5.88538e-258
-3.09445e-258
-2.57377e-261
-1.35657e-261
-1.07764e-264
-5.69402e-265
-4.31988e-268
-2.2882e-268
-1.65786e-271
-8.80345e-272
-6.09096e-275
-3.24252e-275
-2.14228e-278
-1.14332e-278
-7.21283e-282
-3.85922e-282
-2.32468e-285
-1.24699e-285
-7.172e-289
-3.85705e-289
-2.11801e-292
-1.14199e-292
-5.98711e-296
-3.23649e-296
-1.61996e-299
-8.77987e-300
-4.19546e-303
-2.2798e-303
-1.04002e-306
-5.66627e-307
-2.46767e-310
-1.34798e-310
-5.60417e-314
-3.0694e-314
-1.21818e-317
-6.68967e-318
-2.53456e-321
-1.39327e-321
0
0
0
0
0
0
0
0
0
0
0
0
0
0
0
0
0
0
0
0
0
0
0
0
0
0
0
0
0
0
0
0
0
0
0
0
0
0
0
0
0
0
0
0
0
0
0
0
0
0
0
0
0
0
0
0
0
0
0
0
0
0
0
0
0
0
0
0
0
0
0
0
0
0
0
0
0
0
0
0
0
0
0
0
0
0
0
0
0
0
0
0
0
0
0
0
0
0
0
0
0
0
0
0
0
0
0
0
0
0
0
0
0
0
0
0
0
0
0
0
0
0
0
0
0
0
0
0
0
0
0
0
0
0
0
0
0
0
0
0
0
0
0
0
0
0
0
0
0
0
0
0
0
0
0
0
0
0
0
0
0
0
0
0
0
0
0
0
0
0
0
0
0
0
0
0
0
0
0
0
0
0
0
0
0
0
0
0
0
0
0
0
0
0
0
0
0
0
0
0
0
0
0
0
0
0
0
0
-8.16948e-175
-2.32517e-175
-1.1536e-177
-3.28762e-178
-1.56026e-180
-4.45274e-181
-2.02131e-183
-5.77698e-184
-2.50824e-186
-7.17973e-187
-2.98134e-189
-8.54775e-190
-3.39438e-192
-9.74836e-193
-3.70182e-195
-1.06499e-195
-3.86699e-198
-1.11451e-198
-3.86924e-201
-1.11723e-201
-3.70824e-204
-1.07279e-204
-3.40401e-207
-9.86705e-208
-2.99284e-210
-8.6926e-211
-2.52021e-213
-7.33484e-214
-2.03254e-216
-5.92786e-217
-1.56992e-219
-4.58837e-220
-1.1613e-222
-3.40143e-223
-8.2267e-226
-2.41487e-226
-5.58099e-229
-1.64188e-229
-3.62568e-232
-1.06905e-232
-2.25555e-235
-6.66577e-236
-1.34366e-238
-3.98004e-239
-7.66469e-242
-2.27564e-242
-4.18657e-245
-1.24591e-245
-2.18965e-248
-6.53182e-249
-1.09658e-251
-3.27898e-252
-5.25835e-255
-1.57614e-255
-2.41435e-258
-7.25442e-259
-1.06143e-261
-3.19711e-262
-4.46812e-265
-1.34916e-265
-1.80095e-268
-5.45149e-269
-6.95059e-272
-2.10921e-272
-2.56857e-275
-7.81415e-276
-9.08904e-279
-2.77207e-279
-3.07969e-282
-9.41661e-283
-9.99229e-286
-3.06307e-286
-3.10458e-289
-9.54139e-290
-9.23699e-293
-2.84615e-293
-2.63183e-296
-8.13034e-297
-7.18118e-300
-2.22421e-300
-1.87653e-303
-5.82732e-304
-4.69625e-307
-1.46218e-307
-1.12562e-310
-3.51384e-311
-2.58396e-314
-8.08766e-315
-5.68127e-318
-1.78292e-318
-1.19564e-321
-3.7549e-322
0
0
0
0
0
0
0
0
0
0
0
0
0
0
0
0
0
0
0
0
0
0
0
0
0
0
0
0
0
0
0
0
0
0
0
0
0
0
0
0
0
0
0
0
0
0
0
0
0
0
0
0
0
0
0
0
0
0
0
0
0
0
0
0
0
0
0
0
0
0
0
0
0
0
0
0
0
0
0
0
0
0
0
0
0
0
0
0
0
0
0
0
0
0
0
0
0
0
0
0
0
0
0
0
0
0
0
0
0
0
0
0
0
0
0
0
0
0
0
0
0
0
0
0
0
0
0
0
0
0
0
0
0
0
0
0
0
0
0
0
0
0
0
0
0
0
0
0
0
0
0
0
0
0
0
0
0
0
0
0
0
0
0
0
0
0
0
0
0
0
0
0
0
0
0
0
0
0
0
0
0
0
0
0
0
0
0
0
0
0
0
0
0
0
0
0
0
0
0
0
0
0
0
0
0
0
0
0
-1.3434e-175
-4.30199e-176
-1.90982e-178
-6.12384e-179
-2.59998e-181
-8.34845e-182
-3.38958e-184
-1.08998e-184
-4.23175e-187
-1.3629e-187
-5.05938e-190
-1.63209e-190
-5.79265e-193
-1.87178e-193
-6.35125e-196
-2.05587e-196
-6.66871e-199
-2.16253e-199
-6.70539e-202
-2.17846e-202
-6.45659e-205
-2.10164e-205
-5.95357e-208
-1.9417e-208
-5.25709e-211
-1.71799e-211
-4.44535e-214
-1.45569e-214
-3.59964e-217
-1.18121e-217
-2.79129e-220
-9.17899e-221
-2.07274e-223
-6.83081e-224
-1.47395e-226
-4.86811e-227
-1.00374e-229
-3.32248e-230
-6.54584e-233
-2.17162e-233
-4.08811e-236
-1.35935e-236
-2.44512e-239
-8.14908e-240
-1.40058e-242
-4.67873e-243
-7.68349e-246
-2.57276e-246
-4.03704e-249
-1.35498e-249
-2.03159e-252
-6.83513e-253
-9.79251e-256
-3.30257e-256
-4.52119e-259
-1.52851e-259
-1.99955e-262
-6.77657e-263
-8.47129e-266
-2.87805e-266
-3.43817e-269
-1.17099e-269
-1.33686e-272
-4.56454e-273
-4.98018e-276
-1.7047e-276
-1.77758e-279
-6.1e-280
-6.07937e-283
-2.09151e-283
-1.99229e-286
-6.87163e-287
-6.25653e-290
-2.1635e-290
-1.88286e-293
-6.52769e-294
-5.43025e-297
-1.88749e-297
-1.50091e-300
-5.23056e-301
-3.97586e-304
-1.38918e-304
-1.00939e-307
-3.53608e-308
-2.45604e-311
-8.62664e-312
-5.72747e-315
-2.01705e-315
-1.28007e-318
-4.52001e-319
-2.71736e-322
-9.88131e-323
0
0
0
0
0
0
0
0
0
0
0
0
0
0
0
0
0
0
0
0
0
0
0
0
0
0
0
0
0
0
0
0
0
0
0
0
0
0
0
0
0
0
0
0
0
0
0
0
0
0
0
0
0
0
0
0
0
0
0
0
0
0
0
0
0
0
0
0
0
0
0
0
0
0
0
0
0
0
0
0
0
0
0
0
0
0
0
0
0
0
0
0
0
0
0
0
0
0
0
0
0
0
0
0
0
0
0
0
0
0
0
0
0
0
0
0
0
0
0
0
0
0
0
0
0
0
0
0
0
0
0
0
0
0
0
0
0
0
0
0
0
0
0
0
0
0
0
0
0
0
0
0
0
0
0
0
0
0
0
0
0
0
0
0
0
0
0
0
0
0
0
0
0
0
0
0
0
0
0
0
0
0
0
0
0
0
0
0
0
0
0
0
0
0
0
0
0
0
0
0
0
0
0
0
0
0
0
0
-2.20056e-176
-7.83092e-177
-3.13484e-179
-1.11702e-179
-4.27808e-182
-1.52651e-182
-5.59215e-185
-1.99833e-185
-7.00102e-188
-2.50566e-188
-8.39401e-191
-3.00906e-191
-9.63792e-194
-3.4608e-194
-1.05972e-196
-3.81193e-197
-1.11582e-199
-4.02095e-200
-1.12509e-202
-4.06189e-203
-1.08636e-205
-3.92958e-206
-1.00454e-208
-3.64072e-209
-8.89552e-212
-3.23045e-212
-7.54403e-215
-2.74526e-215
-6.12742e-218
-2.23441e-218
-4.76663e-221
-1.74188e-221
-3.55159e-224
-1.30067e-224
-2.53475e-227
-9.30315e-228
-1.73288e-230
-6.37425e-231
-1.13488e-233
-4.18396e-234
-7.12041e-237
-2.63106e-237
-4.28016e-240
-1.58521e-240
-2.46516e-243
-9.15132e-244
-1.36047e-246
-5.06231e-247
-7.19488e-250
-2.68358e-250
-3.64652e-253
-1.36335e-253
-1.77127e-256
-6.63838e-257
-8.24654e-260
-3.09818e-260
-3.6802e-263
-1.38602e-263
-1.57438e-266
-5.94401e-267
-6.45675e-270
-2.44378e-270
-2.53868e-273
-9.63255e-274
-9.56999e-277
-3.64029e-277
-3.45893e-280
-1.31906e-280
-1.1987e-283
-4.58285e-284
-3.98317e-287
-1.52671e-287
-1.2691e-290
-4.87687e-291
-3.87713e-294
-1.49374e-294
-1.1357e-297
-4.38684e-298
-3.18962e-301
-1.23525e-301
-8.58853e-305
-3.33479e-305
-2.21704e-308
-8.63102e-309
-5.4862e-312
-2.14142e-312
-1.30129e-315
-5.09273e-316
-2.95827e-319
-1.16081e-319
-6.42285e-323
-2.47033e-323
0
0
0
0
0
0
0
0
0
0
0
0
0
0
0
0
0
0
0
0
0
0
0
0
0
0
0
0
0
0
0
0
0
0
0
0
0
0
0
0
0
0
0
0
0
0
0
0
0
0
0
0
0
0
0
0
0
0
0
0
0
0
0
0
0
0
0
0
0
0
0
0
0
0
0
0
0
0
0
0
0
0
0
0
0
0
0
0
0
0
0
0
0
0
0
0
0
0
0
0
0
0
0
0
0
0
0
0
0
0
0
0
0
0
0
0
0
0
0
0
0
0
0
0
0
0
0
0
0
0
0
0
0
0
0
0
0
0
0
0
0
0
0
0
0
0
0
0
0
0
0
0
0
0
0
0
0
0
0
0
0
0
0
0
0
0
0
0
0
0
0
0
0
0
0
0
0
0
0
0
0
0
0
0
0
0
0
0
0
0
0
0
0
0
0
0
0
0
0
0
0
0
0
0
0
0
0
0
-3.59921e-177
-1.40909e-177
-5.1145e-180
-2.00494e-180
-6.97192e-183
-2.73687e-183
-9.11219e-186
-3.58231e-186
-1.14144e-188
-4.49433e-189
-1.37003e-191
-5.40312e-192
-1.57537e-194
-6.22344e-195