/*--------------------------------*- C++ -*----------------------------------*\
| =========                 |                                                 |
| \\      /  F ield         | OpenFOAM: The Open Source CFD Toolbox           |
|  \\    /   O peration     | Version:  v1912                                 |
|   \\  /    A nd           | Website:  www.openfoam.com                      |
|    \\/     M anipulation  |                                                 |
\*---------------------------------------------------------------------------*/
FoamFile
{
    version     2.0;
    format      ascii;
    class       volScalarField;
    location    "10";
    object      alpha.water;
}
// * * * * * * * * * * * * * * * * * * * * * * * * * * * * * * * * * * * * * //

dimensions      [0 0 0 0 0 0 0];


internalField   nonuniform List<scalar> 
14268
(
-1.09502e-169
-1.40751e-172
-1.73132e-175
-2.03832e-178
-2.29728e-181
-2.4792e-184
-2.56262e-187
-2.53794e-190
-2.40918e-193
-2.19302e-196
-1.91523e-199
-1.60563e-202
-1.29294e-205
-1.00068e-208
-7.44871e-212
-5.33606e-215
-3.68116e-218
-2.44691e-221
-1.56793e-224
-9.68876e-228
-5.77477e-231
-3.32012e-234
-1.84114e-237
-9.8452e-241
-5.07464e-244
-2.52009e-247
-1.20507e-250
-5.54531e-254
-2.45403e-257
-1.04376e-260
-4.26399e-264
-1.67217e-267
-6.29162e-271
-2.27013e-274
-7.85156e-278
-2.60204e-281
-8.25997e-285
-2.51086e-288
-7.30693e-292
-2.03527e-295
-5.42499e-299
-1.38356e-302
-3.37562e-306
-7.87802e-310
-1.75849e-313
-3.75392e-317
-7.58885e-321
0
0
0
0
0
0
0
0
0
0
0
0
0
0
0
0
0
0
0
0
0
0
0
0
0
0
0
0
0
0
0
0
0
0
0
0
0
0
0
0
0
0
0
0
0
0
0
0
0
0
0
0
0
0
0
0
0
0
0
0
0
0
0
0
0
0
0
0
0
0
0
0
0
0
0
0
0
0
0
0
0
0
0
0
0
0
0
0
0
0
0
0
0
0
0
0
0
0
0
0
0
0
0
-1.79437e-169
-2.47973e-172
-3.28225e-175
-4.16087e-178
-5.05144e-181
-5.87285e-184
-6.5384e-187
-6.97066e-190
-7.11626e-193
-6.95668e-196
-6.51215e-199
-5.83739e-202
-5.01059e-205
-4.11848e-208
-3.24167e-211
-2.44337e-214
-1.76361e-217
-1.21903e-220
-8.06922e-224
-5.11515e-227
-3.10528e-230
-1.80535e-233
-1.00519e-236
-5.35993e-240
-2.73716e-243
-1.33866e-246
-6.27009e-250
-2.8126e-253
-1.2083e-256
-4.97128e-260
-1.95881e-263
-7.39163e-267
-2.67125e-270
-9.24508e-274
-3.06429e-277
-9.72684e-281
-2.95691e-284
-8.6086e-288
-2.40027e-291
-6.40957e-295
-1.63927e-298
-4.01547e-302
-9.42119e-306
-2.11729e-309
-4.55807e-313
-9.40026e-317
-1.85571e-320
0
0
0
0
0
0
0
0
0
0
0
0
0
0
0
0
0
0
0
0
0
0
0
0
0
0
0
0
0
0
0
0
0
0
0
0
0
0
0
0
0
0
0
0
0
0
0
0
0
0
0
0
0
0
0
0
0
0
0
0
0
0
0
0
0
0
0
0
0
0
0
0
0
0
0
0
0
0
0
0
0
0
0
0
0
0
0
0
0
0
0
0
0
0
0
0
0
0
0
0
0
0
0
-2.2795e-168
-3.15667e-171
-4.18543e-174
-5.31322e-177
-6.45759e-180
-7.51396e-183
-8.37038e-186
-8.92672e-189
-9.11391e-192
-8.90795e-195
-8.33505e-198
-7.46609e-201
-6.4022e-204
-5.25553e-207
-4.13003e-210
-3.10699e-213
-2.23758e-216
-1.54266e-219
-1.01818e-222
-6.43335e-226
-3.89155e-229
-2.25365e-232
-1.24952e-235
-6.6329e-239
-3.3712e-242
-1.6406e-245
-7.64507e-249
-3.41149e-252
-1.45786e-255
-5.96665e-259
-2.33893e-262
-8.78242e-266
-3.15906e-269
-1.08865e-272
-3.59462e-276
-1.13734e-279
-3.44863e-283
-1.00223e-286
-2.7919e-290
-7.45562e-294
-1.9088e-297
-4.6856e-301
-1.10289e-304
-2.48935e-308
-5.38826e-312
-1.11849e-315
-2.22586e-319
0
0
0
0
0
0
0
0
0
0
0
0
0
0
0
0
0
0
0
0
0
0
0
0
0
0
0
0
0
0
0
0
0
0
0
0
0
0
0
0
0
0
0
0
0
0
0
0
0
0
0
0
0
0
0
0
0
0
0
0
0
0
0
0
0
0
0
0
0
0
0
0
0
0
0
0
0
0
0
0
0
0
0
0
0
0
0
0
0
0
0
0
0
0
0
0
0
0
0
0
0
0
0
-2.17541e-168
-3.02824e-171
-4.04113e-174
-5.16975e-177
-6.3399e-180
-7.45316e-183
-8.39929e-186
-9.07384e-189
-9.39696e-192
-9.32898e-195
-8.87839e-198
-8.10009e-201
-7.08436e-204
-5.93974e-207
-4.77406e-210
-3.6784e-213
-2.71692e-216
-1.92367e-219
-1.30562e-222
-8.4942e-226
-5.29706e-229
-3.16622e-232
-1.81395e-235
-9.96027e-239
-5.24153e-242
-2.64342e-245
-1.27754e-248
-5.91643e-252
-2.62541e-255
-1.11625e-258
-4.54704e-262
-1.77447e-265
-6.6337e-269
-2.37553e-272
-8.14806e-276
-2.67675e-279
-8.42152e-283
-2.53731e-286
-7.32024e-290
-2.02217e-293
-5.34832e-297
-1.35424e-300
-3.28263e-304
-7.61667e-308
-1.69159e-311
-3.59568e-315
-7.31494e-319
-7.41098e-323
0
0
0
0
0
0
0
0
0
0
0
0
0
0
0
0
0
0
0
0
0
0
0
0
0
0
0
0
0
0
0
0
0
0
0
0
0
0
0
0
0
0
0
0
0
0
0
0
0
0
0
0
0
0
0
0
0
0
0
0
0
0
0
0
0
0
0
0
0
0
0
0
0
0
0
0
0
0
0
0
0
0
0
0
0
0
0
0
0
0
0
0
0
0
0
0
0
0
0
0
0
0
-1.62229e-168
-2.22523e-171
-2.92675e-174
-3.69118e-177
-4.46395e-180
-5.17671e-183
-5.75675e-186
-6.13899e-189
-6.27802e-192
-6.1569e-195
-5.7906e-198
-5.22293e-201
-4.51795e-204
-3.74808e-207
-2.98209e-210
-2.27552e-213
-1.66528e-216
-1.16881e-219
-7.86755e-223
-5.07896e-226
-3.14442e-229
-1.86692e-232
-1.06296e-235
-5.80365e-239
-3.0385e-242
-1.52536e-245
-7.34202e-249
-3.38817e-252
-1.49897e-255
-6.35726e-259
-2.58443e-262
-1.00703e-265
-3.76073e-269
-1.3459e-272
-4.61564e-276
-1.51666e-279
-4.7747e-283
-1.44e-286
-4.16008e-290
-1.15112e-293
-3.05058e-297
-7.74184e-301
-1.88134e-304
-4.37737e-308
-9.75082e-312
-2.07928e-315
-4.24328e-319
-1.4822e-323
0
0
0
0
0
0
0
0
0
0
0
0
0
0
0
0
0
0
0
0
0
0
0
0
0
0
0
0
0
0
0
0
0
0
0
0
0
0
0
0
0
0
0
0
0
0
0
0
0
0
0
0
0
0
0
0
0
0
0
0
0
0
0
0
0
0
0
0
0
0
0
0
0
0
0
0
0
0
0
0
0
0
0
0
0
0
0
0
0
0
0
0
0
0
0
0
0
0
0
0
0
0
-1.7945e-168
-2.49605e-171
-3.32685e-174
-4.24864e-177
-5.19845e-180
-6.09374e-183
-6.84322e-186
-7.3619e-189
-7.58685e-192
-7.4898e-195
-7.08293e-198
-6.41638e-201
-5.56809e-204
-4.62878e-207
-3.68622e-210
-2.8123e-213
-2.0555e-216
-1.43935e-219
-9.65653e-223
-6.20724e-226
-3.82309e-229
-2.25624e-232
-1.27593e-235
-6.91441e-239
-3.59074e-242
-1.78701e-245
-8.52309e-249
-3.89585e-252
-1.70667e-255
-7.16551e-259
-2.88334e-262
-1.11198e-265
-4.11003e-269
-1.45591e-272
-4.94267e-276
-1.60808e-279
-5.01374e-283
-1.49798e-286
-4.28859e-290
-1.17644e-293
-3.09201e-297
-7.78574e-301
-1.87809e-304
-4.33968e-308
-9.60477e-312
-2.03596e-315
-4.13271e-319
-1.4822e-323
0
0
0
0
0
0
0
0
0
0
0
0
0
0
0
0
0
0
0
0
0
0
0
0
0
0
0
0
0
0
0
0
0
0
0
0
0
0
0
0
0
0
0
0
0
0
0
0
0
0
0
0
0
0
0
0
0
0
0
0
0
0
0
0
0
0
0
0
0
0
0
0
0
0
0
0
0
0
0
0
0
0
0
0
0
0
0
0
0
0
0
0
0
0
0
0
0
0
0
0
0
0
-5.24636e-168
-7.34888e-171
-9.84714e-174
-1.2622e-176
-1.54767e-179
-1.81539e-182
-2.03709e-185
-2.18679e-188
-2.24583e-191
-2.20662e-194
-2.07432e-197
-1.86569e-200
-1.60558e-203
-1.32213e-206
-1.0418e-209
-7.85567e-213
-5.66883e-216
-3.91504e-219
-2.58783e-222
-1.63725e-225
-9.91511e-229
-5.74792e-232
-3.18991e-235
-1.69483e-238
-8.62149e-242
-4.19925e-245
-1.95849e-248
-8.74698e-252
-3.74118e-255
-1.5325e-258
-6.01255e-262
-2.25949e-265
-8.13357e-269
-2.80477e-272
-9.26577e-276
-2.93264e-279
-8.89309e-283
-2.58395e-286
-7.19401e-290
-1.91926e-293
-4.90669e-297
-1.20212e-300
-2.82245e-304
-6.35079e-308
-1.3695e-311
-2.83027e-315
-5.60483e-319
-4.44659e-323
0
0
0
0
0
0
0
0
0
0
0
0
0
0
0
0
0
0
0
0
0
0
0
0
0
0
0
0
0
0
0
0
0
0
0
0
0
0
0
0
0
0
0
0
0
0
0
0
0
0
0
0
0
0
0
0
0
0
0
0
0
0
0
0
0
0
0
0
0
0
0
0
0
0
0
0
0
0
0
0
0
0
0
0
0
0
0
0
0
0
0
0
0
0
0
0
0
0
0
0
0
0
-3.74465e-168
-5.21037e-171
-6.93473e-174
-8.82899e-177
-1.0753e-179
-1.25287e-182
-1.39655e-185
-1.48938e-188
-1.51974e-191
-1.48379e-194
-1.38623e-197
-1.23932e-200
-1.06033e-203
-8.68222e-207
-6.80427e-210
-5.10409e-213
-3.66496e-216
-2.5192e-219
-1.65779e-222
-1.04447e-225
-6.30084e-229
-3.63969e-232
-2.01339e-235
-1.06665e-238
-5.41232e-242
-2.63053e-245
-1.22472e-248
-5.46265e-252
-2.3344e-255
-9.55849e-259
-3.75045e-262
-1.41024e-265
-5.08219e-269
-1.75548e-272
-5.81242e-276
-1.84489e-279
-5.61388e-283
-1.63782e-286
-4.58141e-290
-1.22882e-293
-3.16045e-297
-7.79462e-301
-1.84346e-304
-4.18093e-308
-9.09298e-312
-1.89639e-315
-3.79225e-319
-4.94066e-324
0
0
0
0
0
0
0
0
0
0
0
0
0
0
0
0
0
0
0
0
0
0
0
0
0
0
0
0
0
0
0
0
0
0
0
0
0
0
0
0
0
0
0
0
0
0
0
0
0
0
0
0
0
0
0
0
0
0
0
0
0
0
0
0
0
0
0
0
0
0
0
0
0
0
0
0
0
0
0
0
0
0
0
0
0
0
0
0
0
0
0
0
0
0
0
0
0
0
0
0
0
0
-4.29514e-168
-5.92469e-171
-7.81697e-174
-9.86562e-177
-1.1911e-179
-1.37575e-182
-1.52028e-185
-1.60741e-188
-1.62621e-191
-1.57436e-194
-1.45859e-197
-1.29329e-200
-1.09755e-203
-8.9156e-207
-6.9328e-210
-5.16098e-213
-3.67839e-216
-2.51028e-219
-1.64046e-222
-1.02666e-225
-6.15376e-229
-3.53309e-232
-1.94315e-235
-1.02386e-238
-5.16891e-242
-2.50047e-245
-1.15919e-248
-5.15033e-252
-2.19334e-255
-8.95386e-259
-3.50416e-262
-1.31482e-265
-4.73033e-269
-1.63191e-272
-5.39893e-276
-1.713e-279
-5.21278e-283
-1.52148e-286
-4.25953e-290
-1.14386e-293
-2.94648e-297
-7.28051e-301
-1.72561e-304
-3.92317e-308
-8.55528e-312
-1.78943e-315
-3.58934e-319
0
0
0
0
0
0
0
0
0
0
0
0
0
0
0
0
0
0
0
0
0
0
0
0
0
0
0
0
0
0
0
0
0
0
0
0
0
0
0
0
0
0
0
0
0
0
0
0
0
0
0
0
0
0
0
0
0
0
0
0
0
0
0
0
0
0
0
0
0
0
0
0
0
0
0
0
0
0
0
0
0
0
0
0
0
0
0
0
0
0
0
0
0
0
0
0
0
0
0
0
0
0
0
-2.84952e-168
-3.96993e-171
-5.29383e-174
-6.75726e-177
-8.25703e-180
-9.65971e-183
-1.082e-185
-1.16049e-188
-1.19191e-191
-1.17235e-194
-1.10435e-197
-9.96378e-201
-8.61043e-204
-7.12739e-207
-5.65142e-210
-4.29262e-213
-3.12346e-216
-2.17725e-219
-1.45395e-222
-9.30174e-226
-5.70107e-229
-3.34755e-232
-1.88313e-235
-1.01487e-238
-5.23988e-242
-2.59183e-245
-1.22819e-248
-5.57563e-252
-2.42487e-255
-1.01029e-258
-4.03239e-262
-1.54183e-265
-5.64762e-269
-1.98175e-272
-6.66165e-276
-2.1452e-279
-6.61765e-283
-1.95565e-286
-5.53644e-290
-1.50148e-293
-3.90089e-297
-9.7086e-301
-2.31473e-304
-5.28678e-308
-1.15672e-311
-2.42438e-315
-4.86689e-319
-2.96439e-323
0
0
0
0
0
0
0
0
0
0
0
0
0
0
0
0
0
0
0
0
0
0
0
0
0
0
0
0
0
0
0
0
0
0
0
0
0
0
0
0
0
0
0
0
0
0
0
0
0
0
0
0
0
0
0
0
0
0
0
0
0
0
0
0
0
0
0
0
0
0
0
0
0
0
0
0
0
0
0
0
0
0
0
0
0
0
0
0
0
0
0
0
0
0
0
0
0
0
0
0
0
0
-1.44063e-168
-2.02983e-171
-2.73784e-174
-3.53532e-177
-4.37068e-180
-5.17364e-183
-5.86399e-186
-6.36445e-189
-6.6148e-192
-6.58382e-195
-6.27562e-198
-5.72882e-201
-5.00856e-204
-4.19381e-207
-3.36323e-210
-2.58323e-213
-1.90034e-216
-1.33895e-219
-9.03572e-223
-5.84022e-226
-3.61547e-229
-2.14374e-232
-1.21744e-235
-6.62217e-239
-3.45007e-242
-1.7216e-245
-8.22851e-249
-3.767e-252
-1.65182e-255
-6.93786e-259
-2.79122e-262
-1.07566e-265
-3.97076e-269
-1.40411e-272
-4.75626e-276
-1.54339e-279
-4.79777e-283
-1.42878e-286
-4.07623e-290
-1.11411e-293
-2.91727e-297
-7.31826e-301
-1.75883e-304
-4.0497e-308
-8.9331e-312
-1.8878e-315
-3.8217e-319
-4.94066e-324
0
0
0
0
0
0
0
0
0
0
0
0
0
0
0
0
0
0
0
0
0
0
0
0
0
0
0
0
0
0
0
0
0
0
0
0
0
0
0
0
0
0
0
0
0
0
0
0
0
0
0
0
0
0
0
0
0
0
0
0
0
0
0
0
0
0
0
0
0
0
0
0
0
0
0
0
0
0
0
0
0
0
0
0
0
0
0
0
0
0
0
0
0
0
0
0
0
0
0
0
0
0
-5.9125e-169
-8.40652e-172
-1.14436e-174
-1.49157e-177
-1.86161e-180
-2.225e-183
-2.54678e-186
-2.79187e-189
-2.93133e-192
-2.94792e-195
-2.83967e-198
-2.6202e-201
-2.31595e-204
-1.96092e-207
-1.59053e-210
-1.23588e-213
-9.19975e-217
-6.56059e-220
-4.48211e-223
-2.93357e-226
-1.83946e-229
-1.105e-232
-6.35933e-236
-3.50623e-239
-1.85202e-242
-9.37185e-246
-4.54334e-249
-2.11004e-252
-9.38787e-256
-4.00126e-259
-1.6337e-262
-6.38978e-266
-2.39402e-269
-8.59182e-273
-2.95358e-276
-9.72532e-280
-3.06718e-283
-9.26484e-287
-2.68032e-290
-7.42623e-294
-1.97046e-297
-5.00687e-301
-1.21828e-304
-2.83853e-308
-6.33267e-312
-1.35272e-315
-2.76613e-319
0
0
0
0
0
0
0
0
0
0
0
0
0
0
0
0
0
0
0
0
0
0
0
0
0
0
0
0
0
0
0
0
0
0
0
0
0
0
0
0
0
0
0
0
0
0
0
0
0
0
0
0
0
0
0
0
0
0
0
0
0
0
0
0
0
0
0
0
0
0
0
0
0
0
0
0
0
0
0
0
0
0
0
0
0
0
0
0
0
0
0
0
0
0
0
0
0
0
0
0
0
0
0
-2.09228e-169
-3.00284e-172
-4.12734e-175
-5.43338e-178
-6.85114e-181
-8.27516e-184
-9.57494e-187
-1.06136e-189
-1.12713e-192
-1.1468e-195
-1.11792e-198
-1.04414e-201
-9.34401e-205
-8.01199e-208
-6.58235e-211
-5.18149e-214
-3.90803e-217
-2.82413e-220
-1.95538e-223
-1.29713e-226
-8.24398e-230
-5.01967e-233
-2.92811e-236
-1.63628e-239
-8.75931e-243
-4.49167e-246
-2.20625e-249
-1.03798e-252
-4.67732e-256
-2.01862e-259
-8.34341e-263
-3.30251e-266
-1.2518e-269
-4.54357e-273
-1.5791e-276
-5.25479e-280
-1.67422e-283
-5.10698e-287
-1.49139e-290
-4.16944e-294
-1.11585e-297
-2.85863e-301
-7.01008e-305
-1.64545e-308
-3.69682e-312
-7.94957e-316
-1.63546e-319
0
0
0
0
0
0
0
0
0
0
0
0
0
0
0
0
0
0
0
0
0
0
0
0
0
0
0
0
0
0
0
0
0
0
0
0
0
0
0
0
0
0
0
0
0
0
0
0
0
0
0
0
0
0
0
0
0
0
0
0
0
0
0
0
0
0
0
0
0
0
0
0
0
0
0
0
0
0
0
0
0
0
0
0
0
0
0
0
0
0
0
0
0
0
0
0
0
0
0
0
0
0
0
-6.64924e-170
-9.63436e-173
-1.33717e-175
-1.77785e-178
-2.26445e-181
-2.76321e-184
-3.23043e-187
-3.61836e-190
-3.88307e-193
-3.99258e-196
-3.93321e-199
-3.71239e-202
-3.35712e-205
-2.90857e-208
-2.41425e-211
-1.91984e-214
-1.46255e-217
-1.06736e-220
-7.46181e-224
-4.99688e-227
-3.20521e-230
-1.96924e-233
-1.1588e-236
-6.53086e-240
-3.52502e-243
-1.82208e-246
-9.01926e-250
-4.27516e-253
-1.94043e-256
-8.43312e-260
-3.50923e-263
-1.39814e-266
-5.33328e-270
-1.94773e-273
-6.80992e-277
-2.27942e-280
-7.30407e-284
-2.24056e-287
-6.5795e-291
-1.84955e-294
-4.97702e-298
-1.28204e-301
-3.16123e-305
-7.46162e-309
-1.68589e-312
-3.64622e-316
-7.54241e-320
0
0
0
0
0
0
0
0
0
0
0
0
0
0
0
0
0
0
0
0
0
0
0
0
0
0
0
0
0
0
0
0
0
0
0
0
0
0
0
0
0
0
0
0
0
0
0
0
0
0
0
0
0
0
0
0
0
0
0
0
0
0
0
0
0
0
0
0
0
0
0
0
0
0
0
0
0
0
0
0
0
0
0
0
0
0
0
0
0
0
0
0
0
0
0
0
0
0
0
0
0
0
0
-1.12007e-170
-1.63836e-173
-2.29549e-176
-3.08075e-179
-3.9606e-182
-4.87749e-185
-5.75391e-188
-6.50222e-191
-7.03866e-194
-7.29865e-197
-7.24959e-200
-6.89754e-203
-6.28603e-206
-5.48718e-209
-4.58779e-212
-3.6739e-215
-2.8178e-218
-2.06987e-221
-1.45617e-224
-9.81095e-228
-6.33036e-231
-3.91161e-234
-2.31465e-237
-1.31163e-240
-7.11747e-244
-3.6985e-247
-1.84038e-250
-8.76935e-254
-4.00135e-257
-1.74833e-260
-7.31515e-264
-2.93093e-267
-1.12454e-270
-4.13182e-274
-1.45381e-277
-4.89873e-281
-1.58081e-284
-4.88543e-288
-1.44599e-291
-4.09903e-295
-1.11291e-298
-2.89408e-302
-7.20855e-306
-1.71982e-309
-3.93026e-313
-8.60352e-317
-1.8068e-320
0
0
0
0
0
0
0
0
0
0
0
0
0
0
0
0
0
0
0
0
0
0
0
0
0
0
0
0
0
0
0
0
0
0
0
0
0
0
0
0
0
0
0
0
0
0
0
0
0
0
0
0
0
0
0
0
0
0
0
0
0
0
0
0
0
0
0
0
0
0
0
0
0
0
0
0
0
0
0
0
0
0
0
0
0
0
0
0
0
0
0
0
0
0
0
0
0
0
0
0
0
0
0
-1.84198e-171
-2.71256e-174
-3.82546e-177
-5.16662e-180
-6.68271e-183
-8.278e-186
-9.82033e-189
-1.11572e-191
-1.21398e-194
-1.26502e-197
-1.26243e-200
-1.20654e-203
-1.10434e-206
-9.68021e-210
-8.12628e-213
-6.53316e-216
-5.03016e-219
-3.70911e-222
-2.61935e-225
-1.77156e-228
-1.14754e-231
-7.11921e-235
-4.23022e-238
-2.40753e-241
-1.31241e-244
-6.85287e-248
-3.42765e-251
-1.64232e-254
-7.53833e-258
-3.31489e-261
-1.39656e-264
-5.63729e-268
-2.18032e-271
-8.08035e-275
-2.86962e-278
-9.76616e-282
-3.18527e-285
-9.95662e-289
-2.98288e-292
-8.56509e-296
-2.35728e-299
-6.21841e-303
-1.57232e-306
-3.8106e-310
-8.8518e-314
-1.97081e-317
-4.2045e-321
0
0
0
0
0
0
0
0
0
0
0
0
0
0
0
0
0
0
0
0
0
0
0
0
0
0
0
0
0
0
0
0
0
0
0
0
0
0
0
0
0
0
0
0
0
0
0
0
0
0
0
0
0
0
0
0
0
0
0
0
0
0
0
0
0
0
0
0
0
0
0
0
0
0
0
0
0
0
0
0
0
0
0
0
0
0
0
0
0
0
0
0
0
0
0
0
0
0
0
0
0
0
0
-3.01805e-172
-4.45352e-175
-6.29591e-178
-8.52574e-181
-1.10582e-183
-1.37368e-186
-1.63426e-189
-1.86199e-192
-2.03167e-195
-2.12299e-198
-2.12455e-201
-2.0362e-204
-1.86903e-207
-1.64312e-210
-1.38355e-213
-1.11586e-216
-8.62059e-220
-6.37963e-223
-4.52283e-226
-3.07188e-229
-1.99896e-232
-1.24635e-235
-7.44629e-239
-4.26318e-242
-2.33911e-245
-1.23006e-248
-6.19991e-252
-2.99546e-255
-1.38736e-258
-6.16015e-262
-2.62238e-265
-1.07035e-268
-4.18896e-272
-1.57199e-275
-5.65681e-279
-1.952e-282
-6.45918e-286
-2.04957e-289
-6.23629e-293
-1.81951e-296
-5.09012e-300
-1.36527e-303
-3.51071e-307
-8.65405e-311
-2.04478e-314
-4.6305e-318
-1.00295e-321
0
0
0
0
0
0
0
0
0
0
0
0
0
0
0
0
0
0
0
0
0
0
0
0
0
0
0
0
0
0
0
0
0
0
0
0
0
0
0
0
0
0
0
0
0
0
0
0
0
0
0
0
0
0
0
0
0
0
0
0
0
0
0
0
0
0
0
0
0
0
0
0
0
0
0
0
0
0
0
0
0
0
0
0
0
0
0
0
0
0
0
0
0
0
0
0
0
0
0
0
0
0
0
-4.93853e-173
-7.26879e-176
-1.02639e-178
-1.38967e-181
-1.80343e-184
-2.24266e-187
-2.67197e-190
-3.04973e-193
-3.33451e-196
-3.49251e-199
-3.50418e-202
-3.36816e-205
-3.10156e-208
-2.73638e-211
-2.3132e-214
-1.87381e-217
-1.45461e-220
-1.08223e-223
-7.71759e-227
-5.2756e-230
-3.45725e-233
-2.17219e-236
-1.30861e-239
-7.55971e-243
-4.18808e-246
-2.2252e-249
-1.13396e-252
-5.54265e-256
-2.59866e-259
-1.1687e-262
-5.04183e-266
-2.0864e-269
-8.28187e-273
-3.15329e-276
-1.15156e-279
-4.03332e-283
-1.35476e-286
-4.36364e-290
-1.34763e-293
-3.9901e-297
-1.13247e-300
-3.08069e-304
-8.03119e-308
-2.00614e-311
-4.80093e-315
-1.10053e-318
-2.2727e-322
0
0
0
0
0
0
0
0
0
0
0
0
0
0
0
0
0
0
0
0
0
0
0
0
0
0
0
0
0
0
0
0
0
0
0
0
0
0
0
0
0
0
0
0
0
0
0
0
0
0
0
0
0
0
0
0
0
0
0
0
0
0
0
0
0
0
0
0
0
0
0
0
0
0
0
0
0
0
0
0
0
0
0
0
0
0
0
0
0
0
0
0
0
0
0
0
0
0
0
0
0
0
0
-7.96339e-174
-1.16947e-176
-1.64998e-179
-2.23448e-182
-2.90274e-185
-3.61571e-188
-4.31738e-191
-4.94107e-194
-5.41959e-197
-5.69708e-200
-5.73973e-203
-5.54254e-206
-5.13025e-209
-4.55218e-212
-3.87252e-215
-3.15867e-218
-2.47057e-221
-1.85316e-224
-1.33319e-227
-9.19973e-231
-6.08966e-234
-3.86701e-237
-2.35584e-240
-1.37696e-243
-7.72171e-247
-4.15457e-250
-2.14464e-253
-1.06216e-256
-5.04681e-260
-2.30042e-263
-1.00584e-266
-4.2184e-270
-1.69675e-273
-6.54472e-277
-2.42055e-280
-8.58281e-284
-2.91728e-287
-9.50374e-291
-2.96699e-294
-8.87517e-298
-2.54336e-301
-6.98144e-305
-1.83535e-308
-4.62025e-312
-1.11357e-315
-2.56954e-319
-4.44659e-323
0
0
0
0
0
0
0
0
0
0
0
0
0
0
0
0
0
0
0
0
0
0
0
0
0
0
0
0
0
0
0
0
0
0
0
0
0
0
0
0
0
0
0
0
0
0
0
0
0
0
0
0
0
0
0
0
0
0
0
0
0
0
0
0
0
0
0
0
0
0
0
0
0
0
0
0
0
0
0
0
0
0
0
0
0
0
0
0
0
0
0
0
0
0
0
0
0
0
0
0
0
0
0
-1.26406e-174
-1.85866e-177
-2.62764e-180
-3.56797e-183
-4.6501e-186
-5.81424e-189
-6.97265e-192
-8.0189e-195
-8.84343e-198
-9.3523e-201
-9.48478e-204
-9.22523e-207
-8.60605e-210
-7.70096e-213
-6.61054e-216
-5.44395e-219
-4.30138e-222
-3.26092e-225
-2.3721e-228
-1.65575e-231
-1.109e-234
-7.12759e-238
-4.39555e-241
-2.60091e-244
-1.47657e-247
-8.04207e-251
-4.20172e-254
-2.10565e-257
-1.01204e-260
-4.66452e-264
-2.06137e-267
-8.73347e-271
-3.54679e-274
-1.38051e-277
-5.14915e-281
-1.84017e-284
-6.30001e-288
-2.06597e-291
-6.48843e-295
-1.95132e-298
-5.61862e-302
-1.54876e-305
-4.0863e-309
-1.03185e-312
-2.49335e-316
-5.76822e-320
0
0
0
0
0
0
0
0
0
0
0
0
0
0
0
0
0
0
0
0
0
0
0
0
0
0
0
0
0
0
0
0
0
0
0
0
0
0
0
0
0
0
0
0
0
0
0
0
0
0
0
0
0
0
0
0
0
0
0
0
0
0
0
0
0
0
0
0
0
0
0
0
0
0
0
0
0
0
0
0
0
0
0
0
0
0
0
0
0
0
0
0
0
0
0
0
0
0
0
0
0
0
0
0
-2.00594e-175
-2.96492e-178
-4.21409e-181
-5.75426e-184
-7.54413e-187
-9.49296e-190
-1.14624e-192
-1.32797e-195
-1.47613e-198
-1.5743e-201
-1.61099e-204
-1.58183e-207
-1.49041e-210
-1.34755e-213
-1.16921e-216
-9.73527e-220
-7.77878e-223
-5.96446e-226
-4.38845e-229
-3.09816e-232
-2.09856e-235
-1.36371e-238
-8.50089e-242
-5.08275e-245
-2.91457e-248
-1.60263e-251
-8.44926e-255
-4.27041e-258
-2.06883e-261
-9.60552e-265
-4.27364e-268
-1.82177e-271
-7.43953e-275
-2.91001e-278
-1.09014e-281
-3.91069e-285
-1.34323e-288
-4.41689e-292
-1.39028e-295
-4.18845e-299
-1.2076e-302
-3.33168e-306
-8.79477e-310
-2.22108e-313
-5.36582e-317
-1.24258e-320
0
0
0
0
0
0
0
0
0
0
0
0
0
0
0
0
0
0
0
0
0
0
0
0
0
0
0
0
0
0
0
0
0
0
0
0
0
0
0
0
0
0
0
0
0
0
0
0
0
0
0
0
0
0
0
0
0
0
0
0
0
0
0
0
0
0
0
0
0
0
0
0
0
0
0
0
0
0
0
0
0
0
0
0
0
0
0
0
0
0
0
0
0
0
0
0
0
0
0
0
0
0
0
0
-6.34597e-177
-9.14996e-180
-1.27231e-182
-1.7055e-185
-2.20314e-188
-2.74167e-191
-3.28566e-194
-3.79067e-197
-4.2087e-200
-4.49543e-203
-4.61789e-206
-4.56063e-209
-4.32895e-212
-3.94811e-215
-3.45879e-218
-2.90986e-221
-2.35031e-224
-1.82215e-227
-1.35566e-230
-9.67682e-234
-6.6259e-237
-4.35116e-240
-2.73989e-243
-1.65408e-246
-9.57198e-250
-5.30885e-253
-2.82155e-256
-1.43681e-259
-7.00932e-263
-3.27536e-266
-1.46586e-269
-6.2824e-273
-2.57813e-276
-1.01294e-279
-3.80986e-283
-1.37164e-286
-4.72645e-290
-1.55864e-293
-4.91854e-297
-1.48513e-300
-4.29032e-304
-1.18571e-307
-3.13465e-311
-7.92666e-315
-1.91712e-318
-3.90312e-322
0
0
0
0
0
0
0
0
0
0
0
0
0
0
0
0
0
0
0
0
0
0
0
0
0
0
0
0
0
0
0
0
0
0
0
0
0
0
0
0
0
0
0
0
0
0
0
0
0
0
0
0
0
0
0
0
0
0
0
0
0
0
0
0
0
0
0
0
0
0
0
0
0
0
0
0
0
0
0
0
0
0
0
0
0
0
0
0
0
0
0
0
0
0
0
0
0
0
0
0
0
0
0
0
-2.95914e-178
-4.05751e-181
-5.37839e-184
-6.89694e-187
-8.56003e-190
-1.02847e-192
-1.19608e-195
-1.34591e-198
-1.46456e-201
-1.53993e-204
-1.56323e-207
-1.53069e-210
-1.44444e-213
-1.31249e-216
-1.14746e-219
-9.64522e-223
-7.7903e-226
-6.04263e-229
-4.49907e-232
-3.21417e-235
-2.20248e-238
-1.44718e-241
-9.11557e-245
-5.503e-248
-3.18334e-251
-1.76423e-254
-9.36584e-258
-4.76208e-261
-2.31871e-264
-1.08105e-267
-4.82551e-271
-2.06203e-274
-8.43446e-278
-3.3021e-281
-1.23724e-284
-4.4362e-288
-1.52204e-291
-4.99651e-295
-1.56927e-298
-4.71501e-302
-1.35517e-305
-3.72562e-309
-9.79638e-313
-2.46357e-316
-5.92236e-320
-0
0
0
0
0
0
0
0
0
0
0
0
0
0
0
0
0
0
0
0
0
0
0
0
0
0
0
0
0
0
0
0
0
0
0
0
0
0
0
0
0
0
0
0
0
0
0
0
0
0
0
0
0
0
0
0
0
0
0
0
0
0
0
0
0
0
0
0
0
0
0
0
0
0
0
0
0
0
0
0
0
0
0
0
0
0
0
0
0
0
0
0
0
0
0
0
0
0
0
0
0
0
0
0
0
-1.59462e-179
-2.1031e-182
-2.68195e-185
-3.31232e-188
-3.96731e-191
-4.6129e-194
-5.20944e-197
-5.71418e-200
-6.08498e-203
-6.28529e-206
-6.28987e-209
-6.09009e-212
-5.69724e-215
-5.14246e-218
-4.47296e-221
-3.74496e-224
-3.01512e-227
-2.33241e-230
-1.7324e-233
-1.23476e-236
-8.44121e-240
-5.53279e-243
-3.47585e-246
-2.09238e-249
-1.20666e-252
-6.66521e-256
-3.52578e-259
-1.78587e-262
-8.6605e-266
-4.02057e-269
-1.78666e-272
-7.59911e-276
-3.09325e-279
-1.20494e-282
-4.49136e-286
-1.60186e-289
-5.46601e-293
-1.78439e-296
-5.5725e-300
-1.66466e-303
-4.75652e-307
-1.2999e-310
-3.39754e-314
-8.49219e-318
-1.9812e-321
0
0
0
0
0
0
0
0
0
0
0
0
0
0
0
0
0
0
0
0
0
0
0
0
0
0
0
0
0
0
0
0
0
0
0
0
0
0
0
0
0
0
0
0
0
0
0
0
0
0
0
0
0
0
0
0
0
0
0
0
0
0
0
0
0
0
0
0
0
0
0
0
0
0
0
0
0
0
0
0
0
0
0
0
0
0
0
0
0
0
0
0
0
0
0
0
0
0
0
0
0
0
0
0
0
-8.49814e-181
-1.09346e-183
-1.36068e-186
-1.64092e-189
-1.92137e-192
-2.1876e-195
-2.42418e-198
-2.61529e-201
-2.74579e-204
-2.8028e-207
-2.77767e-210
-2.66816e-213
-2.47984e-216
-2.22623e-219
-1.92738e-222
-1.60697e-225
-1.28878e-228
-9.93227e-232
-7.34964e-235
-5.21851e-238
-3.55353e-241
-2.31965e-244
-1.45107e-247
-8.69634e-251
-4.99197e-254
-2.74418e-257
-1.44442e-260
-7.2788e-264
-3.51123e-267
-1.62125e-270
-7.16465e-274
-3.0301e-277
-1.22632e-280
-4.74906e-284
-1.75969e-287
-6.23827e-291
-2.11574e-294
-6.86445e-298
-2.13043e-301
-6.32446e-305
-1.79576e-308
-4.87657e-312
-1.26648e-315
-3.14502e-319
-2.47033e-323
0
0
0
0
0
0
0
0
0
0
0
0
0
0
0
0
0
0
0
0
0
0
0
0
0
0
0
0
0
0
0
0
0
0
0
0
0
0
0
0
0
0
0
0
0
0
0
0
0
0
0
0
0
0
0
0
0
0
0
0
0
0
0
0
0
0
0
0
0
0
0
0
0
0
0
0
0
0
0
0
0
0
0
0
0
0
0
0
0
0
0
0
0
0
0
0
0
0
0
0
0
0
0
0
0
-4.31254e-182
-5.46617e-185
-6.707e-188
-7.98509e-191
-9.24359e-194
-1.04211e-196
-1.14527e-199
-1.22719e-202
-1.28135e-205
-1.3021e-208
-1.28559e-211
-1.23081e-214
-1.14037e-217
-1.02056e-220
-8.80697e-224
-7.3176e-227
-5.84695e-230
-4.4882e-233
-3.30707e-236
-2.33757e-239
-1.58421e-242
-1.029e-245
-6.40377e-249
-3.81733e-252
-2.17922e-255
-1.1912e-258
-6.23386e-262
-3.12293e-265
-1.49748e-268
-6.87244e-272
-3.01843e-275
-1.26865e-278
-5.10221e-282
-1.9634e-285
-7.22881e-289
-2.54627e-292
-8.58025e-296
-2.76584e-299
-8.52833e-303
-2.51527e-306
-7.09526e-310
-1.91421e-313
-4.93883e-317
-1.21441e-320
0
0
0
0
0
0
0
0
0
0
0
0
0
0
0
0
0
0
0
0
0
0
0
0
0
0
0
0
0
0
0
0
0
0
0
0
0
0
0
0
0
0
0
0
0
0
0
0
0
0
0
0
0
0
0
0
0
0
0
0
0
0
0
0
0
0
0
0
0
0
0
0
0
0
0
0
0
0
0
0
0
0
0
0
0
0
0
0
0
0
0
0
0
0
0
0
0
0
0
0
0
0
0
0
0
0
-2.08396e-183
-2.62082e-186
-3.19629e-189
-3.78934e-192
-4.3759e-195
-4.9291e-198
-5.41909e-201
-5.81336e-204
-6.07873e-207
-6.18527e-210
-6.11195e-213
-5.8524e-216
-5.41881e-219
-4.84232e-222
-4.16924e-225
-3.45385e-228
-2.74978e-231
-2.10204e-234
-1.54177e-237
-1.08439e-240
-7.31046e-244
-4.72224e-247
-2.92198e-250
-1.73155e-253
-9.82542e-257
-5.33777e-260
-2.77595e-263
-1.38186e-266
-6.58379e-270
-3.00205e-273
-1.30997e-276
-5.46982e-280
-2.1854e-283
-8.35432e-287
-3.05554e-290
-1.06915e-293
-3.57884e-297
-1.14597e-300
-3.51005e-304
-1.02834e-307
-2.88151e-311
-7.72228e-315
-1.97913e-318
-4.39718e-322
0
0
0
0
0
0
0
0
0
0
0
0
0
0
0
0
0
0
0
0
0
0
0
0
0
0
0
0
0
0
0
0
0
0
0
0
0
0
0
0
0
0
0
0
0
0
0
0
0
0
0
0
0
0
0
0
0
0
0
0
0
0
0
0
0
0
0
0
0
0
0
0
0
0
0
0
0
0
0
0
0
0
0
0
0
0
0
0
0
0
0
0
0
0
0
0
0
0
0
0
0
0
0
0
0
0
-9.67949e-185
-1.21567e-187
-1.48413e-190
-1.7652e-193
-2.04879e-196
-2.32242e-199
-2.57088e-202
-2.77651e-205
-2.92059e-208
-2.98595e-211
-2.96035e-214
-2.83975e-217
-2.63029e-220
-2.34819e-223
-2.01755e-226
-1.66626e-229
-1.32151e-232
-1.00571e-235
-7.33987e-239
-5.13476e-242
-3.442e-245
-2.21023e-248
-1.35927e-251
-8.00458e-255
-4.51309e-258
-2.43592e-261
-1.25853e-264
-6.2235e-268
-2.94544e-271
-1.33407e-274
-5.78221e-278
-2.39813e-281
-9.51676e-285
-3.61346e-288
-1.31266e-291
-4.56198e-295
-1.51673e-298
-4.82383e-302
-1.46753e-305
-4.27041e-309
-1.18856e-312
-3.16386e-316
-8.05129e-320
-0
0
0
0
0
0
0
0
0
0
0
0
0
0
0
0
0
0
0
0
0
0
0
0
0
0
0
0
0
0
0
0
0
0
0
0
0
0
0
0
0
0
0
0
0
0
0
0
0
0
0
0
0
0
0
0
0
0
0
0
0
0
0
0
0
0
0
0
0
0
0
0
0
0
0
0
0
0
0
0
0
0
0
0
0
0
0
0
0
0
0
0
0
0
0
0
0
0
0
0
0
0
0
0
0
0
0
-4.3732e-186
-5.52104e-189
-6.7929e-192
-8.15932e-195
-9.57632e-198
-1.09813e-200
-1.22908e-203
-1.34039e-206
-1.42121e-209
-1.46161e-212
-1.45462e-215
-1.39795e-218
-1.29499e-221
-1.15453e-224
-9.89411e-228
-8.14239e-231
-6.42981e-234
-4.86917e-237
-3.53447e-240
-2.45838e-243
-1.63799e-246
-1.04524e-249
-6.38692e-253
-3.7366e-256
-2.09277e-259
-1.12199e-262
-5.7576e-266
-2.82781e-269
-1.32919e-272
-5.97898e-276
-2.57364e-279
-1.06005e-282
-4.17778e-286
-1.57536e-289
-5.68342e-293
-1.96163e-296
-6.47709e-300
-2.04588e-303
-6.18151e-307
-1.78651e-310
-4.93848e-314
-1.30568e-317
-3.25589e-321
0
0
0
0
0
0
0
0
0
0
0
0
0
0
0
0
0
0
0
0
0
0
0
0
0
0
0
0
0
0
0
0
0
0
0
0
0
0
0
0
0
0
0
0
0
0
0
0
0
0
0
0
0
0
0
0
0
0
0
0
0
0
0
0
0
0
0
0
0
0
0
0
0
0
0
0
0
0
0
0
0
0
0
0
0
0
0
0
0
0
0
0
0
0
0
0
0
0
0
0
0
0
0
0
0
0
0
-1.9472e-187
-2.48728e-190
-3.10313e-193
-3.78424e-196
-4.5099e-199
-5.2465e-202
-5.94677e-205
-6.55254e-208
-7.00167e-211
-7.23834e-214
-7.22443e-217
-6.94874e-220
-6.43126e-223
-5.72069e-226
-4.88595e-229
-4.00383e-232
-3.14616e-235
-2.36958e-238
-1.71002e-241
-1.18211e-244
-7.8262e-248
-4.96149e-251
-3.01151e-254
-1.74995e-257
-9.73404e-261
-5.18272e-264
-2.64114e-267
-1.28815e-270
-6.01263e-274
-2.68571e-277
-1.14798e-280
-4.6953e-284
-1.83753e-287
-6.88056e-291
-2.46499e-294
-8.44866e-298
-2.77028e-301
-8.6897e-305
-2.60742e-308
-7.4838e-312
-2.05457e-315
-5.3946e-319
-9.38725e-323
0
0
0
0
0
0
0
0
0
0
0
0
0
0
0
0
0
0
0
0
0
0
0
0
0
0
0
0
0
0
0
0
0
0
0
0
0
0
0
0
0
0
0
0
0
0
0
0
0
0
0
0
0
0
0
0
0
0
0
0
0
0
0
0
0
0
0
0
0
0
0
0
0
0
0
0
0
0
0
0
0
0
0
0
0
0
0
0
0
0
0
0
0
0
0
0
0
0
0
0
0
0
0
0
0
0
0
-8.66041e-189
-1.12575e-191
-1.4307e-194
-1.77686e-197
-2.15363e-200
-2.54226e-203
-2.91584e-206
-3.24141e-209
-3.48433e-212
-3.6143e-215
-3.61149e-218
-3.47124e-221
-3.20571e-224
-2.84194e-227
-2.41689e-230
-1.97069e-233
-1.54001e-236
-1.15302e-239
-8.26907e-243
-5.67935e-246
-3.73509e-249
-2.35187e-252
-1.41773e-255
-8.18101e-259
-4.51883e-262
-2.38904e-265
-1.20886e-268
-5.85418e-272
-2.71313e-275
-1.20329e-278
-5.10681e-282
-2.07391e-285
-8.05881e-289
-2.99625e-292
-1.06584e-295
-3.62743e-299
-1.18107e-302
-3.67882e-306
-1.09617e-309
-3.12437e-313
-8.51818e-317
-2.21588e-320
0
0
0
0
0
0
0
0
0
0
0
0
0
0
0
0
0
0
0
0
0
0
0
0
0
0
0
0
0
0
0
0
0
0
0
0
0
0
0
0
0
0
0
0
0
0
0
0
0
0
0
0
0
0
0
0
0
0
0
0
0
0
0
0
0
0
0
0
0
0
0
0
0
0
0
0
0
0
0
0
0
0
0
0
0
0
0
0
0
0
0
0
0
0
0
0
0
0
0
0
0
0
0
0
0
0
0
0
-3.89511e-190
-5.17166e-193
-6.7083e-196
-8.48706e-199
-1.04498e-201
-1.24909e-204
-1.44593e-207
-1.61728e-210
-1.74442e-213
-1.81148e-216
-1.80863e-219
-1.7344e-222
-1.59615e-225
-1.40881e-228
-1.192e-231
-9.66476e-235
-7.5071e-238
-5.58506e-241
-3.97912e-244
-2.71452e-247
-1.77297e-250
-1.1086e-253
-6.63571e-257
-3.80197e-260
-2.08505e-263
-1.09444e-266
-5.49813e-270
-2.64344e-273
-1.21629e-276
-5.35551e-280
-2.25656e-283
-9.09824e-287
-3.51007e-290
-1.29571e-293
-4.57632e-297
-1.54641e-300
-4.99937e-304
-1.54622e-307
-4.57486e-311
-1.29484e-314
-3.5056e-318
-8.59674e-322
0
0
0
0
0
0
0
0
0
0
0
0
0
0
0
0
0
0
0
0
0
0
0
0
0
0
0
0
0
0
0
0
0
0
0
0
0
0
0
0
0
0
0
0
0
0
0
0
0
0
0
0
0
0
0
0
0
0
0
0
0
0
0
0
0
0
0
0
0
0
0
0
0
0
0
0
0
0
0
0
0
0
0
0
0
0
0
0
0
0
0
0
0
0
0
0
0
0
0
0
0
0
0
0
0
0
0
0
-1.787e-191
-2.425e-194
-3.20681e-197
-4.12272e-200
-5.13993e-203
-6.1994e-206
-7.21815e-209
-8.09816e-212
-8.74133e-215
-9.06726e-218
-9.02972e-221
-8.62693e-224
-7.90283e-227
-6.93859e-230
-5.83692e-233
-4.70344e-236
-3.62984e-239
-2.68248e-242
-1.89809e-245
-1.28584e-248
-8.33908e-252
-5.17707e-255
-3.07654e-258
-1.74999e-261
-9.52758e-265
-4.96466e-268
-2.47594e-271
-1.18174e-274
-5.39778e-278
-2.35944e-281
-9.86937e-285
-3.9504e-288
-1.51303e-291
-5.54495e-295
-1.94434e-298
-6.52319e-302
-2.09384e-305
-6.4299e-309
-1.88899e-312
-5.30886e-316
-1.42686e-319
-0
0
0
0
0
0
0
0
0
0
0
0
0
0
0
0
0
0
0
0
0
0
0
0
0
0
0
0
0
0
0
0
0
0
0
0
0
0
0
0
0
0
0
0
0
0
0
0
0
0
0
0
0
0
0
0
0
0
0
0
0
0
0
0
0
0
0
0
0
0
0
0
0
0
0
0
0
0
0
0
0
0
0
0
0
0
0
0
0
0
0
0
0
0
0
0
0
0
0
0
0
0
0
0
0
0
0
0
0
-8.3878e-193
-1.16038e-195
-1.5586e-198
-2.02759e-201
-2.5488e-204
-3.08982e-207
-3.60614e-210
-4.0465e-213
-4.36096e-216
-4.51017e-219
-4.4734e-222
-4.25316e-225
-3.87487e-228
-3.38189e-231
-2.82701e-234
-2.26306e-237
-1.73466e-240
-1.27304e-243
-8.94428e-247
-6.01591e-250
-3.87337e-253
-2.3872e-256
-1.40827e-259
-7.95176e-263
-4.29744e-266
-2.22286e-269
-1.10042e-272
-5.21353e-276
-2.36388e-279
-1.02571e-282
-4.25905e-286
-1.69232e-289
-6.43453e-293
-2.34101e-296
-8.14948e-300
-2.71443e-303
-8.65044e-307
-2.6375e-310
-7.69352e-314
-2.14695e-317
-5.70646e-321
0
0
0
0
0
0
0
0
0
0
0
0
0
0
0
0
0
0
0
0
0
0
0
0
0
0
0
0
0
0
0
0
0
0
0
0
0
0
0
0
0
0
0
0
0
0
0
0
0
0
0
0
0
0
0
0
0
0
0
0
0
0
0
0
0
0
0
0
0
0
0
0
0
0
0
0
0
0
0
0
0
0
0
0
0
0
0
0
0
0
0
0
0
0
0
0
0
0
0
0
0
0
0
0
0
0
0
0
0
-4.01608e-194
-5.63721e-197
-7.65295e-200
-1.00269e-202
-1.26557e-205
-1.53653e-208
-1.79234e-211
-2.00687e-214
-2.15543e-217
-2.2194e-220
-2.19001e-223
-2.07034e-226
-1.87465e-229
-1.62559e-232
-1.34978e-235
-1.07307e-238
-8.16739e-242
-5.9511e-245
-4.15099e-248
-2.77161e-251
-1.77142e-254
-1.0837e-257
-6.34573e-261
-3.55657e-264
-1.90785e-267
-9.79522e-271
-4.81313e-274
-2.26347e-277
-1.0187e-280
-4.3876e-284
-1.80847e-287