/*--------------------------------*- C++ -*----------------------------------*\
| =========                 |                                                 |
| \\      /  F ield         | OpenFOAM: The Open Source CFD Toolbox           |
|  \\    /   O peration     | Version:  v1912                                 |
|   \\  /    A nd           | Website:  www.openfoam.com                      |
|    \\/     M anipulation  |                                                 |
\*---------------------------------------------------------------------------*/
FoamFile
{
    version     2.0;
    format      ascii;
    class       volScalarField;
    location    "60";
    object      p_rgh;
}
// * * * * * * * * * * * * * * * * * * * * * * * * * * * * * * * * * * * * * //

dimensions      [1 -1 -2 0 0 0 0];


internalField   nonuniform List<scalar> 
114144
(
112294
158731
200036
233167
256840
271203
277662
278788
278265
276422
273652
270933
268915
267648
266542
264628
262685
259139
252838
242960
229187
211721
191181
168422
144319
119680
95029.3
70521
45983.3
21004.5
-4924.17
-32176.4
-61159.9
-91625
-123173
-154946
-185731
-214079
-238468
-257489
-270001
-275270
-273432
-263957
-248006
-226557
-200843
-172180
-141827
-110899
-80300.3
-50701.8
-22554.5
3860.63
28390.2
50969.3
71553.8
90111.5
106573
120832
132756
142201
149023
153128
154344
153499
146314
138989
128460
115641
100581
83671.8
65359.7
46192.7
26783.1
7802.35
-10053.7
-26243.8
-40186.6
-51557.9
-60170.8
-66020.1
-69279.2
-70223.4
-69542.1
-68061.5
-65395.7
-62209.3
-54663.1
-49896.9
-44121.1
-38358.7
-32237
-25816.6
-19104.8
-12206.8
-5290
1390.66
7624.08
13090.6
17587.1
20957.2
23142.2
24194.9
24202.6
23623.5
22559.1
21093.8
19173.6
17121.1
15308.1
13589.9
11936.7
10296
8599.26
6802
4883.38
2858.75
776.104
-1293.03
-3263.61
-5048.87
-6586.39
-7833.55
-8773.98
-9417.12
-9791.18
-9934.88
-9887.29
-9682.39
-9342.11
-8882.28
-8282.78
-7565.37
-6709.68
-5716.12
-4589.62
-3346.44
-2012.77
-623.425
782.315
2163.39
3479.47
4694.91
5783.27
6714.46
7473.16
8049.44
8430.91
8602.64
8557.21
8284.26
7784.84
7053.92
6070.98
4944.71
3660.73
2148.11
537.966
-1108.69
-2761.94
-4345.3
-5839.79
-7130.65
-8284.88
-9166.36
-9823.33
-10216.2
-10376.6
-10300.8
-10018.8
-9547.71
-8909.01
-8126.34
-7240.37
-6278.58
-5258.04
-4196.92
-3110.39
-2013.22
-929.322
142.836
1233.94
2291.18
3316.74
4310.02
5266.25
6180.05
7044.04
7848.59
8581.87
9230.12
9778.45
10213.2
10522.5
10695.6
10722.1
10607.3
10346
9943.11
9407.65
8751.75
7988.98
7133.52
6199.76
5201.41
4150.56
3058.67
1937.33
797.462
-354.859
-1495.95
-2608.74
-3674.95
-4674.59
-5589
-6401.08
-7095.43
-7659.71
-8084.64
-8364.05
-8496.59
-8482.76
-8333.11
-8054.45
-7657.8
-7156.16
-6564.12
-5898.15
-5176.18
-4416.3
-3636.56
-2854.51
-2086.33
-1346.66
-648.105
1.58152
596.553
1132.35
1610.57
2035.43
2413.9
2755.01
3069.13
3366.4
3655.46
3943.71
4235.95
4535.64
4838.22
99578.6
135503
167841
194253
213759
226496
233559
236702
237684
237382
236737
235632
234378
233112
231273
227729
224483
219931
213317
204084
191995
177161
159978
141006
120766
99876.6
78754.5
57527.1
36111
14269.4
-8313.42
-31864.5
-56239.7
-81499.6
-107192
-132642
-156941
-179029
-197809
-212272
-221608
-225318
-223505
-215772
-202973
-185839
-165278
-142267
-117750
-92577
-67462.1
-42958.1
-19476.7
2740.32
23449.3
42558.9
59980.3
75651.3
89491.5
101406
111289
119031
124532
127729
128510
127686
120902
114747
105816
95058.5
82502.7
68492
53400.1
37675.6
21805.6
6314.33
-8278.88
-21440.4
-32879
-42296.3
-49550.3
-54630.2
-57658.1
-58857.8
-58637.9
-57781.1
-55979
-53624.7
-46908.7
-42884
-37804.4
-32723.8
-27328.3
-21715.3
-15916.6
-10034.5
-4208.66
1385.93
6519.98
11034.9
14758.7
17580.5
19460.3
20441.3
20605.3
20215.8
19508.1
18418.1
16841.4
15090.5
13486.8
11914.9
10361.4
8802.25
7197.39
5525.88
3780.96
1980.43
163.647
-1614.69
-3289.88
-4801.39
-6100.09
-7155.22
-7954.13
-8502.38
-8819.14
-8931.35
-8866.42
-8648.94
-8295.73
-7820.25
-7208.12
-6482.8
-5632.05
-4661.74
-3580.61
-2406
-1162.5
119.055
1404.86
2659.8
3849.05
4941.41
5913.35
6735.43
7395.58
7881.04
8179.48
8276.05
8163.74
7833.46
7287.58
6522.25
5523.7
4389.09
3116.28
1631.72
59.5437
-1538.32
-3135.26
-4658.74
-6092.33
-7324.93
-8424.36
-9258.3
-9874.36
-10238.2
-10369.2
-10273.4
-9977.74
-9498.46
-8856.65
-8073.79
-7188.12
-6229.33
-5212.72
-4156.43
-3074.97
-1982.8
-903.528
164.483
1251.79
2305.95
3329
4320.43
5275.46
6188.75
7053.01
7858.51
8593.27
9243.42
9793.91
10230.7
10541.8
10716.2
10743.8
10628.6
10366.3
9961.94
9424.51
8766.38
8001.27
7143.52
6207.64
5207.33
4154.64
3060.98
1937.78
795.932
-358.586
-1502.07
-2617.4
-3686.19
-4688.32
-5604.98
-6418.99
-7114.83
-7680.15
-8105.66
-8385.16
-8517.08
-8502.51
-8351.79
-8071.74
-7673.43
-7169.89
-6575.74
-5907.47
-5183.08
-4420.72
-3638.52
-2854.09
-2083.74
-1342.17
-642.106
8.64833
604.18
1140.06
1617.85
2041.88
2419.18
2758.92
3071.61
3367.56
3655.55
3943.07
4235.02
4534.95
4837.08
87286.8
114389
139174
159967
176031
187420
194829
199305
201802
202850
203071
202708
202132
201248
199450
195170
191374
186508
180068
171682
161177
148605
134212
118371
101556
84037.6
66007.2
47579.8
28750.3
9417.17
-10527.1
-31258.4
-52632
-74490.8
-96502.4
-118135
-138679
-157306
-173150
-185404
-193404
-196730
-195413
-189101
-178421
-163949
-146403
-126571
-105235
-83121.7
-60854
-38936.9
-17759.7
2420.55
21300
38814.1
54828.7
69262
82023.9
93017.2
102140
109292
114380
117352
118105
117390
110903
105251
96997.5
87069.3
75500.1
62608
48737.9
34300.1
19736.8
5526.24
-7857.34
-19970.1
-30497.5
-39196
-45936.1
-50706.1
-53611.6
-54851.2
-54758.7
-53955.5
-52407.1
-50284.4
-44031
-40249.2
-35461.8
-30651.1
-25543.3
-20236.5
-14768.4
-9238.41
-3776.97
1441.25
6253.73
10468.5
13947.8
16591.1
18363.8
19304.2
19492.9
19138
18486.5
17493.6
16015
14370.5
12837.1
11324
9817.72
8300.91
6739.7
5117.91
3431.81
1699.84
-40.2855
-1737.55
-3331.6
-4766.45
-5996.63
-6994.56
-7748.42
-8263.47
-8557.33
-8654.71
-8580.63
-8357.56
-8001.08
-7523.49
-6911.46
-6187.73
-5341.49
-4379.33
-3310.6
-2152.83
-930.332
326.756
1585.61
2812.24
3972.88
5037.36
5982.51
6778.16
7417.59
7883.4
8164.1
8245.07
8119.08
7776.97
7221.14
6446.03
5439.36
4300.22
3020.78
1531.69
-44.5384
-1644.89
-3242.7
-4765.99
-6197.08
-7426.22
-8519.61
-9346.98
-9954.35
-10302.1
-10427.6
-10323.4
-10019.1
-9531.53
-8882.41
-8093.77
-7202.96
-6239.68
-5219.81
-4160.26
-3076.06
-1981.76
-900.742
168.754
1256.97
2312.1
3336.09
4328.61
5285.13
6200.47
7067.44
7876.4
8615.21
9269.8
9824.84
10265.9
10580.5
10757.3
10785
10669.7
10405.7
9998.34
9456.92
8794.22
8024.35
7161.99
6221.82
5217.59
4161.26
3064.07
1937.25
791.526
-367.295
-1515.46
-2635.76
-3709.57
-4716.54
-5637.56
-6455.26
-7153.98
-7721.26
-8147.86
-8427.52
-8558.13
-8542.1
-8389.21
-8106.37
-7704.74
-7197.39
-6599
-5926.15
-5196.92
-4429.58
-3642.42
-2853.24
-2078.52
-1333.18
-630.058
22.8319
619.478
1155.55
1632.47
2054.8
2429.76
2766.73
3076.54
3369.82
3655.64
3941.72
4233.09
4533.42
4837.57
75275.2
94713.1
112766
128395
141101
150874
158079
163287
167098
169979
171886
172852
172992
172472
171187
166788
162877
158112
152169
144799
135862
125350
113382
100167
85960.3
70971.7
55362.7
39236.4
22628.9
5518.46
-12131.6
-30402.9
-48992.6
-67771.7
-86441.8
-104573
-121614
-136929
-149861
-159796
-166228
-168829
-167644
-162330
-153389
-141259
-126495
-109715
-91542.8
-72568.7
-53316.5
-34225.3
-15653.3
2150.53
18874.5
34420.1
48644.5
61454
72753.7
82451.2
90455.9
96683.3
101061
103550
104078
103325
97124.8
92045.6
84641.9
75800.4
65558.9
54206.1
42049.5
29447
16776.3
4440.57
-7164.97
-17642.4
-26774.2
-34355.5
-40283.9
-44549.6
-47237.4
-48510.1
-48625.4
-47943.2
-46769.4
-44996.3
-39430.4
-36005.2
-31651
-27251.4
-22589.1
-17770.1
-12843.8
-7906.49
-3073.73
1510.73
5708.09
9373.75
12399
14707.9
16277.4
17141.7
17373.8
17112.6
16577.2
15777
14484.5
13029
11620.6
10205.6
8773.84
7322.65
5832.5
4299.1
2726.32
1134.35
-443.124
-1963.52
-3378.55
-4641.5
-5719.45
-6590.41
-7245.48
-7688.72
-7933.57
-7998.85
-7903.43
-7664.53
-7294.79
-6804.32
-6183.89
-5455.04
-4612.21
-3664.77
-2624.31
-1509.11
-342.758
846.725
2029.55
3175.14
4253.02
5235.79
6102.58
6827.23
7394.16
7795.91
8017.64
8044.74
7870.17
7485.67
6894.03
6090.6
5067.54
3915.49
2634.63
1156.57
-402.672
-1978.85
-3546.29
-5036.09
-6431
-7624.74
-8681.81
-9477.21
-10055.6
-10379.8
-10480.9
-10356
-10036.3
-9537.12
-8880.11
-8085.85
-7189.82
-6223.63
-5202.18
-4142.25
-3058.34
-1964.83
-884.735
183.871
1270.81
2325.27
3348.93
4341.84
5299.67
6217.5
7088.3
7902.35
8647.42
9308.98
9871.15
10318.8
10638.8
10819.3
10849
10732.8
10465.9
10053.8
9506.17
8836.45
8059.3
7189.9
6243.23
5233.09
4171.3
3068.8
1936.53
784.948
-380.381
-1535.62
-2663.4
-3744.78
-4759.02
-5686.6
-6509.86
-7212.88
-7783.12
-8211.35
-8491.34
-8619.69
-8601.59
-8445.47
-8158.44
-7751.82
-7238.74
-6633.99
-5954.23
-5217.71
-4442.88
-3648.26
-2851.91
-2070.62
-1319.56
-611.809
44.2905
642.593
1178.97
1654.56
2074.32
2445.71
2778.5
3083.94
3373.2
3655.74
3939.59
4230.03
4531.07
4837.34
65026.3
79117.1
92558.3
104717
115221
123967
131079
136802
141387
144990
147575
149111
149630
149266
148274
143892
139991
135382
129855
123246
115450
106441
96266.8
85039.3
72906.4
59997.4
46422.1
32269.3
17599
2442.8
-13170.7
-29387.6
-45646.2
-61882.7
-77837.7
-93164.1
-107432
-120154
-130827
-138982
-144226
-146280
-145289
-140765
-133213
-122942
-110381
-96018.9
-80357.3
-63882.9
-47040.4
-30215.4
-13735.4
2200.27
17144.8
31106.1
43900.1
55424.4
65581
74279.9
81437.6
86980
90846.1
93007.5
93406.1
92649
86725.1
82093.8
75355
67341.3
58097.8
47888.6
36992.4
25728.4
14427.9
3444.1
-6893.73
-16200.4
-24325.3
-31093.7
-36419.8
-40295.3
-42789.7
-44036.5
-44239.7
-43642.1
-42631.9
-41058.2
-36086.9
-32898.9
-28879
-24788.6
-20460
-15997.2
-11455.8
-6928.1
-2519.8
1639.1
5441.1
8748.57
11475.7
13560.2
14985.4
15782
16016.7
15803.2
15299.9
14600.3
13419.1
12091.9
10768.9
9427.92
8057.49
6662.34
5229.84
3761.2
2264.04
759.534
-720.249
-2136.55
-3445.94
-4608.96
-5595.69
-6388.41
-6980.05
-7374.68
-7584.29
-7625.24
-7513.6
-7263.92
-6887.12
-6391.81
-5769.89
-5041.65
-4203.45
-3265.52
-2240.32
-1146.44
-7.22794
1150.07
2296.91
3404.09
4442.62
5386.54
6215.41
6901.53
7439.03
7811.71
8006.48
8009.35
7812.85
7408.71
6799.37
5978.27
4941.53
3777.2
2481.87
992.561
-576.795
-2161.03
-3733.14
-5225.28
-6617.88
-7807.07
-8854.64
-9639.7
-10204.2
-10503.9
-10591.6
-10454.1
-10118.9
-9605.07
-8935.11
-8129.9
-7223.62
-6248.13
-5218.77
-4152.15
-3062.7
-1964.75
-881.04
190.656
1279.46
2335.95
3361.49
4356.56
5317.37
6239.36
7115.79
7936.96
8690.44
9361.32
9933.02
10389.5
10716.8
10902.2
10933.8
10816.9
10546.3
10127.8
9571.85
8892.69
8105.76
7226.95
6271.63
5253.64
4184.63
3075.14
1935.64
776.276
-397.748
-1562.47
-2700.3
-3791.87
-4815.91
-5752.31
-6583.02
-7291.82
-7865.99
-8296.41
-8577.05
-8701.91
-8681.28
-8520.79
-8228.12
-7814.8
-7294.08
-6680.81
-5991.83
-5245.55
-4460.67
-3656.04
-2850.07
-2059.94
-1301.21
-587.202
73.1334
673.709
1210.51
1684.27
2100.55
2467.11
2794.21
3093.71
3377.47
3655.51
3936.37
4225.74
4527.41
4837.19
57206.8
67835.3
78145.4
87763.7
96435.9
104052
110625
116235
120955
124792
127652
129444
130148
129878
129039
124697
120871
116456
111320
105357
98490.9
90683.5
81942
72312
61865.5
50676.5
38819.3
26369.6
13401.2
-19.0661
-13811.6
-28265.9
-42500.3
-56549.8
-70188.2
-83134.9
-95056.1
-105581
-114331
-120953
-125152
-126715
-125774
-121879
-115448
-106708
-95996.5
-83692.5
-70197.4
-55909
-41201.8
-26411.7
-11837.3
2318.05
15675.8
28152.9
39592.3
49889.3
58946
66676.2
73004.2
77866.1
81213
83025.4
83262.6
82474.2
76770.7
72538.1
66409.5
59163.5
50854.8
41725.1
32027.3
22044.6
12064.3
2390.92
-6717.32
-14856.7
-21974.6
-27918.1
-32620.4
-36076.5
-38343.8
-39529.4
-39790.7
-39280.9
-38382.3
-36992
-32621.2
-29665.6
-25981
-22203.9
-18216.3
-14120.5
-9978.32
-5878.74
-1916.84
1794.91
5167.88
8087.62
10488
12321.7
13580.1
14292.6
14517.9
14350.1
13883.4
13278.8
12219.3
11027.8
9797.11
8535.38
7230.88
5896.17
4526.87
3130.82
1720.27
317.805
-1046.27
-2337.86
-3520.2
-4559.23
-5432.88
-6127.81
-6639.41
-6971.97
-7135.74
-7144
-7009.3
-6742.8
-6353.39
-5847.62
-5219.79
-4488.26
-3652.65
-2724.58
-1717.98
-652.004
450.168
1562.4
2657.85
3709.36
4690.03
5575.75
6347.97
6982.9
7465.89
7791.13
7941.88
7904.29
7670.81
7233.61
6594.88
5748.09
4692.18
3510.54
2202.86
708.026
-862.054
-2442.96
-4006.46
-5486.74
-6862.96
-8034.44
-9059.75
-9824.22
-10365
-10641.7
-10706.8
-10547.2
-10193.1
-9662.78
-8979.15
-8162.64
-7245.68
-6261.47
-5225.32
-4153.31
-3059.63
-1958.54
-872.393
201.405
1291.12
2349.07
3376.14
4373.55
5337.88
6264.97
7148.49
7978.86
8743.3
9426.3
10010.3
10478.2
10814.8
11006.7
11040.7
10922.7
10647.3
10220.6
9654.13
8962.96
8163.66
7272.99
6306.85
5279.11
4201.17
3083.05
1934.61
765.573
-419.349
-1595.98
-2746.5
-3850.94
-4887.37
-5834.93
-6675.04
-7391.1
-7970.16
-8403.26
-8685.25
-8804.56
-8781.37
-8615.34
-8315.6
-7893.88
-7363.55
-6739.61
-6039.03
-5280.48
-4482.97
-3665.73
-2847.62
-2046.34
-1277.9
-556.022
109.716
713.228
1250.42
1721.85
2133.69
2494.1
2813.96
3105.9
3382.65
3654.97
3931.93
4219.7
4522.25
4836.01
50968.7
59175.7
67231.1
74922.5
82088.9
88640.5
94546.7
99802.2
104380
108196
111105
112972
113744
113521
112762
108423
104699
100490
95715.2
90307.4
84209.4
77381
69803.1
61479.2
52431.7
42693.5
32310.5
21345.8
9879.96
-1994.78
-14147.9
-27087.6
-39566.4
-51735.8
-63401.8
-74338
-84288.2
-92974.5
-100116
-105454
-108770
-109904
-108993
-105595
-100076
-92602.5
-83432
-72860.1
-61204.5
-48788.9
-35927.3
-22911.4
-10010.4
2584.15
14517.4
25667.7
35893.5
45089.7
53159.9
60022.7
65609.1
69864.1
72748.4
74250
74344
73538.2
68010
64132.3
58537.2
51957.4
44458.2
36261.5
27597.8
18719.4
9876.38
1332.15
-6719.45
-13842.3
-20080.4
-25295.4
-29436.9
-32503.4
-34543.3
-35641.8
-35920.5
-35487.8
-34632.5
-33380.4
-29551.1
-26796.2
-23410
-19911.6
-16226.3
-12452.7
-8656.9
-4924.26
-1341.52
1992.25
5004.21
7597.68
9719.86
11335.7
12443
13070.1
13269.4
13120.2
12687.1
12129.6
11172.3
10091.5
8940.82
7750.63
6508.25
5230.94
3920.18
2588.3
1250.94
-68.0756
-1339.34
-2531.55
-3612.2
-4552.07
-5333.63
-5947.26
-6390.67
-6668.96
-6791.6
-6770.07
-6614.53
-6333.67
-5934.6
-5422.11
-4791.33
-4058.87
-3226.18
-2305.58
-1311.9
-264.731
812.736
1894.95
2956.07
3970.14
4911.69
5758.02
6491.26
7087.2
7537.63
7831.51
7952.7
7888.03
7629.41
7168.91
6507.95
5638.4
4563.1
3361.71
2031.22
515.794
-1072.14
-2669.37
-4244.8
-5733.55
-7111.79
-8281.69
-9298.1
-10051.2
-10572.3
-10830.6
-10873.4
-10693.4
-10317.8
-9766.97
-9064.79
-8232.04
-7299.86
-6301.63
-5253.52
-4171.35
-3069.15
-1961.17
-869.418
209.194
1301.77
2362.79
3392.62
4393.25
5362.06
6295.47
7187.61
8028.98
8806.58
9504.24
10103.2
10585
10933.2
11132.9
11170.1
11050.6
10769.2
10332.6
9753.12
9047.24
8232.85
7327.82
6348.67
5309.34
4220.83
3092.53
1933.51
752.938
-445.112
-1636.13
-2802.06
-3922.18
-4973.69
-5934.82
-6786.34
-7511.16
-8096.08
-8532.24
-8814.41
-8930.05
-8902.45
-8729.47
-8421.13
-7989.28
-7447.39
-6810.58
-6096.01
-5322.65
-4509.86
-3677.34
-2844.53
-2029.7
-1249.45
-518.004
154.371
761.416
1298.99
1767.59
2173.97
2526.81
2837.76
3120.36
3388.44
3653.74
3925.85
4211.72
4515.39
4833.91
45834.4
52264.3
58631.3
64823.1
70747
76340.9
81562.9
86367
90671
94334.4
97170.2
99009.8
99779.2
99570.7
98859.8
94468.5
90853.3
86846.2
82402.6
77479
72031.9
66020.1
59409.1
52175.3
44307.8
35809.7
26704.3
17043.2
6908
-3595.07
-14295
-25884.8
-36829.3
-47372.8
-57344.9
-66566.1
-74843.6
-81973.9
-87754.9
-92000.7
-94558.2
-95304.2
-94412.3
-91398.9
-86623.9
-80200.4
-72324.3
-63222.7
-53144.5
-42351
-31103.6
-19653.6
-8241.65
2961.17
13598.6
23540.5
32656.1
40841.6
48003.6
54065.4
58965
62655.3
65105.7
66310.7
66260.2
65432
60049.3
56481.3
51355.7
45365
38584.6
31219.7
23480.7
15593.2
7774.84
252.44
-6844.98
-13030.5
-18453.8
-22985.1
-26589.8
-29271.3
-31072
-32059.7
-32326.3
-31954.7
-31114.9
-29971.9
-26635.7
-24068
-20958.1
-17720.5
-14318.5
-10846.8
-7375.45
-3986.23
-758.416
2220.64
4893.32
7175.67
9029.85
10431.3
11384.4
11917.5
12078.4
11934.1
11532.5
11005.6
10134.3
9158.63
8085.68
6964.68
5783.58
4563.07
3310.16
2041.37
775.655
-461.699
-1641.73
-2735.6
-3714.66
-4553.99
-5240.89
-5769.75
-6140.9
-6360.61
-6437.96
-6382.88
-6203.23
-5905.21
-5494.05
-4972.57
-4336.95
-3601.62
-2770.12
-1855.52
-873.731
155.056
1207.45
2258.39
3282.96
4256.42
5154.82
5956.91
6646.25
7201.5
7609.59
7866.39
7952.68
7855.81
7567.26
7079.05
6391.79
5496.57
4398.7
3174.39
1820.94
284.372
-1320.15
-2932.26
-4517.72
-6012.98
-7390.86
-8556.48
-9560.52
-10298.9
-10797.2
-11031
-11051.3
-10846.7
-10447.2
-9874.08
-9152
-8302
-7353.68
-6340.99
-5280.84
-4188.52
-3077.86
-1963.08
-865.843
217.56
1312.9
2377.12
3409.89
4414.22
5388.16
6328.89
7231.26
8085.84
8879.32
9594.65
10211.7
10710.2
11072.2
11281.5
11322.6
11201.2
10912.6
10464.1
9868.95
9145.49
8313.16
7391.21
6396.88
5344.15
4243.54
3103.6
1932.44
738.498
-474.928
-1682.9
-2867.05
-4005.75
-5075.17
-6052.38
-6917.39
-7652.5
-8244.22
-8683.65
-8964.87
-9079.02
-9044.66
-8863.44
-8545.01
-8101.29
-7545.84
-6893.93
-6162.95
-5372.16
-4541.37
-3690.84
-2840.66
-2009.8
-1215.57
-472.712
207.547
818.752
1356.63
1821.87
2221.69
2565.45
2865.72
3137.1
3394.74
3651.51
3917.78
4201.27
4506.22
4830.09
41510.4
46590
51652.5
56650.2
61539.8
66287
70854.4
75180.7
79154.4
82600
85298
87053.2
87778.4
87565.9
86891.9
82398.3
78888.3
75071.6
70929.2
66431.8
61544.2
56225.2
50431.3
44121.6
37263.3
29837.3
21849.2
13339.5
4386.69
-4902.03
-14399.5
-24689.8
-34277.1
-43410.5
-51922.3
-59674
-66525.9
-72334.6
-76960.6
-80277.4
-82182.3
-82586.4
-81699.9
-78988.8
-74821.7
-69271.7
-62485.7
-54635.3
-45912.8
-36526.4
-26691.8
-16624.2
-6536.67
3418.92
12888
21733.6
29837.7
37099.3
43429.2
48756.1
53024.1
56193.7
58241.7
59168.3
58975.2
58103.4
52889.5
49572.6
44855.2
39381.4
33234.1
26603.4
19682.6
12674.1
5767.77
-840.886
-7073.49
-12421.2
-17103.5
-21004.2
-24104.5
-26414.1
-27971.6
-28831.4
-29062
-28722.6
-27909.2
-26836.4
-23934.7
-21540.2
-18681.1
-15682.9
-12539.6
-9343.12
-6165.65
-3086.02
-177.608
2482.69
4850.51
6849.97
8457.47
9657.64
10460.5
10895.6
11007.3
10853.2
10473
9973.72
9162.63
8280.36
7281.24
6225.11
5103.03
3937.16
2739.01
1528.4
327.171
-837.809
-1937.46
-2944.47
-3833.12
-4581.63
-5181.89
-5631.78
-5934.47
-6097.78
-6131.01
-6043.06
-5839.98
-5525.84
-5103.87
-4575
-3935.64
-3198.02
-2367.18
-1456.64
-483.213
532.294
1566.12
2593.39
3589.79
4531.4
5395.53
6162.18
6815.82
7335.8
7712.18
7939.26
7997.16
7873.91
7560.25
7047.88
6336.17
5414.58
4292.25
3040.66
1656.42
87.6671
-1544.83
-3184.38
-4792.46
-6305.89
-7693.6
-8863.7
-9862.36
-10590.8
-11068.9
-11282.6
-11274.7
-11043
-10616
-10016.5
-9269.99
-8398.3
-7429.82
-6398.33
-5322.09
-4215.98
-3093.68
-1969.39
-864.444
225.571
1324.8
2393.05
3429.3
4437.74
5417.41
6366.39
7280.3
8149.93
8961.73
9697.61
10335.8
10854.1
11232.5
11453.2
11498.8
11375
11078
10615.3
10001.8
9257.62
8404.34
7462.82
6451.14
5383.28
4269.15
3116.25
1931.5
722.43
-508.656
-1736.2
-2941.52
-4101.89
-5192.19
-6188.15
-7068.79
-7815.79
-8415.26
-8858.28
-9138.96
-9250.33
-9208.37
-9017.65
-8687.61
-8230.23
-7659.22
-6989.96
-6240.07
-5429.2
-4577.62
-3706.25
-2835.92
-1986.46
-1175.97
-419.758
269.717
885.742
1423.73
1885.13
2277.2
2610.21
2897.88
3155.99
3401.23
3647.87
3907.21
4187.82
4494.17
4824.29
37806.8
41834
45863.9
49892.2
53911.7
57913.8
61873.1
65727.2
69352
72550.4
75077.5
76716.3
77372.7
77146.5
76508.6
71887.4
68469.5
64827
60957.5
56837.5
52435.9
47711.9
42617.2
37100.8
31115.2
24625.2
17622
10135.7
2239.48
-5962.73
-14398
-23349.1
-31886
-39803.4
-47052.3
-53539.6
-59171.5
-63853.5
-67495.8
-70019.5
-71362
-71465.4
-70572.2
-68098.4
-64427.8
-59605.3
-53739.1
-46956.1
-39401.6
-31239.4
-22645.1
-13800.9
-4894
3943.3
12354.7
20202.8
27382.6
33797.1
39362.1
44011.4
47695.7
50382.1
52053.9
52716.1
52379.5
51449.8
46417.1
43304.4
38938.5
33916.8
28326.6
22345
16150.2
9924.81
3835.77
-1947.74
-7356.47
-11982.1
-15984.6
-19297.4
-21918.1
-23864.6
-25174
-25891.2
-26065.9
-25737.9
-24951.1
-23925
-21401.9
-19170.1
-16539.5
-13762.2
-10857.2
-7913.64
-5005.53
-2209.07
407.13
2774.97
4862.72
6599.47
7974.05
8980.01
9632.99
9964.32
10016.6
9840.22
9470.21
8987.03
8241.24
7431.87
6502.8
5508.52
4443.68
3330.72
2184.92
1029.01
-112.444
-1210.73
-2236.06
-3162.02
-3965.02
-4626.39
-5141.86
-5513.14
-5746.52
-5851.86
-5839.09
-5716.53
-5488.6
-5157.38
-4723.87
-4187.05
-3543.32
-2802.39
-1970.79
-1062.36
-94.9458
909.934
1927.89
2934.07
3904.5
4815.96
5646.93
6378.66
6996.81
7483.04
7825.1
8021.95
8050.97
7900.92
7561.8
7024.79
6287.93
5339.22
4190.44
2908.58
1491.42
-114.117
-1778.65
-3450.19
-5085.31
-6620.86
-8021.26
-9197.63
-10191.5
-10909.7
-11363.4
-11547.1
-11517.5
-11255.8
-10798.8
-10170.6
-9397.58
-8502.43
-7512.32
-6460.66
-5367.28
-4246.48
-3111.76
-1977.28
-864.057
233.193
1336.67
2409.27
3449.21
4462.11
5448.03
6406.2
7333.18
8220.08
9053.02
9812.75
10475.6
11017
11414.6
11648.7
11699.9
11572.7
11265.9
10786.7
10151.7
9383.56
8506.12
7542.27
6511.07
5426.46
4297.56
3130.55
1930.87
704.959
-546.116
-1795.96
-3025.55
-4210.87
-5325.2
-6342.69
-7241.22
-8001.75
-8609.93
-9056.86
-9336.96
-9444.43
-9393.93
-9192.49
-8849.3
-8376.48
-7787.86
-7098.96
-6327.64
-5493.95
-4618.7
-3723.54
-2830.17
-1959.41
-1130.25
-358.574
341.487
963.047
1500.81
1957.9
2340.92
2661.38
2934.38
3176.96
3407.67
3642.43
3893.62
4170.76
4478.67
4815.88
34595.8
37787.2
40984.3
44212.9
47492.7
50837.5
54237.5
57638.1
60913.3
63853.7
66193.7
67698
68270.2
68024.9
67424.1
62695.7
59340.7
55853.7
52230.8
48446.1
44469.2
40260.2
35769.3
30940.1
25715.7
20049.5
13920.5
7349.28
403.303
-6817.21
-14278.5
-22081.9
-29654.9
-36513.7
-42665.9
-48061.8
-52647
-56366.4
-59169.4
-61014.5
-61872
-61710.7
-60804.5
-58514
-55247.8
-51030.7
-45941
-40069.7
-33523.5
-26428.3
-18924.7
-11165.2
-3312.74
4520.48
11974.6
18913.9
25248.3
30885.6
35746.6
39770.7
42914.7
45151.8
46471.4
46882.1
46400.6
45398.8
40564.3
37612.4
33545.8
28917.6
23815.9
18406.5
12854.6
7325.83
1968.54
-3071.29
-7723.91
-11700.2
-15075.8
-17839.2
-20003.4
-21595.4
-22653.8
-23216.8
-23319.6
-22986.1
-22225.9
-21229.8
-19031.3
-16953
-14529.9
-11956.2
-9269.67
-6557.31
-3894.46
-1355.07
995.934
3098.53
4928.51
6422.58
7578.28
8397.56
8901.56
9124.3
9108.23
8898.61
8528.88
8054.69
7370.14
6620.84
5757.71
4822.71
3813.31
2751.28
1654.84
549.263
-538.386
-1577.2
-2536.04
-3388.7
-4113.03
-4692.5
-5126.92
-5421.7
-5586.62
-5634
-5574.96
-5417.59
-5164.92
-4817.27
-4373.01
-3829.15
-3181.62
-2437.24
-1603.89
-695.542
268.946
1267.22
2274.03
3264.31
4214.14
5100.78
5903.72
6605.42
7192.5
7647.85
7961.29
8131.72
8135.24
7961.33
7598.99
7038.64
6276.56
5298.87
4121.38
2804.17
1347.89
-303.08
-2008.34
-3721.25
-5392.78
-6959.18
-8379.63
-9568.37
-10562.2
-11273.2
-11701.6
-11883.3
-11801.2
-11504.9
-11014
-10352.9
-9549.26
-8626.61
-7611.31
-6535.89
-5422.09
-4283.71
-3134.1
-1987.39
-864.266
241.561
1349.92
2427.26
3471.01
4488.4
5480.76
6448.68
7389.92
8296.03
9152.89
9939.82
10631
11199.2
11619.1
11868.9
11926.8
11794.9
11477
10978.9
10319
9523.14
8618.11
7629.05
6576.18
5473.31
4328.58
3146.51
1930.76
686.367
-587.076
-1862.06
-3119.22
-4332.98
-5474.73
-6516.75
-7435.55
-8211.28
-8829.17
-9280.33
-9559.37
-9662.2
-9601.82
-9388.46
-9030.56
-8540.48
-7932.19
-7221.32
-6425.98
-5566.66
-4664.75
-3742.75
-2823.31
-1928.41
-1078.1
-288.569
423.488
1050.95
1588.88
2040.74
2413.33
2719.23
2975.31
3199.87
3413.74
3634.62
3876.3
4149.35
4458.98
4804.3
31788.7
34307
36822.8
39382.8
42027
44788.5
47674.6
50643.5
53575.3
56255
58400.5
59758.8
60235
59963.1
59392.4
54654.9
51301.7
47950.3
44550.3
41063.8
37458.8
33697.1
29729.9
25499.4
20943.4
16006.8
10658.8
4910.91
-1175.6
-7503.29
-14063.9
-20739.4
-27575.8
-33509.7
-38703.8
-43155
-46840.8
-49737.2
-51823.6
-53087.9
-53526.4
-53131.5
-52212.2
-50058.6
-47119.1
-43404.1
-38969.2
-33876.8
-28201.9
-22038.1
-15495.3
-8699.49
-1790.3
5140.54
11727.3
17837.3
23397.5
28320.7
32532.9
35979.1
38622
40440.5
41429.1
41599.6
40971.4
39874.3
35275.8
32434.7
28619.5
24331.6
19656.2
14749.8
9765.99
4856.26
153.769
-4216.17
-8190.02
-11562.6
-14356
-16602.6
-18329.7
-19574.6
-20379.3
-20778
-20795.3
-20442.1
-19706.9
-18729.2
-16805.8
-14872.7
-12638.4
-10252.8
-7766.71
-5265.84
-2826.25
-520.205
1590.07
3450.87
5043.73
6312.69
7261.51
7900.02
8254.91
8363.87
8270.72
8017.37
7638.53
7169.59
6536.56
5840.05
5039.43
4162.04
3206.81
2194.07
1144.28
84.9067
-954.597
-1940.66
-2840.03
-3626.01
-4276.98
-4778.54
-5133.95
-5352.65
-5448.43
-5436.56
-5329.89
-5136.62
-4858.66
-4494.65
-4039.93
-3489.37
-2838.27
-2089.9
-1253.58
-343.222
621.168
1616.28
2615.68
3593.87
4526.69
5391.66
6169.26
6843.07
7400.92
7827.81
8112.62
8257.86
8237.15
8040.7
7656.4
7073.66
6286.71
5279.69
4071.51
2715.88
1216.5
-487.079
-2239.72
-4001.48
-5716.75
-7320.48
-8765.96
-9970.62
-10966.6
-11671.4
-12067
-12218.9
-12109.4
-11776.9
-11249.1
-10552.2
-9715.08
-8762.44
-7719.93
-6618.79
-5482.85
-4325.4
-3159.59
-1999.54
-865.556
249.874
1363.54
2445.82
3493.38
4515.3
5514.29
6492.63
7449.45
8376.96
9260.77
10078.6
10802.2
11401.1
11846.7
12114.9
12181.5
12042.3
11712.4
11192.3
10503.8
9676.2
8739.85
7722.61
6645.91
5523.44
4362.05
3164.23
1931.41
667.029
-631.254
-1934.36
-3222.6
-4468.58
-5641.38
-6711.11
-7652.68
-8445.34
-9073.95
-9529.69
-9806.57
-9898.95
-9832.46
-9606.08
-9231.88
-8722.7
-8092.65
-7357.45
-6535.44
-5647.6
-4715.94
-3763.86
-2815.16
-1893.14
-1019.08
-209.002
516.357
1150.4
1689.15
2133.93
2494.98
2784.12
3020.89
3224.62
3419.04
3623.89
3854.54
4122.77
4434.26
4788.5
29322.6
31293.4
33245.5
35240.2
37332.7
39572.4
41983.4
44540.5
47135.6
49554.7
51501.3
52705.3
53073.6
52759.7
52180.8
47668.2
44190.3
40957
37759.4
34537.9
31257.8
27883.9
24371.2
20663.6
16696.9
12410.2
7764.08
2761.25
-2543.54
-8056.41
-13806.8
-19666.3
-25662.3
-30761.7
-35113.5
-38745.6
-41658.8
-43852.4
-45327.8
-46095.1
-46171.6
-45569.6
-44641.9
-42584.2
-39904.8
-36603.6
-32719.3
-28291.9
-23370.1
-18020.3
-12325.4
-6387.36
-325.979
5797.95
11595.8
16947.7
21797.9
26064
29677.5
32588.9
34766.2
36193.6
36870.5
36810.7
36034.9
34822.7
30490.2
27714.5
24108.7
20113
15807.5
11341.3
6858.08
2497.26
-1619.77
-5385.73
-8745.92
-11558
-13807.6
-15565.4
-16872
-17775.9
-18324.4
-18550.4
-18470.5
-18085.4
-17373.3
-16406.6
-14713.3
-12917.9
-10856
-8644.16
-6341.99
-4034.14
-1797.1
297.942
2190.54
3831.95
5205.62
6265.7
7018.36
7481.02
7686.06
7675.96
7497.3
7190.47
6794.26
6327.61
5735.83
5087.92
4347.39
3526.74
2624.72
1659.67
653.556
-364.152
-1361.68
-2302.21
-3149.47
-3875.6
-4458.75
-4885.96
-5164.15
-5306.96
-5332.81
-5260.5
-5105.11
-4875.37
-4572.2
-4192.67
-3728.42
-3172.04
-2518.41
-1765.6
-925.205
-10.5847
956.86
1952.74
2949.08
3919.72
4839.92
5687.3
6443.22
7092.43
7623.92
8024.41
8283.91
8406.3
8363.68
8146.79
7742.16
7137.91
6325.81
5287.82
4046.37
2647.74
1099.86
-665.099
-2473.26
-4292.95
-6061.15
-7710.51
-9187.73
-10413.5
-11414.8
-12116.3
-12471.7
-12597
-12453.7
-12081.4
-11512.7
-10775.9
-9901.17
-8914.68
-7841.68
-6711.82
-5550.88
-4371.89
-3187.83
-2012.82
-866.728
259.621
1378.91
2466.1
3517.19
4543.24
5548.59
6537.56
7510.94
8461.9
9375.73
10228.4
10989
11623.1
12098.3
12387.4
12464.4
12315.1
11972.7
11427.6
10706.2
9842.35
8870.67
7822.1
6719.47
5576.27
4397.77
3183.81
1933.22
647.405
-678.277
-2012.67
-3335.76
-4618.09
-5825.9
-6926.79
-7893.78
-8705.15
-9345.53
-9806.43
-10079.6
-10165.7
-10087.1
-9846.04
-9453.85
-8923.69
-8269.77
-7507.84
-6656.46
-5737.12
-4772.48
-3786.97
-2805.63
-1853.29
-952.91
-119.002
620.864
1262.5
1801.55
2239.21
2586.12
2856.81
3070.76
3250.98
3422.97
3609.51
3827.44
4090.02
4403.51
4768.27
27151.5
28674.7
30157
31670
33279.6
35047.8
37015.2
39175.6
41437.6
43594.2
45337.1
46378.9
46627.8
46248.4
45579.6
41672.4
37871
34748.4
31736.8
28750.5
25751.8
22711.2
19590.2
16338
12891
9184.85
5172.94
848.924
-3740.06
-8503.97
-13515.8
-18618.6
-23888.8
-28229.5
-31843.5
-34766.7
-37019
-38615.3
-39572.1
-39915.6
-39679.6
-38893.8
-37966
-35967.1
-33489.7
-30525.7
-27101.7
-23240.1
-18968.6
-14330.4
-9384.46
-4211.5
1092.31
6483.57
11566.3
16223.7
20422
24083.2
27144.2
29560.4
31304.9
32367
32749.9
32469.9
31547.8
30223.9
26138.1
23406.2
19974.3
16227.2
12239.9
8156.4
4111.59
234.929
-3360.44
-6582.83
-9386.79
-11677.9
-13417.8
-14711.5
-15612.2
-16180
-16469.6
-16514.6
-16326.3
-15897.4
-15205.6
-14243.8
-12741.3
-11077
-9173.5
-7123.72
-4991.24
-2859.88
-806.27
1099.01
2796.16
4239.4
5411.87
6279.17
6846.28
7137.81
7191.92
7057.02
6783.85
6412.94
5989.81
5522.79
4960.76
4358.98
3677.21
2913.7
2065.17
1147.29
182.698
-797.491
-1759.33
-2661.94
-3464.93
-4138.39
-4659.27
-5015.67
-5217.94
-5284.35
-5238.7
-5103.93
-4898.04
-4630.66
-4302.01
-3907.63
-3434.95
-2873.36
-2219.27
-1461.43
-616.092
304.92
1278.5
2279.05
3276.62
4244.08
5155.78
5989.17
6726.46
7353.53
7860.78
8237.19
8472.39
8573.34
8510.77
8275.4
7852.4
7228.2
6391.89
5322.87
4045.95
2601.39
1000.38
-834.758
-2706.74
-4593.82
-6424.42
-8127.54
-9642.89
-10894.2
-11902.3
-12592.3
-12921.7
-13012.2
-12829.1
-12413.2
-11799.8
-11019.4
-10103.7
-9080.33
-7974.32
-6813.52
-5625.35
-4422.97
-3219.07
-2027.77
-868.555
270.334
1395.49
2487.44
3541.76
4571.49
5582.86
6582.61
7573.55
8550.03
9497.25
10388.9
11191.5
11865.8
12374.6
12687.8
12781.8
12613.9
12259.8
11686
10926.8
10021.6
9010.09
7926.79
6796.07
5631.3
4435.53
3205.4
1936.48
627.97
-727.874
-2096.9
-3458.97
-4782.11
-6029.17
-7164.91
-8160.08
-8991.9
-9645.11
-10111.9
-10379
-10456.9
-10366.3
-10109
-9697.06
-9144.02
-8464.1
-7673.01
-6789.48
-5835.55
-4834.58
-3812.07
-2794.51
-1808.41
-879.392
-17.2314
737.972
1388.14
1927.06
2357.2
2687.89
2937.53
3125.42
3278.97
3425.17
3590.89
3794.09
4050.02
4365.64
4742.62
25849
27117.8
28329.2
29559.8
30880.1
32358.8
34046.7
35951.6
37996.1
39980.5
41589.1
42520.9
42685.6
42264
41551.1
38088
34040.8
30994.6
28097.3
25250.1
22415.2
19568.6
16678
13697.3
10564.6
7213.47
3592.38
-311.649
-4456.85
-8753.56
-13308.4
-17952.7
-22787.3
-26653.3
-29827.8