/*--------------------------------*- C++ -*----------------------------------*\
| =========                 |                                                 |
| \\      /  F ield         | OpenFOAM: The Open Source CFD Toolbox           |
|  \\    /   O peration     | Version:  v1912                                 |
|   \\  /    A nd           | Website:  www.openfoam.com                      |
|    \\/     M anipulation  |                                                 |
\*---------------------------------------------------------------------------*/
FoamFile
{
    version     2.0;
    format      ascii;
    class       volScalarField;
    location    "100";
    object      nut;
}
// * * * * * * * * * * * * * * * * * * * * * * * * * * * * * * * * * * * * * //

dimensions      [0 2 -1 0 0 0 0];


internalField   nonuniform List<scalar> 
14268
(
9.62629e-11
9.91812e-11
1.02557e-10
1.06922e-10
1.12401e-10
1.18423e-10
1.2495e-10
1.32762e-10
1.42298e-10
1.5256e-10
1.65013e-10
1.81444e-10
2.02427e-10
2.29379e-10
2.65761e-10
3.16232e-10
3.85236e-10
4.7129e-10
5.77789e-10
7.48535e-10
1.14492e-09
2.07277e-09
4.0392e-09
7.13053e-09
9.43453e-09
9.98387e-09
8.26684e-09
5.39036e-09
3.55195e-09
2.41089e-09
1.67877e-09
1.15038e-09
7.62653e-10
5.33277e-10
4.13498e-10
3.43924e-10
2.84636e-10
2.2271e-10
1.67657e-10
1.24452e-10
9.49812e-11
7.80312e-11
4.99151e-11
2.07427e-11
3.13162e-09
3.2697e-09
3.46949e-09
3.75023e-09
4.11946e-09
4.55695e-09
5.0641e-09
5.67156e-09
6.4023e-09
7.22985e-09
8.27284e-09
9.68668e-09
1.14909e-08
1.37501e-08
1.6685e-08
2.06879e-08
2.60887e-08
3.25065e-08
3.95526e-08
4.85748e-08
6.51482e-08
9.91596e-08
1.57291e-07
2.27273e-07
2.7473e-07
2.9025e-07
2.72416e-07
1.98158e-07
1.11311e-07
6.97367e-08
4.95445e-08
3.2783e-08
2.02754e-08
1.38257e-08
1.11114e-08
9.67324e-09
8.27045e-09
6.67019e-09
5.18875e-09
3.97021e-09
3.09317e-09
2.57911e-09
1.7185e-09
7.38735e-10
2.51431e-08
2.64958e-08
2.84354e-08
3.10874e-08
3.44725e-08
3.83886e-08
4.28219e-08
4.79225e-08
5.37044e-08
5.99328e-08
6.72151e-08
7.6318e-08
8.68482e-08
9.87137e-08
1.12345e-07
1.28401e-07
1.46888e-07
1.65745e-07
1.84049e-07
2.04627e-07
2.34514e-07
2.80917e-07
3.4175e-07
3.96599e-07
4.31726e-07
4.49347e-07
4.57165e-07
4.1153e-07
3.32325e-07
2.5578e-07
1.95147e-07
1.35408e-07
8.63075e-08
6.05315e-08
5.13721e-08
4.73715e-08
4.31986e-08
3.72401e-08
3.02071e-08
2.36891e-08
1.88065e-08
1.62374e-08
1.13632e-08
5.20438e-09
9.13011e-08
9.50693e-08
1.00261e-07
1.07013e-07
1.15098e-07
1.2372e-07
1.32689e-07
1.41998e-07
1.51555e-07
1.61061e-07
1.71306e-07
1.83226e-07
1.95834e-07
2.08538e-07
2.21285e-07
2.34292e-07
2.47907e-07
2.61033e-07
2.72144e-07
2.83233e-07
3.00611e-07
3.27905e-07
3.65425e-07
4.09431e-07
4.41233e-07
4.57861e-07
4.68323e-07
4.32743e-07
3.82931e-07
3.32898e-07
2.86564e-07
2.27476e-07
1.67859e-07
1.31802e-07
1.18119e-07
1.11059e-07
1.03587e-07
9.3189e-08
8.07363e-08
6.78262e-08
5.72118e-08
5.10506e-08
3.77093e-08
1.86889e-08
1.72532e-07
1.76612e-07
1.82103e-07
1.88865e-07
1.96356e-07
2.03773e-07
2.10978e-07
2.18004e-07
2.24888e-07
2.31423e-07
2.38321e-07
2.4574e-07
2.53012e-07
2.59947e-07
2.66778e-07
2.73791e-07
2.80845e-07
2.87188e-07
2.92919e-07
2.99606e-07
3.11703e-07
3.33408e-07
3.67139e-07
4.10389e-07
4.42298e-07
4.58708e-07
4.68707e-07
4.33599e-07
3.88122e-07
3.46768e-07
3.11884e-07
2.7056e-07
2.22657e-07
1.90684e-07
1.7746e-07
1.69708e-07
1.61382e-07
1.5007e-07
1.36065e-07
1.2094e-07
1.0739e-07
9.91319e-08
7.94358e-08
4.38718e-08
2.28801e-07
2.31471e-07
2.34877e-07
2.38925e-07
2.4333e-07
2.47544e-07
2.51522e-07
2.55169e-07
2.58642e-07
2.61753e-07
2.65031e-07
2.68626e-07
2.72362e-07
2.76209e-07
2.79976e-07
2.8387e-07
2.88144e-07
2.92392e-07
2.96443e-07
3.02052e-07
3.12921e-07
3.33607e-07
3.66922e-07
4.1099e-07
4.43884e-07
4.60289e-07
4.69407e-07
4.33855e-07
3.87805e-07
3.48602e-07
3.18028e-07
2.82676e-07
2.46126e-07
2.2149e-07
2.10395e-07
2.03858e-07
1.97484e-07
1.88747e-07
1.77828e-07
1.64862e-07
1.52519e-07
1.44296e-07
1.2408e-07
7.90549e-08
2.56861e-07
2.58234e-07
2.60023e-07
2.62061e-07
2.64152e-07
2.66036e-07
2.67661e-07
2.69073e-07
2.70508e-07
2.71868e-07
2.73464e-07
2.75435e-07
2.77679e-07
2.802e-07
2.83051e-07
2.86156e-07
2.89661e-07
2.93244e-07
2.9705e-07
3.02344e-07
3.13112e-07
3.33779e-07
3.66911e-07
4.13128e-07
4.49645e-07
4.66666e-07
4.72038e-07
4.33935e-07
3.88254e-07
3.48771e-07
3.18703e-07
2.87043e-07
2.55206e-07
2.33986e-07
2.2445e-07
2.1931e-07
2.14887e-07
2.09324e-07
2.02031e-07
1.92967e-07
1.83606e-07
1.78343e-07
1.60433e-07
1.15297e-07
2.70197e-07
2.70748e-07
2.71468e-07
2.72224e-07
2.73003e-07
2.73673e-07
2.7428e-07
2.74783e-07
2.75398e-07
2.75944e-07
2.768e-07
2.7803e-07
2.7962e-07
2.81591e-07
2.84054e-07
2.86829e-07
2.90056e-07
2.93672e-07
2.97204e-07
3.02548e-07
3.13136e-07
3.3364e-07
3.66818e-07
4.17638e-07
4.61946e-07
4.80449e-07
4.78337e-07
4.35906e-07
3.88037e-07
3.48602e-07
3.18834e-07
2.88918e-07
2.59944e-07
2.39458e-07
2.29459e-07
2.25185e-07
2.22106e-07
2.1874e-07
2.14325e-07
2.08295e-07
2.02562e-07
1.991e-07
1.86927e-07
1.48491e-07
2.75687e-07
2.75763e-07
2.75868e-07
2.75925e-07
2.76031e-07
2.76078e-07
2.76122e-07
2.76077e-07
2.76218e-07
2.7641e-07
2.76993e-07
2.78005e-07
2.79456e-07
2.8141e-07
2.83902e-07
2.86746e-07
2.90014e-07
2.93407e-07
2.97089e-07
3.02294e-07
3.12973e-07
3.33814e-07
3.67497e-07
4.26351e-07
4.84381e-07
5.06713e-07
4.91e-07
4.39243e-07
3.88731e-07
3.48467e-07
3.17994e-07
2.88251e-07
2.60379e-07
2.4027e-07
2.30576e-07
2.2655e-07
2.24868e-07
2.22628e-07
2.19738e-07
2.15868e-07
2.1274e-07
2.10916e-07
2.03141e-07
1.72767e-07
2.77574e-07
2.77449e-07
2.77291e-07
2.77067e-07
2.76934e-07
2.76762e-07
2.76595e-07
2.76379e-07
2.76455e-07
2.76606e-07
2.77184e-07
2.78233e-07
2.79711e-07
2.81624e-07
2.8406e-07
2.86869e-07
2.9008e-07
2.93588e-07
2.97185e-07
3.02427e-07
3.13208e-07
3.34321e-07
3.70078e-07
4.40233e-07
5.1997e-07
5.51056e-07
5.15012e-07
4.46046e-07
3.9049e-07
3.48988e-07
3.17919e-07
2.89038e-07
2.61393e-07
2.40883e-07
2.3136e-07
2.27778e-07
2.26185e-07
2.24341e-07
2.22035e-07
2.1962e-07
2.1801e-07
2.15767e-07
2.13527e-07
1.91991e-07
2.78319e-07
2.78089e-07
2.77843e-07
2.77541e-07
2.77303e-07
2.77052e-07
2.76859e-07
2.76643e-07
2.76641e-07
2.76751e-07
2.77287e-07
2.78255e-07
2.79644e-07
2.81466e-07
2.83856e-07
2.86664e-07
2.89936e-07
2.93418e-07
2.96965e-07
3.02378e-07
3.13222e-07
3.34897e-07
3.74226e-07
4.59173e-07
5.72644e-07
6.18877e-07
5.58131e-07
4.59487e-07
3.93437e-07
3.49725e-07
3.18606e-07
2.89147e-07
2.61146e-07
2.40948e-07
2.31567e-07
2.28074e-07
2.26702e-07
2.24988e-07
2.23096e-07
2.2143e-07
2.20522e-07
2.18232e-07
2.18844e-07
2.05436e-07
2.78582e-07
2.78333e-07
2.78087e-07
2.77768e-07
2.77503e-07
2.77229e-07
2.77018e-07
2.76792e-07
2.76804e-07
2.769e-07
2.77378e-07
2.78293e-07
2.79631e-07
2.81464e-07
2.83891e-07
2.86774e-07
2.90046e-07
2.93525e-07
2.97182e-07
3.02449e-07
3.13469e-07
3.36553e-07
3.80714e-07
4.89088e-07
6.52289e-07
7.20834e-07
6.268e-07
4.81425e-07
3.99033e-07
3.50935e-07
3.18991e-07
2.89286e-07
2.61053e-07
2.40969e-07
2.31216e-07
2.27777e-07
2.26519e-07
2.25041e-07
2.23322e-07
2.22183e-07
2.21599e-07
2.18948e-07
2.22681e-07
2.15418e-07
2.78703e-07
2.78453e-07
2.78192e-07
2.77854e-07
2.7757e-07
2.7727e-07
2.7702e-07
2.76751e-07
2.76743e-07
2.76783e-07
2.77249e-07
2.78195e-07
2.79588e-07
2.81483e-07
2.83931e-07
2.86758e-07
2.89953e-07
2.93414e-07
2.97043e-07
3.02392e-07
3.13967e-07
3.38541e-07
3.91567e-07
5.34221e-07
7.72135e-07
8.74484e-07
7.31866e-07
5.17102e-07
4.08647e-07
3.53763e-07
3.19528e-07
2.88945e-07
2.60611e-07
2.4029e-07
2.31308e-07
2.2823e-07
2.26807e-07
2.25064e-07
2.23435e-07
2.22607e-07
2.22211e-07
2.20208e-07
2.23914e-07
2.21e-07
2.7878e-07
2.78511e-07
2.78213e-07
2.77827e-07
2.77504e-07
2.77167e-07
2.76867e-07
2.76536e-07
2.76524e-07
2.76611e-07
2.77157e-07
2.78149e-07
2.79565e-07
2.81443e-07
2.839e-07
2.86761e-07
2.89946e-07
2.93341e-07
2.97079e-07
3.02532e-07
3.14319e-07
3.4139e-07
4.07271e-07
5.98335e-07
9.36959e-07
1.0816e-06
8.8111e-07
5.71463e-07
4.24216e-07
3.58532e-07
3.21364e-07
2.89401e-07
2.61128e-07
2.41262e-07
2.32008e-07
2.28578e-07
2.26978e-07
2.2523e-07
2.23524e-07
2.22685e-07
2.22505e-07
2.20336e-07
2.24994e-07
2.23997e-07
2.78746e-07
2.78453e-07
2.78146e-07
2.77761e-07
2.77461e-07
2.77157e-07
2.76918e-07
2.76669e-07
2.76702e-07
2.76817e-07
2.77329e-07
2.78257e-07
2.79636e-07
2.81473e-07
2.8383e-07
2.86593e-07
2.89897e-07
2.93369e-07
2.96946e-07
3.02653e-07
3.15308e-07
3.47561e-07
4.40272e-07
7.3318e-07
1.2819e-06
1.51129e-06
1.18877e-06
6.90652e-07
4.64464e-07
3.71566e-07
3.26765e-07
2.90837e-07
2.60365e-07
2.40767e-07
2.31642e-07
2.28258e-07
2.26828e-07
2.25263e-07
2.23659e-07
2.22851e-07
2.22761e-07
2.21215e-07
2.24334e-07
2.26256e-07
2.78763e-07
2.78474e-07
2.78172e-07
2.77789e-07
2.77484e-07
2.77185e-07
2.76944e-07
2.76674e-07
2.76625e-07
2.76646e-07
2.77104e-07
2.78046e-07
2.79433e-07
2.81329e-07
2.83813e-07
2.86679e-07
2.89875e-07
2.93243e-07
2.97039e-07
3.0299e-07
3.18312e-07
3.63123e-07
5.17772e-07
1.04208e-06
2.05642e-06
2.46519e-06
1.85279e-06
9.52828e-07
5.52957e-07
4.0358e-07
3.4158e-07
2.96731e-07
2.62688e-07
2.41533e-07
2.32044e-07
2.28711e-07
2.27244e-07
2.25246e-07
2.23517e-07
2.22719e-07
2.22774e-07
2.20915e-07
2.24776e-07
2.27292e-07
2.78725e-07
2.78433e-07
2.78135e-07
2.77758e-07
2.77455e-07
2.77142e-07
2.76883e-07
2.76603e-07
2.76598e-07
2.76675e-07
2.77197e-07
2.78175e-07
2.7961e-07
2.81543e-07
2.8396e-07
2.86647e-07
2.89961e-07
2.93469e-07
2.97148e-07
3.03827e-07
3.23029e-07
3.91012e-07
6.52477e-07
1.58064e-06
3.34114e-06
4.01526e-06
2.94564e-06
1.40481e-06
7.12216e-07
4.59639e-07
3.64594e-07
3.05429e-07
2.66253e-07
2.43988e-07
2.33426e-07
2.29607e-07
2.27948e-07
2.25946e-07
2.24052e-07
2.23106e-07
2.2312e-07
2.21154e-07
2.23975e-07
2.27878e-07
2.78708e-07
2.78402e-07
2.78092e-07
2.77694e-07
2.77381e-07
2.77053e-07
2.76785e-07
2.76517e-07
2.7652e-07
2.76591e-07
2.77071e-07
2.78003e-07
2.79442e-07
2.8139e-07
2.83768e-07
2.86535e-07
2.89915e-07
2.93304e-07
2.97504e-07
3.05288e-07
3.31731e-07
4.37084e-07
8.68815e-07
2.42136e-06
5.24693e-06
6.27758e-06
4.53447e-06
2.11403e-06
9.83251e-07
5.60535e-07
4.09302e-07
3.2599e-07
2.76868e-07
2.50315e-07
2.38642e-07
2.34064e-07
2.31321e-07
2.27972e-07
2.25107e-07
2.23566e-07
2.23211e-07
2.21528e-07
2.24277e-07
2.27419e-07
2.78659e-07
2.78368e-07
2.78074e-07
2.77698e-07
2.77407e-07
2.77116e-07
2.76889e-07
2.76645e-07
2.76658e-07
2.76768e-07
2.7728e-07
2.78257e-07
2.79696e-07
2.8161e-07
2.84093e-07
2.86953e-07
2.90289e-07
2.93819e-07
2.97811e-07
3.07704e-07
3.45638e-07
5.10018e-07
1.19997e-06
3.64745e-06
7.81705e-06
9.22017e-06
6.65206e-06
3.16213e-06
1.40502e-06
7.30664e-07
4.90234e-07
3.6653e-07
2.99521e-07
2.6504e-07
2.50029e-07
2.42988e-07
2.3813e-07
2.3224e-07
2.27303e-07
2.24666e-07
2.23693e-07
2.21135e-07
2.24352e-07
2.27434e-07
2.78596e-07
2.78311e-07
2.78035e-07
2.77674e-07
2.77366e-07
2.77047e-07
2.76791e-07
2.76517e-07
2.76543e-07
2.76646e-07
2.7715e-07
2.78104e-07
2.79538e-07
2.8148e-07
2.8397e-07
2.86803e-07
2.90076e-07
2.93703e-07
2.9854e-07
3.11222e-07
3.65792e-07
6.15904e-07
1.67313e-06
5.30417e-06
1.08944e-05
1.26238e-05
9.20993e-06
4.59347e-06
2.04416e-06
9.99016e-07
6.19935e-07
4.39557e-07
3.46721e-07
3.00053e-07
2.77817e-07
2.6513e-07
2.52263e-07
2.41056e-07
2.32888e-07
2.27406e-07
2.246e-07
2.21808e-07
2.23039e-07
2.28406e-07
2.78566e-07
2.78285e-07
2.78005e-07
2.776e-07
2.77284e-07
2.77002e-07
2.76783e-07
2.76555e-07
2.76589e-07
2.7672e-07
2.77323e-07
2.78368e-07
2.799e-07
2.81919e-07
2.84444e-07
2.87437e-07
2.90675e-07
2.94493e-07
2.99771e-07
3.16863e-07
3.9652e-07
7.69657e-07
2.32621e-06
7.38759e-06
1.44458e-05
1.64918e-05
1.22285e-05
6.30007e-06
2.91739e-06
1.40358e-06
8.38815e-07
5.7758e-07
4.45519e-07
3.69846e-07
3.23279e-07
2.91249e-07
2.67033e-07
2.49019e-07
2.37544e-07
2.29463e-07
2.25476e-07
2.23016e-07
2.22465e-07
2.28676e-07
2.78592e-07
2.78323e-07
2.78035e-07
2.77658e-07
2.77384e-07
2.77092e-07
2.76861e-07
2.76614e-07
2.76663e-07
2.76777e-07
2.7731e-07
2.78281e-07
2.79669e-07
2.81536e-07
2.84034e-07
2.86975e-07
2.90487e-07
2.95724e-07
3.10237e-07
3.78041e-07
7.20234e-07
2.30767e-06
8.25913e-06
2.26112e-05
3.5329e-05
3.76283e-05
3.00847e-05
1.93234e-05
1.14813e-05
6.72701e-06
4.34116e-06
2.86643e-06
1.84695e-06
1.15441e-06
7.43278e-07
5.22223e-07
3.99889e-07
3.25227e-07
2.80029e-07
2.53652e-07
2.3859e-07
2.28855e-07
2.25625e-07
2.27133e-07
2.79045e-07
2.78774e-07
2.785e-07
2.78144e-07
2.77831e-07
2.77507e-07
2.77277e-07
2.77036e-07
2.77031e-07
2.77104e-07
2.77608e-07
2.78568e-07
2.79958e-07
2.81891e-07
2.84396e-07
2.87566e-07
2.9267e-07
3.08638e-07
3.84968e-07
7.85716e-07
2.73704e-06
1.02845e-05
2.79753e-05
5.20149e-05
7.00086e-05
7.38186e-05
6.15037e-05
4.33128e-05
3.13359e-05
2.25089e-05
1.68368e-05
1.20518e-05
7.87964e-06
4.69095e-06
2.71718e-06
1.63686e-06
1.03813e-06
6.91407e-07
4.88231e-07
3.68984e-07
3.01025e-07
2.64018e-07
2.43333e-07
2.31672e-07
2.78789e-07
2.7849e-07
2.78153e-07
2.77694e-07
2.77386e-07
2.77059e-07
2.76798e-07
2.76522e-07
2.76574e-07
2.76628e-07
2.77087e-07
2.77972e-07
2.7928e-07
2.81142e-07
2.83846e-07
2.88352e-07
3.01601e-07
3.65867e-07
7.05873e-07
2.38546e-06
9.08792e-06
2.57234e-05
4.97106e-05
8.40869e-05
0.000101777
0.000105929
9.83133e-05
7.91761e-05
5.81428e-05
4.29265e-05
3.37711e-05
2.64106e-05
1.88812e-05
1.19468e-05
7.04929e-06
4.16295e-06
2.53238e-06
1.57439e-06
1.0063e-06
6.74964e-07
4.8464e-07
3.7511e-07
2.99589e-07
2.55388e-07
2.78621e-07
2.78332e-07
2.78027e-07
2.77619e-07
2.77309e-07
2.76955e-07
2.76712e-07
2.76465e-07
2.76473e-07
2.76533e-07
2.77025e-07
2.78e-07
2.79381e-07
2.81376e-07
2.84401e-07
2.92968e-07
3.34478e-07
5.55364e-07
1.64644e-06
6.11673e-06
1.83774e-05
3.72542e-05
7.05589e-05
0.000101195
0.000116215
0.000120794
0.000118055
0.000106914
9.08621e-05
7.08801e-05
5.58169e-05
4.34986e-05
3.2122e-05
2.12944e-05
1.30222e-05
7.96887e-06
5.04389e-06
3.28032e-06
2.16689e-06
1.47396e-06
1.0676e-06
8.30931e-07
5.65288e-07
3.77641e-07
2.78589e-07
2.78264e-07
2.77876e-07
2.77332e-07
2.76929e-07
2.76502e-07
2.7618e-07
2.75817e-07
2.75768e-07
2.75651e-07
2.75905e-07
2.76467e-07
2.7726e-07
2.78662e-07
2.82718e-07
3.04089e-07
4.18735e-07
9.83227e-07
3.32424e-06
1.05214e-05
2.4367e-05
4.53782e-05
8.1941e-05
0.00010744
0.000120014
0.000125948
0.00012634
0.000121255
0.000114485
0.000101424
8.27535e-05
6.40026e-05
4.60564e-05
3.00463e-05
1.86846e-05
1.24884e-05
9.36996e-06
7.42235e-06
5.83443e-06
4.64817e-06
3.90178e-06
3.45895e-06
2.24394e-06
1.23951e-06
2.77834e-07
2.77462e-07
2.76978e-07
2.76286e-07
2.75712e-07
2.75007e-07
2.74426e-07
2.73844e-07
2.73448e-07
2.72921e-07
2.72588e-07
2.7226e-07
2.71832e-07
2.7193e-07
2.78215e-07
3.2626e-07
5.79752e-07
1.63292e-06
5.05843e-06
1.32156e-05
2.63257e-05
5.13242e-05
8.54987e-05
0.000107129
0.000118604
0.000126469
0.000128245
0.000125567
0.000122013
0.000112304
9.54533e-05
7.45048e-05
5.22982e-05
3.41863e-05
2.42046e-05
2.17058e-05
2.36134e-05
2.55242e-05
2.36439e-05
2.13352e-05
1.95092e-05
1.80953e-05
1.2063e-05
6.78022e-06
2.76417e-07
2.75655e-07
2.74731e-07
2.73454e-07
2.72039e-07
2.70389e-07
2.68745e-07
2.66914e-07
2.64916e-07
2.6277e-07
2.60293e-07
2.5694e-07
2.52559e-07
2.48716e-07
2.59022e-07
3.51912e-07
7.6542e-07
2.13563e-06
5.8056e-06
1.35342e-05
2.65154e-05
5.26945e-05
8.3979e-05
0.00010329
0.000114476
0.00012401
0.000126298
0.000122496
0.000117961
0.000106313
8.93398e-05
6.92571e-05
5.09859e-05
4.09202e-05
4.19159e-05
6.23055e-05
8.9724e-05
0.000108067
0.000104978
9.67604e-05
8.95521e-05
8.26633e-05
5.73829e-05
3.49504e-05
2.71691e-07
2.69961e-07
2.67892e-07
2.65084e-07
2.61456e-07
2.57259e-07
2.52721e-07
2.47693e-07
2.42188e-07
2.36267e-07
2.28979e-07
2.18939e-07
2.074e-07
1.9792e-07
2.15864e-07
3.47256e-07
8.25999e-07
2.19323e-06
5.5981e-06
1.27573e-05
2.58444e-05
5.04765e-05
7.78595e-05
9.43114e-05
0.000104631
0.000116548
0.000120799
0.000116951
0.000107917
9.35985e-05
8.05538e-05
6.96634e-05
6.67887e-05
7.70833e-05
0.000130429
0.000238314
0.000326746
0.000376664
0.000365625
0.000337325
0.000312415
0.000284905
0.000209683
0.000140787
2.59888e-07
2.55802e-07
2.5087e-07
2.4442e-07
2.36001e-07
2.26362e-07
2.15847e-07
2.04576e-07
1.9283e-07
1.80774e-07
1.66663e-07
1.49873e-07
1.34097e-07
1.25183e-07
1.5304e-07
2.9652e-07
7.47497e-07
1.99232e-06
4.99171e-06
1.13335e-05
2.26309e-05
4.06203e-05
6.40112e-05
7.95186e-05
8.96195e-05
0.000104777
0.000115094
0.000119021
0.000111679
0.000106994
0.000107096
0.00011689
0.000158951
0.000245675
0.000392989
0.00051818
0.000596076
0.000648958
0.00067897
0.00068497
0.000674418
0.00063813
0.000535584
0.000412661
2.34423e-07
2.25615e-07
2.15439e-07
2.02968e-07
1.87671e-07
1.71104e-07
1.54185e-07
1.37526e-07
1.21809e-07
1.07095e-07
9.15224e-08
7.61288e-08
6.47193e-08
6.29507e-08
9.49915e-08
2.1961e-07
5.87566e-07
1.53544e-06
3.70639e-06
8.04428e-06
1.5696e-05
2.80494e-05
4.79605e-05
6.1633e-05
6.91441e-05
8.29888e-05
0.000103389
0.00012844
0.000148539
0.000166609
0.000196032
0.000239958
0.000313885
0.000388203
0.00043948
0.000483364
0.000525581
0.000571831
0.000622796
0.00065423
0.000663161
0.000642466
0.000632579
0.000599685
1.88577e-07
1.74212e-07
1.58776e-07
1.41436e-07
1.22192e-07
1.03205e-07
8.56807e-08
7.00592e-08
5.66105e-08
4.49466e-08
3.41977e-08
2.60127e-08
2.16779e-08
2.49286e-08
4.85612e-08
1.23439e-07
3.2817e-07
8.21809e-07
1.89927e-06
4.14935e-06
8.71429e-06
1.76981e-05
3.14458e-05
3.93971e-05
4.12548e-05
4.4025e-05
5.91609e-05
9.18366e-05
0.000129853
0.000162946
0.000198049
0.000236051
0.000263539
0.000271491
0.000278426
0.000294825
0.000331485
0.000396366
0.000449985
0.000482391
0.000481895
0.000454521
0.000459334
0.000452544
1.29122e-07
1.11138e-07
9.46054e-08
7.78455e-08
6.11631e-08
4.61423e-08
3.35993e-08
2.39821e-08
1.70838e-08
1.22908e-08
8.9946e-09
7.0058e-09
6.24331e-09
8.65498e-09
1.98659e-08
5.35323e-08
1.37824e-07
3.34073e-07
7.84346e-07
1.88304e-06
4.69833e-06
1.18216e-05
2.18193e-05
2.37083e-05
2.21753e-05
2.00899e-05
2.22467e-05
3.24456e-05
5.16289e-05
6.96203e-05
8.44729e-05
9.04325e-05
8.66596e-05
8.12297e-05
7.90621e-05
8.24815e-05
0.000103971
0.000137795
0.00016759
0.000182914
0.000201944
0.000210371
0.00023423
0.000243673
7.86108e-08
5.73171e-08
4.30248e-08
3.145e-08
2.14797e-08
1.41526e-08
9.38538e-09
6.34179e-09
4.53975e-09
3.37119e-09
2.51356e-09
1.98518e-09
1.94094e-09
3.34835e-09
9.08313e-09
2.60715e-08
6.97204e-08
1.76222e-07
4.43108e-07
1.15976e-06
3.11494e-06
8.26761e-06
1.39441e-05
1.36978e-05
1.02933e-05
7.08686e-06
6.70974e-06
9.20491e-06
1.48769e-05
1.97432e-05
2.26461e-05
2.23886e-05
2.0433e-05
1.86436e-05
1.82841e-05
2.09921e-05
2.93283e-05
4.36229e-05
5.72229e-05
6.50633e-05
6.59684e-05
6.4336e-05
6.68764e-05
5.60227e-05
5.09497e-08
3.07621e-08
1.81613e-08
1.07435e-08
6.56935e-09
4.16526e-09
2.79437e-09
1.93879e-09
1.42019e-09
1.08713e-09
8.6146e-10
7.4455e-10
9.1763e-10
2.02331e-09
5.95558e-09
1.76077e-08
4.83868e-08
1.27913e-07
3.43874e-07
9.74787e-07
2.86211e-06
5.92315e-06
7.38884e-06
7.02126e-06
3.9407e-06
1.79268e-06
1.46564e-06
2.13505e-06
3.52014e-06
4.54521e-06
5.01604e-06
4.84065e-06
4.04105e-06
3.56814e-06
3.50166e-06
4.33246e-06
6.50711e-06
1.07105e-05
1.49808e-05
1.79846e-05
1.84085e-05
1.65382e-05
1.35401e-05
6.8202e-06
3.53004e-08
1.99956e-08
1.06129e-08
5.25504e-09
2.6726e-09
1.55693e-09
1.03133e-09
7.73551e-10
6.29005e-10
5.11209e-10
3.79108e-10
3.05891e-10
4.77623e-10
1.41873e-09
4.36307e-09
1.28985e-08
3.71072e-08
9.86657e-08
2.35878e-07
4.29431e-07
5.31195e-07
5.54238e-07
5.37864e-07
4.26554e-07
2.75028e-07
2.00753e-07
1.70683e-07
1.38473e-07
9.20428e-08
7.06594e-08
6.82932e-08
9.2645e-08
1.25387e-07
1.21461e-07
1.26816e-07
1.53272e-07
2.08097e-07
3.08204e-07
4.89703e-07
6.48713e-07
8.64636e-07
7.71274e-07
6.26034e-07
2.41332e-07
3.00713e-08
3.43951e-09
2.02137e-09
1.75841e-09
1.17518e-09
7.41194e-10
5.17827e-10
3.96618e-10
2.84743e-10
2.77578e-10
2.42059e-10
1.42713e-10
1.64403e-10
3.74812e-10
9.19969e-10
2.28076e-09
4.75167e-09
7.79357e-09
1.3666e-08
1.71922e-08
1.0061e-08
2.76787e-09
2.08599e-10
1.33736e-09
6.61903e-09
2.17816e-08
2.92784e-08
2.55238e-08
2.79615e-08
2.68622e-08
1.02089e-08
2.8358e-09
1.22985e-09
2.37854e-09
2.63148e-09
2.18444e-09
1.35419e-09
5.72404e-10
1.201e-10
8.72776e-11
1.08106e-10
5.90626e-11
2.91592e-11
5.94525e-10
2.48056e-08
1.33646e-09
4.7334e-10
9.0418e-10
5.44777e-10
3.67877e-12
9.45913e-12
3.91007e-09
3.99348e-08
1.59561e-08
6.03404e-09
2.44368e-09
1.12094e-09
6.49093e-10
5.28801e-10
6.0304e-10
6.90181e-10
6.49488e-10
8.70299e-10
1.27469e-09
8.26073e-10
3.44113e-10
4.44855e-10
3.79363e-10
8.25824e-10
2.82097e-09
8.23859e-09
1.59326e-08
4.70116e-08
9.6098e-08
1.26393e-07
1.39869e-07
1.43132e-07
1.23774e-07
1.13859e-07
1.14741e-07
1.07764e-07
7.85748e-08
2.06519e-08
1.19235e-08
1.73701e-08
1.44902e-08
1.07359e-08
7.24202e-08
2.04312e-08
2.02252e-09
4.51349e-10
2.85903e-09
7.19132e-09
1.86193e-08
5.53274e-07
2.23445e-06
1.93683e-06
1.1487e-06
5.65007e-07
2.67722e-07
1.14152e-07
4.524e-08
1.54228e-08
5.76079e-09
3.21746e-09
2.07396e-09
1.29308e-09
9.23138e-10
8.5435e-10
1.43725e-09
3.51297e-09
6.536e-09
1.02029e-08
6.38277e-09
5.82256e-09
1.53932e-08
6.445e-08
1.59467e-07
3.09921e-07
4.34395e-07
4.80071e-07
4.49965e-07
3.94745e-07
3.45404e-07
3.08628e-07
2.59017e-07
1.46845e-07
8.56296e-08
8.09529e-08
6.32609e-08
7.3998e-08
3.42203e-07
2.19538e-09
6.45378e-10
6.34845e-09
1.0231e-06
3.21956e-06
2.27087e-06
1.72936e-05
2.11287e-05
1.56573e-05
9.24333e-06
4.99186e-06
2.28212e-06
8.30498e-07
2.7351e-07
8.31204e-08
3.01953e-08
1.63627e-08
9.79559e-09
4.83896e-09
3.43717e-09
3.84183e-09
6.37474e-09
1.0635e-08
1.61214e-08
3.31062e-08
2.08127e-08
1.8329e-08
4.38766e-08
1.35144e-07
2.87351e-07
4.57499e-07
5.71263e-07
6.23692e-07
6.34704e-07
5.88964e-07
5.7517e-07
5.54134e-07
4.90042e-07
2.94302e-07
1.15266e-07
6.03391e-08
2.84906e-08
5.39631e-08
1.70048e-07
7.15167e-07
3.05924e-07
1.0207e-06
8.94773e-06
3.82524e-05
5.51558e-05
0.000110169
0.000104863
7.60811e-05
3.63257e-05
1.34687e-05
4.57106e-06
1.51287e-06
5.1916e-07
1.8399e-07
8.11589e-08
4.75066e-08
2.5617e-08
1.25831e-08
1.14459e-08
1.41926e-08
2.20247e-08
3.73572e-08
7.23253e-08
1.09699e-07
7.07037e-08
6.06324e-08
1.15579e-07
2.58413e-07
4.08767e-07
5.12235e-07
5.51914e-07
5.41741e-07
5.79034e-07
6.53866e-07
7.85309e-07
7.50252e-07
6.35542e-07
4.03766e-07
2.26003e-07
1.56219e-07
9.62251e-08
1.55581e-07
3.05091e-07
7.87676e-06
3.2685e-06
1.00023e-05
6.4773e-05
0.000194394
0.000312599
0.000438772
0.000363931
0.000171893
5.50533e-05
1.74547e-05
5.88085e-06
2.35421e-06
1.07468e-06
4.8916e-07
2.32605e-07
1.2856e-07
6.76534e-08
3.54902e-08
3.42974e-08
4.16211e-08
5.99448e-08
8.45292e-08
1.59238e-07
3.13235e-07
1.93527e-07
1.71529e-07
2.62037e-07
3.22503e-07
3.20649e-07
3.70824e-07
3.85917e-07
3.80909e-07
3.96734e-07
4.4516e-07
5.17362e-07
5.20292e-07
4.71972e-07
3.67575e-07
3.16958e-07
2.94044e-07
3.01746e-07
3.28623e-07
3.5695e-07
5.34875e-05
2.34669e-05
6.45389e-05
0.000325952
0.000643676
0.00100458
0.00118292
0.000752632
0.000248899
6.91974e-05
2.06587e-05
8.93893e-06
5.05232e-06
3.04197e-06
1.49657e-06
6.67552e-07
3.19014e-07
1.59616e-07
8.59154e-08
7.59502e-08
8.58425e-08
1.11809e-07
1.35392e-07
1.90194e-07
3.65512e-07
4.00902e-07
4.01271e-07
3.9621e-07
2.98037e-07
2.54667e-07
2.63178e-07
2.73966e-07
2.8425e-07
2.9646e-07
3.14139e-07
3.28504e-07
3.22966e-07
3.08556e-07
2.91036e-07
2.82204e-07
2.83038e-07
3.13452e-07
3.29561e-07
3.48739e-07
0.000373857
0.00016641
0.00041782
0.00122352
0.00179841
0.00233707
0.00227191
0.00119697
0.000360881
0.000102495
3.45607e-05
1.9193e-05
1.37709e-05
8.22636e-06
3.78427e-06
1.54185e-06
6.4069e-07
2.99741e-07
1.64362e-07
1.38464e-07
1.47219e-07
1.75635e-07
1.93002e-07
2.08875e-07
3.0838e-07
4.44983e-07
4.1529e-07
3.09488e-07
2.21079e-07
2.26807e-07
2.49516e-07
2.60005e-07
2.65386e-07
2.71001e-07
2.76255e-07
2.78633e-07
2.77249e-07
2.75288e-07
2.73459e-07
2.75933e-07
2.84724e-07
3.05958e-07
3.21481e-07
3.36581e-07
0.002067
0.00117852
0.00208317
0.0035602
0.00414414
0.00426398
0.00358357
0.00178677
0.000573282
0.000179938
7.24229e-05
4.74184e-05
3.33687e-05
1.83129e-05
7.9097e-06
3.02711e-06
1.10985e-06
4.70674e-07
2.61156e-07
2.12399e-07
2.12638e-07
2.30128e-07
2.39411e-07
2.41202e-07
2.56456e-07
3.00219e-07
2.55788e-07
1.96874e-07
1.90894e-07
2.33052e-07
2.56361e-07
2.65009e-07
2.6875e-07
2.70317e-07
2.70523e-07
2.69896e-07
2.69852e-07
2.70924e-07
2.72438e-07
2.78149e-07
2.8844e-07
3.07046e-07
3.18953e-07
3.30064e-07
0.00652931
0.00523825
0.00650266
0.00755056
0.00739866
0.0064206
0.00512012
0.00270363
0.000939691
0.00033386
0.000151105
0.000100792
6.62709e-05
3.4199e-05
1.41694e-05
5.19564e-06
1.76593e-06
6.6179e-07
3.44286e-07
2.65231e-07
2.5295e-07
2.58912e-07
2.60695e-07
2.59808e-07
2.53073e-07
2.19947e-07
1.80994e-07
1.75993e-07
2.1669e-07
2.5231e-07
2.65446e-07
2.69273e-07
2.70386e-07
2.71153e-07
2.70697e-07
2.70694e-07
2.70989e-07
2.7233e-07
2.74689e-07
2.81296e-07
2.90701e-07
3.06985e-07
3.1655e-07
3.25754e-07
0.0120844
0.0113695
0.0114865
0.0113175
0.0103757
0.00841823
0.00675445
0.00398767
0.00144709
0.000561164
0.000274339
0.000183706
0.000115854
5.76472e-05
2.34637e-05
8.38997e-06
2.71009e-06
9.17987e-07
4.21521e-07
2.99983e-07
2.75743e-07
2.72516e-07
2.71172e-07
2.69668e-07
2.64645e-07
2.36211e-07
2.14089e-07
2.26586e-07
2.50372e-07
2.65513e-07
2.69949e-07
2.72144e-07
2.73408e-07
2.73407e-07
2.72049e-07
2.72052e-07
2.72456e-07
2.74647e-07
2.77313e-07
2.83281e-07
2.92167e-07
3.05891e-07
3.13149e-07
3.20409e-07
0.0161863
0.0156045
0.0148967
0.01412
0.0127982
0.0104464
0.00811362
0.00537817
0.00209146
0.000860732
0.000449851
0.000302138
0.000186201
9.14532e-05
3.69509e-05
1.29385e-05
4.03094e-06
1.25596e-06
5.02467e-07
3.22634e-07
2.83917e-07
2.76657e-07
2.74819e-07
2.72455e-07
2.70661e-07
2.62162e-07
2.5151e-07
2.60389e-07
2.67337e-07
2.71824e-07
2.73044e-07
2.74186e-07
2.74725e-07
2.74905e-07
2.74373e-07
2.74636e-07
2.75332e-07
2.77446e-07
2.80084e-07
2.85734e-07
2.93496e-07
3.05444e-07
3.11826e-07
3.17802e-07
0.0188131
0.0181132
0.0172551
0.0163041
0.0148057
0.0122948
0.00926855
0.00658416
0.00281388
0.00121697
0.000670128
0.000450457
0.000277683
0.000138132
5.61924e-05
1.94437e-05
5.89632e-06
1.73222e-06
6.12779e-07
3.47438e-07
2.90552e-07
2.79974e-07
2.76582e-07
2.75236e-07
2.7425e-07
2.73203e-07
2.70448e-07
2.74289e-07
2.74905e-07
2.74881e-07
2.75471e-07
2.76235e-07
2.76808e-07
2.76453e-07
2.76118e-07
2.76453e-07
2.77187e-07
2.7941e-07
2.82118e-07
2.87239e-07
2.93896e-07
3.04363e-07
3.09582e-07
3.14676e-07
0.0182688
0.0184149
0.0183064
0.0177753
0.0164953
0.0138732
0.0101653
0.00748879
0.00356135
0.00160115
0.00091841
0.000622977
0.000390545
0.000199078
8.21729e-05
2.82696e-05
8.40301e-06
2.3558e-06
7.51726e-07
3.75793e-07
2.96985e-07
2.80766e-07
2.77171e-07
2.76864e-07
2.74997e-07
2.75028e-07
2.75634e-07
2.77818e-07
2.77538e-07
2.77181e-07
2.77156e-07
2.77636e-07
2.77808e-07
2.78112e-07
2.77906e-07
2.78441e-07
2.79134e-07
2.81197e-07
2.83834e-07
2.88381e-07
2.94624e-07
3.03799e-07
3.08717e-07
3.12447e-07
0.0120237
0.0142019
0.0165051
0.0177166
0.0175173
0.0152588
0.0108862
0.0081281
0.00431136
0.00200049
0.00119444
0.000828106
0.000531831
0.000278872
0.000117203
4.02484e-05
1.17782e-05
3.18244e-06
9.33934e-07
4.13715e-07
3.0516e-07
2.8347e-07
2.78434e-07
2.77856e-07
2.76728e-07
2.77147e-07
2.78278e-07
2.79554e-07
2.78514e-07
2.7823e-07
2.78511e-07
2.79068e-07
2.79299e-07
2.79595e-07
2.79482e-07
2.80034e-07
2.80716e-07
2.82763e-07
2.85304e-07
2.89414e-07
2.9486e-07
3.02989e-07
3.07448e-07
3.10488e-07
0.00475198
0.00673319
0.0107176
0.0150847
0.017244
0.016235
0.0115951
0.00861743
0.00503551
0.00242147
0.00151738
0.00108075
0.000708193
0.000380849
0.000162998
5.59935e-05
1.61548e-05
4.22979e-06
1.15771e-06
4.58132e-07
3.13668e-07
2.84524e-07
2.79488e-07
2.78845e-07
2.77092e-07
2.77173e-07
2.78417e-07
2.80628e-07
2.80275e-07
2.79952e-07
2.80051e-07
2.80259e-07
2.80256e-07
2.80486e-07
2.80798e-07
2.81487e-07
2.82184e-07
2.8414e-07
2.86422e-07
2.90183e-07
2.95306e-07
3.02388e-07
3.06557e-07
3.08684e-07
0.001399
0.00242365
0.00514807
0.0100016
0.0151321
0.0165253
0.0122405
0.00883282
0.00578235
0.00292527
0.00190919
0.0013923
0.00092339
0.000508432
0.000221819
7.64524e-05
2.18162e-05
5.56298e-06
1.43973e-06
5.11873e-07
3.23082e-07
2.87059e-07
2.80552e-07
2.7963e-07
2.78304e-07
2.78731e-07
2.79926e-07
2.81298e-07
2.8065e-07
2.80643e-07
2.809e-07
2.81158e-07
2.8141e-07
2.81901e-07
2.82031e-07
2.82685e-07
2.83376e-07
2.85239e-07
2.87462e-07
2.91004e-07
2.95443e-07
3.01611e-07
3.05707e-07
3.07249e-07
0.000379689
0.000763803
0.00215353
0.00563228
0.0112061
0.0156334
0.0127631
0.00891993
0.00639773
0.00364694
0.00242327
0.00177331
0.00117652
0.000660534
0.00029396
0.000101946
2.8816e-05
7.19159e-06
1.77793e-06
5.73681e-07
3.33275e-07
2.88974e-07
2.81506e-07
2.80426e-07
2.79185e-07
2.79202e-07
2.80243e-07
2.82099e-07
2.82065e-07
2.82122e-07
2.82141e-07
2.82196e-07
2.82356e-07
2.82746e-07
2.83015e-07
2.8376e-07
2.84538e-07
2.86285e-07
2.88284e-07
2.91489e-07
2.95637e-07
3.00983e-07
3.04972e-07
3.0565e-07
0.000186592
0.000307974
0.000879284
0.00289412
0.00739591
0.0135541
0.0130041
0.00901797
0.00684816
0.00456697
0.0031348
0.00225445
0.00146895
0.000834769
0.000379732
0.000133134
3.74475e-05
9.16279e-06
2.17588e-06
6.44667e-07
3.44813e-07
2.91361e-07
2.8238e-07
2.81107e-07
2.79969e-07
2.80219e-07
2.81219e-07
2.82543e-07
2.82393e-07
2.82628e-07
2.82729e-07
2.82901e-07
2.83224e-07
2.83786e-07
2.84017e-07
2.84647e-07
2.85543e-07
2.8716e-07
2.89016e-07
2.92004e-07
2.95643e-07
3.00375e-07
3.0427e-07
3.04298e-07
0.000197851
0.00024456
0.00043224
0.00145849
0.00462275
0.0105488
0.0128044
0.00915861
0.00720887
0.0055679
0.00406351
0.00289828
0.00181545
0.00103112
0.000478736
0.000170391
4.77756e-05
1.14768e-05
2.62601e-06
7.22961e-07
3.57629e-07
2.93918e-07
2.83365e-07
2.81571e-07
2.80794e-07
2.80756e-07
2.81637e-07
2.83162e-07
2.83399e-07
2.83618e-07
2.83654e-07
2.83836e-07
2.84156e-07
2.84621e-07
2.84899e-07
2.85545e-07
2.8647e-07
2.87948e-07
2.89643e-07
2.92326e-07
2.95677e-07
2.99909e-07
3.03493e-07
3.03087e-07
0.000287725