/*--------------------------------*- C++ -*----------------------------------*\
| =========                 |                                                 |
| \\      /  F ield         | OpenFOAM: The Open Source CFD Toolbox           |
|  \\    /   O peration     | Version:  v1912                                 |
|   \\  /    A nd           | Website:  www.openfoam.com                      |
|    \\/     M anipulation  |                                                 |
\*---------------------------------------------------------------------------*/
FoamFile
{
    version     2.0;
    format      ascii;
    class       volScalarField;
    location    "100";
    object      p;
}
// * * * * * * * * * * * * * * * * * * * * * * * * * * * * * * * * * * * * * //

dimensions      [1 -1 -2 0 0 0 0];


internalField   nonuniform List<scalar> 
14268
(
50272.9
49902.2
49396.7
48773.1
48048.9
47248.5
46400.8
45532.2
44670.6
43840.2
43058.2
42348.5
41713.9
41154.9
40666.4
40242.6
39877.5
39567.1
39308
39097.2
38929.9
38795.1
38680.2
38580.2
38479.6
38405
38404.4
38469.8
38583.4
38716.4
38841.7
38953.2
39049.7
39144.4
39253
39391.5
39572.7
39804.4
40089.2
40425.9
40809.3
41242.6
41717.9
42244.5
50171.4
49800.6
49295.1
48671.5
47947.3
47146.9
46299.2
45430.6
44569
43738.6
42956.6
42246.9
41612.3
41053.3
40564.8
40141
39775.9
39465.5
39206.4
38995.6
38828.3
38693.5
38578.6
38478.6
38377.9
38303.4
38302.7
38368.2
38481.8
38614.8
38740.1
38851.6
38948.1
39042.8
39151.4
39289.9
39471.1
39702.8
39987.6
40324.3
40707.7
41141
41616.3
42142.9
50069.8
49699
49193.5
48569.9
47845.7
47045.3
46197.6
45329
44467.4
43636.9
42855
42145.2
41510.6
40951.7
40463.1
40039.4
39674.3
39363.9
39104.8
38894
38726.7
38591.9
38477
38377
38276.3
38201.8
38201.1
38266.6
38380.2
38513.2
38638.5
38750
38846.5
38941.2
39049.8
39188.3
39369.5
39601.2
39886
40222.7
40606.1
41039.4
41514.7
42041.3
49968.2
49597.5
49091.9
48468.4
47744.1
46943.7
46095.9
45227.4
44365.7
43535.3
42753.4
42043.6
41409
40850.1
40361.5
39937.8
39572.7
39262.3
39003.1
38792.4
38625
38490.3
38375.3
38275.4
38174.7
38100.2
38099.5
38165
38278.5
38411.5
38536.9
38648.4
38744.9
38839.5
38948.2
39086.7
39267.9
39499.6
39784.4
40121
40504.5
40937.7
41413.1
41939.6
49866.7
49495.9
48990.4
48366.8
47642.5
46842.1
45994.3
45125.7
44264.1
43433.7
42651.7
41942
41307.4
40748.4
40259.9
39836.2
39471.1
39160.6
38901.5
38690.8
38523.4
38388.7
38273.7
38173.8
38073.1
37998.5
37997.9
38063.4
38176.9
38309.9
38435.3
38546.8
38643.3
38737.9
38846.6
38985.1
39166.2
39398
39682.8
40019.4
40402.9
40836.1
41311.4
41838
49765.1
49394.4
48888.8
48265.2
47541
46740.5
45892.7
45024.1
44162.5
43332
42550.1
41840.3
41205.7
40646.8
40158.2
39734.5
39369.4
39059
38799.9
38589.1
38421.8
38287
38172.1
38072.2
37971.4
37896.9
37896.2
37961.7
38075.3
38208.3
38333.7
38445.2
38541.7
38636.3
38744.9
38883.5
39064.6
39296.3
39581.1
39917.8
40301.2
40734.5
41209.8
41736.4
49663.6
49292.8
48787.3
48163.7
47439.4
46638.9
45791.1
44922.5
44060.8
43230.4
42448.4
41738.6
41104
40545.1
40056.6
39632.9
39267.8
38957.4
38698.3
38487.5
38320.2
38185.4
38070.5
37970.5
37869.8
37795.2
37794.6
37860.1
37973.7
38106.7
38232.1
38343.6
38440.1
38534.7
38643.3
38781.8
38963
39194.7
39479.5
39816.2
40199.6
40632.8
41108.2
41634.7
49562.1
49191.3
48685.8
48062.1
47337.8
46537.3
45689.5
44820.8
43959.2
43128.7
42346.7
41637
41002.4
40443.5
39954.9
39531.2
39166.1
38855.7
38596.6
38385.9
38218.6
38083.8
37968.9
37868.9
37768.1
37693.6
37692.9
37758.5
37872.1
38005.1
38130.5
38242
38338.5
38433.1
38541.7
38680.2
38861.3
39093.1
39377.9
39714.5
40098
40531.2
41006.5
41533.1
49460.6
49089.8
48584.2
47960.6
47236.2
46435.7
45587.9
44719.2
43857.5
43027
42245.1
41535.3
40900.7
40341.8
39853.3
39429.6
39064.5
38754.1
38495
38284.2
38116.9
37982.2
37867.2
37767.2
37666.5
37591.9
37591.3
37656.8
37770.4
37903.5
38028.9
38140.4
38236.9
38331.5
38440.1
38578.6
38759.7
38991.4
39276.2
39612.9
39996.3
40429.5
40904.9
41431.4
49359.2
48988.3
48482.7
47859
47134.7
46334.1
45486.2
44617.5
43755.8
42925.3
42143.4
41433.6
40799
40240.1
39751.6
39327.9
38962.8
38652.4
38393.3
38182.6
38015.3
37880.5
37765.6
37665.6
37564.8
37490.2
37489.6
37555.2
37668.8
37801.9
37927.3
38038.8
38135.3
38229.9
38338.4
38476.9
38658
38889.7
39174.6
39511.2
39894.7
40327.9
40803.2
41329.8
49257.7
48886.9
48381.2
47757.5
47033.1
46232.5
45384.6
44515.9
43654.2
42823.7
42041.7
41331.9
40697.3
40138.4
39649.9
39226.2
38861.2
38550.8
38291.7
38080.9
37913.6
37778.9
37664
37564
37463.1
37388.5
37387.9
37453.5
37567.2
37700.3
37825.7
37937.2
38033.7
38128.2
38236.8
38375.3
38556.4
38788.1
39072.9
39409.6
39793
40226.2
40701.6
41228.1
49156.3
48785.4
48279.7
47656
46931.5
46131
45283
44414.2
43552.5
42722
41939.9
41230.2
40595.6
40036.7
39548.2
39124.5
38759.5
38449.1
38190
37979.3
37812
37677.3
37562.3
37462.3
37361.4
37286.8
37286.2
37351.9
37465.5
37598.7
37724.1
37835.6
37932.1
38026.6
38135.2
38273.6
38454.7
38686.4
38971.2
39307.9
39691.3
40124.6
40599.9
41126.5
49054.9
48684
48178.3
47554.5
46830
46029.4
45181.4
44312.6
43450.8
42620.2
41838.2
41128.4
40493.9
39935
39446.5
39022.9
38657.8
38347.4
38088.3
37877.6
37710.4
37575.6
37460.7
37360.6
37259.7
37185.1
37184.6
37250.2
37363.9
37497
37622.5
37734
37830.5
37925
38033.5
38172
38353
38584.8
38869.6
39206.2
39589.7
40022.9
40498.3
41024.8
48953.4
48582.5
48076.8
47452.9
46728.4
45927.8
45079.7
44210.9
43349.1
42518.5
41736.5
41026.7
40392.1
39833.3
39344.8
38921.2
38556.1
38245.8
37986.7
37776
37608.7
37474
37359
37259
37158
37083.4
37082.9
37148.5
37262.3
37395.4
37520.9
37632.4
37728.8
37823.4
37931.9
38070.3
38251.4
38483.1
38767.9
39104.5
39488
39921.2
40396.6
40923.1
48801.4
48430.4
47924.6
47300.7
46576.1
45775.4
44927.3
44058.4
43196.6
42365.9
41583.9
40874.1
40239.5
39680.7
39192.3
38768.6
38403.6
38093.2
37834.1
37623.5
37456.2
37321.5
37206.6
37106.5
37005.4
36930.8
36930.3
36996
37109.8
37243
37368.5
37480
37576.4
37670.9
37779.4
37917.8
38098.8
38330.5
38615.4
38952
39335.5
39768.7
40244.1
40770.6
48598.6
48227.6
47721.7
47097.7
46373.1
45572.2
44724
43855.1
42993.1
42162.5
41380.4
40670.6
40036
39477.2
38988.8
38565.2
38200.2
37889.8
37630.8
37420.1
37252.9
37118.2
37003.2
36903.1
36802
36727.4
36726.9
36792.6
36906.5
37039.8
37165.3
37276.8
37373.2
37467.7
37576.1
37714.5
37895.5
38127.2
38412
38748.6
39132.1
39565.3
40040.7
40567.3
48396
48024.9
47518.9
46894.8
46170
45369
44520.7
43651.7
42789.7
41958.9
41176.8
40467
39832.5
39273.7
38785.3
38361.8
37996.8
37686.4
37427.4
37216.8
37049.6
36914.9
36799.9
36699.8
36598.5
36523.9
36523.4
36589.2
36703.2
36836.5
36962.1
37073.6
37170
37264.4
37372.8
37511.1
37692.1
37923.7
38208.6
38545.2
38928.7
39361.8
39837.3
40363.9
48193.3
47822.2
47316.1
46691.9
45967
45165.9
44317.5
43448.3
42586.2
41755.4
40973.2
40263.4
39628.9
39070.1
38581.8
38158.3
37793.3
37483
37224
37013.4
36846.2
36711.6
36596.6
36496.4
36395
36320.3
36319.9
36385.8
36499.9
36633.3
36758.9
36870.4
36966.8
37061.1
37169.4
37307.8
37488.6
37720.3
38005.1
38341.8
38725.3
39158.4
39633.9
40160.5
47990.8
47619.5
47113.3
46489
45763.9
44962.7
44114.2
43244.9
42382.7
41551.8
40769.6
40059.7
39425.2
38866.5
38378.3
37954.8
37589.8
37279.5
37020.5
36810
36642.8
36508.3
36393.2
36293
36191.5
36116.8
36116.4
36182.4
36296.5
36430
36555.7
36667.2
36763.5
36857.8
36966.1
37104.4
37285.2
37516.9
37801.7
38138.4
38521.8
38954.9
39430.5
39957.1
47788.3
47416.9
46910.6
46286.1
45560.9
44759.6
43910.9
43041.4
42179.1
41348.2
40565.9
39856
39221.6
38662.9
38174.7
37751.2
37386.3
37076
36817.1
36606.6
36439.5
36305
36189.9
36089.6
35987.9
35913.2
35912.8
35978.9
36093.2
36226.8
36352.5
36464
36560.3
36654.5
36762.7
36901
37081.7
37313.4
37598.2
37934.9
38318.3
38751.4
39227
39753.7
47585.9
47214.4
46708
46083.3
45357.9
44556.4
43707.5
42838
41975.6
41144.5
40362.2
39652.3
39017.8
38459.3
37971.1
37547.7
37182.8
36872.5
36613.6
36403.2
36236.1
36101.6
35986.5
35886.1
35784.3
35709.5
35709.3
35775.5
35889.8
36023.5
36149.3
36260.8
36357.1
36451.2
36559.3
36697.5
36878.2
37109.9
37394.7
37731.4
38114.8
38547.9
39023.5
39550.3
46105.6
45733.3
45225.8
44600
43873.3
43070.5
42220.4
41349.7
40486.4
39654.6
38871.8
38161.8
37527.5
36969.3
36481.5
36058.5
35693.9
35383.8
35125
34915
34748.2
34614.1
34498.8
34397.9
34294.9
34219.8
34220
34287
34402.2
34536.7
34663.2
34774.8
34870.6
34964.2
35071.6
35209.4
35389.6
35621.1
35906
36242.8
36626.2
37059.1
37534.9
38062.2
43358.7
42983.6
42472.2
41842
41110.6
40303
39448.3
38573.5
37706.7
36872.1
36087.7
35377.1
34743.4
34186.6
33700.5
33278.8
32915.1
32605.6
32347.6
32139
31973.5
31840.5
31724.4
31621.6
31514
31438.1
31439.8
31509.7
31628.5
31766.1
31894.1
32006
32100.6
32192
32297.1
32433.8
32612.1
32843.1
33128.1
33465
33848.1
34280.5
34757.1
35285.8
40622.6
40243.1
39725.9
39089
38350.4
37535.6
36674.2
35793.4
34921.4
34082.7
33296
32584.6
31951.9
31397.2
30913.6
30494.1
30131.8
29823.2
29566.1
29360
29194.8
29064.6
28948.2
28841.9
28728.8
28651.4
28654.3
28730.1
28852.7
28994.4
29125.2
29237.5
29330.2
29418.6
29520.5
29654
29830.1
30060.4
30345.7
30683.2
31066.1
31497.7
31974.7
32505.3
37897.6
37512.3
36987.1
36341.2
35593
34768.6
33898.2
33009.4
32130.5
31286.4
30496.5
29784.2
29152.9
28601.2
28121.1
27704.4
27343.9
27036.4
26780.8
26576.6
26416.1
26287.7
26169
26060.1
25939.8
25862.5
25868.1
25947
26076.9
26223.8
26357
26469.5
26559.6
26643.1
26742.4
26871.1
27044.2
27273.8
27559.5
27897.3
28279.6
28709.9
29187.4
29719.8
35184.5
34791.6
34256.4
33599
32838.7
32002.2
31120.5
30221.6
29334.1
28483.2
27689.3
26975.9
26346.3
25798.5
25322.9
24909.9
24551.6
24245.4
23991.5
23789
23633.3
23505.2
23389.7
23277
23149.9
23070.9
23082
23164
23301.5
23452.5
23590
23702.1
23787.9
23868
23960.9
24082
24253.6
24482.1
24768.6
25107.3
25489
25917.7
26395
26929.6
32481.9
32080
31532.8
30861.8
30086.9
29235.9
28340.6
27429.7
26531.9
25672.7
24874
24159.2
23531.9
22989.1
22519.3
22110.9
21755.1
21450.1
21198.2
20999.3
20846.2
20718.5
20612
20489.1
20358.1
20280
20293.9
20383.8
20529.3
20684.1
20824.8
20935.1
21017.8
21091.2
21175.1
21292
21458.3
21686.1
21973.6
22313.3
22694.2
23120.3
23597.1
24133.6
29792.2
29379.4
28817.7
28130.3
27338.1
26470
25558.8
24633.6
23723.8
22854.8
22050.3
21333.9
20709.6
20172.8
19710
19307.2
18953.8
18649.9
18400.2
18204.5
18054.3
17928.7
17827
17702.7
17562
17493.4
17502.5
17604.8
17758.5
17918.9
18060
18169.3
18247.2
18311.4
18386.3
18495.9
18657.9
18884.8
19173.8
19514.7
19894.3
20317.8
20793.4
21331.3
27113.6
26687.6
26109
25402.9
24591
23703.3
22773.8
21832.6
20909.1
20028.9
19217.9
18499.9
17879.3
17349.9
16895.9
16499.1
16147.9
15845.4
15597.8
15405.8
15260.6
15138.6
15034.5
14913.3
14772.1
14699
14716.6
14828.7
14989.7
15157.9
15301.6
15407
15475.7
15529.4
15592.8
15694.8
15851.4
16078
16369.1
16712
17090.2
17509.6
17983.7
18522.2
24444.8
24006
23408.4
22681.3
21847
20937.1
19987
19027.3
18088.3
17194.8
16376.2
15656.2
15039.8
14519
14074.8
13684.9
13336.5
13035.2
12789.8
12602.1
12462.9
12345.4
12241
12118.4
11980.8
11897.4
11938.5
12043
12223.1
12397.9
12543.1
12644.5
12703.2
12744.1
12793.7
12887.7
13038.5
13265.1
13558.8
13903.8
14280.1
14695
15166.7
15706.1
21796.3
21339.5
20718.4
19965.4
19104.3
18169.1
17196
16216.3
15260.3
14351.9
13524.9
12802.9
12192.1
11682.3
11250
10867.2
10521
10220.9
9978.19
9795.62
9663.65
9551.17
9446.34
9322.14
9185.99
9099.84
9146.89
9269.35
9457.72
9643.85
9792.74
9886.26
9931.34
9957.04
9994.82
10074.1
10217.9
10445.2
10742.3
11090.3
11464.1
11873.1
12342.1
12881.2
19146.6
18670.9
18024.8
17246.4
16359.8
15399.6
14402.1
13400.2
12425.4
11499.3
10661.9
9936.84
9331.57
8832.94
8413.64
8039.45
7696.94
7398.67
7158.29
6981.82
6859.18
6753.81
6645.88
6519.13
6385.58
6301.64
6341.7
6490.15
6691.71
6892.45
7043.71
7128.4
7156.72
7161.84
7176.54
7252.79
7388.56
7618.76
7917.72
8267.21
8639.12
9041.59
9507.82
10047.2
16523.2
16027.7
15355.2
14548.2
13628.8
12634.7
11606
10577.6
9582.02
8635.25
7787.09
7059.53
6462.94
5980.09
5576.74
5212.8
4874.49
4577.62
4340.49
4172.45
4058.5
3962.6
3862.36
3744.35
3614.47
3527.04
3564.46
3712.5
3929
4144.7
4302.48
4375.45
4384.87
4366.63
4369.4
4432.22
4553
4779.22
5079.98
5434.41
5804.35
6199.85
6662.44
7200.01
13906.2
13386.4
12679.8
11836.5
10881.2
9855.83
8799.48
7745.5
6729.44
5771.23
4913.38
4185.99
3607.85
3156.71
2791.33
2467.13
2172.13
1923.5
1736.14
1617.57
1549.22
1499.81
1453.52
1397.39
1311.71
1229.46
1226.47
1312.58
1476.03
1647.23
1774.14
1823.81
1818.84
1785.14
1771.58
1805.24
1913.57
2104.81
2369.78
2681.75
3010.18
3369.23
3807.57
4335.42
11296.9
10750.8
10010.5
9137.64
8144.36
7084.08
5996.52
4916.23
3885.66
2942.23
2159.92
1603.42
1224.56
956.364
756.769
592.275
454.509
352.377
286.982
251.367
236.799
233.722
235.76
233.508
213.801
176.303
153.745
163.147
206.986
264.752
314.714
333.257
330.818
316.198
307.584
320.904
361.309
438.62
552.076
695.386
856.646
1047.76
1317.98
1702.1
8715.08
8143.93
7364.51
6458.6
5427.55
4332.67
3233.84
2215.34
1419.54
828.14
432.292
244.304
151.542
94.1089
56.8011
31.3186
16.2763
10.9546
10.2944
10.2477
11.3439
13.1205
14.4094
14.8959
15.0969
12.1236
7.87746
6.41572
5.91573
6.77951
7.98752
9.40482
10.1324
10.2023
10.3092
11.1198
13.1761
17.4237
25.0205
37.2735
56.5195
87.9535
148.829
265.712
6144.87
5540.07
4723.55
3785.44
2751.94
1784.04
1026.75
466.684
198.24
66.9134
7.97883
0.347217
-0.36606
-0.652463
-0.901398
-1.0669
-0.982129
-0.776708
-0.81508
-1.13669
-1.48508
-1.60185
-1.47435
-1.28163
-1.10701
-1.10729
-1.74581
-2.27312
-2.55762
-2.81383
-2.93701
-2.79819
-2.5609
-2.28395
-2.01672
-1.88572
-1.87562
-2.01447
-2.05997
-1.77812
-1.18989
-0.602032
0.682935
-0.161642
3589.19
3001.1
2209.98
1452.57
775.31
305.568
104.432
6.36585
-4.37467
-4.38867
-4.47856
-3.82133
-4.12842
-4.28193
-4.48776
-4.60331
-4.51463
-4.44752
-4.62483
-4.98559
-5.46315
-5.69925
-5.36594
-5.12323
-5.0917
-4.90716
-5.29743
-5.76375
-5.91544
-6.21093
-6.3829
-6.3395
-6.08095
-5.77215
-5.52423
-5.4944
-5.61786
-5.91471
-6.12765
-6.15272
-6.04843
-6.02673
-5.5756
-5.71086
1435.99
1002.56
520.043
210.8
46.3397
-8.9876
-7.10777
-9.99675
-8.33759
-8.05369
-7.74772
-7.40402
-7.76026
-7.80615
-7.92165
-8.01197
-7.98165
-7.93079
-8.06546
-8.36257
-8.72584
-8.84623
-8.72667
-8.5997
-8.53482
-8.44967
-8.74506
-9.12334
-9.28948
-9.48703
-9.59353
-9.5348
-9.37931
-9.19341
-9.01213
-8.93036
-8.97646
-9.17027
-9.3687
-9.43552
-9.35972
-9.37155
-9.12786
-9.86408
220.657
95.5659
0.266902
-16.3404
-16.9438
-13.8444
-11.9087
-13.0887
-11.787
-11.6645
-11.3168
-10.9525
-11.1524
-11.2073
-11.3086
-11.3724
-11.3469
-11.3546
-11.4824
-11.7362
-12.0572
-12.2294
-12.0603
-11.9266
-11.9265
-11.8849
-12.1287
-12.4284
-12.5562
-12.7822
-12.9023
-12.8878
-12.7239
-12.5245
-12.351
-12.3177
-12.397
-12.5908
-12.7326
-12.7729
-12.7201
-12.7297
-12.5576
-12.8392
-25.3463
-24.8905
-24.9105
-20.104
-20.7784
-17.2918
-15.8147
-16.4767
-15.3345
-15.1508
-14.781
-14.5021
-14.6192
-14.6444
-14.7189
-14.772
-14.7637
-14.7762
-14.8918
-15.102
-15.3616
-15.4574
-15.4031
-15.3273
-15.3173
-15.2983
-15.5034
-15.7636
-15.9347
-16.084
-16.1719
-16.1335
-16.0158
-15.8784
-15.7538
-15.707
-15.751
-15.885
-16.0217
-16.0914
-16.0803
-16.0877
-15.9756
-16.2935
-28.64
-28.1184
-27.521
-23.5069
-23.8867
-20.8179
-19.6108
-19.7959
-18.8701
-18.6465
-18.2511
-18.0039
-18.0535
-18.0712
-18.1256
-18.164
-18.1651
-18.1881
-18.2936
-18.4748
-18.6967
-18.8224
-18.7486
-18.6729
-18.6896
-18.6896
-18.8803
-19.0888
-19.2185
-19.3841
-19.4661
-19.4724
-19.3734
-19.2383
-19.1285
-19.093
-19.1447
-19.2698
-19.3781
-19.4253
-19.43
-19.4415
-19.3992
-19.6421
-31.2853
-30.7388
-30.1388
-26.9493
-27.0115
-24.3164
-23.3071
-23.1559
-22.3898
-22.1238
-21.7215
-21.4981
-21.4997
-21.4983
-21.5315
-21.5579
-21.564
-21.595
-21.6883
-21.8432
-22.028
-22.1139
-22.0946
-22.056
-22.0615
-22.0739
-22.247
-22.4535
-22.5844
-22.7004
-22.77
-22.7542
-22.6716
-22.574
-22.493
-22.466
-22.5062
-22.6009
-22.7059
-22.7629
-22.7872
-22.8092
-22.8007
-23.0142
-34.2437
-33.6517
-32.897
-30.3204
-30.1413
-27.7988
-26.9138
-26.5499
-25.8861
-25.5927
-25.1945
-24.9804
-24.9436
-24.9244
-24.9401
-24.9552
-24.9634
-24.9971
-25.0781
-25.2126
-25.3718
-25.4592
-25.4451
-25.4089
-25.4301
-25.4568
-25.6065
-25.7571
-25.8842
-26.006
-26.0743
-26.0842
-26.0278
-25.9384
-25.8652
-25.8404
-25.8766
-25.9594
-26.0496
-26.1026
-26.1366
-26.1746
-26.2034
-26.3937
-37.103
-36.5691
-35.7507
-33.6506
-33.2908
-31.2711
-30.4523
-29.9651
-29.369
-29.0503
-28.6633
-28.4508
-28.3835
-28.3476
-28.3464
-28.352
-28.3594
-28.3926
-28.4641
-28.5822
-28.7127
-28.7868
-28.7917
-28.7808
-28.8
-28.8312
-28.9623
-29.1219
-29.2393
-29.3303
-29.3896
-29.3902
-29.3387
-29.2725
-29.2215
-29.207
-29.2412
-29.3119
-29.3955
-29.4496
-29.4923
-29.5419
-29.5919
-29.7722
-40.053
-39.5359
-38.6911
-36.9789
-36.4482
-34.7255
-33.9448
-33.3902
-32.8385
-32.499
-32.1264
-31.9116
-31.8197
-31.7678
-31.7521
-31.7497
-31.7538
-31.7851
-31.8487
-31.9495
-32.0626
-32.1309
-32.1448
-32.1384
-32.1637
-32.2052
-32.3168
-32.4397
-32.5485
-32.646
-32.7049
-32.7171
-32.6875
-32.6314
-32.585
-32.5716
-32.6034
-32.6651
-32.743
-32.7971
-32.8483
-32.909
-32.9742
-33.1498
-43.0296
-42.5339
-41.6818
-40.2876
-39.6183
-38.164
-37.4045
-36.8168
-36.2963
-35.9409
-35.5833
-35.3638
-35.252
-35.1856
-35.1575
-35.1467
-35.147
-35.1754
-35.231
-35.3153
-35.4139
-35.4741
-35.4955
-35.5012
-35.5278
-35.5709
-35.6699
-35.7969
-35.8956
-35.9738
-36.0272
-36.0381
-36.01
-35.9703
-35.9394
-35.9329
-35.9644
-36.019
-36.0926
-36.1479
-36.2048
-36.2744
-36.3547
-36.5274
-46.0283
-45.5576
-44.7211
-43.5641
-42.8116
-41.578
-40.8356
-40.2403
-39.742
-39.3762
-39.0334
-38.8087
-38.6808
-38.6014
-38.5612
-38.5432
-38.5386
-38.5629
-38.6115
-38.6819
-38.7682
-38.8232
-38.849
-38.8603
-38.8897
-38.9352
-39.0227
-39.1261
-39.22
-39.2986
-39.3508
-39.3659
-39.3522
-39.3209
-39.2946
-39.2921
-39.3231
-39.3728
-39.4429
-39.4995
-39.5619
-39.6391
-39.7262
-39.8964
-49.0489
-48.6008
-47.7992
-46.8134
-46.0366
-44.9695
-44.2474
-43.6576
-43.1777
-42.8062
-42.4767
-42.2474
-42.106
-42.015
-41.9635
-41.9383
-41.929
-41.9483
-41.9902
-42.0486
-42.1234
-42.1735
-42.2011
-42.2188
-42.2501
-42.2955
-42.3745
-42.4769
-42.5592
-42.6282
-42.6775
-42.6949
-42.6848
-42.6648
-42.6479
-42.6491
-42.6807
-42.7269
-42.7938
-42.8527
-42.9187
-43.0025
-43.0982
-43.2666
-52.0868
-51.661
-50.907
-50.0473
-49.2792
-48.3417
-47.6454
-47.068
-46.6039
-46.233
-45.9134
-45.6804
-45.5275
-45.4259
-45.3644
-45.3319
-45.318
-45.3318
-45.3667
-45.4165
-45.4801
-45.5262
-45.5555
-45.5768
-45.6094
-45.6545
-45.7271
-45.8183
-45.8952
-45.9594
-46.0067
-46.0262
-46.0234
-46.0096
-46.0002
-46.0045
-46.0367
-46.0809
-46.1452
-46.2063
-46.2752
-46.3643
-46.4642
-46.6326
-55.1412
-54.7358
-54.0365
-53.2753
-52.531
-51.6966
-51.0321
-50.4712
-50.0216
-49.6557
-49.3438
-49.108
-48.9453
-48.8341
-48.7631
-48.7242
-48.7055
-48.7135
-48.7411
-48.7844
-48.8375
-48.8801
-48.9092
-48.9337
-48.9672
-49.0112
-49.0773
-49.1612
-49.2323
-49.2926
-49.3378
-49.3592
-49.3613
-49.3538
-49.3512
-49.3586
-49.3916
-49.4346
-49.4969
-49.5599
-49.6316
-49.7247
-49.8289
-49.9966
-58.2148
-57.8263
-57.1842
-56.5003
-55.7936
-55.0394
-54.4085
-53.8673
-53.4316
-53.0733
-52.7681
-52.5303
-52.3592
-52.2395
-52.16
-52.1146
-52.0914
-52.0936
-52.1145
-52.1519
-52.196
-52.235
-52.2643
-52.2903
-52.324
-52.3673
-52.4286
-52.5053
-52.5707
-52.6271
-52.6706
-52.6936
-52.7001
-52.6983
-52.7011
-52.7116
-52.7454
-52.7878
-52.8488
-52.9134
-52.9874
-53.0835
-53.1906
-53.3566
-61.3072
-60.935
-60.346
-59.7249
-59.0625
-58.3737
-57.7757
-57.2569
-56.8343
-56.4854
-56.1869
-55.9478
-55.7694
-55.6419
-55.5549
-55.5032
-55.4755
-55.4721
-55.4872
-55.5183
-55.555
-55.5906
-55.6191
-55.6461
-55.6797
-55.7215
-55.7779
-55.8489
-55.91
-55.9634
-56.0052
-56.0294
-56.0396
-56.0424
-56.05
-56.0636
-56.0982
-56.1408
-56.2006
-56.2665
-56.3426
-56.4409
-56.5503
-56.7134
-64.4145
-64.0624
-63.5261
-62.9553
-62.3359
-61.7016
-61.1358
-60.6408
-60.2301
-59.8918
-59.6004
-59.3606
-59.1756
-59.0412
-58.9476
-58.89
-58.8577
-58.8492
-58.859
-58.8841
-58.9144
-58.947
-58.9743
-59.0016
-59.0347
-59.0756
-59.1279
-59.1935
-59.2496
-59.3003
-59.3408
-59.3661
-59.3795
-59.3866
-59.3983
-59.4148
-59.45
-59.4931
-59.5522
-59.6192
-59.6971
-59.7967
-59.9079
-60.0674
-67.5343
-67.2036
-66.7183
-66.1934
-65.6157
-65.0257
-64.4897
-64.0182
-63.6193
-63.2916
-63.008
-62.7681
-62.5781
-62.4374
-62.3378
-62.2748
-62.2382
-62.2247
-62.2293
-62.2495
-62.2739
-62.3035
-62.3294
-62.3565
-62.3887
-62.4284
-62.4766
-62.5379
-62.5905
-62.6388
-62.6779
-62.7039
-62.7199
-62.7308
-62.7459
-62.7652
-62.8009
-62.8451
-62.9035
-62.9715
-63.0508
-63.1512
-63.2637
-63.4191
-70.6686
-70.3603
-69.9162
-69.4326
-68.8979
-68.3471
-67.8398
-67.3898
-67.0023
-66.6842
-66.41
-66.1699
-65.9767
-65.8302
-65.7254
-65.6577
-65.6169
-65.5988
-65.5987
-65.6144
-65.6336
-65.6604
-65.6847
-65.711
-65.7422
-65.7811
-65.8257
-65.8827
-65.9311
-65.9775
-66.0158
-66.0424
-66.0607
-66.0749
-66.0929
-66.1149
-66.1511
-66.1963
-66.2545
-66.3233
-66.4036
-66.5042
-66.6177
-66.769
-73.8181
-73.5332
-73.1259
-72.6777
-72.1806
-71.6657
-71.1854
-70.7558
-70.3796
-70.0698
-69.8056
-69.5661
-69.3706
-69.2202
-69.1105
-69.0384
-68.9939
-68.9715
-68.9672
-68.9782
-68.9935
-69.0169
-69.0397
-69.0652
-69.0952
-69.1329
-69.1737
-69.2276
-69.2734
-69.3172
-69.3547
-69.3817
-69.4019
-69.419
-69.4395
-69.4638
-69.5009
-69.5469
-69.605
-69.6745
-69.7554
-69.8558
-69.9701
-70.1173
-76.9816
-76.7205
-76.3462
-75.9297
-75.4662
-74.9838
-74.5275
-74.1165
-73.7514
-73.4487
-73.1937
-72.9567
-72.7592
-72.6061
-72.4933
-72.417
-72.3691
-72.3428
-72.335
-72.3409
-72.3535
-72.3733
-72.3946
-72.4189
-72.4478
-72.484
-72.5223
-72.5726
-72.615
-72.6574
-72.6943
-72.7216
-72.7435
-72.763
-72.7857
-72.8121
-72.8501
-72.8967
-72.9551
-73.025
-73.1063
-73.2062
-73.3209
-73.4641
-80.1599
-79.9215
-79.5785
-79.1878
-78.7558
-78.3009
-77.8671
-77.4722
-77.119
-76.8217
-76.5737
-76.3413
-76.1431
-75.9879
-75.8733
-75.7933
-75.7424
-75.7126
-75.7018
-75.7029
-75.7131
-75.7295
-75.7494
-75.7722
-75.8002
-75.8341
-75.8706
-75.918
-75.9576
-75.9986
-76.0342
-76.062
-76.0853
-76.1069
-76.1316
-76.1597
-76.1989
-76.2458
-76.3046
-76.3748
-76.4563
-76.5556
-76.6701
-76.8096
-83.3518
-83.1356
-82.8232
-82.4535
-82.049
-81.618
-81.2045
-80.8231
-80.4826
-80.1891
-79.9451
-79.7199
-79.5221
-79.3662
-79.25
-79.1677
-79.114
-79.0812
-79.0672
-79.0644
-79.0723
-79.0856
-79.104
-79.1252
-79.152
-79.184
-79.2191
-79.2631
-79.2997
-79.3408
-79.3742
-79.4027
-79.4275
-79.4507
-79.4771
-79.5069
-79.5471
-79.5944
-79.6536
-79.7238
-79.8055
-79.904
-80.0178
-80.154
-86.5542
-86.3613
-86.0778
-85.7267
-85.3462
-84.9351
-84.5401
-84.1707
-83.8411
-83.5519
-83.3093
-83.0923
-82.896
-82.7408
-82.6238
-82.5401
-82.4837
-82.4488
-82.4311
-82.4253
-82.4307
-82.4414
-82.4582
-82.4779
-82.5034
-82.5337
-82.5675
-82.6076
-82.6433
-82.6827
-82.7151
-82.7437
-82.7701
-82.7944
-82.8223
-82.8537
-82.8947
-82.9425
-83.002
-83.072
-83.1538
-83.2514
-83.3642
-83.4972
-89.7664
-89.5972
-89.341
-89.0064
-88.6472
-88.2547
-87.8734
-87.5158
-87.1952
-86.9098
-86.667
-86.4587
-86.2652
-86.112
-85.9949
-85.9103
-85.8519
-85.8147
-85.794
-85.7858
-85.7883
-85.797
-85.8119
-85.8304
-85.8543
-85.8832
-85.9152
-85.9529
-85.9876
-86.024
-86.0568
-86.085
-86.1127
-86.138
-86.1671
-86.2003
-86.2416
-86.29
-86.3498
-86.4195
-86.5013
-86.5979
-86.7093
-86.8394
-92.9891
-92.8453
-92.6114
-92.2936
-91.9517
-91.575
-91.2058
-90.8583
-90.5461
-90.2639
-90.0212
-89.8188
-89.6296
-89.4796
-89.3633
-89.2782
-89.2185
-89.1793
-89.156
-89.1455
-89.1456
-89.1523
-89.1654
-89.1827
-89.2049
-89.2324
-89.2624
-89.2987
-89.3314
-89.366
-89.3983
-89.4269
-89.4551
-89.4818
-89.5117
-89.5463
-89.588
-89.637
-89.6969
-89.7663
-89.8478
-89.9434
-90.0532
-90.1804
-96.2208
-96.1053
-95.8883
-95.587
-95.26
-94.8945
-94.537
-94.1982
-93.8915
-93.6138
-93.3726
-93.1736
-92.9902
-92.844
-92.7292
-92.6441
-92.5833
-92.5424
-92.517
-92.5045
-92.5023
-92.5071
-92.5187
-92.5347
-92.5549
-92.5815
-92.6097
-92.6438
-92.6757
-92.7089
-92.7395
-92.7693
-92.7972
-92.8255
-92.8561
-92.8919
-92.934
-92.9835
-93.0434
-93.1125
-93.1936
-93.2879
-93.3962
-93.5205
-99.4628
-99.3766
-99.1718
-98.8858
-98.5717
-98.2163
-97.8666
-97.5373
-97.2341
-96.9607
-96.7218
-96.5235
-96.3472
-96.2055
-96.0927
-96.0081
-95.9466
-95.9043
-95.8771
-95.8628
-95.8584
-95.8616
-95.8714
-95.8862
-95.905
-95.9302
-95.9574
-95.9886
-96.0201
-96.052
-96.0806
-96.1123
-96.1394
-96.1692
-96.2004
-96.2369
-96.2795
-96.3295
-96.3893
-96.458
-96.5385
-96.6316
-96.7381
-96.8596
-102.716
-102.66
-102.461
-102.19
-101.886
-101.538
-101.197
-100.874
-100.575
-100.305
-100.068
-99.8723
-99.7019
-99.5645
-99.454
-99.3701
-99.3083
-99.2649
-99.2362
-99.2202
-99.214
-99.2157
-99.2238
-99.2373
-99.255
-99.2784
-99.3046
-99.3334
-99.364
-99.3955
-99.4225
-99.455
-99.4817
-99.5126
-99.5444
-99.5816
-99.6246
-99.6749
-99.7345
-99.8029
-99.8827
-99.9745
-100.079
-100.198
-105.981
-105.954
-105.755
-105.5
-105.202
-104.86
-104.526
-104.207
-103.913
-103.647
-103.412
-103.218
-103.054
-102.921
-102.813
-102.73
-102.668
-102.624
-102.594
-102.577
-102.569
-102.569
-102.576
-102.588
-102.605
-102.626
-102.652
-102.678
-102.708
-102.738
-102.766
-102.797
-102.824
-102.856
-102.888
-102.926
-102.969
-103.02
-103.079
-103.147
-103.226
-103.317
-103.419
-103.535
-109.252
-109.258
-109.052
-108.815
-108.519
-108.182
-107.851
-107.539
-107.249
-106.987
-106.756
-106.564
-106.405
-106.276
-106.171
-106.089
-106.027
-105.983
-105.952
-105.933
-105.923
-105.922
-105.927
-105.939
-105.954
-105.974
-105.998
-106.023
-106.053
-106.08
-106.109
-106.139
-106.167
-106.199
-106.232
-106.27
-106.313
-106.364
-106.423
-106.491
-106.569
-106.658
-106.759
-106.872
-112.533
-112.564
-112.353
-112.136
-111.835
-111.503
-111.176
-110.869
-110.582
-110.325
-110.097
-109.907
-109.754
-109.629
-109.527
-109.446
-109.385
-109.34
-109.308
-109.288
-109.277
-109.275
-109.279
-109.289
-109.303
-109.322
-109.344
-109.369
-109.397
-109.424
-109.452
-109.481
-109.51
-109.542
-109.575
-109.614
-109.657
-109.708
-109.767
-109.834
-109.911
-109.998
-110.097
-110.208
-115.818
-115.863
-115.66
-115.459
-115.153
-114.821
-114.501
-114.197
-113.914
-113.661
-113.438
-113.249
-113.102
-112.98
-112.881
-112.802
-112.741
-112.696
-112.663
-112.642
-112.631
-112.627
-112.63
-112.638
-112.652
-112.669
-112.691
-112.714
-112.741
-112.767
-112.795
-112.823
-112.853
-112.884
-112.918
-112.957
-113.001
-113.052
-113.11
-113.176
-113.252
-113.338
-113.435
-113.543
-119.106
-119.153
-118.972
-118.784
-118.476
-118.141
-117.825
-117.523
-117.243
-116.995
-116.777
-116.591
-116.448
-116.33
-116.234
-116.157
-116.096
-116.051
-116.018
-115.996
-115.983
-115.979
-115.98
-115.988
-116
-116.017
-116.037
-116.06
-116.085
-116.111
-116.138
-116.165
-116.196
-116.227
-116.261
-116.3
-116.344
-116.394
-116.452
-116.518
-116.593
-116.678
-116.772
-116.877
-122.4
-122.43
-122.286
-122.106
-121.797
-121.463
-121.147
-120.848
-120.571
-120.328
-120.114
-119.934
-119.792
-119.679
-119.585
-119.51
-119.45
-119.405
-119.372
-119.349
-119.336
-119.33
-119.331
-119.337
-119.348
-119.364
-119.383
-119.405
-119.428
-119.454
-119.482
-119.507
-119.539
-119.569
-119.604
-119.643
-119.687
-119.737
-119.794
-119.859
-119.933
-120.016
-120.109
-120.211
-125.683
-125.724
-125.6
-125.427
-125.116
-124.784
-124.468
-124.171
-123.898
-123.659
-123.451
-123.275
-123.135
-123.026
-122.936
-122.862
-122.803
-122.758
-122.725
-122.701
-122.687
-122.681
-122.68
-122.686
-122.696
-122.71
-122.729
-122.75
-122.772
-122.797
-122.825
-122.85
-122.881
-122.912
-122.946
-122.985
-123.029
-123.079
-123.136
-123.2
-123.273
-123.354
-123.445
-123.545
-128.961
-129.026
-128.912
-128.743
-128.433
-128.103
-127.787
-127.492
-127.224
-126.989
-126.786
-126.615
-126.479
-126.372
-126.285
-126.213
-126.155
-126.11
-126.077
-126.053
-126.038
-126.031
-126.03
-126.034
-126.044
-126.057
-126.074
-126.095
-126.116
-126.14
-126.166
-126.193
-126.222
-126.254
-126.289
-126.327
-126.371
-126.421
-126.477
-126.54
-126.612
-126.692
-126.78
-126.878
-132.247
-132.311
-132.222
-132.055
-131.748
-131.417
-131.104
-130.812
-130.548
-130.318
-130.12
-129.953
-129.822
-129.718
-129.633
-129.563
-129.506
-129.462
-129.428
-129.404
-129.389
-129.38
-129.379
-129.382
-129.391
-129.403
-129.42
-129.439
-129.46
-129.484
-129.508
-129.536
-129.564
-129.596
-129.631
-129.669
-129.713
-129.762
-129.817
-129.88
-129.95
-130.029
-130.115
-130.21
-135.541
-135.583
-135.53
-135.363
-135.06
-134.73
-134.419
-134.13
-133.872
-133.645
-133.453
-133.291
-133.164
-133.063
-132.98
-132.912
-132.856
-132.812
-132.779
-132.755
-132.739
-132.73
-132.727
-132.73
-132.738
-132.75
-132.765
-132.784
-132.804
-132.827
-132.85
-132.879
-132.906
-132.938
-132.972
-133.011
-133.054
-133.103
-133.158
-133.219
-133.288
-133.365
-133.449
-133.542
-138.823
-138.872
-138.83
-138.667
-138.368
-138.038
-137.732
-137.447
-137.194
-136.972
-136.785
-136.628
-136.505
-136.408
-136.327
-136.26
-136.206
-136.162
-136.129
-136.104
-136.088
-136.079
-136.075
-136.078
-136.085
-136.095
-136.11
-136.128
-136.148
-136.17
-136.193
-136.222
-136.248
-136.279
-136.314
-136.352
-136.395
-136.443
-136.497
-136.558
-136.625
-136.7
-136.783
-136.873
-148.593
-148.62
-148.578
-148.434
-148.151
-147.829
-147.538
-147.268
-147.031
-146.822
-146.651
-146.51
-146.4
-146.311
-146.237
-146.175
-146.123
-146.082
-146.049
-146.024
-146.007
-145.996
-145.991
-145.991
-145.996
-146.005
-146.017
-146.032
-146.05
-146.071
-146.094
-146.119
-146.146
-146.176
-146.21
-146.247
-146.289
-146.335
-146.387
-146.444
-146.508
-146.578
-146.654
-146.737
-164.638
-164.706
-164.649
-164.501
-164.295
-164.009
-163.774
-163.545
-163.339
-163.173
-163.042
-162.924
-162.833
-162.757
-162.693
-162.639
-162.593
-162.556
-162.525
-162.501
-162.484
-162.472
-162.465
-162.464
-162.466
-162.472
-162.482
-162.494
-162.51
-162.527
-162.548
-162.571
-162.596
-162.624
-162.656
-162.69
-162.729
-162.772
-162.819
-162.871
-162.928
-162.99
-163.057
-163.128