/*--------------------------------*- C++ -*----------------------------------*\
| =========                 |                                                 |
| \\      /  F ield         | OpenFOAM: The Open Source CFD Toolbox           |
|  \\    /   O peration     | Version:  v1912                                 |
|   \\  /    A nd           | Website:  www.openfoam.com                      |
|    \\/     M anipulation  |                                                 |
\*---------------------------------------------------------------------------*/
FoamFile
{
    version     2.0;
    format      ascii;
    class       volScalarField;
    location    "100";
    object      p_rgh;
}
// * * * * * * * * * * * * * * * * * * * * * * * * * * * * * * * * * * * * * //

dimensions      [1 -1 -2 0 0 0 0];


internalField   nonuniform List<scalar> 
14268
(
7944.54
7573.79
7068.29
6444.73
5720.51
4920.13
4072.36
3203.79
2342.19
1511.77
729.834
20.071
-614.529
-1173.45
-1662.03
-2085.76
-2450.85
-2761.28
-3020.41
-3231.18
-3398.52
-3533.3
-3648.23
-3748.16
-3848.84
-3923.38
-3924.05
-3858.56
-3745.03
-3612.03
-3486.68
-3375.21
-3278.68
-3184.03
-3075.38
-2936.85
-2755.7
-2523.96
-2239.15
-1902.51
-1519.06
-1085.81
-610.504
-83.878
7944.56
7573.8
7068.3
6444.73
5720.52
4920.13
4072.36
3203.79
2342.18
1511.77
729.825
20.0613
-614.539
-1173.46
-1662.03
-2085.77
-2450.86
-2761.29
-3020.41
-3231.19
-3398.52
-3533.31
-3648.23
-3748.17
-3848.85
-3923.39
-3924.05
-3858.57
-3745.03
-3612.04
-3486.68
-3375.21
-3278.68
-3184.03
-3075.39
-2936.85
-2755.7
-2523.97
-2239.16
-1902.51
-1519.06
-1085.82
-610.508
-83.911
7944.58
7573.83
7068.32
6444.75
5720.53
4920.13
4072.36
3203.78
2342.17
1511.75
729.805
20.0409
-614.558
-1173.48
-1662.05
-2085.78
-2450.87
-2761.3
-3020.43
-3231.19
-3398.53
-3533.31
-3648.24
-3748.18
-3848.86
-3923.41
-3924.07
-3858.58
-3745.03
-3612.04
-3486.68
-3375.21
-3278.68
-3184.03
-3075.39
-2936.86
-2755.72
-2523.98
-2239.17
-1902.52
-1519.07
-1085.83
-610.519
-83.9299
7944.63
7573.87
7068.35
6444.77
5720.54
4920.14
4072.35
3203.76
2342.14
1511.72
729.776
20.0104
-614.588
-1173.51
-1662.07
-2085.8
-2450.89
-2761.32
-3020.44
-3231.21
-3398.54
-3533.32
-3648.25
-3748.19
-3848.88
-3923.43
-3924.09
-3858.59
-3745.04
-3612.04
-3486.68
-3375.2
-3278.68
-3184.04
-3075.4
-2936.87
-2755.73
-2523.99
-2239.19
-1902.54
-1519.09
-1085.85
-610.533
-83.9601
7944.69
7573.92
7068.4
6444.8
5720.56
4920.14
4072.35
3203.75
2342.12
1511.69
729.736
19.9698
-614.627
-1173.54
-1662.1
-2085.83
-2450.91
-2761.34
-3020.46
-3231.22
-3398.56
-3533.33
-3648.26
-3748.21
-3848.91
-3923.47
-3924.12
-3858.61
-3745.05
-3612.04
-3486.68
-3375.2
-3278.68
-3184.04
-3075.42
-2936.89
-2755.75
-2524.02
-2239.21
-1902.56
-1519.11
-1085.87
-610.553
-83.9876
7944.76
7573.98
7068.45
6444.84
5720.58
4920.15
4072.34
3203.72
2342.08
1511.64
729.687
19.9192
-614.675
-1173.59
-1662.14
-2085.86
-2450.95
-2761.37
-3020.49
-3231.25
-3398.58
-3533.34
-3648.28
-3748.23
-3848.95
-3923.51
-3924.15
-3858.64
-3745.07
-3612.05
-3486.68
-3375.2
-3278.68
-3184.05
-3075.43
-2936.91
-2755.78
-2524.05
-2239.24
-1902.59
-1519.14
-1085.9
-610.578
-84.0231
7944.85
7574.06
7068.51
6444.88
5720.6
4920.15
4072.32
3203.69
2342.04
1511.59
729.629
19.8587
-614.733
-1173.64
-1662.19
-2085.9
-2450.98
-2761.4
-3020.52
-3231.27
-3398.6
-3533.36
-3648.3
-3748.26
-3849
-3923.56
-3924.2
-3858.67
-3745.09
-3612.06
-3486.68
-3375.2
-3278.68
-3184.06
-3075.45
-2936.94
-2755.81
-2524.08
-2239.27
-1902.62
-1519.17
-1085.94
-610.608
-84.0587
7944.96
7574.15
7068.58
6444.93
5720.63
4920.16
4072.31
3203.66
2341.99
1511.53
729.56
19.7882
-614.801
-1173.7
-1662.24
-2085.95
-2451.03
-2761.44
-3020.56
-3231.3
-3398.62
-3533.38
-3648.32
-3748.29
-3849.05
-3923.61
-3924.25
-3858.7
-3745.11
-3612.06
-3486.68
-3375.2
-3278.69
-3184.08
-3075.47
-2936.97
-2755.85
-2524.12
-2239.31
-1902.66
-1519.21
-1085.98
-610.643
-84.0988
7945.08
7574.25
7068.66
6444.99
5720.66
4920.16
4072.29
3203.62
2341.94
1511.46
729.482
19.7071
-614.879
-1173.77
-1662.3
-2086.01
-2451.07
-2761.49
-3020.6
-3231.33
-3398.65
-3533.4
-3648.34
-3748.32
-3849.11
-3923.68
-3924.3
-3858.75
-3745.13
-3612.07
-3486.68
-3375.19
-3278.69
-3184.09
-3075.5
-2937
-2755.89
-2524.17
-2239.36
-1902.7
-1519.26
-1086.03
-610.683
-84.1424
7945.21
7574.37
7068.75
6445.06
5720.7
4920.17
4072.28
3203.58
2341.87
1511.38
729.394
19.6158
-614.966
-1173.85
-1662.37
-2086.07
-2451.13
-2761.54
-3020.65
-3231.37
-3398.68
-3533.43
-3648.37
-3748.36
-3849.18
-3923.75
-3924.37
-3858.79
-3745.16
-3612.08
-3486.67
-3375.19
-3278.69
-3184.1
-3075.53
-2937.04
-2755.94
-2524.22
-2239.41
-1902.75
-1519.31
-1086.08
-610.728
-84.1885
7945.36
7574.5
7068.86
6445.13
5720.74
4920.18
4072.26
3203.53
2341.8
1511.29
729.296
19.5145
-615.063
-1173.94
-1662.45
-2086.14
-2451.19
-2761.6
-3020.7
-3231.42
-3398.72
-3533.45
-3648.41
-3748.41
-3849.26
-3923.84
-3924.44
-3858.84
-3745.19
-3612.09
-3486.67
-3375.19
-3278.7
-3184.12
-3075.56
-2937.08
-2755.99
-2524.27
-2239.46
-1902.81
-1519.36
-1086.14
-610.779
-84.2389
7945.52
7574.64
7068.97
6445.21
5720.79
4920.19
4072.23
3203.48
2341.73
1511.2
729.188
19.4032
-615.17
-1174.03
-1662.53
-2086.21
-2451.26
-2761.66
-3020.76
-3231.46
-3398.76
-3533.48
-3648.44
-3748.46
-3849.34
-3923.93
-3924.52
-3858.9
-3745.22
-3612.1
-3486.67
-3375.18
-3278.7
-3184.14
-3075.6
-2937.13
-2756.05
-2524.34
-2239.52
-1902.87
-1519.42
-1086.21
-610.833
-84.2922
7945.7
7574.8
7069.1
6445.3
5720.84
4920.21
4072.21
3203.43
2341.64
1511.09
729.071
19.2816
-615.287
-1174.14
-1662.63
-2086.29
-2451.33
-2761.73
-3020.82
-3231.51
-3398.8
-3533.51
-3648.48
-3748.51
-3849.43
-3924.03
-3924.6
-3858.96
-3745.26
-3612.12
-3486.67
-3375.18
-3278.71
-3184.16
-3075.64
-2937.18
-2756.12
-2524.4
-2239.59
-1902.93
-1519.49
-1086.28
-610.894
-84.3492
7945.89
7574.97
7069.23
6445.4
5720.89
4920.22
4072.18
3203.36
2341.55
1510.98
728.944
19.1501
-615.413
-1174.25
-1662.73
-2086.38
-2451.41
-2761.8
-3020.89
-3231.57
-3398.85
-3533.55
-3648.52
-3748.57
-3849.54
-3924.13
-3924.69
-3859.03
-3745.29
-3612.13
-3486.67
-3375.17
-3278.71
-3184.18
-3075.68
-2937.23
-2756.19
-2524.48
-2239.66
-1903
-1519.56
-1086.36
-610.959
-84.4102
7946.21
7575.24
7069.45
6445.55
5720.98
4920.24
4072.14
3203.27
2341.41
1510.79
728.738
18.9381
-615.616
-1174.44
-1662.89
-2086.52
-2451.54
-2761.92
-3021
-3231.66
-3398.93
-3533.61
-3648.59
-3748.66
-3849.7
-3924.3
-3924.84
-3859.14
-3745.36
-3612.15
-3486.66
-3375.16
-3278.72
-3184.22
-3075.75
-2937.32
-2756.3
-2524.6
-2239.78
-1903.12
-1519.68
-1086.48
-611.066
-84.5063
7946.68
7575.65
7069.78
6445.79
5721.12
4920.27
4072.08
3203.12
2341.18
1510.51
728.426
18.6148
-615.927
-1174.72
-1663.13
-2086.74
-2451.74
-2762.1
-3021.17
-3231.79
-3399.04
-3533.69
-3648.69
-3748.81
-3849.92
-3924.57
-3925.07
-3859.3
-3745.45
-3612.18
-3486.65
-3375.15
-3278.73
-3184.28
-3075.85
-2937.45
-2756.47
-2524.78
-2239.96
-1903.3
-1519.85
-1086.67
-611.227
-84.6506
7947.22
7576.12
7070.15
6446.05
5721.27
4920.31
4072.01
3202.95
2340.93
1510.2
728.074
18.2503
-616.277
-1175.03
-1663.41
-2086.98
-2451.96
-2762.31
-3021.35
-3231.95
-3399.17
-3533.79
-3648.81
-3748.97
-3850.19
-3924.87
-3925.33
-3859.49
-3745.55
-3612.23
-3486.66
-3375.14
-3278.74
-3184.34
-3075.97
-2937.61
-2756.67
-2524.99
-2240.16
-1903.49
-1520.05
-1086.89
-611.411
-84.8081
7947.81
7576.64
7070.57
6446.35
5721.43
4920.35
4071.93
3202.76
2340.66
1509.85
727.682
17.8452
-616.665
-1175.38
-1663.72
-2087.25
-2452.2
-2762.54
-3021.57
-3232.12
-3399.32
-3533.9
-3648.94
-3749.15
-3850.49
-3925.19
-3925.61
-3859.69
-3745.67
-3612.26
-3486.65
-3375.12
-3278.76
-3184.41
-3076.1
-2937.77
-2756.88
-2525.21
-2240.39
-1903.71
-1520.27
-1087.13
-611.615
-84.9834
7948.47
7577.21
7071.02
6446.67
5721.62
4920.39
4071.84
3202.56
2340.35
1509.46
727.251
17.3994
-617.093
-1175.77
-1664.06
-2087.55
-2452.47
-2762.79
-3021.8
-3232.31
-3399.48
-3534.02
-3649.08
-3749.34
-3850.82
-3925.56
-3925.93
-3859.92
-3745.8
-3612.31
-3486.63
-3375.09
-3278.77
-3184.48
-3076.24
-2937.96
-2757.12
-2525.47
-2240.64
-1903.95
-1520.52
-1087.39
-611.842
-85.1772
7949.18
7577.83
7071.52
6447.02
5721.82
4920.44
4071.74
3202.33
2340.01
1509.04
726.781
16.913
-617.56
-1176.19
-1664.42
-2087.87
-2452.77
-2763.07
-3022.05
-3232.51
-3399.65
-3534.15
-3649.24
-3749.56
-3851.18
-3925.95
-3926.27
-3860.17
-3745.94
-3612.35
-3486.63
-3375.08
-3278.79
-3184.56
-3076.4
-2938.16
-2757.37
-2525.74
-2240.9
-1904.21
-1520.78
-1087.68
-612.09
-85.3918
7949.96
7578.5
7072.06
6447.41
5722.04
4920.49
4071.64
3202.09
2339.65
1508.59
726.274
16.3881
-618.064
-1176.65
-1664.82
-2088.23
-2453.09
-2763.36
-3022.32
-3232.73
-3399.84
-3534.29
-3649.4
-3749.79
-3851.57
-3926.38
-3926.65
-3860.44
-3746.1
-3612.4
-3486.62
-3375.06
-3278.81
-3184.65
-3076.56
-2938.38
-2757.65
-2526.03
-2241.19
-1904.49
-1521.07
-1087.99
-612.368
-85.6132
7956.06
7583.82
7076.31
6450.46
5723.8
4920.96
4070.87
3200.22
2336.85
1505.04
722.299
12.2714
-622.019
-1180.23
-1667.97
-2091
-2455.61
-2765.71
-3024.48
-3234.48
-3401.33
-3535.39
-3650.73
-3751.63
-3854.62
-3929.76
-3929.5
-3862.54
-3747.3
-3612.81
-3486.36
-3374.74
-3278.89
-3185.34
-3077.89
-2940.07
-2759.87
-2528.38
-2243.53
-1906.73
-1523.34
-1090.45
-614.613
-87.3034
7978.72
7603.64
7092.31
6462.06
5730.66
4923.02
4068.37
3193.61
2326.73
1492.16
707.776
-2.81643
-636.53
-1193.34
-1679.45
-2101.13
-2464.83
-2774.32
-3032.38
-3240.92
-3406.47
-3539.44
-3655.54
-3758.37
-3865.95
-3941.83
-3940.13
-3870.21
-3751.4
-3613.79
-3485.8
-3373.9
-3279.34
-3187.9
-3082.82
-2946.18
-2767.84
-2536.79
-2251.79
-1914.96
-1531.87
-1099.46
-622.876
-94.1213
8012.21
7632.76
7115.57
6478.61
5740.03
4925.23
4063.85
3183.06
2311.02
1472.38
685.624
-25.7252
-658.48
-1213.15
-1696.74
-2116.3
-2478.61
-2787.22
-3044.22
-3250.33
-3415.52
-3545.74
-3662.21
-3768.47
-3881.58
-3958.99
-3956.1
-3880.3
-3757.64
-3615.94
-3485.16
-3372.91
-3280.17
-3191.8
-3089.85
-2956.37
-2780.3
-2550.01
-2264.67
-1927.17
-1544.24
-1112.71
-635.64
-105.092
8056.81
7671.46
7146.34
6500.37
5752.21
4927.81
4057.4
3168.58
2289.71
1445.65
655.752
-56.5575
-687.933
-1239.56
-1719.66
-2136.36
-2496.88
-2804.41
-3059.96
-3264.23
-3424.69
-3553.11
-3671.75
-3780.66
-3900.95
-3978.28
-3972.71
-3893.8
-3763.87
-3616.99
-3483.84
-3371.28
-3281.18
-3197.73
-3098.39
-2969.69
-2796.62
-2566.99
-2281.27
-1943.51
-1561.2
-1130.9
-653.397
-120.965
8113.3
7720.34
7185.16
6527.79
5767.46
4930.97
4049.28
3150.39
2262.89
1412
618.109
-95.3699
-724.943
-1272.72
-1748.3
-2161.28
-2519.57
-2825.84
-3079.74
-3282.17
-3437.93
-3566.06
-3681.54
-3794.19
-3921.28
-4000.3
-3989.22
-3907.26
-3769.77
-3618.67
-3481.21
-3369.16
-3283.3
-3203.23
-3110.31
-2989.17
-2817.64
-2589.14
-2302.62
-1963.94
-1582.19
-1153.53
-676.195
-141.589
8180.28
7778.36
7231.14
6560.12
5785.25
4934.27
4039
3128.03
2230.27
1371.1
572.359
-142.495
-769.734
-1312.57
-1782.39
-2190.79
-2546.55
-2851.59
-3103.49
-3302.31
-3455.5
-3583.12
-3689.68
-3812.59
-3943.54
-4021.63
-4007.76
-3917.84
-3772.35
-3617.59
-3476.86
-3366.58
-3283.86
-3210.4
-3126.53
-3009.65
-2843.37
-2615.59
-2328.02
-1988.34
-1607.47
-1181.31
-704.548
-168.084
8260.12
7847.34
7285.65
6598.27
5806.05
4937.95
4026.74
3101.57
2191.7
1322.71
518.225
-198.169
-822.471
-1359.32
-1822.05
-2224.86
-2578.24
-2882.19
-3131.91
-3327.56
-3477.73
-3603.39
-3705.1
-3829.36
-3970.04
-4038.7
-4029.62
-3927.29
-3773.55
-3613.21
-3472.06
-3362.74
-3284.83
-3220.64
-3145.75
-3036.2
-2874.21
-2647.31
-2358.24
-2017.33
-1637.78
-1214.29
-738.686
-200.806
8351.08
7925.11
7346.46
6640.4
5828.48
4940.79
4011.33
3070.07
2146.6
1266.35
455.371
-262.61
-883.159
-1412.61
-1866.64
-2263.38
-2614.59
-2917.09
-3164.67
-3356.7
-3501.89
-3623.9
-3728.03
-3849.25
-3990.42
-4063.46
-4045.86
-3933.78
-3772.76
-3604.57
-3460.87
-3355.46
-3286.79
-3233.12
-3169.74
-3067.68
-2911.09
-2684.48
-2393.38
-2050.48
-1672.35
-1252.87
-778.833
-240.275
8451.92
8013.11
7415.51
6688.38
5854.08
4944.22
3994.03
3034.36
2095.33
1201.88
383.239
-336.75
-953.123
-1473.96
-1918.13
-2307.99
-2656.38
-2957.73
-3203.18
-3390.82
-3529.99
-3647.53
-3751.96
-3874.49
-4012.09
-4095.57
-4054.45
-3949.88
-3769.86
-3595.06
-3449.79
-3348.42
-3289.7
-3248.82
-3199.23
-3105.25
-2954.43
-2727.83
-2434.16
-2089.09
-1712.86
-1297.98
-826.211
-286.857
8572.93
8116.18
7495.04
6742.09
5880.96
4945.75
3972.6
2992.9
2036.91
1128.54
301.498
-420.504
-1031.24
-1541.08
-1973.38
-2356.18
-2702.36
-3002.43
-3245.16
-3427.74
-3559.7
-3672.19
-3777.01
-3901.22
-4037.36
-4123.52
-4076.46
-3954
-3765.63
-3579.5
-3430.62
-3337.09
-3292.01
-3266.31
-3228.53
-3149.28
-3005.44
-2778.2
-2481.02
-2133.08
-1759.26
-1350.26
-881.238
-342.117
8692.8
8217.15
7570.99
6792.6
5906.04
4945.79
3948.33
2946.43
1971.6
1045.49
208.115
-516.942
-1122.21
-1620.85
-2040.14
-2414.33
-2756.84
-3055.11
-3295.49
-3471.96
-3594.6
-3699.97
-3807.89
-3934.65
-4068.2
-4152.14
-4112.08
-3963.63
-3762.07
-3561.33
-3410.08
-3325.38
-3297.06
-3291.94
-3277.24
-3200.99
-3065.22
-2835.02
-2536.06
-2186.57
-1814.66
-1412.2
-945.962
-406.6
8838.94
8343.49
7670.97
6863.97
5944.58
4950.51
3921.78
2893.44
1897.98
951.531
104.021
-622.614
-1218.48
-1700.68
-2102.39
-2463.42
-2799.74
-3096.77
-3337.01
-3505.57
-3616.73
-3702.12
-3749.96
-3781.96
-3867.91
-3983.44
-4031.52
-3942.75
-3752.06
-3539.51
-3381.73
-3308.76
-3299.34
-3317.58
-3314.8
-3251.99
-3131.21
-2904.99
-2604.23
-2249.8
-1879.86
-1484.36
-1021.77
-484.202
8991.56
8471.78
7765.21
6921.86
5966.68
4941.42
3885.41
2832.36
1818.66
866.154
21.1961
-680.937
-1218.68
-1614.65
-1906.98
-2128.15
-2277.95
-2348.72
-2361.18
-2337.86
-2298.3
-2231.34
-2101.79
-1967.25
-1885.04
-1922.8
-2055.7
-2216.14
-2341.28
-2416.52
-2425.41
-2403.48
-2362.51
-2328.99
-2310.53
-2287.11
-2250.14
-2190.62
-2087.01
-1935.5
-1735.79
-1469.87
-1093.19
-579.217
9151.83
8605.81
7865.54
6992.81
5999.87
4940.51
3855.4
2782.04
1772.47
890.873
255.372
-43.7636
-159.597
-212.089
-229.985
-224.125
-198.502
-161.626
-126.82
-106.552
-94.9568
-86.7755
-84.5493
-83.4563
-70.6188
-59.3559
-59.2648
-68.4231
-94.2313
-123.368
-147.093
-152.688
-149.153
-141.068
-135.717
-140.363
-155.119
-183.508
-221.596
-261.651
-288.546
-287.774
-230.912
-49.4357
9339.51
8768.3
7988.73
7082.41
6050.18
4951.59
3839.39
2775.63
1864.79
1134.02
617.222
353.526
219.131
135.927
81.9372
45.0524
23.0343
15.0586
14.2492
14.3722
16.0916
18.8128
20.5295
21.1151
21.4485
17.1243
11.3001
9.45767
8.90362
10.3458
12.1973
14.1619
15.0239
14.9023
14.8931
16.0325
19.006
25.1683
36.0649
53.576
80.9603
125.983
213.141
381.014
9535.18
8927.01
8101.01
7131.88
5981.15
4592.73
2980.67
1549.67
691.57
237.319
33.5315
4.77876
4.14812
3.90296
3.6656
3.50451
3.62962
3.94309
4.05029
3.96431
3.93217
3.96337
3.96151
4.12299
4.36197
3.81053
2.65841
2.04728
1.75066
1.50295
1.4375
1.68384
1.99823
2.31761
2.59123
2.73898
2.87314
3.0589
3.58542
4.59885
6.12192
8.13854
11.8061
14.5778
9675.53
8985.63
7851.11
6036.73
3716.68
1692.29
597.897
72.3301
3.04366
3.02451
2.93095
3.58732
3.28148
3.12982
2.92503
2.80921
2.89953
2.97264
2.80569
2.45484
1.97758
1.72977
2.05942
2.4066
2.60628
2.85703
2.24045
1.6689
1.49188
1.19169
1.01823
1.06146
1.32336
1.63641
1.88741
1.92003
1.80001
1.50989
1.30677
1.30085
1.44541
1.49706
1.94026
1.80061
8274.8
6239.6
3725.51
1665.2
460.147
5.74299
3.61239
0.723438
2.38268
2.66674
2.9728
3.3165
2.96015
2.91415
2.79866
2.70842
2.73877
2.78966
2.6551
2.35816
1.99524
1.87544
1.99487
2.1218
2.18728
2.28414
2.01369
1.60981
1.432
1.23316
1.12654
1.18521
1.3407
1.52664
1.70809
1.79017
1.74432
1.55047
1.35206
1.28559
1.36231
1.35126
1.59341
0.856645
2287.96
1101.82
212.97
-2.29706
-2.90045
0.198948
2.13467
0.954641
2.25639
2.37889
2.72654
3.0909
2.89101
2.83607
2.73476
2.67102
2.69644
2.68876
2.56094
2.30723
1.98621
1.81396
1.98307
2.11678
2.11686
2.15854
1.91567
1.61573
1.48727
1.26115
1.14105
1.15553
1.31951
1.51891
1.69233
1.72572
1.64635
1.45259
1.31075
1.27052
1.32334
1.31375
1.48583
1.20415
-7.36173
-7.52367
-7.5436
-2.73712
-3.41158
0.0750236
1.55214
0.890143
2.03234
2.21607
2.58581
2.86477
2.74768
2.72246
2.64797
2.5948
2.60315
2.59068
2.47501
2.26486
2.00521
1.9095
1.96378
2.03956
2.04958
2.06861
1.86351
1.60329
1.43219
1.28285
1.19492
1.23338
1.35109
1.48847
1.61307
1.65984
1.61582
1.48186
1.34514
1.27543
1.28657
1.27912
1.39128
1.07339
-7.94962
-7.42802
-6.83061
-2.81655
-3.19636
-0.127587
1.07954
0.894465
1.82025
2.04382
2.43926
2.68641
2.63684
2.61918
2.56474
2.52635
2.52519
2.50224
2.39674
2.21555
1.99359
1.86792
1.94175
2.01744
2.00076
2.00077
1.81004
1.60153
1.47187
1.30622
1.22428
1.21794
1.31691
1.45203
1.56186
1.59731
1.54563
1.42058
1.31221
1.26505
1.26034
1.24881
1.29114
1.04822
-7.27152
-6.72502
-6.12499
-2.93547
-2.99771
-0.302582
0.706748
0.8579
1.62406
1.89003
2.29231
2.51575
2.51409
2.51557
2.48229
2.45592
2.4498
2.41881
2.32551
2.17064
1.98588
1.89994
1.91927
1.95782
1.9523
1.93992
1.76684
1.56036
1.42942
1.31339
1.24382
1.25968
1.34224
1.43986
1.52081
1.5478
1.50761
1.4129
1.3079
1.25097
1.22666
1.20465
1.21317
0.999654
-6.9064
-6.31435
-5.55968
-2.98309
-2.80399
-0.461459
0.42354
0.787385
1.45124
1.74464
2.14284
2.35694
2.39376
2.41294
2.3972
2.38213
2.37394
2.34024
2.25922
2.12474
1.96554
1.87813
1.89217
1.92843
1.9072
1.8805
1.73086
1.5802
1.45314
1.33133
1.26297
1.25313
1.30955
1.39887
1.47211
1.49693
1.46074
1.37795
1.28774
1.23468
1.20067
1.16269
1.13387
0.943632
-6.44218
-5.90827
-5.08986
-2.98978
-2.63
-0.610246
0.208471
0.695706
1.29185
1.6105
1.99754
2.20998
2.27727
2.31324
2.31436
2.30881
2.30138
2.26824
2.19672
2.07856
1.94807
1.87404
1.86911
1.88003
1.86084
1.82964
1.69847
1.53894
1.42155
1.33046
1.27117
1.27059
1.32214
1.3883
1.4393
1.45378
1.41956
1.34892
1.26535
1.21121
1.1685
1.11895
1.06889
0.888648
-6.06872
-5.5516
-4.70681
-2.99462
-2.46393
-0.741175
0.0394461
0.594047
1.14579
1.4853
1.85788
2.07271
2.16462
2.21648
2.23224
2.23461
2.23052
2.19916
2.13558
2.03477
1.92174
1.85344
1.83946
1.84592
1.82056
1.77909
1.66744
1.54455
1.43577
1.33834
1.27941
1.26723
1.29676
1.35287
1.39934
1.41267
1.38094
1.31917
1.24131
1.18718
1.13599
1.07533
1.01009
0.834445
-5.7218
-5.2261
-4.37405
-2.97987
-2.31049
-0.856224
-0.0966772
0.490983
1.01149
1.36689
1.72451
1.94395
2.05583
2.12214
2.15028
2.16111
2.16082
2.13236
2.07675
1.99251
1.89386
1.83373
1.81225
1.80655
1.77994
1.73687
1.63785
1.51085
1.41217
1.334
1.28056
1.26972
1.29776
1.33751
1.36839
1.3749
1.34335
1.28881
1.21514
1.15992
1.10295
1.03335
0.953088
0.780417
-5.39702
-4.92633
-4.08983
-2.93284
-2.18033
-0.946745
-0.204363
0.39092
0.889268
1.25506
1.59788
1.82258
1.9505
2.02985
2.07008
2.08811
2.09267
2.06836
2.01975
1.94934
1.86302
1.80804
1.7823
1.771
1.74157
1.69606
1.60861
1.50515
1.41122
1.33265
1.28049
1.26541
1.27903
1.31032
1.33663
1.33919
1.3082
1.25848
1.1884
1.13178
1.06938
0.992143
0.905112
0.734881
-5.09409
-4.64607
-3.84441
-2.85861
-2.08183
-1.01473
-0.292632
0.297178
0.777049
1.14856
1.47807
1.70731
1.84877
1.9398
1.99127
2.01649
2.02574
2.00641
1.96454
1.90617
1.83133
1.78129
1.75362
1.73599
1.70464
1.65921
1.58023
1.4779
1.39559
1.32658
1.27723
1.25985
1.26995
1.28993
1.30685
1.30563
1.2741
1.22783
1.16091
1.10209
1.03606
0.95223
0.856583
0.688167
-4.80857
-4.38272
-3.62873
-2.76902
-2.00091
-1.0635
-0.367135
0.210253
0.674362
1.04521
1.36488
1.5978
1.75075
1.85237
1.91386
1.94633
1.96022
1.94641
1.91155
1.86176
1.79817
1.75209
1.7227
1.70146
1.6688
1.62373
1.55116
1.45993
1.383
1.31887
1.27157
1.25202
1.25481
1.26868
1.27805
1.27375
1.24154
1.19734
1.13307
1.07193
1.00301
0.913985
0.813996
0.645668
-4.53943
-4.13409
-3.43474
-2.67358
-1.92931
-1.09484
-0.430363
0.130517
0.580082
0.946024
1.25792
1.49372
1.65647
1.76766
1.83859
1.87751
1.89623
1.8882
1.86068
1.81729
1.76418
1.72164
1.69256
1.66807
1.63451
1.59051
1.52447
1.4405
1.3694
1.30914
1.26396
1.24254
1.24041
1.24789
1.25056
1.2431
1.21009
1.16709
1.10483
1.04183
0.970146
0.877012
0.772844
0.605124
-4.28958
-3.90108
-3.25897
-2.57509
-1.86834
-1.11414
-0.483305
0.0578981
0.493595
0.85193
1.15713
1.39489
1.56601
1.68576
1.76517
1.81062
1.83383
1.83162
1.81073
1.77327
1.72924
1.69018
1.66093
1.63491
1.60117
1.5579
1.49665
1.41989
1.35456
1.2981
1.25465
1.23161
1.22507
1.22694
1.22415
1.21362
1.17979
1.13738
1.07641
1.01184
0.937819
0.841689
0.734622
0.568577
-4.05848
-3.68626
-3.09728
-2.47618
-1.81382
-1.12498
-0.527026
-0.00821028
0.414372
0.763329
1.06184
1.30087
1.47935
1.60681
1.69377
1.74549
1.77324
1.77656
1.76154
1.73045
1.69371
1.65809
1.62964
1.60256
1.56898
1.52716
1.47081
1.39984
1.33872
1.28529
1.24354
1.21935
1.20916
1.20632
1.19867
1.18509
1.1505
1.10794
1.0481
0.982226
0.906068
0.807791
0.698421
0.535316
-3.84229
-3.49023
-2.95395
-2.38312
-1.76375
-1.12945
-0.563601
-0.068558
0.342136
0.680439
0.971752
1.21155
1.39664
1.53097
1.62461
1.68221
1.71447
1.72302
1.71321
1.68811
1.65784
1.62518
1.59791
1.5706
1.53752
1.49656
1.44425
1.37867
1.32261
1.27191
1.23141
1.20606
1.19272
1.18555
1.17389
1.15741
1.12222
1.07905
1.01997
0.952948
0.875053
0.775458
0.664273
0.504759
-3.63867
-3.30788
-2.82265
-2.29774
-1.72003
-1.12997
-0.594027
-0.122564
0.276378
0.604056
0.887637
1.12758
1.31762
1.4583
1.55789
1.62087
1.65745
1.67095
1.66642
1.64614
1.62176
1.59216
1.56624
1.53913
1.50694
1.46726
1.41907
1.35775
1.30516
1.25688
1.2178
1.19177
1.17577
1.16491
1.14982
1.13048
1.09478
1.0506
0.992155
0.924185
0.844861
0.744529
0.631984
0.476546
-3.44941
-3.14109
-2.69707
-2.21339
-1.6787
-1.12791
-0.620598
-0.170624
0.216887
0.534977
0.809165
1.04925
1.24248
1.38894
1.49374
1.56151
1.60222
1.62035
1.62047
1.60481
1.58557
1.55879
1.53451
1.50815
1.47697
1.43807
1.39345
1.33647
1.28803
1.24171
1.20338
1.17675
1.15843
1.14428
1.12624
1.1043
1.06805
1.02282
0.964695
0.895898
0.81557
0.715012
0.601484
0.450155
-3.27549
-2.99056
-2.58321
-2.13506
-1.63799
-1.12303
-0.642738
-0.213105
0.163055
0.472833
0.737014
0.976568
1.1721
1.32248
1.43214
1.50424
1.54873
1.57115
1.57541
1.56449
1.54918
1.52578
1.50296
1.47747
1.44751
1.40974
1.36892
1.31505
1.26927
1.22548
1.18797
1.16093
1.14071
1.12368
1.10314
1.07885
1.0418
0.995773
0.937644
0.86819
0.787224
0.686838
0.572604
0.425393
-3.11549
-2.85439
-2.48006
-2.06353
-1.60002
-1.11764
-0.661312
-0.250328
0.114763
0.417455
0.672402
0.909448
1.10699
1.26001
1.37286
1.44917
1.49707
1.52338
1.53118
1.52522
1.5126
1.49288
1.47155
1.44722
1.41831
1.38214
1.3438
1.2935
1.25118
1.20879
1.17183
1.14454
1.12268
1.10315
1.08041
1.05408
1.01602
0.969461
0.911071
0.841114
0.759808
0.659913
0.545292
0.402073
-2.97022
-2.73186
-2.38887
-1.99812
-1.56615
-1.11128
-0.677492
-0.282572
0.0706158
0.367892
0.615966
0.848328
1.04653
1.20171
1.31637
1.39635
1.44722
1.47707
1.48785
1.48671
1.47651
1.46013
1.44024
1.41739
1.38948
1.35558
1.31906
1.2716
1.23206
1.19105
1.15542
1.12767
1.10431
1.08272
1.05802
1.02992
0.990709
0.943837
0.885012
0.814803
0.733292
0.634042
0.51955
0.380006
-2.83873
-2.62249
-2.31007
-1.94038
-1.53592
-1.10489
-0.691347
-0.309941
0.0305115
0.32402
0.567975
0.793268
0.99101
1.14694
1.26308
1.34546
1.39916
1.43191
1.44597
1.44875
1.44087
1.42756
1.40911
1.38795
1.36115
1.32908
1.29402
1.24999
1.21345
1.1723
1.13892
1.11045
1.08559
1.06243
1.03598
1.00624
0.966015
0.918724
0.85951
0.789326
0.707604
0.609148
0.495296
0.359141
-2.71763
-2.52466
-2.24119
-1.89006
-1.50956
-1.09844
-0.703499
-0.334111
-0.00449376
0.284751
0.527309
0.744284
0.940565
1.09577
1.2128
1.29646
1.35292
1.38784
1.40551
1.41129
1.40595
1.39519
1.3784
1.35874
1.33325
1.30286
1.26907
1.22902
1.19333
1.15389
1.12151
1.09292
1.06655
1.04223
1.0143
0.982868
0.941945
0.89414
0.834607
0.764623
0.68277
0.585214
0.472445
0.339431
-2.60633
-2.43708
-2.18095
-1.84635
-1.48707
-1.09461
-0.713269
-0.355684
-0.0351036
0.250295
0.493127
0.701396
0.894927
1.04814
1.16525
1.24979
1.30823
1.34536
1.36607
1.37432
1.37176
1.36307
1.34816
1.3297
1.30575
1.27689
1.24486
1.20722
1.17254
1.13614
1.10328
1.07508
1.0474
1.02208
0.992991
0.959847
0.918507
0.87008
0.81031
0.740602
0.658836
0.562238
0.45083
0.320735
-2.5055
-2.36174
-2.12777
-1.81006
-1.46814
-1.09141
-0.722253
-0.374762
-0.0625324
0.219678
0.462347
0.664775
0.854033
1.00402
1.12032
1.20537
1.26513
1.30434
1.32758
1.33805
1.33801
1.33133
1.31814
1.30087
1.27872
1.25117
1.22122
1.1849
1.15217
1.11754
1.08525
1.0567
1.02848
1.00182
0.971912
0.937273
0.89556
0.846556
0.786647
0.717254
0.635767
0.54022
0.430365
0.303166
-2.41374
-2.2982
-2.08127
-1.77994
-1.45292
-1.08742
-0.729888
-0.391161
-0.084452
0.193272
0.434461
0.633519
0.816914
0.963051
1.07788
1.16297
1.22376
1.26463
1.29007
1.30254
1.30477
1.3
1.28841
1.27237
1.25213
1.22562
1.19737
1.16326
1.13134
1.0982
1.0676
1.03774
1.00985
0.981534
0.950985
0.915215
0.873073
0.823563
0.763642
0.694564
0.613508
0.519145
0.410915
0.286591
-2.33226
-2.24599
-2.04127
-1.75521
-1.44118
-1.08578
-0.736037
-0.406755
-0.1035
0.169898
0.408778
0.607111
0.783377
0.925076
1.03785
1.12251
1.18399
1.22625
1.25349
1.2678
1.27212
1.26896
1.25914
1.24435
1.22559
1.20039
1.17321
1.142
1.11049
1.07859
1.04993
1.01831
0.991192
0.961403
0.930198
0.893626
0.851035
0.801085
0.741287
0.672531
0.592047
0.498953
0.392446
0.271006
-2.26182
-2.20565
-2.00741
-1.73612
-1.43188
-1.08437
-0.742692
-0.420267
-0.120876
0.149425
0.385612
0.581747
0.75218
0.889594
1.00001
1.08392
1.14572
1.18913
1.21786
1.23383
1.24004
1.23833
1.23025
1.21676
1.19903
1.17562
1.14947
1.12065
1.09009
1.05856
1.03152
0.999059
0.97238
0.94148
0.909644
0.872412
0.829454
0.77912
0.719543
0.651126
0.571364
0.479583
0.374884
0.256271
-2.20344
-2.17639
-1.97756
-1.72255
-1.42452
-1.08224
-0.747999
-0.429681
-0.135863
0.130685
0.365377
0.55918
0.723157
0.856454
0.964202
1.04704
1.10908
1.15324
1.18317
1.20064
1.20852
1.20819
1.20173
1.18947
1.17267
1.15123
1.12599
1.09924
1.06924
1.03939
1.01197
0.980226
0.953397
0.921677
0.88939
0.851527
0.808293
0.757686
0.698398
0.630345
0.551441
0.460997
0.358201
0.242349
-2.15075
-2.15682
-1.9508
-1.71414
-1.41821
-1.08083
-0.750084
-0.437707
-0.148049
0.113998
0.345326
0.537222
0.695983
0.825276
0.930215
1.01181
1.07362
1.1185
1.14941
1.16821
1.17757
1.17861
1.17355
1.16247
1.14667
1.12703
1.10292
1.07765
1.04781
1.02066
0.991802
0.961603
0.934226
0.902044
0.869431
0.830956
0.78755
0.736762
0.677825
0.610187
0.532222
0.443155
0.342319
0.229176
-2.10827
-2.13997
-1.92864
-1.71143
-1.41
-1.07821
-0.75145
-0.444281
-0.157793
0.0993882
0.327311
0.51724
0.670277
0.795853
0.897917
0.978088
1.03957
1.08484
1.11657
1.13656
1.14717
1.14954
1.14567
1.13584
1.12112
1.10293
1.08009
1.05561
1.0275
1.0009
0.972079
0.943128
0.914808
0.88265
0.849649
0.810723
0.767177
0.716381
0.657776
0.590656
0.513671
0.42604
0.327199
0.216756
-2.06965
-2.11503
-1.91224
-1.71122
-1.40503
-1.07258
-0.753326
-0.44905
-0.165524
0.0868177
0.31031
0.499321
0.646223
0.768006
0.867141
0.945803
1.00678
1.05229
1.08464
1.10563
1.11736
1.12094
1.11817
1.10958
1.09602
1.07881
1.05737
1.03353
1.00743
0.980749
0.952811
0.92478
0.8952
0.863532
0.830016
0.790814
0.747199
0.696474
0.638276
0.57172
0.495783
0.409617
0.312791
0.20503
-2.03455
-2.08181
-1.90036
-1.71247
-1.40448
-1.06941
-0.75351
-0.451725
-0.171699
0.0760051
0.294687
0.480062
0.623417
0.741365
0.837817
0.914912
0.975081
1.02069
1.05357
1.07542
1.08813
1.09281
1.09107
1.08367
1.07121
1.05494
1.03474
1.01173
0.986978
0.96045
0.933605
0.906497
0.875593
0.84461
0.810537
0.771251
0.727614
0.677027
0.619295
0.553396
0.478535
0.393882
0.299097
0.193995
-2.005
-2.03513
-1.89064
-1.71125
-1.40153
-1.06843
-0.751956
-0.452848
-0.176493
0.0668667
0.280521
0.461417
0.602906
0.715873
0.809596
0.884919
0.944625
0.990103
1.02334
1.04589
1.05948
1.06515
1.06439
1.05806
1.04664
1.0314
1.01218
0.990076
0.966516
0.940968
0.913472
0.888171
0.856397
0.825731
0.791272
0.752043
0.70839
0.658036
0.600798
0.535639
0.461891
0.378785
0.286052
0.183571
-1.96409
-2.00549
-1.88192
-1.70862
-1.39781
-1.06579
-0.749071
-0.452299
-0.179908
0.059239
0.267621
0.443856
0.583134
0.692442
0.782601
0.856469
0.915052
0.960417
0.993913
1.01705
1.03139
1.03796
1.03815
1.03276
1.02234
1.00803
0.989869
0.968628
0.946108
0.921623
0.893933
0.86881
0.837881
0.806803
0.772257
0.73313
0.689547
0.639449
0.582765
0.518396
0.445789
0.364248
0.273567
0.173683
-1.91893
-1.98398
-1.87031
-1.70089
-1.39145
-1.06068
-0.744847
-0.450273
-0.182072
0.0529098
0.25601
0.427414
0.563006
0.669944
0.757253
0.829209
0.886638
0.931613
0.965246
0.988854
1.00386
1.01123
1.01228
1.00777
0.998316
0.984911
0.967694
0.947355
0.925733
0.901551
0.875602
0.848834
0.819693
0.787996
0.753434
0.714537
0.670998
0.621288
0.565144
0.501645
0.430187
0.350225
0.261578
0.164239
-1.88114
-1.94598
-1.8561
-1.68997
-1.38286
-1.052
-0.738734
-0.446466
-0.182871
0.0476097
0.245558
0.412069
0.543629
0.647362
0.732656
0.80249
0.859114
0.903669
0.937334
0.961303
0.976869
0.984967
0.986809
0.983095
0.974572
0.962051
0.94568
0.926276
0.905349
0.881352
0.857177
0.829127
0.801497
0.769412
0.734811
0.696186
0.652804
0.603524
0.547987
0.485383
0.415128
0.336754
0.250142
0.155298
-1.85189
-1.8937
-1.84093
-1.6741
-1.37124
-1.04108
-0.730514
-0.441505
-0.182641
0.0434326
0.236229
0.397567
0.525182
0.625481
0.70855
0.776775
0.83243
0.876505
0.910127
0.93437
0.950415
0.959154
0.961714
0.958767
0.951094
0.939394
0.923842
0.905367
0.884896
0.861549
0.838631
0.809472
0.783142
0.751108
0.71643
0.678188
0.634976
0.586265
0.531361
0.469752
0.400755
0.324023
0.239468
0.147122
-1.81054
-1.85985
-1.81792
-1.65503
-1.35601
-1.02597
-0.719475
-0.435042
-0.181278
0.0402442
0.227632
0.383948
0.507502
0.604602
0.68532
0.751977
0.80659
0.850127
0.88362
0.908041
0.924479
0.933781
0.936994
0.934767
0.927872
0.916955
0.902186
0.884597
0.864696
0.842155
0.819514
0.790755
0.764514
0.733004
0.698377
0.660488
0.617527
0.569471
0.515288
0.454715
0.387053
0.312014
0.229551
0.139705
-1.73769
-1.76443
-1.72184
-1.57787
-1.29484
-0.973242
-0.682525
-0.412257
-0.175279
0.0334718
0.204749
0.345483
0.456187
0.545012
0.619121
0.681127
0.732437
0.774153
0.807038
0.831763
0.84913
0.859889
0.864837
0.864591
0.859805
0.851087
0.838603
0.823293
0.805212
0.784793
0.762041
0.73682
0.709396
0.679499
0.645731