/*--------------------------------*- C++ -*----------------------------------*\
| =========                 |                                                 |
| \\      /  F ield         | OpenFOAM: The Open Source CFD Toolbox           |
|  \\    /   O peration     | Version:  v1912                                 |
|   \\  /    A nd           | Website:  www.openfoam.com                      |
|    \\/     M anipulation  |                                                 |
\*---------------------------------------------------------------------------*/
FoamFile
{
    version     2.0;
    format      ascii;
    class       volScalarField;
    location    "90";
    object      p;
}
// * * * * * * * * * * * * * * * * * * * * * * * * * * * * * * * * * * * * * //

dimensions      [1 -1 -2 0 0 0 0];


internalField   nonuniform List<scalar> 
14268
(
27075.5
27142.6
27213.5
27290.4
27376.2
27471.9
27579
27700
27832.5
27976
28126.9
28284.8
28449.6
28625.7
28813.2
29002.9
29202.8
29411
29636.1
29885.6
30159.5
30462.1
30797.1
31163.9
31562.5
31991
32445.4
32920
33405.2
33891
34369.6
34832.2
35267.9
35675.5
36050.7
36379.9
36657.3
36881.2
37060.3
37228.9
37409
37604.6
37880.1
38107.8
26968.4
27035.4
27106.3
27183
27268.7
27364.3
27471.2
27592
27724.4
27867.7
28018.5
28176.4
28341.3
28517.4
28704.9
28894.6
29094.7
29302.9
29528.1
29777.6
30051.5
30354
30688.9
31055.7
31454.4
31882.9
32337.4
32812.1
33297.3
33783.1
34261.7
34724.3
35159.8
35567.3
35942.2
36271.1
36548.1
36771
36947.8
37113.4
37292.3
37487.7
37764.1
37993.1
26867.4
26934.4
27005.2
27082.1
27167.8
27263.4
27370.4
27491.2
27623.7
27767.1
27917.9
28075.7
28240.5
28416.5
28604.1
28793.8
28993.8
29202.1
29427.2
29676.7
29950.5
30253.1
30588
30954.8
31353.5
31782
32236.5
32711.2
33196.5
33682.3
34161
34623.5
35059.2
35466.7
35841.8
36170.8
36447.8
36670.8
36847.8
37014.2
37193.7
37389.4
37665.7
37894.1
26761.8
26828.7
26899.5
26976.3
27061.9
27157.3
27264.2
27384.9
27517.2
27660.5
27811.2
27969.1
28134
28310.2
28497.8
28687.5
28887.6
29095.9
29321.2
29570.7
29844.5
30147
30481.8
30848.6
31247.3
31675.8
32130.3
32605
33090.3
33576.1
34054.8
34517.3
34952.8
35360.2
35735
36063.7
36340.4
36562.6
36738
36902.5
37081.4
37277.2
37554.2
37782.7
26661.3
26728.3
26799.1
26875.9
26961.6
27057.1
27164.1
27284.9
27417.3
27560.7
27711.5
27869.3
28034
28210
28397.7
28587.4
28787.5
28995.8
29221
29470.4
29744.2
30046.6
30381.5
30748.3
31147
31575.6
32030.1
32504.9
32990.3
33476.1
33954.8
34417.4
34853
35260.5
35635.6
35964.4
36241.2
36463.7
36639.7
36805.1
36984.6
37180.5
37457.3
37686
26556.3
26623.2
26694
26770.7
26856.3
26951.7
27058.5
27179.1
27311.3
27454.5
27605.2
27763.1
27928.1
28104.3
28292
28481.8
28681.8
28890.2
29115.5
29365
29638.8
29941.2
30276.1
30642.8
31041.5
31470
31924.6
32399.3
32884.6
33370.4
33849.1
34311.6
34747.1
35154.4
35529.1
35857.7
36134.1
36355.9
36530.4
36694.4
36873.5
37069.8
37347.2
37575.2
26455.9
26522.8
26593.6
26670.4
26756
26851.5
26958.5
27079.3
27211.7
27355.1
27506
27663.7
27828.2
28004.3
28192
28381.8
28581.9
28790.2
29015.4
29264.9
29538.6
29840.9
30175.8
30542.6
30941.3
31369.9
31824.4
32299.2
32784.6
33270.4
33749.2
34211.8
34647.5
35055
35430
35758.7
36035.5
36257.5
36432.7
36597.5
36776.9
36973.3
37250.6
37478.8
26351.3
26418.2
26488.9
26565.6
26651.2
26746.5
26853.3
26973.8
27106
27249.1
27399.8
27557.7
27722.7
27899
28086.7
28276.5
28476.6
28685
28910.3
29159.9
29433.7
29736.1
30070.9
30437.6
30836.3
31264.9
31719.5
32194.3
32679.7
33165.4
33644.1
34106.6
34542.1
34949.3
35323.9
35652.4
35928.5
36149.8
36323.6
36487.3
36667.1
36863.6
37141.3
37368.5
26250.8
26317.8
26388.5
26465.3
26550.9
26646.4
26753.3
26874.1
27006.5
27149.9
27300.8
27458.4
27622.9
27798.9
27986.8
28176.7
28376.8
28585.1
28810.3
29059.7
29333.3
29635.7
29970.5
30337.3
30736
31164.6
31619.2
32094
32579.4
33065.3
33544.1
34006.7
34442.4
34849.9
35224.8
35553.5
35830
36051.5
36226
36390.5
36570.3
36766.9
37044.6
37272.5
26146.5
26213.4
26284.1
26360.8
26446.3
26541.6
26648.3
26768.9
26900.9
27044
27194.6
27352.6
27517.7
27694
27881.7
28071.6
28271.7
28480.2
28705.4
28955
29228.8
29531.2
29866
30232.7
30631.4
31060
31514.6
31989.4
32474.7
32960.6
33439.3
33901.8
34337.3
34744.4
35119
35447.3
35723.4
35944.5
36117.7
36281
36461
36658
36936
37162.4
26046
26112.9
26183.7
26260.4
26346
26441.5
26548.4
26669.1
26801.6
26945
27095.8
27253.5
27417.9
27593.9
27781.8
27971.7
28171.8
28380.2
28605.4
28854.8
29128.4
29430.7
29765.5
30132.3
30531
30959.6
31414.2
31889
32374.4
32860.4
33339.2
33801.9
34237.5
34645
35019.9
35348.5
35624.8
35845.9
36019.7
36184
36364.2
36561
36839.1
37066.7
25941.9
26008.8
26079.5
26156.1
26241.6
26336.8
26443.5
26564
26696
26839.1
26989.7
27147.8
27312.9
27489.3
27677
27866.9
28067
28275.5
28500.8
28750.3
29024.1
29326.4
29661.2
30027.9
30426.6
30855.2
31309.8
31784.6
32270
32755.9
33234.7
33697.2
34132.6
34539.8
34914.3
35242.5
35518.4
35739.3
35912
36075
36255.4
36452.7
36731.1
36956.8
25841.4
25908.3
25979
26055.7
26141.3
26236.8
26343.7
26464.4
26596.8
26740.2
26891
27048.7
27213
27389.1
27577
27767
27967.1
28175.5
28400.6
28650
28923.6
29225.9
29560.6
29927.4
30326.1
30754.8
31209.4
31684.2
32169.7
32655.6
33134.5
33597.2
34032.8
34440.3
34815.2
35143.7
35419.9
35640.6
35813.8
35977.9
36158.4
36355.5
36634
36861.3
25737.4
25804.3
25874.9
25951.5
26037
26132.2
26238.9
26359.4
26491.3
26634.4
26785
26943.1
27108.2
27284.6
27472.4
27662.4
27862.5
28071
28296.2
28545.8
28819.5
29121.8
29456.6
29823.3
30222
30650.6
31105.2
31580
32065.5
32551.4
33030.2
33492.7
33928.2
34335.2
34709.7
35037.8
35313.6
35534.2
35706.5
35869.2
36050
36247.6
36526.4
36751.6
25586.6
25653.5
25724.2
25801
25886.6
25982.1
26089.1
26209.9
26342.5
26486
26637.1
26794.5
26958.3
27134.3
27322.3
27512.3
27712.5
27920.9
28146
28395.2
28668.6
28970.8
29305.6
29672.3
30071.1
30499.8
30954.4
31429.3
31914.8
32400.9
32879.9
33342.6
33778.3
34185.9
34561.1
34889.6
35165.8
35386
35558.8
35723.3
35904.2
36101.5
36380.3
36608.5
25378.9
25445.7
25516.4
25592.8
25678.2
25773.3
25879.8
26000.1
26131.8
26274.6
26425.1
26583.5
26749.2
26925.8
27113.5
27303.5
27503.7
27712.3
27937.5
28187.1
28460.9
28763.2
29097.9
29464.5
29863.2
30291.9
30746.5
31221.3
31706.8
32192.7
32671.5
33134.1
33569.4
33976.2
34350.3
34678
34953.6
35173.8
35344.9
35506.6
35688.3
35886.6
36166.4
36389.7
25178
25244.8
25315.5
25392.2
25477.8
25573.2
25680.2
25800.9
25933.5
26077.1
26228.1
26385.5
26549.2
26725.2
26913.3
27103.4
27303.6
27512
27737
27986.2
28259.6
28561.7
28896.4
29263.1
29661.9
30090.6
30545.2
31020.2
31505.8
31991.9
32471
32933.8
33369.5
33777.1
34152.2
34480.7
34756.5
34976.1
35147.8
35312.1
35493.7
35691.5
35971
36199.6
24970.5
25037.3
25107.9
25184.3
25269.6
25364.7
25471.1
25591.4
25723
25865.8
26016.3
26174.7
26340.6
26517.2
26704.9
26895
27095.3
27303.8
27529
27778.5
28052.2
28354.4
28689.1
29055.7
29454.4
29883.1
30337.7
30812.6
31298.1
31784.1
32263
32725.6
33161
33567.8
33941.8
34269.4
34544.8
34764.5
34934.9
35096
35278.5
35477.5
35758.2
35981
24769.6
24836.3
24907
24983.7
25069.2
25164.6
25271.5
25392.2
25524.8
25668.4
25819.4
25976.8
26140.4
26316.5
26504.5
26694.7
26895
27103.3
27328.4
27577.5
27850.8
28152.9
28487.4
28854.1
29252.8
29681.6
30136.3
30611.3
31097
31583.2
32062.5
32525.3
32961
33368.6
33743.7
34072
34347.6
34566.5
34737.2
34901.1
35083.8
35282.1
35562
35790.9
24562.2
24629
24699.6
24775.9
24861.2
24956.2
25062.6
25182.8
25314.5
25457.3
25607.7
25766.2
25932.1
26108.8
26296.5
26486.7
26687
26895.5
27120.7
27370.1
27643.6
27945.8
28280.4
28647
29045.7
29474.4
29929.1
30404
30889.5
31375.7
31854.7
32317.4
32752.8
33159.6
33533.6
33861
34136.3
34355.6
34525.2
34685.8
34868.9
35068.6
35350.5
35573
24361.4
24428
24498.6
24575.3
24660.7
24756.1
24862.9
24983.6
25116.2
25259.8
25410.8
25568.3
25731.8
25907.9
26096
26286.3
26486.7
26694.9
26919.9
27169
27442.2
27744.2
28078.7
28445.3
28844
29272.7
29727.5
30202.6
30688.3
31174.7
31654
32116.9
32552.6
32960.2
33335.3
33663.5
33939
34157.2
34326.9
34490.3
34674
34873.2
35153.8
35382.8
22846.8
22913.7
22983.5
23059.9
23143.2
23235.7
23339.6
23455.9
23582.2
23717.7
23864.9
24030
24209.7
24390.2
24576.7
24766.6
24967.4
25177
25402.8
25653.5
25928.7
26231.5
26565.7
26932.2
27331
27759.5
28213.5
28687.9
29173.2
29659.1
30137.2
30599.4
31032.7
31434.5
31801.1
32122.6
32396.1
32619.5
32783.2
32923.3
33109.8
33314.4
33611.5
33799.5
20107.4
20174.8
20246.4
20322.2
20406.1
20503.7
20611.9
20735.9
20870.7
21018.9
21173.2
21327.3
21484.9
21656.5
21843.2
22034.6
22235.5
22444.2
22666.7
22913
23184.2
23484.2
23817.5
24183.3
24582.2
25012.2
25469.2
25946.4
26434.3
26922.6
27404
27868.9
28309
28723.1
29100.8
29433
29710
29928.9
30095.8
30255.5
30445
30667.1
30916.1
31180.3
17306.9
17370.7
17440.2
17518.8
17604.1
17694.4
17798.6
17914.1
18039.7
18174.8
18323.2
18487.4
18663.4
18847.3
19029.3
19217.2
19419.3
19627.5
19851.6
20102.5
20377
20678
21010.2
21375
21772.6
22200.5
22654.9
23131.1
23619.3
24109.4
24593.7
25062.3
25498.4
25900.5
26270.4
26591
26868
27082.5
27243.7
27352.5
27504
27690.2
27991.8
28241.8
14551.7
14619.9
14689.6
14764.9
14849.7
14942.4
15054.8
15179.3
15312.9
15461.6
15616.8
15770.2
15932
16105.3
16288.9
16481.7
16682
16892.6
17111.9
17354.4
17622
17919.4
18248.8
18612.1
19011.1
19442.7
19901.8
20381.5
20873.4
21367.5
21854.7
22325.7
22771.6
23186.9
23563.7
23890
24165.7
24378.9
24540
24718.6
24834.3
24978.3
25187.2
25458.9
11786.9
11844.9
11912.2
11985.3
12066.8
12162.4
12266
12382
12509.5
12645.5
12792.6
12956.1
13131.7
13312.6
13494.9
13686.2
13885.1
14096.2
14322.5
14567
14834.6
15129.5
15454.9
15815.9
16213
16642.5
17099.6
17579.8
18073.6
18570.4
19062.8
19539
19980.5
20387.7
20760.3
21083.4
21357.7
21577.4
21710.1
21858.5
22014.9
22133.7
22341.5
22548.6
9012.47
9072.28
9138.67
9212.87
9296.36
9397.2
9507.35
9625.14
9762.94
9912.89
10072.2
10229.6
10393.5
10566.7
10746.7
10936.3
11140.1
11352.6
11576.3
11819.5
12081
12368.8
12688.6
13048.2
13448.3
13884.2
14348.2
14833.1
15331
15831.9
16327.6
16808.1
17260.2
17678.5
18054.7
18381.9
18650.1
18854.4
19037.3
19219.1
19367
19525.3
19696.9
19902.5
6271.87
6335.3
6401.68
6473.1
6551.9
6641.24
6749.28
6867.68
6995.56
7131.86
7281.51
7441.63
7612.79
7790.15
7973.81
8157.77
8354.96
8570.27
8791.98
9029.61
9287.04
9573.08
9891.66
10248.2
10644.8
11079.4
11543.6
12031.1
12534
13040.3
13544.4
14033.7
14487.2
14901.2
15275
15597.3
15879.5
16075.9
16224.9
16385.2
16562.9
16702.8
16928.9
17124.1
3497
3555.16
3619.1
3690.14
3770.24
3861.76
3968.98
4096.02
4233.07
4381.07
4543.09
4704.54
4873.07
5048.21
5228.24
5415.41
5612.38
5818.13
6038.61
6273.8
6526.06
6808.01
7127.79
7486.91
7887.61
8328.28
8799.25
9292.33
9800.66
10309.1
10815.4
11310.1
11773.4
12196.6
12576.7
12901.3
13172
13380.7
13560.3
13730.9
13889.4
14056
14251
14464.5
1185.8
1221.43
1263.5
1312.67
1367.72
1433.21
1511.81
1603.66
1707.22
1821.17
1945.12
2078.41
2221.86
2373.71
2532.83
2701.25
2873.78
3058.27
3265.24
3489.83
3736.59
4008.3
4322.79
4679.02
5077.1
5515.3
5986.09
6485.3
7006.83
7531.4
8051.02
8554.54
9021.75
9442.76
9818.91
10146.5
10430.9
10629.5
10781.7
10937
11103.6
11254.5
11475.9
11687.8
105.713
114.044
125.448
140.078
157.334
177.868
203.509
234.94
273.103
317.962
368.123
423.927
486.374
555.121
631.045
714.92
803.707
904.038
1022.52
1160.4
1320.88
1506.87
1741.47
2034.2
2388.73
2801.87
3260.85
3754.53
4275.33
4800.03
5324.2
5833.79
6307.38
6738.03
7124.86
7458.19
7738.26
7956.45
8122.95
8270.56
8414.57
8567.81
8774.51
9016.42
-15.4446
-15.1551
-14.7434
-14.2298
-13.6193
-12.8938
-12.1203
-11.3127
-10.4097
-9.30488
-7.83673
-5.78268
-2.89624
1.23218
7.74549
17.6367
29.8576
44.809
65.2352
93.6095
131.943
182.17
255.619
366.457
531.178
756.858
1032
1350.79
1719.05
2147.96
2625.69
3115.81
3580.02
4000.65
4383.66
4713.6
5007.32
5233.36
5380.97
5517.41
5646.9
5792.11
5995.58
6260.07
-20.3934
-20.2558
-20.0518
-19.8188
-19.5695
-19.3167
-19.0481
-18.8313
-18.7542
-18.7273
-18.6874
-18.6058
-18.5154
-18.4823
-18.4799
-18.4721
-18.4174
-18.3392
-18.2792
-18.2362
-18.1645
-17.7695
-16.0039
-12.791
1.3339
37.3805
92.865
167.83
271.226
447.435
697.63
993.952
1293.7
1577.44
1860.65
2127.66
2369.17
2591.93
2754.8
2888.67
3008.98
3130.82
3299.09
3543.61
-24.1917
-23.9737
-23.703
-23.435
-23.1693
-22.8997
-22.6972
-22.573
-22.482
-22.423
-22.3981
-22.3377
-22.2362
-22.1711
-22.1614
-22.1896
-22.2369
-22.2571
-22.2792
-22.3346
-22.3833
-22.3079
-22.0347
-22.3437
-22.93
-22.8041
-22.3319
-21.7276
-19.8004
-10.017
24.6067
85.3305
158.269
232.377
328.057
441.621
559.394
684.021
799.851
922.632
1025.16
1068.93
1129.64
1238.43
-27.4206
-27.1928
-26.9323
-26.6617
-26.3931
-26.1453
-25.9139
-25.7266
-25.6319
-25.583
-25.5142
-25.4597
-25.4609
-25.4883
-25.527
-25.5678
-25.6046
-25.6422
-25.7001
-25.78
-25.8361
-25.7138
-25.1723
-25.0619
-26.1568
-26.2961
-25.9116
-25.5566
-25.2815
-26.9268
-28.2585
-28.365
-28.1015
-26.9291
-24.8921
-18.1667
-2.6041
19.4524
51.662
106.12
146.14
141.23
130.191
130.111
-31.0995
-30.8597
-30.5641
-30.2657
-29.9966
-29.7307
-29.5259
-29.3775
-29.2522
-29.1669
-29.1085
-29.0556
-29.0279
-28.995
-28.9803
-28.9956
-29.0278
-29.0623
-29.1136
-29.1988
-29.2735
-29.2378
-28.9988
-28.9975
-29.558
-29.5394
-29.1978
-28.8612
-28.3106
-29.7788
-31.3215
-31.6035
-31.5002
-31.2198
-31.4476
-31.6771
-31.1213
-30.6326
-30.2482
-30.0622
-29.851
-29.4411
-29.2237
-29.4873
-34.2512
-34.0003
-33.7303
-33.4413
-33.1669
-32.9211
-32.6882
-32.4799
-32.349
-32.2848
-32.2526
-32.2679
-32.295
-32.3095
-32.3264
-32.3554
-32.3979
-32.4552
-32.5222
-32.6376
-32.7291
-32.6938
-32.2909
-32.3036
-32.7209
-32.8191
-32.5997
-32.3928
-32.2955
-33.4854
-34.6464
-34.9668
-34.9219
-34.4831
-34.3769
-34.7824
-34.4809
-33.9873
-33.5451
-33.3077
-33.2391
-32.9939
-32.6799
-32.3108
-37.861
-37.6321
-37.316
-36.9917
-36.7317
-36.471
-36.2165
-36.0362
-35.895
-35.8518
-35.8491
-35.8528
-35.8416
-35.8128
-35.7843
-35.7812
-35.7982
-35.8382
-35.9013
-36.0374
-36.1414
-36.1304
-35.91
-35.948
-36.1844
-36.2064
-36.0021
-35.8357
-35.7717
-36.6733
-37.9043
-38.3755
-38.4254
-38.1799
-38.0862
-38.0777
-37.6728
-37.1733
-36.8499
-36.7481
-36.8254
-36.6947
-36.346
-36.1492
-40.9993
-40.7348
-40.477
-40.1723
-39.8859
-39.6095
-39.3314
-39.1276
-39.0941
-39.094
-39.1021
-39.1098
-39.1027
-39.0883
-39.0893
-39.108
-39.151
-39.2084
-39.2814
-39.4435
-39.5647
-39.5485
-39.383
-39.2689
-39.4433
-39.4531
-39.3519
-39.3267
-39.4289
-40.2634
-41.3312
-41.8232
-41.8919
-41.6791
-41.4421
-41.2348
-40.7873
-40.3787
-40.0858
-40.0071
-39.9628
-39.8287
-39.4506
-39.0545
-44.5383
-44.3618
-44.0247
-43.7095
-43.4164
-43.0898
-42.8234
-42.7304
-42.6467
-42.6323
-42.6138
-42.5752
-42.5186
-42.4884
-42.4838
-42.4982
-42.5303
-42.5742
-42.651
-42.8428
-42.9702
-42.9621
-42.857
-42.757
-42.89
-42.8635
-42.8547
-42.8708
-42.946
-43.5297
-44.4533
-45.0419
-45.2178
-45.0728
-44.8168
-44.5185
-44.0319
-43.6415
-43.3919
-43.3758
-43.4559
-43.335
-42.9498
-42.6267
-47.6997
-47.461
-47.207
-46.8999
-46.5728
-46.2483
-46.033
-45.8972
-45.9419
-45.917
-45.8758
-45.8188
-45.7855
-45.7808
-45.7925
-45.8249
-45.8765
-45.9238
-46.0079
-46.2282
-46.3636
-46.3645
-46.2993
-46.1643
-46.1912
-46.205
-46.2816
-46.3332
-46.3616
-46.8131
-47.6406
-48.3018
-48.5102
-48.4777
-48.191
-47.7848
-47.2588
-46.8452
-46.6267
-46.5953
-46.6079
-46.5326
-46.2155
-45.8617
-51.1683
-51.0335
-50.7086
-50.3941
-50.0753
-49.7703
-49.5612
-49.5103
-49.4783
-49.4289
-49.3425
-49.2468
-49.2089
-49.1987
-49.199
-49.2125
-49.2424
-49.2764
-49.3784
-49.6132
-49.761
-49.7616
-49.7387
-49.6185
-49.6193
-49.7258
-49.7768
-49.7868
-49.6997
-50.0232
-50.8543
-51.6457
-51.8784
-51.8481
-51.5905
-51.0745
-50.5409
-50.1281
-49.9166
-49.9541
-50.026
-49.8943
-49.5825
-49.2713
-54.3508
-54.1767
-53.9282
-53.6212
-53.2871
-53.0025
-52.8534
-52.7948
-52.7946
-52.7211
-52.6145
-52.5508
-52.5275
-52.5216
-52.5224
-52.5385
-52.575
-52.6109
-52.7083
-52.9741
-53.1357
-53.1271
-53.1689
-53.0401
-53.0088
-53.1263
-53.1237
-53.0633
-52.9866
-53.2663
-54.0976
-54.9331
-55.2856
-55.2367
-54.972
-54.4144
-53.8509
-53.3915
-53.1637
-53.1756
-53.2109
-53.1539
-52.8741
-52.5773
-57.8271
-57.6699
-57.3684
-57.0587
-56.7551
-56.5054
-56.336
-56.3246
-56.2362
-56.1212
-56.0005
-55.9518
-55.9268
-55.9093
-55.9021
-55.9079
-55.9293
-55.9605
-56.0714
-56.3236
-56.5447
-56.5007
-56.5998
-56.4883
-56.5086
-56.5605
-56.4802
-56.3753
-56.3106
-56.559
-57.3524
-58.1952
-58.6619
-58.6443
-58.3001
-57.7563
-57.1731
-56.6793
-56.4877
-56.5243
-56.5535
-56.4473
-56.1925
-55.9126
-60.9611
-60.8761
-60.615
-60.2795
-59.9755
-59.7578
-59.6212
-59.5813
-59.4878
-59.3538
-59.2738
-59.2518
-59.2353
-59.2236
-59.2158
-59.2225
-59.2456
-59.2709
-59.3832
-59.662
-59.8706
-59.9044
-59.9612
-59.9188
-59.9184
-59.8365
-59.7295
-59.6379
-59.5734
-59.7927
-60.5775
-61.4291
-61.9756
-61.9802
-61.6225
-61.0859
-60.4987
-59.9905
-59.8116
-59.8049
-59.8101
-59.7242
-59.483
-59.2187
-64.4644
-64.2971
-64.0019
-63.6706
-63.3944
-63.1632
-63.0672
-62.9885
-62.8727
-62.7433
-62.672
-62.6347
-62.6082
-62.5893
-62.5786
-62.576
-62.5915
-62.6105
-62.7162
-62.9764
-63.2242
-63.3694
-63.3592
-63.3494
-63.2627
-63.1204
-63.0157
-62.9808
-62.9233
-63.1595
-63.872
-64.639
-65.2535
-65.2967
-64.9299
-64.4118
-63.8244
-63.3293
-63.1573
-63.1232
-63.1069
-63.0085
-62.7857
-62.5356
-67.6828
-67.5928
-67.3027
-66.9414
-66.6733
-66.4789
-66.3698
-66.2427
-66.1269
-66.0265
-65.966
-65.9337
-65.911
-65.8935
-65.8831
-65.8858
-65.895
-65.9163
-66.0134
-66.2457
-66.5849
-66.7185
-66.7298
-66.6463
-66.494
-66.3807
-66.3106
-66.3073
-66.2408
-66.4813
-67.1433
-67.8393
-68.4255
-68.5492
-68.209
-67.7167
-67.1421
-66.6757
-66.4879
-66.43
-66.3917
-66.287
-66.0743
-65.8404
-71.1417
-70.9743
-70.7005
-70.3629
-70.0701
-69.8561
-69.7258
-69.6046
-69.4728
-69.3938
-69.3429
-69.3023
-69.2703
-69.248
-69.2326
-69.2283
-69.234
-69.2508
-69.3279
-69.5898
-69.8661
-70.0981
-70.108
-69.971
-69.8275
-69.729
-69.6959
-69.6777
-69.6188
-69.8646
-70.4331
-71.0916
-71.5864
-71.7404
-71.4597
-70.993
-70.4507
-70.0256
-69.8131
-69.7385
-69.6819
-69.5722
-69.373
-69.1563
-74.3303
-74.3071
-74.0342
-73.6921
-73.412
-73.1691
-72.9689
-72.8393
-72.7409
-72.69
-72.6358
-72.5975
-72.5674
-72.5427
-72.5292
-72.5263
-72.5278
-72.5429
-72.6324
-72.8833
-73.1575
-73.4123
-73.4457
-73.2995
-73.1767
-73.0912
-73.0414
-73.0014
-72.9715
-73.1964
-73.7143
-74.2964
-74.7658
-74.902
-74.6791
-74.2504
-73.7482
-73.3593
-73.1341
-73.0446
-72.9717
-72.8557
-72.6696
-72.4686
-77.8217
-77.6712
-77.4323
-77.0965
-76.7883
-76.5153
-76.3074
-76.205
-76.1244
-76.0692
-76.001
-75.9573
-75.9169
-75.8883
-75.869
-75.8627
-75.8639
-75.8757
-75.9537
-76.1853
-76.4733
-76.685
-76.7727
-76.6468
-76.5449
-76.453
-76.3931
-76.3505
-76.3513
-76.5594
-77.0112
-77.5413
-77.9447
-78.0725
-77.8836
-77.4964
-77.0375
-76.6811
-76.4536
-76.3531
-76.2668
-76.1491
-75.976
-75.7935
-81.0665
-81.0132
-80.7905
-80.4493
-80.1442
-79.8655
-79.6917
-79.5863
-79.4739
-79.3801
-79.3014
-79.2509
-79.2085
-79.1767
-79.1596
-79.1558
-79.1576
-79.1751
-79.2683
-79.4908
-79.7562
-79.9694
-80.0559
-79.969
-79.871
-79.783
-79.7222
-79.6895
-79.7003
-79.8937
-80.2972
-80.7558
-81.1251
-81.2486
-81.0829
-80.7359
-80.3203
-79.9942
-79.7715
-79.662
-79.5657
-79.4473
-79.2865
-79.124
-84.5639
-84.3652
-84.185
-83.8428
-83.52
-83.2502
-83.1329
-83.0272
-82.8834
-82.7443
-82.6562
-82.5963
-82.5493
-82.5128
-82.4914
-82.4873
-82.4909
-82.5107
-82.5951
-82.803
-83.0578
-83.2605
-83.3385
-83.2839
-83.1958
-83.1127
-83.0564
-83.0337
-83.059
-83.2412
-83.6007
-84.0095
-84.3179
-84.4298
-84.2834
-83.9734
-83.6009
-83.3048
-83.0916
-82.9756
-82.8733
-82.7559
-82.611
-82.461
-87.8782
-87.7164
-87.5388
-87.2083
-86.8936
-86.6606
-86.5585
-86.4009
-86.2108
-86.0553
-85.9604
-85.8933
-85.8383
-85.8
-85.7826
-85.7843
-85.795
-85.8236
-85.9182
-86.1137
-86.3454
-86.5298
-86.6149
-86.584
-86.5082
-86.4354
-86.388
-86.3715
-86.4049
-86.575
-86.8912
-87.2489
-87.5192
-87.6168
-87.4878
-87.2132
-86.8832
-86.6155
-86.4134
-86.2933
-86.1883
-86.0719
-85.9407
-85.8005
-91.2258
-91.0958
-90.9204
-90.6048
-90.2882
-90.0908
-89.9739
-89.7711
-89.5567
-89.4076
-89.3091
-89.2322
-89.1692
-89.1249
-89.1077
-89.1134
-89.1288
-89.1617
-89.2612
-89.4338
-89.6502
-89.821
-89.8961
-89.8804
-89.8178
-89.7558
-89.7181
-89.7091
-89.7521
-89.9107
-90.1908
-90.4998
-90.7307
-90.8141
-90.7017
-90.4604
-90.1701
-89.9283
-89.7381
-89.6169
-89.5099
-89.3968
-89.2719
-89.142
-94.5656
-94.4175
-94.2261
-94.003
-93.6937
-93.5308
-93.339
-93.0806
-92.8598
-92.7192
-92.6153
-92.5295
-92.4602
-92.4154
-92.4059
-92.4205
-92.4444
-92.4877
-92.5877
-92.7471
-92.9415
-93.0995
-93.1777
-93.1738
-93.1257
-93.0756
-93.0478
-93.0469
-93.0968
-93.2441
-93.4903
-93.7569
-93.9568
-94.0246
-93.9272
-93.7167
-93.4618
-93.2433
-93.0642
-92.943
-92.835
-92.7239
-92.6042
-92.4823
-97.9227
-97.7581
-97.6018
-97.4103
-97.1373
-96.929
-96.6723
-96.3911
-96.1994
-96.0636
-95.955
-95.8598
-95.7814
-95.7363
-95.7302
-95.7492
-95.7784
-95.8246
-95.9206
-96.0708
-96.2482
-96.3896
-96.4646
-96.4688
-96.4345
-96.3964
-96.3785
-96.3853
-96.4401
-96.5763
-96.7917
-97.022
-97.1948
-97.25
-97.1665
-96.9823
-96.7577
-96.5596
-96.3916
-96.27
-96.1619
-96.0525
-95.9377
-95.8224
-101.2
-101.078
-100.978
-100.796
-100.559
-100.287
-99.9527
-99.6807
-99.5147
-99.3783
-99.2621
-99.1581
-99.0758
-99.0363
-99.0404
-99.0677
-99.1039
-99.157
-99.2509
-99.3879
-99.5503
-99.6795
-99.7553
-99.7674
-99.7457
-99.719
-99.7101
-99.7237
-99.7814
-99.9071
-100.096
-100.295
-100.443
-100.489
-100.417
-100.254
-100.056
-99.8752
-99.7183
-99.5964
-99.4892
-99.3814
-99.2713
-99.1627
-104.492
-104.453
-104.362
-104.203
-103.916
-103.589
-103.227
-103.008
-102.858
-102.717
-102.592
-102.479
-102.395
-102.359
-102.367
-102.399
-102.438
-102.494
-102.586
-102.714
-102.86
-102.978
-103.052
-103.07
-103.06
-103.043
-103.042
-103.061
-103.12
-103.235
-103.402
-103.574
-103.701
-103.739
-103.676
-103.533
-103.356
-103.19
-103.043
-102.922
-102.817
-102.711
-102.605
-102.501
-107.753
-107.763
-107.698
-107.527
-107.195
-106.817
-106.531
-106.347
-106.186
-106.036
-105.9
-105.781
-105.701
-105.675
-105.692
-105.728
-105.772
-105.831
-105.92
-106.04
-106.173
-106.283
-106.354
-106.377
-106.375
-106.368
-106.373
-106.396
-106.455
-106.561
-106.708
-106.858
-106.966
-106.997
-106.941
-106.815
-106.657
-106.505
-106.366
-106.248
-106.143
-106.04
-105.939
-105.839
-111.039
-111.064
-110.968
-110.751
-110.412
-110.088
-109.875
-109.699
-109.527
-109.367
-109.221
-109.099
-109.023
-109.004
-109.024
-109.063
-109.109
-109.17
-109.257
-109.369
-109.491
-109.591
-109.66
-109.687
-109.693
-109.692
-109.703
-109.729
-109.788
-109.885
-110.015
-110.144
-110.237
-110.263
-110.213
-110.101
-109.958
-109.818
-109.688
-109.574
-109.47
-109.37
-109.273
-109.178
-114.292
-114.341
-114.197
-113.962
-113.662
-113.413
-113.226
-113.042
-112.858
-112.685
-112.531
-112.412
-112.346
-112.335
-112.36
-112.4
-112.449
-112.511
-112.595
-112.699
-112.811
-112.903
-112.968
-112.999
-113.011
-113.016
-113.031
-113.06
-113.117
-113.206
-113.321
-113.434
-113.514
-113.535
-113.49
-113.389
-113.261
-113.131
-113.009
-112.899
-112.797
-112.699
-112.606
-112.517
-117.58
-117.622
-117.479
-117.25
-116.986
-116.774
-116.579
-116.386
-116.19
-116.007
-115.848
-115.733
-115.676
-115.672
-115.7
-115.741
-115.791
-115.853
-115.933
-116.03
-116.132
-116.217
-116.28
-116.313
-116.329
-116.34
-116.358
-116.389
-116.445
-116.526
-116.628
-116.727
-116.795
-116.812
-116.77
-116.68
-116.564
-116.444
-116.329
-116.223
-116.125
-116.029
-115.939
-115.855
-120.864
-120.891
-120.784
-120.584
-120.344
-120.129
-119.923
-119.72
-119.514
-119.323
-119.166
-119.06
-119.013
-119.015
-119.044
-119.085
-119.135
-119.195
-119.271
-119.361
-119.454
-119.534
-119.593
-119.628
-119.649
-119.664
-119.685
-119.717
-119.77
-119.845
-119.935
-120.022
-120.08
-120.093
-120.055
-119.974
-119.868
-119.757
-119.649
-119.547
-119.451
-119.359
-119.273
-119.19
-124.155
-124.173
-124.091
-123.914
-123.69
-123.47
-123.261
-123.049
-122.835
-122.641
-122.488
-122.393
-122.355
-122.361
-122.39
-122.43
-122.478
-122.537
-122.609
-122.692
-122.777
-122.852
-122.909
-122.945
-122.968
-122.987
-123.01
-123.043
-123.094
-123.163
-123.243
-123.319
-123.369
-123.379
-123.344
-123.27
-123.173
-123.07
-122.968
-122.87
-122.778
-122.689
-122.607
-122.526
-127.439
-127.454
-127.39
-127.233
-127.02
-126.8
-126.588
-126.37
-126.153
-125.96
-125.816
-125.732
-125.702
-125.71
-125.738
-125.776
-125.822
-125.878
-125.946
-126.022
-126.102
-126.171
-126.226
-126.263
-126.288
-126.309
-126.335
-126.368
-126.417
-126.48
-126.551
-126.618
-126.661
-126.668
-126.635
-126.568
-126.479
-126.384
-126.287
-126.194
-126.105
-126.019
-125.939
-125.862
-130.73
-130.739
-130.686
-130.542
-130.338
-130.121
-129.906
-129.686
-129.469
-129.282
-129.149
-129.077
-129.053
-129.061
-129.086
-129.121
-129.165
-129.219
-129.282
-129.353
-129.427
-129.492
-129.544
-129.581
-129.609
-129.632
-129.659
-129.692
-129.738
-129.796
-129.86
-129.918
-129.955
-129.96
-129.93
-129.868
-129.786
-129.697
-129.606
-129.517
-129.431
-129.349
-129.27
-129.198
-134.015
-134.021
-133.975
-133.842
-133.647
-133.433
-133.216
-132.998
-132.785
-132.608
-132.488
-132.426
-132.406
-132.412
-132.434
-132.467
-132.508
-132.558
-132.618
-132.684
-132.752
-132.814
-132.863
-132.901
-132.929
-132.955
-132.982
-133.016
-133.059
-133.112
-133.17
-133.221
-133.252
-133.255
-133.226
-133.17
-133.094
-133.011
-132.925
-132.84
-132.757
-132.678
-132.603
-132.533
-137.303
-137.304
-137.261
-137.134
-136.946
-136.737
-136.52
-136.307
-136.102
-135.939
-135.833
-135.779
-135.759
-135.762
-135.781
-135.811
-135.85
-135.897
-135.953
-136.015
-136.078
-136.136
-136.184
-136.221
-136.251
-136.277
-136.305
-136.338
-136.379
-136.428
-136.48
-136.524
-136.551
-136.552
-136.525
-136.473
-136.403
-136.326
-136.244
-136.163
-136.083
-136.007
-135.935
-135.868
-140.585
-140.583
-140.54
-140.419
-140.238
-140.034
-139.821
-139.615
-139.423
-139.275
-139.181
-139.131
-139.111
-139.112
-139.128
-139.155
-139.191
-139.236
-139.288
-139.346
-139.405
-139.459
-139.505
-139.542
-139.572
-139.599
-139.627
-139.66
-139.699
-139.744
-139.79
-139.83
-139.852
-139.852
-139.826
-139.778
-139.713
-139.64
-139.563
-139.486
-139.41
-139.336
-139.267
-139.202
-143.865
-143.862
-143.815
-143.697
-143.524
-143.326
-143.121
-142.925
-142.747
-142.616
-142.531
-142.483
-142.462
-142.46
-142.473
-142.498
-142.532
-142.574
-142.623
-142.677
-142.732
-142.783
-142.827
-142.863
-142.894
-142.921
-142.95
-142.981
-143.018
-143.06
-143.101
-143.136
-143.155
-143.154
-143.129
-143.085
-143.024
-142.956
-142.882
-142.809
-142.736
-142.665
-142.598
-142.536
-147.144
-147.138
-147.089
-146.974
-146.807
-146.616
-146.421
-146.237
-146.078
-145.96
-145.881
-145.834
-145.811
-145.807
-145.818
-145.841
-145.872
-145.911
-145.957
-146.008
-146.059
-146.108
-146.15
-146.185
-146.215
-146.243
-146.272
-146.303
-146.338
-146.376
-146.413
-146.443
-146.46
-146.457
-146.434
-146.392
-146.335
-146.271
-146.202
-146.132
-146.062
-145.994
-145.93
-145.87
-150.418
-150.408
-150.354
-150.243
-150.087
-149.907
-149.725
-149.557
-149.413
-149.304
-149.23
-149.183
-149.159
-149.154
-149.163
-149.183
-149.212
-149.248
-149.291
-149.339
-149.387
-149.432
-149.473
-149.507
-149.538
-149.565
-149.593
-149.623
-149.656
-149.691
-149.725
-149.752
-149.766
-149.762
-149.74
-149.701
-149.647
-149.587
-149.522
-149.455
-149.388
-149.322
-149.261
-149.203
-153.692
-153.677
-153.622
-153.515
-153.367
-153.198
-153.032
-152.879
-152.749
-152.648
-152.577
-152.531
-152.506
-152.499
-152.506
-152.524
-152.551
-152.585
-152.625
-152.669
-152.714
-152.758
-152.796
-152.83
-152.86
-152.887
-152.915
-152.944
-152.975
-153.007
-153.038
-153.061
-153.073
-153.069
-153.047
-153.011
-152.961
-152.904
-152.842
-152.778
-152.714
-152.651
-152.592
-152.536
-156.965
-156.948
-156.891
-156.789
-156.649
-156.494
-156.344
-156.205
-156.086
-155.991
-155.922
-155.877
-155.852
-155.844
-155.849
-155.864
-155.889
-155.921
-155.959
-156
-156.042
-156.083
-156.12
-156.153
-156.182
-156.21
-156.237
-156.265
-156.294
-156.324
-156.351
-156.372
-156.381
-156.376
-156.356
-156.321
-156.274
-156.221
-156.162
-156.101
-156.04
-155.979
-155.922
-155.869
-160.24
-160.22
-160.163
-160.065
-159.937
-159.797
-159.661
-159.533
-159.422
-159.333
-159.266
-159.222
-159.197
-159.187
-159.191
-159.205
-159.227
-159.257
-159.292
-159.331
-159.37
-159.409
-159.444
-159.476
-159.505
-159.532
-159.558
-159.585
-159.613
-159.64
-159.665
-159.683
-159.691
-159.686
-159.666
-159.633
-159.589
-159.538
-159.482
-159.424
-159.366
-159.308
-159.253
-159.201
-163.516
-163.493
-163.438
-163.347
-163.232
-163.105
-162.979
-162.861
-162.757
-162.673
-162.609
-162.566
-162.54
-162.53
-162.532
-162.544
-162.565
-162.592
-162.625
-162.661
-162.699
-162.735
-162.769
-162.8
-162.828
-162.854
-162.88
-162.905
-162.931
-162.957
-162.979
-162.995
-163.002
-162.996
-162.977
-162.946
-162.904
-162.856
-162.803
-162.747
-162.691
-162.636
-162.583
-162.534
-166.795
-166.772
-166.719
-166.636
-166.532
-166.415
-166.299
-166.189
-166.092
-166.011
-165.951
-165.908
-165.883
-165.871
-165.872
-165.883
-165.902
-165.927
-165.958
-165.992
-166.027
-166.061
-166.094
-166.123
-166.151
-166.176
-166.201
-166.226
-166.25
-166.274
-166.294
-166.308
-166.313
-166.307
-166.289
-166.259
-166.22
-166.174
-166.124
-166.071
-166.017
-165.964
-165.914
-165.866
-176.527
-176.502
-176.458
-176.396
-176.314
-176.224
-176.132
-176.044
-175.964
-175.897
-175.843
-175.804
-175.779
-175.766
-175.763
-175.769
-175.784
-175.804
-175.828
-175.855
-175.884
-175.913
-175.941
-175.968
-175.993
-176.016
-176.038
-176.06
-176.08
-176.098
-176.113
-176.122
-176.124
-176.117
-176.1
-176.075
-176.042
-176.003
-175.96
-175.914
-175.868
-175.821
-175.776
-175.734
-192.78
-192.759
-192.722
-192.673
-192.613
-192.547
-192.48
-192.416
-192.357
-192.305
-192.263
-192.231
-192.208
-192.195
-192.19
-192.192
-192.199
-192.213
-192.23
-192.25
-192.271
-192.293
-192.315
-192.336
-192.356
-192.376
-192.394
-192.41