/*--------------------------------*- C++ -*----------------------------------*\
| =========                 |                                                 |
| \\      /  F ield         | OpenFOAM: The Open Source CFD Toolbox           |
|  \\    /   O peration     | Version:  v1912                                 |
|   \\  /    A nd           | Website:  www.openfoam.com                      |
|    \\/     M anipulation  |                                                 |
\*---------------------------------------------------------------------------*/
FoamFile
{
    version     2.0;
    format      ascii;
    class       volScalarField;
    location    "90";
    object      p_rgh;
}
// * * * * * * * * * * * * * * * * * * * * * * * * * * * * * * * * * * * * * //

dimensions      [1 -1 -2 0 0 0 0];


internalField   nonuniform List<scalar> 
14268
(
9075.92
9142.98
9213.91
9290.81
9376.64
9472.28
9579.43
9700.39
9832.93
9976.38
10127.3
10285.2
10450
10626.1
10813.6
11003.3
11203.2
11411.4
11636.5
11886
12159.9
12462.5
12797.5
13164.3
13562.9
13991.4
14445.8
14920.4
15405.6
15891.4
16370
16832.6
17268.3
17675.9
18051.1
18380.3
18657.8
18881.6
19060.7
19229.3
19409.4
19605
19880.5
20108.2
9070.44
9137.42
9208.26
9285.04
9370.75
9466.26
9573.24
9694.04
9826.41
9969.75
10120.5
10278.4
10443.3
10619.4
10806.9
10996.6
11196.7
11404.9
11630.1
11879.6
12153.5
12456
12790.9
13157.7
13556.4
13984.9
14439.4
14914.1
15399.3
15885.1
16363.7
16826.3
17261.8
17669.3
18044.2
18373.1
18650.1
18873
19049.8
19215.4
19394.3
19589.7
19866.1
20095.1
9070.97
9137.97
9208.83
9285.67
9371.41
9466.97
9574.01
9694.85
9827.3
9970.69
10121.5
10279.3
10444.1
10620.1
10807.7
10997.4
11197.5
11405.7
11630.9
11880.3
12154.2
12456.7
12791.6
13158.4
13557.1
13985.6
14440.1
14914.8
15400.1
15885.9
16364.6
16827.1
17262.8
17670.3
18045.4
18374.4
18651.4
18874.4
19051.4
19217.8
19397.3
19593
19869.3
20097.7
9067.02
9133.95
9204.75
9281.5
9367.13
9462.56
9569.46
9690.16
9822.41
9965.67
10116.4
10274.3
10439.2
10615.4
10803
10992.7
11192.8
11401.1
11626.4
11875.9
12149.7
12452.2
12787.1
13153.8
13552.5
13981
14435.5
14910.3
15395.5
15881.3
16360
16822.5
17258.1
17665.4
18040.2
18368.9
18645.6
18867.8
19043.2
19207.7
19386.6
19582.4
19859.4
20088
9068.12
9135.09
9205.91
9282.7
9368.4
9463.93
9570.93
9691.72
9824.14
9967.53
10118.4
10276.1
10440.8
10616.8
10804.5
10994.2
11194.3
11402.6
11627.8
11877.2
12151
12453.4
12788.3
13155.1
13553.8
13982.4
14437
14911.7
15397.1
15882.9
16361.6
16824.2
17259.8
17667.3
18042.4
18371.2
18648
18870.5
19046.5
19211.9
19391.4
19587.4
19864.2
20092.8
9064.72
9131.63
9202.4
9279.15
9364.73
9460.1
9566.93
9687.56
9819.73
9962.93
10113.6
10271.5
10436.5
10612.7
10800.4
10990.2
11190.2
11398.6
11623.9
11873.4
12147.3
12449.7
12784.5
13151.2
13549.9
13978.5
14433
14907.7
15393
15878.8
16357.5
16820
17255.6
17662.8
18037.6
18366.1
18642.6
18864.3
19038.8
19202.8
19382
19578.2
19855.6
20083.6
9065.92
9132.87
9203.66
9280.39
9366.06
9461.57
9568.55
9689.32
9821.74
9965.13
10116
10273.7
10438.3
10614.3
10802
10991.8
11191.9
11400.3
11625.5
11874.9
12148.6
12450.9
12785.8
13152.6
13551.3
13979.9
14434.4
14909.2
15394.6
15880.4
16359.2
16821.9
17257.5
17665
18040
18368.7
18645.5
18867.5
19042.7
19207.5
19387
19583.3
19860.7
20088.9
9062.9
9129.79
9200.54
9277.24
9362.79
9458.12
9564.89
9685.47
9817.58
9960.72
10111.4
10269.3
10434.3
10610.6
10798.3
10988.2
11188.2
11396.7
11621.9
11871.5
12145.3
12447.7
12782.5
13149.3
13547.9
13976.5
14431.1
14905.9
15391.3
15877.1
16355.8
16818.3
17253.7
17660.9
18035.6
18364
18640.1
18861.5
19035.3
19198.9
19378.7
19575.2
19852.9
20080.1
9064.06
9130.98
9201.76
9278.48
9364.13
9459.62
9566.58
9687.32
9819.73
9963.14
10114
10271.7
10436.2
10612.2
10800
10989.9
11190
11398.3
11623.5
11872.9
12146.6
12448.9
12783.7
13150.5
13549.3
13977.9
14432.4
14907.2
15392.6
15878.5
16357.3
16820
17255.6
17663.1
18038.1
18366.7
18643.2
18864.7
19039.2
19203.7
19383.6
19580.2
19857.9
20085.7
9061.36
9128.23
9198.95
9275.61
9361.13
9456.42
9563.15
9683.69
9815.73
9958.84
10109.5
10267.5
10432.5
10608.9
10796.6
10986.5
11186.5
11395
11620.3
11869.8
12143.6
12446
12780.8
13147.5
13546.2
13974.8
14429.4
14904.2
15389.6
15875.4
16354.1
16816.7
17252.1
17659.3
18033.8
18362.1
18638.2
18859.3
19032.5
19195.8
19375.8
19572.8
19850.9
20077.3
9062.45
9129.36
9200.12
9276.83
9362.46
9457.92
9564.86
9685.57
9817.99
9961.39
10112.3
10269.9
10434.3
10610.4
10798.2
10988.2
11188.3
11396.6
11621.8
11871.2
12144.8
12447.1
12781.9
13148.7
13547.4
13976.1
14430.6
14905.5
15390.9
15876.8
16355.7
16818.3
17253.9
17661.4
18036.4
18364.9
18641.3
18862.4
19036.2
19200.5
19380.6
19577.5
19855.6
20083.1
9059.96
9126.81
9197.51
9274.13
9359.62
9454.89
9561.59
9682.08
9814.08
9957.16
10107.8
10265.8
10430.9
10607.3
10795
10985
11185.1
11393.5
11618.8
11868.4
12142.1
12444.5
12779.2
13146
13544.6
13973.3
14427.9
14902.7
15388.1
15873.9
16352.7
16815.3
17250.7
17657.8
18032.3
18360.5
18636.5
18857.3
19030
19193
19373.4
19570.7
19849.2
20074.9
9061.04
9127.92
9198.67
9275.37
9360.97
9456.41
9563.31
9684.01
9816.42
9959.81
10110.7
10268.3
10432.7
10608.7
10796.6
10986.6
11186.7
11395.1
11620.3
11869.6
12143.2
12445.5
12780.3
13147
13545.8
13974.4
14429
14903.9
15389.3
15875.3
16354.2
16816.9
17252.5
17659.9
18034.9
18363.3
18639.5
18860.2
19033.4
19197.5
19378
19575.2
19853.6
20080.9
9058.67
9125.51
9196.18
9272.77
9358.23
9453.48
9560.15
9680.61
9812.58
9955.64
10106.3
10264.3
10429.5
10605.9
10793.6
10983.6
11183.7
11392.2
11617.5
11867
12140.8
12443.1
12777.8
13144.5
13543.2
13971.8
14426.4
14901.3
15386.7
15872.6
16351.4
16814
17249.4
17656.5
18030.9
18359
18634.9
18855.4
19027.8
19190.5
19371.3
19568.8
19847.7
20072.9
9060.3
9127.15
9197.89
9274.65
9360.28
9455.77
9562.75
9683.56
9816.15
9959.7
10110.7
10268.2
10432
10607.9
10795.9
10986
11186.2
11394.5
11619.6
11868.8
12142.3
12444.5
12779.2
13146
13544.7
13973.4
14428.1
14903
15388.5
15874.5
16353.5
16816.3
17251.9
17659.6
18034.7
18363.3
18639.4
18859.7
19032.4
19196.9
19377.9
19575.2
19854
20082.1
9055.79
9122.61
9193.22
9269.68
9355.04
9450.17
9556.68
9676.97
9808.68
9951.51
10102
10260.3
10426.1
10602.7
10790.4
10980.4
11180.6
11389.1
11614.4
11864
12137.7
12440.1
12774.7
13141.4
13540.1
13968.7
14423.3
14898.2
15383.6
15869.6
16348.4
16810.9
17246.2
17653.1
18027.2
18354.9
18630.5
18850.7
19021.8
19183.5
19365.2
19563.5
19843.2
20066.6
9058.05
9124.83
9195.54
9272.27
9357.85
9453.29
9560.23
9681.02
9813.59
9957.15
10108.2
10265.6
10429.3
10605.3
10793.3
10983.5
11183.7
11392
11617.1
11866.3
12139.7
12441.8
12776.5
13143.2
13541.9
13970.6
14425.3
14900.3
15385.8
15872
16351.1
16813.9
17249.6
17657.2
18032.3
18360.7
18636.6
18856.1
19027.9
19192.1
19373.8
19571.6
19851.1
20079.6
9053.76
9120.57
9191.13
9267.53
9352.85
9447.93
9554.4
9674.63
9806.31
9949.09
10099.6
10258
10423.8
10600.5
10788.2
10978.3
11178.5
11387.1
11612.3
11861.8
12135.5
12437.7
12772.3
13139
13537.7
13966.4
14421
14895.9
15381.3
15867.4
16346.3
16808.9
17244.3
17651.1
18025.1
18352.6
18628.1
18847.8
19018.2
19179.3
19361.7
19560.8
19841.5
20064.3
9056.11
9122.81
9193.47
9270.15
9355.67
9451.06
9557.97
9678.73
9811.28
9954.83
10105.9
10263.3
10426.9
10603
10791
10981.2
11181.5
11389.8
11614.9
11864
12137.3
12439.3
12773.9
13140.6
13539.3
13968
14422.8
14897.8
15383.5
15869.7
16348.9
16811.8
17247.4
17655.1
18030.1
18358.5
18634.1
18852.9
19023.7
19187.6
19370.2
19568.6
19848.5
20077.4
9051.93
9118.73
9189.25
9265.6
9350.89
9445.93
9552.34
9672.52
9804.19
9946.94
10097.4
10255.9
10421.8
10598.4
10786.2
10976.4
11176.7
11385.2
11610.4
11859.8
12133.3
12435.5
12770.1
13136.7
13535.4
13964.1
14418.8
14893.7
15379.2
15865.4
16344.4
16807.1
17242.5
17649.3
18023.2
18350.7
18626
18845.2
19014.9
19175.5
19358.6
19558.2
19840.2
20062.7
9054.26
9120.95
9191.54
9268.15
9353.6
9448.95
9555.81
9676.54
9809.09
9952.66
10103.7
10261.2
10424.7
10600.8
10788.9
10979.1
11179.6
11387.8
11612.8
11861.9
12135.1
12437.1
12771.6
13138.2
13536.9
13965.6
14420.4
14895.5
15381.2
15867.6
16346.9
16809.8
17245.5
17653.1
18028.2
18356.4
18631.9
18850.1
19019.8
19183.2
19366.9
19566.1
19846.7
20075.7
9026.09
9092.99
9162.83
9239.14
9322.46
9414.94
9518.89
9635.16
9761.51
9896.94
10044.2
10209.3
10389
10569.4
10756
10945.9
11146.7
11356.3
11582.1
11832.8
12108
12410.8
12745
13111.5
13510.3
13938.8
14392.8
14867.2
15352.5
15838.4
16316.5
16778.7
17212
17613.8
17980.3
18301.9
18575.4
18798.8
18962.5
19102.6
19289.1
19493.7
19790.8
19978.8
9056.26
9123.62
9195.27
9271.03
9354.92
9452.52
9560.78
9684.78
9819.57
9967.77
10122.1
10276.2
10433.7
10605.3
10792.1
10983.5
11184.4
11393.1
11615.6
11861.9
12133.1
12433.1
12766.4
13132.2
13531
13961
14418.1
14895.3
15383.2
15871.5
16352.9
16817.7
17257.9
17671.9
18049.7
18381.9
18658.9
18877.9
19047.5
19224
19435
19679.1
19919.3
20153.7
9025.29
9089.17
9158.6
9237.25
9322.52
9412.81
9516.99
9632.51
9758.1
9893.24
10041.6
10205.9
10381.8
10565.8
10747.8
10935.7
11137.8
11346
11570
11820.9
12095.4
12396.4
12728.6
13093.5
13491
13918.9
14373.3
14849.5
15337.7
15827.8
16312.1
16780.7
17216.9
17619
17988.8
18309.4
18586.5
18801.1
18963.1
19077.4
19305.3
19598.5
19900.2
20121.4
9039.75
9107.95
9177.61
9252.97
9337.76
9430.41
9542.83
9667.36
9800.92
9949.57
10104.8
10258.2
10420
10593.3
10777
10969.7
11170.1
11380.7
11599.9
11842.4
12110
12407.4
12736.8
13100.1
13499.1
13930.7
14389.8
14869.5
15361.4
15855.5
16342.7
16813.7
17259.6
17674.9
18051.7
18378
18653.7
18866.9
19028.2
19208
19328.1
19491.9
19761.8
20097.2
9044.45
9102.52
9169.77
9242.88
9324.48
9420.1
9523.79
9639.74
9767.13
9903.07
10050.1
10213.7
10389.2
10570.2
10752.5
10944.3
11143.2
11354.2
11580.5
11824.8
12092.3
12387.2
12712.5
13073.5
13470.6
13900.1
14357.2
14837.4
15331.2
15828
16320.4
16796.6
17238.1
17645.2
18017.9
18341
18615.3
18835
18967.7
19116.1
19272.6
19391.7
19601.2
19819.9
9039.62
9099.43
9165.82
9240.02
9323.51
9424.35
9534.5
9652.29
9790.09
9940.04
10099.4
10256.8
10420.6
10593.9
10773.8
10963.4
11167.3
11379.7
11603.4
11846.6
12108.1
12395.9
12715.7
13075.4
13475.4
13911.4
14375.4
14860.2
15358.2
15859.1
16354.7
16835.3
17287.3
17705.6
18081.9
18409
18677.3
18881.5
19064.4
19246.3
19394.1
19552.5
19724.1
19929.7
9068.6
9132.02
9198.4
9269.82
9348.62
9437.93
9545.95
9664.35
9792.24
9928.57
10078.2
10238.4
10409.5
10586.9
10770.5
10954.5
11151.4
11363.4
11571.1
11807.3
12065.4
12363.5
12688.2
13045
13441.4
13875.9
14339.6
14827
15330
15836.6
16341
16830.4
17283.9
17697.8
18071.7
18394
18676.2
18872.7
19021.7
19181.9
19359.6
19499.5
19725.7
19920.5
9031.07
9097.76
9168.44
9244.96
9329.75
9425.28
9534.97
9662.19
9799.24
9947.24
10109.3
10270.8
10439.3
10614.5
10794.5
10981.5
11177.6
11377.8
11572.4
11804
12078
12372.9
12694
13053.2
13453.8
13893.4
14359.7
14848.9
15358.7
15871.3
16380.7
16875.5
17338.3
17761.2
18141.6
18466.9
18738.2
18947
19126.6
19297.2
19455.7
19622.3
19817.3
20030.7
6942.48
7087.34
7241.68
7406.62
7584.21
7790.06
8036.84
8313.51
8601.03
8891.01
9184.11
9480.07
9778.06
10072.5
10363.5
10652.5
10934.6
11213.8
11487.2
11754.5
12031.4
12322.9
12648.6
13011.1
13410.1
13846.9
14311.4
14804.9
15327.2
15857.7
16383
16886.5
17350.5
17767.8
18145.2
18477.8
18766.2
18965.3
19117.5
19272.8
19439.5
19590.4
19811.8
20023.7
1046.56
1118.24
1216.17
1341.64
1489.48
1665.26
1884.96
2155.56
2486.08
2873.14
3302.32
3774.05
4293.84
4849.19
5426.55
6018.29
6616.06
7271.47
7999.24
8764.75
9561.89
10389
11248.3
12064
12814.7
13501.8
14132.3
14724.1
15299.3
15856.5
16402.2
16917.6
17387.6
17814.1
18203.4
18548
18839.6
19061.8
19228.3
19375.8
19519.6
19672.5
19878.1
20120.3
20.1905
21.7575
24.0413
27.2419
31.358
36.6254
43.1423
50.7232
59.7494
71.479
87.3727
108.75
137.927
180.839
251.086
359.079
492.342
654.948
877.933
1189.3
1610.43
2160.71
2964.27
4118.59
5611.13
7361.48
9277.72
11279.9
13269.2
14747.8
15832.5
16635.9
17245
17732
18153.5
18518.7
18847.1
19090.4
19234.9
19360.7
19474.1
19599.5
19786
20047.1
-0.21851
-0.00395986
0.278646
0.554919
0.804931
1.04812
1.28696
1.49307
1.57894
1.64056
1.7923
2.13889
2.70176
3.36573
4.15819
5.15616
6.39897
7.77063
9.10068
10.2586
11.2387
12.3556
15.2953
62.4772
278.094
745.332
1458.08
2427.51
3765.1
5761.12
8164.77
10616.3
12847.8
14801.5
16291.3
17342.7
18025.8
18507.1
18581
18408.9
18356.2
18559.2
18984.2
19624.9
-0.893461
-0.67484
-0.403772
-0.135712
0.129962
0.399498
0.602115
0.727631
0.823984
0.896016
0.965863
1.23883
1.80416
2.05927
2.01595
1.85165
1.71369
1.69675
1.70971
1.7283
1.78308
1.9716
2.36244
2.20667
1.85471
2.2986
3.07577
3.89031
6.18782
197.47
751.432
1659.21
2749.52
3856.32
5240.07
6728.45
8079.84
9367.76
10250.2
10582.7
10913.4
11673.5
12889.7
14433.7
-0.799824
-0.572027
-0.311518
-0.0409678
0.227637
0.47552
0.707142
0.898289
1.02007
1.09015
1.18678
1.55644
1.83045
1.7409
1.50798
1.26522
1.08744
1.01619
0.95934
0.880253
0.825783
0.952205
1.50088
1.61967
0.53867
0.421975
0.837851
1.23297
1.54288
-0.0754988
-1.36459
-1.33913
-0.86426
0.707315
40.6699
180.799
433.377
797.713
1337.47
2257.76
2933.71
2838.06
2642.81
2629.54
-1.15413
-0.914707
-0.619696
-0.321367
-0.0522141
0.214772
0.428412
0.626988
0.957657
1.15272
1.2111
1.1796
1.10359
1.07408
1.04101
0.980675
0.920117
0.882781
0.83159
0.74656
0.672144
0.708311
0.94818
0.951938
0.397054
0.425306
0.777588
1.12089
1.67364
0.213377
-1.27804
-1.45773
-1.26347
-0.910517
-1.10634
-1.32992
-0.755961
-0.125158
0.72816
1.69856
3.69351
7.49382
7.88418
13.1869
-0.980645
-0.730569
-0.462116
-0.17352
0.101758
0.358825
0.712102
1.17263
1.31991
1.28203
1.16185
1.08006
1.03201
1.00478
0.96651
0.919932
0.869733
0.812307
0.745348
0.629997
0.538554
0.573963
0.977041
0.965253
0.550676
0.455781
0.675096
0.880709
0.980258
-0.172477
-1.25602
-1.61028
-1.60567
-1.18851
-1.09746
-1.50341
-1.19833
-0.673402
-0.0821062
0.908125
2.28796
2.73092
2.57324
1.70164
-1.26903
-1.0406
-0.724637
-0.400082
-0.133853
0.205196
0.777344
1.0084
1.04377
0.848772
0.825516
0.825352
0.885721
0.909319
0.880019
0.823904
0.792741
0.752797
0.689637
0.553651
0.449582
0.460606
0.681096
0.643627
0.408456
0.386632
0.590438
0.756846
0.829071
0.0284609
-1.06722
-1.55998
-1.70208
-1.55561
-1.48265
-1.47412
-1.06918
-0.564477
-0.0776906
0.838826
0.875905
0.678855
0.476988
0.444364
-1.08396
-0.819792
-0.562122
-0.256461
0.0647172
0.695855
1.0714
1.25861
1.03251
0.896053
0.913615
1.06688
1.15405
1.16842
1.02748
0.834918
0.763448
0.706071
0.633116
0.471072
0.349869
0.366076
0.531629
0.645885
0.471586
0.461799
0.563353
0.591459
0.514936
-0.155659
-0.612883
-0.633898
-0.967885
-1.37882
-1.48216
-1.3066
-0.859079
-0.407711
0.274826
0.625642
0.456796
0.23289
0.464837
0.860275
-1.29933
-1.12318
-0.786334
-0.469722
-0.138427
0.465153
0.873798
0.790692
0.654616
0.668399
0.916044
1.0335
1.09009
1.05434
0.887385
0.757574
0.70769
0.663795
0.586916
0.395253
0.268132
0.276438
0.381368
0.48136
0.348318
0.375046
0.386917
0.39824
0.550411
0.861758
0.236328
-0.352236
-0.528124
-0.575359
-1.25313
-1.26569
-0.778463
-0.258012
0.3629
0.279369
-0.081926
-0.094758
0.288254
0.611645
-1.1338
-0.897439
-0.644838
-0.336033
0.0225086
0.47086
0.694008
0.743172
0.671884
0.703163
0.976813
1.09095
0.999612
0.843435
0.769258
0.736508
0.684947
0.637698
0.553544
0.333351
0.1985
0.197976
0.263167
0.397707
0.370736
0.359458
0.32175
0.58154
1.09882
1.04143
-0.114174
-1.00155
-1.11998
-1.24853
-1.38681
-1.20524
-0.661696
0.000885563
0.311514
0.141301
-0.0347863
0.028848
0.346039
0.700138
-1.23423
-1.12786
-0.818724
-0.504895
-0.176895
0.147817
0.356578
0.408915
0.478144
0.674631
0.745079
0.73788
0.698218
0.686228
0.685912
0.672461
0.64258
0.608502
0.506563
0.271696
0.124127
0.124073
0.146907
0.266961
0.267172
0.181277
0.458603
1.73121
1.65393
0.43474
-0.918179
-1.7355
-1.91478
-1.86755
-1.65622
-1.15945
-0.501691
0.112914
0.189688
-0.0406334
-0.141068
-0.00933077
0.302588
0.613752
-1.02154
-0.913714
-0.695336
-0.390721
-0.0540424
0.230564
0.382265
0.490538
0.779907
1.09541
0.992362
0.728955
0.680958
0.686879
0.686092
0.670018
0.633522
0.597549
0.500084
0.23435
0.0727414
0.0813742
0.0396388
0.168893
0.207278
0.235091
1.63266
2.19494
1.51959
0.160581
-0.887678
-1.72319
-2.07537
-2.02321
-1.73366
-1.04456
-0.12034
0.198559
0.121054
0.0328054
-0.00249157
0.0545012
0.3344
0.63112
-1.22615
-1.06307
-0.719144
-0.311321
-0.0488501
0.0836724
0.256124
0.505271
1.3197
1.35367
0.869852
0.600854
0.605326
0.622983
0.630349
0.624329
0.602648
0.571365
0.460481
0.208318
-0.0127238
0.0312148
-0.0676722
0.0459442
0.0724764
0.899982
2.31825
2.33607
1.20997
0.053712
-0.818934
-1.6549
-2.1021
-2.03721
-1.44388
-0.510425
0.0803582
0.120593
0.0512306
0.00759843
-0.0216243
0.0846137
0.339365
0.619315
-1.08222
-0.97983
-0.520256
-0.0892153
0.214707
0.268013
0.433504
1.23288
1.66562
1.20589
0.692873
0.605209
0.621217
0.633643
0.641049
0.63328
0.609729
0.584423
0.472161
0.19352
-0.0150611
-0.0488079
-0.104131
-0.0400405
0.39635
2.27962
2.52547
1.96967
0.713912
0.0633304
-0.721229
-1.55959
-1.91661
-1.41346
-0.986193
-0.449673
-0.146937
-0.064106
0.0438063
0.050502
0.0452689
0.131186
0.372407
0.636664
-1.28396
-1.10823
-0.747422
-0.215524
0.0420841
0.135014
0.358644
1.62288
1.67767
0.904337
0.528064
0.54548
0.572404
0.591498
0.601332
0.603048
0.587345
0.568385
0.462638
0.202601
-0.0447706
-0.189086
-0.167541
0.111471
2.09471
2.54639
2.15712
0.855983
0.273291
0.0193622
-0.692722
-1.44644
-1.91784
-1.55008
-0.958307
-0.638742
-0.50517
-0.150434
0.0215209
0.0556725
0.0719923
0.17035
0.393192
0.643292
-1.18034
-1.0898
-0.788149
-0.355966
-0.103293
0.107158
0.587926
1.97168
1.9519
1.06753
0.573777
0.569339
0.591611
0.608817
0.619264
0.616528
0.607306
0.586055
0.488911
0.256887
-0.0805276
-0.207013
-0.147881
0.800448
1.78939
1.69362
0.83194
0.234308
0.261565
0.0210793
-0.640906
-1.33617
-1.892
-1.85056
-1.39892
-1.0724
-0.636323
-0.173349
0.014443
0.072293
0.110612
0.215357
0.428067
0.66197
-1.31583
-1.14837
-0.874536
-0.535918
-0.24006
0.124282
1.63744
2.04647
2.08212
1.05561
0.507456
0.523564
0.555524
0.577823
0.593256
0.597497
0.59183
0.575023
0.497922
0.236225
-0.0363686
-0.236854
-0.0491191
0.445881
0.597982
0.416991
0.154624
0.148102
0.20706
-0.0388015
-0.607235
-1.2658
-1.76057
-1.9082
-1.61966
-1.16667
-0.624878
-0.199723
0.0126861
0.0872934
0.143901
0.253583
0.452857
0.669559
-1.18073
-1.15762
-0.884763
-0.542673
-0.256846
0.205181
1.5987
2.2221
1.90319
0.928159
0.522685
0.551839
0.581956
0.606576
0.620112
0.622975
0.621505
0.606439
0.516886
0.265996
-0.00670036
-0.237083
-0.195986
-0.0549853
-0.003351
0.0581553
0.107901
0.14793
0.177836
-0.047111
-0.565023
-1.14712
-1.61645
-1.7527
-1.52976
-1.10104
-0.598866
-0.210006
0.0152413
0.104721
0.177599
0.293569
0.479766
0.680676
-1.34839
-1.19802
-0.959366
-0.623435
-0.299803
0.164694
0.794866
1.33377
1.33254
0.867645
0.528397
0.515536
0.555873
0.584491
0.603852
0.610121
0.608892
0.597149
0.519117
0.287455
-0.000492411
-0.210881
-0.29704
-0.173847
-0.072051
0.0198422
0.0797519
0.122279
0.121519
-0.086571
-0.538377
-1.06844
-1.47192
-1.59966
-1.41083
-1.02361
-0.564692
-0.208274
0.0191871
0.119688
0.206025
0.323688
0.496809
0.679315
-1.26916
-1.21622
-0.993996
-0.651906
-0.308037
0.0407844
0.244647
0.473231
0.970723
0.851816
0.579371
0.545398
0.587831
0.619583
0.636684
0.640498
0.638681
0.621177
0.52803
0.305445
0.0400584
-0.173087
-0.259602
-0.172729
-0.0746928
0.0132731
0.0741202
0.106807
0.0960354
-0.0973912
-0.500898
-0.959499
-1.32884
-1.45235
-1.28663
-0.939571
-0.524024
-0.197955
0.0247591
0.134279
0.230587
0.348978
0.509794
0.672285
-1.44244
-1.24425
-1.06458
-0.717062
-0.370503
-0.10625
0.0182927
0.432401
0.894227
0.694732
0.496099
0.523496
0.570472
0.606989
0.628385
0.632453
0.628852
0.609069
0.524684
0.316745
0.0620216
-0.140717
-0.218669
-0.164086
-0.0759718
0.00706368
0.0633534
0.0860734
0.0607608
-0.121456
-0.480881
-0.889673
-1.19815
-1.30999
-1.16361
-0.853606
-0.481161
-0.185061
0.0281578
0.14415
0.246527
0.363876
0.508759
0.658785
-1.43267
-1.2698
-1.09158
-0.757512
-0.443239
-0.210294
-0.0468658
0.831139
1.00669
0.603441
0.483477
0.550003
0.604946
0.643257
0.660692
0.658925
0.648259
0.619694
0.5251
0.329563
0.0978819
-0.0865585
-0.171618
-0.140737
-0.0648924
0.00783084
0.0552411
0.0717703
0.038336
-0.131715
-0.447908
-0.805643
-1.07588
-1.17356
-1.04449
-0.769929
-0.4399
-0.172183
0.0298696
0.149982
0.25498
0.371386
0.502568
0.642815
-1.45612
-1.32503
-1.14961
-0.835093
-0.519253
-0.312989
0.0874254
1.35189
0.913984
0.465599
0.457648
0.534537
0.597534
0.641839
0.659059
0.653359
0.63798
0.605029
0.505592
0.332988
0.116518
-0.0542687
-0.129305
-0.113614
-0.0509942
0.0109661
0.0486803
0.0576797
0.0146363
-0.14399
-0.424056
-0.733026
-0.963908
-1.04734
-0.934973
-0.693621
-0.403304
-0.161499
0.0286779
0.149856
0.256847
0.369931
0.494864
0.624754
-1.47342
-1.32509
-1.13414
-0.911489
-0.601111
-0.385017
0.917467
1.41617
0.800713
0.392331
0.474898
0.560746
0.630081
0.674887
0.684387
0.669725
0.645861
0.6025
0.502512
0.343131
0.148792
-0.00929058
-0.0874991
-0.0835068
-0.0354311
0.0146703
0.0424094
0.0433481
-0.0065821
-0.153888
-0.400026
-0.666683
-0.866525
-0.934317
-0.83695
-0.626416
-0.37159
-0.153039
0.0260667
0.147244
0.255205
0.366311
0.486001
0.607905
-1.5075
-1.34301
-1.18673
-0.995279
-0.71171
-0.0588943
1.62255
1.3233
0.489335
0.350158
0.458756
0.553912
0.63233
0.677421
0.683554
0.664511
0.635282
0.589094
0.493106
0.342961
0.165553
0.0241511
-0.0508521
-0.0550264
-0.0207807
0.0173645
0.0352772
0.0284197
-0.0263498
-0.162558
-0.377925
-0.608266
-0.781027
-0.836306
-0.752745
-0.568524
-0.344002
-0.14585
0.0221014
0.143781
0.251865
0.361227
0.475984
0.591284
-1.45976
-1.33913
-1.23967
-1.05344
-0.675741
1.20716
1.73063
0.94586
0.28512
0.358912
0.475101
0.579129
0.661411
0.700897
0.696862
0.669533
0.633292
0.580256
0.486284
0.349279
0.186877
0.0576689
-0.0180353
-0.0301409
-0.00843314
0.0182488
0.0271136
0.0135446
-0.0441874
-0.169846
-0.358658
-0.558033
-0.706237
-0.751767
-0.680046
-0.517189
-0.318978
-0.138028
0.0188966
0.14079
0.247986
0.355775
0.46589
0.574484
-1.4211
-1.37805
-1.28021
-1.00826
0.604831
1.5442
1.45116
0.405838
0.202302
0.343225
0.468434
0.581576
0.666088
0.701293
0.693246
0.662194
0.622348
0.56689
0.475148
0.346346
0.200831
0.0823325
0.00905182
-0.00922653
0.00119661
0.017652
0.0188003
-0.000152887
-0.0592066
-0.174415
-0.341613
-0.513382
-0.640474
-0.677898
-0.615018
-0.471959
-0.295383
-0.129592
0.0176707
0.138247
0.24408
0.349839
0.455386
0.559682
-1.35067
-1.22116
-0.799081
0.503182
1.32819
1.70696
0.643086
0.066537
0.198538
0.348566
0.484524
0.602972
0.683311
0.708712
0.692033
0.656133
0.612172
0.553311
0.46408
0.344058
0.210945
0.101639
0.0302042
0.00731857
0.00876585
0.0165134
0.0112685
-0.0119134
-0.0711427
-0.176706
-0.32424
-0.473318
-0.581921
-0.612923
-0.557302
-0.430756
-0.272538
-0.120489
0.0181531
0.135846
0.240874
0.343885
0.444768
0.544999
-1.30944
-1.11873
0.485762
1.163
1.50255
0.780021
-0.0306539
0.00837246
0.180759
0.340631
0.487066
0.608939
0.684702
0.703926
0.683191
0.644837
0.598469
0.537458
0.450372
0.339141
0.216607
0.117159
0.0476072
0.0209129
0.0150261
0.0154598
0.00498215
-0.0215029
-0.0799444
-0.177007
-0.30693
-0.436703
-0.529692
-0.55512
-0.505354
-0.392861
-0.250527
-0.110529
0.0194829
0.133612
0.237684
0.337975
0.434835
0.52932
-1.24909
-1.1806
-0.406344
0.574048
0.512217
-0.126059
-0.194841
-0.0105041
0.173647
0.346324
0.500167
0.619576
0.685551
0.695871
0.670873
0.630721
0.582301
0.519785
0.435804
0.332463
0.220581
0.128464
0.0627542
0.0322805
0.0204546
0.0147798
-6.25255e-06
-0.0290545
-0.086048
-0.175119
-0.289953
-0.403099
-0.482737
-0.503464
-0.458385
-0.357959
-0.22938
-0.100021
0.0220784
0.132016
0.234034
0.331877
0.425403
0.513959
-1.22472
-1.25731
-1.04332
-0.636064
-0.507422
-0.416408
-0.224157
-0.0312063
0.164319
0.348085
0.506466
0.621311
0.678499
0.682224
0.654605
0.613403
0.563677
0.501202
0.421206
0.324839
0.222962
0.137458
0.0750238
0.041904
0.0252813
0.0144987
-0.00380673
-0.0347874
-0.089908
-0.171593
-0.273346
-0.372162
-0.440464
-0.456986
-0.415823
-0.325737
-0.209146
-0.0894734
0.0255615
0.131378
0.230136
0.325428
0.415577
0.500091
-1.18564
-1.21311
-1.10555
-0.905683
-0.6656
-0.450994
-0.245032
-0.0417737
0.164388
0.354897
0.51254
0.618285
0.665481
0.663617
0.634519
0.593149
0.5436
0.482735
0.406664
0.31748
0.224074
0.144501
0.0849909
0.050024
0.0295892
0.014583
-0.0065607
-0.0389269
-0.0919099
-0.166825
-0.257153
-0.343594
-0.402082
-0.415047
-0.377296
-0.295988
-0.18978
-0.0789813
0.0294924
0.131145
0.226678
0.319222
0.404823
0.487746
-1.15303
-1.17109
-1.08887
-0.912578
-0.68793
-0.468011
-0.25954
-0.0471071
0.166347
0.360194
0.513502
0.609022
0.646782
0.640722
0.611568
0.571477
0.523416
0.464575
0.392656
0.310117
0.224148
0.149903
0.0930694
0.0568579
0.0334293
0.0149777
-0.00840916
-0.0416702
-0.0923773
-0.161099
-0.241448
-0.317179
-0.36727
-0.377104
-0.342179
-0.268517
-0.171394
-0.0686058
0.0337053
0.13117
0.223392
0.312944
0.395111
0.475443
-1.11354
-1.12886
-1.06466
-0.907923
-0.69471
-0.475197
-0.262634
-0.0450348
0.172302
0.364906
0.509404
0.593475
0.622851
0.614696
0.587183
0.549368
0.503215
0.446874
0.379398
0.302736
0.223376
0.153923
0.099551
0.0625833
0.036848
0.0156392
-0.00948796
-0.0432276
-0.091591
-0.154646
-0.226248
-0.292658
-0.335488
-0.342691
-0.310228
-0.243125
-0.154003
-0.0584582
0.0381363
0.131387
0.22036
0.306277
0.386572
0.462847
-1.08137
-1.0905
-1.03705
-0.893272
-0.689569
-0.472371
-0.256933
-0.0378205
0.17972
0.366673
0.499612
0.572059
0.595152
0.587256
0.56244
0.527263
0.483354
0.430027
0.366631
0.295327
0.221879
0.156749
0.10468
0.0673556
0.0398938
0.0165171
-0.00991017
-0.0437799
-0.0897839
-0.147653
-0.211594
-0.269877
-0.306503
-0.311377
-0.281011
-0.219634
-0.137562
-0.0486188
0.0426762
0.131765
0.217537
0.299841
0.378133
0.450493
-1.04279
-1.04913
-1.00311
-0.870009
-0.674877
-0.460536
-0.243542
-0.0263971
0.187543
0.364358
0.483944
0.545832
0.565856
0.559873
0.538181
0.505512
0.464313
0.41388
0.354349
0.287909
0.219778
0.158566
0.108671
0.0713029
0.0426036
0.0175642
-0.00977896
-0.0434852
-0.0871553
-0.140292
-0.197502
-0.248671
-0.279951
-0.282881
-0.254308
-0.197921
-0.122078
-0.0391249
0.0471983
0.132223
0.214947
0.293761
0.369392
0.438872
-1.00705
-1.00862
-0.965777
-0.838594
-0.650521
-0.441003
-0.224285
-0.0114034
0.193341
0.357067
0.462866
0.517049
0.536599
0.533149
0.514493
0.484606
0.445895
0.398286
0.342459
0.28048
0.21716
0.159521
0.11169
0.074536
0.0450066
0.0187432
-0.00919459
-0.0424901
-0.0838805
-0.132694
-0.183978
-0.228905
-0.255578
-0.256814
-0.229843
-0.177809
-0.107515
-0.0299926
0.0516527
0.132689
0.212306
0.288196
0.360638
0.427793
-0.965692
-0.964011
-0.921158
-0.800408
-0.619407
-0.414482
-0.20232
0.00439658
0.19632
0.344366
0.437862
0.487776
0.50819
0.507327
0.491452
0.464264
0.428059
0.383271
0.330935
0.273051
0.214091
0.15977
0.113879
0.0771322
0.0471352
0.0200222
-0.00824438
-0.040917
-0.0801005
-0.124965
-0.171015
-0.210496
-0.233191
-0.232965
-0.207396
-0.159192
-0.0938549
-0.0212759
0.0559922
0.133221
0.209528
0.282891
0.35226
0.417037
-0.921967
-0.919149
-0.872938
-0.754621
-0.581414
-0.383696
-0.178929
0.0179945
0.195099
0.327012
0.4112
0.459289
0.480974
0.482467
0.469178
0.444522
0.410802
0.368774
0.319747
0.265645
0.210623
0.159407
0.115426
0.0792042
0.0489583
0.0213676
-0.00700003
-0.0388836
-0.0759362
-0.117201
-0.158604
-0.193325
-0.212568
-0.211116
-0.186784
-0.141958
-0.0810583
-0.0129825
0.0601748
0.133784
0.206871
0.27758
0.344236
0.40656
-0.877778
-0.872165
-0.822598
-0.708404
-0.540816
-0.349892
-0.15467
0.0286026
0.18831
0.306357
0.384816
0.432147
0.455039
0.458597
0.447707
0.425432
0.394108
0.35476
0.308862
0.258271
0.206845
0.158501
0.116337
0.0808368
0.0505911
0.0227563
-0.00550564
-0.0365045
-0.0714985
-0.109482
-0.146758
-0.17729
-0.193598
-0.191039
-0.16782
-0.125994
-0.0690887
-0.00512931
0.0641708
0.134358
0.204278
0.272336
0.336462
0.396382
-0.828504
-0.818429
-0.764946
-0.653199
-0.497143
-0.317462
-0.135033
0.0326826
0.176819
0.285066
0.359715
0.406474
0.430351
0.435716
0.427004
0.406972
0.377964
0.341202
0.298266
0.250942
0.202812
0.157136
0.116735
0.0820465
0.0520081
0.0241595
-0.00381067
-0.0338551
-0.0668781
-0.101864
-0.135462
-0.162282
-0.176062
-0.172607
-0.150376
-0.111217
-0.0579138
0.00227273
0.0679561
0.134922
0.201747
0.26717
0.328867
0.38651
-0.778942
-0.764352
-0.708535
-0.602076
-0.453587
-0.28458
-0.118811
0.0339451
0.163888
0.264554
0.336152
0.382258
0.406875
0.413812
0.407094
0.38926
0.362358
0.328088
0.287947
0.243666
0.198565
0.155386
0.116687
0.0829027
0.0532336
0.0255582
-0.00197854
-0.0310012
-0.062144
-0.094396
-0.124717
-0.148287
-0.159818
-0.155629
-0.134311
-0.0975414
-0.0475041
0.00922236
0.0715087
0.135463
0.199267
0.262079
0.321437
0.376928
-0.728905
-0.711487
-0.654454
-0.552172
-0.412344
-0.257394
-0.107727
0.0315328
0.150721
0.245287
0.314125
0.35945
0.384586
0.392877
0.387872
0.3721
0.347387
0.315393
0.277889
0.23645
0.194144
0.153311
0.116261
0.0834439
0.0542766
0.026934
-4.79967e-05
-0.0280081
-0.0573688
-0.0871202
-0.114499
-0.135254
-0.144796
-0.139987
-0.119508
-0.0848855
-0.0378195
0.0157248
0.0747978
0.135984
0.196792
0.25708
0.314179
0.36763
-0.680335
-0.65991
-0.602553
-0.504918
-0.376929
-0.237426
-0.100592
0.0271608
0.138006
0.227381
0.293551
0.337978
0.363443
0.372888
0.369496
0.35548
0.332831
0.303104
0.268092
0.229312
0.189593
0.150965
0.115513
0.083709
0.0551504
0.0282717
0.00194412
-0.0249293
-0.0525963
-0.0800569
-0.104801
-0.123081
-0.130902
-0.12555
-0.105862
-0.0731846
-0.0288261
0.021785
0.0778019
0.136311
0.194462
0.252179
0.307064
0.358601
-0.632619
-0.609959
-0.554116
-0.46326
-0.348775
-0.221381
-0.0959531
0.0224953
0.126179
0.210832
0.274367
0.317778
0.343395
0.353806
0.351832
0.339575
0.318886
0.291214
0.25855
0.222252
0.184927
0.148383
0.114482
0.0837329
0.0558665
0.0295629
0.00396864
-0.0218085
-0.0478708
-0.0732209
-0.0956176
-0.111672
-0.118028
-0.112258
-0.0933001
-0.0623843
-0.0204974
0.0274097
0.0805813
0.136375
0.192198
0.247408
0.300122
0.3498
-0.588184
-0.564711
-0.511893
-0.428982
-0.325214
-0.207671
-0.0923848
0.0179933
0.115337
0.195517
0.256451