/*--------------------------------*- C++ -*----------------------------------*\
| =========                 |                                                 |
| \\      /  F ield         | OpenFOAM: The Open Source CFD Toolbox           |
|  \\    /   O peration     | Version:  v1912                                 |
|   \\  /    A nd           | Website:  www.openfoam.com                      |
|    \\/     M anipulation  |                                                 |
\*---------------------------------------------------------------------------*/
FoamFile
{
    version     2.0;
    format      ascii;
    class       surfaceScalarField;
    location    "80";
    object      alphaPhi0.water;
}
// * * * * * * * * * * * * * * * * * * * * * * * * * * * * * * * * * * * * * //

dimensions      [0 3 -1 0 0 0 0];
oriented        oriented;


internalField   nonuniform List<scalar> 
28285
(
0.123935
-0.00320302
0.124925
-0.000990726
0.123735
0.00118997
0.120232
0.00350319
0.114275
0.0059575
0.105918
0.00835696
0.095248
0.0106696
0.0823988
0.0128492
0.0676055
0.0147933
0.0511854
0.0164201
0.0334929
0.0176925
0.0149188
0.0185741
-0.00406947
0.0189883
-0.0229224
0.0188529
-0.0410452
0.0181228
-0.0578761
0.016831
-0.072915
0.0150389
-0.0857516
0.0128367
-0.0960984
0.0103468
-0.103835
0.00773684
-0.108945
0.0051102
-0.111565
0.00261974
-0.111827
0.000261542
-0.110001
-0.001826
-0.106486
-0.003515
-0.101498
-0.004988
-0.0953029
-0.00619484
-0.0880917
-0.0072112
-0.080067
-0.00802467
-0.0713107
-0.00875637
-0.0619839
-0.00932677
-0.0520491
-0.00993481
-0.0416926
-0.0103564
-0.0307905
-0.0109022
-0.019591
-0.0111994
-0.00802896
-0.0115621
0.00365139
-0.0116803
0.0153324
-0.011681
0.0267706
-0.0114382
0.0377305
-0.0109599
0.047919
-0.0101885
0.0570751
-0.00915616
0.0649143
-0.00783919
0.0711942
-0.00627987
0.0756908
-0.00449664
0.0782469
-0.00255601
0.0787289
-0.000481998
0.0771737
0.00155513
0.0734995
0.00367423
0.0677746
0.00572485
0.060111
0.00766368
0.0508477
0.00926331
0.0401168
0.0107309
0.0284117
0.011705
0.0159337
0.0124781
0.00314553
0.0127881
-0.00963438
0.0127799
-0.0220413
0.0124069
-0.0337238
0.0116825
-0.0443552
0.0106314
-0.0536324
0.0092772
-0.0612707
0.00763824
-0.0670238
0.00575314
-0.0707015
0.00367768
-0.0721081
0.00140663
-0.071071
-0.00103714
-0.0676453
-0.00342571
-0.0619266
-0.00571867
-0.0541143
-0.00781228
-0.0445242
-0.00959017
-0.0335904
-0.0109337
-0.0218144
-0.011776
-0.00978334
-0.012031
0.00194337
-0.0117267
0.0127847
-0.0108414
0.0223068
-0.0095221
0.0301789
-0.00787209
0.0362475
-0.00606856
0.0405445
-0.00429696
0.0432218
-0.00267729
0.0445482
-0.00132645
0.0448454
-0.000297176
0.0444401
0.000405278
0.0437306
0.000709532
0.0428421
0.000888419
0.000706357
0.0421358
0.124219
-0.00644712
0.125246
-0.00201716
0.12408
0.00235598
0.120598
0.00698466
0.114652
0.011904
0.106294
0.0167153
0.095611
0.0213523
0.0827289
0.0257313
0.0678903
0.0296318
0.0514138
0.0328966
0.0336555
0.0354509
0.015009
0.0372206
-0.00406063
0.0380579
-0.0229993
0.0377916
-0.0412045
0.036328
-0.0581115
0.0337379
-0.0732152
0.0301426
-0.0861004
0.0257218
-0.0964738
0.0207202
-0.104218
0.0154805
-0.109316
0.0102082
-0.111904
0.00520852
-0.112126
0.000483229
-0.110258
-0.00369424
-0.106701
-0.00707155
-0.101675
-0.0100138
-0.095447
-0.0124232
-0.0882087
-0.0144495
-0.0801638
-0.0160695
-0.071393
-0.0175272
-0.0620572
-0.0186626
-0.0521156
-0.0198764
-0.041754
-0.0207181
-0.0308428
-0.0218134
-0.0196303
-0.0224119
-0.0080498
-0.0231426
0.00365503
-0.0233852
0.0153657
-0.0233916
0.0268388
-0.0229113
0.0378371
-0.0219582
0.0480646
-0.020416
0.0572591
-0.0183506
0.0651357
-0.0157159
0.0714468
-0.0125909
0.0759681
-0.00901793
0.0785428
-0.0051307
0.0790495
-0.000988748
0.077484
0.00312066
0.0737985
0.00735979
0.0680523
0.011471
0.0603588
0.0153572
0.0510569
0.0185652
0.040281
0.0215068
0.0285268
0.0234593
0.0159969
0.0250079
0.003156
0.025629
-0.00967628
0.0256122
-0.0221349
0.0248656
-0.0338662
0.0234138
-0.0445439
0.0213092
-0.0538638
0.0185971
-0.0615392
0.0153137
-0.0673233
0.0115372
-0.0710239
0.00737829
-0.072445
0.00282775
-0.0714102
-0.00207201
-0.0679725
-0.00686341
-0.0622261
-0.0114651
-0.0543696
-0.0156687
-0.0447181
-0.0192417
-0.0337097
-0.0219421
-0.0218507
-0.0236351
-0.00973879
-0.0241429
0.00206181
-0.0235273
0.0129666
-0.0217461
0.0225343
-0.0190898
0.0304285
-0.0157663
0.0364929
-0.0121329
0.0407645
-0.0085686
0.0434175
-0.00533029
0.0447604
-0.0026694
0.0451516
-0.000688286
0.0449758
0.000581034
0.0444825
0.00120288
0.0436603
0.00171061
0.0022721
0.0420945
0.124874
-0.00977309
0.125945
-0.00308852
0.124792
0.00350919
0.121317
0.0104594
0.115352
0.0178692
0.106952
0.0251155
0.0962208
0.032083
0.0832826
0.0386695
0.0683564
0.044558
0.0517754
0.0494777
0.0339004
0.0533258
0.0151253
0.0559957
-0.00408863
0.0572718
-0.0231849
0.0568879
-0.0415511
0.0546942
-0.0586075
0.0507943
-0.0738331
0.0453683
-0.0868043
0.038693
-0.0972191
0.031135
-0.104968
0.0232292
-0.110037
0.0152776
-0.11256
0.00773112
-0.112707
0.000630494
-0.110756
-0.0056448
-0.107119
-0.0107089
-0.10202
-0.015113
-0.0957267
-0.0187164
-0.0884357
-0.0217406
-0.0803518
-0.0241534
-0.0715528
-0.0263263
-0.0621993
-0.028016
-0.0522442
-0.0298315
-0.0418708
-0.0310915
-0.0309398
-0.0327443
-0.019703
-0.0336487
-0.00808566
-0.03476
0.00366937
-0.0351402
0.01544
-0.0351622
0.0269831
-0.0344545
0.0380576
-0.0330326
0.0483642
-0.0307227
0.0576374
-0.0276239
0.0655842
-0.0236627
0.0719586
-0.0189653
0.0765296
-0.0135889
0.0791367
-0.00773783
0.0796329
-0.00148492
0.0780796
0.00467393
0.0743779
0.0110615
0.0685898
0.0172591
0.0608341
0.0231129
0.0514551
0.0279442
0.0405873
0.0323746
0.0287355
0.035311
0.0161027
0.0376408
0.00315838
0.0385733
-0.00977567
0.0385462
-0.0223342
0.0374241
-0.03416
0.0352396
-0.0449286
0.0320778
-0.0543318
0.0280002
-0.062079
0.0230609
-0.067922
0.0173803
-0.0716668
0.0111231
-0.0731205
0.00428141
-0.0720869
-0.00310558
-0.0686225
-0.0103278
-0.0628186
-0.0172689
-0.0548726
-0.0236148
-0.0451006
-0.0290136
-0.0339493
-0.0330934
-0.0219288
-0.0356557
-0.00965149
-0.0364202
0.00230424
-0.035483
0.0133388
-0.0327807
0.0229993
-0.0287503
0.0309398
-0.0237068
0.0370018
-0.018195
0.0412282
-0.012795
0.0437957
-0.00789776
0.0450242
-0.00389796
0.0452942
-0.000958246
0.0449449
0.000930376
0.0442589
0.00188883
0.0434835
0.00248599
0.0029679
0.0427877
0.125802
-0.0132127
0.126967
-0.00425297
0.12586
0.0046157
0.122419
0.0139009
0.116445
0.023843
0.108
0.0335608
0.0971879
0.0428948
0.0841211
0.0517363
0.069062
0.0596172
0.0523291
0.0662106
0.0342762
0.0713788
0.0153011
0.0749708
-0.00413657
0.0767095
-0.0234771
0.0762284
-0.0420909
0.0733079
-0.0593699
0.0680734
-0.074778
0.0607764
-0.0878789
0.0517938
-0.0983573
0.0416134
-0.106113
0.0309851
-0.111141
0.0203051
-0.113553
0.0101433
-0.11359
0.000667315
-0.111516
-0.00771816
-0.107757
-0.0144682
-0.102547
-0.0203232
-0.0961555
-0.0251078
-0.088785
-0.0291111
-0.0806418
-0.0322965
-0.0718015
-0.0351666
-0.062422
-0.0373955
-0.0524472
-0.0398063
-0.0420575
-0.0414811
-0.0311006
-0.0437012
-0.0198244
-0.044925
-0.00815174
-0.0464326
0.00367825
-0.0469702
0.0155385
-0.0470225
0.0271878
-0.0461038
0.0383793
-0.0442241
0.0488049
-0.0411482
0.0581944
-0.0370134
0.0662544
-0.0317228
0.0727233
-0.0254341
0.0773682
-0.0182339
0.0800302
-0.0103998
0.0805752
-0.00202987
0.0789971
0.00625196
0.0752607
0.0147979
0.0694055
0.0231143
0.0615534
0.030965
0.0520543
0.0374434
0.0410441
0.0433848
0.0290432
0.0473119
0.0162521
0.0504318
0.00314908
0.0516764
-0.00993565
0.051631
-0.0226444
0.0501328
-0.0346116
0.0472068
-0.0455148
0.042981
-0.0550418
0.0375272
-0.062897
0.0309161
-0.0688299
0.0233132
-0.0726416
0.0149348
-0.0741411
0.00578093
-0.0731135
-0.00413321
-0.0696132
-0.0138281
-0.0637265
-0.0231556
-0.055647
-0.0316943
-0.0456927
-0.0389679
-0.0343174
-0.0444687
-0.0220436
-0.0479295
-0.00951546
-0.0489483
0.00267181
-0.0476703
0.0139004
-0.0440093
0.0237007
-0.0385506
0.0317107
-0.0317167
0.0377692
-0.0242535
0.0419285
-0.0169543
0.0443856
-0.0103548
0.0454841
-0.00499649
0.0456183
-0.00109247
0.0451768
0.00137191
0.0444744
0.00259119
0.0437278
0.00323265
0.00378697
0.0429087
0.127079
-0.0168109
0.128343
-0.00551666
0.127275
0.00568404
0.123859
0.0173164
0.11786
0.0298417
0.109347
0.0420741
0.0984341
0.0538078
0.0852268
0.0649436
0.0699953
0.0748487
0.0530605
0.0831454
0.034776
0.0896632
0.015537
0.0942098
-0.00419365
0.0964401
-0.023856
0.0958908
-0.0428014
0.0922533
-0.0603831
0.085655
-0.0760393
0.0764326
-0.0893167
0.0650712
-0.0998816
0.0521783
-0.107644
0.0387479
-0.112618
0.0252786
-0.114869
0.0123949
-0.11477
0.000568123
-0.112527
-0.00996117
-0.108604
-0.0183917
-0.103245
-0.025682
-0.0967215
-0.0316313
-0.0892441
-0.0365885
-0.081022
-0.0405186
-0.0721261
-0.0440625
-0.062712
-0.0468097
-0.0527121
-0.0498062
-0.0423014
-0.0518918
-0.031311
-0.0546916
-0.0199838
-0.0562522
-0.00823973
-0.0581766
0.00369191
-0.0589018
0.0156741
-0.0590046
0.027466
-0.0578957
0.038813
-0.0555712
0.0493988
-0.051734
0.0589478
-0.0465624
0.0671526
-0.0399276
0.0737484
-0.0320299
0.0784947
-0.0229801
0.0812258
-0.013131
0.08179
-0.00259405
0.0802187
0.00782326
0.0764442
0.0185723
0.0705017
0.0290568
0.0625216
0.0389451
0.0528622
0.0471028
0.0416624
0.0545845
0.0294604
0.0595139
0.0164578
0.0634345
0.00314482
0.0649893
-0.0101447
0.0649205
-0.0230536
0.0630416
-0.0352087
0.0593619
-0.0462918
0.0540642
-0.0559857
0.0472211
-0.0639868
0.0389172
-0.0700418
0.0293682
-0.0739409
0.0188339
-0.0755065
0.00734653
-0.0744836
-0.00515616
-0.0709312
-0.0173805
-0.0649307
-0.0291561
-0.0566722
-0.0399527
-0.0464722
-0.0491679
-0.0347998
-0.0561411
-0.0221937
-0.0605356
-0.0093321
-0.06181
0.00316715
-0.0601696
0.0146593
-0.0555015
0.0246487
-0.0485401
0.0327531
-0.0398211
0.0388034
-0.0303038
0.0428672
-0.0210181
0.0451632
-0.0126508
0.0460551
-0.00588839
0.0459893
-0.0010267
0.0453503
0.00201085
0.0445024
0.0034391
0.0437262
0.00400887
0.0043645
0.0431487
0.128662
-0.0206029
0.130074
-0.00692883
0.129068
0.00669033
0.125692
0.0206916
0.119663
0.0358707
0.111058
0.0506798
0.100001
0.064864
0.0866111
0.0783339
0.0711621
0.0902977
0.0539765
0.100331
0.0354032
0.108236
0.0158342
0.113779
-0.00426599
0.11654
-0.0243338
0.115959
-0.0436997
0.111619
-0.0616677
0.103623
-0.0776394
0.0924042
-0.0911398
0.0785716
-0.101815
0.0628531
-0.109583
0.0465165
-0.114481
0.030176
-0.116521
0.0144355
-0.116236
0.000283436
-0.113791
-0.0124065
-0.10966
-0.0225228
-0.104113
-0.0312288
-0.0974238
-0.0383207
-0.089813
-0.0441992
-0.0814929
-0.0488387
-0.0725295
-0.0530259
-0.0630752
-0.056264
-0.0530486
-0.0598328
-0.042614
-0.0623264
-0.0315849
-0.0657207
-0.020195
-0.067642
-0.00836211
-0.0700096
0.00369763
-0.0709616
0.0158322
-0.0711392
0.0278052
-0.0698688
0.03935
-0.0671159
0.0501368
-0.0625208
0.0598838
-0.0563094
0.0682765
-0.0483203
0.075033
-0.0387865
0.079906
-0.0278531
0.0827271
-0.015952
0.0833361
-0.00320306
0.0817529
0.00940648
0.0779273
0.0223979
0.0718751
0.035109
0.0637332
0.047087
0.0538691
0.0569668
0.0424298
0.0660239
0.0299746
0.0719692
0.0167073
0.0767018
0.00312934
0.0785673
-0.0104148
0.0784647
-0.0235756
0.0762024
-0.0359664
0.0717527
-0.0472744
0.0653722
-0.0571769
0.0571236
-0.0653622
0.0471024
-0.0715712
0.0355773
-0.0755869
0.0228495
-0.0772343
0.00899399
-0.0762234
-0.00616711
-0.0726132
-0.0209907
-0.0664752
-0.0352942
-0.0579923
-0.0484356
-0.0474834
-0.0596768
-0.0354333
-0.0681912
-0.0223953
-0.0735736
-0.00909929
-0.075106
0.00380155
-0.0730704
0.015629
-0.0673289
0.0258583
-0.0587694
0.0340823
-0.048045
0.0401209
-0.0363424
0.0440588
-0.0249561
0.0461421
-0.014734
0.0467804
-0.00652676
0.046459
-0.000705247
0.0455936
0.00287619
0.0446174
0.00441535
0.0438042
0.00482203
0.00493079
0.0432379
0.130593
-0.0246344
0.132168
-0.00850348
0.131224
0.00763399
0.12789
0.0240258
0.121822
0.0419386
0.113107
0.0593949
0.101883
0.0760883
0.0882759
0.0919411
0.0725656
0.106008
0.0550817
0.117815
0.0361668
0.127151
0.0162062
0.13374
-0.0043425
0.137089
-0.0249024
0.136519
-0.0447805
0.131497
-0.0632239
0.122066
-0.0795844
0.108765
-0.0933598
0.092347
-0.10417
0.0736635
-0.11194
0.0542866
-0.116737
0.0349725
-0.11852
0.016219
-0.118011
-0.00022548
-0.11531
-0.0151082
-0.110924
-0.0269088
-0.105148
-0.0370049
-0.0982555
-0.0452128
-0.0904822
-0.0519725
-0.0820432
-0.0572777
-0.073001
-0.0620681
-0.0635008
-0.0657642
-0.053446
-0.0698876
-0.0429861
-0.0727863
-0.0319159
-0.0767909
-0.0204521
-0.0791058
-0.0085128
-0.0819489
0.0036995
-0.0831739
0.0160198
-0.0834595
0.0282126
-0.0820615
0.0399967
-0.0789
0.0510292
-0.0735533
0.0610181
-0.0662983
0.0696348
-0.056937
0.0765872
-0.0457389
0.0816153
-0.0328812
0.084545
-0.0188818
0.0852059
-0.00386389
0.0836137
0.0109986
0.0797279
0.0262838
0.0735432
0.0412937
0.0652049
0.0554254
0.0550932
0.0670785
0.0433647
0.0777523
0.0306014
0.0847325
0.0170126
0.0902906
0.00311417
0.0924657
-0.0107361
0.092315
-0.0241972
0.0896635
-0.0368704
0.0844259
-0.0484509
0.0769526
-0.0586047
0.0672774
-0.0670112
0.0555089
-0.0734121
0.0419782
-0.0775666
0.027004
-0.0793192
0.0107466
-0.0783212
-0.00716516
-0.0746377
-0.0246741
-0.0683311
-0.0416008
-0.0595786
-0.0571881
-0.0486974
-0.0705581
-0.0361851
-0.0807034
-0.0226199
-0.0871387
-0.00879758
-0.0889284
0.00458923
-0.0864572
0.0168247
-0.0795643
0.0273446
-0.0692894
0.0357162
-0.0564166
0.0417356
-0.0423618
0.0455126
-0.0287331
0.0473303
-0.0165517
0.0476577
-0.0068542
0.0470008
-4.82773e-05
0.0458483
0.00402867
0.0446778
0.00558589
0.0437767
0.0057231
0.00543309
0.0432744
0.132858
-0.0289459
0.13464
-0.010285
0.133776
0.00849741
0.13049
0.0273123
0.124371
0.0480574
0.115518
0.0682483
0.104087
0.0875193
0.0902202
0.105808
0.0742033
0.122025
0.0563725
0.135646
0.0370616
0.146462
0.0166454
0.154156
-0.00442527
0.15816
-0.0255648
0.157658
-0.0460535
0.151986
-0.0650661
0.141079
-0.0818907
0.125589
-0.0959935
0.10645
-0.106967
0.0846369
-0.114736
0.0620554
-0.119395
0.0396317
-0.120862
0.0176865
-0.120073
-0.00101451
-0.117081
-0.0181005
-0.112391
-0.0315989
-0.106343
-0.043053
-0.0992121
-0.0523437
-0.0912483
-0.0599363
-0.0826708
-0.0658552
-0.0735407
-0.0711983
-0.06399
-0.0753149
-0.0539093
-0.0799682
-0.0434247
-0.0832709
-0.0323157
-0.0878999
-0.0207675
-0.0906541
-0.00870619
-0.0940102
0.00368742
-0.0955675
0.0162273
-0.0959993
0.0286813
-0.0945155
0.0407486
-0.0909674
0.0520716
-0.0848763
0.0623444
-0.0765711
0.0712282
-0.0658208
0.0784119
-0.0529226
0.0836226
-0.0380918
0.0866823
-0.0219415
0.0874054
-0.00458707
0.0858023
0.0126017
0.0818446
0.0302414
0.0755083
0.0476301
0.0669404
0.0639933
0.0565314
0.0774875
0.0444605
0.0898232
0.0313321
0.097861
0.0173673
0.104255
0.00309476
0.106738
-0.0111144
0.106524
-0.0249282
0.103477
-0.0379343
0.0974319
-0.0498369
0.0888553
-0.0602921
0.0777326
-0.0689619
0.0641788
-0.0755856
0.0486018
-0.0799046
0.031323
-0.0817881
0.0126301
-0.0808167
-0.00813656
-0.0770537
-0.0284371
-0.0705543
-0.0481002
-0.0614891
-0.0662533
-0.0501641
-0.0818831
-0.0370939
-0.0937737
-0.0228947
-0.101338
-0.00843552
-0.103388
0.00553901
-0.100432
0.0182647
-0.09229
0.0291291
-0.0801537
0.0376783
-0.0649658
0.0436707
-0.0483543
0.04725
-0.0323124
0.0487415
-0.0180432
0.0486853
-0.00679796
0.0476154
0.00102164
0.0461301
0.00551393
0.0447313
0.00698472
0.0437341
0.00672024
0.00590641
0.0432608
0.135489
-0.0335873
0.137506
-0.0123015
0.136729
0.00927389
0.13349
0.0305512
0.12731
0.0542371
0.118298
0.0772608
0.106631
0.0991867
0.0924699
0.119968
0.0761025
0.138392
0.057878
0.15387
0.0381206
0.16622
0.0171813
0.175095
-0.00449604
0.179837
-0.026316
0.179478
-0.0475213
0.173191
-0.0672102
0.160768
-0.0845851
0.142964
-0.0990721
0.120937
-0.110236
0.0958011
-0.117994
0.0698128
-0.12246
0.0440986
-0.123584
0.0188098
-0.12245
-0.00214844
-0.119115
-0.0214353
-0.11407
-0.0366441
-0.107704
-0.0494191
-0.100295
-0.059752
-0.0921111
-0.0681206
-0.0833724
-0.0745939
-0.0741429
-0.0804278
-0.0645388
-0.084919
-0.0544383
-0.0900688
-0.04393
-0.0937792
-0.0327825
-0.0990473
-0.0211421
-0.102295
-0.00894355
-0.106209
0.00365816
-0.108169
0.0164523
-0.108793
0.0292097
-0.107273
0.0416058
-0.103363
0.0532665
-0.096537
0.0638707
-0.0871753
0.0730606
-0.0750107
0.080515
-0.0603769
0.0859411
-0.043518
0.0891494
-0.0251498
0.0899454
-0.00538304
0.0883278
0.0142193
0.0842917
0.0342776
0.0777811
0.0541407
0.0689425
0.0728319
0.0581909
0.0882391
0.0457269
0.102287
0.0321792
0.111409
0.0177815
0.118653
0.00307342
0.121446
-0.011558
0.121156
-0.0257843
0.117704
-0.0391722
0.11082
-0.051443
0.101126
-0.0622377
0.0885273
-0.0712016
0.0731427
-0.0780885
0.0554888
-0.0825952
0.0358296
-0.0846318
0.0146667
-0.0836955
-0.00907284
-0.0798468
-0.0322858
-0.0731285
-0.0548185
-0.0636934
-0.0756884
-0.0518516
-0.0937248
-0.0381368
-0.107488
-0.023192
-0.116283
-0.00798512
-0.118594
0.00667751
-0.115094
0.0199799
-0.105592
0.0312379
-0.0914117
0.0400005
-0.0737284
0.0459522
-0.054306
0.0492818
-0.0356419
0.0503963
-0.0191577
0.0498557
-0.0062573
0.0482917
0.00258561
0.0464109
0.00739476
0.0447442
0.00865135
0.0436214
0.00784312
0.00635667
0.0431711
0.138484
-0.0386047
0.140771
-0.014588
0.140096
0.00994919
0.136907
0.0337398
0.130654
0.0604901
0.121447
0.0864676
0.109493
0.111141
0.0949796
0.134481
0.078211
0.155161
0.0595458
0.172535
0.0392932
0.186472
0.0177818
0.196606
-0.00456629
0.202185
-0.027153
0.202065
-0.049187
0.195225
-0.0696581
0.181239
-0.087672
0.160978
-0.102607
0.135872
-0.113997
0.107191
-0.121754
0.0775702
-0.125921
0.0482652
-0.126691
0.0195795
-0.125135
-0.00370358
-0.121415
-0.0251556
-0.115963
-0.0420962
-0.109234
-0.0561481
-0.101511
-0.0674752
-0.0930737
-0.0765577
-0.0841499
-0.0835177
-0.0748147
-0.089763
-0.0651498
-0.094584
-0.0550392
-0.100179
-0.0445083
-0.10431
-0.0333294
-0.110226
-0.0215854
-0.114039
-0.00923352
-0.118561
0.00360512
-0.121008
0.0166892
-0.121878
0.0297932
-0.120377
0.0425643
-0.116135
0.0546117
-0.108584
0.0655913
-0.098155
0.0751413
-0.0845606
0.0829024
-0.0681381
0.0885766
-0.0491921
0.0919555
-0.0285288
0.0928439
-0.00627142
0.091216
0.0158472
0.0870811
0.0384124
0.0803757
0.0608461
0.0712433
0.0819643
0.0600993
0.0993831
0.0471862
0.1152
0.0331427
0.125452
0.0182406
0.133555
0.00303756
0.136649
-0.0120704
0.136264
-0.0267581
0.132391
-0.0405774
0.124639
-0.0532649
0.113813
-0.0644509
0.0997133
-0.0737549
0.0824468
-0.0809391
0.0626729
-0.0856614
0.0405519
-0.0878741
0.0168794
-0.0869929
-0.00995405
-0.0830493
-0.0362294
-0.0760836
-0.0617842
-0.0662361
-0.0855359
-0.0538079
-0.106153
-0.0393451
-0.121951
-0.0235343
-0.132093
-0.00745304
-0.134676
0.00801743
-0.130565
0.021996
-0.119571
0.0336915
-0.103107
0.042708
-0.0827449
0.0486044
-0.0602024
0.0516376
-0.0386751
0.0523017
-0.0198219
0.0511459
-0.00510148
0.0490259
0.00470565
0.046698
0.00972264
0.0447032
0.0106461
0.0434262
0.00912009
0.00677916
0.0430037
0.141875
-0.0440531
0.144476
-0.0171886
0.143927
0.0104981
0.140784
0.036882
0.134441
0.0668339
0.125018
0.0958905
0.112754
0.123405
0.0978705
0.149365
0.0806676
0.172364
0.0615204
0.191683
0.0407205
0.207272
0.0185604
0.218766
-0.00457927
0.225325
-0.0280648
0.22555
-0.05106
0.218221
-0.0724595
0.202638
-0.0912231
0.179742
-0.106662
0.151311
-0.118301
0.11883
-0.126056
0.0853251
-0.129757
0.0519666
-0.13024
0.0200621
-0.128169
-0.0057738
-0.123993
-0.029332
-0.118089
-0.0480006
-0.110955
-0.0632815
-0.102882
-0.0755486
-0.0941634
-0.0852761
-0.0850256
-0.0926555
-0.0755765
-0.0992121
-0.0658443
-0.104316
-0.0557397
-0.110284
-0.0451856
-0.114864
-0.0339835
-0.121428
-0.0221304
-0.125892
-0.0096059
-0.131085
0.00349985
-0.134114
0.0169103
-0.135288
0.0304074
-0.133874
0.0436049
-0.129332
0.0560972
-0.121077
0.0675112
-0.109569
0.0774447
-0.0944941
0.0855621
-0.0762555
0.0915214
-0.0551514
0.0951007
-0.0321081
0.0960799
-0.00725062
0.0944293
0.0174978
0.0902078
0.042634
0.083299
0.0677549
0.0738205
0.0914428
0.0622321
0.110971
0.048794
0.128638
0.0341832
0.140063
0.0187072
0.149031
0.00294377
0.152413
-0.0126858
0.151893
-0.0278841
0.14759
-0.0421771
0.138932
-0.0553252
0.126962
-0.0669385
0.111327
-0.0766103
0.0921185
-0.0841404
0.070203
-0.0890986
0.0455102
-0.0914999
0.0192808
-0.0906944
-0.0107596
-0.0866586
-0.0402652
-0.079429
-0.0690137
-0.069125
-0.0958399
-0.056049
-0.119229
-0.0407495
-0.137251
-0.0239326
-0.14891
-0.00682329
-0.151785
0.00956949
-0.146958
0.0243536
-0.134355
0.0365526
-0.115306
0.045847
-0.0920393
0.0516659
-0.0660212
0.0543635
-0.0413727
0.0544128
-0.0198712
0.0525669
-0.00325556
0.0498115
0.00746098
0.0469399
0.0125943
0.0445854
0.0130006
0.0431526
0.0105529
0.00719785
0.042734
0.145669
-0.0499848
0.148613
-0.0201325
0.148192
0.0109188
0.145076
0.0399986
0.138635
0.0732747
0.128947
0.105578
0.116287
0.136066
0.100924
0.164728
0.0831955
0.190092
0.0635037
0.211374
0.0421241
0.228652
0.0192963
0.241594
-0.00463738
0.249258
-0.0290868
0.25
-0.0531494
0.242283
-0.0755686
0.225058
-0.0951821
0.199355
-0.111206
0.167335
-0.123116
0.130739
-0.130893
0.0931014
-0.134035
0.055109
-0.134169
0.0201966
-0.131496
-0.0084474
-0.126806
-0.0340221
-0.120408
-0.0543985
-0.112835
-0.0708544
-0.10439
-0.0839938
-0.0953698
-0.0942959
-0.085992
-0.102033
-0.0764282
-0.108776
-0.066622
-0.114122
-0.0565407
-0.120365
-0.0459706
-0.125434
-0.034754
-0.132645
-0.0227853
-0.13786
-0.0100717
-0.143799
0.00333636
-0.147522
0.0171156
-0.149067
0.0310535
-0.147812
0.0447344
-0.143013
0.0577268
-0.134069
0.0696216
-0.121464
0.0800345
-0.104907
0.0885446
-0.0847656
0.0948358
-0.0614426
0.0986221
-0.0358944
0.099748
-0.00837646
0.0980823
0.0191635
0.0937351
0.0469811
0.0865961
0.0748939
0.0767395
0.101299
0.0646108
0.1231
0.0505985
0.142651
0.0353288
0.155333
0.0192276
0.165132
0.00286508
0.168775
-0.0133521
0.16811
-0.0290946
0.163332
-0.0439089
0.153747
-0.0575662
0.140619
-0.069661
0.123421
-0.0797458
0.102203
-0.0876562
0.0781134
-0.0928895
0.0507435
-0.0954947
0.021886
-0.0948177
-0.0114366
-0.0906731
-0.0444098
-0.0831565
-0.0765302
-0.0723707
-0.106626
-0.0585931
-0.133007
-0.04236
-0.153484
-0.0243991
-0.166871
-0.00609745
-0.170087
0.0113446
-0.1644
0.0270642
-0.150075
0.0398514
-0.128094
0.0494241
-0.101612
0.0551648
-0.071762
0.057454
-0.0436618
0.0567677
-0.019185
0.0541364
-0.000624292
0.0506086
0.0109888
0.0471359
0.016067
0.0443709
0.0157656
0.0427555
0.0121683
0.00762629
0.0423271
0.149896
-0.0564603
0.153235
-0.0234712
0.153016
0.0111381
0.149933
0.0430818
0.143362
0.0798452
0.133369
0.115571
0.120297
0.149138
0.104486
0.180539
0.0862885
0.208289
0.0661127
0.23155
0.0441374
0.250627
0.0205157
0.265216
-0.00440572
0.27418
-0.0300254
0.275619
-0.0553956
0.267653
-0.0790864
0.248748
-0.0997019
0.219971
-0.116348
0.183981
-0.128528
0.14292
-0.136163
0.100736
-0.138806
0.0577521
-0.138433
0.0198239
-0.135069
-0.0118118
-0.129741
-0.03935
-0.122779
-0.0613601
-0.114704
-0.0789295
-0.105847
-0.0928512
-0.096509
-0.103634
-0.0868836
-0.111659
-0.0772182
-0.118441
-0.0673637
-0.123977
-0.0573486
-0.13038
-0.0468003
-0.135983
-0.0356252
-0.14382
-0.0235792
-0.149906
-0.0106896
-0.156688
0.00302217
-0.161233
0.0171941
-0.163239
0.0316132
-0.162231
0.0458274
-0.157227
0.0593985
-0.14764
0.0718834
-0.133949
0.0828101
-0.115834
0.0917899
-0.0937454
0.0984708
-0.0681235
0.102525
-0.0399486
0.103795
-0.0096462
0.102129
0.0208295
0.0977116
0.0513982
0.0903078
0.0822977
0.0799652
0.111642
0.0672428
0.135823
0.052521
0.157373
0.0365695
0.171284
0.0197391
0.181963
0.00266897
0.185845
-0.0141209
0.1849
-0.0304568
0.179668
-0.0458181
0.169108
-0.0599906
0.154791
-0.0725752
0.136006
-0.0830883
0.112716
-0.0914322
0.0864574
-0.0969507
0.0562619
-0.0997489
0.0246842
-0.0992774
-0.0119082
-0.0950348
-0.0486524
-0.0871972
-0.0843678
-0.0758542
-0.117969
-0.0613343
-0.147527
-0.0441398
-0.170678
-0.0249786
-0.186032
-0.00535278
-0.189713
0.0133159
-0.183068
0.0301523
-0.166911
0.0436872
-0.141628
0.0534985
-0.111423
0.0591256
-0.0773891
0.0608607
-0.0453969
0.0593793
-0.0177036
0.0558225
0.00293248
0.0514476
0.0153637
0.0472525
0.0202621
0.044003
0.0190151
0.042198
0.0139733
0.00807332
0.041751
0.154591
-0.0635508
0.158345
-0.0272249
0.158339
0.0111441
0.155198
0.0462225
0.148521
0.086522
0.138208
0.125884
0.124686
0.16266
0.108297
0.196928
0.0894435
0.227143
0.0685029
0.252491
0.0456961
0.273434
0.0212563
0.289656
-0.00467093
0.300107
-0.0314524
0.302401
-0.0579906
0.294191
-0.0828903
0.273648
-0.104588
0.241669
-0.12192
0.201312
-0.13442
0.15542
-0.141444
0.10776
-0.143893
0.0602013
-0.142839
0.0187698
-0.138576
-0.0160751
-0.132514
-0.0454118
-0.124922
-0.0689514
-0.116297
-0.0875548
-0.106983
-0.102165
-0.0973059
-0.113311
-0.0874417
-0.121523
-0.0776627
-0.12822
-0.0677572
-0.133882
-0.057816
-0.140321
-0.0473242
-0.146474
-0.0362362
-0.154908
-0.0241748
-0.161968
-0.0111857
-0.169677
0.00278346
-0.175203
0.0173069
-0.177763
0.0321589
-0.177083
0.0468762
-0.171944
0.0609946
-0.161759
0.0740221
-0.146976
0.0855179
-0.127329
0.0950121
-0.10324
0.102152
-0.0752632
0.106493
-0.0442898
0.107952
-0.011105
0.106308
0.0224729
0.101742
0.0559647
0.0940734
0.0899661
0.0832788
0.122437
0.0699483
0.149153
0.0546125
0.172708
0.0377806
0.188116
0.020282
0.199462
0.00264408
0.203483
-0.0148416
0.202386
-0.0316914
0.196518
-0.0475509
0.184967
-0.0622006
0.169441
-0.0752067
0.149012
-0.0860366
0.123546
-0.0946887
0.0951095
-0.10042
0.0619936
-0.103357
0.0276204
-0.10314
-0.0121252
-0.098943
-0.0528489
-0.0909603
-0.0923505
-0.0792183
-0.129711
-0.0639805
-0.162764
-0.0458013
-0.188858
-0.0255676
-0.206266
-0.00439522
-0.210885
0.0156665
-0.20313
0.0336087
-0.184853
0.0479861
-0.156006
0.0578039
-0.121241
0.0635674
-0.0831526
0.0646253
-0.0464548
0.0622227
-0.0153009
0.0576228
0.00753232
0.0522458
0.0207408
0.047292
0.0252159
0.0435078
0.0227993
0.0414329
0.0160481
0.00854547
0.0409608
0.0559168
-0.0662073
0.0573414
-0.0286495
0.057398
0.0110875
0.0562815
0.0473391
0.0538947
0.0889087
0.0501614
0.129618
0.0452407
0.16758
0.0392854
0.202883
0.0324396
0.233989
0.0248384
0.260092
0.0166233
0.281649
0.00784507
0.298434
-0.001469
0.309421
-0.0111916
0.312124
-0.0210252
0.304025
-0.0302983
0.282921
-0.0382949
0.249665
-0.0446142
0.207631
-0.0490965
0.159903
-0.0513445
0.110008
-0.0521104
0.0609671
-0.0514612
0.0181206
-0.0497376
-0.0177986
-0.0474062
-0.0477433
-0.0445605
-0.0717971
-0.0413752
-0.0907401
-0.0379807
-0.10556
-0.0344877
-0.116804
-0.0309638
-0.125047
-0.0274815
-0.131703
-0.0239795
-0.137384
-0.0204638
-0.143837
-0.0167528
-0.150185
-0.0128288
-0.158832
-0.00853231
-0.166264
-0.00388548
-0.174324
0.00112871
-0.180217
0.00637358
-0.183008
0.0117429
-0.182452
0.017063
-0.177264
0.0221716
-0.166867
0.0268958
-0.1517
0.031076
-0.13151
0.034542
-0.106706
0.0371741
-0.0778953
0.0387804
-0.0458961
0.0393612
-0.0116858
0.0387839
0.0230502
0.0371534
0.0575952
0.0343878
0.0927318
0.0304778
0.126347
0.0255867
0.154044
0.019937
0.178358
0.0138212
0.194232
0.00742533
0.205857
0.000983238
0.209925
-0.00530199
0.208671
-0.0113905
0.202606
-0.0171208
0.190698
-0.0223666
0.174687
-0.0269926
0.153638
-0.0308736
0.127427
-0.0339499
0.0981858
-0.0359827
0.0640263
-0.037069
0.0287067
-0.037006
-0.0121882
-0.0355566
-0.0542983
-0.0327369
-0.0951702
-0.028525
-0.133923
-0.0230234
-0.168266
-0.0164405
-0.19544
-0.00909777
-0.213609
-0.00127584
-0.218707
0.00610433
-0.21051
0.0126644
-0.191413
0.0182345
-0.161576
0.0217865
-0.124793
0.0237155
-0.0850817
0.0239296
-0.0466689
0.0228107
-0.014182
0.0208832
0.00945985
0.0186975
0.0229265
0.0167266
0.0271868
0.0152417
0.0242842
0.0144461
0.0168437
0.0087134
0.0142782
0.056592
-0.0689563
0.0580831
-0.0301406
0.0581766
0.010994
0.0570268
0.0484889
0.0546145
0.091321
0.0508246
0.133407
0.0458232
0.172582
0.0397653
0.208941
0.0327938
0.24096
0.0251418
0.267744
0.01696
0.289831
0.00818545
0.307209
-0.00124978
0.318856
-0.0112812
0.322155
-0.021348
0.314092
-0.0307737
0.292347
-0.0389076
0.257799
-0.0452559
0.21398
-0.0498036
0.16445
-0.0519255
0.11213
-0.0525223
0.0615639
-0.0517228
0.0173211
-0.0498857
-0.0196357
-0.0474572
-0.0501718
-0.0445597
-0.0746946
-0.0413344
-0.0939654
-0.0379061
-0.108988
-0.0343878
-0.120323
-0.0308407
-0.128594
-0.0273494
-0.135194
-0.0238656
-0.140868
-0.0204053
-0.147298
-0.0167327
-0.153858
-0.0128437
-0.162721
-0.00854219
-0.170566
-0.00386695
-0.179
0.00120381
-0.185287
0.00652475
-0.188328
0.0119788
-0.187906
0.0173859
-0.182671
0.0225729
-0.172054
0.0273709
-0.156498
0.0316083
-0.135747
0.035134
-0.110231
0.0378208
-0.0805821
0.0394582
-0.0475335
0.0400485
-0.0122761
0.0394711
0.0236276
0.0378125
0.0592537
0.0349819
0.0955624
0.0309735
0.130355
0.0259851
0.159033
0.0202679
0.184075
0.0140623
0.200437
0.00761137
0.212308
0.00110287
0.216434
-0.00528871
0.215063
-0.0114315
0.208749
-0.0171914
0.196458
-0.0224374
0.179933
-0.0270224
0.158223
-0.0308537
0.131259
-0.0339078
0.10124
-0.0359496
0.0660681
-0.0370625
0.0298196
-0.037
-0.0122506
-0.0355722
-0.0557261
-0.0327612
-0.0979812
-0.0285306
-0.138153
-0.0229362
-0.17386
-0.0164322
-0.201944
-0.0090085
-0.221033
-0.00103667
-0.226679
0.00663962
-0.218187
0.0133421
-0.198116
0.0188829
-0.167117
0.0225681
-0.128478
0.0243956
-0.0869091
0.0245016
-0.0467748
0.0232229
-0.0129034
0.0211198
0.011563
0.018776
0.0252702
0.0166902
0.0292726
0.0151602
0.0258141
0.0143549
0.017649
0.00889294
0.0141754
0.0572936
-0.0717991
0.0588468
-0.0316938
0.0589746
0.0108662
0.0578235
0.04964
0.0553931
0.0937514
0.0515381
0.137262
0.0464347
0.177685
0.040251
0.215125
0.033225
0.247986
0.0256357
0.275333
0.0174415
0.298025
0.00845131
0.316199
-0.00137419
0.328682
-0.01161
0.332391
-0.0217385
0.32422
-0.0313067
0.301915
-0.0396716
0.266162
-0.0461435
0.220414
-0.0505642
0.168656
-0.0524994
0.113495
-0.0528416
0.0612703
-0.0518611
0.0161093
-0.0498128
-0.0217843
-0.0472915
-0.0527801
-0.0443128
-0.0776882
-0.0410473
-0.0972308
-0.0376038
-0.112431
-0.0340816
-0.123845
-0.0305441
-0.132131
-0.0270838
-0.138654
-0.0236044
-0.144347
-0.0201487
-0.150753
-0.0165252
-0.157481
-0.0127064
-0.16654
-0.00844899
-0.174823
-0.00379522
-0.183653
0.00128352
-0.190366
0.00665817
-0.193703
0.0121884
-0.193437
0.01768
-0.188163
0.0229541
-0.177328
0.0278316
-0.161376
0.032136
-0.140051