/*--------------------------------*- C++ -*----------------------------------*\
| =========                 |                                                 |
| \\      /  F ield         | OpenFOAM: The Open Source CFD Toolbox           |
|  \\    /   O peration     | Version:  v1912                                 |
|   \\  /    A nd           | Website:  www.openfoam.com                      |
|    \\/     M anipulation  |                                                 |
\*---------------------------------------------------------------------------*/
FoamFile
{
    version     2.0;
    format      ascii;
    class       volScalarField;
    location    "80";
    object      nut;
}
// * * * * * * * * * * * * * * * * * * * * * * * * * * * * * * * * * * * * * //

dimensions      [0 2 -1 0 0 0 0];


internalField   nonuniform List<scalar> 
14268
(
6.21752e-05
6.22152e-05
6.22502e-05
6.23026e-05
6.23663e-05
6.24149e-05
6.24337e-05
6.24193e-05
6.23833e-05
6.23347e-05
6.2284e-05
6.22445e-05
6.22356e-05
6.22634e-05
6.23226e-05
6.24143e-05
6.253e-05
6.26573e-05
6.27812e-05
6.28811e-05
6.29403e-05
6.29665e-05
6.2969e-05
6.29517e-05
6.29379e-05
6.29217e-05
6.29049e-05
6.28943e-05
6.28865e-05
6.29151e-05
6.29432e-05
6.3003e-05
6.30438e-05
6.31138e-05
6.31686e-05
6.32518e-05
6.33278e-05
6.3429e-05
6.35349e-05
6.36567e-05
6.37936e-05
6.39416e-05
6.40978e-05
6.42581e-05
6.44038e-05
6.45211e-05
6.46003e-05
6.46733e-05
6.47387e-05
6.48126e-05
6.48668e-05
6.4919e-05
6.49559e-05
6.50124e-05
6.50503e-05
6.51138e-05
6.51621e-05
6.52239e-05
6.52823e-05
6.53373e-05
6.53849e-05
6.54153e-05
6.54236e-05
6.54224e-05
6.54075e-05
6.54002e-05
6.54281e-05
6.55019e-05
6.56051e-05
6.57356e-05
6.58865e-05
6.60631e-05
6.62544e-05
6.64559e-05
6.66539e-05
6.68315e-05
6.69912e-05
6.71265e-05
6.72445e-05
6.73695e-05
6.75371e-05
6.77833e-05
6.81292e-05
6.83345e-05
6.85486e-05
6.85965e-05
4.52209e-06
4.60764e-06
4.64624e-06
4.64204e-06
4.58861e-06
4.48456e-06
4.33638e-06
4.15096e-06
3.93802e-06
3.70873e-06
3.47286e-06
3.23925e-06
3.01503e-06
2.80716e-06
2.62271e-06
2.46664e-06
2.33962e-06
2.24101e-06
2.16979e-06
2.12299e-06
2.09579e-06
2.08488e-06
2.09371e-06
2.10671e-06
2.12774e-06
2.15025e-06
2.17641e-06
2.20514e-06
2.23857e-06
2.27439e-06
2.318e-06
2.36023e-06
2.41324e-06
2.45995e-06
2.52125e-06
2.57849e-06
2.64462e-06
2.7128e-06
2.78378e-06
2.8566e-06
2.93178e-06
3.00611e-06
3.07949e-06
3.14874e-06
3.20937e-06
3.25372e-06
3.28127e-06
3.2901e-06
3.2775e-06
3.24196e-06
3.18675e-06
3.0994e-06
3.00427e-06
2.88758e-06
2.77479e-06
2.65415e-06
2.53681e-06
2.42635e-06
2.32326e-06
2.23075e-06
2.15217e-06
2.08706e-06
2.03759e-06
2.00402e-06
1.98547e-06
1.98636e-06
2.0002e-06
2.02642e-06
2.06567e-06
2.11648e-06
2.1789e-06
2.25156e-06
2.33209e-06
2.41678e-06
2.50276e-06
2.58035e-06
2.64889e-06
2.70691e-06
2.75454e-06
2.80189e-06
2.84897e-06
2.89545e-06
2.90308e-06
2.84306e-06
2.70793e-06
2.52998e-06
1.24955e-06
1.26994e-06
1.28033e-06
1.28012e-06
1.26749e-06
1.24206e-06
1.20573e-06
1.15992e-06
1.10687e-06
1.04934e-06
9.89927e-07
9.31046e-07
8.74594e-07
8.22526e-07
7.76932e-07
7.38906e-07
7.08504e-07
6.85405e-07
6.69138e-07
6.58708e-07
6.52808e-07
6.50632e-07
6.52621e-07
6.55531e-07
6.60112e-07
6.65012e-07
6.70669e-07
6.76881e-07
6.84054e-07
6.91807e-07
7.01223e-07
7.10397e-07
7.21777e-07
7.3186e-07
7.44861e-07
7.57041e-07
7.70815e-07
7.85042e-07
7.99653e-07
8.14541e-07
8.29867e-07
8.45072e-07
8.60277e-07
8.74855e-07
8.87844e-07
8.97487e-07
9.03768e-07
9.06038e-07
9.03189e-07
8.94791e-07
8.81479e-07
8.60395e-07
8.37226e-07
8.091e-07
7.81978e-07
7.5318e-07
7.25396e-07
6.99523e-07
6.75598e-07
6.54393e-07
6.36595e-07
6.22026e-07
6.11086e-07
6.03719e-07
5.99638e-07
5.9971e-07
6.02537e-07
6.07991e-07
6.16239e-07
6.26951e-07
6.40138e-07
6.55534e-07
6.72479e-07
6.90154e-07
7.07907e-07
7.23684e-07
7.37509e-07
7.49303e-07
7.58802e-07
7.68038e-07
7.75815e-07
7.81115e-07
7.7883e-07
7.65339e-07
7.43455e-07
7.23831e-07
6.21211e-07
6.29537e-07
6.33746e-07
6.33529e-07
6.28034e-07
6.17053e-07
6.01343e-07
5.81695e-07
5.5918e-07
5.35058e-07
5.10502e-07
4.86569e-07
4.64013e-07
4.43641e-07
4.26235e-07
4.12166e-07
4.01266e-07
3.93243e-07
3.87761e-07
3.84279e-07
3.82324e-07
3.81785e-07
3.82391e-07
3.83438e-07
3.84978e-07
3.86696e-07
3.88663e-07
3.90866e-07
3.93305e-07
3.96083e-07
3.99243e-07
4.02579e-07
4.06412e-07
4.10089e-07
4.14484e-07
4.18854e-07
4.23628e-07
4.28679e-07
4.33795e-07
4.39056e-07
4.4447e-07
4.4988e-07
4.5531e-07
4.60579e-07
4.6527e-07
4.68731e-07
4.70955e-07
4.71686e-07
4.70492e-07
4.67265e-07
4.62151e-07
4.54233e-07
4.45474e-07
4.35181e-07
4.25274e-07
4.15061e-07
4.05286e-07
3.96434e-07
3.88464e-07
3.81597e-07
3.7598e-07
3.7153e-07
3.68289e-07
3.66192e-07
3.65101e-07
3.65223e-07
3.66095e-07
3.67742e-07
3.70227e-07
3.73483e-07
3.77493e-07
3.82226e-07
3.87508e-07
3.93109e-07
3.98785e-07
4.03849e-07
4.08284e-07
4.12075e-07
4.15084e-07
4.17913e-07
4.1988e-07
4.20434e-07
4.18881e-07
4.14082e-07
4.06953e-07
3.98915e-07
4.16006e-07
4.19895e-07
4.21825e-07
4.21614e-07
4.18778e-07
4.13303e-07
4.05586e-07
3.96066e-07
3.85308e-07
3.7396e-07
3.62603e-07
3.51773e-07
3.41786e-07
3.33027e-07
3.25853e-07
3.20386e-07
3.16413e-07
3.13716e-07
3.12042e-07
3.11033e-07
3.10508e-07
3.10573e-07
3.10763e-07
3.113e-07
3.11885e-07
3.12587e-07
3.13377e-07
3.1433e-07
3.15276e-07
3.16497e-07
3.17616e-07
3.19158e-07
3.20459e-07
3.22198e-07
3.23727e-07
3.25614e-07
3.27407e-07
3.2948e-07
3.31513e-07
3.33664e-07
3.35835e-07
3.38067e-07
3.40324e-07
3.42544e-07
3.44518e-07
3.45966e-07
3.46892e-07
3.47202e-07
3.4672e-07
3.4541e-07
3.43363e-07
3.40177e-07
3.36594e-07
3.3261e-07
3.28725e-07
3.24941e-07
3.21331e-07
3.18226e-07
3.15603e-07
3.13465e-07
3.11876e-07
3.1077e-07
3.10079e-07
3.09779e-07
3.09748e-07
3.10052e-07
3.10471e-07
3.11064e-07
3.11873e-07
3.12935e-07
3.14223e-07
3.15726e-07
3.17407e-07
3.19238e-07
3.211e-07
3.2277e-07
3.24218e-07
3.2548e-07
3.26469e-07
3.274e-07
3.2797e-07
3.28077e-07
3.27465e-07
3.25847e-07
3.23415e-07
3.20876e-07
3.37735e-07
3.39624e-07
3.40521e-07
3.40267e-07
3.3861e-07
3.35598e-07
3.31493e-07
3.2649e-07
3.20985e-07
3.15246e-07
3.09679e-07
3.04408e-07
2.99631e-07
2.95615e-07
2.92482e-07
2.90361e-07
2.89053e-07
2.88385e-07
2.882e-07
2.88151e-07
2.88325e-07
2.8864e-07
2.88827e-07
2.8924e-07
2.89568e-07
2.89941e-07
2.90348e-07
2.90862e-07
2.91305e-07
2.91975e-07
2.92437e-07
2.93368e-07
2.93842e-07
2.94954e-07
2.9552e-07
2.96584e-07
2.97339e-07
2.98354e-07
2.99257e-07
3.00241e-07
3.01168e-07
3.02152e-07
3.03137e-07
3.04139e-07
3.05037e-07
3.0575e-07
3.06216e-07
3.06386e-07
3.06227e-07
3.05722e-07
3.04853e-07
3.03623e-07
3.02023e-07
3.00535e-07
2.98946e-07
2.97562e-07
2.96215e-07
2.95187e-07
2.94481e-07
2.94023e-07
2.9383e-07
2.93902e-07
2.94125e-07
2.94478e-07
2.94898e-07
2.9534e-07
2.95731e-07
2.9608e-07
2.96429e-07
2.96844e-07
2.97267e-07
2.97774e-07
2.98312e-07
2.98927e-07
2.99539e-07
3.00089e-07
3.00558e-07
3.0098e-07
3.01303e-07
3.01619e-07
3.01758e-07
3.01666e-07
3.01171e-07
3.00136e-07
2.98719e-07
2.96976e-07
3.05292e-07
3.06146e-07
3.06496e-07
3.06192e-07
3.05069e-07
3.03205e-07
3.00776e-07
2.97905e-07
2.94796e-07
2.9159e-07
2.88392e-07
2.85555e-07
2.82892e-07
2.80673e-07
2.79068e-07
2.78135e-07
2.77841e-07
2.77986e-07
2.78355e-07
2.78757e-07
2.79246e-07
2.79794e-07
2.80113e-07
2.80563e-07
2.80895e-07
2.81205e-07
2.81489e-07
2.81854e-07
2.82128e-07
2.82605e-07
2.8289e-07
2.83573e-07
2.83816e-07
2.84691e-07
2.84982e-07
2.85759e-07
2.86133e-07
2.86756e-07
2.8725e-07
2.87788e-07
2.88238e-07
2.88712e-07
2.89171e-07
2.89643e-07
2.90131e-07
2.90567e-07
2.90875e-07
2.91018e-07
2.91005e-07
2.90896e-07
2.90419e-07
2.901e-07
2.89188e-07
2.88762e-07
2.87981e-07
2.87565e-07
2.87024e-07
2.86734e-07
2.86719e-07
2.86864e-07
2.87207e-07
2.8773e-07
2.88307e-07
2.88953e-07
2.89599e-07
2.90208e-07
2.90721e-07
2.91142e-07
2.91437e-07
2.91723e-07
2.91951e-07
2.92188e-07
2.92381e-07
2.92588e-07
2.92748e-07
2.92853e-07
2.92943e-07
2.93034e-07
2.93099e-07
2.93219e-07
2.9329e-07
2.93263e-07
2.93045e-07
2.92529e-07
2.91692e-07
2.9081e-07
2.90773e-07
2.91196e-07
2.91271e-07
2.9088e-07
2.89924e-07
2.88497e-07
2.86734e-07
2.84902e-07
2.82815e-07
2.80589e-07
2.78476e-07
2.76451e-07
2.74548e-07
2.72797e-07
2.71466e-07
2.7074e-07
2.7057e-07
2.70845e-07
2.71381e-07
2.71989e-07
2.72713e-07
2.73492e-07
2.74018e-07
2.74651e-07
2.75133e-07
2.75544e-07
2.7586e-07
2.76235e-07
2.76542e-07
2.77029e-07
2.77408e-07
2.78041e-07
2.78329e-07
2.79145e-07
2.79478e-07
2.80185e-07
2.80482e-07
2.80973e-07
2.81324e-07
2.81689e-07
2.8197e-07
2.82233e-07
2.82507e-07
2.82844e-07
2.83227e-07
2.8356e-07
2.83813e-07
2.83925e-07
2.83978e-07
2.84098e-07
2.83804e-07
2.83807e-07
2.83012e-07
2.83011e-07
2.82448e-07
2.82408e-07
2.81992e-07
2.81956e-07
2.82061e-07
2.82344e-07
2.82753e-07
2.83362e-07
2.84027e-07
2.8477e-07
2.8556e-07
2.8636e-07
2.87093e-07
2.8774e-07
2.88229e-07
2.88676e-07
2.8903e-07
2.8933e-07
2.89553e-07
2.89754e-07
2.89863e-07
2.89857e-07
2.89839e-07
2.89842e-07
2.89821e-07
2.89866e-07
2.89953e-07
2.90008e-07
2.89844e-07
2.89318e-07
2.88474e-07
2.87215e-07
2.82707e-07
2.82934e-07
2.82814e-07
2.82309e-07
2.81378e-07
2.80096e-07
2.78628e-07
2.76965e-07
2.75251e-07
2.73251e-07
2.71292e-07
2.69296e-07
2.67128e-07
2.65098e-07
2.63401e-07
2.62372e-07
2.61868e-07
2.62047e-07
2.6261e-07
2.63432e-07
2.64407e-07
2.65503e-07
2.66398e-07
2.67359e-07
2.68184e-07
2.68844e-07
2.69356e-07
2.69864e-07
2.70333e-07
2.70958e-07
2.71555e-07
2.723e-07
2.72787e-07
2.7366e-07
2.74154e-07
2.74895e-07
2.75338e-07
2.75826e-07
2.76127e-07
2.7643e-07
2.76685e-07
2.76967e-07
2.77288e-07
2.77686e-07
2.78124e-07
2.78528e-07
2.78822e-07
2.7893e-07
2.78927e-07
2.79056e-07
2.78709e-07
2.78782e-07
2.77925e-07
2.77886e-07
2.77151e-07
2.76958e-07
2.76419e-07
2.76212e-07
2.76245e-07
2.76401e-07
2.7682e-07
2.77465e-07
2.78164e-07
2.79036e-07
2.80003e-07
2.8109e-07
2.82177e-07
2.83246e-07
2.84185e-07
2.85012e-07
2.85633e-07
2.86228e-07
2.86707e-07
2.87094e-07
2.87298e-07
2.87302e-07
2.87294e-07
2.87291e-07
2.87248e-07
2.87366e-07
2.87457e-07
2.87582e-07
2.87486e-07
2.87115e-07
2.86356e-07
2.85099e-07
2.7666e-07
2.76741e-07
2.76426e-07
2.75782e-07
2.74721e-07
2.73335e-07
2.71854e-07
2.70027e-07
2.68172e-07
2.65931e-07
2.63614e-07
2.61169e-07
2.58359e-07
2.55678e-07
2.53341e-07
2.51695e-07
2.5074e-07
2.50526e-07
2.5089e-07
2.51797e-07
2.52955e-07
2.54395e-07
2.55831e-07
2.57274e-07
2.58627e-07
2.59733e-07
2.60673e-07
2.61578e-07
2.62399e-07
2.63304e-07
2.64127e-07
2.65005e-07
2.65759e-07
2.66617e-07
2.67327e-07
2.68174e-07
2.68824e-07
2.6944e-07
2.6976e-07
2.70153e-07
2.7053e-07
2.7093e-07
2.71398e-07
2.71904e-07
2.7248e-07
2.73e-07
2.73383e-07
2.73531e-07
2.7354e-07
2.73625e-07
2.73244e-07
2.73203e-07
2.72199e-07
2.72006e-07
2.71013e-07
2.70682e-07
2.69869e-07
2.69524e-07
2.6937e-07
2.69318e-07
2.69589e-07
2.70124e-07
2.70784e-07
2.71665e-07
2.72689e-07
2.73944e-07
2.75317e-07
2.76777e-07
2.78214e-07
2.79556e-07
2.80661e-07
2.817e-07
2.82614e-07
2.8338e-07
2.8391e-07
2.841e-07
2.84175e-07
2.84223e-07
2.84199e-07
2.84257e-07
2.8439e-07
2.84691e-07
2.84761e-07
2.84322e-07
2.83668e-07
2.82429e-07
2.70357e-07
2.70357e-07
2.69836e-07
2.68993e-07
2.6771e-07
2.66107e-07
2.64426e-07
2.62267e-07
2.60052e-07
2.57364e-07
2.54453e-07
2.51257e-07
2.47556e-07
2.43857e-07
2.40452e-07
2.37611e-07
2.35664e-07
2.34608e-07
2.34455e-07
2.35149e-07
2.36337e-07
2.38117e-07
2.40335e-07
2.42304e-07
2.44541e-07
2.46437e-07
2.48161e-07
2.49813e-07
2.51287e-07
2.52698e-07
2.54051e-07
2.55279e-07
2.56417e-07
2.57296e-07
2.58195e-07
2.59054e-07
2.59895e-07
2.60692e-07
2.6123e-07
2.61848e-07
2.62437e-07
2.63078e-07
2.63796e-07
2.64612e-07
2.65417e-07
2.66152e-07
2.66699e-07
2.66927e-07
2.66992e-07
2.67018e-07
2.66658e-07
2.66403e-07
2.65208e-07
2.6472e-07
2.63382e-07
2.62732e-07
2.6147e-07
2.60739e-07
2.60106e-07
2.59601e-07
2.59496e-07
2.5959e-07
2.59891e-07
2.60651e-07
2.61627e-07
2.63011e-07
2.6462e-07
2.66681e-07
2.68939e-07
2.71174e-07
2.73104e-07
2.74866e-07
2.76519e-07
2.77906e-07
2.78936e-07
2.79401e-07
2.7964e-07
2.79795e-07
2.79858e-07
2.79931e-07
2.80069e-07
2.80412e-07
2.80687e-07
2.80543e-07
2.79845e-07
2.78477e-07
2.62989e-07
2.63013e-07
2.6232e-07
2.61267e-07
2.59724e-07
2.57812e-07
2.5575e-07
2.53107e-07
2.50267e-07
2.46859e-07
2.42996e-07
2.38574e-07
2.33449e-07
2.28007e-07
2.22649e-07
2.17728e-07
2.13706e-07
2.10791e-07
2.09449e-07
2.09352e-07
2.10355e-07
2.12765e-07
2.16177e-07
2.19393e-07
2.23295e-07
2.26928e-07
2.30313e-07
2.3343e-07
2.36229e-07
2.38646e-07
2.40795e-07
2.42504e-07
2.44258e-07
2.4527e-07
2.46505e-07
2.47449e-07
2.48398e-07
2.49146e-07
2.4971e-07
2.50456e-07
2.51413e-07
2.52483e-07
2.53677e-07
2.54914e-07
2.56142e-07
2.57211e-07
2.58074e-07
2.58469e-07
2.5863e-07
2.58659e-07
2.58254e-07
2.57675e-07
2.56137e-07
2.55092e-07
2.53175e-07
2.51896e-07
2.49841e-07
2.48365e-07
2.46906e-07
2.45377e-07
2.44182e-07
2.43271e-07
2.42972e-07
2.43078e-07
2.43575e-07
2.45102e-07
2.47637e-07
2.50772e-07
2.54372e-07
2.57876e-07
2.60951e-07
2.63777e-07
2.66633e-07
2.6922e-07
2.71183e-07
2.72262e-07
2.72828e-07
2.73256e-07
2.73369e-07
2.73544e-07
2.73761e-07
2.74204e-07
2.7463e-07
2.74683e-07
2.74112e-07
2.72421e-07
2.5386e-07
2.54111e-07
2.53296e-07
2.51981e-07
2.50085e-07
2.47727e-07
2.45031e-07
2.41666e-07
2.37795e-07
2.33172e-07
2.27716e-07
2.21237e-07
2.13562e-07
2.04937e-07
1.95697e-07
1.86362e-07
1.77893e-07
1.71261e-07
1.66882e-07
1.6482e-07
1.64482e-07
1.67578e-07
1.73006e-07
1.78776e-07
1.86074e-07
1.9342e-07
2.00385e-07
2.06854e-07
2.12677e-07
2.17584e-07
2.21763e-07
2.24729e-07
2.27887e-07
2.29651e-07
2.31432e-07
2.32747e-07
2.34179e-07
2.35348e-07
2.35974e-07
2.36474e-07
2.37037e-07
2.37978e-07
2.39258e-07
2.40981e-07
2.42793e-07
2.44475e-07
2.45865e-07
2.46609e-07
2.4701e-07
2.47081e-07
2.46678e-07
2.45543e-07
2.43492e-07
2.41348e-07
2.38506e-07
2.35765e-07
2.32246e-07
2.2918e-07
2.25863e-07
2.22466e-07
2.19486e-07
2.16812e-07
2.14721e-07
2.13648e-07
2.13214e-07
2.14438e-07
2.18178e-07
2.24011e-07
2.30723e-07
2.3742e-07
2.43294e-07
2.47872e-07
2.5186e-07
2.5603e-07
2.591e-07
2.61239e-07
2.62268e-07
2.62785e-07
2.63076e-07
2.63345e-07
2.63604e-07
2.64218e-07
2.65036e-07
2.65344e-07
2.64627e-07
2.62557e-07
2.4192e-07
2.4258e-07
2.41771e-07
2.4018e-07
2.37842e-07
2.3479e-07
2.31056e-07
2.26438e-07
2.20853e-07
2.14009e-07
2.05627e-07
1.95317e-07
1.82798e-07
1.68083e-07
1.51696e-07
1.34643e-07
1.18815e-07
1.0601e-07
9.68312e-08
9.10571e-08
8.78644e-08
9.01416e-08
9.78682e-08
1.06873e-07
1.19101e-07
1.32582e-07
1.46071e-07
1.59094e-07
1.71329e-07
1.82041e-07
1.91333e-07
1.98078e-07
2.03962e-07
2.07704e-07
2.12147e-07
2.14785e-07
2.16877e-07
2.18328e-07
2.18858e-07
2.19336e-07
2.19695e-07
2.20142e-07
2.21351e-07
2.23032e-07
2.25078e-07
2.27135e-07
2.28979e-07
2.30117e-07
2.30722e-07
2.30688e-07
2.29953e-07
2.27849e-07
2.24649e-07
2.20408e-07
2.15608e-07
2.09718e-07
2.03185e-07
1.96666e-07
1.89764e-07
1.82621e-07
1.75483e-07
1.69028e-07
1.63802e-07
1.60561e-07
1.59505e-07
1.60905e-07
1.66232e-07
1.75945e-07
1.88502e-07
2.01908e-07
2.14584e-07
2.24239e-07
2.3213e-07
2.38376e-07
2.43392e-07
2.4597e-07
2.4704e-07
2.47503e-07
2.4761e-07
2.47691e-07
2.47869e-07
2.48502e-07
2.49528e-07
2.50434e-07
2.4973e-07
2.4684e-07
2.33028e-07
2.34093e-07
2.33339e-07
2.31554e-07
2.28844e-07
2.25243e-07
2.2071e-07
2.15099e-07
2.08186e-07
1.99625e-07
1.89057e-07
1.75951e-07
1.60046e-07
1.41374e-07
1.20841e-07
9.94587e-08
7.92908e-08
6.17918e-08
4.74996e-08
3.63516e-08
2.90818e-08
2.69876e-08
3.16352e-08
3.85677e-08
5.03298e-08
6.57323e-08
8.32673e-08
1.01264e-07
1.19324e-07
1.36326e-07
1.52134e-07
1.64669e-07
1.75752e-07
1.82945e-07
1.90489e-07
1.9629e-07
2.01112e-07
2.0419e-07
2.05341e-07
2.05524e-07
2.05923e-07
2.06305e-07
2.0775e-07
2.09514e-07
2.1203e-07
2.14513e-07
2.16633e-07
2.17949e-07
2.18528e-07
2.18338e-07
2.17241e-07
2.1437e-07
2.10333e-07
2.04496e-07
1.98158e-07
1.89963e-07
1.80983e-07
1.71743e-07
1.61515e-07
1.50245e-07
1.37706e-07
1.24535e-07
1.12989e-07
1.04238e-07
9.95704e-08
9.97529e-08
1.05822e-07
1.18353e-07
1.35977e-07
1.56686e-07
1.78001e-07
1.94723e-07
2.10877e-07
2.21228e-07
2.29505e-07
2.33862e-07
2.35239e-07
2.35618e-07
2.35406e-07
2.3526e-07
2.35298e-07
2.35898e-07
2.37112e-07
2.38154e-07
2.37738e-07
2.34195e-07
2.27409e-07
2.28858e-07
2.28174e-07
2.26259e-07
2.23331e-07
2.1935e-07
2.14261e-07
2.07958e-07
2.00136e-07
1.90417e-07
1.78352e-07
1.63355e-07
1.45225e-07
1.2407e-07
1.00786e-07
7.64758e-08
5.34112e-08
3.41144e-08
1.99277e-08
1.22833e-08
9.42905e-09
9.49571e-09
1.19134e-08
1.57848e-08
2.22323e-08
3.19417e-08
4.5537e-08
6.30563e-08
8.22114e-08
1.01496e-07
1.20566e-07
1.37052e-07
1.52198e-07
1.62806e-07
1.73065e-07
1.81307e-07
1.88793e-07
1.93942e-07
1.96138e-07
1.96392e-07
1.96736e-07
1.97358e-07
1.98886e-07
2.007e-07
2.03283e-07
2.05841e-07
2.08204e-07
2.09716e-07
2.1042e-07
2.10184e-07
2.08909e-07
2.0553e-07
2.00923e-07
1.93965e-07
1.86382e-07
1.76377e-07
1.65194e-07
1.53292e-07
1.39196e-07
1.23257e-07
1.05483e-07
8.81486e-08
7.43662e-08
6.47015e-08
5.98952e-08
5.94375e-08
6.47116e-08
7.72262e-08
9.61678e-08
1.20382e-07
1.47041e-07
1.6926e-07
1.90931e-07
2.06942e-07
2.18237e-07
2.24478e-07
2.26942e-07
2.2774e-07
2.27529e-07
2.27166e-07
2.2695e-07
2.27351e-07
2.2859e-07
2.2997e-07
2.29624e-07
2.25637e-07
2.21059e-07
2.22961e-07
2.22438e-07
2.20406e-07
2.17217e-07
2.12786e-07
2.07038e-07
1.99875e-07
1.90982e-07
1.79875e-07
1.65974e-07
1.48785e-07
1.28114e-07
1.04029e-07
7.7499e-08
5.05988e-08
2.71119e-08
1.20128e-08
5.687e-09
3.51506e-09
2.91375e-09
2.97126e-09
3.90952e-09
5.63178e-09
8.72205e-09
1.38486e-08
2.16261e-08
3.30029e-08
4.91097e-08
6.81746e-08
8.82764e-08
1.07184e-07
1.25801e-07
1.3989e-07
1.53416e-07
1.6399e-07
1.74267e-07
1.82452e-07
1.86746e-07
1.87562e-07
1.8716e-07
1.87375e-07
1.88922e-07
1.91145e-07
1.93899e-07
1.96621e-07
1.99069e-07
2.00665e-07
2.01331e-07
2.00946e-07
1.99417e-07
1.95326e-07
1.89851e-07
1.81334e-07
1.72027e-07
1.59205e-07
1.44554e-07
1.28353e-07
1.09089e-07
8.90022e-08
6.88324e-08
5.20703e-08
4.03588e-08
3.31873e-08
2.99825e-08
2.95857e-08
3.28398e-08
4.20428e-08
5.91202e-08
8.41471e-08
1.14208e-07
1.42822e-07
1.68531e-07
1.89753e-07
2.05523e-07
2.14184e-07
2.17418e-07
2.18353e-07
2.18187e-07
2.17559e-07
2.16917e-07
2.16906e-07
2.1794e-07
2.19336e-07
2.1888e-07
2.14487e-07
2.13904e-07
2.16289e-07
2.15982e-07
2.13845e-07
2.10342e-07
2.05365e-07
1.98878e-07
1.90816e-07
1.80738e-07
1.67972e-07
1.51971e-07
1.32357e-07
1.08827e-07
8.15135e-08
5.25198e-08
2.59671e-08
9.48701e-09
3.61798e-09
1.95961e-09
1.4143e-09
1.2448e-09
1.31281e-09
1.62275e-09
2.13759e-09
3.01119e-09
5.21708e-09
8.64167e-09
1.44216e-08
2.33831e-08
3.62718e-08
5.40291e-08
7.31424e-08
9.3647e-08
1.10965e-07
1.2815e-07
1.41899e-07
1.54769e-07
1.66228e-07
1.74116e-07
1.77387e-07
1.77195e-07
1.77307e-07
1.78146e-07
1.80363e-07
1.83391e-07
1.86388e-07
1.88952e-07
1.90586e-07
1.91136e-07
1.90501e-07
1.88529e-07
1.83454e-07
1.76862e-07
1.66211e-07
1.54417e-07
1.3751e-07
1.18372e-07
9.7697e-08
7.5355e-08
5.51468e-08
3.76237e-08
2.51982e-08
1.80093e-08
1.41794e-08
1.24812e-08
1.21958e-08
1.36524e-08
1.83717e-08
2.81887e-08
4.7288e-08
7.71596e-08
1.10485e-07
1.38888e-07
1.67598e-07
1.87901e-07
2.00696e-07
2.05958e-07
2.07043e-07
2.06522e-07
2.05425e-07
2.04095e-07
2.03365e-07
2.03958e-07
2.05263e-07
2.04904e-07
2.00175e-07
2.06029e-07
2.08926e-07
2.08841e-07
2.06598e-07
2.02795e-07
1.97296e-07
1.90068e-07
1.80941e-07
1.69314e-07
1.54577e-07
1.36272e-07
1.13973e-07
8.73202e-08
5.74547e-08
2.88238e-08
9.82126e-09
3.11946e-09
1.47122e-09
9.57889e-10
7.65795e-10
7.0569e-10
7.58214e-10
9.21492e-10
1.17268e-09
1.59269e-09
2.25543e-09
3.32008e-09
5.797e-09
9.8325e-09
1.64821e-08
2.69067e-08
4.14173e-08
6.09278e-08
7.96174e-08
9.95279e-08
1.16527e-07
1.32515e-07
1.46469e-07
1.57411e-07
1.64278e-07
1.66506e-07
1.6626e-07
1.67196e-07
1.68898e-07
1.71463e-07
1.7439e-07
1.77061e-07
1.78792e-07
1.79306e-07
1.78381e-07
1.75835e-07
1.6953e-07
1.61493e-07
1.4797e-07
1.32784e-07
1.11099e-07
8.82706e-08
6.58175e-08
4.49447e-08
2.87985e-08
1.71946e-08
1.04229e-08
6.84054e-09
5.0799e-09
4.364e-09
4.25478e-09
4.81516e-09
6.85439e-09
1.13538e-08
2.13656e-08
4.24078e-08
7.52517e-08
1.07125e-07
1.40667e-07
1.6576e-07
1.83064e-07
1.911e-07
1.93115e-07
1.92239e-07
1.90245e-07
1.87737e-07
1.85695e-07
1.85454e-07
1.86608e-07
1.8669e-07
1.81991e-07
1.97361e-07
2.00858e-07
2.01048e-07
1.98701e-07
1.94553e-07
1.88423e-07
1.80229e-07
1.69727e-07
1.56368e-07
1.39527e-07
1.18718e-07
9.35136e-08
6.41715e-08
3.43635e-08
1.21377e-08
3.44864e-09
1.36543e-09
8.07558e-10
5.85253e-10
4.68318e-10
4.32721e-10
4.62086e-10
5.76398e-10
7.74687e-10
1.00455e-09
1.36265e-09
1.87341e-09
2.65329e-09
3.92361e-09
6.83332e-09
1.16188e-08
1.92007e-08
3.16592e-08
4.8011e-08
6.86773e-08
8.79922e-08
1.07034e-07
1.24094e-07
1.37508e-07
1.47333e-07
1.52478e-07
1.53726e-07
1.54443e-07
1.56159e-07
1.58617e-07
1.61476e-07
1.64116e-07
1.65739e-07
1.66022e-07
1.64621e-07
1.61208e-07
1.53278e-07
1.43161e-07
1.2605e-07
1.07265e-07
8.20967e-08
5.8687e-08
3.84846e-08
2.24449e-08
1.22624e-08
6.32163e-09
3.27135e-09
1.97679e-09
1.57175e-09
1.45279e-09
1.47605e-09
1.61311e-09
2.25744e-09
3.94526e-09
8.20411e-09
1.90423e-08
4.11992e-08
7.49444e-08
1.09196e-07
1.3956e-07
1.60926e-07
1.71888e-07
1.75238e-07
1.7409e-07
1.71023e-07
1.67025e-07
1.63229e-07
1.61805e-07
1.62758e-07
1.636e-07
1.5927e-07
1.87641e-07
1.91865e-07
1.92421e-07
1.89982e-07
1.85426e-07
1.7852e-07
1.69183e-07
1.5723e-07
1.42035e-07
1.22841e-07
9.92198e-08
7.12802e-08
4.1326e-08
1.60568e-08
4.418e-09
1.49055e-09
8.08636e-10
5.66276e-10
4.05186e-10
6.45517e-11
6.16447e-11
8.77501e-11
1.48111e-10
2.73263e-10
5.04546e-10
8.60682e-10
1.23049e-09
1.64601e-09
2.25012e-09
3.15658e-09
4.7183e-09
8.13186e-09
1.41896e-08
2.35207e-08
3.90165e-08
5.83623e-08
7.92668e-08
9.92698e-08
1.15619e-07
1.27925e-07
1.35716e-07
1.3903e-07
1.4028e-07
1.42069e-07
1.44359e-07
1.4707e-07
1.49588e-07
1.51023e-07
1.50921e-07
1.48838e-07
1.44094e-07
1.34083e-07
1.21372e-07
1.00897e-07
7.9838e-08
5.45544e-08
3.40484e-08
1.85741e-08
8.98207e-09
4.19786e-09
1.96215e-09
1.09251e-09
7.4465e-10
6.93768e-10
6.97773e-10
7.22773e-10
7.62526e-10
1.0335e-09
1.43001e-09
2.79743e-09
7.33427e-09
1.90282e-08
4.33501e-08
7.68311e-08
1.10166e-07
1.34692e-07
1.48646e-07
1.53568e-07
1.5222e-07
1.47653e-07
1.41886e-07
1.36097e-07
1.33249e-07
1.34028e-07
1.36282e-07
1.32635e-07
1.76356e-07
1.81472e-07
1.82474e-07
1.79988e-07
1.74976e-07
1.67202e-07
1.56606e-07
1.42904e-07
1.25327e-07
1.03238e-07
7.68221e-08
4.7768e-08
2.10034e-08
6.07501e-09
1.8715e-09
9.65301e-10
7.02621e-10
2.65356e-10
4.15963e-11
2.02377e-12
5.13258e-13
8.74091e-14
2.38744e-12
1.43238e-11
7.22263e-11
2.50936e-10
5.70918e-10
1.03961e-09
1.45102e-09
1.90263e-09
2.58387e-09
3.64233e-09
5.78839e-09
1.01211e-08
1.82997e-08
3.10163e-08
5.0054e-08
7.17437e-08
9.10168e-08
1.06046e-07
1.16215e-07
1.21579e-07
1.23773e-07
1.25525e-07
1.27614e-07
1.30023e-07
1.322e-07
1.3329e-07
1.32617e-07
1.2957e-07
1.23119e-07
1.1087e-07
9.57147e-08
7.35857e-08
5.28816e-08
3.10976e-08
1.57705e-08
7.13022e-09
3.01673e-09
1.45741e-09
8.41699e-10
5.45349e-10
4.12795e-10
4.08466e-10
4.0099e-10
3.87928e-10
4.16682e-10
5.59163e-10
7.00788e-10
1.17217e-09
2.47621e-09
7.42714e-09
2.02256e-08
4.54315e-08
7.91096e-08
1.05805e-07
1.21452e-07
1.2736e-07
1.2588e-07
1.20055e-07
1.12559e-07
1.04944e-07
1.00714e-07
1.0098e-07
1.0422e-07
1.0178e-07
1.63334e-07
1.69514e-07
1.71031e-07
1.68535e-07
1.63004e-07
1.54169e-07
1.41958e-07
1.26026e-07
1.05711e-07
8.08259e-08
5.30501e-08
2.62975e-08
8.46938e-09
2.54925e-09
1.23085e-09
9.21042e-10
2.24405e-10
3.71281e-11
3.90342e-12
9.14596e-13
1.00345e-12
1.03279e-12
5.01833e-13
8.32033e-14
1.47899e-12
1.15439e-11
7.68057e-11
2.91658e-10
6.59447e-10
1.15141e-09
1.59764e-09
2.109e-09
2.88654e-09
4.34447e-09
7.7044e-09
1.41059e-08
2.54268e-08
4.31094e-08
6.39754e-08
8.1943e-08
9.46472e-08
1.02225e-07
1.05599e-07
1.07103e-07
1.08728e-07
1.10545e-07
1.12063e-07
1.12572e-07
1.11156e-07
1.07027e-07
9.89664e-08
8.52015e-08
6.89456e-08
4.79922e-08
3.0221e-08
1.43048e-08
6.05008e-09
2.44389e-09
1.16138e-09
7.10288e-10
4.85792e-10
3.17735e-10
2.51485e-10
1.47584e-10
1.37749e-10
1.36618e-10
1.58657e-10
2.11279e-10
3.33351e-10
6.11986e-10
1.08816e-09
2.51133e-09
7.99151e-09
2.14995e-08
4.7424e-08
7.54217e-08
9.25111e-08
9.91534e-08
9.75584e-08
9.07355e-08
8.2017e-08
7.32557e-08
6.79581e-08
6.74394e-08
7.11068e-08
7.05588e-08
1.48764e-07
1.56192e-07
1.58273e-07
1.55796e-07
1.49668e-07
1.39561e-07
1.25458e-07
1.07122e-07
8.41979e-08
5.77677e-08
3.16117e-08
1.17006e-08
3.67119e-09
1.65672e-09
1.13744e-09
7.63314e-10
2.84074e-11
8.66278e-12
4.23717e-12
1.50737e-11
3.51461e-11
4.12434e-11
2.46356e-11
6.07561e-12
8.54936e-13
6.77953e-14
1.78738e-12
1.6181e-11
1.21735e-10
3.85877e-10
7.06094e-10
1.25162e-09
1.73198e-09
2.48319e-09
3.62889e-09
6.06579e-09
1.17014e-08
2.19317e-08
3.72562e-08
5.64083e-08
7.17978e-08
8.14062e-08
8.64372e-08
8.80792e-08
8.89581e-08
8.99552e-08
9.05701e-08
9.03158e-08
8.81306e-08
8.31837e-08
7.42543e-08
6.04351e-08
4.49972e-08
2.7377e-08
1.4077e-08
5.63573e-09
2.1756e-09
1.04257e-09
6.46267e-10
4.4516e-10
2.94054e-10
1.13165e-10
7.02099e-11
3.28735e-11
1.47658e-11
1.20524e-11
2.03042e-11
4.40975e-11
1.10141e-10
2.51609e-10
5.9041e-10
1.09104e-09
2.89106e-09
8.85948e-09
2.31649e-08
4.661e-08
6.47186e-08
7.16428e-08
7.02445e-08
6.32792e-08
5.43113e-08
4.54446e-08
3.97472e-08
3.83643e-08
4.12283e-08
4.2623e-08
1.32447e-07
1.41317e-07
1.44019e-07
1.41579e-07
1.34768e-07
1.23226e-07
1.07094e-07
8.64489e-08
6.18409e-08
3.63147e-08
1.5268e-08
5.20383e-09
2.23516e-09
1.35552e-09
1.10654e-09
1.49088e-11
1.23761e-11
6.41699e-12
2.11571e-11
8.99188e-11
1.84188e-10
2.34498e-10
2.02953e-10
9.28694e-11
2.31075e-11
4.13367e-12
2.14017e-13
1.94094e-13
4.92541e-12
3.43392e-11
1.41097e-10
3.72251e-10
7.63505e-10
1.52448e-09
2.12596e-09
3.35739e-09
5.33264e-09
1.04619e-08
1.93376e-08
3.25044e-08
4.82786e-08
6.00643e-08
6.67579e-08
6.94033e-08
6.95763e-08
6.96121e-08
6.92127e-08
6.81385e-08
6.53476e-08
6.01077e-08
5.13677e-08
3.89249e-08
2.57428e-08
1.28108e-08
5.68248e-09
2.2017e-09
1.07917e-09
6.6828e-10
4.65741e-10
2.81157e-10
6.87327e-11
2.33198e-11
6.34147e-12
1.63008e-12
3.91767e-13
5.37867e-13
9.26564e-13
2.94335e-12
1.14132e-11
5.25185e-11
2.25336e-10
5.85001e-10
1.21431e-09
3.41686e-09
9.77164e-09
2.30806e-08
3.83994e-08
4.62979e-08
4.58447e-08
3.95202e-08
3.11138e-08
2.33095e-08
1.85681e-08
1.68696e-08
1.80025e-08
1.99928e-08
1.14234e-07
1.24731e-07
1.28092e-07
1.25696e-07
1.18134e-07
1.0506e-07
8.70013e-08
6.48065e-08
4.05951e-08
1.89365e-08
7.00276e-09
2.98183e-09
1.70736e-09
1.37477e-09
6.04889e-11
9.83131e-12
7.4306e-12
1.62264e-11
1.04612e-10
3.64952e-10
7.00539e-10
8.94617e-10
8.0487e-10
4.39465e-10
1.60476e-10
4.31346e-11
7.75739e-12
5.8999e-13
1.12028e-13
1.03867e-12
7.00742e-12
2.83476e-11
1.14022e-10
4.44577e-10
1.03909e-09
2.08682e-09
2.9809e-09
5.1295e-09
9.62728e-09
1.73023e-08
2.77857e-08
3.89907e-08
4.73228e-08
5.13064e-08
5.17259e-08
5.08533e-08
4.95858e-08
4.78425e-08
4.47583e-08
3.97621e-08
3.20791e-08
2.18101e-08
1.21379e-08
5.4123e-09
2.4032e-09
1.23633e-09
7.64294e-10
5.18578e-10
1.45692e-10
2.78313e-11
1.75058e-11
8.896e-12
7.84709e-12
1.09232e-11
1.41149e-11
1.32796e-11
8.46251e-12
4.8105e-12
2.13752e-12
3.93909e-12
3.83177e-11
2.15659e-10
6.26904e-10
1.44965e-09
3.87498e-09
9.87077e-09
1.88328e-08
2.4501e-08
2.44618e-08
1.96599e-08
1.37954e-08
9.31183e-09
6.62031e-09
5.50886e-09
5.66579e-09
6.64149e-09
9.40727e-08
1.06211e-07
1.10296e-07
1.07993e-07
9.97075e-08
8.52856e-08
6.60009e-08
4.39544e-08
2.26459e-08
8.90152e-09
3.78094e-09
2.14329e-09
1.59092e-09
8.08197e-10
8.01119e-12
7.89885e-12
1.05725e-11
7.23293e-11
4.15974e-10
1.22281e-09
2.21217e-09
2.76788e-09
2.5078e-09
1.43329e-09
6.05503e-10
2.02351e-10
5.02626e-11
1.33623e-11
3.32744e-12
1.08352e-12
6.24019e-13
1.13014e-12
4.66915e-12
2.27401e-11
1.52405e-10
8.4553e-10
1.66233e-09
2.99228e-09
4.98274e-09
9.02668e-09
1.51885e-08
2.23768e-08
2.91722e-08
3.38479e-08
3.53971e-08
3.44798e-08
3.26882e-08
3.06189e-08
2.75703e-08
2.31592e-08
1.70583e-08
1.01521e-08
5.22032e-09
2.50296e-09
1.46466e-09
9.14452e-10
6.42253e-10
4.93268e-11
3.98868e-12
1.57766e-11
1.36152e-11
1.93027e-11
4.89483e-11
1.06345e-10
1.43478e-10
1.34369e-10
9.07683e-11
5.48491e-11
2.64854e-11
3.65483e-12
3.73691e-12
3.80904e-11
2.43081e-10
7.32518e-10
1.73863e-09
3.95952e-09
7.97575e-09
1.10271e-08
1.08346e-08
8.25339e-09
5.37871e-09
3.36583e-09
2.30245e-09
1.9217e-09
1.9581e-09
2.27759e-09
7.27355e-08
8.60836e-08
9.08046e-08
8.8631e-08
7.98637e-08
6.47788e-08
4.56896e-08
2.5869e-08
1.10057e-08
4.61552e-09
2.55312e-09
1.80487e-09
1.55796e-09
3.3655e-11
5.6386e-12
8.57282e-12
3.32903e-11
2.9134e-10
1.30673e-09
3.25895e-09
5.42954e-09
6.52547e-09
5.98232e-09
3.60256e-09
1.61667e-09
5.98223e-10
1.95576e-10
6.61074e-11
2.53185e-11
1.16382e-11
5.11982e-12
2.18056e-12
7.41921e-13
4.53576e-13
2.26925e-12
9.60075e-11
4.38678e-10
1.72632e-09
2.75739e-09
4.93429e-09
8.2679e-09
1.25307e-08
1.66989e-08
1.97852e-08
2.10118e-08
2.04594e-08
1.88283e-08
1.696e-08
1.44835e-08
1.14352e-08
7.88411e-09
4.47894e-09
2.47392e-09
1.59488e-09
1.09792e-09
8.17675e-10
5.55545e-11
3.58048e-12
1.14789e-11
1.77511e-11
2.4549e-11
5.94042e-11
1.85504e-10
3.88558e-10
5.13807e-10
5.42564e-10
4.52825e-10
3.4358e-10
2.15183e-10
7.60078e-11
8.4457e-12
3.52532e-12
5.20007e-11
3.45339e-10
9.4526e-10
1.83897e-09
3.2676e-09
4.64118e-09
4.70734e-09
3.54669e-09
2.38274e-09
1.61988e-09
1.19732e-09
1.02411e-09
1.05057e-09
1.22397e-09
5.14673e-08
6.51866e-08
7.03181e-08
6.83941e-08
5.96874e-08
4.5067e-08
2.78407e-08
1.30904e-08
5.62584e-09
2.94334e-09
1.97519e-09
1.79253e-09
1.72666e-10
6.63953e-12
6.6168e-12
1.58562e-11
1.3142e-10
9.24338e-10
3.25683e-09
7.12237e-09
1.12854e-08
1.34303e-08
1.25735e-08
7.94735e-09
3.66974e-09
1.32876e-09
4.79864e-10
1.99148e-10
1.02264e-10
6.59028e-11
4.1004e-11
2.38172e-11
8.5526e-12
1.25944e-12
1.00934e-13
6.86124e-13
3.4852e-11
4.2251e-10
1.0706e-09
2.78523e-09
4.75004e-09
7.16307e-09
9.63689e-09
1.13141e-08