/*--------------------------------*- C++ -*----------------------------------*\
| =========                 |                                                 |
| \\      /  F ield         | OpenFOAM: The Open Source CFD Toolbox           |
|  \\    /   O peration     | Version:  v1912                                 |
|   \\  /    A nd           | Website:  www.openfoam.com                      |
|    \\/     M anipulation  |                                                 |
\*---------------------------------------------------------------------------*/
FoamFile
{
    version     2.0;
    format      ascii;
    class       volScalarField;
    location    "10";
    object      k;
}
// * * * * * * * * * * * * * * * * * * * * * * * * * * * * * * * * * * * * * //

dimensions      [0 2 -2 0 0 0 0];


internalField   nonuniform List<scalar> 
14268
(
1.14386e-06
1.14631e-06
1.14831e-06
1.14947e-06
1.14997e-06
1.14986e-06
1.14936e-06
1.14879e-06
1.14853e-06
1.14891e-06
1.15012e-06
1.15226e-06
1.15535e-06
1.1593e-06
1.16381e-06
1.16861e-06
1.17335e-06
1.17767e-06
1.18127e-06
1.18395e-06
1.18558e-06
1.18619e-06
1.18626e-06
1.18629e-06
1.18618e-06
1.18591e-06
1.1856e-06
1.1853e-06
1.18505e-06
1.18483e-06
1.18465e-06
1.18448e-06
1.18431e-06
1.18417e-06
1.18404e-06
1.18393e-06
1.18385e-06
1.18378e-06
1.18372e-06
1.18368e-06
1.18365e-06
1.18363e-06
1.18362e-06
1.18362e-06
1.18362e-06
1.18361e-06
1.18361e-06
1.18362e-06
1.18362e-06
1.18363e-06
1.18363e-06
1.18364e-06
1.18368e-06
1.18376e-06
1.18388e-06
1.18401e-06
1.18417e-06
1.18433e-06
1.18451e-06
1.18469e-06
1.18487e-06
1.18504e-06
1.18522e-06
1.18539e-06
1.18555e-06
1.1857e-06
1.18584e-06
1.18598e-06
1.1861e-06
1.18622e-06
1.18632e-06
1.18642e-06
1.18651e-06
1.18659e-06
1.18667e-06
1.18674e-06
1.1868e-06
1.18685e-06
1.1869e-06
1.18695e-06
1.18698e-06
1.18702e-06
1.18705e-06
1.18708e-06
1.1871e-06
1.18711e-06
4.03287e-07
4.0437e-07
4.05499e-07
4.06591e-07
4.07669e-07
4.08723e-07
4.09744e-07
4.10743e-07
4.1174e-07
4.1275e-07
4.13781e-07
4.14829e-07
4.15921e-07
4.17045e-07
4.1817e-07
4.19268e-07
4.2031e-07
4.2125e-07
4.22041e-07
4.2266e-07
4.23084e-07
4.23354e-07
4.23092e-07
4.21881e-07
4.19978e-07
4.1766e-07
4.15077e-07
4.12415e-07
4.0986e-07
4.07533e-07
4.05506e-07
4.03792e-07
4.0239e-07
4.01241e-07
4.00266e-07
3.99401e-07
3.98598e-07
3.97824e-07
3.97066e-07
3.9632e-07
3.95596e-07
3.94907e-07
3.94269e-07
3.93693e-07
3.93189e-07
3.92763e-07
3.92416e-07
3.92147e-07
3.91952e-07
3.91825e-07
3.91758e-07
3.91744e-07
3.91744e-07
3.91745e-07
3.91745e-07
3.91745e-07
3.91745e-07
3.91745e-07
3.91745e-07
3.91744e-07
3.91744e-07
3.91744e-07
3.91743e-07
3.91743e-07
3.91742e-07
3.91742e-07
3.91742e-07
3.91741e-07
3.91741e-07
3.91741e-07
3.9174e-07
3.9174e-07
3.9174e-07
3.9174e-07
3.9174e-07
3.9174e-07
3.91739e-07
3.91739e-07
3.91739e-07
3.91739e-07
3.91739e-07
3.91739e-07
3.91739e-07
3.91739e-07
3.91738e-07
3.91739e-07
3.92122e-07
3.92035e-07
3.91993e-07
3.91933e-07
3.91916e-07
3.91913e-07
3.91937e-07
3.91975e-07
3.92034e-07
3.92102e-07
3.92167e-07
3.92218e-07
3.92267e-07
3.9232e-07
3.9237e-07
3.92419e-07
3.92468e-07
3.9251e-07
3.92536e-07
3.92541e-07
3.92517e-07
3.9247e-07
3.92397e-07
3.92266e-07
3.921e-07
3.91934e-07
3.91798e-07
3.91691e-07
3.91611e-07
3.91561e-07
3.91526e-07
3.915e-07
3.91489e-07
3.91494e-07
3.91492e-07
3.91486e-07
3.91479e-07
3.91472e-07
3.91466e-07
3.91463e-07
3.91461e-07
3.91461e-07
3.91463e-07
3.91467e-07
3.91471e-07
3.91475e-07
3.9148e-07
3.91484e-07
3.91488e-07
3.91491e-07
3.91494e-07
3.91496e-07
3.91497e-07
3.91498e-07
3.91499e-07
3.91499e-07
3.91499e-07
3.91499e-07
3.91498e-07
3.91498e-07
3.91497e-07
3.91496e-07
3.91495e-07
3.91495e-07
3.91494e-07
3.91493e-07
3.91492e-07
3.91492e-07
3.91491e-07
3.91491e-07
3.9149e-07
3.91489e-07
3.91489e-07
3.91488e-07
3.91488e-07
3.91488e-07
3.91487e-07
3.91487e-07
3.91487e-07
3.91487e-07
3.91486e-07
3.91486e-07
3.91486e-07
3.91486e-07
3.91485e-07
3.91485e-07
3.91949e-07
3.91831e-07
3.9175e-07
3.9166e-07
3.916e-07
3.91571e-07
3.91569e-07
3.91596e-07
3.91649e-07
3.91719e-07
3.91789e-07
3.91844e-07
3.9189e-07
3.91934e-07
3.91965e-07
3.91985e-07
3.91999e-07
3.92001e-07
3.91985e-07
3.91949e-07
3.91888e-07
3.91813e-07
3.91733e-07
3.91632e-07
3.9152e-07
3.91426e-07
3.91366e-07
3.91337e-07
3.91327e-07
3.91337e-07
3.91351e-07
3.91362e-07
3.91379e-07
3.91404e-07
3.91417e-07
3.91423e-07
3.91425e-07
3.91426e-07
3.91427e-07
3.9143e-07
3.91433e-07
3.91438e-07
3.91445e-07
3.91452e-07
3.91459e-07
3.91466e-07
3.91472e-07
3.91478e-07
3.91484e-07
3.91488e-07
3.91492e-07
3.91495e-07
3.91497e-07
3.91499e-07
3.915e-07
3.915e-07
3.91501e-07
3.915e-07
3.915e-07
3.91499e-07
3.91499e-07
3.91498e-07
3.91497e-07
3.91496e-07
3.91495e-07
3.91494e-07
3.91493e-07
3.91493e-07
3.91492e-07
3.91491e-07
3.9149e-07
3.9149e-07
3.91489e-07
3.91489e-07
3.91488e-07
3.91488e-07
3.91487e-07
3.91487e-07
3.91487e-07
3.91486e-07
3.91486e-07
3.91486e-07
3.91485e-07
3.91485e-07
3.91485e-07
3.91485e-07
3.92029e-07
3.91889e-07
3.91784e-07
3.91676e-07
3.91594e-07
3.91555e-07
3.9155e-07
3.91581e-07
3.91646e-07
3.91732e-07
3.91821e-07
3.91894e-07
3.91952e-07
3.92004e-07
3.92038e-07
3.92055e-07
3.9206e-07
3.92048e-07
3.92015e-07
3.91959e-07
3.91876e-07
3.91781e-07
3.91684e-07
3.91569e-07
3.9145e-07
3.91353e-07
3.91295e-07
3.91268e-07
3.91263e-07
3.91281e-07
3.91304e-07
3.91324e-07
3.91348e-07
3.9138e-07
3.91397e-07
3.91405e-07
3.91409e-07
3.91411e-07
3.91412e-07
3.91416e-07
3.9142e-07
3.91427e-07
3.91434e-07
3.91443e-07
3.91452e-07
3.91461e-07
3.91469e-07
3.91477e-07
3.91483e-07
3.91489e-07
3.91494e-07
3.91498e-07
3.91501e-07
3.91503e-07
3.91504e-07
3.91505e-07
3.91505e-07
3.91505e-07
3.91505e-07
3.91504e-07
3.91503e-07
3.91503e-07
3.91501e-07
3.915e-07
3.91499e-07
3.91498e-07
3.91497e-07
3.91496e-07
3.91495e-07
3.91494e-07
3.91493e-07
3.91492e-07
3.91492e-07
3.91491e-07
3.9149e-07
3.9149e-07
3.91489e-07
3.91489e-07
3.91488e-07
3.91488e-07
3.91487e-07
3.91487e-07
3.91487e-07
3.91486e-07
3.91486e-07
3.91486e-07
3.9205e-07
3.91892e-07
3.91765e-07
3.91643e-07
3.91544e-07
3.91502e-07
3.91503e-07
3.9155e-07
3.91643e-07
3.91761e-07
3.91888e-07
3.91997e-07
3.92085e-07
3.92157e-07
3.92201e-07
3.92215e-07
3.92208e-07
3.92173e-07
3.92111e-07
3.92024e-07
3.91912e-07
3.91788e-07
3.91664e-07
3.91526e-07
3.91388e-07
3.91281e-07
3.91218e-07
3.91194e-07
3.91199e-07
3.91228e-07
3.91261e-07
3.91288e-07
3.91318e-07
3.91355e-07
3.91376e-07
3.91386e-07
3.91391e-07
3.91393e-07
3.91395e-07
3.91399e-07
3.91405e-07
3.91413e-07
3.91422e-07
3.91433e-07
3.91443e-07
3.91454e-07
3.91464e-07
3.91473e-07
3.91481e-07
3.91488e-07
3.91494e-07
3.91499e-07
3.91502e-07
3.91505e-07
3.91507e-07
3.91508e-07
3.91509e-07
3.91509e-07
3.91508e-07
3.91508e-07
3.91507e-07
3.91506e-07
3.91504e-07
3.91503e-07
3.91502e-07
3.91501e-07
3.91499e-07
3.91498e-07
3.91497e-07
3.91496e-07
3.91495e-07
3.91494e-07
3.91493e-07
3.91492e-07
3.91491e-07
3.9149e-07
3.9149e-07
3.91489e-07
3.91489e-07
3.91488e-07
3.91488e-07
3.91487e-07
3.91487e-07
3.91486e-07
3.91486e-07
3.91486e-07
3.92112e-07
3.91932e-07
3.91779e-07
3.91635e-07
3.91519e-07
3.91464e-07
3.91467e-07
3.91526e-07
3.91637e-07
3.91783e-07
3.91939e-07
3.92078e-07
3.92188e-07
3.92277e-07
3.92328e-07
3.92341e-07
3.92324e-07
3.92271e-07
3.92185e-07
3.92072e-07
3.91932e-07
3.91782e-07
3.91633e-07
3.91478e-07
3.91325e-07
3.91214e-07
3.9115e-07
3.91125e-07
3.91133e-07
3.91169e-07
3.9121e-07
3.91248e-07
3.91288e-07
3.91333e-07
3.91356e-07
3.91369e-07
3.91374e-07
3.91377e-07
3.91379e-07
3.91384e-07
3.91391e-07
3.914e-07
3.91411e-07
3.91423e-07
3.91436e-07
3.91448e-07
3.9146e-07
3.91471e-07
3.9148e-07
3.91489e-07
3.91495e-07
3.91501e-07
3.91505e-07
3.91508e-07
3.91511e-07
3.91512e-07
3.91513e-07
3.91513e-07
3.91513e-07
3.91512e-07
3.91511e-07
3.9151e-07
3.91508e-07
3.91507e-07
3.91505e-07
3.91504e-07
3.91502e-07
3.91501e-07
3.915e-07
3.91498e-07
3.91497e-07
3.91496e-07
3.91495e-07
3.91494e-07
3.91493e-07
3.91492e-07
3.91491e-07
3.9149e-07
3.9149e-07
3.91489e-07
3.91489e-07
3.91488e-07
3.91488e-07
3.91487e-07
3.91487e-07
3.91486e-07
3.92158e-07
3.91948e-07
3.91769e-07
3.916e-07
3.91468e-07
3.91406e-07
3.91416e-07
3.91491e-07
3.91639e-07
3.91823e-07
3.92024e-07
3.92206e-07
3.92348e-07
3.92458e-07
3.92517e-07
3.92526e-07
3.92491e-07
3.92414e-07
3.92299e-07
3.92152e-07
3.91977e-07
3.91795e-07
3.91613e-07
3.91434e-07
3.9126e-07
3.91134e-07
3.91062e-07
3.91041e-07
3.91064e-07
3.91117e-07
3.91171e-07
3.91216e-07
3.91264e-07
3.91312e-07
3.91338e-07
3.91351e-07
3.91357e-07
3.9136e-07
3.91363e-07
3.91368e-07
3.91375e-07
3.91386e-07
3.91399e-07
3.91413e-07
3.91428e-07
3.91442e-07
3.91456e-07
3.91468e-07
3.91479e-07
3.91488e-07
3.91496e-07
3.91503e-07
3.91508e-07
3.91511e-07
3.91514e-07
3.91516e-07
3.91516e-07
3.91517e-07
3.91516e-07
3.91516e-07
3.91514e-07
3.91513e-07
3.91512e-07
3.9151e-07
3.91508e-07
3.91507e-07
3.91505e-07
3.91503e-07
3.91502e-07
3.915e-07
3.91499e-07
3.91497e-07
3.91496e-07
3.91495e-07
3.91494e-07
3.91493e-07
3.91492e-07
3.91491e-07
3.9149e-07
3.9149e-07
3.91489e-07
3.91488e-07
3.91488e-07
3.91487e-07
3.91487e-07
3.91486e-07
3.92219e-07
3.91978e-07
3.91767e-07
3.91568e-07
3.91415e-07
3.91339e-07
3.91352e-07
3.91449e-07
3.91622e-07
3.9185e-07
3.9209e-07
3.92313e-07
3.92487e-07
3.92617e-07
3.92685e-07
3.92693e-07
3.92646e-07
3.92546e-07
3.924e-07
3.92218e-07
3.92008e-07
3.91788e-07
3.91584e-07
3.9138e-07
3.91188e-07
3.91059e-07
3.9099e-07
3.90972e-07
3.90997e-07
3.91052e-07
3.91115e-07
3.91171e-07
3.91235e-07
3.9129e-07
3.9132e-07
3.91335e-07
3.91341e-07
3.91344e-07
3.91346e-07
3.91352e-07
3.9136e-07
3.91372e-07
3.91387e-07
3.91403e-07
3.9142e-07
3.91436e-07
3.91452e-07
3.91466e-07
3.91478e-07
3.91489e-07
3.91498e-07
3.91505e-07
3.91511e-07
3.91515e-07
3.91518e-07
3.9152e-07
3.91521e-07
3.91521e-07
3.9152e-07
3.9152e-07
3.91518e-07
3.91517e-07
3.91515e-07
3.91513e-07
3.91511e-07
3.9151e-07
3.91508e-07
3.91506e-07
3.91504e-07
3.91502e-07
3.91501e-07
3.91499e-07
3.91498e-07
3.91497e-07
3.91495e-07
3.91494e-07
3.91493e-07
3.91492e-07
3.91491e-07
3.91491e-07
3.9149e-07
3.91489e-07
3.91489e-07
3.91488e-07
3.91488e-07
3.91487e-07
3.92287e-07
3.92011e-07
3.91766e-07
3.91535e-07
3.91359e-07
3.91272e-07
3.91288e-07
3.91419e-07
3.91632e-07
3.91911e-07
3.92206e-07
3.92482e-07
3.92699e-07
3.92855e-07
3.92933e-07
3.92934e-07
3.92865e-07
3.92733e-07
3.92549e-07
3.92327e-07
3.92076e-07
3.91817e-07
3.9158e-07
3.91338e-07
3.91121e-07
3.90974e-07
3.90887e-07
3.90869e-07
3.90914e-07
3.90998e-07
3.91079e-07
3.91146e-07
3.91219e-07
3.91276e-07
3.91306e-07
3.91321e-07
3.91325e-07
3.91327e-07
3.9133e-07
3.91336e-07
3.91345e-07
3.91358e-07
3.91375e-07
3.91393e-07
3.91412e-07
3.91431e-07
3.91448e-07
3.91464e-07
3.91477e-07
3.91489e-07
3.91499e-07
3.91507e-07
3.91513e-07
3.91518e-07
3.91521e-07
3.91524e-07
3.91525e-07
3.91525e-07
3.91524e-07
3.91524e-07
3.91522e-07
3.9152e-07
3.91519e-07
3.91517e-07
3.91515e-07
3.91512e-07
3.9151e-07
3.91508e-07
3.91506e-07
3.91504e-07
3.91503e-07
3.91501e-07
3.91499e-07
3.91498e-07
3.91497e-07
3.91495e-07
3.91494e-07
3.91493e-07
3.91492e-07
3.91491e-07
3.9149e-07
3.9149e-07
3.91489e-07
3.91488e-07
3.91488e-07
3.91487e-07
3.92369e-07
3.92045e-07
3.91756e-07
3.91481e-07
3.91271e-07
3.91174e-07
3.91195e-07
3.91348e-07
3.91613e-07
3.91946e-07
3.92301e-07
3.92632e-07
3.92898e-07
3.9308e-07
3.9317e-07
3.93167e-07
3.93077e-07
3.92911e-07
3.92684e-07
3.92409e-07
3.92106e-07
3.91806e-07
3.91539e-07
3.91268e-07
3.91028e-07
3.90877e-07
3.90809e-07
3.90803e-07
3.90853e-07
3.90935e-07
3.91024e-07
3.91099e-07
3.91188e-07
3.91253e-07
3.91289e-07
3.91305e-07
3.9131e-07
3.9131e-07
3.91313e-07
3.91319e-07
3.91329e-07
3.91344e-07
3.91363e-07
3.91384e-07
3.91405e-07
3.91425e-07
3.91445e-07
3.91462e-07
3.91477e-07
3.9149e-07
3.91501e-07
3.9151e-07
3.91517e-07
3.91522e-07
3.91526e-07
3.91528e-07
3.91529e-07
3.91529e-07
3.91529e-07
3.91528e-07
3.91526e-07
3.91524e-07
3.91522e-07
3.9152e-07
3.91518e-07
3.91515e-07
3.91513e-07
3.91511e-07
3.91509e-07
3.91507e-07
3.91505e-07
3.91503e-07
3.91501e-07
3.91499e-07
3.91498e-07
3.91496e-07
3.91495e-07
3.91494e-07
3.91493e-07
3.91492e-07
3.91491e-07
3.9149e-07
3.9149e-07
3.91489e-07
3.91488e-07
3.91488e-07
3.92472e-07
3.92094e-07
3.91758e-07
3.91442e-07
3.91202e-07
3.91092e-07
3.91123e-07
3.91313e-07
3.91637e-07
3.92038e-07
3.92469e-07
3.92868e-07
3.93191e-07
3.93404e-07
3.93506e-07
3.93493e-07
3.93373e-07
3.93165e-07
3.9289e-07
3.92565e-07
3.92222e-07
3.9188e-07
3.91563e-07
3.91244e-07
3.90976e-07
3.90801e-07
3.90705e-07
3.90682e-07
3.90747e-07
3.90864e-07
3.90976e-07
3.91077e-07
3.91184e-07
3.91251e-07
3.91286e-07
3.913e-07
3.91299e-07
3.91297e-07
3.91297e-07
3.91303e-07
3.91313e-07
3.91329e-07
3.9135e-07
3.91375e-07
3.91397e-07
3.9142e-07
3.91441e-07
3.9146e-07
3.91477e-07
3.91491e-07
3.91503e-07
3.91513e-07
3.9152e-07
3.91526e-07
3.9153e-07
3.91532e-07
3.91533e-07
3.91534e-07
3.91533e-07
3.91532e-07
3.9153e-07
3.91528e-07
3.91526e-07
3.91523e-07
3.91521e-07
3.91518e-07
3.91516e-07
3.91513e-07
3.91511e-07
3.91509e-07
3.91506e-07
3.91504e-07
3.91503e-07
3.91501e-07
3.91499e-07
3.91498e-07
3.91496e-07
3.91495e-07
3.91494e-07
3.91493e-07
3.91492e-07
3.91491e-07
3.9149e-07
3.91489e-07
3.91489e-07
3.91488e-07
3.9261e-07
3.92153e-07
3.91746e-07
3.91363e-07
3.9107e-07
3.90928e-07
3.90972e-07
3.91196e-07
3.91595e-07
3.92081e-07
3.92603e-07
3.93082e-07
3.9347e-07
3.93716e-07
3.9383e-07
3.93804e-07
3.9365e-07
3.9339e-07
3.93051e-07
3.92656e-07
3.92252e-07
3.91842e-07
3.91478e-07
3.91117e-07
3.90814e-07
3.90637e-07
3.9057e-07
3.90589e-07
3.90689e-07
3.9081e-07
3.90932e-07
3.91031e-07
3.91148e-07
3.91226e-07
3.91262e-07
3.91273e-07
3.91271e-07
3.91269e-07
3.91271e-07
3.91279e-07
3.91293e-07
3.91312e-07
3.91335e-07
3.9136e-07
3.91388e-07
3.91414e-07
3.91438e-07
3.91459e-07
3.91478e-07
3.91493e-07
3.91506e-07
3.91517e-07
3.91524e-07
3.9153e-07
3.91534e-07
3.91537e-07
3.91538e-07
3.91538e-07
3.91537e-07
3.91536e-07
3.91534e-07
3.91532e-07
3.91529e-07
3.91527e-07
3.91524e-07
3.91521e-07
3.91518e-07
3.91516e-07
3.91513e-07
3.91511e-07
3.91508e-07
3.91506e-07
3.91504e-07
3.91502e-07
3.915e-07
3.91499e-07
3.91497e-07
3.91496e-07
3.91494e-07
3.91493e-07
3.91492e-07
3.91491e-07
3.91491e-07
3.9149e-07
3.91489e-07
3.91488e-07
3.92788e-07
3.92274e-07
3.91806e-07
3.9137e-07
3.91046e-07
3.90924e-07
3.90993e-07
3.91262e-07
3.91739e-07
3.92327e-07
3.92949e-07
3.93518e-07
3.93975e-07
3.94257e-07
3.9437e-07
3.94307e-07
3.9409e-07
3.93759e-07
3.93352e-07
3.92889e-07
3.92425e-07
3.91963e-07
3.91548e-07
3.91143e-07
3.90829e-07
3.90633e-07
3.90534e-07
3.90524e-07
3.90607e-07
3.90751e-07
3.90893e-07
3.91028e-07
3.91155e-07
3.91231e-07
3.91278e-07
3.91293e-07
3.91291e-07
3.91286e-07
3.91284e-07
3.91288e-07
3.91296e-07
3.91313e-07
3.91337e-07
3.91364e-07
3.91388e-07
3.91413e-07
3.91437e-07
3.91457e-07
3.91476e-07
3.91492e-07
3.91505e-07
3.91516e-07
3.91525e-07
3.91531e-07
3.91536e-07
3.91539e-07
3.91541e-07
3.91541e-07
3.91541e-07
3.9154e-07
3.91538e-07
3.91536e-07
3.91533e-07
3.9153e-07
3.91527e-07
3.91525e-07
3.91522e-07
3.91519e-07
3.91516e-07
3.91513e-07
3.91511e-07
3.91508e-07
3.91506e-07
3.91504e-07
3.91502e-07
3.915e-07
3.91498e-07
3.91497e-07
3.91496e-07
3.91494e-07
3.91493e-07
3.91492e-07
3.91491e-07
3.9149e-07
3.9149e-07
3.91489e-07
3.92935e-07
3.92364e-07
3.91888e-07
3.91443e-07
3.9109e-07
3.90933e-07
3.90965e-07
3.91254e-07
3.91791e-07
3.92461e-07
3.93172e-07
3.9382e-07
3.94332e-07
3.94655e-07
3.94793e-07
3.94735e-07
3.94494e-07
3.94114e-07
3.93643e-07
3.93125e-07
3.92612e-07
3.92104e-07
3.91641e-07
3.91184e-07
3.90799e-07
3.9056e-07
3.90436e-07
3.90435e-07
3.90566e-07
3.9071e-07
3.90836e-07
3.90946e-07
3.91057e-07
3.91139e-07
3.91178e-07
3.91191e-07
3.91191e-07
3.91189e-07
3.91192e-07
3.91199e-07
3.91216e-07
3.91239e-07
3.9127e-07
3.91302e-07
3.91338e-07
3.91373e-07
3.91406e-07
3.91436e-07
3.91462e-07
3.91486e-07
3.91505e-07
3.91518e-07
3.91527e-07
3.91534e-07
3.91539e-07
3.91542e-07
3.91544e-07
3.91544e-07
3.91544e-07
3.91543e-07
3.91541e-07
3.91538e-07
3.91536e-07
3.91533e-07
3.9153e-07
3.91527e-07
3.91524e-07
3.91521e-07
3.91518e-07
3.91515e-07
3.91512e-07
3.9151e-07
3.91507e-07
3.91505e-07
3.91503e-07
3.91501e-07
3.91499e-07
3.91498e-07
3.91496e-07
3.91495e-07
3.91494e-07
3.91493e-07
3.91492e-07
3.91491e-07
3.9149e-07
3.91489e-07
3.93033e-07
3.92392e-07
3.91816e-07
3.91279e-07
3.90921e-07
3.90745e-07
3.90821e-07
3.91163e-07
3.9173e-07
3.9246e-07
3.93234e-07
3.93946e-07
3.94489e-07
3.94814e-07
3.94947e-07
3.94879e-07
3.94636e-07
3.9425e-07
3.93766e-07
3.93208e-07
3.92625e-07
3.92041e-07
3.91507e-07
3.91012e-07
3.90621e-07
3.90404e-07
3.90321e-07
3.90364e-07
3.9048e-07
3.90629e-07
3.908e-07
3.90994e-07
3.91169e-07
3.91283e-07
3.91317e-07
3.91318e-07
3.91308e-07
3.91299e-07
3.91295e-07
3.913e-07
3.91312e-07
3.91331e-07
3.91355e-07
3.91381e-07
3.9141e-07
3.91435e-07
3.91457e-07
3.91475e-07
3.9149e-07
3.91501e-07
3.91509e-07
3.91519e-07
3.91527e-07
3.91534e-07
3.91538e-07
3.91541e-07
3.91543e-07
3.91544e-07
3.91543e-07
3.91542e-07
3.9154e-07
3.91538e-07
3.91535e-07
3.91532e-07
3.91529e-07
3.91526e-07
3.91523e-07
3.9152e-07
3.91517e-07
3.91514e-07
3.91512e-07
3.91509e-07
3.91507e-07
3.91505e-07
3.91503e-07
3.91501e-07
3.91499e-07
3.91497e-07
3.91496e-07
3.91495e-07
3.91493e-07
3.91492e-07
3.91491e-07
3.91491e-07
3.9149e-07
3.91489e-07
3.93058e-07
3.92463e-07
3.91932e-07
3.91404e-07
3.90962e-07
3.90722e-07
3.90762e-07
3.91086e-07
3.91672e-07
3.92428e-07
3.93247e-07
3.94024e-07
3.94652e-07
3.95017e-07
3.95109e-07
3.94992e-07
3.94707e-07
3.94269e-07
3.93716e-07
3.93106e-07
3.92514e-07
3.91954e-07
3.91468e-07
3.91003e-07
3.9064e-07
3.90429e-07
3.90324e-07
3.9034e-07
3.90501e-07
3.90689e-07
3.90838e-07
3.91e-07
3.91119e-07
3.91175e-07
3.91202e-07
3.91201e-07
3.91184e-07
3.91171e-07
3.91167e-07
3.91173e-07
3.91184e-07
3.91212e-07
3.91248e-07
3.91288e-07
3.91321e-07
3.91355e-07
3.91389e-07
3.9142e-07
3.91448e-07
3.91473e-07
3.91495e-07
3.91513e-07
3.91527e-07
3.91537e-07
3.91543e-07
3.91547e-07
3.91549e-07
3.9155e-07
3.91549e-07
3.91547e-07
3.91545e-07
3.91542e-07
3.91539e-07
3.91535e-07
3.91532e-07
3.91529e-07
3.91525e-07
3.91522e-07
3.91519e-07
3.91516e-07
3.91513e-07
3.9151e-07
3.91508e-07
3.91505e-07
3.91503e-07
3.91501e-07
3.91499e-07
3.91498e-07
3.91496e-07
3.91495e-07
3.91494e-07
3.91493e-07
3.91492e-07
3.91491e-07
3.9149e-07
3.91489e-07
3.92749e-07
3.9225e-07
3.91689e-07
3.91092e-07
3.90649e-07
3.90455e-07
3.90506e-07
3.90824e-07
3.91323e-07
3.92095e-07
3.93022e-07
3.93953e-07
3.94716e-07
3.9521e-07
3.95411e-07
3.95294e-07
3.94971e-07
3.94534e-07
3.94015e-07
3.93426e-07
3.92812e-07
3.92183e-07
3.91621e-07
3.91085e-07
3.90654e-07
3.90402e-07
3.90288e-07
3.90297e-07
3.90392e-07
3.9054e-07
3.90727e-07
3.9093e-07
3.91085e-07
3.91203e-07
3.91274e-07
3.91305e-07
3.9131e-07
3.91311e-07
3.91317e-07
3.91333e-07
3.91357e-07
3.91383e-07
3.91414e-07
3.91443e-07
3.91482e-07
3.91513e-07
3.91539e-07
3.91562e-07
3.91579e-07
3.91592e-07
3.91601e-07
3.91602e-07
3.91602e-07
3.91601e-07
3.91599e-07
3.91596e-07
3.91593e-07
3.91588e-07
3.91583e-07
3.91578e-07
3.91573e-07
3.91567e-07
3.91561e-07
3.91556e-07
3.9155e-07
3.91545e-07
3.91539e-07
3.91534e-07
3.9153e-07
3.91525e-07
3.91521e-07
3.91518e-07
3.91514e-07
3.91511e-07
3.91508e-07
3.91505e-07
3.91503e-07
3.91501e-07
3.91499e-07
3.91497e-07
3.91496e-07
3.91494e-07
3.91493e-07
3.91492e-07
3.91491e-07
3.9149e-07
3.91053e-07
3.91567e-07
3.91376e-07
3.90909e-07
3.90369e-07
3.89894e-07
3.89601e-07
3.89553e-07
3.89828e-07
3.90475e-07
3.91622e-07
3.93058e-07
3.94344e-07
3.95176e-07
3.95535e-07
3.95524e-07
3.95159e-07
3.94597e-07
3.93938e-07
3.93223e-07
3.92549e-07
3.91928e-07
3.91388e-07
3.9088e-07
3.90489e-07
3.90287e-07
3.9021e-07
3.90254e-07
3.90439e-07
3.90681e-07
3.90872e-07
3.91064e-07
3.91219e-07
3.91303e-07
3.91319e-07
3.91291e-07
3.9124e-07
3.9119e-07
3.91152e-07
3.91123e-07
3.91103e-07
3.91105e-07
3.91119e-07
3.91143e-07
3.91156e-07
3.91182e-07
3.91208e-07
3.91233e-07
3.91259e-07
3.91282e-07
3.91305e-07
3.91334e-07
3.91359e-07
3.91381e-07
3.91399e-07
3.91414e-07
3.91427e-07
3.91438e-07
3.91447e-07
3.91454e-07
3.91461e-07
3.91466e-07
3.91471e-07
3.91474e-07
3.91478e-07
3.9148e-07
3.91482e-07
3.91484e-07
3.91485e-07
3.91486e-07
3.91487e-07
3.91488e-07
3.91488e-07
3.91488e-07
3.91488e-07
3.91488e-07
3.91488e-07
3.91488e-07
3.91488e-07
3.91488e-07
3.91487e-07
3.91487e-07
3.91487e-07
3.91487e-07
3.91487e-07
3.91486e-07
3.83383e-07
3.87239e-07
3.88171e-07
3.88314e-07
3.87715e-07
3.86908e-07
3.85896e-07
3.85025e-07
3.84068e-07
3.84133e-07
3.85874e-07
3.88899e-07
3.92013e-07
3.94254e-07
3.95369e-07
3.95621e-07
3.95414e-07
3.94926e-07
3.94336e-07
3.9368e-07
3.92984e-07
3.9226e-07
3.91621e-07
3.91027e-07
3.9055e-07
3.90256e-07
3.9014e-07
3.90147e-07
3.90297e-07
3.90455e-07
3.90561e-07
3.90714e-07
3.90857e-07
3.90957e-07
3.91014e-07
3.91037e-07
3.91054e-07
3.91084e-07
3.9113e-07
3.91188e-07
3.9126e-07
3.91344e-07
3.91431e-07
3.91513e-07
3.91588e-07
3.9165e-07
3.91704e-07
3.91747e-07
3.9178e-07
3.91808e-07
3.91823e-07
3.9182e-07
3.91812e-07
3.91802e-07
3.9179e-07
3.91778e-07
3.91764e-07
3.91749e-07
3.91734e-07
3.91719e-07
3.91703e-07
3.91687e-07
3.91672e-07
3.91657e-07
3.91642e-07
3.91628e-07
3.91615e-07
3.91603e-07
3.91591e-07
3.91581e-07
3.91571e-07
3.91562e-07
3.91553e-07
3.91546e-07
3.91539e-07
3.91533e-07
3.91527e-07
3.91522e-07
3.91518e-07
3.91514e-07
3.9151e-07
3.91507e-07
3.91504e-07
3.91502e-07
3.91499e-07
3.91497e-07
3.5819e-07
3.73128e-07
3.77602e-07
3.7997e-07
3.79258e-07
3.76662e-07
3.72802e-07
3.69304e-07
3.65878e-07
3.64355e-07
3.67341e-07
3.74509e-07
3.82776e-07
3.89529e-07
3.93599e-07
3.95256e-07
3.95457e-07
3.95024e-07
3.94296e-07
3.93491e-07
3.92731e-07
3.92042e-07
3.91449e-07
3.90923e-07
3.9051e-07
3.90307e-07
3.90268e-07
3.90332e-07
3.90471e-07
3.90673e-07
3.909e-07
3.91159e-07
3.91358e-07
3.91472e-07
3.91496e-07
3.91477e-07
3.91428e-07
3.91368e-07
3.91302e-07
3.91245e-07
3.91187e-07
3.91127e-07
3.91077e-07
3.91037e-07
3.9102e-07
3.91004e-07
3.90997e-07
3.90998e-07
3.91004e-07
3.91014e-07
3.91028e-07
3.91061e-07
3.91096e-07
3.91128e-07
3.91157e-07
3.91184e-07
3.91208e-07
3.91231e-07
3.91252e-07
3.91272e-07
3.9129e-07
3.91307e-07
3.91323e-07
3.91339e-07
3.91353e-07
3.91366e-07
3.91378e-07
3.91389e-07
3.91399e-07
3.91408e-07
3.91417e-07
3.91424e-07
3.91431e-07
3.91437e-07
3.91443e-07
3.91448e-07
3.91452e-07
3.91456e-07
3.9146e-07
3.91463e-07
3.91466e-07
3.91468e-07
3.9147e-07
3.91472e-07
3.91474e-07
3.91475e-07
2.84107e-07
3.27197e-07
3.41672e-07
3.50257e-07
3.48536e-07
3.42571e-07
3.33023e-07
3.25946e-07
3.17084e-07
3.11981e-07
3.17481e-07
3.33722e-07
3.54114e-07
3.72351e-07
3.85184e-07
3.91981e-07
3.94584e-07
3.9498e-07
3.94555e-07
3.93813e-07
3.93041e-07
3.92261e-07
3.91557e-07
3.90909e-07
3.9044e-07
3.9015e-07
3.90003e-07
3.89847e-07
3.90003e-07
3.90272e-07
3.90493e-07
3.90643e-07
3.90725e-07
3.90785e-07
3.90802e-07
3.90784e-07
3.90773e-07
3.90786e-07
3.90832e-07
3.90903e-07
3.91005e-07
3.91148e-07
3.91301e-07
3.91449e-07
3.91577e-07
3.91699e-07
3.91801e-07
3.91882e-07
3.91945e-07
3.91988e-07
3.92019e-07
3.92035e-07
3.92033e-07
3.92025e-07
3.92012e-07
3.91997e-07
3.91978e-07
3.91957e-07
3.91934e-07
3.9191e-07
3.91884e-07
3.91858e-07
3.91831e-07
3.91805e-07
3.9178e-07
3.91755e-07
3.91731e-07
3.91709e-07
3.91688e-07
3.91669e-07
3.9165e-07
3.91634e-07
3.91618e-07
3.91604e-07
3.91591e-07
3.91579e-07
3.91569e-07
3.91559e-07
3.9155e-07
3.91543e-07
3.91536e-07
3.9153e-07
3.91524e-07
3.91519e-07
3.91515e-07
3.91511e-07
1.44458e-07
2.12764e-07
2.44429e-07
2.68094e-07
2.65709e-07
2.54033e-07
2.33503e-07
2.22166e-07
2.07243e-07
1.98965e-07
2.07422e-07
2.37568e-07
2.82031e-07
3.24006e-07
3.56919e-07
3.77732e-07
3.88906e-07
3.93377e-07
3.94264e-07
3.9387e-07
3.93059e-07
3.92214e-07
3.91492e-07
3.9081e-07
3.90252e-07
3.8979e-07
3.89672e-07
3.89909e-07
3.8995e-07
3.89862e-07
3.89786e-07
3.89602e-07
3.895e-07
3.89849e-07
3.90175e-07
3.90259e-07
3.902e-07
3.90113e-07
3.89998e-07
3.89861e-07
3.89703e-07
3.89526e-07
3.8935e-07
3.89188e-07
3.89056e-07
3.88951e-07
3.88879e-07
3.88845e-07
3.88847e-07
3.88883e-07
3.88941e-07
3.89026e-07
3.89157e-07
3.89325e-07
3.89512e-07
3.89703e-07
3.8989e-07
3.9007e-07
3.90238e-07
3.90393e-07
3.90533e-07
3.90659e-07
3.9077e-07
3.90868e-07
3.90953e-07
3.91027e-07
3.91091e-07
3.91146e-07
3.91193e-07
3.91234e-07
3.91268e-07
3.91298e-07
3.91323e-07
3.91344e-07
3.91363e-07
3.91379e-07
3.91392e-07
3.91404e-07
3.91414e-07
3.91423e-07
3.9143e-07
3.91437e-07
3.91443e-07
3.91448e-07
3.91453e-07
3.91456e-07
4.7829e-08
8.25788e-08
1.09167e-07
1.30798e-07
1.22469e-07
1.04675e-07
8.75345e-08
8.59857e-08
8.07912e-08
8.16035e-08
9.10984e-08
1.11674e-07
1.59439e-07
2.20885e-07
2.87893e-07
3.33599e-07
3.63292e-07
3.81003e-07
3.89105e-07
3.91534e-07
3.91825e-07
3.91246e-07
3.90357e-07
3.88905e-07
3.85307e-07
3.78345e-07
3.6764e-07
3.54759e-07
3.46322e-07
3.45885e-07
3.50181e-07
3.58377e-07
3.662e-07
3.71329e-07
3.73289e-07
3.73118e-07
3.72177e-07
3.70991e-07
3.69623e-07
3.68146e-07
3.66652e-07
3.65238e-07
3.63983e-07
3.62944e-07
3.62148e-07
3.61608e-07
3.61312e-07
3.61239e-07
3.61361e-07
3.61642e-07
3.62072e-07
3.62858e-07
3.63963e-07
3.653e-07
3.66798e-07
3.684e-07
3.7006e-07
3.71741e-07
3.73413e-07
3.75049e-07
3.76626e-07
3.78131e-07
3.79551e-07
3.80882e-07
3.82118e-07
3.83258e-07
3.84304e-07
3.85259e-07
3.86124e-07
3.86906e-07
3.87609e-07
3.88239e-07
3.88801e-07
3.893e-07
3.89741e-07
3.90131e-07
3.90474e-07
3.90768e-07
3.90983e-07
3.91127e-07
3.9122e-07
3.91291e-07
3.91344e-07
3.91385e-07
3.91416e-07
3.91438e-07
1.50716e-08
2.45855e-08
2.84276e-08
3.32909e-08
3.15151e-08
2.84635e-08
2.21043e-08
1.71912e-08
1.48818e-08
1.83704e-08
2.67078e-08
4.14103e-08
6.62971e-08
1.06321e-07
1.73775e-07
2.48274e-07
2.98423e-07
3.3292e-07
3.61958e-07
3.76727e-07
3.80417e-07
3.79624e-07
3.76237e-07
3.68305e-07
3.5054e-07
3.21071e-07
2.84962e-07
2.564e-07
2.40374e-07
2.35371e-07
2.34561e-07
2.34531e-07
2.34916e-07
2.3539e-07
2.35681e-07
2.35602e-07
2.3504e-07
2.3401e-07
2.3261e-07
2.30998e-07
2.29345e-07
2.27777e-07
2.26399e-07
2.25287e-07
2.24468e-07
2.23949e-07
2.23717e-07
2.2375e-07
2.24021e-07
2.24499e-07
2.25149e-07
2.25907e-07
2.26757e-07
2.27695e-07
2.28711e-07
2.29793e-07
2.30929e-07
2.32107e-07
2.33315e-07
2.34543e-07
2.35783e-07
2.37025e-07
2.38263e-07
2.39491e-07
2.40705e-07
2.419e-07
2.43075e-07
2.44226e-07
2.45352e-07
2.46454e-07
2.47529e-07
2.48579e-07
2.49603e-07
2.50602e-07
2.51577e-07
2.52529e-07
2.53459e-07
2.60401e-07
2.74512e-07
2.87529e-07
2.99441e-07
3.10249e-07
3.19996e-07
3.28737e-07
3.36543e-07
3.43476e-07
6.63027e-09
6.60404e-09
6.89453e-09
5.74346e-09
5.49634e-09
5.38631e-09
3.72048e-09
1.4716e-09
1.41626e-10
3.59766e-10
1.74579e-09
6.46674e-09
1.59796e-08
3.54795e-08
7.4559e-08
1.44433e-07
2.28129e-07
2.64693e-07
2.84769e-07
3.07982e-07
3.23997e-07
3.25809e-07
3.15912e-07
2.93692e-07
2.62155e-07
2.38879e-07
2.26999e-07
2.18282e-07
2.14409e-07
2.11731e-07
2.09077e-07
2.07707e-07
2.07713e-07
2.08204e-07
2.08557e-07
2.08461e-07
2.07798e-07
2.06598e-07
2.04973e-07
2.03176e-07
2.01437e-07
1.99864e-07
1.98504e-07
1.97347e-07
1.96364e-07
1.95504e-07
1.94743e-07
1.94077e-07
1.93519e-07
1.93089e-07
1.92803e-07
1.92648e-07
1.92589e-07
1.92595e-07
1.92642e-07
1.92715e-07
1.92801e-07
1.92892e-07
1.92983e-07
1.93069e-07
1.93148e-07
1.93219e-07
1.93284e-07
1.93342e-07
1.93393e-07
1.93438e-07
1.93479e-07
1.93514e-07
1.93545e-07
1.93572e-07
1.93596e-07
1.93617e-07
1.93635e-07
1.93651e-07
1.93665e-07
1.93677e-07
1.93688e-07
1.93697e-07
1.93704e-07
1.93711e-07
1.93717e-07
1.93722e-07
1.93726e-07
1.93729e-07
1.93733e-07
1.93735e-07
6.46281e-09
3.23381e-09
3.74231e-09
3.12067e-09
2.83702e-09
2.19505e-09
1.16367e-09
6.07967e-11
1.59057e-10
3.92011e-10
4.1058e-10
3.508e-10
1.25877e-09
5.31321e-09
1.77796e-08
5.1278e-08
1.48795e-07
2.29017e-07
2.43782e-07
2.44867e-07
2.44561e-07
2.43606e-07
2.40185e-07
2.33297e-07
2.24185e-07
2.17826e-07
2.14277e-07
2.10883e-07
2.03228e-07
1.95522e-07
1.96634e-07
2.01574e-07
2.04882e-07
2.05458e-07
2.02894e-07
1.9801e-07
1.91654e-07
1.84331e-07
1.76724e-07
1.69302e-07
1.62483e-07
1.56487e-07
1.51099e-07
1.46766e-07
1.44097e-07
1.43351e-07
1.44644e-07
1.47824e-07
1.52443e-07
1.57865e-07
1.63422e-07
1.6851e-07
1.73002e-07
1.76886e-07
1.80177e-07
1.82914e-07
1.85149e-07
1.86943e-07
1.88367e-07
1.89485e-07
1.90353e-07
1.91021e-07
1.91531e-07
1.91917e-07
1.92209e-07
1.92427e-07
1.92592e-07
1.92716e-07
1.9281e-07
1.92883e-07
1.9294e-07
1.92986e-07
1.93024e-07
1.93058e-07
1.93087e-07
1.93114e-07
1.93139e-07
1.93163e-07
1.93186e-07
1.93208e-07
1.9323e-07
1.9325e-07
1.9327e-07
1.93289e-07
1.93308e-07
1.93325e-07
4.64605e-08
1.82042e-08
6.79613e-09
2.47135e-09
1.99944e-09
2.58087e-09
3.56927e-09
7.34797e-09
1.5343e-08
2.38188e-08
2.48083e-08
1.57782e-08
4.90325e-09
1.4831e-09
2.14749e-09
7.64953e-09
4.07747e-08
1.68791e-07
2.40629e-07
2.52761e-07
2.50937e-07
2.51368e-07
2.53278e-07
2.53116e-07
2.53258e-07
2.52663e-07
2.49499e-07
2.32837e-07
1.92279e-07
1.88766e-07
1.93324e-07
1.96577e-07
1.96417e-07
1.91439e-07
1.84728e-07
1.79507e-07
1.77294e-07
1.76908e-07
1.76911e-07
1.80183e-07
1.9812e-07
2.10763e-07
2.14318e-07
2.17582e-07
2.20112e-07
2.2174e-07
2.22424e-07
2.22247e-07
2.2138e-07
2.2005e-07
2.18485e-07
2.16833e-07
2.15155e-07
2.13496e-07
2.11889e-07
2.10353e-07
2.08899e-07
2.07533e-07
2.06255e-07
2.05064e-07
2.03959e-07
2.02936e-07
2.01993e-07
2.01124e-07
2.00327e-07
1.99599e-07
1.98934e-07
1.98331e-07
1.97784e-07
1.97291e-07
1.96847e-07
1.96448e-07
1.96092e-07
1.95775e-07
1.95493e-07
1.95244e-07
1.95023e-07
1.94829e-07
1.94659e-07
1.9451e-07
1.9438e-07
1.94267e-07
1.94169e-07
1.94084e-07
1.9401e-07
1.93947e-07
1.94444e-07
1.08355e-07
5.69295e-08
3.20739e-08
2.57685e-08
3.53067e-08
5.27167e-08
8.5704e-08
1.2213e-07
1.43934e-07
1.44106e-07
1.17369e-07
6.82655e-08
2.52816e-08
3.48928e-09
5.99396e-10
9.89286e-10
3.24052e-08
1.68261e-07
2.59357e-07
3.03937e-07
3.21845e-07
3.31804e-07
3.26445e-07
2.91999e-07
2.12313e-07
2.12145e-07
2.04052e-07
2.02708e-07
2.12177e-07
2.20902e-07
2.22046e-07
2.1931e-07
2.16928e-07
2.17307e-07
2.20511e-07
2.25835e-07
2.32323e-07
2.39202e-07
2.45789e-07
2.50895e-07
2.82881e-07
3.1142e-07
3.34331e-07