/*--------------------------------*- C++ -*----------------------------------*\
| =========                 |                                                 |
| \\      /  F ield         | OpenFOAM: The Open Source CFD Toolbox           |
|  \\    /   O peration     | Version:  v1912                                 |
|   \\  /    A nd           | Website:  www.openfoam.com                      |
|    \\/     M anipulation  |                                                 |
\*---------------------------------------------------------------------------*/
FoamFile
{
    version     2.0;
    format      ascii;
    class       volVectorField;
    location    "10";
    object      U;
}
// * * * * * * * * * * * * * * * * * * * * * * * * * * * * * * * * * * * * * //

dimensions      [0 1 -1 0 0 0 0];


internalField   nonuniform List<vector> 
14268
(
(-0.395662 -0.0103663 0)
(-0.346013 -0.00954412 0)
(-0.300255 -0.00825774 0)
(-0.262512 -0.00679947 0)
(-0.23179 -0.00546538 0)
(-0.207505 -0.00451085 0)
(-0.186791 -0.00412912 0)
(-0.166591 -0.00439748 0)
(-0.143328 -0.00527706 0)
(-0.11382 -0.00662802 0)
(-0.0764177 -0.0082295 0)
(-0.0310286 -0.00978905 0)
(0.0228087 -0.0110555 0)
(0.0830309 -0.0118971 0)
(0.146122 -0.0121288 0)
(0.209038 -0.0116991 0)
(0.268193 -0.0106337 0)
(0.320406 -0.00901948 0)
(0.362988 -0.00698744 0)
(0.39411 -0.00469285 0)
(0.412707 -0.00230552 0)
(0.418666 8.10125e-06 0)
(0.413041 0.00210119 0)
(0.396652 0.00391071 0)
(0.371597 0.00528705 0)
(0.340684 0.00620713 0)
(0.306327 0.00668072 0)
(0.270642 0.00675226 0)
(0.235552 0.00650518 0)
(0.202469 0.00603544 0)
(0.172263 0.00544387 0)
(0.145297 0.00481675 0)
(0.121588 0.00422441 0)
(0.10082 0.00370943 0)
(0.0825065 0.00329236 0)
(0.0661079 0.00297032 0)
(0.0511612 0.00272624 0)
(0.0373236 0.00253478 0)
(0.0243929 0.00237162 0)
(0.0122847 0.00221631 0)
(0.00100383 0.002055 0)
(-0.00937989 0.0018772 0)
(-0.0187795 0.00168401 0)
(-0.0271232 0.00147762 0)
(-0.0343515 0.00126281 0)
(-0.0404357 0.0010456 0)
(-0.0453804 0.000832183 0)
(-0.0492207 0.000627925 0)
(-0.0520174 0.000437207 0)
(-0.0538513 0.000263193 0)
(-0.0548166 0.000107742 0)
(-0.0550151 -2.86085e-05 0)
(-0.0545503 -0.000144913 0)
(-0.0535263 -0.000242052 0)
(-0.0520408 -0.000321093 0)
(-0.0501857 -0.000383404 0)
(-0.048045 -0.000430547 0)
(-0.0456943 -0.000464175 0)
(-0.0432001 -0.000485962 0)
(-0.0406203 -0.000497543 0)
(-0.0380042 -0.000500477 0)
(-0.0353931 -0.000496219 0)
(-0.0328212 -0.000486103 0)
(-0.0303156 -0.000471328 0)
(-0.0278979 -0.00045296 0)
(-0.0255841 -0.000431934 0)
(-0.0233859 -0.000409055 0)
(-0.0213112 -0.000385017 0)
(-0.0193646 -0.000360399 0)
(-0.017548 -0.000335674 0)
(-0.0158609 -0.000311229 0)
(-0.0143009 -0.000287367 0)
(-0.0128644 -0.000264324 0)
(-0.0115466 -0.000242275 0)
(-0.0103417 -0.000221345 0)
(-0.00924378 -0.000201618 0)
(-0.00824625 -0.000183142 0)
(-0.00734248 -0.000165935 0)
(-0.00652575 -0.000149997 0)
(-0.00578944 -0.000135309 0)
(-0.00512702 -0.00012185 0)
(-0.00453202 -0.000109591 0)
(-0.00399843 -9.85735e-05 0)
(-0.00351863 -8.8801e-05 0)
(-0.00308928 -8.14254e-05 0)
(-0.0026744 -7.58777e-05 0)
(-0.395465 -0.0294527 0)
(-0.345398 -0.0271961 0)
(-0.299385 -0.0235949 0)
(-0.2616 -0.0194024 0)
(-0.231051 -0.0154948 0)
(-0.207125 -0.0126346 0)
(-0.186891 -0.0114177 0)
(-0.167209 -0.012122 0)
(-0.14441 -0.0146687 0)
(-0.115231 -0.0186743 0)
(-0.0779494 -0.0235037 0)
(-0.0324474 -0.0282812 0)
(0.0216785 -0.0322475 0)
(0.0823422 -0.0349807 0)
(0.145987 -0.0359094 0)
(0.209482 -0.0348491 0)
(0.269179 -0.031867 0)
(0.321846 -0.0271986 0)
(0.364754 -0.0212315 0)
(0.396057 -0.0144258 0)
(0.414683 -0.00729537 0)
(0.420544 -0.000334275 0)
(0.41471 0.00594571 0)
(0.398 0.0114263 0)
(0.372583 0.0156241 0)
(0.341301 0.0184769 0)
(0.306595 0.0199768 0)
(0.270613 0.0202572 0)
(0.235298 0.0195554 0)
(0.202071 0.0181615 0)
(0.171797 0.0163759 0)
(0.144827 0.0144681 0)
(0.121162 0.0126652 0)
(0.100463 0.0111064 0)
(0.0822246 0.00985227 0)
(0.0658922 0.00888869 0)
(0.0509953 0.0081613 0)
(0.0371883 0.00759278 0)
(0.0242714 0.00710872 0)
(0.0121639 0.00664821 0)
(0.000874408 0.00616818 0)
(-0.0095215 0.00563774 0)
(-0.0189321 0.00506012 0)
(-0.0272841 0.00444213 0)
(-0.0345167 0.00379839 0)
(-0.0406005 0.00314724 0)
(-0.0455404 0.00250704 0)
(-0.0493721 0.00189414 0)
(-0.0521575 0.00132173 0)
(-0.053978 0.000799334 0)
(-0.0549289 0.000332794 0)
(-0.0551125 -7.51809e-05 0)
(-0.054633 -0.000423679 0)
(-0.0535948 -0.000714802 0)
(-0.0520962 -0.000951651 0)
(-0.050229 -0.00113832 0)
(-0.0480774 -0.0012795 0)
(-0.0457171 -0.00138016 0)
(-0.0432146 -0.00144533 0)
(-0.0406276 -0.00147993 0)
(-0.0380054 -0.00148861 0)
(-0.0353894 -0.00147577 0)
(-0.0328135 -0.00144538 0)
(-0.0303048 -0.00140105 0)
(-0.0278847 -0.00134598 0)
(-0.0255692 -0.00128296 0)
(-0.0233698 -0.00121441 0)
(-0.0212945 -0.0011424 0)
(-0.0193477 -0.00106867 0)
(-0.0175312 -0.000994638 0)
(-0.0158444 -0.000921455 0)
(-0.0142849 -0.000850034 0)
(-0.0128491 -0.000781078 0)
(-0.011532 -0.000715112 0)
(-0.0103281 -0.000652511 0)
(-0.00923106 -0.000593522 0)
(-0.00823449 -0.000538286 0)
(-0.00733167 -0.000486863 0)
(-0.00651591 -0.000439246 0)
(-0.00578053 -0.000395381 0)
(-0.00511903 -0.000355199 0)
(-0.00452496 -0.00031861 0)
(-0.00399232 -0.000285712 0)
(-0.00351389 -0.000256455 0)
(-0.00308615 -0.000233472 0)
(-0.0026884 -0.000214896 0)
(-0.394794 -0.0498573 0)
(-0.343881 -0.0459538 0)
(-0.297402 -0.0397592 0)
(-0.259603 -0.0325966 0)
(-0.229466 -0.0259546 0)
(-0.206301 -0.0211226 0)
(-0.187037 -0.0191053 0)
(-0.168362 -0.020346 0)
(-0.146431 -0.0247034 0)
(-0.117835 -0.0315005 0)
(-0.0807293 -0.0396581 0)
(-0.0349514 -0.0477018 0)
(0.0197638 -0.0543476 0)
(0.0812876 -0.0588747 0)
(0.145982 -0.0603379 0)
(0.210553 -0.0584569 0)
(0.271241 -0.0533465 0)
(0.324728 -0.0454197 0)
(0.368222 -0.0353344 0)
(0.39984 -0.023872 0)
(0.418506 -0.011894 0)
(0.424163 -0.000237822 0)
(0.417904 0.0102836 0)
(0.400581 0.0194216 0)
(0.374467 0.0263883 0)
(0.34247 0.0310803 0)
(0.307085 0.0335133 0)
(0.270523 0.0339074 0)
(0.234772 0.0326706 0)
(0.201266 0.0302889 0)
(0.170862 0.0272719 0)
(0.14389 0.0240702 0)
(0.120314 0.0210559 0)
(0.0997544 0.018456 0)
(0.081666 0.0163702 0)
(0.0654665 0.0147732 0)
(0.0506692 0.0135723 0)
(0.0369237 0.0126361 0)
(0.0240338 0.0118387 0)
(0.0119271 0.0110785 0)
(0.000619653 0.0102819 0)
(-0.00980116 0.00939881 0)
(-0.0192341 0.00843474 0)
(-0.0276029 0.00740225 0)
(-0.0348439 0.0063263 0)
(-0.0409267 0.00523793 0)
(-0.045857 0.00416818 0)
(-0.0496715 0.00314443 0)
(-0.052434 0.00218883 0)
(-0.0542277 0.00131718 0)
(-0.0551493 0.000539038 0)
(-0.0553029 -0.000141278 0)
(-0.0547941 -0.000721865 0)
(-0.0537277 -0.00120657 0)
(-0.0522026 -0.00160066 0)
(-0.0503113 -0.00191102 0)
(-0.048138 -0.00214551 0)
(-0.0457584 -0.00231245 0)
(-0.0432392 -0.00242026 0)
(-0.0406379 -0.00247713 0)
(-0.0380038 -0.00249087 0)
(-0.0353779 -0.00246877 0)
(-0.0327941 -0.00241749 0)
(-0.0302792 -0.00234304 0)
(-0.0278543 -0.00225075 0)
(-0.0255354 -0.00214526 0)
(-0.0233338 -0.00203061 0)
(-0.0212571 -0.00191026 0)
(-0.0193098 -0.00178708 0)
(-0.0174934 -0.00166345 0)
(-0.0158073 -0.00154127 0)
(-0.0142489 -0.00142205 0)
(-0.0128145 -0.00130698 0)
(-0.011499 -0.00119691 0)
(-0.0102968 -0.00109248 0)
(-0.00920168 -0.000994075 0)
(-0.00820702 -0.000901944 0)
(-0.00730613 -0.000816177 0)
(-0.00649228 -0.00073676 0)
(-0.00575878 -0.000663601 0)
(-0.00509912 -0.000596574 0)
(-0.00450688 -0.000535521 0)
(-0.00397607 -0.000480528 0)
(-0.00350002 -0.00043146 0)
(-0.00307476 -0.00039113 0)
(-0.0026893 -0.000356991 0)
(-0.393778 -0.0700977 0)
(-0.34158 -0.0644622 0)
(-0.294382 -0.0555593 0)
(-0.256528 -0.0452738 0)
(-0.22699 -0.0357208 0)
(-0.204971 -0.0287497 0)
(-0.187192 -0.0257986 0)
(-0.17008 -0.0275281 0)
(-0.149515 -0.0337435 0)
(-0.12186 -0.0434682 0)
(-0.0850712 -0.0551648 0)
(-0.0389112 -0.0667421 0)
(0.0166865 -0.076341 0)
(0.0795298 -0.0829055 0)
(0.145846 -0.0850953 0)
(0.212089 -0.0825268 0)
(0.274326 -0.0753603 0)
(0.329099 -0.0641835 0)
(0.373508 -0.0499339 0)
(0.405619 -0.0337215 0)
(0.424343 -0.0167768 0)
(0.429696 -0.000295994 0)
(0.422789 0.0146026 0)
(0.404508 0.0275227 0)
(0.377311 0.0373598 0)
(0.344214 0.043971 0)
(0.307797 0.0473533 0)
(0.270359 0.0478372 0)
(0.233951 0.0460068 0)
(0.200027 0.0425656 0)
(0.169432 0.038242 0)
(0.142462 0.0336805 0)
(0.119029 0.0294092 0)
(0.0986846 0.0257463 0)
(0.0808281 0.0228267 0)
(0.0648318 0.0206078 0)
(0.0501854 0.0189506 0)
(0.0365315 0.0176647 0)
(0.0236812 0.0165691 0)
(0.011574 0.0155196 0)
(0.000237948 0.0144121 0)
(-0.0102215 0.0131781 0)
(-0.0196888 0.011826 0)
(-0.0280833 0.0103756 0)
(-0.0353371 0.00886323 0)
(-0.0414186 0.00733331 0)
(-0.046334 0.00583016 0)
(-0.0501224 0.00439246 0)
(-0.0528502 0.00305136 0)
(-0.0546034 0.00182906 0)
(-0.0554813 0.000738381 0)
(-0.0555898 -0.000214377 0)
(-0.0550366 -0.00102675 0)
(-0.0539276 -0.00170439 0)
(-0.0523628 -0.00225482 0)
(-0.0504351 -0.00268781 0)
(-0.0482291 -0.00301448 0)
(-0.0458208 -0.00324656 0)
(-0.0432765 -0.00339587 0)
(-0.0406538 -0.00347393 0)
(-0.0380017 -0.0034917 0)
(-0.0353611 -0.0034594 0)
(-0.0327653 -0.00338638 0)
(-0.030241 -0.00328104 0)
(-0.0278091 -0.00315084 0)
(-0.0254851 -0.00300231 0)
(-0.0232801 -0.00284108 0)
(-0.0212016 -0.00267197 0)
(-0.0192535 -0.00249902 0)
(-0.0174374 -0.00232552 0)
(-0.0157522 -0.00215414 0)
(-0.0141955 -0.00198699 0)
(-0.0127632 -0.0018257 0)
(-0.0114501 -0.00167147 0)
(-0.0102506 -0.00152517 0)
(-0.00915824 -0.00138735 0)
(-0.00816646 -0.00125835 0)
(-0.00726847 -0.00113827 0)
(-0.00645749 -0.00102711 0)
(-0.00572681 -0.000924708 0)
(-0.0050699 -0.000830892 0)
(-0.00448039 -0.000745417 0)
(-0.00395229 -0.000668304 0)
(-0.00347942 -0.000599301 0)
(-0.00305737 -0.000540859 0)
(-0.00268029 -0.000490258 0)
(-0.392302 -0.0913234 0)
(-0.33836 -0.0837182 0)
(-0.290183 -0.0718119 0)
(-0.252274 -0.0580959 0)
(-0.223574 -0.0453794 0)
(-0.203129 -0.0361122 0)
(-0.187372 -0.0321963 0)
(-0.172376 -0.0344879 0)
(-0.153648 -0.0427447 0)
(-0.127242 -0.0556269 0)
(-0.0908661 -0.0711043 0)
(-0.0441689 -0.086439 0)
(0.0126312 -0.0991282 0)
(0.0772495 -0.107784 0)
(0.145731 -0.110649 0)
(0.214191 -0.107275 0)
(0.278477 -0.0978719 0)
(0.334947 -0.0832331 0)
(0.380565 -0.0645952 0)
(0.413327 -0.0434286 0)
(0.43213 -0.0213381 0)
(0.437072 9.42364e-05 0)
(0.429292 0.0194607 0)
(0.409747 0.0361906 0)
(0.381116 0.0488724 0)
(0.346551 0.0573257 0)
(0.308734 0.0615864 0)
(0.270104 0.0620738 0)
(0.2328 0.0595606 0)
(0.198314 0.0549628 0)
(0.167473 0.049239 0)
(0.140523 0.0432446 0)
(0.117295 0.037671 0)
(0.0972538 0.0329276 0)
(0.0797162 0.0291791 0)
(0.0639964 0.0263573 0)
(0.049553 0.0242695 0)
(0.0360204 0.0226592 0)
(0.0232202 0.0212875 0)
(0.011109 0.0199633 0)
(-0.00026848 0.0185527 0)
(-0.0107821 0.0169696 0)
(-0.020297 0.0152269 0)
(-0.0287267 0.0133535 0)
(-0.0359979 0.0113983 0)
(-0.0420773 0.00942063 0)
(-0.0469725 0.00747844 0)
(-0.0507256 0.00562242 0)
(-0.0534066 0.00389247 0)
(-0.0551051 0.00231758 0)
(-0.0559239 0.000913259 0)
(-0.0559718 -0.000311362 0)
(-0.0553593 -0.0013548 0)
(-0.0541935 -0.00222421 0)
(-0.0525756 -0.00292951 0)
(-0.0505994 -0.00348348 0)
(-0.0483499 -0.0039006 0)
(-0.0459031 -0.00419607 0)
(-0.0433255 -0.00438519 0)
(-0.0406743 -0.00448284 0)
(-0.0379983 -0.00450316 0)
(-0.035338 -0.00445931 0)
(-0.0327264 -0.00436333 0)
(-0.0301898 -0.00422604 0)
(-0.0277486 -0.00405702 0)
(-0.0254179 -0.00386466 0)
(-0.0232085 -0.00365618 0)
(-0.0211274 -0.00343779 0)
(-0.0191784 -0.00321462 0)
(-0.0173626 -0.00299091 0)
(-0.0156789 -0.00277006 0)
(-0.0141244 -0.00255478 0)
(-0.0126948 -0.00234713 0)
(-0.011385 -0.00214865 0)
(-0.0101891 -0.00196043 0)
(-0.00910047 -0.00178319 0)
(-0.00811254 -0.00161732 0)
(-0.00721842 -0.00146297 0)
(-0.00641127 -0.00132011 0)
(-0.00568436 -0.00118853 0)
(-0.00503111 -0.00106798 0)
(-0.00444522 -0.000958118 0)
(-0.00392066 -0.000858859 0)
(-0.00345168 -0.000769812 0)
(-0.00303341 -0.000692831 0)
(-0.00266294 -0.000625259 0)
(-0.390308 -0.113264 0)
(-0.334114 -0.1034 0)
(-0.284678 -0.0881238 0)
(-0.246698 -0.0705797 0)
(-0.21908 -0.0543237 0)
(-0.200674 -0.0424636 0)
(-0.187543 -0.0374133 0)
(-0.175308 -0.0402843 0)
(-0.158981 -0.0507443 0)
(-0.134215 -0.0670915 0)
(-0.0984021 -0.0867348 0)
(-0.0510237 -0.106254 0)
(0.00732917 -0.1224 0)
(0.0742453 -0.133422 0)
(0.145527 -0.137129 0)
(0.216852 -0.133004 0)
(0.283783 -0.12132 0)
(0.342436 -0.103088 0)
(0.389598 -0.0798701 0)
(0.423175 -0.0535122 0)
(0.442059 -0.0260318 0)
(0.446457 0.000571887 0)
(0.437529 0.0246577 0)
(0.416337 0.0453709 0)
(0.385839 0.0610151 0)
(0.34938 0.0713652 0)
(0.3098 0.0764407 0)
(0.269685 0.0768036 0)
(0.231282 0.0734425 0)
(0.196108 0.0675319 0)
(0.164972 0.0602789 0)
(0.138059 0.0527578 0)
(0.115105 0.0458236 0)
(0.095459 0.0399753 0)
(0.078335 0.0354034 0)
(0.0629698 0.0320044 0)
(0.0487829 0.0295203 0)
(0.0354005 0.0276193 0)
(0.0226587 0.0259999 0)
(0.0105368 0.02442 0)
(-0.000897521 0.0227161 0)
(-0.0114829 0.0207862 0)
(-0.0210603 0.0186492 0)
(-0.0295354 0.0163459 0)
(-0.0368289 0.0139397 0)
(-0.0429055 0.011506 0)
(-0.0477747 0.00911749 0)
(-0.0514827 0.00683727 0)
(-0.0541041 0.00471451 0)
(-0.0557333 0.00278426 0)
(-0.0564778 0.00106521 0)
(-0.0564493 -0.000431758 0)
(-0.0557621 -0.00170567 0)
(-0.0545249 -0.00276557 0)
(-0.0528404 -0.003624 0)
(-0.0508034 -0.00429694 0)
(-0.0484994 -0.00480236 0)
(-0.0460046 -0.00515907 0)
(-0.0433853 -0.00538588 0)
(-0.0406986 -0.00550109 0)
(-0.0379928 -0.00552206 0)
(-0.035308 -0.00546492 0)
(-0.0326768 -0.0053444 0)
(-0.0301249 -0.00517375 0)
(-0.0276721 -0.00496467 0)
(-0.0253331 -0.0047274 0)
(-0.0231182 -0.00447077 0)
(-0.0210341 -0.0042023 0)
(-0.019084 -0.00392828 0)
(-0.0172687 -0.00365382 0)
(-0.0155868 -0.00338308 0)
(-0.0140351 -0.00311932 0)
(-0.0126091 -0.00286504 0)
(-0.0113034 -0.0026221 0)
(-0.010112 -0.00239182 0)
(-0.0090281 -0.00217504 0)
(-0.008045 -0.00197224 0)
(-0.00715574 -0.00178358 0)
(-0.00635339 -0.00160898 0)
(-0.00563118 -0.00144821 0)
(-0.00498251 -0.00130092 0)
(-0.00440108 -0.00116665 0)
(-0.00388087 -0.00104519 0)
(-0.00341645 -0.000935983 0)
(-0.00300254 -0.000840223 0)
(-0.00263775 -0.000755481 0)
(-0.387693 -0.136398 0)
(-0.328701 -0.12393 0)
(-0.277718 -0.104819 0)
(-0.239656 -0.0829628 0)
(-0.213399 -0.0627399 0)
(-0.197547 -0.0480026 0)
(-0.187706 -0.0417027 0)
(-0.178906 -0.0451775 0)
(-0.165561 -0.0581282 0)
(-0.14283 -0.0783096 0)
(-0.107717 -0.102548 0)
(-0.0594773 -0.12669 0)
(0.000795247 -0.146608 0)
(0.0705486 -0.160192 0)
(0.145265 -0.164787 0)
(0.220084 -0.159834 0)
(0.290231 -0.145676 0)
(0.351536 -0.123587 0)
(0.40057 -0.0954781 0)
(0.435139 -0.0636244 0)
(0.454123 -0.0304697 0)
(0.457863 0.00150871 0)
(0.447541 0.0304996 0)
(0.424353 0.0552864 0)
(0.391607 0.0738977 0)
(0.352857 0.0860688 0)
(0.311089 0.0918924 0)
(0.269114 0.0920343 0)
(0.229327 0.0877048 0)
(0.193306 0.0803251 0)
(0.161835 0.0713802 0)
(0.13501 0.0622005 0)
(0.11243 0.0538265 0)
(0.0932944 0.0468454 0)
(0.0766913 0.0414605 0)
(0.061765 0.037519 0)
(0.0478899 0.0346828 0)
(0.0346852 0.032535 0)
(0.0220068 0.0307031 0)
(0.00986348 0.0288918 0)
(-0.00164677 0.026905 0)
(-0.0123246 0.0246304 0)
(-0.0219812 0.0220942 0)
(-0.030513 0.0193519 0)
(-0.0378338 0.016484 0)
(-0.0439065 0.0135839 0)
(-0.0487435 0.0107401 0)
(-0.0523959 0.00802846 0)
(-0.0549444 0.00550777 0)
(-0.0564891 0.00321907 0)
(-0.0571429 0.00118346 0)
(-0.057022 -0.000585165 0)
(-0.0562445 -0.00208848 0)
(-0.0549212 -0.00333709 0)
(-0.0531565 -0.00434637 0)
(-0.0510464 -0.00513571 0)
(-0.0486769 -0.00572676 0)
(-0.0461245 -0.006142 0)
(-0.0434552 -0.00640388 0)
(-0.040726 -0.00653417 0)
(-0.0379846 -0.00655347 0)
(-0.0352706 -0.00648091 0)
(-0.032616 -0.00633395 0)
(-0.0300458 -0.00612825 0)
(-0.0275793 -0.00587766 0)
(-0.0252306 -0.00559422 0)
(-0.0230093 -0.00528838 0)
(-0.0209216 -0.00496899 0)
(-0.0189704 -0.0046434 0)
(-0.0171558 -0.00431764 0)
(-0.0154761 -0.00399657 0)
(-0.0139279 -0.003684 0)
(-0.0125062 -0.00338286 0)
(-0.0112055 -0.00309532 0)
(-0.0100195 -0.00282289 0)
(-0.00894133 -0.00256655 0)
(-0.00796407 -0.00232682 0)
(-0.00708065 -0.00210389 0)
(-0.00628408 -0.00189765 0)
(-0.00556751 -0.00170777 0)
(-0.00492432 -0.00153382 0)
(-0.00434822 -0.00137525 0)
(-0.00383317 -0.00123164 0)
(-0.00337394 -0.0011023 0)
(-0.00296495 -0.0009878 0)
(-0.0026055 -0.000885894 0)
(-0.384328 -0.16086 0)
(-0.321949 -0.145308 0)
(-0.269081 -0.1218 0)
(-0.230925 -0.0950079 0)
(-0.206346 -0.0702526 0)
(-0.193635 -0.0521662 0)
(-0.187812 -0.0443866 0)
(-0.183248 -0.0486311 0)
(-0.173587 -0.0642749 0)
(-0.153345 -0.0888149 0)
(-0.119078 -0.118224 0)
(-0.069841 -0.14759 0)
(-0.007204 -0.171777 0)
(0.0660185 -0.188249 0)
(0.144911 -0.193897 0)
(0.223962 -0.188109 0)
(0.298006 -0.171333 0)
(0.362497 -0.145132 0)
(0.413761 -0.111805 0)
(0.44948 -0.074087 0)
(0.468546 -0.0348904 0)
(0.471453 0.00278921 0)
(0.459383 0.0370369 0)
(0.433749 0.0661144 0)
(0.398244 0.0878363 0)
(0.356688 0.101881 0)
(0.312333 0.108331 0)
(0.26821 0.108018 0)
(0.226868 0.102439 0)
(0.189905 0.0933408 0)
(0.158074 0.082511 0)
(0.131377 0.0715401 0)
(0.109265 0.0616424 0)
(0.0907616 0.0534974 0)
(0.0747958 0.0473149 0)
(0.0603991 0.0428756 0)
(0.0468926 0.0397432 0)
(0.0338911 0.0374025 0)
(0.0212769 0.0354014 0)
(0.00909619 0.0333872 0)
(-0.00251375 0.0311294 0)
(-0.0133076 0.0285118 0)
(-0.0230624 0.02557 0)
(-0.0316634 0.0223772 0)
(-0.0390169 0.0190344 0)
(-0.0450844 0.0156551 0)
(-0.0498822 0.0123453 0)
(-0.0534677 0.00919409 0)
(-0.055929 0.00626938 0)
(-0.057373 0.00361878 0)
(-0.0579195 0.00126467 0)
(-0.0576898 -0.000775547 0)
(-0.0568059 -0.00250703 0)
(-0.0553813 -0.0039422 0)
(-0.0535227 -0.0050996 0)
(-0.051327 -0.00600227 0)
(-0.0488811 -0.00667571 0)
(-0.0462615 -0.00714626 0)
(-0.0435341 -0.00744009 0)
(-0.0407553 -0.00758247 0)
(-0.0379726 -0.00759732 0)
(-0.0352248 -0.0075068 0)
(-0.0325431 -0.00733112 0)
(-0.0299518 -0.00708835 0)
(-0.0274695 -0.00679445 0)
(-0.0251096 -0.00646333 0)
(-0.0228811 -0.00610699 0)
(-0.0207895 -0.00573558 0)
(-0.018837 -0.00535754 0)
(-0.0170234 -0.00497975 0)
(-0.0153465 -0.00460777 0)
(-0.0138023 -0.00424595 0)
(-0.0123858 -0.00389761 0)
(-0.0110911 -0.00356521 0)
(-0.00991141 -0.00325046 0)
(-0.00883995 -0.00295444 0)
(-0.00786953 -0.00267774 0)
(-0.00699296 -0.00242052 0)
(-0.00620315 -0.00218263 0)
(-0.00549318 -0.00196369 0)
(-0.00485639 -0.00176313 0)
(-0.00428646 -0.00158028 0)
(-0.00377735 -0.00141454 0)
(-0.00332396 -0.00126507 0)
(-0.00292046 -0.00113187 0)
(-0.00256642 -0.00101289 0)
(-0.380071 -0.18699 0)
(-0.313634 -0.167831 0)
(-0.258529 -0.139238 0)
(-0.220276 -0.106782 0)
(-0.197715 -0.0768097 0)
(-0.188778 -0.0549772 0)
(-0.187851 -0.0455596 0)
(-0.188463 -0.0503965 0)
(-0.183147 -0.0693097 0)
(-0.165947 -0.0987306 0)
(-0.13262 -0.133988 0)
(-0.0822628 -0.16921 0)
(-0.0167646 -0.198221 0)
(0.0605998 -0.217901 0)
(0.144433 -0.224733 0)
(0.228467 -0.218043 0)
(0.307066 -0.198404 0)
(0.375285 -0.167729 0)
(0.42915 -0.128753 0)
(0.466207 -0.0847318 0)
(0.485367 -0.0390897 0)
(0.487306 0.00459566 0)
(0.473197 0.0443927 0)
(0.444722 0.0779094 0)
(0.406033 0.102763 0)
(0.361238 0.118576 0)
(0.313836 0.125545 0)
(0.267103 0.124666 0)
(0.223831 0.117686 0)
(0.185726 0.106653 0)
(0.153513 0.0936965 0)
(0.127048 0.0807369 0)
(0.105558 0.0692144 0)
(0.0878485 0.0598765 0)
(0.0726597 0.0529224 0)
(0.0588931 0.0480436 0)
(0.0458142 0.0446844 0)
(0.0330385 0.0422167 0)
(0.0204838 0.0400986 0)
(0.00824303 0.0379143 0)
(-0.00349565 0.0353978 0)
(-0.0144332 0.0324382 0)
(-0.024308 0.0290818 0)
(-0.0329919 0.0254242 0)
(-0.0403837 0.0215904 0)
(-0.046444 0.017717 0)
(-0.0511945 0.013928 0)
(-0.0547009 0.0103273 0)
(-0.0570599 0.00699178 0)
(-0.0583864 0.00397515 0)
(-0.058808 0.00130086 0)
(-0.0584523 -0.00101061 0)
(-0.0574456 -0.00296867 0)
(-0.0559045 -0.00458783 0)
(-0.0539379 -0.00589011 0)
(-0.0516442 -0.00690249 0)
(-0.0491109 -0.00765458 0)
(-0.0464145 -0.00817671 0)
(-0.0436207 -0.00849887 0)
(-0.0407856 -0.00864991 0)
(-0.0379559 -0.00865712 0)
(-0.0351697 -0.00854573 0)
(-0.0324573 -0.00833871 0)
(-0.0298423 -0.00805656 0)
(-0.0273423 -0.00771736 0)
(-0.0249698 -0.00733684 0)
(-0.0227333 -0.00692857 0)
(-0.0206374 -0.00650395 0)
(-0.0186837 -0.00607248 0)
(-0.0168714 -0.00564189 0)
(-0.0151978 -0.00521839 0)
(-0.0136585 -0.00480685 0)
(-0.012248 -0.00441098 0)
(-0.0109601 -0.0040335 0)
(-0.00978784 -0.00367629 0)
(-0.00872411 -0.00334054 0)
(-0.00776156 -0.00302686 0)
(-0.00689286 -0.00273541 0)
(-0.00611081 -0.00246596 0)
(-0.0054084 -0.00221805 0)
(-0.0047789 -0.00199101 0)
(-0.00421601 -0.00178401 0)
(-0.00371361 -0.00159627 0)
(-0.00326673 -0.00142678 0)
(-0.0028693 -0.00127507 0)
(-0.00252093 -0.0011392 0)
(-0.374739 -0.215083 0)
(-0.303499 -0.191637 0)
(-0.245754 -0.157138 0)
(-0.207388 -0.118119 0)
(-0.187251 -0.0821366 0)
(-0.182819 -0.0558919 0)
(-0.187865 -0.0444032 0)
(-0.194502 -0.0503109 0)
(-0.194556 -0.0726263 0)
(-0.180934 -0.107699 0)
(-0.148724 -0.149742 0)
(-0.09707 -0.191578 0)
(-0.0281453 -0.226121 0)
(0.0541556 -0.249392 0)
(0.14382 -0.257591 0)
(0.233728 -0.249928 0)
(0.317678 -0.227183 0)
(0.390237 -0.191654 0)
(0.447103 -0.146548 0)
(0.48566 -0.0957108 0)
(0.504879 -0.0431091 0)
(0.505626 0.00702406 0)
(0.489011 0.0528506 0)
(0.457145 0.0910735 0)
(0.414638 0.119247 0)
(0.365955 0.136886 0)
(0.314963 0.144215 0)
(0.265335 0.14241 0)
(0.220031 0.133592 0)
(0.180764 0.120246 0)
(0.148192 0.104899 0)
(0.122042 0.0897775 0)
(0.101322 0.0765055 0)
(0.0845703 0.0659343 0)
(0.0703053 0.0582383 0)
(0.0572745 0.0529921 0)
(0.0446827 0.0494909 0)
(0.0321518 0.0469755 0)
(0.019645 0.0448013 0)
(0.00731303 0.042485 0)
(-0.00459014 0.0397216 0)
(-0.0157031 0.0364199 0)
(-0.0257227 0.0326374 0)
(-0.0345049 0.0284972 0)
(-0.0419404 0.0241532 0)
(-0.047991 0.0197678 0)
(-0.0526854 0.0154852 0)
(-0.0560991 0.0114234 0)
(-0.0583392 0.00766954 0)
(-0.0595304 0.00428107 0)
(-0.0598083 0.00128695 0)
(-0.0593092 -0.00129592 0)
(-0.0581627 -0.00347854 0)
(-0.0564894 -0.00527859 0)
(-0.0544006 -0.00672192 0)
(-0.0519963 -0.00783979 0)
(-0.0493645 -0.00866616 0)
(-0.0465818 -0.00923557 0)
(-0.0437136 -0.00958189 0)
(-0.0408154 -0.00973766 0)
(-0.0379331 -0.00973356 0)
(-0.035104 -0.00959795 0)
(-0.0323575 -0.00935659 0)
(-0.0297162 -0.00903241 0)
(-0.0271966 -0.00864561 0)
(-0.0248104 -0.00821374 0)
(-0.0225652 -0.00775187 0)
(-0.0204648 -0.00727267 0)
(-0.01851 -0.00678664 0)
(-0.0166995 -0.00630233 0)
(-0.0150298 -0.0058266 0)
(-0.0134961 -0.00536479 0)
(-0.0120925 -0.00492098 0)
(-0.0108124 -0.00449812 0)
(-0.00964858 -0.00409826 0)
(-0.00859363 -0.00372266 0)
(-0.00764001 -0.00337196 0)
(-0.00678022 -0.00304627 0)
(-0.00600692 -0.00274532 0)
(-0.00531304 -0.00246851 0)
(-0.00469176 -0.00221506 0)
(-0.00413674 -0.001984 0)
(-0.00364186 -0.00177436 0)
(-0.00320213 -0.00158495 0)
(-0.00281138 -0.0014149 0)
(-0.0024691 -0.00126237 0)
(-0.368123 -0.245481 0)
(-0.291225 -0.21698 0)
(-0.230345 -0.175611 0)
(-0.191877 -0.129021 0)
(-0.174661 -0.0861228 0)
(-0.17568 -0.0546905 0)
(-0.187646 -0.0409882 0)
(-0.201622 -0.0477567 0)
(-0.207981 -0.0742712 0)
(-0.198532 -0.115832 0)
(-0.167787 -0.165515 0)
(-0.114527 -0.214924 0)
(-0.0415324 -0.255806 0)
(0.0465802 -0.283079 0)
(0.14302 -0.292865 0)
(0.23972 -0.284144 0)
(0.329817 -0.257954 0)
(0.40734 -0.217077 0)
(0.467623 -0.165261 0)
(0.507865 -0.107013 0)
(0.527148 -0.0469324 0)
(0.526511 0.0100946 0)
(0.507025 0.0623295 0)
(0.471307 0.105472 0)
(0.424511 0.136986 0)
(0.371494 0.156314 0)
(0.316456 0.163819 0)
(0.263381 0.160938 0)
(0.215536 0.150104 0)
(0.174819 0.134165 0)
(0.141885 0.116087 0)
(0.116216 0.0985261 0)
(0.0964796 0.0833937 0)
(0.0809055 0.0715804 0)
(0.0677472 0.0632025 0)
(0.0555748 0.0576845 0)
(0.0435322 0.0541469 0)
(0.0312597 0.051681 0)
(0.0187805 0.04952 0)
(0.00631598 0.0471156 0)
(-0.00579499 0.0441138 0)
(-0.01712 0.0404696 0)
(-0.0273129 0.0362456 0)
(-0.0362099 0.0316007 0)
(-0.043695 0.0267239 0)
(-0.0497321 0.0218054 0)
(-0.0543599 0.0170122 0)
(-0.0576661 0.0124767 0)
(-0.0597693 0.00829642 0)
(-0.0608061 0.0045307 0)
(-0.060921 0.00121503 0)
(-0.0602599 -0.00163881 0)
(-0.0589563 -0.00404363 0)
(-0.0571347 -0.006021 0)
(-0.0549094 -0.00760099 0)
(-0.0523817 -0.00881953 0)
(-0.0496404 -0.00971526 0)
(-0.0467619 -0.0103271 0)
(-0.0438112 -0.0106929 0)
(-0.0408432 -0.010849 0)
(-0.037903 -0.0108295 0)
(-0.0350267 -0.010666 0)
(-0.0322428 -0.010387 0)
(-0.0295726 -0.0100178 0)
(-0.0270317 -0.00958091 0)
(-0.0246308 -0.00909553 0)
(-0.0223764 -0.00857826 0)
(-0.0202713 -0.00804298 0)
(-0.0183157 -0.00750117 0)
(-0.0165073 -0.00696218 0)
(-0.0148422 -0.00643345 0)
(-0.013315 -0.0059208 0)
(-0.0119193 -0.00542863 0)
(-0.010648 -0.00496012 0)
(-0.00949372 -0.00451744 0)
(-0.00844863 -0.00410192 0)
(-0.00750501 -0.00371419 0)
(-0.00665519 -0.00335433 0)
(-0.00589167 -0.00302196 0)
(-0.00520728 -0.0027164 0)
(-0.00459514 -0.0024367 0)
(-0.00404886 -0.00218176 0)
(-0.00356226 -0.00195039 0)
(-0.00313039 -0.00174125 0)
(-0.00274694 -0.00155311 0)
(-0.00241125 -0.00138417 0)
(-0.359977 -0.278655 0)
(-0.276445 -0.244187 0)
(-0.21181 -0.194857 0)
(-0.173376 -0.139326 0)
(-0.159618 -0.0882958 0)
(-0.16709 -0.0508935 0)
(-0.187235 -0.0344691 0)
(-0.209889 -0.0423416 0)
(-0.223711 -0.0735785 0)
(-0.219241 -0.12266 0)
(-0.19018 -0.181257 0)
(-0.135043 -0.239351 0)
(-0.0572262 -0.287535 0)
(0.0377189 -0.319269 0)
(0.142018 -0.330866 0)
(0.246621 -0.320943 0)
(0.343827 -0.29094 0)
(0.42704 -0.24418 0)
(0.491193 -0.184993 0)
(0.533284 -0.118631 0)
(0.552588 -0.0504073 0)
(0.550269 0.0141894 0)
(0.527312 0.0734404 0)
(0.487073 0.121841 0)
(0.435176 0.156945 0)
(0.376965 0.17801 0)
(0.317132 0.185484 0)
(0.260214 0.181021 0)
(0.20981 0.167511 0)
(0.167773 0.148427 0)
(0.134597 0.127233 0)
(0.109577 0.107006 0)
(0.0910606 0.0898644 0)
(0.0768947 0.0767809 0)
(0.065031 0.0677773 0)
(0.0538406 0.0620972 0)
(0.0424064 0.0586446 0)
(0.0303972 0.0563394 0)
(0.0179135 0.0542691 0)
(0.00526209 0.0518187 0)
(-0.00710921 0.048596 0)
(-0.0186871 0.0446004 0)
(-0.0290864 0.0399142 0)
(-0.0381163 0.0347393 0)
(-0.0456561 0.0293007 0)
(-0.0516751 0.0238251 0)
(-0.0562243 0.0185013 0)
(-0.0594061 0.0134783 0)
(-0.0613524 0.00886256 0)
(-0.0622146 0.00471384 0)
(-0.0621468 0.00107634 0)
(-0.0613038 -0.00204625 0)
(-0.0598249 -0.00467005 0)
(-0.0578388 -0.0068204 0)
(-0.0554621 -0.00853188 0)
(-0.0527982 -0.00984553 0)
(-0.0499364 -0.010805 0)
(-0.0469527 -0.0114538 0)
(-0.0439116 -0.0118339 0)
(-0.0408672 -0.0119854 0)
(-0.0378637 -0.0119459 0)
(-0.0349362 -0.0117503 0)
(-0.0321117 -0.0114299 0)
(-0.0294104 -0.0110126 0)
(-0.0268467 -0.0105227 0)
(-0.0244301 -0.00998143 0)
(-0.022166 -0.00940675 0)
(-0.0200562 -0.00881373 0)
(-0.0181001 -0.00821478 0)
(-0.0162945 -0.00762001 0)
(-0.0146348 -0.00703744 0)
(-0.013115 -0.0064733 0)
(-0.0117281 -0.00593229 0)
(-0.0104668 -0.0054178 0)
(-0.00932308 -0.0049321 0)
(-0.00828897 -0.00447655 0)
(-0.00735645 -0.00405177 0)
(-0.00651766 -0.00365776 0)
(-0.00576497 -0.00329407 0)
(-0.00509106 -0.00295986 0)
(-0.00448898 -0.00265406 0)
(-0.00395229 -0.00237538 0)
(-0.00347478 -0.00212246 0)
(-0.00305145 -0.00189376 0)
(-0.00267594 -0.00168778 0)
(-0.00234741 -0.00150268 0)
(-0.35003 -0.3149 0)
(-0.258787 -0.273392 0)
(-0.190073 -0.214624 0)
(-0.151323 -0.148935 0)
(-0.141695 -0.0884832 0)
(-0.156753 -0.0441911 0)
(-0.186546 -0.0245781 0)
(-0.219472 -0.0337051 0)
(-0.242142 -0.0705278 0)
(-0.24353 -0.128275 0)
(-0.216405 -0.19716 0)
(-0.159059 -0.265198 0)
(-0.0755307 -0.321668 0)
(0.0274013 -0.358508 0)
(0.140747 -0.372128 0)
(0.254414 -0.360858 0)
(0.359687 -0.326567 0)
(0.449313 -0.27325 0)
(0.517806 -0.205915 0)
(0.561917 -0.130661 0)
(0.581251 -0.0535807 0)
(0.576975 0.0189833 0)
(0.550006 0.0857409 0)
(0.50467 0.139659 0)
(0.447121 0.178301 0)
(0.383215 0.200939 0)
(0.318157 0.208152 0)
(0.256886 0.201898 0)
(0.2033 0.185563 0)
(0.159541 0.163006 0)
(0.125945 0.138345 0)
(0.101795 0.115092 0)
(0.0848615 0.0957767 0)
(0.0725087 0.0813706 0)
(0.0621734 0.0718518 0)
(0.05211 0.0661536 0)
(0.0413477 0.0629469 0)
(0.0295993 0.0609393 0)
(0.0170648 0.0590526 0)
(0.00416269 0.0565994 0)
(-0.00853162 0.053185 0)
(-0.0204122 0.0488238 0)
(-0.031053 0.0436499 0)
(-0.0402358 0.0379067 0)
(-0.0478351 0.0318826 0)
(-0.0538289 0.0258257 0)
(-0.0582851 0.0199515 0)
(-0.0613235 0.0144269 0)
(-0.063092 0.00936487 0)
(-0.0637564 0.00483013 0)
(-0.0634846 0.000868715 0)
(-0.0624395 -0.00252323 0)
(-0.0607671 -0.00536328 0)
(-0.0585996 -0.00768228 0)
(-0.0560568 -0.00951985 0)
(-0.0532439 -0.0109226 0)
(-0.0502505 -0.0119398 0)
(-0.0471522 -0.0126197 0)
(-0.0440129 -0.0130084 0)
(-0.0408857 -0.0131499 0)
(-0.0378138 -0.0130854 0)
(-0.034831 -0.0128532 0)
(-0.031963 -0.0124874 0)
(-0.0292285 -0.0120183 0)
(-0.0266407 -0.0114725 0)
(-0.0242076 -0.0108728 0)
(-0.0219335 -0.0102385 0)
(-0.0198192 -0.00958596 0)
(-0.0178629 -0.00892843 0)
(-0.0160608 -0.00827673 0)
(-0.0144073 -0.00763942 0)
(-0.0128959 -0.00702313 0)
(-0.011519 -0.0064328 0)
(-0.0102687 -0.005872 0)
(-0.00913672 -0.00534309 0)
(-0.00811474 -0.00484743 0)
(-0.00719446 -0.00438559 0)
(-0.0063678 -0.00395752 0)
(-0.00562697 -0.00356262 0)
(-0.00496454 -0.00319993 0)
(-0.00437345 -0.00286822 0)
(-0.00384723 -0.00256602 0)
(-0.00337959 -0.00229176 0)
(-0.00296552 -0.00204375 0)
(-0.0025986 -0.00182021 0)
(-0.00227781 -0.00161925 0)
(-0.337984 -0.3551 0)
(-0.237785 -0.305251 0)
(-0.164225 -0.235648 0)
(-0.125182 -0.157923 0)
(-0.120445 -0.0862781 0)
(-0.144364 -0.0337372 0)
(-0.185536 -0.0105002 0)
(-0.230587 -0.0207263 0)
(-0.263659 -0.0640381 0)
(-0.271907 -0.131926 0)
(-0.247035 -0.212844 0)
(-0.187103 -0.292457 0)
(-0.0969083 -0.358409 0)
(0.0152955 -0.401183 0)
(0.13907 -0.417002 0)
(0.263186 -0.404161 0)
(0.377721 -0.365054 0)
(0.474657 -0.304463 0)
(0.548031 -0.228129 0)
(0.594346 -0.143022 0)
(0.613638 -0.0564821 0)
(0.606951 0.0254831 0)
(0.575291 0.100392 0)
(0.524102 0.160377 0)
(0.459915 0.203097 0)
(0.389316 0.227406 0)
(0.318099 0.234012 0)
(0.251838 0.225278 0)
(0.19508 0.204972 0)
(0.149582 0.178103 0)
(0.116178 0.149239 0)
(0.0932583 0.122643 0)
(0.0782288 0.100969 0)