/*--------------------------------*- C++ -*----------------------------------*\
| =========                 |                                                 |
| \\      /  F ield         | OpenFOAM: The Open Source CFD Toolbox           |
|  \\    /   O peration     | Version:  v1912                                 |
|   \\  /    A nd           | Website:  www.openfoam.com                      |
|    \\/     M anipulation  |                                                 |
\*---------------------------------------------------------------------------*/
FoamFile
{
    version     2.0;
    format      ascii;
    class       volScalarField;
    location    "30";
    object      nut;
}
// * * * * * * * * * * * * * * * * * * * * * * * * * * * * * * * * * * * * * //

dimensions      [0 2 -1 0 0 0 0];


internalField   nonuniform List<scalar> 
14268
(
0.000160099
7.78459e-05
7.01722e-05
9.91036e-05
9.61681e-05
8.63231e-05
7.44724e-05
6.69386e-05
6.43143e-05
6.62018e-05
7.22925e-05
7.29516e-05
6.48367e-05
5.37688e-05
5.00059e-05
5.10452e-05
4.64264e-05
4.53501e-05
5.04367e-05
6.10648e-05
7.25516e-05
7.21215e-05
6.43367e-05
5.07872e-05
3.6678e-05
2.55921e-05
2.16254e-05
2.16217e-05
2.17461e-05
2.11437e-05
1.91278e-05
1.46637e-05
7.5449e-06
2.44421e-06
6.48994e-07
1.68888e-07
4.59024e-08
1.16868e-08
2.76385e-09
6.00947e-10
1.20666e-10
2.24453e-11
3.91386e-12
7.16595e-13
2.28707e-13
1.76994e-13
1.85683e-13
2.10391e-13
2.38621e-13
2.64001e-13
2.88597e-13
3.12836e-13
3.36693e-13
3.60121e-13
3.83081e-13
4.05546e-13
4.27501e-13
4.48936e-13
4.69852e-13
4.90249e-13
5.10135e-13
5.29512e-13
5.48389e-13
5.6678e-13
5.84697e-13
6.02153e-13
6.19156e-13
6.35719e-13
6.51852e-13
6.67567e-13
6.82875e-13
6.97783e-13
7.12303e-13
7.26442e-13
7.40209e-13
7.53614e-13
7.66665e-13
7.79367e-13
7.9173e-13
8.0376e-13
8.15463e-13
8.26848e-13
8.3792e-13
8.48684e-13
8.59148e-13
8.69317e-13
8.79197e-13
8.88794e-13
8.98113e-13
9.0716e-13
9.1594e-13
9.2446e-13
9.32723e-13
9.40736e-13
9.48504e-13
9.56032e-13
9.63326e-13
9.7039e-13
9.77231e-13
9.83852e-13
9.9026e-13
9.96459e-13
1.00245e-12
1.00825e-12
1.01385e-12
1.01927e-12
1.0245e-12
1.02955e-12
1.03442e-12
1.03913e-12
1.04367e-12
1.04805e-12
1.05228e-12
1.05635e-12
1.06028e-12
1.06407e-12
1.06771e-12
1.07122e-12
1.0746e-12
1.07786e-12
1.08099e-12
1.08401e-12
1.0869e-12
1.08969e-12
1.09237e-12
1.09495e-12
1.09743e-12
1.09981e-12
1.1021e-12
1.10429e-12
1.1064e-12
1.10842e-12
1.11037e-12
1.11223e-12
1.11402e-12
1.11573e-12
1.11738e-12
1.11895e-12
1.12047e-12
1.12191e-12
1.1233e-12
1.12463e-12
1.1259e-12
1.12712e-12
1.12828e-12
1.12939e-12
1.13044e-12
1.13143e-12
1.1324e-12
1.1337e-12
0.00167555
0.00073016
0.00043636
0.00100478
0.000936008
0.000754875
0.000612549
0.000550799
0.000544657
0.000584464
0.000658358
0.000692443
0.000679527
0.000598836
0.000540743
0.000507287
0.000453396
0.000439724
0.000494593
0.00061455
0.000772606
0.000798173
0.000746708
0.000629928
0.000515495
0.000406395
0.00035552
0.000359776
0.000370044
0.000371458
0.000355886
0.000311254
0.000222042
0.000115503
4.29888e-05
1.3625e-05
4.96908e-06
1.18102e-06
2.5876e-07
5.64505e-08
1.17946e-08
2.29642e-09
4.14786e-10
7.93457e-11
2.72321e-11
2.20835e-11
2.36232e-11
2.71953e-11
3.12325e-11
3.49697e-11
3.86669e-11
4.23664e-11
4.60573e-11
4.97266e-11
5.33632e-11
5.6958e-11
6.05039e-11
6.39955e-11
6.74291e-11
7.0802e-11
7.41127e-11
7.73593e-11
8.05402e-11
8.36548e-11
8.67048e-11
8.96904e-11
9.26118e-11
9.54696e-11
9.82644e-11
1.00997e-10
1.03669e-10
1.06281e-10
1.08833e-10
1.11326e-10
1.13761e-10
1.1614e-10
1.18463e-10
1.2073e-10
1.22943e-10
1.25102e-10
1.27208e-10
1.29263e-10
1.31265e-10
1.33217e-10
1.35119e-10
1.36972e-10
1.38776e-10
1.40533e-10
1.42242e-10
1.43905e-10
1.45522e-10
1.47094e-10
1.48622e-10
1.50107e-10
1.51549e-10
1.52949e-10
1.54307e-10
1.55625e-10
1.56904e-10
1.58143e-10
1.59345e-10
1.60509e-10
1.61636e-10
1.62727e-10
1.63784e-10
1.64806e-10
1.65795e-10
1.66751e-10
1.67675e-10
1.68568e-10
1.69431e-10
1.70264e-10
1.71069e-10
1.71845e-10
1.72594e-10
1.73317e-10
1.74013e-10
1.74685e-10
1.75332e-10
1.75956e-10
1.76556e-10
1.77135e-10
1.77691e-10
1.78228e-10
1.78743e-10
1.79239e-10
1.79716e-10
1.80174e-10
1.80615e-10
1.81038e-10
1.81445e-10
1.81835e-10
1.82211e-10
1.82571e-10
1.82917e-10
1.83248e-10
1.83567e-10
1.83872e-10
1.84165e-10
1.84445e-10
1.84714e-10
1.84971e-10
1.85218e-10
1.85454e-10
1.8568e-10
1.85896e-10
1.86099e-10
1.86291e-10
1.86479e-10
1.86733e-10
0.00538232
0.00193446
0.00086997
0.00221599
0.00256198
0.00173186
0.00115418
0.000939606
0.000956215
0.00109594
0.00130893
0.00140835
0.00143988
0.0013235
0.00118478
0.00112814
0.00111236
0.00110187
0.00118466
0.00143891
0.00185508
0.00201995
0.0018916
0.00162722
0.00152307
0.0012424
0.00109994
0.00120462
0.00135512
0.00142412
0.00139828
0.00124644
0.000932126
0.000537633
0.000189352
7.10573e-05
2.69618e-05
7.84902e-06
1.90302e-06
4.52344e-07
1.03396e-07
2.18931e-08
4.28824e-09
9.3823e-10
4.0417e-10
3.64785e-10
4.00692e-10
4.67714e-10
5.39696e-10
6.07373e-10
6.75096e-10
7.43193e-10
8.11391e-10
8.79416e-10
9.47029e-10
1.01404e-09
1.08028e-09
1.14565e-09
1.21005e-09
1.27342e-09
1.33571e-09
1.39688e-09
1.45688e-09
1.5157e-09
1.57336e-09
1.62987e-09
1.68521e-09
1.73939e-09
1.79242e-09
1.84432e-09
1.8951e-09
1.94476e-09
1.99333e-09
2.04081e-09
2.08722e-09
2.13257e-09
2.17688e-09
2.22016e-09
2.26242e-09
2.30368e-09
2.34394e-09
2.38323e-09
2.42155e-09
2.45891e-09
2.49534e-09
2.53084e-09
2.56542e-09
2.59909e-09
2.63187e-09
2.66378e-09
2.69482e-09
2.725e-09
2.75434e-09
2.78286e-09
2.81057e-09
2.83747e-09
2.86359e-09
2.88894e-09
2.91352e-09
2.93737e-09
2.96049e-09
2.98289e-09
3.00459e-09
3.0256e-09
3.04595e-09
3.06564e-09
3.08469e-09
3.10311e-09
3.12092e-09
3.13813e-09
3.15476e-09
3.17082e-09
3.18633e-09
3.2013e-09
3.21574e-09
3.22968e-09
3.24312e-09
3.25608e-09
3.26856e-09
3.2806e-09
3.29218e-09
3.30335e-09
3.31409e-09
3.32444e-09
3.33438e-09
3.34396e-09
3.35316e-09
3.36202e-09
3.37053e-09
3.3787e-09
3.38656e-09
3.3941e-09
3.40135e-09
3.4083e-09
3.41499e-09
3.42138e-09
3.42754e-09
3.43342e-09
3.43908e-09
3.44449e-09
3.44969e-09
3.45466e-09
3.45943e-09
3.46399e-09
3.46835e-09
3.47252e-09
3.47645e-09
3.48015e-09
3.48379e-09
3.48868e-09
0.0102416
0.00345731
0.00146515
0.00237373
0.00375502
0.00325127
0.00235408
0.00183254
0.00158946
0.00170895
0.00200566
0.00217236
0.00227374
0.00215281
0.00199877
0.00180507
0.00165689
0.00155441
0.00165472
0.00212856
0.00295596
0.00320104
0.00295364
0.00288994
0.00295754
0.00258181
0.00233741
0.00251315
0.00270394
0.00277155
0.00271897
0.00251145
0.00204409
0.00148392
0.000689047
0.000161791
5.64063e-05
1.95902e-05
5.72141e-06
1.5338e-06
3.867e-07
8.82879e-08
1.84616e-08
4.50688e-09
2.27449e-09
2.18196e-09
2.43976e-09
2.86915e-09
3.31477e-09
3.7395e-09
4.16637e-09
4.59602e-09
5.02649e-09
5.45595e-09
5.88283e-09
6.30586e-09
6.72402e-09
7.13651e-09
7.54279e-09
7.94239e-09
8.33505e-09
8.72042e-09
9.09829e-09
9.46857e-09
9.83138e-09
1.01867e-08
1.05345e-08
1.08748e-08
1.12078e-08
1.15334e-08
1.18518e-08
1.21631e-08
1.24673e-08
1.27646e-08
1.3055e-08
1.33386e-08
1.36156e-08
1.3886e-08
1.41499e-08
1.44073e-08
1.46585e-08
1.49035e-08
1.51423e-08
1.53751e-08
1.56019e-08
1.58228e-08
1.60379e-08
1.62473e-08
1.6451e-08
1.66493e-08
1.6842e-08
1.70294e-08
1.72115e-08
1.73884e-08
1.75602e-08
1.77269e-08
1.78888e-08
1.80458e-08
1.8198e-08
1.83456e-08
1.84887e-08
1.86272e-08
1.87614e-08
1.88914e-08
1.90171e-08
1.91387e-08
1.92564e-08
1.93701e-08
1.94801e-08
1.95863e-08
1.9689e-08
1.9788e-08
1.98837e-08
1.9976e-08
2.00651e-08
2.0151e-08
2.02338e-08
2.03136e-08
2.03905e-08
2.04647e-08
2.0536e-08
2.06048e-08
2.06708e-08
2.07346e-08
2.07958e-08
2.08547e-08
2.09113e-08
2.09658e-08
2.10181e-08
2.10684e-08
2.11167e-08
2.11631e-08
2.12077e-08
2.12503e-08
2.12914e-08
2.13307e-08
2.13686e-08
2.14047e-08
2.14395e-08
2.14727e-08
2.15047e-08
2.15352e-08
2.15645e-08
2.15925e-08
2.16193e-08
2.16449e-08
2.1669e-08
2.16918e-08
2.17141e-08
2.17442e-08
0.0143263
0.00609892
0.0021996
0.00171155
0.00293971
0.00335474
0.00352202
0.00305513
0.00260077
0.00243334
0.00275573
0.00302167
0.00333128
0.00333369
0.00328694
0.00250626
0.00204915
0.0020677
0.00269441
0.00382242
0.00502877
0.00493927
0.00445739
0.00461973
0.00482551
0.00432684
0.00384433
0.00388622
0.00398151
0.00396432
0.00383963
0.00359873
0.00292102
0.00231159
0.00152619
0.00050222
0.000104152
3.67844e-05
1.31804e-05
3.95391e-06
1.08002e-06
2.56632e-07
5.54113e-08
1.44109e-08
7.93004e-09
7.8335e-09
8.82882e-09
1.03882e-08
1.19702e-08
1.3485e-08
1.50026e-08
1.6523e-08
1.8039e-08
1.95443e-08
2.10334e-08
2.25022e-08
2.39474e-08
2.53666e-08
2.67584e-08
2.81214e-08
2.94552e-08
3.07589e-08
3.20323e-08
3.32753e-08
3.44886e-08
3.56725e-08
3.68272e-08
3.79531e-08
3.90506e-08
4.01203e-08
4.11627e-08
4.21782e-08
4.31673e-08
4.41305e-08
4.50685e-08
4.59818e-08
4.68708e-08
4.77361e-08
4.85782e-08
4.93976e-08
5.01945e-08
5.09697e-08
5.17234e-08
5.24562e-08
5.31683e-08
5.38603e-08
5.45325e-08
5.51853e-08
5.58191e-08
5.64343e-08
5.70313e-08
5.76104e-08
5.81721e-08
5.87166e-08
5.92444e-08
5.97558e-08
6.02513e-08
6.0731e-08
6.11955e-08
6.16451e-08
6.20801e-08
6.25008e-08
6.29077e-08
6.3301e-08
6.36811e-08
6.40484e-08
6.44031e-08
6.47457e-08
6.50763e-08
6.53955e-08
6.57034e-08
6.60004e-08
6.62868e-08
6.65629e-08
6.6829e-08
6.70854e-08
6.73323e-08
6.75703e-08
6.77992e-08
6.80198e-08
6.82318e-08
6.84361e-08
6.86322e-08
6.88212e-08
6.90026e-08
6.91771e-08
6.93447e-08
6.95058e-08
6.96606e-08
6.98091e-08
6.99518e-08
7.00886e-08
7.02202e-08
7.03461e-08
7.04672e-08
7.0583e-08
7.06944e-08
7.08009e-08
7.09032e-08
7.1001e-08
7.1095e-08
7.11847e-08
7.12709e-08
7.13532e-08
7.14319e-08
7.1507e-08
7.15779e-08
7.16447e-08
7.17102e-08
7.17988e-08
0.0163359
0.00897693
0.00322162
0.00273041
0.00320009
0.00391218
0.00436158
0.00418704
0.00380433
0.00350956
0.00384221
0.00430099
0.00482978
0.00491045
0.00499186
0.00387468
0.00301342
0.00323919
0.00478156
0.00682357
0.0084006
0.00805731
0.00712628
0.00705439
0.00702574
0.00612078
0.00517851
0.00496728
0.00497543
0.00492445
0.00473407
0.00428007
0.003229
0.00235725
0.00186319
0.00103007
0.000280882
7.89289e-05
2.64315e-05
8.17102e-06
2.30675e-06
5.59761e-07
1.24442e-07
3.45231e-08
2.05042e-08
2.06711e-08
2.33469e-08
2.73362e-08
3.12873e-08
3.50548e-08
3.87915e-08
4.24949e-08
4.61482e-08
4.97371e-08
5.32503e-08
5.66792e-08
6.00181e-08
6.32638e-08
6.64153e-08
6.94728e-08
7.24372e-08
7.53093e-08
7.80908e-08
8.07838e-08
8.33919e-08
8.59176e-08
8.83633e-08
9.07316e-08
9.30251e-08
9.52466e-08
9.73987e-08
9.94828e-08
1.01498e-07
1.03447e-07
1.05331e-07
1.07153e-07
1.08916e-07
1.1062e-07
1.12268e-07
1.13862e-07
1.15403e-07
1.16894e-07
1.18335e-07
1.19729e-07
1.21076e-07
1.22379e-07
1.23638e-07
1.24854e-07
1.2603e-07
1.27167e-07
1.28264e-07
1.29325e-07
1.30349e-07
1.31338e-07
1.32293e-07
1.33215e-07
1.34104e-07
1.34963e-07
1.35791e-07
1.36591e-07
1.37361e-07
1.38105e-07
1.38821e-07
1.39512e-07
1.40178e-07
1.40819e-07
1.41437e-07
1.42032e-07
1.42606e-07
1.43158e-07
1.43689e-07
1.442e-07
1.44692e-07
1.45166e-07
1.45621e-07
1.4606e-07
1.46481e-07
1.46886e-07
1.47275e-07
1.47649e-07
1.48008e-07
1.48354e-07
1.48685e-07
1.49004e-07
1.4931e-07
1.49603e-07
1.49885e-07
1.50156e-07
1.50415e-07
1.50664e-07
1.50903e-07
1.51131e-07
1.51351e-07
1.51561e-07
1.51763e-07
1.51956e-07
1.52142e-07
1.52319e-07
1.52489e-07
1.52652e-07
1.52808e-07
1.52957e-07
1.531e-07
1.53236e-07
1.53367e-07
1.53491e-07
1.53609e-07
1.5372e-07
1.53827e-07
1.53975e-07
0.0175315
0.010787
0.00644656
0.00634712
0.00690991
0.00708172
0.00587639
0.0051747
0.00492513
0.00469222
0.00512627
0.00577593
0.00649778
0.00659995
0.00688731
0.00599421
0.0050491
0.00519204
0.00678129
0.00902877
0.0111347
0.0109428
0.00956742
0.00915777
0.00885235
0.00749536
0.00624875
0.00608986
0.00618169
0.00616499
0.00598622
0.00536768
0.00394981
0.0021736
0.00141889
0.00109872
0.000537925
0.000165852
5.03295e-05
1.48552e-05
4.10267e-06
9.96713e-07
2.27605e-07
6.77063e-08
4.31875e-08
4.41691e-08
4.97472e-08
5.76797e-08
6.53083e-08
7.24863e-08
7.9479e-08
8.62859e-08
9.28869e-08
9.92686e-08
1.05425e-07
1.11352e-07
1.17029e-07
1.22446e-07
1.27614e-07
1.32541e-07
1.37237e-07
1.41714e-07
1.45981e-07
1.50048e-07
1.53928e-07
1.57631e-07
1.61165e-07
1.64539e-07
1.67762e-07
1.70842e-07
1.73787e-07
1.76604e-07
1.79303e-07
1.81892e-07
1.84375e-07
1.86757e-07
1.89044e-07
1.9124e-07
1.93348e-07
1.95374e-07
1.9732e-07
1.99191e-07
2.00988e-07
2.02716e-07
2.04378e-07
2.05975e-07
2.07512e-07
2.08989e-07
2.10409e-07
2.11776e-07
2.1309e-07
2.14354e-07
2.15569e-07
2.16738e-07
2.17863e-07
2.18944e-07
2.19984e-07
2.20984e-07
2.21946e-07
2.2287e-07
2.23759e-07
2.24614e-07
2.25436e-07
2.26225e-07
2.26985e-07
2.27714e-07
2.28415e-07
2.29089e-07
2.29736e-07
2.30358e-07
2.30956e-07
2.31529e-07
2.32081e-07
2.3261e-07
2.33118e-07
2.33606e-07
2.34074e-07
2.34524e-07
2.34955e-07
2.35369e-07
2.35766e-07
2.36147e-07
2.36512e-07
2.36863e-07
2.37199e-07
2.37521e-07
2.3783e-07
2.38126e-07
2.3841e-07
2.38682e-07
2.38943e-07
2.39193e-07
2.39432e-07
2.39661e-07
2.39881e-07
2.40091e-07
2.40293e-07
2.40486e-07
2.40671e-07
2.40847e-07
2.41017e-07
2.41178e-07
2.41333e-07
2.41481e-07
2.41622e-07
2.41757e-07
2.41884e-07
2.42004e-07
2.42119e-07
2.42282e-07
0.0194694
0.0112231
0.00987284
0.0110329
0.0110329
0.0104582
0.00822578
0.00638278
0.00588779
0.00574146
0.00630206
0.0071957
0.00814754
0.00822829
0.00872114
0.00821041
0.00728419
0.00645429
0.00737475
0.00973462
0.0126033
0.0132916
0.0116238
0.0107557
0.0101028
0.00853296
0.00748599
0.00763274
0.00778887
0.00766676
0.00751959
0.00706323
0.00554161
0.00305322
0.0011798
0.000735912
0.000589702
0.000287177
8.89996e-05
2.5366e-05
6.75575e-06
1.61745e-06
3.73465e-07
1.1708e-07
7.83982e-08
8.06061e-08
9.00262e-08
1.02887e-07
1.14881e-07
1.2594e-07
1.36383e-07
1.46214e-07
1.5543e-07
1.6404e-07
1.72061e-07
1.79521e-07
1.8648e-07
1.92986e-07
1.99073e-07
2.04773e-07
2.10115e-07
2.15125e-07
2.1983e-07
2.24251e-07
2.28414e-07
2.32336e-07
2.36036e-07
2.39531e-07
2.42834e-07
2.45961e-07
2.48923e-07
2.51732e-07
2.54398e-07
2.5693e-07
2.59337e-07
2.61627e-07
2.63806e-07
2.65882e-07
2.67859e-07
2.69745e-07
2.71544e-07
2.73261e-07
2.749e-07
2.76466e-07
2.77962e-07
2.79391e-07
2.80758e-07
2.82066e-07
2.83316e-07
2.84513e-07
2.85658e-07
2.86754e-07
2.87803e-07
2.88808e-07
2.89771e-07
2.90692e-07
2.91575e-07
2.92421e-07
2.93232e-07
2.94008e-07
2.94752e-07
2.95465e-07
2.96148e-07
2.96803e-07
2.97431e-07
2.98032e-07
2.98609e-07
2.99161e-07
2.99691e-07
3.00198e-07
3.00685e-07
3.01151e-07
3.01598e-07
3.02026e-07
3.02436e-07
3.0283e-07
3.03206e-07
3.03568e-07
3.03913e-07
3.04245e-07
3.04562e-07
3.04867e-07
3.05157e-07
3.05437e-07
3.05704e-07
3.0596e-07
3.06205e-07
3.06439e-07
3.06664e-07
3.06879e-07
3.07085e-07
3.07282e-07
3.07471e-07
3.07651e-07
3.07824e-07
3.07989e-07
3.08148e-07
3.08299e-07
3.08444e-07
3.08583e-07
3.08716e-07
3.08842e-07
3.08964e-07
3.09079e-07
3.0919e-07
3.09296e-07
3.09394e-07
3.0949e-07
3.09577e-07
3.09708e-07
0.0232076
0.0113496
0.0113394
0.0139434
0.0134602
0.0125212
0.0102055
0.00789713
0.00690451
0.00665428
0.0072628
0.00840164
0.00967524
0.00968251
0.0102377
0.00989834
0.00844852
0.00667284
0.00754204
0.0106748
0.0134504
0.0145902
0.0138416
0.0128621
0.0117849
0.010067
0.00908629
0.00911603
0.00879277
0.00825666
0.00814753
0.00811538
0.0069668
0.00448205
0.00182112
0.000667054
0.000583304
0.000390939
0.000134582
3.94557e-05
1.045e-05
2.48368e-06
5.7525e-07
1.85339e-07
1.26677e-07
1.29715e-07
1.42955e-07
1.60197e-07
1.75212e-07
1.88323e-07
2.00222e-07
2.11056e-07
2.20916e-07
2.29889e-07
2.38062e-07
2.45515e-07
2.52326e-07
2.58559e-07
2.64275e-07
2.69527e-07
2.74361e-07
2.78821e-07
2.82941e-07
2.86756e-07
2.90296e-07
2.93586e-07
2.9665e-07
2.99509e-07
3.02179e-07
3.04677e-07
3.07019e-07
3.09216e-07
3.11281e-07
3.13223e-07
3.15052e-07
3.16777e-07
3.18404e-07
3.19942e-07
3.21397e-07
3.22773e-07
3.24076e-07
3.25312e-07
3.26484e-07
3.27597e-07
3.28653e-07
3.29657e-07
3.30612e-07
3.3152e-07
3.32384e-07
3.33207e-07
3.33991e-07
3.34738e-07
3.3545e-07
3.36129e-07
3.36777e-07
3.37395e-07
3.37985e-07
3.38548e-07
3.39085e-07
3.39599e-07
3.40089e-07
3.40558e-07
3.41006e-07
3.41433e-07
3.41843e-07
3.42234e-07
3.42608e-07
3.42965e-07
3.43307e-07
3.43634e-07
3.43947e-07
3.44246e-07
3.44532e-07
3.44806e-07
3.45067e-07
3.45318e-07
3.45558e-07
3.45787e-07
3.46006e-07
3.46216e-07
3.46417e-07
3.46609e-07
3.46793e-07
3.46969e-07
3.47137e-07
3.47298e-07
3.47452e-07
3.47599e-07
3.4774e-07
3.47875e-07
3.48004e-07
3.48127e-07
3.48245e-07
3.48357e-07
3.48466e-07
3.48568e-07
3.48667e-07
3.48761e-07
3.48852e-07
3.48938e-07
3.4902e-07
3.49099e-07
3.49175e-07
3.49247e-07
3.49315e-07
3.49381e-07
3.49442e-07
3.49502e-07
3.49553e-07
3.4964e-07
0.0286865
0.012365
0.0108594
0.013455
0.0131073
0.0127271
0.011077
0.00953816
0.00824528
0.00774677
0.00826995
0.00954889
0.0110729
0.0107795
0.0107222
0.0100945
0.00839952
0.00670497
0.009194
0.0138373
0.0157546
0.015356
0.0159936
0.0157156
0.0144014
0.0122811
0.0106556
0.00982095
0.00847646
0.00743269
0.00713586
0.0073395
0.00739172
0.0056417
0.00289041
0.000951827
0.000632693
0.000448573
0.00017305
5.38112e-05
1.47744e-05
3.56188e-06
8.31626e-07
2.71493e-07
1.85457e-07
1.86983e-07
2.01225e-07
2.19336e-07
2.3476e-07
2.47767e-07
2.59171e-07
2.69222e-07
2.78097e-07
2.85951e-07
2.92919e-07
2.99118e-07
3.04649e-07
3.096e-07
3.14047e-07
3.18052e-07
3.21672e-07
3.24953e-07
3.27936e-07
3.30653e-07
3.33139e-07
3.35418e-07
3.37511e-07
3.3944e-07
3.41221e-07
3.42868e-07
3.44396e-07
3.45814e-07
3.47134e-07
3.48365e-07
3.49513e-07
3.50587e-07
3.51593e-07
3.52536e-07
3.53421e-07
3.54253e-07
3.55036e-07
3.55773e-07
3.56468e-07
3.57125e-07
3.57745e-07
3.58331e-07
3.58885e-07
3.5941e-07
3.59907e-07
3.60379e-07
3.60826e-07
3.61251e-07
3.61654e-07
3.62037e-07
3.62402e-07
3.62748e-07
3.63078e-07
3.63392e-07
3.6369e-07
3.63975e-07
3.64246e-07
3.64504e-07
3.64751e-07
3.64986e-07
3.6521e-07
3.65424e-07
3.65628e-07
3.65823e-07
3.66009e-07
3.66186e-07
3.66356e-07
3.66518e-07
3.66672e-07
3.6682e-07
3.66961e-07
3.67096e-07
3.67225e-07
3.67348e-07
3.67466e-07
3.67579e-07
3.67686e-07
3.67789e-07
3.67887e-07
3.67982e-07
3.68071e-07
3.68157e-07
3.68239e-07
3.68318e-07
3.68393e-07
3.68465e-07
3.68533e-07
3.68599e-07
3.68661e-07
3.68721e-07
3.68779e-07
3.68833e-07
3.68886e-07
3.68935e-07
3.68983e-07
3.69029e-07
3.69073e-07
3.69114e-07
3.69155e-07
3.69193e-07
3.69229e-07
3.69265e-07
3.69296e-07
3.6933e-07
3.69353e-07
3.69406e-07
0.0351644
0.0149801
0.0100737
0.012139
0.0135094
0.0142569
0.012576
0.011177
0.00994998
0.0092096
0.00960801
0.0108224
0.012356
0.0115513
0.00980021
0.00920699
0.00799511
0.00776011
0.0125791
0.0182821
0.0199102
0.0171454
0.0172302
0.0182269
0.0171162
0.0145545
0.0117376
0.00943673
0.00722349
0.00596881
0.00570214
0.00568349
0.00626444
0.00606382
0.00381449
0.00135156
0.000639262
0.000424888
0.000181027
6.24082e-05
1.83177e-05
4.61659e-06
1.11069e-06
3.67439e-07
2.46594e-07
2.43031e-07
2.55923e-07
2.72257e-07
2.86142e-07
2.97321e-07
3.06748e-07
3.14772e-07
3.21632e-07
3.27521e-07
3.32599e-07
3.36998e-07
3.40826e-07
3.44174e-07
3.47115e-07
3.4971e-07
3.5201e-07
3.54056e-07
3.55886e-07
3.57524e-07
3.59003e-07
3.60336e-07
3.61546e-07
3.62646e-07
3.63649e-07
3.64567e-07
3.65408e-07
3.66182e-07
3.66894e-07
3.67553e-07
3.68162e-07
3.68728e-07
3.69253e-07
3.69742e-07
3.70198e-07
3.70624e-07
3.71022e-07
3.71395e-07
3.71745e-07
3.72074e-07
3.72383e-07
3.72674e-07
3.72949e-07
3.73207e-07
3.73451e-07
3.73682e-07
3.739e-07
3.74107e-07
3.74303e-07
3.74488e-07
3.74664e-07
3.74831e-07
3.74989e-07
3.7514e-07
3.75283e-07
3.75419e-07
3.75549e-07
3.75672e-07
3.7579e-07
3.75902e-07
3.76008e-07
3.7611e-07
3.76207e-07
3.76299e-07
3.76388e-07
3.76472e-07
3.76552e-07
3.76629e-07
3.76702e-07
3.76772e-07
3.76839e-07
3.76903e-07
3.76964e-07
3.77022e-07
3.77078e-07
3.77131e-07
3.77182e-07
3.77231e-07
3.77277e-07
3.77322e-07
3.77364e-07
3.77405e-07
3.77443e-07
3.7748e-07
3.77516e-07
3.7755e-07
3.77582e-07
3.77613e-07
3.77643e-07
3.77671e-07
3.77699e-07
3.77724e-07
3.77749e-07
3.77773e-07
3.77796e-07
3.77817e-07
3.77838e-07
3.77858e-07
3.77877e-07
3.77895e-07
3.77913e-07
3.7793e-07
3.77945e-07
3.77962e-07
3.77969e-07
3.78002e-07
0.0416748
0.019331
0.0115472
0.0136559
0.0169667
0.0182286
0.0156675
0.0131514
0.0118408
0.0110086
0.0112452
0.0120621
0.0131365
0.0118667
0.00891226
0.0084988
0.00810923
0.0096498
0.0164291
0.0225567
0.0243956
0.0206106
0.0181814
0.0200585
0.0195356
0.0164851
0.0119391
0.00839808
0.00594501
0.00542147
0.00559343
0.00527796
0.00470194
0.00540981
0.00428148
0.00193765
0.000744227
0.000380741
0.000181942
6.90455e-05
2.14881e-05
5.64264e-06
1.39501e-06
4.63714e-07
3.03772e-07
2.92282e-07
3.02258e-07
3.14928e-07
3.25936e-07
3.34372e-07
3.41188e-07
3.46771e-07
3.51374e-07
3.55193e-07
3.58382e-07
3.61062e-07
3.63327e-07
3.65254e-07
3.66904e-07
3.68324e-07
3.69553e-07
3.70624e-07
3.71558e-07
3.72383e-07
3.73108e-07
3.73755e-07
3.7433e-07
3.74844e-07
3.75307e-07
3.75725e-07
3.76102e-07
3.76445e-07
3.76758e-07
3.77044e-07
3.77306e-07
3.77547e-07
3.77769e-07
3.77974e-07
3.78164e-07
3.78341e-07
3.78505e-07
3.78658e-07
3.78801e-07
3.78936e-07
3.79061e-07
3.79179e-07
3.7929e-07
3.79395e-07
3.79493e-07
3.79586e-07
3.79674e-07
3.79757e-07
3.79836e-07
3.79911e-07
3.79982e-07
3.80049e-07
3.80113e-07
3.80174e-07
3.80232e-07
3.80288e-07
3.8034e-07
3.80391e-07
3.80439e-07
3.80484e-07
3.80528e-07
3.8057e-07
3.8061e-07
3.80648e-07
3.80684e-07
3.80719e-07
3.80753e-07
3.80785e-07
3.80815e-07
3.80844e-07
3.80872e-07
3.80899e-07
3.80925e-07
3.8095e-07
3.80973e-07
3.80996e-07
3.81018e-07
3.81038e-07
3.81058e-07
3.81077e-07
3.81095e-07
3.81113e-07
3.8113e-07
3.81146e-07
3.81161e-07
3.81176e-07
3.8119e-07
3.81203e-07
3.81217e-07
3.81229e-07
3.81241e-07
3.81252e-07
3.81263e-07
3.81273e-07
3.81284e-07
3.81293e-07
3.81303e-07
3.81311e-07
3.8132e-07
3.81328e-07
3.81336e-07
3.81344e-07
3.8135e-07
3.8136e-07
3.81359e-07
3.81381e-07
0.0479655
0.0245278
0.0155865
0.0175963
0.0208152
0.0218357
0.0187695
0.0154561
0.0138494
0.0128996
0.0129928
0.0130691
0.0132151
0.0117934
0.00918018
0.00905519
0.00939312
0.012534
0.0200282
0.0265063
0.0285379
0.0246767
0.0195553
0.0212924
0.0214392
0.0179084
0.0115607
0.00725293
0.00553568
0.00621267
0.00657792
0.00599019
0.00408536
0.00415282
0.00395742
0.00243448
0.00107324
0.000485192
0.000211367
8.07521e-05
2.5518e-05
6.80281e-06
1.69705e-06
5.56922e-07
3.53083e-07
3.31566e-07
3.37958e-07
3.46508e-07
3.54107e-07
3.59714e-07
3.64029e-07
3.67396e-07
3.70046e-07
3.72149e-07
3.73811e-07
3.75147e-07
3.76229e-07
3.77112e-07
3.77835e-07
3.78432e-07
3.78928e-07
3.79341e-07
3.79688e-07
3.7998e-07
3.80229e-07
3.80442e-07
3.80624e-07
3.80781e-07
3.80918e-07
3.81037e-07
3.81142e-07
3.81234e-07
3.81316e-07
3.8139e-07
3.81456e-07
3.81515e-07
3.81569e-07
3.81619e-07
3.81664e-07
3.81706e-07
3.81745e-07
3.81781e-07
3.81815e-07
3.81847e-07
3.81876e-07
3.81905e-07
3.81932e-07
3.81958e-07
3.81982e-07
3.82005e-07
3.82028e-07
3.82049e-07
3.8207e-07
3.8209e-07
3.82109e-07
3.82128e-07
3.82146e-07
3.82163e-07
3.8218e-07
3.82196e-07
3.82212e-07
3.82227e-07
3.82242e-07
3.82256e-07
3.8227e-07
3.82283e-07
3.82296e-07
3.82309e-07
3.82321e-07
3.82333e-07
3.82345e-07
3.82356e-07
3.82366e-07
3.82377e-07
3.82387e-07
3.82397e-07
3.82406e-07
3.82416e-07
3.82424e-07
3.82433e-07
3.82441e-07
3.82449e-07
3.82457e-07
3.82465e-07
3.82472e-07
3.82479e-07
3.82486e-07
3.82492e-07
3.82499e-07
3.82505e-07
3.8251e-07
3.82516e-07
3.82522e-07
3.82527e-07
3.82532e-07
3.82537e-07
3.82541e-07
3.82546e-07
3.8255e-07
3.82554e-07
3.82559e-07
3.82563e-07
3.82567e-07
3.82571e-07
3.82574e-07
3.82578e-07
3.82581e-07
3.82587e-07
3.82582e-07
3.826e-07
0.0537277
0.0290692
0.019046
0.020432
0.0232779
0.0243681
0.0214593
0.0177699
0.0158918
0.0147839
0.0147896
0.0142746
0.0132525
0.0117436
0.00995987
0.0101791
0.0112589
0.0154507
0.0234071
0.0301602
0.0323776
0.0284754
0.0219643
0.0220874
0.0225045
0.0185102
0.0110412
0.00659905
0.00624056
0.00728856
0.00761004
0.00689578
0.00442437
0.00308268
0.00308504
0.00246846
0.00146292
0.000697652
0.000276949
0.000100708
3.11542e-05
8.22949e-06
2.03443e-06
6.48741e-07
3.9505e-07
3.62018e-07
3.63773e-07
3.6896e-07
3.73242e-07
3.7637e-07
3.78548e-07
3.80085e-07
3.81197e-07
3.81999e-07
3.8257e-07
3.82973e-07
3.83253e-07
3.83441e-07
3.83563e-07
3.83635e-07
3.83671e-07
3.8368e-07
3.83672e-07
3.83649e-07
3.83619e-07
3.83582e-07
3.83541e-07
3.83498e-07
3.83455e-07
3.83412e-07
3.8337e-07
3.8333e-07
3.83291e-07
3.83254e-07
3.83219e-07
3.83185e-07
3.83154e-07
3.83125e-07
3.83098e-07
3.83074e-07
3.83051e-07
3.8303e-07
3.83012e-07
3.82995e-07
3.82979e-07
3.82965e-07
3.82953e-07
3.82942e-07
3.82932e-07
3.82924e-07
3.82916e-07
3.8291e-07
3.82904e-07
3.829e-07
3.82896e-07
3.82893e-07
3.8289e-07
3.82888e-07
3.82887e-07
3.82886e-07
3.82886e-07
3.82886e-07
3.82886e-07
3.82887e-07
3.82888e-07
3.82889e-07
3.82891e-07
3.82893e-07
3.82895e-07
3.82897e-07
3.82899e-07
3.82902e-07
3.82904e-07
3.82907e-07
3.82909e-07
3.82912e-07
3.82915e-07
3.82918e-07
3.8292e-07
3.82923e-07
3.82926e-07
3.82929e-07
3.82932e-07
3.82935e-07
3.82937e-07
3.8294e-07
3.82943e-07
3.82945e-07
3.82948e-07
3.82951e-07
3.82953e-07
3.82956e-07
3.82958e-07
3.8296e-07
3.82963e-07
3.82965e-07
3.82967e-07
3.82969e-07
3.82971e-07
3.82973e-07
3.82976e-07
3.82978e-07
3.8298e-07
3.82982e-07
3.82984e-07
3.82986e-07
3.82987e-07
3.82992e-07
3.82986e-07
3.83003e-07
0.0609976
0.0332657
0.0209217
0.0213488
0.0238532
0.0255967
0.0242194
0.0211629
0.0190043
0.0176386
0.017551
0.0167508
0.0140866
0.0121282
0.0114695
0.0125379
0.0146041
0.0196321
0.0282746
0.0352332
0.0376724
0.0338175
0.0266193
0.0229096
0.0229616
0.0182936
0.0102409
0.00676658
0.00790482
0.00890528
0.00909754
0.00819639
0.0053419
0.00236245
0.00177871
0.00188813
0.00175286
0.00106786
0.000409396
0.000142381
4.2788e-05
1.11389e-05
2.67837e-06
7.983e-07
4.46682e-07
3.92689e-07
3.87389e-07
3.88211e-07
3.89117e-07
3.89553e-07
3.89639e-07
3.8951e-07
3.89256e-07
3.88932e-07
3.88572e-07
3.88199e-07
3.87827e-07
3.87467e-07
3.87125e-07
3.86803e-07
3.86504e-07
3.86225e-07
3.85968e-07
3.85729e-07
3.8551e-07
3.85307e-07
3.85121e-07
3.8495e-07
3.84792e-07
3.84647e-07
3.84512e-07
3.84388e-07
3.84274e-07
3.84171e-07
3.84077e-07
3.83991e-07
3.83913e-07
3.83841e-07
3.83776e-07
3.83717e-07
3.83662e-07
3.83612e-07
3.83566e-07
3.83524e-07
3.83485e-07
3.83449e-07
3.83417e-07
3.83387e-07
3.8336e-07
3.83335e-07
3.83312e-07
3.83292e-07
3.83273e-07
3.83256e-07
3.83241e-07
3.83227e-07
3.83214e-07
3.83202e-07
3.83192e-07
3.83183e-07
3.83175e-07
3.83167e-07
3.83161e-07
3.83155e-07
3.8315e-07
3.83145e-07
3.83141e-07
3.83138e-07
3.83135e-07
3.83132e-07
3.8313e-07
3.83128e-07
3.83127e-07
3.83126e-07
3.83125e-07
3.83124e-07
3.83124e-07
3.83123e-07
3.83123e-07
3.83124e-07
3.83124e-07
3.83124e-07
3.83124e-07
3.83125e-07
3.83126e-07
3.83127e-07
3.83127e-07
3.83128e-07
3.83129e-07
3.8313e-07
3.83131e-07
3.83132e-07
3.83133e-07
3.83134e-07
3.83135e-07
3.83136e-07
3.83137e-07
3.83138e-07
3.83139e-07
3.8314e-07
3.83142e-07
3.83143e-07
3.83144e-07
3.83146e-07
3.83147e-07
3.83149e-07
3.83149e-07
3.83153e-07
3.83146e-07
3.83163e-07
0.0656411
0.0326134
0.0165969
0.0160491
0.0185113
0.0211854
0.0235489
0.0248485
0.0229466
0.0212386
0.0210579
0.0202533
0.016865
0.0144069
0.0135416
0.0155417
0.0185595
0.0245784
0.0337385
0.0408271
0.0433693
0.0394432
0.0322351
0.0250254
0.0226021
0.0170592
0.00970941
0.00854123
0.0101936
0.0108823
0.0108347
0.00969959
0.00653969
0.00272358
0.00105033
0.00106531
0.0014048
0.00123529
0.000617868
0.000205334
5.87735e-05
1.44967e-05
3.27557e-06
9.0798e-07
4.78534e-07
4.1e-07
3.99817e-07
3.97718e-07
3.96522e-07
3.95395e-07
3.94302e-07
3.93272e-07
3.92319e-07
3.91447e-07
3.90658e-07
3.89952e-07
3.89322e-07
3.8876e-07
3.88255e-07
3.878e-07
3.87387e-07
3.87011e-07
3.86669e-07
3.86358e-07
3.86076e-07
3.85819e-07
3.85587e-07
3.85375e-07
3.85181e-07
3.85006e-07
3.84849e-07
3.84707e-07
3.84577e-07
3.84458e-07
3.84348e-07
3.84246e-07
3.84152e-07
3.84064e-07
3.83982e-07
3.83907e-07
3.83838e-07
3.83775e-07
3.83717e-07
3.83663e-07
3.83615e-07
3.83571e-07
3.8353e-07
3.83493e-07
3.83459e-07
3.83428e-07
3.834e-07
3.83375e-07
3.83351e-07
3.8333e-07
3.83311e-07
3.83294e-07
3.83278e-07
3.83263e-07
3.83251e-07
3.83239e-07
3.83228e-07
3.83219e-07
3.83211e-07
3.83203e-07
3.83196e-07
3.8319e-07
3.83185e-07
3.8318e-07
3.83176e-07
3.83173e-07
3.8317e-07
3.83167e-07
3.83165e-07
3.83163e-07
3.83161e-07
3.8316e-07
3.83158e-07
3.83158e-07
3.83157e-07
3.83157e-07
3.83157e-07
3.83157e-07
3.83156e-07
3.83156e-07
3.83157e-07
3.83157e-07
3.83158e-07
3.83158e-07
3.83159e-07
3.83159e-07
3.8316e-07
3.83161e-07
3.83162e-07
3.83162e-07
3.83163e-07
3.83164e-07
3.83165e-07
3.83166e-07
3.83167e-07
3.83168e-07
3.83169e-07
3.8317e-07
3.83171e-07
3.83172e-07
3.83173e-07
3.83176e-07
3.83176e-07
3.8318e-07
3.83173e-07
3.8319e-07
0.0706953
0.0346292
0.0151475
0.014095
0.0170708
0.0202848
0.0239738
0.0274632
0.0264734
0.0247004
0.024463
0.0237898
0.0204877
0.0173354
0.0163319
0.0185442
0.0222856
0.0291048
0.0385574
0.0463356
0.048781
0.0438475
0.036778
0.028895
0.0226191
0.0157423
0.010153
0.010926
0.0123732
0.0127179
0.0123893
0.011042
0.00761716
0.00348483
0.00120651
0.000677969
0.00085784
0.000955371
0.000663801
0.000225991
6.22791e-05
1.48365e-05
3.28637e-06
9.08186e-07
4.84004e-07
4.16154e-07
4.04767e-07
4.01519e-07
3.99451e-07
3.97693e-07
3.9614e-07
3.94766e-07
3.93554e-07
3.92485e-07
3.91542e-07
3.90707e-07
3.89964e-07
3.89299e-07
3.88702e-07
3.88167e-07
3.87687e-07
3.87258e-07
3.86875e-07
3.86532e-07
3.86222e-07
3.85942e-07
3.85689e-07
3.8546e-07
3.85252e-07
3.85063e-07
3.84886e-07
3.84722e-07
3.84571e-07
3.84433e-07
3.84308e-07
3.84195e-07
3.84093e-07
3.84002e-07
3.8392e-07
3.83848e-07
3.83784e-07
3.83725e-07
3.83671e-07
3.83622e-07
3.83577e-07
3.83536e-07
3.83499e-07
3.83465e-07
3.83435e-07
3.83406e-07
3.83381e-07
3.83358e-07
3.83336e-07
3.83317e-07
3.833e-07
3.83284e-07
3.8327e-07
3.83257e-07
3.83245e-07
3.83235e-07
3.83225e-07
3.83217e-07
3.83209e-07
3.83202e-07
3.83196e-07
3.83191e-07
3.83186e-07
3.83182e-07
3.83178e-07
3.83175e-07
3.83172e-07
3.8317e-07
3.83168e-07