/*--------------------------------*- C++ -*----------------------------------*\
| =========                 |                                                 |
| \\      /  F ield         | OpenFOAM: The Open Source CFD Toolbox           |
|  \\    /   O peration     | Version:  v1912                                 |
|   \\  /    A nd           | Website:  www.openfoam.com                      |
|    \\/     M anipulation  |                                                 |
\*---------------------------------------------------------------------------*/
FoamFile
{
    version     2.0;
    format      ascii;
    class       volScalarField;
    location    "30";
    object      omega;
}
// * * * * * * * * * * * * * * * * * * * * * * * * * * * * * * * * * * * * * //

dimensions      [0 0 -1 0 0 0 0];


internalField   nonuniform List<scalar> 
14268
(
122.983
64.7723
63.1796
87.3854
84.559
78.2185
70.8027
66.2989
64.7638
66.1541
70.2834
71.0906
66.5361
60.222
58.1384
59.0344
56.8239
56.3675
59.243
65.368
72.5133
72.9813
69.0286
61.8713
54.5779
49.2506
47.4831
47.6053
47.8453
47.7801
47.0843
45.3487
42.6439
41.0185
41.1302
42.5757
44.2716
44.596
44.5926
44.5918
44.5917
44.5916
44.5916
44.5916
44.5916
44.5916
44.5916
44.5916
44.5916
44.5916
44.5916
44.5916
44.5916
44.5916
44.5916
44.5916
44.5916
44.5916
44.5916
44.5916
44.5916
44.5916
44.5916
44.5916
44.5916
44.5916
44.5916
44.5916
44.5916
44.5916
44.5916
44.5916
44.5916
44.5916
44.5916
44.5916
44.5916
44.5916
44.5916
44.5916
44.5916
44.5916
44.5916
44.5916
44.5916
44.5916
44.5916
44.5916
44.5916
44.5916
44.5916
44.5916
44.5916
44.5916
44.5916
44.5916
44.5916
44.5916
44.5916
44.5916
44.5916
44.5916
44.5916
44.5916
44.5916
44.5916
44.5916
44.5916
44.5916
44.5916
44.5916
44.5916
44.5916
44.5916
44.5916
44.5916
44.5916
44.5916
44.5916
44.5916
44.5916
44.5916
44.5916
44.5916
44.5916
44.5916
44.5916
44.5916
44.5916
44.5916
44.5916
44.5916
44.5916
44.5916
44.5916
44.5916
44.5916
44.5916
44.5916
44.5916
44.5916
44.5916
44.5916
44.5916
44.5916
44.5916
44.5916
44.5916
44.5916
44.5916
48.5733
27.0916
26.1534
31.7997
38.9927
53.4446
53.0684
47.4638
42.4424
36.5576
34.9462
33.4562
29.7624
26.3845
27.5098
32.8308
33.989
32.9539
31.5303
31.0296
30.1346
28.1957
26.8272
24.5654
20.7732
17.8062
16.5041
15.8897
15.2549
14.634
13.9185
12.7976
10.84
8.51996
7.92906
8.0679
8.82321
10.1953
11.0247
11.0387
10.7606
10.4623
10.2865
10.1489
10.0235
9.90557
9.7934
9.68679
9.58638
9.49226
9.40429
9.32227
9.24588
9.1748
9.10866
9.04708
8.98971
8.93621
8.88625
8.83951
8.79568
8.75453
8.71588
8.67957
8.64534
8.61299
8.58239
8.55341
8.52592
8.49981
8.47498
8.45132
8.42877
8.40725
8.38668
8.36701
8.34817
8.33013
8.31283
8.29623
8.28029
8.26498
8.25026
8.23611
8.2225
8.2094
8.19678
8.18464
8.17294
8.16168
8.15082
8.14036
8.13027
8.12056
8.11119
8.10217
8.09347
8.08508
8.077
8.06921
8.0617
8.05447
8.0475
8.04078
8.03431
8.02808
8.02208
8.0163
8.01073
8.00537
8.00022
7.99525
7.99048
7.98588
7.98146
7.97721
7.97312
7.96919
7.96541
7.96178
7.95829
7.95494
7.95172
7.94863
7.94566
7.94281
7.94008
7.93745
7.93493
7.93251
7.93019
7.92797
7.92583
7.92379
7.92182
7.91994
7.91814
7.91641
7.91476
7.91318
7.91166
7.91021
7.90882
7.90749
7.90622
7.90501
7.90386
7.9028
7.90173
7.90031
32.578
18.1624
17.4138
21.3334
24.9368
28.8973
28.3943
27.3896
27.0167
25.9271
25.266
23.5986
20.3478
17.6495
17.7825
19.9126
20.0785
19.5011
18.9554
18.8067
17.8025
16.7666
15.8526
14.013
11.7759
10.1491
9.47687
9.18357
8.89696
8.51789
7.93655
6.97437
5.54131
4.17314
3.70435
3.78871
4.18355
4.78027
5.0101
4.95085
4.72951
4.49779
4.34881
4.22839
4.12257
4.02813
3.94165
3.86212
3.78926
3.72254
3.66144
3.60547
3.55416
3.50704
3.46371
3.42379
3.38693
3.35282
3.32119
3.29177
3.26436
3.23876
3.21483
3.19241
3.17134
3.1515
3.1328
3.11513
3.09841
3.08257
3.06753
3.05324
3.03965
3.02669
3.01434
3.00255
2.99128
2.9805
2.97018
2.9603
2.95084
2.94175
2.93304
2.92467
2.91664
2.90892
2.9015
2.89437
2.88751
2.88092
2.87457
2.86847
2.8626
2.85694
2.8515
2.84627
2.84123
2.83638
2.83171
2.82722
2.82289
2.81873
2.81473
2.81088
2.80717
2.8036
2.80017
2.79687
2.79369
2.79064
2.78771
2.78488
2.78217
2.77956
2.77705
2.77464
2.77233
2.77011
2.76797
2.76592
2.76395
2.76206
2.76024
2.7585
2.75683
2.75522
2.75368
2.75221
2.75079
2.74943
2.74813
2.74688
2.74568
2.74454
2.74344
2.74239
2.74138
2.74041
2.73949
2.7386
2.73775
2.73694
2.73617
2.73543
2.73472
2.73404
2.73341
2.73281
2.73222
2.73143
25.9447
14.3186
13.652
17.1234
19.3321
19.5646
18.0206
17.7493
18.9947
20.6119
20.0264
18.1137
15.2384
13.2355
13.0218
14.1841
15.0389
14.9595
14.5114
14.2214
12.892
12.1768
11.6202
10.0417
8.53097
7.492
7.08839
6.92787
6.75467
6.46063
5.95775
5.14004
4.04477
3.13619
2.65984
2.62086
2.80302
3.11065
3.21099
3.13635
2.92397
2.71454
2.57904
2.47141
2.37917
2.29799
2.22509
2.1595
2.10054
2.04744
1.9995
1.95613
1.91679
1.88099
1.84833
1.81845
1.79102
1.76577
1.74246
1.72087
1.70083
1.68218
1.66478
1.64853
1.63329
1.61897
1.6055
1.5928
1.5808
1.56946
1.5587
1.54851
1.53882
1.5296
1.52083
1.51246
1.50449
1.49687
1.48959
1.48263
1.47597
1.46959
1.46348
1.45762
1.452
1.44662
1.44145
1.43649
1.43172
1.42715
1.42276
1.41854
1.41448
1.41058
1.40684
1.40324
1.39978
1.39645
1.39326
1.39018
1.38723
1.38439
1.38166
1.37904
1.37652
1.3741
1.37177
1.36953
1.36738
1.36532
1.36334
1.36143
1.3596
1.35784
1.35615
1.35453
1.35298
1.35148
1.35005
1.34867
1.34735
1.34608
1.34487
1.3437
1.34259
1.34151
1.34048
1.3395
1.33855
1.33765
1.33678
1.33595
1.33515
1.33439
1.33365
1.33295
1.33228
1.33164
1.33103
1.33044
1.32988
1.32934
1.32882
1.32833
1.32786
1.32741
1.32699
1.32659
1.3262
1.32568
22.4495
12.3535
11.7079
14.1187
15.8787
15.0786
13.478
13.2337
14.2678
16.2977
15.7571
14.0475
11.8325
10.5655
10.5142
11.4834
12.4845
12.3402
11.4153
11.074
10.0374
9.74665
9.31473
8.0477
6.93938
6.2174
5.95279
5.83134
5.68137
5.41522
4.95396
4.2343
3.3471
2.70619
2.32613
2.1729
2.22826
2.35743
2.3658
2.25478
2.03933
1.87263
1.76791
1.68507
1.61048
1.54191
1.48027
1.42551
1.37697
1.33384
1.29535
1.26089
1.2299
1.20194
1.17661
1.15357
1.13254
1.11329
1.0956
1.07929
1.06421
1.05023
1.03724
1.02514
1.01383
1.00324
0.993299
0.983958
0.97516
0.966861
0.959018
0.951598
0.944568
0.937898
0.931564
0.925542
0.919811
0.914352
0.909148
0.904184
0.899444
0.894917
0.890589
0.886451
0.882492
0.878702
0.875074
0.871598
0.868268
0.865077
0.862018
0.859084
0.856271
0.853573
0.850985
0.848502
0.846119
0.843833
0.841638
0.839533
0.837512
0.835572
0.83371
0.831923
0.830208
0.828562
0.826982
0.825466
0.82401
0.822614
0.821274
0.819988
0.818754
0.81757
0.816435
0.815345
0.8143
0.813297
0.812337
0.811414
0.810531
0.809683
0.808871
0.808091
0.807346
0.80663
0.805944
0.805287
0.804658
0.804055
0.803478
0.802925
0.802395
0.801889
0.801403
0.800939
0.800494
0.800069
0.799661
0.799271
0.798898
0.798542
0.798201
0.797874
0.797563
0.797267
0.796987
0.796725
0.796465
0.796119
20.2597
11.2057
10.2347
11.2073
12.5104
11.837
10.778
10.7317
11.4907
13.0035
12.6225
11.3249
9.73615
9.01357
9.13311
9.87
10.7235
10.6904
9.85079
9.42827
8.56493
8.26616
7.8524
6.86945
6.02049
5.48566
5.27272
5.1503
5.00919
4.75653
4.32
3.66674
2.90634
2.43588
2.15296
1.97685
1.93567
1.95267
1.91207
1.76115
1.5515
1.41003
1.32034
1.2526
1.1906
1.13251
1.08055
1.03495
0.995075
0.960071
0.929195
0.901831
0.877462
0.855658
0.83606
0.818372
0.802342
0.787758
0.77444
0.762236
0.751013
0.740665
0.731097
0.722226
0.713977
0.706289
0.699108
0.692386
0.686084
0.680163
0.674591
0.66934
0.664384
0.659701
0.65527
0.651073
0.647093
0.643314
0.639725
0.636313
0.633065
0.629973
0.627027
0.624219
0.621539
0.618983
0.616541
0.61421
0.611982
0.609852
0.607815
0.605868
0.604004
0.602221
0.600515
0.598881
0.597317
0.595819
0.594385
0.593011
0.591695
0.590434
0.589226
0.588068
0.586959
0.585896
0.584878
0.583902
0.582967
0.582071
0.581212
0.580389
0.5796
0.578844
0.57812
0.577426
0.576761
0.576124
0.575514
0.574928
0.574369
0.573832
0.573318
0.572826
0.572355
0.571903
0.571471
0.571057
0.570661
0.570282
0.569918
0.569571
0.569238
0.56892
0.568615
0.568324
0.568045
0.567778
0.567522
0.567278
0.567044
0.566821
0.566607
0.566403
0.566208
0.566023
0.565848
0.565683
0.565521
0.565304
18.5571
10.4473
9.20239
9.61192
10.2644
9.72636
9.02472
9.09381
9.69773
10.8036
10.5634
9.61966
8.45658
8.06325
8.29523
8.87513
9.4788
9.51136
8.88826
8.44711
7.6741
7.37833
6.96974
6.13634
5.42774
4.99001
4.7948
4.67516
4.5421
4.29849
3.88181
3.27501
2.59759
2.19934
2.01628
1.86552
1.75684
1.68911
1.60264
1.44867
1.26328
1.13436
1.04709
0.985186
0.932106
0.883002
0.839637
0.802118
0.769766
0.741745
0.717336
0.695954
0.677118
0.660437
0.645589
0.63231
0.62038
0.609618
0.599867
0.591001
0.582908
0.575498
0.568694
0.562426
0.556636
0.551273
0.546294
0.541661
0.537342
0.533306
0.529529
0.525988
0.522664
0.519538
0.516595
0.51382
0.5112
0.508726
0.506385
0.504168
0.502068
0.500077
0.498187
0.496392
0.494686
0.493064
0.491521
0.490052
0.488653
0.48732
0.48605
0.484838
0.483683
0.482581
0.481528
0.480524
0.479565
0.478648
0.477773
0.476937
0.476137
0.475373
0.474643
0.473944
0.473276
0.472638
0.472027
0.471442
0.470883
0.470349
0.469837
0.469347
0.468879
0.468431
0.468002
0.467592
0.467199
0.466823
0.466464
0.46612
0.465791
0.465476
0.465175
0.464886
0.464611
0.464347
0.464094
0.463853
0.463622
0.463401
0.46319
0.462988
0.462794
0.462609
0.462432
0.462263
0.4621
0.461946
0.461797
0.461656
0.46152
0.461391
0.461267
0.461149
0.461036
0.460928
0.460827
0.460732
0.460639
0.460512
17.0795
9.86269
8.58209
8.78301
9.1052
8.57183
7.86463
7.93825
8.44545
9.28213
9.13381
8.46435
7.60266
7.41567
7.73474
8.23838
8.68272
8.78674
8.25528
7.76084
7.03169
6.75745
6.34702
5.6143
4.9934
4.61418
4.44126
4.33141
4.20451
3.96784
3.57139
3.00651
2.3983
2.01878
1.85552
1.76143
1.64589
1.52665
1.39842
1.24088
1.07381
0.951908
0.866229
0.807568
0.762206
0.72125
0.685649
0.655327
0.629585
0.607619
0.588751
0.572442
0.558255
0.545841
0.534916
0.525252
0.51666
0.508985
0.502099
0.495894
0.490281
0.485186
0.480545
0.476305
0.472418
0.468845
0.465551
0.462508
0.459691
0.457076
0.454645
0.45238
0.450266
0.448291
0.446442
0.444708
0.443081
0.441552
0.440113
0.438758
0.43748
0.436274
0.435135
0.434058
0.433039
0.432075
0.431161
0.430295
0.429474
0.428694
0.427953
0.42725
0.426582
0.425946
0.425341
0.424766
0.424219
0.423697
0.4232
0.422727
0.422276
0.421846
0.421436
0.421045
0.420672
0.420317
0.419977
0.419653
0.419344
0.419048
0.418767
0.418497
0.41824
0.417995
0.41776
0.417536
0.417322
0.417117
0.416922
0.416735
0.416557
0.416386
0.416224
0.416068
0.415919
0.415777
0.415641
0.415512
0.415388
0.415269
0.415156
0.415048
0.414944
0.414846
0.414751
0.414661
0.414574
0.414492
0.414412
0.414337
0.414265
0.414196
0.41413
0.414067
0.414007
0.41395
0.413896
0.413845
0.413797
0.413727
15.8076
9.33695
8.16566
8.28094
8.38098
7.81304
7.09227
7.09575
7.51301
8.17159
8.08969
7.62581
6.98813
6.93611
7.33469
7.80981
8.14618
8.19573
7.62274
7.10339
6.515
6.27734
5.89196
5.22483
4.65849
4.32024
4.17551
4.08234
3.95788
3.72164
3.34121
2.81774
2.27073
1.91259
1.72282
1.64299
1.5518
1.42906
1.28017
1.10406
0.941789
0.823468
0.740258
0.685319
0.646989
0.613471
0.584813
0.560809
0.540771
0.523948
0.50972
0.497599
0.487201
0.47822
0.470416
0.463594
0.457598
0.452301
0.447598
0.443403
0.439645
0.436266
0.433216
0.430454
0.427944
0.425655
0.423562
0.421644
0.419882
0.418258
0.41676
0.415373
0.414089
0.412896
0.411787
0.410754
0.409791
0.408891
0.408049
0.407261
0.406523
0.405829
0.405178
0.404566
0.403989
0.403447
0.402935
0.402453
0.401997
0.401567
0.40116
0.400775
0.400411
0.400067
0.39974
0.399431
0.399137
0.398859
0.398595
0.398344
0.398106
0.39788
0.397665
0.397461
0.397267
0.397082
0.396906
0.396739
0.396579
0.396428
0.396283
0.396146
0.396015
0.39589
0.395771
0.395657
0.395549
0.395446
0.395348
0.395254
0.395165
0.395079
0.394998
0.39492
0.394847
0.394776
0.394708
0.394644
0.394583
0.394524
0.394468
0.394415
0.394364
0.394315
0.394269
0.394225
0.394182
0.394142
0.394103
0.394066
0.394031
0.393997
0.393965
0.393934
0.393905
0.393876
0.39385
0.393825
0.393802
0.393767
14.7076
8.84251
7.8239
7.89553
7.85881
7.23211
6.51301
6.47818
6.7991
7.32476
7.2911
6.97706
6.51924
6.56325
7.03987
7.48982
7.70496
7.59659
6.93124
6.45827
6.02755
5.88317
5.52607
4.93087
4.40133
4.09592
3.9754
3.89191
3.75862
3.50798
3.13913
2.6592
2.17262
1.84419
1.64604
1.55215
1.47018
1.35879
1.20307
1.01108
0.846584
0.730515
0.650642
0.60003
0.568073
0.541198
0.518574
0.499938
0.484651
0.47203
0.461524
0.452705
0.445244
0.438885
0.433429
0.428716
0.42462
0.421041
0.417897
0.415121
0.412658
0.410463
0.408502
0.406739
0.405153
0.403717
0.402416
0.401233
0.400154
0.399168
0.398265
0.397435
0.396672
0.395969
0.395319
0.394718
0.394162
0.393645
0.393166
0.39272
0.392304
0.391916
0.391555
0.391217
0.3909
0.390604
0.390327
0.390067
0.389823
0.389593
0.389378
0.389175
0.388984
0.388805
0.388635
0.388476
0.388325
0.388183
0.388049
0.387922
0.387802
0.387689
0.387581
0.38748
0.387384
0.387293
0.387206
0.387125
0.387047
0.386974
0.386904
0.386838
0.386775
0.386715
0.386659
0.386605
0.386554
0.386505
0.386459
0.386414
0.386373
0.386333
0.386295
0.386259
0.386225
0.386192
0.386161
0.386131
0.386103
0.386076
0.386051
0.386026
0.386003
0.385981
0.38596
0.38594
0.385921
0.385903
0.385885
0.385868
0.385852
0.385837
0.385822
0.385808
0.385795
0.385782
0.385771
0.385759
0.38575
0.385732
13.8054
8.42076
7.46192
7.4912
7.36442
6.72424
6.03412
6.00957
6.25536
6.67519
6.66149
6.44853
6.14375
6.26321
6.78666
7.2046
7.29703
6.99519
6.36505
5.96384
5.61293
5.5216
5.2344
4.71066
4.21163
3.92745
3.81837
3.72951
3.56762
3.28334
2.91915
2.49055
2.0819
1.78977
1.59767
1.48786
1.40374
1.29505
1.1362
0.937049
0.773891
0.661972
0.586498
0.540433
0.514147
0.49303
0.475464
0.461201
0.449694
0.440344
0.432674
0.426322
0.421016
0.416547
0.412754
0.409512
0.406722
0.404307
0.402205
0.400364
0.398745
0.397313
0.396045
0.39491
0.393901
0.392991
0.392173
0.391435
0.390767
0.39016
0.389608
0.389104
0.388644
0.388223
0.387836
0.387481
0.387155
0.386853
0.386576
0.386319
0.386081
0.385861
0.385657
0.385468
0.385292
0.385129
0.384976
0.384835
0.384702
0.384579
0.384464
0.384356
0.384256
0.384162
0.384074
0.383991
0.383914
0.383841
0.383773
0.38371
0.38365
0.383593
0.38354
0.383491
0.383444
0.3834
0.383358
0.383319
0.383282
0.383247
0.383215
0.383184
0.383155
0.383127
0.383101
0.383076
0.383053
0.383031
0.38301
0.38299
0.382972
0.382954
0.382937
0.382921
0.382906
0.382892
0.382879
0.382866
0.382854
0.382842
0.382831
0.382821
0.382811
0.382801
0.382792
0.382784
0.382776
0.382768
0.382761
0.382754
0.382747
0.382741
0.382735
0.382729
0.382723
0.382718
0.382713
0.382707
0.382705
0.382695
13.0668
8.06728
7.09857
7.09286
6.90455
6.28836
5.65803
5.63822
5.83937
6.17418
6.1633
6.01298
5.8358
6.01413
6.54912
6.9303
6.92194
6.49863
5.95676
5.60118
5.30457
5.2103
4.99186
4.53408
4.0662
3.79738
3.68546
3.57575
3.3593
3.02908
2.67818
2.2981
1.97482
1.74007
1.55976
1.44121
1.34739
1.23328
1.07263
0.875576
0.718348
0.611772
0.540984
0.499142
0.477654
0.461322
0.447819
0.436972
0.428341
0.421422
0.41581
0.41121
0.407402
0.40422
0.401539
0.399264
0.397319
0.395645
0.394195
0.392933
0.391828
0.390856
0.389999
0.389237
0.38856
0.387955
0.387413
0.386925
0.386486
0.38609
0.38573
0.385404
0.385107
0.384837
0.38459
0.384365
0.384158
0.383969
0.383796
0.383636
0.38349
0.383355
0.38323
0.383117
0.383008
0.382913
0.382822
0.382738
0.38266
0.382589
0.382522
0.38246
0.382403
0.38235
0.382301
0.382255
0.382212
0.382173
0.382136
0.382102
0.38207
0.38204
0.382012
0.381986
0.381962
0.38194
0.381919
0.381899
0.381881
0.381864
0.381848
0.381833
0.381819
0.381806
0.381794
0.381782
0.381771
0.381761
0.381752
0.381743
0.381735
0.381727
0.38172
0.381713
0.381706
0.3817
0.381694
0.381689
0.381684
0.381679
0.381675
0.38167
0.381666
0.381663
0.381659
0.381656
0.381652
0.38165
0.381646
0.381644
0.381641
0.381638
0.381636
0.381633
0.381631
0.381629
0.381627
0.381624
0.381624
0.381618
12.4643
7.7906
6.80951
6.75394
6.55249
5.97208
5.37124
5.33943
5.5115
5.78546
5.7726
5.66053
5.57668
5.79691
6.31224
6.65012
6.54993
6.08981
5.64493
5.3216
5.06376
4.96867
4.78301
4.38637
3.95071
3.69377
3.5656
3.41929
3.13111
2.79486
2.48118
2.13593
1.84718
1.6848
1.52674
1.40621
1.30383
1.18465
1.02045
0.824384
0.675079
0.575089
0.509274
0.471174
0.453503
0.440986
0.430602
0.422268
0.415684
0.410458
0.40625
0.402818
0.399987
0.397625
0.395642
0.393964
0.392532
0.391303
0.39024
0.389315
0.388507
0.387797
0.387171
0.386614
0.386122
0.385681
0.385286
0.384932
0.384614
0.384326
0.384066
0.38383
0.383616
0.383422
0.383245
0.383083
0.382936
0.382801
0.382678
0.382565
0.382462
0.382367
0.38228
0.382201
0.382126
0.38206
0.381997
0.38194
0.381888
0.381839
0.381795
0.381754
0.381716
0.381681
0.381649
0.381619
0.381591
0.381566
0.381543
0.381521
0.381502
0.381483
0.381466
0.381451
0.381436
0.381423
0.381411
0.3814
0.381389
0.38138
0.381371
0.381363
0.381355
0.381348
0.381341
0.381335
0.38133
0.381325
0.38132
0.381316
0.381312
0.381308
0.381305
0.381301
0.381298
0.381296
0.381293
0.381291
0.381289
0.381286
0.381285
0.381283
0.381281
0.38128
0.381278
0.381277
0.381276
0.381275
0.381273
0.381272
0.381271
0.38127
0.381269
0.381268
0.381267
0.381266
0.381266
0.381264
0.381265
0.38126
11.9568
7.56999
6.59327
6.49056
6.27966
5.72589
5.15031
5.09726
5.24548
5.47592
5.46074
5.36428
5.34606
5.59614
6.08976
6.37176
6.20429
5.77222
5.39402
5.09803
4.87135
4.77536
4.6103
4.26205
3.85709
3.60828
3.45533
3.25618
2.92024
2.61778
2.33319
2.01402
1.73048
1.61426
1.49241
1.37792
1.27449
1.15189
0.981801
0.784646
0.642514
0.548628
0.487026
0.451779
0.43702
0.427527
0.419524
0.413096
0.408038
0.404014
0.400766
0.398115
0.395925
0.394099
0.392561
0.391255
0.390137
0.389172
0.388334
0.387602
0.38696
0.386393
0.385893
0.385446
0.38505
0.384694
0.384375
0.384088
0.383829
0.383596
0.383385
0.383193
0.383019
0.382861
0.382716
0.382584
0.382464
0.382354
0.382253
0.382161
0.382076
0.381999
0.381928
0.381864
0.381804
0.38175
0.3817
0.381654
0.381612
0.381573
0.381538
0.381505
0.381475
0.381448
0.381423
0.3814
0.381379
0.381359
0.381341
0.381325
0.38131
0.381296
0.381284
0.381272
0.381262
0.381252
0.381243
0.381235
0.381228
0.381221
0.381215
0.381209
0.381204
0.3812
0.381195
0.381192
0.381188
0.381185
0.381182
0.381179
0.381177
0.381175
0.381173
0.381171
0.381169
0.381168
0.381166
0.381165
0.381164
0.381163
0.381162
0.381161
0.381161
0.38116
0.381159
0.381159
0.381158
0.381158
0.381157
0.381157
0.381157
0.381156
0.381156
0.381155
0.381155
0.381154
0.381154
0.381153
0.381154
0.38115
11.336
7.30374
6.34357
6.18148
5.95089
5.42077
4.87782
4.80259
4.91713
5.09843
5.08136
4.9984
5.03595
5.31691
5.78777
5.9867
5.76677
5.39563
5.08462
4.82249
4.63564
4.54222
4.40101
4.10755
3.74236
3.4969
3.30461
3.01688
2.67705
2.42138
2.16898
1.88095
1.60043
1.48717
1.42527
1.33616
1.23887
1.11646
0.939427
0.741999
0.608375
0.522572
0.466952
0.435054
0.423009
0.416655
0.411024
0.406365
0.402629
0.399615
0.397153
0.395118
0.393415
0.391974
0.390744
0.389687
0.388771
0.387973
0.387274
0.38666
0.386118
0.385638
0.385211
0.384829
0.384488
0.384181
0.383905
0.383656
0.383431
0.383226
0.38304
0.38287
0.382716
0.382576
0.382448
0.382333
0.382228
0.382133
0.382046
0.381966
0.381894
0.381827
0.381766
0.38171
0.381659
0.381612
0.381568
0.381529
0.381492
0.381459
0.381428
0.3814
0.381374
0.381351
0.381329
0.381309
0.381291
0.381275
0.381259
0.381245
0.381233
0.381221
0.381211
0.381201
0.381192
0.381184
0.381177
0.38117
0.381164
0.381159
0.381154
0.38115
0.381146
0.381142
0.381139
0.381136
0.381133
0.381131
0.381129
0.381127
0.381125
0.381124
0.381122
0.381121
0.38112
0.381119
0.381118
0.381118
0.381117
0.381117
0.381116
0.381116
0.381115
0.381115
0.381115
0.381115
0.381115
0.381115
0.381114
0.381114
0.381114
0.381114
0.381113
0.381113
0.381113
0.381112
0.381112
0.381111
0.381113
0.381109
10.7515
7.04818
6.08622
5.83746
5.57309
5.08271
4.61238
4.52793
4.60911
4.74756
4.73272
4.66478
4.71805
5.00809
5.46217
5.60037
5.3628
5.04934
4.78779
4.55976
4.41193
4.3248
4.20865
3.96587
3.63749
3.38513
3.14197
2.79768
2.49688
2.26596
2.03319
1.77191
1.50084
1.33851
1.29194
1.25364
1.1895
1.08131
0.904142
0.706254
0.580588
0.50297
0.453313
0.424991
0.41519
0.410819
0.406611
0.402965
0.39996
0.397488
0.395434
0.39371
0.392248
0.390999
0.389925
0.388995
0.388187
0.38748
0.386859
0.38631
0.385821
0.385385
0.384994
0.384644
0.384329
0.384044
0.383788
0.383555
0.383344
0.383153
0.382981
0.382826
0.382683
0.382554
0.382435
0.382326
0.382225
0.382131
0.382044
0.381964
0.38189
0.381822
0.38176
0.381703
0.381651
0.381603
0.381559
0.381519
0.381482
0.381448
0.381417
0.381389
0.381363
0.381339
0.381317
0.381297
0.381279
0.381263
0.381248
0.381234
0.381221
0.38121
0.3812
0.38119
0.381181
0.381174
0.381167
0.38116
0.381154
0.381149
0.381144
0.38114
0.381136
0.381133
0.38113
0.381127
0.381125
0.381122
0.38112
0.381119
0.381117
0.381116
0.381114
0.381113
0.381112
0.381112
0.381111
0.38111
0.38111
0.381109
0.381109
0.381109
0.381108
0.381108
0.381108
0.381108
0.381108
0.381108
0.381108
0.381108
0.381107
0.381107
0.381107
0.381107
0.381106
0.381106
0.381106
0.381105
0.381107
0.381102
10.2632
6.84582
5.83036
5.46063
5.2009
4.77357
4.39108
4.32317
4.38334
4.49027
4.47875
4.42315
4.47561
4.76049
5.19414
5.30355
5.06174
4.79067
4.55688
4.3599
4.24898
4.16675
4.06758
3.86893
3.57169
3.30981
3.0263
2.67896
2.39776
2.17017
1.94402
1.69892
1.44105
1.24919
1.17102
1.15058
1.1166
1.02996
0.866325
0.675958
0.558993
0.489323
0.444982
0.420112
0.412355
0.408892
0.405278
0.402039
0.399324
0.397055
0.395142
0.393515
0.392125
0.39093
0.389895
0.388994
0.388203
0.387504
0.386882
0.386327
0.385832
0.385389
0.384995
0.384642
0.384324
0.384036
0.383776
0.383539
0.383325
0.383127
0.382944
0.382776
0.382622
0.382481
0.382352
0.382235
0.38213
0.382035
0.381951
0.381876
0.381808
0.381746
0.38169
0.381638
0.381591
0.381548
0.381508
0.381472
0.381439
0.381409
0.381381
0.381356
0.381333
0.381312
0.381292
0.381275
0.381259
0.381244
0.381231
0.381218
0.381207
0.381197
0.381188
0.38118
0.381172
0.381165
0.381159
0.381154
0.381148
0.381144
0.38114
0.381136
0.381133
0.38113
0.381127
0.381124
0.381122
0.38112
0.381119
0.381117
0.381116
0.381115
0.381115
0.381115
0.381114
0.381112
0.381112
0.381111
0.38111
0.381109
0.381109
0.381108
0.381108
0.381108
0.381107
0.381107
0.381107
0.381107
0.381106
0.381106
0.381106
0.381106
0.381106
0.381106
0.381106
0.381106
0.381106
0.381105
0.381107
0.381102
9.84556
6.68383
5.62561
5.17413
4.89674
4.52504
4.2256
4.16716
4.21281
4.29623
4.28782
4.24232
4.29425
4.56853
4.97846
5.06799
4.82693
4.58397
4.37045
4.20817
4.12907
4.05341
3.96305
3.80747
3.54573
3.28033
2.97368
2.63218
2.3487
2.11185
1.8845
1.6486
1.40325
1.2007
1.08509
1.03695
1.00654
0.943401
0.808408
0.639582
0.535832
0.475169
0.437251
0.416957
0.411372
0.408239
0.404762
0.401605
0.398972
0.396762
0.394892
0.393299
0.39193
0.390745
0.389713
0.38881
0.388019
0.387324
0.386716
0.386182
0.385715
0.385302
0.384926
0.384581
0.384268
0.383987
0.383733
0.383504
0.383297
0.383111
0.382946
0.3828
0.38267
0.382553
0.382446
0.382349
0.382259
0.382176
0.382096
0.382019
0.381944
0.381875
0.381812
0.381753
0.381699
0.38165
0.381604
0.381562
0.381524
0.381488
0.381456
0.381426
0.381398
0.381372
0.381349
0.381328
0.381308
0.38129
0.381273
0.381258
0.381244
0.381231
0.381219
0.381209
0.381199
0.38119
0.381181
0.381174
0.381167
0.381161
0.381155
0.38115
0.381145
0.381141
0.381137
0.381133
0.38113
0.381127
0.381125
0.381122
0.38112
0.381118
0.381114
0.381112
0.381111
0.381111
0.381111
0.38111
0.38111
0.38111
0.38111
0.38111
0.381109
0.381109
0.381109
0.381109
0.381108
0.381108
0.381108
0.381108
0.381107
0.381107
0.381107
0.381106
0.381106
0.381106
0.381106
0.381105
0.381107
0.381106
9.52223
6.57023
5.46888
4.98988
4.71744
4.37933
4.11291
4.04808
4.08188
4.14596
4.14051
4.10446
4.15835
4.42191
4.80587
4.8777
4.63734
4.41268
4.22036
4.09259
4.03846
3.97178
3.88984
3.77264
3.54768
3.28949
2.97628
2.63379
2.33336
2.0796
1.8451
1.61303
1.37837
1.17409
1.03202
0.93963
0.880846
0.819531
0.719106
0.590369
0.506908
0.45774
0.427999
0.414692
0.411296
0.407971
0.404377
0.401303
0.398741
0.396585
0.394757
0.393196
0.391855
0.390695
0.389689
0.388812
0.388047
0.387377
0.386783
0.386245
0.385743
0.385277
0.384865
0.384515
0.384206
0.383929
0.383679
0.383453
0.383247
0.383061
0.382891
0.382735
0.38259
0.382454
0.382327
0.382208
0.382096
0.381994
0.381901
0.381821
0.381755
0.381695
0.38164
0.38159
0.381544
0.381503
0.381465
0.38143
0.381399
0.38137
0.381344
0.381321
0.381299
0.38128
0.381262
0.381246
0.381232
0.381219
0.381207
0.381196
0.381186
0.381178
0.38117
0.381163
0.381157
0.381151
0.381146
0.381142
0.381137
0.381134
0.381131
0.381128
0.381126
0.381124
0.381122
0.38112
0.381119
0.381118
0.381117
0.381116
0.381115
0.381114
0.381113
0.381114
0.381113
0.381112
0.381112
0.381111
0.381111
0.38111
0.38111
0.38111
0.381109
0.381109
0.381109
0.381109
0.381109
0.381109
0.381109
0.381109
0.381109
0.38111
0.381111
0.381112
0.381114
0.381117
0.381119
0.381123
0.381129
0.381133
9.27706
6.50765
5.38453
4.88698
4.6152
4.29541
4.04188
3.95894
3.97962
4.02999
4.02636
3.99828
4.05448
4.30777
4.66502
4.72151
4.48196
4.26949
4.10009
4.00531
3.9705
3.91184
3.84035
3.75759
3.56705
3.32451
3.01982
2.67168
2.34398
2.06631
1.82016
1.58827
1.36243
1.15918
0.998855
0.875632
0.779679
0.697198
0.607761
0.525054
0.46967
0.436564
0.419713
0.414704
0.411864
0.408246
0.404522
0.401478
0.39894
0.396802
0.394985
0.393431
0.392095
0.390937
0.38993
0.389047
0.388265
0.387567
0.386941
0.386383
0.385895
0.385476
0.385107
0.384765
0.384451
0.384166
0.383908
0.383674
0.38346
0.383265
0.383083
0.382915
0.38276
0.382619
0.382492
0.382378
0.382277
0.382187
0.382105
0.38203
0.38196
0.381894
0.381833
0.381777
0.381726
0.381678
0.381635
0.381594
0.381557
0.381522
0.381491
0.381461
0.381434
0.381409
0.381386
0.381365
0.381345
0.381327
0.38131
0.381294
0.38128
0.381267
0.381255
0.381244
0.381234
0.381224
0.381215
0.381207
0.3812
0.381193
0.381187
0.381181
0.381176
0.381171
0.381167
0.381163
0.38116
0.381157
0.381154
0.381151
0.381149
0.381148
0.381148
0.381147
0.381146
0.381144
0.381143
0.381142
0.381142
0.381141
0.381141
0.381141
0.381141
0.381141
0.381141
0.381142
0.381143
0.381144
0.381146
0.381148
0.38115
0.381153
0.381157
0.381162
0.381168
0.381175
0.381186
0.381202
0.381222
0.381197
9.06252
6.47741
5.34595
4.83624
4.55536
4.24385
3.9964
3.89582
3.90189
3.93952
3.93654
3.91554
3.97381
4.21726
4.54859
4.59132
4.35086
4.15069
4.00295
3.9385
3.9193
3.8691
3.80584
3.75633
3.60379
3.38596
3.09471
2.73498
2.37296
2.06604
1.80636
1.57202
1.35353
1.15272
0.980005
0.840799
0.717328
0.612101
0.527066
0.468128
0.436755
0.42228
0.41761
0.415716
0.41257
0.408212
0.40437
0.4013
0.39874
0.396579
0.394739
0.393163
0.391804
0.390622
0.389588
0.388678
0.387874
0.387167
0.38655
0.386017
0.385563
0.385171
0.384816
0.38448
0.384171
0.383892
0.383641
0.383414
0.383208
0.383024
0.382864
0.382726
0.382608
0.382505
0.382412
0.382328
0.382252
0.382181
0.382111
0.382038
0.381963
0.381893
0.381829
0.381771
0.381716
0.381666
0.38162
0.381578
0.381539
0.381503
0.38147
0.38144
0.381412
0.381386
0.381362
0.381341
0.381321
0.381302
0.381285
0.38127
0.381256
0.381243
0.381231
0.38122
0.381211
0.381202
0.381193
0.381186
0.381179
0.381173
0.381168
0.381163
0.381159
0.381155
0.381151
0.381148
0.381145
0.381143
0.381141
0.38114
0.381137
0.381135
0.38113
0.381128
0.381128
0.381128
0.381129
0.381129
0.38113
0.38113
0.381131
0.381132
0.381133
0.381134
0.381135
0.381137
0.381138
0.38114
0.381141
0.381143
0.381145
0.381148
0.38115
0.381153
0.381156
0.38116
0.381165
0.381171
0.381187
0.381176
8.33316
6.5173
5.33488
4.7861
4.48226
4.17978
3.92534
3.75267
3.70023
3.70071
3.6962
3.69548
3.76101
3.97118
4.22059
4.22444
3.98093
3.82763
3.74783
3.77375
3.80456
3.78377
3.74114
3.77714
3.75918
3.63235
3.36944
2.96513
2.49786
2.09456
1.79357
1.55047
1.34471
1.15142
0.962317
0.800479
0.671986
0.573221
0.501904
0.455443
0.429582
0.419149
0.417419
0.415915
0.412587
0.408051
0.404235
0.401202
0.398674
0.396541
0.394727
0.393176
0.391847
0.390697
0.389697
0.38882
0.388047
0.387365
0.386757
0.386209
0.385712
0.385265
0.384867
0.384521
0.384213
0.383937
0.383687
0.383461
0.383256
0.383069
0.382898
0.382741
0.382593
0.382457
0.382332
0.382217
0.382111
0.382014
0.381926
0.381849
0.381782
0.38172
0.381664
0.381613
0.381567
0.381524
0.381485
0.381449
0.381417
0.381387
0.38136
0.381336
0.381313
0.381293
0.381274
0.381258
0.381242
0.381228
0.381216
0.381205
0.381194
0.381185
0.381177
0.381169
0.381163
0.381157
0.381151
0.381147
0.381143
0.381139
0.381136
0.381133
0.381131
0.381129
0.381128
0.381127
0.381126
0.381125
0.381125
0.381125
0.381124
0.381124
0.381123
0.381124
0.381124
0.381125
0.381127
0.381128
0.38113
0.381132
0.381133
0.381135
0.381137
0.381139
0.381141
0.381143
0.381145
0.381148
0.381151
0.381154
0.381157
0.381161
0.381165
0.38117
0.381176
0.381182
0.38119
0.381199
0.381217
0.381205
8.97974
7.92452
6.17779
5.20175
4.78531
4.45486
4.1091
3.83087
3.70441
3.66581
3.65646
3.66245
3.71494
3.86064
4.00083
3.97359
3.70574
3.62348
3.61569
3.72957
3.75092
3.7434
3.72301
3.75585
3.84188
3.80518
3.61883
3.2543
2.75212
2.23474
1.87606
1.61101
1.39315
1.19732
0.999892
0.822219
0.680712
0.574545
0.501371
0.455819
0.430008
0.419116
0.417264
0.415867
0.412672
0.408212
0.404412
0.401396
0.398879
0.396751
0.394938
0.393383
0.39204
0.390874
0.389858
0.388968
0.388187
0.387502
0.3869
0.386372
0.385908
0.385494
0.385118
0.384771
0.384454
0.384167
0.383907
0.383671
0.383456
0.383259
0.383081
0.382919
0.382773
0.38264
0.382518
0.382406
0.382304
0.382209
0.382122
0.382041
0.381965
0.381894
0.381829
0.38177
0.381715
0.381664
0.381617
0.381574
0.381535
0.381498
0.381465
0.381434
0.381406
0.381379
0.381355
0.381333
0.381313
0.381294
0.381277
0.381261
0.381247
0.381234
0.381222
0.381211
0.381201
0.381191
0.381183
0.381176
0.381169
0.381163
0.381157
0.381152
0.381148
0.381144
0.38114
0.381137
0.381135
0.381133
0.381131
0.381129
0.381128
0.381128
0.381127
0.381128
0.381129
0.38113
0.381132
0.381134
0.381136