/*--------------------------------*- C++ -*----------------------------------*\
| =========                 |                                                 |
| \\      /  F ield         | OpenFOAM: The Open Source CFD Toolbox           |
|  \\    /   O peration     | Version:  v1912                                 |
|   \\  /    A nd           | Website:  www.openfoam.com                      |
|    \\/     M anipulation  |                                                 |
\*---------------------------------------------------------------------------*/
FoamFile
{
    version     2.0;
    format      ascii;
    class       volScalarField;
    location    "70";
    object      omega;
}
// * * * * * * * * * * * * * * * * * * * * * * * * * * * * * * * * * * * * * //

dimensions      [0 0 -1 0 0 0 0];


internalField   nonuniform List<scalar> 
14268
(
0.0164431
0.0165548
0.0166687
0.0167848
0.0169032
0.017024
0.0171473
0.0172736
0.0174025
0.0175344
0.0176696
0.0178078
0.0179492
0.018094
0.0182422
0.0183942
0.0185501
0.0187098
0.0188732
0.0190404
0.0192115
0.0193861
0.0195645
0.0197463
0.0199316
0.02012
0.0203115
0.0205057
0.0207023
0.020901
0.0211015
0.0213031
0.021505
0.0217073
0.0219097
0.0221121
0.0223143
0.0225162
0.022718
0.0229226
0.0231311
0.0233434
0.0235598
0.02378
0.0240042
0.0242326
0.0244649
0.0247017
0.0249429
0.0251885
0.0254388
0.0256946
0.0259562
0.026224
0.0264984
0.0267798
0.0270683
0.0273646
0.0276685
0.0279808
0.0283011
0.0286306
0.0289689
0.0293165
0.0296733
0.0300398
0.0304151
0.030801
0.0311965
0.0316034
0.0320219
0.0324525
0.0328962
0.0333538
0.0338256
0.0343129
0.0348202
0.0353491
0.0359011
0.0364764
0.0370768
0.0377026
0.0383555
0.0390365
0.0397469
0.0404877
0.0412609
0.042068
0.0429096
0.0437895
0.0447076
0.0456677
0.0466712
0.0477211
0.0488202
0.0499717
0.0511786
0.0524442
0.0537747
0.0551742
0.0566509
0.0582102
0.0598595
0.0616071
0.0634703
0.0654538
0.0675795
0.0698563
0.072306
0.0749451
0.0778052
0.0809058
0.0842951
0.088012
0.0921185
0.0966826
0.101818
0.107666
0.114387
0.122232
0.131567
0.142817
0.156573
0.173685
0.195212
0.222752
0.258823
0.307501
0.375533
0.47399
0.624511
0.86942
1.29962
2.15315
0.150432
0.150278
0.150111
0.149933
0.149746
0.149544
0.149328
0.149094
0.148841
0.148568
0.148274
0.147954
0.14761
0.147239
0.146842
0.146418
0.145967
0.145488
0.144983
0.144452
0.143898
0.143322
0.142725
0.142107
0.141474
0.140827
0.140172
0.139514
0.13886
0.138216
0.137591
0.13699
0.136423
0.135897
0.135419
0.134997
0.134636
0.134344
0.134126
0.134014
0.134008
0.134107
0.134316
0.134634
0.135059
0.135589
0.136215
0.136931
0.13773
0.138602
0.13954
0.140536
0.141577
0.142657
0.143761
0.144881
0.146006
0.147125
0.148229
0.1493
0.150324
0.151297
0.152212
0.153063
0.153848
0.154562
0.155204
0.15577
0.15626
0.156673
0.157013
0.157275
0.157464
0.157584
0.157635
0.157615
0.157562
0.157484
0.157386
0.157266
0.157118
0.156944
0.156748
0.156523
0.156281
0.156014
0.155725
0.155416
0.155091
0.154747
0.154387
0.154012
0.153623
0.153222
0.15281
0.152387
0.151955
0.151517
0.151073
0.150624
0.150174
0.149723
0.149274
0.148832
0.148401
0.147986
0.147599
0.147251
0.146959
0.146747
0.14664
0.146658
0.146833
0.147202
0.147804
0.14871
0.149985
0.15165
0.153729
0.15623
0.159139
0.162473
0.166462
0.171743
0.178602
0.187677
0.200362
0.21834
0.244691
0.285392
0.350611
0.45013
0.56937
0.700039
0.180411
0.180381
0.180348
0.180312
0.180274
0.180233
0.180188
0.180138
0.180084
0.180024
0.179958
0.179887
0.179808
0.179723
0.179631
0.179532
0.179427
0.179316
0.179197
0.179072
0.178941
0.178803
0.178655
0.178497
0.178331
0.178157
0.177976
0.177791
0.177602
0.177412
0.177223
0.177038
0.176859
0.17669
0.176535
0.176396
0.176276
0.176178
0.176105
0.176069
0.176066
0.176094
0.176156
0.176252
0.176379
0.176537
0.176722
0.176933
0.177167
0.177419
0.177688
0.177969
0.178259
0.178556
0.178856
0.179158
0.179459
0.179755
0.180044
0.180315
0.180563
0.180789
0.180992
0.181174
0.181335
0.181476
0.181598
0.181702
0.18179
0.181863
0.181921
0.181966
0.181998
0.18202
0.182029
0.182029
0.182025
0.182019
0.182011
0.181995
0.181969
0.181932
0.181889
0.181835
0.181773
0.181704
0.181626
0.18154
0.181446
0.181346
0.181239
0.181126
0.181007
0.180882
0.180752
0.180617
0.180477
0.180332
0.180184
0.18003
0.179873
0.179711
0.179546
0.179375
0.179197
0.179015
0.178831
0.178643
0.178454
0.178267
0.178092
0.177944
0.177837
0.177793
0.177822
0.177955
0.178222
0.178659
0.179295
0.180129
0.181062
0.181987
0.182771
0.183215
0.184127
0.1863
0.189323
0.193819
0.201233
0.214142
0.237087
0.273174
0.305214
0.323114
0.184365
0.18437
0.184374
0.184378
0.18438
0.184382
0.184384
0.184384
0.184383
0.184381
0.184377
0.184372
0.184365
0.184357
0.184347
0.184338
0.184328
0.184318
0.184308
0.184298
0.184284
0.184267
0.184245
0.184219
0.184187
0.184151
0.18411
0.184066
0.184018
0.183968
0.183917
0.183865
0.183815
0.183768
0.183726
0.18369
0.183662
0.183644
0.183635
0.183641
0.183655
0.183674
0.183697
0.183724
0.183756
0.183791
0.18383
0.183874
0.183921
0.183971
0.184025
0.184083
0.184144
0.184208
0.184275
0.184345
0.184418
0.184495
0.184573
0.184647
0.184711
0.184765
0.184811
0.184849
0.18488
0.184906
0.184928
0.184945
0.184961
0.184974
0.184987
0.184999
0.185011
0.185024
0.185038
0.185052
0.185069
0.185088
0.185111
0.185133
0.18515
0.185162
0.18517
0.185174
0.185172
0.185168
0.185159
0.185146
0.18513
0.185111
0.185089
0.185065
0.185039
0.185011
0.184983
0.184953
0.184923
0.184893
0.184863
0.184834
0.184806
0.184781
0.184759
0.184737
0.184715
0.184694
0.184673
0.184655
0.184633
0.184609
0.184588
0.184572
0.184566
0.184573
0.184604
0.184674
0.184801
0.185019
0.18538
0.185879
0.186438
0.187039
0.187514
0.187716
0.187808
0.18786
0.188395
0.189466
0.191622
0.196042
0.204959
0.219346
0.228177
0.231419
0.184941
0.184954
0.184964
0.184975
0.184985
0.184996
0.185007
0.185017
0.185027
0.185036
0.185045
0.185054
0.185062
0.18507
0.185078
0.185086
0.185096
0.185107
0.185119
0.185133
0.185148
0.18516
0.185169
0.185174
0.185177
0.185176
0.185173
0.185166
0.185157
0.185144
0.185131
0.185118
0.185104
0.185092
0.185083
0.185077
0.185075
0.18508
0.185091
0.18511
0.185126
0.185138
0.185146
0.18515
0.185151
0.185148
0.185143
0.185138
0.185131
0.185125
0.185119
0.185117
0.185117
0.185121
0.18513
0.185144
0.185165
0.18519
0.185222
0.185255
0.185282
0.185304
0.18532
0.185332
0.185339
0.185344
0.185349
0.185352
0.185356
0.18536
0.185366
0.185374
0.185384
0.185396
0.185412
0.185431
0.185453
0.185478
0.185507
0.185535
0.185559
0.185579
0.185595
0.185609
0.185618
0.185624
0.185628
0.185629
0.185627
0.185624
0.185619
0.185613
0.185606
0.185598
0.185591
0.185584
0.185578
0.185573
0.185571
0.185571
0.185575
0.185584
0.185597
0.185616
0.185641
0.185674
0.18571
0.185748
0.185784
0.185821
0.185859
0.1859
0.185947
0.186
0.186065
0.186155
0.186287
0.186479
0.186755
0.187166
0.187723
0.188335
0.18873
0.188877
0.188838
0.188761
0.188677
0.188835
0.18927
0.190764
0.194463
0.200019
0.202462
0.202921
0.185019
0.185033
0.185046
0.185058
0.185071
0.185083
0.185097
0.18511
0.185122
0.185135
0.185147
0.185159
0.185171
0.185183
0.185196
0.18521
0.185225
0.185242
0.185262
0.185282
0.185302
0.185319
0.185333
0.185345
0.185355
0.185361
0.185364
0.185364
0.185362
0.185358
0.185353
0.185347
0.18534
0.185335
0.185331
0.185331
0.185336
0.185346
0.185361
0.185383
0.185401
0.185413
0.185419
0.185418
0.185413
0.185403
0.185389
0.185373
0.185355
0.185336
0.185319
0.185305
0.185293
0.185286
0.185284
0.185288
0.185298
0.185316
0.18534
0.185366
0.185387
0.185403
0.185413
0.18542
0.185424
0.185426
0.185427
0.185427
0.18543
0.185433
0.185438
0.185445
0.185455
0.185468
0.185485
0.185505
0.185529
0.185558
0.18559
0.185619
0.185645
0.185667
0.185686
0.185701
0.185713
0.185722
0.185729
0.185733
0.185735
0.185735
0.185734
0.185732
0.185729
0.185727
0.185724
0.185722
0.185721
0.185722
0.185724
0.18573
0.185739
0.185753
0.185772
0.185795
0.185823
0.185855
0.185893
0.18594
0.185987
0.186034
0.186079
0.186123
0.186167
0.18622
0.186286
0.186379
0.186511
0.18671
0.187016
0.187439
0.188017
0.188645
0.189026
0.189151
0.1891
0.188869
0.18861
0.188368
0.188518
0.188986
0.19022
0.192597
0.193349
0.193481
0.18505
0.185063
0.185076
0.185088
0.1851
0.185113
0.185126
0.185138
0.185151
0.185163
0.185175
0.185188
0.185199
0.185211
0.185224
0.185237
0.185252
0.185269
0.185287
0.185308
0.185327
0.185345
0.185361
0.185374
0.185384
0.185392
0.185395
0.185398
0.185398
0.185396
0.185392
0.185388
0.185385
0.185382
0.185382
0.185385
0.185392
0.185405
0.185423
0.185446
0.185463
0.185474
0.185478
0.185476
0.185468
0.185456
0.185439
0.18542
0.1854
0.185378
0.185358
0.18534
0.185326
0.185317
0.185313
0.185314
0.185323
0.185338
0.185361
0.185385
0.185404
0.185416
0.185425
0.185429
0.185432
0.185431
0.185432
0.18543
0.185429
0.185432
0.185435
0.18544
0.185449
0.185461
0.185476
0.185494
0.185517
0.185543
0.185573
0.185603
0.18563
0.185652
0.185671
0.185687
0.1857
0.18571
0.185718
0.185723
0.185726
0.185727
0.185727
0.185727
0.185726
0.185726
0.185726
0.185726
0.185728
0.185732
0.18574
0.18575
0.185765
0.185786
0.185813
0.185844
0.185883
0.185927
0.185977
0.186027
0.186074
0.18612
0.186162
0.186203
0.186245
0.186297
0.186362
0.186446
0.186573
0.186777
0.187113
0.187578
0.18817
0.188864
0.189266
0.189362
0.189224
0.188994
0.18882
0.18855
0.188308
0.188221
0.188768
0.189784
0.190078
0.190162
0.185068
0.185081
0.185094
0.185106
0.18512
0.185132
0.185146
0.185158
0.185172
0.185184
0.185197
0.18521
0.185222
0.185235
0.185248
0.185261
0.185277
0.185295
0.185315
0.185335
0.185354
0.185371
0.185386
0.185398
0.185408
0.185415
0.185419
0.185421
0.185421
0.185419
0.185416
0.185413
0.18541
0.185408
0.185408
0.185411
0.18542
0.185433
0.185452
0.185474
0.18549
0.185499
0.185502
0.185499
0.18549
0.185476
0.185458
0.185437
0.185416
0.185393
0.185371
0.185353
0.185338
0.185327
0.185322
0.185323
0.185331
0.185346
0.185368
0.185392
0.185409
0.185421
0.18543
0.185434
0.185437
0.185437
0.185437
0.185437
0.185436
0.185439
0.185443
0.18545
0.18546
0.185472
0.185488
0.185509
0.185533
0.185561
0.185593
0.185623
0.18565
0.185673
0.185692
0.185708
0.18572
0.18573
0.185737
0.185741
0.185744
0.185745
0.185745
0.185743
0.185742
0.185739
0.185738
0.185736
0.185737
0.185738
0.185742
0.185749
0.18576
0.185776
0.185797
0.185823
0.185856
0.185897
0.185948
0.186004
0.186055
0.186108
0.186163
0.186219
0.186276
0.186337
0.186408
0.1865
0.186626
0.186814
0.187112
0.187558
0.188172
0.188848
0.189255
0.189423
0.189382
0.189263
0.188909
0.188534
0.188146
0.18809
0.18827
0.188918
0.189446
0.188899
0.18509
0.185103
0.185116
0.185128
0.18514
0.185153
0.185166
0.185179
0.185192
0.185206
0.185218
0.185231
0.185242
0.185257
0.185269
0.185283
0.1853
0.185315
0.185337
0.185356
0.185374
0.18539
0.185404
0.185416
0.185426
0.185432
0.185437
0.185439
0.185439
0.185437
0.185434
0.185431
0.185428
0.185427
0.185428
0.185433
0.185442
0.185456
0.185477
0.185498
0.185512
0.18552
0.185522
0.185517
0.185506
0.185491
0.185472
0.18545
0.185428
0.185404
0.185382
0.185362
0.185347
0.185336
0.185331
0.185331
0.185339
0.185356
0.185377
0.1854
0.185419
0.185431
0.185439
0.185443
0.185444
0.185444
0.185443
0.185442
0.185441
0.185442
0.185445
0.185451
0.185459
0.185471
0.185486
0.185505
0.185528
0.185554
0.185584
0.185615
0.185642
0.185666
0.185686
0.185702
0.185715
0.185725
0.185733
0.185738
0.185741
0.185743
0.185743
0.185743
0.185742
0.185741
0.185741
0.185741
0.185743
0.185746
0.185752
0.185762
0.185775
0.185794
0.185817
0.185846
0.185882
0.185922
0.185968
0.186023
0.186076
0.186128
0.186178
0.186228
0.186281
0.186338
0.186406
0.186504
0.186655
0.186869
0.187167
0.187592
0.188193
0.188822
0.18921
0.189322
0.189261
0.189157
0.188839
0.188405
0.188172
0.188079
0.188179
0.189041
0.189374
0.188533
0.185118
0.185131
0.185144
0.185156
0.185169
0.18518
0.185193
0.185207
0.185221
0.185234
0.185246
0.185258
0.185271
0.185285
0.185297
0.185311
0.185327
0.185344
0.185363
0.185383
0.185397
0.185414
0.185427
0.185438
0.185446
0.185452
0.185456
0.185457
0.185457
0.185456
0.185453
0.18545
0.185447
0.185447
0.185448
0.185454
0.185463
0.185479
0.1855
0.18552
0.185533
0.18554
0.18554
0.185534
0.185523
0.185506
0.185486
0.185463
0.185439
0.185416
0.185393
0.185373
0.185357
0.185346
0.185341
0.185341
0.185349
0.185367
0.185388
0.18541
0.185428
0.185441
0.185447
0.185452
0.185452
0.185451
0.18545
0.185448
0.185446
0.185446
0.185449
0.185454
0.185462
0.185474
0.185489
0.185508
0.185531
0.185558
0.18559
0.185621
0.185649
0.185673
0.185693
0.185709
0.185722
0.185732
0.185739
0.185744
0.185746
0.185747
0.185747
0.185745
0.185743
0.185742
0.185741
0.185741
0.185743
0.185747
0.185753
0.185763
0.185778
0.185798
0.185823
0.185855
0.185895
0.185943
0.185997
0.186054
0.186107
0.186161
0.186215
0.186269
0.186323
0.18638
0.186447
0.186538
0.186668
0.186865
0.187174
0.187644
0.188305
0.188973
0.189356
0.189392
0.189294
0.18907
0.188905
0.18859
0.188263
0.188103
0.188273
0.18902
0.189036
0.188212
0.185157
0.185169
0.185183
0.185194
0.185207
0.185219
0.185231
0.185245
0.185258
0.185271
0.185282
0.185297
0.185306
0.185321
0.185332
0.185347
0.185359
0.185377
0.185396
0.185412
0.185427
0.18544
0.185452
0.185463
0.18547
0.185474
0.185478
0.185479
0.185479
0.185477
0.185475
0.185473
0.185471
0.185472
0.185475
0.185481
0.185493
0.18551
0.185531
0.18555
0.185561
0.185566
0.185564
0.185557
0.185544
0.185525
0.185503
0.185479
0.185454
0.18543
0.185406
0.185384
0.185368
0.185356
0.185352
0.185351
0.185359
0.185376
0.185398
0.18542
0.185437
0.185449
0.185455
0.185459
0.18546
0.185458
0.185457
0.185455
0.185454
0.185454
0.185457
0.185462
0.185471
0.185482
0.185498
0.185516
0.185538
0.185564
0.185594
0.185625
0.185652
0.185676
0.185695
0.185712
0.185725
0.185735
0.185742
0.185747
0.185751
0.185752
0.185752
0.185751
0.185749
0.185748
0.185746
0.185746
0.185746
0.18575
0.185754
0.185763
0.185775
0.185793
0.185817
0.185846
0.185883
0.185926
0.185976
0.186036
0.186092
0.186148
0.186204
0.186261
0.186322
0.186382
0.186445
0.186524
0.186641
0.186832
0.187154
0.187675
0.188371
0.189038
0.189434
0.18954
0.189498
0.189312
0.188921
0.188503
0.18821
0.188103
0.188318
0.188729
0.188424
0.188009
0.185215
0.185227
0.185239
0.185248
0.185261
0.185272
0.185285
0.185299
0.18531
0.185322
0.185333
0.185347
0.185357
0.185373
0.185381
0.185396
0.185408
0.185424
0.18544
0.185452
0.185466
0.185476
0.185484
0.185491
0.185497
0.185501
0.185503
0.185503
0.185503
0.1855
0.185497
0.185495
0.185494
0.185494
0.185497
0.185504
0.185517
0.185535
0.185555
0.185572
0.185581
0.185584
0.185581
0.185572
0.185558
0.185539
0.185516
0.185491
0.185466
0.185441
0.185417
0.185396
0.18538
0.185369
0.185364
0.185364
0.185373
0.18539
0.185412
0.185435
0.185452
0.185464
0.185472
0.185475
0.185476
0.185475
0.185472
0.18547
0.185469
0.185467
0.185468
0.185472
0.18548
0.18549
0.185504
0.185522
0.185543
0.185567
0.185596
0.185628
0.185656
0.18568
0.185701
0.185717
0.185731
0.185742
0.185749
0.185754
0.185759
0.18576
0.185761
0.185761
0.18576
0.18576
0.185759
0.185759
0.18576
0.185763
0.185769
0.185777
0.18579
0.185809
0.185833
0.185864
0.185903
0.185954
0.186005
0.186057
0.186107
0.186156
0.186205
0.186255
0.186309
0.186368
0.186432
0.18651
0.186638
0.18685
0.187174
0.187651
0.188323
0.189009
0.189401
0.189463
0.189372
0.189133
0.188843
0.188602
0.18831
0.188085
0.188035
0.188033
0.187718
0.187732
0.185274
0.185286
0.185295
0.185307
0.185313
0.185326
0.185334
0.185348
0.185361
0.185374
0.185386
0.185402
0.185412
0.185429
0.185438
0.185458
0.185469
0.185485
0.1855
0.185513
0.185525
0.185534
0.185542
0.185548
0.185552
0.185554
0.185554
0.185551
0.185548
0.185544
0.185539
0.185534
0.18553
0.185529
0.185531
0.185537
0.185549
0.185567
0.185587
0.185602
0.185611
0.185613
0.185609
0.185599
0.185584
0.185564
0.185542
0.185517
0.185491
0.185465
0.185442
0.185421
0.185406
0.185395
0.18539
0.185392
0.185402
0.18542
0.185446
0.185467
0.185483
0.185493
0.185497
0.185497
0.185495
0.185491
0.185487
0.185483
0.18548
0.185479
0.18548
0.185484
0.185492
0.185504
0.185519
0.185539
0.185563
0.185592
0.185626
0.18566
0.185689
0.185714
0.185736
0.185753
0.185767
0.185779
0.185787
0.185794
0.185798
0.1858
0.185799
0.185799
0.185798
0.185797
0.185796
0.185797
0.185798
0.185801
0.185807
0.185816
0.185827
0.185846
0.185867
0.185894
0.185925
0.185962
0.186005
0.186055
0.186109
0.186169
0.186228
0.186288
0.186347
0.186411
0.186486
0.186582
0.186718
0.186918
0.187215
0.187667
0.18832
0.188992
0.189376
0.189465
0.189382
0.18915
0.188827
0.188501
0.188213
0.18805
0.187837
0.187731
0.187696
0.187799
0.18531
0.18532
0.185331
0.185342
0.185353
0.185361
0.185374
0.185385
0.185398
0.185411
0.185421
0.185436
0.185444
0.185459
0.185469
0.185485
0.185499
0.185513
0.185531
0.185542
0.185556
0.185566
0.185576
0.185584
0.18559
0.185596
0.185599
0.185601
0.185601
0.185601
0.185601
0.185601
0.185602
0.185605
0.185611
0.185621
0.185637
0.185658
0.185674
0.185684
0.185687
0.185684
0.185675
0.18566
0.18564
0.185615
0.185587
0.185556
0.185525
0.185495
0.185465
0.185439
0.18542
0.185405
0.185397
0.185396
0.185402
0.185416
0.185438
0.185457
0.185471
0.185479
0.185483
0.185483
0.18548
0.185477
0.185473
0.18547
0.185466
0.185465
0.185466
0.185469
0.185476
0.185486
0.1855
0.185518
0.185539
0.185565
0.185594
0.185626
0.185654
0.185678
0.185697
0.185713
0.185726
0.185735
0.185743
0.185748
0.185751
0.185753
0.185753
0.185752
0.185752
0.185753
0.185752
0.185754
0.185757
0.185764
0.185773
0.185785
0.185802
0.185825
0.185853
0.185887
0.185927
0.185974
0.186027
0.186086
0.186149
0.186214
0.186282
0.186351
0.186422
0.186493
0.186566
0.186651
0.186772
0.186975
0.187282
0.187732
0.188356
0.189019
0.189397
0.189465
0.189412
0.189226
0.188857
0.188406
0.188097
0.187928
0.187924
0.187761
0.187706
0.187886
0.185362
0.185375
0.185376
0.185395
0.185393
0.185405
0.185412
0.18542
0.185427
0.185442
0.185447
0.185464
0.185469
0.185484
0.185495
0.18551
0.185522
0.185536
0.185549
0.185559
0.185571
0.18558
0.185587
0.185595
0.185601
0.185606
0.185609
0.185612
0.185614
0.185615
0.185617
0.185618
0.185622
0.185627
0.185634
0.185646
0.185663
0.185682
0.185697
0.185704
0.185705
0.1857
0.185687
0.18567
0.185647
0.185619
0.18559
0.185558
0.185525
0.185495
0.185465
0.185438
0.185418
0.185403
0.185393
0.18539
0.185393
0.185404
0.185422
0.185444
0.185461
0.185473
0.185479
0.185482
0.185481
0.18548
0.185479
0.185476
0.185474
0.185472
0.185472
0.185476
0.185483
0.185492
0.185506
0.185522
0.185541
0.185565
0.185592
0.185622
0.185651
0.185675
0.185696
0.185713
0.185726
0.185737
0.185745
0.18575
0.185753
0.185755
0.185756
0.185754
0.185754
0.185753
0.185752
0.185753
0.185754
0.185758
0.185765
0.185776
0.185791
0.185813
0.18584
0.185874
0.185918
0.185969
0.186018
0.186069
0.186116
0.186162
0.186205
0.18625
0.186296
0.186347
0.186407
0.186488
0.186611
0.186812
0.187142
0.187649
0.188353
0.189039
0.189426
0.18945
0.189312
0.189027
0.188674
0.188331
0.18796
0.18764
0.187398
0.187259
0.187219
0.18729
0.185439
0.185448
0.185445
0.185461
0.185457
0.185469
0.185474
0.18548
0.185484
0.185494
0.185498
0.18551
0.185508
0.185523
0.185527
0.185541
0.185549
0.185561
0.185569
0.185578
0.185584
0.185591
0.185595
0.185599
0.185603
0.185607
0.185608
0.185607
0.185606
0.185606
0.185605
0.185605
0.185606
0.185609
0.185616
0.185627
0.185642
0.185662
0.185678
0.185687
0.18569
0.185686
0.185675
0.185659
0.185638
0.185612
0.185584
0.185554
0.185522
0.185493
0.185463
0.185438
0.185418
0.185403
0.185395
0.185393
0.185401
0.185417
0.185441
0.185468
0.185486
0.185499
0.185505
0.185508
0.185507
0.185504
0.1855
0.185497
0.185494
0.185492
0.185494
0.185498
0.185505
0.185517
0.185532
0.18555
0.185573
0.1856
0.185631
0.185664
0.185692
0.185717
0.185738
0.185755
0.185769
0.185781
0.18579
0.185796
0.185799
0.185801
0.185802
0.185802
0.185801
0.1858
0.185798
0.185799
0.185798
0.185801
0.185806
0.185813
0.185824
0.185841
0.185861
0.185887
0.185919
0.185958
0.186004
0.186058
0.186118
0.18618
0.18624
0.1863
0.186362
0.186428
0.186502
0.186595
0.186725
0.186918
0.187223
0.187694
0.188339
0.189019
0.189438
0.189563
0.189477
0.189205
0.188814
0.1884
0.188076
0.187816
0.187636
0.187508
0.187413
0.187361
0.185512
0.185521
0.185517
0.185538
0.18553
0.185545
0.185545
0.185552
0.185555
0.185562
0.185566
0.185574
0.18557
0.185583
0.185582
0.185592
0.185599
0.185606
0.185612
0.185618
0.185619
0.185624
0.185625
0.185628
0.185627
0.185627
0.185627
0.185625
0.185621
0.185619
0.185617
0.185616
0.185616
0.185619
0.185626
0.185637
0.185654
0.185673
0.185688
0.185698
0.185699
0.185695
0.185684
0.185668
0.185647
0.18562
0.185592
0.185561
0.185529
0.1855
0.18547
0.185446
0.185427
0.185415
0.185409
0.185412
0.185424
0.185445
0.185472
0.185495
0.18551
0.185519
0.185522
0.185521
0.185517
0.185512
0.185507
0.185501
0.185497
0.185494
0.185494
0.185495
0.185501
0.18551
0.185522
0.185539
0.185559
0.185584
0.185613
0.185645
0.185674
0.185698
0.185717
0.185733
0.185745
0.185755
0.185763
0.185767
0.185769
0.185769
0.185769
0.185768
0.185767
0.185766
0.185765
0.185767
0.18577
0.185775
0.185784
0.185796
0.185814
0.185837
0.185866
0.185902
0.185946
0.185999
0.186055
0.186113
0.186167
0.186222
0.186274
0.186327
0.186379
0.186433
0.186492
0.186566
0.186671
0.186838
0.187118
0.187583
0.188287
0.189029
0.189467
0.189528
0.189414
0.189139
0.188778
0.188409
0.188062
0.187758
0.18753
0.18738
0.187297
0.18727
0.185604
0.185621
0.185614
0.185635
0.185624
0.185638
0.185637
0.185644
0.185642
0.18565
0.185647
0.185659
0.185651
0.185662
0.185659
0.185669
0.185671
0.185676
0.185678
0.185678
0.18568
0.185678
0.185677
0.185678
0.185673
0.185669
0.185665
0.185661
0.185658
0.185652
0.185649
0.185646
0.185646
0.185648
0.185654
0.185665
0.185683
0.185702
0.185715
0.185723
0.185723
0.185718
0.185706
0.185688
0.185666
0.185639
0.18561
0.185578
0.185546
0.185517
0.185489
0.185466
0.185449
0.185437
0.185434
0.185437
0.185447
0.185464
0.185488
0.18551
0.185525
0.185534
0.185538
0.185536
0.185533
0.185528
0.185522
0.185517
0.185512
0.185509
0.185508
0.185508
0.185514
0.185522
0.185534
0.18555
0.185569
0.185594
0.185621
0.185652
0.185682
0.185709
0.185731
0.185748
0.185762
0.185773
0.185781
0.185786
0.185789
0.185789
0.185789
0.185787
0.185784
0.185782
0.185779
0.185777
0.185777
0.185778
0.185782
0.185789
0.185801
0.185819
0.185841
0.185871
0.185907
0.185953
0.186004
0.186061
0.186114
0.186166
0.186215
0.186262
0.186308
0.186354
0.186406
0.186474
0.186576
0.186744
0.187031
0.187524
0.188283
0.189058
0.189481
0.189549
0.189428
0.1891
0.188682
0.188306
0.18796
0.187661
0.187442
0.18732
0.187279
0.187297
0.185686
0.185704
0.185694
0.185717
0.185702
0.18572
0.185716
0.185723
0.18572
0.185728
0.185723
0.185732
0.185725
0.185734
0.18573
0.185739
0.185738
0.185742
0.185744
0.185742
0.185741
0.185739
0.185737
0.185731
0.185727
0.185722
0.185715
0.185709
0.185703
0.185696
0.18569
0.185687
0.185686
0.185687
0.185694
0.185705
0.185721
0.185739
0.185751
0.185757
0.185756
0.185749
0.185736
0.185717
0.185694
0.185667
0.185637
0.185606
0.185575
0.185545
0.185518
0.185497
0.185477
0.185465
0.185459
0.18546
0.185467
0.185484
0.185507
0.185529
0.185546
0.185555
0.18556
0.185558
0.185555
0.18555
0.185544
0.185537
0.185533
0.185529
0.185528
0.185528
0.185533
0.185542
0.185554
0.18557
0.185589
0.185614
0.185641
0.185672
0.185701
0.185726
0.185747
0.185763
0.185776
0.185787
0.185793
0.185797
0.185799
0.185799
0.185798
0.185796
0.185792
0.185789
0.185785
0.185784
0.185783
0.185785
0.185788
0.185794
0.185805
0.185822
0.185843
0.185872
0.185908
0.185951
0.186001
0.18606
0.186114
0.186167
0.186218
0.186268
0.186318
0.186369
0.186428
0.1865
0.186604
0.186767
0.187046
0.18754
0.188309
0.189113
0.189551
0.189618
0.189505
0.189184
0.188764
0.188389
0.188049
0.187748
0.187517
0.187364
0.187283
0.187274
0.185762
0.185778
0.185763
0.18579
0.185773
0.18579
0.185785
0.185791
0.185789
0.185796
0.18579
0.185798
0.185793
0.185798
0.185794
0.185801
0.1858
0.185802
0.185802
0.185801
0.185799
0.185797
0.185791
0.185787
0.185781
0.185776
0.18577
0.185764
0.185758
0.185753
0.185747
0.185743
0.18574
0.185741
0.185746
0.185757
0.185774
0.185789
0.185799
0.185803
0.185801
0.185793
0.185779
0.185758
0.185734
0.185706
0.185676
0.185643
0.185611
0.185579
0.18555
0.185525
0.185503
0.185489
0.185482
0.185482
0.185491
0.18551
0.185535
0.185559
0.185575
0.185584
0.185588
0.185587
0.185583
0.185577
0.185571
0.185563
0.185557
0.185553
0.185551
0.185552
0.185555
0.185563
0.185574
0.185589
0.185608
0.185631
0.185658
0.185689
0.185719
0.185745
0.185766
0.185783
0.185796
0.185806
0.185814
0.185818
0.18582
0.185819
0.185818
0.185815
0.185811
0.185807
0.185803
0.185801
0.185799
0.1858
0.185803
0.18581
0.185821
0.185838
0.185861
0.185891
0.185929
0.185976
0.186032
0.186092
0.186149
0.186203
0.186255
0.186304
0.186352
0.186399
0.186451
0.186513
0.186603
0.186752
0.187021
0.187519
0.188324
0.18918
0.189651
0.189717
0.189598
0.189269
0.188839
0.188453
0.188094
0.187775
0.18753
0.187373
0.187302
0.187301
0.185843
0.185865
0.185848
0.185877
0.185856
0.185874
0.185867
0.185872
0.185867
0.185874
0.185866
0.185871
0.185861
0.185863
0.185859
0.185861
0.185861
0.18586
0.185859
0.185859
0.185856
0.185852
0.185846
0.18584
0.185833
0.185826
0.185819
0.185812
0.185805
0.185801
0.185797
0.185796
0.185797
0.185803
0.185813
0.185829
0.185843
0.185853
0.185858
0.185858
0.185852
0.18584
0.185822
0.185799
0.185771
0.185741
0.185707
0.185673
0.185639
0.185605
0.185574
0.185548
0.185527
0.185513
0.185507
0.185509
0.185521
0.185542
0.185568
0.185594
0.185608
0.185618
0.185621
0.185619
0.185616
0.185609
0.185602
0.185593
0.185586
0.185582
0.185579
0.185579
0.185582
0.185589
0.185599
0.185614
0.185631
0.185654
0.18568
0.185709
0.185739
0.185764
0.185785
0.185803
0.185816
0.185826
0.185833
0.185837
0.185839
0.185838
0.185837
0.185833
0.185829
0.185825
0.185822
0.185818
0.185817
0.185817
0.185819
0.185824
0.185834
0.185851
0.185872
0.185902
0.185938
0.185984
0.186039
0.186099
0.186157
0.186213
0.186263
0.186312
0.186357
0.186403
0.186453
0.186512
0.186599
0.186742
0.187011
0.187526
0.188372
0.1893
0.189817
0.18989
0.18976
0.189394
0.18892
0.188503
0.188128
0.187798
0.187551
0.187401
0.187352
0.187374
0.186053
0.186069
0.186049
0.186076
0.186049
0.186065
0.186052
0.186051
0.186041
0.186036
0.18602
0.186015
0.185998
0.185993
0.18598
0.185973
0.185967
0.18596
0.185952
0.185942
0.185936
0.185927
0.185919
0.185911
0.185904
0.185897
0.18589
0.185883
0.185875
0.185868
0.185862
0.185856
0.185851
0.185851
0.185855
0.185866
0.18588
0.185892
0.185899
0.1859
0.185894
0.185881
0.185862
0.185837
0.185809
0.185777
0.185742
0.185705
0.18567
0.185635
0.185605
0.185579
0.185559
0.185546
0.185542
0.185546
0.18556
0.185583
0.18561
0.185636
0.185652
0.185662
0.185666
0.185666
0.185663
0.185659
0.185652
0.185645
0.185641
0.185636
0.185635
0.185635
0.18564
0.185648
0.185659
0.185672
0.18569
0.185712
0.185737
0.185764
0.185792
0.185816
0.185836
0.185851
0.185863
0.185872
0.185876
0.185878
0.185877
0.185876
0.185871
0.185866
0.185862
0.185855
0.18585
0.185847
0.185844
0.185842
0.185843
0.185847
0.185856
0.185872
0.185894
0.185923
0.185961
0.186009
0.186065
0.186129
0.186186
0.186241
0.186291
0.186338
0.18638
0.186422
0.186466
0.186518
0.186593
0.186724
0.186985
0.187521
0.188442
0.189488
0.190062
0.190135
0.189978
0.189556
0.189027
0.188588
0.1882
0.187867
0.187622
0.18748
0.187432
0.187442
0.186283
0.186295
0.186271
0.186296
0.186266
0.186276
0.186255
0.186246
0.186229
0.186215
0.18619
0.186173
0.186147
0.18613
0.186108
0.18609
0.186076
0.186058
0.186042
0.186022
0.186008
0.185991
0.185976
0.185966
0.185955
0.185947
0.185939
0.185933
0.185928
0.185926
0.185926
0.18593
0.185938
0.18595
0.185967
0.185979
0.185987
0.185989
0.185985
0.185975
0.185961
0.18594
0.185916
0.185887
0.185856
0.185822
0.185785
0.185748
0.185712
0.185678
0.185649
0.185624
0.185606
0.185594
0.185593
0.185599
0.185616
0.185641
0.185672
0.185701
0.185723
0.185739
0.18575
0.185756
0.185759
0.185761
0.185763
0.185763
0.185764
0.185767
0.185771
0.185776
0.185784
0.185795
0.185808
0.185822
0.185838
0.185858
0.185879
0.185903
0.185927
0.185945
0.185958
0.185966
0.185969
0.185971
0.18597
0.185962
0.185956
0.185948
0.185938
0.185928
0.185918
0.185907
0.185899
0.185891
0.185886
0.185881
0.185879
0.18588
0.185887
0.185901
0.185921
0.18595
0.185988
0.186036
0.186092
0.186158
0.18622
0.186277
0.186329
0.186377
0.186418
0.18646
0.186503
0.18655
0.186615
0.18673
0.186978
0.187532
0.188538
0.18973
0.190385
0.190473
0.190281
0.189785
0.189188
0.188719
0.188314
0.187974
0.187729
0.18759
0.187539
0.187538
0.186953
0.186951
0.18693
0.186934
0.186892
0.186881
0.186838
0.186805
0.186762
0.18672
0.186665
0.186615
0.186556
0.186504
0.186451
0.186403
0.18636
0.186315
0.186276
0.186236
0.1862
0.186165
0.186133
0.186106
0.18608
0.186059
0.186038
0.186019
0.186002
0.185987
0.185973
0.185963
0.185959
0.185961
0.185971
0.185988
0.186002
0.186012
0.186016
0.186015
0.186007
0.185991
0.18597
0.185943
0.185913
0.18588
0.185844
0.185807
0.185772
0.18574
0.185713
0.18569
0.185676
0.185669
0.185674
0.185689
0.185715
0.185754
0.1858
0.185846
0.185886
0.185922
0.185954
0.185984
0.18601
0.186037
0.186061
0.186085
0.186109
0.186132
0.186154
0.186175
0.186194
0.186213
0.186231
0.186247
0.186262
0.186273
0.186281
0.18629
0.186297
0.186295
0.186287
0.18627
0.186249
0.186225
0.186199
0.18617
0.186141
0.186113
0.186085
0.186057
0.186034
0.186008
0.185986
0.18597
0.185954
0.185942
0.185933
0.185931
0.185933
0.185945
0.185963
0.185991
0.186028
0.186076
0.186135
0.1862
0.186262
0.186318
0.186367
0.18641
0.186449
0.186487
0.186526
0.186569
0.186626
0.18673
0.18697
0.187561
0.188663
0.19003
0.190775
0.190871
0.190627
0.190043
0.189378
0.18887
0.188442
0.188089
0.187844
0.187709
0.187663
0.18767
0.188438
0.188397
0.188373
0.188323
0.188257
0.188196
0.188101
0.18801
0.187902
0.18778
0.187645
0.187511
0.187367
0.187231
0.187094
0.18697
0.186855
0.186746
0.186649
0.186557
0.186476
0.186404
0.186342
0.186291
0.186249
0.186218
0.186192
0.186172
0.186155
0.186143
0.186135
0.186129
0.186127
0.186129
0.186134
0.186135
0.186134
0.186132
0.186126
0.186116
0.186099
0.186078
0.186052
0.186022
0.18599
0.185957
0.185923