/*--------------------------------*- C++ -*----------------------------------*\
| =========                 |                                                 |
| \\      /  F ield         | OpenFOAM: The Open Source CFD Toolbox           |
|  \\    /   O peration     | Version:  v1912                                 |
|   \\  /    A nd           | Website:  www.openfoam.com                      |
|    \\/     M anipulation  |                                                 |
\*---------------------------------------------------------------------------*/
FoamFile
{
    version     2.0;
    format      ascii;
    class       surfaceScalarField;
    location    "70";
    object      phi;
}
// * * * * * * * * * * * * * * * * * * * * * * * * * * * * * * * * * * * * * //

dimensions      [0 3 -1 0 0 0 0];
oriented        oriented;


internalField   nonuniform List<scalar> 
28285
(
-0.0173091
-0.000474234
-0.0167856
-0.000523454
-0.0162071
-0.000578501
-0.0155672
-0.000639878
-0.0148592
-0.000708071
-0.0140773
-0.000781852
-0.0132153
-0.000861977
-0.0122694
-0.000945993
-0.0112339
-0.00103549
-0.0101054
-0.00112848
-0.00888183
-0.00122356
-0.00756245
-0.00131938
-0.00614599
-0.00141646
-0.00463566
-0.00151033
-0.00303397
-0.00160169
-0.00134505
-0.00168892
0.000424821
-0.00176987
0.00226618
-0.00184136
0.00416965
-0.00190347
0.00612372
-0.00195407
0.00811515
-0.00199143
0.0101294
-0.00201429
0.0121507
-0.00202127
0.0141621
-0.00201143
0.0161461
-0.00198395
0.0180841
-0.00193803
0.0199579
-0.00187373
0.0217485
-0.00179063
0.0234378
-0.00168933
0.025008
-0.00157016
0.0264421
-0.00143416
0.0277245
-0.00128234
0.0288408
-0.00111628
0.0297782
-0.00093743
0.0305261
-0.000747924
0.0310756
-0.000549515
0.0314202
-0.000344558
0.0315554
-0.000135177
0.0314793
7.60147e-05
0.0311926
0.00028674
0.0307063
0.000486339
0.0300149
0.000691361
0.0291252
0.000889671
0.0280481
0.00107711
0.0267956
0.00125257
0.0253811
0.00141444
0.0238198
0.00156131
0.0221282
0.00169163
0.0203238
0.0018044
0.0184251
0.00189866
0.0164513
0.00197385
0.014422
0.00202929
0.0123564
0.00206559
0.010274
0.00208236
0.00819368
0.00208036
0.00613349
0.00206019
0.00411093
0.00202256
0.00214181
0.00196912
0.000240906
0.0019009
-0.00157854
0.00181945
-0.00330447
0.00172593
-0.00492766
0.00162319
-0.0064398
0.00151214
-0.00783439
0.00139459
-0.00910646
0.00127208
-0.0102528
0.00114633
-0.0112716
0.0010188
-0.0121626
0.000891005
-0.0129268
0.000764154
-0.0135661
0.000639387
-0.0140838
0.000517662
-0.0144837
0.000399855
-0.0147704
0.000286773
-0.0149493
0.00017891
-0.0150261
7.67426e-05
-0.0150069
-1.91435e-05
-0.0148984
-0.000108536
-0.0147064
-0.000191989
-0.0144359
-0.000270536
-0.0140952
-0.00034067
-0.0136909
-0.000404323
-0.0132293
-0.000461569
-0.0127165
-0.000512808
-0.0121586
-0.000557922
-0.0115611
-0.000597481
-0.0109295
-0.00063159
-0.010269
-0.000660505
-0.00958457
-0.000684436
-0.00888065
-0.000703921
-0.00816177
-0.000718887
-0.00743198
-0.000729786
-0.00669524
-0.000736739
-0.00595534
-0.000739905
-0.00521558
-0.000739751
-0.00447951
-0.000736072
-0.00375014
-0.000729371
-0.00303044
-0.000719705
-0.00232323
-0.000707207
-0.00163125
-0.000691978
-0.000957151
-0.000674101
-0.000303608
-0.000653543
0.000327371
-0.000630979
0.000932522
-0.000605151
0.00150954
-0.00057702
0.00205587
-0.000546327
0.00256893
-0.000513059
0.00304616
-0.00047723
0.0034849
-0.000438739
0.00388261
-0.00039771
0.00423669
-0.000354086
0.0045447
-0.000308007
0.00480428
-0.000259581
0.00501341
-0.000209127
0.00517022
-0.000156808
0.00527342
-0.000103205
0.00532216
-4.87335e-05
0.00531592
6.23107e-06
0.00525484
6.10824e-05
0.00513919
0.000115655
0.00496911
0.000170078
0.00474481
0.0002243
0.0044687
0.000276105
0.00414578
0.000322918
0.00378225
0.000363539
0.00338679
0.00039546
0.0029713
0.000415487
0.00254749
0.000423807
0.0021267
0.000420794
0.00172003
0.000406665
0.00133824
0.000381795
0.000990619
0.000347617
0.000685238
0.000305382
0.000428867
0.00025637
0.000201923
0.000226945
-0.0172792
-0.000948739
-0.0167553
-0.0010473
-0.0161761
-0.00115773
-0.0155349
-0.00128108
-0.014826
-0.00141698
-0.0140422
-0.00156562
-0.0131795
-0.00172472
-0.0122307
-0.00189471
-0.0111931
-0.00207312
-0.0100628
-0.00225874
-0.00883676
-0.00244965
-0.0075142
-0.00264194
-0.00609558
-0.00283509
-0.0045823
-0.0030236
-0.00297719
-0.0032068
-0.00128537
-0.00338073
0.000486155
-0.0035414
0.00232978
-0.00368498
0.00423523
-0.00380892
0.00619085
-0.00390969
0.00818342
-0.00398401
0.0101984
-0.00402927
0.0122198
-0.00404261
0.0142307
-0.00402238
0.0162135
-0.00396671
0.0181497
-0.00387428
0.0200209
-0.00374498
0.0218084
-0.0035781
0.0234939
-0.00337481
0.0250595
-0.0031358
0.0264885
-0.00286314
0.0277652
-0.00255898
0.0288753
-0.00222645
0.0298063
-0.00186836
0.0305473
-0.00148891
0.0310896
-0.0010919
0.0314268
-0.000681755
0.0315551
-0.000263431
0.0314716
0.000159495
0.0311777
0.000580647
0.0306845
0.000979539
0.0299863
0.00138959
0.0290901
0.0017858
0.0280071
0.00216016
0.0267491
0.00251055
0.0253298
0.00283375
0.0237643
0.00312677
0.0220691
0.00338688
0.0202619
0.00361163
0.018361
0.00379951
0.0163857
0.00394916
0.0143556
0.00405941
0.0122899
0.00413122
0.0102082
0.00416405
0.00812935
0.00415926
0.00607148
0.00411806
0.00405121
0.00404283
0.00208417
0.00393616
0.000185932
0.00379914
-0.00162881
0.00363419
-0.00335085
0.00344798
-0.00497001
0.00324235
-0.00647797
0.0030201
-0.00786826
0.00278488
-0.009136
0.00253981
-0.010278
0.00228832
-0.0112925
0.00203332
-0.0121793
0.00177784
-0.0129395
0.00152429
-0.013575
0.00127494
-0.0140891
0.00103172
-0.0144856
0.000796354
-0.0147693
0.000570474
-0.0149454
0.000355001
-0.0150197
0.000151103
-0.0149983
-4.06254e-05
-0.0148877
-0.000219108
-0.0146938
-0.000385841
-0.0144218
-0.000542624
-0.0140798
-0.000682624
-0.0136744
-0.000809705
-0.013212
-0.000923985
-0.0126985
-0.00102627
-0.0121402
-0.0011163
-0.0115424
-0.00119525
-0.0109107
-0.00126332
-0.0102502
-0.00132099
-0.00956589
-0.00136872
-0.00886227
-0.00140754
-0.00814377
-0.00143739
-0.00741443
-0.00145913
-0.00667827
-0.0014729
-0.00593896
-0.00147922
-0.00520007
-0.00147864
-0.00446468
-0.00147146
-0.00373612
-0.00145793
-0.00301728
-0.00143855
-0.00231097
-0.00141352
-0.0016199
-0.00138305
-0.000946906
-0.00134709
-0.000294053
-0.0013064
0.000335568
-0.0012606
0.000939684
-0.00120927
0.00151567
-0.00115301
0.00206098
-0.00109164
0.00257306
-0.00102514
0.00304933
-0.000953499
0.00348715
-0.000876556
0.00388395
-0.000794505
0.00423713
-0.000707269
0.0045443
-0.000615175
0.00480311
-0.000518395
0.00501154
-0.000417558
0.00516771
-0.000312981
0.00527036
-0.000205853
0.00531865
-9.70185e-05
0.00531201
1.28679e-05
0.00525058
0.00012251
0.00513468
0.000231563
0.00496443
0.000340324
0.00474004
0.000448689
0.00446396
0.000552185
0.0041412
0.000645678
0.00377792
0.000726825
0.00338278
0.000790595
0.00296767
0.000830597
0.00254427
0.000847207
0.0021239
0.00084117
0.00171764
0.000812917
0.00133624
0.000763202
0.000988984
0.00069487
0.000684029
0.000610336
0.000428157
0.000512243
0.000403444
0.000226636
-0.0172847
-0.00142286
-0.0167615
-0.00157047
-0.0161823
-0.00173698
-0.0155411
-0.00192227
-0.0148306
-0.00212744
-0.0140466
-0.00234965
-0.0131812
-0.00259008
-0.0122314
-0.00284455
-0.0111909
-0.00311363
-0.0100568
-0.0033928
-0.0088273
-0.00367917
-0.00750024
-0.003969
-0.0060768
-0.00425853
-0.00455784
-0.00454257
-0.00294734
-0.00481729
-0.00125013
-0.00507795
0.000527395
-0.00531893
0.00237737
-0.00553496
0.00428931
-0.00572086
0.00625133
-0.00587171
0.00825008
-0.00598276
0.0102709
-0.00605005
0.0122976
-0.00606932
0.0143133
-0.00603816
0.0163003
-0.00595365
0.01824
-0.00581399
0.0201139
-0.00561889
0.0219032
-0.00536739
0.0235896
-0.0050612
0.0251552
-0.00470138
0.0265832
-0.00429123
0.0278581
-0.0038338
0.0289653
-0.00333374
0.0298924
-0.00279539
0.0306286
-0.00222514
0.0311653
-0.00162862
0.0314962
-0.00101267
0.0316172
-0.000384402
0.0315265
0.000250255
0.0312249
0.000882166
0.030724
0.00148044
0.0300175
0.0020961
0.0291131
0.00269017
0.028022
0.00325135
0.0267559
0.00377661
0.0253288
0.00426088
0.0237559
0.00469969
0.0220535
0.00508919
0.0202397
0.0054255
0.0183328
0.00570643
0.0163521
0.00592981
0.0143171
0.00609441
0.0122474
0.00620095
0.0101621
0.00624931
0.00808037
0.00624101
0.00601975
0.00617867
0.00399814
0.00606444
0.00203079
0.00590352
0.000131155
0.00569877
-0.00168218
0.00544752
-0.00340307
0.00516887
-0.00502063
0.00485991
-0.00652658
0.00452604
-0.0079145
0.0041728
-0.00917959
0.00380491
-0.0103187
0.00342746
-0.0113303
0.00304487
-0.012214
0.0026616
-0.0129711
0.00228132
-0.0136035
0.00190739
-0.0141145
0.00154268
-0.014508
0.00118983
-0.0147887
0.000851208
-0.0149619
0.000528216
-0.0150333
0.000222498
-0.0150094
-6.45097e-05
-0.0148966
-0.00033193
-0.0147005
-0.000581933
-0.0144264
-0.000816741
-0.0140826
-0.00102638
-0.0136756
-0.00121674
-0.0132117
-0.0013879
-0.0126969
-0.00154102
-0.0121374
-0.00167586
-0.0115387
-0.00179397
-0.0109061
-0.00189588
-0.0102449
-0.00198216
-0.00955995
-0.00205369
-0.00885583
-0.00211166
-0.00813693
-0.00215629
-0.00740736
-0.0021887
-0.00667105
-0.00220921
-0.00593163
-0.00221864
-0.00519251
-0.00221776
-0.00445728
-0.00220669
-0.00372864
-0.00218657
-0.0030099
-0.00215729
-0.00230387
-0.00211955
-0.00161304
-0.00207387
-0.000940142
-0.00201999
-0.000287835
-0.0019587
0.000341643
-0.00189008
0.000945453
-0.00181308
0.00152115
-0.0017287
0.00206614
-0.00163664
0.00257784
-0.00153684
0.00305371
-0.00142936
0.0034911
-0.00131395
0.00388753
-0.00119093
0.00424038
-0.00106012
0.00454719
-0.000921985
0.00480559
-0.000776797
0.00501357
-0.00062553
0.00516929
-0.000468703
0.00527149
-0.000308052
0.0053193
-0.000144831
0.0053123
1.98698e-05
0.00525057
0.000184241
0.00513437
0.00034776
0.00496388
0.000510818
0.00473929
0.000673272
0.00446302
0.000828453
0.00414007
0.000968629
0.00377665
0.00109025
0.00338141
0.00118583
0.00296625
0.00124576
0.00254285
0.0012706
0.00212255
0.00126148
0.0017164
0.00121906
0.00133511
0.0011445
0.000987986
0.00104199
0.000683213
0.000915109
0.000427617
0.000767839
0.000604652
0.000226408
-0.0173048
-0.00189488
-0.0167833
-0.00209192
-0.0162055
-0.00231474
-0.0155649
-0.00256291
-0.0148561
-0.00283628
-0.0140713
-0.00313443
-0.0132063
-0.0034551
-0.0122541
-0.00379672
-0.0112118
-0.00415595
-0.0100751
-0.00452949
-0.00884197
-0.00491227
-0.00751065
-0.00530031
-0.00608213
-0.00568705
-0.00455718
-0.00606752
-0.00294014
-0.00643433
-0.00123636
-0.00678172
0.000549199
-0.00710449
0.00240723
-0.00739299
0.00432752
-0.00764115
0.00629802
-0.00784221
0.00830528
-0.00799002
0.0103344
-0.0080792
0.0123693
-0.00810416
0.0143928
-0.00806165
0.0163869
-0.00794776
0.0183331
-0.00776015
0.0202125
-0.00749835
0.0220063
-0.00716118
0.0236962
-0.00675112
0.0252642
-0.00626936
0.0266934
-0.00572037
0.0279679
-0.00510837
0.0290738
-0.00443961
0.0299983
-0.00371989
0.030731
-0.00295781
0.0312631
-0.00216071
0.0315881
-0.00133776
0.0317019
-0.000498205
0.031604
0.00034816
0.0312945
0.00119171
0.0307851
0.00198979
0.0300692
0.002812
0.0291553
0.00360413
0.0280543
0.00435233
0.0267785
0.00505237
0.0253418
0.00569766
0.0237594
0.00628204
0.0220481
0.00680048
0.0202257
0.00724795
0.0183107
0.00762143
0.0163226
0.00791791
0.014281
0.00813597
0.0122053
0.00827663
0.0101151
0.00833951
0.0080292
0.00832695
0.00596557
0.0082423
0.00394141
0.00808861
0.00197271
0.00787221
7.2439e-05
0.00759904
-0.00174128
0.00726124
-0.00346174
0.00688932
-0.00507822
0.0064764
-0.00658252
0.00603034
-0.00796829
0.00555857
-0.00923086
0.00506748
-0.0103671
0.00456372
-0.0113755
0.00405327
-0.0122559
0.00354203
-0.0130095
0.0030349
-0.0136384
0.00253631
-0.0141459
0.00205015
-0.0145359
0.00157984
-0.0148133
0.0011286
-0.0149833
0.000698229
-0.0150519
0.000291069
-0.0150249
-9.14833e-05
-0.0149094
-0.00044751
-0.0147106
-0.00078071
-0.0144341
-0.00109323
-0.0140882
-0.0013723
-0.0136791
-0.00162575
-0.0132134
-0.00185361
-0.0126971
-0.00205731
-0.0121361
-0.00223688
-0.0115361
-0.00239396
-0.0109025
-0.00252955
-0.0102403
-0.0026443
-0.00955458
-0.00273942
-0.00884972
-0.00281653
-0.00813023
-0.00287577
-0.00740024
-0.00291869
-0.00666347
-0.00294598
-0.00592368
-0.00295843
-0.00518449
-0.00295694
-0.00444889
-0.00294229
-0.0037204
-0.00291507
-0.00300151
-0.00287617
-0.00229541
-0.00282566
-0.00160479
-0.00276449
-0.000931879
-0.00269291
-0.000279628
-0.00261095
0.00034944
-0.00251915
0.000953054
-0.00241669
0.00152851
-0.00230416
0.00207321
-0.00218134
0.0025846
-0.00204822
0.00306013
-0.00190489
0.00349717
-0.001751
0.00389316
-0.00158692
0.0042455
-0.00141246
0.00455178
-0.00122826
0.00480966
-0.00103468
0.00501716
-0.000833037
0.00517242
-0.00062396
0.00527417
-0.000409806
0.0053216
-0.000192255
0.00531416
2.73117e-05
0.005252
0.000246396
0.00513546
0.000464304
0.00496464
0.000681638
0.00473969
0.000898226
0.00446306
0.00110507
0.00413987
0.00129182
0.00377623
0.0014539
0.00338083
0.00158122
0.0029656
0.001661
0.00254217
0.00169402
0.00212186
0.00168179
0.00171573
0.00162519
0.00133448
0.00152575
0.000987419
0.00138905
0.000682773
0.00121976
0.000427329
0.00102328
0.00080574
0.000226241
-0.0173377
-0.00236338
-0.0168188
-0.00261082
-0.0162439
-0.00288963
-0.0156062
-0.00320067
-0.0148987
-0.00354376
-0.0141157
-0.00391747
-0.0132507
-0.00432006
-0.0122993
-0.00474817
-0.0112551
-0.00520007
-0.0101167
-0.00566793
-0.00887947
-0.00614949
-0.00754432
-0.00663546
-0.00610936
-0.00712202
-0.00457829
-0.00759859
-0.00295375
-0.00805887
-0.00124163
-0.00849385
0.000553088
-0.00889921
0.00242102
-0.00926092
0.00435175
-0.00957188
0.00633308
-0.00982354
0.0083514
-0.0100083
0.0103916
-0.0101194
0.0124373
-0.0101499
0.0144713
-0.0100957
0.0164754
-0.00995179
0.0184307
-0.0097155
0.0203184
-0.00938606
0.0221197
-0.00896241
0.0238155
-0.00844701
0.0253883
-0.00784213
0.0268207
-0.00715272
0.0280972
-0.00638491
0.0292036
-0.00554595
0.0301271
-0.00464346
0.0308572
-0.0036879
0.0313855
-0.00268895
0.0317053
-0.00165763
0.0318135
-0.000606366
0.0317073
0.000454355
0.031389
0.00150999
0.0308705
0.00250826
0.0301444
0.00353812
0.0292198
0.00452874
0.0281078
0.0054643
0.0268208
0.00633937
0.0253729
0.00714557
0.0237795
0.00787551
0.0220574
0.00852252
0.0202246
0.0090808
0.0182999
0.00954612
0.0163026
0.00991518
0.0142527
0.0101859
0.0121695
0.0103598
0.0100727
0.0104364
0.00798094
0.0104187
0.00591263
0.0103106
0.00388467
0.0101166
0.00191322
0.00984366
1.16524e-05
0.00950061
-0.00180362
0.00907652
-0.00352441
0.00861011
-0.00514036
0.00809234
-0.0066434
0.00753338
-0.00802731
0.00694248
-0.00928752
0.00632769
-0.010421
0.00569717
-0.0114263
0.00505858
-0.0123033
0.00441909
-0.0130534
0.00378495
-0.0136787
0.00316162
-0.0141825
0.00255397
-0.0145689
0.00196621
-0.0148427
0.00140241
-0.0150092
0.00086475
-0.0150744
0.00035622
-0.0150444
-0.000121482
-0.0149259
-0.000565997
-0.0147241
-0.000982447
-0.0144451
-0.00137232
-0.0140967
-0.00172062
-0.0136856
-0.00203694
-0.0132178
-0.00232132
-0.0126998
-0.00257539
-0.0121372
-0.00279947
-0.0115357
-0.0029954
-0.0109008
-0.00316444
-0.0102376
-0.00330754
-0.00955092
-0.00342611
-0.00884536
-0.00352209
-0.00812521
-0.00359592
-0.00739453
-0.00364937
-0.00665731
-0.0036832
-0.0059172
-0.00369854
-0.00517778
-0.00369636
-0.00444204
-0.00367804
-0.00371326
-0.00364384
-0.00299454
-0.0035949
-0.00228843
-0.00353176
-0.00159759
-0.00345533
-0.000924874
-0.00336562
-0.000272843
-0.00326298
0.000356186
-0.00314818
0.000959584
-0.00302009
0.0015348
-0.00287938
0.00207928
-0.00272582
0.00259045
-0.00255939
0.00306574
-0.00238018
0.00350248
-0.00218774
0.00389817
-0.00198261
0.00425023
-0.00176452
0.00455624
-0.00153427
0.00481385
-0.00129228
0.00502103
-0.00104022
0.00517596
-0.000778886
0.00527735
-0.000511203
0.00532443
-0.000239331
0.00531665
3.5092e-05
0.00525414
0.000308905
0.00513716
0.000581289
0.00496581
0.000852984
0.00474038
0.00112366
0.00446337
0.00138208
0.0041398
0.00161539
0.00377591
0.0018178
0.00338038
0.00197675
0.00296507
0.00207631
0.00254161
0.00211749
0.00212129
0.00210211
0.00171517
0.00203131
0.00133395
0.00190696
0.000986996
0.00173601
0.000682463
0.00152429
0.000427119
0.00127863
0.00100675
0.000226107
-0.0173832
-0.0028274
-0.016869
-0.00312505
-0.0162985
-0.00346016
-0.0156647
-0.00383445
-0.0149605
-0.00424792
-0.0141803
-0.00469769
-0.0133172
-0.00518317
-0.0123654
-0.00569998
-0.0113216
-0.00624385
-0.0101803
-0.00680921
-0.00894068
-0.00738915
-0.00760037
-0.00797578
-0.00615993
-0.00856245
-0.00462209
-0.00913643
-0.00298861
-0.00969236
-0.00126607
-0.0102164
0.000538964
-0.0107042
0.00241867
-0.0111406
0.00436199
-0.0115152
0.00635646
-0.011818
0.00838828
-0.0120402
0.0104422
-0.0121733
0.0125015
-0.0122092
0.0145489
-0.0121431
0.0165658
-0.0119687
0.0185333
-0.0116829
0.0204322
-0.011285
0.0222433
-0.0107735
0.0239479
-0.0101516
0.0255279
-0.00942208
0.0269657
-0.00859054
0.0282462
-0.00766546
0.0293544
-0.00665418
0.0302782
-0.00556724
0.0310068
-0.00441651
0.0315317
-0.00321387
0.0318467
-0.00197263
0.0319481
-0.000707705
0.0318348
0.000567663
0.0315076
0.00183713
0.0309796
0.00303632
0.0302424
0.00427532
0.029306
0.00546507
0.0281818
0.00658854
0.0268823
0.00763888
0.0254216
0.00860624
0.0238155
0.00948164
0.0220809
0.0102571
0.020236
0.0109257
0.0182997
0.0114824
0.0162915
0.0119233
0.0142312
0.0122461
0.0121388
0.0124523
0.0100338
0.0125413
0.00793475
0.0125178
0.00586051
0.0123849
0.00382733
0.0121497
0.00185219
0.0118188
-5.01829e-05
0.011403
-0.00186935
0.0108957
-0.00359118
0.0103319
-0.00520712
0.00970829
-0.00670935
0.00903561
-0.0080917
0.00832483
-0.00934975
0.00758573
-0.0104805
0.00682793
-0.0114827
0.00606078
-0.0123563
0.00529272
-0.0131027
0.00453134
-0.0137242
0.00378313
-0.0142242
0.0030539
-0.0146067
0.0023487
-0.0148766
0.00167235
-0.0150393
0.0010275
-0.0151008
0.000417704
-0.0150674
-0.000154944
-0.0149457
-0.000687669
-0.0147407
-0.00118747
-0.0144587
-0.00165429
-0.0141077
-0.00207161
-0.0136941
-0.00245053
-0.0132242
-0.00279124
-0.0127041
-0.0030955
-0.0121397
-0.00336386
-0.0115367
-0.00359842
-0.0109004
-0.00380076
-0.010236
-0.00397195
-0.00954815
-0.00411391
-0.00884162
-0.00422862
-0.00812067
-0.00431687
-0.00738937
-0.00438067
-0.00665168
-0.00442089
-0.00591115
-0.00443907
-0.00517115
-0.00443636
-0.00443528
-0.0044139
-0.00370633
-0.0043728
-0.00298724
-0.00431398
-0.00228102
-0.00423799
-0.00159042
-0.00414593
-0.000917777
-0.00403826
-0.000265622
-0.00391514
0.000363272
-0.00377707
0.00096655
-0.00362337
0.00154163
-0.00345446
0.00208592
-0.0032701
0.00259684
-0.00307032
0.00307187
-0.00285521
0.00350838
-0.00262425
0.0039038
-0.00237804
0.00425554
-0.00211626
0.00456117
-0.0018399
0.00481839
-0.0015495
0.00502517
-0.001247
0.00517967
-0.000933387
0.00528067
-0.000612208
0.00532728
-0.000285937
0.00531909
4.32768e-05
0.00525618
0.000371823
0.00513876
0.000698705
0.00496708
0.00102467
0.00474141
0.00134932
0.00446416
0.00165934
0.00414034
0.00193921
0.00377609
0.00218205
0.00338029
0.00237254
0.00296486
0.00249174
0.00254127
0.00254107
0.00212084
0.00252254
0.00171471
0.00243744
0.00133357
0.00228811
0.000986583
0.002083
0.000682143
0.00182873
0.000426946
0.00153382
0.0012077
0.000225994
-0.0174412
-0.00328531
-0.0169332
-0.00363299
-0.0163685
-0.00402492
-0.0157401
-0.00446288
-0.0150407
-0.00494729
-0.0142643
-0.00547413
-0.0134034
-0.00604409
-0.0124539
-0.00664944
-0.0114096
-0.00728819
-0.0102679
-0.0079509
-0.00902493
-0.00863209
-0.00768029
-0.00932041
-0.00623363
-0.0100091
-0.00468699
-0.0106831
-0.00304441
-0.0113349
-0.00131112
-0.0119497
0.00050654
-0.0125219
0.00240006
-0.0130341
0.00435807
-0.0134732
0.00636804
-0.013828
0.00841596
-0.0140881
0.0104862
-0.0142436
0.0125621
-0.014285
0.0146257
-0.0142067
0.0166586
-0.0140015
0.018641
-0.0136654
0.020554
-0.013198
0.0223779
-0.0125975
0.0240937
-0.0118674
0.0256831
-0.0110114
0.0271288
-0.0100362
0.028415
-0.00895166
0.0295269
-0.00776611
0.0304524
-0.00649279
0.0311806
-0.00514469
0.0317031
-0.00373634
0.0320138
-0.00228337
0.032109
-0.000802827
0.0319875
0.000689137
0.0316512
0.00217346
0.0311127
0.00357479
0.0303635
0.00502452
0.0294143
0.00641425
0.0282765
0.00772637
0.0269629
0.00895249
0.0254879
0.0100812
0.0238673
0.0111022
0.0221184
0.0120061
0.0202595
0.0127845
0.0183097
0.0134323
0.0162888
0.0139443
0.0142168
0.0143181
0.0121133
0.0145558
0.00999839
0.0146563
0.00789077
0.0146254
0.00580871
0.0144669
0.00376953
0.0141889
0.00178961
0.0137987
-0.000116813
0.0133094
-0.00193866
0.0127175
-0.0036622
0.0120555
-0.0052787
0.0113248
-0.00678055
0.0105375
-0.00816164
0.00970593
-0.0094177
0.00884179
-0.0105459
0.0079561
-0.011545
0.00705988
-0.0124151
0.00616287
-0.0131577
0.00527394
-0.0137752
0.00440064
-0.014271
0.00354971
-0.0146494
0.00272705
-0.0149152
0.00193816
-0.0150739
0.00118623
-0.0151315
0.000475304
-0.0150943
-0.00019221
-0.0149691
-0.000812835
-0.0147605
-0.00139609
-0.0144754
-0.0019394
-0.0141215
-0.00242552
-0.0137052
-0.0028668
-0.0132328
-0.00326364
-0.0127105
-0.0036178
-0.0121441
-0.00393025
-0.0115393
-0.00420319
-0.0109015
-0.00443865
-0.0102356
-0.00463777
-0.00954668
-0.00480286
-0.00883905
-0.00493624
-0.00811721
-0.00503871
-0.00738521
-0.00511267
-0.00664674
-0.00515937
-0.00590571
-0.00518009
-0.00516538
-0.0051767
-0.00442899
-0.00515029
-0.00369982
-0.00510196
-0.00298077
-0.00503304
-0.00227448
-0.00494427
-0.00158356
-0.00483685
-0.000911064
-0.00471076
-0.000259007
-0.0045672
0.000369893
-0.00440597
0.000973052
-0.00422653
0.00154798
-0.00402939
0.00209211
-0.00381423
0.00260287
-0.00358107
0.0030777
-0.00333004
0.00351395
-0.0030605
0.0039091
-0.00277319
0.00426056
-0.00246772
0.00456591
-0.00214525
0.0048228
-0.00180639
0.00502925
-0.00145345
0.00518341
-0.00108755
0.005284
-0.000712796
0.00533028
-0.000332218
0.00532164
5.1921e-05
0.00525828
0.000435181
0.00514055
0.000816433
0.00496863
0.00119659
0.0047427
0.00157525
0.00446508
0.00193695
0.00414082
0.00226347
0.00377613
0.00254674
0.00337988
0.00276879
0.002964
0.00290762
0.00254028
0.0029648
0.00212016
0.00294266
0.00171429
0.00284331
0.00133304
0.00266936
0.0009862
0.00242983
0.000682093
0.00213284
0.000427014
0.0017889
0.00140875
0.000225971
-0.0175119
-0.00373547
-0.0170122
-0.00413268
-0.0164544
-0.00458269
-0.0158334
-0.00508393
-0.0151397
-0.00564101
-0.0143681
-0.00624571
-0.0135114
-0.00690078
-0.0125646
-0.0075962
-0.011521
-0.00833181
-0.0103784
-0.0090935
-0.00913276
-0.00987771
-0.00778306
-0.0106701
-0.00632961
-0.0114626
-0.00477491
-0.0122378
-0.00312215
-0.0129877
-0.00137569
-0.0136961
0.000455565
-0.0143532
0.00236483
-0.0149434
0.00433973
-0.0154481
0.00636764
-0.0158559
0.00843417
-0.0161546
0.0105237
-0.0163331
0.0126189
-0.0163803
0.0147018
-0.0162896
0.0167534
-0.0160532
0.0187539
-0.0156659
0.0206838
-0.0151278
0.0225233
-0.014437
0.0242529
-0.013597
0.0258543
-0.0126128
0.02731
-0.0114919
0.0286038
-0.0102455
0.0297211
-0.0088835
0.0306497
-0.00742135
0.0313785
-0.00587351
0.0318993
-0.00425714
0.0322061
-0.00259013
0.0322951
-0.000891846
0.0321656
0.000818674
0.0318196
0.00251945
0.0312699
0.00412447
0.0305078
0.0057866
0.0295446
0.00737748
0.0283918
0.00887912
0.0270626
0.0102817
0.0255716
0.0115722
0.0239349
0.0127389
0.0221699
0.0137711
0.0202952
0.0146592
0.0183301
0.0153973
0.0162946
0.0159798
0.0142088
0.0164039
0.0120928
0.0166718
0.00996622
0.0167829
0.00784856
0.016743
0.00575765
0.0165578
0.00371103
0.0162355
0.00172472
0.015785
-0.000186787
0.0152209
-0.00201197
0.0145427
-0.00373782
0.0137813
-0.0053554
0.0129424
-0.00685722
0.0120393
-0.00823734
0.011086
-0.00949159
0.010096
-0.0106172
0.00908173
-0.0116132
0.00805586
-0.0124798
0.00702942
-0.0132184
0.00601259
-0.0138317
0.00501397
-0.0143232
0.00404115
-0.0146971
0.003101
-0.0149585
0.00219955
-0.0151129
0.00134062
-0.0151662
0.000528622
-0.015125
-0.000233455
-0.0149961
-0.000941746
-0.0147835
-0.00160864
-0.014495
-0.00222794
-0.0141379
-0.0027826
-0.0137187
-0.00328602
-0.0132436
-0.0037387
-0.0127189
-0.0041425
-0.0121503
-0.00449883
-0.0115436
-0.00480991
-0.010904
-0.00507826
-0.0102366
-0.00530519
-0.00954626
-0.00549318
-0.00883757
-0.00564494
-0.00811471
-0.00576157
-0.00738174
-0.00584564
-0.00664265
-0.00589845
-0.00590087
-0.00592188
-0.00516017
-0.0059174
-0.0044233
-0.00588716
-0.00369392
-0.00583134
-0.00297443
-0.00575253
-0.00226797
-0.00565072
-0.00157712
-0.00552771
-0.000904415
-0.00538346
-0.000252403
-0.00521921
0.000376498
-0.00503487
0.000979597
-0.00482962
0.00155444
-0.00460423
0.00209844
-0.00435823
0.00260903
-0.00409166
0.00308367
-0.00380468
0.00351972
-0.00349655
0.00391463
-0.0031681
0.00426582
-0.00281891
0.00457085
-0.00245029
0.00482742
-0.00206296
0.00503352
-0.00165955
0.00518729
-0.00124132
0.00528752
-0.000813028
0.00533331
-0.000378005
0.00532428
6.0948e-05
0.00526059
0.000498879
0.00514253
0.000934489
0.00497024
0.00136889
0.00474389
0.0018016
0.00446586
0.00221497
0.00414122
0.00258812
0.00377626
0.0029117
0.0033799
0.00316515
0.0029641
0.00332342
0.00254021
0.00338868
0.00211985
0.00336303
0.00171366
0.0032495
0.00133251
0.00305051
0.000986219
0.00277612
0.000682555
0.0024365
0.000427428
0.00204403
0.00161014
0.000226039
-0.0175958
-0.0041762
-0.017105
-0.0046235
-0.0165567
-0.00513095
-0.0159434
-0.00569719
-0.0152581
-0.00632635
-0.0144933
-0.00701047
-0.0136417
-0.00775239
-0.0126976
-0.00854036
-0.0116565
-0.00937286
-0.0105126
-0.0102374
-0.00926443
-0.0111259
-0.00791042
-0.0120241
-0.00645028
-0.0129227
-0.00488599
-0.0138021
-0.00322142
-0.0146523
-0.00146128
-0.0154563
0.000385567
-0.0162
0.00231271
-0.0168705
0.00430667
-0.0174421
0.00635488
-0.0179041
0.00844279
-0.0182425
0.0105543
-0.0184446
0.0126718
-0.0184979
0.014777
-0.0183947
0.0168504
-0.0181265
0.018872
-0.0176875
0.0208218
-0.0170776
0.0226796
-0.0162948
0.0244258
-0.0153432
0.0260417
-0.0142287
0.0275094
-0.0129597
0.0288129
-0.011549
0.0299375
-0.010008
0.0308703
-0.0083542
0.0316009
-0.00660411
0.0321207
-0.00477695
0.0324239
-0.00289329
0.032507
-0.000974921
0.0323691
0.000956574
0.032013
0.00287547
0.0314514
0.00468608
0.0306754
0.00656261
0.029697
0.00835592
0.028528
0.0100481
0.0271816
0.011628
0.0256729
0.0130809
0.0240183
0.0143936
0.0222353
0.015554
0.020343
0.0165516
0.0183607
0.0173796
0.0163089
0.0180316
0.0142075
0.0185053
0.0120771
0.0188022
0.00993735
0.0189226
0.00780771
0.0188727
0.00570674
0.0186588
0.00365138
0.0182909
0.001657
0.0177794
-0.000259761
0.0171377
-0.0020891
0.016372
-0.00381789
0.0155101
-0.00543708
0.0145616
-0.00693928
0.0135415
-0.0083187
0.0124655
-0.00957128
0.0113486
-0.0106945
0.0102049
-0.0116873
0.00904869
-0.0125502
0.0078923
-0.0132847
0.00674714
-0.0138936
0.00562289
-0.0143805
0.00452802
-0.0147498
0.00347027
-0.0150065
0.00245625
-0.0151563
0.00149038
-0.0152051
0.000577447
-0.0151594
-0.000279106
-0.0150265
-0.00107472
-0.0148097
-0.00182543
-0.0145174
-0.00252017
-0.0141569
-0.0031431
-0.0137346
-0.00370842
-0.0132566
-0.00421666
-0.0127292
-0.0046699
-0.0121582
-0.00506979
-0.0115494
-0.00541878
-0.0109078
-0.00571978
-0.0102388
-0.00597419
-0.00954705
-0.00618497
-0.00883695
-0.00635503
-0.00811297
-0.00648556
-0.00737914
-0.00657947
-0.00663914
-0.00663845
-0.00589669
-0.00666433
-0.00515527
-0.00665881
-0.00441815
-0.00662429
-0.00368817
-0.00656132
-0.0029685
-0.00647221
-0.00226174
-0.00635748
-0.00157067
-0.00621878
-0.000897979
-0.00605615
-0.00024597
-0.00587122
0.000382951
-0.00566379
0.000986013
-0.00543269
0.00156079
-0.00517902
0.00210471
-0.00490214
0.00261518
-0.00460214
0.00308967
-0.00427917
0.00352552
-0.0039324
0.00392021
-0.00356279
0.00427113
-0.00316984
0.00457591
-0.00275506
0.00483218
-0.00231923
0.00503792
-0.00186529
0.00519128
-0.00139467
0.00529104
-0.000912793
0.00533649
-0.000423455
0.00532707
7.03744e-05
0.00526302
0.000562929
0.00514464
0.00105286
0.00497209
0.00154143
0.00474551
0.00202819
0.00446721
0.00249327
0.00414231
0.00291302
0.00377711
0.0032769
0.00338056
0.00356169
0.00296399
0.00374
0.00253952
0.00381315
0.002119
0.00378355
0.00171301
0.00365549
0.00133247
0.00343106
0.000986909
0.00312168
0.000683702
0.00273971
0.000428089
0.00229964
0.0018121
0.000226122
-0.0176923
-0.00460631
-0.0172128
-0.00510306
-0.0166743
-0.00566939
-0.0160717
-0.00629982
-0.0153949
-0.00700317
-0.014638
-0.00776731
-0.0137933
-0.00859712
-0.0128544
-0.00947924
-0.0118151
-0.0104122
-0.0106718
-0.0113807
-0.00942127
-0.0123764
-0.00806233
-0.0133831
-0.00659419
-0.0143908
-0.00502002
-0.0153762
-0.00334256
-0.0163297
-0.00156844
-0.0172304
0.000296387
-0.0180648
0.00224334
-0.0188175
0.00425866
-0.0194574
0.00632965
-0.0199751
0.00844161
-0.0203545
0.0105779
-0.0205809
0.0127209
-0.0206408
0.0148514
-0.0205252
0.0169497
-0.0202249
0.0189955
-0.0197333
0.0209681
-0.0190502
0.0228471
-0.0181738
0.0246127
-0.0171088
0.0262455
-0.0158614
0.0277277
-0.0144419
0.0290428
-0.0128641
0.0301761
-0.0111414
0.0311147
-0.00929281
0.0318481
-0.00733748
0.0323676
-0.00529646
0.0326677
-0.00319341
0.0327447
-0.00105191
0.0325982
0.00110301
0.032232
0.00324167
0.0316574
0.00526074
0.0308666
0.0073534
0.0298717
0.00935082
0.028685
0.0112349
0.02732
0.012993
0.025792
0.014609
0.0241175
0.016068
0.0223149
0.0173567
0.0204029
0.0184635
0.0184017
0.0193808
0.0163314
0.0201018
0.0142127
0.020624
0.0120662
0.0209487
0.00991163
0.0210772
0.00776892
0.0210154
0.00565601
0.0207717
0.00359015
0.0203568
0.00158779
0.0197818
-0.000335892
0.0190614
-0.0021702
0.0182064
-0.00390257
0.0172425
-0.00552387
0.0161829
-0.00702681
0.0150444
-0.00840579
0.0138444
-0.00965685
0.0125997
-0.0107776
0.0113257
-0.0117673
0.0100383
-0.0126263
0.00875139
-0.0133566
0.00747742
-0.0139609
0.0062272
-0.014443
0.00501005
-0.0148073
0.00383458
-0.015059
0.00270797
-0.0152038
0.00163519
-0.0152478
0.00062144
-0.0151975
-0.000329398
-0.0150602
-0.00121204
-0.0148389
-0.00204676
-0.0145427
-0.00281633
-0.0141785
-0.00350731
-0.0137527
-0.00413423
-0.0132716
-0.00469776
-0.0127414
-0.00520009
-0.0121678
-0.00564334
-0.0115567
-0.00602996
-0.0109131
-0.00636336
-0.0102422
-0.00664509
-0.0095488
-0.00687836
-0.0088374
-0.00706643
-0.0081122
-0.00721076
-0.00737719
-0.00731447
-0.0066363
-0.00737935
-0.00589321
-0.00740741
-0.00515106