/*--------------------------------*- C++ -*----------------------------------*\
| =========                 |                                                 |
| \\      /  F ield         | OpenFOAM: The Open Source CFD Toolbox           |
|  \\    /   O peration     | Version:  v1912                                 |
|   \\  /    A nd           | Website:  www.openfoam.com                      |
|    \\/     M anipulation  |                                                 |
\*---------------------------------------------------------------------------*/
FoamFile
{
    version     2.0;
    format      ascii;
    class       volScalarField;
    location    "30";
    object      p;
}
// * * * * * * * * * * * * * * * * * * * * * * * * * * * * * * * * * * * * * //

dimensions      [1 -1 -2 0 0 0 0];


internalField   nonuniform List<scalar> 
14268
(
-79.6509
-80.2494
-80.8475
-81.4454
-82.0428
-82.64
-83.2368
-83.8334
-84.4297
-85.0257
-85.6215
-86.217
-86.8123
-87.4074
-88.0023
-88.5969
-89.1914
-89.7856
-90.3797
-90.9736
-91.5673
-92.1609
-92.7543
-93.3475
-93.9406
-94.5335
-95.1263
-95.7189
-96.3114
-96.9038
-97.4961
-98.0882
-98.6802
-99.2721
-99.8639
-100.456
-101.047
-101.639
-102.23
-102.821
-103.413
-104.004
-104.595
-105.186
-105.776
-106.367
-106.958
-107.549
-108.139
-108.73
-109.32
-109.91
-110.501
-111.091
-111.681
-112.271
-112.861
-113.451
-114.041
-114.631
-115.221
-115.811
-116.4
-116.99
-117.58
-118.169
-118.759
-119.348
-119.938
-120.527
-121.117
-121.706
-122.296
-122.885
-123.474
-124.064
-124.653
-125.242
-125.831
-126.421
-127.01
-127.599
-128.188
-128.777
-129.366
-129.955
-130.544
-131.133
-131.722
-132.311
-132.9
-133.489
-134.078
-134.667
-135.256
-135.845
-136.434
-137.023
-137.611
-138.2
-138.789
-139.378
-139.967
-140.556
-141.144
-141.733
-142.322
-142.911
-143.499
-144.088
-144.677
-145.266
-145.855
-146.443
-147.032
-147.621
-148.209
-148.798
-149.387
-149.975
-150.564
-151.153
-151.742
-152.33
-152.919
-153.507
-154.096
-154.685
-155.274
-155.862
-156.451
-157.039
-157.628
-158.217
-158.805
-159.394
-159.983
-160.572
-161.16
-161.749
-162.337
-162.926
-163.515
-164.103
-164.692
-165.281
-165.869
-166.458
-167.046
-167.635
-79.7728
-80.3713
-80.9695
-81.5673
-82.1648
-82.7619
-83.3588
-83.9553
-84.5516
-85.1477
-85.7434
-86.339
-86.9343
-87.5294
-88.1242
-88.7189
-89.3133
-89.9076
-90.5016
-91.0955
-91.6893
-92.2828
-92.8762
-93.4694
-94.0625
-94.6554
-95.2482
-95.8409
-96.4334
-97.0258
-97.618
-98.2102
-98.8022
-99.3941
-99.9859
-100.578
-101.169
-101.761
-102.352
-102.943
-103.534
-104.126
-104.717
-105.308
-105.898
-106.489
-107.08
-107.67
-108.261
-108.851
-109.442
-110.032
-110.623
-111.213
-111.803
-112.393
-112.983
-113.573
-114.163
-114.753
-115.343
-115.933
-116.522
-117.112
-117.702
-118.291
-118.881
-119.47
-120.06
-120.649
-121.239
-121.828
-122.418
-123.007
-123.596
-124.186
-124.775
-125.364
-125.953
-126.542
-127.132
-127.721
-128.31
-128.899
-129.488
-130.077
-130.666
-131.255
-131.844
-132.433
-133.022
-133.611
-134.2
-134.789
-135.378
-135.967
-136.556
-137.144
-137.733
-138.322
-138.911
-139.5
-140.089
-140.677
-141.266
-141.855
-142.444
-143.033
-143.621
-144.21
-144.799
-145.388
-145.976
-146.565
-147.154
-147.742
-148.331
-148.92
-149.509
-150.097
-150.686
-151.275
-151.864
-152.452
-153.041
-153.629
-154.218
-154.807
-155.396
-155.984
-156.573
-157.161
-157.75
-158.339
-158.927
-159.516
-160.105
-160.693
-161.282
-161.871
-162.459
-163.048
-163.636
-164.225
-164.814
-165.402
-165.991
-166.58
-167.168
-167.757
-79.8948
-80.4933
-81.0914
-81.6892
-82.2867
-82.8839
-83.4807
-84.0773
-84.6736
-85.2696
-85.8654
-86.4609
-87.0562
-87.6513
-88.2461
-88.8408
-89.4352
-90.0295
-90.6236
-91.2175
-91.8112
-92.4047
-92.9981
-93.5914
-94.1844
-94.7774
-95.3701
-95.9628
-96.5553
-97.1477
-97.7399
-98.3321
-98.9241
-99.516
-100.108
-100.699
-101.291
-101.883
-102.474
-103.065
-103.656
-104.247
-104.839
-105.429
-106.02
-106.611
-107.202
-107.792
-108.383
-108.973
-109.564
-110.154
-110.744
-111.335
-111.925
-112.515
-113.105
-113.695
-114.285
-114.875
-115.465
-116.054
-116.644
-117.234
-117.824
-118.413
-119.003
-119.592
-120.182
-120.771
-121.361
-121.95
-122.54
-123.129
-123.718
-124.307
-124.897
-125.486
-126.075
-126.664
-127.254
-127.843
-128.432
-129.021
-129.61
-130.199
-130.788
-131.377
-131.966
-132.555
-133.144
-133.733
-134.322
-134.911
-135.5
-136.089
-136.678
-137.266
-137.855
-138.444
-139.033
-139.622
-140.211
-140.799
-141.388
-141.977
-142.566
-143.155
-143.743
-144.332
-144.921
-145.51
-146.098
-146.687
-147.276
-147.864
-148.453
-149.042
-149.631
-150.219
-150.808
-151.396
-151.986
-152.574
-153.163
-153.751
-154.34
-154.929
-155.518
-156.106
-156.695
-157.283
-157.872
-158.461
-159.049
-159.638
-160.227
-160.815
-161.404
-161.993
-162.581
-163.17
-163.758
-164.347
-164.936
-165.524
-166.113
-166.702
-167.29
-167.879
-80.0167
-80.6152
-81.2134
-81.8112
-82.4087
-83.0058
-83.6027
-84.1992
-84.7955
-85.3915
-85.9873
-86.5829
-87.1782
-87.7732
-88.3681
-88.9627
-89.5572
-90.1514
-90.7455
-91.3394
-91.9331
-92.5267
-93.1201
-93.7133
-94.3064
-94.8993
-95.4921
-96.0847
-96.6772
-97.2696
-97.8619
-98.454
-99.046
-99.6379
-100.23
-100.821
-101.413
-102.004
-102.596
-103.187
-103.778
-104.369
-104.96
-105.551
-106.142
-106.733
-107.324
-107.914
-108.505
-109.095
-109.686
-110.276
-110.866
-111.457
-112.047
-112.637
-113.227
-113.817
-114.407
-114.997
-115.587
-116.176
-116.766
-117.356
-117.945
-118.535
-119.125
-119.714
-120.304
-120.893
-121.483
-122.072
-122.661
-123.251
-123.84
-124.429
-125.019
-125.608
-126.197
-126.786
-127.375
-127.965
-128.554
-129.143
-129.732
-130.321
-130.91
-131.499
-132.088
-132.677
-133.266
-133.855
-134.444
-135.033
-135.622
-136.211
-136.799
-137.388
-137.977
-138.566
-139.155
-139.744
-140.333
-140.921
-141.51
-142.099
-142.688
-143.276
-143.865
-144.454
-145.043
-145.631
-146.22
-146.809
-147.398
-147.986
-148.575
-149.164
-149.753
-150.341
-150.93
-151.518
-152.108
-152.696
-153.285
-153.873
-154.462
-155.051
-155.64
-156.228
-156.817
-157.405
-157.994
-158.583
-159.171
-159.76
-160.348
-160.937
-161.526
-162.115
-162.703
-163.292
-163.88
-164.469
-165.058
-165.646
-166.235
-166.824
-167.412
-168.001
-80.1387
-80.7372
-81.3353
-81.9331
-82.5306
-83.1278
-83.7246
-84.3212
-84.9175
-85.5135
-86.1093
-86.7048
-87.3001
-87.8952
-88.49
-89.0847
-89.6791
-90.2734
-90.8674
-91.4613
-92.0551
-92.6486
-93.242
-93.8352
-94.4283
-95.0212
-95.614
-96.2067
-96.7992
-97.3916
-97.9838
-98.5759
-99.168
-99.7599
-100.352
-100.943
-101.535
-102.126
-102.718
-103.309
-103.9
-104.491
-105.082
-105.673
-106.264
-106.855
-107.446
-108.036
-108.627
-109.217
-109.808
-110.398
-110.988
-111.579
-112.169
-112.759
-113.349
-113.939
-114.529
-115.119
-115.708
-116.298
-116.888
-117.478
-118.067
-118.657
-119.247
-119.836
-120.426
-121.015
-121.605
-122.194
-122.783
-123.373
-123.962
-124.551
-125.141
-125.73
-126.319
-126.908
-127.497
-128.087
-128.676
-129.265
-129.854
-130.443
-131.032
-131.621
-132.21
-132.799
-133.388
-133.977
-134.566
-135.155
-135.744
-136.333
-136.921
-137.51
-138.099
-138.688
-139.277
-139.866
-140.454
-141.043
-141.632
-142.221
-142.81
-143.398
-143.987
-144.576
-145.165
-145.753
-146.342
-146.931
-147.52
-148.108
-148.697
-149.286
-149.875
-150.463
-151.052
-151.64
-152.229
-152.818
-153.407
-153.995
-154.584
-155.172
-155.761
-156.35
-156.939
-157.527
-158.116
-158.705
-159.293
-159.882
-160.47
-161.059
-161.648
-162.237
-162.825
-163.414
-164.002
-164.591
-165.18
-165.768
-166.357
-166.945
-167.534
-168.123
-80.2606
-80.8591
-81.4573
-82.0551
-82.6525
-83.2497
-83.8465
-84.4431
-85.0394
-85.6354
-86.2312
-86.8267
-87.422
-88.0171
-88.612
-89.2066
-89.8011
-90.3953
-90.9894
-91.5833
-92.177
-92.7705
-93.3639
-93.9572
-94.5502
-95.1432
-95.7359
-96.3286
-96.9211
-97.5135
-98.1057
-98.6979
-99.2899
-99.8818
-100.474
-101.065
-101.657
-102.248
-102.84
-103.431
-104.022
-104.613
-105.204
-105.795
-106.386
-106.977
-107.568
-108.158
-108.749
-109.339
-109.93
-110.52
-111.11
-111.7
-112.291
-112.881
-113.471
-114.061
-114.651
-115.241
-115.83
-116.42
-117.01
-117.6
-118.189
-118.779
-119.369
-119.958
-120.548
-121.137
-121.727
-122.316
-122.905
-123.495
-124.084
-124.673
-125.263
-125.852
-126.441
-127.03
-127.619
-128.208
-128.798
-129.387
-129.976
-130.565
-131.154
-131.743
-132.332
-132.921
-133.51
-134.099
-134.688
-135.277
-135.866
-136.454
-137.043
-137.632
-138.221
-138.81
-139.399
-139.988
-140.576
-141.165
-141.754
-142.343
-142.932
-143.52
-144.109
-144.698
-145.287
-145.875
-146.464
-147.053
-147.642
-148.23
-148.819
-149.408
-149.997
-150.585
-151.174
-151.762
-152.351
-152.94
-153.529
-154.117
-154.706
-155.294
-155.883
-156.472
-157.061
-157.649
-158.238
-158.826
-159.415
-160.004
-160.592
-161.181
-161.77
-162.358
-162.947
-163.536
-164.124
-164.713
-165.301
-165.89
-166.479
-167.067
-167.656
-168.245
-80.3826
-80.9811
-81.5792
-82.177
-82.7745
-83.3716
-83.9685
-84.5651
-85.1613
-85.7574
-86.3531
-86.9487
-87.544
-88.139
-88.7339
-89.3285
-89.923
-90.5173
-91.1113
-91.7052
-92.2989
-92.8925
-93.4859
-94.0791
-94.6722
-95.2651
-95.8579
-96.4505
-97.043
-97.6354
-98.2277
-98.8198
-99.4118
-100.004
-100.596
-101.187
-101.779
-102.37
-102.962
-103.553
-104.144
-104.735
-105.326
-105.917
-106.508
-107.099
-107.689
-108.28
-108.871
-109.461
-110.052
-110.642
-111.232
-111.822
-112.413
-113.003
-113.593
-114.183
-114.773
-115.363
-115.952
-116.542
-117.132
-117.722
-118.311
-118.901
-119.49
-120.08
-120.67
-121.259
-121.848
-122.438
-123.027
-123.617
-124.206
-124.795
-125.384
-125.974
-126.563
-127.152
-127.741
-128.33
-128.92
-129.509
-130.098
-130.687
-131.276
-131.865
-132.454
-133.043
-133.632
-134.221
-134.81
-135.399
-135.987
-136.576
-137.165
-137.754
-138.343
-138.932
-139.521
-140.109
-140.698
-141.287
-141.876
-142.465
-143.053
-143.642
-144.231
-144.82
-145.409
-145.997
-146.586
-147.175
-147.764
-148.352
-148.941
-149.529
-150.118
-150.707
-151.296
-151.884
-152.473
-153.062
-153.651
-154.239
-154.828
-155.416
-156.005
-156.594
-157.183
-157.771
-158.36
-158.948
-159.537
-160.126
-160.714
-161.303
-161.892
-162.48
-163.069
-163.658
-164.246
-164.835
-165.423
-166.012
-166.601
-167.189
-167.778
-168.367
-80.5045
-81.103
-81.7012
-82.299
-82.8964
-83.4936
-84.0904
-84.687
-85.2833
-85.8793
-86.4751
-87.0706
-87.6659
-88.261
-88.8558
-89.4505
-90.0449
-90.6392
-91.2333
-91.8271
-92.4209
-93.0144
-93.6078
-94.201
-94.7941
-95.387
-95.9798
-96.5725
-97.165
-97.7574
-98.3496
-98.9417
-99.5338
-100.126
-100.717
-101.309
-101.901
-102.492
-103.084
-103.675
-104.266
-104.857
-105.448
-106.039
-106.63
-107.221
-107.811
-108.402
-108.993
-109.583
-110.173
-110.764
-111.354
-111.944
-112.534
-113.125
-113.715
-114.305
-114.895
-115.484
-116.074
-116.664
-117.254
-117.844
-118.433
-119.023
-119.612
-120.202
-120.791
-121.381
-121.97
-122.56
-123.149
-123.739
-124.328
-124.917
-125.506
-126.096
-126.685
-127.274
-127.863
-128.452
-129.041
-129.631
-130.22
-130.809
-131.398
-131.987
-132.576
-133.165
-133.754
-134.343
-134.932
-135.52
-136.109
-136.698
-137.287
-137.876
-138.465
-139.054
-139.643
-140.231
-140.82
-141.409
-141.998
-142.587
-143.175
-143.764
-144.353
-144.942
-145.53
-146.119
-146.708
-147.297
-147.885
-148.474
-149.063
-149.651
-150.24
-150.829
-151.418
-152.006
-152.595
-153.183
-153.773
-154.361
-154.95
-155.538
-156.127
-156.716
-157.304
-157.893
-158.482
-159.07
-159.659
-160.248
-160.836
-161.425
-162.013
-162.602
-163.191
-163.78
-164.368
-164.957
-165.545
-166.134
-166.723
-167.311
-167.9
-168.488
-80.6264
-81.225
-81.8231
-82.4209
-83.0184
-83.6155
-84.2124
-84.8089
-85.4052
-86.0012
-86.597
-87.1925
-87.7878
-88.3829
-88.9778
-89.5724
-90.1669
-90.7611
-91.3552
-91.9491
-92.5428
-93.1363
-93.7297
-94.323
-94.916
-95.509
-96.1017
-96.6944
-97.2869
-97.8793
-98.4715
-99.0637
-99.6557
-100.248
-100.839
-101.431
-102.023
-102.614
-103.205
-103.797
-104.388
-104.979
-105.57
-106.161
-106.752
-107.343
-107.933
-108.524
-109.114
-109.705
-110.295
-110.886
-111.476
-112.066
-112.656
-113.246
-113.837
-114.427
-115.016
-115.606
-116.196
-116.786
-117.376
-117.965
-118.555
-119.145
-119.734
-120.324
-120.913
-121.503
-122.092
-122.682
-123.271
-123.86
-124.45
-125.039
-125.628
-126.218
-126.807
-127.396
-127.985
-128.574
-129.163
-129.752
-130.342
-130.931
-131.52
-132.109
-132.698
-133.287
-133.876
-134.465
-135.053
-135.642
-136.231
-136.82
-137.409
-137.998
-138.587
-139.176
-139.765
-140.353
-140.942
-141.531
-142.12
-142.709
-143.297
-143.886
-144.475
-145.064
-145.652
-146.241
-146.83
-147.419
-148.007
-148.596
-149.185
-149.773
-150.362
-150.951
-151.54
-152.128
-152.717
-153.305
-153.895
-154.483
-155.072
-155.66
-156.249
-156.838
-157.426
-158.015
-158.604
-159.192
-159.781
-160.37
-160.958
-161.547
-162.135
-162.724
-163.313
-163.901
-164.49
-165.079
-165.667
-166.256
-166.845
-167.433
-168.022
-168.61
-80.7484
-81.3469
-81.9451
-82.5428
-83.1403
-83.7375
-84.3343
-84.9309
-85.5272
-86.1232
-86.719
-87.3145
-87.9098
-88.5049
-89.0997
-89.6944
-90.2888
-90.8831
-91.4771
-92.071
-92.6647
-93.2583
-93.8517
-94.4449
-95.038
-95.6309
-96.2237
-96.8163
-97.4088
-98.0012
-98.5935
-99.1856
-99.7776
-100.37
-100.961
-101.553
-102.145
-102.736
-103.327
-103.919
-104.51
-105.101
-105.692
-106.283
-106.874
-107.465
-108.055
-108.646
-109.236
-109.827
-110.417
-111.008
-111.598
-112.188
-112.778
-113.368
-113.958
-114.548
-115.138
-115.728
-116.318
-116.908
-117.498
-118.087
-118.677
-119.267
-119.856
-120.446
-121.035
-121.625
-122.214
-122.804
-123.393
-123.982
-124.572
-125.161
-125.75
-126.339
-126.929
-127.518
-128.107
-128.696
-129.285
-129.874
-130.463
-131.053
-131.642
-132.231
-132.82
-133.409
-133.998
-134.586
-135.175
-135.764
-136.353
-136.942
-137.531
-138.12
-138.709
-139.298
-139.886
-140.475
-141.064
-141.653
-142.242
-142.83
-143.419
-144.008
-144.597
-145.186
-145.774
-146.363
-146.952
-147.54
-148.129
-148.718
-149.307
-149.895
-150.484
-151.073
-151.662
-152.25
-152.839
-153.427
-154.016
-154.605
-155.194
-155.782
-156.371
-156.959
-157.548
-158.137
-158.726
-159.314
-159.903
-160.492
-161.08
-161.669
-162.257
-162.846
-163.435
-164.023
-164.612
-165.201
-165.789
-166.378
-166.966
-167.555
-168.144
-168.732
-80.8703
-81.4689
-82.067
-82.6648
-83.2623
-83.8594
-84.4563
-85.0528
-85.6491
-86.2451
-86.8409
-87.4364
-88.0317
-88.6268
-89.2216
-89.8163
-90.4107
-91.005
-91.5991
-92.193
-92.7867
-93.3802
-93.9736
-94.5668
-95.1599
-95.7528
-96.3456
-96.9383
-97.5308
-98.1232
-98.7154
-99.3075
-99.8996
-100.491
-101.083
-101.675
-102.267
-102.858
-103.449
-104.041
-104.632
-105.223
-105.814
-106.405
-106.996
-107.586
-108.177
-108.768
-109.358
-109.949
-110.539
-111.13
-111.72
-112.31
-112.9
-113.49
-114.08
-114.67
-115.26
-115.85
-116.44
-117.03
-117.62
-118.209
-118.799
-119.389
-119.978
-120.568
-121.157
-121.747
-122.336
-122.926
-123.515
-124.104
-124.694
-125.283
-125.872
-126.461
-127.051
-127.64
-128.229
-128.818
-129.407
-129.996
-130.585
-131.174
-131.763
-132.352
-132.941
-133.53
-134.119
-134.708
-135.297
-135.886
-136.475
-137.064
-137.653
-138.242
-138.831
-139.42
-140.008
-140.597
-141.186
-141.775
-142.364
-142.952
-143.541
-144.13
-144.719
-145.307
-145.896
-146.485
-147.074
-147.662
-148.251
-148.84
-149.429
-150.017
-150.606
-151.195
-151.784
-152.372
-152.961
-153.549
-154.138
-154.727
-155.316
-155.904
-156.493
-157.081
-157.67
-158.259
-158.847
-159.436
-160.025
-160.613
-161.202
-161.791
-162.379
-162.968
-163.557
-164.145
-164.734
-165.323
-165.911
-166.5
-167.088
-167.677
-168.266
-168.854
-80.9923
-81.5908
-82.1889
-82.7867
-83.3842
-83.9814
-84.5782
-85.1748
-85.771
-86.3671
-86.9628
-87.5584
-88.1537
-88.7487
-89.3436
-89.9382
-90.5327
-91.1269
-91.721
-92.3149
-92.9086
-93.5022
-94.0955
-94.6888
-95.2818
-95.8748
-96.4675
-97.0602
-97.6527
-98.2451
-98.8373
-99.4295
-100.021
-100.613
-101.205
-101.797
-102.388
-102.98
-103.571
-104.163
-104.754
-105.345
-105.936
-106.527
-107.118
-107.708
-108.299
-108.89
-109.48
-110.071
-110.661
-111.252
-111.842
-112.432
-113.022
-113.612
-114.202
-114.792
-115.382
-115.972
-116.562
-117.152
-117.742
-118.331
-118.921
-119.511
-120.1
-120.69
-121.279
-121.869
-122.458
-123.048
-123.637
-124.226
-124.816
-125.405
-125.994
-126.583
-127.173
-127.762
-128.351
-128.94
-129.529
-130.118
-130.707
-131.296
-131.885
-132.474
-133.063
-133.652
-134.241
-134.83
-135.419
-136.008
-136.597
-137.186
-137.775
-138.364
-138.953
-139.541
-140.13
-140.719
-141.308
-141.897
-142.486
-143.074
-143.663
-144.252
-144.841
-145.429
-146.018
-146.607
-147.196
-147.784
-148.373
-148.962
-149.551
-150.139
-150.728
-151.316
-151.906
-152.494
-153.083
-153.671
-154.26
-154.849
-155.438
-156.026
-156.615
-157.203
-157.792
-158.381
-158.969
-159.558
-160.147
-160.735
-161.324
-161.913
-162.501
-163.09
-163.678
-164.267
-164.856
-165.444
-166.033
-166.622
-167.21
-167.799
-168.388
-168.976
-81.1142
-81.7127
-82.3109
-82.9087
-83.5061
-84.1033
-84.7001
-85.2967
-85.893
-86.489
-87.0848
-87.6803
-88.2756
-88.8707
-89.4655
-90.0602
-90.6546
-91.2489
-91.8429
-92.4368
-93.0305
-93.6241
-94.2175
-94.8107
-95.4038
-95.9967
-96.5895
-97.1821
-97.7746
-98.367
-98.9593
-99.5514
-100.143
-100.735
-101.327
-101.919
-102.51
-103.102
-103.693
-104.285
-104.876
-105.467
-106.058
-106.649
-107.24
-107.83
-108.421
-109.012
-109.602
-110.193
-110.783
-111.373
-111.964
-112.554
-113.144
-113.734
-114.324
-114.914
-115.504
-116.094
-116.684
-117.274
-117.863
-118.453
-119.043
-119.632
-120.222
-120.812
-121.401
-121.991
-122.58
-123.169
-123.759
-124.348
-124.937
-125.527
-126.116
-126.705
-127.294
-127.884
-128.473
-129.062
-129.651
-130.24
-130.829
-131.418
-132.007
-132.596
-133.185
-133.774
-134.363
-134.952
-135.541
-136.13
-136.719
-137.308
-137.897
-138.486
-139.075
-139.663
-140.252
-140.841
-141.43
-142.019
-142.607
-143.196
-143.785
-144.374
-144.963
-145.551
-146.14
-146.729
-147.318
-147.906
-148.495
-149.084
-149.673
-150.261
-150.85
-151.438
-152.027
-152.616
-153.205
-153.793
-154.382
-154.97
-155.56
-156.148
-156.737
-157.325
-157.914
-158.503
-159.091
-159.68
-160.269
-160.857
-161.446
-162.035
-162.623
-163.212
-163.8
-164.389
-164.978
-165.566
-166.155
-166.744
-167.332
-167.921
-168.509
-169.098
-81.2362
-81.8347
-82.4328
-83.0306
-83.6281
-84.2252
-84.8221
-85.4186
-86.0149
-86.611
-87.2067
-87.8022
-88.3975
-88.9926
-89.5875
-90.1821
-90.7766
-91.3708
-91.9649
-92.5588
-93.1525
-93.746
-94.3394
-94.9326
-95.5257
-96.1186
-96.7114
-97.3041
-97.8966
-98.4889
-99.0812
-99.6733
-100.265
-100.857
-101.449
-102.041
-102.632
-103.224
-103.815
-104.406
-104.998
-105.589
-106.18
-106.771
-107.362
-107.952
-108.543
-109.134
-109.724
-110.315
-110.905
-111.495
-112.086
-112.676
-113.266
-113.856
-114.446
-115.036
-115.626
-116.216
-116.806
-117.396
-117.985
-118.575
-119.165
-119.754
-120.344
-120.934
-121.523
-122.113
-122.702
-123.291
-123.881
-124.47
-125.059
-125.649
-126.238
-126.827
-127.416
-128.006
-128.595
-129.184
-129.773
-130.362
-130.951
-131.54
-132.129
-132.718
-133.307
-133.896
-134.485
-135.074
-135.663
-136.252
-136.841
-137.43
-138.019
-138.608
-139.196
-139.785
-140.374
-140.963
-141.552
-142.141
-142.729
-143.318
-143.907
-144.496
-145.085
-145.673
-146.262
-146.851
-147.44
-148.028
-148.617
-149.206
-149.795
-150.383
-150.972
-151.56
-152.149
-152.738
-153.327
-153.915
-154.504
-155.092
-155.681
-156.27
-156.859
-157.447
-158.036
-158.625
-159.213
-159.802
-160.39
-160.979
-161.568
-162.157
-162.745
-163.334
-163.922
-164.511
-165.1
-165.688
-166.277
-166.866
-167.454
-168.043
-168.631
-169.22
-81.4191
-82.0176
-82.6158
-83.2135
-83.811
-84.4082
-85.005
-85.6016
-86.1978
-86.7939
-87.3896
-87.9852
-88.5805
-89.1755
-89.7704
-90.365
-90.9595
-91.5537
-92.1478
-92.7417
-93.3354
-93.9289
-94.5223
-95.1155
-95.7086
-96.3015
-96.8943
-97.487
-98.0795
-98.6718
-99.2641
-99.8562
-100.448
-101.04
-101.632
-102.224
-102.815
-103.407
-103.998
-104.589
-105.181
-105.772
-106.363
-106.954
-107.544
-108.135
-108.726
-109.316
-109.907
-110.497
-111.088
-111.678
-112.269
-112.859
-113.449
-114.039
-114.629
-115.219
-115.809
-116.399
-116.989
-117.579
-118.168
-118.758
-119.348
-119.937
-120.527
-121.116
-121.706
-122.295
-122.885
-123.474
-124.064
-124.653
-125.242
-125.832
-126.421
-127.01
-127.599
-128.188
-128.778
-129.367
-129.956
-130.545
-131.134
-131.723
-132.312
-132.901
-133.49
-134.079
-134.668
-135.257
-135.846
-136.435
-137.024
-137.613
-138.202
-138.79
-139.379
-139.968
-140.557
-141.146
-141.735
-142.323
-142.912
-143.501
-144.09
-144.679
-145.267
-145.856
-146.445
-147.034
-147.622
-148.211
-148.8
-149.388
-149.977
-150.566
-151.155
-151.743
-152.332
-152.921
-153.51
-154.098
-154.687
-155.275
-155.864
-156.453
-157.042
-157.63
-158.219
-158.807
-159.396
-159.985
-160.573
-161.162
-161.751
-162.339
-162.928
-163.517
-164.105
-164.694
-165.282
-165.871
-166.46
-167.048
-167.637
-168.226
-168.814
-169.403
-81.663
-82.2615
-82.8597
-83.4574
-84.0549
-84.652
-85.2489
-85.8454
-86.4417
-87.0377
-87.6335
-88.229
-88.8243
-89.4194
-90.0142
-90.6089
-91.2033
-91.7976
-92.3917
-92.9855
-93.5793
-94.1728
-94.7662
-95.3594
-95.9525
-96.5454
-97.1382
-97.7308
-98.3233
-98.9157
-99.508
-100.1
-100.692
-101.284
-101.876
-102.467
-103.059
-103.651
-104.242
-104.833
-105.424
-106.015
-106.606
-107.197
-107.788
-108.379
-108.97
-109.56
-110.151
-110.741
-111.332
-111.922
-112.512
-113.103
-113.693
-114.283
-114.873
-115.463
-116.053
-116.643
-117.233
-117.822
-118.412
-119.002
-119.592
-120.181
-120.771
-121.36
-121.95
-122.539
-123.129
-123.718
-124.307
-124.897
-125.486
-126.075
-126.665
-127.254
-127.843
-128.432
-129.021
-129.611
-130.2
-130.789
-131.378
-131.967
-132.556
-133.145
-133.734
-134.323
-134.912
-135.501
-136.09
-136.679
-137.268
-137.857
-138.445
-139.034
-139.623
-140.212
-140.801
-141.39
-141.979
-142.567
-143.156
-143.745
-144.334
-144.922
-145.511
-146.1
-146.689
-147.277
-147.866
-148.455
-149.044
-149.632
-150.221
-150.81
-151.399
-151.987
-152.576
-153.164
-153.754
-154.342
-154.931
-155.519
-156.108
-156.696
-157.285
-157.874
-158.463
-159.051
-159.64
-160.229
-160.817
-161.406
-161.994
-162.583
-163.172
-163.761
-164.349
-164.938
-165.526
-166.115
-166.704
-167.292
-167.881
-168.47
-169.058
-169.647
-81.9069
-82.5054
-83.1035
-83.7013
-84.2988
-84.8959
-85.4928
-86.0893
-86.6856
-87.2816
-87.8774
-88.4729
-89.0682
-89.6633
-90.2581
-90.8528
-91.4472
-92.0415
-92.6355
-93.2294
-93.8231
-94.4167
-95.01
-95.6033
-96.1963
-96.7893
-97.382
-97.9747
-98.5672
-99.1596
-99.7518
-100.344
-100.936
-101.528
-102.12
-102.711
-103.303
-103.894
-104.486
-105.077
-105.668
-106.259
-106.85
-107.441
-108.032
-108.623
-109.214
-109.804
-110.395
-110.985
-111.576
-112.166
-112.756
-113.346
-113.937
-114.527
-115.117
-115.707
-116.297
-116.887
-117.476
-118.066
-118.656
-119.246
-119.835
-120.425
-121.015
-121.604
-122.194
-122.783
-123.373
-123.962
-124.551
-125.141
-125.73
-126.319
-126.909
-127.498
-128.087
-128.676
-129.265
-129.854
-130.444
-131.033
-131.622
-132.211
-132.8
-133.389
-133.978
-134.567
-135.156
-135.745
-136.334
-136.923
-137.512
-138.1
-138.689
-139.278
-139.867
-140.456
-141.045
-141.634
-142.222
-142.811
-143.4
-143.989
-144.578
-145.166
-145.755
-146.344
-146.933
-147.521
-148.11
-148.699
-149.288
-149.876
-150.465
-151.054
-151.643
-152.231
-152.82
-153.408
-153.997
-154.586
-155.175
-155.763
-156.352
-156.94
-157.529
-158.118
-158.707
-159.295
-159.884
-160.472
-161.061
-161.65
-162.238
-162.827
-163.416
-164.004
-164.593
-165.182
-165.77
-166.359
-166.947
-167.536
-168.125
-168.713
-169.302
-169.891
-82.1508
-82.7493
-83.3474
-83.9452
-84.5427
-85.1398
-85.7367
-86.3332
-86.9295
-87.5255
-88.1213
-88.7168
-89.3121
-89.9072
-90.502
-91.0966
-91.6911
-92.2853
-92.8794
-93.4733
-94.067
-94.6605
-95.2539
-95.8471
-96.4402
-97.0331
-97.6259
-98.2186
-98.8111
-99.4034
-99.9957
-100.588
-101.18
-101.772
-102.364
-102.955
-103.547
-104.138
-104.73
-105.321
-105.912
-106.503
-107.094
-107.685
-108.276
-108.867
-109.457
-110.048
-110.639
-111.229
-111.819
-112.41
-113
-113.59
-114.18
-114.771
-115.361
-115.951
-116.541
-117.13
-117.72
-118.31
-118.9
-119.49
-120.079
-120.669
-121.258
-121.848
-122.437
-123.027
-123.616
-124.206
-124.795
-125.385
-125.974
-126.563
-127.152
-127.742
-128.331
-128.92
-129.509
-130.098
-130.687
-131.277
-131.866
-132.455
-133.044
-133.633
-134.222
-134.811
-135.4
-135.989
-136.578
-137.166
-137.755
-138.344
-138.933
-139.522
-140.111
-140.7
-141.289
-141.877
-142.466
-143.055
-143.644
-144.233
-144.821
-145.41
-145.999
-146.588
-147.176
-147.765
-148.354
-148.943
-149.531
-150.12
-150.709
-151.297
-151.886
-152.475
-153.064
-153.652
-154.241
-154.829
-155.419
-156.007
-156.596
-157.184
-157.773
-158.362
-158.95
-159.539
-160.128
-160.716
-161.305
-161.894
-162.482
-163.071
-163.659
-164.248
-164.837
-165.426
-166.014
-166.603
-167.191
-167.78
-168.369
-168.957
-169.546
-170.134
-82.3947
-82.9932
-83.5913
-84.1891
-84.7866
-85.3837
-85.9806
-86.5771
-87.1734
-87.7694
-88.3652
-88.9607
-89.556
-90.151
-90.7459
-91.3405
-91.935
-92.5292
-93.1233
-93.7172
-94.3109
-94.9044
-95.4978
-96.091
-96.6841
-97.277
-97.8698
-98.4624
-99.0549
-99.6473
-100.24
-100.832
-101.424
-102.016
-102.607
-103.199
-103.791
-104.382
-104.973
-105.565
-106.156
-106.747
-107.338
-107.929
-108.52
-109.111
-109.701
-110.292
-110.882
-111.473
-112.063
-112.654
-113.244
-113.834
-114.424
-115.014
-115.604
-116.194
-116.784
-117.374
-117.964
-118.554
-119.144
-119.733
-120.323
-120.913
-121.502
-122.092
-122.681
-123.271
-123.86
-124.45
-125.039
-125.628
-126.218
-126.807
-127.396
-127.985
-128.575
-129.164
-129.753
-130.342
-130.931
-131.52
-132.109
-132.698
-133.288
-133.877
-134.466
-135.055
-135.644
-136.232
-136.821
-137.41
-137.999
-138.588
-139.177
-139.766
-140.355
-140.944
-141.532
-142.121
-142.71
-143.299
-143.888
-144.476
-145.065
-145.654
-146.243
-146.832
-147.42
-148.009
-148.598
-149.186
-149.775
-150.364
-150.953
-151.541
-152.13
-152.719
-153.308
-153.896
-154.485
-155.073
-155.662
-156.251
-156.84
-157.428
-158.017
-158.605
-159.194
-159.783
-160.372
-160.96
-161.549
-162.138
-162.726
-163.315
-163.903
-164.492
-165.081
-165.669
-166.258
-166.847
-167.435
-168.024
-168.612
-169.201
-169.79
-170.378
-82.6386
-83.2371
-83.8352
-84.433
-85.0305
-85.6276
-86.2244
-86.821
-87.4173
-88.0133
-88.609
-89.2046
-89.7999
-90.3949
-90.9898
-91.5844
-92.1788
-92.7731
-93.3672
-93.961
-94.5547
-95.1483
-95.7417
-96.3349
-96.928
-97.5209
-98.1137
-98.7063
-99.2988
-99.8912
-100.483
-101.076
-101.668
-102.259
-102.851
-103.443
-104.035
-104.626
-105.217
-105.809
-106.4
-106.991
-107.582
-108.173
-108.764
-109.354
-109.945
-110.536
-111.126
-111.717
-112.307
-112.898
-113.488
-114.078
-114.668
-115.258
-115.848
-116.438
-117.028
-117.618
-118.208
-118.798
-119.388
-119.977
-120.567
-121.157
-121.746
-122.336
-122.925
-123.515
-124.104
-124.694
-125.283
-125.872
-126.462
-127.051
-127.64
-128.229
-128.819
-129.408
-129.997
-130.586
-131.175
-131.764
-132.353
-132.942
-133.531
-134.12
-134.709
-135.298
-135.887
-136.476
-137.065
-137.654
-138.243
-138.832
-139.421
-140.01
-140.599
-141.187
-141.776
-142.365
-142.954
-143.543
-144.132
-144.72
-145.309
-145.898
-146.487
-147.075
-147.664
-148.253
-148.842
-149.43
-150.019
-150.608
-151.197
-151.785
-152.374
-152.962
-153.552
-154.14
-154.729
-155.317
-155.906
-156.495
-157.084
-157.672
-158.261
-158.849
-159.438
-160.027
-160.615
-161.204
-161.793
-162.381
-162.97
-163.559
-164.147
-164.736
-165.324
-165.913
-166.502
-167.09
-167.679
-168.268
-168.856
-169.445
-170.034
-170.622
-82.8825
-83.481
-84.0791
-84.6769
-85.2744
-85.8715
-86.4683
-87.0649
-87.6612
-88.2572
-88.8529
-89.4485
-90.0437
-90.6388
-91.2336
-91.8283
-92.4227
-93.017
-93.611
-94.2049
-94.7986
-95.3922
-95.9855
-96.5788
-97.1718
-97.7647
-98.3575
-98.9502
-99.5427
-100.135
-100.727
-101.319
-101.911
-102.503
-103.095
-103.687
-104.278
-104.87
-105.461
-106.052
-106.644
-107.235
-107.826
-108.417
-109.008
-109.598
-110.189
-110.78
-111.37
-111.961
-112.551
-113.141
-113.732
-114.322
-114.912
-115.502
-116.092
-116.682
-117.272
-117.862
-118.452
-119.042
-119.631
-120.221
-120.811
-121.4
-121.99
-122.58
-123.169
-123.759
-124.348
-124.937
-125.527
-126.116
-126.705
-127.295
-127.884
-128.473
-129.062
-129.652
-130.241
-130.83
-131.419
-132.008
-132.597
-133.186
-133.775
-134.364
-134.953
-135.542
-136.131
-136.72
-137.309
-137.898
-138.487
-139.076
-139.665
-140.254
-140.842
-141.431
-142.02
-142.609
-143.198
-143.787
-144.375
-144.964
-145.553
-146.142
-146.73
-147.319
-147.908
-148.497
-149.086
-149.674
-150.263
-150.852
-151.44
-152.029
-152.618
-153.206
-153.795
-154.384
-154.973
-155.561
-156.15
-156.738
-157.327
-157.916
-158.505
-159.093
-159.682
-160.271
-160.859
-161.448
-162.036
-162.625
-163.214
-163.803
-164.391
-164.98
-165.568
-166.157
-166.746
-167.334
-167.923
-168.512
-169.1
-169.689
-170.277
-170.866
-83.7727
-84.3661
-84.9592
-85.5519
-86.1443
-86.7364
-87.3282
-87.9197
-88.511
-89.1019
-89.6926
-90.2831
-90.8733
-91.4634
-92.0532
-92.6428
-93.2321
-93.8214
-94.4104
-94.9992
-95.5879
-96.1764
-96.7647
-97.3529
-97.9409
-98.5288
-99.1165
-99.7041
-100.292
-100.879
-101.466
-102.053
-102.64
-103.227
-103.814
-104.4
-104.987
-105.573
-106.16
-106.746
-107.332
-107.918
-108.504
-109.09
-109.676
-110.261
-110.847
-111.433
-112.018
-112.604
-113.189
-113.774
-114.36
-114.945
-115.53
-116.115
-116.7
-117.285
-117.87
-118.455
-119.039
-119.624
-120.209
-120.793
-121.378
-121.963
-122.547
-123.132
-123.716
-124.301
-124.885
-125.469
-126.054
-126.638
-127.222
-127.807
-128.391
-128.975
-129.559
-130.143
-130.727
-131.311
-131.895
-132.48
-133.064
-133.648
-134.232
-134.816
-135.399
-135.983
-136.567
-137.151
-137.735
-138.319
-138.903
-139.487
-140.071
-140.654
-141.238
-141.822
-142.406
-142.989
-143.573
-144.157
-144.741
-145.324
-145.908
-146.492
-147.076
-147.659
-148.243
-148.827
-149.41
-149.994
-150.578
-151.161
-151.745
-152.328
-152.912
-153.496
-154.08
-154.663
-155.247
-155.83
-156.414
-156.997
-157.581
-158.164
-158.748