/*--------------------------------*- C++ -*----------------------------------*\
| =========                 |                                                 |
| \\      /  F ield         | OpenFOAM: The Open Source CFD Toolbox           |
|  \\    /   O peration     | Version:  v1912                                 |
|   \\  /    A nd           | Website:  www.openfoam.com                      |
|    \\/     M anipulation  |                                                 |
\*---------------------------------------------------------------------------*/
FoamFile
{
    version     2.0;
    format      ascii;
    class       volScalarField;
    location    "30";
    object      p_rgh;
}
// * * * * * * * * * * * * * * * * * * * * * * * * * * * * * * * * * * * * * //

dimensions      [1 -1 -2 0 0 0 0];


internalField   nonuniform List<scalar> 
14268
(
0.283105
0.273186
0.263634
0.254429
0.245556
0.236998
0.228742
0.220774
0.213082
0.205653
0.198477
0.191544
0.184845
0.178369
0.172109
0.166057
0.160205
0.154547
0.149075
0.143783
0.138664
0.133714
0.128927
0.124297
0.11982
0.11549
0.111303
0.107254
0.103339
0.0995545
0.0958958
0.0923593
0.0889411
0.0856378
0.0824458
0.0793617
0.0763823
0.0735044
0.0707249
0.0680407
0.0654491
0.0629471
0.060532
0.0582011
0.0559519
0.0537818
0.0516883
0.049669
0.0477217
0.0458439
0.0440337
0.0422887
0.0406069
0.0389863
0.0374249
0.0359207
0.034472
0.0330768
0.0317335
0.0304402
0.0291954
0.0279974
0.0268447
0.0257356
0.0246687
0.0236426
0.0226559
0.0217072
0.0207952
0.0199185
0.0190761
0.0182665
0.0174888
0.0167418
0.0160243
0.0153353
0.0146738
0.0140387
0.0134292
0.0128441
0.0122829
0.0117443
0.0112279
0.0107322
0.0102575
0.00980146
0.00936546
0.00894596
0.00854607
0.00816004
0.00779394
0.0074384
0.00710404
0.00677613
0.00647164
0.00616874
0.00589224
0.00561216
0.00536145
0.00510286
0.00487496
0.00463778
0.00442851
0.00421439
0.00401785
0.00383053
0.0036389
0.0034843
0.00328782
0.00317393
0.00296116
0.00289766
0.0026559
0.00265356
0.00236963
0.00243932
0.00210097
0.00225157
0.0018503
0.0020851
0.00162054
0.00193207
0.00141752
0.00178238
0.00124883
0.00162571
0.00112081
0.00145517
0.00103451
0.00127124
0.00098262
0.00108327
0.000949855
0.000907045
0.000917551
0.000758398
0.000870626
0.000646559
0.000803123
0.000570603
0.000719251
0.000520981
0.00062959
0.000484873
0.000545103
0.000451885
0.000472496
0.00041693
0.000413029
0.000379618
0.283084
0.273166
0.263614
0.25441
0.245537
0.236981
0.228725
0.220758
0.213066
0.205638
0.198463
0.19153
0.184831
0.178356
0.172096
0.166045
0.160194
0.154535
0.149064
0.143772
0.138654
0.133704
0.128917
0.124288
0.119811
0.115481
0.111294
0.107246
0.103331
0.0995468
0.0958884
0.0923521
0.0889342
0.0856311
0.0824393
0.0793555
0.0763763
0.0734985
0.0707192
0.0680353
0.0654438
0.062942
0.0605271
0.0581964
0.0559474
0.0537774
0.051684
0.0496649
0.0477177
0.0458401
0.04403
0.0422851
0.0406035
0.038983
0.0374217
0.0359177
0.034469
0.033074
0.0317307
0.0304376
0.0291929
0.027995
0.0268423
0.0257333
0.0246666
0.0236405
0.0226539
0.0217053
0.0207933
0.0199167
0.0190743
0.0182649
0.0174873
0.0167403
0.0160228
0.0153339
0.0146724
0.0140374
0.0134279
0.012843
0.0122818
0.0117432
0.0112268
0.0107312
0.0102565
0.00980054
0.00936457
0.00894511
0.00854526
0.00815925
0.0077932
0.00743768
0.00710336
0.00677547
0.00647102
0.00616813
0.00589166
0.00561161
0.00536092
0.00510235
0.00487448
0.00463732
0.00442806
0.00421397
0.00401743
0.00383016
0.0036385
0.00348398
0.00328745
0.00317366
0.00296079
0.00289744
0.00265553
0.0026534
0.00236925
0.00243921
0.00210059
0.00225152
0.00184991
0.00208509
0.00162014
0.00193209
0.00141714
0.0017824
0.0012485
0.00162569
0.00112056
0.0014551
0.00103435
0.0012711
0.000982552
0.00108307
0.000949854
0.00090682
0.000917579
0.000758183
0.000870647
0.000646382
0.000803114
0.000570475
0.000719209
0.000520896
0.000629526
0.000484817
0.000545033
0.000451841
0.000472431
0.000416889
0.000412972
0.000379578
0.283063
0.273146
0.263594
0.254391
0.245519
0.236963
0.228708
0.220741
0.21305
0.205623
0.198448
0.191516
0.184817
0.178343
0.172084
0.166032
0.160182
0.154524
0.149052
0.143761
0.138644
0.133694
0.128908
0.124278
0.119801
0.115472
0.111285
0.107237
0.103323
0.099539
0.0958809
0.0923448
0.0889272
0.0856243
0.0824328
0.0793491
0.0763702
0.0734926
0.0707135
0.0680298
0.0654385
0.0629369
0.0605221
0.0581916
0.0559428
0.0537729
0.0516797
0.0496608
0.0477137
0.0458363
0.0440263
0.0422816
0.0406
0.0389797
0.0374185
0.0359146
0.0344661
0.0330711
0.031728
0.030435
0.0291904
0.0279925
0.02684
0.0257311
0.0246644
0.0236384
0.0226519
0.0217033
0.0207914
0.0199149
0.0190726
0.0182632
0.0174857
0.0167387
0.0160214
0.0153325
0.0146711
0.0140361
0.0134267
0.0128418
0.0122806
0.0117421
0.0112258
0.0107302
0.0102555
0.0097996
0.00936367
0.00894425
0.00854443
0.00815846
0.00779244
0.00743695
0.00710267
0.0067748
0.00647038
0.00616751
0.00589108
0.00561104
0.00536039
0.00510183
0.00487399
0.00463685
0.00442761
0.00421355
0.00401701
0.00382978
0.00363811
0.00348364
0.00328707
0.00317337
0.00296043
0.0028972
0.00265516
0.00265321
0.00236889
0.00243907
0.00210022
0.00225143
0.00184953
0.00208504
0.00161978
0.00193206
0.0014168
0.00178237
0.0012482
0.00162564
0.00112034
0.00145499
0.00103421
0.00127093
0.000982493
0.00108286
0.00094985
0.000906591
0.000917594
0.000757972
0.000870647
0.000646214
0.000803084
0.000570357
0.000719147
0.000520819
0.000629446
0.000484764
0.000544949
0.000451797
0.000472355
0.000416846
0.000412908
0.000379533
0.283041
0.273125
0.263574
0.254372
0.245501
0.236945
0.228691
0.220725
0.213034
0.205607
0.198433
0.191502
0.184803
0.178329
0.172071
0.16602
0.160169
0.154512
0.149041
0.14375
0.138633
0.133684
0.128898
0.124269
0.119792
0.115463
0.111277
0.107229
0.103315
0.0995312
0.0958733
0.0923375
0.0889201
0.0856175
0.0824262
0.0793428
0.076364
0.0734867
0.0707078
0.0680242
0.0654331
0.0629317
0.0605171
0.0581868
0.0559381
0.0537684
0.0516754
0.0496566
0.0477097
0.0458324
0.0440225
0.0422779
0.0405965
0.0389763
0.0374153
0.0359115
0.0344631
0.0330682
0.0317252
0.0304323
0.0291878
0.0279901
0.0268376
0.0257288
0.0246622
0.0236363
0.0226498
0.0217013
0.0207895
0.0199131
0.0190709
0.0182616
0.017484
0.0167372
0.0160199
0.015331
0.0146697
0.0140348
0.0134254
0.0128405
0.0122795
0.011741
0.0112247
0.0107292
0.0102545
0.00979864
0.00936276
0.00894337
0.00854359
0.00815765
0.00779167
0.00743621
0.00710196
0.00677412
0.00646973
0.00616689
0.00589048
0.00561046
0.00535984
0.0051013
0.00487349
0.00463637
0.00442714
0.00421311
0.00401658
0.00382938
0.0036377
0.00348329
0.00328668
0.00317307
0.00296005
0.00289694
0.0026548
0.002653
0.00236853
0.0024389
0.00209986
0.00225131
0.00184918
0.00208495
0.00161943
0.00193199
0.00141649
0.0017823
0.00124794
0.00162553
0.00112014
0.00145485
0.00103409
0.00127074
0.000982438
0.00108263
0.000949837
0.000906356
0.00091759
0.000757764
0.000870624
0.000646053
0.000803027
0.000570246
0.00071906
0.000520746
0.000629344
0.000484711
0.000544848
0.000451749
0.000472265
0.000416796
0.000412832
0.00037948
0.283019
0.273104
0.263554
0.254352
0.245482
0.236927
0.228674
0.220708
0.213018
0.205591
0.198418
0.191487
0.184789
0.178316
0.172058
0.166007
0.160157
0.1545
0.14903
0.143739
0.138622
0.133674
0.128888
0.124259
0.119783
0.115454
0.111268
0.10722
0.103307
0.0995233
0.0958656
0.0923301
0.088913
0.0856106
0.0824195
0.0793363
0.0763578
0.0734807
0.070702
0.0680186
0.0654277
0.0629265
0.0605121
0.0581819
0.0559334
0.0537639
0.051671
0.0496524
0.0477056
0.0458285
0.0440187
0.0422743
0.040593
0.0389729
0.037412
0.0359083
0.03446
0.0330653
0.0317224
0.0304296
0.0291852
0.0279875
0.0268351
0.0257264
0.0246599
0.0236342
0.0226478
0.0216993
0.0207876
0.0199113
0.0190691
0.0182599
0.0174824
0.0167356
0.0160183
0.0153296
0.0146683
0.0140334
0.0134241
0.0128393
0.0122783
0.0117398
0.0112236
0.0107281
0.0102535
0.00979767
0.00936183
0.00894247
0.00854274
0.00815683
0.00779088
0.00743545
0.00710123
0.00677342
0.00646907
0.00616624
0.00588987
0.00560987
0.00535928
0.00510076
0.00487297
0.00463587
0.00442666
0.00421266
0.00401613
0.00382898
0.00363728
0.00348293
0.00328629
0.00317275
0.00295968
0.00289666
0.00265444
0.00265276
0.00236817
0.00243871
0.00209952
0.00225115
0.00184884
0.00208482
0.00161912
0.00193188
0.0014162
0.00178218
0.0012477
0.00162539
0.00111996
0.00145466
0.00103398
0.00127051
0.000982388
0.00108238
0.000949818
0.000906116
0.00091757
0.000757559
0.000870578
0.000645899
0.000802945
0.000570143
0.00071895
0.000520679
0.000629222
0.000484659
0.000544732
0.000451699
0.000472164
0.000416741
0.000412746
0.00037942
0.282997
0.273083
0.263534
0.254333
0.245463
0.236909
0.228656
0.220691
0.213002
0.205576
0.198403
0.191472
0.184775
0.178302
0.172044
0.165994
0.160145
0.154488
0.149018
0.143728
0.138611
0.133663
0.128878
0.124249
0.119773
0.115445
0.111259
0.107212
0.103299
0.0995153
0.0958579
0.0923227
0.0889058
0.0856036
0.0824128
0.0793298
0.0763515
0.0734746
0.0706961
0.068013
0.0654223
0.0629212
0.060507
0.058177
0.0559287
0.0537593
0.0516666
0.0496481
0.0477015
0.0458245
0.0440149
0.0422706
0.0405895
0.0389695
0.0374087
0.0359051
0.034457
0.0330624
0.0317196
0.0304268
0.0291825
0.027985
0.0268327
0.0257241
0.0246577
0.023632
0.0226457
0.0216973
0.0207857
0.0199094
0.0190673
0.0182581
0.0174807
0.016734
0.0160168
0.0153281
0.0146669
0.0140321
0.0134228
0.012838
0.0122771
0.0117387
0.0112225
0.010727
0.0102525
0.00979669
0.00936089
0.00894157
0.00854187
0.008156
0.00779008
0.00743468
0.0071005
0.00677272
0.00646839
0.0061656
0.00588925
0.00560928
0.00535871
0.00510022
0.00487244
0.00463537
0.00442618
0.00421221
0.00401568
0.00382856
0.00363686
0.00348256
0.00328589
0.00317242
0.0029593
0.00289637
0.00265408
0.0026525
0.00236784
0.00243849
0.00209919
0.00225096
0.00184853
0.00208466
0.00161883
0.00193172
0.00141594
0.00178202
0.00124749
0.0016252
0.00111981
0.00145444
0.0010339
0.00127027
0.000982348
0.00108213
0.000949799
0.000905877
0.000917541
0.000757363
0.000870516
0.000645759
0.000802845
0.000570054
0.000718823
0.000520622
0.000629087
0.000484615
0.000544606
0.000451653
0.000472056
0.000416687
0.000412657
0.00037936
0.282975
0.273061
0.263513
0.254313
0.245444
0.236891
0.228638
0.220674
0.212985
0.20556
0.198387
0.191458
0.184761
0.178288
0.172031
0.165982
0.160132
0.154476
0.149006
0.143716
0.138601
0.133653
0.128867
0.12424
0.119764
0.115436
0.11125
0.107203
0.10329
0.0995073
0.0958502
0.0923152
0.0888985
0.0855966
0.082406
0.0793233
0.0763452
0.0734685
0.0706902
0.0680073
0.0654168
0.0629159
0.0605019
0.0581721
0.0559239
0.0537547
0.0516622
0.0496438
0.0476974
0.0458205
0.0440111
0.0422669
0.0405859
0.0389661
0.0374054
0.0359019
0.0344539
0.0330594
0.0317167
0.0304241
0.0291799
0.0279825
0.0268302
0.0257217
0.0246554
0.0236298
0.0226436
0.0216953
0.0207837
0.0199075
0.0190655
0.0182564
0.0174791
0.0167324
0.0160153
0.0153266
0.0146655
0.0140307
0.0134215
0.0128368
0.0122759
0.0117375
0.0112214
0.010726
0.0102515
0.00979571
0.00935995
0.00894067
0.008541
0.00815517
0.00778929
0.00743392
0.00709977
0.00677201
0.00646772
0.00616495
0.00588863
0.00560869
0.00535814
0.00509967
0.00487192
0.00463488
0.00442569
0.00421175
0.00401523
0.00382815
0.00363644
0.00348219
0.0032855
0.00317208
0.00295894
0.00289607
0.00265374
0.00265223
0.00236752
0.00243825
0.00209889
0.00225074
0.00184825
0.00208446
0.00161858
0.00193154
0.00141573
0.00178182
0.00124732
0.00162499
0.0011197
0.0014542
0.00103384
0.00127
0.000982326
0.00108186
0.000949785
0.000905646
0.000917506
0.000757183
0.000870443
0.000645639
0.000802732
0.000569984
0.000718686
0.000520583
0.000628945
0.000484585
0.000544478
0.000451616
0.000471949
0.00041664
0.00041257
0.000379304
0.282952
0.273039
0.263492
0.254293
0.245425
0.236872
0.22862
0.220657
0.212968
0.205544
0.198372
0.191443
0.184746
0.178274
0.172017
0.165969
0.16012
0.154464
0.148995
0.143705
0.13859
0.133642
0.128857
0.12423
0.119754
0.115426
0.111241
0.107195
0.103282
0.0994992
0.0958424
0.0923076
0.0888912
0.0855896
0.0823992
0.0793167
0.0763388
0.0734624
0.0706843
0.0680015
0.0654112
0.0629105
0.0604967
0.0581671
0.0559191
0.0537501
0.0516577
0.0496395
0.0476932
0.0458165
0.0440072
0.0422632
0.0405823
0.0389626
0.037402
0.0358987
0.0344508
0.0330564
0.0317138
0.0304213
0.0291772
0.0279799
0.0268278
0.0257193
0.0246531
0.0236276
0.0226414
0.0216933
0.0207818
0.0199057
0.0190637
0.0182547
0.0174774
0.0167308
0.0160137
0.0153251
0.014664
0.0140293
0.0134202
0.0128355
0.0122746
0.0117363
0.0112203
0.0107249
0.0102505
0.00979473
0.009359
0.00893976
0.00854014
0.00815433
0.00778849
0.00743315
0.00709903
0.00677131
0.00646705
0.0061643
0.00588801
0.00560809
0.00535757
0.00509913
0.00487139
0.00463438
0.00442521
0.0042113
0.00401478
0.00382774
0.00363603
0.00348182
0.00328512
0.00317175
0.00295859
0.00289576
0.00265342
0.00265196
0.00236722
0.00243799
0.00209862
0.00225051
0.00184801
0.00208424
0.00161836
0.00193132
0.00141555
0.0017816
0.00124719
0.00162474
0.00111962
0.00145394
0.00103381
0.00126973
0.000982321
0.0010816
0.000949778
0.000905423
0.000917469
0.00075702
0.000870361
0.000645539
0.000802609
0.000569935
0.000718539
0.000520562
0.000628798
0.000484569
0.000544347
0.000451591
0.000471843
0.000416601
0.000412487
0.000379256
0.282929
0.273017
0.263471
0.254273
0.245405
0.236853
0.228602
0.220639
0.212952
0.205528
0.198356
0.191428
0.184732
0.17826
0.172004
0.165955
0.160107
0.154452
0.148983
0.143694
0.138579
0.133631
0.128847
0.12422
0.119745
0.115417
0.111232
0.107186
0.103274
0.0994911
0.0958345
0.0923
0.0888839
0.0855825
0.0823923
0.0793101
0.0763324
0.0734562
0.0706783
0.0679958
0.0654057
0.0629052
0.0604915
0.0581621
0.0559143
0.0537454
0.0516532
0.0496352
0.047689
0.0458125
0.0440033
0.0422594
0.0405787
0.0389591
0.0373987
0.0358955
0.0344477
0.0330534
0.0317109
0.0304185
0.0291745
0.0279773
0.0268253
0.025717
0.0246508
0.0236254
0.0226393
0.0216912
0.0207798
0.0199038
0.0190619
0.0182529
0.0174757
0.0167292
0.0160122
0.0153237
0.0146626
0.014028
0.0134189
0.0128343
0.0122734
0.0117352
0.0112192
0.0107238
0.0102494
0.00979374
0.00935805
0.00893885
0.00853927
0.0081535
0.00778769
0.00743239
0.0070983
0.00677061
0.00646637
0.00616366
0.00588739
0.0056075
0.005357
0.00509859
0.00487087
0.00463389
0.00442473
0.00421085
0.00401434
0.00382734
0.00363562
0.00348144
0.00328475
0.00317141
0.00295825
0.00289545
0.00265311
0.00265167
0.00236694
0.00243772
0.00209837
0.00225025
0.00184779
0.00208399
0.00161818
0.00193107
0.00141542
0.00178134
0.00124711
0.00162447
0.00111958
0.00145365
0.0010338
0.00126944
0.000982334
0.00108134
0.000949776
0.000905208
0.000917429
0.000756872
0.000870271
0.00064546
0.000802475
0.000569907
0.000718383
0.000520559
0.000628644
0.000484567
0.000544215
0.000451576
0.000471739
0.00041657
0.000412408
0.000379213
0.282906
0.272995
0.26345
0.254252
0.245385
0.236834
0.228584
0.220622
0.212935
0.205511
0.198341
0.191412
0.184717
0.178246
0.17199
0.165942
0.160094
0.154439
0.148971
0.143682
0.138567
0.133621
0.128836
0.12421
0.119735
0.115408
0.111223
0.107177
0.103265
0.0994829
0.0958266
0.0922923
0.0888765
0.0855753
0.0823854
0.0793034
0.076326
0.07345
0.0706723
0.06799
0.0654001
0.0628998
0.0604863
0.058157
0.0559094
0.0537407
0.0516487
0.0496308
0.0476848
0.0458084
0.0439994
0.0422557
0.0405751
0.0389556
0.0373953
0.0358922
0.0344445
0.0330504
0.031708
0.0304157
0.0291718
0.0279747
0.0268228
0.0257146
0.0246485
0.0236232
0.0226372
0.0216892
0.0207778
0.0199019
0.0190601
0.0182512
0.0174741
0.0167276
0.0160106
0.0153222
0.0146612
0.0140266
0.0134176
0.012833
0.0122722
0.011734
0.011218
0.0107228
0.0102484
0.00979275
0.0093571
0.00893794
0.00853839
0.00815266
0.00778688
0.00743162
0.00709756
0.0067699
0.00646569
0.00616301
0.00588677
0.00560691
0.00535642
0.00509805
0.00487034
0.0046334
0.00442424
0.00421041
0.00401389
0.00382693
0.00363521
0.00348107
0.00328437
0.00317106
0.00295791
0.00289513
0.00265281
0.00265136
0.00236668
0.00243743
0.00209815
0.00224997
0.00184761
0.00208372
0.00161804
0.00193079
0.00141532
0.00178105
0.00124706
0.00162416
0.00111958
0.00145334
0.00103383
0.00126913
0.000982362
0.00108107
0.00094978
0.000904999
0.000917384
0.000756739
0.000870169
0.000645399
0.000802329
0.000569898
0.000718215
0.000520572
0.000628483
0.000484577
0.000544079
0.000451569
0.000471634
0.000416545
0.00041233
0.000379175
0.282883
0.272973
0.263428
0.254231
0.245365
0.236815
0.228566
0.220604
0.212918
0.205495
0.198325
0.191397
0.184702
0.178232
0.171976
0.165929
0.160081
0.154427
0.148959
0.143671
0.138556
0.13361
0.128826
0.124199
0.119725
0.115398
0.111214
0.107168
0.103256
0.0994746
0.0958186
0.0922846
0.088869
0.0855681
0.0823785
0.0792967
0.0763195
0.0734437
0.0706662
0.0679841
0.0653944
0.0628943
0.060481
0.058152
0.0559045
0.053736
0.0516441
0.0496264
0.0476806
0.0458043
0.0439955
0.0422519
0.0405714
0.0389521
0.0373919
0.035889
0.0344414
0.0330474
0.0317051
0.0304129
0.0291691
0.0279721
0.0268203
0.0257121
0.0246462
0.0236209
0.022635
0.0216871
0.0207758
0.0199
0.0190582
0.0182494
0.0174724
0.0167259
0.0160091
0.0153207
0.0146597
0.0140252
0.0134162
0.0128317
0.012271
0.0117328
0.0112169
0.0107217
0.0102474
0.00979175
0.00935615
0.00893703
0.00853751
0.00815182
0.00778608
0.00743085
0.00709682
0.00676919
0.00646501
0.00616237
0.00588614
0.00560632
0.00535585
0.00509751
0.00486981
0.0046329
0.00442375
0.00420996
0.00401345
0.00382652
0.00363481
0.00348069
0.00328401
0.00317071
0.00295759
0.0028948
0.00265253
0.00265105
0.00236644
0.00243712
0.00209795
0.00224967
0.00184745
0.00208341
0.00161793
0.00193048
0.00141525
0.00178072
0.00124704
0.00162383
0.0011196
0.001453
0.00103387
0.00126881
0.000982403
0.00108079
0.000949785
0.000904795
0.000917332
0.000756619
0.000870055
0.000645355
0.000802168
0.000569904
0.000718035
0.000520599
0.000628312
0.000484597
0.000543937
0.00045157
0.000471526
0.000416524
0.000412252
0.00037914
0.282859
0.27295
0.263406
0.25421
0.245345
0.236796
0.228547
0.220586
0.2129
0.205478
0.198309
0.191381
0.184687
0.178217
0.171962
0.165915
0.160068
0.154414
0.148947
0.143659
0.138545
0.133599
0.128815
0.124189
0.119715
0.115389
0.111205
0.107159
0.103248
0.0994663
0.0958105
0.0922769
0.0888615
0.0855609
0.0823714
0.0792899
0.0763129
0.0734374
0.0706601
0.0679782
0.0653887
0.0628888
0.0604757
0.0581469
0.0558996
0.0537313
0.0516395
0.049622
0.0476763
0.0458002
0.0439915
0.042248
0.0405677
0.0389485
0.0373885
0.0358857
0.0344382
0.0330443
0.0317022
0.0304101
0.0291664
0.0279695
0.0268178
0.0257097
0.0246438
0.0236187
0.0226329
0.021685
0.0207738
0.019898
0.0190564
0.0182476
0.0174706
0.0167243
0.0160075
0.0153191
0.0146583
0.0140238
0.0134149
0.0128304
0.0122697
0.0117316
0.0112158
0.0107206
0.0102463
0.00979075
0.00935519
0.0089361
0.00853663
0.00815097
0.00778526
0.00743007
0.00709607
0.00676848
0.00646432
0.00616171
0.00588551
0.00560573
0.00535527
0.00509697
0.00486928
0.00463241
0.00442326
0.00420951
0.004013
0.0038261
0.0036344
0.00348031
0.00328364
0.00317035
0.00295726
0.00289445
0.00265225
0.00265071
0.00236621
0.0024368
0.00209777
0.00224934
0.00184732
0.00208307
0.00161785
0.00193013
0.00141523
0.00178036
0.00124706
0.00162346
0.00111966
0.00145263
0.00103394
0.00126847
0.000982456
0.00108051
0.000949792
0.000904595
0.000917272
0.00075651
0.000869928
0.000645325
0.000801991
0.000569926
0.000717841
0.000520638
0.000628132
0.000484627
0.000543789
0.000451576
0.000471416
0.000416506
0.000412173
0.000379106
0.282835
0.272927
0.263384
0.254189
0.245325
0.236776
0.228528
0.220568
0.212883
0.205461
0.198292
0.191366
0.184672
0.178203
0.171948
0.165902
0.160055
0.154402
0.148934
0.143647
0.138533
0.133588
0.128805
0.124179
0.119705
0.115379
0.111196
0.10715
0.103239
0.0994579
0.0958024
0.092269
0.0888539
0.0855535
0.0823644
0.0792831
0.0763063
0.073431
0.070654
0.0679723
0.065383
0.0628833
0.0604704
0.0581417
0.0558946
0.0537265
0.0516349
0.0496175
0.047672
0.0457961
0.0439875
0.0422442
0.040564
0.0389449
0.037385
0.0358823
0.034435
0.0330412
0.0316992
0.0304072
0.0291636
0.0279668
0.0268152
0.0257072
0.0246415
0.0236164
0.0226307
0.0216829
0.0207718
0.0198961
0.0190545
0.0182458
0.0174689
0.0167226
0.0160059
0.0153176
0.0146568
0.0140224
0.0134135
0.0128291
0.0122685
0.0117305
0.0112146
0.0107195
0.0102453
0.00978974
0.00935422
0.00893517
0.00853574
0.00815012
0.00778444
0.00742929
0.00709532
0.00676776
0.00646363
0.00616106
0.00588488
0.00560513
0.00535468
0.00509642
0.00486874
0.00463191
0.00442277
0.00420905
0.00401255
0.00382568
0.00363399
0.00347992
0.00328328
0.00316998
0.00295695
0.0028941
0.00265198
0.00265037
0.00236599
0.00243645
0.00209761
0.00224898
0.00184722
0.0020827
0.0016178
0.00192974
0.00141523
0.00177997
0.00124711
0.00162305
0.00111974
0.00145223
0.00103403
0.00126812
0.000982521
0.00108022
0.0009498
0.000904397
0.000917204
0.000756411
0.000869786
0.00064531
0.0008018
0.000569963
0.000717633
0.00052069
0.00062794
0.000484665
0.000543633
0.000451587
0.000471301
0.000416491
0.000412092
0.000379073
0.282811
0.272904
0.263362
0.254168
0.245304
0.236756
0.228509
0.22055
0.212865
0.205444
0.198276
0.19135
0.184657
0.178188
0.171934
0.165888
0.160042
0.154389
0.148922
0.143635
0.138522
0.133577
0.128794
0.124169
0.119695
0.115369
0.111186
0.107141
0.10323
0.0994494
0.0957943
0.0922611
0.0888463
0.0855462
0.0823573
0.0792762
0.0762997
0.0734246
0.0706478
0.0679663
0.0653772
0.0628777
0.060465
0.0581365
0.0558896
0.0537216
0.0516302
0.049613
0.0476677
0.0457919
0.0439835
0.0422403
0.0405602
0.0389413
0.0373815
0.035879
0.0344318
0.0330381
0.0316962
0.0304043
0.0291609
0.0279642
0.0268126
0.0257048
0.0246391
0.0236141
0.0226285
0.0216808
0.0207698
0.0198941
0.0190526
0.018244
0.0174672
0.016721
0.0160043
0.0153161
0.0146553
0.014021
0.0134122
0.0128278
0.0122672
0.0117293
0.0112135
0.0107184
0.0102442
0.00978872
0.00935324
0.00893424
0.00853484
0.00814926
0.00778362
0.0074285
0.00709456
0.00676704
0.00646293
0.0061604
0.00588423
0.00560453
0.00535409
0.00509587
0.00486819
0.00463141
0.00442227
0.00420859
0.00401209
0.00382526
0.00363358
0.00347953
0.00328291
0.00316961
0.00295663
0.00289374
0.00265173
0.00265
0.00236579
0.00243608
0.00209747
0.0022486
0.00184714
0.00208231
0.00161778
0.00192933
0.00141527
0.00177953
0.00124719
0.00162261
0.00111985
0.00145181
0.00103414
0.00126774
0.000982596
0.00107992
0.000949808
0.000904202
0.000917127
0.000756322
0.000869631
0.000645309
0.000801592
0.000570013
0.000717411
0.000520753
0.000627737
0.000484711
0.000543471
0.000451602
0.000471182
0.000416478
0.000412009
0.00037904
0.282774
0.272869
0.263328
0.254136
0.245273
0.236727
0.228481
0.220522
0.212839
0.205419
0.198251
0.191326
0.184634
0.178166
0.171913
0.165868
0.160022
0.15437
0.148904
0.143617
0.138505
0.13356
0.128778
0.124153
0.11968
0.115355
0.111172
0.107128
0.103217
0.0994367
0.0957819
0.0922492
0.0888348
0.0855351
0.0823465
0.0792658
0.0762897
0.0734149
0.0706384
0.0679573
0.0653685
0.0628693
0.0604569
0.0581287
0.055882
0.0537143
0.0516232
0.0496062
0.0476611
0.0457856
0.0439774
0.0422344
0.0405546
0.0389359
0.0373763
0.0358739
0.0344269
0.0330334
0.0316917
0.0304
0.0291567
0.0279601
0.0268088
0.025701
0.0246355
0.0236107
0.0226252
0.0216776
0.0207667
0.0198912
0.0190498
0.0182413
0.0174646
0.0167184
0.0160019
0.0153138
0.0146531
0.0140188
0.0134101
0.0128258
0.0122654
0.0117274
0.0112117
0.0107167
0.0102426
0.00978718
0.00935176
0.00893282
0.00853348
0.00814796
0.00778237
0.00742731
0.00709341
0.00676595
0.00646187
0.0061594
0.00588326
0.00560362
0.00535319
0.00509504
0.00486737
0.00463066
0.00442151
0.0042079
0.0040114
0.00382462
0.00363296
0.00347893
0.00328237
0.00316903
0.00295617
0.00289317
0.00265135
0.00264943
0.00236551
0.00243549
0.00209729
0.00224799
0.00184705
0.00208166
0.00161779
0.00192865
0.00141537
0.00177883
0.00124736
0.00162191
0.00112006
0.00145114
0.00103434
0.00126715
0.000982724
0.00107947
0.000949819
0.000903914
0.000917
0.000756204
0.000869377
0.000645327
0.000801258
0.000570109
0.000717058
0.000520864
0.000627418
0.000484792
0.000543217
0.000451632
0.000470998
0.000416461
0.000411881
0.000378993
0.282724
0.272821
0.263283
0.254092
0.245231
0.236686
0.228441
0.220485
0.212803
0.205384
0.198218
0.191294
0.184603
0.178136
0.171884
0.16584
0.159995
0.154344
0.148878
0.143593
0.138481
0.133537
0.128756
0.124132
0.11966
0.115335
0.111153
0.107109
0.103199
0.0994194
0.0957653
0.0922331
0.0888192
0.08552
0.082332
0.0792518
0.0762761
0.0734018
0.0706258
0.0679451
0.0653567
0.0628579
0.0604459
0.0581181
0.0558718
0.0537045
0.0516137
0.0495971
0.0476523
0.045777
0.0439691
0.0422265
0.0405469
0.0389285
0.0373692
0.0358671
0.0344203
0.033027
0.0316856
0.0303941
0.029151
0.0279547
0.0268035
0.025696
0.0246306
0.023606
0.0226207
0.0216733
0.0207626
0.0198872
0.0190459
0.0182376
0.017461
0.016715
0.0159986
0.0153106
0.0146501
0.0140159
0.0134073
0.0128232
0.0122628
0.011725
0.0112094
0.0107144
0.0102404
0.00978509
0.00934976
0.00893091
0.00853164
0.0081462
0.00778068
0.00742569
0.00709185
0.00676447
0.00646045
0.00615805
0.00588195
0.00560238
0.00535199
0.00509392
0.00486626
0.00462963
0.00442049
0.00420696
0.00401047
0.00382377
0.00363211
0.00347814
0.0032816
0.0031683
0.00295548
0.00289248
0.00265075
0.00264877
0.00236499
0.00243486
0.00209685
0.00224737
0.0018467
0.00208105
0.00161753
0.00192804
0.00141519
0.0017782
0.00124729
0.00162124
0.00112008
0.00145045
0.00103443
0.00126648
0.000982825
0.00107887
0.000949864
0.000903453
0.00091693
0.000755919
0.000869169
0.000645214
0.000800935
0.000570123
0.000716677
0.000520935
0.000627046
0.000484856
0.000542902
0.000451654
0.00047076
0.000416432
0.00041171
0.000378927
0.282673
0.272772
0.263236
0.254047
0.245188
0.236645
0.228402
0.220446
0.212766
0.205349
0.198184
0.191261
0.184571
0.178105
0.171854
0.165811
0.159968
0.154317
0.148853
0.143568
0.138457
0.133514
0.128734
0.12411
0.119639
0.115315
0.111134
0.10709
0.103181
0.0994019
0.0957483
0.0922167
0.0888034
0.0855047
0.0823172
0.0792375
0.0762624
0.0733885
0.070613
0.0679327
0.0653448
0.0628464
0.0604348
0.0581073
0.0558614
0.0536944
0.051604
0.0495877
0.0476433
0.0457684
0.0439608
0.0422184
0.0405392
0.038921
0.037362
0.0358601
0.0344136
0.0330206
0.0316793
0.0303881
0.0291453
0.0279491
0.0267982
0.0256909
0.0246257
0.0236012
0.0226161
0.0216689
0.0207583
0.0198831
0.019042
0.0182338
0.0174574
0.0167116
0.0159953
0.0153074
0.014647
0.014013
0.0134045
0.0128205
0.0122602
0.0117225
0.011207
0.0107121
0.0102382
0.00978298
0.00934773
0.00892896
0.00852977
0.00814441
0.00777896
0.00742405
0.00709027
0.00676297
0.00645899
0.00615667
0.00588061
0.00560112
0.00535076
0.00509277
0.00486513
0.00462859
0.00441945
0.00420601
0.00400952
0.00382289
0.00363125
0.00347733
0.00328083
0.00316754
0.00295481
0.00289175
0.00265017
0.00264806
0.00236452
0.00243415
0.00209648
0.00224667
0.00184643
0.00208034
0.00161735
0.00192731
0.00141512
0.00177744
0.00124732
0.00162047
0.00112019
0.00144968
0.00103458
0.00126575
0.000982958
0.00107825
0.000949907
0.000903001
0.00091683
0.000755667
0.000868914
0.000645146
0.00080056
0.00057018
0.000716249
0.000521042
0.000626637
0.000484947
0.000542563
0.00045169
0.000470507
0.000416409
0.000411532
0.000378862
0.282621
0.272722
0.263188
0.254001
0.245144
0.236602
0.228361
0.220407
0.212728
0.205313
0.198149
0.191228
0.184539
0.178074
0.171825
0.165782
0.15994
0.15429
0.148827
0.143543
0.138433
0.133491
0.128711
0.124088
0.119618
0.115294
0.111114
0.107071
0.103163
0.0993841
0.0957312
0.0922002
0.0887874
0.0854893
0.0823023
0.0792231
0.0762484
0.0733751
0.0706
0.0679201
0.0653326
0.0628347
0.0604235
0.0580964
0.0558509
0.0536843
0.0515942
0.0495783
0.0476342
0.0457596
0.0439523
0.0422103
0.0405313
0.0389134
0.0373547
0.0358531
0.0344068
0.0330141
0.0316731
0.0303821
0.0291394
0.0279435
0.0267928
0.0256857
0.0246207
0.0235964
0.0226115
0.0216644
0.020754
0.019879
0.0190381
0.01823
0.0174538
0.0167081
0.0159919
0.0153042
0.0146439
0.01401
0.0134016
0.0128177
0.0122575
0.0117199
0.0112045
0.0107098
0.010236
0.00978083
0.00934566
0.00892698
0.00852787
0.0081426
0.00777721
0.00742239
0.00708867
0.00676145
0.00645752
0.00615528
0.00587925
0.00559985
0.0053495
0.00509161
0.00486397
0.00462753
0.00441839
0.00420505
0.00400855
0.003822
0.00363037
0.0034765
0.00328006
0.00316675
0.00295415
0.00289098
0.00264962
0.00264729
0.00236409
0.00243338
0.00209617
0.00224588
0.00184623
0.00207953
0.00161727
0.00192647
0.00141515
0.00177658
0.00124744
0.00161959
0.00112038
0.00144882
0.00103479
0.00126496
0.000983119
0.0010776
0.000949947
0.000902557
0.000916701
0.000755445
0.000868614
0.000645119
0.000800135
0.000570281
0.000715776
0.000521185
0.000626194
0.000485061
0.0005422
0.000451739
0.00047024
0.000416392
0.000411346
0.000378799
0.282568
0.272671
0.263139
0.253954
0.2451
0.23656
0.22832
0.220368
0.21269
0.205276
0.198114
0.191194
0.184506
0.178043
0.171794
0.165753
0.159912
0.154263
0.1488
0.143518
0.138408
0.133467
0.128688
0.124066
0.119596
0.115274
0.111094
0.107052
0.103144
0.0993661
0.0957138
0.0921833
0.0887711
0.0854736
0.0822871
0.0792084
0.0762343
0.0733614
0.0705868
0.0679074
0.0653203
0.0628228
0.060412
0.0580854
0.0558402
0.053674
0.0515843
0.0495687
0.0476249
0.0457507
0.0439437
0.042202
0.0405233
0.0389057
0.0373473
0.0358459
0.0343999
0.0330074
0.0316667
0.0303759
0.0291335
0.0279378
0.0267873
0.0256804
0.0246156
0.0235915
0.0226068
0.0216599
0.0207497
0.0198748
0.0190341
0.0182262
0.01745
0.0167045
0.0159885
0.0153009
0.0146407
0.014007
0.0133987
0.0128149
0.0122548
0.0117174
0.011202
0.0107074
0.0102337
0.00977864
0.00934357
0.00892498
0.00852594
0.00814076
0.00777544
0.0074207
0.00708704
0.0067599
0.00645601
0.00615387
0.00587787
0.00559857
0.00534823
0.00509044
0.0048628
0.00462646
0.00441732
0.00420407
0.00400757
0.0038211
0.0036295
0.00347564
0.00327929
0.00316592
0.0029535
0.00289017
0.0026491
0.00264647
0.0023637
0.00243253
0.00209591
0.002245
0.00184611
0.00207862
0.00161727
0.00192553
0.00141527
0.00177561
0.00124765
0.00161861
0.00112065
0.00144788
0.00103506
0.00126412
0.000983308
0.00107694
0.000949983
0.000902122
0.000916544
0.000755254
0.000868271
0.000645133
0.000799662
0.000570421
0.00071526
0.00052136
0.000625716