/*--------------------------------*- C++ -*----------------------------------*\
| =========                 |                                                 |
| \\      /  F ield         | OpenFOAM: The Open Source CFD Toolbox           |
|  \\    /   O peration     | Version:  v1912                                 |
|   \\  /    A nd           | Website:  www.openfoam.com                      |
|    \\/     M anipulation  |                                                 |
\*---------------------------------------------------------------------------*/
FoamFile
{
    version     2.0;
    format      ascii;
    class       volScalarField;
    location    "10";
    object      nut;
}
// * * * * * * * * * * * * * * * * * * * * * * * * * * * * * * * * * * * * * //

dimensions      [0 2 -1 0 0 0 0];


internalField   nonuniform List<scalar> 
14268
(
3.66751e-08
3.57289e-08
3.41475e-08
3.23905e-08
3.16516e-08
3.0551e-08
3.0304e-08
3.21597e-08
3.42194e-08
3.6073e-08
3.45819e-08
3.32007e-08
3.4118e-08
3.69803e-08
3.6751e-08
3.38554e-08
3.30851e-08
3.87884e-08
4.78231e-08
4.58338e-08
4.04336e-08
3.87642e-08
3.76483e-08
3.46688e-08
2.96614e-08
2.60009e-08
2.5071e-08
2.71146e-08
3.36377e-08
1.3857e-07
1.1905e-06
5.82201e-06
1.59097e-05
3.26407e-05
5.5288e-05
7.19151e-05
8.26187e-05
8.97747e-05
9.35032e-05
9.95566e-05
0.000107206
0.000112698
0.000107659
9.8914e-05
9.42353e-05
0.000100124
0.000105776
0.00010206
9.68735e-05
9.65749e-05
0.000115495
0.000129594
0.000132252
0.00012422
0.000115279
0.000117187
0.000140837
0.000159531
0.000161826
0.000159263
0.000166116
0.000182904
0.0001956
0.000201954
0.00020236
0.000213268
0.000209954
0.000175658
0.000163536
0.000188238
0.000203025
0.000191361
0.000181009
0.000176969
0.000180149
0.000187887
0.000198443
0.000208885
0.000216171
0.00021946
0.00022111
0.000220313
0.000212937
0.00019672
0.000185731
0.000186497
0.000192463
0.000205267
0.000224806
0.000260686
0.000286968
0.000275615
0.000259767
0.000254142
0.000242828
0.000265868
0.000318407
0.000398865
0.000465878
0.000473536
0.000458914
0.000429152
0.000308718
0.000268065
3.53381e-07
3.50067e-07
3.33748e-07
3.13906e-07
3.02592e-07
2.843e-07
2.82307e-07
2.92938e-07
3.07863e-07
3.22707e-07
3.17094e-07
3.12748e-07
3.2632e-07
3.56815e-07
3.40054e-07
2.82178e-07
2.6864e-07
2.9649e-07
3.42068e-07
3.46188e-07
2.93087e-07
2.83405e-07
2.64119e-07
2.11079e-07
1.43462e-07
9.05308e-08
7.23281e-08
7.28799e-08
1.3347e-07
9.15753e-07
8.73683e-06
4.21189e-05
9.59841e-05
0.000190122
0.000390874
0.000567725
0.000693353
0.000779669
0.000787345
0.000828034
0.000902815
0.000980508
0.000934077
0.000845485
0.000765337
0.000860394
0.000941554
0.000910812
0.00083455
0.00078594
0.000988464
0.00114261
0.00116416
0.00104945
0.000938841
0.000946672
0.00119538
0.00137155
0.0013797
0.00133615
0.00138295
0.0014847
0.00152569
0.0014979
0.00144707
0.00159828
0.00178949
0.0020735
0.00133105
0.00136275
0.00193274
0.00274912
0.00274226
0.00247511
0.00230582
0.00221347
0.00222421
0.00228664
0.00243809
0.00253659
0.00260532
0.00266067
0.0026338
0.00242413
0.00198905
0.00179828
0.00179231
0.00189807
0.00214887
0.00281082
0.00389116
0.00432143
0.00362248
0.00288262
0.00228136
0.00219469
0.00383898
0.00615097
0.00653176
0.00683468
0.00812061
0.00899905
0.00556323
0.00422442
4.61463e-07
4.60778e-07
4.57468e-07
4.52486e-07
4.49184e-07
4.38656e-07
4.37312e-07
4.39878e-07
4.45005e-07
4.49609e-07
4.47915e-07
4.48551e-07
4.51732e-07
4.62387e-07
4.5821e-07
4.32451e-07
4.22701e-07
4.37381e-07
4.56456e-07
4.58531e-07
4.36583e-07
4.35254e-07
4.25873e-07
3.77187e-07
2.92771e-07
1.92899e-07
1.45331e-07
1.42795e-07
2.84695e-07
2.18881e-06
2.16372e-05
0.000100697
0.00020531
0.000395924
0.000824318
0.00120818
0.00147284
0.00164607
0.00166054
0.00176995
0.00194038
0.0021484
0.00203868
0.00181566
0.0016721
0.00184631
0.0020606
0.00196557
0.0017519
0.00165425
0.0020831
0.00245267
0.00247596
0.00214824
0.00185452
0.00187147
0.00250388
0.00288638
0.00284799
0.00271711
0.00278732
0.00296316
0.00299633
0.002878
0.00265359
0.00278697
0.00342289
0.00471975
0.00215285
0.0023564
0.00374189
0.00576438
0.00623735
0.00557285
0.00501214
0.00480918
0.00491519
0.00495781
0.00511105
0.00547296
0.00605295
0.00647094
0.00659915
0.00590453
0.00412462
0.00326163
0.00300162
0.0029049
0.00337479
0.00502172
0.00984692
0.014288
0.011309
0.00801209
0.00530518
0.00389058
0.00604228
0.00839025
0.00820491
0.0089673
0.0117536
0.0161635
0.0171522
0.0123183
4.71412e-07
4.70168e-07
4.68535e-07
4.66366e-07
4.65013e-07
4.59635e-07
4.60772e-07
4.62667e-07
4.6476e-07
4.66732e-07
4.65231e-07
4.66365e-07
4.69047e-07
4.76363e-07
4.70336e-07
4.54718e-07
4.53332e-07
4.61472e-07
4.71461e-07
4.7185e-07
4.57809e-07
4.5961e-07
4.53272e-07
4.32348e-07
3.79523e-07
2.89622e-07
2.26444e-07
2.27277e-07
4.42179e-07
3.37698e-06
3.39899e-05
0.000163237
0.000328185
0.000617389
0.00126766
0.00184449
0.00224206
0.00249633
0.00253601
0.00270628
0.00298504
0.00325584
0.00310468
0.00277879
0.00258589
0.00286503
0.00314793
0.00302137
0.00266598
0.00251749
0.00316192
0.00374674
0.00379391
0.0032844
0.00280445
0.00278764
0.00373888
0.00428415
0.00418027
0.00391786
0.00393831
0.00415778
0.00419127
0.0039814
0.00346603
0.00311704
0.00335099
0.00377028
0.00217766
0.00365077
0.00845887
0.0117159
0.0114325
0.0102491
0.00954936
0.00984026
0.0107802
0.0117796
0.0127182
0.0138778
0.0150249
0.0142171
0.0134311
0.0121894
0.00886181
0.00643905
0.00554755
0.00477651
0.00492747
0.00794796
0.0175488
0.0241655
0.0192809
0.0158314
0.0129063
0.00701344
0.00686193
0.0067908
0.00714548
0.00822609
0.0112149
0.0167646
0.0229993
0.0201061
4.72098e-07
4.71595e-07
4.7061e-07
4.69252e-07
4.68822e-07
4.64582e-07
4.66079e-07
4.66788e-07
4.68093e-07
4.6957e-07
4.69029e-07
4.69617e-07
4.69073e-07
4.72749e-07
4.67923e-07
4.61166e-07
4.59089e-07
4.64685e-07
4.73049e-07
4.74044e-07
4.63549e-07
4.65204e-07
4.6182e-07
4.42467e-07
4.21267e-07
3.63018e-07
3.04103e-07
3.10821e-07
5.82011e-07
4.4462e-06
4.50174e-05
0.000223821
0.000457601
0.000843739
0.00169107
0.00243281
0.0029449
0.00327318
0.00335712
0.00357395
0.00393515
0.00426802
0.00410324
0.00368197
0.00345291
0.00379257
0.00414404
0.00399703
0.00351371
0.00332943
0.00413589
0.00491294
0.00499099
0.00435057
0.00370487
0.0036662
0.00485831
0.00548136
0.00530477
0.00493264
0.00492456
0.00517423
0.00518044
0.00484328
0.00407447
0.00309299
0.00265155
0.00258055
0.00247259
0.00539563
0.0157087
0.017433
0.0168746
0.0152445
0.0130418
0.0122755
0.0132939
0.0160108
0.0186386
0.0193261
0.0174733
0.014897
0.0136701
0.0134608
0.0129925
0.0110831
0.0093183
0.00722793
0.00647321
0.00989334
0.0211396
0.0267722
0.0177961
0.0150968
0.0155663
0.00942475
0.00546062
0.00486121
0.00524021
0.00658194
0.00994855
0.0159417
0.0227294
0.0238094
4.72316e-07
4.71043e-07
4.69928e-07
4.68305e-07
4.66577e-07
4.62802e-07
4.63397e-07
4.64881e-07
4.66689e-07
4.68471e-07
4.67182e-07
4.68439e-07
4.70709e-07
4.77691e-07
4.71633e-07
4.62625e-07
4.59056e-07
4.64559e-07
4.72806e-07
4.73402e-07
4.61651e-07
4.63449e-07
4.618e-07
4.39405e-07
4.41117e-07
4.15642e-07
3.73539e-07
3.87708e-07
7.0406e-07
5.36524e-06
5.45268e-05
0.000279227
0.000585298
0.00105591
0.00207913
0.00296691
0.00357766
0.00396824
0.00410684
0.00433634
0.00474926
0.00508756
0.00493684
0.00446545
0.00421184
0.00458855
0.00497785
0.0048437
0.0042586
0.00404578
0.00496629
0.0058945
0.00600284
0.00528198
0.00448988
0.00440053
0.00574086
0.00641464
0.00617776
0.00572592
0.00569769
0.00595512
0.005904
0.00540777
0.00443914
0.00312192
0.0022044
0.00230131
0.00326859
0.00964554
0.0219927
0.0228466
0.021336
0.0191311
0.0152164
0.0115091
0.0117663
0.0147986
0.0182529
0.0189183
0.0159507
0.0128785
0.0111209
0.0109819
0.0128237
0.0150878
0.0134566
0.0102101
0.00742227
0.0107007
0.0210933
0.0251834
0.0138559
0.0113882
0.0130642
0.00940583
0.00408634
0.00318204
0.00351113
0.00465992
0.00748746
0.0134457
0.0208628
0.0245992
4.71512e-07
4.71049e-07
4.69859e-07
4.68311e-07
4.68344e-07
4.64382e-07
4.65783e-07
4.66106e-07
4.67586e-07
4.69131e-07
4.68923e-07
4.6934e-07
4.68081e-07
4.7017e-07
4.64184e-07
4.57592e-07
4.57351e-07
4.63727e-07
4.72237e-07
4.72678e-07
4.62695e-07
4.64731e-07
4.60406e-07
4.44664e-07
4.48598e-07
4.47325e-07
4.28809e-07
4.56096e-07
8.06983e-07
6.17999e-06
6.30455e-05
0.00033092
0.0007125
0.00126032
0.00244141
0.00345104
0.00413639
0.00457707
0.00477648
0.00500585
0.0054284
0.005747
0.00562522
0.00513894
0.00487769
0.0052514
0.00567717
0.00557233
0.00490084
0.00466993
0.00566476
0.00671929
0.00684912
0.0060751
0.00514987
0.00500175
0.00645239
0.00714809
0.0068469
0.00632687
0.00628435
0.00653548
0.00637704
0.00568824
0.0047882
0.0036866
0.00262224
0.00286827
0.00495666
0.0185984
0.0282629
0.0277252
0.0248985
0.0234833
0.0194468
0.0143386
0.0120712
0.0115348
0.0148485
0.0154913
0.0136434
0.0107035
0.00792286
0.00715174
0.0103177
0.0155991
0.0148536
0.0128743
0.00882937
0.0115739
0.0186033
0.0218257
0.0116335
0.00873432
0.0101682
0.00921063
0.00377723
0.00605249
0.0080391
0.00518606
0.00585185
0.0111988
0.0180438
0.0226395
4.71862e-07
4.70616e-07
4.69728e-07
4.67712e-07
4.65177e-07
4.61824e-07
4.62424e-07
4.6403e-07
4.66059e-07
4.68005e-07
4.66305e-07
4.67764e-07
4.69976e-07
4.77547e-07
4.72163e-07
4.64428e-07
4.58919e-07
4.63563e-07
4.71338e-07
4.72329e-07
4.60737e-07
4.62834e-07
4.61414e-07
4.41884e-07
4.50837e-07
4.65373e-07
4.69986e-07
5.09168e-07
8.88503e-07
6.88913e-06
7.04193e-05
0.000377767
0.000834604
0.00144612
0.0027582
0.00386417
0.00460919
0.00509525
0.00535054
0.00556637
0.00596262
0.00625165
0.00616306
0.00569101
0.0054303
0.00577732
0.00623096
0.00617092
0.00543595
0.00518264
0.00622607
0.00738234
0.0075267
0.00672711
0.00567561
0.00545597
0.00700292
0.00769
0.0073215
0.00674847
0.00668779
0.0069016
0.00658445
0.00580978
0.0051492
0.00419066
0.00309996
0.00357894
0.012698
0.0269449
0.0347772
0.0348784
0.0325186
0.030796
0.0259451
0.0225081
0.0173426
0.0110459
0.0122256
0.0126189
0.010976
0.00875674
0.00677475
0.00667234
0.011253
0.0150609
0.0137109
0.0126985
0.00907879
0.0103567
0.0141966
0.0168461
0.0104754
0.00707643
0.00728515
0.0077116
0.00715404
0.0149382
0.0226752
0.0208278
0.0123394
0.0104246
0.0153728
0.0189035
4.70862e-07
4.70605e-07
4.69608e-07
4.68503e-07
4.68337e-07
4.64993e-07
4.65639e-07
4.65219e-07
4.66662e-07
4.6836e-07
4.68678e-07
4.68642e-07
4.66663e-07
4.66907e-07
4.59811e-07
4.53583e-07
4.55401e-07
4.61899e-07
4.70385e-07
4.70944e-07
4.61849e-07
4.6353e-07
4.61101e-07
4.4166e-07
4.53082e-07
4.75336e-07
5.00035e-07
5.52602e-07
9.57241e-07
7.50572e-06
7.70347e-05
0.000420233
0.000952432
0.00161857
0.00304179
0.00422291
0.00501606
0.00554142
0.00584304
0.0060532
0.00638143
0.00662523
0.00657594
0.00614584
0.00589002
0.0061896
0.00667571
0.00666556
0.0058838
0.00560952
0.00668124
0.00792914
0.00807382
0.00726769
0.00610828
0.00581916
0.00745392
0.00808918
0.0076678
0.00703628
0.00695098
0.00705616
0.00662023
0.00611529
0.00541298
0.00468165
0.00473832
0.0149372
0.0261407
0.0363876
0.0423049
0.0431305
0.042805
0.0415021
0.0361887
0.0340131
0.0316927
0.0180355
0.0106151
0.00985276
0.00861597
0.0084414
0.011634
0.016703
0.0187598
0.0193766
0.0176954
0.0133395
0.00383268
0.00262212
0.00706255
0.0123857
0.0092187
0.00609784
0.00567717
0.0059694
0.00959229
0.0225374
0.0297219
0.0248512
0.0206289
0.0138615
0.0142405
0.0168866
4.71113e-07
4.69769e-07
4.68322e-07
4.65445e-07
4.62652e-07
4.58869e-07
4.60119e-07
4.62381e-07
4.64595e-07
4.67166e-07
4.6536e-07
4.66638e-07
4.68942e-07
4.76658e-07
4.72492e-07
4.6608e-07
4.58327e-07
4.61921e-07
4.70429e-07
4.71019e-07
4.59438e-07
4.63364e-07
4.6053e-07
4.43343e-07
4.54257e-07
4.8057e-07
5.20717e-07
5.83911e-07
1.00918e-06
8.03107e-06
8.25758e-05
0.000457667
0.00106244
0.00177176
0.00328042
0.00451491
0.00534374
0.00590892
0.00624768
0.00645202
0.00668848
0.00687669
0.00687067
0.00649601
0.00625047
0.00648961
0.00700941
0.0070542
0.00624602
0.00593138
0.00702297
0.00835099
0.00848473
0.00770332
0.00644783
0.00608898
0.00780181
0.00830507
0.00785063
0.00717367
0.00704269
0.00700408
0.00691492
0.00633022
0.00550643
0.00513358
0.0138305
0.0260507
0.0383036
0.0460232
0.0497033
0.0516221
0.0538518
0.0534591
0.0459351
0.0451061
0.0464095
0.0330048
0.0139552
0.00890257
0.00844297
0.0122054
0.0224481
0.0266974
0.0273954
0.0267036
0.0246215
0.0169789
0.0048579
0.00322219
0.00612874
0.0095179
0.00914312
0.00957433
0.00777148
0.00608429
0.0107429
0.0257591
0.0329709
0.0246637
0.0210622
0.0177816
0.0150983
0.0164612
4.69931e-07
4.69889e-07
4.70008e-07
4.69191e-07
4.68375e-07
4.6614e-07
4.65818e-07
4.64119e-07
4.65078e-07
4.66796e-07
4.67552e-07
4.67065e-07
4.64016e-07
4.62069e-07
4.53932e-07
4.48777e-07
4.52989e-07
4.59847e-07
4.72583e-07
4.70034e-07
4.59201e-07
4.6363e-07
4.6424e-07
4.44943e-07
4.54413e-07
4.83159e-07
5.35574e-07
6.08705e-07
1.0524e-06
8.46845e-06
8.73045e-05
0.000490285
0.00116511
0.00190915
0.00348512
0.0047583
0.00561023
0.00621129
0.00658904
0.00679503
0.0069107
0.00703122
0.00707392
0.0067631
0.00653317
0.00670262
0.00726056
0.00736084
0.00653887
0.00617363
0.00727764
0.00867752
0.00878294
0.00804955
0.0067234
0.0063018
0.00802113
0.00827543
0.00786028
0.00717857
0.00695061
0.00719619
0.00715147
0.00655
0.00579104
0.0137753
0.0242516
0.038886
0.0539383
0.0564379
0.0584003
0.061793
0.0627416
0.0558589
0.0431883
0.0425375
0.0472857
0.0454246
0.0255252
0.0156948
0.0157735
0.023614
0.0339345
0.0365372
0.0347572
0.032636
0.0302256
0.0218269
0.00840785
0.00410222
0.00549298
0.00833073
0.0133201
0.0222572
0.0183711
0.00813995
0.0111752
0.0273549
0.0456633
0.0349264
0.0223788
0.0180544
0.0165266
0.0169006
4.69806e-07
4.68376e-07
4.65949e-07
4.61926e-07
4.59107e-07
4.54728e-07
4.5677e-07
4.59693e-07
4.62391e-07
4.65484e-07
4.6253e-07
4.63687e-07
4.66585e-07
4.75453e-07
4.71639e-07
4.65329e-07
4.56663e-07
4.59513e-07
4.75556e-07
4.76018e-07
4.60211e-07
4.66959e-07
4.73072e-07
4.48326e-07
4.55406e-07
4.86244e-07
5.45977e-07
6.26062e-07
1.08257e-06
8.8185e-06
9.10861e-05
0.000517656
0.00125849
0.00202876
0.0036486
0.00494052
0.00580479
0.00644108
0.0068561
0.00706723
0.00704679
0.00709371
0.00718998
0.00693944
0.00672664
0.00682443
0.00742575
0.00758202
0.00675978
0.00631879
0.00743351
0.00889484
0.00896474
0.00830465
0.00691004
0.00648304
0.00790278
0.00806355
0.00772795
0.00707988
0.00703728
0.00722895
0.00719654
0.00663975
0.0130658
0.0243035
0.0333752
0.0515804
0.0693189
0.0598093
0.0611994
0.0689973
0.065984
0.052685
0.0388188
0.0379241
0.0429947
0.0498988
0.0388181
0.0303259
0.0280681
0.0320626
0.0363985
0.0375088
0.0356718
0.0329771
0.0306336
0.0247488
0.0144421
0.00816713
0.00850191
0.0135692
0.0212536
0.0271601
0.0243943
0.0112452
0.0121013
0.0351821
0.0656016
0.0664258
0.035594
0.0169357
0.014582
0.0136307
4.68748e-07
4.69184e-07
4.69759e-07
4.68813e-07
4.68076e-07
4.66456e-07
4.65112e-07
4.6236e-07
4.63654e-07
4.66247e-07
4.66768e-07
4.65302e-07
4.61097e-07
4.57487e-07
4.47839e-07
4.43392e-07
4.49941e-07
4.60359e-07
5.04077e-07
4.92452e-07
4.6882e-07
4.79553e-07
4.94137e-07
4.56251e-07
4.5867e-07
4.88133e-07
5.52055e-07
6.38e-07
1.10558e-06
9.06666e-06
9.3875e-05
0.000539492
0.00134179
0.00213288
0.00377938
0.00507716
0.00594159
0.00661122
0.0070677
0.00729511
0.00712583
0.00708194
0.0072415
0.00704249
0.00685498
0.0068758
0.00752493
0.00773085
0.00692551
0.0063883
0.00750647
0.00901379
0.00907621
0.00846429
0.00702153
0.00665828
0.0073431
0.00776575
0.00761714
0.00724642
0.0070781
0.0071703
0.00695654
0.00877775
0.0216641
0.0375322
0.0466551
0.0662665
0.0747965
0.0537678
0.0543758
0.0663538
0.0640069
0.0484617
0.0347284
0.0335708
0.0386064
0.0477897
0.0487043
0.0418436
0.0332228
0.0314017
0.0328767
0.0340412
0.0327451
0.0300317
0.0270441
0.0228123
0.0190359
0.0172939
0.0197784
0.0225291
0.0234525
0.0254455
0.0239625
0.0145564
0.0151267
0.0475098
0.0774685
0.0795844
0.0664345
0.0235194
0.00941704
0.0100455
4.68842e-07
4.6653e-07
4.62792e-07
4.57867e-07
4.54669e-07
4.49739e-07
4.5256e-07
4.56822e-07
4.60903e-07
4.64381e-07
4.60224e-07
4.61456e-07
4.65165e-07
4.75708e-07
4.70359e-07
4.6373e-07
4.54842e-07
4.62371e-07
5.74269e-07
5.57967e-07
4.91994e-07
5.02904e-07
5.45824e-07
4.88653e-07
4.65118e-07
4.8961e-07
5.5659e-07
6.47105e-07
1.11754e-06
9.19894e-06
9.54707e-05
0.000555203
0.00141329
0.00222143
0.00387398
0.00515946
0.00601003
0.00671134
0.00721298
0.00746054
0.00714235
0.00697918
0.00722782
0.00706734
0.00690078
0.00684421
0.00754043
0.00780355
0.00702262
0.00636502
0.00748138
0.00893005
0.00902798
0.0085004
0.0070404
0.00660202
0.00670468
0.00756499
0.0076817
0.00730566
0.00695824
0.0068546
0.00646924
0.00963505
0.0259116
0.0490597
0.0600092
0.0774885
0.0724938
0.0480549
0.048005
0.0603669
0.0589337
0.0440815
0.0311631
0.0300302
0.0338399
0.043085
0.0495046
0.0447677
0.0328743
0.0276972
0.0279179
0.0290274
0.028868
0.0260624
0.0212999
0.0172498
0.0156307
0.0190047
0.0214273
0.022678
0.0205641
0.0214931
0.0218427
0.0185393
0.0228491
0.058278
0.0801228
0.0780577
0.0774924
0.0422153
0.00850878
0.00762809
4.6717e-07
4.67464e-07
4.68075e-07
4.67436e-07
4.67358e-07
4.66016e-07
4.65419e-07
4.63383e-07
4.63067e-07
4.64967e-07
4.65687e-07
4.64197e-07
4.61002e-07
4.58523e-07
4.47479e-07
4.42006e-07
4.48349e-07
4.66217e-07
7.82388e-07
7.88658e-07
6.27356e-07
6.54263e-07
8.74746e-07
7.49565e-07
5.29579e-07
4.96436e-07
5.6126e-07
6.54628e-07
1.12248e-06
9.20328e-06
9.58195e-05
0.000567969
0.00149917
0.00233296
0.00397252
0.0052212
0.00602773
0.00675805
0.00735309
0.00764968
0.00711187
0.00671645
0.00710303
0.00702524
0.00687584
0.00668263
0.00742422
0.00778979
0.0070892
0.0062349
0.00734506
0.00837188
0.00875386
0.00841403
0.00697164
0.00613248
0.00602924
0.00699183
0.00755312
0.00716259
0.00657305
0.00619473
0.00674751
0.0113375
0.0297063
0.0588578
0.075333
0.0839638
0.0649007
0.0446127
0.0442508
0.0523826
0.0513169
0.037664
0.025477
0.0242186
0.0276362
0.0364571
0.0430406
0.0408752
0.030221
0.0229513
0.0221288
0.0232739
0.0247372
0.0198598
0.015499
0.0139702
0.0128225
0.0128623
0.0149042
0.0174395
0.0170233
0.0175329
0.0196001
0.0229158
0.0366039
0.0693043
0.0775018
0.0692696
0.0745316
0.061576
0.0146403
0.00465495
4.65648e-07
4.6335e-07
4.59805e-07
4.54178e-07
4.51191e-07
4.46618e-07
4.49663e-07
4.53794e-07
4.56681e-07
4.58776e-07
4.56527e-07
4.58305e-07
4.62569e-07
4.73447e-07
4.7077e-07
4.65246e-07
4.56879e-07
5.25654e-07
1.24945e-06
1.43617e-06
1.12299e-06
1.29525e-06
1.91211e-06
1.58911e-06
8.07967e-07
5.2132e-07
5.63385e-07
6.58993e-07
1.11606e-06
9.02646e-06
9.41827e-05
0.00057058
0.00157468
0.00245636
0.00400501
0.00513671
0.00581658
0.00651716
0.00731287
0.00768749
0.00688663
0.00599143
0.00669503
0.00676157
0.00651539
0.00614737
0.00684524
0.00744123
0.00701982
0.00589425
0.00562451
0.00679148
0.00795217
0.00774707
0.0069138
0.00529797
0.00441155
0.00563475
0.00672137
0.00666719
0.00651491
0.00857865
0.010291
0.0138797
0.0296338
0.0557383
0.0741737
0.0737438
0.0550863
0.0359384
0.034682
0.0403967
0.0405767
0.0286733
0.0172477
0.0151101
0.0183526
0.0258431
0.0301266
0.0280864
0.0200733
0.0146636
0.0138373
0.0150557
0.0176922
0.0151934
0.010866
0.00967836
0.00967734
0.00975189
0.0102165
0.0106686
0.00973705
0.0105526
0.0138793
0.021862
0.0497002
0.074051
0.0710955
0.0625276
0.0644207
0.0635543
0.0424851
0.00714324
4.59379e-07
4.61076e-07
4.63194e-07
4.63439e-07
4.64413e-07
4.64484e-07
4.62692e-07
4.58594e-07
4.57914e-07
4.60225e-07
4.5996e-07
4.56583e-07
4.53762e-07
4.54001e-07
4.48059e-07
4.4151e-07
4.48246e-07
7.00763e-07
1.8341e-06
2.35852e-06
2.0386e-06
3.01063e-06
6.39958e-06
4.19089e-06
1.47912e-06
5.8665e-07
5.66674e-07
6.62649e-07
1.0924e-06
8.59611e-06
8.97119e-05
0.000555898
0.00160777
0.00255537
0.0039816
0.00493936
0.0053904
0.00600642
0.00704887
0.00757421
0.00639634
0.00496652
0.00589844
0.0063732
0.00581086
0.00530662
0.00496174
0.00642679
0.00650541
0.00526806
0.00402844
0.00518008
0.00722122
0.00722943
0.0061906
0.00371384
0.00223986
0.00301578
0.00459688
0.00898539
0.0158084
0.0159686
0.016838
0.0177567
0.0280969
0.0463998
0.0613998
0.0593499
0.0436494
0.0234299
0.0211287
0.0265421
0.026972
0.0199562
0.0104874
0.00745517
0.00903139
0.0143872
0.017636
0.017212
0.012039
0.00698507
0.00588783
0.00697898
0.0112572
0.0151369
0.0131763
0.00924974
0.00830324
0.00841307
0.00821923
0.00688598
0.00452888
0.00520301
0.00889236
0.0197461
0.0510567
0.070577
0.0604249
0.0544334
0.056679
0.0574699
0.0544013
0.0351841
4.5238e-07
4.49223e-07
4.46375e-07
4.41904e-07
4.40194e-07
4.3625e-07
4.40451e-07
4.44948e-07
4.47841e-07
4.53537e-07
4.49328e-07
4.51636e-07
4.62138e-07
4.9307e-07
4.87324e-07
4.64428e-07
4.64122e-07
1.03062e-06
2.34336e-06
4.02377e-06
4.24747e-06
1.02819e-05
1.94214e-05
9.27058e-06
2.70903e-06
7.02566e-07
5.74649e-07
6.61966e-07
1.05152e-06
7.89709e-06
8.22059e-05
0.00052021
0.00158902
0.00262093
0.00391451
0.00466263
0.00477294
0.00519503
0.00649352
0.00730933
0.00537309
0.00320387
0.00447881
0.00591294
0.00463978
0.00315377
0.00316506
0.00549114
0.00580276
0.00439874
0.00238264
0.00306541
0.00602863
0.00589732
0.00434248
0.0022457
0.00105407
0.00176049
0.0107288
0.0318715
0.0310789
0.024008
0.0236271
0.0225189
0.0223307
0.0297684
0.042707
0.0435978
0.0305445
0.0145992
0.0118486
0.0158522
0.0165256
0.0123155
0.00675647
0.00349321
0.00355762
0.00597645
0.00764277
0.00734109
0.00560286
0.00276021
0.0019019
0.00243977
0.00678401
0.0123064
0.0159106
0.0156321
0.0144005
0.0141563
0.0141959
0.0108398
0.0054767
0.0027235
0.00533998
0.0150652
0.0443313
0.0610069
0.0511778
0.0440572
0.045913
0.0479134
0.051051
0.0523875
4.39567e-07
4.43019e-07
4.48311e-07
4.51688e-07
4.54986e-07
4.56578e-07
4.55e-07
4.62993e-07
4.92313e-07
5.17919e-07
5.00441e-07
4.86683e-07
4.96621e-07
5.29308e-07
5.26254e-07
4.92844e-07
4.95014e-07
1.21524e-06
2.54896e-06
5.54708e-06
1.1389e-05
2.39696e-05
2.74666e-05
1.39533e-05
4.45406e-06
9.0917e-07
5.86986e-07
6.59475e-07
9.86364e-07
6.90458e-06
7.16103e-05
0.000459846
0.00148279
0.00261232
0.00379536
0.00429403
0.00399424
0.00416686
0.00575118
0.00683592
0.00427016
0.00188124
0.00316514
0.00520137
0.00423409
0.00158046
0.00160247
0.00400064
0.00450931
0.00254771
0.00116419
0.00116852
0.00300107
0.00382582
0.00264123
0.00109943
0.000630161
0.00336622
0.0140881
0.0333984
0.0330775
0.0272402
0.0270729
0.0247675
0.0137092
0.0178527
0.0287976
0.0282247
0.01965
0.0076262
0.00645682
0.00898312
0.00988322
0.00741102
0.00585065
0.00432305
0.00192655
0.00158657
0.00181465
0.00176409
0.00136312
0.000889923
0.000775756
0.0012374
0.00342365
0.00787413
0.0114488
0.0112901
0.0099931
0.00889978
0.00864938
0.00884416
0.00684604
0.00261012
0.00268288
0.0098982
0.0408349
0.0506217
0.0416475
0.0329491
0.0343592
0.0372894
0.045012
0.0518523
4.31249e-07
4.30054e-07
4.30064e-07
4.29422e-07
4.30713e-07
4.27642e-07
4.29964e-07
4.92358e-07
5.61189e-07
5.70121e-07
5.51504e-07
5.33451e-07
5.37252e-07
5.53596e-07
5.46582e-07
5.09812e-07
6.18836e-07
1.25857e-06
2.23482e-06
7.6938e-06
1.76692e-05
2.43262e-05
2.64804e-05
2.1474e-05
6.26014e-06
1.37612e-06
6.19166e-07
6.6096e-07
9.2145e-07
5.54044e-06
5.68655e-05
0.000374217
0.00124266
0.00240896
0.00351095
0.00372132
0.00297747
0.00273123
0.00492681
0.00615533
0.00336402
0.00130302
0.0019614
0.00425818
0.00289667
0.00107069
0.000903584
0.00197923
0.00239069
0.00142986
0.000861228
0.000768994
0.000963543
0.00142596
0.000976379
0.000438167
0.000396583
0.000891404
0.00575385
0.019376
0.021652
0.0191419
0.0187268
0.0155649
0.0063259
0.00881438
0.0173699
0.0168299
0.0113313
0.00318572
0.00300466
0.00574714
0.00744561
0.00544137
0.00489214
0.0035612
0.00116787
0.000164772
8.01636e-05
8.65047e-05
9.19262e-05
0.00010911
0.000212722
0.000478342
0.00118828
0.00380216
0.0065877
0.00708704
0.00621784
0.00471135
0.00407588
0.00468678
0.00474752
0.00209837
0.0016822
0.00777571
0.036513
0.0391166
0.032007
0.0245381
0.0251776
0.028506
0.0382044
0.039802
4.1975e-07
4.25396e-07
4.34293e-07
4.40515e-07
4.4422e-07
4.45896e-07
4.81394e-07
6.16171e-07
6.29144e-07
5.80895e-07
5.89378e-07
5.87297e-07
5.83165e-07
5.2955e-07
5.52058e-07
5.74751e-07
7.15247e-07
7.47375e-07
1.00648e-06
4.74191e-06
1.40664e-05
1.85644e-05
1.78143e-05
1.74901e-05
5.46954e-06
1.5452e-06
5.61879e-07
5.64646e-07
6.99747e-07
3.38065e-06
3.34613e-05
0.00023153
0.000805518
0.00173536
0.00273652
0.00282743
0.00182453
0.00127784
0.00386386
0.00519397
0.00235475
0.00105808
0.00125489
0.00284605
0.00177734
0.000804393
0.000728434
0.000946133
0.00119743
0.000943009
0.000747845
0.000682852
0.000638025
0.000571803
0.000425594
0.000261792
0.000156945
0.000176499
0.00131456
0.00831478
0.011773
0.0100992
0.0101073
0.00724021
0.00264538
0.00392717
0.0094096
0.00917447
0.00528327
0.000926584
0.000761218
0.0013394
0.00293634
0.00317808
0.00245954
0.00153183
0.00039257
4.3517e-05
4.59114e-06
2.78768e-06
5.08016e-06
1.96472e-05
5.5688e-05
0.000122232
0.000404283
0.00142272
0.00310308
0.00361629
0.00318691
0.00247474
0.0019507
0.00180729
0.00222305
0.00202486
0.0027115
0.00928495
0.0318625
0.032484
0.0264814
0.019356
0.0202472
0.0232067
0.0320534
0.034736
4.77558e-07
4.87131e-07
5.08986e-07
5.3426e-07
5.56448e-07
5.6321e-07
5.74128e-07
5.15905e-07
4.23947e-07
4.16261e-07
4.20263e-07
4.20298e-07
3.89035e-07
3.99903e-07
6.29174e-07
7.29512e-07
5.27458e-07
2.81528e-07
2.07442e-07
3.59191e-07
9.01822e-07
1.07793e-06
6.52635e-07
6.4918e-07
3.37383e-07
3.09394e-07
5.82112e-07
6.42361e-07
7.22875e-07
8.29489e-07
1.19354e-06
3.59444e-06
1.61052e-05
7.57025e-05
0.000297587
0.000503099
0.000328095
0.000222896
0.000478931
0.000911169
0.00076741
0.000564494
0.000573118
0.000704479
0.000612377
0.000457294
0.000441472
0.000479138
0.0005475
0.000524139
0.000478774
0.000475606
0.000460033
0.000428196
0.000359439
0.000252552
0.00013803
0.000101311
0.000104412
0.000153018
0.000249576
0.00024236
0.000206872
0.000166591
0.000162068
0.000197211
0.000355436
0.000585658
0.000359083
8.56531e-05
3.81717e-05
3.46509e-05
3.92564e-05
5.25408e-05
5.01287e-05
3.09954e-05
1.28073e-05
3.96652e-06
1.67224e-06
1.28408e-06
1.30956e-06
2.23845e-06
5.81153e-06
1.75168e-05
5.32401e-05
0.000122922
0.000260503
0.000498897
0.000712432
0.000699579
0.000438457
0.000203929
0.000291422
0.000575348
0.00208477
0.00713756
0.0128325
0.0132891
0.0118601
0.0103468
0.0112494
0.0116357
0.0119935
0.0134362
3.58828e-07
3.19858e-07
2.94966e-07
3.71018e-07
5.18568e-07
4.86282e-07
3.54296e-07
1.97173e-07
1.44115e-07
1.45418e-07
1.87718e-07
2.16712e-07
2.37482e-07
2.64734e-07
4.143e-07
6.37073e-07
7.35689e-07
8.05249e-07
8.36004e-07
8.21119e-07
8.40883e-07
8.84792e-07
9.39936e-07
1.01572e-06
1.01233e-06
1.00294e-06
9.94836e-07
9.69745e-07
9.66088e-07
9.66388e-07
9.75297e-07
1.00579e-06
1.12068e-06
1.474e-06
1.26398e-06
1.27179e-06
1.14243e-06
1.05396e-06
1.21643e-06
2.48803e-06
3.84445e-06
4.30693e-06
4.78379e-06
5.78631e-06
6.08696e-06
5.99193e-06
5.89575e-06
5.73524e-06
5.77077e-06
6.15673e-06
7.13696e-06
8.99608e-06
9.49557e-06
9.2055e-06
8.98192e-06
8.74275e-06
8.67046e-06
9.22102e-06
1.0404e-05
1.07254e-05
1.10013e-05
1.33606e-05
2.10976e-05
3.53315e-05
4.25809e-05
4.10537e-05
3.60167e-05
3.37819e-05
2.9842e-05
3.47641e-05
4.94103e-05
4.92945e-05
4.29837e-05
3.17348e-05
2.14509e-05
1.91555e-05
2.03935e-05
2.61896e-05
3.14644e-05
2.80462e-05
2.34677e-05
2.64384e-05
4.5442e-05
9.16444e-05
0.000138921
0.000150397
0.000148844
0.000140709
0.000127298
0.000117364
9.61395e-05
7.27996e-05
9.77017e-05
0.000312465
0.0011225
0.00306598
0.00383778
0.00418378
0.00419082
0.00393784
0.00439975
0.00517207
0.00561561
0.00552749
1.16646e-07
1.55121e-07
2.11084e-07
3.19066e-07
5.29261e-07
5.94471e-07
6.18345e-07
6.48481e-07
6.75082e-07
7.17794e-07
7.77468e-07
8.48775e-07
9.21378e-07
9.69459e-07
9.57732e-07
9.28019e-07
9.15487e-07
9.00299e-07
8.90587e-07
8.83523e-07
8.8179e-07
8.78296e-07
8.81113e-07
8.79089e-07
8.74698e-07
8.60205e-07
8.40214e-07
7.75121e-07
6.93616e-07
6.11495e-07
5.36077e-07
4.47127e-07
3.80251e-07
3.10285e-07
3.1355e-07
4.51635e-07
7.8269e-07
1.3809e-06
2.03801e-06
3.03379e-06
4.8165e-06
7.70564e-06
8.70452e-06
8.47413e-06
8.99744e-06
1.01047e-05
1.16505e-05
1.23153e-05
1.39218e-05
1.79567e-05
2.44778e-05
3.50702e-05
3.80062e-05
3.76478e-05
3.92669e-05
4.45193e-05
5.99095e-05
9.15332e-05
0.00012401
0.000144324
0.000170814
0.000219965
0.00030662
0.000350163
0.000347753
0.000316731
0.000251183
0.000240442
0.000254821
0.000279992
0.000274517
0.00024015
0.000166545
0.000123315
0.000117522
0.00012205
0.000142859
0.000184787
0.000241226
0.000282118
0.000315059
0.000349516
0.000375536
0.000387579
0.000389188
0.000384647
0.000372205
0.000354846
0.000332035
0.00029886
0.000251695
0.000173231
0.00015509
0.000253356
0.000675062
0.00162357
0.00178241
0.00174811
0.0014586
0.00100592
0.000740454
0.000685774
0.000762987
0.000777496
7.57286e-07
8.36937e-07
9.25753e-07
9.18077e-07
8.91266e-07
8.61879e-07
8.54074e-07
8.63562e-07
8.8787e-07
8.83184e-07
8.68392e-07
8.59869e-07
8.61598e-07
8.51917e-07
8.38486e-07
8.08942e-07
7.46928e-07
6.58544e-07
6.21677e-07
5.98225e-07
6.00874e-07
6.23503e-07
6.317e-07
6.2977e-07
6.26793e-07
6.52711e-07
7.17526e-07
8.67065e-07
1.15638e-06
1.62205e-06
2.24834e-06
3.07986e-06
4.52846e-06
7.3867e-06
1.36062e-05
2.61568e-05
4.59214e-05
7.39378e-05
0.000103181
0.000125803
0.000147514
0.000164873
0.000158967
0.000146375
0.000129051
0.000124599
0.00012366
0.000125605
0.0001343
0.00015499
0.000183898
0.000220489
0.000224265
0.000222721
0.000230953
0.000266418
0.000336417
0.000403393
0.0004416
0.000479658
0.00051486
0.00053436
0.000541597
0.000541784
0.000537094
0.000526956
0.00051422
0.000498064
0.000469519
0.000405462
0.000332795
0.000314935
0.000322515
0.000353587
0.000389948
0.000408209
0.000425254
0.000437711
0.000443218
0.000448371
0.000452301
0.000451821
0.000442446
0.000425522
0.000409972
0.000399977
0.000392919
0.00038712
0.000373407
0.000355561
0.000327164
0.000274185
0.000210939
0.000242443
0.000453649
0.000726019
0.000736656
0.000666743
0.000501483
0.00030491
0.000214321
0.000193634
0.000197501
0.000214792
9.58563e-07
9.6693e-07
9.83627e-07
9.58671e-07
9.39804e-07
9.23818e-07
8.94095e-07
8.24168e-07
7.70694e-07
7.4576e-07
7.4332e-07
7.80179e-07
7.95032e-07
8.33326e-07