/*--------------------------------*- C++ -*----------------------------------*\
| =========                 |                                                 |
| \\      /  F ield         | OpenFOAM: The Open Source CFD Toolbox           |
|  \\    /   O peration     | Version:  v1912                                 |
|   \\  /    A nd           | Website:  www.openfoam.com                      |
|    \\/     M anipulation  |                                                 |
\*---------------------------------------------------------------------------*/
FoamFile
{
    version     2.0;
    format      ascii;
    class       surfaceScalarField;
    location    "90";
    object      alphaPhi0.water;
}
// * * * * * * * * * * * * * * * * * * * * * * * * * * * * * * * * * * * * * //

dimensions      [0 3 -1 0 0 0 0];
oriented        oriented;


internalField   nonuniform List<scalar> 
28285
(
-0.105119
-0.000523876
-0.104274
-0.000844841
-0.103078
-0.00119608
-0.101695
-0.00138297
-0.100147
-0.00154814
-0.0984158
-0.00173118
-0.0966027
-0.00181315
-0.0948051
-0.00179756
-0.0930256
-0.00177947
-0.0913311
-0.00169456
-0.0897245
-0.00160662
-0.0882268
-0.00149764
-0.0868525
-0.00137433
-0.0856207
-0.00123179
-0.0845594
-0.00106131
-0.0836644
-0.000895013
-0.0829227
-0.000741649
-0.0825385
-0.000384252
-0.0825952
5.67615e-05
-0.0828154
0.000220146
-0.0829941
0.000178741
-0.0830117
1.7538e-05
-0.0827201
-0.000291596
-0.082056
-0.000664047
-0.0806373
-0.00141877
-0.0782145
-0.00242275
-0.075183
-0.00303156
-0.0722
-0.00298292
-0.0695453
-0.0026547
-0.067232
-0.00231337
-0.0652089
-0.00202307
-0.0633921
-0.00181676
-0.0617016
-0.00169051
-0.0600442
-0.00165745
-0.0583778
-0.00166642
-0.0566998
-0.00167792
-0.0550336
-0.00166624
-0.0533964
-0.00163721
-0.0518444
-0.00155198
-0.0503962
-0.0014482
-0.0490595
-0.00133666
-0.0478401
-0.00121939
-0.0467467
-0.00109347
-0.0457788
-0.000967826
-0.0448533
-0.000925578
-0.0438324
-0.00102088
-0.0425116
-0.0013208
-0.0405696
-0.00194196
-0.0378225
-0.00274713
-0.034551
-0.00327149
-0.0312053
-0.00334573
-0.0280635
-0.00314177
-0.025118
-0.00294546
-0.0224766
-0.00264147
-0.0201944
-0.0022822
-0.0183223
-0.00187205
-0.0169016
-0.00142071
-0.0158137
-0.00108788
-0.014985
-0.000828735
-0.0143657
-0.000619305
-0.0139305
-0.000435174
-0.0136023
-0.000328216
-0.0131918
-0.000410522
-0.0125468
-0.000644971
-0.01156
-0.000986761
-0.0103309
-0.00122917
-0.00898852
-0.00134234
-0.00725718
-0.00173134
-0.00498984
-0.00226735
-0.00287636
-0.00211348
-0.000317215
-0.00255914
0.00246366
-0.00278088
0.00435181
-0.00188815
0.00730691
-0.00295521
0.0118679
-0.00456231
0.0128563
-0.000994602
0.00981079
0.00304419
0.00387498
0.00593498
-0.00512166
0.00899568
-0.00853087
0.0034092
-0.000217762
-0.00831311
0.00976954
-0.0099873
0.0113198
-0.00155024
0.00354552
0.00777426
-0.00181829
0.00536381
-0.00025309
-0.0015652
0.00378879
-0.00404188
0.00795893
-0.00417015
0.0112131
-0.00325415
0.0132509
-0.00203778
0.0143715
-0.00112068
0.0150219
-0.000650396
0.0154362
-0.000414252
0.0157649
-0.0003287
0.0162145
-0.00044965
0.0162895
-7.49235e-05
0.0161452
0.000144222
0.0161711
-2.58198e-05
0.0159476
0.000223431
0.0130592
0.00288846
0.01205
0.00100918
0.0156013
-0.0035513
0.0185903
-0.00298897
0.0177411
0.000849122
0.0157869
0.00195424
0.0115392
0.00424774
0.00831023
0.00322894
0.00913425
-0.000824021
0.0106065
-0.00147228
0.0127496
-0.00214304
0.0112437
0.00150587
0.00904033
0.00220337
0.00892754
0.000112794
0.00959357
-0.000666033
0.011135
-0.00154143
0.0112547
-0.000119658
0.00919904
0.00205562
0.00665451
0.00254453
0.00556183
0.00109267
0.00486899
0.000692846
0.00411621
0.000752776
0.00412098
-4.7663e-06
0.00521772
-0.00109674
0.0066881
-0.00147038
0.00628707
0.000401027
0.0041375
0.00214957
0.00253987
0.00159763
0.00225058
0.000289294
0.00189566
0.000354919
0.00112
0.000775662
0.000557084
0.000562916
0.000607927
-5.08435e-05
0.00107964
-0.000471717
0.000128058
0.000951585
-0.105033
-0.00105622
-0.10417
-0.00170781
-0.102974
-0.00239146
-0.101585
-0.00277251
-0.100029
-0.00310391
-0.0983034
-0.00345682
-0.0964895
-0.00362705
-0.0946779
-0.00360916
-0.0928893
-0.00356813
-0.0911815
-0.00340237
-0.0895678
-0.00322026
-0.0880642
-0.00300125
-0.0866879
-0.00275063
-0.085454
-0.00246567
-0.0843924
-0.00212295
-0.0834999
-0.00178748
-0.0827677
-0.0014739
-0.0824111
-0.000740844
-0.0824978
0.000143488
-0.0826848
0.000407191
-0.08273
0.000223856
-0.0825535
-0.000158884
-0.0820406
-0.000804537
-0.0808615
-0.00184318
-0.0786688
-0.00361141
-0.0756682
-0.00542337
-0.0724946
-0.00620512
-0.0696196
-0.00585796
-0.0671664
-0.00510793
-0.0651506
-0.00432914
-0.0635216
-0.00365207
-0.0621384
-0.00319994
-0.0608607
-0.00296825
-0.0595581
-0.00296002
-0.058135
-0.00308954
-0.0565614
-0.00325148
-0.0549163
-0.00331135
-0.0532969
-0.00325666
-0.0517435
-0.00310532
-0.0502975
-0.00289421
-0.0489688
-0.00266535
-0.0477526
-0.0024356
-0.0466296
-0.00221652
-0.0455854
-0.00201201
-0.0444576
-0.00205336
-0.0430811
-0.00239737
-0.0412909
-0.00311107
-0.038985
-0.00424785
-0.03628
-0.00545207
-0.0334502
-0.00610135
-0.0306541
-0.00614181
-0.0279806
-0.00581521
-0.0254601
-0.00546602
-0.0231701
-0.00493146
-0.0211527
-0.00429955
-0.0194276
-0.00359717
-0.0179905
-0.00285781
-0.0167462
-0.00233222
-0.0156533
-0.00192162
-0.0146768
-0.00159581
-0.0138193
-0.00129262
-0.0130231
-0.00112448
-0.0122118
-0.00122179
-0.0113323
-0.00152446
-0.0103157
-0.00200337
-0.0091014
-0.00244349
-0.00771772
-0.00272602
-0.00612309
-0.00332597
-0.00406508
-0.00432536
-0.00181082
-0.00436773
0.000907035
-0.005277
0.0038761
-0.00574994
0.00617784
-0.0041899
0.00899892
-0.00577632
0.0121561
-0.00771972
0.0113824
-0.000231733
0.00702419
0.00737471
0.000347496
0.0125871
-0.00906483
0.0183985
-0.0126608
0.00700514
-0.00452157
-0.0164524
0.00327948
-0.0177884
0.00359887
-0.00186963
-0.00170516
0.0130783
-0.00420791
0.00786656
-0.00193212
-0.00384098
0.00185768
-0.00783168
0.00561444
-0.00792691
0.00800138
-0.00564109
0.00925738
-0.00329378
0.0102795
-0.00214284
0.0113093
-0.00168018
0.0123424
-0.00144736
0.013368
-0.00135429
0.0144527
-0.00153435
0.0151258
-0.000748023
0.0154381
-0.00016806
0.0158809
-0.000468619
0.0158277
0.00027667
0.0142364
0.0044797
0.013998
0.00124765
0.0168961
-0.00644558
0.0203657
-0.00645621
0.0200805
0.00113457
0.0176679
0.00436684
0.0130118
0.00890384
0.010441
0.0057998
0.0117124
-0.00209548
0.0125959
-0.00235576
0.013318
-0.00286512
0.0110197
0.00380419
0.00825763
0.00496543
0.00669645
0.00167397
0.00666958
-0.00063917
0.00774787
-0.00261971
0.00776319
-0.000134981
0.00689595
0.00292286
0.00614141
0.00329907
0.00595164
0.00128244
0.00534995
0.00129454
0.00440516
0.00169756
0.00406412
0.000336278
0.00487998
-0.00191261
0.00615371
-0.00274411
0.00568033
0.000874406
0.00356541
0.00426449
0.00206275
0.00310028
0.00167166
0.000680386
0.000849561
0.00117702
-0.000413009
0.00203823
-0.00119424
0.00134415
-0.00126135
1.62679e-05
-0.000940317
-0.000792753
-0.000764702
-4.75571e-05
-0.105162
-0.00160376
-0.104265
-0.00260476
-0.103056
-0.00360054
-0.101627
-0.0042013
-0.100036
-0.00469472
-0.0983082
-0.0051846
-0.0964783
-0.00545694
-0.0946429
-0.00544461
-0.0928378
-0.00537319
-0.0911198
-0.00512039
-0.0894963
-0.00484379
-0.0879897
-0.00450784
-0.0866083
-0.00413197
-0.0853674
-0.00370661
-0.0843034
-0.00318699
-0.0834109
-0.00267998
-0.0826941
-0.00219061
-0.0823906
-0.00104439
-0.0824745
0.000227436
-0.0824718
0.0004045
-0.082258
1.0017e-05
-0.081808
-0.000608891
-0.0806982
-0.00191437
-0.0784811
-0.0040603
-0.0751621
-0.00693037
-0.0715747
-0.00901074
-0.068328
-0.00945181
-0.0655398
-0.00864623
-0.0632798
-0.00736785
-0.0615508
-0.00605822
-0.0603083
-0.00489454
-0.0594448
-0.00406338
-0.0588166
-0.00359648
-0.0582262
-0.00355043
-0.0574279
-0.00388785
-0.0562624
-0.00441703
-0.0547984
-0.00477534
-0.0532219
-0.00483309
-0.0517061
-0.00462115
-0.0502844
-0.00431593
-0.0489726
-0.00397715
-0.047774
-0.00363414
-0.0466529
-0.00333772
-0.0455961
-0.00306881
-0.0444181
-0.00323131
-0.0430209
-0.00379454
-0.0413399
-0.00479207
-0.0393363
-0.00625145
-0.0370512
-0.00773716
-0.0345983
-0.00855427
-0.0319965
-0.00874365
-0.0293824
-0.00842928
-0.026943
-0.00790545
-0.0247483
-0.00712612
-0.0228101
-0.00623774
-0.021155
-0.00525234
-0.019754
-0.00425881
-0.0185107
-0.00357545
-0.0173983
-0.00303405
-0.0163933
-0.0026008
-0.0154806
-0.0022053
-0.0146208
-0.00198429
-0.0137533
-0.00208935
-0.0128032
-0.00247458
-0.0116977
-0.00310882
-0.010394
-0.00374718
-0.00894748
-0.00417255
-0.00715379
-0.00511967
-0.00479452
-0.00668462
-0.00244723
-0.00671503
0.000212964
-0.00793719
0.0030956
-0.00863258
0.00521619
-0.00631049
0.00787662
-0.00843676
0.0111216
-0.0109648
0.0108882
-6.01012e-06
0.00672334
0.011534
-0.000221704
0.0195266
-0.00987401
0.0280275
-0.0131561
0.0102846
-0.0055808
-0.0240277
0.00189685
-0.025266
0.00288372
-0.0028565
-0.00128595
0.017248
-0.00289827
0.00947888
-0.000444459
-0.0062948
0.00314708
-0.0114232
0.00688895
-0.0116688
0.00984063
-0.00859277
0.011804
-0.00525717
0.0129986
-0.00333746
0.0137843
-0.0024658
0.0143528
-0.00201586
0.0148145
-0.00181607
0.0153168
-0.00203658
0.0156444
-0.00107566
0.0158551
-0.000378789
0.0163068
-0.000920277
0.0163486
0.000234894
0.0147766
0.00605166
0.0143991
0.00162497
0.0167583
-0.00883437
0.0200655
-0.00972444
0.0204526
0.000784502
0.0184701
0.00635891
0.0143395
0.0130344
0.0109085
0.00923079
0.0107472
-0.00193415
0.0115076
-0.00311621
0.0125259
-0.00388345
0.0105549
0.00577521
0.00805353
0.00746681
0.00765331
0.0020742
0.00853844
-0.0015243
0.0100968
-0.00417802
0.0103467
-0.00038488
0.00853456
0.00473496
0.00675862
0.005075
0.00617113
0.00186994
0.00559967
0.001866
0.00472027
0.00257696
0.00443519
0.000621355
0.00541777
-0.00289518
0.00687243
-0.00419877
0.00644012
0.00130672
0.00422658
0.00647803
0.00277037
0.00455649
0.00258948
0.000861275
0.00211933
0.00164716
0.00129715
0.0028604
0.000708282
0.00193302
0.000629209
9.53407e-05
0.00105
-0.00121354
-0.000652375
0.000937671
-0.105299
-0.00219081
-0.104329
-0.00357434
-0.103078
-0.00485187
-0.101589
-0.0056908
-0.09996
-0.00632323
-0.0982502
-0.00689437
-0.0964304
-0.0072768
-0.0945764
-0.00729859
-0.092758
-0.00719154
-0.0910224
-0.00685603
-0.0893819
-0.00648426
-0.087857
-0.00603273
-0.0864739
-0.00551511
-0.0852256
-0.00495496
-0.0841654
-0.00424715
-0.0832813
-0.00356404
-0.0825924
-0.00287949
-0.0823528
-0.00128409
-0.0822632
0.000137885
-0.0819416
8.28798e-05
-0.0814188
-0.000512759
-0.0804167
-0.00161096
-0.0782576
-0.00407354
-0.0748099
-0.00750797
-0.0709027
-0.0108375
-0.0673669
-0.0125465
-0.0642311
-0.0125876
-0.0614877
-0.0113896
-0.0592339
-0.00962171
-0.0575423
-0.00774974
-0.0563885
-0.00604837
-0.0556696
-0.0047823
-0.0553501
-0.00391601
-0.0554166
-0.00348386
-0.0554235
-0.00388099
-0.0550948
-0.00474572
-0.0542949
-0.0055753
-0.0530128
-0.00611514
-0.0515509
-0.00608308
-0.0501808
-0.00568605
-0.0488993
-0.00525857
-0.0476898
-0.00484369
-0.0465196
-0.00450791
-0.0453506
-0.00423776
-0.0439625
-0.00461943
-0.0422752
-0.00548189
-0.0402961
-0.00677117
-0.0381918
-0.0083557
-0.0361089
-0.00982009
-0.0339574
-0.0107058
-0.0316436
-0.0110574
-0.0293259
-0.010747
-0.0271581
-0.0100732
-0.0253037
-0.00898049
-0.0237394
-0.00780212
-0.0223864
-0.00660535
-0.0211801
-0.00546509
-0.0200329
-0.00472259
-0.0189254
-0.00414162
-0.0178196
-0.00370651
-0.0167188
-0.00330619
-0.0156135
-0.00308959
-0.0144924
-0.00321044
-0.0133252
-0.00364175
-0.0120733
-0.00436069
-0.0106348
-0.00518571
-0.00901555
-0.00579181
-0.00720663
-0.00692859
-0.00491536
-0.00897589
-0.00247798
-0.00915241
0.000302598
-0.0107178
0.00325636
-0.0115863
0.0055846
-0.00863869
0.00849508
-0.0113472
0.0117932
-0.0142629
0.0106565
0.00113055
0.00520377
0.0169884
-0.00293916
0.027675
-0.0127944
0.0378595
-0.0153354
0.0128149
-0.0080762
-0.0312872
-0.00136362
-0.0319786
-6.76928e-06
-0.00421335
-0.00320114
0.0204423
-0.00395847
0.0102362
-0.0016144
-0.00863883
0.0019324
-0.01497
0.00547129
-0.0152077
0.00785387
-0.0109753
0.00915801
-0.00656131
0.0101562
-0.00433569
0.0111376
-0.00344717
0.0121025
-0.00298075
0.0130294
-0.00274293
0.0139494
-0.0029566
0.0145592
-0.00168551
0.0149204
-0.000739995
0.0155993
-0.00159912
0.0157118
0.000122392
0.0149916
0.00677186
0.0155028
0.00111246
0.0178256
-0.0112568
0.0205437
-0.0125217
0.0205246
0.000885802
0.0184281
0.00852295
0.0142353
0.0172361
0.0111651
0.0123009
0.0110114
-0.00178039
0.011528
-0.00363289
0.0117086
-0.00406403
0.00906333
0.0084205
0.00660655
0.0099236
0.00606044
0.0026203
0.00692842
-0.00239228
0.0082267
-0.0054763
0.00814168
-0.000299861
0.00716545
0.0057112
0.00621595
0.0060245
0.00554354
0.00254235
0.00472965
0.00267989
0.00379697
0.00350964
0.00359238
0.000825943
0.00469942
-0.00400222
0.00612085
-0.0056202
0.00566112
0.00176645
0.00351905
0.0086201
0.00223153
0.00584401
0.00202001
0.00107279
0.00122668
0.0024405
-9.65325e-05
0.00418362
-0.000998898
0.00283538
-0.00111213
0.000208569
-0.000818357
-0.00150731
-0.00148264
1.19077e-05
-0.105247
-0.00298269
-0.104147
-0.00467388
-0.102742
-0.0062564
-0.101127
-0.00730622
-0.0994784
-0.00797188
-0.0978502
-0.00852258
-0.096164
-0.00896301
-0.0943904
-0.00907223
-0.0926058
-0.00897606
-0.090876
-0.00858585
-0.0892418
-0.00811846
-0.0877031
-0.0075714
-0.0863217
-0.00689657
-0.085059
-0.00621766
-0.0839962
-0.00530991
-0.0831241
-0.00443618
-0.0824688
-0.0035348
-0.082127
-0.00162583
-0.0817007
-0.000288467
-0.0811091
-0.000508704
-0.0800925
-0.00152931
-0.0781548
-0.00354873
-0.0748023
-0.00742598
-0.0708493
-0.011461
-0.0672448
-0.0144421
-0.0641102
-0.0156812
-0.0612845
-0.0154133
-0.0587051
-0.013969
-0.0564507
-0.0118761
-0.054619
-0.00958151
-0.05327
-0.00739733
-0.0524033
-0.00564903
-0.0518739
-0.00444537
-0.0517278
-0.00362999
-0.052161
-0.00344781
-0.0526188
-0.00428792
-0.0526406
-0.00555344
-0.0522198
-0.00653596
-0.051274
-0.0070289
-0.0500361
-0.00692394
-0.0488182
-0.00647644
-0.0476277
-0.00603426
-0.0464422
-0.00569336
-0.045129
-0.00555093
-0.0435603
-0.00618819
-0.0416354
-0.0074068
-0.0395198
-0.00888672
-0.0374384
-0.0104371
-0.0354022
-0.0118563
-0.0332987
-0.0128093
-0.0311518
-0.0132043
-0.0291096
-0.0127893
-0.0272154
-0.0119674
-0.0255245
-0.0106714
-0.0240455
-0.00928116
-0.022792
-0.00785884
-0.021695
-0.00656206
-0.0206554
-0.00576216
-0.0196323
-0.00516478
-0.0186031
-0.00473569
-0.0175592
-0.00435006
-0.0164854
-0.00416341
-0.0153625
-0.00433338
-0.0141631
-0.00484106
-0.0128634
-0.00566045
-0.0113869
-0.00666219
-0.00975276
-0.00742595
-0.00783733
-0.00884401
-0.0053769
-0.0114363
-0.00283737
-0.0116919
-5.10036e-05
-0.0135041
0.00284783
-0.0144851
0.00498084
-0.0107716
0.00741574
-0.0137819
0.0103403
-0.0171875
0.00995068
0.00152002
0.00519417
0.0217474
-0.00342428
0.0363167
-0.0130013
0.0474028
-0.0141772
0.0139696
-0.00793756
-0.0375155
-0.00284152
-0.0370746
-0.00140256
-0.00565232
-0.00351598
0.0225558
-0.00364657
0.0103669
-0.001073
-0.0112121
0.00233633
-0.018379
0.00585827
-0.0187295
0.00863475
-0.0137518
0.0104706
-0.00839716
0.0116992
-0.00556427
0.012604
-0.00435197
0.0132896
-0.0036664
0.0138503
-0.00330359
0.0144024
-0.00350872
0.014858
-0.00214112
0.015235
-0.001117
0.015941
-0.00230506
0.0159979
6.54609e-05
0.0153161
0.00745363
0.0160028
0.000424464
0.0184651
-0.0137362
0.0207438
-0.0152879
0.0212099
0.000485499
0.0195032
0.0103639
0.0151233
0.0216641
0.0116256
0.0157986
0.0113986
-0.00155337
0.0121252
-0.00435951
0.0120987
-0.00403754
0.00907293
0.0114463
0.00650031
0.0124962
0.00644055
0.00268006
0.00783024
-0.00378197
0.00963527
-0.00728133
0.00980793
-0.000472521
0.00811682
0.00740231
0.00661121
0.00753011
0.00600724
0.00314631
0.0053584
0.00332873
0.00449938
0.00436866
0.00419714
0.00112819
0.00519609
-0.00500117
0.00677783
-0.00720194
0.00642818
0.0021161
0.00416878
0.0108795
0.00274528
0.00726751
0.00258448
0.00123358
0.00211698
0.002908
0.00124253
0.00505808
0.000616153
0.00346176
0.000504655
0.000320066
0.000894298
-0.00189695
-0.00145365
0.000865311
-0.104226
-0.00432608
-0.102537
-0.0063632
-0.100749
-0.00804406
-0.0990668
-0.00898869
-0.0975492
-0.0094895
-0.0961717
-0.00990007
-0.094903
-0.0102317
-0.0935738
-0.0104014
-0.0921021
-0.0104477
-0.0905313
-0.0101567
-0.0889922
-0.00965754
-0.0874822
-0.0090814
-0.0861186
-0.00826019
-0.0848528
-0.00748338
-0.083791
-0.00637171
-0.082911
-0.00531623
-0.0822277
-0.00421805
-0.0816309
-0.00222263
-0.0809289
-0.000990467
-0.079882
-0.00155561
-0.077975
-0.00343638
-0.0748111
-0.00671258
-0.0708551
-0.011382
-0.0672155
-0.0151005
-0.0641351
-0.0175225
-0.0614864
-0.0183299
-0.0590718
-0.0178279
-0.0568033
-0.0162376
-0.054728
-0.0139513
-0.0529197
-0.0113898
-0.051446
-0.00887102
-0.0503671
-0.00672797
-0.0496445
-0.00516793
-0.0490798
-0.00419472
-0.0488557
-0.00367184
-0.0492558
-0.00388784
-0.0499854
-0.00482381
-0.0503811
-0.00614029
-0.0502465
-0.00716348
-0.04961
-0.00756051
-0.0485901
-0.00749632
-0.0474243
-0.00720009
-0.0461832
-0.00693446
-0.0446368
-0.0070973
-0.042769
-0.00805596
-0.0405537
-0.00962214
-0.0383264
-0.011114
-0.0362564
-0.0125071
-0.034294
-0.0138187
-0.032377
-0.0147263
-0.0304966
-0.0150846
-0.0287058
-0.0145801
-0.0270316
-0.0136416
-0.0255172
-0.0121858
-0.0242215
-0.0105768
-0.0231659
-0.00891446
-0.0222719
-0.00745607
-0.0214029
-0.00663117
-0.0205035
-0.00606414
-0.0195464
-0.00569279
-0.0185179
-0.00537858
-0.0174007
-0.00528058
-0.0161953
-0.00553878
-0.0149091
-0.00612725
-0.0135439
-0.00702569
-0.0119965
-0.00820954
-0.0102789
-0.00914357
-0.00836893
-0.010754
-0.00596322
-0.013842
-0.00340763
-0.0142475
-0.000615251
-0.0162965
0.00233043
-0.0174307
0.0045509
-0.0129921
0.00726647
-0.0164975
0.0104623
-0.0203834
0.00924926
0.00273264
0.00407367
0.0269171
-0.00419492
0.0446505
-0.0139089
0.057075
-0.0140424
0.0140988
-0.00855854
-0.0429624
-0.00549201
-0.040141
-0.0034407
-0.00770363
-0.00451057
0.0236256
-0.00440408
0.0102596
-0.00197234
-0.0136439
0.00149233
-0.0218433
0.00503468
-0.0222714
0.00747449
-0.0161916
0.00884843
-0.00977111
0.009819
-0.00653483
0.0107326
-0.00526555
0.0116236
-0.00455737
0.0124823
-0.00416232
0.0133099
-0.0043363
0.0139339
-0.00276511
0.0144296
-0.00161275
0.0152812
-0.00315663
0.0157533
-0.00040667
0.0156242
0.00758277
0.0164566
-0.000408319
0.0192591
-0.0165402
0.0214187
-0.0180429
0.0201428
0.00107607
0.0183326
0.0120334
0.0147435
0.0254065
0.0119072
0.0186348
0.011858
-0.00150417
0.0122655
-0.00476703
0.0116862
-0.0034582
0.00813785
0.0149946
0.0053057
0.0153284
0.00527938
0.00270638
0.00679318
-0.00529576
0.00843635
-0.00892451
0.00846474
-0.000500909
0.00737051
0.00849653
0.00628163
0.00861899
0.0054087
0.00401924
0.00450868
0.00422875
0.00363499
0.00524235
0.00350653
0.00125665
0.00470152
-0.00619616
0.00616046
-0.00866089
0.00566582
0.00261074
0.00357566
0.0129697
0.00244124
0.00840192
0.00245861
0.0012162
0.00187255
0.00349405
0.000372833
0.00655781
-0.000707671
0.00454226
-0.000822671
0.000435066
-0.000566089
-0.00215354
-0.00214148
0.000121743
-0.100292
-0.00685379
-0.097794
-0.00886158
-0.0957076
-0.0101305
-0.0940696
-0.0106266
-0.0928355
-0.0107237
-0.0919519
-0.0107836
-0.0913474
-0.0108363
-0.0908664
-0.0108824
-0.0903691
-0.010945
-0.0895574
-0.0109683
-0.0883982
-0.0108168
-0.0870424
-0.0104372
-0.0858574
-0.00944523
-0.0846336
-0.00870718
-0.0835519
-0.00745339
-0.0825555
-0.00631257
-0.0817095
-0.00506407
-0.0808297
-0.00310244
-0.0796836
-0.00213663
-0.077856
-0.00338312
-0.0746698
-0.00662265
-0.070646
-0.0107363
-0.0668866
-0.0151415
-0.063817
-0.01817
-0.0613015
-0.020038
-0.0591751
-0.0204563
-0.0572206
-0.0197824
-0.0553262
-0.018132
-0.0535356
-0.0157419
-0.0519174
-0.013008
-0.0505101
-0.0102782
-0.0493664
-0.00787166
-0.0484815
-0.00605284
-0.0477748
-0.00490141
-0.0471575
-0.00428916
-0.0467577
-0.00428762
-0.0469145
-0.00466709
-0.0476281
-0.00542663
-0.0482771
-0.00651454
-0.0483194
-0.00751814
-0.0478469
-0.00796883
-0.0469774
-0.00806965
-0.045637
-0.00827483
-0.0438812
-0.00885306
-0.0417242
-0.010213
-0.0393832
-0.0119631
-0.0371854
-0.0133118
-0.0351394
-0.014553
-0.0332234
-0.0157347
-0.0314344
-0.0165153
-0.0297546
-0.0167644
-0.0281642
-0.0161705
-0.0266731
-0.0151328
-0.0253506
-0.0135083
-0.0242635
-0.0116639
-0.0233622
-0.00981584
-0.0225454
-0.00827286
-0.0217073
-0.0074692
-0.0208481
-0.00692335
-0.0199443
-0.00659667
-0.0189521
-0.00637068
-0.0178563
-0.00637647
-0.0166574
-0.00673765
-0.0153686
-0.00741602
-0.0139979
-0.00839645
-0.0124491
-0.00975826
-0.0107343
-0.0108584
-0.00876816
-0.0127201
-0.00629896
-0.0163112
-0.00374211
-0.0168044
-0.00101677
-0.0190218
0.00171518
-0.0201628
0.00352829
-0.0148054
0.00553336
-0.0185028
0.00845941
-0.0233095
0.00838174
0.00281012
0.00386991
0.0313954
-0.00433272
0.0526947
-0.0127378
0.0654304
-0.00985022
0.0112418
-0.00624809
-0.0465242
-0.00723718
-0.0391643
-0.00522386
-0.00971363
-0.00534073
0.0237423
-0.00457353
0.009487
-0.00176878
-0.0164501
0.00150038
-0.0251147
0.0047909
-0.0255622
0.00739044
-0.0187912
0.00917672
-0.0115574
0.0104525
-0.00781061
0.0114282
-0.00624127
0.0121894
-0.00531853
0.0128217
-0.00479465
0.0134341
-0.00494873
0.0140137
-0.00334464
0.0145618
-0.00216092
0.0153893
-0.0039841
0.0160023
-0.00101966
0.0159693
0.00761575
0.0167629
-0.00120197
0.0195076
-0.0192853
0.0219995
-0.0206288
0.0201325
0.00146377
0.018287
0.0140898
0.0145812
0.0293079
0.0119298
0.0213203
0.0126677
-0.00224207
0.0132923
-0.00539162
0.0122119
-0.0023778
0.00829857
0.018908
0.00520784
0.0184191
0.00528633
0.00262789
0.00709105
-0.00710049
0.00911909
-0.0109525
0.00929219
-0.00067401
0.00777074
0.010018
0.00648308
0.00990665
0.00580151
0.0047008
0.0050892
0.00494107
0.00426149
0.00607006
0.00396927
0.00154843
0.00502148
-0.00723516
0.00671542
-0.0103487
0.00639311
0.00293304
0.00411051
0.0152523
0.00279506
0.0097173
0.0027129
0.00129835
0.00217875
0.00402819
0.00123864
0.00749792
0.000564072
0.00521683
0.000373882
0.000625256
0.000711015
-0.00249067
-0.00219828
0.000767812
-0.0937973
-0.00983981
-0.0913881
-0.0112707
-0.0895173
-0.0120014
-0.0880996
-0.0120443
-0.0871009
-0.0117224
-0.0864373
-0.0114472
-0.0860473
-0.0112262
-0.0859831
-0.0109467
-0.0862559
-0.0106722
-0.0865855
-0.0106387
-0.0865782
-0.0108241
-0.0861269
-0.0108885
-0.0852593
-0.0103129
-0.0841814
-0.00978505
-0.0830546
-0.0085802
-0.081992
-0.00737513
-0.0807998
-0.00625632
-0.07953
-0.00437215
-0.0775398
-0.00412683
-0.0743482
-0.00657475
-0.0701667
-0.0108041
-0.0661134
-0.0147897
-0.0630157
-0.0182392
-0.060624
-0.0205618
-0.0587371
-0.0219248
-0.0571907
-0.0220028
-0.0557648
-0.0212082
-0.0542969
-0.0195999
-0.0527889
-0.0172499
-0.0513912
-0.0144057
-0.0501336
-0.0115359
-0.0490404
-0.00896487
-0.0480971
-0.0069961
-0.0472435
-0.005755
-0.0464941
-0.00503858
-0.0458025
-0.00497923
-0.0452103
-0.00525929
-0.0450079
-0.00562896
-0.0454999
-0.00602261
-0.0461079
-0.00691013
-0.0461372
-0.0079395
-0.0455899
-0.00861701
-0.044352
-0.00951268
-0.0424145
-0.0107906
-0.0400686
-0.0125589
-0.0377632
-0.0142686
-0.035706
-0.015369
-0.0338716
-0.0163875
-0.0322505
-0.0173558
-0.0307803
-0.0179855
-0.029373
-0.0181717
-0.0279828
-0.0175607
-0.0266393
-0.0164763
-0.0254456
-0.014702
-0.024411
-0.0126985
-0.0235576
-0.0106692
-0.0228007
-0.00902986
-0.0220492
-0.00822068
-0.02129
-0.00768248
-0.0204707
-0.00741604
-0.0195387
-0.00730266
-0.0184689
-0.00744626
-0.0172689
-0.00793764
-0.0159671
-0.00871782
-0.0145867
-0.00977689
-0.01304
-0.0113049
-0.0113502
-0.0125482
-0.00946006
-0.0146103
-0.00708588
-0.0186854
-0.00456513
-0.0193251
-0.00195636
-0.0216306
0.000864045
-0.0229833
0.00291528
-0.0168567
0.00510261
-0.0206902
0.00819837
-0.0264053
0.00742965
0.00357885
0.0029297
0.0358116
-0.00402068
0.0594999
-0.0101624
0.0713948
-0.00586215
0.00694713
-0.00527528
-0.0471253
-0.00955849
-0.0348927
-0.00742146
-0.0118764
-0.00613841
0.022455
-0.00526777
0.00861073
-0.00269289
-0.0190267
0.000648159
-0.0284553
0.00417292
-0.0290871
0.00671592
-0.0213342
0.0081977
-0.0130392
0.00922063
-0.00883354
0.0101246
-0.00714523
0.0109808
-0.0061747
0.0118016
-0.00561545
0.0125824
-0.00572958
0.0132512
-0.00401338
0.0138898
-0.00279956
0.0147797
-0.00487401
0.0155447
-0.00178465
0.0159507
0.00720972
0.0169249
-0.00217627
0.0198539
-0.0222146
0.0221542
-0.0229629
0.0203305
0.00226832
0.0178612
0.0162801
0.0141758
0.0331034
0.0122779
0.0233095
0.013569
-0.00353322
0.0138527
-0.00567529
0.0119993
-0.000524437
0.0075716
0.0233357
0.00418741
0.0218033
0.00434281
0.00247249
0.0063435
-0.00910118
0.0083329
-0.0129419
0.00855025
-0.00089136
0.00740232
0.0111659
0.00632228
0.0109867
0.0054083
0.00561478
0.00448113
0.00586823
0.00361859
0.00692907
0.00346899
0.00166419
0.00467857
-0.00839975
0.0062849
-0.0118973
0.00591544
0.00330939
0.00379369
0.017374
0.00261442
0.0108962
0.00267537
0.00123738
0.00224862
0.00445502
0.000874744
0.0088718
-0.000333611
0.00642518
-0.000550908
0.000842553
-0.000274799
-0.00276678
-0.00272708
0.000254004
-0.088982
-0.0118885
-0.0872829
-0.0129698
-0.085898
-0.0133862
-0.0847306
-0.0132117
-0.0837744
-0.0126786
-0.0830286
-0.012193
-0.0824513
-0.0118035
-0.0820347
-0.0113633
-0.0818705
-0.0108364
-0.0821239
-0.0103853
-0.0827292
-0.0102188
-0.0832806
-0.0103371
-0.0833245
-0.010269
-0.0829863
-0.0101232
-0.0820169
-0.00954962
-0.0806324
-0.0087597
-0.0791216
-0.00776705
-0.076974
-0.00651979
-0.0735094
-0.00759143
-0.0690885
-0.0109956
-0.0649128
-0.0149799
-0.0616668
-0.0180356
-0.0594582
-0.0204478
-0.0578562
-0.0221638
-0.0566447
-0.0231362
-0.0557006
-0.0229468
-0.0548075
-0.0221014
-0.0537733
-0.0206341
-0.052522
-0.0185012
-0.0512574
-0.0156703
-0.0500888
-0.0127045
-0.049072
-0.00998173
-0.0481595
-0.00790858
-0.0472705
-0.00664403
-0.0464069
-0.0059021
-0.0455252
-0.00586099
-0.0446522
-0.00613225
-0.043841
-0.00644018
-0.0432548
-0.00660878
-0.0431728
-0.00699211
-0.04323
-0.00788234
-0.0428124
-0.00903461
-0.0417306
-0.0105945
-0.0399397
-0.0125815
-0.0379033
-0.0145953
-0.0359971
-0.0161748
-0.0342802
-0.0170858
-0.0327396
-0.0179281
-0.0313538
-0.0187416
-0.0300647
-0.0192745
-0.0288272
-0.0194092
-0.0275921
-0.0187957
-0.0263773
-0.0176912
-0.0253082
-0.0157711
-0.0244361
-0.0135707
-0.0237353
-0.01137
-0.0230689
-0.00969623
-0.0223556
-0.008934
-0.0216031
-0.00843496
-0.020773
-0.00824615
-0.0198173
-0.00825833
-0.0187291
-0.00853444
-0.0175159
-0.00915085
-0.0162051
-0.0100287
-0.0148241
-0.0111579
-0.0132822
-0.0128467
-0.0116006
-0.0142299
-0.00970189
-0.016509
-0.00735025
-0.021037
-0.00490577
-0.0217696
-0.00241926
-0.0241171
-0.000166207
-0.0252363
0.00119872
-0.0182217
0.00265948
-0.0221509
0.00572168
-0.0294675
0.00675434
0.00254619
0.00356585
0.0390169
-0.00328995
0.0662381
-0.00617839
0.0745735
-0.000785733
0.0012641
-0.00356601
-0.0444074
-0.0117159
-0.0267002
-0.0105185
-0.0132309
-0.0073576
0.01927
-0.00544233
0.00668519
-0.00257598
-0.0218942
0.000351117
-0.031167
0.00342902
-0.0321647
0.00605298
-0.0239581
0.00793883
-0.014925
0.00929724
-0.0101919
0.0103355
-0.00818354
0.0111594
-0.00699861
0.0118643
-0.0063203
0.0125532
-0.00641851
0.0132363
-0.0046965
0.0139159
-0.00347915
0.0148337
-0.00579179
0.0156505
-0.00260144
0.0160508
0.00680936
0.017
-0.00312552
0.0199555
-0.0251701
0.0221813
-0.0252182
0.0198123
0.00297772
0.0175291
0.0182129
0.0139896
0.0369619
0.0125852
0.0248963
0.0143719
-0.00531994
0.0149678
-0.00633034
0.0127799
0.00159286
0.00768049
0.0284181
0.00412073
0.025363
0.00434471
0.00224851
0.00631687
-0.0110733
0.00854816
-0.0151732
0.00888485
-0.00122805
0.00752071
0.0125301
0.00638249
0.0121249
0.00565243
0.00634483
0.00491721
0.00660294
0.00411044
0.00770961
0.00379133
0.00189192
0.00485673
-0.00944233
0.00658504
-0.0135113
0.00628414
0.00364134
0.00406222
0.0195957
0.00285194
0.0121058
0.00290112
0.00118834
0.00245696
0.00489924
0.00137103
0.00995773
0.000585822
0.00721039
0.000341921
0.00108645
0.000551837
-0.00297669
-0.00284612
0.000670871
-0.0868217
-0.0131326
-0.0856658
-0.0141258
-0.0846319
-0.0144201
-0.0836515
-0.0141921
-0.0827191
-0.0136111
-0.0818654
-0.0130467
-0.0810725
-0.0125964
-0.0803141
-0.0121216
-0.0796198
-0.0115307
-0.0790187
-0.0109864
-0.0787046
-0.0105329
-0.0788359
-0.0102058
-0.079022
-0.0100829
-0.0789232
-0.010222
-0.0784269
-0.0100459
-0.07719
-0.00999663
-0.0751507
-0.00980638
-0.071644
-0.0100265
-0.0672231
-0.0120123
-0.0630607
-0.015158
-0.0599547
-0.0180859
-0.0578659
-0.0201245
-0.0566145
-0.0216991
-0.0557794
-0.0229989
-0.055158
-0.0237576
-0.0547284
-0.0233763
-0.0542413
-0.0225882
-0.0535378
-0.0213373
-0.0525132
-0.0195258
-0.0513419
-0.0168416
-0.0502169
-0.0138295
-0.0492799
-0.0109188
-0.0484409
-0.00874753
-0.0475787
-0.0075062
-0.0466889
-0.0067919
-0.0457191
-0.00683079
-0.0446648
-0.00718656
-0.0435483
-0.0075567
-0.0424463
-0.00771079
-0.0414391
-0.00799928
-0.0406999
-0.00862159
-0.0399218
-0.00981266
-0.0387907
-0.0117256
-0.0373443
-0.0140279
-0.035872
-0.0160676
-0.0344263
-0.0176204
-0.0330626
-0.0184496
-0.0318085
-0.0191821
-0.0306759
-0.0198741
-0.0296253
-0.0203252
-0.0286041
-0.0204305
-0.0275223
-0.0198775
-0.0264161
-0.0187974
-0.0254477
-0.0167395
-0.0246346
-0.0143837
-0.0239466
-0.012058
-0.0232884
-0.0103545
-0.0226004
-0.00962199
-0.0218876
-0.00914777
-0.021089
-0.00904474
-0.020162
-0.00918525
-0.0191079
-0.00958855
-0.0179374
-0.0103214
-0.0166668
-0.0112993
-0.0153192
-0.0125054
-0.0138155
-0.0143504
-0.0121923
-0.0158532
-0.0104042
-0.0182971
-0.00823817
-0.023203
-0.00596929
-0.0240385
-0.0036622
-0.0264242
-0.00137262
-0.0275259
0.000314666
-0.0199089
0.0017096
-0.0235459
0.00446956
-0.0322275
0.00501328
0.00200246
0.00222905
0.0418519
-0.00258845
0.0709413
-0.00275411
0.0748631
0.00302213
-0.00451213
-0.00179892
-0.0393526
-0.0136614
-0.0143227
-0.0131965
-0.0138625
-0.00832436
0.0143471
-0.00612625
0.00451666
-0.00365184
-0.0233536
-0.000847737
-0.0325245
0.00267395
-0.035687
0.00553829
-0.0268225
0.00727972
-0.0166665
0.0084622
-0.0113744
0.00941901
-0.00914035
0.0102792
-0.00785877
0.0110984
-0.0071395
0.0118904
-0.00721051
0.0126227
-0.00542879
0.0133711
-0.00422758
0.0143249
-0.00674566
0.0152604
-0.00353694
0.015988
0.00608182
0.0170358