/*--------------------------------*- C++ -*----------------------------------*\
| =========                 |                                                 |
| \\      /  F ield         | OpenFOAM: The Open Source CFD Toolbox           |
|  \\    /   O peration     | Version:  v1912                                 |
|   \\  /    A nd           | Website:  www.openfoam.com                      |
|    \\/     M anipulation  |                                                 |
\*---------------------------------------------------------------------------*/
FoamFile
{
    version     2.0;
    format      ascii;
    class       volScalarField;
    location    "90";
    object      alpha.water;
}
// * * * * * * * * * * * * * * * * * * * * * * * * * * * * * * * * * * * * * //

dimensions      [0 0 0 0 0 0 0];


internalField   nonuniform List<scalar> 
14268
(
1
1
1
1
1
1
1
1
1
1
1
1
1
1
1
1
1
1
1
1
1
1
1
1
1
1
1
1
1
1
1
1
1
1
1
1
1
1
1
1
1
1
1
1
1
1
1
1
1
1
1
1
1
1
1
1
1
1
1
1
1
1
1
1
1
1
1
1
1
1
1
1
0.999999
0.999994
0.999951
0.999505
0.999365
0.99954
0.99987
1
1
1
1
1
1
1
1
1
1
1
1
1
1
1
1
1
1
1
1
1
1
1
1
1
1
1
1
1
1
1
1
1
1
1
1
1
1
1
1
1
1
1
1
1
1
1
1
1
1
1
1
1
1
1
1
1
1
1
1
1
1
1
1
1
1
1
1
1
1
1
1
1
1
1
1
1
1
1
1
1
1
1
1
1
1
1
1
1
1
1
1
1
1
1
1
1
1
1
1
1
1
1
1
1
1
1
1
1
1
1
1
1
1
1
1
1
1
1
1
1
1
1
1
1
1
1
1
0.999999
0.999992
0.999607
0.997791
0.998412
0.99971
0.999999
1
1
1
1
1
1
1
1
1
1
1
1
1
1
1
1
1
1
1
1
0.999999
0.999841
0.999954
0.999998
1
1
1
1
1
1
1
1
1
1
1
1
1
1
1
1
1
1
1
1
1
1
1
1
1
1
1
1
1
1
1
1
1
1
1
1
1
1
1
1
1
1
1
1
1
1
1
1
1
1
1
1
1
1
1
1
1
1
1
1
1
1
1
1
1
1
1
1
1
1
1
1
1
1
1
1
1
1
1
1
1
1
1
1
1
1
1
1
1
1
1
1
1
1
1
1
1
1
1
1
1
1
1
1
0.999998
0.999731
0.997599
0.99664
0.999324
0.999954
1
1
1
1
1
1
1
1
1
1
1
1
1
1
1
1
1
1
1
1
0.999989
0.998231
0.997378
0.998826
0.999894
1
1
1
1
1
1
1
1
1
1
1
1
1
1
1
1
1
1
1
1
1
1
1
0.999999
0.999999
1
1
1
1
1
1
1
1
1
1
1
1
1
1
1
1
1
1
1
1
1
1
1
1
1
1
1
1
1
1
1
1
1
1
1
1
1
1
1
1
1
1
1
1
1
1
1
1
1
1
1
1
1
1
1
1
1
1
1
1
1
1
1
1
1
1
1
1
1
1
1
1
1
1
1
1
0.999999
0.999999
0.999999
0.999991
0.998859
0.996639
0.999034
0.999816
0.99999
1
1
1
1
1
0.999998
0.999999
1
1
1
1
1
1
1
1
1
1
1
1
0.999962
0.997453
0.986447
0.989201
0.996621
0.999918
1
1
1
1
1
1
1
1
1
1
1
1
1
1
1
1
1
1
1
1
1
0.999999
0.999999
0.999999
1
1
1
1
1
1
1
1
1
1
1
1
1
1
1
1
1
1
1
1
1
1
1
1
1
1
1
1
1
1
1
1
1
1
1
1
1
1
1
1
1
1
1
1
1
1
1
1
1
1
1
1
1
1
1
1
1
1
1
1
1
1
1
1
1
1
1
1
1
1
1
1
1
1
1
0.999998
0.999988
0.999991
0.999993
0.999987
0.999832
0.996755
0.998874
0.999438
0.999741
1
1
1
0.999998
0.999965
0.99998
0.999995
1
1
1
1
1
1
1
1
1
1
1
1
0.999968
0.999705
0.974694
0.965416
0.981973
0.997667
1
1
1
1
1
1
1
1
1
1
1
1
1
1
1
1
1
1
1
1
1
0.999998
0.999998
0.999999
1
1
1
1
1
1
1
1
1
1
1
1
1
1
1
1
1
1
1
1
1
1
1
1
1
1
1
1
1
1
1
1
1
1
1
1
1
1
1
1
1
1
1
1
1
1
1
1
1
1
1
1
1
1
1
1
1
1
1
1
1
1
1
1
1
1
1
1
1
1
1
1
1
1
0.999999
0.999991
0.99998
0.99998
0.999989
0.999966
0.999849
0.998664
0.998672
0.99856
0.997036
0.999815
1
0.999999
0.999957
0.99988
0.999934
0.999984
1
1
1
1
1
1
1
1
1
1
1
1
0.999993
0.999961
0.989476
0.957998
0.964879
0.992106
1
1
1
1
1
1
1
1
1
1
1
1
1
1
1
1
1
1
1
1
0.999999
0.999997
0.999997
0.999999
1
1
1
1
1
1
1
1
1
1
1
1
1
1
1
1
1
1
1
1
1
1
1
1
1
1
1
1
1
1
1
1
1
1
1
1
1
1
1
1
1
1
1
1
1
1
1
1
1
1
1
1
1
1
1
1
1
1
1
1
1
1
1
1
1
1
1
1
1
1
1
1
1
1
0.999997
0.999989
0.999982
0.99999
0.999999
0.999982
0.998866
0.99845
0.998447
0.996705
0.990771
0.998393
0.999663
0.999976
0.999721
0.999794
0.999895
0.999975
1
1
1
1
1
1
1
1
1
1
1
1
0.999998
0.999988
0.998771
0.964807
0.952649
0.984102
0.999606
0.999999
1
1
1
1
1
1
1
1
1
1
1
1
1
0.999995
0.99956
0.999919
1
1
0.999997
0.999995
0.999996
1
1
1
1
1
1
1
1
1
1
1
1
1
1
1
1
1
1
1
1
1
1
1
1
1
1
1
1
1
1
1
1
1
1
1
1
1
1
1
1
1
1
1
1
1
1
1
1
1
1
1
1
1
1
1
1
1
1
1
1
1
1
1
1
1
1
1
1
1
1
1
1
1
1
0.999999
0.999997
0.999999
0.999998
0.999999
1
0.999997
0.996956
0.9974
0.996903
0.991701
0.980857
0.99444
0.997194
0.999856
0.9995
0.999737
0.999929
0.999995
1
1
1
1
1
1
1
1
1
1
1
0.999998
0.999996
0.999994
0.999371
0.970912
0.949211
0.976436
0.997851
0.999999
0.999998
0.999998
1
1
1
1
1
1
1
1
1
1
0.999869
0.996573
0.993262
0.997071
0.999889
0.999999
0.999968
0.999975
0.999996
1
1
1
1
1
1
1
1
1
1
1
1
1
1
1
1
1
1
1
1
1
1
1
1
1
1
1
1
1
1
1
1
1
1
1
1
1
1
1
1
1
1
1
1
1
1
1
1
1
1
1
1
1
1
1
1
1
1
1
1
1
1
1
1
1
1
1
1
1
1
1
1
1
1
0.999999
0.999998
1
1
1
1
1
0.997059
0.996265
0.993038
0.939462
0.969393
0.983008
0.993255
0.999377
0.999102
0.999506
0.999159
0.999994
1
1
1
1
1
1
1
1
1
1
1
0.999998
0.999998
0.999998
0.99922
0.948281
0.934013
0.969853
0.997484
0.999999
0.997704
0.992624
0.998705
1
1
1
1
1
1
1
1
0.999979
0.99904
0.987348
0.982696
0.990071
0.999241
0.999993
0.999941
0.999963
0.999997
1
1
1
1
1
1
1
1
1
1
1
1
1
1
1
1
1
1
1
1
1
1
1
1
1
1
1
1
1
1
1
0.999997
0.999995
1
1
1
1
1
1
1
1
1
1
1
1
1
1
1
1
1
1
1
1
1
1
1
1
1
1
1
1
1
1
1
1
1
1
1
1
1
1
1
1
1
1
1
1
1
1
1
1
0.998867
0.995892
0.995122
0.909318
0.95613
0.944042
0.990106
0.99816
0.996835
0.98201
0.969579
0.99963
1
1
1
1
1
1
1
1
1
1
1
0.999999
0.999999
0.999998
0.999296
0.939553
0.931302
0.96794
0.997537
0.999999
0.984042
0.934602
0.98918
1
1
0.999943
0.999929
0.999987
1
1
0.999997
0.999868
0.99449
0.980968
0.980968
0.982186
0.99751
0.999981
0.999955
0.99999
1
1
1
1
1
1
1
1
1
1
1
1
1
1
1
1
1
1
1
1
1
1
1
1
1
1
1
1
1
1
1
1
0.999995
0.999957
0.999917
0.999967
1
1
1
1
1
1
1
1
1
1
1
1
1
1
1
1
1
1
1
1
1
1
1
1
1
1
1
1
1
1
1
1
1
1
1
1
1
1
1
1
1
1
1
1
1
1
0.999814
0.995276
0.994133
0.909318
0.925794
0.831966
0.932853
0.994888
0.988252
0.9219
0.90909
0.987151
1
1
1
1
1
1
1
1
1
1
1
0.999998
0.999996
0.999998
0.999912
0.957623
0.899521
0.95912
0.997461
0.992775
0.945007
0.788185
0.962668
1
1
0.999702
0.99971
0.999897
0.999998
1
0.99999
0.999653
0.986046
0.985955
0.992633
0.99489
0.996015
0.999792
0.999993
0.999999
1
1
1
1
1
1
1
1
1
1
1
1
1
1
1
1
1
1
1
1
1
1
1
1
1
1
1
1
1
1
1
1
1
0.999939
0.99945
0.998893
0.998906
0.999473
0.999963
1
1
1
1
1
1
1
1
1
1
1
1
1
1
1
1
0.999999
1
1
1
1
1
1
1
1
1
1
1
1
1
1
1
1
1
1
1
1
1
1
1
1
1
1
0.999964
0.980439
0.940596
0.94846
0.803309
0.634208
0.785368
0.977686
0.971495
0.903941
0.903942
0.941439
0.998996
1
1
1
1
1
1
1
1
1
1
0.999999
0.999988
0.999975
0.999901
0.979365
0.79631
0.914486
0.981635
0.961311
0.898217
0.589109
0.905368
0.999521
0.999929
0.999418
0.999489
0.999757
0.999988
1
0.999965
0.999173
0.994448
0.995316
0.996566
0.996566
0.995711
0.99947
0.999999
1
1
1
1
1
1
1
1
1
1
1
1
1
1
1
1
1
1
1
1
1
1
1
1
1
1
1
1
1
1
1
1
1
1
1
0.999198
0.996278
0.99448
0.995183
0.998616
0.999905
0.999999
1
1
1
1
1
1
1
1
1
1
1
1
1
1
0.999996
0.999989
0.999996
1
1
1
1
1
1
1
1
1
1
1
1
1
1
1
1
1
1
1
1
1
1
1
1
0.999953
0.917754
0.906251
0.953536
0.591071
0.602663
0.774965
0.963867
0.924001
0.903941
0.903941
0.903942
0.992317
1
1
1
1
1
1
1
1
1
1
1
0.999978
0.999886
0.999795
0.993315
0.750107
0.743689
0.905352
0.914628
0.799512
0.50025
0.86142
0.995705
0.999362
0.999282
0.999302
0.999635
0.999966
1
0.999933
0.998312
0.991764
0.979782
0.986258
0.996445
0.995752
0.997597
0.999884
1
1
1
1
1
1
1
1
1
1
1
1
1
1
1
1
1
1
1
1
1
1
1
1
1
1
1
1
1
1
1
1
1
1
1
0.999656
0.996188
0.991862
0.991861
0.993025
0.998492
0.99981
0.999988
1
1
1
1
1
1
1
1
1
1
1
1
1
0.999995
0.999958
0.999914
0.999954
0.999995
1
1
1
1
1
1
1
1
1
1
1
1
1
1
1
1
1
1
1
1
1
1
0.999816
0.959579
0.906232
0.954797
0.55098
0.666603
0.925548
0.937827
0.91287
0.92698
0.903991
0.903942
0.97597
1
1
1
1
1
1
1
1
1
1
0.999999
0.999964
0.999723
0.999655
0.998957
0.874023
0.743591
0.863607
0.898892
0.673676
0.500251
0.578516
0.968175
0.998529
0.999282
0.995646
0.998528
0.999971
1
0.99989
0.997372
0.983265
0.95196
0.966711
0.991077
0.998235
0.998815
0.999907
1
1
1
1
1
1
1
1
1
1
1
1
1
1
1
1
1
1
1
1
1
1
1
1
1
1
1
1
1
1
1
1
1
1
1
1
0.999843
0.997059
0.992318
0.991841
0.992459
0.997943
0.999759
0.999985
1
1
1
1
1
1
1
1
1
1
1
1
1
0.99997
0.999734
0.999509
0.999737
0.999941
1
1
1
1
1
1
1
1
1
1
1
1
1
1
1
1
1
1
1
1
0.999995
0.999521
0.994024
0.964488
0.902788
0.550978
0.557081
0.921428
0.952173
0.965512
0.991539
0.970203
0.925656
0.951877
0.99817
1
1
1
1
1
1
1
1
1
0.999999
0.999943
0.999607
0.999414
0.999083
0.973529
0.875123
0.860059
0.79906
0.741901
0.596401
0.571399
0.845436
0.982855
0.943243
0.950976
0.989592
0.999992
0.99999
0.999366
0.992418
0.953306
0.937076
0.943937
0.977838
0.998481
0.99989
0.999992
1
0.999998
0.999987
0.999953
0.999958
0.999993
0.999999
1
1
1
1
1
1
1
1
1
1
1
1
1
1
1
1
1
1
1
1
1
1
1
1
1
1
1
1
1
1
0.999745
0.996785
0.991966
0.991483
0.99167
0.998264
0.99982
0.999996
1
1
1
1
1
1
1
1
1
1
1
1
1
0.999829
0.998581
0.997565
0.997555
0.99845
0.999831
1
1
1
1
1
1
1
1
1
1
1
1
1
1
1
1
1
1
0.999982
0.999748
0.999749
0.993508
0.611677
0.550978
0.575408
0.949862
0.988657
0.999277
0.999625
0.998186
0.990163
0.951903
0.990943
1
1
1
1
1
1
1
1
1
0.999999
0.999829
0.999872
0.999866
0.99842
0.998356
0.985606
0.79539
0.789295
0.904014
0.873515
0.741611
0.845557
0.797135
0.735571
0.855131
0.985627
0.999993
0.999986
0.999529
0.982754
0.937076
0.937076
0.9452
0.973598
0.996383
0.999186
0.984098
0.965879
0.988904
0.998763
0.99414
0.965299
0.951284
0.984549
1
1
1
1
1
1
1
1
1
1
1
1
1
1
1
1
1
1
1
1
1
1
1
1
1
1
1
1
1
1
1
0.999458
0.996724
0.99325
0.99287
0.995748
0.999538
0.999929
0.999996
0.999999
1
1
1
1
1
1
1
1
1
1
1
1
0.998832
0.993884
0.992334
0.993242
0.997593
0.99981
1
1
1
1
1
1
1
1
1
1
1
1
1
1
1
1
1
1
0.999974
0.999704
0.995233
0.550978
0.550978
0.712513
0.974362
0.998536
0.99998
0.999981
0.999867
0.99795
0.958174
0.977287
0.999072
1
1
1
1
1
1
1
1
0.999992
0.999783
0.999923
0.999923
0.999222
0.987846
0.868905
0.775397
0.865517
0.982362
0.988059
0.856614
0.566425
0.494446
0.495655
0.808076
0.993959
0.999994
0.999989
0.99959
0.990273
0.960697
0.963196
0.989502
0.997378
0.997379
0.99596
0.889331
0.688183
0.852813
0.985558
0.985535
0.882534
0.738792
0.876468
1
1
1
1
1
1
1
1
1
1
1
1
1
1
1
1
1
1
1
1
1
1
1
1
1
1
1
1
1
1
1
0.999957
0.999572
0.999029
0.998724
0.998655
0.998878
0.999748
0.999928
0.99999
1
1
1
1
1
1
1
1
1
1
1
1
0.999691
0.996226
0.991294
0.991294
0.992008
0.997633
0.999669
0.999975
1
1
1
1
1
1
1
1
1
1
1
1
0.999991
0.999973
0.999972
0.999999
0.999998
0.998544
0.949969
0.778151
0.74139
0.891736
0.989162
0.999309
0.999999
0.999999
0.99998
0.999684
0.994342
0.974624
0.995411
1
1
1
1
1
1
1
1
0.99998
0.999693
0.999774
0.999925
0.999662
0.952135
0.791372
0.791236
0.937668
0.998836
0.998847
0.532888
0.494446
0.494446
0.500824
0.794394
0.989934
0.999994
0.99998
0.999512
0.993156
0.986415
0.990925
0.99093
0.95684
0.99278
0.9907
0.656935
0.316618
0.587971
0.937572
0.95293
0.664593
0.558781
0.814048
0.961249
0.954814
0.951067
0.949844
0.950744
0.956551
0.964487
0.974247
0.984015
0.992052
0.997255
0.999654
1
1
1
1
1
1
1
1
1
1
1
1
1
1
1
1
1
1
1
0.999997
0.999981
0.999952
0.999911
0.999839
0.999739
0.999661
0.999758
0.999987
1
1
1
1
1
1
1
1
1
1
1
1
1
0.999515
0.995812
0.991429
0.991429
0.99183
0.997043
0.999417
0.999913
0.999989
1
1
1
1
1
1
1
1
1
1
0.999931
0.999614
0.9995
0.999952
0.999982
0.997161
0.94035
0.947963
0.917046
0.978928
0.99735
0.999056
0.999999
1
0.999996
0.99992
0.998995
0.974624
0.988499
0.999567
1
1
1
1
1
0.999999
0.999979
0.999802
0.999519
0.999568
0.999924
0.999886
0.978283
0.855049
0.909545
0.988893
0.999114
0.998771
0.67693
0.494446
0.494446
0.494446
0.566558
0.892353
0.999656
0.999379
0.998197
0.993838
0.993877
0.991481
0.909755
0.616281
0.887493
0.968097
0.345393
0.316615
0.386867
0.847311
0.877821
0.555896
0.718174
0.982942
0.529442
0.506822
0.494764
0.491465
0.49439
0.512561
0.540919
0.581525
0.630328
0.681865
0.730457
0.772827
0.807555
0.834607
0.857228
0.877102
0.895348
0.912239
0.928176
0.943595
0.958472
0.972216
0.983755
0.992672
0.998184
1
1
1
1
1
1
1
0.999998
1
0.999997
0.999986
0.999973
0.999965
0.999985
0.999998
1
1
1
1
1
1
1
1
1
1
1
1
1
1
0.999648
0.996755
0.99232
0.99183
0.99213
0.998444
0.999647
0.999972
1
1
1
1
1
1
1
1
1
1
0.999861
0.999012
0.998578
0.999516
0.999979
0.998086
0.978199
0.997818
0.997216
0.997516
0.99305
0.998557
1
1
0.999999
0.999982
0.999693
0.985412
0.982762
0.996628
1
1
1
1
1
0.999998
0.999936
0.999531
0.999519
0.999778
0.99992
0.999913
0.997762
0.967153
0.988987
0.998672
0.999114
0.998716
0.898733
0.580532
0.494446
0.494446
0.498601
0.830277
0.988852
0.983495
0.983252
0.995315
0.993881
0.980944
0.586994
0.368579
0.504404
0.751025
0.443357
0.403695
0.327634
0.486364
0.456747
0.452042
0.861359
0.999999
0.0444957
0.0398655
0.0378582
0.0375198
0.038223
0.0412057
0.0470405
0.0573572
0.0729697
0.0942873
0.121253
0.153748
0.19141
0.231892
0.271517
0.310533
0.350282
0.39116
0.434245
0.481102
0.532656
0.58851
0.646102
0.705276
0.763287
0.81333
0.85493
0.892162
0.925348
0.953808
0.976003
0.990861
0.998144
1
1
1
1
1
1
1
1
1
1
1
1
1
1
1
1
1
1
1
1
1
0.999997
0.99959
0.998629
0.997876
0.998193
0.99807
0.999254
0.99997
0.999996
0.999998
0.999999
1
1
1
1
1
1
1
0.999917
0.999063
0.997797
0.998218
0.999513
0.999832
0.99971
0.999998
0.999987
0.998176
0.982659
0.998846
1
1
1
0.999996
0.999874
0.998179
0.982762
0.990903
0.999012
1
1
1
1
0.999998
0.999929
0.999719
0.99983
0.999918
0.999833
0.999892
0.999929
0.999929
0.999778
0.998659
0.99888
0.998301
0.981472
0.798232
0.516229
0.494446
0.528205
0.780739
0.948374
0.978036
0.992128
0.997245
0.99085
0.844598
0.420371
0.449817
0.307014
0.307013
0.572127
0.823816
0.360984
0.299799
0.299772
0.465408
0.931001
0.999369
0.00206297
0.00190905
0.00190053
0.00191665
0.00195574
0.00204911
0.00228459
0.00279313
0.00353229
0.00437957
0.00533496
0.00655133
0.00813889
0.0100388
0.0123119
0.0151604
0.0187107
0.0231705
0.0289618
0.0367644
0.0475096
0.0625134
0.0832859
0.113424
0.157429
0.218289
0.291092
0.368645
0.445717
0.5214
0.597834
0.673113
0.742139
0.798588
0.84112
0.876931
0.90861
0.935508
0.956931
0.971721
0.980819
0.985851
0.988516
0.989415
0.989159
0.988022
0.985979
0.983555
0.982084
0.982472
0.986053
0.992379
0.998121
1
0.999966
0.999637
0.999112
0.998736
0.99855
0.998355
0.999286
0.999919
0.999976
0.999991
0.999999
1
1
1
1
1
1
1
1
0.999657
0.997351
0.995752
0.996092
0.998865
0.999999
1
0.999971
0.996481
0.97844
0.99893
1
1
1
0.999999
0.999973
0.999653
0.991992
0.988657
0.994916
0.999328
0.99998
1
1
0.999999
0.999989
0.999971
0.999977
0.999963
0.999831
0.999824
0.999929
0.999929
0.999846
0.998711
0.998163
0.998298
0.9944
0.945164
0.806046
0.65818
0.758112
0.920518
0.985121
0.999196
0.999421
0.998667
0.984698
0.801543
0.793265
0.927215
0.521576
0.307014
0.451207
0.892099
0.831252
0.348109
0.299799
0.643669
0.975575
0.996782
0.000128687
9.80995e-05
0.000113853
0.000118421
0.000105163
9.41229e-05
0.000104743
0.000127234
0.000166424
0.000206057
0.000216792
0.000220683
0.000243854
0.000296918
0.000378132
0.000491943
0.000631883
0.000800615
0.0010306
0.00134236
0.00172384
0.00224383
0.00300893
0.00426184
0.00631724
0.00958557
0.0148019
0.0225486
0.0324976
0.0445833
0.0611261
0.0861445
0.123213
0.174915
0.242314
0.312349
0.381858
0.450045
0.513745
0.566745
0.606646
0.633706
0.650259
0.655839
0.653572
0.64545
0.63266
0.620125
0.61501
0.620385
0.644238
0.690073
0.75032
0.810397
0.857975
0.894882
0.920711
0.936666
0.945271
0.949532
0.954048
0.961575
0.971286
0.980819
0.988389
0.994109
0.998267
0.999881
1
1
1
1
1
0.999477
0.996002
0.991922
0.991015
0.992053
0.998832
0.999984
0.999058
0.970921
0.978432
0.999061
1
1
1
1
0.999995
0.999932
0.999185
0.993264
0.993015
0.996213
0.999017
0.999946
1
1
0.999999
0.999996
0.999985
0.999974
0.999931
0.999817
0.999916
0.999929
0.999903
0.999725
0.996322
0.997788
0.997785
0.992332
0.903623
0.827272
0.920648
0.994972
0.99976
0.999887
0.99987
0.999086
0.989727
0.94816
0.957286
0.982822
0.934954
0.515333
0.620471
0.935162
0.965778
0.757097
0.642908
0.889702
0.994298
0.994779
2.38159e-05
1.6009e-05
1.66508e-05
2.60195e-05
2.58356e-05
2.28867e-05
3.13119e-05
3.55326e-05
2.85923e-05
1.8835e-05
1.14925e-05
8.01949e-06
7.52886e-06
7.671e-06
7.83226e-06
8.97795e-06
1.32934e-05
2.03999e-05
3.15667e-05
5.45314e-05
8.61113e-05
0.00011679
0.000151077
0.000219239
0.000346554
0.000544926
0.000823304
0.00117086
0.00157634
0.00200879
0.00249029
0.00324324
0.00467107
0.00713375
0.0108566
0.0158729
0.0221654
0.0298533
0.0388413
0.0485374
0.0584629
0.0673649
0.0736318
0.0756297
0.0742815
0.0706501
0.0659786
0.0627846
0.0627768
0.0666722
0.0777857
0.101535
0.143418
0.204728
0.277358
0.347103
0.406591
0.447247
0.47014
0.48292
0.498874
0.527169
0.568251
0.614118
0.658246
0.701163
0.744485
0.7781
0.801002
0.811888
0.814894
0.83381
0.876787
0.925777
0.945113
0.967017
0.98718
0.983907
0.982013
0.998039
0.992956
0.946868
0.980069
0.999543
1
1
1
1
0.999999
0.99999
0.999902
0.99897
0.995992
0.995675
0.997181
0.999425
0.999981
1
0.999998
0.999965
0.99992
0.999975
0.999977
0.999817
0.999908
0.999929
0.999901
0.999644
0.995904
0.996214
0.997779
0.994319
0.916204
0.911477
0.97653
0.999844
0.99991
0.999911
0.999912
0.999044
0.996929
0.995248
0.993942
0.992087
0.983867
0.898289
0.885422
0.978724
0.989482
0.805033
0.916133
0.994022
0.996525
0.997409
0.000102739
1.42844e-05
7.64858e-06
1.59937e-05
1.32592e-05
1.75955e-05
3.00543e-05
3.17126e-05
1.65376e-05
4.48732e-06
7.00724e-07
3.84962e-07
4.15232e-07
6.6195e-07
6.62935e-07
6.72119e-07
9.1151e-07
1.65885e-06
2.95863e-06
4.97564e-06
8.41482e-06
1.0843e-05
1.15247e-05
1.32601e-05
1.84882e-05
2.77771e-05
4.46619e-05
6.27917e-05
7.68612e-05
9.59083e-05
0.000146514
0.000243029
0.000376482
0.000539461
0.000639551
0.000784182
0.000947202
0.00112902
0.00137453
0.00169563
0.0021055
0.00243217
0.00249143
0.00233848
0.00206218
0.00185687
0.00178679
0.00183532
0.00202692
0.00237919
0.00302816
0.00421339
0.00621078
0.00941561
0.0136004
0.0181789
0.0229073
0.0264412
0.0286933
0.0307927
0.0342278
0.0407012
0.0514149
0.0657501
0.0833553
0.104936
0.129978
0.150619
0.164948
0.18046
0.203318
0.25215
0.339845
0.471457
0.529246
0.627868
0.859229
0.981849
0.96536
0.950066
0.951327
0.946869
0.987186
0.999999
1
1
1
1
1
0.999999
0.999991
0.999927
0.99952
0.998765
0.998641
0.999079
0.999879
0.999999
0.999993
0.999914
0.999914
0.999967
0.999977
0.999932
0.999878
0.999878
0.999632
0.999605
0.999247
0.992463
0.993169
0.966089
0.916102
0.9514
0.993801
0.999704
0.999682
0.999814
0.99997
0.999965
0.999942
0.999866
0.999353
0.996565
0.992993
0.988914
0.989996
0.998129
0.998705
0.913947
0.778374
0.933327
0.987211
0.999818
0.000279714
6.27016e-05
5.60171e-06
5.60171e-06
1.01617e-05
4.48417e-05
5.0775e-05
4.88825e-05
1.42152e-05
3.39306e-07
2.68092e-07
2.68092e-07
3.55869e-07
9.5204e-07
4.57964e-06
1.20024e-05
1.46048e-05
1.36239e-05
8.88942e-06
2.48601e-06
1.63448e-06
1.6342e-06
1.54138e-06
1.54085e-06
1.74603e-06
2.52843e-06
4.68521e-06
6.02863e-06
5.38863e-06
5.60754e-06
1.1727e-05
4.93478e-05
0.00011405
0.000125218
0.000119048
9.26934e-05
6.09463e-05
4.82441e-05
5.2835e-05
7.78203e-05
0.000110407
0.000120455
0.000105808
8.52679e-05
6.55786e-05
5.53208e-05
6.36128e-05
7.81414e-05
8.51817e-05
9.63935e-05
0.000130009
0.000214031
0.000325949
0.000501307
0.000708587
0.000756565
0.000792632
0.000854167
0.000876164
0.000895368
0.000979549
0.00136046
0.00197728
0.00242081
0.00309052
0.00397008
0.00460731
0.00465425
0.00442357
0.00514804
0.00693873
0.00971584
0.0142482
0.0416361
0.0748358
0.0703106
0.291449
0.79936
0.965576
0.965784
0.946078
0.96799
0.997369
0.999999
1
1
1
1
1
0.999999
0.999997
0.999984
0.999964
0.999917
0.99988
0.999851
0.999887
0.999985
0.999987
0.999977
0.999977
0.999977
0.999977
0.999976
0.999737
0.999279
0.99922
0.999772
0.999721
0.994189
0.947882
0.939945
0.947153
0.978954
0.998526
0.999456
0.999621
0.999929
0.99999
0.99999
0.99999
0.999978
0.999881
0.999628
0.99944
0.999288
0.999663
0.999955
0.999916
0.961357
0.763584
0.763529
0.898291
0.994144
0.000376431
0.000104121
5.60638e-06
5.60171e-06
2.77248e-05
4.81753e-05
4.81646e-05
2.34402e-05
5.11373e-06
4.8749e-06
6.55554e-06
5.79112e-06
4.48377e-06
7.32127e-06
2.22198e-05
4.19532e-05
4.97109e-05
5.15472e-05
4.79752e-05
2.61872e-05
4.94856e-06
1.98984e-07
1.41116e-07
1.93111e-07
3.4659e-07
5.18886e-07
5.3699e-07
5.12211e-07
5.61892e-07
1.70707e-06
5.88698e-06
2.61508e-05
0.000102148
0.000117303
8.28653e-05
3.66932e-05
8.52022e-06
4.86688e-06
5.07185e-06
6.26397e-06
7.56079e-06
7.43486e-06
6.4519e-06
4.86388e-06
3.49994e-06
2.74792e-06
2.9358e-06
2.90853e-06
2.36687e-06
1.79774e-06
2.2037e-06
5.15027e-06
1.17833e-05
1.66918e-05
2.00172e-05
2.22589e-05
2.76473e-05
3.47433e-05
3.37749e-05
3.30463e-05
4.41542e-05
8.18561e-05
0.00014742
0.000160838
0.000148801
0.000161287
0.000200579
0.000198173
0.000168902
0.000206567
0.000443667
0.000541569
0.000669096
0.00158319
0.00447786
0.00500523
0.00845563
0.190962
0.838287
0.979531
0.976189
0.993676
0.999906
0.999961
0.979847
0.954902
0.96592
0.995177
0.996856
0.994039
0.991761
0.991907
0.994757
0.998629
0.999837
0.999804
0.99988
0.999971
0.99998
0.999974
0.999977
0.999977
0.999977
0.999972
0.999369
0.999182
0.999622
0.999794
0.999794
0.99674
0.972012
0.968233
0.981948
0.993606
0.997874
0.999128
0.999788
0.999974
0.999988
0.99999
0.999994
0.999995
0.999985
0.999956
0.999939
0.999938
0.999963
0.999994
0.999996
0.99797
0.908788
0.866755
0.93715
0.994581
0.000149147
0.000127595
2.52173e-05
5.60171e-06
1.24776e-05
2.44494e-05
1.06183e-05
1.06242e-05
1.81741e-05
3.022e-05
3.60069e-05
2.8136e-05
1.16027e-05
1.36426e-05
3.17625e-05
5.81602e-05
6.65238e-05
6.65272e-05
6.65238e-05
6.45771e-05
3.46552e-05
6.0525e-06
1.3511e-07
1.3511e-07
1.3511e-07
1.3511e-07
1.3511e-07
1.3511e-07
4.24608e-07
1.15036e-05
5.33588e-05
5.60182e-05
5.21691e-05
4.90135e-05
3.54126e-05
1.35703e-05
1.15893e-06
4.56065e-07
4.94287e-07
5.71974e-07
6.79264e-07
6.31309e-07
5.02087e-07
3.36774e-07
2.17202e-07
1.62854e-07
1.56687e-07
1.36776e-07
9.6817e-08
5.68319e-08
6.18802e-08
1.18219e-07
2.4038e-07
2.7852e-07
2.43238e-07
2.17678e-07
2.98568e-07
6.78716e-07
1.01113e-06
2.47719e-06
1.5536e-05
4.48992e-05
4.33017e-05
2.65716e-05
1.27023e-05
8.16896e-06
8.40796e-06
8.35732e-06
7.58292e-06
1.3926e-05
0.00010396
0.000161891
8.10497e-05
9.3543e-05
0.00044776
0.00118079
0.00295355
0.0204573
0.232782
0.909354
0.997166
0.997173
0.979488
0.861344
0.664848
0.6323
0.702163
0.746094
0.727408
0.693191
0.671276
0.671142
0.696689
0.747785
0.806345
0.853596
0.88585
0.905124
0.922058
0.944198
0.956691
0.942799
0.930411
0.984951
0.999631
0.99964
0.999788
0.999794
0.999794
0.999501
0.995821
0.997305
0.999299
0.999223
0.998537
0.998972
0.999522
0.99523
0.990152
0.996767
0.999928
0.999997
0.999997
0.999995
0.99999
0.999991
0.999995
0.999997
0.999997
0.999997
0.994418
0.982126
0.99049
0.998887
5.43365e-05
0.000118717
6.71015e-05
2.3199e-05
4.58557e-06
2.95365e-06
2.95164e-06
1.1398e-05
4.14768e-05
5.14247e-05
5.14398e-05
4.25927e-05
1.31124e-05
2.45232e-06
2.4985e-06
3.03321e-06
6.37724e-06
1.30611e-05
3.10717e-05
5.71127e-05
5.97076e-05
3.74438e-05
7.17551e-06
1.3511e-07
1.3511e-07
1.3511e-07
1.3511e-07
1.3511e-07
8.12285e-07
1.39435e-05
4.04309e-05
3.68274e-05
1.95711e-05
1.23824e-05
8.74663e-06
3.345e-06
2.26651e-07
6.87476e-08
9.27818e-08
9.92192e-08
9.39273e-08
7.65317e-08
4.8445e-08
2.57476e-08
1.41126e-08
9.62879e-09
8.30762e-09
6.52616e-09
4.41213e-09
2.56192e-09
3.29757e-09
5.01025e-09
6.01309e-09
5.40875e-09
3.90892e-09
3.71128e-09
9.74529e-09
1.68282e-08
2.1016e-08
5.66265e-07
9.61416e-06
4.48846e-05
2.89594e-05
8.90786e-06
8.15908e-07
3.98058e-07
4.04632e-07
3.99361e-07
3.58926e-07
9.24975e-07
2.62761e-05
0.000145467
6.31203e-05
3.59796e-05
7.55905e-05
0.000379345
0.000412926
0.000722528
0.0133451
0.30156
0.829295
0.881222
0.604817
0.268056
0.12862
0.188105
0.247626
0.166788
0.121398
0.0928644
0.0788213
0.078016
0.0911851
0.125521
0.187062
0.26716
0.332488
0.375008
0.420988
0.473889
0.523513
0.562385
0.499106
0.618129
0.944964
0.999574
0.962649
0.889922
0.960827
0.998948
0.999795
0.999795
0.999795
0.999795
0.999697
0.999196
0.991739
0.91812
0.878584
0.933846
0.993572
0.999997
0.999997
0.999997
0.999997
0.999997
0.999997
0.999997
0.999997
0.999997
0.999997
0.999997
0.999997
0.999997
1.64877e-05
7.17933e-05
8.34699e-05
4.28803e-05
3.9005e-06
2.95164e-06
1.15784e-05
3.77879e-05
4.14837e-05
3.95636e-05
2.34346e-05
5.41972e-06
1.11697e-07
1.44157e-07
2.0698e-07
2.63637e-07
3.77258e-07
4.34461e-07
8.50504e-07
1.33014e-05
4.80354e-05
6.66255e-05
3.86123e-05
7.35506e-06
1.3511e-07
1.3511e-07
1.3511e-07
1.3511e-07
9.76877e-07
7.89832e-06
9.16203e-06
5.62512e-06
2.56751e-06
3.79768e-06
4.2486e-06
2.19899e-06
2.48265e-07
3.62353e-08
3.61788e-08
3.61628e-08
3.2427e-08
1.68986e-08
5.09239e-09
1.80921e-09
1.59101e-09
1.47188e-09
1.19946e-09
9.1439e-10
9.13779e-10
1.56521e-09
4.25516e-09
5.79797e-09
4.60577e-09
2.19047e-09
5.46481e-10
2.80435e-10
3.73218e-10
2.9554e-09
4.09194e-09
1.13089e-06
2.17657e-05
4.48977e-05
3.22299e-05
8.31793e-06
2.56633e-07
2.56633e-07
2.56633e-07
2.56633e-07
2.56633e-07
2.56633e-07
5.16624e-06
7.64906e-05
7.87711e-05
3.6594e-05
3.30505e-05
0.000206826
0.000269781
0.000157162
0.000105182
0.000296705
0.083247
0.233141
0.0164595
0.0124508
0.0523038
0.0833974
0.0356101
0.010185
0.00438747
0.00197066
0.00121543
0.00129994
0.0017485
0.00290388
0.00561266
0.0107982
0.0169863
0.0217595
0.0297044
0.0344665
0.0393155
0.0759207
0.0751907
0.0514326
0.340414
0.688102
0.643878
0.542419
0.801149
0.991002
0.999795
0.999795
0.999795
0.999795
0.999521
0.993401
0.927298
0.742591
0.67876
0.740985
0.81535
0.914407
0.99798
0.999997
0.999997
0.999997
0.999997
0.999997
0.999997
0.999997
0.999997
0.999997
0.999997
0.999997
6.24509e-06
1.77484e-05
2.89634e-05
2.16819e-05
6.26383e-06
1.20702e-05
3.6128e-05
3.77937e-05
3.02326e-05
7.32476e-06
5.65155e-07
4.08562e-08
4.08562e-08
4.35319e-08
5.8911e-08
7.3344e-08
1.37856e-07
2.03672e-07
2.01509e-07
9.78878e-07
2.28628e-05
6.65786e-05
6.81522e-05
3.20797e-05
3.54788e-06
1.3511e-07
1.3511e-07
2.32682e-07
1.32564e-06
8.00143e-06
8.50823e-06
3.06259e-06
6.37491e-07
2.28368e-06
4.03288e-06
1.89528e-06
2.11641e-07
4.45926e-08
9.6352e-08
1.39384e-07
8.54689e-08
1.15298e-08
1.02691e-09
1.07494e-09
1.37612e-09
1.66749e-09
1.44424e-09
2.59468e-09
1.4563e-08
2.89246e-08
3.74357e-08
2.82237e-08
1.18473e-08
1.92332e-09
2.70699e-10
2.80297e-10
9.86052e-08
1.46728e-06
1.80335e-06
1.72652e-06
9.27036e-06
2.02101e-05
1.42301e-05
5.12225e-06
4.31429e-07
2.56633e-07
3.18225e-07
3.47159e-07
4.40782e-07
4.0343e-07
1.42919e-06
2.5248e-05
5.91079e-05
3.23918e-05
3.30493e-05
0.000160301
0.00019312
7.56738e-05
7.56512e-05
0.000576992
0.00490207
0.0259173
0.000237978
0.000325401
0.000259765
0.00056202
0.000604854
0.000536486
0.000309611
8.27094e-05
8.25503e-05
0.000155143
0.000156319
0.000106992
0.000126944
0.000302548
0.000588867
0.000752279
0.00111709
0.00186016
0.00163856
0.00179652
0.00448288
0.00261198
0.00180519
0.015534
0.134589
0.262504
0.271214
0.789542
0.997146
0.999795
0.999795
0.999751
0.9965
0.933331
0.609067
0.374554
0.380873
0.389703
0.303129
0.422371
0.883795
0.999997
0.999997
0.999997
0.999997
0.999997
0.999997
0.999995
0.999972
0.999851
0.998085
0.97905
3.38768e-06
3.49675e-06
3.89438e-06
3.89827e-06
1.50881e-05
3.83685e-05
3.83684e-05
2.9337e-05
5.37083e-06
4.08562e-08
4.08562e-08
4.08562e-08
4.08562e-08
4.08562e-08
4.08562e-08
4.08562e-08
5.15024e-08
1.72487e-07
1.73093e-07
2.87487e-07
3.42783e-06
4.36287e-05
6.81158e-05
5.54359e-05
1.43699e-05
2.21922e-07
1.70035e-07
4.04178e-07
3.04206e-06
1.40136e-05
1.33783e-05
5.03943e-06
4.98212e-07
1.14648e-06
2.96838e-06
1.84097e-06
4.02305e-07
2.79341e-07
4.62127e-07
4.2231e-07
1.15424e-07
1.15337e-09
1.02719e-09
1.43005e-09
1.95657e-09
3.46798e-09
8.3618e-09
3.45401e-08
7.15773e-08
8.35402e-08
7.21462e-08
3.37594e-08
1.1699e-08
1.1952e-09
2.707e-10
3.14142e-07
2.48691e-06
6.29349e-06
7.40448e-06
7.1159e-06
4.08592e-06
3.04578e-06
1.79516e-06
5.48845e-07
2.86588e-07
2.6694e-07
6.20197e-07
1.55131e-06
4.58543e-06
5.99018e-06
2.9014e-06
4.74625e-06
2.46643e-05
2.45351e-05
2.56044e-05
0.000119695
0.000312451
0.000160594
0.000127796
0.00108137
0.00305444
0.000644462
0.000237942
0.000254545
0.000260189
0.000166006
9.10364e-05
6.57193e-05
6.40293e-05
6.40293e-05
0.000105809
0.000212306
0.000153963
5.26263e-05
1.24507e-05
5.12171e-06
2.14117e-06
9.42348e-07
1.16319e-06
1.81879e-06
1.78958e-06
1.47216e-06
1.58882e-06
1.6428e-06
9.86434e-06
0.000239645
0.00832956
0.0376512
0.0219312
0.0947085
0.70425
0.969933
0.998393
0.996358
0.95459
0.574776
0.149918
0.0794419
0.124954
0.107574
0.0200973
0.0318902
0.284147
0.878207
0.993465
0.999997
0.998731
0.979554
0.929072
0.966275
0.997692
0.995558
0.954324
0.737549
2.84518e-06
2.84518e-06
2.84518e-06
1.28696e-05
3.95448e-05
3.95449e-05
3.34379e-05
6.36807e-06
4.08562e-08
4.08562e-08
4.08562e-08
4.08562e-08
4.08562e-08
4.08562e-08
4.08562e-08
4.08562e-08
4.08562e-08
2.54421e-07
4.83482e-07
3.38138e-07
7.27596e-07
1.05473e-05
5.70529e-05
8.53439e-05
3.93309e-05
6.09964e-06
8.89035e-07
1.35375e-06
7.00789e-06
1.42116e-05
1.42104e-05
6.25266e-06
5.02108e-07
2.25287e-07
6.03336e-07
1.70836e-06
2.52972e-06
2.39685e-06
1.47867e-06
3.43263e-07
8.52692e-10
8.90222e-10
1.34938e-09
1.65279e-09
1.86228e-09
3.70501e-09
2.1725e-08
9.6959e-08
9.6984e-08
9.48385e-08
5.65969e-08
3.3737e-08
1.61171e-07
1.01231e-06
2.03669e-06
4.59125e-06
8.66979e-06
9.16874e-06
9.1692e-06
9.16874e-06
8.34781e-06
3.77005e-06
1.08821e-06
1.08984e-06
1.20312e-06
1.09224e-06
9.09156e-07
2.76813e-06
1.15122e-05
1.68484e-05
8.11042e-06
4.75064e-06
1.34106e-05
2.45143e-05
3.42867e-05
5.75497e-05
0.000198809
0.000175631
4.57453e-05
0.000123089
0.00100425
0.000322897
0.000473586
0.000710806
0.000710972
0.000620575
0.000274977
6.41659e-05
6.40293e-05
0.000100503
0.000373334
0.000395871
0.000331284
4.90724e-05
5.61993e-09
1.05774e-08
1.1585e-07
2.00104e-07
6.70433e-07
1.36973e-06
8.83599e-07
4.82269e-07
5.39544e-07
8.83384e-07
6.36204e-06
4.01252e-05
0.000102653
0.000110589
0.000215561
0.000390915
0.0508861
0.251116
0.591513
0.722997
0.483018
0.0878265
0.00221634
0.00296105
0.00775283
0.00217805
0.000154429
0.00010967
0.0130451
0.256778
0.638718
0.820591
0.845991
0.670958
0.43915
0.559208
0.82132
0.815056
0.513232
0.121139
2.84518e-06
2.84518e-06
1.39812e-05
4.00798e-05
4.0081e-05
3.66002e-05
8.60859e-06
4.08563e-08
4.08563e-08
4.84393e-08
6.53203e-08
6.04671e-08
4.09393e-08
4.09562e-08
1.10938e-07
4.1009e-07
2.31543e-07