/*--------------------------------*- C++ -*----------------------------------*\
| =========                 |                                                 |
| \\      /  F ield         | OpenFOAM: The Open Source CFD Toolbox           |
|  \\    /   O peration     | Version:  v1912                                 |
|   \\  /    A nd           | Website:  www.openfoam.com                      |
|    \\/     M anipulation  |                                                 |
\*---------------------------------------------------------------------------*/
FoamFile
{
    version     2.0;
    format      ascii;
    class       volVectorField;
    location    "100";
    object      U;
}
// * * * * * * * * * * * * * * * * * * * * * * * * * * * * * * * * * * * * * //

dimensions      [0 1 -1 0 0 0 0];


internalField   uniform (0 0 0);

boundaryField
{
    atmosphere
    {
        type            pressureInletOutletVelocity;
        value           nonuniform List<vector> 
164
(
(-0.00864187 0.0124487 0)
(-0.0087026 0.0373007 0)
(-0.00882586 0.0626711 0)
(-0.0088955 0.0885446 0)
(-0.00883642 0.114706 0)
(-0.00858109 0.140745 0)
(-0.00807144 0.166073 0)
(-0.00726951 0.189971 0)
(-0.00616124 0.211645 0)
(-0.00475928 0.2303 0)
(-0.00310178 0.245206 0)
(-0.00124804 0.255763 0)
(0.000727976 0.261539 0)
(0.00274497 0.262305 0)
(0.00472171 0.258032 0)
(0.00658327 0.248888 0)
(0.00826547 0.235208 0)
(0.00971772 0.21747 0)
(0.0109037 0.196249 0)
(0.0118009 0.172193 0)
(0.0123986 0.145986 0)
(0.0126962 0.118323 0)
(0.0126994 0.0898939 0)
(0.0124219 0.061366 0)
(0.011879 0.0333777 0)
(0.0110896 0.00653015 0)
(0 -0.018617 0)
(0 -0.041553 0)
(0 -0.0618241 0)
(0 -0.0790459 0)
(0 -0.0929194 0)
(0 -0.10325 0)
(0 -0.109966 0)
(0 -0.113124 0)
(0 -0.112939 0)
(0 -0.109739 0)
(0 -0.103974 0)
(0 -0.0961662 0)
(0 -0.08687 0)
(0 -0.0766213 0)
(0 -0.0658907 0)
(0 -0.0550442 0)
(0 -0.0443182 0)
(0 -0.0338114 0)
(0 -0.0234949 0)
(0 -0.013238 0)
(0 -0.0028454 0)
(-0.00499753 0.00789844 0)
(-0.00515301 0.0191851 0)
(-0.0053364 0.0311432 0)
(-0.00550125 0.0438085 0)
(-0.0055976 0.0571071 0)
(-0.00557758 0.0708523 0)
(-0.00540115 0.0847543 0)
(-0.00504031 0.0984413 0)
(-0.00448194 0.111488 0)
(-0.00372869 0.123451 0)
(-0.00279805 0.133897 0)
(-0.0017201 0.142441 0)
(-0.000534443 0.148764 0)
(0.000713493 0.152634 0)
(0.00197613 0.153914 0)
(0.0032071 0.152566 0)
(0.0043644 0.148644 0)
(0.00541296 0.142288 0)
(0.00632698 0.133702 0)
(0.00709161 0.123139 0)
(0.00770394 0.110875 0)
(0.00817332 0.0971838 0)
(0.00852015 0.0823114 0)
(0.00877419 0.0664532 0)
(0.00896942 0.0497372 0)
(0.0091441 0.0322124 0)
(0.00933132 0.0138506 0)
(0 -0.00544382 0)
(0 -0.0258106 0)
(0 -0.0474012 0)
(0 -0.0703375 0)
(0 -0.094667 0)
(0 -0.120327 0)
(0 -0.147109 0)
(0 -0.174642 0)
(0 -0.202386 0)
(0 -0.229635 0)
(0 -0.25555 0)
(0 -0.279177 0)
(0 -0.299528 0)
(0 -0.315608 0)
(0 -0.326532 0)
(0 -0.331551 0)
(0 -0.330167 0)
(0 -0.322136 0)
(0 -0.307516 0)
(0 -0.286644 0)
(0 -0.260069 0)
(0 -0.228538 0)
(0 -0.192848 0)
(0 -0.15385 0)
(0 -0.112341 0)
(0 -0.0690804 0)
(0 -0.024774 0)
(-0.0214588 0.0199437 0)
(-0.0203528 0.0643913 0)
(-0.0189248 0.107927 0)
(-0.0171846 0.149861 0)
(-0.0151275 0.189529 0)
(-0.0127946 0.226245 0)
(-0.0102278 0.259378 0)
(-0.00749007 0.288382 0)
(-0.0046553 0.312826 0)
(-0.00180722 0.332435 0)
(0.00097762 0.34709 0)
(0.00362614 0.35681 0)
(0.00608098 0.36177 0)
(0.00830543 0.362221 0)
(0.0102783 0.358497 0)
(0.0120009 0.350942 0)
(0.0134838 0.3399 0)
(0.014752 0.325681 0)
(0.0158295 0.308532 0)
(0.0167452 0.288674 0)
(0.0175164 0.266233 0)
(0.0181611 0.241361 0)
(0.0186753 0.214109 0)
(0.0190703 0.184635 0)
(0.0192848 0.15301 0)
(0.019347 0.119431 0)
(0.0192332 0.0840646 0)
(0.0189184 0.0472599 0)
(0.0183572 0.00930886 0)
(0 -0.0293359 0)
(0 -0.0681525 0)
(0 -0.106661 0)
(0 -0.144162 0)
(0 -0.180116 0)
(0 -0.213725 0)
(0 -0.24447 0)
(0 -0.271568 0)
(0 -0.294633 0)
(0 -0.313096 0)
(0 -0.326816 0)
(0 -0.335542 0)
(0 -0.339546 0)
(0 -0.338908 0)
(0 -0.3343 0)
(0 -0.326092 0)
(0 -0.315106 0)
(0 -0.301901 0)
(0 -0.28715 0)
(0 -0.271386 0)
(0 -0.254939 0)
(0 -0.238075 0)
(0 -0.220736 0)
(0 -0.202876 0)
(0 -0.184149 0)
(0 -0.16426 0)
(0 -0.142848 0)
(0 -0.119738 0)
(0 -0.094789 0)
(0 -0.0681124 0)
(0 -0.0398682 0)
(0 -0.0106642 0)
(-0.00996886 0.0195606 0)
(-0.00863653 0.049274 0)
)
;
    }
    inlet
    {
        type            waveVelocity;
        refValue        nonuniform List<vector> 
87
(
(0.453096 0.0739087 0)
(0.449532 0.0497139 0)
(0.447352 0.0258009 0)
(0.446548 0.00203407 0)
(0.447117 -0.0217212 0)
(0.449061 -0.0455996 0)
(0.452387 -0.0697364 0)
(0.457108 -0.0942683 0)
(0.463243 -0.119334 0)
(0.470816 -0.145076 0)
(0.479858 -0.171639 0)
(0.490406 -0.199172 0)
(0.502506 -0.227829 0)
(0.516212 -0.257771 0)
(0.526435 -0.278854 0)
(0.532093 -0.290162 0)
(0.53797 -0.301673 0)
(0.544069 -0.313396 0)
(0.550395 -0.325338 0)
(0.556951 -0.337507 0)
(0.563742 -0.349911 0)
(0.571025 -0.36301 0)
(0.578831 -0.376838 0)
(0.586924 -0.390965 0)
(0.595311 -0.405402 0)
(0.603998 -0.420158 0)
(0.612992 -0.435244 0)
(0.622303 -0.450671 0)
(0.631939 -0.46645 0)
(0.641908 -0.48259 0)
(0.652221 -0.499104 0)
(0.662888 -0.516001 0)
(0.673919 -0.533292 0)
(0.685327 -0.550989 0)
(0.697124 -0.569101 0)
(0.709322 -0.58764 0)
(0.721937 -0.606616 0)
(0.734982 -0.62604 0)
(0.745696 -0.641842 0)
(0 0 0)
(0 0 0)
(0 0 0)
(0 0 0)
(0 0 0)
(0 0 0)
(0 0 0)
(0 0 0)
(0 0 0)
(0 0 0)
(0 0 0)
(0 0 0)
(0 0 0)
(0 0 0)
(0 0 0)
(0 0 0)
(0 0 0)
(0 0 0)
(0 0 0)
(0 0 0)
(0 0 0)
(0 0 0)
(0 0 0)
(0 0 0)
(0 0 0)
(0 0 0)
(0 0 0)
(0 0 0)
(0 0 0)
(0 0 0)
(0 0 0)
(0 0 0)
(0 0 0)
(0 0 0)
(0 0 0)
(0 0 0)
(0 0 0)
(0 0 0)
(0 0 0)
(0 0 0)
(0 0 0)
(0 0 0)
(0 0 0)
(0 0 0)
(0 0 0)
(0 0 0)
(0 0 0)
(0 0 0)
)
;
        refGradient     uniform ( 0 0 0 );
        valueFraction   uniform 1;
        value           nonuniform List<vector> 
87
(
(0.453096 0.0739087 0)
(0.449532 0.0497139 0)
(0.447352 0.0258009 0)
(0.446548 0.00203407 0)
(0.447117 -0.0217212 0)
(0.449061 -0.0455996 0)
(0.452387 -0.0697364 0)
(0.457108 -0.0942683 0)
(0.463243 -0.119334 0)
(0.470816 -0.145076 0)
(0.479858 -0.171639 0)
(0.490406 -0.199172 0)
(0.502506 -0.227829 0)
(0.516212 -0.257771 0)
(0.526435 -0.278854 0)
(0.532093 -0.290162 0)
(0.53797 -0.301673 0)
(0.544069 -0.313396 0)
(0.550395 -0.325338 0)
(0.556951 -0.337507 0)
(0.563742 -0.349911 0)
(0.571025 -0.36301 0)
(0.578831 -0.376838 0)
(0.586924 -0.390965 0)
(0.595311 -0.405402 0)
(0.603998 -0.420158 0)
(0.612992 -0.435244 0)
(0.622303 -0.450671 0)
(0.631939 -0.46645 0)
(0.641908 -0.48259 0)
(0.652221 -0.499104 0)
(0.662888 -0.516001 0)
(0.673919 -0.533292 0)
(0.685327 -0.550989 0)
(0.697124 -0.569101 0)
(0.709322 -0.58764 0)
(0.721937 -0.606616 0)
(0.734982 -0.62604 0)
(0.745696 -0.641842 0)
(0 0 0)
(0 0 0)
(0 0 0)
(0 0 0)
(0 0 0)
(0 0 0)
(0 0 0)
(0 0 0)
(0 0 0)
(0 0 0)
(0 0 0)
(0 0 0)
(0 0 0)
(0 0 0)
(0 0 0)
(0 0 0)
(0 0 0)
(0 0 0)
(0 0 0)
(0 0 0)
(0 0 0)
(0 0 0)
(0 0 0)
(0 0 0)
(0 0 0)
(0 0 0)
(0 0 0)
(0 0 0)
(0 0 0)
(0 0 0)
(0 0 0)
(0 0 0)
(0 0 0)
(0 0 0)
(0 0 0)
(0 0 0)
(0 0 0)
(0 0 0)
(0 0 0)
(0 0 0)
(0 0 0)
(0 0 0)
(0 0 0)
(0 0 0)
(0 0 0)
(0 0 0)
(0 0 0)
(0 0 0)
)
;
    }
    outlet
    {
        type            pressureInletOutletVelocity;
        value           nonuniform 0();
    }
    bottom
    {
        type            slip;
    }
    frontBack
    {
        type            empty;
    }
    procBoundary0to1
    {
        type            processor;
        value           uniform (0 0 0);
    }
}


// ************************************************************************* //
