/*--------------------------------*- C++ -*----------------------------------*\
| =========                 |                                                 |
| \\      /  F ield         | OpenFOAM: The Open Source CFD Toolbox           |
|  \\    /   O peration     | Version:  v1912                                 |
|   \\  /    A nd           | Website:  www.openfoam.com                      |
|    \\/     M anipulation  |                                                 |
\*---------------------------------------------------------------------------*/
FoamFile
{
    version     2.0;
    format      ascii;
    class       volScalarField;
    location    "60";
    object      p_rgh;
}
// * * * * * * * * * * * * * * * * * * * * * * * * * * * * * * * * * * * * * //

dimensions      [1 -1 -2 0 0 0 0];


internalField   nonuniform List<scalar> 
14268
(
70.4959
83.6747
85.2059
76.4115
60.174
42.6364
30.0725
25.541
29.2008
39.3503
51.6778
60.8995
63.0263
56.9548
44.2675
29.106
19.3546
17.3319
21.3472
29.204
33.5259
33.4961
30.3157
28.0708
28.5837
29.3517
25.2288
8.73558
-26.6613
-86.6269
-168.762
-227.541
-259.495
-246.122
-203.56
-170.593
-139.616
-111.495
-88.0327
-69.8719
-57.2988
-50.1092
-48.6254
-51.4336
70.4968
83.6759
85.2069
76.4121
60.1741
42.6359
30.0717
25.5401
29.2002
39.3501
51.6781
60.9002
63.0271
56.9554
44.2676
29.1054
19.3539
17.3313
21.347
29.2043
33.5262
33.4963
30.3155
28.0705
28.5835
29.352
25.2297
8.73665
-26.6604
-86.6277
-168.764
-227.545
-259.498
-246.125
-203.561
-170.594
-139.616
-111.494
-88.0321
-69.8713
-57.2982
-50.1088
-48.6248
-51.4697
70.4987
83.6782
85.2091
76.4134
60.1742
42.6349
30.0701
25.5384
29.1989
39.3497
51.6787
60.9016
63.0288
56.9566
44.2679
29.1043
19.3527
17.3299
21.3464
29.2047
33.527
33.4968
30.3152
28.0699
28.5834
29.3528
25.2316
8.73879
-26.6581
-86.6281
-168.769
-227.553
-259.505
-246.131
-203.563
-170.595
-139.616
-111.494
-88.0312
-69.8702
-57.2971
-50.1077
-48.6241
-51.4716
70.5016
83.6817
85.2123
76.4155
60.1744
42.6335
30.0677
25.5358
29.1971
39.3492
51.6797
60.9037
63.0312
56.9584
44.2683
29.1027
19.3507
17.328
21.3457
29.2055
33.5282
33.4975
30.3148
28.069
28.5831
29.354
25.2345
8.74289
-26.6551
-86.6297
-168.776
-227.566
-259.516
-246.139
-203.567
-170.595
-139.615
-111.492
-88.0296
-69.8685
-57.2953
-50.1063
-48.6224
-51.5029
70.5055
83.6864
85.2166
76.4182
60.1748
42.6317
30.0646
25.5325
29.1946
39.3485
51.6809
60.9065
63.0345
56.9609
44.2689
29.1006
19.3482
17.3254
21.3446
29.2064
33.5297
33.4985
30.3143
28.0679
28.5828
29.3558
25.2386
8.74866
-26.6511
-86.6316
-168.786
-227.582
-259.53
-246.151
-203.571
-170.597
-139.615
-111.491
-88.0276
-69.8663
-57.2931
-50.1041
-48.6207
-51.5068
70.5103
83.6924
85.2219
76.4215
60.1752
42.6294
30.0606
25.5283
29.1915
39.3476
51.6824
60.9101
63.0386
56.964
44.2696
29.0979
19.345
17.3221
21.3434
29.2077
33.5317
33.4997
30.3136
28.0665
28.5825
29.3579
25.2438
8.75398
-26.646
-86.6339
-168.798
-227.603
-259.548
-246.166
-203.576
-170.599
-139.614
-111.489
-88.025
-69.8635
-57.2901
-50.1017
-48.618
-51.533
70.5161
83.6994
85.2284
76.4256
60.1756
42.6266
30.0559
25.5232
29.1878
39.3465
51.6843
60.9143
63.0435
56.9676
44.2704
29.0948
19.3411
17.3182
21.3418
29.2091
33.5341
33.5012
30.3128
28.0648
28.5821
29.3604
25.2499
8.76169
-26.6399
-86.6368
-168.812
-227.627
-259.57
-246.184
-203.584
-170.601
-139.613
-111.487
-88.022
-69.86
-57.2868
-50.0985
-48.6154
-51.5389
70.5228
83.7077
85.2359
76.4303
60.1762
42.6234
30.0503
25.5173
29.1835
39.3453
51.6865
60.9192
63.0493
56.9719
44.2714
29.0911
19.3365
17.3137
21.34
29.2109
33.5368
33.5029
30.3118
28.0628
28.5816
29.3634
25.2565
8.77216
-26.6327
-86.6401
-168.828
-227.656
-259.595
-246.205
-203.592
-170.603
-139.613
-111.484
-88.0184
-69.8561
-57.2826
-50.095
-48.6116
-51.5602
70.5306
83.7171
85.2445
76.4357
60.1769
42.6197
30.044
25.5105
29.1786
39.3439
51.689
60.9249
63.0559
56.9768
44.2725
29.0869
19.3313
17.3085
21.338
29.2128
33.54
33.5049
30.3107
28.0605
28.581
29.3668
25.2645
8.78072
-26.6248
-86.6439
-168.847
-227.69
-259.623
-246.228
-203.601
-170.606
-139.612
-111.481
-88.0143
-69.8516
-57.2781
-50.0908
-48.608
-51.568
70.5392
83.7278
85.2542
76.4418
60.1776
42.6155
30.0369
25.503
29.173
39.3423
51.6918
60.9312
63.0632
56.9824
44.2737
29.0822
19.3255
17.3026
21.3357
29.215
33.5435
33.5072
30.3095
28.0579
28.5803
29.3706
25.274
8.7922
-26.6156
-86.6482
-168.869
-227.727
-259.655
-246.255
-203.611
-170.609
-139.611
-111.478
-88.0097
-69.8465
-57.2728
-50.0863
-48.6033
-51.5848
70.5489
83.7396
85.2649
76.4486
60.1784
42.6109
30.0289
25.4945
29.1669
39.3405
51.6949
60.9382
63.0715
56.9885
44.2751
29.077
19.319
17.2961
21.3331
29.2175
33.5475
33.5096
30.3082
28.055
28.5796
29.3746
25.2838
8.80674
-26.605
-86.6528
-168.893
-227.768
-259.691
-246.285
-203.622
-170.612
-139.61
-111.474
-88.0046
-69.8408
-57.2671
-50.081
-48.5987
-51.5938
70.5595
83.7526
85.2767
76.456
60.1793
42.6058
30.0202
25.4852
29.1601
39.3385
51.6983
60.9461
63.0805
56.9953
44.2767
29.0713
19.3118
17.289
21.3303
29.2202
33.5518
33.5124
30.3067
28.0519
28.5789
29.3792
25.2951
8.81908
-26.5946
-86.6582
-168.919
-227.814
-259.73
-246.317
-203.635
-170.616
-139.609
-111.47
-87.999
-69.8347
-57.2607
-50.0754
-48.593
-51.6068
70.5711
83.7667
85.2896
76.4642
60.1802
42.6002
30.0107
25.4751
29.1527
39.3364
51.702
60.9544
63.0904
57.0026
44.2784
29.065
19.304
17.2811
21.3272
29.2231
33.5566
33.5153
30.305
28.0485
28.578
29.3845
25.3073
8.83311
-26.5831
-86.664
-168.948
-227.863
-259.773
-246.353
-203.648
-170.62
-139.608
-111.466
-87.9928
-69.8278
-57.2538
-50.0692
-48.5873
-51.6161
70.5836
83.7821
85.3036
76.473
60.1813
42.5942
30.0004
25.4642
29.1447
39.3341
51.7061
60.9637
63.1011
57.0106
44.2802
29.0582
19.2955
17.2727
21.3239
29.2263
33.5617
33.5185
30.3033
28.0447
28.5772
29.3893
25.3183
8.8519
-26.5683
-86.6698
-168.978
-227.917
-259.82
-246.391
-203.663
-170.625
-139.606
-111.461
-87.9862
-69.8205
-57.2463
-50.0625
-48.5808
-51.6265
70.6039
83.8069
85.3262
76.4872
60.1829
42.5844
29.9838
25.4464
29.1317
39.3303
51.7126
60.9783
63.1183
57.0235
44.2831
29.0473
19.2818
17.259
21.3185
29.2315
33.57
33.5237
30.3004
28.0387
28.5757
29.3969
25.3388
8.87829
-26.5472
-86.6798
-169.028
-228.004
-259.895
-246.453
-203.686
-170.632
-139.604
-111.453
-87.9753
-69.8086
-57.2342
-50.0516
-48.5705
-51.6393
70.6348
83.8448
85.3606
76.5088
60.1855
42.5696
29.9584
25.4194
29.112
39.3247
51.7226
61.0014
63.1447
57.0432
44.2876
29.0305
19.2609
17.2382
21.3104
29.2394
33.5827
33.5316
30.296
28.0294
28.5732
29.4109
25.3718
8.91958
-26.52
-86.6957
-169.105
-228.137
-260.009
-246.548
-203.722
-170.642
-139.6
-111.441
-87.9587
-69.7905
-57.2157
-50.0349
-48.5547
-51.6548
70.6695
83.8873
85.3993
76.5332
60.1884
42.5529
29.9299
25.389
29.0897
39.3182
51.7337
61.0261
63.1743
57.0653
44.2926
29.0117
19.2374
17.2147
21.3011
29.2483
33.5969
33.5406
30.2911
28.0191
28.5706
29.4259
25.4082
8.96896
-26.4769
-86.7119
-169.19
-228.286
-260.138
-246.654
-203.763
-170.654
-139.596
-111.428
-87.9404
-69.7703
-57.195
-50.0161
-48.5365
-51.6668
70.7082
83.9347
85.4424
76.5603
60.1916
42.5344
29.8982
25.3553
29.0652
39.3111
51.7462
61.0553
63.2072
57.0899
44.2982
28.9907
19.2114
17.1886
21.2909
29.2581
33.6127
33.5504
30.2854
28.0081
28.5696
29.4435
25.4493
9.01977
-26.4368
-86.7313
-169.286
-228.452
-260.281
-246.772
-203.809
-170.668
-139.592
-111.413
-87.9197
-69.7474
-57.172
-49.9954
-48.5171
-51.6761
70.7506
83.9866
85.4897
76.59
60.1951
42.5139
29.8632
25.318
29.0379
39.3032
51.7598
61.0853
63.2434
57.117
44.3044
28.9676
19.1827
17.1599
21.2797
29.269
33.6302
33.5614
30.2793
27.9937
28.5629
29.4624
25.4915
9.07434
-26.3935
-86.7523
-169.391
-228.635
-260.439
-246.901
-203.861
-170.683
-139.587
-111.397
-87.8979
-69.7228
-57.1464
-49.9718
-48.4944
-51.6828
70.7971
84.0436
85.5414
76.6226
60.199
42.4916
29.8252
25.2775
29.0084
39.2947
51.7749
61.1205
63.283
57.1465
44.3111
28.9422
19.1516
17.1285
21.2674
29.2809
33.6493
33.5734
30.2735
27.9825
28.5641
29.4828
25.5374
9.13578
-26.3414
-86.775
-169.506
-228.834
-260.611
-247.044
-203.91
-170.7
-139.582
-111.378
-87.8722
-69.6955
-57.119
-49.9475
-48.4712
-51.686
70.8472
84.1049
85.5974
76.6578
60.2031
42.4674
29.7838
25.2333
28.9761
39.2854
51.791
61.1559
63.3259
57.1786
44.3184
28.9145
19.1179
17.0945
21.254
29.2937
33.6693
33.5864
30.2654
27.9645
28.5554
29.4943
25.5911
9.20533
-26.2891
-86.7998
-169.631
-229.05
-260.798
-247.197
-203.964
-170.716
-139.577
-111.36
-87.8469
-69.6659
-57.0875
-49.9188
-48.4443
-51.6873
71.2443
84.5915
86.0394
76.936
60.2365
42.2775
29.4589
24.8883
28.7242
39.2132
51.9196
61.4562
63.6645
57.4316
44.3764
28.6949
18.8556
16.8271
21.15
29.395
33.8236
33.6884
30.189
27.7437
28.3532
29.5175
26.0545
9.72781
-25.8822
-86.9916
-170.619
-230.757
-262.269
-248.411
-204.476
-170.874
-139.538
-111.197
-87.6297
-69.4392
-56.8687
-49.7142
-48.2418
-51.6679
72.7114
86.3842
87.669
77.9572
60.3505
41.5665
28.2495
23.6087
27.7836
38.9416
52.3935
62.5149
64.9125
58.3618
44.5847
27.9679
17.7783
15.8315
20.7702
29.7806
34.4349
34.0707
29.9957
27.4372
28.4933
30.2544
27.4702
11.8086
-24.2351
-87.436
-174.489
-237.028
-267.595
-252.328
-205.835
-171.137
-139.562
-110.868
-86.8741
-68.4898
-55.9021
-48.8522
-47.4585
-51.166
74.9346
89.1149
90.1522
79.5097
60.5177
40.4781
26.4098
21.6655
26.3596
38.5333
53.1158
64.1835
66.8341
59.7966
44.9071
26.886
16.0939
14.3057
20.2014
30.3885
35.3862
34.6492
29.6355
26.6547
28.1388
31.0513
29.8017
14.449
-22.2655
-89.6121
-180.373
-247.267
-276.598
-259.944
-209.083
-171.905
-138.654
-109.469
-85.6803
-67.3572
-54.7614
-47.6965
-46.2574
-50.0693
77.9477
92.8216
93.5233
81.6065
60.7236
38.9764
23.8823
18.9967
24.4061
37.9682
54.1001
66.2842
69.4556
61.7561
45.3314
25.4004
13.7383
12.1866
19.4441
31.2612
36.7428
35.4619
29.1167
25.6471
27.8738
32.4415
33.0539
18.5984
-19.0795
-91.4594
-188.463
-259.759
-287.841
-268.265
-211.804
-173.251
-139.36
-109.114
-84.103
-65.3417
-52.7336
-45.8832
-44.6601
-48.6598
81.812
97.6015
97.8733
84.2972
60.964
37.0093
20.6116
15.555
21.8983
37.2453
55.3874
69.2456
72.9023
64.3319
45.8795
23.4591
10.6384
9.41841
18.4949
32.455
38.568
36.5198
28.3753
24.201
27.3016
34.009
37.1258
24.1003
-14.4024
-92.6645
-198.51
-277.914
-303.138
-280.627
-215.616
-172.757
-137.086
-106.715
-82.0633
-63.6186
-51.0182
-44.0691
-42.6546
-46.6301
86.585
103.523
103.267
87.6071
61.2157
34.523
16.4999
11.2286
18.7487
36.3235
56.994
72.8398
77.2211
67.5613
46.5326
20.9854
6.66343
5.88973
17.3577
34.0513
41.0026
37.8878
27.3638
22.2468
26.4405
35.94
42.1263
30.7697
-8.82713
-95.8157
-210.44
-295.1
-317.435
-293.693
-220.424
-175.717
-138.283
-105.727
-79.4909
-60.1265
-47.7503
-41.1533
-40.2062
-44.1818
92.3669
110.748
109.846
91.6066
61.4676
31.4335
11.4559
5.96368
14.9361
35.2114
58.9889
77.4165
82.6083
71.5936
47.324
17.895
1.67836
1.48921
16.0155
36.1347
44.1315
39.5708
25.9837
19.6094
25.1424
38.1573
48.182
39.0722
-1.3329
-96.8998
-218.373
-305.117
-352.077
-307.327
-226.052
-174.153
-135.308
-102.646
-76.8117
-58.2549
-45.5812
-38.8705
-37.4745
-41.2377
99.2136
119.429
117.742
96.3521
61.6931
27.6447
5.33683
-0.491479
10.2857
33.8255
61.3733
82.8289
89.1556
76.5106
48.2425
14.0707
-4.51369
-3.93174
14.4918
38.8695
48.2282
41.7051
24.1572
16.1363
23.2925
40.725
55.3761
49.4015
4.95151
-101.539
-224.416
-320.301
-359.954
-317.893
-231.247
-178.515
-136.046
-100.585
-72.4022
-52.6979
-40.7307
-34.8633
-34.1528
-37.8471
107.28
129.702
127.094
101.903
61.8553
23.0346
-1.97123
-7.74184
4.82012
32.194
64.2748
89.488
97.0955
82.4837
49.3011
9.37132
-12.159
-10.5288
12.7212
42.2308
53.3716
44.2756
21.7298
11.6571
20.9442
43.8255
63.4621
61.0329
20.1425
-90.4855
-227.942
-326.671
-393.287
-332.742
-235.129
-175.958
-133.76
-97.3861
-70.0194
-51.1123
-38.4926
-31.8487
-30.6573
-33.7258
116.705
141.953
138.176
108.369
61.9202
17.4316
-10.8607
-17.583
-1.78475
30.1805
67.6978
97.425
106.725
89.7376
50.532
3.63503
-21.5796
-18.7107
10.9227
46.8777
60.1081
47.5557
18.6025
5.72236
17.238
46.7451
73.2657
74.3399
31.7601
-89.7661
-225.668
-329.164
-378.291
-331.144
-241.25
-182.337
-133.686
-93.8089
-62.8823
-43.1331
-32.1439
-27.0711
-26.7537
-29.868
127.45
156.325
151.216
115.88
61.9689
11.0045
-20.7914
-27.5158
-9.51655
27.7741
71.7172
106.506
118.249
98.4769
51.9674
-3.25108
-32.7369
-28.4314
8.4788
52.2686
68.424
51.4644
14.5494
-1.30974
12.9135
49.7809
82.1815
85.8423
46.3589
-77.6546
-224.864
-336.112
-399.305
-348.421
-247.213
-181.786
-132.946
-90.8719
-61.2322
-41.6728
-29.2711
-23.1249
-21.7273
-23.9498
140.406
172.685
166.195
124.12
61.2768
2.47074
-33.6168
-40.1655
-18.5833
25.1223
76.7889
118.088
131.968
108.753
53.2055
-12.1161
-47.1621
-39.2443
6.46185
59.812
79.1957
56.4989
8.99626
-11.8785
6.6495
53.8342
92.0148
99.2826
55.3991
-67.5279
-222.017
-334.294
-393.798
-339.418
-252.478
-189.524
-135.748
-87.8327
-51.8056
-31.6516
-21.9916
-18.3654
-19.0866
-22.5326
154.498
193.657
184.633
134.843
61.6855
-6.20849
-47.5519
-60.738
-29.8526
21.1416
81.77
130.775
148.754
121.997
55.9235
-21.3958
-63.9351
-56.368
2.79727
68.7786
92.7843
63.0328
3.29536
-23.6604
-3.07659
53.1363
102.84
114.776
78.3877
-47.8773
-215.698
-340.507
-398.934
-362.781
-263.583
-195.886
-137.08
-83.9239
-49.039
-28.3486
-17.5311
-12.5317
-9.24884
-13.5206
236.18
277.461
265.463
208.867
129.548
58.7898
18.8425
13.9188
40.8447
95.1361
161.028
215.228
237.638
209.043
137.688
56.8083
16.2272
30.8063
99.3499
177.895
211.722
183.729
121.622
92.3023
117.006
188.331
263.484
316.877
339.209
289.021
138.388
-72.9683
-197
-212.034
-155.656
-94.2137
-33.8034
16.4818
44.9098
53.6662
51.5395
49.0997
49.9239
36.789
793.552
817.814
809.133
769.21
716.507
672.43
647.658
645.133
664.3
699.169
741.851
779.682
796.242
777.783
728.498
675.704
647.988
658.02
703.204
753.683
773.912
751.013
707.748
685.829
704.632
750.667
793.096
811.059
800.982
746.914
691.216
653.956
599.68
577.48
601.532
620.069
644.668
667.886
679.835
679.011
661.435
642.365
629.281
621.271
476.734
501.732
491.784
446.969
391.511
347.045
323.842
322.861
342.061
377.157
421.103
462.142
481.79
461.973
408.669
354.343
326.988
338.234
384.863
438.442
460.424
433.818
386.974
365.463
384.709
434.473
480.512
496.612
481.385
425.817
388.528
381.065
328.466
291.642
309.17
318.448
337.59
357.282
366.246
360.345
331.951
303.178
283.123
271.753
0.498803
0.399931
0.181421
0.131791
0.220876
0.327475
0.388384
0.385376
0.335929
0.242194
0.129371
0.0291994
-0.00726055
0.0363473
0.154472
0.293883
0.36366
0.323505
0.179098
0.0219478
-0.0347125
0.0439227
0.181228
0.254477
0.197235
0.0347903
-0.102886
-0.166807
-0.142806
-0.0600653
0.0505258
0.21517
0.268121
0.261818
0.230563
0.184172
0.0807018
-0.0401188
-0.122185
-0.156683
-0.152026
-0.169739
-0.320479
-0.505255
-0.206237
-0.273119
-0.252378
-0.143146
-0.00256099
0.127204
0.206209
0.230224
0.179834
0.0848507
-0.0280358
-0.125718
-0.174298
-0.133963
-0.00527876
0.146779
0.235888
0.219314
0.0827292
-0.0564538
-0.112709
-0.0412315
0.0887972
0.158292
0.11783
-0.0323139
-0.16464
-0.222437
-0.215214
-0.113755
-0.0049505
0.0886122
0.196261
0.277624
0.228194
0.168222
0.0712026
-0.0386614
-0.123267
-0.157693
-0.151323
-0.136801
-0.149894
-0.154099
-0.189674
-0.261699
-0.210779
-0.111637
0.00322795
0.111034
0.17505
0.179355
0.138237
0.0641638
-0.0258561
-0.105426
-0.133772
-0.0935328
0.0115586
0.132721
0.1957
0.168115
0.0663216
-0.0376849
-0.070118
-0.0169544
0.0803638
0.125269
0.0815419
-0.0388667
-0.144772
-0.197765
-0.17827
-0.0966951
0.0118179
0.139677
0.196394
0.205155
0.182781
0.137747
0.0592083
-0.0336562
-0.100002
-0.133954
-0.141589
-0.155188
-0.249706
-0.257918
-0.151633
-0.195199
-0.179377
-0.104586
-0.00205427
0.0943567
0.152365
0.167329
0.139112
0.0697209
-0.0104061
-0.0804263
-0.11043
-0.0804763
0.00515376
0.108041
0.165068
0.155681
0.0722056
-0.0173177
-0.0551593
-0.0178181
0.0610823
0.0998623
0.0711394
-0.0259532
-0.116099
-0.159135
-0.151905
-0.081975
0.0013884
0.0855069
0.157893
0.204838
0.183874
0.131278
0.0589184
-0.0223592
-0.0867291
-0.120632
-0.130622
-0.12135
-0.145221
-0.103252
-0.125973
-0.182609
-0.154374
-0.0852378
0.00207066
0.0840481
0.134149
0.143828
0.105297
0.0545323
-0.0117057
-0.0661249
-0.0874469
-0.059253
0.013891
0.0993813
0.145332
0.128616
0.0618014
-0.00987613
-0.0339849
-0.00474616
0.0572499
0.0839526
0.053976
-0.0294895
-0.105946
-0.140146
-0.128093
-0.0690019
0.0100925
0.102586
0.148628
0.1686
0.143835
0.110323
0.0521527
-0.0189761
-0.0743971
-0.106783
-0.121964
-0.130164
-0.184437
-0.190706
-0.10537
-0.137623
-0.123164
-0.0720628
0.00090748
0.0718625
0.116038
0.126306
0.108017
0.058722
0.00142048
-0.0490179
-0.0683945
-0.0455231
0.0133349
0.0832053
0.121842
0.116358
0.062815
0.004468
-0.0208789
-0.00174794
0.0446762
0.0644145
0.0428731
-0.0214289
-0.0828372
-0.114832
-0.10725
-0.058489
0.0058557
0.0710136
0.125561
0.153241
0.146179
0.105915
0.0488619
-0.0131399
-0.0645874
-0.0945809
-0.111463
-0.10783
-0.124042
-0.105122
-0.0827277
-0.123707
-0.109954
-0.0613906
0.00201213
0.0638372
0.102757
0.111733
0.0890916
0.0474934
-0.000418684
-0.0392325
-0.0535457
-0.0335815
0.0156578
0.0752211
0.10875
0.101704
0.0570977
0.00803236
-0.0106819
0.00364734
0.041145
0.0611997
0.0342282
-0.02204
-0.077032
-0.100852
-0.0912945
-0.0491533
0.00962495
0.0768942
0.115169
0.135403
0.118438
0.0890103
0.0448463
-0.00938925
-0.0549846
-0.0834117
-0.102207
-0.107898
-0.139482
-0.144182
-0.0677741
-0.0956472
-0.0830914
-0.0486247
0.00406415
0.0567823
0.0905345
0.0988257
0.0831842
0.0515806
0.00849076
-0.0265676
-0.0395956
-0.0231947
0.0173176
0.066402
0.0933068
0.0882713
0.0546981
0.0152915
-0.00195864
0.00741231
0.0346102
0.0447901
0.0269093
-0.0167661
-0.0598038
-0.0824189
-0.0754573
-0.0406681
0.00843556
0.0591721
0.0994385
0.119576
0.113753
0.0841593
0.041261
-0.00654443
-0.0484472
-0.0747873
-0.0931884
-0.0945154
-0.103406
-0.100214
-0.0509393
-0.0802204
-0.0802114
-0.0421073
0.004402
0.0501938
0.0799425
0.087638
0.0737929
0.0423082
0.00802765
-0.0198197
-0.0296714
-0.0154267
0.0183741
0.0593267
0.0827106
0.079622
0.0517926
0.0185351
0.00370553
0.00999099
0.0302884
0.0393536
0.0214308
-0.0163413
-0.0537045
-0.0718159
-0.0645264
-0.0339092
0.0100748
0.0598437
0.0907634
0.106573
0.0979371
0.0729526
0.0374771
-0.00416693
-0.0413663
-0.0656506
-0.0845616
-0.0896553
-0.107048
-0.108228
-0.0397865
-0.0639547
-0.0536536
-0.0303946
0.0072655
0.0464086
0.072004
0.0790905
0.0681013
0.0451169
0.0144479
-0.010613
-0.0196007
-0.00802775
0.0198009
0.0536897
0.0732946
0.0705063
0.0484764
0.0216572
0.00886121
0.0125815
0.027138
0.0328226
0.0175679
-0.0126698
-0.0431094
-0.0585424
-0.0525366
-0.0271716
0.0100104
0.0490643
0.07905
0.0941342
0.0888239
0.0671986
0.0347435
-0.00203695
-0.0363535
-0.0591794
-0.0765153
-0.0810933
-0.0876334
-0.0884337
-0.0270866
-0.049735
-0.0498992
-0.0258221
0.00755196
0.0413607
0.0638043
0.0702583
0.0609092
0.0391454
0.0139384
-0.00605193
-0.0129366
-0.00290716
0.0203636
0.0485904
0.0652382
0.0633947
0.0461171
0.0238035
0.0122421
0.0139232
0.0240176
0.027326
0.0137864
-0.0121704
-0.0380331
-0.0506891
-0.0449958
-0.0222543
0.0107311
0.047503
0.0720773
0.0843646
0.0793004
0.0595489
0.0314458
-0.000824004
-0.0315141
-0.0522169
-0.0690513
-0.0751848
-0.0842014
-0.0839359
-0.0185155
-0.038112
-0.0343623
-0.0161621
0.010666
0.0394275
0.0586776
0.0646606
0.0571065
0.0401455
0.0185075
0.00066467
-0.00568468
0.00236654
0.0214965
0.0448037
0.0588581
0.0575494
0.0435799
0.0251025
0.014954
0.0154163
0.0222145
0.0238844
0.0121334
-0.0088003
-0.0301727
-0.0408459
-0.0359063
-0.0169636
0.0108237
0.0406624
0.0630548
0.0748668
0.0709961
0.0542579
0.0290932
0.000523875
-0.0274746
-0.0468989
-0.0622639
-0.0682382
-0.0729172
-0.0734276
-0.00900936
-0.0270733
-0.0268539
-0.0132316
0.0109042
0.0357174
0.0525362
0.0578388
0.0515102
0.0365062
0.0182095
0.00370051
-0.00123596
0.00570928
0.0217419
0.041144
0.05306
0.0522617
0.0411353
0.0259655
0.0169196
0.0161467
0.0201148
0.0202267
0.00962773
-0.00836947
-0.0263826
-0.0351545
-0.0305803
-0.0134636
0.0111604
0.0385317
0.0579888
0.0672712
0.0636616
0.0486414
0.0265273
0.0013236
-0.0239239
-0.0416777
-0.0560318
-0.0627761
-0.06789
-0.0666423
-0.00215707
-0.0183818
-0.0185184
-0.00434816
0.0140348
0.0349338
0.0493197
0.0541846
0.0490025
0.0367076
0.0212559
0.00854887
0.00396025
0.00950031
0.0226391
0.0386017
0.048651
0.0481682
0.0391423
0.0265116
0.0183952
0.0169003
0.0190249
0.0182738
0.00909272
-0.00566345
-0.0204602
-0.0278198
-0.0238282
-0.0095494
0.0113602
0.0340162
0.0509809
0.0599267
0.0570447
0.0440769
0.0243369
0.00196105
-0.0208611
-0.037332
-0.0504512
-0.0568117
-0.0598301
-0.0596905
0.00484577
-0.0100015
-0.0111469
-0.00272969
0.0141946
0.0322715
0.0447564
0.0489944
0.0446802
0.0341847
0.0211286
0.0105732
0.00688895
0.0116445
0.0226484
0.0359234
0.0444113
0.0441941
0.0368971
0.0264458
0.019239
0.0171703
0.017696
0.01603
0.00770909
-0.00504036
-0.0175945
-0.0236086
-0.0198859
-0.0069591
0.0114926
0.0318002
0.047047
0.0540371
0.0513619
0.039852
0.0223264
0.00244359
-0.0181308
-0.0332521
-0.0453478
-0.0519286
-0.0552081
-0.0537388
0.0104492
-0.00322518
-0.00489507
0.00368189
0.0171115
0.0321847
0.0428036
0.0466098
0.0430522
0.0342498
0.0231441
0.0140272
0.0106118
0.014373
0.0233651
0.0342368
0.0413689
0.041305
0.0353156
0.0265664
0.0200595
0.017579
0.0170763
0.0149111
0.00762755
-0.0030126
-0.0132746
-0.0182565
-0.0150249
-0.0041344
0.0116524
0.0287568
0.0417455
0.0483334
0.0461562
0.0360639
0.0204643
0.00273489
-0.015786
-0.0297569
-0.0408283
-0.0469
-0.0491101
-0.0481936
0.0156421
0.00307521
0.00088861
0.00662387
0.0173451
0.0302924
0.0394325
0.0427233
0.0397566
0.0323397
0.0230251
0.0153493
0.012526
0.0156972
0.0232011
0.032243
0.0381981
0.0382507
0.0333264
0.0260281
0.020226
0.0175056
0.0162099
0.0135924
0.00701004
-0.00218905
-0.0109217
-0.0149934
-0.0119756
-0.00220899
0.0116668
0.026636
0.0384319
0.0437487
0.0416746
0.0327166
0.0188065
0.00298563
-0.0136821
-0.0265263
-0.0366675
-0.0425904
-0.0450439
-0.0434773
0.0201566
0.00841534
0.00574188
0.0103348
0.0201974
0.0306858
0.0383647
0.0412401
0.0387426
0.0324003
0.0244005
0.0177611
0.0151894
0.0176523
0.0237687
0.0311437
0.0360995
0.0361963
0.0320838
0.0259068
0.0206471
0.0177295
0.0158664
0.0130089
0.00712929
-0.000666768
-0.0078541
-0.0111709
-0.00854436
-0.000190878
0.0117438
0.0246063
0.0345165
0.0393186
0.0375888
0.0297491
0.0172779
0.00309541
-0.0118809
-0.0237101
-0.032993
-0.0384686
-0.0402561
-0.039058
0.0241549
0.0131913
0.010222
0.013515
0.0205301
0.0292914
0.0358561
0.0383139
0.0362292
0.030915
0.0242156
0.0186372
0.0163975
0.0184281
0.0234893
0.0295648
0.0336849
0.0337935
0.030344
0.0251251
0.0204332
0.0174724
0.0152964
0.0122905
0.00695426
0.0001899
-0.00590847
-0.00861301
-0.00618546
0.0012182
0.0116672
0.0228256
0.0316428
0.0357322
0.0340365
0.0270579
0.0159025
0.00320399
-0.0102647
-0.021118
-0.0296032
-0.0347974
-0.0367356
-0.0352595
0.0276928
0.0173906
0.0140809
0.0163381
0.0225532
0.0299629
0.0354035
0.0374368
0.0356148
0.0309758
0.0251814
0.0202894
0.0182807
0.0198126
0.0239175
0.0288482
0.0322278
0.0323325
0.0293892
0.0248582
0.0205837
0.0175675
0.0151252
0.0120329
0.00721715
0.00140174
-0.0036929
-0.00587263
-0.00374404
0.00265271
0.0116611
0.0212713
0.0288429
0.032321
0.0308272
0.0246353
0.0146349
0.00321317
-0.00888039
-0.0188529
-0.026624
-0.0314074
-0.0329578
-0.0317189
0.0307927
0.0211073
0.0175412
0.0188871
0.0233951
0.0290514
0.0335105
0.0352396
0.0337021
0.0298223
0.0249509
0.0208126
0.0190325
0.0202266
0.023578
0.0276018
0.0303971
0.0304407
0.0279249
0.0240486
0.0201982
0.0172427
0.0146912
0.0116127
0.00724532
0.00218475
-0.00213611
-0.00390285
-0.00196575
0.00366665
0.0115294
0.0198736
0.0264219
0.0294932
0.0280183
0.0224879
0.0135254
0.00324866
-0.0076252
-0.0167533
-0.02387
-0.0283478
-0.029955
-0.0286443
0.0335012
0.0244155
0.0205964
0.0211526
0.0246959
0.0296979
0.0334706
0.0347661
0.0333469
0.0298726
0.025613
0.0219546
0.0203305
0.0211878
0.0238726
0.0271047
0.0293329
0.0292973
0.0270895
0.0236764
0.0201537
0.0172372
0.0146072
0.0115651
0.00758528
0.00317119
-0.000494598
-0.0019125
-0.000207264
0.00467953
0.0114636
0.0186587
0.0242771
0.0268472
0.0255092
0.0205311
0.0124845
0.00320588
-0.00656927
-0.0149389
-0.0214476
-0.0255643
-0.0269484
-0.0258329
0.0359122
0.0273241
0.0233082
0.0231999
0.0257524
0.0292658
0.032057
0.0331161
0.0318952
0.0289814
0.0253612
0.0222423
0.0207571
0.0213646
0.023511
0.026106
0.027881
0.0278325
0.0259162
0.022901
0.0197065
0.016903
0.0142835
0.0113388
0.00771743
0.00385559
0.000727255
-0.000419428
0.00110832
0.00539453
0.0112973
0.0175396
0.0223612
0.0245793
0.0233125
0.0188206
0.0115907
0.0032133
-0.00558538
-0.0132398
-0.0192159
-0.0230451
-0.0244231
-0.0233448
0.0380587
0.0298798
0.0257041
0.0250273
0.0267641
0.0297081
0.0321021
0.0328929
0.0316965
0.0290082
0.025796
0.0230077
0.0216437
0.0220088
0.0236795
0.0257261
0.0270962
0.026946
0.0252088
0.0224961
0.0195488
0.0168323
0.014232
0.0113827
0.00806015
0.0046511
0.0019603
0.00103635
0.00237793
0.006101
0.01119
0.0165731
0.0206877
0.0225315
0.0212773
0.0172386
0.0107379
0.00314776
-0.00477845
-0.0117796
-0.017244
-0.020768
-0.0220159
-0.0210829
0.0399441
0.0321215
0.0278215
0.0266687
0.027683
0.0296996
0.0312565
0.0316681
0.0306008
0.028327
0.0255521
0.0231332
0.0218417
0.0220358
0.0233201
0.0249222
0.0259518
0.0257486
0.0241969
0.0217776
0.0190854
0.0165047
0.0139837
0.0112733
0.00824275
0.00523485
0.00291141
0.00215773
0.00334168
0.00659315
0.0110037
0.0156602
0.0191723
0.0207125
0.0195392
0.0158707
0.0100139
0.00314481
-0.0040136
-0.0104112
-0.0154376
-0.018708
-0.0199282
-0.0190934
0.0415949
0.0340852
0.0296982
0.0281316
0.0285353
0.029941
0.0312781
0.0315624
0.0304862
0.0283177
0.0258094
0.0236184
0.022427
0.0224387
0.0233808
0.0245876
0.0253267
0.0250417
0.0236004
0.0213799
0.0188696
0.0163901
0.0139333
0.0113396
0.0085471
0.00586489
0.00383717
0.00321766
0.0042504
0.00707238
0.0108668
0.0148714
0.0178507
0.0191034
0.017943
0.0145995
0.00931776
0.00308091
-0.00338745
-0.0092331
-0.0138392
-0.0168528
-0.017983
-0.0172694
0.0430351
0.0358023
0.0313536
0.0294315
0.0293094
0.0301374
0.0308142
0.0307766
0.0296653
0.0278016
0.025588
0.0236407
0.0224844
0.0223727
0.0230381
0.0239281
0.0244382
0.0240879
0.0227606
0.0207441
0.0184314
0.0160909
0.0137449
0.0113004
0.00874409
0.00635386
0.00457822
0.00405829
0.00495417
0.00740335
0.0106776
0.0141213
0.0166497
0.0176539
0.0165449
0.0134959
0.00872023
0.0030644
-0.00279819
-0.00814167
-0.012377
-0.0151759
-0.016284
-0.0156744
0.0442882
0.0373041
0.0328065
0.0305878
0.0300155
0.0303512
0.0307664
0.0306091
0.0295874
0.0277495
0.0257072
0.023913
0.0228255
0.0225866
0.0230048
0.0236036
0.0239006
0.0234773
0.0222179
0.020342
0.0181695
0.0159317
0.0136745
0.0113537
0.00899113
0.00683726
0.00526286
0.00481594
0.00558826
0.00770607
0.0105169
0.01346
0.0155868
0.0163685
0.0152882
0.0124854
0.00815939
0.00301613
-0.00230862
-0.00719057
-0.0110864
-0.0136711
-0.0147069
-0.0142129
0.0453706
0.0386093
0.0340782
0.031608
0.0306482
0.0305537
0.0305747
0.0301119
0.0289624
0.0273567
0.0255102
0.023875
0.0228083
0.0224761
0.0226941
0.0230712
0.0232028
0.0227248
0.0215365
0.0198037
0.0177847
0.015675
0.0135335
0.0113542
0.00918116
0.00724132
0.00584067
0.00544728
0.00610486
0.00792694
0.010337
0.012844
0.0146276
0.0152142
0.0141675
0.0115878
0.0076576
0.00297912
-0.00186349
-0.00632687
-0.00990519
-0.0123131
-0.0133349
-0.012934
0.0462984
0.039738
0.0351893
0.0325087
0.0312176
0.0307544
0.0304752
0.0299429
0.0289046
0.0272612
0.0255234
0.0239842
0.0229521
0.0225252
0.0225632
0.0227359
0.022713
0.0221735
0.021026
0.0193951
0.0174903
0.0154815
0.0134374
0.011377
0.0093624
0.00759999
0.00634122
0.00598369
0.00653761
0.00809933
0.0101582
0.0122808
0.0137645
0.014181
0.0131627
0.0107777
0.00719916
0.00293706
-0.00147611
-0.00556104
-0.00886626
-0.0110953
-0.0120613
-0.0117605
0.0470832
0.0407063
0.0361509
0.0332926
0.0317179
0.0309354
0.0303903
0.0296292
0.0284166
0.026956
0.0253451
0.0239113
0.0228981
0.0224085
0.0222947
0.0223179
0.0221622
0.021576
0.0204729
0.0189448
0.0171595
0.0152624
0.0133255
0.0113863
0.00951966
0.00791156
0.00677148
0.00643656
0.00689545
0.00822474
0.00997605
0.0117629
0.0129866
0.0132552
0.0122631
0.0100518
0.00678333
0.00289345
-0.00113555
-0.0048783
-0.00791819
-0.0100031
-0.0109553
-0.0107416
0.0477372
0.0415308
0.0369793
0.0339747
0.0321598
0.0311027
0.0303241
0.0294445
0.0282935
0.026818
0.0252773
0.0238969
0.0228881
0.0223181
0.0220738
0.0219603
0.0216975
0.0210678
0.0199926
0.0185411
0.0168513
0.0150514
0.0132131
0.0113868
0.00965197
0.00817607
0.00713444
0.00681243
0.00718389
0.00830617
0.0097882
0.0112811
0.0122772
0.0124185
0.0114505
0.00939475
0.00640268
0.00285004
-0.000834314
-0.0042696
-0.00708388
-0.0090228
-0.0099349
-0.00980393
0.0482714
0.0422221
0.0376822
0.0345571
0.0325367
0.0312433
0.0302583
0.0292445
0.0279907
0.0265745
0.0251089
0.0237998
0.0228108
0.0221869
0.0218385
0.0216052
0.0212449
0.0205765
0.019528
0.0181482
0.0165493
0.0148432
0.0131012
0.0113817
0.00976502
0.00840379
0.0074444
0.00712642
0.00741737
0.0083559
0.00960234
0.0108394
0.0116374
0.011669
0.0107233
0.00880651
0.0060588
0.00280361
-0.000573406
-0.00373068
-0.00632875
-0.00814603
-0.00904336
-0.00898946
0.0486957
0.0427934
0.0382735
0.0350518
0.0328599
0.0313636
0.0302016
0.0290697
0.0278163
0.0264041
0.0249807
0.0236977
0.0227037
0.0220301
0.0215899
0.0212598
0.0208191
0.0201175
0.01909
0.0177719
0.0162543
0.0146345
0.0129823
0.0113615
0.00985162
0.00858952
0.00769806
0.00737928
0.0075973
0.00837258
0.00941139
0.0104244
0.0110483
0.0109856
0.0100601
0.00826778
0.00573872
0.00275397
-0.000345224
-0.00325364
-0.00566357
-0.00736707
-0.00823285
-0.00824637
0.0490168
0.0432532
0.0387584
0.0354596
0.0331229
0.0314524
0.0301323
0.0288935
0.0275817
0.0261903
0.0248098
0.0235688
0.0225775
0.0218526
0.0213424
0.020921
0.0204114
0.0196825
0.0186735
0.01741
0.0159666
0.0144278
0.0128607
0.0113309
0.00991594
0.00873948
0.00790558
0.00758367
0.00773583
0.00836654
0.00922295
0.0100419
0.0105146
0.0103717
0.00946591
0.00778618
0.00545123