/*--------------------------------*- C++ -*----------------------------------*\
| =========                 |                                                 |
| \\      /  F ield         | OpenFOAM: The Open Source CFD Toolbox           |
|  \\    /   O peration     | Version:  v1912                                 |
|   \\  /    A nd           | Website:  www.openfoam.com                      |
|    \\/     M anipulation  |                                                 |
\*---------------------------------------------------------------------------*/
FoamFile
{
    version     2.0;
    format      ascii;
    class       volScalarField;
    location    "70";
    object      p;
}
// * * * * * * * * * * * * * * * * * * * * * * * * * * * * * * * * * * * * * //

dimensions      [1 -1 -2 0 0 0 0];


internalField   nonuniform List<scalar> 
14268
(
129700
129129
128515
127848
127119
126320
125445
124490
123455
122341
121151
119883
118537
117103
115564
113903
112101
110137
108006
105728
103347
100923
98530.2
96226.1
94035.7
91917.2
89825.8
87721.1
85577.4
83413.2
81286.1
79292.1
77525.6
76072.8
75003.8
74340.1
73981.3
73747.3
73473.3
73033.7
72340
71438.7
70359.6
69116.9
67712.9
66176.6
64567.6
62961.4
61428.9
60020
58755.7
57639
56663.7
55814.4
55064.7
54385.8
53746.7
53138.6
52556.1
52002.8
51485.2
51007.4
50571.5
50177.3
49822.3
49504.1
49221.6
48972.5
48753.3
48562.4
48398.2
48257.8
48137.2
48033.2
47942.7
47860.7
47781.6
47700.7
47613.4
47514.8
47400.6
47266.8
47110.9
46931.9
46730.4
46507.9
46267.5
46013.5
45751.6
45487.7
45227
44973.8
44731.4
44502.4
44287.5
44086.4
43898.9
43724.9
43563.7
43414.2
43275.3
43146.3
43027.3
42919.2
42822.8
42738.7
42665.8
42601.7
42542.5
42482.5
42415.1
42334.2
42234.9
42114.1
41970.2
41803
41613.6
41403.8
41176.1
40933.3
40678.2
40413.8
40141.3
39862.3
39579.4
39295.3
39011.2
38729.4
38451.1
38177.6
37909.6
37647.5
37391.1
37140.1
124982
124447
123869
123237
122542
121777
120936
120014
119011
117929
116769
115535
114225
112826
111322
109695
107924
105990
103884
101630
99271.2
96871
94506.1
92238.5
90090
88015.5
85966.4
83899.4
81787.3
79650.4
77547.7
75579.5
73843.4
72426.4
71400.1
70791.9
70488.2
70310.4
70085.9
69685.7
69020.8
68146.3
67096.3
65884.5
64509.7
63000
61417.5
59839.5
58338.8
56965.3
55738.2
54659.5
53722.7
52912.1
52201.7
51559.9
50957.2
50384.5
49836.8
49318.2
48835.5
48392.8
47992.2
47633.4
47313.7
47030.7
46783.5
46569.5
46385.4
46229.6
46100.5
45995.1
45909.4
45840.5
45784.9
45737.7
45693.4
45647.2
45594.5
45530.6
45450.8
45351.4
45229.8
45085.2
44917.8
44729.6
44523.5
44303.9
44076.3
43846.8
43620.7
43402
43194.3
42999.9
42819.8
42653.4
42500.6
42361.3
42234.8
42119.9
42015.7
41921.3
41837
41763.5
41701.8
41652.3
41614
41584.6
41560
41534.6
41501.7
41455.3
41390.5
41304.1
41194.7
41062
40907
40731.7
40538.5
40330.2
40109.6
39879.8
39641.9
39397.4
39149.1
38899.5
38650
38402.8
38159.1
37920.1
37686.6
37459
37237
37020.5
120273
119775
119234
118639
117980
117249
116440
115550
114577
113525
112397
111195
109920
108559
107091
105497
103757
101848
99762.4
97522.2
95176
92790.2
90447.6
88219.1
86119.8
84099.4
82100.6
80074.9
77991.5
75873.2
73782.1
71827.6
70113.2
68728
67745
67209.5
66977.1
66877
66718.8
66365.9
65726.5
64873.8
63849.8
62668.3
61319.7
59829.6
58265.1
56708.3
55235.5
53895.9
52706.5
51667.2
50770.8
50001.3
49333.4
48730.5
48165.4
47628.6
47115.5
46631.1
46183
45775.3
45410.1
45086.8
44802.7
44555.2
44343.4
44164.6
44015.9
43895.4
43801.5
43731.3
43680.9
43647.1
43626.7
43614.6
43605.3
43594.1
43576.2
43546.9
43501.8
43436.9
43349.7
43239.2
43106
42951.9
42779.9
42594.3
42401
42205.7
42014
41829.9
41656.8
41497.2
41351.8
41220.1
41102
40997.5
40905.7
40825.6
40756
40696.2
40646.5
40607.7
40580.6
40565.8
40562.2
40567.4
40577.5
40586.8
40588.5
40576.6
40546.3
40494.3
40419.3
40321.1
40200.6
40059.7
39901
39727.1
39541.1
39345.8
39142.4
38932.5
38718.7
38503.7
38288.8
38076.1
37867
37662.5
37463.6
37270.5
37083
36900.9
115570
115113
114611
114054
113431
112735
111959
111099
110157
109134
108036
106867
105627
104305
102877
101318
99608.3
97721.2
95647.1
93410.4
91065.1
88683
86354.9
84169.6
82127.3
80172
78232.5
76251.3
74192.3
72083.2
69990
68035.8
66333.9
64976
64035.4
63591.1
63447.5
63448.2
63374.3
63076.2
62457.9
61620.6
60619.8
59468.7
58143.4
56665.7
55110.1
53567.1
52118
50811.6
49660.5
48661.9
47807.8
47081.6
46460.2
45897.7
45371.4
44870.6
44391.8
43941.2
43527.4
43154.7
42825
42537.5
42289.1
42077.3
41901.1
41757.9
41644.7
41559.7
41501.3
41466.4
41451.4
41453.1
41468.1
41491.4
41517.3
41541.2
41558.3
41563.9
41553.6
41523.2
41470.2
41393.9
41294.8
41174.7
41036.6
40884.9
40725.4
40564.3
40406.9
40257.2
40118.7
39993.9
39883.3
39786.4
39703
39633.3
39576.2
39530.8
39495.9
39470.9
39455.8
39451.6
39459.1
39479
39510.1
39550.1
39595
39639
39675.3
39698
39702.2
39684.7
39644.1
39580.2
39494.2
39387.7
39263.5
39124.1
38972.5
38811.8
38642.9
38467.6
38288.3
38108
37927.5
37749.5
37574.9
37405
37240.6
37082
36929
36781.2
110877
110462
110001
109484
108900
108239
107496
106666
105749
104753
103683
102547
101346
100067
98681.5
97160.5
95479.7
93611
91541.3
89296.8
86939.7
84549.1
82229.4
80083.8
78110.9
76233.4
74362.8
72430.7
70392
68281.6
66170.8
64202
62502.3
61167.5
60277
59926.3
59897.9
60025.9
60055.6
59820.6
59216.6
58386.8
57405.7
56286.3
54981.9
53508.8
51952.7
50415.4
48985.9
47711.8
46600.1
45643.5
44834
44153.2
43582.6
43061.7
42575.6
42111
41665.9
41248.6
40868.8
40531.1
40237.1
39985.5
39773.1
39597.4
39456.9
39349.4
39271.8
39222.5
39199.8
39200.5
39221.1
39258.5
39309.1
39368
39429.5
39488.7
39540.9
39581.6
39606.1
39610.2
39591.6
39549.3
39484.1
39397.8
39293.5
39175.6
39049.9
38922.8
38799.5
38684.3
38580.3
38490.2
38414.4
38352.3
38303.8
38268.8
38246.6
38235.9
38235.8
38245.4
38264.9
38295.3
38337.6
38392.2
38458.1
38532.8
38612.5
38691.2
38762.3
38819.6
38858.2
38875.2
38869
38839.5
38787.9
38715.8
38626
38521
38404
38277.8
38143.5
38002.6
37858
37712.2
37566.3
37422.8
37282.8
37147.4
37017.6
36893.5
36775
36661.6
106191
105821
105405
104930
104384
103760
103048
102249
101361
100391
99347.3
98240.7
97077.8
95845.3
94505.9
93023.8
91371.2
89516.1
87442.9
85179
82795.9
80383.6
78062.6
75960.1
74069.6
72286.8
70497.7
68618.2
66593.2
64468.7
62323.6
60324.4
58615.7
57300.1
56467.1
56211
56328.7
56612.7
56767.6
56603.1
56003.2
55169.8
54205.1
53121.4
51836.7
50359.5
48791.1
47251
45837.4
44595.8
43524.8
42611.6
41848.6
41218.6
40698.2
40222.7
39778
39349.8
38937.8
38553.1
38207
37904.3
37646.2
37430.9
37254.7
37115.1
37010.7
36939
36897.3
36883.9
36897
36933.5
36989.9
37063.2
37149.8
37244.5
37341.7
37436.4
37524
37599.9
37659.3
37698.1
37713.8
37705.5
37674
37621.4
37550.7
37466.4
37374.4
37281
37191.8
37110.8
37041.4
36986.1
36945.1
36917.8
36904.2
36904.1
36916.7
36940.8
36975.4
37019.7
37073.8
37138.9
37215.8
37305.1
37405.8
37515.5
37630
37743.6
37849.4
37941.3
38014.5
38065.9
38094.1
38098.9
38081.6
38044
37988.6
37918.1
37835.5
37743.7
37644
37537.7
37427.6
37316.4
37205.1
37096.2
36990.7
36889.9
36794.6
36705
36620.9
36542
101513
101190
100820
100389
99884.1
99296.7
98617.4
97842.8
96975.9
96027
95008.5
93934.4
92814.8
91635.5
90350
88910.6
87287.6
85443.5
83356.6
81056.3
78631.2
76181.2
73846.7
71794
70000
68330.6
66636.8
64816.7
62799.7
60646.3
58446.8
56397.4
54666.3
53364
52591.4
52446.1
52736.6
53210.4
53514.1
53429.9
52820.8
51969.6
51016.8
49976.8
48711.1
47218.7
45625.3
44072.5
42671.1
41462.8
40434.4
39566.1
38851.4
38278.6
37807.4
37381.3
36979.3
36587.3
36207.6
35854.8
35542
35274.4
35052.5
34873.6
34733.9
34630.7
34562.4
34526.7
34521.1
34543.8
34593
34665.5
34757.9
34867.3
34990.1
35121
35254.2
35384.5
35507.6
35618.8
35713.3
35786.9
35836.8
35862.4
35864.6
35845.5
35808.2
35757.2
35698.7
35638.9
35583.6
35536.9
35502.1
35481.5
35475.3
35483
35504.2
35539
35586.5
35645.5
35714.8
35793.8
35882.6
35982.3
36093.8
36217.9
36353.5
36498.1
36647.6
36796
36936.6
37063.1
37170.8
37256.7
37319.2
37358.5
37375.5
37372.2
37351.2
37315.1
37267
37209.7
37144.5
37072.8
36997.2
36920.6
36843.8
36769.5
36698.6
36632.3
36571.5
36516.5
36466.9
36422.4
96844.3
96579
96251.6
95865.7
95401.8
94850.9
94202.9
93454.6
92611.1
91683.4
90686.9
89641.4
88565.4
87442.8
86218
84823.6
83225.4
81381.9
79275.3
76928.2
74441.2
71935.2
69572.4
67578.7
65901.8
64374.1
62794.6
61038.2
59017.1
56816.1
54539.8
52419.3
50651.6
49356.2
48649
48630.2
49120.4
49824
50305.5
50310.3
49670.8
48780.7
47834.9
46849.4
45603.8
44084.2
42452.4
40877
39484.6
38311.7
37328.5
36506.4
35840.9
35331.3
34912.3
34537.8
34179.9
33823.9
33475.2
33153.4
32873.6
32641.2
32455.4
32313.5
32210.7
32144.1
32112.2
32112.6
32143.2
32202.3
32287.7
32396.4
32525
32670.8
32830.1
32997.3
33166.7
33333
33491.7
33638.4
33768.1
33876.4
33960.6
34020
34055.7
34069.9
34065.9
34048.1
34022.6
33996.6
33975
33962.5
33962.2
33976.4
34005.2
34047.8
34103.9
34173.6
34256
34349.9
34454
34567.7
34691.1
34825.4
34971.7
35130.6
35301
35480.6
35665.1
35848.5
36023.9
36185.1
36327.4
36447.6
36544.5
36618.1
36669.5
36700.5
36713.9
36712.2
36698.4
36675.7
36645
36607.8
36566.8
36524.7
36482.6
36442.8
36406.4
36374.8
36348.5
36328
36312.9
36302.7
92181.7
91974.1
91703.1
91357.2
90936.7
90427.8
89812.8
89090.7
88262.8
87345.5
86366.1
85349.7
84321.1
83263
82108.5
80766.2
79198.7
77357.8
75213.9
72792.5
70222.5
67638
65226.6
63300
61771.7
60412.3
58967.7
57283.6
55251.1
52979.7
50599.6
48380.9
46558.4
45262.1
44621.6
44746.5
45472.8
46454.6
47144.4
47249.3
46558.4
45601.4
44659.4
43752.9
42531.2
40965.3
39274.6
37662.9
36275.3
35141.4
34207.1
33432.7
32817.2
32377.1
32013.2
31693.1
31380.6
31059.8
30740.7
30448.8
30201.7
30004.6
29855.6
29750.7
29685
29655.3
29659.8
29696.6
29763.7
29859.3
29981.2
30126.1
30291.2
30473.6
30669.7
30873.6
31079.4
31281.8
31476.4
31658.7
31823.7
31966.8
32085.2
32178.3
32247.4
32294.9
32323.9
32339.2
32346.7
32353.9
32366
32387.6
32421.9
32471
32534.7
32612.2
32703.3
32808
32925.3
33054.1
33193
33341.4
33499.5
33668.4
33849.4
34043.1
34248.5
34463.1
34682.6
34901
35111.3
35307.3
35484
35638.7
35770
35877.8
35963.5
36028.8
36076.5
36109.2
36129.9
36141.6
36145.4
36142.8
36136.4
36128.9
36121.3
36116.1
36114.3
36117.2
36125.5
36139.5
36158.9
36183.1
87529.1
87375
87168.9
86871.9
86477.7
86015.3
85430.6
84724
83906
83005.5
82045.9
81057.1
80079.8
79091.9
78028.4
76745
75200.9
73341.9
71155.9
68650.9
65969.2
63278.4
60790
58947.3
57616.1
56457.1
55178.9
53575.4
51511.8
49137.7
46622.9
44281.2
42385.2
41082.1
40510.9
40797
41790.3
43111.5
44049.2
44266.9
43487.2
42421.2
41474.2
40669.9
39479.4
37849.8
36081.1
34423
33039.6
31950.7
31070
30344.7
29777.7
29416.4
29110
28847.5
28582
28295.7
28004.1
27740.7
27526
27364.7
27252.9
27185.3
27157
27164.3
27205.5
27278.8
27382.5
27514.8
27673.4
27854.8
28056.5
28275.8
28508.9
28749.8
28992.3
29231
29461.5
29679.6
29880.2
30058.2
30210.7
30337.5
30439.7
30520.2
30582.2
30630.3
30670.8
30710.6
30756.5
30812.2
30881.1
30965.1
31063.7
31176.3
31302.4
31442
31594.4
31758.1
31931.8
32114.9
32307.6
32511.2
32726.9
32955.4
33195.8
33445.5
33700.2
33953.6
34198.9
34429.6
34640.9
34829.9
34995.5
35137.7
35257.6
35357.2
35439.2
35506.3
35561.4
35607.6
35645.9
35677.8
35706
35733.1
35760.1
35789.4
35822.2
35859.6
35902.5
35951
36004.8
36063.5
82884.1
82791.1
82649.5
82428.9
82064.6
81630.3
81075.2
80394.3
79596.8
78695.7
77734.8
76767.1
75846.7
74948.5
73984.8
72772.6
71246.8
69366.1
67118.6
64497.2
61670.9
58850.9
56238.2
54501.7
53412.1
52508.4
51427.5
49920.6
47798.8
45295.6
42609.9
40099.4
38107.6
36782.5
36284.5
36748.3
38058.7
39792.9
41021.6
41363.2
40464.1
39236.9
38284.3
37631.8
36490.7
34764
32884.3
31159.4
29774.7
28738.8
27917.8
27243
26731
26441.8
26203.2
26002.2
25785.5
25532.1
25265.2
25028.9
24846.4
24721.1
24647
24617.4
24626.7
24671.3
24749.2
24859.2
24999.7
25168.9
25364.4
25582.5
25821
26077.4
26347.8
26625.9
26905.4
27180.5
27447.2
27701.3
27937.4
28150.4
28337.1
28497.4
28632.7
28746.1
28840.8
28921.5
28994.6
29067.3
29146.3
29236.2
29339.8
29458.7
29592.4
29740
29901.1
30075.8
30263.1
30461.8
30670.3
30888.2
31115.5
31353.8
31604.2
31867.6
32143
32427.8
32717.7
33006.3
33286.6
33552
33797.9
34021.3
34221.2
34397.6
34551.9
34685.8
34802.1
34903.5
34992.9
35073.6
35146.4
35212.8
35275.6
35337.2
35398.8
35462.7
35530
35602
35679.4
35762.4
35850.8
35943.9
78239.7
78212.4
78135.9
77979.6
77675.7
77260.1
76751.5
76083.5
75273.4
74359.6
73407
72468.2
71602.2
70779.4
69960
68850.2
67319.6
65420
63098.3
60335.9
57326.9
54318.8
51541.1
49929.2
49137.4
48573.3
47722.8
46327
44141.5
41432.3
38527
35828.7
33709
32362.7
31936.6
32612.6
34271.1
36518.8
38090.8
38574.5
37497
36033.6
35064.6
34597.5
33534.6
31675.9
29657.4
27853.4
26470.8
25502.3
24751.1
24126.3
23675
23452
23293.2
23157.8
22991.9
22769.6
22524.1
22313
22162.7
22073.9
22037.9
22046.7
22094.1
22176
22290.9
22437.6
22615.2
22821.5
23054.1
23309
23584.5
23878.3
24186.3
24502
24818.8
25130.5
25433.5
25723.7
25995.5
26243.6
26464.5
26658.1
26826.3
26972.4
27099.7
27212.7
27318.3
27424
27535.8
27660
27798
27951.8
28120.5
28303.2
28499.4
28709.1
28931.6
29165.3
29408.6
29661.3
29923.3
30196.1
30481.3
30779.6
31090
31410.1
31735.3
32059.1
32374.4
32674.6
32955
33212.8
33447.1
33657.7
33846.2
34014.3
34164.9
34300.7
34424.4
34539.5
34646.8
34747.9
34845.2
34941.4
35037.5
35136
35237.9
35344.4
35456.4
35573.9
35696.8
35824.2
73607.7
73652.7
73649.8
73562.7
73330.8
72906.4
72433.9
71773.6
70958.6
70032.2
69066.7
68154.4
67364.6
66660.8
65990.4
65011.1
63473.4
61484.7
59094.3
56153.8
52910.4
49664.4
46690.8
45277.5
44952.1
44726.8
44072.8
42809.2
40500.6
37544.1
34405
31445
29172.6
27743.1
27389.7
28285.9
30377.3
33270.7
35262.8
35893.1
34584.5
32776.9
31821.4
31598.1
30686.1
28635.8
26425
24516.6
23132.5
22244.5
21570.9
20992.5
20604.7
20454
20380.8
20316
20202.7
20009.2
19780.2
19592.2
19474
19422.4
19425.4
19473.6
19559.2
19678.7
19830.6
20014.2
20228.9
20472.7
20742.5
21034.4
21347
21678.5
22024.4
22378
22732.3
23080.9
23420.3
23746.8
24054.5
24337.7
24592.7
24819.6
25020.5
25199.1
25358.8
25504.1
25641.8
25780
25925.3
26083.1
26255.7
26444.5
26648.3
26866.1
27097.3
27342.2
27599.9
27868.7
28146.7
28434.2
28730.9
29038.3
29358.2
29691.4
30037
30392.3
30752.8
31111.9
31462.3
31797.4
32112.3
32404.5
32673
32917.9
33140.5
33342.9
33527.7
33697.8
33855.9
34005.4
34147.3
34282.9
34414.8
34545.6
34676.2
34809.3
34945.7
35086.9
35233.4
35385.4
35542.7
35704.6
68978.6
69102.7
69183.1
69170.9
69010.7
68602.8
68146.4
67503.6
66690.6
65732.3
64726.5
63810.2
63101.7
62550.4
61973.2
61190.7
59805.1
57623.9
55094.6
51959.6
48418
44852.7
41554.7
40274.2
40226.1
40617.3
40432.9
39357
36889.3
33676.8
30206.2
26960.5
24493.8
22923.6
22592.2
23688.9
26289.8
30023.5
32568
33372.6
31762.5
29498.6
28554.3
28726.3
27901.9
25597.9
23144
21115.8
19733.1
18955.4
18380.4
17841
17516.6
17446.8
17466.4
17478.2
17420
17251.9
17033.2
16865.7
16780.2
16767.4
16810.2
16898
17022
17179.2
17368.2
17589
17841.1
18122.4
18429.9
18758.8
19108.6
19477.9
19862.1
20253.9
20646.2
21031.7
21407.7
21770.6
22114.4
22432.8
22722
22981.9
23215.3
23426.3
23618.3
23795.5
23965.2
24135.7
24314.3
24505.2
24712.9
24936.8
25175.7
25428.7
25695
25975.1
26268
26571.7
26884.9
27207.1
27538.3
27880.3
28235
28603.1
28983.8
29374.5
29770.4
30164.8
30550.3
30920.2
31269.8
31596.4
31899
32178
32434.9
32671.4
32890.4
33094.8
33287.5
33471.4
33647.7
33817.9
33984.3
34149.6
34314.9
34482.6
34653.6
34829.3
35010.3
35196.9
35388.7
35585
65412
65594.9
65732.3
65769
65645.6
65272.4
64815.5
64171.8
63321.7
62299.9
61247.7
60339.2
59694.8
59254
58820.5
58140.1
56832.3
54513.4
51826.9
48529.5
44648.3
40737.8
37136.2
36205.8
37023.5
37816.9
37516.9
36534.7
33878
30289.9
26474.6
22996.4
20326.2
18614.1
18339.9
19450.9
22469.5
27064.6
30284.5
31359.6
29318.5
26417.1
25489.6
25880.5
25567.7
22921.6
20164.1
17986.3
16603.2
15921.7
15441.4
14908.6
14625.5
14628
14727.5
14803.6
14785.2
14621.7
14389.9
14224.2
14155.4
14164.9
14231.2
14341.9
14487.9
14665.8
14874.9
15116.1
15388.9
15691.2
16019.8
16369
16739.4
17130.3
17536.5
17950.5
18364.5
18770.6
19166.7
19549.8
19913.3
20250.5
20556.9
20832.8
21081.4
21307.3
21514.2
21705.9
21889.7
22074.8
22269.1
22476.5
22701.9
22944.5
23202.1
23473.5
23758.3
24057.1
24368.3
24690.3
25022.4
25362.3
25711.3
26071.1
26443.9
26830.4
27230
27639.9
28055.1
28468.8
28873.4
29261.7
29629.3
29973.3
30292.7
30588.7
30862.6
31116.1
31351.7
31573
31783.6
31985
32178.9
32366.7
32550.9
32733.4
32917.2
33102.8
33291.9
33485.7
33684.9
33890
34100.4
34315.7
62907
63121.5
63294.3
63361.5
63255
62887.6
62417.9
61760
60871.9
59783.7
58674.8
57747
57152.3
56792.3
56498.4
55868.9
54599.8
52229.3
49371.2
45857.5
41718.4
37453.4
33526.9
32568.8
33571.6
34814.9
35142.2
34315.9
31446.6
27577.3
23435
19778
17129.6
15314.4
14983.3
15949.6
19073.5
24237.8
28280.9
29738
27281.7
23749.2
22921.3
23871.4
23620.5
20570.6
17455
15116.8
13724
13139.9
12757
12208.1
11949.4
12000.4
12166.1
12292.5
12298.8
12119.7
11850.3
11667.3
11599.1
11614.6
11688.1
11805.5
11956.5
12138.2
12350.4
12594.8
12871.5
13178
13511.1
13864
14237.8
14634.2
15046.3
15466.4
15886.3
16296.6
16696.5
17083.7
17450.7
17790.4
18097.5
18372.3
18618.6
18841.9
19046.1
19234.6
19414.6
19596.3
19788.4
19995.9
20221.7
20465.5
20725.2
20998.5
21285.6
21586.3
21899.6
22223.7
22556.8
22897.9
23247.7
23608.4
23982.3
24370.5
24772.5
25185.7
25604.6
26022
26429.8
26820.5
27189.4
27534.1
27853.8
28149.9
28423.5
28676.6
28911.9
29132.5
29342.3
29543.7
29738.1
29926.6
30111.8
30295.9
30480.1
30666.5
30856.5
31051.4
31251.7
31457.8
31669.5
31885.9
60402.5
60652.3
60862.8
60962.6
60876.7
60513.1
60024.9
59356.6
58432.1
57268.4
56095.7
55129.4
54575.2
54321.6
54176.1
53609
52441.1
50049.3
46929.8
43151.7
38701.2
34097.3
29866.1
29280.6
31371
33078.9
32821.7
32084.6
28942
24655.4
20402.6
16722.4
14027.3
12087.5
11819.3
13080.2
15819.5
21123.5
25993
28112.6
25302.4
20913
20076.7
21370.5
21691.3
18264.2
14700.2
12193.2
10818.6
10348.3
10096.5
9486.55
9233.9
9350.39
9598.86
9785.42
9824.38
9623.86
9305.3
9102.12
9036.84
9060.64
9142.18
9266.96
9423.19
9608.45
9823.69
10071.4
10352.4
10663.2
11001.8
11356.8
11735.4
12137.1
12555.3
12982.6
13408.7
13823.3
14227.3
14618.7
14989.5
15332.2
15640
15913.2
16156.7
16377
16578.2
16762.8
16938.3
17115.8
17305.3
17512.8
17740.3
17985.7
18247.2
18522.5
18811.7
19114.6
19429.8
19755.9
20090.7
20433.1
20783.5
21144.8
21519.8
21909.8
22314.6
22731.2
23154.3
23575.9
23987.3
24380.6
24751.1
25096.3
25416.1
25711.7
25984.7
26237
26471.7
26691.8
26901
27102.3
27296.9
27486.1
27672.3
27857.1
28042.3
28229.6
28420.5
28616.4
28818
29025.3
29238.2
29455.9
57893.5
58186.4
58433.4
58571.9
58508.2
58152.5
57639.3
56960.9
55992.5
54746.5
53483.8
52475.3
51948.7
51828.8
51874.8
51375.1
50271.2
47828.1
44433.1
40474.2
35706.6
30659.1
26048.6
25841.6
27844.8
29665.9
30627.9
29975.4
26538.3
21947
17521.3
13901.6
11230.8
9511.74
9594.41
10535
13329.3
17940.7
23191.6
26214.8
23141
17970.9
17295.3
19320.2
20326.5
16048.1
11894.3
9193.02
7832.72
7504.97
7392.12
6758.79
6528.28
6714.69
7059.7
7314.65
7382.66
7135.51
6753.4
6527.59
6468.54
6502.4
6593.05
6726
6887.76
7076.64
7294.74
7545.9
7831.25
8146.94
8490.02
8848.14
9232.21
9639.03
10063.7
10498.7
10931.5
11351.7
11758.9
12155
12530.2
12876.2
13184.8
13455.9
13695.5
13912.4
14110.3
14291.8
14462.3
14634.9
14821.3
15028.2
15256.8
15504.8
15768.3
16045.7
16336.4
16640.6
16958.3
17286.8
17623.6
17967.2
18318.3
18680.2
19056.1
19448
19855.7
20276.3
20704
21130.3
21545.8
21942.1
22314.2
22660
22979.7
23274.7
23547
23798.5
24032.2
24251.2
24459.5
24660.3
24854.9
25044.7
25231.8
25417.7
25603.9
25792.2
25984.1
26181.1
26383.7
26592.3
26806.4
27025.5
55362.1
55716.4
56007.9
56194.1
56150.9
55813.5
55262.9
54571.7
53555.5
52217.1
50836.8
49764.7
49256.7
49271.9
49572.3
49142.1
48095.2
45640.8
41983.2
37795.5
32601
27121.1
22523.1
22892
26345.6
28447.9
27513.8
27336.6
23748.3
18909.6
14936.2
10993.8
8343.12
6475.16
6041.28
8781.72
12176.2
15447.7
20026.1
23682.9
20977.8
14931.4
14003.1
16492.4
18415.5
13795.8
8988.31
6153.16
4887.66
4684.97
4848.47
4030.93
3748.93
4064.14
4503.67
4794.27
4870.25
4631.17
4199.36
3943.04
3893.54
3939.73
4040.24
4181.77
4349.31
4541.81
4762.88
5017.95
5308.32
5628.92
5975.07
6339.44
6727.93
7139.89
7571.63
8014.28
8454.39
8881.5
9291.43
9692.87
10072.6
10422.4
10732
11001.1
11237
11450.2
11644.6
11821.9
11986.9
12153.9
12336.8
12542.2
12772
13022.2
13288
13567.5
13860.6
14166.9
14486.9
14817.7
15156.1
15500.5
15852
16214.2
16591.2
16985.1
17395.9
17820.9
18253.6
18685.3
19105.5
19505.1
19878.9
20225.2
20544.7
20839.1
21110.5
21360.9
21593.1
21810.8
22017.7
22217.8
22412.2
22602.3
22790.1
22976.8
23163.9
23353
23546
23744.4
23948.5
24158.6
24374.3
24594.8
52801.1
53231.4
53588
53826.7
53805.2
53496.3
52895.8
52188.5
51120.9
49668.8
48153.1
47007
46492.9
46640.6
47224.8
46880.9
45949.6
43520.8
39612.4
35049.5
29555.2
23889.1
19373.3
19907.3
22756.6
24648.6
25424.5
26022.6
21390.3
16255.9
12118.6
8077
6298.15
4966.39
5629.77
6499.52
9445.09
13542.5
16911.4
20608.2
18110.7
11546.9
10549.4
13634.9
16990.8
11917.2
6251.78
3305.68
1976.39
2029.72
2336.19
1580.89
1551.22
1781.56
2278.89
2695.11
2917.3
2725.04
1937.95
1632.7
1590.52
1629.25
1713.95
1836.73
1980.49
2146.2
2338.96
2566.2
2832.45
3134.2
3466.06
3829.52
4221.1
4639
5078.55
5529.93
5978.73
6410.9
6826.5
7232.03
7616.32
7970.75
8281.76
8548.27
8780.07
8988.92
9179.61
9351.85
9510.57
9671.21
9849.68
10053.9
10285.4
10538.3
10806.7
11088.4
11383.7
11692.7
12015.2
12348.2
12688.3
13033.7
13385.1
13747.4
14125.2
14520.9
14935.1
15364.9
15803.4
16241.1
16666.5
17069.6
17445.3
17792.1
18111.2
18404.7
18675.1
18923.9
19154.6
19370.6
19576.2
19775.5
19969.9
20160.1
20348.1
20535
20722.4
20912.2
21106.2
21305.7
21511.2
21722.9
21940
22161.9
50201.9
50711.4
51163.4
51460.4
51467
51161.2
50568.2
49808.4
48686.5
47105.4
45442.3
44213.7
43639.6
43899.1
44803.9
44607.6
43827.2
41391.1
37275.1
32357.3
26537.7
20702.7
15743.5
16442.7
20686.5
23324.5
20229.4
22107.3
18325.5
12838.8
9104.78
6564.31
5040.45
3374.5
2552.03
5346.2
9595.85
13783.1
14846.9
17136.1
14607.3
8421.31
8460.72
11710
13172.4
8658.64
3729.47
1926.91
837.333
695.854
1050.58
321.715
273.324
804.394
1470.75
1876.95
1771.63
1240.37
726.737
476.288
407.878
389.975
407.742
454.738
512.033
581.271
666.891
776.029
916.243
1092.47
1308.46
1576.19
1900.17
2263.69
2658.57
3079.74
3512.7
3939.52
4362.6
4772.23
5162.42
5521.48
5834.54
6097.02
6322.78
6526.4
6713.91
6881.63
7033.27
7186.32
7359.75
7563.15
7796.84
8053.05
8324.23
8608.24
8905.6
9216.75
9541.98
9877.69
10219.9
10566.3
10918
11279.9
11658.2
12055.7
12473.4
12908.2
13353.1
13797.3
14228.7
14635.9
15013.4
15360.4
15679
15971.4
16240.3
16487.5
16716.4
16930.7
17134.9
17333.5
17527.9
17718.5
17906.9
18093.8
18281.1
18470.8
18665.2
18865.5
19072.1
19285.1
19503.7
19727
47422.1
48035.2
48583
48952.8
49015.1
48676.4
48165
47313.8
46130.2
44395.1
42559.4
41256.4
40581.1
40944.9
42097.8
42129.3
41697
39080.5
34765.8
29549.2
23452.4
17563.4
12012.7
12931.6
15583.4
18015.1
20078.4
21872.2
17637.5
11316.8
7857.52
5343.64
3860.13
2091.25
2746.73
3437.21
3778.14
4616.15
11105.8
14910.8
11207.4
5540.59
5231.06
7816.6
9134.7
5259.41
2035.87
955.395
382.35
327.863
198.382
13.4278
311.34
506.983
789.351
1175.7
1447.33
1421.53
662.568
275.703
180.261
148.464
130.125
126.67
124.526
124.542
128.1
137.324
156.04
189.801
245.59
332.752
461.044
620.849
812.595
1040.79
1306.52
1609.3
1949.6
2297.05
2638.09
2959.34
3244.14
3489.05
3702.77
3898.33
4079.19
4240.12
4382.19
4523.25
4689.93
4892.41
5129.29
5389.48
5663.79
5950.23
6249.55
6562.39
6889.9
7228.14
7572.1
7918.92
8269.77
8630.77
9009.03
9408.36
9829.33
10269.3
10721.1
11172.8
11610.6
12021.9
12400.7
12747.2
13064.2
13354.5
13621.1
13866.4
14092.6
14304
14506.3
14703.5
14897.3
15087.8
15276.2
15462.8
15649.5
15838.7
16032.8
16233.1
16440
16653.3
16872.4
17096.4
44494.9
45181.6
45842.6
46320
46442.7
46108
45612.2
44697.9
43451.7
41543
39529.7
38104.1
37421.7
37684
39144.7
39445.5
39413.2
36567.5
32071.5
26675.7
20604.8
14261.2
9373.18
8655.92
8066.73
7875.43
5474.2
7880.6
7050.2
5024.54
5228.24
4282.34
3139.59
1100.03
363.886
-2468.79
-4813.28
-1843
2778.24
7135.17
6646.77
2987.28
1745.35
4483.95
5097.64
2299.33
833.442
459.455
113.896
98.98
63.3354
-4.62686
-158.754
-217.329
-278.522
-31.5122
157.441
422.888
427.171
241.362
184.638
139.569
113.491
105.676
99.0273
92.7808
87.0478
81.891
77.6101
74.238
72.1123
71.7778
74.4463
82.4015
99.6181
132.901
190.792
282.926
415.948
573.037
736.136
902.15
1061.75
1203.97
1332.78
1456.89
1579.12
1696.14
1803.68
1910.2
2041.94
2209.84
2413.12
2642.57
2889.21
3152.04
3432.43
3733.38
4057.94
4399.06
4744.41
5091.08
5440.16
5799.18
6176.72
6577.29
7001.79
7447.69
7907.37
8367.69
8812.76
9228.16
9607.9
9953.07
10268
10555.7
10819.5
11061.9
11284.7
11492.5
11690.6
11885.7
12078.3
12268.2
12456.1
12641.7
12827.2
13015.3
13208.8
13408.8
13615.7
13829.1
14048.4
14272.8
41585.5
42297.9
43071.2
43633.5
43835.2
43581.9
43027.4
42068.2
40787.6
38714.1
36522.2
34902.4
34379.9
34479.4
36069.4
36767.2
36786.3
33970.9
29384.1
24102.8
18011.8
10992.2
6221.09
4963.3
6284.05
6062.88
5313.62
2137.46
-1075.94
-4750.41
-4364.08
-736.011
-158.915
-1986.11
-8948.86
-14145.2
-8679.01
-2433.12
1565.45
2766
1681.94
-970.197
-131.506
3686.15
3422.52
1749.13
341.068
25.8738
-6.78782
-2.55903
-6.4237
-10.3631
-48.2306
-65.8122
-118.975
-212.21
-549.488
-74.559
259.547
218.248
163.594
126.83
107.117
101.083
94.5203
88.0462
82.0342
76.3723
71.1486
66.4442
62.322
58.5456
55.1572
52.2763
49.8812
48.1673
47.7544
49.3989
54.1791
63.1063
77.1199
97.0139
122.696
153.153
186.118
221.813
260.861
301.845
341.188
381.307
431.159
500.477
591.68
700.23
823.641
963.474
1124.76
1315.72
1545.1
1812.89
2098.98
2391.85
2694.48
3015.59
3365.02
3749.7
4171.91
4624.38
5093.52
5563.53
6017
6437.84
6819.99
7163.63
7475.5
7759.39
8019.71
8257.47
8476.34
8680.72
8875.69
9068.07
9259.72
9449.88
9637.55
9822.38
10006.5
10193.3
10385.7
10585.1
10791.6
11004.8
11224.4
11449.3
38667.1
39396.7
40227.6
40967.2
41225.5
41038.9
40467.7
39380.6
38150.3
35864.4
33478.3
31960.1
31477.3
31287.9
32984.2
33904.2
33844.6
31256.2
26774.7
21622.1
15455.3
8387.6
3946.4
3944.23
6912.16
7479.27
3725.2
1074
-2352.19
-7499.81
-11382.7
-12884.2
-14430.5
-17137.8
-15743.3
-11591.1
-4861.53
-1366.25
741.581
1316.07
649.834
-1261.02
350.731
2712.38
2483.48
668.906
44.8568
-37.7504
-30.342
-26.8095
-22.9166
-29.3481
47.4249
39.4289
86.1962
132.566
-0.183232
-103.555
65.5473
205.463
157.141
119.561
102.835
97.4105
90.8531
84.3321
78.3163
72.6751
67.5176
62.8164
58.5451
54.6185
50.9818
47.5283
44.3362
41.5556
39.125
37.0684
35.1287
33.1482
31.8332
31.1182
30.8739
30.9566
31.0643
31.3656
31.8855
32.7155
33.9873
35.5721
37.6227
41.3838
47.8461
57.7085
71.9274
92.6278
123.313
169.626
239.402
339.01
458.168
586.841
727.317
887.891
1080.97
1322.14
1627.08
1999.7
2407.07
2831.24
3252.16
3655.96
4028.76
4370.73
4681.64
4964.27
5221.67
5457.6
5672.32
5871.24
6062.83
6250.54
6441.2
6631.94
6820.24
7004.71
7187.82
7373.65
7565.93
7765.53
7972.71
8186.7
8406.8
8631.76
35762.5
36491.5
37319.2
38229.6
38617.9
38504.1
37814.3
36792.9
35481
33041.3
30426.7
29122.1
28766.6
28243.6
29869
30995.3
30602.5
28418.4
24111.8
18782.7
12784.3
6254.43
3113.8
4221.61
6375.49
5777.01
3153.19
1245.44
-1724.14
-4687.25
-7842.21
-10760.6
-12691
-11680.7
-8102.17
-3226.09
-933.585
-927.024
738.285
1302.18
362.92
-107.901
492.363
2674.22
680.343
21.4307
-20.7795
-43.429
-36.9963
-37.5153
-42.98
-38.7126
-21.5896
-8.17553
8.02229
17.2066
66.155
212.077
179.666
173.58
141.753
112.099
97.2475
93.9017
87.1925
80.5798
74.5638
68.9499
63.779
59.0774
54.861
51.0009
47.4303
44.1245
40.9862
38.0509
35.4665
33.0523
30.6506
28.5092
26.8029
25.5256
24.4531
22.9899
21.6748
21.1224
20.873
20.6095
20.4662
20.3261
20.1272
20.0252
19.916
19.6748
19.4929
19.5758
20.048
21.157
23.2492
26.937
32.7989
41.488
54.5576
75.1592
109.444
167.583
264.445
414.469
598.79
810.317
1045.85
1298.43
1560.05
1827.03
2081.33
2314.14
2529.76
2731.64
2920.86
3099.72
3275.62
3452.76
3634.3
3819.58
4005.71
4189.8
4372.22
4557.45
4749.49
4949.15
5157.15
5372.01
5592.4
5816.51
32857.2
33611.1
34432.7
35404.2
35960.3
35927.7
35136.4
34299.9
32775.4
30343.4
27499.5
26173.1
26215.5
25280.2
26936.6
27807
27281.3
25425.6
21223.8
15950.4
10480
4805.51
3117.8
3936.36
4748.29
4451.57
2135.67
553.429
150.297
-387.554
-1968.07
-3753.89
-3916.22
-2487.36
-775.532
46.7335
219.621
799.858
1341.1
1324.46
849.087
1067.74
625.994
518.597
-3.62915
-18.0304
-31.392
-40.4046
-42.0519
-46.3105
-49.5328
-43.8616
-32.5857
-20.3823
-9.38935
3.07931
23.8159
155.167
66.205
90.1728
130.576
103.196
91.5118
90.1664
83.3118
76.655
70.6751
65.1122
60.0096
55.3792
51.1902
47.3533
43.8058
40.4644
37.356
34.5467
32.0404
29.8317
27.6493
25.3592
23.4015
21.899
20.5441
19.1484
18.1458
17.64
17.3374
17.0467
16.7245
16.5109
16.2284
15.9299
15.625
15.0369
14.3594
13.7839
13.3139
12.876
12.449
12.1397
11.9813
12.0022
12.2323
12.8388
13.5099
15.0411
18.713
26.2093
40.374
64.4041
103.145
162.528
245.452
352.233
463.761
567.935
666.648
763.237
859.165
955.177
1054.34
1158.37
1269.7
1388.93
1516.57
1651
1792.15
1940.76
2099.62
2269.21
2448.57
2637.47
2836.19
3043.14
29985.6
30740.5
31513.8
32561.3
33243.3
33226.3
32629.2
31661.9
30096.7
27681.5
24691.4
23237.2
23304.6
22357.1
23859.9
24448
24001
22344.4
18237
13457.9
8880.5
4538.72
3142.54
3031.99
2980.93
1639.75
125.928
80.7128
90.4901
101.003
169.344
109.083
121.142
97.2902
28.5258
35.5199
33.116
155.065
886.505
1646.7
1899.2
1098.68
214.149
-10.6291
-31.3459
-22.8726
-35.6577
-44.505
-47.0198
-53.5261
-56.7802
-55.1532
-45.6034
-27.822
-14.044
-8.42722
1.1045
93.4603
98.4603
74.8139
115.474
92.1126
86.6941
86.0027
79.2654
72.7021
66.7396
61.2248
56.171
51.591
47.4459
43.657
40.1585
36.9118
33.9038
31.1431
28.6411
26.3125
24.0236
21.9355
20.1842
18.8273
17.6158
16.2562
15.0691
14.3682
13.961
13.6138
13.325
13.0652
12.7514
12.4223
12.0401
11.4101
10.7994
10.2876
9.81422
9.31981
8.79565
8.28666
7.86045
7.54675
7.20632
6.74492
6.3249
6.01271
5.80478