/*--------------------------------*- C++ -*----------------------------------*\
| =========                 |                                                 |
| \\      /  F ield         | OpenFOAM: The Open Source CFD Toolbox           |
|  \\    /   O peration     | Version:  v1912                                 |
|   \\  /    A nd           | Website:  www.openfoam.com                      |
|    \\/     M anipulation  |                                                 |
\*---------------------------------------------------------------------------*/
FoamFile
{
    version     2.0;
    format      ascii;
    class       volScalarField;
    location    "90";
    object      p_rgh;
}
// * * * * * * * * * * * * * * * * * * * * * * * * * * * * * * * * * * * * * //

dimensions      [1 -1 -2 0 0 0 0];


internalField   nonuniform List<scalar> 
14268
(
7.60679
8.15842
8.54833
8.80879
9.53639
12.5432
22.9487
33.9492
34.4266
34.6074
25.6807
13.302
12.0218
16.6898
17.44
14.6746
8.14213
7.35167
7.21531
6.28912
5.12364
4.56378
4.74488
6.35898
7.88921
7.88687
7.75458
6.8607
6.21463
6.46375
7.02073
7.02773
7.06283
6.73911
4.82476
1.57373
1.00012
1.08427
1.26833
1.44484
1.49199
1.36711
1.15823
1.01618
1.22904
2.82649
3.95705
3.97313
3.70316
1.79442
0.506062
0.406399
0.400978
0.3953
0.389152
0.382677
0.375937
0.368965
0.361791
0.35444
0.346937
0.339308
0.331576
0.323768
0.315904
0.308008
0.300098
0.292194
0.284312
0.276467
0.268674
0.260945
0.253292
0.245725
0.238252
0.230883
0.223623
0.216482
0.209464
0.202573
0.195815
0.189193
0.182711
0.176372
0.170177
0.164128
0.158228
0.152474
0.14687
0.141413
0.136104
0.130942
0.125927
0.121058
0.116329
0.111749
0.1073
0.103003
0.0988256
0.0948045
0.0908892
0.0871357
0.0834735
0.0799764
0.0765595
0.0733052
0.0701269
0.0671002
0.0641541
0.0613398
0.0586179
0.0560028
0.0534941
0.0510684
0.0487584
0.0465157
0.0443874
0.0423221
0.04036
0.0384641
0.036657
0.0349178
0.0332593
0.0316611
0.0301468
0.0286755
0.0272972
0.0259454
0.024688
0.0234559
0.0222992
0.0211897
0.0201162
0.0191263
0.0181283
0.0172442
0.0163257
0.0155252
0.0146957
0.0139567
0.0132213
0.0125312
0.0118844
0.0112419
0.0106692
0.0100799
0.00956475
0.00903326
0.00856379
0.00808984
3.98065
3.89121
3.74809
3.72028
3.6759
3.58983
3.93523
6.78347
19.7034
34.3965
26.7773
13.5992
11.7084
12.4015
17.4346
17.342
15.3226
6.4944
3.96908
2.96691
2.201
1.68389
1.66144
2.12763
4.17014
4.97747
4.16863
2.53792
1.40866
1.29546
1.51473
2.05163
2.43701
2.87473
3.32989
2.5985
1.68903
1.49173
1.66912
1.88604
1.96102
1.92396
1.62796
1.09689
1.07959
1.71949
3.30007
3.97002
3.76486
2.25759
0.630626
0.406344
0.400958
0.395286
0.389138
0.382663
0.375923
0.368951
0.361776
0.354424
0.346921
0.339292
0.33156
0.323751
0.315888
0.307991
0.300082
0.292178
0.284296
0.276451
0.268658
0.260929
0.253276
0.245709
0.238237
0.230867
0.223608
0.216468
0.209449
0.202559
0.195801
0.189179
0.182698
0.176359
0.170165
0.164116
0.158216
0.152462
0.146859
0.141401
0.136093
0.130932
0.125916
0.121048
0.11632
0.111739
0.107291
0.102994
0.0988171
0.0947963
0.0908813
0.087128
0.0834661
0.0799692
0.0765526
0.0732985
0.0701205
0.067094
0.0641481
0.0613341
0.0586124
0.0559975
0.053489
0.0510635
0.0487537
0.0465111
0.0443831
0.0423179
0.040356
0.0384603
0.0366533
0.0349143
0.0332559
0.0316579
0.0301437
0.0286725
0.0272944
0.0259427
0.0246854
0.0234535
0.0222968
0.0211875
0.020114
0.0191243
0.0181263
0.0172424
0.0163239
0.0155235
0.0146941
0.0139552
0.0132199
0.0125298
0.011883
0.0112406
0.010668
0.0100787
0.00956367
0.00903223
0.00856281
0.0080889
13.6693
13.259
12.8016
11.5247
9.09892
6.08942
4.54222
4.6818
11.257
27.208
29.6199
27.1254
15.6639
12.0796
12.8484
16.771
12.7365
5.99964
3.05556
2.81197
1.8693
1.47801
1.45235
1.40406
1.48245
1.65216
1.5371
1.24445
0.979739
0.888865
0.86846
0.848223
0.90415
1.30899
2.40743
2.61301
2.53781
1.47648
0.953971
0.934247
1.02124
1.36453
1.55595
1.4457
1.22766
1.41169
2.13731
2.66551
2.4941
1.71369
0.739084
0.406242
0.400923
0.395268
0.389123
0.382648
0.375908
0.368935
0.36176
0.354408
0.346905
0.339275
0.331544
0.323735
0.315871
0.307975
0.300065
0.292161
0.284279
0.276435
0.268642
0.260913
0.25326
0.245693
0.238221
0.230852
0.223593
0.216453
0.209435
0.202544
0.195787
0.189166
0.182685
0.176345
0.170152
0.164104
0.158204
0.15245
0.146847
0.14139
0.136082
0.130921
0.125906
0.121038
0.11631
0.11173
0.107282
0.102985
0.0988085
0.0947881
0.0908733
0.0871203
0.0834586
0.079962
0.0765456
0.0732918
0.070114
0.0670878
0.0641421
0.0613283
0.0586068
0.0559921
0.0534839
0.0510585
0.0487489
0.0465065
0.0443787
0.0423137
0.040352
0.0384564
0.0366496
0.0349107
0.0332525
0.0316546
0.0301406
0.0286695
0.0272916
0.0259399
0.0246828
0.023451
0.0222944
0.0211853
0.0201118
0.0191223
0.0181243
0.0172405
0.0163221
0.0155218
0.0146925
0.0139536
0.0132184
0.0125283
0.0118817
0.0112393
0.0106668
0.0100775
0.00956257
0.00903119
0.00856181
0.00808797
26.6954
26.9174
27.0478
27.1745
22.2878
16.1233
12.4385
8.22073
9.01109
17.916
28.9619
29.868
30.0414
19.6291
9.53175
9.52035
7.76353
4.35488
2.22347
2.23979
2.75019
2.79772
2.79148
1.72622
1.23575
1.21811
1.51838
2.19723
2.4762
2.41379
1.76534
0.924144
0.870854
0.959787
1.50725
2.17008
1.99502
1.27997
0.7467
0.747971
0.792879
0.830287
1.11292
1.38349
1.34205
1.30083
1.38767
1.47956
1.39957
1.0728
0.64332
0.413477
0.400876
0.395247
0.389107
0.382633
0.375892
0.368919
0.361744
0.354392
0.346889
0.339259
0.331527
0.323718
0.315854
0.307958
0.300048
0.292144
0.284262
0.276418
0.268625
0.260897
0.253244
0.245677
0.238205
0.230836
0.223578
0.216438
0.20942
0.20253
0.195773
0.189152
0.182671
0.176332
0.170139
0.164091
0.158191
0.152438
0.146835
0.141379
0.136071
0.13091
0.125896
0.121028
0.1163
0.11172
0.107273
0.102976
0.0987998
0.0947797
0.0908652
0.0871125
0.0834511
0.0799547
0.0765386
0.073285
0.0701074
0.0670815
0.064136
0.0613224
0.0586012
0.0559867
0.0534787
0.0510535
0.0487441
0.0465019
0.0443742
0.0423095
0.0403479
0.0384525
0.0366458
0.0349071
0.0332491
0.0316513
0.0301375
0.0286665
0.0272887
0.0259372
0.0246801
0.0234485
0.022292
0.021183
0.0201096
0.0191202
0.0181223
0.0172386
0.0163203
0.0155201
0.0146908
0.013952
0.0132169
0.0125269
0.0118804
0.011238
0.0106656
0.0100764
0.00956146
0.00903013
0.0085608
0.00808702
14.5728
11.5766
8.60124
8.04006
10.5908
18.7756
18.7982
18.0571
13.0227
13.3239
15.6427
17.2437
15.3316
12.5081
8.63621
5.56585
3.84864
2.36523
1.39728
1.27644
1.24465
1.2346
1.24532
1.47729
1.34976
1.34172
1.9408
3.15106
3.44244
3.44744
3.3532
2.21466
1.07906
0.967724
1.18945
1.44659
1.35395
0.936393
0.674136
0.730162
0.784691
0.812645
0.793758
1.02941
1.16816
1.07541
0.941024
0.858222
0.794407
0.691347
0.541944
0.419919
0.400822
0.395224
0.38909
0.382617
0.375876
0.368903
0.361728
0.354375
0.346872
0.339242
0.33151
0.323701
0.315837
0.307941
0.300031
0.292127
0.284245
0.276401
0.268609
0.26088
0.253228
0.245661
0.23819
0.230821
0.223562
0.216423
0.209405
0.202515
0.195759
0.189138
0.182657
0.176319
0.170126
0.164078
0.158179
0.152426
0.146823
0.141367
0.13606
0.1309
0.125885
0.121017
0.11629
0.111711
0.107263
0.102967
0.0987911
0.0947712
0.090857
0.0871046
0.0834434
0.0799473
0.0765315
0.0732782
0.0701008
0.0670751
0.0641299
0.0613165
0.0585955
0.0559812
0.0534735
0.0510485
0.0487393
0.0464973
0.0443698
0.0423052
0.0403438
0.0384486
0.036642
0.0349035
0.0332456
0.031648
0.0301343
0.0286634
0.0272858
0.0259344
0.0246775
0.0234459
0.0222896
0.0211807
0.0201073
0.0191181
0.0181202
0.0172367
0.0163185
0.0155183
0.0146892
0.0139504
0.0132154
0.0125254
0.011879
0.0112367
0.0106643
0.0100752
0.00956033
0.00902907
0.00855978
0.00808606
3.95558
3.90293
3.86591
3.83722
3.80286
4.3614
4.7235
5.59736
7.75909
9.94621
9.8794
8.2572
5.09494
4.42868
4.49158
3.38569
2.00376
1.09239
0.740105
0.747362
0.752209
0.719846
0.699188
1.19265
2.06168
2.05853
1.88145
1.1494
0.76434
0.961981
2.1297
2.35933
2.00931
1.19135
0.952685
1.0044
0.915981
0.675308
0.598651
0.664527
0.772653
1.01578
1.30153
1.25644
0.976547
0.770794
0.622235
0.545163
0.533082
0.527333
0.507814
0.435936
0.401068
0.395201
0.389072
0.382601
0.37586
0.368887
0.361711
0.354359
0.346855
0.339224
0.331493
0.323683
0.31582
0.307923
0.300014
0.29211
0.284228
0.276384
0.268592
0.260864
0.253211
0.245645
0.238173
0.230805
0.223547
0.216407
0.20939
0.202501
0.195744
0.189124
0.182644
0.176305
0.170113
0.164065
0.158166
0.152414
0.146812
0.141356
0.136049
0.130889
0.125874
0.121007
0.11628
0.111701
0.107254
0.102958
0.0987823
0.0947627
0.0908487
0.0870966
0.0834357
0.0799399
0.0765243
0.0732712
0.0700942
0.0670687
0.0641237
0.0613105
0.0585898
0.0559757
0.0534682
0.0510434
0.0487344
0.0464926
0.0443653
0.0423009
0.0403396
0.0384446
0.0366382
0.0348998
0.0332421
0.0316446
0.0301311
0.0286604
0.0272828
0.0259316
0.0246748
0.0234434
0.0222871
0.0211784
0.0201051
0.019116
0.0181182
0.0172348
0.0163166
0.0155165
0.0146875
0.0139488
0.0132139
0.012524
0.0118776
0.0112354
0.0106631
0.010074
0.00955918
0.009028
0.00855874
0.00808509
4.29531
4.48734
5.33671
6.7509
7.16856
5.85759
4.518
4.40915
4.79975
6.92614
6.95554
5.31975
2.69017
1.9978
2.10322
1.81517
1.07397
0.725236
0.709137
0.696497
0.786246
0.957563
0.930854
0.899034
1.44066
1.72965
1.3965
0.715835
0.647968
0.638259
1.05688
2.25997
2.28372
1.44333
0.733736
0.675618
0.609633
0.544867
0.586448
0.657385
0.69689
0.980865
1.56186
1.50823
1.23796
0.724613
0.459539
0.444533
0.449468
0.471256
0.488645
0.449827
0.407187
0.395178
0.389054
0.382584
0.375843
0.36887
0.361694
0.354341
0.346837
0.339207
0.331475
0.323666
0.315802
0.307905
0.299996
0.292092
0.284211
0.276367
0.268575
0.260847
0.253195
0.245628
0.238157
0.230789
0.223531
0.216392
0.209375
0.202486
0.19573
0.189109
0.18263
0.176292
0.170099
0.164052
0.158154
0.152402
0.1468
0.141344
0.136038
0.130878
0.125864
0.120997
0.11627
0.111691
0.107244
0.102949
0.0987734
0.0947541
0.0908404
0.0870886
0.083428
0.0799324
0.0765171
0.0732643
0.0700874
0.0670622
0.0641175
0.0613045
0.058584
0.0559701
0.0534628
0.0510382
0.0487294
0.0464878
0.0443607
0.0422965
0.0403354
0.0384406
0.0366344
0.0348961
0.0332386
0.0316412
0.0301279
0.0286572
0.0272799
0.0259287
0.0246721
0.0234408
0.0222846
0.021176
0.0201028
0.0191138
0.0181161
0.0172328
0.0163148
0.0155147
0.0146858
0.0139472
0.0132124
0.0125225
0.0118763
0.011234
0.0106618
0.0100728
0.00955803
0.00902692
0.00855769
0.00808412
14.1913
12.3577
12.1875
13.5548
13.6576
13.665
13.2787
9.81309
5.32305
4.51086
4.45456
3.12913
1.58698
1.21942
1.14048
0.925569
0.727016
0.721283
0.705253
0.71579
1.06729
1.31584
1.29706
1.03468
0.850631
0.761407
0.770596
0.930084
0.922869
0.709833
0.764571
1.6258
2.13188
1.50201
0.741825
0.476795
0.464718
0.485825
0.552562
0.612779
0.643586
0.719724
1.14067
1.66285
1.41696
0.8607
0.467148
0.422697
0.426993
0.443336
0.4641
0.461418
0.420489
0.395546
0.389036
0.382566
0.375825
0.368852
0.361676
0.354324
0.34682
0.339189
0.331457
0.323648
0.315784
0.307888
0.299978
0.292075
0.284193
0.276349
0.268557
0.26083
0.253178
0.245612
0.238141
0.230773
0.223515
0.216376
0.20936
0.202471
0.195715
0.189095
0.182615
0.176278
0.170086
0.164039
0.158141
0.152389
0.146787
0.141332
0.136026
0.130866
0.125853
0.120986
0.11626
0.111681
0.107235
0.10294
0.0987644
0.0947454
0.090832
0.0870805
0.0834201
0.0799248
0.0765098
0.0732572
0.0700807
0.0670556
0.0641112
0.0612984
0.0585782
0.0559645
0.0534574
0.051033
0.0487245
0.046483
0.0443561
0.0422921
0.0403312
0.0384365
0.0366305
0.0348924
0.033235
0.0316378
0.0301246
0.0286541
0.0272769
0.0259259
0.0246693
0.0234382
0.0222821
0.0211736
0.0201005
0.0191117
0.018114
0.0172308
0.0163129
0.0155129
0.0146841
0.0139455
0.0132108
0.012521
0.0118749
0.0112327
0.0106605
0.0100716
0.00955685
0.00902583
0.00855663
0.00808313
9.94371
8.75243
5.77018
3.74402
4.51205
9.98644
14.1218
14.1145
9.7399
3.68992
1.43686
1.31959
1.08562
1.03432
0.919697
0.780765
0.720276
0.717609
0.701586
0.852812
0.858784
0.810934
1.16077
1.24928
0.797393
0.752498
1.13
2.15178
2.35628
1.72715
0.991606
1.3069
2.08534
1.7605
0.966773
0.481893
0.45889
0.490476
0.559283
0.619856
0.646511
0.719524
1.27221
1.6649
1.4916
0.978981
0.514742
0.415039
0.416711
0.425887
0.439228
0.442035
0.429281
0.400146
0.389018
0.382548
0.375808
0.368835
0.361659
0.354306
0.346802
0.339171
0.331439
0.32363
0.315766
0.307869
0.29996
0.292057
0.284175
0.276332
0.26854
0.260812
0.253161
0.245595
0.238124
0.230756
0.223499
0.21636
0.209344
0.202456
0.1957
0.18908
0.182601
0.176264
0.170072
0.164026
0.158128
0.152377
0.146775
0.14132
0.136014
0.130855
0.125842
0.120975
0.116249
0.111671
0.107225
0.10293
0.0987553
0.0947367
0.0908235
0.0870723
0.0834122
0.0799172
0.0765024
0.0732501
0.0700738
0.067049
0.0641048
0.0612923
0.0585723
0.0559588
0.053452
0.0510278
0.0487194
0.0464782
0.0443514
0.0422876
0.0403269
0.0384324
0.0366265
0.0348886
0.0332314
0.0316343
0.0301213
0.0286509
0.0272739
0.025923
0.0246665
0.0234355
0.0222796
0.0211712
0.0200982
0.0191095
0.0181119
0.0172288
0.016311
0.0155111
0.0146824
0.0139438
0.0132093
0.0125195
0.0118734
0.0112313
0.0106592
0.0100704
0.00955567
0.00902473
0.00855556
0.00808214
1.63763
1.49474
1.38103
1.33708
1.30218
1.54533
5.29454
12.554
12.6798
7.79972
3.66948
2.40473
1.74379
1.20271
0.895379
0.767487
0.714255
0.713926
0.803517
1.51113
1.11853
0.516914
0.639255
1.33045
1.32616
1.41221
2.28863
2.77049
2.78818
2.78966
1.65577
1.44912
2.06235
2.09461
1.45546
0.63034
0.455324
0.481738
0.558392
0.610016
0.635254
0.665962
1.37461
1.82972
1.66782
1.12312
0.569703
0.407732
0.408303
0.414868
0.422469
0.424026
0.416833
0.40165
0.389241
0.38253
0.375789
0.368816
0.36164
0.354287
0.346783
0.339153
0.331421
0.323611
0.315747
0.307851
0.299942
0.292038
0.284157
0.276314
0.268522
0.260795
0.253143
0.245578
0.238107
0.23074
0.223483
0.216344
0.209328
0.20244
0.195685
0.189066
0.182587
0.17625
0.170059
0.164013
0.158115
0.152364
0.146763
0.141308
0.136003
0.130844
0.125831
0.120965
0.116239
0.111661
0.107215
0.102921
0.0987462
0.0947278
0.090815
0.087064
0.0834043
0.0799095
0.076495
0.0732429
0.0700669
0.0670423
0.0640984
0.0612861
0.0585664
0.0559531
0.0534465
0.0510225
0.0487143
0.0464733
0.0443468
0.0422832
0.0403226
0.0384283
0.0366226
0.0348848
0.0332278
0.0316308
0.030118
0.0286477
0.0272708
0.0259201
0.0246637
0.0234329
0.022277
0.0211688
0.0200958
0.0191073
0.0181098
0.0172268
0.0163091
0.0155092
0.0146807
0.0139421
0.0132077
0.0125179
0.011872
0.0112299
0.0106579
0.0100691
0.00955447
0.00902362
0.00855447
0.00808114
1.45614
1.41489
1.35412
1.30795
1.26356
1.24389
1.78149
6.12989
11.453
11.4593
10.0389
5.14525
2.6313
1.82023
1.05069
0.755878
0.70878
0.841449
1.66638
2.17799
1.12166
0.439446
0.426206
1.12228
2.79097
2.81206
2.81906
2.23493
1.72505
1.90611
1.91275
1.60768
1.9774
2.15336
2.13536
1.30031
0.580377
0.571552
0.578831
0.625365
0.65771
0.662251
1.17535
2.24485
2.08317
1.38269
0.648074
0.402146
0.402104
0.40957
0.414653
0.414641
0.409113
0.398808
0.389187
0.382511
0.375771
0.368798
0.361622
0.354269
0.346765
0.339134
0.331402
0.323592
0.315729
0.307832
0.299923
0.29202
0.284139
0.276296
0.268504
0.260777
0.253126
0.24556
0.23809
0.230723
0.223466
0.216328
0.209313
0.202425
0.19567
0.189051
0.182572
0.176236
0.170045
0.163999
0.158102
0.152351
0.14675
0.141296
0.135991
0.130832
0.12582
0.120954
0.116229
0.111651
0.107206
0.102911
0.098737
0.0947189
0.0908064
0.0870557
0.0833962
0.0799017
0.0764875
0.0732357
0.07006
0.0670356
0.064092
0.0612799
0.0585604
0.0559473
0.0534409
0.0510172
0.0487092
0.0464684
0.044342
0.0422786
0.0403182
0.0384241
0.0366186
0.034881
0.0332241
0.0316273
0.0301146
0.0286445
0.0272677
0.0259171
0.0246609
0.0234302
0.0222744
0.0211664
0.0200935
0.019105
0.0181077
0.0172248
0.0163071
0.0155073
0.0146789
0.0139404
0.0132061
0.0125164
0.0118705
0.0112286
0.0106566
0.0100679
0.00955325
0.0090225
0.00855337
0.00808013
1.38404
1.34562
1.28708
1.2429
1.20099
1.14633
1.38942
3.33345
7.88972
9.42214
7.33772
4.98202
3.72518
3.38425
1.78492
1.20465
1.48894
2.04657
2.54646
1.95106
0.765694
0.396808
0.372119
0.529608
1.82448
2.81802
2.33351
1.0114
0.563157
0.858619
1.42922
1.36972
1.40423
1.96061
2.20701
2.23426
1.80951
0.900931
0.497702
0.530072
0.562973
0.582429
0.907584
2.54791
2.54517
1.78188
0.75682
0.39308
0.396026
0.40613
0.411451
0.410916
0.406379
0.39765
0.389176
0.382491
0.375752
0.368779
0.361603
0.35425
0.346746
0.339115
0.331383
0.323573
0.31571
0.307814
0.299905
0.292001
0.284121
0.276277
0.268486
0.260759
0.253108
0.245543
0.238073
0.230706
0.22345
0.216312
0.209297
0.202409
0.195654
0.189036
0.182558
0.176221
0.170031
0.163985
0.158089
0.152338
0.146738
0.141284
0.135979
0.130821
0.125809
0.120943
0.116218
0.111641
0.107196
0.102902
0.0987277
0.0947099
0.0907977
0.0870472
0.0833881
0.0798938
0.0764799
0.0732283
0.0700529
0.0670288
0.0640855
0.0612736
0.0585543
0.0559415
0.0534353
0.0510118
0.048704
0.0464635
0.0443372
0.0422741
0.0403138
0.0384199
0.0366145
0.0348771
0.0332204
0.0316238
0.0301112
0.0286413
0.0272646
0.0259142
0.0246581
0.0234275
0.0222718
0.0211639
0.0200911
0.0191028
0.0181055
0.0172227
0.0163052
0.0155054
0.0146772
0.0139387
0.0132045
0.0125148
0.0118691
0.0112272
0.0106552
0.0100666
0.00955203
0.00902138
0.00855226
0.00807912
1.36672
1.32566
1.26588
1.2207
1.17726
1.11863
1.22942
3.12449
4.77287
4.56557
3.59242
3.58494
4.57309
4.79435
3.02429
2.61125
2.58462
2.59855
2.59446
1.48369
0.556607
0.389495
0.360902
0.391219
0.97795
1.65528
1.28606
0.638171
0.45459
0.591953
1.1526
1.06148
0.983157
1.07185
1.64771
1.8693
1.41771
0.688405
0.486209
0.523964
0.551588
0.558302
0.727247
1.75311
3.39621
2.33446
0.960896
0.39321
0.389963
0.403271
0.409428
0.408738
0.404813
0.399026
0.389898
0.382472
0.375732
0.368759
0.361583
0.354231
0.346726
0.339096
0.331364
0.323554
0.315691
0.307794
0.299886
0.291983
0.284102
0.276259
0.268468
0.260741
0.25309
0.245526
0.238056
0.230689
0.223433
0.216296
0.209281
0.202393
0.195639
0.189021
0.182543
0.176207
0.170017
0.163972
0.158075
0.152325
0.146725
0.141272
0.135967
0.130809
0.125797
0.120932
0.116207
0.111631
0.107186
0.102892
0.0987183
0.0947008
0.0907889
0.0870387
0.0833799
0.0798859
0.0764723
0.073221
0.0700459
0.067022
0.0640789
0.0612672
0.0585482
0.0559356
0.0534297
0.0510064
0.0486988
0.0464585
0.0443324
0.0422695
0.0403094
0.0384157
0.0366105
0.0348732
0.0332167
0.0316202
0.0301078
0.028638
0.0272615
0.0259112
0.0246552
0.0234248
0.0222692
0.0211614
0.0200887
0.0191005
0.0181034
0.0172206
0.0163032
0.0155035
0.0146754
0.013937
0.0132029
0.0125133
0.0118676
0.0112258
0.0106539
0.0100654
0.00955079
0.00902025
0.00855114
0.00807809
1.33375
1.27559
1.20999
1.16734
1.12579
1.06628
1.09391
2.99966
4.6126
3.56935
3.53921
3.80618
4.67342
4.78794
3.97256
1.84293
2.18307
2.59939
2.50503
1.04614
0.466792
0.358986
0.333042
0.323879
0.490295
0.706999
0.641593
0.481116
0.44079
0.513268
1.13297
1.2625
0.826677
0.763035
0.82427
0.928735
0.77227
0.500288
0.46238
0.493893
0.523134
0.529063
0.567087
1.05087
3.97331
4.05073
1.8988
0.484088
0.385925
0.400742
0.407072
0.40656
0.402942
0.397742
0.390742
0.382693
0.375712
0.36874
0.361564
0.354211
0.346707
0.339076
0.331344
0.323535
0.315671
0.307775
0.299867
0.291964
0.284083
0.27624
0.268449
0.260723
0.253072
0.245508
0.238038
0.230672
0.223416
0.216279
0.209264
0.202377
0.195623
0.189005
0.182528
0.176192
0.170003
0.163958
0.158062
0.152312
0.146712
0.141259
0.135955
0.130797
0.125786
0.120921
0.116197
0.11162
0.107176
0.102882
0.0987088
0.0946917
0.0907801
0.0870302
0.0833717
0.0798779
0.0764646
0.0732135
0.0700387
0.067015
0.0640723
0.0612608
0.0585421
0.0559297
0.053424
0.0510009
0.0486935
0.0464534
0.0443276
0.0422648
0.0403049
0.0384114
0.0366064
0.0348693
0.0332129
0.0316166
0.0301043
0.0286347
0.0272583
0.0259082
0.0246523
0.023422
0.0222665
0.0211589
0.0200863
0.0190982
0.0181012
0.0172185
0.0163013
0.0155016
0.0146736
0.0139352
0.0132013
0.0125117
0.0118661
0.0112244
0.0106525
0.0100641
0.00954954
0.00901911
0.00855001
0.00807706
1.32163
1.27827
1.21808
1.14298
1.09658
1.03803
1.01069
1.63843
6.88938
8.3315
8.87042
8.42878
6.0724
4.21739
4.20314
1.65924
1.24445
1.68747
1.37317
0.679248
0.558156
0.53994
0.506964
0.405068
0.434037
0.468213
0.479726
0.43977
0.428723
0.450674
0.98087
1.26576
1.25763
0.859359
0.509222
0.491888
0.458963
0.442332
0.455783
0.482703
0.512509
0.524123
0.520041
0.641241
3.08149
4.66388
4.65
3.07508
1.13817
0.427546
0.405695
0.405096
0.401262
0.396084
0.38971
0.382629
0.375681
0.368709
0.361534
0.354181
0.346677
0.339046
0.331314
0.323505
0.315642
0.307746
0.299837
0.291935
0.284054
0.276212
0.268421
0.260695
0.253045
0.245481
0.238012
0.230646
0.22339
0.216254
0.20924
0.202353
0.1956
0.188982
0.182505
0.17617
0.169981
0.163937
0.158041
0.152292
0.146693
0.14124
0.135937
0.13078
0.125769
0.120904
0.11618
0.111605
0.10716
0.102868
0.0986946
0.0946778
0.0907667
0.0870172
0.0833592
0.0798658
0.076453
0.0732023
0.0700279
0.0670046
0.0640622
0.0612511
0.0585328
0.0559207
0.0534154
0.0509926
0.0486856
0.0464458
0.0443202
0.0422578
0.0402982
0.0384049
0.0366001
0.0348633
0.0332072
0.0316111
0.0300991
0.0286297
0.0272535
0.0259036
0.0246479
0.0234179
0.0222625
0.0211551
0.0200826
0.0190947
0.0180979
0.0172153
0.0162983
0.0154987
0.0146709
0.0139325
0.0131988
0.0125093
0.0118638
0.0112222
0.0106504
0.0100622
0.00954764
0.00901738
0.00854829
0.0080755
1.22129
1.18494
1.09512
1.05381
1.01481
0.958337
0.921475
1.16504
4.8495
12.5708
12.7618
12.8278
8.46549
2.87604
3.01488
2.10665
0.787502
0.768981
0.577986
0.542987
0.854161
1.28303
1.28235
0.964566
0.492044
0.41122
0.429503
0.423849
0.410078
0.404674
0.623838
1.26027
1.35193
1.24298
0.735309
0.443671
0.418993
0.403746
0.414378
0.433165
0.469099
0.511747
0.509828
0.531751
0.918387
3.56361
5.66034
5.66883
5.32351
2.28175
0.489135
0.40468
0.400438
0.39508
0.388966
0.382428
0.375641
0.368667
0.361492
0.35414
0.346636
0.339005
0.331274
0.323465
0.315601
0.307706
0.299798
0.291895
0.284015
0.276173
0.268383
0.260657
0.253008
0.245444
0.237976
0.230611
0.223356
0.21622
0.209206
0.20232
0.195568
0.188951
0.182475
0.176141
0.169952
0.163908
0.158014
0.152265
0.146667
0.141215
0.135912
0.130755
0.125745
0.120882
0.116158
0.111583
0.10714
0.102848
0.0986752
0.094659
0.0907486
0.0869997
0.0833423
0.0798495
0.0764373
0.073187
0.0700133
0.0669904
0.0640487
0.061238
0.0585202
0.0559085
0.0534037
0.0509814
0.0486748
0.0464355
0.0443103
0.0422483
0.040289
0.0383962
0.0365917
0.0348553
0.0331995
0.0316037
0.030092
0.0286229
0.027247
0.0258974
0.0246419
0.0234122
0.022257
0.02115
0.0200777
0.01909
0.0180933
0.017211
0.0162942
0.0154947
0.0146672
0.0139289
0.0131955
0.012506
0.0118608
0.0112193
0.0106476
0.0100596
0.00954507
0.00901504
0.00854597
0.00807339
1.17817
1.13285
1.07295
1.02865
0.987311
0.94237
0.95177
1.01408
2.02513
6.88329
11.6372
10.5463
5.09543
1.88533
2.18135
2.1329
0.853991
0.554072
0.536677
0.601122
1.51494
3.05012
3.13673
2.26522
0.838368
0.40444
0.422392
0.413959
0.396879
0.391975
0.439678
0.758099
1.30759
1.36869
1.15832
0.608705
0.413823
0.409303
0.407249
0.417238
0.442548
0.504903
0.545604
0.525118
0.528846
1.04932
3.5425
5.28149
4.1708
1.87224
0.468964
0.404872
0.400363
0.394918
0.388815
0.382341
0.375595
0.368624
0.361449
0.354097
0.346594
0.338964
0.331232
0.323423
0.31556
0.307665
0.299757
0.291855
0.283975
0.276134
0.268344
0.260619
0.25297
0.245407
0.237939
0.230575
0.22332
0.216185
0.209172
0.202287
0.195535
0.188919
0.182444
0.17611
0.169922
0.16388
0.157985
0.152238
0.14664
0.141189
0.135887
0.130731
0.125721
0.120858
0.116136
0.111561
0.107119
0.102827
0.0986554
0.0946399
0.0907302
0.0869818
0.0833251
0.0798328
0.0764213
0.0731715
0.0699984
0.066976
0.0640348
0.0612246
0.0585074
0.0558962
0.0533918
0.05097
0.0486638
0.0464249
0.0443001
0.0422386
0.0402797
0.0383872
0.0365832
0.0348471
0.0331917
0.0315961
0.0300849
0.028616
0.0272404
0.0258911
0.0246359
0.0234065
0.0222515
0.0211447
0.0200726
0.0190852
0.0180888
0.0172066
0.0162901
0.0154907
0.0146635
0.0139253
0.0131921
0.0125027
0.0118577
0.0112163
0.0106447
0.0100569
0.00954245
0.00901265
0.0085436
0.00807124
1.09538
1.07284
1.11493
1.1415
1.06919
0.99353
1.1855
1.50161
2.05794
4.21315
5.85446
4.80517
2.21095
1.30957
1.76847
1.6036
0.795695
0.547827
0.529969
0.849332
3.09884
6.40691
6.42817
4.2498
1.35924
0.399057
0.415191
0.40792
0.431153
0.556953
0.594626
0.627067
0.781661
1.0941
1.14617
1.05333
0.628214
0.389743
0.37031
0.375277
0.403808
0.431601
0.532856
0.526677
0.514575
0.519771
1.268
2.33422
1.86058
0.886401
0.421545
0.405095
0.400356
0.394857
0.38875
0.382287
0.375549
0.368579
0.361405
0.354054
0.34655
0.33892
0.331189
0.32338
0.315518
0.307623
0.299715
0.291814
0.283934
0.276093
0.268304
0.26058
0.252931
0.245369
0.237902
0.230538
0.223284
0.21615
0.209138
0.202253
0.195502
0.188887
0.182412
0.176079
0.169892
0.16385
0.157957
0.15221
0.146613
0.141162
0.135861
0.130706
0.125697
0.120835
0.116113
0.111539
0.107097
0.102806
0.0986355
0.0946206
0.0907115
0.0869637
0.0833077
0.0798159
0.0764051
0.0731557
0.0699833
0.0669614
0.0640208
0.061211
0.0584944
0.0558836
0.0533798
0.0509584
0.0486527
0.0464143
0.0442898
0.0422287
0.0402702
0.0383782
0.0365744
0.0348387
0.0331837
0.0315885
0.0300775
0.0286089
0.0272337
0.0258847
0.0246297
0.0234006
0.0222458
0.0211394
0.0200675
0.0190803
0.0180841
0.0172021
0.0162859
0.0154866
0.0146597
0.0139215
0.0131886
0.0124994
0.0118545
0.0112133
0.0106418
0.0100543
0.00953978
0.00901023
0.00854118
0.00806905
1.22583
1.27974
1.38364
1.49917
1.45737
1.1669
1.32244
2.42607
2.62904
2.60095
2.47172
1.86661
1.26052
1.26972
1.55718
1.90533
1.00512
0.544804
0.558248
1.37304
6.40314
9.01272
9.03403
6.70572
2.32292
0.42794
0.454858
0.653316
0.876732
0.977185
0.97983
0.814444
0.700423
0.729704
0.802772
0.78479
0.624568
0.424481
0.363438
0.358601
0.384417
0.412004
0.532303
0.595869
0.556875
0.465792
0.442184
0.577098
0.526551
0.427847
0.409335
0.405292
0.40034
0.394804
0.388695
0.382235
0.375501
0.368532
0.361359
0.354008
0.346506
0.338876
0.331145
0.323337
0.315475
0.30758
0.299673
0.291772
0.283893
0.276052
0.268264
0.26054
0.252892
0.24533
0.237864
0.230501
0.223247
0.216114
0.209102
0.202219
0.195468
0.188854
0.18238
0.176048
0.169861
0.16382
0.157928
0.152182
0.146585
0.141136
0.135835
0.130681
0.125672
0.120811
0.11609
0.111517
0.107075
0.102785
0.098615
0.0946007
0.0906924
0.0869452
0.0832899
0.0797986
0.0763885
0.0731396
0.0699679
0.0669464
0.0640065
0.0611972
0.0584811
0.0558708
0.0533675
0.0509466
0.0486413
0.0464034
0.0442793
0.0422187
0.0402605
0.0383689
0.0365656
0.0348302
0.0331756
0.0315807
0.0300701
0.0286018
0.0272269
0.0258782
0.0246235
0.0233947
0.0222401
0.021134
0.0200623
0.0190754
0.0180794
0.0171975
0.0162816
0.0154824
0.0146558
0.0139177
0.0131851
0.0124959
0.0118513
0.0112103
0.0106388
0.0100515
0.00953706
0.00900778
0.00853871
0.00806684
1.51086
1.56557
1.65556
1.79607
1.86998
1.4994
1.11273
1.27557
1.74926
1.6999
1.57122
1.54524
1.37967
1.22622
1.34567
1.89958
1.21973
0.579676
0.560527
0.965428
3.77237
8.70532
9.06558
7.90712
3.33864
0.637008
0.646591
1.14052
1.82314
1.68328
1.44704
1.17408
0.912522
0.679673
0.524036
0.508013
0.445257
0.363852
0.330582
0.321826
0.348143
0.379711
0.519006
0.680228
0.665415
0.519626
0.419074
0.411845
0.412146
0.410627
0.409791
0.40566
0.400371
0.39475
0.388639
0.382182
0.37545
0.368484
0.361312
0.353962
0.34646
0.338831
0.3311
0.323292
0.31543
0.307536
0.299629
0.291729
0.283851
0.27601
0.268222
0.260499
0.252852
0.245291
0.237825
0.230463
0.22321
0.216077
0.209067
0.202184
0.195434
0.18882
0.182347
0.176016
0.16983
0.16379
0.157898
0.152153
0.146557
0.141108
0.135808
0.130655
0.125648
0.120787
0.116067
0.111494
0.107054
0.102764
0.0985946
0.0945809
0.0906733
0.0869267
0.0832721
0.0797813
0.0763719
0.0731235
0.0699525
0.0669314
0.0639922
0.0611833
0.0584678
0.055858
0.0533551
0.0509347
0.0486298
0.0463924
0.0442687
0.0422086
0.0402508
0.0383596
0.0365566
0.0348217
0.0331674
0.0315728
0.0300626
0.0285946
0.02722
0.0258716
0.0246171
0.0233887
0.0222343
0.0211285
0.020057
0.0190704
0.0180746
0.0171929
0.0162773
0.0154781
0.0146519
0.0139139
0.0131815
0.0124925
0.011848
0.0112072
0.0106358
0.0100488
0.00953428
0.00900528
0.0085362
0.00806458
1.88274
1.85644
1.8641
1.9394
1.91336
1.79409
1.09188
1.08733
1.6739
1.65028
1.688
2.10949
2.41218
1.74468
1.32262
1.87339
1.38364
0.638084
0.558445
0.557614
1.96334
7.97766
9.12193
9.01664
4.29977
0.871028
0.741561
1.63322
3.01554
2.61002
1.52232
1.07143
1.10884
0.916453
0.611243
0.434004
0.391182
0.358746
0.323854
0.304296
0.328371
0.366438
0.458621
0.666161
0.741844
0.579115
0.431419
0.411131
0.412628
0.411465
0.41158
0.407093
0.400741
0.394694
0.388583
0.382127
0.375399
0.368434
0.361263
0.353914
0.346413
0.338784
0.331054
0.323246
0.315385
0.307491
0.299585
0.291685
0.283807
0.275967
0.26818
0.260457
0.252811
0.24525
0.237785
0.230423
0.223172
0.21604
0.20903
0.202148
0.195399
0.188786
0.182313
0.175983
0.169798
0.163759
0.157868
0.152123
0.146528
0.14108
0.135781
0.130629
0.125622
0.120762
0.116043
0.111471
0.107031
0.102742
0.0985736
0.0945605
0.0906537
0.0869076
0.0832538
0.0797635
0.0763548
0.0731069
0.0699366
0.066916
0.0639774
0.061169
0.0584541
0.0558448
0.0533424
0.0509226
0.0486181
0.0463812
0.0442579
0.0421983
0.0402408
0.0383501
0.0365475
0.0348129
0.0331589
0.0315647
0.0300548
0.0285872
0.0272129
0.0258648
0.0246106
0.0233825
0.0222284
0.0211229
0.0200516
0.0190652
0.0180697
0.0171882
0.0162729
0.0154738
0.0146479
0.0139099
0.0131779
0.0124889
0.0118446
0.011204
0.0106327
0.0100459
0.00953144
0.00900275
0.00853364
0.0080623
1.85968
1.82436
1.79012
1.77578
1.77182
1.7469
1.19661
0.933479
1.02161
2.75395
5.47557
7.33541
6.9552
4.52193
1.71781
0.971763
1.37661
0.971316
0.709637
1.2398
6.28797
8.50463
8.56649
6.15695
2.81927
0.845402
0.73896
2.17155
3.45246
3.41123
2.08052
0.758617
0.615124
0.711065
0.727936
0.616775
0.414003
0.293296
0.238267
0.21206
0.234871
0.29044
0.349683
0.461384
0.722247
0.672704
0.540714
0.46012
0.447822
0.434725
0.416151
0.405794
0.40021
0.394552
0.388442
0.381993
0.375271
0.368313
0.361147
0.353802
0.346303
0.338677
0.33095
0.323145
0.315285
0.307394
0.29949
0.291592
0.283717
0.275879
0.268095
0.260374
0.25273
0.245172
0.23771