/*--------------------------------*- C++ -*----------------------------------*\
| =========                 |                                                 |
| \\      /  F ield         | OpenFOAM: The Open Source CFD Toolbox           |
|  \\    /   O peration     | Version:  v1912                                 |
|   \\  /    A nd           | Website:  www.openfoam.com                      |
|    \\/     M anipulation  |                                                 |
\*---------------------------------------------------------------------------*/
FoamFile
{
    version     2.0;
    format      ascii;
    class       volScalarField;
    location    "40";
    object      k;
}
// * * * * * * * * * * * * * * * * * * * * * * * * * * * * * * * * * * * * * //

dimensions      [0 2 -2 0 0 0 0];


internalField   nonuniform List<scalar> 
14268
(
2.4504e-11
2.45062e-11
2.45082e-11
2.45102e-11
2.45121e-11
2.45139e-11
2.45155e-11
2.45172e-11
2.45187e-11
2.45202e-11
2.45215e-11
2.45229e-11
2.45241e-11
2.45253e-11
2.45265e-11
2.45275e-11
2.45286e-11
2.45295e-11
2.45305e-11
2.45313e-11
2.45322e-11
2.4533e-11
2.45337e-11
2.45344e-11
2.45351e-11
2.45357e-11
2.45364e-11
2.45369e-11
2.45375e-11
2.4538e-11
2.45385e-11
2.45389e-11
2.45394e-11
2.45398e-11
2.45402e-11
2.45406e-11
2.45409e-11
2.45413e-11
2.45416e-11
2.45419e-11
2.45422e-11
2.45424e-11
2.45427e-11
2.45429e-11
2.45431e-11
2.45433e-11
2.45435e-11
2.45437e-11
2.45439e-11
2.45441e-11
2.45442e-11
2.45444e-11
2.45445e-11
2.45447e-11
2.45448e-11
2.45449e-11
2.4545e-11
2.45451e-11
2.45452e-11
2.45453e-11
2.45454e-11
2.45455e-11
2.45455e-11
2.45456e-11
2.45457e-11
2.45457e-11
2.45458e-11
2.45459e-11
2.45459e-11
2.4546e-11
2.4546e-11
2.4546e-11
2.45461e-11
2.45461e-11
2.45461e-11
2.45462e-11
2.45462e-11
2.45462e-11
2.45463e-11
2.45463e-11
2.45463e-11
2.45463e-11
2.45464e-11
2.45464e-11
2.45464e-11
2.45464e-11
2.45464e-11
2.45464e-11
2.45464e-11
2.45465e-11
2.45465e-11
2.45465e-11
2.45465e-11
2.45465e-11
2.45465e-11
2.45465e-11
2.45465e-11
2.45465e-11
2.45465e-11
2.45465e-11
2.45465e-11
2.45465e-11
2.45465e-11
2.45465e-11
2.45466e-11
2.45466e-11
2.45466e-11
2.45466e-11
2.45466e-11
2.45465e-11
2.45465e-11
2.45465e-11
2.45465e-11
2.45465e-11
2.45465e-11
2.45465e-11
2.45465e-11
2.45465e-11
2.45465e-11
2.45465e-11
2.45465e-11
2.45464e-11
2.45465e-11
2.45464e-11
2.45464e-11
2.45464e-11
2.45464e-11
2.45463e-11
2.45464e-11
2.45463e-11
2.45464e-11
2.45463e-11
2.45464e-11
2.45463e-11
2.45465e-11
2.45464e-11
2.45466e-11
2.45465e-11
2.45468e-11
2.45467e-11
2.45469e-11
2.45468e-11
2.4547e-11
2.45469e-11
2.4547e-11
2.45469e-11
2.45469e-11
2.45469e-11
2.45469e-11
2.45469e-11
2.45468e-11
2.45468e-11
2.45468e-11
2.45468e-11
2.45468e-11
2.45468e-11
2.45468e-11
2.45468e-11
2.45468e-11
2.45468e-11
2.4547e-11
2.45471e-11
2.45565e-11
2.47804e-11
7.18714e-10
7.18778e-10
7.18839e-10
7.18898e-10
7.18953e-10
7.19007e-10
7.19057e-10
7.19105e-10
7.1915e-10
7.19194e-10
7.19235e-10
7.19275e-10
7.19312e-10
7.19348e-10
7.19381e-10
7.19414e-10
7.19444e-10
7.19473e-10
7.19501e-10
7.19527e-10
7.19552e-10
7.19575e-10
7.19597e-10
7.19619e-10
7.19639e-10
7.19658e-10
7.19676e-10
7.19693e-10
7.19709e-10
7.19725e-10
7.19739e-10
7.19753e-10
7.19766e-10
7.19779e-10
7.1979e-10
7.19802e-10
7.19812e-10
7.19822e-10
7.19831e-10
7.1984e-10
7.19849e-10
7.19857e-10
7.19864e-10
7.19871e-10
7.19878e-10
7.19884e-10
7.1989e-10
7.19896e-10
7.19901e-10
7.19906e-10
7.19911e-10
7.19915e-10
7.19919e-10
7.19923e-10
7.19927e-10
7.1993e-10
7.19933e-10
7.19937e-10
7.19939e-10
7.19942e-10
7.19945e-10
7.19947e-10
7.19949e-10
7.19951e-10
7.19953e-10
7.19955e-10
7.19957e-10
7.19959e-10
7.1996e-10
7.19962e-10
7.19963e-10
7.19964e-10
7.19965e-10
7.19967e-10
7.19968e-10
7.19969e-10
7.19969e-10
7.1997e-10
7.19971e-10
7.19972e-10
7.19973e-10
7.19973e-10
7.19974e-10
7.19974e-10
7.19975e-10
7.19975e-10
7.19976e-10
7.19976e-10
7.19977e-10
7.19977e-10
7.19977e-10
7.19978e-10
7.19978e-10
7.19978e-10
7.19978e-10
7.19978e-10
7.19979e-10
7.19979e-10
7.19979e-10
7.19979e-10
7.19979e-10
7.19979e-10
7.19979e-10
7.19979e-10
7.1998e-10
7.1998e-10
7.1998e-10
7.1998e-10
7.1998e-10
7.1998e-10
7.19979e-10
7.19979e-10
7.19979e-10
7.19979e-10
7.19979e-10
7.19979e-10
7.19979e-10
7.19978e-10
7.19978e-10
7.19977e-10
7.19977e-10
7.19976e-10
7.19977e-10
7.19975e-10
7.19976e-10
7.19974e-10
7.19975e-10
7.19973e-10
7.19975e-10
7.19971e-10
7.19975e-10
7.19971e-10
7.19976e-10
7.19972e-10
7.19979e-10
7.19975e-10
7.19982e-10
7.19979e-10
7.19988e-10
7.19985e-10
7.1999e-10
7.19988e-10
7.19991e-10
7.19989e-10
7.19991e-10
7.19989e-10
7.1999e-10
7.19989e-10
7.19989e-10
7.19988e-10
7.19988e-10
7.19987e-10
7.19987e-10
7.19987e-10
7.19986e-10
7.19986e-10
7.19985e-10
7.19986e-10
7.19986e-10
7.19987e-10
7.19992e-10
7.19995e-10
7.20267e-10
7.26082e-10
4.73707e-09
4.73748e-09
4.73786e-09
4.73824e-09
4.73858e-09
4.73892e-09
4.73924e-09
4.73954e-09
4.73983e-09
4.74011e-09
4.74036e-09
4.74061e-09
4.74085e-09
4.74108e-09
4.74129e-09
4.74149e-09
4.74168e-09
4.74187e-09
4.74204e-09
4.74221e-09
4.74236e-09
4.74251e-09
4.74265e-09
4.74279e-09
4.74291e-09
4.74303e-09
4.74315e-09
4.74326e-09
4.74336e-09
4.74346e-09
4.74355e-09
4.74364e-09
4.74372e-09
4.7438e-09
4.74387e-09
4.74394e-09
4.74401e-09
4.74407e-09
4.74413e-09
4.74419e-09
4.74424e-09
4.74429e-09
4.74434e-09
4.74438e-09
4.74442e-09
4.74446e-09
4.7445e-09
4.74453e-09
4.74457e-09
4.7446e-09
4.74463e-09
4.74466e-09
4.74468e-09
4.74471e-09
4.74473e-09
4.74475e-09
4.74477e-09
4.74479e-09
4.74481e-09
4.74483e-09
4.74484e-09
4.74486e-09
4.74487e-09
4.74489e-09
4.7449e-09
4.74491e-09
4.74492e-09
4.74493e-09
4.74494e-09
4.74495e-09
4.74496e-09
4.74497e-09
4.74498e-09
4.74498e-09
4.74499e-09
4.745e-09
4.745e-09
4.74501e-09
4.74501e-09
4.74502e-09
4.74502e-09
4.74502e-09
4.74503e-09
4.74503e-09
4.74504e-09
4.74504e-09
4.74504e-09
4.74504e-09
4.74505e-09
4.74505e-09
4.74505e-09
4.74505e-09
4.74505e-09
4.74506e-09
4.74506e-09
4.74506e-09
4.74506e-09
4.74506e-09
4.74506e-09
4.74506e-09
4.74506e-09
4.74506e-09
4.74506e-09
4.74506e-09
4.74506e-09
4.74506e-09
4.74506e-09
4.74506e-09
4.74506e-09
4.74506e-09
4.74506e-09
4.74506e-09
4.74506e-09
4.74506e-09
4.74506e-09
4.74506e-09
4.74506e-09
4.74506e-09
4.74505e-09
4.74505e-09
4.74505e-09
4.74505e-09
4.74505e-09
4.74504e-09
4.74504e-09
4.74503e-09
4.74504e-09
4.74502e-09
4.74503e-09
4.74501e-09
4.74504e-09
4.74501e-09
4.74504e-09
4.74502e-09
4.74506e-09
4.74504e-09
4.74508e-09
4.74506e-09
4.74511e-09
4.7451e-09
4.74513e-09
4.74511e-09
4.74514e-09
4.74512e-09
4.74514e-09
4.74512e-09
4.74513e-09
4.74512e-09
4.74512e-09
4.74512e-09
4.74512e-09
4.74511e-09
4.74511e-09
4.74511e-09
4.7451e-09
4.74511e-09
4.7451e-09
4.74511e-09
4.7451e-09
4.74511e-09
4.74514e-09
4.74516e-09
4.74684e-09
4.7787e-09
1.49265e-08
1.49277e-08
1.49288e-08
1.49299e-08
1.49309e-08
1.49318e-08
1.49328e-08
1.49336e-08
1.49345e-08
1.49353e-08
1.4936e-08
1.49367e-08
1.49374e-08
1.4938e-08
1.49386e-08
1.49392e-08
1.49398e-08
1.49403e-08
1.49408e-08
1.49413e-08
1.49417e-08
1.49422e-08
1.49426e-08
1.4943e-08
1.49433e-08
1.49437e-08
1.4944e-08
1.49443e-08
1.49446e-08
1.49449e-08
1.49451e-08
1.49454e-08
1.49456e-08
1.49459e-08
1.49461e-08
1.49463e-08
1.49465e-08
1.49466e-08
1.49468e-08
1.4947e-08
1.49471e-08
1.49473e-08
1.49474e-08
1.49475e-08
1.49477e-08
1.49478e-08
1.49479e-08
1.4948e-08
1.49481e-08
1.49482e-08
1.49483e-08
1.49483e-08
1.49484e-08
1.49485e-08
1.49486e-08
1.49486e-08
1.49487e-08
1.49487e-08
1.49488e-08
1.49488e-08
1.49489e-08
1.49489e-08
1.4949e-08
1.4949e-08
1.4949e-08
1.49491e-08
1.49491e-08
1.49491e-08
1.49492e-08
1.49492e-08
1.49492e-08
1.49492e-08
1.49493e-08
1.49493e-08
1.49493e-08
1.49493e-08
1.49493e-08
1.49493e-08
1.49494e-08
1.49494e-08
1.49494e-08
1.49494e-08
1.49494e-08
1.49494e-08
1.49494e-08
1.49494e-08
1.49494e-08
1.49495e-08
1.49495e-08
1.49495e-08
1.49495e-08
1.49495e-08
1.49495e-08
1.49495e-08
1.49495e-08
1.49495e-08
1.49495e-08
1.49495e-08
1.49495e-08
1.49495e-08
1.49495e-08
1.49495e-08
1.49495e-08
1.49495e-08
1.49495e-08
1.49495e-08
1.49495e-08
1.49495e-08
1.49495e-08
1.49495e-08
1.49495e-08
1.49495e-08
1.49495e-08
1.49495e-08
1.49495e-08
1.49495e-08
1.49495e-08
1.49495e-08
1.49495e-08
1.49495e-08
1.49495e-08
1.49495e-08
1.49495e-08
1.49494e-08
1.49494e-08
1.49494e-08
1.49494e-08
1.49494e-08
1.49494e-08
1.49494e-08
1.49494e-08
1.49494e-08
1.49495e-08
1.49494e-08
1.49495e-08
1.49494e-08
1.49496e-08
1.49495e-08
1.49496e-08
1.49496e-08
1.49497e-08
1.49497e-08
1.49497e-08
1.49497e-08
1.49497e-08
1.49497e-08
1.49497e-08
1.49497e-08
1.49497e-08
1.49497e-08
1.49497e-08
1.49496e-08
1.49496e-08
1.49496e-08
1.49496e-08
1.49496e-08
1.49496e-08
1.49496e-08
1.49496e-08
1.49496e-08
1.49497e-08
1.49498e-08
1.49545e-08
1.50345e-08
3.13295e-08
3.13316e-08
3.13336e-08
3.13355e-08
3.13373e-08
3.1339e-08
3.13406e-08
3.13422e-08
3.13437e-08
3.13451e-08
3.13464e-08
3.13477e-08
3.13489e-08
3.13501e-08
3.13512e-08
3.13522e-08
3.13532e-08
3.13541e-08
3.1355e-08
3.13559e-08
3.13567e-08
3.13575e-08
3.13582e-08
3.13589e-08
3.13595e-08
3.13601e-08
3.13607e-08
3.13613e-08
3.13618e-08
3.13623e-08
3.13628e-08
3.13632e-08
3.13637e-08
3.13641e-08
3.13645e-08
3.13648e-08
3.13652e-08
3.13655e-08
3.13658e-08
3.13661e-08
3.13663e-08
3.13666e-08
3.13668e-08
3.13671e-08
3.13673e-08
3.13675e-08
3.13677e-08
3.13679e-08
3.1368e-08
3.13682e-08
3.13684e-08
3.13685e-08
3.13686e-08
3.13688e-08
3.13689e-08
3.1369e-08
3.13691e-08
3.13692e-08
3.13693e-08
3.13694e-08
3.13695e-08
3.13696e-08
3.13696e-08
3.13697e-08
3.13698e-08
3.13698e-08
3.13699e-08
3.13699e-08
3.137e-08
3.137e-08
3.13701e-08
3.13701e-08
3.13702e-08
3.13702e-08
3.13702e-08
3.13703e-08
3.13703e-08
3.13703e-08
3.13703e-08
3.13704e-08
3.13704e-08
3.13704e-08
3.13704e-08
3.13704e-08
3.13705e-08
3.13705e-08
3.13705e-08
3.13705e-08
3.13705e-08
3.13705e-08
3.13705e-08
3.13705e-08
3.13706e-08
3.13706e-08
3.13706e-08
3.13706e-08
3.13706e-08
3.13706e-08
3.13706e-08
3.13706e-08
3.13706e-08
3.13706e-08
3.13706e-08
3.13706e-08
3.13706e-08
3.13706e-08
3.13706e-08
3.13706e-08
3.13706e-08
3.13706e-08
3.13706e-08
3.13706e-08
3.13706e-08
3.13706e-08
3.13706e-08
3.13706e-08
3.13706e-08
3.13706e-08
3.13706e-08
3.13705e-08
3.13705e-08
3.13705e-08
3.13705e-08
3.13705e-08
3.13705e-08
3.13704e-08
3.13705e-08
3.13704e-08
3.13705e-08
3.13703e-08
3.13705e-08
3.13703e-08
3.13705e-08
3.13704e-08
3.13706e-08
3.13705e-08
3.13707e-08
3.13706e-08
3.13709e-08
3.13708e-08
3.13709e-08
3.13709e-08
3.1371e-08
3.13709e-08
3.1371e-08
3.13709e-08
3.13709e-08
3.13709e-08
3.13709e-08
3.13709e-08
3.13709e-08
3.13708e-08
3.13708e-08
3.13708e-08
3.13708e-08
3.13708e-08
3.13708e-08
3.13708e-08
3.13708e-08
3.13709e-08
3.1371e-08
3.13711e-08
3.13795e-08
3.15079e-08
5.09036e-08
5.09063e-08
5.09088e-08
5.09113e-08
5.09135e-08
5.09158e-08
5.09178e-08
5.09199e-08
5.09217e-08
5.09236e-08
5.09253e-08
5.09269e-08
5.09285e-08
5.09299e-08
5.09313e-08
5.09327e-08
5.09339e-08
5.09352e-08
5.09363e-08
5.09374e-08
5.09384e-08
5.09394e-08
5.09403e-08
5.09412e-08
5.0942e-08
5.09428e-08
5.09436e-08
5.09443e-08
5.0945e-08
5.09456e-08
5.09462e-08
5.09468e-08
5.09474e-08
5.09479e-08
5.09484e-08
5.09488e-08
5.09493e-08
5.09497e-08
5.09501e-08
5.09504e-08
5.09508e-08
5.09511e-08
5.09514e-08
5.09517e-08
5.0952e-08
5.09523e-08
5.09525e-08
5.09528e-08
5.0953e-08
5.09532e-08
5.09534e-08
5.09536e-08
5.09537e-08
5.09539e-08
5.09541e-08
5.09542e-08
5.09543e-08
5.09545e-08
5.09546e-08
5.09547e-08
5.09548e-08
5.09549e-08
5.0955e-08
5.09551e-08
5.09552e-08
5.09553e-08
5.09553e-08
5.09554e-08
5.09555e-08
5.09555e-08
5.09556e-08
5.09556e-08
5.09557e-08
5.09557e-08
5.09558e-08
5.09558e-08
5.09559e-08
5.09559e-08
5.09559e-08
5.0956e-08
5.0956e-08
5.0956e-08
5.0956e-08
5.09561e-08
5.09561e-08
5.09561e-08
5.09561e-08
5.09561e-08
5.09562e-08
5.09562e-08
5.09562e-08
5.09562e-08
5.09562e-08
5.09562e-08
5.09562e-08
5.09562e-08
5.09563e-08
5.09563e-08
5.09563e-08
5.09563e-08
5.09563e-08
5.09563e-08
5.09563e-08
5.09563e-08
5.09563e-08
5.09563e-08
5.09563e-08
5.09563e-08
5.09563e-08
5.09563e-08
5.09563e-08
5.09563e-08
5.09563e-08
5.09563e-08
5.09563e-08
5.09563e-08
5.09562e-08
5.09562e-08
5.09562e-08
5.09562e-08
5.09562e-08
5.09562e-08
5.09562e-08
5.09561e-08
5.09561e-08
5.0956e-08
5.09561e-08
5.0956e-08
5.09561e-08
5.09559e-08
5.09561e-08
5.09559e-08
5.09561e-08
5.0956e-08
5.09563e-08
5.09561e-08
5.09564e-08
5.09563e-08
5.09566e-08
5.09565e-08
5.09567e-08
5.09566e-08
5.09567e-08
5.09567e-08
5.09567e-08
5.09567e-08
5.09567e-08
5.09566e-08
5.09567e-08
5.09566e-08
5.09566e-08
5.09566e-08
5.09566e-08
5.09566e-08
5.09565e-08
5.09566e-08
5.09565e-08
5.09566e-08
5.09565e-08
5.09566e-08
5.09568e-08
5.09569e-08
5.09676e-08
5.11195e-08
6.95886e-08
6.95912e-08
6.95938e-08
6.95962e-08
6.95985e-08
6.96007e-08
6.96028e-08
6.96048e-08
6.96067e-08
6.96086e-08
6.96102e-08
6.96119e-08
6.96134e-08
6.9615e-08
6.96163e-08
6.96177e-08
6.9619e-08
6.96202e-08
6.96213e-08
6.96224e-08
6.96234e-08
6.96244e-08
6.96254e-08
6.96263e-08
6.96271e-08
6.96279e-08
6.96286e-08
6.96294e-08
6.963e-08
6.96307e-08
6.96313e-08
6.96319e-08
6.96324e-08
6.96329e-08
6.96334e-08
6.96339e-08
6.96343e-08
6.96348e-08
6.96351e-08
6.96355e-08
6.96359e-08
6.96362e-08
6.96365e-08
6.96368e-08
6.96371e-08
6.96374e-08
6.96376e-08
6.96378e-08
6.96381e-08
6.96383e-08
6.96385e-08
6.96387e-08
6.96388e-08
6.9639e-08
6.96392e-08
6.96393e-08
6.96394e-08
6.96396e-08
6.96397e-08
6.96398e-08
6.96399e-08
6.964e-08
6.96401e-08
6.96402e-08
6.96403e-08
6.96404e-08
6.96405e-08
6.96405e-08
6.96406e-08
6.96406e-08
6.96407e-08
6.96408e-08
6.96408e-08
6.96409e-08
6.96409e-08
6.96409e-08
6.9641e-08
6.9641e-08
6.96411e-08
6.96411e-08
6.96411e-08
6.96411e-08
6.96412e-08
6.96412e-08
6.96412e-08
6.96412e-08
6.96413e-08
6.96413e-08
6.96413e-08
6.96413e-08
6.96413e-08
6.96413e-08
6.96413e-08
6.96414e-08
6.96414e-08
6.96414e-08
6.96414e-08
6.96414e-08
6.96414e-08
6.96414e-08
6.96414e-08
6.96414e-08
6.96414e-08
6.96414e-08
6.96414e-08
6.96414e-08
6.96414e-08
6.96414e-08
6.96414e-08
6.96414e-08
6.96414e-08
6.96414e-08
6.96414e-08
6.96414e-08
6.96414e-08
6.96414e-08
6.96414e-08
6.96414e-08
6.96414e-08
6.96413e-08
6.96413e-08
6.96413e-08
6.96413e-08
6.96412e-08
6.96413e-08
6.96412e-08
6.96412e-08
6.96411e-08
6.96412e-08
6.96411e-08
6.96412e-08
6.9641e-08
6.96413e-08
6.96411e-08
6.96414e-08
6.96412e-08
6.96415e-08
6.96414e-08
6.96417e-08
6.96416e-08
6.96418e-08
6.96417e-08
6.96419e-08
6.96418e-08
6.96419e-08
6.96418e-08
6.96418e-08
6.96418e-08
6.96418e-08
6.96417e-08
6.96417e-08
6.96417e-08
6.96417e-08
6.96417e-08
6.96417e-08
6.96417e-08
6.96417e-08
6.96417e-08
6.96417e-08
6.96417e-08
6.96419e-08
6.9642e-08
6.96525e-08
6.97955e-08
8.45296e-08
8.45319e-08
8.4534e-08
8.45361e-08
8.4538e-08
8.45399e-08
8.45417e-08
8.45434e-08
8.4545e-08
8.45466e-08
8.4548e-08
8.45494e-08
8.45507e-08
8.4552e-08
8.45532e-08
8.45543e-08
8.45554e-08
8.45564e-08
8.45574e-08
8.45583e-08
8.45592e-08
8.456e-08
8.45608e-08
8.45616e-08
8.45623e-08
8.4563e-08
8.45636e-08
8.45642e-08
8.45648e-08
8.45653e-08
8.45659e-08
8.45663e-08
8.45668e-08
8.45672e-08
8.45677e-08
8.45681e-08
8.45684e-08
8.45688e-08
8.45691e-08
8.45694e-08
8.45697e-08
8.457e-08
8.45703e-08
8.45705e-08
8.45708e-08
8.4571e-08
8.45712e-08
8.45714e-08
8.45716e-08
8.45718e-08
8.4572e-08
8.45721e-08
8.45723e-08
8.45724e-08
8.45725e-08
8.45727e-08
8.45728e-08
8.45729e-08
8.4573e-08
8.45731e-08
8.45732e-08
8.45733e-08
8.45734e-08
8.45734e-08
8.45735e-08
8.45736e-08
8.45736e-08
8.45737e-08
8.45737e-08
8.45738e-08
8.45739e-08
8.45739e-08
8.45739e-08
8.4574e-08
8.4574e-08
8.45741e-08
8.45741e-08
8.45741e-08
8.45742e-08
8.45742e-08
8.45742e-08
8.45742e-08
8.45743e-08
8.45743e-08
8.45743e-08
8.45743e-08
8.45743e-08
8.45743e-08
8.45744e-08
8.45744e-08
8.45744e-08
8.45744e-08
8.45744e-08
8.45744e-08
8.45744e-08
8.45744e-08
8.45744e-08
8.45744e-08
8.45745e-08
8.45745e-08
8.45745e-08
8.45745e-08
8.45745e-08
8.45745e-08
8.45745e-08
8.45745e-08
8.45745e-08
8.45745e-08
8.45745e-08
8.45745e-08
8.45745e-08
8.45745e-08
8.45745e-08
8.45745e-08
8.45744e-08
8.45744e-08
8.45744e-08
8.45744e-08
8.45744e-08
8.45744e-08
8.45744e-08
8.45744e-08
8.45744e-08
8.45743e-08
8.45743e-08
8.45743e-08
8.45743e-08
8.45742e-08
8.45743e-08
8.45742e-08
8.45743e-08
8.45741e-08
8.45743e-08
8.45742e-08
8.45745e-08
8.45743e-08
8.45746e-08
8.45744e-08
8.45747e-08
8.45746e-08
8.45748e-08
8.45747e-08
8.45748e-08
8.45748e-08
8.45748e-08
8.45748e-08
8.45748e-08
8.45748e-08
8.45748e-08
8.45747e-08
8.45747e-08
8.45747e-08
8.45747e-08
8.45747e-08
8.45747e-08
8.45747e-08
8.45747e-08
8.45747e-08
8.45747e-08
8.45747e-08
8.45749e-08
8.4575e-08
8.45833e-08
8.46959e-08
9.48634e-08
9.48651e-08
9.48667e-08
9.48682e-08
9.48696e-08
9.4871e-08
9.48723e-08
9.48736e-08
9.48748e-08
9.48759e-08
9.4877e-08
9.4878e-08
9.4879e-08
9.48799e-08
9.48808e-08
9.48816e-08
9.48824e-08
9.48832e-08
9.48839e-08
9.48846e-08
9.48852e-08
9.48858e-08
9.48864e-08
9.4887e-08
9.48875e-08
9.4888e-08
9.48884e-08
9.48889e-08
9.48893e-08
9.48897e-08
9.48901e-08
9.48905e-08
9.48908e-08
9.48911e-08
9.48914e-08
9.48917e-08
9.4892e-08
9.48923e-08
9.48925e-08
9.48927e-08
9.48929e-08
9.48932e-08
9.48933e-08
9.48935e-08
9.48937e-08
9.48939e-08
9.4894e-08
9.48942e-08
9.48943e-08
9.48944e-08
9.48946e-08
9.48947e-08
9.48948e-08
9.48949e-08
9.4895e-08
9.48951e-08
9.48952e-08
9.48952e-08
9.48953e-08
9.48954e-08
9.48955e-08
9.48955e-08
9.48956e-08
9.48956e-08
9.48957e-08
9.48957e-08
9.48958e-08
9.48958e-08
9.48959e-08
9.48959e-08
9.48959e-08
9.4896e-08
9.4896e-08
9.4896e-08
9.48961e-08
9.48961e-08
9.48961e-08
9.48961e-08
9.48962e-08
9.48962e-08
9.48962e-08
9.48962e-08
9.48962e-08
9.48962e-08
9.48963e-08
9.48963e-08
9.48963e-08
9.48963e-08
9.48963e-08
9.48963e-08
9.48963e-08
9.48963e-08
9.48963e-08
9.48964e-08
9.48964e-08
9.48964e-08
9.48964e-08
9.48964e-08
9.48964e-08
9.48964e-08
9.48964e-08
9.48964e-08
9.48964e-08
9.48964e-08
9.48964e-08
9.48964e-08
9.48964e-08
9.48964e-08
9.48964e-08
9.48964e-08
9.48964e-08
9.48964e-08
9.48964e-08
9.48964e-08
9.48964e-08
9.48964e-08
9.48964e-08
9.48964e-08
9.48964e-08
9.48963e-08
9.48963e-08
9.48963e-08
9.48963e-08
9.48963e-08
9.48963e-08
9.48962e-08
9.48963e-08
9.48962e-08
9.48963e-08
9.48962e-08
9.48963e-08
9.48962e-08
9.48963e-08
9.48962e-08
9.48964e-08
9.48963e-08
9.48965e-08
9.48964e-08
9.48966e-08
9.48965e-08
9.48966e-08
9.48966e-08
9.48967e-08
9.48966e-08
9.48967e-08
9.48966e-08
9.48966e-08
9.48966e-08
9.48966e-08
9.48966e-08
9.48966e-08
9.48966e-08
9.48966e-08
9.48966e-08
9.48965e-08
9.48966e-08
9.48965e-08
9.48966e-08
9.48965e-08
9.48966e-08
9.48967e-08
9.48967e-08
9.49025e-08
9.49796e-08
1.01189e-07
1.0119e-07
1.01191e-07
1.01192e-07
1.01193e-07
1.01194e-07
1.01195e-07
1.01196e-07
1.01197e-07
1.01197e-07
1.01198e-07
1.01199e-07
1.01199e-07
1.012e-07
1.012e-07
1.01201e-07
1.01202e-07
1.01202e-07
1.01202e-07
1.01203e-07
1.01203e-07
1.01204e-07
1.01204e-07
1.01204e-07
1.01205e-07
1.01205e-07
1.01205e-07
1.01206e-07
1.01206e-07
1.01206e-07
1.01207e-07
1.01207e-07
1.01207e-07
1.01207e-07
1.01207e-07
1.01208e-07
1.01208e-07
1.01208e-07
1.01208e-07
1.01208e-07
1.01208e-07
1.01209e-07
1.01209e-07
1.01209e-07
1.01209e-07
1.01209e-07
1.01209e-07
1.01209e-07
1.01209e-07
1.01209e-07
1.01209e-07
1.0121e-07
1.0121e-07
1.0121e-07
1.0121e-07
1.0121e-07
1.0121e-07
1.0121e-07
1.0121e-07
1.0121e-07
1.0121e-07
1.0121e-07
1.0121e-07
1.0121e-07
1.0121e-07
1.0121e-07
1.0121e-07
1.0121e-07
1.0121e-07
1.0121e-07
1.0121e-07
1.0121e-07
1.0121e-07
1.0121e-07
1.0121e-07
1.0121e-07
1.0121e-07
1.0121e-07
1.0121e-07
1.0121e-07
1.0121e-07
1.0121e-07
1.0121e-07
1.01211e-07
1.01211e-07
1.01211e-07
1.01211e-07
1.01211e-07
1.01211e-07
1.01211e-07
1.01211e-07
1.01211e-07
1.01211e-07
1.01211e-07
1.01211e-07
1.01211e-07
1.01211e-07
1.01211e-07
1.01211e-07
1.01211e-07
1.01211e-07
1.01211e-07
1.01211e-07
1.01211e-07
1.01211e-07
1.01211e-07
1.01211e-07
1.01211e-07
1.01211e-07
1.01211e-07
1.01211e-07
1.01211e-07
1.01211e-07
1.01211e-07
1.01211e-07
1.01211e-07
1.01211e-07
1.01211e-07
1.01211e-07
1.01211e-07
1.01211e-07
1.01211e-07
1.01211e-07
1.01211e-07
1.01211e-07
1.0121e-07
1.01211e-07
1.0121e-07
1.01211e-07
1.0121e-07
1.01211e-07
1.0121e-07
1.01211e-07
1.0121e-07
1.01211e-07
1.01211e-07
1.01211e-07
1.01211e-07
1.01211e-07
1.01211e-07
1.01211e-07
1.01211e-07
1.01211e-07
1.01211e-07
1.01211e-07
1.01211e-07
1.01211e-07
1.01211e-07
1.01211e-07
1.01211e-07
1.01211e-07
1.01211e-07
1.01211e-07
1.01211e-07
1.01211e-07
1.01211e-07
1.01211e-07
1.01211e-07
1.01211e-07
1.01211e-07
1.01211e-07
1.01211e-07
1.01214e-07
1.01263e-07
1.04674e-07
1.04675e-07
1.04675e-07
1.04676e-07
1.04676e-07
1.04677e-07
1.04677e-07
1.04678e-07
1.04678e-07
1.04679e-07
1.04679e-07
1.0468e-07
1.0468e-07
1.0468e-07
1.04681e-07
1.04681e-07
1.04681e-07
1.04682e-07
1.04682e-07
1.04682e-07
1.04682e-07
1.04683e-07
1.04683e-07
1.04683e-07
1.04683e-07
1.04684e-07
1.04684e-07
1.04684e-07
1.04684e-07
1.04684e-07
1.04684e-07
1.04684e-07
1.04685e-07
1.04685e-07
1.04685e-07
1.04685e-07
1.04685e-07
1.04685e-07
1.04685e-07
1.04685e-07
1.04685e-07
1.04686e-07
1.04686e-07
1.04686e-07
1.04686e-07
1.04686e-07
1.04686e-07
1.04686e-07
1.04686e-07
1.04686e-07
1.04686e-07
1.04686e-07
1.04686e-07
1.04686e-07
1.04686e-07
1.04686e-07
1.04686e-07
1.04686e-07
1.04686e-07
1.04686e-07
1.04686e-07
1.04686e-07
1.04686e-07
1.04686e-07
1.04686e-07
1.04686e-07
1.04687e-07
1.04687e-07
1.04687e-07
1.04687e-07
1.04687e-07
1.04687e-07
1.04687e-07
1.04687e-07
1.04687e-07
1.04687e-07
1.04687e-07
1.04687e-07
1.04687e-07
1.04687e-07
1.04687e-07
1.04687e-07
1.04687e-07
1.04687e-07
1.04687e-07
1.04687e-07
1.04687e-07
1.04687e-07
1.04687e-07
1.04687e-07
1.04687e-07
1.04687e-07
1.04687e-07
1.04687e-07
1.04687e-07
1.04687e-07
1.04687e-07
1.04687e-07
1.04687e-07
1.04687e-07
1.04687e-07
1.04687e-07
1.04687e-07
1.04687e-07
1.04687e-07
1.04687e-07
1.04687e-07
1.04687e-07
1.04687e-07
1.04687e-07
1.04687e-07
1.04687e-07
1.04687e-07
1.04687e-07
1.04687e-07
1.04687e-07
1.04687e-07
1.04687e-07
1.04687e-07
1.04687e-07
1.04687e-07
1.04687e-07
1.04687e-07
1.04687e-07
1.04687e-07
1.04687e-07
1.04687e-07
1.04687e-07
1.04687e-07
1.04687e-07
1.04687e-07
1.04687e-07
1.04687e-07
1.04687e-07
1.04687e-07
1.04687e-07
1.04687e-07
1.04687e-07
1.04687e-07
1.04687e-07
1.04687e-07
1.04687e-07
1.04687e-07
1.04687e-07
1.04687e-07
1.04687e-07
1.04687e-07
1.04687e-07
1.04687e-07
1.04687e-07
1.04687e-07
1.04687e-07
1.04687e-07
1.04687e-07
1.04687e-07
1.04687e-07
1.04687e-07
1.04687e-07
1.04687e-07
1.04687e-07
1.04687e-07
1.04687e-07
1.04689e-07
1.04721e-07
1.06423e-07
1.06424e-07
1.06424e-07
1.06424e-07
1.06424e-07
1.06425e-07
1.06425e-07
1.06425e-07
1.06426e-07
1.06426e-07
1.06426e-07
1.06426e-07
1.06426e-07
1.06427e-07
1.06427e-07
1.06427e-07
1.06427e-07
1.06427e-07
1.06428e-07
1.06428e-07
1.06428e-07
1.06428e-07
1.06428e-07
1.06428e-07
1.06428e-07
1.06428e-07
1.06428e-07
1.06429e-07
1.06429e-07
1.06429e-07
1.06429e-07
1.06429e-07
1.06429e-07
1.06429e-07
1.06429e-07
1.06429e-07
1.06429e-07
1.06429e-07
1.06429e-07
1.06429e-07
1.06429e-07
1.06429e-07
1.06429e-07
1.0643e-07
1.0643e-07
1.0643e-07
1.0643e-07
1.0643e-07
1.0643e-07
1.0643e-07
1.0643e-07
1.0643e-07
1.0643e-07
1.0643e-07
1.0643e-07
1.0643e-07
1.0643e-07
1.0643e-07
1.0643e-07
1.0643e-07
1.0643e-07
1.0643e-07
1.0643e-07
1.0643e-07
1.0643e-07
1.0643e-07
1.0643e-07
1.0643e-07
1.0643e-07
1.0643e-07
1.0643e-07
1.0643e-07
1.0643e-07
1.0643e-07
1.0643e-07
1.0643e-07
1.0643e-07
1.0643e-07
1.0643e-07
1.0643e-07
1.0643e-07
1.0643e-07
1.0643e-07
1.0643e-07
1.0643e-07
1.0643e-07
1.0643e-07
1.0643e-07
1.0643e-07
1.0643e-07
1.0643e-07
1.0643e-07
1.0643e-07
1.0643e-07
1.0643e-07
1.0643e-07
1.0643e-07
1.0643e-07
1.0643e-07
1.0643e-07
1.0643e-07
1.0643e-07
1.0643e-07
1.0643e-07
1.0643e-07
1.0643e-07
1.0643e-07
1.0643e-07
1.0643e-07
1.0643e-07
1.0643e-07
1.0643e-07
1.0643e-07
1.0643e-07
1.0643e-07
1.0643e-07
1.0643e-07
1.0643e-07
1.0643e-07
1.0643e-07
1.0643e-07
1.0643e-07
1.0643e-07
1.0643e-07
1.0643e-07
1.0643e-07
1.0643e-07
1.0643e-07
1.0643e-07
1.0643e-07
1.0643e-07
1.0643e-07
1.0643e-07
1.0643e-07
1.0643e-07
1.0643e-07
1.0643e-07
1.0643e-07
1.0643e-07
1.0643e-07
1.0643e-07
1.0643e-07
1.0643e-07
1.0643e-07
1.0643e-07
1.0643e-07
1.0643e-07
1.0643e-07
1.0643e-07
1.0643e-07
1.0643e-07
1.0643e-07
1.0643e-07
1.0643e-07
1.0643e-07
1.0643e-07
1.0643e-07
1.0643e-07
1.0643e-07
1.0643e-07
1.0643e-07
1.0643e-07
1.06431e-07
1.0646e-07
1.07229e-07
1.07229e-07
1.07229e-07
1.0723e-07
1.0723e-07
1.0723e-07
1.0723e-07
1.0723e-07
1.0723e-07
1.07231e-07
1.07231e-07
1.07231e-07
1.07231e-07
1.07231e-07
1.07231e-07
1.07231e-07
1.07231e-07
1.07231e-07
1.07231e-07
1.07232e-07
1.07232e-07
1.07232e-07
1.07232e-07
1.07232e-07
1.07232e-07
1.07232e-07
1.07232e-07
1.07232e-07
1.07232e-07
1.07232e-07
1.07232e-07
1.07232e-07
1.07232e-07
1.07232e-07
1.07232e-07
1.07232e-07
1.07232e-07
1.07232e-07
1.07232e-07
1.07232e-07
1.07232e-07
1.07232e-07
1.07233e-07
1.07233e-07
1.07233e-07
1.07233e-07
1.07233e-07
1.07233e-07
1.07233e-07
1.07233e-07
1.07233e-07
1.07233e-07
1.07233e-07
1.07233e-07
1.07233e-07
1.07233e-07
1.07233e-07
1.07233e-07
1.07233e-07
1.07233e-07
1.07233e-07
1.07233e-07
1.07233e-07
1.07233e-07
1.07233e-07
1.07233e-07
1.07233e-07
1.07233e-07
1.07233e-07
1.07233e-07
1.07233e-07
1.07233e-07
1.07233e-07
1.07233e-07
1.07233e-07
1.07233e-07
1.07233e-07
1.07233e-07
1.07233e-07
1.07233e-07
1.07233e-07
1.07233e-07
1.07233e-07
1.07233e-07
1.07233e-07
1.07233e-07
1.07233e-07
1.07233e-07
1.07233e-07
1.07233e-07
1.07233e-07
1.07233e-07
1.07233e-07
1.07233e-07
1.07233e-07
1.07233e-07
1.07233e-07
1.07233e-07
1.07233e-07
1.07233e-07
1.07233e-07
1.07233e-07
1.07233e-07
1.07233e-07
1.07233e-07
1.07233e-07
1.07233e-07
1.07233e-07
1.07233e-07
1.07233e-07
1.07233e-07
1.07233e-07
1.07233e-07
1.07233e-07
1.07233e-07
1.07233e-07
1.07233e-07
1.07233e-07
1.07233e-07
1.07233e-07
1.07233e-07
1.07233e-07
1.07233e-07
1.07233e-07
1.07233e-07
1.07233e-07
1.07233e-07
1.07233e-07
1.07233e-07
1.07233e-07
1.07233e-07
1.07233e-07
1.07233e-07
1.07233e-07
1.07233e-07
1.07233e-07
1.07233e-07
1.07233e-07
1.07233e-07
1.07233e-07
1.07233e-07
1.07233e-07
1.07233e-07
1.07233e-07
1.07233e-07
1.07233e-07
1.07233e-07
1.07233e-07
1.07233e-07
1.07233e-07
1.07233e-07
1.07233e-07
1.07233e-07
1.07233e-07
1.07233e-07
1.07233e-07
1.07233e-07
1.07233e-07
1.07233e-07
1.07233e-07
1.07233e-07
1.07233e-07
1.07233e-07
1.07265e-07
1.07569e-07
1.07569e-07
1.07569e-07
1.07569e-07
1.07569e-07
1.07569e-07
1.07569e-07
1.07569e-07
1.07569e-07
1.0757e-07
1.0757e-07
1.0757e-07
1.0757e-07
1.0757e-07
1.0757e-07
1.0757e-07
1.0757e-07
1.0757e-07
1.0757e-07
1.0757e-07
1.0757e-07
1.0757e-07
1.0757e-07
1.0757e-07
1.0757e-07
1.0757e-07
1.0757e-07
1.0757e-07
1.0757e-07
1.0757e-07
1.0757e-07
1.0757e-07
1.0757e-07
1.0757e-07
1.0757e-07
1.07571e-07
1.07571e-07
1.07571e-07
1.07571e-07
1.07571e-07
1.07571e-07
1.07571e-07
1.07571e-07
1.07571e-07
1.07571e-07
1.07571e-07
1.07571e-07
1.07571e-07
1.07571e-07
1.07571e-07
1.07571e-07
1.07571e-07
1.07571e-07
1.07571e-07
1.07571e-07
1.07571e-07
1.07571e-07
1.07571e-07
1.07571e-07
1.07571e-07
1.07571e-07
1.07571e-07
1.07571e-07
1.07571e-07
1.07571e-07
1.07571e-07
1.07571e-07
1.07571e-07
1.07571e-07
1.07571e-07
1.07571e-07
1.07571e-07
1.07571e-07
1.07571e-07
1.07571e-07
1.07571e-07
1.07571e-07
1.07571e-07
1.07571e-07
1.07571e-07
1.07571e-07
1.07571e-07
1.07571e-07
1.07571e-07
1.07571e-07
1.07571e-07
1.07571e-07
1.07571e-07
1.07571e-07
1.07571e-07
1.07571e-07
1.07571e-07
1.07571e-07
1.07571e-07
1.07571e-07
1.07571e-07
1.07571e-07
1.07571e-07
1.07571e-07
1.07571e-07
1.07571e-07
1.07571e-07
1.07571e-07
1.07571e-07
1.07571e-07
1.07571e-07
1.07571e-07
1.07571e-07
1.07571e-07
1.07571e-07
1.07571e-07
1.07571e-07
1.07571e-07
1.07571e-07
1.07571e-07
1.07571e-07
1.07571e-07
1.07571e-07
1.07571e-07
1.07571e-07
1.07571e-07
1.07571e-07
1.07571e-07
1.07571e-07
1.07571e-07
1.07571e-07
1.07571e-07
1.07571e-07
1.07571e-07
1.07571e-07
1.07571e-07
1.07571e-07
1.07571e-07
1.07571e-07
1.07571e-07
1.07571e-07
1.07571e-07
1.07571e-07
1.07571e-07
1.07571e-07
1.07571e-07
1.07571e-07
1.07571e-07
1.07571e-07
1.07571e-07
1.07571e-07
1.07571e-07
1.07571e-07
1.07571e-07
1.07571e-07
1.07571e-07
1.07571e-07
1.07571e-07
1.07571e-07
1.07571e-07
1.07571e-07
1.07571e-07
1.07571e-07
1.07571e-07
1.07571e-07
1.07571e-07
1.07571e-07
1.07571e-07
1.07596e-07
1.07752e-07
1.07752e-07
1.07752e-07
1.07752e-07
1.07752e-07
1.07752e-07
1.07752e-07
1.07752e-07
1.07752e-07
1.07752e-07
1.07752e-07
1.07752e-07
1.07752e-07
1.07752e-07
1.07752e-07
1.07752e-07
1.07752e-07
1.07752e-07
1.07752e-07
1.07752e-07
1.07752e-07
1.07752e-07
1.07753e-07
1.07753e-07
1.07753e-07
1.07753e-07
1.07753e-07
1.07753e-07
1.07753e-07
1.07753e-07
1.07753e-07
1.07753e-07
1.07753e-07
1.07753e-07
1.07753e-07
1.07753e-07
1.07753e-07
1.07753e-07
1.07753e-07
1.07753e-07
1.07753e-07
1.07753e-07
1.07753e-07
1.07753e-07
1.07753e-07
1.07753e-07
1.07753e-07
1.07753e-07
1.07753e-07
1.07753e-07
1.07753e-07
1.07753e-07
1.07753e-07
1.07753e-07
1.07753e-07
1.07753e-07
1.07753e-07
1.07753e-07
1.07753e-07
1.07753e-07
1.07753e-07
1.07753e-07
1.07753e-07
1.07753e-07
1.07753e-07
1.07753e-07
1.07753e-07
1.07753e-07
1.07753e-07
1.07753e-07
1.07753e-07
1.07753e-07
1.07753e-07
1.07753e-07
1.07753e-07
1.07753e-07
1.07753e-07
1.07753e-07
1.07753e-07
1.07753e-07
1.07753e-07
1.07753e-07
1.07753e-07
1.07753e-07
1.07753e-07
1.07753e-07
1.07753e-07
1.07753e-07
1.07753e-07
1.07753e-07
1.07753e-07
1.07753e-07
1.07753e-07
1.07753e-07
1.07753e-07
1.07753e-07
1.07753e-07
1.07753e-07
1.07753e-07
1.07753e-07
1.07753e-07
1.07753e-07
1.07753e-07
1.07753e-07
1.07753e-07
1.07753e-07
1.07753e-07
1.07753e-07
1.07753e-07
1.07753e-07
1.07753e-07
1.07753e-07
1.07753e-07
1.07753e-07
1.07753e-07
1.07753e-07
1.07753e-07
1.07753e-07
1.07753e-07
1.07753e-07
1.07753e-07
1.07753e-07
1.07753e-07
1.07753e-07
1.07753e-07
1.07753e-07
1.07753e-07
1.07753e-07
1.07753e-07
1.07753e-07
1.07753e-07
1.07753e-07
1.07753e-07
1.07753e-07
1.07753e-07
1.07753e-07
1.07753e-07
1.07753e-07
1.07753e-07
1.07753e-07
1.07753e-07
1.07753e-07
1.07753e-07
1.07753e-07
1.07753e-07
1.07753e-07
1.07753e-07
1.07753e-07
1.07753e-07
1.07753e-07
1.07753e-07
1.07753e-07
1.07753e-07
1.07753e-07
1.07753e-07
1.07753e-07
1.07753e-07
1.07753e-07