/*--------------------------------*- C++ -*----------------------------------*\
| =========                 |                                                 |
| \\      /  F ield         | OpenFOAM: The Open Source CFD Toolbox           |
|  \\    /   O peration     | Version:  v1912                                 |
|   \\  /    A nd           | Website:  www.openfoam.com                      |
|    \\/     M anipulation  |                                                 |
\*---------------------------------------------------------------------------*/
FoamFile
{
    version     2.0;
    format      ascii;
    class       surfaceScalarField;
    location    "40";
    object      phi;
}
// * * * * * * * * * * * * * * * * * * * * * * * * * * * * * * * * * * * * * //

dimensions      [0 3 -1 0 0 0 0];
oriented        oriented;


internalField   nonuniform List<scalar> 
28285
(
4.47548e-07
2.50673e-08
4.23756e-07
2.37977e-08
4.0117e-07
2.25823e-08
3.79744e-07
2.14289e-08
3.59414e-07
2.03278e-08
3.40135e-07
1.92806e-08
3.21851e-07
1.82834e-08
3.04517e-07
1.73339e-08
2.88086e-07
1.64308e-08
2.72515e-07
1.55708e-08
2.57762e-07
1.47535e-08
2.43787e-07
1.39754e-08
2.3055e-07
1.32361e-08
2.18018e-07
1.25326e-08
2.06153e-07
1.18645e-08
1.94924e-07
1.12289e-08
1.84299e-07
1.06256e-08
1.74247e-07
1.0052e-08
1.64739e-07
9.50758e-09
1.55749e-07
8.99023e-09
1.4725e-07
8.4994e-09
1.39216e-07
8.03328e-09
1.31625e-07
7.59116e-09
1.24454e-07
7.17152e-09
1.1768e-07
6.77355e-09
1.11284e-07
6.39613e-09
1.05246e-07
6.03823e-09
9.95467e-08
5.69908e-09
9.41692e-08
5.37752e-09
8.90962e-08
5.07298e-09
8.43118e-08
4.78439e-09
7.98007e-08
4.51117e-09
7.55482e-08
4.25242e-09
7.15408e-08
4.00748e-09
6.7765e-08
3.77574e-09
6.42087e-08
3.55634e-09
6.08596e-08
3.34904e-09
5.7707e-08
3.15267e-09
5.47396e-08
2.9674e-09
5.19477e-08
2.79186e-09
4.93213e-08
2.6264e-09
4.68516e-08
2.46968e-09
4.45296e-08
2.32202e-09
4.23473e-08
2.18228e-09
4.02967e-08
2.05062e-09
3.83706e-08
1.92615e-09
3.65617e-08
1.80887e-09
3.48635e-08
1.69814e-09
3.32698e-08
1.59378e-09
3.17744e-08
1.49538e-09
3.03718e-08
1.40262e-09
2.90565e-08
1.31526e-09
2.78236e-08
1.23291e-09
2.66682e-08
1.15543e-09
2.55857e-08
1.08242e-09
2.4572e-08
1.01377e-09
2.36228e-08
9.49134e-10
2.27345e-08
8.88354e-10
2.19033e-08
8.31205e-10
2.11258e-08
7.77469e-10
2.03988e-08
7.26995e-10
1.97193e-08
6.79545e-10
1.90843e-08
6.3501e-10
1.84911e-08
5.93171e-10
1.79371e-08
5.53945e-10
1.74201e-08
5.17083e-10
1.69375e-08
4.82581e-10
1.64873e-08
4.50133e-10
1.60675e-08
4.19845e-10
1.56762e-08
3.91318e-10
1.53114e-08
3.64771e-10
1.49717e-08
3.39722e-10
1.46552e-08
3.16478e-10
1.43607e-08
2.94531e-10
1.40865e-08
2.74205e-10
1.38315e-08
2.5501e-10
1.35942e-08
2.37252e-10
1.33737e-08
2.20504e-10
1.31687e-08
2.05008e-10
1.29783e-08
1.90436e-10
1.28013e-08
1.76923e-10
1.26371e-08
1.64281e-10
1.24846e-08
1.52511e-10
1.2343e-08
1.41579e-10
1.22116e-08
1.31355e-10
1.20897e-08
1.21918e-10
1.19766e-08
1.13068e-10
1.18717e-08
1.04942e-10
1.17744e-08
9.73155e-11
1.1684e-08
9.0343e-11
1.16002e-08
8.38061e-11
1.15224e-08
7.78438e-11
1.14501e-08
7.22834e-11
1.13829e-08
6.72152e-11
1.13204e-08
6.2534e-11
1.12621e-08
5.82595e-11
1.12077e-08
5.43666e-11
1.11569e-08
5.08146e-11
1.11093e-08
4.76324e-11
1.10645e-08
4.47532e-11
1.10223e-08
4.2214e-11
1.09823e-08
3.99679e-11
1.09443e-08
3.80299e-11
1.09079e-08
3.63956e-11
1.08729e-08
3.50429e-11
1.08389e-08
3.40025e-11
1.08056e-08
3.32389e-11
1.07728e-08
3.27942e-11
1.07402e-08
3.26503e-11
1.07073e-08
3.28392e-11
1.0674e-08
3.33231e-11
1.06398e-08
3.42129e-11
1.06044e-08
3.54354e-11
1.05673e-08
3.71137e-11
1.05282e-08
3.90566e-11
1.04864e-08
4.18342e-11
1.04422e-08
4.42119e-11
1.03932e-08
4.89817e-11
1.03424e-08
5.08178e-11
1.02834e-08
5.89175e-11
1.02243e-08
5.91526e-11
1.01527e-08
7.16292e-11
1.00833e-08
6.94073e-11
9.99631e-09
8.69497e-11
9.91506e-09
8.1243e-11
9.81088e-09
1.04178e-10
9.71758e-09
9.33019e-11
9.59598e-09
1.216e-10
9.4936e-09
1.02382e-10
9.35805e-09
1.35548e-10
9.25538e-09
1.02672e-10
9.11615e-09
1.39234e-10
9.03063e-09
8.55189e-11
8.90817e-09
1.22456e-10
8.86284e-09
4.53307e-11
8.78633e-09
7.65129e-11
8.78363e-09
2.69665e-12
8.75662e-09
2.70064e-11
8.82953e-09
-7.2901e-11
8.88405e-09
-5.45256e-11
8.99735e-09
-1.13298e-10
9.09173e-09
-9.43757e-11
9.22314e-09
-1.31415e-10
9.3346e-09
-1.11455e-10
9.46655e-09
-1.31954e-10
9.57861e-09
-1.12059e-10
9.69985e-09
-1.21245e-10
9.80316e-09
-1.03302e-10
9.90848e-09
-1.05327e-10
9.99931e-09
-9.08223e-11
1.00876e-08
-8.83314e-11
1.0166e-08
-7.83769e-11
1.02388e-08
-7.2781e-11
1.03061e-08
-6.73249e-11
1.03671e-08
-6.09754e-11
1.04263e-08
-5.92088e-11
1.04803e-08
-5.3974e-11
1.05366e-08
-5.62914e-11
1.05941e-08
-5.75016e-11
1.06593e-08
-6.52783e-11
1.07824e-08
-1.2301e-10
1.09248e-08
-1.424e-10
1.37678e-08
-2.84308e-09
-2.85573e-09
4.46606e-07
5.00978e-08
4.2285e-07
4.75574e-08
4.00299e-07
4.51312e-08
3.78905e-07
4.28241e-08
3.58607e-07
4.0625e-08
3.39357e-07
3.85313e-08
3.21101e-07
3.6539e-08
3.03794e-07
3.4641e-08
2.87388e-07
3.28366e-08
2.71841e-07
3.11176e-08
2.5711e-07
2.94844e-08
2.43157e-07
2.79292e-08
2.29941e-07
2.64518e-08
2.17428e-07
2.50458e-08
2.05581e-07
2.37107e-08
1.9437e-07
2.24405e-08
1.83761e-07
2.12348e-08
1.73724e-07
2.00884e-08
1.64231e-07
1.90005e-08
1.55255e-07
1.79666e-08
1.46769e-07
1.69856e-08
1.38748e-07
1.60541e-08
1.31168e-07
1.51706e-08
1.24008e-07
1.43319e-08
1.17245e-07
1.35366e-08
1.10859e-07
1.27823e-08
1.0483e-07
1.20671e-08
9.91397e-08
1.13893e-08
9.37706e-08
1.07467e-08
8.87055e-08
1.01381e-08
8.39286e-08
9.56132e-09
7.94244e-08
9.0153e-09
7.51786e-08
8.49821e-09
7.11774e-08
8.0087e-09
6.74076e-08
7.54558e-09
6.38568e-08
7.10712e-09
6.0513e-08
6.69284e-09
5.73652e-08
6.30042e-09
5.44025e-08
5.93013e-09
5.1615e-08
5.57936e-09
4.89927e-08
5.24866e-09
4.65269e-08
4.93548e-09
4.42086e-08
4.64038e-09
4.20297e-08
4.36112e-09
3.99823e-08
4.09801e-09
3.80592e-08
3.84927e-09
3.62532e-08
3.61489e-09
3.45577e-08
3.39361e-09
3.29665e-08
3.18505e-09
3.14735e-08
2.98839e-09
3.00731e-08
2.80302e-09
2.87599e-08
2.62843e-09
2.75289e-08
2.46388e-09
2.63753e-08
2.30903e-09
2.52946e-08
2.16313e-09
2.42825e-08
2.02592e-09
2.33348e-08
1.89676e-09
2.24479e-08
1.77529e-09
2.1618e-08
1.66108e-09
2.08418e-08
1.5537e-09
2.0116e-08
1.45283e-09
1.94375e-08
1.358e-09
1.88035e-08
1.269e-09
1.82113e-08
1.18539e-09
1.76582e-08
1.107e-09
1.7142e-08
1.03334e-09
1.66602e-08
9.64385e-10
1.62107e-08
8.99545e-10
1.57916e-08
8.3901e-10
1.54009e-08
7.82011e-10
1.50367e-08
7.28948e-10
1.46975e-08
6.78901e-10
1.43816e-08
6.32438e-10
1.40875e-08
5.88591e-10
1.38138e-08
5.47961e-10
1.35592e-08
5.09611e-10
1.33223e-08
4.74115e-10
1.31021e-08
4.40653e-10
1.28975e-08
4.09679e-10
1.27073e-08
3.80564e-10
1.25307e-08
3.53557e-10
1.23667e-08
3.28295e-10
1.22144e-08
3.04776e-10
1.20731e-08
2.82925e-10
1.19419e-08
2.62499e-10
1.18202e-08
2.43634e-10
1.17073e-08
2.25955e-10
1.16026e-08
2.09709e-10
1.15054e-08
1.94476e-10
1.14152e-08
1.80535e-10
1.13315e-08
1.67479e-10
1.12538e-08
1.55559e-10
1.11817e-08
1.44451e-10
1.11146e-08
1.34321e-10
1.10521e-08
1.24968e-10
1.0994e-08
1.16427e-10
1.09397e-08
1.08646e-10
1.08889e-08
1.01551e-10
1.08414e-08
9.51901e-11
1.07967e-08
8.94395e-11
1.07545e-08
8.43645e-11
1.07146e-08
7.98779e-11
1.06767e-08
7.60063e-11
1.06403e-08
7.2741e-11
1.06053e-08
7.00405e-11
1.05714e-08
6.79615e-11
1.05382e-08
6.64392e-11
1.05054e-08
6.55513e-11
1.04728e-08
6.5267e-11
1.044e-08
6.56463e-11
1.04067e-08
6.66176e-11
1.03725e-08
6.83969e-11
1.03371e-08
7.08472e-11
1.03e-08
7.41966e-11
1.0261e-08
7.81027e-11
1.02192e-08
8.36137e-11
1.01749e-08
8.8462e-11
1.01261e-08
9.7826e-11
1.00751e-08
1.01777e-10
1.00165e-08
1.17582e-10
9.95706e-09
1.18555e-10
9.88578e-09
1.42905e-10
9.81604e-09
1.39147e-10
9.72953e-09
1.73463e-10
9.64789e-09
1.62882e-10
9.54422e-09
2.07845e-10
9.45048e-09
1.87048e-10
9.32946e-09
2.42616e-10
9.2266e-09
2.05244e-10
9.09171e-09
2.70436e-10
8.98854e-09
2.05845e-10
8.85004e-09
2.7773e-10
8.76402e-09
1.71539e-10
8.64237e-09
2.44109e-10
8.59656e-09
9.11369e-11
8.52084e-09
1.52232e-10
8.5176e-09
5.94292e-12
8.49139e-09
5.32149e-11
8.56378e-09
-1.45289e-10
8.61893e-09
-1.09683e-10
8.73165e-09
-2.26014e-10
8.82654e-09
-1.89262e-10
8.95736e-09
-2.62239e-10
9.06923e-09
-2.23323e-10
9.20061e-09
-2.63339e-10
9.313e-09
-2.24451e-10
9.43373e-09
-2.41973e-10
9.53729e-09
-2.06864e-10
9.64219e-09
-2.1022e-10
9.73318e-09
-1.81818e-10
9.82121e-09
-1.7636e-10
9.89958e-09
-1.56743e-10
9.97234e-09
-1.45543e-10
1.00395e-08
-1.34444e-10
1.01006e-08
-1.22087e-10
1.01595e-08
-1.18127e-10
1.02137e-08
-1.08178e-10
1.02696e-08
-1.12238e-10
1.03275e-08
-1.15318e-10
1.03924e-08
-1.30234e-10
1.05157e-08
-2.4629e-10
1.06619e-08
-2.8858e-10
1.35228e-08
-5.70403e-09
-5.72967e-09
4.45658e-07
7.51064e-08
4.21922e-07
7.12964e-08
3.99391e-07
6.76604e-08
3.78016e-07
6.42006e-08
3.57735e-07
6.09045e-08
3.38502e-07
5.77651e-08
3.20262e-07
5.47786e-08
3.02971e-07
5.19329e-08
2.86579e-07
4.92279e-08
2.71046e-07
4.66507e-08
2.56328e-07
4.42023e-08
2.42387e-07
4.18707e-08
2.29183e-07
3.96558e-08
2.16681e-07
3.7548e-08
2.04845e-07
3.55463e-08
1.93643e-07
3.36422e-08
1.83043e-07
3.18346e-08
1.73016e-07
3.0116e-08
1.63531e-07
2.84849e-08
1.54563e-07
2.69349e-08
1.46084e-07
2.54643e-08
1.38071e-07
2.40678e-08
1.30498e-07
2.27432e-08
1.23344e-07
2.14859e-08
1.16587e-07
2.02936e-08
1.10207e-07
1.91628e-08
1.04183e-07
1.80905e-08
9.8498e-08
1.70744e-08
9.31337e-08
1.6111e-08
8.80731e-08
1.51986e-08
8.33005e-08
1.4334e-08
7.88004e-08
1.35154e-08
7.45585e-08
1.27402e-08
7.05609e-08
1.20063e-08
6.67944e-08
1.1312e-08
6.32469e-08
1.06547e-08
5.99061e-08
1.00336e-08
5.67612e-08
9.44531e-09
5.38012e-08
8.89018e-09
5.10162e-08
8.36432e-09
4.83963e-08
7.86854e-09
4.59328e-08
7.39904e-09
4.36165e-08
6.95663e-09
4.14397e-08
6.53798e-09
3.93942e-08
6.14352e-09
3.74728e-08
5.77062e-09
3.56685e-08
5.41925e-09
3.39746e-08
5.08751e-09
3.23847e-08
4.77485e-09
3.08931e-08
4.48003e-09
2.9494e-08
4.20214e-09
2.8182e-08
3.94039e-09
2.69522e-08
3.6937e-09
2.57997e-08
3.46156e-09
2.472e-08
3.24284e-09
2.37088e-08
3.03714e-09
2.2762e-08
2.8435e-09
2.18759e-08
2.66141e-09
2.10468e-08
2.49019e-09
2.02713e-08
2.3292e-09
1.95461e-08
2.17798e-09
1.88683e-08
2.03583e-09
1.82349e-08
1.9024e-09
1.76433e-08
1.77706e-09
1.70907e-08
1.65954e-09
1.65749e-08
1.54911e-09
1.60936e-08
1.44574e-09
1.56446e-08
1.34853e-09
1.52258e-08
1.25778e-09
1.48355e-08
1.17234e-09
1.44717e-08
1.09278e-09
1.41328e-08
1.01776e-09
1.38172e-08
9.48099e-10
1.35234e-08
8.82373e-10
1.32499e-08
8.21456e-10
1.29955e-08
7.63972e-10
1.27589e-08
7.10752e-10
1.25389e-08
6.60594e-10
1.23345e-08
6.14155e-10
1.21445e-08
5.70511e-10
1.19681e-08
5.30023e-10
1.18042e-08
4.92152e-10
1.16521e-08
4.56895e-10
1.15109e-08
4.24136e-10
1.13798e-08
3.93518e-10
1.12582e-08
3.65234e-10
1.11455e-08
3.38734e-10
1.10408e-08
3.14377e-10
1.09437e-08
2.91545e-10
1.08536e-08
2.70642e-10
1.077e-08
2.51073e-10
1.06924e-08
2.33201e-10
1.06203e-08
2.16552e-10
1.05532e-08
2.01365e-10
1.04909e-08
1.87344e-10
1.04328e-08
1.74541e-10
1.03785e-08
1.62876e-10
1.03278e-08
1.52242e-10
1.02803e-08
1.42706e-10
1.02357e-08
1.34087e-10
1.01936e-08
1.26479e-10
1.01537e-08
1.19755e-10
1.01157e-08
1.13952e-10
1.00794e-08
1.09058e-10
1.00444e-08
1.05012e-10
1.00105e-08
1.01896e-10
9.97733e-09
9.96165e-11
9.9446e-09
9.82868e-11
9.912e-09
9.78637e-11
9.87921e-09
9.84343e-11
9.84594e-09
9.98942e-11
9.81177e-09
1.02564e-10
9.77637e-09
1.06243e-10
9.73931e-09
1.11264e-10
9.70027e-09
1.17134e-10
9.65851e-09
1.25378e-10
9.61427e-09
1.32701e-10
9.56545e-09
1.4665e-10
9.51449e-09
1.52738e-10
9.45586e-09
1.76203e-10
9.39643e-09
1.77993e-10
9.32524e-09
2.1409e-10
9.25541e-09
2.08979e-10
9.16906e-09
2.59815e-10
9.08726e-09
2.44684e-10
8.98384e-09
3.11261e-10
8.88985e-09
2.8104e-10
8.76919e-09
3.63273e-10
8.666e-09
3.08438e-10
8.53159e-09
4.04845e-10
8.428e-09
3.09429e-10
8.29011e-09
4.15623e-10
8.20363e-09
2.58022e-10
8.08268e-09
3.65061e-10
8.03639e-09
1.37422e-10
7.96137e-09
2.27249e-10
7.9576e-09
9.71291e-12
7.9322e-09
7.8622e-11
8.00415e-09
-2.1724e-10
8.05991e-09
-1.65443e-10
8.17217e-09
-3.38276e-10
8.26748e-09
-2.84572e-10
8.3979e-09
-3.92655e-10
8.51003e-09
-3.3546e-10
8.64108e-09
-3.94384e-10
8.75361e-09
-3.36983e-10
8.87408e-09
-3.62443e-10
8.97769e-09
-3.10469e-10
9.0824e-09
-3.14936e-10
9.17337e-09
-2.72787e-10
9.26129e-09
-2.64284e-10
9.33959e-09
-2.35043e-10
9.4123e-09
-2.18244e-10
9.47934e-09
-2.01489e-10
9.54042e-09
-1.83169e-10
9.59926e-09
-1.76962e-10
9.65348e-09
-1.62394e-10
9.70933e-09
-1.68094e-10
9.76721e-09
-1.73199e-10
9.83215e-09
-1.95167e-10
9.95539e-09
-3.69533e-10
1.0105e-08
-4.38149e-10
1.29538e-08
-8.55285e-09
-8.59651e-09
4.44528e-07
1.00102e-07
4.20805e-07
9.50225e-08
3.98286e-07
9.01775e-08
3.76923e-07
8.55655e-08
3.56653e-07
8.1173e-08
3.37431e-07
7.69885e-08
3.192e-07
7.30083e-08
3.01918e-07
6.92154e-08
2.85535e-07
6.56103e-08
2.70011e-07
6.21754e-08
2.55301e-07
5.89122e-08
2.41367e-07
5.58046e-08
2.2817e-07
5.28527e-08
2.15675e-07
5.00433e-08
2.03846e-07
4.73756e-08
1.9265e-07
4.48378e-08
1.82056e-07
4.24285e-08
1.72034e-07
4.0138e-08
1.62555e-07
3.79641e-08
1.53592e-07
3.58983e-08
1.45118e-07
3.39383e-08
1.37108e-07
3.20771e-08
1.2954e-07
3.03116e-08
1.2239e-07
2.8636e-08
1.15637e-07
2.70468e-08
1.0926e-07
2.55397e-08
1.0324e-07
2.41106e-08
9.75577e-08
2.27563e-08
9.21963e-08
2.14723e-08
8.71387e-08
2.02563e-08
8.23687e-08
1.91039e-08
7.78712e-08
1.80129e-08
7.36316e-08
1.69797e-08
6.96363e-08
1.60017e-08
6.5872e-08
1.50763e-08
6.23264e-08
1.42003e-08
5.89875e-08
1.33725e-08
5.58444e-08
1.25884e-08
5.28861e-08
1.18485e-08
5.01027e-08
1.11477e-08
4.74843e-08
1.04869e-08
4.50222e-08
9.86119e-09
4.27073e-08
9.27154e-09
4.05317e-08
8.71358e-09
3.84873e-08
8.18786e-09
3.65671e-08
7.69087e-09
3.47637e-08
7.22258e-09
3.30708e-08
6.78043e-09
3.14819e-08
6.36374e-09
2.99912e-08
5.9708e-09
2.85929e-08
5.60044e-09
2.72817e-08
5.25158e-09
2.60526e-08
4.92281e-09
2.49007e-08
4.61341e-09
2.38216e-08
4.32191e-09
2.2811e-08
4.04776e-09
2.18648e-08
3.78969e-09
2.09792e-08
3.547e-09
2.01506e-08
3.31881e-09
1.93756e-08
3.10425e-09
1.86508e-08
2.90271e-09
1.79734e-08
2.71325e-09
1.73404e-08
2.53543e-09
1.67491e-08
2.36837e-09
1.61969e-08
2.21175e-09
1.56814e-08
2.06457e-09
1.52003e-08
1.9268e-09
1.47516e-08
1.79725e-09
1.43331e-08
1.6763e-09
1.3943e-08
1.56243e-09
1.35794e-08
1.45639e-09
1.32407e-08
1.35642e-09
1.29253e-08
1.26357e-09
1.26317e-08
1.17598e-09
1.23583e-08
1.09478e-09
1.21041e-08
1.01818e-09
1.18676e-08
9.47244e-10
1.16478e-08
8.80403e-10
1.14435e-08
8.18506e-10
1.12536e-08
7.60345e-10
1.10773e-08
7.06381e-10
1.09135e-08
6.5591e-10
1.07615e-08
6.08922e-10
1.06204e-08
5.6526e-10
1.04894e-08
5.24458e-10
1.03679e-08
4.8676e-10
1.02552e-08
4.51446e-10
1.01506e-08
4.1898e-10
1.00536e-08
3.88555e-10
9.96354e-09
3.60693e-10
9.88e-09
3.34618e-10
9.8024e-09
3.10795e-10
9.73034e-09
2.8861e-10
9.66334e-09
2.68368e-10
9.601e-09
2.49683e-10
9.54292e-09
2.32621e-10
9.48872e-09
2.17075e-10
9.43806e-09
2.02905e-10
9.39057e-09
1.90194e-10
9.34595e-09
1.7871e-10
9.30386e-09
1.6857e-10
9.264e-09
1.59611e-10
9.22608e-09
1.51878e-10
9.18978e-09
1.45357e-10
9.15482e-09
1.39967e-10
9.1209e-09
1.35815e-10
9.08774e-09
1.32781e-10
9.05502e-09
1.3101e-10
9.02243e-09
1.30449e-10
8.98965e-09
1.31213e-10
8.95638e-09
1.33162e-10
8.92222e-09
1.36723e-10
8.88683e-09
1.41632e-10
8.84977e-09
1.48325e-10
8.81075e-09
1.56161e-10
8.76899e-09
1.67137e-10
8.72475e-09
1.76941e-10
8.67594e-09
1.9546e-10
8.62495e-09
2.03728e-10
8.56639e-09
2.34767e-10
8.50686e-09
2.37522e-10
8.43581e-09
2.85136e-10
8.36579e-09
2.79e-10
8.27969e-09
3.45914e-10
8.19757e-09
3.268e-10
8.09455e-09
4.14281e-10
8.0001e-09
3.75492e-10
7.88001e-09
4.83368e-10
7.7762e-09
4.12247e-10
7.64254e-09
5.38506e-10
7.53819e-09
4.13775e-10
7.40124e-09
5.52576e-10
7.31388e-09
3.45381e-10
7.19402e-09
4.84916e-10
7.14682e-09
1.84626e-10
7.07295e-09
3.01122e-10
7.06818e-09
1.44814e-11
7.04398e-09
1.02821e-10
7.11511e-09
-2.88367e-10
7.17186e-09
-2.22199e-10
7.28336e-09
-4.49767e-10
7.37942e-09
-3.80636e-10
7.50919e-09
-5.22423e-10
7.62185e-09
-4.48119e-10
7.75239e-09
-5.24925e-10
7.86524e-09
-4.49837e-10
7.98535e-09
-4.82553e-10
8.08912e-09
-4.14233e-10
8.19361e-09
-4.19428e-10
8.28461e-09
-3.6379e-10
8.37243e-09
-3.52099e-10
8.45068e-09
-3.133e-10
8.52334e-09
-2.90898e-10
8.59031e-09
-2.68465e-10
8.65139e-09
-2.44249e-10
8.71013e-09
-2.35701e-10
8.7644e-09
-2.16665e-10
8.82012e-09
-2.23817e-10
8.87814e-09
-2.31211e-10
8.94295e-09
-2.59977e-10
9.06616e-09
-4.92742e-10
9.21812e-09
-5.90117e-10
1.19536e-08
-1.12883e-08
-1.13542e-08
4.4314e-07
1.25088e-07
4.19426e-07
1.1874e-07
3.96915e-07
1.12686e-07
3.7556e-07
1.06923e-07
3.55298e-07
1.01434e-07
3.36082e-07
9.62047e-08
3.17859e-07
9.12312e-08
3.00583e-07
8.64914e-08
2.84207e-07
8.19865e-08
2.68688e-07
7.76942e-08
2.53984e-07
7.36166e-08
2.40055e-07
6.97332e-08
2.26863e-07
6.60445e-08
2.14373e-07
6.25339e-08
2.02548e-07
5.92003e-08
1.91357e-07
5.6029e-08
1.80767e-07
5.30184e-08
1.70749e-07
5.01562e-08
1.61273e-07
4.74397e-08
1.52313e-07
4.48582e-08
1.43843e-07
4.2409e-08
1.35836e-07
4.00832e-08
1.28271e-07
3.78771e-08
1.21124e-07
3.57832e-08
1.14373e-07
3.37974e-08
1.07999e-07
3.19141e-08
1.01981e-07
3.01283e-08
9.63012e-08
2.8436e-08
9.0942e-08
2.68316e-08
8.58863e-08
2.53119e-08
8.11183e-08
2.3872e-08
7.66225e-08
2.25087e-08
7.23847e-08
2.12176e-08
6.83909e-08
1.99954e-08
6.46281e-08
1.88391e-08
6.1084e-08
1.77444e-08
5.77465e-08
1.671e-08
5.46046e-08
1.57302e-08
5.16475e-08
1.48057e-08
4.88652e-08
1.39299e-08
4.62479e-08
1.31042e-08
4.37868e-08
1.23223e-08
4.14728e-08
1.15855e-08
3.92981e-08
1.08883e-08
3.72546e-08
1.02314e-08
3.53352e-08
9.61032e-09
3.35326e-08
9.02515e-09
3.18404e-08
8.47265e-09
3.02521e-08
7.95196e-09
2.8762e-08
7.46095e-09
2.73643e-08
6.99815e-09
2.60536e-08
6.56223e-09
2.4825e-08
6.15141e-09
2.36737e-08
5.76477e-09
2.2595e-08
5.40054e-09
2.15849e-08
5.05795e-09
2.06391e-08
4.73548e-09
1.97539e-08
4.43222e-09
1.89256e-08
4.14707e-09
1.81509e-08
3.87897e-09
1.74265e-08
3.62712e-09
1.67493e-08
3.39039e-09
1.61166e-08
3.16818e-09
1.55255e-08
2.95943e-09
1.49735e-08
2.76372e-09
1.44583e-08
2.57981e-09
1.39774e-08
2.40765e-09
1.35289e-08
2.24578e-09
1.31106e-08
2.09463e-09
1.27207e-08
1.95235e-09
1.23572e-08
1.81985e-09
1.20187e-08
1.69493e-09
1.17034e-08
1.5789e-09
1.14099e-08
1.46946e-09
1.11367e-08
1.36799e-09
1.08826e-08
1.27228e-09
1.06462e-08
1.18363e-09
1.04265e-08
1.10012e-09
1.02222e-08
1.02276e-09
1.00325e-08
9.50094e-10
9.8562e-09
8.82659e-10
9.69252e-09
8.19595e-10
9.54056e-09
7.60881e-10
9.3995e-09
7.06322e-10
9.26862e-09
6.55339e-10
9.14715e-09
6.08231e-10
9.03448e-09
5.64107e-10
8.92993e-09
5.23536e-10
8.83296e-09
4.85524e-10
8.74295e-09
4.50704e-10
8.65944e-09
4.18126e-10
8.58188e-09
3.88355e-10
8.50985e-09
3.60637e-10
8.44288e-09
3.35342e-10
8.38057e-09
3.11996e-10
8.32251e-09
2.90677e-10
8.26834e-09
2.71251e-10
8.21769e-09
2.53547e-10
8.17022e-09
2.37663e-10
8.12562e-09
2.23317e-10
8.08354e-09
2.10646e-10
8.0437e-09
1.99453e-10
8.00579e-09
1.89792e-10
7.9695e-09
1.81645e-10
7.93455e-09
1.74912e-10
7.90064e-09
1.69726e-10
7.86749e-09
1.65937e-10
7.83477e-09
1.63726e-10
7.80219e-09
1.63029e-10
7.76942e-09
1.63986e-10
7.73616e-09
1.66426e-10
7.702e-09
1.70879e-10
7.66661e-09
1.77019e-10
7.62955e-09
1.85385e-10
7.59052e-09
1.95189e-10
7.54877e-09
2.08896e-10
7.50452e-09
2.21192e-10
7.45572e-09
2.44252e-10
7.40468e-09
2.54769e-10
7.3462e-09
2.93248e-10
7.28652e-09
2.97202e-10
7.21568e-09
3.55978e-10
7.14536e-09
3.4932e-10
7.05963e-09
4.31639e-10
6.97702e-09
4.09409e-10
6.87459e-09
5.16718e-10
6.77942e-09
4.70658e-10
6.66015e-09
6.02635e-10
6.55539e-09
5.17011e-10
6.42283e-09
6.71069e-10
6.31729e-09
5.1931e-10
6.1817e-09
6.88163e-10
6.09297e-09
4.34115e-10
5.9747e-09
6.03185e-10
5.92603e-09
2.33293e-10
5.85382e-09
3.73336e-10
5.84754e-09
2.07628e-11
5.82509e-09
1.25267e-10
5.89488e-09
-3.58159e-10
5.95313e-09
-2.80445e-10
6.06343e-09
-5.60064e-10
6.16065e-09
-4.77858e-10
6.28944e-09
-6.51218e-10
6.40294e-09
-5.61616e-10
6.53274e-09
-6.54724e-10
6.64614e-09
-5.6324e-10
6.76574e-09
-6.0215e-10
6.86981e-09
-5.18301e-10
6.97399e-09
-5.23611e-10
7.0651e-09
-4.54904e-10
7.15278e-09
-4.39778e-10
7.23102e-09
-3.91536e-10
7.30364e-09
-3.6352e-10
7.37054e-09
-3.35364e-10
7.43165e-09
-3.0536e-10
7.49026e-09
-2.94311e-10
7.54465e-09
-2.71051e-10
7.60018e-09
-2.79348e-10
7.65842e-09
-2.89453e-10
7.723e-09
-3.24562e-10
7.84613e-09
-6.15866e-10
7.9992e-09
-7.4319e-10
1.04617e-08
-1.37509e-08
-1.38392e-08
4.41534e-07
1.50066e-07
4.17827e-07
1.4245e-07
3.95322e-07
1.35188e-07
3.73973e-07
1.28273e-07
3.53717e-07
1.21689e-07
3.34508e-07
1.15415e-07
3.16289e-07
1.09449e-07
2.99019e-07
1.03762e-07
2.82647e-07
9.83579e-08
2.67133e-07
9.32084e-08
2.52433e-07
8.83165e-08
2.38509e-07
8.36576e-08
2.25321e-07
7.92324e-08
2.12834e-07
7.50207e-08
2.01013e-07
7.10214e-08
1.89825e-07
6.72169e-08
1.79238e-07
6.36051e-08
1.69223e-07
6.01713e-08
1.59751e-07
5.69124e-08
1.50793e-07
5.38154e-08
1.42325e-07
5.08771e-08
1.34322e-07
4.80869e-08
1.26758e-07
4.54402e-08
1.19613e-07
4.29282e-08
1.12865e-07
4.05459e-08
1.06493e-07
3.82866e-08
1.00477e-07
3.61442e-08
9.47988e-08
3.41139e-08
8.94413e-08
3.21891e-08
8.43872e-08
3.0366e-08
7.96207e-08
2.86385e-08
7.51264e-08
2.7003e-08
7.08898e-08
2.54541e-08
6.68974e-08
2.39879e-08
6.31358e-08
2.26007e-08
5.95928e-08
2.12874e-08
5.62564e-08
2.00464e-08
5.31156e-08
1.88711e-08
5.01594e-08
1.77619e-08
4.73781e-08
1.67113e-08
4.47616e-08
1.57207e-08
4.23013e-08
1.47827e-08
3.99881e-08
1.38987e-08
3.78141e-08
1.30623e-08
3.57713e-08
1.22742e-08
3.38525e-08
1.15291e-08
3.20505e-08
1.08271e-08
3.03589e-08
1.01643e-08
2.87712e-08
9.53965e-09
2.72815e-08
8.95059e-09
2.58843e-08
8.3954e-09
2.45741e-08
7.87242e-09
2.33459e-08
7.37959e-09
2.2195e-08
6.91574e-09
2.11167e-08
6.47879e-09
2.01069e-08
6.06779e-09
1.91614e-08
5.68093e-09
1.82765e-08
5.31712e-09
1.74485e-08
4.97504e-09
1.66741e-08
4.65342e-09
1.59499e-08
4.35128e-09
1.5273e-08
4.06728e-09
1.46405e-08
3.80071e-09
1.40497e-08
3.55028e-09
1.34979e-08
3.31549e-09
1.29828e-08
3.09486e-09
1.25022e-08
2.88833e-09
1.20538e-08
2.69414e-09
1.16356e-08
2.51281e-09
1.12458e-08
2.34213e-09
1.08825e-08
2.18316e-09
1.05441e-08
2.03331e-09
1.02289e-08
1.89411e-09
9.93555e-09
1.76283e-09
9.66245e-09
1.64109e-09
9.40844e-09
1.52628e-09
9.17215e-09
1.41992e-09
8.95252e-09
1.31975e-09
8.74834e-09
1.22694e-09
8.55866e-09
1.13977e-09
8.38245e-09
1.05887e-09
8.21883e-09
9.83217e-10
8.06693e-09
9.12781e-10
7.92592e-09
8.47328e-10
7.79509e-09
7.8617e-10
7.67367e-09
7.29653e-10
7.56105e-09
6.76726e-10
7.45654e-09
6.2805e-10
7.3596e-09
5.82455e-10
7.26963e-09
5.40678e-10
7.18615e-09
5.01603e-10
7.10863e-09
4.65883e-10
7.03663e-09
4.32637e-10
6.96968e-09
4.0229e-10
6.90739e-09
3.74285e-10
6.84936e-09
3.48711e-10
6.7952e-09
3.25407e-10
6.74458e-09
3.0417e-10
6.69712e-09
2.85116e-10
6.65253e-09
2.67908e-10
6.61047e-09
2.52707e-10
6.57064e-09
2.39283e-10
6.53274e-09
2.27694e-10
6.49646e-09
2.17923e-10
6.46152e-09
2.09848e-10
6.42762e-09
2.03629e-10
6.39447e-09
1.99087e-10
6.36176e-09
1.96438e-10
6.32918e-09
1.95606e-10
6.29641e-09
1.96757e-10
6.26315e-09
1.99689e-10
6.22899e-09
2.05036e-10
6.1936e-09
2.12408e-10
6.15654e-09
2.22448e-10
6.1175e-09
2.34224e-10
6.07574e-09
2.50657e-10
6.03147e-09
2.65465e-10
5.9827e-09
2.93022e-10
5.93157e-09
3.05898e-10
5.87321e-09
3.51607e-10
5.8133e-09
3.57114e-10
5.74275e-09
4.26525e-10
5.67199e-09
4.20084e-10
5.58679e-09
5.16837e-10
5.50348e-09
4.92723e-10
5.40185e-09
6.18343e-10
5.30568e-09
5.66833e-10
5.18755e-09
7.20761e-10
5.08145e-09
6.23113e-10
4.95039e-09
8.02129e-10
4.84319e-09
6.26513e-10
4.70947e-09
8.21875e-10
4.6188e-09
5.24789e-10
4.50272e-09
7.19268e-10
4.45197e-09
2.84039e-10
4.38209e-09
4.43222e-10
4.37363e-09
2.92216e-11
4.35353e-09
1.45364e-10
4.42139e-09
-4.26015e-10
4.48168e-09
-3.40735e-10
4.59028e-09
-6.6867e-10
4.68912e-09
-5.76696e-10
4.81656e-09
-7.78655e-10
4.93124e-09
-6.76302e-10
5.06002e-09
-7.83507e-10
5.17423e-09
-6.77444e-10
5.29313e-09
-7.21051e-10
5.39767e-09
-6.22841e-10
5.50144e-09
-6.27384e-10
5.59276e-09
-5.46221e-10
5.68027e-09
-5.27289e-10
5.75851e-09
-4.6978e-10
5.83112e-09
-4.36121e-10
5.89793e-09
-4.0218e-10
5.95911e-09
-3.66539e-10
6.01756e-09
-3.52759e-10
6.07212e-09
-3.25617e-10
6.12738e-09
-3.34609e-10
6.18596e-09
-3.48027e-10
6.25016e-09
-3.88762e-10
6.37311e-09
-7.38819e-10
6.52565e-09
-8.95729e-10
8.55955e-09
-1.57848e-08
-1.58913e-08
4.39856e-07
1.75039e-07
4.16155e-07
1.66155e-07
3.93656e-07
1.57685e-07
3.72313e-07
1.49619e-07
3.52062e-07
1.41939e-07
3.32857e-07
1.34621e-07
3.14644e-07
1.27661e-07
2.97378e-07
1.21029e-07
2.8101e-07
1.14725e-07
2.655e-07
1.08719e-07
2.50804e-07
1.03013e-07
2.36883e-07
9.75784e-08
2.23699e-07
9.24168e-08
2.11215e-07
8.75042e-08
1.99397e-07
8.28394e-08
1.88213e-07
7.84017e-08
1.77629e-07
7.41889e-08
1.67616e-07
7.01838e-08
1.58146e-07
6.63824e-08
1.49192e-07
6.27702e-08
1.40726e-07
5.93429e-08
1.32724e-07
5.60884e-08
1.25163e-07
5.30013e-08
1.1802e-07
5.00713e-08
1.11274e-07
4.72925e-08
1.04903e-07
4.46572e-08
9.88887e-08
4.21583e-08
9.32124e-08
3.97902e-08
8.78564e-08
3.75451e-08
8.28038e-08
3.54187e-08
7.80386e-08
3.34037e-08
7.35456e-08
3.1496e-08
6.93103e-08
2.96894e-08
6.53189e-08
2.79792e-08
6.15584e-08
2.63611e-08
5.80165e-08
2.48294e-08
5.4681e-08
2.33818e-08
5.15411e-08
2.2011e-08
4.85858e-08
2.07172e-08
4.58053e-08
1.94918e-08
4.31896e-08
1.83363e-08
4.073e-08
1.72423e-08
3.84175e-08
1.62112e-08
3.62442e-08
1.52356e-08
3.4202e-08
1.43164e-08
3.22837e-08
1.34474e-08
3.04823e-08
1.26285e-08
2.87912e-08
1.18554e-08
2.7204e-08
1.11269e-08
2.57148e-08
1.04398e-08
2.4318e-08
9.79221e-09
2.30082e-08
9.1822e-09
2.17804e-08
8.60738e-09
2.06298e-08
8.06635e-09
1.95519e-08
7.5567e-09
1.85424e-08
7.07731e-09
1.75972e-08
6.62609e-09
1.67126e-08
6.20175e-09
1.58849e-08
5.80275e-09
1.51107e-08
5.42761e-09
1.43868e-08
5.07521e-09
1.37101e-08
4.74396e-09
1.30778e-08
4.43303e-09
1.24871e-08
4.14094e-09
1.19355e-08
3.86707e-09
1.14206e-08
3.60975e-09
1.09401e-08
3.36885e-09
1.04919e-08
3.14236e-09
1.00739e-08
2.93085e-09
9.68421e-09
2.73178e-09
9.32101e-09
2.54635e-09
8.98274e-09
2.37159e-09
8.66764e-09
2.20921e-09
8.37436e-09
2.05611e-09
8.10136e-09
1.9141e-09
7.84743e-09
1.78021e-09
7.61122e-09
1.65613e-09
7.39166e-09
1.53931e-09
7.18756e-09
1.43105e-09
6.99794e-09
1.32939e-09
6.82179e-09
1.23502e-09
6.65823e-09
1.14678e-09
6.50638e-09
1.06463e-09
6.36542e-09
9.88285e-10
6.23463e-09
9.16958e-10
6.11325e-09
8.51033e-10
6.00067e-09
7.89307e-10
5.8962e-09
7.32526e-10
5.7993e-09
6.79354e-10
5.70936e-09
6.3062e-10
5.62591e-09
5.85052e-10
5.54841e-09
5.43384e-10
5.47643e-09
5.04613e-10
5.4095e-09
4.69215e-10
5.34724e-09
4.36553e-10
5.28922e-09
4.06726e-10
5.23508e-09
3.79545e-10
5.18448e-09
3.54779e-10
5.13704e-09
3.32553e-10
5.09246e-09
3.12486e-10
5.05041e-09
2.94757e-10
5.01059e-09
2.79103e-10
4.9727e-09
2.65587e-10
4.93643e-09
2.54193e-10
4.9015e-09
2.44778e-10
4.8676e-09
2.37527e-10
4.83445e-09
2.32233e-10
4.80175e-09
2.29146e-10
4.76917e-09
2.2818e-10
4.7364e-09
2.29527e-10
4.70314e-09
2.32952e-10
4.66898e-09
2.39194e-10
4.63359e-09
2.47801e-10
4.59652e-09
2.59515e-10
4.55748e-09
2.73266e-10
4.51571e-09
2.92422e-10
4.47141e-09
3.09769e-10
4.42268e-09
3.41753e-10
4.37143e-09
3.57149e-10
4.31324e-09
4.09793e-10
4.25302e-09
4.17335e-10
4.18287e-09
4.96679e-10
4.11153e-09
4.91423e-10
4.02702e-09
6.01346e-10
3.9428e-09
5.76944e-10
3.84222e-09
7.18921e-10
3.74475e-09
6.64303e-10
3.62809e-09
8.37424e-10
3.52026e-09
7.3094e-10
3.39113e-09
9.31262e-10
3.28176e-09
7.35875e-10
3.15045e-09
9.53192e-10
3.05724e-09
6.17998e-10
2.94395e-09
8.3256e-10
2.89045e-09
3.37535e-10
2.82354e-09
5.10131e-10
2.81227e-09
4.04902e-11
2.79523e-09
1.62407e-10
2.86049e-09
-4.91279e-10
2.92344e-09
-4.03681e-10
3.02981e-09
-7.75043e-10
3.13076e-09
-6.77639e-10
3.25642e-09
-9.04316e-10
3.37267e-09
-7.92551e-10
3.50012e-09
-9.10964e-10
3.6154e-09
-7.92719e-10
3.73339e-09
-8.39043e-10
3.83858e-09
-7.28029e-10
3.94181e-09
-7.30617e-10
4.03343e-09
-6.37838e-10
4.12072e-09
-6.14574e-10
4.19899e-09
-5.48057e-10
4.27158e-09
-5.08709e-10
4.3383e-09
-4.68896e-10
4.39958e-09
-4.27828e-10
4.45782e-09
-4.10994e-10
4.51264e-09
-3.80439e-10
4.56756e-09
-3.89524e-10
4.62659e-09
-4.07058e-10
4.6903e-09
-4.5247e-10
4.81302e-09
-8.61538e-10
4.96351e-09
-1.04623e-09
6.48325e-09
-1.73045e-08
-1.7422e-08
4.38295e-07
2.00005e-07
4.14599e-07
1.89853e-07
3.92106e-07
1.80176e-07
3.70768e-07
1.70959e-07
3.50522e-07
1.62184e-07
3.31322e-07
1.53822e-07
3.13113e-07
1.4587e-07
2.95851e-07
1.38291e-07
2.79487e-07
1.31088e-07
2.63981e-07
1.24225e-07
2.49289e-07
1.17705e-07
2.35372e-07
1.11496e-07
2.2219e-07
1.05598e-07
2.0971e-07
9.99845e-08
1.97895e-07
9.46543e-08
1.86713e-07
8.95838e-08
1.76132e-07
8.477e-08
1.66122e-07
8.01936e-08
1.56654e-07
7.58501e-08
1.47702e-07
7.17226e-08
1.39238e-07
6.78065e-08
1.31239e-07
6.40878e-08
1.2368e-07
6.05604e-08
1.16539e-07
5.72125e-08
1.09794e-07
5.40374e-08
1.03425e-07
5.10262e-08
9.74123e-08
4.81709e-08
9.17376e-08
4.5465e-08
8.6383e-08
4.28997e-08
8.13317e-08
4.047e-08
7.65678e-08
3.81676e-08
7.2076e-08
3.59878e-08
6.78418e-08
3.39236e-08
6.38516e-08
3.19695e-08
6.00921e-08
3.01206e-08
5.65512e-08
2.83704e-08
5.32166e-08
2.67164e-08
5.00776e-08
2.515e-08
4.71231e-08
2.36717e-08
4.43434e-08
2.22715e-08
4.17285e-08
2.09513e-08
3.92696e-08
1.97012e-08
3.69577e-08
1.85231e-08
3.4785e-08
1.74083e-08
3.27434e-08
1.6358e-08
3.08257e-08
1.5365e-08
2.90248e-08
1.44294e-08
2.73342e-08
1.35461e-08
2.57475e-08
1.27136e-08
2.42587e-08
1.19285e-08
2.28623e-08
1.11886e-08
2.15529e-08
1.04916e-08
2.03255e-08
9.83481e-09
1.91752e-08
9.2166e-09
1.80977e-08
8.63428e-09
1.70885e-08
8.08652e-09
1.61436e-08
7.57096e-09
1.52592e-08
7.0861e-09
1.44318e-08
6.6302e-09
1.36578e-08
6.20157e-09
1.29341e-08
5.7989e-09
1.22577e-08
5.42042e-09
1.16256e-08
5.06514e-09
1.10351e-08
4.73141e-09
1.04837e-08
4.41849e-09
9.96896e-09
4.12446e-09
9.48859e-09
3.84921e-09
9.04052e-09
3.59043e-09
8.62262e-09
3.34875e-09
8.23309e-09
3.12131e-09
7.87003e-09
2.90942e-09
7.53186e-09