/*--------------------------------*- C++ -*----------------------------------*\
| =========                 |                                                 |
| \\      /  F ield         | OpenFOAM: The Open Source CFD Toolbox           |
|  \\    /   O peration     | Version:  v1912                                 |
|   \\  /    A nd           | Website:  www.openfoam.com                      |
|    \\/     M anipulation  |                                                 |
\*---------------------------------------------------------------------------*/
FoamFile
{
    version     2.0;
    format      ascii;
    class       volScalarField;
    location    "50";
    object      p_rgh;
}
// * * * * * * * * * * * * * * * * * * * * * * * * * * * * * * * * * * * * * //

dimensions      [1 -1 -2 0 0 0 0];


internalField   nonuniform List<scalar> 
14268
(
-7611.57
-7007.92
-6373.57
-5710.05
-5018.97
-4302.12
-3561.44
-2799.11
-2017.52
-1219.25
-407.165
415.25
1243.88
2083.01
2920.64
3752.18
4575.14
5385.06
6177.35
6947.31
7690.2
8401.26
9075.78
9709.12
10296.8
10835
11319.6
11746.5
12112.5
12414.4
12649.9
12816.7
12913.3
12938.9
12889.7
12772.6
12584.7
12325.9
11998.1
11603.7
11145.8
10628
10054.4
9429.7
8758.85
8047.81
7303.07
6531.11
5738.67
4932.82
4120.47
3308.51
2503.6
1711.81
937.336
190.126
-526.349
-1208.1
-1851.28
-2452.65
-3009.61
-3520.33
-3983.49
-4398.04
-4763.67
-5080.52
-5349.11
-5570.33
-5745.34
-5875.52
-5962.51
-6007.75
-6011.91
-5979
-5910
-5806.7
-5670.88
-5504.22
-5308.36
-5084.86
-4835.19
-4560.72
-4262.76
-3942.44
-3600.9
-3239.25
-2858.5
-2459.6
-2043.46
-1610.94
-1162.94
-700.311
-223.978
265.018
765.005
1279.97
1802.97
2333.31
2870.41
3412.61
3958.03
4504.61
5050.04
5591.75
6126.94
6652.53
7165.25
7661.56
8137.78
8590.04
9014.38
9407
9763.97
10081.1
10354.2
10580.1
10756.3
10878.8
10944.8
10952.4
10898.1
10787.1
10615.5
10383.9
10093.4
9746.37
9346.01
8896.32
8402.16
7868.89
7302.7
6710.66
6100.52
5481.18
-7606.1
-7001.5
-6366.26
-5701.86
-5009.93
-4292.25
-3550.78
-2787.68
-2005.32
-1206.32
-393.531
429.544
1258.91
2098.55
2936.77
3768.81
4592.22
5402.53
6195.12
6965.31
7708.34
8419.44
9093.88
9727.04
10314.5
10852.2
11336.2
11762.5
12127.6
12428.6
12663
12828.7
12924.5
12948.3
12897.7
12779.1
12589.7
12329.3
11999.8
11603.8
11144.2
10624.8
10049.7
9423.54
8751.3
8038.98
7293.07
6520.07
5726.72
4920.13
4107.16
3294.79
2489.66
1697.9
923.198
176.362
-539.705
-1220.96
-1863.56
-2464.26
-3020.49
-3530.44
-3992.78
-4406.51
-4771.31
-5087.33
-5355.11
-5575.54
-5749.8
-5879.35
-5965.58
-6010.17
-6013.72
-5980.25
-5910.72
-5806.96
-5670.7
-5503.64
-5307.42
-5083.6
-4833.63
-4558.9
-4260.7
-3940.17
-3598.44
-3236.63
-2855.73
-2456.7
-2040.44
-1607.83
-1159.75
-697.049
-220.661
268.377
768.417
1283.38
1806.39
2336.73
2873.82
3415.99
3961.37
4507.9
5053.25
5594.88
6129.97
6655.45
7168.04
7664.2
8140.26
8592.35
9016.5
9408.92
9765.68
10082.6
10355.5
10581.1
10757.2
10879.4
10945.2
10952.5
10898.1
10786.9
10615.1
10383.5
10092.8
9745.7
9345.29
8895.59
8401.43
7868.19
7302.05
6710.09
6100.04
5480.8
-7609.2
-7003.38
-6366.93
-5701.33
-5008.21
-4289.34
-3546.65
-2782.33
-1998.73
-1198.47
-384.395
439.961
1270.72
2111.53
2951.11
3784.45
4609.14
5420.68
6214.45
6985.74
7729.77
8441.76
9116.97
9750.73
10338.6
10876.6
11360.7
11786.8
12151.6
12452
12685.5
12850.2
12944.2
12966.9
12914.7
12794.2
12602.8
12340.3
12008.5
11610.2
11148.3
10626.5
10049
9420.51
8746.04
8031.62
7283.76
6509
5714.21
4906.24
4092.1
3278.76
2472.98
1681.01
905.478
158.92
-556.871
-1237.73
-1879.78
-2479.8
-3035.24
-3544.32
-4005.73
-4418.49
-4782.29
-5097.3
-5364.09
-5583.56
-5756.87
-5885.39
-5970.84
-6014.63
-6017.42
-5983.25
-5913.07
-5808.7
-5671.89
-5504.33
-5307.66
-5083.42
-4833.08
-4558.01
-4259.51
-3938.71
-3596.73
-3234.7
-2853.62
-2454.42
-2038.01
-1605.26
-1157.06
-694.273
-217.794
271.322
771.454
1286.44
1809.51
2339.87
2876.99
3419.17
3964.55
4511.06
5056.39
5597.98
6133.01
6658.42
7170.92
7666.98
8142.91
8594.85
9018.84
9411.08
9767.65
10084.3
10357
10582.4
10758.2
10880.2
10945.8
10952.9
10898.3
10786.9
10614.9
10383.1
10092.3
9745.11
9344.63
8894.88
8400.72
7867.5
7301.41
6709.52
6099.56
5480.42
-7620.89
-7013.55
-6375.58
-5708.47
-5013.81
-4293.36
-3549.06
-2783.07
-1997.75
-1195.69
-379.755
446.499
1279.3
2122
2963.7
3799.14
4625.94
5439.56
6235.37
7008.63
7754.54
8468.29
9145.08
9780.26
10369.3
10908.3
11393.1
11819.6
12184.4
12484.5
12717.5
12881.2
12973.9
12995.1
12941.1
12818.4
12624.6
12359.4
12024.8
11623.4
11158.4
10633.4
10052.7
9421.06
8743.5
8026.13
7275.49
6498.18
5701.07
4891.09
4075.26
3260.54
2453.73
1661.45
884.252
137.996
-577.681
-1258.26
-1899.82
-2499.18
-3053.79
-3561.92
-4022.3
-4433.94
-4796.59
-5110.43
-5376.06
-5594.37
-5766.56
-5894.06
-5978.43
-6021.24
-6023.09
-5988.06
-5917.09
-5812
-5674.52
-5506.35
-5309.12
-5084.37
-4833.57
-4558.1
-4259.23
-3938.09
-3595.82
-3233.53
-2852.2
-2452.79
-2036.18
-1603.27
-1154.91
-691.981
-215.376
273.853
774.112
1289.14
1812.31
2342.74
2879.92
3422.15
3967.57
4514.12
5059.46
5601.05
6136.07
6661.45
7173.89
7669.88
8145.72
8597.55
9021.4
9413.48
9769.87
10086.3
10358.8
10584
10759.6
10881.4
10946.6
10953.5
10898.6
10787
10614.9
10382.9
10092
9744.6
9344.03
8894.23
8400.04
7866.83
7300.78
6708.95
6099.08
5480.04
-7641.16
-7032.01
-6392.23
-5723.28
-5026.74
-4304.35
-3558.03
-2789.92
-2002.38
-1198
-379.633
449.138
1284.65
2129.97
2974.54
3812.88
4642.61
5459.17
6257.9
7034.02
7782.69
8499.05
9178.28
9815.66
10406.7
10947.3
11433.4
11860.8
12226.1
12526.3
12758.9
12921.8
13013.6
13033
12976.9
12851.8
12655.2
12386.8
12048.8
11643.7
11174.8
10645.9
10061.2
9425.47
8743.98
8022.82
7268.59
6487.95
5687.79
4875.11
4056.93
3240.24
2431.91
1639.3
859.373
113.591
-602.166
-1282.57
-1923.7
-2522.38
-3076.12
-3583.23
-4042.45
-4452.85
-4814.19
-5126.7
-5390.98
-5607.96
-5778.85
-5905.15
-5988.26
-6029.92
-6030.68
-5994.65
-5922.76
-5816.81
-5678.54
-5509.66
-5311.77
-5086.43
-4835.1
-4559.14
-4259.83
-3938.31
-3595.69
-3233.07
-2851.46
-2451.79
-2034.95
-1601.83
-1153.28
-690.175
-213.409
275.968
776.39
1291.49
1814.79
2345.34
2882.62
3424.94
3970.44
4517.05
5062.46
5604.09
6139.13
6664.52
7176.95
7672.91
8148.69
8600.43
9024.18
9416.12
9772.35
10088.6
10360.9
10585.8
10761.2
10882.7
10947.7
10954.3
10899.2
10787.3
10615
10382.8
10091.7
9744.17
9343.49
8893.62
8399.39
7866.18
7300.16
6708.39
6098.6
5479.66
-7670.02
-7058.79
-6416.9
-5745.8
-5047.03
-4322.32
-3573.58
-2802.92
-2012.68
-1205.44
-384.058
447.845
1286.73
2135.41
2983.6
3825.65
4659.15
5479.52
6282.04
7061.91
7814.22
8534.07
9216.57
9856.97
10450.7
10993.6
11481.6
11910.5
12276.8
12577.4
12809.9
12972
13062.5
13080.3
13022.1
12894.2
12694.4
12422.4
12080.3
11670.8
11197.4
10663.7
10074.1
9433.59
8747.32
8021.54
7262.92
6478.17
5674.23
4858.17
4037.03
3217.82
2407.4
1612.58
832.781
85.7456
-630.349
-1310.7
-1951.45
-2549.46
-3102.28
-3608.27
-4066.22
-4475.23
-4835.12
-5146.12
-5408.87
-5624.35
-5793.74
-5917.78
-6000.32
-6040.66
-6040.19
-6003.02
-5930.07
-5823.13
-5683.97
-5514.25
-5315.62
-5089.6
-4837.65
-4561.13
-4261.33
-3939.35
-3596.32
-3233.34
-2851.4
-2451.43
-2034.32
-1600.95
-1152.17
-688.853
-211.89
277.67
778.288
1293.5
1816.97
2347.66
2885.08
3427.53
3973.15
4519.87
5065.38
5607.1
6142.21
6667.65
7180.11
7676.07
8151.83
8603.52
9027.17
9419.01
9775.09
10091.2
10363.2
10587.9
10763.1
10884.3
10949.1
10955.4
10900
10787.8
10615.2
10382.8
10091.5
9743.83
9343.01
8893.05
8398.77
7865.55
7299.55
6707.83
6098.12
5479.27
-7707.5
-7093.9
-6449.61
-5776.05
-5074.72
-4347.33
-3595.76
-2822.1
-2028.67
-1218.04
-393.07
442.59
1285.49
2138.3
2990.87
3837.43
4675.55
5500.6
6307.81
7092.32
7849.16
8573.38
9260.01
9904.24
10501.4
11047.4
11537.9
11968.8
12336.5
12637.9
12870.4
13032
13121.2
13137.2
13076.7
12945.7
12742.3
12466
12119.3
11704.8
11226
10686.8
10091.6
9445.36
8753.46
8022.22
7258.38
6468.73
5660.3
4840.17
4015.46
3193.19
2380.16
1582.85
802.801
54.3562
-662.279
-1342.69
-1983.1
-2580.42
-3132.27
-3637.06
-4093.62
-4501.11
-4859.36
-5168.68
-5429.74
-5643.53
-5811.3
-5934.96
-6014.74
-6053.49
-6051.64
-6013.17
-5939.02
-5830.98
-5690.79
-5520.15
-5320.66
-5093.88
-4841.23
-4564.08
-4263.71
-3941.22
-3597.73
-3234.33
-2852.01
-2451.7
-2034.28
-1600.62
-1151.58
-688.017
-210.822
278.955
779.802
1295.15
1818.83
2349.71
2887.3
3429.92
3975.71
4522.58
5068.23
5610.07
6145.3
6670.83
7183.36
7679.36
8155.13
8606.79
9030.39
9422.13
9778.09
10094.1
10365.9
10590.2
10765.2
10886.2
10950.6
10956.6
10900.9
10788.5
10615.6
10382.9
10091.4
9743.57
9342.6
8892.53
8398.18
7864.93
7298.94
6707.28
6097.65
5478.89
-7753.62
-7137.39
-6490.41
-5814.08
-5109.86
-4379.42
-3624.63
-2847.53
-2050.42
-1235.89
-406.74
433.305
1280.89
2138.56
2996.29
3848.18
4691.77
5522.38
6335.17
7125.23
7887.52
8616.98
9308.62
9957.49
10558.9
11108.6
11602.3
12035.7
12405.3
12707.7
12940.6
13101.7
13189.6
13203.6
13140.7
13006.3
12798.8
12517.9
12165.8
11745.7
11260.8
10715.2
10113.5
9460.73
8762.35
8024.79
7254.91
6459.58
5645.91
4821.05
3992.16
3166.28
2350.18
1550.14
769.278
19.343
-698.002
-1378.57
-2018.68
-2615.31
-3166.13
-3669.61
-4124.66
-4530.47
-4886.94
-5194.4
-5453.58
-5665.49
-5831.41
-5952.79
-6031.36
-6068.36
-6064.99
-6025.09
-5949.6
-5840.33
-5699.01
-5527.33
-5326.9
-5099.25
-4845.83
-4567.98
-4266.97
-3943.91
-3599.91
-3236.04
-2853.3
-2452.6
-2034.83
-1600.85
-1151.51
-687.664
-210.204
279.825
780.934
1296.46
1820.38
2351.48
2889.29
3432.12
3978.11
4525.17
5071
5613.02
6148.4
6674.07
7186.7
7682.78
8158.59
8610.27
9033.84
9425.51
9781.36
10097.2
10368.8
10592.8
10767.6
10888.3
10952.5
10958.1
10902.1
10789.3
10616.2
10383.2
10091.5
9743.39
9342.24
8892.04
8397.62
7864.34
7298.35
6706.73
6097.16
5478.5
-7808.4
-7189.27
-6539.33
-5859.93
-5152.51
-4418.66
-3660.25
-2879.28
-2078.01
-1259.04
-425.144
419.913
1272.86
2136.14
2999.8
3857.84
4707.77
5544.82
6364.11
7160.63
7929.28
8664.91
9362.4
10016.8
10623.2
11177.4
11674.9
12111.4
12483.2
12787.1
13020.5
13181.2
13267.9
13279.8
13214.4
13076.3
12864.2
12578
12220
11793.4
11301.6
10748.9
10139.9
9479.69
8773.95
8029.23
7252.48
6450.68
5631.03
4800.76
3967.08
3137.05
2317.44
1514.39
732.17
-19.3566
-737.562
-1418.39
-2058.22
-2654.14
-3203.86
-3705.95
-4159.36
-4563.34
-4917.85
-5223.29
-5480.4
-5690.25
-5854.16
-5973.77
-6050.28
-6085.31
-6080.27
-6038.78
-5961.83
-5851.19
-5708.62
-5535.8
-5334.32
-5105.73
-4851.45
-4572.83
-4271.13
-3947.44
-3602.86
-3238.48
-2855.27
-2454.14
-2035.98
-1601.64
-1151.96
-687.797
-210.036
280.279
781.681
1297.42
1821.62
2352.98
2891.04
3434.12
3980.35
4527.65
5073.71
5615.94
6151.52
6677.36
7190.14
7686.34
8162.22
8613.94
9037.5
9429.12
9784.88
10100.6
10372
10595.8
10770.3
10890.8
10954.5
10959.9
10903.4
10790.4
10616.9
10383.6
10091.6
9743.28
9341.96
8891.61
8397.08
7863.75
7297.76
6706.18
6096.69
5478.11
-7871.88
-7249.61
-6596.43
-5913.68
-5202.73
-4465.13
-3702.72
-2917.44
-2111.54
-1287.61
-448.376
402.316
1261.28
2130.94
3001.31
3866.34
4723.47
5567.87
6394.57
7198.5
7974.43
8717.14
9421.39
10082.1
10694.3
11253.7
11755.7
12195.8
12570.4
12876.1
13110.2
13270.6
13355.9
13365.6
13297.8
13155.5
12938.4
12646.3
12281.8
11848
11348.6
10787.9
10170.7
9502.2
8788.22
8035.46
7251
6441.93
5615.56
4779.19
3940.12
3105.42
2281.84
1475.49
691.418
-61.8257
-781.028
-1462.19
-2101.78
-2696.95
-3245.52
-3746.1
-4197.73
-4599.73
-4952.12
-5255.34
-5510.19
-5717.79
-5879.5
-5996.88
-6071.44
-6104.29
-6097.46
-6054.24
-5975.68
-5863.56
-5719.62
-5545.54
-5342.93
-5113.3
-4858.09
-4578.62
-4276.16
-3951.78
-3606.58
-3241.63
-2857.91
-2456.31
-2037.72
-1602.98
-1152.93
-688.414
-210.317
280.317
782.043
1298.03
1822.54
2354.2
2892.55
3435.92
3982.43
4530.02
5076.34
5618.83
6154.65
6680.7
7193.67
7690.02
8166.02
8617.8
9041.39
9432.98
9788.66
10104.2
10375.4
10598.9
10773.3
10893.4
10956.8
10961.8
10905
10791.6
10617.7
10384.1
10091.8
9743.26
9341.72
8891.2
8396.57
7863.18
7297.19
6705.64
6096.21
5477.72
-7944.1
-7318.45
-6661.77
-5975.39
-5260.62
-4518.92
-3752.13
-2962.13
-2151.11
-1321.69
-476.56
380.374
1246.08
2122.87
3000.71
3873.58
4738.8
5591.46
6426.52
7238.78
8022.96
8773.67
9485.59
10153.5
10772.4
11337.7
11844.8
12289.2
12667
12974.8
13209.9
13370.1
13453.9
13461
13391.1
13244.2
13021.5
12722.9
12351.2
11909.6
11401.8
10832.2
10205.9
9528.22
8805.11
8043.43
7250.41
6433.27
5599.43
4756.29
3911.22
3071.31
2243.34
1433.35
646.98
-108.122
-828.449
-1510.02
-2149.39
-2743.79
-3291.12
-3790.09
-4239.8
-4639.65
-4989.74
-5290.56
-5542.97
-5748.13
-5907.44
-6022.53
-6094.89
-6125.32
-6116.55
-6071.46
-5991.16
-5877.43
-5732.01
-5556.57
-5352.73
-5121.98
-4865.75
-4585.37
-4282.07
-3956.94
-3611.07
-3245.51
-2861.23
-2459.12
-2040.05
-1604.88
-1154.42
-689.517
-211.049
279.939
782.021
1298.3
1823.15
2355.14
2893.83
3437.53
3984.37
4532.27
5078.9
5621.69
6157.78
6684.09
7197.29
7693.83
8169.98
8621.86
9045.5
9437.09
9792.7
10108.2
10379.2
10602.4
10776.5
10896.3
10959.4
10964
10906.8
10793
10618.8
10384.8
10092.1
9743.29
9341.52
8890.87
8396.12
7862.65
7296.63
6705.1
6095.72
5477.33
-8025.11
-7395.85
-6735.43
-6045.15
-5326.27
-4580.13
-3808.59
-3013.48
-2196.86
-1361.43
-509.821
353.934
1227.09
2111.83
2997.88
3879.44
4753.65
5615.5
6459.85
7281.43
8074.82
8834.49
9555
10231
10857.3
11429.3
11942.3
12391.4
12772.9
13083.3
13319.6
13479.6
13561.9
13565.9
13494.5
13342.4
13113.5
12807.9
12428.3
11978.1
11461
10881.8
10245.5
9557.71
8824.56
8053.07
7250.63
6424.61
5582.54
4731.95
3880.27
3034.64
2201.84
1387.86
598.778
-158.325
-879.9
-1561.95
-2201.1
-2794.69
-3340.7
-3837.93
-4285.59
-4683.14
-5030.74
-5328.97
-5578.74
-5781.27
-5937.99
-6050.59
-6120.63
-6148.36
-6137.54
-6090.45
-6008.27
-5892.8
-5745.78
-5568.88
-5363.7
-5131.74
-4874.42
-4593.05
-4288.86
-3962.93
-3616.32
-3250.1
-2865.21
-2462.55
-2042.98
-1607.33
-1156.43
-691.104
-212.231
279.144
781.614
1298.22
1823.45
2355.82
2894.87
3438.93
3986.14
4534.4
5081.39
5624.52
6160.94
6687.55
7201.01
7697.78
8174.11
8626.12
9049.83
9441.43
9797
10112.4
10383.2
10606
10780
10899.5
10962.2
10966.4
10908.7
10794.5
10619.9
10385.5
10092.5
9743.42
9341.42
8890.55
8395.66
7862.11
7296.06
6704.56
6095.26
5476.94
-8114.94
-7481.88
-6817.47
-6123.04
-5399.77
-4648.88
-3872.22
-3071.59
-2248.91
-1406.95
-548.279
322.831
1204.21
2097.71
2992.68
3883.81
4767.92
5639.9
6494.52
7326.4
8129.98
8899.58
9629.63
10314.6
10949.2
11528.7
12048.2
12502.8
12888.5
13201.7
13439.5
13599.5
13680
13680
13608.6
13450.2
13214.6
12901.4
12513.2
12053.5
11526.4
10936.6
10289.5
9590.68
8846.57
8064.37
7251.64
6415.91
5564.85
4706.11
3847.2
2995.32
2157.27
1338.9
546.726
-212.507
-935.449
-1618.03
-2256.98
-2849.7
-3394.3
-3889.67
-4335.11
-4730.18
-5075.12
-5370.57
-5617.51
-5817.2
-5971.15
-6081.06
-6148.67
-6173.39
-6160.44
-6111.2
-6027
-5909.66
-5760.93
-5582.46
-5375.85
-5142.6
-4884.1
-4601.67
-4296.53
-3969.73
-3622.34
-3255.41
-2869.87
-2466.61
-2046.49
-1610.34
-1158.95
-693.177
-213.864
277.931
780.818
1297.79
1823.43
2356.21
2895.67
3440.14
3987.76
4536.43
5083.81
5627.33
6164.11
6691.06
7204.83
7701.86
8178.41
8630.58
9054.39
9446.03
9801.57
10116.8
10387.5
10610
10783.8
10902.9
10965.2
10969
10910.9
10796.2
10621.2
10386.4
10093.1
9743.68
9341.4
8890.28
8395.23
7861.6
7295.52
6704.04
6094.79
5476.54
-8213.67
-7576.61
-6907.99
-6209.17
-5481.27
-4725.3
-3943.18
-3136.66
-2307.44
-1458.44
-592.094
286.823
1177.23
2080.37
2984.89
3886.53
4781.47
5664.54
6530.41
7373.59
8188.38
8968.91
9709.47
10404.4
11048.2
11635.9
12162.6
12623.2
13013.6
13330.2
13569.7
13729.8
13808.7
13802.8
13734.2
13567.6
13324.8
13003.4
12605.9
12136.1
11598.1
10996.8
10337.8
9627.09
8871.05
8077.2
7253.27
6406.98
5546.16
4678.57
3811.82
2953.19
2109.48
1286.35
490.718
-270.728
-995.152
-1678.31
-2317.03
-2908.84
-3451.92
-3945.3
-4388.38
-4780.79
-5122.88
-5415.35
-5659.27
-5855.94
-6006.91
-6113.96
-6179.07
-6200.37
-6185.24
-6133.7
-6047.35
-5928.02
-5777.45
-5597.31
-5389.18
-5154.54
-4894.79
-4611.24
-4305.07
-3977.35
-3629.13
-3261.44
-2875.2
-2471.31
-2050.61
-1613.9
-1162.01
-695.739
-215.952
276.296
779.637
1297.01
1823.1
2356.32
2896.23
3441.15
3989.21
4538.32
5086.15
5630.08
6167.27
6694.6
7208.72
7706.05
8182.85
8635.22
9059.16
9450.87
9806.4
10121.7
10392.1
10614.2
10787.9
10906.7
10968.5
10971.8
10913.2
10798.1
10622.7
10387.5
10093.8
9743.97
9341.39
8890.08
8394.87
7861.13
7295
6703.51
6094.31
5476.14
-8296.33
-7656.23
-6984.37
-6282.14
-5550.61
-4790.6
-4004.1
-3192.81
-2358.23
-1503.4
-630.675
254.983
1152.88
2064.21
2977.11
3887.85
4792.26
5685.1
6560.95
7414.22
8239.11
9029.54
9779.7
10483.8
11136.1
11731.7
12265.2
12731.7
13126.9
13446.9
13688.5
13849.2
13927.2
13919
13847.3
13676.5
13427.5
13098.8
12693
12213.9
11665.8
11053.8
10383.7
9661.62
8894.2
8089.13
7254.35
6397.74
5527.29
4650.9
3776.27
2910.76
2061.23
1232.98
433.597
-330.349
-1056.62
-1740.7
-2379.52
-2970.7
-3512.55
-4004.17
-4445.08
-4834.99
-5174.34
-5463.91
-5704.83
-5898.48
-6046.45
-6150.6
-6213.31
-6230.69
-6213.47
-6159.49
-6070.84
-5949.37
-5796.82
-5614.85
-5405.03
-5168.85
-4907.69
-4622.86
-4315.52
-3986.72
-3637.51
-3268.91
-2881.84
-2477.16
-2055.71
-1618.3
-1165.73
-698.798
-218.358
274.531
778.536
1296.52
1823.3
2357.23
2897.87
3443.53
3992.37
4542.28
5090.92
5635.67
6173.67
6701.81
7216.7
7714.77
8192.23
8645.18
9069.6
9461.67
9817.42
10132.6
10402.9
10624.6
10798.1
10916.2
10977.2
10979.4
10919.6
10803.2
10626.3
10389.5
10094.1
9742.5
9338.15
8885.06
8388
7852.38
7284.27
6690.59
6078.81
5456.95
-8357.32
-7715.35
-7041.44
-6337.01
-5603.11
-4840.4
-4050.88
-3236.29
-2397.87
-1538.83
-661.429
229.28
1132.82
2050.41
2969.83
3887.71
4799.64
5700.33
6584.27
7445.85
8279.16
9077.93
9836.29
10548.3
11208.2
11810.7
12350.6
12822.6
13222.4
13546
13790.1
13951.9
14029.9
14022.2
13944.8
13772.6
13519
13184.4
12771.7
12284.7
11727.9
11106.6
10426.7
9694.4
8916.63
8101.23
7256.33
6389.97
5510.28
4625.31
3742.88
2870.43
2014.87
1181.2
377.768
-389.187
-1117.74
-1803.22
-2442.62
-3033.65
-3574.7
-4064.99
-4504.11
-4891.87
-5228.78
-5515.71
-5753.85
-5944.66
-6089.75
-6191.01
-6251
-6265.4
-6245.7
-6189.24
-6098.26
-5974.6
-5820.02
-5636.16
-5424.6
-5186.81
-4924.18
-4637.99
-4329.42
-3999.5
-3649.24
-3279.68
-2891.7
-2486.18
-2063.94
-1625.77
-1172.45
-704.783
-223.6
270.033
774.817
1293.56
1821.2
2356.05
2897.66
3444.37
3994.32
4545.42
5095.31
5641.39
6180.77
6710.3
7226.6
7726.06
8204.87
8659.1
9084.69
9477.83
9834.53
10150.4
10421.7
10642.6
10816.7
10934.3
10994.6
10995.8
10934.6
10816.6
10638
10399.3
10101.8
9748.1
9341.61
8886.41
8387.33
7849.8
7279.92
6684.31
6071.23
5448.36
-8420.97
-7777.12
-7101.16
-6394.5
-5658.21
-4892.73
-4100.14
-3282.18
-2439.81
-1576.42
-694.196
201.773
1111.14
2035.24
2961.48
3886.8
4806.61
5715.5
6607.95
7478.26
8320.41
9127.98
9894.99
10615.4
11283.3
11893.2
12439.8
12917.7
13322.5
13650
13896.8
14059.9
14137.8
14130.2
14048.3
13873.7
13615.4
13274.7
12854.8
12359.6
11793.7
11162.6
10472.3
9729.32
8940.63
8114.32
7258.69
6381.97
5492.47
4598.39
3707.65
2827.83
1965.85
1126.44
318.683
-451.496
-1182.47
-1869.42
-2509.45
-3100.33
-3640.57
-4129.46
-4566.72
-4952.24
-5286.61
-5570.79
-5806.03
-5993.86
-6135.96
-6234.22
-6290.82
-6303.11
-6280.32
-6221.23
-6127.81
-6001.86
-5845.14
-5659.31
-5445.91
-5206.44
-4942.27
-4654.68
-4344.82
-4013.71
-3662.37
-3291.8
-2902.9
-2496.5
-2073.44
-1634.49
-1180.4
-711.976
-230.019
264.395
769.996
1289.55
1818.11
2353.94
2896.61
3444.46
3995.64
4548.05
5099.35
5646.92
6187.85
6719
7236.94
7738.04
8218.48
8674.26
9101.32
9495.78
9853.65
10170.5
10442.7
10662.2
10838
10955.3
11015
11015.3
10952.7
10833.3
10653
10412.4
10112.7
9756.68
9347.78
8890.03
8388.4
7848.45
7276.36
6678.7
6063.97
5439.65
-8487.29
-7841.56
-7163.53
-6454.62
-5715.91
-4947.63
-4151.9
-3330.51
-2484.08
-1616.22
-729.019
172.41
1087.8
2018.66
2951.98
3885.08
4813.12
5730.59
6631.93
7511.39
8362.85
9179.65
9955.79
10685.1
11361.3
11979.1
12532.8
13017.1
13427.1
13758.8
14008.5
14173.2
14250.9
14243.2
14157.6
13980
13716.8
13369.8
12942.3
12438.5
11863.1
11221.8
10520.6
9766.29
8966.07
8128.23
7261.26
6373.6
5473.72
4570
3670.49
2782.89
1914.17
1068.66
256.337
-517.274
-1250.8
-1939.33
-2580.04
-3170.8
-3710.2
-4197.67
-4632.99
-5016.17
-5347.89
-5629.18
-5861.4
-6046.11
-6185.08
-6280.14
-6333.4
-6343.15
-6317.29
-6255.46
-6159.48
-6031.14
-5872.19
-5684.29
-5468.98
-5227.76
-4961.98
-4672.93
-4361.73
-4029.4
-3676.94
-3305.33
-2915.45
-2508.15
-2084.24
-1644.47
-1189.59
-720.363
-237.599
257.63
764.088
1284.52
1814.04
2350.94
2894.75
3443.84
3996.36
4550.23
5103.09
5652.32
6195.01
6727.99
7247.82
7750.83
8233.16
8690.8
9119.62
9515.74
9875.11
10193.4
10466.9
10695
10863.5
10980.5
11039.6
11039.1
10975.2
10854.2
10672
10428.9
10126.6
9767.71
9355.76
8894.99
8390.46
7847.72
7273
6673.42
6056.58
5430.33
-8556.27
-7908.68
-7228.57
-6517.38
-5776.25
-5005.12
-4206.17
-3381.31
-2530.71
-1658.24
-765.926
141.139
1062.74
2000.62
2941.31
3882.5
4819.12
5745.54
6656.19
7545.23
8406.46
9232.95
10018.7
10757.3
11442.4
12068.5
12629.8
13120.7
13536.3
13872.5
14125.5
14291.7
14369.1
14361.3
14272.5
14091.6
13823.3
13469.6
13034.3
12521.5
11936.2
11284
10571.4
9805.19
8992.84
8142.85
7263.95
6364.77
5453.97
4540.1
3631.36
2735.58
1859.8
1007.76
190.643
-586.631
-1322.86
-2013.07
-2654.52
-3245.17
-3783.71
-4269.67
-4702.98
-5083.72
-5412.66
-5690.93
-5919.96
-6101.42
-6237.12
-6328.87
-6378.64
-6385.56
-6356.6
-6291.92
-6193.26
-6062.43
-5901.16
-5711.09
-5493.8
-5250.75
-4983.3
-4692.72
-4380.14
-4046.54
-3692.92
-3320.23
-2929.35
-2521.12
-2096.33
-1655.72
-1200.02
-729.969
-246.366
249.71
757.064
1278.43
1808.98
2347
2892.04
3442.46
3996.44
4551.89
5106.47
5657.55
6202.2
6737.23
7259.18
7764.36
8248.86
8708.64
9139.52
9537.6
9898.75
10218.6
10493.6
10721.3
10891.8
11008.8
11067.6
11066.3
11001.2
10878.6
10694.4
10449
10143.9
9782.1
9366.99
8902.97
8395.13
7849.07
7271.19
6668.58
6048.97
5420.35
-8627.96
-7978.5
-7296.31
-6582.82
-5839.26
-5065.26
-4263.03
-3434.64
-2579.77
-1702.56
-804.98
107.911
1035.92
1981.07
2929.38
3879
4824.55
5760.31
6680.67
7579.73
8451.2
9287.85
10083.6
10832.2
11526.6
12161.4
12730.6
13228.6
13650.2
13991.2
14247.7
14415.8
14492.4
14484.9
14393.1
14208.5
13934.8
13574.3
13130.8
12608.6
12012.8
11349.3
10624.7
9846.01
9020.93
8158.18
7266.74
6355.45
5433.17
4508.62
3590.16
2685.75
1802.59
943.591
121.464
-659.704
-1398.76
-2090.74
-2732.96
-3323.49
-3861.12
-4345.51
-4776.7
-5154.87
-5480.91
-5756.02
-5981.73
-6159.8
-6292.11
-6380.43
-6426.48
-6430.37
-6398.25
-6330.6
-6229.15
-6095.72
-5932.02
-5739.72
-5520.35
-5275.39
-5006.21
-4714.06
-4400.04
-4065.13
-3710.31
-3336.51
-2944.6
-2535.41
-2109.71
-1668.23
-1211.68
-740.781
-256.308
240.647
748.934
1271.29
1802.91
2342.13
2888.48
3440.33
3995.88
4553.06
5109.52
5662.61
6209.42
6746.73
7271.05
7778.66
8265.61
8727.82
9161.07
9561.4
9924.65
10246.4
10523
10751.2
10923.3
11040.7
11099.3
11097.4
11031
10906.8
10720.6
10472.7
10164.7
9799.59
9380.97
8913.24
8401.58
7851.71
7270.16
6664.02
6041.27
5409.87
-8702.36
-8051.05
-7366.79
-6650.99
-5904.98
-5128.09
-4322.51
-3490.57
-2631.32
-1749.24
-846.251
72.6498
1007.28
1959.96
2916.16
3874.52
4829.37
5774.84
6705.33
7614.86
8497.06
9344.33
10150.7
10909.6
11613.8
12257.7
12835.4
13340.8
13768.8
14115
14375.1
14545.3
14620
14613.9
14519.4
14330.8
14051.5
13683.8
13231.7
12699.7
12093
11417.7
10680.5
9888.72
9050.29
8174.15
7269.54
6345.53
5411.19
4475.42
3546.76
2633.3
1742.46
876.036
48.7272
-736.569
-1478.57
-2172.39
-2815.41
-3405.8
-3942.48
-4425.22
-4854.19
-5229.68
-5552.68
-5824.49
-6046.73
-6221.24
-6350.04
-6434.9
-6476.84
-6477.58
-6442.23
-6371.5
-6267.15
-6131
-5964.79
-5770.15
-5548.63
-5301.69
-5030.72
-4736.93
-4421.42
-4085.17
-3729.1
-3354.15
-2961.18
-2550.99
-2124.37
-1682
-1224.58
-752.804
-267.432
230.435
739.692
1263.09
1795.85
2336.33
2884.06
3437.44
3994.68
4553.72
5112.2
5667.49
6216.66
6756.47
7283.4
7793.7
8283.39
8748.32
9184.24
9587.14
9952.8
10276.8
10555.1
10784.3
10958
11076.1
11134.7
11132.2
11064.6
10938.8
10750.5
10499.9
10188.7
9820.06
9397.55
8925.69
8409.79
7855.7
7270.02
6659.93
6033.55
5398.87
-8783.39
-8130.16
-7443.75
-6725.51
-5976.94
-5197.01
-4387.83
-3552.14
-2688.2
-1800.84
-892.051
33.3608
975.16
1936.05
2900.85
3868.77
4833.81
5789.91
6731.5
7652.56
8546.59
9405.57
10223.6
10994
11709.1
12363.3
12950.3
13464
13899.2
14251.1
14515.7
14688.5
14762.9
14756.8
14659.1
14466
14180.5
13805
13343.5
12800.6
12181.9
11493.4
10742.3
9936.02
9082.74
8191.73
7272.47
6334.31
5386.53
4438.27
3498.24
2574.68
1675.39
800.568
-32.4013
-822.39
-1567.65
-2263.51
-2907.43
-3497.68
-4033.29
-4514.21
-4940.71
-5313.23
-5632.86
-5901
-6119.39
-6289.98
-6414.91
-6496.04
-6533.16
-6530.48
-6491.59
-6417.46
-6309.9
-6170.76
-6001.76
-5804.54
-5580.64
-5331.53
-5058.56
-4762.98
-4445.85
-4108.11
-3750.68
-3374.47
-2980.32
-2569.05
-2141.41
-1698.08
-1239.7
-766.962
-280.599
218.272
728.607
1253.17
1787.2
2329.1
2878.4
3433.53
3992.7
4553.87
5114.69
5672.54
6224.45
6767.18
7297.19
7810.67
8303.61
8771.79
9210.91
9616.91
9985.49
10312.1
10592.8
10823.5
10999
11118.2
11176.7
11173.8
11105
10977.4
10786.7
10533
10218.2
9845.4
9418.32
8941.62
8420.72
7861.55
7270.87
6655.95
6025.07
5386.32
-8871.68
-8216.47
-7527.86
-6807.06
-6055.83
-5272.73
-4459.72
-3620.08
-2751.14
-1858.08
-943.063
-10.6105
938.959
1908.78
2882.91
3861.31
4837.52
5805.31
6759.12
7692.88
8600.01
9471.89
10302.8
11086.1
11813.2
12478.7
13076.3
13599.3
14042.5
14401
14670.5
14846.7
14901.7
14914.5
14813.3
14615.2
14323
13938.9
13467
12912.2
12280.1
11577.2
10810.6
9988.24
9118.5
8210.97
7275.43
6321.52
5358.8
4396.62
3443.91
2509.07
1599.66
717.03
-122.951
-918.325
-1667.13
-2365.29
-3010.2
-3600.27
-4134.7
-4613.57
-5037.33
-5406.56
-5722.44
-5986.51
-6200.62
-6366.86
-6487.55
-6564.63
-6596.17
-6589.77
-6546.99
-6469.11
-6358.01
-6215.55
-6043.49
-5843.42
-5616.89
-5365.37
-5090.22
-4792.66
-4473.74
-4134.38
-3775.47
-3397.88
-3002.45
-2590
-2161.25
-1716.86
-1257.44
-783.651
-296.197
203.771
715.3
1241.19
1776.62
2320.12
2871.2
3428.3
3989.67
4553.29
5116.82
5677.62
6232.74
6778.89
7312.52
7829.76
8326.54
8798.6
9241.57
9651.3
10023.4
10353.4
10636.8
10869.7
11047.2
11166.6
11226.7
11223.4
11153.3
11023.9
10830.5
10573.4
10254.4
9876.71
9444.28
8961.85
8434.94
7869.67
7272.96
6652.18
6015.83
5372.1
-8963.29
-8306.13
-7615.36
-6892
-6138.09
-5351.85
-4534.92
-3691.32
-2817.32
-1918.39
-996.995
-57.3097
900.291
1879.35
2863.14
3852.42
4840.23
5820.17
6786.71
7733.73
8654.61
9539.99
10384.5
11181.2
11921
12598.5
13207.1
13740
14191.7
14557.2
14832.3
15014.4
15122
15082.5
14975.4
14772
14472.6
14079.4
13596.7
13029.4
12383.4
11665.2
10882.4
10043.1
9155.99
8231.02
7278.31
6307.79
5329.31
4352.46
3386.41
2439.68
1519.67
628.925
-218.4
-1019.56
-1771.95
-2472.47
-3118.39
-3708.23
-4241.37
-4718.07
-5138.93
-5504.66
-5816.6
-6076.4
-6286.01
-6447.7
-6563.97
-6636.97
-6662.26
-6652.17
-6605.37
-6523.58
-6408.78
-6262.88
-6087.63
-5884.6
-5655.34
-5401.32
-5123.9
-4824.3
-4503.54
-4162.51
-3802.06
-3423.05
-3026.3
-2612.63
-2182.75
-1737.28
-1276.81
-801.935
-313.353
187.736
700.506
1227.78
1764.68
2309.86
2862.81
3422
3985.73
4551.97
5118.4
5682.39
6240.97
6790.85
7328.42
7849.78
8350.79
8827.14
9274.36
9688.27
10064.4
10398
10684.7
10920.3
11100.1
11221.4
11281.9
11278.3
11207
11075.6
10879.4
10618.6
10295.1
9912.15
9473.87
8985.12
8451.59
7879.59
7276.15
6648.83
6006.26
5356.91
-9058.25
-8399.15
-7706.27
-6980.35
-6223.75
-5434.41
-4613.5
-3765.89
-2886.82
-1981.83
-1053.91
-106.822
859.065
1847.64
2841.39
3842
4841.9
5834.48
6814.28
7775.14
8710.41
9609.89
10468.7
11279.6
12032.7
12722.8
13343.1
13886.3
14346.9
14719.9
15000.7
15187
15284.5
15254.6
15143.7
14935
14628.3
14225.7
13731.8
13151.4
12490.7
11756.6
10956.8
10099.7
9194.45
8251.21
7280.51
6292.59
5297.62
4305.43
3325.41
2366.27
1435.29
536.027
-318.912
-1126.27
-1882.18
-2585.19
-3232.1
-3821.65
-4353.39
-4827.77
-5245.55
-5607.61
-5915.4
-6170.7
-6375.59
-6532.53
-6644.18
-6713.23
-6731.29
-6717.72
-6666.71
-6580.85
-6462.2
-6312.73
-6134.16
-5928.06
-5695.96
-5439.34
-5159.58
-4857.88
-4535.22
-4192.48
-3830.46
-3449.98
-3051.87
-2636.95
-2205.92
-1759.36
-1297.8
-821.821
-332.073
170.151
684.208
1212.94
1751.36
2298.3
2853.21
3414.62
3980.84
4549.87
5119.41
5686.83
6249.14
6803.04
7344.88
7870.73
8376.36
8857.39
9309.3
9727.79
10108.3
10446
10736.4
10975
11157.4
11280.1
11341.5
11338.1
11265.6
11132.3
10933.3
10668.6
10340.2
9951.63
9507.01
9011.39
8470.63
7891.2
7280.35
6645.76
5996.34
5340.69
-9156.63
-8495.6
-7800.68
-7072.23
-6312.89
-5520.53
-4695.58
-3843.9
-2959.77
-2048.49
-1113.92
-159.245
815.203
1813.57
2817.59
3829.85
4842.28
5848.01
6841.62
7816.97
8767.28
9681.45
10555.2
11381.1
12148
12851.4
13484
14038.3
14508.3
14889.2
15176
15366.2
15461
15434.4
15319.9
15105.5
14791.2
14378.9
13873.1
13279.2
12603.2
11852.4
11034.8
10159.1
9234.68
8272.23
7282.61
6276.38
5264.05
4255.72
3261.02
2288.86
1346.43
438.224
-424.624
-1238.76
-1998
-2703.62
-3351.51
-3940.68
-4470.89
-4942.78
-5357.3
-5715.48
-6018.9
-6269.46
-6469.39
-6621.37
-6728.18
-6791.91
-6804.59
-6786.46
-6731.03
-6640.9
-6518.25
-6365.06
-6183.07
-5973.79
-5738.74
-5479.43
-5197.25
-4893.37
-4568.77
-4224.28
-3860.65
-3478.66
-3079.15
-2662.95
-2230.75
-1783.08
-1320.42
-843.309
-352.352
151.005
666.398
1196.67
1736.64
2285.41
2842.38
3406.12
3974.96
4546.95
5119.8
5690.86
6257.17
6815.39
7361.84
7892.53
8403.18
8889.31
9346.32
9769.84
10155.2
10497.5
10792
11034.2
11219.6
11344.9
11407.9
11403.8
11330
11194.7
10992.6
10723.7
10390.1
9995.44
9543.96
9040.88
8492.22
7904.7
7285.76
6643.25
5986.24
5323.5
-9258.41
-8595.45
-7898.63
-7167.73
-6405.6
-5610.3
-4781.31
-3925.44
-3036.31
-2118.5
-1177.14
-214.707
768.581
1777.1
2791.76
3816.06
4841.46
5860.81
6868.73
7859.13
8825.16
9754.66
10644
11485.8
12267.1
12984.4
13630
14195.8
14675.8
15065
15358.1
15552.3
15647.4
15621.1
15503.2
15283.3
14961
14538.6
14020.5
13412.2
12720.2
11951.8
11115.5
10220.1
9275.66
8293.08
7283.65
6258.29
5227.83
4202.63
3192.64
2206.91
1252.67
335.215
-536.398
-1356.71
-2119.47
-2827.91
-3476.71
-4065.39
-4593.9
-5063.12