/*--------------------------------*- C++ -*----------------------------------*\
| =========                 |                                                 |
| \\      /  F ield         | OpenFOAM: The Open Source CFD Toolbox           |
|  \\    /   O peration     | Version:  v1912                                 |
|   \\  /    A nd           | Website:  www.openfoam.com                      |
|    \\/     M anipulation  |                                                 |
\*---------------------------------------------------------------------------*/
FoamFile
{
    version     2.0;
    format      ascii;
    class       volVectorField;
    location    "50";
    object      U;
}
// * * * * * * * * * * * * * * * * * * * * * * * * * * * * * * * * * * * * * //

dimensions      [0 1 -1 0 0 0 0];


internalField   nonuniform List<vector> 
14268
(
(-0.84246 -0.0547698 -1.83262e-23)
(-0.789171 -0.0527472 0)
(-0.732815 -0.0505462 1.26528e-23)
(-0.673473 -0.0481691 -1.67333e-23)
(-0.61123 -0.0456149 0)
(-0.546168 -0.0428826 -1.01694e-23)
(-0.478406 -0.0399843 0)
(-0.408089 -0.0369174 -1.37278e-23)
(-0.335349 -0.0336828 0)
(-0.260353 -0.030283 0)
(-0.183293 -0.0267288 4.53043e-24)
(-0.104484 -0.0230312 -1.21617e-23)
(-0.0236328 -0.0191645 0)
(0.058377 -0.0151558 0)
(0.141194 -0.0110332 0)
(0.224599 -0.00679581 -2.4519e-24)
(0.308115 -0.00246271 0)
(0.391344 0.00194986 1.57103e-24)
(0.473821 0.00642624 3.70552e-24)
(0.555048 0.0109415 1.13194e-23)
(0.634501 0.0154757 0)
(0.711627 0.0200011 1.03427e-23)
(0.78586 0.0244878 0)
(0.856619 0.0289094 1.46943e-23)
(0.923325 0.0332324 1.67609e-23)
(0.985375 0.0374168 1.87094e-23)
(1.0422 0.0414329 3.27012e-24)
(1.09327 0.0452423 0)
(1.13803 0.0488148 2.35309e-23)
(1.17602 0.0521119 -2.46952e-23)
(1.20679 0.0551032 0)
(1.22996 0.0577535 -2.62748e-23)
(1.24523 0.0600595 0)
(1.25228 0.0619724 5.42176e-23)
(1.25134 0.0633997 0)
(1.24225 0.0644591 0)
(1.22454 0.0650855 2.5678e-23)
(1.19854 0.0652248 0)
(1.16443 0.06488 0)
(1.12253 0.0640542 -2.19654e-23)
(1.07324 0.0627554 1.674e-23)
(1.01703 0.0609938 0)
(0.954461 0.0587897 -1.61886e-23)
(0.886139 0.0561656 0)
(0.812794 0.0531486 1.15537e-23)
(0.735127 0.0497726 9.10218e-24)
(0.653914 0.0460731 6.59509e-24)
(0.569943 0.042095 0)
(0.484034 0.0379215 -4.17421e-24)
(0.396979 0.033633 0)
(0.309571 0.0291903 0)
(0.2226 0.024621 -5.35527e-24)
(0.136746 0.01996 0)
(0.0526954 0.0152839 0)
(-0.0290122 0.0106185 -1.0954e-23)
(-0.107717 0.00604748 -5.24973e-24)
(-0.18283 0.00159971 0)
(-0.254047 -0.00269252 -1.32026e-23)
(-0.321013 -0.00679822 0)
(-0.383441 -0.0106923 0)
(-0.441115 -0.0143535 -1.40803e-23)
(-0.493869 -0.0177636 0)
(-0.541603 -0.0209121 0)
(-0.584284 -0.0237885 0)
(-0.621904 -0.0263868 0)
(-0.6545 -0.0287046 0)
(-0.682148 -0.0307493 0)
(-0.70495 -0.0325213 0)
(-0.72303 -0.0340225 0)
(-0.736531 -0.0352631 1.09193e-23)
(-0.745609 -0.0362658 0)
(-0.750458 -0.0370104 9.4559e-24)
(-0.751197 -0.0375215 0)
(-0.747945 -0.0377852 0)
(-0.74099 -0.0378312 7.78079e-24)
(-0.73047 -0.037669 0)
(-0.716553 -0.0373049 0)
(-0.699395 -0.0367513 6.42971e-24)
(-0.679142 -0.0360133 0)
(-0.655936 -0.0350984 0)
(-0.629909 -0.0340296 0)
(-0.601185 -0.0327882 0)
(-0.569872 -0.0313892 4.79725e-24)
(-0.536079 -0.0298551 -4.54813e-24)
(-0.499904 -0.0282044 0)
(-0.461423 -0.0264363 0)
(-0.420722 -0.0245463 0)
(-0.377874 -0.0225313 3.74819e-24)
(-0.332942 -0.0203897 -3.58067e-24)
(-0.286005 -0.0181329 0)
(-0.237121 -0.0157631 3.26951e-24)
(-0.186331 -0.0132979 0)
(-0.133709 -0.0107453 0)
(-0.0793523 -0.00809028 0)
(-0.0230677 -0.00533291 0)
(0.0348336 -0.00247703 0)
(0.094178 0.000460301 -2.26198e-24)
(0.154993 0.00348149 0)
(0.217099 0.00658815 0)
(0.280385 0.00975416 0)
(0.344689 0.0130136 3.91585e-24)
(0.409825 0.0163249 0)
(0.475574 0.0196518 0)
(0.541679 0.023033 0)
(0.607848 0.0264923 0)
(0.673752 0.029988 0)
(0.739023 0.0334807 0)
(0.80325 0.0369542 0)
(0.865982 0.0403756 0)
(0.926731 0.0436592 0)
(0.984973 0.0468623 0)
(1.04016 0.0499195 -2.74642e-24)
(1.09171 0.0527561 0)
(1.13905 0.0553474 3.60992e-24)
(1.18158 0.0577079 -3.79697e-24)
(1.21872 0.0598009 0)
(1.2499 0.0616352 -4.12035e-24)
(1.2746 0.0631909 0)
(1.29233 0.0643909 0)
(1.3027 0.0651943 -3.69049e-24)
(1.30535 0.065573 0)
(1.30065 0.0655463 0)
(1.28765 0.0650984 0)
(1.26647 0.0642114 0)
(1.23738 0.0628896 0)
(1.20063 0.0611448 0)
(1.15671 0.0589957 -1.74621e-24)
(1.10618 0.0564722 -1.35571e-24)
(1.04994 0.0536187 0)
(0.988746 0.0504862 0)
(0.923763 0.0471281 0)
(0.856258 0.0436257 1.81662e-25)
(0.786498 0.0399808 -2.34614e-26)
(0.717699 0.0363944 0)
(-0.839604 -0.0791227 0)
(-0.786219 -0.0783981 0)
(-0.729776 -0.0774379 4.72262e-23)
(-0.670355 -0.0762382 4.04432e-23)
(-0.608037 -0.0748073 -3.81665e-23)
(-0.542913 -0.0731341 -7.66315e-23)
(-0.475093 -0.0712131 -3.30109e-23)
(-0.404727 -0.0690479 3.00753e-23)
(-0.331947 -0.0666211 0)
(-0.256914 -0.0639366 -2.33072e-23)
(-0.179835 -0.0609714 4.47049e-23)
(-0.101016 -0.0577631 -2.11699e-23)
(-0.0201477 -0.0542523 -1.05544e-23)
(0.0618351 -0.0504363 -6.4917e-24)
(0.144632 -0.0463501 9.79846e-25)
(0.227997 -0.0419892 4.56085e-24)
(0.311458 -0.037347 1.03039e-23)
(0.394617 -0.0324367 -1.62564e-23)
(0.477007 -0.0272627 2.23745e-23)
(0.558131 -0.0218448 5.17512e-23)
(0.637459 -0.0161984 0)
(0.714442 -0.010345 -4.10198e-23)
(0.788514 -0.00431839 4.70726e-23)
(0.859092 0.00185585 5.28966e-23)
(0.925603 0.0081325 -5.84122e-23)
(0.98743 0.0144773 6.35147e-23)
(1.04402 0.020835 1.32941e-22)
(1.09482 0.0271608 7.20979e-23)
(1.13931 0.0333916 -7.54058e-23)
(1.17701 0.0394749 0)
(1.20748 0.0453503 7.96628e-23)
(1.23035 0.0509596 -8.05095e-23)
(1.24532 0.0562349 8.05475e-23)
(1.25207 0.0611234 1.59589e-22)
(1.25082 0.0653914 0)
(1.24142 0.0693691 -7.51587e-23)
(1.22341 0.0728992 7.18673e-23)
(1.19711 0.0758004 6.76251e-23)
(1.16273 0.0780622 0)
(1.12057 0.0796693 5.67626e-23)
(1.07104 0.0806046 1.04202e-22)
(1.01462 0.0808602 4.34087e-23)
(0.951855 0.0804319 -3.60466e-23)
(0.883372 0.0793303 2.83613e-23)
(0.809897 0.0775722 2.04751e-23)
(0.73213 0.0751846 -1.25223e-23)
(0.650849 0.0722024 4.60398e-24)
(0.56684 0.068667 0)
(0.480936 0.0645973 -4.3798e-24)
(0.393934 0.0600111 0)
(0.306607 0.0550582 0)
(0.219736 0.0498469 0)
(0.133998 0.0444114 3.52179e-23)
(0.0500802 0.0388392 0)
(-0.0314746 0.0331206 -4.54042e-23)
(-0.110004 0.0273942 -4.17901e-23)
(-0.184932 0.0216854 0)
(-0.255953 0.0160444 0)
(-0.322714 0.0105219 0)
(-0.384931 0.00516752 0)
(-0.442392 1.97854e-05 0)
(-0.494934 -0.00488579 0)
(-0.542458 -0.00951819 0)
(-0.584934 -0.0138567 4.66208e-23)
(-0.622356 -0.0178841 0)
(-0.654763 -0.0215875 0)
(-0.682232 -0.0249513 0)
(-0.704866 -0.0279765 0)
(-0.722791 -0.0306651 0)
(-0.736155 -0.0330164 0)
(-0.745102 -0.0350266 3.06034e-23)
(-0.749828 -0.0367463 0)
(-0.750452 -0.0381838 -2.60867e-23)
(-0.747105 -0.039289 0)
(-0.740063 -0.040114 2.18683e-23)
(-0.729467 -0.0406692 0)
(-0.715484 -0.0409663 0)
(-0.698269 -0.0410205 0)
(-0.677968 -0.0408418 0)
(-0.654722 -0.0404493 -1.34632e-23)
(-0.628664 -0.0398373 0)
(-0.599915 -0.0390381 -1.0904e-23)
(-0.568585 -0.0380677 0)
(-0.534784 -0.036901 0)
(-0.498611 -0.0355547 0)
(-0.460137 -0.0340248 0)
(-0.419447 -0.0323378 0)
(-0.376614 -0.0305071 -5.27514e-24)
(-0.331699 -0.0285377 -4.53627e-24)
(-0.284785 -0.0264407 0)
(-0.235929 -0.024207 -3.15089e-24)
(-0.185176 -0.0218361 -2.58708e-24)
(-0.1326 -0.0193315 0)
(-0.0782926 -0.0167078 0)
(-0.0220599 -0.0139593 0)
(0.0357783 -0.011081 0)
(0.09506 -0.00810091 0)
(0.155807 -0.00500767 1.5496e-24)
(0.217842 -0.00181716 0)
(0.281051 0.00148901 3.1817e-24)
(0.345277 0.00486351 -3.91271e-24)
(0.410328 0.00833292 4.96614e-24)
(0.475985 0.011916 0)
(0.541999 0.0155527 0)
(0.608082 0.0191907 0)
(0.673896 0.0228412 8.86099e-24)
(0.739065 0.026509 9.83544e-24)
(0.803182 0.0301759 0)
(0.865798 0.0338198 -1.16848e-23)
(0.926427 0.03748 0)
(0.984558 0.0410344 0)
(1.03963 0.0444832 0)
(1.09105 0.047855 0)
(1.13828 0.0511052 0)
(1.1807 0.0541306 -1.4051e-23)
(1.21775 0.056899 1.35619e-23)
(1.24884 0.0593265 0)
(1.27345 0.0613513 0)
(1.29111 0.0629966 0)
(1.3014 0.0642503 -1.62014e-25)
(1.30399 0.0650706 0)
(1.29925 0.0654514 0)
(1.28621 0.0653819 0)
(1.26501 0.0647974 0)
(1.23591 0.0637144 0)
(1.19917 0.0621466 0)
(1.15527 0.0601192 0)
(1.10478 0.0576627 2.902e-24)
(1.04858 0.05482 0)
(0.987456 0.05165 -5.96134e-24)
(0.922541 0.048206 0)
(0.855127 0.0445851 0)
(0.785472 0.0408113 0)
(0.716797 0.0370683 -9.36602e-24)
(-0.838551 -0.104426 7.88392e-23)
(-0.784984 -0.104971 0)
(-0.728361 -0.105236 0)
(-0.668766 -0.105197 1.42811e-22)
(-0.606275 -0.104872 -7.03053e-23)
(-0.540978 -0.104234 -6.64356e-23)
(-0.472988 -0.103274 -6.21693e-23)
(-0.402453 -0.101997 5.74645e-23)
(-0.329503 -0.10036 0)
(-0.254302 -0.0983694 -4.65098e-23)
(-0.177068 -0.0959895 4.016e-23)
(-0.0980837 -0.0932441 2.73598e-23)
(-0.0170453 -0.0900702 -2.56934e-23)
(0.0650774 -0.08643 -1.8507e-23)
(0.14802 -0.0823714 1.29838e-23)
(0.231518 -0.0778609 -2.00005e-25)
(0.315105 -0.0728894 2.48338e-23)
(0.398378 -0.0674686 5.75504e-24)
(0.480866 -0.0615734 2.9959e-23)
(0.562068 -0.0552342 4.05609e-23)
(0.641455 -0.0484495 0)
(0.718476 -0.0412433 -6.19054e-23)
(0.792561 -0.0336498 1.49436e-22)
(0.863125 -0.0256981 8.24979e-23)
(0.929587 -0.0174362 4.03759e-24)
(0.991342 -0.00892322 2.05951e-22)
(1.04783 -0.000212772 1.09315e-22)
(1.0985 0.00862859 2.35898e-22)
(1.14283 0.0175267 2.38623e-24)
(1.18034 0.0264076 0)
(1.21058 0.0351794 1.30932e-22)
(1.23319 0.0437561 9.29233e-25)
(1.24787 0.0520073 1.31922e-22)
(1.25431 0.0598726 1.32384e-22)
(1.25278 0.0669736 0)
(1.24304 0.0738788 -1.25844e-22)
(1.22468 0.0803096 2.39738e-22)
(1.19802 0.0859733 1.13889e-22)
(1.16328 0.0908452 0)
(1.12076 0.0948883 1.89289e-22)
(1.07088 0.0980645 8.56393e-23)
(1.01411 0.100342 7.41993e-23)
(0.951013 0.101702 -6.20493e-23)
(0.882212 0.102136 4.6695e-24)
(0.808439 0.101652 4.97765e-24)
(0.730398 0.10027 -5.2409e-24)
(0.64887 0.0980315 5.45736e-24)
(0.564648 0.0949774 0)
(0.478558 0.0911879 1.96245e-23)
(0.391387 0.0867215 0)
(0.303924 0.0816252 0)
(0.216952 0.075981 5.11149e-23)
(0.131159 0.0698508 5.33771e-23)
(0.0472221 0.0633682 0)
(-0.0343163 0.0565478 5.45778e-24)
(-0.112791 0.0496034 0)
(-0.187645 0.0425664 0)
(-0.258571 0.0355195 8.29004e-23)
(-0.325218 0.0285382 0)
(-0.387306 0.0216938 0)
(-0.444627 0.0150461 8.34893e-23)
(-0.497021 0.00865004 0)
(-0.544392 0.00254782 0)
(-0.586712 -0.00322507 7.4266e-23)
(-0.623976 -0.00864585 7.38773e-23)
(-0.656225 -0.0136926 7.03572e-23)
(-0.683537 -0.0183533 0)
(-0.706018 -0.0226175 0)
(-0.723793 -0.0264836 0)
(-0.737006 -0.0299451 0)
(-0.745817 -0.0329964 5.03457e-23)
(-0.750423 -0.0356971 0)
(-0.750922 -0.038059 -1.11266e-25)
(-0.747462 -0.0399985 0)
(-0.740316 -0.0415949 3.72132e-23)
(-0.729625 -0.0428609 3.34755e-23)
(-0.715553 -0.0438086 0)
(-0.698257 -0.0444626 2.7839e-23)
(-0.677881 -0.044827 0)
(-0.65457 -0.0449185 -2.46807e-23)
(-0.628451 -0.0447698 0)
(-0.599651 -0.044364 -2.09115e-23)
(-0.568273 -0.0437266 1.70451e-23)
(-0.534423 -0.042877 0)
(-0.498198 -0.0418528 0)
(-0.459677 -0.0406457 1.24e-23)
(-0.418949 -0.039261 1.10674e-23)
(-0.376085 -0.0377005 -1.27426e-23)
(-0.331149 -0.035959 -1.16766e-23)
(-0.284219 -0.0340604 0)
(-0.235347 -0.0319924 -9.66425e-24)
(-0.18458 -0.0297775 -3.3667e-24)
(-0.131987 -0.0274242 0)
(-0.0776676 -0.0249254 0)
(-0.0214224 -0.0222791 0)
(0.0364194 -0.0194776 0)
(0.0957054 -0.0165534 -4.15567e-26)
(0.156453 -0.0134965 -2.50934e-24)
(0.218485 -0.0102982 0)
(0.281689 -0.0069863 -3.89878e-24)
(0.345904 -0.00351821 -1.54884e-24)
(0.410944 6.46556e-05 -3.91439e-24)
(0.476588 0.00372884 0)
(0.542577 0.00751755 0)
(0.60862 0.0114612 0)
(0.67439 0.0155208 9.81688e-24)
(0.739525 0.0196554 1.15793e-23)
(0.803615 0.0238288 1.68462e-23)
(0.866205 0.0280328 -1.50085e-23)
(0.926804 0.0321638 0)
(0.984885 0.0362969 0)
(1.03991 0.0403607 0)
(1.0913 0.0442206 -2.25946e-23)
(1.13847 0.0478493 0)
(1.18083 0.0512786 -2.12261e-23)
(1.21779 0.0544626 2.0944e-23)
(1.2488 0.0573955 -2.2308e-23)
(1.27334 0.0600735 0)
(1.29095 0.0623694 -1.9953e-23)
(1.30119 0.0641924 1.63628e-25)
(1.30374 0.065488 0)
(1.29896 0.066253 0)
(1.28588 0.0665775 -1.09865e-23)
(1.26466 0.0663408 0)
(1.23554 0.0655355 0)
(1.19879 0.0641772 0)
(1.15489 0.0622764 0)
(1.10442 0.0598645 2.74602e-25)
(1.04824 0.0569805 -6.24311e-24)
(0.987142 0.0537003 -4.62751e-24)
(0.922262 0.0500601 1.05533e-23)
(0.854877 0.0461921 -1.20903e-23)
(0.785244 0.0420851 1.32119e-23)
(0.716574 0.0380238 4.47644e-24)
(-0.838248 -0.129084 1.15423e-22)
(-0.784476 -0.130903 0)
(-0.727649 -0.132403 0)
(-0.667852 -0.133538 1.02419e-22)
(-0.605158 -0.134326 -9.23611e-23)
(-0.539659 -0.134726 8.67305e-23)
(-0.471467 -0.134751 0)
(-0.400721 -0.134349 -7.38061e-23)
(-0.327564 -0.133515 0)
(-0.252153 -0.132226 0)
(-0.1747 -0.13044 0)
(-0.0955025 -0.128157 4.54938e-23)
(-0.0142371 -0.125304 -2.89132e-23)
(0.0680968 -0.12186 1.83825e-23)
(0.151256 -0.117816 1.1982e-23)
(0.234964 -0.113162 -6.96716e-24)
(0.318757 -0.107864 -5.88322e-24)
(0.402224 -0.101911 6.31439e-23)
(0.484895 -0.095298 0)
(0.566265 -0.088022 0)
(0.645805 -0.080101 0)
(0.722954 -0.0715369 0)
(0.797141 -0.0623749 2.09764e-22)
(0.867776 -0.0526378 0)
(0.934283 -0.0423861 -4.04699e-24)
(0.996046 -0.0316764 2.88946e-22)
(1.05251 -0.0205927 0)
(1.10311 -0.00920091 1.64021e-22)
(1.14733 0.00238893 1.72458e-22)
(1.18468 0.0140817 0)
(1.21474 0.0257663 0)
(1.23711 0.0373375 1.86604e-22)
(1.25152 0.048675 0)
(1.25765 0.059634 0)
(1.2558 0.0696418 -1.82418e-22)
(1.24568 0.0795601 0)
(1.22692 0.0889588 1.69528e-22)
(1.19984 0.0974349 0)
(1.16467 0.104952 0)
(1.12171 0.11145 1.34579e-22)
(1.07138 0.116867 0)
(1.01417 0.121148 0)
(0.950644 0.124256 0)
(0.881431 0.126169 -6.80189e-23)
(0.807268 0.126887 -4.9603e-23)
(0.728864 0.126422 3.11051e-23)
(0.647005 0.124814 -1.28256e-23)
(0.562488 0.122108 1.05521e-23)
(0.476143 0.118371 2.19663e-23)
(0.388761 0.113674 0)
(0.301134 0.108126 0)
(0.214037 0.101831 6.54583e-23)
(0.128158 0.0948891 0)
(0.0441628 0.0874343 0)
(-0.0373876 0.0794581 -5.46518e-24)
(-0.11583 0.0712796 0)
(-0.19063 0.0628956 0)
(-0.261473 0.0544182 1.10464e-22)
(-0.328011 0.0459487 0)
(-0.389967 0.0375825 0)
(-0.447139 0.0293958 1.12303e-22)
(-0.499368 0.0214582 0)
(-0.546565 0.0138322 0)
(-0.588705 0.00656485 0)
(-0.625786 -0.000304008 1.0046e-22)
(-0.657852 -0.00674345 9.59818e-23)
(-0.684984 -0.0127302 0)
(-0.70729 -0.0182546 0)
(-0.724896 -0.0233079 0)
(-0.737951 -0.0278863 0)
(-0.746609 -0.0320145 0)
(-0.751061 -0.0357091 0)
(-0.751413 -0.0390009 6.09891e-23)
(-0.747824 -0.0417867 0)
(-0.740559 -0.0441643 5.14193e-23)
(-0.729755 -0.0461496 4.79874e-23)
(-0.715581 -0.0477582 0)
(-0.69819 -0.0490117 4.06388e-23)
(-0.677727 -0.0499273 0)
(-0.654333 -0.0505353 0)
(-0.628142 -0.0508288 0)
(-0.599274 -0.0508487 2.69381e-23)
(-0.567831 -0.0506199 2.66628e-23)
(-0.533925 -0.0501268 0)
(-0.497657 -0.0493792 0)
(-0.459104 -0.0483888 2.06987e-23)
(-0.418349 -0.0471783 1.89939e-23)
(-0.375461 -0.0457727 1.44728e-23)
(-0.330501 -0.04417 0)
(-0.283546 -0.0423963 0)
(-0.234652 -0.0404346 0)
(-0.183869 -0.0382987 1.16266e-23)
(-0.131261 -0.0359941 0)
(-0.0769303 -0.0335231 -5.22249e-24)
(-0.0206724 -0.0308902 0)
(0.0371767 -0.0280713 0)
(0.0964683 -0.0251054 4.46426e-24)
(0.157221 -0.0219752 0)
(0.219256 -0.018696 0)
(0.282462 -0.015244 -9.44559e-25)
(0.346677 -0.0116659 -6.87267e-24)
(0.411712 -0.00792812 -5.08313e-24)
(0.477345 -0.00400897 0)
(0.543329 3.6524e-05 0)
(0.609377 0.00415556 0)
(0.675154 0.00835975 0)
(0.740281 0.0126587 -2.05452e-23)
(0.804346 0.017057 1.93115e-23)
(0.866896 0.0214947 0)
(0.927447 0.0260411 0)
(0.985494 0.0305207 0)
(1.04047 0.0349414 0)
(1.09178 0.0393792 -2.8736e-23)
(1.13888 0.0437945 3.21152e-23)
(1.18119 0.0479984 -3.21418e-23)
(1.21812 0.0519553 0)
(1.2491 0.0555636 -3.01262e-23)
(1.2736 0.0586892 0)
(1.29114 0.0613581 -2.76901e-23)
(1.30131 0.0636152 -2.57221e-23)
(1.30379 0.0653815 0)
(1.29895 0.0666219 0)
(1.28583 0.0673241 -1.7197e-23)
(1.26457 0.0673581 0)
(1.23541 0.0667715 0)
(1.19864 0.0655391 0)
(1.15473 0.0637021 0)
(1.10424 0.0612921 4.31912e-24)
(1.04806 0.0583537 -4.23914e-24)
(0.986963 0.0549753 0)
(0.922092 0.0512095 9.73835e-24)
(0.854721 0.0472036 -1.16844e-23)
(0.785101 0.0429909 -4.42338e-24)
(0.716445 0.0387887 1.42991e-23)
(-0.838612 -0.154564 0)
(-0.784609 -0.157665 1.38055e-22)
(-0.727557 -0.160371 -1.32296e-22)
(-0.667528 -0.162677 1.26174e-22)
(-0.604603 -0.164559 -5.09034e-24)
(-0.538873 -0.165998 1.17635e-22)
(-0.470439 -0.166986 -1.04493e-22)
(-0.399446 -0.167475 -1.01394e-22)
(-0.326035 -0.167436 0)
(-0.250367 -0.166822 -7.57628e-23)
(-0.172648 -0.165644 0)
(-0.0931733 -0.163797 5.18574e-23)
(-0.0116187 -0.161279 -6.03043e-24)
(0.0709928 -0.158007 6.06294e-24)
(0.154442 -0.153989 8.48719e-24)
(0.238437 -0.149171 -1.0316e-23)
(0.322515 -0.143526 -1.96322e-23)
(0.40626 -0.137053 8.14104e-23)
(0.489203 -0.129697 -6.21861e-23)
(0.570828 -0.121484 -8.11051e-23)
(0.650604 -0.112397 0)
(0.727967 -0.102454 -1.19034e-22)
(0.802344 -0.0916966 1.32822e-22)
(0.873141 -0.0801516 0)
(0.939772 -0.0678847 4.06142e-24)
(1.00162 -0.0549683 1.84337e-22)
(1.05811 -0.0414907 0)
(1.10871 -0.0275466 0)
(1.15288 -0.0132557 0)
(1.19012 0.00127563 -2.3293e-22)
(1.22002 0.0158897 -2.38442e-22)
(1.2422 0.0304598 -2.4136e-22)
(1.25635 0.0448336 0)
(1.26215 0.0588468 0)
(1.25998 0.0717349 -6.47867e-25)
(1.24946 0.0846624 0)
(1.23026 0.0970173 -2.16491e-22)
(1.20273 0.108305 0)
(1.16706 0.118471 0)
(1.1236 0.127437 0)
(1.07275 0.135114 0)
(1.01502 0.141427 0)
(0.950983 0.146326 0)
(0.881267 0.149765 -8.23622e-23)
(0.806622 0.151735 0)
(0.727762 0.152242 0)
(0.64548 0.151331 0)
(0.560578 0.149046 1.95907e-23)
(0.473889 0.145473 0)
(0.386209 0.140683 0)
(0.298331 0.134813 7.41867e-23)
(0.211031 0.12796 0)
(0.125002 0.12026 0)
(0.0408845 0.111883 0)
(-0.0407262 0.1028 -1.25082e-22)
(-0.119169 0.0934157 1.37645e-22)
(-0.19395 0.0837143 0)
(-0.264734 0.0738436 1.47684e-22)
(-0.331181 0.0639225 0)
(-0.39302 0.0540695 0)
(-0.450052 0.0443811 0)
(-0.502124 0.0349498 0)
(-0.549151 0.0258516 1.42273e-22)
(-0.591111 0.0171457 0)
(-0.628006 0.00887568 0)
(-0.659882 0.00108304 0)
(-0.686824 -0.00620467 0)
(-0.708943 -0.012964 1.12284e-22)
(-0.726366 -0.0191893 0)
(-0.739246 -0.024864 9.49964e-23)
(-0.747734 -0.0299739 0)
(-0.752027 -0.0346412 0)
(-0.752219 -0.0388456 0)
(-0.74849 -0.0424585 7.18871e-23)
(-0.741092 -0.0456016 6.3694e-25)
(-0.730163 -0.0482953 0)
(-0.715873 -0.050553 5.54498e-23)
(-0.698375 -0.0524071 5.0661e-23)
(-0.677816 -0.0538683 4.62194e-23)
(-0.654336 -0.0549645 0)
(-0.628061 -0.0557278 0)
(-0.599118 -0.0561532 2.06321e-24)
(-0.567616 -0.0562697 0)
(-0.53366 -0.0561013 2.87481e-23)
(-0.497344 -0.055687 0)
(-0.458739 -0.0550253 0)
(-0.41793 -0.0541308 0)
(-0.374988 -0.0530053 2.19244e-23)
(-0.329979 -0.0516474 -1.69179e-23)
(-0.28298 -0.0500832 0)
(-0.234048 -0.0483045 0)
(-0.18323 -0.0463317 0)
(-0.130593 -0.0441706 9.17056e-24)
(-0.076231 -0.0418162 -1.07705e-23)
(-0.0199462 -0.0392756 0)
(0.0379223 -0.0365265 -3.8337e-24)
(0.097235 -0.0336097 0)
(0.158006 -0.0305127 0)
(0.220058 -0.0272189 -3.21935e-24)
(0.283275 -0.0237544 0)
(0.347498 -0.0200715 -4.37732e-24)
(0.412537 -0.0162086 0)
(0.478177 -0.0121929 1.38825e-23)
(0.544163 -0.00799014 -1.68354e-23)
(0.610196 -0.0035628 0)
(0.67594 0.00105978 0)
(0.741027 0.00583707 -2.22959e-23)
(0.805049 0.0107176 0)
(0.867559 0.0157243 0)
(0.928076 0.0207066 0)
(0.986072 0.0257852 0)
(1.041 0.0308698 0)
(1.0923 0.0357805 0)
(1.13938 0.0404167 3.84429e-23)
(1.18165 0.0448933 -3.88938e-23)
(1.21853 0.0491433 0)
(1.24943 0.0531398 0)
(1.27385 0.0569264 0)
(1.29132 0.0604136 0)
(1.30145 0.0633123 0)
(1.30389 0.0654673 0)
(1.29901 0.0669512 0)
(1.28583 0.0680632 0)
(1.26452 0.0685113 0)
(1.23532 0.0682164 0)
(1.19852 0.0672693 0)
(1.15458 0.0656177 0)
(1.10407 0.0633085 -3.38169e-24)
(1.04789 0.0603774 9.65861e-24)
(0.986786 0.0569406 0)
(0.921926 0.0530237 0)
(0.854573 0.0488122 0)
(0.784978 0.0442479 -1.74338e-23)
(0.716348 0.039734 0)
(-0.83972 -0.179644 0)
(-0.785465 -0.184012 1.73805e-22)
(-0.728154 -0.187959 -2.48212e-22)
(-0.667869 -0.191425 1.59824e-22)
(-0.604687 -0.194423 1.51995e-22)
(-0.538691 -0.19691 -6.9068e-23)
(-0.469979 -0.198873 -6.97259e-23)
(-0.398704 -0.200242 0)
(-0.324993 -0.201008 0)
(-0.249019 -0.201108 -9.93587e-23)
(-0.170982 -0.200508 0)
(-0.0911767 -0.199137 7.03064e-23)
(-0.00926454 -0.196934 5.37616e-23)
(0.0736815 -0.193856 -5.16936e-23)
(0.157498 -0.189849 1.71703e-23)
(0.241853 -0.184886 -3.24433e-24)
(0.326296 -0.178908 0)
(0.410405 -0.171887 4.69024e-23)
(0.493699 -0.163801 -6.98431e-23)
(0.575667 -0.154624 -9.32359e-23)
(0.65577 -0.144379 6.1044e-23)
(0.733442 -0.133051 -1.40256e-22)
(0.808094 -0.120691 0)
(0.879128 -0.107323 0)
(0.945957 -0.093027 3.11976e-22)
(1.00796 -0.0778865 0)
(1.06457 -0.0619982 -1.23698e-22)
(1.11522 -0.0454715 1.31302e-22)
(1.15938 -0.0284422 0)
(1.19656 -0.0110634 -2.83204e-22)
(1.22632 0.00650973 -1.44517e-22)
(1.2483 0.0241045 -2.94467e-22)
(1.2622 0.0415167 -1.47781e-22)
(1.2677 0.0585755 0)
(1.26518 0.0743345 2.88066e-22)
(1.25425 0.0902788 1.38762e-22)
(1.23458 0.105582 -2.66531e-22)
(1.20653 0.119667 -1.24364e-22)
(1.17032 0.132467 1.14776e-22)
(1.12628 0.143882 0)
(1.07484 0.153798 0)
(1.01651 0.162116 7.86254e-23)
(0.951874 0.168766 0)
(0.881568 0.173688 -1.55822e-22)
(0.80635 0.176865 0)
(0.726943 0.178298 2.08989e-23)
(0.644149 0.178031 0)
(0.558779 0.176107 9.78899e-24)
(0.471666 0.172629 0)
(0.383613 0.167669 -3.37971e-23)
(0.295421 0.161392 8.48554e-23)
(0.20786 0.153908 0)
(0.121632 0.145368 -6.51628e-23)
(0.0373538 0.135985 7.48549e-23)
(-0.0443513 0.12575 0)
(-0.12282 0.115075 1.62437e-22)
(-0.197599 0.103993 -8.77176e-23)
(-0.268336 0.0926649 1.75663e-22)
(-0.334698 0.0812365 9.14745e-23)
(-0.396418 0.0698491 -9.16477e-23)
(-0.453304 0.0586174 0)
(-0.505207 0.0476489 0)
(-0.552049 0.037033 1.70553e-22)
(-0.593812 0.0268421 -8.38809e-23)
(-0.630503 0.0171363 8.04632e-23)
(-0.662171 0.00796352 0)
(-0.688905 -0.000640414 0)
(-0.710818 -0.00865308 6.71446e-23)
(-0.728038 -0.0160622 0)
(-0.740718 -0.0228635 1.82228e-22)
(-0.749023 -0.0290259 -5.59128e-23)
(-0.753142 -0.0346807 0)
(-0.753156 -0.0398002 0)
(-0.749271 -0.0442495 4.43044e-23)
(-0.741724 -0.0481649 -8.13875e-23)
(-0.730659 -0.0515665 0)
(-0.716243 -0.0544752 6.89258e-23)
(-0.698629 -0.0569228 6.33154e-23)
(-0.677962 -0.0589281 2.98202e-23)
(-0.654383 -0.0605282 0)
(-0.628022 -0.0617255 2.35098e-23)
(-0.599 -0.0625651 -6.62687e-23)
(-0.567418 -0.0630773 0)
(-0.533385 -0.0632541 3.77482e-23)
(-0.496998 -0.0631179 -1.60357e-23)
(-0.458335 -0.0626739 1.4511e-23)
(-0.417479 -0.0619589 0)
(-0.374497 -0.0609869 0)
(-0.329455 -0.0597687 -3.45442e-23)
(-0.282425 -0.0583336 0)
(-0.233462 -0.056657 8.11729e-24)
(-0.182617 -0.0547636 0)
(-0.129951 -0.0526574 9.26047e-24)
(-0.0755711 -0.0503348 0)
(-0.0192646 -0.0478095 0)
(0.0386214 -0.0450541 -1.12232e-23)
(0.0979488 -0.0421021 1.05537e-24)
(0.158733 -0.0389382 0)
(0.220794 -0.0355741 2.11546e-24)
(0.284021 -0.0319828 0)
(0.348252 -0.0281977 0)
(0.4133 -0.0241943 -6.53322e-24)
(0.47894 -0.0199483 1.26573e-23)
(0.544914 -0.0154932 -6.22334e-24)
(0.610936 -0.0108784 0)
(0.67668 -0.00609596 0)
(0.741774 -0.00113976 0)
(0.805801 0.00399296 0)
(0.868312 0.00921956 0)
(0.928807 0.0146458 2.06996e-23)
(0.986787 0.0200623 0)
(1.04171 0.0254671 -2.32409e-23)
(1.09295 0.0309132 0)
(1.13995 0.036447 2.48636e-23)
(1.18212 0.0418425 0)
(1.2189 0.0470031 0)
(1.24973 0.0518277 0)
(1.27411 0.0561077 0)
(1.29156 0.0596477 0)
(1.30163 0.0628221 0)
(1.304 0.0656599 1.7573e-23)
(1.29906 0.0678578 0)
(1.28583 0.0693537 -1.23382e-23)
(1.26449 0.0699584 0)
(1.23525 0.0698225 6.3652e-24)
(1.19842 0.0688787 0)
(1.15445 0.0672421 0)
(1.10393 0.0649235 -5.29524e-24)
(1.04775 0.0619351 7.71547e-24)
(0.986655 0.0583828 0)
(0.921804 0.0542945 0)
(0.854462 0.0498664 -1.19199e-23)
(0.784879 0.0452149 0)
(0.716273 0.0405639 1.40034e-23)
(-0.841508 -0.205234 0)
(-0.786976 -0.210876 -1.0033e-22)
(-0.729386 -0.216043 -1.94859e-22)
(-0.66882 -0.220673 0)
(-0.605346 -0.224786 -8.71931e-23)
(-0.539051 -0.228312 -1.66748e-22)
(-0.470027 -0.231238 7.91415e-23)
(-0.398428 -0.23351 -7.01759e-23)
(-0.324377 -0.235081 -6.33045e-23)
(-0.248049 -0.235877 0)
(-0.169645 -0.235863 -4.74484e-23)
(-0.0894448 -0.234948 -3.84851e-23)
(-0.0071195 -0.233102 -2.87034e-23)
(0.0762431 -0.230191 -2.14051e-23)
(0.160494 -0.226211 -6.94857e-24)
(0.24529 -0.221084 5.10936e-24)
(0.330178 -0.214754 0)
(0.414732 -0.207196 3.08856e-23)
(0.49847 -0.198359 4.44118e-23)
(0.580872 -0.188232 0)
(0.661393 -0.176802 1.41438e-22)
(0.739455 -0.164071 8.58232e-23)
(0.814467 -0.150087 0)
(0.885831 -0.134881 1.12325e-22)
(0.952951 -0.118538 2.47265e-22)
(1.01518 -0.101134 0)
(1.07197 -0.0828092 1.65474e-24)
(1.12273 -0.0636803 3.09516e-22)
(1.16693 -0.0438911 0)
(1.20409 -0.023629 1.68834e-22)
(1.23376 -0.00308014 3.44944e-22)
(1.25558 0.0175569 0)
(1.26923 0.0380811 1.89727e-25)
(1.2744 0.0582296 1.73374e-22)
(1.27153 0.0768784 1.70171e-22)
(1.26015 0.0958753 1.64948e-22)
(1.23997 0.114147 1.56753e-22)
(1.21137 0.13105 -1.48268e-22)
(1.17455 0.146501 2.72872e-22)
(1.12987 0.160374 1.22765e-22)
(1.07777 0.172538 1.08393e-22)
(1.01877 0.182865 9.48985e-23)
(0.953444 0.191277 7.64327e-23)
(0.882459 0.197695 -2.40132e-24)
(0.80658 0.20209 0)
(0.726538 0.204457 5.16101e-23)
(0.643144 0.204845 7.24706e-24)
(0.557219 0.203301 0)
(0.4696 0.199936 -2.53486e-23)
(0.381095 0.194835 -7.7523e-23)
(0.292514 0.18818 0)
(0.204622 0.180099 -6.62511e-23)
(0.118132 0.170763 -1.51814e-22)
(0.0336412 0.160399 8.5191e-23)
(-0.0482059 0.149065 -9.18364e-23)
(-0.126742 0.13714 -9.91867e-23)
(-0.20155 0.124714 -1.01279e-22)
(-0.272265 0.111971 -1.06702e-22)
(-0.338559 0.0990736 -2.2225e-24)
(-0.400173 0.0861853 -1.06275e-22)
(-0.456921 0.0734385 -1.07355e-22)
(-0.50866 0.0609603 -1.05378e-22)
(-0.555317 0.0488596 -1.02566e-22)
(-0.596878 0.0372177 -9.7684e-23)
(-0.633356 0.0261029 -1.19909e-24)
(-0.664806 0.01557 -9.05458e-23)
(-0.69132 0.0056653 0)
(-0.713013 -0.00358251 -1.61091e-22)
(-0.73002 -0.0121612 -7.59756e-23)
(-0.742494 -0.0200427 7.21847e-23)
(-0.750594 -0.0272301 -1.31962e-22)
(-0.754515 -0.0338725 -6.08334e-23)
(-0.754333 -0.0398965 0)
(-0.75028 -0.0451712 -1.03906e-22)
(-0.742573 -0.049849 -4.76845e-23)
(-0.73136 -0.053956 0)
(-0.716805 -0.0575114 -4.00737e-23)
(-0.699063 -0.060553 -3.66455e-23)
(-0.678279 -0.0630996 -3.42318e-23)
(-0.654593 -0.0651878 -3.05347e-23)
(-0.628132 -0.0668484 9.5062e-25)
(-0.599018 -0.0680933 -2.63893e-23)
(-0.567356 -0.0689554 -2.30783e-23)
(-0.533257 -0.0694579 -2.09783e-23)
(-0.496811 -0.0696428 -3.93578e-23)
(-0.458091 -0.069517 1.85904e-23)
(-0.417178 -0.0690977 -1.55818e-23)
(-0.374141 -0.0683941 -1.40133e-23)
(-0.329047 -0.0674112 -1.4059e-23)
(-0.28197 -0.0661767 -1.11147e-23)
(-0.232967 -0.064672 1.63791e-24)
(-0.182086 -0.0629294 0)
(-0.129391 -0.060957 -1.57302e-23)
(-0.0749773 -0.0587435 -5.61249e-24)
(-0.0186415 -0.0562921 0)
(0.0392669 -0.0535904 -8.00849e-24)
(0.0986176 -0.0506711 1.89285e-24)
(0.159423 -0.0475194 0)
(0.221505 -0.044117 1.88057e-24)
(0.284751 -0.0404827 3.69222e-24)
(0.349 -0.0365829 0)
(0.414059 -0.0324338 1.96123e-24)
(0.479709 -0.0280577 9.61352e-24)
(0.5457 -0.0234308 9.81877e-24)
(0.611736 -0.0185211 1.39422e-23)
(0.677479 -0.0133505 1.61498e-23)
(0.74256 -0.00795285 1.83397e-23)
(0.80657 -0.00238006 2.04625e-23)
(0.869049 0.00340616 2.248e-23)
(0.929525 0.00925351 4.70839e-23)
(0.987476 0.0152607 0)
(1.04232 0.0213325 1.34379e-24)
(1.0935 0.0273368 2.84387e-23)
(1.14048 0.0331381 2.81556e-23)
(1.18264 0.0387325 2.92874e-23)
(1.21941 0.0440918 2.8512e-23)
(1.25025 0.0490925 0)
(1.27457 0.0538586 2.72876e-23)
(1.29187 0.0585905 2.57497e-23)
(1.30183 0.0625494 0)
(1.30416 0.0654906 4.1924e-23)
(1.29919 0.0676277 1.78308e-23)
(1.2859 0.0694294 -1.53198e-23)
(1.26449 0.0705893 1.13313e-23)
(1.2352 0.0709451 1.66007e-23)
(1.19833 0.07047 4.16885e-24)
(1.15434 0.0690676 3.11805e-25)
(1.1038 0.0667731 -4.86566e-24)
(1.0476 0.0637341 0)
(0.9865 0.0601016 -9.48726e-24)
(0.921652 0.0558979 -1.19627e-23)
(0.85432 0.0513658 -2.56511e-23)
(0.784765 0.0463412 0)
(0.716181 0.0413158 -2.23911e-24)
(-0.844024 -0.230751 1.20486e-22)
(-0.78919 -0.237675 -2.2679e-24)
(-0.731295 -0.244065 -2.37581e-24)
(-0.670421 -0.24986 0)
(-0.606629 -0.255087 -2.57571e-24)
(-0.54 -0.259672 -1.92948e-22)
(-0.470635 -0.263582 8.86642e-23)
(-0.39867 -0.26675 -2.82627e-24)
(-0.324238 -0.269123 -1.50068e-22)
(-0.247508 -0.270633 0)
(-0.168679 -0.271235 -2.99686e-24)
(-0.0880277 -0.27078 -3.03005e-24)
(-0.00523107 -0.269279 -3.06182e-24)
(0.078619 -0.266554 2.1621e-23)
(0.163377 -0.262602 -3.06956e-24)
(0.248692 -0.257318 2.43918e-24)
(0.334107 -0.250649 2.01185e-23)
(0.419193 -0.242552 -2.95083e-24)
(0.503464 -0.232958 -2.8781e-24)
(0.586388 -0.221864 -6.69862e-23)
(0.667415 -0.209242 -2.67879e-24)
(0.74596 -0.195102 1.95531e-22)
(0.821428 -0.179479 -1.14687e-22)
(0.893206 -0.162417 -2.24556e-24)
(0.960686 -0.143993 -2.06763e-24)
(1.02323 -0.124324 -1.57362e-22)
(1.08026 -0.103538 1.67686e-22)
(1.13119 -0.0817566 3.58206e-22)
(1.1755 -0.0591993 -1.88544e-22)
(1.21267 -0.0360226 -9.62085e-25)
(1.24228 -0.0124572 3.99108e-22)
(1.26394 0.0112799 -2.02228e-22)
(1.27735 0.034901 2.02066e-22)
(1.2822 0.0581715 8.68711e-26)
(1.27897 0.0797167 1.97211e-22)
(1.26711 0.101823 -1.90111e-22)
(1.24638 0.123093 8.7566e-25)
(1.21716 0.142831 -1.70025e-22)
(1.17967 0.16095 3.14962e-22)
(1.13429 0.1773 1.62397e-24)
(1.08144 0.191716 1.84926e-24)
(1.02167 0.204057 1.07062e-22)
(0.955569 0.214225 2.25163e-24)
(0.883814 0.22212 7.06814e-23)
(0.807179 0.227708 -4.80819e-23)
(0.726408 0.230984 5.84533e-23)
(0.64232 0.231989 2.80996e-24)
(0.555751 0.230781 -1.13339e-23)
(0.467542 0.227475 2.94182e-24)
(0.378512 0.222176 -9.08164e-23)
(0.289475 0.215082 6.2662e-23)
(0.201192 0.206329 2.94832e-24)
(0.114388 0.19614 -1.76349e-22)
(0.0296454 0.184718 1.01252e-22)
(-0.0523751 0.172213 2.74897e-24)
(-0.131008 0.158969 -1.12151e-22)
(-0.20586 0.145132 -1.20016e-22)
(-0.276562 0.130907 2.37197e-24)