/*--------------------------------*- C++ -*----------------------------------*\
| =========                 |                                                 |
| \\      /  F ield         | OpenFOAM: The Open Source CFD Toolbox           |
|  \\    /   O peration     | Version:  v1912                                 |
|   \\  /    A nd           | Website:  www.openfoam.com                      |
|    \\/     M anipulation  |                                                 |
\*---------------------------------------------------------------------------*/
FoamFile
{
    version     2.0;
    format      ascii;
    class       surfaceScalarField;
    location    "70";
    object      phi;
}
// * * * * * * * * * * * * * * * * * * * * * * * * * * * * * * * * * * * * * //

dimensions      [0 3 -1 0 0 0 0];
oriented        oriented;


internalField   nonuniform List<scalar> 
28285
(
0.0742753
-0.0168504
0.0892072
-0.0149319
0.101634
-0.0124265
0.111021
-0.00938717
0.116993
-0.00597236
0.119411
-0.00241823
0.11827
0.00114114
0.114087
0.00418332
0.107286
0.00680099
0.0984985
0.00878755
0.088398
0.0101005
0.0776233
0.0107746
0.0667126
0.0109107
0.056054
0.0106586
0.0458608
0.0101932
0.036173
0.00968779
0.0268822
0.00929081
0.017774
0.00910818
0.00857748
0.00919655
-0.000974785
0.00955226
-0.0111196
0.0101448
-0.0219829
0.0108633
-0.0336329
0.0116499
-0.0460289
0.012396
-0.0590369
0.013008
-0.0724432
0.0134062
-0.0859672
0.0135241
-0.0992718
0.0133046
-0.111968
0.0126967
-0.123621
0.0116521
-0.133746
0.0101251
-0.141807
0.0080609
-0.147125
0.00531859
-0.149069
0.00194394
-0.146992
-0.00207744
-0.140782
-0.00621007
-0.130281
-0.0105008
-0.115553
-0.0147283
-0.0969119
-0.0186407
-0.074936
-0.0219758
-0.0504366
-0.0244994
-0.0244149
-0.0260217
0.00199776
-0.0264127
0.0277724
-0.0257746
0.0518245
-0.0240521
0.0733072
-0.0214827
0.0916175
-0.0183103
0.106429
-0.0148115
0.117694
-0.0112646
0.125602
-0.00790876
0.130522
-0.0049192
0.132919
-0.00239749
0.133301
-0.000381917
0.131934
0.00136717
0.129421
0.00251283
0.125833
0.00358777
0.12117
0.00466325
0.115309
0.00586124
0.108068
0.00724043
0.099284
0.00878425
0.088874
0.01041
0.0768859
0.0119881
0.0635203
0.0133656
0.0491335
0.0143868
0.0342219
0.0149116
0.019376
0.0148459
0.00517553
0.0142005
-0.00794031
0.0131158
-0.0195444
0.0116041
-0.0293555
0.00981112
-0.0373162
0.00796068
-0.043566
0.00624976
-0.0484065
0.00484056
-0.0522523
0.00384576
-0.0556216
0.00336933
-0.0590026
0.00338095
-0.0627733
0.00377072
-0.0671739
0.00440061
-0.0722829
0.00510896
-0.0780107
0.00572784
-0.0841109
0.00610024
-0.0901933
0.00608231
-0.0957596
0.00556636
-0.100365
0.00460494
-0.103602
0.00323763
-0.105179
0.00157713
-0.104744
-0.000434941
-0.102212
-0.00253217
-0.0975493
-0.00466288
-0.0908145
-0.00673486
-0.0821433
-0.00867112
-0.0717341
-0.0104092
-0.0598404
-0.0118937
-0.0467631
-0.0130774
-0.0328481
-0.0139149
-0.0184855
-0.0143626
-0.00410848
-0.014377
0.00988158
-0.0139901
0.0230754
-0.0131938
0.0351066
-0.0120312
0.0456961
-0.0105895
0.0546873
-0.0089912
0.0620667
-0.00737944
0.0679729
-0.00590611
0.0726746
-0.00470175
0.0765284
-0.00385382
0.0799905
-0.00346202
0.0834979
-0.00350747
0.0873566
-0.00385864
0.0917036
-0.00434705
0.0964623
-0.00475872
0.101299
-0.00483692
0.10571
-0.00441072
0.109102
-0.00339178
0.110822
-0.00172024
0.110185
0.000637364
0.106857
0.00332714
0.10052
0.00633704
0.0911803
0.0093401
0.0791073
0.012073
0.0647992
0.0143081
0.0489199
0.0158793
0.0322064
0.0167135
0.0153871
0.0168193
-0.000961221
0.0163484
-0.0164811
0.0155198
-0.0308646
0.0143835
-0.0440611
0.0131965
-0.0561649
0.0121038
-0.0673507
0.0111858
-0.0778025
0.0104518
-0.0876489
0.0098464
-0.0968937
0.00924483
-0.105385
0.00849086
-0.112842
0.00745794
-0.118868
0.00602532
-0.123001
0.00413356
-0.124827
0.00182558
-0.123711
-0.001116
-0.119562
-0.00414932
-0.112256
-0.00730562
-0.101945
-0.0103108
-0.0890565
-0.0128887
-0.0741809
-0.0148756
-0.0579595
-0.0162214
-0.0410982
-0.0168614
-0.024181
-0.0169172
-0.0076788
-0.0165022
0.00806639
-0.0157452
0.0228803
-0.0148139
0.0365978
-0.0137175
0.0491114
-0.0125136
0.0603384
-0.011227
0.0701716
-0.00983315
0.0784384
-0.00826683
0.0849707
-0.00653231
0.0897002
-0.00472946
0.0924703
-0.0027701
0.0931549
-0.000684574
0.0917995
0.0013554
0.0883405
0.00345892
0.0828242
0.00551638
0.0754327
0.00739144
0.0090253
0.0744005
-0.0335592
0.0891866
-0.029718
0.101452
-0.0246916
0.110708
-0.0186434
0.116622
-0.0118866
0.119044
-0.00484016
0.118026
0.00215905
0.113935
0.00827404
0.107204
0.0135325
0.0984544
0.0175371
0.0883636
0.0201913
0.0775819
0.0215564
0.0666603
0.0218323
0.0559968
0.0213221
0.0458099
0.0203801
0.0361396
0.0193581
0.0268738
0.0185567
0.0177923
0.0181896
0.00862414
0.0183647
-0.000896151
0.0190726
-0.011024
0.0202726
-0.0218814
0.0217207
-0.0335371
0.0233057
-0.045946
0.024805
-0.0589693
0.0260312
-0.0723879
0.0268249
-0.0859156
0.0270518
-0.0992071
0.0265961
-0.111862
0.0253514
-0.123426
0.0232168
-0.133407
0.0201057
-0.14146
0.0161137
-0.146955
0.0108136
-0.148916
0.00390536
-0.146984
-0.00401014
-0.140893
-0.0123011
-0.130471
-0.0209228
-0.115784
-0.0294153
-0.0971474
-0.0372768
-0.0751424
-0.0439809
-0.0505817
-0.0490601
-0.02447
-0.0521334
0.00206956
-0.0529522
0.0279198
-0.0516249
0.0520345
-0.0481668
0.0735493
-0.0429975
0.0918555
-0.0366165
0.106622
-0.029578
0.117796
-0.0224385
0.125556
-0.0156692
0.130283
-0.0096457
0.13253
-0.00464434
0.132872
-0.000723939
0.131555
0.002684
0.129079
0.00498906
0.125514
0.00715188
0.120861
0.00931645
0.115016
0.0117069
0.107815
0.0144414
0.0990949
0.0175039
0.0887575
0.0207474
0.0768278
0.0239178
0.0634964
0.026697
0.0491246
0.0287586
0.0342073
0.0298289
0.0193153
0.029738
0.00504039
0.0284754
-0.00812336
0.0262796
-0.0197365
0.0232173
-0.0295326
0.0196072
-0.0374537
0.0158818
-0.0436439
0.0124399
-0.0484166
0.00961332
-0.0522314
0.00766048
-0.0555842
0.0067222
-0.0589412
0.00673787
-0.0626881
0.00751768
-0.0670728
0.00878529
-0.0721722
0.0102083
-0.0778895
0.0114452
-0.0839688
0.0121795
-0.0900453
0.0121589
-0.0956841
0.0112052
-0.100377
0.00929765
-0.103692
0.00655301
-0.105329
0.00321419
-0.104911
-0.000853288
-0.102394
-0.00504891
-0.0977386
-0.0093185
-0.0910026
-0.0134708
-0.0823227
-0.0173511
-0.0718968
-0.0208351
-0.0599791
-0.0238113
-0.046871
-0.0261854
-0.0329197
-0.0278662
-0.018513
-0.0287694
-0.00406513
-0.0288249
0.00997062
-0.0280258
0.0232021
-0.0264254
0.0352593
-0.0240883
0.0458588
-0.021189
0.0548404
-0.0179728
0.0621895
-0.0147285
0.0680464
-0.0117629
0.0726849
-0.00934028
0.0764954
-0.00766434
0.0799352
-0.00690177
0.0834154
-0.00698768
0.0872508
-0.00769401
0.0915859
-0.00868217
0.0963534
-0.00952624
0.101252
-0.0097359
0.105758
-0.00891613
0.109251
-0.00688508
0.111063
-0.00353256
0.110484
0.00121692
0.107197
0.00661416
0.100869
0.0126651
0.0915044
0.0187044
0.0793804
0.024197
0.0650047
0.0286839
0.0490546
0.0318294
0.0322774
0.0334907
0.0153926
0.0337041
-0.00104648
0.0327874
-0.0165773
0.0310507
-0.030954
0.0287602
-0.0441235
0.0263661
-0.056185
0.0241652
-0.0673195
0.0223203
-0.0777339
0.0208662
-0.0875719
0.0196844
-0.0968449
0.0185178
-0.105404
0.0170503
-0.112951
0.0150048
-0.119087
0.0121606
-0.123305
0.00835237
-0.125186
0.00370661
-0.124127
-0.00217519
-0.120005
-0.00827129
-0.112685
-0.0146254
-0.102318
-0.0206787
-0.0893466
-0.0258598
-0.0743792
-0.0298429
-0.0580667
-0.0325338
-0.0411286
-0.0337995
-0.0241503
-0.0338955
-0.00760215
-0.0330503
0.00817144
-0.0315188
0.0230033
-0.0296457
0.0367316
-0.0274459
0.0492524
-0.0250344
0.0604832
-0.0224578
0.0702973
-0.0196473
0.0785344
-0.0165039
0.0851297
-0.0131276
0.0899055
-0.00950531
0.0927058
-0.00557033
0.0934125
-0.00139129
0.0920717
0.00269622
0.088623
0.00690761
0.0831017
0.0110377
0.0756916
0.0148015
0.0180833
0.0749184
-0.0503723
0.0898206
-0.0446202
0.102195
-0.0370659
0.111528
-0.0279769
0.117467
-0.0178249
0.119858
-0.00723149
0.118748
0.00326867
0.114533
0.0124898
0.107649
0.0204166
0.0987383
0.0264474
0.0884951
0.0304344
0.0775851
0.0324664
0.066572
0.0328454
0.055861
0.0320331
0.0456709
0.0305701
0.0360357
0.0289933
0.0268315
0.0277609
0.0178233
0.0271978
0.00872476
0.0274633
-0.000745854
0.0285432
-0.0108188
0.0303456
-0.0216572
0.0325591
-0.0333243
0.0349728
-0.0457686
0.0372493
-0.0588455
0.0391082
-0.0723312
0.0403106
-0.0859356
0.0406562
-0.0993115
0.039972
-0.112058
0.038098
-0.123724
0.0348823
-0.133814
0.0301962
-0.141987
0.0242865
-0.147355
0.0161817
-0.14937
0.00591973
-0.147569
-0.00581115
-0.141692
-0.018178
-0.131394
-0.0312204
-0.116711
-0.0440981
-0.0979852
-0.0560028
-0.0758107
-0.0661553
-0.0510105
-0.0738603
-0.0246092
-0.0785347
0.00224944
-0.0798109
0.0283646
-0.07774
0.0526934
-0.0724956
0.0743459
-0.06465
0.0926976
-0.0549682
0.107401
-0.0442817
0.118406
-0.0334434
0.12597
-0.0232326
0.130587
-0.0142631
0.13277
-0.00682727
0.133029
-0.000982714
0.131717
0.00399544
0.129225
0.00748176
0.125678
0.010699
0.121072
0.0139222
0.115286
0.0174929
0.108136
0.0215917
0.0994416
0.0261979
0.0890986
0.0310905
0.0771318
0.0358845
0.0637295
0.0400993
0.0492489
0.0432391
0.0341913
0.0448865
0.019148
0.0447813
0.00473085
0.0428925
-0.00855295
0.0395634
-0.0202272
0.0348915
-0.0300263
0.0294063
-0.0378931
0.0237485
-0.0439817
0.0185285
-0.0486314
0.0142631
-0.0523247
0.0113538
-0.0555581
0.00995557
-0.0588155
0.00999531
-0.0624966
0.0111987
-0.0668569
0.0131456
-0.0719751
0.0153265
-0.077747
0.017217
-0.083908
0.0183406
-0.0900812
0.018332
-0.0958397
0.0169637
-0.100687
0.0141452
-0.104133
0.00999851
-0.105827
0.00490825
-0.105453
-0.00122679
-0.102955
-0.00754702
-0.0982931
-0.0139806
-0.0915291
-0.0202348
-0.0828026
-0.0260775
-0.0723131
-0.0313247
-0.0603159
-0.0358086
-0.0471132
-0.0393881
-0.033054
-0.0419254
-0.0185285
-0.0432949
-0.00395299
-0.0434004
0.0101967
-0.0421755
0.0235283
-0.039757
0.03566
-0.03622
0.0462984
-0.0318274
0.0552755
-0.0269499
0.0625744
-0.0220274
0.0683384
-0.0175269
0.0728532
-0.0138552
0.0765498
-0.0113609
0.0798832
-0.0102352
0.0832824
-0.0103869
0.0870795
-0.0114911
0.0914341
-0.0130368
0.0962887
-0.0143808
0.101332
-0.0147789
0.106021
-0.0136052
0.109712
-0.0105766
0.111703
-0.00552348
0.111261
0.00165893
0.108042
0.00983372
0.101717
0.0189895
0.0922782
0.0281434
0.0800134
0.0364618
0.0654522
0.0432451
0.0492993
0.0479823
0.0323308
0.0504592
0.0152872
0.0507477
-0.00127155
0.0493462
-0.0168716
0.0466507
-0.0312562
0.0431447
-0.044387
0.0394969
-0.0563762
0.0361545
-0.0674411
0.0333851
-0.0778143
0.0312395
-0.0876457
0.0295158
-0.0969586
0.0278307
-0.105627
0.0257191
-0.113344
0.0227216
-0.119641
0.0184576
-0.123995
0.0127063
-0.126008
0.00572009
-0.125032
-0.00315181
-0.120935
-0.0123683
-0.113564
-0.0219959
-0.103071
-0.0311717
-0.0899264
-0.0390047
-0.0747601
-0.0450093
-0.0582557
-0.0490383
-0.0411533
-0.050902
-0.0240441
-0.0510047
-0.00739924
-0.0496951
0.00843987
-0.0473579
0.023314
-0.0445199
0.0370729
-0.0412048
0.0496179
-0.0375794
0.0608707
-0.0337106
0.0706954
-0.029472
0.0789817
-0.0247901
0.0856321
-0.019778
0.0904583
-0.0143316
0.0932974
-0.00840939
0.0940228
-0.00211675
0.0926824
0.00403666
0.0892178
0.0103722
0.0836522
0.0166032
0.0761738
0.0222799
0.0272281
0.0757327
-0.0674174
0.0908635
-0.0597509
0.103434
-0.0496364
0.112902
-0.0374452
0.118892
-0.0238143
0.121243
-0.00958273
0.119998
0.00451327
0.115578
0.0169106
0.108437
0.0275575
0.0992506
0.0356334
0.0887453
0.0409398
0.077615
0.0435966
0.0664448
0.0440156
0.0556506
0.0428273
0.0454508
0.0407699
0.0358682
0.0385759
0.0267602
0.0368689
0.017869
0.036089
0.00887965
0.0364526
-0.000526613
0.0379494
-0.010504
0.040323
-0.0213136
0.0433686
-0.0329995
0.0466587
-0.0455009
0.0497508
-0.0586661
0.0522733
-0.0722648
0.0539093
-0.0860026
0.0543941
-0.0995307
0.0535
-0.112448
0.0510156
-0.124304
0.0467383
-0.134613
0.0405047
-0.142995
0.0326691
-0.148563
0.0217495
-0.150764
0.00812071
-0.149066
-0.00750956
-0.143203
-0.0240407
-0.132953
-0.0414706
-0.118244
-0.0588065
-0.0993587
-0.0748886
-0.0768975
-0.0886165
-0.0516964
-0.0990615
-0.0248217
-0.105409
0.00253134
-0.107164
0.0290743
-0.104283
0.0537434
-0.0971647
0.0756118
-0.0865184
0.0940331
-0.0733895
0.10867
-0.0589185
0.119564
-0.044337
0.127018
-0.0306873
0.131466
-0.0187105
0.133446
-0.00880748
0.133523
-0.00105979
0.132121
0.00539757
0.129576
0.0100269
0.12604
0.0142349
0.121495
0.0184664
0.115796
0.0231926
0.108727
0.0286609
0.10008
0.034844
0.0897305
0.0414404
0.0776904
0.0479247
0.0641475
0.0536422
0.0494691
0.0579175
0.0341754
0.0601802
0.0188884
0.0600682
0.00425741
0.0575236
-0.00921395
0.0530348
-0.0209897
0.0466672
-0.0308012
0.0392179
-0.0385936
0.0315409
-0.0445372
0.0244721
-0.0490099
0.0187357
-0.0524988
0.0148428
-0.0555345
0.0129912
-0.0586305
0.0130913
-0.0622074
0.0147756
-0.0665325
0.0174708
-0.0716861
0.0204801
-0.0775555
0.0230864
-0.0838602
0.0246452
-0.0902011
0.0246729
-0.0961516
0.0229142
-0.101213
0.0192068
-0.104817
0.0136026
-0.106609
0.00669993
-0.106302
-0.00153396
-0.103828
-0.0100208
-0.0991519
-0.0186567
-0.0923414
-0.0270453
-0.0835402
-0.0348787
-0.0729501
-0.0419148
-0.0608281
-0.0479306
-0.0474781
-0.0527381
-0.033252
-0.0561515
-0.0185453
-0.0580016
-0.00378089
-0.0581648
0.0105438
-0.0565002
0.0240299
-0.053243
0.0362778
-0.048468
0.0469783
-0.0425278
0.0559515
-0.0359232
0.0631778
-0.0292537
0.0688068
-0.0231559
0.0731502
-0.0181986
0.0766614
-0.0148721
0.0798202
-0.0133941
0.0830893
-0.013656
0.0868266
-0.0152284
0.0912132
-0.0174233
0.0962048
-0.0193725
0.101465
-0.0200391
0.106429
-0.0185689
0.110412
-0.0145603
0.112668
-0.00777904
0.112443
0.0018837
0.109319
0.0129582
0.102999
0.0253089
0.0934457
0.0376971
0.0809657
0.0489419
0.0661209
0.0580899
0.0496571
0.0644461
0.032394
0.0677223
0.0151098
0.0680319
-0.00161764
0.0660736
-0.0173196
0.0623527
-0.0317144
0.0575395
-0.0447801
0.0525626
-0.0566743
0.0480487
-0.0676565
0.0443673
-0.0779694
0.0415524
-0.0877826
0.0393289
-0.0971379
0.0371861
-0.105943
0.0345239
-0.113925
0.0307036
-0.120446
0.0249785
-0.125012
0.017273
-0.127227
0.00793469
-0.126393
-0.00398531
-0.122339
-0.0164231
-0.114891
-0.0294437
-0.104198
-0.0418646
-0.0907865
-0.0524161
-0.0753176
-0.0604781
-0.0585268
-0.0658291
-0.0411795
-0.0682492
-0.0238776
-0.0683066
-0.00709319
-0.0664795
0.00884013
-0.0632912
0.0237742
-0.0594539
0.0375744
-0.055005
0.0501504
-0.0501554
0.0614246
-0.0449848
0.0712782
-0.0393256
0.0796453
-0.0331572
0.0863685
-0.0265012
0.091266
-0.0192291
0.0941625
-0.0113059
0.0949236
-0.00287782
0.0935886
0.0053717
0.0901074
0.0138534
0.0844849
0.0222257
0.0769134
0.0298514
0.0364978
0.0768291
-0.0848038
0.0922896
-0.0752115
0.10514
-0.0624866
0.1148
-0.0471056
0.120866
-0.0298797
0.123164
-0.0118811
0.121742
0.00593502
0.117038
0.0216152
0.10954
0.0350546
0.0999704
0.0452034
0.0890985
0.0518118
0.0776601
0.055035
0.0662699
0.0554058
0.0553592
0.053738
0.0451454
0.0509837
0.0356358
0.0480856
0.0266613
0.0458434
0.0179365
0.0448137
0.00909639
0.0452928
-0.000245589
0.0472914
-0.010071
0.0501484
-0.0208449
0.0541425
-0.0325584
0.0583722
-0.0451396
0.0623319
-0.0584274
0.0655612
-0.0721839
0.0676657
-0.0861091
0.0683192
-0.0998518
0.0672427
-0.113012
0.0641755
-0.125137
0.058864
-0.135744
0.0511119
-0.144422
0.0413466
-0.150318
0.0276452
-0.152817
0.01062
-0.151336
-0.00899016
-0.145587
-0.0297903
-0.135292
-0.0517649
-0.120452
-0.0736467
-0.101312
-0.0940292
-0.0784278
-0.1115
-0.0526469
-0.124842
-0.0251063
-0.13295
0.00290921
-0.135179
0.0300422
-0.131416
0.0551787
-0.122301
0.0773544
-0.108694
0.0959192
-0.0919543
0.110575
-0.0735748
0.121374
-0.0551359
0.12861
-0.0379231
0.132776
-0.0228763
0.134458
-0.0104897
0.134281
-0.000882457
0.132726
0.00695269
0.1301
0.0126522
0.126576
0.0177596
0.122111
0.0229305
0.116527
0.028777
0.109568
0.0356197
0.100989
0.0434235
0.0906302
0.051799
0.0784877
0.0600672
0.0647469
0.067383
0.0497904
0.072874
0.0341669
0.0758038
0.0185399
0.0756952
0.003617
0.0724464
-0.0101139
0.0667656
-0.0220299
0.0585832
-0.031861
0.049049
-0.0395569
0.0392369
-0.0453174
0.0302326
-0.0495449
0.0229631
-0.0527493
0.0180473
-0.0555096
0.0157515
-0.0583809
0.0159627
-0.061814
0.0182087
-0.0660929
0.0217497
-0.0712999
0.025687
-0.0773106
0.0290971
-0.0838212
0.0311558
-0.0904004
0.0312522
-0.0966002
0.0291139
-0.101921
0.0245276
-0.105744
0.0174253
-0.107685
0.00864098
-0.107467
-0.00175207
-0.105024
-0.0124636
-0.100326
-0.0233541
-0.0934503
-0.0339213
-0.0845452
-0.0437839
-0.073816
-0.052644
-0.0615229
-0.0602237
-0.0479722
-0.0662889
-0.0335196
-0.0706041
-0.0185668
-0.0729543
-0.00354832
-0.0731833
0.0110159
-0.0710644
0.024714
-0.0669412
0.0371234
-0.0608773
0.0479121
-0.0533165
0.0568843
-0.0448955
0.0640166
-0.036386
0.0694678
-0.0286071
0.0735814
-0.0223121
0.0768331
-0.0181238
0.0797481
-0.0163091
0.0828354
-0.0167432
0.0864904
-0.0188833
0.0909227
-0.0218556
0.0960911
-0.0245409
0.101646
-0.0255939
0.106984
-0.0239072
0.11136
-0.0189364
0.113978
-0.0103964
0.114075
0.00178631
0.111057
0.0159764
0.104745
0.0316204
0.095031
0.0474112
0.082253
0.0617199
0.0670176
0.0733253
0.0501267
0.0813369
0.0324588
0.0853902
0.0148418
0.0856489
-0.00212346
0.0830389
-0.0179392
0.0781685
-0.0323498
0.0719501
-0.0453513
0.0655641
-0.0571451
0.0598425
-0.0680146
0.0552368
-0.0782408
0.0517786
-0.088028
0.0491161
-0.0974404
0.0465985
-0.106414
0.0434979
-0.114682
0.0389716
-0.121524
0.0318203
-0.126396
0.0221448
-0.128876
0.0104143
-0.12823
-0.00463086
-0.12422
-0.0204328
-0.116647
-0.0370167
-0.105694
-0.052818
-0.0919499
-0.0661602
-0.0760974
-0.0763307
-0.0589022
-0.0830243
-0.0412114
-0.08594
-0.0236456
-0.0858724
-0.00667125
-0.0834539
0.00938908
-0.0793515
0.0244017
-0.0744665
0.0382576
-0.068861
0.0508753
-0.0627731
0.0621895
-0.056299
0.0721122
-0.0492483
0.0805686
-0.0416137
0.0873861
-0.0333187
0.0923759
-0.0242188
0.0953473
-0.0142773
0.0961476
-0.00367815
0.0948096
0.00670974
0.0912964
0.0173665
0.0855895
0.0279327
0.0778856
0.0375553
0.0459395
0.0782049
-0.102639
0.0940972
-0.0911038
0.107313
-0.0757022
0.117225
-0.0570181
0.123392
-0.0360466
0.125624
-0.0141126
0.12398
0.00757849
0.11891
0.0266856
0.110954
0.0430108
0.100888
0.0552695
0.0895421
0.0631574
0.0777059
0.0668713
0.0660326
0.0670791
0.0549732
0.0647974
0.0447442
0.0612127
0.0353324
0.0574974
0.0265345
0.0546413
0.0180339
0.0533143
0.00938872
0.0539379
0.000125439
0.0565547
-0.00950439
0.0597782
-0.0202424
0.0648806
-0.0319941
0.0701239
-0.0446785
0.0750163
-0.0581242
0.0790069
-0.0720829
0.0816245
-0.0862481
0.0824844
-0.100266
0.0812606
-0.113737
0.0776461
-0.126208
0.0713354
-0.137189
0.0620933
-0.146252
0.0504089
-0.152579
0.0339725
-0.155467
0.0135082
-0.154278
-0.0101791
-0.148704
-0.0353646
-0.13842
-0.0620492
-0.123394
-0.088672
-0.103888
-0.113536
-0.0804208
-0.134967
-0.0538628
-0.1514
-0.0254509
-0.161362
0.00339368
-0.164024
0.0312893
-0.159312
0.0570449
-0.148057
0.0796503
-0.131299
0.0984447
-0.110749
0.113127
-0.0882571
0.123757
-0.065766
0.130687
-0.0448524
0.13448
-0.0266695
0.135778
-0.0117876
0.135258
-0.000362273
0.133498
0.00871205
0.130774
0.0153767
0.127264
0.021269
0.122905
0.0272902
0.11747
0.0342111
0.110656
0.0424341
0.102164
0.051915
0.0917974
0.062166
0.0795265
0.0723381
0.0655354
0.0813741
0.0502273
0.0881822
0.0341913
0.0918397
0.0181411
0.0917454
0.00280559
0.087782
-0.0112522
0.0808235
-0.0233403
0.0706713
-0.0332
0.0589086
-0.0407918
0.0468287
-0.046332
0.0357727
-0.0502386
0.0268698
-0.0530728
0.0208814
-0.0554758
0.0181544
-0.0580561
0.018543
-0.0613039
0.0214564
-0.0655248
0.0259707
-0.0708037
0.0309659
-0.0770006
0.035294
-0.0837828
0.037938
-0.0906798
0.0381492
-0.0971967
0.0356308
-0.1028
0.0301311
-0.106907
0.0215323
-0.109051
0.0107851
-0.10895
-0.00185368
-0.106545
-0.0148681
-0.10182
-0.0280793
-0.0948598
-0.0408815
-0.0858211
-0.0528225
-0.0749142
-0.0635509
-0.0624033
-0.0727346
-0.048598
-0.0800942
-0.0338587
-0.0853433
-0.0185941
-0.0882189
-0.00325368
-0.0885237
0.011616
-0.0859341
0.0255866
-0.0809118
0.0382054
-0.0734961
0.0491106
-0.0642217
0.0580859
-0.0538708
0.0651027
-0.0434028
0.0703306
-0.033835
0.0741447
-0.0261262
0.0770588
-0.0210379
0.0796562
-0.0189065
0.0825056
-0.0195927
0.086053
-0.0224307
0.0905467
-0.0263493
0.0959363
-0.0299305
0.101852
-0.03151
0.107672
-0.0297269
0.112556
-0.0238204
0.115647
-0.0134878
0.116162
0.0012716
0.113272
0.0188662
0.10697
0.0379225
0.0970471
0.0573345
0.0838829
0.0748841
0.0681435
0.0890647
0.0507032
0.0987772
0.0325158
0.103578
0.0144734
0.103691
-0.00280012
0.100312
-0.0187713
0.0941396
-0.0332062
0.086385
-0.0461301
0.078488
-0.05778
0.0714924
-0.0684892
0.065946
-0.0785971
0.0618866
-0.0883513
0.0588703
-0.0978388
0.056086
-0.107004
0.0526632
-0.115585
0.047552
-0.122862
0.0390976
-0.128134
0.0274175
-0.130955
0.013235
-0.130568
-0.00501788
-0.12661
-0.0243912
-0.118861
-0.0447652
-0.10759
-0.0640889
-0.0934135
-0.080337
-0.0770748
-0.0926694
-0.0593756
-0.100723
-0.0412384
-0.104077
-0.0233381
-0.103773
-0.006127
-0.100665
0.0100891
-0.0955677
0.025194
-0.0895714
0.0391148
-0.0827818
0.0517795
-0.0754378
0.0631461
-0.0676655
0.0731585
-0.0592607
0.0817232
-0.0501783
0.0886591
-0.0402547
0.0937672
-0.0293269
0.096837
-0.0173472
0.0976927
-0.00453387
0.0963523
0.00805019
0.0928005
0.0209183
0.0869886
0.0337446
0.0791182
0.0454257
0.0556
0.0798612
-0.121032
0.0962921
-0.107535
0.109965
-0.0893747
0.120193
-0.0672469
0.12649
-0.0423429
0.128639
-0.0162619
0.126725
0.00949221
0.121202
0.0322091
0.112677
0.0515356
0.101996
0.0659506
0.0900633
0.0750897
0.0777352
0.0791993
0.0657138
0.0791006
0.0544747
0.0760365
0.0442329
0.0714544
0.0349507
0.0667796
0.0263886
0.0632034
0.0181669
0.061536
0.0097756
0.0623293
0.000820791
0.0655095
-0.0087848
0.0693838
-0.0194958
0.0755916
-0.0312973
0.0819254
-0.0441097
0.0878287
-0.0577495
0.0926467
-0.0719557
0.0958306
-0.0864132
0.096942
-0.100766
0.095613
-0.114614
0.0914947
-0.127507
0.0842278
-0.138941
0.0735272
-0.148473
0.0599414
-0.155335
0.0408348
-0.158702
0.0168751
-0.157885
-0.0109967
-0.15254
-0.0407088
-0.14229
-0.0722993
-0.12708
-0.103882
-0.107105
-0.133511
-0.0828882
-0.159184
-0.0553478
-0.178941
-0.0258479
-0.190862
0.00406091
-0.193933
0.0328862
-0.188137
0.0594071
-0.174578
0.0825479
-0.15444
0.101613
-0.129814
0.116297
-0.102941
0.126699
-0.0761675
0.133235
-0.0513891
0.136562
-0.0299958
0.137395
-0.012621
0.136426
0.000606674
0.134418
0.0107206
0.131574
0.0182208
0.128088
0.024755
0.123863
0.0315144
0.118622
0.0394528
0.111992
0.0490639
0.103614
0.0602926
0.0932402
0.0725401
0.0808126
0.0847656
0.0665152
0.0956716
0.0507762
0.103921
0.0342261
0.10839
0.0176302
0.108341
0.00177512
0.103637
-0.0125773
0.0951758
-0.0249
0.0829941
-0.0348439
0.0688525
-0.0423358
0.0543206
-0.047594
0.0410309
-0.0510969
0.0303727
-0.0534664
0.0232509
-0.0554234
0.0201115
-0.0576413
0.0207608
-0.0606594
0.0244746
-0.0648101
0.0301214
-0.0701809
0.0363367
-0.0766121
0.0417252
-0.0837344
0.0450603
-0.0910297
0.0454445
-0.097943
0.0425442
-0.103914
0.0361019
-0.108329
0.025947
-0.11071
0.0131661
-0.11076
-0.00180362
-0.108401
-0.0172264
-0.103643
-0.0328381
-0.0965791
-0.047945
-0.0873754
-0.0620262
-0.0762502
-0.0746762
-0.0634739
-0.0855109
-0.0493597
-0.0942083
-0.0342729
-0.10043
-0.0186296
-0.103862
-0.0028988
-0.104255
0.0123487
-0.101182
0.026656
-0.0952192
0.0395364
-0.0863764
0.0505895
-0.0752748
0.0595729
-0.0628542
0.066451
-0.0502809
0.071404
-0.038788
0.074842
-0.0295642
0.0773343
-0.0235303
0.0795332
-0.0211054
0.0820823
-0.0221417
0.0854927
-0.0258411
0.0900593
-0.0309159
0.0957166
-0.0355879
0.102081
-0.0378746
0.10849
-0.0361353
0.114008
-0.0293382
0.117692
-0.0171722
0.118708
0.000255874
0.116002
0.0215713
0.1097
0.0442255
0.0995099
0.0675241
0.0858612
0.0885329
0.0694973
0.105429
0.0513805
0.116894
0.0325531
0.122405
0.0139874
0.122257
-0.00366437
0.117964
-0.0198399
0.110315
-0.0343011
0.100846
-0.0471139
0.0913008
-0.0585664
0.0829449
-0.0690634
0.076443
-0.0790173
0.0718405
-0.0887292
0.0685822
-0.098316
0.0656728
-0.107702
0.0620492
-0.116645
0.0564949
-0.124462
0.0469146
-0.130251
0.0332067
-0.133474
0.0164578
-0.13343
-0.00506153
-0.129529
-0.0282929
-0.121571
-0.0527225
-0.109901
-0.0757588
-0.0951795
-0.0950588
-0.078231
-0.109618
-0.0599329
-0.119022
-0.0412538
-0.122756
-0.0229458
-0.122081
-0.00545126
-0.11816
0.0109504
-0.111969
0.026159
-0.10478
0.0401507
-0.0967735
0.0528681
-0.0881552
0.064302
-0.0790994
0.0744215
-0.0693802
0.083117
-0.0588738
0.0901993
-0.047337
0.0954535
-0.0345811
0.0986448
-0.0205384
0.0995689
-0.00545802
0.0982216
0.0093975
0.0946202
0.0245197
0.0886789
0.0396859
0.0806041
0.0535005
0.0655282
0.0818004
-0.140101
0.0988842
-0.124618
0.113112
-0.103603
0.123727
-0.0778621
0.130184
-0.0487996
0.132234
-0.0183122
0.129997
0.0117296
0.123926
0.0382796
0.114714
0.0607484
0.103288
0.0773758
0.0906474
0.0877307
0.0777274
0.0921193
0.0652899
0.0915381
0.0538407
0.0874857
0.0435931
0.081702
0.0344792
0.0758935
0.0262289
0.0714537
0.0183316
0.0694333
0.0102462
0.0704147
0.00157414
0.0741816
-0.00791763
0.0788756
-0.0185945
0.0862684
-0.030457
0.0937879
-0.0434239
0.100796
-0.0572956
0.106518
-0.071795
0.11033
-0.0865972
0.111744
-0.101343
0.110359
-0.115636
0.105788
-0.129025
0.0976167
-0.140994
0.0854964
-0.151078
0.0700249
-0.158583
0.04834
-0.162514
0.0208064
-0.162172
-0.0113387
-0.157119
-0.0457619
-0.14694
-0.0824782
-0.131528
-0.119295
-0.110975
-0.154063
-0.0858439
-0.184315
-0.0571097
-0.207675
-0.0262956
-0.221676
0.00490907
-0.225137
0.0348574
-0.218085
0.0622902
-0.20201
0.0860629
-0.178213
0.105431
-0.149182
0.120098
-0.117608
0.130209
-0.0862782
0.136258
-0.0574385
0.138995
-0.0327331
0.139268
-0.0128937
0.137827
0.00204789
0.135464
0.0130837
0.132477
0.0212078
0.129027
0.0282047
0.124977
0.0355642
0.11998
0.0444504
0.113584
0.05546
0.105352
0.0685243
0.0949746
0.0829175
0.0823592
0.0973809
0.0676875
0.110343
0.0514162
0.120192
0.0342333
0.125573
0.0169782
0.125596
0.000460405
0.120155
-0.0142708
0.109907
-0.0268606
0.0955839
-0.0368732
0.0788651
-0.0442183
0.0616657
-0.0491201
0.0459327
-0.0521269
0.0333794
-0.0539268
0.0250509
-0.0553407
0.0215254
-0.0571178
0.0225379
-0.0598583
0.027215
-0.0639258
0.034189
-0.0694108
0.0418217
-0.076129
0.0484434
-0.0836651
0.0525964
-0.0914439
0.0532232
-0.0988371
0.0499374
-0.10527
0.0425349
-0.110069
0.0307454
-0.112698
0.0157951
-0.112912
-0.00158961
-0.110608
-0.0195295
-0.10581
-0.0376368
-0.0986205
-0.0551342
-0.0892166
-0.0714301
-0.0778301
-0.0860627
-0.06474
-0.0986011
-0.0502624
-0.108686
-0.0347665
-0.115926
-0.0186761
-0.119953
-0.00248138
-0.120449
0.0132198
-0.116883
0.0279328
-0.109932
0.0411322
-0.0995758
0.052368
-0.0865106
0.0613662
-0.0718524
0.0680792
-0.0569938
0.0726986
-0.0434074
0.0756769
-0.0325425
0.0776554
-0.0255088
0.0793651
-0.0228151
0.0815426
-0.0243192
0.0847821
-0.0290807
0.0894262
-0.03556
0.0954032
-0.0415649
0.102317
-0.0447883
0.109434
-0.0432529
0.115721
-0.0356243
0.120128
-0.0215794
0.121732
-0.00134821
0.119286
0.0240171
0.112954
0.0505576
0.102423
0.0780545
0.0881758
0.102781
0.0710678
0.122537
0.0521494
0.135812
0.0325549
0.141999
0.013361
0.141451
-0.00473974
0.136065
-0.0211625
0.126738
-0.0356454
0.115329
-0.0483067
0.103962
-0.0595018
0.09414
-0.0697258
0.0866669
-0.0794814
0.0815962
-0.0891357
0.0782364
-0.0988428
0.0753799
-0.108499
0.0717058
-0.117874
0.0658696
-0.126306
0.0553468
-0.132748
0.0396486
-0.136454
0.0201636
-0.136849
-0.00466653
-0.133013
-0.0321289
-0.12481
-0.0609257
-0.112648
-0.0879208
-0.097257
-0.11045
-0.0795616
-0.127313
-0.0605508
-0.138032
-0.0412417
-0.142065
-0.0224535
-0.140869
-0.00463012
-0.135983
0.0119847
-0.128584
0.0273011
-0.120096
0.041365
-0.110837
0.0541369
-0.100927
0.0656478
-0.0906102
0.0758895
-0.079622
0.0847406
-0.0677248
0.0919992
-0.0545957
0.0974314
-0.0400133
0.100774
-0.0238806
0.101788
-0.00647212
0.100432
0.0107531
0.096774
0.0281777
0.0906795
0.0457804
0.0823611
0.0618188
0.0757768
0.0840254
-0.15997
0.101887
-0.14248
0.116778
-0.118495
0.127858
-0.0889416
0.134511
-0.0554523
0.136442
-0.0202436
0.133824
0.0143478
0.127103
0.0450004
0.11707
0.0707812
0.10476
0.0896864
0.0912774
0.101213
0.0776575
0.105739
0.0647322
0.104463
0.0530438
0.0991741
0.0428041
0.0919417
0.0339176
0.0847801
0.0260445
0.0793268
0.0185193
0.0769585
0.010798
0.078136
0.00243952
0.0825401
-0.0068949
0.08821
-0.0175251
0.0968987
-0.0294596
0.105722
-0.0426096
0.113946
-0.0567531
0.120662
-0.071593
0.12517
-0.0867925
0.126944
-0.101989
0.125555
-0.116793
0.120591
-0.130754
0.111577
-0.143347
0.0980894
-0.154057
0.0807352
-0.162321
0.0566038
-0.166943
0.0254281
-0.167148
-0.0111335
-0.162471
-0.0504386
-0.152438
-0.0925111
-0.136776
-0.134957
-0.115526
-0.175313
-0.0893108
-0.210531
-0.0591612
-0.237825
-0.0267903
-0.254047
0.00597625
-0.257904
0.0372235
-0.249333
0.0657189
-0.230506
0.090225
-0.202719
0.10993
-0.168888
0.124557
-0.132235
0.134307
-0.0960281
0.139764
-0.0628952
0.141762
-0.0347309
0.141407
-0.0125387
0.139374
0.00408071
0.136607
0.0158504
0.133456
0.0243593
0.130061
0.0315998
0.126235
0.0393899
0.121545
0.0491406
0.115442
0.0615629
0.107396
0.0765699
0.0970235
0.09329
0.0841894
0.110215
0.069074
0.125459
0.0521707
0.137096
0.0342386
0.143505
0.0162081
0.143627
-0.000973101
0.137336
-0.0162853
0.125219
-0.0292059
0.108505
-0.0392972
0.0889564
-0.046468
0.0688365
-0.0509375
0.0504022
-0.0533327
0.0357746
-0.054449
0.0261672
-0.0552134
0.0222898
-0.056463
0.0237875
-0.0588733
0.0296253
-0.0628441
0.0381598
-0.0684684
0.047446
-0.0755324
0.0555074
-0.0835634
0.0606274
-0.091918
0.0615778
-0.0998816
0.057901
-0.106866
0.0495194
-0.11213
0.0360094
-0.115071
0.018736
-0.11544
-0.00122015
-0.113193
-0.0217772
-0.108342
-0.0424871
-0.100999
-0.062478
-0.0913535
-0.0810752
-0.0796604
-0.0977558
-0.0662075
-0.112054
-0.0513116
-0.123582
-0.0353445
-0.131893
-0.0187374
-0.13656
-0.00200679
-0.13718
0.0142355
-0.133125
0.0294315
-0.125128
0.0430119
-0.113156
0.0544693
-0.0979681
0.0634907
-0.0808738
0.0700087
-0.0635119
0.0742275
-0.0476262
0.0766559
-0.0349709
0.0780181
-0.026871
0.0791356
-0.0239326
0.080859
-0.0260427
0.0838883
-0.0321099
0.0886072
-0.0402789
0.0949637
-0.0479214
0.102535
-0.0523599
0.110496
-0.0512139