/*--------------------------------*- C++ -*----------------------------------*\
| =========                 |                                                 |
| \\      /  F ield         | OpenFOAM: The Open Source CFD Toolbox           |
|  \\    /   O peration     | Version:  v1912                                 |
|   \\  /    A nd           | Website:  www.openfoam.com                      |
|    \\/     M anipulation  |                                                 |
\*---------------------------------------------------------------------------*/
FoamFile
{
    version     2.0;
    format      ascii;
    class       volScalarField;
    location    "20";
    object      alpha.water;
}
// * * * * * * * * * * * * * * * * * * * * * * * * * * * * * * * * * * * * * //

dimensions      [0 0 0 0 0 0 0];


internalField   nonuniform List<scalar> 
14268
(
1
1
1
1
1
1
1
1
1
1
1
1
1
1
1
1
1
1
1
1
1
1
1
1
1
1
1
1
1
1
1
1
1
1
1
1
1
1
1
1
1
1
1
1
1
1
1
1
1
1
1
1
1
1
1
1
1
1
1
1
1
1
1
1
1
1
1
1
1
1
1
1
1
1
1
1
1
1
1
1
1
1
1
1
1
1
1
1
1
1
1
1
1
1
1
1
1
1
1
1
1
1
1
1
1
1
1
1
1
1
1
1
1
1
1
1
1
1
1
1
1
1
1
1
1
1
1
1
1
1
1
1
1
1
1
1
1
1
1
1
1
1
1
1
1
1
1
1
1
1
1
1
1
1
1
1
1
1
1
1
1
1
1
1
1
1
1
1
1
1
1
1
1
1
1
1
1
1
1
1
1
1
1
1
1
1
1
1
1
1
1
1
1
1
1
1
1
1
1
1
1
1
1
1
1
1
1
1
1
1
1
1
1
1
1
1
1
1
1
1
1
1
1
1
1
1
1
1
1
1
1
1
1
1
1
1
1
1
1
1
1
1
1
1
1
1
1
1
1
1
1
1
1
1
1
1
1
1
1
1
1
1
1
1
1
1
1
1
1
1
1
1
1
1
1
1
1
1
1
1
1
1
1
1
1
1
1
1
1
1
1
1
1
1
1
1
1
1
1
1
1
1
1
1
1
1
1
1
1
1
1
1
1
1
1
1
1
1
1
1
1
1
1
1
1
1
1
1
1
1
1
1
1
1
1
1
1
1
1
1
1
1
1
1
1
1
1
1
1
1
1
1
1
1
1
1
1
1
1
1
1
1
1
1
1
1
1
1
1
1
1
1
1
1
1
1
1
1
1
1
1
1
1
1
1
1
1
1
1
1
1
1
1
1
1
1
1
1
1
1
1
1
1
1
1
1
1
1
1
1
1
1
1
1
1
1
1
1
1
1
1
1
1
1
1
1
1
1
1
1
1
1
1
1
1
1
1
1
1
1
1
1
1
1
1
1
1
1
1
1
1
1
1
1
1
1
1
1
1
1
1
1
1
1
1
1
1
1
1
1
1
1
1
1
1
1
1
1
1
1
1
1
1
1
1
1
1
1
1
1
1
1
1
1
1
1
1
1
1
1
1
1
1
1
1
1
1
1
1
1
1
1
1
1
1
1
1
1
1
1
1
1
1
1
1
1
1
1
1
1
1
1
1
1
1
1
1
1
1
1
1
1
1
1
1
1
1
1
1
1
1
1
1
1
1
1
1
1
1
1
1
1
1
1
1
1
1
1
1
1
1
1
1
1
1
1
1
1
1
1
1
1
1
1
1
1
1
1
1
1
1
1
1
1
1
1
1
1
1
1
1
1
1
1
1
1
1
1
1
1
1
1
1
1
1
1
1
1
1
1
1
1
1
1
1
1
1
1
1
1
1
1
1
1
1
1
1
1
1
1
1
1
1
1
1
1
1
1
1
1
1
1
1
1
1
1
1
1
1
1
1
1
1
1
1
1
1
1
1
1
1
1
1
1
1
1
1
1
1
1
1
1
1
1
1
1
1
1
1
1
1
1
1
1
1
1
1
1
1
1
1
1
1
1
1
1
1
1
1
1
1
1
1
1
1
1
1
1
1
1
1
1
1
1
1
1
1
1
1
1
1
1
1
1
1
1
1
1
1
1
1
1
1
1
1
1
1
1
1
1
1
1
1
1
1
1
1
1
1
1
1
1
1
1
1
1
1
1
1
1
1
1
1
1
1
1
1
1
1
1
1
1
1
1
1
1
1
1
1
1
1
1
1
1
1
1
1
1
1
1
1
1
1
1
1
1
1
1
1
1
1
1
1
1
1
1
1
1
1
1
1
1
1
1
1
1
1
1
1
1
1
1
1
1
1
1
1
1
1
1
1
1
1
1
1
1
1
1
1
1
1
1
1
1
1
1
1
1
1
1
1
1
1
1
1
1
1
1
1
1
1
1
1
1
1
1
1
1
1
1
1
1
1
1
1
1
1
1
1
1
1
1
1
1
1
1
1
1
1
1
1
1
1
1
1
1
1
1
1
1
1
1
1
1
1
1
1
1
1
1
1
1
1
1
1
1
1
1
1
1
1
1
1
1
1
1
1
1
1
1
1
1
1
1
1
1
1
1
1
1
1
1
1
1
1
1
1
1
1
1
1
1
1
1
1
1
1
1
1
1
1
1
1
1
1
1
1
1
1
1
1
1
1
1
1
1
1
1
1
1
1
1
1
1
1
1
1
1
1
1
1
1
1
1
1
1
1
1
1
1
1
1
1
1
1
1
1
1
1
1
1
1
1
1
1
1
1
1
1
1
1
1
1
1
1
1
1
1
1
1
1
1
1
1
1
1
1
1
1
1
1
1
1
1
1
1
1
1
1
1
1
1
1
1
1
1
1
1
1
1
1
1
1
1
1
1
1
1
1
1
1
1
1
1
1
1
1
1
1
1
1
1
1
1
1
1
1
1
1
1
1
1
1
1
1
1
1
1
1
1
1
1
1
1
1
1
1
1
1
1
1
1
1
1
1
1
1
1
1
1
1
1
1
1
1
1
1
1
1
1
1
1
1
1
1
1
1
1
1
1
1
1
1
1
1
1
1
1
1
1
1
1
1
1
1
1
1
1
1
1
1
1
1
1
1
1
1
1
1
1
1
1
1
1
1
1
1
1
1
1
1
1
1
1
1
1
1
1
1
1
1
1
1
1
1
1
1
1
1
1
1
1
1
1
1
1
1
1
1
1
1
1
1
1
1
1
1
1
1
1
1
1
1
1
1
1
1
1
1
1
1
1
1
1
1
1
1
1
1
1
1
1
1
1
1
1
1
1
1
1
1
1
1
1
1
1
1
1
1
1
1
1
1
1
1
1
1
1
1
1
1
1
1
1
1
1
1
1
1
1
1
1
1
1
1
1
1
1
1
1
1
1
1
1
1
1
1
1
1
1
1
1
1
1
1
1
1
1
1
1
1
1
1
1
1
1
1
1
1
1
1
1
1
1
1
1
1
1
1
1
1
1
1
1
1
1
1
1
1
1
1
1
1
1
1
1
1
1
1
1
1
1
1
1
1
1
1
1
1
1
1
1
1
1
1
1
1
1
1
1
1
1
1
1
1
1
1
1
1
1
1
1
1
1
1
1
1
1
1
1
1
1
1
1
1
1
1
1
1
1
1
1
1
1
1
1
1
1
1
1
1
1
1
1
1
1
1
1
1
1
1
1
1
1
1
1
1
1
1
1
1
1
1
1
1
1
1
1
1
1
1
1
1
1
1
1
1
1
1
1
1
1
1
1
1
1
1
1
1
1
1
1
1
1
1
1
1
1
1
1
1
1
1
1
1
1
1
1
1
1
1
1
1
1
1
1
1
1
1
1
1
1
1
1
1
1
1
1
1
1
1
1
1
1
1
1
1
1
1
1
1
1
1
1
1
1
1
1
1
1
1
1
1
1
1
1
1
1
1
1
1
1
1
1
1
1
1
1
1
1
1
1
1
1
1
1
1
1
1
1
1
1
1
1
1
1
1
1
1
1
1
1
1
1
1
1
1
1
1
1
1
1
1
1
1
1
1
1
1
1
1
1
1
1
1
1
1
1
1
1
1
1
1
1
1
1
1
1
1
1
1
1
1
1
1
1
1
1
1
1
1
1
1
1
1
1
1
1
1
1
1
1
1
1
1
1
1
1
1
1
1
1
1
1
1
1
1
1
1
1
1
1
1
1
1
1
1
1
1
1
1
1
1
1
1
1
1
1
1
1
1
1
1
1
1
1
1
1
1
1
1
1
1
1
1
1
1
1
1
1
1
1
1
1
1
1
1
1
1
1
1
1
1
1
1
1
1
1
1
1
1
1
1
1
1
1
1
1
1
1
1
1
1
1
1
1
1
1
1
1
1
1
1
1
1
1
1
1
1
1
1
1
1
1
1
1
1
1
1
1
1
1
1
1
1
1
1
1
1
1
1
1
1
1
1
1
1
1
1
1
1
1
1
1
1
1
1
1
1
1
1
1
1
1
1
1
1
1
1
1
1
1
1
1
1
1
1
1
1
1
1
1
1
1
1
1
1
1
1
1
1
1
1
1
1
1
1
1
1
1
1
1
1
1
1
1
1
1
1
1
1
1
1
1
1
1
1
1
1
1
1
1
1
1
1
1
1
1
1
1
1
1
1
1
1
1
1
1
1
1
1
1
1
1
1
1
1
1
1
1
1
1
1
1
1
1
1
1
1
1
1
1
1
1
1
1
1
1
1
1
1
1
1
1
1
1
1
1
1
1
1
1
1
1
1
1
1
1
1
1
1
1
1
1
1
1
1
1
1
1
1
1
1
1
1
1
1
1
1
1
1
1
1
1
1
1
1
1
1
1
1
1
1
1
1
1
1
1
1
1
1
1
1
1
1
1
1
1
1
1
1
1
1
1
1
1
1
1
1
1
1
1
1
1
1
1
1
1
1
1
1
1
1
1
1
1
1
1
1
1
1
1
1
1
1
1
1
1
1
1
1
1
1
1
1
1
1
1
1
1
1
1
1
1
1
1
1
1
1
1
1
1
1
1
1
1
1
1
1
1
1
1
1
1
1
1
1
1
1
1
1
1
1
1
1
1
1
1
1
1
1
1
1
1
1
1
1
1
1
1
1
1
1
1
1
1
1
1
1
1
1
1
1
1
1
1
1
1
1
1
1
1
1
1
1
1
1
1
1
1
1
1
1
1
1
1
1
1
1
1
1
1
1
1
1
1
1
1
1
1
1
1
1
1
1
1
1
1
1
1
1
1
1
1
1
1
1
1
1
1
1
1
1
1
1
1
1
1
1
1
1
1
1
1
1
1
1
1
1
1
1
1
1
1
1
1
1
1
1
1
1
1
1
1
1
1
1
1
1
1
1
1
1
1
1
1
1
1
1
1
1
1
1
1
1
1
1
1
1
1
1
1
1
1
1
1
1
1
1
1
1
1
1
1
1
1
1
1
1
1
1
1
1
1
1
1
1
1
1
1
1
1
1
1
1
1
1
1
1
1
1
1
1
1
1
1
1
1
1
1
1
1
1
1
1
1
1
1
1
1
1
1
1
1
1
1
1
1
1
1
1
1
1
1
1
1
1
1
1
1
1
1
1
1
1
1
1
1
1
1
1
1
1
1
1
1
1
1
1
1
1
1
1
1
1
1
1
1
1
1
1
1
1
1
1
1
1
1
1
1
1
1
1
1
1
1
1
1
1
1
1
1
1
1
1
1
1
1
1
1
1
1
1
1
1
1
1
1
1
1
1
1
1
1
1
1
1
1
1
1
1
1
1
1
1
1
1
1
1
1
1
1
1
1
1
1
1
1
1
1
1
1
1
1
1
1
1
1
1
1
1
1
1
1
1
1
1
1
1
1
1
1
1
1
1
1
1
1
1
1
1
1
1
1
1
1
1
1
1
1
1
1
1
1
1
1
1
1
1
1
1
1
1
1
1
1
1
1
1
1
1
1
1
1
1
1
1
1
1
1
1
1
1
1
1
1
1
1
1
1
1
1
1
1
1
1
1
1
1
1
1
1
1
1
1
1
1
1
1
1
1
1
1
1
1
1
1
1
1
1
1
1
1
1
1
1
1
1
1
1
1
1
1
1
1
1
1
1
1
1
1
1
1
1
1
1
1
1
1
1
1
1
1
1
1
1
1
1
1
1
1
1
1
1
1
1
1
1
1
1
1
1
1
1
1
1
1
1
1
1
1
1
1
1
1
1
1
1
1
1
1
1
1
1
1
1
1
1
1
1
1
1
1
1
1
1
1
1
1
1
1
1
1
1
1
1
1
1
1
1
1
1
1
1
1
1
1
1
1
1
1
1
1
1
1
1
1
1
1
1
1
1
1
1
1
1
1
1
1
1
1
1
1
1
1
1
1
1
1
1
1
1
1
1
1
1
1
1
1
1
1
1
1
1
1
1
1
1
1
1
1
1
1
1
1
1
1
1
1
1
1
1
1
1
1
1
1
1
1
1
1
1
1
1
1
1
1
1
1
1
1
1
1
1
1
1
1
1
1
1
1
1
1
1
1
1
1
1
1
1
1
1
1
1
1
1
1
1
1
1
1
1
1
1
1
1
1
1
1
1
1
1
1
1
1
1
1
1
1
1
1
1
1
1
1
1
1
1
1
1
1
1
1
1
1
1
1
1
1
1
1
1
1
1
1
1
1
1
1
1
1
1
1
1
1
1
1
1
1
1
1
1
1
1
1
1
1
1
1
1
1
1
1
1
1
1
1
1
1
1
1
1
1
1
1
1
1
1
1
1
1
1
1
1
1
1
1
1
1
1
1
1
1
1
1
1
1
1
1
1
1
1
1
1
1
1
1
1
1
1
1
1
1
1
1
1
1
1
1
1
1
1
1
1
1
1
1
1
1
1
1
1
1
1
1
1
1
1
1
1
1
1
1
1
1
1
1
1
1
1
1
1
1
1
1
1
1
1
1
1
1
1
1
1
1
1
1
1
1
1
1
1
1
1
1
1
1
1
1
1
1
1
1
1
1
1
1
1
1
1
1
1
1
1
1
1
1
1
1
1
1
1
1
1
1
1
1
1
1
1
1
1
1
1
1
1
1
1
1
1
1
1
1
1
1
1
1
1
1
1
1
1
1
1
1
1
1
1
1
1
1
1
1
1
1
1
1
1
1
1
1
1
1
1
1
1
1
1
1
1
1
1
1
1
1
1
1
1
1
1
1
1
1
1
1
1
1
1
1
1
1
1
1
1
1
1
1
1
1
1
1
1
1
1
1
1
1
1
1
1
1
1
1
1
1
1
1
1
1
1
1
1
1
1
1
1
1
1
1
1
1
1
1
1
1
1
1
1
1
1
1
1
1
1
1
1
1
1
1
1
1
1
1
1
1
1
1
1
1
1
1
1
1
1
1
1
1
1
1
1
1
1
1
1
1
1
1
1
1
1
1
1
1
1
1
1
1
1
1
1
1
1
1
1
1
1
1
1
1
1
1
1
1
1
1
1
1
1
1
1
1
1
1
1
1
1
1
1
1
1
1
1
1
1
1
1
1
1
1
1
1
1
1
1
1
1
1
1
1
1
1
1
1
1
1
1
1
1
1
1
1
1
1
1
1
1
1
1
1
1
1
1
1
1
1
1
1
1
1
1
1
1
1
1
1
1
1
1
1
1
1
1
1
1
1
1
1
1
1
1
1
1
1
1
1
1
1
1
1
1
1
1
1
1
1
1
1
1
1
1
1
1
1
1
1
1
1
1
1
1
1
1
1
1
1
1
1
1
1
1
1
1
1
1
1
1
1
1
1
1
1
1
1
1
1
1
1
1
1
1
1
1
1
1
1
1
1
1
1
1
1
1
1
1
1
1
1
1
1
1
1
1
1
1
1
1
1
1
1
1
1
1
1
1
1
1
1
1
1
1
1
1
1
1
1
1
1
1
1
1
1
1
1
1
1
1
1
1
1
1
1
1
1
1
1
1
1
1
1
1
1
1
1
1
1
1
1
1
1
1
1
1
1
1
1
1
1
1
1
1
1
1
1
1
1
1
1
1
1
1
1
1
1
1
1
1
1
1
1
1
1
1
1
1
1
1
1
1
1
1
1
1
1
1
1
1
1
1
1
1
1
1
1
1
1
1
1
1
1
1
1
1
1
1
1
1
1
1
1
1
1
1
1
1
1
1
1
1
1
1
1
1
1
1
1
1
1
1
1
1
1
1
1
1
1
1
1
1
1
1
1
1
1
1
1
1
1
1
1
1
1
1
1
1
1
1
1
1
1
1
1
1
1
1
1
1
1
1
1
1
1
1
1
1
1
1
1
1
1
1
1
1
1
1
1
1
1
1
1
1
1
1
1
1
1
1
1
1
1
1
1
1
1
1
1
1
1
1
1
1
1
1
1
1
1
1
1
1
1
1
1
1
1
1
1
1
1
1
1
1
1
1
1
1
1
1
1
1
1
1
1
1
1
1
1
1
1
1
1
1
1
1
1
1
1
1
1
1
1
1
1
1
1
1
1
1
1
1
1
1
1
1
1
1
1
1
1
1
1
1
1
1
1
1
1
1
1
1
1
1
1
1
1
1
1
1
1
1
1
1
1
1
1
1
1
1
1
1
1
1
1
1
1
1
1
1
1
1
1
1
1
1
1
1
1
1
1
1
1
1
1
1
1
1
1
1
1
1
1
1
1
1
1
1
1
1
1
1
1
1
1
1
1
1
1
1
1
1
1
1
1
1
1
1
1
1
1
1
1
1
1
1
1
1
1
1
1
1
1
1
1
1
1
1
1
1
1
1
1
1
1
1
1
1
1
1
1
1
1
1
1
1
1
1
1
1
1
1
1
1
1
1
1
1
1
1
1
1
1
1
1
1
1
1
1
1
1
1
1
1
1
1
1
1
1
1
1
1
1
1
1
1
1
1
1
1
1
1
1
1
1
1
1
1
1
1
1
1
1
1
1
1
1
1
1
1
1
1
1
1
1
1
1
1
1
1
1
1
1
1
1
1
1
1
1
1
1
1
1
1
1
1
1
1
1
1
1
1
1
1
1
1
1
1
1
1
1
1
1
1
1
1
1
1
1
1
1
1
1
1
1
1
1
1
1
1
1
1
1
1
1
1
1
1
1
1
1
1
1
1
1
1
1
1
1
1
1
1
1
1
1
1
1
1
1
1
1
1
1
1
1
1
1
1
1
1
1
1
1
1
1
1
1
1
1
1
1
1
1
1
1
1
1
1
1
1
1
1
1
1
1
1
1
1
1
1
1
1
1
1
1
1
1
1
1
1
1
1
1
1
1
1
1
1
1
1
1
1
1
1
1
1
1
1
1
1
1
1
1
1
1
1
1
1
1
1
1
1
1
1
1
1
1
1
1
1
1
1
1
1
1
1
1
1
1
1
1
1
1
1
1
1
1
1
1
1
1
1
1
1
1
1
1
1
1
1
1
1
1
1
1
1
1
1
1
1
1
1
1
1
1
1
1
1
1
1
1
1
1
1
1
1
1
1
1
1
1
1
1
1
1
1
1
1
1
1
1
1
1
1
1
1
1
1
1
1
1
1
1
1
1
1
1
1
1
1
1
1
1
1
1
1
1
1
1
1
1
1
1
1
1
1
1
1
1
1
1
1
1
1
1
1
1
1
1
1
1
1
1
1
1
1
1
1
1
1
1
1
1
1
1
1
1
1
1
1
1
1
1
1
1
1
1
1
1
1
1
1
1
1
1
1
1
1
1
1
1
1
1
1
1
1
1
1
1
1
1
1
1
1
1
1
1
1
1
1
1
1
1
1
1
1
1
1
1
1
1
1
1
1
1
1
1
1
1
1
1
1
1
1
1
1
1
1
1
1
1
1
1
1
1
1
1
1
1
1
1
1
1
1
1
1
1
1
1
1
1
1
1
1
1
1
1
1
1
1
1
1
1
1
1
1
1
1
1
1
1
1
1
1
1
1
1
1
1
1
1
1
1
1
1
1
1
1
1
1
1
1
1
1
1
1
1
1
1
1
1
1
1
1
1
1
1
1
1
1
1
1
1
1
1
1
1
1
1
1
1
1
1
1
1
1
1
1
1
1
1
1
1
1
1
1
1
1
1
1
1
1
1
1
1
1
1
1
1
1
1
1
1
1
1
1
1
1
1
1
1
1
1
1
1
1
1
1
1
1
1
1
1
1
1
1
1
1
1
1
1
1
1
1
1
1
1
1
1
1
1
1
1
1
1
1
1
1
1
1
1
1
1
1
1
1
1
1
1
1
1
1
1
1
1
1
1
1
1
1
1
1
1
1
1
1
1
1
1
1
1
1
1
1
1
1
1
1
1
1
1
1
1
1
1
1
1
1
1
1
1
1
1
1
1
1
1
1
1
1
1
1
1
1
1
1
1
1
1
1
1
1
1
1
1
1
1
1
1
1
1
1
1
1
1
1
1
1
1
1
1
1
1
1
1
1
1
1
1
1
1
1
1
1
1
1
1
1
1
1
1
1
1
1
1
1
1
1
1
1
1
1
1
1
1
1
1
1
1
1
1
1
1
1
1
1
1
1
1
1
1
1
1
1
1
1
1
1
1
1
1
1
1
1
1
1
1
1
1
1
1
1
1
1
1
1
1
1
1
1
1
1
1
1
1
1
1
1
1
1
1
1
1
1
1
1
1
1
1
1
1
1
1
1
1
1
1
1
1
1
1
1
1
1
1
1
1
1
1
1
1
1
1
1
1
1
1
1
1
1
1
1
1
1
1
1
1
1
1
1
1
1
1
1
1
1
1
1
1
1
1
1
1
1
1
1
1
1
1
1
1
1
1
1
1
1
1
1
1
1
1
1
1
1
1
1
1
1
1
1
1
1
1
1
1
1
1
1
1
1
1
1
1
1
1
1
1
1
1
1
1
1
1
1
1
1
1
1
1
1
1
1
1
1
1
1
1
1
1
1
1
1
1
1
1
1
1
1
1
1
1
1
1
1
1
1
1
1
1
1
1
1
1
1
1
1
1
1
1
1
1
1
1
1
1
1
1
1
1
1
1
1
1
1
1
1
1
1
1
1
1
1
1
1
1
1
1
1
1
1
1
1
1
1
1
1
1
1
1
1
1
1
1
1
1
1
1
1
1
1
1
1
1
1
1
1
1
1
1
1
1
1
1
1
1
1
1
1
1
1
1
1
1
1
1
1
1
1
1
1
1
1
1
1
1
1
1
1
1
1
1
1
1
1
1
1
1
1
1
1
1
1
1
1
1
1
1
1
1
1
1
0.999956
0.99984
0.999778
0.999852
1
1
1
1
1
1
1
1
1
1
1
1
1
1
1
1
1
1
1
1
1
1
1
1
1
1
1
1
1
1
1
1
1
1
1
1
1
1
1
1
1
1
1
1
1
1
1
1
1
1
1
1
1
1
1
1
1
1
1
1
1
1
1
1
1
1
1
1
1
1
1
1
1
1
1
1
1
1
1
1
1
1
1
1
1
1
1
1
1
1
1
1
1
1
1
1
1
1
1
1
1
1
1
1
1
1
1
1
1
1
1
1
1
1
1
1
1
1
1
1
1
1
1
1
1
1
1
1
1
1
1
1
1
1
1
1
1
1
1
1
1
1
1
1
1
1
1
1
1
1
1
1
1
1
1
0.994532
0.818621
0.570572
0.343594
0.156369
0.0385268
0.0263853
0.156745
0.459799
0.893774
0.999887
1
1
1
1
1
1
1
1
1
1
1
1
1
1
1
1
1
1
1
1
1
1
1
1
1
1
1
1
1
1
1
1
1
1
1
1
1
1
1
1
1
1
1
1
1
1
1
1
1
1
1
1
1
1
1
1
1
1
1
1
1
1
1
1
1
1
1
1
1
1
1
1
1
1
1
1
1
1
1
1
1
1
1
1
1
1
1
1
1
1
1
1
1
1
1
1
1
1
1
1
1
1
1
1
1
1
1
1
1
1
1
1
1
1
1
1
1
1
1
1
1
1
1
1
1
1
1
1
1
1
1
1
1
1
1
1
1
1
1
1
1
1
1
1
1
1
1
1
1
1
0.968906
0.679611
0.364228
0.0863482
7.62605e-05
3.41131e-05
7.39916e-06
1.24268e-21
1.49261e-49
-1.60485e-69
4.48453e-31
-5.55736e-23
0.0473621
0.632285
0.999669
1
1
1
1
1
1
1
1
1
1
1
1
1
1
1
1
1
1
1
1
1
1
1
1
1
1
1
1
1
1
1
1
1
1
1
1
1
1
1
1
1
1
1
0.999945
0.999982
1
1
1
1
1
1
1
1
1
1
1
1
1
1
1
1
1
1
1
1
1
1
1
1
1
1
1
1
1
1
1
1
1
1
1
1
1
1
1
1
1
1
1
1
1
1
1
1
1
1
1
1
1
1
1
1
1
1
1
1
1
1
1
1
1
1
1
1
1
1
1
1
1
1
1
1
1
1
1
1
1
1
1
1
1
1
1
1
1
1
1
1
1
1
1
1
1
1
1
1
1
1
0.916657
0.472727
0.0713811
5.09314e-05
1.41042e-05
2.48271e-11
-1.74785e-30
1.43637e-24
6.15946e-29
-1.15559e-47
-7.66988e-52
-6.04165e-56
-5.37493e-60
1.26383e-44
4.4957e-26
0.0002703
0.480614
0.997879
1
1
1
1
1
1
1
1
1
1
1
1
1
1
1
1
1
1
1
1
1
1
1
1
1
1
1
1
1
1
1
1
1
1
1
1
1
0.968519
0.777819
0.627082
0.559742
0.567012
0.631041
0.729499
0.842049
0.954271
0.998177
0.998352
0.998596
0.998988
1
1
1
1
1
1
1
1
1
1
1
1
1
1
1
1
1
1
1
1
1
1
1
1
1
1
1
1
1
1
1
1
1
1
1
1
1
1
1
1
1
1
1
1
1
1
1
1
1
1
1
1
1
0.99999
0.996616
0.988116
0.985234
0.992771
1
1
1
1
1
1
1
1
1
1
1
1
1
1
1
1
1
1
1
1
1
1
1
1
1
1
1
1
1
1
1
1
1
1
1
1
1
0.550994
0.053322
1.87505e-05
3.02571e-21
1.92426e-24
5.95672e-25
3.51234e-30
-3.23762e-35
3.65811e-45
5.47265e-50
-1.96634e-52
-1.15365e-56
-6.23922e-61
-3.90263e-65
1.36009e-65
1.43643e-65
-4.10965e-78
5.22557e-06
0.452603
0.998934
1
1
1
1
1
1
1
1
1
1
1
1
1
1
1
1
1
1
1
1
1
1
1
1
1
1
1
1
1
1
1
1
1
0.946924
0.638213
0.305548
0.0375942
0.000990846
0.00046238
0.000189972
3.41701e-08
-3.07482e-47
2.09434e-58
-8.20423e-25
0.00069289
0.0663232
0.180616
0.317477
0.500633
0.753853
0.982883
0.998445
1
1
1
1
1
1
1
1
1
1
1
1
1
1
1
1
1
1
1
1
1
1
1
1
1
1
1
1
1
1
1
1
1
1
1
1
1
1
1
1
1
1
1
1
1
1
0.999999
0.963631
0.744489
0.50581
0.304723
0.17963
0.166884
0.288728
0.557366
0.901405
0.991479
1
1
1
1
1
1
1
1
1
1
1
1
1
1
1
1
1
1
1
1
1
1
0.999996
0.999825
0.992801
0.9257
0.807884
0.754967
0.78047
0.856872
0.934803
0.956139
0.967403
0.97842
0.986937
6.48468e-06
-6.32906e-27
1.34463e-48
4.53383e-54
4.21935e-59
3.30183e-65
-1.39275e-61
-2.28484e-39
-4.76541e-44
-9.78477e-49
-1.45073e-53
-2.25746e-58
-1.36917e-61
-7.68312e-65
-3.10631e-68
-9.90666e-72
-2.72525e-75
-5.00253e-79
9.40678e-06
0.491864
0.999609
1
1
1
1
1
1
1
1
1
1
1
1
1
1
1
1
1
1
1
1
1
1
1
1
1
1
1
1
0.963917
0.792865
0.570881
0.29749
0.0343774
0.00107335
0.000139262
-7.04596e-22
-4.25113e-25
-2.65815e-28
-1.2058e-46
-2.12867e-41
-7.32642e-44
-1.02171e-46
-3.33698e-57
-2.57984e-53
-2.79816e-56
-2.35463e-59
9.83962e-51
-2.30489e-50
2.51585e-09
0.109998
0.541718
0.955425
0.999461
1
1
1
1
1
1
1
1
1
1
1
1
1
1
1
1
1
1
1
1
1
1
1
1
1
1
1
1
1
1
1
1
1
1
1
1
1
1
0.999968
0.971771
0.875889
0.761484
0.620681
0.448215
0.242046
0.0416559
0.00756327
0.00295263
0.000287138
-8.32458e-25
1.14637e-15
5.45324e-11
7.57824e-05
0.0798375
0.585017
0.964678
1
1
1
1
1
1
1
1
1
1
1
1
1
1
1
1
1
1
1
0.999977
0.996618
0.89909
0.587915
0.291557
0.0986893
0.0488551
0.0237589
0.00635145
0.00891507
0.0569834
0.184154
0.323245
0.443397
0.535425
2.79258e-25
-3.22612e-31
-2.17073e-78
8.95151e-73
1.51728e-77
6.69517e-83
-1.0262e-48
-1.17187e-43
-3.66347e-48
-5.80668e-53
-4.91602e-58
-2.29452e-61
-1.21223e-64
-5.05238e-68
-1.57262e-71
-3.92092e-75
-8.42504e-79
-1.25122e-82
-1.27116e-86
0.000243418
0.535676
0.999568
1
1
1
1
1
1
1
1
1
1
1
1
1
1
1
1
1
1
1
1
1
1
0.999999
0.866701
0.547446
0.312512
0.134659
0.0109435
0.00131514
0.00078479
0.00011975
2.77273e-19
7.96728e-21
2.60402e-22
-1.27746e-24
-1.31849e-27
-9.74795e-31
-5.35021e-34
-2.9244e-37
-1.57807e-40
-8.23568e-44
-3.95967e-47
-1.98715e-50
-1.0546e-53
-5.25345e-57
-2.39867e-60
-9.99987e-64
-3.70863e-67
1.40148e-49
3.17708e-11
0.116106
0.686674
0.995627
1
1
1
1
1
1
1
1
1
1
1
1
1
1
1
1
1
1
1
1
1
1
1
1
1
1
0.999998
0.980494
0.909366
0.83255
0.749958
0.659715
0.563
0.462285
0.361005
0.262372
0.167335
0.0758638
0.0123409
0.00828596
0.00643497
0.00517305
0.00295086
5.1139e-07
9.51543e-19
1.6784e-19
4.72453e-20
2.85182e-22
3.06111e-30
2.21146e-24
3.1619e-19
4.71691e-14
2.68558e-08
0.00362227
0.331194
0.913705
1
1
1
1
1
1
1
1
1
1
1
1
1
1
1
1
0.99996
0.992594
0.826534
0.449444
0.125808
0.0381153
0.00107353
2.97149e-11
5.67145e-10
7.59532e-09
6.70253e-08
3.66832e-07
1.70957e-06
8.62376e-06
3.45064e-05
0.00011208
0.000307376
-1.78084e-46
-1.5216e-35
-9.30229e-130
-5.18111e-127
6.20091e-128
1.05585e-85
-6.70116e-51
-4.6398e-48
-1.20947e-52
-9.07578e-58
-3.01286e-61
-1.39345e-64
-5.41293e-68
-1.70402e-71
-4.11683e-75
-8.07142e-79
-1.36673e-82
-1.67136e-86
-1.52619e-90
-1.16774e-94
0.00141807
0.525097
0.999338
1
1
1
1
1
1
1
1
1
1
1
1
1
1
1
1
1
1
1
1
0.859012
0.327255
0.00743283
0.000772503
0.000138644
7.83022e-22
-6.08124e-27
-2.22745e-43
6.94665e-49
1.04563e-51
8.17954e-55
3.37756e-54
-9.99794e-51
-2.43698e-27
-2.93089e-30
-2.35405e-33
-1.4691e-36
-7.99888e-40
-4.22163e-43
-2.12744e-46
-9.93954e-50
-4.79819e-53
-2.40403e-56
-1.12511e-59
-4.81608e-63
-1.86549e-66
-6.37811e-70
-2.05093e-73
-5.81437e-77
3.54426e-22
0.000332888
0.344839
0.916111
0.998672
1
1
1
1
1
1
1
1
1
1
1
1
1
1
1
0.999945
0.940384
0.817149
0.693114
0.570049
0.451362
0.340285
0.239006
0.147744
0.0655292
0.00850458
0.00485549
0.00416275
0.00338274
0.00297331
0.00241315
0.00170584
0.000895623
5.42712e-05
2.62434e-22
-2.24767e-31
3.29465e-47
8.8152e-63
3.80584e-65
2.56982e-74
-2.44513e-72
2.38654e-56
-5.09569e-55
-2.31282e-55
2.04134e-48
1.65446e-40
7.48447e-36
1.35208e-31
2.09772e-26
9.55347e-21
1.86442e-15
3.69162e-10
0.000355722
0.183383
0.840229
0.999112
1
1
1
1
1
1
1
1
1
1
1
1
0.999882
0.981882
0.749396
0.372194
0.0906328
0.0173059
3.30376e-21
-5.6887e-23
5.77482e-18
1.03778e-16
1.54652e-15
1.73228e-14
1.65235e-13
1.71764e-12
1.93688e-11
2.58289e-10
3.26057e-09
2.97256e-08
1.77689e-07
-9.12077e-46
-6.6185e-40
-3.3914e-129
-2.45396e-123
-1.26528e-119
1.95766e-88
-1.99486e-53
-1.07897e-52
-1.09973e-57
-4.38168e-61
-1.6503e-64
-5.59851e-68
-1.63244e-71
-3.92792e-75
-7.41629e-79
-1.15334e-82
-1.56943e-86
-1.6304e-90
-1.33757e-94
-9.47364e-99
-4.03957e-28
2.56433e-06
0.407896
0.976211
0.999998
1
1
1
1
1
1
1
1
1
1
1
1
1
1
1
1
0.998556
0.58781
0.0376488
0.000251685
1.37895e-20
1.18323e-21
6.53926e-22
9.41082e-26
-5.65128e-29
-5.92547e-32
-3.02521e-35
-1.06798e-38
-3.0277e-42
-7.36916e-46
-1.48735e-49
-4.21891e-30
-5.59777e-33
-4.9252e-36
-3.2495e-39
-1.72927e-42
-8.80438e-46
-4.28217e-49
-1.9418e-52
-8.97655e-56
-4.23479e-59
-1.85335e-62
-7.3817e-66
-2.65331e-69
-8.43972e-73
-2.50916e-76
-6.42434e-80
-2.7286e-99
-4.40599e-39
3.56291e-17
0.0839279
0.616096
0.987366
0.998703
1
1
1
1
1
1
1
0.998962
0.871122
0.668168
0.490887
0.336674
0.198832
0.0702732
0.00497184
0.00360184
0.00260139
0.00189907
0.00118731
0.000509396
6.81198e-08
5.42876e-19
5.38766e-19
9.83207e-20
1.91946e-20
8.4402e-24
1.56168e-20
5.00189e-20
1.4073e-20
2.06019e-20
1.21852e-23
1.22281e-22
3.23617e-26
-1.2871e-46
-1.17791e-34
-6.64242e-37
-2.40711e-39
-8.0136e-42
-2.68216e-44
-8.60105e-47
-2.89739e-49
-1.10173e-51
-1.7333e-68
6.54534e-47
7.0433e-41
1.7312e-36
3.06626e-32
1.53082e-27
8.95151e-22
1.58305e-16
1.79435e-11
3.40142e-05
0.0954286
0.721996
0.98146
1
1
1
1
1
1
1
1
0.999999
0.999336
0.937894
0.62504
0.264521
0.0658749
0.00762068
9.97789e-18
7.85759e-19
1.57344e-38
-2.54735e-24
1.3326e-22
6.43638e-21
2.08909e-19
4.87489e-18
9.08772e-17
1.61171e-15
2.96114e-14
4.59338e-13
4.59231e-12
4.18781e-11
3.2243e-10
-4.55655e-50
-2.64901e-44
-1.34474e-130
-1.03684e-124
-4.21156e-121
4.11971e-106
-3.58445e-56
-6.6032e-58
-4.04033e-61
-2.31866e-64
-6.41773e-68
-1.62716e-71
-3.59883e-75
-6.66103e-79
-9.88511e-83
-1.23526e-86
-1.39172e-90
-1.28339e-94
-9.92486e-99
-6.63493e-103
-1.57969e-41
-1.57625e-36
-1.4052e-32
0.182098
0.746259
0.999163
0.999756
1
1
1
1
1
1
1
1
1
1
1
1
1
0.958101
0.351432
0.001395
1.61945e-40
-5.48328e-57
5.94128e-38
4.63354e-39
2.11636e-39
3.62529e-43
-4.99373e-31
-5.14208e-34
-2.61444e-37
-8.92683e-41
-2.36905e-44
-5.16919e-48
-9.15018e-52
-6.93813e-33
-1.02916e-35
-9.7317e-39
-6.5065e-42
-3.37257e-45
-1.65293e-48
-7.75875e-52
-3.39708e-55
-1.49152e-58
-6.56314e-62
-2.66629e-65
-9.84093e-69
-3.27488e-72
-9.64126e-76
-2.6276e-79
-6.16733e-83
1.09e-79
2.07767e-53
-3.09549e-32
-1.03082e-30
1.91012e-08
0.16861
0.579732
0.873439
0.996686
0.99947
0.972871
0.810659
0.592228
0.349391
0.105482
0.00434617
0.00240768
0.0013274
0.000446691
7.17449e-09
5.44017e-19
-1.21489e-38
-6.54397e-38
2.44708e-20
1.81661e-20
4.20746e-24
2.00202e-42
1.45367e-55
6.85388e-59
4.59475e-36
8.34141e-37
1.87882e-37
-2.25962e-44
1.72007e-37
1.20902e-36
6.95999e-40
3.1644e-45
6.44909e-44
5.05997e-40
2.24322e-43
-1.31435e-33
-1.21172e-35
-5.88839e-38
-2.1717e-40
-7.40093e-43
-2.47137e-45
-8.08477e-48
-2.77049e-50
-1.0196e-52
-3.33212e-55
2.75593e-55
3.58494e-48
1.17384e-41
5.13548e-37
8.5661e-33
1.7407e-28
8.45725e-23
1.01889e-17
1.08957e-12
1.39477e-06
0.0325694
0.510301
0.937492
0.992423
1
1
1
1
0.999995
0.994167
0.821685
0.468671
0.140541
0.0400229
0.000275231
1.30791e-17
1.10858e-20
3.44224e-24
1.01967e-25
-1.34067e-24
3.97158e-26
5.54469e-27
2.12813e-25
1.33435e-23
5.08646e-22
1.356e-20
3.2984e-19
7.77477e-18
1.48221e-16
1.91186e-15
2.18841e-14
2.10277e-13
-1.68039e-54
-9.74189e-49
-2.66408e-132
-2.0984e-126
-6.8501e-123
3.7879e-109
-4.34108e-59
-1.91986e-61
-2.12971e-64
-8.74198e-68
-1.82289e-71
-3.50779e-75
-5.94127e-79
-8.52893e-83
-1.0075e-86
-1.03955e-90
-1.01692e-94
-8.74352e-99
-6.53e-103
-4.14241e-107
-6.16563e-39
-4.16894e-34
-2.23324e-30
-5.27318e-27
6.43978e-05
0.20301
0.549186
0.82509
0.994242
0.999542
0.999823
1
1
1
1
1
1
1
1
0.845889
0.179622
0.000404667
1.72061e-20
4.33502e-38
7.25673e-56
7.37524e-55
5.5379e-56
1.91359e-56
-3.6429e-31
-2.5036e-33
-2.33309e-36
-1.1115e-39
-3.53432e-43
-8.55031e-47
-1.64331e-50
-2.5063e-54
-1.15698e-35
-1.87701e-38
-1.82281e-41
-1.20719e-44
-6.12227e-48
-2.90126e-51
-1.31189e-54
-5.5014e-58
-2.2747e-61
-9.28625e-65
-3.49034e-68
-1.1918e-71
-3.67109e-75
-1.00189e-78
-2.51118e-82
-5.37312e-86
-8.55872e-90
-1.09022e-60
9.62478e-57
1.83338e-52
-3.87871e-52
-4.39968e-50
1.59744e-28
3.39132e-06
0.0363433
0.0601274
0.0100869
0.00207681
0.00157153
0.000505913
1.84289e-18
4.14882e-20
4.60275e-20
3.65188e-20
1.15102e-20
9.00923e-26
1.30908e-35
-5.26188e-41
-4.03752e-40
7.07845e-37
5.2979e-37
1.64975e-40
-6.80278e-44
-2.71016e-45
-2.93767e-47
1.26851e-57
2.97606e-53
5.7228e-54
-2.57993e-47
4.65817e-55
4.35494e-53
4.23723e-56
4.77453e-65
-3.20731e-29
-1.44765e-31
-4.2078e-33
-7.86369e-35
-5.60601e-37
-2.59571e-39
-9.743e-42
-3.40458e-44
-1.13978e-46
-3.74995e-49
-1.2812e-51
-4.53596e-54
-1.52044e-56
-4.68894e-59
5.19844e-57
7.07838e-50
3.604e-43
9.19063e-38
1.3898e-33
1.68543e-29
1.3357e-24
2.98742e-19
4.5698e-14
4.90228e-09
0.00106254
0.180818
0.599632
0.899255
0.986663
0.981074
0.823998
0.570872
0.265525
0.0618549
0.0162859
5.86647e-07
1.94312e-17
2.20694e-20
4.02882e-33
2.73421e-29
1.88322e-30
4.91149e-26
-3.27582e-25
3.62e-27
2.68615e-29
2.23421e-39
1.94174e-38
1.50848e-35
5.91256e-36
-5.43251e-40
9.61557e-32
-4.89098e-52
-1.22621e-40
7.6116e-28
4.62651e-27
-5.37463e-59
-3.28887e-53
-3.47055e-134
-2.71031e-128
-7.24117e-125
2.50608e-112
-3.74932e-62
-1.04659e-64
-8.31095e-68
-2.44093e-71
-3.89088e-75
-5.73678e-79
-7.49796e-83
-8.44798e-87
-8.14244e-91
-7.26211e-95
-6.52344e-99
-5.40529e-103
-3.91894e-107
-2.35695e-111
-1.87113e-62
-7.15375e-59
-9.00252e-57
-3.03653e-53
-1.63844e-49
-2.29914e-61
-2.18855e-58
-4.29374e-55
0.0764046
0.318583
0.584443
0.866436
0.999302
0.999745
0.999953
1
1
0.969969
0.535602
0.0438223
3.42305e-18
2.61495e-21
2.20186e-37
1.60384e-40
4.9408e-58
6.12763e-72
6.65235e-73
4.89534e-74
-2.73525e-33
-8.62805e-36
-6.95288e-39
-2.99972e-42
-8.65187e-46
-1.86697e-49
-3.104e-53
-3.99763e-57
-1.9682e-38
-3.32727e-41
-3.23042e-44
-2.11334e-47
-1.0517e-50
-4.80057e-54
-2.07241e-57
-8.24002e-61
-3.18715e-64
-1.20404e-67
-4.18743e-71
-1.32508e-74
-3.78653e-78
-9.59288e-82
-2.21435e-85
-4.3411e-89
-6.3011e-93
-7.38615e-71
-9.85992e-65
-1.24457e-61
-6.66442e-59
-1.73772e-56
-2.25694e-54
-1.18897e-52
1.60646e-32
1.95643e-42
3.39804e-20
1.39502e-20
3.85899e-20
9.22069e-21
3.1631e-35
4.05537e-37
8.96141e-37
6.68218e-37
1.96594e-37
5.37946e-43
3.43781e-57
-2.36083e-43
-2.56152e-42
-2.25832e-56
1.04703e-53
5.61868e-57
-2.2671e-44
-4.6194e-46
-4.76828e-48
-2.07338e-50
-7.45291e-53
-1.881e-55
-7.19415e-49
-6.2579e-52
-4.9354e-56
-5.53108e-76
-3.69574e-51
-4.18311e-31
-7.93019e-33
-2.12309e-34
-2.65091e-36
-1.70036e-38
-7.67345e-41
-2.91749e-43
-1.03537e-45
-3.4581e-48
-1.1421e-50
-3.87543e-53
-1.31263e-55
-4.13088e-58
-1.16348e-60
-3.25367e-63
7.22023e-61
5.50312e-55
4.95108e-48
1.89592e-41
4.39677e-36
5.40464e-32
5.84625e-28
1.17842e-23
2.43384e-18
8.94278e-14
8.36317e-10
1.66021e-05
0.00843433
0.0490942
0.0383551
0.0317078
0.0207611
0.000277483
9.84226e-18
1.27289e-27
9.24021e-24
5.36938e-33
1.14748e-36
-1.54362e-32
2.59556e-31
-1.07617e-29
5.59488e-27
-4.41767e-26
-4.57355e-28
-6.6378e-30
-8.62916e-32
-9.31267e-34
-7.4788e-36
-1.38971e-56
-3.16229e-39
-4.91392e-38
-9.94991e-39
-7.96313e-40
-1.29527e-39
-1.75059e-37
-1.55095e-63
-1.01888e-57
-3.30484e-136
-2.51075e-130
-5.58328e-127
9.10117e-132
-2.38418e-65
-4.35918e-68
-2.45504e-71
-5.16599e-75
-6.34362e-79
-7.21128e-83
-7.34495e-87
-6.64493e-91
-5.46439e-95
-4.46979e-99
-3.84372e-103
-3.09559e-107
-2.17195e-111
-1.23874e-115
-4.20856e-79
-2.00246e-74
-2.27941e-70
-1.27281e-66
-4.6743e-63
-1.70327e-59
-7.76843e-56
-4.09441e-52
-1.53133e-48
-3.59747e-45
-6.40264e-42
0.000227541
0.143752
0.376584
0.521163
0.533115
0.379419
0.0849413
0.000818619
-9.10309e-33
2.31237e-35
1.63687e-38
1.3612e-54
4.11174e-66
1.42197e-60
-1.51587e-62
-5.10638e-64
-9.77102e-66
-1.03097e-35
-2.14593e-38
-1.47598e-41
-5.64378e-45
-1.44542e-48
-2.72561e-52
-3.84443e-56
-4.08356e-60
-3.30433e-41
-5.66129e-44
-5.46755e-47
-3.53559e-50
-1.71988e-53
-7.49188e-57
-3.05608e-60
-1.14245e-63
-4.11621e-67
-1.4383e-70
-4.63341e-74
-1.36091e-77
-3.61298e-81
-8.50615e-85
-1.81123e-88
-3.25708e-92
-4.35229e-96
-1.48074e-86
-3.8702e-79
-1.12089e-75
-1.37926e-72
-7.90565e-70
-2.15256e-67
-9.66881e-64
1.61787e-61
1.73302e-40
9.74688e-38
9.06916e-38
4.80608e-58
4.62197e-55
5.8048e-52
4.122e-54
5.17486e-75
3.75949e-71
5.77022e-67
-1.12551e-62
-5.46411e-50
-1.07812e-45
-1.62343e-44
-1.21853e-48
-1.77732e-52
-3.87319e-56
-2.02745e-45
-3.88974e-47
-3.85306e-49
-2.07269e-51
-8.25852e-54
-2.62896e-56
-9.20047e-51
-1.00766e-53
-4.72025e-57
-1.91195e-60
-5.75204e-52
-2.73243e-33
-2.6794e-34
-6.10747e-36
-6.4005e-38
-3.84616e-40
-1.69946e-42
-6.51429e-45
-2.33892e-47
-7.78192e-50
-2.56245e-52
-8.56282e-55
-2.76456e-57
-8.03667e-60
-2.04577e-62
-5.20987e-65
-1.34145e-67
-1.50291e-69
-7.80367e-66
-1.47379e-62
-9.46844e-60
-1.2394e-55
-2.63211e-51
-1.78821e-48
-1.40914e-46
-4.30433e-45
-6.5986e-44
-4.30129e-43
-9.81249e-44
3.87932e-20
1.41191e-18
-9.09049e-36
1.90561e-22
2.66626e-20
2.76064e-32
5.62141e-31
3.51063e-33
-4.27662e-52
-4.21542e-32
-3.07259e-32
3.34934e-51
-1.04532e-29
-4.45491e-46
-4.28576e-27
-8.47573e-29
-1.28074e-30
-1.57485e-32
-1.65125e-34
-1.4761e-36
-1.17392e-38
-1.76542e-39
-2.76082e-38
-5.68293e-39
-4.6681e-40
-8.2017e-40
-1.16528e-37
-4.08352e-68
-2.89637e-62
-2.42755e-138
-1.77702e-132
-3.3403e-129
-1.01579e-127
-1.13677e-68
-1.39875e-71
-5.55697e-75
-8.39159e-79
-7.96826e-83
-7.03496e-87
-5.69508e-91
-4.32085e-95
-3.2281e-99
-2.54117e-103
-2.11958e-107
-1.65454e-111
-1.12103e-115
-6.07339e-120
-1.71673e-77
-8.39941e-73
-1.02919e-68
-6.87157e-65
-3.83205e-61
-2.45389e-57
-1.57464e-53
-8.88413e-50
-3.46472e-46
-1.07945e-42
-5.70697e-39
-3.63647e-35
-1.13999e-32
-5.55279e-28
3.83194e-08
0.000125142
0.000156357
3.12819e-19
-7.30629e-36
-8.93753e-34
5.63623e-60
1.02418e-55
4.60862e-60
-1.40623e-61
-3.2515e-62
-2.26112e-63
-6.2346e-65
-1.07787e-66
-2.55387e-38
-3.98028e-41
-2.324e-44
-7.74348e-48
-1.72639e-51
-2.78408e-55
-3.25454e-59
-2.76588e-63
-5.3763e-44
-9.28771e-47
-8.9157e-50
-5.66859e-53
-2.66948e-56
-1.09806e-59
-4.19787e-63
-1.46806e-66
-4.92053e-70
-1.59226e-73
-4.75989e-77
-1.29976e-80
-3.2093e-84
-7.02434e-88
-1.38109e-91
-2.28675e-95
-2.84145e-99
-2.77547e-103
-2.29089e-97
-7.58976e-94
-1.3346e-90
-1.87094e-87
-2.32658e-84
-2.15971e-81
-2.99469e-78
1.96358e-58
2.46804e-55
5.62318e-55
1.96208e-77
4.814e-81
6.21128e-75
-7.84001e-74
-1.60536e-67
-6.6585e-64
-3.82043e-60
-3.3207e-56
-4.64009e-52
-4.87097e-48
-1.00968e-46
-1.44943e-50
-3.12407e-54
-8.84989e-58
-1.18254e-46
-2.17163e-48
-2.06877e-50
-1.17719e-52
-4.89474e-55
-1.62152e-57
-7.2801e-53
-9.20326e-56
-5.9946e-59
-3.32658e-62
-5.6717e-53
-1.19215e-35
-6.37371e-36
-1.27294e-37
-1.20517e-39
-6.90701e-42
-3.00058e-44
-1.15556e-46
-4.17843e-49
-1.38166e-51
-4.51795e-54
-1.47834e-56
-4.53132e-59
-1.21398e-61
-2.81001e-64
-6.53974e-67
-1.54215e-69
-7.5613e-70
-5.42666e-66
-1.05344e-62
-7.32066e-60
-7.32235e-57
-5.18469e-53
-4.10778e-50
-3.90746e-48
-1.57215e-46
-3.73829e-45
-6.11234e-44
-6.44917e-43
2.45034e-58
9.88383e-39
-1.84514e-36
-4.05889e-52
1.97258e-36
2.49105e-32
6.0158e-31
4.95433e-33
-2.51e-35
-4.70943e-32
-2.94625e-32
-4.9268e-32
-4.84111e-30
-3.99095e-30
-3.2916e-28
-7.84467e-30
-1.24727e-31
-1.56222e-33
-1.6631e-35
-1.6051e-37
-1.52522e-39
-5.72895e-40
-9.30202e-39
-1.94332e-39
-1.63346e-40
-2.98245e-40
-4.33436e-38
-9.84358e-73
-7.55704e-67
-1.42017e-140
-9.99374e-135
-1.61024e-131
-7.25008e-130
-4.10239e-72
-3.46373e-75
-9.6844e-79
-1.05158e-82
-7.75386e-87
-5.40376e-91
-3.62204e-95
-2.46165e-99
-1.76659e-103
-1.36036e-107
-1.09838e-111
-8.29147e-116
-5.42347e-120
-2.79852e-124
-4.40021e-103
-2.96497e-98
-5.19108e-94
-4.70113e-90
-2.76066e-86
-1.27997e-82
-5.15472e-79
-1.9877e-75
-6.36752e-72
-1.70876e-68
-4.2242e-65
-7.35724e-62
-8.55414e-59
-6.00704e-56
-2.15548e-53
2.01129e-62
9.40632e-46
-5.58499e-40
-2.78875e-37
-4.43356e-35
8.28909e-79
-1.60015e-83
-9.22554e-62
-3.30872e-62
-4.24093e-63
-1.89641e-64
-4.439e-66
-6.88402e-68
-4.57608e-41
-5.62766e-44
-2.77374e-47
-7.92387e-51
-1.50599e-54
-2.02563e-58
-1.90387e-62
-1.24081e-66
-8.49535e-47
-1.47828e-49
-1.40145e-52
-8.6664e-56
-3.90721e-59
-1.50486e-62
-5.36571e-66
-1.75191e-69
-5.46573e-73
-1.64134e-76
-4.56183e-80
-1.15959e-83
-2.66475e-87
-5.42416e-91
-9.86527e-95
-1.51383e-98
-1.79134e-102
-1.46583e-106
-3.95309e-109
-2.51772e-106
-7.05516e-104
-1.07876e-101
-9.82399e-100
-6.22536e-98
-5.31583e-96
-5.38271e-94
-4.75815e-101
-8.20454e-84
-1.5984e-82
-1.36876e-79
-3.71468e-76
-1.16956e-72
-3.81008e-69
-1.31306e-65
-5.90955e-62
-3.62742e-58
-2.97421e-54
-2.15647e-50
-6.10274e-49
-1.25867e-52
-3.54054e-56
-1.21569e-59
-5.13235e-48
-9.04575e-50
-8.30068e-52
-4.77595e-54
-2.01892e-56
-6.81237e-59
-4.3574e-55
-6.398e-58
-5.32941e-61
-3.80647e-64
-4.14761e-54
-3.9357e-38
-1.15707e-37
-2.09688e-39
-1.85456e-41
-1.02487e-43
-4.38897e-46
-1.69353e-48
-6.14613e-51
-2.01578e-53
-6.51387e-56
-2.07437e-58
-6.01687e-61
-1.4852e-63
-3.14367e-66
-6.72653e-69
-1.46388e-71
-3.56122e-70
-2.8269e-66
-5.78758e-63
-4.36504e-60
-6.64261e-57
-3.70975e-53
-2.50577e-50
-2.65599e-48
-1.33553e-46