/*--------------------------------*- C++ -*----------------------------------*\
| =========                 |                                                 |
| \\      /  F ield         | OpenFOAM: The Open Source CFD Toolbox           |
|  \\    /   O peration     | Version:  v1912                                 |
|   \\  /    A nd           | Website:  www.openfoam.com                      |
|    \\/     M anipulation  |                                                 |
\*---------------------------------------------------------------------------*/
FoamFile
{
    version     2.0;
    format      ascii;
    class       volScalarField;
    location    "20";
    object      p_rgh;
}
// * * * * * * * * * * * * * * * * * * * * * * * * * * * * * * * * * * * * * //

dimensions      [1 -1 -2 0 0 0 0];


internalField   nonuniform List<scalar> 
14268
(
506936
576761
577127
562586
519782
450364
358432
247754
121383
-17928
-167108
-322353
-479142
-632247
-775887
-904101
-1.01132e+06
-1.09302e+06
-1.14643e+06
-1.17129e+06
-1.17334e+06
-1.16453e+06
-1.079e+06
-1.00664e+06
-921748
-829675
-733941
-636917
-539788
-442819
-345733
-248154
-150019
-51904.2
44820.4
137977
224798
302312
367787
419130
455232
476196
483566
482936
478279
466110
448139
402709
371907
343808
317554
291877
265984
239141
210837
180862
149340
116696
83559.7
50633.5
18536.1
-12077
-41038.3
-68200
-93576.3
-117200
-139063
-159064
-176884
-192015
-203805
-211611
-214682
-214103
-205508
-192264
-174863
-153922
-130443
-105633
-80687.6
-56712.2
-34604.8
-15106.3
1733.5
15367.9
25987
33925.1
39575.8
43353.4
45651.3
46813.9
47119.8
46910.7
46462.9
45749.2
44806.9
43655.6
42324.3
40846.7
39252
37535.3
35779
33448.4
31927
30374.5
28949.6
27548
26152.5
24734.3
23272.3
21743.6
20119.2
18358.6
16407.9
14200.1
11660.7
8716.95
5314.63
1425.2
-2918.06
-7657.24
-12614.4
-17596.4
-22351.8
-26617.9
-30129.8
-32663.2
-34035
-34180.2
-33007.6
-30693.5
-27339.4
-23179.8
-18470.1
-13484
-8488.53
-3717.45
631.898
4430.12
7573
10043.4
11833.7
12991.9
13558.2
13631
13208.8
12514.9
11501
10281.3
8778.7
7183.81
5541.58
3971.34
2456.57
1085.14
-130.058
-1158.79
-1998.69
-2649.32
-3128.78
-3460.07
-3670.45
-3759.07
350124
408176
413127
408673
383420
334297
264144
176489
74482.7
-38964.2
-160715
-287064
-414028
-537327
-652436
-754816
-840318
-905658
-948914
-970175
-973401
-968990
-899987
-842707
-774743
-699709
-620804
-539906
-458101
-375872
-293355
-210625
-127959
-46045.7
33940.9
110292
180979
243889
297133
339311
369759
388730
397567
399060
397779
391576
380227
341861
317219
293725
271273
248901
226159
202637
178066
152358
125630
98184
70449.7
42908.1
16053.1
-9835.04
-34386.8
-57503.6
-79119.2
-99205.8
-117688
-134376
-148991
-161159
-170428
-176384
-178537
-177993
-170627
-159844
-145856
-129128
-110374
-90489.8
-70365
-50834.2
-32586
-16139.4
-1920.29
9858.42
19337.3
26648.1
32062.1
35876.7
38387.5
39867.1
40557.6
40705.9
40514.8
40173.9
39593.3
38787.7
37783.9
36610.1
35288.7
33811.2
32246.7
30096.5
28697.1
27247
25905.3
24577
23248.4
21892.4
20487.6
19009.8
17430.2
15713.1
13814.5
11683.9
9268.91
6522.47
3415.44
-60.011
-3861.58
-7926.94
-12105.7
-16237.5
-20115.1
-23532.6
-26285.3
-28204.4
-29153.3
-29094.8
-27953.4
-25890
-22983
-19424.3
-15418.4
-11185.8
-6942.7
-2879.68
837.949
4096.85
6812.85
8957.99
10518.8
11530.8
12021.5
12073.6
11687
11041.5
10125.3
9024.98
7653.65
6215.16
4729.4
3317.41
1954.44
721.958
-371.612
-1299.75
-2060.63
-2655.17
-3097.94
-3403.36
-3601.53
-3685.67
239040
278085
283438
281939
268043
235131
183753
116493
36137.2
-54590.6
-152618
-254365
-356310
-455021
-547000
-628818
-697388
-750300
-786173
-805054
-809145
-806382
-753927
-708922
-655300
-596171
-532483
-465705
-396901
-326766
-255754
-184251
-112754
-42001
26950.1
92716.6
153681
208192
254774
292319
320288
338874
349150
353259
353261
350613
343246
309406
288513
267835
247733
227423
206621
185057
162560
139086
114740
89767.6
64516.6
39380.6
14750.1
-9032.21
-31718.2
-53157.4
-73249.6
-91911.5
-109033
-124444
-137887
-149030
-157481
-162890
-164851
-164341
-157469
-147712
-134985
-119776
-102698
-84550.8
-66126.5
-48176.5
-31329.9
-16108.6
-2711.77
8409.35
17395.7
24392.6
29636.5
33389.3
35915.5
37462.9
38254
38508.4
38390.2
38109.9
37631.7
36939.9
36050.4
34986.5
33766.2
32383.6
30890
28838.7
27489.6
26090.9
24791.3
23502
22209.9
20889
19518.3
18074.3
16529.3
14849.3
12993.2
10914.7
8566.58
5906.83
2911.2
-425.881
-4058.76
-7944.73
-11906.2
-15814.4
-19468.6
-22676.5
-25246.5
-27021.7
-27875.1
-27773.8
-26646.6
-24646.6
-21848.3
-18432.9
-14593.8
-10539.3
-6474.72
-2580.6
984.001
4115.45
6719.89
8779.87
10277.2
11245.5
11710.3
11748.9
11365.4
10721
9820.94
8743.72
7388.23
5983.71
4526.58
3144.55
1810.83
605.466
-463.046
-1369.08
-2111.61
-2689.18
-3117.55
-3416.1
-3608.54
-3688.29
151798
173199
176745
175769
168219
147379
111833
62858.2
2537.89
-66942
-144077
-223894
-304030
-381894
-454826
-520233
-575781
-619631
-650681
-668831
-675222
-674205
-636279
-601830
-559695
-511772
-459170
-403088
-344511
-284209
-222806
-160877
-99050.2
-38088.1
21075.6
77273.8
129260
175789
215772
248410
273339
290744
301436
306788
308097
307098
303007
273765
256652
238717
220921
202679
183872
164373
144115
123109
101457
79351.3
57053.2
34857.7
13071.7
-8046.2
-28243.7
-47376.7
-65316.5
-81946.6
-97130
-110684
-122379
-131943
-139080
-143540
-145044
-144489
-138200
-129788
-118828
-105808
-91197.8
-75645.7
-59792
-44248.4
-29536.4
-16068.8
-4135.06
5875.05
14091.1
20599.3
25579.8
29237.7
31787.4
33436.7
34379.1
34798.1
34842.6
34635.9
34317.7
33807.5
33098.5
32206.9
31145.1
29908.4
28525
26614.8
25339.4
24011.7
22768.7
21530.5
20285.6
19009.8
17682.3
16280.1
14776.8
13141.8
11340.1
9334.93
7091.19
4580.94
1793.42
-1265.84
-4546.55
-7996.32
-11491.8
-14876.1
-17992.3
-20679.5
-22782.4
-24176.7
-24763.6
-24527.7
-23406.8
-21548.5
-19013.6
-15959.8
-12551.2
-8964.23
-5373.87
-1933.27
1217.72
3993.94
6301.24
8129.56
9455.22
10306.2
10702
10708.4
10338.9
9703.75
8860.79
7859.81
6571.76
5276.78
3920.75
2643.71
1412.66
302.467
-680.343
-1513.44
-2196.07
-2728.49
-3125.24
-3401.76
-3578.34
-3650.04
96250.3
106340
108086
107211
102742
89200.9
64282.4
28112.7
-18036.7
-72455.1
-135023
-199064
-263289
-325742
-384387
-437250
-482559
-518908
-545414
-561849
-568651
-567849
-540899
-514006
-480411
-441354
-397682
-350361
-300282
-248236
-194940
-141074
-87336.6
-34485.8
16666.7
65093.9
109847
149982
184691
213391
235824
252142
262935
269139
271617
271191
269279
244237
230206
214592
198762
182318
165256
147548
129196
110243
90785.3
70977.5
51020.4
31140.9
11581.6
-7435.94
-25670.7
-42989.3
-59246.1
-74301.5
-88002.4
-100170
-110598
-119055
-125304
-129157
-130407
-129848
-124022
-116639
-106964
-95504.7
-82635.9
-68908
-54861
-41016.5
-27824.1
-15679.2
-4684.37
4498.15
12105.8
18199.3
22926.5
26456.6
28971.1
30649.8
31663
32171.1
32305.9
32174.6
31905.4
31503.4
30914.1
30143
29195.6
28069.5
26768.2
24983.3
23768.3
22504.3
21313.3
20124
18925.3
17694.5
16412
15055.6
13600.2
12017.5
10276.3
8344.55
6193.27
3800.87
1162.29
-1713.73
-4773.93
-7978.4
-11202.3
-14297.4
-17122.8
-19534.9
-21395.4
-22595.5
-23049.9
-22750.2
-21637
-19854.4
-17455.3
-14585.6
-11394.9
-8044.1
-4693.73
-1483.32
1455.67
4047.98
6197.88
7901.11
9130.54
9912.3
10263.8
10243.8
9871.55
9234.67
8409.05
7442.63
6161.49
4919.83
3603.55
2368.84
1180.5
110.408
-834.402
-1633.42
-2286.79
-2792.96
-3170.89
-3427.8
-3594.73
-3658.5
65797.4
69632.3
69459
68283
64002.2
53349.3
34287.3
6313.32
-30027.3
-73579.7
-125691
-177727
-229656
-280102
-327531
-370450
-407520
-437669
-460178
-474739
-481357
-480814
-461946
-440891
-413933
-381862
-345356
-305203
-262197
-217119
-170726
-123758
-76943.7
-31022.7
13306.8
55102
93669.7
128303
158416
183594
203668
218757
229279
235848
239030
239266
238305
217435
205863
192282
178193
163371
147903
131841
115244
98179.9
80742.6
63054.1
45265.7
27546.7
10086.2
-6941.39
-23288.2
-38844.6
-53454.6
-66964.8
-79212.1
-90020.7
-99203.9
-106571
-111940
-115177
-116144
-115553
-110136
-103705
-95240.9
-85266.4
-74069.4
-62107
-49823.4
-37650.3
-25963.7
-15099.8
-5078.42
3223.34
10180.2
15818.5
20254.2
23622
26070.7
27752.3
28814
29394.3
29610.8
29558.9
29324.2
29009.7
28534.7
27882
27048.9
26034.7
24816.8
23161.6
22007.8
20808.2
19669.4
18529
17376.7
16191.6
14954.8
13645.2
12239.5
10711.7
9034.96
7183.16
5134.72
2876.29
410.482
-2248.57
-5043.56
-7942.99
-10839.6
-13570
-16024.7
-18079.9
-19620.5
-20558.3
-20827.2
-20430.4
-19311.7
-17616.8
-15387.5
-12756.4
-9853.99
-6821.2
-3798.6
-906.632
1735.05
4076.34
5995.46
7517.29
8605.99
9285.33
9569.87
9509.92
9130.77
8492.34
7694.45
6793.69
5503.29
4357.75
3110.44
1946.79
831.078
-170.48
-1051.05
-1793.11
-2397.27
-2863.52
-3203.5
-3448.26
-3595.92
-3648.42
46300.4
47111.7
46202.6
44533
40101.5
30919.8
15451.6
-7002.48
-36467.2
-73522
-116560
-159131
-201415
-242404
-280946
-315915
-346303
-371295
-390308
-403001
-409162
-408880
-395830
-379310
-357561
-331097
-300444
-266239
-229187
-190039
-149563
-108522
-67653.9
-27667.4
10840.7
46975.7
80267.9
110195
136343
158426
176337
190172
200216
206865
210475
211274
210624
193680
184033
172213
159656
146288
132265
117700
102692
87329.3
71699.3
55898.4
40037.2
24238.5
8647.16
-6601.17
-21250.7
-35219.5
-48346.6
-60470.2
-71422.2
-81032.2
-89132
-95563.5
-100187
-102913
-103652
-103036
-97988.1
-92379
-84952.8
-76240.6
-66462.9
-55999.9
-45217.7
-34472.2
-24081
-14323
-5141
2370.64
8724.07
13926.7
18067.9
21255.4
23611.4
25264.2
26340.9
26962.3
27232.7
27238.9
27050.9
26774.8
26385.7
25830.6
25096.1
24181.7
23039.3
21508.7
20413.9
19278.2
18192.1
17102.1
15998.3
14861.6
13674.3
12416.2
11065.5
9598.51
7991.4
6222.28
4274.63
2140.57
-172.603
-2647.24
-5225.82
-7889.31
-10528.9
-12980.7
-15157.2
-16946.9
-18251.4
-18997.1
-19130.8
-18663.7
-17540.6
-15908.7
-13800.7
-11340.1
-8644.05
-5839.04
-3052
-390.206
2034.99
4182.47
5936.83
7321.72
8301.61
8898.89
9126.98
9029.75
8636.25
7991.62
7202.77
6316.92
5057.73
3948.68
2742.12
1619.82
548.862
-409.668
-1247.99
-1951.14
-2520.42
-2954.84
-3282.94
-3489.01
-3623.85
-3665.44
33033.1
32512.2
31426.2
29309.1
24840
16686.7
3706.05
-14804.6
-39176.5
-71705.1
-107619
-142680
-177293
-210733
-242144
-270685
-295605
-316288
-332268
-343216
-348839
-348867
-339929
-326969
-309363
-287447
-261618
-232388
-200380
-166304
-130920
-94996.3
-59264.8
-24394.8
9103.61
40356.9
69099.5
94951.9
117631
136953
152857
165422
174838
181350
185153
186312
185733
172501
164236
153926
142716
130653
117941
104741
91184.5
77371.2
63383.2
49294.6
35182.5
21130.4
7245.44
-6373.37
-19455.2
-31952.8
-43703.3
-54541
-64295.7
-72803
-79911.5
-85490.9
-89438.3
-91699.2
-92225.1
-91576.9
-86860.4
-81972.6
-75467.7
-67875.2
-59362.3
-50241.7
-40811.8
-31359.5
-22146.6
-13285.7
-5064.89
1758.21
7519.32
12284.2
16117
19103.4
21342.1
22940.2
24006.5
24645.9
24951.3
25001.2
24859.5
24598.6
24274.6
23803.7
23158.1
22336.1
21265
19855.3
18818
17744.5
16710.2
15670.2
14614.8
13527.1
12390.2
11185.3
9891.84
8488.28
6953.75
5270.32
3426.25
1418.97
-739.754
-3028.99
-5389.29
-7832.95
-10204
-12374.1
-14268.2
-15786.6
-16847.5
-17391.4
-17380.1
-16832.6
-15696.3
-14120.3
-12129.7
-9839.42
-7353.79
-4784.96
-2245.64
171.144
2362.73
4310
5874.67
7104.61
7959.8
8461.32
8621.5
8478.27
8063.37
7408.31
6626.43
5752.72
4534.6
3462.81
2305.11
1231.38
214.256
-691.664
-1478.12
-2133
-2657.75
-3053.82
-3342.9
-3533.48
-3649.76
-3677.1
23776.2
22773.7
21501.2
19157.6
14818.5
7538.96
-3550.65
-19124.5
-39808.7
-68470.7
-98915.4
-127967
-156409
-183761
-209395
-232696
-253111
-270182
-283549
-292918
-298000
-298404
-292306
-282150
-267868
-249676
-227857
-202820
-175108
-145388
-114404
-82916.1
-51638.4
-21199.7
7964.49
34980.3
59776.6
82080.3
101709
118556
132600
143907
152604
158828
162658
164038
163496
153421
146262
137246
127223
116331
104810
92857
80626.5
68227.1
55733.7
43201.4
30678.2
18214.6
5885.24
-6245.2
-17885.3
-29028.1
-39511.1
-49167.3
-57826.6
-65331
-71544.2
-76359.7
-79704.6
-81553.2
-81888.7
-81207.5
-76797.8
-72536.9
-66842
-60230.5
-52828.2
-44890.4
-36657.8
-28358.6
-20207.2
-12235.2
-4878.75
1383.92
6579.79
10918.7
14440.2
17213.4
19317.2
20839.8
21873.9
22510.8
22833.1
22911.4
22804.5
22566.1
22276.6
21874.2
21306.3
20568.2
19564
18270.2
17289.4
16277.3
15295.2
14305.9
13300.5
12263.6
11179.7
10031
8798.25
7461.73
6002.9
4406.9
2665.62
780.609
-1233.25
-3351.92
-5507.28
-7742.52
-9904.25
-11833.9
-13485.9
-14772.4
-15624.7
-15995.3
-15858.6
-15238.6
-14088.6
-12554.3
-10657.6
-8506.32
-6194.14
-3821.53
-1489.47
719.906
2711.67
4470.68
5885.24
6978.14
7721.78
8135.1
8230.62
8041.4
7600.7
6931.59
6147.77
5275.23
4089.06
3039.05
1916.88
877.548
-98.9626
-963.989
-1708.37
-2322.96
-2807.83
-3170.45
-3433.91
-3593.69
-3690.48
-3704.14
17206.3
16049.9
14627.3
12207.1
8104.23
1613.68
-7956.61
-21295.1
-39970.8
-64630.2
-90570.3
-114702
-138122
-160520
-181441
-200442
-217126
-231166
-242287
-250254
-254820
-255680
-251484
-243533
-231936
-216813
-198352
-176868
-152835
-126872
-99703
-72071.5
-44670.6
-18086.2
7310.66
30626.5
51983.5
71180.9
88112.9
102732
115050
125127
133047
138877
142615
144123
143617
136112
129882
121975
113000
103160
92721
81908.8
70893.6
59788.5
48661.4
37550
26477.9
15467.1
4563.39
-6201.95
-16508.8
-26398.5
-35709.4
-44275
-51927
-58513.8
-63912.3
-68036.3
-70838.2
-72315.4
-72476.5
-71758.6
-67637.5
-63918.4
-58937
-53188.1
-46766.4
-39877.7
-32713.4
-25451
-18262.3
-11092.1
-4528.68
1206.87
5855.26
9775.15
12982.2
15531.5
17484.5
18913.4
19896.5
20512.8
20835.7
20929
20845.9
20631.1
20356.3
20007.7
19507.3
18845.1
17903.4
16720
15794.4
14842.3
13911.9
12973.2
12018
11032.8
10003.2
8912.57
7742.89
6475.87
5095.03
3588.04
1949.76
185.331
-1688.31
-3642.67
-5611.06
-7657.7
-9612.16
-11316.4
-12741.7
-13809.8
-14463.8
-14667.3
-14407
-13710.4
-12544
-11039
-9223.27
-7197.13
-5044.79
-2856.16
-721.22
1287.83
3084.7
4667.25
5924.61
6875.88
7503.43
7823.18
7848.24
7607.59
7134.94
6446.9
5656.02
4779.56
3624.09
2591.5
1503.67
497.804
-437.76
-1260.21
-1960.09
-2531.02
-2970.78
-3296.29
-3523.84
-3658.59
-3735.14
-3732.06
12486.3
11273
9754.26
7353.61
3540.21
-2233.14
-10546.8
-22144.3
-39427.1
-60443.9
-82599.4
-102641
-121949
-140291
-157345
-172800
-186386
-197876
-207075
-213805
-217886
-219289
-216311
-210083
-200661
-188083
-172450
-153995
-133124
-110415
-86563.4
-62296.6
-38282.7
-15065.6
7042.9
27115.1
45465.6
61935.3
76474.8
89084.2
99800.6
108685
115797
121159
124715
126282
125832
120323
114904
107952
99906
91012.8
81559.8
71792.7
61893.4
51976.3
42101.5
32291.6
22549
12871.1
3278.22
-6232.68
-15303.5
-24032.4
-32258.1
-39816.6
-46542
-52288.8
-56945.9
-60444.1
-62756.5
-63899.2
-63901.1
-63144.9
-59299
-56045.1
-51691.2
-46699.1
-41141.5
-35181.6
-28969.5
-22639.4
-16324.9
-9905.68
-4051.17
1192.43
5318.76
8829.76
11723.2
14041.8
15832.3
17152.9
18069.3
18649.8
18959.3
19055.3
18986.3
18792.7
18523.6
18213.2
17770.6
17176.3
16293.5
15214.7
14343.6
13450.1
12571.2
11683.3
10779.1
9846.79
8873.14
7842.65
6738.35
5543.22
4242.33
2825.22
1288.99
-358.433
-2099.12
-3899.84
-5712.31
-7573.34
-9340.71
-10844.7
-12066.9
-12939.1
-13414.2
-13465.1
-13089.1
-12308.1
-11141.4
-9644.65
-7893.83
-5972.73
-3957.82
-1929.94
30.7241
1859.89
3483.97
4900.86
6011.28
6828.11
7344.44
7572.74
7527.16
7233.43
6724.92
6014.22
5210.33
4323.92
3191.16
2167.85
1106.38
126.24
-775.529
-1561.14
-2220.96
-2750.21
-3148.12
-3434.44
-3630.8
-3735.55
-3787.12
-3768.84
9057.13
7799.24
6235.45
3910.68
403.225
-4724.74
-11995.3
-22432
-38085.8
-55981.3
-74937.4
-91573.8
-107510
-122524
-136392
-148917
-159925
-169273
-176829
-182471
-186092
-188126
-185872
-180974
-173315
-162854
-149614
-133752
-115614
-95732.6
-74778
-53457.4
-32414.6
-12153.7
7068.38
24295.3
40015.9
54086
66498.6
77290.6
86521.9
94258.4
100547
105386
108692
110260
109890
105861
101160
95033.6
87814.6
79777.3
71225.2
62418.6
53546.6
44722.3
35997.9
27382.8
18861.5
10410.2
2027.16
-6327.52
-14249.1
-21900
-29118.7
-35744.9
-41616.1
-46592.7
-50574
-53505
-55375.4
-56216.4
-56073.3
-55284.5
-51691.1
-48839.4
-45036.5
-40706.9
-35909.1
-30771.2
-25408
-19917.1
-14396.2
-8669.5
-3467.52
1284.77
4941.12
8054.27
10636.9
12719.9
14338.6
15538.8
16375.1
16906.4
17190.2
17277.9
17213.4
17032.9
16772.2
16483.6
16088.8
15554.9
14727.1
13747.1
12929.4
12093.2
11265.3
10428.2
9575.3
8696.61
7780.06
6811.24
5774.18
4652.88
3433.6
2107.16
672.272
-861.018
-2474.49
-4129.76
-5800.22
-7487.76
-9083.67
-10407.5
-11443.8
-12136.4
-12445.4
-12352.7
-11865.2
-11004
-9818.16
-8324.78
-6625.8
-4793.89
-2899.85
-1016.69
784.179
2445.57
3907.65
5163.61
6132.59
6815.95
7220.08
7354.66
7235.09
6884.56
6335.29
5597.46
4775.37
3874.15
2758.2
1739.05
699.225
-258.944
-1129.77
-1879.76
-2499.72
-2983.52
-3340.81
-3586.76
-3744.05
-3817.72
-3843.01
-3808.52
6529
5230.78
3654.82
1433.77
-1774.93
-6329.42
-12739.2
-22571.1
-36178.2
-51279.7
-67118.1
-81292
-94508.7
-106791
-118032
-128132
-136998
-144549
-150704
-155389
-158563
-161303
-159432
-155539
-149303
-140605
-129398
-115769
-100002
-82589.3
-64174.1
-45443.6
-27018.4
-9369.04
7290.82
22040.1
35464.5
47423.2
57943.1
67090.6
74945
81580.4
87041.8
91317.4
94312.9
95826.7
95552.2
92565.9
88502
83093.5
76614.2
69354.9
61629.9
53709.3
45785.6
37968.4
30302.3
22786
15389
8069.76
808.003
-6475.9
-13328.1
-19975.4
-26257.2
-32018.3
-37100.6
-41370.1
-44734.9
-47151.7
-48623.3
-49192
-48917
-48121.5
-44723.1
-42237.2
-38916.5
-35164.4
-31033.2
-26621.3
-22014.5
-17279.7
-12485.8
-7398.41
-2800.88
1412.47
4698.4
7425.18
9701.65
11546.6
12986.6
14056.7
14801.9
15272.9
15520.2
15589.9
15521.5
15347.3
15095
14817
14461.1
13980
13203.9
12316.9
11551.9
10771.5
9994.43
9207.89
8406.61
7582.13
6723.67
5817.9
4849.72
3803.93
2667.59
1432.21
97.4544
-1325.13
-2817.41
-4335.41
-5876.37
-7407.26
-8850.57
-10009
-10879
-11408.4
-11564.6
-11337.8
-10742.8
-9804.02
-8584.24
-7087.86
-5427.37
-3668.67
-1878.27
-122.716
1534.38
3041.93
4354.7
5456.77
6291.03
6844.29
7137.71
7178.45
6983.37
6573.73
5979.94
5211.18
4366.07
3445.28
2338.87
1318.13
293.62
-648.07
-1492.85
-2210.61
-2793.4
-3230.47
-3545.67
-3748.62
-3867.8
-3908.42
-3905.13
-3853.38
4637.11
3303.32
1734.53
-373.666
-3305.56
-7358.25
-13112.7
-22299.7
-33872.5
-46413.2
-59434.3
-71668.6
-82712.3
-92754
-101828
-109924
-117017
-123070
-128037
-131880
-134608
-138100
-136387
-133227
-128127
-120899
-111425
-99726.5
-86029.2
-70784.4
-54608
-38166.9
-22060.2
-6734.83
7596.86
20243.1
31674.4
41779.6
50617.8
58279.1
64859
70441.3
75075.5
78752.6
81382.6
82785.8
82596.5
80304.2
76794.9
72015.1
66204.4
59659.9
52701.6
45603.8
38558.9
31671
24978.2
18471.5
12108.8
5833.63
-382.86
-6662.91
-12526.6
-18236.7
-23642.7
-28597.6
-32949.1
-36568.8
-39372.1
-41324.9
-42439.6
-42765.3
-42369.4
-41539.3
-38401.4
-36196.2
-33290.1
-30036.9
-26485.4
-22710.2
-18773.2
-14718.2
-10582.2
-6085.33
-2056.25
1624.08
4575.99
6924.87
8899.71
10505.1
11761
12693.1
13338.2
13739.3
13941.1
13984.3
13904.2
13729.8
13484.4
13209.6
12883.8
12448.4
11720.5
10921
10208
9482.4
8755.77
8019.71
7270.12
6500.15
5700.37
4858.58
3960.57
2991.77
1939.79
796.159
-439.106
-1753.77
-3130.13
-4518.25
-5940.72
-7328.19
-8636.73
-9641.21
-10366.4
-10748.9
-10764.9
-10413.5
-9714.16
-8697.25
-7433.46
-5925.52
-4289.73
-2588.59
-885.185
758.842
2286.64
3652.26
4826.25
5781.34
6484.43
6909.23
7091.7
7037.21
6764.12
6292.47
5650.17
4846.5
3973.8
3028.85
1925.02
897.393
-117.759
-1047.92
-1870.69
-2558.9
-3101.94
-3495.98
-3764.61
-3912.05
-3999.23
-4005.19
-3972.32
-3900.98
3656.18
2302.63
748.64
-1283.31
-4047.9
-7808.18
-13319.1
-21855.3
-32167.4
-43196.9
-54582.2
-65675
-75464.4
-84223.7
-92062.4
-99020.2
-105106
-110305
-114586
-117925
-120351
-124364
-122685
-119885
-115410
-109024
-100563
-90002.4
-77531
-63574.6
-48732.8
-33661.2
-18946.6
-5026.04
7853.34
19297.6
29538.9
38530.4
46346
53089.7
58866.9
63768.6
67851
71111.6
73470.3
74779.5
74614.4
72633.6
69447.4
65040.3
59636.9
53534.8
47054.6
40471.7
33977.5
27671
21586.4
15712.1
9999.39
4385.31
-1170.44
-6803.98
-12051.5
-17168
-22019.3
-26465.3
-30357.9
-33571.6
-36025.9
-37691.5
-38585.4
-38760
-38284.3
-37418.1
-34483.5
-32425.9
-29761
-26802.2
-23596.2
-20204
-16673.5
-13033.2
-9314.06
-5185.57
-1516.84
1824.88
4557.78
6655.45
8430.35
9874.87
11004.6
11840
12412.6
12761.3
12927.1
12947.4
12854.9
12676.4
12433.3
12159.2
11848.4
11439.5
10742.5
9998.41
9320.26
8630.75
7937.87
7235.7
6520.99
5788.02
5028.29
4230.37
3380.59
2464.65
1470.34
388.66
-780.497
-2024.86
-3326.88
-4631.7
-5981.79
-7282.43
-8505.81
-9419.01
-10058.5
-10348.6
-10275.5
-9843.62
-9072.92
-8000.99
-6700.57
-5178.92
-3551.3
-1880.04
-226.095
1351.28
2799.27
4075.34
5161.18
6020.53
6636.83
6975.11
7082.2
6962.45
6635.19
6119.92
5442.39
4612.64
3718.35
2754
1647.33
611.662
-400.971
-1326.59
-2137.24
-2806.87
-3321.06
-3687.87
-3923.23
-4048.36
-4094.87
-4074.42
-4020.17
-3934.57
3186.81
1823.28
278.865
-1713.94
-4395.15
-8010.59
-13415.8
-21581.7
-31259.9
-41536.7
-52041.1
-62635.6
-71801.4
-79926.3
-87156.9
-93555.8
-99149.2
-103930
-107873
-110961
-113229
-117512
-115842
-113207
-109034
-103063
-95105.4
-85111.1
-73251.2
-59937.9
-45763.4
-31377.1
-17360.1
-4144.63
8003.14
18849.5
28494.1
36926.4
44226.6
50505.3
55872.9
60424.4
64219.7
67260.7
69473.3
70733
70567
68728.6
65702.4
61481.6
56283.8
50406.1
44169.2
37848.5
31634.7
25624
19848.8
14296.4
8915.09
3639.11
-1579.33
-6881.33
-11814.8
-16627.7
-21195.5
-25381.9
-29040.8
-32048.3
-34325.7
-35845.9
-36628.3
-36726.3
-36209.4
-35322.2
-32498.3
-30510.7
-27964.8
-25152.3
-22118.8
-18918.4
-15592.2
-12160.4
-8655.26
-4713.64
-1229.16
1939.47
4558.71
6525.92
8197.12
9557.86
10621.5
11405.8
11939.8
12260.3
12406.4
12413.9
12314
12132.7
11890.3
11616.5
11312.6
10916.7
10235.6
9519.94
8859.89
8189.1
7513.79
6829.27
6132.77
5419.15
4680.41
3905.53
3081.09
2192.92
1228.87
179.558
-955.256
-2163.37
-3427.27
-4689.28
-6003.1
-7260.31
-8439.68
-9310.04
-9902.88
-10147.8
-10029.1
-9555.9
-8747.39
-7646.37
-6325.51
-4795.58
-3170.61
-1513.3
116.533
1660.63
3068.2
4298.54
5338.72
6149.05
6720.41
7013.46
7081.04
6927.04
6571.2
6032.83
5336.46
4492.67
3586.49
2611.44
1502.44
461.869
-550.207
-1474.12
-2279.01
-2939.03
-3438.22
-3790.43
-4008.01
-4117.21
-4145.7
-4111.06
-4045.39
-3952.24
2756.86
1383.91
-149.541
-2104.63
-4706.94
-8186.11
-13493.6
-21270.1
-30337.5
-39895.3
-49404.6
-59677.9
-68254.8
-75781.8
-82443.8
-88322.6
-93459.4
-97853
-101481
-104330
-106438
-110983
-109313
-106819
-102922
-97340.2
-89857.9
-80403
-69127.3
-56430.1
-42895.5
-29167
-15819.4
-3280.44
8169.82
18443.3
27519.2
35417
42222.8
48052.6
53021.3
57228.1
60736.8
63554.5
65614.4
66823.6
66636
64922.9
62047.6
58005.1
53007.3
47349.4
41351
35286.9
29346.9
23623.8
18148.8
12908.7
7849.45
2902.52
-1986.2
-6963.19
-11590.5
-16105.9
-20395.8
-24328.3
-27759.5
-30566.8
-32673.3
-34053.7
-34729.4
-34754.6
-34198.1
-33288.7
-30580
-28655.2
-26220.8
-23546.2
-20675.8
-17657.8
-14526.5
-11294.6
-7995.23
-4236.67
-933.723
2064.47
4569.91
6408.05
7976.29
9253.39
10250.7
10983.3
11478
11769.5
11895.2
11888.9
11781
11596.2
11353.8
11080.3
10782.4
10398.7
9733.1
9045.23
8403.26
7751.09
7093.33
6426.43
5748.11
5053.81
4336.05
3584.23
2785.23
1924.97
991.338
-25.5044
-1126.03
-2298.23
-3524.65
-4744.73
-6023.5
-7238.78
-8374.2
-9207.33
-9751.81
-9955.52
-9792.72
-9278.41
-8433.96
-7302.7
-5960.22
-4420.85
-2796.77
-1151.44
456.334
1969.07
3337.86
4522.99
5520.74
6281.57
6808.16
7056.17
7084.21
6895.82
6511.18
5949.46
5233.84
4375.62
3457.05
2470.75
1358.56
312.363
-699.987
-1622.97
-2422.76
-3073.6
-3557.4
-3895.11
-4094.71
-4187.42
-4197.66
-4148.36
-4070.95
-3970.02
2362.18
980.269
-540.696
-2459.98
-4988.12
-8340.88
-13548
-20925.3
-29405.4
-38288.1
-47145.2
-56808.9
-64818
-71780.1
-77909.5
-83303.6
-88017.2
-92051.9
-95385.2
-98007.1
-99956
-104752
-103074
-100698
-97055
-91838.4
-84807.3
-75866.8
-65150.2
-53044
-40124.1
-27027.4
-14322.7
-2432.41
8353.46
18077.4
26610.6
33997.9
40329.6
45726.1
50306.6
54174
57396.7
59987.6
61888.2
63055.6
62804.9
61213.1
58479.6
54608.1
49805
44362.5
38598.1
32784.9
27112.1
21668.8
16484.8
11547.8
6801.43
2175.06
-2391.28
-7050.19
-11378
-15601.7
-19619.1
-23302.9
-26511.9
-29124.7
-31065.8
-32311.8
-32885.3
-32841
-32246.4
-31313.3
-28724.1
-26855.5
-24525.6
-21981
-19265.3
-16421
-13475.9
-10435.5
-7335.6
-3755.72
-631.395
2199.16
4590.14
6300.98
7767.06
8960.76
9891.47
10572
11026.8
11288.5
11393
11372.4
11255.7
11066.6
10823.7
10550.4
10257.5
9885.24
9234.94
8574.25
7950.34
7316.67
6676.41
6027.09
5366.9
4691.88
3995.1
3266.38
2492.89
1660.67
757.617
-226.696
-1293.04
-2429.73
-3619.33
-4798.39
-6043.35
-7218.46
-8310.01
-9109.31
-9608.04
-9771.25
-9566.17
-9010.16
-8131.36
-6968.95
-5603.42
-4053.44
-2428.57
-793.447
794.088
2277.15
3608.51
4749.97
5705.59
6417.77
6899.86
7102.83
7091.18
6868.21
6454.46
5869.1
5133.8
4260.75
3329.24
2331.12
1214.92
162.418
-850.957
-1773.7
-2569
-3210.79
-3679.15
-4002.29
-4183.34
-4258.82
-4250.48
-4186.12
-4096.68
-3987.82
1998.57
608.037
-898.547
-2784.38
-5243.19
-8481.02
-13576.9
-20551.4
-28467.8
-36720.7
-45003.5
-54032.4
-61485.5
-67912.4
-73543.2
-78486.7
-82809.5
-86513.3
-89572.7
-91979.2
-93768.2
-98802.9
-97107.9
-94830.7
-91419.9
-86546.5
-79943.5
-71493.9
-61312.8
-49774
-37445.1
-24956.1
-12868.8
-1600.29
8553.55
17749.9
25764.9
32664.7
38541.9
43520.4
47722.8
51256.1
54193.4
56553.9
58288.1
59408.1
59080.3
57594.8
54993.9
51286.3
46673.2
41442.5
35908
30340.8
24929
19757.6
14855.7
10212.5
5770.1
1456.01
-2795.1
-7142.82
-11177.1
-15114.4
-18864.3
-22304.4
-25296.4
-27720.1
-29501.5
-30618.2
-31094.1
-30983.9
-30352.6
-29394.7
-26929.4
-25110.3
-22877.9
-20455.9
-17886.5
-15207.2
-12439.7
-9582.23
-6674.2
-3270.23
-322.299
2343.03
4618.09
6204.03
7568.8
8679.39
9543.38
10171.3
10585.6
10816.9
10899.5
10863.9
10737.7
10543.7
10299.8
10026.5
9737.95
9376.2
8740.97
8106.89
7501.01
6885.75
6262.98
5631.19
4989.08
4333.28
3657.44
2951.84
2203.93
1399.85
527.554
-424.142
-1456.38
-2557.94
-3711.36
-4850.68
-6062.67
-7199.17
-8246.35
-9015.72
-9470.15
-9596.21
-9349.49
-8752.41
-7838.91
-6645.32
-5255.46
-3693.65
-2066.25
-439.482
1129.7
2584.85
3880.27
4982.53
5890.15
6557.73
6995.48
7153.47
7101.99
6844.24
6401.12
5791.83
5036.44
4148.18
3203.2
2192.72
1071.7
12.1803
-1002.98
-1926.22
-2717.63
-3349.34
-3804.39
-4111.56
-4273.85
-4331.38
-4304.27
-4224.36
-4122.58
-4005.59
1662.33
263.371
-1226.42
-3081.71
-5476.1
-8612.41
-13579.9
-20152.5
-27527.9
-35190.9
-42929.3
-51341.5
-58251.1
-64170.2
-69334.8
-73859.9
-77823.8
-81224.2
-84029.7
-86232.5
-87862.4
-93119.9
-91397
-89202.4
-86004.2
-81453.5
-75256.7
-67275.8
-57608.1
-46614.9
-34854.9
-22950.6
-11456.7
-783.896
8769.15
17458.8
24978.7
31413.4
36855.3
41430.3
45264.7
48469.1
51121.4
53247.7
54808.1
55870.6
55459
54063.6
51586
48035.8
43608.8
38586.8
33278.8
27952.9
22796.2
17888.9
13260.3
8901.81
4754.48
744.67
-3198.15
-7241.49
-10987.7
-14643.4
-18130.1
-21331.2
-24111.3
-26351.3
-27978.3
-28970.9
-29353.7
-29181.2
-28515
-27531.2
-25193.7
-23417.8
-21276.4
-18969.4
-16538.3
-14015.6
-11417.5
-8734.26
-6007.4
-2780.15
-6.72327
2495.53
4652.21
6116.51
7380.88
8408.68
9205.86
9780.9
10154.1
10354.4
10414.6
10363.2
10226.9
10027.4
9781.69
9508.53
9223.44
8871.43
8251.07
7643.04
7055.21
6458.27
5852.96
5238.66
4614.56
3977.92
3322.97
2640.47
1918.19
1142.39
301.01
-617.973
-1616.17
-2682.95
-3800.88
-4902.14
-6081.59
-7181.11
-8169.93
-8926.68
-9341.47
-9427.39
-9143.39
-8503.57
-7556.56
-6331.43
-4916.04
-3341.09
-1709.45
-89.2177
1463.47
2892.39
4153.34
5219.72
6075.95
6701.34
7094.95
7208
7116.52
6823.76
6351
5717.51
4941.63
4037.8
3078.8
2055.41
928.763
-138.495
-1156.22
-2080.76
-2868.86
-3489.79
-3933.26
-4223.62
-4366.49
-4405.1
-4358.92
-4263
-4148.55
-4023.25
1349.96
-57.274
-1527.19
-3355.47
-5690.36
-8740.5
-13558.2
-19732.4
-26588.5
-33694.4
-40904.3
-48727
-55108
-60545.2
-65274.7
-69412.6
-73049.1
-76173.1
-78744.5
-80755.3
-82227.9
-87689.6
-85926.5
-83799.8
-80796.2
-76549
-70737.8
-63204.6
-54029.6
-43561.5
-32349.9
-21009.1
-10085.6
16.7784
8999.08
17202.6
24248.9
30240.3
35265.2
39451.1
42927.1
45807.6
48175.3
50063.4
51442.4
52433.4
51936.8
50615.4
48251.5
44852.5
40608.3
35792.8
30708.4
25619.4
20712.2
16061.7
11697.3
7614.58
3753.56
40.3055
-3600.95
-7346.55
-10809.5
-14187.9
-17415.6
-20382
-22955
-25016.4
-26494.2
-27367.8
-27662
-27431.2
-26732
-25721.6
-23515.4
-21776.5
-19719.7
-17520.6
-15219.9
-12845.7
-10408.6
-7891.3
-5343.19
-2285.28
315.067
2656.1
4690.69
6037.8
7202.69
8148.06
8878.35
9400.17
9731.85
9900.56
9937.8
9870.14
9722.99
9517.31
9269.33
8996.14
8713.82
8370.74
7765.11
7182.6
6612.84
6034.16
5446.28
4849.42
4243.27
3625.71
2991.57
2332.16
1635.55
888.105
77.8362
-808.323
-1772.52
-2804.88
-3888.01
-4953.43
-6100.22
-7164.65
-8132.75
-8842.27
-9222.68
-9262.95
-8948.67
-8264.27
-7284.08
-6027.11
-4585.27
-2995.73
-1358.09
257.444
1795.5
3199.86
4427.81
5459.54
6264.9
6848.61
7198.18
7266.35
7134.67
6806.69
6303.99
5646.05
4849.27
3929.55
2955.96
1919.13
786.07
-289.661
-1310.69
-2237.31
-3022.81
-3632.81
-4064.56
-4337.58
-4460.79
-4480.14
-4414.44
-4302
-4174.54
-4040.75
1047.77
-367.379
-1812.82
-3617.71
-5896.06
-8874.19
-13512
-19279
-25618
-32174.7
-38850
-46089.5
-51940.4
-56904.9
-61215.5
-64983.6
-68313.5
-71179.8
-73528.9
-75353
-76666.4
-82315.1
-80496.1
-78426.8
-75608.8
-71656.5
-66224.2
-59134.1
-50449.1
-40505
-29841.5
-19063.3
-8708.06
828.967
9250.33
16971.3
23548.9
29103.4
33715.3
37512.8
40627.5
43177.6
45250.9
46888.3
48071
48970.2
48388.4
47126.9
44870.7
41622.2
37564.7
32961.6
28106.4
23258.6
18604.3
14212
10111.8
6305.26
2731.56
-682.49
-4018.35
-7462.27
-10636.5
-13731.9
-16695.2
-19422.6
-21785.9
-23667.5
-24996.3
-25752
-25959.4
-25672.2
-24941.3
-23902.8
-21835.8
-20129.1
-18153.3
-16058.7
-13884.9
-11656.3
-9378.25
-7021.99
-4619.96
-1767.49
654.452
2830.24
4732.88
5964.84
7027.73
7888.13
8549.15
9015.58
9303.86
9439.39
9452.39
9367.28
9208.33
8995.62
8744.64
8471.28
8191.12
7856.45
7265.97
6709.34
6158.34
5598.5
5028.67
4449.82
3862.17