/*--------------------------------*- C++ -*----------------------------------*\
| =========                 |                                                 |
| \\      /  F ield         | OpenFOAM: The Open Source CFD Toolbox           |
|  \\    /   O peration     | Version:  v1912                                 |
|   \\  /    A nd           | Website:  www.openfoam.com                      |
|    \\/     M anipulation  |                                                 |
\*---------------------------------------------------------------------------*/
FoamFile
{
    version     2.0;
    format      ascii;
    class       volSymmTensorField;
    location    "50";
    object      R;
}
// * * * * * * * * * * * * * * * * * * * * * * * * * * * * * * * * * * * * * //

dimensions      [0 2 -2 0 0 0 0];


internalField   nonuniform List<symmTensor> 
14268
(
(6.17736e-07 -8.03411e-08 0 4.49734e-07 0 5.35596e-07)
(6.15973e-07 -8.02924e-08 0 4.50389e-07 0 5.34878e-07)
(6.14485e-07 -8.0168e-08 0 4.50422e-07 0 5.34158e-07)
(6.13302e-07 -7.99363e-08 0 4.49885e-07 0 5.33295e-07)
(6.1145e-07 -7.97432e-08 0 4.49976e-07 0 5.32326e-07)
(6.09354e-07 -7.96115e-08 0 4.50229e-07 0 5.3132e-07)
(6.07585e-07 -7.94633e-08 0 4.49925e-07 0 5.30284e-07)
(6.06076e-07 -7.92482e-08 0 4.49173e-07 0 5.29175e-07)
(6.04704e-07 -7.903e-08 0 4.48274e-07 0 5.28063e-07)
(6.03593e-07 -7.88017e-08 0 4.47157e-07 0 5.26995e-07)
(6.02689e-07 -7.85298e-08 0 4.45816e-07 0 5.25928e-07)
(6.01803e-07 -7.82333e-08 0 4.44379e-07 0 5.24837e-07)
(6.0075e-07 -7.79123e-08 0 4.42982e-07 0 5.23651e-07)
(5.99372e-07 -7.75914e-08 0 4.41711e-07 0 5.22344e-07)
(5.97439e-07 -7.72443e-08 0 4.40778e-07 0 5.20857e-07)
(5.95175e-07 -7.68368e-08 0 4.39934e-07 0 5.19232e-07)
(5.92803e-07 -7.63773e-08 0 4.39066e-07 0 5.17543e-07)
(5.90368e-07 -7.59384e-08 0 4.38306e-07 0 5.15867e-07)
(5.87546e-07 -7.55146e-08 0 4.37964e-07 0 5.14178e-07)
(5.84019e-07 -7.51481e-08 0 4.38204e-07 0 5.1241e-07)
(5.79667e-07 -7.48406e-08 0 4.39075e-07 0 5.10528e-07)
(5.74485e-07 -7.45878e-08 0 4.40592e-07 0 5.08561e-07)
(5.68625e-07 -7.43592e-08 0 4.42641e-07 0 5.0658e-07)
(5.61941e-07 -7.40795e-08 0 4.45693e-07 0 5.04647e-07)
(5.53865e-07 -7.38791e-08 0 4.49881e-07 0 5.0269e-07)
(5.44836e-07 -7.38352e-08 0 4.54673e-07 0 5.00765e-07)
(5.35474e-07 -7.37862e-08 0 4.60482e-07 0 4.99143e-07)
(5.24899e-07 -7.35869e-08 0 4.68643e-07 0 4.97965e-07)
(5.13659e-07 -7.34094e-08 0 4.78606e-07 0 4.97329e-07)
(5.02545e-07 -7.3415e-08 0 4.8966e-07 0 4.97322e-07)
(4.92603e-07 -7.35521e-08 0 5.00779e-07 0 4.97926e-07)
(4.82757e-07 -7.37909e-08 0 5.12815e-07 0 4.98998e-07)
(4.73933e-07 -7.40866e-08 0 5.2507e-07 0 5.00573e-07)
(4.66678e-07 -7.44197e-08 0 5.3669e-07 0 5.02536e-07)
(4.60625e-07 -7.48105e-08 0 5.47335e-07 0 5.04672e-07)
(4.55584e-07 -7.51628e-08 0 5.56875e-07 0 5.06726e-07)
(4.51618e-07 -7.55156e-08 0 5.64544e-07 0 5.08479e-07)
(4.49004e-07 -7.58355e-08 0 5.69924e-07 0 5.09864e-07)
(4.47175e-07 -7.60628e-08 0 5.73837e-07 0 5.10918e-07)
(4.45883e-07 -7.62892e-08 0 5.76649e-07 0 5.11733e-07)
(4.45495e-07 -7.64991e-08 0 5.7819e-07 0 5.12352e-07)
(4.45282e-07 -7.6638e-08 0 5.79309e-07 0 5.12831e-07)
(4.4581e-07 -7.68085e-08 0 5.79535e-07 0 5.1321e-07)
(4.46412e-07 -7.69073e-08 0 5.79628e-07 0 5.13521e-07)
(4.47367e-07 -7.70225e-08 0 5.79279e-07 0 5.13775e-07)
(4.48557e-07 -7.71249e-08 0 5.79004e-07 0 5.1416e-07)
(4.50168e-07 -7.72859e-08 0 5.78961e-07 0 5.1485e-07)
(4.52169e-07 -7.74904e-08 0 5.79035e-07 0 5.1579e-07)
(4.54426e-07 -7.77247e-08 0 5.79273e-07 0 5.16932e-07)
(4.56961e-07 -7.79902e-08 0 5.79553e-07 0 5.18231e-07)
(4.59693e-07 -7.82764e-08 0 5.79904e-07 0 5.19659e-07)
(4.62621e-07 -7.85857e-08 0 5.80277e-07 0 5.21196e-07)
(4.65708e-07 -7.89127e-08 0 5.80676e-07 0 5.22826e-07)
(4.68943e-07 -7.92547e-08 0 5.8108e-07 0 5.24534e-07)
(4.72315e-07 -7.96098e-08 0 5.81473e-07 0 5.26303e-07)
(4.75795e-07 -7.99745e-08 0 5.81856e-07 0 5.28127e-07)
(4.79336e-07 -8.03431e-08 0 5.82249e-07 0 5.29992e-07)
(4.82951e-07 -8.0713e-08 0 5.82616e-07 0 5.31875e-07)
(4.86603e-07 -8.10837e-08 0 5.82975e-07 0 5.33785e-07)
(4.90292e-07 -8.14554e-08 0 5.83316e-07 0 5.35705e-07)
(4.94021e-07 -8.18334e-08 0 5.83621e-07 0 5.37634e-07)
(4.97793e-07 -8.22142e-08 0 5.83876e-07 0 5.39564e-07)
(5.01577e-07 -8.25958e-08 0 5.84104e-07 0 5.41488e-07)
(5.05347e-07 -8.29831e-08 0 5.84308e-07 0 5.43397e-07)
(5.09126e-07 -8.33639e-08 0 5.8445e-07 0 5.45272e-07)
(5.12909e-07 -8.37189e-08 0 5.84512e-07 0 5.47109e-07)
(5.1667e-07 -8.4043e-08 0 5.84529e-07 0 5.48908e-07)
(5.20408e-07 -8.43294e-08 0 5.84514e-07 0 5.50709e-07)
(5.24069e-07 -8.45813e-08 0 5.84563e-07 0 5.52512e-07)
(5.27358e-07 -8.49269e-08 0 5.84971e-07 0 5.54368e-07)
(5.30778e-07 -8.53418e-08 0 5.85283e-07 0 5.56204e-07)
(5.34704e-07 -8.57338e-08 0 5.85118e-07 0 5.58051e-07)
(5.38802e-07 -8.61178e-08 0 5.84785e-07 0 5.59902e-07)
(5.43065e-07 -8.64991e-08 0 5.84256e-07 0 5.61733e-07)
(5.47481e-07 -8.68712e-08 0 5.83528e-07 0 5.63543e-07)
(5.51927e-07 -8.72061e-08 0 5.82736e-07 0 5.65338e-07)
(5.56652e-07 -8.7591e-08 0 5.81691e-07 0 5.67144e-07)
(5.60912e-07 -8.80272e-08 0 5.81237e-07 0 5.69007e-07)
(5.66355e-07 -8.8181e-08 0 5.79644e-07 0 5.70899e-07)
(5.70969e-07 -8.88912e-08 0 5.80074e-07 0 5.73354e-07)
(5.77695e-07 -8.93307e-08 0 5.77898e-07 0 5.75619e-07)
(5.81309e-07 -8.9064e-08 0 5.77659e-07 0 5.77031e-07)
(5.82813e-07 -8.93941e-08 0 5.79785e-07 0 5.79155e-07)
(5.96784e-07 -9.29594e-08 0 5.81917e-07 0 5.87064e-07)
(6.31865e-07 -1.0141e-07 0 5.77237e-07 0 6.02984e-07)
(6.39443e-07 -1.10722e-07 0 5.83064e-07 0 6.09482e-07)
(3.61982e-07 -3.63912e-08 0 2.42869e-07 0 3.02515e-07)
(3.58385e-07 -3.6164e-08 0 2.42511e-07 0 3.00336e-07)
(3.54854e-07 -3.596e-08 0 2.41676e-07 0 2.98217e-07)
(3.51986e-07 -3.57621e-08 0 2.40792e-07 0 2.96343e-07)
(3.48796e-07 -3.56449e-08 0 2.40481e-07 0 2.94596e-07)
(3.45806e-07 -3.55591e-08 0 2.40293e-07 0 2.93e-07)
(3.43312e-07 -3.54965e-08 0 2.40001e-07 0 2.91628e-07)
(3.41413e-07 -3.54501e-08 0 2.39716e-07 0 2.90549e-07)
(3.39924e-07 -3.54438e-08 0 2.39582e-07 0 2.89744e-07)
(3.38842e-07 -3.54527e-08 0 2.39467e-07 0 2.89156e-07)
(3.38001e-07 -3.5453e-08 0 2.39326e-07 0 2.88671e-07)
(3.37168e-07 -3.54403e-08 0 2.39157e-07 0 2.88186e-07)
(3.36112e-07 -3.53983e-08 0 2.38948e-07 0 2.87564e-07)
(3.34629e-07 -3.53227e-08 0 2.38669e-07 0 2.86699e-07)
(3.32587e-07 -3.51993e-08 0 2.38364e-07 0 2.85524e-07)
(3.2999e-07 -3.50389e-08 0 2.38001e-07 0 2.84045e-07)
(3.26979e-07 -3.48118e-08 0 2.37447e-07 0 2.82267e-07)
(3.23468e-07 -3.45058e-08 0 2.36693e-07 0 2.80138e-07)
(3.1915e-07 -3.41136e-08 0 2.35749e-07 0 2.77503e-07)
(3.13667e-07 -3.3616e-08 0 2.34544e-07 0 2.7415e-07)
(3.06813e-07 -3.30193e-08 0 2.3303e-07 0 2.69955e-07)
(2.98609e-07 -3.22971e-08 0 2.31208e-07 0 2.64901e-07)
(2.8924e-07 -3.13866e-08 0 2.28957e-07 0 2.59041e-07)
(2.78696e-07 -3.03414e-08 0 2.26126e-07 0 2.52356e-07)
(2.66919e-07 -2.91806e-08 0 2.22617e-07 0 2.44761e-07)
(2.53927e-07 -2.77353e-08 0 2.1834e-07 0 2.36156e-07)
(2.39627e-07 -2.59715e-08 0 2.13378e-07 0 2.26535e-07)
(2.24121e-07 -2.40458e-08 0 2.07659e-07 0 2.15955e-07)
(2.07669e-07 -2.20745e-08 0 2.01294e-07 0 2.04608e-07)
(1.90943e-07 -2.00162e-08 0 1.94135e-07 0 1.92701e-07)
(1.74486e-07 -1.7903e-08 0 1.86239e-07 0 1.80512e-07)
(1.5862e-07 -1.58482e-08 0 1.78004e-07 0 1.68429e-07)
(1.43982e-07 -1.39355e-08 0 1.69627e-07 0 1.56884e-07)
(1.30952e-07 -1.22069e-08 0 1.61378e-07 0 1.46208e-07)
(1.19576e-07 -1.0678e-08 0 1.53629e-07 0 1.36606e-07)
(1.09876e-07 -9.33985e-09 0 1.46584e-07 0 1.2818e-07)
(1.01794e-07 -8.21454e-09 0 1.40362e-07 0 1.20995e-07)
(9.52348e-08 -7.30384e-09 0 1.35055e-07 0 1.15042e-07)
(9.0017e-08 -6.58133e-09 0 1.30739e-07 0 1.10253e-07)
(8.60018e-08 -6.03026e-09 0 1.27362e-07 0 1.0654e-07)
(8.30541e-08 -5.63739e-09 0 1.24838e-07 0 1.03795e-07)
(8.10035e-08 -5.3796e-09 0 1.23109e-07 0 1.01893e-07)
(7.97349e-08 -5.23737e-09 0 1.22045e-07 0 1.00725e-07)
(7.91037e-08 -5.19237e-09 0 1.21567e-07 0 1.00164e-07)
(7.90125e-08 -5.23878e-09 0 1.21583e-07 0 1.00127e-07)
(7.93507e-08 -5.34084e-09 0 1.21932e-07 0 1.00475e-07)
(7.97771e-08 -5.43924e-09 0 1.22283e-07 0 1.00863e-07)
(8.02966e-08 -5.54149e-09 0 1.22622e-07 0 1.01298e-07)
(8.08872e-08 -5.64506e-09 0 1.22981e-07 0 1.01775e-07)
(8.15444e-08 -5.74944e-09 0 1.2334e-07 0 1.02289e-07)
(8.22578e-08 -5.85597e-09 0 1.2371e-07 0 1.02834e-07)
(8.30227e-08 -5.96487e-09 0 1.24089e-07 0 1.0341e-07)
(8.38338e-08 -6.07601e-09 0 1.24477e-07 0 1.04015e-07)
(8.46879e-08 -6.18882e-09 0 1.24875e-07 0 1.04645e-07)
(8.55819e-08 -6.30427e-09 0 1.25283e-07 0 1.05301e-07)
(8.65129e-08 -6.42268e-09 0 1.25703e-07 0 1.05981e-07)
(8.74775e-08 -6.54225e-09 0 1.26133e-07 0 1.06684e-07)
(8.84723e-08 -6.66352e-09 0 1.26573e-07 0 1.07405e-07)
(8.94932e-08 -6.78813e-09 0 1.27024e-07 0 1.08146e-07)
(9.0536e-08 -6.91333e-09 0 1.27484e-07 0 1.08901e-07)
(9.1599e-08 -7.04061e-09 0 1.27955e-07 0 1.09673e-07)
(9.26807e-08 -7.16953e-09 0 1.28433e-07 0 1.10458e-07)
(9.37782e-08 -7.29921e-09 0 1.28918e-07 0 1.11254e-07)
(9.48841e-08 -7.42922e-09 0 1.294e-07 0 1.12055e-07)
(9.59958e-08 -7.56137e-09 0 1.29873e-07 0 1.12858e-07)
(9.7119e-08 -7.70009e-09 0 1.30341e-07 0 1.1367e-07)
(9.82538e-08 -7.84488e-09 0 1.30833e-07 0 1.14493e-07)
(9.94127e-08 -7.99415e-09 0 1.31374e-07 0 1.15342e-07)
(1.00582e-07 -8.14428e-09 0 1.31967e-07 0 1.16203e-07)
(1.01767e-07 -8.28195e-09 0 1.32519e-07 0 1.1707e-07)
(1.02993e-07 -8.40641e-09 0 1.33027e-07 0 1.17955e-07)
(1.04227e-07 -8.54323e-09 0 1.33572e-07 0 1.1885e-07)
(1.05478e-07 -8.69063e-09 0 1.34151e-07 0 1.1977e-07)
(1.06756e-07 -8.84891e-09 0 1.34757e-07 0 1.20714e-07)
(1.08061e-07 -9.02088e-09 0 1.35371e-07 0 1.21673e-07)
(1.09382e-07 -9.2021e-09 0 1.36018e-07 0 1.22656e-07)
(1.10741e-07 -9.36849e-09 0 1.36658e-07 0 1.23653e-07)
(1.12163e-07 -9.5849e-09 0 1.37282e-07 0 1.24684e-07)
(1.13569e-07 -9.75553e-09 0 1.38075e-07 0 1.25776e-07)
(1.15244e-07 -1.00487e-08 0 1.38709e-07 0 1.26955e-07)
(1.16938e-07 -1.01177e-08 0 1.39749e-07 0 1.28272e-07)
(1.18879e-07 -1.06777e-08 0 1.40267e-07 0 1.29564e-07)
(1.20579e-07 -1.0684e-08 0 1.41418e-07 0 1.30953e-07)
(1.24585e-07 -1.16922e-08 0 1.43645e-07 0 1.34147e-07)
(1.30254e-07 -1.29291e-08 0 1.49239e-07 0 1.40019e-07)
(1.34388e-07 -1.61117e-08 0 1.52133e-07 0 1.43329e-07)
(1.54878e-07 -1.05642e-08 0 1.05829e-07 0 1.30076e-07)
(1.52903e-07 -1.04883e-08 0 1.05537e-07 0 1.28868e-07)
(1.50962e-07 -1.04178e-08 0 1.05052e-07 0 1.27688e-07)
(1.49319e-07 -1.03529e-08 0 1.04646e-07 0 1.26668e-07)
(1.47742e-07 -1.03039e-08 0 1.04394e-07 0 1.25759e-07)
(1.46371e-07 -1.02728e-08 0 1.04191e-07 0 1.24984e-07)
(1.45215e-07 -1.0263e-08 0 1.04018e-07 0 1.24338e-07)
(1.44325e-07 -1.02748e-08 0 1.0388e-07 0 1.23843e-07)
(1.43654e-07 -1.03004e-08 0 1.03812e-07 0 1.23488e-07)
(1.43172e-07 -1.0328e-08 0 1.03774e-07 0 1.23247e-07)
(1.42799e-07 -1.03505e-08 0 1.03734e-07 0 1.23059e-07)
(1.42431e-07 -1.0371e-08 0 1.03679e-07 0 1.22871e-07)
(1.41961e-07 -1.03784e-08 0 1.03593e-07 0 1.22614e-07)
(1.41296e-07 -1.03662e-08 0 1.03463e-07 0 1.22241e-07)
(1.404e-07 -1.03304e-08 0 1.03291e-07 0 1.21723e-07)
(1.39277e-07 -1.02707e-08 0 1.03058e-07 0 1.21065e-07)
(1.37946e-07 -1.018e-08 0 1.02721e-07 0 1.2025e-07)
(1.36298e-07 -1.00478e-08 0 1.02285e-07 0 1.19223e-07)
(1.34212e-07 -9.85934e-09 0 1.01703e-07 0 1.17906e-07)
(1.31564e-07 -9.61247e-09 0 1.00936e-07 0 1.16211e-07)
(1.28256e-07 -9.29705e-09 0 9.99935e-08 0 1.14087e-07)
(1.24317e-07 -8.93735e-09 0 9.8853e-08 0 1.1154e-07)
(1.19801e-07 -8.51438e-09 0 9.74884e-08 0 1.0859e-07)
(1.14752e-07 -7.9279e-09 0 9.58607e-08 0 1.05254e-07)
(1.09271e-07 -7.20564e-09 0 9.39327e-08 0 1.01572e-07)
(1.03372e-07 -6.48333e-09 0 9.17089e-08 0 9.75632e-08)
(9.70747e-08 -5.7986e-09 0 8.9338e-08 0 9.32885e-08)
(9.06022e-08 -5.03939e-09 0 8.6957e-08 0 8.8869e-08)
(8.41404e-08 -4.231e-09 0 8.46484e-08 0 8.44547e-08)
(7.7961e-08 -3.46159e-09 0 8.23337e-08 0 8.01967e-08)
(7.2255e-08 -2.80639e-09 0 8.01947e-08 0 7.62708e-08)
(6.71939e-08 -2.28825e-09 0 7.84005e-08 0 7.28358e-08)
(6.29318e-08 -1.90431e-09 0 7.69699e-08 0 6.99729e-08)
(5.94633e-08 -1.64017e-09 0 7.59062e-08 0 6.7677e-08)
(5.67e-08 -1.47707e-09 0 7.51684e-08 0 6.59022e-08)
(5.45358e-08 -1.40018e-09 0 7.47087e-08 0 6.45772e-08)
(5.28856e-08 -1.38577e-09 0 7.44613e-08 0 6.36164e-08)
(5.16537e-08 -1.40809e-09 0 7.43542e-08 0 6.29336e-08)
(5.07386e-08 -1.45595e-09 0 7.43351e-08 0 6.24592e-08)
(5.00727e-08 -1.51749e-09 0 7.43645e-08 0 6.21373e-08)
(4.96065e-08 -1.58369e-09 0 7.44114e-08 0 6.19232e-08)
(4.92938e-08 -1.6492e-09 0 7.44554e-08 0 6.17874e-08)
(4.90999e-08 -1.71153e-09 0 7.44928e-08 0 6.1708e-08)
(4.90056e-08 -1.76588e-09 0 7.45141e-08 0 6.16706e-08)
(4.89848e-08 -1.82707e-09 0 7.45222e-08 0 6.16654e-08)
(4.90135e-08 -1.86884e-09 0 7.45201e-08 0 6.168e-08)
(4.90845e-08 -1.90712e-09 0 7.44665e-08 0 6.16905e-08)
(4.92428e-08 -1.94924e-09 0 7.43187e-08 0 6.16995e-08)
(4.93816e-08 -1.9794e-09 0 7.41906e-08 0 6.17082e-08)
(4.95306e-08 -2.00389e-09 0 7.40517e-08 0 6.17164e-08)
(4.9704e-08 -2.02661e-09 0 7.38906e-08 0 6.17256e-08)
(4.98917e-08 -2.04822e-09 0 7.37188e-08 0 6.17371e-08)
(5.0092e-08 -2.06834e-09 0 7.35389e-08 0 6.1751e-08)
(5.03061e-08 -2.08702e-09 0 7.33516e-08 0 6.17677e-08)
(5.05324e-08 -2.10527e-09 0 7.31599e-08 0 6.1788e-08)
(5.07682e-08 -2.12262e-09 0 7.29647e-08 0 6.1812e-08)
(5.10121e-08 -2.1379e-09 0 7.27672e-08 0 6.18394e-08)
(5.12685e-08 -2.15194e-09 0 7.25671e-08 0 6.18704e-08)
(5.15262e-08 -2.16564e-09 0 7.23733e-08 0 6.19065e-08)
(5.17934e-08 -2.17756e-09 0 7.21782e-08 0 6.19459e-08)
(5.20621e-08 -2.19081e-09 0 7.19918e-08 0 6.19907e-08)
(5.23363e-08 -2.20406e-09 0 7.1809e-08 0 6.20398e-08)
(5.26202e-08 -2.2174e-09 0 7.16279e-08 0 6.20934e-08)
(5.29061e-08 -2.23184e-09 0 7.14579e-08 0 6.21527e-08)
(5.31968e-08 -2.24527e-09 0 7.13017e-08 0 6.22187e-08)
(5.34756e-08 -2.25464e-09 0 7.11659e-08 0 6.22885e-08)
(5.37396e-08 -2.25874e-09 0 7.10421e-08 0 6.23561e-08)
(5.40308e-08 -2.26131e-09 0 7.0879e-08 0 6.24295e-08)
(5.43445e-08 -2.26786e-09 0 7.0691e-08 0 6.25063e-08)
(5.46532e-08 -2.28533e-09 0 7.05418e-08 0 6.25878e-08)
(5.49425e-08 -2.30651e-09 0 7.04487e-08 0 6.26778e-08)
(5.52634e-08 -2.3298e-09 0 7.0315e-08 0 6.27757e-08)
(5.55719e-08 -2.35399e-09 0 7.02079e-08 0 6.2876e-08)
(5.589e-08 -2.38157e-09 0 7.00972e-08 0 6.2982e-08)
(5.62126e-08 -2.41135e-09 0 6.99851e-08 0 6.30912e-08)
(5.6542e-08 -2.44473e-09 0 6.98765e-08 0 6.32056e-08)
(5.68799e-08 -2.46419e-09 0 6.97852e-08 0 6.33282e-08)
(5.7239e-08 -2.52651e-09 0 6.9681e-08 0 6.34587e-08)
(5.75763e-08 -2.51903e-09 0 6.9604e-08 0 6.35975e-08)
(5.79917e-08 -2.60652e-09 0 6.95237e-08 0 6.37539e-08)
(5.83787e-08 -2.663e-09 0 6.9498e-08 0 6.39324e-08)
(5.89596e-08 -2.72766e-09 0 6.92273e-08 0 6.41252e-08)
(5.93087e-08 -2.82458e-09 0 6.93859e-08 0 6.43341e-08)
(6.02818e-08 -3.36116e-09 0 6.9311e-08 0 6.47824e-08)
(6.13514e-08 -3.4839e-09 0 6.9714e-08 0 6.54998e-08)
(6.20887e-08 -3.19891e-09 0 7.00715e-08 0 6.60164e-08)
(9.31569e-08 -3.93053e-09 0 6.47464e-08 0 7.88878e-08)
(9.22332e-08 -3.91493e-09 0 6.46853e-08 0 7.83478e-08)
(9.12696e-08 -3.88257e-09 0 6.45891e-08 0 7.78316e-08)
(9.04681e-08 -3.86845e-09 0 6.44926e-08 0 7.7389e-08)
(8.96793e-08 -3.87984e-09 0 6.44375e-08 0 7.6979e-08)
(8.90004e-08 -3.91412e-09 0 6.44076e-08 0 7.66321e-08)
(8.84462e-08 -3.95123e-09 0 6.43928e-08 0 7.63518e-08)
(8.80192e-08 -3.96024e-09 0 6.4397e-08 0 7.61441e-08)
(8.77057e-08 -3.97074e-09 0 6.44145e-08 0 7.59995e-08)
(8.74755e-08 -3.99169e-09 0 6.44493e-08 0 7.59014e-08)
(8.7281e-08 -4.01091e-09 0 6.4498e-08 0 7.58245e-08)
(8.70861e-08 -4.01561e-09 0 6.45412e-08 0 7.57471e-08)
(8.68465e-08 -4.01441e-09 0 6.45708e-08 0 7.56407e-08)
(8.65256e-08 -4.01491e-09 0 6.45802e-08 0 7.54864e-08)
(8.61229e-08 -4.01125e-09 0 6.45625e-08 0 7.52767e-08)
(8.56148e-08 -4.00233e-09 0 6.45375e-08 0 7.50099e-08)
(8.49718e-08 -3.97486e-09 0 6.45013e-08 0 7.46731e-08)
(8.41908e-08 -3.92762e-09 0 6.44134e-08 0 7.42459e-08)
(8.32121e-08 -3.84775e-09 0 6.42872e-08 0 7.36989e-08)
(8.19371e-08 -3.72457e-09 0 6.41391e-08 0 7.29938e-08)
(8.04019e-08 -3.5787e-09 0 6.3903e-08 0 7.21255e-08)
(7.86518e-08 -3.35916e-09 0 6.35739e-08 0 7.11054e-08)
(7.66479e-08 -3.09526e-09 0 6.32019e-08 0 6.9938e-08)
(7.42946e-08 -2.90694e-09 0 6.29103e-08 0 6.86351e-08)
(7.17142e-08 -2.71626e-09 0 6.27198e-08 0 6.72608e-08)
(6.92038e-08 -2.41018e-09 0 6.25292e-08 0 6.58967e-08)
(6.66357e-08 -1.94696e-09 0 6.24401e-08 0 6.45125e-08)
(6.39786e-08 -1.51112e-09 0 6.23574e-08 0 6.31326e-08)
(6.13087e-08 -1.16866e-09 0 6.23914e-08 0 6.18484e-08)
(5.87365e-08 -8.65465e-10 0 6.274e-08 0 6.07404e-08)
(5.64031e-08 -6.42005e-10 0 6.33015e-08 0 5.98493e-08)
(5.43978e-08 -5.00674e-10 0 6.4006e-08 0 5.91966e-08)
(5.27234e-08 -4.26123e-10 0 6.48461e-08 0 5.87669e-08)
(5.13339e-08 -4.46862e-10 0 6.5762e-08 0 5.85194e-08)
(5.02015e-08 -5.46643e-10 0 6.66966e-08 0 5.84098e-08)
(4.9226e-08 -6.70373e-10 0 6.77044e-08 0 5.8403e-08)
(4.85632e-08 -7.74005e-10 0 6.84851e-08 0 5.84479e-08)
(4.79647e-08 -9.36114e-10 0 6.92283e-08 0 5.85159e-08)
(4.75311e-08 -1.10218e-09 0 6.98219e-08 0 5.85889e-08)
(4.72515e-08 -1.20602e-09 0 7.02479e-08 0 5.86534e-08)
(4.69833e-08 -1.34807e-09 0 7.06248e-08 0 5.87076e-08)
(4.68438e-08 -1.44648e-09 0 7.08457e-08 0 5.8743e-08)
(4.67324e-08 -1.54297e-09 0 7.09975e-08 0 5.87635e-08)
(4.66827e-08 -1.63246e-09 0 7.10655e-08 0 5.87696e-08)
(4.66642e-08 -1.70544e-09 0 7.10603e-08 0 5.87599e-08)
(4.66886e-08 -1.76485e-09 0 7.09894e-08 0 5.87375e-08)
(4.67358e-08 -1.80927e-09 0 7.08734e-08 0 5.87044e-08)
(4.68018e-08 -1.8472e-09 0 7.07178e-08 0 5.86621e-08)
(4.68853e-08 -1.87544e-09 0 7.0532e-08 0 5.86134e-08)
(4.69828e-08 -1.89637e-09 0 7.0321e-08 0 5.85595e-08)
(4.70942e-08 -1.91436e-09 0 7.00896e-08 0 5.85021e-08)
(4.72146e-08 -1.93064e-09 0 6.98443e-08 0 5.84423e-08)
(4.73436e-08 -1.9446e-09 0 6.95874e-08 0 5.83812e-08)
(4.74816e-08 -1.95657e-09 0 6.932e-08 0 5.8319e-08)
(4.76281e-08 -1.96726e-09 0 6.90433e-08 0 5.82564e-08)
(4.77812e-08 -1.97599e-09 0 6.87598e-08 0 5.81939e-08)
(4.79402e-08 -1.9809e-09 0 6.84712e-08 0 5.8132e-08)
(4.81073e-08 -1.98271e-09 0 6.81769e-08 0 5.80708e-08)
(4.82724e-08 -1.98315e-09 0 6.78875e-08 0 5.80118e-08)
(4.84421e-08 -1.98044e-09 0 6.7598e-08 0 5.79544e-08)
(4.86108e-08 -1.97782e-09 0 6.73139e-08 0 5.78993e-08)
(4.87854e-08 -1.97531e-09 0 6.70283e-08 0 5.7846e-08)
(4.89712e-08 -1.9733e-09 0 6.6736e-08 0 5.77946e-08)
(4.91549e-08 -1.97075e-09 0 6.64515e-08 0 5.77471e-08)
(4.93325e-08 -1.96517e-09 0 6.61819e-08 0 5.77044e-08)
(4.94939e-08 -1.95793e-09 0 6.59378e-08 0 5.76663e-08)
(4.96535e-08 -1.95168e-09 0 6.57043e-08 0 5.76306e-08)
(4.9814e-08 -1.94607e-09 0 6.54751e-08 0 5.75967e-08)
(5.00114e-08 -1.94322e-09 0 6.52128e-08 0 5.75626e-08)
(5.02222e-08 -1.94422e-09 0 6.49398e-08 0 5.75301e-08)
(5.03872e-08 -1.94741e-09 0 6.47135e-08 0 5.75034e-08)
(5.05677e-08 -1.95217e-09 0 6.44756e-08 0 5.7478e-08)
(5.07478e-08 -1.96006e-09 0 6.4244e-08 0 5.74549e-08)
(5.09305e-08 -1.96866e-09 0 6.40166e-08 0 5.74339e-08)
(5.11175e-08 -1.97876e-09 0 6.37917e-08 0 5.74155e-08)
(5.131e-08 -1.98791e-09 0 6.35675e-08 0 5.73998e-08)
(5.15232e-08 -1.99903e-09 0 6.33273e-08 0 5.73863e-08)
(5.17541e-08 -2.02099e-09 0 6.30719e-08 0 5.73753e-08)
(5.19036e-08 -2.03245e-09 0 6.2907e-08 0 5.73689e-08)
(5.21091e-08 -2.06136e-09 0 6.26986e-08 0 5.73675e-08)
(5.23163e-08 -2.09951e-09 0 6.25114e-08 0 5.73723e-08)
(5.2614e-08 -2.17593e-09 0 6.21996e-08 0 5.73728e-08)
(5.27411e-08 -2.25021e-09 0 6.20968e-08 0 5.73848e-08)
(5.31719e-08 -2.67284e-09 0 6.16384e-08 0 5.74164e-08)
(5.33502e-08 -2.84537e-09 0 6.16315e-08 0 5.75253e-08)
(5.3516e-08 -2.99872e-09 0 6.16451e-08 0 5.75793e-08)
(7.53107e-08 -2.17579e-09 0 5.29834e-08 0 6.40204e-08)
(7.47632e-08 -2.19717e-09 0 5.31132e-08 0 6.3773e-08)
(7.42467e-08 -2.22776e-09 0 5.31492e-08 0 6.35488e-08)
(7.37773e-08 -2.26163e-09 0 5.32326e-08 0 6.33566e-08)
(7.33099e-08 -2.29033e-09 0 5.33306e-08 0 6.31752e-08)
(7.29392e-08 -2.30928e-09 0 5.34032e-08 0 6.30279e-08)
(7.26213e-08 -2.32513e-09 0 5.34709e-08 0 6.29075e-08)
(7.23843e-08 -2.36917e-09 0 5.35089e-08 0 6.28152e-08)
(7.21792e-08 -2.41531e-09 0 5.35623e-08 0 6.27429e-08)
(7.20206e-08 -2.43315e-09 0 5.36097e-08 0 6.26908e-08)
(7.18959e-08 -2.44164e-09 0 5.36453e-08 0 6.26494e-08)
(7.17705e-08 -2.45861e-09 0 5.36807e-08 0 6.26074e-08)
(7.16162e-08 -2.47314e-09 0 5.37198e-08 0 6.25533e-08)
(7.14094e-08 -2.48445e-09 0 5.37684e-08 0 6.2479e-08)
(7.1145e-08 -2.49975e-09 0 5.38307e-08 0 6.23814e-08)
(7.0845e-08 -2.50887e-09 0 5.38861e-08 0 6.22645e-08)
(7.05201e-08 -2.5152e-09 0 5.39238e-08 0 6.21257e-08)
(7.00933e-08 -2.50261e-09 0 5.3998e-08 0 6.19512e-08)
(6.95313e-08 -2.45659e-09 0 5.40997e-08 0 6.17255e-08)
(6.88572e-08 -2.39677e-09 0 5.42004e-08 0 6.14422e-08)
(6.80193e-08 -2.30681e-09 0 5.43648e-08 0 6.11019e-08)
(6.69869e-08 -2.22581e-09 0 5.46163e-08 0 6.07055e-08)
(6.57654e-08 -2.1622e-09 0 5.4936e-08 0 6.0252e-08)
(6.45469e-08 -2.02325e-09 0 5.52082e-08 0 5.97793e-08)
(6.33882e-08 -1.74572e-09 0 5.54718e-08 0 5.93234e-08)
(6.18529e-08 -1.37133e-09 0 5.60093e-08 0 5.88199e-08)
(6.02343e-08 -1.06986e-09 0 5.65764e-08 0 5.83222e-08)
(5.86535e-08 -8.16975e-10 0 5.72186e-08 0 5.78871e-08)
(5.7013e-08 -5.08667e-10 0 5.81426e-08 0 5.75408e-08)
(5.54306e-08 -3.03737e-10 0 5.91276e-08 0 5.72752e-08)
(5.38788e-08 -1.62612e-10 0 6.03405e-08 0 5.71264e-08)
(5.24811e-08 -3.50547e-11 0 6.17955e-08 0 5.71348e-08)
(5.12534e-08 -2.93207e-11 0 6.3222e-08 0 5.72246e-08)
(5.02023e-08 -1.02209e-10 0 6.46143e-08 0 5.73814e-08)
(4.93851e-08 -2.01673e-10 0 6.58459e-08 0 5.75675e-08)
(4.86594e-08 -3.75292e-10 0 6.69758e-08 0 5.77589e-08)
(4.8038e-08 -6.03741e-10 0 6.79816e-08 0 5.79456e-08)
(4.75774e-08 -8.12159e-10 0 6.87983e-08 0 5.81134e-08)
(4.72336e-08 -9.8269e-10 0 6.94403e-08 0 5.82534e-08)
(4.69357e-08 -1.18018e-09 0 6.99675e-08 0 5.8367e-08)
(4.67411e-08 -1.34255e-09 0 7.03378e-08 0 5.84497e-08)
(4.66037e-08 -1.4889e-09 0 7.05918e-08 0 5.85052e-08)
(4.65052e-08 -1.61727e-09 0 7.07523e-08 0 5.85376e-08)
(4.64725e-08 -1.73576e-09 0 7.08155e-08 0 5.85474e-08)
(4.64516e-08 -1.83647e-09 0 7.08053e-08 0 5.85363e-08)
(4.64785e-08 -1.91133e-09 0 7.07257e-08 0 5.85099e-08)
(4.65236e-08 -1.97248e-09 0 7.05966e-08 0 5.84702e-08)
(4.6587e-08 -2.02114e-09 0 7.04315e-08 0 5.84223e-08)
(4.66665e-08 -2.05234e-09 0 7.02332e-08 0 5.83662e-08)
(4.67601e-08 -2.0725e-09 0 7.00103e-08 0 5.83047e-08)
(4.68655e-08 -2.0916e-09 0 6.9767e-08 0 5.82389e-08)
(4.69801e-08 -2.10988e-09 0 6.95089e-08 0 5.81703e-08)
(4.71021e-08 -2.12498e-09 0 6.92387e-08 0 5.80997e-08)
(4.72327e-08 -2.13711e-09 0 6.89573e-08 0 5.80271e-08)
(4.73706e-08 -2.14846e-09 0 6.8667e-08 0 5.79536e-08)
(4.75135e-08 -2.15979e-09 0 6.83714e-08 0 5.78798e-08)
(4.76599e-08 -2.17561e-09 0 6.80729e-08 0 5.78061e-08)
(4.78159e-08 -2.17605e-09 0 6.77657e-08 0 5.7733e-08)
(4.79746e-08 -2.17074e-09 0 6.74561e-08 0 5.76614e-08)
(4.81391e-08 -2.15782e-09 0 6.71431e-08 0 5.7591e-08)
(4.83028e-08 -2.14732e-09 0 6.68359e-08 0 5.75231e-08)
(4.84606e-08 -2.14291e-09 0 6.65432e-08 0 5.74583e-08)
(4.86128e-08 -2.1454e-09 0 6.62655e-08 0 5.73967e-08)
(4.87633e-08 -2.14271e-09 0 6.59946e-08 0 5.73382e-08)
(4.8928e-08 -2.13184e-09 0 6.57108e-08 0 5.72804e-08)
(4.91026e-08 -2.11894e-09 0 6.54165e-08 0 5.72244e-08)
(4.92806e-08 -2.10067e-09 0 6.51228e-08 0 5.71716e-08)
(4.94508e-08 -2.07969e-09 0 6.48449e-08 0 5.71228e-08)
(4.95921e-08 -2.07902e-09 0 6.46042e-08 0 5.70775e-08)
(4.97533e-08 -2.1046e-09 0 6.43565e-08 0 5.70294e-08)
(4.9893e-08 -2.1303e-09 0 6.41324e-08 0 5.69868e-08)
(5.00683e-08 -2.13223e-09 0 6.38755e-08 0 5.69454e-08)
(5.02509e-08 -2.13272e-09 0 6.36074e-08 0 5.69043e-08)
(5.0427e-08 -2.13128e-09 0 6.33445e-08 0 5.68653e-08)
(5.05882e-08 -2.13577e-09 0 6.31023e-08 0 5.68288e-08)
(5.07549e-08 -2.14314e-09 0 6.28628e-08 0 5.67941e-08)
(5.09456e-08 -2.15284e-09 0 6.26023e-08 0 5.67598e-08)
(5.11468e-08 -2.17319e-09 0 6.23309e-08 0 5.67268e-08)
(5.1289e-08 -2.18182e-09 0 6.21305e-08 0 5.67013e-08)
(5.14577e-08 -2.22569e-09 0 6.19246e-08 0 5.66811e-08)
(5.17328e-08 -2.29628e-09 0 6.16059e-08 0 5.66559e-08)
(5.18557e-08 -2.33574e-09 0 6.1435e-08 0 5.66378e-08)
(5.2049e-08 -2.45599e-09 0 6.12337e-08 0 5.66293e-08)
(5.22599e-08 -2.65101e-09 0 6.10244e-08 0 5.66286e-08)
(5.2493e-08 -2.71659e-09 0 6.0857e-08 0 5.66438e-08)
(5.26969e-08 -2.61379e-09 0 6.06384e-08 0 5.66342e-08)
(6.99941e-08 -1.74674e-09 0 4.92935e-08 0 5.9564e-08)
(6.95445e-08 -1.79784e-09 0 4.95333e-08 0 5.94293e-08)
(6.91776e-08 -1.85326e-09 0 4.96311e-08 0 5.93085e-08)
(6.8838e-08 -1.89028e-09 0 4.97824e-08 0 5.92114e-08)
(6.85336e-08 -1.92442e-09 0 4.99011e-08 0 5.91226e-08)
(6.8269e-08 -1.94431e-09 0 5.00027e-08 0 5.9047e-08)
(6.80312e-08 -1.98739e-09 0 5.00876e-08 0 5.89796e-08)
(6.78306e-08 -2.04448e-09 0 5.01764e-08 0 5.8927e-08)
(6.76693e-08 -2.07749e-09 0 5.02752e-08 0 5.88906e-08)
(6.75592e-08 -2.08665e-09 0 5.03491e-08 0 5.88681e-08)
(6.7462e-08 -2.0893e-09 0 5.04147e-08 0 5.88493e-08)
(6.73693e-08 -2.1002e-09 0 5.04675e-08 0 5.88286e-08)
(6.72487e-08 -2.1158e-09 0 5.05286e-08 0 5.87992e-08)
(6.70918e-08 -2.13192e-09 0 5.06041e-08 0 5.87602e-08)
(6.68885e-08 -2.16911e-09 0 5.07135e-08 0 5.87107e-08)
(6.66637e-08 -2.20683e-09 0 5.08298e-08 0 5.86566e-08)
(6.64052e-08 -2.20971e-09 0 5.09524e-08 0 5.85914e-08)
(6.60951e-08 -2.19095e-09 0 5.1089e-08 0 5.85063e-08)
(6.57157e-08 -2.17057e-09 0 5.1241e-08 0 5.83963e-08)
(6.52037e-08 -2.13564e-09 0 5.14573e-08 0 5.82548e-08)
(6.45558e-08 -2.0916e-09 0 5.175e-08 0 5.80832e-08)
(6.38068e-08 -2.03594e-09 0 5.20969e-08 0 5.7889e-08)
(6.29708e-08 -1.94207e-09 0 5.24991e-08 0 5.76786e-08)
(6.20885e-08 -1.77621e-09 0 5.29551e-08 0 5.74699e-08)
(6.11574e-08 -1.55371e-09 0 5.34519e-08 0 5.72625e-08)
(6.00406e-08 -1.26859e-09 0 5.40579e-08 0 5.70318e-08)
(5.88035e-08 -9.37821e-10 0 5.48278e-08 0 5.68248e-08)
(5.74947e-08 -6.0543e-10 0 5.58151e-08 0 5.66781e-08)
(5.6174e-08 -2.68453e-10 0 5.70463e-08 0 5.66215e-08)
(5.47942e-08 1.0103e-11 0 5.84189e-08 0 5.66153e-08)
(5.34822e-08 2.08328e-10 0 5.9918e-08 0 5.66971e-08)
(5.22388e-08 3.16752e-10 0 6.14587e-08 0 5.68346e-08)
(5.10545e-08 3.1329e-10 0 6.30282e-08 0 5.7021e-08)
(5.00694e-08 2.09652e-10 0 6.44886e-08 0 5.72449e-08)
(4.92006e-08 2.50643e-12 0 6.58477e-08 0 5.74791e-08)
(4.85143e-08 -2.25409e-10 0 6.7027e-08 0 5.77095e-08)
(4.79584e-08 -4.57749e-10 0 6.80328e-08 0 5.79201e-08)
(4.7507e-08 -7.08537e-10 0 6.88673e-08 0 5.81018e-08)
(4.71447e-08 -9.73738e-10 0 6.95453e-08 0 5.82532e-08)
(4.68838e-08 -1.18624e-09 0 7.00578e-08 0 5.83707e-08)
(4.6681e-08 -1.37408e-09 0 7.04428e-08 0 5.84594e-08)
(4.65579e-08 -1.56714e-09 0 7.06898e-08 0 5.85159e-08)
(4.64676e-08 -1.69896e-09 0 7.08447e-08 0 5.85494e-08)
(4.64281e-08 -1.84793e-09 0 7.09059e-08 0 5.85585e-08)
(4.64271e-08 -1.96724e-09 0 7.08773e-08 0 5.85445e-08)
(4.64448e-08 -2.05847e-09 0 7.07951e-08 0 5.85162e-08)
(4.65014e-08 -2.14833e-09 0 7.06561e-08 0 5.84749e-08)
(4.65614e-08 -2.2247e-09 0 7.04873e-08 0 5.8425e-08)
(4.66446e-08 -2.277e-09 0 7.02854e-08 0 5.83665e-08)
(4.67367e-08 -2.31464e-09 0 7.00617e-08 0 5.83024e-08)
(4.68407e-08 -2.35005e-09 0 6.98185e-08 0 5.82349e-08)
(4.69545e-08 -2.37439e-09 0 6.95595e-08 0 5.81646e-08)
(4.70765e-08 -2.39709e-09 0 6.92873e-08 0 5.80924e-08)
(4.72081e-08 -2.40823e-09 0 6.90013e-08 0 5.80184e-08)
(4.73473e-08 -2.41867e-09 0 6.87048e-08 0 5.79433e-08)
(4.74921e-08 -2.421e-09 0 6.84023e-08 0 5.7868e-08)
(4.76413e-08 -2.41258e-09 0 6.80968e-08 0 5.77935e-08)
(4.77919e-08 -2.41425e-09 0 6.77932e-08 0 5.77199e-08)
(4.79451e-08 -2.41745e-09 0 6.74906e-08 0 5.76473e-08)
(4.81001e-08 -2.42198e-09 0 6.71896e-08 0 5.75759e-08)
(4.82595e-08 -2.41811e-09 0 6.68877e-08 0 5.75065e-08)
(4.84237e-08 -2.39922e-09 0 6.65851e-08 0 5.744e-08)
(4.859e-08 -2.36804e-09 0 6.62854e-08 0 5.73769e-08)
(4.87551e-08 -2.34075e-09 0 6.59934e-08 0 5.73163e-08)
(4.89171e-08 -2.33399e-09 0 6.57121e-08 0 5.72572e-08)
(4.90674e-08 -2.36968e-09 0 6.54493e-08 0 5.72008e-08)
(4.91995e-08 -2.3951e-09 0 6.52094e-08 0 5.7147e-08)
(4.93509e-08 -2.41221e-09 0 6.4957e-08 0 5.70933e-08)
(4.95465e-08 -2.42231e-09 0 6.46647e-08 0 5.7041e-08)
(4.9705e-08 -2.37559e-09 0 6.43969e-08 0 5.69982e-08)
(4.98671e-08 -2.36145e-09 0 6.41299e-08 0 5.69534e-08)
(5.0021e-08 -2.37022e-09 0 6.38822e-08 0 5.69078e-08)
(5.01748e-08 -2.37803e-09 0 6.36389e-08 0 5.68646e-08)
(5.03458e-08 -2.3885e-09 0 6.33841e-08 0 5.68213e-08)
(5.05267e-08 -2.39436e-09 0 6.31226e-08 0 5.67801e-08)
(5.06869e-08 -2.39657e-09 0 6.28855e-08 0 5.67438e-08)
(5.08595e-08 -2.4042e-09 0 6.26413e-08 0 5.67087e-08)
(5.10489e-08 -2.42574e-09 0 6.2383e-08 0 5.6674e-08)
(5.12002e-08 -2.43894e-09 0 6.21708e-08 0 5.66454e-08)
(5.13367e-08 -2.47003e-09 0 6.19869e-08 0 5.66251e-08)
(5.15823e-08 -2.53662e-09 0 6.17019e-08 0 5.65998e-08)
(5.16928e-08 -2.58125e-09 0 6.15404e-08 0 5.65803e-08)
(5.19299e-08 -2.71478e-09 0 6.12587e-08 0 5.65641e-08)
(5.20212e-08 -2.89409e-09 0 6.1103e-08 0 5.65472e-08)
(5.21468e-08 -3.00586e-09 0 6.09603e-08 0 5.65423e-08)
(5.23259e-08 -3.08597e-09 0 6.07819e-08 0 5.65361e-08)
(6.84103e-08 -1.64574e-09 0 4.82762e-08 0 5.82472e-08)
(6.79618e-08 -1.72454e-09 0 4.85909e-08 0 5.81529e-08)
(6.76625e-08 -1.7895e-09 0 4.87028e-08 0 5.80723e-08)
(6.7396e-08 -1.85226e-09 0 4.88551e-08 0 5.80158e-08)
(6.71835e-08 -1.91155e-09 0 4.89493e-08 0 5.79651e-08)
(6.69421e-08 -1.95047e-09 0 4.90739e-08 0 5.79119e-08)
(6.67136e-08 -1.99235e-09 0 4.9195e-08 0 5.78632e-08)
(6.65457e-08 -2.02823e-09 0 4.92888e-08 0 5.78298e-08)
(6.64061e-08 -2.05945e-09 0 4.93796e-08 0 5.78041e-08)
(6.63031e-08 -2.08407e-09 0 4.94508e-08 0 5.77861e-08)
(6.62015e-08 -2.0944e-09 0 4.95286e-08 0 5.77696e-08)
(6.61069e-08 -2.09633e-09 0 4.95953e-08 0 5.77534e-08)
(6.59848e-08 -2.10605e-09 0 4.96735e-08 0 5.7731e-08)
(6.58297e-08 -2.12596e-09 0 4.97604e-08 0 5.77001e-08)
(6.56275e-08 -2.14416e-09 0 4.98789e-08 0 5.76623e-08)
(6.54269e-08 -2.19509e-09 0 5.00091e-08 0 5.76266e-08)
(6.52164e-08 -2.23837e-09 0 5.01519e-08 0 5.75894e-08)
(6.49752e-08 -2.26163e-09 0 5.02866e-08 0 5.75411e-08)