/*--------------------------------*- C++ -*----------------------------------*\
| =========                 |                                                 |
| \\      /  F ield         | OpenFOAM: The Open Source CFD Toolbox           |
|  \\    /   O peration     | Version:  v1912                                 |
|   \\  /    A nd           | Website:  www.openfoam.com                      |
|    \\/     M anipulation  |                                                 |
\*---------------------------------------------------------------------------*/
FoamFile
{
    version     2.0;
    format      ascii;
    class       surfaceScalarField;
    location    "80";
    object      alphaPhi0.water;
}
// * * * * * * * * * * * * * * * * * * * * * * * * * * * * * * * * * * * * * //

dimensions      [0 3 -1 0 0 0 0];
oriented        oriented;


internalField   nonuniform List<scalar> 
28285
(
1.14311e-05
-8.38998e-06
7.23261e-06
3.04948e-06
5.16037e-06
2.72656e-06
7.3399e-06
3.08017e-07
1.17211e-05
-1.88102e-06
1.43701e-05
-2.04957e-06
5.7081e-06
2.0507e-06
-2.89671e-06
1.98195e-06
-5.47455e-06
1.69293e-06
-1.92582e-06
-2.55347e-09
-4.17865e-08
7.41011e-09
1.2543e-06
-1.41024e-06
4.21983e-06
-6.67224e-07
5.01959e-06
1.1798e-06
4.26854e-06
7.63031e-07
1.84469e-06
2.41187e-06
-2.25193e-06
6.65668e-07
-5.76832e-06
8.35264e-07
-1.72258e-06
-8.1604e-06
8.31125e-07
-5.50271e-06
9.46238e-07
-1.42243e-06
1.59046e-06
-2.89817e-07
2.53372e-06
-9.43258e-07
2.32581e-06
2.0791e-07
2.09839e-06
2.89414e-07
1.69524e-06
3.83846e-07
1.59003e-06
1.2451e-07
1.47982e-06
-8.85393e-08
1.84142e-06
2.82356e-07
1.44354e-06
8.13357e-07
5.82002e-07
3.5983e-07
3.35835e-07
1.59769e-07
1.47728e-07
2.71647e-07
7.87054e-08
2.04549e-08
5.52103e-08
-2.52656e-10
7.04326e-08
-2.83693e-08
9.22339e-08
-7.82563e-09
1.26718e-07
-5.1702e-08
1.57245e-07
-1.26569e-08
1.88055e-07
-4.74661e-08
2.16165e-07
-1.43142e-08
2.76481e-07
-7.29474e-08
3.21705e-07
-3.1296e-08
4.19574e-07
-1.10637e-07
9.647e-07
1.73405e-08
1.05045e-06
-6.41294e-08
1.04351e-06
2.56071e-08
7.37273e-07
7.27981e-08
4.1824e-07
9.2336e-08
2.92999e-07
1.25241e-07
1.64646e-07
1.28352e-07
1.00567e-07
-3.52145e-10
1.33661e-07
-3.25529e-08
1.40847e-07
-6.64237e-09
5.29123e-08
1.04183e-07
1.85301e-08
5.05865e-08
1.60131e-08
-1.42609e-09
1.33299e-08
5.51886e-09
-3.58253e-09
1.6251e-08
-1.82694e-08
1.53483e-08
-1.70489e-08
-1.88187e-09
-2.70771e-08
-6.7995e-10
-1.20169e-07
4.09515e-09
-1.45597e-07
4.3273e-08
-9.79909e-08
-2.00103e-08
-5.47242e-08
-2.59345e-08
-4.53222e-08
-1.21493e-08
-1.5877e-08
-1.76381e-08
3.58215e-09
-2.78605e-08
3.5983e-09
-4.14018e-09
4.68801e-09
-2.52489e-09
1.07989e-08
-6.1107e-09
2.05123e-08
-9.7136e-09
2.60936e-08
-5.92338e-10
2.45819e-08
1.76327e-08
2.82115e-08
3.55601e-08
3.22886e-08
-2.21393e-09
2.69405e-08
3.48498e-09
7.46427e-09
8.73429e-09
2.96923e-09
5.78706e-10
2.63784e-09
-5.76381e-10
2.74065e-09
-2.25019e-11
3.34421e-09
-3.30975e-10
1.58613e-09
2.26648e-10
1.81107e-09
-2.61576e-10
2.712e-09
-8.64292e-10
2.91731e-09
-1.80089e-13
5.9369e-09
4.90239e-10
1.11647e-08
4.31698e-10
1.78676e-08
-2.68641e-09
2.11065e-08
-2.76352e-09
2.63001e-08
-4.96971e-09
3.08023e-08
-7.32687e-09
2.84966e-08
-1.52926e-08
1.53628e-08
-6.12505e-09
1.56877e-08
-2.60809e-10
1.35633e-08
2.487e-09
1.02908e-08
3.33653e-09
2.48079e-08
1.4379e-08
1.99152e-08
3.66216e-09
1.71431e-08
4.0026e-09
1.32587e-08
-1.95116e-10
1.02907e-08
-3.67606e-11
-1.85276e-10
1.09845e-08
1.48216e-05
-1.86722e-05
8.70578e-06
5.5965e-06
4.6071e-06
4.14101e-06
3.4641e-06
-1.12631e-06
4.51628e-06
-2.92048e-06
6.1053e-06
-3.64819e-06
4.28223e-06
3.88337e-06
-1.23312e-06
1.40535e-06
-3.44425e-06
3.75929e-06
-2.1558e-06
-3.86823e-06
-2.44034e-07
-9.42729e-06
6.80778e-07
-5.81009e-06
1.38828e-06
-3.20633e-06
1.60373e-06
9.03267e-07
2.25179e-06
8.98495e-07
-4.74377e-08
4.72308e-06
-3.95859e-06
7.27419e-07
-1.53591e-05
6.17007e-06
-6.41059e-06
-1.96815e-05
2.05319e-06
-1.6662e-05
3.53644e-06
-1.06145e-05
2.82653e-06
-4.81977e-06
2.69363e-06
-1.52203e-06
1.66062e-06
7.11109e-07
5.39493e-07
7.81127e-07
5.80171e-07
3.81181e-07
5.51326e-07
1.36114e-07
5.65673e-07
-9.64561e-08
1.05768e-06
8.68813e-07
1.02202e-06
1.29372e-06
8.96591e-08
1.24229e-06
-3.23547e-07
6.22875e-07
-2.6011e-07
2.20737e-07
-5.14143e-09
-1.00335e-07
9.36803e-08
-1.98806e-07
1.09727e-07
-6.93833e-08
1.67571e-07
-4.25215e-08
1.95368e-07
-3.0399e-08
2.81438e-07
-7.92299e-08
4.62866e-07
-2.37479e-07
5.73718e-07
-1.66751e-07
6.06567e-07
-4.31724e-07
3.92242e-07
-1.57222e-07
4.48687e-07
-2.60077e-07
6.42175e-07
-1.3475e-07
7.12534e-07
-8.91262e-08
5.97783e-07
1.55925e-08
3.23873e-07
5.47704e-08
2.13584e-07
2.13891e-09
2.37301e-07
5.87857e-08
2.03568e-07
1.62086e-07
1.86957e-07
-3.9069e-08
2.6785e-07
-4.18876e-08
2.61686e-07
9.75924e-08
5.52672e-08
4.85425e-07
1.50001e-08
1.48364e-07
1.57655e-08
-1.12199e-08
3.09956e-09
2.46107e-08
-1.33665e-08
6.64375e-08
-9.35192e-08
1.35551e-07
-5.49067e-08
-1.09127e-08
-4.61931e-08
-4.78685e-09
-9.06375e-08
3.2443e-08
-4.62579e-08
8.2807e-09
-3.54032e-08
-1.36773e-09
-1.65964e-08
-4.77583e-08
-1.90987e-08
-1.22795e-08
-3.41268e-08
-1.22764e-08
-9.09335e-09
-4.08332e-08
4.47344e-10
-2.01545e-08
9.55335e-09
-3.678e-08
2.74089e-08
-8.53451e-08
4.47147e-08
-1.36315e-07
3.84356e-08
-1.23377e-08
2.47855e-08
4.99885e-08
2.7382e-08
6.23481e-08
1.69003e-08
-1.59351e-09
8.28063e-09
1.68933e-09
1.94825e-09
1.03484e-09
1.06091e-09
1.88676e-10
1.83531e-09
-2.35003e-09
6.47269e-09
-7.88985e-10
8.98737e-09
-2.11983e-09
3.57858e-09
1.3385e-09
2.03927e-09
-2.18464e-11
3.00564e-09
-1.86729e-09
8.3365e-09
-3.3095e-09
2.54571e-08
1.90939e-09
3.85834e-08
1.38493e-09
4.07438e-08
-3.13164e-09
4.40726e-08
-4.38963e-09
5.34331e-08
-8.56684e-09
6.70879e-08
-1.49431e-08
6.34455e-08
-2.68458e-08
3.32733e-08
-1.76133e-11
1.68632e-08
-1.25957e-09
1.26133e-08
6.80648e-09
9.10991e-09
7.20248e-09
3.0155e-08
3.13036e-08
2.61666e-08
8.88095e-09
7.61212e-09
1.89137e-09
3.225e-10
-9.39638e-13
1.89288e-10
-5.54002e-12
-6.61721e-10
3.78413e-10
2.09269e-05
-3.14332e-05
1.93502e-05
7.69377e-06
1.16854e-05
5.03022e-06
6.92871e-06
-4.80189e-06
4.80847e-06
-1.11284e-05
6.84752e-06
-2.64235e-06
4.41942e-06
6.30188e-06
-3.79357e-07
9.19572e-06
-8.92854e-06
1.07249e-05
-7.53101e-06
-2.14897e-05
-1.6192e-06
-2.91901e-05
1.11283e-06
-2.43913e-05
1.96085e-06
-6.68409e-06
1.23638e-06
1.57434e-06
2.16779e-06
3.20231e-07
1.66614e-07
2.58259e-06
-5.36214e-06
8.94172e-07
-1.50171e-05
9.95611e-06
-5.54025e-06
-2.91585e-05
3.3472e-06
-2.55492e-05
8.77354e-06
-1.6041e-05
1.04147e-05
-1.3021e-05
5.72356e-06
-7.77065e-06
3.55556e-06
2.138e-06
1.14579e-06
2.91751e-06
6.41157e-07
9.26511e-07
5.8317e-07
3.94257e-07
9.78043e-07
-5.58428e-07
8.91961e-07
1.29804e-06
6.7022e-07
2.9501e-06
1.7509e-07
8.61844e-07
3.03722e-08
-2.92465e-11
4.99753e-08
8.9642e-09
6.77654e-08
-2.51012e-08
1.18719e-07
-3.0535e-08
1.77935e-07
-6.35724e-08
2.21866e-07
-4.39066e-08
3.2686e-07
-9.2923e-08
6.85167e-07
-3.53679e-07
9.3812e-07
-5.75688e-07
1.12716e-06
-3.78875e-07
1.39219e-06
-7.20381e-07
1.29087e-06
-4.52707e-07
1.12379e-06
-9.72502e-07
6.67444e-07
-6.80348e-07
1.94729e-07
-1.39608e-07
2.04374e-07
3.61071e-08
1.69997e-07
1.49621e-07
1.3007e-07
1.01953e-07
1.31312e-07
5.19609e-08
2.70575e-07
9.41871e-08
3.61837e-07
-4.10884e-08
4.52199e-07
-8.00528e-08
4.92559e-07
5.72324e-08
2.46721e-07
7.31263e-07
8.25778e-08
3.62215e-07
2.7698e-08
-2.14936e-08
1.5369e-08
4.80081e-08
-6.02492e-08
2.36432e-07
-2.73785e-07
5.04613e-07
-1.50538e-07
-2.79508e-08
-3.0118e-08
-3.03967e-08
-7.27832e-08
6.45936e-08
-1.12392e-07
1.5733e-08
-1.68138e-07
-7.44988e-08
-7.67e-08
-2.93844e-07
-5.86996e-09
-8.15508e-08
-1.13688e-08
-1.34304e-08
4.676e-09
-2.11318e-08
2.26629e-08
-3.97835e-08
4.03267e-08
-5.28036e-08
7.7883e-08
-1.24544e-07
1.42183e-07
-1.98974e-07
9.04574e-08
-5.21278e-08
4.35489e-08
9.57632e-08
2.48774e-08
1.23493e-07
3.33269e-09
-8.95044e-10
1.2374e-09
1.04212e-11
7.54322e-10
5.92436e-13
5.09018e-10
1.33324e-10
4.19099e-09
-5.22307e-09
8.71196e-09
-5.11168e-09
1.08934e-08
-4.30125e-09
4.1659e-09
2.56252e-09
2.20778e-09
-7.15076e-11
6.4752e-09
-8.93231e-09
2.38748e-08
-3.23253e-09
3.12171e-08
4.87978e-09
1.95027e-08
2.07924e-09
7.75903e-09
-3.64797e-10
8.17597e-09
-1.27182e-09
1.09979e-08
-5.48536e-09
1.56609e-08
-8.87153e-09
2.22072e-08
-1.51725e-08
5.77654e-08
-1.35694e-08
5.67279e-08
-1.09133e-08
2.41181e-08
3.57555e-08
1.68317e-08
4.96862e-08
2.58783e-08
8.42282e-08
1.0872e-08
2.04667e-09
8.91581e-11
3.0304e-11
2.37382e-11
-4.29824e-17
-3.71565e-11
-2.6961e-15
-2.8336e-09
1.39518e-09
1.36345e-05
-3.74925e-05
1.42461e-05
7.48769e-06
1.42358e-05
5.68366e-06
1.51075e-05
-1.88169e-05
1.61685e-05
-3.31076e-05
8.86328e-06
-3.59717e-05
2.36746e-06
1.45315e-05
4.49426e-07
8.72813e-06
-1.2728e-05
2.23433e-05
-9.26688e-06
-2.6108e-05
-1.7753e-06
-3.71827e-05
2.42486e-06
-2.98607e-05
2.11804e-06
-8.50231e-06
2.8475e-07
4.24962e-06
3.71463e-07
5.1459e-08
-1.12069e-07
1.497e-06
-1.18142e-05
3.46222e-06
-1.16074e-05
3.93262e-06
-5.47452e-06
-1.34079e-05
2.2426e-06
-1.44045e-05
8.31667e-06
-2.21149e-05
1.1797e-05
-1.65016e-05
1.40047e-05
-3.18759e-05
3.39837e-06
2.39115e-06
1.26246e-06
3.30591e-06
1.20822e-06
2.27215e-06
2.21204e-06
1.40849e-06
3.40516e-06
-1.88736e-06
1.77191e-06
4.62888e-06
7.43275e-07
9.1958e-06
1.48135e-07
2.45342e-08
2.60575e-08
1.85856e-08
1.21735e-08
2.27104e-08
9.55995e-09
-2.23067e-08
2.13671e-08
-4.24788e-08
4.50272e-08
-8.70514e-08
6.4709e-08
-6.36984e-08
5.89429e-07
-5.74293e-07
8.25232e-07
-6.11193e-07
1.05599e-06
-8.2926e-07
1.23054e-06
-5.75166e-07
1.44006e-06
-9.53238e-07
1.5948e-06
-6.30915e-07
1.86284e-06
-1.26542e-06
1.01015e-06
-1.49435e-06
5.17971e-07
-5.2761e-07
2.03546e-07
5.26602e-08
1.5202e-07
2.43937e-07
1.33403e-07
2.09053e-07
8.2792e-08
1.90481e-07
1.5844e-07
1.78434e-07
1.80921e-07
-1.03697e-08
8.45427e-08
-3.26035e-08
2.84204e-07
4.97043e-08
1.69379e-07
8.46088e-07
9.21398e-08
4.39454e-07
5.08386e-08
-1.3385e-07
8.30745e-09
1.12553e-07
-2.31485e-07
9.79107e-07
-4.72262e-07
8.52684e-07
-3.1655e-07
-7.61124e-08
-3.77017e-08
-9.89258e-08
-5.55067e-08
9.29132e-08
-2.17008e-07
1.36508e-07
-3.34031e-07
-2.77163e-07
-1.85868e-07
-4.40161e-07
-6.60362e-09
-2.64582e-07
-4.06102e-09
-2.26083e-08
-7.45036e-09
-9.11179e-09
1.85985e-09
-1.39719e-08
2.83402e-08
-4.86736e-08
6.30035e-08
-6.48716e-08
1.16085e-07
-1.20139e-07
1.38216e-07
-7.28269e-08
1.12628e-07
1.1992e-07
3.25329e-08
4.17007e-08
3.23385e-10
-3.97711e-10
2.62853e-10
7.16657e-11
2.52095e-10
4.565e-10
2.4256e-09
1.07281e-09
7.54566e-09
-9.24745e-09
1.11944e-08
-8.76047e-09
1.28855e-08
-5.99226e-09
6.87374e-09
7.17671e-10
2.54395e-09
-5.62508e-12
3.32021e-08
-4.4858e-08
3.9212e-08
-1.53318e-08
2.31562e-08
1.88931e-09
1.76254e-09
5.86129e-10
7.73823e-10
-1.48784e-10
3.71938e-09
-1.28598e-09
4.53519e-09
-8.49843e-09
6.07896e-09
-1.66399e-08
9.52147e-09
-2.83081e-08
1.03486e-07
-1.35833e-08
1.28817e-07
-3.10688e-09
1.11077e-07
1.16801e-07
8.83304e-08
1.82624e-07
7.04997e-08
1.94376e-07
7.43513e-10
4.46697e-09
2.50573e-10
4.58528e-10
1.66708e-10
2.01404e-11
3.27049e-09
-7.65856e-10
-7.80563e-09
1.05465e-08
1.38815e-05
-4.2611e-05
1.24752e-05
8.67079e-06
1.5592e-05
5.01408e-07
2.04153e-05
-2.36456e-05
2.54731e-05
-3.816e-05
3.04544e-05
-4.09584e-05
1.27175e-05
2.08892e-05
6.5648e-07
1.82809e-05
-9.07378e-06
1.99234e-05
-8.49868e-06
-1.65108e-05
-7.15412e-07
-4.61234e-05
4.32001e-06
-3.53971e-05
5.16969e-06
-5.41078e-06
6.66353e-07
4.9366e-06
1.07307e-07
7.06199e-08
-3.16048e-07
1.9198e-06
-6.01401e-06
3.44464e-06
-4.32109e-06
6.54314e-06
-1.99697e-06
-1.58184e-05
8.57952e-07
-1.7173e-05
7.31713e-06
-5.73102e-06
1.31445e-05
-1.56712e-05
1.66326e-05
-2.92714e-05
3.69645e-06
3.56941e-07
1.64257e-06
3.65457e-06
2.29656e-06
4.41968e-06
3.43097e-06
3.19103e-06
4.31881e-06
-1.02914e-06
6.94356e-07
1.97629e-06
2.02382e-06
1.79585e-06
1.6663e-07
7.13906e-08
3.26339e-08
1.52437e-07
1.58203e-08
3.97191e-08
1.38511e-08
-2.04753e-08
3.53204e-08
-7.47495e-08
1.49811e-07
-2.86408e-07
2.66379e-07
-1.89171e-07
6.96357e-07
-1.026e-06
9.09999e-07
-8.47628e-07
1.10609e-06
-1.04694e-06
1.25806e-06
-7.50049e-07
1.50532e-06
-1.22249e-06
1.53469e-06
-8.96916e-07
1.18324e-06
-1.16098e-06
8.20621e-07
-6.51713e-07
7.98837e-07
-2.19312e-07
7.82589e-07
1.34803e-07
3.47541e-07
4.622e-07
9.51242e-08
5.92398e-07
7.06393e-08
3.03198e-07
4.94663e-08
1.96814e-07
4.88229e-08
-6.93381e-09
5.65798e-08
-4.31529e-08
1.34637e-07
6.47436e-08
2.59325e-07
7.214e-07
1.13915e-07
1.69887e-07
1.88961e-07
-2.79069e-07
1.69665e-08
2.46938e-07
-2.34376e-07
1.37927e-06
-8.93476e-08
5.49186e-07
-6.76665e-08
-2.86372e-08
-3.23109e-08
-8.01321e-08
-6.4575e-08
2.98141e-07
-3.78292e-07
2.95264e-07
-2.98398e-07
-3.55209e-07
-1.81069e-07
-5.59337e-07
-2.34805e-08
-4.20323e-07
-1.9459e-09
-1.08015e-07
-4.74382e-10
-1.05833e-08
1.61841e-09
-5.75773e-09
9.1448e-09
-1.0149e-08
1.22659e-08
-2.06803e-08
3.60628e-08
-9.76357e-08
9.20935e-08
-5.30043e-08
1.16736e-07
6.57719e-08
2.27514e-08
2.88024e-08
7.76239e-10
2.43118e-12
4.02594e-10
4.45219e-10
1.10165e-10
7.49637e-10
4.11526e-09
7.29058e-10
1.0258e-08
-1.42962e-08
1.36951e-08
-1.65792e-08
1.37471e-08
-8.69243e-09
5.78589e-09
5.37939e-09
5.14906e-09
-8.37448e-09
5.231e-08
-9.06302e-08
5.60579e-08
-8.11392e-08
2.77183e-09
1.08255e-09
2.97122e-10
3.30262e-13
4.26168e-10
-7.98994e-11
3.1392e-09
-8.0377e-10
2.29242e-08
-1.86469e-08
4.20263e-08
-3.74406e-08
6.22238e-08
-1.58143e-07
5.72755e-08
-7.63773e-08
1.75215e-07
-1.72702e-08
1.73677e-07
1.28448e-07
1.22893e-07
2.23299e-07
4.19584e-08
2.38664e-08
3.2366e-10
1.85174e-09
5.51963e-11
7.04095e-10
4.99139e-09
2.12708e-10
1.11612e-08
-3.09829e-09
-1.09792e-08
2.26518e-08
1.46514e-05
-4.26915e-05
9.32116e-06
1.4136e-05
1.28231e-05
5.99481e-07
2.07194e-05
-3.15366e-05
2.69815e-05
-3.39632e-05
2.18802e-05
-1.20834e-05
2.43188e-05
3.34546e-05
5.16277e-07
3.85401e-05
-2.54237e-06
1.53173e-05
-5.06963e-06
-7.73102e-06
-1.52475e-06
-2.15509e-05
2.89016e-06
-4.09694e-05
1.73852e-06
-8.76619e-06
2.04052e-06
2.24023e-06
1.64489e-07
1.25194e-06
-3.30573e-07
2.41601e-06
-7.91995e-06
1.10335e-05
-4.59755e-06
5.61088e-06
-4.05122e-07
-3.5445e-05
2.20574e-06
-5.09273e-05
1.4076e-06
-8.94479e-06
4.67559e-06
-3.78939e-06
9.36835e-06
-3.78583e-06
4.9599e-06
3.99485e-06
2.56532e-06
1.05355e-05
3.39511e-06
5.51541e-06
3.99535e-06
2.0781e-06
2.01342e-06
-1.49503e-06
1.69855e-06
4.60706e-07
2.21949e-06
1.77523e-06
1.49687e-07
4.30753e-07
5.31323e-08
2.49188e-07
4.97225e-08
2.05147e-07
5.84039e-08
-2.09535e-08
2.51841e-07
-2.8507e-07
4.06823e-07
-4.52088e-07
3.79879e-07
-1.98761e-07
3.94691e-07
-5.69612e-07
5.98676e-07
-3.83346e-07
7.92456e-07
-4.61724e-07
7.28459e-07
-3.83193e-07
7.08905e-07
-9.31614e-07
6.30691e-07
-7.09285e-07
3.77198e-07
-7.56987e-07
2.64245e-07
-2.19223e-07
2.93595e-07
-6.075e-08
4.29722e-07
3.18158e-08
7.02328e-07
8.26891e-07
4.54951e-07
1.54237e-06
1.85504e-07
1.16884e-06
6.32369e-08
4.27564e-07
6.24738e-08
-1.1806e-08
8.56651e-08
-1.10345e-07
5.53955e-08
4.46966e-08
2.10174e-07
4.73914e-07
5.20636e-08
2.38351e-07
1.59922e-07
-3.8482e-07
1.69167e-08
3.41415e-07
-8.33598e-08
1.4776e-06
-1.29822e-08
2.04461e-07
-3.74817e-08
-9.78992e-09
-7.78742e-08
-3.41795e-08
-9.44209e-08
5.09833e-07
-2.9089e-07
3.89048e-07
-1.79252e-07
-5.17821e-07
-1.69708e-07
-4.20687e-07
-1.0502e-07
-4.86858e-07
-3.60541e-09
-2.53152e-07
-1.75518e-09
-1.24335e-08
-1.25093e-10
-7.38782e-09
1.68037e-09
-1.19544e-08
4.47867e-09
-2.34786e-08
2.02029e-08
-8.78484e-08
3.03727e-08
-4.29982e-08
5.00785e-08
1.51602e-08
1.16672e-08
1.33253e-08
7.07445e-10
3.96561e-11
3.45597e-10
8.07776e-10
5.67283e-11
1.03841e-09
7.36474e-10
8.68915e-11
5.95022e-09
-1.02551e-08
9.9294e-09
-8.74734e-09
9.76184e-09
-4.95593e-09
6.3928e-09
9.84014e-09
2.54123e-08
-3.47513e-08
6.24149e-08
-1.26208e-07
2.96495e-08
-5.36373e-08
1.15927e-10
1.00117e-09
3.47219e-11
2.37154e-11
2.07148e-10
-2.54955e-11
1.06386e-09
-7.91795e-11
1.75592e-08
-6.2507e-10
7.68038e-08
-3.14109e-08
1.1616e-07
-1.69219e-07
8.38737e-08
-8.83782e-08
7.89706e-08
-2.36772e-08
1.72188e-07
6.86239e-08
1.37041e-07
2.64404e-07
2.1048e-08
2.19606e-08
1.42078e-10
5.77814e-11
3.09558e-09
6.57368e-09
1.08909e-08
4.06777e-10
1.23657e-08
-4.23729e-10
-1.53201e-10
1.76982e-09
1.70939e-05
-2.46447e-05
1.07049e-05
2.50706e-05
8.18926e-06
9.26334e-07
5.59559e-06
-7.62988e-06
5.90891e-06
-4.8944e-06
4.10516e-06
-3.44704e-06
1.42341e-05
6.39394e-06
4.96817e-07
5.01511e-05
-1.44699e-06
1.72737e-05
-7.72164e-07
-8.41842e-06
-1.86492e-06
-1.81553e-05
8.34575e-07
-4.49842e-05
4.18434e-07
-2.29736e-05
1.13519e-07
2.54461e-06
-3.08457e-08
1.39746e-06
-5.84503e-07
2.96911e-06
-1.21121e-05
2.642e-05
-1.09797e-05
1.76743e-06
-5.86861e-07
-7.2217e-05
7.03209e-06
-5.85403e-05
1.83295e-06
-1.69163e-05
1.17926e-06
-3.01582e-06
1.91347e-06
-4.63992e-06
8.15766e-06
5.39513e-06
6.38378e-06
1.2802e-05
5.9127e-06
6.41087e-06
2.26242e-06
1.28969e-07
4.57196e-07
-1.34777e-06
5.13833e-07
9.30448e-10
1.46654e-06
1.09066e-06
2.48171e-07
4.00843e-07
2.39325e-07
8.6781e-07
2.18634e-07
4.52091e-07
2.17897e-07
7.60369e-08
2.37941e-07
-1.79179e-07
3.72605e-07
-5.87795e-07
3.65953e-07
-1.91066e-07
6.67076e-08
-2.08349e-07
9.15119e-08
-1.37301e-07
1.4994e-07
-1.44855e-07
2.18221e-07
-1.42462e-07
4.1353e-07
-2.37739e-07
4.73849e-07
-3.18271e-07
2.14966e-07
-3.46998e-07
1.19694e-07
-1.13155e-07
1.31963e-07
-8.38147e-08
1.50012e-07
2.45622e-08
7.88076e-07
4.41471e-07
6.90238e-07
1.63898e-06
4.90445e-07
1.36986e-06
2.08482e-07
1.60931e-06
1.88219e-07
-8.06623e-09
2.59686e-07
-1.87227e-07
6.24108e-08
1.60579e-07
1.14924e-07
1.95081e-07
5.74224e-08
2.29935e-07
2.03545e-07
-5.28807e-07
2.9616e-08
4.51562e-07
1.45075e-08
1.49466e-06
-5.18885e-09
7.05468e-08
-3.16241e-08
8.50896e-10
-8.03732e-08
-3.2901e-10
-1.16524e-07
2.50967e-07
-1.80425e-07
1.59747e-07
-1.37045e-07
-4.47519e-07
-1.03143e-07
-6.39316e-07
-9.63638e-08
-4.38762e-07
-6.40176e-09
-3.4814e-07
-4.93588e-10
-1.70195e-08
5.96886e-10
-8.47829e-09
4.64185e-09
-3.23031e-08
8.71182e-09
-4.14761e-08
1.09183e-08
-4.55468e-08
1.99574e-08
-4.30985e-08
1.75423e-08
7.21082e-12
2.5752e-09
9.02944e-10
3.71484e-10
2.32283e-10
2.62617e-10
9.16549e-10
-4.82168e-11
1.34995e-09
1.72003e-09
4.22852e-11
2.069e-09
-9.90626e-09
3.78125e-09
-6.09411e-09
6.68963e-09
-2.08064e-09
2.81175e-08
1.19018e-08
4.33025e-08
-3.57985e-08
4.68121e-08
-1.08752e-07
5.85382e-09
-7.58856e-09
1.23757e-10
2.08587e-13
9.5294e-11
5.45652e-11
1.00205e-10
-3.03252e-11
1.13887e-10
-9.05305e-11
3.78708e-10
-1.7545e-10
1.74859e-08
-1.9024e-09
1.43479e-07
-1.02198e-07
1.46134e-07
-1.17982e-07
1.04473e-07
-7.12484e-09
1.36989e-07
2.75213e-08
1.19909e-07
1.03955e-07
6.24287e-09
2.37716e-08
-8.0735e-10
2.0776e-09
5.56351e-09
7.37401e-09
5.0383e-09
3.00142e-11
1.73418e-10
-1.49695e-10
-1.01997e-10
5.22237e-11
4.06483e-06
-1.35656e-05
1.20357e-05
1.98165e-05
3.74747e-06
8.6623e-07
1.12102e-06
-1.00723e-06
1.83477e-06
-5.31836e-06
2.39504e-06
-3.72609e-06
3.3512e-06
1.278e-06
7.32386e-07
0.000106063
-1.69716e-06
1.96907e-05
-5.3895e-07
-3.97003e-05
-3.09807e-06
-1.31808e-05
5.88548e-07
-4.9208e-05
-7.34632e-07
-4.90629e-05
-4.5837e-07
7.33067e-06
-2.13973e-07
1.15252e-06
-8.94874e-07
3.65117e-06
-1.40424e-05
4.16211e-05
-1.21995e-05
-1.93605e-06
-2.41475e-06
-8.20008e-05
7.06546e-06
-6.80264e-05
7.27314e-06
-3.36365e-05
1.04467e-06
-5.98056e-06
1.52515e-06
-5.00053e-06
9.04512e-06
7.39311e-07
7.68375e-06
1.45878e-05
5.5998e-06
2.69974e-06
1.31142e-06
1.00524e-07
2.02656e-06
-2.52263e-06
5.13269e-07
1.11027e-06
6.71595e-07
1.07469e-07
2.03594e-07
4.14254e-07
1.97706e-07
8.82138e-07
5.69631e-09
6.35662e-07
2.72708e-08
1.19618e-08
2.7437e-08
-8.39062e-08
1.08578e-07
-1.19981e-07
1.57694e-07
-4.42627e-08
5.73061e-08
-1.20237e-07
6.34121e-08
-1.40643e-07
8.64101e-08
-1.66302e-07
1.07779e-07
-1.61047e-07
1.29897e-07
-1.63386e-07
1.97219e-07
-7.25814e-11
1.30407e-07
-1.46266e-07
1.66115e-07
-2.51309e-08
1.54423e-07
-5.50943e-08
1.26582e-07
4.16077e-08
4.33894e-07
1.06329e-07
6.98281e-07
1.37582e-06
5.20475e-07
1.54644e-06
2.9058e-07
4.08509e-07
2.72708e-07
1.08226e-08
2.89342e-07
-2.04878e-07
5.1738e-08
3.06837e-07
3.32317e-08
1.49266e-07
5.21708e-08
5.50401e-07
1.44522e-07
-6.19051e-07
3.88419e-08
5.24636e-07
9.16499e-08
6.60111e-07
1.46563e-10
1.49967e-07
-4.52129e-08
3.41299e-08
-5.28155e-08
6.13272e-09
-6.82144e-08
2.42014e-07
-9.92811e-08
1.89936e-07
-2.02476e-07
-1.77678e-07
-1.05924e-07
-1.07819e-06
-1.13641e-07
-3.87922e-07
-1.23714e-08
-4.44384e-07
-2.14688e-09
-1.31742e-08
5.59008e-10
-1.36991e-08
9.70504e-09
-6.03067e-08
2.00564e-08
-7.02855e-08
5.12989e-09
-3.76847e-08
2.77537e-08
-5.18199e-08
3.15792e-09
3.12294e-10
1.24147e-09
3.55229e-09
1.34598e-09
8.56932e-10
2.41768e-10
2.07476e-09
5.73726e-11
8.68827e-09
4.99075e-09
-1.12717e-09
5.44066e-09
-2.49737e-08
1.62569e-09
-8.30481e-09
1.91468e-09
-9.86882e-10
2.67675e-08
5.6879e-09
4.88164e-08
-3.20722e-08
3.08595e-09
-2.57379e-08
3.10389e-10
-8.97422e-10
1.33236e-10
2.66034e-11
9.34696e-11
9.4416e-11
9.67915e-11
-3.13172e-11
1.09562e-10
-1.03221e-10
1.34919e-10
-1.98516e-10
8.30507e-10
-3.24754e-10
2.77481e-08
-7.38842e-09
1.59806e-07
-2.23091e-07
9.6529e-08
-5.17583e-08
5.07414e-08
1.0268e-09
3.04265e-08
1.13349e-08
5.12189e-09
3.25929e-14
5.03784e-10
1.82567e-09
5.66428e-09
8.52524e-09
1.05633e-09
2.76337e-11
7.0789e-11
-3.03051e-11
-7.14107e-11
4.01651e-11
2.85449e-06
-1.50244e-05
1.16408e-05
1.3691e-05
1.46469e-06
1.07831e-05
1.209e-06
-1.38517e-05
1.62554e-06
-5.45367e-06
2.34008e-06
-4.1729e-06
1.09253e-06
2.78551e-06
1.68741e-06
0.000226472
-2.38149e-06
5.27324e-05
-1.17013e-06
-4.09093e-05
-2.12166e-06
-5.49105e-05
5.02527e-07
-4.8142e-05
-6.90435e-07
-4.70491e-05
-5.32377e-07
6.16924e-06
-3.17059e-07
2.28892e-06
-9.45899e-07
3.56597e-06
-1.33883e-05
5.52269e-05
-1.22842e-05
-4.66538e-06
-1.85835e-06
-9.24326e-05
6.54372e-06
-7.64269e-05
1.04326e-05
-3.80838e-05
2.18151e-06
-2.16826e-05
1.60671e-06
-7.832e-06
8.61008e-06
-8.52707e-07
7.95206e-06
8.04842e-06
3.29401e-06
1.21117e-06
3.06405e-06
7.0417e-08
3.42557e-06
-3.14101e-06
3.60382e-07
2.49339e-06
2.71066e-07
1.96876e-07
1.17236e-07
5.68185e-07
9.0079e-08
7.03453e-07
1.50032e-08
1.22801e-10
3.19988e-08
-1.68486e-08
4.29892e-08
-9.33734e-08
4.66379e-08
-1.20824e-07
5.939e-08
-5.54754e-08
6.41567e-08
-1.22223e-07
7.16718e-08
-1.46603e-07
9.31662e-08
-1.85035e-07
2.03315e-07
-4.40363e-07
1.87307e-07
-5.18549e-07
1.86389e-07
-4.05594e-08
2.22719e-07
-3.31225e-07
3.13078e-07
-2.2006e-07
3.03142e-07
-5.00489e-08
1.58304e-07
1.05629e-07
1.03557e-07
1.13233e-07
5.33548e-07
6.4896e-07
5.65706e-07
1.51551e-06
1.78684e-07
1.48111e-07
2.56289e-07
9.0841e-09
2.94717e-07
-9.82118e-08
1.27829e-07
4.12396e-07
2.72821e-08
2.473e-07
1.7083e-07
7.23189e-07
1.76751e-07
-4.24424e-07
5.10312e-08
9.22958e-07
1.58588e-08
4.90455e-07
6.51964e-10
2.92049e-07
-7.75285e-08
5.07704e-08
-4.9575e-08
3.73993e-08
-7.59576e-08
2.67543e-07
-1.20416e-07
2.35272e-07
-2.93918e-07
-1.13274e-07
-1.52488e-07
-1.23553e-06
-1.22771e-07
-6.02334e-07
-1.93735e-08
-5.52807e-07
3.35813e-11
-5.07071e-10
3.15748e-09
-2.00427e-08
1.17988e-08
-5.04211e-08
2.39217e-08
-5.10771e-08
8.23171e-09
-1.49302e-08
2.84613e-08
-5.81582e-08
4.4128e-09
3.39147e-08
7.69213e-10
7.93253e-09
7.08028e-09
6.23683e-09
6.63978e-10
1.41276e-08
1.83758e-09
1.03621e-07
5.84728e-09
-3.47318e-09
1.28702e-08
-3.36603e-08
6.93076e-09
-1.75615e-08
1.37845e-09
-1.18759e-09
1.00635e-08
2.27503e-09
1.3668e-08
-4.89756e-09
4.77242e-10
-3.18473e-09
1.8512e-10
1.90936e-10
1.01009e-10
1.00767e-10
8.96227e-11
8.61549e-11
9.82672e-11
-3.64812e-11
1.14015e-10
-1.16425e-10
1.36625e-10
-2.21051e-10
1.7652e-10
-3.62397e-10
2.52081e-09
-1.47938e-09
1.04e-07
-7.17477e-08
1.55679e-07
-6.06509e-08
5.78143e-09
1.05926e-07
1.59085e-10
-6.13195e-09
4.13652e-11
5.9801e-12
4.82657e-09
1.62636e-08
3.38415e-09
1.3156e-10
4.75536e-11
6.67476e-14
3.40667e-11
-3.13394e-11
-7.57589e-11
4.00008e-11
4.36875e-06
-9.05091e-05
5.62459e-06
8.87652e-06
3.78432e-06
1.022e-05
6.02067e-06
-3.15466e-05
2.37452e-06
-2.06825e-05
2.55837e-06
-4.07551e-06
1.91248e-06
3.69913e-06
2.05936e-06
7.82904e-05
-4.51689e-06
5.93111e-05
-2.45758e-06
-4.29805e-05
-2.00416e-06
-5.53616e-05
3.87163e-08
-5.22685e-05
-3.44969e-07
-4.74862e-05
-4.31853e-07
4.21174e-06
6.3049e-09
3.38052e-06
-1.4623e-06
1.15709e-06
-4.54297e-06
0.000115448
-1.034e-05
-2.78838e-06
-1.64132e-06
-0.000102664
6.56125e-06
-8.51879e-05
1.03825e-05
-4.18992e-05
6.15363e-06
-1.80122e-05
1.89408e-06
-5.13192e-05
2.88023e-06
-2.05749e-06
3.07135e-06
8.8079e-07
1.27536e-06
-9.56448e-10
1.97604e-06
7.48148e-08
1.72644e-06
-1.26877e-06
1.10854e-06
2.36027e-06
2.42191e-07
1.06333e-06
1.07202e-07
7.03265e-07
1.49428e-07
2.43126e-07
5.47811e-08
8.48396e-08
3.60427e-08
3.41185e-09
4.70262e-08
-1.01552e-07
5.9515e-08
-1.31776e-07
5.7485e-08
-5.06622e-08
5.31385e-08
-1.16325e-07
7.9958e-08
-1.7066e-07
4.44578e-07
-7.14615e-07
8.61907e-07
-1.20271e-06
8.56189e-07
-1.90378e-06
4.94831e-07
-9.11707e-07
6.86244e-07
-1.64819e-06
5.8959e-07
-1.16618e-06
4.05996e-07
-1.76099e-07
2.34116e-07
1.61342e-07
9.072e-08
2.0938e-07
2.8714e-07
1.43773e-07
3.56221e-07
5.03554e-07
7.36508e-08
7.49455e-08
9.92836e-08
2.19135e-09
6.02133e-08
-3.43458e-08
1.5984e-07
4.50866e-07
3.15758e-08
3.73371e-07
3.26201e-07
6.66506e-07
1.31815e-07
-2.38624e-07
1.82375e-07
1.4363e-06
3.7516e-08
9.77218e-07
-6.40745e-09
1.20916e-06
-5.27058e-08
3.34609e-08
-8.518e-08
7.15115e-09
-8.71497e-08
1.11465e-06
-1.54769e-07
5.3484e-07
-2.93868e-07
-1.79824e-08
-1.76136e-07
-1.35315e-06
-9.23886e-08
-7.02541e-07
-3.22052e-08
-2.91527e-07
-1.05632e-08
-5.60243e-08
-2.60757e-09
-3.0074e-08
3.68095e-09
-2.29038e-08
4.88321e-09
-6.11692e-08
1.09676e-08
-1.37138e-07
1.25234e-08
-5.19879e-08
5.87414e-09
5.33342e-08
2.31187e-09
3.86111e-08
1.60831e-08
1.76972e-08
8.60157e-09
2.02605e-08
1.74484e-09
1.15995e-07
1.60196e-09
-2.00366e-09
3.59831e-09
-1.72001e-08
7.74749e-09
-1.56241e-08
1.7374e-09
-8.18609e-10
2.58285e-09
1.52008e-10
1.29328e-09
-1.85355e-09
1.15966e-10
-4.43851e-09
1.11543e-10
-4.48007e-10
9.50488e-11
1.27209e-10
9.91623e-11
8.0907e-11
1.01902e-10
-3.8107e-11
1.14478e-10
-1.30233e-10
1.40513e-10
-2.44955e-10
1.74955e-10
-3.96843e-10
3.83458e-10
-6.07575e-10
3.3211e-08
-1.18116e-08
1.39409e-07
-1.15447e-07
4.92289e-08
1.4124e-07
3.07579e-10
2.97415e-08
-7.57927e-12
2.13823e-10
2.17781e-09
1.75589e-08
1.70968e-09
8.96325e-10
4.33811e-11
4.65528e-12
3.11322e-11
-1.73067e-11
-8.02913e-11
3.56563e-11
1.77128e-06
-9.02361e-05
1.10841e-06
9.70286e-06
5.02118e-06
6.24382e-06
1.02937e-05
-3.67558e-05
6.30449e-06
-5.7058e-05
1.60547e-06
-5.14026e-06
1.84768e-06
3.73816e-06
2.00759e-06
2.63804e-05
-3.88675e-06
3.33307e-05
-1.78381e-06
-4.50811e-05
-2.14722e-06
-5.50101e-05
2.53371e-07
-5.72087e-05
-1.7522e-08
-4.63946e-05
1.46476e-08
3.2064e-06
-3.78486e-07
9.15554e-06
-6.35625e-06
3.77917e-06
-3.99493e-06
0.000107099
-3.28809e-06
-4.4901e-06
-1.31572e-06
-0.000105594
5.98274e-06
-4.4767e-05
1.06153e-05
-4.76569e-05
6.62233e-06
-1.38991e-05
2.9057e-06
-4.83877e-05
2.87293e-07
-3.66711e-06
6.70056e-07
1.51473e-09
6.85684e-07
6.48441e-07
1.21758e-06
4.54707e-08
5.25139e-07
-6.27203e-07
1.99386e-06
1.80988e-06
3.64264e-07
2.60434e-06
1.37545e-07
9.30085e-07
8.45866e-08
4.24618e-07
4.77157e-08
1.21465e-07
4.2678e-08
-9.80705e-10
1.59438e-07
-4.55545e-07
5.9617e-08
-2.54819e-07
5.46728e-08
-4.41839e-08
7.53253e-08
-1.34193e-07
3.72593e-07
-6.96047e-07
1.0174e-06
-1.69591e-06
1.29221e-06
-1.47749e-06
1.50707e-06
-2.1236e-06
1.34783e-06
-1.60788e-06
1.43131e-06
-2.894e-06
1.17892e-06
-2.40312e-06
6.92812e-07
-8.80888e-07
2.97064e-07
3.11456e-07
6.2837e-08
4.26501e-07
5.56982e-08
1.57797e-07
6.8483e-08
1.29463e-07
2.99742e-08
1.20502e-07
3.29153e-08
3.41688e-10
2.45411e-08
-2.26716e-08
1.44568e-07
6.05108e-07
5.86809e-08
8.83387e-07
2.89161e-07
1.22607e-07
1.23802e-07
-1.18398e-07
1.73282e-07
1.39315e-06
9.40619e-08
6.60695e-07
-6.47546e-10
5.68748e-07
-1.2584e-08
1.96965e-08
-1.43803e-07
1.14902e-08
-2.21226e-07
1.34242e-06
-2.60543e-07
9.80403e-07
-2.83135e-07
-9.60046e-08
-1.69311e-07
-1.48339e-06
-5.39262e-08
-8.16517e-07
-2.46336e-08
-3.62111e-07
-7.61464e-10
-4.28914e-07
8.42381e-11
-2.20298e-08
3.37164e-09
-3.5081e-08
3.90881e-09
-5.28165e-08
3.42971e-08
-2.66648e-07
1.19451e-08
-2.17764e-08
1.0277e-08
9.05997e-08
2.11744e-08
1.46755e-07
2.12959e-08
3.96939e-09
7.26799e-09
1.53239e-08
3.32554e-09
1.1442e-07
6.89193e-10
-2.22538e-09
1.8925e-09
-1.42125e-08
6.27893e-09
-1.60803e-08
1.36575e-09
-3.07709e-09
3.4793e-10
-6.53885e-13
4.55299e-10
-2.26514e-09
9.76501e-09
-4.21697e-08
1.16887e-09
-5.93424e-09
1.08567e-10
4.01402e-10
9.8468e-11
9.37847e-11
1.0314e-10
-4.32503e-11
1.15786e-10
-1.40337e-10
1.38874e-10
-2.68295e-10
1.75679e-10
-4.31398e-10
2.26313e-10
-6.58232e-10
4.84571e-09
-3.07218e-09
1.16725e-07
-4.30543e-08
1.38371e-07
1.53096e-07
1.74059e-10
1.56345e-07
-8.55216e-10
1.5529e-09
4.3109e-09
1.56044e-08
7.7682e-10
1.18563e-09
4.58228e-11
4.62442e-14
3.44495e-11
-5.94457e-12
-2.70133e-13
-6.65613e-11
2.67877e-07
-8.11597e-05
5.41233e-07
9.22582e-06
6.01483e-06
6.72245e-07
1.00595e-05
-2.68523e-05
1.06675e-05
-4.39459e-05
2.45496e-06
-5.55386e-06
1.83637e-06
4.64447e-06
1.34666e-06
1.83295e-05
7.20715e-07
5.36072e-06
-2.02821e-06
-4.23441e-05
-2.18149e-06
-5.48544e-05
1.57882e-07
-5.956e-05
2.59163e-06
-2.29249e-05
7.8428e-08
7.84936e-06
-3.15356e-07
9.54183e-06
-5.30305e-06
7.77894e-06
-2.49517e-06
0.000110164
-7.89964e-06
-5.04001e-09
-2.82895e-07
-0.000112433
1.07851e-06
-6.699e-06
1.15347e-05
-5.77334e-05
5.99783e-06
-9.21056e-06
3.11033e-06
-3.36824e-05
1.92823e-07
-1.55686e-06
4.02818e-07
1.42191e-06
3.47756e-07
9.13685e-07
5.34663e-07
7.72606e-08
4.16499e-07
-7.74375e-07
2.28366e-06
1.36785e-06
3.35918e-07
6.1334e-06
1.54344e-07
2.28783e-06
8.16824e-08
4.97034e-07
7.61716e-08
1.27221e-07
2.19122e-07
4.42277e-08
4.83484e-07
-8.26599e-07
2.86185e-07
-9.74791e-07
1.55294e-07
-2.56212e-07
4.80328e-07
-1.11175e-06
7.89724e-07
-1.57039e-06
1.10424e-06
-2.01042e-06
1.31864e-06
-1.69684e-06
1.51341e-06
-2.3184e-06
1.60966e-06
-1.70909e-06
1.83151e-06