/*--------------------------------*- C++ -*----------------------------------*\
| =========                 |                                                 |
| \\      /  F ield         | OpenFOAM: The Open Source CFD Toolbox           |
|  \\    /   O peration     | Version:  v1912                                 |
|   \\  /    A nd           | Website:  www.openfoam.com                      |
|    \\/     M anipulation  |                                                 |
\*---------------------------------------------------------------------------*/
FoamFile
{
    version     2.0;
    format      ascii;
    class       volSymmTensorField;
    location    "80";
    object      R;
}
// * * * * * * * * * * * * * * * * * * * * * * * * * * * * * * * * * * * * * //

dimensions      [0 2 -2 0 0 0 0];


internalField   nonuniform List<symmTensor> 
14268
(
(0.0113798 0.00084277 0 0.0290915 0 0.0129593)
(0.0107014 0.00259308 0 0.0320975 0 0.011264)
(0.0137215 -0.000307859 0 0.043624 0 0.0138977)
(0.0230359 -0.00472609 0 0.0768985 0 0.0243977)
(0.0291405 -0.00176484 0 0.0910391 0 0.0309947)
(0.0300279 0.00421302 0 0.071406 0 0.0315698)
(0.019572 0.00543038 0 0.0365834 0 0.0184742)
(0.00839379 -0.000667927 0 0.00523502 0 0.00666539)
(0.03543 -0.00918726 0 0.0330908 0 0.0290584)
(0.0803847 -0.0354191 0 0.17344 0 0.0746337)
(0.083196 -0.0238644 0 0.256379 0 0.0897715)
(0.0898009 0.00219821 0 0.313671 0 0.0999075)
(0.0733717 0.0270273 0 0.151506 0 0.0751884)
(0.0345179 0.00898706 0 0.0346812 0 0.0330099)
(0.0161928 0.00439081 0 0.00744146 0 0.0149666)
(0.00513202 0.00139056 0 0.00126784 0 0.00444246)
(0.0149859 -1.09262e-05 0 0.0123 0 0.0125812)
(0.0515635 -0.0163406 0 0.0885343 0 0.0499677)
(0.0635401 -0.015178 0 0.147332 0 0.0808806)
(0.0679527 -0.00811312 0 0.164021 0 0.0886295)
(0.0683488 -0.0115725 0 0.184089 0 0.0830992)
(0.0695787 -0.00642995 0 0.20836 0 0.0815161)
(0.0672208 0.00950653 0 0.181494 0 0.0771871)
(0.045634 0.0139597 0 0.0939535 0 0.0474255)
(0.022447 0.00579849 0 0.0414319 0 0.020999)
(0.0244071 0.00282891 0 0.0509928 0 0.0229606)
(0.0270398 -0.00327856 0 0.0630264 0 0.0257392)
(0.0327655 -0.00136879 0 0.0763414 0 0.0336074)
(0.01648 -0.00109676 0 0.0242122 0 0.0152643)
(0.00645915 6.31732e-05 0 0.00361983 0 0.00543178)
(0.00925087 0.000347934 0 0.00673412 0 0.00849192)
(0.008811 -0.000872386 0 0.00796586 0 0.00957466)
(0.0182737 0.000342779 0 0.0174245 0 0.0193674)
(0.024079 -0.000196421 0 0.0331549 0 0.0261984)
(0.0301295 -0.00280997 0 0.0532659 0 0.0323731)
(0.035795 -0.00508736 0 0.0695631 0 0.0372366)
(0.0323909 -0.00386141 0 0.062765 0 0.0331333)
(0.0293734 -0.00380909 0 0.0620786 0 0.0308006)
(0.0249343 -0.00415431 0 0.0576635 0 0.0262409)
(0.0215761 -0.00412837 0 0.0533678 0 0.022154)
(0.0214179 -0.00460407 0 0.0540422 0 0.0218724)
(0.020879 -0.00476568 0 0.0567588 0 0.0213112)
(0.0191903 -0.0034271 0 0.0566546 0 0.0196713)
(0.0198363 -0.00105104 0 0.059543 0 0.0209263)
(0.0206449 0.00154365 0 0.0536643 0 0.0222031)
(0.0193936 0.000611183 0 0.0407875 0 0.0202378)
(0.0166709 0.00024022 0 0.0276804 0 0.0166347)
(0.010935 0.000560111 0 0.0149115 0 0.0102031)
(0.00526449 -0.000159354 0 0.00691589 0 0.00438452)
(0.0034632 -4.0569e-05 0 0.0049185 0 0.00270401)
(0.00346419 -0.000513629 0 0.00337883 0 0.00265584)
(0.0119556 -0.00256263 0 0.0232332 0 0.0110211)
(0.0165875 -0.00010738 0 0.0344165 0 0.0174316)
(0.0119942 0.00215943 0 0.0256816 0 0.0122175)
(0.00598191 0.00164203 0 0.0165513 0 0.00569899)
(0.0078068 0.000197802 0 0.0229706 0 0.00747157)
(0.0162137 -0.000325348 0 0.0457029 0 0.0168877)
(0.0115271 0.0019006 0 0.029375 0 0.0112427)
(0.00630416 0.00205988 0 0.0146897 0 0.0054951)
(0.00691234 0.000518888 0 0.0189512 0 0.006197)
(0.00907395 -0.000475992 0 0.0250471 0 0.00878219)
(0.00769693 0.000143648 0 0.0180817 0 0.00760303)
(0.00497468 -0.000661231 0 0.0074438 0 0.00426588)
(0.00785283 -0.00167242 0 0.0102011 0 0.00710562)
(0.0153616 -0.00267926 0 0.0295803 0 0.0164723)
(0.0181394 -0.0025313 0 0.0384171 0 0.0207746)
(0.0172404 -0.00246722 0 0.0343875 0 0.0195229)
(0.0192314 -0.00183173 0 0.0370798 0 0.0214192)
(0.0167308 -0.00214648 0 0.0317819 0 0.0181891)
(0.0138736 -0.0011675 0 0.0288196 0 0.0147519)
(0.0108872 -0.000689376 0 0.0246358 0 0.011597)
(0.0108955 -0.000897067 0 0.026469 0 0.0119729)
(0.0104572 0.000437268 0 0.025078 0 0.0120694)
(0.00732255 0.00121061 0 0.0160411 0 0.00812852)
(0.00282719 0.000458163 0 0.00610974 0 0.00271505)
(0.00134299 -0.000124723 0 0.00128415 0 0.00111633)
(0.00304044 -0.000179717 0 0.0030523 0 0.00265464)
(0.00410011 0.000477643 0 0.00438612 0 0.00366002)
(0.00420946 0.000396976 0 0.00464527 0 0.00400499)
(0.00429556 -0.000360865 0 0.00601222 0 0.0045209)
(0.00287112 -0.000513478 0 0.00420393 0 0.00303345)
(0.00200328 -0.000376052 0 0.00190205 0 0.00179668)
(0.00231234 -0.000341208 0 0.00186717 0 0.00198609)
(0.00350419 -0.000660921 0 0.00373211 0 0.00295081)
(0.00652951 -0.00101037 0 0.0104699 0 0.00594499)
(0.00778754 -0.00123523 0 0.0119392 0 0.00725118)
(0.008107 -0.00188138 0 0.00894164 0 0.00699222)
(0.00901837 -0.00207365 0 0.00816646 0 0.00763383)
(0.0112903 -0.00236228 0 0.0113553 0 0.0100704)
(0.0132114 -0.00231114 0 0.0157138 0 0.0127768)
(0.0136131 -0.00166028 0 0.0177868 0 0.0140046)
(0.0135601 -0.00083228 0 0.0187191 0 0.0145623)
(0.012737 0.000170437 0 0.0182973 0 0.014161)
(0.0110341 0.00102327 0 0.01724 0 0.0124543)
(0.00802859 0.00100914 0 0.0144322 0 0.00879428)
(0.00452295 0.000521033 0 0.00914477 0 0.00459756)
(0.001931 0.000259345 0 0.00395983 0 0.00173023)
(0.00157936 0.000242788 0 0.00290923 0 0.00131504)
(0.00149592 2.05471e-06 0 0.00148113 0 0.00128476)
(0.00260668 -0.000314968 0 0.00141487 0 0.00234748)
(0.00547998 -0.0010204 0 0.00438522 0 0.00534623)
(0.0082569 -0.00162027 0 0.00910233 0 0.00855415)
(0.0109082 -0.00204283 0 0.0141895 0 0.0117423)
(0.0144984 -0.00223161 0 0.0223204 0 0.0165646)
(0.0237869 0.000709924 0 0.0593134 0 0.0273629)
(0.0194038 0.00414087 0 0.0802659 0 0.0199797)
(0.0252863 -0.00862111 0 0.151823 0 0.025385)
(0.0500137 -0.028849 0 0.360836 0 0.0557515)
(0.0770245 -0.01722 0 0.527465 0 0.0862746)
(0.0960627 0.0331493 0 0.399245 0 0.103036)
(0.0620558 0.0387951 0 0.189823 0 0.0554105)
(0.0415141 -0.00190257 0 0.0121487 0 0.0284919)
(0.138919 -0.048558 0 0.123175 0 0.0984412)
(0.183931 -0.118476 0 0.6127 0 0.161679)
(0.136557 -0.0661635 0 0.714328 0 0.154037)
(0.155533 -0.0130655 0 1.03149 0 0.182056)
(0.214288 0.13196 0 0.653017 0 0.215052)
(0.160317 0.0681997 0 0.186176 0 0.148292)
(0.0688785 0.0212368 0 0.0125013 0 0.059728)
(0.0230879 0.00692496 0 1e-15 0 0.0177699)
(0.0569388 0.00464355 0 0.0380058 0 0.0448754)
(0.109673 -0.0478527 0 0.239146 0 0.103075)
(0.107846 -0.0394205 0 0.302254 0 0.151562)
(0.111207 -0.0245921 0 0.338009 0 0.165406)
(0.105341 -0.0325195 0 0.391358 0 0.144109)
(0.109683 -0.0242115 0 0.518851 0 0.142403)
(0.126727 0.0191033 0 0.520894 0 0.154505)
(0.112053 0.0479483 0 0.330773 0 0.114729)
(0.0698894 0.0280612 0 0.21421 0 0.0616829)
(0.0761743 0.0281 0 0.293909 0 0.0713179)
(0.0755801 0.00543987 0 0.356141 0 0.0736541)
(0.0881709 0.00998259 0 0.368336 0 0.0956122)
(0.0561071 -0.00348164 0 0.136979 0 0.050822)
(0.0280365 0.000269303 0 0.00231484 0 0.0212551)
(0.0363745 -0.00111186 0 0.0105142 0 0.0301191)
(0.036224 -0.0116839 0 1e-15 0 0.0358441)
(0.0582508 -0.0116684 0 0.0194042 0 0.0593205)
(0.0636414 -0.00826765 0 0.0708679 0 0.0703173)
(0.0742207 -0.0133459 0 0.151836 0 0.0830874)
(0.0916171 -0.0190822 0 0.24917 0 0.0991357)
(0.0809715 -0.0124663 0 0.21536 0 0.0847289)
(0.0715208 -0.0152828 0 0.217449 0 0.0774555)
(0.0572114 -0.0158324 0 0.201232 0 0.0630822)
(0.0471008 -0.0141902 0 0.178347 0 0.049997)
(0.0449009 -0.015834 0 0.173 0 0.0469399)
(0.0434856 -0.0179358 0 0.183948 0 0.0449187)
(0.0402653 -0.0167609 0 0.204223 0 0.0412901)
(0.043163 -0.0087813 0 0.222097 0 0.0464193)
(0.0528965 0.00667208 0 0.217392 0 0.0596745)
(0.0557531 0.00450573 0 0.175469 0 0.0604371)
(0.0516311 0.00242812 0 0.121038 0 0.0522937)
(0.0358609 0.00348914 0 0.0702973 0 0.0325142)
(0.016476 -0.000112735 0 0.0382574 0 0.012166)
(0.0110506 9.23464e-05 0 0.0269203 0 0.0071149)
(0.01262 -0.00241118 0 0.0135973 0 0.0083914)
(0.0305311 -0.00578584 0 0.0859447 0 0.0272809)
(0.0402414 0.00160276 0 0.111579 0 0.0431022)
(0.0276861 0.00405267 0 0.0738338 0 0.0274208)
(0.0128188 0.00209823 0 0.0675509 0 0.011284)
(0.0166365 -0.00200754 0 0.0994073 0 0.0154117)
(0.0347812 -0.00380288 0 0.177138 0 0.0369242)
(0.0282652 0.00226082 0 0.123092 0 0.0260691)
(0.0158129 0.00744692 0 0.0717903 0 0.0120384)
(0.0151774 0.00112717 0 0.0897856 0 0.0123465)
(0.0194656 -0.00404305 0 0.0952686 0 0.0174681)
(0.018838 -0.00288473 0 0.0702433 0 0.0177093)
(0.0155903 -0.00411402 0 0.0333538 0 0.012323)
(0.023427 -0.00622431 0 0.0398469 0 0.0204221)
(0.0399385 -0.00945148 0 0.120269 0 0.0455543)
(0.0452124 -0.0102592 0 0.150474 0 0.0571675)
(0.0441471 -0.011136 0 0.137905 0 0.0547958)
(0.0513235 -0.00994098 0 0.145721 0 0.0613699)
(0.0444555 -0.0114737 0 0.115418 0 0.05081)
(0.0350058 -0.00778735 0 0.101601 0 0.0385252)
(0.0268864 -0.00602771 0 0.0892471 0 0.0296472)
(0.0262905 -0.0052984 0 0.0960618 0 0.0306158)
(0.0251631 0.00121997 0 0.0891737 0 0.0317129)
(0.0185024 0.00407458 0 0.0585882 0 0.0219509)
(0.0077907 0.000827192 0 0.030099 0 0.00733313)
(0.00564651 -0.00086224 0 0.00664706 0 0.00434613)
(0.0112538 -0.000438872 0 0.0128312 0 0.00909636)
(0.0151891 0.00322394 0 0.0192295 0 0.0126246)
(0.0149227 0.00221985 0 0.0198261 0 0.013874)
(0.0137187 -0.00191388 0 0.0246453 0 0.0149249)
(0.00928722 -0.00294776 0 0.0172754 0 0.0101596)
(0.00798156 -0.00188945 0 0.00747726 0 0.00687776)
(0.00933396 -0.00149569 0 0.00628235 0 0.00753202)
(0.0125704 -0.0027664 0 0.014656 0 0.00980322)
(0.0195427 -0.00354493 0 0.0416441 0 0.0167953)
(0.0235233 -0.00493446 0 0.0457204 0 0.0207784)
(0.0262209 -0.00741681 0 0.0328957 0 0.0212122)
(0.0305117 -0.00837309 0 0.0268739 0 0.0240111)
(0.0366138 -0.00955758 0 0.0357271 0 0.0309233)
(0.0412484 -0.0102265 0 0.0509386 0 0.0388962)
(0.0418834 -0.00852887 0 0.0590092 0 0.0430343)
(0.0408088 -0.00543848 0 0.0618698 0 0.0445889)
(0.0375796 -0.000974528 0 0.0605037 0 0.0432965)
(0.0315427 0.003544 0 0.0569221 0 0.0373328)
(0.0223426 0.00339165 0 0.0507142 0 0.0253324)
(0.0126529 0.0010258 0 0.037687 0 0.0127705)
(0.00582986 0.000604361 0 0.0214096 0 0.00471892)
(0.00554547 0.00142968 0 0.0172826 0 0.00414258)
(0.00646822 -3.67599e-05 0 0.00812622 0 0.00529826)
(0.0114066 -0.00162073 0 0.00349104 0 0.0100162)
(0.0191335 -0.00411285 0 0.0147293 0 0.0190603)
(0.0259963 -0.00619923 0 0.0336 0 0.0284056)
(0.032387 -0.00764085 0 0.0522148 0 0.0375175)
(0.0407912 -0.00881259 0 0.081133 0 0.0511935)
(0.0427693 -0.0044946 0 0.0375614 0 0.0451657)
(0.0251402 -0.00010286 0 0.0537853 0 0.0251575)
(0.0304568 -0.0110028 0 0.151232 0 0.029737)
(0.0572458 -0.0373329 0 0.452305 0 0.0634279)
(0.0946302 -0.0352233 0 0.769332 0 0.1038)
(0.124373 0.0261245 0 0.683347 0 0.130752)
(0.0913757 0.0533662 0 0.411157 0 0.0838817)
(0.0698372 -0.00353622 0 0.0194544 0 0.0459775)
(0.201414 -0.0718878 0 0.262253 0 0.140851)
(0.16625 -0.0732334 0 0.637472 0 0.159905)
(0.132448 -0.0510807 0 0.672142 0 0.155173)
(0.148105 -0.0432841 0 0.999289 0 0.172033)
(0.200958 0.0643828 0 0.882828 0 0.212108)
(0.241345 0.0969443 0 0.450927 0 0.221326)
(0.112976 0.0352203 0 0.064227 0 0.101501)
(0.0428813 0.0194848 0 1e-15 0 0.0321271)
(0.0959268 0.0171692 0 0.0640382 0 0.0749692)
(0.127345 -0.0325333 0 0.325565 0 0.131891)
(0.155006 -0.0589095 0 0.399531 0 0.215063)
(0.154525 -0.0458803 0 0.427306 0 0.229846)
(0.133165 -0.042772 0 0.445506 0 0.185171)
(0.123257 -0.0338939 0 0.536826 0 0.162226)
(0.14894 -0.00765731 0 0.603194 0 0.180785)
(0.11983 0.0190312 0 0.392469 0 0.125712)
(0.081622 0.0162512 0 0.305816 0 0.0707963)
(0.102298 0.0306103 0 0.551988 0 0.0955414)
(0.104839 0.0118828 0 0.637361 0 0.10332)
(0.115047 0.00504143 0 0.571237 0 0.126103)
(0.0814861 -0.00837076 0 0.308068 0 0.0758982)
(0.0492937 -0.00282832 0 0.0432268 0 0.0361539)
(0.0738407 -0.00509 0 1e-15 0 0.0552326)
(0.120689 -0.0334535 0 1e-15 0 0.0943608)
(0.129869 -0.0382748 0 0.0442939 0 0.119164)
(0.119935 -0.02382 0 0.143109 0 0.127885)
(0.120293 -0.0266332 0 0.256827 0 0.13391)
(0.127752 -0.0289637 0 0.355411 0 0.138731)
(0.115733 -0.0259297 0 0.308268 0 0.119914)
(0.0988287 -0.0225094 0 0.305955 0 0.107289)
(0.0755446 -0.0190735 0 0.250053 0 0.0845698)
(0.0617782 -0.016947 0 0.192811 0 0.0661742)
(0.0596868 -0.0201479 0 0.194379 0 0.0626695)
(0.0574153 -0.0228178 0 0.208646 0 0.0593558)
(0.0518641 -0.0216372 0 0.234196 0 0.0528612)
(0.0561015 -0.0134276 0 0.270236 0 0.0593851)
(0.0714282 0.00248543 0 0.322245 0 0.0803573)
(0.0811687 0.00614563 0 0.317948 0 0.0890193)
(0.0767 0.00657963 0 0.253568 0 0.0790608)
(0.0541864 0.00719076 0 0.165003 0 0.0490386)
(0.02448 -0.00135518 0 0.100266 0 0.0171227)
(0.0175041 -0.000217709 0 0.079222 0 0.0106422)
(0.0213845 -0.00411498 0 0.0266429 0 0.0132085)
(0.0443687 -0.0107142 0 0.0920708 0 0.0378792)
(0.056448 -0.00522193 0 0.126213 0 0.0601779)
(0.0393777 -6.82573e-05 0 0.0650499 0 0.0384382)
(0.0181537 -0.00143221 0 0.065463 0 0.0153403)
(0.0218634 -0.0041736 0 0.11006 0 0.0194768)
(0.0453069 -0.0107031 0 0.265477 0 0.0476783)
(0.038777 -0.00418876 0 0.209592 0 0.0349246)
(0.0223722 0.00640317 0 0.139225 0 0.0165828)
(0.0209248 0.000965477 0 0.128784 0 0.0166737)
(0.0250265 -0.00518213 0 0.104525 0 0.0211129)
(0.0255794 -0.00638353 0 0.0968074 0 0.0227378)
(0.0244055 -0.00752208 0 0.0674 0 0.0188041)
(0.0344113 -0.00851439 0 0.0746767 0 0.0299001)
(0.0529713 -0.0119598 0 0.197071 0 0.0616069)
(0.0593965 -0.0139151 0 0.223149 0 0.0767092)
(0.0581576 -0.0172538 0 0.22142 0 0.0740494)
(0.0724117 -0.0201019 0 0.262501 0 0.0879735)
(0.0641783 -0.0214103 0 0.190785 0 0.0744064)
(0.0495231 -0.0129051 0 0.14494 0 0.0552445)
(0.0374673 -0.00977402 0 0.116573 0 0.0416386)
(0.0364798 -0.00811464 0 0.125254 0 0.042749)
(0.0345944 0.00152466 0 0.109896 0 0.0440785)
(0.0252093 0.00546266 0 0.0711269 0 0.0304896)
(0.0108468 9.59435e-05 0 0.0502091 0 0.0100752)
(0.00946669 -0.00175207 0 0.0133981 0 0.00704353)
(0.0170093 -0.000901969 0 0.028691 0 0.0132199)
(0.0231938 0.00574945 0 0.0446853 0 0.0186984)
(0.0227295 0.00379447 0 0.0434815 0 0.0208961)
(0.019534 -0.00324721 0 0.0448898 0 0.0214658)
(0.0132036 -0.00509685 0 0.0282157 0 0.0146645)
(0.0125819 -0.00313464 0 0.00823259 0 0.0106849)
(0.0150505 -0.00211239 0 0.00490315 0 0.0118343)
(0.0188904 -0.00371616 0 0.0214995 0 0.0143516)
(0.0280174 -0.00516272 0 0.0683447 0 0.0234578)
(0.0342635 -0.00816524 0 0.072393 0 0.0290868)
(0.0384932 -0.0113137 0 0.0448534 0 0.0299986)
(0.0458771 -0.0131004 0 0.0317702 0 0.0349737)
(0.0554487 -0.0157869 0 0.0501771 0 0.0456313)
(0.0620376 -0.0176157 0 0.081638 0 0.0575528)
(0.0625759 -0.0150534 0 0.0973174 0 0.0638143)
(0.0607862 -0.0102142 0 0.101613 0 0.0661027)
(0.0556263 -0.00272214 0 0.0989046 0 0.0640265)
(0.0464961 0.00524357 0 0.0912861 0 0.0549551)
(0.0324632 0.00539666 0 0.0746111 0 0.0366106)
(0.0175101 0.00110265 0 0.0569767 0 0.0174031)
(0.00854981 0.00023054 0 0.0425583 0 0.00663141)
(0.00841645 0.00181696 0 0.0368096 0 0.00607524)
(0.011053 -0.00059206 0 0.0164366 0 0.00888772)
(0.0185848 -0.00279242 0 0.00504076 0 0.0163536)
(0.028248 -0.00616329 0 0.0280678 0 0.0286471)
(0.0369681 -0.00925672 0 0.0579359 0 0.0415197)
(0.0456803 -0.0115104 0 0.0860819 0 0.0546148)
(0.0571661 -0.01349 0 0.130159 0 0.0741652)
(0.0606908 -0.00458213 0 0.094129 0 0.0628493)
(0.0313173 0.00461894 0 0.0122765 0 0.0308633)
(0.0296377 -0.00424725 0 0.0909162 0 0.0295277)
(0.0494337 -0.0292593 0 0.350159 0 0.0566999)
(0.0752645 -0.0368056 0 0.605021 0 0.0826799)
(0.108533 -0.000215286 0 0.62868 0 0.110917)
(0.0801777 0.0286651 0 0.557822 0 0.0747845)
(0.0741854 -0.0080258 0 0.0592535 0 0.0456733)
(0.203969 -0.0645023 0 0.318536 0 0.135756)
(0.146465 -0.0470903 0 0.486066 0 0.143026)
(0.144007 -0.0478099 0 0.570081 0 0.166455)
(0.142648 -0.0442571 0 0.838493 0 0.165014)
(0.133861 -0.00831799 0 0.702329 0 0.143581)
(0.249781 0.0539995 0 0.567982 0 0.227941)
(0.135601 0.0231678 0 0.245092 0 0.127278)
(0.0820563 0.0378106 0 1e-15 0 0.0567518)
(0.124887 0.0330276 0 0.0759232 0 0.0970358)
(0.131203 -0.0356397 0 0.294056 0 0.138318)
(0.182198 -0.0987047 0 0.47387 0 0.245526)
(0.169729 -0.0739217 0 0.464854 0 0.257797)
(0.142069 -0.0479915 0 0.440093 0 0.204357)
(0.127613 -0.0304171 0 0.497951 0 0.170454)
(0.142502 -0.00281161 0 0.482078 0 0.175844)
(0.119011 0.00915701 0 0.35946 0 0.126455)
(0.0845965 0.0145832 0 0.361196 0 0.0715908)
(0.0994784 0.0237718 0 0.660801 0 0.0916408)
(0.0985354 -0.00103442 0 0.65049 0 0.0959196)
(0.111395 -0.00130222 0 0.475614 0 0.123157)
(0.085469 -0.0092815 0 0.28323 0 0.0788576)
(0.0615454 -0.00526335 0 0.100331 0 0.0446489)
(0.117138 -0.0108619 0 1e-15 0 0.0827845)
(0.173536 -0.0591184 0 0.103091 0 0.129887)
(0.170927 -0.0648885 0 0.268622 0 0.153988)
(0.156462 -0.0425483 0 0.376995 0 0.165518)
(0.15273 -0.0462153 0 0.454705 0 0.170668)
(0.158039 -0.0515489 0 0.503725 0 0.170998)
(0.143685 -0.0423652 0 0.457473 0 0.147587)
(0.110098 -0.0214601 0 0.31149 0 0.120312)
(0.084394 -0.0198276 0 0.220419 0 0.0959539)
(0.0719239 -0.0198161 0 0.160781 0 0.0775286)
(0.0688045 -0.0225079 0 0.178562 0 0.0724846)
(0.0642176 -0.0251005 0 0.195121 0 0.0663421)
(0.0568528 -0.0225309 0 0.209331 0 0.0576225)
(0.059916 -0.0122102 0 0.236339 0 0.0629218)
(0.0759644 0.00258564 0 0.30316 0 0.0858155)
(0.091208 0.00564624 0 0.377389 0 0.100923)
(0.0883197 0.00672224 0 0.349821 0 0.0918886)
(0.061731 0.00825931 0 0.252574 0 0.0557447)
(0.0258882 -0.0039375 0 0.164573 0 0.0164044)
(0.0181482 -0.00194268 0 0.148993 0 0.00923904)
(0.0276652 -0.0093415 0 0.0543415 0 0.0156446)
(0.0585023 -0.0222835 0 0.120862 0 0.047453)
(0.0707562 -0.00989746 0 0.198475 0 0.0749406)
(0.0498659 0.000997685 0 0.0736308 0 0.0476561)
(0.0207153 0.00113976 0 0.0357674 0 0.0174021)
(0.0242484 -0.00398011 0 0.0610004 0 0.0207282)
(0.0445706 -0.0120477 0 0.288829 0 0.0465825)
(0.0414259 -0.00661494 0 0.274307 0 0.0364914)
(0.0202823 0.00669803 0 0.170594 0 0.0136542)
(0.0199579 0.000492239 0 0.083908 0 0.0147065)
(0.0300282 -0.00666033 0 0.0338058 0 0.0219874)
(0.0287923 -0.00793613 0 0.0768192 0 0.0234581)
(0.0280704 -0.0105053 0 0.100428 0 0.0208166)
(0.0395249 -0.0111105 0 0.108116 0 0.0335453)
(0.0549324 -0.0114537 0 0.203658 0 0.0652238)
(0.0603681 -0.0157307 0 0.209434 0 0.0806845)
(0.0594502 -0.0200307 0 0.226435 0 0.0783336)
(0.0787763 -0.0309052 0 0.359171 0 0.0977155)
(0.075682 -0.0360411 0 0.284852 0 0.0881743)
(0.0586052 -0.0198956 0 0.191164 0 0.0659031)
(0.0439407 -0.013001 0 0.127688 0 0.0493986)
(0.0422061 -0.0108406 0 0.140745 0 0.0499676)
(0.0399527 0.00372411 0 0.110183 0 0.0518668)
(0.0296742 0.00966726 0 0.0499605 0 0.0364927)
(0.0122465 0.00101442 0 0.0348917 0 0.0113842)
(0.0126138 -0.00221486 0 0.00749703 0 0.00916462)
(0.0210117 -0.0014703 0 0.047695 0 0.0157596)
(0.0284243 0.00789492 0 0.0704887 0 0.0222024)
(0.0274954 0.00511491 0 0.0651419 0 0.0249966)
(0.023233 -0.004613 0 0.0566399 0 0.0256212)
(0.0159674 -0.00724566 0 0.0280655 0 0.0177846)
(0.0168961 -0.0045512 0 0.00414553 0 0.0142111)
(0.020412 -0.00274402 0 0.00184407 0 0.0157837)
(0.0240345 -0.00451928 0 0.0249451 0 0.0178255)
(0.0333437 -0.00664642 0 0.0890217 0 0.0271248)
(0.0408492 -0.0105428 0 0.0800608 0 0.0332796)
(0.0489285 -0.0154417 0 0.0400482 0 0.0365782)
(0.060581 -0.0187019 0 0.0302635 0 0.0444128)
(0.0714068 -0.0226585 0 0.0701135 0 0.0569036)
(0.0773134 -0.0249957 0 0.118382 0 0.0701979)
(0.0766643 -0.0213403 0 0.138703 0 0.0772798)
(0.0735096 -0.0144486 0 0.141911 0 0.0794852)
(0.0666207 -0.0038659 0 0.137709 0 0.0766723)
(0.0553099 0.00700886 0 0.125991 0 0.0653658)
(0.0386598 0.0085231 0 0.0887282 0 0.043366)
(0.0204664 0.00226792 0 0.0574829 0 0.0201013)
(0.00943707 0.000449254 0 0.0463877 0 0.0070483)
(0.00934456 0.000968611 0 0.0374667 0 0.00644245)
(0.0151571 -0.00126754 0 0.011053 0 0.0120121)
(0.0243477 -0.00408356 0 0.00818602 0 0.0212809)
(0.035143 -0.0085091 0 0.0412505 0 0.035694)
(0.0448998 -0.0127012 0 0.0753098 0 0.0508069)
(0.054556 -0.0153573 0 0.108748 0 0.0662046)
(0.0663449 -0.0173881 0 0.159664 0 0.0882778)
(0.0752383 -0.00446085 0 0.215213 0 0.077197)
(0.0411399 0.00751528 0 0.028675 0 0.0398197)
(0.0306853 0.00197856 0 0.0374408 0 0.0306125)
(0.0486657 -0.0152639 0 0.224823 0 0.0578802)
(0.082499 -0.030208 0 0.418712 0 0.089199)
(0.104182 -0.0105445 0 0.391056 0 0.101559)
(0.062619 0.00358047 0 0.446121 0 0.0568599)
(0.0704236 -0.00834697 0 0.171224 0 0.042499)
(0.202062 -0.0430136 0 0.253472 0 0.135399)
(0.159053 -0.0559176 0 0.373006 0 0.147441)
(0.142546 -0.0338229 0 0.468307 0 0.164387)
(0.1559 -0.0318182 0 0.72645 0 0.178566)
(0.113252 -0.0168392 0 0.54984 0 0.122957)
(0.248692 0.0114683 0 0.422575 0 0.223558)
(0.158072 -0.0253383 0 0.536016 0 0.148457)
(0.113362 0.0588286 0 0.111711 0 0.0768537)
(0.140761 0.0326956 0 0.135058 0 0.109852)
(0.163423 -0.0594967 0 0.375728 0 0.169598)
(0.251821 -0.171627 0 0.811175 0 0.310911)
(0.217948 -0.128282 0 0.736336 0 0.314436)
(0.157626 -0.0750343 0 0.528415 0 0.225416)
(0.129287 -0.029885 0 0.489299 0 0.172977)
(0.150985 0.00743814 0 0.34997 0 0.183916)
(0.122775 0.00550187 0 0.329589 0 0.127696)
(0.0954556 0.0125782 0 0.492948 0 0.080617)
(0.106353 0.022799 0 0.715304 0 0.0983813)
(0.101364 -0.00636143 0 0.545727 0 0.0979179)
(0.120961 -0.0135532 0 0.319971 0 0.132422)
(0.101521 -0.0176833 0 0.172726 0 0.0926828)
(0.0760053 -0.00729408 0 0.0556054 0 0.0553936)
(0.14635 -0.0196489 0 1e-15 0 0.100705)
(0.203518 -0.0729144 0 0.239676 0 0.149553)
(0.201784 -0.0852788 0 0.426717 0 0.177897)
(0.186628 -0.0644423 0 0.561761 0 0.193391)
(0.180731 -0.0663068 0 0.663368 0 0.200863)
(0.179461 -0.0634105 0 0.688885 0 0.195795)
(0.158618 -0.0438578 0 0.594081 0 0.165064)
(0.125463 -0.0217919 0 0.282804 0 0.136668)
(0.0990846 -0.0217608 0 0.194427 0 0.11324)
(0.0851099 -0.0219895 0 0.15151 0 0.0926292)
(0.0806143 -0.0266197 0 0.185983 0 0.0846262)
(0.0760677 -0.0329889 0 0.209853 0 0.0773418)
(0.0671181 -0.0298939 0 0.221311 0 0.0667588)
(0.0717802 -0.0149683 0 0.259416 0 0.0742215)
(0.0937901 0.00840977 0 0.365248 0 0.105651)
(0.105562 0.00994682 0 0.432669 0 0.117472)
(0.0989082 0.00547297 0 0.381625 0 0.103288)
(0.0681312 0.00535495 0 0.289188 0 0.0612202)
(0.0291539 -0.00743954 0 0.232489 0 0.0181526)
(0.0221146 -0.00479795 0 0.226219 0 0.011878)
(0.033659 -0.0161558 0 0.121899 0 0.0184018)
(0.068239 -0.0306493 0 0.249827 0 0.0550742)
(0.0809328 -0.0121741 0 0.370891 0 0.0869077)
(0.0602643 -0.00343012 0 0.167616 0 0.0569067)
(0.0276421 -0.000791207 0 0.0143163 0 0.0228239)
(0.0310698 -0.00222194 0 0.0293063 0 0.0257712)
(0.0464601 -0.00995852 0 0.255714 0 0.0477258)
(0.0458616 -0.0120172 0 0.32224 0 0.0396971)
(0.0220093 0.00150213 0 0.142061 0 0.0148263)
(0.025413 -0.00186764 0 0.0237622 0 0.0183843)
(0.0401292 -0.00701765 0 1e-15 0 0.0251913)
(0.0340431 -0.00718125 0 0.0764286 0 0.0252374)
(0.0325678 -0.0109513 0 0.131609 0 0.0240825)
(0.0445175 -0.0124958 0 0.140909 0 0.0372598)
(0.05987 -0.00979059 0 0.177938 0 0.0715836)
(0.0661059 -0.0170037 0 0.188183 0 0.0885284)
(0.0640559 -0.0202084 0 0.203663 0 0.085108)
(0.0860771 -0.0356817 0 0.433983 0 0.107868)
(0.0866705 -0.051642 0 0.396712 0 0.100597)
(0.0689006 -0.0331292 0 0.283536 0 0.0766954)
(0.0520766 -0.0210448 0 0.184879 0 0.0581743)
(0.0495185 -0.0171421 0 0.207033 0 0.0581794)
(0.0466936 0.00304134 0 0.158327 0 0.060665)
(0.0355805 0.0133447 0 0.0539662 0 0.0441337)
(0.0155401 0.00285809 0 0.00526042 0 0.0144706)
(0.0157313 -0.00168852 0 0.000537921 0 0.011286)
(0.0241843 -0.00124756 0 0.0682532 0 0.0176505)
(0.0331927 0.0102072 0 0.0946324 0 0.0254075)
(0.0320506 0.00614615 0 0.0865632 0 0.028994)
(0.0266507 -0.00621158 0 0.0588266 0 0.0292373)
(0.0191287 -0.00957635 0 0.0226243 0 0.0211804)
(0.0204522 -0.00606193 0 1e-15 0 0.0174183)
(0.0249114 -0.00335671 0 1e-15 0 0.0192034)
(0.0284284 -0.00484853 0 0.0300945 0 0.0208007)
(0.037969 -0.00710192 0 0.106565 0 0.030394)
(0.0479932 -0.0120204 0 0.0635887 0 0.0377194)
(0.0593602 -0.018934 0 0.021419 0 0.0429753)
(0.073347 -0.0239171 0 0.034965 0 0.0523848)
(0.0844018 -0.0285234 0 0.0974867 0 0.0658855)
(0.0901158 -0.0315538 0 0.152972 0 0.0804157)
(0.0889987 -0.0273029 0 0.175078 0 0.088557)
(0.0849526 -0.0184647 0 0.172397 0 0.0908332)
(0.076312 -0.0048681 0 0.160919 0 0.0871374)
(0.0631137 0.00794648 0 0.144961 0 0.0739855)
(0.0447543 0.0103993 0 0.103504 0 0.0496094)
(0.0239512 0.00307396 0 0.0512248 0 0.0232714)
(0.011348 0.000538107 0 0.0341137 0 0.00858743)
(0.0115439 2.35915e-05 0 0.0244713 0 0.00810772)
(0.0192656 -0.00119928 0 0.00092267 0 0.0150325)
(0.0293049 -0.00498549 0 0.0131545 0 0.0253928)
(0.0408782 -0.0102565 0 0.0524585 0 0.041619)
(0.051182 -0.0149393 0 0.0883777 0 0.0584578)
(0.0617807 -0.0178017 0 0.124911 0 0.0759215)
(0.0750276 -0.0204094 0 0.181742 0 0.101016)
(0.0826744 -0.00219427 0 0.264594 0 0.0829424)
(0.0480184 0.00764427 0 0.102962 0 0.0452921)
(0.0325692 0.00690454 0 0.00104139 0 0.032046)
(0.0467033 -0.00312371 0 0.0989812 0 0.0593356)
(0.0818342 -0.0198458 0 0.218035 0 0.0897432)
(0.117247 -0.00567108 0 0.185519 0 0.109899)
(0.0579696 -0.00647723 0 0.214647 0 0.0500229)
(0.0728421 -0.000169646 0 0.22589 0 0.043697)
(0.210473 -0.0419869 0 0.199034 0 0.141639)
(0.195433 -0.115108 0 0.476418 0 0.15632)
(0.136346 -0.0209737 0 0.423748 0 0.154753)
(0.146015 -0.0207863 0 0.61805 0 0.16781)
(0.119245 -0.00808419 0 0.724052 0 0.130031)
(0.28162 0.0621418 0 0.338942 0 0.25869)
(0.164718 -0.0276514 0 0.824226 0 0.158489)
(0.118605 0.0657721 0 0.227358 0 0.07832)
(0.142445 0.0157561 0 0.270748 0 0.110521)
(0.181288 -0.0866908 0 0.553758 0 0.186259)
(0.260117 -0.193485 0 1.22696 0 0.328656)
(0.213125 -0.13595 0 1.01033 0 0.325226)
(0.202143 -0.166066 0 0.951126 0 0.265172)
(0.132036 -0.0555667 0 0.693676 0 0.169725)
(0.167361 0.0421517 0 0.311902 0 0.199021)
(0.121826 0.0111254 0 0.326838 0 0.123479)
(0.0850917 0.00462183 0 0.545456 0 0.0679281)
(0.0972961 0.015106 0 0.639911 0 0.0888771)
(0.101677 -0.0121501 0 0.409964 0 0.098532)
(0.135615 -0.0321894 0 0.253684 0 0.148349)
(0.12304 -0.0268717 0 0.127279 0 0.11325)
(0.0970544 -0.0063111 0 1e-15 0 0.0702968)
(0.156718 -0.0234078 0 0.00502461 0 0.107246)
(0.216496 -0.0719139 0 0.342659 0 0.159269)
(0.218933 -0.092728 0 0.528375 0 0.191364)
(0.203071 -0.0738592 0 0.67461 0 0.20878)
(0.189186 -0.0629106 0 0.72502 0 0.213229)
(0.183054 -0.0551624 0 0.679099 0 0.203364)
(0.164507 -0.0410759 0 0.55019 0 0.172495)
(0.142947 -0.0393249 0 0.25716 0 0.151646)
(0.116694 -0.033539 0 0.199415 0 0.131248)
(0.101156 -0.0321058 0 0.166492 0 0.108801)
(0.0942183 -0.0410034 0 0.237183 0 0.0962339)
(0.0895745 -0.0515931 0 0.290048 0 0.0877376)
(0.0772799 -0.0472199 0 0.320077 0 0.0738963)
(0.0804603 -0.0254279 0 0.410877 0 0.081388)
(0.106225 0.0119742 0 0.596564 0 0.120546)
(0.117802 0.0208994 0 0.576806 0 0.133411)
(0.108062 0.0123781 0 0.431747 0 0.114711)
(0.0704493 0.00712012 0 0.266267 0 0.0630293)
(0.0264409 -0.00946506 0 0.22737 0 0.014297)
(0.0194961 -0.00861607 0 0.249111 0 0.00823555)
(0.0348313 -0.0209588 0 0.198488 0 0.0176384)
(0.0721637 -0.0333825 0 0.3745 0 0.0586375)
(0.0855027 -0.0146365 0 0.47968 0 0.0922812)
(0.0658282 -0.0116327 0 0.304163 0 0.0615936)
(0.0362874 -0.00446243 0 4.16462e-05 0 0.0292442)
(0.0376038 -0.000805508 0 0.0638768 0 0.0308031)
(0.0452818 -0.00842452 0 0.189424 0 0.045057)
(0.0460714 -0.0133967 0 0.352539 0 0.0394602)
(0.0221132 -0.00120999 0 0.0846314 0 0.0148634)
(0.0353693 -0.00136696 0 1e-15 0 0.024863)
(0.0458665 -0.0126915 0 0.027549 0 0.0250518)
(0.0370898 -0.00668758 0 0.116638 0 0.0250703)
(0.0342978 -0.010255 0 0.139665 0 0.0249778)
(0.0459872 -0.0147641 0 0.160865 0 0.037299)
(0.0619645 -0.0107239 0 0.150498 0 0.0744222)
(0.0670383 -0.0193465 0 0.186948 0 0.0911531)
(0.0634597 -0.0186574 0 0.171528 0 0.0861187)
(0.0837286 -0.0319939 0 0.429689 0 0.108094)
(0.0918665 -0.0662948 0 0.48357 0 0.106423)
(0.07439 -0.0463041 0 0.384634 0 0.0823488)
(0.0570769 -0.031669 0 0.275606 0 0.0632522)
(0.0531483 -0.0254007 0 0.297186 0 0.0620872)
(0.0500166 -0.000557029 0 0.228619 0 0.0652776)
(0.0396063 0.0135191 0 0.0966878 0 0.0496966)
(0.0197738 0.0043112 0 0.00138903 0 0.0182678)
(0.0183312 -0.00153868 0 0.0105679 0 0.0130227)
(0.0265606 -0.00103426 0 0.0883351 0 0.0188056)
(0.0364287 0.0123703 0 0.115906 0 0.0271193)
(0.0348798 0.00686255 0 0.104879 0 0.0313901)
(0.0296096 -0.00867238 0 0.0657064 0 0.0321984)
(0.0222125 -0.0123058 0 0.0226226 0 0.0243847)
(0.0235474 -0.00806455 0 1e-15 0 0.0204508)
(0.0281055 -0.0041819 0 1e-15 0 0.0218888)
(0.0315591 -0.0043219 0 0.0378446 0 0.0230007)
(0.0411459 -0.00711934 0 0.104431 0 0.0322864)
(0.0557688 -0.0142482 0 0.0323794 0 0.0420261)
(0.0713148 -0.0227599 0 0.00421295 0 0.050094)
(0.0847796 -0.0287415 0 0.0467622 0 0.0592123)
(0.0952302 -0.0339113 0 0.122042 0 0.0727863)
(0.100427 -0.0377532 0 0.179769 0 0.0878945)
(0.0982453 -0.032855 0 0.203096 0 0.0963522)
(0.0933916 -0.0222251 0 0.193906 0 0.0987394)
(0.0834436 -0.00453297 0 0.159211 0 0.0946207)
(0.0689749 0.0103887 0 0.137548 0 0.0802695)
(0.049094 0.012354 0 0.111311 0 0.0538159)
(0.0271119 0.00362003 0 0.0570124 0 0.0261529)
(0.0135532 0.000960801 0 0.0158926 0 0.0104272)
(0.0151027 0.000308713 0 0.00645702 0 0.0109122)
(0.0228714 -0.000986919 0 1e-15 0 0.0175259)
(0.0336313 -0.00571363 0 0.0191683 0 0.0289009)
(0.045538 -0.011826 0 0.0600303 0 0.0464058)
(0.0564039 -0.0170757 0 0.0928215 0 0.0647181)
(0.0674965 -0.0203798 0 0.132804 0 0.0836201)
(0.0809374 -0.0236767 0 0.201626 0 0.110281)
(0.0951857 0.00510742 0 0.323124 0 0.0928599)
(0.0529337 0.00589521 0 0.122703 0 0.0487059)
(0.0365762 0.00834545 0 1e-15 0 0.0355022)
(0.0517247 -0.00552069 0 0.0719845 0 0.0709177)
(0.0998279 -0.035565 0 0.144528 0 0.107509)
(0.171109 0.0492694 0 0.175518 0 0.160153)
(0.060369 0.0142929 0 0.0515618 0 0.0519413)