/*--------------------------------*- C++ -*----------------------------------*\
| =========                 |                                                 |
| \\      /  F ield         | OpenFOAM: The Open Source CFD Toolbox           |
|  \\    /   O peration     | Version:  v1912                                 |
|   \\  /    A nd           | Website:  www.openfoam.com                      |
|    \\/     M anipulation  |                                                 |
\*---------------------------------------------------------------------------*/
FoamFile
{
    version     2.0;
    format      ascii;
    class       surfaceScalarField;
    location    "40";
    object      alphaPhi0.water;
}
// * * * * * * * * * * * * * * * * * * * * * * * * * * * * * * * * * * * * * //

dimensions      [0 3 -1 0 0 0 0];
oriented        oriented;


internalField   nonuniform List<scalar> 
28285
(
-1.0674e-05
9.19708e-06
-1.90649e-05
8.39094e-06
-2.63398e-05
7.27486e-06
-3.24083e-05
6.06849e-06
-3.73959e-05
4.98763e-06
-4.16111e-05
4.21517e-06
-4.54522e-05
3.84116e-06
-4.92718e-05
3.8195e-06
-5.32505e-05
3.97879e-06
-5.73302e-05
4.07965e-06
-6.12658e-05
3.93562e-06
-6.47239e-05
3.45813e-06
-6.74456e-05
2.72165e-06
-6.94418e-05
1.99616e-06
-7.1069e-05
1.62727e-06
-7.2946e-05
1.87695e-06
-7.57201e-05
2.77409e-06
-7.96978e-05
3.97775e-06
-8.4488e-05
4.79021e-06
-8.89769e-05
4.48882e-06
-9.15146e-05
2.5377e-06
-9.05137e-05
-1.00089e-06
-8.49825e-05
-5.53113e-06
-7.48661e-05
-1.01164e-05
-6.08721e-05
-1.3994e-05
-4.4083e-05
-1.67891e-05
-2.51471e-05
-1.89359e-05
-3.69015e-06
-2.1457e-05
2.16046e-05
-2.52947e-05
5.26338e-05
-3.10292e-05
9.10535e-05
-3.84197e-05
0.000138034
-4.69804e-05
0.000191365
-5.33315e-05
0.000246744
-5.5379e-05
0.000296387
-4.96426e-05
0.000327983
-3.15962e-05
0.000322725
5.25805e-06
0.000288626
3.40989e-05
0.000252654
3.59721e-05
0.000226997
2.56573e-05
0.000209318
1.76788e-05
0.00019852
1.07984e-05
0.000182819
1.57002e-05
1.21207e-05
0.000170699
-1.06886e-05
1.8392e-05
-1.90792e-05
1.67815e-05
-2.63541e-05
1.45497e-05
-3.24225e-05
1.2137e-05
-3.74103e-05
9.97538e-06
-4.16253e-05
8.43021e-06
-4.54665e-05
7.68233e-06
-4.9286e-05
7.63901e-06
-5.32647e-05
7.95755e-06
-5.73444e-05
8.15931e-06
-6.128e-05
7.87118e-06
-6.4738e-05
6.91617e-06
-6.74596e-05
5.44327e-06
-6.94557e-05
3.99229e-06
-7.10831e-05
3.25463e-06
-7.29601e-05
3.75395e-06
-7.57342e-05
5.54818e-06
-7.9712e-05
7.95555e-06
-8.45021e-05
9.58034e-06
-8.89909e-05
8.97765e-06
-9.15287e-05
5.07552e-06
-9.05279e-05
-2.00171e-06
-8.49968e-05
-1.10623e-05
-7.48804e-05
-2.02328e-05
-6.08868e-05
-2.79876e-05
-4.40978e-05
-3.35781e-05
-2.51619e-05
-3.78718e-05
-3.70492e-06
-4.29139e-05
2.15898e-05
-5.05895e-05
5.26193e-05
-6.20587e-05
9.10394e-05
-7.68398e-05
0.000138017
-9.39584e-05
0.000191351
-0.000106665
0.000246734
-0.000110763
0.000296378
-9.9287e-05
0.000327976
-6.31936e-05
0.000322718
1.05162e-05
0.000288618
6.81984e-05
0.000252642
7.19479e-05
0.000226993
5.13072e-05
0.0002093
3.53718e-05
0.000198508
2.15902e-05
0.000183098
3.11105e-05
2.43516e-05
0.000170867
-1.07024e-05
2.75865e-05
-1.9093e-05
2.51722e-05
-2.6368e-05
2.18246e-05
-3.24364e-05
1.82054e-05
-3.7424e-05
1.4963e-05
-4.16389e-05
1.26451e-05
-4.548e-05
1.15234e-05
-4.92995e-05
1.14585e-05
-5.32783e-05
1.19364e-05
-5.7358e-05
1.2239e-05
-6.12937e-05
1.18068e-05
-6.47517e-05
1.03742e-05
-6.74733e-05
8.16484e-06
-6.94693e-05
5.98832e-06
-7.10966e-05
4.8819e-06
-7.29735e-05
5.63082e-06
-7.57475e-05
8.32219e-06
-7.97254e-05
1.19334e-05
-8.45158e-05
1.43707e-05
-8.90049e-05
1.34668e-05
-9.1543e-05
7.61358e-06
-9.05422e-05
-3.00249e-06
-8.50109e-05
-1.65936e-05
-7.48943e-05
-3.03493e-05
-6.09007e-05
-4.19812e-05
-4.41113e-05
-5.03675e-05
-2.51749e-05
-5.68082e-05
-3.71788e-06
-6.4371e-05
2.15765e-05
-7.58839e-05
5.2607e-05
-9.30892e-05
9.1028e-05
-0.000115261
0.000138008
-0.000140938
0.000191344
-0.000160001
0.000246731
-0.00016615
0.00029638
-0.000148936
0.000327978
-9.47921e-05
0.000322718
1.57769e-05
0.000288615
0.000102301
0.000252631
0.000107931
0.000226984
7.69541e-05
0.000209288
5.30678e-05
0.000198493
3.23855e-05
0.000183161
4.64418e-05
3.64718e-05
0.000171041
-1.07084e-05
3.6781e-05
-1.90991e-05
3.35629e-05
-2.63741e-05
2.90996e-05
-3.24426e-05
2.42738e-05
-3.743e-05
1.99504e-05
-4.16449e-05
1.686e-05
-4.54859e-05
1.53645e-05
-4.93053e-05
1.52779e-05
-5.32842e-05
1.59152e-05
-5.7364e-05
1.63189e-05
-6.12997e-05
1.57425e-05
-6.47578e-05
1.38324e-05
-6.74794e-05
1.08864e-05
-6.94753e-05
7.98423e-06
-7.11024e-05
6.50901e-06
-7.29791e-05
7.50754e-06
-7.57531e-05
1.10962e-05
-7.97311e-05
1.59114e-05
-8.45218e-05
1.91614e-05
-8.90114e-05
1.79564e-05
-9.15499e-05
1.01521e-05
-9.05493e-05
-4.00304e-06
-8.5018e-05
-2.2125e-05
-7.49012e-05
-4.04661e-05
-6.09071e-05
-5.59753e-05
-4.41173e-05
-6.71573e-05
-2.51808e-05
-7.57447e-05
-3.72394e-06
-8.58279e-05
2.15692e-05
-0.000101177
5.26004e-05
-0.00012412
9.10219e-05
-0.000153682
0.000138006
-0.000187923
0.000191344
-0.000213339
0.000246732
-0.000221538
0.000296385
-0.000198589
0.000327988
-0.000126395
0.000322724
2.10408e-05
0.000288619
0.000136407
0.000252627
0.000143923
0.000226984
0.000102597
0.000209276
7.07757e-05
0.000198486
4.31759e-05
0.000183384
6.1544e-05
4.86329e-05
0.000171223
-1.07105e-05
4.59757e-05
-1.91014e-05
4.19538e-05
-2.63764e-05
3.63746e-05
-3.24448e-05
3.03422e-05
-3.74321e-05
2.49378e-05
-4.16468e-05
2.10747e-05
-4.54878e-05
1.92054e-05
-4.93071e-05
1.90972e-05
-5.3286e-05
1.98941e-05
-5.73659e-05
2.03988e-05
-6.13018e-05
1.96784e-05
-6.476e-05
1.72906e-05
-6.74815e-05
1.36079e-05
-6.94773e-05
9.97999e-06
-7.11041e-05
8.13588e-06
-7.29806e-05
9.38401e-06
-7.57545e-05
1.387e-05
-7.97327e-05
1.98897e-05
-8.45238e-05
2.39525e-05
-8.90141e-05
2.24466e-05
-9.15532e-05
1.26912e-05
-9.0553e-05
-5.00318e-06
-8.50217e-05
-2.76563e-05
-7.49046e-05
-5.05832e-05
-6.09098e-05
-6.99701e-05
-4.41197e-05
-8.39474e-05
-2.51834e-05
-9.4681e-05
-3.72686e-06
-0.000107284
2.15652e-05
-0.000126469
5.25964e-05
-0.000155152
9.10179e-05
-0.000192104
0.000138003
-0.000234908
0.000191344
-0.00026668
0.000246736
-0.00027693
0.000296395
-0.000248247
0.000328001
-0.000158001
0.000322732
2.63096e-05
0.000288622
0.000170516
0.000252627
0.000179918
0.000226983
0.000128242
0.000209269
8.84894e-05
0.000198479
5.39658e-05
0.000183498
7.65254e-05
6.07064e-05
0.000171424
-1.07113e-05
5.51707e-05
-1.91024e-05
5.03448e-05
-2.63774e-05
4.36497e-05
-3.24457e-05
3.64105e-05
-3.74329e-05
2.9925e-05
-4.16474e-05
2.52892e-05
-4.54882e-05
2.30462e-05
-4.93074e-05
2.29164e-05
-5.32864e-05
2.3873e-05
-5.73664e-05
2.44789e-05
-6.13025e-05
2.36144e-05
-6.47608e-05
2.07489e-05
-6.74823e-05
1.63294e-05
-6.94778e-05
1.19755e-05
-7.11044e-05
9.76244e-06
-7.29806e-05
1.12603e-05
-7.57545e-05
1.66439e-05
-7.9733e-05
2.38681e-05
-8.45245e-05
2.8744e-05
-8.90155e-05
2.69377e-05
-9.15554e-05
1.52311e-05
-9.05558e-05
-6.00281e-06
-8.50246e-05
-3.31875e-05
-7.4907e-05
-6.07008e-05
-6.09115e-05
-8.39656e-05
-4.41212e-05
-0.000100738
-2.51851e-05
-0.000113617
-3.7292e-06
-0.00012874
2.1562e-05
-0.00015176
5.25924e-05
-0.000186182
9.10137e-05
-0.000230525
0.000138
-0.000281895
0.000191344
-0.000320023
0.000246741
-0.000332327
0.000296407
-0.000297913
0.000328018
-0.000189612
0.000322743
3.15853e-05
0.000288623
0.000204636
0.000252621
0.00021592
0.000226982
0.000153881
0.00020926
0.000106212
0.000198477
6.47491e-05
0.000183697
9.1305e-05
7.28007e-05
0.000171603
-1.07119e-05
6.4366e-05
-1.91031e-05
5.8736e-05
-2.63782e-05
5.09247e-05
-3.24464e-05
4.24788e-05
-3.74334e-05
3.4912e-05
-4.16477e-05
2.95034e-05
-4.54883e-05
2.68868e-05
-4.93074e-05
2.67355e-05
-5.32864e-05
2.7852e-05
-5.73667e-05
2.85591e-05
-6.13029e-05
2.75507e-05
-6.47613e-05
2.42073e-05
-6.74828e-05
1.90509e-05
-6.94781e-05
1.39709e-05
-7.11043e-05
1.13886e-05
-7.29802e-05
1.31362e-05
-7.5754e-05
1.94177e-05
-7.97327e-05
2.78468e-05
-8.45248e-05
3.35361e-05
-8.90169e-05
3.14297e-05
-9.15577e-05
1.7772e-05
-9.05587e-05
-7.00187e-06
-8.50275e-05
-3.87187e-05
-7.49094e-05
-7.08188e-05
-6.09134e-05
-9.79617e-05
-4.41227e-05
-0.000117528
-2.51869e-05
-0.000132553
-3.73173e-06
-0.000150195
2.15583e-05
-0.00017705
5.25876e-05
-0.000217211
9.10087e-05
-0.000268946
0.000137996
-0.000328882
0.000191343
-0.00037337
0.000246746
-0.00038773
0.000296421
-0.000347588
0.00032804
-0.000221232
0.000322758
3.68673e-05
0.000288625
0.000238769
0.000252614
0.000251931
0.000226981
0.000179514
0.000209253
0.000123939
0.000198472
7.55303e-05
0.000183838
0.000105939
8.48239e-05
0.000171814
-1.07125e-05
7.35616e-05
-1.91039e-05
6.71275e-05
-2.6379e-05
5.81999e-05
-3.24472e-05
4.85469e-05
-3.7434e-05
3.98988e-05
-4.1648e-05
3.37175e-05
-4.54884e-05
3.07272e-05
-4.93074e-05
3.05545e-05
-5.32864e-05
3.1831e-05
-5.73668e-05
3.26396e-05
-6.13033e-05
3.14871e-05
-6.47618e-05
2.76658e-05
-6.74832e-05
2.17723e-05
-6.94783e-05
1.59659e-05
-7.1104e-05
1.30144e-05
-7.29795e-05
1.50117e-05
-7.5753e-05
2.21912e-05
-7.9732e-05
3.18259e-05
-8.45251e-05
3.83292e-05
-8.90183e-05
3.59229e-05
-9.15603e-05
2.0314e-05
-9.05619e-05
-8.00022e-06
-8.50308e-05
-4.42499e-05
-7.49122e-05
-8.09374e-05
-6.09155e-05
-0.000111958
-4.41245e-05
-0.000134319
-2.5189e-05
-0.000151488
-3.7346e-06
-0.00017165
2.15542e-05
-0.000202339
5.25819e-05
-0.000248239
9.10029e-05
-0.000307367
0.000137992
-0.000375871
0.000191342
-0.00042672
0.000246753
-0.000443141
0.000296437
-0.000397272
0.000328065
-0.000252859
0.000322775
4.2157e-05
0.000288632
0.000272912
0.00025261
0.000287953
0.000226979
0.000205145
0.000209244
0.000141674
0.000198469
8.63058e-05
0.00018402
0.000120388
9.68503e-05
0.000171994
-1.07131e-05
8.27577e-05
-1.91048e-05
7.55192e-05
-2.638e-05
6.54751e-05
-3.24481e-05
5.46149e-05
-3.74346e-05
4.48854e-05
-4.16483e-05
3.79312e-05
-4.54884e-05
3.45673e-05
-4.93073e-05
3.43734e-05
-5.32864e-05
3.58101e-05
-5.7367e-05
3.67202e-05
-6.13037e-05
3.54238e-05
-6.47624e-05
3.11245e-05
-6.74838e-05
2.44936e-05
-6.94785e-05
1.79606e-05
-7.11038e-05
1.46397e-05
-7.29787e-05
1.68866e-05
-7.5752e-05
2.49645e-05
-7.97314e-05
3.58053e-05
-8.45255e-05
4.31232e-05
-8.902e-05
4.04174e-05
-9.15632e-05
2.28572e-05
-9.05656e-05
-8.99782e-06
-8.50345e-05
-4.9781e-05
-7.49154e-05
-9.10565e-05
-6.09179e-05
-0.000125956
-4.41265e-05
-0.000151111
-2.51914e-05
-0.000170424
-3.73793e-06
-0.000193103
2.15493e-05
-0.000227626
5.25758e-05
-0.000279265
9.09963e-05
-0.000345788
0.000137987
-0.000422862
0.000191342
-0.000480074
0.00024676
-0.000498559
0.000296456
-0.000446968
0.000328091
-0.000284494
0.000322793
4.74552e-05
0.000288636
0.000307069
0.000252604
0.000323985
0.000226975
0.000230774
0.000209237
0.000159412
0.000198464
9.70787e-05
0.000184166
0.000134685
0.000108825
0.000172192
-1.07139e-05
9.19542e-05
-1.91059e-05
8.39113e-05
-2.63811e-05
7.27503e-05
-3.2449e-05
6.06828e-05
-3.74353e-05
4.98717e-05
-4.16487e-05
4.21446e-05
-4.54885e-05
3.84071e-05
-4.93072e-05
3.81922e-05
-5.32864e-05
3.97892e-05
-5.73672e-05
4.08011e-05
-6.13042e-05
3.93608e-05
-6.47631e-05
3.45834e-05
-6.74845e-05
2.7215e-05
-6.94788e-05
1.9955e-05
-7.11035e-05
1.62643e-05
-7.29778e-05
1.8761e-05
-7.5751e-05
2.77376e-05
-7.97308e-05
3.97851e-05
-8.45259e-05
4.79184e-05
-8.90219e-05
4.49133e-05
-9.15666e-05
2.5402e-05
-9.05698e-05
-9.99463e-06
-8.50387e-05
-5.53121e-05
-7.4919e-05
-0.000101176
-6.09206e-05
-0.000139954
-4.41288e-05
-0.000167903
-2.5194e-05
-0.000189358
-3.74166e-06
-0.000214556
2.15437e-05
-0.000252912
5.25687e-05
-0.000310291
9.09891e-05
-0.000384208
0.000137981
-0.000469854
0.00019134
-0.000533433
0.000246768
-0.000553987
0.000296477
-0.000496677
0.000328123
-0.00031614
0.000322813
5.2765e-05
0.000288638
0.000341244
0.000252596
0.000360028
0.000226971
0.000256399
0.000209227
0.000177156
0.00019846
0.000107846
0.000184336
0.000148809
0.0001208
0.000172361
-1.07147e-05
0.000101151
-1.9107e-05
9.23036e-05
-2.63824e-05
8.00257e-05
-3.24501e-05
6.67506e-05
-3.74361e-05
5.48577e-05
-4.16491e-05
4.63575e-05
-4.54885e-05
4.22465e-05
-4.93071e-05
4.20108e-05
-5.32863e-05
4.37684e-05
-5.73674e-05
4.48822e-05
-6.13048e-05
4.32981e-05
-6.47639e-05
3.80426e-05
-6.74852e-05
2.99363e-05
-6.94791e-05
2.19489e-05
-7.11031e-05
1.78883e-05
-7.29769e-05
2.06347e-05
-7.57498e-05
3.05105e-05
-7.97301e-05
4.37654e-05
-8.45264e-05
5.27147e-05
-8.90241e-05
4.9411e-05
-9.15704e-05
2.79483e-05
-9.05745e-05
-1.09905e-05
-8.50434e-05
-6.08432e-05
-7.49229e-05
-0.000111297
-6.09236e-05
-0.000153954
-4.41313e-05
-0.000184695
-2.5197e-05
-0.000208293
-3.74585e-06
-0.000236007
2.15383e-05
-0.000278196
5.25608e-05
-0.000341313
9.09807e-05
-0.000422628
0.000137975
-0.000516848
0.000191339
-0.000586798
0.000246777
-0.000609424
0.000296499
-0.000546399
0.000328158
-0.000347799
0.000322838
5.80854e-05
0.000288647
0.000375434
0.000252589
0.000396086
0.000226966
0.000282021
0.000209219
0.000194903
0.000198456
0.000118609
0.000184485
0.000162779
0.000132739
0.000172546
-1.07156e-05
0.000110349
-1.91083e-05
0.000100696
-2.63837e-05
8.73011e-05
-3.24513e-05
7.28182e-05
-3.7437e-05
5.98433e-05
-4.16495e-05
5.057e-05
-4.54886e-05
4.60856e-05
-4.9307e-05
4.58292e-05
-5.32862e-05
4.77476e-05
-5.73677e-05
4.89637e-05
-6.13054e-05
4.72358e-05
-6.47647e-05
4.1502e-05
-6.7486e-05
3.26575e-05
-6.94795e-05
2.39425e-05
-7.11028e-05
1.95116e-05
-7.29759e-05
2.25078e-05
-7.57485e-05
3.32832e-05
-7.97293e-05
4.77462e-05
-8.4527e-05
5.75124e-05
-8.90264e-05
5.39105e-05
-9.15745e-05
3.04963e-05
-9.05796e-05
-1.19854e-05
-8.50486e-05
-6.63742e-05
-7.49273e-05
-0.000121418
-6.09268e-05
-0.000167954
-4.41341e-05
-0.000201487
-2.52002e-05
-0.000227226
-3.75051e-06
-0.000257457
2.15325e-05
-0.000303479
5.2552e-05
-0.000372333
9.09715e-05
-0.000461048
0.000137968
-0.000563845
0.000191338
-0.000640168
0.000246787
-0.000664873
0.000296525
-0.000596138
0.000328195
-0.000379469
0.000322862
6.34184e-05
0.000288656
0.00040964
0.000252583
0.000432159
0.00022696
0.000307645
0.000209209
0.000212654
0.000198452
0.000129366
0.000184648
0.000176583
0.000144668
0.000172719
-1.07166e-05
0.000119547
-1.91097e-05
0.000109089
-2.63852e-05
9.45766e-05
-3.24526e-05
7.88856e-05
-3.74379e-05
6.48286e-05
-4.16499e-05
5.47821e-05
-4.54886e-05
4.99243e-05
-4.93068e-05
4.96474e-05
-5.32862e-05
5.1727e-05
-5.73679e-05
5.30454e-05
-6.1306e-05
5.11739e-05
-6.47657e-05
4.49616e-05
-6.74868e-05
3.53787e-05
-6.94799e-05
2.59355e-05
-7.11024e-05
2.11342e-05
-7.29747e-05
2.43801e-05
-7.57471e-05
3.60556e-05
-7.97285e-05
5.17275e-05
-8.45276e-05
6.23115e-05
-8.9029e-05
5.84119e-05
-9.15789e-05
3.30462e-05
-9.05852e-05
-1.29791e-05
-8.50543e-05
-7.19051e-05
-7.4932e-05
-0.00013154
-6.09303e-05
-0.000181956
-4.41371e-05
-0.000218281
-2.52037e-05
-0.00024616
-3.75567e-06
-0.000278905
2.15256e-05
-0.00032876
5.25424e-05
-0.000403349
9.09615e-05
-0.000499467
0.000137961
-0.000610844
0.000191337
-0.000693545
0.000246798
-0.000720334
0.000296553
-0.000645893
0.000328237
-0.000411152
0.000322889
6.87659e-05
0.000288663
0.000443866
0.000252575
0.000468247
0.000226953
0.000333267
0.000209199
0.000230408
0.000198447
0.000140118
0.000184795
0.000190235
0.000156561
0.000172902
-1.07176e-05
0.000128746
-1.91111e-05
0.000117483
-2.63867e-05
0.000101852
-3.2454e-05
8.49528e-05
-3.74389e-05
6.98135e-05
-4.16505e-05
5.89937e-05
-4.54888e-05
5.37625e-05
-4.93068e-05
5.34654e-05
-5.32862e-05
5.57064e-05
-5.73683e-05
5.71275e-05
-6.13068e-05
5.51124e-05
-6.47666e-05
4.84215e-05
-6.74877e-05
3.80998e-05
-6.94803e-05
2.7928e-05
-7.1102e-05
2.27559e-05
-7.29735e-05
2.62516e-05
-7.57456e-05
3.88277e-05
-7.97276e-05
5.57095e-05
-8.45281e-05
6.71119e-05
-8.90316e-05
6.29155e-05
-9.15838e-05
3.55983e-05
-9.05916e-05
-1.39712e-05
-8.5061e-05
-7.74357e-05
-7.49377e-05
-0.000141664
-6.09333e-05
-0.00019596
-4.41391e-05
-0.000235075
-2.52067e-05
-0.000265092
-3.76083e-06
-0.00030035
2.15175e-05
-0.000354038
5.25305e-05
-0.000434362
9.09486e-05
-0.000537885
0.000137958
-0.000657854
0.000191348
-0.000746935
0.000246824
-0.00077581
0.000296599
-0.000695668
0.000328287
-0.000442841
0.000322921
7.41318e-05
0.000288684
0.000478104
0.000252575
0.000504355
0.000226939
0.000358903
0.000209192
0.000248155
0.00019844
0.000150869
0.000184952
0.000203724
0.000168437
0.000173076
-2.14388e-05
0.000147146
-3.82273e-05
0.000134271
-5.27791e-05
0.000116404
-6.4913e-05
9.70867e-05
-7.48811e-05
7.97816e-05
-8.33021e-05
6.74147e-05
-9.09769e-05
6.14373e-05
-9.86121e-05
6.11006e-05
-0.000106571
6.36655e-05
-0.000114737
6.52928e-05
-0.000122616
6.29914e-05
-0.000129537
5.53432e-05
-0.000134979
4.3542e-05
-0.000138963
3.19114e-05
-0.000142202
2.59954e-05
-0.000145942
2.99912e-05
-0.000151485
4.43708e-05
-0.000159451
6.36754e-05
-0.000169059
7.67196e-05
-0.000178074
7.19309e-05
-0.000183185
4.07091e-05
-0.000181204
-1.5952e-05
-0.000170143
-8.84969e-05
-0.000149893
-0.000161914
-0.00012188
-0.000223973
-8.82892e-05
-0.000268665
-5.0426e-05
-0.000302955
-7.53928e-06
-0.000343237
4.30089e-05
-0.000404587
0.000105028
-0.000496381
0.000181864
-0.000614721
0.000275885
-0.000751875
0.000382678
-0.000853727
0.000493667
-0.000886799
0.000593279
-0.000795279
0.000656715
-0.000506277
0.000645933
8.49141e-05
0.000577366
0.000546671
0.000505104
0.000576617
0.000453861
0.000410146
0.000418346
0.00028367
0.00039687
0.000172345
0.000370291
0.000230303
0.000192101
0.000346626
-2.14442e-05
0.00016555
-3.82348e-05
0.000151062
-5.27872e-05
0.000130956
-6.49202e-05
0.00010922
-7.48862e-05
8.97475e-05
-8.33044e-05
7.58329e-05
-9.0977e-05
6.91099e-05
-9.86112e-05
6.87348e-05
-0.000106571
7.1625e-05
-0.000114738
7.34598e-05
-0.000122619
7.08728e-05
-0.000129542
6.22665e-05
-0.000134984
4.8984e-05
-0.000138965
3.58922e-05
-0.0001422
2.92306e-05
-0.000145936
3.37265e-05
-0.000151477
4.99124e-05
-0.000159446
7.16442e-05
-0.000169062
8.63353e-05
-0.000178088
8.09574e-05
-0.000183209
4.58299e-05
-0.000181234
-1.79271e-05
-0.000170173
-9.95584e-05
-0.000149918
-0.000182169
-0.0001219
-0.000251991
-8.83063e-05
-0.000302258
-5.04457e-05
-0.000340816
-7.5666e-06
-0.000386116
4.29659e-05
-0.000455119
0.000104978
-0.000558394
0.000181812
-0.000691555
0.000275834
-0.000845897
0.000382645
-0.000960538
0.000493691
-0.000997846
0.000593391
-0.000894979
0.000656914
-0.0005698
0.00064607
9.5759e-05
0.000577386
0.000615355
0.00050505
0.000648953
0.000453813
0.000461383
0.000418303
0.000319181
0.000396859
0.000193788
0.000370825
0.000256338
0.000215694
0.000347232
-2.145e-05
0.000183957
-3.8243e-05
0.000167855
-5.2796e-05
0.000145509
-6.49281e-05
0.000121352
-7.48918e-05
9.97112e-05
-8.33071e-05
8.42482e-05
-9.09772e-05
7.678e-05
-9.86102e-05
7.63679e-05
-0.00010657
7.95849e-05
-0.000114739
8.16286e-05
-0.000122623
7.87567e-05
-0.000129548
6.91915e-05
-0.00013499
5.44256e-05
-0.000138967
3.98701e-05
-0.000142198
3.24612e-05
-0.000145929
3.74574e-05
-0.000151469
5.54523e-05
-0.000159441
7.96164e-05
-0.000169065
9.59596e-05
-0.000178104
8.99958e-05
-0.000183236
5.09618e-05
-0.000181267
-1.98953e-05
-0.000170207
-0.000110619
-0.000149947
-0.000202429
-0.000121921
-0.000280017
-8.83243e-05
-0.000335855
-5.04668e-05
-0.000378674
-7.59656e-06
-0.000428986
4.29232e-05
-0.000505639
0.000104921
-0.000620391
0.000181752
-0.000768385
0.000275782
-0.000939927
0.00038262
-0.00106738
0.000493729
-0.00110895
0.000593523
-0.000994773
0.000657133
-0.000633411
0.000646216
0.000106676
0.000577416
0.000684155
0.000504998
0.000721372
0.000453754
0.000512626
0.000418253
0.000354682
0.000396836
0.000215205
0.00037127
0.000281904
0.000239203
0.000347761
-2.14567e-05
0.000202368
-3.82523e-05
0.000184651
-5.2806e-05
0.000160063
-6.49369e-05
0.000133483
-7.4898e-05
0.000109672
-8.33101e-05
9.26603e-05
-9.09775e-05
8.44474e-05
-9.86093e-05
8.39996e-05
-0.00010657
8.75454e-05
-0.000114741
8.97996e-05
-0.000122627
8.66433e-05
-0.000129554
7.61184e-05
-0.000134995
5.98667e-05
-0.00013897
4.38448e-05
-0.000142196
3.56866e-05
-0.000145921
4.11832e-05
-0.00015146
6.09904e-05
-0.000159435
8.75923e-05
-0.000169069
0.000105594
-0.000178121
9.90476e-05
-0.000183266
5.61066e-05
-0.000181305
-2.18563e-05
-0.000170244
-0.00012168
-0.000149978
-0.000222694
-0.000121945
-0.00030805
-8.83443e-05
-0.000369456
-5.04905e-05
-0.000416527
-7.63032e-06
-0.000471847
4.28778e-05
-0.000556147
0.000104856
-0.00068237
0.000181681
-0.00084521
0.000275706
-0.00103395
0.000382564
-0.00117423
0.000493739
-0.00122013
0.000593643
-0.00109468
0.00065736
-0.000697129
0.00064637
0.000117666
0.000577442
0.000753083
0.000504935
0.000793879
0.000453693
0.000563868
0.000418192
0.000390184
0.000396818
0.000236578
0.000371704
0.000307019
0.000262632
0.000348274
-2.14638e-05
0.000220784
-3.82623e-05
0.000201449
-5.28169e-05
0.000174618
-6.49466e-05
0.000145612
-7.49048e-05
0.000119631
-8.33135e-05
0.000101069
-9.09779e-05
9.21118e-05
-9.86082e-05
9.163e-05
-0.000106569
9.55065e-05
-0.000114743
9.79729e-05
-0.000122632
9.4533e-05
-0.000129561
8.30473e-05
-0.000135002
6.53074e-05
-0.000138973
4.7816e-05
-0.000142193
3.89064e-05
-0.000145913
4.49036e-05
-0.000151449
6.65265e-05
-0.000159429
9.55722e-05
-0.000169074
0.000115238
-0.00017814
0.000108114
-0.000183298
6.12651e-05
-0.000181346
-2.38088e-05
-0.000170286
-0.000132741
-0.000150013
-0.000242967
-0.000121971
-0.000336092
-8.83666e-05
-0.00040306
-5.05164e-05
-0.000454378
-7.66705e-06
-0.000514696
4.28195e-05
-0.000606633
0.000104785
-0.000744335
0.000181604
-0.000922029
0.000275629
-0.00112798
0.000382511
-0.00128112
0.000493769
-0.00133139
0.000593798
-0.00119471
0.000657612
-0.000760943
0.000646535
0.000128743
0.000577476
0.000822142
0.000504865
0.00086649
0.000453625
0.000615109
0.000418118
0.000425691
0.000396784
0.000257912
0.000372075
0.000331728
0.000286
0.000348707
-2.14718e-05
0.000239205
-3.82734e-05
0.000218251
-5.28288e-05
0.000189173
-6.49572e-05
0.000157741
-7.49123e-05
0.000129586
-8.33172e-05
0.000109474
-9.09783e-05
9.97729e-05
-9.86071e-05
9.92588e-05
-0.000106569
0.000103468
-0.000114745
0.000106149
-0.000122637
0.000102426
-0.000129569
8.99784e-05
-0.000135009
7.07476e-05
-0.000138976
5.17835e-05
-0.00014219
4.21199e-05
-0.000145904
4.86178e-05
-0.000151438
7.20605e-05
-0.000159422
0.000103557
-0.000169078
0.000124894
-0.000178161
0.000117197
-0.000183335
6.64388e-05
-0.000181391
-2.57527e-05
-0.000170331
-0.000143801
-0.000150051
-0.000263246
-0.000122
-0.000364144
-8.83905e-05
-0.000436669
-5.05447e-05
-0.000492223
-7.70779e-06
-0.000557533
4.27631e-05
-0.000657104
0.000104705
-0.000806277
0.000181506
-0.00099883
0.000275537
-0.00122201
0.000382475
-0.00138805
0.000493844
-0.00144276
0.000594019
-0.00129488
0.000657943
-0.000824867
0.000646741
0.000139945
0.000577534
0.000891349
0.000504807
0.000939216
0.000453541
0.000666374
0.000418047
0.000461184
0.000396752
0.000279207
0.000372453
0.000356027
0.000309288
0.000349164
-2.14801e-05
0.000257632
-3.82848e-05
0.000235056
-5.28411e-05
0.000203729
-6.49681e-05
0.000169868
-7.49203e-05
0.000139538
-8.33219e-05
0.000117875
-9.09796e-05
0.000107431
-9.86067e-05
0.000106886
-0.000106569
0.000111431
-0.000114748
0.000114327
-0.000122644
0.000110322
-0.000129576
9.69111e-05
-0.000135016
7.6187e-05
-0.000138979
5.57468e-05
-0.000142186
4.53272e-05
-0.000145895
5.23262e-05
-0.000151427
7.75925e-05
-0.000159416
0.000111546
-0.000169083
0.000134561
-0.000178182
0.000126295
-0.000183372
7.16294e-05
-0.00018144
-2.76847e-05
-0.000170383
-0.000154858
-0.000150095
-0.000283534
-0.000122027
-0.000392212
-8.84118e-05
-0.000470285
-5.05723e-05
-0.000530063
-7.75107e-06
-0.000600354
4.26986e-05
-0.000707554
0.000104622
-0.000868201
0.000181423
-0.00107563
0.000275507
-0.00131609
0.000382527
-0.00149507
0.000494007
-0.00155424
0.000594329
-0.0013952
0.000658333
-0.00088887
0.000647003
0.000151275
0.000577643
0.000960709
0.000504781
0.00101208
0.000453423
0.000717732
0.000417947
0.000496661
0.000396644
0.00030051
0.000372813
0.000379858
0.000332489
0.000349612
-0.000293697
0.000509357
-0.000523093
0.000464452
-0.000721583
0.000402219
-0.000886711
0.000334996
-0.00102199
0.000274822
-0.00113605
0.00023193
-0.00124005
0.000211427
-0.00134383
0.000210667
-0.00145243
0.000220031
-0.00156418
0.000226078
-0.00167217
0.00021831
-0.00176692
0.000191663
-0.00184101
0.000150277
-0.00189459
0.000109334
-0.00193757
8.83058e-05
-0.00198739
0.000102144
-0.00206253
0.000152731
-0.00217194
0.000220956
-0.00230508
0.000267699
-0.002431
0.000252218
-0.00250354
0.000144165
-0.00247819
-5.30283e-05
-0.00232745
-0.000305595
-0.00205011
-0.000560878
-0.00166655
-0.000775772
-0.0012079
-0.000928935
-0.000692697
-0.00104527
-0.000110527
-0.00118252
0.000574981
-0.00139306
0.00141792
-0.00171114
0.00246574
-0.00212345
0.00374933
-0.00259969
0.00521172
-0.00295747
0.00674221
-0.00308473
0.0081269
-0.00277989
0.00901348
-0.00177545
0.00884603
0.000318735
0.00788025
0.00192649
0.0068751
0.00201723
0.00617436
0.00141847
0.00569612
0.000974904
0.00541231
0.000584325
0.00511624
0.000675926
0.000639301
0.00480943
-0.000297116
0.000763226
-0.000527894
0.00069523
-0.000726789
0.000601115
-0.000891316
0.000499522
-0.00102518
0.000408682
-0.00113746
0.000344217
-0.00123995
0.000313915
-0.001343
0.000313714
-0.00145188
0.000328913
-0.00156482
0.000339018
-0.00167438
0.000327868
-0.00177016
0.000287444
-0.00184399
0.000224112
-0.00189586
0.000161198
-0.00193611
0.000128557
-0.00198335
0.000149383
-0.0020575
0.000226881
-0.00216877
0.000332225
-0.00230684
0.000405775
-0.0024396
0.000384978
-0.00251858
0.000223145
-0.0024972
-7.44159e-05
-0.00234677
-0.000456019
-0.00206647
-0.000841179
-0.0016789
-0.00116335
-0.00121841
-0.00138942
-0.00070516
-0.00155852
-0.000128396
-0.00175929
0.000548817
-0.00207028
0.00138181
-0.00254413
0.00242651
-0.00316814
0.00372019
-0.00389337
0.00520758
-0.00444486
0.00678134
-0.00465849
0.0082227
-0.00422125
0.00915417
-0.00270693
0.00895292
0.000519986
0.00791172
0.00296769
0.00684964
0.00307931
0.006122
0.0021461
0.00565365
0.00144326
0.00539932
0.000838656
0.00517967
0.000895569
0.000907444
0.00491153
-0.000302308
0.00102026
-0.00053497
0.000927891
-0.000734331
0.000800476
-0.000897981
0.000663173
-0.00102996
0.00054066
-0.00113998
0.000454233
-0.00124055
0.000414485
-0.00134267
0.000415837
-0.00145194
0.000438186
-0.00156638
0.000453455
-0.00167787
0.000439362
-0.001775
0.00038457
-0.00184855
0.000297662
-0.00189804
0.000210687
-0.00193428
0.000164802
-0.00197749
0.000192592
-0.0020502
0.000299588
-0.00216438
0.000446401
-0.00231003
0.000551427
-0.00245336
0.000528306
-0.00254233
0.00031212
-0.00252666
-9.009e-05
-0.00237616
-0.000606511
-0.00209078
-0.00112657
-0.00169656
-0.00155756
-0.0012326
-0.00185338
-0.000721751
-0.00206936
-0.000152811
-0.00232823
0.000512749
-0.00273584
0.00133395
-0.00336533
0.00237794
-0.00421213
0.00368335
-0.00519878
0.00519925
-0.00596076
0.00683461
-0.00629385
0.00837587
-0.00576251
0.00937509
-0.00370615
0.00909884
0.000796233
0.00793705
0.00412948
0.00680469
0.00421166
0.00607843
0.00287236
0.00564584
0.00187586
0.00539491
0.00108959
0.00517603
0.00111444
0.00116536
0.00491812
-0.000309298
0.00128171
-0.000544805
0.0011634
-0.000745022
0.00100069
-0.000907434
0.000825585
-0.00103642
0.000669648
-0.00114267
0.000560482
-0.00124002
0.000511832
-0.0013406
0.000516415
-0.00145052
0.000548112
-0.00156755
0.000570486
-0.00168244
0.00055425
-0.00178182
0.000483949
-0.00185495
0.000370791
-0.00190088
0.000256614
-0.00193134
0.000195268
-0.00196901
0.000230259
-0.0020394
0.000369982
-0.00215722
0.000564222
-0.00231305
0.00070726
-0.00247069
0.000685938
-0.00257311
0.000414545
-0.00256558
-9.76265e-05
-0.00241549
-0.0007566
-0.00212358
-0.00141848
-0.0017208
-0.00196035
-0.00125292
-0.00232126
-0.000746093
-0.00257619
-0.000188618
-0.0028857
0.000460293
-0.00338475
0.00126373
-0.00416877
0.00230372
-0.00525211
0.0036266
-0.00652166
0.00518701
-0.00752117
0.00691036
-0.0080172
0.00858002
-0.00743217
0.00967671
-0.00480284
0.00934307
0.00112988
0.00800722
0.00546533
0.0067578
0.00546108
0.00597408
0.00365608
0.00555206
0.00229787
0.00537229
0.00126936
0.00523598
0.00125076
0.00137232
0.00502902
-0.000318395
0.00154848
-0.000557034
0.00140204
-0.000757948
0.00120161
-0.00091875
0.000986387
-0.00104445
0.000795345
-0.00114678
0.000662816
-0.00124081
0.000605859
-0.00133975
0.000615354
-0.00145032
0.000658688
-0.00157002
0.000690185
-0.0016884
0.000672623
-0.00179024
0.000585795
-0.00186303
0.00044358
-0.00190489
0.000298471
-0.00192819
0.000218565
-0.00195849
0.000260562
-0.00202591
0.0004374
-0.00214843
0.000686749
-0.00231737
0.000876195
-0.00249346
0.000862032
-0.00261369
0.000534776
-0.00261611
-9.52117e-05
-0.0024657
-0.000907003
-0.00216418
-0.00172
-0.00174896
-0.00237557
-0.00127428
-0.00279593
-0.000771392
-0.00307908
-0.000228201
-0.00342889
0.000400099
-0.00401305
0.00118202
-0.00495069
0.00221482
-0.00628491
0.00355353
-0.00786038
0.00516649
-0.00913412
0.00700245
-0.00985316
0.00885775
-0.00928747
0.0100381
-0.00598319
0.00959907
0.00156891
0.00806287
0.00700153
0.00667047
0.00685348
0.00588807
0.00443848
0.00554059
0.00264535
0.00535987
0.00145009
0.00520547
0.00140515
0.00159685
0.00498094
-0.000329388
0.00182213
-0.000572485
0.00164513
-0.000774758
0.00140388
-0.000933604
0.00114523
-0.00105449
0.000916234
-0.0011507
0.00075902
-0.00123941
0.000694567
-0.00133583
0.000711776
-0.00144757
0.000770429
-0.00157161
0.000814227
-0.00169567
0.000796686
-0.0018014
0.000691527
-0.00187373
0.000515902
-0.00190988
0.000334628
-0.00192355
0.000232231
-0.00194444
0.000281456
-0.00200763
0.000500588
-0.00213561
0.000814724
-0.00232085
0.00106143
-0.00252007
0.00106126
-0.00266198
0.000676688
-0.00267751
-7.9689e-05
-0.00252702
-0.00105748
-0.002214
-0.00203302
-0.00178411
-0.00280546
-0.00130245
-0.0032776
-0.000805638
-0.00357589
-0.000281163
-0.00395337
0.00031964
-0.00461385
0.00107549
-0.00570655
0.0021018
-0.00731122
0.00345981
-0.00921839
0.00512684
-0.0108011
0.00704065
-0.011767
0.00899833
-0.0112451
0.01021
-0.00719488
0.00970492
0.00207401
0.00803743
0.00866902
0.00657438
0.00831653
0.0057467
0.00526616
0.00542793
0.00296412
0.00535555
0.00152247
0.00529737
0.00146333
0.00176817
0.00512605
-0.000343209
0.00210349
-0.000590721
0.00189265
-0.000793777