/*--------------------------------*- C++ -*----------------------------------*\
| =========                 |                                                 |
| \\      /  F ield         | OpenFOAM: The Open Source CFD Toolbox           |
|  \\    /   O peration     | Version:  v1912                                 |
|   \\  /    A nd           | Website:  www.openfoam.com                      |
|    \\/     M anipulation  |                                                 |
\*---------------------------------------------------------------------------*/
FoamFile
{
    version     2.0;
    format      ascii;
    class       volSymmTensorField;
    location    "70";
    object      R;
}
// * * * * * * * * * * * * * * * * * * * * * * * * * * * * * * * * * * * * * //

dimensions      [0 2 -2 0 0 0 0];


internalField   nonuniform List<symmTensor> 
14268
(
(2.44326e-07 -4.09389e-08 0 3.03322e-07 0 2.7599e-07)
(2.43564e-07 -4.08987e-08 0 3.0428e-07 0 2.76037e-07)
(2.42828e-07 -4.10169e-08 0 3.05946e-07 0 2.77124e-07)
(2.43856e-07 -4.11144e-08 0 3.06067e-07 0 2.77728e-07)
(2.43847e-07 -4.11904e-08 0 3.07445e-07 0 2.7872e-07)
(2.43857e-07 -4.11998e-08 0 3.09985e-07 0 2.798e-07)
(2.46578e-07 -4.1489e-08 0 3.09947e-07 0 2.81805e-07)
(2.4628e-07 -4.151e-08 0 3.14302e-07 0 2.83472e-07)
(2.49978e-07 -4.19028e-08 0 3.1595e-07 0 2.86645e-07)
(2.51962e-07 -4.2201e-08 0 3.2074e-07 0 2.89943e-07)
(2.56437e-07 -4.27534e-08 0 3.25079e-07 0 2.94565e-07)
(2.61244e-07 -4.33909e-08 0 3.31003e-07 0 2.99984e-07)
(2.67375e-07 -4.419e-08 0 3.37715e-07 0 3.06518e-07)
(2.74473e-07 -4.51122e-08 0 3.45461e-07 0 3.14014e-07)
(2.82538e-07 -4.61395e-08 0 3.53917e-07 0 3.22333e-07)
(2.91304e-07 -4.72386e-08 0 3.62933e-07 0 3.31259e-07)
(3.00599e-07 -4.84e-08 0 3.72488e-07 0 3.40704e-07)
(3.10456e-07 -4.96158e-08 0 3.82477e-07 0 3.50625e-07)
(3.2025e-07 -5.07914e-08 0 3.91999e-07 0 3.60247e-07)
(3.29357e-07 -5.18748e-08 0 4.0068e-07 0 3.69092e-07)
(3.37279e-07 -5.28331e-08 0 4.08369e-07 0 3.7686e-07)
(3.43914e-07 -5.36438e-08 0 4.14882e-07 0 3.83405e-07)
(3.49461e-07 -5.43148e-08 0 4.20121e-07 0 3.88752e-07)
(3.54177e-07 -5.4869e-08 0 4.24158e-07 0 3.93052e-07)
(3.58312e-07 -5.53317e-08 0 4.27157e-07 0 3.96505e-07)
(3.62071e-07 -5.5728e-08 0 4.29322e-07 0 3.99315e-07)
(3.65593e-07 -5.60772e-08 0 4.3086e-07 0 4.01662e-07)
(3.68971e-07 -5.63936e-08 0 4.31956e-07 0 4.03693e-07)
(3.72264e-07 -5.66876e-08 0 4.32747e-07 0 4.05515e-07)
(3.75517e-07 -5.69665e-08 0 4.33325e-07 0 4.07203e-07)
(3.78756e-07 -5.72349e-08 0 4.33753e-07 0 4.08804e-07)
(3.81997e-07 -5.74951e-08 0 4.34071e-07 0 4.10348e-07)
(3.85246e-07 -5.77476e-08 0 4.3431e-07 0 4.11855e-07)
(3.88504e-07 -5.79926e-08 0 4.3449e-07 0 4.13332e-07)
(3.9178e-07 -5.82301e-08 0 4.34613e-07 0 4.14786e-07)
(3.95082e-07 -5.84609e-08 0 4.34672e-07 0 4.16219e-07)
(3.98442e-07 -5.86862e-08 0 4.34636e-07 0 4.17629e-07)
(4.01879e-07 -5.8907e-08 0 4.34486e-07 0 4.1902e-07)
(4.0538e-07 -5.91235e-08 0 4.34233e-07 0 4.20393e-07)
(4.08882e-07 -5.93349e-08 0 4.33923e-07 0 4.21745e-07)
(4.12322e-07 -5.95398e-08 0 4.33608e-07 0 4.23072e-07)
(4.15663e-07 -5.97372e-08 0 4.33312e-07 0 4.24369e-07)
(4.18906e-07 -5.99263e-08 0 4.33038e-07 0 4.25631e-07)
(4.22122e-07 -6.01088e-08 0 4.32726e-07 0 4.26867e-07)
(4.25218e-07 -6.02817e-08 0 4.32461e-07 0 4.28062e-07)
(4.28273e-07 -6.04505e-08 0 4.32173e-07 0 4.29219e-07)
(4.31414e-07 -6.06228e-08 0 4.31776e-07 0 4.30364e-07)
(4.34594e-07 -6.07955e-08 0 4.31322e-07 0 4.31499e-07)
(4.37793e-07 -6.09671e-08 0 4.30818e-07 0 4.32616e-07)
(4.41024e-07 -6.11362e-08 0 4.30219e-07 0 4.33707e-07)
(4.44294e-07 -6.12995e-08 0 4.29475e-07 0 4.34756e-07)
(4.47568e-07 -6.14532e-08 0 4.28569e-07 0 4.3574e-07)
(4.50756e-07 -6.15955e-08 0 4.27527e-07 0 4.36632e-07)
(4.53792e-07 -6.17215e-08 0 4.26357e-07 0 4.37407e-07)
(4.56605e-07 -6.18211e-08 0 4.25083e-07 0 4.3804e-07)
(4.59019e-07 -6.18827e-08 0 4.23844e-07 0 4.38505e-07)
(4.60878e-07 -6.19017e-08 0 4.22787e-07 0 4.38781e-07)
(4.6215e-07 -6.18815e-08 0 4.21947e-07 0 4.38863e-07)
(4.62848e-07 -6.18375e-08 0 4.21337e-07 0 4.38775e-07)
(4.63175e-07 -6.17701e-08 0 4.20788e-07 0 4.38509e-07)
(4.63186e-07 -6.16919e-08 0 4.20248e-07 0 4.38088e-07)
(4.63036e-07 -6.1612e-08 0 4.19603e-07 0 4.37553e-07)
(4.6279e-07 -6.15323e-08 0 4.1881e-07 0 4.36922e-07)
(4.62451e-07 -6.14504e-08 0 4.17875e-07 0 4.36201e-07)
(4.62007e-07 -6.13613e-08 0 4.16813e-07 0 4.35389e-07)
(4.61481e-07 -6.12598e-08 0 4.15601e-07 0 4.34487e-07)
(4.60878e-07 -6.11419e-08 0 4.14239e-07 0 4.33492e-07)
(4.60172e-07 -6.1007e-08 0 4.1277e-07 0 4.32408e-07)
(4.5933e-07 -6.08565e-08 0 4.11255e-07 0 4.31242e-07)
(4.5839e-07 -6.06922e-08 0 4.09685e-07 0 4.30012e-07)
(4.57364e-07 -6.05177e-08 0 4.08082e-07 0 4.28733e-07)
(4.56208e-07 -6.03379e-08 0 4.06519e-07 0 4.27415e-07)
(4.54949e-07 -6.0153e-08 0 4.04982e-07 0 4.26064e-07)
(4.53658e-07 -5.99603e-08 0 4.03408e-07 0 4.24689e-07)
(4.52353e-07 -5.97628e-08 0 4.0179e-07 0 4.23297e-07)
(4.51079e-07 -5.95644e-08 0 4.00117e-07 0 4.21904e-07)
(4.49868e-07 -5.93691e-08 0 3.98421e-07 0 4.20533e-07)
(4.48683e-07 -5.918e-08 0 3.96766e-07 0 4.19189e-07)
(4.47532e-07 -5.90007e-08 0 3.95186e-07 0 4.17889e-07)
(4.46463e-07 -5.88353e-08 0 3.93673e-07 0 4.16653e-07)
(4.45509e-07 -5.86863e-08 0 3.9221e-07 0 4.15494e-07)
(4.44695e-07 -5.85543e-08 0 3.90788e-07 0 4.14421e-07)
(4.44071e-07 -5.84398e-08 0 3.89379e-07 0 4.13444e-07)
(4.43644e-07 -5.83403e-08 0 3.87971e-07 0 4.12563e-07)
(4.43395e-07 -5.82535e-08 0 3.86551e-07 0 4.11764e-07)
(4.43274e-07 -5.81763e-08 0 3.85137e-07 0 4.11034e-07)
(4.43262e-07 -5.81035e-08 0 3.83707e-07 0 4.10354e-07)
(4.43249e-07 -5.80293e-08 0 3.82316e-07 0 4.09698e-07)
(4.43143e-07 -5.79498e-08 0 3.8101e-07 0 4.09042e-07)
(4.42936e-07 -5.78614e-08 0 3.79762e-07 0 4.08367e-07)
(4.42666e-07 -5.77638e-08 0 3.78538e-07 0 4.07676e-07)
(4.42345e-07 -5.7664e-08 0 3.77402e-07 0 4.07002e-07)
(4.41907e-07 -5.7569e-08 0 3.7648e-07 0 4.06377e-07)
(4.41261e-07 -5.74785e-08 0 3.75825e-07 0 4.05782e-07)
(4.40521e-07 -5.73952e-08 0 3.75346e-07 0 4.05227e-07)
(4.39849e-07 -5.73203e-08 0 3.74924e-07 0 4.04737e-07)
(4.39182e-07 -5.72548e-08 0 3.74615e-07 0 4.0431e-07)
(4.38333e-07 -5.71999e-08 0 3.74561e-07 0 4.03922e-07)
(4.37351e-07 -5.71527e-08 0 3.74709e-07 0 4.03571e-07)
(4.36083e-07 -5.71135e-08 0 3.75157e-07 0 4.03237e-07)
(4.34871e-07 -5.70823e-08 0 3.75661e-07 0 4.02962e-07)
(4.33782e-07 -5.70589e-08 0 3.76173e-07 0 4.02754e-07)
(4.32566e-07 -5.70439e-08 0 3.76875e-07 0 4.02582e-07)
(4.3107e-07 -5.70401e-08 0 3.77874e-07 0 4.0243e-07)
(4.29355e-07 -5.70481e-08 0 3.79122e-07 0 4.02304e-07)
(4.27534e-07 -5.70632e-08 0 3.80531e-07 0 4.0221e-07)
(4.25597e-07 -5.70832e-08 0 3.82094e-07 0 4.02146e-07)
(4.23428e-07 -5.71231e-08 0 3.83882e-07 0 4.02099e-07)
(4.21169e-07 -5.71803e-08 0 3.85793e-07 0 4.02079e-07)
(4.18968e-07 -5.72214e-08 0 3.87701e-07 0 4.02074e-07)
(4.16759e-07 -5.7278e-08 0 3.89653e-07 0 4.02078e-07)
(4.14492e-07 -5.73316e-08 0 3.91651e-07 0 4.0208e-07)
(4.12061e-07 -5.73946e-08 0 3.93811e-07 0 4.02088e-07)
(4.09638e-07 -5.74557e-08 0 3.9601e-07 0 4.02116e-07)
(4.07125e-07 -5.75118e-08 0 3.98329e-07 0 4.02161e-07)
(4.04389e-07 -5.75575e-08 0 4.00842e-07 0 4.02202e-07)
(4.01133e-07 -5.7595e-08 0 4.03783e-07 0 4.02221e-07)
(3.97751e-07 -5.7629e-08 0 4.06913e-07 0 4.02264e-07)
(3.94584e-07 -5.76656e-08 0 4.09978e-07 0 4.02365e-07)
(3.91383e-07 -5.77083e-08 0 4.13245e-07 0 4.02544e-07)
(3.882e-07 -5.77514e-08 0 4.16633e-07 0 4.0279e-07)
(3.8496e-07 -5.77974e-08 0 4.20096e-07 0 4.03066e-07)
(3.81678e-07 -5.785e-08 0 4.2368e-07 0 4.03387e-07)
(3.78591e-07 -5.79035e-08 0 4.27239e-07 0 4.03766e-07)
(3.75676e-07 -5.79648e-08 0 4.3075e-07 0 4.04188e-07)
(3.72896e-07 -5.8028e-08 0 4.34224e-07 0 4.04644e-07)
(3.7027e-07 -5.80946e-08 0 4.37624e-07 0 4.05131e-07)
(3.67972e-07 -5.81661e-08 0 4.4076e-07 0 4.05631e-07)
(3.65943e-07 -5.82383e-08 0 4.43592e-07 0 4.06119e-07)
(3.64103e-07 -5.83118e-08 0 4.46181e-07 0 4.0659e-07)
(3.62495e-07 -5.83829e-08 0 4.48488e-07 0 4.07036e-07)
(3.61148e-07 -5.84527e-08 0 4.50485e-07 0 4.07453e-07)
(3.59914e-07 -5.85197e-08 0 4.52314e-07 0 4.07845e-07)
(3.58922e-07 -5.85849e-08 0 4.53856e-07 0 4.08201e-07)
(3.58147e-07 -5.86528e-08 0 4.55143e-07 0 4.08524e-07)
(3.57574e-07 -5.87258e-08 0 4.56199e-07 0 4.08821e-07)
(3.57271e-07 -5.88012e-08 0 4.5697e-07 0 4.09091e-07)
(3.57197e-07 -5.88796e-08 0 4.57507e-07 0 4.0934e-07)
(3.57225e-07 -5.89631e-08 0 4.57939e-07 0 4.09581e-07)
(3.57291e-07 -5.9048e-08 0 4.58335e-07 0 4.09824e-07)
(3.57651e-07 -5.91305e-08 0 4.58478e-07 0 4.10059e-07)
(3.58005e-07 -5.9214e-08 0 4.58645e-07 0 4.10305e-07)
(3.58683e-07 -5.9299e-08 0 4.58567e-07 0 4.10562e-07)
(3.59597e-07 -5.94113e-08 0 4.58564e-07 0 4.10967e-07)
(3.60856e-07 -5.95494e-08 0 4.58565e-07 0 4.11531e-07)
(3.62376e-07 -5.97109e-08 0 4.58602e-07 0 4.12238e-07)
(3.64144e-07 -5.98924e-08 0 4.58647e-07 0 4.13067e-07)
(3.66127e-07 -6.00922e-08 0 4.58695e-07 0 4.14e-07)
(3.68345e-07 -6.03095e-08 0 4.58706e-07 0 4.15026e-07)
(3.70832e-07 -6.0545e-08 0 4.58645e-07 0 4.16143e-07)
(3.73571e-07 -6.0799e-08 0 4.58527e-07 0 4.17351e-07)
(3.76511e-07 -6.10714e-08 0 4.58395e-07 0 4.1865e-07)
(3.79648e-07 -6.13627e-08 0 4.58243e-07 0 4.20042e-07)
(3.83097e-07 -6.16679e-08 0 4.5797e-07 0 4.21526e-07)
(3.86867e-07 -6.19909e-08 0 4.57569e-07 0 4.23103e-07)
(3.90745e-07 -6.23355e-08 0 4.57241e-07 0 4.2476e-07)
(3.94843e-07 -6.26917e-08 0 4.56845e-07 0 4.2649e-07)
(3.99234e-07 -6.30445e-08 0 4.56201e-07 0 4.28252e-07)
(4.03788e-07 -6.33996e-08 0 4.55383e-07 0 4.29995e-07)
(4.09322e-07 -6.37589e-08 0 4.53536e-07 0 4.31727e-07)
(4.16526e-07 -6.40946e-08 0 4.4993e-07 0 4.33446e-07)
(4.22141e-07 -6.43391e-08 0 4.47998e-07 0 4.35224e-07)
(4.26079e-07 -6.45774e-08 0 4.47404e-07 0 4.36891e-07)
(4.29098e-07 -6.48138e-08 0 4.47435e-07 0 4.38513e-07)
(1.2424e-08 -8.32924e-10 0 1.77659e-08 0 1.51028e-08)
(1.20373e-08 -6.96422e-10 0 1.77493e-08 0 1.48728e-08)
(1.18115e-08 -6.39969e-10 0 1.77233e-08 0 1.47637e-08)
(1.17423e-08 -5.32281e-10 0 1.80963e-08 0 1.48882e-08)
(1.18177e-08 -4.77899e-10 0 1.8687e-08 0 1.52436e-08)
(1.23363e-08 -4.48755e-10 0 1.97592e-08 0 1.59861e-08)
(1.30402e-08 -4.49471e-10 0 2.13307e-08 0 1.71582e-08)
(1.43618e-08 -5.10257e-10 0 2.3646e-08 0 1.89253e-08)
(1.61453e-08 -6.35926e-10 0 2.68314e-08 0 2.14212e-08)
(1.87328e-08 -8.63933e-10 0 3.11401e-08 0 2.48379e-08)
(2.21422e-08 -1.21597e-09 0 3.67561e-08 0 2.93383e-08)
(2.65564e-08 -1.7218e-09 0 4.38384e-08 0 3.50612e-08)
(3.19589e-08 -2.38651e-09 0 5.23567e-08 0 4.19975e-08)
(3.81945e-08 -3.17978e-09 0 6.19832e-08 0 4.99005e-08)
(4.50415e-08 -4.05356e-09 0 7.22987e-08 0 5.84537e-08)
(5.2269e-08 -4.9582e-09 0 8.29564e-08 0 6.73704e-08)
(5.95868e-08 -5.85389e-09 0 9.36594e-08 0 7.63597e-08)
(6.67754e-08 -6.71575e-09 0 1.04099e-07 0 8.51554e-08)
(7.38084e-08 -7.54154e-09 0 1.14037e-07 0 9.36225e-08)
(8.05541e-08 -8.32141e-09 0 1.23212e-07 0 1.01566e-07)
(8.67839e-08 -9.04496e-09 0 1.31426e-07 0 1.08774e-07)
(9.23563e-08 -9.70578e-09 0 1.38559e-07 0 1.15118e-07)
(9.72353e-08 -1.03007e-08 0 1.44595e-07 0 1.20572e-07)
(1.01468e-07 -1.08313e-08 0 1.49599e-07 0 1.2519e-07)
(1.05155e-07 -1.13021e-08 0 1.53685e-07 0 1.2908e-07)
(1.08428e-07 -1.17233e-08 0 1.5698e-07 0 1.32368e-07)
(1.11416e-07 -1.21067e-08 0 1.59631e-07 0 1.35193e-07)
(1.14232e-07 -1.24635e-08 0 1.61786e-07 0 1.37684e-07)
(1.16971e-07 -1.28051e-08 0 1.63579e-07 0 1.39955e-07)
(1.19705e-07 -1.31407e-08 0 1.65125e-07 0 1.421e-07)
(1.22488e-07 -1.34771e-08 0 1.66512e-07 0 1.4419e-07)
(1.25349e-07 -1.38176e-08 0 1.67802e-07 0 1.46272e-07)
(1.28313e-07 -1.41638e-08 0 1.69043e-07 0 1.48382e-07)
(1.31401e-07 -1.45165e-08 0 1.70269e-07 0 1.50546e-07)
(1.34621e-07 -1.48751e-08 0 1.71499e-07 0 1.52778e-07)
(1.37972e-07 -1.52381e-08 0 1.72737e-07 0 1.5508e-07)
(1.41437e-07 -1.5603e-08 0 1.73978e-07 0 1.57441e-07)
(1.45004e-07 -1.59692e-08 0 1.7522e-07 0 1.59854e-07)
(1.48667e-07 -1.63372e-08 0 1.76462e-07 0 1.62315e-07)
(1.52418e-07 -1.6708e-08 0 1.77702e-07 0 1.64819e-07)
(1.56252e-07 -1.70837e-08 0 1.78946e-07 0 1.67366e-07)
(1.60172e-07 -1.74672e-08 0 1.80204e-07 0 1.69962e-07)
(1.64188e-07 -1.78615e-08 0 1.81487e-07 0 1.72617e-07)
(1.68325e-07 -1.82693e-08 0 1.82792e-07 0 1.75343e-07)
(1.72592e-07 -1.86918e-08 0 1.84141e-07 0 1.78153e-07)
(1.77029e-07 -1.91315e-08 0 1.85521e-07 0 1.81061e-07)
(1.81675e-07 -1.95915e-08 0 1.8693e-07 0 1.84087e-07)
(1.86537e-07 -2.00688e-08 0 1.88376e-07 0 1.87239e-07)
(1.91617e-07 -2.05621e-08 0 1.89867e-07 0 1.90522e-07)
(1.9692e-07 -2.10654e-08 0 1.9138e-07 0 1.93927e-07)
(2.02418e-07 -2.15762e-08 0 1.92902e-07 0 1.97435e-07)
(2.08078e-07 -2.20865e-08 0 1.94409e-07 0 2.01016e-07)
(2.13836e-07 -2.25904e-08 0 1.95893e-07 0 2.04635e-07)
(2.1961e-07 -2.3084e-08 0 1.9735e-07 0 2.0825e-07)
(2.25322e-07 -2.35595e-08 0 1.98767e-07 0 2.11814e-07)
(2.30873e-07 -2.40116e-08 0 2.00162e-07 0 2.15285e-07)
(2.36163e-07 -2.44334e-08 0 2.0155e-07 0 2.1862e-07)
(2.41108e-07 -2.48322e-08 0 2.02937e-07 0 2.21781e-07)
(2.45655e-07 -2.5193e-08 0 2.04309e-07 0 2.24731e-07)
(2.4978e-07 -2.55425e-08 0 2.05637e-07 0 2.27449e-07)
(2.53499e-07 -2.58481e-08 0 2.06886e-07 0 2.29922e-07)
(2.56844e-07 -2.61339e-08 0 2.08033e-07 0 2.32159e-07)
(2.59857e-07 -2.6411e-08 0 2.09066e-07 0 2.34176e-07)
(2.62574e-07 -2.66553e-08 0 2.09974e-07 0 2.35985e-07)
(2.65004e-07 -2.68649e-08 0 2.10748e-07 0 2.37585e-07)
(2.6714e-07 -2.70586e-08 0 2.11392e-07 0 2.38978e-07)
(2.68979e-07 -2.72422e-08 0 2.11917e-07 0 2.40166e-07)
(2.70526e-07 -2.74058e-08 0 2.12337e-07 0 2.41158e-07)
(2.71786e-07 -2.75405e-08 0 2.12666e-07 0 2.41961e-07)
(2.72765e-07 -2.76467e-08 0 2.12916e-07 0 2.42583e-07)
(2.73471e-07 -2.77309e-08 0 2.13096e-07 0 2.43036e-07)
(2.73927e-07 -2.78002e-08 0 2.13216e-07 0 2.43335e-07)
(2.7417e-07 -2.78603e-08 0 2.13285e-07 0 2.43504e-07)
(2.7425e-07 -2.79142e-08 0 2.13309e-07 0 2.4357e-07)
(2.74226e-07 -2.79651e-08 0 2.133e-07 0 2.43568e-07)
(2.74146e-07 -2.80316e-08 0 2.13266e-07 0 2.43528e-07)
(2.74083e-07 -2.81084e-08 0 2.13232e-07 0 2.43496e-07)
(2.74093e-07 -2.81805e-08 0 2.13222e-07 0 2.43506e-07)
(2.74249e-07 -2.82977e-08 0 2.1325e-07 0 2.4361e-07)
(2.74653e-07 -2.84563e-08 0 2.13345e-07 0 2.43869e-07)
(2.7536e-07 -2.8647e-08 0 2.13517e-07 0 2.44315e-07)
(2.76407e-07 -2.8868e-08 0 2.13772e-07 0 2.4497e-07)
(2.77818e-07 -2.91161e-08 0 2.14109e-07 0 2.45846e-07)
(2.79587e-07 -2.93842e-08 0 2.14521e-07 0 2.46935e-07)
(2.81668e-07 -2.96614e-08 0 2.14988e-07 0 2.48207e-07)
(2.83973e-07 -2.99344e-08 0 2.15483e-07 0 2.49604e-07)
(2.86364e-07 -3.01873e-08 0 2.15975e-07 0 2.51043e-07)
(2.88656e-07 -3.04033e-08 0 2.16434e-07 0 2.52417e-07)
(2.90711e-07 -3.0573e-08 0 2.16835e-07 0 2.53646e-07)
(2.92398e-07 -3.06892e-08 0 2.1715e-07 0 2.54649e-07)
(2.93611e-07 -3.0748e-08 0 2.17357e-07 0 2.55361e-07)
(2.94273e-07 -3.07497e-08 0 2.17447e-07 0 2.5574e-07)
(2.94378e-07 -3.07072e-08 0 2.17434e-07 0 2.55791e-07)
(2.93905e-07 -3.0613e-08 0 2.17321e-07 0 2.55511e-07)
(2.92795e-07 -3.0467e-08 0 2.17074e-07 0 2.54852e-07)
(2.912e-07 -3.02816e-08 0 2.16666e-07 0 2.53869e-07)
(2.89177e-07 -3.00629e-08 0 2.1613e-07 0 2.52613e-07)
(2.86697e-07 -2.9816e-08 0 2.15545e-07 0 2.51109e-07)
(2.83786e-07 -2.95368e-08 0 2.14897e-07 0 2.49363e-07)
(2.80431e-07 -2.92209e-08 0 2.14186e-07 0 2.47371e-07)
(2.76717e-07 -2.88623e-08 0 2.13335e-07 0 2.45126e-07)
(2.72682e-07 -2.84605e-08 0 2.12319e-07 0 2.42636e-07)
(2.68267e-07 -2.80202e-08 0 2.11199e-07 0 2.39903e-07)
(2.6342e-07 -2.75467e-08 0 2.10017e-07 0 2.36925e-07)
(2.58181e-07 -2.70451e-08 0 2.0876e-07 0 2.33716e-07)
(2.52654e-07 -2.65214e-08 0 2.07411e-07 0 2.30317e-07)
(2.46927e-07 -2.59853e-08 0 2.05996e-07 0 2.26785e-07)
(2.41069e-07 -2.545e-08 0 2.04552e-07 0 2.23173e-07)
(2.35221e-07 -2.49225e-08 0 2.03069e-07 0 2.19541e-07)
(2.29519e-07 -2.44003e-08 0 2.01542e-07 0 2.15949e-07)
(2.23989e-07 -2.38946e-08 0 1.99995e-07 0 2.12424e-07)
(2.18598e-07 -2.34004e-08 0 1.98472e-07 0 2.08978e-07)
(2.13374e-07 -2.29163e-08 0 1.96965e-07 0 2.0562e-07)
(2.08326e-07 -2.24339e-08 0 1.9545e-07 0 2.0234e-07)
(2.03398e-07 -2.1946e-08 0 1.9392e-07 0 1.99109e-07)
(1.98506e-07 -2.14455e-08 0 1.92373e-07 0 1.95885e-07)
(1.93594e-07 -2.09289e-08 0 1.90793e-07 0 1.92634e-07)
(1.8869e-07 -2.03951e-08 0 1.8912e-07 0 1.89336e-07)
(1.83785e-07 -1.98472e-08 0 1.87349e-07 0 1.85984e-07)
(1.78872e-07 -1.92887e-08 0 1.85508e-07 0 1.82584e-07)
(1.73958e-07 -1.87239e-08 0 1.83602e-07 0 1.79149e-07)
(1.69056e-07 -1.81607e-08 0 1.81638e-07 0 1.75701e-07)
(1.64225e-07 -1.76052e-08 0 1.79646e-07 0 1.72275e-07)
(1.59554e-07 -1.70627e-08 0 1.77632e-07 0 1.6891e-07)
(1.55066e-07 -1.65391e-08 0 1.75618e-07 0 1.65631e-07)
(1.5078e-07 -1.60368e-08 0 1.73624e-07 0 1.62462e-07)
(1.46713e-07 -1.55575e-08 0 1.71665e-07 0 1.5942e-07)
(1.42885e-07 -1.51021e-08 0 1.69743e-07 0 1.56515e-07)
(1.39279e-07 -1.46702e-08 0 1.67887e-07 0 1.53755e-07)
(1.35891e-07 -1.42629e-08 0 1.66109e-07 0 1.51145e-07)
(1.32729e-07 -1.38809e-08 0 1.64413e-07 0 1.48688e-07)
(1.29796e-07 -1.35266e-08 0 1.62804e-07 0 1.46389e-07)
(1.27091e-07 -1.32021e-08 0 1.61303e-07 0 1.44257e-07)
(1.24637e-07 -1.29114e-08 0 1.59918e-07 0 1.4231e-07)
(1.22453e-07 -1.266e-08 0 1.58676e-07 0 1.4057e-07)
(1.20564e-07 -1.24525e-08 0 1.57601e-07 0 1.39062e-07)
(1.18996e-07 -1.22931e-08 0 1.56715e-07 0 1.37811e-07)
(1.17768e-07 -1.21839e-08 0 1.56039e-07 0 1.36838e-07)
(1.16891e-07 -1.21261e-08 0 1.55592e-07 0 1.36157e-07)
(1.16371e-07 -1.21184e-08 0 1.55378e-07 0 1.35776e-07)
(1.16193e-07 -1.21632e-08 0 1.55392e-07 0 1.35682e-07)
(1.1637e-07 -1.22549e-08 0 1.55641e-07 0 1.35886e-07)
(1.16881e-07 -1.23902e-08 0 1.56096e-07 0 1.36365e-07)
(1.17612e-07 -1.25456e-08 0 1.56645e-07 0 1.37003e-07)
(1.18523e-07 -1.27137e-08 0 1.57247e-07 0 1.3776e-07)
(1.19599e-07 -1.28932e-08 0 1.57899e-07 0 1.38626e-07)
(1.20827e-07 -1.30838e-08 0 1.58596e-07 0 1.39592e-07)
(1.22198e-07 -1.32856e-08 0 1.59334e-07 0 1.4065e-07)
(1.23712e-07 -1.34993e-08 0 1.6011e-07 0 1.41799e-07)
(1.25378e-07 -1.37258e-08 0 1.60924e-07 0 1.43042e-07)
(1.27202e-07 -1.39658e-08 0 1.61784e-07 0 1.44386e-07)
(1.2918e-07 -1.42204e-08 0 1.62704e-07 0 1.45836e-07)
(1.31313e-07 -1.44897e-08 0 1.63691e-07 0 1.47396e-07)
(1.3362e-07 -1.47719e-08 0 1.64721e-07 0 1.49062e-07)
(1.36118e-07 -1.50652e-08 0 1.65785e-07 0 1.50836e-07)
(1.38799e-07 -1.53694e-08 0 1.66905e-07 0 1.52724e-07)
(1.41671e-07 -1.56833e-08 0 1.68083e-07 0 1.54729e-07)
(1.44697e-07 -1.60041e-08 0 1.69334e-07 0 1.56842e-07)
(1.47788e-07 -1.63285e-08 0 1.70677e-07 0 1.59021e-07)
(1.50978e-07 -1.66511e-08 0 1.71981e-07 0 1.61227e-07)
(1.54232e-07 -1.69642e-08 0 1.73211e-07 0 1.6344e-07)
(1.57424e-07 -1.72648e-08 0 1.74408e-07 0 1.65626e-07)
(1.60434e-07 -1.75565e-08 0 1.75591e-07 0 1.67739e-07)
(1.63334e-07 -1.78386e-08 0 1.76736e-07 0 1.69809e-07)
(2.07775e-09 -3.12699e-11 0 3.11226e-09 0 2.59047e-09)
(2.17631e-09 -3.26873e-11 0 3.30955e-09 0 2.73397e-09)
(2.23078e-09 -3.51444e-11 0 3.46087e-09 0 2.84549e-09)
(2.35707e-09 -3.86223e-11 0 3.66801e-09 0 3.00518e-09)
(2.48036e-09 -4.42086e-11 0 3.92482e-09 0 3.20403e-09)
(2.70016e-09 -5.28066e-11 0 4.26536e-09 0 3.47511e-09)
(2.95079e-09 -6.51999e-11 0 4.71682e-09 0 3.83678e-09)
(3.34377e-09 -8.41996e-11 0 5.32525e-09 0 4.33033e-09)
(3.84862e-09 -1.11796e-10 0 6.14485e-09 0 4.99939e-09)
(4.55895e-09 -1.51928e-10 0 7.24998e-09 0 5.90572e-09)
(5.49952e-09 -2.08124e-10 0 8.72145e-09 0 7.11551e-09)
(6.74009e-09 -2.84604e-10 0 1.06461e-08 0 8.70039e-09)
(8.31751e-09 -3.84726e-10 0 1.30843e-08 0 1.0712e-08)
(1.02481e-08 -5.09828e-10 0 1.60439e-08 0 1.31613e-08)
(1.25218e-08 -6.59755e-10 0 1.9498e-08 0 1.60303e-08)
(1.5121e-08 -8.33731e-10 0 2.34055e-08 0 1.92894e-08)
(1.8044e-08 -1.0319e-09 0 2.77401e-08 0 2.29244e-08)
(2.13106e-08 -1.25927e-09 0 3.25233e-08 0 2.69561e-08)
(2.49706e-08 -1.52728e-09 0 3.78417e-08 0 3.14535e-08)
(2.88485e-08 -1.81971e-09 0 4.33521e-08 0 3.61563e-08)
(3.24967e-08 -2.10088e-09 0 4.83802e-08 0 4.05021e-08)
(3.57595e-08 -2.36035e-09 0 5.27403e-08 0 4.43203e-08)
(3.85701e-08 -2.59268e-09 0 5.63709e-08 0 4.75471e-08)
(4.09409e-08 -2.79681e-09 0 5.93026e-08 0 5.0204e-08)
(4.29244e-08 -2.97554e-09 0 6.16229e-08 0 5.23609e-08)
(4.45853e-08 -3.1335e-09 0 6.34361e-08 0 5.41023e-08)
(4.6001e-08 -3.27551e-09 0 6.48329e-08 0 5.55122e-08)
(4.72443e-08 -3.40469e-09 0 6.58991e-08 0 5.66699e-08)
(4.83814e-08 -3.52387e-09 0 6.67114e-08 0 5.7647e-08)
(4.94655e-08 -3.63552e-09 0 6.73387e-08 0 5.85047e-08)
(5.05361e-08 -3.74189e-09 0 6.78403e-08 0 5.92924e-08)
(5.16208e-08 -3.84537e-09 0 6.82646e-08 0 6.00483e-08)
(5.27343e-08 -3.94762e-09 0 6.86464e-08 0 6.07971e-08)
(5.38868e-08 -4.04919e-09 0 6.90106e-08 0 6.15562e-08)
(5.50894e-08 -4.15057e-09 0 6.93747e-08 0 6.23399e-08)
(5.6341e-08 -4.25119e-09 0 6.97471e-08 0 6.31518e-08)
(5.76375e-08 -4.35058e-09 0 7.01309e-08 0 6.39913e-08)
(5.89779e-08 -4.44912e-09 0 7.05288e-08 0 6.48593e-08)
(6.03619e-08 -4.54779e-09 0 7.09423e-08 0 6.57563e-08)
(6.17892e-08 -4.64809e-09 0 7.13723e-08 0 6.66824e-08)
(6.32608e-08 -4.7519e-09 0 7.18203e-08 0 6.7639e-08)
(6.47804e-08 -4.86117e-09 0 7.22884e-08 0 6.86289e-08)
(6.63544e-08 -4.97794e-09 0 7.27802e-08 0 6.96568e-08)
(6.79951e-08 -5.10303e-09 0 7.3295e-08 0 7.07289e-08)
(6.9709e-08 -5.23845e-09 0 7.38414e-08 0 7.18528e-08)
(7.15181e-08 -5.38206e-09 0 7.44114e-08 0 7.30346e-08)
(7.34284e-08 -5.53757e-09 0 7.50191e-08 0 7.4285e-08)
(7.54586e-08 -5.70001e-09 0 7.56555e-08 0 7.56088e-08)
(7.76005e-08 -5.87141e-09 0 7.63372e-08 0 7.70103e-08)
(7.98764e-08 -6.04362e-09 0 7.70374e-08 0 7.84867e-08)
(8.22463e-08 -6.22408e-09 0 7.77888e-08 0 8.00353e-08)
(8.47191e-08 -6.40323e-09 0 7.85596e-08 0 8.16439e-08)
(8.72819e-08 -6.57484e-09 0 7.93291e-08 0 8.32954e-08)
(8.98738e-08 -6.7476e-09 0 8.0128e-08 0 8.49759e-08)
(9.24717e-08 -6.9175e-09 0 8.09403e-08 0 8.6666e-08)
(9.50436e-08 -7.0801e-09 0 8.17539e-08 0 8.83434e-08)
(9.75887e-08 -7.22173e-09 0 8.25173e-08 0 8.99807e-08)
(9.99968e-08 -7.36784e-09 0 8.33204e-08 0 9.15706e-08)
(1.0229e-07 -7.5025e-09 0 8.40991e-08 0 9.3091e-08)
(1.04442e-07 -7.62987e-09 0 8.48573e-08 0 9.45306e-08)
(1.06432e-07 -7.75651e-09 0 8.56048e-08 0 9.58858e-08)
(1.08286e-07 -7.87423e-09 0 8.63093e-08 0 9.71516e-08)
(1.10017e-07 -7.97628e-09 0 8.69468e-08 0 9.83228e-08)
(1.11616e-07 -8.06496e-09 0 8.75218e-08 0 9.93971e-08)
(1.13068e-07 -8.14561e-09 0 8.80483e-08 0 1.00375e-07)
(1.14366e-07 -8.22149e-09 0 8.8535e-08 0 1.01258e-07)
(1.15515e-07 -8.29336e-09 0 8.89843e-08 0 1.02051e-07)
(1.16522e-07 -8.36076e-09 0 8.93968e-08 0 1.02754e-07)
(1.17392e-07 -8.42313e-09 0 8.97724e-08 0 1.03373e-07)
(1.18131e-07 -8.48029e-09 0 9.01117e-08 0 1.03908e-07)
(1.18745e-07 -8.53273e-09 0 9.04168e-08 0 1.04366e-07)
(1.19245e-07 -8.58173e-09 0 9.06918e-08 0 1.04752e-07)
(1.19644e-07 -8.62903e-09 0 9.0941e-08 0 1.05075e-07)
(1.19964e-07 -8.6769e-09 0 9.11685e-08 0 1.05349e-07)
(1.20229e-07 -8.7284e-09 0 9.13797e-08 0 1.05588e-07)
(1.20469e-07 -8.78686e-09 0 9.15829e-08 0 1.0581e-07)
(1.20715e-07 -8.85515e-09 0 9.17865e-08 0 1.06036e-07)
(1.21003e-07 -8.9366e-09 0 9.20024e-08 0 1.06287e-07)
(1.21375e-07 -9.0347e-09 0 9.2244e-08 0 1.06593e-07)
(1.21872e-07 -9.15147e-09 0 9.25215e-08 0 1.06978e-07)
(1.22529e-07 -9.28714e-09 0 9.2843e-08 0 1.07463e-07)
(1.23371e-07 -9.44023e-09 0 9.32146e-08 0 1.08064e-07)
(1.24413e-07 -9.60709e-09 0 9.36389e-08 0 1.08789e-07)
(1.25649e-07 -9.78207e-09 0 9.4113e-08 0 1.09635e-07)
(1.27054e-07 -9.95815e-09 0 9.46268e-08 0 1.10583e-07)
(1.28581e-07 -1.01271e-08 0 9.51642e-08 0 1.11603e-07)
(1.30157e-07 -1.02801e-08 0 9.57048e-08 0 1.1265e-07)
(1.31685e-07 -1.04081e-08 0 9.62236e-08 0 1.13663e-07)
(1.33087e-07 -1.05062e-08 0 9.67016e-08 0 1.14593e-07)
(1.34287e-07 -1.05713e-08 0 9.71192e-08 0 1.15394e-07)
(1.35218e-07 -1.06019e-08 0 9.74598e-08 0 1.16023e-07)
(1.35815e-07 -1.05982e-08 0 9.77037e-08 0 1.16438e-07)
(1.36032e-07 -1.05637e-08 0 9.78277e-08 0 1.16605e-07)
(1.35891e-07 -1.05045e-08 0 9.78381e-08 0 1.1654e-07)
(1.35337e-07 -1.04078e-08 0 9.77246e-08 0 1.16211e-07)
(1.34417e-07 -1.02854e-08 0 9.74726e-08 0 1.15631e-07)
(1.33197e-07 -1.01445e-08 0 9.71067e-08 0 1.14848e-07)
(1.31694e-07 -9.9865e-09 0 9.66574e-08 0 1.13884e-07)
(1.29925e-07 -9.80868e-09 0 9.61257e-08 0 1.1275e-07)
(1.27902e-07 -9.60829e-09 0 9.55059e-08 0 1.11446e-07)
(1.25642e-07 -9.38388e-09 0 9.47833e-08 0 1.09974e-07)
(1.23154e-07 -9.13571e-09 0 9.39552e-08 0 1.08335e-07)
(1.20438e-07 -8.8663e-09 0 9.3036e-08 0 1.06536e-07)
(1.175e-07 -8.581e-09 0 9.20389e-08 0 1.04588e-07)
(1.14377e-07 -8.286e-09 0 9.09715e-08 0 1.02515e-07)
(1.1113e-07 -7.98693e-09 0 8.98459e-08 0 1.00351e-07)
(1.07821e-07 -7.69054e-09 0 8.86849e-08 0 9.81382e-08)
(1.0451e-07 -7.40363e-09 0 8.75105e-08 0 9.59155e-08)
(1.01263e-07 -7.13075e-09 0 8.63368e-08 0 9.37231e-08)
(9.81294e-08 -6.87228e-09 0 8.51758e-08 0 9.15908e-08)
(9.51346e-08 -6.62977e-09 0 8.40427e-08 0 8.95397e-08)
(9.22812e-08 -6.4005e-09 0 8.29505e-08 0 8.75787e-08)
(8.95708e-08 -6.18104e-09 0 8.18975e-08 0 8.57075e-08)
(8.69905e-08 -5.96694e-09 0 8.08776e-08 0 8.39162e-08)
(8.45121e-08 -5.75441e-09 0 7.98837e-08 0 8.21876e-08)
(8.21027e-08 -5.54049e-09 0 7.89071e-08 0 8.05014e-08)
(7.97366e-08 -5.32395e-09 0 7.79384e-08 0 7.88406e-08)
(7.74065e-08 -5.1054e-09 0 7.69669e-08 0 7.71959e-08)
(7.51079e-08 -4.88697e-09 0 7.59933e-08 0 7.55651e-08)
(7.28476e-08 -4.67182e-09 0 7.50271e-08 0 7.39545e-08)
(7.06334e-08 -4.46373e-09 0 7.4074e-08 0 7.23723e-08)
(6.84735e-08 -4.26608e-09 0 7.31402e-08 0 7.08306e-08)
(6.63949e-08 -4.08072e-09 0 7.22362e-08 0 6.93455e-08)
(6.4425e-08 -3.90974e-09 0 7.13723e-08 0 6.79324e-08)
(6.25727e-08 -3.75441e-09 0 7.05551e-08 0 6.66001e-08)
(6.08429e-08 -3.61452e-09 0 6.97896e-08 0 6.53543e-08)
(5.92374e-08 -3.48885e-09 0 6.90784e-08 0 6.41977e-08)
(5.77545e-08 -3.37612e-09 0 6.84217e-08 0 6.31296e-08)
(5.63887e-08 -3.27523e-09 0 6.78202e-08 0 6.21475e-08)
(5.5135e-08 -3.18545e-09 0 6.72726e-08 0 6.1248e-08)
(5.39884e-08 -3.1066e-09 0 6.67766e-08 0 6.04273e-08)
(5.29444e-08 -3.03907e-09 0 6.63312e-08 0 5.96825e-08)
(5.20004e-08 -2.98318e-09 0 6.5936e-08 0 5.90124e-08)
(5.11575e-08 -2.93949e-09 0 6.55908e-08 0 5.84174e-08)
(5.04185e-08 -2.90885e-09 0 6.52974e-08 0 5.79e-08)
(4.97878e-08 -2.89182e-09 0 6.50576e-08 0 5.74632e-08)
(4.92694e-08 -2.88856e-09 0 6.48734e-08 0 5.711e-08)
(4.88662e-08 -2.89823e-09 0 6.47461e-08 0 5.68424e-08)
(4.85799e-08 -2.91965e-09 0 6.46756e-08 0 5.66614e-08)
(4.84085e-08 -2.95099e-09 0 6.46603e-08 0 5.65652e-08)
(4.83429e-08 -2.99593e-09 0 6.47042e-08 0 5.65511e-08)
(4.83921e-08 -3.04682e-09 0 6.47988e-08 0 5.66199e-08)
(4.85441e-08 -3.10485e-09 0 6.49428e-08 0 5.67654e-08)
(4.8769e-08 -3.16468e-09 0 6.51031e-08 0 5.69554e-08)
(4.90548e-08 -3.22483e-09 0 6.52708e-08 0 5.71798e-08)
(4.93967e-08 -3.28512e-09 0 6.54466e-08 0 5.74364e-08)
(4.97913e-08 -3.3461e-09 0 6.56308e-08 0 5.77235e-08)
(5.02365e-08 -3.40867e-09 0 6.58241e-08 0 5.80404e-08)
(5.0732e-08 -3.47343e-09 0 6.60289e-08 0 5.83876e-08)
(5.12815e-08 -3.54075e-09 0 6.62465e-08 0 5.87675e-08)
(5.1888e-08 -3.61088e-09 0 6.64805e-08 0 5.91833e-08)
(5.25533e-08 -3.68423e-09 0 6.6736e-08 0 5.96381e-08)
(5.32799e-08 -3.76125e-09 0 6.70144e-08 0 6.01339e-08)
(5.40724e-08 -3.84159e-09 0 6.73142e-08 0 6.06715e-08)
(5.49335e-08 -3.9243e-09 0 6.7635e-08 0 6.12518e-08)
(5.58622e-08 -4.00847e-09 0 6.79803e-08 0 6.18754e-08)
(5.68586e-08 -4.09297e-09 0 6.83449e-08 0 6.25407e-08)
(5.79095e-08 -4.17652e-09 0 6.87237e-08 0 6.32401e-08)
(5.89854e-08 -4.25851e-09 0 6.91165e-08 0 6.396e-08)
(6.00851e-08 -4.33767e-09 0 6.95024e-08 0 6.46933e-08)
(6.12059e-08 -4.41129e-09 0 6.98736e-08 0 6.54369e-08)
(6.23166e-08 -4.47886e-09 0 7.02439e-08 0 6.61819e-08)
(6.33906e-08 -4.54539e-09 0 7.06147e-08 0 6.69109e-08)
(6.44349e-08 -4.60839e-09 0 7.09933e-08 0 6.76384e-08)
(1.18066e-09 -5.75112e-12 0 1.78615e-09 0 1.47827e-09)
(1.25822e-09 -7.5995e-12 0 1.93049e-09 0 1.58633e-09)
(1.30284e-09 -9.35892e-12 0 2.03994e-09 0 1.66816e-09)
(1.38592e-09 -1.15392e-11 0 2.1756e-09 0 1.77305e-09)
(1.4661e-09 -1.44356e-11 0 2.34096e-09 0 1.90055e-09)
(1.60026e-09 -1.80304e-11 0 2.55159e-09 0 2.06713e-09)
(1.75332e-09 -2.31761e-11 0 2.83076e-09 0 2.28878e-09)
(1.98955e-09 -3.0078e-11 0 3.20312e-09 0 2.58796e-09)
(2.29692e-09 -4.0297e-11 0 3.71211e-09 0 2.99897e-09)
(2.73283e-09 -5.5144e-11 0 4.40446e-09 0 3.5606e-09)
(3.31996e-09 -7.7013e-11 0 5.34191e-09 0 4.32293e-09)
(4.10738e-09 -1.08514e-10 0 6.58898e-09 0 5.33864e-09)
(5.12876e-09 -1.52763e-10 0 8.20128e-09 0 6.65417e-09)
(6.4092e-09 -2.12788e-10 0 1.02049e-08 0 8.29448e-09)
(7.95825e-09 -2.91455e-10 0 1.26033e-08 0 1.02664e-08)
(9.77849e-09 -3.9144e-10 0 1.53915e-08 0 1.25687e-08)
(1.18774e-08 -5.15519e-10 0 1.85733e-08 0 1.52071e-08)
(1.42784e-08 -6.66841e-10 0 2.21637e-08 0 1.8201e-08)
(1.70313e-08 -8.50534e-10 0 2.61974e-08 0 2.15926e-08)
(2.01242e-08 -1.06955e-09 0 3.06313e-08 0 2.53547e-08)
(2.30956e-08 -1.29039e-09 0 3.47944e-08 0 2.89212e-08)
(2.57346e-08 -1.49649e-09 0 3.84022e-08 0 3.20443e-08)
(2.79717e-08 -1.68053e-09 0 4.13639e-08 0 3.46438e-08)
(2.98155e-08 -1.83638e-09 0 4.36857e-08 0 3.6727e-08)
(3.1316e-08 -1.96395e-09 0 4.5442e-08 0 3.83563e-08)
(3.25266e-08 -2.07058e-09 0 4.67365e-08 0 3.961e-08)
(3.35029e-08 -2.16492e-09 0 4.76635e-08 0 4.05628e-08)
(3.43003e-08 -2.25013e-09 0 4.83003e-08 0 4.12812e-08)
(3.49723e-08 -2.32659e-09 0 4.87078e-08 0 4.18223e-08)
(3.55666e-08 -2.39304e-09 0 4.89352e-08 0 4.22347e-08)
(3.61212e-08 -2.44751e-09 0 4.90255e-08 0 4.25588e-08)
(3.66627e-08 -2.49091e-09 0 4.9017e-08 0 4.28273e-08)
(3.72073e-08 -2.52796e-09 0 4.89437e-08 0 4.30649e-08)
(3.77637e-08 -2.55961e-09 0 4.8833e-08 0 4.32899e-08)
(3.83328e-08 -2.58674e-09 0 4.87061e-08 0 4.35129e-08)
(3.89179e-08 -2.6101e-09 0 4.8576e-08 0 4.37421e-08)
(3.95176e-08 -2.63008e-09 0 4.84517e-08 0 4.39813e-08)
(4.01313e-08 -2.64719e-09 0 4.83379e-08 0 4.42325e-08)
(4.07597e-08 -2.66247e-09 0 4.82373e-08 0 4.44972e-08)
(4.14045e-08 -2.6775e-09 0 4.81511e-08 0 4.47768e-08)
(4.2068e-08 -2.69408e-09 0 4.80795e-08 0 4.50726e-08)
(4.2754e-08 -2.71395e-09 0 4.8022e-08 0 4.53863e-08)