/*--------------------------------*- C++ -*----------------------------------*\
| =========                 |                                                 |
| \\      /  F ield         | OpenFOAM: The Open Source CFD Toolbox           |
|  \\    /   O peration     | Version:  v1912                                 |
|   \\  /    A nd           | Website:  www.openfoam.com                      |
|    \\/     M anipulation  |                                                 |
\*---------------------------------------------------------------------------*/
FoamFile
{
    version     2.0;
    format      ascii;
    class       surfaceScalarField;
    location    "90";
    object      phi;
}
// * * * * * * * * * * * * * * * * * * * * * * * * * * * * * * * * * * * * * //

dimensions      [0 3 -1 0 0 0 0];
oriented        oriented;


internalField   nonuniform List<scalar> 
28285
(
1.74118e-05
9.87827e-07
1.64731e-05
9.38702e-07
1.55813e-05
8.91802e-07
1.47342e-05
8.47036e-07
1.39299e-05
8.0432e-07
1.31664e-05
7.63569e-07
1.24417e-05
7.24704e-07
1.1754e-05
6.87648e-07
1.11017e-05
6.52326e-07
1.0483e-05
6.18664e-07
9.89642e-06
5.86596e-07
9.34037e-06
5.56051e-07
8.8134e-06
5.26967e-07
8.31412e-06
4.9928e-07
7.84119e-06
4.7293e-07
7.39333e-06
4.4786e-07
6.96932e-06
4.24013e-07
6.56799e-06
4.01335e-07
6.18821e-06
3.79774e-07
5.82893e-06
3.59282e-07
5.48912e-06
3.3981e-07
5.16781e-06
3.21311e-07
4.86407e-06
3.03743e-07
4.57701e-06
2.87062e-07
4.30578e-06
2.71227e-07
4.04958e-06
2.562e-07
3.80763e-06
2.41944e-07
3.57921e-06
2.28421e-07
3.36362e-06
2.15598e-07
3.16017e-06
2.03441e-07
2.96825e-06
1.91919e-07
2.78725e-06
1.81002e-07
2.61659e-06
1.7066e-07
2.45573e-06
1.60866e-07
2.30413e-06
1.51594e-07
2.16132e-06
1.42817e-07
2.0268e-06
1.34511e-07
1.90015e-06
1.26654e-07
1.78093e-06
1.19223e-07
1.66873e-06
1.12196e-07
1.56318e-06
1.05554e-07
1.4639e-06
9.92772e-08
1.37055e-06
9.33471e-08
1.28281e-06
8.7746e-08
1.20035e-06
8.24572e-08
1.12289e-06
7.74646e-08
1.05013e-06
7.2753e-08
9.81825e-07
6.83078e-08
9.17709e-07
6.41151e-08
8.57548e-07
6.01617e-08
8.01113e-07
5.64349e-08
7.4819e-07
5.29229e-08
6.98576e-07
4.96142e-08
6.52078e-07
4.64979e-08
6.08514e-07
4.35636e-08
5.67713e-07
4.08017e-08
5.2951e-07
3.82027e-08
4.93752e-07
3.57578e-08
4.60294e-07
3.34585e-08
4.28997e-07
3.12968e-08
3.99732e-07
2.92651e-08
3.72375e-07
2.73562e-08
3.46812e-07
2.55632e-08
3.22933e-07
2.38797e-08
3.00633e-07
2.22994e-08
2.79817e-07
2.08164e-08
2.60391e-07
1.94253e-08
2.42271e-07
1.81208e-08
2.25373e-07
1.68979e-08
2.09621e-07
1.57519e-08
1.94943e-07
1.46783e-08
1.8127e-07
1.36728e-08
1.68538e-07
1.27315e-08
1.56688e-07
1.18506e-08
1.45661e-07
1.10266e-08
1.35405e-07
1.02559e-08
1.2587e-07
9.53544e-09
1.17008e-07
8.86216e-09
1.08774e-07
8.23324e-09
1.01128e-07
7.64593e-09
9.40307e-08
7.09772e-09
8.74446e-08
6.58618e-09
8.13355e-08
6.10907e-09
7.56713e-08
5.66423e-09
7.04216e-08
5.24965e-09
6.55582e-08
4.86344e-09
6.10544e-08
4.50379e-09
5.68854e-08
4.16905e-09
5.30277e-08
3.8576e-09
4.94598e-08
3.56798e-09
4.6161e-08
3.29876e-09
4.31124e-08
3.04865e-09
4.0296e-08
2.81639e-09
3.76951e-08
2.60084e-09
3.52943e-08
2.40088e-09
3.30787e-08
2.21552e-09
3.1035e-08
2.04377e-09
2.91502e-08
1.88477e-09
2.74125e-08
1.73766e-09
2.58109e-08
1.60165e-09
2.43349e-08
1.47603e-09
2.29748e-08
1.36011e-09
2.17215e-08
1.25323e-09
2.05667e-08
1.15486e-09
1.95023e-08
1.06437e-09
1.85209e-08
9.81392e-10
1.76157e-08
9.05194e-10
1.67799e-08
8.35824e-10
1.60078e-08
7.7207e-10
1.52929e-08
7.1496e-10
1.4631e-08
6.61806e-10
1.40148e-08
6.16283e-10
1.3443e-08
5.71781e-10
1.29051e-08
5.37927e-10
1.24051e-08
4.99948e-10
1.19272e-08
4.77928e-10
1.14824e-08
4.44786e-10
1.10474e-08
4.34976e-10
1.06423e-08
4.0513e-10
1.02341e-08
4.08208e-10
9.8547e-09
3.79381e-10
9.45732e-09
3.97384e-10
9.09223e-09
3.65089e-10
8.69244e-09
3.99791e-10
8.32566e-09
3.66774e-10
7.91859e-09
4.07071e-10
7.54227e-09
3.76318e-10
7.12229e-09
4.19981e-10
6.74039e-09
3.81907e-10
6.31153e-09
4.28854e-10
5.94447e-09
3.67062e-10
5.5286e-09
4.15873e-10
5.21871e-09
3.09892e-10
4.86357e-09
3.55137e-10
4.66363e-09
1.9994e-10
4.43485e-09
2.28782e-10
4.35728e-09
7.75619e-11
4.27027e-09
8.70135e-11
4.38517e-09
-1.14896e-10
4.5079e-09
-1.22738e-10
4.75091e-09
-2.43007e-10
4.99168e-09
-2.40772e-10
5.29153e-09
-2.99852e-10
5.57677e-09
-2.8523e-10
5.88618e-09
-3.09414e-10
6.17092e-09
-2.84743e-10
6.46031e-09
-2.89386e-10
6.71922e-09
-2.58916e-10
6.97402e-09
-2.54799e-10
7.19687e-09
-2.2285e-10
7.413e-09
-2.1613e-10
7.59902e-09
-1.86015e-10
7.77852e-09
-1.79505e-10
7.93204e-09
-1.53517e-10
8.0802e-09
-1.48158e-10
8.20845e-09
-1.28252e-10
8.33243e-09
-1.23977e-10
8.44509e-09
-1.12668e-10
8.5617e-09
-1.16607e-10
8.67286e-09
-1.11158e-10
8.86138e-09
-1.8852e-10
9.05604e-09
-1.9466e-10
1.17982e-08
-2.74213e-09
-2.73377e-09
1.73831e-05
1.97408e-06
1.64459e-05
1.8759e-06
1.55555e-05
1.78218e-06
1.47099e-05
1.69271e-06
1.39068e-05
1.60735e-06
1.31445e-05
1.52591e-06
1.2421e-05
1.44824e-06
1.17344e-05
1.37418e-06
1.10831e-05
1.30359e-06
1.04655e-05
1.23632e-06
9.87984e-06
1.17224e-06
9.3247e-06
1.1112e-06
8.79859e-06
1.05308e-06
8.30012e-06
9.97745e-07
7.82797e-06
9.45088e-07
7.38084e-06
8.94987e-07
6.95752e-06
8.4733e-07
6.55685e-06
8.02011e-07
6.17769e-06
7.58925e-07
5.819e-06
7.17973e-07
5.47975e-06
6.7906e-07
5.15897e-06
6.42093e-07
4.85573e-06
6.06985e-07
4.56914e-06
5.73649e-07
4.29836e-06
5.42006e-07
4.04259e-06
5.11977e-07
3.80104e-06
4.83486e-07
3.573e-06
4.56463e-07
3.35776e-06
4.30837e-07
3.15466e-06
4.06544e-07
2.96306e-06
3.83519e-07
2.78236e-06
3.61703e-07
2.61198e-06
3.41036e-07
2.45138e-06
3.21465e-07
2.30004e-06
3.02934e-07
2.15746e-06
2.85395e-07
2.02318e-06
2.68798e-07
1.89674e-06
2.53096e-07
1.77771e-06
2.38246e-07
1.66571e-06
2.24204e-07
1.56033e-06
2.10931e-07
1.46122e-06
1.98388e-07
1.36803e-06
1.86537e-07
1.28043e-06
1.75344e-07
1.19811e-06
1.64776e-07
1.12078e-06
1.54799e-07
1.04815e-06
1.45383e-07
9.79955e-07
1.365e-07
9.15948e-07
1.28122e-07
8.55888e-07
1.20222e-07
7.99549e-07
1.12774e-07
7.46716e-07
1.05756e-07
6.97186e-07
9.91442e-08
6.50767e-07
9.29168e-08
6.07277e-07
8.70533e-08
5.66545e-07
8.15341e-08
5.28407e-07
7.63405e-08
4.9271e-07
7.14547e-08
4.59308e-07
6.686e-08
4.28065e-07
6.25403e-08
3.9885e-07
5.84803e-08
3.7154e-07
5.46657e-08
3.46021e-07
5.10828e-08
3.22182e-07
4.77185e-08
2.99921e-07
4.45605e-08
2.7914e-07
4.15971e-08
2.59748e-07
3.88173e-08
2.41658e-07
3.62105e-08
2.24789e-07
3.37668e-08
2.09065e-07
3.14766e-08
1.94412e-07
2.93312e-08
1.80762e-07
2.7322e-08
1.68053e-07
2.54411e-08
1.56223e-07
2.36808e-08
1.45215e-07
2.20341e-08
1.34977e-07
2.0494e-08
1.25458e-07
1.90544e-08
1.16611e-07
1.7709e-08
1.08392e-07
1.64522e-08
1.0076e-07
1.52786e-08
9.36743e-08
1.41831e-08
8.70996e-08
1.31609e-08
8.10012e-08
1.22075e-08
7.53468e-08
1.13186e-08
7.01063e-08
1.04901e-08
6.52514e-08
9.71838e-09
6.07554e-08
8.99972e-09
5.65937e-08
8.3308e-09
5.27428e-08
7.70845e-09
4.91811e-08
7.12971e-09
4.58881e-08
6.59174e-09
4.28448e-08
6.09195e-09
4.00334e-08
5.62783e-09
3.74371e-08
5.1971e-09
3.50405e-08
4.79754e-09
3.28288e-08
4.42714e-09
3.07887e-08
4.08395e-09
2.89072e-08
3.76622e-09
2.71726e-08
3.47226e-09
2.55738e-08
3.20049e-09
2.41003e-08
2.94947e-09
2.27426e-08
2.71782e-09
2.14916e-08
2.50427e-09
2.03387e-08
2.30771e-09
1.92762e-08
2.12688e-09
1.82965e-08
1.96108e-09
1.73929e-08
1.80883e-09
1.65585e-08
1.67021e-09
1.57877e-08
1.54284e-09
1.5074e-08
1.42869e-09
1.44132e-08
1.32257e-09
1.37981e-08
1.23148e-09
1.3227e-08
1.14287e-09
1.26901e-08
1.07475e-09
1.21906e-08
9.99441e-10
1.17138e-08
9.54817e-10
1.12692e-08
8.89294e-10
1.08352e-08
8.68987e-10
1.04302e-08
8.10131e-10
1.00229e-08
8.15514e-10
9.64354e-09
7.58765e-10
9.24703e-09
7.93902e-10
8.8818e-09
7.30312e-10
8.48286e-09
7.98731e-10
8.11586e-09
7.33779e-10
7.70962e-09
8.13306e-10
7.33301e-09
7.52935e-10
6.91387e-09
8.3912e-10
6.53162e-09
7.64156e-10
6.10365e-09
8.56824e-10
5.73623e-09
7.34474e-10
5.32133e-09
8.30781e-10
5.01112e-09
6.201e-10
4.65704e-09
7.09219e-10
4.45685e-09
4.0013e-10
4.22911e-09
4.56517e-10
4.15126e-09
1.55413e-10
4.06535e-09
1.72924e-10
4.18006e-09
-2.29605e-10
4.30368e-09
-2.46359e-10
4.54629e-09
-4.85617e-10
4.7877e-09
-4.82177e-10
5.08702e-09
-5.99178e-10
5.37271e-09
-5.70918e-10
5.68155e-09
-6.18251e-10
5.96663e-09
-5.69826e-10
6.25544e-09
-5.78193e-10
6.51462e-09
-5.181e-10
6.76887e-09
-5.09052e-10
6.99195e-09
-4.45925e-10
7.20759e-09
-4.31767e-10
7.39379e-09
-3.72225e-10
7.57287e-09
-3.58585e-10
7.72656e-09
-3.07198e-10
7.87437e-09
-2.95976e-10
8.00271e-09
-2.56586e-10
8.12661e-09
-2.47881e-10
8.23909e-09
-2.25145e-10
8.35585e-09
-2.33363e-10
8.4669e-09
-2.2221e-10
8.65551e-09
-3.77131e-10
8.85419e-09
-3.93342e-10
1.15764e-08
-5.46436e-09
-5.4435e-09
1.73675e-05
2.95947e-06
1.64311e-05
2.81229e-06
1.55415e-05
2.67178e-06
1.46965e-05
2.53766e-06
1.38942e-05
2.40968e-06
1.31325e-05
2.28758e-06
1.24096e-05
2.17115e-06
1.17237e-05
2.06012e-06
1.1073e-05
1.9543e-06
1.04558e-05
1.85345e-06
9.8707e-06
1.75737e-06
9.31604e-06
1.66586e-06
8.79039e-06
1.57873e-06
8.29236e-06
1.49578e-06
7.82061e-06
1.41683e-06
7.37388e-06
1.34172e-06
6.95093e-06
1.27028e-06
6.5506e-06
1.20234e-06
6.17179e-06
1.13774e-06
5.81341e-06
1.07635e-06
5.47446e-06
1.01801e-06
5.15396e-06
9.62593e-07
4.85098e-06
9.0996e-07
4.56465e-06
8.59985e-07
4.29411e-06
8.12547e-07
4.03856e-06
7.67528e-07
3.79723e-06
7.24816e-07
3.56939e-06
6.84303e-07
3.35434e-06
6.45887e-07
3.15141e-06
6.09467e-07
2.95998e-06
5.74949e-07
2.77944e-06
5.42243e-07
2.60922e-06
5.11261e-07
2.44876e-06
4.8192e-07
2.29756e-06
4.5414e-07
2.15511e-06
4.27846e-07
2.02094e-06
4.02964e-07
1.89461e-06
3.79425e-07
1.7757e-06
3.57162e-07
1.66379e-06
3.36111e-07
1.55851e-06
3.16213e-07
1.45948e-06
2.97409e-07
1.36638e-06
2.79643e-07
1.27886e-06
2.62864e-07
1.19661e-06
2.4702e-07
1.11935e-06
2.32063e-07
1.04679e-06
2.17948e-07
9.78655e-07
2.04631e-07
9.14706e-07
1.92071e-07
8.54701e-07
1.80227e-07
7.98412e-07
1.69063e-07
7.45627e-07
1.58541e-07
6.96142e-07
1.48629e-07
6.49766e-07
1.39293e-07
6.06316e-07
1.30503e-07
5.65621e-07
1.22229e-07
5.27518e-07
1.14443e-07
4.91854e-07
1.07119e-07
4.58483e-07
1.00231e-07
4.27269e-07
9.37549e-08
3.9808e-07
8.76686e-08
3.70796e-07
8.195e-08
3.453e-07
7.65787e-08
3.21483e-07
7.15352e-08
2.99243e-07
6.6801e-08
2.78482e-07
6.23586e-08
2.59108e-07
5.81913e-08
2.41035e-07
5.42833e-08
2.24182e-07
5.06199e-08
2.08472e-07
4.71867e-08
1.93832e-07
4.39705e-08
1.80196e-07
4.09584e-08
1.67498e-07
3.81387e-08
1.55679e-07
3.54998e-08
1.44682e-07
3.30312e-08
1.34454e-07
3.07225e-08
1.24944e-07
2.85643e-08
1.16105e-07
2.65474e-08
1.07894e-07
2.46634e-08
1.00269e-07
2.2904e-08
9.31903e-08
2.12617e-08
8.66219e-08
1.97294e-08
8.05293e-08
1.83001e-08
7.48803e-08
1.69675e-08
6.96449e-08
1.57256e-08
6.47946e-08
1.45687e-08
6.0303e-08
1.34913e-08
5.61453e-08
1.24885e-08
5.22982e-08
1.15556e-08
4.87399e-08
1.0688e-08
4.54501e-08
9.88153e-09
4.24097e-08
9.1323e-09
3.9601e-08
8.43653e-09
3.70073e-08
7.79084e-09
3.4613e-08
7.19185e-09
3.24035e-08
6.63659e-09
3.03654e-08
6.12214e-09
2.84857e-08
5.64583e-09
2.67528e-08
5.20516e-09
2.51556e-08
4.79776e-09
2.36836e-08
4.42146e-09
2.23272e-08
4.07421e-09
2.10774e-08
3.75408e-09
1.99257e-08
3.45943e-09
1.88642e-08
3.18835e-09
1.78855e-08
2.93981e-09
1.69827e-08
2.71159e-09
1.61491e-08
2.50378e-09
1.53791e-08
2.31289e-09
1.4666e-08
2.14174e-09
1.40059e-08
1.98273e-09
1.33913e-08
1.84609e-09
1.28206e-08
1.71349e-09
1.22843e-08
1.61106e-09
1.17852e-08
1.49858e-09
1.13088e-08
1.43121e-09
1.08645e-08
1.33359e-09
1.0431e-08
1.30251e-09
1.00261e-08
1.21505e-09
9.61927e-09
1.22231e-09
9.23982e-09
1.13821e-09
8.84387e-09
1.18985e-09
8.47842e-09
1.09577e-09
8.08013e-09
1.19702e-09
7.71275e-09
1.10116e-09
7.30725e-09
1.2188e-09
6.93014e-09
1.13005e-09
6.51183e-09
1.25743e-09
6.12898e-09
1.147e-09
5.70197e-09
1.28384e-09
5.33389e-09
1.10255e-09
4.92011e-09
1.24456e-09
4.60921e-09
9.31003e-10
4.25643e-09
1.062e-09
4.05556e-09
6.01001e-10
3.8292e-09
6.82878e-10
3.75062e-09
2.33993e-10
3.66617e-09
2.57373e-10
3.78029e-09
-3.43724e-10
3.90514e-09
-3.71211e-10
4.14704e-09
-7.27512e-10
4.38935e-09
-7.24493e-10
4.68793e-09
-8.97759e-10
4.97427e-09
-8.57254e-10
5.2824e-09
-9.26383e-10
5.56793e-09
-8.55356e-10
5.85611e-09
-8.66372e-10
6.1156e-09
-7.77583e-10
6.36932e-09
-7.62777e-10
6.59259e-09
-6.6919e-10
6.80781e-09
-6.46986e-10
6.99412e-09
-5.58542e-10
7.1729e-09
-5.37358e-10
7.32662e-09
-4.60918e-10
7.47424e-09
-4.436e-10
7.60254e-09
-3.84885e-10
7.72637e-09
-3.71717e-10
7.83878e-09
-3.3755e-10
7.95554e-09
-3.50128e-10
8.06664e-09
-3.33304e-10
8.25504e-09
-5.65533e-10
8.45709e-09
-5.95388e-10
1.11303e-08
-8.13757e-09
-8.10213e-09
1.73575e-05
3.94435e-06
1.64217e-05
3.74819e-06
1.55325e-05
3.56091e-06
1.4688e-05
3.38215e-06
1.38861e-05
3.21158e-06
1.31248e-05
3.04886e-06
1.24023e-05
2.89367e-06
1.17167e-05
2.7457e-06
1.10664e-05
2.60466e-06
1.04496e-05
2.47024e-06
9.86476e-06
2.34219e-06
9.31039e-06
2.22023e-06
8.78502e-06
2.1041e-06
8.28726e-06
1.99354e-06
7.81576e-06
1.88833e-06
7.36926e-06
1.78822e-06
6.94654e-06
1.693e-06
6.54643e-06
1.60245e-06
6.16782e-06
1.51636e-06
5.80963e-06
1.43453e-06
5.47086e-06
1.35678e-06
5.15053e-06
1.28292e-06
4.84772e-06
1.21277e-06
4.56154e-06
1.14617e-06
4.29115e-06
1.08294e-06
4.03573e-06
1.02294e-06
3.79454e-06
9.66014e-07
3.56682e-06
9.1202e-07
3.35189e-06
8.60819e-07
3.14907e-06
8.12279e-07
2.95775e-06
7.66275e-07
2.77731e-06
7.22684e-07
2.60718e-06
6.81392e-07
2.44681e-06
6.42287e-07
2.29569e-06
6.05263e-07
2.15331e-06
5.70218e-07
2.01922e-06
5.37056e-07
1.89296e-06
5.05684e-07
1.77411e-06
4.76012e-07
1.66227e-06
4.47957e-07
1.55704e-06
4.21437e-07
1.45808e-06
3.96375e-07
1.36502e-06
3.72698e-07
1.27755e-06
3.50334e-07
1.19535e-06
3.29218e-07
1.11813e-06
3.09284e-07
1.04561e-06
2.90472e-07
9.77516e-07
2.72723e-07
9.13603e-07
2.55983e-07
8.53632e-07
2.40198e-07
7.97376e-07
2.25319e-07
7.44621e-07
2.11296e-07
6.95164e-07
1.98086e-07
6.48814e-07
1.85643e-07
6.05389e-07
1.73928e-07
5.64717e-07
1.62901e-07
5.26636e-07
1.52524e-07
4.90993e-07
1.42762e-07
4.57641e-07
1.33582e-07
4.26445e-07
1.24951e-07
3.97273e-07
1.1684e-07
3.70005e-07
1.09218e-07
3.44524e-07
1.0206e-07
3.20721e-07
9.5338e-08
2.98494e-07
8.90285e-08
2.77745e-07
8.31078e-08
2.58382e-07
7.75538e-08
2.4032e-07
7.23454e-08
2.23477e-07
6.7463e-08
2.07776e-07
6.28874e-08
1.93145e-07
5.8601e-08
1.79517e-07
5.45867e-08
1.66827e-07
5.08287e-08
1.55015e-07
4.73118e-08
1.44025e-07
4.40217e-08
1.33802e-07
4.09448e-08
1.24298e-07
3.80685e-08
1.15465e-07
3.53804e-08
1.07259e-07
3.28695e-08
9.96384e-08
3.05247e-08
9.25641e-08
2.83361e-08
8.59996e-08
2.62938e-08
7.99108e-08
2.43889e-08
7.42653e-08
2.2613e-08
6.90331e-08
2.09578e-08
6.41859e-08
1.94159e-08
5.96971e-08
1.79801e-08
5.55419e-08
1.66437e-08
5.16972e-08
1.54003e-08
4.81411e-08
1.4244e-08
4.48534e-08
1.31692e-08
4.1815e-08
1.21707e-08
3.90081e-08
1.12435e-08
3.6416e-08
1.03829e-08
3.40232e-08
9.58465e-09
3.18151e-08
8.84465e-09
2.97783e-08
8.15902e-09
2.78998e-08
7.52423e-09
2.61681e-08
6.93695e-09
2.45718e-08
6.39401e-09
2.31008e-08
5.8925e-09
2.17452e-08
5.42973e-09
2.04962e-08
5.00308e-09
1.93453e-08
4.6104e-09
1.82845e-08
4.24915e-09
1.73064e-08
3.91792e-09
1.64042e-08
3.61379e-09
1.55711e-08
3.33683e-09
1.48015e-08
3.08245e-09
1.4089e-08
2.85433e-09
1.34292e-08
2.64251e-09
1.2815e-08
2.4603e-09
1.22446e-08
2.28382e-09
1.17087e-08
2.14698e-09
1.12097e-08
1.99757e-09
1.07337e-08
1.90721e-09
1.02895e-08
1.77785e-09
9.85639e-09
1.73559e-09
9.45136e-09
1.62008e-09
9.04508e-09
1.6286e-09
8.66535e-09
1.51794e-09
8.27004e-09
1.58516e-09
7.90408e-09
1.46173e-09
7.5066e-09
1.5945e-09
7.13851e-09
1.46925e-09
6.73396e-09
1.62335e-09
6.35598e-09
1.50803e-09
5.93877e-09
1.67464e-09
5.55492e-09
1.53085e-09
5.12919e-09
1.70956e-09
4.75998e-09
1.47177e-09
4.34772e-09
1.65682e-09
4.03559e-09
1.24313e-09
3.68458e-09
1.41301e-09
3.48246e-09
8.03125e-10
3.258e-09
9.0734e-10
3.1781e-09
3.13888e-10
3.09566e-09
3.39817e-10
3.20864e-09
-4.567e-10
3.33524e-09
-4.97817e-10
3.57595e-09
-9.68217e-10
3.81964e-09
-9.68181e-10
4.11708e-09
-1.19521e-09
4.40445e-09
-1.14462e-09
4.71157e-09
-1.23351e-09
4.99785e-09
-1.14163e-09
5.28516e-09
-1.15369e-09
5.54518e-09
-1.0376e-09
5.7982e-09
-1.0158e-09
6.02184e-09
-8.92825e-10
6.23651e-09
-8.61658e-10
6.42306e-09
-7.45095e-10
6.60144e-09
-7.15737e-10
6.75528e-09
-6.14757e-10
6.90267e-09
-5.90986e-10
7.03096e-09
-5.13182e-10
7.15474e-09
-4.95491e-10
7.26706e-09
-4.49872e-10
7.38386e-09
-4.66927e-10
7.49496e-09
-4.44407e-10
7.68305e-09
-7.53619e-10
7.88756e-09
-7.99896e-10
1.04754e-08
-1.07254e-08
-1.06745e-08
1.73502e-05
4.92887e-06
1.64147e-05
4.68374e-06
1.55259e-05
4.44972e-06
1.46817e-05
4.22634e-06
1.38801e-05
4.01319e-06
1.31191e-05
3.80985e-06
1.23968e-05
3.61593e-06
1.17115e-05
3.43102e-06
1.10614e-05
3.25477e-06
1.04448e-05
3.08681e-06
9.86023e-06
2.9268e-06
9.30607e-06
2.77439e-06
8.78089e-06
2.62927e-06
8.28331e-06
2.49112e-06
7.812e-06
2.35964e-06
7.36567e-06
2.23455e-06
6.94311e-06
2.11556e-06
6.54315e-06
2.00241e-06
6.16467e-06
1.89483e-06
5.80662e-06
1.79258e-06
5.46798e-06
1.69542e-06
5.14778e-06
1.60313e-06
4.84508e-06
1.51547e-06
4.55901e-06
1.43224e-06
4.28872e-06
1.35323e-06
4.0334e-06
1.27825e-06
3.7923e-06
1.20712e-06
3.56467e-06
1.13965e-06
3.34982e-06
1.07567e-06
3.14709e-06
1.01501e-06
2.95584e-06
9.57526e-07
2.77546e-06
9.03056e-07
2.6054e-06
8.51457e-07
2.4451e-06
8.02591e-07
2.29403e-06
7.56326e-07
2.15172e-06
7.12535e-07
2.01768e-06
6.71096e-07
1.89147e-06
6.31893e-07
1.77266e-06
5.94816e-07
1.66086e-06
5.59758e-07
1.55568e-06
5.26619e-07
1.45675e-06
4.95302e-07
1.36374e-06
4.65715e-07
1.2763e-06
4.37769e-07
1.19414e-06
4.11382e-07
1.11695e-06
3.86473e-07
1.04445e-06
3.62966e-07
9.76389e-07
3.40788e-07
9.12503e-07
3.1987e-07
8.52556e-07
3.00145e-07
7.96323e-07
2.81552e-07
7.4359e-07
2.6403e-07
6.94153e-07
2.47522e-07
6.47823e-07
2.31974e-07
6.04416e-07
2.17335e-07
5.63761e-07
2.03556e-07
5.25696e-07
1.90589e-07
4.90067e-07
1.78391e-07
4.5673e-07
1.6692e-07
4.25547e-07
1.56135e-07
3.96388e-07
1.45999e-07
3.69131e-07
1.36475e-07
3.43661e-07
1.2753e-07
3.19868e-07
1.19131e-07
2.9765e-07
1.11246e-07
2.7691e-07
1.03848e-07
2.57556e-07
9.69079e-08
2.39502e-07
9.03997e-08
2.22666e-07
8.42988e-08
2.06972e-07
7.85812e-08
1.92348e-07
7.32251e-08
1.78726e-07
6.82089e-08
1.66041e-07
6.35131e-08
1.54235e-07
5.91184e-08
1.43249e-07
5.50073e-08
1.33031e-07
5.11625e-08
1.23531e-07
4.75684e-08
1.14702e-07
4.42095e-08
1.065e-07
4.1072e-08
9.88827e-08
3.8142e-08
9.18116e-08
3.54071e-08
8.52502e-08
3.28552e-08
7.91641e-08
3.0475e-08
7.35213e-08
2.82558e-08
6.82915e-08
2.61876e-08
6.34465e-08
2.42609e-08
5.89598e-08
2.24668e-08
5.48066e-08
2.07969e-08
5.09636e-08
1.92432e-08
4.74093e-08
1.77984e-08
4.41231e-08
1.64554e-08
4.10861e-08
1.52077e-08
3.82805e-08
1.40491e-08
3.56897e-08
1.29738e-08
3.3298e-08
1.19763e-08
3.1091e-08
1.10516e-08
2.90551e-08
1.01949e-08
2.71776e-08
9.40173e-09
2.54467e-08
8.6679e-09
2.38512e-08
7.98948e-09
2.23809e-08
7.36284e-09
2.1026e-08
6.78459e-09
1.97776e-08
6.25148e-09
1.86272e-08
5.76082e-09
1.75669e-08
5.30944e-09
1.65893e-08
4.89555e-09
1.56875e-08
4.51555e-09
1.48549e-08
4.16947e-09
1.40857e-08
3.85167e-09
1.33734e-08
3.56657e-09
1.27139e-08
3.30202e-09
1.21e-08
3.07418e-09
1.15299e-08
2.85397e-09
1.09943e-08
2.68257e-09
1.04954e-08
2.49649e-09
1.00197e-08
2.38283e-09
9.57539e-09
2.2222e-09
9.14277e-09
2.16822e-09
8.73747e-09
2.02537e-09
8.33177e-09
2.0343e-09
7.95157e-09
1.89814e-09
7.55702e-09
1.97972e-09
7.19032e-09
1.82842e-09
6.79383e-09
1.99099e-09
6.42475e-09
1.83833e-09
6.02139e-09
2.02671e-09
5.64221e-09
1.88721e-09
5.22638e-09
2.09046e-09
4.84113e-09
1.9161e-09
4.41704e-09
2.13365e-09
4.04623e-09
1.84257e-09
3.63592e-09
2.06713e-09
3.32204e-09
1.55701e-09
2.97331e-09
1.76174e-09
2.76932e-09
1.00711e-09
2.54735e-09
1.12931e-09
2.46549e-09
3.95748e-10
2.38568e-09
4.19624e-10
2.4969e-09
-5.67918e-10
2.62586e-09
-6.2678e-10
2.86486e-09
-1.20722e-09
3.11042e-09
-1.21374e-09
3.40633e-09
-1.49112e-09
3.69511e-09
-1.4334e-09
4.00091e-09
-1.5393e-09
4.28825e-09
-1.42897e-09
4.57446e-09
-1.4399e-09
4.83525e-09
-1.29839e-09
5.08738e-09
-1.26793e-09
5.31156e-09
-1.11701e-09
5.52555e-09
-1.07565e-09
5.71247e-09
-9.3201e-10
5.89036e-09
-8.93635e-10
6.0444e-09
-7.68798e-10
6.1915e-09
-7.38085e-10
6.31983e-09
-6.41511e-10
6.44354e-09
-6.19203e-10
6.55578e-09
-5.62105e-10
6.67264e-09
-5.8379e-10
6.78373e-09
-5.55494e-10
6.97139e-09
-9.41282e-10
7.17748e-09
-1.00599e-09
9.63404e-09
-1.3182e-08
-1.3115e-08
1.73442e-05
5.9131e-06
1.64089e-05
5.61902e-06
1.55203e-05
5.33826e-06
1.46764e-05
5.07028e-06
1.3875e-05
4.81457e-06
1.31142e-05
4.57062e-06
1.23922e-05
4.33797e-06
1.17071e-05
4.11614e-06
1.10572e-05
3.9047e-06
1.04408e-05
3.7032e-06
9.85633e-06
3.51123e-06
9.30234e-06
3.32839e-06
8.77732e-06
3.15429e-06
8.27989e-06
2.98855e-06
7.80871e-06
2.83082e-06
7.36252e-06
2.68075e-06
6.94008e-06
2.538e-06
6.54024e-06
2.40225e-06
6.16189e-06
2.27319e-06
5.80395e-06
2.15052e-06
5.46541e-06
2.03396e-06
5.1453e-06
1.92323e-06
4.8427e-06
1.81807e-06
4.55671e-06
1.71822e-06
4.28651e-06
1.62344e-06
4.03127e-06
1.53349e-06
3.79024e-06
1.44815e-06
3.56268e-06
1.36721e-06
3.3479e-06
1.29045e-06
3.14523e-06
1.21768e-06
2.95404e-06
1.14872e-06
2.77372e-06
1.08337e-06
2.60371e-06
1.02147e-06
2.44346e-06
9.62845e-07
2.29245e-06
9.07342e-07
2.15017e-06
8.54806e-07
2.01618e-06
8.05092e-07
1.89001e-06
7.58061e-07
1.77124e-06
7.13581e-07
1.65948e-06
6.71522e-07
1.55433e-06
6.31767e-07
1.45544e-06
5.94196e-07
1.36245e-06
5.58701e-07
1.27505e-06
5.25176e-07
1.19291e-06
4.9352e-07
1.11574e-06
4.63637e-07
1.04327e-06
4.35436e-07
9.75232e-07
4.08829e-07
9.11367e-07
3.83735e-07
8.51441e-07
3.60072e-07
7.95227e-07
3.37766e-07
7.42511e-07
3.16745e-07
6.93092e-07
2.96941e-07
6.46777e-07
2.78289e-07
6.03385e-07
2.60727e-07
5.62744e-07
2.44196e-07
5.24692e-07
2.28641e-07
4.89076e-07
2.14007e-07
4.5575e-07
2.00245e-07
4.24578e-07
1.87307e-07
3.95429e-07
1.75147e-07
3.68182e-07
1.63722e-07
3.42721e-07
1.52991e-07
3.18937e-07
1.42915e-07
2.96727e-07
1.33456e-07
2.75994e-07
1.24581e-07
2.56647e-07
1.16255e-07
2.38599e-07
1.08447e-07
2.2177e-07
1.01128e-07
2.06082e-07
9.42693e-08
1.91463e-07
8.78438e-08
1.77846e-07
8.18262e-08
1.65166e-07
7.61928e-08
1.53364e-07
7.09207e-08
1.42382e-07
6.59888e-08
1.32168e-07
6.13764e-08
1.22672e-07
5.70647e-08
1.13846e-07
5.30352e-08
1.05647e-07
4.92713e-08
9.80324e-08
4.57564e-08
9.0964e-08
4.24755e-08
8.44052e-08
3.94141e-08
7.83215e-08
3.65587e-08
7.26808e-08
3.38965e-08
6.7453e-08
3.14154e-08
6.26099e-08
2.91041e-08
5.8125e-08
2.69518e-08
5.39734e-08
2.49484e-08
5.0132e-08
2.30846e-08
4.65791e-08
2.13514e-08
4.32942e-08
1.97403e-08
4.02585e-08
1.82435e-08
3.7454e-08
1.68535e-08
3.48642e-08
1.55636e-08
3.24735e-08
1.4367e-08
3.02674e-08
1.32577e-08
2.82324e-08
1.223e-08
2.63556e-08
1.12785e-08
2.46254e-08
1.03981e-08
2.30306e-08
9.58429e-09
2.15609e-08
8.83256e-09
2.02066e-08
8.13888e-09
1.89587e-08
7.49937e-09
1.78087e-08
6.91076e-09
1.67489e-08
6.36929e-09
1.57717e-08
5.87278e-09
1.48703e-08
5.41695e-09
1.4038e-08
5.00177e-09
1.32691e-08
4.62059e-09
1.25571e-08
4.27852e-09
1.18978e-08
3.96131e-09
1.12842e-08
3.68778e-09
1.07142e-08
3.42399e-09
1.01789e-08
3.21784e-09
9.68e-09
2.99542e-09
9.20477e-09
2.85806e-09
8.76024e-09
2.66672e-09
8.32811e-09
2.60035e-09
7.92246e-09
2.43103e-09
7.5174e-09
2.43937e-09
7.1366e-09
2.27893e-09
6.74291e-09
2.3734e-09
6.3753e-09
2.19603e-09
5.97996e-09
2.38633e-09
5.60964e-09
2.20865e-09
5.2077e-09
2.42866e-09
4.82701e-09
2.2679e-09
4.41287e-09
2.50461e-09
4.02584e-09
2.30313e-09
3.60376e-09
2.55574e-09
3.23089e-09
2.21544e-09
2.823e-09
2.47503e-09
2.50677e-09
1.87324e-09
2.16092e-09
2.10759e-09
1.95436e-09
1.21368e-09
1.73562e-09
1.34805e-09
1.651e-09
4.80371e-10
1.57463e-09
4.95991e-10
1.68331e-09
-6.76602e-10
1.81536e-09
-7.58829e-10
2.05203e-09
-1.44389e-09
2.30004e-09
-1.46175e-09
2.59395e-09
-1.78503e-09
2.88458e-09
-1.72404e-09
3.18872e-09
-1.84344e-09
3.47743e-09
-1.71769e-09
3.76229e-09
-1.72476e-09
4.02409e-09
-1.56019e-09
4.27515e-09
-1.51899e-09
4.50006e-09
-1.34191e-09
4.71324e-09
-1.28883e-09
4.90064e-09
-1.11941e-09
5.07796e-09
-1.07096e-09
5.23229e-09
-9.23121e-10
5.37905e-09
-8.8485e-10
5.50745e-09
-7.69909e-10
5.6311e-09
-7.42855e-10
5.74324e-09
-6.7424e-10
5.86019e-09
-7.00746e-10
5.97123e-09
-6.66533e-10
6.15835e-09
-1.1284e-09
6.36508e-09
-1.21272e-09
8.63732e-09
-1.54542e-08
-1.53706e-08
1.73386e-05
6.89708e-06
1.64035e-05
6.55406e-06
1.55152e-05
6.22658e-06
1.46715e-05
5.914e-06
1.38703e-05
5.61574e-06
1.31098e-05
5.3312e-06
1.23879e-05
5.05983e-06
1.1703e-05
4.80109e-06
1.10532e-05
4.55445e-06
1.0437e-05
4.31942e-06
9.8527e-06
4.09551e-06
9.29885e-06
3.88224e-06
8.77397e-06
3.67917e-06
8.27667e-06
3.48585e-06
7.80562e-06
3.30187e-06
7.35955e-06
3.12682e-06
6.93723e-06
2.96032e-06
6.53749e-06
2.80198e-06
6.15924e-06
2.65144e-06
5.8014e-06
2.50837e-06
5.46295e-06
2.37241e-06
5.14293e-06
2.24325e-06
4.84041e-06
2.12059e-06
4.5545e-06
2.00413e-06
4.28437e-06
1.89357e-06
4.02921e-06
1.78865e-06
3.78824e-06
1.68911e-06
3.56075e-06
1.5947e-06
3.34603e-06
1.50517e-06
3.14341e-06
1.4203e-06
2.95228e-06
1.33985e-06
2.77201e-06
1.26363e-06
2.60205e-06
1.19143e-06
2.44184e-06
1.12305e-06
2.29087e-06
1.05831e-06
2.14864e-06
9.97035e-07
2.01468e-06
9.3905e-07
1.88855e-06
8.84193e-07
1.76982e-06
8.32311e-07
1.65809e-06
7.83254e-07
1.55297e-06
7.36883e-07
1.45411e-06
6.93061e-07
1.36115e-06
6.5166e-07
1.27377e-06
6.12556e-07
1.19166e-06
5.75633e-07
1.11452e-06
5.40778e-07
1.04207e-06
5.07884e-07
9.74047e-07
4.76851e-07
9.10201e-07
4.4758e-07
8.50293e-07
4.1998e-07
7.94096e-07
3.93963e-07
7.41397e-07
3.69444e-07
6.91993e-07
3.46345e-07
6.45692e-07
3.2459e-07
6.02314e-07
3.04106e-07
5.61686e-07
2.84824e-07
5.23646e-07
2.6668e-07
4.88041e-07
2.49612e-07
4.54726e-07
2.33561e-07
4.23564e-07
2.1847e-07
3.94424e-07
2.04287e-07
3.67186e-07
1.90961e-07
3.41733e-07
1.78444e-07
3.17957e-07
1.66691e-07
2.95754e-07
1.55659e-07
2.75028e-07
1.45307e-07
2.55687e-07
1.35596e-07
2.37645e-07
1.26489e-07
2.20821e-07
1.17952e-07
2.05138e-07
1.09952e-07
1.90525e-07
1.02458e-07
1.76912e-07
9.54388e-08
1.64237e-07
8.88682e-08
1.52438e-07
8.2719e-08
1.41461e-07
7.69665e-08
1.3125e-07
7.15868e-08
1.21757e-07
6.65577e-08
1.12935e-07
6.18579e-08
1.04738e-07
5.74678e-08
9.71264e-08
5.33681e-08
9.00605e-08
4.95414e-08
8.35039e-08
4.59706e-08
7.74224e-08
4.26402e-08
7.17837e-08
3.95351e-08
6.65579e-08
3.66413e-08
6.17165e-08
3.39454e-08
5.72332e-08
3.14351e-08
5.30832e-08
2.90985e-08
4.92432e-08
2.69246e-08
4.56915e-08
2.4903e-08
4.24079e-08
2.30239e-08
3.93733e-08
2.12781e-08
3.65699e-08
1.96569e-08
3.3981e-08
1.81524e-08
3.15913e-08
1.67567e-08
2.9386e-08
1.5463e-08
2.73517e-08
1.42643e-08
2.54757e-08
1.31545e-08
2.37462e-08
1.21277e-08
2.2152e-08
1.11785e-08
2.06828e-08
1.03017e-08
1.9329e-08
9.49265e-09
1.80816e-08
8.74677e-09
1.69321e-08
8.06026e-09
1.58727e-08
7.42872e-09
1.48958e-08
6.84963e-09
1.39948e-08
6.318e-09
1.31628e-08
5.83374e-09
1.23942e-08
5.38923e-09
1.16825e-08
4.99017e-09
1.10234e-08
4.62039e-09
1.04101e-08
4.30111e-09
9.84018e-09
3.99392e-09
9.30522e-09
3.75281e-09
8.80624e-09
3.4944e-09
8.33141e-09
3.33289e-09
7.88667e-09
3.11147e-09
7.45507e-09
3.03194e-09
7.04898e-09
2.83712e-09
6.64462e-09
2.84372e-09
6.26312e-09
2.66044e-09
5.87041e-09
2.76611e-09
5.50171e-09
2.56473e-09
5.1077e-09
2.78035e-09
4.73592e-09
2.58042e-09
4.33562e-09
2.82896e-09
3.95314e-09
2.65038e-09
3.54096e-09
2.91678e-09
3.1518e-09
2.69229e-09
2.73211e-09
2.97542e-09
2.35669e-09
2.59086e-09
1.95177e-09
2.87995e-09
1.6325e-09
2.19251e-09
1.29035e-09
2.44974e-09
1.08021e-09
1.42382e-09
8.65859e-10
1.5624e-09
7.77188e-10
5.69041e-10
7.05626e-10
5.67554e-10
8.10468e-10
-7.81444e-10
9.4676e-10
-8.95121e-10
1.18015e-09
-1.67728e-09
1.43139e-09
-1.71299e-09
1.72268e-09
-2.07632e-09
2.01569e-09
-2.01705e-09
2.31776e-09
-2.1455e-09
2.60821e-09
-2.00815e-09
2.89144e-09
-2.00798e-09
3.1545e-09
-1.82326e-09
3.4043e-09
-1.76878e-09
3.6301e-09
-1.56772e-09
3.84234e-09
-1.50106e-09
4.03035e-09
-1.30743e-09
4.20702e-09
-1.24763e-09
4.36171e-09
-1.07781e-09
4.50809e-09
-1.03123e-09
4.6366e-09
-8.98415e-10
4.76019e-09
-8.66445e-10
4.87222e-09
-7.86271e-10
4.9893e-09
-8.17823e-10
5.10026e-09
-7.77497e-10
5.28669e-09
-1.31483e-09
5.4931e-09
-1.41913e-09
7.52824e-09
-1.74894e-08
-1.73881e-08
1.73333e-05
7.88083e-06
1.63985e-05
7.48888e-06
1.55104e-05
7.11469e-06
1.46669e-05
6.75753e-06
1.38659e-05
6.41672e-06
1.31055e-05
6.09159e-06
1.23838e-05
5.78151e-06
1.1699e-05
5.48586e-06
1.10494e-05
5.20405e-06
1.04334e-05
4.93549e-06
9.84922e-06
4.67964e-06
9.29551e-06
4.43595e-06
8.77076e-06
4.20391e-06
8.27358e-06
3.98302e-06
7.80265e-06
3.7728e-06
7.35668e-06
3.57279e-06
6.93447e-06
3.38254e-06
6.53484e-06
3.20161e-06
6.15668e-06
3.0296e-06
5.79893e-06
2.86612e-06
5.46057e-06
2.71077e-06
5.14063e-06
2.56319e-06
4.83819e-06
2.42303e-06
4.55235e-06
2.28996e-06
4.28229e-06
2.16363e-06
4.02719e-06
2.04375e-06
3.78629e-06
1.93002e-06
3.55886e-06
1.82214e-06
3.34419e-06
1.71984e-06
3.14163e-06
1.62286e-06
2.95055e-06
1.53094e-06
2.77033e-06
1.44385e-06
2.60042e-06
1.36135e-06
2.44025e-06
1.28322e-06
2.28932e-06
1.20924e-06
2.14713e-06
1.13923e-06
2.01321e-06
1.07297e-06
1.88711e-06
1.01029e-06
1.76841e-06
9.51008e-07
1.65671e-06
8.94955e-07
1.55163e-06
8.41971e-07
1.45279e-06
7.91898e-07
1.35986e-06
7.44593e-07
1.2725e-06
6.99912e-07
1.19041e-06
6.57723e-07
1.11329e-06
6.17896e-07
1.04086e-06
5.80312e-07
9.72863e-07
5.44852e-07
9.09036e-07
5.11407e-07
8.49145e-07
4.79871e-07
7.92964e-07
4.50143e-07
7.4028e-07
4.22128e-07
6.90891e-07
3.95735e-07
6.44604e-07
3.70877e-07
6.01238e-07
3.47471e-07
5.60622e-07
3.2544e-07
5.22594e-07
3.04709e-07
4.87e-07
2.85206e-07
4.53695e-07
2.66866e-07
4.22542e-07
2.49623e-07
3.93411e-07
2.33417e-07
3.66181e-07
2.18191e-07
3.40736e-07
2.03889e-07
3.16967e-07
1.9046e-07
2.94772e-07
1.77855e-07
2.74052e-07
1.66026e-07
2.54717e-07
1.54931e-07
2.36681e-07
1.44525e-07
2.19863e-07
1.34771e-07
2.04185e-07
1.2563e-07
1.89576e-07
1.17067e-07
1.75967e-07
1.09047e-07
1.63296e-07