/*--------------------------------*- C++ -*----------------------------------*\
| =========                 |                                                 |
| \\      /  F ield         | OpenFOAM: The Open Source CFD Toolbox           |
|  \\    /   O peration     | Version:  v1912                                 |
|   \\  /    A nd           | Website:  www.openfoam.com                      |
|    \\/     M anipulation  |                                                 |
\*---------------------------------------------------------------------------*/
FoamFile
{
    version     2.0;
    format      ascii;
    class       volSymmTensorField;
    location    "90";
    object      R;
}
// * * * * * * * * * * * * * * * * * * * * * * * * * * * * * * * * * * * * * //

dimensions      [0 2 -2 0 0 0 0];


internalField   nonuniform List<symmTensor> 
14268
(
(1.71255e-12 6.46071e-16 0 1.7008e-12 0 1.70668e-12)
(1.71958e-12 5.33405e-16 0 1.70838e-12 0 1.71398e-12)
(1.72632e-12 4.25166e-16 0 1.71563e-12 0 1.72097e-12)
(1.73275e-12 3.21242e-16 0 1.72258e-12 0 1.72767e-12)
(1.73891e-12 2.21526e-16 0 1.72922e-12 0 1.73406e-12)
(1.74479e-12 1.25918e-16 0 1.73556e-12 0 1.74017e-12)
(1.7504e-12 3.42836e-17 0 1.74163e-12 0 1.74601e-12)
(1.75577e-12 -5.34628e-17 0 1.74742e-12 0 1.75159e-12)
(1.76088e-12 -1.3747e-16 0 1.75295e-12 0 1.75692e-12)
(1.76577e-12 -2.17818e-16 0 1.75823e-12 0 1.762e-12)
(1.77043e-12 -2.94661e-16 0 1.76327e-12 0 1.76685e-12)
(1.77487e-12 -3.68076e-16 0 1.76807e-12 0 1.77147e-12)
(1.7791e-12 -4.38218e-16 0 1.77265e-12 0 1.77588e-12)
(1.78314e-12 -5.05159e-16 0 1.77702e-12 0 1.78008e-12)
(1.78698e-12 -5.69058e-16 0 1.78118e-12 0 1.78408e-12)
(1.79065e-12 -6.29977e-16 0 1.78515e-12 0 1.7879e-12)
(1.79413e-12 -6.88078e-16 0 1.78893e-12 0 1.79153e-12)
(1.79745e-12 -7.43414e-16 0 1.79252e-12 0 1.79499e-12)
(1.80061e-12 -7.96144e-16 0 1.79594e-12 0 1.79828e-12)
(1.80361e-12 -8.46322e-16 0 1.7992e-12 0 1.80141e-12)
(1.80647e-12 -8.94095e-16 0 1.8023e-12 0 1.80438e-12)
(1.80918e-12 -9.39519e-16 0 1.80524e-12 0 1.80721e-12)
(1.81176e-12 -9.82727e-16 0 1.80804e-12 0 1.8099e-12)
(1.81421e-12 -1.02378e-15 0 1.8107e-12 0 1.81246e-12)
(1.81654e-12 -1.0628e-15 0 1.81322e-12 0 1.81488e-12)
(1.81875e-12 -1.09984e-15 0 1.81562e-12 0 1.81719e-12)
(1.82085e-12 -1.13502e-15 0 1.8179e-12 0 1.81938e-12)
(1.82284e-12 -1.1684e-15 0 1.82006e-12 0 1.82145e-12)
(1.82473e-12 -1.20006e-15 0 1.82211e-12 0 1.82342e-12)
(1.82652e-12 -1.23009e-15 0 1.82406e-12 0 1.82529e-12)
(1.82822e-12 -1.25856e-15 0 1.8259e-12 0 1.82706e-12)
(1.82983e-12 -1.28553e-15 0 1.82765e-12 0 1.82874e-12)
(1.83136e-12 -1.31109e-15 0 1.82931e-12 0 1.83034e-12)
(1.83281e-12 -1.33528e-15 0 1.83088e-12 0 1.83185e-12)
(1.83418e-12 -1.35819e-15 0 1.83237e-12 0 1.83327e-12)
(1.83547e-12 -1.37987e-15 0 1.83378e-12 0 1.83463e-12)
(1.8367e-12 -1.40037e-15 0 1.83511e-12 0 1.83591e-12)
(1.83786e-12 -1.41977e-15 0 1.83638e-12 0 1.83712e-12)
(1.83896e-12 -1.4381e-15 0 1.83757e-12 0 1.83827e-12)
(1.84e-12 -1.45543e-15 0 1.8387e-12 0 1.83935e-12)
(1.84098e-12 -1.47179e-15 0 1.83977e-12 0 1.84038e-12)
(1.84191e-12 -1.48725e-15 0 1.84078e-12 0 1.84135e-12)
(1.84279e-12 -1.50184e-15 0 1.84173e-12 0 1.84226e-12)
(1.84362e-12 -1.51562e-15 0 1.84263e-12 0 1.84313e-12)
(1.8444e-12 -1.52861e-15 0 1.84349e-12 0 1.84395e-12)
(1.84514e-12 -1.54087e-15 0 1.84429e-12 0 1.84472e-12)
(1.84584e-12 -1.55243e-15 0 1.84505e-12 0 1.84545e-12)
(1.8465e-12 -1.56332e-15 0 1.84577e-12 0 1.84613e-12)
(1.84712e-12 -1.57359e-15 0 1.84644e-12 0 1.84678e-12)
(1.84771e-12 -1.58326e-15 0 1.84708e-12 0 1.84739e-12)
(1.84826e-12 -1.59236e-15 0 1.84768e-12 0 1.84797e-12)
(1.84878e-12 -1.60094e-15 0 1.84825e-12 0 1.84851e-12)
(1.84927e-12 -1.609e-15 0 1.84878e-12 0 1.84903e-12)
(1.84973e-12 -1.61659e-15 0 1.84928e-12 0 1.84951e-12)
(1.85017e-12 -1.62373e-15 0 1.84976e-12 0 1.84996e-12)
(1.85058e-12 -1.63044e-15 0 1.8502e-12 0 1.85039e-12)
(1.85096e-12 -1.63675e-15 0 1.85062e-12 0 1.85079e-12)
(1.85133e-12 -1.64267e-15 0 1.85102e-12 0 1.85117e-12)
(1.85167e-12 -1.64824e-15 0 1.85139e-12 0 1.85153e-12)
(1.85199e-12 -1.65346e-15 0 1.85174e-12 0 1.85186e-12)
(1.85229e-12 -1.65837e-15 0 1.85206e-12 0 1.85218e-12)
(1.85257e-12 -1.66297e-15 0 1.85237e-12 0 1.85247e-12)
(1.85284e-12 -1.66729e-15 0 1.85266e-12 0 1.85275e-12)
(1.85309e-12 -1.67133e-15 0 1.85293e-12 0 1.85301e-12)
(1.85332e-12 -1.67513e-15 0 1.85319e-12 0 1.85326e-12)
(1.85354e-12 -1.67868e-15 0 1.85343e-12 0 1.85349e-12)
(1.85375e-12 -1.68201e-15 0 1.85365e-12 0 1.8537e-12)
(1.85394e-12 -1.68513e-15 0 1.85386e-12 0 1.85391e-12)
(1.85413e-12 -1.68805e-15 0 1.85406e-12 0 1.85409e-12)
(1.8543e-12 -1.69078e-15 0 1.85425e-12 0 1.85427e-12)
(1.85446e-12 -1.69334e-15 0 1.85442e-12 0 1.85444e-12)
(1.85461e-12 -1.69573e-15 0 1.85458e-12 0 1.85459e-12)
(1.85474e-12 -1.69796e-15 0 1.85474e-12 0 1.85474e-12)
(1.85488e-12 -1.70005e-15 0 1.85488e-12 0 1.85488e-12)
(1.855e-12 -1.702e-15 0 1.85501e-12 0 1.855e-12)
(1.85511e-12 -1.70382e-15 0 1.85514e-12 0 1.85512e-12)
(1.85522e-12 -1.70552e-15 0 1.85525e-12 0 1.85524e-12)
(1.85532e-12 -1.7071e-15 0 1.85536e-12 0 1.85534e-12)
(1.85541e-12 -1.70858e-15 0 1.85546e-12 0 1.85544e-12)
(1.8555e-12 -1.70996e-15 0 1.85556e-12 0 1.85553e-12)
(1.85558e-12 -1.71125e-15 0 1.85565e-12 0 1.85561e-12)
(1.85566e-12 -1.71244e-15 0 1.85573e-12 0 1.85569e-12)
(1.85573e-12 -1.71356e-15 0 1.85581e-12 0 1.85577e-12)
(1.85579e-12 -1.7146e-15 0 1.85588e-12 0 1.85584e-12)
(1.85586e-12 -1.71556e-15 0 1.85594e-12 0 1.8559e-12)
(1.85591e-12 -1.71646e-15 0 1.85601e-12 0 1.85596e-12)
(1.85597e-12 -1.71729e-15 0 1.85606e-12 0 1.85602e-12)
(1.85602e-12 -1.71807e-15 0 1.85612e-12 0 1.85607e-12)
(1.85606e-12 -1.71879e-15 0 1.85617e-12 0 1.85612e-12)
(1.8561e-12 -1.71946e-15 0 1.85622e-12 0 1.85616e-12)
(1.85614e-12 -1.72008e-15 0 1.85626e-12 0 1.8562e-12)
(1.85618e-12 -1.72066e-15 0 1.8563e-12 0 1.85624e-12)
(1.85622e-12 -1.72119e-15 0 1.85634e-12 0 1.85628e-12)
(1.85625e-12 -1.72168e-15 0 1.85637e-12 0 1.85631e-12)
(1.85628e-12 -1.72214e-15 0 1.8564e-12 0 1.85634e-12)
(1.8563e-12 -1.72256e-15 0 1.85643e-12 0 1.85637e-12)
(1.85633e-12 -1.72296e-15 0 1.85646e-12 0 1.8564e-12)
(1.85635e-12 -1.72332e-15 0 1.85649e-12 0 1.85642e-12)
(1.85637e-12 -1.72365e-15 0 1.85651e-12 0 1.85644e-12)
(1.85639e-12 -1.72396e-15 0 1.85653e-12 0 1.85646e-12)
(1.85641e-12 -1.72425e-15 0 1.85655e-12 0 1.85648e-12)
(1.85643e-12 -1.72451e-15 0 1.85657e-12 0 1.8565e-12)
(1.85645e-12 -1.72475e-15 0 1.85659e-12 0 1.85652e-12)
(1.85646e-12 -1.72497e-15 0 1.8566e-12 0 1.85653e-12)
(1.85647e-12 -1.72517e-15 0 1.85662e-12 0 1.85654e-12)
(1.85648e-12 -1.72536e-15 0 1.85663e-12 0 1.85656e-12)
(1.85649e-12 -1.72553e-15 0 1.85664e-12 0 1.85657e-12)
(1.8565e-12 -1.72568e-15 0 1.85665e-12 0 1.85658e-12)
(1.85651e-12 -1.72582e-15 0 1.85666e-12 0 1.85659e-12)
(1.85652e-12 -1.72595e-15 0 1.85667e-12 0 1.85659e-12)
(1.85653e-12 -1.72606e-15 0 1.85667e-12 0 1.8566e-12)
(1.85653e-12 -1.72617e-15 0 1.85668e-12 0 1.85661e-12)
(1.85654e-12 -1.72626e-15 0 1.85669e-12 0 1.85661e-12)
(1.85654e-12 -1.72634e-15 0 1.85669e-12 0 1.85661e-12)
(1.85654e-12 -1.72641e-15 0 1.85669e-12 0 1.85662e-12)
(1.85654e-12 -1.72646e-15 0 1.85669e-12 0 1.85662e-12)
(1.85655e-12 -1.72652e-15 0 1.8567e-12 0 1.85662e-12)
(1.85654e-12 -1.72655e-15 0 1.85669e-12 0 1.85662e-12)
(1.85655e-12 -1.72659e-15 0 1.8567e-12 0 1.85663e-12)
(1.85654e-12 -1.7266e-15 0 1.85669e-12 0 1.85662e-12)
(1.85655e-12 -1.72663e-15 0 1.8567e-12 0 1.85662e-12)
(1.85653e-12 -1.72661e-15 0 1.85668e-12 0 1.85661e-12)
(1.85654e-12 -1.72663e-15 0 1.85669e-12 0 1.85662e-12)
(1.85652e-12 -1.7266e-15 0 1.85667e-12 0 1.8566e-12)
(1.85653e-12 -1.7266e-15 0 1.85668e-12 0 1.85661e-12)
(1.85651e-12 -1.72656e-15 0 1.85666e-12 0 1.85659e-12)
(1.85652e-12 -1.72656e-15 0 1.85667e-12 0 1.8566e-12)
(1.8565e-12 -1.7265e-15 0 1.85665e-12 0 1.85657e-12)
(1.85652e-12 -1.72653e-15 0 1.85666e-12 0 1.85659e-12)
(1.85649e-12 -1.72646e-15 0 1.85663e-12 0 1.85656e-12)
(1.85652e-12 -1.72656e-15 0 1.85667e-12 0 1.85659e-12)
(1.85649e-12 -1.72647e-15 0 1.85663e-12 0 1.85656e-12)
(1.85654e-12 -1.7267e-15 0 1.85669e-12 0 1.85661e-12)
(1.85651e-12 -1.72664e-15 0 1.85666e-12 0 1.85658e-12)
(1.85658e-12 -1.727e-15 0 1.85673e-12 0 1.85665e-12)
(1.85655e-12 -1.72703e-15 0 1.85671e-12 0 1.85663e-12)
(1.85662e-12 -1.72745e-15 0 1.85678e-12 0 1.8567e-12)
(1.85661e-12 -1.72747e-15 0 1.85676e-12 0 1.85669e-12)
(1.8567e-12 -1.728e-15 0 1.85686e-12 0 1.85678e-12)
(1.85669e-12 -1.72818e-15 0 1.85685e-12 0 1.85677e-12)
(1.85675e-12 -1.72846e-15 0 1.85691e-12 0 1.85683e-12)
(1.85674e-12 -1.72856e-15 0 1.8569e-12 0 1.85682e-12)
(1.85677e-12 -1.72866e-15 0 1.85693e-12 0 1.85685e-12)
(1.85675e-12 -1.72869e-15 0 1.85692e-12 0 1.85684e-12)
(1.85677e-12 -1.7287e-15 0 1.85694e-12 0 1.85685e-12)
(1.85675e-12 -1.72867e-15 0 1.85692e-12 0 1.85684e-12)
(1.85676e-12 -1.72862e-15 0 1.85693e-12 0 1.85684e-12)
(1.85674e-12 -1.72857e-15 0 1.85691e-12 0 1.85683e-12)
(1.85675e-12 -1.72849e-15 0 1.85691e-12 0 1.85683e-12)
(1.85673e-12 -1.72842e-15 0 1.85689e-12 0 1.85681e-12)
(1.85673e-12 -1.72834e-15 0 1.85689e-12 0 1.85681e-12)
(1.85671e-12 -1.72828e-15 0 1.85688e-12 0 1.8568e-12)
(1.85671e-12 -1.72821e-15 0 1.85687e-12 0 1.85679e-12)
(1.8567e-12 -1.72815e-15 0 1.85686e-12 0 1.85678e-12)
(1.8567e-12 -1.72809e-15 0 1.85686e-12 0 1.85678e-12)
(1.85669e-12 -1.72804e-15 0 1.85685e-12 0 1.85677e-12)
(1.85669e-12 -1.72801e-15 0 1.85685e-12 0 1.85677e-12)
(1.85669e-12 -1.72798e-15 0 1.85685e-12 0 1.85677e-12)
(1.85669e-12 -1.728e-15 0 1.85685e-12 0 1.85677e-12)
(1.85669e-12 -1.72794e-15 0 1.85685e-12 0 1.85677e-12)
(1.85673e-12 -1.72824e-15 0 1.85689e-12 0 1.85681e-12)
(1.85674e-12 -1.72602e-15 0 1.8569e-12 0 1.85682e-12)
(1.85814e-12 -1.73267e-15 0 1.85836e-12 0 1.85825e-12)
(1.88346e-12 -1.549e-15 0 1.88378e-12 0 1.88363e-12)
(5.07188e-11 2.65699e-14 0 5.01284e-11 0 5.04236e-11)
(5.09239e-11 2.10086e-14 0 5.03609e-11 0 5.06424e-11)
(5.11202e-11 1.56655e-14 0 5.05836e-11 0 5.08518e-11)
(5.1308e-11 1.05351e-14 0 5.07967e-11 0 5.10523e-11)
(5.14874e-11 5.61218e-15 0 5.10005e-11 0 5.12439e-11)
(5.16589e-11 8.91826e-16 0 5.11954e-11 0 5.14271e-11)
(5.18225e-11 -3.6326e-15 0 5.13816e-11 0 5.1602e-11)
(5.19789e-11 -7.96529e-15 0 5.15596e-11 0 5.17692e-11)
(5.21281e-11 -1.21136e-14 0 5.17295e-11 0 5.19288e-11)
(5.22705e-11 -1.60815e-14 0 5.18917e-11 0 5.20811e-11)
(5.24062e-11 -1.98766e-14 0 5.20465e-11 0 5.22264e-11)
(5.25357e-11 -2.35025e-14 0 5.21943e-11 0 5.2365e-11)
(5.26591e-11 -2.6967e-14 0 5.23352e-11 0 5.24971e-11)
(5.27768e-11 -3.02737e-14 0 5.24695e-11 0 5.26231e-11)
(5.28888e-11 -3.34303e-14 0 5.25975e-11 0 5.27431e-11)
(5.29955e-11 -3.64398e-14 0 5.27195e-11 0 5.28575e-11)
(5.3097e-11 -3.93104e-14 0 5.28356e-11 0 5.29663e-11)
(5.31937e-11 -4.20445e-14 0 5.29462e-11 0 5.307e-11)
(5.32857e-11 -4.46501e-14 0 5.30515e-11 0 5.31686e-11)
(5.33732e-11 -4.71297e-14 0 5.31517e-11 0 5.32624e-11)
(5.34564e-11 -4.94907e-14 0 5.32469e-11 0 5.33517e-11)
(5.35355e-11 -5.17357e-14 0 5.33375e-11 0 5.34365e-11)
(5.36106e-11 -5.38713e-14 0 5.34237e-11 0 5.35172e-11)
(5.3682e-11 -5.59006e-14 0 5.35055e-11 0 5.35938e-11)
(5.37499e-11 -5.78294e-14 0 5.35833e-11 0 5.36666e-11)
(5.38142e-11 -5.96608e-14 0 5.36572e-11 0 5.37357e-11)
(5.38754e-11 -6.14001e-14 0 5.37273e-11 0 5.38013e-11)
(5.39334e-11 -6.30504e-14 0 5.37939e-11 0 5.38636e-11)
(5.39884e-11 -6.46164e-14 0 5.3857e-11 0 5.39227e-11)
(5.40406e-11 -6.61013e-14 0 5.39169e-11 0 5.39788e-11)
(5.40901e-11 -6.75093e-14 0 5.39738e-11 0 5.40319e-11)
(5.4137e-11 -6.88434e-14 0 5.40276e-11 0 5.40823e-11)
(5.41814e-11 -7.01075e-14 0 5.40787e-11 0 5.41301e-11)
(5.42235e-11 -7.13044e-14 0 5.41271e-11 0 5.41753e-11)
(5.42634e-11 -7.24378e-14 0 5.41729e-11 0 5.42182e-11)
(5.43012e-11 -7.35102e-14 0 5.42163e-11 0 5.42588e-11)
(5.43369e-11 -7.45249e-14 0 5.42574e-11 0 5.42972e-11)
(5.43708e-11 -7.54845e-14 0 5.42963e-11 0 5.43336e-11)
(5.44028e-11 -7.63917e-14 0 5.43331e-11 0 5.4368e-11)
(5.4433e-11 -7.72493e-14 0 5.43679e-11 0 5.44005e-11)
(5.44616e-11 -7.80593e-14 0 5.44008e-11 0 5.44313e-11)
(5.44887e-11 -7.88246e-14 0 5.4432e-11 0 5.44604e-11)
(5.45142e-11 -7.95469e-14 0 5.44614e-11 0 5.44878e-11)
(5.45384e-11 -8.0229e-14 0 5.44892e-11 0 5.45138e-11)
(5.45612e-11 -8.08723e-14 0 5.45154e-11 0 5.45383e-11)
(5.45827e-11 -8.14794e-14 0 5.45402e-11 0 5.45615e-11)
(5.4603e-11 -8.20517e-14 0 5.45636e-11 0 5.45833e-11)
(5.46222e-11 -8.25913e-14 0 5.45856e-11 0 5.4604e-11)
(5.46403e-11 -8.30996e-14 0 5.46065e-11 0 5.46234e-11)
(5.46574e-11 -8.35787e-14 0 5.46261e-11 0 5.46418e-11)
(5.46735e-11 -8.40297e-14 0 5.46446e-11 0 5.46591e-11)
(5.46886e-11 -8.44545e-14 0 5.46621e-11 0 5.46754e-11)
(5.47029e-11 -8.48541e-14 0 5.46785e-11 0 5.46907e-11)
(5.47163e-11 -8.52302e-14 0 5.4694e-11 0 5.47052e-11)
(5.4729e-11 -8.55839e-14 0 5.47086e-11 0 5.47188e-11)
(5.47409e-11 -8.59164e-14 0 5.47224e-11 0 5.47317e-11)
(5.47522e-11 -8.6229e-14 0 5.47353e-11 0 5.47438e-11)
(5.47627e-11 -8.65227e-14 0 5.47474e-11 0 5.47551e-11)
(5.47727e-11 -8.67987e-14 0 5.47589e-11 0 5.47658e-11)
(5.4782e-11 -8.70576e-14 0 5.47696e-11 0 5.47758e-11)
(5.47908e-11 -8.73009e-14 0 5.47798e-11 0 5.47853e-11)
(5.4799e-11 -8.7529e-14 0 5.47893e-11 0 5.47942e-11)
(5.48068e-11 -8.77432e-14 0 5.47982e-11 0 5.48025e-11)
(5.4814e-11 -8.79439e-14 0 5.48066e-11 0 5.48103e-11)
(5.48209e-11 -8.81321e-14 0 5.48144e-11 0 5.48177e-11)
(5.48273e-11 -8.83084e-14 0 5.48218e-11 0 5.48246e-11)
(5.48333e-11 -8.84737e-14 0 5.48287e-11 0 5.4831e-11)
(5.48389e-11 -8.86284e-14 0 5.48352e-11 0 5.48371e-11)
(5.48442e-11 -8.87733e-14 0 5.48413e-11 0 5.48428e-11)
(5.48492e-11 -8.89088e-14 0 5.4847e-11 0 5.48481e-11)
(5.48538e-11 -8.90356e-14 0 5.48524e-11 0 5.48531e-11)
(5.48581e-11 -8.91542e-14 0 5.48574e-11 0 5.48578e-11)
(5.48622e-11 -8.92651e-14 0 5.48621e-11 0 5.48622e-11)
(5.4866e-11 -8.93686e-14 0 5.48665e-11 0 5.48663e-11)
(5.48696e-11 -8.94655e-14 0 5.48706e-11 0 5.48701e-11)
(5.48729e-11 -8.95558e-14 0 5.48744e-11 0 5.48737e-11)
(5.4876e-11 -8.96402e-14 0 5.4878e-11 0 5.4877e-11)
(5.48789e-11 -8.97189e-14 0 5.48814e-11 0 5.48802e-11)
(5.48816e-11 -8.97924e-14 0 5.48845e-11 0 5.48831e-11)
(5.48842e-11 -8.98608e-14 0 5.48874e-11 0 5.48858e-11)
(5.48866e-11 -8.99247e-14 0 5.48901e-11 0 5.48884e-11)
(5.48888e-11 -8.99841e-14 0 5.48927e-11 0 5.48908e-11)
(5.48908e-11 -9.00395e-14 0 5.48951e-11 0 5.4893e-11)
(5.48927e-11 -9.00911e-14 0 5.48973e-11 0 5.4895e-11)
(5.48945e-11 -9.0139e-14 0 5.48994e-11 0 5.4897e-11)
(5.48962e-11 -9.01837e-14 0 5.49013e-11 0 5.48988e-11)
(5.48978e-11 -9.02251e-14 0 5.49031e-11 0 5.49004e-11)
(5.48992e-11 -9.02637e-14 0 5.49047e-11 0 5.4902e-11)
(5.49005e-11 -9.02995e-14 0 5.49063e-11 0 5.49034e-11)
(5.49018e-11 -9.03328e-14 0 5.49077e-11 0 5.49048e-11)
(5.4903e-11 -9.03636e-14 0 5.49091e-11 0 5.4906e-11)
(5.4904e-11 -9.03923e-14 0 5.49103e-11 0 5.49072e-11)
(5.4905e-11 -9.04188e-14 0 5.49115e-11 0 5.49083e-11)
(5.4906e-11 -9.04434e-14 0 5.49125e-11 0 5.49093e-11)
(5.49068e-11 -9.04661e-14 0 5.49135e-11 0 5.49102e-11)
(5.49076e-11 -9.04872e-14 0 5.49144e-11 0 5.49111e-11)
(5.49083e-11 -9.05067e-14 0 5.49153e-11 0 5.49118e-11)
(5.4909e-11 -9.05247e-14 0 5.49161e-11 0 5.49126e-11)
(5.49096e-11 -9.05413e-14 0 5.49168e-11 0 5.49132e-11)
(5.49102e-11 -9.05567e-14 0 5.49175e-11 0 5.49139e-11)
(5.49108e-11 -9.05708e-14 0 5.49181e-11 0 5.49144e-11)
(5.49112e-11 -9.05838e-14 0 5.49186e-11 0 5.4915e-11)
(5.49117e-11 -9.05958e-14 0 5.49191e-11 0 5.49155e-11)
(5.49121e-11 -9.06068e-14 0 5.49196e-11 0 5.49159e-11)
(5.49125e-11 -9.06169e-14 0 5.49201e-11 0 5.49163e-11)
(5.49128e-11 -9.06261e-14 0 5.49204e-11 0 5.49167e-11)
(5.49131e-11 -9.06346e-14 0 5.49208e-11 0 5.4917e-11)
(5.49134e-11 -9.06423e-14 0 5.49211e-11 0 5.49173e-11)
(5.49136e-11 -9.06492e-14 0 5.49214e-11 0 5.49176e-11)
(5.49139e-11 -9.06555e-14 0 5.49216e-11 0 5.49178e-11)
(5.49141e-11 -9.06612e-14 0 5.49219e-11 0 5.4918e-11)
(5.49142e-11 -9.06662e-14 0 5.49221e-11 0 5.49182e-11)
(5.49144e-11 -9.06708e-14 0 5.49222e-11 0 5.49183e-11)
(5.49144e-11 -9.06746e-14 0 5.49223e-11 0 5.49184e-11)
(5.49146e-11 -9.06782e-14 0 5.49225e-11 0 5.49186e-11)
(5.49145e-11 -9.06808e-14 0 5.49225e-11 0 5.49185e-11)
(5.49147e-11 -9.06837e-14 0 5.49226e-11 0 5.49187e-11)
(5.49145e-11 -9.0685e-14 0 5.49225e-11 0 5.49186e-11)
(5.49148e-11 -9.06872e-14 0 5.49227e-11 0 5.49188e-11)
(5.49144e-11 -9.06874e-14 0 5.49224e-11 0 5.49184e-11)
(5.49147e-11 -9.06889e-14 0 5.49226e-11 0 5.49187e-11)
(5.49142e-11 -9.06879e-14 0 5.49222e-11 0 5.49182e-11)
(5.49145e-11 -9.06888e-14 0 5.49224e-11 0 5.49185e-11)
(5.4914e-11 -9.0687e-14 0 5.49218e-11 0 5.49179e-11)
(5.49143e-11 -9.06872e-14 0 5.49221e-11 0 5.49182e-11)
(5.49136e-11 -9.06848e-14 0 5.49215e-11 0 5.49176e-11)
(5.4914e-11 -9.06849e-14 0 5.49218e-11 0 5.49179e-11)
(5.49132e-11 -9.06817e-14 0 5.4921e-11 0 5.49172e-11)
(5.49138e-11 -9.06832e-14 0 5.49216e-11 0 5.49177e-11)
(5.49129e-11 -9.06793e-14 0 5.49207e-11 0 5.49169e-11)
(5.49138e-11 -9.06844e-14 0 5.49216e-11 0 5.49178e-11)
(5.49129e-11 -9.068e-14 0 5.49207e-11 0 5.49168e-11)
(5.49144e-11 -9.06917e-14 0 5.49223e-11 0 5.49183e-11)
(5.49135e-11 -9.06884e-14 0 5.49213e-11 0 5.49175e-11)
(5.49156e-11 -9.07073e-14 0 5.49236e-11 0 5.49196e-11)
(5.49149e-11 -9.07088e-14 0 5.49229e-11 0 5.49189e-11)
(5.49169e-11 -9.07268e-14 0 5.49251e-11 0 5.4921e-11)
(5.49164e-11 -9.07311e-14 0 5.49246e-11 0 5.49205e-11)
(5.49191e-11 -9.07586e-14 0 5.49275e-11 0 5.49233e-11)
(5.49188e-11 -9.07681e-14 0 5.49273e-11 0 5.49231e-11)
(5.49204e-11 -9.0782e-14 0 5.4929e-11 0 5.49247e-11)
(5.49201e-11 -9.07873e-14 0 5.49287e-11 0 5.49244e-11)
(5.4921e-11 -9.07927e-14 0 5.49297e-11 0 5.49254e-11)
(5.49206e-11 -9.07944e-14 0 5.49293e-11 0 5.4925e-11)
(5.4921e-11 -9.07945e-14 0 5.49298e-11 0 5.49254e-11)
(5.49205e-11 -9.07934e-14 0 5.49293e-11 0 5.49249e-11)
(5.49208e-11 -9.07907e-14 0 5.49295e-11 0 5.49251e-11)
(5.49203e-11 -9.07879e-14 0 5.49289e-11 0 5.49246e-11)
(5.49203e-11 -9.0784e-14 0 5.4929e-11 0 5.49247e-11)
(5.49199e-11 -9.07804e-14 0 5.49285e-11 0 5.49242e-11)
(5.49198e-11 -9.07765e-14 0 5.49284e-11 0 5.49242e-11)
(5.49195e-11 -9.07729e-14 0 5.4928e-11 0 5.49238e-11)
(5.49194e-11 -9.07694e-14 0 5.49279e-11 0 5.49237e-11)
(5.49191e-11 -9.07663e-14 0 5.49276e-11 0 5.49234e-11)
(5.4919e-11 -9.07636e-14 0 5.49275e-11 0 5.49233e-11)
(5.49188e-11 -9.07611e-14 0 5.49273e-11 0 5.49231e-11)
(5.49187e-11 -9.07595e-14 0 5.49272e-11 0 5.4923e-11)
(5.49187e-11 -9.07576e-14 0 5.49272e-11 0 5.4923e-11)
(5.49187e-11 -9.07587e-14 0 5.49272e-11 0 5.4923e-11)
(5.49188e-11 -9.07559e-14 0 5.49272e-11 0 5.4923e-11)
(5.49198e-11 -9.07713e-14 0 5.49284e-11 0 5.49242e-11)
(5.49201e-11 -9.06545e-14 0 5.49287e-11 0 5.49245e-11)
(5.49608e-11 -9.09841e-14 0 5.49725e-11 0 5.49667e-11)
(5.56509e-11 -8.12434e-14 0 5.56676e-11 0 5.56593e-11)
(3.48295e-10 1.04281e-14 0 3.4245e-10 0 3.45372e-10)
(3.49625e-10 -3.66687e-14 0 3.44052e-10 0 3.46838e-10)
(3.50897e-10 -8.19019e-14 0 3.45587e-10 0 3.48241e-10)
(3.52114e-10 -1.25323e-13 0 3.47056e-10 0 3.49584e-10)
(3.53276e-10 -1.66978e-13 0 3.4846e-10 0 3.50868e-10)
(3.54386e-10 -2.0691e-13 0 3.49804e-10 0 3.52094e-10)
(3.55446e-10 -2.45179e-13 0 3.51087e-10 0 3.53266e-10)
(3.56458e-10 -2.81819e-13 0 3.52314e-10 0 3.54385e-10)
(3.57423e-10 -3.16898e-13 0 3.53485e-10 0 3.55454e-10)
(3.58344e-10 -3.50447e-13 0 3.54603e-10 0 3.56473e-10)
(3.59222e-10 -3.82535e-13 0 3.5567e-10 0 3.57446e-10)
(3.6006e-10 -4.13189e-13 0 3.56689e-10 0 3.58374e-10)
(3.60857e-10 -4.42483e-13 0 3.57659e-10 0 3.59258e-10)
(3.61617e-10 -4.70439e-13 0 3.58585e-10 0 3.60101e-10)
(3.62341e-10 -4.9713e-13 0 3.59468e-10 0 3.60904e-10)
(3.63031e-10 -5.22577e-13 0 3.60308e-10 0 3.61669e-10)
(3.63687e-10 -5.46855e-13 0 3.61109e-10 0 3.62398e-10)
(3.64311e-10 -5.69978e-13 0 3.61871e-10 0 3.63091e-10)
(3.64905e-10 -5.9202e-13 0 3.62597e-10 0 3.63751e-10)
(3.6547e-10 -6.12996e-13 0 3.63287e-10 0 3.64378e-10)
(3.66007e-10 -6.32975e-13 0 3.63944e-10 0 3.64975e-10)
(3.66517e-10 -6.51974e-13 0 3.64568e-10 0 3.65543e-10)
(3.67002e-10 -6.70053e-13 0 3.65162e-10 0 3.66082e-10)
(3.67463e-10 -6.87234e-13 0 3.65726e-10 0 3.66595e-10)
(3.67901e-10 -7.03569e-13 0 3.66262e-10 0 3.67081e-10)
(3.68316e-10 -7.19082e-13 0 3.66771e-10 0 3.67544e-10)
(3.6871e-10 -7.3382e-13 0 3.67255e-10 0 3.67983e-10)
(3.69084e-10 -7.47806e-13 0 3.67713e-10 0 3.68399e-10)
(3.69439e-10 -7.61083e-13 0 3.68149e-10 0 3.68794e-10)
(3.69776e-10 -7.73675e-13 0 3.68562e-10 0 3.69169e-10)
(3.70095e-10 -7.85619e-13 0 3.68954e-10 0 3.69524e-10)
(3.70397e-10 -7.96939e-13 0 3.69325e-10 0 3.69861e-10)
(3.70684e-10 -8.0767e-13 0 3.69677e-10 0 3.70181e-10)
(3.70955e-10 -8.17833e-13 0 3.7001e-10 0 3.70483e-10)
(3.71212e-10 -8.2746e-13 0 3.70326e-10 0 3.7077e-10)
(3.71456e-10 -8.36572e-13 0 3.70626e-10 0 3.71041e-10)
(3.71686e-10 -8.45198e-13 0 3.70909e-10 0 3.71298e-10)
(3.71904e-10 -8.53358e-13 0 3.71177e-10 0 3.71541e-10)
(3.7211e-10 -8.61075e-13 0 3.7143e-10 0 3.71771e-10)
(3.72305e-10 -8.68373e-13 0 3.7167e-10 0 3.71988e-10)
(3.7249e-10 -8.75268e-13 0 3.71897e-10 0 3.72194e-10)
(3.72664e-10 -8.81787e-13 0 3.72112e-10 0 3.72388e-10)
(3.72829e-10 -8.87941e-13 0 3.72314e-10 0 3.72572e-10)
(3.72984e-10 -8.93755e-13 0 3.72506e-10 0 3.72745e-10)
(3.73131e-10 -8.9924e-13 0 3.72687e-10 0 3.72909e-10)
(3.7327e-10 -9.0442e-13 0 3.72857e-10 0 3.73064e-10)
(3.73401e-10 -9.09303e-13 0 3.73019e-10 0 3.7321e-10)
(3.73524e-10 -9.13911e-13 0 3.73171e-10 0 3.73348e-10)
(3.73641e-10 -9.18253e-13 0 3.73314e-10 0 3.73478e-10)
(3.73751e-10 -9.22347e-13 0 3.7345e-10 0 3.73601e-10)
(3.73854e-10 -9.26203e-13 0 3.73577e-10 0 3.73716e-10)
(3.73952e-10 -9.29837e-13 0 3.73698e-10 0 3.73825e-10)
(3.74044e-10 -9.33256e-13 0 3.73811e-10 0 3.73928e-10)
(3.74131e-10 -9.36476e-13 0 3.73918e-10 0 3.74025e-10)
(3.74212e-10 -9.39505e-13 0 3.74018e-10 0 3.74116e-10)
(3.74289e-10 -9.42355e-13 0 3.74113e-10 0 3.74201e-10)
(3.74361e-10 -9.45035e-13 0 3.74202e-10 0 3.74282e-10)
(3.74429e-10 -9.47554e-13 0 3.74286e-10 0 3.74358e-10)
(3.74493e-10 -9.49923e-13 0 3.74365e-10 0 3.74429e-10)
(3.74554e-10 -9.52146e-13 0 3.74439e-10 0 3.74497e-10)
(3.7461e-10 -9.54236e-13 0 3.74509e-10 0 3.7456e-10)
(3.74663e-10 -9.56196e-13 0 3.74574e-10 0 3.74619e-10)
(3.74713e-10 -9.58038e-13 0 3.74636e-10 0 3.74675e-10)
(3.7476e-10 -9.59764e-13 0 3.74693e-10 0 3.74727e-10)
(3.74804e-10 -9.61384e-13 0 3.74748e-10 0 3.74776e-10)
(3.74845e-10 -9.62903e-13 0 3.74799e-10 0 3.74822e-10)
(3.74884e-10 -9.64326e-13 0 3.74846e-10 0 3.74865e-10)
(3.7492e-10 -9.6566e-13 0 3.74891e-10 0 3.74906e-10)
(3.74954e-10 -9.66909e-13 0 3.74933e-10 0 3.74944e-10)
(3.74986e-10 -9.68079e-13 0 3.74972e-10 0 3.74979e-10)
(3.75016e-10 -9.69174e-13 0 3.75009e-10 0 3.75013e-10)
(3.75044e-10 -9.70198e-13 0 3.75044e-10 0 3.75044e-10)
(3.7507e-10 -9.71157e-13 0 3.75076e-10 0 3.75073e-10)
(3.75095e-10 -9.72052e-13 0 3.75106e-10 0 3.75101e-10)
(3.75118e-10 -9.7289e-13 0 3.75135e-10 0 3.75126e-10)
(3.75139e-10 -9.73671e-13 0 3.75161e-10 0 3.7515e-10)
(3.75159e-10 -9.74403e-13 0 3.75186e-10 0 3.75173e-10)
(3.75178e-10 -9.75084e-13 0 3.75209e-10 0 3.75194e-10)
(3.75195e-10 -9.75721e-13 0 3.7523e-10 0 3.75213e-10)
(3.75212e-10 -9.76315e-13 0 3.75251e-10 0 3.75231e-10)
(3.75227e-10 -9.76869e-13 0 3.75269e-10 0 3.75248e-10)
(3.75241e-10 -9.77385e-13 0 3.75287e-10 0 3.75264e-10)
(3.75254e-10 -9.77866e-13 0 3.75303e-10 0 3.75279e-10)
(3.75267e-10 -9.78314e-13 0 3.75319e-10 0 3.75293e-10)
(3.75278e-10 -9.78732e-13 0 3.75333e-10 0 3.75306e-10)
(3.75289e-10 -9.7912e-13 0 3.75346e-10 0 3.75318e-10)
(3.75299e-10 -9.79481e-13 0 3.75358e-10 0 3.75329e-10)
(3.75308e-10 -9.79817e-13 0 3.7537e-10 0 3.75339e-10)
(3.75317e-10 -9.80129e-13 0 3.75381e-10 0 3.75349e-10)
(3.75325e-10 -9.80419e-13 0 3.75391e-10 0 3.75358e-10)
(3.75333e-10 -9.80688e-13 0 3.754e-10 0 3.75366e-10)
(3.75339e-10 -9.80938e-13 0 3.75408e-10 0 3.75374e-10)
(3.75346e-10 -9.81169e-13 0 3.75416e-10 0 3.75381e-10)
(3.75352e-10 -9.81384e-13 0 3.75424e-10 0 3.75388e-10)
(3.75357e-10 -9.81583e-13 0 3.7543e-10 0 3.75394e-10)
(3.75363e-10 -9.81767e-13 0 3.75437e-10 0 3.754e-10)
(3.75367e-10 -9.81938e-13 0 3.75443e-10 0 3.75405e-10)
(3.75372e-10 -9.82095e-13 0 3.75448e-10 0 3.7541e-10)
(3.75376e-10 -9.82241e-13 0 3.75453e-10 0 3.75415e-10)
(3.75379e-10 -9.82375e-13 0 3.75458e-10 0 3.75419e-10)
(3.75383e-10 -9.82499e-13 0 3.75462e-10 0 3.75423e-10)
(3.75386e-10 -9.82612e-13 0 3.75466e-10 0 3.75426e-10)
(3.75389e-10 -9.82717e-13 0 3.75469e-10 0 3.75429e-10)
(3.75391e-10 -9.82814e-13 0 3.75473e-10 0 3.75432e-10)
(3.75394e-10 -9.82902e-13 0 3.75475e-10 0 3.75435e-10)
(3.75396e-10 -9.82982e-13 0 3.75478e-10 0 3.75437e-10)
(3.75398e-10 -9.83056e-13 0 3.75481e-10 0 3.7544e-10)
(3.754e-10 -9.83123e-13 0 3.75483e-10 0 3.75442e-10)
(3.75401e-10 -9.83183e-13 0 3.75485e-10 0 3.75443e-10)
(3.75403e-10 -9.83238e-13 0 3.75486e-10 0 3.75445e-10)
(3.75404e-10 -9.83287e-13 0 3.75488e-10 0 3.75446e-10)
(3.75405e-10 -9.8333e-13 0 3.75489e-10 0 3.75447e-10)
(3.75406e-10 -9.83369e-13 0 3.75491e-10 0 3.75449e-10)
(3.75406e-10 -9.83401e-13 0 3.75491e-10 0 3.75449e-10)
(3.75407e-10 -9.83431e-13 0 3.75492e-10 0 3.7545e-10)
(3.75407e-10 -9.83452e-13 0 3.75492e-10 0 3.7545e-10)
(3.75408e-10 -9.83475e-13 0 3.75493e-10 0 3.75451e-10)
(3.75407e-10 -9.83484e-13 0 3.75492e-10 0 3.7545e-10)
(3.75408e-10 -9.83502e-13 0 3.75494e-10 0 3.75451e-10)
(3.75406e-10 -9.83499e-13 0 3.75492e-10 0 3.75449e-10)
(3.75408e-10 -9.8351e-13 0 3.75493e-10 0 3.75451e-10)
(3.75405e-10 -9.83497e-13 0 3.7549e-10 0 3.75448e-10)
(3.75407e-10 -9.83502e-13 0 3.75492e-10 0 3.7545e-10)
(3.75403e-10 -9.83481e-13 0 3.75488e-10 0 3.75446e-10)
(3.75405e-10 -9.83479e-13 0 3.7549e-10 0 3.75448e-10)
(3.75401e-10 -9.83451e-13 0 3.75485e-10 0 3.75443e-10)
(3.75403e-10 -9.83449e-13 0 3.75488e-10 0 3.75446e-10)
(3.75398e-10 -9.83414e-13 0 3.75482e-10 0 3.75441e-10)
(3.75402e-10 -9.83426e-13 0 3.75486e-10 0 3.75444e-10)
(3.75396e-10 -9.83384e-13 0 3.7548e-10 0 3.75439e-10)
(3.75402e-10 -9.83433e-13 0 3.75486e-10 0 3.75445e-10)
(3.75396e-10 -9.83386e-13 0 3.7548e-10 0 3.75439e-10)
(3.75406e-10 -9.83503e-13 0 3.75491e-10 0 3.75449e-10)
(3.754e-10 -9.83466e-13 0 3.75484e-10 0 3.75443e-10)
(3.75414e-10 -9.83657e-13 0 3.755e-10 0 3.75457e-10)
(3.75409e-10 -9.83673e-13 0 3.75495e-10 0 3.75453e-10)
(3.75422e-10 -9.83855e-13 0 3.7551e-10 0 3.75466e-10)
(3.75419e-10 -9.839e-13 0 3.75507e-10 0 3.75463e-10)
(3.75436e-10 -9.8418e-13 0 3.75527e-10 0 3.75482e-10)
(3.75434e-10 -9.8428e-13 0 3.75525e-10 0 3.7548e-10)
(3.75445e-10 -9.84422e-13 0 3.75537e-10 0 3.75491e-10)
(3.75442e-10 -9.84478e-13 0 3.75535e-10 0 3.75489e-10)
(3.75448e-10 -9.84534e-13 0 3.75541e-10 0 3.75495e-10)
(3.75445e-10 -9.84553e-13 0 3.75539e-10 0 3.75492e-10)
(3.75449e-10 -9.84555e-13 0 3.75542e-10 0 3.75496e-10)
(3.75445e-10 -9.84545e-13 0 3.75539e-10 0 3.75492e-10)
(3.75447e-10 -9.84517e-13 0 3.7554e-10 0 3.75494e-10)
(3.75444e-10 -9.8449e-13 0 3.75536e-10 0 3.7549e-10)
(3.75444e-10 -9.8445e-13 0 3.75537e-10 0 3.75491e-10)
(3.75441e-10 -9.84415e-13 0 3.75533e-10 0 3.75488e-10)
(3.75441e-10 -9.84375e-13 0 3.75533e-10 0 3.75487e-10)
(3.75439e-10 -9.84339e-13 0 3.7553e-10 0 3.75485e-10)
(3.75438e-10 -9.84303e-13 0 3.75529e-10 0 3.75484e-10)
(3.75436e-10 -9.84272e-13 0 3.75527e-10 0 3.75482e-10)
(3.75436e-10 -9.84244e-13 0 3.75527e-10 0 3.75481e-10)
(3.75435e-10 -9.84219e-13 0 3.75525e-10 0 3.7548e-10)
(3.75434e-10 -9.84203e-13 0 3.75525e-10 0 3.7548e-10)
(3.75434e-10 -9.84184e-13 0 3.75524e-10 0 3.75479e-10)
(3.75434e-10 -9.84195e-13 0 3.75524e-10 0 3.75479e-10)
(3.75434e-10 -9.84166e-13 0 3.75525e-10 0 3.7548e-10)
(3.75441e-10 -9.84325e-13 0 3.75533e-10 0 3.75487e-10)
(3.75443e-10 -9.83064e-13 0 3.75535e-10 0 3.75489e-10)
(3.75709e-10 -9.86249e-13 0 3.75832e-10 0 3.75771e-10)
(3.79894e-10 -8.79515e-13 0 3.80071e-10 0 3.79983e-10)
(1.18807e-09 -9.08746e-13 0 1.16319e-09 0 1.17563e-09)
(1.19227e-09 -1.08788e-12 0 1.16855e-09 0 1.18041e-09)
(1.19628e-09 -1.25987e-12 0 1.17369e-09 0 1.18498e-09)
(1.20011e-09 -1.42495e-12 0 1.1786e-09 0 1.18935e-09)
(1.20378e-09 -1.58327e-12 0 1.1833e-09 0 1.19354e-09)
(1.20727e-09 -1.73503e-12 0 1.1878e-09 0 1.19753e-09)
(1.21061e-09 -1.88045e-12 0 1.19209e-09 0 1.20135e-09)
(1.21379e-09 -2.01966e-12 0 1.19619e-09 0 1.20499e-09)
(1.21683e-09 -2.15293e-12 0 1.20011e-09 0 1.20847e-09)
(1.21973e-09 -2.28038e-12 0 1.20385e-09 0 1.21178e-09)
(1.22249e-09 -2.40228e-12 0 1.20741e-09 0 1.21495e-09)
(1.22512e-09 -2.51874e-12 0 1.21082e-09 0 1.21797e-09)
(1.22762e-09 -2.63002e-12 0 1.21406e-09 0 1.22084e-09)
(1.23001e-09 -2.73623e-12 0 1.21716e-09 0 1.22358e-09)
(1.23229e-09 -2.83764e-12 0 1.22011e-09 0 1.2262e-09)
(1.23445e-09 -2.93433e-12 0 1.22292e-09 0 1.22868e-09)
(1.23651e-09 -3.02659e-12 0 1.22559e-09 0 1.23105e-09)
(1.23847e-09 -3.11446e-12 0 1.22814e-09 0 1.2333e-09)
(1.24033e-09 -3.19824e-12 0 1.23056e-09 0 1.23545e-09)
(1.2421e-09 -3.27798e-12 0 1.23287e-09 0 1.23749e-09)
(1.24379e-09 -3.35394e-12 0 1.23506e-09 0 1.23943e-09)
(1.24539e-09 -3.42618e-12 0 1.23715e-09 0 1.24127e-09)
(1.24691e-09 -3.49495e-12 0 1.23913e-09 0 1.24302e-09)
(1.24836e-09 -3.5603e-12 0 1.24102e-09 0 1.24469e-09)
(1.24973e-09 -3.62246e-12 0 1.24281e-09 0 1.24627e-09)
(1.25103e-09 -3.68149e-12 0 1.24451e-09 0 1.24777e-09)
(1.25226e-09 -3.73759e-12 0 1.24612e-09 0 1.24919e-09)
(1.25344e-09 -3.79084e-12 0 1.24765e-09 0 1.25055e-09)
(1.25455e-09 -3.84141e-12 0 1.24911e-09 0 1.25183e-09)
(1.2556e-09 -3.88937e-12 0 1.25049e-09 0 1.25305e-09)
(1.2566e-09 -3.93488e-12 0 1.2518e-09 0 1.2542e-09)
(1.25755e-09 -3.97803e-12 0 1.25304e-09 0 1.25529e-09)
(1.25845e-09 -4.01894e-12 0 1.25421e-09 0 1.25633e-09)
(1.2593e-09 -4.0577e-12 0 1.25532e-09 0 1.25731e-09)
(1.2601e-09 -4.09443e-12 0 1.25638e-09 0 1.25824e-09)
(1.26086e-09 -4.1292e-12 0 1.25738e-09 0 1.25912e-09)
(1.26159e-09 -4.16212e-12 0 1.25832e-09 0 1.25996e-09)
(1.26227e-09 -4.19328e-12 0 1.25922e-09 0 1.26074e-09)
(1.26291e-09 -4.22275e-12 0 1.26007e-09 0 1.26149e-09)
(1.26352e-09 -4.25064e-12 0 1.26087e-09 0 1.2622e-09)
(1.2641e-09 -4.27699e-12 0 1.26162e-09 0 1.26286e-09)
(1.26465e-09 -4.30191e-12 0 1.26234e-09 0 1.26349e-09)