/*--------------------------------*- C++ -*----------------------------------*\
| =========                 |                                                 |
| \\      /  F ield         | OpenFOAM: The Open Source CFD Toolbox           |
|  \\    /   O peration     | Version:  v1912                                 |
|   \\  /    A nd           | Website:  www.openfoam.com                      |
|    \\/     M anipulation  |                                                 |
\*---------------------------------------------------------------------------*/
FoamFile
{
    version     2.0;
    format      ascii;
    class       volScalarField;
    location    "100";
    object      k;
}
// * * * * * * * * * * * * * * * * * * * * * * * * * * * * * * * * * * * * * //

dimensions      [0 2 -2 0 0 0 0];


internalField   nonuniform List<scalar> 
14268
(
3.12402e-07
3.11493e-07
3.11412e-07
3.11667e-07
3.12936e-07
3.1534e-07
3.19285e-07
3.24476e-07
3.30972e-07
3.38399e-07
3.46412e-07
3.55018e-07
3.64487e-07
3.75242e-07
3.87538e-07
4.01499e-07
4.17343e-07
4.35298e-07
4.5303e-07
4.68806e-07
4.82103e-07
4.92874e-07
5.0134e-07
5.07785e-07
5.12501e-07
5.15793e-07
5.17957e-07
5.1924e-07
5.19844e-07
5.19991e-07
5.1989e-07
5.194e-07
5.18704e-07
5.17834e-07
5.16826e-07
5.15728e-07
5.14536e-07
5.13269e-07
5.11981e-07
5.10723e-07
5.095e-07
5.08297e-07
5.07119e-07
5.0606e-07
5.05133e-07
5.04333e-07
5.03645e-07
5.03047e-07
5.02507e-07
5.01995e-07
5.01475e-07
5.00917e-07
5.00298e-07
4.99602e-07
4.98824e-07
4.9797e-07
4.97049e-07
4.96077e-07
4.9507e-07
4.94048e-07
4.93027e-07
4.9202e-07
4.91036e-07
4.90078e-07
4.89141e-07
4.8822e-07
4.87304e-07
4.86387e-07
4.85465e-07
4.84541e-07
4.83624e-07
4.82727e-07
4.81862e-07
4.81036e-07
4.8026e-07
4.79539e-07
4.78869e-07
4.78268e-07
4.77719e-07
4.77209e-07
4.7674e-07
4.76322e-07
4.75962e-07
4.75673e-07
4.75466e-07
4.75353e-07
4.75344e-07
4.75451e-07
4.75686e-07
4.7604e-07
4.76501e-07
4.77043e-07
4.77633e-07
4.78233e-07
4.78811e-07
4.79345e-07
4.79821e-07
4.80234e-07
4.80581e-07
4.80866e-07
4.81092e-07
4.81259e-07
4.81382e-07
4.81491e-07
4.81598e-07
4.81693e-07
4.81767e-07
4.81815e-07
4.81835e-07
4.81835e-07
4.8182e-07
4.81788e-07
4.81726e-07
4.81711e-07
4.81735e-07
4.81804e-07
4.81917e-07
4.82063e-07
4.82231e-07
4.82414e-07
4.82611e-07
4.82822e-07
4.83042e-07
4.8324e-07
4.83416e-07
4.83581e-07
4.83744e-07
4.839e-07
4.84053e-07
4.84209e-07
4.8437e-07
4.84536e-07
4.84677e-07
4.84803e-07
4.84917e-07
4.84984e-07
4.85028e-07
4.85064e-07
4.85127e-07
4.8523e-07
4.85359e-07
4.85523e-07
4.85725e-07
4.85966e-07
4.86259e-07
4.86543e-07
4.86893e-07
4.87312e-07
4.87803e-07
4.88321e-07
4.88849e-07
4.89403e-07
4.89974e-07
4.90574e-07
4.9126e-07
4.91869e-07
4.92317e-07
4.92655e-07
4.92959e-07
4.93297e-07
4.93795e-07
4.94403e-07
4.94948e-07
4.95501e-07
1.71615e-08
1.769e-08
1.79015e-08
1.86362e-08
2.01068e-08
2.28156e-08
2.72854e-08
3.40394e-08
4.31502e-08
5.34101e-08
6.33197e-08
7.30904e-08
8.29105e-08
9.30453e-08
1.03806e-07
1.15559e-07
1.28468e-07
1.42851e-07
1.5759e-07
1.7116e-07
1.83005e-07
1.92927e-07
2.01025e-07
2.0752e-07
2.12658e-07
2.16666e-07
2.19742e-07
2.22052e-07
2.23736e-07
2.24909e-07
2.2565e-07
2.26041e-07
2.26195e-07
2.26081e-07
2.25788e-07
2.25377e-07
2.24882e-07
2.24343e-07
2.23805e-07
2.23319e-07
2.22941e-07
2.22723e-07
2.22678e-07
2.22808e-07
2.23117e-07
2.23608e-07
2.24265e-07
2.25065e-07
2.25969e-07
2.26933e-07
2.27909e-07
2.28856e-07
2.29739e-07
2.30534e-07
2.31237e-07
2.31852e-07
2.32394e-07
2.32885e-07
2.33345e-07
2.33794e-07
2.34248e-07
2.34717e-07
2.35205e-07
2.35709e-07
2.36221e-07
2.36729e-07
2.37223e-07
2.37697e-07
2.38149e-07
2.38588e-07
2.39029e-07
2.39492e-07
2.39999e-07
2.40569e-07
2.41216e-07
2.41948e-07
2.42767e-07
2.43671e-07
2.44655e-07
2.45715e-07
2.46852e-07
2.48075e-07
2.49402e-07
2.50855e-07
2.52463e-07
2.54257e-07
2.56267e-07
2.5852e-07
2.61029e-07
2.63796e-07
2.66806e-07
2.70032e-07
2.73431e-07
2.76949e-07
2.80525e-07
2.84102e-07
2.87638e-07
2.91104e-07
2.94486e-07
2.97773e-07
3.0097e-07
3.04088e-07
3.07142e-07
3.10141e-07
3.1308e-07
3.15925e-07
3.18611e-07
3.2108e-07
3.23281e-07
3.25168e-07
3.26691e-07
3.278e-07
3.28455e-07
3.28678e-07
3.28513e-07
3.2791e-07
3.26907e-07
3.25565e-07
3.23929e-07
3.22046e-07
3.19963e-07
3.17727e-07
3.15384e-07
3.12986e-07
3.10575e-07
3.08176e-07
3.05794e-07
3.03421e-07
3.01043e-07
2.98626e-07
2.96135e-07
2.93563e-07
2.90923e-07
2.88229e-07
2.85483e-07
2.82685e-07
2.79865e-07
2.77049e-07
2.74252e-07
2.71485e-07
2.68735e-07
2.65997e-07
2.63257e-07
2.60496e-07
2.57682e-07
2.54768e-07
2.51767e-07
2.4868e-07
2.45516e-07
2.42276e-07
2.38988e-07
2.357e-07
2.32469e-07
2.29348e-07
2.26362e-07
2.23504e-07
2.20755e-07
2.1809e-07
2.15503e-07
2.12999e-07
2.10562e-07
2.08164e-07
2.05803e-07
2.03412e-07
2.10128e-09
2.30633e-09
2.44464e-09
2.6815e-09
3.05205e-09
3.63454e-09
4.51302e-09
5.78519e-09
7.49314e-09
9.58732e-09
1.19613e-08
1.4566e-08
1.74898e-08
2.08512e-08
2.47743e-08
2.93918e-08
3.47857e-08
4.1008e-08
4.81291e-08
5.55857e-08
6.24261e-08
6.83486e-08
7.32554e-08
7.72141e-08
8.03562e-08
8.28171e-08
8.47188e-08
8.61655e-08
8.72444e-08
8.80268e-08
8.85675e-08
8.89099e-08
8.9097e-08
8.9174e-08
8.91552e-08
8.90649e-08
8.89295e-08
8.87674e-08
8.86009e-08
8.84543e-08
8.83544e-08
8.83237e-08
8.83759e-08
8.8507e-08
8.87213e-08
8.902e-08
8.93986e-08
8.98466e-08
9.03479e-08
9.08826e-08
9.14291e-08
9.19676e-08
9.2481e-08
9.29575e-08
9.3392e-08
9.37856e-08
9.41451e-08
9.44805e-08
9.48031e-08
9.51235e-08
9.54501e-08
9.57879e-08
9.6138e-08
9.64985e-08
9.68648e-08
9.72311e-08
9.75922e-08
9.79445e-08
9.82877e-08
9.86258e-08
9.89662e-08
9.93192e-08
9.96962e-08
1.00108e-07
1.00561e-07
1.0106e-07
1.01608e-07
1.02202e-07
1.02842e-07
1.03525e-07
1.04253e-07
1.0503e-07
1.05866e-07
1.06773e-07
1.0777e-07
1.08877e-07
1.10112e-07
1.11492e-07
1.1303e-07
1.14728e-07
1.16583e-07
1.18582e-07
1.20703e-07
1.22918e-07
1.25193e-07
1.27497e-07
1.29802e-07
1.32087e-07
1.34341e-07
1.3656e-07
1.38744e-07
1.40901e-07
1.43037e-07
1.45151e-07
1.47238e-07
1.49275e-07
1.51228e-07
1.53059e-07
1.54721e-07
1.56172e-07
1.5737e-07
1.58277e-07
1.58854e-07
1.59064e-07
1.58916e-07
1.58361e-07
1.5744e-07
1.56223e-07
1.54762e-07
1.53113e-07
1.51338e-07
1.49488e-07
1.47605e-07
1.45708e-07
1.4381e-07
1.41938e-07
1.40095e-07
1.38266e-07
1.3644e-07
1.34602e-07
1.32735e-07
1.30834e-07
1.28907e-07
1.2696e-07
1.24998e-07
1.2303e-07
1.21074e-07
1.19145e-07
1.17255e-07
1.15408e-07
1.13601e-07
1.11828e-07
1.10079e-07
1.08342e-07
1.06597e-07
1.04827e-07
1.03033e-07
1.0122e-07
9.93958e-08
9.75734e-08
9.57705e-08
9.40093e-08
9.23152e-08
9.07119e-08
8.92108e-08
8.78081e-08
8.64903e-08
8.52442e-08
8.40621e-08
8.29366e-08
8.1856e-08
8.0808e-08
7.97891e-08
7.87824e-08
5.20894e-10
5.77692e-10
6.17029e-10
6.8199e-10
7.82696e-10
9.41496e-10
1.18519e-09
1.54876e-09
2.05923e-09
2.72713e-09
3.55485e-09
4.56411e-09
5.81515e-09
7.38434e-09
9.35213e-09
1.17988e-08
1.47932e-08
1.83783e-08
2.25755e-08
2.74302e-08
3.23159e-08
3.66643e-08
4.03133e-08
4.32463e-08
4.55422e-08
4.73054e-08
4.86374e-08
4.96295e-08
5.03585e-08
5.08854e-08
5.12547e-08
5.15015e-08
5.16546e-08
5.17374e-08
5.17694e-08
5.17655e-08
5.17312e-08
5.16827e-08
5.16294e-08
5.15822e-08
5.15515e-08
5.15471e-08
5.15759e-08
5.16358e-08
5.17284e-08
5.18544e-08
5.20121e-08
5.2198e-08
5.2406e-08
5.26284e-08
5.28565e-08
5.30826e-08
5.32995e-08
5.35025e-08
5.36892e-08
5.38601e-08
5.4018e-08
5.41669e-08
5.43117e-08
5.44569e-08
5.46058e-08
5.47604e-08
5.49212e-08
5.5087e-08
5.52557e-08
5.54245e-08
5.55911e-08
5.57539e-08
5.59129e-08
5.60701e-08
5.62286e-08
5.63931e-08
5.65688e-08
5.67605e-08
5.69715e-08
5.72041e-08
5.74592e-08
5.77364e-08
5.80353e-08
5.83554e-08
5.86972e-08
5.90631e-08
5.94574e-08
5.98869e-08
6.03605e-08
6.08885e-08
6.14812e-08
6.21477e-08
6.2895e-08
6.37267e-08
6.46423e-08
6.56368e-08
6.67008e-08
6.78209e-08
6.89814e-08
7.01664e-08
7.13613e-08
7.25545e-08
7.37394e-08
7.49135e-08
7.60773e-08
7.72336e-08
7.8385e-08
7.95315e-08
8.06678e-08
8.17828e-08
8.28583e-08
8.38714e-08
8.47952e-08
8.56032e-08
8.62696e-08
8.67718e-08
8.70892e-08
8.71999e-08
8.7107e-08
8.67796e-08
8.62448e-08
8.55433e-08
8.47058e-08
8.37628e-08
8.27456e-08
8.16836e-08
8.05977e-08
7.95032e-08
7.84198e-08
7.73586e-08
7.63204e-08
7.52982e-08
7.42865e-08
7.32767e-08
7.22647e-08
7.12479e-08
7.02276e-08
6.92065e-08
6.81885e-08
6.71797e-08
6.61882e-08
6.52215e-08
6.42858e-08
6.33842e-08
6.25151e-08
6.16724e-08
6.0849e-08
6.00405e-08
5.92393e-08
5.8438e-08
5.76379e-08
5.68439e-08
5.60613e-08
5.52962e-08
5.45547e-08
5.3844e-08
5.31747e-08
5.25557e-08
5.19898e-08
5.14731e-08
5.09988e-08
5.05605e-08
5.01522e-08
4.97675e-08
4.94009e-08
4.90484e-08
4.87117e-08
4.83813e-08
2.34934e-10
2.64377e-10
2.85388e-10
3.18023e-10
3.67482e-10
4.45361e-10
5.66754e-10
7.52712e-10
1.02348e-09
1.39465e-09
1.8812e-09
2.51111e-09
3.33416e-09
4.41237e-09
5.81227e-09
7.60457e-09
9.84857e-09
1.25899e-08
1.5856e-08
1.97018e-08
2.38732e-08
2.76648e-08
3.08772e-08
3.34653e-08
3.54852e-08
3.70253e-08
3.81735e-08
3.90122e-08
3.96143e-08
4.00401e-08
4.0336e-08
4.05369e-08
4.06687e-08
4.07507e-08
4.07976e-08
4.08201e-08
4.08263e-08
4.08217e-08
4.08116e-08
4.0802e-08
4.07968e-08
4.08003e-08
4.08148e-08
4.08397e-08
4.08753e-08
4.09221e-08
4.09794e-08
4.10461e-08
4.11203e-08
4.11995e-08
4.12809e-08
4.1362e-08
4.14402e-08
4.1514e-08
4.15827e-08
4.16466e-08
4.17067e-08
4.17644e-08
4.18212e-08
4.18786e-08
4.19377e-08
4.1999e-08
4.20626e-08
4.21281e-08
4.21945e-08
4.22609e-08
4.23264e-08
4.23905e-08
4.24533e-08
4.2516e-08
4.25797e-08
4.26462e-08
4.27178e-08
4.27964e-08
4.28834e-08
4.298e-08
4.30865e-08
4.3203e-08
4.33294e-08
4.34657e-08
4.36123e-08
4.37702e-08
4.39418e-08
4.41302e-08
4.43399e-08
4.45756e-08
4.48428e-08
4.51463e-08
4.54902e-08
4.58775e-08
4.63088e-08
4.6783e-08
4.72963e-08
4.7843e-08
4.84156e-08
4.9006e-08
4.9607e-08
5.02125e-08
5.08187e-08
5.1424e-08
5.20289e-08
5.26347e-08
5.32421e-08
5.38511e-08
5.44586e-08
5.50583e-08
5.56403e-08
5.61916e-08
5.66962e-08
5.71376e-08
5.75003e-08
5.7771e-08
5.79382e-08
5.79915e-08
5.79333e-08
5.77461e-08
5.74468e-08
5.70571e-08
5.6594e-08
5.60745e-08
5.55175e-08
5.49409e-08
5.43555e-08
5.37718e-08
5.31988e-08
5.2642e-08
5.21024e-08
5.1576e-08
5.10597e-08
5.05505e-08
5.0045e-08
4.95428e-08
4.90439e-08
4.85486e-08
4.80596e-08
4.7581e-08
4.71171e-08
4.66718e-08
4.62467e-08
4.58397e-08
4.54486e-08
4.50734e-08
4.47131e-08
4.43647e-08
4.40246e-08
4.36923e-08
4.3371e-08
4.30613e-08
4.27619e-08
4.24748e-08
4.22042e-08
4.19547e-08
4.17311e-08
4.15368e-08
4.13718e-08
4.1231e-08
4.11072e-08
4.09959e-08
4.08967e-08
4.0808e-08
4.07233e-08
4.06416e-08
4.05685e-08
4.05026e-08
1.76431e-10
2.00754e-10
2.18368e-10
2.44468e-10
2.83124e-10
3.43515e-10
4.37898e-10
5.83726e-10
7.98845e-10
1.0984e-09
1.49806e-09
2.02475e-09
2.72339e-09
3.65027e-09
4.86676e-09
6.43893e-09
8.42536e-09
1.08717e-08
1.38056e-08
1.72741e-08
2.11797e-08
2.48102e-08
2.79088e-08
3.04143e-08
3.23732e-08
3.38702e-08
3.49885e-08
3.58037e-08
3.63839e-08
3.67881e-08
3.70646e-08
3.72512e-08
3.73756e-08
3.74577e-08
3.75112e-08
3.75455e-08
3.75672e-08
3.75808e-08
3.75898e-08
3.75966e-08
3.76032e-08
3.76108e-08
3.762e-08
3.76309e-08
3.76435e-08
3.76573e-08
3.76726e-08
3.76891e-08
3.77065e-08
3.77244e-08
3.77427e-08
3.77612e-08
3.77792e-08
3.77965e-08
3.78133e-08
3.78302e-08
3.78473e-08
3.78646e-08
3.78826e-08
3.79015e-08
3.79215e-08
3.79423e-08
3.7964e-08
3.79861e-08
3.80084e-08
3.80304e-08
3.8052e-08
3.80733e-08
3.80945e-08
3.81163e-08
3.8139e-08
3.8163e-08
3.81891e-08
3.82182e-08
3.82506e-08
3.82866e-08
3.83267e-08
3.83709e-08
3.84194e-08
3.84725e-08
3.85306e-08
3.85943e-08
3.86647e-08
3.87433e-08
3.88321e-08
3.89333e-08
3.90495e-08
3.91832e-08
3.93371e-08
3.95129e-08
3.97117e-08
3.99337e-08
4.01779e-08
4.04419e-08
4.07227e-08
4.10161e-08
4.13182e-08
4.16258e-08
4.19368e-08
4.22504e-08
4.25667e-08
4.28863e-08
4.32099e-08
4.35374e-08
4.38669e-08
4.41931e-08
4.45098e-08
4.48098e-08
4.50848e-08
4.53255e-08
4.55221e-08
4.56662e-08
4.57513e-08
4.57733e-08
4.57348e-08
4.56271e-08
4.54608e-08
4.52462e-08
4.49914e-08
4.47059e-08
4.44025e-08
4.40903e-08
4.37805e-08
4.34726e-08
4.31743e-08
4.28901e-08
4.26139e-08
4.23502e-08
4.20939e-08
4.18439e-08
4.15983e-08
4.1358e-08
4.11199e-08
4.08866e-08
4.06597e-08
4.04402e-08
4.02313e-08
4.00363e-08
3.98525e-08
3.96779e-08
3.95119e-08
3.93549e-08
3.92064e-08
3.90667e-08
3.8935e-08
3.88107e-08
3.86969e-08
3.8595e-08
3.85035e-08
3.84214e-08
3.83504e-08
3.82919e-08
3.82472e-08
3.82179e-08
3.82039e-08
3.82077e-08
3.82243e-08
3.82447e-08
3.82637e-08
3.82804e-08
3.82964e-08
3.83128e-08
3.83324e-08
3.83475e-08
1.62908e-10
1.85991e-10
2.0274e-10
2.27061e-10
2.62696e-10
3.18075e-10
4.04492e-10
5.38147e-10
7.35912e-10
1.01229e-09
1.38219e-09
1.87084e-09
2.52025e-09
3.38384e-09
4.52023e-09
5.9935e-09
7.8618e-09
1.01708e-08
1.29506e-08
1.62348e-08
2.00162e-08
2.36264e-08
2.67412e-08
2.92759e-08
3.12625e-08
3.27848e-08
3.39279e-08
3.47666e-08
3.53661e-08
3.57834e-08
3.60672e-08
3.62571e-08
3.63832e-08
3.64672e-08
3.6524e-08
3.65631e-08
3.65909e-08
3.66113e-08
3.6627e-08
3.66392e-08
3.66486e-08
3.66559e-08
3.66607e-08
3.66632e-08
3.66633e-08
3.66597e-08
3.66537e-08
3.66453e-08
3.66348e-08
3.66228e-08
3.66104e-08
3.65983e-08
3.65864e-08
3.65754e-08
3.65658e-08
3.6558e-08
3.6552e-08
3.6548e-08
3.65461e-08
3.65463e-08
3.65486e-08
3.65527e-08
3.65583e-08
3.65652e-08
3.65729e-08
3.65811e-08
3.65897e-08
3.65984e-08
3.66073e-08
3.66166e-08
3.6626e-08
3.66358e-08
3.66462e-08
3.66573e-08
3.66692e-08
3.66819e-08
3.66954e-08
3.67102e-08
3.67264e-08
3.67445e-08
3.67651e-08
3.67888e-08
3.68163e-08
3.68484e-08
3.68862e-08
3.69306e-08
3.6983e-08
3.70447e-08
3.71169e-08
3.72009e-08
3.72974e-08
3.74067e-08
3.75282e-08
3.76611e-08
3.7804e-08
3.79554e-08
3.81136e-08
3.82768e-08
3.84437e-08
3.86138e-08
3.87873e-08
3.89645e-08
3.91461e-08
3.93319e-08
3.95212e-08
3.97116e-08
3.98981e-08
4.00743e-08
4.02339e-08
4.03713e-08
4.04819e-08
4.05622e-08
4.06088e-08
4.062e-08
4.05967e-08
4.05348e-08
4.0439e-08
4.03155e-08
4.01693e-08
4.00073e-08
3.98376e-08
3.96649e-08
3.94947e-08
3.93308e-08
3.91716e-08
3.90242e-08
3.88821e-08
3.87481e-08
3.86221e-08
3.84983e-08
3.83788e-08
3.82638e-08
3.81524e-08
3.80432e-08
3.79381e-08
3.78397e-08
3.77466e-08
3.76563e-08
3.75764e-08
3.75042e-08
3.74377e-08
3.73758e-08
3.73183e-08
3.72653e-08
3.72167e-08
3.71737e-08
3.71413e-08
3.71195e-08
3.71055e-08
3.71006e-08
3.71011e-08
3.71076e-08
3.71247e-08
3.71507e-08
3.71892e-08
3.72399e-08
3.73049e-08
3.737e-08
3.74294e-08
3.74822e-08
3.75318e-08
3.75809e-08
3.76312e-08
3.7676e-08
1.58692e-10
1.81191e-10
1.97479e-10
2.20899e-10
2.55036e-10
3.07907e-10
3.90226e-10
5.17456e-10
7.05863e-10
9.69433e-10
1.32216e-09
1.78756e-09
2.40533e-09
3.22682e-09
4.30866e-09
5.71348e-09
7.49926e-09
9.7126e-09
1.23837e-08
1.55386e-08
1.92215e-08
2.28505e-08
2.60224e-08
2.86286e-08
3.06807e-08
3.22575e-08
3.34468e-08
3.43247e-08
3.49562e-08
3.5398e-08
3.56989e-08
3.58996e-08
3.60321e-08
3.61198e-08
3.61788e-08
3.62194e-08
3.62482e-08
3.62692e-08
3.62844e-08
3.6294e-08
3.62991e-08
3.63015e-08
3.63011e-08
3.62937e-08
3.62808e-08
3.62624e-08
3.62399e-08
3.62136e-08
3.61834e-08
3.61506e-08
3.61171e-08
3.60837e-08
3.60506e-08
3.60199e-08
3.5991e-08
3.59627e-08
3.59369e-08
3.59154e-08
3.58986e-08
3.58866e-08
3.58791e-08
3.58762e-08
3.58769e-08
3.58816e-08
3.58897e-08
3.59002e-08
3.59125e-08
3.59255e-08
3.59381e-08
3.59499e-08
3.5961e-08
3.59712e-08
3.59806e-08
3.59892e-08
3.59967e-08
3.60032e-08
3.60086e-08
3.60132e-08
3.60174e-08
3.60219e-08
3.60272e-08
3.60342e-08
3.6044e-08
3.60576e-08
3.60759e-08
3.61e-08
3.61307e-08
3.61684e-08
3.62137e-08
3.62666e-08
3.63275e-08
3.63961e-08
3.64721e-08
3.65548e-08
3.6643e-08
3.67357e-08
3.68322e-08
3.69322e-08
3.70355e-08
3.71419e-08
3.72513e-08
3.73633e-08
3.74777e-08
3.75941e-08
3.7712e-08
3.78298e-08
3.79451e-08
3.80552e-08
3.81561e-08
3.82438e-08
3.83145e-08
3.83653e-08
3.83942e-08
3.84002e-08
3.8384e-08
3.83433e-08
3.82824e-08
3.82051e-08
3.81159e-08
3.80173e-08
3.79166e-08
3.7815e-08
3.7714e-08
3.76192e-08
3.7531e-08
3.74451e-08
3.73699e-08
3.72959e-08
3.72254e-08
3.71636e-08
3.71008e-08
3.70388e-08
3.69765e-08
3.69169e-08
3.68589e-08
3.68004e-08
3.67467e-08
3.67054e-08
3.6663e-08
3.66198e-08
3.65795e-08
3.65427e-08
3.651e-08
3.64835e-08
3.64628e-08
3.64465e-08
3.64342e-08
3.64299e-08
3.64365e-08
3.64448e-08
3.64578e-08
3.64776e-08
3.65013e-08
3.65359e-08
3.65828e-08
3.66435e-08
3.67126e-08
3.67806e-08
3.68429e-08
3.68984e-08
3.69517e-08
3.70048e-08
3.70571e-08
3.7104e-08
1.56258e-10
1.78233e-10
1.94083e-10
2.16717e-10
2.49593e-10
3.00365e-10
3.79229e-10
5.00989e-10
6.81365e-10
9.33852e-10
1.2715e-09
1.71608e-09
2.30511e-09
3.08799e-09
4.11954e-09
5.46097e-09
7.17008e-09
9.29443e-09
1.18655e-08
1.49065e-08
1.84767e-08
2.21321e-08
2.53683e-08
2.80546e-08
3.01823e-08
3.18235e-08
3.30661e-08
3.39876e-08
3.46538e-08
3.51217e-08
3.54412e-08
3.56544e-08
3.57947e-08
3.58868e-08
3.59479e-08
3.5989e-08
3.60167e-08
3.60349e-08
3.60449e-08
3.60476e-08
3.60446e-08
3.60405e-08
3.60326e-08
3.60143e-08
3.59867e-08
3.59537e-08
3.59158e-08
3.58732e-08
3.58256e-08
3.57732e-08
3.57196e-08
3.56656e-08
3.5612e-08
3.55633e-08
3.55177e-08
3.5468e-08
3.5421e-08
3.53814e-08
3.53501e-08
3.53267e-08
3.53113e-08
3.53038e-08
3.53033e-08
3.53107e-08
3.53247e-08
3.53441e-08
3.53675e-08
3.53923e-08
3.54152e-08
3.54356e-08
3.54548e-08
3.54721e-08
3.54872e-08
3.54993e-08
3.55084e-08
3.55147e-08
3.55185e-08
3.55197e-08
3.55189e-08
3.55171e-08
3.55151e-08
3.55141e-08
3.55157e-08
3.55214e-08
3.55329e-08
3.55516e-08
3.55786e-08
3.5614e-08
3.56578e-08
3.57087e-08
3.57655e-08
3.58279e-08
3.58951e-08
3.59665e-08
3.60414e-08
3.61192e-08
3.61991e-08
3.62806e-08
3.63637e-08
3.64486e-08
3.65356e-08
3.66249e-08
3.67165e-08
3.681e-08
3.69046e-08
3.69984e-08
3.70899e-08
3.71771e-08
3.72572e-08
3.7327e-08
3.7383e-08
3.7422e-08
3.74419e-08
3.74436e-08
3.7427e-08
3.73916e-08
3.7342e-08
3.72811e-08
3.72118e-08
3.71371e-08
3.70591e-08
3.69814e-08
3.69085e-08
3.68379e-08
3.67736e-08
3.67152e-08
3.66582e-08
3.66071e-08
3.6558e-08
3.65088e-08
3.64613e-08
3.64117e-08
3.63619e-08
3.63102e-08
3.62567e-08
3.62037e-08
3.61527e-08
3.61014e-08
3.6055e-08
3.60131e-08
3.59737e-08
3.59373e-08
3.59043e-08
3.58756e-08
3.58518e-08
3.5833e-08
3.58232e-08
3.58194e-08
3.58175e-08
3.58215e-08
3.58299e-08
3.58396e-08
3.58541e-08
3.58756e-08
3.59119e-08
3.59607e-08
3.60137e-08
3.60618e-08
3.61018e-08
3.61342e-08
3.61637e-08
3.61932e-08
3.62227e-08
3.62496e-08
1.53954e-10
1.75356e-10
1.90732e-10
2.12553e-10
2.44152e-10
2.92818e-10
3.68216e-10
4.84473e-10
6.56733e-10
8.9797e-10
1.22024e-09
1.6435e-09
2.20286e-09
2.94559e-09
3.92454e-09
5.19927e-09
6.82713e-09
8.8564e-09
1.13201e-08
1.42416e-08
1.76757e-08
2.13346e-08
2.46275e-08
2.73906e-08
2.95964e-08
3.13077e-08
3.26094e-08
3.35781e-08
3.428e-08
3.47738e-08
3.51118e-08
3.53381e-08
3.54872e-08
3.55848e-08
3.56484e-08
3.56893e-08
3.57139e-08
3.57254e-08
3.57264e-08
3.57185e-08
3.57017e-08
3.56887e-08
3.56619e-08
3.56267e-08
3.55817e-08
3.55306e-08
3.54753e-08
3.54152e-08
3.53506e-08
3.52729e-08
3.5197e-08
3.5122e-08
3.5048e-08
3.49811e-08
3.49203e-08
3.48443e-08
3.47722e-08
3.47132e-08
3.46671e-08
3.46324e-08
3.46086e-08
3.45975e-08
3.45989e-08
3.46149e-08
3.46442e-08
3.46828e-08
3.47274e-08
3.4774e-08
3.48159e-08
3.48526e-08
3.4886e-08
3.49156e-08
3.49413e-08
3.49625e-08
3.49787e-08
3.499e-08
3.49966e-08
3.49985e-08
3.49964e-08
3.49916e-08
3.49855e-08
3.49799e-08
3.4977e-08
3.49791e-08
3.49887e-08
3.50083e-08
3.5039e-08
3.50811e-08
3.51341e-08
3.51949e-08
3.52609e-08
3.5331e-08
3.5404e-08
3.54792e-08
3.55563e-08
3.56352e-08
3.57153e-08
3.57961e-08
3.58773e-08
3.5959e-08
3.60414e-08
3.61247e-08
3.62092e-08
3.62945e-08
3.63795e-08
3.64624e-08
3.65418e-08
3.66157e-08
3.6682e-08
3.67385e-08
3.67825e-08
3.68116e-08
3.68243e-08
3.68215e-08
3.68011e-08
3.67641e-08
3.67147e-08
3.66558e-08
3.659e-08
3.65206e-08
3.64481e-08
3.6378e-08
3.63134e-08
3.62507e-08
3.61943e-08
3.61436e-08
3.60929e-08
3.60473e-08
3.60028e-08
3.59553e-08
3.59064e-08
3.58549e-08
3.5801e-08
3.57432e-08
3.56815e-08
3.56195e-08
3.55584e-08
3.54879e-08
3.54222e-08
3.53679e-08
3.53161e-08
3.52669e-08
3.522e-08
3.51753e-08
3.51337e-08
3.50982e-08
3.50704e-08
3.50432e-08
3.50106e-08
3.49805e-08
3.49491e-08
3.4909e-08
3.48721e-08
3.48336e-08
3.47979e-08
3.47461e-08
3.46702e-08
3.45751e-08
3.44479e-08
3.42526e-08
3.40532e-08
3.39668e-08
3.39448e-08
3.39373e-08
1.51042e-10
1.71669e-10
1.86405e-10
2.07216e-10
2.37301e-10
2.83548e-10
3.55002e-10
4.65006e-10
6.27967e-10
8.56201e-10
1.16068e-09
1.55918e-09
2.0839e-09
2.77939e-09
3.69592e-09
4.89057e-09
6.41965e-09
8.33164e-09
1.06609e-08
1.34293e-08
1.66806e-08
2.02755e-08
2.359e-08
2.64082e-08
2.86812e-08
3.04577e-08
3.18159e-08
3.28294e-08
3.35649e-08
3.40834e-08
3.444e-08
3.46805e-08
3.48402e-08
3.49446e-08
3.50109e-08
3.50493e-08
3.50654e-08
3.50647e-08
3.50482e-08
3.50169e-08
3.49754e-08
3.49301e-08
3.4876e-08
3.48133e-08
3.47429e-08
3.46686e-08
3.45936e-08
3.45159e-08
3.44353e-08
3.43271e-08
3.42271e-08
3.41348e-08
3.40432e-08
3.39527e-08
3.38742e-08
3.37712e-08
3.36681e-08
3.35798e-08
3.35086e-08
3.3455e-08
3.34211e-08
3.34085e-08
3.34181e-08
3.34527e-08
3.35098e-08
3.35843e-08
3.36705e-08
3.37591e-08
3.38388e-08
3.39083e-08
3.39695e-08
3.40223e-08
3.4068e-08
3.41067e-08
3.41386e-08
3.41632e-08
3.41802e-08
3.41895e-08
3.41916e-08
3.41881e-08
3.41814e-08
3.41745e-08
3.41711e-08
3.41749e-08
3.41903e-08
3.42214e-08
3.42701e-08
3.43363e-08
3.44182e-08
3.45106e-08
3.46083e-08
3.47089e-08
3.48103e-08
3.49104e-08
3.50092e-08
3.51065e-08
3.52025e-08
3.52963e-08
3.53879e-08
3.5478e-08
3.55674e-08
3.56567e-08
3.57463e-08
3.58351e-08
3.59217e-08
3.60047e-08
3.60825e-08
3.61532e-08
3.62151e-08
3.62666e-08
3.63056e-08
3.63297e-08
3.63369e-08
3.63284e-08
3.63007e-08
3.62561e-08
3.61979e-08
3.61295e-08
3.60546e-08
3.5977e-08
3.58981e-08
3.58244e-08
3.57571e-08
3.56937e-08
3.56369e-08
3.55858e-08
3.55362e-08
3.54889e-08
3.54414e-08
3.53888e-08
3.53309e-08
3.52671e-08
3.51967e-08
3.51176e-08
3.50297e-08
3.49359e-08
3.48383e-08
3.47246e-08
3.46092e-08
3.45095e-08
3.4412e-08
3.43169e-08
3.42232e-08
3.41291e-08
3.40343e-08
3.39412e-08
3.38481e-08
3.37463e-08
3.36293e-08
3.35046e-08
3.33659e-08
3.31979e-08
3.29952e-08
3.2696e-08
3.22421e-08
3.15793e-08
3.11133e-08
3.13262e-08
3.18636e-08
3.23182e-08
3.27393e-08
3.29689e-08
3.30371e-08
3.30092e-08
1.46318e-10
1.6568e-10
1.79398e-10
1.98765e-10
2.26816e-10
2.6995e-10
3.36415e-10
4.38523e-10
5.89621e-10
8.01183e-10
1.08287e-09
1.44989e-09
1.93081e-09
2.56685e-09
3.40549e-09
4.50085e-09
5.90711e-09
7.67107e-09
9.82634e-09
1.23917e-08
1.5391e-08
1.88027e-08
2.20441e-08
2.4845e-08
2.71307e-08
2.89277e-08
3.03035e-08
3.13297e-08
3.20756e-08
3.26055e-08
3.29758e-08
3.32303e-08
3.34011e-08
3.3511e-08
3.35744e-08
3.35999e-08
3.35984e-08
3.35692e-08
3.35167e-08
3.3445e-08
3.33579e-08
3.32635e-08
3.31666e-08
3.30693e-08
3.29741e-08
3.28853e-08
3.28043e-08
3.27276e-08
3.26525e-08
3.25469e-08
3.24485e-08
3.23586e-08
3.22684e-08
3.21638e-08
3.20693e-08
3.195e-08
3.18194e-08
3.16963e-08
3.15919e-08
3.15147e-08
3.14714e-08
3.14625e-08
3.14925e-08
3.15627e-08
3.16678e-08
3.18012e-08
3.19552e-08
3.21137e-08
3.22567e-08
3.23808e-08
3.24904e-08
3.25858e-08
3.26681e-08
3.27384e-08
3.27974e-08
3.28449e-08
3.28808e-08
3.29049e-08
3.29182e-08
3.2923e-08
3.29217e-08
3.29188e-08
3.29199e-08
3.29316e-08
3.29615e-08
3.30157e-08
3.30981e-08
3.32081e-08
3.33418e-08
3.34905e-08
3.36456e-08
3.38027e-08
3.39575e-08
3.4107e-08
3.42496e-08
3.43853e-08
3.45152e-08
3.46396e-08
3.47585e-08
3.48729e-08
3.49838e-08
3.50921e-08
3.51976e-08
3.52996e-08
3.53965e-08
3.54871e-08
3.557e-08
3.56434e-08
3.57062e-08
3.57572e-08
3.57948e-08
3.58161e-08
3.58193e-08
3.58044e-08
3.57679e-08
3.57123e-08
3.56407e-08
3.55562e-08
3.5463e-08
3.53662e-08
3.527e-08
3.51803e-08
3.50973e-08
3.50197e-08
3.49487e-08
3.48826e-08
3.48181e-08
3.47529e-08
3.46842e-08
3.4606e-08
3.45165e-08
3.44141e-08
3.42969e-08
3.41619e-08
3.40085e-08
3.38388e-08
3.36555e-08
3.345e-08
3.32346e-08
3.3033e-08
3.28332e-08
3.26362e-08
3.24396e-08
3.22385e-08
3.20288e-08
3.18102e-08
3.15777e-08
3.13199e-08
3.10251e-08
3.06852e-08
3.02571e-08
2.96369e-08
2.85766e-08
2.74153e-08
2.75942e-08
2.93036e-08
3.15704e-08
3.35794e-08
3.65114e-08
3.89511e-08
4.07169e-08
4.16606e-08
4.19373e-08
4.17548e-08
1.37834e-10
1.5498e-10
1.66955e-10
1.84068e-10
2.09135e-10
2.47914e-10
3.07509e-10
3.98704e-10
5.32953e-10
7.19719e-10
9.65941e-10
1.28283e-09
1.69384e-09
2.23484e-09
2.94783e-09
3.88138e-09
5.08575e-09
6.60542e-09
8.47384e-09
1.07071e-08
1.33167e-08
1.6341e-08
1.93419e-08
2.19902e-08
2.41815e-08
2.59132e-08
2.72411e-08
2.82351e-08
2.89643e-08
2.94904e-08
2.98654e-08
3.01263e-08
3.02982e-08
3.03971e-08
3.04367e-08
3.04307e-08
3.0373e-08
3.02756e-08
3.01483e-08
3.00009e-08
2.98408e-08
2.96782e-08
2.95241e-08
2.939e-08
2.92843e-08
2.92074e-08
2.91565e-08
2.91247e-08
2.91033e-08
2.90832e-08
2.90541e-08
2.90128e-08
2.89535e-08
2.88715e-08
2.8771e-08
2.86448e-08
2.84939e-08
2.83384e-08
2.8202e-08
2.81043e-08
2.80567e-08
2.80633e-08
2.81319e-08
2.82608e-08
2.84416e-08
2.86653e-08
2.89213e-08
2.91862e-08
2.94297e-08
2.96408e-08
2.98271e-08
2.99911e-08
3.01359e-08
3.02635e-08
3.03758e-08
3.04737e-08
3.05561e-08
3.06219e-08
3.06704e-08
3.0705e-08
3.07293e-08
3.07495e-08
3.07742e-08
3.08153e-08
3.08851e-08
3.09935e-08
3.11459e-08
3.13408e-08
3.15719e-08
3.1827e-08
3.20915e-08
3.23542e-08
3.26074e-08
3.28463e-08
3.30687e-08
3.32744e-08
3.34656e-08
3.36447e-08
3.38138e-08
3.39739e-08
3.4126e-08
3.42706e-08
3.44076e-08
3.4536e-08
3.46548e-08
3.47629e-08
3.48596e-08
3.49438e-08
3.50148e-08
3.5072e-08
3.51136e-08
3.51362e-08
3.51371e-08
3.51149e-08
3.50656e-08
3.49913e-08
3.48951e-08
3.47804e-08
3.46516e-08
3.45145e-08
3.43772e-08
3.42475e-08
3.41251e-08
3.40092e-08
3.38998e-08
3.37951e-08
3.36909e-08
3.35837e-08
3.34673e-08
3.33352e-08
3.3183e-08
3.30065e-08
3.28018e-08
3.25649e-08
3.2294e-08
3.19904e-08
3.16578e-08
3.12941e-08
3.09123e-08
3.05372e-08
3.01635e-08
2.97919e-08
2.9417e-08
2.90282e-08
2.86137e-08
2.81622e-08
2.76565e-08
2.7071e-08
2.63643e-08
2.54436e-08
2.41231e-08
2.27255e-08
2.32619e-08
2.73436e-08
3.15421e-08
4.05837e-08
5.52045e-08
7.50104e-08
9.57998e-08
1.12193e-07
1.22698e-07
1.27138e-07
1.27559e-07
1.23519e-07
1.22326e-10
1.355e-10
1.44388e-10
1.57737e-10
1.77985e-10
2.09897e-10
2.58788e-10
3.33111e-10
4.41224e-10
5.89416e-10
7.80934e-10
1.02182e-09
1.32847e-09
1.72884e-09
2.25645e-09
2.95006e-09
3.85121e-09
4.9979e-09
6.41889e-09
8.12652e-09
1.01295e-08
1.24415e-08
1.48472e-08
1.70345e-08
1.88841e-08
2.03659e-08
2.15181e-08
2.23969e-08
2.3056e-08
2.35409e-08
2.38874e-08
2.41171e-08
2.4249e-08
2.43085e-08
2.42832e-08
2.41842e-08
2.40204e-08
2.3802e-08
2.35448e-08
2.32711e-08
2.30049e-08
2.27665e-08
2.25697e-08
2.24346e-08
2.23783e-08
2.23985e-08
2.24835e-08
2.26149e-08
2.2776e-08
2.29524e-08
2.31084e-08
2.32218e-08
2.32862e-08
2.32977e-08
2.32462e-08
2.31377e-08
2.29825e-08
2.28101e-08
2.26577e-08
2.25592e-08
2.25278e-08
2.25819e-08
2.2724e-08
2.29471e-08
2.324e-08
2.35904e-08
2.39856e-08
2.43983e-08
2.47858e-08
2.51241e-08
2.54205e-08
2.56835e-08
2.59209e-08
2.61385e-08
2.63397e-08
2.65242e-08
2.66899e-08
2.68333e-08
2.69523e-08
2.70502e-08
2.71308e-08
2.72028e-08
2.72794e-08
2.73796e-08
2.75234e-08
2.7727e-08
2.79997e-08
2.83402e-08
2.87383e-08
2.91755e-08
2.96293e-08
3.00783e-08
3.0507e-08
3.09057e-08
3.12693e-08
3.1597e-08
3.18923e-08
3.21611e-08
3.24099e-08
3.26413e-08
3.28565e-08
3.3056e-08
3.32393e-08
3.34058e-08
3.35548e-08
3.36862e-08
3.38005e-08
3.38978e-08
3.39787e-08
3.40436e-08
3.40911e-08
3.41173e-08
3.41178e-08
3.40876e-08
3.40196e-08
3.39152e-08
3.37776e-08
3.3611e-08
3.34211e-08
3.3215e-08
3.30029e-08
3.27988e-08
3.26033e-08
3.24165e-08
3.2238e-08
3.20648e-08
3.18919e-08
3.1713e-08
3.15185e-08
3.1299e-08
3.10465e-08
3.07532e-08
3.04115e-08
3.0015e-08
2.95601e-08
2.90475e-08
2.84834e-08
2.78751e-08
2.724e-08
2.66031e-08
2.59674e-08
2.5332e-08
2.4685e-08
2.40093e-08
2.32844e-08
2.24839e-08
2.15776e-08
2.05478e-08
1.93835e-08
1.82891e-08
1.78233e-08
2.07646e-08
2.73591e-08
4.24517e-08
7.11023e-08
1.2306e-07
2.06175e-07
3.09027e-07
3.95026e-07
4.5256e-07
4.8045e-07
4.88931e-07
4.7658e-07
4.07697e-07
1.07031e-10
1.15889e-10
1.21252e-10
1.30206e-10
1.44725e-10
1.68462e-10
2.0485e-10
2.59778e-10
3.3804e-10
4.42659e-10
5.73894e-10
7.33466e-10
9.32457e-10
1.19225e-09
1.5383e-09
1.99966e-09
2.60728e-09
3.38963e-09
4.36899e-09
5.55573e-09
6.95383e-09
8.5588e-09
1.02639e-08
1.18905e-08
1.33335e-08
1.45369e-08
1.55031e-08
1.62564e-08
1.68247e-08
1.72358e-08
1.7516e-08
1.76801e-08
1.7731e-08
1.76759e-08
1.75102e-08
1.72378e-08
1.68628e-08
1.63966e-08
1.58666e-08
1.53189e-08
1.48123e-08
1.44161e-08
1.41924e-08
1.41401e-08
1.42215e-08
1.44208e-08
1.47215e-08
1.50944e-08
1.55008e-08
1.59059e-08
1.62823e-08
1.66011e-08
1.6841e-08
1.69907e-08
1.7047e-08
1.70073e-08
1.68934e-08
1.67503e-08
1.66265e-08
1.65603e-08
1.65875e-08
1.67253e-08
1.69714e-08
1.73157e-08
1.77407e-08
1.82263e-08
1.87526e-08
1.92919e-08
1.98037e-08
2.02586e-08
2.06586e-08
2.10172e-08
2.13474e-08
2.16588e-08
2.19559e-08
2.22372e-08
2.24983e-08
2.27336e-08
2.29385e-08
2.31158e-08
2.32688e-08
2.34082e-08
2.35516e-08
2.37238e-08
2.39514e-08
2.42567e-08
2.46541e-08
2.51444e-08
2.57154e-08
2.63432e-08
2.69981e-08
2.76505e-08
2.82768e-08
2.88612e-08
2.93944e-08
2.98737e-08
3.03022e-08
3.06884e-08
3.10417e-08
3.13668e-08
3.16655e-08
3.19384e-08
3.2185e-08
3.2405e-08
3.25982e-08
3.27653e-08
3.29078e-08
3.30269e-08
3.31245e-08
3.3202e-08
3.32587e-08
3.32903e-08
3.32915e-08
3.32555e-08
3.31726e-08
3.30434e-08
3.28714e-08
3.26618e-08
3.24209e-08
3.21572e-08
3.18827e-08
3.1615e-08
3.13576e-08
3.11108e-08
3.08742e-08
3.06441e-08
3.04142e-08
3.01764e-08
2.99183e-08
2.96277e-08
2.9294e-08
2.89064e-08
2.84543e-08
2.79289e-08
2.7325e-08
2.66432e-08
2.58922e-08
2.50869e-08
2.42488e-08
2.3404e-08
2.2561e-08
2.17176e-08
2.0857e-08
1.99585e-08
1.89969e-08
1.79383e-08
1.67533e-08
1.54839e-08
1.43513e-08
1.40004e-08
1.56826e-08
2.12333e-08
3.30059e-08
6.04165e-08
1.14676e-07
2.11069e-07