/*--------------------------------*- C++ -*----------------------------------*\
| =========                 |                                                 |
| \\      /  F ield         | OpenFOAM: The Open Source CFD Toolbox           |
|  \\    /   O peration     | Version:  v1912                                 |
|   \\  /    A nd           | Website:  www.openfoam.com                      |
|    \\/     M anipulation  |                                                 |
\*---------------------------------------------------------------------------*/
FoamFile
{
    version     2.0;
    format      ascii;
    class       volScalarField;
    location    "100";
    object      p_rgh;
}
// * * * * * * * * * * * * * * * * * * * * * * * * * * * * * * * * * * * * * //

dimensions      [1 -1 -2 0 0 0 0];


internalField   nonuniform List<scalar> 
14268
(
-6603
-7018.18
-7490.84
-8019.33
-8598.39
-9214.96
-9850.2
-10481.3
-11083.5
-11628
-12088.5
-12445.3
-12690.2
-12818.5
-12832.7
-12742
-12562.4
-12316.5
-12032.8
-11742.5
-11456.6
-11169
-10881.8
-10600.6
-10331.6
-10081.1
-9854.78
-9657.23
-9493.55
-9367.42
-9287.6
-9252.03
-9261.15
-9312.6
-9399.44
-9507.75
-9628.9
-9773.1
-9944.63
-10140.2
-10350.5
-10557.7
-10753
-10896.5
-10974.5
-10975.3
-10892.5
-10725.3
-10478.5
-10162.9
-9794.05
-9390.78
-8973.3
-8560.79
-8163.45
-7779.05
-7407.99
-7050.76
-6706.19
-6371.42
-6042.93
-5717.61
-5393.51
-5069.98
-4747.39
-4426.5
-4107.41
-3791.77
-3482.83
-3185.62
-2930.39
-2704.66
-2408.11
-2086.21
-1738.04
-1361.45
-953.972
-513.694
-39.3552
469.953
1015.21
1597.87
2220.18
2885.45
3597.62
4358.99
5165.29
6019.16
6927.5
7891
8905.73
9964.48
11057.8
12174.7
13303.9
14434.6
15556.8
16661.9
17743.2
18795.1
19812.9
20792.4
21730.2
22622.3
23464.7
24252.5
24980.6
25643.2
26234.3
26748
27178.8
27521.6
27773.4
27944
28016.2
27981.2
27844.3
27610.1
27283.4
26870.3
26378.1
25814.6
25188.6
24509.5
23787.4
23025.9
22222.7
21376.8
20488
19556.7
18583.9
17570.5
16518
15428.5
14304.9
13150.5
11968.8
10763.6
9537.87
8293.72
7032.05
5753.1
4451.3
3130.15
1786.48
365.591
-1035.27
-2458.71
-3903.67
-5366.29
-6840.32
-8318.03
-9792.29
-11256.4
-12699.6
-14114.7
-15498.7
-16851.7
-18176.3
-19476.4
-20755.9
-22019.3
-23262.9
-24504.2
-7352.25
-7790.12
-8270.67
-8781.63
-9311.88
-9846.9
-10370.4
-10865.4
-11315.5
-11702.5
-12012.3
-12227.3
-12350.1
-12381.3
-12326.2
-12194.3
-11999.2
-11757.4
-11486.8
-11204.4
-10926.5
-10666.8
-10426.1
-10203.4
-9999.73
-9817.3
-9658.96
-9527.51
-9426.98
-9360.91
-9322.13
-9328.88
-9372.86
-9449.18
-9549.79
-9666.25
-9797.9
-9943.7
-10100.2
-10260.4
-10414.9
-10559.5
-10662.5
-10702.5
-10675
-10576.4
-10407.2
-10172.4
-9880.5
-9543.61
-9175.84
-8791.35
-8402.95
-8020.64
-7650.36
-7293.56
-6949.51
-6616.3
-6291.2
-5971.13
-5653.25
-5335.59
-5017.43
-4699.33
-4382.7
-4069.17
-3759.95
-3455.75
-3157.42
-2867.16
-2611.17
-2374.59
-2064.31
-1725.28
-1357.82
-960.937
-533.123
-73.04
420.516
948.856
1513.62
2116.77
2760.13
3443.76
4170.77
4948.11
5777.97
6660.1
7594.04
8576.95
9603.08
10664.3
11750.7
12852.1
13958
15059.2
16147.6
17216.4
18260.4
19275.4
20257.1
21201.8
22105.6
22964.2
23772.8
24526.1
25218.4
25843.6
26396.1
26870.2
27261.1
27564.7
27779.3
27914.3
27952.9
27887.9
27725
27468.7
27124.2
26697.5
26195.5
25625.8
24996.3
24315.5
23592.5
22832.2
22031.1
21187.6
20301.5
19373.1
18403.1
17392.7
16343.5
15257.6
14138
12988.3
11811.9
10612.4
9392.79
8154.89
6899.39
5626.31
4330.04
3013.91
1674.61
258.421
-1138.61
-2558.25
-3999.29
-5457.6
-6926.87
-8400.1
-9870.92
-11329.9
-12767.3
-14176.5
-15554.8
-16902.5
-18222.2
-19518
-20793.7
-22054
-23294.9
-24534.1
-7637.44
-8082.48
-8563.87
-9067.33
-9580.64
-10089
-10576.6
-11027.4
-11427.2
-11761.4
-12021.2
-12187.6
-12268.1
-12264.5
-12182.9
-12032.9
-11827.5
-11581.5
-11310.9
-11030.6
-10753.9
-10492.8
-10256.8
-10046.5
-9860.51
-9699.08
-9563.58
-9455.61
-9377.66
-9331.02
-9314.05
-9329.45
-9382.33
-9464.69
-9568.81
-9689.58
-9825.58
-9973.7
-10128.4
-10281.2
-10427.6
-10548.9
-10616.8
-10618.1
-10550.6
-10413.3
-10209.4
-9945.68
-9632.22
-9281.66
-8907.86
-8523.89
-8140.81
-7766.68
-7405.83
-7059.01
-6724.71
-6400.25
-6082.4
-5768
-5454.47
-5140.24
-4824.99
-4509.61
-4195.86
-3885.74
-3580.7
-3281.43
-2988.12
-2701.74
-2445.08
-2202.73
-1886.48
-1540.56
-1165.59
-760.794
-324.946
143.066
644.281
1179.87
1751.18
2359.36
3004.58
3691.28
4425.27
5210.91
6050.15
6942.66
7886.73
8878.18
9910.25
10974.1
12059.7
13156.5
14254.7
15345.2
16420.7
17475.1
18503.9
19503.3
20469.7
21399.3
22288.4
23132.5
23926.6
24665.2
25342.4
25952.1
26488.6
26946.4
27320.7
27607.9
27805.7
27927.8
27952.1
27874
27699.2
27432.4
27078.9
26644.7
26136.8
25562.6
24930
24247.2
23523.1
22761.4
21959.1
21115
20228.6
19300.4
18330.9
17321
16272.5
15187.4
14068.9
12920.4
11745.6
10548
9330.68
8095.4
6842.79
5572.78
4279.7
2966.63
1629.91
216.473
-1178.88
-2597.46
-4037.99
-5496.14
-6965.66
-8439.9
-9911.55
-11370.1
-12806.1
-14213.3
-15589
-16933.6
-18250.3
-19543.4
-20816.9
-22075.6
-23315.7
-24554.7
-7780.51
-8231.26
-8714.58
-9215.95
-9723.54
-10222.8
-10697.6
-11131.1
-11508.8
-11817.7
-12050.2
-12197.2
-12257.1
-12234.9
-12137.3
-11974.3
-11758.7
-11505.3
-11229.4
-10945.6
-10666.6
-10403.5
-10165.8
-9957.02
-9775.49
-9621.23
-9495.24
-9398.51
-9332.63
-9298.25
-9293.5
-9318.14
-9373.6
-9458.46
-9565.16
-9689.33
-9829.29
-9981.3
-10139.3
-10295.5
-10436.5
-10540.1
-10586
-10563
-10469.4
-10305.9
-10076.8
-9790.44
-9458.02
-9092.91
-8709.34
-8320.2
-7935.9
-7563.45
-7206.26
-6864.32
-6535.45
-6216.28
-5903.05
-5592.34
-5281.53
-4969.17
-4655.16
-4340.72
-4028.02
-3719.45
-3416.83
-3120.86
-2831.22
-2547.75
-2289.08
-2040.55
-1718.49
-1366.25
-984.513
-572.539
-129.256
346.207
854.531
1396.28
1971.57
2581.13
3229.79
3922.23
4663.27
5457.18
6306.19
7209.9
8165.47
9167.53
10208.3
11278.1
12366.4
13462.4
14556.4
15639.7
16705.4
17748.1
18764
19749.8
20702.2
21617.9
22493.1
23323.4
24103.4
24827.5
25489.5
26083.3
26602.9
27043.1
27399.3
27668.2
27847.4
27955.3
27962.4
27868
27678
27397.4
27031.6
26586.8
26069.9
25488.5
24850.6
24164.2
23437.4
22671.9
21866.1
21019.2
20130.9
19201.4
18231
17220.7
16171.8
15086.7
13968.4
12820.5
11646.8
10451
9236.06
8003.74
6754.61
5488.39
4199.41
2890.22
1556.96
146.979
-1246.24
-2663.58
-4103.51
-5561.55
-7031.84
-8508.06
-9980.43
-11438
-12871.7
-14275.4
-15646.8
-16986.6
-18298.5
-19587.1
-20857
-22113.1
-23351.7
-24589.9
-7857.65
-8314.1
-8800.31
-9302.51
-9810.24
-10309.6
-10783.3
-11212.5
-11581.3
-11877.1
-12092.5
-12230.2
-12278.8
-12245
-12136
-11962.3
-11736.9
-11474.7
-11191.3
-10901.2
-10617.5
-10351.5
-10111.9
-9900.61
-9717.47
-9563.68
-9440.49
-9348.58
-9288.91
-9261.62
-9264.05
-9296.12
-9357.38
-9445.86
-9555.92
-9684.26
-9829.07
-9986.4
-10149.1
-10306.4
-10442.6
-10536.5
-10570.6
-10533.4
-10423.5
-10242.2
-9994.86
-9690.58
-9341.52
-8961.9
-8566.67
-8169.19
-7779.92
-7405.55
-7048.84
-6709.15
-6383.56
-6067.94
-5758
-5449.94
-5140.96
-4829.56
-4515.84
-4201.33
-3888.62
-3580.59
-3279.43
-2985.93
-2699.34
-2418.53
-2157.81
-1904.55
-1578.41
-1222.07
-836.072
-419.55
28.4294
508.364
1020.25
1563.73
2139.63
2750.97
3401.87
4097.32
4842.62
5642.18
6498.33
7410.57
8375.49
9386.86
10436
11512.6
12605.5
13703.6
14797
15877
16937.2
17972.6
18979.8
19956.2
20898.8
21804.6
22669.8
23490.1
24260.1
24973.9
25625.1
26207.4
26715
27142.3
27485
27740.1
27905.5
27998.1
27995
27887.8
27685
27392.2
27015.1
26560.1
26034.4
25445.7
24802.2
24112
23381.4
22611
21800.7
20950
20059
19127.5
18155.7
17144.2
16094.4
15008.4
13889.4
12741.3
11567.8
10372.8
9159.39
7929.4
6683.33
5420.74
4135.92
2830.78
1501.12
94.3967
-1297.07
-2714.08
-4154.84
-5614.79
-7088.45
-8568.59
-10043.6
-11502.2
-12935.1
-14336.4
-15703.9
-17039.1
-18346
-19630.2
-20896.5
-22150.3
-23388
-24626.4
-7897.98
-8360.66
-8850.67
-9355.84
-9867.87
-10373.3
-10853.6
-11286.8
-11654.3
-11943.7
-12148.6
-12275.3
-12316.9
-12274.3
-12155.8
-11972.3
-11737.2
-11465.9
-11173.9
-10876.3
-10586.8
-10317.5
-10074.4
-9858.06
-9670.42
-9513.97
-9390.24
-9299.72
-9242.91
-9219.51
-9226.08
-9262.8
-9328.77
-9421.41
-9535.89
-9669.77
-9820.76
-9984.35
-10152.4
-10312.4
-10448.2
-10539.2
-10568.7
-10523.8
-10403.7
-10209.7
-9947.93
-9628.16
-9263.31
-8868.56
-8459.9
-8051.64
-7654.77
-7276.05
-6917.84
-6578.85
-6255.49
-5942.6
-5635.42
-5329.6
-5021.99
-4711
-4396.83
-4081.37
-3767.72
-3459.33
-3158.9
-2867.36
-2583.59
-2305.45
-2042.78
-1786.03
-1457.09
-1098.29
-709.873
-290.802
159.685
641.626
1154.59
1698.95
2275.78
2887.8
3539.41
4236.16
4983.85
5787.33
6649.17
7568.83
8542.48
9563.18
10621.5
11706.4
12806
13908.8
15004.4
16084.3
17142.1
18173.4
19175.1
20145
21080.5
21979
22837
23650
24412.7
25118.8
25762
26335.6
26833.6
27250.6
27582.1
27825.2
27978
28056.2
28045.1
27925.9
27710.8
27405.7
27016.7
26550.7
26015.2
25418.3
24768.5
24073.6
23336.7
22559.7
21743.2
20887.6
19992.6
19058
18083.8
17070.2
16018.5
14930.6
13810
12660.4
11486.2
10291.1
9078.58
7850.48
6607.29
5348.38
4067.99
2767.25
1441.65
38.2475
-1351.53
-2768.74
-4211.28
-5674.68
-7153.67
-8639.07
-10117.9
-11578.5
-13011.1
-14409.9
-15773
-17102.5
-18403.4
-19682
-20944
-22195.2
-23432
-24670.9
-7915.24
-8385
-8879.69
-9389.9
-9909.93
-10426.2
-10918.5
-11361.5
-11732.9
-12020.3
-12217.7
-12333.3
-12364.8
-12312.8
-12184.6
-11991.3
-11746.6
-11466
-11165.3
-10859.8
-10564.2
-10290.9
-10042.8
-9819.87
-9626.22
-9465.42
-9339.26
-9248.02
-9191.85
-9170.03
-9178.58
-9217.94
-9287.17
-9383.58
-9502.81
-9642.84
-9801.05
-9972.37
-10147.9
-10314.2
-10454.5
-10548.3
-10579.1
-10531.5
-10405.3
-10202.1
-9928.34
-9594.36
-9213.74
-8802.71
-8378.7
-7957.44
-7550.81
-7165.95
-6804.9
-6465.76
-6144.05
-5833.93
-5529.57
-5226.04
-4919.73
-4608.86
-4293.72
-3976.58
-3661.17
-3351.68
-3051.43
-2761.59
-2480.67
-2205.47
-1941.36
-1682.56
-1352.15
-992.632
-603.896
-184.526
266.641
749.573
1263.56
1808.42
2385.11
2996.47
3647.19
4343.44
5091.72
5897.47
6763.63
7689.73
8671.61
9701.74
10770
11864.4
12972.6
14082.2
15182.6
16265
17323.2
18352.8
19351.6
20317.3
21248.1
22141.7
22994.7
23802.8
24560.6
25261.7
25899.4
26467
26958.1
27367.2
27689.8
27923.1
28065
28131.2
28109.8
27981.8
27755.2
27438.1
27037.2
26559.8
26014.1
25408.6
24752.3
24050.5
23305.8
22520.9
21697.4
20835.9
19936.4
18998.2
18021.1
17004.9
15950.6
14860.2
13737
12585.3
11409.4
10213.6
9001.39
7774.83
6534.44
5279.39
4003.84
2708
1386.96
-13.0578
-1401.25
-2819.3
-4264.84
-5733.56
-7219.77
-8712.01
-10196.4
-11660.2
-13093.4
-14489.9
-15848.4
-17171.6
-18465.7
-19738.1
-20995.3
-22243.8
-23480
-24719.9
-7916.75
-8394.64
-8894.94
-9412.88
-9944.87
-10475.5
-10983.6
-11441
-11820.5
-12108.9
-12300.8
-12406.5
-12426.4
-12362.2
-12221.5
-12015.7
-11759.1
-11467.7
-11157.7
-10844.3
-10542.2
-10264.6
-10011.8
-9781.65
-9580.89
-9414.53
-9284.54
-9191.02
-9133.73
-9111.63
-9120.46
-9160.98
-9232.42
-9332.27
-9456.35
-9602.85
-9769.2
-9949.97
-10135.6
-10312.1
-10461.8
-10563.3
-10601.4
-10554.8
-10425.8
-10216
-9931.88
-9584.24
-9187.21
-8758.18
-8316.56
-7880
-7461.6
-7069.07
-6704.23
-6364.53
-6044.46
-5737.39
-5436.32
-5135.5
-4830.72
-4519.9
-4203.39
-3883.88
-3565.9
-3254.56
-2954
-2665.71
-2387.85
-2116.09
-1851.31
-1592.1
-1261.79
-904.002
-516.987
-97.8478
353.854
837.458
1351.87
1896.48
2472.07
3081.48
3729.79
4423.85
5171.02
5977.52
6846.84
7778.62
8768.47
9808.35
10887.3
11992.8
13111.3
14230
15337.4
16424.7
17485.4
18515.8
19513.6
20477.2
21405.2
22295.8
23145.9
23951.2
24706.3
25404.6
26039.3
26603.2
27089.8
27493.2
27808.9
28034
28166.4
28221.6
28187.9
28053.3
27816.3
27487.5
27074.5
26585.4
26029.2
25415.1
24751
24039.8
23285.5
22491.6
21660.2
20792.3
19887.6
18945.3
17964.7
16945.5
15887.9
14794.1
13667.5
12512.6
11334.3
10136.9
8924.4
7699.01
6461.28
5210.28
3939.97
2649.61
1333.75
-62.7231
-1449.34
-2868.87
-4318.76
-5794.76
-7290
-8790.89
-10282.4
-11750.9
-13185.3
-14579.6
-15932.9
-17248.8
-18534.9
-19800
-21051.6
-22297
-23533.3
-24774.9
-7906.63
-8393.86
-8900.92
-9430.54
-9979
-10526.9
-11052.6
-11528.1
-11919.3
-12211
-12399.4
-12496.7
-12504.7
-12426.7
-12271.1
-12050.1
-11778.7
-11473.7
-11151.5
-10828.2
-10518.7
-10235.5
-9978.63
-9741.38
-9532.48
-9359.4
-9224.33
-9127.16
-9067.21
-9043.2
-9050.82
-9091.24
-9164.05
-9267.08
-9396.16
-9549.47
-9724.89
-9916.94
-10115.7
-10306.3
-10470
-10585.3
-10634.1
-10592.6
-10464
-10249.7
-9956.31
-9595.07
-9180.36
-8731.04
-8269.11
-7814.75
-7382.58
-6980.95
-6611.57
-6271.23
-5953.3
-5649.78
-5352.72
-5055.33
-4752.65
-4442.02
-4123.74
-3801.12
-3479.68
-3165.74
-2864.37
-2577.54
-2303.06
-2035.4
-1771.04
-1513.27
-1185.33
-831.284
-446.161
-27.7019
424.067
907.962
1422.36
1966.14
2539.75
3146.01
3790.44
4480.67
5225.08
6030.89
6902.25
7839.05
8836.75
9886.79
10977.5
12095.4
13226.2
14356
15472.8
16567
17632.5
18665.5
19664.2
20627.3
21554.2
22443.3
23292.2
24096.6
24850.9
25548.6
26182.4
26744.9
27229.2
27629
27939.7
28158.1
28282.1
28327
28281.8
28137.5
27892.5
27552.5
27127.4
26626.5
26059.7
25436.7
24762.3
24039.9
23274.6
22470.7
21630.8
20755.9
19845.7
18899
17914.8
16892
15830.7
14732.8
13601.9
12443
11261.3
10061.6
8848.16
7623.61
6388.49
5141.81
3877.3
2593.12
1283.21
-109.444
-1494.42
-2916.13
-4371.83
-5857.09
-7363.22
-8874.74
-10375.4
-11849.9
-13286.4
-14678.4
-16025.8
-17333.3
-18610.2
-19866.9
-21112.5
-22354.8
-23591.2
-24834.6
-7887.28
-8385.15
-8900.57
-9447.63
-10016.7
-10584.6
-11128.3
-11624.7
-12031.5
-12328.2
-12515.3
-12605.6
-12601.9
-12508.9
-12336.5
-12097.7
-11808.6
-11487.1
-11150.4
-10815.3
-10497.5
-10206.9
-9942.15
-9698.21
-9479.92
-9298.92
-9157.55
-9055.45
-8991.37
-8963.92
-8968.92
-9007.98
-9081.28
-9187.12
-9321.46
-9482.03
-9667.53
-9872.74
-10087.5
-10296.3
-10478.9
-10613.5
-10677.2
-10644.7
-10519.4
-10302.4
-10000.6
-9625.41
-9191.14
-8718.57
-8233.16
-7758.29
-7310.3
-6898.13
-6523.62
-6182.79
-5867.62
-5568.65
-5276.61
-4983.76
-4684
-4373.74
-4053.21
-3726.63
-3400.81
-3083.45
-2780.79
-2495.32
-2224.59
-1961.88
-1699.38
-1444.8
-1121.74
-772.149
-389.614
27.6205
479.096
963.041
1477.16
2019.67
2590.55
3192.56
3831.68
4516.47
5256.48
6060.14
6932.47
7873.64
8879.13
9939.86
11043.4
12175.4
13320.4
14463.5
15591.7
16695.1
17767.2
18804.7
19805.7
20769.8
21696.9
22586.1
23435.2
24240.2
24995.5
25694.5
26329.5
26892.8
27376.8
27775
28082.4
28295.7
28412.3
28447.7
28391.4
28235.2
27981.4
27631.5
27194.6
26681.8
26104.6
25471.2
24784.4
24049.2
23271.8
22457.1
21608
20725.9
19809.8
18858.5
17870.4
16843.9
15778.5
14675.7
13539.7
12375.9
11189.8
9986.98
8771.98
7547.91
6315.34
5073.32
3815.2
2538.09
1235.05
-153.33
-1536.51
-2961.13
-4424.25
-5920.81
-7439.9
-8964.3
-10476.1
-11958.3
-13397.7
-14787.3
-16128
-17425.5
-18691.5
-19938.4
-21176.7
-22415.1
-23652.5
-24899.4
-7860.21
-8369.91
-8896.35
-9464.42
-10055.8
-10647.4
-11213.3
-11732.2
-12159.3
-12461.5
-12650.4
-12735.5
-12720.3
-12611.4
-12420.1
-12160.9
-11851.3
-11510.5
-11157
-10808.5
-10481.8
-10181
-9904.74
-9651.86
-9422.55
-9232.37
-9083.46
-8975.15
-8905.57
-8873.16
-8874.03
-8910.39
-8983.13
-9091.2
-9231
-9399.36
-9596
-9816.31
-10050.2
-10281.2
-10487.7
-10646
-10731.4
-10710.9
-10592
-10374.2
-10064.3
-9674.49
-9218.12
-8718.69
-8206.19
-7707.86
-7242.17
-6817.73
-6437.64
-6096.74
-5785.39
-5492.44
-5207.24
-4920.46
-4623.57
-4312.95
-3989.97
-3658.87
-3327.84
-3006.28
-2701.76
-2417.52
-2150.95
-1894.17
-1635.7
-1385.12
-1069.31
-725.181
-346.108
69.3396
520.247
1004.15
1517.9
2058.87
2626.41
3223.15
3855.58
4533.29
5267.22
6067.21
6939.42
7884.3
8897.53
9969.51
11087
12234.8
13396.2
14554.8
15696.8
16811.5
17892.1
18935.7
19940.4
20906.6
21835.1
22725.4
23575.9
24382.9
25140.9
25843
26481.2
27047.2
27533.1
27931.6
28237.4
28446.9
28557.2
28583.6
28516.7
28348.2
28082.1
27722
27274.1
26749.6
26161.7
25516.4
24815.8
24066.4
23275.9
22449.6
21590.9
20701.2
19779.3
18823.3
17831.4
16801
15731
14622.7
13480.6
12311
11119.5
9912.75
8695.51
7471.57
6241.5
5004.53
3753.55
2484.54
1189.45
-193.931
-1575.04
-3003.42
-4475.67
-5985.64
-7520.02
-9059.84
-10585.3
-12076.9
-13519.9
-14906.8
-16239.8
-17525.8
-18779.1
-20014.8
-21245.2
-22480.4
-23719.5
-24969.4
-7826.5
-8348.74
-8889.32
-9477.36
-10093.1
-10712.9
-11307.5
-11851.1
-12301.5
-12615.7
-12807.7
-12889
-12862.4
-12736.5
-12524.4
-12242.1
-11908.9
-11545.9
-11173.5
-10811.3
-10473.2
-10158.7
-9867.47
-9601.91
-9359.83
-9159.15
-9001.47
-8885.65
-8809.37
-8770.4
-8765.5
-8797.6
-8868.46
-8977.97
-9123.17
-9299.88
-9508.69
-9746
-10002
-10259.6
-10495.1
-10682.6
-10795.3
-10791.4
-10682.5
-10465.7
-10147.4
-9741.82
-9260.1
-8729.65
-8186.01
-7661.09
-7174.74
-6737.23
-6351.25
-6010.99
-5704.98
-5420.35
-5144.59
-4864.47
-4570.15
-4258.64
-3932.34
-3596.52
-3259.62
-2933.07
-2626.01
-2342.76
-2080.71
-1830.95
-1580.53
-1331.49
-1026.57
-689.353
-314.784
98.298
548.457
1032.4
1545.89
2085.2
2648.93
3239.45
3863.87
4532.84
5258.84
6053.57
6924.54
7872.35
8893.29
9977.13
11109.8
12275.2
13455.3
14631.8
15790.1
16918.2
18009.4
19060.4
20070
21039.4
21970
22862.3
23715.3
24525.6
25287.6
25994.4
26637.8
27208.7
27698.3
28099.1
28404.9
28612
28717
28735.1
28657.7
28477
28197.1
27823.4
27362.8
26826.4
26228.1
25570.6
24855.3
24090.5
23286
22447.4
21578.6
20681.3
19753.5
18792.9
17797.3
16763
15688.2
14573.7
13424.6
12248.1
11050.3
9838.58
8618.33
7394.16
6166.48
4935.06
3692.05
2432.37
1146.52
-230.693
-1609.33
-3042.45
-4525.61
-6051.17
-7603.51
-9161.58
-10703.4
-12206.4
-13653.9
-15037.7
-16361.7
-17633.7
-18871.6
-20094.2
-21315.2
-22545.2
-23785.9
-25040.6
-7787.37
-8321.64
-8875.99
-9482.75
-10124.8
-10778.4
-11409.2
-11981.9
-12459.5
-12794.3
-12990.5
-13069.6
-13031.2
-12886.6
-12651.9
-12343.7
-11983.5
-11595.5
-11202.9
-10826.5
-10472.6
-10139.9
-9830
-9547.63
-9291.2
-9078.72
-8911.08
-8786.25
-8702.67
-8655.23
-8642.82
-8668.87
-8736.15
-8845.89
-8996.09
-9181.64
-9403.47
-9659.58
-9940.91
-10229.6
-10499.6
-10721.4
-10866.8
-10886.4
-10792.1
-10578
-10249.9
-9826.6
-9315.76
-8749.79
-8170.62
-7616.08
-7106.25
-6654.3
-6262.21
-5923.59
-5625.02
-5351.8
-5087.09
-4814.23
-4523.02
-4210.62
-3880.24
-3538.85
-3195.38
-2862.92
-2552.41
-2269.71
-2012.45
-1770.65
-1529.59
-1285.85
-992.545
-663.944
-295.087
115.041
564.385
1048.65
1562.15
2099.87
2659.46
3242.91
3858.08
4516.55
5232.67
6020.38
6888.88
7838.66
8867.27
9963.57
11112.8
12297.9
13499.3
14696.2
15873.3
17017.1
18120.7
19180.7
20196.2
21169.5
22103
22997.8
23854.1
24668.6
25436
26149.2
26799.5
27377.4
27873
28277.9
28585.5
28791.6
28892.1
28902.5
28815
28621.7
28327.5
27938.6
27462.8
26912.3
26301.4
25632
24901.7
24120.6
23301.2
22449.6
21570.2
20665.3
19731.7
18766.6
17767.7
16729.7
15649.9
14528.4
13371.2
12186.9
10981.6
9763.97
8539.85
7315.13
6089.72
4864.43
3630.37
2381.43
1106.13
-263.009
-1638.84
-3077.93
-4573.83
-6117.41
-7690.83
-9270.36
-10831.7
-12348.4
-13801.4
-15181
-16494.5
-17750.1
-18970.8
-20178.6
-21387.5
-22613.5
-23860.9
-25121
-7744.81
-8288.5
-8852.79
-9475.88
-10146.2
-10841.1
-11517.5
-12125.9
-12638
-12997.2
-13203
-13281.8
-13230
-13064.6
-12805.8
-12468.7
-12077.8
-11661.9
-11249.4
-10855.2
-10479.6
-10123.7
-9791.29
-9488.34
-9216.08
-8990.5
-8811.78
-8677.04
-8584.48
-8527.15
-8505.74
-8523.76
-8585.33
-8693.46
-8847.68
-9042.32
-9277.56
-9553.98
-9863.84
-10188.6
-10498.9
-10759.6
-10917.8
-10996
-10922.7
-10712.5
-10371.9
-9927.19
-9383.26
-8777.46
-8157.96
-7570.79
-7035.5
-6566.89
-6168.27
-5832.59
-5544.16
-5284.76
-5032.57
-4768.67
-4481.9
-4169.07
-3834.1
-3485.77
-3134.74
-2795.18
-2479.87
-2196.97
-1944.55
-1711.56
-1481.63
-1246.2
-966.362
-648.36
-286.646
119.91
568.514
1053.62
1567.56
2103.9
2659.23
3234.98
3839.8
4485.99
5190.18
5968.96
6833.53
7783.9
8820.15
9929.47
11096.7
12303.6
13529.3
14749.4
15948.3
17110.2
18228
19298.4
20320.6
21298.6
22235.3
23133
23993
24812.6
25586.3
26307.1
26966.4
27553.3
28056.9
28468
28779.3
28985.8
29083
29086.5
28988.9
28783
28473.8
28068.6
27576.3
27010.5
26384
25699
24954.2
24155.7
23320.7
22455.5
21565.1
20652.7
19713.5
18744.2
17742.6
16701.3
15616.6
14487.3
13321
12127.9
10913.7
9689.15
8460.04
7234.33
6010.83
4792.22
3568.24
2331.73
1068.09
-289.003
-1661.98
-3108.39
-4618.54
-6182.75
-7780.78
-9385.36
-10970.1
-12502.9
-13962.4
-15337.4
-16639.2
-17875.6
-19074.1
-20262.7
-21460.9
-22682
-23921.6
-25173.5
-7717.86
-8263.04
-8829.67
-9461.39
-10152.2
-10882.2
-11597.1
-12234.1
-12774.8
-13151.7
-13368.5
-13447.6
-13384
-13202.2
-12927.6
-12569.6
-12155.3
-11719.6
-11293.1
-10881.8
-10488
-10113.3
-9763.22
-9444.5
-9160.56
-8925.42
-8738.79
-8597.13
-8497.16
-8432.35
-8403.46
-8414.33
-8470.29
-8575.88
-8731.98
-8933.13
-9178.44
-9470.54
-9803.1
-10156.8
-10499.5
-10791.4
-10977.1
-11085.2
-11027.3
-10819.3
-10467
-10004.1
-9435.14
-8799.62
-8148.86
-7537.85
-6983.69
-6503.14
-6100.57
-5768.63
-5489.01
-5240.29
-4998.02
-4741.49
-4458.41
-4145.26
-3806.43
-3452.1
-3094.92
-2749.75
-2430.39
-2147.29
-1898.68
-1672.66
-1451.66
-1223.73
-954.697
-644.769
-288.428
115.739
564.375
1050.42
1564.64
2100.14
2652.38
3222.4
3819.39
4455.82
5150.41
5921.9
6783.32
7733.25
8775.26
9894.16
11074.9
12298.4
13542.8
14780.4
15996.1
17171.6
18299.9
19377.9
20404.9
21386.1
22325.2
23225
24087.7
24911.3
25690.2
26417.4
27084
27678.5
28189
28605.6
28920.3
29127.9
29223.4
29222.3
29117.9
28903.1
28583.2
28166.5
27662.1
27085
26446.3
25748.3
24992.7
24181.9
23336.1
22461.2
21563.1
20646.1
19703.3
18731.2
17728.2
16684.7
15596.7
14461.3
13287.7
12088
10866.7
9636.94
8403.82
7177.55
5955.25
4741.82
3525.6
2298.77
1041.9
-300.663
-1674.1
-3126.66
-4647.76
-6228.33
-7846.09
-9470.32
-11073.7
-12619.6
-14084.3
-15454.3
-16745.7
-17964.9
-19145.9
-20325.1
-21512.3
-22718.1
-23963.7
-25206.1
-7704.97
-8249.25
-8815.72
-9451.12
-10153
-10903.2
-11639.9
-12292.8
-12849.7
-13235.9
-13459.7
-13538.9
-13468.2
-13277
-12994.8
-12625.7
-12198.7
-11752.7
-11317.7
-10896.8
-10492.7
-10107.8
-9748.06
-9420.83
-9130.63
-8890.36
-8699.52
-8554.16
-8450.3
-8381.38
-8348.25
-8355.03
-8407.66
-8511.5
-8668.31
-8872.92
-9123.66
-9424.35
-9769.54
-10139.4
-10500.1
-10809.9
-11017
-11135.4
-11085.4
-10878.3
-10519.1
-10045.9
-9463.29
-8811.84
-8143.86
-7520.13
-6955.78
-6468.85
-6064.31
-5734.58
-5459.83
-5217.12
-4980.38
-4728
-4447.03
-4133.73
-3792.74
-3435
-3074.31
-2726.06
-2404.38
-2121.15
-1874.65
-1652.47
-1436.4
-1212.71
-949.786
-644.236
-290.798
112.163
560.946
1047.47
1561.82
2096.89
2647.5
3214.44
3807.19
4438.21
5127.41
5894.81
6754.48
7703.94
8749.08
9873.1
11061.2
12293.7
13548.4
14795.4
16020.3
17203.1
18337.2
19419.3
20448.8
21431.8
22372.1
23273
24137.2
24963.1
25744.8
26475.5
27146.3
27745.1
28259.4
28679.1
28995.9
29204.2
29298.9
29295.4
29187.5
28968
28642.5
28219.7
27709
27125.8
26480.3
25775
25013.4
24196
23344.5
22464.5
21562.3
20643
19698.3
18724.7
17721.2
16676.7
15587
14448.1
13270.5
12067.2
10842.1
9609.39
8373.99
7147.43
5925.68
4715.09
3503.13
2281.68
1028.57
-306.013
-1679.56
-3135.48
-4662.49
-6252.08
-7880.81
-9515.9
-11129.8
-12682.7
-14149.9
-15517.1
-16803.6
-18014.4
-19185.7
-20354.6
-21532.3
-22734.4
-23985.7
-25210.5
-7693.7
-8234.85
-8799.16
-9436.91
-10150
-10923.1
-11683.9
-12353.8
-12927.9
-13323.8
-13556.7
-13635.8
-13556.9
-13355.3
-13066.5
-12686
-12245.8
-11789.4
-11344.1
-10912.7
-10498
-10102.1
-9732.36
-9396.4
-9099.76
-8854.17
-8658.99
-8509.8
-8401.99
-8328.86
-8291.33
-8293.74
-8342.6
-8444.16
-8601.22
-8809.16
-9065.26
-9374.75
-9733.19
-10120.1
-10499.9
-10829.1
-11058.4
-11188.8
-11147
-10940.6
-10573.9
-10089.6
-9492.59
-8824.78
-8138.68
-7502.02
-6927.11
-6433.56
-6026.94
-5699.44
-5429.81
-5193.54
-4962.84
-4715.07
-4436.54
-4123.25
-3780.06
-3418.63
-3054.11
-2702.55
-2378.22
-2094.74
-1850.31
-1632.08
-1421.18
-1202.09
-945.821
-644.939
-294.595
107.162
556.104
1043.11
1557.6
2092.31
2641.33
3205.24
3793.65
4418.91
5102.36
5865.3
6723.05
7671.68
8719.99
9849.13
11044.7
12286.5
13552.2
14808.9
16043.6
17234.1
18374
19460.5
20492.6
21477.3
22419
23320.9
24186.6
25014.7
25799.5
26533.8
27209
27812.5
28330.9
28754.1
29073.2
29282.5
29376.4
29370.8
29259.3
29035.1
28704
28275.1
27757.9
27168.4
26515.9
25802.9
25034.7
24210.6
23353.3
22468
21561.7
20640.1
19693.6
18718.6
17714.8
16669.4
15578.1
14435.7
13253.9
12047
10817.6
9581.92
8343.98
7117.08
5895.75
4688.06
3480.59
2264.89
1016.39
-310.828
-1683.69
-3143
-4675.98
-6275.02
-7915.41
-9561.85
-11186.7
-12747.1
-14218.2
-15582.6
-16863.1
-18062.9
-19220.8
-20380.3
-21555.1
-22748.9
-23949.1
-24984.2
-7684.98
-8220.03
-8779.63
-9418.02
-10142.5
-10941.7
-11729.1
-12417.1
-13009.7
-13415.7
-13660
-13738.9
-13650.1
-13436.7
-13143.1
-12750.9
-12297.2
-11829.9
-11371.7
-10929.7
-10503.7
-10096.2
-9716.08
-9371.16
-9067.91
-8816.83
-8617.13
-8464.04
-8352.23
-8274.83
-8232.74
-8230.54
-8275.17
-8373.83
-8530.6
-8741.71
-9003.07
-9321.58
-9693.95
-10098.9
-10498.8
-10849.1
-11101.1
-11245.9
-11212.2
-11006.4
-10631.2
-10135.5
-9523.28
-8838.37
-8133.13
-7483.48
-6897.58
-6397.02
-5988.1
-5662.88
-5398.74
-5169.42
-4945.33
-4702.67
-4426.95
-4113.84
-3768.4
-3402.99
-3034.26
-2679.16
-2351.82
-2067.95
-1825.58
-1611.4
-1405.92
-1191.78
-942.665
-646.819
-299.699
100.757
549.914
1037.46
1552.1
2086.51
2634
3194.96
3778.95
4398.12
5075.45
5833.6
6689.29
7636.66
8688.26
9822.57
11025.9
12277.3
13554.5
14821.3
16066.4
17264.7
18410.8
19501.9
20536.5
21523.1
22466.1
23368.9
24236.1
25066.6
25854.4
26592.6
27272.5
27880.9
28403.8
28830.6
29152.3
29362.8
29456.2
29448.4
29333.4
29104.5
28767.7
28332.5
27808.8
27212.8
26552.9
25831.9
25056.5
24225.6
23362.5
22471.8
21561.2
20637.6
19689.4
18713
17708.9
16662.7
15569.9
14423.8
13237.6
12027
10793.2
9554.32
8313.61
7086.4
5865.39
4660.69
3457.95
2248.37
1005.22
-315.197
-1686.69
-3149.56
-4688.63
-6297.64
-7950.31
-9608.55
-11246.1
-12815.3
-14287.2
-15646.7
-16922.3
-18112.4
-19260.4
-20408.8
-21532.2
-22568.7
-23107.5
-21789.5
-7680.28
-8205.08
-8756.3
-9393.23
-10129.7
-10959.1
-11775.6
-12482.5
-13095.2
-13512.2
-13770.5
-13848.8
-13748.1
-13520.9
-13225.3
-12821.2
-12354.1
-11873.9
-11400.1
-10947.6
-10509.8
-10090.1
-9699.16
-9345.1
-9035.06
-8778.28
-8573.89
-8416.81
-8301
-8219.29
-8172.55
-8165.52
-8205.48
-8300.52
-8456.28
-8670.3
-8936.78
-9264.58
-9651.64
-10075.8
-10496.9
-10869.9
-11146.2
-11304.8
-11281.2
-11075.5
-10691.2
-10183.7
-9555.59
-8852.58
-8127.06
-7464.51
-6867.05
-6359.02
-5947.53
-5624.62
-5366.44
-5144.66
-4927.78
-4690.79
-4418.29
-4105.57
-3757.84
-3388.15
-3014.76
-2655.87
-2325.11
-2040.7
-1800.36
-1590.33
-1390.52
-1181.78
-940.13
-649.824
-306.164
92.85
542.359
1030.51
1545.35
2079.52
2625.53
3183.68
3763.16
4375.88
5046.69
5799.68
6653.2
7598.84
8653.86
9793.35
11004.7
12266
13555.3
14832.6
16088.6
17295
18447.6
19543.4
20580.7
21569.1
22513.4
23417.1
24285.6
25118.6
25909.6
26651.7
27336.6
27950.2
28477.9
28908.6
29233.2
29445.2
29538.1
29528.3
29409.9
29176.2
28833.6
28392.1
27861.7
27258.9
26591.2
25861.8
25078.7
24240.9
23372
22475.8
21560.8
20635.3
19685.4
18707.5
17703.6
16656.6
15562.4
14412.5
13221.5
12007.1
10768.6
9526.47
8282.75
7055.27
5834.43
4632.84
3435.08
2231.98
994.866
-319.165
-1688.65
-3155.29
-4700.54
-6320
-7986.02
-9657.4
-11306.2
-12880.2
-14359.2
-15721.3
-16987.7
-18158.6
-19259.6
-20266.7
-20808.9
-19596.7
-14187.2
-6827.05
-7682.19
-8190.68
-8727.41
-9360.75
-10110.1
-10975.3
-11823.8
-12550.2
-13184.6
-13614.3
-13888.9
-13966.2
-13850.9
-13607.2
-13314
-12897.7
-12417.4
-11920.8
-11428.4
-10966.5
-10516.3
-10083.6
-9681.53
-9318.16
-9001.19
-8738.5
-8529.18
-8368.05
-8248.26
-8162.23
-8110.82
-8098.85
-8133.67
-8224.29
-8378.14
-8594.6
-8866.03
-9203.46
-9606.07
-10050.7
-10493.9
-10891.4
-11193.6
-11365.5
-11354.1
-11148.1
-10753.8
-10234.6
-9589.82
-8867.36
-8120.24
-7445
-6835.36
-6319.4
-5905.02
-5584.42
-5332.74
-5119.12
-4910.14
-4679.43
-4410.62
-4098.52
-3748.46
-3374.22
-2995.59
-2632.62
-2298
-2012.93
-1774.56
-1568.78
-1374.9
-1172.1
-938.065
-653.911
-314.042
83.3809
533.441
1022.29
1537.35
2071.37
2615.94
3171.47
3746.37
4352.24
5016.11
5763.57
6614.81
7558.14
8616.78
9761.47
10981.1
12252.7
13554.8
14842.8
16110.4
17325.2
18484.5
19585.3
20625
21615.4
22561
23465.4
24335.3
25170.7
25964.9
26711.1
27401.3
28020.5
28553.2
28988.3
29316
29529.6
29622.3
29610.5
29488.7
29250.2
28901.7
28453.8
27916.6
27306.8
26630.8
25892.7
25101.4
24256.5
23381.8
22480
21560.5
20633.2
19681.6
18702.4
17698.8
16651.2
15555.7
14401.6
13205.7
11987.5
10743.9
9498.43
8251.41
7023.71
5802.9
4604.47
3412.01
2215.79
985.38
-322.591
-1689.41
-3160.05
-4711.45
-6342.32
-8022.35
-9703.69
-11367.1
-12961.3
-14444.6
-15780.9
-17010.8
-18041.6
-18507.4
-16987.6
-11590.3
-5177.22
-1293.94
-44.8549
-7699.86
-8176.64
-8688.97
-9317.8
-10081.9
-10990.3
-11873.8
-12620
-13278
-13724.7
-14016.2
-14092.2
-13958.6
-13694.5
-13410.7
-12982.2
-12488
-11970
-11455.8
-10986.6
-10522.9
-10076.5
-9663.12
-9290.33
-8966.27
-8697.45
-8482.96
-8317.64
-8193.95
-8103.62
-8047.65
-8030.7
-8059.97
-8145.29
-8296.05
-8514.17
-8790.34
-9137.91
-9557.08
-10023.5
-10489.6
-10913.4
-11241.7
-11429.7
-11431.1
-11224.2
-10819.3
-10288.4
-9626.27
-8882.74
-8112.39
-7424.83
-6802.38
-6278.03
-5860.39
-5541.99
-5297.44
-5092.69
-4892.35
-4668.61
-4404
-4092.79
-3740.38
-3361.27
-2976.81
-2609.35
-2270.41
-1984.56
-1748.11
-1546.64
-1358.98
-1162.88
-936.246
-659.064
-323.37
72.2916
523.163
1012.78
1528.1
2062.07
2605.24
3158.43
3728.66
4327.22
4983.73
5725.23
6574.13
7514.49
8576.99
9726.86
10954.9
12237.2
13552.9
14852
16131.8
17355.3
18521.4
19627.4
20669.6
21662
22609
23513.9
24385
25222.9
26020.4
26770.8
27466.6
28091.7
28629.7
29069.4
29400.6
29616.1
29708.7
29695.1
29569.9
29326.6
28972
28517.8
27973.6
27356.3
26671.8
25924.6
25124.6
24272.3
23391.9
22484.3
21560.1
20631.4
19678.1
18697.4
17694.4
16646.3
15549.7
14391.3
13190.1
11968.2
10719.1
9470.14
8219.5
6991.69
5770.72
4575.54
3388.68
2199.71
976.697
-325.408
-1688.81
-3163.84
-4721.54
-6363.41
-8057.25
-9758.38
-11444.2
-13023.3
-14480.2
-15672.2
-16007.2
-13363.7
-8006.81
-3017.91
-709.764
25.8668
35.6755
32.2597
-7746.67
-8161.46
-8636.38
-9257.97
-10041.8
-11005
-11927.8
-12694.2
-13378.8
-13857.1
-14157.8
-14232.2
-14075.3
-13784.4
-13521.9
-13081.4
-12569.3
-12022.9
-11482