/*--------------------------------*- C++ -*----------------------------------*\
| =========                 |                                                 |
| \\      /  F ield         | OpenFOAM: The Open Source CFD Toolbox           |
|  \\    /   O peration     | Version:  v1912                                 |
|   \\  /    A nd           | Website:  www.openfoam.com                      |
|    \\/     M anipulation  |                                                 |
\*---------------------------------------------------------------------------*/
FoamFile
{
    version     2.0;
    format      ascii;
    class       volScalarField;
    location    "50";
    object      alpha.water;
}
// * * * * * * * * * * * * * * * * * * * * * * * * * * * * * * * * * * * * * //

dimensions      [0 0 0 0 0 0 0];


internalField   nonuniform List<scalar> 
14268
(
1
1
1
1
1
1
1
1
1
1
1
1
1
1
1
1
1
1
1
1
1
1
1
1
1
1
1
1
1
1
1
1
1
1
1
1
1
1
1
1
1
1
1
1
1
1
1
1
1
1
1
1
1
1
1
1
1
1
1
1
1
1
1
1
1
1
1
1
1
1
1
1
1
1
1
1
1
1
1
1
1
1
1
1
1
1
1
1
1
1
1
1
1
1
1
1
1
1
1
1
1
1
1
1
1
1
1
1
1
1
1
1
1
1
1
1
1
1
1
1
1
1
1
1
1
1
1
1
1
1
1
1
1
1
1
1
1
1
1
1
1
1
1
1
1
1
1
1
1
1
1
1
1
1
1
1
1
1
1
1
1
1
1
1
1
1
1
1
1
1
1
1
1
1
1
1
1
1
1
1
1
1
1
1
1
1
1
1
1
1
1
1
0.813914
0.836498
0.85607
0.873772
0.889746
0.902945
0.912356
0.920548
0.16611
0.195125
0.225863
0.257764
0.290547
0.322714
0.35181
0.38036
0.000772179
0.00104367
0.00146233
0.00207076
0.0029367
0.004486
0.00949478
0.0237918
2.90936e-07
7.67061e-07
1.55655e-06
2.17291e-06
3.6631e-06
6.59464e-06
1.54792e-05
2.1264e-10
1.34774e-10
1.75717e-10
9.20013e-11
2.75916e-10
4.17295e-10
1.50903e-28
9.76397e-10
2.1376e-10
-4.65872e-36
-6.78735e-36
-5.59812e-36
-3.64375e-36
-2.3837e-36
-4.36747e-37
-4.75073e-37
8.39327e-12
-2.08957e-36
-7.95065e-37
-5.31259e-37
-8.41839e-37
-1.96713e-36
-3.87213e-36
-2.00976e-34
2.89391e-23
-7.85137e-38
-2.371e-37
-7.21758e-37
-2.03252e-36
-5.60954e-36
-1.25053e-35
-2.64341e-35
-7.51928e-43
-1.47451e-37
-4.90003e-37
-1.59147e-36
-4.79355e-36
-1.41412e-35
-3.54975e-35
-8.7332e-35
-1.83181e-34
-2.51069e-37
-8.95723e-37
-3.05739e-36
-9.73971e-36
-3.01415e-35
-8.14894e-35
-2.15386e-34
-5.11473e-34
-3.83815e-37
-1.45331e-36
-5.15277e-36
-1.72649e-35
-5.58866e-35
-1.63086e-34
-4.58564e-34
-1.1667e-33
-5.16114e-37
-2.04718e-36
-7.44457e-36
-2.60035e-35
-8.66887e-35
-2.65135e-34
-7.71758e-34
-2.05906e-33
-6.115e-37
-2.51798e-36
-9.32228e-36
-3.38617e-35
-1.16101e-34
-3.71101e-34
-1.1078e-33
-3.0398e-33
-6.29989e-37
-2.6656e-36
-9.95979e-36
-3.73996e-35
-1.30268e-34
-4.26346e-34
-1.29197e-33
-3.63114e-33
-5.62613e-37
-2.43158e-36
-9.15017e-36
-3.55178e-35
-1.25511e-34
-4.17209e-34
-1.27335e-33
-3.61527e-33
-4.33443e-37
-1.9023e-36
-7.21006e-36
-2.88448e-35
-1.02388e-34
-3.39508e-34
-1.03737e-33
-2.96666e-33
-2.82624e-37
-1.26102e-36
-4.86937e-36
-2.00612e-35
-7.12797e-35
-2.33049e-34
-7.10086e-34
-2.0287e-33
-1.5565e-37
-7.1127e-37
-2.84651e-36
-1.19758e-35
-4.21768e-35
-1.34674e-34
-4.0963e-34
-1.16807e-33
-7.03403e-38
-3.3412e-37
-1.41308e-36
-5.97782e-36
-2.08411e-35
-6.55101e-35
-2.00432e-34
-5.69308e-34
-2.62623e-38
-1.31794e-37
-5.91401e-37
-2.47265e-36
-8.59584e-36
-2.7339e-35
-8.48724e-35
-2.40402e-34
-7.8258e-39
-4.19792e-38
-1.96193e-37
-8.07741e-37
-2.88077e-36
-9.70071e-36
-3.05915e-35
-8.65311e-35
-1.87676e-39
-1.06827e-38
-5.06092e-38
-2.12846e-37
-8.14979e-37
-2.97044e-36
-9.32584e-36
-2.6408e-35
-3.36102e-40
-1.97609e-39
-1.00807e-38
-4.72764e-38
-1.97425e-37
-7.43784e-37
-2.31516e-36
-6.73633e-36
-4.78548e-41
-3.01387e-40
-1.66459e-39
-8.19374e-39
-3.51607e-38
-1.38733e-37
-4.79171e-37
-1.55406e-36
-6.26727e-42
-3.93423e-41
-2.24313e-40
-1.16835e-39
-5.47628e-39
-2.3236e-38
-8.64026e-38
-2.95554e-37
-7.39761e-43
-4.97761e-42
-2.97026e-41
-1.55909e-40
-7.40656e-40
-3.23656e-39
-1.28467e-38
-4.84417e-38
-8.18815e-44
-5.5131e-43
-3.38068e-42
-1.88817e-41
-9.70988e-41
-4.49113e-40
-1.85458e-39
-7.18235e-39
-8.06421e-45
-5.84102e-44
-3.76473e-43
-2.14375e-42
-1.12411e-41
-5.38619e-41
-2.38114e-40
-9.96801e-40
-7.58235e-46
-5.55095e-45
-3.644e-44
-2.19038e-43
-1.23522e-42
-6.27096e-42
-2.91416e-41
-1.27057e-40
-6.25392e-47
-4.85406e-46
-3.37311e-45
-2.11917e-44
-1.2336e-43
-6.50166e-43
-3.21995e-42
-1.50733e-41
-5.00874e-48
-3.92403e-47
-2.79226e-46
-1.83646e-45
-1.13406e-44
-6.35612e-44
-3.34893e-43
-1.6485e-42
-3.61963e-49
-2.8733e-48
-2.15396e-47
-1.50387e-46
-9.72259e-46
-5.71635e-45
-3.20172e-44
-1.68021e-43
-2.48362e-50
-1.98642e-49
-1.52233e-48
-1.11461e-47
-7.56519e-47
-4.72783e-46
-2.82743e-45
-1.57279e-44
-1.59994e-51
-1.28045e-50
-1.00352e-49
-7.72935e-49
-5.53328e-48
-3.68049e-47
-2.34406e-46
-1.38724e-45
-9.57447e-53
-7.6851e-52
-6.13021e-51
-4.86475e-50
-3.68105e-49
-2.61611e-48
-1.77204e-47
-1.11468e-46
-5.53731e-54
-4.45373e-53
-3.59914e-52
-2.91898e-51
-2.3251e-50
-1.76319e-49
-1.26804e-48
-8.52192e-48
-2.9707e-55
-2.37033e-54
-1.92606e-53
-1.59223e-52
-1.3243e-51
-1.07719e-50
-8.26605e-50
-5.95592e-49
-1.55267e-56
-1.24032e-55
-1.01961e-54
-8.60482e-54
-7.3984e-53
-6.35485e-52
-5.16856e-51
-3.97894e-50
-7.62752e-58
-5.98853e-57
-4.89736e-56
-4.17451e-55
-3.69198e-54
-3.32321e-53
-2.90573e-52
-2.41677e-51
-3.62961e-59
-2.84175e-58
-2.35465e-57
-2.05647e-56
-1.87199e-55
-1.74124e-54
-1.61731e-53
-1.43236e-52
-1.65244e-60
-1.27085e-59
-1.04233e-58
-9.09245e-58
-8.37043e-57
-8.02784e-56
-7.90703e-55
-7.53788e-54
-7.27017e-62
-5.53421e-61
-4.57133e-60
-4.07083e-59
-3.86837e-58
-3.84735e-57
-3.92803e-56
-3.96029e-55
-3.08975e-63
-2.31296e-62
-1.89004e-61
-1.67406e-60
-1.59518e-59
-1.61134e-58
-1.69965e-57
-1.81779e-56
-1.27192e-64
-9.37639e-64
-7.64585e-63
-6.87223e-62
-6.72727e-61
-7.02073e-60
-7.64971e-59
-8.48145e-58
-5.08268e-66
-3.68531e-65
-2.978e-64
-2.66092e-63
-2.59605e-62
-2.71988e-61
-3.01675e-60
-3.47025e-59
-1.97519e-67
-1.40846e-66
-1.12908e-65
-1.01178e-64
-1.0042e-63
-1.08194e-62
-1.23841e-61
-1.46744e-60
-7.47816e-69
-5.24333e-68
-4.16178e-67
-3.71013e-66
-3.67281e-65
-3.95417e-64
-4.55988e-63
-5.52155e-62
-2.76263e-70
-1.90392e-69
-1.49504e-68
-1.32726e-67
-1.3214e-66
-1.44848e-65
-1.71394e-64
-2.12741e-63
-9.97334e-72
-6.75183e-71
-5.23989e-70
-4.62056e-69
-4.58513e-68
-5.02326e-67
-5.96089e-66
-7.50403e-65
-3.52223e-73
-2.34077e-72
-1.79321e-71
-1.56832e-70
-1.55234e-69
-1.71197e-68
-2.06425e-67
-2.64947e-66
-1.21822e-74
-7.94129e-74
-5.99806e-73
-5.19475e-72
-5.11252e-71
-5.62589e-70
-6.79391e-69
-8.79163e-68
-4.12953e-76
-2.63852e-75
-1.96327e-74
-1.68231e-73
-1.646e-72
-1.81216e-71
-2.20928e-70
-2.90557e-69
-1.37423e-77
-8.62414e-77
-6.37575e-76
-5.53195e-75
-5.63794e-74
-6.67203e-73
-8.91912e-72
-1.28643e-70
-1.04593e-79
-8.79828e-79
-1.21789e-77
-2.32138e-76
-4.87053e-75
-1.01404e-73
-2.01877e-72
-3.77988e-71
-1.30228e-81
-1.83521e-80
-3.32367e-79
-6.1818e-78
-1.09143e-76
-1.78494e-75
-2.66841e-74
-3.60691e-73
-2.50628e-83
-4.1271e-82
-6.91378e-81
-1.08383e-79
-1.55067e-78
-2.00339e-77
-2.31259e-76
-2.36721e-75
-5.11778e-85
-7.87297e-84
-1.13183e-82
-1.47482e-81
-1.72195e-80
-1.78753e-79
-1.63434e-78
-1.31373e-77
-9.42819e-87
-1.27056e-85
-1.54886e-84
-1.68409e-83
-1.62117e-82
-1.37268e-81
-1.01479e-80
-6.58848e-80
-1.53022e-88
-1.77887e-87
-1.84033e-86
-1.68004e-85
-1.34587e-84
-9.41235e-84
-5.72264e-83
-3.06793e-82
-2.20475e-90
-2.20549e-89
-1.9428e-88
-1.49774e-87
-1.00635e-86
-5.87423e-86
-2.9788e-85
-1.34141e-84
-2.85061e-92
-2.45595e-91
-1.84832e-90
-1.20918e-89
-6.85899e-89
-3.37084e-88
-1.4421e-87
-5.52484e-87
-3.33681e-94
-2.47964e-93
-1.59885e-92
-8.91097e-92
-4.2899e-91
-1.78762e-90
-6.51051e-90
-2.1409e-89
-3.55878e-96
-2.28381e-95
-1.2643e-94
-6.02099e-94
-2.47027e-93
-8.77716e-93
-2.7397e-92
-7.77557e-92
1
1
1
1
1
1
1
1
1
1
1
1
1
1
1
1
1
1
1
1
1
1
1
1
1
1
1
1
1
1
1
1
1
1
1
1
1
1
1
1
1
1
1
1
1
1
1
1
1
1
1
1
1
1
1
1
1
1
1
1
1
1
1
1
1
1
1
1
1
1
1
1
1
1
1
1
1
1
1
1
1
1
1
1
1
1
1
1
1
1
1
1
1
1
1
1
1
1
1
1
1
1
1
1
1
1
1
1
1
1
1
1
1
1
1
1
1
1
1
1
1
1
1
1
1
1
1
1
1
1
1
1
1
1
1
1
1
1
1
1
1
1
1
1
1
1
1
1
1
1
1
1
1
1
1
1
1
1
1
1
1
1
1
1
1
1
1
1
1
1
1
1
1
1
1
1
1
1
1
1
1
1
1
1
1
1
1
1
1
1
1
1
1
1
1
1
1
1
1
1
1
1
1
1
1
1
1
1
1
1
1
1
1
1
1
1
1
1
1
1
1
1
1
1
1
1
1
1
1
1
1
1
1
1
1
1
1
1
1
1
1
1
1
1
1
1
1
1
1
1
1
1
1
1
1
1
1
1
1
1
1
1
1
1
1
1
1
1
1
1
1
1
1
1
1
1
1
1
1
1
1
1
1
1
1
1
1
1
1
1
1
1
1
1
1
1
1
1
1
1
1
1
1
1
1
1
1
1
1
1
1
1
1
1
1
1
1
1
1
1
1
1
1
1
1
1
1
1
1
1
1
1
1
1
1
1
1
1
1
1
1
1
1
1
1
1
1
1
1
1
1
1
1
1
1
1
1
1
1
1
1
1
1
1
1
1
1
1
1
1
1
1
1
1
1
1
1
1
1
1
1
1
1
1
1
1
1
1
1
1
1
1
1
1
1
1
1
1
1
1
1
1
1
1
1
1
1
1
1
1
1
1
1
1
1
1
1
1
1
1
1
1
1
1
1
1
1
1
1
1
1
1
1
1
1
1
1
1
1
1
1
1
1
1
1
1
1
1
1
1
1
1
1
1
1
1
1
1
1
1
1
1
1
1
1
1
1
1
1
1
1
1
1
1
1
1
1
1
1
1
1
1
1
1
1
1
1
1
1
1
1
1
1
1
1
1
1
1
1
1
1
1
1
1
1
1
1
1
1
1
1
1
1
1
1
1
1
1
1
1
1
1
1
1
1
1
1
1
1
1
1
1
1
1
1
1
1
1
1
1
1
1
1
1
1
1
1
1
1
1
1
1
1
1
1
1
1
1
1
1
1
1
1
1
1
1
1
1
1
1
1
1
1
1
1
1
1
1
1
1
1
1
1
1
1
1
1
1
1
1
1
1
1
1
1
1
1
1
1
1
1
1
1
1
1
1
1
1
1
1
1
1
1
1
1
1
1
1
1
1
1
1
1
1
1
1
1
1
1
1
1
1
1
1
1
1
1
1
1
1
1
1
1
1
1
1
1
1
1
1
1
1
1
1
1
1
1
1
1
1
1
1
1
1
1
1
1
1
1
1
1
1
1
1
1
1
1
1
1
1
1
1
1
1
1
1
1
1
1
1
1
1
1
1
1
1
1
1
1
1
1
1
1
1
1
1
1
1
1
1
1
1
1
1
1
1
1
1
1
1
1
1
1
1
1
1
1
1
1
1
1
1
1
1
1
1
1
1
1
1
1
1
1
1
1
1
1
1
1
1
1
1
1
1
1
1
1
1
1
1
1
1
1
1
1
1
1
1
1
1
1
1
1
1
1
1
1
1
1
1
1
1
1
1
1
1
1
1
1
1
1
1
1
1
1
1
1
1
1
1
1
1
1
1
1
1
1
1
1
1
1
1
1
1
1
1
1
1
1
1
1
1
1
1
1
1
1
1
1
1
1
1
1
1
1
1
1
1
1
1
1
1
1
1
1
1
1
1
1
1
1
1
1
1
1
1
1
1
1
1
1
1
1
1
1
1
1
1
1
1
1
1
1
1
1
1
1
1
1
1
1
1
1
1
1
1
1
1
1
1
1
1
1
1
1
1
1
1
1
1
1
1
1
1
1
1
1
1
1
1
1
1
1
1
1
1
1
1
1
1
1
1
1
1
1
1
1
1
1
1
1
1
1
1
1
1
1
1
1
1
1
1
1
1
1
1
1
1
1
1
1
1
1
1
1
1
1
1
1
1
1
1
1
1
1
1
1
1
1
1
1
1
1
1
1
1
1
1
1
1
1
1
1
1
1
1
1
1
1
1
1
1
1
1
1
1
1
1
1
1
1
1
1
1
1
1
1
1
1
1
1
1
1
1
1
1
1
1
1
1
1
1
1
1
1
1
1
1
1
1
1
1
1
1
1
1
1
1
1
1
1
1
1
1
1
1
1
1
1
1
1
1
1
1
1
1
1
1
1
1
1
1
1
1
1
1
1
1
1
1
1
1
1
1
1
1
1
1
1
1
1
1
1
1
1
1
1
1
1
1
1
1
1
1
1
1
1
1
1
1
1
1
1
1
1
1
1
1
1
1
1
1
1
1
1
1
1
1
1
1
1
1
1
1
1
1
1
1
1
1
1
1
1
1
1
1
1
1
1
1
1
1
1
1
1
1
1
1
1
1
1
1
1
1
1
1
1
1
1
1
1
1
1
1
1
1
1
1
1
1
1
1
1
1
1
1
1
1
1
1
1
1
1
1
1
1
1
1
1
1
1
1
1
1
1
1
1
1
1
1
1
1
1
1
1
1
1
1
1
1
1
1
1
1
1
1
1
1
1
1
1
1
1
1
1
1
1
1
1
1
1
1
1
1
1
1
1
1
1
1
1
1
1
1
1
1
1
1
1
1
1
1
1
1
1
1
1
1
1
1
1
1
1
1
1
1
1
1
1
1
1
1
1
1
1
1
1
1
1
1
1
1
1
1
1
1
1
1
1
1
1
1
1
1
1
1
1
1
1
1
1
1
1
1
1
1
1
1
1
1
1
1
1
1
1
1
1
1
1
1
1
1
1
1
1
1
1
1
1
1
1
1
1
1
1
1
1
1
1
1
1
1
1
1
1
1
1
1
1
1
1
1
1
1
1
1
1
1
1
1
1
1
1
1
1
1
1
1
1
1
1
1
1
1
1
1
1
1
1
1
1
1
1
1
1
1
1
1
1
1
1
1
1
1
1
1
1
1
1
1
1
1
1
1
1
1
1
1
1
1
1
1
1
1
1
1
1
1
1
1
1
1
1
1
1
1
1
1
1
1
1
1
1
1
1
1
1
1
1
1
1
1
1
1
1
1
1
1
1
1
1
1
1
1
1
1
1
1
1
1
1
1
1
1
1
1
1
1
1
1
1
1
1
1
1
1
1
1
1
1
1
1
1
1
1
1
1
1
1
1
1
1
1
1
1
1
1
1
1
1
1
1
1
1
1
1
1
1
1
1
1
1
1
1
1
1
1
1
1
1
1
1
1
1
1
1
1
1
1
1
1
1
1
1
1
1
1
1
1
1
1
1
1
1
1
1
1
1
1
1
1
1
1
1
1
1
1
1
1
1
1
1
1
1
1
1
1
1
1
1
1
1
1
1
1
1
1
1
1
1
1
1
1
1
1
1
1
1
1
1
1
1
1
1
1
1
1
1
1
1
1
1
1
1
1
1
1
1
1
1
1
1
1
1
1
1
1
1
1
1
1
1
1
1
1
1
1
1
1
1
1
1
1
1
1
1
1
1
1
1
1
1
1
1
1
1
1
1
1
1
1
1
1
1
1
1
1
1
1
1
1
1
1
1
1
1
1
1
1
1
1
1
1
1
1
1
1
1
1
1
1
1
1
1
1
1
1
1
1
1
1
1
1
1
1
1
1
1
1
1
1
1
1
1
1
1
1
1
1
1
1
1
1
1
1
1
1
1
1
1
1
1
1
1
1
1
1
1
1
1
1
1
1
1
1
1
1
1
1
1
1
1
1
1
1
1
1
1
1
1
1
1
1
1
1
1
1
1
1
1
1
1
1
1
1
1
1
1
1
1
1
1
1
1
1
1
1
1
1
1
1
1
1
1
1
1
1
1
1
1
1
1
1
1
1
1
1
1
1
1
1
1
1
1
1
1
1
1
1
1
1
1
1
1
1
1
1
1
1
1
1
1
1
1
1
1
1
1
1
1
1
1
1
1
1
1
1
1
1
1
1
1
1
1
1
1
1
1
1
1
1
1
1
1
1
1
1
1
1
1
1
1
1
1
1
1
1
1
1
1
1
1
1
1
1
1
1
1
1
1
1
1
1
1
1
1
1
1
1
1
1
1
1
1
1
1
1
1
1
1
1
1
1
1
1
1
1
1
1
1
1
1
1
1
1
1
1
1
1
1
1
1
1
1
1
1
1
1
1
1
1
1
1
1
1
1
1
1
1
1
1
1
1
1
1
1
1
1
1
1
1
1
1
1
1
1
1
1
1
1
1
1
1
1
1
1
1
1
1
1
1
1
1
1
1
1
1
1
1
1
1
1
1
1
1
1
1
1
1
1
1
1
1
1
1
1
1
1
1
1
1
1
1
1
1
1
1
1
1
1
1
1
1
1
1
1
1
1
1
1
1
1
1
1
1
1
1
1
1
1
1
1
1
1
1
1
1
1
1
1
1
1
1
1
1
1
1
1
1
1
1
1
1
1
1
1
1
1
1
1
1
1
1
1
1
1
1
1
1
1
1
1
1
1
1
1
1
1
1
1
1
1
1
1
1
1
1
1
1
1
1
1
1
1
1
1
1
1
1
1
1
1
1
1
1
1
1
1
1
1
1
1
1
1
1
1
1
1
1
1
1
1
1
1
1
1
1
1
1
1
1
1
1
1
1
1
1
1
1
1
1
1
1
1
1
1
1
1
1
1
1
1
1
1
1
1
1
1
1
1
1
1
1
1
1
1
1
1
1
1
1
1
1
1
1
1
1
1
1
1
1
1
1
1
1
1
1
1
1
1
1
1
1
1
1
1
1
1
1
1
1
1
1
1
1
1
1
1
1
1
1
1
1
1
1
1
1
1
1
1
1
1
1
1
1
1
1
1
1
1
1
1
1
1
1
1
1
1
1
1
1
1
1
1
1
1
1
1
1
1
1
1
1
1
1
1
1
1
1
1
1
1
1
1
1
1
1
1
1
1
1
1
1
1
1
1
1
1
1
1
1
1
1
1
1
1
1
1
1
1
1
1
1
1
1
1
1
1
1
1
1
1
1
1
1
1
1
1
1
1
1
1
1
1
1
1
1
1
1
1
1
1
1
1
1
1
1
1
1
1
1
1
1
1
1
1
1
1
1
1
1
1
1
1
1
1
1
1
1
1
1
1
1
1
1
1
1
1
1
1
1
1
1
1
1
1
1
1
1
1
1
1
1
1
1
1
1
1
1
1
1
1
1
1
1
1
1
1
1
1
1
1
1
1
1
1
1
1
1
1
1
1
1
1
1
1
1
1
1
1
1
1
1
1
1
1
1
1
1
1
1
1
1
1
1
1
1
1
1
1
1
1
1
1
1
1
1
1
1
1
1
1
1
1
1
1
1
1
1
1
1
1
1
1
1
1
1
1
1
1
1
1
1
1
1
1
1
1
1
1
1
1
1
1
1
1
1
1
1
1
1
1
1
1
1
1
1
1
1
1
1
1
1
1
1
1
1
1
1
1
1
1
1
1
1
1
1
1
1
1
1
1
1
1
1
1
1
1
1
1
1
1
1
1
1
1
1
1
1
1
1
1
1
1
1
1
1
1
1
1
1
1
1
1
1
1
1
1
1
1
1
1
1
1
1
1
1
1
1
1
1
1
1
1
1
1
1
1
1
1
1
1
1
1
1
1
1
1
1
1
1
1
1
1
1
1
1
1
1
1
1
1
1
1
1
1
1
1
1
1
1
1
1
1
1
1
1
1
1
1
1
1
1
1
1
1
1
1
1
1
1
1
1
1
1
1
1
1
1
1
1
1
1
1
1
1
1
1
1
1
1
1
1
1
1
1
1
1
1
1
1
1
1
1
1
1
1
1
1
1
1
1
1
1
1
1
1
1
1
1
1
1
1
1
1
1
1
1
1
1
1
1
1
1
1
1
1
1
1
1
1
1
1
1
1
1
1
1
1
1
1
1
1
1
1
1
1
1
1
1
1
1
1
1
1
1
1
1
1
1
1
1
1
1
1
1
1
1
1
1
1
1
1
1
1
1
1
1
1
1
1
1
1
1
1
1
1
1
1
1
1
1
1
1
1
1
1
1
1
1
1
1
1
1
1
1
1
1
1
1
1
1
1
1
1
1
1
1
1
1
1
1
1
1
1
1
1
1
1
1
1
1
1
1
1
1
1
1
1
1
1
1
1
1
1
1
1
1
1
1
1
1
1
1
1
1
1
1
1
1
1
1
1
1
1
1
1
1
1
1
1
1
1
1
1
1
1
1
1
1
1
1
1
1
1
1
1
1
1
1
1
1
1
1
1
1
1
1
1
1
1
1
1
1
1
1
1
1
1
1
1
1
1
1
1
1
1
1
1
1
1
1
1
1
1
1
1
1
1
1
1
1
1
1
1
1
1
1
1
1
1
1
1
1
1
1
1
1
1
1
1
1
1
1
1
1
1
1
1
1
1
1
1
1
1
1
1
1
1
1
1
1
1
1
1
1
1
1
1
1
1
1
1
1
1
1
1
1
1
1
1
1
1
1
1
1
1
1
1
1
1
1
1
1
1
1
1
1
1
1
1
1
1
1
1
1
1
1
1
1
1
1
1
1
1
1
1
1
1
1
1
1
1
1
1
1
1
1
1
1
1
1
1
1
1
1
1
1
1
1
1
1
1
1
1
1
1
1
1
1
1
1
1
1
1
1
1
1
1
1
1
1
1
1
1
1
1
1
1
1
1
1
1
1
1
1
1
1
1
1
1
1
1
1
1
1
1
1
1
1
1
1
1
1
1
1
1
1
1
1
1
1
1
1
1
1
1
1
1
1
1
1
1
1
1
1
1
1
1
1
1
1
1
1
1
1
1
1
1
1
1
1
1
1
1
1
1
1
1
1
1
1
1
1
1
1
1
1
1
1
1
1
1
1
1
1
1
1
1
1
1
1
1
1
1
1
1
1
1
1
1
1
1
1
1
1
1
1
1
1
1
1
1
1
1
1
1
1
1
1
1
1
1
1
1
1
1
1
1
1
1
1
1
1
1
1
1
1
1
1
1
1
1
1
1
1
1
1
1
1
1
1
1
1
1
1
1
1
1
1
1
1
1
1
1
1
1
1
1
1
1
1
1
1
1
1
1
1
1
1
1
1
1
1
1
1
1
1
1
1
1
1
1
1
1
1
1
1
1
1
1
1
1
1
1
1
1
1
1
1
1
1
1
1
1
1
1
1
1
1
1
1
1
1
1
1
1
1
1
1
1
1
1
1
1
1
1
1
1
1
1
1
1
1
1
1
1
1
1
1
1
1
1
1
1
1
1
1
1
1
1
1
1
1
1
1
1
1
1
1
1
1
1
1
1
1
1
1
1
1
1
1
1
1
1
1
1
1
1
1
1
1
1
1
1
1
1
1
1
1
1
1
1
1
1
1
1
1
1
1
1
1
1
1
1
1
1
1
1
1
1
1
1
1
1
1
1
1
1
1
1
1
1
1
1
1
1
1
1
1
1
1
1
1
1
1
1
1
1
1
1
1
1
1
1
1
1
1
1
1
1
1
1
1
1
1
1
1
1
1
1
1
1
1
1
1
1
1
1
1
1
1
1
1
1
1
1
1
1
1
1
1
1
1
1
1
1
1
1
1
1
1
1
1
1
1
1
1
1
1
1
1
1
1
1
1
1
1
1
1
1
1
1
1
1
1
1
1
1
1
1
1
1
1
1
1
1
1
1
1
1
1
1
1
1
1
1
1
1
1
1
1
1
1
1
1
1
1
1
1
1
1
1
1
1
1
1
1
1
1
1
1
1
1
1
1
1
1
1
1
1
1
1
1
1
1
1
1
1
1
1
1
1
1
1
1
1
1
1
1
1
1
1
1
1
1
1
1
1
1
1
1
1
1
1
1
1
1
1
1
1
1
1
1
1
1
1
1
1
1
1
1
1
1
1
1
1
1
1
1
1
1
1
1
1
1
1
1
1
1
1
1
1
1
1
1
1
1
1
1
1
1
1
1
1
1
1
1
1
1
1
1
1
1
1
1
1
1
1
1
1
1
1
1
1
1
1
1
1
1
1
1
1
1
1
1
1
1
1
1
1
1
1
1
1
1
1
1
1
1
1
1
1
1
1
1
1
1
1
1
1
1
1
1
1
1
1
1
1
1
1
1
1
1
1
1
1
1
1
1
1
1
1
1
1
1
1
1
1
1
1
1
1
1
1
1
1
1
1
1
1
1
1
1
1
1
1
1
1
1
1
1
1
1
1
1
1
1
1
1
1
1
1
1
1
1
1
1
1
1
1
1
1
1
1
1
1
1
1
1
1
1
1
1
0.937013
0.956661
0.970913
0.981179
0.988385
0.993452
0.996834
0.998866
0.999821
1
1
1
1
1
1
1
1
1
1
1
1
1
1
1
1
1
1
1
1
1
1
1
1
1
1
1
1
1
1
1
1
1
1
1
1
1
1
1
1
1
1
1
1
1
1
1
1
1
1
1
1
1
1
1
1
1
1
1
1
1
1
1
1
1
1
1
1
1
1
1
1
1
1
1
1
1
1
1
1
1
1
1
1
1
1
1
1
1
1
1
1
1
1
1
1
1
1
1
1
1
1
1
1
1
1
1
1
1
1
1
1
1
1
1
1
1
1
1
1
1
1
1
1
1
1
1
1
1
1
1
1
1
1
1
1
1
1
1
1
1
1
1
1
1
1
1
0.429423
0.489004
0.540748
0.587397
0.630099
0.668844
0.703819
0.735092
0.762636
0.786514
0.806671
0.823632
0.838036
0.850655
0.861562
0.871007
0.879379
0.886708
0.89296
0.898228
0.902761
0.906679
0.910055
0.912962
0.915457
0.91762
0.919697
0.921836
0.923817
0.925688
0.927525
0.929438
0.931392
0.933065
0.934502
0.93577
0.93705
0.938703
0.94061
0.942587
0.94431
0.945647
0.947008
0.948475
0.949875
0.95119
0.952526
0.95387
0.955308
0.957215
0.959557
0.961749
0.963689
0.965192
0.96638
0.967519
0.968773
0.969973
0.97073
0.970755
0.969487
0.966554
0.961543
0.954633
0.947476
0.941433
0.937077
0.935585
0.933549
0.928188
0.92367
0.923881
0.926786
0.930701
0.934544
0.937592
0.940229
0.942544
0.944096
0.946447
0.949215
0.949581
0.947499
0.943644
0.938029
0.931783
0.928023
0.92753
0.927031
0.92755
0.931234
0.936817
0.942972
0.94864
0.954347
0.959401
0.962786
0.965471
0.967349
0.967623
0.967796
0.968803
0.969044
0.967831
0.965633
0.96261
0.960977
0.961939
0.958608
0.951065
0.947494
0.947695
0.946524
0.944012
0.940638
0.937857
0.936772
0.937377
0.938705
0.939483
0.939405
0.939723
0.9411
0.942992
0.943938
0.943247
0.940776
0.936439
0.931172
0.925844
0.920984
0.917876
0.917568
0.920124
0.924526
0.928704
0.930964
0.930671
0.928016
0.924233
0.921607
0.920771
0.92131
0.923006
0.925417
0.927928
0.932248
0.936448
0.938866
0.938944
0.936949
0.933474
0.930767
0.93061
0.931832
0.933307
0.0346458
0.0302663
0.0339859
0.0415316
0.0516702
0.0636227
0.0770297
0.0917038
0.107421
0.123977
0.141266
0.159366
0.178287
0.197257
0.215671
0.23294
0.248686
0.262861
0.275561
0.286979
0.297237
0.306487
0.314938
0.322773
0.330153
0.337214
0.343798
0.349968
0.355945
0.36174
0.367213
0.37205
0.376277
0.380335
0.384314
0.388251
0.392083
0.395509
0.398917
0.402412
0.405434
0.407853
0.409729
0.411702
0.414565
0.418969
0.424848
0.431899
0.440519
0.45085
0.462606
0.475494
0.489924
0.504868
0.519322
0.532574
0.544665
0.555824
0.564956
0.569465
0.564918
0.551274
0.529833
0.505223
0.482372
0.463983
0.449295
0.437884
0.429064
0.421667
0.416655
0.415906
0.421638
0.431993
0.445158
0.459054
0.472132
0.483167
0.491283
0.494604
0.49357
0.489205
0.479138
0.462825
0.446301
0.431479
0.420374
0.415791
0.418587
0.427264
0.445402
0.472225
0.502211
0.533102
0.564307
0.59333
0.616034
0.629436
0.635342
0.638069
0.640796
0.641429
0.641942
0.645232
0.649231
0.644971
0.630041
0.611483
0.590778
0.56837
0.550419
0.537707
0.523381
0.50763
0.493545
0.483736
0.478672
0.477042
0.477533
0.479328
0.482202
0.486169
0.490495
0.49345
0.494795
0.492788
0.484677
0.469514
0.448943
0.42864
0.412906
0.404783
0.405545
0.413578
0.424973
0.434143
0.439193
0.438926
0.433848
0.425581
0.41565
0.409276
0.408797
0.414029
0.424011
0.436575
0.447284
0.456986
0.462723
0.463214
0.458772
0.451397
0.444079
0.440463
0.442514
0.447824
3.27118e-05
3.25555e-05
2.91526e-05
2.38988e-05
1.91177e-05
1.76085e-05
1.79406e-05
2.00345e-05
2.54895e-05
3.58092e-05
6.73205e-05
0.000195062
0.000628961
0.00128555
0.00186978
0.00232893
0.00277351
0.00330944
0.00398799
0.00479826
0.00569715
0.00665871
0.00767392
0.00873876
0.00985073
0.0110192
0.0122769
0.0136633
0.0152019
0.0168663
0.0185938
0.0203137
0.0219581
0.0234896
0.0248653
0.0260365
0.0270143
0.0278495
0.0285753
0.0291428
0.0294159
0.0296425
0.0298901
0.0298392
0.0294398
0.0294468
0.0298537
0.031198
0.0337975
0.0374905
0.0409283
0.0430114
0.0447007
0.0472961
0.0510955
0.0559261
0.0626406
0.0711449
0.0777725
0.0760037
0.0697014
0.0620661
0.0549593
0.0493571
0.0452961
0.0423261
0.0394845
0.0367067
0.0346995
0.0357021
0.0380472
0.0388754
0.0379971
0.0383004
0.0407607
0.0458339
0.0514436
0.0555222
0.0574077
0.0567736
0.0542361
0.0497031
0.0457324
0.0432516
0.0406337
0.0372384
0.034477
0.0352591
0.0393096
0.0463605
0.0533992
0.058959
0.065454
0.0755205
0.0886482
0.102401
0.114328
0.123478
0.130335
0.135045
0.138234
0.142872
0.148916
0.154117
0.156457
0.157711
0.154738
0.138324
0.11642
0.0994392
0.0841342
0.0686204
0.0570959
0.0489577
0.0435967
0.040217
0.0383099
0.0371887
0.0366786
0.0367221
0.0372124
0.0379794
0.0392274
0.0410487
0.0419453
0.0409178
0.0382006
0.0347205
0.0312698
0.0277579
0.0251319
0.0238349
0.0239386
0.025286
0.0278366
0.0314007
0.0341084
0.0344241
0.0324327
0.0292238
0.0270228
0.0252082
0.0244713
0.0251246
0.0273888
0.031039
0.0354868
0.0382914
0.0397671
0.0394889
0.0378276
0.0357976
0.0344482
0.0338188
0.0341873
0.0358496
1.0384e-09
1.79672e-09
2.22095e-09
4.21511e-09
1.16034e-08
2.64008e-08
4.60597e-08
7.03262e-08
1.07661e-07
1.82639e-07
3.12908e-07
4.27529e-07
4.43711e-07
4.3686e-07
4.10527e-07
3.76234e-07
3.70417e-07
4.22278e-07
6.00943e-07
8.63137e-07
1.15769e-06
1.45262e-06
1.72411e-06
1.95269e-06
2.12394e-06
2.24901e-06
2.36268e-06
2.50912e-06
2.71631e-06
2.98357e-06
3.28921e-06
3.63203e-06
4.05606e-06
4.65772e-06
5.52529e-06
6.70186e-06
8.15883e-06
9.86609e-06
1.17546e-05
1.30967e-05
1.31794e-05
1.31963e-05
1.31389e-05
1.27638e-05
1.22037e-05
1.21207e-05
1.23721e-05
1.36567e-05
1.6092e-05
1.72621e-05
1.69274e-05
1.529e-05
1.2313e-05
1.01473e-05
1.02058e-05
1.16311e-05
1.55556e-05
1.76748e-05
1.66023e-05
1.24202e-05
8.50978e-06
7.14407e-06
7.25413e-06
8.70762e-06
1.17308e-05
1.34971e-05
1.30406e-05
1.10608e-05
1.17086e-05
2.06599e-05
3.94057e-05
3.77861e-05
2.18053e-05
1.15804e-05
1.06857e-05
9.51419e-06
5.94821e-06
1.78107e-06
1.72499e-08
1.13232e-12
1.01838e-12
9.3775e-13
8.43463e-13
7.48045e-13
6.93331e-13
6.13036e-13
5.83838e-13
6.25508e-13
7.77925e-13
1.65702e-12
9.83778e-12
1.15155e-11
3.90962e-12
-1.67152e-21
6.25675e-22
5.67319e-23
-1.91657e-23
-3.82803e-24
-6.12216e-24
-1.73885e-27
-5.18221e-25
-1.68409e-25
-4.4831e-26
-8.98859e-29
-4.50716e-29
1.94495e-22
-1.57557e-42
4.84866e-07
0.00046327
0.000426041
0.000127693
3.28377e-07
8.92448e-28
-3.55078e-26
-5.71946e-28
-8.53857e-30
-1.44083e-31
-4.15733e-34
-1.61331e-35
2.18705e-37
-5.10316e-39
-3.67211e-40
-4.3489e-42
-1.98926e-43
-1.88162e-44
-1.07012e-45
-2.19984e-46
-1.22694e-47
-1.72687e-48
-1.54028e-49
-1.00221e-50
-4.59373e-52
-1.18765e-53
-4.5252e-55
-1.39757e-56
-4.00431e-58
-9.19144e-60
9.52416e-61
-4.02107e-62
-1.21572e-65
-2.9456e-67
-2.10224e-68
-9.44446e-70
-8.88004e-72
-4.74145e-74
-1.53543e-77
-1.26266e-79
-4.02225e-81
-6.9925e-83
-1.57617e-86
-6.38351e-85
-3.0848e-90
-2.42926e-93
-2.64481e-92
-3.60751e-94
9.67185e-96
7.05431e-13
1.75278e-27
3.48312e-36
-4.15733e-32
-1.28268e-32
-2.7264e-33
-1.25934e-33
-1.85739e-33
-3.4445e-33
-7.37364e-33
-1.97073e-32
-7.47854e-32
-4.32941e-31
-5.5811e-34
-3.21057e-31
-1.44425e-30
-2.31182e-30
-3.02627e-30
-4.20852e-30
-4.98455e-30
-6.61644e-30
-7.62703e-30
-9.81062e-30
-1.11121e-29
-1.37503e-29
-1.51359e-29
-1.7499e-29
-1.78082e-29
-1.78011e-29
-1.50164e-29
-1.19266e-29
-9.33578e-30
-1.28908e-29
-2.81357e-29
-5.59136e-29
-9.41348e-29
-1.38373e-28
-1.80629e-28
-2.15884e-28
-2.35875e-28
-2.43319e-28
-2.32801e-28
-1.123e-29
5.42408e-29
-1.27389e-28
-5.23669e-29
-3.66839e-29
5.88664e-28
-1.23898e-27
7.56342e-28
-1.10915e-28
-1.3787e-27
6.20339e-28
3.66751e-28
9.3419e-29
-5.27462e-31
-4.42186e-29
-5.55249e-29
-5.49729e-29
-5.38375e-29
-4.89201e-29
-4.38068e-29
-3.79813e-29
-2.73046e-29
-1.27252e-29
-3.18671e-30
-1.61816e-30
-1.69042e-30
-1.35348e-30
-1.52206e-30
-1.97588e-29
-1.97555e-29
3.15238e-30
2.05229e-26
-3.0077e-26
-1.51967e-27
5.18215e-28
-1.65792e-32
-3.69583e-26
-6.81399e-25
-1.69163e-24
-2.60218e-24
-3.24819e-24
-3.5848e-24
-3.68607e-24
-3.69438e-24
-3.46262e-24
-3.56584e-33
4.72104e-33
1.01049e-31
-3.55528e-32
4.74475e-35
2.87743e-36
-1.46691e-24
-3.15114e-42
-1.49999e-24
-2.07523e-24
-1.22006e-24
-8.665e-25
-6.03363e-25
-4.40975e-25
-2.9799e-25
-1.73316e-25
-8.37929e-26
-3.17128e-26
-2.74536e-42
-5.34606e-23
3.00166e-27
-3.14271e-25
-1.01239e-25
-1.67611e-26
-1.06947e-24
-3.81071e-25
-6.40797e-26
-6.37462e-27
-4.29568e-28
-2.08879e-29
-7.78884e-31
-2.43309e-32
-6.5132e-34
-1.4382e-35
-2.48376e-37
-3.28483e-39
-3.61752e-41
-5.08601e-43
-2.87192e-44
-3.20076e-45
-3.16637e-46
-2.70471e-47
-1.99034e-48
-1.17888e-49
-5.27056e-51
-1.80553e-52
-6.38851e-54
-2.18517e-55
-6.27333e-57
-1.19024e-58
-1.94032e-60
-4.0212e-62
-8.06411e-64
-2.51386e-65
-1.3348e-66
-2.85395e-68
-2.38593e-70
-2.07362e-72
-3.12293e-76
-1.37973e-77
-4.91123e-79
-4.55899e-81
-1.71474e-83
-5.85358e-86
-1.34771e-88
-1.59619e-91
-2.8986e-90
-2.60456e-92
-5.8434e-95
1.77235e-23
1.02094e-24
9.10804e-32
1.24623e-50
-5.10534e-34
-7.13858e-34
-8.2354e-34
-8.95892e-34
-1.30577e-33
-3.19823e-33
-9.94957e-33
-2.8696e-32
-7.63601e-32
-6.17288e-32
-8.9343e-32
-1.63953e-31
-3.24204e-31
-6.06289e-31
-1.05144e-30
-1.69429e-30
-2.54145e-30
-3.57044e-30
-4.76879e-30
-6.13919e-30
-7.73781e-30
-9.73276e-30
-1.2384e-29
-1.60269e-29
-2.09524e-29
-2.71065e-29
-3.36495e-29
-4.12516e-29
-5.23702e-29
-6.83959e-29
-9.29109e-29
-1.3057e-28
-1.85803e-28
-2.6022e-28
-3.50484e-28
-4.4535e-28
-5.29032e-28
-5.89987e-28
-6.20271e-28
-6.19894e-28
-5.9298e-28
-5.46106e-28
-4.90436e-28
-4.15675e-28
-3.66282e-28
-2.70396e-28
-2.43473e-28
-2.47599e-28
-1.87638e-28
-1.50017e-28
-1.2462e-28
-1.16125e-28
-1.23877e-28
-1.4912e-28
-1.98789e-28
-2.7036e-28
-3.3767e-28
-3.80208e-28
-3.94047e-28
-3.84029e-28
-3.65801e-28
-3.47191e-28
-3.28663e-28
-2.95278e-28
-2.34364e-28
-2.03379e-28
-4.61306e-28
-2.10576e-27
-9.31625e-27
-3.46011e-26
-1.14615e-25
-3.07957e-25
-6.82572e-25
-1.32973e-24
-2.24593e-24
-3.25418e-24
-4.11875e-24
-4.72032e-24
-5.06466e-24
-5.22592e-24
-5.35449e-24
-5.43504e-24
-5.55982e-24
-5.3031e-24
-4.40632e-24
-2.90449e-24
-1.51683e-24
-7.53156e-25
-6.53609e-25
-1.42645e-24
-1.75757e-24
-1.77089e-24
-1.52377e-24
-1.21842e-24
-9.66604e-25
-7.45131e-25
-5.40018e-25
-3.54689e-25
-2.02842e-25
-9.55158e-26
-3.42369e-26
-7.74853e-27
-1.16769e-23
-2.62571e-24
-6.46876e-25
-1.0962e-25
-2.63214e-25
-1.40026e-25
-3.3707e-26
-4.63903e-27
-4.22602e-28
-2.86683e-29
-1.50643e-30
-6.17393e-32
-2.04099e-33
-5.51874e-35
-1.22161e-36
-2.31832e-38
-3.9337e-40
-7.33628e-42
-4.09572e-43
-5.60722e-44
-7.67985e-45
-9.17737e-46
-9.28102e-47
-7.7372e-48
-5.35808e-49
-3.17141e-50
-1.64461e-51
-7.65901e-53
-3.15727e-54
-1.12738e-55
-3.78954e-57
-1.3155e-58
-4.39743e-60
-1.26544e-61
-3.05362e-63
-6.01955e-65
-9.65271e-67
-1.40931e-68
-1.94844e-70
-2.41581e-72
-2.73285e-74
-2.91948e-76
-3.18209e-78
-3.81544e-80
-5.27709e-82
-7.7105e-84
-1.08427e-85
-1.308e-87
-1.22984e-89
-9.54008e-92
1.00289e-25
2.81532e-26
4.98092e-29
-1.98906e-48
-2.11205e-33
-2.97232e-33
-3.41354e-33
-3.25195e-33
-2.89036e-33
-3.34929e-33
-6.96141e-33
-1.74712e-32
-3.97525e-32
-7.88016e-32
-1.57986e-31
-3.18098e-31
-6.27251e-31
-1.16074e-30
-1.97542e-30
-3.09083e-30
-4.44272e-30
-5.86258e-30
-7.19781e-30
-8.27862e-30
-8.87219e-30
-8.95024e-30
-8.74394e-30
-8.64198e-30
-9.43894e-30
-1.23775e-29
-1.89042e-29
-2.98397e-29
-4.6008e-29
-6.82842e-29
-9.52762e-29
-1.22513e-28
-1.42285e-28
-1.53343e-28
-1.59388e-28
-1.64134e-28
-1.71212e-28
-1.83269e-28
-2.01399e-28
-2.25797e-28
-2.55867e-28
-2.90122e-28
-3.26502e-28
-3.63126e-28
-3.95214e-28
-4.20046e-28
-4.40409e-28
-4.53436e-28
-4.55083e-28
-4.50117e-28
-4.47285e-28
-4.58073e-28
-4.90098e-28
-5.43524e-28
-6.19978e-28
-6.9718e-28
-7.41237e-28
-7.52796e-28
-7.38216e-28
-7.06257e-28
-6.63066e-28
-6.16881e-28
-5.6481e-28
-4.95217e-28
-4.29728e-28
-5.5157e-28
-1.7261e-27
-7.37644e-27
-2.80337e-26
-9.17106e-26
-2.6587e-25
-6.60733e-25
-1.34733e-24
-2.32543e-24
-3.4277e-24
-4.37705e-24
-4.95059e-24
-5.15767e-24
-5.09149e-24
-4.95661e-24
-4.92532e-24
-4.89899e-24
-4.99639e-24
-5.17197e-24
-5.04705e-24
-4.17618e-24
-2.75188e-24
-1.67366e-24
-1.4218e-24
-1.90512e-24
-2.3548e-24
-2.34541e-24
-1.99862e-24
-1.56131e-24
-1.15434e-24
-7.94412e-25
-4.96007e-25
-2.83662e-25
-1.49351e-25
-6.62371e-26
-2.1879e-26
-5.00174e-27
-1.44742e-24
-4.89813e-25
-9.14027e-26
-1.29281e-26
-3.48354e-26
-1.38565e-26
-2.65127e-27
-3.17683e-28
-2.65899e-29
-1.68308e-30
-8.42905e-32
-3.35451e-33
-1.10391e-34
-3.0641e-36
-6.95342e-38
-1.31301e-39
-2.50657e-41
-1.48687e-42
-2.5835e-43
-4.42161e-44
-6.23133e-45
-7.22447e-46
-7.24992e-47
-6.46174e-48
-4.99587e-49
-3.27874e-50
-1.81375e-51
-8.69932e-53
-3.83748e-54
-1.60291e-55
-6.13842e-57
-2.12086e-58
-6.48119e-60
-1.73335e-61
-4.65423e-63
-1.26102e-64
-2.94296e-66
-5.10638e-68
-5.83346e-70
-4.91424e-72
-4.93103e-74
-6.91737e-76
-1.11397e-77
-1.76427e-79
-2.47255e-81
-3.10645e-83
-4.17204e-85
-5.78878e-87
-6.59299e-89
-5.65656e-91
-9.75918e-46
-8.93708e-34
-2.32767e-33
-4.47888e-33
-7.33477e-33
-1.03639e-32
-1.26111e-32
-1.28571e-32
-1.12391e-32
-8.49681e-33
-6.70311e-33
-9.0414e-33
-2.19767e-32
-6.51039e-32
-2.02214e-31
-5.5064e-31
-1.24441e-30
-2.40145e-30
-4.09101e-30
-6.31676e-30
-8.95296e-30
-1.17085e-29
-1.42969e-29
-1.64391e-29
-1.77129e-29
-1.78716e-29
-1.7058e-29
-1.546e-29
-1.34919e-29
-1.22124e-29
-1.26066e-29
-1.52485e-29
-2.01523e-29
-2.76438e-29
-3.79028e-29
-4.89862e-29
-6.05517e-29
-7.33111e-29
-8.83844e-29
-1.07707e-28
-1.32741e-28
-1.6385e-28
-2.00767e-28
-2.42993e-28
-2.89514e-28
-3.38514e-28
-3.88242e-28
-4.36174e-28
-4.85196e-28
-5.34471e-28
-5.80178e-28
-6.19838e-28
-6.53134e-28
-6.8299e-28
-7.15109e-28
-7.55892e-28
-8.10256e-28
-8.74502e-28
-9.47182e-28
-1.00793e-27
-1.0356e-27
-1.03278e-27
-1.00573e-27
-9.57477e-28
-8.96198e-28
-8.29762e-28
-7.55828e-28
-6.8141e-28
-6.96581e-28
-1.26171e-27
-4.35461e-27
-1.68319e-26
-5.77783e-26
-1.7414e-25
-4.68776e-25
-1.08659e-24
-2.0617e-24
-3.25038e-24
-4.32945e-24
-4.96443e-24
-5.08523e-24
-4.906e-24
-4.60479e-24
-4.39845e-24
-4.35543e-24
-4.35745e-24
-4.44242e-24
-4.66808e-24
-4.84433e-24
-4.55544e-24
-3.54727e-24
-2.5116e-24
-2.16489e-24
-2.49599e-24
-2.86934e-24
-2.80376e-24
-2.35206e-24
-1.77859e-24
-1.22343e-24
-7.40645e-25
-3.8359e-25
-1.81988e-25
-8.60555e-26
-3.58672e-26
-1.11326e-26
-2.47483e-27
-1.37471e-25
-6.49172e-26
-1.05318e-26
-1.30115e-27
-2.79706e-27
-9.00703e-28
-1.48024e-28
-1.53293e-29
-1.1678e-30
-6.93612e-32
-3.355e-33
-1.29873e-34
-4.13958e-36
-1.10295e-37
-2.39031e-39
-4.82559e-41
-2.47116e-42
-4.93109e-43
-1.02588e-43
-1.74979e-44
-2.46015e-45
-2.93763e-46
-3.02578e-47
-2.67184e-48
-2.01804e-49
-1.30675e-50
-7.32246e-52
-3.63705e-53
-1.62406e-54
-6.62244e-56
-2.54593e-57
-9.19778e-59
-2.98961e-60
-8.59228e-62
-2.16951e-63
-4.72506e-65
-8.87784e-67
-1.49086e-68
-2.27429e-70
-3.1929e-72
-4.27007e-74
-5.48416e-76
-6.98244e-78
-9.27503e-80
-1.2949e-81
-1.81998e-83
-2.46434e-85
-2.97367e-87
-3.0022e-89
-2.62211e-91
-1.20592e-33
-3.00009e-33
-6.54192e-33
-1.23768e-32
-2.06373e-32
-3.04327e-32
-3.95665e-32
-4.46298e-32
-4.43175e-32
-3.93983e-32
-3.67242e-32
-5.17475e-32
-1.18848e-31
-3.16896e-31
-7.99932e-31