/*--------------------------------*- C++ -*----------------------------------*\
| =========                 |                                                 |
| \\      /  F ield         | OpenFOAM: The Open Source CFD Toolbox           |
|  \\    /   O peration     | Version:  v1912                                 |
|   \\  /    A nd           | Website:  www.openfoam.com                      |
|    \\/     M anipulation  |                                                 |
\*---------------------------------------------------------------------------*/
FoamFile
{
    version     2.0;
    format      ascii;
    class       volScalarField;
    location    "50";
    object      nut;
}
// * * * * * * * * * * * * * * * * * * * * * * * * * * * * * * * * * * * * * //

dimensions      [0 2 -1 0 0 0 0];


internalField   nonuniform List<scalar> 
14268
(
7.66009e-10
6.62035e-10
5.49753e-10
4.77271e-10
4.4943e-10
4.66134e-10
6.31797e-10
1.0304e-09
6.64446e-08
5.82636e-08
4.85481e-08
4.22569e-08
3.99938e-08
4.13251e-08
5.4033e-08
8.25183e-08
2.50473e-07
2.36794e-07
2.16323e-07
2.00731e-07
1.9443e-07
1.95778e-07
2.18014e-07
2.6323e-07
3.25002e-07
3.19451e-07
3.10296e-07
3.02757e-07
2.99871e-07
3.01388e-07
3.14061e-07
3.33121e-07
3.38615e-07
3.36935e-07
3.34381e-07
3.31518e-07
3.29767e-07
3.29279e-07
3.30589e-07
3.32369e-07
3.40401e-07
3.39843e-07
3.38725e-07
3.37799e-07
3.38678e-07
3.40668e-07
3.42404e-07
3.43785e-07
3.40815e-07
3.40406e-07
3.39504e-07
3.3865e-07
3.38408e-07
3.3765e-07
3.36088e-07
3.34894e-07
3.40591e-07
3.40198e-07
3.39338e-07
3.39211e-07
3.40681e-07
3.42026e-07
3.42711e-07
3.43278e-07
3.40643e-07
3.40292e-07
3.39412e-07
3.38934e-07
3.38847e-07
3.38422e-07
3.37188e-07
3.36091e-07
3.40751e-07
3.40315e-07
3.39539e-07
3.39706e-07
3.40926e-07
3.41781e-07
3.42075e-07
3.42263e-07
3.43e-07
3.43291e-07
3.43485e-07
3.4334e-07
3.42304e-07
3.39482e-07
3.37762e-07
3.3707e-07
3.51013e-07
3.56866e-07
3.64875e-07
3.69015e-07
3.67535e-07
3.55585e-07
3.46016e-07
3.4295e-07
3.53218e-07
3.62609e-07
3.78488e-07
3.89717e-07
3.92349e-07
3.77043e-07
3.51915e-07
3.41921e-07
3.44152e-07
3.47152e-07
3.53196e-07
3.58593e-07
3.60326e-07
3.56217e-07
3.46504e-07
3.42855e-07
3.42811e-07
3.44219e-07
3.47573e-07
3.51585e-07
3.53136e-07
3.52275e-07
3.46223e-07
3.42566e-07
3.41031e-07
3.41141e-07
3.41934e-07
3.43595e-07
3.44569e-07
3.44291e-07
3.42051e-07
3.40855e-07
3.40609e-07
3.4028e-07
3.39831e-07
3.39497e-07
3.401e-07
3.40219e-07
3.39862e-07
3.39575e-07
3.40354e-07
3.39985e-07
3.39356e-07
3.38811e-07
3.39502e-07
3.39786e-07
3.39424e-07
3.39075e-07
3.40954e-07
3.40601e-07
3.3997e-07
3.39326e-07
3.39795e-07
3.39879e-07
3.39441e-07
3.39592e-07
3.41023e-07
3.40546e-07
3.40026e-07
3.39571e-07
3.39112e-07
3.39428e-07
3.38758e-07
3.38726e-07
3.40637e-07
3.39411e-07
3.3907e-07
3.38909e-07
3.38579e-07
3.38403e-07
3.37967e-07
3.3751e-07
3.3918e-07
3.34152e-07
3.33101e-07
3.33961e-07
3.36052e-07
3.3767e-07
3.38597e-07
3.38883e-07
2.73325e-07
2.59987e-07
2.58827e-07
2.63938e-07
2.71498e-07
2.81353e-07
2.92036e-07
3.03009e-07
9.96678e-08
9.10724e-08
8.43314e-08
7.99607e-08
8.12728e-08
9.23922e-08
1.14031e-07
1.44195e-07
3.77948e-08
3.23139e-08
2.74144e-08
2.17904e-08
1.63126e-08
1.23532e-08
1.48853e-08
2.53124e-08
1.22803e-07
1.03024e-07
9.75898e-08
9.41323e-08
7.76738e-08
3.67879e-08
1.16169e-08
2.62912e-09
0.00065643
0.000462659
0.000318212
0.000217876
0.00014097
5.98145e-05
1.02004e-05
7.65828e-07
0.0414281
0.0404649
0.0397307
0.0389922
0.0376897
0.0333575
0.0192009
0.00551922
0.0934667
0.0935763
0.0938353
0.0944198
0.0931382
0.0862227
0.0690658
0.0445706
0.130117
0.130457
0.130452
0.130251
0.127578
0.120459
0.108045
0.0909353
0.162788
0.164525
0.165653
0.166381
0.165006
0.159611
0.15075
0.140591
0.187253
0.190724
0.193443
0.195339
0.195417
0.192419
0.187995
0.183719
0.205708
0.211014
0.215482
0.219286
0.221278
0.220611
0.219119
0.218548
0.216472
0.223487
0.229628
0.234924
0.238395
0.240078
0.241617
0.244303
0.221334
0.2302
0.238219
0.245436
0.250962
0.254951
0.25868
0.262933
0.218875
0.229586
0.239434
0.248271
0.255397
0.261424
0.267441
0.273831
0.210678
0.223502
0.235456
0.246248
0.255501
0.263689
0.271587
0.279172
0.195554
0.210498
0.224449
0.237002
0.248038
0.258156
0.267872
0.277165
0.174296
0.191696
0.207887
0.222605
0.235914
0.248213
0.259644
0.270202
0.145914
0.166
0.184489
0.201314
0.216564
0.230779
0.24393
0.256116
0.110621
0.133592
0.154677
0.174015
0.191592
0.208025
0.223088
0.236888
0.0695558
0.0942834
0.117592
0.139407
0.159184
0.177927
0.195084
0.210802
0.0299729
0.0515207
0.0746607
0.0981559
0.12015
0.141562
0.161098
0.178975
0.00632382
0.0167815
0.0326389
0.0531964
0.075123
0.0981905
0.119807
0.140078
0.000446881
0.00215819
0.00675131
0.0166939
0.0317968
0.0518714
0.0733926
0.0952517
8.87235e-06
7.39811e-05
0.000410526
0.00193372
0.00614021
0.0153211
0.0296426
0.0483582
3.83822e-07
8.8364e-07
5.61211e-06
5.36613e-05
0.000325884
0.00153978
0.00519109
0.0132992
3.43949e-07
3.44719e-07
3.60684e-07
6.42451e-07
3.67931e-06
3.27083e-05
0.000236757
0.00120963
3.43644e-07
3.43468e-07
3.43243e-07
3.43781e-07
3.50359e-07
4.69494e-07
2.27384e-06
2.13568e-05
3.43843e-07
3.43706e-07
3.43625e-07
3.43427e-07
3.42886e-07
3.42986e-07
3.44886e-07
3.73757e-07
3.4381e-07
3.43648e-07
3.43411e-07
3.43484e-07
3.43231e-07
3.43282e-07
3.42994e-07
3.42084e-07
3.43825e-07
3.4379e-07
3.43681e-07
3.43487e-07
3.43074e-07
3.43103e-07
3.43029e-07
3.42927e-07
3.4385e-07
3.43592e-07
3.43466e-07
3.4359e-07
3.43438e-07
3.43407e-07
3.43137e-07
3.42673e-07
3.43788e-07
3.43877e-07
3.43741e-07
3.43573e-07
3.43103e-07
3.43162e-07
3.43201e-07
3.43173e-07
3.43894e-07
3.43687e-07
3.43402e-07
3.43527e-07
3.43595e-07
3.43484e-07
3.43296e-07
3.43024e-07
3.43735e-07
3.43809e-07
3.43754e-07
3.43661e-07
3.43438e-07
3.43183e-07
3.43196e-07
3.43268e-07
3.43879e-07
3.43766e-07
3.4351e-07
3.43523e-07
3.43554e-07
3.43512e-07
3.43407e-07
3.43263e-07
3.43718e-07
3.4372e-07
3.43706e-07
3.43673e-07
3.43582e-07
3.43397e-07
3.43295e-07
3.432e-07
3.43829e-07
3.43774e-07
3.43653e-07
3.43588e-07
3.43517e-07
3.43483e-07
3.43459e-07
3.43279e-07
3.43728e-07
3.43699e-07
3.43649e-07
3.43649e-07
3.43598e-07
3.43492e-07
3.43441e-07
3.43285e-07
3.43802e-07
3.43765e-07
3.43695e-07
3.43639e-07
3.43564e-07
3.43489e-07
3.43416e-07
3.43232e-07
3.43716e-07
3.43678e-07
3.43624e-07
3.43585e-07
3.43526e-07
3.43458e-07
3.43395e-07
3.4326e-07
3.43744e-07
3.43737e-07
3.43688e-07
3.43653e-07
3.43585e-07
3.43493e-07
3.43471e-07
3.4333e-07
3.43648e-07
3.43634e-07
3.4357e-07
3.43561e-07
3.43496e-07
3.43431e-07
3.43391e-07
3.43285e-07
3.4358e-07
3.43595e-07
3.43612e-07
3.43567e-07
3.43541e-07
3.43483e-07
3.43444e-07
3.43369e-07
3.43468e-07
3.43466e-07
3.43452e-07
3.43439e-07
3.43442e-07
3.43405e-07
3.43388e-07
3.43314e-07
3.43412e-07
3.43384e-07
3.43365e-07
3.43353e-07
3.43351e-07
3.43313e-07
3.43333e-07
3.43279e-07
3.43313e-07
3.43281e-07
3.43275e-07
3.43243e-07
3.43248e-07
3.43241e-07
3.43247e-07
3.43213e-07
3.4324e-07
3.43228e-07
3.43206e-07
3.43176e-07
3.43182e-07
3.43136e-07
3.43144e-07
3.43109e-07
3.43206e-07
3.43171e-07
3.43178e-07
3.43163e-07
3.43153e-07
3.43118e-07
3.43108e-07
3.43068e-07
3.43126e-07
3.43099e-07
3.43114e-07
3.43085e-07
3.43099e-07
3.43073e-07
3.43073e-07
3.43034e-07
3.43131e-07
3.43093e-07
3.43088e-07
3.43107e-07
3.43115e-07
3.43089e-07
3.4309e-07
3.43061e-07
3.43028e-07
3.43004e-07
3.43014e-07
3.43012e-07
3.43035e-07
3.43026e-07
3.43033e-07
3.43036e-07
3.43052e-07
3.43035e-07
3.43047e-07
3.43039e-07
3.43078e-07
3.43063e-07
3.43076e-07
3.4303e-07
3.42893e-07
3.42896e-07
3.42924e-07
3.42929e-07
3.42958e-07
3.42973e-07
3.42993e-07
3.43002e-07
3.42843e-07
3.42847e-07
3.42884e-07
3.42887e-07
3.42912e-07
3.4293e-07
3.42955e-07
3.4292e-07
3.42715e-07
3.42743e-07
3.42783e-07
3.42803e-07
3.42853e-07
3.42871e-07
3.42935e-07
3.42988e-07
3.42732e-07
3.42777e-07
3.42821e-07
3.42857e-07
3.42897e-07
3.42919e-07
3.4296e-07
3.42953e-07
3.42288e-07
3.42347e-07
3.42406e-07
3.42465e-07
3.42532e-07
3.42591e-07
3.42658e-07
3.42711e-07
3.42208e-07
3.42267e-07
3.42325e-07
3.42388e-07
3.42449e-07
3.42506e-07
3.42563e-07
3.42611e-07
3.42459e-07
3.42465e-07
3.42475e-07
3.42495e-07
3.42516e-07
3.42543e-07
3.42574e-07
3.42606e-07
3.44803e-07
3.44567e-07
3.44342e-07
3.44131e-07
3.43936e-07
3.43758e-07
3.43597e-07
3.43454e-07
3.55013e-07
3.54138e-07
3.53233e-07
3.52312e-07
3.51392e-07
3.50484e-07
3.49604e-07
3.48761e-07
3.85003e-07
3.83506e-07
3.81821e-07
3.79963e-07
3.77949e-07
3.75801e-07
3.73544e-07
3.71203e-07
4.34808e-07
4.34369e-07
4.33671e-07
4.32694e-07
4.31422e-07
4.29836e-07
4.27921e-07
4.25664e-07
4.7682e-07
4.78053e-07
4.79227e-07
4.80323e-07
4.81324e-07
4.82215e-07
4.82974e-07
4.83577e-07
5.12771e-07
5.14101e-07
5.15419e-07
5.16729e-07
5.18038e-07
5.19353e-07
5.20677e-07
5.22018e-07
1.5652e-09
1.26545e-09
1.13791e-09
1.05159e-09
9.85302e-10
9.31706e-10
8.87094e-10
8.48906e-10
8.16962e-10
7.90004e-10
7.66978e-10
7.46544e-10
7.2821e-10
7.12178e-10
6.97647e-10
6.83782e-10
6.69751e-10
6.55853e-10
6.43538e-10
6.32304e-10
6.21553e-10
6.11613e-10
6.029e-10
5.95229e-10
5.89035e-10
5.84436e-10
5.81092e-10
5.76285e-10
5.71867e-10
5.67016e-10
5.61419e-10
5.55725e-10
5.48077e-10
5.40613e-10
5.33394e-10
5.25335e-10
5.16888e-10
5.04713e-10
4.94482e-10
4.8921e-10
4.86069e-10
4.83883e-10
4.784e-10
4.68564e-10
4.58692e-10
4.52831e-10
4.5111e-10
4.51113e-10
4.48432e-10
4.39078e-10
4.24771e-10
4.10991e-10
4.02957e-10
4.03587e-10
4.08773e-10
4.13401e-10
4.08843e-10
3.97296e-10
3.87686e-10
3.83923e-10
3.84348e-10
3.91011e-10
4.08551e-10
4.35969e-10
4.61304e-10
4.82628e-10
5.03908e-10
5.13317e-10
5.14804e-10
5.20804e-10
5.27654e-10
5.32094e-10
5.34834e-10
5.29182e-10
5.18699e-10
5.1446e-10
5.15132e-10
5.1782e-10
5.12645e-10
4.90539e-10
4.66114e-10
4.61647e-10
4.73288e-10
4.91632e-10
5.07712e-10
5.1684e-10
5.23884e-10
5.22714e-10
5.2201e-10
5.34214e-10
5.46038e-10
5.53598e-10
5.55834e-10
5.51046e-10
5.32223e-10
5.31233e-10
5.47725e-10
5.33339e-10
5.14011e-10
5.10521e-10
4.98154e-10
4.79844e-10
4.77428e-10
4.82589e-10
4.86127e-10
4.9041e-10
4.84963e-10
4.80312e-10
4.99243e-10
5.38325e-10
5.6168e-10
5.68185e-10
5.77368e-10
5.88656e-10
5.99694e-10
6.05152e-10
5.98652e-10
5.80338e-10
5.57805e-10
5.42424e-10
5.40246e-10
5.39828e-10
5.34627e-10
5.25475e-10
5.20435e-10
5.18954e-10
5.18697e-10
5.21077e-10
5.33568e-10
5.46802e-10
5.52312e-10
5.49739e-10
5.40576e-10
5.28935e-10
5.20976e-10
5.231e-10
5.23194e-10
5.16968e-10
5.04147e-10
4.87861e-10
4.85843e-10
4.96722e-10
5.04506e-10
4.9952e-10
4.84385e-10
4.61281e-10
4.5638e-10
4.52733e-10
4.52477e-10
4.51656e-10
4.47292e-10
4.38942e-10
4.35895e-10
4.4015e-10
4.43882e-10
4.41792e-10
1.1042e-07
9.3621e-08
8.92367e-08
8.57262e-08
8.29761e-08
8.06776e-08
7.87239e-08
7.70352e-08
7.56048e-08
7.43659e-08
7.32591e-08
7.22493e-08
7.13339e-08
7.05316e-08
6.97968e-08
6.90808e-08
6.83216e-08
6.75226e-08
6.68166e-08
6.61515e-08
6.54472e-08
6.47988e-08
6.42578e-08
6.38181e-08
6.35172e-08
6.33664e-08
6.33109e-08
6.31815e-08
6.3122e-08
6.30597e-08
6.29024e-08
6.26192e-08
6.22368e-08
6.18598e-08
6.14683e-08
6.10255e-08
6.04002e-08
5.94905e-08
5.90052e-08
5.90156e-08
5.91657e-08
5.91242e-08
5.86136e-08
5.75689e-08
5.63233e-08
5.52474e-08
5.47055e-08
5.43682e-08
5.36219e-08
5.20204e-08
4.9781e-08
4.71829e-08
4.53136e-08
4.4904e-08
4.52695e-08
4.54736e-08
4.43992e-08
4.24533e-08
4.07906e-08
3.99311e-08
3.9818e-08
4.04568e-08
4.16559e-08
4.30105e-08
4.42426e-08
4.55627e-08
4.75922e-08
4.88213e-08
4.88655e-08
4.90376e-08
4.97426e-08
5.09363e-08
5.20645e-08
5.23064e-08
5.10288e-08
4.92889e-08
4.83451e-08
4.83934e-08
4.85246e-08
4.75655e-08
4.48183e-08
4.31287e-08
4.31014e-08
4.46191e-08
4.66682e-08
4.89283e-08
5.02578e-08
5.04492e-08
5.06729e-08
5.0606e-08
5.03994e-08
4.99994e-08
4.9166e-08
4.84635e-08
4.68786e-08
4.65821e-08
4.74142e-08
4.47504e-08
4.23783e-08
4.19282e-08
4.20377e-08
4.15567e-08
4.14475e-08
4.19647e-08
4.2523e-08
4.41542e-08
4.55058e-08
4.49719e-08
4.43053e-08
4.49091e-08
4.54977e-08
4.58772e-08
4.66543e-08
4.74124e-08
4.79003e-08
4.81093e-08
4.81215e-08
4.78841e-08
4.71485e-08
4.62782e-08
4.59221e-08
4.6085e-08
4.6422e-08
4.68385e-08
4.7218e-08
4.72985e-08
4.71193e-08
4.71613e-08
4.71909e-08
4.72465e-08
4.758e-08
4.80923e-08
4.86591e-08
4.87014e-08
4.81528e-08
4.70864e-08
4.62754e-08
4.62402e-08
4.68476e-08
4.78536e-08
4.82743e-08
4.79913e-08
4.73736e-08
4.68849e-08
4.67155e-08
4.68053e-08
4.6146e-08
4.53512e-08
4.47749e-08
4.46076e-08
4.48715e-08
4.56203e-08
4.61065e-08
4.59389e-08
4.55353e-08
4.52424e-08
3.05285e-07
2.8325e-07
2.79486e-07
2.76182e-07
2.73514e-07
2.7131e-07
2.6943e-07
2.6781e-07
2.66433e-07
2.65231e-07
2.64132e-07
2.63096e-07
2.6213e-07
2.61271e-07
2.60468e-07
2.59675e-07
2.58827e-07
2.57901e-07
2.57088e-07
2.56309e-07
2.55458e-07
2.54655e-07
2.53985e-07
2.53438e-07
2.53072e-07
2.52888e-07
2.52834e-07
2.52688e-07
2.52653e-07
2.52606e-07
2.52424e-07
2.52021e-07
2.51524e-07
2.51035e-07
2.50498e-07
2.49872e-07
2.48942e-07
2.47578e-07
2.46898e-07
2.47006e-07
2.47361e-07
2.47374e-07
2.46664e-07
2.4514e-07
2.4323e-07
2.41508e-07
2.40634e-07
2.40094e-07
2.38841e-07
2.36069e-07
2.32006e-07
2.2686e-07
2.22936e-07
2.22182e-07
2.23029e-07
2.2349e-07
2.21066e-07
2.16456e-07
2.12204e-07
2.0975e-07
2.09144e-07
2.10386e-07
2.12945e-07
2.15653e-07
2.17981e-07
2.2044e-07
2.24455e-07
2.26754e-07
2.26503e-07
2.26509e-07
2.27553e-07
2.29938e-07
2.32575e-07
2.33547e-07
2.31428e-07
2.28169e-07
2.26368e-07
2.26595e-07
2.26999e-07
2.25007e-07
2.18899e-07
2.14755e-07
2.14155e-07
2.17539e-07
2.22455e-07
2.27408e-07
2.29897e-07
2.30093e-07
2.3043e-07
2.30252e-07
2.30098e-07
2.2971e-07
2.28509e-07
2.2757e-07
2.24895e-07
2.24623e-07
2.26308e-07
2.20221e-07
2.14542e-07
2.1318e-07
2.13402e-07
2.12293e-07
2.1171e-07
2.12518e-07
2.13443e-07
2.17223e-07
2.20105e-07
2.18788e-07
2.16126e-07
2.16294e-07
2.16906e-07
2.17559e-07
2.19262e-07
2.20592e-07
2.21133e-07
2.21232e-07
2.21317e-07
2.2107e-07
2.19676e-07
2.17367e-07
2.15967e-07
2.15981e-07
2.1697e-07
2.18683e-07
2.20128e-07
2.20356e-07
2.19303e-07
2.18367e-07
2.17683e-07
2.17324e-07
2.17974e-07
2.19136e-07
2.20379e-07
2.20552e-07
2.19618e-07
2.17533e-07
2.15923e-07
2.15969e-07
2.17341e-07
2.19304e-07
2.20063e-07
2.19332e-07
2.1796e-07
2.16939e-07
2.16802e-07
2.17311e-07
2.16437e-07
2.1516e-07
2.14032e-07
2.13563e-07
2.13886e-07
2.15237e-07
2.16203e-07
2.15918e-07
2.15148e-07
2.14653e-07
3.4581e-07
3.35433e-07
3.34556e-07
3.33561e-07
3.32873e-07
3.32196e-07
3.3166e-07
3.31183e-07
3.30794e-07
3.3047e-07
3.30185e-07
3.29912e-07
3.29644e-07
3.29395e-07
3.29169e-07
3.28947e-07
3.28717e-07
3.2845e-07
3.28226e-07
3.28011e-07
3.27774e-07
3.27537e-07
3.27347e-07
3.27192e-07
3.27089e-07
3.27029e-07
3.27012e-07
3.26965e-07
3.26964e-07
3.26962e-07
3.26913e-07
3.26765e-07
3.26611e-07
3.26471e-07
3.26303e-07
3.26103e-07
3.25813e-07
3.2534e-07
3.25126e-07
3.25192e-07
3.25343e-07
3.2536e-07
3.25109e-07
3.24591e-07
3.23924e-07
3.23318e-07
3.23001e-07
3.228e-07
3.22343e-07
3.21374e-07
3.19872e-07
3.17864e-07
3.16295e-07
3.15997e-07
3.16317e-07
3.16472e-07
3.15461e-07
3.13472e-07
3.1161e-07
3.10552e-07
3.10282e-07
3.10819e-07
3.11907e-07
3.1308e-07
3.14124e-07
3.15054e-07
3.16636e-07
3.17485e-07
3.17366e-07
3.1743e-07
3.17768e-07
3.18653e-07
3.19757e-07
3.2007e-07
3.19293e-07
3.18165e-07
3.1756e-07
3.17586e-07
3.1777e-07
3.17016e-07
3.14683e-07
3.13111e-07
3.12739e-07
3.14087e-07
3.16083e-07
3.17963e-07
3.18894e-07
3.18975e-07
3.19131e-07
3.18925e-07
3.18743e-07
3.18524e-07
3.18078e-07
3.17636e-07
3.1667e-07
3.1649e-07
3.17053e-07
3.14815e-07
3.12686e-07
3.12164e-07
3.12352e-07
3.11992e-07
3.11687e-07
3.119e-07
3.12198e-07
3.13921e-07
3.15205e-07
3.14605e-07
3.13365e-07
3.13446e-07
3.13668e-07
3.13892e-07
3.14633e-07
3.15139e-07
3.15294e-07
3.1529e-07
3.15328e-07
3.15256e-07
3.14666e-07
3.13621e-07
3.12931e-07
3.1288e-07
3.13384e-07
3.14201e-07
3.14812e-07
3.14882e-07
3.14385e-07
3.13857e-07
3.13432e-07
3.13122e-07
3.13372e-07
3.13882e-07
3.14399e-07
3.14468e-07
3.14042e-07
3.13065e-07
3.12286e-07
3.12329e-07
3.13008e-07
3.13907e-07
3.14204e-07
3.13819e-07
3.13161e-07
3.12693e-07
3.12702e-07
3.12936e-07
3.12549e-07
3.11935e-07
3.11393e-07
3.11182e-07
3.11334e-07
3.11977e-07
3.12346e-07
3.12139e-07
3.11803e-07
3.11543e-07
3.41385e-07
3.4309e-07
3.41884e-07
3.41489e-07
3.41132e-07
3.40902e-07
3.4064e-07
3.40472e-07
3.40331e-07
3.40218e-07
3.40119e-07
3.40031e-07
3.39948e-07
3.39886e-07
3.39832e-07
3.39773e-07
3.39716e-07
3.39639e-07
3.39585e-07
3.39534e-07
3.3948e-07
3.39419e-07
3.39377e-07
3.3934e-07
3.39314e-07
3.3929e-07
3.39285e-07
3.39265e-07
3.39273e-07
3.39276e-07
3.39262e-07
3.39204e-07
3.39162e-07
3.39129e-07
3.39086e-07
3.39032e-07
3.38983e-07
3.38858e-07
3.38818e-07
3.38839e-07
3.3888e-07
3.38878e-07
3.38805e-07
3.38685e-07
3.38534e-07
3.38382e-07
3.38296e-07
3.38224e-07
3.38086e-07
3.37869e-07
3.3753e-07
3.37078e-07
3.36708e-07
3.36621e-07
3.36658e-07
3.36648e-07
3.36389e-07
3.35938e-07
3.35472e-07
3.35209e-07
3.3512e-07
3.35214e-07
3.35365e-07
3.3567e-07
3.35954e-07
3.36076e-07
3.36456e-07
3.36625e-07
3.36584e-07
3.36713e-07
3.36778e-07
3.36973e-07
3.37321e-07
3.37286e-07
3.37052e-07
3.36841e-07
3.36793e-07
3.3675e-07
3.36815e-07
3.3661e-07
3.36089e-07
3.35856e-07
3.35598e-07
3.35816e-07
3.36343e-07
3.36818e-07
3.37057e-07
3.37098e-07
3.37188e-07
3.37051e-07
3.36913e-07
3.36783e-07
3.36667e-07
3.36456e-07
3.36232e-07
3.3609e-07
3.36168e-07
3.35664e-07
3.35286e-07
3.35188e-07
3.35332e-07
3.35382e-07
3.35282e-07
3.35214e-07
3.35159e-07
3.3573e-07
3.36231e-07
3.36074e-07
3.35716e-07
3.35871e-07
3.35932e-07
3.3592e-07
3.36137e-07
3.36234e-07
3.36238e-07
3.36211e-07
3.36236e-07
3.36273e-07
3.36122e-07
3.35802e-07
3.35504e-07
3.35476e-07
3.35676e-07
3.35967e-07
3.36186e-07
3.36181e-07
3.35948e-07
3.35809e-07
3.35632e-07
3.35486e-07
3.35591e-07
3.35759e-07
3.35875e-07
3.35865e-07
3.35741e-07
3.35416e-07
3.35149e-07
3.35188e-07
3.35454e-07
3.3576e-07
3.35824e-07
3.35678e-07
3.35463e-07
3.35344e-07
3.35354e-07
3.35479e-07
3.35301e-07
3.3509e-07
3.34877e-07
3.34857e-07
3.34927e-07
3.3517e-07
3.35332e-07
3.35259e-07
3.35076e-07
3.35018e-07
3.4499e-07
3.42997e-07
3.42912e-07
3.42399e-07
3.42038e-07
3.41802e-07
3.41684e-07
3.41519e-07
3.41395e-07
3.41305e-07
3.41234e-07
3.41173e-07
3.41114e-07
3.41068e-07
3.41014e-07
3.40978e-07
3.40947e-07
3.40893e-07
3.4086e-07
3.40834e-07
3.40811e-07
3.40775e-07
3.40757e-07
3.40741e-07
3.40728e-07
3.40709e-07
3.40708e-07
3.40691e-07
3.40692e-07
3.407e-07
3.407e-07
3.40655e-07
3.4063e-07
3.40626e-07
3.40616e-07
3.40588e-07
3.40583e-07
3.40511e-07
3.40476e-07
3.40493e-07
3.40519e-07
3.40526e-07
3.40476e-07
3.40415e-07
3.40332e-07
3.40292e-07
3.40265e-07
3.40243e-07
3.40165e-07
3.40126e-07
3.40003e-07
3.39861e-07
3.39759e-07
3.39755e-07
3.39767e-07
3.39754e-07
3.39647e-07
3.39468e-07
3.39321e-07
3.39289e-07
3.39264e-07
3.39212e-07
3.3916e-07
3.39231e-07
3.39382e-07
3.39363e-07
3.3951e-07
3.39521e-07
3.39512e-07
3.39677e-07
3.39675e-07
3.39706e-07
3.39885e-07
3.39736e-07
3.39591e-07
3.39628e-07
3.39738e-07
3.3967e-07
3.39724e-07
3.3966e-07
3.39552e-07
3.39698e-07
3.39509e-07
3.39495e-07
3.39641e-07
3.39735e-07
3.39786e-07
3.3984e-07
3.39891e-07
3.39721e-07
3.39628e-07
3.39579e-07
3.3958e-07
3.39444e-07
3.39372e-07
3.392e-07
3.39152e-07
3.39092e-07
3.39178e-07
3.3924e-07
3.3937e-07
3.39486e-07
3.39383e-07
3.39291e-07
3.39252e-07
3.39535e-07
3.39794e-07
3.39652e-07
3.39458e-07
3.39684e-07
3.39727e-07
3.39671e-07
3.39768e-07
3.3978e-07
3.39748e-07
3.39729e-07
3.39729e-07
3.39757e-07
3.39739e-07
3.39611e-07
3.39434e-07
3.3934e-07
3.39481e-07
3.39651e-07
3.39775e-07
3.39764e-07
3.39644e-07
3.39466e-07
3.39389e-07
3.39359e-07
3.39426e-07
3.39494e-07
3.395e-07
3.39444e-07
3.39415e-07
3.39283e-07
3.39196e-07
3.3925e-07
3.39409e-07
3.39467e-07
3.39492e-07
3.39427e-07
3.39355e-07
3.3929e-07
3.39331e-07
3.39305e-07
3.39295e-07
3.39192e-07
3.39093e-07
3.39135e-07
3.39171e-07
3.39224e-07
3.39212e-07
3.39136e-07
3.39149e-07
3.39081e-07
3.42356e-07
3.43571e-07
3.42549e-07
3.4235e-07
3.4219e-07
3.41998e-07
3.41797e-07
3.41644e-07
3.41525e-07
3.41443e-07
3.41384e-07
3.41336e-07
3.41269e-07
3.41205e-07
3.41165e-07
3.41127e-07
3.41096e-07
3.41049e-07
3.41022e-07
3.41e-07
3.4098e-07
3.40948e-07
3.40931e-07
3.40906e-07
3.40891e-07
3.40871e-07
3.4087e-07
3.40854e-07
3.40864e-07
3.40863e-07
3.40851e-07
3.40806e-07
3.40785e-07
3.40776e-07
3.40752e-07
3.40731e-07
3.40736e-07
3.40684e-07
3.40683e-07
3.40695e-07
3.40706e-07
3.40697e-07
3.40662e-07
3.40642e-07
3.40619e-07
3.40578e-07
3.40554e-07
3.40512e-07
3.40459e-07
3.40437e-07
3.404e-07
3.40378e-07
3.40366e-07
3.4035e-07
3.40317e-07
3.40273e-07
3.40248e-07
3.40249e-07
3.40226e-07
3.40233e-07
3.40202e-07
3.40134e-07
3.40001e-07
3.40013e-07
3.40103e-07
3.40012e-07
3.40047e-07
3.40026e-07
3.39998e-07
3.40168e-07
3.40148e-07
3.40123e-07
3.40279e-07
3.40149e-07
3.40054e-07
3.40089e-07
3.4019e-07
3.40133e-07
3.40173e-07
3.40144e-07
3.40131e-07
3.40324e-07
3.40147e-07
3.40084e-07
3.40176e-07
3.40186e-07
3.40228e-07
3.40234e-07
3.40286e-07
3.40181e-07
3.40101e-07
3.40029e-07
3.4005e-07
3.39915e-07
3.39876e-07
3.3973e-07
3.39671e-07
3.39698e-07
3.39859e-07
3.39931e-07
3.40047e-07
3.40196e-07
3.40138e-07
3.4001e-07
3.39881e-07
3.40058e-07
3.40284e-07
3.40229e-07
3.40093e-07
3.40333e-07
3.40369e-07
3.40285e-07
3.4035e-07
3.40322e-07
3.40287e-07
3.40271e-07
3.40291e-07
3.40332e-07
3.40267e-07
3.40192e-07
3.40064e-07
3.40011e-07
3.40109e-07
3.40198e-07
3.40252e-07
3.40221e-07
3.40171e-07
3.40106e-07
3.40053e-07
3.39978e-07
3.40014e-07
3.40065e-07
3.40017e-07
3.39972e-07
3.39952e-07
3.39849e-07
3.39776e-07
3.3981e-07
3.39917e-07
3.40027e-07
3.40039e-07
3.39976e-07
3.39933e-07
3.39933e-07
3.39936e-07
3.39987e-07
3.39922e-07
3.39879e-07
3.39793e-07
3.3981e-07
3.3985e-07
3.39946e-07
3.40004e-07
3.3999e-07
3.39914e-07
3.39934e-07
3.44442e-07
3.43111e-07
3.42971e-07
3.42414e-07
3.42079e-07
3.41857e-07
3.41672e-07
3.41534e-07
3.41422e-07
3.41343e-07
3.41286e-07
3.41239e-07
3.41195e-07
3.41166e-07
3.41132e-07
3.411e-07
3.41073e-07
3.41024e-07
3.40999e-07
3.4098e-07
3.40962e-07
3.40932e-07
3.40916e-07
3.40904e-07
3.40893e-07
3.40876e-07
3.40871e-07
3.40853e-07
3.40856e-07
3.40866e-07
3.40862e-07
3.40821e-07
3.40797e-07
3.40793e-07
3.40783e-07
3.4076e-07
3.40762e-07
3.40702e-07
3.40682e-07
3.40689e-07
3.40714e-07
3.40717e-07
3.40683e-07
3.40637e-07
3.40562e-07
3.40541e-07
3.40515e-07
3.40497e-07
3.40432e-07
3.40427e-07
3.40365e-07
3.40296e-07
3.40258e-07
3.40266e-07
3.40268e-07
3.40252e-07
3.40198e-07
3.40107e-07
3.40047e-07
3.40078e-07
3.40075e-07
3.39991e-07
3.3987e-07
3.39887e-07
3.39991e-07
3.39919e-07
3.40013e-07
3.39991e-07
3.39977e-07
3.40138e-07
3.40121e-07
3.40114e-07
3.40267e-07
3.401e-07
3.39973e-07
3.40071e-07
3.4022e-07
3.40152e-07
3.40203e-07
3.40157e-07
3.40167e-07
3.40402e-07
3.40208e-07
3.40118e-07
3.40184e-07
3.40202e-07
3.402e-07
3.40243e-07
3.40313e-07
3.40182e-07
3.40079e-07
3.40034e-07
3.40054e-07
3.39918e-07
3.39893e-07
3.39732e-07
3.39689e-07
3.39723e-07
3.39905e-07
3.39984e-07
3.40101e-07
3.4025e-07
3.40197e-07
3.40072e-07
3.39962e-07
3.4014e-07
3.40359e-07
3.40301e-07
3.40165e-07
3.40398e-07
3.40429e-07
3.40353e-07
3.40417e-07
3.40406e-07
3.40375e-07
3.40352e-07
3.40349e-07
3.40384e-07
3.40345e-07
3.40275e-07
3.40146e-07
3.40135e-07
3.40221e-07
3.40295e-07
3.40386e-07
3.40342e-07
3.40228e-07
3.4016e-07
3.40084e-07
3.40067e-07
3.40123e-07
3.40165e-07
3.40156e-07
3.40116e-07
3.40071e-07
3.4001e-07
3.3995e-07
3.40001e-07
3.40108e-07
3.40051e-07
3.40077e-07
3.4009e-07
3.40063e-07
3.39998e-07
3.40045e-07
3.39962e-07
3.39954e-07
3.39868e-07
3.39824e-07
3.39869e-07
3.39896e-07
3.39911e-07
3.39877e-07
3.398e-07
3.39821e-07
3.39781e-07
3.42953e-07
3.43435e-07
3.4261e-07
3.42339e-07
3.42078e-07
3.41893e-07
3.41765e-07
3.41609e-07
3.41506e-07
3.41428e-07
3.41374e-07
3.41325e-07
3.41264e-07
3.41209e-07
3.41167e-07
3.41131e-07
3.41098e-07
3.41049e-07
3.41023e-07
3.40998e-07
3.40971e-07
3.40942e-07
3.4092e-07
3.40888e-07
3.40881e-07
3.40869e-07
3.40871e-07
3.40862e-07
3.4087e-07
3.4086e-07
3.40852e-07
3.40803e-07
3.4078e-07
3.40774e-07
3.40749e-07
3.40726e-07
3.40733e-07
3.40687e-07
3.40676e-07
3.40681e-07
3.40699e-07
3.40694e-07
3.40655e-07
3.40641e-07
3.40618e-07
3.40568e-07
3.40546e-07
3.40514e-07
3.40468e-07
3.40449e-07
3.40418e-07
3.4041e-07
3.40405e-07
3.40389e-07
3.40353e-07
3.403e-07
3.40285e-07
3.40291e-07
3.40271e-07
3.40287e-07
3.40264e-07
3.40187e-07
3.40052e-07
3.40054e-07
3.40137e-07
3.40051e-07
3.40089e-07
3.40056e-07
3.40039e-07
3.40215e-07
3.40191e-07
3.40166e-07
3.40311e-07
3.40173e-07
3.40085e-07
3.40134e-07
3.40245e-07
3.40183e-07
3.40209e-07
3.40191e-07
3.40195e-07
3.40416e-07
3.40228e-07
3.40143e-07
3.402e-07
3.40209e-07
3.40259e-07
3.40302e-07
3.40341e-07
3.40213e-07
3.40126e-07
3.40048e-07
3.40073e-07
3.39955e-07
3.39918e-07
3.3976e-07
3.39688e-07
3.39752e-07
3.39933e-07
3.40009e-07
3.40128e-07
3.40279e-07
3.40226e-07
3.401e-07
3.39987e-07
3.40168e-07
3.40383e-07
3.40321e-07
3.4019e-07
3.40434e-07
3.40462e-07
3.4038e-07
3.40448e-07
3.40427e-07
3.404e-07
3.40379e-07
3.4038e-07
3.40412e-07
3.4038e-07
3.40313e-07
3.40207e-07
3.4012e-07
3.40233e-07
3.40333e-07
3.40404e-07
3.40367e-07
3.40303e-07
3.40259e-07
3.40171e-07
3.40114e-07
3.40152e-07
3.402e-07
3.40179e-07
3.40091e-07
3.40111e-07
3.39994e-07
3.39943e-07
3.39985e-07
3.40107e-07
3.4021e-07
3.40206e-07
3.40131e-07
3.40082e-07
3.40074e-07
3.40073e-07
3.40125e-07
3.4009e-07
3.40044e-07
3.39953e-07
3.39992e-07
3.40029e-07
3.40091e-07
3.40136e-07
3.4012e-07
3.40079e-07
3.40077e-07
3.44056e-07
3.43171e-07
3.42901e-07
3.42459e-07
3.42146e-07
3.41901e-07
3.41706e-07
3.41585e-07
3.4146e-07
3.41375e-07
3.41319e-07
3.41276e-07
3.41223e-07
3.41176e-07
3.41133e-07
3.41099e-07
3.41069e-07
3.41019e-07
3.40998e-07
3.4098e-07
3.4096e-07
3.40929e-07
3.40912e-07
3.40894e-07
3.40887e-07
3.40876e-07
3.40873e-07
3.40858e-07
3.40869e-07
3.40869e-07
3.40864e-07
3.40823e-07
3.40798e-07
3.40793e-07
3.40781e-07
3.40757e-07
3.40759e-07
3.40709e-07
3.40692e-07
3.40696e-07
3.40719e-07
3.40722e-07
3.40691e-07
3.40653e-07
3.40587e-07
3.40558e-07
3.40534e-07
3.40513e-07
3.40447e-07
3.40441e-07
3.40377e-07
3.40292e-07
3.40241e-07
3.40257e-07
3.40266e-07
3.40265e-07
3.40205e-07
3.4008e-07
3.40004e-07
3.40041e-07
3.40039e-07
3.39942e-07
3.39817e-07
3.39832e-07
3.39967e-07
3.39915e-07
3.40014e-07
3.39992e-07
3.39966e-07
3.40118e-07
3.40104e-07
3.40106e-07
3.4026e-07
3.40086e-07
3.39973e-07
3.4007e-07
3.40223e-07
3.40167e-07
3.40221e-07
3.40171e-07
3.40191e-07
3.40375e-07
3.40196e-07
3.40115e-07
3.40197e-07
3.40185e-07
3.40203e-07
3.40217e-07
3.40317e-07
3.40198e-07
3.4011e-07
3.40046e-07
3.4007e-07
3.39932e-07
3.39893e-07
3.39756e-07
3.3972e-07
3.39747e-07
3.39933e-07
3.40014e-07
3.40123e-07
3.40273e-07
3.40209e-07
3.40099e-07
3.3997e-07
3.4015e-07
3.40347e-07
3.40311e-07
3.40175e-07
3.40419e-07
3.40452e-07
3.40378e-07
3.40443e-07
3.40423e-07
3.40392e-07
3.40373e-07
3.40382e-07
3.40417e-07
3.40369e-07
3.40309e-07
3.40172e-07
3.40125e-07
3.4023e-07
3.40293e-07
3.40391e-07
3.40354e-07
3.40252e-07
3.40124e-07
3.4005e-07
3.40081e-07
3.40141e-07
3.40188e-07
3.40114e-07
3.40107e-07
3.40019e-07
3.39977e-07
3.39947e-07
3.39987e-07
3.40062e-07
3.40007e-07
3.40042e-07
3.40044e-07
3.40041e-07
3.40015e-07
3.40003e-07
3.39931e-07
3.39919e-07
3.39833e-07
3.39802e-07
3.39852e-07
3.39869e-07
3.39857e-07
3.3985e-07
3.39786e-07
3.39801e-07
3.39764e-07
3.43666e-07
3.43177e-07
3.42571e-07
3.42311e-07
3.42079e-07
3.41807e-07
3.41692e-07
3.41527e-07
3.41431e-07
3.41368e-07
3.41323e-07
3.41281e-07
3.41229e-07
3.41186e-07
3.41149e-07
3.41112e-07
3.41079e-07
3.41027e-07
3.40995e-07
3.40962e-07
3.40937e-07
3.40909e-07
3.40884e-07
3.40847e-07
3.4084e-07
3.40829e-07
3.40838e-07
3.40833e-07
3.40846e-07
3.40844e-07
3.40838e-07
3.40786e-07
3.4076e-07
3.40753e-07
3.40723e-07
3.40699e-07
3.40708e-07
3.40662e-07
3.4065e-07
3.40647e-07
3.4067e-07
3.40666e-07
3.40622e-07
3.40606e-07
3.4059e-07
3.40546e-07
3.40519e-07
3.40488e-07
3.40442e-07
3.40428e-07
3.40407e-07
3.40407e-07
3.40399e-07
3.40378e-07
3.40338e-07
3.4028e-07
3.40271e-07
3.40265e-07
3.40231e-07
3.40245e-07
3.40234e-07
3.40162e-07
3.40032e-07
3.40032e-07
3.40116e-07
3.40031e-07
3.40083e-07
3.40047e-07
3.40038e-07
3.40212e-07
3.40184e-07
3.40164e-07
3.40308e-07
3.40175e-07
3.40078e-07
3.40138e-07
3.40245e-07
3.40162e-07
3.40206e-07
3.40194e-07
3.40178e-07
3.4045e-07
3.40246e-07
3.40166e-07
3.40211e-07
3.40239e-07
3.40272e-07
3.40321e-07
3.40348e-07
3.40205e-07
3.40102e-07
3.40054e-07
3.40076e-07
3.39946e-07
3.39938e-07
3.3975e-07
3.39666e-07
3.39736e-07
3.39938e-07
3.40012e-07
3.4014e-07
3.40292e-07
3.40227e-07
3.40097e-07
3.3999e-07
3.40184e-07
3.40403e-07
3.40328e-07
3.40193e-07
3.40442e-07
3.4047e-07
3.40374e-07
3.40443e-07
3.40428e-07
3.40396e-07
3.40376e-07
3.40381e-07
3.40411e-07
3.40372e-07
3.40314e-07
3.40201e-07
3.40144e-07
3.40237e-07
3.4034e-07
3.404e-07
3.40371e-07
3.40317e-07
3.40261e-07
3.40187e-07
3.40119e-07
3.40162e-07
3.40197e-07
3.40184e-07
3.40124e-07
3.40137e-07
3.40056e-07
3.39989e-07
3.4003e-07
3.40159e-07
3.40219e-07
3.40221e-07
3.40179e-07
3.40133e-07
3.40098e-07
3.40167e-07
3.4016e-07
3.40146e-07
3.40115e-07
3.40026e-07
3.40052e-07
3.40094e-07
3.40143e-07
3.40169e-07
3.40152e-07
3.40123e-07
3.40114e-07
3.43326e-07
3.43144e-07
3.42658e-07
3.42226e-07
3.42008e-07
3.41976e-07
3.41652e-07
3.41519e-07
3.41404e-07
3.41324e-07
3.41274e-07
3.41237e-07
3.41194e-07
3.41163e-07
3.41124e-07
3.41089e-07
3.41056e-07
3.41006e-07
3.40986e-07
3.40966e-07
3.40941e-07
3.4091e-07
3.4089e-07
3.40866e-07
3.40858e-07
3.40849e-07
3.40851e-07
3.4084e-07
3.40857e-07
3.40863e-07
3.40861e-07
3.40817e-07
3.4079e-07
3.40782e-07
3.40766e-07
3.40741e-07
3.40745e-07
3.40699e-07
3.40686e-07
3.40688e-07
3.40716e-07
3.40722e-07
3.40687e-07
3.40652e-07
3.40589e-07
3.40562e-07
3.40545e-07
3.40525e-07
3.4046e-07
3.40445e-07
3.40382e-07
3.40268e-07
3.40199e-07
3.40226e-07
3.40253e-07
3.40259e-07
3.40197e-07
3.4003e-07
3.39934e-07
3.39965e-07
3.39971e-07
3.39861e-07
3.39733e-07
3.3975e-07
3.39911e-07
3.39886e-07
3.39996e-07
3.39983e-07
3.39926e-07
3.40052e-07
3.40034e-07
3.40067e-07