/*--------------------------------*- C++ -*----------------------------------*\
| =========                 |                                                 |
| \\      /  F ield         | OpenFOAM: The Open Source CFD Toolbox           |
|  \\    /   O peration     | Version:  v1912                                 |
|   \\  /    A nd           | Website:  www.openfoam.com                      |
|    \\/     M anipulation  |                                                 |
\*---------------------------------------------------------------------------*/
FoamFile
{
    version     2.0;
    format      ascii;
    class       surfaceScalarField;
    location    "50";
    object      phi;
}
// * * * * * * * * * * * * * * * * * * * * * * * * * * * * * * * * * * * * * //

dimensions      [0 3 -1 0 0 0 0];
oriented        oriented;


internalField   nonuniform List<scalar> 
28285
(
-0.00103296
-2.58493e-05
-0.00100839
-2.45701e-05
-0.000985107
-2.32776e-05
-0.000962353
-2.27541e-05
-0.000941736
-2.06169e-05
-0.000924602
-1.71342e-05
-0.000907612
-1.69906e-05
-2.26144e-05
-0.000884997
-0.00103183
-5.169e-05
-0.00100727
-4.9124e-05
-0.00098403
-4.65231e-05
-0.000961367
-4.54162e-05
-0.000940914
-4.107e-05
-0.000923991
-3.40579e-05
-0.000907232
-3.37492e-05
-4.52026e-05
-0.000884644
-0.0010318
-7.7523e-05
-0.00100725
-7.36715e-05
-0.000984009
-6.97631e-05
-0.000961341
-6.80843e-05
-0.000940866
-6.15445e-05
-0.000923909
-5.10149e-05
-0.000907153
-5.05055e-05
-6.78096e-05
-0.000884546
-0.00103178
-0.000103352
-0.00100724
-9.82149e-05
-0.000984004
-9.29953e-05
-0.000961347
-9.07413e-05
-0.000940872
-8.20192e-05
-0.000923873
-6.80146e-05
-0.000907038
-6.73401e-05
-9.06011e-05
-0.000884247
-0.00103176
-0.000129173
-0.00100723
-0.000122748
-0.000984
-0.000116224
-0.000961338
-0.000113403
-0.000940847
-0.000102511
-0.000923811
-8.505e-05
-0.000906971
-8.41801e-05
-0.000113449
-0.000884124
-0.00103174
-0.000154989
-0.00100721
-0.000147275
-0.000983988
-0.000139447
-0.00096133
-0.00013606
-0.000940829
-0.000123012
-0.000923753
-0.000102125
-0.000906838
-0.000101095
-0.000136437
-0.00088385
-0.00103172
-0.000180799
-0.0010072
-0.000171792
-0.00098398
-0.000162665
-0.000961321
-0.00015872
-0.000940812
-0.000143521
-0.000923702
-0.000119235
-0.000906777
-0.00011802
-0.000159503
-0.00088371
-0.00103168
-0.000206607
-0.00100718
-0.000196291
-0.000983971
-0.000185879
-0.000961307
-0.000181383
-0.000940795
-0.000164034
-0.000923635
-0.000136396
-0.000906641
-0.000135014
-0.000182682
-0.000883463
-0.00103166
-0.00023241
-0.00100717
-0.000220783
-0.000983967
-0.000209085
-0.0009613
-0.00020405
-0.000940783
-0.000184551
-0.000923576
-0.000153603
-0.000906585
-0.000152004
-0.000205954
-0.000883313
-0.00103168
-0.000258205
-0.00100718
-0.000245284
-0.000983977
-0.000232289
-0.000961306
-0.000226721
-0.000940784
-0.000205072
-0.000923537
-0.00017085
-0.000906446
-0.000169096
-0.000229325
-0.000883075
-0.0010319
-0.00028399
-0.0010074
-0.000269788
-0.000984178
-0.000255507
-0.000961468
-0.000249431
-0.000940888
-0.000225652
-0.000923569
-0.000188169
-0.000906389
-0.000186276
-0.000252849
-0.000882865
-0.0010331
-0.000309639
-0.00100871
-0.000294179
-0.00098552
-0.000278701
-0.000962673
-0.000272279
-0.000941792
-0.000246532
-0.000924063
-0.000205898
-0.000906442
-0.000203898
-0.000276862
-0.000882429
-0.00103676
-0.000334516
-0.00101336
-0.000317575
-0.000990957
-0.000301105
-0.000968301
-0.000294935
-0.000946672
-0.000268162
-0.000927447
-0.000225123
-0.000908023
-0.000223321
-0.000302555
-0.000882331
-0.0010397
-0.000358686
-0.00101737
-0.000339907
-0.0009964
-0.000322073
-0.000975191
-0.000316143
-0.000954515
-0.000288838
-0.000934543
-0.000245094
-0.000912663
-0.000245201
-0.000331793
-0.000883424
-0.00626589
-0.00112151
-0.00554128
-0.00106451
-0.00484967
-0.00101369
-0.00418305
-0.000982761
-0.00354479
-0.000927095
-0.0029342
-0.000855689
-0.00234343
-0.000835971
-0.000910921
-0.0017643
-0.0062348
-0.00188702
-0.00550712
-0.00179219
-0.00481345
-0.00170736
-0.0041476
-0.00164861
-0.00351357
-0.00156112
-0.00291143
-0.00145783
-0.0023309
-0.0014165
-0.00148031
-0.00176151
-0.00623377
-0.00265219
-0.00550614
-0.00251982
-0.0048125
-0.002401
-0.00414638
-0.00231473
-0.00351241
-0.00219509
-0.00291035
-0.0020599
-0.00233008
-0.00199676
-0.00204958
-0.00176082
-0.0062317
-0.00341683
-0.00550464
-0.00324688
-0.00481135
-0.00309428
-0.00414547
-0.00298061
-0.00351188
-0.00282867
-0.00290978
-0.002662
-0.00232952
-0.00257703
-0.00261907
-0.00176002
-0.00622761
-0.00418082
-0.0055015
-0.00397299
-0.00480922
-0.00378657
-0.00414415
-0.00364568
-0.00351103
-0.00346179
-0.00290888
-0.00326415
-0.00232898
-0.00315692
-0.00318922
-0.00175883
-0.00622468
-0.00494434
-0.00549885
-0.00469882
-0.00480704
-0.00447837
-0.00414261
-0.00431011
-0.00350993
-0.00409448
-0.00290808
-0.00386601
-0.00232862
-0.00373638
-0.00376087
-0.00175698
-0.00622257
-0.005708
-0.00549667
-0.00542473
-0.00480445
-0.00517059
-0.00414088
-0.00497368
-0.00350918
-0.00472618
-0.00290799
-0.00446719
-0.00232724
-0.00431713
-0.00433233
-0.00175577
-0.0281776
-0.00642465
-0.0275054
-0.00609694
-0.0268521
-0.00582391
-0.0262425
-0.00558332
-0.0256507
-0.00531796
-0.0251413
-0.00497655
-0.0246381
-0.00482038
-0.00505753
-0.0239129
-0.0283264
-0.00719229
-0.0275941
-0.00682926
-0.026897
-0.00652098
-0.026229
-0.00625133
-0.0256228
-0.00592411
-0.0250808
-0.0055186
-0.0246053
-0.00529587
-0.00580413
-0.0238587
-0.0291594
-0.0081851
-0.0282369
-0.00775177
-0.0273767
-0.00738119
-0.0265769
-0.00705116
-0.0258226
-0.00667838
-0.0251276
-0.0062136
-0.0245002
-0.0059233
-0.0066994
-0.0236049
-0.0302044
-0.00929854
-0.0290729
-0.00888326
-0.0279514
-0.00850264
-0.026848
-0.00815455
-0.0257676
-0.00775883
-0.0246949
-0.00728627
-0.0236485
-0.00696969
-0.00788955
-0.0224584
-0.0280481
-0.0107781
-0.0265025
-0.0104289
-0.0249359
-0.0100693
-0.0234005
-0.00968992
-0.0219511
-0.00920822
-0.0206608
-0.00857656
-0.0194494
-0.00818105
-0.0092605
-0.0180785
0.0954428
-0.0107441
0.0937122
-0.00869838
0.0904425
-0.00679949
0.0861188
-0.00536627
0.0809798
-0.00406924
0.0741968
-0.00179349
0.0597054
0.00631032
0.0226793
0.0277656
0.0579807
-0.0128585
0.0606541
-0.0113717
0.0640195
-0.0101649
0.0680437
-0.00939043
0.0736901
-0.00971568
0.0807859
-0.00888932
0.0849348
0.0021615
0.0233183
0.0842957
0.0439082
-0.01303
0.0442516
-0.0117152
0.0446574
-0.0105707
0.0448309
-0.00956392
0.0448139
-0.00969869
0.0450573
-0.00913266
0.0484371
-0.00121832
0.0158603
0.0558951
0.0430366
-0.0132707
0.043447
-0.0121256
0.0441116
-0.0112352
0.0448699
-0.0103222
0.045441
-0.0102698
0.0452275
-0.00891917
0.0454256
-0.00141634
0.0122723
0.0490136
0.0394435
-0.0133736
0.0396856
-0.0123677
0.0399374
-0.0114871
0.0400207
-0.0104055
0.039798
-0.0100471
0.0391604
-0.00828157
0.0401291
-0.00238508
0.00759893
0.0448025
0.0374217
-0.0134844
0.0376777
-0.0126236
0.0381272
-0.0119366
0.0386771
-0.0109553
0.0392154
-0.0105854
0.039325
-0.00839115
0.0398668
-0.00292692
0.00513876
0.042327
0.0348179
-0.0135057
0.0349385
-0.0127442
0.0351197
-0.0121179
0.0352324
-0.011068
0.0351399
-0.0104929
0.0350335
-0.00828483
0.0362974
-0.0041908
0.00173494
0.0397012
0.0327297
-0.0135599
0.0329134
-0.0129279
0.0332543
-0.0124588
0.0337223
-0.0115359
0.0342662
-0.0110368
0.0346846
-0.00870319
0.0354512
-0.00495743
-9.28143e-05
0.037279
0.0300944
-0.0135036
0.0301389
-0.0129725
0.03027
-0.0125899
0.0304011
-0.011667
0.0304382
-0.0110739
0.0306779
-0.00894291
0.0318843
-0.00616388
-0.00269315
0.0344847
0.0279663
-0.0134431
0.0280221
-0.0130283
0.0282158
-0.0127836
0.0285733
-0.0120245
0.0290512
-0.0115518
0.0295709
-0.00946262
0.0303952
-0.00698817
-0.00412349
0.0318255
0.0255537
-0.0132509
0.0254596
-0.0129341
0.0254736
-0.0127977
0.0255481
-0.012099
0.0256332
-0.0116368
0.0260022
-0.0098316
0.0270408
-0.00802675
-0.00604589
0.0289632
0.0235696
-0.0130113
0.0234575
-0.0128219
0.0234822
-0.0128224
0.0236693
-0.0122862
0.023992
-0.0119595
0.0244467
-0.0102862
0.025176
-0.00875609
-0.00714212
0.0262722
0.0215242
-0.0126515
0.0212791
-0.0125769
0.0211558
-0.012699
0.0210952
-0.0122256
0.0211079
-0.0119723
0.02142
-0.0105982
0.0222002
-0.00953636
-0.00849778
0.0235559
0.0197706
-0.0122516
0.0195177
-0.012324
0.0193611
-0.0125424
0.0193428
-0.0122072
0.0194602
-0.0120898
0.019756
-0.010894
0.0203022
-0.0100825
-0.00927134
0.0210758
0.0181983
-0.0117554
0.0178394
-0.0119651
0.0175391
-0.0122422
0.0173066
-0.0119747
0.0172258
-0.0120089
0.0173888
-0.011057
0.0178693
-0.010563
-0.0101119
0.0187098
0.0168465
-0.0111118
0.0163758
-0.0114943
0.0159989
-0.0118653
0.0157996
-0.0117754
0.0157586
-0.011968
0.0158645
-0.0111629
0.0161423
-0.0108408
-0.0105602
0.0165905
0.0158458
-0.0102305
0.0151624
-0.0108109
0.0146716
-0.0113745
0.0143557
-0.0114596
0.0141375
-0.0117497
0.0141011
-0.0111265
0.0142867
-0.0110263
-0.011008
0.0147345
0.015141
-0.00911179
0.0142339
-0.00990387
0.0135916
-0.0107321
0.0131749
-0.0110429
0.012848
-0.0114229
0.0127244
-0.0110029
0.0128151
-0.011117
-0.0112457
0.0130528
0.0148462
-0.00787793
0.0137985
-0.00885622
0.0129595
-0.00989313
0.0123112
-0.0103945
0.0117952
-0.0109069
0.0115298
-0.0107375
0.0115047
-0.0110919
-0.0114041
0.011663
0.0147012
-0.00669734
0.0136604
-0.00781539
0.0126738
-0.00890652
0.0118266
-0.00954733
0.0111586
-0.010239
0.0107265
-0.0103053
0.0104824
-0.0108478
-0.0113448
0.0104231
0.0146683
-0.00560089
0.0136635
-0.00681056
0.0126703
-0.00791328
0.0117344
-0.00861143
0.0109455
-0.00945007
0.0103655
-0.00972538
0.00988223
-0.0103645
-0.0110316
0.00956901
0.014501
-0.00447616
0.0134849
-0.00579438
0.0125333
-0.00696167
0.0117255
-0.00780371
0.0109075
-0.00863202
0.0102369
-0.00905477
0.00964071
-0.00976828
-0.0105267
0.00913584
0.0143832
-0.00338492
0.0133906
-0.00480177
0.0124547
-0.00602579
0.011628
-0.00697697
0.0108418
-0.00784581
0.0101699
-0.00838285
0.00956941
-0.00916782
-0.00997336
0.00901608
0.0143129
-0.00235648
0.0133158
-0.00380466
0.0123674
-0.00507736
0.0115254
-0.006135
0.0107581
-0.00707849
0.0101278
-0.00775256
0.00956899
-0.00860903
-0.00941103
0.00900667
0.0141297
-0.00131896
0.013182
-0.00285691
0.012311
-0.00420644
0.0115092
-0.00533316
0.0107161
-0.00628533
0.0100277
-0.00706426
0.0094064
-0.00798768
-0.00886975
0.00886512
0.0140386
-0.000310469
0.0130677
-0.00188597
0.0121742
-0.00331292
0.0113753
-0.00453427
0.0106511
-0.0055612
0.0100208
-0.00643395
0.00940761
-0.00737446
-0.00826372
0.00880159
0.0138705
0.000669074
0.0129672
-0.000982676
0.0121244
-0.00247012
0.0113157
-0.00372557
0.0105488
-0.00479431
0.00988527
-0.0057704
0.00926863
-0.00675782
-0.00770884
0.00871375
0.0137505
0.00163753
0.0128324
-6.45627e-05
0.0119785
-0.00161628
0.0111989
-0.0029459
0.0104907
-0.0040861
0.00985549
-0.00513522
0.00923055
-0.00613288
-0.00711048
0.00863219
0.0135827
0.00257764
0.0127152
0.000802966
0.0119015
-0.000802601
0.0111193
-0.00216368
0.0103869
-0.00335367
0.00972948
-0.00447781
0.00910993
-0.00551333
-0.00654619
0.00854564
0.0134568
0.00349106
0.0125874
0.00167233
0.0117634
2.13721e-05
0.0109958
-0.00139609
0.0103035
-0.00266137
0.00967011
-0.00384438
0.00905677
-0.00489998
-0.00595993
0.00847051
0.0132823
0.00438957
0.0124447
0.00250994
0.0116509
0.00081517
0.0109082
-0.000653356
0.0102117
-0.00196491
0.00955791
-0.0031906
0.00894484
-0.00428691
-0.00539393
0.00837884
0.0131438
0.0052588
0.0123173
0.00333643
0.0115277
0.00160473
0.0107896
8.47405e-05
0.0101075
-0.00128277
0.00946704
-0.00255013
0.00886584
-0.00368571
-0.00482426
0.00829616
0.0129695
0.00611285
0.0121619
0.00414409
0.0113974
0.00236921
0.0106804
0.000801764
0.0100089
-0.000611279
0.0093694
-0.00191064
0.00877376
-0.00309007
-0.00426159
0.00821109
0.0128153
0.00694381
0.0120263
0.00493309
0.0112739
0.00312161
0.0105652
0.0015104
0.00989852
5.54314e-05
0.009268
-0.00128012
0.00867923
-0.0025013
-0.00369539
0.00811304
0.0126459
0.00775575
0.0118732
0.00570578
0.0111373
0.0038575
0.0104438
0.00220395
0.00978835
0.000710859
0.0091694
-0.000661167
0.0085892
-0.00192109
-0.00313462
0.00802843
0.0124799
0.00854669
0.0117247
0.00646101
0.0110039
0.00457835
0.0103209
0.00288688
0.00967498
0.00135681
0.00906587
-5.2054e-05
0.00848986
-0.00134508
-0.00257298
0.00792823
0.0123139
0.00931919
0.0115746
0.00720036
0.0108682
0.00528473
0.010198
0.00355702
0.00956428
0.00199057
0.00896458
0.000547654
0.00839277
-0.000773281
-0.0020181
0.0078379
0.012136
0.0100715
0.0114154
0.00792104
0.0107252
0.00597487
0.0100683
0.00421395
0.00944446
0.00261439
0.0088515
0.00114061
0.00828616
-0.000207935
-0.0014732
0.00774126
0.0119719
0.010803
0.0112682
0.00862479
0.010593
0.0066501
0.00994951
0.00485742
0.0093364
0.0032275
0.00875195
0.00172507
0.00819443
0.000349591
-0.000936424
0.00765765
0.0117829
0.0115157
0.0110966
0.00931118
0.0104373
0.0073094
0.00980682
0.00548786
0.0092054
0.00382892
0.00863048
0.00229999
0.00808136
0.000898714
-0.000409421
0.00755435
0.0116127
0.0122078
0.0109443
0.00997956
0.0103018
0.00795192
0.00968617
0.00610348
0.00909782
0.00441727
0.00853573
0.00286208
0.00799642
0.00143803
0.000109858
0.00747714
0.011416
0.0128816
0.0107637
0.0106318
0.0101348
0.00858084
0.00953241
0.0067059
0.00895522
0.00499447
0.00840219
0.00341512
0.00787263
0.00196759
0.000620313
0.00736217
0.0112418
0.0135348
0.0106069
0.0112668
0.0099944
0.00919334
0.00940555
0.00729476
0.00884174
0.00555827
0.00830096
0.00395591
0.00778257
0.00248598
0.00112094
0.00728194
0.0110414
0.0141714
0.0104225
0.0118856
0.00982304
0.00979278
0.00924572
0.00787208
0.00869141
0.00611258
0.00815966
0.00448766
0.00764937
0.00299627
0.00161244
0.00715787
0.0108637
0.0147894
0.0102627
0.0124867
0.00967959
0.0103759
0.00911705
0.00843461
0.00857592
0.00665372
0.00805475
0.00500883
0.0075543
0.00349671
0.00209496
0.00707179
0.0106627
0.0153928
0.0100761
0.0130733
0.00950679
0.0109452
0.00895522
0.00898618
0.00842394
0.00718499
0.00791226
0.00552052
0.00742004
0.00398894
0.00256937
0.00694563
0.0104816
0.0159772
0.00991145
0.0136434
0.00935845
0.0114982
0.00882255
0.00952209
0.0083047
0.00770285
0.00780479
0.00602043
0.00732314
0.00447058
0.00303531
0.0068572
0.0102815
0.0165464
0.00972458
0.0142004
0.00918379
0.012039
0.00865934
0.0100465
0.00815216
0.00821003
0.00766177
0.00651082
0.00718869
0.00494366
0.00349101
0.00673299
0.0100962
0.0170967
0.00955698
0.0147396
0.00903115
0.0125648
0.00852181
0.0105559
0.00802833
0.00870351
0.00755022
0.00698893
0.00708832
0.00540556
0.00393957
0.00663977
0.00989435
0.0176323
0.00936864
0.0152653
0.00885484
0.0130786
0.0083557
0.011055
0.007873
0.00918622
0.00740478
0.00745715
0.00695189
0.00585845
0.00437658
0.00651488
0.00969957
0.0181505
0.00919025
0.0157747
0.00869236
0.0135765
0.0082072
0.0115402
0.00773692
0.00965649
0.00728145
0.00791262
0.00683947
0.00630042
0.00480612
0.00640993
0.0447063
0.0204498
0.0424309
0.0180501
0.0401944
0.0158131
0.0380057
0.0137289
0.0358733
0.0117889
0.0338026
0.00998324
0.0317979
0.00830517
0.00674566
0.0298584
0.0400323
0.0224101
0.0380774
0.020005
0.0361416
0.0177488
0.0342356
0.0156349
0.0323678
0.0136567
0.0305438
0.0118072
0.0287684
0.0100806
0.00847001
0.0270441
0.0352711
0.0240634
0.0336105
0.0216655
0.0319556
0.0194037
0.0303169
0.0172736
0.0287031
0.0152705
0.0271207
0.0133896
0.0255751
0.0116262
0.00997516
0.02407
0.0305527
0.0254417
0.0291595
0.0230588
0.0277636
0.0207997
0.0263746
0.0186626
0.0250009
0.0166442
0.0236491
0.0147415
0.0223245
0.0129507
0.0112687
0.021031
0.025861
0.0265708
0.024714
0.0242057
0.0235593
0.0219543
0.0224061
0.0198158
0.0212614
0.0177889
0.0201312
0.0158716
0.0190206
0.0140614
0.0123559
0.0179334
0.0212037
0.0274752
0.0202819
0.0251275
0.0193512
0.022885
0.018419
0.020748
0.0174918
0.0187162
0.0165743
0.0167891
0.0156707
0.014965
0.013242
0.0147846
0.0165496
0.0281743
0.0158363
0.0258409
0.0151159
0.0236053
0.014394
0.02147
0.0136752
0.019435
0.0129639
0.0175004
0.0122631
0.0156658
0.0139296
0.0115755
0.0118776
0.0286863
0.0113574
0.026361
0.0108335
0.0241293
0.0103101
0.0219933
0.00979048
0.0199546
0.00927739
0.0180135
0.00877326
0.0161699
0.0144233
0.00827957
0.00716826
0.0290239
0.00682962
0.0266997
0.00649245
0.0244665
0.00615877
0.022327
0.0058304
0.020283
0.00550853
0.0183353
0.00519439
0.0164841
0.0147289
0.00488874
0.00242176
0.00228799
0.0021565
0.00202784
0.00190243
0.00178062
0.00166262
0.00154859
-0.00082409
-6.09067e-05
-0.000760408
-6.36829e-05
-0.000708904
-5.15033e-05
-0.000662094
-4.68099e-05
-0.000618821
-4.32736e-05
-0.000578242
-4.05786e-05
-0.000539753
-3.84888e-05
-0.000503231
-3.65229e-05
-0.000468452
-3.47785e-05
-0.000435167
-3.3285e-05
-0.000403012
-3.21548e-05
-0.00037162
-3.13921e-05
-0.000340855
-3.07648e-05
-0.000310856
-2.99998e-05
-0.000281921
-2.89351e-05
-0.000254308
-2.76129e-05
-0.00022826
-2.60474e-05
-0.000204009
-2.42513e-05
-0.000181634
-2.23753e-05
-0.00016108
-2.05537e-05
-0.000142225
-1.88554e-05
-0.000124914
-1.73101e-05
-0.000108974
-1.59401e-05
-9.42395e-05
-1.47349e-05
-8.0555e-05
-1.36844e-05
-6.77649e-05
-1.27902e-05
-5.56779e-05
-1.20869e-05
-4.42943e-05
-1.13836e-05
-3.36435e-05
-1.06507e-05
-2.38004e-05
-9.84314e-06
-1.48532e-05
-8.94724e-06
-6.71477e-06
-8.13839e-06
5.73742e-07
-7.28851e-06
7.011e-06
-6.43726e-06
1.26328e-05
-5.62183e-06
1.7434e-05
-4.8012e-06
2.16156e-05
-4.18153e-06
2.51919e-05
-3.57636e-06
2.79732e-05
-2.78126e-06
2.98196e-05
-1.84644e-06
3.06473e-05
-8.27628e-07
3.06182e-05
2.90017e-08
2.98377e-05
7.80556e-07
2.81623e-05
1.67544e-06
2.55836e-05
2.5787e-06
2.21311e-05
3.4525e-06
1.77439e-05
4.38717e-06
1.23185e-05
5.4254e-06
5.55582e-06
6.76266e-06
-3.11318e-06
8.669e-06
-1.43286e-05
1.12155e-05
-2.8094e-05
1.37654e-05
-4.38194e-05
1.57254e-05
-6.03032e-05
1.64837e-05
-7.59086e-05
1.56054e-05
-8.87415e-05
1.28329e-05
-9.70898e-05
8.34834e-06
-0.000100143
3.05348e-06
-9.84041e-05
-1.73918e-06
-9.34588e-05
-4.94537e-06
-8.57436e-05
-7.71515e-06
-7.54211e-05
-1.03225e-05
-6.28863e-05
-1.25348e-05
-4.81396e-05
-1.47467e-05
-3.09078e-05
-1.72318e-05
-1.2715e-05
-1.81928e-05
4.63016e-06
-1.73451e-05
1.83273e-05
-1.36971e-05
2.56644e-05
-7.33712e-06
2.71105e-05
-1.44604e-06
2.49815e-05
2.12892e-06
2.06953e-05
4.28625e-06
1.4819e-05
5.87632e-06
7.97453e-06
6.84443e-06
3.2236e-07
7.65217e-06
-7.98952e-06
8.31188e-06
-1.59106e-05
7.92106e-06
-2.29029e-05
6.99231e-06
-2.78264e-05
4.92354e-06
-2.92282e-05
1.40174e-06
-2.76305e-05
-1.59763e-06
-2.36501e-05
-3.98042e-06
-1.68813e-05
-6.7688e-06
-7.61002e-06
-9.2713e-06
2.75061e-06
-1.03606e-05
1.37651e-05
-1.10145e-05
2.43191e-05
-1.0554e-05
3.00635e-05
-5.74439e-06
2.69817e-05
3.08177e-06
1.44635e-05
1.25182e-05
-6.50003e-06
2.09635e-05
-3.53371e-05
2.88371e-05
-7.06901e-05
3.5353e-05
-0.00010829
3.75997e-05
-0.000143727
3.54372e-05
-0.000172862
2.91348e-05
-0.000192117
1.92552e-05
-0.000201566
9.44904e-06
-0.00020319
1.62367e-06
-0.000198804
-4.38549e-06
-0.000193211
-5.59279e-06
-0.000191151
-2.06041e-06
-0.000193825
2.6743e-06
-0.000197948
4.12287e-06
-0.000200493
2.54451e-06
-0.00019815
-2.3423e-06
-0.000189077
-9.07363e-06
-0.000173594
-1.54832e-05
-0.000150312
-2.32812e-05
-0.000116784
-3.35286e-05
-7.84919e-05
-3.8292e-05
-4.36061e-05
-3.48858e-05
-1.70808e-05
-2.65253e-05
-2.35055e-07
-1.68457e-05
8.87622e-06
-9.11127e-06
1.28099e-05
-3.93371e-06
1.36683e-05
-8.58383e-07
1.26052e-05
1.06315e-06
1.04332e-05
2.172e-06
7.99677e-06
2.43639e-06
6.13571e-06
1.86106e-06
6.08851e-06
4.72028e-08
8.97115e-06
-2.88264e-06
1.49469e-05
-5.9758e-06
2.36122e-05
-8.66521e-06
3.4422e-05
-1.08098e-05
4.66954e-05
-1.22734e-05
5.97426e-05
-1.30472e-05
7.22735e-05
-1.25309e-05
8.30162e-05
-1.07427e-05
9.07595e-05
-7.7433e-06
9.47608e-05
-4.00127e-06
9.50646e-05
-3.03825e-07
9.25654e-05
2.49921e-06
8.89225e-05
3.6429e-06
8.56188e-05
3.30367e-06
8.33343e-05
2.28456e-06
8.22426e-05
1.09172e-06
8.17671e-05
4.75417e-07
8.12402e-05
5.26954e-07
8.04962e-05
7.44004e-07
7.96682e-05
8.28013e-07
7.88531e-05
8.15047e-07
7.80256e-05
8.27483e-07
7.71862e-05
8.39409e-07
7.6088e-05
1.09827e-06
7.46808e-05
1.40719e-06
7.347e-05
1.2108e-06
7.31192e-05
3.50724e-07
7.36026e-05
-4.83371e-07
7.42809e-05
-6.78277e-07
7.39352e-05
3.45665e-07
7.11101e-05
2.82512e-06
6.58653e-05
5.2448e-06
6.00972e-05
5.76816e-06
4.04738e-06
-0.000823841
-0.00012171
-0.000760389
-0.000127135
-0.000708924
-0.000102968
-0.000662114
-9.36198e-05
-0.000618839
-8.65487e-05
-0.000578258
-8.11589e-05
-0.000539769
-7.69787e-05
-0.000503244
-7.30475e-05
-0.000468465
-6.95579e-05
-0.000435179
-6.65703e-05
-0.000403025
-6.43091e-05
-0.000371634
-6.27829e-05
-0.00034087
-6.1529e-05
-0.00031087
-5.99994e-05
-0.000281935
-5.78704e-05
-0.000254322
-5.52259e-05
-0.000228275
-5.20949e-05
-0.000204023
-4.85027e-05
-0.000181648
-4.47508e-05
-0.000161094
-4.11076e-05
-0.000142238
-3.7711e-05
-0.000124928
-3.46203e-05
-0.000108988
-3.18803e-05
-9.42528e-05
-2.94699e-05
-8.05683e-05
-2.7369e-05
-6.7778e-05
-2.55804e-05
-5.56909e-05
-2.4174e-05
-4.43072e-05
-2.27673e-05
-3.36564e-05
-2.13015e-05
-2.38133e-05
-1.96862e-05
-1.48661e-05
-1.78945e-05
-6.72742e-06
-1.62771e-05
5.60798e-07
-1.45767e-05
6.99814e-06
-1.28746e-05
1.26199e-05
-1.12436e-05
1.74212e-05
-9.6025e-06
2.16028e-05
-8.36312e-06
2.51791e-05
-7.15266e-06
2.79603e-05
-5.56244e-06
2.98068e-05
-3.6929e-06
3.06344e-05
-1.65527e-06
3.06054e-05
5.79729e-08
2.9825e-05
1.56105e-06
2.81496e-05
3.3508e-06
2.55709e-05
5.15735e-06
2.21184e-05
6.90501e-06
1.77313e-05
8.77433e-06
1.2306e-05
1.08507e-05
5.54344e-06
1.35252e-05
-3.12336e-06
1.73358e-05
-1.43408e-05
2.24329e-05
-2.81062e-05
2.75307e-05
-4.38312e-05
3.14505e-05
-6.03154e-05
3.29679e-05
-7.5921e-05
3.1211e-05
-8.8754e-05
2.56659e-05
-9.71023e-05
1.66967e-05
-0.000100156
6.10681e-06
-9.84163e-05
-3.47857e-06
-9.34709e-05
-9.89072e-06
-8.5756e-05
-1.543e-05
-7.54336e-05
-2.06449e-05
-6.28988e-05
-2.50696e-05
-4.8152e-05
-2.94935e-05
-3.09202e-05
-3.44636e-05
-1.27271e-05
-3.6386e-05
4.61882e-06
-3.4691e-05
1.83155e-05
-2.73938e-05
2.56526e-05
-1.46742e-05
2.70985e-05
-2.89195e-06
2.49694e-05
4.25805e-06
2.06831e-05
8.5725e-06
1.48068e-05
1.17527e-05
7.96231e-06
1.36889e-05
3.10627e-07
1.53039e-05
-8.00189e-06
1.66244e-05
-1.5923e-05
1.58421e-05
-2.29154e-05
1.39848e-05
-2.78391e-05
9.84716e-06
-2.92408e-05
2.80345e-06
-2.7643e-05
-3.1954e-06
-2.36625e-05
-7.96089e-06
-1.68937e-05
-1.35376e-05
-7.62231e-06
-1.85427e-05
2.73806e-06
-2.0721e-05
1.37527e-05
-2.20292e-05
2.43071e-05
-2.11084e-05
3.00518e-05
-1.14892e-05
2.69702e-05
6.16337e-06
1.4452e-05
2.50365e-05
-6.51168e-06
4.19272e-05
-3.53495e-05
5.76748e-05
-7.0702e-05
7.07056e-05
-0.000108302
7.51997e-05
-0.00014374
7.08747e-05
-0.000172875
5.82698e-05
-0.00019213
3.85106e-05
-0.000201579
1.88979e-05
-0.000203202
3.24696e-06
-0.000198817
-8.7709e-06
-0.000193224
-1.11857e-05
-0.000191163
-4.12111e-06
-0.000193838
5.34893e-06
-0.000197961
8.24615e-06
-0.000200505
5.08884e-06
-0.000198163
-4.68474e-06
-0.000189089
-1.81473e-05
-0.000173606
-3.0966e-05
-0.000150325
-4.65626e-05
-0.000116796
-6.70575e-05
-7.85045e-05
-7.65834e-05
-4.36178e-05
-6.97726e-05
-1.70921e-05
-5.3051e-05
-2.45925e-07
-3.36919e-05
8.86548e-06
-1.82227e-05
1.27981e-05
-7.86634e-06
1.36563e-05
-1.71657e-06
1.25931e-05
2.12636e-06
1.04211e-05
4.34401e-06
7.98461e-06
4.87285e-06
6.12343e-06
3.72224e-06
6.07621e-06
9.44206e-08
8.95881e-06
-5.76523e-06
1.49346e-05
-1.19516e-05
2.35999e-05
-1.73305e-05
3.44097e-05
-2.16197e-05
4.66829e-05
-2.45465e-05
5.97302e-05
-2.60946e-05
7.22613e-05
-2.5062e-05
8.30041e-05
-2.14855e-05
9.07474e-05
-1.54866e-05
9.47486e-05
-8.00249e-06
9.50529e-05
-6.08076e-07
9.25536e-05
4.9985e-06
8.89107e-05
7.28582e-06
8.5607e-05
6.60733e-06
8.33224e-05
4.56918e-06
8.22304e-05
2.18366e-06
8.1755e-05
9.50905e-07
8.12279e-05
1.05401e-06
8.04839e-05
1.48801e-06
7.9656e-05
1.65589e-06
7.8841e-05
1.63002e-06
7.80139e-05
1.65459e-06
7.71746e-05
1.67873e-06
7.60762e-05
2.19668e-06
7.46689e-05
2.81449e-06
7.34581e-05
2.4216e-06
7.31074e-05
7.0139e-07
7.35906e-05
-9.66559e-07
7.4269e-05
-1.35669e-06
7.39235e-05
6.91259e-07
7.10982e-05
5.65033e-06
6.58533e-05
1.04897e-05
6.00853e-05
1.15362e-05
8.09482e-06
-0.00082376
-0.000182496
-0.000760396
-0.000190498
-0.000708946
-0.000154419
-0.000662133
-0.000140433
-0.000618856
-0.000129826
-0.000578273
-0.000121742
-0.000539782
-0.00011547
-0.000503255
-0.000109574
-0.000468475
-0.000104338
-0.000435189
-9.98558e-05
-0.000403036
-9.64627e-05
-0.000371647
-9.41719e-05
-0.000340883
-9.22923e-05
-0.000310884
-8.99989e-05
-0.000281949
-8.68057e-05
-0.000254335
-8.28392e-05
-0.000228288
-7.81426e-05
-0.000204036
-7.27543e-05
-0.00018166
-6.71265e-05
-0.000161106
-6.16617e-05
-0.000142251
-5.65667e-05
-0.00012494
-5.19307e-05
-0.000109
-4.78205e-05
-9.4265e-05
-4.42049e-05
-8.05805e-05
-4.10535e-05
-6.77901e-05
-3.83708e-05
-5.57029e-05
-3.62613e-05
-4.43191e-05
-3.41511e-05
-3.36683e-05
-3.19524e-05
-2.38252e-05
-2.95293e-05
-1.4878e-05
-2.68417e-05
-6.73924e-06
-2.44158e-05
5.48765e-07
-2.18647e-05
6.98612e-06
-1.9312e-05
1.26078e-05
-1.68654e-05
1.74092e-05
-1.44038e-05
2.15907e-05
-1.25447e-05
2.51669e-05
-1.07288e-05
2.7948e-05
-8.34357e-06
2.97946e-05
-5.53945e-06
3.06222e-05
-2.48294e-06
3.05933e-05
8.69378e-08
2.98128e-05
2.34157e-06
2.81373e-05
5.02622e-06
2.55586e-05
7.73609e-06
2.2106e-05
1.03576e-05
1.77189e-05
1.31615e-05
1.22936e-05
1.62759e-05
5.53118e-06
2.02877e-05
-3.13635e-06
2.60033e-05
-1.43532e-05
3.36497e-05
-2.81189e-05
4.12964e-05
-4.38438e-05
4.71754e-05
-6.03288e-05
4.94528e-05
-7.59347e-05
4.6817e-05
-8.87681e-05
3.84993e-05
-9.71166e-05
2.50451e-05
-0.00010017
9.16006e-06
-9.84302e-05
-5.2182e-06
-9.34848e-05
-1.4836e-05
-8.577e-05
-2.31449e-05
-7.54475e-05
-3.09675e-05
-6.29124e-05
-3.76047e-05
-4.81653e-05
-4.42406e-05
-3.09332e-05
-5.16957e-05
-1.27393e-05
-5.458e-05
4.60739e-06
-5.20376e-05
1.83044e-05
-4.10908e-05
2.56414e-05
-2.20112e-05
2.7087e-05
-4.33758e-06
2.49576e-05
6.38744e-06
2.06713e-05
1.28588e-05
1.47949e-05
1.76291e-05
7.95036e-06
2.05335e-05
2.99049e-07
2.29552e-05
-8.01436e-06
2.49378e-05
-1.59357e-05
2.37634e-05
-2.29282e-05
2.09773e-05
-2.78519e-05
1.47709e-05
-2.92538e-05
4.20532e-06
-2.76561e-05
-4.7931e-06
-2.36757e-05
-1.19413e-05
-1.69068e-05
-2.03066e-05
-7.63493e-06
-2.78145e-05
2.72552e-06
-3.10814e-05
1.37407e-05
-3.30443e-05
2.42958e-05
-3.16635e-05
3.00415e-05
-1.72349e-05
2.69603e-05
9.24459e-06
1.44418e-05
3.75549e-05
-6.52205e-06
6.28911e-05
-3.53602e-05
8.6513e-05
-7.07139e-05
0.000106059
-0.000108315
0.000112801
-0.000143754
0.000106313
-0.000172889
8.74055e-05
-0.000192145
5.77658e-05
-0.000201593
2.83462e-05
-0.000203216
4.86944e-06
-0.00019883
-1.31567e-05
-0.000193236
-1.67792e-05
-0.000191175
-6.18213e-06
-0.00019385
8.02375e-06
-0.000197974
1.237e-05
-0.000200519
7.63363e-06
-0.000198176
-7.02705e-06
-0.000189102
-2.72211e-05
-0.00017362
-4.64483e-05
-0.000150338
-6.98445e-05
-0.000116808
-0.000100587
-7.85169e-05
-0.000114875
-4.36288e-05
-0.000104661
-1.71025e-05
-7.95772e-05
-2.55961e-07
-5.05385e-05
8.85517e-06
-2.73338e-05
1.2787e-05
-1.17981e-05
1.36447e-05
-2.57433e-06
1.25811e-05
3.18996e-06
1.04088e-05
6.5163e-06
7.97228e-06
7.3094e-06
6.111e-06
5.58352e-06
6.06358e-06
1.41843e-07
8.94606e-06
-8.64771e-06
1.49219e-05
-1.79274e-05
2.35873e-05
-2.59959e-05
3.43972e-05
-3.24295e-05
4.66703e-05
-3.68197e-05
5.97177e-05
-3.9142e-05
7.2249e-05
-3.75933e-05
8.2992e-05
-3.22285e-05
9.07356e-05
-2.32302e-05
9.47368e-05
-1.20038e-05
9.50415e-05
-9.12729e-07
9.25419e-05
7.49809e-06
8.88987e-05
1.0929e-05
8.55948e-05
9.91121e-06
8.33102e-05
6.85383e-06
8.22183e-05
3.27548e-06
8.17429e-05
1.42636e-06
8.12159e-05
1.58103e-06
8.04719e-05
2.23195e-06
7.96441e-05
2.4837e-06
7.88291e-05
2.44507e-06
7.80019e-05
2.48173e-06
7.71626e-05
2.51809e-06
7.60644e-05
3.2948e-06
7.4657e-05
4.22196e-06
7.34459e-05
3.63263e-06
7.30952e-05
1.0521e-06
7.35785e-05
-1.44986e-06
7.42571e-05
-2.03527e-06
7.39117e-05
1.03667e-06
7.10866e-05
8.47545e-06
6.58414e-05
1.57349e-05
6.0073e-05
1.73045e-05
1.21425e-05
-0.000823528
-0.000243215
-0.000760369
-0.000253657
-0.000708952
-0.000205836
-0.000662146
-0.000187238
-0.000618864
-0.000173107
-0.00057828
-0.000162326
-0.000539788
-0.000153962
-0.00050326
-0.000146102
-0.000468479
-0.000139119
-0.000435194
-0.000133141
-0.000403041
-0.000128616
-0.000371653
-0.00012556
-0.000340889
-0.000123055
-0.00031089
-0.000119998
-0.000281955
-0.000115741
-0.000254341
-0.000110452
-0.000228294
-0.00010419
-0.000204042
-9.7006e-05
-0.000181666
-8.95022e-05
-0.000161112
-8.22158e-05
-0.000142256
-7.54224e-05
-0.000124946
-6.92411e-05
-0.000109006
-6.37608e-05
-9.42705e-05
-5.894e-05
-8.0586e-05
-5.47381e-05
-6.77956e-05
-5.11612e-05
-5.57083e-05
-4.83486e-05
-4.43245e-05
-4.55348e-05
-3.36736e-05
-4.26033e-05
-2.38306e-05
-3.93723e-05
-1.48835e-05
-3.57888e-05
-6.7448e-06
-3.25545e-05
5.43371e-07
-2.91529e-05
6.98072e-06
-2.57493e-05
1.26023e-05
-2.2487e-05
1.74037e-05
-1.92051e-05
2.15852e-05
-1.67262e-05
2.51612e-05
-1.43049e-05
2.79423e-05
-1.11246e-05
2.97889e-05
-7.38607e-06
3.06166e-05
-3.31066e-06
3.05877e-05
1.15912e-07
2.98071e-05
3.12213e-06
2.81316e-05
6.70171e-06
2.55528e-05
1.03149e-05
2.21002e-05
1.38102e-05
1.7713e-05
1.75487e-05
1.22879e-05
2.17011e-05
5.52554e-06
2.705e-05
-3.14316e-06
3.4672e-05
-1.4359e-05
4.48655e-05
-2.8125e-05
5.50625e-05
-4.3851e-05
6.29014e-05
-6.03359e-05
6.59377e-05
-7.59423e-05
6.24234e-05
-8.87761e-05
5.13332e-05
-9.71249e-05
3.33938e-05
-0.000100178
1.22133e-05
-9.84382e-05
-6.95808e-06
-9.34929e-05
-1.97814e-05
-8.5778e-05
-3.08598e-05
-7.54552e-05
-4.12903e-05
-6.29199e-05
-5.01399e-05
-4.81725e-05
-5.89879e-05
-3.09399e-05
-6.89283e-05
-1.27451e-05
-7.27748e-05
4.60213e-06
-6.93849e-05
1.83001e-05
-5.47888e-05
2.56371e-05
-2.93482e-05
2.70822e-05
-5.7827e-06
2.49523e-05
8.51728e-06
2.06659e-05
1.71452e-05
1.47894e-05
2.35055e-05
7.94471e-06
2.73782e-05
2.93466e-07
3.06064e-05
-8.02047e-06
3.32517e-05
-1.59421e-05
3.16851e-05
-2.2935e-05
2.79701e-05
-2.7859e-05
1.96949e-05
-2.9261e-05
5.60737e-06
-2.76633e-05
-6.39083e-06
-2.36829e-05
-1.59217e-05
-1.69138e-05
-2.70757e-05
-7.64149e-06
-3.70868e-05
2.7193e-06
-4.14422e-05
1.37351e-05
-4.40601e-05