/*--------------------------------*- C++ -*----------------------------------*\
| =========                 |                                                 |
| \\      /  F ield         | OpenFOAM: The Open Source CFD Toolbox           |
|  \\    /   O peration     | Version:  v1912                                 |
|   \\  /    A nd           | Website:  www.openfoam.com                      |
|    \\/     M anipulation  |                                                 |
\*---------------------------------------------------------------------------*/
FoamFile
{
    version     2.0;
    format      ascii;
    class       volScalarField;
    location    "30";
    object      k;
}
// * * * * * * * * * * * * * * * * * * * * * * * * * * * * * * * * * * * * * //

dimensions      [0 2 -2 0 0 0 0];


internalField   nonuniform List<scalar> 
14268
(
1.03487e-06
1.03516e-06
1.03547e-06
1.0358e-06
1.03615e-06
1.03653e-06
1.03693e-06
1.03735e-06
1.03779e-06
1.03825e-06
1.03873e-06
1.03923e-06
1.03974e-06
1.04027e-06
1.04082e-06
1.04138e-06
1.04196e-06
1.04254e-06
1.04314e-06
1.04375e-06
1.04437e-06
1.04501e-06
1.04565e-06
1.0463e-06
1.04695e-06
1.04761e-06
1.04827e-06
1.04894e-06
1.0496e-06
1.05027e-06
1.05093e-06
1.05158e-06
1.05223e-06
1.05287e-06
1.0535e-06
1.05412e-06
1.05473e-06
1.05532e-06
1.05589e-06
1.05644e-06
1.05698e-06
1.05748e-06
1.05797e-06
1.05843e-06
1.05886e-06
1.05926e-06
1.05963e-06
1.05996e-06
1.06026e-06
1.06053e-06
1.06076e-06
1.06094e-06
1.06109e-06
1.0612e-06
1.06125e-06
1.06127e-06
1.06123e-06
1.06115e-06
1.06101e-06
1.06082e-06
1.06058e-06
1.06028e-06
1.05992e-06
1.0595e-06
1.05902e-06
1.05846e-06
1.05784e-06
1.05714e-06
1.05637e-06
1.05552e-06
1.0546e-06
1.0536e-06
1.05251e-06
1.05135e-06
1.05009e-06
1.04876e-06
1.04733e-06
1.0458e-06
1.04417e-06
1.04244e-06
1.0406e-06
1.03865e-06
1.03658e-06
1.03439e-06
1.03207e-06
1.02963e-06
1.02706e-06
1.02435e-06
1.0215e-06
1.01849e-06
1.01533e-06
1.01199e-06
1.00848e-06
1.00477e-06
1.00087e-06
9.96764e-07
9.92434e-07
9.87869e-07
9.83055e-07
9.77972e-07
9.72602e-07
9.66921e-07
9.60905e-07
9.54527e-07
9.47758e-07
9.40563e-07
9.32903e-07
9.24734e-07
9.16003e-07
9.06651e-07
8.96611e-07
8.85801e-07
8.74142e-07
8.61504e-07
8.47798e-07
8.32827e-07
8.16469e-07
7.98453e-07
7.78585e-07
7.56456e-07
7.31818e-07
7.03967e-07
6.72651e-07
6.36619e-07
5.95663e-07
5.47788e-07
4.92753e-07
4.28403e-07
3.54407e-07
2.71695e-07
1.8404e-07
1.02282e-07
4.27807e-08
1.09455e-08
1.47597e-07
1.47602e-07
1.47607e-07
1.47609e-07
1.47612e-07
1.47614e-07
1.47617e-07
1.4762e-07
1.47622e-07
1.47625e-07
1.47628e-07
1.47632e-07
1.47635e-07
1.47638e-07
1.4764e-07
1.47644e-07
1.47648e-07
1.47651e-07
1.47654e-07
1.47656e-07
1.47661e-07
1.47667e-07
1.47674e-07
1.47681e-07
1.47689e-07
1.477e-07
1.47713e-07
1.47727e-07
1.47741e-07
1.47757e-07
1.47773e-07
1.4779e-07
1.47808e-07
1.47826e-07
1.47845e-07
1.47864e-07
1.47883e-07
1.47902e-07
1.47921e-07
1.47941e-07
1.4796e-07
1.47978e-07
1.47997e-07
1.48016e-07
1.48034e-07
1.48053e-07
1.48071e-07
1.4809e-07
1.48109e-07
1.48128e-07
1.48148e-07
1.48168e-07
1.48189e-07
1.48211e-07
1.48233e-07
1.48256e-07
1.4828e-07
1.48305e-07
1.48331e-07
1.48358e-07
1.48386e-07
1.48416e-07
1.48446e-07
1.48477e-07
1.4851e-07
1.48545e-07
1.48581e-07
1.48617e-07
1.48654e-07
1.48692e-07
1.48731e-07
1.4877e-07
1.48811e-07
1.48853e-07
1.48896e-07
1.48941e-07
1.48988e-07
1.49036e-07
1.49086e-07
1.49138e-07
1.49191e-07
1.49247e-07
1.49304e-07
1.49362e-07
1.49423e-07
1.49486e-07
1.49551e-07
1.49618e-07
1.49688e-07
1.49761e-07
1.49836e-07
1.49915e-07
1.49996e-07
1.50081e-07
1.50169e-07
1.50261e-07
1.50357e-07
1.50457e-07
1.50561e-07
1.50671e-07
1.50785e-07
1.50905e-07
1.51031e-07
1.51163e-07
1.51302e-07
1.51448e-07
1.51602e-07
1.51764e-07
1.51935e-07
1.52115e-07
1.52306e-07
1.52507e-07
1.52722e-07
1.52944e-07
1.53189e-07
1.5343e-07
1.53711e-07
1.53971e-07
1.54291e-07
1.54563e-07
1.54922e-07
1.5519e-07
1.55574e-07
1.558e-07
1.56159e-07
1.56248e-07
1.56419e-07
1.56115e-07
1.55603e-07
1.54131e-07
1.51463e-07
1.46393e-07
1.37589e-07
1.13617e-07
1.46574e-07
1.46572e-07
1.46569e-07
1.46566e-07
1.46562e-07
1.46558e-07
1.46553e-07
1.46547e-07
1.46541e-07
1.46534e-07
1.46526e-07
1.46519e-07
1.4651e-07
1.46501e-07
1.46492e-07
1.46483e-07
1.46474e-07
1.46467e-07
1.46461e-07
1.46453e-07
1.46444e-07
1.46434e-07
1.46424e-07
1.46414e-07
1.46402e-07
1.46389e-07
1.46375e-07
1.46361e-07
1.46349e-07
1.46337e-07
1.46327e-07
1.46317e-07
1.46308e-07
1.46299e-07
1.4629e-07
1.4628e-07
1.46271e-07
1.46262e-07
1.46252e-07
1.46242e-07
1.46233e-07
1.46225e-07
1.46216e-07
1.46208e-07
1.46201e-07
1.46193e-07
1.46186e-07
1.46179e-07
1.46172e-07
1.46165e-07
1.46158e-07
1.46152e-07
1.46146e-07
1.46141e-07
1.46135e-07
1.4613e-07
1.46125e-07
1.4612e-07
1.46115e-07
1.46111e-07
1.46106e-07
1.46102e-07
1.46098e-07
1.46095e-07
1.46092e-07
1.46089e-07
1.46086e-07
1.46083e-07
1.46081e-07
1.46078e-07
1.46076e-07
1.46074e-07
1.46072e-07
1.4607e-07
1.46068e-07
1.46067e-07
1.46065e-07
1.46064e-07
1.46063e-07
1.46062e-07
1.46061e-07
1.4606e-07
1.46059e-07
1.46059e-07
1.46058e-07
1.46058e-07
1.46057e-07
1.46057e-07
1.46057e-07
1.46057e-07
1.46056e-07
1.46056e-07
1.46056e-07
1.46057e-07
1.46057e-07
1.46057e-07
1.46057e-07
1.46058e-07
1.46058e-07
1.46058e-07
1.46059e-07
1.4606e-07
1.4606e-07
1.46061e-07
1.46062e-07
1.46063e-07
1.46064e-07
1.46066e-07
1.46067e-07
1.46069e-07
1.46071e-07
1.46073e-07
1.46076e-07
1.46076e-07
1.46085e-07
1.4608e-07
1.46097e-07
1.46085e-07
1.46114e-07
1.46091e-07
1.46137e-07
1.46101e-07
1.4617e-07
1.46119e-07
1.46217e-07
1.46154e-07
1.46288e-07
1.46222e-07
1.46392e-07
1.46334e-07
1.46515e-07
1.46354e-07
1.46405e-07
1.43173e-07
1.46539e-07
1.46534e-07
1.46528e-07
1.46521e-07
1.46515e-07
1.46509e-07
1.46504e-07
1.465e-07
1.46495e-07
1.46491e-07
1.46487e-07
1.46482e-07
1.46477e-07
1.46471e-07
1.46464e-07
1.46458e-07
1.46449e-07
1.46436e-07
1.46423e-07
1.46412e-07
1.46404e-07
1.46396e-07
1.46386e-07
1.46378e-07
1.46373e-07
1.46369e-07
1.46364e-07
1.46357e-07
1.4635e-07
1.4634e-07
1.46329e-07
1.46316e-07
1.46303e-07
1.4629e-07
1.46277e-07
1.46264e-07
1.46253e-07
1.46244e-07
1.46238e-07
1.4623e-07
1.4622e-07
1.46212e-07
1.46204e-07
1.46196e-07
1.46187e-07
1.46179e-07
1.46172e-07
1.46165e-07
1.46159e-07
1.46153e-07
1.46146e-07
1.4614e-07
1.46134e-07
1.46129e-07
1.46123e-07
1.46118e-07
1.46113e-07
1.46108e-07
1.46104e-07
1.46099e-07
1.46095e-07
1.46091e-07
1.46088e-07
1.46084e-07
1.4608e-07
1.46077e-07
1.46073e-07
1.4607e-07
1.46068e-07
1.46065e-07
1.46062e-07
1.4606e-07
1.46058e-07
1.46056e-07
1.46054e-07
1.46052e-07
1.4605e-07
1.46049e-07
1.46047e-07
1.46046e-07
1.46044e-07
1.46043e-07
1.46041e-07
1.4604e-07
1.46039e-07
1.46038e-07
1.46037e-07
1.46036e-07
1.46035e-07
1.46034e-07
1.46033e-07
1.46032e-07
1.46031e-07
1.4603e-07
1.46029e-07
1.46029e-07
1.46028e-07
1.46027e-07
1.46026e-07
1.46025e-07
1.46024e-07
1.46023e-07
1.46022e-07
1.46021e-07
1.4602e-07
1.46019e-07
1.46018e-07
1.46017e-07
1.46015e-07
1.46014e-07
1.46012e-07
1.4601e-07
1.46009e-07
1.46004e-07
1.46008e-07
1.45996e-07
1.46007e-07
1.45985e-07
1.46007e-07
1.45971e-07
1.46007e-07
1.45951e-07
1.46006e-07
1.45925e-07
1.46001e-07
1.45889e-07
1.45985e-07
1.45841e-07
1.45951e-07
1.45791e-07
1.4594e-07
1.45844e-07
1.46362e-07
1.46029e-07
1.46579e-07
1.46575e-07
1.46569e-07
1.46562e-07
1.46555e-07
1.46546e-07
1.46537e-07
1.46527e-07
1.46516e-07
1.46505e-07
1.46494e-07
1.46483e-07
1.46473e-07
1.46463e-07
1.46454e-07
1.46448e-07
1.46445e-07
1.46442e-07
1.46439e-07
1.46432e-07
1.46421e-07
1.46411e-07
1.46402e-07
1.46391e-07
1.46376e-07
1.46361e-07
1.4635e-07
1.46341e-07
1.46333e-07
1.46327e-07
1.46322e-07
1.46317e-07
1.46312e-07
1.46307e-07
1.46299e-07
1.46292e-07
1.46284e-07
1.46272e-07
1.46256e-07
1.46245e-07
1.46237e-07
1.46226e-07
1.46216e-07
1.46209e-07
1.46203e-07
1.46195e-07
1.46186e-07
1.46177e-07
1.46168e-07
1.46162e-07
1.46156e-07
1.46149e-07
1.46142e-07
1.46137e-07
1.46133e-07
1.46128e-07
1.46122e-07
1.46118e-07
1.46113e-07
1.46108e-07
1.46104e-07
1.461e-07
1.46096e-07
1.46092e-07
1.46089e-07
1.46086e-07
1.46083e-07
1.46081e-07
1.46078e-07
1.46076e-07
1.46073e-07
1.46071e-07
1.46069e-07
1.46067e-07
1.46066e-07
1.46064e-07
1.46063e-07
1.46061e-07
1.4606e-07
1.46059e-07
1.46058e-07
1.46057e-07
1.46056e-07
1.46056e-07
1.46055e-07
1.46054e-07
1.46054e-07
1.46054e-07
1.46053e-07
1.46053e-07
1.46053e-07
1.46053e-07
1.46052e-07
1.46052e-07
1.46052e-07
1.46052e-07
1.46052e-07
1.46053e-07
1.46053e-07
1.46053e-07
1.46053e-07
1.46054e-07
1.46054e-07
1.46054e-07
1.46055e-07
1.46055e-07
1.46056e-07
1.46057e-07
1.46057e-07
1.46058e-07
1.46059e-07
1.46059e-07
1.46062e-07
1.4606e-07
1.46067e-07
1.46059e-07
1.46074e-07
1.46058e-07
1.46083e-07
1.46055e-07
1.46095e-07
1.46051e-07
1.4611e-07
1.46048e-07
1.46131e-07
1.46049e-07
1.46158e-07
1.46063e-07
1.46197e-07
1.46104e-07
1.46283e-07
1.46226e-07
1.46778e-07
1.4658e-07
1.46572e-07
1.4657e-07
1.46568e-07
1.46565e-07
1.46562e-07
1.46559e-07
1.46555e-07
1.4655e-07
1.46545e-07
1.46538e-07
1.4653e-07
1.46521e-07
1.46512e-07
1.46502e-07
1.46491e-07
1.46478e-07
1.46462e-07
1.46447e-07
1.46434e-07
1.46424e-07
1.46413e-07
1.46403e-07
1.46394e-07
1.46388e-07
1.46385e-07
1.4638e-07
1.46365e-07
1.4635e-07
1.46334e-07
1.46318e-07
1.46304e-07
1.46291e-07
1.46279e-07
1.4627e-07
1.46262e-07
1.46256e-07
1.46253e-07
1.46253e-07
1.46255e-07
1.46245e-07
1.46238e-07
1.46232e-07
1.46224e-07
1.46212e-07
1.46201e-07
1.46194e-07
1.46188e-07
1.46184e-07
1.4618e-07
1.4617e-07
1.46162e-07
1.46155e-07
1.46149e-07
1.4614e-07
1.46132e-07
1.46125e-07
1.4612e-07
1.46113e-07
1.46109e-07
1.46106e-07
1.46101e-07
1.46097e-07
1.46094e-07
1.4609e-07
1.46086e-07
1.46082e-07
1.46079e-07
1.46076e-07
1.46073e-07
1.4607e-07
1.46067e-07
1.46065e-07
1.46063e-07
1.4606e-07
1.46058e-07
1.46056e-07
1.46055e-07
1.46053e-07
1.46052e-07
1.4605e-07
1.46048e-07
1.46046e-07
1.46045e-07
1.46043e-07
1.46042e-07
1.46041e-07
1.4604e-07
1.46039e-07
1.46038e-07
1.46036e-07
1.46035e-07
1.46034e-07
1.46033e-07
1.46032e-07
1.46031e-07
1.46031e-07
1.4603e-07
1.46028e-07
1.46027e-07
1.46026e-07
1.46025e-07
1.46024e-07
1.46022e-07
1.46022e-07
1.4602e-07
1.46019e-07
1.46018e-07
1.46016e-07
1.46015e-07
1.46013e-07
1.46011e-07
1.46009e-07
1.46008e-07
1.46002e-07
1.46006e-07
1.45993e-07
1.46004e-07
1.45982e-07
1.46004e-07
1.45967e-07
1.46003e-07
1.45946e-07
1.46e-07
1.45918e-07
1.45994e-07
1.45881e-07
1.45976e-07
1.45829e-07
1.4594e-07
1.45779e-07
1.45934e-07
1.45837e-07
1.46386e-07
1.46249e-07
1.46569e-07
1.46566e-07
1.4656e-07
1.46554e-07
1.46549e-07
1.46543e-07
1.46538e-07
1.46533e-07
1.46528e-07
1.46524e-07
1.4652e-07
1.46516e-07
1.46511e-07
1.46505e-07
1.46499e-07
1.46493e-07
1.46486e-07
1.46478e-07
1.46464e-07
1.46451e-07
1.46441e-07
1.46432e-07
1.4642e-07
1.46403e-07
1.46388e-07
1.46377e-07
1.46372e-07
1.46368e-07
1.46366e-07
1.46363e-07
1.46348e-07
1.46333e-07
1.46318e-07
1.46303e-07
1.46289e-07
1.46273e-07
1.46256e-07
1.46238e-07
1.46224e-07
1.46218e-07
1.46208e-07
1.46202e-07
1.46201e-07
1.46201e-07
1.46198e-07
1.46189e-07
1.46181e-07
1.46168e-07
1.4616e-07
1.46158e-07
1.46152e-07
1.46148e-07
1.46144e-07
1.46148e-07
1.46144e-07
1.46137e-07
1.46132e-07
1.46128e-07
1.46118e-07
1.46111e-07
1.46108e-07
1.46103e-07
1.46098e-07
1.46094e-07
1.46091e-07
1.46088e-07
1.46084e-07
1.46081e-07
1.46078e-07
1.46076e-07
1.46074e-07
1.46072e-07
1.4607e-07
1.46068e-07
1.46066e-07
1.46064e-07
1.46062e-07
1.46061e-07
1.46059e-07
1.46058e-07
1.46057e-07
1.46056e-07
1.46056e-07
1.46055e-07
1.46054e-07
1.46054e-07
1.46053e-07
1.46053e-07
1.46053e-07
1.46052e-07
1.46052e-07
1.46052e-07
1.46052e-07
1.46052e-07
1.46052e-07
1.46052e-07
1.46052e-07
1.46052e-07
1.46052e-07
1.46053e-07
1.46053e-07
1.46053e-07
1.46054e-07
1.46054e-07
1.46055e-07
1.46055e-07
1.46056e-07
1.46057e-07
1.46057e-07
1.46058e-07
1.46059e-07
1.4606e-07
1.46062e-07
1.4606e-07
1.46068e-07
1.4606e-07
1.46075e-07
1.46059e-07
1.46085e-07
1.46057e-07
1.46097e-07
1.46054e-07
1.46114e-07
1.46051e-07
1.46134e-07
1.46053e-07
1.46161e-07
1.46064e-07
1.46194e-07
1.46096e-07
1.46263e-07
1.46204e-07
1.46745e-07
1.46599e-07
1.46568e-07
1.46565e-07
1.4656e-07
1.46556e-07
1.46552e-07
1.46546e-07
1.46538e-07
1.46531e-07
1.46522e-07
1.46513e-07
1.46504e-07
1.46496e-07
1.46487e-07
1.46478e-07
1.4647e-07
1.46463e-07
1.46459e-07
1.46457e-07
1.46456e-07
1.46454e-07
1.46444e-07
1.46435e-07
1.46428e-07
1.46421e-07
1.46411e-07
1.46395e-07
1.46378e-07
1.46362e-07
1.46348e-07
1.46339e-07
1.46337e-07
1.46335e-07
1.46332e-07
1.46324e-07
1.46316e-07
1.46307e-07
1.46298e-07
1.46286e-07
1.46269e-07
1.46256e-07
1.46245e-07
1.46231e-07
1.46214e-07
1.46199e-07
1.4619e-07
1.46184e-07
1.4618e-07
1.46181e-07
1.46171e-07
1.46162e-07
1.46155e-07
1.46147e-07
1.46138e-07
1.46124e-07
1.46121e-07
1.46119e-07
1.46116e-07
1.46114e-07
1.46122e-07
1.46114e-07
1.46107e-07
1.46103e-07
1.46099e-07
1.46095e-07
1.46091e-07
1.46088e-07
1.46085e-07
1.46082e-07
1.46078e-07
1.46075e-07
1.46071e-07
1.46069e-07
1.46066e-07
1.46064e-07
1.46062e-07
1.4606e-07
1.46058e-07
1.46056e-07
1.46054e-07
1.46053e-07
1.46051e-07
1.46049e-07
1.46048e-07
1.46046e-07
1.46045e-07
1.46044e-07
1.46042e-07
1.46041e-07
1.4604e-07
1.46039e-07
1.46037e-07
1.46036e-07
1.46035e-07
1.46034e-07
1.46033e-07
1.46032e-07
1.46031e-07
1.4603e-07
1.46029e-07
1.46027e-07
1.46026e-07
1.46025e-07
1.46024e-07
1.46023e-07
1.46022e-07
1.4602e-07
1.46019e-07
1.46017e-07
1.46016e-07
1.46014e-07
1.46012e-07
1.4601e-07
1.46008e-07
1.46003e-07
1.46006e-07
1.45993e-07
1.46004e-07
1.45982e-07
1.46004e-07
1.45967e-07
1.46002e-07
1.45945e-07
1.45999e-07
1.45917e-07
1.45993e-07
1.4588e-07
1.45976e-07
1.4583e-07
1.45944e-07
1.45786e-07
1.45952e-07
1.45858e-07
1.46424e-07
1.46264e-07
1.46577e-07
1.46574e-07
1.46568e-07
1.46562e-07
1.46557e-07
1.46552e-07
1.46547e-07
1.46541e-07
1.46535e-07
1.46529e-07
1.46522e-07
1.46515e-07
1.46507e-07
1.46498e-07
1.46489e-07
1.46479e-07
1.46466e-07
1.46452e-07
1.46439e-07
1.46428e-07
1.46418e-07
1.46409e-07
1.464e-07
1.46394e-07
1.46392e-07
1.4639e-07
1.46383e-07
1.46374e-07
1.46364e-07
1.46346e-07
1.46328e-07
1.46315e-07
1.46306e-07
1.46298e-07
1.46288e-07
1.46279e-07
1.46273e-07
1.46272e-07
1.46276e-07
1.46267e-07
1.46259e-07
1.46252e-07
1.46245e-07
1.46232e-07
1.46219e-07
1.46208e-07
1.46195e-07
1.46186e-07
1.46185e-07
1.46182e-07
1.46173e-07
1.46165e-07
1.46159e-07
1.46146e-07
1.46139e-07
1.46132e-07
1.46125e-07
1.46116e-07
1.46103e-07
1.46113e-07
1.46107e-07
1.46106e-07
1.461e-07
1.46096e-07
1.46092e-07
1.46088e-07
1.46085e-07
1.46082e-07
1.46081e-07
1.4608e-07
1.46077e-07
1.46075e-07
1.46072e-07
1.46069e-07
1.46067e-07
1.46065e-07
1.46064e-07
1.46062e-07
1.4606e-07
1.46059e-07
1.46058e-07
1.46057e-07
1.46056e-07
1.46055e-07
1.46054e-07
1.46054e-07
1.46053e-07
1.46053e-07
1.46053e-07
1.46052e-07
1.46052e-07
1.46052e-07
1.46051e-07
1.46051e-07
1.46051e-07
1.46051e-07
1.46052e-07
1.46052e-07
1.46052e-07
1.46052e-07
1.46053e-07
1.46053e-07
1.46053e-07
1.46054e-07
1.46054e-07
1.46055e-07
1.46056e-07
1.46057e-07
1.46057e-07
1.46058e-07
1.46059e-07
1.4606e-07
1.46062e-07
1.46061e-07
1.46068e-07
1.46061e-07
1.46076e-07
1.4606e-07
1.46085e-07
1.46058e-07
1.46098e-07
1.46055e-07
1.46115e-07
1.46053e-07
1.46135e-07
1.46053e-07
1.4616e-07
1.46061e-07
1.46187e-07
1.46081e-07
1.46239e-07
1.46178e-07
1.46701e-07
1.46593e-07
1.46575e-07
1.46573e-07
1.4657e-07
1.46563e-07
1.46557e-07
1.46551e-07
1.46546e-07
1.4654e-07
1.46534e-07
1.46527e-07
1.4652e-07
1.46512e-07
1.46505e-07
1.46497e-07
1.46489e-07
1.46482e-07
1.46474e-07
1.46467e-07
1.4646e-07
1.46451e-07
1.46441e-07
1.46431e-07
1.4642e-07
1.46406e-07
1.46388e-07
1.46374e-07
1.46365e-07
1.4636e-07
1.46357e-07
1.46355e-07
1.46343e-07
1.46328e-07
1.46315e-07
1.46305e-07
1.46297e-07
1.46287e-07
1.46273e-07
1.46259e-07
1.46246e-07
1.46237e-07
1.46228e-07
1.46222e-07
1.46218e-07
1.46219e-07
1.46216e-07
1.46208e-07
1.46201e-07
1.46184e-07
1.4617e-07
1.46163e-07
1.4616e-07
1.46158e-07
1.46154e-07
1.46156e-07
1.46152e-07
1.46144e-07
1.46138e-07
1.46132e-07
1.46117e-07
1.46102e-07
1.46103e-07
1.46097e-07
1.461e-07
1.46095e-07
1.4609e-07
1.46087e-07
1.46084e-07
1.4608e-07
1.46076e-07
1.46072e-07
1.46071e-07
1.4607e-07
1.46069e-07
1.46066e-07
1.46064e-07
1.46062e-07
1.4606e-07
1.46058e-07
1.46056e-07
1.46055e-07
1.46053e-07
1.46051e-07
1.4605e-07
1.46048e-07
1.46047e-07
1.46045e-07
1.46044e-07
1.46043e-07
1.46041e-07
1.4604e-07
1.46039e-07
1.46038e-07
1.46037e-07
1.46035e-07
1.46035e-07
1.46034e-07
1.46032e-07
1.46031e-07
1.4603e-07
1.46028e-07
1.46027e-07
1.46026e-07
1.46025e-07
1.46024e-07
1.46023e-07
1.46021e-07
1.4602e-07
1.46018e-07
1.46016e-07
1.46015e-07
1.46013e-07
1.4601e-07
1.46009e-07
1.46003e-07
1.46007e-07
1.45994e-07
1.46005e-07
1.45983e-07
1.46004e-07
1.45968e-07
1.46003e-07
1.45946e-07
1.46e-07
1.45918e-07
1.45994e-07
1.45882e-07
1.45979e-07
1.45836e-07
1.45954e-07
1.45802e-07
1.45977e-07
1.45891e-07
1.46492e-07
1.46298e-07
1.4658e-07
1.46577e-07
1.46574e-07
1.46571e-07
1.46567e-07
1.46561e-07
1.46555e-07
1.46549e-07
1.46542e-07
1.46535e-07
1.46528e-07
1.4652e-07
1.46512e-07
1.46504e-07
1.46496e-07
1.46487e-07
1.46477e-07
1.46468e-07
1.46459e-07
1.4645e-07
1.4644e-07
1.46431e-07
1.46422e-07
1.46414e-07
1.46406e-07
1.46397e-07
1.46384e-07
1.46368e-07
1.46352e-07
1.46341e-07
1.46333e-07
1.46327e-07
1.46317e-07
1.46301e-07
1.46291e-07
1.46284e-07
1.46279e-07
1.4627e-07
1.46262e-07
1.46251e-07
1.4624e-07
1.4623e-07
1.46216e-07
1.46204e-07
1.46193e-07
1.46186e-07
1.46183e-07
1.46185e-07
1.46177e-07
1.46164e-07
1.46155e-07
1.46148e-07
1.46144e-07
1.46137e-07
1.4613e-07
1.46126e-07
1.46122e-07
1.46118e-07
1.46127e-07
1.46114e-07
1.46109e-07
1.46102e-07
1.46099e-07
1.461e-07
1.46097e-07
1.46093e-07
1.4609e-07
1.46086e-07
1.46082e-07
1.46078e-07
1.46076e-07
1.46074e-07
1.46072e-07
1.46071e-07
1.46069e-07
1.46067e-07
1.46065e-07
1.46064e-07
1.46062e-07
1.4606e-07
1.46059e-07
1.46058e-07
1.46057e-07
1.46056e-07
1.46055e-07
1.46054e-07
1.46054e-07
1.46053e-07
1.46053e-07
1.46053e-07
1.46052e-07
1.46052e-07
1.46052e-07
1.46051e-07
1.46051e-07
1.46051e-07
1.46051e-07
1.46052e-07
1.46052e-07
1.46052e-07
1.46052e-07
1.46053e-07
1.46053e-07
1.46054e-07
1.46054e-07
1.46055e-07
1.46056e-07
1.46056e-07
1.46057e-07
1.46058e-07
1.46059e-07
1.4606e-07
1.46062e-07
1.46061e-07
1.46068e-07
1.46061e-07
1.46076e-07
1.4606e-07
1.46085e-07
1.46058e-07
1.46098e-07
1.46055e-07
1.46115e-07
1.46053e-07
1.46135e-07
1.46052e-07
1.46157e-07
1.46054e-07
1.46178e-07
1.46064e-07
1.46217e-07
1.46139e-07
1.46626e-07
1.4658e-07
1.46589e-07
1.46586e-07
1.46582e-07
1.46577e-07
1.46574e-07
1.4657e-07
1.46565e-07
1.46557e-07
1.4655e-07
1.46543e-07
1.46537e-07
1.46529e-07
1.46522e-07
1.46514e-07
1.46506e-07
1.46498e-07
1.4649e-07
1.46482e-07
1.46474e-07
1.46466e-07
1.46458e-07
1.4645e-07
1.46441e-07
1.46432e-07
1.46424e-07
1.46416e-07
1.46408e-07
1.46401e-07
1.46394e-07
1.46385e-07
1.46376e-07
1.46368e-07
1.46363e-07
1.46357e-07
1.46346e-07
1.46328e-07
1.46314e-07
1.46303e-07
1.46294e-07
1.46285e-07
1.46277e-07
1.4627e-07
1.46262e-07
1.46255e-07
1.46248e-07
1.4624e-07
1.4623e-07
1.46222e-07
1.46218e-07
1.46217e-07
1.46208e-07
1.46194e-07
1.4618e-07
1.46171e-07
1.46165e-07
1.46159e-07
1.46153e-07
1.46149e-07
1.46141e-07
1.46147e-07
1.46139e-07
1.46134e-07
1.46112e-07
1.461e-07
1.46096e-07
1.46093e-07
1.4609e-07
1.46087e-07
1.46086e-07
1.46085e-07
1.46079e-07
1.46069e-07
1.46065e-07
1.46062e-07
1.46061e-07
1.46059e-07
1.46058e-07
1.46056e-07
1.46055e-07
1.46054e-07
1.46052e-07
1.46051e-07
1.46049e-07
1.46048e-07
1.46047e-07
1.46045e-07
1.46044e-07
1.46043e-07
1.46042e-07
1.46041e-07
1.46039e-07
1.46038e-07
1.46037e-07
1.46036e-07
1.46035e-07
1.46034e-07
1.46033e-07
1.46032e-07
1.46031e-07
1.46029e-07
1.46028e-07
1.46027e-07
1.46026e-07
1.46024e-07
1.46023e-07
1.46022e-07
1.4602e-07
1.46019e-07
1.46017e-07
1.46016e-07
1.46014e-07
1.46011e-07
1.4601e-07
1.46004e-07
1.46008e-07
1.45995e-07
1.46006e-07
1.45984e-07
1.46005e-07
1.45969e-07
1.46004e-07
1.45947e-07
1.46001e-07
1.4592e-07
1.45996e-07
1.45886e-07
1.45985e-07
1.45846e-07
1.45966e-07
1.45821e-07
1.45989e-07
1.45921e-07
1.46505e-07
1.46343e-07
1.46578e-07
1.46574e-07
1.46569e-07
1.46562e-07
1.46556e-07
1.46551e-07
1.46546e-07
1.46543e-07
1.46538e-07
1.46531e-07
1.46523e-07
1.46515e-07
1.46506e-07
1.46498e-07
1.46489e-07
1.4648e-07
1.46471e-07
1.46461e-07
1.46452e-07
1.46442e-07
1.46431e-07
1.4642e-07
1.46409e-07
1.46398e-07
1.46386e-07
1.46374e-07
1.46361e-07
1.46348e-07
1.46335e-07
1.46322e-07
1.46309e-07
1.46294e-07
1.4628e-07
1.46269e-07
1.46263e-07
1.46264e-07
1.46266e-07
1.46253e-07
1.46243e-07
1.46233e-07
1.46223e-07
1.46212e-07
1.46203e-07
1.46193e-07
1.46184e-07
1.46175e-07
1.46167e-07
1.4616e-07
1.46149e-07
1.46141e-07
1.46139e-07
1.46145e-07
1.46147e-07
1.4614e-07
1.46134e-07
1.46128e-07
1.46121e-07
1.46114e-07
1.46108e-07
1.46098e-07
1.46096e-07
1.46097e-07
1.46114e-07
1.46112e-07
1.46107e-07
1.46102e-07
1.46097e-07
1.46092e-07
1.46087e-07
1.46083e-07
1.46084e-07
1.46088e-07
1.46088e-07
1.46084e-07
1.4608e-07
1.46076e-07
1.46074e-07
1.4607e-07
1.46068e-07
1.46065e-07
1.46063e-07
1.46062e-07
1.46061e-07
1.46059e-07
1.46058e-07
1.46057e-07
1.46056e-07
1.46055e-07
1.46054e-07
1.46054e-07
1.46053e-07
1.46052e-07
1.46052e-07
1.46052e-07
1.46052e-07
1.46051e-07
1.46052e-07
1.46052e-07
1.46052e-07
1.46052e-07
1.46052e-07
1.46053e-07
1.46053e-07
1.46054e-07
1.46054e-07
1.46055e-07
1.46055e-07
1.46056e-07
1.46057e-07
1.46058e-07
1.46059e-07
1.4606e-07
1.46062e-07
1.4606e-07
1.46068e-07
1.4606e-07
1.46075e-07
1.46059e-07
1.46085e-07
1.46057e-07
1.46098e-07
1.46055e-07
1.46115e-07
1.46051e-07
1.46134e-07
1.46048e-07
1.46153e-07
1.46041e-07
1.46171e-07
1.46025e-07
1.46244e-07
1.4609e-07
1.46918e-07
1.46746e-07
1.46592e-07
1.4659e-07
1.46587e-07
1.46583e-07
1.46579e-07
1.46574e-07
1.46567e-07
1.46558e-07
1.46551e-07
1.46545e-07
1.46538e-07
1.46531e-07
1.46525e-07
1.46519e-07
1.46512e-07
1.46504e-07
1.46496e-07
1.46488e-07
1.4648e-07
1.46473e-07
1.46465e-07
1.46457e-07
1.46447e-07
1.46437e-07
1.46427e-07
1.46417e-07
1.46408e-07
1.46398e-07
1.46388e-07
1.46378e-07
1.46367e-07
1.46357e-07
1.46347e-07
1.46336e-07
1.46321e-07
1.46305e-07
1.46291e-07
1.46282e-07
1.46273e-07
1.46263e-07
1.46253e-07
1.46244e-07
1.46235e-07
1.46226e-07
1.46217e-07
1.46208e-07
1.462e-07
1.46191e-07
1.46184e-07
1.46177e-07
1.46165e-07
1.46152e-07
1.46144e-07
1.46141e-07
1.46136e-07
1.46131e-07
1.46126e-07
1.4612e-07
1.46115e-07
1.46111e-07
1.46104e-07
1.46096e-07
1.46089e-07
1.46088e-07
1.46087e-07
1.46084e-07
1.46081e-07
1.4608e-07
1.46077e-07
1.46074e-07
1.46071e-07
1.46071e-07
1.46066e-07
1.46066e-07
1.46064e-07
1.46062e-07
1.4606e-07
1.46061e-07
1.46059e-07
1.46057e-07
1.46055e-07
1.46053e-07
1.46051e-07
1.4605e-07
1.46048e-07
1.46047e-07
1.46046e-07
1.46045e-07
1.46044e-07
1.46042e-07
1.46041e-07
1.4604e-07
1.46039e-07
1.46038e-07
1.46036e-07
1.46035e-07
1.46034e-07
1.46033e-07
1.46031e-07
1.4603e-07
1.46029e-07
1.46027e-07
1.46026e-07
1.46025e-07
1.46023e-07
1.46022e-07
1.4602e-07
1.46019e-07
1.46017e-07
1.46015e-07
1.46013e-07
1.4601e-07
1.46009e-07
1.46003e-07
1.46006e-07
1.45993e-07
1.46004e-07
1.45981e-07
1.46002e-07
1.45964e-07
1.45999e-07
1.45939e-07
1.45996e-07
1.45905e-07
1.45991e-07
1.4586e-07
1.45986e-07
1.45806e-07
1.45999e-07
1.45777e-07
1.46183e-07
1.45938e-07
1.47232e-07
1.46675e-07
1.46572e-07
1.46569e-07
1.46564e-07
1.46559e-07
1.46554e-07
1.4655e-07
1.46547e-07
1.46543e-07
1.46536e-07
1.46529e-07
1.46524e-07
1.46518e-07
1.46509e-07
1.46499e-07
1.46491e-07
1.46483e-07
1.46475e-07
1.46468e-07
1.46461e-07
1.46453e-07
1.46446e-07
1.46437e-07
1.46429e-07
1.46422e-07
1.46416e-07
1.4641e-07
1.46403e-07
1.46397e-07
1.4639e-07
1.46383e-07
1.46377e-07
1.46371e-07
1.46365e-07
1.46358e-07
1.46349e-07
1.46335e-07
1.4632e-07
1.46309e-07
1.463e-07
1.46293e-07
1.46286e-07
1.46278e-07
1.46271e-07
1.46264e-07
1.46256e-07
1.46249e-07
1.46242e-07
1.46236e-07
1.4623e-07
1.46224e-07
1.46216e-07
1.46203e-07
1.4619e-07
1.4618e-07
1.46173e-07
1.46166e-07
1.46162e-07
1.46158e-07
1.46154e-07
1.46151e-07
1.46146e-07
1.46139e-07
1.46121e-07
1.46111e-07
1.46104e-07
1.461e-07
1.46097e-07
1.46093e-07
1.46091e-07
1.46088e-07
1.46083e-07
1.46074e-07
1.4607e-07
1.46069e-07
1.46068e-07
1.46066e-07
1.46065e-07
1.46063e-07
1.46062e-07
1.4606e-07
1.46059e-07
1.46058e-07
1.46057e-07
1.46056e-07
1.46055e-07
1.46054e-07
1.46054e-07
1.46053e-07
1.46052e-07
1.46051e-07
1.46051e-07
1.4605e-07
1.4605e-07
1.46049e-07
1.46049e-07
1.46049e-07
1.46048e-07
1.46048e-07
1.46048e-07
1.46048e-07
1.46047e-07
1.46047e-07
1.46047e-07
1.46047e-07
1.46047e-07
1.46047e-07
1.46047e-07
1.46047e-07
1.46047e-07
1.46047e-07
1.46047e-07
1.46047e-07
1.46048e-07
1.46045e-07
1.46051e-07
1.46042e-07
1.46055e-07
1.46036e-07
1.46061e-07
1.46029e-07
1.4607e-07
1.46017e-07
1.46081e-07
1.46001e-07
1.46093e-07
1.45977e-07
1.46105e-07
1.4594e-07
1.46116e-07
1.459e-07
1.46168e-07
1.46001e-07
1.46836e-07
1.46572e-07
1.46627e-07
1.46624e-07
1.46618e-07
1.46612e-07
1.46606e-07
1.46601e-07
1.46595e-07
1.46589e-07
1.46582e-07
1.46575e-07
1.46567e-07
1.46557e-07
1.46546e-07
1.46535e-07
1.46524e-07
1.46512e-07
1.46501e-07
1.46489e-07
1.46478e-07
1.46466e-07
1.46454e-07
1.46442e-07
1.4643e-07
1.46417e-07
1.46405e-07
1.46392e-07
1.4638e-07
1.46367e-07
1.46354e-07
1.46341e-07
1.46328e-07
1.46315e-07
1.46302e-07
1.46289e-07
1.46281e-07
1.46277e-07
1.46275e-07
1.46265e-07
1.46255e-07
1.46247e-07
1.46238e-07
1.46228e-07
1.46218e-07
1.46209e-07
1.462e-07
1.46191e-07
1.46183e-07
1.46174e-07
1.46165e-07
1.46158e-07
1.46153e-07
1.46153e-07
1.46153e-07
1.46149e-07
1.46143e-07
1.46136e-07
1.4613e-07
1.46125e-07
1.46118e-07
1.46112e-07
1.46107e-07
1.46105e-07
1.46114e-07
1.46114e-07
1.46109e-07
1.46104e-07
1.46099e-07
1.46093e-07
1.4609e-07
1.46086e-07
1.46084e-07
1.46085e-07
1.46085e-07
1.46081e-07
1.46077e-07
1.46073e-07
1.4607e-07
1.46065e-07
1.46063e-07
1.46062e-07
1.46059e-07
1.46057e-07
1.46056e-07
1.46054e-07
1.46052e-07
1.46051e-07
1.4605e-07
1.46048e-07
1.46047e-07
1.46046e-07
1.46045e-07
1.46044e-07
1.46043e-07
1.46042e-07
1.46041e-07
1.46041e-07
1.4604e-07
1.46039e-07
1.46038e-07
1.46038e-07
1.46037e-07
1.46036e-07
1.46036e-07
1.46035e-07
1.46035e-07
1.46034e-07
1.46034e-07
1.46033e-07
1.46033e-07
1.46033e-07
1.46032e-07
1.46032e-07
1.46033e-07
1.46029e-07
1.46035e-07
1.46025e-07
1.46039e-07
1.4602e-07
1.46045e-07
1.46013e-07
1.46052e-07
1.46003e-07
1.46062e-07
1.45991e-07
1.46072e-07
1.45975e-07
1.46079e-07
1.45952e-07
1.46077e-07
1.45917e-07
1.46103e-07
1.45937e-07
1.46791e-07
1.46543e-07
1.46577e-07
1.46579e-07
1.4658e-07
1.4658e-07
1.46579e-07
1.46576e-07
1.46573e-07
1.46569e-07
1.46567e-07
1.46565e-07
1.46563e-07
1.46561e-07
1.46561e-07
1.4656e-07
1.46556e-07
1.46553e-07
1.46547e-07
1.46542e-07
1.46537e-07
1.46533e-07
1.46529e-07
1.46522e-07
1.46513e-07
1.46504e-07
1.46495e-07
1.46487e-07
1.46478e-07
1.46469e-07
1.46459e-07
1.46449e-07
1.46438e-07
1.46427e-07
1.46416e-07
1.46405e-07
1.46393e-07
1.46378e-07
1.46361e-07
1.46349e-07
1.46336e-07
1.46318e-07
1.46303e-07
1.46291e-07
1.4628e-07
1.4627e-07
1.46261e-07
1.46252e-07
1.46243e-07
1.46234e-07
1.46225e-07
1.46216e-07
1.46206e-07
1.46195e-07
1.46185e-07
1.46176e-07
1.46169e-07
1.46162e-07
1.46155e-07
1.46144e-07
1.46139e-07
1.46133e-07
1.46128e-07
1.46122e-07
1.46113e-07
1.46107e-07
1.46103e-07
1.461e-07
1.46096e-07
1.46094e-07
1.46089e-07
1.46086e-07
1.46083e-07
1.46079e-07
1.46075e-07
1.46074e-07
1.46072e-07
1.46071e-07
1.46069e-07
1.4607e-07
1.46067e-07
1.46063e-07
1.46062e-07
1.46061e-07
1.46059e-07
1.46058e-07
1.46057e-07
1.46056e-07
1.46055e-07
1.46054e-07
1.46053e-07
1.46052e-07
1.46051e-07
1.4605e-07
1.4605e-07
1.46049e-07
1.46049e-07
1.46048e-07
1.46048e-07
1.46048e-07
1.46047e-07
1.46047e-07
1.46047e-07
1.46046e-07
1.46046e-07
1.46046e-07
1.46046e-07
1.46046e-07
1.46046e-07
1.46046e-07
1.46046e-07
1.46045e-07
1.46045e-07
1.46044e-07
1.46046e-07
1.46042e-07
1.46048e-07
1.46038e-07
1.46051e-07
1.46032e-07
1.46056e-07
1.46024e-07
1.46062e-07
1.46012e-07
1.46069e-07
1.45997e-07
1.46075e-07
1.45974e-07
1.46073e-07
1.45933e-07
1.46047e-07
1.45879e-07
1.46028e-07
1.45979e-07
1.4678e-07
1.46729e-07
1.46327e-07
1.46342e-07
1.46353e-07
1.46363e-07
1.46372e-07
1.4638e-07
1.46387e-07
1.46393e-07
1.46396e-07
1.46399e-07
1.46401e-07
1.46404e-07
1.46403e-07
1.46399e-07
1.46396e-07
1.46392e-07
1.46388e-07
1.46384e-07
1.4638e-07
1.46376e-07
1.46369e-07
1.46361e-07
1.46354e-07
1.46347e-07
1.4634e-07
1.46334e-07
1.46328e-07
1.46321e-07
1.46314e-07
1.46306e-07
1.46298e-07
1.4629e-07
1.46281e-07
1.46272e-07
1.46264e-07
1.46258e-07
1.46252e-07
1.46244e-07
1.46238e-07
1.46237e-07
1.46235e-07
1.46225e-07
1.46218e-07
1.4621e-07
1.46202e-07
1.46195e-07
1.46187e-07
1.46181e-07
1.46174e-07
1.46168e-07
1.46163e-07
1.46158e-07
1.46153e-07
1.46147e-07
1.46142e-07
1.46137e-07
1.46134e-07
1.46134e-07
1.46127e-07
1.46122e-07
1.46118e-07
1.46113e-07
1.4611e-07
1.46106e-07
1.46102e-07
1.46098e-07
1.46094e-07
1.46092e-07
1.46088e-07
1.46086e-07
1.46082e-07
1.46079e-07
1.46077e-07
1.46074e-07
1.46072e-07
1.46069e-07
1.46067e-07
1.46064e-07
1.46062e-07
1.46062e-07
1.46059e-07
1.46057e-07
1.46056e-07
1.46054e-07
1.46053e-07
1.46052e-07
1.4605e-07
1.46049e-07
1.46048e-07
1.46048e-07
1.46046e-07
1.46045e-07
1.46044e-07
1.46044e-07
1.46043e-07
1.46042e-07
1.46042e-07
1.46041e-07
1.4604e-07
1.46039e-07
1.46039e-07
1.46038e-07
1.46037e-07
1.46037e-07
1.46036e-07
1.46036e-07
1.46036e-07
1.46036e-07
1.46035e-07
1.46035e-07
1.46036e-07
1.46035e-07
1.46037e-07
1.46033e-07
1.4604e-07
1.46031e-07
1.46044e-07
1.46026e-07
1.46051e-07
1.4602e-07
1.46058e-07
1.4601e-07
1.46068e-07
1.45998e-07
1.46079e-07
1.45982e-07
1.46085e-07
1.45953e-07
1.46074e-07
1.45862e-07
1.46032e-07
1.45766e-07
1.46862e-07
1.46766e-07
1.45925e-07
1.46005e-07
1.46077e-07
1.46143e-07
1.46202e-07
1.46253e-07
1.46295e-07
1.46329e-07
1.46359e-07
1.46383e-07
1.46402e-07
1.46413e-07
1.46422e-07
1.4643e-07
1.46436e-07
1.46439e-07
1.46441e-07
1.46439e-07
1.46438e-07
1.46436e-07
1.46434e-07
1.4643e-07
1.46423e-07
1.46416e-07
1.46409e-07
1.46401e-07
1.46391e-07
1.4638e-07
1.46368e-07
1.46357e-07
1.46346e-07
1.46334e-07
1.46323e-07
1.46312e-07
1.463e-07
1.46288e-07