/*--------------------------------*- C++ -*----------------------------------*\
| =========                 |                                                 |
| \\      /  F ield         | OpenFOAM: The Open Source CFD Toolbox           |
|  \\    /   O peration     | Version:  v1912                                 |
|   \\  /    A nd           | Website:  www.openfoam.com                      |
|    \\/     M anipulation  |                                                 |
\*---------------------------------------------------------------------------*/
FoamFile
{
    version     2.0;
    format      ascii;
    class       volScalarField;
    location    "30";
    object      p;
}
// * * * * * * * * * * * * * * * * * * * * * * * * * * * * * * * * * * * * * //

dimensions      [1 -1 -2 0 0 0 0];


internalField   nonuniform List<scalar> 
14268
(
90079.1
89719.3
89361.6
89006
88652.5
88300.9
87951.2
87603.3
87257.2
86912.8
86570.1
86228.9
85889.1
85550.8
85213.7
84877.9
84543.2
84209.6
83876.8
83545
83213.8
82883.3
82553.3
82223.7
81894.5
81565.4
81236.3
80907.3
80578
80248.5
79918.6
79588.2
79257.2
78925.5
78593
78259.5
77925.1
77589.5
77252.7
76914.6
76575.1
76234.1
75891.4
75547.1
75201
74853
74503.1
74151.2
73797.2
73441.1
73082.8
72722.2
72359.4
71994.3
71626.9
71257
70884.8
70510.1
70132.9
69753.2
69371
68986.2
68598.9
68209
67816.6
67421.5
67024
66623.9
66221.2
65816.1
65408.5
64998.5
64586.1
64171.3
63754.1
63334.6
62912.7
62488.6
62062.2
61633.5
61202.6
60769.6
60334.5
59897.4
59458.3
59017.3
58574.5
58129.9
57683.6
57235.7
56786.2
56335.1
55882.6
55428.7
54973.4
54516.8
54059
53600
53140
52678.9
52216.9
51753.9
51290
50825.3
50359.8
49893.6
49426.6
48959.1
48491
48022.3
47553.2
47083.5
46613.3
46142.8
45671.9
45200.6
44729.2
44257.3
43785.3
43313
42840.6
42367.9
41895.2
41422.1
40949.1
40475.8
40002.4
39529.2
39055.2
38582.1
38107.3
37633.1
37156.7
36678.4
85357.5
85032.4
84709.4
84388.5
84069.6
83752.6
83437.6
83124.4
82812.9
82503.2
82195.1
81888.6
81583.5
81279.8
80977.4
80676.2
80376.2
80077.1
79779
79481.8
79185.3
78889.4
78594
78299.1
78004.4
77709.9
77415.5
77121.1
76826.4
76531.5
76236.2
75940.4
75644
75346.9
75049
74750.2
74450.3
74149.3
73847.1
73543.6
73238.6
72932.2
72624.1
72314.4
72002.9
71689.5
71374.1
71056.8
70737.3
70415.8
70092
69766.1
69437.9
69107.3
68774.4
68439.2
68101.5
67761.3
67418.7
67073.6
66726
66375.8
66023
65667.7
65309.8
64949.4
64586.4
64220.8
63852.8
63482.3
63109.3
62733.8
62356
61975.7
61593.1
61208.2
60820.9
60431.4
60039.5
59645.5
59249.2
58850.8
58450.2
58047.7
57643.2
57236.8
56828.5
56418.6
56006.9
55593.6
55178.7
54762.2
54344.3
53925
53504.3
53082.3
52659.1
52234.7
51809.3
51382.9
50955.4
50527.1
50097.8
49667.7
49236.8
48805.2
48372.9
47940
47506.5
47072.4
46637.8
46202.8
45767.3
45331.3
44895
44458.4
44021.5
43584.3
43146.9
42709.2
42271.4
41833.3
41395.2
40956.8
40518.3
40079.7
39640.9
39202.3
38762.9
38324.3
37884
37444.4
37002.5
36558.7
80635.4
80345
80056.7
79770.5
79486.2
79204
78923.6
78645.1
78368.3
78093.3
77819.9
77548
77277.6
77008.5
76740.8
76474.2
76208.8
75944.5
75681
75418.4
75156.6
74895.4
74634.6
74374.4
74114.3
73854.5
73594.7
73334.9
73074.9
72814.6
72553.9
72292.7
72030.9
71768.4
71505.1
71240.9
70975.6
70709.2
70441.6
70172.7
69902.3
69630.5
69357
69081.8
68804.9
68526.1
68245.3
67962.5
67677.7
67390.7
67101.5
66810.1
66516.5
66220.5
65922.2
65621.5
65318.4
65012.8
64704.7
64394.2
64081.1
63765.5
63447.3
63126.6
62803.2
62477.4
62148.9
61818
61484.5
61148.5
60810.1
60469.2
60126
59780.3
59432.3
59081.9
58729.2
58374.2
58017
57657.5
57295.8
56932
56566
56198.1
55828.1
55456.3
55082.7
54707.3
54330.2
53951.5
53571.2
53189.4
52806
52421.3
52035.2
51647.8
51259.2
50869.5
50478.7
50086.8
49694
49300.3
48905.6
48510.1
48113.8
47716.8
47319.1
46920.8
46521.9
46122.5
45722.5
45322.1
44921.2
44519.9
44118.2
43716.2
43313.9
42911.3
42508.5
42105.4
41702.3
41298.8
40895.2
40491.4
40087.6
39683.5
39279.3
38875.3
38470.5
38066.5
37660.8
37255.7
36848.3
36438.9
75912.9
75657.1
75403.5
75152
74902.4
74654.9
74409.2
74165.4
73923.3
73683
73444.2
73207
72971.3
72737
72503.9
72272
72041.3
71811.6
71582.9
71354.9
71127.7
70901.2
70675.1
70449.4
70224.1
69998.9
69773.8
69548.6
69323.2
69097.6
68871.6
68645
68417.9
68190
67961.3
67731.7
67501
67269.2
67036.2
66801.9
66566.2
66328.9
66090
65849.5
65607.1
65362.8
65116.7
64868.5
64618.2
64365.8
64111.2
63854.4
63595.3
63333.9
63070.1
62804
62535.4
62264.4
61990.9
61715
61436.4
61155.4
60871.8
60585.6
60296.8
60005.5
59711.6
59415.2
59116.3
58814.9
58511.1
58204.8
57896.1
57585
57271.5
56955.7
56637.6
56317.2
55994.5
55669.6
55342.5
55013.2
54681.9
54348.5
54013.2
53675.9
53336.9
52996.1
52653.6
52309.5
51963.8
51616.5
51267.8
50917.7
50566.2
50213.4
49859.4
49504.2
49148
48790.8
48432.6
48073.4
47713.4
47352.5
46990.8
46628.4
46265.3
45901.7
45537.4
45172.6
44807.2
44441.4
44075.1
43708.4
43341.3
42973.9
42606.3
42238.3
41870.1
41501.6
41133.1
40764.2
40395.3
40026.1
39656.8
39287.4
38917.8
38548.4
38178.1
37808.7
37437.6
37067
36694.1
36319.1
71189.8
70968.7
70749.8
70533
70318.2
70105.3
69894.4
69685.3
69477.9
69272.3
69068.3
68865.8
68664.8
68465.1
68266.8
68069.6
67873.6
67678.6
67484.5
67291.3
67098.8
66906.9
66715.5
66524.5
66333.8
66143.3
65952.9
65762.3
65571.7
65380.7
65189.3
64997.4
64804.8
64611.6
64417.5
64222.5
64026.5
63829.3
63630.9
63431.2
63230.1
63027.4
62823.2
62617.2
62409.4
62199.8
61988.2
61774.6
61558.9
61341
61121
60898.8
60674.3
60447.4
60218.2
59986.7
59752.7
59516.2
59277.3
59035.9
58791.9
58545.4
58296.4
58044.8
57790.6
57533.8
57274.5
57012.6
56748.3
56481.4
56212.1
55940.4
55666.3
55389.8
55110.9
54829.6
54546.1
54260.3
53972.2
53681.8
53389.3
53094.6
52797.8
52499
52198.3
51895.6
51591.1
51284.9
50977
50667.5
50356.4
50043.7
49729.6
49414
49097.1
48779
48459.6
48139
47817.4
47494.8
47171.2
46846.6
46521.2
46194.9
45867.8
45540.1
45211.6
44882.5
44552.8
44222.6
43891.9
43560.7
43229
42896.9
42564.5
42231.7
41898.6
41565.3
41231.7
40897.9
40563.9
40229.6
39895.3
39560.7
39226.1
38891.2
38556.3
38221.4
37885.8
37550.9
37214.3
36878.3
36539.9
36199.4
66466.1
66279.8
66095.6
65913.5
65733.4
65555.3
65379.1
65204.7
65032.1
64861.2
64691.9
64524.2
64357.9
64193
64029.3
63866.9
63705.6
63545.3
63386
63227.4
63069.6
62912.5
62755.8
62599.5
62443.6
62287.7
62132
61976.1
61820.1
61663.8
61507
61349.8
61191.9
61033.3
60873.8
60713.5
60552.1
60389.6
60225.8
60060.7
59894.2
59726.2
59556.5
59385.1
59211.9
59036.9
58859.9
58680.8
58499.7
58316.5
58131
57943.4
57753.4
57561.1
57366.5
57169.5
56970.1
56768.2
56563.9
56357
56147.6
55935.7
55721.2
55504.1
55284.4
55062.2
54837.5
54610.2
54380.4
54148.1
53913.4
53676.2
53436.6
53194.6
52950.3
52703.7
52454.7
52203.4
51949.9
51694.1
51436.2
51176
50913.8
50649.6
50383.4
50115.3
49845.5
49573.8
49300.5
49025.6
48749
48471
48191.4
47910.5
47628.2
47344.6
47059.8
46773.8
46486.8
46198.8
45909.8
45619.9
45329
45037.3
44744.9
44451.7
44157.8
43863.4
43568.3
43272.7
42976.6
42680
42382.9
42085.5
41787.6
41489.4
41191
40892.3
40593.3
40294.1
39994.7
39695.1
39395.4
39095.4
38795.3
38495.1
38194.7
37894.5
37593.4
37293.2
36991.1
36689.7
36385.8
36079.6
61742
61590.4
61440.9
61293.6
61148.2
61004.9
60863.4
60723.8
60586
60449.8
60315.3
60182.2
60050.7
59920.5
59791.6
59663.9
59537.4
59411.8
59287.2
59163.4
59040.3
58917.9
58795.9
58674.4
58553.1
58432
58310.9
58189.8
58068.5
57946.8
57824.8
57702.2
57579
57455.1
57330.3
57204.6
57077.8
56949.9
56820.8
56690.4
56558.5
56425
56290
56153.2
56014.6
55874.2
55731.8
55587.3
55440.7
55292.1
55141.2
54988.1
54832.7
54675
54515
54352.5
54187.7
54020.4
53850.6
53678.3
53503.4
53326.1
53146.1
52963.6
52778.5
52590.8
52400.6
52207.9
52012.6
51814.9
51614.7
51412.1
51207.1
50999.7
50789.9
50577.8
50363.4
50146.7
49927.7
49706.5
49483.1
49257.6
49029.9
48800.2
48568.6
48335.1
48099.8
47862.8
47624
47383.7
47141.7
46898.2
46653.3
46406.9
46159.2
45910.2
45660
45408.7
45156.3
44902.8
44648.4
44393.1
44136.9
43879.8
43621.9
43363.3
43104.1
42844.2
42583.8
42322.8
42061.3
41799.3
41536.9
41274
41010.8
40747.2
40483.4
40219.3
39954.9
39690.3
39425.6
39160.5
38895.4
38630
38364.6
38099
37833.2
37567.5
37301
37035.4
36767.9
36501
36231.6
35959.9
57017.3
56900.4
56785.7
56673.1
56562.6
56454
56347.3
56242.5
56139.4
56038
55938.2
55840
55743.2
55647.8
55553.7
55460.7
55368.9
55278.1
55188.2
55099.2
55010.9
54923.2
54836
54749.2
54662.6
54576.2
54489.9
54403.5
54316.8
54229.9
54142.5
54054.7
53966.1
53876.9
53786.8
53695.7
53603.6
53510.4
53415.9
53320.1
53222.8
53124.1
53023.6
52921.5
52817.5
52711.7
52603.8
52494
52382
52267.9
52151.6
52033.1
51912.3
51789.1
51663.6
51535.8
51405.4
51272.7
51137.5
50999.7
50859.4
50716.6
50571.2
50423.2
50272.7
50119.6
49963.9
49805.7
49645
49481.8
49316.2
49148.1
48977.6
48804.8
48629.6
48452.1
48272.2
48090.1
47905.7
47719
47530.2
47339.2
47146.1
46951
46753.9
46555
46354.2
46151.8
45947.6
45741.8
45534.5
45325.6
45115.2
44903.4
44690.3
44475.9
44260.2
44043.5
43825.7
43606.9
43387.1
43166.3
42944.7
42722.2
42499
42275
42050.4
41825.1
41599.3
41372.9
41146
40918.6
40690.8
40462.5
40233.9
40005
39775.8
39546.2
39316.5
39086.5
38856.4
38625.9
38395.5
38164.7
37933.8
37702.8
37471.6
37240.6
37008.7
36777.6
36544.6
36312.3
36077.4
35840.1
52292
52210
52130
52052.2
51976.4
51902.6
51830.8
51760.7
51692.4
51625.8
51560.9
51497.4
51435.4
51374.8
51315.4
51257.2
51200.2
51144.2
51089.1
51034.8
50981.2
50928.3
50875.9
50823.8
50772
50720.4
50668.8
50617.1
50565.2
50513
50460.3
50407.2
50353.3
50298.7
50243.3
50186.9
50129.5
50070.9
50011.1
49950
49887.4
49823.2
49757.4
49689.9
49620.5
49549.3
49476.1
49400.8
49323.4
49243.9
49162.2
49078.2
48992
48903.4
48812.5
48719.2
48623.4
48525.2
48424.5
48321.4
48215.6
48107.3
47996.5
47883.1
47767.1
47648.5
47527.3
47403.7
47277.5
47148.9
47017.8
46884.2
46748.3
46610
46469.4
46326.4
46181.1
46033.5
45883.7
45731.6
45577.3
45420.8
45262.3
45101.7
44939.2
44774.9
44608.7
44440.8
44271.2
44100
43927.2
43752.9
43577.1
43399.9
43221.4
43041.5
42860.5
42678.4
42495.2
42310.9
42125.7
41939.6
41752.6
41564.7
41376
41186.7
40996.6
40806
40614.8
40423
40230.7
40038
39844.7
39651.1
39457.1
39262.7
39068.2
38873.2
38678.2
38482.7
38287.2
38091.4
37895.5
37699.3
37503.1
37306.7
37110.1
36913.6
36716.3
36519.8
36321.4
36123.6
35923.2
35720.3
47566.3
47519
47473.9
47430.8
47389.8
47350.9
47313.8
47278.5
47245.1
47213.3
47183.1
47154.5
47127.3
47101.4
47076.9
47053.5
47031.3
47010
46989.7
46970.2
46951.5
46933.3
46915.7
46898.4
46881.4
46864.5
46847.7
46830.7
46813.6
46796.1
46778.2
46759.7
46740.6
46720.7
46699.9
46678.2
46655.5
46631.6
46606.5
46579.9
46552
46522.5
46491.3
46458.5
46423.7
46387.1
46348.5
46307.8
46265
46220.1
46172.9
46123.6
46071.9
46017.9
45961.5
45902.8
45841.6
45777.9
45711.8
45643.2
45572
45498.2
45421.9
45343.1
45261.6
45177.5
45090.9
45001.8
44910.2
44816.1
44719.5
44620.5
44519.1
44415.4
44309.3
44200.8
44090.1
43977.1
43861.8
43744.2
43624.5
43502.6
43378.6
43252.6
43124.6
42994.8
42863.2
42729.9
42594.9
42458.2
42320
42180.3
42039.1
41896.5
41752.5
41607.2
41460.8
41313.3
41164.6
41015
40864.4
40712.9
40560.4
40407.2
40253.1
40098.4
39942.9
39786.9
39630.3
39473.1
39315.5
39157.3
38998.7
38839.6
38680.2
38520.5
38360.5
38200.2
38039.8
37878.9
37718
37556.8
37395.5
37234
37072.4
36910.5
36748.5
36586.7
36423.9
36262
36098.2
35934.9
35769
35600.6
42840
42827.5
42817.2
42808.9
42802.8
42798.6
42796.4
42796
42797.4
42800.4
42805.1
42811.2
42818.9
42827.8
42838.1
42849.5
42862.1
42875.7
42890.2
42905.5
42921.5
42938.2
42955.3
42972.9
42990.7
43008.6
43026.5
43044.3
43061.9
43079.2
43096
43112.3
43127.9
43142.7
43156.6
43169.7
43181.6
43192.4
43201.9
43210.1
43216.8
43221.9
43225.4
43227.2
43227.1
43225.1
43221.1
43215
43206.8
43196.4
43183.9
43169.1
43151.9
43132.5
43110.7
43086.5
43059.9
43030.8
42999.2
42965.1
42928.5
42889.3
42847.5
42803.2
42756.3
42706.7
42654.7
42600.1
42543
42483.4
42421.3
42356.9
42290
42220.8
42149.3
42075.4
41999.2
41920.7
41840
41757
41671.8
41584.4
41495
41403.5
41310.1
41214.8
41117.8
41019
40918.6
40816.5
40712.9
40607.7
40501.1
40393
40283.6
40173
40061.1
39948.2
39834.1
39719.1
39603.1
39486.2
39368.3
39249.7
39130.2
39010
38889.2
38767.8
38645.8
38523.2
38400.2
38276.6
38152.6
38028.2
37903.4
37778.3
37652.9
37527.2
37401.4
37275.2
37148.9
37022.2
36895.6
36768.6
36641.6
36514.4
36387
36259.7
36131.6
36004.2
35875
35746.2
35614.8
35480.8
38113.2
38135.5
38159.9
38186.6
38215.2
38245.9
38278.6
38313
38349.2
38387.1
38426.6
38467.7
38510.1
38553.9
38599
38645.3
38692.7
38741.1
38790.4
38840.6
38891.4
38942.9
38994.9
39047.3
39099.8
39152.6
39205.3
39257.9
39310.3
39362.3
39413.9
39464.9
39515.2
39564.8
39613.4
39661.1
39707.8
39753.3
39797.5
39840.3
39881.7
39921.5
39959.7
39996.1
40030.6
40063.2
40093.8
40122.3
40148.8
40173
40195
40214.7
40232.2
40247.3
40260.1
40270.5
40278.4
40283.9
40286.8
40287.3
40285.2
40280.6
40273.3
40263.5
40251.1
40236.1
40218.6
40198.5
40175.9
40150.8
40123.3
40093.4
40061.1
40026.4
39989.4
39950
39908.4
39864.5
39818.2
39769.8
39719.1
39666.3
39611.4
39554.5
39495.6
39434.9
39372.4
39308.2
39242.3
39174.8
39105.8
39035.2
38963.1
38889.6
38814.8
38738.7
38661.5
38583.1
38503.7
38423.2
38341.8
38259.5
38176.2
38092.1
38007.3
37921.7
37835.5
37748.7
37661.3
37573.4
37484.9
37395.9
37306.5
37216.7
37126.6
37036.1
36945.3
36854.2
36763
36671.4
36579.7
36487.7
36395.6
36303.3
36210.9
36118.2
36025.4
35932.7
35839.2
35746.4
35651.7
35557.5
35460.6
35361.1
33385.8
33442.9
33502.2
33563.7
33627.2
33692.8
33760.3
33829.6
33900.7
33973.5
34047.9
34123.8
34201.1
34279.7
34359.7
34440.8
34523
34606.3
34690.5
34775.5
34861.2
34947.5
35034.3
35121.5
35209
35296.5
35384.1
35471.5
35558.6
35645.4
35731.8
35817.5
35902.6
35986.9
36070.3
36152.7
36234.1
36314.2
36393.1
36470.7
36546.8
36621.2
36694.1
36765.1
36834.3
36901.5
36966.7
37029.8
37090.8
37149.6
37206.2
37260.6
37312.6
37362.3
37409.6
37454.5
37497
37537.1
37574.6
37609.6
37642.1
37671.9
37699.2
37723.9
37746.1
37765.6
37782.6
37797
37808.9
37818.4
37825.4
37830
37832.2
37832.1
37829.6
37824.8
37817.7
37808.3
37796.6
37782.7
37766.6
37748.3
37727.9
37705.5
37681.2
37655.1
37627.1
37597.5
37566.1
37533.2
37498.7
37462.7
37425.2
37386.3
37346
37304.5
37261.8
37218
37173.2
37127.3
37080.5
37032.8
36984.1
36934.6
36884.4
36833.4
36781.8
36729.6
36676.8
36623.5
36569.6
36515.3
36460.5
36405.3
36349.7
36293.8
36237.7
36181.2
36124.6
36067.6
36010.5
35953.1
35895.7
35837.9
35780.1
35722.1
35663.9
35605.8
35546.8
35488.6
35428.5
35368.8
35306.4
35241.3
28657.8
28749.8
28844
28940.3
29038.8
29139.2
29241.6
29345.8
29451.8
29559.5
29668.8
29779.5
29891.7
30005.3
30120.1
30236.1
30353.2
30471.3
30590.3
30710.2
30830.8
30952
31073.7
31195.7
31318
31440.4
31562.8
31685
31807
31928.6
32049.7
32170.2
32290.1
32409.1
32527.2
32644.4
32760.5
32875.3
32989
33101.2
33212
33321.1
33428.6
33534.3
33638.1
33740
33839.8
33937.6
34033.2
34126.6
34217.7
34306.6
34393.2
34477.5
34559.3
34638.8
34715.9
34790.5
34862.6
34932.1
34999.1
35063.5
35125.3
35184.6
35241.2
35295.3
35346.7
35395.7
35442.1
35486.1
35527.6
35566.8
35603.5
35637.9
35669.9
35699.7
35727.1
35752.2
35775.1
35795.7
35814.1
35830.3
35844.5
35856.7
35866.9
35875.2
35881.8
35886.7
35890
35891.6
35891.7
35890.2
35887.3
35883
35877.3
35870.3
35862.2
35853
35842.7
35831.5
35819.3
35806.1
35792
35777.2
35761.5
35745.1
35728.1
35710.5
35692.3
35673.6
35654.4
35634.6
35614.4
35593.8
35572.9
35551.6
35530.1
35508.2
35486.2
35463.8
35441.3
35418.5
35395.7
35372.6
35349.4
35326
35302.3
35278.8
35254.5
35230.8
35205.3
35180.2
35152.3
35121.6
25012.6
25122.6
25234.7
25349.1
25465.5
25584
25704.4
25826.6
25950.7
26076.3
26203.6
26332.4
26462.6
26594.1
26727
26861
26996.1
27132.2
27269.2
27407.1
27545.7
27684.9
27824.6
27964.7
28104.9
28245.3
28385.7
28525.9
28665.9
28805.4
28944.5
29082.9
29220.7
29357.6
29493.7
29628.7
29762.7
29895.5
30027
30157.2
30285.8
30412.8
30538.2
30661.7
30783.4
30903.1
31020.7
31136.2
31249.6
31360.8
31469.7
31576.4
31680.7
31782.7
31882.4
31979.6
32074.4
32166.7
32256.6
32343.8
32428.6
32510.7
32590.2
32667.2
32741.5
32813.3
32882.4
32949.1
33013.2
33074.9
33134.1
33190.9
33245.3
33297.4
33347.2
33394.6
33439.8
33482.6
33523.2
33561.5
33597.6
33631.5
33663.4
33693.2
33721.1
33747.2
33771.5
33794.1
33815.1
33834.4
33852.2
33868.5
33883.3
33896.7
33908.7
33919.5
33929.1
33937.6
33945.1
33951.6
33957.1
33961.7
33965.4
33968.3
33970.4
33971.8
33972.5
33972.7
33972.3
33971.3
33969.8
33967.9
33965.4
33962.6
33959.4
33955.9
33952.2
33948.1
33943.8
33939.2
33934.6
33929.5
33924.5
33919.1
33913.7
33908
33902.2
33896.5
33889.8
33884
33876.2
33868.8
33858.5
33845.4
22450.4
22561.4
22674.7
22790.1
22907.7
23027.3
23148.8
23272.2
23397.3
23524.1
23652.5
23782.4
23913.7
24046.4
24180.3
24315.4
24451.7
24588.9
24727.1
24866.1
25005.8
25146.1
25287
25428.2
25569.6
25711.2
25852.6
25994
26135.1
26275.8
26415.9
26555.5
26694.3
26832.3
26969.4
27105.6
27240.6
27374.5
27507.1
27638.2
27767.9
27896
28022.4
28147
28269.7
28390.4
28509
28625.5
28739.9
28852
28961.9
29069.5
29174.8
29277.8
29378.4
29476.6
29572.3
29665.6
29756.3
29844.6
29930.2
30013.3
30093.7
30171.5
30246.8
30319.4
30389.5
30457
30522
30584.5
30644.6
30702.3
30757.7
30810.6
30861.3
30909.6
30955.6
30999.4
31040.8
31080
31117
31151.8
31184.5
31215.2
31243.9
31270.9
31296
31319.5
31341.4
31361.6
31380.3
31397.5
31413.1
31427.4
31440.3
31452
31462.5
31471.9
31480.3
31487.7
31494.2
31499.7
31504.3
31508.1
31511.1
31513.4
31515
31516.1
31516.6
31516.6
31516.1
31515
31513.6
31511.7
31509.4
31506.8
31504
31500.9
31497.6
31493.9
31490.2
31486.1
31482
31477.6
31473.1
31468.5
31463.6
31458.8
31453.1
31448.3
31441.4
31435.1
31425.7
31413.4
19888.1
20000.2
20114.5
20231
20349.7
20470.4
20593
20717.5
20843.8
20971.8
21101.3
21232.3
21364.7
21498.5
21633.6
21769.8
21907.2
22045.5
22184.8
22325
22465.8
22607.3
22749.4
22891.7
23034.3
23177
23319.6
23462.1
23604.3
23746.1
23887.4
24028
24167.9
24307
24445.3
24582.5
24718.6
24853.5
24987.2
25119.4
25250.2
25379.3
25506.8
25632.4
25756.1
25877.8
25997.4
26114.9
26230.3
26343.4
26454.3
26562.8
26669.1
26773
26874.6
26973.7
27070.4
27164.6
27256.3
27345.4
27432
27516
27597.3
27676.1
27752.2
27825.7
27896.7
27965.1
28030.9
28094.4
28155.3
28213.9
28270.1
28324
28375.5
28424.7
28471.6
28516.3
28558.6
28598.6
28636.5
28672.1
28705.7
28737.2
28766.9
28794.7
28820.7
28845.1
28867.8
28888.9
28908.5
28926.5
28943.1
28958.2
28972
28984.6
28996
29006.3
29015.6
29023.9
29031.3
29037.7
29043.2
29047.9
29051.8
29055
29057.6
29059.6
29061
29062
29062.3
29062.2
29061.7
29060.7
29059.4
29057.8
29055.9
29053.7
29051.4
29048.7
29045.9
29042.7
29039.6
29036.1
29032.6
29028.9
29024.9
29021.2
29016.5
29012.7
29006.8
29001.6
28993.1
28981.6
17325.5
17438.7
17554.1
17671.8
17791.6
17913.4
18037.2
18162.8
18290.2
18419.3
18549.9
18682.1
18815.6
18950.5
19086.7
19224.1
19362.6
19502.1
19642.5
19783.8
19925.8
20068.5
20211.6
20355.1
20498.9
20642.7
20786.4
20930.1
21073.4
21216.3
21358.7
21500.5
21641.5
21781.7
21921
22059.3
22196.5
22332.5
22467.3
22600.6
22732.4
22862.6
22991.1
23117.8
23242.5
23365.3
23485.9
23604.4
23720.8
23834.8
23946.7
24056.2
24163.5
24268.3
24370.8
24470.9
24568.5
24663.7
24756.3
24846.4
24933.9
25018.8
25101.1
25180.7
25257.8
25332.2
25404
25473.3
25540
25604.3
25666.2
25725.6
25782.7
25837.5
25889.9
25940
25987.8
26033.3
26076.5
26117.4
26156.1
26192.6
26227
26259.4
26289.9
26318.5
26345.5
26370.7
26394.3
26416.3
26436.8
26455.7
26473.1
26489.1
26503.8
26517.2
26529.5
26540.7
26550.9
26560.1
26568.4
26575.7
26582.2
26587.7
26592.5
26596.7
26600.2
26603.1
26605.5
26607.3
26608.7
26609.5
26609.8
26609.8
26609.4
26608.7
26607.8
26606.6
26605.2
26603.4
26601.5
26599.4
26597.2
26594.7
26592.1
26589.3
26586.3
26583.5
26579.8
26577
26572.1
26568.2
26560.6
26549.7
14762.8
14877
14993.6
15112.4
15233.3
15356.2
15481.1
15607.9
15736.5
15866.7
15998.5
16131.8
16266.4
16402.5
16539.8
16678.3
16817.9
16958.6
17100.2
17242.6
17385.8
17529.6
17673.9
17818.6
17963.5
18108.4
18253.4
18398.1
18542.6
18686.7
18830.2
18973.1
19115.2
19256.5
19396.9
19536.3
19674.6
19811.7
19947.5
20081.9
20214.8
20346.1
20475.7
20603.4
20729.2
20852.9
20974.6
21094.1
21211.4
21326.5
21439.3
21549.8
21658
21763.8
21867.3
21968.3
22066.9
22163
22256.6
22347.6
22436.1
22521.9
22605.1
22685.6
22763.5
22838.8
22911.5
22981.7
23049.3
23114.4
23177.2
23237.5
23295.5
23351.1
23404.4
23455.4
23504.1
23550.5
23594.6
23636.3
23675.9
23713.3
23748.5
23781.7
23813.1
23842.6
23870.3
23896.4
23920.9
23943.8
23965.2
23985
24003.3
24020.1
24035.7
24050
24063.1
24075.2
24086.3
24096.4
24105.6
24113.8
24121.2
24127.6
24133.4
24138.4
24142.8
24146.6
24150
24152.7
24155
24156.7
24158
24158.9
24159.5
24159.7
24159.7
24159.4
24159
24158.1
24157.2
24156
24154.8
24153.2
24151.6
24149.8
24147.7
24145.9
24143.1
24141.5
24137.6
24134.9
24128.1
24118
12199.9
12315.3
12432.9
12552.8
12674.8
12798.9
12924.9
13052.9
13182.6
13313.9
13446.8
13581.2
13717
13854.2
13992.7
14132.4
14273.1
14414.9
14557.6
14701.2
14845.6
14990.6
15136.1
15282
15428.1
15574.2
15720.3
15866.2
16011.9
16157.1
16301.8
16445.7
16589
16731.4
16872.9
17013.4
17152.8
17291
17427.9
17563.4
17697.4
17829.8
17960.4
18089.2
18216
18340.8
18463.5
18584
18702.3
18818.3
18932.1
19043.6
19152.7
19259.5
19363.9
19465.9
19565.4
19662.5
19757
19849
19938.3
20025.1
20109.2
20190.6
20269.4
20345.6
20419.2
20490.2
20558.7
20624.7
20688.3
20749.5
20808.4
20864.9
20919.1
20971
21020.5
21067.8
21112.8
21155.4
21195.8
21234
21270.1
21304.2
21336.3
21366.7
21395.3
21422.2
21447.6
21471.4
21493.6
21514.3
21533.5
21551.2
21567.6
21582.8
21596.8
21609.8
21621.8
21632.8
21642.9
21652
21660.2
21667.6
21674.2
21680.1
21685.5
21690.2
21694.5
21698.2
21701.4
21704
21706.2
21708
21709.5
21710.7
21711.7
21712.3
21712.8
21712.9
21712.9
21712.6
21712.4
21711.7
21711.1
21710.2
21709.1
21708.3
21706.5
21705.9
21703
21701.7
21695.8
21686.3
9636.96
9753.35
9872.1
9993.11
10116.3
10241.5
10368.7
10497.8
10628.6
10761.1
10895.1
11030.7
11167.6
11305.9
11445.5
11586.3
11728.2
11871.2
12015
12159.8
12305.3
12451.5
12598.2
12745.3
12892.5
13039.8
13187
13334.2
13481
13627.2
13773
13918.1
14062.5
14206
14348.7
14490.3
14630.8
14770.1
14908.1
15044.7
15179.8
15313.3
15445
15574.8
15702.7
15828.5
15952.2
16073.7
16193
16310.1
16424.8
16537.3
16647.4
16755.2
16860.5
16963.5
17064
17162
17257.5
17350.4
17440.7
17528.4
17613.4
17695.7
17775.4
17852.5
17926.9
17998.8
18068.2
18135.1
18199.6
18261.6
18321.4
18378.8
18433.9
18486.6
18537.1
18585.3
18631.1
18674.6
18715.9
18754.9
18791.8
18826.7
18859.7
18890.9
18920.3
18948.2
18974.4
18999.1
19022.2
19043.7
19063.8
19082.4
19099.6
19115.6
19130.5
19144.4
19157.3
19169.2
19180.2
19190.2
19199.4
19207.6
19215.1
19221.9
19228.1
19233.8
19239
19243.7
19247.8
19251.3
19254.5
19257.2
19259.6
19261.7
19263.6
19265.2
19266.6
19267.6
19268.6
19269.3
19270
19270.3
19270.6
19270.7
19270.5
19270.7
19269.9
19270.4
19268.6
19268.8
19263.6
19254.7
6943.13
7060.15
7179.53
7301.21
7425.07
7550.98
7678.83
7808.61
7940.17
8073.36
8208.12
8344.34
8481.97
8620.95
8761.23
8902.69
9045.27
9188.88
9333.44
9478.87
9625.08
9771.98
9919.42
10067.2
10215.2
10363.2
10511.1
10659
10806.5
10953.4
11099.9
11245.6
11390.6
11534.8
11678.1
11820.3
11961.4
12101.4
12240
12377.2
12513
12647.1
12779.4
12909.8
13038.3
13164.7
13288.9
13411
13530.8
13648.3
13763.6
13876.6
13987.2
14095.4
14201.3
14304.7
14405.7
14504.2
14600.2
14693.5
14784.3
14872.4
14957.9
15040.6
15120.7
15198.2
15273
15345.3
15415.1
15482.4
15547.2
15609.7
15669.8
15727.6
15783.1
15836.3
15887.2
15935.7
15981.9
16025.8
16067.4
16106.8
16144.1
16179.3
16212.6
16244.2
16274
16302.2
16328.8
16353.9
16377.4
16399.3
16419.7
16438.7
16456.3
16472.7
16487.9
16502.2
16515.5
16527.9
16539.3
16549.7
16559.2
16567.9
16575.8
16583
16589.6
16595.8
16601.4
16606.5
16611
16615
16618.6
16621.7
16624.6
16627.1
16629.5
16631.6
16633.4
16634.9
16636.4
16637.5
16638.7
16639.5
16640.2
16640.8
16641.1
16641.8
16641.5
16642.6
16641.4
16642.7
16637.9
16628.9
4118.4
4235.51
4355.07
4476.95
4601.02
4727.16
4855.2
4985.11
5116.9
5250.31
5385.29
5521.75
5659.61
5798.84
5939.35
6081.07
6223.88
6367.71
6512.51
6658.18
6804.64
6951.82
7099.55
7247.65
7395.93
7544.16
7692.37
7840.49
7988.27
8135.55
8282.2
8428.16
8573.38
8717.75
8861.2
9003.63
9144.94
9285.05
9423.86
9561.27
9697.18
9831.44
9963.91
10094.5
10223.1
10349.6
10473.9
10596
10715.9
10833.5
10948.8
11061.8
11172.4
11280.6
11386.5
11489.9
11590.9
11689.4
11785.4
11878.7
11969.5
12057.5
12142.9
12225.6
12305.6
12383
12457.7
12529.9
12599.5
12666.7
12731.4
12793.8
12853.8
12911.5
12966.9
13020
13070.8
13119.3
13165.4
13209.2
13250.7
13289.9
13327
13362
13395.2
13426.6
13456.2
13484.3
13510.9
13535.8
13559.3
13581.1
13601.4
13620.2
13637.7
13653.9
13669
13683.2
13696.4
13708.7
13720.1
13730.5
13739.9
13748.5
13756.2
13763.4
13770
13776.1
13781.6
13786.7
13791.2
13795.2
13798.7
13801.7
13804.5
13807.1
13809.4
13811.4
13813.3
13814.8
13816.2
13817.3
13818.4
13819.2
13820
13820.5
13820.8
13821.5
13821.2
13822.7
13821.7
13824
13818.5
13809.2
1595
1685.28
1780.63
1879.87
1982.1
2087.19
2195.09
2305.63
2418.91
2534.89
2653.53
2774.82
2898.77
3025.37
3154.66
3286.6
3421.17
3558.31
3698
3840.17
3984.67
4131.36
4279.4
4427.79
4576.36
4724.82
4873.21
5021.61
5169.67
5317.21
5464.07
5610.25
5755.67
5900.25
6043.88
6186.5
6327.99
6468.28
6607.28
6744.88
6880.97
7015.4
7148.03
7278.8
7407.5
7534.05
7658.43
7780.58
7900.48
8018.11
8133.44
8246.44
8357.09
8465.36
8571.23
8674.67
8775.68
8874.19
8970.15
9063.51
9154.23
9242.27
9327.62
9410.27
9490.22
9567.5
9642.15
9714.23
9783.77
9850.83
9915.47
9977.74
10037.7
10095.3
10150.7
10203.7
10254.4
10302.8
10348.9
10392.6
10433.9
10473
10509.9
10544.8
10577.8
10609
10638.6
10666.5
10693
10717.9
10741.2
10762.9
10783.1
10801.8
10819.1
10835.2
10850.2
10864.3
10877.4
10889.7
10901
10911.3
10920.6
10929.1
10936.8
10943.8
10950.3
10956.4
10961.9
10966.9
10971.4
10975.3
10978.7
10981.7
10984.5
10987
10989.3
10991.3
10993.2
10994.6
10996
10997.1
10998.2
10999
10999.7
11000.3
11000.6
11001.3
11001
11002.6
11001.7
11005
10999.1
10989.5
255.516
288.346
325.221
365.107
407.208
451.54
498.171
547.181
598.682
652.817
709.759
769.711
832.908
899.621
970.185
1044.97
1124.37
1208.83
1298.8
1394.75
1497.08
1606.21
1721.74
1841.61
1963.69
2087.36
2212.46
2339.07
2467.01
2596.04
2726.06
2857.02
2988.9
3121.63
3255.11
3389.26
3523.96
3659.1
3794.52
3930.05
4065.4
4199.99
4332.77
4463.53
4592.4
4719.12
4843.69
4966.01
5086.03
5203.72
5319.1
5432.14
5542.82
5651.12
5757
5860.46
5961.49
6060.03
6156.01
6249.38
6340.1
6428.13
6513.44
6596.03
6675.89
6753.06
6827.58
6899.52
6968.91
7035.83
7100.32
7162.46
7222.28
7279.8
7335.04
7387.99
7438.63
7486.94
7532.87
7576.43
7617.62
7656.53
7693.26
7727.95
7760.74
7791.78
7821.18
7849.03
7875.36
7900.16
7923.4
7945.03
7965.06
7983.57
8000.71
8016.63
8031.51
8045.47
8058.55
8070.75
8081.99
8092.23
8101.46
8109.79
8117.35
8124.29
8130.73
8136.73
8142.26
8147.26
8151.67
8155.51
8158.86
8161.79
8164.48
8166.93
8169.26
8171.25
8173.05
8174.44
8175.84
8176.9
8178.04
8178.8
8179.51
8180.02
8180.33
8181.07
8180.81
8182.62
8182.24
8187.2
8180.41
8169.88
15.9623
17.2645
18.7942
20.6017
22.7414
25.276
28.2856
31.8576
36.0939
41.1273
47.1133
54.2234
62.6752
72.7271
84.6702
98.8351
115.618
135.474
158.904
186.434
218.58
255.934
298.963
346.531
396.618
448.798
503.091
559.607
618.368
679.385
742.8
808.803
877.594
949.374
1024.36
1102.77
1184.85
1270.82
1360.9
1455.24
1553.9
1656.5
1761.81
1867.95
1973.82
2079.17
2183.85
2287.72
2390.68
2492.63
2593.52
2693.31
2791.95
2889.4
2985.58
3080.44
3173.96
3265.96
3356.37
3445.1
3532.07
3617.16
3700.29
3781.39
3860.42
3937.31
4011.76
4083.62
4152.95
4219.79
4284.22
4346.3
4406.07
4463.56
4518.76
4571.67
4622.27
4670.53
4716.39
4759.85
4800.92
4839.69
4876.25
4910.77
4943.4
4974.29
5003.56
5031.3
5057.55
5082.29
5105.46
5126.99
5146.9
5165.25
5182.22
5197.99
5212.74
5226.6
5239.62
5251.77
5262.97
5273.14
5282.28
5290.48
5297.92
5304.76
5311.13
5317.09
5322.6
5327.58
5331.94
5335.71
5338.98
5341.83
5344.47
5346.88
5349.2
5351.17
5352.96
5354.3
5355.67
5356.71
5357.86
5358.6
5359.29
5359.77
5360.07
5360.8
5360.53
5362.44
5362.12
5368.29
5361.18
5350.76
3.87267
3.91796
3.96688
4.02439
4.09345
4.17561
4.27505
4.39279
4.52722
4.68149
4.85975
5.06397
5.30014
5.58333
5.92915
6.3456
6.84677
7.45248
8.18613
9.07328
10.1236
11.4688
13.1495
15.1324
17.5218
20.391
23.828
27.9507
32.8766
38.7387
45.7082
53.9913
63.8272
75.4482
89.1018
105.08
123.694
145.278
170.171
198.692
231.117
267.63
307.93
350.352
393.677
437.756
482.518
527.916
573.916
620.5
667.655
715.379
763.679
812.57
862.055
912.127
962.617
1013.57
1064.95
1116.71
1168.78
1221.09
1273.55
1326.11
1378.67
1431.14
1483.11
1534.36
1584.9
1634.71
1683.54
1731.07
1777.28
1822.14
1865.63
1907.64
1947.94
1986.45
2023.14
2057.98
2090.96
2122.14
2151.61
2179.46
2205.83
2230.84
2254.6
2277.15
2298.51
2318.68
2337.6
2355.22
2371.49
2386.49
2400.34
2413.22
2425.27
2436.61
2447.29
2457.29
2466.51
2474.87
2482.35
2489.02
2495.03
2500.54
2505.71
2510.57
2515.1
2519.18
2522.72
2525.72
2528.28
2530.5
2532.54
2534.42
2536.26
2537.77
2539.06
2539.98
2540.81
2541.54
2542.13
2542.67
2542.77
2543.22
2542.81
2543.75
2542.86
2545.55
2545.14
2552.54
2544.64
2532.84
0.113618
0.108846
0.101264
0.0937228
0.087465
0.0824712
0.0796015
0.0770469
0.0713256
0.0616415
0.0473995
0.027366
0.00224875
-0.0219576
-0.0416817
-0.0584402
-0.0728248
-0.0851464
-0.0957151
-0.105937
-0.123623
-0.103114
-0.0475099
0.00326814
0.0613739
0.129857
0.211706
0.312739
0.43037
0.560254
0.703449
0.866352
1.06543
1.31238
1.61006
1.96682
2.39376
2.90283
3.50902
4.22987
5.08536
6.09868
7.29564
8.70585
10.3578
12.2808
14.5089
17.0787
20.0292
23.4003
27.2346
31.5762
36.4749
41.988
48.1713
55.0575
62.6378
70.8771
79.8166
89.5192
99.9923
111.236
123.242
135.996
149.48
163.675
178.543
194.043
210.125
226.733
243.566
260.266
276.789
293.102
309.174
324.903
340.064
354.619
368.544
381.826
394.456
406.446
417.823
428.613
438.847
448.572
457.83
466.63
474.986
482.909
490.377
497.353
503.814
509.771
515.268