/*--------------------------------*- C++ -*----------------------------------*\
| =========                 |                                                 |
| \\      /  F ield         | OpenFOAM: The Open Source CFD Toolbox           |
|  \\    /   O peration     | Version:  v1912                                 |
|   \\  /    A nd           | Website:  www.openfoam.com                      |
|    \\/     M anipulation  |                                                 |
\*---------------------------------------------------------------------------*/
FoamFile
{
    version     2.0;
    format      ascii;
    class       surfaceScalarField;
    location    "90";
    object      phi;
}
// * * * * * * * * * * * * * * * * * * * * * * * * * * * * * * * * * * * * * //

dimensions      [0 3 -1 0 0 0 0];
oriented        oriented;


internalField   nonuniform List<scalar> 
28285
(
0.001016
-2.1141e-05
0.00106287
-4.68716e-05
0.00112775
-6.48838e-05
0.00121436
-8.66049e-05
0.00131245
-9.80916e-05
0.00136462
-5.21683e-05
0.00136751
-2.8874e-06
0.00132876
3.8749e-05
0.00127453
5.42247e-05
0.0012757
-1.17067e-06
0.0013221
-4.63971e-05
0.00139329
-7.11936e-05
0.00146674
-7.34461e-05
0.0014967
-2.99564e-05
0.00135956
0.000137133
0.00104007
0.000319498
0.00072775
0.000312315
0.000620038
0.000107713
0.000615416
4.62212e-06
0.000647364
-3.19478e-05
0.000689117
-4.17533e-05
0.000726335
-3.72185e-05
0.000768168
-4.18322e-05
0.000779819
-1.16514e-05
0.000707323
7.24956e-05
0.000625594
8.17289e-05
0.000627564
-1.96986e-06
0.000680484
-5.29193e-05
0.000754252
-7.37682e-05
0.00079736
-4.31081e-05
0.000785625
1.17352e-05
0.000742555
4.30701e-05
0.000726331
1.62235e-05
0.000745312
-1.89806e-05
0.000754711
-9.39972e-06
0.000738296
1.64148e-05
0.000712212
2.60843e-05
0.000723722
-1.15097e-05
0.000792877
-6.9155e-05
0.000907832
-0.000114956
0.00105589
-0.000148053
0.00116916
-0.000113277
0.00119361
-2.44435e-05
0.00116559
2.80114e-05
0.0011274
3.81989e-05
0.00107371
5.36888e-05
0.00100393
6.97734e-05
0.000944526
5.94076e-05
0.000901018
4.35073e-05
0.000849045
5.19737e-05
0.000796915
5.21298e-05
0.00075069
4.62243e-05
0.000712992
3.76987e-05
0.000680806
3.21853e-05
0.000652197
2.86091e-05
0.000626094
2.61029e-05
0.000601849
2.42457e-05
0.000579061
2.27876e-05
0.000557479
2.15824e-05
0.000536932
2.05469e-05
0.0005173
1.9632e-05
0.000498492
1.88076e-05
0.000480438
1.80542e-05
0.000463079
1.73587e-05
0.000446368
1.67117e-05
0.000430263
1.61044e-05
0.000414733
1.55302e-05
0.000399748
1.49847e-05
0.000385283
1.44654e-05
0.000371313
1.39699e-05
0.000357817
1.34955e-05
0.000344778
1.30399e-05
0.000332176
1.26017e-05
0.000319995
1.21805e-05
0.000308219
1.17759e-05
0.000296833
1.13865e-05
0.000285824
1.10089e-05
0.000275184
1.06405e-05
0.000264896
1.02871e-05
0.000254952
9.94437e-06
0.000245339
9.61273e-06
0.000236048
9.29164e-06
0.000227067
8.98032e-06
0.000218389
8.6782e-06
0.000210004
8.38493e-06
0.000201904
8.10035e-06
0.00019408
7.82437e-06
0.000186523
7.55681e-06
0.000179225
7.29746e-06
0.000172179
7.04601e-06
0.000165377
6.80221e-06
0.000158811
6.56578e-06
0.000152475
6.33644e-06
0.000146361
6.11381e-06
0.000140463
5.8981e-06
0.000134774
5.68875e-06
0.000129288
5.48573e-06
0.000124
5.28871e-06
0.000118902
5.09773e-06
0.00011399
4.91241e-06
0.000109257
4.73287e-06
0.000104698
4.55866e-06
0.000100308
4.38999e-06
9.60818e-05
4.22636e-06
9.20137e-05
4.06803e-06
8.80993e-05
3.91448e-06
8.43332e-05
3.76599e-06
8.07112e-05
3.62207e-06
7.72282e-05
3.48291e-06
7.38801e-05
3.34821e-06
7.06621e-05
3.21789e-06
6.75702e-05
3.092e-06
6.46001e-05
2.97006e-06
6.17476e-05
2.85259e-06
5.90089e-05
2.73859e-06
5.63798e-05
2.62917e-06
5.3857e-05
2.5227e-06
5.14362e-05
2.42088e-06
4.91146e-05
2.32161e-06
4.68876e-05
2.22694e-06
4.47531e-05
2.13459e-06
4.27064e-05
2.04656e-06
4.07457e-05
1.96084e-06
3.88665e-05
1.87896e-06
3.70672e-05
1.79966e-06
3.53434e-05
1.72345e-06
3.36935e-05
1.65026e-06
3.21138e-05
1.57935e-06
3.06022e-05
1.51189e-06
2.91559e-05
1.44603e-06
2.77723e-05
1.38384e-06
2.64493e-05
1.32285e-06
2.51839e-05
1.26543e-06
2.39748e-05
1.20919e-06
2.28186e-05
1.15606e-06
2.17144e-05
1.10439e-06
2.06589e-05
1.05519e-06
1.96514e-05
1.00782e-06
1.86888e-05
9.62311e-07
1.77702e-05
9.18887e-07
1.68931e-05
8.76908e-07
1.60562e-05
8.37047e-07
1.52576e-05
7.98456e-07
1.44958e-05
7.61838e-07
1.37693e-05
7.26544e-07
1.30762e-05
6.93108e-07
1.2415e-05
6.61218e-07
1.17832e-05
6.31746e-07
1.11806e-05
6.02561e-07
5.61847e-07
1.06188e-05
0.00102359
-4.27279e-05
0.00106621
-8.94976e-05
0.00113031
-0.000128976
0.00121835
-0.000174651
0.00131583
-0.000195573
0.00140184
-0.000138175
0.00146369
-6.4734e-05
0.00146183
4.06024e-05
0.00138237
0.000133692
0.00133526
4.59386e-05
0.00135753
-6.86741e-05
0.00139737
-0.000111032
0.00147101
-0.000147082
0.00151192
-7.08727e-05
0.00138429
0.000264766
0.00110298
0.000600808
0.000879657
0.000535639
0.000805377
0.000181992
0.000756417
5.35819e-05
0.000731538
-7.06825e-06
0.000728312
-3.85278e-05
0.000733405
-4.23113e-05
0.000758006
-6.64336e-05
0.000773923
-2.7568e-05
0.000746239
0.000100179
0.000705044
0.000122924
0.000702868
2.06693e-07
0.000731684
-8.1736e-05
0.000786536
-0.00012862
0.000840092
-9.66636e-05
0.000856771
-4.94413e-06
0.000841348
5.84935e-05
0.000833376
2.4195e-05
0.000834002
-1.96062e-05
0.000822146
2.45612e-06
0.000786805
5.17554e-05
0.000746548
6.63416e-05
0.000747132
-1.20933e-05
0.000798561
-0.000120584
0.000894476
-0.000210871
0.00102395
-0.000277524
0.00111901
-0.000208337
0.00113893
-4.43659e-05
0.00112315
4.37921e-05
0.00109878
6.2565e-05
0.00106171
9.07573e-05
0.00100027
0.000131222
0.00093388
0.000125793
0.000884665
9.27214e-05
0.000835319
0.00010132
0.000789349
9.80996e-05
0.000747929
8.7645e-05
0.000711906
7.37218e-05
0.000680206
6.3885e-05
0.000651722
5.70931e-05
0.00062565
5.21752e-05
0.000601412
4.84836e-05
0.000578627
4.55723e-05
0.000557047
4.31625e-05
0.000536503
4.10911e-05
0.000516874
3.92605e-05
0.000498071
3.76109e-05
0.000480022
3.61033e-05
0.000462669
3.47119e-05
0.000445963
3.34173e-05
0.000429865
3.22023e-05
0.000414342
3.10535e-05
0.000399364
2.99622e-05
0.000384907
2.89233e-05
0.000370944
2.7932e-05
0.000357457
2.69831e-05
0.000344425
2.60717e-05
0.000331831
2.51952e-05
0.000319659
2.43528e-05
0.000307891
2.35436e-05
0.000296513
2.27648e-05
0.000285513
2.20095e-05
0.000274881
2.12725e-05
0.000264602
2.05659e-05
0.000254666
1.98806e-05
0.000245061
1.92174e-05
0.000235777
1.85753e-05
0.000226805
1.79527e-05
0.000218135
1.73486e-05
0.000209757
1.67621e-05
0.000201665
1.61931e-05
0.000193848
1.56413e-05
0.000186298
1.51063e-05
0.000179008
1.45877e-05
0.000171969
1.40849e-05
0.000165174
1.35975e-05
0.000158615
1.31248e-05
0.000152285
1.26662e-05
0.000146178
1.22211e-05
0.000140286
1.17898e-05
0.000134603
1.13713e-05
0.000129124
1.09654e-05
0.000123841
1.05716e-05
0.000118749
1.01897e-05
0.000113842
9.81927e-06
0.000109115
9.46025e-06
0.000104561
9.11208e-06
0.000100176
8.77478e-06
9.5955e-05
8.44778e-06
9.18918e-05
8.13115e-06
8.79821e-05
7.82432e-06
8.42206e-05
7.52736e-06
8.0603e-05
7.23977e-06
7.71243e-05
6.96151e-06
7.37803e-05
6.69227e-06
7.05664e-05
6.43179e-06
6.74783e-05
6.18006e-06
6.45119e-05
5.93646e-06
6.16631e-05
5.70143e-06
5.89279e-05
5.47386e-06
5.63022e-05
5.25473e-06
5.37826e-05
5.0424e-06
5.1365e-05
4.83834e-06
4.90464e-05
4.6405e-06
4.68223e-05
4.45066e-06
4.46906e-05
4.26667e-06
4.26466e-05
4.09015e-06
4.06886e-05
3.91929e-06
3.88119e-05
3.75527e-06
3.70149e-05
3.59697e-06
3.52934e-05
3.4446e-06
3.36458e-05
3.29818e-06
3.20682e-05
3.15676e-06
3.05587e-05
3.02147e-06
2.91144e-05
2.89039e-06
2.77326e-05
2.76545e-06
2.64115e-05
2.64422e-06
2.51478e-05
2.52881e-06
2.39403e-05
2.41697e-06
2.27857e-05
2.31032e-06
2.16831e-05
2.20738e-06
2.06291e-05
2.10885e-06
1.9623e-05
2.01424e-06
1.86617e-05
1.92332e-06
1.77444e-05
1.83641e-06
1.68685e-05
1.75268e-06
1.60328e-05
1.67282e-06
1.52353e-05
1.59587e-06
1.44747e-05
1.52253e-06
1.37491e-05
1.45211e-06
1.3057e-05
1.38521e-06
1.23967e-05
1.3215e-06
1.17658e-05
1.26264e-06
1.11642e-05
1.20417e-06
1.12303e-06
1.0603e-05
0.00104261
-6.87002e-05
0.00108717
-0.000134053
0.00114839
-0.000190202
0.00122652
-0.000252781
0.00131827
-0.000287322
0.00139162
-0.000211525
0.00143292
-0.000106032
0.00143176
4.17565e-05
0.00137387
0.000191582
0.00133453
8.52809e-05
0.00135993
-9.40671e-05
0.00141387
-0.000164973
0.00148825
-0.000221465
0.00153234
-0.000114964
0.00144477
0.000352337
0.00123654
0.000809042
0.00106307
0.0007091
0.000939735
0.000305332
0.000797684
0.000195633
0.00072011
7.05066e-05
0.000717791
-3.62088e-05
0.000737519
-6.20393e-05
0.000770038
-9.89528e-05
0.000785286
-4.28164e-05
0.000764742
0.000120724
0.000719547
0.000168119
0.000698168
2.15856e-05
0.000721772
-0.00010534
0.000773238
-0.000180086
0.000819439
-0.000142865
0.000832483
-1.79874e-05
0.000823546
6.74302e-05
0.000815134
3.26068e-05
0.000809775
-1.42469e-05
0.000794984
1.72469e-05
0.000759455
8.72847e-05
0.000726534
9.92619e-05
0.000739686
-2.52452e-05
0.000803551
-0.000184449
0.000911142
-0.000318462
0.00105052
-0.000416903
0.00115304
-0.000310851
0.00117375
-6.50793e-05
0.00115314
6.44006e-05
0.00112016
9.55433e-05
0.00107302
0.000137899
0.00100758
0.000196662
0.000937776
0.000195597
0.000882904
0.000147594
0.000831071
0.000153153
0.00078487
0.000144301
0.000745608
0.000126907
0.000710748
0.000108581
0.000679523
9.51107e-05
0.000651195
8.54208e-05
0.000625174
7.81964e-05
0.000600957
7.27e-05
0.000578187
6.83425e-05
0.00055662
6.47295e-05
0.000536089
6.16223e-05
0.000516473
5.88762e-05
0.000497682
5.64018e-05
0.000479645
5.41402e-05
0.000462304
5.2053e-05
0.000445611
5.0111e-05
0.000429524
4.82886e-05
0.000414012
4.65654e-05
0.000399046
4.49286e-05
0.000384599
4.33704e-05
0.000370647
4.18836e-05
0.00035717
4.04605e-05
0.000344148
3.90935e-05
0.000331564
3.7779e-05
0.000319401
3.65157e-05
0.000307643
3.53021e-05
0.000296273
3.41341e-05
0.000285282
3.30014e-05
0.000274658
3.18964e-05
0.000264387
3.08367e-05
0.000254459
2.98089e-05
0.000244862
2.88143e-05
0.000235585
2.78515e-05
0.00022662
2.69179e-05
0.000217957
2.6012e-05
0.000209586
2.51326e-05
0.0002015
2.42794e-05
0.000193689
2.34519e-05
0.000186146
2.26497e-05
0.000178862
2.18721e-05
0.000171828
2.11182e-05
0.000165039
2.03873e-05
0.000158485
1.96785e-05
0.00015216
1.89909e-05
0.000146058
1.83235e-05
0.000140171
1.76768e-05
0.000134493
1.70493e-05
0.000129018
1.64406e-05
0.000123739
1.58501e-05
0.000118651
1.52775e-05
0.000113748
1.47222e-05
0.000109025
1.41838e-05
0.000104475
1.36618e-05
0.000100094
1.3156e-05
9.58759e-05
1.26658e-05
9.1816e-05
1.2191e-05
8.79094e-05
1.1731e-05
8.4151e-05
1.12857e-05
8.05364e-05
1.08545e-05
7.70605e-05
1.04373e-05
7.37192e-05
1.00336e-05
7.05079e-05
9.64307e-06
6.74224e-05
9.2656e-06
6.44584e-05
8.90044e-06
6.16118e-05
8.54794e-06
5.88789e-05
8.20691e-06
5.62553e-05
7.87816e-06
5.37379e-05
7.56005e-06
5.13221e-05
7.25382e-06
4.90054e-05
6.9575e-06
4.67832e-05
6.67256e-06
4.46532e-05
6.39701e-06
4.26109e-05
6.13207e-06
4.06545e-05
5.87614e-06
3.87793e-05
5.63004e-06
3.69838e-05
5.39281e-06
3.52638e-05
5.16435e-06
3.36175e-05
4.94475e-06
3.20412e-05
4.73287e-06
3.05329e-05
4.52981e-06
2.90898e-05
4.33358e-06
2.77092e-05
4.14593e-06
2.63891e-05
3.96451e-06
2.51265e-05
3.79115e-06
2.392e-05
3.62376e-06
2.27663e-05
3.46363e-06
2.16646e-05
3.30946e-06
2.06115e-05
3.16165e-06
1.96062e-05
3.01983e-06
1.86457e-05
2.88354e-06
1.77291e-05
2.75318e-06
1.6854e-05
2.62773e-06
1.6019e-05
2.50791e-06
1.52222e-05
2.39263e-06
1.44621e-05
2.2826e-06
1.37371e-05
2.17707e-06
1.30456e-05
2.07674e-06
1.23859e-05
1.98124e-06
1.17555e-05
1.89301e-06
1.11544e-05
1.80526e-06
1.68373e-06
1.05937e-05
0.00100573
-8.61003e-05
0.00104505
-0.000173368
0.00111278
-0.000257936
0.00121143
-0.00035143
0.00132348
-0.000399372
0.00140938
-0.000297423
0.00145689
-0.000153545
0.00146223
3.6415e-05
0.00141214
0.000241676
0.00135256
0.00014486
0.00134869
-9.01984e-05
0.00139062
-0.0002069
0.00146501
-0.000295856
0.00154388
-0.000193839
0.00153022
0.000366
0.00140744
0.000931817
0.00122868
0.000887868
0.00101881
0.000515195
0.000827081
0.000387365
0.000739363
0.000158225
0.000724368
-2.12138e-05
0.000730188
-6.78596e-05
0.000753596
-0.00012236
0.000769603
-5.88234e-05
0.000753181
0.000137145
0.000717387
0.000203913
0.000705053
3.39197e-05
0.000730337
-0.000130624
0.000781559
-0.000231308
0.000830694
-0.000192001
0.000844513
-3.18057e-05
0.000830945
8.09976e-05
0.000816263
4.72896e-05
0.000808979
-6.96295e-06
0.00080093
2.52954e-05
0.000775104
0.000113111
0.000743263
0.000131103
0.000747239
-2.92211e-05
0.000800418
-0.000237628
0.000897947
-0.000415991
0.00102742
-0.000546376
0.00112109
-0.000404518
0.00114087
-8.48614e-05
0.00112684
7.84279e-05
0.00110222
0.000120163
0.00106372
0.000176405
0.00100393
0.000256452
0.000934327
0.000265196
0.000876247
0.000205673
0.000826328
0.000203072
0.000781887
0.000188741
0.000743859
0.000164936
0.000709769
0.000142671
0.000678889
0.00012599
0.000650701
0.000113609
0.000624738
0.00010416
0.000600552
9.68858e-05
0.000577804
9.1091e-05
0.000556255
8.6278e-05
0.000535741
8.21367e-05
0.000516141
7.84762e-05
0.000497365
7.51776e-05
0.000479342
7.2163e-05
0.000462015
6.93807e-05
0.000445334
6.67921e-05
0.000429259
6.43628e-05
0.000413759
6.20658e-05
0.000398803
5.9884e-05
0.000384367
5.7807e-05
0.000370425
5.58253e-05
0.000356957
5.39284e-05
0.000343945
5.21063e-05
0.000331369
5.03541e-05
0.000319215
4.86703e-05
0.000307464
4.70527e-05
0.000296102
4.54959e-05
0.000285118
4.39861e-05
0.000274501
4.25133e-05
0.000264237
4.11008e-05
0.000254315
3.97309e-05
0.000244724
3.84053e-05
0.000235453
3.71219e-05
0.000226494
3.58776e-05
0.000217836
3.46701e-05
0.00020947
3.3498e-05
0.000201389
3.23607e-05
0.000193583
3.12578e-05
0.000186044
3.01886e-05
0.000178764
2.91522e-05
0.000171735
2.81474e-05
0.000164949
2.71731e-05
0.000158399
2.62284e-05
0.000152078
2.53119e-05
0.000145979
2.44225e-05
0.000140095
2.35605e-05
0.000134421
2.27241e-05
0.000128948
2.19128e-05
0.000123673
2.11258e-05
0.000118588
2.03625e-05
0.000113688
1.96223e-05
0.000108967
1.89048e-05
0.000104419
1.8209e-05
0.000100041
1.75349e-05
9.5825e-05
1.68815e-05
9.17672e-05
1.62486e-05
8.78628e-05
1.56355e-05
8.41064e-05
1.5042e-05
8.04937e-05
1.44673e-05
7.70197e-05
1.39112e-05
7.36802e-05
1.33732e-05
7.04705e-05
1.28526e-05
6.73867e-05
1.23495e-05
6.44242e-05
1.18629e-05
6.15792e-05
1.1393e-05
5.88476e-05
1.09385e-05
5.62255e-05
1.05002e-05
5.37093e-05
1.00764e-05
5.12949e-05
9.66804e-06
4.89794e-05
9.27328e-06
4.67583e-05
8.8933e-06
4.46295e-05
8.52624e-06
4.25882e-05
8.17293e-06
4.06328e-05
7.83198e-06
3.87586e-05
7.50385e-06
3.6964e-05
7.18772e-06
3.52448e-05
6.88321e-06
3.35994e-05
6.59046e-06
3.20239e-05
6.30817e-06
3.05164e-05
6.03737e-06
2.9074e-05
5.77601e-06
2.76941e-05
5.52569e-06
2.63747e-05
5.28411e-06
2.51128e-05
5.05284e-06
2.39069e-05
4.82992e-06
2.27539e-05
4.61635e-06
2.16527e-05
4.41097e-06
2.06001e-05
4.2139e-06
1.95953e-05
4.0249e-06
1.86354e-05
3.84327e-06
1.77193e-05
3.66947e-06
1.68445e-05
3.50232e-06
1.601e-05
3.34256e-06
1.52136e-05
3.18897e-06
1.44539e-05
3.04227e-06
1.37293e-05
2.90166e-06
1.30381e-05
2.76792e-06
1.23788e-05
2.64064e-06
1.17487e-05
2.52306e-06
1.11479e-05
2.40603e-06
2.24411e-06
1.05875e-05
0.00102551
-0.000117128
0.00107738
-0.000225233
0.00114521
-0.000325763
0.00122681
-0.000433032
0.00131475
-0.00048732
0.00138772
-0.000370383
0.00144314
-0.000208971
0.00147809
1.46523e-06
0.00147404
0.000245723
0.00143256
0.000186348
0.00141096
-6.86005e-05
0.00143454
-0.00023048
0.00149794
-0.00035926
0.00157483
-0.000270732
0.00158301
0.000357826
0.00150188
0.00101294
0.00133563
0.00105412
0.00107901
0.000771811
0.000837926
0.00062845
0.00073632
0.000259831
0.000726583
-1.14768e-05
0.000743314
-8.45913e-05
0.000773876
-0.000152922
0.000787782
-7.27296e-05
0.000763603
0.000161324
0.000715515
0.000252001
0.000694589
5.4846e-05
0.00072173
-0.000157765
0.000775163
-0.000284741
0.000825601
-0.000242439
0.000841235
-4.74391e-05
0.00083015
9.20823e-05
0.000813374
6.40653e-05
0.000800731
5.68057e-06
0.000788624
3.74022e-05
0.000760645
0.00014109
0.000733366
0.000158381
0.000746474
-4.23286e-05
0.000807524
-0.000298678
0.000911607
-0.000520075
0.00104674
-0.00068151
0.00114517
-0.000502944
0.00116502
-0.000104709
0.00114746
9.59789e-05
0.0011177
0.00014993
0.00107297
0.000221134
0.0010083
0.000321126
0.00093452
0.000338971
0.000872404
0.000267789
0.000822302
0.000253174
0.000779435
0.000231608
0.000742453
0.000201918
0.000708964
0.000176161
0.000678342
0.000156612
0.000650264
0.000141687
0.000624353
0.000130071
0.000600198
0.00012104
0.000577474
0.000113816
0.000555945
0.000107806
0.000535449
0.000102633
0.000515866
9.80595e-05
0.000497105
9.39382e-05
0.000479097
9.01715e-05
0.000461782
8.66952e-05
0.000445114
8.34608e-05
0.000429051
8.04256e-05
0.000413561
7.75556e-05
0.000398616
7.48295e-05
0.000384188
7.22343e-05
0.000370255
6.97582e-05
0.000356796
6.73879e-05
0.000343791
6.51113e-05
0.000331223
6.29219e-05
0.000319075
6.08179e-05
0.000307331
5.87967e-05
0.000295976
5.68516e-05
0.000284997
5.49651e-05
0.000274386
5.31245e-05
0.000264127
5.13596e-05
0.00025421
4.96479e-05
0.000244624
4.79915e-05
0.000235358
4.63878e-05
0.000226402
4.48329e-05
0.000217748
4.33241e-05
0.000209387
4.18595e-05
0.000201309
4.04384e-05
0.000193507
3.90602e-05
0.000185971
3.77242e-05
0.000178694
3.6429e-05
0.000171668
3.51735e-05
0.000164885
3.3956e-05
0.000158338
3.27756e-05
0.00015202
3.16303e-05
0.000145923
3.05188e-05
0.000140042
2.94417e-05
0.00013437
2.83966e-05
0.0001289
2.73827e-05
0.000123626
2.63993e-05
0.000118543
2.54455e-05
0.000113645
2.45206e-05
0.000108926
2.36239e-05
0.00010438
2.27545e-05
0.000100003
2.1912e-05
9.5789e-05
2.10956e-05
9.17329e-05
2.03047e-05
8.78299e-05
1.95386e-05
8.40749e-05
1.87969e-05
8.04635e-05
1.80788e-05
7.69908e-05
1.73838e-05
7.36526e-05
1.67115e-05
7.04441e-05
1.6061e-05
6.73614e-05
1.54323e-05
6.44001e-05
1.48242e-05
6.15561e-05
1.42369e-05
5.88255e-05
1.36691e-05
5.62043e-05
1.31213e-05
5.36891e-05
1.25918e-05
5.12755e-05
1.20814e-05
4.89609e-05
1.15882e-05
4.67406e-05
1.11132e-05
4.46125e-05
1.06547e-05
4.2572e-05
1.02131e-05
4.06173e-05
9.7871e-06
3.87437e-05
9.37697e-06
3.69499e-05
8.98198e-06
3.52313e-05
8.60145e-06
3.35864e-05
8.23559e-06
3.20115e-05
7.8829e-06
3.05046e-05
7.54438e-06
2.90627e-05
7.21793e-06
2.76833e-05
6.90496e-06
2.63644e-05
6.60325e-06
2.51028e-05
6.31407e-06
2.38974e-05
6.03566e-06
2.27448e-05
5.76865e-06
2.1644e-05
5.51209e-06
2.05918e-05
5.26577e-06
1.95874e-05
5.02961e-06
1.86278e-05
4.80265e-06
1.7712e-05
4.58543e-06
1.68376e-05
4.37661e-06
1.60033e-05
4.17692e-06
1.52072e-05
3.98503e-06
1.44478e-05
3.80167e-06
1.37235e-05
3.62598e-06
1.30326e-05
3.45885e-06
1.23734e-05
3.29981e-06
1.17436e-05
3.1529e-06
1.1143e-05
3.00657e-06
2.80426e-06
1.05829e-05
0.00101792
-0.000147304
0.00106275
-0.000270065
0.00112668
-0.000389694
0.0012141
-0.00052045
0.0013201
-0.00059332
0.00141817
-0.00046846
0.00148814
-0.000278934
0.00153218
-4.25759e-05
0.00153898
0.000238922
0.00150036
0.000224969
0.00145555
-2.37946e-05
0.00144805
-0.000222979
0.00149329
-0.000404498
0.00157364
-0.000351083
0.0016001
0.000331365
0.00153395
0.0010791
0.00137495
0.00121312
0.00110292
0.00104384
0.00085045
0.000880917
0.000746307
0.000363974
0.000727973
6.85734e-06
0.000733187
-8.98051e-05
0.000754292
-0.000174026
0.000768815
-8.72528e-05
0.000752116
0.000178022
0.000713579
0.000290539
0.0007005
6.79248e-05
0.000729389
-0.000186654
0.000781422
-0.000336774
0.000830144
-0.000291161
0.000845426
-6.27218e-05
0.000833325
0.000104183
0.000814647
8.27436e-05
0.000801461
1.88663e-05
0.000791268
4.75952e-05
0.00076716
0.000165198
0.000740023
0.000185519
0.0007476
-4.99053e-05
0.000802855
-0.000353933
0.000901652
-0.000618872
0.00103023
-0.000810089
0.00112171
-0.000594425
0.00114052
-0.00012352
0.001128
0.000108497
0.00110528
0.000172656
0.00106731
0.0002591
0.00100681
0.000381626
0.000932503
0.00041328
0.000867772
0.00033252
0.000818143
0.000302803
0.000777059
0.000272692
0.000741204
0.000237773
0.000708265
0.000209099
0.000677862
0.000187015
0.000649878
0.00016967
0.000624014
0.000155935
0.000599891
0.000145164
0.00057719
0.000136517
0.000555682
0.000129314
0.000535204
0.000123111
0.000515637
0.000117627
0.000496891
0.000112684
0.000478896
0.000108167
0.000461593
0.000103998
0.000444936
0.000100119
0.000428883
9.64782e-05
0.000413403
9.30359e-05
0.000398466
8.97662e-05
0.000384047
8.66535e-05
0.000370121
8.36835e-05
0.000356669
8.08405e-05
0.00034367
7.81097e-05
0.000331109
7.54836e-05
0.000318967
7.29599e-05
0.000307228
7.05354e-05
0.000295877
6.82021e-05
0.000284903
6.5939e-05
0.000274297
6.37314e-05
0.000264042
6.16143e-05
0.000254129
5.95609e-05
0.000244546
5.75739e-05
0.000235284
5.56502e-05
0.000226332
5.3785e-05
0.000217681
5.1975e-05
0.000209323
5.0218e-05
0.000201248
4.85132e-05
0.000193448
4.68599e-05
0.000185915
4.52571e-05
0.000178641
4.37035e-05
0.000171617
4.21972e-05
0.000164836
4.07368e-05
0.000158291
3.93206e-05
0.000151975
3.79467e-05
0.00014588
3.66133e-05
0.000140001
3.53211e-05
0.00013433
3.40673e-05
0.000128862
3.2851e-05
0.00012359
3.16712e-05
0.000118509
3.0527e-05
0.000113612
2.94174e-05
0.000108894
2.83416e-05
0.00010435
2.72986e-05
9.9974e-05
2.62879e-05
9.57612e-05
2.53084e-05
9.17062e-05
2.43596e-05
8.78044e-05
2.34406e-05
8.40505e-05
2.25507e-05
8.04401e-05
2.16892e-05
7.69684e-05
2.08555e-05
7.36311e-05
2.00489e-05
7.04236e-05
1.92685e-05
6.73417e-05
1.85142e-05
6.43812e-05
1.77847e-05
6.1538e-05
1.70801e-05
5.88082e-05
1.6399e-05
5.61877e-05
1.57417e-05
5.36732e-05
1.51065e-05
5.12603e-05
1.4494e-05
4.89463e-05
1.39025e-05
4.67266e-05
1.33326e-05
4.45991e-05
1.27826e-05
4.25591e-05
1.22526e-05
4.0605e-05
1.17417e-05
3.87319e-05
1.12496e-05
3.69386e-05
1.07758e-05
3.52205e-05
1.03192e-05
3.3576e-05
9.88026e-06
3.20016e-05
9.4572e-06
3.0495e-05
9.05098e-06
2.90536e-05
8.65945e-06
2.76745e-05
8.28385e-06
2.6356e-05
7.92201e-06
2.50948e-05
7.57496e-06
2.38897e-05
7.24105e-06
2.27374e-05
6.92063e-06
2.16369e-05
6.6129e-06
2.0585e-05
6.31735e-06
1.95809e-05
6.03404e-06
1.86215e-05
5.76176e-06
1.7706e-05
5.50114e-06
1.68319e-05
5.25065e-06
1.59978e-05
5.01104e-06
1.52019e-05
4.78086e-06
1.44428e-05
4.56086e-06
1.37186e-05
4.35011e-06
1.30279e-05
4.14958e-06
1.23689e-05
3.9588e-06
1.17392e-05
3.78256e-06
1.11389e-05
3.60692e-06
3.36423e-06
1.05789e-05
0.00102444
-0.000171542
0.00107233
-0.000317958
0.0011382
-0.000455561
0.0012209
-0.000603154
0.00131623
-0.000688652
0.00139193
-0.000544161
0.00144346
-0.000330457
0.0014966
-9.57228e-05
0.00151652
0.000219003
0.00147978
0.000261717
0.00144302
1.2963e-05
0.00144232
-0.000222285
0.00148838
-0.000450551
0.00156892
-0.000431623
0.00159648
0.000303808
0.00153439
0.00114118
0.00137902
0.00136849
0.00110578
0.00131709
0.000851202
0.0011355
0.000747585
0.000467592
0.000733661
2.0781e-05
0.000744565
-0.000100709
0.000767869
-0.00019733
0.00077851
-9.78941e-05
0.000756235
0.000200297
0.000716208
0.000330566
0.000702767
8.1366e-05
0.000728504
-0.000212391
0.000776231
-0.0003845
0.000823592
-0.000338523
0.000840714
-7.98436e-05
0.000832441
0.000112457
0.000816633
9.85515e-05
0.000801298
3.42008e-05
0.000786727
6.21665e-05
0.000760367
0.000191558
0.000736851
0.000209035
0.000750868
-6.39223e-05
0.000810629
-0.000413695
0.000912258
-0.0007205
0.00104348
-0.000941311
0.00113855
-0.000689492
0.00115818
-0.000143155
0.0011431
0.000123581
0.00111596
0.000199791
0.00107295
0.000302108
0.00100912
0.000445464
0.000931962
0.000490435
0.000864761
0.000399721
0.000815205
0.000352358
0.000775381
0.000312517
0.000740265
0.000272889
0.000707673
0.000241691
0.000677442
0.000217247
0.000649535
0.000197577
0.000623715
0.000181754
0.000599621
0.000169258
0.000576944
0.000159194
0.000555456
0.000150802
0.000534995
0.000143572
0.000515443
0.000137179
0.00049671
0.000131417
0.000478727
0.00012615
0.000461435
0.000121289
0.000444788
0.000116766
0.000428744
0.000112522
0.000413272
0.000108508
0.000398343
0.000104695
0.00038393
0.000101066
0.000370011
9.76025e-05
0.000356565
9.42873e-05
0.000343572
9.11027e-05
0.000331015
8.80403e-05
0.000318878
8.50971e-05
0.000307143
8.22697e-05
0.000295797
7.95486e-05
0.000284827
7.69093e-05
0.000274223
7.43346e-05
0.000263972
7.18655e-05
0.000254062
6.94707e-05
0.000244483
6.71533e-05
0.000235223
6.49097e-05
0.000226274
6.27343e-05
0.000217626
6.06233e-05
0.00020927
5.85741e-05
0.000201197
5.65857e-05
0.0001934
5.46574e-05
0.000185869
5.2788e-05
0.000178596
5.09759e-05
0.000171574
4.92191e-05
0.000164795
4.75157e-05
0.000158252
4.58639e-05
0.000151937
4.42615e-05
0.000145844
4.27062e-05
0.000139967
4.1199e-05
0.000134297
3.97366e-05
0.00012883
3.83179e-05
0.00012356
3.69418e-05
0.000118479
3.56072e-05
0.000113584
3.4313e-05
0.000108867
3.30581e-05
0.000104324
3.18417e-05
9.99493e-05
3.06627e-05
9.57375e-05
2.95203e-05
9.16835e-05
2.84135e-05
8.77825e-05
2.73416e-05
8.40295e-05
2.63036e-05
8.042e-05
2.52988e-05
7.69491e-05
2.43263e-05
7.36126e-05
2.33855e-05
7.04058e-05
2.24753e-05
6.73246e-05
2.15954e-05
6.43648e-05
2.07445e-05
6.15223e-05
1.99226e-05
5.87931e-05
1.91282e-05
5.61733e-05
1.83614e-05
5.36593e-05
1.76206e-05
5.1247e-05
1.69062e-05
4.89335e-05
1.62163e-05
4.67144e-05
1.55514e-05
4.45874e-05
1.49099e-05
4.25479e-05
1.42917e-05
4.05942e-05
1.36958e-05
3.87216e-05
1.31218e-05
3.69286e-05
1.25691e-05
3.52109e-05
1.20366e-05
3.35669e-05
1.15245e-05
3.19928e-05
1.10311e-05
3.04866e-05
1.05572e-05
2.90455e-05
1.01006e-05
2.76668e-05
9.66241e-06
2.63485e-05
9.24047e-06
2.50877e-05
8.83555e-06
2.38829e-05
8.44617e-06
2.27308e-05
8.07235e-06
2.16306e-05
7.71345e-06
2.0579e-05
7.36868e-06
1.9575e-05
7.03823e-06
1.86159e-05
6.72064e-06
1.77006e-05
6.41663e-06
1.68267e-05
6.12447e-06
1.59928e-05
5.84495e-06
1.51972e-05
5.57651e-06
1.44382e-05
5.31986e-06
1.37142e-05
5.07405e-06
1.30236e-05
4.84015e-06
1.23648e-05
4.61762e-06
1.17353e-05
4.41208e-06
1.11351e-05
4.20711e-06
3.92403e-06
1.05753e-05
0.00102808
-0.000194432
0.0010645
-0.000354383
0.0011218
-0.000512853
0.00120796
-0.000689313
0.00131126
-0.000791953
0.00138973
-0.00062263
0.00143979
-0.00038052
0.00149372
-0.000149647
0.0015146
0.000198117
0.0014798
0.000296521
0.00144629
4.64699e-05
0.0014462
-0.000222193
0.0014912
-0.000495554
0.00156845
-0.000508877
0.00159351
0.000278752
0.00153099
0.0012037
0.00137666
0.00152282
0.00110615
0.0015876
0.000856807
0.00138484
0.000753518
0.000570881
0.000732725
4.15732e-05
0.000735865
-0.000103849
0.000753239
-0.000214704
0.000764594
-0.000109249
0.000749774
0.000215117
0.000718367
0.000361973
0.000708241
9.14916e-05
0.000732417
-0.000236566
0.000777289
-0.000429373
0.000820286
-0.00038152
0.000835019
-9.45769e-05
0.000829091
0.000118385
0.000817328
0.000110315
0.000804135
4.73929e-05
0.000790283
7.60193e-05
0.00076516
0.00021668
0.000740371
0.000233825
0.000750274
-7.38252e-05
0.000806493
-0.000469914
0.000905009
-0.000819015
0.0010315
-0.00106781
0.00112151
-0.000779493
0.00114052
-0.000162167
0.00112927
0.000134831
0.00110788
0.000221176
0.00106977
0.000340226
0.00100816
0.000507072
0.000930041
0.000568551
0.000861075
0.000468687
0.000812182
0.000401251
0.000773815
0.000350884
0.000739495
0.000307209
0.000707159
0.000274026
0.000677068
0.000247338
0.000649228
0.000225417
0.000623449
0.000207534
0.000599383
0.000193324
0.000576728
0.000181849
0.000555258
0.000172272
0.000534813
0.000164017
0.000515275
0.000156717
0.000496554
0.000150137
0.000478582
0.000144122
0.0004613
0.000138571
0.000444661
0.000133406
0.000428625
0.000128558
0.00041316
0.000123973
0.000398237
0.000119618
0.000383831
0.000115472
0.000369917
0.000111516
0.000356475
0.000107729
0.000343487
0.000104091
0.000330935
0.000100593
0.000318801
9.72304e-05
0.000307071
9.40004e-05
0.000295728
9.08917e-05
0.000284761
8.78765e-05
0.00027416
8.49347e-05
0.000263912
8.21139e-05
0.000254005
7.93779e-05
0.000244428
7.67302e-05
0.000235171
7.41668e-05
0.000226224
7.16814e-05
0.000217578
6.92694e-05
0.000209224
6.69281e-05
0.000201153
6.46563e-05
0.000193357
6.24531e-05
0.000185828
6.03172e-05
0.000178557
5.82467e-05
0.000171537
5.62394e-05
0.00016476
5.42931e-05
0.000158218
5.24058e-05
0.000151904
5.05749e-05
0.000145813
4.87978e-05
0.000139936
4.70757e-05
0.000134268
4.54047e-05
0.000128802
4.37837e-05
0.000123533
4.22113e-05
0.000118453
4.06864e-05
0.000113559
3.92076e-05
0.000108843
3.77737e-05
0.000104301
3.63838e-05
9.99271e-05
3.50367e-05
9.57162e-05
3.37313e-05
9.1663e-05
3.24667e-05
8.77629e-05
3.12418e-05
8.40106e-05
3.00558e-05
8.04019e-05
2.89077e-05
7.69317e-05
2.77964e-05
7.35958e-05
2.67214e-05
7.03897e-05
2.56813e-05
6.73092e-05
2.46759e-05
6.43499e-05
2.37037e-05
6.1508e-05
2.27645e-05
5.87794e-05
2.18568e-05
5.61601e-05
2.09806e-05
5.36466e-05
2.01342e-05
5.12348e-05
1.93178e-05
4.89218e-05
1.85296e-05
4.67031e-05
1.77697e-05
4.45766e-05
1.70369e-05
4.25375e-05
1.63304e-05
4.05842e-05
1.56495e-05
3.8712e-05
1.49935e-05
3.69194e-05
1.43621e-05
3.52021e-05
1.37536e-05
3.35584e-05
1.31685e-05
3.19846e-05
1.26047e-05
3.04788e-05
1.20632e-05
2.90379e-05
1.15415e-05
2.76595e-05
1.10407e-05
2.63416e-05
1.05586e-05
2.5081e-05
1.00959e-05
2.38765e-05
9.65102e-06
2.27247e-05
9.22381e-06
2.16247e-05
8.81376e-06
2.05733e-05
8.41979e-06
1.95696e-05
8.0422e-06
1.86107e-05
7.67932e-06
1.76956e-05
7.33191e-06
1.68218e-05
6.99811e-06
1.59881e-05
6.67869e-06
1.51926e-05
6.37197e-06
1.44338e-05
6.0787e-06
1.371e-05
5.79784e-06
1.30196e-05
5.53056e-06
1.2361e-05
5.2763e-06
1.17315e-05
5.04147e-06
1.11315e-05
4.80715e-06
4.48367e-06
1.05719e-05
0.00100422
-0.000228386
0.00105525
-0.000405415
0.00112584
-0.000583443
0.00121627
-0.000779752
0.00132164
-0.00089732
0.00141379
-0.00071478
0.00147829
-0.000445023
0.00152677
-0.000198121
0.00153675
0.000188131
0.00149888
0.000334392
0.00146082
8.45342e-05
0.00145616
-0.000217537
0.00149867
-0.000538061
0.00157188
-0.000582086
0.00159307
0.000257557
0.00152855
0.00126822
0.00137507
0.0016763
0.00110832
0.00185435
0.000860135
0.00163303
0.000756728
0.000674288
0.000739814
5.84876e-05
0.000747195
-0.000111231
0.000765745
-0.000233254
0.000774543