/*--------------------------------*- C++ -*----------------------------------*\
| =========                 |                                                 |
| \\      /  F ield         | OpenFOAM: The Open Source CFD Toolbox           |
|  \\    /   O peration     | Version:  v1912                                 |
|   \\  /    A nd           | Website:  www.openfoam.com                      |
|    \\/     M anipulation  |                                                 |
\*---------------------------------------------------------------------------*/
FoamFile
{
    version     2.0;
    format      ascii;
    class       volVectorField;
    location    "100";
    object      U;
}
// * * * * * * * * * * * * * * * * * * * * * * * * * * * * * * * * * * * * * //

dimensions      [0 1 -1 0 0 0 0];


internalField   nonuniform List<vector> 
114144
(
(0.509099 0.0447573 0)
(0.52895 0.0311921 0)
(0.557804 0.0204031 0)
(0.573818 0.0106537 0)
(0.576708 0.00109002 0)
(0.565417 -0.00821411 0)
(0.539183 -0.0172243 0)
(0.497771 -0.0257176 0)
(0.441886 -0.0333984 0)
(0.372879 -0.039909 0)
(0.292703 -0.0449587 0)
(0.203762 -0.0482905 0)
(0.107073 -0.0496896 0)
(0.0165904 -0.047791 0)
(-0.07312 -0.0464294 0)
(-0.165527 -0.04213 0)
(-0.245603 -0.0364873 0)
(-0.314807 -0.0298515 0)
(-0.37125 -0.0226765 0)
(-0.413887 -0.0153822 0)
(-0.442319 -0.00832196 0)
(-0.456845 -0.00167291 0)
(-0.458134 0.0041943 0)
(-0.447016 0.00939335 0)
(-0.424609 0.0139127 0)
(-0.392129 0.0178084 0)
(-0.350827 0.0211043 0)
(-0.301932 0.0237309 0)
(-0.246776 0.025757 0)
(-0.186842 0.0271218 0)
(-0.122415 0.0277495 0)
(-0.0572456 0.025936 0)
(-0.000669004 0.0239203 0)
(0.0550467 0.0225203 0)
(0.110423 0.0189715 0)
(0.155093 0.0148805 0)
(0.19099 0.0104434 0)
(0.217326 0.00608417 0)
(0.234365 0.00218644 0)
(0.243339 -0.000609761 0)
(0.245649 -0.0030485 0)
(0.243237 -0.00431396 0)
(0.238546 -0.00449792 0)
(0.233323 -0.00368157 0)
(0.229275 -0.00203478 0)
(0.227827 9.43345e-05 0)
(0.229436 0.00202295 0)
(0.233278 0.0032253 0)
(0.237851 0.0035801 0)
(0.241581 0.00310933 0)
(0.243101 0.00201172 0)
(0.240587 1.34443e-05 0)
(0.232645 -0.00176089 0)
(0.218473 -0.00398785 0)
(0.197287 -0.00622723 0)
(0.169063 -0.008305 0)
(0.134161 -0.0100842 0)
(0.0934129 -0.0114689 0)
(0.0475452 -0.0124238 0)
(-0.00109205 -0.0128461 0)
(-0.0516774 -0.0129275 0)
(-0.103412 -0.0124602 0)
(-0.15359 -0.0115869 0)
(-0.201035 -0.0103247 0)
(-0.244283 -0.0087486 0)
(-0.282165 -0.00705711 0)
(-0.313929 -0.00544085 0)
(-0.339191 -0.00377497 0)
(-0.357972 -0.00218098 0)
(-0.370846 -0.000788404 0)
(-0.378846 0.000275 0)
(-0.383354 0.000865746 0)
(-0.386001 0.0007908 0)
(-0.388463 8.72328e-05 0)
(-0.391992 -0.000902661 0)
(-0.397137 -0.00209516 0)
(-0.403602 -0.00321968 0)
(-0.410116 -0.00387303 0)
(-0.414642 -0.00376753 0)
(-0.415378 -0.0032018 0)
(-0.40897 -0.000141093 0)
(-0.392107 0.00273085 0)
(-0.362999 0.00608143 0)
(-0.319783 0.00971945 0)
(-0.26158 0.0133814 0)
(-0.189398 0.0167182 0)
(-0.10276 0.0195012 0)
(-0.00988882 0.0211249 0)
(0.0902304 0.0224254 0)
(0.196934 0.0220676 0)
(0.299372 0.0209145 0)
(0.397032 0.0189093 0)
(0.486139 0.0163168 0)
(0.564488 0.0133854 0)
(0.630526 0.0103697 0)
(0.68359 0.00748054 0)
(0.7237 0.00486223 0)
(0.751365 0.0025782 0)
(0.767372 0.000611215 0)
(0.772261 -0.00125474 0)
(0.766872 -0.00251544 0)
(0.751692 -0.00399607 0)
(0.726556 -0.00551263 0)
(0.691497 -0.00711562 0)
(0.646475 -0.00878923 0)
(0.591615 -0.0104674 0)
(0.527368 -0.0120429 0)
(0.454565 -0.0133992 0)
(0.374607 -0.0144019 0)
(0.288622 -0.015206 0)
(0.196809 -0.0147472 0)
(0.105688 -0.0140209 0)
(0.0236631 -0.0129339 0)
(-0.0614112 -0.012362 0)
(-0.147333 -0.0108443 0)
(-0.224248 -0.00950723 0)
(-0.296944 -0.00823815 0)
(-0.363959 -0.00722127 0)
(-0.42634 -0.00648067 0)
(-0.484533 -0.00601524 0)
(-0.539134 -0.00575969 0)
(-0.59043 -0.00561047 0)
(-0.638324 -0.00544274 0)
(-0.682261 -0.00513553 0)
(-0.721245 -0.00459353 0)
(-0.753915 -0.00376028 0)
(-0.778714 -0.00262344 0)
(-0.794042 -0.00122686 0)
(-0.798547 0.00038682 0)
(-0.790795 0.00209699 0)
(-0.770166 0.00380942 0)
(-0.736332 0.00542096 0)
(-0.689534 0.00684827 0)
(-0.630597 0.00802047 0)
(-0.56056 0.00891813 0)
(-0.481553 0.00946011 0)
(-0.394013 0.0101006 0)
(-0.299244 0.00916678 0)
(-0.203937 0.00877893 0)
(-0.1122 0.00806913 0)
(-0.024906 0.00675071 0)
(0.0633283 0.00617603 0)
(0.147806 0.00470241 0)
(0.222203 0.00335157 0)
(0.288176 0.00197495 0)
(0.344816 0.000733639 0)
(0.392254 -0.000291631 0)
(0.431343 -0.00103179 0)
(0.463119 -0.00144296 0)
(0.489108 -0.00152507 0)
(0.51084 -0.00131913 0)
(0.529786 -0.000915028 0)
(0.547075 -0.000432723 0)
(0.563332 -5.0282e-06 0)
(0.578601 0.000256697 0)
(0.592327 0.000274661 0)
(0.603497 2.55384e-05 0)
(0.610842 -0.000456068 0)
(0.612816 -0.00109967 0)
(0.608581 -0.00170969 0)
(0.597272 -0.00223093 0)
(0.57845 -0.00250116 0)
(0.552717 -0.0024613 0)
(0.51995 -0.00206152 0)
(0.482358 -0.00133127 0)
(0.441754 -0.000474203 0)
(0.399 0.000354868 0)
(0.355653 0.00100896 0)
(0.312161 0.00143346 0)
(0.268266 0.00163037 0)
(0.223551 0.00173031 0)
(0.176495 0.00193708 0)
(0.125404 0.00247693 0)
(0.0693998 0.00352548 0)
(0.00617524 0.00508792 0)
(-0.0652195 0.00700055 0)
(-0.143072 0.0091147 0)
(-0.226351 0.0110933 0)
(-0.31242 0.0126566 0)
(-0.398513 0.0136174 0)
(-0.481591 0.0138771 0)
(-0.558954 0.0135819 0)
(-0.628301 0.0128408 0)
(-0.688276 0.0115475 0)
(-0.738121 0.00987927 0)
(-0.777684 0.00797774 0)
(-0.807313 0.00602123 0)
(-0.827529 0.00408765 0)
(-0.839016 0.00225496 0)
(-0.842562 0.000490879 0)
(-0.838356 -0.000866272 0)
(-0.827442 -0.00221949 0)
(-0.810115 -0.00353564 0)
(-0.786536 -0.00482555 0)
(-0.756359 -0.00615086 0)
(-0.718996 -0.00752818 0)
(-0.673817 -0.00904526 0)
(-0.619856 -0.0107283 0)
(-0.556568 -0.0125263 0)
(-0.483345 -0.0144208 0)
(-0.40004 -0.0162973 0)
(-0.30702 -0.0180873 0)
(-0.205128 -0.0196726 0)
(-0.0956643 -0.0209779 0)
(0.0207707 -0.0219096 0)
(0.140793 -0.0224196 0)
(0.262301 -0.0224327 0)
(0.382472 -0.0219339 0)
(0.498576 -0.0209072 0)
(0.607762 -0.0193603 0)
(0.707361 -0.0173218 0)
(0.794859 -0.0148469 0)
(0.868128 -0.0119851 0)
(0.925454 -0.00882084 0)
(0.965483 -0.0054336 0)
(0.987152 -0.00191887 0)
(0.990385 0.00164794 0)
(0.975907 0.00509927 0)
(0.943233 0.00846823 0)
(0.893893 0.0115316 0)
(0.829426 0.0142323 0)
(0.751812 0.016537 0)
(0.663101 0.0184255 0)
(0.565518 0.0198702 0)
(0.46148 0.0208849 0)
(0.352782 0.0214872 0)
(0.242283 0.0216314 0)
(0.131564 0.0214477 0)
(0.022681 0.0207985 0)
(-0.0824406 0.0198726 0)
(-0.181854 0.0185567 0)
(-0.273867 0.0170764 0)
(-0.357444 0.0152937 0)
(-0.431444 0.0134276 0)
(-0.495461 0.011417 0)
(-0.548759 0.00935332 0)
(-0.591403 0.00727945 0)
(-0.623026 0.00520023 0)
(-0.643931 0.00318025 0)
(-0.654227 0.00118193 0)
(-0.654247 -0.000722819 0)
(-0.644343 -0.00253972 0)
(-0.625236 -0.00422586 0)
(-0.597566 -0.00578307 0)
(-0.561936 -0.00709296 0)
(-0.519391 -0.00811829 0)
(-0.470834 -0.00869158 0)
(-0.417497 -0.00958271 0)
(-0.358266 -0.011161 0)
(-0.294203 -0.0165356 0)
(0.487888 0.00832004 0)
(0.526791 -0.00144957 0)
(0.557929 -0.00392033 0)
(0.574956 -0.00149546 0)
(0.578275 0.00330648 0)
(0.567155 0.00993327 0)
(0.540871 0.017263 0)
(0.499265 0.0246983 0)
(0.443081 0.0317682 0)
(0.373678 0.0382301 0)
(0.293008 0.0436047 0)
(0.20352 0.0475583 0)
(0.106742 0.0500743 0)
(0.0152595 0.0536205 0)
(-0.0754721 0.0493236 0)
(-0.167886 0.0463327 0)
(-0.248341 0.0416398 0)
(-0.317784 0.0356581 0)
(-0.374338 0.0286917 0)
(-0.416957 0.0211036 0)
(-0.445226 0.0132371 0)
(-0.45955 0.0052694 0)
(-0.460595 -0.00196773 0)
(-0.449142 -0.00911004 0)
(-0.426388 -0.0157012 0)
(-0.393556 -0.0216363 0)
(-0.351924 -0.026748 0)
(-0.302664 -0.0307693 0)
(-0.247052 -0.0337917 0)
(-0.18659 -0.035677 0)
(-0.122166 -0.0362416 0)
(-0.0567133 -0.0381432 0)
(0.00131785 -0.0372908 0)
(0.0576496 -0.0322195 0)
(0.112949 -0.0283441 0)
(0.157877 -0.0234552 0)
(0.193812 -0.0181582 0)
(0.220002 -0.0128183 0)
(0.236816 -0.00789464 0)
(0.245163 -0.00362422 0)
(0.246651 -0.001106 0)
(0.243662 0.000505652 0)
(0.238476 0.00103184 0)
(0.232972 0.000879095 0)
(0.228869 0.000421209 0)
(0.227446 -4.33201e-06 0)
(0.229074 -0.0005416 0)
(0.233058 -0.00109143 0)
(0.237978 -0.00123655 0)
(0.242223 -0.000622941 0)
(0.24417 0.000907547 0)
(0.242208 0.00314524 0)
(0.234714 0.00665362 0)
(0.220575 0.0105771 0)
(0.199339 0.0147561 0)
(0.170898 0.0188939 0)
(0.135637 0.0227247 0)
(0.0944112 0.0260303 0)
(0.048007 0.0286091 0)
(-0.00125839 0.0304106 0)
(-0.0524841 0.031188 0)
(-0.10481 0.0310709 0)
(-0.155577 0.0299688 0)
(-0.203532 0.0279612 0)
(-0.247223 0.0251444 0)
(-0.28546 0.0216315 0)
(-0.317316 0.0176171 0)
(-0.342344 0.0135416 0)
(-0.360657 0.00974077 0)
(-0.372872 0.00653336 0)
(-0.380114 0.00416629 0)
(-0.383917 0.0027434 0)
(-0.386005 0.00215457 0)
(-0.388023 0.00221504 0)
(-0.391355 0.0027354 0)
(-0.396686 0.00329371 0)
(-0.403638 0.00348604 0)
(-0.41089 0.00294589 0)
(-0.416534 0.00123388 0)
(-0.417936 -0.00217409 0)
(-0.41236 -0.00656217 0)
(-0.396793 -0.0132391 0)
(-0.368237 -0.02138 0)
(-0.325027 -0.0303983 0)
(-0.266264 -0.0395488 0)
(-0.192969 -0.0481412 0)
(-0.104883 -0.0552294 0)
(-0.0100416 -0.0610234 0)
(0.0920518 -0.0630819 0)
(0.200448 -0.0637546 0)
(0.30455 -0.0616391 0)
(0.403416 -0.0574233 0)
(0.493279 -0.0514638 0)
(0.571911 -0.0443188 0)
(0.637811 -0.0365256 0)
(0.690416 -0.0285641 0)
(0.729868 -0.0207941 0)
(0.756801 -0.0134315 0)
(0.77206 -0.00653873 0)
(0.776487 -0.000123522 0)
(0.77075 0.00619856 0)
(0.755183 0.0123173 0)
(0.729838 0.0184577 0)
(0.694566 0.0246608 0)
(0.649244 0.0308793 0)
(0.59392 0.0369546 0)
(0.528994 0.042641 0)
(0.455299 0.0476238 0)
(0.374184 0.0516326 0)
(0.287216 0.0541098 0)
(0.194451 0.0562509 0)
(0.10217 0.0571264 0)
(0.018997 0.0563773 0)
(-0.0666232 0.0528707 0)
(-0.152516 0.050287 0)
(-0.229384 0.046926 0)
(-0.301725 0.043708 0)
(-0.368264 0.0406682 0)
(-0.430131 0.0380116 0)
(-0.487891 0.0357299 0)
(-0.54223 0.0337153 0)
(-0.593489 0.0317518 0)
(-0.641591 0.0295611 0)
(-0.685948 0.026846 0)
(-0.725499 0.0233358 0)
(-0.758786 0.0188281 0)
(-0.784144 0.0132239 0)
(-0.79987 0.00660643 0)
(-0.804534 -0.0010112 0)
(-0.796634 -0.00930868 0)
(-0.775534 -0.0179779 0)
(-0.740915 -0.0266793 0)
(-0.693055 -0.0350426 0)
(-0.632824 -0.0427398 0)
(-0.561344 -0.0494154 0)
(-0.48066 -0.0549365 0)
(-0.391848 -0.058465 0)
(-0.295702 -0.0620714 0)
(-0.198635 -0.0632106 0)
(-0.105771 -0.0625387 0)
(-0.0171745 -0.0609021 0)
(0.0718568 -0.0560983 0)
(0.156518 -0.0515179 0)
(0.230975 -0.0456938 0)
(0.296537 -0.0395159 0)
(0.352406 -0.0332483 0)
(0.398747 -0.0273232 0)
(0.436537 -0.022114 0)
(0.466959 -0.0178784 0)
(0.491698 -0.0147539 0)
(0.512437 -0.0127064 0)
(0.530762 -0.01155 0)
(0.547861 -0.010952 0)
(0.564344 -0.0105071 0)
(0.580165 -0.00978413 0)
(0.594615 -0.00840875 0)
(0.606482 -0.00609466 0)
(0.614281 -0.00274976 0)
(0.616309 0.00159046 0)
(0.611639 0.00640346 0)
(0.599361 0.0116162 0)
(0.579158 0.0166491 0)
(0.551812 0.0210787 0)
(0.517489 0.0245996 0)
(0.478576 0.027153 0)
(0.437082 0.0286264 0)
(0.393917 0.0291742 0)
(0.350595 0.0292814 0)
(0.307367 0.0293477 0)
(0.263726 0.0298445 0)
(0.219037 0.0310783 0)
(0.171664 0.033198 0)
(0.119953 0.0361314 0)
(0.0632017 0.0395902 0)
(-0.000657918 0.0432344 0)
(-0.0722686 0.0464908 0)
(-0.149745 0.0489399 0)
(-0.232061 0.0501509 0)
(-0.316677 0.0498846 0)
(-0.401045 0.04808 0)
(-0.482329 0.044865 0)
(-0.558063 0.0403753 0)
(-0.626197 0.0349307 0)
(-0.685466 0.0291975 0)
(-0.73508 0.0234411 0)
(-0.774812 0.0179345 0)
(-0.80491 0.0127592 0)
(-0.825766 0.00796083 0)
(-0.837997 0.00366994 0)
(-0.842262 -0.00050448 0)
(-0.838734 -0.00444662 0)
(-0.828455 -0.00805672 0)
(-0.811552 -0.011647 0)
(-0.788238 -0.0153057 0)
(-0.758209 -0.0192819 0)
(-0.72089 -0.023615 0)
(-0.675686 -0.0283978 0)
(-0.621656 -0.0336057 0)
(-0.558276 -0.0391075 0)
(-0.484938 -0.0448581 0)
(-0.401499 -0.0505069 0)
(-0.308321 -0.0558974 0)
(-0.20623 -0.0606738 0)
(-0.0965149 -0.0646046 0)
(0.0202187 -0.0674539 0)
(0.140587 -0.0689974 0)
(0.262473 -0.0690712 0)
(0.383034 -0.0676066 0)
(0.49953 -0.0645329 0)
(0.609095 -0.0599094 0)
(0.709047 -0.0537943 0)
(0.796855 -0.0463569 0)
(0.870385 -0.0377589 0)
(0.92791 -0.0282627 0)
(0.968069 -0.0181038 0)
(0.989828 -0.00759647 0)
(0.993067 0.00270429 0)
(0.978481 0.012772 0)
(0.945632 0.0227092 0)
(0.896071 0.0318062 0)
(0.831342 0.0398691 0)
(0.753438 0.0468001 0)
(0.664414 0.0525211 0)
(0.566515 0.0569519 0)
(0.462157 0.0601189 0)
(0.353143 0.0620601 0)
(0.242337 0.0626454 0)
(0.131322 0.0622389 0)
(0.0221567 0.0604641 0)
(-0.0832152 0.0578632 0)
(-0.18285 0.0540959 0)
(-0.275045 0.0498251 0)
(-0.358772 0.0446465 0)
(-0.43288 0.0391842 0)
(-0.496972 0.0332704 0)
(-0.550311 0.0271617 0)
(-0.592968 0.0209964 0)
(-0.624582 0.0147959 0)
(-0.645452 0.00875149 0)
(-0.655694 0.00275489 0)
(-0.655646 -0.00299251 0)
(-0.645673 -0.00843219 0)
(-0.626502 -0.0134802 0)
(-0.598771 -0.0182082 0)
(-0.562973 -0.0225233 0)
(-0.519806 -0.0264433 0)
(-0.46966 -0.0298697 0)
(-0.413621 -0.0332947 0)
(-0.351681 -0.0351569 0)
(-0.289804 -0.0342722 0)
(0.474535 0.000526686 0)
(0.524963 -0.00575693 0)
(0.558287 -0.00655712 0)
(0.576778 -0.00197263 0)
(0.580892 0.005506 0)
(0.570147 0.0160917 0)
(0.543789 0.0275227 0)
(0.501857 0.0389193 0)
(0.445213 0.0495098 0)
(0.375227 0.0583615 0)
(0.293837 0.0651429 0)
(0.203636 0.0695996 0)
(0.106686 0.0718444 0)
(0.0136733 0.0748179 0)
(-0.0784259 0.0680104 0)
(-0.170741 0.0627289 0)
(-0.251672 0.0554462 0)
(-0.321405 0.0467472 0)
(-0.378091 0.0370867 0)
(-0.420689 0.0269531 0)
(-0.448884 0.0167839 0)
(-0.462804 0.0068282 0)
(-0.463424 -0.00208526 0)
(-0.451732 -0.0106291 0)
(-0.428556 -0.0183132 0)
(-0.395231 -0.0250548 0)
(-0.352951 -0.0307155 0)
(-0.303051 -0.0350606 0)
(-0.246922 -0.0381976 0)
(-0.185953 -0.0400501 0)
(-0.12147 -0.0406146 0)
(-0.0557912 -0.0416879 0)
(0.00332556 -0.0407227 0)
(0.0600208 -0.0349885 0)
(0.115073 -0.0306025 0)
(0.160014 -0.0252871 0)
(0.195798 -0.0196692 0)
(0.221721 -0.0141189 0)
(0.238116 -0.00908962 0)
(0.246 -0.00509925 0)
(0.247185 -0.00224066 0)
(0.243972 -0.000645782 0)
(0.238618 0.000206972 0)
(0.233068 0.000345641 0)
(0.228979 0.000161358 0)
(0.227564 -9.4382e-05 0)
(0.229173 -0.000404681 0)
(0.23318 -0.000596336 0)
(0.238173 -0.000446883 0)
(0.24247 0.000339808 0)
(0.244493 0.00165467 0)
(0.242571 0.00400335 0)
(0.235081 0.00689704 0)
(0.220952 0.0103477 0)
(0.199631 0.0139966 0)
(0.171065 0.0175834 0)
(0.135655 0.0208753 0)
(0.0942672 0.0236878 0)
(0.0476989 0.0258466 0)
(-0.00170754 0.0273273 0)
(-0.0530592 0.027912 0)
(-0.105492 0.0277188 0)
(-0.156318 0.0266992 0)
(-0.204293 0.024936 0)
(-0.247944 0.0225295 0)
(-0.286077 0.0196684 0)
(-0.317834 0.0165758 0)
(-0.342793 0.0133963 0)
(-0.361045 0.0103644 0)
(-0.373218 0.00769731 0)
(-0.38044 0.00556061 0)
(-0.384233 0.00404527 0)
(-0.386333 0.00315966 0)
(-0.388434 0.00274371 0)
(-0.391854 0.00249364 0)
(-0.397196 0.00224133 0)
(-0.404111 0.0017524 0)
(-0.411311 0.000751733 0)
(-0.416789 -0.000987917 0)
(-0.418304 -0.00376467 0)
(-0.412776 -0.0086078 0)
(-0.396882 -0.0145293 0)
(-0.368124 -0.0215245 0)
(-0.324713 -0.0291922 0)
(-0.265778 -0.0369655 0)
(-0.1923 -0.0443589 0)
(-0.104175 -0.0504558 0)
(-0.00911446 -0.0559149 0)
(0.0930969 -0.0575909 0)
(0.20136 -0.0586095 0)
(0.305499 -0.0571763 0)
(0.404336 -0.053927 0)
(0.494182 -0.0490606 0)
(0.572793 -0.0430108 0)
(0.638677 -0.0361955 0)
(0.691266 -0.0290097 0)
(0.730694 -0.0217686 0)
(0.757591 -0.0146847 0)
(0.772816 -0.00785166 0)
(0.777083 -0.00128442 0)
(0.771177 0.00505148 0)
(0.755494 0.011344 0)
(0.729948 0.0175998 0)
(0.694459 0.0238349 0)
(0.648922 0.0299972 0)
(0.593402 0.0359542 0)
(0.528313 0.041507 0)
(0.454502 0.0463995 0)
(0.373305 0.0504189 0)
(0.286399 0.0532051 0)
(0.193881 0.0554121 0)
(0.101648 0.0573251 0)
(0.0180591 0.057284 0)
(-0.0675607 0.0540549 0)
(-0.153208 0.0521754 0)
(-0.230154 0.0492907 0)
(-0.302522 0.0464818 0)
(-0.369146 0.0436486 0)
(-0.431095 0.0410092 0)
(-0.488929 0.0385608 0)
(-0.543308 0.036236 0)
(-0.594561 0.0338715 0)
(-0.642598 0.0312493 0)
(-0.686829 0.0281287 0)
(-0.726202 0.0242824 0)
(-0.759269 0.0195308 0)
(-0.784387 0.0137783 0)
(-0.799856 0.00708729 0)
(-0.804276 -0.000548495 0)
(-0.796163 -0.00887579 0)
(-0.77487 -0.0176147 0)
(-0.740091 -0.0264642 0)
(-0.692102 -0.0350681 0)
(-0.631766 -0.0431096 0)
(-0.560226 -0.0502107 0)
(-0.479475 -0.056266 0)
(-0.390752 -0.0604801 0)
(-0.294792 -0.0645033 0)
(-0.197707 -0.0666613 0)
(-0.104975 -0.066634 0)
(-0.016311 -0.0657729 0)
(0.072624 -0.0611555 0)
(0.156966 -0.0570963 0)
(0.231348 -0.051579 0)
(0.296816 -0.0456479 0)
(0.352687 -0.0394823 0)
(0.399094 -0.0334859 0)
(0.437009 -0.0280295 0)
(0.467589 -0.02337 0)
(0.492482 -0.0196784 0)
(0.513328 -0.0169675 0)
(0.531679 -0.0151209 0)
(0.548692 -0.0138701 0)
(0.564966 -0.0128764 0)
(0.580466 -0.0117508 0)
(0.594524 -0.0101477 0)
(0.605979 -0.00776326 0)
(0.613444 -0.00446004 0)
(0.615234 -0.000174787 0)
(0.610454 0.00471087 0)
(0.598273 0.0101827 0)
(0.578313 0.0157855 0)
(0.551276 0.0210871 0)
(0.51725 0.0257794 0)
(0.47851 0.0295894 0)
(0.436938 0.0323489 0)
(0.393475 0.0340904 0)
(0.349731 0.0350062 0)
(0.306027 0.0355978 0)
(0.262054 0.0364011 0)
(0.217307 0.0379619 0)
(0.17025 0.0407721 0)
(0.119206 0.0450837 0)
(0.0633801 0.050832 0)
(0.000522667 0.0575181 0)
(-0.0702473 0.0644718 0)
(-0.147216 0.0707105 0)
(-0.229451 0.0753286 0)
(-0.31441 0.0776151 0)
(-0.399461 0.0771756 0)
(-0.481612 0.0740187 0)
(-0.558251 0.0685867 0)
(-0.627199 0.0614541 0)
(-0.687081 0.0530604 0)
(-0.737118 0.0439322 0)
(-0.777119 0.0345926 0)
(-0.807374 0.0254616 0)
(-0.828338 0.0167352 0)
(-0.840606 0.0086458 0)
(-0.844947 0.00085043 0)
(-0.841319 -0.0060327 0)
(-0.830819 -0.0125183 0)
(-0.813861 -0.0188504 0)
(-0.790588 -0.025128 0)
(-0.760663 -0.0317731 0)
(-0.723485 -0.0388714 0)
(-0.678436 -0.0466817 0)
(-0.624522 -0.0552444 0)
(-0.561198 -0.0643355 0)
(-0.487842 -0.0738808 0)
(-0.404282 -0.0832974 0)
(-0.310864 -0.0922938 0)
(-0.208404 -0.100279 0)
(-0.0981994 -0.106863 0)
(0.0191407 -0.111625 0)
(0.140208 -0.114218 0)
(0.262852 -0.114342 0)
(0.384207 -0.111892 0)
(0.501496 -0.106765 0)
(0.61183 -0.0990405 0)
(0.712493 -0.088826 0)
(0.800932 -0.0764068 0)
(0.874982 -0.062046 0)
(0.932901 -0.0461747 0)
(0.973305 -0.0291926 0)
(0.99509 -0.0116123 0)
(0.998245 0.00575112 0)
(0.983506 0.0226343 0)
(0.950346 0.0392362 0)
(0.90034 0.0543986 0)
(0.835077 0.0678108 0)
(0.756588 0.0793125 0)
(0.666942 0.0887847 0)
(0.568415 0.096096 0)
(0.463419 0.101303 0)
(0.35378 0.104472 0)
(0.242364 0.105389 0)
(0.130768 0.104665 0)
(0.0210445 0.101652 0)
(-0.0848174 0.0972616 0)
(-0.184885 0.0909261 0)
(-0.277432 0.0837517 0)
(-0.36145 0.0750615 0)
(-0.435768 0.0659077 0)
(-0.500001 0.0560072 0)
(-0.553417 0.0457922 0)
(-0.596091 0.0354906 0)
(-0.627681 0.0251338 0)
(-0.648484 0.0150449 0)
(-0.65863 0.00503533 0)
(-0.658442 -0.00452927 0)
(-0.648303 -0.0136022 0)
(-0.628942 -0.0220206 0)
(-0.600989 -0.029904 0)
(-0.565009 -0.0370612 0)
(-0.521799 -0.0435763 0)
(-0.472212 -0.048963 0)
(-0.417557 -0.0543525 0)
(-0.35731 -0.0578354 0)
(-0.295059 -0.0625753 0)
(0.466665 -0.0104887 0)
(0.524531 -0.0118027 0)
(0.559688 -0.00929878 0)
(0.579653 -0.00262083 0)
(0.584947 0.00720098 0)
(0.574983 0.0205781 0)
(0.548631 0.0348991 0)
(0.506337 0.0490417 0)
(0.448852 0.0621034 0)
(0.377718 0.0730452 0)
(0.295164 0.0814541 0)
(0.203814 0.0870246 0)
(0.106382 0.0898028 0)
(0.0115322 0.0921038 0)
(-0.0822565 0.0847243 0)
(-0.174629 0.0780037 0)
(-0.256139 0.0688701 0)
(-0.326198 0.0579738 0)
(-0.382986 0.045896 0)
(-0.425475 0.0332496 0)
(-0.453356 0.0205987 0)
(-0.466898 0.0085201 0)
(-0.467113 -0.00276237 0)
(-0.454927 -0.013466 0)
(-0.431241 -0.0230178 0)
(-0.39742 -0.0314279 0)
(-0.354688 -0.0386837 0)
(-0.304313 -0.0448029 0)
(-0.247639 -0.0495419 0)
(-0.186129 -0.0527649 0)
(-0.121367 -0.0544948 0)
(-0.0553513 -0.055671 0)
(0.0051778 -0.0551151 0)
(0.0626911 -0.0484655 0)
(0.11764 -0.0428255 0)
(0.162842 -0.0357838 0)
(0.198663 -0.0280904 0)
(0.224434 -0.0202751 0)
(0.240487 -0.0129789 0)
(0.247877 -0.00678713 0)
(0.248369 -0.00209618 0)
(0.244573 0.000300733 0)
(0.238827 0.00130772 0)
(0.232947 0.00131662 0)
(0.228724 0.000693724 0)
(0.227285 -0.000201807 0)
(0.228961 -0.00114913 0)
(0.233126 -0.0016861 0)
(0.2384 -0.00152042 0)
(0.243045 -0.000519927 0)
(0.245508 0.00175227 0)
(0.244045 0.00575398 0)
(0.236844 0.0109096 0)
(0.222854 0.0168751 0)
(0.201527 0.0232259 0)
(0.172811 0.0295296 0)
(0.137129 0.0353855 0)
(0.0953638 0.0404614 0)
(0.0483685 0.0444484 0)
(-0.00155003 0.0472962 0)
(-0.053436 0.0485398 0)
(-0.106361 0.0484279 0)
(-0.157678 0.0468245 0)
(-0.206083 0.0438351 0)
(-0.250084 0.039613 0)
(-0.288455 0.0344109 0)
(-0.320295 0.0285777 0)
(-0.345163 0.0225547 0)
(-0.363156 0.0168154 0)
(-0.374928 0.0118164 0)
(-0.381661 0.0079282 0)
(-0.384951 0.00536667 0)
(-0.386617 0.0041315 0)
(-0.388411 0.00398032 0)
(-0.39171 0.00445795 0)
(-0.397157 0.00498115 0)
(-0.404394 0.0048929 0)
(-0.412083 0.0036146 0)
(-0.41831 0.000806947 0)
(-0.420724 -0.00446232 0)
(-0.416112 -0.0128616 0)
(-0.401061 -0.0240739 0)
(-0.372821 -0.0375518 0)
(-0.329533 -0.0524377 0)
(-0.270295 -0.0675926 0)
(-0.196027 -0.0819254 0)
(-0.106921 -0.0938738 0)
(-0.0102026 -0.103782 0)
(0.0936831 -0.10773 0)
(0.203258 -0.109119 0)
(0.308899 -0.106048 0)
(0.408898 -0.0993848 0)
(0.49959 -0.0896894 0)
(0.578681 -0.0778406 0)
(0.644705 -0.0647136 0)
(0.697152 -0.0511081 0)
(0.736246 -0.0376434 0)
(0.762712 -0.0247084 0)
(0.777465 -0.0124426 0)
(0.781409 -0.000803291 0)
(0.775271 0.0104567 0)
(0.759355 0.0215893 0)
(0.733669 0.0327652 0)
(0.698035 0.0440521 0)
(0.652277 0.0553564 0)
(0.596398 0.0664039 0)
(0.530769 0.0767716 0)
(0.456227 0.0859344 0)
(0.374104 0.0934037 0)
(0.286287 0.0986381 0)
(0.193089 0.101982 0)
(0.0999215 0.104226 0)
(0.0148437 0.103197 0)
(-0.0713959 0.0977594 0)
(-0.157015 0.093359 0)
(-0.234107 0.0875938 0)
(-0.306292 0.0819711 0)
(-0.372644 0.0765737 0)
(-0.434256 0.0717636 0)
(-0.491802 0.0675424 0)
(-0.546019 0.0637332 0)
(-0.597292 0.0599632 0)
(-0.645558 0.0557433 0)
(-0.690214 0.0505464 0)
(-0.73016 0.0438894 0)
(-0.763876 0.0354047 0)
(-0.789628 0.0249078 0)
(-0.805621 0.0125382 0)
(-0.810385 -0.001674 0)
(-0.802361 -0.0172084 0)
(-0.780867 -0.0334789 0)
(-0.745591 -0.0498793 0)
(-0.696826 -0.0657261 0)
(-0.635459 -0.0804044 0)
(-0.562711 -0.0932641 0)
(-0.480514 -0.103995 0)
(-0.390564 -0.111629 0)
(-0.293405 -0.1177 0)
(-0.194656 -0.120709 0)
(-0.100646 -0.119907 0)
(-0.0104336 -0.117039 0)
(0.0795546 -0.108731 0)
(0.164203 -0.100268 0)
(0.238953 -0.0895203 0)
(0.304303 -0.0779928 0)
(0.359727 -0.0662261 0)
(0.40535 -0.0549993 0)
(0.44224 -0.0450281 0)
(0.471675 -0.0368057 0)
(0.495444 -0.0306143 0)
(0.515336 -0.026421 0)
(0.533026 -0.0239122 0)
(0.549752 -0.0224844 0)
(0.566122 -0.0213927 0)
(0.582058 -0.0198258 0)
(0.596774 -0.0170773 0)
(0.608949 -0.0125919 0)
(0.617004 -0.00616821 0)
(0.6191 0.00214133 0)
(0.614224 0.0114946 0)
(0.601477 0.0216784 0)
(0.580552 0.0317009 0)
(0.552265 0.0407189 0)
(0.516928 0.0481731 0)
(0.476929 0.0537484 0)
(0.434323 0.0573626 0)
(0.39022 0.0590459 0)
(0.346228 0.0597378 0)
(0.3026 0.0601324 0)
(0.258875 0.0612194 0)
(0.214375 0.0637291 0)
(0.167432 0.0681191 0)
(0.11633 0.0744422 0)
(0.0603008 0.0823197 0)
(-0.00278316 0.0908996 0)
(-0.0736818 0.0993134 0)
(-0.150624 0.106217 0)
(-0.232611 0.110624 0)
(-0.31712 0.111763 0)
(-0.401553 0.109307 0)
(-0.483066 0.103357 0)
(-0.559143 0.0943232 0)
(-0.627605 0.0830161 0)
(-0.687178 0.0704744 0)
(-0.737135 0.0574746 0)
(-0.777278 0.0446801 0)
(-0.807872 0.032458 0)
(-0.829281 0.0209624 0)
(-0.842031 0.0104182 0)
(-0.846734 0.000189438 0)
(-0.843615 -0.00911742 0)
(-0.833744 -0.0178203 0)
(-0.817177 -0.0264569 0)
(-0.794207 -0.0351725 0)
(-0.764544 -0.0445352 0)
(-0.727586 -0.0546381 0)
(-0.682721 -0.0657526 0)
(-0.628953 -0.0778872 0)
(-0.565707 -0.0907324 0)
(-0.492313 -0.104203 0)
(-0.408552 -0.117477 0)
(-0.31476 -0.130163 0)
(-0.211739 -0.141432 0)
(-0.100775 -0.150726 0)
(0.017476 -0.157476 0)
(0.139602 -0.161153 0)
(0.263392 -0.161359 0)
(0.385933 -0.157944 0)
(0.504416 -0.150756 0)
(0.615897 -0.139911 0)
(0.717627 -0.125563 0)
(0.80701 -0.108108 0)
(0.881852 -0.0879183 0)
(0.940374 -0.0656032 0)
(0.981167 -0.0417219 0)
(1.00318 -0.0170062 0)
(1.0063 0.00740065 0)
(0.991216 0.0312163 0)
(0.957514 0.0546422 0)
(0.906816 0.0760299 0)
(0.840735 0.0949336 0)
(0.761345 0.111134 0)
(0.670742 0.124463 0)
(0.571252 0.13474 0)
(0.465282 0.142051 0)
(0.354694 0.146482 0)
(0.242356 0.147745 0)
(0.129879 0.146689 0)
(0.0193113 0.142412 0)
(-0.0872872 0.136201 0)
(-0.188003 0.127255 0)
(-0.281076 0.117143 0)
(-0.365523 0.104906 0)
(-0.440147 0.0920281 0)
(-0.504587 0.0781101 0)
(-0.558111 0.0637583 0)
(-0.600809 0.0492995 0)
(-0.632364 0.034771 0)
(-0.653062 0.0206228 0)
(-0.66304 0.00657775 0)
(-0.662644 -0.0068337 0)
(-0.652275 -0.0195509 0)
(-0.632638 -0.0313545 0)
(-0.60436 -0.0424067 0)
(-0.567991 -0.0524924 0)
(-0.524297 -0.0616321 0)
(-0.474164 -0.0693626 0)
(-0.418503 -0.0770528 0)
(-0.356808 -0.0815588 0)
(-0.294839 -0.0839828 0)
(0.46468 -0.0240481 0)
(0.52565 -0.0202097 0)
(0.561941 -0.0138601 0)
(0.583068 -0.00491588 0)
(0.589504 0.00803472 0)
(0.580205 0.0234208 0)
(0.55384 0.0396641 0)
(0.511137 0.0556283 0)
(0.453011 0.0704245 0)
(0.381031 0.0834471 0)
(0.297429 0.0939288 0)
(0.204975 0.10136 0)
(0.106704 0.105646 0)
(0.00988866 0.107624 0)
(-0.0855822 0.101037 0)
(-0.178386 0.0936282 0)
(-0.260712 0.0832142 0)
(-0.331335 0.0704641 0)
(-0.388434 0.0560728 0)
(-0.430986 0.0407858 0)
(-0.458704 0.0253042 0)
(-0.471852 0.0102613 0)
(-0.471708 -0.00362259 0)
(-0.45914 -0.017142 0)
(-0.434891 -0.0292698 0)
(-0.400517 -0.0400605 0)
(-0.357213 -0.0494483 0)
(-0.30623 -0.0573319 0)
(-0.248903 -0.063527 0)
(-0.186723 -0.0678512 0)
(-0.121417 -0.0702302 0)
(-0.0548598 -0.071069 0)
(0.00716843 -0.0699632 0)
(0.0657244 -0.0624477 0)
(0.12078 -0.055079 0)
(0.166356 -0.0459523 0)
(0.202274 -0.0359198 0)
(0.227886 -0.0257158 0)
(0.243516 -0.0161838 0)
(0.250284 -0.00810843 0)
(0.249938 -0.00208866 0)
(0.245268 0.00132763 0)
(0.238984 0.00268646 0)
(0.232813 0.0024808 0)
(0.228393 0.00133202 0)
(0.226873 -0.000308311 0)
(0.228635 -0.00192374 0)
(0.233073 -0.00279858 0)
(0.238643 -0.00271062 0)
(0.243711 -0.00137603 0)
(0.246817 0.00178303 0)
(0.245905 0.00703478 0)
(0.239049 0.0137227 0)
(0.225244 0.0214313 0)
(0.203914 0.0295978 0)
(0.175023 0.0376661 0)
(0.139017 0.0451254 0)
(0.0968081 0.0515545 0)
(0.0493027 0.0565772 0)
(-0.00120677 0.060113 0)
(-0.0537156 0.0616333 0)
(-0.107228 0.0613911 0)
(-0.159114 0.0592693 0)
(-0.208017 0.0553909 0)
(-0.252417 0.0499583 0)
(-0.291047 0.0433071 0)
(-0.322987 0.0358881 0)
(-0.347777 0.0282298 0)
(-0.365514 0.0209249 0)
(-0.376873 0.0145497 0)
(-0.383084 0.00958124 0)
(-0.385812 0.00631928 0)
(-0.386969 0.00480989 0)
(-0.388414 0.00475644 0)
(-0.391586 0.00553807 0)
(-0.39715 0.00637742 0)
(-0.404741 0.00638354 0)
(-0.412938 0.00484905 0)
(-0.41985 0.00148932 0)
(-0.42334 -0.00500637 0)
(-0.419857 -0.0156917 0)
(-0.40561 -0.0297582 0)
(-0.377907 -0.0465903 0)
(-0.33476 -0.0651154 0)
(-0.275231 -0.0839277 0)
(-0.200178 -0.101644 0)
(-0.110059 -0.116412 0)
(-0.0117202 -0.128353 0)
(0.0938639 -0.133425 0)
(0.204822 -0.134831 0)
(0.31196 -0.130886 0)
(0.413153 -0.122493 0)
(0.504731 -0.110395 0)
(0.584349 -0.0956786 0)
(0.650565 -0.0794338 0)
(0.702928 -0.0626504 0)
(0.741744 -0.0460915 0)
(0.767835 -0.0302296 0)
(0.782219 -0.0152219 0)
(0.785784 -0.000871342 0)
(0.779369 0.0126234 0)
(0.763311 0.0261538 0)
(0.737492 0.0397309 0)
(0.701712 0.0534391 0)
(0.65574 0.0671607 0)
(0.599525 0.0805603 0)
(0.533397 0.0931217 0)
(0.458193 0.104217 0)
(0.375261 0.113242 0)
(0.286594 0.119662 0)
(0.1928 0.123423 0)
(0.0988438 0.12589 0)
(0.012359 0.124483 0)
(-0.0744744 0.118237 0)
(-0.160097 0.11275 0)
(-0.237367 0.105746 0)
(-0.309438 0.098878 0)
(-0.375605 0.0923036 0)
(-0.436971 0.0864409 0)
(-0.494303 0.0812973 0)
(-0.548397 0.0766584 0)
(-0.599685 0.0720768 0)
(-0.648124 0.0669665 0)
(-0.6931 0.0607002 0)
(-0.733479 0.0527082 0)
(-0.767685 0.0425607 0)
(-0.793924 0.0300489 0)
(-0.810305 0.0153357 0)
(-0.815336 -0.00150098 0)
(-0.807417 -0.0198862 0)
(-0.785797 -0.03911 0)
(-0.750186 -0.058465 0)
(-0.70088 -0.0771504 0)
(-0.638785 -0.0944457 0)
(-0.565177 -0.109613 0)
(-0.481979 -0.122254 0)
(-0.391078 -0.131498 0)
(-0.293092 -0.138268 0)
(-0.19322 -0.141948 0)
(-0.0982355 -0.141126 0)
(-0.00683704 -0.137685 0)
(0.0839521 -0.128331 0)
(0.168839 -0.118413 0)
(0.243928 -0.105935 0)
(0.309282 -0.0924936 0)
(0.36452 -0.0787706 0)
(0.409743 -0.0656399 0)
(0.446072 -0.0539361 0)
(0.474849 -0.0442316 0)
(0.497937 -0.0368683 0)
(0.517201 -0.0318222 0)
(0.534389 -0.0287585 0)
(0.550789 -0.0269865 0)
(0.567022 -0.0256637 0)
(0.583014 -0.0238589 0)
(0.597939 -0.0207655 0)
(0.610407 -0.0157404 0)
(0.61881 -0.00853259 0)
(0.621177 0.000873894 0)
(0.616424 0.0115317 0)
(0.603672 0.0232347 0)
(0.582557 0.0349382 0)
(0.553859 0.0456606 0)
(0.517935 0.0547092 0)
(0.477257 0.0615487 0)
(0.433963 0.0661458 0)
(0.389157 0.0685687 0)
(0.344615 0.0695723 0)
(0.300696 0.0700875 0)
(0.257025 0.0712481 0)
(0.212954 0.0740859 0)
(0.166788 0.0793629 0)
(0.116678 0.0873625 0)
(0.0616404 0.097778 0)
(-0.00062717 0.109539 0)
(-0.0711252 0.121628 0)
(-0.14821 0.132062 0)
(-0.230852 0.139406 0)
(-0.316431 0.142475 0)
(-0.402114 0.140689 0)
(-0.484834 0.134186 0)
(-0.561973 0.12367 0)
(-0.631316 0.110114 0)
(-0.691527 0.0945823 0)
(-0.74186 0.0780051 0)
(-0.782146 0.0612824 0)
(-0.812711 0.0450374 0)
(-0.833991 0.0295255 0)
(-0.846571 0.0152319 0)
(-0.851227 0.00141137 0)
(-0.847847 -0.0110515 0)
(-0.837655 -0.0226429 0)
(-0.821081 -0.0339446 0)
(-0.798281 -0.0451764 0)
(-0.768929 -0.0571186 0)
(-0.732371 -0.0699453 0)
(-0.687939 -0.084091 0)
(-0.634524 -0.0996321 0)
(-0.5715 -0.116147 0)
(-0.498142 -0.133524 0)
(-0.414186 -0.150698 0)
(-0.319938 -0.167136 0)
(-0.216185 -0.181767 0)
(-0.104229 -0.19386 0)
(0.015248 -0.202662 0)
(0.138793 -0.20748 0)
(0.264114 -0.207803 0)
(0.388253 -0.203436 0)
(0.508336 -0.194187 0)