/*--------------------------------*- C++ -*----------------------------------*\
| =========                 |                                                 |
| \\      /  F ield         | OpenFOAM: The Open Source CFD Toolbox           |
|  \\    /   O peration     | Version:  v1912                                 |
|   \\  /    A nd           | Website:  www.openfoam.com                      |
|    \\/     M anipulation  |                                                 |
\*---------------------------------------------------------------------------*/
FoamFile
{
    version     2.0;
    format      ascii;
    class       surfaceScalarField;
    location    "40";
    object      alphaPhi0.water;
}
// * * * * * * * * * * * * * * * * * * * * * * * * * * * * * * * * * * * * * //

dimensions      [0 3 -1 0 0 0 0];
oriented        oriented;


internalField   nonuniform List<scalar> 
28285
(
-5.64409e-198
-3.22163e-199
-5.2986e-201
-3.03666e-202
-4.66421e-204
-2.68391e-205
-3.84932e-207
-2.22398e-208
-2.97793e-210
-1.72751e-211
-2.15928e-213
-1.25769e-214
-1.46723e-216
-8.58077e-218
-9.34159e-220
-5.48544e-221
-5.57196e-223
-3.2852e-224
-3.1131e-226
-1.84295e-227
-1.62895e-229
-9.68261e-231
-7.98143e-233
-4.76358e-234
-3.66137e-236
-2.19414e-237
-1.57226e-239
-9.46053e-241
-6.31906e-243
-3.8178e-244
-2.37659e-246
-1.44173e-247
-8.36285e-250
-5.09397e-251
-2.75284e-253
-1.68366e-254
-8.47533e-257
-5.20476e-258
-2.4401e-260
-1.5046e-261
-6.56832e-264
-4.06668e-265
-1.65281e-267
-1.02749e-268
-3.88714e-271
-2.42636e-272
-8.54284e-275
-5.35419e-276
-1.75411e-278
-1.10386e-279
-3.36447e-282
-2.12587e-283
-6.02696e-286
-3.82367e-287
-1.00814e-289
-6.42187e-291
-1.57437e-293
-1.00693e-294
-2.29493e-297
-1.47371e-298
-3.12198e-301
-2.01287e-302
-3.96281e-305
-2.56523e-306
-4.69254e-309
-3.04974e-310
-5.18276e-313
-3.38173e-314
-5.33801e-317
-3.49681e-318
-5.1284e-321
-3.35965e-322
0
0
0
0
0
0
0
0
0
0
0
0
0
0
0
0
0
0
0
0
0
0
0
0
0
0
0
0
0
0
0
0
0
0
0
0
0
0
0
0
0
0
0
0
0
0
0
0
0
0
0
0
0
0
0
0
0
0
0
0
0
0
0
0
0
0
0
0
0
0
0
0
0
0
0
0
0
0
0
0
0
0
0
0
0
0
0
0
0
0
0
0
0
0
0
0
0
0
0
0
0
0
0
0
0
0
0
0
0
0
0
0
0
0
0
0
0
0
0
0
0
0
0
0
0
0
0
0
0
0
0
0
0
0
0
0
0
0
0
0
0
0
0
0
0
0
0
0
0
0
0
0
0
0
0
0
0
0
0
0
0
0
0
0
0
0
0
0
0
0
0
0
0
0
0
0
0
0
0
0
0
0
0
0
0
0
0
0
0
0
0
0
0
0
0
0
0
0
0
0
0
0
0
0
0
0
0
0
0
0
0
0
0
0
0
0
0
0
0
0
0
0
0
0
0
0
0
0
0
0
0
0
0
0
0
0
0
0
0
0
0
0
0
0
0
0
0
0
0
0
0
0
0
0
0
-2.86786e-198
-3.277e-199
-2.68919e-201
-3.08529e-202
-2.36449e-204
-2.72374e-205
-1.94914e-207
-2.2544e-208
-1.50618e-210
-1.74914e-211
-1.09088e-213
-1.27199e-214
-7.40417e-217
-8.66858e-218
-4.70884e-220
-5.53541e-221
-2.80558e-223
-3.31149e-224
-1.56579e-226
-1.85568e-227
-8.18434e-230
-9.73909e-231
-4.0059e-233
-4.78635e-234
-1.83576e-236
-2.20236e-237
-7.87515e-240
-9.48645e-241
-3.16198e-243
-3.82451e-244
-1.18808e-246
-1.44289e-247
-4.17678e-250
-5.09334e-251
-1.37365e-253
-1.68194e-254
-4.22548e-257
-5.19498e-258
-1.21552e-260
-1.50053e-261
-3.26937e-264
-4.05246e-265
-8.22052e-268
-1.02312e-268
-1.93194e-271
-2.41431e-272
-4.24295e-275
-5.32399e-276
-8.70649e-279
-1.09694e-279
-1.66894e-282
-2.11128e-283
-2.988e-286
-3.79534e-287
-4.99554e-290
-6.37109e-291
-7.79768e-294
-9.98514e-295
-1.13618e-297
-1.4608e-298
-1.54507e-301
-1.99452e-302
-1.96057e-305
-2.54107e-306
-2.32099e-309
-3.02025e-310
-2.56291e-313
-3.34836e-314
-2.63926e-317
-3.4618e-318
-2.53456e-321
-3.35965e-322
0
0
0
0
0
0
0
0
0
0
0
0
0
0
0
0
0
0
0
0
0
0
0
0
0
0
0
0
0
0
0
0
0
0
0
0
0
0
0
0
0
0
0
0
0
0
0
0
0
0
0
0
0
0
0
0
0
0
0
0
0
0
0
0
0
0
0
0
0
0
0
0
0
0
0
0
0
0
0
0
0
0
0
0
0
0
0
0
0
0
0
0
0
0
0
0
0
0
0
0
0
0
0
0
0
0
0
0
0
0
0
0
0
0
0
0
0
0
0
0
0
0
0
0
0
0
0
0
0
0
0
0
0
0
0
0
0
0
0
0
0
0
0
0
0
0
0
0
0
0
0
0
0
0
0
0
0
0
0
0
0
0
0
0
0
0
0
0
0
0
0
0
0
0
0
0
0
0
0
0
0
0
0
0
0
0
0
0
0
0
0
0
0
0
0
0
0
0
0
0
0
0
0
0
0
0
0
0
0
0
0
0
0
0
0
0
0
0
0
0
0
0
0
0
0
0
0
0
0
0
0
0
0
0
0
0
0
0
0
0
0
0
0
0
0
0
0
0
0
0
0
0
0
0
0
-3.62027e-198
-6.20766e-199
-3.42059e-201
-5.88906e-202
-3.03007e-204
-5.23786e-205
-2.51611e-207
-4.36709e-208
-1.95827e-210
-3.41268e-211
-1.42828e-213
-2.4992e-214
-9.76092e-217
-1.71492e-217
-6.24938e-220
-1.10244e-220
-3.74788e-223
-6.63853e-224
-2.10508e-226
-3.74391e-227
-1.10718e-229
-1.97717e-230
-5.45209e-233
-9.77601e-234
-2.51324e-236
-4.52486e-237
-1.08432e-239
-1.96022e-240
-4.3779e-243
-7.9467e-244
-1.6538e-246
-3.01425e-247
-5.8443e-250
-1.06956e-250
-1.93172e-253
-3.54973e-254
-5.97089e-257
-1.10171e-257
-1.72561e-260
-3.19706e-261
-4.66205e-264
-8.6729e-265
-1.17724e-267
-2.19903e-268
-2.77798e-271
-5.2104e-272
-6.12473e-275
-1.15347e-275
-1.26142e-278
-2.38538e-279
-2.42645e-282
-4.60723e-283
-4.35847e-286
-8.30952e-287
-7.3092e-290
-1.39921e-290
-1.14419e-293
-2.19925e-294
-1.67159e-297
-3.22605e-298
-2.27871e-301
-4.4156e-302
-2.89795e-305
-5.63824e-306
-3.43755e-309
-6.71506e-310
-3.80261e-313
-7.45803e-314
-3.92197e-317
-7.72289e-318
-3.76972e-321
-7.46039e-322
0
0
0
0
0
0
0
0
0
0
0
0
0
0
0
0
0
0
0
0
0
0
0
0
0
0
0
0
0
0
0
0
0
0
0
0
0
0
0
0
0
0
0
0
0
0
0
0
0
0
0
0
0
0
0
0
0
0
0
0
0
0
0
0
0
0
0
0
0
0
0
0
0
0
0
0
0
0
0
0
0
0
0
0
0
0
0
0
0
0
0
0
0
0
0
0
0
0
0
0
0
0
0
0
0
0
0
0
0
0
0
0
0
0
0
0
0
0
0
0
0
0
0
0
0
0
0
0
0
0
0
0
0
0
0
0
0
0
0
0
0
0
0
0
0
0
0
0
0
0
0
0
0
0
0
0
0
0
0
0
0
0
0
0
0
0
0
0
0
0
0
0
0
0
0
0
0
0
0
0
0
0
0
0
0
0
0
0
0
0
0
0
0
0
0
0
0
0
0
0
0
0
0
0
0
0
0
0
0
0
0
0
0
0
0
0
0
0
0
0
0
0
0
0
0
0
0
0
0
0
0
0
0
0
0
0
0
0
0
0
0
0
0
0
0
0
0
0
0
0
0
0
0
0
0
-3.20418e-198
-7.32714e-199
-3.02554e-201
-6.94674e-202
-2.67832e-204
-6.17447e-205
-2.22245e-207
-5.14438e-208
-1.72842e-210
-4.01711e-211
-1.25965e-213
-2.93956e-214
-8.6014e-217
-2.01544e-217
-5.50229e-220
-1.29454e-220
-3.29689e-223
-7.7884e-224
-1.85006e-226
-4.38836e-227
-9.72113e-230
-2.31531e-230
-4.78222e-233
-1.14367e-233
-2.20219e-236
-5.28813e-237
-9.49115e-240
-2.28848e-240
-3.82781e-243
-9.26743e-244
-1.44437e-246
-3.51131e-247
-5.0983e-250
-1.24452e-250
-1.68314e-253
-4.12552e-254
-5.19618e-257
-1.27888e-257
-1.49983e-260
-3.70658e-261
-4.04685e-264
-1.00424e-264
-1.02054e-267
-2.54294e-268
-2.40494e-271
-6.01724e-272
-5.29492e-275
-1.33027e-275
-1.08896e-278
-2.74714e-279
-2.09164e-282
-5.29833e-283
-3.75145e-286
-9.54191e-287
-6.28153e-290
-1.6043e-290
-9.8176e-294
-2.51771e-294
-1.43197e-297
-3.68733e-298
-1.94881e-301
-5.03874e-302
-2.47415e-305
-6.42317e-306
-2.92967e-309
-7.63675e-310
-3.23493e-313
-8.46671e-314
-3.33025e-317
-8.75147e-318
-3.1966e-321
-8.44852e-322
0
0
0
0
0
0
0
0
0
0
0
0
0
0
0
0
0
0
0
0
0
0
0
0
0
0
0
0
0
0
0
0
0
0
0
0
0
0
0
0
0
0
0
0
0
0
0
0
0
0
0
0
0
0
0
0
0
0
0
0
0
0
0
0
0
0
0
0
0
0
0
0
0
0
0
0
0
0
0
0
0
0
0
0
0
0
0
0
0
0
0
0
0
0
0
0
0
0
0
0
0
0
0
0
0
0
0
0
0
0
0
0
0
0
0
0
0
0
0
0
0
0
0
0
0
0
0
0
0
0
0
0
0
0
0
0
0
0
0
0
0
0
0
0
0
0
0
0
0
0
0
0
0
0
0
0
0
0
0
0
0
0
0
0
0
0
0
0
0
0
0
0
0
0
0
0
0
0
0
0
0
0
0
0
0
0
0
0
0
0
0
0
0
0
0
0
0
0
0
0
0
0
0
0
0
0
0
0
0
0
0
0
0
0
0
0
0
0
0
0
0
0
0
0
0
0
0
0
0
0
0
0
0
0
0
0
0
0
0
0
0
0
0
0
0
0
0
0
0
0
0
0
0
0
0
-2.30509e-198
-6.5901e-199
-2.17226e-201
-6.23559e-202
-1.91915e-204
-5.53147e-205
-1.58936e-207
-4.59961e-208
-1.23363e-210
-3.58471e-211
-8.973e-214
-2.61805e-214
-6.11521e-217
-1.79153e-217
-3.90429e-220
-1.1485e-220
-2.33487e-223
-6.89649e-224
-1.30769e-226
-3.87838e-227
-6.85805e-230
-2.04234e-230
-3.36728e-233
-1.00691e-233
-1.54765e-236
-4.64694e-237
-6.6574e-240
-2.00719e-240
-2.67983e-243
-8.11294e-244
-1.00926e-246
-3.06808e-247
-3.55567e-250
-1.08537e-250
-1.17162e-253
-3.59116e-254
-3.61009e-257
-1.11113e-257
-1.04002e-260
-3.21429e-261
-2.80081e-264
-8.69209e-265
-7.0495e-268
-2.19684e-268
-1.65802e-271
-5.18837e-272
-3.64332e-275
-1.14483e-275
-7.47825e-279
-2.35963e-279
-1.43356e-282
-4.54214e-283
-2.56602e-286
-8.16409e-287
-4.28799e-290
-1.36994e-290
-6.68819e-294
-2.14564e-294
-9.73516e-298
-3.13609e-298
-1.32212e-301
-4.27674e-302
-1.67496e-305
-5.44054e-306
-1.97907e-309
-6.45489e-310
-2.18047e-313
-7.14113e-314
-2.23969e-317
-7.36526e-318
-2.14424e-321
-7.06514e-322
0
0
0
0
0
0
0
0
0
0
0
0
0
0
0
0
0
0
0
0
0
0
0
0
0
0
0
0
0
0
0
0
0
0
0
0
0
0
0
0
0
0
0
0
0
0
0
0
0
0
0
0
0
0
0
0
0
0
0
0
0
0
0
0
0
0
0
0
0
0
0
0
0
0
0
0
0
0
0
0
0
0
0
0
0
0
0
0
0
0
0
0
0
0
0
0
0
0
0
0
0
0
0
0
0
0
0
0
0
0
0
0
0
0
0
0
0
0
0
0
0
0
0
0
0
0
0
0
0
0
0
0
0
0
0
0
0
0
0
0
0
0
0
0
0
0
0
0
0
0
0
0
0
0
0
0
0
0
0
0
0
0
0
0
0
0
0
0
0
0
0
0
0
0
0
0
0
0
0
0
0
0
0
0
0
0
0
0
0
0
0
0
0
0
0
0
0
0
0
0
0
0
0
0
0
0
0
0
0
0
0
0
0
0
0
0
0
0
0
0
0
0
0
0
0
0
0
0
0
0
0
0
0
0
0
0
0
0
0
0
0
0
0
0
0
0
0
0
0
0
0
0
0
0
0
-1.48267e-198
-5.0876e-199
-1.39435e-201
-4.80406e-202
-1.22938e-204
-4.25295e-205
-1.01607e-207
-3.52939e-208
-7.87081e-211
-2.74518e-211
-5.71363e-214
-2.00097e-214
-3.88629e-217
-1.36661e-217
-2.47641e-220
-8.74406e-221
-1.47812e-223
-5.24061e-224
-8.26271e-227
-2.9416e-227
-4.32511e-230
-1.54613e-230
-2.11963e-233
-7.60855e-234
-9.72396e-237
-3.50492e-237
-4.17515e-240
-1.51114e-240
-1.67755e-243
-6.09683e-244
-6.30632e-247
-2.30148e-247
-2.2177e-250
-8.12712e-251
-7.29418e-254
-2.68421e-254
-2.24348e-257
-8.29031e-258
-6.45152e-261
-2.39398e-261
-1.73427e-264
-6.46231e-265
-4.35719e-268
-1.63039e-268
-1.02294e-271
-3.84374e-272
-2.24373e-275
-8.46623e-276
-4.59706e-279
-1.74189e-279
-8.79627e-283
-3.34702e-283
-1.5716e-286
-6.00514e-287
-2.62134e-290
-1.00584e-290
-4.08093e-294
-1.57249e-294
-5.92875e-298
-2.29411e-298
-8.03616e-302
-3.12265e-302
-1.01608e-305
-3.96483e-306
-1.19815e-309
-4.69495e-310
-1.31738e-313
-5.18384e-314
-1.35033e-317
-5.33576e-318
-1.28951e-321
-5.13828e-322
0
0
0
0
0
0
0
0
0
0
0
0
0
0
0
0
0
0
0
0
0
0
0
0
0
0
0
0
0
0
0
0
0
0
0
0
0
0
0
0
0
0
0
0
0
0
0
0
0
0
0
0
0
0
0
0
0
0
0
0
0
0
0
0
0
0
0
0
0
0
0
0
0
0
0
0
0
0
0
0
0
0
0
0
0
0
0
0
0
0
0
0
0
0
0
0
0
0
0
0
0
0
0
0
0
0
0
0
0
0
0
0
0
0
0
0
0
0
0
0
0
0
0
0
0
0
0
0
0
0
0
0
0
0
0
0
0
0
0
0
0
0
0
0
0
0
0
0
0
0
0
0
0
0
0
0
0
0
0
0
0
0
0
0
0
0
0
0
0
0
0
0
0
0
0
0
0
0
0
0
0
0
0
0
0
0
0
0
0
0
0
0
0
0
0
0
0
0
0
0
0
0
0
0
0
0
0
0
0
0
0
0
0
0
0
0
0
0
0
0
0
0
0
0
0
0
0
0
0
0
0
0
0
0
0
0
0
0
0
0
0
0
0
0
0
0
0
0
0
0
0
0
0
0
0
-8.96698e-199
-3.59049e-199
-8.41823e-202
-3.38455e-202
-7.40958e-205
-2.99121e-205
-6.11368e-208
-2.47819e-208
-4.72807e-211
-1.9244e-211
-3.42668e-214
-1.40045e-214
-2.32705e-217
-9.54963e-218
-1.48052e-220
-6.10076e-221
-8.82332e-224
-3.65084e-224
-4.92481e-227
-2.04618e-227
-2.57406e-230
-1.07391e-230
-1.25964e-233
-5.27713e-234
-5.77037e-237
-2.42749e-237
-2.4741e-240
-1.04515e-240
-9.92688e-244
-4.21096e-244
-3.72663e-247
-1.58744e-247
-1.30874e-250
-5.5982e-251
-4.29878e-254
-1.84654e-254
-1.32043e-257
-5.69575e-258
-3.79216e-261
-1.64265e-261
-1.01807e-264
-4.42857e-265
-2.55451e-268
-1.1159e-268
-5.98959e-272
-2.62753e-272
-1.31209e-275
-5.78027e-276
-2.68485e-279
-1.18781e-279
-5.13083e-283
-2.27957e-283
-9.15541e-287
-4.08496e-287
-1.52513e-290
-6.83378e-291
-2.37128e-294
-1.06706e-294
-3.44052e-298
-1.55481e-298
-4.65734e-302
-2.1137e-302
-5.88081e-306
-2.68037e-306
-6.92515e-310
-3.16987e-310
-7.6037e-314
-3.49536e-314
-7.78272e-318
-3.59297e-318
-7.41098e-322
-3.45846e-322
0
0
0
0
0
0
0
0
0
0
0
0
0
0
0
0
0
0
0
0
0
0
0
0
0
0
0
0
0
0
0
0
0
0
0
0
0
0
0
0
0
0
0
0
0
0
0
0
0
0
0
0
0
0
0
0
0
0
0
0
0
0
0
0
0
0
0
0
0
0
0
0
0
0
0
0
0
0
0
0
0
0
0
0
0
0
0
0
0
0
0
0
0
0
0
0
0
0
0
0
0
0
0
0
0
0
0
0
0
0
0
0
0
0
0
0
0
0
0
0
0
0
0
0
0
0
0
0
0
0
0
0
0
0
0
0
0
0
0
0
0
0
0
0
0
0
0
0
0
0
0
0
0
0
0
0
0
0
0
0
0
0
0
0
0
0
0
0
0
0
0
0
0
0
0
0
0
0
0
0
0
0
0
0
0
0
0
0
0
0
0
0
0
0
0
0
0
0
0
0
0
0
0
0
0
0
0
0
0
0
0
0
0
0
0
0
0
0
0
0
0
0
0
0
0
0
0
0
0
0
0
0
0
0
0
0
0
0
0
0
0
0
0
0
0
0
0
0
0
0
0
0
0
0
0
-5.26348e-199
-2.40917e-199
-4.93588e-202
-2.26848e-202
-4.33984e-205
-2.00273e-205
-3.57715e-208
-1.65756e-208
-2.76371e-211
-1.28591e-211
-2.00114e-214
-9.34938e-215
-1.35776e-217
-6.3697e-218
-8.63103e-221
-4.06589e-221
-5.13962e-224
-2.4312e-224
-2.86655e-227
-1.36161e-227
-1.49719e-230
-7.14124e-231
-7.32175e-234
-3.50686e-234
-3.35196e-237
-1.61218e-237
-1.43634e-240
-6.93727e-241
-5.75995e-244
-2.79362e-244
-2.16125e-247
-1.05263e-247
-7.58647e-251
-3.71053e-251
-2.49086e-254
-1.22342e-254
-7.64807e-258
-3.77234e-258
-2.19569e-261
-1.0876e-261
-5.89287e-265
-2.93133e-265
-1.47821e-268
-7.38445e-269
-3.46512e-272
-1.7384e-272
-7.58908e-276
-3.8236e-276
-1.55262e-279
-7.85607e-280
-2.96661e-283
-1.50751e-283
-5.29284e-287
-2.70118e-287
-8.81581e-291
-4.5185e-291
-1.37055e-294
-7.05501e-295
-1.98835e-298
-1.02795e-298
-2.69134e-302
-1.39742e-302
-3.39807e-306
-1.77202e-306
-4.00118e-310
-2.09561e-310
-4.39284e-314
-2.31076e-314
-4.49582e-318
-2.37524e-318
-4.29837e-322
-2.2727e-322
0
0
0
0
0
0
0
0
0
0
0
0
0
0
0
0
0
0
0
0
0
0
0
0
0
0
0
0
0
0
0
0
0
0
0
0
0
0
0
0
0
0
0
0
0
0
0
0
0
0
0
0
0
0
0
0
0
0
0
0
0
0
0
0
0
0
0
0
0
0
0
0
0
0
0
0
0
0
0
0
0
0
0
0
0
0
0
0
0
0
0
0
0
0
0
0
0
0
0
0
0
0
0
0
0
0
0
0
0
0
0
0
0
0
0
0
0
0
0
0
0
0
0
0
0
0
0
0
0
0
0
0
0
0
0
0
0
0
0
0
0
0
0
0
0
0
0
0
0
0
0
0
0
0
0
0
0
0
0
0
0
0
0
0
0
0
0
0
0
0
0
0
0
0
0
0
0
0
0
0
0
0
0
0
0
0
0
0
0
0
0
0
0
0
0
0
0
0
0
0
0
0
0
0
0
0
0
0
0
0
0
0
0
0
0
0
0
0
0
0
0
0
0
0
0
0
0
0
0
0
0
0
0
0
0
0
0
0
0
0
0
0
0
0
0
0
0
0
0
0
0
0
0
0
0
-3.07017e-199
-1.58123e-199
-2.87856e-202
-1.48864e-202
-2.53066e-205
-1.31411e-205
-2.08582e-208
-1.08758e-208
-1.61154e-211
-8.43752e-212
-1.16698e-214
-6.13522e-215
-7.9191e-218
-4.1806e-218
-5.03516e-221
-2.66918e-221
-2.99923e-224
-1.59652e-224
-1.67338e-227
-8.94474e-228
-8.74375e-231
-4.69334e-231
-4.2781e-234
-2.30595e-234
-1.95965e-237
-1.06071e-237
-8.40257e-241
-4.56721e-241
-3.3719e-244
-1.84052e-244
-1.26616e-247
-6.94042e-248
-4.4482e-251
-2.44858e-251
-1.46177e-254
-8.08066e-255
-4.49255e-258
-2.49405e-258
-1.29107e-261
-7.19797e-262
-3.4687e-265
-1.94214e-265
-8.71091e-269
-4.89816e-269
-2.04435e-272
-1.15448e-272
-4.48288e-276
-2.54247e-276
-9.18301e-280
-5.23064e-280
-1.75692e-283
-1.00507e-283
-3.13884e-287
-1.80342e-287
-5.2354e-291
-3.02107e-291
-8.15082e-295
-4.72393e-295
-1.18422e-298
-6.89336e-299
-1.6053e-302
-9.38539e-303
-2.02988e-306
-1.19199e-306
-2.39379e-310
-1.41188e-310
-2.63213e-314
-1.55931e-314
-2.69796e-318
-1.60538e-318
-2.56914e-322
-1.5316e-322
0
0
0
0
0
0
0
0
0
0
0
0
0
0
0
0
0
0
0
0
0
0
0
0
0
0
0
0
0
0
0
0
0
0
0
0
0
0
0
0
0
0
0
0
0
0
0
0
0
0
0
0
0
0
0
0
0
0
0
0
0
0
0
0
0
0
0
0
0
0
0
0
0
0
0
0
0
0
0
0
0
0
0
0
0
0
0
0
0
0
0
0
0
0
0
0
0
0
0
0
0
0
0
0
0
0
0
0
0
0
0
0
0
0
0
0
0
0
0
0
0
0
0
0
0
0
0
0
0
0
0
0
0
0
0
0
0
0
0
0
0
0
0
0
0
0
0
0
0
0
0
0
0
0
0
0
0
0
0
0
0
0
0
0
0
0
0
0
0
0
0
0
0
0
0
0
0
0
0
0
0
0
0
0
0
0
0
0
0
0
0
0
0
0
0
0
0
0
0
0
0
0
0
0
0
0
0
0
0
0
0
0
0
0
0
0
0
0
0
0
0
0
0
0
0
0
0
0
0
0
0
0
0
0
0
0
0
0
0
0
0
0
0
0
0
0
0
0
0
0
0
0
0
0
0
-1.81227e-199
-1.03727e-199
-1.70077e-202
-9.77459e-203
-1.49676e-205
-8.63756e-206
-1.23504e-208
-7.15663e-209
-9.55356e-212
-5.55886e-212
-6.92696e-215
-4.04725e-215
-4.70704e-218
-2.76162e-218
-2.99718e-221
-1.76577e-221
-1.78801e-224
-1.05779e-224
-9.99199e-228
-5.93597e-228
-5.22981e-231
-3.1199e-231
-2.56332e-234
-1.53559e-234
-1.17632e-237
-7.0766e-238
-5.05344e-241
-3.0529e-241
-2.03192e-244
-1.23272e-244
-7.64556e-248
-4.65804e-248
-2.69165e-251
-1.64685e-251
-8.86451e-255
-5.44673e-255
-2.73048e-258
-1.68489e-258
-7.86481e-262
-4.87389e-262
-2.11798e-265
-1.31816e-265
-5.33156e-269
-3.33249e-269
-1.2543e-272
-7.87386e-273
-2.75727e-276
-1.73836e-276
-5.66236e-280
-3.58543e-280
-1.0861e-283
-6.90716e-284
-1.94537e-287
-1.24259e-287
-3.25318e-291
-2.08704e-291
-5.07801e-295
-3.27206e-295
-7.39716e-299
-4.78743e-299
-1.00537e-302
-6.53552e-303
-1.27463e-306
-8.32259e-307
-1.50709e-310
-9.88417e-311
-1.66147e-314
-1.09453e-314
-1.70744e-318
-1.12984e-318
-1.63042e-322
-1.08694e-322
0
0
0
0
0
0
0
0
0
0
0
0
0
0
0
0
0
0
0
0
0
0
0
0
0
0
0
0
0
0
0
0
0
0
0
0
0
0
0
0
0
0
0
0
0
0
0
0
0
0
0
0
0
0
0
0
0
0
0
0
0
0
0
0
0
0
0
0
0
0
0
0
0
0
0
0
0
0
0
0
0
0
0
0
0
0
0
0
0
0
0
0
0
0
0
0
0
0
0
0
0
0
0
0
0
0
0
0
0
0
0
0
0
0
0
0
0
0
0
0
0
0
0
0
0
0
0
0
0
0
0
0
0
0
0
0
0
0
0
0
0
0
0
0
0
0
0
0
0
0
0
0
0
0
0
0
0
0
0
0
0
0
0
0
0
0
0
0
0
0
0
0
0
0
0
0
0
0
0
0
0
0
0
0
0
0
0
0
0
0
0
0
0
0
0
0
0
0
0
0
0
0
0
0
0
0
0
0
0
0
0
0
0
0
0
0
0
0
0
0
0
0
0
0
0
0
0
0
0
0
0
0
0
0
0
0
0
0
0
0
0
0
0
0
0
0
0
0
0
0
0
0
0
0
0
-1.095e-199
-6.8951e-200
-1.02964e-202
-6.51024e-203
-9.0797e-206
-5.76463e-206
-7.50779e-209
-4.78635e-209
-5.82025e-212
-3.72588e-212
-4.22955e-215
-2.71882e-215
-2.88074e-218
-1.85949e-218
-1.83866e-221
-1.19179e-221
-1.09956e-224
-7.15691e-225
-6.16008e-228
-4.0263e-228
-3.23244e-231
-2.12162e-231
-1.58847e-234
-1.04698e-234
-7.30896e-238
-4.83774e-238
-3.14838e-241
-2.09269e-241
-1.26939e-244
-8.47325e-245
-4.78964e-248
-3.21069e-248
-1.69095e-251
-1.13834e-251
-5.58466e-255
-3.77562e-255
-1.72512e-258
-1.1713e-258
-4.9833e-262
-3.39801e-262
-1.34587e-265
-9.21674e-266
-3.39776e-269
-2.33689e-269
-8.01676e-273
-5.53762e-273
-1.76739e-276
-1.22614e-276
-3.64004e-280
-2.53631e-280
-7.00208e-284
-4.90025e-284
-1.25778e-287
-8.84089e-288
-2.10932e-291
-1.48916e-291
-3.30179e-295
-2.34133e-295
-4.82312e-299
-3.43527e-299
-6.57326e-303
-4.70262e-303
-8.35623e-307
-6.00485e-307
-9.90642e-311
-7.15069e-311
-1.09496e-314
-7.93918e-315
-1.12812e-318
-8.21646e-319
-1.08694e-322
-7.90505e-323
0
0
0
0
0
0
0
0
0
0
0
0
0
0
0
0
0
0
0
0
0
0
0
0
0
0
0
0
0
0
0
0
0
0
0
0
0
0
0
0
0
0
0
0
0
0
0
0
0
0
0
0
0
0
0
0
0
0
0
0
0
0
0
0
0
0
0
0
0
0
0
0
0
0
0
0
0
0
0
0
0
0
0
0
0
0
0
0
0
0
0
0
0
0
0
0
0
0
0
0
0
0
0
0
0
0
0
0
0
0
0
0
0
0
0
0
0
0
0
0
0
0
0
0
0
0
0
0
0
0
0
0
0
0
0
0
0
0
0
0
0
0
0
0
0
0
0
0
0
0
0
0
0
0
0
0
0
0
0
0
0
0
0
0
0
0
0
0
0
0
0
0
0
0
0
0
0
0
0
0
0
0
0
0
0
0
0
0
0
0
0
0
0
0
0
0
0
0
0
0
0
0
0
0
0
0
0
0
0
0
0
0
0
0
0
0
0
0
0
0
0
0
0
0
0
0
0
0
0
0
0
0
0
0
0
0
0
0
0
0
0
0
0
0
0
0
0
0
0
0
0
0
0
0
0
-6.78945e-200
-4.66454e-200
-6.39989e-203
-4.41503e-203
-5.65777e-206
-3.91918e-206
-4.69017e-209
-3.26235e-209
-3.64531e-212
-2.54609e-212
-2.65593e-215
-1.86276e-215
-1.81371e-218
-1.27736e-218
-1.16069e-221
-8.2086e-222
-6.95973e-225
-4.94261e-225
-3.90951e-228
-2.78806e-228
-2.057e-231
-1.4731e-231
-1.01356e-234
-7.28911e-235
-4.67623e-238
-3.37714e-238
-2.01973e-241
-1.46481e-241
-8.16515e-245
-5.94689e-245
-3.08907e-248
-2.25942e-248
-1.09346e-251
-8.03195e-252
-3.62084e-255
-2.67103e-255
-1.1214e-258
-8.30785e-259
-3.24766e-262
-2.41637e-262
-8.79337e-266
-6.5708e-266
-2.2255e-269
-1.67019e-269
-5.26378e-273
-3.9675e-273
-1.16326e-276
-8.80608e-277
-2.40144e-280
-1.82588e-280
-4.63011e-284
-3.53583e-284
-8.3357e-288
-6.39365e-288
-1.40097e-291
-1.07931e-291
-2.19765e-295
-1.70057e-295
-3.21683e-299
-2.5003e-299
-4.39283e-303
-3.42957e-303
-5.59506e-307
-4.38773e-307
-6.64522e-311
-5.23469e-311
-7.35794e-315
-5.82226e-315
-7.59349e-319
-6.03585e-319
-7.41098e-323
-5.92879e-323
0
0
0
0
0
0
0
0
0
0
0
0
0
0
0
0
0
0
0
0
0
0
0
0
0
0
0
0
0
0
0
0
0
0
0
0
0
0
0
0
0
0
0
0
0
0
0
0
0
0
0
0
0
0
0
0
0
0
0
0
0
0
0
0
0
0
0
0
0
0
0
0
0
0
0
0
0
0
0
0
0
0
0
0
0
0
0
0
0
0
0
0
0
0
0
0
0
0
0
0
0
0
0
0
0
0
0
0
0
0
0
0
0
0
0
0
0
0
0
0
0
0
0
0
0
0
0
0
0
0
0
0
0
0
0
0
0
0
0
0
0
0
0
0
0
0
0
0
0
0
0
0
0
0
0
0
0
0
0
0
0
0
0
0
0
0
0
0
0
0
0
0
0
0
0
0
0
0
0
0
0
0
0
0
0
0
0
0
0
0
0
0
0
0
0
0
0
0
0
0
0
0
0
0
0
0
0
0
0
0
0
0
0
0
0
0
0
0
0
0
0
0
0
0
0
0
0
0
0
0
0
0
0
0
0
0
0
0
0
0
0
0
0
0
0
0
0
0
0
0
0
0
0
0
0
-4.29489e-200
-3.19699e-200
-4.05788e-203
-3.03302e-203
-3.59567e-206
-2.69864e-206
-2.98762e-209
-2.25157e-209
-2.32739e-212
-1.76127e-212
-1.69958e-215
-1.29152e-215
-1.16325e-218
-8.87641e-219
-7.46093e-222
-5.71697e-222
-4.4836e-225
-3.44995e-225
-2.52407e-228
-1.95031e-228
-1.33088e-231
-1.03268e-231
-6.57156e-235
-5.12057e-235
-3.03814e-238
-2.37732e-238
-1.31486e-241
-1.03322e-241
-5.32601e-245
-4.20298e-245
-2.01882e-248
-1.59991e-248
-7.15945e-252
-5.69808e-252
-2.37502e-255
-1.89833e-255
-7.36843e-259
-5.9148e-259
-2.13755e-262
-1.72325e-262
-5.79704e-266
-4.69363e-266
-1.46945e-269
-1.19491e-269
-3.48074e-273
-2.84273e-273
-7.70315e-277
-6.31861e-277
-1.5924e-280
-1.3119e-280
-3.07418e-284
-2.54379e-284
-5.54125e-288
-4.60541e-288
-9.32376e-292
-7.78335e-292
-1.46414e-295
-1.22767e-295
-2.14529e-299
-1.80681e-299
-2.93225e-303
-2.48064e-303
-3.73791e-307
-3.17639e-307
-4.4429e-311
-3.79248e-311
-4.92283e-315
-4.22113e-315
-5.08354e-319
-4.37871e-319
-4.94066e-323
-4.44659e-323
0
0
0
0
0
0
0
0
0
0
0
0
0
0
0
0
0
0
0
0
0
0
0
0
0
0
0
0
0
0
0
0
0
0
0
0
0
0
0
0
0
0
0
0
0
0
0
0
0
0
0
0
0
0
0
0
0
0
0
0
0
0
0
0
0
0
0
0
0
0
0
0
0
0
0
0
0
0
0
0
0
0
0
0
0
0
0
0
0
0
0
0
0
0
0
0
0
0
0
0
0
0
0
0
0
0
0
0
0
0
0
0
0
0
0
0
0
0
0
0
0
0
0
0
0
0
0
0
0
0
0
0
0
0
0
0
0
0
0
0
0
0
0
0
0
0
0
0
0
0
0
0
0
0
0
0
0
0
0
0
0
0
0
0
0
0
0
0
0
0
0
0
0
0
0
0
0
0
0
0
0
0
0
0
0
0
0
0
0
0
0
0
0
0
0
0
0
0
0
0
0
0
0
0
0
0
0
0
0
0
0
0
0
0
0
0
0
0
0
0
0
0
0
0
0
0
0
0
0
0
0
0
0
0
0
0
0
0
0
0
0
0
0
0
0
0
0
0
0
0
0
0
0
0
0
-2.74115e-200
-2.19767e-200
-2.59426e-203
-2.08848e-203
-2.30255e-206
-1.86129e-206
-1.91624e-209
-1.55544e-209
-1.4951e-212
-1.21862e-212
-1.09345e-215
-8.94952e-216
-7.49484e-219
-6.15984e-219
-4.81383e-222
-3.9729e-222
-2.89674e-225
-2.40071e-225
-1.63284e-228
-1.35891e-228
-8.6202e-232
-7.20423e-232
-4.26141e-235
-3.57644e-235
-1.97231e-238
-1.66227e-238
-8.54477e-242
-7.23209e-242
-3.46458e-245
-2.94479e-245
-1.31445e-248
-1.122e-248
-4.66548e-252
-3.99942e-252
-1.54891e-255
-1.33347e-255
-4.80892e-259
-4.15782e-259
-1.39596e-262
-1.21216e-262
-3.78807e-266
-3.30352e-266
-9.60712e-270
-8.41454e-270
-2.27672e-273
-2.00277e-273
-5.04051e-277
-4.45335e-277
-1.04231e-280
-9.2493e-281
-2.01275e-284
-1.79392e-284
-3.6287e-288
-3.24844e-288
-6.10647e-292
-5.49074e-292
-9.58981e-296
-8.66114e-296
-1.40512e-299
-1.2747e-299
-1.92044e-303
-1.74999e-303
-2.4478e-307
-2.24055e-307
-2.90894e-311
-2.67464e-311
-3.22237e-315
-2.97623e-315
-3.32654e-319
-3.08643e-319
-2.96439e-323
-2.96439e-323
0
0
0
0
0
0
0
0
0
0
0
0
0
0
0
0
0
0
0
0
0
0
0
0
0
0
0
0
0
0
0
0
0
0
0
0
0
0
0
0
0
0
0
0
0
0
0
0
0
0
0
0
0
0
0
0
0
0
0
0
0
0
0
0
0
0
0
0
0
0
0
0
0
0
0
0
0
0
0
0
0
0
0
0
0
0
0
0
0
0
0
0
0
0
0
0
0
0
0
0
0
0
0
0
0
0
0
0
0
0
0
0
0
0
0
0
0
0
0
0
0
0
0
0
0
0
0
0
0
0
0
0
0
0
0
0
0
0
0
0
0
0
0
0
0
0
0
0
0
0
0
0
0
0
0
0
0
0
0
0
0
0
0
0
0
0
0
0
0
0
0
0
0
0
0
0
0
0
0
0
0
0
0
0
0
0
0
0
0
0
0
0
0
0
0
0
0
0
0
0
0
0
0
0
0
0
0
0
0
0
0
0
0
0
0
0
0
0
0
0
0
0
0
0
0
0
0
0
0
0
0
0
0
0
0
0
0
0
0
0
0
0
0
0
0
0
0
0
0
0
0
0
0
0
0
-2.48917e-200
-1.14054e-200
-2.35742e-203
-1.08463e-203
-2.09361e-206
-9.67233e-207
-1.74328e-209
-8.08719e-210
-1.36076e-212
-6.33883e-213
-9.95555e-216
-4.6569e-216
-6.82574e-219
-3.20617e-219
-4.38493e-222
-2.06828e-222
-2.63894e-225
-1.24994e-225
-1.48756e-228
-7.07547e-229
-7.8528e-232
-3.75083e-232
-3.88151e-235
-1.86179e-235
-1.79608e-238
-8.65144e-239
-7.77897e-242
-3.76288e-242
-3.15288e-245
-1.53161e-245
-1.19564e-248
-5.83294e-249
-4.24153e-252
-2.07807e-252
-1.4073e-255
-6.92437e-256
-4.36626e-259
-2.15757e-259
-1.2665e-262
-6.28536e-263
-3.43391e-266
-1.71154e-266
-8.70106e-270
-4.35562e-270
-2.05999e-273
-1.03569e-273
-4.55597e-277
-2.30057e-277
-9.41076e-281
-4.77286e-281
-1.81513e-284
-9.24624e-285
-3.26839e-288
-1.67226e-288
-5.49302e-292
-2.82292e-292
-8.61476e-296
-4.44689e-296
-1.26047e-299
-6.5355e-300
-1.72022e-303
-8.95921e-304
-2.18926e-307
-1.14533e-307
-2.5976e-311
-1.36508e-311
-2.8728e-315
-1.51654e-315
-2.96074e-319
-1.57004e-319
-2.96439e-323
-1.4822e-323
0
0
0
0
0
0
0
0
0
0
0
0
0
0
0
0
0
0
0
0
0
0
0
0
0
0
0
0
0
0
0
0
0
0
0
0
0
0
0
0
0
0
0
0
0
0
0
0
0
0
0
0
0
0
0
0
0
0
0
0
0
0
0
0
0
0
0
0
0
0
0
0
0
0
0
0
0
0
0
0
0
0
0
0
0
0
0
0
0
0
0
0
0
0
0
0
0
0
0
0
0
0
0
0
0
0
0
0
0
0
0
0
0
0
0
0
0
0
0
0
0
0
0
0
0
0
0
0
0
0
0
0
0
0
0
0
0
0
0
0
0
0
0
0
0
0
0
0
0
0
0
0
0
0
0
0
0
0
0
0
0
0
0
0
0
0
0
0
0
0
0
0
0
0
0
0
0
0
0
0
0
0
0
0
0
0
0
0
0
0
0
0
0
0
0
0
0
0
0
0
0
0
0
0
0
0
0
0
0
0
0
0
0
0
0
0
0
0
0
0
0
0
0
0
0
0
0
0
0
0
0
0
0
0
0
0
0
0
0
0
0
0
0
0
0
0
0
0
0
0
0
0
0
0
0
-1.11595e-200
-5.75382e-201
-1.05606e-203
-5.46752e-204
-9.37098e-207
-4.87166e-207
-7.79582e-210
-4.06958e-210
-6.07928e-213
-3.18668e-213
-4.4431e-216
-2.33871e-216
-3.04293e-219
-1.60838e-219
-1.95254e-222
-1.03635e-222
-1.17364e-225
-6.25542e-226
-6.60727e-229
-3.53642e-229
-3.48329e-232
-1.87221e-232
-1.71933e-235
-9.28007e-236
-7.94425e-239
-4.30604e-239
-3.43553e-242
-1.87006e-242
-1.39028e-245
-7.59987e-246
-5.26378e-249
-2.88967e-249
-1.86423e-252
-1.02778e-252
-6.17479e-256
-3.41887e-256
-1.91243e-259
-1.06343e-259
-5.53734e-263
-3.09238e-263
-1.4986e-266
-8.4053e-267
-3.79012e-270
-2.13501e-270
-8.95599e-274
-5.06696e-274
-1.97687e-277
-1.12332e-277
-4.07527e-281
-2.32585e-281
-7.84436e-285
-4.49664e-285
-1.40957e-288
-8.1158e-289
-2.36404e-292
-1.36715e-292
-3.69968e-296
-2.14908e-296
-5.40154e-300
-3.15165e-300
-7.35562e-304
-4.31102e-304
-9.34051e-308
-5.49894e-308
-1.10579e-311
-6.53937e-312
-1.22018e-315
-7.24852e-316
-1.25463e-319
-7.48707e-320
-9.88131e-324
-4.94066e-324
0
0
0
0
0
0
0
0
0
0
0
0
0
0
0
0
0
0
0
0
0
0
0
0
0
0
0
0
0
0
0
0
0
0
0
0
0
0
0
0
0
0
0
0
0
0
0
0
0
0
0
0
0
0
0
0
0
0
0
0
0
0
0
0
0
0
0
0
0
0
0
0
0
0
0
0
0
0
0
0
0
0
0
0
0
0
0
0
0
0
0
0
0
0
0
0
0
0
0
0
0
0
0
0
0
0
0
0
0
0
0
0
0
0
0
0
0
0
0
0
0
0
0
0
0
0
0
0
0
0
0
0
0
0
0
0
0
0
0
0
0
0
0
0
0
0
0
0
0
0
0
0
0
0
0
0
0
0
0
0
0
0
0
0
0
0
0
0
0
0
0
0
0
0
0
0
0
0
0
0
0
0
0
0
0
0
0
0
0
0
0
0
0
0
0
0
0
0
0
0
0
0
0
0
0
0
0
0
0
0
0
0
0
0
0
0
0
0
0
0
0
0
0
0
0
0
0
0
0
0
0
0
0
0
0
0
0
0
0
0
0
0
0
0
0
0
0
0
0
0
0
0
0
0
0
-4.92577e-201
-2.8226e-201
-4.65376e-204
-2.67774e-204
-4.12252e-207
-2.38187e-207
-3.42361e-210
-1.98626e-210
-2.66501e-213
-1.55257e-213
-1.94419e-216
-1.13735e-216
-1.32903e-219
-7.80724e-220
-8.51165e-223
-5.02098e-223
-5.10627e-226
-3.02478e-226
-2.86901e-229
-1.70664e-229
-1.50947e-232
-9.0169e-233
-7.43539e-236
-4.46031e-236
-3.42842e-239
-2.06533e-239
-1.47951e-242
-8.95057e-243
-5.97444e-246
-3.62971e-246
-2.2571e-249
-1.37712e-249
-7.97624e-253
-4.88735e-253
-2.63607e-256
-1.62215e-256
-8.14602e-260
-5.03434e-260
-2.3533e-263
-1.46064e-263
-6.35432e-267
-3.96105e-267
-1.60337e-270
-1.00382e-270
-3.77991e-274
-2.37679e-274
-8.32391e-278
-5.2569e-278
-1.7119e-281
-1.08588e-281
-3.28736e-285
-2.09438e-285
-5.89301e-289
-3.77102e-289
-9.85958e-293
-6.33723e-293
-1.53927e-296
-9.93764e-297
-2.24188e-300
-1.45383e-300
-3.04545e-304
-1.98378e-304
-3.85778e-308
-2.52422e-308
-4.55584e-312
-2.99444e-312
-5.01471e-316
-3.31097e-316
-5.14372e-320
-3.41152e-320
-4.94066e-324
-4.94066e-324
0
0
0
0
0
0
0
0
0
0
0
0
0
0
0
0
0
0
0
0
0
0
0
0
0
0
0
0
0
0
0
0
0
0
0
0
0
0
0
0
0
0
0
0
0
0
0
0
0
0
0
0
0
0
0
0
0
0
0
0
0
0
0
0
0
0
0
0
0
0
0
0
0
0
0
0
0
0
0
0
0
0
0
0
0
0
0
0
0
0
0
0
0
0
0
0
0
0
0
0
0
0
0
0
0
0
0
0
0
0
0
0
0
0
0
0
0
0
0
0
0
0
0
0
0
0
0
0
0
0
0
0
0
0
0
0
0
0
0
0
0
0
0
0
0
0
0
0
0
0
0
0
0
0
0
0
0
0
0
0
0
0
0
0
0
0
0
0
0
0
0
0
0
0
0
0
0
0
0
0
0
0
0
0
0
0
0
0
0
0
0
0
0
0
0
0
0
0
0
0
0
0
0
0
0
0
0
0
0
0
0
0
0
0
0
0
0
0
0
0
0
0
0
0
0
0
0
0
0
0
0
0
0
0
0
0
0
0
0
0
0
0
0
0
0
0
0
0
0
0
0
0
0
0
0
-2.13873e-201
-1.34845e-201
-2.01625e-204
-1.27647e-204
-1.78216e-207
-1.13294e-207
-1.47673e-210
-9.42669e-211
-1.14694e-213
-7.35186e-214
-8.34821e-217
-5.37347e-217
-5.69366e-220
-3.6801e-220
-3.63801e-223
-2.36127e-223
-2.1774e-226
-1.41917e-226
-1.22052e-229
-7.98842e-230
-6.40625e-233
-4.21062e-233
-3.14808e-236
-2.07786e-236
-1.44808e-239
-9.59832e-240
-6.23396e-243
-4.1496e-243
-2.51123e-246
-1.67869e-246
-9.46407e-250
-6.35348e-250
-3.33625e-253
-2.24929e-253
-1.09988e-256
-7.44719e-257
-3.39047e-260
-2.30552e-260
-9.77041e-264
-6.67256e-264
-2.63161e-267
-1.805e-267
-6.62371e-271
-4.56287e-271
-1.55763e-274
-1.07768e-274
-3.42152e-278
-2.37759e-278
-7.01907e-282
-4.8989e-282
-1.34448e-285
-9.42497e-286
-2.40409e-289
-1.69274e-289
-4.01215e-293
-2.83751e-293
-6.24796e-297
-4.43839e-297
-9.07694e-301
-6.47681e-301
-1.22994e-304
-8.81551e-305
-1.55408e-308
-1.11889e-308
-1.83067e-312
-1.32397e-312
-2.00999e-316
-1.46025e-316
-2.0563e-320
-1.50097e-320
0
0
0
0
0
0
0
0
0
0
0
0
0
0
0
0
0
0
0
0
0
0
0
0
0
0
0
0
0
0
0
0
0
0
0
0
0
0
0
0
0
0
0
0
0
0
0
0
0
0
0
0
0
0
0
0
0
0
0
0
0
0
0
0
0
0
0
0
0
0
0
0
0
0
0
0
0
0
0
0
0
0
0
0
0
0
0
0
0
0
0
0
0
0
0
0
0
0
0
0
0
0
0
0
0
0
0
0
0
0
0
0
0
0
0
0
0
0
0
0
0
0
0
0
0
0
0
0
0
0
0
0
0
0
0
0
0
0
0
0
0
0
0
0
0
0
0
0
0
0
0
0
0
0
0
0
0
0
0
0
0
0
0
0
0
0
0
0
0
0
0
0
0
0
0
0
0
0
0
0
0
0
0
0
0
0
0
0
0
0
0
0
0
0
0
0
0
0
0
0
0
0
0
0
0
0
0
0
0
0
0
0
0
0
0
0
0
0
0
0
0
0
0
0
0
0
0
0
0
0
0
0
0
0
0
0
0
0
0
0
0
0
0
0
0
0
0
0
0
0
0
0
0
0
0
0
0
-9.18855e-202
-6.3216e-202
-8.64108e-205
-5.9695e-205
-7.61902e-208
-5.28521e-208
-6.29761e-211
-4.38669e-211
-4.879e-214
-3.41265e-214
-3.54239e-217
-2.48807e-217
-2.40992e-220
-1.69972e-220
-1.53596e-223
-1.08785e-223
-9.16976e-227
-6.5217e-227
-5.12698e-230
-3.66173e-230
-2.68423e-233
-1.92517e-233
-1.3157e-236
-9.47621e-237
-6.03664e-240
-4.36624e-240
-2.59216e-243
-1.88284e-243
-1.04154e-246
-7.59749e-247
-3.91523e-250
-2.86815e-250
-1.37667e-253
-1.01281e-253
-4.52698e-257
-3.34476e-257
-1.39191e-260
-1.03284e-260
-4.0009e-264
-2.98161e-264
-1.07488e-267
-8.04506e-268
-2.69857e-271
-2.02854e-271
-6.32981e-275
-4.77893e-275
-1.3869e-278
-1.05167e-278
-2.83794e-282
-2.16142e-282
-5.42225e-286
-4.14784e-286
-9.67119e-290
-7.43083e-290
-1.60995e-293
-1.24248e-293
-2.50082e-297
-1.9386e-297
-3.62407e-301
-2.82187e-301
-4.89842e-305
-3.83124e-305
-6.17397e-309
-4.85062e-309
-7.25476e-313
-5.72549e-313
-7.94569e-317
-6.29922e-317
-8.10762e-321
-6.45744e-321
0
0
0
0
0
0
0
0
0
0
0
0
0
0
0
0
0
0
0
0
0
0
0
0
0
0
0
0
0
0
0
0
0
0
0
0
0
0
0
0
0
0
0
0
0
0
0
0
0
0
0
0
0
0
0
0
0
0
0
0
0
0
0
0
0
0
0
0
0
0
0
0
0
0
0
0
0
0
0
0
0
0
0
0
0
0
0
0
0
0
0
0
0
0
0
0
0
0
0
0
0
0
0
0
0
0
0
0
0
0
0
0
0
0
0
0
0
0
0
0
0
0
0
0
0
0
0
0
0
0
0
0
0
0
0
0
0
0
0
0
0
0
0
0
0
0
0
0
0
0
0
0
0
0
0
0
0
0
0
0
0
0
0
0
0
0
0
0
0
0
0
0
0
0
0
0
0
0
0
0
0
0
0
0
0
0
0
0
0
0
0
0
0
0
0
0
0
0
0
0
0
0
0
0
0
0
0
0
0
0
0
0
0
0
0
0
0
0
0
0
0
0
0
0
0
0
0
0
0
0
0
0
0
0
0
0
0
0
0
0
0
0
0
0
0
0
0
0
0
0
0
0
0
0
0
0
0
-4.00637e-202
-2.98682e-202
-3.75796e-205
-2.81321e-205
-3.30494e-208
-2.48431e-208
-2.7247e-211
-2.05665e-211
-2.10549e-214
-1.59586e-214
-1.52474e-217
-1.1605e-217
-1.03462e-220
-7.90749e-221
-6.57718e-224
-5.04789e-224
-3.9165e-227
-3.01845e-227
-2.18416e-230
-1.69041e-230
-1.14058e-233
-8.8646e-234
-5.57632e-237
-4.35223e-237
-2.55197e-240
-2.0002e-240
-1.09303e-243
-8.60336e-244
-4.38063e-247
-3.46273e-247
-1.64254e-250