/*--------------------------------*- C++ -*----------------------------------*\
| =========                 |                                                 |
| \\      /  F ield         | OpenFOAM: The Open Source CFD Toolbox           |
|  \\    /   O peration     | Version:  v1912                                 |
|   \\  /    A nd           | Website:  www.openfoam.com                      |
|    \\/     M anipulation  |                                                 |
\*---------------------------------------------------------------------------*/
FoamFile
{
    version     2.0;
    format      ascii;
    class       volScalarField;
    location    "40";
    object      k;
}
// * * * * * * * * * * * * * * * * * * * * * * * * * * * * * * * * * * * * * //

dimensions      [0 2 -2 0 0 0 0];


internalField   nonuniform List<scalar> 
14268
(
2.38719e-11
2.39055e-11
2.39377e-11
2.39685e-11
2.39978e-11
2.40257e-11
2.40523e-11
2.40777e-11
2.41019e-11
2.41249e-11
2.41468e-11
2.41677e-11
2.41876e-11
2.42065e-11
2.42245e-11
2.42416e-11
2.42578e-11
2.42733e-11
2.4288e-11
2.4302e-11
2.43152e-11
2.43278e-11
2.43398e-11
2.43511e-11
2.43619e-11
2.43721e-11
2.43818e-11
2.4391e-11
2.43997e-11
2.4408e-11
2.44158e-11
2.44232e-11
2.44302e-11
2.44369e-11
2.44432e-11
2.44492e-11
2.44548e-11
2.44601e-11
2.44652e-11
2.44699e-11
2.44744e-11
2.44787e-11
2.44827e-11
2.44865e-11
2.44901e-11
2.44935e-11
2.44967e-11
2.44997e-11
2.45025e-11
2.45052e-11
2.45078e-11
2.45101e-11
2.45124e-11
2.45145e-11
2.45165e-11
2.45183e-11
2.45201e-11
2.45218e-11
2.45233e-11
2.45248e-11
2.45262e-11
2.45275e-11
2.45287e-11
2.45298e-11
2.45309e-11
2.45319e-11
2.45328e-11
2.45337e-11
2.45345e-11
2.45353e-11
2.4536e-11
2.45367e-11
2.45374e-11
2.4538e-11
2.45385e-11
2.4539e-11
2.45395e-11
2.454e-11
2.45404e-11
2.45408e-11
2.45412e-11
2.45415e-11
2.45418e-11
2.45421e-11
2.45424e-11
2.45427e-11
2.45429e-11
2.45432e-11
2.45434e-11
2.45436e-11
2.45437e-11
2.45439e-11
2.45441e-11
2.45442e-11
2.45444e-11
2.45445e-11
2.45446e-11
2.45447e-11
2.45448e-11
2.45449e-11
2.4545e-11
2.45451e-11
2.45451e-11
2.45452e-11
2.45453e-11
2.45453e-11
2.45454e-11
2.45454e-11
2.45455e-11
2.45455e-11
2.45455e-11
2.45456e-11
2.45456e-11
2.45456e-11
2.45457e-11
2.45457e-11
2.45457e-11
2.45457e-11
2.45457e-11
2.45457e-11
2.45457e-11
2.45457e-11
2.45457e-11
2.45458e-11
2.45457e-11
2.45458e-11
2.45457e-11
2.45458e-11
2.45457e-11
2.45457e-11
2.45456e-11
2.45457e-11
2.45456e-11
2.45457e-11
2.45456e-11
2.45457e-11
2.45456e-11
2.45458e-11
2.45456e-11
2.45459e-11
2.45457e-11
2.4546e-11
2.45459e-11
2.45462e-11
2.45461e-11
2.45463e-11
2.45462e-11
2.45464e-11
2.45463e-11
2.45464e-11
2.45463e-11
2.45463e-11
2.45462e-11
2.45463e-11
2.45462e-11
2.45462e-11
2.45462e-11
2.45462e-11
2.45462e-11
2.45462e-11
2.45464e-11
2.45465e-11
2.45559e-11
2.478e-11
6.99808e-10
7.00813e-10
7.01777e-10
7.02695e-10
7.03572e-10
7.04406e-10
7.05203e-10
7.05961e-10
7.06684e-10
7.07373e-10
7.08028e-10
7.08652e-10
7.09247e-10
7.09812e-10
7.1035e-10
7.10861e-10
7.11348e-10
7.1181e-10
7.12249e-10
7.12667e-10
7.13064e-10
7.1344e-10
7.13798e-10
7.14138e-10
7.1446e-10
7.14765e-10
7.15055e-10
7.1533e-10
7.15591e-10
7.15838e-10
7.16072e-10
7.16294e-10
7.16504e-10
7.16703e-10
7.16892e-10
7.1707e-10
7.17238e-10
7.17398e-10
7.17549e-10
7.17691e-10
7.17826e-10
7.17954e-10
7.18074e-10
7.18188e-10
7.18295e-10
7.18396e-10
7.18492e-10
7.18582e-10
7.18667e-10
7.18747e-10
7.18823e-10
7.18894e-10
7.18961e-10
7.19024e-10
7.19084e-10
7.1914e-10
7.19192e-10
7.19242e-10
7.19289e-10
7.19332e-10
7.19374e-10
7.19412e-10
7.19449e-10
7.19483e-10
7.19515e-10
7.19545e-10
7.19573e-10
7.19599e-10
7.19624e-10
7.19647e-10
7.19669e-10
7.19689e-10
7.19708e-10
7.19726e-10
7.19743e-10
7.19759e-10
7.19773e-10
7.19787e-10
7.198e-10
7.19811e-10
7.19823e-10
7.19833e-10
7.19843e-10
7.19852e-10
7.1986e-10
7.19868e-10
7.19875e-10
7.19882e-10
7.19888e-10
7.19894e-10
7.199e-10
7.19905e-10
7.19909e-10
7.19914e-10
7.19918e-10
7.19921e-10
7.19925e-10
7.19928e-10
7.19931e-10
7.19934e-10
7.19936e-10
7.19939e-10
7.19941e-10
7.19943e-10
7.19945e-10
7.19947e-10
7.19948e-10
7.1995e-10
7.19951e-10
7.19952e-10
7.19953e-10
7.19954e-10
7.19955e-10
7.19956e-10
7.19956e-10
7.19957e-10
7.19958e-10
7.19958e-10
7.19958e-10
7.19959e-10
7.19959e-10
7.19959e-10
7.19959e-10
7.1996e-10
7.19959e-10
7.1996e-10
7.19958e-10
7.19959e-10
7.19957e-10
7.19959e-10
7.19956e-10
7.19958e-10
7.19955e-10
7.19958e-10
7.19954e-10
7.19958e-10
7.19954e-10
7.1996e-10
7.19955e-10
7.19963e-10
7.19959e-10
7.19967e-10
7.19963e-10
7.19973e-10
7.1997e-10
7.19976e-10
7.19973e-10
7.19977e-10
7.19974e-10
7.19977e-10
7.19974e-10
7.19976e-10
7.19974e-10
7.19975e-10
7.19973e-10
7.19974e-10
7.19972e-10
7.19973e-10
7.19972e-10
7.19974e-10
7.19978e-10
7.19981e-10
7.20253e-10
7.26076e-10
4.61774e-09
4.62409e-09
4.63018e-09
4.63598e-09
4.64152e-09
4.64679e-09
4.65182e-09
4.65661e-09
4.66118e-09
4.66552e-09
4.66966e-09
4.6736e-09
4.67736e-09
4.68092e-09
4.68432e-09
4.68755e-09
4.69062e-09
4.69354e-09
4.69631e-09
4.69895e-09
4.70145e-09
4.70383e-09
4.70608e-09
4.70823e-09
4.71026e-09
4.71219e-09
4.71402e-09
4.71575e-09
4.7174e-09
4.71896e-09
4.72043e-09
4.72183e-09
4.72316e-09
4.72441e-09
4.7256e-09
4.72673e-09
4.72779e-09
4.7288e-09
4.72975e-09
4.73065e-09
4.7315e-09
4.7323e-09
4.73306e-09
4.73378e-09
4.73445e-09
4.73509e-09
4.7357e-09
4.73626e-09
4.7368e-09
4.73731e-09
4.73778e-09
4.73823e-09
4.73866e-09
4.73905e-09
4.73943e-09
4.73978e-09
4.74011e-09
4.74043e-09
4.74072e-09
4.741e-09
4.74126e-09
4.7415e-09
4.74173e-09
4.74194e-09
4.74215e-09
4.74234e-09
4.74251e-09
4.74268e-09
4.74284e-09
4.74298e-09
4.74312e-09
4.74325e-09
4.74337e-09
4.74348e-09
4.74359e-09
4.74369e-09
4.74378e-09
4.74386e-09
4.74394e-09
4.74402e-09
4.74409e-09
4.74415e-09
4.74421e-09
4.74427e-09
4.74432e-09
4.74437e-09
4.74442e-09
4.74446e-09
4.7445e-09
4.74454e-09
4.74457e-09
4.74461e-09
4.74464e-09
4.74466e-09
4.74469e-09
4.74471e-09
4.74473e-09
4.74475e-09
4.74477e-09
4.74479e-09
4.74481e-09
4.74482e-09
4.74484e-09
4.74485e-09
4.74486e-09
4.74487e-09
4.74488e-09
4.74489e-09
4.7449e-09
4.7449e-09
4.74491e-09
4.74492e-09
4.74492e-09
4.74493e-09
4.74493e-09
4.74494e-09
4.74494e-09
4.74494e-09
4.74494e-09
4.74495e-09
4.74495e-09
4.74495e-09
4.74495e-09
4.74495e-09
4.74495e-09
4.74495e-09
4.74494e-09
4.74495e-09
4.74494e-09
4.74495e-09
4.74493e-09
4.74494e-09
4.74492e-09
4.74494e-09
4.74492e-09
4.74494e-09
4.74492e-09
4.74495e-09
4.74492e-09
4.74497e-09
4.74495e-09
4.745e-09
4.74497e-09
4.74503e-09
4.74501e-09
4.74505e-09
4.74503e-09
4.74506e-09
4.74504e-09
4.74506e-09
4.74504e-09
4.74505e-09
4.74504e-09
4.74505e-09
4.74503e-09
4.74504e-09
4.74503e-09
4.74504e-09
4.74503e-09
4.74504e-09
4.74507e-09
4.74508e-09
4.74677e-09
4.77869e-09
1.45834e-08
1.46017e-08
1.46192e-08
1.46359e-08
1.46519e-08
1.46671e-08
1.46815e-08
1.46953e-08
1.47085e-08
1.4721e-08
1.47329e-08
1.47442e-08
1.4755e-08
1.47653e-08
1.4775e-08
1.47843e-08
1.47931e-08
1.48015e-08
1.48095e-08
1.48171e-08
1.48243e-08
1.48311e-08
1.48376e-08
1.48437e-08
1.48496e-08
1.48551e-08
1.48604e-08
1.48654e-08
1.48701e-08
1.48746e-08
1.48788e-08
1.48828e-08
1.48866e-08
1.48902e-08
1.48936e-08
1.48969e-08
1.48999e-08
1.49028e-08
1.49056e-08
1.49081e-08
1.49106e-08
1.49129e-08
1.49151e-08
1.49171e-08
1.49191e-08
1.49209e-08
1.49226e-08
1.49243e-08
1.49258e-08
1.49273e-08
1.49286e-08
1.49299e-08
1.49311e-08
1.49323e-08
1.49334e-08
1.49344e-08
1.49353e-08
1.49362e-08
1.49371e-08
1.49379e-08
1.49386e-08
1.49393e-08
1.494e-08
1.49406e-08
1.49412e-08
1.49417e-08
1.49422e-08
1.49427e-08
1.49431e-08
1.49436e-08
1.4944e-08
1.49443e-08
1.49447e-08
1.4945e-08
1.49453e-08
1.49456e-08
1.49458e-08
1.49461e-08
1.49463e-08
1.49465e-08
1.49467e-08
1.49469e-08
1.49471e-08
1.49473e-08
1.49474e-08
1.49476e-08
1.49477e-08
1.49478e-08
1.49479e-08
1.4948e-08
1.49481e-08
1.49482e-08
1.49483e-08
1.49484e-08
1.49485e-08
1.49485e-08
1.49486e-08
1.49486e-08
1.49487e-08
1.49488e-08
1.49488e-08
1.49488e-08
1.49489e-08
1.49489e-08
1.4949e-08
1.4949e-08
1.4949e-08
1.4949e-08
1.49491e-08
1.49491e-08
1.49491e-08
1.49491e-08
1.49491e-08
1.49491e-08
1.49492e-08
1.49492e-08
1.49492e-08
1.49492e-08
1.49492e-08
1.49492e-08
1.49492e-08
1.49492e-08
1.49492e-08
1.49492e-08
1.49492e-08
1.49492e-08
1.49492e-08
1.49492e-08
1.49492e-08
1.49492e-08
1.49492e-08
1.49492e-08
1.49491e-08
1.49492e-08
1.49491e-08
1.49492e-08
1.49491e-08
1.49492e-08
1.49491e-08
1.49493e-08
1.49492e-08
1.49493e-08
1.49493e-08
1.49494e-08
1.49494e-08
1.49495e-08
1.49494e-08
1.49495e-08
1.49495e-08
1.49495e-08
1.49495e-08
1.49495e-08
1.49495e-08
1.49495e-08
1.49494e-08
1.49495e-08
1.49494e-08
1.49495e-08
1.49494e-08
1.49495e-08
1.49495e-08
1.49496e-08
1.49543e-08
1.50346e-08
3.07161e-08
3.07489e-08
3.07803e-08
3.08102e-08
3.08388e-08
3.0866e-08
3.08919e-08
3.09166e-08
3.09401e-08
3.09625e-08
3.09838e-08
3.10041e-08
3.10234e-08
3.10417e-08
3.10591e-08
3.10757e-08
3.10915e-08
3.11065e-08
3.11207e-08
3.11343e-08
3.11471e-08
3.11593e-08
3.11709e-08
3.11819e-08
3.11923e-08
3.12022e-08
3.12116e-08
3.12205e-08
3.12289e-08
3.12369e-08
3.12445e-08
3.12517e-08
3.12584e-08
3.12649e-08
3.1271e-08
3.12767e-08
3.12822e-08
3.12873e-08
3.12922e-08
3.12968e-08
3.13012e-08
3.13053e-08
3.13092e-08
3.13128e-08
3.13163e-08
3.13196e-08
3.13227e-08
3.13256e-08
3.13283e-08
3.13309e-08
3.13334e-08
3.13357e-08
3.13378e-08
3.13399e-08
3.13418e-08
3.13436e-08
3.13453e-08
3.13469e-08
3.13484e-08
3.13498e-08
3.13511e-08
3.13524e-08
3.13536e-08
3.13547e-08
3.13557e-08
3.13567e-08
3.13576e-08
3.13584e-08
3.13592e-08
3.136e-08
3.13607e-08
3.13614e-08
3.1362e-08
3.13626e-08
3.13631e-08
3.13636e-08
3.13641e-08
3.13645e-08
3.13649e-08
3.13653e-08
3.13657e-08
3.1366e-08
3.13663e-08
3.13666e-08
3.13669e-08
3.13671e-08
3.13674e-08
3.13676e-08
3.13678e-08
3.1368e-08
3.13682e-08
3.13683e-08
3.13685e-08
3.13686e-08
3.13688e-08
3.13689e-08
3.1369e-08
3.13691e-08
3.13692e-08
3.13693e-08
3.13694e-08
3.13694e-08
3.13695e-08
3.13696e-08
3.13696e-08
3.13697e-08
3.13697e-08
3.13698e-08
3.13698e-08
3.13699e-08
3.13699e-08
3.13699e-08
3.137e-08
3.137e-08
3.137e-08
3.137e-08
3.13701e-08
3.13701e-08
3.13701e-08
3.13701e-08
3.13701e-08
3.13701e-08
3.13701e-08
3.13701e-08
3.13701e-08
3.13701e-08
3.13701e-08
3.13701e-08
3.137e-08
3.13701e-08
3.137e-08
3.13701e-08
3.137e-08
3.13701e-08
3.13699e-08
3.13701e-08
3.13699e-08
3.13701e-08
3.137e-08
3.13702e-08
3.13701e-08
3.13703e-08
3.13702e-08
3.13705e-08
3.13704e-08
3.13706e-08
3.13705e-08
3.13706e-08
3.13706e-08
3.13706e-08
3.13706e-08
3.13706e-08
3.13706e-08
3.13706e-08
3.13705e-08
3.13706e-08
3.13705e-08
3.13705e-08
3.13705e-08
3.13706e-08
3.13707e-08
3.13708e-08
3.13792e-08
3.15085e-08
5.01186e-08
5.01607e-08
5.02011e-08
5.02395e-08
5.02762e-08
5.03111e-08
5.03444e-08
5.0376e-08
5.04062e-08
5.04348e-08
5.04621e-08
5.04881e-08
5.05128e-08
5.05362e-08
5.05586e-08
5.05798e-08
5.06e-08
5.06191e-08
5.06373e-08
5.06546e-08
5.0671e-08
5.06866e-08
5.07014e-08
5.07155e-08
5.07288e-08
5.07414e-08
5.07534e-08
5.07648e-08
5.07755e-08
5.07857e-08
5.07954e-08
5.08045e-08
5.08132e-08
5.08214e-08
5.08292e-08
5.08365e-08
5.08435e-08
5.085e-08
5.08563e-08
5.08621e-08
5.08677e-08
5.08729e-08
5.08779e-08
5.08826e-08
5.0887e-08
5.08912e-08
5.08951e-08
5.08988e-08
5.09023e-08
5.09056e-08
5.09087e-08
5.09117e-08
5.09144e-08
5.0917e-08
5.09195e-08
5.09218e-08
5.0924e-08
5.0926e-08
5.09279e-08
5.09297e-08
5.09314e-08
5.0933e-08
5.09345e-08
5.09359e-08
5.09373e-08
5.09385e-08
5.09397e-08
5.09407e-08
5.09418e-08
5.09427e-08
5.09436e-08
5.09445e-08
5.09453e-08
5.0946e-08
5.09467e-08
5.09473e-08
5.09479e-08
5.09485e-08
5.0949e-08
5.09495e-08
5.095e-08
5.09504e-08
5.09508e-08
5.09512e-08
5.09515e-08
5.09518e-08
5.09521e-08
5.09524e-08
5.09527e-08
5.09529e-08
5.09532e-08
5.09534e-08
5.09536e-08
5.09537e-08
5.09539e-08
5.09541e-08
5.09542e-08
5.09543e-08
5.09545e-08
5.09546e-08
5.09547e-08
5.09548e-08
5.09549e-08
5.0955e-08
5.0955e-08
5.09551e-08
5.09552e-08
5.09552e-08
5.09553e-08
5.09553e-08
5.09554e-08
5.09554e-08
5.09555e-08
5.09555e-08
5.09555e-08
5.09556e-08
5.09556e-08
5.09556e-08
5.09556e-08
5.09556e-08
5.09556e-08
5.09557e-08
5.09556e-08
5.09557e-08
5.09556e-08
5.09557e-08
5.09556e-08
5.09557e-08
5.09556e-08
5.09556e-08
5.09555e-08
5.09556e-08
5.09555e-08
5.09556e-08
5.09554e-08
5.09556e-08
5.09554e-08
5.09557e-08
5.09555e-08
5.09558e-08
5.09556e-08
5.0956e-08
5.09558e-08
5.09562e-08
5.09561e-08
5.09563e-08
5.09562e-08
5.09563e-08
5.09562e-08
5.09563e-08
5.09562e-08
5.09563e-08
5.09562e-08
5.09563e-08
5.09562e-08
5.09562e-08
5.09562e-08
5.09562e-08
5.09562e-08
5.09562e-08
5.09564e-08
5.09565e-08
5.09672e-08
5.11218e-08
6.8805e-08
6.88471e-08
6.88875e-08
6.8926e-08
6.89627e-08
6.89975e-08
6.90308e-08
6.90624e-08
6.90925e-08
6.91212e-08
6.91485e-08
6.91744e-08
6.9199e-08
6.92225e-08
6.92448e-08
6.9266e-08
6.92861e-08
6.93052e-08
6.93234e-08
6.93406e-08
6.9357e-08
6.93725e-08
6.93873e-08
6.94013e-08
6.94146e-08
6.94272e-08
6.94391e-08
6.94504e-08
6.94612e-08
6.94713e-08
6.9481e-08
6.94901e-08
6.94987e-08
6.95069e-08
6.95146e-08
6.9522e-08
6.95289e-08
6.95354e-08
6.95416e-08
6.95475e-08
6.9553e-08
6.95583e-08
6.95632e-08
6.95679e-08
6.95723e-08
6.95764e-08
6.95804e-08
6.95841e-08
6.95875e-08
6.95908e-08
6.95939e-08
6.95969e-08
6.95996e-08
6.96022e-08
6.96047e-08
6.9607e-08
6.96091e-08
6.96112e-08
6.96131e-08
6.96149e-08
6.96166e-08
6.96182e-08
6.96196e-08
6.96211e-08
6.96224e-08
6.96236e-08
6.96248e-08
6.96259e-08
6.96269e-08
6.96278e-08
6.96287e-08
6.96296e-08
6.96303e-08
6.96311e-08
6.96318e-08
6.96324e-08
6.9633e-08
6.96336e-08
6.96341e-08
6.96346e-08
6.96351e-08
6.96355e-08
6.96359e-08
6.96363e-08
6.96366e-08
6.96369e-08
6.96372e-08
6.96375e-08
6.96378e-08
6.9638e-08
6.96383e-08
6.96385e-08
6.96387e-08
6.96388e-08
6.9639e-08
6.96392e-08
6.96393e-08
6.96394e-08
6.96396e-08
6.96397e-08
6.96398e-08
6.96399e-08
6.964e-08
6.96401e-08
6.96401e-08
6.96402e-08
6.96403e-08
6.96403e-08
6.96404e-08
6.96405e-08
6.96405e-08
6.96405e-08
6.96406e-08
6.96406e-08
6.96406e-08
6.96407e-08
6.96407e-08
6.96407e-08
6.96407e-08
6.96407e-08
6.96407e-08
6.96408e-08
6.96408e-08
6.96408e-08
6.96407e-08
6.96408e-08
6.96407e-08
6.96408e-08
6.96407e-08
6.96407e-08
6.96406e-08
6.96407e-08
6.96406e-08
6.96407e-08
6.96405e-08
6.96407e-08
6.96405e-08
6.96408e-08
6.96406e-08
6.96409e-08
6.96407e-08
6.96411e-08
6.96409e-08
6.96413e-08
6.96412e-08
6.96414e-08
6.96413e-08
6.96415e-08
6.96414e-08
6.96415e-08
6.96414e-08
6.96414e-08
6.96413e-08
6.96414e-08
6.96413e-08
6.96413e-08
6.96413e-08
6.96413e-08
6.96413e-08
6.96414e-08
6.96415e-08
6.96416e-08
6.96521e-08
6.98015e-08
8.38643e-08
8.39001e-08
8.39345e-08
8.39672e-08
8.39985e-08
8.40281e-08
8.40564e-08
8.40833e-08
8.41089e-08
8.41332e-08
8.41564e-08
8.41784e-08
8.41993e-08
8.42192e-08
8.42381e-08
8.42561e-08
8.42732e-08
8.42894e-08
8.43048e-08
8.43195e-08
8.43334e-08
8.43466e-08
8.43591e-08
8.43709e-08
8.43822e-08
8.43929e-08
8.4403e-08
8.44126e-08
8.44217e-08
8.44303e-08
8.44385e-08
8.44462e-08
8.44535e-08
8.44604e-08
8.4467e-08
8.44732e-08
8.44791e-08
8.44846e-08
8.44899e-08
8.44948e-08
8.44995e-08
8.4504e-08
8.45081e-08
8.45121e-08
8.45158e-08
8.45193e-08
8.45227e-08
8.45258e-08
8.45288e-08
8.45315e-08
8.45342e-08
8.45367e-08
8.4539e-08
8.45412e-08
8.45433e-08
8.45452e-08
8.4547e-08
8.45488e-08
8.45504e-08
8.45519e-08
8.45533e-08
8.45547e-08
8.4556e-08
8.45571e-08
8.45583e-08
8.45593e-08
8.45603e-08
8.45612e-08
8.45621e-08
8.45629e-08
8.45637e-08
8.45644e-08
8.4565e-08
8.45657e-08
8.45662e-08
8.45668e-08
8.45673e-08
8.45678e-08
8.45682e-08
8.45686e-08
8.4569e-08
8.45694e-08
8.45697e-08
8.457e-08
8.45703e-08
8.45706e-08
8.45709e-08
8.45711e-08
8.45713e-08
8.45715e-08
8.45717e-08
8.45719e-08
8.45721e-08
8.45722e-08
8.45724e-08
8.45725e-08
8.45726e-08
8.45728e-08
8.45729e-08
8.4573e-08
8.4573e-08
8.45731e-08
8.45732e-08
8.45733e-08
8.45733e-08
8.45734e-08
8.45735e-08
8.45735e-08
8.45736e-08
8.45736e-08
8.45736e-08
8.45737e-08
8.45737e-08
8.45737e-08
8.45738e-08
8.45738e-08
8.45738e-08
8.45738e-08
8.45738e-08
8.45739e-08
8.45739e-08
8.45739e-08
8.45739e-08
8.45739e-08
8.45739e-08
8.45739e-08
8.45738e-08
8.45739e-08
8.45738e-08
8.45739e-08
8.45738e-08
8.45738e-08
8.45737e-08
8.45738e-08
8.45737e-08
8.45738e-08
8.45737e-08
8.45739e-08
8.45737e-08
8.4574e-08
8.45739e-08
8.45742e-08
8.4574e-08
8.45743e-08
8.45742e-08
8.45744e-08
8.45743e-08
8.45745e-08
8.45744e-08
8.45745e-08
8.45744e-08
8.45744e-08
8.45744e-08
8.45744e-08
8.45743e-08
8.45744e-08
8.45743e-08
8.45744e-08
8.45743e-08
8.45744e-08
8.45745e-08
8.45746e-08
8.4583e-08
8.4708e-08
9.43725e-08
9.43989e-08
9.44244e-08
9.44485e-08
9.44716e-08
9.44935e-08
9.45144e-08
9.45343e-08
9.45532e-08
9.45712e-08
9.45883e-08
9.46045e-08
9.462e-08
9.46347e-08
9.46486e-08
9.46619e-08
9.46745e-08
9.46865e-08
9.46978e-08
9.47086e-08
9.47189e-08
9.47286e-08
9.47378e-08
9.47466e-08
9.47549e-08
9.47627e-08
9.47702e-08
9.47773e-08
9.4784e-08
9.47903e-08
9.47963e-08
9.4802e-08
9.48074e-08
9.48125e-08
9.48173e-08
9.48219e-08
9.48262e-08
9.48303e-08
9.48342e-08
9.48378e-08
9.48413e-08
9.48445e-08
9.48476e-08
9.48505e-08
9.48533e-08
9.48559e-08
9.48583e-08
9.48606e-08
9.48628e-08
9.48648e-08
9.48668e-08
9.48686e-08
9.48703e-08
9.48719e-08
9.48735e-08
9.48749e-08
9.48762e-08
9.48775e-08
9.48787e-08
9.48798e-08
9.48809e-08
9.48819e-08
9.48828e-08
9.48837e-08
9.48845e-08
9.48852e-08
9.4886e-08
9.48866e-08
9.48873e-08
9.48879e-08
9.48884e-08
9.4889e-08
9.48894e-08
9.48899e-08
9.48903e-08
9.48907e-08
9.48911e-08
9.48915e-08
9.48918e-08
9.48921e-08
9.48924e-08
9.48926e-08
9.48929e-08
9.48931e-08
9.48933e-08
9.48935e-08
9.48937e-08
9.48939e-08
9.48941e-08
9.48942e-08
9.48944e-08
9.48945e-08
9.48946e-08
9.48947e-08
9.48948e-08
9.48949e-08
9.4895e-08
9.48951e-08
9.48952e-08
9.48952e-08
9.48953e-08
9.48954e-08
9.48954e-08
9.48955e-08
9.48955e-08
9.48956e-08
9.48956e-08
9.48957e-08
9.48957e-08
9.48957e-08
9.48957e-08
9.48958e-08
9.48958e-08
9.48958e-08
9.48958e-08
9.48959e-08
9.48959e-08
9.48959e-08
9.48959e-08
9.48959e-08
9.48959e-08
9.48959e-08
9.48959e-08
9.48959e-08
9.48959e-08
9.48959e-08
9.48959e-08
9.48959e-08
9.48959e-08
9.48959e-08
9.48958e-08
9.48959e-08
9.48958e-08
9.48959e-08
9.48958e-08
9.48959e-08
9.48958e-08
9.48959e-08
9.48958e-08
9.4896e-08
9.48959e-08
9.48961e-08
9.4896e-08
9.48963e-08
9.48962e-08
9.48963e-08
9.48962e-08
9.48963e-08
9.48963e-08
9.48963e-08
9.48963e-08
9.48963e-08
9.48963e-08
9.48963e-08
9.48962e-08
9.48963e-08
9.48962e-08
9.48963e-08
9.48962e-08
9.48963e-08
9.48964e-08
9.48964e-08
9.49022e-08
9.49995e-08
1.00868e-07
1.00885e-07
1.00902e-07
1.00917e-07
1.00933e-07
1.00947e-07
1.00961e-07
1.00974e-07
1.00986e-07
1.00998e-07
1.01009e-07
1.0102e-07
1.0103e-07
1.01039e-07
1.01049e-07
1.01057e-07
1.01066e-07
1.01073e-07
1.01081e-07
1.01088e-07
1.01095e-07
1.01101e-07
1.01107e-07
1.01113e-07
1.01118e-07
1.01123e-07
1.01128e-07
1.01133e-07
1.01137e-07
1.01141e-07
1.01145e-07
1.01149e-07
1.01152e-07
1.01156e-07
1.01159e-07
1.01162e-07
1.01165e-07
1.01167e-07
1.0117e-07
1.01172e-07
1.01175e-07
1.01177e-07
1.01179e-07
1.01181e-07
1.01182e-07
1.01184e-07
1.01186e-07
1.01187e-07
1.01189e-07
1.0119e-07
1.01191e-07
1.01192e-07
1.01194e-07
1.01195e-07
1.01196e-07
1.01197e-07
1.01197e-07
1.01198e-07
1.01199e-07
1.012e-07
1.012e-07
1.01201e-07
1.01202e-07
1.01202e-07
1.01203e-07
1.01203e-07
1.01204e-07
1.01204e-07
1.01205e-07
1.01205e-07
1.01205e-07
1.01206e-07
1.01206e-07
1.01206e-07
1.01207e-07
1.01207e-07
1.01207e-07
1.01207e-07
1.01208e-07
1.01208e-07
1.01208e-07
1.01208e-07
1.01208e-07
1.01208e-07
1.01209e-07
1.01209e-07
1.01209e-07
1.01209e-07
1.01209e-07
1.01209e-07
1.01209e-07
1.01209e-07
1.01209e-07
1.01209e-07
1.0121e-07
1.0121e-07
1.0121e-07
1.0121e-07
1.0121e-07
1.0121e-07
1.0121e-07
1.0121e-07
1.0121e-07
1.0121e-07
1.0121e-07
1.0121e-07
1.0121e-07
1.0121e-07
1.0121e-07
1.0121e-07
1.0121e-07
1.0121e-07
1.0121e-07
1.0121e-07
1.0121e-07
1.0121e-07
1.0121e-07
1.0121e-07
1.0121e-07
1.0121e-07
1.0121e-07
1.0121e-07
1.0121e-07
1.0121e-07
1.0121e-07
1.0121e-07
1.0121e-07
1.0121e-07
1.0121e-07
1.0121e-07
1.0121e-07
1.0121e-07
1.0121e-07
1.0121e-07
1.0121e-07
1.0121e-07
1.0121e-07
1.0121e-07
1.0121e-07
1.0121e-07
1.0121e-07
1.0121e-07
1.0121e-07
1.0121e-07
1.0121e-07
1.0121e-07
1.0121e-07
1.0121e-07
1.0121e-07
1.0121e-07
1.0121e-07
1.0121e-07
1.0121e-07
1.0121e-07
1.0121e-07
1.0121e-07
1.0121e-07
1.0121e-07
1.0121e-07
1.0121e-07
1.01211e-07
1.01211e-07
1.01214e-07
1.01288e-07
1.04484e-07
1.04494e-07
1.04504e-07
1.04513e-07
1.04522e-07
1.04531e-07
1.04539e-07
1.04546e-07
1.04554e-07
1.04561e-07
1.04567e-07
1.04574e-07
1.0458e-07
1.04585e-07
1.04591e-07
1.04596e-07
1.04601e-07
1.04605e-07
1.0461e-07
1.04614e-07
1.04618e-07
1.04622e-07
1.04625e-07
1.04629e-07
1.04632e-07
1.04635e-07
1.04638e-07
1.04641e-07
1.04643e-07
1.04646e-07
1.04648e-07
1.0465e-07
1.04652e-07
1.04654e-07
1.04656e-07
1.04658e-07
1.0466e-07
1.04661e-07
1.04663e-07
1.04664e-07
1.04665e-07
1.04667e-07
1.04668e-07
1.04669e-07
1.0467e-07
1.04671e-07
1.04672e-07
1.04673e-07
1.04674e-07
1.04675e-07
1.04675e-07
1.04676e-07
1.04677e-07
1.04677e-07
1.04678e-07
1.04678e-07
1.04679e-07
1.04679e-07
1.0468e-07
1.0468e-07
1.04681e-07
1.04681e-07
1.04681e-07
1.04682e-07
1.04682e-07
1.04682e-07
1.04683e-07
1.04683e-07
1.04683e-07
1.04683e-07
1.04684e-07
1.04684e-07
1.04684e-07
1.04684e-07
1.04684e-07
1.04684e-07
1.04685e-07
1.04685e-07
1.04685e-07
1.04685e-07
1.04685e-07
1.04685e-07
1.04685e-07
1.04685e-07
1.04685e-07
1.04686e-07
1.04686e-07
1.04686e-07
1.04686e-07
1.04686e-07
1.04686e-07
1.04686e-07
1.04686e-07
1.04686e-07
1.04686e-07
1.04686e-07
1.04686e-07
1.04686e-07
1.04686e-07
1.04686e-07
1.04686e-07
1.04686e-07
1.04686e-07
1.04686e-07
1.04686e-07
1.04686e-07
1.04686e-07
1.04686e-07
1.04686e-07
1.04686e-07
1.04686e-07
1.04686e-07
1.04686e-07
1.04686e-07
1.04686e-07
1.04686e-07
1.04686e-07
1.04686e-07
1.04686e-07
1.04686e-07
1.04686e-07
1.04686e-07
1.04686e-07
1.04686e-07
1.04686e-07
1.04686e-07
1.04686e-07
1.04686e-07
1.04686e-07
1.04686e-07
1.04686e-07
1.04686e-07
1.04686e-07
1.04686e-07
1.04686e-07
1.04686e-07
1.04686e-07
1.04686e-07
1.04686e-07
1.04686e-07
1.04686e-07
1.04686e-07
1.04686e-07
1.04687e-07
1.04686e-07
1.04687e-07
1.04687e-07
1.04687e-07
1.04687e-07
1.04687e-07
1.04687e-07
1.04687e-07
1.04687e-07
1.04687e-07
1.04687e-07
1.04687e-07
1.04687e-07
1.04687e-07
1.04687e-07
1.04687e-07
1.04687e-07
1.04687e-07
1.04689e-07
1.0474e-07
1.0632e-07
1.06325e-07
1.0633e-07
1.06335e-07
1.0634e-07
1.06345e-07
1.06349e-07
1.06353e-07
1.06357e-07
1.06361e-07
1.06365e-07
1.06368e-07
1.06371e-07
1.06375e-07
1.06378e-07
1.0638e-07
1.06383e-07
1.06386e-07
1.06388e-07
1.0639e-07
1.06392e-07
1.06394e-07
1.06396e-07
1.06398e-07
1.064e-07
1.06402e-07
1.06403e-07
1.06405e-07
1.06406e-07
1.06408e-07
1.06409e-07
1.0641e-07
1.06411e-07
1.06412e-07
1.06413e-07
1.06414e-07
1.06415e-07
1.06416e-07
1.06417e-07
1.06418e-07
1.06418e-07
1.06419e-07
1.0642e-07
1.0642e-07
1.06421e-07
1.06421e-07
1.06422e-07
1.06422e-07
1.06423e-07
1.06423e-07
1.06424e-07
1.06424e-07
1.06425e-07
1.06425e-07
1.06425e-07
1.06425e-07
1.06426e-07
1.06426e-07
1.06426e-07
1.06427e-07
1.06427e-07
1.06427e-07
1.06427e-07
1.06427e-07
1.06428e-07
1.06428e-07
1.06428e-07
1.06428e-07
1.06428e-07
1.06428e-07
1.06428e-07
1.06428e-07
1.06429e-07
1.06429e-07
1.06429e-07
1.06429e-07
1.06429e-07
1.06429e-07
1.06429e-07
1.06429e-07
1.06429e-07
1.06429e-07
1.06429e-07
1.06429e-07
1.06429e-07
1.06429e-07
1.06429e-07
1.06429e-07
1.06429e-07
1.0643e-07
1.0643e-07
1.0643e-07
1.0643e-07
1.0643e-07
1.0643e-07
1.0643e-07
1.0643e-07
1.0643e-07
1.0643e-07
1.0643e-07
1.0643e-07
1.0643e-07
1.0643e-07
1.0643e-07
1.0643e-07
1.0643e-07
1.0643e-07
1.0643e-07
1.0643e-07
1.0643e-07
1.0643e-07
1.0643e-07
1.0643e-07
1.0643e-07
1.0643e-07
1.0643e-07
1.0643e-07
1.0643e-07
1.0643e-07
1.0643e-07
1.0643e-07
1.0643e-07
1.0643e-07
1.0643e-07
1.0643e-07
1.0643e-07
1.0643e-07
1.0643e-07
1.0643e-07
1.0643e-07
1.0643e-07
1.0643e-07
1.0643e-07
1.0643e-07
1.0643e-07
1.0643e-07
1.0643e-07
1.0643e-07
1.0643e-07
1.0643e-07
1.0643e-07
1.0643e-07
1.0643e-07
1.0643e-07
1.0643e-07
1.0643e-07
1.0643e-07
1.0643e-07
1.0643e-07
1.0643e-07
1.0643e-07
1.0643e-07
1.0643e-07
1.0643e-07
1.0643e-07
1.0643e-07
1.0643e-07
1.0643e-07
1.0643e-07
1.0643e-07
1.0643e-07
1.0643e-07
1.06431e-07
1.06449e-07
1.07176e-07
1.07179e-07
1.07181e-07
1.07184e-07
1.07186e-07
1.07189e-07
1.07191e-07
1.07193e-07
1.07195e-07
1.07197e-07
1.07199e-07
1.07201e-07
1.07202e-07
1.07204e-07
1.07205e-07
1.07207e-07
1.07208e-07
1.07209e-07
1.07211e-07
1.07212e-07
1.07213e-07
1.07214e-07
1.07215e-07
1.07216e-07
1.07217e-07
1.07218e-07
1.07219e-07
1.07219e-07
1.0722e-07
1.07221e-07
1.07222e-07
1.07222e-07
1.07223e-07
1.07223e-07
1.07224e-07
1.07224e-07
1.07225e-07
1.07225e-07
1.07226e-07
1.07226e-07
1.07227e-07
1.07227e-07
1.07227e-07
1.07228e-07
1.07228e-07
1.07228e-07
1.07228e-07
1.07229e-07
1.07229e-07
1.07229e-07
1.07229e-07
1.0723e-07
1.0723e-07
1.0723e-07
1.0723e-07
1.0723e-07
1.0723e-07
1.07231e-07
1.07231e-07
1.07231e-07
1.07231e-07
1.07231e-07
1.07231e-07
1.07231e-07
1.07231e-07
1.07231e-07
1.07232e-07
1.07232e-07
1.07232e-07
1.07232e-07
1.07232e-07
1.07232e-07
1.07232e-07
1.07232e-07
1.07232e-07
1.07232e-07
1.07232e-07
1.07232e-07
1.07232e-07
1.07232e-07
1.07232e-07
1.07232e-07
1.07232e-07
1.07232e-07
1.07232e-07
1.07232e-07
1.07232e-07
1.07232e-07
1.07232e-07
1.07232e-07
1.07232e-07
1.07232e-07
1.07232e-07
1.07232e-07
1.07232e-07
1.07232e-07
1.07232e-07
1.07232e-07
1.07233e-07
1.07233e-07
1.07233e-07
1.07233e-07
1.07233e-07
1.07233e-07
1.07233e-07
1.07233e-07
1.07233e-07
1.07233e-07
1.07233e-07
1.07233e-07
1.07233e-07
1.07233e-07
1.07233e-07
1.07233e-07
1.07233e-07
1.07233e-07
1.07233e-07
1.07233e-07
1.07233e-07
1.07233e-07
1.07233e-07
1.07233e-07
1.07233e-07
1.07233e-07
1.07233e-07
1.07233e-07
1.07233e-07
1.07233e-07
1.07233e-07
1.07233e-07
1.07233e-07
1.07233e-07
1.07233e-07
1.07233e-07
1.07233e-07
1.07233e-07
1.07233e-07
1.07233e-07
1.07233e-07
1.07233e-07
1.07233e-07
1.07233e-07
1.07233e-07
1.07233e-07
1.07233e-07
1.07233e-07
1.07233e-07
1.07233e-07
1.07233e-07
1.07233e-07
1.07233e-07
1.07233e-07
1.07233e-07
1.07233e-07
1.07233e-07
1.07233e-07
1.07233e-07
1.07233e-07
1.07233e-07
1.07233e-07
1.07233e-07
1.07233e-07
1.07233e-07
1.07193e-07
1.07542e-07
1.07543e-07
1.07544e-07
1.07545e-07
1.07547e-07
1.07548e-07
1.07549e-07
1.0755e-07
1.07551e-07
1.07552e-07
1.07553e-07
1.07554e-07
1.07555e-07
1.07555e-07
1.07556e-07
1.07557e-07
1.07558e-07
1.07558e-07
1.07559e-07
1.0756e-07
1.0756e-07
1.07561e-07
1.07561e-07
1.07562e-07
1.07562e-07
1.07563e-07
1.07563e-07
1.07564e-07
1.07564e-07
1.07564e-07
1.07565e-07
1.07565e-07
1.07565e-07
1.07566e-07
1.07566e-07
1.07566e-07
1.07566e-07
1.07567e-07
1.07567e-07
1.07567e-07
1.07567e-07
1.07568e-07
1.07568e-07
1.07568e-07
1.07568e-07
1.07568e-07
1.07568e-07
1.07568e-07
1.07569e-07
1.07569e-07
1.07569e-07
1.07569e-07
1.07569e-07
1.07569e-07
1.07569e-07
1.07569e-07
1.07569e-07
1.07569e-07
1.0757e-07
1.0757e-07
1.0757e-07
1.0757e-07
1.0757e-07
1.0757e-07
1.0757e-07
1.0757e-07
1.0757e-07
1.0757e-07
1.0757e-07
1.0757e-07
1.0757e-07
1.0757e-07
1.0757e-07
1.0757e-07
1.0757e-07
1.0757e-07
1.0757e-07
1.0757e-07
1.0757e-07
1.0757e-07
1.0757e-07
1.0757e-07
1.0757e-07
1.0757e-07
1.0757e-07
1.0757e-07
1.0757e-07
1.0757e-07
1.0757e-07
1.0757e-07
1.0757e-07
1.0757e-07
1.0757e-07
1.07571e-07
1.07571e-07
1.07571e-07
1.07571e-07
1.07571e-07
1.07571e-07
1.07571e-07
1.07571e-07
1.07571e-07
1.07571e-07
1.07571e-07
1.07571e-07
1.07571e-07
1.07571e-07
1.07571e-07
1.07571e-07
1.07571e-07
1.07571e-07
1.07571e-07
1.07571e-07
1.07571e-07
1.07571e-07
1.07571e-07
1.07571e-07
1.07571e-07
1.07571e-07
1.07571e-07
1.07571e-07
1.07571e-07
1.07571e-07
1.07571e-07
1.07571e-07
1.07571e-07
1.07571e-07
1.07571e-07
1.07571e-07
1.07571e-07
1.07571e-07
1.07571e-07
1.07571e-07
1.07571e-07
1.07571e-07
1.07571e-07
1.07571e-07
1.07571e-07
1.07571e-07
1.07571e-07
1.07571e-07
1.07571e-07
1.07571e-07
1.07571e-07
1.07571e-07
1.07571e-07
1.07571e-07
1.07571e-07
1.07571e-07
1.07571e-07
1.07571e-07
1.07571e-07
1.07571e-07
1.07571e-07
1.07571e-07
1.07571e-07
1.07571e-07
1.07571e-07
1.07571e-07
1.07571e-07
1.07571e-07
1.07571e-07
1.07571e-07
1.07427e-07
1.07741e-07
1.07741e-07
1.07742e-07
1.07742e-07
1.07742e-07
1.07743e-07
1.07743e-07
1.07744e-07
1.07744e-07
1.07744e-07
1.07745e-07
1.07745e-07
1.07745e-07
1.07746e-07
1.07746e-07
1.07746e-07
1.07747e-07
1.07747e-07
1.07747e-07
1.07748e-07
1.07748e-07
1.07748e-07
1.07748e-07
1.07749e-07
1.07749e-07
1.07749e-07
1.07749e-07
1.07749e-07
1.07749e-07
1.0775e-07
1.0775e-07
1.0775e-07
1.0775e-07
1.0775e-07
1.0775e-07
1.07751e-07
1.07751e-07
1.07751e-07
1.07751e-07
1.07751e-07
1.07751e-07
1.07751e-07
1.07751e-07
1.07751e-07
1.07751e-07
1.07751e-07
1.07752e-07
1.07752e-07
1.07752e-07
1.07752e-07
1.07752e-07
1.07752e-07
1.07752e-07
1.07752e-07
1.07752e-07
1.07752e-07
1.07752e-07
1.07752e-07
1.07752e-07
1.07752e-07
1.07752e-07
1.07752e-07
1.07752e-07
1.07752e-07
1.07752e-07
1.07752e-07
1.07752e-07
1.07752e-07
1.07752e-07
1.07752e-07
1.07752e-07
1.07752e-07
1.07752e-07
1.07752e-07
1.07752e-07
1.07752e-07
1.07752e-07
1.07752e-07
1.07753e-07
1.07753e-07
1.07753e-07
1.07753e-07
1.07753e-07
1.07753e-07
1.07753e-07
1.07753e-07
1.07753e-07
1.07753e-07
1.07753e-07
1.07753e-07
1.07753e-07
1.07753e-07
1.07753e-07
1.07753e-07
1.07753e-07
1.07753e-07
1.07753e-07
1.07753e-07
1.07753e-07
1.07753e-07
1.07753e-07
1.07753e-07
1.07753e-07
1.07753e-07
1.07753e-07
1.07753e-07
1.07753e-07
1.07753e-07
1.07753e-07
1.07753e-07
1.07753e-07
1.07753e-07
1.07753e-07
1.07753e-07
1.07753e-07
1.07753e-07
1.07753e-07
1.07753e-07
1.07753e-07
1.07753e-07
1.07753e-07
1.07753e-07
1.07753e-07
1.07753e-07
1.07753e-07
1.07753e-07
1.07753e-07
1.07753e-07
1.07753e-07
1.07753e-07
1.07753e-07
1.07753e-07
1.07753e-07
1.07753e-07
1.07753e-07
1.07753e-07
1.07753e-07
1.07753e-07
1.07753e-07
1.07753e-07
1.07753e-07
1.07753e-07
1.07753e-07
1.07753e-07
1.07753e-07
1.07753e-07
1.07753e-07
1.07753e-07
1.07753e-07
1.07753e-07
1.07753e-07
1.07753e-07
1.07753e-07
1.07753e-07
1.07753e-07
1.07753e-07
1.07753e-07
1.07753e-07
1.07753e-07
1.07753e-07
1.07753e-07
1.07753e-07