/*--------------------------------*- C++ -*----------------------------------*\
| =========                 |                                                 |
| \\      /  F ield         | OpenFOAM: The Open Source CFD Toolbox           |
|  \\    /   O peration     | Version:  v1912                                 |
|   \\  /    A nd           | Website:  www.openfoam.com                      |
|    \\/     M anipulation  |                                                 |
\*---------------------------------------------------------------------------*/
FoamFile
{
    version     2.0;
    format      ascii;
    class       volScalarField;
    location    "20";
    object      alpha.water;
}
// * * * * * * * * * * * * * * * * * * * * * * * * * * * * * * * * * * * * * //

dimensions      [0 0 0 0 0 0 0];


internalField   nonuniform List<scalar> 
14268
(
0.0012547
0.00109578
0.00100144
0.000936236
0.000866434
0.000822127
0.000773045
0.000573422
0.000166263
9.15025e-07
9.70248e-21
1.59463e-40
-3.4954e-28
-2.07103e-28
-9.07276e-29
-3.55689e-29
-1.2895e-29
-4.28428e-30
-1.29312e-30
-3.54235e-31
-8.83644e-32
-2.01602e-32
-4.22354e-33
-8.15137e-34
-1.45295e-34
-2.39656e-35
-3.66362e-36
-5.19719e-37
-6.84921e-38
-8.39371e-39
-9.5744e-40
-1.01743e-40
-1.00811e-41
-9.32172e-43
-8.0508e-44
-6.49975e-45
-4.90933e-46
-3.47184e-47
-2.30061e-48
-1.42953e-49
-8.33523e-51
-4.56361e-52
-2.34774e-53
-1.13555e-54
-5.16682e-56
-2.21279e-57
-8.9243e-59
-3.39102e-60
-1.2145e-61
-4.1016e-63
-1.30665e-64
-3.92794e-66
-1.11457e-67
-2.98617e-69
-7.55615e-71
-1.80622e-72
-4.07964e-74
-8.70846e-76
-1.75715e-77
-3.35195e-79
-6.04608e-81
-1.03133e-82
-1.6639e-84
-2.53928e-86
-3.66602e-88
-5.00753e-90
-6.47197e-92
-7.91534e-94
-9.16129e-96
-1.00353e-97
-1.04043e-99
-1.02104e-101
-9.48493e-104
-8.34095e-106
-6.94395e-108
-5.47302e-110
-4.08409e-112
-2.88554e-114
-1.93036e-116
-1.22277e-118
-7.3342e-121
-4.1656e-123
-2.24042e-125
-1.14107e-127
-5.50349e-130
-2.51368e-132
-1.08726e-134
-4.45356e-137
-1.72758e-139
-6.34634e-142
-2.20782e-144
-7.27373e-147
-2.26934e-149
-6.70484e-152
-1.87593e-154
-4.97022e-157
-1.24698e-159
-2.9625e-162
-6.66441e-165
-1.41957e-167
-2.86309e-170
-5.46737e-173
-9.88492e-176
-1.69201e-178
-2.74191e-181
-4.20632e-184
-6.10848e-187
-8.39702e-190
-1.09259e-192
-1.34557e-195
-1.56838e-198
-1.73008e-201
-1.80603e-204
-1.78404e-207
-1.66754e-210
-1.47473e-213
-1.23392e-216
-9.76702e-220
-7.31337e-223
-5.17981e-226
-3.46997e-229
-2.19843e-232
-1.31719e-235
-7.46263e-239
-3.99774e-242
-2.02474e-245
-9.69465e-249
-4.38786e-252
-1.87716e-255
-7.58986e-259
-2.90009e-262
-1.04711e-265
-3.57218e-269
-1.15132e-272
-3.50536e-276
-1.0081e-279
-2.73816e-283
-7.02364e-287
-1.70119e-290
-3.89046e-294
-8.39928e-298
-1.71177e-301
-3.29264e-305
-5.9773e-309
-1.02392e-312
-1.65492e-316
-2.52369e-320
0
0
0
0.000307816
0.000199558
0.000143387
0.000113326
0.000101971
0.000109022
0.000182114
0.000298875
0.000241519
6.43702e-05
6.42229e-08
3.09794e-37
-5.07851e-28
-5.53577e-28
-3.11777e-28
-1.21886e-28
-3.75538e-29
-9.84464e-30
-2.31809e-30
-5.09196e-31
-1.06531e-31
-2.13284e-32
-4.06384e-33
-7.30571e-34
-1.23021e-34
-1.93166e-35
-2.82252e-36
-3.83654e-37
-4.8541e-38
-5.72294e-39
-6.29551e-40
-6.47e-41
-6.21966e-42
-5.59873e-43
-4.72373e-44
-3.73858e-45
-2.77749e-46
-1.93811e-47
-1.27087e-48
-7.83439e-50
-4.54211e-51
-2.47744e-52
-1.2717e-53
-6.14516e-55
-2.79621e-56
-1.19845e-57
-4.83952e-59
-1.84178e-60
-6.60753e-62
-2.23525e-63
-7.13202e-65
-2.14689e-66
-6.09856e-68
-1.6352e-69
-4.13948e-71
-9.89576e-73
-2.23448e-74
-4.76674e-76
-9.60876e-78
-1.83062e-79
-3.29678e-81
-5.61327e-83
-9.03745e-85
-1.37608e-86
-1.98183e-88
-2.70005e-90
-3.48025e-92
-4.24454e-94
-4.89864e-96
-5.35038e-98
-5.5309e-100
-5.41179e-102
-5.01246e-104
-4.39494e-106
-3.64814e-108
-2.86701e-110
-2.13327e-112
-1.50293e-114
-1.00259e-116
-6.33298e-119
-3.788e-121
-2.14553e-123
-1.15078e-125
-5.84501e-128
-2.81139e-130
-1.28056e-132
-5.52364e-135
-2.25629e-137
-8.7279e-140
-3.19717e-142
-1.10907e-144
-3.64323e-147
-1.13329e-149
-3.33822e-152
-9.31111e-155
-2.45919e-157
-6.15002e-160
-1.45628e-162
-3.26501e-165
-6.93081e-168
-1.39293e-170
-2.65039e-173
-4.7743e-176
-8.14165e-179
-1.31433e-181
-2.00848e-184
-2.90526e-187
-3.97779e-190
-5.15489e-193
-6.32264e-196
-7.3394e-199
-8.06281e-202
-8.38219e-205
-8.24618e-208
-7.67633e-211
-6.7614e-214
-5.63489e-217
-4.44298e-220
-3.31426e-223
-2.33882e-226
-1.5613e-229
-9.85894e-233
-5.88861e-236
-3.32661e-239
-1.77741e-242
-8.98117e-246
-4.2917e-249
-1.93929e-252
-8.2862e-256
-3.34766e-259
-1.27873e-262
-4.61786e-266
-1.57652e-269
-5.08792e-273
-1.55211e-276
-4.4754e-280
-1.21963e-283
-3.1412e-287
-7.64522e-291
-1.75831e-294
-3.82088e-298
-7.84466e-302
-1.52152e-305
-2.78773e-309
-4.82435e-313
-7.8851e-317
-1.23072e-320
0
0
0
8.5035e-05
8.50301e-05
8.50326e-05
8.50277e-05
8.50308e-05
8.50276e-05
0.000116159
0.000239183
0.000240874
8.26072e-05
2.10996e-06
4.46299e-39
-1.22451e-28
-1.4827e-28
-9.72636e-29
-4.63077e-29
-1.80552e-29
-6.12569e-30
-1.86283e-30
-5.1419e-31
-1.29402e-31
-2.97373e-32
-6.24698e-33
-1.20131e-33
-2.11854e-34
-3.43328e-35
-5.12392e-36
-7.05731e-37
-8.98874e-38
-1.06073e-38
-1.16176e-39
-1.18287e-40
-1.12125e-41
-9.90823e-43
-8.17252e-44
-6.29898e-45
-4.54138e-46
-3.06564e-47
-1.93931e-48
-1.15058e-49
-6.40702e-51
-3.35088e-52
-1.64706e-53
-7.61312e-55
-3.31103e-56
-1.35561e-57
-5.22747e-59
-1.89946e-60
-6.50633e-62
-2.10178e-63
-6.40542e-65
-1.84236e-66
-5.00285e-68
-1.28297e-69
-3.10815e-71
-7.11547e-73
-1.53971e-74
-3.15006e-76
-6.0947e-78
-1.11542e-79
-1.93141e-81
-3.16481e-83
-4.9084e-85
-7.2066e-87
-1.00182e-88
-1.31882e-90
-1.64427e-92
-1.94185e-94
-2.17248e-96
-2.30271e-98
-2.31263e-100
-2.20084e-102
-1.98479e-104
-1.69633e-106
-1.37402e-108
-1.05482e-110
-7.675e-113
-5.29298e-115
-3.45978e-117
-2.1435e-119
-1.2587e-121
-7.00561e-124
-3.6956e-126
-1.8477e-128
-8.75539e-131
-3.93195e-133
-1.67346e-135
-6.74975e-138
-2.57994e-140
-9.34473e-143
-3.20735e-145
-1.04311e-147
-3.21448e-150
-9.3857e-153
-2.59649e-155
-6.80541e-158
-1.68988e-160
-3.97538e-163
-8.85945e-166
-1.87037e-168
-3.74048e-171
-7.08587e-174
-1.27149e-176
-2.16108e-179
-3.47903e-182
-5.30472e-185
-7.66074e-188
-1.04778e-190
-1.35723e-193
-1.66497e-196
-1.93428e-199
-2.12802e-202
-2.21703e-205
-2.1872e-208
-2.04324e-211
-1.80738e-214
-1.51379e-217
-1.20048e-220
-9.0137e-224
-6.40755e-227
-4.31233e-230
-2.74749e-233
-1.65712e-236
-9.46101e-240
-5.11296e-243
-2.61531e-246
-1.26612e-249
-5.80081e-253
-2.51502e-256
-1.03179e-259
-4.00509e-263
-1.47082e-266
-5.10962e-270
-1.67905e-273
-5.21831e-277
-1.53373e-280
-4.26239e-284
-1.11997e-287
-2.78185e-291
-6.53124e-295
-1.44914e-298
-3.03833e-302
-6.01849e-306
-1.12619e-309
-1.99036e-313
-3.32183e-317
-5.08394e-321
0
0
0
0.00012396
0.000110262
9.08024e-05
8.71832e-05
8.68533e-05
8.55439e-05
8.55469e-05
0.000142724
0.000203019
0.000100135
9.95963e-06
2.79863e-40
-2.83761e-29
-3.73792e-29
-2.73683e-29
-1.47032e-29
-6.44614e-30
-2.42318e-30
-8.00384e-31
-2.35349e-31
-6.2099e-32
-1.47869e-32
-3.19201e-33
-6.27121e-34
-1.12524e-34
-1.84965e-35
-2.79317e-36
-3.88466e-37
-4.98695e-38
-5.9214e-39
-6.51509e-40
-6.65349e-41
-6.3165e-42
-5.58226e-43
-4.59845e-44
-3.53509e-45
-2.53899e-46
-1.70547e-47
-1.07243e-48
-6.31879e-50
-3.49147e-51
-1.81068e-52
-8.82006e-54
-4.03837e-55
-1.73918e-56
-7.04972e-58
-2.69125e-59
-9.68162e-61
-3.28396e-62
-1.05084e-63
-3.17383e-65
-9.05225e-67
-2.43925e-68
-6.21263e-70
-1.49624e-71
-3.40882e-73
-7.34941e-75
-1.50003e-76
-2.89931e-78
-5.30844e-80
-9.20961e-82
-1.51436e-83
-2.36063e-85
-3.48921e-87
-4.89103e-89
-6.50295e-91
-8.20177e-93
-9.81367e-95
-1.11406e-96
-1.19993e-98
-1.22626e-100
-1.18901e-102
-1.09386e-104
-9.54749e-107
-7.90592e-109
-6.21049e-111
-4.62788e-113
-3.27107e-115
-2.19289e-117
-1.39422e-119
-8.40616e-122
-4.806e-124
-2.60529e-126
-1.339e-128
-6.52422e-131
-3.01346e-133
-1.31936e-135
-5.47512e-138
-2.15342e-140
-8.02676e-143
-2.83533e-145
-9.49059e-148
-3.01013e-150
-9.04598e-153
-2.57561e-155
-6.94765e-158
-1.77543e-160
-4.2979e-163
-9.85536e-166
-2.14057e-168
-4.40356e-171
-8.57973e-174
-1.58312e-176
-2.76631e-179
-4.57731e-182
-7.17162e-185
-1.06389e-187
-1.49424e-190
-1.98685e-193
-2.50091e-196
-2.97987e-199
-3.36069e-202
-3.58728e-205
-3.6239e-208
-3.46442e-211
-3.13396e-214
-2.68249e-217
-2.17232e-220
-1.66427e-223
-1.20613e-226
-8.26817e-230
-5.36071e-233
-3.28705e-236
-1.90595e-239
-1.04499e-242
-5.41696e-246
-2.65468e-249
-1.22979e-252
-5.38493e-256
-2.22848e-259
-8.71518e-263
-3.22062e-266
-1.12448e-269
-3.70912e-273
-1.1557e-276
-3.40123e-280
-9.45331e-284
-2.48117e-287
-6.14876e-291
-1.43862e-294
-3.17733e-298
-6.62377e-302
-1.30319e-305
-2.41951e-309
-4.2384e-313
-7.0046e-317
-1.10374e-320
0
0
0
0.000350882
0.000304503
0.000241432
0.000240726
0.000245897
0.000237545
0.000178404
0.000143274
0.000151427
0.000151429
5.08719e-05
7.90302e-07
2.43957e-27
3.77062e-47
-1.34562e-29
-9.88443e-30
-5.01481e-30
-2.01754e-30
-6.78561e-31
-1.96811e-31
-5.02653e-32
-1.14768e-32
-2.36963e-33
-4.46323e-34
-7.71988e-35
-1.23225e-35
-1.8216e-36
-2.50009e-37
-3.19124e-38
-3.7932e-39
-4.20252e-40
-4.34331e-41
-4.19048e-42
-3.7771e-43
-3.18297e-44
-2.50968e-45
-1.85288e-46
-1.2819e-47
-8.31691e-49
-5.06383e-50
-2.89533e-51
-1.55558e-52
-7.85816e-54
-3.7343e-55
-1.6702e-56
-7.03383e-58
-2.79029e-59
-1.04302e-60
-3.67509e-62
-1.22094e-63
-3.82556e-65
-1.13076e-66
-3.15374e-68
-8.30137e-70
-2.06268e-71
-4.83903e-73
-1.07204e-74
-2.24318e-76
-4.43402e-78
-8.28111e-80
-1.46154e-81
-2.43801e-83
-3.84449e-85
-5.73179e-87
-8.08095e-89
-1.07752e-90
-1.3591e-92
-1.62183e-94
-1.8313e-96
-1.95695e-98
-1.97939e-100
-1.8953e-102
-1.71826e-104
-1.47509e-106
-1.19931e-108
-9.23609e-111
-6.73815e-113
-4.6574e-115
-3.05033e-117
-1.89322e-119
-1.11365e-121
-6.20917e-124
-3.28164e-126
-1.6442e-128
-7.81012e-131
-3.5174e-133
-1.502e-135
-6.08161e-138
-2.33496e-140
-8.50078e-143
-2.93469e-145
-9.60695e-148
-2.98212e-150
-8.77745e-153
-2.44964e-155
-6.48202e-158
-1.62618e-160
-3.86772e-163
-8.72048e-166
-1.86377e-168
-3.77557e-171
-7.24889e-174
-1.31894e-176
-2.27407e-179
-3.71508e-182
-5.75011e-185
-8.43117e-188
-1.17101e-190
-1.54045e-193
-1.91914e-196
-2.26411e-199
-2.52913e-202
-2.67477e-205
-2.67791e-208
-2.5378e-211
-2.27627e-214
-1.93221e-217
-1.55202e-220
-1.17955e-223
-8.48125e-227
-5.76885e-230
-3.71152e-233
-2.25846e-236
-1.29962e-239
-7.07175e-243
-3.63823e-246
-1.76958e-249
-8.13604e-253
-3.53573e-256
-1.45217e-259
-5.63616e-263
-2.06696e-266
-7.1616e-270
-2.34412e-273
-7.24738e-277
-2.11631e-280
-5.83594e-284
-1.51965e-287
-3.73601e-291
-8.67112e-295
-1.89965e-298
-3.928e-302
-7.66479e-306
-1.4113e-309
-2.4517e-313
-4.01782e-317
-6.10171e-321
0
0
0
0.000459187
0.000424407
0.000371861
0.000347534
0.000354521
0.000354526
0.000348063
0.000178549
0.000109594
9.77717e-05
5.72194e-05
6.49434e-06
-6.16968e-25
-7.30508e-28
-1.61786e-28
-4.14275e-29
-8.66512e-30
-1.95123e-30
-5.03603e-31
-1.32237e-31
-3.23204e-32
-7.1753e-33
-1.44995e-33
-2.689e-34
-4.61293e-35
-7.36285e-36
-1.09745e-36
-1.53038e-37
-1.99779e-38
-2.44122e-39
-2.7914e-40
-2.98579e-41
-2.98706e-42
-2.79505e-43
-2.4467e-44
-2.00432e-45
-1.53722e-46
-1.10434e-47
-7.43514e-49
-4.6938e-50
-2.77991e-51
-1.54533e-52
-8.06689e-54
-3.95619e-55
-1.82356e-56
-7.90339e-58
-3.22197e-59
-1.23596e-60
-4.46283e-62
-1.51736e-63
-4.85932e-65
-1.46625e-66
-4.16978e-68
-1.11793e-69
-2.82641e-71
-6.74043e-73
-1.51665e-74
-3.22057e-76
-6.45558e-78
-1.22178e-79
-2.18372e-81
-3.68676e-83
-5.88059e-85
-8.86358e-87
-1.26267e-88
-1.70037e-90
-2.16491e-92
-2.60646e-94
-2.96786e-96
-3.19653e-98
-3.25702e-100
-3.13995e-102
-2.86445e-104
-2.47303e-106
-2.02084e-108
-1.56314e-110
-1.14465e-112
-7.93584e-115
-5.20955e-117
-3.2384e-119
-1.90642e-121
-1.06291e-123
-5.61297e-126
-2.80762e-128
-1.33033e-130
-5.97149e-133
-2.53938e-135
-1.0231e-137
-3.90549e-140
-1.41259e-142
-4.84124e-145
-1.57222e-147
-4.8384e-150
-1.41102e-152
-3.89957e-155
-1.02133e-157
-2.53503e-160
-5.96318e-163
-1.3294e-165
-2.80876e-168
-5.62419e-171
-1.0673e-173
-1.91953e-176
-3.27173e-179
-5.28478e-182
-8.0897e-185
-1.1735e-187
-1.6131e-190
-2.10113e-193
-2.59321e-196
-3.03244e-199
-3.35962e-202
-3.5262e-205
-3.50598e-208
-3.30193e-211
-2.9454e-214
-2.4883e-217
-1.99068e-220
-1.508e-223
-1.08156e-226
-7.3437e-230
-4.71991e-233
-2.87122e-236
-1.65292e-239
-9.00425e-243
-4.64073e-246
-2.26269e-249
-1.0435e-252
-4.55139e-256
-1.8772e-259
-7.32044e-263
-2.69874e-266
-9.40414e-270
-3.0971e-273
-9.63823e-277
-2.83397e-280
-7.87175e-284
-2.06528e-287
-5.11723e-291
-1.19728e-294
-2.6447e-298
-5.51481e-302
-1.08537e-305
-2.01589e-309
-3.5328e-313
-5.84083e-317
-9.18962e-321
0
0
0
2.1016e-05
2.10156e-05
3.18886e-05
2.59264e-05
3.23435e-05
8.17222e-05
0.000126518
0.000131791
0.000106236
5.68737e-05
2.21532e-05
1.91081e-06
1.65061e-09
-9.28633e-30
-3.03856e-29
-9.46548e-30
-2.47504e-30
-7.30002e-31
-2.29508e-31
-6.90144e-32
-1.90479e-32
-4.80401e-33
-1.11227e-33
-2.3745e-34
-4.68539e-35
-8.55364e-36
-1.44505e-36
-2.25921e-37
-3.26922e-38
-4.38034e-39
-5.43754e-40
-6.25829e-41
-6.68409e-42
-6.63074e-43
-6.1154e-44
-5.24855e-45
-4.1957e-46
-3.12685e-47
-2.17429e-48
-1.41185e-49
-8.56759e-51
-4.86236e-52
-2.58262e-53
-1.28465e-54
-5.98817e-56
-2.61728e-57
-1.07324e-58
-4.13115e-60
-1.49344e-61
-5.07298e-63
-1.61991e-64
-4.86481e-66
-1.37456e-67
-3.65557e-69
-9.15386e-71
-2.15905e-72
-4.79821e-74
-1.00506e-75
-1.98486e-77
-3.69677e-79
-6.49511e-81
-1.0768e-82
-1.68493e-84
-2.48898e-86
-3.47182e-88
-4.57384e-90
-5.69222e-92
-6.69336e-94
-7.4379e-96
-7.81227e-98
-7.75709e-100
-7.28259e-102
-6.46557e-104
-5.4291e-106
-4.31232e-108
-3.24054e-110
-2.30412e-112
-1.55035e-114
-9.87301e-117
-5.95134e-119
-3.39609e-121
-1.83481e-123
-9.3865e-126
-4.5474e-128
-2.0865e-130
-9.06806e-133
-3.73336e-135
-1.4562e-137
-5.38172e-140
-1.88472e-142
-6.25519e-145
-1.96765e-147
-5.86693e-150
-1.65833e-152
-4.44398e-155
-1.12915e-157
-2.72049e-160
-6.21578e-163
-1.34689e-165
-2.76816e-168
-5.3963e-171
-9.97871e-174
-1.75044e-176
-2.91294e-179
-4.59873e-182
-6.88769e-185
-9.78678e-188
-1.31926e-190
-1.68708e-193
-2.04662e-196
-2.35511e-199
-2.57055e-202
-2.66102e-205
-2.61235e-208
-2.43182e-211
-2.1463e-214
-1.79579e-217
-1.42416e-220
-1.07039e-223
-7.62299e-227
-5.14335e-230
-3.28715e-233
-1.98967e-236
-1.14035e-239
-6.18772e-243
-3.17805e-246
-1.54477e-249
-7.10475e-253
-3.09133e-256
-1.27224e-259
-4.95157e-263
-1.82218e-266
-6.33922e-270
-2.08451e-273
-6.47761e-277
-1.90197e-280
-5.27575e-284
-1.38229e-287
-3.42028e-291
-7.9913e-295
-1.7627e-298
-3.67021e-302
-7.21225e-306
-1.3374e-309
-2.33983e-313
-3.86166e-317
-5.88926e-321
0
0
0
2.10157e-05
2.10154e-05
2.10148e-05
2.10146e-05
2.10143e-05
3.20129e-05
5.87009e-05
7.78619e-05
7.25384e-05
3.40306e-05
3.97114e-06
4.87722e-08
3.96007e-10
-2.39094e-30
-2.98917e-30
-1.48492e-30
-6.85054e-31
-3.0267e-31
-1.20951e-31
-4.29377e-32
-1.35801e-32
-3.85235e-33
-9.85916e-34
-2.28664e-34
-4.82331e-35
-9.28063e-36
-1.63319e-36
-2.63487e-37
-3.9056e-38
-5.32961e-39
-6.7078e-40
-7.79974e-41
-8.39214e-42
-8.36727e-43
-7.7409e-44
-6.65322e-45
-5.31867e-46
-3.95885e-47
-2.74639e-48
-1.7774e-49
-1.07404e-50
-6.06489e-52
-3.20279e-53
-1.58289e-54
-7.32635e-56
-3.17775e-57
-1.29244e-58
-4.93185e-60
-1.76666e-61
-5.94376e-63
-1.87909e-64
-5.58482e-66
-1.56112e-67
-4.10591e-69
-1.01647e-70
-2.36951e-72
-5.20292e-74
-1.07649e-75
-2.09934e-77
-3.86007e-79
-6.6938e-81
-1.09505e-82
-1.69039e-84
-2.46288e-86
-3.38767e-88
-4.40006e-90
-5.39769e-92
-6.25514e-94
-6.84904e-96
-7.08708e-98
-6.93148e-100
-6.40885e-102
-5.60274e-104
-4.63187e-106
-3.62171e-108
-2.67877e-110
-1.8745e-112
-1.24115e-114
-7.77697e-117
-4.61214e-119
-2.58916e-121
-1.37605e-123
-6.92447e-126
-3.29968e-128
-1.48918e-130
-6.366e-133
-2.57804e-135
-9.89176e-138
-3.59647e-140
-1.23925e-142
-4.0474e-145
-1.25312e-147
-3.67851e-150
-1.02393e-152
-2.70305e-155
-6.76831e-158
-1.60772e-160
-3.62331e-163
-7.74851e-166
-1.57255e-168
-3.02909e-171
-5.53841e-174
-9.61306e-177
-1.58406e-179
-2.47823e-182
-3.68114e-185
-5.19158e-188
-6.95166e-191
-8.8376e-194
-1.06662e-196
-1.22203e-199
-1.32894e-202
-1.37159e-205
-1.3433e-208
-1.2482e-211
-1.10021e-214
-9.19756e-218
-7.29087e-221
-5.47912e-224
-3.90272e-227
-2.63427e-230
-1.68455e-233
-1.02036e-236
-5.85278e-240
-3.17852e-243
-1.63395e-246
-7.94912e-250
-3.65906e-253
-1.59333e-256
-6.56208e-260
-2.55559e-263
-9.40966e-267
-3.27497e-270
-1.07725e-273
-3.34827e-277
-9.83225e-281
-2.72726e-284
-7.14473e-288
-1.76743e-291
-4.12804e-295
-9.10131e-299
-1.89396e-302
-3.7193e-306
-6.89161e-310
-1.20468e-313
-1.98632e-317
-2.96933e-321
0
0
0
2.10161e-05
2.10157e-05
2.10154e-05
2.10148e-05
2.10148e-05
2.12682e-05
2.99728e-05
3.96057e-05
4.06926e-05
2.18602e-05
2.3114e-06
3.74674e-11
3.85487e-11
9.84981e-12
4.85214e-16
2.72575e-31
-1.332e-31
-1.13162e-31
-6.02019e-32
-2.48334e-32
-8.60878e-33
-2.60015e-33
-6.96369e-34
-1.67022e-34
-3.61155e-35
-7.07642e-36
-1.26167e-36
-2.05412e-37
-3.06321e-38
-4.19514e-39
-5.28868e-40
-6.15e-41
-6.60893e-42
-6.57407e-43
-6.06227e-44
-5.18953e-45
-4.1291e-46
-3.05718e-47
-2.10855e-48
-1.35606e-49
-8.13955e-51
-4.56377e-52
-2.39222e-53
-1.17317e-54
-5.3865e-56
-2.31703e-57
-9.34345e-59
-3.53418e-60
-1.25464e-61
-4.1824e-63
-1.30986e-64
-3.85584e-66
-1.06734e-67
-2.77945e-69
-6.81177e-71
-1.5717e-72
-3.41542e-74
-6.99248e-76
-1.34918e-77
-2.4541e-79
-4.20947e-81
-6.81074e-83
-1.0397e-84
-1.49787e-86
-2.03704e-88
-2.61566e-90
-3.17189e-92
-3.63326e-94
-3.93192e-96
-4.02092e-98
-3.88632e-100
-3.55077e-102
-3.06726e-104
-2.5055e-106
-1.93565e-108
-1.41453e-110
-9.77963e-113
-6.39766e-115
-3.96071e-117
-2.32084e-119
-1.28736e-121
-6.76093e-124
-3.36223e-126
-1.58354e-128
-7.06447e-131
-2.98572e-133
-1.19566e-135
-4.53761e-138
-1.63224e-140
-5.56611e-143
-1.79975e-145
-5.51877e-148
-1.60519e-150
-4.42939e-153
-1.15979e-155
-2.8821e-158
-6.79859e-161
-1.52259e-163
-3.23796e-166
-6.53961e-169
-1.25454e-171
-2.2862e-174
-3.95806e-177
-6.51054e-180
-1.01749e-182
-1.51087e-185
-2.13152e-188
-2.85686e-191
-3.63737e-194
-4.39874e-197
-5.0518e-200
-5.50885e-203
-5.7028e-206
-5.60312e-209
-5.22382e-212
-4.62013e-215
-3.87545e-218
-3.08232e-221
-2.32389e-224
-1.66042e-227
-1.12405e-230
-7.20772e-234
-4.37688e-237
-2.51635e-240
-1.36941e-243
-7.05245e-247
-3.43648e-250
-1.584e-253
-6.90536e-257
-2.84655e-260
-1.10936e-263
-4.08673e-267
-1.42281e-270
-4.68076e-274
-1.45481e-277
-4.27129e-281
-1.18438e-284
-3.10134e-288
-7.66748e-292
-1.78958e-295
-3.94244e-299
-8.1968e-303
-1.60809e-306
-2.97654e-310
-5.19722e-314
-8.55948e-318
-1.20058e-321
0
0
0
5.66952e-05
3.83397e-05
2.11422e-05
2.1015e-05
2.10151e-05
2.55381e-05
2.53243e-05
2.22815e-05
1.93552e-05
1.05651e-05
1.30647e-06
3.56176e-12
3.14508e-12
2.54858e-12
2.75223e-13
2.65782e-26
-2.33857e-45
-3.01515e-32
-2.32975e-32
-1.12535e-32
-4.26159e-33
-1.36051e-33
-3.77845e-34
-9.28548e-35
-2.04119e-35
-4.04452e-36
-7.26507e-37
-1.1884e-37
-1.77676e-38
-2.43545e-39
-3.06875e-40
-3.56263e-41
-3.81842e-42
-3.78516e-43
-3.47595e-44
-2.96135e-45
-2.34373e-46
-1.72529e-47
-1.18261e-48
-7.55601e-50
-4.5044e-51
-2.50761e-52
-1.30476e-53
-6.35011e-55
-2.89291e-56
-1.23449e-57
-4.93761e-59
-1.8522e-60
-6.51996e-62
-2.15488e-63
-6.69025e-65
-1.95213e-66
-5.35575e-68
-1.38217e-69
-3.35666e-71
-7.67406e-73
-1.65224e-74
-3.35119e-76
-6.40542e-78
-1.15412e-79
-1.96082e-81
-3.14219e-83
-4.7506e-85
-6.77793e-87
-9.12818e-89
-1.16068e-90
-1.39372e-92
-1.58078e-94
-1.69388e-96
-1.71515e-98
-1.64138e-100
-1.48486e-102
-1.27001e-104
-1.0272e-106
-7.85787e-109
-5.68627e-111
-3.89312e-113
-2.52226e-115
-1.54659e-117
-8.97701e-120
-4.93324e-122
-2.56716e-124
-1.26524e-126
-5.90709e-129
-2.61298e-131
-1.09534e-133
-4.35209e-136
-1.63937e-138
-5.85572e-141
-1.98384e-143
-6.37607e-146
-1.94457e-148
-5.62887e-151
-1.54684e-153
-4.03646e-156
-1.00041e-158
-2.35545e-161
-5.2695e-164
-1.12031e-166
-2.26384e-169
-4.34849e-172
-7.94055e-175
-1.37847e-177
-2.27499e-180
-3.56927e-183
-5.32302e-186
-7.54507e-189
-1.01631e-191
-1.30066e-194
-1.58118e-197
-1.82547e-200
-2.00092e-203
-2.08175e-206
-2.05519e-209
-1.92476e-212
-1.70953e-215
-1.43957e-218
-1.14901e-221
-8.69036e-225
-6.22667e-228
-4.22549e-231
-2.71513e-234
-1.6516e-237
-9.50854e-241
-5.18011e-244
-2.66982e-247
-1.30157e-250
-6.00081e-254
-2.616e-257
-1.07813e-260
-4.19989e-264
-1.54623e-267
-5.37903e-271
-1.76795e-274
-5.48905e-278
-1.60966e-281
-4.45762e-285
-1.16562e-288
-2.87754e-292
-6.70576e-296
-1.47489e-299
-3.06136e-303
-5.9956e-307
-1.10782e-310
-1.93085e-314
-3.17449e-318
-3.60668e-322
0
0
0
0.000181224
0.000113654
5.7582e-05
2.95481e-05
2.86454e-05
3.93509e-05
6.36523e-05
5.76591e-05
2.33583e-05
2.72979e-06
1.56397e-07
8.42888e-10
8.03078e-14
8.03474e-14
3.91348e-14
1.2623e-15
2.85951e-29
5.32887e-49
-6.74369e-33
-4.18828e-33
-1.74689e-33
-5.87319e-34
-1.68197e-34
-4.21394e-35
-9.3813e-36
-1.87458e-36
-3.38573e-37
-5.55626e-38
-8.31943e-39
-1.14042e-39
-1.4353e-40
-1.66268e-41
-1.77668e-42
-1.75459e-43
-1.6042e-44
-1.35998e-45
-1.07054e-46
-7.83492e-48
-5.33746e-49
-3.38826e-50
-2.0063e-51
-1.10914e-52
-5.72979e-54
-2.76817e-55
-1.25164e-56
-5.30034e-58
-2.10355e-59
-7.82876e-61
-2.73388e-62
-8.96286e-64
-2.76008e-65
-7.98753e-67
-2.17331e-68
-5.56206e-70
-1.33947e-71
-3.03658e-73
-6.48257e-75
-1.30369e-76
-2.47064e-78
-4.41355e-80
-7.43433e-82
-1.18112e-83
-1.77037e-85
-2.50416e-87
-3.34347e-89
-4.21478e-91
-5.01756e-93
-5.64217e-95
-5.99418e-97
-6.01771e-99
-5.71004e-101
-5.12198e-103
-4.34423e-105
-3.48454e-107
-2.64374e-109
-1.89765e-111
-1.28889e-113
-8.28524e-116
-5.04159e-118
-2.90462e-120
-1.58474e-122
-8.18973e-125
-4.00973e-127
-1.86035e-129
-8.18109e-132
-3.41092e-134
-1.3486e-136
-5.05785e-139
-1.79983e-141
-6.07859e-144
-1.94894e-146
-5.93391e-149
-1.71611e-151
-4.71552e-154
-1.23139e-156
-3.05664e-159
-7.2137e-162
-1.61886e-164
-3.455e-167
-7.01315e-170
-1.35399e-172
-2.48626e-175
-4.34192e-178
-7.21057e-181
-1.13853e-183
-1.70891e-186
-2.4378e-189
-3.30421e-192
-4.25411e-195
-5.20108e-198
-6.0366e-201
-6.64924e-204
-6.94867e-207
-6.88731e-210
-6.47278e-213
-5.76633e-216
-4.86813e-219
-3.89368e-222
-2.9498e-225
-2.11617e-228
-1.43729e-231
-9.24e-235
-5.62157e-238
-3.23598e-241
-1.76218e-244
-9.07618e-248
-4.42081e-251
-2.03595e-254
-8.86416e-258
-3.64791e-261
-1.41881e-264
-5.21456e-268
-1.81075e-271
-5.9401e-275
-1.84058e-278
-5.38633e-282
-1.48846e-285
-3.88372e-289
-9.56635e-293
-2.2243e-296
-4.88107e-300
-1.01081e-303
-1.97506e-307
-3.64085e-311
-6.33093e-315
-1.0387e-318
0
0
0
0
0.000435469
0.000242509
0.000134539
0.000105542
7.02823e-05
5.87732e-05
7.31382e-05
6.88367e-05
3.2931e-05
2.85531e-06
1.67109e-10
7.06094e-11
6.45768e-13
7.35839e-16
7.36109e-16
2.81563e-16
4.59771e-18
1.61953e-39
-2.1108e-33
-1.3984e-33
-6.15255e-34
-2.15049e-34
-6.33223e-35
-1.6184e-35
-3.65439e-36
-7.37427e-37
-1.34054e-37
-2.20853e-38
-3.31306e-39
-4.54273e-40
-5.71151e-41
-6.60258e-42
-7.03442e-43
-6.92137e-44
-6.3009e-45
-5.31585e-46
-4.16244e-47
-3.02911e-48
-2.05119e-49
-1.29394e-50
-7.61188e-52
-4.17975e-53
-2.14431e-54
-1.02863e-55
-4.61748e-57
-1.94104e-58
-7.64622e-60
-2.82431e-61
-9.78795e-63
-3.18439e-64
-9.73068e-66
-2.79421e-67
-7.54357e-69
-1.91552e-70
-4.57691e-72
-1.02944e-73
-2.18043e-75
-4.35053e-77
-8.17995e-79
-1.4498e-80
-2.42294e-82
-3.8193e-84
-5.68004e-86
-7.97188e-88
-1.05614e-89
-1.32113e-91
-1.56074e-93
-1.74172e-95
-1.83648e-97
-1.82999e-99
-1.72368e-101
-1.53499e-103
-1.29267e-105
-1.02965e-107
-7.75898e-110
-5.53257e-112
-3.73379e-114
-2.38546e-116
-1.44308e-118
-8.26812e-121
-4.48778e-123
-2.3082e-125
-1.12525e-127
-5.20089e-130
-2.27974e-132
-9.47982e-135
-3.74072e-137
-1.40115e-139
-4.9834e-142
-1.6835e-144
-5.40355e-147
-1.64835e-149
-4.78015e-152
-1.31814e-154
-3.457e-157
-8.62441e-160
-2.04693e-162
-4.62222e-165
-9.93069e-168
-2.02989e-170
-3.94722e-173
-7.30082e-176
-1.2842e-178
-2.14773e-181
-3.41425e-184
-5.15771e-187
-7.40175e-190
-1.00877e-192
-1.30524e-195
-1.60284e-198
-1.8675e-201
-2.06378e-204
-2.1626e-207
-2.1482e-210
-2.02229e-213
-1.80373e-216
-1.52391e-219
-1.21927e-222
-9.23655e-226
-6.62361e-229
-4.49552e-232
-2.8872e-235
-1.75438e-238
-1.0084e-241
-5.48221e-245
-2.81845e-248
-1.37008e-251
-6.29634e-255
-2.7352e-258
-1.12301e-261
-4.35729e-265
-1.59746e-268
-5.5331e-272
-1.81042e-275
-5.595e-279
-1.633e-282
-4.50059e-286
-1.17114e-289
-2.87697e-293
-6.67127e-297
-1.46001e-300
-3.01533e-304
-5.87592e-308
-1.08028e-311
-1.87343e-315
-3.06597e-319
0
0
0
0
0.000576637
0.000455199
0.00028149
0.00024566
0.000198156
9.86813e-05
7.31367e-05
7.0726e-05
3.70032e-05
4.593e-06
5.06813e-13
1.67309e-12
5.51067e-13
4.32533e-15
6.49046e-19
1.83844e-17
3.3566e-18
1.83425e-38
-4.40001e-34
-3.61956e-34
-1.79281e-34
-6.70524e-35
-2.05861e-35
-5.40691e-36
-1.24347e-36
-2.54043e-37
-4.65597e-38
-7.70969e-39
-1.15973e-39
-1.59168e-40
-2.00025e-41
-2.30856e-42
-2.45326e-43
-2.40578e-44
-2.18139e-45
-1.83203e-46
-1.42737e-47
-1.03314e-48
-6.95597e-50
-4.36164e-51
-2.5498e-52
-1.39107e-53
-7.08919e-55
-3.37762e-56
-1.50571e-57
-6.2851e-59
-2.45824e-60
-9.01489e-62
-3.10158e-63
-1.0017e-64
-3.03853e-66
-8.66116e-68
-2.32104e-69
-5.8503e-71
-1.38755e-72
-3.09789e-74
-6.51325e-76
-1.29003e-77
-2.40782e-79
-4.23652e-81
-7.02897e-83
-1.10002e-84
-1.62429e-86
-2.26358e-88
-2.97792e-90
-3.69937e-92
-4.34058e-94
-4.81147e-96
-5.03992e-98
-4.98982e-100
-4.67051e-102
-4.13393e-104
-3.46085e-106
-2.7411e-108
-2.05445e-110
-1.45748e-112
-9.78938e-115
-6.22683e-117
-3.75195e-119
-2.14214e-121
-1.15922e-123
-5.9477e-126
-2.89421e-128
-1.33615e-130
-5.85415e-133
-2.43506e-135
-9.6192e-138
-3.60992e-140
-1.28744e-142
-4.36477e-145
-1.4071e-147
-4.31443e-150
-1.2585e-152
-3.49284e-155
-9.22467e-158
-2.31842e-160
-5.54499e-163
-1.26197e-165
-2.73264e-168
-5.62898e-171
-1.1028e-173
-2.05436e-176
-3.63785e-179
-6.12168e-182
-9.78626e-185
-1.48574e-187
-2.14146e-190
-2.9294e-193
-3.80202e-196
-4.68045e-199
-5.46354e-202
-6.04582e-205
-6.34047e-208
-6.30037e-211
-5.93052e-214
-5.28697e-217
-4.46297e-220
-3.56664e-223
-2.69799e-226
-1.93146e-229
-1.30839e-232
-8.38532e-236
-5.08366e-239
-2.915e-242
-1.58073e-245
-8.1052e-249
-3.92928e-252
-1.8007e-255
-7.8001e-259
-3.19325e-262
-1.23534e-265
-4.51558e-269
-1.55939e-272
-5.08702e-276
-1.5674e-279
-4.56101e-283
-1.25326e-286
-3.2515e-290
-7.96374e-294
-1.84121e-297
-4.01765e-301
-8.27337e-305
-1.60755e-308
-2.94695e-312
-5.09612e-316
-8.31512e-320
0
0
0
0
0.000576639
0.000576637
0.000576636
0.000499453
0.000345317
0.000141734
6.033e-05
6.73534e-05
5.42374e-05
1.01679e-05
1.30086e-13
3.02128e-17
6.79697e-14
7.71614e-15
3.97339e-21
3.9742e-21
2.11574e-19
2.17841e-20
-2.48535e-40
-6.03194e-35
-4.13744e-35
-1.77e-35
-5.82502e-36
-1.59302e-36
-3.7578e-37
-7.80613e-38
-1.44655e-38
-2.4125e-39
-3.64475e-40
-5.01326e-41
-6.3035e-42
-7.26943e-43
-7.71079e-44
-7.54101e-45
-6.8141e-46
-5.69963e-47
-4.42044e-48
-3.1836e-49
-2.13201e-50
-1.32929e-51
-7.72508e-53
-4.18866e-54
-2.12114e-55
-1.00407e-56
-4.44653e-58
-1.84361e-59
-7.16182e-61
-2.60838e-62
-8.91215e-64
-2.85833e-65
-8.60992e-67
-2.43707e-68
-6.48529e-70
-1.62324e-71
-3.82314e-73
-8.47651e-75
-1.76988e-76
-3.48145e-78
-6.45388e-80
-1.1279e-81
-1.85888e-83
-2.88998e-85
-4.23967e-87
-5.87067e-89
-7.67504e-91
-9.47613e-93
-1.10523e-94
-1.21805e-96
-1.26874e-98
-1.24937e-100
-1.16342e-102
-1.02476e-104
-8.54e-107
-6.73547e-109
-5.0289e-111
-3.55547e-113
-2.38107e-115
-1.51088e-117
-9.08688e-120
-5.18164e-122
-2.80246e-124
-1.43808e-126
-7.00411e-129
-3.23899e-131
-1.42268e-133
-5.93745e-136
-2.35523e-138
-8.88271e-141
-3.1861e-143
-1.08713e-145
-3.52936e-148
-1.09036e-150
-3.20585e-153
-8.97066e-156
-2.38893e-158
-6.05395e-161
-1.45972e-163
-3.34822e-166
-7.30411e-169
-1.51501e-171
-2.98697e-174
-5.59602e-177
-9.95919e-180
-1.68316e-182
-2.70051e-185
-4.11196e-188
-5.94028e-191
-8.13945e-194
-1.05754e-196
-1.30256e-199
-1.52053e-202
-1.68186e-205
-1.76236e-208
-1.74912e-211
-1.64393e-214
-1.46289e-217
-1.23235e-220
-9.8261e-224
-7.41467e-227
-5.29418e-230
-3.57644e-233
-2.28551e-236
-1.3815e-239
-7.89746e-243
-4.26927e-246
-2.18216e-249
-1.0545e-252
-4.81695e-256
-2.0798e-259
-8.48672e-263
-3.2725e-266
-1.19231e-269
-4.10412e-273
-1.33451e-276
-4.09864e-280
-1.18886e-283
-3.25635e-287
-8.42176e-291
-2.05626e-294
-4.73934e-298
-1.03099e-301
-2.11662e-305
-4.10034e-309
-7.4944e-313
-1.29219e-316
-2.11262e-320
0
0
0
0
0.000226902
0.000262247
0.000239993
0.000124145
4.23817e-05
3.52428e-05
3.90441e-05
6.20922e-05
6.43271e-05
3.57265e-05
3.92019e-06
3.03627e-17
1.08576e-15
3.57105e-16
3.22865e-18
7.75733e-22
2.49092e-21
8.83448e-22
1.61477e-23
7.24748e-43
-4.1226e-36
-2.30897e-36
-8.36369e-37
-2.40591e-37
-5.85841e-38
-1.24301e-38
-2.33666e-39
-3.93462e-40
-5.98114e-41
-8.25638e-42
-1.03974e-42
-1.199e-43
-1.27006e-44
-1.23907e-45
-1.11591e-46
-9.29605e-48
-7.17595e-49
-5.14123e-50
-3.42359e-51
-2.12176e-52
-1.22525e-53
-6.59982e-55
-3.31947e-56
-1.56037e-57
-6.86098e-59
-2.82414e-60
-1.08907e-61
-3.93721e-63
-1.33526e-64
-4.25062e-66
-1.27084e-67
-3.57041e-69
-9.43076e-71
-2.34307e-72
-5.47807e-74
-1.20575e-75
-2.4995e-77
-4.8818e-79
-8.98662e-81
-1.55975e-82
-2.55332e-84
-3.94354e-86
-5.74826e-88
-7.91022e-90
-1.02796e-91
-1.26189e-93
-1.46373e-95
-1.60478e-97
-1.66347e-99
-1.63074e-101
-1.51238e-103
-1.3273e-105
-1.10268e-107
-8.6745e-110
-6.46388e-112
-4.56401e-114
-3.05461e-116
-1.93856e-118
-1.16702e-120
-6.66677e-123
-3.61538e-125
-1.8619e-127
-9.10927e-130
-4.23532e-132
-1.87201e-134
-7.86823e-137
-3.14563e-139
-1.19644e-141
-4.33009e-144
-1.49133e-146
-4.88806e-149
-1.5247e-151
-4.52564e-154
-1.27812e-156
-3.43387e-159
-8.77448e-162
-2.13194e-164
-4.92408e-167
-1.0808e-169
-2.25374e-172
-4.46341e-175
-8.39276e-178
-1.49792e-180
-2.53683e-183
-4.07564e-186
-6.20998e-189
-8.97153e-192
-1.22864e-194
-1.59468e-197
-1.9612e-200
-2.28502e-203
-2.52174e-206
-2.63562e-209
-2.60835e-212
-2.44393e-215
-2.16765e-218
-1.81975e-221
-1.44575e-224
-1.08691e-227
-7.73118e-231
-5.2025e-234
-3.31156e-237
-1.99374e-240
-1.13518e-243
-6.11193e-247
-3.11141e-250
-1.49748e-253
-6.81295e-257
-2.92981e-260
-1.19075e-263