/*--------------------------------*- C++ -*----------------------------------*\
| =========                 |                                                 |
| \\      /  F ield         | OpenFOAM: The Open Source CFD Toolbox           |
|  \\    /   O peration     | Version:  v1912                                 |
|   \\  /    A nd           | Website:  www.openfoam.com                      |
|    \\/     M anipulation  |                                                 |
\*---------------------------------------------------------------------------*/
FoamFile
{
    version     2.0;
    format      ascii;
    class       volScalarField;
    location    "80";
    object      k;
}
// * * * * * * * * * * * * * * * * * * * * * * * * * * * * * * * * * * * * * //

dimensions      [0 2 -2 0 0 0 0];


internalField   nonuniform List<scalar> 
14268
(
0.0267153
0.0270315
0.0356216
0.062166
0.0755872
0.0665018
0.0373148
0.0101471
0.0487896
0.164229
0.214673
0.25169
0.150033
0.0511045
0.0193004
0.00542116
0.0199335
0.0950328
0.145877
0.160302
0.167769
0.179727
0.162951
0.0935065
0.042439
0.0491802
0.0579027
0.0713572
0.0279782
0.00775538
0.0122385
0.0131758
0.0275328
0.0417162
0.0578842
0.0712974
0.0641446
0.0611263
0.0544194
0.048549
0.0486662
0.0494745
0.0477581
0.0501528
0.0482561
0.0402094
0.030493
0.0180248
0.00828245
0.00554286
0.00474944
0.0231049
0.0342178
0.0249467
0.0141161
0.0191245
0.0394022
0.0260724
0.0132445
0.0160303
0.0214516
0.0166908
0.00834218
0.0125798
0.0307072
0.0386656
0.0355754
0.0388652
0.0333509
0.0287225
0.02356
0.0246687
0.0238023
0.0157461
0.00582599
0.00187173
0.00437369
0.00607313
0.00642986
0.00741434
0.00505425
0.00285101
0.0030828
0.00509356
0.0114722
0.0134889
0.0120204
0.0124093
0.016358
0.020851
0.0227022
0.0234208
0.0225977
0.0203642
0.0156275
0.00913264
0.00381053
0.00290182
0.00213091
0.00318451
0.00760572
0.0129567
0.01842
0.0266917
0.0552316
0.0598247
0.101247
0.233301
0.345382
0.299172
0.153645
0.0410774
0.180268
0.479155
0.502461
0.684541
0.541179
0.247393
0.0705539
0.0204289
0.06991
0.225947
0.280831
0.307311
0.320404
0.385469
0.401063
0.278777
0.172891
0.2207
0.252687
0.276059
0.121954
0.0258032
0.0385039
0.036034
0.0684877
0.102413
0.154572
0.219961
0.19053
0.183213
0.160763
0.137723
0.13242
0.136176
0.142889
0.15584
0.164981
0.14583
0.112481
0.0693362
0.0334497
0.0225429
0.0173044
0.0718784
0.0974612
0.0644704
0.0458269
0.0657278
0.124421
0.0887134
0.0498208
0.0586547
0.0661012
0.0533953
0.0306335
0.041848
0.102881
0.126427
0.118424
0.129207
0.105342
0.087566
0.0728903
0.0764841
0.0730248
0.0495208
0.0226114
0.00831985
0.0165906
0.0235215
0.0243114
0.0266445
0.0183611
0.0111683
0.0115742
0.0185148
0.038991
0.0450111
0.0401644
0.0406983
0.0516321
0.0655416
0.0719635
0.0736338
0.0706899
0.0628988
0.0491946
0.0315552
0.0159792
0.0134853
0.00994635
0.0124569
0.0264616
0.0440009
0.0610597
0.0865588
0.0627482
0.0520415
0.105713
0.286489
0.483881
0.469236
0.293207
0.0676345
0.302259
0.481813
0.479881
0.659713
0.647947
0.456799
0.139352
0.0375042
0.117467
0.292401
0.3848
0.405839
0.381921
0.411155
0.46646
0.319005
0.229117
0.374914
0.42276
0.406194
0.232726
0.0643372
0.0645367
0.107525
0.146664
0.195465
0.255515
0.310947
0.271957
0.256036
0.205084
0.160381
0.158367
0.162709
0.16946
0.192861
0.237015
0.244068
0.204664
0.134114
0.0709344
0.0536842
0.030618
0.0871594
0.121419
0.0714329
0.0494785
0.0757003
0.179231
0.141647
0.0890903
0.0831911
0.075332
0.0725623
0.0553048
0.069494
0.155825
0.179627
0.176813
0.211443
0.164685
0.124854
0.0978395
0.102241
0.0942842
0.0634129
0.0355655
0.0149541
0.0294601
0.0432887
0.0435535
0.0429448
0.0280419
0.0157497
0.015894
0.0273708
0.0599099
0.0678717
0.0566726
0.0563105
0.0756285
0.100614
0.111854
0.114251
0.109279
0.0963687
0.0718424
0.045945
0.0288698
0.0256506
0.0181887
0.0199896
0.0424815
0.0682119
0.0931885
0.130745
0.108835
0.0372285
0.0750408
0.228146
0.381483
0.424065
0.356392
0.0895561
0.329131
0.387779
0.440271
0.573077
0.489886
0.522852
0.253985
0.0694041
0.148923
0.281789
0.450797
0.44619
0.39326
0.398009
0.400212
0.302463
0.258692
0.42596
0.422473
0.355083
0.223779
0.103262
0.0999611
0.203257
0.296768
0.349488
0.389051
0.416381
0.374373
0.27095
0.200383
0.155117
0.159926
0.16284
0.161903
0.179588
0.23247
0.28476
0.265015
0.185025
0.103433
0.0881899
0.0488257
0.113409
0.172086
0.0855764
0.0369423
0.0529885
0.189991
0.176112
0.102265
0.0592862
0.0429107
0.0645348
0.0746574
0.090593
0.161907
0.175243
0.182109
0.267831
0.224354
0.157836
0.110514
0.11646
0.101001
0.0580637
0.0292612
0.0146377
0.0422332
0.0605577
0.058817
0.0527471
0.0309087
0.0176264
0.0190199
0.0334026
0.0747451
0.0770948
0.0627775
0.0676286
0.0992119
0.132947
0.146323
0.147453
0.140501
0.123333
0.085377
0.0490253
0.0314366
0.0266268
0.0191111
0.0269073
0.0560437
0.0855083
0.114754
0.157143
0.183824
0.0548173
0.0493693
0.165684
0.295205
0.298399
0.2828
0.142073
0.295466
0.33975
0.38762
0.530458
0.393025
0.447412
0.421272
0.150963
0.192836
0.354374
0.686953
0.63436
0.455728
0.395782
0.342436
0.29003
0.33451
0.460019
0.372505
0.286677
0.183465
0.0935022
0.123528
0.296373
0.403199
0.47089
0.522481
0.532071
0.458882
0.272467
0.203376
0.164624
0.175612
0.181631
0.177594
0.202709
0.282345
0.327852
0.291911
0.20927
0.139898
0.130106
0.08698
0.18657
0.269366
0.142394
0.0323912
0.0430737
0.17495
0.203899
0.0894482
0.0337798
0.0326603
0.0678545
0.0941296
0.111343
0.154696
0.171409
0.176414
0.313964
0.29199
0.214566
0.147565
0.157365
0.132843
0.0668402
0.0176356
0.0137776
0.055044
0.0766163
0.0738039
0.0573573
0.0314667
0.0189353
0.0220574
0.0396618
0.087464
0.0746506
0.0618773
0.0803484
0.123887
0.161752
0.176317
0.174091
0.162184
0.14103
0.0989337
0.0492237
0.0270246
0.0220615
0.0176104
0.0339261
0.0674778
0.0990087
0.131307
0.178893
0.215105
0.0981363
0.0328283
0.10251
0.194806
0.206333
0.16132
0.171215
0.275573
0.414086
0.357424
0.465938
0.486664
0.439626
0.573717
0.212142
0.261857
0.460652
0.907868
0.77434
0.70922
0.497718
0.339142
0.286072
0.349238
0.413042
0.305086
0.268824
0.181785
0.0836756
0.134494
0.359212
0.469336
0.543231
0.563718
0.532759
0.443596
0.275877
0.223679
0.188225
0.213817
0.23368
0.235627
0.286363
0.411668
0.41401
0.32726
0.199873
0.134054
0.138421
0.125479
0.252651
0.328732
0.215793
0.0327866
0.0661419
0.139882
0.219036
0.060804
0.0301161
0.0492337
0.0893991
0.0994703
0.122076
0.143443
0.17257
0.160553
0.310755
0.34093
0.270687
0.197968
0.206211
0.171957
0.0929953
0.0197153
0.0209609
0.0668507
0.0897272
0.0855744
0.0637572
0.0346099
0.0219991
0.0249972
0.0462022
0.0889318
0.0650871
0.0628109
0.095377
0.145029
0.184045
0.198847
0.193018
0.168638
0.143396
0.10711
0.0551386
0.0199365
0.016236
0.0201987
0.0408502
0.0759871
0.106972
0.14196
0.196422
0.255585
0.112171
0.0360392
0.0973135
0.175932
0.25339
0.0819361
0.234149
0.366982
0.741623
0.498966
0.424102
0.737222
0.612095
0.742196
0.27342
0.314698
0.46085
0.879952
0.737589
0.953594
0.906517
0.555948
0.294413
0.279629
0.315529
0.248507
0.366543
0.318782
0.104384
0.150826
0.373901
0.476464
0.567891
0.539455
0.499121
0.410807
0.36115
0.333987
0.292386
0.329042
0.346792
0.348108
0.418373
0.552293
0.529059
0.40466
0.197931
0.112727
0.120672
0.130206
0.275977
0.340435
0.278273
0.0563635
0.113893
0.110998
0.238746
0.0398567
0.0357227
0.071555
0.115054
0.10209
0.130703
0.152979
0.196046
0.163136
0.29273
0.384908
0.320051
0.24085
0.245646
0.205672
0.117581
0.0351698
0.0353941
0.0787325
0.103477
0.0980755
0.072616
0.0422419
0.0275409
0.0280033
0.0427975
0.0776161
0.0597182
0.0730026
0.112228
0.163865
0.204577
0.220513
0.214672
0.18258
0.144373
0.107648
0.0635933
0.0194987
0.0159714
0.0232778
0.0474327
0.0826022
0.114705
0.154894
0.217848
0.477648
0.102637
0.0551049
0.320898
0.505377
0.734617
0.153925
0.271213
0.492809
0.796692
0.771381
0.374035
0.63344
0.732072
0.87306
0.333147
0.342785
0.410182
0.822626
0.678431
0.912525
1.17977
0.867918
0.26154
0.20027
0.222083
0.198085
0.392828
0.489734
0.17999
0.198762
0.342294
0.443194
0.557885
0.566252
0.512877
0.428153
0.510657
0.5009
0.45121
0.480853
0.486937
0.471439
0.539732
0.660907
0.621274
0.482133
0.219425
0.0830915
0.090939
0.118699
0.266451
0.323309
0.317479
0.114255
0.148701
0.0779631
0.256487
0.0316052
0.0528129
0.0869696
0.13544
0.112694
0.141334
0.173593
0.208057
0.172734
0.264261
0.410718
0.355423
0.26233
0.266264
0.232284
0.133194
0.053013
0.0511937
0.0891972
0.115566
0.108364
0.0722635
0.0461922
0.0345614
0.0338031
0.0350216
0.0602847
0.065518
0.0897354
0.128395
0.179594
0.221402
0.237745
0.233186
0.204565
0.156518
0.103522
0.0654152
0.0270215
0.0186463
0.026132
0.0529575
0.0874913
0.123994
0.168597
0.234879
1.00868
0.0943492
0.118312
0.670412
0.947233
1.10485
0.440115
0.231036
0.549884
0.697905
0.830261
0.334297
0.574359
0.685373
0.99628
0.315082
0.382181
0.347058
0.746532
0.591693
0.854877
1.17082
1.03527
0.242025
0.126098
0.177463
0.187068
0.378317
0.573747
0.308631
0.272201
0.306432
0.454126
0.595071
0.687289
0.634768
0.553283
0.645072
0.631284
0.574847
0.591849
0.611703
0.596149
0.641713
0.734259
0.683354
0.545587
0.2787
0.065685
0.0632651
0.123288
0.267195
0.316252
0.345363
0.178356
0.142607
0.0505803
0.266257
0.0556369
0.0726576
0.0872906
0.141417
0.133814
0.163266
0.199834
0.200922
0.171773
0.241583
0.431892
0.381375
0.27635
0.278921
0.256674
0.144149
0.0690613
0.0657702
0.0966838
0.127684
0.114627
0.0662677
0.0427164
0.0386624
0.0399597
0.0368155
0.0564158
0.0828856
0.10799
0.143208
0.194598
0.237721
0.254758
0.250741
0.22494
0.17906
0.106086
0.0620449
0.0383594
0.0254489
0.0316379
0.0577244
0.0930301
0.133821
0.181811
0.251251
1.07085
0.130584
0.144195
0.632095
1.0956
1.35237
0.628189
0.154005
0.408743
0.613815
0.745543
0.290304
0.499625
0.685331
1.06364
0.341729
0.360545
0.324606
0.665863
0.478489
0.777773
1.07013
0.952383
0.277529
0.0865409
0.271363
0.238211
0.408389
0.616606
0.430436
0.336078
0.303554
0.515675
0.679433
0.788213
0.759767
0.685239
0.748894
0.733741
0.641872
0.597414
0.629559
0.652518
0.666809
0.755008
0.708933
0.58693
0.337392
0.0787974
0.0529736
0.158891
0.303684
0.351689
0.367495
0.227445
0.107625
0.0474673
0.238969
0.0976231
0.0727762
0.0797972
0.143141
0.145953
0.181861
0.211187
0.179273
0.153412
0.222035
0.442101
0.394211
0.295302
0.3
0.275605
0.156245
0.082148
0.0774315
0.0965892
0.13055
0.111356
0.064112
0.0431108
0.0398571
0.0453851
0.0436975
0.0694158
0.100211
0.123626
0.156003
0.207526
0.251411
0.268686
0.265262
0.241787
0.199344
0.121048
0.0564157
0.0449922
0.0343076
0.0370224
0.0612491
0.098614
0.142707
0.192577
0.264316
0.938374
0.258411
0.12857
0.549643
0.988386
1.49979
0.784715
0.0938605
0.324555
0.522949
0.673886
0.241684
0.393577
0.790493
0.961032
0.372834
0.297823
0.424263
0.625992
0.348968
0.686599
0.984648
0.791429
0.354486
0.163072
0.488364
0.363696
0.583717
0.633849
0.523175
0.407293
0.342828
0.576806
0.756192
0.851487
0.864913
0.799033
0.844214
0.797756
0.621317
0.545592
0.585794
0.621284
0.619009
0.713028
0.693535
0.599183
0.387367
0.120976
0.0813242
0.215862
0.376035
0.428329
0.392151
0.264428
0.0787178
0.061474
0.19934
0.0816149
0.0547732
0.088212
0.156534
0.138369
0.182174
0.21165
0.157286
0.131423
0.22281
0.439098
0.420073
0.325658
0.330656
0.282241
0.170319
0.0920714
0.0802327
0.0925539
0.132303
0.105144
0.0701736
0.0515557
0.041835
0.0497179
0.052855
0.083783
0.112599
0.136579
0.168009
0.220191
0.265009
0.282541
0.279059
0.256975
0.217129
0.142675
0.0550596
0.0422489
0.0409352
0.0415297
0.0642826
0.104406
0.151185
0.202932
0.276891
0.841166
0.415365
0.0903349
0.451689
0.855882
1.49101
0.88422
0.138079
0.256071
0.405577
0.593572
0.180557
0.302103
0.880452
0.835399
0.46451
0.235883
0.571834
0.559547
0.250152
0.579212
0.885567
0.667962
0.417987
0.295738
0.697041
0.54175
0.81144
0.62619
0.556731
0.470384
0.394495
0.628034
0.796311
0.826211
0.88296
0.871742
0.876135
0.777004
0.551654
0.474846
0.524924
0.561811
0.549656
0.641955
0.630764
0.566886
0.421481
0.166798
0.131732
0.273829
0.449844
0.494696
0.390481
0.258368
0.0779602
0.0797394
0.154246
0.0535309
0.0419482
0.0998217
0.178691
0.116542
0.162314
0.200964
0.133475
0.106242
0.229496
0.411359
0.442111
0.353516
0.351625
0.278432
0.179413
0.0925167
0.0732391
0.0907048
0.14073
0.101954
0.0785361
0.0596104
0.0463282
0.0536346
0.061233
0.0937155
0.115436
0.144509
0.178332
0.231382
0.276629
0.294282
0.290974
0.270208
0.232537
0.16144
0.0645854
0.0335244
0.037349
0.0444593
0.0675006
0.110088
0.158595
0.211501
0.287276
0.731517
0.538118
0.0545863
0.431147
0.769298
1.45242
0.972332
0.321281
0.224118
0.300168
0.509281
0.115329
0.282393
0.955047
0.702314
0.579915
0.175589
0.626588
0.469813
0.296491
0.451483
0.791834
0.633853
0.506699
0.414846
0.821212
0.653433
0.990879
0.617008
0.497789
0.423288
0.428377
0.662002
0.792611
0.773594
0.843029
0.85817
0.832856
0.721159
0.499137
0.40621
0.459603
0.499195
0.489651
0.622794
0.600257
0.523072
0.409594
0.204082
0.177195
0.329504
0.51574
0.536683
0.360208
0.233163
0.0986165
0.0949191
0.106718
0.0502817
0.0442302
0.112902
0.211558
0.10657
0.136232
0.181249
0.11346
0.0789223
0.217984
0.377125
0.438247
0.367834
0.356757
0.278432
0.180468
0.0850826
0.0633616
0.0953563
0.154631
0.107546
0.0838557
0.0655711
0.0523778
0.0582363
0.0683704
0.0974902
0.111487
0.147242
0.187764
0.242469
0.288264
0.305829
0.302072
0.282213
0.246586
0.177825
0.0812456
0.027841
0.0293652
0.0446951
0.071277
0.115918
0.165638
0.219797
0.296749
0.611387
0.491692
0.0417856
0.622399
0.763433
1.42898
1.00476
0.406324
0.258462
0.225753
0.43188
0.101218
0.391072
0.934266
0.613828
0.526083
0.141441
0.564703
0.369985
0.41893
0.337738
0.700405
0.654924
0.635309
0.520607
0.73414
0.61606
1.07337
0.642918
0.424692
0.345126
0.437641
0.666849
0.754208
0.712943
0.784919
0.802438
0.770047
0.657886
0.483968
0.374691
0.391989
0.432413
0.466629
0.693058
0.635544
0.485611
0.368575
0.22711
0.216511
0.382048
0.569889
0.535206
0.313741
0.22675
0.119623
0.101554
0.0683487
0.0490116
0.0533141
0.121821
0.245578
0.125716
0.11907
0.156971
0.121085
0.0688739
0.19099
0.340439
0.407568
0.360894
0.348761
0.291798
0.180545
0.0759445
0.055648
0.10366
0.168801
0.118851
0.0816421
0.0675899
0.0574162
0.0631811
0.074462
0.0946764
0.106328
0.145464
0.195368
0.252216
0.298023
0.31541
0.311121
0.292188
0.258943
0.192227
0.0968438
0.0316615
0.0280861
0.0448752
0.0751808
0.121295
0.171678
0.226649
0.304008
0.505811
0.384629
0.0470536
0.88754
0.971737
1.44117
0.820014
0.29714
0.334576
0.184858
0.30527
0.230548
0.510698
0.87261
0.538717
0.432784
0.158557
0.420066
0.237407
0.579151
0.23579
0.554352
0.56028
0.593618
0.459195
0.600621
0.490639
1.12128
0.800662
0.351063
0.25171
0.437563
0.625858
0.681842
0.649243
0.69757
0.713934
0.674979
0.569451
0.48193
0.386857
0.328239
0.372555
0.511111
0.840648
0.727697
0.467346
0.303017
0.222711
0.26808
0.465518
0.622896
0.493973
0.242231
0.252892
0.149258
0.117093
0.0485026
0.0498407
0.0648086
0.139046
0.29364
0.178663
0.124004
0.126471
0.180718
0.0672583
0.147188
0.285939
0.348464
0.336434
0.355238
0.325267
0.192844
0.0678071
0.0551455
0.120226
0.190658
0.129431
0.0728967
0.0666232
0.0626
0.0703719
0.0829372
0.0877078
0.10411
0.145763
0.206466
0.266058
0.31151
0.327923
0.322068
0.304064
0.274739
0.211733
0.1173
0.0439028
0.0329377
0.0480596
0.0808521
0.128746
0.179954
0.236467
0.313847
0.584331
0.215508
0.131889
1.20305
1.18689
1.45203
0.626812
0.174087
0.473143
0.161647
0.158378
0.203571
0.667854
0.751302
0.490251
0.32666
0.247238
0.2446
0.179003
0.78004
0.25159
0.360736
0.39672
0.406826
0.302881
0.389184
0.38241
1.29138
1.14722
0.441223
0.281368
0.441959
0.583979
0.671978
0.71187
0.657894
0.62477
0.595948
0.50212
0.426588
0.377273
0.387892
0.459046
0.661309
1.02049
0.880242
0.544348
0.27152
0.2172
0.339625
0.533152
0.581893
0.396576
0.167513
0.238273
0.159416
0.168545
0.0778151
0.0590671
0.0780557
0.15279
0.300491
0.2409
0.154437
0.116806
0.248633
0.0700572
0.0888081
0.222159
0.310367
0.348487
0.421311
0.363609
0.219637
0.081137
0.0749414
0.140603
0.219241
0.115573
0.0747785
0.0733278
0.0694437
0.0776716
0.0883686
0.0892217
0.120131
0.163326
0.220823
0.27929
0.321606
0.337314
0.330852
0.314193
0.289004
0.232364
0.138642
0.0576149
0.0415109
0.0542405
0.0873622
0.135528
0.186739
0.245258
0.325031
0.655592
0.115789
0.34707
1.26333
1.0941
1.22804
0.526317
0.155521
0.514141
0.132204
0.091004
0.119114
0.684807
0.767011
0.535371
0.212241
0.324177
0.188828
0.353289
0.934649
0.332577
0.212966
0.268089
0.269283
0.221319
0.239741
0.489575
1.45416
1.3915
0.677568
0.372702
0.454495
0.634553
0.791398
0.876172
0.782744
0.680066
0.666646
0.553158
0.35199
0.313317
0.410177
0.549368
0.745531
1.09932
1.0011
0.639578
0.313225
0.263899
0.39794
0.478654
0.472147
0.322384
0.153665
0.186469
0.145306
0.222096
0.121213
0.0712752
0.0919334
0.169742
0.280142
0.266979
0.15273
0.143874
0.294705
0.0800977
0.073626
0.190766
0.319601
0.3916
0.473399
0.39601
0.244748
0.102913
0.0960565
0.16276
0.250564
0.093457
0.0882021
0.0885706
0.0794396
0.0843155
0.0914224
0.104076
0.143134
0.184194
0.236019
0.290975
0.330233
0.346212
0.341469
0.324762
0.301729
0.249125
0.157139
0.0688345
0.0487967
0.0595591
0.0915668
0.139756
0.190238
0.25191
0.336769
0.49897
0.223732
0.512007
1.03827
0.903452
1.0133
0.539524
0.161901
0.40484
0.109433
0.065838
0.0702679
0.544133
1.08055
0.782309
0.107409
0.433056
0.326555
0.525786
0.870329
0.412221
0.148266
0.2875
0.286301
0.380914
0.257345
0.626644
1.41815
1.49435
0.857843
0.453462
0.468154
0.703526
0.904444
1.01429
0.937749
0.842035
0.820185
0.6998
0.372559
0.230352
0.318114
0.496454
0.68206
1.05888
1.04292
0.705283
0.354124
0.329471
0.374538
0.392796
0.346242
0.319925
0.195204
0.126029
0.140156
0.263758
0.150964
0.0869992
0.087445
0.162585
0.256286
0.240305
0.126254
0.176453
0.291467
0.0894181
0.0723718
0.143095
0.280293
0.36158
0.488745
0.412149
0.265328
0.122736
0.113352
0.182931
0.276105
0.0856083
0.0987511
0.1012
0.0893243
0.0916304
0.0980681
0.1212
0.16337
0.202794
0.249679
0.299237
0.337004
0.356389
0.354391
0.337621
0.31684
0.26457
0.172745
0.078498
0.0547615
0.0635862
0.0944546
0.14178
0.18963
0.254538
0.345562
0.304864
0.212026
0.649816
0.84914
0.75806
0.826031
0.623305
0.154742
0.290883
0.0919897
0.0587583
0.0716573
0.396649
1.1576
1.15545
0.076214
0.475992
0.494999
0.55032
0.693258
0.456839
0.159937
0.431517
0.410463
0.626092
0.344443
0.744963
1.34004
1.50502
0.997628
0.46876
0.488188
0.77303
1.0115
1.13425
1.05997
0.917982
0.899
0.835967
0.50033
0.236747
0.20922
0.386652
0.588335
0.947965
1.02266
0.74773
0.389276
0.358379
0.311471
0.297621
0.25102
0.389531
0.251797
0.0970501
0.165544
0.298618
0.175172
0.10603
0.0750623
0.160185
0.229388
0.189643
0.110432
0.200066
0.249403
0.0975039
0.0764882
0.0855811
0.203713
0.287666
0.457642
0.408009
0.279745
0.139041
0.127586
0.205786
0.273447
0.092851
0.105456
0.1117
0.0983743
0.0994543
0.107369
0.137137
0.181504
0.219743
0.262888
0.307019
0.344578
0.369455
0.36763
0.351737
0.333985
0.281927
0.1876
0.087478
0.0600664
0.0675019
0.0984658
0.141773
0.187763
0.255386
0.350824
0.149624
0.134178
0.716652
0.654992
0.603313
0.638329
0.643113
0.170437
0.181989
0.0676775
0.0608532
0.125035
0.252549
1.08956
1.18789
0.111583
0.366982
0.552816
0.425195
0.530205
0.445994
0.190385
0.390919
0.478079
0.501949
0.292396
0.767323
1.24158
1.45052
1.0551
0.447061
0.524386
0.826367
1.06033
1.16356
1.07838
0.888256
0.874292
0.886181
0.601856
0.341928
0.170182
0.27782
0.493304
0.83042
0.958561
0.762735
0.42248
0.316467
0.242597
0.195776
0.205458
0.431517
0.293104
0.124486
0.199392
0.307165
0.188695
0.120789
0.0775847
0.173897
0.197891
0.140278
0.116708
0.200595
0.199243
0.104212
0.0830797
0.0717388
0.132489
0.209165
0.403617
0.382623
0.281606
0.152499
0.140321
0.223019
0.245141
0.0984388
0.106605
0.118358
0.106653
0.106049
0.115379
0.149564
0.196841
0.234451
0.274331
0.313086
0.351093
0.380434
0.379402
0.364829
0.350565
0.299193
0.202235
0.096034
0.0649656
0.0718429
0.103131
0.141475
0.185228
0.252814
0.3498
0.0740665
0.118066
0.653069
0.477919
0.474153
0.493862
0.6299
0.261603
0.123774
0.064277
0.066688
0.138744
0.167935
0.995286
1.09241
0.27581
0.264456
0.466766
0.310461
0.397389
0.392207
0.189876
0.305347
0.432227
0.415165
0.230945
0.74755
1.15044
1.35569
1.00763
0.440972
0.556233
0.825348
1.02598
1.11215
1.02836
0.835752
0.825592
0.85321
0.653848
0.423916
0.239362
0.215043
0.412476
0.724083
0.880482
0.751763
0.445621
0.263307
0.187458
0.12366
0.203041
0.422303
0.317113
0.165746
0.216287
0.290507
0.193621
0.134407
0.0892217
0.173894
0.172686
0.114159
0.124397
0.179913
0.160918
0.108557
0.0903285
0.0730749
0.0995825
0.162532
0.349306
0.34439
0.269835
0.162625
0.150428
0.218338
0.212474
0.0988003
0.104393
0.120837
0.113757
0.111771
0.121283
0.158379
0.209402
0.247914
0.285421
0.321154
0.361016
0.390406
0.39042
0.377184
0.365211
0.314621
0.216385
0.104628
0.0696971
0.0763248
0.107411
0.143302
0.184707
0.248861
0.342605
0.0605974
0.110211
0.157097
0.113192
0.129618
0.109805
0.245788
0.188591
0.100588
0.0624648
0.0680275
0.0978325
0.101421
0.349239
0.420011
0.655138
0.202908
0.166226
0.163247
0.192837
0.232903
0.158774
0.109814
0.139475
0.130416
0.1419
0.475145
0.69683
0.818787
0.673333
0.538046
0.611303
0.627856
0.684054
0.69565
0.642477
0.5318
0.551489
0.614293
0.705934
0.674355
0.470034
0.134705
0.111455
0.241486
0.469565
0.578498
0.487687
0.196558
0.0701799
0.0891458
0.222705
0.276931
0.338746
0.312715
0.222848
0.132837
0.168799
0.187092
0.151457
0.110801
0.0660875
0.0891975
0.116436
0.0823688
0.0864976
0.116465
0.122062
0.100915
0.0872763
0.0857279
0.113338
0.150008
0.177881
0.189325
0.169274
0.11693
0.0760461
0.0744399
0.0911864
0.124502
0.144149
0.140302
0.14673
0.184953
0.251002
0.302773
0.333471
0.36274
0.416759
0.437495
0.438985
0.429392
0.41573
0.363696
0.269479
0.14531
0.0926621
0.0969622
0.123358
0.152087
0.184339
0.226671
0.288258
0.10074
0.103288
0.0629909
0.0762296
0.0858389
0.098504
0.139559
0.159361
0.143607
0.107816
0.0738694
0.0488918
0.0324821
0.0411108
0.0508042
0.0713056
0.101765
0.170414
0.174254
0.186491
0.201942
0.259334
0.262158
0.176839
0.124453
0.147517
0.283554
0.429957
0.752097
1.15722
1.01967
0.624807
0.400299
0.35476
0.388451
0.429226
0.437579
0.405644
0.374575
0.446184
0.552394
0.54922
0.383849
0.131082
0.085656
0.153869
0.333991
0.501363
0.346921
0.123297
0.10051
0.0780075
0.0801072
0.109822
0.0956785
0.0495005
0.056761
0.15071
0.216234
0.21535
0.11201
0.0781628
0.0821138
0.0631023
0.0703649
0.106607
0.121793
0.154948
0.1825
0.195629
0.183946
0.128182
0.0710537
0.0698102
0.0861698
0.0735132
0.0595597
0.0683939
0.0885432
0.118907
0.156175
0.194252
0.203461
0.19942
0.203803
0.247684
0.319702
0.382306
0.437511
0.498321
0.52295
0.51283
0.492031
0.437095
0.359776
0.270887
0.189799
0.12994
0.115635
0.127
0.154108
0.182412
0.200849
0.198909
0.0378894
0.0807418
0.0845535
0.058235
0.0387141
0.044433
0.0722237
0.134396
0.143024
0.132065
0.119317
0.101905
0.0785176
0.0556745
0.0452227
0.0437446
0.0469618
0.075315
0.0753975
0.0744118
0.0639496
0.111675
0.358878
0.515882
0.440545
0.319216
0.29372
0.339146
0.469222
0.710958
1.03175
1.01298
0.746122
0.721962
0.748869
0.69371
0.53549
0.386999
0.335793
0.315115
0.333549
0.409516
0.462268
0.332168
0.133107
0.113469
0.161322
0.397067
0.465057
0.273635
0.0937823
0.0567877
0.0730957
0.094459
0.0960275
0.0862113
0.0777533
0.105317
0.16798
0.199076
0.150882
0.134398
0.119239
0.0868774
0.100061
0.111725
0.113752
0.138572
0.189316
0.243579
0.278891
0.254077
0.182941
0.106641
0.0850172
0.0800144
0.0800152
0.0918702
0.127743
0.17249
0.210017
0.244988
0.264688
0.260357
0.238323
0.232676
0.258557
0.323134
0.416478
0.539915
0.600023
0.582549
0.547762
0.477034
0.361743
0.247387
0.179337
0.135361
0.122551
0.133018
0.157861
0.177287
0.180083
0.167854
0.0162884
0.0293357
0.0281796
0.024442
0.0218968
0.0232723
0.0241688
0.0349175
0.0644577
0.0863843
0.085147
0.0759823
0.0626342
0.051632
0.041262
0.0293486
0.0237924
0.0232886
0.0217644
0.0219868
0.0249744
0.0340473
0.0610539
0.133296
0.244413
0.243821
0.242442
0.268555
0.368045
0.478694
0.59178
0.744518
0.869597
0.860676
0.839621
0.832764
0.731828
0.516178
0.313647
0.238636
0.252711
0.29126
0.420938
0.426566
0.27266
0.131552
0.127421
0.158524
0.285654
0.272706
0.15934
0.0943301
0.0982575
0.114722
0.144516
0.139544
0.122535
0.12204
0.131102
0.151477
0.154935
0.150727
0.149723
0.131401
0.114527
0.118139
0.116921
0.116081
0.133694
0.187131
0.274065
0.318244
0.296083
0.228061
0.144454
0.109364
0.110314
0.126312
0.159328
0.204674
0.251116
0.288026
0.312286
0.314698
0.301548
0.266472
0.250811
0.275251
0.352212
0.484479
0.602145
0.635745
0.619965
0.563109
0.447553
0.284304
0.171094
0.130554
0.128523
0.139741
0.161251
0.175181
0.17666
0.169587
0.0363822
0.030713
0.0296133
0.0297789
0.0296116
0.029033
0.0245018
0.0170171
0.0135529
0.0140797
0.0142395
0.0139433
0.0137565
0.0137456
0.013647
0.0133104
0.0127233
0.0121486
0.0118656
0.0122409
0.0128892
0.0145656
0.0178099
0.0259474
0.0452095
0.0719743
0.100571
0.13479
0.192542
0.284891
0.4478
0.534782
0.53401
0.497642
0.503023
0.53868
0.54383
0.470092
0.320561
0.200909
0.175291
0.20223
0.256634
0.302955
0.273961
0.183561
0.142999
0.151495
0.167216
0.19372
0.214642
0.211444
0.215265
0.245736
0.293376
0.288914
0.244652
0.183265
0.156001
0.151134
0.149624
0.14825
0.143037
0.12648
0.112626
0.112856
0.112958
0.112254
0.113159
0.129064
0.180441
0.275718
0.331496
0.313673
0.254585
0.191986
0.169334
0.174972
0.197368
0.232362
0.274346
0.318409
0.350124
0.356374
0.3484
0.330492
0.305302
0.297572
0.310463
0.369938
0.493222
0.600007
0.65672
0.631104
0.533137
0.365479
0.208651
0.14912
0.144596
0.151505
0.165186
0.175419
0.178335
0.175208
0.191152
0.142935
0.0999405
0.0715528
0.0531532
0.0449289
0.0434254
0.0423243
0.036501
0.0262679
0.0155699
0.0135911
0.0146613
0.0181928
0.0247441
0.034158
0.0426873
0.0447646
0.0451807
0.0462536
0.0443933
0.0416087
0.0387157
0.0350114
0.0330654
0.0340978
0.0380626
0.046007
0.0600008
0.0918323
0.179594
0.355808
0.472138
0.49615
0.469807
0.458028
0.481036
0.454562
0.349752
0.214931
0.142167
0.129632
0.152226
0.202478
0.228331
0.218812
0.190239
0.174339
0.173621
0.176966
0.19058
0.22211
0.290291
0.405241
0.514562
0.521235
0.444791
0.316208
0.21485
0.171155
0.169941
0.173036
0.180276
0.169396
0.144588
0.128804
0.123182
0.121228
0.122277
0.124928
0.136912
0.183654
0.27332
0.339251
0.332659
0.287038
0.246535
0.239679
0.247627
0.266022
0.297034
0.342799
0.390174
0.400076
0.389741
0.373816
0.356791
0.336392
0.31146
0.29466
0.352142
0.475495
0.597632
0.653902
0.577982
0.440329
0.286396
0.199859
0.173986
0.172322
0.178631
0.188848
0.19638
0.196066
0.252449
0.228481
0.197958
0.161351
0.119548
0.0896819
0.070824
0.0576194
0.0536251
0.0516114
0.0464503
0.0440914
0.0476313
0.0608251
0.0873672
0.12611
0.173039
0.207038
0.224574
0.234558
0.233053
0.21903
0.192376
0.159238
0.124604
0.0882417
0.0651388
0.0602306
0.0627061
0.0711464
0.0961095
0.16128
0.285157
0.421816
0.523449
0.527059
0.493214
0.467453
0.390765
0.253552
0.152276
0.115909
0.111607
0.124501
0.171737
0.207597
0.206454
0.19857
0.189556
0.183941
0.185989
0.19579
0.232364
0.309789
0.430655
0.55826
0.573638
0.483383
0.330821
0.220018
0.18533
0.200238
0.251426
0.252011
0.209865
0.171008
0.158907
0.158934
0.154102
0.141217
0.138186
0.147139
0.183489
0.24173
0.275875
0.286983
0.286891
0.28639
0.283531
0.287696
0.311823
0.363465
0.430007
0.457825
0.440953
0.406276
0.392142
0.376741
0.342895
0.283735
0.25029
0.307682
0.453074
0.601788
0.600223
0.505393
0.371675
0.263939
0.209496
0.192627
0.196619
0.207372
0.215032
0.214264
0.184685
0.191845
0.188058
0.179239
0.165527
0.14451
0.114703
0.0909731
0.0784522
0.069643
0.0688938
0.0763505
0.102508
0.157573
0.240051
0.317573
0.378337
0.414091
0.424568
0.420812
0.403182
0.368871
0.321199
0.280983
0.248467
0.214539
0.179609
0.155662
0.141225
0.123604
0.11992
0.133091
0.176398
0.268001
0.402739
0.540578
0.552113
0.501824
0.420464
0.291938
0.175566
0.126656
0.115459
0.118665
0.139165
0.181113
0.200692
0.199879
0.195505
0.190469
0.186863
0.189935
0.198669
0.219184
0.282743
0.3946
0.551119
0.590888
0.514564
0.355424
0.228721
0.213602
0.243497
0.246684
0.234611
0.194336
0.171279
0.17744
0.191471
0.184977
0.156364
0.146934
0.156358
0.176007
0.192654
0.214593
0.22587
0.231745
0.252937
0.291674
0.324762
0.365228
0.427505
0.484162
0.483583
0.44068
0.414343
0.416143
0.39442
0.337254
0.254464
0.237799
0.338763
0.51475
0.622418
0.591834
0.464708
0.323104
0.23721
0.206898
0.209238
0.214064
0.210264
0.207235
0.0929105
0.112618
0.142561
0.16117
0.161473
0.157574
0.147574
0.131536
0.109147
0.0950539
0.0980343
0.122115
0.189919
0.310102
0.420404
0.457338
0.460003
0.458065
0.451419
0.435777
0.41242
0.399265
0.387909
0.378797
0.376695
0.375103
0.365594
0.342616
0.312193
0.269714
0.201508
0.161956
0.167338
0.194187
0.269153
0.423255
0.540071
0.531875
0.465656
0.345769
0.21103
0.147458
0.126783
0.125232
0.129965
0.144702
0.17233
0.18924
0.189996
0.187023
0.182048
0.177128
0.177985
0.186547
0.212074
0.272485
0.38834
0.532357
0.585593
0.541871
0.377985
0.266689
0.221246
0.173183
0.152553
0.139181
0.135342
0.154664
0.199903
0.21705
0.201314
0.16162
0.152525
0.162915
0.166692
0.15851
0.160764
0.194166
0.279767
0.386227
0.404834
0.38217
0.378975
0.425963
0.476642
0.456872
0.421447
0.427483
0.437517
0.402963
0.335828
0.29318
0.336595
0.452369
0.640396
0.689946
0.554108
0.369776
0.248402
0.203474
0.19084
0.177841
0.164872
0.167527
0.0499354
0.0606408
0.0866963
0.125288
0.150353
0.155185
0.153119
0.145399
0.128709
0.123107
0.136821
0.194845
0.32277
0.466927
0.516326
0.517478
0.502034
0.480558
0.472406
0.473915
0.483645
0.498146
0.504768
0.505558
0.503772
0.501626
0.495583
0.479512
0.454687
0.41214
0.337917
0.231678
0.189798
0.195605
0.225187
0.31128
0.471841
0.531086
0.496349
0.401428
0.260421
0.177609
0.150098
0.144825
0.145655
0.149347
0.155791
0.166209
0.178873
0.180178
0.178329
0.17344
0.163479
0.159434
0.164806
0.188804
0.253164
0.378316
0.504974
0.529781
0.49953
0.419526
0.293388
0.199721
0.14625
0.124288
0.121243
0.134442
0.1793
0.233501
0.234791
0.202419
0.149804
0.137699
0.138935
0.143287
0.17273
0.265543
0.430171
0.579213
0.597455
0.531169