/*--------------------------------*- C++ -*----------------------------------*\
| =========                 |                                                 |
| \\      /  F ield         | OpenFOAM: The Open Source CFD Toolbox           |
|  \\    /   O peration     | Version:  v1912                                 |
|   \\  /    A nd           | Website:  www.openfoam.com                      |
|    \\/     M anipulation  |                                                 |
\*---------------------------------------------------------------------------*/
FoamFile
{
    version     2.0;
    format      ascii;
    class       volScalarField;
    location    "50";
    object      nut;
}
// * * * * * * * * * * * * * * * * * * * * * * * * * * * * * * * * * * * * * //

dimensions      [0 2 -1 0 0 0 0];


internalField   nonuniform List<scalar> 
14268
(
4.46703e-10
4.39533e-10
4.17827e-10
4.04475e-10
4.15593e-10
4.20476e-10
4.09759e-10
4.06744e-10
4.2283e-10
4.30887e-10
4.16001e-10
3.92559e-10
3.93823e-10
4.02196e-10
4.03295e-10
4.05031e-10
4.0398e-10
4.00435e-10
4.01762e-10
4.0727e-10
4.18692e-10
4.16033e-10
3.99871e-10
3.97323e-10
4.06215e-10
4.18204e-10
4.4083e-10
4.61839e-10
4.70489e-10
4.82227e-10
4.962e-10
5.52779e-10
7.31527e-10
1.20335e-09
2.17963e-09
4.29864e-09
7.54167e-09
1.14663e-08
1.6513e-08
1.78961e-08
1.79003e-08
1.74377e-08
1.43955e-08
7.88941e-09
4.05468e-08
3.93853e-08
3.87536e-08
3.82338e-08
3.74546e-08
3.70891e-08
3.7835e-08
3.90761e-08
3.91303e-08
3.87043e-08
3.85116e-08
3.87766e-08
3.85244e-08
3.84376e-08
3.87662e-08
3.90132e-08
3.95203e-08
3.99877e-08
4.03236e-08
4.04208e-08
4.00154e-08
3.98713e-08
4.03492e-08
4.07284e-08
4.11468e-08
4.21435e-08
4.36721e-08
4.51626e-08
4.58047e-08
4.62747e-08
4.80642e-08
5.3504e-08
6.58077e-08
8.93979e-08
1.25025e-07
1.81692e-07
2.43625e-07
3.04887e-07
3.69452e-07
3.90529e-07
3.96497e-07
4.02587e-07
3.75552e-07
2.97286e-07
2.03271e-07
2.00224e-07
1.99295e-07
1.98614e-07
1.96594e-07
1.95543e-07
1.97666e-07
2.00719e-07
2.00484e-07
1.99003e-07
1.98671e-07
1.99873e-07
1.9926e-07
1.98622e-07
1.99177e-07
1.99876e-07
2.01339e-07
2.0249e-07
2.032e-07
2.03265e-07
2.02025e-07
2.01574e-07
2.02816e-07
2.04047e-07
2.05072e-07
2.07146e-07
2.09918e-07
2.12915e-07
2.14115e-07
2.15343e-07
2.18908e-07
2.28936e-07
2.47555e-07
2.77417e-07
3.11778e-07
3.5671e-07
4.05043e-07
4.50738e-07
4.98717e-07
5.20457e-07
5.29701e-07
5.41754e-07
5.33533e-07
4.72902e-07
3.05823e-07
3.04328e-07
3.041e-07
3.03894e-07
3.02716e-07
3.02073e-07
3.03227e-07
3.04938e-07
3.04768e-07
3.03885e-07
3.03682e-07
3.04452e-07
3.04147e-07
3.03825e-07
3.04085e-07
3.04355e-07
3.04951e-07
3.05423e-07
3.0579e-07
3.05833e-07
3.05143e-07
3.04878e-07
3.05424e-07
3.06008e-07
3.06332e-07
3.07323e-07
3.08316e-07
3.09707e-07
3.09969e-07
3.10662e-07
3.12016e-07
3.16321e-07
3.23511e-07
3.35093e-07
3.51917e-07
3.80816e-07
4.18427e-07
4.58513e-07
5.03935e-07
5.2448e-07
5.33343e-07
5.43932e-07
5.38173e-07
5.3045e-07
3.3286e-07
3.32389e-07
3.32393e-07
3.32355e-07
3.31944e-07
3.31737e-07
3.32195e-07
3.32776e-07
3.32652e-07
3.32332e-07
3.32229e-07
3.32498e-07
3.32494e-07
3.32298e-07
3.32431e-07
3.32513e-07
3.32582e-07
3.32673e-07
3.32664e-07
3.32709e-07
3.32583e-07
3.3254e-07
3.3251e-07
3.32538e-07
3.32476e-07
3.32894e-07
3.3306e-07
3.33544e-07
3.33345e-07
3.3373e-07
3.33857e-07
3.35419e-07
3.37886e-07
3.44069e-07
3.56446e-07
3.82401e-07
4.19365e-07
4.60451e-07
5.03173e-07
5.18553e-07
5.23921e-07
5.30917e-07
5.29135e-07
5.19847e-07
3.38394e-07
3.38224e-07
3.38384e-07
3.38476e-07
3.38232e-07
3.38055e-07
3.38218e-07
3.38599e-07
3.38486e-07
3.38351e-07
3.38298e-07
3.38456e-07
3.38381e-07
3.38283e-07
3.38295e-07
3.38313e-07
3.38338e-07
3.38331e-07
3.38295e-07
3.38332e-07
3.38228e-07
3.38166e-07
3.38057e-07
3.38098e-07
3.37985e-07
3.38155e-07
3.37979e-07
3.38233e-07
3.37931e-07
3.38259e-07
3.38046e-07
3.38843e-07
3.40137e-07
3.45207e-07
3.56829e-07
3.82432e-07
4.1893e-07
4.60535e-07
4.90907e-07
4.99289e-07
5.04704e-07
5.12301e-07
5.14368e-07
5.12236e-07
3.39072e-07
3.39061e-07
3.39132e-07
3.39126e-07
3.39039e-07
3.38998e-07
3.39127e-07
3.39208e-07
3.39194e-07
3.39175e-07
3.39095e-07
3.3909e-07
3.39147e-07
3.39047e-07
3.39131e-07
3.39094e-07
3.39018e-07
3.38893e-07
3.38768e-07
3.38845e-07
3.3895e-07
3.38982e-07
3.387e-07
3.38523e-07
3.3831e-07
3.38607e-07
3.38461e-07
3.38672e-07
3.38267e-07
3.38585e-07
3.38301e-07
3.39031e-07
3.40285e-07
3.45263e-07
3.56894e-07
3.82535e-07
4.20005e-07
4.61152e-07
4.74007e-07
4.85714e-07
4.94416e-07
5.00868e-07
5.02266e-07
4.77482e-07
3.395e-07
3.3939e-07
3.39597e-07
3.39703e-07
3.39523e-07
3.39387e-07
3.39516e-07
3.39829e-07
3.39719e-07
3.39576e-07
3.39496e-07
3.39675e-07
3.39698e-07
3.39622e-07
3.39616e-07
3.3959e-07
3.39533e-07
3.39509e-07
3.39483e-07
3.39508e-07
3.39469e-07
3.39428e-07
3.39306e-07
3.39256e-07
3.39087e-07
3.39155e-07
3.38946e-07
3.39117e-07
3.38816e-07
3.39083e-07
3.38793e-07
3.39418e-07
3.40437e-07
3.45309e-07
3.56868e-07
3.82286e-07
4.19071e-07
4.49186e-07
4.61832e-07
4.7671e-07
4.85507e-07
4.92504e-07
4.93568e-07
4.76894e-07
3.39263e-07
3.39281e-07
3.3933e-07
3.39272e-07
3.3927e-07
3.39266e-07
3.39306e-07
3.39292e-07
3.39401e-07
3.39434e-07
3.39338e-07
3.39227e-07
3.39247e-07
3.39219e-07
3.39295e-07
3.3924e-07
3.39121e-07
3.39003e-07
3.3882e-07
3.38896e-07
3.39043e-07
3.39049e-07
3.38682e-07
3.3856e-07
3.38344e-07
3.38669e-07
3.38484e-07
3.38718e-07
3.38275e-07
3.38665e-07
3.38373e-07
3.39078e-07
3.40325e-07
3.4529e-07
3.56739e-07
3.82439e-07
4.16285e-07
4.39208e-07
4.54865e-07
4.68717e-07
4.87326e-07
4.96357e-07
4.89611e-07
4.65114e-07
3.3959e-07
3.39514e-07
3.39689e-07
3.39774e-07
3.39614e-07
3.39495e-07
3.3965e-07
3.39923e-07
3.39809e-07
3.39658e-07
3.39608e-07
3.39764e-07
3.39816e-07
3.3971e-07
3.39711e-07
3.3969e-07
3.39645e-07
3.39605e-07
3.39569e-07
3.39571e-07
3.39522e-07
3.39506e-07
3.39421e-07
3.39355e-07
3.39184e-07
3.39258e-07
3.39043e-07
3.39185e-07
3.38868e-07
3.39115e-07
3.38818e-07
3.39433e-07
3.40372e-07
3.45125e-07
3.56613e-07
3.82701e-07
4.10706e-07
4.31108e-07
4.45981e-07
4.66684e-07
5.02817e-07
5.10289e-07
4.98032e-07
4.69534e-07
3.39128e-07
3.39135e-07
3.39159e-07
3.39124e-07
3.39156e-07
3.3914e-07
3.39098e-07
3.39053e-07
3.39253e-07
3.39336e-07
3.39191e-07
3.39039e-07
3.3904e-07
3.39073e-07
3.39142e-07
3.39057e-07
3.38911e-07
3.38813e-07
3.38626e-07
3.38717e-07
3.38843e-07
3.38811e-07
3.38397e-07
3.38317e-07
3.38109e-07
3.38425e-07
3.38199e-07
3.38512e-07
3.38027e-07
3.38487e-07
3.38208e-07
3.38904e-07
3.40201e-07
3.45084e-07
3.56305e-07
3.82889e-07
4.04626e-07
4.2228e-07
4.39968e-07
4.6918e-07
5.1865e-07
5.48334e-07
5.20596e-07
4.71186e-07
3.39644e-07
3.39588e-07
3.39717e-07
3.39774e-07
3.39623e-07
3.39561e-07
3.39721e-07
3.39933e-07
3.39816e-07
3.39702e-07
3.39669e-07
3.39815e-07
3.39828e-07
3.39728e-07
3.39736e-07
3.39697e-07
3.39645e-07
3.39609e-07
3.39549e-07
3.39532e-07
3.39469e-07
3.39444e-07
3.39406e-07
3.39359e-07
3.39147e-07
3.39195e-07
3.38958e-07
3.39074e-07
3.38733e-07
3.39008e-07
3.38745e-07
3.39334e-07
3.40209e-07
3.45047e-07
3.561e-07
3.83521e-07
3.97665e-07
4.14351e-07
4.45057e-07
4.94212e-07
5.59374e-07
6.35345e-07
5.79858e-07
4.8571e-07
3.38877e-07
3.38873e-07
3.38843e-07
3.38876e-07
3.38924e-07
3.38903e-07
3.38745e-07
3.38738e-07
3.38968e-07
3.39078e-07
3.38882e-07
3.38701e-07
3.38727e-07
3.38787e-07
3.3885e-07
3.3873e-07
3.38531e-07
3.38433e-07
3.38303e-07
3.3841e-07
3.38497e-07
3.38403e-07
3.37943e-07
3.37907e-07
3.37754e-07
3.38065e-07
3.3778e-07
3.38193e-07
3.3774e-07
3.38226e-07
3.3791e-07
3.38677e-07
3.40126e-07
3.44955e-07
3.55713e-07
3.82261e-07
3.88268e-07
4.07679e-07
4.66159e-07
5.57437e-07
6.63969e-07
8.41088e-07
7.26141e-07
5.37123e-07
3.39696e-07
3.39639e-07
3.39702e-07
3.39742e-07
3.39629e-07
3.3959e-07
3.39756e-07
3.39918e-07
3.39796e-07
3.39713e-07
3.39697e-07
3.39841e-07
3.3984e-07
3.39724e-07
3.3975e-07
3.39703e-07
3.3965e-07
3.39618e-07
3.39562e-07
3.39561e-07
3.39462e-07
3.39438e-07
3.39425e-07
3.39392e-07
3.39212e-07
3.39253e-07
3.38993e-07
3.39115e-07
3.38806e-07
3.3907e-07
3.38808e-07
3.39383e-07
3.40185e-07
3.44492e-07
3.54795e-07
3.72838e-07
3.78614e-07
4.08313e-07
5.1707e-07
6.78485e-07
8.69581e-07
1.19752e-06
9.59707e-07
6.2564e-07
3.38772e-07
3.38743e-07
3.38752e-07
3.38831e-07
3.38795e-07
3.38725e-07
3.38626e-07
3.38731e-07
3.38871e-07
3.38875e-07
3.38739e-07
3.38704e-07
3.38685e-07
3.38711e-07
3.38734e-07
3.38646e-07
3.38445e-07
3.38345e-07
3.38309e-07
3.38417e-07
3.38418e-07
3.38276e-07
3.37909e-07
3.37954e-07
3.37731e-07
3.37985e-07
3.37676e-07
3.38064e-07
3.37548e-07
3.38007e-07
3.37659e-07
3.38402e-07
3.39635e-07
3.44208e-07
3.53935e-07
3.61255e-07
3.68201e-07
4.35855e-07
6.57066e-07
9.87244e-07
1.36813e-06
2.02799e-06
1.52663e-06
9.33393e-07
3.39704e-07
3.39656e-07
3.39772e-07
3.39821e-07
3.39673e-07
3.39627e-07
3.39809e-07
3.3997e-07
3.39811e-07
3.39714e-07
3.39699e-07
3.39831e-07
3.39866e-07
3.39724e-07
3.3971e-07
3.39659e-07
3.39624e-07
3.3962e-07
3.39569e-07
3.39558e-07
3.39478e-07
3.39461e-07
3.39457e-07
3.39426e-07
3.39267e-07
3.39296e-07
3.39041e-07
3.39116e-07
3.38843e-07
3.39069e-07
3.38769e-07
3.39238e-07
3.39844e-07
3.43856e-07
3.51188e-07
3.48859e-07
3.5967e-07
5.25335e-07
1.02134e-06
1.78863e-06
2.67466e-06
4.09926e-06
2.96936e-06
1.72995e-06
3.38223e-07
3.38216e-07
3.38247e-07
3.38397e-07
3.38349e-07
3.38195e-07
3.38025e-07
3.38169e-07
3.38345e-07
3.38303e-07
3.38143e-07
3.38153e-07
3.38079e-07
3.38157e-07
3.3815e-07
3.3805e-07
3.37855e-07
3.37755e-07
3.37782e-07
3.37894e-07
3.37828e-07
3.37594e-07
3.37182e-07
3.37303e-07
3.3712e-07
3.37362e-07
3.36897e-07
3.37399e-07
3.36915e-07
3.37336e-07
3.36842e-07
3.37519e-07
3.38378e-07
3.41696e-07
3.48379e-07
3.41613e-07
3.6651e-07
7.11845e-07
1.7244e-06
3.32101e-06
5.26114e-06
8.21231e-06
6.28872e-06
3.17756e-06
3.39185e-07
3.3913e-07
3.39236e-07
3.39279e-07
3.39102e-07
3.39055e-07
3.39231e-07
3.39354e-07
3.39156e-07
3.39068e-07
3.39106e-07
3.39283e-07
3.3924e-07
3.39076e-07
3.39088e-07
3.39001e-07
3.38974e-07
3.38966e-07
3.38906e-07
3.38872e-07
3.38727e-07
3.38684e-07
3.38715e-07
3.38681e-07
3.38495e-07
3.38479e-07
3.38114e-07
3.38127e-07
3.37786e-07
3.37953e-07
3.37579e-07
3.3783e-07
3.379e-07
3.39588e-07
3.43994e-07
3.33983e-07
4.06657e-07
1.03328e-06
2.86442e-06
5.73024e-06
9.58915e-06
1.56134e-05
1.22459e-05
6.06382e-06
3.36903e-07
3.36866e-07
3.37032e-07
3.3727e-07
3.37079e-07
3.36786e-07
3.36639e-07
3.36905e-07
3.37047e-07
3.36841e-07
3.36665e-07
3.36775e-07
3.36789e-07
3.36846e-07
3.36728e-07
3.36612e-07
3.36405e-07
3.36351e-07
3.36487e-07
3.36536e-07
3.36286e-07
3.35966e-07
3.3558e-07
3.35752e-07
3.35544e-07
3.35707e-07
3.35087e-07
3.35522e-07
3.35071e-07
3.35269e-07
3.34569e-07
3.35053e-07
3.35014e-07
3.36725e-07
3.29948e-07
3.25659e-07
4.86491e-07
1.51309e-06
4.48102e-06
9.26981e-06
1.68918e-05
2.96724e-05
2.33752e-05
1.15723e-05
3.37653e-07
3.37587e-07
3.37722e-07
3.37821e-07
3.37679e-07
3.37645e-07
3.37837e-07
3.37952e-07
3.37696e-07
3.37521e-07
3.37584e-07
3.37971e-07
3.37859e-07
3.37675e-07
3.37674e-07
3.37551e-07
3.37526e-07
3.37489e-07
3.37376e-07
3.37275e-07
3.3701e-07
3.36896e-07
3.36969e-07
3.36928e-07
3.36681e-07
3.36548e-07
3.35947e-07
3.35819e-07
3.35373e-07
3.35421e-07
3.34842e-07
3.34754e-07
3.33727e-07
3.34517e-07
3.15536e-07
3.225e-07
6.2224e-07
2.1904e-06
6.7214e-06
1.43046e-05
2.78986e-05
5.02728e-05
4.10963e-05
2.16839e-05
3.33914e-07
3.33742e-07
3.34306e-07
3.34657e-07
3.34332e-07
3.33778e-07
3.33844e-07
3.34407e-07
3.3433e-07
3.33765e-07
3.33616e-07
3.3406e-07
3.34375e-07
3.34177e-07
3.33764e-07
3.33588e-07
3.33413e-07
3.33507e-07
3.33711e-07
3.33569e-07
3.33246e-07
3.32775e-07
3.32346e-07
3.32506e-07
3.32164e-07
3.32195e-07
3.31429e-07
3.3179e-07
3.3101e-07
3.30947e-07
3.29813e-07
3.30129e-07
3.28899e-07
3.28516e-07
3.06214e-07
3.36707e-07
8.41819e-07
3.19394e-06
9.94406e-06
2.13778e-05
4.37679e-05
7.5287e-05
6.25751e-05
3.59919e-05
3.33953e-07
3.33805e-07
3.34407e-07
3.34904e-07
3.34397e-07
3.33806e-07
3.3407e-07
3.34414e-07
3.3409e-07
3.33637e-07
3.33666e-07
3.3437e-07
3.34295e-07
3.3391e-07
3.33764e-07
3.33712e-07
3.33721e-07
3.33667e-07
3.33576e-07
3.33389e-07
3.32841e-07
3.32569e-07
3.32635e-07
3.32688e-07
3.32238e-07
3.31878e-07
3.30719e-07
3.30107e-07
3.29022e-07
3.2835e-07
3.26889e-07
3.24893e-07
3.17436e-07
2.91252e-07
2.66677e-07
5.3993e-07
2.57945e-06
1.03767e-05
3.43689e-05
8.10429e-05
0.000178016
0.000300135
0.000269179
0.000201857
2.77074e-07
2.77001e-07
2.81455e-07
2.8516e-07
2.82516e-07
2.79312e-07
2.80225e-07
2.80938e-07
2.79617e-07
2.77032e-07
2.77975e-07
2.82037e-07
2.82031e-07
2.80041e-07
2.7871e-07
2.78204e-07
2.78673e-07
2.78759e-07
2.781e-07
2.76455e-07
2.73009e-07
2.71265e-07
2.7206e-07
2.71993e-07
2.69469e-07
2.65502e-07
2.58602e-07
2.52342e-07
2.46991e-07
2.41727e-07
2.35707e-07
2.24045e-07
1.9085e-07
1.54862e-07
2.89795e-07
2.004e-06
1.14927e-05
4.73617e-05
0.000159013
0.000333115
0.000556756
0.000738759
0.000762676
0.000703057
8.79218e-08
8.86524e-08
9.47081e-08
1.00601e-07
9.93708e-08
9.6665e-08
9.6003e-08
9.54704e-08
9.44865e-08
9.25282e-08
9.30375e-08
9.58491e-08
9.61912e-08
9.48253e-08
9.34399e-08
9.27952e-08
9.24049e-08
9.19668e-08
9.128e-08
8.84929e-08
8.42873e-08
8.11439e-08
7.90803e-08
7.73855e-08
7.44682e-08
7.04302e-08
6.47049e-08
5.89801e-08
5.46972e-08
5.28998e-08
5.11001e-08
4.75174e-08
4.49507e-08
1.54987e-07
1.99092e-06
1.49871e-05
7.28211e-05
0.000220356
0.000408753
0.000558763
0.000761498
0.000915521
0.000987919
0.00102841
7.41919e-09
7.6648e-09
8.06808e-09
9.65626e-09
1.1185e-08
1.10635e-08
9.5683e-09
8.50434e-09
9.32262e-09
9.99085e-09
9.3465e-09
8.45089e-09
8.68427e-09
9.23621e-09
9.18581e-09
8.83054e-09
8.48863e-09
8.1782e-09
7.91659e-09
7.48976e-09
7.20307e-09
6.6751e-09
5.83511e-09
5.5036e-09
5.37143e-09
4.94989e-09
4.25962e-09
3.65998e-09
3.49191e-09
3.70523e-09
4.12841e-09
8.9084e-09
8.61692e-08
8.81494e-07
6.51676e-06
3.26864e-05
0.000130283
0.000331657
0.00049091
0.000619568
0.00079352
0.000992953
0.00114265
0.00128359
1.71691e-09
1.70929e-09
1.46388e-09
1.36096e-09
1.70418e-09
1.9749e-09
1.77494e-09
1.67574e-09
1.87444e-09
2.0442e-09
1.85342e-09
1.68803e-09
1.83122e-09
1.97004e-09
1.82814e-09
1.58204e-09
1.45763e-09
1.36289e-09
1.23436e-09
1.09871e-09
1.00902e-09
8.96621e-10
7.9756e-10
7.98741e-10
8.08762e-10
7.24253e-10
5.7534e-10
4.5725e-10
3.24073e-10
2.19744e-10
2.14792e-10
5.92458e-10
5.70575e-09
5.86321e-08
6.28154e-07
5.22942e-06
3.08145e-05
8.6086e-05
0.000122652
0.000122343
0.000130435
0.000111819
9.02978e-05
0.000164743
4.31613e-10
3.15839e-10
1.44625e-10
1.48496e-10
3.47562e-10
3.84708e-10
2.23993e-10
1.79905e-10
3.24186e-10
4.56615e-10
3.59746e-10
2.77085e-10
3.61237e-10
4.20119e-10
3.24083e-10
2.49353e-10
2.25084e-10
1.73142e-10
1.39056e-10
1.60727e-10
1.9944e-10
1.82482e-10
1.36065e-10
1.63013e-10
2.17732e-10
2.92442e-10
4.41231e-10
6.03056e-10
8.25914e-10
1.04506e-09
1.26225e-09
1.38222e-09
1.65859e-09
3.69781e-09
4.71259e-08
6.58991e-07
5.21826e-06
1.75129e-05
2.90551e-05
2.7474e-05
2.24246e-05
1.68653e-05
6.69461e-06
9.27042e-06
2.15442e-08
2.07336e-08
1.30873e-08
1.08775e-08
2.38232e-08
3.22665e-08
2.53885e-08
1.90551e-08
2.2414e-08
3.31085e-08
3.30019e-08
3.0543e-08
3.73618e-08
3.8315e-08
2.95485e-08
2.33906e-08
2.31698e-08
2.28056e-08
2.10751e-08
2.33794e-08
2.79282e-08
2.87447e-08
2.89448e-08
3.07819e-08
3.65098e-08
4.8005e-08
6.51733e-08
7.86049e-08
9.13694e-08
9.92475e-08
1.04411e-07
9.31464e-08
6.77749e-08
5.61155e-08
6.27184e-08
8.35133e-08
1.63106e-07
7.11079e-07
1.99279e-06
1.63102e-06
9.71427e-07
5.78899e-07
3.72437e-07
2.79149e-07
1.48017e-07
1.63929e-07
1.67244e-07
1.6733e-07
1.80437e-07
2.02643e-07
2.24764e-07
2.30806e-07
2.05729e-07
2.11244e-07
2.25135e-07
2.4112e-07
2.57036e-07
2.66298e-07
2.57434e-07
2.42173e-07
2.49964e-07
2.75052e-07
2.85581e-07
2.77185e-07
2.62408e-07
2.46627e-07
2.48002e-07
2.63753e-07
2.92796e-07
3.10562e-07
3.22375e-07
3.45079e-07
3.69015e-07
3.79847e-07
3.85414e-07
3.89051e-07
3.70544e-07
3.34835e-07
3.24297e-07
3.08966e-07
3.1136e-07
3.12465e-07
3.20199e-07
3.21361e-07
3.41083e-07
3.66423e-07
4.0237e-07
4.85494e-07
2.55877e-07
2.72787e-07
2.9325e-07
3.07766e-07
3.17192e-07
3.23769e-07
3.38367e-07
3.54109e-07
3.50795e-07
3.49983e-07
3.55023e-07
3.6283e-07
3.72976e-07
3.83253e-07
3.84506e-07
3.82151e-07
3.83615e-07
3.87754e-07
3.89128e-07
3.83911e-07
3.75526e-07
3.69845e-07
3.67595e-07
3.68115e-07
3.69408e-07
3.66382e-07
3.60495e-07
3.54849e-07
3.50266e-07
3.47199e-07
3.42601e-07
3.36526e-07
3.34503e-07
3.32528e-07
3.33541e-07
3.33925e-07
3.32737e-07
3.28656e-07
3.29396e-07
3.37298e-07
3.57232e-07
3.89568e-07
4.24621e-07
4.93565e-07
3.2541e-07
3.26472e-07
3.2916e-07
3.305e-07
3.32768e-07
3.33844e-07
3.35685e-07
3.38108e-07
3.39968e-07
3.42699e-07
3.4511e-07
3.43534e-07
3.40574e-07
3.39792e-07
3.40369e-07
3.40877e-07
3.38637e-07
3.35312e-07
3.34313e-07
3.3327e-07
3.32549e-07
3.33033e-07
3.33479e-07
3.32749e-07
3.31405e-07
3.29896e-07
3.29203e-07
3.29237e-07
3.28221e-07
3.27417e-07
3.27283e-07
3.28177e-07
3.30192e-07
3.32251e-07
3.29607e-07
3.25749e-07
3.3051e-07
3.37742e-07
3.46347e-07
3.57007e-07
3.69781e-07
3.88912e-07
4.00499e-07
4.27852e-07
3.21516e-07
3.23235e-07
3.25005e-07
3.27749e-07
3.27249e-07
3.26242e-07
3.26332e-07
3.27298e-07
3.27621e-07
3.27192e-07
3.26613e-07
3.26659e-07
3.27751e-07
3.2792e-07
3.2798e-07
3.28113e-07
3.28129e-07
3.28291e-07
3.28725e-07
3.29091e-07
3.29877e-07
3.30365e-07
3.30833e-07
3.3133e-07
3.32298e-07
3.3299e-07
3.33399e-07
3.32809e-07
3.33372e-07
3.34754e-07
3.35887e-07
3.35507e-07
3.35697e-07
3.37913e-07
3.41096e-07
3.41154e-07
3.39863e-07
3.37307e-07
3.38508e-07
3.46296e-07
3.60463e-07
3.88317e-07
4.03844e-07
4.29685e-07
3.33644e-07
3.33446e-07
3.33439e-07
3.34025e-07
3.33855e-07
3.33396e-07
3.32967e-07
3.32613e-07
3.32086e-07
3.32099e-07
3.32419e-07
3.32672e-07
3.32049e-07
3.31609e-07
3.31386e-07
3.31354e-07
3.31307e-07
3.31725e-07
3.31964e-07
3.31578e-07
3.3091e-07
3.30663e-07
3.30459e-07
3.30867e-07
3.31539e-07
3.31237e-07
3.31028e-07
3.32582e-07
3.32931e-07
3.32514e-07
3.33701e-07
3.3562e-07
3.38573e-07
3.39566e-07
3.37247e-07
3.34487e-07
3.3883e-07
3.45048e-07
3.51714e-07
3.60787e-07
3.66985e-07
3.77722e-07
3.88292e-07
3.92553e-07
3.32692e-07
3.33121e-07
3.33092e-07
3.33872e-07
3.33689e-07
3.33009e-07
3.32442e-07
3.31962e-07
3.32226e-07
3.32033e-07
3.31624e-07
3.31718e-07
3.32216e-07
3.32071e-07
3.32187e-07
3.32342e-07
3.3233e-07
3.32323e-07
3.32564e-07
3.33011e-07
3.33844e-07
3.34533e-07
3.35312e-07
3.35942e-07
3.36446e-07
3.36943e-07
3.37396e-07
3.37366e-07
3.36906e-07
3.37671e-07
3.3888e-07
3.38898e-07
3.38013e-07
3.39676e-07
3.42575e-07
3.4349e-07
3.4311e-07
3.4229e-07
3.44155e-07
3.51214e-07
3.60652e-07
3.75299e-07
3.9014e-07
4.01057e-07
3.37645e-07
3.37092e-07
3.36985e-07
3.37139e-07
3.37057e-07
3.36531e-07
3.36487e-07
3.36489e-07
3.35702e-07
3.35531e-07
3.35883e-07
3.36354e-07
3.36419e-07
3.36103e-07
3.35957e-07
3.36081e-07
3.3627e-07
3.368e-07
3.3694e-07
3.36743e-07
3.36387e-07
3.35934e-07
3.35413e-07
3.3547e-07
3.36009e-07
3.35829e-07
3.35741e-07
3.36589e-07
3.37762e-07
3.37779e-07
3.38741e-07
3.40254e-07
3.42184e-07
3.42676e-07
3.41424e-07
3.39437e-07
3.42618e-07
3.47634e-07
3.52779e-07
3.59858e-07
3.63287e-07
3.70117e-07
3.78541e-07
3.86037e-07
3.37452e-07
3.37601e-07
3.37134e-07
3.36872e-07
3.37344e-07
3.37108e-07
3.36302e-07
3.35388e-07
3.35708e-07
3.35662e-07
3.35344e-07
3.3524e-07
3.35403e-07
3.35312e-07
3.35335e-07
3.35484e-07
3.35309e-07
3.3508e-07
3.35086e-07
3.35587e-07
3.36202e-07
3.36855e-07
3.37413e-07
3.37906e-07
3.38302e-07
3.3876e-07
3.39221e-07
3.39536e-07
3.39206e-07
3.39213e-07
3.39936e-07
3.4004e-07
3.39856e-07
3.40936e-07
3.42965e-07
3.44534e-07
3.45028e-07
3.45672e-07
3.47474e-07
3.52712e-07
3.58968e-07
3.6792e-07
3.78514e-07
3.86657e-07
3.39891e-07
3.3932e-07
3.39036e-07
3.38929e-07
3.38821e-07
3.38387e-07
3.38216e-07
3.38203e-07
3.37929e-07
3.37392e-07
3.37539e-07
3.37913e-07
3.38328e-07
3.38043e-07
3.38094e-07
3.38213e-07
3.38463e-07
3.38944e-07
3.39083e-07
3.38865e-07
3.38824e-07
3.3852e-07
3.38268e-07
3.38333e-07
3.38644e-07
3.38535e-07
3.38445e-07
3.38854e-07
3.39625e-07
3.4016e-07
3.4092e-07
3.41677e-07
3.42866e-07
3.43661e-07
3.43535e-07
3.42645e-07
3.44605e-07
3.48145e-07
3.51958e-07
3.57145e-07
3.59884e-07
3.64528e-07
3.70577e-07
3.77105e-07
3.40128e-07
3.39798e-07
3.39134e-07
3.38571e-07
3.38703e-07
3.38773e-07
3.38293e-07
3.37681e-07
3.37513e-07
3.37712e-07
3.37497e-07
3.37348e-07
3.37022e-07
3.37051e-07
3.37017e-07
3.37075e-07
3.36901e-07
3.36645e-07
3.36562e-07
3.3708e-07
3.37361e-07
3.37859e-07
3.38155e-07
3.38525e-07
3.38872e-07
3.39359e-07
3.39797e-07
3.40072e-07
3.40411e-07
3.40219e-07
3.40727e-07
3.41014e-07
3.41366e-07
3.42097e-07
3.43502e-07
3.45237e-07
3.46099e-07
3.47423e-07
3.48726e-07
3.52241e-07
3.56715e-07
3.62727e-07
3.69978e-07
3.74859e-07
3.40921e-07
3.40413e-07
3.39964e-07
3.3971e-07
3.39582e-07
3.39461e-07
3.39034e-07
3.38891e-07
3.38872e-07
3.38465e-07
3.38542e-07
3.3884e-07
3.39165e-07
3.39013e-07
3.39037e-07
3.39096e-07
3.39297e-07
3.3957e-07
3.39696e-07
3.39595e-07
3.39588e-07
3.39598e-07
3.39577e-07
3.39725e-07
3.399e-07
3.3987e-07
3.39856e-07
3.40062e-07
3.40377e-07
3.40884e-07
3.41587e-07
3.4213e-07
3.43002e-07
3.43845e-07
3.44345e-07
3.44343e-07
3.45353e-07
3.47666e-07
3.50437e-07
3.54217e-07
3.56865e-07
3.60119e-07
3.64266e-07
3.68841e-07
3.40891e-07
3.40465e-07
3.39954e-07
3.39384e-07
3.39245e-07
3.39353e-07
3.39164e-07
3.38899e-07
3.38642e-07
3.38729e-07
3.38626e-07
3.38412e-07
3.38054e-07
3.38018e-07
3.37902e-07
3.37847e-07
3.37645e-07
3.37372e-07
3.37343e-07
3.37761e-07
3.37975e-07
3.38207e-07
3.38414e-07
3.3867e-07
3.39069e-07
3.39501e-07
3.39933e-07
3.40254e-07
3.40629e-07
3.40839e-07
3.41334e-07
3.41608e-07
3.4202e-07
3.42594e-07
3.43474e-07
3.45062e-07
3.45917e-07
3.47448e-07
3.48428e-07
3.50984e-07
3.5442e-07
3.58552e-07
3.63858e-07
3.66976e-07
3.41171e-07
3.40725e-07
3.40418e-07
3.40143e-07
3.3992e-07
3.39839e-07
3.3973e-07
3.39365e-07
3.39326e-07
3.39262e-07
3.39203e-07
3.39378e-07
3.39498e-07
3.39511e-07
3.39538e-07
3.39626e-07
3.39747e-07
3.39892e-07
3.40032e-07
3.39955e-07
3.39981e-07
3.40044e-07
3.40122e-07
3.402e-07
3.40283e-07
3.40376e-07
3.40516e-07
3.40689e-07
3.40962e-07
3.41181e-07
3.41722e-07
3.4216e-07
3.42853e-07
3.43751e-07
3.44291e-07
3.44708e-07
3.45286e-07
3.46812e-07
3.48904e-07
3.51696e-07
3.54207e-07
3.56617e-07
3.59424e-07
3.6279e-07
3.41433e-07
3.4085e-07
3.40467e-07
3.40022e-07
3.39792e-07
3.39706e-07
3.39659e-07
3.39544e-07
3.39403e-07
3.39255e-07
3.39097e-07
3.38837e-07
3.38636e-07
3.38494e-07
3.38385e-07
3.38267e-07
3.38128e-07
3.37933e-07
3.37966e-07
3.38241e-07
3.38362e-07
3.38497e-07
3.38616e-07
3.38908e-07
3.39323e-07
3.39701e-07
3.40083e-07
3.40344e-07
3.40733e-07
3.4093e-07
3.41427e-07
3.41778e-07
3.42142e-07
3.42673e-07
3.43264e-07
3.44353e-07
3.44991e-07
3.4639e-07
3.47671e-07
3.49636e-07
3.52196e-07
3.55137e-07
3.59031e-07
3.61266e-07
3.41411e-07
3.4097e-07
3.40683e-07
3.40416e-07
3.4016e-07
3.40022e-07
3.39901e-07
3.39721e-07
3.39619e-07
3.39587e-07
3.39566e-07
3.39576e-07
3.39627e-07
3.39659e-07
3.3971e-07
3.39779e-07
3.39868e-07
3.3998e-07
3.40065e-07
3.4005e-07
3.40111e-07
3.40194e-07
3.40305e-07
3.40417e-07
3.40542e-07
3.40666e-07
3.40846e-07
3.40998e-07
3.41296e-07
3.41428e-07
3.418e-07
3.42185e-07
3.42666e-07
3.43462e-07
3.4383e-07
3.44561e-07
3.44936e-07
3.46053e-07
3.47523e-07
3.49676e-07
3.51864e-07
3.53734e-07
3.55813e-07
3.58395e-07
3.41599e-07
3.41086e-07
3.40695e-07
3.40382e-07
3.40118e-07
3.39962e-07
3.39834e-07
3.39731e-07
3.39618e-07
3.3947e-07
3.39305e-07
3.39107e-07
3.38965e-07
3.38731e-07
3.38673e-07
3.38578e-07
3.38487e-07
3.38402e-07
3.38444e-07
3.38649e-07
3.38785e-07
3.38907e-07
3.39065e-07
3.3936e-07
3.39741e-07
3.40056e-07
3.40401e-07
3.406e-07
3.4094e-07
3.4107e-07
3.41409e-07
3.41838e-07
3.42034e-07
3.42509e-07
3.42851e-07
3.43741e-07
3.44253e-07
3.45384e-07
3.46692e-07
3.48297e-07
3.50232e-07
3.52381e-07
3.55284e-07
3.57486e-07
3.4158e-07
3.41119e-07
3.40757e-07
3.40493e-07
3.40288e-07
3.40144e-07
3.39989e-07
3.39865e-07
3.3978e-07
3.39686e-07
3.39669e-07
3.39657e-07
3.39687e-07
3.39705e-07
3.39779e-07
3.39858e-07
3.39951e-07
3.40059e-07
3.40126e-07
3.40163e-07
3.4023e-07
3.40308e-07
3.40424e-07
3.40537e-07
3.40661e-07
3.40779e-07
3.40968e-07
3.41083e-07
3.41363e-07
3.41471e-07
3.41737e-07
3.42149e-07
3.42381e-07
3.42958e-07
3.43299e-07
3.44086e-07
3.44393e-07
3.45262e-07
3.46435e-07
3.48026e-07
3.49817e-07
3.51397e-07
3.52968e-07
3.552e-07
3.41649e-07
3.41145e-07
3.40774e-07
3.40509e-07
3.40254e-07
3.40071e-07
3.39918e-07
3.39799e-07
3.39703e-07
3.39565e-07
3.39455e-07
3.39349e-07
3.3924e-07
3.38977e-07
3.39003e-07
3.38939e-07
3.38854e-07
3.38851e-07
3.38894e-07
3.39044e-07
3.39168e-07
3.39311e-07
3.39516e-07
3.39794e-07
3.40094e-07
3.40307e-07
3.4057e-07
3.40708e-07
3.40985e-07
3.41123e-07
3.41348e-07
3.41808e-07
3.41837e-07
3.42192e-07
3.42461e-07
3.43269e-07
3.43693e-07
3.44562e-07
3.45698e-07
3.47029e-07
3.48584e-07
3.50234e-07
3.52177e-07
3.54362e-07
3.41675e-07
3.41171e-07
3.40799e-07
3.40561e-07
3.4034e-07
3.40181e-07
3.4005e-07
3.39939e-07
3.39862e-07
3.39771e-07
3.39748e-07
3.39746e-07
3.39789e-07
3.39782e-07
3.39866e-07
3.39965e-07
3.40045e-07
3.40148e-07
3.40208e-07
3.40267e-07
3.40332e-07
3.40407e-07
3.40484e-07
3.40558e-07
3.40644e-07
3.40733e-07
3.40908e-07
3.40995e-07
3.41198e-07
3.41358e-07
3.41517e-07
3.41916e-07
3.41965e-07
3.42414e-07
3.42774e-07
3.43555e-07
3.43859e-07
3.44544e-07
3.45499e-07
3.46708e-07
3.48135e-07
3.49489e-07
3.507e-07
3.52378e-07
3.41664e-07
3.4116e-07
3.40795e-07
3.40531e-07
3.40298e-07
3.40122e-07
3.39973e-07
3.39867e-07
3.39791e-07
3.39681e-07
3.39626e-07
3.39519e-07
3.39479e-07
3.39352e-07
3.39273e-07
3.39292e-07
3.39218e-07
3.39262e-07
3.39309e-07
3.39401e-07
3.39545e-07
3.39677e-07
3.39862e-07
3.40086e-07
3.40292e-07
3.40437e-07
3.40643e-07
3.40755e-07
3.4093e-07
3.41181e-07
3.41231e-07
3.41644e-07
3.41667e-07
3.41948e-07
3.42136e-07
3.42807e-07
3.43191e-07
3.4386e-07
3.44799e-07
3.45899e-07
3.47157e-07
3.48456e-07
3.49897e-07
3.51728e-07
3.41694e-07
3.41194e-07
3.40832e-07
3.40587e-07
3.40372e-07
3.40218e-07
3.40097e-07
3.40006e-07
3.39951e-07
3.39886e-07
3.39865e-07
3.39861e-07
3.39887e-07
3.39903e-07
3.39953e-07
3.40063e-07
3.40117e-07
3.40203e-07
3.40262e-07
3.4033e-07
3.40377e-07
3.40424e-07
3.40467e-07
3.40504e-07
3.40563e-07
3.40626e-07
3.40769e-07
3.40819e-07
3.40923e-07
3.41148e-07
3.41131e-07
3.41493e-07
3.41538e-07
3.41829e-07
3.42225e-07
3.42978e-07
3.43315e-07
3.43861e-07
3.44651e-07
3.45597e-07
3.46737e-07
3.47871e-07
3.48909e-07
3.50381e-07
3.41664e-07
3.41163e-07
3.40796e-07
3.40546e-07
3.40327e-07
3.40161e-07
3.40036e-07
3.39941e-07
3.39868e-07
3.39792e-07
3.3973e-07
3.39687e-07
3.39668e-07
3.39613e-07
3.39468e-07
3.39577e-07
3.39515e-07
3.39579e-07
3.3963e-07
3.39695e-07
3.39821e-07
3.39916e-07
3.40061e-07
3.40198e-07
3.40341e-07
3.40453e-07
3.40595e-07
3.40744e-07
3.40876e-07
3.41156e-07
3.41078e-07
3.4143e-07
3.41513e-07
3.41712e-07
3.41874e-07
3.4238e-07
3.42746e-07
3.43268e-07
3.44021e-07
3.44917e-07
3.45918e-07
3.47008e-07
3.48214e-07
3.49909e-07
3.41665e-07
3.41184e-07
3.40826e-07
3.40594e-07
3.40398e-07
3.40252e-07
3.40149e-07
3.40076e-07
3.40023e-07
3.39976e-07
3.39964e-07
3.39952e-07
3.39969e-07
3.39996e-07
3.40011e-07
3.4012e-07
3.40163e-07
3.4022e-07
3.40273e-07
3.40323e-07
3.40355e-07
3.40381e-07
3.40401e-07
3.40422e-07
3.4048e-07
3.40542e-07
3.40638e-07
3.40744e-07
3.40723e-07
3.40948e-07
3.40866e-07
3.41207e-07
3.41285e-07
3.41484e-07
3.41712e-07
3.42366e-07
3.42802e-07
3.43275e-07
3.4391e-07
3.44656e-07
3.45608e-07
3.46574e-07
3.47524e-07
3.48861e-07
3.41627e-07
3.41155e-07
3.40795e-07
3.40562e-07
3.40364e-07
3.40207e-07
3.40098e-07
3.40016e-07
3.39941e-07
3.39877e-07
3.39823e-07
3.39797e-07
3.39762e-07
3.39752e-07
3.39717e-07
3.39757e-07
3.39744e-07
3.39794e-07
3.3984e-07
3.39888e-07
3.39964e-07
3.40032e-07
3.40117e-07
3.40207e-07
3.40312e-07
3.404e-07
3.40492e-07
3.40636e-07
3.40639e-07
3.40945e-07
3.40871e-07
3.41179e-07
3.41299e-07
3.41453e-07
3.41659e-07
3.42056e-07
3.42362e-07
3.42749e-07
3.43342e-07
3.44082e-07
3.44921e-07
3.45913e-07
3.47011e-07
3.48491e-07
3.41621e-07
3.41176e-07
3.40827e-07
3.40599e-07
3.4043e-07
3.40293e-07
3.40195e-07
3.40134e-07
3.40082e-07
3.40044e-07
3.40027e-07
3.4002e-07
3.40025e-07
3.40057e-07
3.40069e-07
3.40148e-07
3.40182e-07
3.40208e-07
3.40239e-07
3.40268e-07
3.40298e-07
3.40311e-07
3.40331e-07
3.4036e-07
3.40417e-07
3.40471e-07
3.40517e-07
3.40645e-07
3.40543e-07
3.40772e-07
3.40676e-07
3.40916e-07
3.41068e-07
3.41212e-07
3.41397e-07
3.41826e-07
3.42205e-07
3.42659e-07
3.43229e-07
3.43889e-07
3.44736e-07
3.45659e-07
3.46473e-07
3.47632e-07
3.41575e-07
3.41149e-07
3.40809e-07
3.4058e-07
3.40406e-07
3.4026e-07
3.40157e-07
3.40082e-07
3.40012e-07
3.39949e-07
3.39905e-07
3.39888e-07
3.3984e-07
3.39842e-07
3.39824e-07
3.39829e-07
3.39863e-07
3.3986e-07
3.39887e-07
3.39943e-07
3.39999e-07
3.40053e-07
3.40119e-07
3.40183e-07
3.40252e-07
3.40329e-07
3.40361e-07
3.40512e-07
3.40441e-07
3.40701e-07
3.40657e-07
3.40853e-07
3.41089e-07
3.41205e-07
3.41381e-07
3.41708e-07
3.42018e-07
3.42336e-07
3.42802e-07
3.43439e-07
3.44202e-07
3.45116e-07
3.46087e-07
3.4724e-07
3.41571e-07
3.41165e-07
3.40848e-07
3.40625e-07
3.4046e-07
3.40337e-07
3.40241e-07
3.40181e-07
3.40132e-07
3.40093e-07
3.40073e-07
3.40075e-07
3.40052e-07
3.40083e-07
3.40093e-07
3.40121e-07
3.40163e-07
3.40164e-07
3.40183e-07
3.40218e-07
3.40239e-07
3.40257e-07
3.40279e-07
3.40302e-07
3.40332e-07
3.40386e-07
3.40377e-07
3.40505e-07
3.40406e-07
3.40651e-07
3.40548e-07
3.40681e-07
3.4089e-07
3.40968e-07
3.41103e-07
3.41403e-07
3.41757e-07
3.4214e-07
3.42659e-07
3.4332e-07
3.44112e-07
3.44979e-07
3.45627e-07
3.46483e-07
3.41528e-07
3.41131e-07
3.40834e-07
3.40603e-07
3.40441e-07
3.40312e-07
3.40215e-07
3.4014e-07
3.40074e-07
3.40013e-07
3.39973e-07
3.39947e-07
3.3989e-07
3.39884e-07
3.39873e-07
3.39845e-07
3.39859e-07
3.39871e-07
3.39915e-07
3.39965e-07
3.40006e-07
3.4005e-07
3.40095e-07
3.40138e-07
3.40175e-07
3.40251e-07
3.40235e-07
3.40377e-07
3.40286e-07