/*--------------------------------*- C++ -*----------------------------------*\
| =========                 |                                                 |
| \\      /  F ield         | OpenFOAM: The Open Source CFD Toolbox           |
|  \\    /   O peration     | Version:  v1912                                 |
|   \\  /    A nd           | Website:  www.openfoam.com                      |
|    \\/     M anipulation  |                                                 |
\*---------------------------------------------------------------------------*/
FoamFile
{
    version     2.0;
    format      ascii;
    class       volScalarField;
    location    "80";
    object      alpha.water;
}
// * * * * * * * * * * * * * * * * * * * * * * * * * * * * * * * * * * * * * //

dimensions      [0 0 0 0 0 0 0];


internalField   nonuniform List<scalar> 
14268
(
0.000243432
0.000315398
0.000315396
0.000311418
0.000244057
0.000244056
0.000449127
0.000896143
0.00103206
0.00102137
0.00089575
0.000855343
0.00096606
0.000975523
0.000938896
0.00107714
0.0010845
0.000521817
0.00039995
0.000398859
0.000393504
0.000378639
0.000374122
0.00038797
0.000443103
0.000547586
0.000670298
0.000685592
0.000685595
0.000685592
0.000683301
0.000391439
9.44003e-05
4.2658e-05
2.48664e-05
1.61633e-05
1.32565e-05
1.44989e-05
9.49024e-05
9.81931e-05
4.75874e-05
4.77614e-06
4.10571e-06
5.56126e-06
1.02904e-05
2.3115e-05
3.85172e-05
3.86796e-05
3.83802e-05
3.28466e-05
2.48106e-05
1.60762e-05
8.39043e-06
4.1278e-06
3.89286e-06
3.89284e-06
7.50517e-06
5.21945e-05
0.000295551
0.000390607
0.000390594
0.000354309
0.000275794
0.000190118
0.000119632
8.62044e-05
8.37613e-05
9.65811e-05
0.000145823
0.000155534
0.000155534
0.000107845
7.00773e-05
6.30042e-05
5.30303e-05
5.30247e-05
5.44246e-05
7.82312e-05
8.66251e-05
7.73664e-05
4.78634e-05
2.55346e-05
3.52052e-05
5.74517e-05
9.86213e-05
0.00017524
0.000268539
0.000294934
0.000294983
0.000294983
0.000283246
0.000152904
8.01097e-05
8.0038e-05
8.79947e-05
8.84372e-05
8.8439e-05
8.41604e-05
7.70053e-05
6.93516e-05
6.09418e-05
5.251e-05
4.64835e-05
4.54755e-05
4.81997e-05
5.92408e-05
7.77506e-05
0.000100202
0.000113494
0.000114191
0.000114261
0.000116553
0.000125782
0.000136098
0.000141688
0.000145114
0.000161339
0.000203757
0.000208831
0.000208831
0.000208831
0.00019434
8.47692e-05
8.73067e-06
1.4335e-18
7.0352e-32
-4.42567e-27
-4.16232e-27
-2.19341e-27
-8.7753e-28
-3.04736e-28
-1.00375e-28
-3.33113e-29
-1.1379e-29
-3.94929e-30
-1.35974e-30
-4.56062e-31
-1.47514e-31
-4.57673e-32
-1.3577e-32
-3.84252e-33
-1.03555e-33
-2.65311e-34
-6.45052e-35
-1.48589e-35
-3.23731e-36
-6.66104e-37
-1.29146e-37
-2.35703e-38
-4.04079e-39
0.00019627
0.000280037
0.000269822
0.000203771
0.0002461
0.000244057
0.000296962
0.00113782
0.000899824
0.000187656
0.000117898
9.36794e-05
0.000134885
0.000186659
9.70389e-05
0.000312995
0.00100033
0.000991107
0.000345992
0.00015543
7.02361e-05
3.9134e-05
3.12514e-05
3.15913e-05
3.12903e-05
3.54118e-05
5.52462e-05
9.46001e-05
0.000135925
0.000220202
0.000407801
0.000418151
0.000252056
5.95172e-05
2.51104e-06
2.45911e-06
2.8862e-06
4.87486e-06
0.00010539
0.000112757
5.35798e-05
2.98225e-06
3.70763e-07
3.78516e-07
4.6523e-07
1.18636e-06
6.83161e-06
1.0315e-05
6.62142e-06
3.33904e-06
3.29423e-06
3.69624e-06
3.45569e-06
4.60924e-06
5.1032e-06
5.19404e-06
6.00121e-06
3.22294e-05
0.000180125
0.000373166
0.000362778
0.000267613
0.000149756
6.02819e-05
2.8519e-05
2.55469e-05
2.55476e-05
2.85033e-05
4.73273e-05
0.000123878
0.000152367
0.000125172
0.000129824
0.000129819
0.000129552
9.09083e-05
7.54411e-05
9.64345e-05
0.000106678
9.14411e-05
5.20801e-05
2.55378e-05
3.04432e-05
4.10294e-05
5.56362e-05
5.90769e-05
4.45406e-05
3.64204e-05
5.18776e-05
0.000143366
0.000241966
0.00024396
0.000203121
8.90864e-05
5.99037e-05
5.98997e-05
5.36023e-05
4.07525e-05
2.95806e-05
2.20995e-05
1.51987e-05
7.79203e-06
4.25365e-06
4.3527e-06
6.75669e-06
1.32087e-05
1.76194e-05
2.01867e-05
2.0524e-05
1.90877e-05
1.75813e-05
1.82491e-05
2.50095e-05
3.31209e-05
3.26489e-05
2.57614e-05
1.99098e-05
2.44223e-05
6.78873e-05
0.0001702
0.000199931
0.000177878
0.000115783
2.69626e-05
3.96856e-18
3.40602e-31
-6.2706e-28
-8.2744e-28
-6.67165e-28
-4.38386e-28
-2.53745e-28
-1.31492e-28
-6.11089e-29
-2.55225e-29
-9.62605e-30
-3.30105e-30
-1.03772e-30
-3.01766e-31
-8.19805e-32
-2.10311e-32
-5.15172e-33
-1.21704e-33
-2.79204e-34
-6.23348e-35
-1.35122e-35
-2.82791e-36
-5.67639e-37
-1.08496e-37
-1.96505e-38
-3.35571e-39
0.000153025
0.000163253
0.000201686
0.000203736
0.000303179
0.000334208
0.00033976
0.0011378
0.000446239
6.95163e-05
5.83538e-05
5.8124e-05
5.80982e-05
5.67969e-05
2.58967e-05
3.15245e-05
0.000496953
0.000616426
0.00016494
3.4984e-05
2.07303e-05
2.07378e-05
2.38565e-05
2.89477e-05
2.34744e-05
2.01421e-05
2.0141e-05
2.01421e-05
2.25035e-05
4.08259e-05
0.000146724
0.000346524
0.000346478
0.000120612
2.72678e-06
2.92899e-06
3.41491e-06
3.41291e-06
7.44196e-05
0.000123378
6.12206e-05
4.91383e-06
2.63115e-07
2.6303e-07
2.63115e-07
2.69339e-07
2.42658e-07
2.1219e-07
2.38556e-07
2.77187e-07
2.4398e-07
1.8763e-07
5.25154e-07
2.73867e-06
9.73956e-06
1.22886e-05
9.71034e-06
2.029e-05
9.76583e-05
0.000215515
0.000207627
0.000141037
5.75195e-05
2.67176e-05
2.81533e-05
5.02316e-05
5.56565e-05
5.20515e-05
4.86781e-05
7.50263e-05
8.88673e-05
5.59049e-05
3.94964e-05
8.31525e-05
0.000173496
0.000173474
0.00017752
0.000233532
0.000247644
0.000196669
8.52984e-05
1.85392e-05
1.57869e-05
1.74057e-05
1.60223e-05
8.17907e-06
5.29339e-06
6.21853e-06
1.37133e-05
4.80017e-05
0.000128207
0.000174957
0.000147027
0.000100982
6.76395e-05
4.7171e-05
3.39256e-05
2.38441e-05
1.6001e-05
8.76567e-06
3.22071e-06
2.23915e-06
2.23947e-06
2.23915e-06
2.90526e-06
1.15371e-05
1.30803e-05
1.12054e-05
7.25216e-06
4.96148e-06
4.38663e-06
4.25639e-06
4.25629e-06
4.25639e-06
4.29898e-06
4.23857e-06
4.13516e-06
5.98811e-06
2.14141e-05
7.18545e-05
9.54902e-05
8.39101e-05
6.28153e-05
3.24491e-05
4.40806e-06
6.02537e-33
-2.22598e-28
-3.44924e-28
-3.08046e-28
-2.11227e-28
-1.22639e-28
-6.27412e-29
-2.87882e-29
-1.19592e-29
-4.52878e-30
-1.57471e-30
-5.07157e-31
-1.52766e-31
-4.34546e-32
-1.17791e-32
-3.0666e-33
-7.70686e-34
-1.87285e-34
-4.39159e-35
-9.89466e-36
-2.13066e-36
-4.36366e-37
-8.45562e-38
-1.54581e-38
-2.65626e-39
0.000146948
0.000121373
0.000243015
0.000528828
0.000761375
0.000857083
0.000775177
0.00113781
0.000187052
7.67299e-05
7.12091e-05
7.89123e-05
6.93257e-05
3.63465e-05
2.58967e-05
2.58967e-05
0.000248972
0.000214111
6.15788e-05
5.72222e-05
8.56267e-05
0.000115499
0.000126311
0.000175632
0.000164557
9.69537e-05
3.64629e-05
2.0141e-05
2.01421e-05
2.01411e-05
4.58906e-05
0.000150295
0.000206293
8.74807e-05
5.05973e-06
6.41542e-06
7.34149e-06
7.27678e-06
3.48423e-05
0.000124944
7.74812e-05
9.80529e-06
2.63032e-07
3.0597e-07
6.65484e-07
6.29357e-07
2.65538e-07
2.11975e-07
2.76178e-07
3.87707e-07
2.85743e-07
1.27767e-07
1.23277e-07
4.42978e-07
1.74593e-06
9.78003e-06
1.38391e-05
1.74976e-05
4.9718e-05
9.24435e-05
8.79367e-05
5.65117e-05
2.75419e-05
2.6714e-05
4.99373e-05
8.61619e-05
8.61114e-05
8.64272e-05
8.64673e-05
7.18294e-05
4.10017e-05
2.8405e-05
2.8228e-05
2.31571e-05
6.4925e-05
0.000272376
0.0002924
0.000293099
0.0002931
0.000293099
0.000191687
4.48392e-05
4.68303e-06
4.68394e-06
4.66994e-06
4.66967e-06
4.66994e-06
4.66967e-06
4.78433e-06
8.09272e-06
2.72636e-05
5.45769e-05
5.61388e-05
4.9631e-05
3.75522e-05
2.94628e-05
2.51253e-05
1.84949e-05
9.50207e-06
3.43657e-06
2.77892e-06
3.54001e-06
6.30299e-06
8.07721e-06
8.05909e-06
7.90721e-06
2.40641e-05
3.36837e-05
3.36881e-05
3.32951e-05
3.26561e-05
2.65749e-05
1.31138e-05
4.32809e-06
3.93221e-06
3.93174e-06
4.13538e-06
4.13516e-06
5.3446e-06
1.36606e-05
2.51081e-05
2.99262e-05
3.13031e-05
2.83234e-05
8.69232e-06
7.27653e-08
1.91262e-21
-2.12217e-40
-7.73695e-29
-6.64797e-29
-4.21763e-29
-2.27849e-29
-1.09263e-29
-4.74064e-30
-1.88342e-30
-6.92716e-31
-2.38549e-31
-7.77111e-32
-2.41232e-32
-7.16463e-33
-2.03857e-33
-5.5502e-34
-1.44208e-34
-3.56261e-35
-8.33968e-36
-1.84396e-36
-3.84211e-37
-7.52306e-38
-1.38291e-38
-2.3814e-39
0.000372722
0.000130699
0.000599088
0.00120171
0.00132763
0.00132681
0.000958014
0.000982704
0.000248872
0.000253321
0.000182345
0.000150292
0.00014971
8.32333e-05
2.58967e-05
2.58967e-05
9.26279e-05
9.26708e-05
0.000152087
0.000223012
0.00024332
0.000238218
0.000220906
0.000291909
0.00029215
0.000276539
0.000203194
8.15234e-05
3.7453e-05
3.24363e-05
3.24875e-05
6.27123e-05
8.7819e-05
5.14738e-05
1.0172e-05
1.07375e-06
4.13614e-06
7.41557e-06
2.73476e-05
0.000224013
0.000117681
4.98243e-05
3.58147e-05
1.00162e-05
9.71326e-07
1.02591e-06
8.36742e-07
6.27289e-07
8.96503e-07
9.46646e-07
9.46807e-07
4.73891e-07
9.55013e-08
9.53266e-08
1.10312e-07
1.36629e-06
2.05181e-05
1.93912e-05
2.11194e-05
2.83885e-05
4.65368e-05
4.51316e-05
3.38445e-05
3.78784e-05
5.49558e-05
2.83409e-05
7.77779e-06
1.01982e-05
3.43559e-05
5.11276e-05
3.76504e-05
3.74865e-05
3.15166e-05
1.3535e-05
1.87689e-05
0.000143948
0.000292437
0.000290394
0.000247406
0.000223008
0.000222418
9.74981e-05
8.71915e-06
4.66994e-06
4.66967e-06
5.41438e-06
9.30757e-06
8.7016e-06
5.26715e-06
4.65364e-06
4.65303e-06
5.35235e-06
7.9165e-06
1.03244e-05
1.16636e-05
1.35886e-05
1.5695e-05
1.50549e-05
7.4332e-06
3.32662e-06
3.31904e-06
8.92753e-06
1.46573e-05
1.71743e-05
1.71711e-05
1.06321e-05
8.68097e-06
1.47082e-05
3.86836e-05
5.95756e-05
6.01689e-05
6.01605e-05
4.17724e-05
1.79449e-05
1.60783e-05
1.96915e-05
2.17383e-05
1.87143e-05
1.04346e-05
8.77883e-06
8.78013e-06
1.46794e-05
2.71029e-05
2.51098e-05
8.0023e-06
1.06817e-07
2.12473e-21
1.33503e-41
-1.11839e-28
-9.37454e-29
-5.28517e-29
-2.52144e-29
-1.12009e-29
-4.80673e-30
-1.99257e-30
-7.89012e-31
-2.96054e-31
-1.0492e-31
-3.50893e-32
-1.10723e-32
-3.29531e-33
-9.24415e-34
-2.44201e-34
-6.06896e-35
-1.41765e-35
-3.10999e-36
-6.40126e-37
-1.23503e-37
-2.23215e-38
-3.77752e-39
0.000380811
0.000283669
0.000961271
0.00132763
0.00132763
0.00132763
0.000266821
0.000561152
0.000236904
0.000308897
0.000150783
3.02502e-05
3.16009e-05
3.01262e-05
3.44553e-05
2.58967e-05
7.4604e-05
0.000272661
0.000362834
0.000362834
0.000337094
0.000275023
0.000245772
0.000173609
0.00024509
0.000342279
0.000342285
0.000232331
0.000107114
9.67227e-05
8.64463e-05
4.96254e-05
4.15031e-05
2.72498e-05
6.43367e-06
3.81555e-07
5.20666e-07
1.41071e-06
1.36713e-05
0.000299838
0.000145142
0.000206022
0.000294635
0.00011754
6.20001e-06
1.22912e-06
1.68698e-06
1.68754e-06
1.33309e-06
5.75411e-07
2.79551e-07
3.5328e-07
2.74924e-07
9.49943e-08
9.44737e-08
1.65975e-07
2.33829e-05
2.33841e-05
2.11301e-05
2.18356e-05
6.45358e-05
9.85686e-05
8.43788e-05
8.42521e-05
5.5109e-05
1.22706e-05
3.01558e-06
3.51366e-06
1.40272e-05
3.26102e-05
4.34744e-05
4.34674e-05
2.87184e-05
6.49925e-06
7.87058e-06
6.98467e-05
0.000191078
0.000158418
6.20438e-05
5.3386e-05
8.7525e-05
9.00445e-05
2.90254e-05
4.6893e-06
5.07872e-06
1.50301e-05
2.94015e-05
2.67596e-05
1.3463e-05
4.86146e-06
4.65363e-06
4.65306e-06
4.65366e-06
4.65311e-06
5.08814e-06
5.91147e-06
7.11354e-06
1.00599e-05
8.76606e-06
5.22253e-06
1.31107e-05
2.04358e-05
2.04361e-05
1.66038e-05
1.48155e-05
1.49605e-05
6.37671e-06
5.85727e-06
6.23247e-06
7.77183e-06
1.35056e-05
2.85142e-05
4.33263e-05
4.33198e-05
4.54507e-05
5.10209e-05
5.09536e-05
4.73985e-05
2.99485e-05
1.05083e-05
8.77883e-06
1.05632e-05
2.03273e-05
2.31427e-05
1.17013e-05
1.16054e-06
6.72894e-27
-1.98953e-27
-6.02991e-28
-2.6958e-28
-1.03489e-28
-3.7695e-29
-1.4594e-29
-6.11586e-30
-2.61624e-30
-1.08088e-30
-4.20395e-31
-1.52833e-31
-5.19254e-32
-1.65133e-32
-4.92305e-33
-1.37737e-33
-3.61839e-34
-8.92681e-35
-2.06797e-35
-4.49699e-36
-9.17362e-37
-1.75398e-37
-3.1413e-38
-5.26693e-39
0.000376503
0.000543059
0.000480655
0.000562323
0.00110967
0.00132763
5.28634e-05
0.000197898
0.000146506
0.000158774
3.63405e-05
2.59838e-05
2.59838e-05
7.08856e-05
0.000144451
5.24976e-05
6.0463e-05
0.000201186
0.000103098
5.33179e-05
5.33156e-05
0.000165328
0.000287817
0.000205621
6.82627e-05
6.73186e-05
0.000165031
0.00021731
0.000194386
0.000113171
5.88738e-05
3.46618e-05
2.21217e-05
1.38244e-05
3.49908e-06
3.81103e-07
4.11176e-07
1.51181e-06
5.15437e-06
0.000299374
0.000407097
0.000447277
0.000680284
0.000310234
3.20184e-05
4.59229e-07
1.01332e-06
1.2764e-06
6.07086e-07
1.16988e-07
9.57507e-08
1.56621e-07
1.34222e-07
9.4469e-08
9.44655e-08
9.44736e-08
1.2119e-05
3.40425e-05
2.69834e-05
3.44779e-05
9.87684e-05
0.000142928
0.000142995
0.000113779
3.70389e-05
6.4868e-06
2.54017e-06
2.53554e-06
8.37343e-06
1.43575e-05
4.17216e-05
4.1857e-05
1.77683e-05
3.03952e-06
3.28259e-06
2.99267e-05
7.78843e-05
5.81869e-05
1.79366e-05
1.74305e-05
4.60973e-05
7.0582e-05
4.00623e-05
1.8582e-05
3.92879e-05
4.87242e-05
4.87251e-05
4.81556e-05
3.26698e-05
1.15338e-05
5.7973e-06
6.49485e-06
1.0782e-05
2.07457e-05
3.00514e-05
3.0061e-05
2.19833e-05
7.7446e-06
4.66805e-06
4.88272e-06
9.59179e-06
1.04779e-05
4.73901e-06
1.84085e-06
2.51158e-06
9.14021e-06
1.15671e-05
6.18967e-06
2.97651e-06
2.97296e-06
3.08835e-06
6.19766e-06
2.74234e-05
6.22179e-05
6.60746e-05
6.60862e-05
6.60746e-05
6.6078e-05
6.43655e-05
3.15547e-05
1.00597e-05
7.77966e-06
1.22887e-05
1.75641e-05
1.75664e-05
6.83087e-06
2.7981e-07
-8.91286e-29
-7.43813e-29
-6.11855e-29
-3.79699e-29
-2.14799e-29
-1.15685e-29
-5.85233e-30
-2.7372e-30
-1.17829e-30
-4.67987e-31
-1.72244e-31
-5.89774e-32
-1.88437e-32
-5.63056e-33
-1.57592e-33
-4.13598e-34
-1.0184e-34
-2.35317e-35
-5.10194e-36
-1.03754e-36
-1.97706e-37
-3.52872e-38
-5.89317e-39
0.000216512
0.000351302
0.000351354
0.000394513
0.000594415
0.00132408
6.21088e-05
3.64898e-05
4.62653e-05
3.99965e-05
2.75418e-05
2.96145e-05
5.44099e-05
0.000195732
0.000195726
0.000181613
4.90765e-05
0.000110374
2.47488e-05
1.88967e-05
0.000133276
0.000625886
0.000760874
0.000727536
0.000336312
4.96719e-05
4.41487e-05
9.57806e-05
0.000101939
6.7895e-05
3.28148e-05
1.86067e-05
1.1261e-05
6.79962e-06
1.98076e-06
3.80558e-07
4.09588e-07
7.42878e-06
1.07374e-05
0.000189775
0.000211516
0.00057878
0.000693012
0.000583145
0.000129185
3.79708e-07
3.30349e-07
3.97509e-07
1.70907e-07
9.445e-08
9.44614e-08
9.44593e-08
9.44634e-08
9.44577e-08
9.4469e-08
9.44655e-08
1.03692e-06
4.94067e-05
6.31217e-05
0.000133916
0.000212924
0.000173493
0.000113409
5.38609e-05
1.91168e-05
4.92244e-06
2.53554e-06
9.30001e-06
1.39769e-05
1.39827e-05
1.9742e-05
1.81187e-05
5.95873e-06
2.56713e-06
2.56713e-06
1.03087e-05
2.0222e-05
1.35315e-05
4.62282e-06
5.70589e-06
2.42982e-05
5.01147e-05
5.05233e-05
4.09229e-05
2.99488e-05
3.28357e-05
4.22255e-05
4.99923e-05
5.06056e-05
4.49357e-05
4.15261e-05
4.47601e-05
5.9625e-05
6.23932e-05
6.23883e-05
6.25519e-05
4.70612e-05
1.81858e-05
4.67322e-06
5.04557e-06
4.12917e-06
4.13164e-06
2.29671e-06
1.83416e-06
1.83419e-06
5.37692e-06
1.32197e-05
1.26522e-05
6.9002e-06
3.06867e-06
3.06287e-06
3.24615e-06
1.09505e-05
3.03856e-05
3.56047e-05
2.75449e-05
1.14952e-05
1.00593e-05
2.03099e-05
2.74532e-05
1.53337e-05
7.33193e-06
7.32271e-06
9.61905e-06
1.01009e-05
6.72413e-06
1.11741e-06
-6.11958e-26
-1.93943e-28
-1.72228e-28
-6.05159e-29
-2.49658e-29
-1.14874e-29
-5.45635e-30
-2.50955e-30
-1.08188e-30
-4.32893e-31
-1.6072e-31
-5.54817e-32
-1.78479e-32
-5.36111e-33
-1.50607e-33
-3.96223e-34
-9.76902e-35
-2.25844e-35
-4.89588e-36
-9.95221e-37
-1.89481e-37
-3.37874e-38
-5.63383e-39
9.88744e-05
0.000259644
0.000710393
0.00127493
0.00141084
0.00093675
0.000547811
3.64787e-05
3.64898e-05
3.75562e-05
0.000110076
0.000287008
7.41004e-05
0.00019352
0.00012507
0.000189297
4.11215e-05
3.60921e-05
1.84619e-05
3.70214e-05
0.000652787
0.000884957
0.000885239
0.000884957
0.000743026
0.000246023
2.72135e-05
2.66684e-05
3.99999e-05
3.93222e-05
1.69948e-05
7.32828e-06
4.64405e-06
3.17529e-06
1.19399e-06
3.80419e-07
3.8041e-07
1.06829e-05
1.69226e-05
8.43223e-05
4.94449e-05
0.000689721
0.000693008
0.0006933
0.000279539
1.25971e-05
9.4459e-08
9.44668e-08
9.44563e-08
9.44583e-08
9.44563e-08
9.44663e-08
9.44595e-08
1.19889e-07
2.32847e-07
1.31679e-07
2.91879e-07
2.14512e-05
0.000218691
0.000253706
0.000253698
0.000199817
5.44377e-05
1.1002e-05
7.27329e-06
3.48419e-06
3.55488e-06
1.95049e-05
2.71145e-05
1.41242e-05
1.41087e-05
1.56088e-05
1.6707e-05
5.69345e-06
2.56713e-06
2.56713e-06
2.56713e-06
2.56779e-06
2.56937e-06
2.57092e-06
9.83172e-06
2.88791e-05
3.58572e-05
2.35708e-05
1.16838e-05
1.14425e-05
1.18995e-05
2.23624e-05
5.78949e-05
6.54042e-05
6.5397e-05
6.54042e-05
5.44927e-05
3.72135e-05
2.60738e-05
2.5072e-05
2.80464e-05
2.89782e-05
2.5441e-05
1.539e-05
6.65519e-06
2.57708e-06
1.83418e-06
1.8342e-06
1.83416e-06
1.86542e-06
1.05093e-05
1.83577e-05
1.49026e-05
1.07782e-05
7.95849e-06
6.57515e-06
6.85804e-06
1.20699e-05
1.30929e-05
9.10081e-06
3.48254e-06
3.38504e-06
1.02374e-05
2.40591e-05
2.26601e-05
1.13575e-05
3.71456e-06
3.7169e-06
3.46178e-06
2.32889e-06
5.24251e-07
2.06169e-09
-2.74781e-29
-3.96643e-29
-2.74942e-29
-1.61431e-29
-8.88948e-30
-4.56858e-30
-2.16418e-30
-9.42096e-31
-3.77995e-31
-1.40431e-31
-4.84892e-32
-1.56013e-32
-4.68677e-33
-1.31649e-33
-3.46234e-34
-8.53141e-35
-1.97074e-35
-4.268e-36
-8.66786e-37
-1.64854e-37
-2.93693e-38
-4.89086e-39
9.88734e-05
0.000278439
0.00122951
0.00141084
0.00141084
0.00141084
0.00130472
3.64898e-05
3.64787e-05
0.000115843
0.000494901
0.000832758
0.000107194
6.1756e-05
3.46552e-05
0.000118674
4.87674e-05
2.15033e-05
2.49939e-05
0.000309073
0.000822214
0.000590579
0.000264461
0.000341195
0.000742561
0.00059349
0.000119089
1.43947e-05
1.43914e-05
3.09911e-05
2.2239e-05
5.46905e-06
1.31111e-06
1.29792e-06
6.51751e-07
3.81867e-07
3.8034e-07
5.62127e-07
5.02331e-06
2.61845e-05
4.92974e-05
0.000599959
0.000693012
0.000692969
0.000379409
5.05256e-05
9.44619e-08
9.44567e-08
9.44568e-08
9.44467e-08
9.44588e-08
9.44568e-08
9.44689e-08
2.80326e-07
7.43792e-07
6.57799e-07
2.93142e-07
6.18224e-06
9.64927e-05
0.000232311
0.000231563
0.000187874
5.40098e-05
4.34107e-06
4.33425e-06
4.49261e-06
8.30915e-06
3.04785e-05
5.01935e-05
2.2208e-05
1.41088e-05
2.79529e-05
3.66951e-05
1.30568e-05
2.56713e-06
2.56713e-06
2.56713e-06
5.01319e-06
1.76846e-05
1.49013e-05
1.03487e-05
1.23098e-05
1.31047e-05
8.20776e-06
6.97039e-06
9.77281e-06
3.03745e-05
3.29278e-05
3.255e-05
4.38282e-05
4.61538e-05
3.81256e-05
1.96559e-05
7.3126e-06
6.49595e-06
8.2985e-06
1.30248e-05
2.51171e-05
2.77083e-05
2.77107e-05
2.02225e-05
3.48583e-06
1.8342e-06
1.83418e-06
1.83418e-06
1.83418e-06
3.19797e-06
2.01847e-05
2.93081e-05
2.99629e-05
3.02653e-05
2.50609e-05
1.13753e-05
4.70919e-06
4.68124e-06
3.08342e-06
1.89998e-06
1.92455e-06
5.84956e-06
2.07373e-05
2.49087e-05
2.31863e-05
1.05201e-05
1.63486e-06
1.86123e-07
1.41374e-07
5.18157e-08
2.59646e-09
1.06231e-28
-1.12686e-29
-1.25955e-29
-1.00583e-29
-6.51443e-30
-3.60935e-30
-1.76289e-30
-7.74789e-31
-3.1113e-31
-1.15385e-31
-3.97695e-32
-1.27811e-32
-3.83742e-33
-1.0776e-33
-2.83349e-34
-6.97955e-35
-1.6115e-35
-3.48781e-36
-7.07937e-37
-1.34552e-37
-2.39591e-38
-3.98674e-39
0.000154936
0.000351739
0.000486253
0.000363715
0.00105713
0.00141084
0.00141084
3.64725e-05
8.3484e-05
0.000210919
0.000876645
0.00122965
0.000369321
3.46552e-05
3.46553e-05
3.46552e-05
4.46917e-05
2.15174e-05
0.000116415
0.00072124
0.00073397
6.90166e-05
8.64022e-06
1.48589e-05
0.000339892
0.000610714
0.000338372
3.55429e-05
9.31165e-06
2.47358e-05
2.80061e-05
1.10873e-05
5.43122e-07
3.80232e-07
3.80342e-07
3.80277e-07
3.80356e-07
3.8034e-07
1.75557e-06
6.72219e-06
0.000276599
0.000531945
0.000688867
0.000693054
0.000453541
0.000106057
9.44489e-08
9.44594e-08
9.44471e-08
9.44496e-08
1.02927e-07
1.03997e-07
1.17376e-07
6.17563e-07
1.56122e-06
1.47251e-06
6.76743e-07
1.98896e-06
3.53655e-05
0.00010857
9.98404e-05
0.000103637
9.30667e-05
2.28844e-05
8.60056e-06
1.08319e-05
1.08437e-05
6.59208e-06
5.02308e-05
3.19331e-05
1.57003e-05
6.39105e-05
6.67279e-05
1.83713e-05
2.64888e-06
2.56713e-06
2.89948e-06
2.13277e-05
6.69876e-05
6.41327e-05
2.65026e-05
6.9709e-06
6.97084e-06
6.97051e-06
6.97073e-06
2.27753e-05
8.44157e-05
7.54649e-05
2.56864e-05
1.60639e-05
1.43948e-05
8.84054e-06
2.67023e-06
1.32751e-06
1.9392e-06
5.30283e-06
1.04622e-05
1.38401e-05
2.02372e-05
2.17453e-05
1.24492e-05
2.53149e-06
1.8342e-06
1.8342e-06
1.83418e-06
1.8342e-06
1.8342e-06
6.57311e-06
2.75507e-05
3.94146e-05
3.94149e-05
3.94146e-05
2.75214e-05
7.90566e-06
1.89988e-06
1.89996e-06
1.89965e-06
1.89996e-06
2.78393e-06
1.14508e-05
2.48998e-05
2.50983e-05
2.24156e-05
7.53803e-06
3.35907e-07
4.79897e-12
3.13648e-11
1.39237e-10
2.3245e-11
-1.11882e-30
-6.72003e-30
-8.02768e-30
-5.89353e-30
-3.33006e-30
-1.58813e-30
-6.72175e-31
-2.60326e-31
-9.38874e-32
-3.177e-32
-1.01014e-32
-3.0157e-33
-8.44404e-34
-2.2169e-34
-5.45522e-35
-1.25853e-35
-2.72179e-36
-5.52161e-37
-1.04895e-37
-1.86746e-38
-3.10633e-39
0.000439946
0.000271766
0.000271664
0.000271766
0.000358848
0.00127655
0.00141084
4.73362e-05
0.000409223
0.000260414
0.000988794
0.00122967
0.000919086
0.000104303
0.00028154
3.46553e-05
5.88335e-05
2.26158e-05
0.000429971
0.000725423
0.00014946
4.84032e-06
3.12753e-06
3.11851e-06
1.92649e-05
0.000521374
0.00047408
0.000127906
9.31348e-06
1.12765e-05
2.96262e-05
1.63234e-05
1.41318e-06
3.80338e-07
3.80234e-07
3.80347e-07
3.80305e-07
4.64943e-07
7.58844e-07
2.08435e-06
0.000354685
0.000226645
0.000249155
0.000690308
0.000503786
0.000158026
2.11047e-06
9.44532e-08
1.88143e-07
5.72935e-07
5.49868e-07
3.00005e-07
2.5186e-07
1.16487e-06
2.6501e-06
2.38405e-06
1.35962e-06
1.18828e-06
8.38262e-06
2.38264e-05
2.23999e-05
4.87528e-05
9.30188e-05
8.28385e-05
4.35001e-05
7.5011e-06
5.72742e-06
3.99191e-06
3.17466e-05
6.17883e-05
7.62919e-05
0.000105923
3.68755e-05
1.5779e-05
9.78227e-06
3.17512e-06
3.50277e-06
5.63573e-05
9.62659e-05
9.62687e-05
6.61248e-05
1.49421e-05
6.97095e-06
6.97084e-06
1.00234e-05
7.24658e-05
0.00020944
0.00016948
5.57265e-05
1.85726e-06
7.52016e-07
6.34411e-07
6.34352e-07
6.36254e-07
9.36357e-07
4.28227e-06
1.07645e-05
1.17544e-05
1.07742e-05
8.55496e-06
3.6976e-06
2.37271e-06
2.3746e-06
1.83419e-06
1.8342e-06
1.83418e-06
1.8342e-06
2.70355e-06
8.29229e-06
1.7708e-05
2.87512e-05
3.55837e-05
3.54979e-05
1.88101e-05
4.39456e-06
1.89968e-06
1.89983e-06
1.89956e-06
2.08351e-06
4.89532e-06
1.36679e-05
2.47082e-05
2.47097e-05
1.86509e-05
4.07898e-06
4.80064e-12
1.43845e-11
8.76746e-12
3.28925e-12
5.00358e-14
6.86468e-28
2.11251e-47
-3.01555e-30
-2.14167e-30
-1.11225e-30
-4.87178e-31
-1.9119e-31
-6.93703e-32
-2.35703e-32
-7.51979e-33
-2.25106e-33
-6.31469e-34
-1.65969e-34
-4.08611e-35
-9.42839e-36
-2.03915e-36
-4.13781e-37
-7.86325e-38
-1.40087e-38
-2.33146e-39
0.000940604
0.000478858
0.000459548
0.000315326
0.000273054
0.000271672
0.00141084
9.90514e-05
0.000509672
0.000335256
0.00103434
0.00122965
0.00113267
0.000737475
0.00110343
3.46552e-05
0.000214937
4.49636e-05
0.000564597
0.000533218
4.53402e-05
3.13076e-06
3.11851e-06
3.12279e-06
3.48298e-06
0.000128263
0.000473587
0.000248115
3.13042e-05
2.04966e-05
3.2348e-05
2.14058e-05
2.89977e-06
3.80189e-07
3.80325e-07
4.33087e-07
7.21454e-07
1.58754e-06
3.82502e-06
2.34233e-06
0.000290022
8.7168e-05
5.6128e-05
0.000691524
0.000602642
0.000218709
1.0099e-05
1.02496e-07
8.27141e-07
1.89149e-06
1.62697e-06
7.31274e-07
5.11075e-07
2.00757e-06
3.78876e-06
3.02794e-06
2.27596e-06
9.84559e-07
5.01092e-07
4.87537e-07
1.96599e-06
1.6765e-05
8.40655e-05
8.56731e-05
5.08934e-05
3.18385e-06
5.45017e-07
2.38784e-06
1.79466e-05
0.000138431
0.000138431
0.000122899
3.06651e-05
2.95458e-05
2.47502e-05
7.43563e-06
1.08312e-05
1.61257e-05
3.02154e-05
9.14371e-05
8.36053e-05
3.17646e-05
7.0042e-06
6.97095e-06
2.38611e-05
0.000233453
0.000282169
0.00027376
0.000109539
6.06657e-06
6.34411e-07
6.3433e-07
6.34411e-07
6.49142e-07
9.0041e-07
4.58402e-06
1.05082e-05
9.48418e-06
5.69928e-06
2.16346e-06
1.98217e-06
2.75947e-06
4.21195e-06
3.81091e-06
3.46751e-06
4.54962e-06
5.18916e-06
4.50709e-06
4.36471e-06
4.53197e-06
5.45239e-06
1.19161e-05
2.62053e-05
2.45701e-05
1.38081e-05
6.82536e-06
4.3022e-06
3.27609e-06
2.74942e-06
3.23636e-06
5.65075e-06
9.80887e-06
1.57902e-05
1.64855e-05
1.45917e-05
4.26256e-06
1.8371e-07
1.15197e-12
5.76369e-15
1.51186e-15
5.81845e-20
-1.8199e-42
-2.21586e-30
-1.70641e-30
-8.95354e-31
-3.83806e-31
-1.4605e-31
-5.16241e-32
-1.7249e-32
-5.45445e-33
-1.62603e-33
-4.55289e-34
-1.19578e-34
-2.94358e-35
-6.79447e-36
-1.4706e-36
-2.988e-37
-5.68707e-38
-1.01519e-38
-1.69268e-39
0.00107642
0.00107643
0.000952511
0.000704628
0.000573549
0.000106712
0.00141015
0.000365299
0.000510014
0.000491871
0.00110887
0.00110973
0.00121186
0.00138009
0.00138009
3.46558e-05
0.000251109
0.000211984
0.000395579
0.000105
4.07579e-06
3.13057e-06
3.13248e-06
3.12221e-06
3.13501e-06
3.00392e-05
0.00035102
0.000315398
7.3783e-05
3.11749e-05
3.82725e-05
2.69402e-05
4.59541e-06
3.80322e-07
3.8022e-07
7.68625e-07
1.1881e-06
2.80182e-06
8.94058e-06
2.45118e-06
8.06161e-05
3.81884e-05
3.80658e-05
0.000691494
0.000691528
0.000290839
1.83492e-05
2.44145e-07
2.35933e-06
4.35488e-06
3.68285e-06
1.53571e-06
8.81697e-07
3.27463e-06
5.19435e-06
3.6957e-06
3.55673e-06
2.48551e-06
5.72784e-07
3.62341e-07
8.25871e-07
6.07152e-06
4.37317e-05
7.53087e-05
2.69527e-05
1.00294e-06
4.81073e-07
6.58713e-06
1.65767e-05
0.000105603
0.000138431
7.9569e-05
6.18017e-05
6.86102e-05
5.79506e-05
1.71827e-05
9.95402e-06
5.39044e-06
4.6067e-06
3.89881e-05
9.74665e-05
5.86046e-05
1.46372e-05
1.28335e-05
7.99013e-05
0.00024171
0.000225388
0.00015876
0.000104804
2.03737e-05
8.88636e-07
1.51761e-06
2.79947e-06
2.83833e-06
2.12517e-06
3.30064e-06
1.18579e-05
9.79676e-06
2.51386e-06
1.98217e-06
1.98218e-06
3.77976e-06
5.92694e-06
8.3689e-06
8.11414e-06
7.1359e-06
8.9776e-06
9.12217e-06
6.21398e-06
4.58379e-06
4.58441e-06
5.47501e-06
1.57933e-05
2.43603e-05
2.16546e-05
1.49826e-05
8.77178e-06
5.99222e-06
4.41134e-06
1.99401e-06
1.61734e-06
1.71715e-06
3.02465e-06
7.00862e-06
6.91383e-06
6.5381e-06
1.81438e-06
3.03094e-08
4.61327e-16
1.48349e-16
2.88679e-17
-2.91576e-36
-8.06665e-31
-8.65287e-31
-5.37742e-31
-2.50882e-31
-9.90523e-32
-3.54275e-32
-1.18578e-32
-3.74764e-33
-1.11716e-33
-3.13067e-34
-8.23606e-35
-2.03196e-35
-4.70306e-36
-1.02107e-36
-2.08201e-37
-3.97715e-38
-7.12732e-39
-1.19257e-39
0.000739829
0.00120316
0.00120312
0.000948561
0.00081077
7.71403e-05
0.000604246
0.000545073
0.000220719
0.000705356
0.00137272
0.00127183
0.00126421
0.00138009
0.00138009
3.99948e-05
0.000165161
0.000257983
0.000135519
2.27196e-05
3.13594e-06
3.13567e-06
3.13064e-06
3.13501e-06
3.13278e-06
1.12146e-05
0.000173102
0.000315891
0.000212168
7.5973e-05
5.5469e-05
3.64145e-05
7.46052e-06
3.80217e-07
3.80284e-07
9.77593e-07
1.48345e-06
3.66216e-06
9.7174e-06
3.82054e-06
7.58947e-06
6.04693e-05
0.000184026
0.000613764
0.000691498
0.000347255
4.05435e-05
1.67966e-06
6.62589e-06
9.77133e-06
8.34551e-06
4.08591e-06
2.28109e-06
6.20603e-06
1.09251e-05
2.16665e-05
1.21634e-05
5.28613e-06
1.26032e-06
3.62271e-07
4.02577e-07
1.78897e-06
1.41567e-05
2.19533e-05
7.71142e-06
5.61634e-07
4.81073e-07
9.86069e-06
1.52216e-05
4.59766e-05
0.000102581
7.79537e-05
0.000176336
0.000227359
0.000157371
5.31219e-05
6.65032e-06
1.7462e-06
2.01315e-06
1.55561e-05
0.000141868
0.000150891
0.00015511
0.000176882
0.000229392
0.000208658
0.000101214
8.95314e-05
8.41278e-05
3.54936e-05
9.42067e-06
1.39045e-05
1.94611e-05
1.50398e-05
5.61281e-06
3.90416e-06
1.18673e-05
1.14513e-05
5.7774e-06
1.99797e-06
2.04627e-06
5.14066e-06
1.05045e-05
2.01974e-05
2.02365e-05
1.10508e-05
1.09216e-05
1.09161e-05
1.01897e-05
7.11621e-06
4.88822e-06
4.88666e-06
9.19551e-06
2.10348e-05
2.27972e-05
2.11874e-05
1.25579e-05
8.62421e-06
7.57099e-06
5.01896e-06
1.55015e-06
5.12527e-07
5.13253e-07
9.58012e-07
1.30179e-06
1.55539e-06
1.16699e-06
3.69973e-07
1.02417e-08
3.93151e-18
1.96215e-18
1.58599e-19
6.94537e-39
-1.79487e-31
-1.65052e-31
-9.07561e-32
-3.91347e-32
-1.47899e-32
-5.13872e-33
-1.66778e-33
-5.07237e-34
-1.44476e-34
-3.85533e-35
-9.6355e-36
-2.25743e-36
-4.95736e-37
-1.02216e-37
-1.97289e-38
-3.57168e-39
-6.02985e-40
0.000481827
0.000564259
0.000370574
7.59229e-05
7.58635e-05
7.58055e-05
0.00013266
0.00012397
8.06828e-05
0.000739549
0.00138009
0.00138009
0.00138009
0.00138009
0.00135553
0.000149797
2.92357e-05
0.000250429
5.35855e-05
3.70956e-06
3.71224e-06
3.13199e-06
3.12975e-06
3.1233e-06
3.13603e-06
4.22337e-06
4.10137e-05
0.000283327
0.000376537
0.000293547
0.000145384
6.26464e-05
1.30593e-05
3.80331e-07
3.80273e-07
4.05609e-07
3.93478e-07
3.93625e-07
6.99949e-06
1.04617e-05
2.18452e-05
0.000143285
0.000444005
0.000489235
0.000691327
0.000330215
5.14319e-05
5.87524e-06
1.40579e-05
1.73719e-05
1.487e-05
8.30858e-06
4.83093e-06
9.63747e-06
2.62195e-05
6.22387e-05
3.50308e-05
1.08685e-05
2.05213e-06
4.169e-07
6.94394e-07
7.53645e-07
1.05951e-06
8.68573e-07
6.98906e-07
4.81073e-07
4.81073e-07
7.89229e-07
6.81334e-06
1.06465e-05
2.12795e-05
7.74069e-05
0.000418393
0.000591472
0.000330816
0.000110463
8.66513e-06
1.72299e-06
1.72308e-06
3.11956e-06
3.16101e-05
0.000230742
0.000298718
0.000298755
0.000298718
0.000126821
3.01708e-05
4.44985e-05
9.88378e-05
8.56644e-05
6.61167e-05
6.86658e-05
6.67594e-05
3.28349e-05
6.05836e-06
4.51096e-06
1.06871e-05
1.90736e-05
1.41004e-05
4.24338e-06
3.2301e-06
6.43865e-06
1.97737e-05
2.67496e-05
2.67505e-05
1.84423e-05
5.24745e-06
5.13948e-06
8.10708e-06
1.2195e-05
1.25091e-05
1.15778e-05
1.11814e-05
1.11749e-05
1.28441e-05
1.60525e-05
1.37748e-05
9.82624e-06
1.08388e-05
1.02791e-05
5.7969e-06
1.64754e-06
1.62649e-08
5.72383e-13
1.71637e-12
7.06026e-11
6.98559e-08
5.59183e-08
1.67255e-08
4.46893e-10
5.49231e-21
5.56729e-21
5.36008e-22
4.50741e-41
-3.21771e-32
-2.642e-32
-1.34913e-32
-5.57458e-33
-2.04758e-33
-6.91212e-34
-2.16732e-34
-6.32971e-35
-1.72602e-35
-4.39686e-36
-1.048e-36
-2.33759e-37
-4.89073e-38
-9.56572e-39
-1.75371e-39
-2.9937e-40
0.000374869
0.000152401
0.000136569
7.58646e-05
7.58055e-05
7.57467e-05
7.56893e-05
6.62676e-05
8.00416e-05
0.000899923
0.00138009
0.00127041
0.00138009
0.00138009
0.00138009
0.000324543
2.15314e-05
8.47066e-05
2.24503e-05
2.03716e-05
1.75662e-05
1.08299e-05
1.04688e-05
5.64108e-06