/*--------------------------------*- C++ -*----------------------------------*\
| =========                 |                                                 |
| \\      /  F ield         | OpenFOAM: The Open Source CFD Toolbox           |
|  \\    /   O peration     | Version:  v1912                                 |
|   \\  /    A nd           | Website:  www.openfoam.com                      |
|    \\/     M anipulation  |                                                 |
\*---------------------------------------------------------------------------*/
FoamFile
{
    version     2.0;
    format      ascii;
    class       volScalarField;
    location    "90";
    object      nut;
}
// * * * * * * * * * * * * * * * * * * * * * * * * * * * * * * * * * * * * * //

dimensions      [0 2 -1 0 0 0 0];


internalField   nonuniform List<scalar> 
14268
(
5.01089e-05
5.74473e-05
5.51818e-05
5.45273e-05
5.44108e-05
5.49923e-05
5.56949e-05
5.63942e-05
5.70511e-05
5.76283e-05
5.81047e-05
5.84769e-05
5.87541e-05
5.89498e-05
5.9067e-05
5.91254e-05
5.91519e-05
5.91631e-05
5.91771e-05
5.92072e-05
5.92651e-05
5.93578e-05
5.94875e-05
5.96544e-05
5.98552e-05
6.00682e-05
6.0226e-05
6.03279e-05
6.03879e-05
6.04028e-05
6.03707e-05
6.03012e-05
6.02202e-05
6.01401e-05
6.00439e-05
5.99184e-05
5.97645e-05
5.96089e-05
5.94671e-05
5.933e-05
5.91877e-05
5.90431e-05
5.88954e-05
5.87486e-05
5.86064e-05
5.84716e-05
5.83495e-05
5.82523e-05
5.8195e-05
5.8203e-05
5.83012e-05
5.85051e-05
5.87887e-05
5.91424e-05
5.95517e-05
5.99909e-05
6.04495e-05
6.08896e-05
6.12454e-05
6.14988e-05
6.16511e-05
6.17157e-05
6.17136e-05
6.16625e-05
6.15763e-05
6.14614e-05
6.13177e-05
6.11443e-05
6.09426e-05
6.07129e-05
6.04632e-05
6.02028e-05
5.99449e-05
5.97295e-05
5.95451e-05
5.93902e-05
5.92584e-05
5.91439e-05
5.90416e-05
5.89442e-05
5.88477e-05
5.87523e-05
5.86536e-05
5.85448e-05
5.8425e-05
5.82972e-05
5.81692e-05
5.80524e-05
5.79587e-05
5.78957e-05
5.78634e-05
5.7853e-05
5.78736e-05
5.79565e-05
5.81198e-05
5.83674e-05
5.86904e-05
5.9071e-05
5.94854e-05
5.99105e-05
6.03263e-05
6.07123e-05
6.10586e-05
6.13612e-05
6.16196e-05
6.18362e-05
6.20131e-05
6.21529e-05
6.22559e-05
6.23201e-05
6.23466e-05
6.23409e-05
6.23094e-05
6.22611e-05
6.21923e-05
6.20964e-05
6.19686e-05
6.18088e-05
6.16262e-05
6.14335e-05
6.12491e-05
6.10747e-05
6.09187e-05
6.07812e-05
6.06625e-05
6.056e-05
6.0471e-05
6.03923e-05
6.03197e-05
6.02493e-05
6.01755e-05
6.00995e-05
6.00224e-05
5.99524e-05
5.98941e-05
5.9845e-05
5.98074e-05
5.97678e-05
5.9726e-05
5.96852e-05
5.9647e-05
5.96122e-05
5.95817e-05
5.95573e-05
5.9543e-05
5.95457e-05
5.95726e-05
5.96275e-05
5.971e-05
5.98149e-05
5.99363e-05
6.0062e-05
6.01803e-05
6.02819e-05
6.03629e-05
6.04225e-05
6.04613e-05
6.04855e-05
6.04962e-05
6.04961e-05
6.04908e-05
6.04843e-05
6.04738e-05
6.04733e-05
3.93575e-08
3.28709e-08
5.25909e-08
1.1667e-07
2.58341e-07
4.86812e-07
7.53747e-07
1.01583e-06
1.23905e-06
1.4104e-06
1.53358e-06
1.62397e-06
1.69707e-06
1.75917e-06
1.81336e-06
1.86174e-06
1.90437e-06
1.94076e-06
1.97018e-06
1.99234e-06
2.00705e-06
2.01623e-06
2.02173e-06
2.02509e-06
2.02691e-06
2.02497e-06
2.01753e-06
2.01087e-06
2.00067e-06
1.98449e-06
1.96228e-06
1.93416e-06
1.90197e-06
1.8671e-06
1.83226e-06
1.79748e-06
1.76362e-06
1.7315e-06
1.70185e-06
1.67515e-06
1.65177e-06
1.63206e-06
1.61639e-06
1.60547e-06
1.60025e-06
1.60175e-06
1.60997e-06
1.62598e-06
1.65115e-06
1.68676e-06
1.73424e-06
1.7954e-06
1.87195e-06
1.96522e-06
2.07525e-06
2.20337e-06
2.34603e-06
2.49928e-06
2.65777e-06
2.81508e-06
2.96167e-06
3.08711e-06
3.18205e-06
3.23986e-06
3.25932e-06
3.24492e-06
3.19734e-06
3.12416e-06
3.03387e-06
2.93386e-06
2.83195e-06
2.73782e-06
2.65538e-06
2.5726e-06
2.502e-06
2.44723e-06
2.40659e-06
2.37589e-06
2.35397e-06
2.33463e-06
2.31387e-06
2.28357e-06
2.24855e-06
2.21126e-06
2.16817e-06
2.12014e-06
2.07115e-06
2.02539e-06
1.987e-06
1.95944e-06
1.9449e-06
1.94568e-06
1.9617e-06
1.99318e-06
2.04175e-06
2.10835e-06
2.19334e-06
2.29613e-06
2.41555e-06
2.54894e-06
2.69792e-06
2.85302e-06
3.01473e-06
3.17914e-06
3.34377e-06
3.50556e-06
3.66176e-06
3.80892e-06
3.94188e-06
4.05367e-06
4.1357e-06
4.17945e-06
4.18117e-06
4.13684e-06
4.04297e-06
3.90581e-06
3.73348e-06
3.53766e-06
3.33108e-06
3.12791e-06
2.93232e-06
2.75248e-06
2.59346e-06
2.45754e-06
2.34384e-06
2.25151e-06
2.17862e-06
2.12337e-06
2.08413e-06
2.05911e-06
2.04646e-06
2.04447e-06
2.05253e-06
2.06764e-06
2.08731e-06
2.11184e-06
2.14068e-06
2.1699e-06
2.19847e-06
2.22577e-06
2.25151e-06
2.27575e-06
2.29943e-06
2.3251e-06
2.35584e-06
2.39437e-06
2.44335e-06
2.50554e-06
2.58309e-06
2.67555e-06
2.78399e-06
2.90684e-06
3.04034e-06
3.17826e-06
3.31356e-06
3.4386e-06
3.54496e-06
3.63652e-06
3.70461e-06
3.75329e-06
3.79094e-06
3.82259e-06
3.85231e-06
3.87995e-06
2.01359e-09
2.81473e-09
6.01514e-09
1.69131e-08
4.46635e-08
9.9366e-08
1.84326e-07
2.81935e-07
3.67868e-07
4.35837e-07
4.85504e-07
5.21449e-07
5.4961e-07
5.7267e-07
5.91692e-07
6.07374e-07
6.20009e-07
6.29335e-07
6.35062e-07
6.37577e-07
6.37756e-07
6.36328e-07
6.33886e-07
6.30691e-07
6.26866e-07
6.22043e-07
6.16196e-07
6.09515e-07
6.01626e-07
5.92164e-07
5.81053e-07
5.68354e-07
5.5452e-07
5.40141e-07
5.26149e-07
5.12818e-07
5.00501e-07
4.8944e-07
4.79772e-07
4.71529e-07
4.64675e-07
4.59159e-07
4.54981e-07
4.5225e-07
4.51192e-07
4.52115e-07
4.55265e-07
4.60533e-07
4.68259e-07
4.78792e-07
4.92495e-07
5.09771e-07
5.30995e-07
5.56434e-07
5.86037e-07
6.19753e-07
6.56805e-07
6.96138e-07
7.36102e-07
7.74678e-07
8.09708e-07
8.3911e-07
8.6124e-07
8.75125e-07
8.81003e-07
8.79903e-07
8.7108e-07
8.55925e-07
8.3636e-07
8.14301e-07
7.91703e-07
7.7026e-07
7.50981e-07
7.33044e-07
7.17356e-07
7.05018e-07
6.95996e-07
6.89663e-07
6.85746e-07
6.8245e-07
6.78693e-07
6.73135e-07
6.65824e-07
6.56816e-07
6.45875e-07
6.33362e-07
6.20231e-07
6.076e-07
5.96644e-07
5.88465e-07
5.83956e-07
5.83713e-07
5.88087e-07
5.96575e-07
6.09472e-07
6.26952e-07
6.4904e-07
6.75524e-07
7.06097e-07
7.40046e-07
7.77064e-07
8.15683e-07
8.55444e-07
8.9518e-07
9.34313e-07
9.72259e-07
1.00855e-06
1.04256e-06
1.07333e-06
1.09951e-06
1.11937e-06
1.13099e-06
1.13324e-06
1.12447e-06
1.10358e-06
1.07174e-06
1.03088e-06
9.83733e-07
9.33403e-07
8.83127e-07
8.34803e-07
7.89999e-07
7.50221e-07
7.1618e-07
6.87687e-07
6.64619e-07
6.46582e-07
6.33137e-07
6.23848e-07
6.18295e-07
6.16146e-07
6.17079e-07
6.20736e-07
6.26069e-07
6.32565e-07
6.4013e-07
6.48583e-07
6.57126e-07
6.65411e-07
6.73204e-07
6.80417e-07
6.87129e-07
6.93661e-07
7.00699e-07
7.09046e-07
7.19442e-07
7.32563e-07
7.49093e-07
7.69656e-07
7.94149e-07
8.22594e-07
8.54736e-07
8.89476e-07
9.25099e-07
9.59617e-07
9.91073e-07
1.01778e-06
1.03997e-06
1.05648e-06
1.06885e-06
1.07827e-06
1.08626e-06
1.09403e-06
1.1016e-06
7.64134e-10
1.23967e-09
2.45921e-09
6.43326e-09
1.67886e-08
3.87138e-08
7.63407e-08
1.27553e-07
1.7567e-07
2.13673e-07
2.41727e-07
2.62475e-07
2.7853e-07
2.91408e-07
3.01987e-07
3.10796e-07
3.18077e-07
3.2381e-07
3.27892e-07
3.30527e-07
3.31992e-07
3.32569e-07
3.3252e-07
3.32022e-07
3.31114e-07
3.29761e-07
3.27941e-07
3.25679e-07
3.22833e-07
3.19368e-07
3.1532e-07
3.10781e-07
3.05972e-07
3.01173e-07
2.96707e-07
2.92709e-07
2.89317e-07
2.86571e-07
2.84456e-07
2.82922e-07
2.81908e-07
2.81354e-07
2.81232e-07
2.81552e-07
2.82362e-07
2.83834e-07
2.86037e-07
2.88959e-07
2.92734e-07
2.97499e-07
3.03407e-07
3.10634e-07
3.19353e-07
3.29699e-07
3.41677e-07
3.55293e-07
3.7026e-07
3.86143e-07
4.02257e-07
4.17779e-07
4.31837e-07
4.43599e-07
4.52448e-07
4.58064e-07
4.60666e-07
4.60373e-07
4.56907e-07
4.50932e-07
4.43287e-07
4.34727e-07
4.25974e-07
4.17676e-07
4.10199e-07
4.03568e-07
3.9778e-07
3.93317e-07
3.90248e-07
3.88133e-07
3.86766e-07
3.85592e-07
3.84229e-07
3.82246e-07
3.79563e-07
3.76168e-07
3.72112e-07
3.6768e-07
3.6327e-07
3.59276e-07
3.56059e-07
3.53912e-07
3.53025e-07
3.53535e-07
3.55488e-07
3.58797e-07
3.63688e-07
3.70235e-07
3.78449e-07
3.88251e-07
3.99496e-07
4.1191e-07
4.25422e-07
4.3952e-07
4.54055e-07
4.68579e-07
4.82895e-07
4.96802e-07
5.10141e-07
5.22664e-07
5.33982e-07
5.43574e-07
5.50797e-07
5.55047e-07
5.55666e-07
5.51683e-07
5.42594e-07
5.29044e-07
5.11948e-07
4.92584e-07
4.7235e-07
4.52572e-07
4.3404e-07
4.1753e-07
4.03452e-07
3.91784e-07
3.82503e-07
3.75353e-07
3.70034e-07
3.66276e-07
3.63855e-07
3.62585e-07
3.62285e-07
3.62865e-07
3.64189e-07
3.66047e-07
3.6842e-07
3.71209e-07
3.74203e-07
3.77301e-07
3.80368e-07
3.83306e-07
3.86076e-07
3.88698e-07
3.91266e-07
3.94001e-07
3.97186e-07
4.01087e-07
4.05962e-07
4.12071e-07
4.19637e-07
4.2863e-07
4.39091e-07
4.50848e-07
4.63485e-07
4.76423e-07
4.88963e-07
5.00393e-07
5.10177e-07
5.18304e-07
5.24613e-07
5.29674e-07
5.33956e-07
5.38059e-07
5.419e-07
5.45206e-07
6.14196e-10
9.52657e-10
1.79661e-09
4.42162e-09
1.11282e-08
2.55171e-08
5.10024e-08
8.78843e-08
1.25149e-07
1.53876e-07
1.74673e-07
1.89356e-07
2.00042e-07
2.08284e-07
2.14943e-07
2.2043e-07
2.24949e-07
2.28569e-07
2.31305e-07
2.33327e-07
2.34775e-07
2.35795e-07
2.36535e-07
2.37069e-07
2.3743e-07
2.37615e-07
2.3764e-07
2.37561e-07
2.37309e-07
2.36826e-07
2.36096e-07
2.3516e-07
2.34117e-07
2.33087e-07
2.32187e-07
2.31469e-07
2.30941e-07
2.30593e-07
2.30407e-07
2.30361e-07
2.30436e-07
2.30617e-07
2.30902e-07
2.31302e-07
2.31883e-07
2.32729e-07
2.33858e-07
2.35215e-07
2.36853e-07
2.38838e-07
2.41262e-07
2.44253e-07
2.47954e-07
2.52517e-07
2.58027e-07
2.64506e-07
2.7188e-07
2.79952e-07
2.88346e-07
2.96574e-07
3.04127e-07
3.10513e-07
3.15343e-07
3.18391e-07
3.19804e-07
3.19813e-07
3.18318e-07
3.15616e-07
3.1208e-07
3.08103e-07
3.04042e-07
3.00194e-07
2.96763e-07
2.93836e-07
2.9138e-07
2.89553e-07
2.88361e-07
2.87631e-07
2.87271e-07
2.87026e-07
2.86718e-07
2.86147e-07
2.85246e-07
2.84006e-07
2.82473e-07
2.80765e-07
2.79046e-07
2.77486e-07
2.76256e-07
2.75516e-07
2.75446e-07
2.76153e-07
2.77514e-07
2.79371e-07
2.81769e-07
2.84764e-07
2.88426e-07
2.92803e-07
2.97926e-07
3.03703e-07
3.10126e-07
3.16911e-07
3.23982e-07
3.31116e-07
3.38211e-07
3.45164e-07
3.51897e-07
3.58271e-07
3.64064e-07
3.6898e-07
3.72644e-07
3.74666e-07
3.74886e-07
3.72901e-07
3.68477e-07
3.61965e-07
3.53845e-07
3.44767e-07
3.35443e-07
3.26463e-07
3.18209e-07
3.1096e-07
3.04818e-07
2.99782e-07
2.95797e-07
2.92751e-07
2.90578e-07
2.89167e-07
2.88389e-07
2.88135e-07
2.88325e-07
2.88893e-07
2.89751e-07
2.90791e-07
2.91981e-07
2.93267e-07
2.94578e-07
2.95892e-07
2.97178e-07
2.984e-07
2.99562e-07
3.00674e-07
3.01785e-07
3.02987e-07
3.04389e-07
3.06103e-07
3.08232e-07
3.10902e-07
3.14264e-07
3.1829e-07
3.23012e-07
3.28496e-07
3.34559e-07
3.40886e-07
3.47102e-07
3.52798e-07
3.57667e-07
3.61618e-07
3.64589e-07
3.66862e-07
3.68752e-07
3.70533e-07
3.72137e-07
3.73421e-07
5.77421e-10
8.7829e-10
1.61474e-09
3.86922e-09
9.56904e-09
2.18666e-08
4.40748e-08
7.72782e-08
1.1335e-07
1.4073e-07
1.59403e-07
1.71393e-07
1.79221e-07
1.84707e-07
1.88987e-07
1.92582e-07
1.95711e-07
1.98459e-07
2.00849e-07
2.02976e-07
2.0489e-07
2.06639e-07
2.08291e-07
2.09881e-07
2.11412e-07
2.12871e-07
2.1425e-07
2.1555e-07
2.16746e-07
2.17807e-07
2.18718e-07
2.19495e-07
2.20166e-07
2.20771e-07
2.2135e-07
2.21915e-07
2.22469e-07
2.2301e-07
2.23535e-07
2.24046e-07
2.24551e-07
2.25064e-07
2.25617e-07
2.26221e-07
2.26902e-07
2.27662e-07
2.28493e-07
2.29376e-07
2.3031e-07
2.31294e-07
2.32358e-07
2.33555e-07
2.34958e-07
2.36666e-07
2.38775e-07
2.41383e-07
2.44501e-07
2.48082e-07
2.51972e-07
2.55923e-07
2.59629e-07
2.628e-07
2.65216e-07
2.66771e-07
2.67642e-07
2.67895e-07
2.67449e-07
2.6645e-07
2.65089e-07
2.63573e-07
2.6208e-07
2.60736e-07
2.59618e-07
2.58746e-07
2.58091e-07
2.57681e-07
2.57556e-07
2.57579e-07
2.57698e-07
2.57845e-07
2.57964e-07
2.57984e-07
2.5789e-07
2.577e-07
2.57456e-07
2.5722e-07
2.57104e-07
2.57244e-07
2.57674e-07
2.58393e-07
2.5936e-07
2.60503e-07
2.6175e-07
2.63075e-07
2.64473e-07
2.65985e-07
2.67671e-07
2.69601e-07
2.71842e-07
2.74376e-07
2.77244e-07
2.80263e-07
2.83416e-07
2.86589e-07
2.89718e-07
2.92756e-07
2.95671e-07
2.98396e-07
3.00841e-07
3.02849e-07
3.04227e-07
3.0489e-07
3.04766e-07
3.03554e-07
3.01173e-07
2.97831e-07
2.93796e-07
2.89422e-07
2.8508e-07
2.8103e-07
2.77463e-07
2.74556e-07
2.72311e-07
2.70723e-07
2.69791e-07
2.6937e-07
2.69323e-07
2.69541e-07
2.69932e-07
2.70426e-07
2.70976e-07
2.71562e-07
2.72156e-07
2.72686e-07
2.73241e-07
2.73833e-07
2.74443e-07
2.75055e-07
2.75665e-07
2.76276e-07
2.76886e-07
2.77484e-07
2.78093e-07
2.78753e-07
2.79473e-07
2.80312e-07
2.81286e-07
2.82442e-07
2.83864e-07
2.85521e-07
2.87449e-07
2.89661e-07
2.92119e-07
2.94678e-07
2.97178e-07
2.99423e-07
3.01286e-07
3.0276e-07
3.03974e-07
3.04968e-07
3.05914e-07
3.06979e-07
3.07796e-07
3.08348e-07
5.46552e-10
8.19481e-10
1.48326e-09
3.49858e-09
8.60291e-09
1.97438e-08
4.03747e-08
7.25275e-08
1.11203e-07
1.42149e-07
1.62997e-07
1.75601e-07
1.82776e-07
1.8706e-07
1.90051e-07
1.92505e-07
1.94717e-07
1.96874e-07
1.99003e-07
2.01181e-07
2.03361e-07
2.0553e-07
2.07685e-07
2.09802e-07
2.1185e-07
2.13785e-07
2.15603e-07
2.17267e-07
2.18737e-07
2.19995e-07
2.21038e-07
2.21902e-07
2.22632e-07
2.23258e-07
2.23813e-07
2.24308e-07
2.24762e-07
2.25179e-07
2.25563e-07
2.25936e-07
2.26318e-07
2.26717e-07
2.27145e-07
2.27613e-07
2.28168e-07
2.28802e-07
2.29504e-07
2.30255e-07
2.31031e-07
2.31804e-07
2.32576e-07
2.33364e-07
2.34187e-07
2.35089e-07
2.36101e-07
2.37293e-07
2.3875e-07
2.40478e-07
2.42415e-07
2.4445e-07
2.46432e-07
2.48178e-07
2.49546e-07
2.50479e-07
2.51126e-07
2.51505e-07
2.51559e-07
2.51344e-07
2.50954e-07
2.50485e-07
2.50022e-07
2.49624e-07
2.49324e-07
2.49127e-07
2.4901e-07
2.48992e-07
2.49112e-07
2.49283e-07
2.49484e-07
2.49693e-07
2.49888e-07
2.50041e-07
2.50148e-07
2.50241e-07
2.50356e-07
2.50528e-07
2.50791e-07
2.51271e-07
2.52012e-07
2.52985e-07
2.54136e-07
2.55405e-07
2.56699e-07
2.57955e-07
2.59134e-07
2.60234e-07
2.61293e-07
2.62393e-07
2.63594e-07
2.64921e-07
2.66419e-07
2.67987e-07
2.69635e-07
2.71305e-07
2.7296e-07
2.74582e-07
2.7615e-07
2.77614e-07
2.78864e-07
2.79809e-07
2.80338e-07
2.8044e-07
2.80105e-07
2.79198e-07
2.77701e-07
2.75742e-07
2.73454e-07
2.71037e-07
2.68722e-07
2.66623e-07
2.64876e-07
2.6356e-07
2.62611e-07
2.61962e-07
2.6173e-07
2.61825e-07
2.62143e-07
2.62599e-07
2.63133e-07
2.63706e-07
2.64296e-07
2.64882e-07
2.65424e-07
2.65864e-07
2.66274e-07
2.66637e-07
2.66963e-07
2.67284e-07
2.67619e-07
2.67961e-07
2.68317e-07
2.68666e-07
2.69013e-07
2.69474e-07
2.69976e-07
2.70596e-07
2.71303e-07
2.72045e-07
2.72944e-07
2.7384e-07
2.74792e-07
2.7589e-07
2.77112e-07
2.78402e-07
2.79698e-07
2.80859e-07
2.81806e-07
2.82507e-07
2.83053e-07
2.83473e-07
2.83888e-07
2.84395e-07
2.8478e-07
2.84873e-07
5.03841e-10
7.40322e-10
1.32039e-09
3.06748e-09
7.55357e-09
1.75801e-08
3.66604e-08
6.7454e-08
1.0816e-07
1.44134e-07
1.69298e-07
1.84333e-07
1.92724e-07
1.97374e-07
2.00249e-07
2.02398e-07
2.04218e-07
2.05951e-07
2.07677e-07
2.09472e-07
2.11288e-07
2.13133e-07
2.14991e-07
2.1679e-07
2.18484e-07
2.2005e-07
2.21475e-07
2.2273e-07
2.2379e-07
2.24633e-07
2.25266e-07
2.25736e-07
2.26082e-07
2.26331e-07
2.26552e-07
2.26794e-07
2.27059e-07
2.27386e-07
2.27767e-07
2.28175e-07
2.286e-07
2.29049e-07
2.29535e-07
2.3008e-07
2.30727e-07
2.31446e-07
2.32209e-07
2.32995e-07
2.33765e-07
2.34459e-07
2.35074e-07
2.35622e-07
2.36134e-07
2.36684e-07
2.37346e-07
2.3818e-07
2.39179e-07
2.40313e-07
2.41514e-07
2.42693e-07
2.43762e-07
2.44668e-07
2.45329e-07
2.45826e-07
2.46205e-07
2.46466e-07
2.46566e-07
2.46529e-07
2.46399e-07
2.46245e-07
2.46127e-07
2.4609e-07
2.46147e-07
2.46287e-07
2.46487e-07
2.46734e-07
2.47027e-07
2.47309e-07
2.47516e-07
2.47673e-07
2.47803e-07
2.47884e-07
2.4794e-07
2.48006e-07
2.48112e-07
2.48284e-07
2.4866e-07
2.4936e-07
2.50385e-07
2.5168e-07
2.53159e-07
2.54719e-07
2.56264e-07
2.57723e-07
2.59027e-07
2.60156e-07
2.61142e-07
2.62053e-07
2.62937e-07
2.63855e-07
2.6479e-07
2.65657e-07
2.66509e-07
2.67312e-07
2.68055e-07
2.68735e-07
2.69362e-07
2.69873e-07
2.7023e-07
2.70395e-07
2.70313e-07
2.70039e-07
2.69527e-07
2.6868e-07
2.67511e-07
2.66098e-07
2.64533e-07
2.62958e-07
2.61487e-07
2.602e-07
2.59182e-07
2.58445e-07
2.57928e-07
2.57803e-07
2.58013e-07
2.58468e-07
2.59064e-07
2.59755e-07
2.60496e-07
2.6125e-07
2.61994e-07
2.62693e-07
2.63306e-07
2.63753e-07
2.64135e-07
2.64483e-07
2.64822e-07
2.65149e-07
2.65485e-07
2.65834e-07
2.66198e-07
2.66551e-07
2.66902e-07
2.67364e-07
2.67884e-07
2.68522e-07
2.69257e-07
2.69955e-07
2.70732e-07
2.71346e-07
2.71871e-07
2.72357e-07
2.72772e-07
2.73097e-07
2.73346e-07
2.73546e-07
2.73708e-07
2.73819e-07
2.7391e-07
2.73984e-07
2.74128e-07
2.74394e-07
2.74625e-07
2.74636e-07
4.53014e-10
6.49887e-10
1.1378e-09
2.59967e-09
6.38784e-09
1.50561e-08
3.22462e-08
6.12027e-08
1.0226e-07
1.42623e-07
1.71921e-07
1.90571e-07
2.00436e-07
2.05647e-07
2.0856e-07
2.10474e-07
2.11944e-07
2.13269e-07
2.14576e-07
2.15936e-07
2.17344e-07
2.18805e-07
2.20303e-07
2.2174e-07
2.23059e-07
2.2425e-07
2.25305e-07
2.26202e-07
2.26923e-07
2.27477e-07
2.279e-07
2.28252e-07
2.28575e-07
2.28902e-07
2.29245e-07
2.29604e-07
2.30057e-07
2.30576e-07
2.31115e-07
2.31641e-07
2.3215e-07
2.3266e-07
2.33209e-07
2.33837e-07
2.34567e-07
2.35371e-07
2.36228e-07
2.37132e-07
2.38025e-07
2.38812e-07
2.39453e-07
2.39902e-07
2.40173e-07
2.40337e-07
2.40482e-07
2.40717e-07
2.41108e-07
2.41659e-07
2.42333e-07
2.43043e-07
2.43682e-07
2.44139e-07
2.44494e-07
2.44781e-07
2.45011e-07
2.4519e-07
2.45308e-07
2.45347e-07
2.45318e-07
2.45273e-07
2.45251e-07
2.45278e-07
2.45356e-07
2.45489e-07
2.45683e-07
2.45984e-07
2.46311e-07
2.46602e-07
2.4677e-07
2.46791e-07
2.46768e-07
2.46679e-07
2.46549e-07
2.46416e-07
2.46315e-07
2.46276e-07
2.46477e-07
2.47075e-07
2.48088e-07
2.4947e-07
2.5114e-07
2.53001e-07
2.54913e-07
2.56751e-07
2.58396e-07
2.59785e-07
2.60947e-07
2.61926e-07
2.62749e-07
2.63608e-07
2.64419e-07
2.65146e-07
2.65807e-07
2.66355e-07
2.66799e-07
2.67146e-07
2.67397e-07
2.67491e-07
2.67407e-07
2.67143e-07
2.66728e-07
2.66222e-07
2.65542e-07
2.64637e-07
2.63517e-07
2.6222e-07
2.6082e-07
2.59425e-07
2.58095e-07
2.56884e-07
2.55871e-07
2.55077e-07
2.54512e-07
2.54284e-07
2.54346e-07
2.54625e-07
2.5507e-07
2.55631e-07
2.56262e-07
2.5694e-07
2.57635e-07
2.583e-07
2.58916e-07
2.59392e-07
2.59768e-07
2.60069e-07
2.60334e-07
2.60604e-07
2.60897e-07
2.6121e-07
2.61538e-07
2.6186e-07
2.6221e-07
2.62726e-07
2.63374e-07
2.64177e-07
2.65144e-07
2.66134e-07
2.67191e-07
2.68072e-07
2.68836e-07
2.69504e-07
2.70011e-07
2.70309e-07
2.70406e-07
2.70408e-07
2.70381e-07
2.70333e-07
2.70277e-07
2.70216e-07
2.70221e-07
2.70309e-07
2.70382e-07
2.70338e-07
3.93328e-10
5.51922e-10
9.38384e-10
2.09445e-09
5.13674e-09
1.23201e-08
2.71204e-08
5.33823e-08
9.24862e-08
1.36844e-07
1.71096e-07
1.93778e-07
2.06907e-07
2.12842e-07
2.15529e-07
2.17079e-07
2.18104e-07
2.1899e-07
2.19861e-07
2.20791e-07
2.21813e-07
2.2296e-07
2.24208e-07
2.25462e-07
2.2663e-07
2.27707e-07
2.28695e-07
2.29576e-07
2.30324e-07
2.30919e-07
2.31388e-07
2.31774e-07
2.32068e-07
2.32271e-07
2.32435e-07
2.32721e-07
2.33106e-07
2.33525e-07
2.33925e-07
2.34283e-07
2.34611e-07
2.34953e-07
2.35363e-07
2.35894e-07
2.36574e-07
2.37393e-07
2.38322e-07
2.39377e-07
2.40495e-07
2.41583e-07
2.4252e-07
2.43215e-07
2.43598e-07
2.43671e-07
2.43544e-07
2.43408e-07
2.43348e-07
2.4343e-07
2.43624e-07
2.43853e-07
2.4408e-07
2.44325e-07
2.44549e-07
2.44718e-07
2.4483e-07
2.44911e-07
2.44944e-07
2.44885e-07
2.4476e-07
2.44615e-07
2.44505e-07
2.44462e-07
2.445e-07
2.44624e-07
2.44911e-07
2.45333e-07
2.45738e-07
2.46051e-07
2.46161e-07
2.46001e-07
2.45748e-07
2.45407e-07
2.45019e-07
2.44634e-07
2.44286e-07
2.44037e-07
2.44113e-07
2.44697e-07
2.45837e-07
2.47459e-07
2.49449e-07
2.51656e-07
2.53932e-07
2.56169e-07
2.58201e-07
2.59908e-07
2.61341e-07
2.62505e-07
2.63405e-07
2.64239e-07
2.64956e-07
2.65541e-07
2.66005e-07
2.66321e-07
2.66523e-07
2.66644e-07
2.66681e-07
2.66562e-07
2.66235e-07
2.65714e-07
2.65098e-07
2.64352e-07
2.63437e-07
2.6233e-07
2.61039e-07
2.59604e-07
2.58077e-07
2.56532e-07
2.54995e-07
2.53516e-07
2.52166e-07
2.51026e-07
2.50263e-07
2.49918e-07
2.49972e-07
2.50325e-07
2.50903e-07
2.51636e-07
2.52464e-07
2.53326e-07
2.54194e-07
2.54983e-07
2.5567e-07
2.56205e-07
2.56603e-07
2.56918e-07
2.57183e-07
2.57434e-07
2.57703e-07
2.57998e-07
2.58296e-07
2.58579e-07
2.58875e-07
2.59367e-07
2.60106e-07
2.61095e-07
2.62321e-07
2.63626e-07
2.64908e-07
2.65947e-07
2.66753e-07
2.67332e-07
2.67636e-07
2.67793e-07
2.67826e-07
2.67746e-07
2.67568e-07
2.67343e-07
2.67128e-07
2.66943e-07
2.6686e-07
2.66832e-07
2.66787e-07
2.66761e-07
3.27364e-10
4.51707e-10
7.43771e-10
1.61244e-09
3.90892e-09
9.44463e-09
2.14373e-08
4.39548e-08
8.0037e-08
1.25663e-07
1.64582e-07
1.92011e-07
2.09497e-07
2.19209e-07
2.23266e-07
2.24536e-07
2.25004e-07
2.25364e-07
2.25808e-07
2.26357e-07
2.27046e-07
2.27952e-07
2.29033e-07
2.30171e-07
2.31253e-07
2.32242e-07
2.33115e-07
2.33832e-07
2.34365e-07
2.34697e-07
2.34827e-07
2.34778e-07
2.3455e-07
2.34196e-07
2.33966e-07
2.33918e-07
2.33994e-07
2.34119e-07
2.34229e-07
2.34293e-07
2.34304e-07
2.34272e-07
2.34223e-07
2.34233e-07
2.34399e-07
2.34803e-07
2.3549e-07
2.36545e-07
2.37916e-07
2.39514e-07
2.41179e-07
2.42766e-07
2.44132e-07
2.45124e-07
2.45629e-07
2.45557e-07
2.45153e-07
2.44709e-07
2.44479e-07
2.44391e-07
2.44402e-07
2.44471e-07
2.44535e-07
2.4455e-07
2.44511e-07
2.44461e-07
2.44376e-07
2.44182e-07
2.43937e-07
2.43643e-07
2.43392e-07
2.43239e-07
2.43173e-07
2.43312e-07
2.43696e-07
2.44191e-07
2.44646e-07
2.4495e-07
2.44959e-07
2.44576e-07
2.44007e-07
2.43315e-07
2.42547e-07
2.4175e-07
2.4096e-07
2.40247e-07
2.39899e-07
2.40165e-07
2.41072e-07
2.4264e-07
2.44804e-07
2.47417e-07
2.5026e-07
2.53115e-07
2.55735e-07
2.57934e-07
2.5976e-07
2.61267e-07
2.62593e-07
2.63488e-07
2.64268e-07
2.64941e-07
2.65441e-07
2.65695e-07
2.65794e-07
2.6579e-07
2.65693e-07
2.65444e-07
2.64968e-07
2.64333e-07
2.63595e-07
2.6272e-07
2.61656e-07
2.60362e-07
2.58839e-07
2.57123e-07
2.55246e-07
2.53265e-07
2.51223e-07
2.49246e-07
2.47411e-07
2.45948e-07
2.45011e-07
2.44549e-07
2.44501e-07
2.44722e-07
2.45128e-07
2.45644e-07
2.46234e-07
2.46861e-07
2.47554e-07
2.48268e-07
2.48994e-07
2.49608e-07
2.50084e-07
2.50477e-07
2.50814e-07
2.51118e-07
2.51406e-07
2.51687e-07
2.51956e-07
2.522e-07
2.52452e-07
2.52924e-07
2.53715e-07
2.5494e-07
2.56503e-07
2.58247e-07
2.60019e-07
2.6156e-07
2.62853e-07
2.6386e-07
2.64487e-07
2.64878e-07
2.65059e-07
2.65028e-07
2.64837e-07
2.64579e-07
2.64319e-07
2.6407e-07
2.63939e-07
2.63883e-07
2.6384e-07
2.63872e-07
2.62975e-10
3.57429e-10
5.69844e-10
1.19414e-09
2.84712e-09
6.87898e-09
1.58821e-08
3.38438e-08
6.46658e-08
1.09175e-07
1.52463e-07
1.84543e-07
2.06102e-07
2.20031e-07
2.28054e-07
2.31704e-07
2.32774e-07
2.32994e-07
2.32846e-07
2.32866e-07
2.33115e-07
2.33606e-07
2.34328e-07
2.3517e-07
2.35973e-07
2.36654e-07
2.37149e-07
2.37425e-07
2.37445e-07
2.37178e-07
2.36614e-07
2.35726e-07
2.34518e-07
2.33261e-07
2.32179e-07
2.31299e-07
2.30585e-07
2.29958e-07
2.29315e-07
2.28557e-07
2.2763e-07
2.26558e-07
2.25487e-07
2.24584e-07
2.24021e-07
2.23967e-07
2.24507e-07
2.25762e-07
2.2768e-07
2.3012e-07
2.32845e-07
2.35602e-07
2.38157e-07
2.40373e-07
2.42193e-07
2.43705e-07
2.44745e-07
2.45181e-07
2.45047e-07
2.44713e-07
2.44398e-07
2.44236e-07
2.44114e-07
2.43949e-07
2.43722e-07
2.43488e-07
2.43231e-07
2.42838e-07
2.42321e-07
2.41748e-07
2.41203e-07
2.40743e-07
2.40452e-07
2.40569e-07
2.40975e-07
2.41489e-07
2.41976e-07
2.42217e-07
2.42063e-07
2.41372e-07
2.40385e-07
2.39221e-07
2.37916e-07
2.3651e-07
2.35041e-07
2.33585e-07
2.32523e-07
2.32214e-07
2.32645e-07
2.33862e-07
2.3597e-07
2.38843e-07
2.42306e-07
2.46142e-07
2.49977e-07
2.53435e-07
2.56307e-07
2.58556e-07
2.60268e-07
2.61576e-07
2.62564e-07
2.63365e-07
2.6394e-07
2.64269e-07
2.64365e-07
2.64264e-07
2.64006e-07
2.63621e-07
2.63053e-07
2.62324e-07
2.61464e-07
2.60464e-07
2.59235e-07
2.57723e-07
2.55895e-07
2.53809e-07
2.51529e-07
2.49191e-07
2.46829e-07
2.44202e-07
2.41721e-07
2.39739e-07
2.38387e-07
2.37574e-07
2.37235e-07
2.37245e-07
2.37548e-07
2.38075e-07
2.38759e-07
2.39507e-07
2.40301e-07
2.41119e-07
2.41866e-07
2.42497e-07
2.42917e-07
2.43206e-07
2.43511e-07
2.43846e-07
2.44152e-07
2.44344e-07
2.44441e-07
2.44526e-07
2.44698e-07
2.45245e-07
2.46227e-07
2.47665e-07
2.49502e-07
2.51675e-07
2.53909e-07
2.55917e-07
2.57607e-07
2.58917e-07
2.59858e-07
2.60561e-07
2.60968e-07
2.61097e-07
2.60986e-07
2.60721e-07
2.60425e-07
2.60154e-07
2.60004e-07
2.599e-07
2.59849e-07
2.60014e-07
2.00591e-10
2.68966e-10
4.17253e-10
8.46093e-10
1.98191e-09
4.77549e-09
1.11831e-08
2.45627e-08
4.92629e-08
8.82508e-08
1.34793e-07
1.71662e-07
1.97345e-07
2.14298e-07
2.25238e-07
2.3197e-07
2.35663e-07
2.37431e-07
2.38067e-07
2.38248e-07
2.3826e-07
2.38371e-07
2.38597e-07
2.38901e-07
2.39119e-07
2.39136e-07
2.3888e-07
2.38245e-07
2.37105e-07
2.35346e-07
2.32896e-07
2.29818e-07
2.26395e-07
2.23115e-07
2.20179e-07
2.17674e-07
2.15569e-07
2.13749e-07
2.12066e-07
2.10393e-07
2.08686e-07
2.06982e-07
2.05416e-07
2.04146e-07
2.03376e-07
2.0331e-07
2.04069e-07
2.05908e-07
2.08882e-07
2.12844e-07
2.17469e-07
2.22299e-07
2.26817e-07
2.30703e-07
2.33948e-07
2.3679e-07
2.39251e-07
2.41227e-07
2.42635e-07
2.43407e-07
2.43568e-07
2.43281e-07
2.42839e-07
2.42362e-07
2.41848e-07
2.41332e-07
2.40744e-07
2.39934e-07
2.38942e-07
2.3785e-07
2.36751e-07
2.35737e-07
2.35197e-07
2.3521e-07
2.35597e-07
2.36142e-07
2.36679e-07
2.36825e-07
2.36423e-07
2.35319e-07
2.3383e-07
2.32112e-07
2.30196e-07
2.28114e-07
2.25757e-07
2.23106e-07
2.2059e-07
2.1873e-07
2.17848e-07
2.1814e-07
2.19844e-07
2.22854e-07
2.27025e-07
2.3221e-07
2.37851e-07
2.43261e-07
2.47924e-07
2.51584e-07
2.54304e-07
2.56278e-07
2.57835e-07
2.59081e-07
2.60021e-07
2.60651e-07
2.60994e-07
2.61079e-07
2.60949e-07
2.6065e-07
2.60167e-07
2.59446e-07
2.58519e-07
2.57373e-07
2.5592e-07
2.54102e-07
2.51884e-07
2.4933e-07
2.46407e-07
2.43253e-07
2.39962e-07
2.36474e-07
2.3307e-07
2.30346e-07
2.28203e-07
2.26579e-07
2.25448e-07
2.2475e-07
2.24488e-07
2.24645e-07
2.25191e-07
2.26027e-07
2.27181e-07
2.28577e-07
2.30071e-07
2.31522e-07
2.32685e-07
2.33458e-07
2.34028e-07
2.34438e-07
2.34672e-07
2.34738e-07
2.34708e-07
2.34662e-07
2.34739e-07
2.35317e-07
2.36468e-07
2.38226e-07
2.40547e-07
2.43287e-07
2.46085e-07
2.48713e-07
2.50925e-07
2.52628e-07
2.53919e-07
2.54912e-07
2.55555e-07
2.55832e-07
2.55824e-07
2.5562e-07
2.55352e-07
2.55112e-07
2.54972e-07
2.54862e-07
2.54885e-07
2.55249e-07
1.38789e-10
1.84743e-10
2.82661e-10
5.59836e-10
1.29366e-09
3.11385e-09
7.4002e-09
1.67793e-08
3.5271e-08
6.71214e-08
1.12186e-07
1.53857e-07
1.83948e-07
2.04057e-07
2.16979e-07
2.25204e-07
2.30259e-07
2.33054e-07
2.34427e-07
2.34954e-07
2.35034e-07
2.34843e-07
2.34439e-07
2.33852e-07
2.33049e-07
2.3198e-07
2.30537e-07
2.28493e-07
2.25646e-07
2.2188e-07
2.17183e-07
2.11732e-07
2.06057e-07
2.00625e-07
1.95667e-07
1.91369e-07
1.87752e-07
1.84706e-07
1.82085e-07
1.79747e-07
1.77588e-07
1.75587e-07
1.73802e-07
1.72372e-07
1.71501e-07
1.71485e-07
1.72522e-07
1.75145e-07
1.79648e-07
1.85822e-07
1.93181e-07
2.01055e-07
2.08782e-07
2.15787e-07
2.21646e-07
2.26493e-07
2.30396e-07
2.33544e-07
2.36049e-07
2.37951e-07
2.39207e-07
2.39799e-07
2.39791e-07
2.39276e-07
2.38422e-07
2.3748e-07
2.3641e-07
2.3505e-07
2.33381e-07
2.31518e-07
2.29629e-07
2.27946e-07
2.26982e-07
2.26652e-07
2.26765e-07
2.27114e-07
2.27479e-07
2.27429e-07
2.26737e-07
2.25182e-07
2.23055e-07
2.20489e-07
2.17336e-07
2.13483e-07
2.09021e-07
2.04136e-07
1.99541e-07
1.96024e-07
1.93894e-07
1.93375e-07
1.94767e-07
1.9804e-07
2.03158e-07
2.10197e-07
2.18399e-07
2.26808e-07
2.34528e-07
2.40809e-07
2.45433e-07
2.48704e-07
2.51179e-07
2.53135e-07
2.54617e-07
2.55655e-07
2.56298e-07
2.56602e-07
2.56633e-07
2.56443e-07
2.56057e-07
2.55379e-07
2.54398e-07
2.53091e-07
2.51381e-07
2.49185e-07
2.46463e-07
2.43245e-07
2.39438e-07
2.35152e-07
2.30403e-07
2.25266e-07
2.20117e-07
2.15564e-07
2.11446e-07
2.07796e-07
2.047e-07
2.02226e-07
2.00522e-07
1.99691e-07
1.9979e-07
2.0076e-07
2.02556e-07
2.05003e-07
2.07899e-07
2.11096e-07
2.14247e-07
2.17027e-07
2.19315e-07
2.2103e-07
2.22165e-07
2.22802e-07
2.23088e-07
2.2314e-07
2.23174e-07
2.23735e-07
2.2501e-07
2.27117e-07
2.29956e-07
2.3334e-07
2.36865e-07
2.40213e-07
2.43046e-07
2.45207e-07
2.46873e-07
2.4818e-07
2.49046e-07
2.49432e-07
2.49428e-07
2.49179e-07
2.48835e-07
2.48573e-07
2.48438e-07
2.48352e-07
2.48582e-07
2.49254e-07
9.69301e-11
1.30134e-10
2.00313e-10
3.95403e-10
9.12514e-10
2.205e-09
5.31166e-09
1.23441e-08
2.69016e-08
5.341e-08
9.43947e-08
1.3892e-07
1.72402e-07
1.95286e-07
2.0994e-07
2.19044e-07
2.24618e-07
2.27724e-07
2.29267e-07
2.29841e-07
2.29826e-07
2.29369e-07
2.28542e-07
2.27414e-07
2.26015e-07
2.2432e-07
2.2219e-07
2.19347e-07
2.15593e-07
2.10793e-07
2.04983e-07
1.98311e-07
1.91311e-07
1.84441e-07
1.78059e-07
1.72371e-07
1.67349e-07
1.62832e-07
1.58662e-07
1.54703e-07
1.50823e-07
1.46981e-07
1.43217e-07
1.39743e-07
1.37003e-07
1.35681e-07
1.36492e-07
1.39822e-07
1.46055e-07
1.55081e-07
1.66156e-07
1.78134e-07
1.89722e-07
1.9997e-07
2.0866e-07
2.15977e-07
2.21749e-07
2.26201e-07
2.29659e-07
2.32362e-07
2.34347e-07
2.35545e-07
2.35986e-07
2.35792e-07
2.35108e-07
2.34152e-07
2.32853e-07
2.31157e-07
2.29008e-07
2.26558e-07
2.2403e-07
2.21719e-07
2.20007e-07
2.18799e-07
2.18004e-07
2.17612e-07
2.17383e-07
2.16927e-07
2.15893e-07
2.14021e-07
2.11559e-07
2.08473e-07
2.04577e-07
1.9984e-07
1.94385e-07
1.8852e-07
1.82824e-07
1.77758e-07
1.73485e-07
1.70392e-07
1.69079e-07
1.71162e-07
1.77078e-07
1.86291e-07
1.97603e-07
2.09488e-07
2.20472e-07
2.29616e-07
2.36602e-07
2.41459e-07
2.44945e-07
2.47675e-07
2.49762e-07
2.51297e-07
2.52344e-07
2.52959e-07
2.53211e-07
2.53163e-07
2.52868e-07
2.52251e-07
2.51246e-07
2.49839e-07
2.47964e-07
2.45515e-07
2.42437e-07
2.38736e-07
2.343e-07
2.29165e-07
2.23324e-07
2.17011e-07
2.106e-07
2.04652e-07
1.98963e-07
1.93513e-07
1.88241e-07
1.83108e-07
1.78297e-07
1.74216e-07
1.71481e-07
1.70608e-07
1.71999e-07
1.75672e-07
1.80776e-07
1.86534e-07
1.92308e-07
1.97602e-07
2.02149e-07
2.05841e-07
2.08598e-07
2.10427e-07
2.11466e-07
2.11908e-07
2.12103e-07
2.12749e-07
2.14232e-07
2.16714e-07
2.20099e-07
2.24211e-07
2.28597e-07
2.32786e-07
2.36352e-07
2.39078e-07
2.41198e-07
2.4289e-07