/*--------------------------------*- C++ -*----------------------------------*\
| =========                 |                                                 |
| \\      /  F ield         | OpenFOAM: The Open Source CFD Toolbox           |
|  \\    /   O peration     | Version:  v1912                                 |
|   \\  /    A nd           | Website:  www.openfoam.com                      |
|    \\/     M anipulation  |                                                 |
\*---------------------------------------------------------------------------*/
FoamFile
{
    version     2.0;
    format      ascii;
    class       volVectorField;
    location    "100";
    object      U;
}
// * * * * * * * * * * * * * * * * * * * * * * * * * * * * * * * * * * * * * //

dimensions      [0 1 -1 0 0 0 0];


internalField   nonuniform List<vector> 
14268
(
(0.277256 0.0280605 0)
(0.149832 0.0318755 0)
(0.00913789 0.0341119 0)
(-0.13791 0.0347918 0)
(-0.284724 0.0339863 0)
(-0.425131 0.0318442 0)
(-0.553894 0.0285482 0)
(-0.666461 0.0242654 0)
(-0.758887 0.0191219 0)
(-0.827659 0.0131975 0)
(-0.869524 0.0065418 0)
(-0.881472 -0.000838247 0)
(-0.860796 -0.00881139 0)
(-0.80537 -0.0171954 0)
(-0.713978 -0.025711 0)
(-0.586773 -0.033969 0)
(-0.425657 -0.0415375 0)
(-0.234556 -0.0479343 0)
(-0.0193303 -0.0526674 0)
(0.212577 -0.0554989 0)
(0.45184 -0.0561083 0)
(0.688333 -0.0543338 0)
(0.912115 -0.0502039 0)
(1.11375 -0.0439515 0)
(1.28494 -0.0359338 0)
(1.41902 -0.0265756 0)
(1.51117 -0.0163284 0)
(1.5585 -0.0056316 0)
(1.55989 0.00511731 0)
(1.51586 0.0155454 0)
(1.42821 0.0254023 0)
(1.29994 0.0344297 0)
(1.135 0.0424033 0)
(0.938235 0.0491195 0)
(0.71538 0.0543923 0)
(0.472929 0.058053 0)
(0.217901 0.0599736 0)
(-0.0417001 0.0601576 0)
(-0.297931 0.0585866 0)
(-0.543668 0.0552918 0)
(-0.77208 0.0505268 0)
(-0.977491 0.0446167 0)
(-1.15576 0.0379435 0)
(-1.30438 0.0308903 0)
(-1.42245 0.0237848 0)
(-1.51036 0.0168922 0)
(-1.5694 0.010382 0)
(-1.6012 0.0042937 0)
(-1.60738 -0.00147236 0)
(-1.58901 -0.00704261 0)
(-1.54661 -0.0125648 0)
(-1.48011 -0.0181429 0)
(-1.38923 -0.0237871 0)
(-1.27385 -0.0293911 0)
(-1.13456 -0.0347383 0)
(-0.973074 -0.0395323 0)
(-0.792493 -0.0434469 0)
(-0.597326 -0.0461721 0)
(-0.393154 -0.0474425 0)
(-0.185988 -0.0472176 0)
(0.01769 -0.0456808 0)
(0.211911 -0.0431157 0)
(0.393063 -0.0397578 0)
(0.55888 -0.0360653 0)
(0.708716 -0.0324536 0)
(0.843651 -0.0292458 0)
(0.965896 -0.0266012 0)
(1.07809 -0.0245564 0)
(1.18257 -0.0229939 0)
(1.28064 -0.0216041 0)
(1.37211 -0.0199686 0)
(1.45508 -0.0176692 0)
(1.526 -0.0143963 0)
(1.58007 -0.00995773 0)
(1.61183 -0.00426453 0)
(1.61575 0.00266181 0)
(1.58717 0.0104813 0)
(1.52244 0.0189251 0)
(1.41976 0.0275681 0)
(1.27907 0.0359987 0)
(1.10209 0.0438317 0)
(0.892116 0.0507354 0)
(0.653866 0.0564374 0)
(0.393055 0.060726 0)
(0.116307 0.0634268 0)
(-0.169247 0.0645733 0)
(-0.455688 0.0637035 0)
(-0.734458 0.0609365 0)
(-0.996799 0.0561872 0)
(-1.2338 0.0494527 0)
(-1.43664 0.0408396 0)
(-1.59732 0.0305825 0)
(-1.70918 0.019059 0)
(-1.7674 0.00694617 0)
(-1.77043 -0.00552801 0)
(-1.71877 -0.017264 0)
(-1.61721 -0.0276467 0)
(-1.47315 -0.0360502 0)
(-1.29673 -0.0419888 0)
(-1.09988 -0.0451968 0)
(-0.894895 -0.0456072 0)
(-0.692862 -0.0435822 0)
(-0.503138 -0.0397242 0)
(-0.332883 -0.0347352 0)
(-0.185993 -0.0294442 0)
(-0.0613303 -0.024556 0)
(0.0419641 -0.0210569 0)
(0.130631 -0.0187914 0)
(0.215105 -0.0182235 0)
(0.300553 -0.0192742 0)
(0.393714 -0.0215205 0)
(0.498956 -0.0243981 0)
(0.61752 -0.0272258 0)
(0.74725 -0.0293133 0)
(0.883051 -0.0299125 0)
(1.01796 -0.0286836 0)
(1.14356 -0.0255324 0)
(1.2506 -0.0204579 0)
(1.33055 -0.013739 0)
(1.37681 -0.00583543 0)
(1.38452 0.00278319 0)
(1.35297 0.0111295 0)
(1.28279 0.019116 0)
(1.17755 0.0261267 0)
(1.04239 0.0319028 0)
(0.883107 0.0363643 0)
(0.705814 0.0395804 0)
(0.51572 0.0417396 0)
(0.317089 0.0430636 0)
(0.113394 0.0437807 0)
(-0.0938461 0.0442807 0)
(-0.303156 0.0443859 0)
(-0.512443 0.0442245 0)
(-0.720138 0.0436214 0)
(-0.923335 0.0423158 0)
(-1.11796 0.0399267 0)
(-1.29894 0.0362648 0)
(-1.45986 0.031347 0)
(-1.59441 0.0250667 0)
(-1.69621 0.0174899 0)
(-1.75892 0.00885701 0)
(-1.77941 -0.000917179 0)
(-1.7513 -0.010895 0)
(-1.67613 -0.0209403 0)
(-1.5537 -0.0306214 0)
(-1.38655 -0.0395148 0)
(-1.17962 -0.0471446 0)
(-0.939323 -0.0532321 0)
(-0.673381 -0.0576668 0)
(-0.390318 -0.0603444 0)
(-0.0944334 -0.0611412 0)
(0.201045 -0.0602175 0)
(0.486697 -0.0575594 0)
(0.75779 -0.0532137 0)
(1.00448 -0.0472831 0)
(1.21971 -0.0399099 0)
(1.39644 -0.0314 0)
(1.52988 -0.0221242 0)
(1.61714 -0.0124984 0)
(1.65662 -0.00318721 0)
(1.65288 0.00473267 0)
(1.61305 0.0115397 0)
(1.54098 0.0170123 0)
(1.44751 0.0205918 0)
(0.279968 0.0731595 0)
(0.15191 0.0830836 0)
(0.0101343 0.0889218 0)
(-0.137957 0.0906813 0)
(-0.285734 0.0885637 0)
(-0.426986 0.0829684 0)
(-0.556471 0.0743718 0)
(-0.669659 0.0632079 0)
(-0.762638 0.0498021 0)
(-0.831923 0.0343592 0)
(-0.87429 0.017008 0)
(-0.886698 -0.00217041 0)
(-0.866378 -0.0228885 0)
(-0.811151 -0.0446898 0)
(-0.719731 -0.0668694 0)
(-0.592214 -0.0884643 0)
(-0.43047 -0.108292 0)
(-0.238403 -0.125061 0)
(-0.0219598 -0.137524 0)
(0.211358 -0.144928 0)
(0.452203 -0.146477 0)
(0.690328 -0.141808 0)
(0.915651 -0.131036 0)
(1.11862 -0.114744 0)
(1.29088 -0.0938383 0)
(1.42571 -0.0694256 0)
(1.51832 -0.042686 0)
(1.56581 -0.0147693 0)
(1.5671 0.0132923 0)
(1.52277 0.0405352 0)
(1.43465 0.0662963 0)
(1.30574 0.0899056 0)
(1.14001 0.11079 0)
(0.942341 0.128418 0)
(0.718452 0.142294 0)
(0.474864 0.151966 0)
(0.218654 0.157089 0)
(-0.0421368 0.15761 0)
(-0.299561 0.153476 0)
(-0.546396 0.144848 0)
(-0.775707 0.132362 0)
(-0.981772 0.11685 0)
(-1.16043 0.0993198 0)
(-1.30919 0.080796 0)
(-1.4272 0.0621879 0)
(-1.51489 0.044183 0)
(-1.57365 0.0271744 0)
(-1.60519 0.0112535 0)
(-1.6112 -0.0038353 0)
(-1.59275 -0.0184194 0)
(-1.55036 -0.032891 0)
(-1.48393 -0.0475243 0)
(-1.39308 -0.0623527 0)
(-1.27762 -0.077104 0)
(-1.13806 -0.0912075 0)
(-0.976099 -0.10387 0)
(-0.794813 -0.114212 0)
(-0.598736 -0.121418 0)
(-0.393543 -0.124868 0)
(-0.185408 -0.124409 0)
(0.0190757 -0.120403 0)
(0.213924 -0.113604 0)
(0.395465 -0.104737 0)
(0.561364 -0.0949825 0)
(0.711023 -0.0854302 0)
(0.845612 -0.0769157 0)
(0.967442 -0.0699762 0)
(1.07925 -0.0646914 0)
(1.18349 -0.0606544 0)
(1.28158 -0.0570533 0)
(1.37336 -0.0528277 0)
(1.4569 -0.0468882 0)
(1.52856 -0.0383207 0)
(1.58348 -0.0265583 0)
(1.61611 -0.0114517 0)
(1.62078 0.00688465 0)
(1.59273 0.0276099 0)
(1.52829 0.0500081 0)
(1.42561 0.0729524 0)
(1.28465 0.0953501 0)
(1.10716 0.116179 0)
(0.89647 0.134559 0)
(0.657342 0.149767 0)
(0.395523 0.161239 0)
(0.117725 0.168512 0)
(-0.169029 0.171605 0)
(-0.456798 0.169422 0)
(-0.736879 0.162177 0)
(-1.00057 0.149645 0)
(-1.2389 0.131812 0)
(-1.44296 0.108953 0)
(-1.60465 0.0816785 0)
(-1.7172 0.0509658 0)
(-1.77577 0.0185302 0)
(-1.77869 -0.0146973 0)
(-1.72636 -0.0460651 0)
(-1.62368 -0.0738596 0)
(-1.47812 -0.0963793 0)
(-1.29992 -0.112303 0)
(-1.10117 -0.120906 0)
(-0.89438 -0.122139 0)
(-0.690878 -0.116848 0)
(-0.500134 -0.106553 0)
(-0.329388 -0.0931935 0)
(-0.182536 -0.0789915 0)
(-0.0584995 -0.0658679 0)
(0.043878 -0.0563364 0)
(0.131537 -0.0503211 0)
(0.21485 -0.0488467 0)
(0.29931 -0.0516981 0)
(0.391827 -0.0577996 0)
(0.496856 -0.0656154 0)
(0.615683 -0.0732908 0)
(0.74618 -0.0789399 0)
(0.883131 -0.0807363 0)
(1.01934 -0.0775917 0)
(1.14627 -0.0691725 0)
(1.25455 -0.0555218 0)
(1.33549 -0.0373905 0)
(1.3824 -0.0160264 0)
(1.39031 0.00724343 0)
(1.35859 0.0299662 0)
(1.28793 0.051643 0)
(1.18195 0.0706851 0)
(1.04593 0.086396 0)
(0.885801 0.0985568 0)
(0.707747 0.107351 0)
(0.517032 0.11329 0)
(0.317935 0.117001 0)
(0.113994 0.119137 0)
(-0.0934175 0.120415 0)
(-0.302921 0.120869 0)
(-0.512416 0.120523 0)
(-0.720475 0.118946 0)
(-0.924267 0.115489 0)
(-1.11969 0.109292 0)
(-1.30153 0.0996233 0)
(-1.46336 0.0862544 0)
(-1.59886 0.0691413 0)
(-1.70166 0.0483598 0)
(-1.76511 0.0249913 0)
(-1.78605 -0.00179729 0)
(-1.75819 -0.0292271 0)
(-1.68301 -0.0568885 0)
(-1.56026 -0.083563 0)
(-1.39246 -0.108116 0)
(-1.18464 -0.129284 0)
(-0.943309 -0.146305 0)
(-0.676254 -0.158837 0)
(-0.391998 -0.166703 0)
(-0.094926 -0.169326 0)
(0.201723 -0.167159 0)
(0.488517 -0.160195 0)
(0.760736 -0.148502 0)
(1.00848 -0.132347 0)
(1.22466 -0.11211 0)
(1.40213 -0.0886137 0)
(1.53604 -0.0628674 0)
(1.62338 -0.0360443 0)
(1.6625 -0.00994116 0)
(1.65818 0.0122337 0)
(1.61749 0.0313987 0)
(1.54434 0.0468545 0)
(1.44976 0.0570915 0)
(0.285611 0.119355 0)
(0.155869 0.135502 0)
(0.0120271 0.145018 0)
(-0.138074 0.147838 0)
(-0.287697 0.144328 0)
(-0.430562 0.135165 0)
(-0.561427 0.121133 0)
(-0.675804 0.10294 0)
(-0.769841 0.0811132 0)
(-0.84011 0.0559772 0)
(-0.883405 0.0277359 0)
(-0.896658 -0.00341825 0)
(-0.877016 -0.0370845 0)
(-0.822187 -0.07255 0)
(-0.730757 -0.108684 0)
(-0.602688 -0.143944 0)
(-0.43975 -0.176398 0)
(-0.245844 -0.203927 0)
(-0.0270307 -0.224487 0)
(0.209068 -0.236625 0)
(0.452975 -0.23911 0)
(0.694206 -0.231442 0)
(0.922455 -0.213857 0)
(1.12797 -0.18728 0)
(1.30228 -0.15317 0)
(1.43857 -0.113332 0)
(1.53205 -0.0696994 0)
(1.57987 -0.0241529 0)
(1.58099 0.0216304 0)
(1.53608 0.0660996 0)
(1.44704 0.10816 0)
(1.31692 0.146728 0)
(1.14971 0.180887 0)
(0.950298 0.209775 0)
(0.724423 0.232565 0)
(0.47864 0.248509 0)
(0.220115 0.257018 0)
(-0.0430338 0.257893 0)
(-0.302778 0.251054 0)
(-0.551725 0.236865 0)
(-0.782781 0.216362 0)
(-0.990123 0.190944 0)
(-1.16953 0.16223 0)
(-1.31855 0.131897 0)
(-1.43639 0.101463 0)
(-1.52365 0.0720566 0)
(-1.58186 0.0442959 0)
(-1.61291 0.0183199 0)
(-1.61858 -0.00629566 0)
(-1.59999 -0.0300859 0)
(-1.55764 -0.0537176 0)
(-1.49133 -0.0776506 0)
(-1.40055 -0.101951 0)
(-1.28494 -0.12618 0)
(-1.14489 -0.149396 0)
(-0.981981 -0.170276 0)
(-0.799312 -0.187347 0)
(-0.601489 -0.199263 0)
(-0.394352 -0.205077 0)
(-0.184296 -0.204479 0)
(0.0218435 -0.197905 0)
(0.217946 -0.186582 0)
(0.400232 -0.17189 0)
(0.566293 -0.155741 0)
(0.715616 -0.139927 0)
(0.8495 -0.12591 0)
(0.970453 -0.1146 0)
(1.08149 -0.106069 0)
(1.18529 -0.0995838 0)
(1.28341 -0.0938048 0)
(1.37578 -0.0870205 0)
(1.46044 -0.0774504 0)
(1.53363 -0.0635376 0)
(1.59025 -0.0442613 0)
(1.62456 -0.0192805 0)
(1.6307 0.0109556 0)
(1.60371 0.0451928 0)
(1.53984 0.0822353 0)
(1.43717 0.120209 0)
(1.29568 0.157295 0)
(1.11717 0.191797 0)
(0.905059 0.222261 0)
(0.664186 0.247492 0)
(0.400366 0.266564 0)
(0.120441 0.27872 0)
(-0.168695 0.283804 0)
(-0.459068 0.280461 0)
(-0.741783 0.268605 0)
(-1.00818 0.247999 0)
(-1.24916 0.218574 0)
(-1.45566 0.180763 0)
(-1.61939 0.135565 0)
(-1.73338 0.0845731 0)
(-1.79259 0.0304885 0)
(-1.7952 -0.02462 0)
(-1.74154 -0.0767909 0)
(-1.6366 -0.123052 0)
(-1.48798 -0.160531 0)
(-1.30619 -0.186999 0)
(-1.10367 -0.201233 0)
(-0.893314 -0.20332 0)
(-0.686826 -0.194533 0)
(-0.49399 -0.177297 0)
(-0.322239 -0.154923 0)
(-0.175467 -0.131116 0)
(-0.0526238 -0.109058 0)
(0.0478714 -0.0931063 0)
(0.133384 -0.0830698 0)
(0.21438 -0.0807238 0)
(0.296857 -0.0856019 0)
(0.388068 -0.0959712 0)
(0.492684 -0.109228 0)
(0.612084 -0.122229 0)
(0.744095 -0.131782 0)
(0.883316 -0.135053 0)
(1.0222 -0.130035 0)
(1.1519 -0.116039 0)
(1.26273 -0.0932091 0)
(1.34569 -0.0628184 0)
(1.39389 -0.0269793 0)
(1.40225 0.0120076 0)
(1.37017 0.0502639 0)
(1.29845 0.0866699 0)
(1.19093 0.118622 0)
(1.05312 0.144949 0)
(0.891193 0.165287 0)
(0.711543 0.179962 0)
(0.519541 0.189851 0)
(0.319512 0.196051 0)
(0.114955 0.199732 0)
(-0.0928541 0.201703 0)
(-0.302717 0.202592 0)
(-0.512727 0.202078 0)
(-0.721579 0.199474 0)
(-0.926536 0.193737 0)
(-1.12355 0.183617 0)
(-1.30733 0.167809 0)
(-1.47118 0.145379 0)
(-1.60867 0.116464 0)
(-1.71334 0.0810335 0)
(-1.77819 0.0418998 0)
(-1.80005 -0.00312143 0)
(-1.77258 -0.0494766 0)
(-1.69717 -0.0961754 0)
(-1.57357 -0.141162 0)
(-1.40434 -0.182532 0)
(-1.19459 -0.218167 0)
(-0.951061 -0.246819 0)
(-0.681685 -0.267915 0)
(-0.394913 -0.281258 0)
(-0.0952409 -0.285706 0)
(0.20391 -0.282056 0)
(0.493151 -0.270334 0)
(0.767781 -0.2506 0)
(1.01777 -0.223291 0)
(1.23591 -0.189047 0)
(1.41489 -0.149242 0)
(1.54967 -0.105595 0)
(1.63706 -0.0600838 0)
(1.67526 -0.0158401 0)
(1.66954 0.0216152 0)
(1.62673 0.054225 0)
(1.55099 0.0803732 0)
(1.45378 0.0976131 0)
(0.294125 0.166227 0)
(0.161719 0.188689 0)
(0.0148041 0.201879 0)
(-0.138286 0.205695 0)
(-0.290638 0.200696 0)
(-0.435882 0.187863 0)
(-0.568772 0.168314 0)
(-0.684889 0.143046 0)
(-0.780478 0.112791 0)
(-0.852193 0.0779835 0)
(-0.896858 0.0388801 0)
(-0.911363 -0.00427706 0)
(-0.89274 -0.0509704 0)
(-0.838517 -0.100236 0)
(-0.747079 -0.150504 0)
(-0.618207 -0.1996 0)
(-0.453542 -0.244862 0)
(-0.256947 -0.283375 0)
(-0.0345838 -0.312231 0)
(0.205659 -0.329255 0)
(0.454127 -0.332767 0)
(0.699969 -0.322097 0)
(0.932555 -0.297591 0)
(1.14186 -0.26055 0)
(1.31918 -0.213025 0)
(1.45764 -0.157549 0)
(1.55239 -0.0968314 0)
(1.60067 -0.0334972 0)
(1.60153 0.0301238 0)
(1.55577 0.0918967 0)
(1.46538 0.150306 0)
(1.33347 0.203869 0)
(1.16407 0.251329 0)
(0.962088 0.2915 0)
(0.733279 0.323228 0)
(0.484247 0.345457 0)
(0.222276 0.357345 0)
(-0.0443979 0.358537 0)
(-0.307606 0.348899 0)
(-0.55969 0.329031 0)
(-0.79331 0.300397 0)
(-1.00251 0.264945 0)
(-1.18303 0.224935 0)
(-1.33241 0.182709 0)
(-1.45 0.140378 0)
(-1.53661 0.0995333 0)
(-1.59401 0.061057 0)
(-1.6243 0.0251397 0)
(-1.62945 -0.00884915 0)
(-1.61066 -0.0416775 0)
(-1.56838 -0.074324 0)
(-1.50227 -0.107464 0)
(-1.41161 -0.141211 0)
(-1.29581 -0.174955 0)
(-1.15503 -0.207369 0)
(-0.990739 -0.236583 0)
(-0.806017 -0.260507 0)
(-0.605596 -0.277227 0)
(-0.395559 -0.285396 0)
(-0.18262 -0.284556 0)
(0.0260247 -0.27526 0)
(0.224012 -0.259211 0)
(0.407399 -0.238466 0)
(0.573692 -0.215709 0)
(0.722468 -0.193509 0)
(0.855246 -0.174001 0)
(0.974882 -0.158367 0)
(1.08476 -0.146682 0)
(1.18789 -0.137934 0)
(1.28606 -0.130225 0)
(1.3793 -0.121126 0)
(1.4656 -0.108121 0)
(1.54104 -0.0890518 0)
(1.60026 -0.0624611 0)
(1.63713 -0.0278294 0)
(1.64545 0.0142533 0)
(1.62005 0.062068 0)
(1.55703 0.113823 0)
(1.45437 0.166874 0)
(1.31208 0.218668 0)
(1.13205 0.266836 0)
(0.917814 0.309353 0)
(0.674345 0.34457 0)
(0.407555 0.371211 0)
(0.124444 0.38824 0)
(-0.168191 0.39523 0)
(-0.462402 0.390843 0)
(-0.749064 0.37459 0)
(-1.01948 0.346039 0)
(-1.26442 0.305099 0)
(-1.47456 0.252435 0)
(-1.64135 0.189386 0)
(-1.75752 0.118164 0)
(-1.81767 0.0424419 0)
(-1.8198 -0.0346865 0)
(-1.76418 -0.107759 0)
(-1.65586 -0.172565 0)
(-1.50267 -0.225043 0)
(-1.31549 -0.262027 0)
(-1.10732 -0.281771 0)
(-0.891628 -0.28445 0)
(-0.680661 -0.271828 0)
(-0.484683 -0.247299 0)
(-0.311432 -0.215555 0)
(-0.16476 -0.181815 0)
(-0.0437971 -0.150561 0)
(0.0538433 -0.128081 0)
(0.136174 -0.113939 0)
(0.213641 -0.110798 0)
(0.293126 -0.117899 0)
(0.382362 -0.132811 0)
(0.486354 -0.151834 0)
(0.606617 -0.170502 0)
(0.740898 -0.184288 0)
(0.883516 -0.189247 0)
(1.02644 -0.182534 0)
(1.16029 -0.163071 0)
(1.27495 -0.131105 0)
(1.36094 -0.0884536 0)
(1.41104 -0.0381222 0)
(1.42006 0.0166273 0)
(1.38743 0.0703116 0)
(1.3141 0.121328 0)
(1.20424 0.166005 0)
(1.06373 0.202704 0)
(0.899107 0.230949 0)
(0.717067 0.25122 0)
(0.523148 0.26469 0)
(0.321749 0.273084 0)
(0.11629 0.278112 0)
(-0.0920801 0.280768 0)
(-0.302432 0.282067 0)
(-0.513183 0.281482 0)
(-0.723196 0.278031 0)
(-0.929858 0.270222 0)
(-1.12915 0.256329 0)
(-1.31576 0.234691 0)
(-1.4827 0.203922 0)
(-1.62326 0.16338 0)
(-1.73067 0.11385 0)
(-1.79746 0.0593531 0)
(-1.82076 -0.00347776 0)
(-1.79397 -0.0685008 0)
(-1.71824 -0.133909 0)
(-1.59339 -0.196884 0)
(-1.42198 -0.254741 0)
(-1.20934 -0.3045 0)
(-0.962505 -0.344503 0)
(-0.689667 -0.374002 0)
(-0.399156 -0.392683 0)
(-0.0956376 -0.398995 0)
(0.207171 -0.393983 0)
(0.499999 -0.377727 0)
(0.77816 -0.350258 0)
(1.03144 -0.312177 0)
(1.25246 -0.264345 0)
(1.43366 -0.208667 0)
(1.56974 -0.147451 0)
(1.65717 -0.0836432 0)
(1.69399 -0.0216185 0)
(1.68628 0.0305919 0)
(1.64039 0.0765357 0)
(1.56088 0.113121 0)
(1.45982 0.137126 0)
(0.305557 0.214242 0)
(0.169486 0.243166 0)
(0.0184525 0.260045 0)
(-0.138631 0.26477 0)
(-0.294608 0.258138 0)
(-0.442992 0.241474 0)
(-0.578543 0.216268 0)
(-0.696937 0.183829 0)
(-0.794557 0.145095 0)
(-0.868173 0.100595 0)
(-0.914656 0.0506103 0)
(-0.930841 -0.00460914 0)
(-0.913602 -0.0644578 0)
(-0.860224 -0.127736 0)
(-0.768814 -0.192443 0)
(-0.638903 -0.255767 0)
(-0.471966 -0.314245 0)
(-0.271809 -0.364102 0)
(-0.0447371 -0.401586 0)
(0.201082 -0.423732 0)
(0.455645 -0.428374 0)
(0.707651 -0.414658 0)
(0.946029 -0.383048 0)
(1.16037 -0.335254 0)
(1.34171 -0.273959 0)
(1.48302 -0.202469 0)
(1.57946 -0.124304 0)
(1.62832 -0.0428609 0)
(1.62882 0.0388666 0)
(1.58191 0.118162 0)
(1.48971 0.193102 0)
(1.35543 0.261821 0)
(1.18314 0.322736 0)
(0.977756 0.374337 0)
(0.745062 0.41514 0)
(0.491715 0.443766 0)
(0.225145 0.459093 0)
(-0.0462551 0.460581 0)
(-0.314085 0.44803 0)
(-0.570331 0.422345 0)
(-0.807367 0.385356 0)
(-1.01906 0.339547 0)
(-1.20103 0.287891 0)
(-1.35087 0.233458 0)
(-1.4681 0.179009 0)
(-1.55379 0.126617 0)
(-1.61005 0.0774231 0)
(-1.63932 0.0316556 0)
(-1.64377 -0.0115633 0)
(-1.6247 -0.0532774 0)
(-1.58254 -0.0948255 0)
(-1.51675 -0.137141 0)
(-1.42631 -0.180409 0)
(-1.31029 -0.223848 0)
(-1.16858 -0.265722 0)
(-1.00247 -0.303564 0)
(-0.815005 -0.334611 0)
(-0.6111 -0.356324 0)
(-0.397163 -0.366911 0)
(-0.180327 -0.365745 0)
(0.0316934 -0.353508 0)
(0.232248 -0.3324 0)
(0.417089 -0.305223 0)
(0.583656 -0.275497 0)
(0.73164 -0.246666 0)
(0.862885 -0.221492 0)
(0.980711 -0.201511 0)
(1.08899 -0.186823 0)
(1.19118 -0.17609 0)
(1.2894 -0.166805 0)
(1.3838 -0.155759 0)
(1.47232 -0.13963 0)
(1.5508 -0.115576 0)
(1.61348 -0.0816974 0)
(1.65378 -0.0374288 0)
(1.6651 0.016662 0)
(1.64187 0.0783466 0)
(1.57998 0.145128 0)
(1.47733 0.213622 0)
(1.33395 0.280469 0)
(1.15188 0.342591 0)
(0.934806 0.39739 0)
(0.687879 0.442776 0)
(0.417141 0.477137 0)
(0.129752 0.499168 0)
(-0.167513 0.508109 0)
(-0.466722 0.502709 0)
(-0.758647 0.48218 0)
(-1.03448 0.445807 0)
(-1.28472 0.393423 0)
(-1.49975 0.325666 0)
(-1.67066 0.244405 0)
(-1.78979 0.152475 0)
(-1.85125 0.0545871 0)
(-1.85275 -0.0452739 0)
(-1.79451 -0.139917 0)
(-1.68165 -0.223866 0)
(-1.5223 -0.291798 0)
(-1.32786 -0.339546 0)
(-1.11208 -0.364788 0)
(-0.8892 -0.367792 0)
(-0.672201 -0.350838 0)
(-0.472 -0.31839 0)
(-0.296738 -0.276576 0)
(-0.150239 -0.232218 0)
(-0.0318076 -0.19134 0)
(0.0619466 -0.161638 0)
(0.139883 -0.143345 0)
(0.212556 -0.139532 0)
(0.287972 -0.149202 0)
(0.374518 -0.169187 0)
(0.477658 -0.194611 0)
(0.599089 -0.219585 0)
(0.736434 -0.238162 0)
(0.88363 -0.245206 0)
(1.03201 -0.237012 0)
(1.17152 -0.212038 0)
(1.29136 -0.170655 0)
(1.38144 -0.115274 0)
(1.43412 -0.0498608 0)
(1.44401 0.021318 0)
(1.41061 0.0909778 0)
(1.33506 0.157077 0)
(1.222 0.2148 0)
(1.07782 0.262041 0)
(0.909558 0.298232 0)
(0.724264 0.323858 0)
(0.527768 0.340669 0)
(0.324609 0.351068 0)
(0.117993 0.357332 0)
(-0.0910915 0.36068 0)
(-0.30205 0.362454 0)
(-0.513763 0.361946 0)
(-0.725314 0.35785 0)
(-0.934257 0.348174 0)
(-1.13658 0.33064 0)
(-1.3269 0.303119 0)
(-1.49809 0.264173 0)
(-1.64287 0.211676 0)
(-1.75386 0.147977 0)
(-1.82332 0.0776205 0)
(-1.84863 -0.00366363 0)
(-1.82271 -0.0880117 0)
(-1.74645 -0.17277 0)
(-1.61985 -0.254292 0)
(-1.44549 -0.329048 0)
(-1.22896 -0.393175 0)
(-0.977748 -0.44478 0)
(-0.7003 -0.482963 0)
(-0.40481 -0.507175 0)
(-0.0961428 -0.515542 0)
(0.211609 -0.509213 0)
(0.509269 -0.488374 0)
(0.79221 -0.452979 0)
(1.04995 -0.403783 0)
(1.2749 -0.341864 0)
(1.45915 -0.269588 0)
(1.59699 -0.190031 0)
(1.68443 -0.106797 0)
(1.71939 -0.0262621 0)
(1.70893 0.0411544 0)
(1.65876 0.101307 0)
(1.57405 0.148685 0)
(1.4677 0.179542 0)
(0.319991 0.263789 0)
(0.179204 0.299365 0)
(0.0229537 0.319949 0)
(-0.139163 0.325463 0)
(-0.299677 0.317001 0)
(-0.451962 0.29629 0)
(-0.590792 0.265239 0)
(-0.71198 0.225498 0)
(-0.812093 0.178214 0)
(-0.88806 0.123992 0)
(-0.936819 0.0630866 0)
(-0.955129 -0.0042451 0)
(-0.939677 -0.0774299 0)
(-0.887422 -0.155005 0)
(-0.796115 -0.234553 0)
(-0.664956 -0.312605 0)
(-0.495202 -0.384852 0)
(-0.290598 -0.446565 0)
(-0.0576073 -0.493116 0)
(0.195257 -0.520691 0)
(0.45752 -0.526589 0)
(0.717303 -0.509762 0)
(0.962981 -0.470804 0)
(1.18366 -0.411871 0)
(1.37003 -0.336333 0)
(1.5149 -0.248324 0)
(1.61339 -0.152228 0)
(1.66295 -0.0522481 0)
(1.66295 0.0479445 0)
(1.61458 0.145054 0)
(1.52011 0.236771 0)
(1.38287 0.320861 0)
(1.20699 0.395438 0)
(0.99737 0.458675 0)
(0.759829 0.508746 0)
(0.501085 0.543925 0)
(0.228736 0.562781 0)
(-0.0486253 0.564553 0)
(-0.322269 0.548985 0)
(-0.583745 0.517254 0)
(-0.825091 0.471537 0)
(-1.0399 0.414942 0)
(-1.22367 0.351197 0)
(-1.37404 0.284163 0)
(-1.49074 0.217301 0)
(-1.57522 0.153205 0)
(-1.62998 0.093279 0)
(-1.6579 0.0377692 0)
(-1.66146 -0.0144904 0)
(-1.64207 -0.064888 0)
(-1.60011 -0.11519 0)
(-1.53479 -0.166644 0)
(-1.4447 -0.219535 0)
(-1.3285 -0.272914 0)
(-1.18568 -0.324598 0)
(-1.01729 -0.371466 0)
(-0.826382 -0.410001 0)
(-0.618061 -0.436963 0)
(-0.399159 -0.450055 0)
(-0.177354 -0.448451 0)
(0.0389865 -0.432982 0)
(0.242808 -0.406378 0)
(0.429468 -0.372263 0)
(0.596327 -0.335092 0)
(0.743234 -0.299242 0)
(0.87246 -0.268174 0)
(0.987907 -0.243833 0)
(1.09409 -0.22634 0)
(1.19503 -0.213991 0)
(1.29326 -0.203599 0)
(1.38913 -0.191093 0)
(1.48048 -0.17226 0)
(1.56283 -0.143503 0)
(1.62991 -0.102437 0)
(1.67459 -0.0483408 0)
(1.68975 0.0180647 0)
(1.66928 0.0939234 0)
(1.60884 0.176167 0)
(1.5062 0.260543 0)
(1.36144 0.342848 0)
(1.17677 0.41926 0)
(0.95612 0.486599 0)
(0.704854 0.542344 0)
(0.429179 0.584604 0)
(0.136415 0.611824 0)
(-0.166631 0.622881 0)
(-0.472043 0.616538 0)
(-0.770507 0.591725 0)
(-1.05309 0.547576 0)
(-1.31008 0.483774 0)
(-1.53136 0.400866 0)
(-1.70749 0.30099 0)
(-1.8304 0.187614 0)
(-1.89357 0.066917 0)
(-1.89432 -0.0564903 0)
(-1.83279 -0.17354 0)
(-1.71419 -0.277391 0)
(-1.54703 -0.361357 0)
(-1.34335 -0.420172 0)
(-1.11787 -0.450875 0)
(-0.885856 -0.453836 0)
(-0.66119 -0.431882 0)
(-0.455635 -0.390662 0)
(-0.277844 -0.337833 0)
(-0.131641 -0.281946 0)
(-0.0164307 -0.230776 0)
(0.0722999 -0.193208 0)
(0.14453 -0.170595 0)
(0.211022 -0.166257 0)
(0.281198 -0.178949 0)
(0.364275 -0.204693 0)
(0.466309 -0.237342 0)
(0.589231 -0.269464 0)
(0.730489 -0.293564 0)
(0.883523 -0.303212 0)
(1.03889 -0.293793 0)
(1.18564 -0.263264 0)
(1.3121 -0.21214 0)
(1.4074 -0.143486 0)
(1.46335 -0.0623147 0)
(1.47431 0.0260208 0)
(1.43986 0.11226 0)
(1.36144 0.193926 0)
(1.24427 0.264994 0)
(1.09541 0.322917 0)
(0.922437 0.366791 0)
(0.732988 0.397415 0)
(0.533303 0.417272 0)
(0.327993 0.429376 0)
(0.12001 0.436608 0)
(-0.0898852 0.440589 0)
(-0.301525 0.442882 0)
(-0.514373 0.442641 0)
(-0.727806 0.438189 0)
(-0.939594 0.426977 0)
(-1.14574 0.406112 0)
(-1.34066 0.372885 0)
(-1.51726 0.325578 0)
(-1.66742 0.261789 0)
(-1.78294 0.183683 0)
(-1.8559 0.0969076 0)
(-1.88359 -0.00236648 0)
(-1.85893 -0.107128 0)
(-1.78198 -0.21175 0)
(-1.65314 -0.312283 0)
(-1.47496 -0.404193 0)
(-1.25351 -0.482558 0)
(-0.996817 -0.545883 0)
(-0.713591 -0.592983 0)
(-0.411861 -0.622872 0)
(-0.0967342 -0.633362 0)
(0.217193 -0.625714 0)
(0.52091 -0.600286 0)
(0.809853 -0.556909 0)
(1.07321 -0.496502 0)
(1.30313 -0.420276 0)
(1.49123 -0.331159 0)
(1.63136 -0.232315 0)
(1.71877 -0.129499 0)
(1.7513 -0.0304671 0)
(1.73753 0.0524864 0)
(1.68191 0.127501 0)
(1.59054 0.185808 0)
(1.47743 0.223436 0)
(0.337541 0.31527 0)
(0.190913 0.357726 0)
(0.02828 0.382025 0)
(-0.139955 0.388165 0)
(-0.305939 0.377616 0)
(-0.462881 0.352579 0)
(-0.605589 0.315443 0)
(-0.730059 0.268237 0)
(-0.833104 0.212321 0)
(-0.911859 0.148349 0)
(-0.963357 0.0765041 0)
(-0.98428 -0.00301498 0)
(-0.97106 -0.089747 0)
(-0.920259 -0.181967 0)
(-0.829175 -0.276855 0)
(-0.696592 -0.370259 0)
(-0.523485 -0.456962 0)
(-0.313525 -0.531201 0)
(-0.0733566 -0.587371 0)
(0.188089 -0.620756 0)
(0.459737 -0.628068 0)
(0.728996 -0.608045 0)
(0.983551 -0.561427 0)
(1.21191 -0.490866 0)
(1.40436 -0.400487 0)
(1.55347 -0.295328 0)
(1.6544 -0.180698 0)
(1.70472 -0.061649 0)
(1.70407 0.0574508 0)
(1.65389 0.172733 0)
(1.55668 0.281522 0)
(1.41589 0.381252 0)
(1.2357 0.469748 0)
(1.02102 0.544878 0)
(0.777661 0.604464 0)
(0.512415 0.646402 0)
(0.23307 0.66891 0)
(-0.051529 0.670961 0)
(-0.33223 0.652252 0)
(-0.600066 0.614158 0)
(-0.846653 0.55926 0)
(-1.06524 0.491339 0)
(-1.25115 0.414949 0)
(-1.40208 0.334812 0)
(-1.51804 0.255166 0)
(-1.60092 0.179166 0)
(-1.65378 0.108491 0)
(-1.68 0.043369 0)
(-1.68243 -0.0176823 0)
(-1.66268 -0.0765022 0)
(-1.62103 -0.135368 0)
(-1.55639 -0.195909 0)
(-1.46687 -0.258556 0)
(-1.35056 -0.322187 0)
(-1.20649 -0.384132 0)
(-1.03539 -0.440536 0)
(-0.840291 -0.487029 0)
(-0.626558 -0.519574 0)
(-0.401547 -0.535293 0)
(-0.173618 -0.53312 0)
(0.0480813 -0.514045 0)
(0.255886 -0.481393 0)
(0.444754 -0.439696 0)
(0.6119 -0.394459 0)
(0.757389 -0.351087 0)
(0.884022 -0.313841 0)
(0.996428 -0.285126 0)
(1.09992 -0.26508 0)
(1.19924 -0.251582 0)
(1.29744 -0.240677 0)
(1.39509 -0.227324 0)
(1.48992 -0.206317 0)
(1.57704 -0.173208 0)
(1.64958 -0.12507 0)
(1.69968 -0.0610031 0)
(1.71958 0.0179292 0)
(1.70244 0.108811 0)
(1.6438 0.20694 0)
(1.54115 0.307778 0)
(1.39469 0.406051 0)
(1.20685 0.49718 0)
(0.981846 0.577392 0)
(0.725347 0.643741 0)
(0.443755 0.694079 0)
(0.14452 0.726691 0)
(-0.165478 0.740073 0)
(-0.478315 0.732951 0)
(-0.784643 0.703969 0)
(-1.07538 0.652013 0)
(-1.3405 0.576599 0)
(-1.56943 0.478376 0)
(-1.7521 0.35951 0)
(-1.87967 0.22387 0)
(-1.94496 0.0795199 0)
(-1.94489 -0.0684745 0)
(-1.87938 -0.209012 0)
(-1.75378 -0.333748 0)
(-1.57705 -0.434504 0)
(-1.36202 -0.504777 0)
(-1.12462 -0.540907 0)
(-0.881373 -0.543364 0)
(-0.647298 -0.515588 0)
(-0.435198 -0.464519 0)
(-0.254344 -0.399474 0)
(-0.108614 -0.330896 0)
(0.00261711 -0.268553 0)
(0.0851076 -0.222377 0)
(0.150092 -0.195207 0)
(0.208907 -0.190515 0)
(0.272552 -0.206804 0)
(0.351296 -0.239187 0)
(0.45194 -0.280111 0)
(0.576694 -0.320447 0)
(0.722786 -0.350999 0)
(0.883026 -0.363914 0)
(1.04703 -0.353584 0)
(1.20274 -0.317431 0)
(1.33737 -0.256134 0)
(1.43909 -0.17349 0)
(1.49904 -0.0756718 0)
(1.51126 0.030763 0)
(1.47545 0.134408 0)
(1.39344 0.232302 0)
(1.27115 0.317187 0)
(1.11643 0.385793 0)
(0.937617 0.437072 0)
(0.743137 0.472426 0)
(0.539625 0.494942 0)
(0.331785 0.508363 0)
(0.122276 0.516265 0)
(-0.0884589 0.520798 0)
(-0.300798 0.523682 0)
(-0.514904 0.523956 0)
(-0.730538 0.519513 0)
(-0.945738 0.507175 0)
(-1.15652 0.483355 0)
(-1.35709 0.444672 0)
(-1.54013 0.388872 0)
(-1.69683 0.314311 0)
(-1.81805 0.221307 0)
(-1.8953 0.11732 0)
(-1.92606 -0.000563932 0)
(-1.90299 -0.126291 0)
(-1.82506 -0.251483 0)
(-1.69337 -0.371665 0)
(-1.51038 -0.480774 0)
(-1.28297 -0.57383 0)
(-1.01986 -0.64905 0)
(-0.729725 -0.705179 0)
(-0.420454 -0.741116 0)
(-0.0975104 -0.753966 0)
(0.223908 -0.745061 0)
(0.534947 -0.71505 0)
(0.831178 -0.663568 0)
(1.10138 -0.591677 0)
(1.33738 -0.500759 0)
(1.53044 -0.3937 0)
(1.67329 -0.274796 0)
(1.76027 -0.151842 0)
(1.79019 -0.033659 0)
(1.77254 0.0656158 0)
(1.71 0.156469 0)
(1.61039 0.226043 0)
(1.48891 0.270422 0)
(0.358346 0.369112 0)
(0.204659 0.418712 0)
(0.0343923 0.446721 0)
(-0.141104 0.453273 0)
(-0.313513 0.44031 0)
(-0.475864 0.410597 0)
(-0.623021 0.367082 0)
(-0.751225 0.312216 0)
(-0.857608 0.247579 0)
(-0.939577 0.173836 0)
(-0.99428 0.0910341 0)
(-1.01834 -0.000732933 0)
(-1.00787 -0.101248 0)
(-0.958912 -0.208524 0)
(-0.868234 -0.319351 0)
(-0.734093 -0.428861 0)
(-0.557106 -0.530855 0)
(-0.340855 -0.61844 0)
(-0.0921869 -0.684913 0)
(0.179463 -0.72457 0)
(0.462281 -0.73349 0)
(0.742815 -0.710161 0)
(1.00791 -0.655498 0)
(1.24536 -0.572709 0)
(1.44495 -0.466762 0)
(1.59901 -0.343685 0)
(1.70271 -0.209792 0)
(1.75383 -0.0710385 0)
(1.75234 0.0674906 0)
(1.69998 0.201363 0)
(1.59953 0.327569 0)
(1.45459 0.443245 0)
(1.26938 0.545966 0)
(1.0488 0.633299 0)
(0.798656 0.702704 0)
(0.52578 0.75166 0)
(0.238178 0.777982 0)
(-0.0549908 0.780322 0)
(-0.344062 0.758312 0)
(-0.619458 0.713475 0)
(-0.872265 0.648848 0)
(-1.09531 0.568942 0)
(-1.28369 0.479222 0)
(-1.43518 0.385367 0)
(-1.55012 0.292479 0)
(-1.63096 0.204335 0)
(-1.68141 0.122901 0)
(-1.70551 0.0483376 0)
(-1.70657 -0.0211893 0)
(-1.68642 -0.0881002 0)
(-1.64525 -0.155285 0)
(-1.58157 -0.224844 0)
(-1.4929 -0.297405 0)
(-1.37664 -0.371673 0)
(-1.23121 -0.444438 0)
(-1.05698 -0.511015 0)
(-0.856908 -0.566054 0)
(-0.636693 -0.604603 0)
(-0.404327 -0.623104 0)
(-0.169009 -0.620208 0)
(0.0591643 -0.597071 0)
(0.271755 -0.557686 0)
(0.463225 -0.507609 0)
(0.630621 -0.453527 0)
(0.774275 -0.40201 0)
(0.897634 -0.35824 0)
(1.00622 -0.325135 0)
(1.10633 -0.302847 0)
(1.20359 -0.288776 0)
(1.30168 -0.278093 0)
(1.40143 -0.264654 0)
(1.50044 -0.242121 0)
(1.59335 -0.205093 0)
(1.67249 -0.150031 0)
(1.72914 -0.0758245 0)
(1.7547 0.0161684 0)
(1.74165 0.122493 0)
(1.68514 0.237327 0)
(1.58244 0.355364 0)
(1.43392 0.470265 0)
(1.24228 0.576654 0)
(1.01211 0.670158 0)
(0.749441 0.747424 0)
(0.460929 0.806059 0)
(0.154141 0.844227 0)
(-0.163974 0.860157 0)
(-0.485472 0.852462 0)
(-0.801012 0.819472 0)
(-1.10134 0.759775 0)
(-1.37609 0.672635 0)
(-1.61412 0.55865 0)
(-1.80469 0.420241 0)
(-1.93794 0.261674 0)
(-2.00582 0.092541 0)
(-2.0049 -0.0813328 0)
(-1.93472 -0.246704 0)
(-1.8008 -0.393544 0)
(-1.61261 -0.51203 0)
(-1.38394 -0.594234 0)
(-1.13223 -0.635759 0)
(-0.875478 -0.637154 0)
(-0.630117 -0.602559 0)
(-0.410195 -0.540317 0)
(-0.225726 -0.461571 0)
(-0.0807135 -0.378851 0)
(0.0256813 -0.304267 0)
(0.100576 -0.248608 0)
(0.156585 -0.216563 0)
(0.206047 -0.211732 0)
(0.261717 -0.232323 0)
(0.335165 -0.272426 0)
(0.434091 -0.322922 0)
(0.561046 -0.37279 0)
(0.71298 -0.41094 0)
(0.881927 -0.427934 0)
(1.05638 -0.417074 0)
(1.22293 -0.3752 0)
(1.36742 -0.303192 0)
(1.47687 -0.205669 0)
(1.54158 -0.0901081 0)
(1.55524 0.0355861 0)
(1.51771 0.157646 0)
(1.43128 0.272618 0)
(1.30273 0.371747 0)
(1.14082 0.450973 0)
(0.955008 0.509512 0)
(0.754554 0.549198 0)
(0.546556 0.573853 0)
(0.335833 0.588094 0)
(0.124707 0.596301 0)
(-0.0868179 0.601247 0)
(-0.299801 0.604811 0)
(-0.51522 0.605908 0)
(-0.733336 0.601933 0)