/*--------------------------------*- C++ -*----------------------------------*\
| =========                 |                                                 |
| \\      /  F ield         | OpenFOAM: The Open Source CFD Toolbox           |
|  \\    /   O peration     | Version:  v1912                                 |
|   \\  /    A nd           | Website:  www.openfoam.com                      |
|    \\/     M anipulation  |                                                 |
\*---------------------------------------------------------------------------*/
FoamFile
{
    version     2.0;
    format      ascii;
    class       surfaceScalarField;
    location    "70";
    object      alphaPhi0.water;
}
// * * * * * * * * * * * * * * * * * * * * * * * * * * * * * * * * * * * * * //

dimensions      [0 3 -1 0 0 0 0];
oriented        oriented;


internalField   nonuniform List<scalar> 
28285
(
-5.57908e-68
-2.96095e-69
-2.02962e-69
-1.08511e-70
-6.88713e-71
-3.70922e-72
-2.17951e-72
-1.18243e-73
-6.43141e-74
-3.51458e-75
-1.76932e-75
-9.73843e-77
-4.53718e-77
-2.51504e-78
-1.08437e-78
-6.05298e-80
-2.41495e-80
-1.35734e-81
-5.01083e-82
-2.83551e-83
-9.68532e-84
-5.51735e-85
-1.74362e-85
-9.99805e-87
-2.92321e-87
-1.68702e-88
-4.56318e-89
-2.6502e-90
-6.63148e-91
-3.87553e-92
-8.97065e-93
-5.27488e-94
-1.12938e-94
-6.68133e-96
-1.32312e-96
-7.87441e-98
-1.44221e-98
-8.63403e-100
-1.46239e-100
-8.80616e-102
-1.37924e-102
-8.35356e-104
-1.20973e-104
-7.3689e-106
-9.86606e-107
-6.04385e-108
-7.48058e-109
-4.60827e-110
-5.27223e-111
-3.26594e-112
-3.45344e-113
-2.15107e-114
-2.10202e-115
-1.31646e-116
-1.18872e-117
-7.48516e-119
-6.2446e-120
-3.9533e-121
-3.04679e-122
-1.93916e-123
-1.38044e-124
-8.8326e-126
-5.80703e-127
-3.73519e-128
-2.26766e-129
-1.46625e-130
-8.21886e-132
-5.342e-133
-2.76424e-134
-1.80601e-135
-8.62567e-137
-5.66469e-138
-2.49679e-139
-1.64815e-140
-6.70285e-142
-4.44732e-143
-1.66857e-144
-1.11275e-145
-3.85081e-147
-2.58117e-148
-8.23751e-150
-5.54965e-151
-1.63301e-152
-1.10575e-153
-2.99948e-155
-2.04131e-156
-5.10355e-158
-3.49083e-159
-8.04231e-161
-5.52872e-162
-1.17348e-163
-8.10786e-165
-1.58514e-166
-1.10073e-167
-1.98179e-169
-1.38309e-170
-2.29272e-172
-1.60813e-173
-2.45384e-175
-1.7298e-176
-2.42911e-178
-1.72097e-179
-2.22358e-181
-1.58327e-182
-1.88174e-184
-1.34659e-185
-1.47185e-187
-1.05856e-188
-1.0638e-190
-7.68926e-192
-7.10299e-194
-5.15988e-195
-4.38027e-197
-3.19796e-198
-2.49419e-200
-1.8301e-201
-1.31104e-203
-9.66793e-205
-6.35991e-207
-4.71344e-208
-2.84654e-210
-2.12019e-211
-1.17518e-213
-8.79689e-215
-4.47398e-217
-3.36578e-218
-1.57026e-220
-1.18721e-221
-5.07946e-224
-3.85954e-225
-1.51396e-227
-1.15609e-228
-4.15664e-231
-3.18988e-232
-1.05095e-234
-8.10518e-236
-2.4463e-238
-1.89598e-239
-5.2409e-242
-4.08195e-243
-1.03311e-245
-8.08609e-247
-1.87331e-249
-1.4734e-250
-3.12371e-253
-2.46884e-254
-4.7886e-257
-3.80301e-258
-6.74679e-261
-5.38393e-262
-8.73401e-265
-7.00299e-266
-1.03857e-268
-8.36673e-270
-1.13408e-272
-9.17888e-274
-1.13686e-276
-9.24404e-278
-1.04596e-280
-8.54375e-282
-8.8297e-285
-7.24482e-286
-6.83723e-289
-5.6348e-290
-4.85515e-293
-4.01865e-294
-3.16084e-297
-2.62735e-298
-1.88611e-301
-1.57425e-302
-1.03132e-305
-8.6425e-307
-5.16624e-310
-4.34614e-311
-2.37037e-314
-2.00153e-315
-9.95918e-319
-8.43963e-320
-3.95253e-323
-4.94066e-324
0
0
0
0
0
0
0
0
0
0
0
0
0
0
0
0
0
0
0
0
0
0
0
0
0
0
0
0
0
0
0
0
0
0
0
0
0
0
0
0
0
0
0
0
0
0
0
0
0
0
0
0
0
0
0
0
0
0
0
0
0
0
0
0
0
0
0
0
0
0
0
0
0
0
0
0
0
0
0
0
0
0
0
0
0
0
0
0
0
0
0
0
0
0
0
0
0
0
0
0
0
0
0
0
0
0
0
0
0
0
0
0
0
0
0
0
0
0
0
0
0
0
0
0
0
0
0
0
0
0
0
0
0
0
0
0
0
0
0
0
0
0
0
0
0
0
0
-3.82968e-68
-4.06835e-69
-1.38879e-69
-1.48622e-70
-4.69754e-71
-5.06409e-72
-1.48181e-72
-1.60916e-73
-4.35848e-74
-4.76749e-75
-1.19515e-75
-1.31672e-76
-3.05482e-77
-3.38949e-78
-7.27705e-79
-8.13086e-80
-1.61533e-80
-1.81732e-81
-3.34068e-82
-3.78395e-83
-6.43587e-84
-7.3386e-85
-1.15482e-85
-1.32545e-86
-1.92967e-87
-2.22912e-88
-3.00231e-89
-3.49025e-90
-4.34872e-91
-5.08712e-92
-5.86323e-93
-6.90108e-94
-7.35727e-95
-8.71223e-96
-8.59084e-97
-1.0234e-97
-9.33314e-99
-1.11842e-99
-9.43251e-101
-1.13695e-101
-8.86682e-103
-1.07496e-103
-7.75144e-105
-9.45123e-106
-6.30091e-107
-7.72622e-108
-4.76171e-109
-5.87165e-110
-3.34497e-111
-4.14763e-112
-2.18384e-113
-2.72282e-114
-1.32489e-115
-1.66092e-116
-7.46789e-118
-9.41274e-119
-3.91023e-120
-4.95511e-121
-1.9016e-122
-2.42263e-123
-8.5877e-125
-1.09988e-125
-3.6008e-127
-4.63612e-128
-1.40156e-129
-1.81401e-130
-5.0633e-132
-6.58758e-133
-1.69743e-134
-2.2199e-135
-5.27963e-137
-6.94044e-138
-1.52331e-139
-2.01282e-140
-4.07632e-142
-5.41388e-143
-1.01148e-144
-1.35025e-145
-2.32686e-147
-3.12204e-148
-4.9616e-150
-6.69108e-151
-9.80454e-153
-1.32893e-153
-1.79513e-155
-2.44549e-156
-3.04467e-158
-4.16872e-159
-4.78263e-161
-6.5814e-162
-6.9564e-164
-9.62105e-165
-9.36696e-167
-1.30203e-167
-1.16739e-169
-1.63087e-170
-1.34628e-172
-1.89025e-173
-1.43635e-175
-2.02687e-176
-1.41741e-178
-2.01019e-179
-1.2934e-181
-1.84354e-182
-1.09113e-184
-1.56305e-185
-8.50779e-188
-1.22487e-188
-6.12988e-191
-8.86953e-192
-4.08014e-194
-5.93333e-195
-2.50828e-197
-3.66586e-198
-1.4238e-200
-2.09133e-201
-7.46069e-204
-1.10135e-204
-3.60792e-207
-5.35276e-208
-1.60979e-210
-2.40028e-211
-6.62521e-214
-9.92807e-215
-2.5144e-217
-3.78677e-218
-8.79742e-221
-1.33155e-221
-2.83691e-224
-4.31533e-225
-8.42917e-228
-1.28859e-228
-2.30703e-231
-3.54441e-232
-5.81477e-235
-8.97794e-236
-1.34927e-238
-2.09359e-239
-2.88157e-242
-4.49329e-243
-5.66241e-246
-8.87304e-247
-1.02351e-249
-1.61172e-250
-1.70128e-253
-2.6921e-254
-2.59976e-257
-4.13382e-258
-3.65119e-261
-5.83371e-262
-4.7115e-265
-7.56389e-266
-5.58447e-269
-9.00796e-270
-6.07826e-273
-9.8506e-274
-6.07338e-277
-9.88848e-278
-5.56944e-281
-9.10966e-282
-4.68602e-285
-7.6994e-286
-3.61651e-289
-5.96859e-290
-2.55947e-293
-4.24255e-294
-1.66063e-297
-2.76442e-298
-9.87519e-302
-1.65076e-302
-5.38096e-306
-9.03146e-307
-2.68604e-310
-4.52598e-311
-1.22801e-314
-2.07703e-315
-5.1408e-319
-8.72668e-320
-1.97626e-323
-4.94066e-324
0
0
0
0
0
0
0
0
0
0
0
0
0
0
0
0
0
0
0
0
0
0
0
0
0
0
0
0
0
0
0
0
0
0
0
0
0
0
0
0
0
0
0
0
0
0
0
0
0
0
0
0
0
0
0
0
0
0
0
0
0
0
0
0
0
0
0
0
0
0
0
0
0
0
0
0
0
0
0
0
0
0
0
0
0
0
0
0
0
0
0
0
0
0
0
0
0
0
0
0
0
0
0
0
0
0
0
0
0
0
0
0
0
0
0
0
0
0
0
0
0
0
0
0
0
0
0
0
0
0
0
0
0
0
0
0
0
0
0
0
0
0
0
0
0
0
0
-2.71787e-68
-4.33264e-69
-9.81846e-70
-1.57673e-70
-3.30872e-71
-5.35252e-72
-1.03993e-72
-1.69463e-73
-3.04791e-74
-5.0029e-75
-8.32868e-76
-1.37693e-76
-2.12156e-77
-3.53238e-78
-5.03695e-79
-8.44522e-80
-1.1144e-80
-1.88136e-81
-2.29723e-82
-3.90459e-83
-4.41152e-84
-7.5484e-85
-7.89089e-86
-1.35906e-86
-1.31446e-87
-2.27855e-88
-2.03887e-89
-3.55672e-90
-2.9443e-91
-5.16834e-92
-3.95786e-93
-6.99034e-94
-4.95175e-95
-8.79891e-96
-5.76515e-97
-1.03057e-97
-6.24525e-99
-1.12301e-99
-6.29375e-101
-1.13837e-101
-5.89962e-103
-1.07326e-103
-5.14309e-105
-9.40996e-106
-4.16911e-107
-7.67121e-108
-3.14205e-109
-5.81389e-110
-2.20121e-111
-4.09569e-112
-1.43325e-113
-2.6815e-114
-8.67206e-116
-1.63135e-116
-4.87518e-118
-9.22077e-119
-2.54598e-120
-4.84133e-121
-1.23493e-122
-2.36085e-123
-5.56261e-125
-1.06907e-125
-2.32642e-127
-4.49473e-128
-9.03222e-130
-1.75422e-130
-3.25478e-132
-6.35439e-133
-1.0884e-134
-2.13596e-135
-3.37691e-137
-6.66141e-138
-9.7192e-140
-1.92713e-140
-2.59443e-142
-5.17066e-143
-6.42196e-145
-1.28644e-145
-1.47375e-147
-2.9673e-148
-3.13493e-150
-6.3441e-151
-6.18001e-153
-1.25699e-153
-1.12881e-155
-2.30761e-156
-1.90999e-158
-3.92433e-159
-2.99315e-161
-6.18094e-162
-4.34332e-164
-9.01439e-165
-5.83468e-167
-1.21707e-167
-7.25466e-170
-1.5209e-170
-8.3469e-173
-1.7587e-173
-8.8847e-176
-1.88145e-176
-8.74723e-179
-1.86166e-179
-7.96355e-182
-1.7034e-182
-6.70268e-185
-1.44091e-185
-5.21424e-188
-1.12658e-188
-3.74826e-191
-8.13913e-192
-2.48918e-194
-5.43231e-195
-1.52674e-197
-3.34866e-198
-8.64653e-201
-1.90602e-201
-4.52042e-204
-1.00148e-204
-2.18103e-207
-4.85629e-208
-9.70907e-211
-2.17269e-211
-3.98668e-214
-8.96622e-215
-1.50955e-217
-3.41209e-218
-5.26946e-221
-1.19706e-221
-1.69532e-224
-3.87055e-225
-5.02552e-228
-1.15312e-228
-1.37226e-231
-3.16443e-232
-3.4506e-235
-7.99683e-236
-7.98794e-239
-1.86044e-239
-1.70189e-242
-3.98352e-243
-3.33628e-246
-7.84772e-247
-6.01592e-250
-1.42207e-250
-9.97529e-254
-2.3696e-254
-1.52057e-257
-3.62975e-258
-2.13021e-261
-5.10974e-262
-2.74186e-265
-6.60868e-266
-3.24154e-269
-7.85049e-270
-3.51895e-273
-8.56284e-274
-3.50678e-277
-8.57335e-278
-3.2071e-281
-7.87715e-282
-2.69094e-285
-6.63969e-286
-2.07091e-289
-5.1329e-290
-1.46139e-293
-3.63824e-294
-9.45362e-298
-2.3638e-298
-5.60463e-302
-1.40736e-302
-3.04438e-306
-7.67635e-307
-1.51477e-310
-3.83484e-311
-6.90218e-315
-1.75418e-315
-2.87951e-319
-7.34577e-320
-9.88131e-324
-4.94066e-324
0
0
0
0
0
0
0
0
0
0
0
0
0
0
0
0
0
0
0
0
0
0
0
0
0
0
0
0
0
0
0
0
0
0
0
0
0
0
0
0
0
0
0
0
0
0
0
0
0
0
0
0
0
0
0
0
0
0
0
0
0
0
0
0
0
0
0
0
0
0
0
0
0
0
0
0
0
0
0
0
0
0
0
0
0
0
0
0
0
0
0
0
0
0
0
0
0
0
0
0
0
0
0
0
0
0
0
0
0
0
0
0
0
0
0
0
0
0
0
0
0
0
0
0
0
0
0
0
0
0
0
0
0
0
0
0
0
0
0
0
0
0
0
0
0
0
0
-1.98936e-68
-4.22919e-69
-7.15728e-70
-1.53278e-70
-2.40245e-71
-5.18288e-72
-7.5223e-73
-1.6347e-73
-2.19663e-74
-4.80833e-75
-5.9813e-76
-1.31871e-76
-1.51841e-77
-3.37145e-78
-3.59303e-79
-8.0338e-80
-7.92389e-81
-1.78396e-81
-1.62835e-82
-3.69093e-83
-3.11757e-84
-7.11373e-85
-5.55998e-86
-1.27703e-86
-9.23526e-88
-2.13488e-88
-1.42848e-89
-3.32315e-90
-2.05723e-91
-4.81577e-92
-2.75806e-93
-6.49615e-94
-3.44169e-95
-8.15561e-96
-3.99685e-97
-9.52799e-98
-4.31892e-99
-1.03568e-99
-4.34187e-101
-1.04728e-101
-4.06025e-103
-9.8503e-104
-3.53131e-105
-8.61618e-106
-2.85599e-107
-7.00798e-108
-2.14755e-109
-5.29926e-110
-1.50117e-111
-3.72489e-112
-9.75311e-114
-2.43342e-114
-5.88859e-116
-1.47725e-116
-3.30341e-118
-8.33217e-119
-1.72157e-120
-4.3657e-121
-8.33337e-123
-2.12456e-123
-3.7461e-125
-9.60127e-126
-1.56359e-127
-4.02866e-128
-6.05862e-130
-1.56923e-130
-2.17899e-132
-5.67328e-133
-7.2726e-135
-1.90336e-135
-2.25214e-137
-5.92474e-138
-6.46979e-140
-1.7108e-140
-1.72383e-142
-4.58172e-143
-4.25912e-145
-1.13782e-145
-9.7563e-148
-2.61972e-148
-2.07158e-150
-5.59088e-151
-4.07648e-153
-1.10577e-153
-7.43263e-156
-2.02639e-156
-1.25541e-158
-3.44003e-159
-1.96391e-161
-5.40868e-162
-2.84483e-164
-7.8744e-165
-3.81502e-167
-1.06132e-167
-4.73529e-170
-1.32399e-170
-5.43886e-173
-1.52838e-173
-5.77938e-176
-1.63226e-176
-5.68024e-179
-1.61235e-179
-5.16253e-182
-1.47279e-182
-4.33775e-185
-1.24373e-185
-3.36875e-188
-9.70766e-189
-2.41752e-191
-7.00162e-192
-1.60272e-194
-4.66521e-195
-9.81352e-198
-2.87094e-198
-5.54831e-201
-1.63134e-201
-2.8957e-204
-8.55703e-205
-1.39473e-207
-4.14233e-208
-6.19806e-211
-1.8501e-211
-2.54059e-214
-7.62185e-215
-9.60306e-218
-2.89548e-218
-3.34628e-221
-1.01405e-221
-1.07467e-224
-3.27304e-225
-3.17996e-228
-9.73379e-229
-8.66736e-232
-2.6664e-232
-2.17543e-235
-6.72605e-236
-5.02657e-239
-1.56192e-239
-1.06891e-242
-3.33811e-243
-2.09139e-246
-6.56379e-247
-3.76373e-250
-1.18712e-250
-6.22829e-254
-1.97422e-254
-9.47455e-258
-3.01804e-258
-1.32453e-261
-4.23991e-262
-1.70116e-265
-5.47217e-266
-2.00673e-269
-6.48643e-270
-2.1735e-273
-7.05936e-274
-2.1609e-277
-7.05193e-278
-1.97144e-281
-6.46407e-282
-1.65e-285
-5.43538e-286
-1.26651e-289
-4.19134e-290
-8.91324e-294
-2.96311e-294
-5.74969e-298
-1.91996e-298
-3.39873e-302
-1.13988e-302
-1.84049e-306
-6.19912e-307
-9.12818e-311
-3.08735e-311
-4.14531e-315
-1.40771e-315
-1.72325e-319
-5.87493e-320
-4.94066e-324
0
0
0
0
0
0
0
0
0
0
0
0
0
0
0
0
0
0
0
0
0
0
0
0
0
0
0
0
0
0
0
0
0
0
0
0
0
0
0
0
0
0
0
0
0
0
0
0
0
0
0
0
0
0
0
0
0
0
0
0
0
0
0
0
0
0
0
0
0
0
0
0
0
0
0
0
0
0
0
0
0
0
0
0
0
0
0
0
0
0
0
0
0
0
0
0
0
0
0
0
0
0
0
0
0
0
0
0
0
0
0
0
0
0
0
0
0
0
0
0
0
0
0
0
0
0
0
0
0
0
0
0
0
0
0
0
0
0
0
0
0
0
0
0
0
0
0
0
-1.50923e-68
-4.01096e-69
-5.41375e-70
-1.44937e-70
-1.81211e-71
-4.88709e-72
-5.65889e-73
-1.53733e-73
-1.64836e-74
-4.51065e-75
-4.47783e-76
-1.23415e-76
-1.13421e-77
-3.14826e-78
-2.67826e-79
-7.48619e-80
-5.89477e-81
-1.65906e-81
-1.20909e-82
-3.42607e-83
-2.31077e-84
-6.59154e-85
-4.11418e-86
-1.1813e-86
-6.82288e-88
-1.9717e-88
-1.05375e-89
-3.06453e-90
-1.5154e-91
-4.43466e-92
-2.02889e-93
-5.97397e-94
-2.52854e-95
-7.49042e-96
-2.93283e-97
-8.74023e-98
-3.16551e-99
-9.48956e-100
-3.17883e-101
-9.58535e-102
-2.96955e-103
-9.00618e-104
-2.58014e-105
-7.87002e-106
-2.08474e-107
-6.39506e-108
-1.56621e-109
-4.83145e-110
-1.09387e-111
-3.39315e-112
-7.10104e-114
-2.21489e-114
-4.28401e-116
-1.34355e-116
-2.40147e-118
-7.57238e-119
-1.25063e-120
-3.96478e-121
-6.04963e-123
-1.92814e-123
-2.7177e-125
-8.70793e-126
-1.13363e-127
-3.65152e-128
-4.38996e-130
-1.42148e-130
-1.57793e-132
-5.1361e-133
-5.26354e-135
-1.72218e-135
-1.6291e-137
-5.35787e-138
-4.6775e-140
-1.5463e-140
-1.24565e-142
-4.13909e-143
-3.07614e-145
-1.0274e-145
-7.04307e-148
-2.36434e-148
-1.49477e-150
-5.04351e-151
-2.94006e-153
-9.97059e-154
-5.35818e-156
-1.82635e-156
-9.0462e-159
-3.09908e-159
-1.41453e-161
-4.8705e-162
-2.04813e-164
-7.08784e-165
-2.74543e-167
-9.54904e-168
-3.40623e-170
-1.19073e-170
-3.91064e-173
-1.37397e-173
-4.1537e-176
-1.46675e-176
-4.08069e-179
-1.44824e-179
-3.70714e-182
-1.32232e-182
-3.11351e-185
-1.11619e-185
-2.41691e-188
-8.70839e-189
-1.73366e-191
-6.27813e-192
-1.14881e-194
-4.18127e-195
-7.03088e-198
-2.57194e-198
-3.97313e-201
-1.46075e-201
-2.07256e-204
-7.65851e-205
-9.97738e-208
-3.70551e-208
-4.43147e-211
-1.65415e-211
-1.81544e-214
-6.81091e-215
-6.85808e-218
-2.58596e-218
-2.38831e-221
-9.05118e-222
-7.66519e-225
-2.91967e-225
-2.26662e-228
-8.67734e-229
-6.17358e-232
-2.37541e-232
-1.54836e-235
-5.98777e-236
-3.57484e-239
-1.38945e-239
-7.59569e-243
-2.96715e-243
-1.48483e-246
-5.8295e-247
-2.66964e-250
-1.05339e-250
-4.41339e-254
-1.75017e-254
-6.70661e-258
-2.67287e-258
-9.36517e-262
-3.75101e-262
-1.20138e-265
-4.83571e-266
-1.41535e-269
-5.72509e-270
-1.53087e-273
-6.22273e-274
-1.51976e-277
-6.20761e-278
-1.38433e-281
-5.68173e-282
-1.15665e-285
-4.76998e-286
-8.86217e-290
-3.67199e-290
-6.22472e-294
-2.59122e-294
-4.00698e-298
-1.6757e-298
-2.36324e-302
-9.92764e-303
-1.27664e-306
-5.3868e-307
-6.31507e-311
-2.67623e-311
-2.85971e-315
-1.21704e-315
-1.18516e-319
-5.06467e-320
-4.94066e-324
0
0
0
0
0
0
0
0
0
0
0
0
0
0
0
0
0
0
0
0
0
0
0
0
0
0
0
0
0
0
0
0
0
0
0
0
0
0
0
0
0
0
0
0
0
0
0
0
0
0
0
0
0
0
0
0
0
0
0
0
0
0
0
0
0
0
0
0
0
0
0
0
0
0
0
0
0
0
0
0
0
0
0
0
0
0
0
0
0
0
0
0
0
0
0
0
0
0
0
0
0
0
0
0
0
0
0
0
0
0
0
0
0
0
0
0
0
0
0
0
0
0
0
0
0
0
0
0
0
0
0
0
0
0
0
0
0
0
0
0
0
0
0
0
0
0
0
0
-1.19409e-68
-3.8083e-69
-4.27961e-70
-1.37496e-70
-1.43145e-71
-4.63282e-72
-4.46747e-73
-1.45648e-73
-1.30069e-74
-4.27136e-75
-3.53207e-76
-1.16825e-76
-8.94418e-78
-2.97936e-78
-2.11167e-79
-7.08339e-80
-4.64735e-81
-1.56967e-81
-9.53233e-83
-3.24148e-83
-1.82192e-84
-6.2369e-85
-3.2443e-86
-1.11791e-86
-5.38144e-88
-1.8663e-88
-8.31357e-90
-2.9015e-90
-1.19596e-91
-4.20012e-92
-1.60182e-93
-5.66015e-94
-1.99713e-95
-7.09994e-96
-2.31752e-97
-8.28843e-98
-2.50263e-99
-9.00352e-100
-2.5145e-101
-9.09925e-102
-2.35027e-103
-8.55427e-104
-2.04326e-105
-7.47953e-106
-1.65196e-107
-6.08147e-108
-1.24186e-109
-4.59744e-110
-8.67894e-112
-3.23091e-112
-5.63783e-114
-2.11039e-114
-3.40357e-116
-1.28103e-116
-1.90924e-118
-7.225e-119
-9.94977e-121
-3.78554e-121
-4.81635e-123
-1.84227e-123
-2.1652e-125
-8.32603e-126
-9.03806e-128
-3.49387e-128
-3.50245e-130
-1.36108e-130
-1.25982e-132
-4.92138e-133
-4.20539e-135
-1.65135e-135
-1.30251e-137
-5.14117e-138
-3.74241e-140
-1.48481e-140
-9.97319e-143
-3.97726e-143
-2.46458e-145
-9.87911e-146
-5.64668e-148
-2.27502e-148
-1.19921e-150
-4.85626e-151
-2.36027e-153
-9.60678e-154
-4.3043e-156
-1.76086e-156
-7.27153e-159
-2.98985e-159
-1.13773e-161
-4.70177e-162
-1.64833e-164
-6.84648e-165
-2.21081e-167
-9.22933e-168
-2.74448e-170
-1.15153e-170
-3.15263e-173
-1.32948e-173
-3.35033e-176
-1.42001e-176
-3.2931e-179
-1.40282e-179
-2.99309e-182
-1.28148e-182
-2.51495e-185
-1.08222e-185
-1.95311e-188
-8.44717e-189
-1.40154e-191
-6.09238e-192
-9.29083e-195
-4.05915e-195
-5.68807e-198
-2.49773e-198
-3.21532e-201
-1.41908e-201
-1.67772e-204
-7.44226e-205
-8.07858e-208
-3.60184e-208
-3.58885e-211
-1.60824e-211
-1.47049e-214
-6.62316e-215
-5.55566e-218
-2.51506e-218
-1.93489e-221
-8.80399e-222
-6.21015e-225
-2.84012e-225
-1.83633e-228
-8.44103e-229
-5.00121e-232
-2.31064e-232
-1.25415e-235
-5.82398e-236
-2.89502e-239
-1.35124e-239
-6.14964e-243
-2.88495e-243
-1.20175e-246
-5.66645e-247
-2.15981e-250
-1.02357e-250
-3.56882e-254
-1.69992e-254
-5.4201e-258
-2.59481e-258
-7.56365e-262
-3.63933e-262
-9.69536e-266
-4.68854e-266
-1.14122e-269
-5.54652e-270
-1.23316e-273
-6.02329e-274
-1.22285e-277
-6.00263e-278
-1.1125e-281
-5.48793e-282
-9.28248e-286
-4.60148e-286
-7.10121e-290
-3.5373e-290
-4.97934e-294
-2.49229e-294
-3.19927e-298
-1.60894e-298
-1.88294e-302
-9.51395e-303
-1.01485e-306
-5.15147e-307
-5.00746e-311
-2.5534e-311
-2.2613e-315
-1.15822e-315
-9.34328e-320
-4.80627e-320
-4.94066e-324
0
0
0
0
0
0
0
0
0
0
0
0
0
0
0
0
0
0
0
0
0
0
0
0
0
0
0
0
0
0
0
0
0
0
0
0
0
0
0
0
0
0
0
0
0
0
0
0
0
0
0
0
0
0
0
0
0
0
0
0
0
0
0
0
0
0
0
0
0
0
0
0
0
0
0
0
0
0
0
0
0
0
0
0
0
0
0
0
0
0
0
0
0
0
0
0
0
0
0
0
0
0
0
0
0
0
0
0
0
0
0
0
0
0
0
0
0
0
0
0
0
0
0
0
0
0
0
0
0
0
0
0
0
0
0
0
0
0
0
0
0
0
0
0
0
0
0
0
-9.84967e-69
-3.66509e-69
-3.534e-70
-1.3247e-70
-1.18342e-71
-4.46865e-72
-3.69786e-73
-1.40657e-73
-1.07797e-74
-4.13018e-75
-2.93106e-76
-1.1311e-76
-7.43212e-78
-2.88846e-78
-1.75706e-79
-6.8766e-80
-3.87227e-81
-1.52595e-81
-7.95364e-83
-3.15561e-83
-1.52233e-84
-6.08025e-85
-2.71466e-86
-1.09138e-86
-4.50931e-88
-1.8246e-88
-6.97618e-90
-2.84072e-90
-1.00499e-91
-4.11798e-92
-1.34795e-93
-5.55731e-94
-1.68296e-95
-6.98074e-96
-1.95568e-97
-8.16064e-98
-2.11478e-99
-8.87692e-100
-2.1277e-101
-8.98353e-102
-1.99141e-103
-8.45682e-104
-1.73356e-105
-7.4041e-106
-1.40339e-107
-6.02797e-108
-1.05634e-109
-4.56281e-110
-7.39161e-112
-3.21058e-112
-4.80745e-114
-2.09968e-114
-2.90574e-116
-1.27605e-116
-1.63188e-118
-7.20537e-119
-8.514e-121
-3.77955e-121
-4.1259e-123
-1.8414e-123
-1.8568e-125
-8.33108e-126
-7.75884e-128
-3.49966e-128
-3.00977e-130
-1.36472e-130
-1.08367e-132
-4.93941e-133
-3.62081e-135
-1.65898e-135
-1.12248e-137
-5.16968e-138
-3.22798e-140
-1.49437e-140
-8.60956e-143
-4.00628e-143
-2.12933e-145
-9.95935e-146
-4.88238e-148
-2.2953e-148
-1.03767e-150
-4.90324e-151
-2.04377e-153
-9.70667e-154
-3.72963e-156
-1.78038e-156
-6.30473e-159
-3.02496e-159
-9.87054e-162
-4.75989e-162
-1.43085e-164
-6.9351e-165
-1.92013e-167
-9.35386e-168
-2.38481e-170
-1.16765e-170
-2.74072e-173
-1.34872e-173
-2.91381e-176
-1.44119e-176
-2.86512e-179
-1.4243e-179
-2.60499e-182
-1.30156e-182
-2.1895e-185
-1.09953e-185
-1.7008e-188
-8.5846e-189
-1.22075e-191
-6.19294e-192
-8.09377e-195
-4.12694e-195
-4.95584e-198
-2.53982e-198
-2.80164e-201
-1.44315e-201
-1.46192e-204
-7.56893e-205
-7.03937e-208
-3.6632e-208
-3.12699e-211
-1.63558e-211
-1.2811e-214
-6.73517e-215
-4.83932e-218
-2.55724e-218
-1.68503e-221
-8.94994e-222
-5.40668e-225
-2.88649e-225
-1.59819e-228
-8.57621e-229
-4.35085e-232
-2.34678e-232
-1.09054e-235
-5.91252e-236
-2.51596e-239
-1.37109e-239
-5.34108e-243
-2.92566e-243
-1.04301e-246
-5.74268e-247
-1.87303e-250
-1.03658e-250
-3.09221e-254
-1.72012e-254
-4.69164e-258
-2.62328e-258
-6.54001e-262
-3.67557e-262
-8.37323e-266
-4.72999e-266
-9.84307e-270
-5.58876e-270
-1.06207e-273
-6.06107e-274
-1.05154e-277
-6.03146e-278
-9.55006e-282
-5.50549e-282
-7.95347e-286
-4.60817e-286
-6.07209e-290
-3.53573e-290
-4.24827e-294
-2.48603e-294
-2.72295e-298
-1.60129e-298
-1.59839e-302
-9.44561e-303
-8.59025e-307
-5.10089e-307
-4.22544e-311
-2.52103e-311
-1.90172e-315
-1.13996e-315
-7.82896e-320
-4.71437e-320
-4.94066e-324
0
0
0
0
0
0
0
0
0
0
0
0
0
0
0
0
0
0
0
0
0
0
0
0
0
0
0
0
0
0
0
0
0
0
0
0
0
0
0
0
0
0
0
0
0
0
0
0
0
0
0
0
0
0
0
0
0
0
0
0
0
0
0
0
0
0
0
0
0
0
0
0
0
0
0
0
0
0
0
0
0
0
0
0
0
0
0
0
0
0
0
0
0
0
0
0
0
0
0
0
0
0
0
0
0
0
0
0
0
0
0
0
0
0
0
0
0
0
0
0
0
0
0
0
0
0
0
0
0
0
0
0
0
0
0
0
0
0
0
0
0
0
0
0
0
0
0
0
-8.39505e-69
-3.57025e-69
-3.01846e-70
-1.29316e-70
-1.01289e-71
-4.37133e-72
-3.17145e-73
-1.37875e-73
-9.2637e-75
-4.05659e-75
-2.52377e-76
-1.11312e-76
-6.41158e-78
-2.84798e-78
-1.51861e-79
-6.79285e-80
-3.3528e-81
-1.51009e-81
-6.89873e-83
-3.12829e-83
-1.32266e-84
-6.03784e-85
-2.36247e-86
-1.08555e-86
-3.93049e-88
-1.81773e-88
-6.08996e-90
-2.83433e-90
-8.78607e-92
-4.11473e-92
-1.18009e-93
-5.56073e-94
-1.47536e-95
-6.99444e-96
-1.71664e-97
-8.18716e-98
-1.85857e-99
-8.9167e-100
-1.8721e-101
-9.03433e-102
-1.75412e-103
-8.51407e-104
-1.5286e-105
-7.46205e-106
-1.23869e-107
-6.08119e-108
-9.33236e-110
-4.60741e-110
-6.53596e-112
-3.24482e-112
-4.25445e-114
-2.12383e-114
-2.57346e-116
-1.29172e-116
-1.4463e-118
-7.29908e-119
-7.55081e-121
-3.83126e-121
-3.66137e-123
-1.86774e-123
-1.64867e-125
-8.45502e-126
-6.89266e-128
-3.55355e-128
-2.675e-130
-1.38638e-130
-9.63533e-133
-5.0199e-133
-3.22058e-135
-1.68664e-135
-9.98724e-138
-5.25759e-138
-2.87289e-140
-1.52021e-140
-7.66423e-143
-4.07651e-143
-1.89589e-145
-1.01359e-145
-4.34773e-148
-2.33634e-148
-9.24128e-151
-4.99143e-151
-1.82026e-153
-9.88192e-154
-3.3218e-156
-1.81257e-156
-5.61518e-159
-3.0796e-159
-8.79042e-162
-4.8456e-162
-1.27414e-164
-7.05931e-165
-1.70959e-167
-9.52009e-168
-2.12292e-170
-1.1882e-170
-2.4392e-173
-1.37216e-173
-2.59256e-176
-1.46586e-176
-2.54846e-179
-1.44826e-179
-2.31628e-182
-1.32303e-182
-1.94609e-185
-1.11725e-185
-1.51108e-188
-8.71936e-189
-1.08407e-191
-6.28734e-192
-7.18391e-195
-4.1878e-195
-4.3963e-198
-2.57591e-198
-2.48385e-201
-1.46281e-201
-1.29526e-204
-7.66733e-205
-6.23261e-208
-3.70837e-208
-2.76659e-211
-1.65458e-211
-1.13256e-214
-6.80828e-215
-4.27465e-218
-2.58293e-218
-1.48709e-221
-9.03214e-222
-4.76707e-225
-2.91036e-225
-1.40772e-228
-8.63884e-229
-3.82825e-232
-2.36151e-232
-9.58473e-236
-5.94321e-236
-2.20863e-239
-1.37663e-239
-4.68272e-243
-2.93394e-243
-9.13216e-247
-5.75154e-247
-1.63762e-250
-1.03677e-250
-2.6995e-254
-1.71797e-254
-4.08926e-258
-2.616e-258
-5.69063e-262
-3.65944e-262
-7.27263e-266
-4.70116e-266
-8.53291e-270
-5.54459e-270
-9.18832e-274
-6.00155e-274
-9.0775e-278
-5.95997e-278
-8.22515e-282
-5.42836e-282
-6.83323e-286
-4.53305e-286
-5.20317e-290
-3.46948e-290
-3.63016e-294
-2.43301e-294
-2.31982e-298
-1.56273e-298
-1.3574e-302
-9.1904e-303
-7.27018e-307
-4.94711e-307
-3.56302e-311
-2.43662e-311
-1.59729e-315
-1.09773e-315
-6.54785e-320
-4.52218e-320
0
0
0
0
0
0
0
0
0
0
0
0
0
0
0
0
0
0
0
0
0
0
0
0
0
0
0
0
0
0
0
0
0
0
0
0
0
0
0
0
0
0
0
0
0
0
0
0
0
0
0
0
0
0
0
0
0
0
0
0
0
0
0
0
0
0
0
0
0
0
0
0
0
0
0
0
0
0
0
0
0
0
0
0
0
0
0
0
0
0
0
0
0
0
0
0
0
0
0
0
0
0
0
0
0
0
0
0
0
0
0
0
0
0
0
0
0
0
0
0
0
0
0
0
0
0
0
0
0
0
0
0
0
0
0
0
0
0
0
0
0
0
0
0
0
0
0
0
0
-7.2965e-69
-3.49114e-69
-2.62919e-70
-1.26726e-70
-8.84084e-72
-4.29265e-72
-2.77357e-73
-1.35658e-73
-8.11644e-75
-3.99875e-75
-2.21506e-76
-1.09916e-76
-5.63648e-78
-2.81685e-78
-1.33706e-79
-6.72886e-80
-2.95618e-81
-1.498e-81
-6.09068e-83
-3.10735e-83
-1.16917e-84
-6.00478e-85
-2.09067e-86
-1.08082e-86
-3.48189e-88
-1.81169e-88
-5.39998e-90
-2.82759e-90
-7.7973e-92
-4.10848e-92
-1.04809e-93
-5.55658e-94
-1.31124e-95
-6.99403e-96
-1.5266e-97
-8.19168e-98
-1.6537e-99
-8.92638e-100
-1.6665e-101
-9.04826e-102
-1.56206e-103
-8.53048e-104
-1.36166e-105
-7.47879e-106
-1.10368e-107
-6.09634e-108
-8.31672e-110
-4.61973e-110
-5.82533e-112
-3.25389e-112
-3.79209e-114
-2.12989e-114
-2.29379e-116
-1.29541e-116
-1.28905e-118
-7.31952e-119
-6.72907e-121
-3.84157e-121
-3.26238e-123
-1.87246e-123
-1.46869e-125
-8.47463e-126
-6.13861e-128
-3.56087e-128
-2.38162e-130
-1.38881e-130
-8.57555e-133
-5.02696e-133
-2.86521e-135
-1.68835e-135
-8.88132e-138
-5.26062e-138
-2.55354e-140
-1.52036e-140
-6.80874e-143
-4.07484e-143
-1.68333e-145
-1.01261e-145
-3.85799e-148
-2.33272e-148
-8.19516e-151
-4.9806e-151
-1.61313e-153
-9.85399e-154
-2.94176e-156
-1.8062e-156
-4.96912e-159
-3.06655e-159
-7.77309e-162
-4.82144e-162
-1.12579e-164
-7.01857e-165
-1.50928e-167
-9.45742e-168
-1.87258e-170
-1.17938e-170
-2.14965e-173
-1.36078e-173
-2.2827e-176
-1.45238e-176
-2.24174e-179
-1.4336e-179
-2.03551e-182
-1.30836e-182
-1.70847e-185
-1.10377e-185
-1.32519e-188
-8.60531e-189
-9.49689e-192
-6.19854e-192
-6.28644e-195
-4.12416e-195
-3.84271e-198
-2.53393e-198
-2.16853e-201
-1.43732e-201
-1.12947e-204
-7.52479e-205
-5.4281e-208
-3.635e-208
-2.4064e-211
-1.61981e-211
-9.83813e-215
-6.65664e-215
-3.70819e-218
-2.52205e-218
-1.28823e-221
-8.80719e-222
-4.12361e-225
-2.83388e-225
-1.21589e-228
-8.39961e-229
-3.30149e-232
-2.29267e-232
-8.25272e-236
-5.76103e-236
-1.89856e-239
-1.3323e-239
-4.01844e-243
-2.83474e-243
-7.82279e-247
-5.54755e-247
-1.40024e-250
-9.98221e-251
-2.30377e-254
-1.65102e-254
-3.48284e-258
-2.50923e-258
-4.83667e-262
-3.50306e-262
-6.16786e-266
-4.49087e-266
-7.22028e-270
-5.28503e-270
-7.75639e-274
-5.70757e-274
-7.64375e-278
-5.65451e-278
-6.90791e-282
-5.13726e-282
-5.72312e-286
-4.2787e-286
-4.34524e-290
-3.26576e-290
-3.02233e-294
-2.28349e-294
-1.92515e-298
-1.46219e-298
-1.12262e-302
-8.57122e-303
-5.99088e-307
-4.59797e-307
-2.92476e-311
-2.25641e-311
-1.3058e-315
-1.01262e-315
-5.32949e-320
-4.1541e-320
0
0
0
0
0
0
0
0
0
0
0
0
0
0
0
0
0
0
0
0
0
0
0
0
0
0
0
0
0
0
0
0
0
0
0
0
0
0
0
0
0
0
0
0
0
0
0
0
0
0
0
0
0
0
0
0
0
0
0
0
0
0
0
0
0
0
0
0
0
0
0
0
0
0
0
0
0
0
0
0
0
0
0
0
0
0
0
0
0
0
0
0
0
0
0
0
0
0
0
0
0
0
0
0
0
0
0
0
0
0
0
0
0
0
0
0
0
0
0
0
0
0
0
0
0
0
0
0
0
0
0
0
0
0
0
0
0
0
0
0
0
0
0
0
0
0
0
0
0
-6.38929e-69
-3.39699e-69
-2.30614e-70
-1.23515e-70
-7.76633e-72
-4.19023e-72
-2.4398e-73
-1.32603e-73
-7.14846e-75
-3.91348e-75
-1.953e-76
-1.07689e-76
-4.9744e-78
-2.76241e-78
-1.18098e-79
-6.60429e-80
-2.61293e-81
-1.47131e-81
-5.38666e-83
-3.05379e-83
-1.03452e-84
-5.90412e-85
-1.85058e-86
-1.0631e-86
-3.08288e-88
-1.78248e-88
-4.78202e-90
-2.7825e-90
-6.90559e-92
-4.04331e-92
-9.28227e-94
-5.46845e-94
-1.16119e-95
-6.88254e-96
-1.35168e-97
-8.05981e-98
-1.46387e-99
-8.78062e-100
-1.47475e-101
-8.8978e-102
-1.38182e-103
-8.38552e-104
-1.20401e-105
-7.3485e-106
-9.75414e-108
-5.98717e-108
-7.34608e-110
-4.53449e-110
-5.14233e-112
-3.19191e-112
-3.34527e-114
-2.08795e-114
-2.02208e-116
-1.26901e-116
-1.1355e-118
-7.16494e-119
-5.92277e-121
-3.75745e-121
-2.86906e-123
-1.82993e-123
-1.29049e-125
-8.27488e-126
-5.38884e-128
-3.47377e-128
-2.08875e-130
-1.35356e-130
-7.51358e-133
-4.89455e-133
-2.50784e-135
-1.64222e-135
-7.76545e-138
-5.11155e-138
-2.23031e-140
-1.4757e-140
-5.94034e-143
-3.9508e-143
-1.46698e-145
-9.80688e-146
-3.35826e-148
-2.25659e-148
-7.12525e-151
-4.8124e-151
-1.40085e-153
-9.50987e-154
-2.55152e-156
-1.74101e-156
-4.30459e-159
-2.95222e-159
-6.72508e-162
-4.63586e-162
-9.72754e-165
-6.73983e-165
-1.30242e-167
-9.07008e-168
-1.61379e-170
-1.12959e-170
-1.85009e-173
-1.3016e-173
-1.96193e-176
-1.38735e-176
-1.92408e-179
-1.36754e-179
-1.74463e-182
-1.24635e-182
-1.46225e-185
-1.04997e-185
-1.13259e-188
-8.1743e-189
-8.10481e-192
-5.8796e-192
-5.35705e-195
-3.90626e-195
-3.26971e-198
-2.3965e-198
-1.84238e-201
-1.35733e-201
-9.58117e-205
-7.09523e-205
-4.59741e-208
-3.42221e-208
-2.0349e-211
-1.5226e-211
-8.30589e-215
-6.24722e-215
-3.12552e-218
-2.36311e-218
-1.08399e-221
-8.23859e-222
-3.46394e-225
-2.64649e-225
-1.0196e-228
-7.8308e-229
-2.7636e-232
-2.1337e-232
-6.89564e-236
-5.35205e-236
-1.58341e-239
-1.23547e-239
-3.34503e-243
-2.62384e-243
-6.49914e-247
-5.12504e-247
-1.16098e-250
-9.20394e-251
-1.90618e-254
-1.51924e-254
-2.87563e-258
-2.30418e-258
-3.98465e-262
-3.20994e-262
-5.0698e-266
-4.10606e-266
-5.92089e-270
-4.82118e-270
-6.34499e-274
-5.19437e-274
-6.23698e-278
-5.13352e-278
-5.62168e-282
-4.65208e-282
-4.64465e-286
-3.86435e-286
-3.51626e-290
-2.94136e-290
-2.43836e-294
-2.05073e-294
-1.54826e-298
-1.30918e-298
-8.99837e-303
-7.64997e-303
-4.78519e-307
-4.0901e-307
-2.32751e-311
-2.00014e-311
-1.03509e-315
-8.94286e-316
-4.20746e-320
-3.6546e-320
0
0
0
0
0
0
0
0
0
0
0
0
0
0
0
0
0
0
0
0
0
0
0
0
0
0
0
0
0
0
0
0
0
0
0
0
0
0
0
0
0
0
0
0
0
0
0
0
0
0
0
0
0
0
0
0
0
0
0
0
0
0
0
0
0
0
0
0
0
0
0
0
0
0
0
0
0
0
0
0
0
0
0
0
0
0
0
0
0
0
0
0
0
0
0
0
0
0
0
0
0
0
0
0
0
0
0
0
0
0
0
0
0
0
0
0
0
0
0
0
0
0
0
0
0
0
0
0
0
0
0
0
0
0
0
0
0
0
0
0
0
0
0
0
0
0
0
0
0
-5.58912e-69
-3.26897e-69
-2.01926e-70
-1.18974e-70
-6.8056e-72
-4.0394e-72
-2.13934e-73
-1.27911e-73
-6.27115e-75
-3.77683e-75
-1.7139e-76
-1.03965e-76
-4.36631e-78
-2.66744e-78
-1.0367e-79
-6.37778e-80
-2.29364e-81
-1.4208e-81
-4.72775e-83
-2.94854e-83
-9.07748e-85
-5.69924e-85
-1.62325e-86
-1.02586e-86
-2.703e-88
-1.7193e-88
-4.19059e-90
-2.68247e-90
-6.04788e-92
-3.89563e-92
-8.12387e-94
-5.26516e-94
-1.01552e-95
-6.62176e-96
-1.18116e-97
-7.74814e-98
-1.27808e-99
-8.43373e-100
-1.28637e-101
-8.53836e-102
-1.20413e-103
-8.03887e-104
-1.0481e-105
-7.03746e-106
-8.48191e-108
-5.72757e-108
-6.38077e-110
-4.33302e-110
-4.46141e-112
-3.04656e-112
-2.89883e-114
-1.99048e-114
-1.75006e-116
-1.20828e-116
-9.815e-119
-6.81344e-119
-5.11288e-121
-3.5685e-121
-2.47346e-123
-1.73561e-123
-1.11105e-125
-7.8378e-126
-4.63317e-128
-3.28578e-128
-1.79334e-130
-1.27853e-130
-6.44182e-133
-4.6167e-133
-2.14704e-135
-1.54678e-135
-6.63858e-138
-4.80752e-138
-1.90386e-140
-1.3859e-140
-5.06335e-143
-3.70489e-143
-1.24853e-145
-9.18278e-146
-2.85388e-148
-2.1098e-148
-6.0459e-151
-4.49256e-151
-1.18683e-153
-8.86427e-154
-2.15836e-156
-1.62032e-156
-3.63566e-159
-2.74334e-159
-5.67115e-162
-4.30115e-162
-8.19021e-165
-6.24345e-165
-1.09486e-167
-8.38889e-168
-1.35446e-170
-1.0431e-170
-1.5503e-173
-1.20004e-173
-1.64139e-176
-1.27706e-176
-1.60713e-179
-1.25681e-179
-1.45489e-182
-1.14359e-182
-1.21742e-185
-9.61851e-186
-9.41412e-189
-7.47609e-189
-6.72568e-192
-5.36863e-192
-4.43814e-195
-3.56093e-195
-2.70434e-198
-2.18104e-198
-1.52126e-201
-1.23324e-201
-7.89786e-205
-6.43583e-205
-3.78325e-208
-3.09894e-208
-1.67167e-211