/*--------------------------------*- C++ -*----------------------------------*\
| =========                 |                                                 |
| \\      /  F ield         | OpenFOAM: The Open Source CFD Toolbox           |
|  \\    /   O peration     | Version:  v1912                                 |
|   \\  /    A nd           | Website:  www.openfoam.com                      |
|    \\/     M anipulation  |                                                 |
\*---------------------------------------------------------------------------*/
FoamFile
{
    version     2.0;
    format      ascii;
    class       volSymmTensorField;
    location    "70";
    object      R;
}
// * * * * * * * * * * * * * * * * * * * * * * * * * * * * * * * * * * * * * //

dimensions      [0 2 -2 0 0 0 0];


internalField   nonuniform List<symmTensor> 
14268
(
(2.20086e-12 1.50869e-14 0 2.10934e-12 0 2.15499e-12)
(2.25907e-12 1.4629e-14 0 2.16923e-12 0 2.21405e-12)
(2.31594e-12 1.41515e-14 0 2.22791e-12 0 2.27183e-12)
(2.37146e-12 1.36572e-14 0 2.28534e-12 0 2.32831e-12)
(2.4256e-12 1.31492e-14 0 2.34148e-12 0 2.38346e-12)
(2.47832e-12 1.26298e-14 0 2.3963e-12 0 2.43724e-12)
(2.52961e-12 1.21017e-14 0 2.44974e-12 0 2.48961e-12)
(2.57944e-12 1.15672e-14 0 2.50179e-12 0 2.54055e-12)
(2.6278e-12 1.10286e-14 0 2.55241e-12 0 2.59005e-12)
(2.67468e-12 1.04881e-14 0 2.60159e-12 0 2.63809e-12)
(2.72008e-12 9.9476e-15 0 2.64931e-12 0 2.68465e-12)
(2.764e-12 9.40901e-15 0 2.69556e-12 0 2.72974e-12)
(2.80645e-12 8.87402e-15 0 2.74034e-12 0 2.77336e-12)
(2.84743e-12 8.34417e-15 0 2.78365e-12 0 2.81551e-12)
(2.88695e-12 7.82087e-15 0 2.8255e-12 0 2.8562e-12)
(2.92504e-12 7.30537e-15 0 2.86589e-12 0 2.89544e-12)
(2.96171e-12 6.79879e-15 0 2.90484e-12 0 2.93325e-12)
(2.99698e-12 6.3021e-15 0 2.94236e-12 0 2.96965e-12)
(3.03089e-12 5.81613e-15 0 2.97847e-12 0 3.00466e-12)
(3.06345e-12 5.34164e-15 0 3.0132e-12 0 3.03831e-12)
(3.0947e-12 4.87919e-15 0 3.04657e-12 0 3.07062e-12)
(3.12466e-12 4.42933e-15 0 3.07861e-12 0 3.10163e-12)
(3.15337e-12 3.99243e-15 0 3.10935e-12 0 3.13135e-12)
(3.18087e-12 3.56882e-15 0 3.13882e-12 0 3.15983e-12)
(3.20717e-12 3.1587e-15 0 3.16704e-12 0 3.1871e-12)
(3.23233e-12 2.76225e-15 0 3.19406e-12 0 3.21319e-12)
(3.25637e-12 2.37953e-15 0 3.2199e-12 0 3.23813e-12)
(3.27932e-12 2.01056e-15 0 3.24461e-12 0 3.26196e-12)
(3.30123e-12 1.65529e-15 0 3.2682e-12 0 3.28472e-12)
(3.32213e-12 1.31363e-15 0 3.29073e-12 0 3.30643e-12)
(3.34206e-12 9.85441e-16 0 3.31222e-12 0 3.32714e-12)
(3.36104e-12 6.70538e-16 0 3.33272e-12 0 3.34688e-12)
(3.37911e-12 3.68699e-16 0 3.35224e-12 0 3.36568e-12)
(3.39632e-12 7.96817e-17 0 3.37084e-12 0 3.38358e-12)
(3.41268e-12 -1.96791e-16 0 3.38854e-12 0 3.40061e-12)
(3.42824e-12 -4.61017e-16 0 3.40538e-12 0 3.41681e-12)
(3.44302e-12 -7.13309e-16 0 3.42139e-12 0 3.43221e-12)
(3.45706e-12 -9.54002e-16 0 3.4366e-12 0 3.44684e-12)
(3.47039e-12 -1.18343e-15 0 3.45105e-12 0 3.46073e-12)
(3.48303e-12 -1.40196e-15 0 3.46477e-12 0 3.47391e-12)
(3.49503e-12 -1.60993e-15 0 3.47779e-12 0 3.48642e-12)
(3.5064e-12 -1.80771e-15 0 3.49014e-12 0 3.49828e-12)
(3.51718e-12 -1.99566e-15 0 3.50184e-12 0 3.50952e-12)
(3.52738e-12 -2.17416e-15 0 3.51293e-12 0 3.52016e-12)
(3.53704e-12 -2.34354e-15 0 3.52343e-12 0 3.53025e-12)
(3.54619e-12 -2.50419e-15 0 3.53338e-12 0 3.53979e-12)
(3.55484e-12 -2.65644e-15 0 3.54279e-12 0 3.54882e-12)
(3.56302e-12 -2.80066e-15 0 3.55169e-12 0 3.55736e-12)
(3.57075e-12 -2.93717e-15 0 3.5601e-12 0 3.56543e-12)
(3.57805e-12 -3.06633e-15 0 3.56806e-12 0 3.57306e-12)
(3.58495e-12 -3.18843e-15 0 3.57557e-12 0 3.58027e-12)
(3.59146e-12 -3.30384e-15 0 3.58266e-12 0 3.58707e-12)
(3.59761e-12 -3.41282e-15 0 3.58936e-12 0 3.59349e-12)
(3.60341e-12 -3.5157e-15 0 3.59568e-12 0 3.59955e-12)
(3.60887e-12 -3.61276e-15 0 3.60164e-12 0 3.60526e-12)
(3.61402e-12 -3.70429e-15 0 3.60725e-12 0 3.61065e-12)
(3.61888e-12 -3.79055e-15 0 3.61255e-12 0 3.61572e-12)
(3.62345e-12 -3.87181e-15 0 3.61754e-12 0 3.6205e-12)
(3.62776e-12 -3.94833e-15 0 3.62223e-12 0 3.625e-12)
(3.63181e-12 -4.02034e-15 0 3.62665e-12 0 3.62924e-12)
(3.63562e-12 -4.08808e-15 0 3.63081e-12 0 3.63323e-12)
(3.63921e-12 -4.15177e-15 0 3.63473e-12 0 3.63698e-12)
(3.64258e-12 -4.21163e-15 0 3.63841e-12 0 3.6405e-12)
(3.64575e-12 -4.26786e-15 0 3.64187e-12 0 3.64381e-12)
(3.64872e-12 -4.32066e-15 0 3.64511e-12 0 3.64693e-12)
(3.65152e-12 -4.37021e-15 0 3.64817e-12 0 3.64985e-12)
(3.65414e-12 -4.4167e-15 0 3.65103e-12 0 3.65259e-12)
(3.6566e-12 -4.46029e-15 0 3.65372e-12 0 3.65517e-12)
(3.65891e-12 -4.50115e-15 0 3.65624e-12 0 3.65759e-12)
(3.66108e-12 -4.53943e-15 0 3.65861e-12 0 3.65985e-12)
(3.66311e-12 -4.57528e-15 0 3.66083e-12 0 3.66197e-12)
(3.66501e-12 -4.60884e-15 0 3.6629e-12 0 3.66396e-12)
(3.66679e-12 -4.64025e-15 0 3.66485e-12 0 3.66583e-12)
(3.66846e-12 -4.66962e-15 0 3.66667e-12 0 3.66757e-12)
(3.67002e-12 -4.69708e-15 0 3.66838e-12 0 3.66921e-12)
(3.67148e-12 -4.72274e-15 0 3.66997e-12 0 3.67073e-12)
(3.67284e-12 -4.74671e-15 0 3.67147e-12 0 3.67216e-12)
(3.67412e-12 -4.76909e-15 0 3.67286e-12 0 3.6735e-12)
(3.67531e-12 -4.78999e-15 0 3.67416e-12 0 3.67475e-12)
(3.67643e-12 -4.80948e-15 0 3.67538e-12 0 3.67591e-12)
(3.67747e-12 -4.82765e-15 0 3.67652e-12 0 3.677e-12)
(3.67844e-12 -4.84459e-15 0 3.67758e-12 0 3.67802e-12)
(3.67934e-12 -4.86038e-15 0 3.67857e-12 0 3.67897e-12)
(3.68019e-12 -4.87508e-15 0 3.6795e-12 0 3.67985e-12)
(3.68098e-12 -4.88877e-15 0 3.68036e-12 0 3.68068e-12)
(3.68171e-12 -4.90151e-15 0 3.68116e-12 0 3.68145e-12)
(3.68239e-12 -4.91336e-15 0 3.68191e-12 0 3.68216e-12)
(3.68303e-12 -4.92437e-15 0 3.6826e-12 0 3.68283e-12)
(3.68362e-12 -4.93461e-15 0 3.68325e-12 0 3.68345e-12)
(3.68418e-12 -4.94412e-15 0 3.68386e-12 0 3.68402e-12)
(3.68469e-12 -4.95295e-15 0 3.68442e-12 0 3.68456e-12)
(3.68516e-12 -4.96114e-15 0 3.68494e-12 0 3.68506e-12)
(3.68561e-12 -4.96875e-15 0 3.68542e-12 0 3.68552e-12)
(3.68602e-12 -4.97579e-15 0 3.68587e-12 0 3.68595e-12)
(3.6864e-12 -4.98233e-15 0 3.68629e-12 0 3.68635e-12)
(3.68675e-12 -4.98838e-15 0 3.68668e-12 0 3.68672e-12)
(3.68708e-12 -4.99398e-15 0 3.68703e-12 0 3.68707e-12)
(3.68739e-12 -4.99917e-15 0 3.68737e-12 0 3.68739e-12)
(3.68767e-12 -5.00397e-15 0 3.68768e-12 0 3.68768e-12)
(3.68793e-12 -5.00841e-15 0 3.68796e-12 0 3.68795e-12)
(3.68817e-12 -5.01251e-15 0 3.68823e-12 0 3.68821e-12)
(3.68839e-12 -5.01629e-15 0 3.68847e-12 0 3.68844e-12)
(3.6886e-12 -5.01979e-15 0 3.6887e-12 0 3.68866e-12)
(3.68879e-12 -5.02301e-15 0 3.68891e-12 0 3.68886e-12)
(3.68897e-12 -5.02599e-15 0 3.6891e-12 0 3.68904e-12)
(3.68913e-12 -5.02873e-15 0 3.68928e-12 0 3.68921e-12)
(3.68928e-12 -5.03125e-15 0 3.68944e-12 0 3.68937e-12)
(3.68942e-12 -5.03358e-15 0 3.68959e-12 0 3.68951e-12)
(3.68955e-12 -5.03572e-15 0 3.68973e-12 0 3.68965e-12)
(3.68966e-12 -5.03768e-15 0 3.68986e-12 0 3.68977e-12)
(3.68977e-12 -5.03949e-15 0 3.68998e-12 0 3.68988e-12)
(3.68987e-12 -5.04115e-15 0 3.69009e-12 0 3.68999e-12)
(3.68996e-12 -5.04267e-15 0 3.69018e-12 0 3.69008e-12)
(3.69004e-12 -5.04406e-15 0 3.69028e-12 0 3.69017e-12)
(3.69012e-12 -5.04534e-15 0 3.69036e-12 0 3.69025e-12)
(3.69019e-12 -5.0465e-15 0 3.69043e-12 0 3.69032e-12)
(3.69025e-12 -5.04757e-15 0 3.6905e-12 0 3.69039e-12)
(3.69031e-12 -5.04854e-15 0 3.69057e-12 0 3.69045e-12)
(3.69036e-12 -5.04942e-15 0 3.69062e-12 0 3.6905e-12)
(3.69041e-12 -5.05023e-15 0 3.69068e-12 0 3.69055e-12)
(3.69045e-12 -5.05095e-15 0 3.69072e-12 0 3.69059e-12)
(3.69049e-12 -5.05161e-15 0 3.69076e-12 0 3.69064e-12)
(3.69052e-12 -5.0522e-15 0 3.6908e-12 0 3.69067e-12)
(3.69056e-12 -5.05274e-15 0 3.69083e-12 0 3.6907e-12)
(3.69057e-12 -5.05321e-15 0 3.69086e-12 0 3.69072e-12)
(3.69061e-12 -5.05365e-15 0 3.69089e-12 0 3.69076e-12)
(3.69061e-12 -5.05401e-15 0 3.6909e-12 0 3.69076e-12)
(3.69064e-12 -5.05436e-15 0 3.69093e-12 0 3.6908e-12)
(3.69064e-12 -5.05461e-15 0 3.69093e-12 0 3.69079e-12)
(3.69067e-12 -5.05492e-15 0 3.69096e-12 0 3.69083e-12)
(3.69065e-12 -5.05507e-15 0 3.69094e-12 0 3.69081e-12)
(3.69069e-12 -5.05534e-15 0 3.69098e-12 0 3.69085e-12)
(3.69066e-12 -5.0554e-15 0 3.69095e-12 0 3.69081e-12)
(3.69071e-12 -5.0557e-15 0 3.691e-12 0 3.69086e-12)
(3.69066e-12 -5.05567e-15 0 3.69096e-12 0 3.69082e-12)
(3.69073e-12 -5.05605e-15 0 3.69102e-12 0 3.69089e-12)
(3.69068e-12 -5.05598e-15 0 3.69097e-12 0 3.69084e-12)
(3.69077e-12 -5.05651e-15 0 3.69107e-12 0 3.69093e-12)
(3.69072e-12 -5.05646e-15 0 3.69101e-12 0 3.69087e-12)
(3.69083e-12 -5.05718e-15 0 3.69114e-12 0 3.69099e-12)
(3.69079e-12 -5.05725e-15 0 3.69109e-12 0 3.69095e-12)
(3.69091e-12 -5.05799e-15 0 3.69122e-12 0 3.69107e-12)
(3.69088e-12 -5.05818e-15 0 3.69119e-12 0 3.69104e-12)
(3.691e-12 -5.05955e-15 0 3.69132e-12 0 3.69117e-12)
(3.69098e-12 -5.05961e-15 0 3.6913e-12 0 3.69115e-12)
(3.69107e-12 -5.05975e-15 0 3.6914e-12 0 3.69124e-12)
(3.69105e-12 -5.0599e-15 0 3.69137e-12 0 3.69122e-12)
(3.6911e-12 -5.06011e-15 0 3.69143e-12 0 3.69128e-12)
(3.69108e-12 -5.06015e-15 0 3.6914e-12 0 3.69125e-12)
(3.69111e-12 -5.06019e-15 0 3.69143e-12 0 3.69128e-12)
(3.69108e-12 -5.06015e-15 0 3.69141e-12 0 3.69125e-12)
(3.6911e-12 -5.06011e-15 0 3.69142e-12 0 3.69127e-12)
(3.69107e-12 -5.06003e-15 0 3.6914e-12 0 3.69124e-12)
(3.69108e-12 -5.05995e-15 0 3.6914e-12 0 3.69125e-12)
(3.69106e-12 -5.05986e-15 0 3.69138e-12 0 3.69123e-12)
(3.69106e-12 -5.05978e-15 0 3.69139e-12 0 3.69123e-12)
(3.69104e-12 -5.05971e-15 0 3.69137e-12 0 3.69121e-12)
(3.69105e-12 -5.05964e-15 0 3.69137e-12 0 3.69122e-12)
(3.69104e-12 -5.05966e-15 0 3.69136e-12 0 3.69121e-12)
(3.69105e-12 -5.05956e-15 0 3.69137e-12 0 3.69122e-12)
(3.6911e-12 -5.06006e-15 0 3.69143e-12 0 3.69127e-12)
(3.69111e-12 -5.05647e-15 0 3.69144e-12 0 3.69129e-12)
(3.69337e-12 -5.06981e-15 0 3.69381e-12 0 3.6936e-12)
(3.73822e-12 -4.73185e-15 0 3.73885e-12 0 3.73854e-12)
(6.54491e-11 7.33374e-13 0 6.08816e-11 0 6.31598e-11)
(6.71587e-11 7.10549e-13 0 6.26743e-11 0 6.49113e-11)
(6.8828e-11 6.86767e-13 0 6.44328e-11 0 6.66256e-11)
(7.04567e-11 6.62173e-13 0 6.61562e-11 0 6.83021e-11)
(7.20443e-11 6.36909e-13 0 6.78433e-11 0 6.99397e-11)
(7.35896e-11 6.11098e-13 0 6.94923e-11 0 7.15372e-11)
(7.50922e-11 5.84867e-13 0 7.11021e-11 0 7.30938e-11)
(7.65515e-11 5.58332e-13 0 7.26714e-11 0 7.46084e-11)
(7.79672e-11 5.31607e-13 0 7.41995e-11 0 7.60806e-11)
(7.93391e-11 5.04795e-13 0 7.56856e-11 0 7.75098e-11)
(8.06672e-11 4.77994e-13 0 7.71291e-11 0 7.88958e-11)
(8.19514e-11 4.51294e-13 0 7.85295e-11 0 8.02384e-11)
(8.31922e-11 4.24779e-13 0 7.98867e-11 0 8.15376e-11)
(8.43896e-11 3.98525e-13 0 8.12004e-11 0 8.27933e-11)
(8.55442e-11 3.726e-13 0 8.24707e-11 0 8.4006e-11)
(8.66565e-11 3.47066e-13 0 8.36979e-11 0 8.51759e-11)
(8.7727e-11 3.21977e-13 0 8.4882e-11 0 8.63034e-11)
(8.87566e-11 2.97381e-13 0 8.60237e-11 0 8.73892e-11)
(8.97459e-11 2.73318e-13 0 8.71233e-11 0 8.84337e-11)
(9.06958e-11 2.49826e-13 0 8.81816e-11 0 8.94379e-11)
(9.16071e-11 2.26932e-13 0 8.9199e-11 0 9.04024e-11)
(9.24808e-11 2.04662e-13 0 9.01765e-11 0 9.13281e-11)
(9.33177e-11 1.83035e-13 0 9.11147e-11 0 9.22158e-11)
(9.4119e-11 1.62066e-13 0 9.20146e-11 0 9.30665e-11)
(9.48856e-11 1.41766e-13 0 9.28771e-11 0 9.38811e-11)
(9.56185e-11 1.22143e-13 0 9.37031e-11 0 9.46606e-11)
(9.63187e-11 1.032e-13 0 9.44935e-11 0 9.5406e-11)
(9.69873e-11 8.49376e-14 0 9.52494e-11 0 9.61183e-11)
(9.76253e-11 6.73531e-14 0 9.59718e-11 0 9.67985e-11)
(9.82338e-11 5.04425e-14 0 9.66618e-11 0 9.74478e-11)
(9.88138e-11 3.41979e-14 0 9.73202e-11 0 9.80671e-11)
(9.93662e-11 1.86109e-14 0 9.79483e-11 0 9.86574e-11)
(9.98923e-11 3.6702e-15 0 9.8547e-11 0 9.92198e-11)
(1.00393e-10 -1.06363e-14 0 9.91173e-11 0 9.97552e-11)
(1.00869e-10 -2.43222e-14 0 9.96604e-11 0 1.00265e-10)
(1.01321e-10 -3.74023e-14 0 1.00177e-10 0 1.00749e-10)
(1.01751e-10 -4.98922e-14 0 1.00669e-10 0 1.0121e-10)
(1.0216e-10 -6.18083e-14 0 1.01136e-10 0 1.01648e-10)
(1.02547e-10 -7.31673e-14 0 1.0158e-10 0 1.02064e-10)
(1.02915e-10 -8.3987e-14 0 1.02001e-10 0 1.02458e-10)
(1.03264e-10 -9.42845e-14 0 1.02401e-10 0 1.02833e-10)
(1.03595e-10 -1.04078e-13 0 1.0278e-10 0 1.03188e-10)
(1.03908e-10 -1.13386e-13 0 1.0314e-10 0 1.03524e-10)
(1.04204e-10 -1.22225e-13 0 1.03481e-10 0 1.03843e-10)
(1.04485e-10 -1.30614e-13 0 1.03804e-10 0 1.04145e-10)
(1.04751e-10 -1.38571e-13 0 1.0411e-10 0 1.04431e-10)
(1.05002e-10 -1.46112e-13 0 1.04399e-10 0 1.04701e-10)
(1.0524e-10 -1.53256e-13 0 1.04673e-10 0 1.04957e-10)
(1.05465e-10 -1.60019e-13 0 1.04932e-10 0 1.05199e-10)
(1.05677e-10 -1.66417e-13 0 1.05177e-10 0 1.05427e-10)
(1.05878e-10 -1.72467e-13 0 1.05408e-10 0 1.05643e-10)
(1.06067e-10 -1.78185e-13 0 1.05626e-10 0 1.05847e-10)
(1.06245e-10 -1.83585e-13 0 1.05833e-10 0 1.06039e-10)
(1.06414e-10 -1.88684e-13 0 1.06027e-10 0 1.06221e-10)
(1.06572e-10 -1.93494e-13 0 1.06211e-10 0 1.06392e-10)
(1.06722e-10 -1.9803e-13 0 1.06384e-10 0 1.06553e-10)
(1.06863e-10 -2.02306e-13 0 1.06547e-10 0 1.06705e-10)
(1.06996e-10 -2.06334e-13 0 1.067e-10 0 1.06849e-10)
(1.07121e-10 -2.10127e-13 0 1.06845e-10 0 1.06983e-10)
(1.07239e-10 -2.13698e-13 0 1.06981e-10 0 1.0711e-10)
(1.0735e-10 -2.17056e-13 0 1.07109e-10 0 1.0723e-10)
(1.07454e-10 -2.20215e-13 0 1.0723e-10 0 1.07342e-10)
(1.07552e-10 -2.23183e-13 0 1.07343e-10 0 1.07448e-10)
(1.07644e-10 -2.25972e-13 0 1.0745e-10 0 1.07547e-10)
(1.0773e-10 -2.2859e-13 0 1.0755e-10 0 1.0764e-10)
(1.07811e-10 -2.31048e-13 0 1.07644e-10 0 1.07728e-10)
(1.07887e-10 -2.33354e-13 0 1.07732e-10 0 1.0781e-10)
(1.07959e-10 -2.35517e-13 0 1.07815e-10 0 1.07887e-10)
(1.08026e-10 -2.37544e-13 0 1.07893e-10 0 1.0796e-10)
(1.08089e-10 -2.39444e-13 0 1.07966e-10 0 1.08028e-10)
(1.08148e-10 -2.41223e-13 0 1.08034e-10 0 1.08091e-10)
(1.08203e-10 -2.42888e-13 0 1.08098e-10 0 1.08151e-10)
(1.08255e-10 -2.44447e-13 0 1.08158e-10 0 1.08207e-10)
(1.08303e-10 -2.45905e-13 0 1.08214e-10 0 1.08259e-10)
(1.08348e-10 -2.47268e-13 0 1.08267e-10 0 1.08308e-10)
(1.08391e-10 -2.48542e-13 0 1.08316e-10 0 1.08354e-10)
(1.0843e-10 -2.49732e-13 0 1.08362e-10 0 1.08397e-10)
(1.08467e-10 -2.50843e-13 0 1.08405e-10 0 1.08437e-10)
(1.08502e-10 -2.51881e-13 0 1.08445e-10 0 1.08474e-10)
(1.08534e-10 -2.52849e-13 0 1.08483e-10 0 1.08509e-10)
(1.08565e-10 -2.53751e-13 0 1.08518e-10 0 1.08542e-10)
(1.08593e-10 -2.54593e-13 0 1.08551e-10 0 1.08572e-10)
(1.08619e-10 -2.55377e-13 0 1.08581e-10 0 1.08601e-10)
(1.08644e-10 -2.56108e-13 0 1.0861e-10 0 1.08627e-10)
(1.08667e-10 -2.56788e-13 0 1.08636e-10 0 1.08652e-10)
(1.08688e-10 -2.57421e-13 0 1.08661e-10 0 1.08675e-10)
(1.08708e-10 -2.58009e-13 0 1.08684e-10 0 1.08696e-10)
(1.08726e-10 -2.58557e-13 0 1.08706e-10 0 1.08716e-10)
(1.08743e-10 -2.59066e-13 0 1.08726e-10 0 1.08735e-10)
(1.08759e-10 -2.59538e-13 0 1.08744e-10 0 1.08752e-10)
(1.08774e-10 -2.59977e-13 0 1.08761e-10 0 1.08768e-10)
(1.08788e-10 -2.60385e-13 0 1.08777e-10 0 1.08783e-10)
(1.08801e-10 -2.60763e-13 0 1.08792e-10 0 1.08797e-10)
(1.08813e-10 -2.61113e-13 0 1.08806e-10 0 1.0881e-10)
(1.08824e-10 -2.61438e-13 0 1.08819e-10 0 1.08822e-10)
(1.08834e-10 -2.61739e-13 0 1.08831e-10 0 1.08833e-10)
(1.08844e-10 -2.62018e-13 0 1.08842e-10 0 1.08843e-10)
(1.08853e-10 -2.62276e-13 0 1.08852e-10 0 1.08853e-10)
(1.08861e-10 -2.62515e-13 0 1.08862e-10 0 1.08862e-10)
(1.08868e-10 -2.62735e-13 0 1.08871e-10 0 1.0887e-10)
(1.08875e-10 -2.62939e-13 0 1.08879e-10 0 1.08878e-10)
(1.08882e-10 -2.63128e-13 0 1.08886e-10 0 1.08885e-10)
(1.08888e-10 -2.63302e-13 0 1.08893e-10 0 1.08891e-10)
(1.08893e-10 -2.63462e-13 0 1.089e-10 0 1.08897e-10)
(1.08899e-10 -2.6361e-13 0 1.08906e-10 0 1.08903e-10)
(1.08903e-10 -2.63747e-13 0 1.08911e-10 0 1.08908e-10)
(1.08908e-10 -2.63872e-13 0 1.08916e-10 0 1.08912e-10)
(1.08912e-10 -2.63988e-13 0 1.08921e-10 0 1.08917e-10)
(1.08915e-10 -2.64095e-13 0 1.08925e-10 0 1.08921e-10)
(1.08919e-10 -2.64193e-13 0 1.08929e-10 0 1.08924e-10)
(1.08922e-10 -2.64282e-13 0 1.08933e-10 0 1.08928e-10)
(1.08925e-10 -2.64365e-13 0 1.08936e-10 0 1.08931e-10)
(1.08927e-10 -2.64441e-13 0 1.08939e-10 0 1.08934e-10)
(1.0893e-10 -2.6451e-13 0 1.08942e-10 0 1.08936e-10)
(1.08932e-10 -2.64574e-13 0 1.08945e-10 0 1.08939e-10)
(1.08934e-10 -2.64632e-13 0 1.08947e-10 0 1.08941e-10)
(1.08936e-10 -2.64685e-13 0 1.08949e-10 0 1.08943e-10)
(1.08937e-10 -2.64733e-13 0 1.08951e-10 0 1.08945e-10)
(1.08939e-10 -2.64777e-13 0 1.08953e-10 0 1.08946e-10)
(1.0894e-10 -2.64817e-13 0 1.08954e-10 0 1.08948e-10)
(1.08942e-10 -2.64853e-13 0 1.08956e-10 0 1.08949e-10)
(1.08943e-10 -2.64886e-13 0 1.08957e-10 0 1.0895e-10)
(1.08944e-10 -2.64916e-13 0 1.08958e-10 0 1.08951e-10)
(1.08945e-10 -2.64942e-13 0 1.08959e-10 0 1.08952e-10)
(1.08945e-10 -2.64966e-13 0 1.0896e-10 0 1.08953e-10)
(1.08946e-10 -2.64987e-13 0 1.08961e-10 0 1.08954e-10)
(1.08946e-10 -2.65005e-13 0 1.08961e-10 0 1.08954e-10)
(1.08947e-10 -2.65023e-13 0 1.08962e-10 0 1.08955e-10)
(1.08947e-10 -2.65035e-13 0 1.08962e-10 0 1.08955e-10)
(1.08948e-10 -2.6505e-13 0 1.08963e-10 0 1.08956e-10)
(1.08947e-10 -2.65057e-13 0 1.08963e-10 0 1.08956e-10)
(1.08949e-10 -2.65071e-13 0 1.08964e-10 0 1.08957e-10)
(1.08948e-10 -2.65074e-13 0 1.08963e-10 0 1.08956e-10)
(1.08949e-10 -2.65089e-13 0 1.08965e-10 0 1.08957e-10)
(1.08948e-10 -2.65087e-13 0 1.08963e-10 0 1.08956e-10)
(1.0895e-10 -2.65106e-13 0 1.08965e-10 0 1.08958e-10)
(1.08948e-10 -2.65102e-13 0 1.08964e-10 0 1.08956e-10)
(1.08951e-10 -2.65129e-13 0 1.08966e-10 0 1.08959e-10)
(1.08949e-10 -2.65126e-13 0 1.08965e-10 0 1.08958e-10)
(1.08953e-10 -2.65163e-13 0 1.08969e-10 0 1.08961e-10)
(1.08951e-10 -2.65166e-13 0 1.08967e-10 0 1.0896e-10)
(1.08955e-10 -2.65204e-13 0 1.08971e-10 0 1.08964e-10)
(1.08954e-10 -2.65214e-13 0 1.0897e-10 0 1.08963e-10)
(1.08958e-10 -2.65254e-13 0 1.08974e-10 0 1.08966e-10)
(1.08957e-10 -2.65267e-13 0 1.08974e-10 0 1.08966e-10)
(1.0896e-10 -2.65295e-13 0 1.08977e-10 0 1.08969e-10)
(1.08959e-10 -2.65303e-13 0 1.08976e-10 0 1.08968e-10)
(1.0896e-10 -2.65313e-13 0 1.08977e-10 0 1.08969e-10)
(1.0896e-10 -2.65315e-13 0 1.08977e-10 0 1.08969e-10)
(1.0896e-10 -2.65317e-13 0 1.08978e-10 0 1.0897e-10)
(1.0896e-10 -2.65315e-13 0 1.08977e-10 0 1.08969e-10)
(1.0896e-10 -2.65313e-13 0 1.08977e-10 0 1.08969e-10)
(1.08959e-10 -2.65309e-13 0 1.08976e-10 0 1.08968e-10)
(1.0896e-10 -2.65305e-13 0 1.08977e-10 0 1.08969e-10)
(1.08959e-10 -2.653e-13 0 1.08976e-10 0 1.08968e-10)
(1.08959e-10 -2.65296e-13 0 1.08976e-10 0 1.08968e-10)
(1.08959e-10 -2.65293e-13 0 1.08976e-10 0 1.08968e-10)
(1.08959e-10 -2.65289e-13 0 1.08976e-10 0 1.08968e-10)
(1.08959e-10 -2.6529e-13 0 1.08976e-10 0 1.08968e-10)
(1.08959e-10 -2.65285e-13 0 1.08976e-10 0 1.08968e-10)
(1.0896e-10 -2.6531e-13 0 1.08977e-10 0 1.08969e-10)
(1.08961e-10 -2.65122e-13 0 1.08978e-10 0 1.0897e-10)
(1.09026e-10 -2.65783e-13 0 1.09049e-10 0 1.09038e-10)
(1.10233e-10 -2.47767e-13 0 1.10266e-10 0 1.1025e-10)
(4.56464e-10 5.92945e-12 0 4.10914e-10 0 4.33634e-10)
(4.67803e-10 5.71147e-12 0 4.23123e-10 0 4.45412e-10)
(4.78853e-10 5.48678e-12 0 4.35101e-10 0 4.5693e-10)
(4.89613e-10 5.25659e-12 0 4.46842e-10 0 4.68184e-10)
(5.00082e-10 5.02208e-12 0 4.58337e-10 0 4.79169e-10)
(5.10254e-10 4.78427e-12 0 4.69573e-10 0 4.89877e-10)
(5.20128e-10 4.54421e-12 0 4.80543e-10 0 5.00302e-10)
(5.297e-10 4.30285e-12 0 4.91238e-10 0 5.10439e-10)
(5.38972e-10 4.0611e-12 0 5.01653e-10 0 5.20285e-10)
(5.47943e-10 3.81978e-12 0 5.11781e-10 0 5.29837e-10)
(5.56615e-10 3.57967e-12 0 5.2162e-10 0 5.39094e-10)
(5.64988e-10 3.34148e-12 0 5.31166e-10 0 5.48056e-10)
(5.73066e-10 3.10586e-12 0 5.40417e-10 0 5.56723e-10)
(5.80852e-10 2.87338e-12 0 5.49372e-10 0 5.65095e-10)
(5.8835e-10 2.64458e-12 0 5.58032e-10 0 5.73176e-10)
(5.95564e-10 2.41991e-12 0 5.66397e-10 0 5.80967e-10)
(6.025e-10 2.19977e-12 0 5.74469e-10 0 5.88473e-10)
(6.09162e-10 1.98452e-12 0 5.82252e-10 0 5.95697e-10)
(6.15558e-10 1.77444e-12 0 5.89748e-10 0 6.02644e-10)
(6.21692e-10 1.5698e-12 0 5.96961e-10 0 6.09319e-10)
(6.27571e-10 1.37077e-12 0 6.03897e-10 0 6.15727e-10)
(6.33203e-10 1.17754e-12 0 6.1056e-10 0 6.21875e-10)
(6.38593e-10 9.90212e-13 0 6.16955e-10 0 6.27769e-10)
(6.43748e-10 8.08885e-13 0 6.23089e-10 0 6.33415e-10)
(6.48677e-10 6.33602e-13 0 6.28968e-10 0 6.38819e-10)
(6.53385e-10 4.64398e-13 0 6.34598e-10 0 6.43989e-10)
(6.5788e-10 3.01258e-13 0 6.39986e-10 0 6.48931e-10)
(6.62169e-10 1.44168e-13 0 6.45138e-10 0 6.53652e-10)
(6.66259e-10 -6.93114e-15 0 6.50061e-10 0 6.58159e-10)
(6.70158e-10 -1.52098e-13 0 6.54763e-10 0 6.6246e-10)
(6.73871e-10 -2.91423e-13 0 6.59251e-10 0 6.66561e-10)
(6.77407e-10 -4.25001e-13 0 6.63531e-10 0 6.7047e-10)
(6.80771e-10 -5.52946e-13 0 6.67612e-10 0 6.74192e-10)
(6.83971e-10 -6.75379e-13 0 6.71498e-10 0 6.77736e-10)
(6.87013e-10 -7.92432e-13 0 6.75199e-10 0 6.81107e-10)
(6.89903e-10 -9.04245e-13 0 6.7872e-10 0 6.84313e-10)
(6.92648e-10 -1.01096e-12 0 6.82069e-10 0 6.87361e-10)
(6.95254e-10 -1.11273e-12 0 6.85253e-10 0 6.90255e-10)
(6.97726e-10 -1.20971e-12 0 6.88277e-10 0 6.93004e-10)
(7.00071e-10 -1.30206e-12 0 6.91149e-10 0 6.95612e-10)
(7.02294e-10 -1.38992e-12 0 6.93874e-10 0 6.98087e-10)
(7.044e-10 -1.47347e-12 0 6.9646e-10 0 7.00433e-10)
(7.06396e-10 -1.55286e-12 0 6.98911e-10 0 7.02656e-10)
(7.08285e-10 -1.62825e-12 0 7.01234e-10 0 7.04763e-10)
(7.10073e-10 -1.69978e-12 0 7.03435e-10 0 7.06757e-10)
(7.11764e-10 -1.76763e-12 0 7.05518e-10 0 7.08645e-10)
(7.13364e-10 -1.83193e-12 0 7.0749e-10 0 7.10431e-10)
(7.14876e-10 -1.89284e-12 0 7.09356e-10 0 7.12119e-10)
(7.16305e-10 -1.95051e-12 0 7.1112e-10 0 7.13716e-10)
(7.17654e-10 -2.00507e-12 0 7.12787e-10 0 7.15224e-10)
(7.18928e-10 -2.05666e-12 0 7.14363e-10 0 7.16649e-10)
(7.20131e-10 -2.10543e-12 0 7.1585e-10 0 7.17994e-10)
(7.21266e-10 -2.1515e-12 0 7.17255e-10 0 7.19264e-10)
(7.22336e-10 -2.195e-12 0 7.1858e-10 0 7.20462e-10)
(7.23344e-10 -2.23604e-12 0 7.1983e-10 0 7.21591e-10)
(7.24295e-10 -2.27476e-12 0 7.21009e-10 0 7.22656e-10)
(7.25191e-10 -2.31126e-12 0 7.2212e-10 0 7.23659e-10)
(7.26034e-10 -2.34566e-12 0 7.23166e-10 0 7.24604e-10)
(7.26828e-10 -2.37806e-12 0 7.24152e-10 0 7.25494e-10)
(7.27576e-10 -2.40856e-12 0 7.25079e-10 0 7.26332e-10)
(7.28279e-10 -2.43727e-12 0 7.25953e-10 0 7.2712e-10)
(7.28939e-10 -2.46427e-12 0 7.26774e-10 0 7.27861e-10)
(7.29561e-10 -2.48965e-12 0 7.27546e-10 0 7.28558e-10)
(7.30145e-10 -2.51351e-12 0 7.28272e-10 0 7.29213e-10)
(7.30693e-10 -2.53591e-12 0 7.28954e-10 0 7.29828e-10)
(7.31208e-10 -2.55695e-12 0 7.29595e-10 0 7.30406e-10)
(7.31691e-10 -2.5767e-12 0 7.30196e-10 0 7.30948e-10)
(7.32145e-10 -2.59523e-12 0 7.3076e-10 0 7.31457e-10)
(7.3257e-10 -2.6126e-12 0 7.3129e-10 0 7.31934e-10)
(7.32969e-10 -2.62889e-12 0 7.31787e-10 0 7.32382e-10)
(7.33343e-10 -2.64415e-12 0 7.32252e-10 0 7.32802e-10)
(7.33693e-10 -2.65844e-12 0 7.32688e-10 0 7.33195e-10)
(7.34021e-10 -2.67182e-12 0 7.33097e-10 0 7.33563e-10)
(7.34328e-10 -2.68434e-12 0 7.3348e-10 0 7.33908e-10)
(7.34615e-10 -2.69605e-12 0 7.33838e-10 0 7.34231e-10)
(7.34884e-10 -2.707e-12 0 7.34173e-10 0 7.34533e-10)
(7.35136e-10 -2.71723e-12 0 7.34486e-10 0 7.34816e-10)
(7.35371e-10 -2.7268e-12 0 7.34779e-10 0 7.3508e-10)
(7.3559e-10 -2.73573e-12 0 7.35053e-10 0 7.35326e-10)
(7.35795e-10 -2.74406e-12 0 7.35309e-10 0 7.35557e-10)
(7.35987e-10 -2.75184e-12 0 7.35548e-10 0 7.35772e-10)
(7.36166e-10 -2.75909e-12 0 7.35771e-10 0 7.35973e-10)
(7.36332e-10 -2.76586e-12 0 7.35979e-10 0 7.3616e-10)
(7.36488e-10 -2.77216e-12 0 7.36173e-10 0 7.36335e-10)
(7.36633e-10 -2.77803e-12 0 7.36354e-10 0 7.36498e-10)
(7.36768e-10 -2.78349e-12 0 7.36522e-10 0 7.3665e-10)
(7.36894e-10 -2.78858e-12 0 7.36679e-10 0 7.36791e-10)
(7.37011e-10 -2.79332e-12 0 7.36825e-10 0 7.36923e-10)
(7.3712e-10 -2.79772e-12 0 7.36961e-10 0 7.37046e-10)
(7.37222e-10 -2.80181e-12 0 7.37088e-10 0 7.3716e-10)
(7.37316e-10 -2.80561e-12 0 7.37206e-10 0 7.37266e-10)
(7.37404e-10 -2.80914e-12 0 7.37315e-10 0 7.37364e-10)
(7.37485e-10 -2.81241e-12 0 7.37417e-10 0 7.37456e-10)
(7.37561e-10 -2.81545e-12 0 7.37511e-10 0 7.37541e-10)
(7.37631e-10 -2.81827e-12 0 7.37599e-10 0 7.3762e-10)
(7.37696e-10 -2.82089e-12 0 7.3768e-10 0 7.37693e-10)
(7.37757e-10 -2.82331e-12 0 7.37756e-10 0 7.37761e-10)
(7.37812e-10 -2.82555e-12 0 7.37826e-10 0 7.37824e-10)
(7.37864e-10 -2.82763e-12 0 7.3789e-10 0 7.37882e-10)
(7.37912e-10 -2.82955e-12 0 7.3795e-10 0 7.37936e-10)
(7.37957e-10 -2.83132e-12 0 7.38006e-10 0 7.37986e-10)
(7.37998e-10 -2.83296e-12 0 7.38057e-10 0 7.38033e-10)
(7.38036e-10 -2.83448e-12 0 7.38105e-10 0 7.38075e-10)
(7.38071e-10 -2.83588e-12 0 7.38149e-10 0 7.38115e-10)
(7.38104e-10 -2.83717e-12 0 7.38189e-10 0 7.38151e-10)
(7.38133e-10 -2.83836e-12 0 7.38226e-10 0 7.38185e-10)
(7.38161e-10 -2.83946e-12 0 7.38261e-10 0 7.38216e-10)
(7.38187e-10 -2.84047e-12 0 7.38293e-10 0 7.38245e-10)
(7.3821e-10 -2.8414e-12 0 7.38322e-10 0 7.38271e-10)
(7.38231e-10 -2.84226e-12 0 7.38349e-10 0 7.38295e-10)
(7.38251e-10 -2.84304e-12 0 7.38374e-10 0 7.38317e-10)
(7.38269e-10 -2.84376e-12 0 7.38396e-10 0 7.38338e-10)
(7.38286e-10 -2.84443e-12 0 7.38417e-10 0 7.38357e-10)
(7.38301e-10 -2.84503e-12 0 7.38436e-10 0 7.38374e-10)
(7.38315e-10 -2.84559e-12 0 7.38454e-10 0 7.38389e-10)
(7.38328e-10 -2.8461e-12 0 7.3847e-10 0 7.38404e-10)
(7.3834e-10 -2.84656e-12 0 7.38484e-10 0 7.38417e-10)
(7.3835e-10 -2.84699e-12 0 7.38497e-10 0 7.38429e-10)
(7.3836e-10 -2.84737e-12 0 7.38509e-10 0 7.38439e-10)
(7.38369e-10 -2.84772e-12 0 7.3852e-10 0 7.38449e-10)
(7.38376e-10 -2.84804e-12 0 7.3853e-10 0 7.38458e-10)
(7.38384e-10 -2.84832e-12 0 7.38539e-10 0 7.38466e-10)
(7.38389e-10 -2.84858e-12 0 7.38546e-10 0 7.38472e-10)
(7.38395e-10 -2.84881e-12 0 7.38554e-10 0 7.3848e-10)
(7.38399e-10 -2.84901e-12 0 7.38558e-10 0 7.38484e-10)
(7.38405e-10 -2.8492e-12 0 7.38565e-10 0 7.3849e-10)
(7.38406e-10 -2.84935e-12 0 7.38567e-10 0 7.38492e-10)
(7.38412e-10 -2.8495e-12 0 7.38574e-10 0 7.38498e-10)
(7.3841e-10 -2.8496e-12 0 7.38573e-10 0 7.38497e-10)
(7.38417e-10 -2.84973e-12 0 7.3858e-10 0 7.38504e-10)
(7.38413e-10 -2.84979e-12 0 7.38577e-10 0 7.385e-10)
(7.38421e-10 -2.84991e-12 0 7.38585e-10 0 7.38508e-10)
(7.38414e-10 -2.84992e-12 0 7.38578e-10 0 7.38501e-10)
(7.38424e-10 -2.85005e-12 0 7.38589e-10 0 7.38511e-10)
(7.38415e-10 -2.85002e-12 0 7.3858e-10 0 7.38503e-10)
(7.38428e-10 -2.8502e-12 0 7.38594e-10 0 7.38515e-10)
(7.38418e-10 -2.85015e-12 0 7.38583e-10 0 7.38506e-10)
(7.38435e-10 -2.8504e-12 0 7.38602e-10 0 7.38523e-10)
(7.38425e-10 -2.85037e-12 0 7.38592e-10 0 7.38514e-10)
(7.38447e-10 -2.85073e-12 0 7.38617e-10 0 7.38537e-10)
(7.38438e-10 -2.85076e-12 0 7.38609e-10 0 7.38529e-10)
(7.38461e-10 -2.85113e-12 0 7.38634e-10 0 7.38552e-10)
(7.38455e-10 -2.85123e-12 0 7.38629e-10 0 7.38547e-10)
(7.38478e-10 -2.85163e-12 0 7.38655e-10 0 7.38571e-10)
(7.38474e-10 -2.85176e-12 0 7.38651e-10 0 7.38568e-10)
(7.3849e-10 -2.85203e-12 0 7.3867e-10 0 7.38585e-10)
(7.38485e-10 -2.85211e-12 0 7.38666e-10 0 7.38581e-10)
(7.38495e-10 -2.85222e-12 0 7.38676e-10 0 7.38591e-10)
(7.3849e-10 -2.85224e-12 0 7.38671e-10 0 7.38586e-10)
(7.38496e-10 -2.85226e-12 0 7.38677e-10 0 7.38591e-10)
(7.38491e-10 -2.85224e-12 0 7.38672e-10 0 7.38586e-10)
(7.38494e-10 -2.85222e-12 0 7.38675e-10 0 7.38589e-10)
(7.38489e-10 -2.85218e-12 0 7.3867e-10 0 7.38584e-10)
(7.38491e-10 -2.85213e-12 0 7.38671e-10 0 7.38586e-10)
(7.38486e-10 -2.85209e-12 0 7.38667e-10 0 7.38582e-10)
(7.38488e-10 -2.85205e-12 0 7.38668e-10 0 7.38583e-10)
(7.38484e-10 -2.85201e-12 0 7.38664e-10 0 7.38579e-10)
(7.38486e-10 -2.85198e-12 0 7.38665e-10 0 7.3858e-10)
(7.38484e-10 -2.85198e-12 0 7.38664e-10 0 7.38579e-10)
(7.38486e-10 -2.85193e-12 0 7.38665e-10 0 7.3858e-10)
(7.38494e-10 -2.85219e-12 0 7.38676e-10 0 7.3859e-10)
(7.38497e-10 -2.85018e-12 0 7.3868e-10 0 7.38594e-10)
(7.38915e-10 -2.8565e-12 0 7.39153e-10 0 7.39039e-10)
(7.46057e-10 -2.65817e-12 0 7.46401e-10 0 7.46234e-10)
(1.58107e-09 2.05401e-11 0 1.38521e-09 0 1.48285e-09)
(1.61759e-09 1.96415e-11 0 1.42577e-09 0 1.52142e-09)
(1.65308e-09 1.87231e-11 0 1.46554e-09 0 1.55907e-09)
(1.68755e-09 1.77891e-11 0 1.50448e-09 0 1.59579e-09)
(1.721e-09 1.68439e-11 0 1.54258e-09 0 1.63158e-09)
(1.75342e-09 1.58912e-11 0 1.57979e-09 0 1.66641e-09)
(1.78481e-09 1.49347e-11 0 1.61609e-09 0 1.70028e-09)
(1.81518e-09 1.39777e-11 0 1.65145e-09 0 1.73316e-09)
(1.84453e-09 1.30235e-11 0 1.68587e-09 0 1.76506e-09)
(1.87287e-09 1.20749e-11 0 1.71931e-09 0 1.79596e-09)
(1.9002e-09 1.11347e-11 0 1.75178e-09 0 1.82587e-09)
(1.92654e-09 1.02051e-11 0 1.78326e-09 0 1.85479e-09)
(1.95191e-09 9.28859e-12 0 1.81374e-09 0 1.88273e-09)
(1.97632e-09 8.38694e-12 0 1.84324e-09 0 1.90969e-09)
(1.99978e-09 7.50194e-12 0 1.87174e-09 0 1.93568e-09)
(2.02232e-09 6.63511e-12 0 1.89926e-09 0 1.96072e-09)
(2.04395e-09 5.78775e-12 0 1.9258e-09 0 1.98482e-09)
(2.06471e-09 4.96097e-12 0 1.95137e-09 0 2.00799e-09)
(2.0846e-09 4.15567e-12 0 1.97599e-09 0 2.03025e-09)
(2.10365e-09 3.37263e-12 0 1.99967e-09 0 2.05162e-09)
(2.12189e-09 2.6124e-12 0 2.02243e-09 0 2.07212e-09)
(2.13933e-09 1.87546e-12 0 2.04428e-09 0 2.09178e-09)
(2.15601e-09 1.16207e-12 0 2.06525e-09 0 2.11061e-09)
(2.17195e-09 4.72474e-13 0 2.08535e-09 0 2.12863e-09)
(2.18717e-09 -1.93322e-13 0 2.10461e-09 0 2.14587e-09)
(2.20169e-09 -8.3529e-13 0 2.12304e-09 0 2.16235e-09)
(2.21554e-09 -1.4536e-12 0 2.14068e-09 0 2.1781e-09)
(2.22874e-09 -2.04841e-12 0 2.15753e-09 0 2.19313e-09)
(2.24132e-09 -2.62003e-12 0 2.17364e-09 0 2.20748e-09)
(2.2533e-09 -3.16876e-12 0 2.18901e-09 0 2.22116e-09)
(2.26471e-09 -3.69502e-12 0 2.20368e-09 0 2.2342e-09)
(2.27556e-09 -4.19924e-12 0 2.21767e-09 0 2.24662e-09)
(2.28587e-09 -4.6819e-12 0 2.231e-09 0 2.25844e-09)
(2.29568e-09 -5.14352e-12 0 2.2437e-09 0 2.26969e-09)
(2.30499e-09 -5.58464e-12 0 2.25578e-09 0 2.28039e-09)
(2.31384e-09 -6.00582e-12 0 2.26728e-09 0 2.29057e-09)
(2.32223e-09 -6.40766e-12 0 2.27821e-09 0 2.30023e-09)
(2.3302e-09 -6.79075e-12 0 2.2886e-09 0 2.30941e-09)
(2.33775e-09 -7.15568e-12 0 2.29846e-09 0 2.31812e-09)
(2.34491e-09 -7.5031e-12 0 2.30783e-09 0 2.32638e-09)
(2.3517e-09 -7.83359e-12 0 2.31672e-09 0 2.33422e-09)
(2.35813e-09 -8.1478e-12 0 2.32515e-09 0 2.34165e-09)
(2.36421e-09 -8.4463e-12 0 2.33314e-09 0 2.34869e-09)