/*--------------------------------*- C++ -*----------------------------------*\
| =========                 |                                                 |
| \\      /  F ield         | OpenFOAM: The Open Source CFD Toolbox           |
|  \\    /   O peration     | Version:  v1912                                 |
|   \\  /    A nd           | Website:  www.openfoam.com                      |
|    \\/     M anipulation  |                                                 |
\*---------------------------------------------------------------------------*/
FoamFile
{
    version     2.0;
    format      ascii;
    class       surfaceScalarField;
    location    "30";
    object      alphaPhi0.water;
}
// * * * * * * * * * * * * * * * * * * * * * * * * * * * * * * * * * * * * * //

dimensions      [0 3 -1 0 0 0 0];
oriented        oriented;


internalField   nonuniform List<scalar> 
28285
(
0.0674074
0.00270864
0.0634857
0.00392173
0.0575182
0.00596747
0.049474
0.00804419
0.0395957
0.00987827
0.0282797
0.011316
0.0160124
0.0122673
0.00317746
0.0128349
-0.0100018
0.0131793
-0.0222638
0.012262
-0.03352
0.0112562
-0.0434462
0.00992627
-0.0517813
0.00833511
-0.0583108
0.00652944
-0.0628987
0.00458795
-0.0654817
0.00258294
-0.0661344
0.000652681
-0.0648461
-0.00128824
-0.0617927
-0.00305345
-0.0571437
-0.00464901
-0.0511173
-0.00602634
-0.0439647
-0.00715261
-0.0359546
-0.00801017
-0.0273595
-0.00859507
-0.0184456
-0.00891387
-0.0094049
-0.00904071
0.000756304
-0.0101612
0.00966095
-0.00890464
0.0185563
-0.00889533
0.0272663
-0.00871003
0.0357366
-0.00847027
0.0438917
-0.00815512
0.051636
-0.00774434
0.0588388
-0.0072028
0.0653215
-0.0064827
0.0708516
-0.00553002
0.0751497
-0.00429812
0.0779147
-0.00276501
0.0788616
-0.000946917
0.0777716
0.00108994
0.0745203
0.00325131
0.069121
0.00539937
0.0617405
0.00738043
0.0526978
0.00904271
0.0424511
0.0102467
0.0315849
0.0108662
0.0207488
0.0108362
0.00829205
0.0124567
-0.00374779
0.0120398
-0.0137037
0.00995593
-0.0228662
0.00916252
-0.0310729
0.00820669
-0.0384496
0.0073767
-0.0450978
0.00664814
-0.0511154
0.00601761
-0.0565574
0.00544202
-0.0614243
0.00486688
-0.0656572
0.00423297
-0.069136
0.0034787
-0.0716852
0.00254925
-0.0730995
0.00141434
-0.0731833
8.37158e-05
-0.071794
-0.00138925
-0.068877
-0.00291699
-0.0644906
-0.00438646
-0.0588109
-0.00567964
-0.052125
-0.00668591
-0.0448128
-0.00731223
-0.0373848
-0.00742802
-0.0299432
-0.0074416
-0.0214841
-0.00845905
-0.0133253
-0.00815885
-0.00578922
-0.00753604
0.00128345
-0.00707267
0.00689846
-0.00561501
0.0121404
-0.00524192
0.0169027
-0.00476231
0.0212963
-0.00439358
0.0253394
-0.00404311
0.0290387
-0.00369935
0.0323772
-0.00333851
0.0353272
-0.00295
0.0378626
-0.00253534
0.0399731
-0.00211056
0.0416764
-0.0017033
0.0430223
-0.00134584
0.0440883
-0.00106606
0.0449684
-0.000880029
0.0457524
-0.000784075
0.0464977
-0.000745245
0.0472195
-0.000721762
0.0479051
-0.000685672
0.0485074
-0.000602264
0.0489419
-0.00043452
0.049069
-0.000127094
0.0487575
0.000311546
0.0476679
0.00108959
0.0456164
0.00205144
0.0424379
0.00317856
0.0380148
0.00442308
0.0323127
0.00570208
0.0253841
0.00692861
0.0173648
0.00801926
0.00846539
0.00889945
-0.00104876
0.00951414
-0.0108808
0.009832
-0.0207027
0.00982193
-0.0301917
0.00948897
-0.0390427
0.00885101
-0.0469815
0.00793887
-0.0537746
0.00679311
-0.0592345
0.00545986
-0.0632241
0.00398961
-0.0656572
0.00243308
-0.0665032
0.00084599
-0.0658004
-0.000702783
-0.0635957
-0.00220474
-0.0600225
-0.00357317
-0.0552607
-0.0047618
-0.0495429
-0.00571782
-0.0431265
-0.00641638
-0.0364403
-0.00668623
-0.0293892
-0.00705103
-0.022114
-0.00727519
-0.0151632
-0.0069508
-0.00871921
-0.00644404
-0.00289259
-0.00582662
0.00233206
-0.00522464
0.00668838
-0.00435632
0.0104884
-0.0038
0.0138386
-0.00335022
0.0168651
-0.00302649
0.0196822
-0.00281715
0.0223536
-0.00267136
0.024893
-0.00253945
0.0272512
-0.00235815
0.0293204
-0.00206917
0.0309468
-0.00162646
0.031953
-0.00100623
0.0321684
-0.000215392
0.0314631
0.000705315
0.0297801
0.00168298
0.0271483
0.00263181
0.0236762
0.00347218
0.0196413
0.00403483
0.0151935
0.00444786
0.0106633
0.00453013
0.00643006
0.00423328
0.00282773
0.00360233
-5.43633e-05
0.0028821
-0.00151227
0.0014579
-0.0018421
0.000329836
-0.000975217
-0.000866885
0.000999177
-0.00197439
0.00381995
-0.00282078
0.00717555
-0.0033556
0.0109376
-0.00376209
0.0146949
-0.00375722
0.0181846
-0.00348974
0.0211444
-0.00295977
0.0233419
-0.00219755
0.0246038
-0.00126189
0.0247535
-0.000149684
0.000994198
0.06837
0.00454163
0.0644771
0.00781464
0.0584145
0.0120301
0.0502261
0.0162326
0.0401647
0.0199398
0.0286262
0.0228544
0.0160822
0.0248114
0.0029666
0.0259506
-0.0102598
0.0264057
-0.0227451
0.0247473
-0.0341929
0.0227039
-0.0442784
0.0200118
-0.0527408
0.0167975
-0.0593585
0.0131472
-0.0639966
0.00922603
-0.0665916
0.00517791
-0.0671994
0.00126052
-0.0658512
-0.00263643
-0.0626996
-0.00620506
-0.0579162
-0.00943244
-0.0517228
-0.0122197
-0.0443744
-0.014501
-0.0361415
-0.0162431
-0.0272891
-0.0174475
-0.0180409
-0.0181621
-0.00854396
-0.0185376
0.000931736
-0.0196369
0.00996481
-0.0179377
0.0189169
-0.0178474
0.0276514
-0.0174446
0.0361331
-0.0169519
0.0443217
-0.0163438
0.0521485
-0.0155712
0.0594924
-0.0145467
0.0661661
-0.0131564
0.071915
-0.0112789
0.0764311
-0.00881429
0.0793833
-0.00571714
0.0804566
-0.00202028
0.079416
0.00213059
0.0761145
0.0065528
0.0705585
0.0109554
0.0629154
0.0150235
0.0535069
0.0184512
0.0427808
0.0209727
0.0312476
0.0223995
0.0194494
0.0226344
0.00744643
0.0244596
-0.00427418
0.0237605
-0.0144891
0.0201709
-0.0237257
0.0183991
-0.0319218
0.0164028
-0.0392038
0.0146587
-0.0457214
0.0131657
-0.051627
0.0119232
-0.0570277
0.0108427
-0.0619523
0.00979145
-0.0663352
0.00861585
-0.0700211
0.0071646
-0.0727882
0.00531631
-0.0743858
0.00301194
-0.0745803
0.000278229
-0.0732083
-0.00276122
-0.0702006
-0.00592469
-0.0656159
-0.00897118
-0.0596391
-0.0116564
-0.0525624
-0.0137626
-0.0447486
-0.0151261
-0.0365436
-0.015633
-0.0284265
-0.0155587
-0.0203068
-0.0165788
-0.0123627
-0.0161029
-0.00502935
-0.0148694
0.00165931
-0.0137613
0.00735852
-0.0113142
0.0125523
-0.0104357
0.017271
-0.009481
0.0216338
-0.0087564
0.0256798
-0.0080891
0.0294138
-0.00743333
0.0328046
-0.00672931
0.0358034
-0.00594882
0.0383632
-0.00509517
0.0404582
-0.00420555
0.0420982
-0.00334326
0.0433351
-0.00258276
0.0442593
-0.00199029
0.044984
-0.00160467
0.0456222
-0.00142231
0.0462703
-0.00139337
0.0469881
-0.00143951
0.0477764
-0.00147399
0.0485696
-0.00139549
0.0492233
-0.00108824
0.0495474
-0.000451144
0.0493591
0.000499799
0.0484127
0.00203605
0.0464622
0.00400194
0.0433077
0.00633304
0.0388348
0.00889596
0.0330141
0.0115227
0.0259076
0.0140351
0.0176657
0.0162612
0.00851426
0.0180509
-0.00125626
0.0192847
-0.0113464
0.0199222
-0.0214
0.0198755
-0.0310878
0.0191768
-0.0400966
0.0178598
-0.0481488
0.0159911
-0.0550099
0.0136542
-0.0604938
0.0109438
-0.064464
0.00795979
-0.0668424
0.00481141
-0.0676063
0.00160995
-0.0667675
-0.00154155
-0.064397
-0.00457529
-0.0606306
-0.00733959
-0.0556466
-0.00974578
-0.0496763
-0.0116881
-0.0429875
-0.0131051
-0.0358281
-0.0138457
-0.0286365
-0.0142426
-0.0213207
-0.0145909
-0.0143364
-0.0139351
-0.00790456
-0.0128759
-0.00212003
-0.0116111
0.00291788
-0.0102626
0.00720754
-0.00864598
0.0108916
-0.00748408
0.0141233
-0.00658187
0.0170484
-0.00595164
0.0198043
-0.00557305
0.0224704
-0.00533745
0.0250641
-0.00513311
0.0275257
-0.00481978
0.0297261
-0.00426958
0.0314839
-0.00338423
0.0325922
-0.00211456
0.0328546
-0.000477796
0.032122
0.00143791
0.0303305
0.00347449
0.027507
0.00545536
0.0237809
0.00719826
0.019389
0.00842669
0.0146643
0.00917262
0.00990338
0.00929103
0.00551264
0.00862402
0.00181664
0.00729833
-0.000861571
0.0055603
-0.0023044
0.00290073
-0.00246737
0.000492801
-0.00136867
-0.00196559
0.000851717
-0.00419478
0.00394671
-0.00591577
0.00761693
-0.00702582
0.0115344
-0.00767954
0.0154317
-0.0076545
0.0189989
-0.00705701
0.0219726
-0.00593345
0.0241232
-0.00434816
0.0252796
-0.00241829
0.0252752
-0.000145298
0.00219134
0.0697171
0.00589541
0.0658702
0.0116615
0.0596706
0.0182296
0.0512556
0.0246476
0.0409083
0.0302871
0.0290393
0.0347234
0.0161296
0.037721
0.00271153
0.0393686
-0.0106714
0.0397886
-0.0234192
0.0374951
-0.0350746
0.0343593
-0.0453195
0.0302566
-0.0539122
0.0253902
-0.06061
0.019845
-0.0652823
0.0138983
-0.0678864
0.00778197
-0.0683586
0.0017328
-0.0669511
-0.004044
-0.0636759
-0.00948028
-0.0587316
-0.0143767
-0.0523503
-0.018601
-0.0447947
-0.0220567
-0.0363435
-0.0246943
-0.0272704
-0.0265206
-0.0178167
-0.0276157
-0.00817026
-0.0281841
0.00112268
-0.0289298
0.0104036
-0.0272186
0.0194071
-0.0268509
0.0281495
-0.026187
0.0366275
-0.0254299
0.0448299
-0.0245462
0.0527043
-0.0234456
0.0601322
-0.0219746
0.066916
-0.0199402
0.0727822
-0.017145
0.0774009
-0.013433
0.0804209
-0.00873715
0.0815162
-0.00311554
0.0804324
0.00321441
0.0770305
0.0099546
0.0713169
0.016669
0.063467
0.0228735
0.0538113
0.0281069
0.0427966
0.0319875
0.0309044
0.0342916
0.0184834
0.0350554
0.00692136
0.0360217
-0.00458056
0.0352624
-0.0149111
0.0305014
-0.0241726
0.0276606
-0.0323631
0.0245933
-0.0396094
0.021905
-0.0460813
0.0196376
-0.0519492
0.0177911
-0.0573341
0.0162277
-0.0622697
0.014727
-0.0666845
0.0130307
-0.0704104
0.0108905
-0.0732107
0.00811663
-0.0748232
0.00462444
-0.0750108
0.000465868
-0.073602
-0.00417009
-0.0705332
-0.00899343
-0.0658666
-0.0136378
-0.0597909
-0.0177321
-0.0525997
-0.0209538
-0.0446477
-0.023078
-0.0362616
-0.0240192
-0.0278159
-0.0240043
-0.020021
-0.0243737
-0.0121486
-0.0239753
-0.00486856
-0.0221494
0.00177786
-0.0204077
0.00749209
-0.0170285
0.0126854
-0.015629
0.0174097
-0.0142053
0.0217733
-0.01312
0.0258186
-0.0121344
0.0295502
-0.011165
0.0329372
-0.0101162
0.0359303
-0.00894194
0.0384825
-0.00764737
0.040568
-0.00629108
0.0421968
-0.00497204
0.0434205
-0.00380644
0.0443289
-0.0028987
0.0450376
-0.0023134
0.0456678
-0.00205253
0.0463205
-0.00204605
0.0470514
-0.00217038
0.047853
-0.00227562
0.048648
-0.00219049
0.049295
-0.00173521
0.0496101
-0.000766269
0.0494567
0.000653248
0.0484991
0.00299358
0.0465222
0.0059789
0.0433408
0.00951438
0.0388393
0.0133974
0.0329893
0.0173728
0.025854
0.0211704
0.0175854
0.0245298
0.00841074
0.0272255
-0.00137349
0.0290689
-0.0114831
0.0300317
-0.0215485
0.0299409
-0.0312438
0.0288721
-0.0402552
0.0268712
-0.0483051
0.024041
-0.0551589
0.020508
-0.0606305
0.0164154
-0.0645845
0.0119138
-0.0669401
0.00716701
-0.0676697
0.00233956
-0.0668128
-0.00239851
-0.0644183
-0.00696971
-0.0606257
-0.0111322
-0.0556179
-0.0147536
-0.0496257
-0.0176804
-0.04292
-0.0198108
-0.0357492
-0.0210165
-0.0285743
-0.0214175
-0.0212594
-0.0219059
-0.0142857
-0.0209087
-0.00787076
-0.0192909
-0.00209217
-0.0173897
0.00295896
-0.0153137
0.00725992
-0.0129469
0.0109581
-0.0111823
0.0142074
-0.00983119
0.0171477
-0.00889186
0.019912
-0.00833741
0.0225767
-0.00800217
0.0251568
-0.00771321
0.0275924
-0.00725531
0.0297558
-0.00643302
0.0314696
-0.00509803
0.0325331
-0.00317803
0.0327572
-0.000701889
0.031998
0.00219712
0.0301971
0.00527537
0.0273854
0.00826707
0.0236906
0.010893
0.0193598
0.0127576
0.0146839
0.0138485
0.0099802
0.0139947
0.00564226
0.012962
0.00198426
0.0109563
-0.00071513
0.0082597
-0.00215669
0.00434229
-0.00233648
0.000672591
-0.00127952
-0.00302254
0.000898339
-0.00637264
0.00393853
-0.00895596
0.00752949
-0.0106168
0.011425
-0.011575
0.0152888
-0.0115183
0.0188294
-0.0105976
0.0217826
-0.00888661
0.0239211
-0.00648667
0.025075
-0.00357218
0.0250946
-0.000164921
0.00336606
0.0716108
0.00684842
0.0678207
0.0154516
0.0614608
0.0245895
0.0527533
0.0333551
0.042026
0.0410145
0.0297211
0.0470283
0.0163594
0.0510827
0.00248536
0.0532427
-0.0112208
0.0534947
-0.0243273
0.0506017
-0.0363461
0.0463781
-0.0468719
0.0407824
-0.0555816
0.0341
-0.062314
0.0265773
-0.0669562
0.0185406
-0.0694639
0.0102897
-0.0698367
0.00210559
-0.0682569
-0.00562386
-0.0647919
-0.0129453
-0.0596308
-0.0195377
-0.0530135
-0.0252182
-0.0452134
-0.0298568
-0.0365213
-0.0333864
-0.0272266
-0.0358153
-0.0175996
-0.0372428
-0.00790562
-0.037878
0.00133807
-0.0381735
0.0107373
-0.0366179
0.0197906
-0.0359043
0.0285546
-0.0349509
0.0370504
-0.0339257
0.0452899
-0.0327857
0.0532368
-0.0313925
0.0607789
-0.0295166
0.0677138
-0.0268751
0.0737529
-0.0231842
0.0785444
-0.0182244
0.0817109
-0.0119037
0.0828996
-0.00430428
0.0818452
0.00426884
0.0783868
0.013413
0.0725271
0.0225287
0.0644456
0.030955
0.0544849
0.0380676
0.0431103
0.0433621
0.030846
0.0465559
0.0181945
0.0477069
0.00635138
0.0478648
-0.00509099
0.0467047
-0.0155623
0.0409727
-0.0248565
0.0369549
-0.0330237
0.0327604
-0.0401993
0.0290807
-0.0465862
0.0260245
-0.0523881
0.023593
-0.0577527
0.0215923
-0.0627264
0.0197007
-0.0672347
0.017539
-0.0710915
0.0147472
-0.0740329
0.0110581
-0.0757671
0.0063586
-0.0760291
0.000727879
-0.0746317
-0.00556748
-0.0714992
-0.0121259
-0.0666935
-0.0184435
-0.0604113
-0.0240143
-0.0529587
-0.0284064
-0.0447054
-0.0313313
-0.0360204
-0.0327042
-0.0272581
-0.0327666
-0.0193141
-0.0323177
-0.0115575
-0.031732
-0.00436264
-0.0293442
0.00212216
-0.0268926
0.00784471
-0.022751
0.0129963
-0.0207805
0.0176922
-0.0189013
0.0220377
-0.0174655
0.0260851
-0.0161817
0.0298368
-0.0149167
0.0332538
-0.0135333
0.0362751
-0.0119632
0.0388409
-0.0102132
0.0409156
-0.00836576
0.0425042
-0.00656062
0.0436601
-0.00496232
0.044482
-0.00372059
0.0451002
-0.00293161
0.0456535
-0.00260585
0.0462615
-0.00265404
0.0469947
-0.00290363
0.0478515
-0.00313235
0.0487486
-0.00308759
0.0495245
-0.00251115
0.049981
-0.00122273
0.0499299
0.000704271
0.0490969
0.00382658
0.0472061
0.0078697
0.0440589
0.0126616
0.039537
0.0179193
0.0336126
0.0232972
0.0263543
0.0284288
0.017923
0.032961
0.00855786
0.0365907
-0.00143164
0.0390584
-0.0117485
0.0403485
-0.0220102
0.0402026
-0.0318819
0.0387438
-0.0410423
0.0360317
-0.0492095
0.0322082
-0.0561464
0.0274449
-0.0616661
0.0219351
-0.0656325
0.0158802
-0.0679682
0.00950269
-0.0686486
0.00301997
-0.0677054
-0.00334169
-0.0651915
-0.00948371
-0.0612504
-0.0150733
-0.0560665
-0.0199374
-0.0498737
-0.0238732
-0.0429481
-0.0267364
-0.0355523
-0.0284123
-0.0280916
-0.0288782
-0.0207304
-0.0292671
-0.0136885
-0.0279506
-0.00725363
-0.0257258
-0.00146771
-0.0231757
0.0034733
-0.0202547
0.00771461
-0.0171882
0.0113187
-0.0147864
0.0144738
-0.0129863
0.017333
-0.0117511
0.0200473
-0.0110517
0.0227055
-0.0106604
0.0253266
-0.0103343
0.027845
-0.00977377
0.0301187
-0.00870673
0.031949
-0.00692831
0.0331113
-0.00434033
0.0333932
-0.000983735
0.0326307
0.00295955
0.0307586
0.00714751
0.0278024
0.0112233
0.0239052
0.0147901
0.0193126
0.0173502
0.0143744
0.0187866
0.00944211
0.0189271
0.00492632
0.0174778
0.00112132
0.0147613
-0.00152972
0.0109107
-0.002955
0.00576757
-0.00302594
0.000743525
-0.00179507
-0.00425341
0.000571423
-0.00873913
0.00386441
-0.0122489
0.00771528
-0.0144676
0.0118054
-0.0156652
0.0158377
-0.0155506
0.0194988
-0.0142587
0.0225223
-0.0119101
0.0246814
-0.00864579
0.0258076
-0.00469833
0.0257364
-9.37126e-05
0.00465271
0.0738612
0.00747181
0.0700202
0.0192926
0.0634019
0.0312078
0.0543023
0.0424546
0.0431012
0.0522156
0.0302811
0.0598484
0.0164018
0.0649621
0.00214419
0.0675003
-0.0118963
0.0675352
-0.0253529
0.0640583
-0.0376341
0.0586593
-0.0483452
0.0514935
-0.0571887
0.0429436
-0.0639872
0.0333757
-0.0686345
0.0231879
-0.0710924
0.0127476
-0.0713299
0.00234305
-0.0696444
-0.00730932
-0.0660111
-0.0165786
-0.0606464
-0.0249024
-0.0538024
-0.0320622
-0.0457645
-0.0378947
-0.036838
-0.0423129
-0.0273304
-0.0453229
-0.0175365
-0.0470366
-0.00774492
-0.0476696
0.00158615
-0.0475046
0.0110783
-0.0461101
0.0201768
-0.0450027
0.0289615
-0.0437356
0.0374786
-0.0424427
0.0457617
-0.0410688
0.0537901
-0.0394209
0.0614583
-0.0371849
0.0685598
-0.0339766
0.074791
-0.0294154
0.0797762
-0.0232096
0.0831095
-0.0152369
0.0844059
-0.00560075
0.0833911
0.00528369
0.0798749
0.0169292
0.0738574
0.0285462
0.0655248
0.0392875
0.0552376
0.0483549
0.0434906
0.0551091
0.0308565
0.0591899
0.0179398
0.0606237
0.00577718
0.0600274
-0.00568905
0.058171
-0.0162774
0.051561
-0.0255921
0.0462696
-0.0337202
0.0408886
-0.0408149
0.0361753
-0.0471122
0.0323218
-0.0528476
0.0293284
-0.0581927
0.0269373
-0.0632043
0.0247124
-0.0678033
0.022138
-0.0717863
0.0187302
-0.0748636
0.0141354
-0.0767142
0.00820921
-0.0770447
0.00105839
-0.0756546
-0.00695758
-0.072455
-0.0153255
-0.0675093
-0.0233892
-0.061025
-0.0304986
-0.0533262
-0.0361052
-0.044807
-0.0398505
-0.0358741
-0.041637
-0.0269378
-0.0417029
-0.0186599
-0.0405957
-0.011037
-0.0393549
-0.00388286
-0.0364984
0.0024942
-0.0332696
0.00819637
-0.0284532
0.0133029
-0.025887
0.0179684
-0.0235668
0.0222961
-0.0217933
0.0263439
-0.0202294
0.0301111
-0.0186839
0.0335516
-0.0169738
0.0365941
-0.0150057
0.0391689
-0.012788
0.0412325
-0.0104294
0.0427866
-0.00811468
0.0438861
-0.00606183
0.044637
-0.0044715
0.0451827
-0.00347728
0.0456786
-0.0031018
0.0462585
-0.00323389
0.0469996
-0.00364474
0.0479002
-0.00403301
0.0488701
-0.0040574
0.049729
-0.00337009
0.0502669
-0.00176066
0.0503639
0.000607267
0.0496299
0.00456062
0.0478034
0.00969621
0.0446836
0.0157814
0.0401454
0.0224575
0.0341602
0.0292824
0.0268003
0.0357887
0.018234
0.0415273
0.00871079
0.0461139
-0.00144547
0.0492146
-0.0119375
0.0508406
-0.0223642
0.0506293
-0.0323847
0.0487643
-0.0416718
0.0453188
-0.0499395
0.0404759
-0.0569487
0.0344541
-0.0625115
0.0274979
-0.0664923
0.0198611
-0.0688135
0.0118239
-0.0694463
0.00365274
-0.068444
-0.004344
-0.0658394
-0.0120883
-0.0617829
-0.0191298
-0.0564638
-0.0252565
-0.0501202
-0.0302168
-0.0430335
-0.0338231
-0.0354813
-0.0359646
-0.0278219
-0.0365376
-0.0204154
-0.0366736
-0.0132997
-0.0350664
-0.00683277
-0.0321927
-0.0010071
-0.0290013
0.00386054
-0.0251223
0.00806029
-0.021388
0.0116032
-0.0183294
0.0146964
-0.0160795
0.0175024
-0.014557
0.0201817
-0.013731
0.0228306
-0.0133093
0.0254697
-0.0129734
0.0280305
-0.0123345
0.0303626
-0.0110389
0.0322556
-0.00882134
0.0334726
-0.00555727
0.0337887
-0.00129983
0.0330292
0.00371896
0.0311243
0.00905241
0.0280989
0.0142487
0.0240998
0.0187893
0.0193828
0.0220672
0.014309
0.0238604
0.00924303
0.0239931
0.00461097
0.0221098
0.00068924
0.0186831
-0.00197872
0.0135787
-0.00342414
0.007213
-0.00347126
0.000790644
-0.00218449
-0.00554018
0.000229835
-0.0111535
0.00365712
-0.0156762
0.00760774
-0.0184183
0.0118145
-0.0198719
0.0159479
-0.0196839
0.0196933
-0.0180042
0.0227812
-0.0149981
0.0249874
-0.010852
0.0261375
-0.00584843
0.0261241
-8.02887e-05
0.00593537
0.076129
0.00796544
0.072263
0.0231586
0.0654391
0.0380316
0.0559907
0.0519031
0.0443438
0.0638625
0.0310285
0.0731636
0.0166561
0.0793346
0.00192866
0.0822277
-0.0125511
0.0820149
-0.0263802
0.0778875
-0.0389656
0.0712447
-0.0499062
0.0624341
-0.058909
0.0519464
-0.0657944
0.0402611
-0.0704609
0.0278544
-0.0728767
0.0151635
-0.072979
0.00244537
-0.0711965
-0.00909177
-0.0673877
-0.0203874
-0.0618063
-0.0304838
-0.0547188
-0.0391497
-0.0464245
-0.046189
-0.037245
-0.0514924
-0.0275064
-0.0550616
-0.0175229
-0.0570201
-0.0075911
-0.0576014
0.00187609
-0.0569718
0.0114287
-0.0556627
0.0205619
-0.0541359
0.0293628
-0.0525366
0.0379014
-0.0509813
0.0462332
-0.0494006
0.0543554
-0.0475431
0.0621711
-0.0450005
0.0694706
-0.0412761
0.0759347
-0.0358795
0.0811607
-0.0284356
0.0847083
-0.0187846
0.0861525
-0.00704488
0.0852096
0.0062266
0.0816484
0.0204904
0.0754641
0.0347305
0.0668503
0.0479012
0.0561903
0.0590149
0.0440173
0.0672822
0.030959
0.0722482
0.0176887
0.073894
0.00509135
0.0726248
-0.00643549
0.0696978
-0.0171378
0.0622633
-0.0264668
0.0555986
-0.0345338
0.0489556
-0.0415198
0.0431614
-0.0477011
0.0385031
-0.053352
0.0349793
-0.0586732
0.0322585
-0.0637345
0.0297737
-0.0684524
0.0268559
-0.0726025
0.0228803
-0.0758635
0.0173964
-0.0778773
0.0102229
-0.0783136
0.00149468
-0.0769511
-0.00832008
-0.0736829
-0.0185937
-0.0685731
-0.028499
-0.0618432
-0.0372285
-0.0538427
-0.0441056
-0.0450003
-0.0486929
-0.0357669
-0.0508705
-0.0265891
-0.0508807
-0.0179294
-0.0492554
-0.0103914
-0.0468929
-0.00327912
-0.0436107
0.00298113
-0.0395299
0.00863846
-0.0341105
0.0136794
-0.0309279
0.0182971
-0.0281845
0.0225988
-0.0260949
0.026648
-0.0242787
0.0304402
-0.0224761
0.0339184
-0.020452
0.0369966
-0.0180839
0.03959
-0.0153814
0.0416437
-0.0124831
0.0431536
-0.00962458
0.0441771
-0.00708529
0.0448305
-0.00512492
0.0452753
-0.0039221
0.0456887
-0.00351521
0.0462237
-0.00376891
0.0469702
-0.00439125
0.0479313
-0.00499412
0.0490112
-0.00513722
0.0500029
-0.00436187
0.0506701
-0.00242783
0.050951
0.000326341
0.0503872
0.00512446
0.0486787
0.0114047
0.0456189
0.0188411
0.0410748
0.0270016
0.035016
0.0353413
0.0275194
0.0432853
0.0187636
0.050283
0.00901294
0.0558646
-0.00139299
0.0596206
-0.0121418
0.0615894
-0.0228164
0.0613039
-0.0330641
0.059012
-0.0425484
0.0548031
-0.0509772
0.0489047
-0.0581078
0.0415846
-0.0637505
0.0331407
-0.0677692
0.0238797
-0.070086
0.0141407
-0.0706682
0.00423491
-0.0695921
-0.00542001
-0.0668619
-0.0148186
-0.0626397
-0.0233519
-0.0571205
-0.0307757
-0.0505488
-0.0367885
-0.0432126
-0.0411593
-0.0354177
-0.0437595
-0.0274606
-0.0444946
-0.019927
-0.0442072
-0.012693
-0.0423004
-0.0061621
-0.0387235
-0.000241304
-0.0349221
0.00447375
-0.0298374
0.00859357
-0.0255078
0.0120246
-0.0217604
0.0150018
-0.0190567
0.0177084
-0.0172636
0.0203245
-0.0163471
0.022962
-0.0159468
0.0256466
-0.015658
0.0283048
-0.0149928
0.0307712
-0.0135053
0.0328116
-0.0108617
0.0341615
-0.0069072
0.0345675
-0.00170584
0.0338299
0.00445663
0.0318671
0.0110152
0.0286989
0.0174168
0.0244836
0.0230046
0.0194921
0.0270586
0.0141144
0.0292382
0.00876585
0.0293416
0.00387893
0.0269967
-0.000252258
0.0228142
-0.00297256
0.016299
-0.00442504
0.00866549
-0.00438279
0.000748396
-0.00293288
-0.0069901
-0.000301792
-0.0137845
0.00338369
-0.0193617
0.00761047
-0.022645
0.0120743
-0.0243357
0.0164315
-0.0240412
0.0203564
-0.0219291
0.0235731
-0.0182147
0.025858
-0.013137
0.0270445
-0.00703489
0.0269753
-1.11648e-05
0.00727138
0.0785979
0.00837394
0.0747058
0.0270507
0.0676831
0.0450544
0.0578817
0.0617045
0.0457703
0.0759738
0.0319288
0.0870051
0.0170185
0.0942448
0.00176091
0.0974853
-0.0132331
0.097009
-0.027481
0.0921353
-0.0404075
0.0841711
-0.0516076
0.0736342
-0.0607919
0.0611307
-0.0677808
0.0472501
-0.0724788
0.0325523
-0.0748576
0.0175422
-0.0748213
0.0024091
-0.0729423
-0.0109708
-0.0689443
-0.0243854
-0.0631273
-0.0363008
-0.0557734
-0.0465037
-0.0471971
-0.0547653
-0.0377379
-0.0609517
-0.0277412
-0.0650582
-0.017538
-0.0672233
-0.00742602
-0.0677134
0.0022499
-0.0666477
0.0118119
-0.0652247
0.0209635
-0.0632874
0.0297712
-0.0613443
0.0383262
-0.0595363
0.0467084
-0.0577828
0.0549353
-0.05577
0.0629209
-0.0529862
0.070453
-0.0488082
0.0771947
-0.0426212
0.0827122
-0.0339531
0.0865241
-0.0225965
0.0881556
-0.00867633
0.0873138
0.00706836
0.083715
0.0240892
0.077348
0.0410975
0.068415
0.0568342
0.0573274
0.0701024
0.0446648
0.0799448
0.0311136
0.0857994
0.0174051
0.0876025
0.00426086
0.085769
-0.00733978
0.0812985
-0.018152
0.0730756
-0.027484
0.0649306
-0.0354629
0.0569345
-0.042308
0.0500064
-0.0483433
0.0445383
-0.053889
0.0405251
-0.0591796
0.037549
-0.0642999
0.0348941
-0.0691605
0.0317164
-0.0735125
0.0272323
-0.0769964
0.0208803
-0.0792099
0.0124364
-0.0797799
0.00206466
-0.0784572
-0.00964276
-0.0751149
-0.021936
-0.0698179
-0.0337959
-0.0628059
-0.0442405
-0.0544609
-0.0524507
-0.0452545
-0.0578994
-0.0356868
-0.0604381
-0.0262472
-0.0603202
-0.0173839
-0.0581187
-0.00967518
-0.0546016
-0.00259625
-0.0506896
0.00355713
-0.0456832
0.00914312
-0.0396965
0.0141014
-0.0358863
0.0186569
-0.03274
0.0229258
-0.0303638
0.0269769
-0.0283297
0.0307999
-0.0262991
0.0343245
-0.0239766
0.0374468
-0.0212063
0.0400644
-0.017999
0.0421086
-0.0145273
0.0435692
-0.0110851
0.0445062
-0.00802235
0.0450484
-0.00566711
0.0453779
-0.00425161
0.0456966
-0.00383384
0.046179
-0.00425137
0.0469291
-0.00514129
0.0479554
-0.00602046
0.0491485
-0.00633036
0.0502671
-0.00548039
0.0511466
-0.00330738
0.0516268
-0.000153835
0.0512507
0.00550057
0.0496794
0.012976
0.0466942
0.0218264
0.0421497
0.0315461
0.0360128
0.0414781
0.0283656
0.0509324
0.0193982
0.0592505
0.00939176
0.065871
-0.00129395
0.0703063
-0.0123329
0.0726284
-0.023287
0.072258
-0.0337907
0.0695157
-0.0434974
0.0645098
-0.0521078
0.0575151
-0.0593755
0.0488523
-0.0651094
0.0388746
-0.0691728
0.0279431
-0.0714891
0.016457
-0.0720196
0.00476546
-0.0708656
-0.00657404
-0.0680015
-0.0176827
-0.0636027
-0.0277507
-0.0578696
-0.0365089
-0.0510546
-0.0436035
-0.0434568
-0.0487571
-0.0354039
-0.0518123
-0.0272077
-0.0526909
-0.0194597
-0.0519551
-0.0120879
-0.0496722
-0.00546704
-0.0453444
0.000413339
-0.0408025
0.00512709
-0.0345511
0.00915101
-0.0295317
0.0124677
-0.0250771
0.0153183
-0.0219072
0.0179161
-0.0198614
0.0204613
-0.0188923
0.0230821
-0.0185676
0.0258102
-0.0183861
0.0285672
-0.0177497
0.031172
-0.0161101
0.0333665
-0.0130562
0.0348584
-0.00839907
0.0353653
-0.00221274
0.034664
0.00515791
0.0326572
0.013022
0.0293615
0.0207126
0.0249416
0.0274246
0.0196865
0.0323136
0.0140153
0.0349094
0.00837764
0.0349793
0.00322089
0.0321535
-0.00104207
0.0270772
-0.00393282
0.0191897
-0.00541685
0.0101495
-0.00533067
0.000662222
-0.00375111
-0.00856966
-0.000904696
-0.016631
0.0029833
-0.0232497
0.00745301
-0.0271148
0.0121585
-0.0290413
0.016734
-0.0286166
0.0208424
-0.0260376
0.0242035
-0.0215758
0.0265953
-0.0155288
0.0278398
-0.00827933
0.0278635
-3.48762e-05
0.00860231
0.0813711
0.00868535
0.0774431
0.0309787
0.0702046
0.0522929
0.0600204
0.0718887
0.0474001
0.0885941
0.0329755
0.10143
0.0174607
0.10976
0.00160855
0.113337
-0.0139692
0.112587
-0.0286915
0.106858
-0.0420024
0.097482
-0.0534952
0.085127
-0.0628834
0.0705188
-0.0699905
0.0543571
-0.074727
0.0372889
-0.0770699
0.0198851
-0.0768904
0.00222963
-0.0749127
-0.0129485
-0.0707038
-0.0285943
-0.0646253
-0.0423793
-0.0569747
-0.0541543
-0.0480829
-0.0636571
-0.0383092
-0.0707254
-0.0280203
-0.075347
-0.0175641
-0.0776795
-0.0072397
-0.0780378
0.0027389
-0.0766263
0.0122387
-0.0747245
0.0213888
-0.0724375
0.0301905
-0.070146
0.0387529
-0.0680988
0.0471837
-0.0662136
0.0555253
-0.0641115
0.0637056
-0.0611664
0.0715101
-0.0566127
0.078582
-0.0496931
0.0844507
-0.0398218
0.088586
-0.0267318
0.0904513
-0.0105417
0.0897456
0.0077741
0.0861181
0.0277167
0.0795497
0.0476659
0.0702524
0.0661316
0.0586713
0.0816835
0.0454409
0.0931753
0.0313166
0.0999236
0.0170986
0.101821
0.00354088
0.0993267
-0.00841006
0.0932494
-0.0193424
0.0840079
-0.0286674
0.0742556
-0.0365256
0.0647927
-0.0431891
0.0566699
-0.0490397
0.0503889
-0.0544531
0.0459385
-0.0597038
0.0427997
-0.0648946
0.0400849
-0.0699289
0.0367506
-0.0745281
0.0318315
-0.0782869
0.0246391
-0.0807489
0.0148984
-0.0814901
0.00280583
-0.0802252
-0.0109076
-0.0768037
-0.0253576
-0.0712915
-0.0393081
-0.0639507
-0.0515813
-0.0552033
-0.061198
-0.0455728
-0.0675299
-0.0356146
-0.0703964
-0.0258598
-0.0700751
-0.016764
-0.0672145
-0.008704
-0.0626616
-0.00179501
-0.0575986
0.00423989
-0.0517181
0.0097234
-0.04518
0.0145771
-0.04074
0.0190523
-0.0372152
0.02328
-0.0345916
0.0273345
-0.0323842
0.0311981
-0.0301627
0.0347834
-0.0275619
0.0379642
-0.0243871
0.0406158
-0.0206506
0.0426524
-0.0165639
0.0440559
-0.0124887
0.0448898
-0.00885625
0.0452975
-0.00607476
0.0454864
-0.00444053
0.045688
-0.00403545
0.0461033
-0.00466668
0.0468544
-0.00589233
0.0479588
-0.0071249
0.0492945
-0.00766601
0.0505811
-0.00676706
0.0517332
-0.00445948
0.052383
-0.000803575
0.0522727
0.00561082
0.0508882
0.0143605
0.0480038
0.0247107
0.0434677
0.0360822
0.0372439
0.047702
0.0294205
0.0587558
0.0202013
0.0684698
0.0098885
0.0761838
-0.00113661
0.0813314
-0.0125226
0.0840144
-0.0238145
0.0835499
-0.034629
0.0803302
-0.0446073
0.0744881
-0.0534416
0.0663493
-0.060881
0.0562917
-0.0667324
0.044726
-0.0708583
0.032069
-0.0731822
0.0187809
-0.0736554
0.00523861
-0.0724225
-0.00780694
-0.0694037
-0.0207015
-0.0647963
-0.0323581
-0.0588082
-0.042497
-0.0517004
-0.0507113
-0.0437856
-0.0566719
-0.0354158
-0.0601821
-0.0269342
-0.0611725
-0.018896
-0.0599934
-0.0113563
-0.0572119
-0.0046205
-0.0520802
0.00118287
-0.0466059
0.0059262
-0.0392945
0.00982813
-0.0334337
0.0129957
-0.0282447
0.0156811
-0.0245926
0.0181365
-0.0223168
0.0205897
-0.0213455
0.0231906
-0.0211685
0.0259791
-0.0211746
0.0288712
-0.0206418
0.0316658
-0.0189047
0.0340729
-0.0154633
0.0357622
-0.0100884
0.0364118
-0.00286228
0.0357659
0.00580373
0.033704
0.015084
0.0302396
0.0241769
0.0255481
0.0321161
0.0199431
0.0379186
0.0138758
0.0409767
0.00785277
0.0410023
0.00232836
0.0376779
-0.00215394
0.0315595
-0.00524611
0.0222819
-0.00676551
0.0116689
-0.00658908
0.000485789
-0.00482743
-0.0103313
-0.00169438
-0.019764
0.00250032
-0.0274444
0.00732505
-0.0319395
0.0123687
-0.0340849
0.0172451
-0.033493
0.0216034
-0.0303958
0.0251549
-0.0251273
0.027681
-0.0180549
0.0290117
-0.00961001
0.0290213
-4.44638e-05
0.00995429
0.0845208
0.0088657
0.0805467
0.0349528
0.0730622
0.0597774
0.0624473
0.0825036
0.049254
0.101787
0.0341696
0.116514
0.0179662
0.125963
0.00144329
0.12986
-0.0147867
0.128817
-0.0300442
0.122115
-0.0437865
0.111224
-0.0556064
0.0969469
-0.0652208
0.0801332
-0.0724587
0.061595
-0.0772383
0.0420685
-0.0795448
0.0221916
-0.0792146
0.00189944
-0.0771341
-0.015029
-0.0726857
-0.0330428
-0.0663141
-0.0487508
-0.0583306
-0.0621378
-0.0490835
-0.0729042
-0.0389541
-0.0808548
-0.0283336
-0.0859676
-0.0175908
-0.0884223
-0.00703649
-0.0885921
0.00309683
-0.0867596
0.0126864
-0.0843141
0.0218399
-0.0815909
0.0306233
-0.0789294
0.0391802
-0.0766558
0.0476545
-0.0746879
0.0561194
-0.0725764
0.0645204
-0.0695675
0.0726416
-0.0647339
0.080103
-0.0571545
0.0863912
-0.04611
0.0909175
-0.0312581
0.0930687
-0.0126928
0.0925393
0.00830346
0.0888926
0.0313633
0.082101
0.0544575
0.0723869
0.0758457
0.0602351
0.0938353
0.0463447
0.107066
0.0315507
0.114718
0.0167322
0.116639
0.00271413
0.113345
-0.00967086
0.105634
-0.020737
0.095074
-0.0300378
0.0835564
-0.0377356
0.0724905
-0.0441677
0.0631021
-0.0497866
0.0560078
-0.055034
0.0511859
-0.0602327
0.0479984
-0.0655063
0.0453586
-0.0707494
0.0419937
-0.0756476