/*--------------------------------*- C++ -*----------------------------------*\
| =========                 |                                                 |
| \\      /  F ield         | OpenFOAM: The Open Source CFD Toolbox           |
|  \\    /   O peration     | Version:  v1912                                 |
|   \\  /    A nd           | Website:  www.openfoam.com                      |
|    \\/     M anipulation  |                                                 |
\*---------------------------------------------------------------------------*/
FoamFile
{
    version     2.0;
    format      ascii;
    class       volSymmTensorField;
    location    "30";
    object      R;
}
// * * * * * * * * * * * * * * * * * * * * * * * * * * * * * * * * * * * * * //

dimensions      [0 2 -2 0 0 0 0];


internalField   nonuniform List<symmTensor> 
14268
(
(7.90808e-07 -1.36285e-07 0 7.11565e-07 0 6.22759e-07)
(6.94737e-07 -1.2295e-07 0 6.99139e-07 0 6.24922e-07)
(6.62252e-07 -1.07771e-07 0 6.77471e-07 0 6.26231e-07)
(6.45669e-07 -9.91953e-08 0 6.57986e-07 0 6.21559e-07)
(6.31906e-07 -9.56459e-08 0 6.35236e-07 0 6.11699e-07)
(6.13228e-07 -9.43121e-08 0 6.17058e-07 0 6.0109e-07)
(5.94464e-07 -9.36187e-08 0 6.02372e-07 0 5.91645e-07)
(5.7646e-07 -9.32444e-08 0 5.90877e-07 0 5.83607e-07)
(5.60477e-07 -9.29747e-08 0 5.82142e-07 0 5.77123e-07)
(5.46039e-07 -9.27413e-08 0 5.74791e-07 0 5.71616e-07)
(5.33465e-07 -9.24892e-08 0 5.69033e-07 0 5.67147e-07)
(5.23424e-07 -9.22581e-08 0 5.64845e-07 0 5.63816e-07)
(5.1627e-07 -9.20946e-08 0 5.62282e-07 0 5.61814e-07)
(5.12658e-07 -9.20413e-08 0 5.61561e-07 0 5.61552e-07)
(5.12055e-07 -9.20163e-08 0 5.62256e-07 0 5.62695e-07)
(5.13466e-07 -9.1927e-08 0 5.64059e-07 0 5.64432e-07)
(5.15961e-07 -9.17763e-08 0 5.66399e-07 0 5.66179e-07)
(5.19139e-07 -9.16099e-08 0 5.69099e-07 0 5.67818e-07)
(5.24454e-07 -9.16136e-08 0 5.72511e-07 0 5.70383e-07)
(5.3208e-07 -9.17976e-08 0 5.77062e-07 0 5.74243e-07)
(5.42187e-07 -9.21465e-08 0 5.82714e-07 0 5.79469e-07)
(5.54534e-07 -9.2637e-08 0 5.89285e-07 0 5.85905e-07)
(5.68618e-07 -9.32468e-08 0 5.96541e-07 0 5.93281e-07)
(5.83904e-07 -9.39473e-08 0 6.04168e-07 0 6.01283e-07)
(5.99821e-07 -9.46962e-08 0 6.11794e-07 0 6.09558e-07)
(6.15793e-07 -9.54767e-08 0 6.19029e-07 0 6.17785e-07)
(6.31617e-07 -9.6256e-08 0 6.25378e-07 0 6.25842e-07)
(6.4663e-07 -9.69918e-08 0 6.30732e-07 0 6.33321e-07)
(6.59837e-07 -9.76637e-08 0 6.35405e-07 0 6.39647e-07)
(6.71526e-07 -9.83005e-08 0 6.39632e-07 0 6.45162e-07)
(6.82151e-07 -9.88257e-08 0 6.4337e-07 0 6.49995e-07)
(6.91995e-07 -9.92469e-08 0 6.46527e-07 0 6.54294e-07)
(7.01283e-07 -9.95751e-08 0 6.49347e-07 0 6.58173e-07)
(7.09972e-07 -9.98467e-08 0 6.51941e-07 0 6.61631e-07)
(7.17765e-07 -1.00081e-07 0 6.54184e-07 0 6.64508e-07)
(7.24121e-07 -1.00254e-07 0 6.55755e-07 0 6.66518e-07)
(7.28382e-07 -1.0033e-07 0 6.56364e-07 0 6.67351e-07)
(7.3003e-07 -1.00312e-07 0 6.55904e-07 0 6.66897e-07)
(7.29095e-07 -1.0023e-07 0 6.54295e-07 0 6.6517e-07)
(7.25982e-07 -1.00152e-07 0 6.5188e-07 0 6.62732e-07)
(7.21815e-07 -1.00188e-07 0 6.49956e-07 0 6.60761e-07)
(7.1572e-07 -1.00214e-07 0 6.48218e-07 0 6.58658e-07)
(7.06727e-07 -1.00201e-07 0 6.46156e-07 0 6.55667e-07)
(6.94694e-07 -1.00171e-07 0 6.43623e-07 0 6.51692e-07)
(6.80393e-07 -1.001e-07 0 6.40766e-07 0 6.46988e-07)
(6.65056e-07 -1.00018e-07 0 6.37857e-07 0 6.42018e-07)
(6.49879e-07 -9.98603e-08 0 6.35231e-07 0 6.37285e-07)
(6.36084e-07 -9.95846e-08 0 6.33982e-07 0 6.3325e-07)
(6.24569e-07 -9.94386e-08 0 6.34129e-07 0 6.30053e-07)
(6.1552e-07 -9.94625e-08 0 6.3423e-07 0 6.27798e-07)
(6.08773e-07 -9.94508e-08 0 6.34634e-07 0 6.26408e-07)
(6.0387e-07 -9.94114e-08 0 6.35274e-07 0 6.25501e-07)
(6.0028e-07 -9.93796e-08 0 6.36002e-07 0 6.24885e-07)
(5.97549e-07 -9.93645e-08 0 6.3672e-07 0 6.24448e-07)
(5.95375e-07 -9.93807e-08 0 6.3735e-07 0 6.2414e-07)
(5.93565e-07 -9.9441e-08 0 6.37836e-07 0 6.2394e-07)
(5.91863e-07 -9.94988e-08 0 6.38268e-07 0 6.23804e-07)
(5.89997e-07 -9.95108e-08 0 6.38823e-07 0 6.23664e-07)
(5.87985e-07 -9.94856e-08 0 6.39465e-07 0 6.23439e-07)
(5.86271e-07 -9.94592e-08 0 6.39907e-07 0 6.23088e-07)
(5.85099e-07 -9.94713e-08 0 6.40057e-07 0 6.22747e-07)
(5.84498e-07 -9.94908e-08 0 6.39953e-07 0 6.22434e-07)
(5.84773e-07 -9.95582e-08 0 6.39855e-07 0 6.22361e-07)
(5.86556e-07 -9.97694e-08 0 6.40205e-07 0 6.23031e-07)
(5.90075e-07 -1.00135e-07 0 6.41068e-07 0 6.24582e-07)
(5.95355e-07 -1.00643e-07 0 6.42425e-07 0 6.27028e-07)
(6.02172e-07 -1.0123e-07 0 6.44113e-07 0 6.30212e-07)
(6.10105e-07 -1.01816e-07 0 6.46017e-07 0 6.33881e-07)
(6.18486e-07 -1.02343e-07 0 6.47965e-07 0 6.37637e-07)
(6.26555e-07 -1.02876e-07 0 6.49783e-07 0 6.41074e-07)
(6.34436e-07 -1.03551e-07 0 6.51579e-07 0 6.44774e-07)
(6.41929e-07 -1.04188e-07 0 6.53269e-07 0 6.48555e-07)
(6.48397e-07 -1.04718e-07 0 6.5462e-07 0 6.51926e-07)
(6.53856e-07 -1.05156e-07 0 6.55697e-07 0 6.54815e-07)
(6.58158e-07 -1.05468e-07 0 6.56402e-07 0 6.56893e-07)
(6.61645e-07 -1.05693e-07 0 6.56856e-07 0 6.58419e-07)
(6.64723e-07 -1.05902e-07 0 6.573e-07 0 6.59795e-07)
(6.67568e-07 -1.061e-07 0 6.57747e-07 0 6.6107e-07)
(6.70281e-07 -1.0629e-07 0 6.58202e-07 0 6.62291e-07)
(6.72862e-07 -1.06461e-07 0 6.58663e-07 0 6.63463e-07)
(6.75253e-07 -1.06597e-07 0 6.59127e-07 0 6.64557e-07)
(6.77367e-07 -1.06706e-07 0 6.59549e-07 0 6.6553e-07)
(6.79069e-07 -1.06769e-07 0 6.59916e-07 0 6.6633e-07)
(6.80283e-07 -1.06781e-07 0 6.60178e-07 0 6.66907e-07)
(6.80996e-07 -1.06737e-07 0 6.60286e-07 0 6.67216e-07)
(6.8126e-07 -1.0666e-07 0 6.60222e-07 0 6.67275e-07)
(6.81117e-07 -1.06564e-07 0 6.60045e-07 0 6.67177e-07)
(6.80816e-07 -1.06443e-07 0 6.59636e-07 0 6.66971e-07)
(6.80456e-07 -1.06285e-07 0 6.59077e-07 0 6.66669e-07)
(6.79968e-07 -1.06103e-07 0 6.58439e-07 0 6.66214e-07)
(6.79433e-07 -1.05905e-07 0 6.57629e-07 0 6.65578e-07)
(6.78935e-07 -1.05695e-07 0 6.56642e-07 0 6.64787e-07)
(6.785e-07 -1.05476e-07 0 6.55528e-07 0 6.63903e-07)
(6.7813e-07 -1.05235e-07 0 6.5431e-07 0 6.62946e-07)
(6.77708e-07 -1.04958e-07 0 6.53002e-07 0 6.61895e-07)
(6.77011e-07 -1.04628e-07 0 6.51676e-07 0 6.60715e-07)
(6.75933e-07 -1.04256e-07 0 6.50503e-07 0 6.59459e-07)
(6.74654e-07 -1.03874e-07 0 6.49221e-07 0 6.58048e-07)
(6.72714e-07 -1.03481e-07 0 6.48107e-07 0 6.56526e-07)
(6.70041e-07 -1.03051e-07 0 6.47179e-07 0 6.54913e-07)
(6.6657e-07 -1.02604e-07 0 6.46511e-07 0 6.53214e-07)
(6.62243e-07 -1.02164e-07 0 6.46113e-07 0 6.51416e-07)
(6.57074e-07 -1.01742e-07 0 6.45983e-07 0 6.49475e-07)
(6.5118e-07 -1.01352e-07 0 6.46099e-07 0 6.47419e-07)
(6.4483e-07 -1.00996e-07 0 6.46367e-07 0 6.45295e-07)
(6.38274e-07 -1.00686e-07 0 6.46753e-07 0 6.43162e-07)
(6.31779e-07 -1.00425e-07 0 6.47183e-07 0 6.41072e-07)
(6.25586e-07 -1.002e-07 0 6.4757e-07 0 6.3905e-07)
(6.19889e-07 -1.00005e-07 0 6.47839e-07 0 6.37122e-07)
(6.14822e-07 -9.98322e-08 0 6.47909e-07 0 6.35291e-07)
(6.1045e-07 -9.96605e-08 0 6.47694e-07 0 6.3353e-07)
(6.06761e-07 -9.94836e-08 0 6.47166e-07 0 6.31802e-07)
(6.03751e-07 -9.93012e-08 0 6.46275e-07 0 6.30093e-07)
(6.01347e-07 -9.90911e-08 0 6.44987e-07 0 6.28354e-07)
(5.99458e-07 -9.88527e-08 0 6.43321e-07 0 6.26565e-07)
(5.98023e-07 -9.8615e-08 0 6.41394e-07 0 6.2477e-07)
(5.97763e-07 -9.84976e-08 0 6.39803e-07 0 6.23626e-07)
(5.98852e-07 -9.85124e-08 0 6.38626e-07 0 6.23269e-07)
(6.01126e-07 -9.85901e-08 0 6.37824e-07 0 6.23641e-07)
(6.04314e-07 -9.86985e-08 0 6.373e-07 0 6.24378e-07)
(6.08252e-07 -9.88739e-08 0 6.36934e-07 0 6.2549e-07)
(6.12625e-07 -9.90574e-08 0 6.36633e-07 0 6.26827e-07)
(6.17013e-07 -9.92273e-08 0 6.36267e-07 0 6.28093e-07)
(6.21501e-07 -9.94191e-08 0 6.36032e-07 0 6.29624e-07)
(6.25553e-07 -9.95161e-08 0 6.35648e-07 0 6.30977e-07)
(6.2886e-07 -9.95449e-08 0 6.35021e-07 0 6.31926e-07)
(6.31235e-07 -9.94427e-08 0 6.34032e-07 0 6.32323e-07)
(6.33051e-07 -9.92711e-08 0 6.32796e-07 0 6.32491e-07)
(6.3381e-07 -9.90166e-08 0 6.31295e-07 0 6.3195e-07)
(6.33784e-07 -9.87296e-08 0 6.29551e-07 0 6.30938e-07)
(6.33153e-07 -9.84184e-08 0 6.27646e-07 0 6.296e-07)
(6.32193e-07 -9.81182e-08 0 6.25658e-07 0 6.28068e-07)
(6.31115e-07 -9.78336e-08 0 6.23614e-07 0 6.26462e-07)
(6.30052e-07 -9.75235e-08 0 6.21564e-07 0 6.24852e-07)
(6.29059e-07 -9.72283e-08 0 6.1954e-07 0 6.23283e-07)
(6.28185e-07 -9.69475e-08 0 6.17523e-07 0 6.21748e-07)
(6.27328e-07 -9.6632e-08 0 6.15521e-07 0 6.20219e-07)
(6.26339e-07 -9.63096e-08 0 6.13522e-07 0 6.18627e-07)
(6.25096e-07 -9.59187e-08 0 6.11431e-07 0 6.16877e-07)
(6.23354e-07 -9.54415e-08 0 6.09241e-07 0 6.14857e-07)
(6.21029e-07 -9.49201e-08 0 6.07084e-07 0 6.12613e-07)
(6.18378e-07 -9.44108e-08 0 6.05295e-07 0 6.10438e-07)
(6.15343e-07 -9.39392e-08 0 6.03911e-07 0 6.08362e-07)
(6.11833e-07 -9.35021e-08 0 6.0299e-07 0 6.06338e-07)
(6.07976e-07 -9.31675e-08 0 6.02448e-07 0 6.04397e-07)
(6.04016e-07 -9.29161e-08 0 6.02146e-07 0 6.02586e-07)
(6.00076e-07 -9.27364e-08 0 6.01994e-07 0 6.00794e-07)
(5.96511e-07 -9.25875e-08 0 6.01656e-07 0 5.99055e-07)
(5.93289e-07 -9.25001e-08 0 6.01172e-07 0 5.97343e-07)
(5.90507e-07 -9.24504e-08 0 6.00441e-07 0 5.95673e-07)
(5.88435e-07 -9.23182e-08 0 5.99113e-07 0 5.94038e-07)
(5.86756e-07 -9.22305e-08 0 5.97451e-07 0 5.9241e-07)
(5.85732e-07 -9.21063e-08 0 5.95558e-07 0 5.90924e-07)
(5.85794e-07 -9.20156e-08 0 5.93802e-07 0 5.89978e-07)
(5.8691e-07 -9.19587e-08 0 5.9211e-07 0 5.89599e-07)
(5.88289e-07 -9.19455e-08 0 5.90861e-07 0 5.89515e-07)
(5.9008e-07 -9.19164e-08 0 5.89664e-07 0 5.8964e-07)
(5.92575e-07 -9.17619e-08 0 5.87879e-07 0 5.89868e-07)
(5.94751e-07 -9.16166e-08 0 5.86251e-07 0 5.9005e-07)
(5.96629e-07 -9.14169e-08 0 5.84646e-07 0 5.90085e-07)
(5.98416e-07 -9.11526e-08 0 5.82673e-07 0 5.89978e-07)
(6.003e-07 -9.06798e-08 0 5.79805e-07 0 5.89382e-07)
(6.01506e-07 -9.02555e-08 0 5.76322e-07 0 5.8828e-07)
(6.01893e-07 -8.97086e-08 0 5.73408e-07 0 5.87409e-07)
(1.10967e-07 -1.50595e-08 0 8.37865e-08 0 8.95189e-08)
(1.35486e-07 -1.85325e-08 0 1.14226e-07 0 1.20766e-07)
(1.82829e-07 -2.22851e-08 0 1.59952e-07 0 1.73838e-07)
(2.1233e-07 -2.30877e-08 0 1.84001e-07 0 2.0264e-07)
(2.20082e-07 -2.26403e-08 0 1.92644e-07 0 2.11502e-07)
(2.17903e-07 -2.18137e-08 0 1.95502e-07 0 2.11615e-07)
(2.11113e-07 -2.06695e-08 0 1.97053e-07 0 2.08105e-07)
(2.02842e-07 -1.94491e-08 0 1.97872e-07 0 2.03206e-07)
(1.94324e-07 -1.82062e-08 0 1.98176e-07 0 1.97761e-07)
(1.86219e-07 -1.70872e-08 0 1.98572e-07 0 1.92574e-07)
(1.79059e-07 -1.61288e-08 0 1.9875e-07 0 1.87918e-07)
(1.73065e-07 -1.53585e-08 0 1.99058e-07 0 1.84026e-07)
(1.68403e-07 -1.48078e-08 0 1.99464e-07 0 1.81027e-07)
(1.65085e-07 -1.44813e-08 0 1.99995e-07 0 1.78968e-07)
(1.62983e-07 -1.43544e-08 0 2.00655e-07 0 1.77787e-07)
(1.61925e-07 -1.43939e-08 0 2.0129e-07 0 1.7731e-07)
(1.61851e-07 -1.4614e-08 0 2.01822e-07 0 1.77472e-07)
(1.62687e-07 -1.49861e-08 0 2.02207e-07 0 1.78182e-07)
(1.64113e-07 -1.54196e-08 0 2.02101e-07 0 1.79052e-07)
(1.66063e-07 -1.58932e-08 0 2.01837e-07 0 1.80168e-07)
(1.68639e-07 -1.64119e-08 0 2.01409e-07 0 1.81592e-07)
(1.71879e-07 -1.69768e-08 0 2.00834e-07 0 1.83354e-07)
(1.75667e-07 -1.75613e-08 0 2.00304e-07 0 1.85453e-07)
(1.79942e-07 -1.81585e-08 0 1.99837e-07 0 1.87852e-07)
(1.84634e-07 -1.87648e-08 0 1.99485e-07 0 1.90522e-07)
(1.89665e-07 -1.94141e-08 0 1.99291e-07 0 1.93442e-07)
(1.94895e-07 -2.00923e-08 0 1.99192e-07 0 1.96551e-07)
(2.00257e-07 -2.06861e-08 0 1.99104e-07 0 1.99776e-07)
(2.05723e-07 -2.12039e-08 0 1.99374e-07 0 2.03108e-07)
(2.11453e-07 -2.17846e-08 0 2.00122e-07 0 2.06695e-07)
(2.17433e-07 -2.24356e-08 0 2.01124e-07 0 2.10482e-07)
(2.23601e-07 -2.31254e-08 0 2.02179e-07 0 2.14366e-07)
(2.2988e-07 -2.38203e-08 0 2.03186e-07 0 2.18276e-07)
(2.36257e-07 -2.45069e-08 0 2.04103e-07 0 2.22197e-07)
(2.42653e-07 -2.51609e-08 0 2.04921e-07 0 2.26081e-07)
(2.48875e-07 -2.57364e-08 0 2.05666e-07 0 2.2983e-07)
(2.54616e-07 -2.61819e-08 0 2.06409e-07 0 2.33292e-07)
(2.59491e-07 -2.64628e-08 0 2.07214e-07 0 2.36278e-07)
(2.63095e-07 -2.65625e-08 0 2.08165e-07 0 2.38598e-07)
(2.64919e-07 -2.6454e-08 0 2.09197e-07 0 2.39963e-07)
(2.64067e-07 -2.60328e-08 0 2.09596e-07 0 2.39636e-07)
(2.60048e-07 -2.52063e-08 0 2.09159e-07 0 2.37259e-07)
(2.53002e-07 -2.40598e-08 0 2.07783e-07 0 2.32832e-07)
(2.43605e-07 -2.27228e-08 0 2.0563e-07 0 2.26786e-07)
(2.32729e-07 -2.12965e-08 0 2.02867e-07 0 2.19661e-07)
(2.21272e-07 -1.98938e-08 0 1.9973e-07 0 2.12045e-07)
(2.10104e-07 -1.85783e-08 0 1.96584e-07 0 2.04587e-07)
(1.99293e-07 -1.7232e-08 0 1.9294e-07 0 1.97052e-07)
(1.89018e-07 -1.59604e-08 0 1.88628e-07 0 1.89386e-07)
(1.8074e-07 -1.50843e-08 0 1.85208e-07 0 1.833e-07)
(1.7393e-07 -1.43746e-08 0 1.82379e-07 0 1.78349e-07)
(1.68394e-07 -1.37851e-08 0 1.79877e-07 0 1.74243e-07)
(1.63835e-07 -1.32909e-08 0 1.77632e-07 0 1.70793e-07)
(1.6e-07 -1.28692e-08 0 1.75677e-07 0 1.67877e-07)
(1.56768e-07 -1.25036e-08 0 1.74057e-07 0 1.65443e-07)
(1.54016e-07 -1.21799e-08 0 1.72868e-07 0 1.63454e-07)
(1.51644e-07 -1.18862e-08 0 1.72017e-07 0 1.61792e-07)
(1.49293e-07 -1.16152e-08 0 1.71377e-07 0 1.6024e-07)
(1.4702e-07 -1.13524e-08 0 1.70534e-07 0 1.58646e-07)
(1.45005e-07 -1.11674e-08 0 1.6963e-07 0 1.57174e-07)
(1.4351e-07 -1.1101e-08 0 1.68952e-07 0 1.56091e-07)
(1.42846e-07 -1.12214e-08 0 1.68875e-07 0 1.55744e-07)
(1.4316e-07 -1.14942e-08 0 1.69222e-07 0 1.56113e-07)
(1.44103e-07 -1.1825e-08 0 1.69609e-07 0 1.56809e-07)
(1.45694e-07 -1.21977e-08 0 1.70012e-07 0 1.57833e-07)
(1.47893e-07 -1.25949e-08 0 1.70437e-07 0 1.59167e-07)
(1.50651e-07 -1.29982e-08 0 1.70923e-07 0 1.60789e-07)
(1.53895e-07 -1.3384e-08 0 1.71502e-07 0 1.62681e-07)
(1.575e-07 -1.37341e-08 0 1.72158e-07 0 1.64775e-07)
(1.61317e-07 -1.40885e-08 0 1.72853e-07 0 1.66981e-07)
(1.65323e-07 -1.44696e-08 0 1.73816e-07 0 1.69394e-07)
(1.69248e-07 -1.48135e-08 0 1.74839e-07 0 1.71871e-07)
(1.72847e-07 -1.51152e-08 0 1.75869e-07 0 1.74258e-07)
(1.76191e-07 -1.53933e-08 0 1.76908e-07 0 1.76545e-07)
(1.79404e-07 -1.56427e-08 0 1.77975e-07 0 1.78693e-07)
(1.8241e-07 -1.58979e-08 0 1.79014e-07 0 1.80688e-07)
(1.85167e-07 -1.61697e-08 0 1.79996e-07 0 1.82553e-07)
(1.87793e-07 -1.6451e-08 0 1.80932e-07 0 1.84337e-07)
(1.90345e-07 -1.67374e-08 0 1.8184e-07 0 1.86075e-07)
(1.92835e-07 -1.70174e-08 0 1.82725e-07 0 1.87774e-07)
(1.95239e-07 -1.72797e-08 0 1.83581e-07 0 1.89418e-07)
(1.975e-07 -1.75172e-08 0 1.84411e-07 0 1.90981e-07)
(1.99547e-07 -1.77277e-08 0 1.8522e-07 0 1.92434e-07)
(2.01343e-07 -1.79118e-08 0 1.86029e-07 0 1.93766e-07)
(2.02857e-07 -1.80748e-08 0 1.86818e-07 0 1.94949e-07)
(2.04108e-07 -1.82367e-08 0 1.87613e-07 0 1.96005e-07)
(2.05166e-07 -1.84162e-08 0 1.88463e-07 0 1.96995e-07)
(2.06134e-07 -1.86168e-08 0 1.8939e-07 0 1.97967e-07)
(2.07109e-07 -1.88424e-08 0 1.90348e-07 0 1.98957e-07)
(2.08219e-07 -1.91053e-08 0 1.91338e-07 0 2.00039e-07)
(2.09561e-07 -1.9407e-08 0 1.92372e-07 0 2.0126e-07)
(2.11176e-07 -1.97386e-08 0 1.93448e-07 0 2.02628e-07)
(2.13064e-07 -2.0085e-08 0 1.94576e-07 0 2.04149e-07)
(2.15145e-07 -2.04222e-08 0 1.95729e-07 0 2.0577e-07)
(2.17267e-07 -2.07237e-08 0 1.96877e-07 0 2.07407e-07)
(2.1919e-07 -2.09554e-08 0 1.97938e-07 0 2.08909e-07)
(2.20507e-07 -2.10582e-08 0 1.98697e-07 0 2.09966e-07)
(2.20875e-07 -2.09892e-08 0 1.98983e-07 0 2.10291e-07)
(2.20031e-07 -2.07298e-08 0 1.98722e-07 0 2.09732e-07)
(2.17769e-07 -2.02623e-08 0 1.97846e-07 0 2.08163e-07)
(2.14122e-07 -1.96099e-08 0 1.96341e-07 0 2.05596e-07)
(2.09174e-07 -1.87974e-08 0 1.94279e-07 0 2.02102e-07)
(2.03064e-07 -1.78542e-08 0 1.91665e-07 0 1.97745e-07)
(1.95998e-07 -1.68127e-08 0 1.88502e-07 0 1.9262e-07)
(1.88296e-07 -1.57193e-08 0 1.84934e-07 0 1.86963e-07)
(1.80354e-07 -1.46229e-08 0 1.81142e-07 0 1.8106e-07)
(1.72524e-07 -1.35671e-08 0 1.77305e-07 0 1.75177e-07)
(1.65117e-07 -1.25895e-08 0 1.73603e-07 0 1.6956e-07)
(1.58394e-07 -1.17234e-08 0 1.70197e-07 0 1.64428e-07)
(1.52542e-07 -1.09945e-08 0 1.67238e-07 0 1.59956e-07)
(1.47709e-07 -1.04199e-08 0 1.64823e-07 0 1.56269e-07)
(1.44005e-07 -1.00163e-08 0 1.63053e-07 0 1.53476e-07)
(1.41495e-07 -9.79566e-09 0 1.62022e-07 0 1.5166e-07)
(1.40175e-07 -9.7582e-09 0 1.61751e-07 0 1.50832e-07)
(1.401e-07 -9.91566e-09 0 1.62284e-07 0 1.51046e-07)
(1.41243e-07 -1.0245e-08 0 1.63538e-07 0 1.52243e-07)
(1.42983e-07 -1.0626e-08 0 1.64907e-07 0 1.53798e-07)
(1.45255e-07 -1.10428e-08 0 1.66369e-07 0 1.5567e-07)
(1.48012e-07 -1.14627e-08 0 1.67935e-07 0 1.57831e-07)
(1.50968e-07 -1.18287e-08 0 1.69184e-07 0 1.5993e-07)
(1.54254e-07 -1.22052e-08 0 1.70405e-07 0 1.62172e-07)
(1.57925e-07 -1.25824e-08 0 1.71745e-07 0 1.64658e-07)
(1.61897e-07 -1.29696e-08 0 1.732e-07 0 1.67338e-07)
(1.66078e-07 -1.33634e-08 0 1.74811e-07 0 1.70215e-07)
(1.70222e-07 -1.37224e-08 0 1.76464e-07 0 1.7314e-07)
(1.74241e-07 -1.40525e-08 0 1.78198e-07 0 1.76047e-07)
(1.7803e-07 -1.4388e-08 0 1.79929e-07 0 1.78884e-07)
(1.81662e-07 -1.47204e-08 0 1.81815e-07 0 1.81719e-07)
(1.85157e-07 -1.50347e-08 0 1.83788e-07 0 1.84465e-07)
(1.88397e-07 -1.53738e-08 0 1.85776e-07 0 1.87088e-07)
(1.914e-07 -1.57367e-08 0 1.87771e-07 0 1.89601e-07)
(1.94289e-07 -1.61317e-08 0 1.8975e-07 0 1.92046e-07)
(1.97143e-07 -1.65598e-08 0 1.91726e-07 0 1.94474e-07)
(2.00062e-07 -1.70135e-08 0 1.9368e-07 0 1.96926e-07)
(2.03103e-07 -1.7486e-08 0 1.95641e-07 0 1.99443e-07)
(2.06248e-07 -1.79544e-08 0 1.9757e-07 0 2.01992e-07)
(2.09428e-07 -1.83983e-08 0 1.99473e-07 0 2.04546e-07)
(2.12513e-07 -1.87986e-08 0 2.01332e-07 0 2.0703e-07)
(2.15345e-07 -1.9132e-08 0 2.03131e-07 0 2.09355e-07)
(2.17711e-07 -1.93842e-08 0 2.04837e-07 0 2.11396e-07)
(2.19335e-07 -1.95363e-08 0 2.06349e-07 0 2.12967e-07)
(2.19834e-07 -1.95388e-08 0 2.0736e-07 0 2.13718e-07)
(2.19168e-07 -1.94172e-08 0 2.07866e-07 0 2.1364e-07)
(2.17363e-07 -1.91902e-08 0 2.07931e-07 0 2.12764e-07)
(2.1464e-07 -1.89186e-08 0 2.07607e-07 0 2.1124e-07)
(2.11374e-07 -1.86498e-08 0 2.07059e-07 0 2.09349e-07)
(2.07923e-07 -1.84061e-08 0 2.06358e-07 0 2.07253e-07)
(2.04762e-07 -1.82529e-08 0 2.05724e-07 0 2.05314e-07)
(2.02202e-07 -1.8219e-08 0 2.05314e-07 0 2.03771e-07)
(2.00463e-07 -1.83308e-08 0 2.05252e-07 0 2.02818e-07)
(1.99772e-07 -1.86043e-08 0 2.05614e-07 0 2.02643e-07)
(2.00396e-07 -1.9042e-08 0 2.06568e-07 0 2.03436e-07)
(2.02171e-07 -1.95909e-08 0 2.0798e-07 0 2.05035e-07)
(2.04728e-07 -2.01651e-08 0 2.09479e-07 0 2.07064e-07)
(2.07904e-07 -2.07419e-08 0 2.11015e-07 0 2.09459e-07)
(2.11605e-07 -2.13017e-08 0 2.12664e-07 0 2.12162e-07)
(2.15784e-07 -2.18445e-08 0 2.14398e-07 0 2.15131e-07)
(2.20345e-07 -2.23408e-08 0 2.16116e-07 0 2.18285e-07)
(2.24897e-07 -2.27919e-08 0 2.1783e-07 0 2.21442e-07)
(2.29371e-07 -2.31912e-08 0 2.19604e-07 0 2.24569e-07)
(2.33435e-07 -2.35409e-08 0 2.21258e-07 0 2.2746e-07)
(2.37336e-07 -2.38207e-08 0 2.22868e-07 0 2.30183e-07)
(2.40476e-07 -2.40779e-08 0 2.24294e-07 0 2.32438e-07)
(2.42409e-07 -2.42505e-08 0 2.25477e-07 0 2.34121e-07)
(7.08875e-08 -7.51977e-09 0 5.62181e-08 0 5.8513e-08)
(7.98777e-08 -7.61345e-09 0 6.85291e-08 0 7.12384e-08)
(9.96397e-08 -7.2139e-09 0 9.01545e-08 0 9.37869e-08)
(1.13497e-07 -6.34991e-09 0 1.02737e-07 0 1.06936e-07)
(1.17247e-07 -5.72735e-09 0 1.07506e-07 0 1.11403e-07)
(1.16366e-07 -5.23589e-09 0 1.08827e-07 0 1.11842e-07)
(1.13309e-07 -4.87336e-09 0 1.08829e-07 0 1.10616e-07)
(1.09594e-07 -4.55041e-09 0 1.08185e-07 0 1.08743e-07)
(1.05782e-07 -4.31181e-09 0 1.07316e-07 0 1.06731e-07)
(1.0217e-07 -4.20589e-09 0 1.06395e-07 0 1.04839e-07)
(9.89652e-08 -4.1686e-09 0 1.05431e-07 0 1.0316e-07)
(9.62752e-08 -4.1785e-09 0 1.04602e-07 0 1.01776e-07)
(9.41184e-08 -4.23599e-09 0 1.03908e-07 0 1.00689e-07)
(9.25039e-08 -4.33714e-09 0 1.03361e-07 0 9.99014e-08)
(9.13938e-08 -4.46377e-09 0 1.02976e-07 0 9.9389e-08)
(9.07574e-08 -4.60018e-09 0 1.02724e-07 0 9.91099e-08)
(9.05505e-08 -4.75064e-09 0 1.02591e-07 0 9.90361e-08)
(9.07516e-08 -4.91196e-09 0 1.02572e-07 0 9.91492e-08)
(9.12557e-08 -5.06608e-09 0 1.02538e-07 0 9.93503e-08)
(9.2043e-08 -5.20934e-09 0 1.02551e-07 0 9.96541e-08)
(9.31175e-08 -5.34238e-09 0 1.02615e-07 0 1.00073e-07)
(9.44647e-08 -5.46358e-09 0 1.02728e-07 0 1.0061e-07)
(9.60339e-08 -5.56713e-09 0 1.02916e-07 0 1.01253e-07)
(9.77822e-08 -5.65364e-09 0 1.03177e-07 0 1.01992e-07)
(9.9669e-08 -5.72648e-09 0 1.03512e-07 0 1.02812e-07)
(1.01654e-07 -5.80344e-09 0 1.03937e-07 0 1.03707e-07)
(1.03715e-07 -5.88666e-09 0 1.04536e-07 0 1.04689e-07)
(1.05827e-07 -5.92676e-09 0 1.05262e-07 0 1.05729e-07)
(1.07945e-07 -5.93772e-09 0 1.05938e-07 0 1.0678e-07)
(1.10079e-07 -5.97548e-09 0 1.06582e-07 0 1.07861e-07)
(1.12248e-07 -6.04156e-09 0 1.07235e-07 0 1.08978e-07)
(1.14499e-07 -6.13345e-09 0 1.07949e-07 0 1.10152e-07)
(1.16873e-07 -6.24071e-09 0 1.08735e-07 0 1.11398e-07)
(1.1938e-07 -6.34965e-09 0 1.09591e-07 0 1.12718e-07)
(1.2199e-07 -6.44385e-09 0 1.10514e-07 0 1.14098e-07)
(1.24621e-07 -6.50827e-09 0 1.11491e-07 0 1.15501e-07)
(1.27125e-07 -6.5312e-09 0 1.12476e-07 0 1.16856e-07)
(1.29305e-07 -6.50443e-09 0 1.13386e-07 0 1.18062e-07)
(1.30934e-07 -6.42342e-09 0 1.14126e-07 0 1.19001e-07)
(1.31762e-07 -6.28507e-09 0 1.14597e-07 0 1.19535e-07)
(1.31469e-07 -6.0678e-09 0 1.14628e-07 0 1.19425e-07)
(1.29879e-07 -5.74381e-09 0 1.14122e-07 0 1.18555e-07)
(1.27087e-07 -5.36168e-09 0 1.13078e-07 0 1.16966e-07)
(1.23395e-07 -4.9736e-09 0 1.11651e-07 0 1.1485e-07)
(1.19178e-07 -4.61663e-09 0 1.09997e-07 0 1.12437e-07)
(1.14809e-07 -4.31808e-09 0 1.08291e-07 0 1.0996e-07)
(1.10607e-07 -4.08327e-09 0 1.06704e-07 0 1.07625e-07)
(1.06798e-07 -3.87414e-09 0 1.05254e-07 0 1.05506e-07)
(1.03466e-07 -3.74354e-09 0 1.03936e-07 0 1.03605e-07)
(1.0077e-07 -3.72726e-09 0 1.02987e-07 0 1.02159e-07)
(9.85758e-08 -3.72832e-09 0 1.023e-07 0 1.01047e-07)
(9.68558e-08 -3.74237e-09 0 1.01814e-07 0 1.00207e-07)
(9.55091e-08 -3.75875e-09 0 1.0147e-07 0 9.9571e-08)
(9.44408e-08 -3.77106e-09 0 1.01253e-07 0 9.90934e-08)
(9.35636e-08 -3.77322e-09 0 1.0115e-07 0 9.8737e-08)
(9.27625e-08 -3.76376e-09 0 1.0114e-07 0 9.84522e-08)
(9.2015e-08 -3.75684e-09 0 1.01122e-07 0 9.81833e-08)
(9.1275e-08 -3.75963e-09 0 1.01095e-07 0 9.79222e-08)
(9.05694e-08 -3.77364e-09 0 1.01057e-07 0 9.76763e-08)
(8.99663e-08 -3.80581e-09 0 1.01014e-07 0 9.74693e-08)
(8.95301e-08 -3.86362e-09 0 1.01017e-07 0 9.73447e-08)
(8.93311e-08 -3.95367e-09 0 1.01103e-07 0 9.73445e-08)
(8.94285e-08 -4.05872e-09 0 1.01247e-07 0 9.74647e-08)
(8.97924e-08 -4.16416e-09 0 1.01374e-07 0 9.76519e-08)
(9.0433e-08 -4.26648e-09 0 1.01485e-07 0 9.79079e-08)
(9.13438e-08 -4.35235e-09 0 1.01565e-07 0 9.82266e-08)
(9.24821e-08 -4.42065e-09 0 1.01648e-07 0 9.86174e-08)
(9.38133e-08 -4.46825e-09 0 1.01745e-07 0 9.90774e-08)
(9.52816e-08 -4.49351e-09 0 1.01854e-07 0 9.9592e-08)
(9.6824e-08 -4.51047e-09 0 1.01971e-07 0 1.00142e-07)
(9.83872e-08 -4.54035e-09 0 1.02172e-07 0 1.00735e-07)
(9.98443e-08 -4.55916e-09 0 1.0235e-07 0 1.01312e-07)
(1.01101e-07 -4.55303e-09 0 1.02489e-07 0 1.01839e-07)
(1.02217e-07 -4.53394e-09 0 1.02618e-07 0 1.02331e-07)
(1.03329e-07 -4.51201e-09 0 1.028e-07 0 1.02829e-07)
(1.04378e-07 -4.50877e-09 0 1.0299e-07 0 1.03305e-07)
(1.05316e-07 -4.51981e-09 0 1.03163e-07 0 1.03742e-07)
(1.06198e-07 -4.53767e-09 0 1.03328e-07 0 1.04158e-07)
(1.07044e-07 -4.55877e-09 0 1.03491e-07 0 1.0456e-07)
(1.0786e-07 -4.57943e-09 0 1.03651e-07 0 1.04948e-07)
(1.08634e-07 -4.59633e-09 0 1.03803e-07 0 1.05317e-07)
(1.09341e-07 -4.60788e-09 0 1.03945e-07 0 1.05656e-07)
(1.09953e-07 -4.61446e-09 0 1.0407e-07 0 1.05955e-07)
(1.10448e-07 -4.61598e-09 0 1.04176e-07 0 1.06207e-07)
(1.10811e-07 -4.61915e-09 0 1.04267e-07 0 1.06411e-07)
(1.11065e-07 -4.62187e-09 0 1.04331e-07 0 1.06566e-07)
(1.11225e-07 -4.63221e-09 0 1.04395e-07 0 1.06693e-07)
(1.1134e-07 -4.65366e-09 0 1.04474e-07 0 1.06813e-07)
(1.11462e-07 -4.69035e-09 0 1.0457e-07 0 1.06947e-07)
(1.11646e-07 -4.73946e-09 0 1.04689e-07 0 1.07117e-07)
(1.11936e-07 -4.79566e-09 0 1.04841e-07 0 1.07342e-07)
(1.12352e-07 -4.85665e-09 0 1.0503e-07 0 1.07627e-07)
(1.12889e-07 -4.91776e-09 0 1.05259e-07 0 1.07971e-07)
(1.13516e-07 -4.9746e-09 0 1.05519e-07 0 1.08361e-07)
(1.14174e-07 -5.01841e-09 0 1.058e-07 0 1.08771e-07)
(1.14781e-07 -5.043e-09 0 1.06075e-07 0 1.09161e-07)
(1.15196e-07 -5.03242e-09 0 1.06281e-07 0 1.09441e-07)
(1.15296e-07 -4.98099e-09 0 1.06375e-07 0 1.09535e-07)
(1.14991e-07 -4.88069e-09 0 1.06341e-07 0 1.094e-07)
(1.14223e-07 -4.74358e-09 0 1.06174e-07 0 1.09013e-07)
(1.13008e-07 -4.57448e-09 0 1.05884e-07 0 1.08385e-07)
(1.1138e-07 -4.38398e-09 0 1.05502e-07 0 1.07545e-07)
(1.09396e-07 -4.18038e-09 0 1.05052e-07 0 1.06528e-07)
(1.07174e-07 -3.98389e-09 0 1.04544e-07 0 1.05384e-07)
(1.04822e-07 -3.80305e-09 0 1.04042e-07 0 1.04192e-07)
(1.02479e-07 -3.65163e-09 0 1.03595e-07 0 1.03034e-07)
(1.00249e-07 -3.53779e-09 0 1.03238e-07 0 1.01969e-07)
(9.82112e-08 -3.46562e-09 0 1.02994e-07 0 1.01038e-07)
(9.64149e-08 -3.43445e-09 0 1.02873e-07 0 1.00259e-07)
(9.48915e-08 -3.44285e-09 0 1.02862e-07 0 9.96392e-08)
(9.36611e-08 -3.48283e-09 0 1.02934e-07 0 9.91806e-08)
(9.273e-08 -3.55078e-09 0 1.03076e-07 0 9.88753e-08)
(9.2097e-08 -3.64205e-09 0 1.03268e-07 0 9.87141e-08)
(9.17364e-08 -3.75645e-09 0 1.03507e-07 0 9.86859e-08)
(9.16791e-08 -3.88257e-09 0 1.03763e-07 0 9.87891e-08)
(9.19073e-08 -4.01545e-09 0 1.04028e-07 0 9.90112e-08)
(9.23356e-08 -4.14745e-09 0 1.04231e-07 0 9.92819e-08)
(9.2962e-08 -4.27043e-09 0 1.04361e-07 0 9.95936e-08)
(9.37788e-08 -4.37231e-09 0 1.04433e-07 0 9.9949e-08)
(9.4745e-08 -4.45728e-09 0 1.04448e-07 0 1.00337e-07)
(9.58673e-08 -4.53034e-09 0 1.04417e-07 0 1.00763e-07)
(9.7121e-08 -4.58669e-09 0 1.04398e-07 0 1.01246e-07)
(9.84863e-08 -4.63993e-09 0 1.04413e-07 0 1.0179e-07)
(9.98986e-08 -4.68993e-09 0 1.04474e-07 0 1.02383e-07)
(1.01256e-07 -4.71193e-09 0 1.04553e-07 0 1.02991e-07)
(1.02539e-07 -4.72459e-09 0 1.04686e-07 0 1.03607e-07)
(1.03708e-07 -4.7505e-09 0 1.04819e-07 0 1.04208e-07)
(1.04783e-07 -4.764e-09 0 1.05027e-07 0 1.04813e-07)
(1.05834e-07 -4.77703e-09 0 1.05329e-07 0 1.05435e-07)
(1.06798e-07 -4.8134e-09 0 1.05673e-07 0 1.0605e-07)
(1.0768e-07 -4.86584e-09 0 1.06052e-07 0 1.06653e-07)
(1.08534e-07 -4.9376e-09 0 1.06454e-07 0 1.07259e-07)
(1.09391e-07 -5.02611e-09 0 1.06875e-07 0 1.07877e-07)
(1.10289e-07 -5.12772e-09 0 1.07311e-07 0 1.0852e-07)
(1.11253e-07 -5.23555e-09 0 1.07759e-07 0 1.09196e-07)
(1.12277e-07 -5.34125e-09 0 1.0822e-07 0 1.09902e-07)
(1.13334e-07 -5.43874e-09 0 1.08692e-07 0 1.10628e-07)
(1.14372e-07 -5.5208e-09 0 1.09174e-07 0 1.11352e-07)
(1.15325e-07 -5.58097e-09 0 1.09664e-07 0 1.12044e-07)
(1.16108e-07 -5.61777e-09 0 1.10156e-07 0 1.12668e-07)
(1.16623e-07 -5.62895e-09 0 1.10622e-07 0 1.13164e-07)
(1.16744e-07 -5.60947e-09 0 1.10988e-07 0 1.13433e-07)
(1.16454e-07 -5.56706e-09 0 1.11234e-07 0 1.13459e-07)
(1.15754e-07 -5.50958e-09 0 1.11396e-07 0 1.13258e-07)
(1.14734e-07 -5.45932e-09 0 1.11479e-07 0 1.12876e-07)
(1.13521e-07 -5.42206e-09 0 1.11519e-07 0 1.1239e-07)
(1.12292e-07 -5.40977e-09 0 1.1157e-07 0 1.11882e-07)
(1.11189e-07 -5.44056e-09 0 1.11657e-07 0 1.11439e-07)
(1.10315e-07 -5.51115e-09 0 1.11812e-07 0 1.11118e-07)
(1.09732e-07 -5.63051e-09 0 1.12039e-07 0 1.10962e-07)
(1.09479e-07 -5.79699e-09 0 1.12335e-07 0 1.11005e-07)
(1.09648e-07 -5.99498e-09 0 1.12711e-07 0 1.11282e-07)
(1.10213e-07 -6.21018e-09 0 1.13131e-07 0 1.11759e-07)
(1.11079e-07 -6.42338e-09 0 1.1352e-07 0 1.12352e-07)
(1.12177e-07 -6.62183e-09 0 1.13858e-07 0 1.13041e-07)
(1.1349e-07 -6.79681e-09 0 1.14197e-07 0 1.13824e-07)
(1.15e-07 -6.95911e-09 0 1.14532e-07 0 1.14694e-07)
(1.16633e-07 -7.09521e-09 0 1.14867e-07 0 1.15625e-07)
(1.1827e-07 -7.21431e-09 0 1.15207e-07 0 1.16568e-07)
(1.19878e-07 -7.30146e-09 0 1.15586e-07 0 1.17513e-07)
(1.2136e-07 -7.38202e-09 0 1.1595e-07 0 1.18412e-07)
(1.22811e-07 -7.41554e-09 0 1.16342e-07 0 1.19292e-07)
(1.23796e-07 -7.47397e-09 0 1.16793e-07 0 1.19987e-07)
(1.24318e-07 -7.47036e-09 0 1.17044e-07 0 1.20454e-07)
(6.32455e-08 -5.83064e-09 0 5.07317e-08 0 5.3795e-08)
(7.26639e-08 -6.09395e-09 0 6.20321e-08 0 6.52035e-08)
(8.90762e-08 -5.35287e-09 0 8.01796e-08 0 8.32318e-08)
(9.86232e-08 -4.23696e-09 0 8.95643e-08 0 9.24587e-08)
(1.00819e-07 -3.48014e-09 0 9.29627e-08 0 9.54539e-08)
(1.00075e-07 -3.01491e-09 0 9.39709e-08 0 9.58946e-08)
(9.80286e-08 -2.79183e-09 0 9.42594e-08 0 9.54567e-08)
(9.56233e-08 -2.66057e-09 0 9.42815e-08 0 9.47251e-08)
(9.32174e-08 -2.62601e-09 0 9.42792e-08 0 9.39817e-08)
(9.09949e-08 -2.69627e-09 0 9.43432e-08 0 9.33397e-08)
(8.9071e-08 -2.81022e-09 0 9.45131e-08 0 9.2847e-08)
(8.74942e-08 -2.97771e-09 0 9.47751e-08 0 9.25126e-08)
(8.62439e-08 -3.17389e-09 0 9.50992e-08 0 9.23085e-08)
(8.5343e-08 -3.37196e-09 0 9.54165e-08 0 9.22119e-08)
(8.47361e-08 -3.57693e-09 0 9.57621e-08 0 9.22103e-08)
(8.44315e-08 -3.78087e-09 0 9.60919e-08 0 9.22857e-08)
(8.4428e-08 -3.9703e-09 0 9.63568e-08 0 9.24163e-08)
(8.46854e-08 -4.15006e-09 0 9.65551e-08 0 9.25909e-08)
(8.51735e-08 -4.31425e-09 0 9.66776e-08 0 9.27935e-08)
(8.58744e-08 -4.45624e-09 0 9.67367e-08 0 9.30253e-08)
(8.67692e-08 -4.57502e-09 0 9.6741e-08 0 9.32876e-08)
(8.78304e-08 -4.66809e-09 0 9.66939e-08 0 9.35768e-08)
(8.90193e-08 -4.73234e-09 0 9.66027e-08 0 9.38853e-08)
(9.02964e-08 -4.76488e-09 0 9.64728e-08 0 9.42065e-08)
(9.16281e-08 -4.76656e-09 0 9.63156e-08 0 9.454e-08)
(9.29861e-08 -4.74481e-09 0 9.61504e-08 0 9.48829e-08)
(9.43389e-08 -4.70614e-09 0 9.60374e-08 0 9.52433e-08)
(9.56716e-08 -4.66176e-09 0 9.59919e-08 0 9.56202e-08)
(9.69748e-08 -4.63193e-09 0 9.58721e-08 0 9.59805e-08)
(9.8242e-08 -4.61923e-09 0 9.56846e-08 0 9.63267e-08)
(9.94909e-08 -4.61184e-09 0 9.54447e-08 0 9.66657e-08)
(1.00774e-07 -4.61112e-09 0 9.51787e-08 0 9.70177e-08)
(1.02106e-07 -4.61825e-09 0 9.4925e-08 0 9.73981e-08)
(1.03512e-07 -4.62065e-09 0 9.46854e-08 0 9.78155e-08)
(1.04986e-07 -4.60373e-09 0 9.44526e-08 0 9.82651e-08)
(1.06471e-07 -4.55376e-09 0 9.42279e-08 0 9.87292e-08)
(1.07865e-07 -4.46283e-09 0 9.40206e-08 0 9.91768e-08)
(1.09051e-07 -4.32793e-09 0 9.3836e-08 0 9.95693e-08)
(1.09904e-07 -4.14882e-09 0 9.36841e-08 0 9.98657e-08)
(1.10295e-07 -3.92956e-09 0 9.35847e-08 0 1.0002e-07)
(1.10102e-07 -3.67092e-09 0 9.35029e-08 0 9.9961e-08)
(1.09238e-07 -3.36453e-09 0 9.34368e-08 0 9.96548e-08)