/*--------------------------------*- C++ -*----------------------------------*\
| =========                 |                                                 |
| \\      /  F ield         | OpenFOAM: The Open Source CFD Toolbox           |
|  \\    /   O peration     | Version:  v1912                                 |
|   \\  /    A nd           | Website:  www.openfoam.com                      |
|    \\/     M anipulation  |                                                 |
\*---------------------------------------------------------------------------*/
FoamFile
{
    version     2.0;
    format      ascii;
    class       surfaceScalarField;
    location    "80";
    object      alphaPhi0.water;
}
// * * * * * * * * * * * * * * * * * * * * * * * * * * * * * * * * * * * * * //

dimensions      [0 3 -1 0 0 0 0];
oriented        oriented;


internalField   nonuniform List<scalar> 
28285
(
-0.000936776
-2.59488e-05
-0.000914469
-2.23067e-05
-0.000917041
2.57139e-06
-0.000937986
2.09453e-05
-0.000960139
2.21534e-05
-0.000977386
1.72466e-05
-0.000965857
-1.15293e-05
-8.28101e-05
-0.000883047
-0.000935546
-5.18698e-05
-0.000913268
-4.45849e-05
-0.000915878
5.18123e-06
-0.000936905
4.19721e-05
-0.000959195
4.44439e-05
-0.000976601
3.46525e-05
-0.000965193
-2.29381e-05
-0.000165243
-0.00088276
-0.000935645
-7.77727e-05
-0.000913414
-6.68158e-05
-0.0009161
7.86765e-06
-0.000937225
6.30974e-05
-0.000959589
6.68078e-05
-0.000976967
5.20301e-05
-0.00096538
-3.45253e-05
-0.000247427
-0.000883196
-0.000935999
-0.00010363
-0.000913841
-8.89738e-05
-0.000916641
1.06675e-05
-0.000937909
8.43653e-05
-0.000960396
8.92948e-05
-0.000977771
6.94051e-05
-0.000965978
-4.63184e-05
-0.000329296
-0.000884109
-0.000936702
-0.000129403
-0.000914646
-0.00011103
-0.000917585
1.3607e-05
-0.000939026
0.000105806
-0.000961669
0.000111938
-0.000979142
8.68784e-05
-0.000967449
-5.80118e-05
-0.000410683
-0.000886062
-0.000937846
-0.000155062
-0.000915913
-0.000132963
-0.000919016
1.67103e-05
-0.000940663
0.000127452
-0.000963554
0.000134829
-0.000981389
0.000104713
-0.000970221
-6.91801e-05
-0.000492259
-0.000888644
-0.000939535
-0.000180567
-0.000917749
-0.00015475
-0.000921036
1.99975e-05
-0.00094293
0.000149346
-0.000966105
0.000158004
-0.000984306
0.000122914
-0.000973372
-8.01142e-05
-0.000574867
-0.000890764
-0.000941819
-0.000205908
-0.00092017
-0.000176399
-0.000923616
2.34438e-05
-0.000945625
0.000171355
-0.000968773
0.000181151
-0.000986742
0.000140884
-0.000975385
-9.14711e-05
-0.00065835
-0.000891903
-0.000943884
-0.000231282
-0.000922322
-0.000197961
-0.000925967
2.70889e-05
-0.000948076
0.000193465
-0.000971067
0.000204142
-0.000988633
0.00015845
-0.000976637
-0.000103467
-0.000742586
-0.000892401
-0.000945327
-0.000256672
-0.000923953
-0.000219335
-0.000927924
3.106e-05
-0.000950252
0.000215793
-0.000973172
0.000227062
-0.000990372
0.000175649
-0.000977659
-0.00011618
-0.000828116
-0.000892128
-0.000946524
-0.000281907
-0.000925449
-0.000240411
-0.000929859
3.54709e-05
-0.000952569
0.000238502
-0.000975733
0.000250226
-0.000993136
0.000193053
-0.000979928
-0.000129389
-0.000916037
-0.000892007
-0.000948175
-0.000306688
-0.00092765
-0.000260936
-0.00093272
4.05408e-05
-0.000956251
0.000262033
-0.000980432
0.000274408
-0.000999046
0.000211667
-0.000984259
-0.000144175
-0.00100834
-0.000891961
-0.000950519
-0.000330879
-0.000930677
-0.000280777
-0.000936693
4.65564e-05
-0.000961338
0.000286678
-0.000986373
0.000299442
-0.00100487
0.00023016
-0.000987068
-0.000161973
-0.00110426
-0.000891144
-0.00095262
-0.00035512
-0.000933465
-0.000299932
-0.000940763
5.3854e-05
-0.000966615
0.00031253
-0.000992015
0.000324842
-0.00100908
0.000247224
-0.000988393
-0.000182658
-0.00120364
-0.000889009
-0.00570766
-0.0010675
-0.00504528
-0.000962317
-0.00453528
-0.000456142
-0.00410111
-0.000121646
-0.00363841
-0.000137858
-0.00312911
-0.000262072
-0.0025211
-0.000790665
-0.00195824
-0.0017665
-0.00565516
-0.00177714
-0.00499024
-0.00162723
-0.0044761
-0.000970285
-0.00404075
-0.000556996
-0.00358325
-0.000595358
-0.00308514
-0.000760183
-0.00249136
-0.00138444
-0.00269319
-0.00175642
-0.00563085
-0.00247835
-0.00496911
-0.00228898
-0.00445963
-0.00147976
-0.004027
-0.000989629
-0.00357141
-0.00105094
-0.00307485
-0.00125674
-0.00248356
-0.00197573
-0.00342504
-0.0017517
-0.00558143
-0.00315685
-0.00493583
-0.00293457
-0.00443893
-0.00197667
-0.00401168
-0.00141688
-0.00356017
-0.00150245
-0.00306487
-0.00175204
-0.00247412
-0.00256648
-0.00415277
-0.00174639
-0.00549343
-0.00380272
-0.00487363
-0.00355437
-0.00439864
-0.00245166
-0.00398331
-0.00183221
-0.0035402
-0.00194556
-0.00304851
-0.00224374
-0.00245965
-0.00315534
-0.00487332
-0.00173911
-0.00532232
-0.00437851
-0.00475849
-0.0041182
-0.00432769
-0.00288246
-0.00393565
-0.00222425
-0.00350577
-0.00237543
-0.00302253
-0.00272698
-0.00243957
-0.0037383
-0.00558377
-0.00172912
-0.00500115
-0.00478306
-0.00456051
-0.00455883
-0.00420516
-0.00323781
-0.00385589
-0.00257352
-0.00344761
-0.00278372
-0.00298116
-0.00319343
-0.0024138
-0.00430566
-0.00628013
-0.00171744
-0.017183
-0.00376001
-0.0185019
-0.00318254
-0.0204787
-0.00125872
-0.022218
-0.000834153
-0.0232734
-0.00172831
-0.02391
-0.00255683
-0.023554
-0.00466163
-0.00811759
-0.0217166
0.00579966
-0.00163686
0.00249568
8.2988e-05
-0.00318376
0.0042785
-0.0087186
0.00469
-0.0117645
0.00129606
-0.0131563
-0.00111399
-0.0140831
-0.0036068
-0.00754118
-0.0144664
0.0426829
-0.00188495
0.0420685
-0.000276526
0.0404193
0.00438285
0.0388756
0.00537876
0.0345715
0.00525471
0.0281507
0.00491422
0.0231757
0.00129252
-0.00248872
0.0183536
0.0771686
-0.0032959
0.0788631
-0.00177677
0.0795295
0.00290354
0.0791492
0.00433038
0.0790979
0.00396696
0.0813063
0.00230761
0.0852416
-0.00254779
-0.00300178
0.0854952
0.051953
-0.00114125
0.0570034
-0.000907286
0.063488
-0.000212369
0.0695189
0.000166167
0.0743958
-0.000140432
0.0778581
-0.000779603
0.0765195
-0.00136818
-0.000174703
0.0748893
0.00287176
-1.75084e-05
0.00330564
-1.31996e-05
0.00425654
-6.57464e-06
0.00550182
-5.4944e-06
0.00659134
-8.52777e-06
0.00737287
-7.76181e-06
0.00849127
-3.27376e-06
-6.78969e-07
0.0137517
2.29217e-05
-1.34198e-06
2.20944e-05
-9.08031e-07
2.41663e-05
-4.84904e-07
2.84971e-05
-3.14165e-07
3.55837e-05
-3.09965e-07
4.79306e-05
-3.80018e-07
6.74076e-05
-7.91829e-07
-8.00342e-11
0.000174434
7.53206e-07
-3.75151e-08
5.47552e-07
-1.81146e-08
4.11166e-07
-5.51996e-09
3.1697e-07
-1.7306e-09
3.04998e-07
-1.6465e-09
3.26532e-07
-2.26699e-09
8.91549e-07
-7.77176e-09
-1.55035e-08
1.03018e-06
1.16625e-08
-2.79523e-11
4.71513e-09
-1.42963e-11
1.07302e-09
-1.37453e-11
9.9018e-10
-1.61428e-11
1.10159e-09
-3.19538e-11
1.23596e-09
-9.72565e-11
6.75249e-09
-3.84937e-10
-1.71007e-09
8.30719e-08
6.16375e-12
-3.59084e-12
6.08899e-12
-3.54191e-12
6.95088e-12
-3.92899e-12
1.13889e-11
-7.04926e-12
3.1777e-11
-2.51865e-11
9.35244e-11
-7.48704e-11
4.06839e-10
-3.20993e-10
-1.45245e-09
4.58517e-09
2.00697e-12
-2.18773e-12
1.91104e-12
-2.09792e-12
2.26645e-12
-2.54597e-12
7.37468e-12
-7.53333e-12
3.1239e-11
-3.58337e-11
9.96653e-11
-1.2398e-10
4.06304e-10
-4.50156e-10
-2.1301e-09
3.76343e-09
2.04355e-12
-1.16497e-12
1.65777e-12
-3.68194e-13
1.95713e-12
-6.16981e-13
9.17481e-12
-4.8791e-12
4.64908e-11
-3.12226e-11
1.72493e-10
-1.16811e-10
8.60343e-10
-4.60185e-10
-2.24022e-09
7.61442e-09
1.6421e-13
-3.13656e-14
1.36453e-13
-4.4399e-14
2.79386e-13
-1.30474e-13
3.36108e-12
-9.79124e-13
2.26929e-11
-6.14491e-12
7.82159e-11
-1.50554e-11
3.86767e-10
-5.06618e-11
-3.31284e-10
3.16577e-09
1.71074e-14
-1.12021e-14
1.67062e-14
-1.33529e-14
6.3518e-14
-3.53566e-14
5.03847e-13
-2.13422e-13
2.33356e-12
-1.00312e-12
5.33358e-12
-2.51657e-12
1.85824e-11
-6.11791e-12
-1.77682e-11
1.77294e-10
5.05825e-15
-9.70251e-15
4.88395e-15
-3.8041e-15
1.50625e-14
-7.22204e-15
9.81261e-14
-4.63457e-14
3.68249e-13
-3.02917e-13
8.06202e-13
-8.76956e-13
1.92248e-12
-1.61913e-12
-3.23734e-12
7.62372e-12
1.49858e-15
-9.74776e-15
1.45628e-15
-1.43412e-15
2.60989e-15
-1.58541e-15
2.08059e-14
-1.10128e-14
1.20383e-13
-1.08421e-13
2.81092e-13
-3.66156e-13
5.67446e-13
-6.54666e-13
-1.39955e-12
1.63074e-12
2.46371e-15
-4.81483e-15
4.55818e-16
-3.55004e-16
4.36577e-16
-3.34204e-16
4.8849e-15
-2.70827e-15
4.48753e-14
-3.40699e-14
1.11445e-13
-1.1046e-13
2.24699e-13
-2.62489e-13
-8.42429e-13
8.05659e-13
4.18809e-16
-1.01373e-15
9.51268e-17
-4.5592e-17
9.18378e-17
-6.18947e-17
1.19653e-15
-5.40433e-16
1.19565e-14
-5.75278e-15
3.19261e-14
-1.67146e-14
8.93806e-14
-5.39281e-14
-3.79264e-13
4.93105e-13
1.98078e-17
-1.58783e-16
1.47344e-17
-7.63214e-18
1.91828e-17
-1.02624e-17
2.32185e-16
-7.04966e-17
1.87485e-15
-6.59579e-16
4.69159e-15
-1.84067e-15
1.6056e-14
-7.64294e-15
-7.0028e-14
1.78005e-13
2.40124e-18
-2.97281e-17
2.38357e-18
-1.04035e-18
3.09762e-18
-1.35978e-18
2.91723e-17
-6.16983e-18
2.1119e-16
-5.30523e-17
5.13069e-16
-1.37177e-16
2.33045e-15
-1.13806e-15
-1.67724e-14
3.00788e-14
3.16123e-19
-5.268e-18
3.1383e-19
-1.08163e-19
3.91073e-19
-1.36284e-19
2.39344e-18
-4.637e-19
1.64522e-17
-3.58373e-18
3.82105e-17
-9.72383e-18
3.72729e-16
-2.11268e-16
-6.02826e-15
7.51612e-15
3.15497e-20
-8.9629e-19
3.1649e-20
-8.19404e-21
3.78174e-20
-1.05917e-20
1.79808e-19
-6.39906e-20
1.22128e-18
-5.90139e-19
3.08577e-18
-2.15939e-18
7.22746e-17
-4.14786e-17
-2.78734e-15
2.84874e-15
2.28994e-21
-1.62652e-19
2.31158e-21
-4.69138e-22
3.1258e-21
-1.08854e-21
3.22498e-20
-2.64147e-20
2.7038e-19
-2.7328e-19
8.27752e-19
-9.48186e-19
1.44666e-17
-9.1517e-18
-1.58713e-15
1.44557e-15
1.26204e-22
-2.78411e-20
1.30032e-22
-2.67186e-23
5.07653e-22
-3.82368e-22
1.53626e-20
-1.41534e-20
1.31399e-19
-1.33852e-19
3.85632e-19
-3.98218e-19
3.3143e-18
-2.90519e-18
-7.77819e-16
8.25354e-16
7.29798e-24
-4.32105e-21
8.02732e-24
-3.60916e-24
2.33726e-22
-1.93551e-22
8.40105e-21
-5.42889e-21
5.49015e-20
-3.03735e-20
1.44478e-19
-1.2263e-19
1.18537e-18
-1.37754e-18
-2.27533e-16
3.57982e-16
1.92495e-23
-5.78552e-22
1.87511e-24
-3.63022e-24
1.24396e-22
-6.2833e-23
2.43319e-21
-1.05954e-21
1.09903e-20
-5.02106e-21
5.0936e-20
-5.53286e-20
6.60032e-19
-8.39307e-19
-4.89426e-17
8.92204e-17
2.07244e-23
-6.14672e-23
1.86213e-24
-2.20604e-24
2.95527e-23
-1.16468e-23
4.65367e-22
-2.02486e-22
1.78716e-21
-8.35785e-22
2.78871e-20
-3.35695e-20
4.1746e-19
-4.49461e-19
-1.0475e-17
1.89456e-17
4.11584e-24
-5.13644e-24
6.8961e-25
-5.4294e-25
5.03057e-24
-2.12639e-24
8.72984e-23
-3.55879e-23
2.89155e-22
-1.3198e-22
1.83702e-20
-1.89979e-20
1.94235e-19
-1.55374e-19
-2.09126e-18
3.87733e-18
5.37425e-25
-3.08905e-25
1.43518e-25
-6.18765e-26
8.9015e-25
-3.77692e-25
1.43843e-23
-5.53959e-24
4.40703e-23
-2.01978e-23
9.29533e-21
-7.02841e-21
5.35234e-20
-3.70582e-20
-3.73899e-19
7.4398e-19
4.31478e-26
-1.27271e-26
1.58399e-26
-5.31812e-27
1.70714e-25
-8.37299e-26
2.23645e-24
-9.27401e-25
6.66521e-24
-3.40329e-24
2.72401e-21
-1.47387e-21
1.24285e-20
-8.09785e-21
-6.15064e-20
1.30918e-19
2.43789e-27
-3.14324e-28
1.38105e-27
-6.9977e-28
4.14993e-26
-2.71115e-26
3.78642e-25
-2.11241e-25
1.12439e-24
-6.93407e-25
5.6166e-22
-2.74648e-22
2.69116e-21
-1.575e-21
-9.51738e-21
2.1008e-20
9.25305e-29
-8.78932e-30
3.16288e-28
-2.32774e-28
1.39207e-26
-9.9123e-27
8.29796e-26
-5.99797e-26
2.26333e-25
-1.56184e-25
1.03052e-22
-4.43725e-23
5.1635e-22
-2.72235e-22
-1.37689e-21
3.1408e-21
3.17131e-30
-2.54381e-31
1.31276e-28
-8.85571e-29
5.02464e-27
-2.54526e-27
2.05454e-26
-1.43511e-26
4.78627e-26
-3.12848e-26
1.63761e-23
-6.07658e-24
8.843e-23
-4.22054e-23
-1.91517e-22
4.41364e-22
8.98024e-32
-4.61477e-33
5.05041e-29
-1.64181e-29
1.12002e-27
-4.0757e-28
4.4605e-27
-2.49879e-27
8.98399e-27
-4.90004e-27
2.21535e-24
-6.96406e-25
1.36582e-23
-5.87991e-24
-2.59488e-23
5.94009e-23
1.44267e-33
-1.08747e-34
8.0159e-30
-2.47055e-30
1.7468e-28
-5.47325e-29
7.2947e-28
-3.28948e-28
1.33611e-27
-5.85513e-28
2.50447e-25
-6.35678e-26
1.91141e-24
-7.23247e-25
-3.47089e-24
7.96699e-24
2.80311e-35
-1.19387e-35
1.1775e-30
-3.11132e-31
2.3034e-29
-6.27023e-30
9.14681e-29
-3.57347e-29
1.52011e-28
-5.67572e-29
2.26075e-26
-4.27188e-27
2.38341e-25
-7.70884e-26
-4.77545e-25
1.07307e-24
3.03975e-36
-1.58381e-36
1.43312e-31
-2.99394e-32
2.57721e-30
-5.54909e-31
9.41989e-30
-3.07781e-30
1.38603e-29
-4.40894e-30
1.49424e-27
-1.85332e-28
2.5615e-26
-6.93736e-27
-5.25182e-26
1.20214e-25
3.89359e-37
-1.57628e-37
1.33385e-32
-1.91741e-33
2.2198e-31
-3.21907e-32
7.6924e-31
-1.78378e-31
1.00463e-30
-2.2779e-31
6.3495e-29
-3.93698e-30
2.30708e-27
-5.07672e-28
-4.48774e-27
1.19956e-26
3.73521e-38
-1.03359e-38
8.2291e-34
-6.01398e-35
1.24953e-32
-9.36329e-34
4.03957e-32
-4.58771e-33
4.73313e-32
-6.20866e-33
1.29598e-30
-1.11311e-32
1.67927e-28
-2.81912e-29
-2.60356e-28
9.75134e-28
2.49306e-39
-3.4129e-40
2.4893e-35
-2.17534e-38
3.50468e-34
-6.36995e-39
1.06025e-33
-1.3472e-36
1.3159e-33
-5.56144e-35
2.15404e-33
-4.86325e-34
9.15693e-30
-1.05036e-30
-9.98868e-30
5.63457e-29
1.37968e-40
-1.02492e-41
4.64224e-39
-2.6341e-39
1.41117e-38
-6.38726e-39
6.96479e-37
-1.63762e-37
1.93338e-35
-4.45953e-36
1.27392e-34
-2.88147e-35
3.28428e-31
-1.88185e-32
-1.86896e-31
2.12853e-30
3.92841e-42
-4.91676e-44
1.02944e-39
-5.7064e-42
4.08463e-39
-1.33374e-41
5.45002e-38
-6.84759e-39
1.45145e-36
-2.19688e-37
8.10623e-36
-1.73512e-36
5.60987e-33
-2.89316e-36
-1.94685e-36
3.96522e-32
2.15917e-44
-4.67335e-45
1.71854e-42
-1.14011e-43
4.02823e-42
-6.21013e-43
2.25723e-39
-1.30925e-42
6.86547e-38
-4.72673e-39
3.58978e-37
-4.45603e-38
4.16728e-37
-8.68045e-38
-6.91037e-38
2.71918e-37
1.95984e-45
-5.72486e-47
4.24613e-44
-4.54398e-45
1.59352e-43
-1.30391e-44
5.08922e-43
-2.82942e-43
1.45218e-39
-2.2151e-41
9.3129e-39
-3.1982e-40
1.19523e-38
-8.98452e-40
-7.36085e-40
7.3525e-39
1.39899e-46
4.22943e-47
1.37473e-45
5.03215e-48
3.53492e-45
-4.35392e-47
8.64058e-44
-1.8773e-45
6.70138e-42
-1.27307e-44
7.45601e-41
-1.24638e-44
1.19504e-40
-8.49755e-45
-3.54812e-45
9.48369e-41
-1.66836e-47
2.05038e-47
-1.81003e-48
5.19978e-48
1.49824e-47
4.65262e-48
5.86186e-46
-4.77106e-47
1.86626e-45
-3.07219e-46
1.71976e-45
2.53415e-48
1.07233e-45
2.35714e-46
7.12544e-46
3.55632e-46
-7.98916e-48
8.36472e-48
-1.84694e-48
2.97197e-48
-1.50446e-48
5.74781e-48
9.73576e-48
2.07469e-47
3.45551e-47
6.40826e-47
-6.847e-49
1.6554e-46
-5.99939e-47
3.63168e-46
6.65279e-46
-1.75039e-46
-3.20926e-48
3.15209e-48
-1.04135e-48
1.56429e-48
-1.83999e-48
3.89576e-48
-6.20598e-48
1.40312e-47
-1.78175e-47
4.26334e-47
-4.37688e-47
1.0801e-46
-9.07024e-47
2.37323e-46
4.48237e-46
-1.60006e-46
-1.18459e-48
1.12413e-48
-5.37716e-49
7.56882e-49
-1.23243e-48
2.23186e-48
-4.14e-48
8.03841e-48
-1.16161e-47
2.48809e-47
-2.79614e-47
6.5487e-47
-5.80408e-47
1.50562e-46
2.99305e-46
-1.05372e-46
-4.12269e-49
4.00747e-49
-2.54663e-49
3.63479e-49
-6.94869e-49
1.23763e-48
-2.32927e-48
4.60941e-48
-6.64093e-48
1.48729e-47
-1.66389e-47
4.09907e-47
-3.60268e-47
9.86843e-47
2.06169e-46
-6.8709e-47
-1.43751e-49
1.5968e-49
-1.19737e-49
1.94577e-49
-3.78571e-49
7.39485e-49
-1.31293e-48
2.8603e-48
-3.8985e-48
9.64483e-48
-1.02252e-47
2.76632e-47
-2.31294e-47
6.9182e-47
1.50395e-46
-4.6301e-47
-5.61461e-50
8.11794e-50
-6.27946e-50
1.22972e-49
-2.22263e-49
5.0019e-49
-8.02895e-49
1.99158e-48
-2.49003e-48
6.93262e-48
-6.78564e-48
2.04019e-47
-1.59103e-47
5.22566e-47
1.16499e-46
-3.311e-47
-2.80412e-50
5.30218e-50
-3.89311e-50
8.98325e-50
-1.47458e-49
3.77887e-49
-5.51515e-49
1.52757e-48
-1.76644e-48
5.39803e-48
-4.93122e-48
1.60836e-47
-1.18227e-47
4.16469e-47
9.40546e-47
-2.51769e-47
-1.79742e-50
3.97053e-50
-2.79594e-50
7.09252e-50
-1.09147e-49
3.03095e-49
-4.16541e-49
1.2325e-48
-1.35571e-48
4.37508e-48
-3.83109e-48
1.31091e-47
-9.29358e-48
3.40724e-47
7.74161e-47
-2.00068e-47
-1.31792e-50
3.1097e-50
-2.17007e-50
5.74792e-50
-8.57009e-50
2.47872e-49
-3.30359e-49
1.01062e-48
-1.0804e-48
3.58866e-48
-3.06555e-48
1.07888e-47
-7.49336e-48
2.80959e-47
6.40458e-47
-1.62067e-47
-1.0098e-50
2.45972e-50
-1.72789e-50
4.68007e-50
-6.86478e-50
2.03191e-49
-2.6596e-49
8.30202e-49
-8.71718e-49
2.94627e-48
-2.47489e-48
8.87933e-48
-6.07255e-48
2.31627e-47
5.29473e-47
-1.31755e-47
-3.68812e-50
1.23729e-51
-6.52161e-50
3.14372e-51
-2.6047e-49
1.55138e-50
-1.01124e-48
6.98211e-50
-3.33892e-48
2.68051e-49
-9.49317e-48
8.94942e-49
-2.33852e-47
2.56946e-48
6.51513e-48
-5.08553e-47
-1.64618e-51
4.94291e-53
-3.90755e-51
1.67644e-52
-1.78346e-50
9.26026e-52
-7.52154e-50
4.57198e-51
-2.72478e-49
1.938e-50
-8.54742e-49
7.12956e-50
-2.33536e-48
2.2844e-49
6.42523e-49
-5.61921e-48
-5.7148e-53
1.58865e-54
-1.80092e-52
6.86848e-54
-9.31207e-52
4.30531e-53
-4.28568e-51
2.36672e-52
-1.71001e-50
1.1217e-51
-5.9216e-50
4.61612e-51
-1.79698e-49
1.66663e-50
5.26133e-50
-4.78786e-49
-1.58422e-54
4.14539e-56
-6.37582e-54
2.2679e-55
-3.73281e-53
1.63056e-54
-1.92708e-52
1.01859e-53
-8.57672e-52
5.47025e-53
-3.32973e-51
2.55819e-52
-1.13665e-50
1.04477e-51
3.69487e-51
-3.39519e-50
-3.45855e-56
9.02429e-58
-1.76374e-55
6.26743e-57
-1.18666e-54
5.25087e-56
-6.95901e-54
3.78055e-55
-3.5194e-53
2.32587e-54
-1.55277e-52
1.23397e-53
-5.9936e-52
5.6462e-53
2.2036e-52
-2.00714e-51
-6.09138e-58
1.65996e-59
-3.94877e-57
1.46093e-58
-3.09958e-56
1.43796e-57
-2.09757e-55
1.19928e-56
-1.21587e-54
8.44096e-56
-6.09139e-54
5.04759e-55
-2.63593e-53
2.55953e-54
1.08743e-53
-9.73519e-53
-8.52203e-60
2.57708e-61
-7.01144e-59
2.85407e-60
-6.47604e-58
3.3251e-59
-5.08403e-57
3.22176e-58
-3.37695e-56
2.58809e-57
-1.9094e-55
1.73546e-56
-9.16842e-55
9.69962e-56
4.45384e-55
-3.6916e-54
-9.05766e-62
3.12143e-63
-9.37397e-61
4.31973e-62
-1.02458e-59
6.13999e-61
-9.34498e-59
7.06184e-60
-7.08621e-58
6.54834e-59
-4.49549e-57
4.95387e-58
-2.38096e-56
3.07665e-57
1.53175e-56
-1.03711e-55
-6.67085e-64
2.39581e-65
-8.57518e-63
4.08291e-64
-1.13633e-61
7.81814e-63
-1.22223e-60
1.14817e-61
-1.06266e-59
1.2812e-60
-7.55328e-59
1.1126e-59
-4.41418e-58
7.85339e-59
4.29308e-58
-2.06978e-57
-2.2543e-66
-3.57869e-65
-6.4022e-64
-8.80493e-63
-9.21755e-62
-7.51922e-61
-4.98878e-60
-2.56317e-59
-0.000720148
-0.000162898
-0.000525166
-0.000194983
-0.000311666
-0.000213499
-0.00012104
-0.000190626
1.92425e-05
-0.000140283
0.000115003
-9.576e-05
0.000186716
-7.17133e-05
0.00024673
-6.00143e-05
0.000294203
-4.74731e-05
0.000318759
-2.45559e-05
0.000310441
8.31862e-06
0.000263279
4.71611e-05
0.00017563
8.76493e-05
6.0349e-05
0.000115281
-3.03022e-05
9.06512e-05
-4.32875e-05
1.29853e-05
1.76388e-05
-6.09263e-05
0.00012226
-0.000104621
0.000220085
-9.78255e-05
0.000284855
-6.47698e-05
0.000333479
-4.86236e-05
0.000373235
-3.97567e-05
0.000393362
-2.01264e-05
0.000383714
9.64756e-06
0.000350494
3.32206e-05
0.00031011
4.03831e-05
0.000290235
1.98751e-05
0.000302269
-1.20342e-05
0.000337189
-3.49199e-05
0.000384012
-4.68226e-05
0.000433612
-4.96002e-05
0.000482028
-4.84156e-05
0.00052046
-3.84322e-05
0.000542914
-2.24539e-05
0.000550845
-7.93096e-06
0.000548389
2.45546e-06
0.000541164
7.22571e-06
0.000531941
9.22223e-06
0.000518058
1.38834e-05
0.000500193
1.78653e-05
0.000477342
2.28506e-05
0.000448791
2.85511e-05
0.000419093
2.96975e-05
0.000395516
2.35777e-05
0.000381174
1.43423e-05
0.000375671
5.50255e-06
0.00037601
-3.38827e-07
0.000376827
-8.16841e-07
0.000374087
2.73929e-06
0.000367079
7.0081e-06
0.000358267
8.81248e-06
0.000348669
9.59737e-06
0.000338976
9.69317e-06
0.00032933
9.64654e-06
0.000318118
1.1212e-05
0.000303968
1.41493e-05
0.000287125
1.68433e-05
0.000270078
1.70473e-05
0.000254591
1.54866e-05
0.000251306
3.28571e-06
0.000263539
-1.22338e-05
0.00028082
-1.72805e-05
0.000296377
-1.55574e-05
0.000314174
-1.77965e-05
0.000347814
-3.36403e-05
0.000408746
-6.09323e-05
0.000496768
-8.80216e-05
0.000603579
-0.000106811
0.000715119
-0.00011154
0.000817595
-0.000102476
0.000901228
-8.36329e-05
0.000961214
-5.99855e-05
0.00100705
-4.58342e-05
0.00105024
-4.31917e-05
0.00109695
-4.67079e-05
0.00114659
-4.96421e-05
0.00119465
-4.80575e-05
0.00123879
-4.41423e-05
0.00127952
-4.07346e-05
0.00131605
-3.65295e-05
0.00134761
-3.15551e-05
0.00137066
-2.30524e-05
0.00138597
-1.53114e-05
0.00139421
-8.2365e-06
0.00139748
-3.27074e-06
0.00139869
-1.2118e-06
0.00139923
-5.34314e-07
0.00140114
-1.911e-06
0.00140642
-5.28588e-06
0.00141679
-1.03696e-05
0.00143018
-1.33896e-05
0.00144083
-1.06504e-05
0.00144225
-1.4138e-06
0.00143089
1.13536e-05
0.00140355
2.734e-05
0.00136201
4.15413e-05
0.00131538
4.66271e-05
0.00127453
4.08534e-05
0.00124492
2.96087e-05
0.00122224
2.26801e-05
0.00119777
2.44696e-05
0.00116644
3.13295e-05
0.0011286
3.7838e-05
0.00109269
3.59194e-05
0.00106569
2.69927e-05
0.00104964
1.60505e-05
0.00104153
8.11557e-06
0.0010359
5.62788e-06
0.00102828
7.61858e-06
0.00101813
1.01472e-05
0.00101331
4.81978e-06
0.00102174
-8.42434e-06
0.00104224
-2.05026e-05
0.0010676
-2.53557e-05
0.00109397
-2.63747e-05
0.00113157
-3.75999e-05
0.00120064
-6.9065e-05
0.00131395
-0.00011331
0.00144438
-0.000130431
0.00154507
-0.000100692
0.00159753
-5.24612e-05
0.00160699
-9.45658e-06
0.00158787
1.91161e-05
0.0015517
3.61712e-05
0.00151198
3.97202e-05
0.00148304
2.89412e-05
0.00147721
5.82392e-06
0.00150326
-2.60483e-05
0.00156541
-6.215e-05
0.00164362
-7.82082e-05
0.00168092
-3.72997e-05
0.00162136
5.95585e-05
0.00143331
0.000188051
0.00110634
0.000326973
0.000728663
0.000377673
0.000418803
0.000309859
0.00021248
0.000206324
9.1646e-05
0.000120834
3.19604e-05
5.96856e-05
1.16992e-05
2.02613e-05
1.03049e-05
1.39429e-06
1.2824e-05
-2.51915e-06
1.20906e-05
7.33419e-07
6.09492e-06
5.99568e-06
-3.83279e-06
9.92771e-06
-1.35251e-05
9.69235e-06
-1.71668e-05
3.64166e-06
-1.17995e-05
-5.36731e-06
-3.66935e-07
-1.14326e-05
1.2031e-05
-1.2398e-05
2.0174e-05
-8.14296e-06
2.24654e-05
-2.29144e-06
2.09237e-05
1.54178e-06
1.63509e-05
4.57275e-06
9.18568e-06
7.16522e-06
8.91471e-06
-0.000720224
-0.000325434
-0.000525279
-0.000389928
-0.000311892
-0.000426886
-0.000121333
-0.000381185
1.8909e-05
-0.000280525
0.000114681
-0.000191532
0.000186427
-0.00014346
0.000246502
-0.000120089
0.000294024
-9.49951e-05
0.000318583
-4.91142e-05
0.000310209
1.66925e-05
0.000262961
9.44088e-05
0.000175205
0.000175405
5.98133e-05
0.000230673
-3.08912e-05
0.000181356
-4.3946e-05
2.604e-05
1.69933e-05
-0.000121866
0.000121597
-0.000209225
0.000219431
-0.000195659
0.000284281
-0.00012962
0.00033301
-9.73529e-05
0.000372894
-7.96402e-05
0.000393147
-4.03801e-05
0.000383601
1.91937e-05
0.000350448
6.63743e-05
0.0003101
8.07306e-05
0.000290231
3.9744e-05
0.000302263
-2.40664e-05
0.00033718
-6.98368e-05
0.000384
-9.3642e-05
0.000433598
-9.91981e-05
0.000482013
-9.6831e-05
0.000520447
-7.68664e-05
0.000542902
-4.49091e-05
0.000550834
-1.58622e-05
0.000548378
4.91075e-06
0.000541153
1.44507e-05
0.000531931
1.84449e-05
0.000518049
2.77649e-05
0.000500183
3.57313e-05
0.000477331
4.57029e-05
0.00044878
5.71018e-05
0.000419079
5.93983e-05
0.000395498
4.71588e-05
0.000381155
2.86858e-05
0.000375653
1.10044e-05
0.000375994
-6.80115e-07
0.000376814
-1.6366e-06
0.000374074
5.47954e-06
0.000367067
1.40146e-05
0.000358256
1.76239e-05
0.000348658
1.91951e-05
0.000338963
1.93884e-05
0.000329314
1.92951e-05
0.0003181
2.24259e-05
0.00030395
2.82996e-05
0.000287107
3.36861e-05
0.000270061
3.40938e-05
0.000254577
3.09706e-05
0.000251292
6.57006e-06
0.000263524
-2.44654e-05
0.000280804
-3.45605e-05
0.00029636
-3.1114e-05
0.000314156
-3.55917e-05
0.000347804
-6.72885e-05
0.000408739
-0.000121868
0.000496768
-0.00017605
0.000603581
-0.000213624
0.000715098
-0.000223056
0.000817563
-0.000204942
0.000901204
-0.000167273
0.000961198
-0.00011998
0.00100704
-9.1674e-05
0.00105023
-8.63856e-05
0.00109694
-9.3418e-05
0.00114658
-9.92842e-05
0.00119464
-9.61128e-05
0.00123877
-8.82779e-05
0.0012795
-8.1458e-05
0.00131603
-7.30563e-05
0.00134758
-6.31104e-05
0.00137064
-4.61084e-05
0.00138595
-3.06248e-05
0.00139419
-1.64745e-05
0.00139746
-6.54215e-06
0.00139867
-2.42311e-06
0.0013992
-1.06791e-06
0.00140111
-3.82145e-06
0.0014064
-1.05712e-05
0.00141677
-2.07387e-05
0.00143016
-2.67772e-05
0.00144081
-2.12997e-05
0.00144222
-2.82774e-06
0.00143087
2.27079e-05
0.00140352
5.46807e-05
0.00136198
8.30835e-05
0.00131535
9.32563e-05
0.0012745
8.17094e-05
0.00124489
5.92198e-05
0.00122221
4.53605e-05
0.00119774
4.89396e-05
0.0011664
6.26603e-05
0.00112857
7.56768e-05
0.00109264
7.18413e-05
0.00106565
5.39835e-05
0.0010496
3.21002e-05
0.00104149
1.62321e-05
0.00103586
1.12567e-05
0.00102824
1.52368e-05
0.00101809
2.02946e-05
0.00101327
9.64487e-06
0.00102168
-1.68409e-05
0.00104219
-4.10058e-05
0.00106755
-5.07199e-05
0.00109395
-5.27731e-05
0.00113156
-7.52149e-05
0.00120064
-0.000138144
0.00131392
-0.000226586
0.00144428
-0.000260795
0.001545
-0.000201404
0.00159748
-0.000104948
0.00160695
-1.89233e-05
0.00158783
3.8232e-05
0.00155167
7.23395e-05
0.00151196
7.9429e-05
0.00148302
5.78827e-05
0.00147719
1.1646e-05
0.00150325
-5.21086e-05
0.00156542
-0.000124316
0.00164361
-0.000156397
0.00168087
-7.45659e-05
0.00162129
0.000119143
0.00143314
0.000376197
0.00110612
0.000653998
0.000728633
0.000755159
0.000418816
0.000619676
0.000212463
0.000412676
9.16313e-05
0.000241666
3.19479e-05
0.000119369
1.16888e-05
4.05204e-05
1.0296e-05
2.78714e-06
1.28156e-05
-5.03877e-06
1.20825e-05
1.46646e-06
6.08682e-06
1.19914e-05
-3.84157e-06
1.98561e-05
-1.35342e-05
1.9385e-05
-1.7176e-05
7.28347e-06
-1.18084e-05
-1.07349e-05
-3.75013e-07
-2.2866e-05
1.20227e-05
-2.47956e-05
2.01659e-05
-1.62861e-05
2.24574e-05
-4.58294e-06
2.09154e-05
3.08372e-06
1.63427e-05
9.14543e-06
9.17744e-06
1.43305e-05
1.78294e-05
-0.000720747
-0.000487883
-0.000525448
-0.000585227
-0.000312043
-0.00064029
-0.000121496
-0.000571732
1.86985e-05
-0.00042072
0.000114437
-0.00028727
0.000186154
-0.000215177
0.000246232
-0.000180168
0.00029377
-0.000142533
0.000318328
-7.36723e-05
0.000309929
2.50916e-05
0.000262642
0.000141696
0.000174854
0.000263193
5.94409e-05
0.000346086
-3.12638e-05
0.00027206
-4.43498e-05
3.91261e-05
1.65963e-05
-0.000182812
0.000121165
-0.000313794
0.000218961
-0.000293455
0.000283824
-0.000194483
0.00033259
-0.000146119
0.000372542
-0.000119593
0.000392891
-6.07292e-05
0.000383447
2.86386e-05
0.000350372
9.94487e-05
0.000310066
0.000121037
0.00029021
5.95994e-05
0.000302244
-3.61e-05
0.000337161
-0.000104754
0.000383978
-0.000140459
0.000433571
-0.000148791
0.000481981
-0.000145241
0.000520418
-0.000115304
0.000542877
-6.73679e-05
0.00055081
-2.3795e-05
0.000548356
7.36475e-06
0.000541132
2.16743e-05
0.000531913
2.76642e-05
0.000518033
4.16446e-05
0.000500168
5.35967e-05
0.000477316
6.85549e-05
0.00044876
8.56582e-05
0.000419056
8.91021e-05
0.000395474
7.07403e-05
0.000381133
4.30276e-05
0.000375633
1.65041e-05
0.000375976
-1.02303e-06
0.000376796
-2.4571e-06
0.000374059
8.21672e-06
0.000367052
2.10219e-05
0.00035824
2.64361e-05
0.000348641
2.87932e-05
0.000338946
2.90839e-05
0.000329297
2.89444e-05
0.000318082
3.36402e-05
0.000303933
4.24494e-05
0.00028709
5.05285e-05
0.000270043
5.11406e-05
0.000254558
4.64558e-05
0.000251274
9.85447e-06
0.0002635
-3.66915e-05
0.000280779
-5.18396e-05
0.000296334
-4.66689e-05
0.000314127
-5.33846e-05
0.000347797
-0.000100959
0.000408743
-0.000182814
0.000496792
-0.000264099
0.000603588
-0.00032042
0.00071508
-0.000334548
0.00081754
-0.000307401
0.000901167
-0.0002509
0.000961169
-0.000179982
0.00100704
-0.000137544
0.00105024
-0.000129583
0.00109695
-0.000140128
0.00114658
-0.00014892
0.00119463
-0.000144161
0.00123876
-0.000132407
0.00127947
-0.00012217
0.00131599
-0.000109576
0.00134754
-9.46636e-05
0.00137061
-6.9173e-05
0.00138592
-4.5942e-05
0.00139416
-2.47118e-05
0.00139743
-9.8116e-06
0.00139864
-3.63452e-06
0.00139918
-1.60226e-06
0.00140109
-5.73206e-06
0.00140637
-1.58571e-05
0.00141674
-3.11094e-05
0.00143014
-4.01675e-05
0.00144079
-3.19526e-05
0.00144221
-4.24616e-06
0.00143086
3.40585e-05
0.00140351
8.20221e-05
0.00136196
0.000124633
0.00131533
0.000139889
0.00127448
0.000122562
0.00124488
8.88236e-05
0.0012222
6.80375e-05
0.00119773
7.34102e-05
0.00116639
9.3997e-05
0.00112854
0.000113528
0.00109261
0.000107769
0.00106562
8.0979e-05
0.00104957
4.81472e-05
0.00104145
2.43477e-05
0.00103583
1.68837e-05
0.00102821
2.2852e-05
0.00101807
3.04409e-05
0.00101324
1.44718e-05
0.00102165
-2.52547e-05
0.00104216
-6.151e-05
0.00106752
-7.60857e-05
0.00109395
-7.92015e-05
0.0011316
-0.00011286
0.00120068
-0.000207228
0.00131391
-0.000339818
0.00144426
-0.000391147
0.00154498
-0.000302118
0.00159746
-0.000157433
0.00160693
-2.83905e-05
0.00158782
5.73467e-05
0.00155165
0.000108506
0.00151195
0.000119129
0.001483
8.68329e-05
0.00147718
1.74606e-05
0.00150327
-7.8196e-05
0.00156543
-0.000186471
0.00164357
-0.00023454
0.0016808
-0.000111801
0.00162112
0.000178829
0.00143292
0.0005644
0.00110594
0.000980976
0.000728608
0.00113249
0.000418841
0.000929443
0.000212458
0.00061906
9.16109e-05
0.000362513
3.19294e-05
0.00017905
1.16747e-05
6.07751e-05
1.02847e-05
4.17705e-06
1.28065e-05
-7.56048e-06
1.20743e-05
2.19861e-06
6.07842e-06
1.79873e-05
-3.85162e-06
2.97862e-05
-1.35453e-05
2.90787e-05
-1.71874e-05
1.09256e-05
-1.18192e-05
-1.61031e-05
-3.84392e-07
-3.43008e-05
1.20133e-05
-3.71934e-05
2.01568e-05
-2.44296e-05
2.24484e-05
-6.87454e-06
2.09065e-05
4.6256e-06
1.63338e-05
1.37181e-05
9.16818e-06
2.14962e-05
2.67442e-05
-0.000721754
-0.000650238
-0.000525885
-0.000781095
-0.000312351
-0.000853824
-0.000121747
-0.000762337
1.84233e-05
-0.00056089
0.00011413
-0.000382977
0.000185817
-0.000286863
0.000245889
-0.00024024
0.000293432
-0.000190076
0.000317998
-9.82385e-05
0.000309604
3.3486e-05
0.000262336
0.000188963
0.000174584
0.000350945
5.91962e-05
0.000461474
-3.14734e-05
0.00036273
-4.45403e-05
5.21929e-05
1.64299e-05
-0.000243782
0.000121009
-0.000418373
0.000218789
-0.000391235
0.000283618
-0.000259312
0.000332366
-0.000194866
0.000372316
-0.000159543
0.000392695
-8.11087e-05
0.0003833
3.8034e-05
0.000350277
0.000132471
0.000310002
0.000161312
0.000290165
7.94367e-05
0.00030221
-4.81451e-05
0.000337134
-0.000139679
0.000383954
-0.000187279
0.000433539
-0.000198376
0.00048193
-0.000193632
0.000520376
-0.000153749
0.000542843
-8.98354e-05
0.000550781
-3.17333e-05
0.00054833
9.81666e-06
0.000541106
2.88983e-05
0.00053189