/*--------------------------------*- C++ -*----------------------------------*\
| =========                 |                                                 |
| \\      /  F ield         | OpenFOAM: The Open Source CFD Toolbox           |
|  \\    /   O peration     | Version:  v1912                                 |
|   \\  /    A nd           | Website:  www.openfoam.com                      |
|    \\/     M anipulation  |                                                 |
\*---------------------------------------------------------------------------*/
FoamFile
{
    version     2.0;
    format      ascii;
    class       volScalarField;
    location    "60";
    object      p_rgh;
}
// * * * * * * * * * * * * * * * * * * * * * * * * * * * * * * * * * * * * * //

dimensions      [1 -1 -2 0 0 0 0];


internalField   nonuniform List<scalar> 
14268
(
60.8367
89.7262
89.9705
84.0353
90.479
87.9692
71.8771
42.7436
45.6829
21.3343
18.47
19.3272
31.6904
41.8431
35.0242
21.2635
14.277
13.9805
20.1199
18.961
16.9205
15.7132
18.446
19.571
15.4285
5.99469
5.15348
5.16569
4.36111
3.79648
3.64637
7.99083
11.3233
11.3341
8.78171
4.20076
3.27091
3.15775
4.4641
6.52901
6.3388
4.7664
4.0524
3.59077
3.50414
3.44641
3.38278
3.26863
3.15325
2.9782
2.6349
1.92064
1.47894
1.43173
1.5071
1.73127
1.62345
1.1011
1.00475
0.959906
0.947236
0.993148
1.00743
1.08829
1.02638
1.32255
3.16224
5.37734
6.56134
8.1777
10.2597
10.2211
10.2286
10.2951
9.97884
9.3042
10.505
12.092
12.2208
12.169
11.5114
11.3773
11.9392
14.1675
15.3197
15.3185
15.3223
15.3732
15.1691
15.3867
15.5672
15.7161
15.825
15.8684
15.9264
16.2364
13.9502
13.9977
19.1203
19.1713
19.3444
18.7716
16.1758
14.8966
59.3011
64.7102
79.0518
38.8458
41.7299
53.5076
45.3955
42.536
53.0459
23.736
21.2911
47.684
71.2005
79.2128
64.6421
60.3893
15.1678
19.2063
18.3159
7.35304
7.36696
7.428
7.60939
15.247
11.203
5.71126
7.63793
9.70989
6.55437
3.7238
3.80619
9.10931
5.78052
11.2085
11.7423
8.95811
4.62302
3.19198
6.223
8.32886
8.18269
6.57549
4.01097
3.48115
3.65474
3.98852
4.03433
3.26968
4.11305
5.2609
5.00972
3.22969
2.42454
3.08228
5.73389
6.93411
6.20217
2.43783
2.15417
5.52957
6.53353
5.94987
4.22109
1.39537
0.91826
1.35637
1.85787
2.04502
2.21165
2.57117
5.03603
7.28375
9.91372
9.78969
10.475
10.8084
7.78803
4.63996
4.72195
4.3467
2.96548
2.3889
2.53459
3.7901
9.60774
15.2953
15.3204
11.3244
6.21964
7.00831
12.2985
15.7114
15.8225
15.8597
14.1704
16.1678
13.8798
13.9528
19.1008
18.7081
14.7849
12.7955
12.2576
10.4594
58.9188
41.0784
36.661
38.7794
36.8189
33.8636
33.3317
62.4647
53.1791
34.6019
53.7107
83.81
94.6765
102.917
86.9548
85.7969
23.3057
38.4077
31.2123
7.23515
7.02911
7.13684
6.80593
9.06569
7.52356
7.96397
18.6813
22.1204
15.9588
5.34102
3.86173
9.12214
4.36337
5.75833
11.7614
12.2579
8.9151
3.78208
6.83314
7.11612
6.09044
6.80157
5.07717
3.88582
6.27981
8.6936
8.55825
4.21237
6.00892
9.61204
9.54044
7.75647
4.89995
5.85612
13.0815
16.6026
16.0024
8.79381
6.0765
15.3877
16.5874
14.989
13.1857
6.85388
1.16875
1.18436
1.41937
4.89613
8.6849
8.46917
5.20894
8.71581
6.16682
3.54929
4.71459
8.92711
12.171
11.2403
6.38085
3.46845
1.8645
1.7264
1.76157
2.1467
4.92027
9.99082
11.7587
6.71404
3.29143
3.693
6.22776
11.6989
15.3392
10.4136
6.51435
8.49683
22.453
16.9037
7.83776
7.33223
7.47317
9.96869
8.99576
6.83701
67.1303
55.7389
35.4673
44.4379
69.8268
43.011
53.3773
79.9362
37.2704
29.0618
88.9759
104.556
109.491
114.995
115.913
50.0739
38.9676
38.9853
22.8032
12.5876
10.2035
14.5864
10.7507
6.53043
6.24657
20.6474
27.067
27.3381
24.0503
8.51705
3.89474
5.83122
4.62421
4.02962
8.07449
13.2715
13.2519
4.05392
5.85577
3.71773
3.46294
7.0125
8.48891
8.49961
10.021
11.6987
11.7633
9.61058
7.40221
5.2655
5.5442
4.80429
13.2736
17.5953
17.6831
17.897
18.1385
17.5989
17.2708
17.4575
17.9585
18.6899
18.9362
16.1509
3.06087
1.09153
2.77772
10.0261
14.3854
14.4863
5.85229
6.34648
1.94746
1.95095
2.00327
2.33186
8.87358
14.7834
14.926
7.07216
1.72495
1.56525
1.57202
1.67568
4.6056
5.47711
4.39053
2.68957
2.40855
2.60943
3.58526
4.54683
7.33154
6.68603
4.9884
5.21522
23.2284
23.343
11.0644
13.201
16.0224
10.8368
4.78309
3.46462
100.574
79.6854
35.4977
117.504
104.391
97.2433
108.039
80.3412
22.3939
22.0243
33.2461
39.5687
70.7093
95.4136
116.247
31.4056
21.7361
38.7853
12.7189
17.5073
26.1638
39.7369
17.9701
5.6805
6.17466
20.9835
14.7777
11.635
9.00729
6.6883
4.05505
5.22204
7.31193
4.45959
4.20352
10.8826
13.4956
4.85286
3.36228
3.53009
4.92394
10.4155
13.5862
13.5136
12.0528
10.1946
11.615
11.6424
11.6612
3.76215
3.64004
3.80859
7.23413
11.3358
12.1365
16.6895
16.7306
17.7024
17.7289
11.8469
3.74703
2.68854
4.32876
17.4585
11.9491
1.37939
4.16972
10.0761
8.26293
6.18441
8.71082
4.75596
5.40502
6.19328
4.95968
1.84727
1.81206
5.40048
7.99513
4.03486
1.59841
1.53739
1.54543
1.59361
2.6553
7.90724
4.5658
2.56271
2.57502
5.49835
3.41691
3.1783
3.27422
5.14847
8.166
8.24597
15.9907
23.3754
23.2289
23.3533
15.3775
3.16455
2.54632
2.71569
173.617
153.776
74.3355
132.044
40.2149
106.831
108.521
49.9262
13.0252
25.9392
25.8216
72.5581
61.8946
62.4125
116.6
63.2908
16.1452
35.7936
9.32015
16.8429
43.4672
44.2518
8.37578
5.49085
10.4716
14.5775
10.9019
8.98805
8.55528
4.61741
4.15314
5.06763
7.19429
7.43758
8.43857
9.20203
12.9578
10.6999
3.24796
5.14732
9.62411
13.4421
13.5809
13.5164
5.19267
3.1703
6.30758
11.6647
9.81458
3.70959
4.03751
5.69729
4.42758
6.63866
11.106
8.76386
10.9023
13.669
17.6848
4.11389
0.66496
0.665021
1.73863
14.6676
15.6208
2.23331
5.0919
9.50395
1.97602
2.70082
13.6749
5.87939
10.205
10.2937
10.377
5.6361
1.58304
1.60329
2.28419
1.67985
1.45623
1.42561
1.40453
1.45672
1.75684
9.55445
10.186
4.12189
3.94002
6.23775
4.36746
3.12581
3.23999
3.47162
9.22122
14.6386
6.023
23.3846
23.2657
19.154
3.23576
2.21594
2.46147
2.71189
175.746
102.52
130
134.333
39.9466
104.458
109.448
28.9699
12.4744
26.0688
69.0697
113.182
112.699
114.974
116.983
108.28
15.9657
16.5549
9.14404
32.3982
44.039
44.8422
14.9715
11.8366
18.1396
10.3427
13.5471
15.905
15.8106
6.21243
4.41584
4.48552
3.99349
7.4301
7.02979
6.89975
8.05749
11.8711
3.20584
8.34148
12.6178
13.4921
13.6361
10.5833
4.00676
2.86226
4.10974
9.64647
6.94793
8.33793
9.52697
7.59902
4.40497
5.2641
8.71625
3.00374
5.79342
11.9508
9.69049
1.81764
0.563084
0.614592
0.719402
3.20805
15.7564
4.24848
6.17558
6.99645
1.8216
2.54085
14.1808
14.178
8.35513
4.80538
6.71006
7.95578
3.87271
1.22065
1.2529
1.31471
1.37984
1.39982
1.3894
1.43401
1.53813
6.37281
10.4095
6.95032
4.3394
5.9923
6.96574
3.18055
3.2099
3.10347
5.7914
14.6612
3.74506
21.8933
23.3235
9.52375
2.26438
2.2056
2.4612
3.8239
177.328
59.8947
72.6533
135.256
58.7776
64.8432
81.9587
16.8508
12.3648
18.9925
111.581
114.05
114.183
115.434
117.406
117.313
19.3284
9.31779
12.8928
42.9553
44.3721
17.9422
17.5448
10.384
18.1463
9.56539
9.32342
5.57255
14.123
7.14789
6.52054
3.59492
3.26764
5.30036
5.04799
5.07708
5.16762
11.9003
6.27918
3.31789
3.03196
7.71035
9.68591
5.38497
3.14513
2.77433
2.79805
4.44838
4.44172
9.96822
9.91565
9.97875
5.52676
4.0016
3.82368
0.932755
3.37796
13.5333
8.91492
1.44811
1.41549
1.08704
0.645045
1.14506
8.83434
6.91905
4.67475
2.6476
1.75194
4.051
14.2282
11.4071
1.9449
1.93521
2.09109
6.57945
6.63247
2.02442
1.1958
1.24612
1.29972
1.29283
1.26927
1.32294
1.44546
2.80045
10.4383
10.4855
6.31439
4.68609
11.5209
4.1756
3.1788
3.05045
4.07436
6.2406
3.64756
9.82781
22.4921
4.59952
1.99129
2.19773
3.51265
5.67118
142.662
40.3775
31.8545
133.016
127.929
40.3287
26.0461
13.2554
12.2367
22.5336
112.885
114.775
114.868
116.276
118.117
118.418
49.853
9.09325
24.9598
43.4846
28.7107
5.40945
17.748
8.25975
12.2192
6.78705
4.67746
4.49148
4.88316
12.8673
16.4909
3.33641
3.18228
3.31814
3.21166
3.47248
3.79725
8.77209
4.87441
2.63991
2.33473
3.43173
4.7887
2.98131
2.96523
2.76108
2.75279
2.39933
2.34379
7.69751
9.98327
8.26104
8.38883
4.22716
1.78852
0.575313
1.79859
10.3264
7.55183
1.89224
2.83408
2.45435
0.758993
0.797489
2.63422
7.50295
2.57673
1.76104
1.72952
2.20621
10.4034
5.81219
1.91997
1.90743
1.93029
2.5472
3.80079
2.60557
1.24277
1.22692
1.27522
1.26266
1.24229
1.29763
1.41562
1.79879
5.46191
9.04131
4.94716
3.12948
11.5854
10.5672
3.14505
3.00453
3.75606
3.77509
3.64741
3.95375
11.5419
4.35067
1.98872
2.85451
5.42514
6.07226
53.6926
32.7069
30.4377
46.7388
131.882
23.0303
14.7767
13.2638
22.7643
57.7315
105.878
108.287
115.55
94.2528
99.7802
119.432
120.527
9.56528
39.524
40.2825
6.50317
4.88304
25.4089
5.75745
5.83246
6.63254
5.00637
4.17263
3.91794
16.9279
17.1639
3.39181
3.5114
3.16721
2.93294
2.84589
2.93499
3.50831
3.27997
3.79904
7.96586
3.04522
2.96249
2.81214
6.24703
6.295
4.00194
2.76734
2.22053
2.76949
5.23304
6.8107
11.0681
10.2562
5.3604
0.480644
0.665777
3.1912
4.76331
2.27351
2.79166
2.92823
1.75798
0.717327
1.09213
12.2585
3.28323
1.69501
1.75749
1.78403
3.118
2.07403
1.92587
1.87799
1.89171
2.08051
2.12216
2.51596
1.47703
1.17404
1.20094
1.17278
1.1428
1.20543
1.3501
1.56362
2.12408
4.70414
3.45347
2.31163
8.46114
11.9348
10.4901
2.95403
7.77273
3.70272
4.18764
3.47774
4.62659
2.71785
1.98652
4.37021
4.9512
3.60435
32.9962
31.7615
79.299
33.6512
133.996
27.063
14.4703
40.0047
17.0894
34.2624
29.9738
30.0287
75.0393
16.4186
21.8398
77.5802
121.53
20.6956
14.9458
33.9747
4.7789
4.71418
31.0864
7.6914
5.07311
8.83934
8.32916
8.58993
3.79572
17.07
17.2557
3.48595
5.1046
3.14579
2.86641
2.95702
2.82391
2.73421
2.49106
7.94348
18.4679
8.86792
3.01924
3.69064
12.9581
11.1051
6.20198
6.27411
3.63152
1.98579
1.965
4.66011
11.1691
11.6774
10.2195
0.482347
0.524957
0.971485
2.56302
2.83563
2.78476
2.64123
2.70856
0.719455
0.925951
16.9533
8.95019
2.29201
3.99931
1.7695
1.96205
1.89548
1.88081
1.86023
2.39758
6.88097
5.1321
2.65716
1.78139
1.38675
1.37055
1.43595
1.50092
1.53957
1.42119
1.53108
1.61328
2.9529
2.73581
1.9682
4.11149
11.9924
11.0249
3.97189
15.0365
3.66335
4.31613
3.2212
4.39783
1.82159
2.1497
3.79521
3.20267
2.51123
32.239
32.607
127.663
32.3807
135.598
34.0075
14.0695
50.8745
12.3118
12.4609
13.2043
12.1009
13.1025
8.87502
13.1759
35.8242
122.641
88.6013
5.25901
15.8492
4.50848
4.5252
31.2974
9.73244
4.85083
10.3754
13.3381
17.3402
3.63218
13.597
17.3288
3.79861
6.68839
3.13892
2.79288
3.62797
2.92742
2.66196
2.42029
10.6133
19.1958
19.3619
7.71605
5.73846
15.0766
15.0771
9.43087
4.56979
4.85086
1.93129
1.91907
3.24738
9.9223
11.7254
4.88444
3.16609
0.523089
0.580186
1.36211
1.98232
1.08288
0.939399
2.13638
0.794469
0.90246
17.0201
15.8017
5.7973
6.70804
1.73636
1.93001
1.87417
1.86249
2.67947
6.97721
8.96085
9.02843
4.09569
2.33798
1.77819
1.91039
3.24114
3.85072
2.76382
1.68511
1.49368
1.59002
2.05456
2.34634
1.79876
2.21297
7.16802
5.60939
13.3448
16.4804
3.61123
4.56709
3.15447
4.31387
1.81642
2.52539
2.52452
2.30986
2.44714
31.7176
48.5194
129.78
32.006
85.8853
38.5029
13.9598
51.5883
12.2112
11.1115
12.2203
9.57009
8.9952
8.88901
12.3089
25.8498
55.1159
52.7722
4.57168
6.42794
4.37186
6.14751
31.6263
11.9842
4.70321
9.09752
23.9486
23.9945
3.54228
5.54061
17.4054
4.84773
9.2639
3.47269
2.72789
5.25016
3.58994
2.80144
2.37755
11.9154
19.3916
19.5416
19.4803
12.9303
4.596
3.51778
10.5557
3.14025
3.09243
1.89504
1.90382
2.4659
8.57462
11.6379
4.35816
8.80108
1.85137
0.528903
0.762944
1.15781
0.521126
0.614463
0.919909
1.1269
0.95401
17.1425
12.3746
9.81062
9.00825
1.92366
1.92355
1.86429
3.43235
6.19986
8.90769
9.02394
9.0862
6.55729
3.37638
2.45323
2.8791
6.8382
9.28767
4.90416
2.05241
1.5152
1.73681
2.96259
2.08215
1.71685
1.80272
2.44345
2.47935
17.0892
11.8898
5.56293
6.93548
3.10511
3.31053
1.82002
2.52902
2.08636
2.26262
2.42604
43.9273
122.086
129.461
31.0242
34.9786
55.8459
16.5891
28.9448
12.084
22.4179
36.3436
30.0126
8.90352
8.86977
12.9015
18.5597
8.74463
21.2994
4.31614
4.37365
4.16894
7.24417
21.2901
13.8324
4.56475
11.7265
37.0901
31.5591
4.89203
5.08242
12.4221
6.39361
14.4344
6.44082
2.67464
6.14649
4.25413
7.78457
2.66378
11.3332
19.5051
19.6965
19.7021
19.7897
3.85222
3.48549
10.6125
3.71068
3.55381
2.38942
3.08968
1.64472
5.02989
7.15515
4.33879
10.0497
4.5694
0.471854
0.539355
0.589869
0.646079
0.575619
0.647504
1.33194
1.02358
15.4564
6.51594
9.87001
9.92662
4.20756
1.90254
1.88987
4.7628
6.82069
6.90029
7.38075
9.14388
9.10274
5.07546
3.50071
4.32926
11.6202
13.6437
7.03357
2.46196
1.74493
3.01694
3.32023
2.33384
1.83215
1.76899
1.80811
1.91025
17.1702
3.8858
8.02603
15.2038
6.10161
2.1668
1.95322
2.24143
2.04268
2.24697
2.4076
54.2392
124.087
52.9132
69.4608
26.3793
78.5338
69.6126
13.3779
11.884
62.8898
68.3538
59.5875
8.78924
8.85593
11.4095
13.46
5.49401
6.47554
8.90995
5.11027
4.19799
4.31544
7.11591
13.6835
5.47427
23.2557
37.6784
38.1516
12.7266
9.7355
4.34609
10.2249
16.6494
15.7839
5.16761
7.21113
6.10809
12.4564
11.0486
12.3127
19.7954
17.948
18.5941
12.3716
3.65434
3.62353
6.4561
10.9163
10.866
8.67855
3.4628
1.50368
1.73348
2.74856
5.08607
10.1993
8.81076
1.07672
0.551431
1.22946
1.72404
0.552383
0.617362
1.34077
1.17986
5.5737
3.47167
6.4439
8.28629
6.99327
3.00106
4.7172
4.78117
2.08956
1.97017
2.08184
5.71357
9.20898
7.96541
5.69203
7.72656
13.7195
13.7964
9.40117
3.45607
2.32676
3.31139
3.35398
2.8731
3.23484
2.07746
5.9445
2.09543
16.3191
2.26146
2.82093
18.2876
18.191
2.00595
1.65906
1.85401
2.01879
2.2251
2.37707
63.4398
102.843
23.2424
108.407
20.0177
80.1846
82.8804
12.9254
16.6017
73.7816
73.3489
73.1826
16.3977
10.9909
9.64348
7.13071
5.74211
5.12661
24.7205
8.62388
4.11499
4.12523
4.56372
14.0411
7.4346
25.9512
38.4145
38.7144
25.7952
4.26435
3.83432
6.43566
16.8928
16.8507
16.6867
5.85816
5.68749
9.04416
13.9532
14.0814
14.6103
4.68069
7.72238
3.53717
3.31146
7.68507
6.27105
11.7962
11.8193
10.7665
1.60023
1.44722
1.48418
2.4009
7.86257
7.85242
10.5303
3.44988
0.876922
2.60797
3.08507
0.495847
0.563813
0.699314
0.944266
1.15385
4.28776
2.16901
3.52221
5.97448
2.28993
3.4075
1.0698
0.985246
1.03632
1.0936
1.50771
4.5287
5.62966
7.18721
12.741
13.8532
13.9315
13.2183
5.12964
1.90783
2.70786
2.33848
4.63199
5.53124
2.94858
8.72404
2.66595
5.97807
1.83343
3.94211
18.0683
18.6503
1.97214
1.61823
1.79708
1.99827
2.19758
2.3357
73.1671
31.7344
21.4162
110.637
19.3499
45.1992
84.818
14.0056
40.2831
33.0089
34.9695
28.9366
17.9392
8.22387
8.49943
4.47562
8.73182
4.89301
33.926
12.486
4.14045
4.31046
4.36109
22.1245
25.7902
24.5346
34.5527
39.6276
27.7086
4.16204
4.2182
4.12906
17.1358
17.1275
14.798
3.43629
3.26328
3.17416
12.9903
9.44783
4.36073
2.6646
2.6016
2.44707
3.50804
8.27278
7.08307
8.08273
10.3464
4.56113
1.56191
2.48796
4.03091
4.88882
3.34355
2.51274
10.7114
8.02701
1.26772
3.96631
5.05812
0.887643
0.993582
0.657898
0.813866
0.894267
4.33707
2.08668
1.26905
2.88955
1.39905
1.58718
0.98847
0.938185
1.00887
1.06453
1.15203
1.4834
2.2477
7.36283
13.867
14.0316
14.1004
14.0593
7.0886
1.8888
1.75806
1.76933
3.01616
5.22794
3.94946
8.79362
4.99069
3.17827
1.83272
10.258
10.6483
11.2895
2.06264
1.62087
1.79982
1.9975
2.17385
2.30184
74.2893
22.5595
20.8778
113
18.3374
17.846
42.6726
20.4428
41.1164
11.6523
13.3913
6.70198
5.16632
6.9413
7.74921
2.96637
8.81142
15.4037
34.4843
20.8296
5.99182
8.02387
4.18007
35.7338
39.1216
24.3454
15.8753
19.3728
8.05291
8.59402
8.86457
3.50181
17.1557
17.3156
7.54773
2.75588
2.63446
2.59534
6.20888
12.138
2.51353
2.60888
2.5697
2.44344
4.39733
8.35333
8.44145
3.29085
3.78184
1.50071
2.00775
3.51353
4.5579
4.51949
1.44817
1.81071
10.1419
10.0709
5.73033
7.27235
6.19468
1.50699
2.02562
1.08897
0.773901
1.14302
2.13331
1.3599
1.01878
1.54756
1.35864
1.36151
1.51415
1.49599
1.19657
1.04324
1.12113
1.23239
1.9333
9.58484
14.0426
14.1753
14.2457
14.2049
8.5407
2.39353
1.67842
1.7283
1.89773
3.46737
3.61658
5.15955
15.6309
14.5848
3.06065
11.0898
4.11556
3.47942
1.79087
1.68057
1.86292
2.01258
2.15846
2.2698
31.8142
21.3542
28.5988
88.3676
29.7303
14.7924
14.2801
33.5789
39.2515
11.4004
10.7828
5.26194
4.98303
6.32813
7.03943
2.30252
5.3271
11.7566
35.0464
34.9962
9.845
12.135
5.711
19.4872
39.9174
21.8091
6.42046
6.14113
7.25869
10.5179
6.71707
3.20961
11.105
17.5852
3.32179
4.70019
5.40972
2.55011
5.3566
18.041
5.16039
2.58941
2.58475
2.48445
5.13888
8.44393
4.94796
2.10122
1.59382
1.49293
2.89049
3.73363
2.88313
2.04332
1.31331
1.36638
3.4992
5.34174
8.0054
8.13314
3.16365
2.60128
3.38141
2.00359
0.771883
2.06354
1.41611
0.897768
0.909727
1.35638
1.33908
1.3492
2.11376
2.4174
1.70179
1.25965
1.11238
1.21607
2.10361
5.66263
11.0464
14.3693
14.4185
14.3659
10.3013
3.33806
1.66235
1.71344
1.69119
2.18665
3.26903
3.02115
17.171
13.522
4.95525
11.1638
3.10968
1.65152
1.6502
1.79172
1.94119
2.03976
2.15021
2.23771
30.9863
35.8606
60.3734
115.498
50.6739
14.4655
14.1105
78.2796
15.8618
11.2229
26.1866
5.30347
4.96035
5.87209
6.36518
2.16509
2.82661
5.56126
35.2728
27.3791
15.9974
16.0843
9.90561
8.22282
37.9288
14.7848
6.11769
6.03787
6.98052
8.99139
3.4481
3.37412
7.13697
12.9439
3.18916
5.99983
5.90859
2.51226
5.22407
18.1635
8.46382
2.54934
2.5569
2.4477
6.06832
6.14508
3.40023
1.67614
1.5851
1.48808
2.31304
3.74519
2.75308
1.36126
1.30941
1.36866
2.3516
2.88379
7.76927
7.13011
2.08908
3.73036
4.6533
3.11115
0.902056
2.06807
1.069
0.817269
0.879659
2.28533
2.11362
1.33643
2.71884
3.33661
2.31487
1.58084
1.11091
1.25703
1.63987
3.28018
6.55078
10.1922
13.4068
14.5319
12.5973
4.46208
1.65119
1.70174
2.24503
3.46599
4.74206
2.87753
17.301
6.57899
6.78557
11.241
4.47112
1.63407
1.64324
1.94568
2.01646
2.06823
2.1444
2.20851
43.7929
46.4154
71.1395
116.39
67.5888
21.434
13.9778
79.3666
12.5364
11.1388
26.4572
8.13178
4.94074
5.52341
6.04668
2.12611
2.75915
3.40863
31.7299
17.7179
19.4938
18.6535
13.8114
8.22103
16.3493
9.36609
6.15417
6.03653
6.99153
6.04053
3.03463
5.08328
5.63728
4.58093
3.1939
6.05737
5.96494
2.56996
3.3037
18.3615
10.1366
3.50067
2.5622
2.45306
6.11213
3.34539
2.96764
1.67138
1.62244
1.54226
1.82574
3.71894
3.52034
1.60787
1.33596
1.38404
2.33076
2.56011
3.49162
3.25492
1.58695
4.56243
5.09107
4.12251
1.29444
1.66836
0.921085
0.819147
0.872928
2.26388
4.08755
1.60234
3.10682
3.53947
2.85061
1.85243
1.1663
1.15268
1.50448
2.9817
4.88987
5.50602
6.01119
9.79413
12.7053
5.32557
1.6961
1.69239
3.2036
5.44713
6.05423
2.86893
10.0752
3.16317
8.05887
11.3111
6.22879
1.78513
1.68803
1.94487
2.06006
2.0783
2.13231
2.17968
76.2739
61.3903
59.7356
63.8034
73.6293
31.6546
24.4708
48.309
36.912
28.4711
19.5927
9.33525
4.75536
4.77983
7.06954
4.13089
8.22651
16.1338
17.6105
12.5286
21.3714
21.6805
18.4731
9.86459
7.18971
6.77951
6.39086
7.27467
7.00905
5.95878
6.51606
9.79097
5.17232
3.48471
4.75568
6.18923
6.04522
4.08766
2.41426
5.6402
6.09425
4.85369
2.42525
2.67529
4.51583
2.71902
2.4058
2.0876
1.38004
1.31565
1.25405
2.077
2.47668
2.02351
1.21471
1.78205
2.47311
2.39065
1.84473
1.52549
1.02617
3.1718
5.36094
5.29944
2.44665
1.30151
1.0002
0.73816
0.792059
2.44486
4.20761
3.50221
3.46186
3.66632
3.45083
2.07766
1.13107
1.04256
1.36551
2.65786
3.8907
3.82986
3.69667
4.13334
5.92755
4.95689
1.99832
2.21096
5.75776
6.23381
6.26734
4.92793
3.06719
2.55998
8.27461
11.4415
8.02062
3.32318
1.72799
1.74518
1.94544
1.98692
2.00104
2.02007
23.0653
13.2944
12.2948
20.8673
27.6042
22.2163
16.8118
11.0867
15.7895
12.3614
5.37422
4.71979
3.89822
3.14766
5.10121
13.9299
14.1365
11.6583
7.53823
5.31454
2.59672
1.96867
2.74687
6.94465
8.32846
7.02354
3.97231
3.86314
4.36653
10.2687
11.3967
11.4426
10.7074
4.51896
3.46957
3.39198
3.549
3.97379
3.88223
3.4229
2.86469
3.22964
4.85535
4.81944
4.46595
2.35279
1.14263
1.07627
1.04064
0.949525
0.772258
0.751963
0.648157
0.546001
0.466357
0.452772
0.46544
0.48336
0.499246
0.444365
0.431552
0.457472
0.557314
0.774944
1.71432
2.54955
2.61279
1.92519
1.01747
1.04172
1.36002
1.28752
1.16983
1.15392
1.11332
1.03178
0.977166
0.996338
1.09859
1.21467
1.31008
1.46929
1.55401
1.64717
2.40378
3.71146
2.27856
2.21364
3.13649
2.88923
2.16158
2.46408
1.87991
2.08702
4.57102
4.23126
3.28407
2.24725
1.50369
1.47447
1.57813
1.6193
1.69156
1.72691
4.64342
3.41005
3.17365
6.54539
6.26665
5.51256
7.17496
4.28079
2.55975
1.21572
0.437889
0.764171
1.86424
2.76087
2.09434
1.69243
2.11938
2.31567
2.49454
2.1953
1.67601
1.45102
1.64906
2.00169
2.94015
5.38543
4.48505
2.56519
2.29665
2.82328
3.14469
5.52516
9.09015
8.50792
3.77393
1.81735
1.70985
1.70482
2.02863
2.15538
2.38344
3.08144
2.73228
2.03201
1.67099
1.68992
1.14968
0.752887
0.691342
0.647785
0.585835
0.489327
0.405694
0.329019
0.289971
0.275172
0.247294
0.200955
0.254619
0.239184
0.2739
0.322976
0.380533
0.43159
0.504496
0.586567
0.8116
1.5341
1.62447
1.19582
0.903739
0.928694
1.08289
1.42452
1.28411
1.0211
1.0639
1.23774
1.24748
1.09238
1.06041
1.18249
1.27613
1.34521
1.82904
3.61141
3.80139
2.44693
1.4816
1.4363
1.59864
1.53182
1.47452
1.48232
1.7987
1.9951
1.82923
1.42296
1.31649
1.30394
1.34685
1.35313
1.38672
1.39303
4.06515
3.21809
1.82913
1.74816
2.09578
1.96071
1.56843
0.656299
0.112713
-0.126806
-0.0508245
0.06473
0.177427
0.332355
0.496296
0.67895
0.94953
1.19122
1.28437
1.34492
1.38961
1.48757
1.58476
1.67393
1.70959
1.94719
2.24079
2.45576
2.23915
1.87299
1.43178
1.35815
1.70485
4.48919
5.34215
3.41587
1.58772
1.2869
1.11394
1.03498
1.04769
1.51388
2.09627
1.47576
0.887992
0.858245
0.863591
0.769504
0.683288
0.671679
0.585916
0.472669
0.367454
0.287728
0.246079
0.23979
0.241774
0.241211
0.244762
0.254686
0.280197
0.344061
0.425085
0.503786
0.547235
0.585266
0.648207
0.744137
0.822303
1.13638
1.46874
1.46605
1.48729
1.51094
1.13798
1.03293
1.22209
2.06865
2.82002
2.50465
1.52953
1.11012
1.19084
1.28515
1.58889
3.52061
3.86592
2.88233
1.48762
1.27024
1.42173
1.49716
1.44111
1.26631
1.13182
1.1417
1.21278
1.21262
1.2106
1.1571
1.1576
1.11209
1.09118
1.08198
2.87465
1.02476
1.12786
1.81837
2.14032
1.09831
0.489112
0.253982
0.0950747
-0.0548525
-0.176422
-0.218949
-0.125096
0.0332135
0.230548
0.426311
0.572627
0.683227
0.847004
1.06553
1.26602
1.3629
1.44963
1.56077
1.65652
1.61539
1.61146
1.63116
1.65868
2.00208
1.93404
1.75805
1.69719
2.01611
4.56278
4.04282
2.04207
1.21997
1.09792
1.00024
0.924568
0.890843
1.21721
1.4445
1.03022
0.695645
0.660564
0.644194
0.605525
0.553554
0.457423
0.3224
0.241131
0.152884
0.11744
0.11922
0.126382
0.127666
0.155709
0.181816
0.229573
0.28388
0.33909
0.393932
0.449951
0.514761
0.577564
0.630984
0.669339
0.698586
0.745856
0.903585
1.45368
1.46821
1.05351
0.862289
0.899537
1.05138
2.82868
4.66586
3.09957
1.32947
1.08689
1.17971
1.27602
2.28453
3.9417
2.5014
1.37411
1.21
1.23284
1.42827
1.46684
1.41441
1.17284
1.07473
1.09136
1.0836
1.05933
0.92877
0.873122
0.813024
0.7459
0.72078
2.81041
1.9142
0.020181
0.219276
2.26433
2.46766
1.24525
0.381057
1.28744
1.50696
1.03524
0.544557
0.190711
0.120985
0.303978
0.46773
0.582159
0.694526
0.82369
0.970309
1.1079
1.25455
1.38735
1.46096
1.47717
1.49427
1.55154
1.51872
1.42757
1.40266
1.45683
2.68954
6.27059
6.57773
4.38029
2.21452
1.43725
1.19764
1.10866
1.04171
0.977832
0.897662
0.895296
1.27419
0.963143
0.694608
0.656057
0.642943
0.610179
0.504687
0.691875
1.14534
0.844727
0.333128
0.0776412
0.0674399
0.095633
0.128579
0.164236
0.214166
0.249239
0.31199
0.381561
0.453509
0.512909
0.563903
0.614047
0.671131
0.710778
0.732256
0.745739
0.764796
0.810775
1.00933
1.07946
0.982069
0.907243
0.997398
2.56887
4.90173
4.53863
2.1982
1.08098
1.12718
1.18863
1.46942
3.30392
2.36376
1.39608
1.15912
1.16487
1.18114
1.32391
1.38624
1.28431
1.0777
1.01116
0.978083
0.926562
0.727343
0.595544
0.515839
0.433903
0.351547
-1.47823
-0.588943
-0.710802
-0.834734
0.356122
2.36293
2.35452
0.590042
0.5729
2.91076
5.5322
5.22611
3.49453
1.70687
0.476345
0.355047
0.538796
0.683486
0.809091
0.941496
1.0598
1.17563
1.28734
1.35761
1.42244
1.43169
1.39794
1.34498
1.30287
1.2049
1.13409
1.7046
5.81284
6.69937
5.51898
2.35897
1.28021
1.16605
1.15766
1.04249
0.906664
0.799482
0.748799
1.10783
1.00582
0.706934
0.600644
0.575514
0.521676
0.720767
2.77082
3.06325
1.48524
0.259945
-0.0480509
-0.0366561
-0.00605673
0.0256039
0.0700367
0.121156
0.184269
0.253615
0.322799
0.390696
0.458199
0.524442
0.58493
0.636423
0.673271
0.698268
0.719888
0.738328
0.757924
0.786186
0.814562
0.827633
0.855501
0.926132
1.55398
4.68631
4.97769
2.92278
1.16521
1.05558
1.11056
1.30538
3.08045
2.58924
1.55701
1.11665
1.10199
1.0828
1.07874
1.17311
1.24386
1.06512
0.912696
0.835236
0.729708
0.48035
0.270687
0.219827
0.114547
-0.0340325
-2.47739
-2.25054
-1.7769
-1.40903
-0.904718
0.632425
2.05591
1.40246
0.32377
0.699504
5.37491
5.68934
6.37557
6.61278
2.73352
0.517885
0.561292
0.698491
0.822356
0.93406
1.01403
1.13197
1.23464
1.2795
1.28145
1.27068
1.30672
1.30773
1.22656
1.16428
1.08313
1.1203
2.6597
6.90276
6.56698
3.31125
1.41676
1.46245
1.703
1.58265
1.51906
1.60587
1.3735
0.891738
0.625819
0.580316
0.569111
0.554537
0.530036
2.22833
6.15267
3.25554
0.901271
-0.0210186
-0.126791
-0.106421
-0.0627674
-0.00998054
0.0499569
0.109518
0.169506
0.240762
0.318458
0.399674
0.475503
0.545007
0.609063
0.666549
0.70657
0.733419
0.756072
0.775566
0.7934
0.805468
0.818246
0.82915
0.849713
0.89791
1.03411
3.00211
5.15957
3.32917
1.34169
1.04631
1.07539
1.12393
2.01833
2.71294
2.14043
1.28106
1.05433
1.0285
1.00592
0.984743
1.03064
0.987538
0.824215
0.687312
0.5304
0.26601
-0.0601235
-0.092503
-0.272355
-0.419278
-2.98572
-2.7313
-2.41575
-1.99675
-1.53539
-1.00366
0.067562
0.506442
0.615621
3.19998
5.42935
5.58929
6.38426
7.17794
4.51709
0.845604
0.527317
0.673853
0.792194
0.900318
0.991934
1.11028
1.18058
1.21571
1.21899
1.24311
1.25371
1.20502
1.12351
1.05755
1.01549
0.931411
1.06211
3.99109
6.66449
5.32077
1.98703
1.42558
1.52099
2.05042
1.93281
1.79766
1.69792
1.36522
0.688718
0.47037
0.5032
0.502689
0.626512
4.15227
6.76023
2.69224
0.965234
0.239821
-0.0743766
-0.21049
-0.195044
-0.145516
-0.0804742
-0.00406507
0.0851191
0.180484
0.277916
0.368504
0.44946
0.523019
0.583214
0.628931
0.670405
0.707585
0.734153
0.753545
0.770748
0.783104
0.791803
0.803171
0.806727
0.835049
0.9042
1.80878
5.08769
3.70598
1.77022
0.971768
0.996338
1.00539
1.51868
2.71274
2.54002
1.51229
1.00833
0.968299
0.94161
0.900844
0.872479
0.857741
0.72948
0.539772
0.33782
0.0531683
-0.387498
-0.465508
-0.642049
2.47694
-3.57507
-3.27321
-2.89875
-2.45841
-2.0317
-1.6016
-1.19224
-0.729919
-0.372443
0.719769
5.50545
6.18086
6.93227
6.83311
2.18963
0.413958
0.590717
0.72558
0.833204
0.916152
1.00141
1.06229
1.10893
1.13543
1.13638
1.14615
1.16777
1.16754
1.09475
0.994701
0.929718
0.881716
0.818938
1.30734
5.53687
6.58072
3.81452
1.4207
0.996262
1.17441
1.33795
1.59789
1.63129
1.60009
0.852665
0.430118
0.438284
0.468086
0.91381
5.71126
7.02244
6.31658
2.72577
0.757255
-0.0358407
-0.311924
-0.308089
-0.240986
-0.165655
-0.0789396
0.0190177
0.12391
0.232568
0.337521
0.431953
0.515169
0.583595
0.634386
0.678728
0.720893
0.756193
0.780246
0.798976
0.814509
0.823174
0.832713
0.838703
0.844259
0.872055
1.02677
2.79828
3.84511
3.79994
2.49678
1.28687
1.03932
1.23301
2.05546
2.21597
1.50836
0.987459
0.920482
0.895301
0.845052
0.797891
0.721098
0.643952
0.415143
0.144142
-0.146198
-0.677637
-0.698015
-0.0507402
14.8097
-4.01779
-3.77941
-3.41452
-2.90127
-2.43984
-1.97067
-1.54963
-1.27762
-1.06744
-0.767832
0.316465
4.85566
7.75699
4.94974
1.12161
0.518006
0.662262
0.769944
0.865369
0.938835
1.02064
1.06143
1.0875
1.09739
1.09439
1.09674
1.11682
1.07175
0.999052
0.946261
0.839715
0.778368
0.732236
0.704606
2.27578
6.64638
5.72854
2.52581
0.880333
0.684753
0.524905
0.480387
0.678401
1.47085
0.920366
0.452725
0.358261
0.418082
1.1755
6.72003
7.16277
6.92207
4.14214
0.0678153
-0.470847
-0.560599
-0.550502
-0.446087
-0.335544
-0.211416
-0.0826902
0.0449795
0.170158
0.286804
0.386529
0.472868
0.548471
0.615737
0.680104
0.718229
0.728157
0.73922
0.762708
0.775414
0.785818
0.797641
0.800306
0.798257
0.812991
0.838025
0.926609
1.2576
3.65429
4.77852
4.78283
3.63004
1.43327
1.06278
1.22243
1.21625
1.02075
0.885105
0.83495
0.803242
0.716199
0.625237
0.539935
0.314764
-0.00933865
-0.298557
-0.906721
-0.64649
7.05476
30.0856
-4.43356
-4.23345
-3.83297
-3.34596
-2.76579
-2.23374
-1.70703
-1.27035
-0.99069
-0.838366
-0.670362
0.63627
1.99445
1.84998
1.01057
0.661101
0.743847
0.823311
0.892615
0.956992
1.02013
1.05472
1.05975
1.06232
1.0475
1.02453
1.03039
0.973647
0.896211
0.840853
0.783662
0.690964
0.641555
0.597806
0.714992
3.35468
5.71818
5.37598
2.29335
0.538945
0.197637
0.0496237
0.0139604
0.544166
0.849375
0.631291
0.314505
0.332759
1.06272
6.41795
7.23431
6.94439
4.68534
0.700463
0.758727
0.956589
0.524011
-0.207504
-0.374471
-0.355026
-0.200638
-0.0455956
0.10244
0.235051
0.346865
0.44613
0.532269
0.650882
0.825913
0.883377
0.842058
0.771861
0.764012
0.785022
0.803743
0.817387
0.8118
0.807333
0.824593
0.832177
0.861707
0.958788
2.07637
4.86319
4.99266
2.89695
1.11094
0.921243
0.894446
0.923783
0.918475
0.929411
0.879516
0.806224
0.658326
0.579905
0.442882
0.235412
-0.098964
-0.385573
-0.972313
-0.555318
17.8585
31.8052
-4.87222
-4.6361
-4.19056
-3.65767
-3.0136
-2.39013
-1.76993
-1.1836
-0.730908
-0.449607
-0.238921
0.0202569
0.351975
0.608502
0.743551
0.82544
0.886071
0.937184
0.984077
1.0335
1.07007
1.07733
1.06247
1.03712
0.999009
0.949804
0.914165
0.871416
0.785367
0.718897
0.652643
0.543542
0.468716
0.461743
0.428585
0.696202
3.56915
5.7169
5.65655
3.40279
0.872881
-0.118594
-0.167732
-0.0606456
0.688723
0.612373
0.269863
0.233428
1.11619
7.1848
7.17965
6.88904
6.59101
5.55659
4.91632
5.06646
4.47156
3.05938
1.01943
-0.265741
-0.330079
-0.145365
0.0302031
0.171997
0.295043
0.404739
0.502601
0.665267
0.916716
0.952531
0.985434
0.911979
0.789946
0.751545
0.756358
0.763346
0.777565
0.77369
0.785823
0.792645
0.795407
0.843948
1.03359
2.93487
5.06372
2.67007
1.00931
0.862247
0.846483
0.841844
0.813153
0.868746
1.02433
0.897477
0.688124
0.533177
0.379258
0.185862
-0.0991879
-0.414217
-0.791704
-0.484355
11.1187
33.3429
-5.28123
-4.9668
-4.46398
-3.84411
-3.15323
-2.44159
-1.76498
-1.05961
-0.492558
-0.123982
0.166861
0.453999
0.744723
0.908909
0.957609
0.986515
1.01436
1.03773
1.07384
1.10834
1.11609
1.09412
1.06437
1.02019
0.962527
0.89407
0.823408
0.784097
0.699639
0.599495
0.46578
0.379412
0.314519
0.269264
0.261548
0.195616
0.582367
3.19608
6.55467
6.42199
5.9729
2.97535
0.500269
-0.162841
0.342067
0.582931
0.304812
0.106416