/*--------------------------------*- C++ -*----------------------------------*\
| =========                 |                                                 |
| \\      /  F ield         | OpenFOAM: The Open Source CFD Toolbox           |
|  \\    /   O peration     | Version:  v1912                                 |
|   \\  /    A nd           | Website:  www.openfoam.com                      |
|    \\/     M anipulation  |                                                 |
\*---------------------------------------------------------------------------*/
FoamFile
{
    version     2.0;
    format      ascii;
    class       volScalarField;
    location    "70";
    object      p_rgh;
}
// * * * * * * * * * * * * * * * * * * * * * * * * * * * * * * * * * * * * * //

dimensions      [1 -1 -2 0 0 0 0];


internalField   nonuniform List<scalar> 
114144
(
23924.9
26800.3
28594.9
29764.8
30557.8
31128.7
31600.7
33151.1
32869.8
32424
31853.4
31028.1
29879
28375.2
26520.6
24350
21919.8
19296.4
16544.1
13715.6
10845.9
7951.16
5031.64
2078.24
-919.918
-3968.72
-7053.37
-10137.1
-13171.1
-16094.8
-18837.2
-21330
-23517.6
-25364
-26857.6
-28011.3
-28858.2
-29443.7
-29818.3
-30029.3
-30116.8
-30112.3
-30173.6
-29923.4
-29165.7
-28332
-27288.3
-25935
-24223.4
-22132.8
-19667.4
-16855.5
-13745.8
-10402.6
-6900.84
-3319.97
262.019
3772.69
7147.31
10336
13296.6
15985.6
18370.4
20435.5
22167.7
23557.6
24599.3
25290.7
25633.6
25635.1
25307.8
24675.8
23806.7
22834.8
21655.1
19747.4
17456.8
15335.5
13162.3
10983.3
8835.81
6763.35
4806.66
2998.52
1361.37
-94.3408
-1370.17
-2478.24
-3438.59
-4275.71
-5014.98
-5680.14
-6287.95
-6847.6
-7364.25
-7837.02
-8259.15
-8621.16
-8913.27
-9127.52
-9259.27
-9307.61
-9274.86
-9165.26
-8983.5
-8733.14
-8415.47
-8029.4
-7572.4
-7040.95
-6442.77
-5806.01
-5016.72
-4085.18
-3150.68
-2188.45
-1222.19
-278.293
619.234
1447.52
2188.08
2828.41
3360.87
3784.08
4097.31
4307.01
4418.4
4438.91
4374.83
4231.91
4015.85
3732.66
3388.32
3008.92
2599.91
2157.59
1703.34
1238.96
764.278
338.808
-44.457
-384.479
-677.569
-925.848
-1131.98
-1299.5
-1431.83
-1531.56
-1599.81
-1637.69
-1644.13
-1619.23
-1562.94
-1475.98
-1360.23
-1218.19
-1052.85
-870.841
-677.741
-477.78
-279.409
-53.4443
142.461
330.988
506.298
660.67
791.205
891.169
956.967
984.574
972.163
919.6
830.678
711.688
569.236
412.848
254.744
106.297
-27.2296
-127.722
-189.89
-208.21
-180.464
-106.78
10.1298
166.942
362.528
587.415
836.903
1105.62
1388.41
1680.48
1977.08
2273.49
2564.52
2844.67
3107.85
3347.71
3557.66
3731.22
3862.38
3945.77
3976.75
3951.02
3867.28
3723.23
3518.28
3253.42
2930.9
2554.31
2128.87
1661.61
1161.18
637.472
99.5682
-444.138
-980.214
-1498.05
-1989.08
-2445.76
-2861.5
-3230.34
-3546.62
-3805.13
-4000.99
-4129.49
-4186.7
-4168.65
-4076.03
-3909.79
-3674.28
-3376.73
-3027.37
-2639.32
-2227.65
-1808.29
-1397.13
-1009
-656.74
-350.394
-96.6748
100.713
241.143
327.573
364.501
359.055
317.78
249.086
160.328
55.4809
16480.8
18310.4
19666.9
20639.9
21323.5
21792
22125.1
23246.5
22840.7
22344.9
21729.2
20954.8
19993
18829
17462.5
15905.5
14179.7
12311.6
10329.3
8258.26
6119.56
3929.16
1698.85
-561.924
-2843.93
-5137.08
-7420.34
-9664.19
-11834
-13897.7
-15818
-17561.1
-19100.2
-20418.3
-21509.5
-22378.7
-23039.2
-23508.8
-23807.2
-23952.6
-23961.9
-23851.7
-23746
-23269.4
-22464.3
-21532.3
-20418.5
-19082
-17498.4
-15659.5
-13572.3
-11257.9
-8749.19
-6088.61
-3325.8
-514.401
2291.79
5041.07
7685.26
10186.6
12508
14613.1
16471.6
18068.7
19391.6
20430.8
21180.7
21639
21808.1
21695.2
21314.1
20689
19863.7
18932.4
17898.2
16219.5
14206
12367
10505.1
8654.47
6841.83
5098.58
3453.5
1928.78
538.62
-711.399
-1823.9
-2808.22
-3678.32
-4450.25
-5139.88
-5761.71
-6324.83
-6833.18
-7289.21
-7692.42
-8038.74
-8322.82
-8539.45
-8684.68
-8756.54
-8755.06
-8681.77
-8538.84
-8328.25
-8051.05
-7706.92
-7294.59
-6812.9
-6261.47
-5654.34
-5013.97
-4239.11
-3343.52
-2460.64
-1566.84
-682.089
171.744
975.777
1712.21
2366.85
2930.36
3396.68
3765.55
4033.54
4207.05
4289.35
4286.33
4203.21
4045.22
3818.09
3528.51
3183.19
2804.61
2403.86
1974.82
1537.99
1092.84
641.535
237.117
-126.018
-448.172
-726.141
-962.09
-1158.45
-1318.27
-1444.41
-1538.95
-1603.11
-1636.14
-1638.35
-1609.52
-1549.68
-1459.71
-1341.6
-1198.03
-1032.09
-849.609
-656.878
-457.7
-259.22
-37.557
158.033
345.113
518.862
671.656
800.583
898.955
963.118
987.872
975.206
921.186
831.008
710.738
567.092
409.626
250.598
101.278
-32.7611
-133.721
-196.08
-214.473
-186.36
-112.335
5.04379
162.39
358.673
584.164
834.293
1103.63
1387.03
1679.71
1976.96
2274.07
2565.88
2846.9
3111.01
3351.83
3562.75
3737.22
3869.21
3953.3
3984.85
3959.63
3876.05
3731.99
3526.85
3261.59
2938.45
2561.02
2134.52
1665.99
1164.13
638.9
99.4489
-445.768
-983.229
-1502.29
-1994.39
-2451.99
-2868.54
-3238.12
-3555.1
-3814.27
-4010.72
-4139.73
-4197.3
-4179.36
-4086.57
-3919.8
-3683.33
-3384.43
-3033.33
-2643.24
-2229.35
-1807.73
-1394.41
-1004.38
-650.578
-343.119
-88.7854
108.731
248.853
334.632
370.696
364.173
321.79
252.064
162.23
56.6328
13138.2
14352.7
15382.9
16197.2
16809.3
17244.8
17553.4
18520.6
18119.5
17644.4
17062
16346.8
15487.2
14478.3
13321.3
12023.2
10595.3
9052
7408.83
5681.54
3885.03
2033.45
140.502
-1779.97
-3713.54
-5646.06
-7556.22
-9421.63
-11207.2
-12891.4
-14449.3
-15859.5
-17105.4
-18177.1
-19071.1
-19790.3
-20341.7
-20734
-20976.2
-21076.5
-21042.3
-20883.3
-20696.3
-20149.5
-19339.5
-18397.7
-17284.9
-15979.8
-14470.2
-12754.2
-10840.4
-8747.5
-6502.55
-4139.58
-1698.39
777.684
3244.71
5659.72
7981.99
10179.9
12215
14058.3
15680.5
17067.4
18206.4
19088.4
19707.7
20062.4
20154.4
19991.3
19586
18960.5
18150.8
17221.1
16225.6
14650.5
12774.4
11055
9323.53
7608.92
5934.66
4327.74
2812.6
1407.47
123.503
-1035.65
-2073.18
-2997.68
-3821.13
-4556.8
-5217.31
-5813.89
-6353
-6836.85
-7266.14
-7640.55
-7956.59
-8210.03
-8396.97
-8514.76
-8562.35
-8540.23
-8449.84
-8292.88
-8070.59
-7783.26
-7430.02
-7009.42
-6520.63
-5964.18
-5354.97
-4713.12
-3943.01
-3061.14
-2195.64
-1324.82
-467.402
356.054
1128.15
1832.67
2456.84
2992.44
3434.06
3781.88
4032.18
4191.1
4261.44
4248.69
4157.68
3993.37
3761.32
3468.19
3121.04
2740.5
2339.48
1911.97
1478.37
1036.32
592.363
193.373
-163.684
-479.948
-752.509
-983.672
-1176
-1332.57
-1456.18
-1548.78
-1611.11
-1643.06
-1644.15
-1614.19
-1553.17
-1461.94
-1342.5
-1197.59
-1030.47
-846.895
-652.992
-452.749
-252.696
-32.4789
164.594
352.597
527.256
680.972
810.766
909.847
974.512
1001.44
985.867
930.568
838.821
716.14
569.619
409.021
246.881
94.4697
-41.9259
-144.909
-208.498
-227.559
-199.441
-124.809
-6.45899
152.093
349.938
576.861
828.477
1099.22
1383.97
1677.97
1976.59
2275.16
2568.56
2851.33
3117.31
3360.07
3572.91
3749.21
3882.84
3968.33
4000.91
3976.26
3893.18
3749.16
3543.64
3277.58
2953.21
2574.1
2145.45
1674.38
1169.66
641.389
98.8525
-449.368
-989.57
-1511.04
-2005.23
-2464.63
-2882.77
-3253.8
-3572.13
-3832.58
-4030.23
-4160.25
-4218.58
-4200.91
-4107.77
-3939.89
-3701.52
-3399.87
-3045.28
-2651.1
-2232.76
-1806.6
-1388.96
-995.108
-638.218
-328.527
-72.9611
124.799
264.305
348.745
382.942
374.352
329.797
258.009
166.072
59.1635
11205.2
12036.3
12795.9
13431.3
13924.6
14275.8
14514.5
15277.7
14864.8
14382.8
13801.5
13105.8
12293.1
11365
10325.7
9180.91
7937.7
6603.98
5188.4
3700.45
2150.63
550.972
-1084.6
-2740.24
-4398.65
-6043.09
-7652.31
-9214.12
-10687.4
-12058.6
-13311.9
-14435.4
-15421.2
-16265.7
-16968.6
-17532.6
-17961.5
-18258
-18423.7
-18458.6
-18362.9
-18139.2
-17855.8
-17236.1
-16411.4
-15447.6
-14325
-13037.6
-11584.1
-9969.25
-8204.45
-6307.23
-4300.59
-2211.82
-72.3257
2083.77
4221.7
6307.04
8306.68
10196.7
11934.2
13501.2
14869.8
16027
16961.1
17663.9
18130.6
18359.6
18353.6
18120.4
17672.4
17029.2
16219.6
15288.4
14312.9
12838.4
11108.9
9516.42
7925.56
6360.16
4840.22
3387.81
2022.24
756.962
-400.857
-1450.31
-2395.83
-3245.68
-4009.97
-4698.93
-5321.42
-5884.68
-6391.92
-6843.29
-7236.58
-7572.02
-7846.74
-8057.81
-8203.11
-8281.7
-8293.86
-8240.8
-8124
-7944.57
-7702.84
-7398.05
-7028.55
-6592.7
-6090.07
-5522.66
-4908.2
-4260.25
-3494.16
-2629.84
-1788.47
-950.832
-134.102
643.154
1365.83
2020.21
2595.85
3086.5
3487.82
3803.38
4022.62
4156.51
4206.06
4176.06
4070.75
3894.71
3653.33
3353.49
3002.66
2618.44
2217.46
1793.66
1366.77
931.942
501.897
114.11
-231.057
-535.919
-798.157
-1020.3
-1205.06
-1355.47
-1474.12
-1562.67
-1621.8
-1650.83
-1649.09
-1616.4
-1552.68
-1458.83
-1336.9
-1189.81
-1020.98
-835.692
-640.461
-439.244
-237.791
-19.678
178.438
366.899
541.981
696.188
826.409
925.816
990.479
1014.48
1000.04
942.953
848.806
722.821
572.386
407.522
241.102
84.3812
-55.3678
-161.312
-226.955
-246.717
-218.454
-143.125
-23.3746
136.898
336.95
565.98
819.792
1092.63
1379.38
1675.37
1976.02
2276.77
2572.57
2857.96
3126.75
3372.43
3588.19
3767.25
3903.38
3990.98
4025.28
4001.79
3919.24
3775.2
3569.09
3301.81
2975.56
2593.89
2162
1687.07
1178.01
645.131
97.9245
-454.827
-999.15
-1524.25
-2021.55
-2483.65
-2904.15
-3277.32
-3597.68
-3860.08
-4059.52
-4191.08
-4250.53
-4233.24
-4139.65
-3970.17
-3728.94
-3423.19
-3063.34
-2662.97
-2237.89
-1804.87
-1380.7
-981.068
-619.506
-306.441
-49.0267
149.065
287.627
370.044
401.532
389.694
341.798
266.854
171.923
62.6604
9889.96
10473.6
11035.2
11524.3
11911.1
12181.9
12352.9
12926.9
12505
12016.8
11435
10751.3
9968.95
9093.66
8131.71
7088.97
5970.68
4781.49
3526.14
2210.31
841.416
-570.37
-2011.67
-3466.07
-4915.06
-6340.27
-7719.22
-9055.3
-10294.8
-11430.2
-12452.6
-13356.5
-14139.8
-14803.3
-15349.9
-15782.9
-16104.5
-16314.3
-16409.4
-16384.5
-16234
-15955.7
-15594.4
-14930.4
-14094.4
-13119
-11996.1
-10728.8
-9323.06
-7788.48
-6138.55
-4390.55
-2564.84
-684.243
1225.6
3137.09
5022.11
6852.57
8601.22
10249.6
11752.9
13101
14267.5
15240.4
16009.5
16567.3
16909.7
17035.6
16948.3
16655.2
16168.5
15505.5
14690.1
13756.8
12784.5
11379.6
9767.44
8271.34
6786.97
5334.52
3931.88
2597.8
1347.99
192.422
-864.723
-1824.78
-2693.43
-3479.08
-4190.93
-4837.31
-5424.59
-5957.18
-6435.96
-6860.25
-7224.13
-7528.93
-7771.72
-7950.27
-8063.52
-8111.7
-8096.09
-8018.58
-7880.86
-7683.86
-7427.35
-7109.86
-6729.15
-6283.24
-5771.79
-5197.57
-4578.81
-3925.75
-3161.33
-2308.41
-1482.1
-665.651
124.601
871.225
1560.46
2180.17
2721.54
3179.74
3551.24
3839.87
4037.81
4152.5
4185.88
4142.39
4025.81
3840.36
3591.15
3284.91
2929.38
2540.49
2136.13
1711.47
1286.03
852.492
430.796
49.0614
-288.703
-585.797
-840.537
-1055.76
-1234.55
-1380.06
-1494.91
-1580.63
-1637.69
-1664.86
-1661.64
-1627.38
-1561.85
-1465.92
-1341.64
-1192.08
-1020.91
-833.322
-635.727
-432.388
-228.549
-10.7646
189.566
379.938
557.023
713.325
845.555
946.696
1012.63
1039.48
1021.42
962.207
864.805
734.147
578.027
406.895
234.176
71.1862
-73.491
-183.6
-251.919
-273.057
-244.714
-168.273
-46.4694
116.288
319.274
551.284
808.105
1083.76
1373.21
1671.83
1975.19
2278.85
2577.83
2866.73
3139.29
3388.9
3608.56
3791.33
3930.8
4021.22
4057.66
4035.67
3954
3810
3603.12
3334.23
3005.48
2620.39
2184.17
1704.07
1189.18
650.107
96.6141
-462.218
-1012.06
-1541.99
-2043.44
-2509.1
-2932.73
-3308.74
-3631.81
-3896.81
-4098.67
-4232.33
-4293.34
-4276.7
-4182.48
-4010.86
-3765.81
-3454.56
-3087.64
-2678.96
-2244.81
-1802.55
-1369.58
-962.166
-594.324
-276.706
-16.831
181.643
318.93
398.558
426.328
410.138
357.793
278.633
179.682
67.5324
8916.05
9329.9
9746.79
10121.9
10420.9
10622.6
10733.6
11140.6
10711.2
10217.1
9633.25
8956.67
8194.39
7355.13
6446.9
5476.08
4447.18
3363.2
2226.57
1040.45
-189.986
-1456.16
-2745.5
-4041.71
-5325.88
-6578.73
-7775.24
-8935.23
-9990.09
-10938.4
-11776
-12501.9
-13118.2
-13629.6
-14041.4
-14358.3
-14582.2
-14711.1
-14739
-14656.9
-14455
-14126.9
-13698.3
-13003
-12155.7
-11170.6
-10048.6
-8798.58
-7431.78
-5961.51
-4403.22
-2774.32
-1093.58
619.244
2342.64
4053.88
5729.98
7347.86
8884.99
10327.3
11630.3
12788.8
13778.3
14588.4
15209.8
15636.4
15864.6
15894.3
15728.9
15376.2
14847.5
14158.6
13330.2
12390.5
11411.9
10054.9
8542.04
7125.88
5730.61
4373.69
3071.57
1840.39
692.915
-363.878
-1328.6
-2204.86
-2999.85
-3722.63
-4382.03
-4985.13
-5536.27
-6037.21
-6487.28
-6884.31
-7219.87
-7494.95
-7706.87
-7853.78
-7935.52
-7953.36
-7909.59
-7806.87
-7647.27
-7431.69
-7159.5
-6828.58
-6436.02
-5979.44
-5458.43
-4876.43
-4252.02
-3591.52
-2826.49
-1982.26
-1168.36
-370.43
395.648
1113.38
1770.17
2355.41
2861.92
3286.42
3626.29
3886.41
4061.67
4154.81
4169.91
4110.97
3981.32
3784.72
3525.97
3211.64
2849.62
2454.37
2044.91
1618.09
1192.94
760.039
346.941
-28.061
-357.539
-645.643
-891.538
-1098.5
-1270.05
-1409.59
-1519.76
-1601.88
-1655.98
-1681.58
-1676.31
-1639.96
-1572.06
-1473.41
-1346.13
-1193.47
-1019.36
-828.881
-628.469
-422.695
-216.33
1.39078
203.955
396.366
575.611
734.269
868.796
972.016
1039.41
1064.83
1047.49
985.966
884.653
748.413
585.393
406.566
226.002
55.1049
-95.9297
-211.434
-283.308
-305.891
-277.609
-199.839
-75.4477
90.5534
296.909
532.839
793.461
1072.67
1365.48
1667.38
1974.12
2281.38
2584.34
2877.62
3154.93
3409.47
3634.07
3821.53
3965.22
4059.22
4098.47
4078.31
3997.68
3853.71
3645.86
3374.97
3043.1
2653.74
2212.08
1725.46
1203.23
656.33
94.8928
-471.605
-1028.38
-1564.36
-2070.98
-2541.07
-2968.55
-3348.08
-3674.51
-3942.78
-4147.72
-4284.07
-4347.08
-4331.27
-4236.4
-4062.18
-3812.38
-3494.21
-3118.38
-2699.19
-2253.55
-1799.57
-1355.44
-938.171
-562.392
-238.979
23.9072
222.862
358.452
434.482
457.524
435.757
377.723
293.168
189.301
73.1814
8157.01
8448.29
8757.46
9044.56
9273.38
9417.64
9476.98
9740.97
9305.56
8805.66
8218.8
7545.93
6797.03
5983.02
5113.36
4195.14
3232.76
2228.33
1182.88
97.7697
-1023.57
-2174
-3341.87
-4511.3
-5663.52
-6779.23
-7833.13
-8849.72
-9755.18
-10551.9
-11238.5
-11817.3
-12293.8
-12675.3
-12969.9
-13183.8
-13319.5
-13374.3
-13340.2
-13205.5
-12957.1
-12585
-12100.3
-11384.1
-10525.9
-9533.15
-8412.8
-7177.91
-5843.32
-4425.13
-2940.43
-1407.04
157.201
1734.59
3306.57
4854.06
6357.99
7799.21
9158.8
10425.1
11559.8
12556.1
13392.5
14060.4
14552
14861.9
14987.6
14929.6
14691.7
14281.7
13710.6
12993.1
12147.6
11198.6
10209
8880.28
7448.61
6096.86
4773.96
3495.51
2277.04
1132.83
73.3805
-896.821
-1778.86
-2578.55
-3304.81
-3967.78
-4576.41
-5137.11
-5652.74
-6122.95
-6545.38
-6914.84
-7226.24
-7474.91
-7659.2
-7777.65
-7830.79
-7820.79
-7750.91
-7624.63
-7444.56
-7211.78
-6925.39
-6582.66
-6180.01
-5714.51
-5185.45
-4596.58
-3965.96
-3297.28
-2529.7
-1690.44
-884.395
-99.4443
648.516
1343.55
1973.86
2530.01
3006.29
3400.83
3711.94
3946.98
4100.08
4172.73
4170.58
4096.98
3954.83
3747.38
3478.98
3155.92
2786.16
2383.29
1966.6
1535.1
1107.49
671.902
264.952
-105.04
-427.693
-707.74
-945.319
-1144.26
-1308.72
-1442.42
-1548.16
-1627.15
-1679.27
-1703.11
-1696.52
-1658.59
-1588.63
-1487.31
-1356.8
-1200.55
-1022.84
-828.822
-624.809
-415.768
-206.138
12.6822
218.29
413.72
596.224
758.385
896.356
1002.69
1072.46
1101.11
1080.39
1016.04
909.828
766.613
594.953
406.509
216.164
35.4631
-123.469
-245.507
-321.606
-346.131
-317.832
-238.282
-110.577
59.863
269.509
510.679
775.894
1059.36
1356.18
1661.98
1972.72
2284.28
2592.01
2890.57
3173.61
3434.14
3664.72
3857.88
4006.69
4105.02
4147.63
4129.72
4050.33
3906.42
3697.45
3424.17
3088.57
2694.07
2245.84
1751.33
1220.17
663.768
92.676
-483.123
-1048.27
-1591.51
-2104.31
-2579.65
-3011.69
-3395.37
-3725.83
-3998.05
-4206.77
-4346.46
-4411.99
-4397.39
-4301.81
-4124.51
-3869
-3542.48
-3155.82
-2723.85
-2264.2
-1795.93
-1338.19
-908.896
-523.505
-192.943
73.4773
273.021
406.35
478.002
495.052
466.531
401.578
310.513
200.743
80.0184
7544.86
7743.98
7971.48
8190.58
8363.72
8461.03
8476.29
8620.27
8180.43
7674.98
7084.21
6412.41
5671.88
4875.3
4033.45
3154.23
2242.31
1299.44
325.732
-678.826
-1712.3
-2768.88
-3837.9
-4904.08
-5949.08
-6954.19
-7897.24
-8794.34
-9577.02
-10248.8
-10810
-11265.1
-11622.1
-11890.9
-12082
-12203.5
-12259
-12245.8
-12154.9
-11972.3
-11682.2
-11272
-10740.8
-10010.8
-9142.16
-8142.96
-7024.33
-5802.1
-4493.7
-3117.38
-1691.66
-234.945
1235.37
2702.89
4151.11
5563.65
6924.48
8217.49
9426.52
10540.3
11532.8
12388.8
13091.4
13633.8
14009.5
14214.4
14246.7
14107.6
13801.1
13335.5
12721.3
11972.6
11106.5
10144.9
9141.67
7823.9
6457.31
5156.81
3892.29
2678.2
1529.62
459.577
-523.138
-1416.12
-2222.71
-2951
-3611.79
-4216.74
-4775.42
-5294.11
-5774.56
-6214.67
-6610.49
-6955.56
-7242.55
-7466.78
-7625.54
-7717.52
-7743.7
-7707.07
-7611.87
-7462.51
-7262.33
-7012.73
-6712.68
-6358.88
-5946.98
-5473.34
-4936.76
-4341.07
-3703.25
-3024.85
-2252.57
-1414.81
-612.816
163.459
897.671
1574.12
2181.53
2711.43
3159.55
3525.44
3809.02
4019.16
4150.06
4201.57
4181.71
4093.02
3937.89
3718.98
3440.11
3107.19
2728.13
2315.99
1890.14
1452.09
1020.64
578.528
176.937
-188.29
-504.356
-776.115
-1004.83
-1195.07
-1351.74
-1479.04
-1579.98
-1655.63
-1705.44
-1728.26
-1720.28
-1680.75
-1608.53
-1504.19
-1369.95
-1209.5
-1027.5
-829.31
-621.124
-408.313
-195.073
25.3735
234.312
433.182
619.448
785.751
927.873
1038.03
1110.63
1138.5
1119.05
1051.86
940.053
788.74
606.917
407.078
205.053
12.5174
-155.998
-285.853
-366.983
-393.721
-365.437
-283.746
-152.051
23.3927
237.724
484.859
755.415
1043.86
1345.33
1655.64
1970.98
2287.51
2600.77
2905.51
3195.29
3462.9
3700.56
3900.45
4055.32
4158.77
4205.36
4190.09
4112.13
3968.31
3758.04
3481.99
3142.06
2741.56
2285.63
1781.81
1240.09
672.425
89.8862
-496.901
-1071.88
-1623.62
-2143.58
-2624.96
-3062.22
-3450.67
-3785.78
-4062.67
-4275.9
-4419.63
-4488.2
-4475.21
-4378.98
-4198.19
-3936.06
-3599.72
-3200.29
-2753.13
-2276.84
-1791.54
-1317.59
-873.997
-477.295
-138.059
132.364
332.467
463.01
529.369
539.114
502.509
429.289
330.423
213.753
87.4863
7038.93
7166.48
7331.09
7497.45
7626.53
7685.6
7663.45
7708.36
7266.05
6755.38
6160.03
5487.17
4751.02
3965.71
3143.31
2292.74
1419.2
524.477
-391.902
-1331.09
-2292.52
-3271.71
-4259.05
-5239.97
-6196.66
-7111.22
-7965.06
-8765.58
-9446.5
-10014.2
-10470
-10819.5
-11072.8
-11242.3
-11340.7
-11378.4
-11360.4
-11284.7
-11141.6
-10915.6
-10588.7
-10145.5
-9576.78
-8838.48
-7959.69
-6955.05
-5837.91
-4625.9
-3338.32
-1995.13
-616.167
779.44
2174.32
3552.82
4899.78
6200.85
7442.3
8610.45
9691.36
10674.2
11544.3
12278.1
12862.9
13293.8
13565.7
13675.4
13622.1
13407.5
13036.1
12516.3
11858.7
11076.8
10187.2
9210.3
8192.03
6869.77
5553.96
4293.27
3074.91
1912.88
822.203
-184.755
-1100.45
-1924.16
-2661.38
-3322.46
-3920.32
-4468.64
-4977.95
-5455.03
-5900.77
-6311.55
-6681.49
-7000.89
-7268.55
-7470.6
-7606.07
-7673.6
-7674.48
-7612.43
-7492.73
-7320.86
-7101.07
-6835.28
-6522.42
-6158.65
-5738.72
-5258.11
-4714.9
-4112.67
-3466.82
-2777.42
-1998.33
-1158.58
-356.658
415.467
1140.59
1802.89
2391.32
2898.21
3320.65
3659.64
3917.57
4102.12
4211.6
4242.17
4204.76
4101.11
3933.06
3702.56
3412.79
3069.15
2679.42
2256.44
1819.43
1372.71
936.933
481.988
85.4309
-275.621
-585.694
-849.257
-1068.86
-1249.96
-1398.44
-1519.06
-1615.16
-1687.71
-1735.74
-1757.5
-1748.78
-1708
-1633.65
-1526.15
-1387.76
-1222.51
-1035.49
-832.389
-619.371
-402.074
-184.624
38.2732
251.145
454.206
645.112
816.538
963.842
1078.83
1155.15
1185.25
1164.6
1094.12
975.799
814.997
621.225
408.017
192.286
-14.3152
-194.102
-333.005
-419.937
-449.165
-420.788
-336.419
-200.056
-18.751
201.4
455.431
732.07
1026.2
1332.94
1648.31
1968.83
2290.97
2610.53
2922.35
3219.9
3495.71
3741.59
3949.32
4111.22
4220.61
4271.79
4259.61
4183.2
4039.54
3827.82
3548.64
3203.77
2796.42
2331.62
1817.04
1263.05
682.268
86.4222
-513.122
-1099.45
-1660.9
-2189
-2677.16
-3120.23
-3514.02
-3854.41
-4136.66
-4355.21
-4503.79
-4575.98
-4565.24
-4468.43
-4283.76
-4014.07
-3666.41
-3252.16
-2787.34
-2291.58
-1786.39
-1293.49
-833.13
-422.601
-74.6284
200.945
401.57
528.814
588.654
589.826
543.671
460.776
352.869
228.279
95.7194
6613
6683.52
6799.12
6924.34
7018.46
7046.4
6992.63
6956.93
6514.94
5999.48
5399.1
4723.48
3988.36
3209.14
2399.23
1568.81
723.975
-133.142
-1003.35
-1888.79
-2790.23
-3704.59
-4623.44
-5533.04
-6416.14
-7255.51
-8037.76
-8759.81
-9357.02
-9837.65
-10203.9
-10462.4
-10624.5
-10705
-10719.2
-10679.7
-10593.6
-10459.8
-10268.6
-10003.5
-9644.15
-9173.3
-8574.86
-7832.12
-6943.97
-5935.06
-4819.16
-3615.04
-2343.4
-1025.62
317.153
1664.9
2999.93
4306.81
5571.24
6780.27
7921.98
8984.65
9956.26
10826.9
11590.2
12216.7
12697.2
13028.4
13206.5
13229.5
13097.3
12812
12378.8
11806.1
11104.7
10288
9372.26
8377.51
7343.74
6002.68
4725.22
3494.27
2311.23
1190.35
147.014
-806.567
-1663.61
-2424.76
-3097.5
-3694.63
-4231.24
-4723.61
-5183.78
-5619.44
-6030.8
-6412.91
-6758.09
-7056.84
-7303.57
-7485.88
-7600.15
-7645.06
-7622
-7535.42
-7391.69
-7197.53
-6958.34
-6676.75
-6351.78
-5979.03
-5552.23
-5065.8
-4516.79
-3908.26
-3253.56
-2551.69
-1763.6
-918.343
-112.539
659.858
1380.34
2032.6
2605.56
3092.13
3490.75
3803.99
4036.57
4195.84
4283.74
4293.37
4238.32
4119.66
3938.63
3696.32
3395.15
3039.89
2638.07
2202.5
1752.24
1294.31
847.913
386.386
-11.045
-368.752
-673.135
-928.281
-1138.16
-1309.36
-1448.92
-1562.34
-1653.36
-1722.83
-1769.2
-1790.55
-1781.45
-1739.65
-1663.16
-1552.22
-1409.19
-1238.45
-1045.62
-836.856
-618.408
-396.044
-173.952
51.9444
269.124
476.906
673.123
850.518
1003.97
1124.78
1205.73
1238.34
1217.21
1143.14
1017.5
845.847
638.286
409.621
178.099
-45.2921
-238.054
-387.391
-480.818
-513.008
-484.329
-396.544
-254.771
-66.6278
160.453
422.405
705.905
1006.44
1319.05
1640
1966.22
2294.57
2621.17
2940.99
3247.39
3532.56
3787.87
4004.57
4174.53
4290.7
4347.14
4338.48
4263.75
4120.3
3907
3624.35
3273.96
2858.89
2384.04
1857.2
1289.14
693.286
82.1542
-531.996
-1131.21
-1703.62
-2240.77
-2736.41
-3185.84
-3585.45
-3931.71
-4220.06
-4444.78
-4599.11
-4675.54
-4667.76
-4570.58
-4381.75
-4103.61
-3743.1
-3311.9
-2826.75
-2308.56
-1780.38
-1265.62
-785.906
-359.553
-1.32604
279.876
480.929
604.128
656.228
647.416
590.094
495.981
377.644
243.99
104.242
6249.11
6273.28
6350.4
6443.26
6509.37
6511.92
6431.63
6331.18
5893.53
5373.79
4768.21
4088.51
3351.54
2573.8
1770.18
952.494
128.11
-700.107
-1533.11
-2373.91
-3224.66
-4083.85
-4944.38
-5793.54
-6614.67
-7391.15
-8116.45
-8774.95
-9303.38
-9711.35
-10001.4
-10180.5
-10261.5
-10261.3
-10197.7
-10086.1
-9935.74
-9747.35
-9511.61
-9210.89
-8823.31
-8329.86
-7712.55
-6960.77
-6068.09
-5056.46
-3941.69
-2743.29
-1483.09
-183.757
1132.23
2443.73
3732.36
4982.54
6180.29
7313.68
8372.11
9345.58
10223.8
10998.2
11667.6
12199.4
12586.8
12828.3
12921.2
12864.6
12659.1
12307.3
11814.7
11190.2
10444.7
9591.6
8647.45
7632.68
6583.51
5210.09
3960.42
2750.33
1592.81
503.23
-502.291
-1411.17
-2216.91
-2921.21
-3533.48
-4068.94
-4545.11
-4981.86
-5392.64
-5786.71
-6163.84
-6517.93
-6839.82
-7119.54
-7346.66
-7512.1
-7607.49
-7631.59
-7585.83
-7475.41
-7307.87
-7091.4
-6832.82
-6535.71
-6199.3
-5818.64
-5386.28
-4895.34
-4341.53
-3727.05
-3062.76
-2346.97
-1547.6
-693.305
120.437
897.61
1617.94
2264.23
2825.1
3293.87
3670.29
3958.46
4167.46
4299.99
4365.46
4354.71
4282.02
4148.45
3954.55
3700.41
3387.47
3019.8
2604.49
2154.56
1688.84
1217.02
756.286
288.95
-112.532
-467.895
-766.802
-1013.16
-1212.56
-1373.01
-1502.93
-1608.64
-1694.43
-1761.04
-1806.32
-1827.38
-1818.71
-1776.29
-1697.77
-1583.19
-1434.97
-1258
-1058.53
-843.242
-618.67
-390.657
-163.392
66.1124
288.06
501.187
703.513
887.856
1048.56
1176.31
1262.9
1298.71
1277.36
1199.36
1065.53
881.542
658.186
411.832
162.711
-81.2071
-288.455
-449.482
-550.131
-585.723
-556.56
-464.495
-316.372
-120.286
114.868
385.79
676.967
984.628
1303.65
1630.67
1963.06
2298.18
2632.56
2961.29
3277.64
3573.41
3839.43
4066.31
4245.41
4369.25
4431.6
4426.92
4353.98
4210.82
3995.82
3709.36
3352.89
2929.25
2443.17
1902.48
1318.46
705.457
76.9194
-553.778
-1167.48
-1752.07
-2299.19
-2802.91
-3259.13
-3665
-4017.68
-4312.89
-4544.72
-4705.78
-4787.24
-4783.55
-4686.14
-4492.84
-4205.38
-3830.43
-3380.05
-2871.8
-2327.97
-1773.48
-1233.74
-731.935
-287.542
82.4784
369.807
571.099
689.343
732.407
711.926
641.705
534.727
404.525
260.688
112.925
5934.39
5920.45
5967.24
6034.19
6077.4
6059.16
5957.02
5804.97
5377.51
4853.87
4243.25
3558.57
2817.26
2036.7
1233.5
421.655
-389.68
-1196.55
-1999.79
-2803.23
-3610.48
-4421.81
-5231.82
-6029.06
-6797.56
-7520.78
-8200.9
-8810.24
-9281.75
-9629.65
-9854.96
-9964.52
-9972.34
-9897.66
-9761.23
-9581.06
-9369.2
-9128.69
-8850.95
-8517.7
-8105.6
-7594.28
-6964.8
-6206.46
-5311.21
-4298.55
-3184.97
-1990.3
-737.35
550.002
1847.77
3133.47
4387.67
5594.18
6738.97
7810.75
8799.91
9697.9
10496.3
11187.8
11774.4
12221.8
12525.7
12685.8
12700.9
12570.9
12296.8
11882
11332.3
10656.9
9866.87
8975.86
8000.91
6964.16
5900.29
4480.97
3250.75
2053.58
912.504
-154.887
-1131.37
-2003.48
-2764.58
-3416.95
-3971.94
-4447.91
-4863.33
-5242.95
-5604.61
-5956.38
-6299.09
-6625.59
-6925.45
-7187.13
-7397.47
-7549.29
-7627.86
-7632.95
-7565.63
-7431.83
-7240.46
-7001.34
-6723.11
-6410.55
-6063.24
-5675.77
-5239.24
-4745.3
-4187.89
-3567.93
-2893.47
-2162.25
-1349.26
-482.361
343.513
1130.1
1854.88
2499.26
3051.29
3504.59
3860.07
4123.07
4311.12
4414.22
4455.34
4425.55
4335.16
4186.82
3980.25
3714.35
3389.4
3008.61
2578.47
2112.28
1628.75
1140.28
662.095
187.75
-219.904
-573.908
-867.425
-1104.5
-1292.52
-1441.05
-1560.32
-1657.69
-1738
-1801.94
-1846.75
-1868.05
-1860.53
-1817.9
-1737.45
-1618.97
-1464.97
-1280.96
-1073.91
-851.21
-619.78
-385.601
-152.724
80.8606
307.912
526.908
736.085
928.356
1097.48
1233.44
1326.84
1366.77
1345.64
1263.41
1120.52
922.608
681.27
414.644
144.397
-120.872
-345.69
-519.763
-628.739
-667.914
-637.933
-540.883
-385.172
-179.85
64.6614
345.59
645.343
960.855
1286.82
1620.32
1959.29
2301.69
2644.52
2983.09
3310.55
3618.23
3896.31
4134.67
4324.04
4456.48
4525.46
4525.26
4454.12
4311.36
4094.55
3803.98
3440.88
3007.84
2509.3
1953.14
1351.13
718.734
70.5496
-578.769
-1208.61
-1806.65
-2364.58
-2876.89
-3340.23
-3752.71
-4112.31
-4415.14
-4655.08
-4823.95
-4911.34
-4912.92
-4815.57
-4617.76
-4320.13
-3929.17
-3457.25
-2922.88
-2349.97
-1765.58
-1197.49
-670.698
-205.679
177.577
471.558
672.829
785.099
817.562
783.618
698.583
576.949
433.336
278.081
121.405
5659.18
5613.93
5636.82
5682.3
5706.05
5670.67
5551.23
5358.35
4948.59
4421.37
3806.34
3116.21
2368.47
1580.89
772.224
-40.4816
-845.752
-1638.11
-2418
-3189.94
-3959.17
-4728.08
-5493.3
-6245.23
-6968.75
-7646.65
-8291.63
-8863.67
-9289.19
-9588.41
-9759.06
-9807.52
-9748.65
-9604.21
-9398.44
-9151.91
-8879.87
-8588.66
-8270.74
-7907.38
-7474.05
-6949.07
-6312.54
-5553.17
-4656.87
-3645
-2532.94
-1340.19
-90.5428
1190.97
2478.53
3748.12
4978.76
6153.27
7257.23
8279.61
9211.5
10045.6
10775.7
11395.7
11909
12280.5
12508.8
12594.7
12538.1
12340
12001.6
11526.7
10921.6
10196
9361.05
8430.65
7422.45
6361.98
5286.24
3803.57
2588.82
1397.36
264.053
-789.691
-1745.41
-2588.21
-3310.79
-3915.5
-4415.98
-4832.22
-5186.63
-5508.01
-5818.68
-6127.8
-6435.55
-6734.79
-7013.82
-7259.22
-7456.3
-7596.32
-7661.18
-7649.13
-7561.28
-7404.36
-7188.78
-6926.37
-6627.91
-6299.74
-5942.02
-5548.93
-5109.79
-4614.6
-4055.03
-3430.21
-2745.19
-1996.9
-1167.81
-284.65
557.746
1358.59
2092.54
2739.11
3285.43
3725.35
4061.09
4299.35
4452.14
4537.61
4554.2
4505.44
4397.14
4234.22
4015.35
3737.94
3400.84
3006.29
2559.96
2075.49
1571.58
1063.59
564.909
81.4446
-333.818
-687.826
-975.831
-1202.67
-1377.8
-1513.26
-1620.93
-1709.09
-1783.72
-1845.33
-1890.46
-1912.74
-1907.17
-1864.84
-1782.63
-1659.99
-1499.54
-1307.55
-1091.9
-860.806
-621.719
-380.83
-141.966
96.1395
328.599
553.981
770.793
972.055
1150.9
1296.45
1397.96
1443.04
1422.61
1335.82
1182.99
969.498
707.856
418.084
123.403
-165.285
-410.247
-599.072
-717.387
-760.333
-728.767
-626.052
-461.457
-245.453
9.93398
301.721
611.123
935.208
1268.59
1608.89
1954.77
2304.89
2656.85
3006.22
3345.99
3666.96
3958.53
4209.75
4410.59
4552.61
4628.92
4633.67
4564.29
4422.15
4203.44
3908.49
3538.25
3095.01
2582.79
2009.45
1387.3
733.084
62.8291
-607.322
-1255.04
-1867.78
-2437.3
-2958.58
-3429.24
-3848.57
-4215.55
-4526.78
-4775.95
-4953.95
-5048.08
-5057.16
-4959.85
-4757.46
-4448.86
-4040.19
-3544.25
-2980.57
-2374.87
-1756.67
-1156.58
-601.802
-113.061
284.723
585.922
786.806
891.947
911.926
862.53
760.579
622.354
463.687
295.73
129.274
5416.08
5345.75
5349.83
5376.34
5382.5
5332.86
5200.96
4977.08
4591.88
4062.31
3444.37
2748.79
1992.91
1194.08
373.725
-446.637
-1252.75
-2037.16
-2799.4
-3544.7
-4280.01
-5010.23
-5734.55
-6446.08
-7131.12
-7771.35
-8388.33
-8931.27
-9322.9
-9584.59
-9709.92
-9704.65
-9584.17
-9373.2
-9100.46
-8788.41
-8456.07
-8114.49
-7757.28
-7365.43
-6913.64
-6378.82
-5740.35
-4985.79
-4090.97
-3082.2
-1972.42
-779.953
470.092
1751.68
3036.62
4299.25
5516.4
6669.54
7743.54
8727.31
9612.31
10392.5
11063.9
11622.1
12070.2
12373
12532.4
12550.1
12427.3
12165.8
11766.7
11234.2
10575.3
9800.12
8919.85
7948.63
6904.54
5818.3
4742.22
3162.38
1970.25
777.377
-356.915
-1405.35
-2348.58
-3169.59
-3859.95
-4421.25
-4870.02
-5223.1
-5518.3
-5780.74
-6036.55
-6300.71
-6572.37
-6843.83
-7102.99
-7334.39
-7521.73
-7652.22
-7707.16
-7680.26
-7572.99
-7393.11
-7152.71
-6865.94
-6546.25
-6201.9
-5833.93
-5436.34
-4996.24
-4501.97
-3942.16
-3313.45
-2617.99
-1851.09
-1003.47
-100.425
763.105
1583.4
2331.66
2984.79
3528.69
3957.37
4274.61
4490.32
4605
4672.1
4662.85
4593.89
4467.34
4290.09
4059.45
3771.04
3421.93
3013.31
2549.55
2044.76
1517.74
987.261
464.779
-30.5535
-455.581
-810.463
-1092.46
-1308.25
-1469.34
-1590.01
-1684.32
-1762.54
-1831.19
-1890.77
-1936.93
-1961.46
-1958.58
-1917.31
-1833.56
-1706.52
-1538.86
-1337.87
-1112.51
-871.958
-624.359
-376.199
-131.045
111.927
349.993
582.196
807.399
1018.74
1208.71
1365.41
1476.57
1528.11
1509.12
1417.4
1253.83
1022.96
738.342
422.149
99.6633
-215.114
-482.816
-688.318
-816.863
-863.754
-829.799
-720.388
-545.55
-317.243
-48.4215
253.379
574.467
907.847
1249.06
1596.43
1949.44
2307.63
2669.33
3030.43
3383.79
3719.54
4026.18
4291.75
4505.37
4657.99
4742.39
4753.02
4684.8
4543.59
4322.89
4023.3
3645.46
3191.25
2664.11
2071.81
1427.19
748.493
53.4998
-639.88
-1307.31
-1936.04
-2517.82
-3048.32
-3526.33
-3952.59
-4327.33
-4647.73
-4907.38
-5096.01
-5199.39
-5214.9
-5119.49
-4912.83
-4592.58
-4164.53
-3641.91
-3045.48