/*--------------------------------*- C++ -*----------------------------------*\
| =========                 |                                                 |
| \\      /  F ield         | OpenFOAM: The Open Source CFD Toolbox           |
|  \\    /   O peration     | Version:  v1912                                 |
|   \\  /    A nd           | Website:  www.openfoam.com                      |
|    \\/     M anipulation  |                                                 |
\*---------------------------------------------------------------------------*/
FoamFile
{
    version     2.0;
    format      ascii;
    class       volVectorField;
    location    "70";
    object      U;
}
// * * * * * * * * * * * * * * * * * * * * * * * * * * * * * * * * * * * * * //

dimensions      [0 1 -1 0 0 0 0];


internalField   nonuniform List<vector> 
114144
(
(0.235319 -0.00253507 0)
(0.214496 -0.00192661 0)
(0.179095 -0.00159828 0)
(0.142778 -0.00136294 0)
(0.10581 -0.00118709 0)
(0.0680898 -0.00107118 0)
(0.0288949 -0.00101403 0)
(-0.0111396 -0.000770943 0)
(-0.0525283 -0.000879056 0)
(-0.096578 -0.00106854 0)
(-0.142569 -0.00120221 0)
(-0.190099 -0.00130433 0)
(-0.238575 -0.00136651 0)
(-0.287196 -0.00138151 0)
(-0.335065 -0.00134901 0)
(-0.381299 -0.00127544 0)
(-0.425136 -0.00117271 0)
(-0.465995 -0.00105524 0)
(-0.503511 -0.000937242 0)
(-0.537509 -0.000829732 0)
(-0.567946 -0.000738255 0)
(-0.594829 -0.000661713 0)
(-0.618119 -0.000592713 0)
(-0.637656 -0.000519472 0)
(-0.653109 -0.000428809 0)
(-0.663983 -0.000309635 0)
(-0.669656 -0.000154706 0)
(-0.66946 3.99998e-05 0)
(-0.662764 0.00026191 0)
(-0.649119 0.000499057 0)
(-0.628324 0.000735012 0)
(-0.600486 0.000951996 0)
(-0.566027 0.00113379 0)
(-0.52564 0.00126836 0)
(-0.480205 0.00134991 0)
(-0.430668 0.00138011 0)
(-0.377911 0.00136821 0)
(-0.322638 0.00132992 0)
(-0.265283 0.00128486 0)
(-0.205972 0.00125269 0)
(-0.144535 0.00124794 0)
(-0.0804496 0.0012757 0)
(-0.0136017 0.00125067 0)
(0.0561777 0.00115572 0)
(0.129946 0.0015197 0)
(0.20775 0.0016758 0)
(0.288679 0.00173312 0)
(0.371987 0.00175439 0)
(0.456515 0.00173518 0)
(0.540748 0.00166818 0)
(0.622941 0.00155188 0)
(0.701257 0.0013907 0)
(0.773892 0.00119362 0)
(0.839197 0.000972602 0)
(0.895762 0.000740828 0)
(0.942487 0.000510982 0)
(0.97859 0.000293918 0)
(1.0036 9.77513e-05 0)
(1.01733 -7.30025e-05 0)
(1.0198 -0.00021674 0)
(1.01129 -0.000322912 0)
(0.992143 -0.00040179 0)
(0.9628 -0.000455602 0)
(0.923785 -0.000485705 0)
(0.875703 -0.000494414 0)
(0.819217 -0.000483996 0)
(0.755053 -0.000456756 0)
(0.684003 -0.00041541 0)
(0.606939 -0.000363919 0)
(0.524797 -0.000308983 0)
(0.438577 -0.000261749 0)
(0.349267 -0.000232024 0)
(0.257802 -7.99162e-05 0)
(0.165798 0.000399486 0)
(0.0762805 0.000579494 0)
(-0.0108204 0.000505483 0)
(-0.0966163 0.000428211 0)
(-0.178116 0.000517563 0)
(-0.253265 0.000595068 0)
(-0.321557 0.000664377 0)
(-0.382233 0.000717969 0)
(-0.434834 0.000752591 0)
(-0.47924 0.000765967 0)
(-0.515679 0.000756975 0)
(-0.544724 0.000725869 0)
(-0.56723 0.000674312 0)
(-0.584246 0.00060525 0)
(-0.596895 0.000522655 0)
(-0.60625 0.000431137 0)
(-0.613204 0.000335559 0)
(-0.61838 0.000240476 0)
(-0.62208 0.000149033 0)
(-0.624281 6.37176e-05 0)
(-0.624674 -1.63019e-05 0)
(-0.622721 -9.44387e-05 0)
(-0.617838 -0.000176215 0)
(-0.609469 -0.000266351 0)
(-0.597186 -0.000368869 0)
(-0.580758 -0.000486103 0)
(-0.560169 -0.000618428 0)
(-0.535592 -0.000764433 0)
(-0.507321 -0.000921409 0)
(-0.475687 -0.00108609 0)
(-0.440966 -0.00125515 0)
(-0.403317 -0.00142599 0)
(-0.362745 -0.00159723 0)
(-0.319122 -0.00176839 0)
(-0.27225 -0.00193899 0)
(-0.221968 -0.00210935 0)
(-0.168144 -0.00226131 0)
(-0.110874 -0.00236625 0)
(-0.052392 -0.00259183 0)
(0.00738103 -0.00269347 0)
(0.068591 -0.00271565 0)
(0.128416 -0.00270458 0)
(0.185115 -0.00263058 0)
(0.237025 -0.00248331 0)
(0.282799 -0.00226774 0)
(0.321312 -0.00198919 0)
(0.351886 -0.0016598 0)
(0.374283 -0.00129467 0)
(0.388679 -0.00091045 0)
(0.395536 -0.000519743 0)
(0.395559 -0.000162641 0)
(0.389571 0.000211446 0)
(0.37815 0.000565678 0)
(0.361929 0.000900639 0)
(0.341355 0.00121744 0)
(0.316779 0.00151688 0)
(0.28849 0.00179714 0)
(0.25682 0.00205336 0)
(0.222122 0.00225415 0)
(0.184698 0.00248083 0)
(0.145729 0.00273345 0)
(0.106708 0.00284984 0)
(0.0682555 0.00288198 0)
(0.0322385 0.00286842 0)
(-0.00185776 0.00274243 0)
(-0.033751 0.00251472 0)
(-0.0613822 0.00227921 0)
(-0.0849913 0.00201869 0)
(-0.104415 0.00173943 0)
(-0.120081 0.00146427 0)
(-0.132388 0.00120441 0)
(-0.141828 0.000967856 0)
(-0.148843 0.000755774 0)
(-0.153761 0.000563426 0)
(-0.156756 0.000381891 0)
(-0.157853 0.000195216 0)
(-0.15693 1.42166e-05 0)
(-0.153823 -0.000198844 0)
(-0.148346 -0.000434308 0)
(-0.140382 -0.000688932 0)
(-0.129928 -0.000955008 0)
(-0.117109 -0.00121878 0)
(-0.102132 -0.00146567 0)
(-0.0852915 -0.00171221 0)
(-0.0671183 -0.00193781 0)
(-0.0481172 -0.00210091 0)
(-0.0288039 -0.00223444 0)
(-0.00944927 -0.0023339 0)
(0.00989553 -0.00235768 0)
(0.0289972 -0.002387 0)
(0.0467646 -0.00237924 0)
(0.0633222 -0.00228941 0)
(0.0783096 -0.00214714 0)
(0.0905786 -0.00189043 0)
(0.100114 -0.00152033 0)
(0.106002 -0.00101628 0)
(0.107949 -0.000403543 0)
(0.105568 0.00028897 0)
(0.0987656 0.0010323 0)
(0.0879276 0.0017603 0)
(0.0737337 0.00241322 0)
(0.0569896 0.00290987 0)
(0.0387628 0.00319811 0)
(0.0204018 0.00324798 0)
(0.00297232 0.00304717 0)
(-0.0123389 0.0025965 0)
(-0.0242338 0.0019534 0)
(-0.03192 0.00116509 0)
(-0.0349082 0.000280615 0)
(-0.0330327 -0.000577018 0)
(-0.0264502 -0.00144911 0)
(-0.0155413 -0.00225953 0)
(-0.00061821 -0.00297487 0)
(0.0177522 -0.0035897 0)
(0.0388797 -0.00407768 0)
(0.0621792 -0.00445333 0)
(0.0871124 -0.00472705 0)
(0.113207 -0.00491363 0)
(0.140091 -0.00502064 0)
(0.167377 -0.00505247 0)
(0.194732 -0.005012 0)
(0.221744 -0.0048917 0)
(0.247938 -0.00468659 0)
(0.272823 -0.00437606 0)
(0.295758 -0.00394946 0)
(0.316103 -0.00339629 0)
(0.333166 -0.00271701 0)
(0.346342 -0.00191963 0)
(0.355016 -0.00101485 0)
(0.358704 -2.56598e-05 0)
(0.357074 0.00106896 0)
(0.349759 0.0021844 0)
(0.336595 0.00331914 0)
(0.317488 0.00444948 0)
(0.292535 0.00554971 0)
(0.261921 0.00659547 0)
(0.225992 0.00755401 0)
(0.185303 0.00839233 0)
(0.14056 0.00907693 0)
(0.0926703 0.00958017 0)
(0.0426397 0.00987957 0)
(-0.00878671 0.00996843 0)
(-0.0603114 0.00984882 0)
(-0.110536 0.00953974 0)
(-0.158715 0.00907091 0)
(-0.204079 0.00846846 0)
(-0.246024 0.00775931 0)
(-0.284041 0.00695855 0)
(-0.317677 0.00607935 0)
(-0.346521 0.00511857 0)
(-0.370119 0.00407349 0)
(-0.388001 0.00293934 0)
(-0.399651 0.00171982 0)
(-0.40466 0.00039079 0)
(-0.402393 -0.000988537 0)
(-0.392716 -0.00239326 0)
(-0.375621 -0.00377653 0)
(-0.351392 -0.00507435 0)
(-0.320656 -0.00622165 0)
(-0.284437 -0.00714903 0)
(-0.244039 -0.00779773 0)
(-0.201067 -0.00812434 0)
(-0.157287 -0.00811155 0)
(-0.11448 -0.0077676 0)
(-0.0743657 -0.00711908 0)
(-0.0384171 -0.00622107 0)
(-0.00776465 -0.00513911 0)
(0.0167968 -0.00395424 0)
(0.0349514 -0.00274597 0)
(0.0467961 -0.00158292 0)
(0.052734 -0.000529303 0)
(0.0534808 0.000390196 0)
(0.0499507 0.00114325 0)
(0.0428432 0.00190404 0)
(0.0329678 0.00258182 0)
(0.0219459 0.00231929 0)
(0.0108178 -0.0014044 0)
(0.240068 0.0129112 0)
(0.214927 0.0147203 0)
(0.179281 0.0157662 0)
(0.142866 0.0164562 0)
(0.105866 0.0170146 0)
(0.0681498 0.0175821 0)
(0.0290633 0.0182445 0)
(-0.01098 0.0193853 0)
(-0.0525104 0.0201462 0)
(-0.0965873 0.0208434 0)
(-0.142609 0.0215074 0)
(-0.19022 0.0219877 0)
(-0.2388 0.0221791 0)
(-0.287535 0.0220164 0)
(-0.335513 0.0214787 0)
(-0.381841 0.0205882 0)
(-0.425746 0.0194033 0)
(-0.466648 0.0180023 0)
(-0.504181 0.0164662 0)
(-0.538179 0.0148608 0)
(-0.56861 0.0132239 0)
(-0.59549 0.0115582 0)
(-0.618791 0.00983303 0)
(-0.638355 0.00799277 0)
(-0.653855 0.00597108 0)
(-0.664788 0.003708 0)
(-0.670521 0.00117243 0)
(-0.670376 -0.00162732 0)
(-0.663712 -0.0046603 0)
(-0.650063 -0.00783964 0)
(-0.629226 -0.0110478 0)
(-0.601306 -0.014153 0)
(-0.566731 -0.0170302 0)
(-0.526208 -0.0195808 0)
(-0.480629 -0.0217493 0)
(-0.43096 -0.0235318 0)
(-0.378095 -0.0249756 0)
(-0.322749 -0.0261699 0)
(-0.265359 -0.02723 0)
(-0.206049 -0.0282771 0)
(-0.144642 -0.0294196 0)
(-0.0806319 -0.0307358 0)
(-0.0138903 -0.032398 0)
(0.0560042 -0.034266 0)
(0.129889 -0.0355905 0)
(0.207657 -0.0370727 0)
(0.288686 -0.0384013 0)
(0.372178 -0.0392944 0)
(0.456935 -0.0395696 0)
(0.541424 -0.0390955 0)
(0.623882 -0.0377937 0)
(0.702453 -0.035643 0)
(0.775316 -0.0326789 0)
(0.840808 -0.0289849 0)
(0.897513 -0.0246806 0)
(0.944326 -0.0199054 0)
(0.980466 -0.0148043 0)
(1.00547 -0.00951461 0)
(1.01915 -0.00415838 0)
(1.02155 0.00116982 0)
(1.01294 0.00639294 0)
(0.993683 0.0114607 0)
(0.964213 0.0163128 0)
(0.925061 0.0209145 0)
(0.876833 0.0252319 0)
(0.820191 0.0292302 0)
(0.755861 0.0328726 0)
(0.684635 0.0361193 0)
(0.607381 0.0389272 0)
(0.525036 0.0412502 0)
(0.438598 0.0430396 0)
(0.349112 0.0442584 0)
(0.257593 0.0450536 0)
(0.165376 0.0457846 0)
(0.0754276 0.0454854 0)
(-0.0119828 0.0439726 0)
(-0.0979122 0.0417469 0)
(-0.179525 0.039255 0)
(-0.254819 0.0362106 0)
(-0.32321 0.0327183 0)
(-0.383933 0.0288962 0)
(-0.436522 0.0249002 0)
(-0.480852 0.0209038 0)
(-0.51716 0.0170821 0)
(-0.546026 0.0135928 0)
(-0.568325 0.0105578 0)
(-0.585126 0.00804672 0)
(-0.597575 0.00606815 0)
(-0.606762 0.00456824 0)
(-0.613599 0.00343918 0)
(-0.618713 0.00253559 0)
(-0.622408 0.00169574 0)
(-0.62465 0.000773976 0)
(-0.625116 -0.000355429 0)
(-0.623248 -0.00176127 0)
(-0.618443 -0.00346299 0)
(-0.610127 -0.00542237 0)
(-0.597861 -0.00755961 0)
(-0.581412 -0.00977221 0)
(-0.560768 -0.0119579 0)
(-0.536115 -0.0140363 0)
(-0.507762 -0.0159648 0)
(-0.476056 -0.0177454 0)
(-0.441283 -0.0194196 0)
(-0.403608 -0.0210545 0)
(-0.363031 -0.0227219 0)
(-0.319411 -0.0244726 0)
(-0.272533 -0.026314 0)
(-0.222209 -0.0281976 0)
(-0.168278 -0.0299926 0)
(-0.110894 -0.0315263 0)
(-0.0522115 -0.0328499 0)
(0.00789028 -0.0333912 0)
(0.0694204 -0.0330891 0)
(0.129564 -0.0319339 0)
(0.186567 -0.0298694 0)
(0.23873 -0.0269434 0)
(0.284676 -0.0233061 0)
(0.323268 -0.0191578 0)
(0.353826 -0.0147358 0)
(0.376122 -0.0102741 0)
(0.390351 -0.00597452 0)
(0.396995 -0.00197841 0)
(0.396806 0.00160758 0)
(0.390625 0.00482693 0)
(0.379025 0.00771223 0)
(0.362657 0.0103119 0)
(0.341957 0.0126939 0)
(0.317266 0.0149016 0)
(0.288854 0.0169366 0)
(0.257029 0.0187566 0)
(0.222166 0.0202484 0)
(0.184582 0.0214152 0)
(0.145373 0.0222292 0)
(0.106071 0.022356 0)
(0.0673904 0.021821 0)
(0.0311752 0.0207433 0)
(-0.00308748 0.019076 0)
(-0.0350428 0.0169219 0)
(-0.0626464 0.0146245 0)
(-0.0861799 0.0122936 0)
(-0.105482 0.0100478 0)
(-0.121 0.00800936 0)
(-0.133157 0.00623034 0)
(-0.142466 0.00471324 0)
(-0.149383 0.00341102 0)
(-0.15424 0.00224551 0)
(-0.157209 0.00113031 0)
(-0.158293 -2.58266e-05 0)
(-0.157367 -0.00128536 0)
(-0.15425 -0.00264193 0)
(-0.148735 -0.0040855 0)
(-0.140703 -0.00556218 0)
(-0.130149 -0.00699885 0)
(-0.117206 -0.00831478 0)
(-0.102101 -0.00943565 0)
(-0.085139 -0.0103468 0)
(-0.0668346 -0.011032 0)
(-0.0477173 -0.0114337 0)
(-0.0283176 -0.0116002 0)
(-0.00887541 -0.0115393 0)
(0.0105239 -0.0111869 0)
(0.0296496 -0.0106864 0)
(0.0474506 -0.00996492 0)
(0.0640197 -0.00893197 0)
(0.0789949 -0.00764949 0)
(0.0912386 -0.0060232 0)
(0.100725 -0.00410672 0)
(0.106543 -0.00191771 0)
(0.108402 0.000463653 0)
(0.105931 0.00287788 0)
(0.0990383 0.00516113 0)
(0.0881129 0.00720221 0)
(0.0738279 0.00885275 0)
(0.0569824 0.00993611 0)
(0.0386491 0.0103532 0)
(0.0201761 0.010071 0)
(0.00262732 0.00909719 0)
(-0.0127937 0.00745895 0)
(-0.0247766 0.00533601 0)
(-0.032531 0.00287375 0)
(-0.0355378 0.00021685 0)
(-0.0336637 -0.00248726 0)
(-0.0270793 -0.00503327 0)
(-0.0161329 -0.00736681 0)
(-0.00116063 -0.00941327 0)
(0.0172705 -0.0111676 0)
(0.0384662 -0.0125694 0)
(0.0618315 -0.0136628 0)
(0.0868288 -0.0144777 0)
(0.112986 -0.0150542 0)
(0.139932 -0.0154214 0)
(0.16728 -0.0155823 0)
(0.194703 -0.0155451 0)
(0.221793 -0.0152422 0)
(0.248073 -0.0146731 0)
(0.273054 -0.0137715 0)
(0.296094 -0.0125079 0)
(0.316544 -0.0108575 0)
(0.333706 -0.00882842 0)
(0.346971 -0.00644528 0)
(0.355721 -0.00374245 0)
(0.359486 -0.000792124 0)
(0.357903 0.0023083 0)
(0.350599 0.00558493 0)
(0.337442 0.00894566 0)
(0.318326 0.012307 0)
(0.293345 0.0155876 0)
(0.262681 0.0187215 0)
(0.226678 0.0216088 0)
(0.185889 0.024145 0)
(0.141022 0.0262318 0)
(0.0929879 0.0277821 0)
(0.0428021 0.028726 0)
(-0.00878293 0.0290441 0)
(-0.0604599 0.0287317 0)
(-0.110817 0.0278563 0)
(-0.159109 0.0265017 0)
(-0.204566 0.0247433 0)
(-0.246589 0.0226634 0)
(-0.284673 0.020307 0)
(-0.318374 0.0177055 0)
(-0.347282 0.0148588 0)
(-0.37095 0.0117491 0)
(-0.388904 0.00836309 0)
(-0.400621 0.00471437 0)
(-0.405684 0.000734238 0)
(-0.403454 -0.00343267 0)
(-0.39378 -0.00765823 0)
(-0.376644 -0.0118159 0)
(-0.352326 -0.0157151 0)
(-0.321449 -0.0191536 0)
(-0.28504 -0.0219303 0)
(-0.244414 -0.0238753 0)
(-0.201192 -0.0248588 0)
(-0.157156 -0.0248293 0)
(-0.114108 -0.023797 0)
(-0.0737828 -0.0218488 0)
(-0.0376699 -0.0191481 0)
(-0.00690986 -0.0158935 0)
(0.0177001 -0.0123276 0)
(0.0358452 -0.0086892 0)
(0.047632 -0.0051886 0)
(0.0534775 -0.00202375 0)
(0.0541018 0.000694085 0)
(0.0504892 0.00290136 0)
(0.0434768 0.00459184 0)
(0.0348844 0.00541717 0)
(0.0250346 0.00601379 0)
(0.0130004 0.00921186 0)
(0.242521 0.0213473 0)
(0.215367 0.0231106 0)
(0.179519 0.0242217 0)
(0.143003 0.0249589 0)
(0.105979 0.0255803 0)
(0.0682916 0.0262823 0)
(0.029303 0.0271865 0)
(-0.0107018 0.0285763 0)
(-0.0522709 0.0298014 0)
(-0.0963659 0.031054 0)
(-0.142447 0.0321851 0)
(-0.190163 0.0330186 0)
(-0.238886 0.0333971 0)
(-0.287783 0.0332182 0)
(-0.335921 0.0324494 0)
(-0.38239 0.0311275 0)
(-0.426404 0.0293458 0)
(-0.467377 0.0272304 0)
(-0.504947 0.0249114 0)
(-0.538958 0.0224949 0)
(-0.569392 0.0200406 0)
(-0.596282 0.0175519 0)
(-0.619612 0.0149767 0)
(-0.639232 0.0122221 0)
(-0.654816 0.00917784 0)
(-0.665854 0.00574444 0)
(-0.671695 0.00186875 0)
(-0.671648 -0.00243262 0)
(-0.665056 -0.00711191 0)
(-0.651432 -0.0120307 0)
(-0.630564 -0.0170002 0)
(-0.602555 -0.0218097 0)
(-0.567842 -0.026259 0)
(-0.527147 -0.0301904 0)
(-0.481385 -0.0335144 0)
(-0.431543 -0.0362243 0)
(-0.378538 -0.0383962 0)
(-0.323099 -0.0401748 0)
(-0.26567 -0.0417485 0)
(-0.206374 -0.0433154 0)
(-0.145022 -0.0450507 0)
(-0.0811142 -0.0470768 0)
(-0.0144533 -0.0495621 0)
(0.0554745 -0.0521875 0)
(0.129414 -0.0546233 0)
(0.207235 -0.0570133 0)
(0.288406 -0.0590484 0)
(0.372128 -0.0604071 0)
(0.457181 -0.0608146 0)
(0.542007 -0.0600655 0)
(0.624821 -0.0580382 0)
(0.703739 -0.0547028 0)
(0.776918 -0.0501175 0)
(0.842678 -0.0444155 0)
(0.89959 -0.0377845 0)
(0.946546 -0.0304426 0)
(0.982766 -0.0226145 0)
(1.00779 -0.014512 0)
(1.02145 -0.0063219 0)
(1.02379 0.00180817 0)
(1.0151 0.00976917 0)
(0.995725 0.0174811 0)
(0.966127 0.0248566 0)
(0.926834 0.0318433 0)
(0.878452 0.0383913 0)
(0.821643 0.0444491 0)
(0.757132 0.0499619 0)
(0.68571 0.0548714 0)
(0.608245 0.059116 0)
(0.525675 0.0626339 0)
(0.439003 0.0653682 0)
(0.349289 0.0672837 0)
(0.257616 0.0684103 0)
(0.165186 0.0690047 0)
(0.0748195 0.0685708 0)
(-0.0129962 0.0664565 0)
(-0.0991329 0.0631868 0)
(-0.180903 0.0593745 0)
(-0.256385 0.0547409 0)
(-0.324916 0.0494331 0)
(-0.385722 0.0436321 0)
(-0.438323 0.037573 0)
(-0.482595 0.0315178 0)
(-0.518776 0.0257316 0)
(-0.54746 0.0204534 0)
(-0.569538 0.0158679 0)
(-0.586105 0.0120813 0)
(-0.598332 0.00910717 0)
(-0.607333 0.00686406 0)
(-0.614037 0.00518769 0)
(-0.619084 0.00385558 0)
(-0.622775 0.00261976 0)
(-0.625067 0.00125722 0)
(-0.625621 -0.000419948 0)
(-0.623859 -0.00251993 0)
(-0.619153 -0.00506697 0)
(-0.610911 -0.00800091 0)
(-0.59868 -0.011199 0)
(-0.582224 -0.014505 0)
(-0.561536 -0.0177635 0)
(-0.536814 -0.0208526 0)
(-0.508384 -0.0237083 0)
(-0.47661 -0.0263339 0)
(-0.441793 -0.0287933 0)
(-0.404101 -0.0311899 0)
(-0.363532 -0.0336341 0)
(-0.319933 -0.0362047 0)
(-0.273067 -0.0389155 0)
(-0.222724 -0.0416937 0)
(-0.168724 -0.0443555 0)
(-0.111234 -0.0466784 0)
(-0.052347 -0.048588 0)
(0.00806416 -0.049394 0)
(0.0699153 -0.0489918 0)
(0.13039 -0.0472978 0)
(0.187718 -0.0442629 0)
(0.240161 -0.0399545 0)
(0.286317 -0.0345943 0)
(0.32503 -0.0284794 0)
(0.355617 -0.02196 0)
(0.377858 -0.0153824 0)
(0.391965 -0.00904574 0)
(0.398444 -0.00315274 0)
(0.398084 0.00207395 0)
(0.39174 0.00682926 0)
(0.379995 0.0110748 0)
(0.36351 0.0148995 0)
(0.342717 0.0184058 0)
(0.317944 0.0216609 0)
(0.289447 0.0246713 0)
(0.257515 0.0273786 0)
(0.22252 0.0296458 0)
(0.184798 0.0313862 0)
(0.145407 0.0325944 0)
(0.105866 0.032863 0)
(0.0669667 0.032158 0)
(0.0305533 0.0306519 0)
(-0.00390407 0.0282592 0)
(-0.0359711 0.0251663 0)
(-0.0635981 0.0218112 0)
(-0.0871122 0.0183996 0)
(-0.106351 0.0151007 0)
(-0.121771 0.0120973 0)
(-0.133818 0.0094719 0)
(-0.143023 0.00723346 0)
(-0.149855 0.00531732 0)
(-0.154657 0.00361109 0)
(-0.157599 0.00198553 0)
(-0.158697 0.000306825 0)
(-0.157795 -0.00149848 0)
(-0.154696 -0.00347736 0)
(-0.149199 -0.00559776 0)
(-0.141168 -0.00778584 0)
(-0.130591 -0.00993752 0)
(-0.117598 -0.0119362 0)
(-0.102425 -0.0136755 0)
(-0.0853893 -0.0151084 0)
(-0.0670088 -0.0162179 0)
(-0.0478133 -0.0169379 0)
(-0.0283444 -0.0173181 0)
(-0.00882922 -0.0173629 0)
(0.0106267 -0.0170325 0)
(0.0297986 -0.0164652 0)
(0.0476803 -0.0155906 0)
(0.0643541 -0.0142503 0)
(0.0794622 -0.0125061 0)
(0.0918729 -0.0101881 0)
(0.101535 -0.00733955 0)
(0.107536 -0.00395524 0)
(0.10954 -0.000164578 0)
(0.107118 0.00380433 0)
(0.100195 0.00769914 0)
(0.0891669 0.011295 0)
(0.074669 0.0142893 0)
(0.0575152 0.016365 0)
(0.0388193 0.0173189 0)
(0.019964 0.0170624 0)
(0.00203691 0.0155865 0)
(-0.0137091 0.0129366 0)
(-0.025927 0.00940702 0)
(-0.0338306 0.00523787 0)
(-0.0369313 0.000719104 0)
(-0.0350381 -0.00382645 0)
(-0.028338 -0.00817486 0)
(-0.0172591 -0.0121621 0)
(-0.00213345 -0.015647 0)
(0.0164692 -0.0186219 0)
(0.0378372 -0.0209776 0)
(0.0613499 -0.0227946 0)
(0.086473 -0.0241265 0)
(0.112739 -0.0250471 0)
(0.139784 -0.0256053 0)
(0.167232 -0.0258155 0)
(0.19477 -0.0256954 0)
(0.221995 -0.0251507 0)
(0.248433 -0.0241725 0)
(0.273595 -0.0226552 0)
(0.296829 -0.0205407 0)
(0.317474 -0.0177828 0)
(0.334825 -0.0143911 0)
(0.348262 -0.0104061 0)
(0.357158 -0.00588517 0)
(0.361011 -0.000949787 0)
(0.359498 0.00427587 0)
(0.352266 0.00974742 0)
(0.339132 0.0153557 0)
(0.319999 0.0209611 0)
(0.294962 0.026433 0)
(0.264199 0.0316605 0)
(0.228047 0.0364748 0)
(0.187057 0.0407055 0)
(0.141942 0.0441862 0)
(0.0936208 0.0467673 0)
(0.043125 0.048337 0)
(-0.00877785 0.0488538 0)
(-0.0607562 0.0483184 0)
(-0.111378 0.0468384 0)
(-0.159893 0.0445592 0)
(-0.205534 0.0416093 0)
(-0.247708 0.038127 0)
(-0.285924 0.0341865 0)
(-0.31975 0.029847 0)
(-0.348789 0.0250973 0)
(-0.372595 0.0199125 0)
(-0.390692 0.0142654 0)
(-0.402544 0.00817412 0)
(-0.407731 0.00152777 0)
(-0.405576 -0.00542728 0)
(-0.395901 -0.0124928 0)
(-0.378682 -0.0194526 0)
(-0.354181 -0.0259858 0)
(-0.323018 -0.0317554 0)
(-0.286233 -0.0364182 0)
(-0.245155 -0.0396838 0)
(-0.201432 -0.0413322 0)
(-0.156884 -0.0412745 0)
(-0.113351 -0.0395376 0)
(-0.0726025 -0.0362646 0)
(-0.0361581 -0.0317282 0)
(-0.0051822 -0.0262675 0)
(0.0195255 -0.0202861 0)
(0.0376522 -0.0141907 0)
(0.0493222 -0.00833009 0)
(0.0549693 -0.00303342 0)
(0.0553473 0.00150397 0)
(0.0514564 0.00512977 0)
(0.0440438 0.00787039 0)
(0.0344376 0.00963789 0)
(0.02272 0.0105516 0)
(0.0110445 0.00950081 0)
(0.244353 0.0326243 0)
(0.215888 0.0346377 0)
(0.179837 0.0359065 0)
(0.14323 0.0367594 0)
(0.106216 0.0375378 0)
(0.0686105 0.0385176 0)
(0.029787 0.0398661 0)
(-0.0101302 0.041869 0)
(-0.0517137 0.0438136 0)
(-0.0958278 0.0458349 0)
(-0.142014 0.0476643 0)
(-0.189917 0.0490167 0)
(-0.238891 0.0496529 0)
(-0.288069 0.0494194 0)
(-0.336485 0.0482715 0)
(-0.383196 0.0462735 0)
(-0.427397 0.0435775 0)
(-0.468491 0.0403861 0)
(-0.506123 0.0369068 0)
(-0.540153 0.0333072 0)
(-0.570591 0.0296806 0)
(-0.597497 0.0260291 0)
(-0.62088 0.0222664 0)
(-0.640606 0.0182411 0)
(-0.656348 0.0137742 0)
(-0.667584 0.00870394 0)
(-0.673632 0.00293693 0)
(-0.673777 -0.00349987 0)
(-0.66733 -0.0105319 0)
(-0.653771 -0.0179428 0)
(-0.632867 -0.0254371 0)
(-0.60472 -0.0326851 0)
(-0.569781 -0.0393739 0)
(-0.528799 -0.0452574 0)
(-0.482727 -0.0501968 0)
(-0.432593 -0.0541829 0)
(-0.379352 -0.0573377 0)
(-0.323762 -0.0598917 0)
(-0.26628 -0.0621433 0)
(-0.207023 -0.0644064 0)
(-0.145786 -0.0669552 0)
(-0.0820564 -0.0699758 0)
(-0.0155383 -0.0736427 0)
(0.05438 -0.0775628 0)
(0.128362 -0.081445 0)
(0.20629 -0.0852023 0)
(0.28772 -0.0883738 0)
(0.371842 -0.0905004 0)
(0.457409 -0.0911753 0)
(0.542826 -0.0900888 0)
(0.626265 -0.0870584 0)
(0.705797 -0.0820418 0)
(0.77954 -0.075132 0)
(0.845781 -0.0665363 0)
(0.903072 -0.0565449 0)
(0.950296 -0.0454921 0)
(0.986675 -0.0337209 0)
(1.01177 -0.021552 0)
(1.0254 -0.0092654 0)
(1.02766 0.00292338 0)
(1.01885 0.0148304 0)
(0.999301 0.0263596 0)
(0.969506 0.0373821 0)
(0.929993 0.0478219 0)
(0.881366 0.0576062 0)
(0.824288 0.0666597 0)
(0.759483 0.0749014 0)
(0.687739 0.0822455 0)
(0.609925 0.0886014 0)
(0.526978 0.0938798 0)
(0.439909 0.0979972 0)
(0.349793 0.100891 0)
(0.257756 0.10255 0)
(0.164934 0.103086 0)
(0.0739555 0.102291 0)
(-0.0145259 0.0993 0)
(-0.101084 0.0945648 0)
(-0.183192 0.0888281 0)
(-0.25903 0.0818475 0)
(-0.327835 0.0738397 0)
(-0.388809 0.0650843 0)
(-0.441455 0.0559393 0)
(-0.485639 0.0468043 0)
(-0.521606 0.0380843 0)
(-0.549972 0.0301452 0)
(-0.571661 0.0232701 0)
(-0.587809 0.0176217 0)
(-0.599637 0.0132201 0)
(-0.608303 0.00993885 0)
(-0.614772 0.00752333 0)
(-0.619703 0.00562876 0)
(-0.6234 0.00387094 0)
(-0.6258 0.00190355 0)
(-0.626535 -0.000560526 0)
(-0.624986 -0.00368794 0)
(-0.620481 -0.00751208 0)
(-0.61239 -0.011935 0)
(-0.600236 -0.0167625 0)
(-0.583776 -0.0217493 0)
(-0.563012 -0.0266528 0)
(-0.538167 -0.0312841 0)
(-0.5096 -0.0355454 0)
(-0.477708 -0.0394451 0)
(-0.442817 -0.0430868 0)
(-0.405108 -0.046636 0)
(-0.364572 -0.0502692 0)
(-0.321031 -0.0541133 0)
(-0.27421 -0.0581939 0)
(-0.223845 -0.0624011 0)
(-0.169717 -0.0664617 0)
(-0.112021 -0.0700331 0)
(-0.0527433 -0.0728949 0)
(0.00825837 -0.0741403 0)
(0.0707438 -0.0735806 0)
(0.131885 -0.0710276 0)
(0.189864 -0.0664278 0)
(0.242876 -0.0598919 0)
(0.28946 -0.0517591 0)
(0.328429 -0.0424899 0)
(0.359089 -0.0326229 0)
(0.381234 -0.0226889 0)
(0.395119 -0.0131427 0)
(0.401256 -0.00429354 0)
(0.400574 0.00356081 0)
(0.393952 0.0106353 0)
(0.381928 0.0169488 0)
(0.365227 0.0226324 0)
(0.344265 0.0278483 0)
(0.319343 0.0327025 0)
(0.290683 0.0372063 0)
(0.258539 0.0412681 0)
(0.223273 0.0446849 0)
(0.185254 0.0472848 0)
(0.145459 0.0489978 0)
(0.105412 0.0493337 0)
(0.0660533 0.0482056 0)
(0.0292126 0.0458457 0)
(-0.00562749 0.042162 0)
(-0.0379047 0.0374762 0)
(-0.0655805 0.0323644 0)
(-0.0890375 0.0271853 0)
(-0.108128 0.0222052 0)
(-0.123335 0.0176946 0)
(-0.135152 0.0137758 0)
(-0.144149 0.0104542 0)
(-0.150825 0.00762243 0)
(-0.155541 0.00510187 0)
(-0.158464 0.00269033 0)
(-0.159579 0.000177256 0)
(-0.15873 -0.0025426 0)
(-0.15569 -0.00552519 0)
(-0.150207 -0.00872093 0)
(-0.142135 -0.0120098 0)
(-0.131459 -0.0152269 0)
(-0.118312 -0.0181918 0)
(-0.102953 -0.020745 0)
(-0.0857207 -0.0228108 0)
(-0.0671273 -0.0243588 0)
(-0.0477278 -0.0253185 0)
(-0.0280802 -0.0257557 0)
(-0.00838899 -0.0256784 0)
(0.0112072 -0.0250641 0)
(0.0304937 -0.0240596 0)
(0.0485267 -0.022593 0)
(0.0653568 -0.0204573 0)
(0.0806223 -0.0177332 0)
(0.093205 -0.0142143 0)
(0.103018 -0.00997678 0)
(0.109131 -0.00503819 0)
(0.111177 0.000410952 0)
(0.108726 0.00600371 0)
(0.101692 0.0114556 0)
(0.0904595 0.0164262 0)
(0.0756467 0.0204858 0)
(0.0580812 0.0232421 0)
(0.0389133 0.0244291 0)
(0.0195572 0.0239377 0)
(0.00112377 0.0217648 0)
(-0.015069 0.0179884 0)
(-0.0276344 0.0130044 0)
(-0.0357748 0.00715157 0)
(-0.038943 0.000825724 0)
(-0.0370291 -0.00550242 0)
(-0.0302569 -0.0115817 0)
(-0.0190036 -0.0171441 0)
(-0.00366685 -0.0220016 0)
(0.0151759 -0.0261535 0)
(0.0367932 -0.0294481 0)
(0.0605292 -0.0320018 0)
(0.0858507 -0.0338873 0)
(0.112293 -0.0352066 0)
(0.139504 -0.0360285 0)
(0.167118 -0.0363695 0)
(0.194838 -0.0362509 0)
(0.222271 -0.0355275 0)
(0.248947 -0.0341955 0)
(0.27438 -0.0320954 0)
(0.297911 -0.0291496 0)
(0.318858 -0.0252916 0)
(0.336498 -0.0205388 0)
(0.350199 -0.0149477 0)
(0.35932 -0.00860212 0)
(0.363377 -0.00167031 0)
(0.361985 0.00570096 0)
(0.354798 0.0134003 0)
(0.341688 0.0212933 0)
(0.322527 0.0291851 0)
(0.297403 0.036888 0)
(0.26649 0.0442492 0)
(0.23011 0.0510336 0)
(0.188816 0.0569951 0)
(0.143323 0.0618975 0)
(0.0945634 0.0655285 0)
(0.0435958 0.0677271 0)
(-0.00878772 0.0684355 0)
(-0.0612212 0.0676579 0)
(-0.11224 0.0655508 0)
(-0.161089 0.0623236 0)
(-0.207002 0.0581602 0)
(-0.249401 0.0532602 0)
(-0.287812 0.0477316 0)
(-0.321823 0.0416495 0)
(-0.351055 0.0350069 0)
(-0.375069 0.0277538 0)
(-0.393381 0.0198485 0)
(-0.405438 0.0113159 0)
(-0.410801 0.00200044 0)
(-0.408762 -0.00778158 0)
(-0.3991 -0.0177243 0)
(-0.381762 -0.0275295 0)
(-0.356991 -0.0367424 0)
(-0.325403 -0.0448812 0)
(-0.288043 -0.0514604 0)
(-0.246274 -0.0560696 0)
(-0.20179 -0.0583977 0)
(-0.156466 -0.0583173 0)
(-0.112198 -0.0558586 0)
(-0.0708095 -0.0512259 0)
(-0.0338658 -0.0448066 0)
(-0.00256292 -0.0370845 0)
(0.0222906 -0.0286319 0)
(0.0403829 -0.0200256 0)
(0.0518724 -0.0117603 0)
(0.0572291 -0.00430118 0)
(0.0572415 0.00209249 0)
(0.0529796 0.00723868 0)
(0.0452317 0.011102 0)
(0.0355815 0.0135065 0)
(0.0245701 0.0149658 0)
(0.0120765 0.0169834 0)
(0.246061 0.0448819 0)
(0.216502 0.0472551 0)
(0.180201 0.0486644 0)
(0.143497 0.0495707 0)
(0.106527 0.0504396 0)
(0.0690677 0.0516468 0)
(0.0304779 0.0534148 0)
(-0.00928857 0.056003 0)
(-0.0508462 0.0587042 0)
(-0.0949838 0.0615289 0)
(-0.141324 0.0640878 0)
(-0.189505 0.0659784 0)
(-0.238845 0.0668663 0)
(-0.288434 0.0665409 0)
(-0.337254 0.0649462 0)
(-0.384316 0.06218 0)
(-0.428782 0.0584635 0)
(-0.470043 0.0540876 0)
(-0.507752 0.0493479 0)
(-0.541799 0.0444819 0)
(-0.57223 0.0396205 0)
(-0.59915 0.0347641 0)
(-0.622603 0.0297877 0)
(-0.642478 0.024474 0)
(-0.65845 0.0185674 0)
(-0.669978 0.011837 0)
(-0.676334 0.00414276 0)
(-0.676763 -0.00448495 0)
(-0.670534 -0.0139373 0)
(-0.657074 -0.0239115 0)
(-0.636124 -0.0339969 0)
(-0.607782 -0.0437359 0)
(-0.572519 -0.0526942 0)
(-0.531125 -0.0605313 0)
(-0.484608 -0.0670569 0)
(-0.434056 -0.0722618 0)
(-0.380482 -0.0763195 0)
(-0.324681 -0.0795547 0)
(-0.267132 -0.0823864 0)
(-0.207945 -0.0852533 0)
(-0.146884 -0.0885363 0)
(-0.0834049 -0.092489 0)
(-0.0170913 -0.0972777 0)
(0.0527512 -0.102475 0)
(0.126753 -0.107812 0)
(0.204848 -0.11294 0)
(0.286649 -0.117256 0)
(0.371333 -0.120154 0)
(0.457621 -0.12109 0)
(0.543867 -0.119651 0)
(0.628181 -0.115598 0)
(0.708571 -0.10888 0)
(0.783099 -0.0996312 0)
(0.850009 -0.088141 0)
(0.907824 -0.0748075 0)
(0.955417 -0.0600865 0)
(0.992015 -0.0444416 0)
(1.01719 -0.0283031 0)
(1.03079 -0.0120413 0)
(1.03295 0.0040677 0)
(1.02396 0.019751 0)
(1.00419 0.0349177 0)
(0.974132 0.0494001 0)
(0.934325 0.0631019 0)
(0.885375 0.0759312 0)
(0.82794 0.0877919 0)
(0.762742 0.0985803 0)
(0.690569 0.108186 0)
(0.61229 0.116492 0)
(0.528843 0.123385 0)
(0.441242 0.128757 0)
(0.350575 0.132516 0)
(0.257989 0.134603 0)
(0.164612 0.135025 0)
(0.0729006 0.133742 0)
(-0.0164109 0.129925 0)
(-0.10358 0.123814 0)
(-0.186187 0.116225 0)
(-0.262514 0.106994 0)
(-0.331697 0.0964038 0)
(-0.392906 0.0848315 0)
(-0.445616 0.0727534 0)
(-0.489685 0.0607018 0)
(-0.525366 0.0492164 0)
(-0.5533 0.0387854 0)
(-0.574459 0.0297857 0)
(-0.590039 0.0224334 0)
(-0.601325 0.016753 0)
(-0.609538 0.0125719 0)
(-0.61569 0.00954581 0)
(-0.62047 0.00720938 0)
(-0.624182 0.00504455 0)
(-0.626736 0.00258597 0)
(-0.627724 -0.000551448 0)
(-0.626474 -0.0045806 0)
(-0.622248 -0.0095507 0)
(-0.614367 -0.0153194 0)
(-0.602321 -0.0216206 0)
(-0.585856 -0.0281199 0)
(-0.564991 -0.0344885 0)
(-0.539978 -0.0404724 0)
(-0.511226 -0.0459416 0)
(-0.479174 -0.0509113 0)
(-0.444189 -0.0555264 0)
(-0.406465 -0.0600159 0)
(-0.365986 -0.0646241 0)
(-0.322538 -0.0695291 0)
(-0.275795 -0.0747726 0)
(-0.225426 -0.0802137 0)
(-0.171165 -0.085505 0)
(-0.113195 -0.0902084 0)
(-0.0534027 -0.0938951 0)
(0.00833688 -0.0955393 0)
(0.0716436 -0.0948656 0)
(0.133659 -0.0915685 0)
(0.19249 -0.085597 0)
(0.246248 -0.0771064 0)
(0.293396 -0.0665433 0)
(0.332702 -0.0545197 0)
(0.363462 -0.0417452 0)
(0.38549 -0.028918 0)
(0.399088 -0.0166297 0)
(0.404828 -0.00528156 0)
(0.403731 0.00479293 0)
(0.396723 0.0137386 0)
(0.384371 0.021731 0)
(0.367416 0.0289149 0)
(0.346262 0.0355124 0)
(0.321178 0.0416695 0)
(0.292342 0.0474069 0)
(0.259961 0.0526068 0)
(0.224372 0.057018 0)
(0.185965 0.0603637 0)
(0.145679 0.0624903 0)
(0.10503 0.0629184 0)
(0.0650928 0.0614744 0)
(0.0277181 0.0584254 0)
(-0.00760068 0.0536757 0)
(-0.0401629 0.0476896 0)
(-0.0679221 0.0411134 0)
(-0.0913215 0.0344626 0)
(-0.110239 0.0280906 0)
(-0.12519 0.0223425 0)
(-0.136725 0.0173779 0)
(-0.145466 0.0132002 0)
(-0.151951 0.00966563 0)
(-0.156559 0.00653787 0)
(-0.15946 0.00355024 0)
(-0.160634 0.000437016 0)
(-0.159873 -0.00296386 0)
(-0.156908 -0.00671539 0)
(-0.151475 -0.0107534 0)
(-0.143396 -0.0149249 0)
(-0.132639 -0.0190168 0)
(-0.119343 -0.0227973 0)
(-0.103785 -0.0260608 0)
(-0.0863367 -0.0286918 0)
(-0.06752 -0.0306606 0)
(-0.0479027 -0.0319115 0)
(-0.0280566 -0.0325065 0)
(-0.00817248 -0.032468 0)
(0.0115896 -0.031805 0)
(0.0310304 -0.0306451 0)
(0.0492727 -0.0289182 0)
(0.0663517 -0.0263657 0)
(0.0819045 -0.0230379 0)
(0.0948151 -0.0186735 0)
(0.104947 -0.0133297 0)
(0.111356 -0.00701872 0)
(0.113587 2.44564e-05 0)
(0.111155 0.0073418 0)
(0.103995 0.0145521 0)
(0.0924725 0.021181 0)
(0.0771768 0.0266298 0)
(0.0589753 0.0303713 0)
(0.0390832 0.0320359 0)
(0.018978 0.031469 0)
(-0.000184343 0.0286544 0)
(-0.0169985 0.0237156 0)
(-0.0300157 0.0171594 0)
(-0.0384361 0.00947107 0)
(-0.0417294 0.00118951 0)
(-0.0397602 -0.00713815 0)
(-0.0327855 -0.0150879 0)
(-0.0212506 -0.0223252 0)
(-0.00559864 -0.0286056 0)
(0.0135869 -0.0339417 0)