/*--------------------------------*- C++ -*----------------------------------*\
| =========                 |                                                 |
| \\      /  F ield         | OpenFOAM: The Open Source CFD Toolbox           |
|  \\    /   O peration     | Version:  v1912                                 |
|   \\  /    A nd           | Website:  www.openfoam.com                      |
|    \\/     M anipulation  |                                                 |
\*---------------------------------------------------------------------------*/
FoamFile
{
    version     2.0;
    format      ascii;
    class       volScalarField;
    location    "20";
    object      alpha.water;
}
// * * * * * * * * * * * * * * * * * * * * * * * * * * * * * * * * * * * * * //

dimensions      [0 0 0 0 0 0 0];


internalField   nonuniform List<scalar> 
14268
(
1
1
1
1
1
1
1
1
1
1
1
1
1
1
1
1
1
1
1
1
1
1
1
1
1
1
1
1
1
1
1
1
1
1
1
1
1
1
1
1
1
1
1
1
1
1
1
1
1
1
1
1
1
1
1
1
1
1
1
1
1
1
1
1
1
1
1
1
1
1
1
1
1
1
1
1
1
1
1
1
1
1
1
1
1
1
1
1
1
1
1
1
1
1
1
1
1
1
1
1
1
1
1
1
1
1
1
1
1
1
1
1
1
1
1
1
1
1
1
1
1
1
1
1
1
1
1
1
1
1
1
1
1
1
1
1
1
1
1
1
1
1
1
1
1
1
1
1
1
1
1
1
1
1
1
1
1
1
1
1
1
1
1
1
1
1
1
1
1
1
1
1
1
1
1
1
1
1
1
1
1
1
1
1
1
1
1
1
1
1
1
1
1
1
1
1
1
1
1
1
1
1
1
1
1
1
1
1
1
1
1
1
1
1
1
1
1
1
1
1
1
1
1
1
1
1
1
1
1
1
1
1
1
1
1
1
1
1
1
1
1
1
1
1
1
1
1
1
1
1
1
1
1
1
1
1
1
1
1
1
1
1
1
1
1
1
1
1
1
1
1
1
1
1
1
1
1
1
1
1
1
1
1
1
1
1
1
1
1
1
1
1
1
1
1
1
1
1
1
1
1
1
1
1
1
1
1
1
1
1
1
1
1
1
1
1
1
1
1
1
1
1
1
1
1
1
1
1
1
1
1
1
1
1
1
1
1
1
1
1
1
1
1
1
1
1
1
1
1
1
1
1
1
1
1
1
1
1
1
1
1
1
1
1
1
1
1
1
1
1
1
1
1
1
1
1
1
1
1
1
1
1
1
1
1
1
1
1
1
1
1
1
1
1
1
1
1
1
1
1
1
1
1
1
1
1
1
1
1
1
1
1
1
1
1
1
1
1
1
1
1
1
1
1
1
1
1
1
1
1
1
1
1
1
1
1
1
1
1
1
1
1
1
1
1
1
1
1
1
1
1
1
1
1
1
1
1
1
1
1
1
1
1
1
1
1
1
1
1
1
1
1
1
1
1
1
1
1
1
1
1
1
1
1
1
1
1
1
1
1
1
1
1
1
1
1
1
1
1
1
1
1
1
1
1
1
1
1
1
1
1
1
1
1
1
1
1
1
1
1
1
1
1
1
1
1
1
1
1
1
1
1
1
1
1
1
1
1
1
1
1
1
1
1
1
1
1
1
1
1
1
1
1
1
1
1
1
1
1
1
1
1
1
1
1
1
1
1
1
1
1
1
1
1
1
1
1
1
1
1
1
1
1
1
1
1
1
1
1
1
1
1
1
1
1
1
1
1
1
1
1
1
1
1
1
1
1
1
1
1
1
1
1
1
1
1
1
1
1
1
1
1
1
1
1
1
1
1
1
1
1
1
1
1
1
1
1
1
1
1
1
1
1
1
1
1
1
1
1
1
1
1
1
1
1
1
1
1
1
1
1
1
1
1
1
1
1
1
1
1
1
1
1
1
1
1
1
1
1
1
1
1
1
1
1
1
1
1
1
1
1
1
1
1
1
1
1
1
1
1
1
1
1
1
1
1
1
1
1
1
1
1
1
1
1
1
1
1
1
1
1
1
1
1
1
1
1
1
1
1
1
1
1
1
1
1
1
1
1
1
1
1
1
1
1
1
1
1
1
1
1
1
1
1
1
1
1
1
1
1
1
1
1
1
1
1
1
1
1
1
1
1
1
1
1
1
1
1
1
1
1
1
1
1
1
1
1
1
1
1
1
1
1
1
1
1
1
1
1
1
1
1
1
1
1
1
1
1
1
1
1
1
1
1
1
1
1
1
1
1
1
1
1
1
1
1
1
1
1
1
1
1
1
1
1
1
1
1
1
1
1
1
1
1
1
1
1
1
1
1
1
1
1
1
1
1
1
1
1
1
1
1
1
1
1
1
1
1
1
1
1
1
1
1
1
1
1
1
1
1
1
1
1
1
1
1
1
1
1
1
1
1
1
1
1
1
1
1
1
1
1
1
1
1
1
1
1
1
1
1
1
1
1
1
1
1
1
1
1
1
1
1
1
1
1
1
1
1
1
1
1
1
1
1
1
1
1
1
1
1
1
1
1
1
1
1
1
1
1
1
1
1
1
1
1
1
1
1
1
1
1
1
1
1
1
1
1
1
1
1
1
1
1
1
1
1
1
1
1
1
1
1
1
1
1
1
1
1
1
1
1
1
1
1
1
1
1
1
1
1
1
1
1
1
1
1
1
1
1
1
1
1
1
1
1
1
1
1
1
1
1
1
1
1
1
1
1
1
1
1
1
1
1
1
1
1
1
1
1
1
1
1
1
1
1
1
1
1
1
1
1
1
1
1
1
1
1
1
1
1
1
1
1
1
1
1
1
1
1
1
1
1
1
1
1
1
1
1
1
1
1
1
1
1
1
1
1
1
1
1
1
1
1
1
1
1
1
1
1
1
1
1
1
1
1
1
1
1
1
1
1
1
1
1
1
1
1
1
1
1
1
1
1
1
1
1
1
1
1
1
1
1
1
1
1
1
1
1
1
1
1
1
1
1
1
1
1
1
1
1
1
1
1
1
1
1
1
1
1
1
1
1
1
1
1
1
1
1
1
1
1
1
1
1
1
1
1
1
1
1
1
1
1
1
1
1
1
1
1
1
1
1
1
1
1
1
1
1
1
1
1
1
1
1
1
1
1
1
1
1
1
1
1
1
1
1
1
1
1
1
1
1
1
1
1
1
1
1
1
1
1
1
1
1
1
1
1
1
1
1
1
1
1
1
1
1
1
1
1
1
1
1
1
1
1
1
1
1
1
1
1
1
1
1
1
1
1
1
1
1
1
1
1
1
1
1
1
1
1
1
1
1
1
1
1
1
1
1
1
1
1
1
1
1
1
1
1
1
1
1
1
1
1
1
1
1
1
1
1
1
1
1
1
1
1
1
1
1
1
1
1
1
1
1
1
1
1
1
1
1
1
1
1
1
1
1
1
1
1
1
1
1
1
1
1
1
1
1
1
1
1
1
1
1
1
1
1
1
1
1
1
1
1
1
1
1
1
1
1
1
1
1
1
1
1
1
1
1
1
1
1
1
1
1
1
1
1
1
1
1
1
1
1
1
1
1
1
1
1
1
1
1
1
1
1
1
1
1
1
1
1
1
1
1
1
1
1
1
1
1
1
1
1
1
1
1
1
1
1
1
1
1
1
1
1
1
1
1
1
1
1
1
1
1
1
1
1
1
1
1
1
1
1
1
1
1
1
1
1
1
1
1
0.885807
0.923598
0.985573
1
1
1
1
1
1
1
1
1
1
1
1
1
1
1
1
1
1
1
1
1
1
1
1
1
1
1
1
1
1
1
1
1
1
1
1
1
1
1
1
1
1
1
1
1
1
1
1
1
1
1
1
1
1
1
1
1
1
1
1
1
1
1
1
1
1
1
1
1
1
1
1
1
1
1
1
1
1
1
1
1
1
1
0.23082
0.31944
0.584454
0.887108
0.999644
1
1
1
1
1
1
1
1
1
1
1
1
1
1
1
1
1
1
1
1
1
1
1
1
1
1
1
1
1
1
1
1
1
1
1
1
1
1
1
1
1
1
1
1
1
1
1
1
1
1
1
1
1
1
1
1
1
1
1
1
1
1
1
1
1
1
1
1
1
1
1
1
1
1
1
1
1
1
1
1
1
0.0157822
0.0272591
0.0872409
0.332724
0.77691
0.989636
1
1
1
1
1
1
1
1
1
1
1
1
1
1
1
1
1
1
1
1
1
1
1
1
1
1
1
1
1
1
1
1
1
1
1
1
1
1
1
1
1
1
1
1
1
1
1
1
1
1
1
1
1
1
1
1
1
1
1
1
1
1
1
1
1
1
1
1
1
1
1
1
1
1
1
1
1
1
1
1
0.000515752
0.00087656
0.00333794
0.0251978
0.181019
0.663516
0.963799
1
1
1
1
1
1
1
1
1
1
1
1
1
1
1
1
1
1
1
1
1
1
1
1
1
1
1
1
1
1
1
1
1
1
1
1
1
1
1
1
1
1
1
1
1
1
1
1
1
1
1
1
1
1
1
1
1
1
1
1
1
1
1
1
1
1
1
1
1
1
1
1
1
1
1
1
1
1
1
2.62981e-05
3.68089e-05
0.000122009
0.000838918
0.00904792
0.0981962
0.519751
0.903926
0.99995
1
1
1
1
1
1
1
1
1
1
1
1
1
1
1
1
1
1
1
1
1
1
1
1
1
1
1
1
1
0.999999
0.999998
0.999992
0.999971
0.999905
0.999743
0.99945
0.999118
0.998992
0.9993
0.999834
1
1
1
1
1
1
1
1
1
1
1
1
1
1
1
1
1
1
1
1
1
1
1
1
1
1
1
1
1
1
1
1
1
1
1
1
1
1.04017e-06
1.6876e-06
4.08973e-06
2.24559e-05
0.000227779
0.00316731
0.0443946
0.334141
0.777984
0.965804
1
1
1
1
1
1
1
1
1
1
1
1
1
1
1
1
1
1
1
1
1
1
1
1
1
0.999999
0.999998
0.999994
0.999978
0.999917
0.999675
0.998716
0.994972
0.981537
0.94538
0.880037
0.805835
0.765955
0.776375
0.820096
0.876222
0.934228
0.979558
0.99963
1
1
1
1
1
1
1
1
1
1
1
1
1
1
1
1
1
1
1
1
1
1
1
1
1
1
1
1
1
1
1
1
4.83085e-08
8.62065e-08
1.87402e-07
8.22497e-07
6.67431e-06
8.41015e-05
0.00119144
0.0159983
0.14035
0.523414
0.853112
0.981418
1
1
1
1
1
1
1
1
1
1
1
1
1
1
1
1
1
1
0.999999
0.999999
0.999998
0.999996
0.999992
0.999984
0.999958
0.999874
0.999574
0.998379
0.99296
0.965253
0.855761
0.621432
0.400996
0.243271
0.163705
0.138101
0.149669
0.200779
0.299287
0.437681
0.604016
0.769227
0.882017
0.956427
0.99456
1
1
1
1
1
1
1
1
1
1
1
1
1
1
1
1
1
1
1
1
1
1
1
1
1
1
1
1
1
2.23171e-09
4.32931e-09
9.54609e-09
3.80956e-08
2.71852e-07
2.8769e-06
3.67203e-05
0.000445442
0.0044667
0.0389329
0.231454
0.603972
0.888953
0.997573
1
1
1
1
1
1
1
1
1
1
1
1
1
1
0.999999
0.999996
0.999988
0.999977
0.999962
0.999936
0.999883
0.999749
0.999357
0.998034
0.992547
0.963833
0.82763
0.524364
0.240952
0.0922232
0.0234796
0.00374957
0.00375314
0.00425157
0.0048702
0.00691807
0.0122276
0.0256816
0.060182
0.144997
0.312566
0.508619
0.700132
0.840098
0.92478
0.97661
0.998382
1
1
1
1
1
1
1
1
1
1
1
1
1
1
1
1
1
1
1
1
1
1
1
1
1
1.07703e-10
2.13872e-10
4.97984e-10
1.9594e-09
1.35441e-08
1.32739e-07
1.49482e-06
1.63831e-05
0.000151662
0.00115321
0.00802965
0.056226
0.312939
0.729783
0.963488
1
1
1
1
1
1
1
1
1
1
1
1
0.999998
0.999985
0.999935
0.999827
0.999668
0.999452
0.9991
0.998343
0.996292
0.989231
0.958841
0.825406
0.51883
0.21424
0.0576823
0.00106443
0.000101578
0.000111719
0.000122829
0.000137225
0.000154078
0.000178982
0.000256611
0.000440657
0.000874201
0.0019813
0.00498414
0.0135301
0.0375198
0.0992093
0.235733
0.413225
0.589836
0.743629
0.846747
0.913483
0.958471
0.985238
0.997312
0.999352
0.999303
0.99926
0.999225
0.999195
0.999169
0.999146
0.999126
0.999107
0.999079
0.999013
0.998904
0.998745
0.998522
0.99822
0.997814
0.997274
0.996559
0.995618
0.994392
7.35878e-12
1.40348e-11
3.36432e-11
1.19794e-10
7.49242e-10
7.07057e-09
7.55196e-08
7.57601e-07
6.33162e-06
4.47638e-05
0.000275413
0.00164147
0.0123129
0.111356
0.538339
0.913765
1
1
1
1
1
1
1
1
1
1
0.999997
0.99997
0.999771
0.998957
0.997113
0.994373
0.9905
0.983412
0.966157
0.915413
0.7592
0.491421
0.212407
0.0555463
8.49882e-05
3.52355e-06
3.58612e-06
3.61693e-06
3.90901e-06
4.44369e-06
5.09236e-06
5.82551e-06
6.9042e-06
1.00412e-05
1.74237e-05
3.49917e-05
8.09727e-05
0.000205642
0.000529641
0.00134564
0.00345427
0.00900291
0.0232131
0.0565469
0.126499
0.248521
0.386117
0.518661
0.638063
0.736671
0.808593
0.85604
0.891135
0.917036
0.935761
0.948828
0.95733
0.962019
0.963336
0.961925
0.958617
0.95326
0.945443
0.934584
0.919917
0.900514
0.87534
0.843404
0.803965
0.759375
5.93147e-13
1.25056e-12
3.24002e-12
1.11698e-11
5.46495e-11
4.04715e-10
3.97231e-09
3.85498e-08
3.02524e-07
1.95263e-06
1.096e-05
5.93412e-05
0.000373873
0.00322071
0.0440977
0.396823
0.873661
1
1
1
1
1
1
1
0.999999
0.999997
0.999966
0.999595
0.996361
0.978296
0.929188
0.856538
0.769338
0.666068
0.52634
0.342088
0.164062
0.0467493
6.79979e-05
1.10641e-07
1.16817e-07
1.34695e-07
1.52702e-07
1.56223e-07
1.59591e-07
1.69901e-07
1.92337e-07
2.24041e-07
2.69902e-07
3.93689e-07
6.89823e-07
1.41067e-06
3.32791e-06
8.64473e-06
2.2811e-05
5.88917e-05
0.000152093
0.000381832
0.000903371
0.00205305
0.00454642
0.00982187
0.0204729
0.04019
0.0732429
0.123388
0.191414
0.266446
0.33362
0.390093
0.434787
0.467563
0.488897
0.4996
0.500565
0.492362
0.475226
0.45027
0.418667
0.381805
0.341291
0.29898
0.256934
0.217353
0.182788
0.153585
4.60336e-14
1.09572e-13
3.06529e-13
1.12706e-12
5.50774e-12
3.14753e-11
2.15547e-10
1.86912e-09
1.42617e-08
8.80866e-08
4.60385e-07
2.30127e-06
1.30909e-05
0.000101399
0.00122979
0.0252764
0.317722
0.858422
1
0.999999
0.999999
0.999999
0.999999
0.999998
0.999995
0.999967
0.99961
0.994221
0.920321
0.619529
0.372097
0.237284
0.165862
0.111182
0.0565484
0.0118891
3.32121e-09
3.69107e-09
3.87743e-09
3.86566e-09
4.13452e-09
5.10741e-09
5.2154e-09
4.71787e-09
4.30935e-09
4.47283e-09
5.03958e-09
5.93015e-09
7.20715e-09
1.05612e-08
1.86605e-08
3.86463e-08
9.25845e-08
2.43156e-07
6.55893e-07
1.77028e-06
4.83641e-06
1.29713e-05
3.28366e-05
7.89746e-05
0.000180508
0.000388962
0.000794482
0.00153894
0.0028247
0.00493129
0.00819547
0.0128906
0.0190204
0.0262125
0.0337134
0.0405293
0.0456677
0.0484036
0.0484764
0.0459061
0.0408526
0.0340272
0.0262376
0.0183424
0.0111652
0.00541876
0.00163116
5.52293e-05
-1.15421e-21
9.00254e-18
3.04091e-15
8.14989e-15
2.44529e-14
9.6089e-14
5.07299e-13
3.00177e-12
1.63062e-11
9.4849e-11
6.08725e-10
3.62637e-09
1.86964e-08
9.08424e-08
4.96556e-07
3.42903e-06
3.7958e-05
0.000771815
0.0212633
0.295596
0.870599
0.999995
0.999994
0.999992
0.999989
0.999984
0.999957
0.999692
0.99553
0.892854
0.369961
0.0907103
0.016306
0.000652245
1.60927e-10
1.91381e-10
2.11698e-10
2.12123e-10
2.36649e-10
2.69519e-10
2.92286e-10
2.61445e-10
2.47616e-10
2.01992e-10
9.0518e-11
9.53142e-12
3.01971e-23
5.55403e-25
1.99974e-25
2.03063e-23
3.4506e-24
-1.21684e-44
-3.40958e-27
-9.9979e-28
7.04133e-23
2.57551e-25
-1.66178e-45
3.46565e-22
1.43691e-42
-4.83258e-26
-8.05717e-28
6.59456e-21
1.69433e-19
9.98382e-41
-1.50466e-26
-5.32904e-26
-5.43295e-27
1.34181e-41
3.3824e-20
-1.59963e-28
-1.31026e-41
6.45237e-20
-3.08839e-28
1.743e-18
6.44377e-20
1.89081e-41
-1.32708e-26
-1.42868e-26
-2.08592e-26
-1.56886e-27
6.0982e-22
8.00967e-19
2.30832e-22
1.42241e-19
2.46782e-20
1.5456e-22
-5.43848e-24
-2.55136e-38
1.43531e-16
4.21158e-16
1.32594e-15
5.5069e-15
3.21875e-14
2.11433e-13
1.16808e-12
6.14042e-12
2.78907e-11
1.28473e-10
6.14545e-10
3.05884e-09
1.72739e-08
1.23141e-07
1.25973e-06
2.354e-05
0.00085107
0.0225404
0.322242
0.896398
0.999951
0.999938
0.999915
0.99988
0.999656
0.997146
0.936385
0.342505
0.0178659
6.01448e-11
5.0805e-11
4.63422e-11
4.85841e-11
5.14037e-11
2.70634e-11
4.23063e-12
2.81226e-24
1.09076e-24
7.30703e-25
4.44369e-25
2.74752e-25
7.37515e-25
2.96678e-25
1.09746e-26
4.08386e-33
1.16208e-41
-8.7157e-26
7.63121e-44
-7.4725e-26
-1.90811e-26
-6.00831e-27
-1.00895e-27
-2.19577e-28
-5.40349e-28
-3.34109e-28
-1.43774e-27
-1.74274e-26
-4.90865e-26
-5.48338e-28
-2.19675e-29
-2.30099e-28
-3.61706e-27
-2.3598e-26
-8.08383e-26
-1.46244e-26
-1.1699e-29
-1.76491e-28
-1.94664e-27
-1.40537e-26
-5.0492e-26
-1.21974e-26
-2.23403e-27
-1.2644e-26
-3.38877e-25
-8.47877e-25
-2.58572e-25
-3.03063e-25
-4.04652e-25
1.00907e-37
1.11507e-35
4.60776e-39
1.27855e-36
-2.98775e-40
2.1483e-42
-3.13877e-26
-1.02859e-27
3.57213e-18
1.19527e-17
3.92797e-17
1.68145e-16
1.15282e-15
9.01867e-15
5.4266e-14
3.13526e-13
1.45316e-12
5.38914e-12
1.93049e-11
8.47511e-11
4.77876e-10
3.48111e-09
3.92285e-08
6.95207e-07
2.23076e-05
0.00131498
0.0252626
0.37674
0.918379
0.99947
0.999317
0.999034
0.99707
0.96808
0.491603
0.0246504
2.4548e-11
2.45462e-11
2.69231e-11
2.54715e-11
1.98482e-11
3.62857e-12
2.21507e-31
1.56648e-35
3.67739e-38
2.22243e-40
1.41255e-40
7.85756e-41
8.58696e-41
3.34174e-42
7.15466e-41
4.5901e-42
-6.82694e-28
-8.57378e-27
-5.47968e-26
-1.35773e-25
-6.84616e-26
-1.56059e-26
-3.47536e-27
-5.15508e-28
-2.19762e-28
-5.63176e-28
-2.13372e-28
-1.76351e-27
-1.15404e-26
-3.44971e-26
-4.52019e-28
-2.57894e-29
-2.45764e-28
-1.96058e-27
-1.17352e-26
-4.20979e-26
-1.93803e-26
-2.41196e-29
-4.27742e-28
-5.67498e-27
-5.09053e-26
-2.38708e-25
-8.78183e-26
-2.54606e-26
-3.90117e-26
-1.82073e-25
-4.46146e-25
-1.37934e-25
-1.53286e-25
-1.90205e-25
-6.01267e-27
-1.90633e-29
-1.42584e-27
-5.97105e-26
-1.76663e-27
-1.65868e-26
-3.23787e-28
-2.38757e-28
1.47492e-20
6.03074e-20
1.92689e-19
7.57549e-19
1.1669e-17
1.50434e-16
1.25541e-15
9.38308e-15
4.74628e-14
1.84008e-13
6.79963e-13
2.96896e-12
1.34073e-11
7.58506e-11
8.18939e-10
1.58279e-08
4.78405e-07
2.30297e-05
0.00178946
0.0296854
0.422149
0.915884
0.993206
0.991023
0.968407
0.662894
0.0809156
1.1132e-11
1.61679e-11
2.54188e-11
1.619e-11
7.98596e-12
2.03193e-12
-1.20802e-32
-1.14976e-30
-6.48216e-30
-3.19049e-29
-6.63858e-29
-1.05542e-28
-2.55973e-28
-3.16584e-28
-1.84165e-28
-7.99032e-29
-6.0849e-29
-6.18027e-28
-4.78881e-27
-2.08459e-26
-4.89422e-26
-2.20322e-26
-4.73186e-27
-1.07224e-27
-1.58195e-28
-7.05321e-29
-1.90404e-28
-8.26084e-29
-7.4845e-28
-5.13063e-27
-1.60706e-26
-2.22556e-28
-8.36388e-30
-7.26581e-29
-5.5788e-28
-3.29333e-27
-1.25938e-26
-8.12076e-27
-1.06772e-29
-1.97268e-28
-2.73044e-27
-2.56028e-26
-1.25858e-25
-4.94773e-26
-1.2296e-26
-1.29798e-26
-4.68431e-26
-1.14594e-25
-3.58241e-26
-3.78123e-26
-4.36958e-26
-1.93915e-27
-3.10474e-30
-2.46707e-28
-1.10371e-26
-2.30651e-28
-4.97383e-28
-4.23705e-30
-3.50143e-29
2.61599e-36
3.37752e-36
9.18616e-38
7.59762e-32
5.26468e-29
1.62433e-19
1.52281e-17
1.48212e-16
7.38421e-16
2.47863e-15
1.09787e-14
1.20996e-13
6.40509e-13
2.50873e-12
1.50572e-11
2.29711e-10
7.10843e-09
2.99631e-07
1.81233e-05
0.00142195
0.0309866
0.394071
0.820687
0.867508
0.662864
0.160213
1.60477e-12
7.77642e-12
2.0429e-11
1.39605e-11
2.66237e-12
7.09354e-14
1.50547e-28
-1.87199e-30
-5.85212e-30
-2.94615e-29
-1.3195e-28
-2.49781e-28
-3.52397e-28
-7.17455e-28
-7.60842e-28
-3.9229e-28
-1.43728e-28
-6.96175e-29
-2.97278e-28
-1.63544e-27
-5.92898e-27
-1.29632e-26
-5.50396e-27
-1.14734e-27
-2.5791e-28
-3.76958e-29
-1.61792e-29
-4.51358e-29
-2.3067e-29
-2.25956e-28
-1.61644e-27
-5.28635e-27
-8.0573e-29
-1.84723e-30
-1.36665e-29
-1.04444e-28
-6.21068e-28
-2.51706e-27
-1.90842e-27
-2.65943e-30
-5.1061e-29
-7.34648e-28
-7.16411e-27
-3.66344e-26
-1.43773e-26
-3.0051e-27
-2.40845e-27
-7.79968e-27
-1.90414e-26
-6.03122e-27
-6.06021e-27
-6.52301e-27
-3.14133e-28
-2.49164e-31
-2.10478e-29
-1.00303e-27
-1.54024e-29
-9.31994e-30
-5.83174e-32
-4.00246e-30
-1.6659e-33
-9.82014e-33
-2.43558e-32
-1.15983e-32
9.27492e-30
2.18419e-26
2.1661e-23
1.96478e-20
9.0789e-18
7.53718e-17
3.27855e-16
5.50984e-15
3.06691e-14
1.08854e-13
4.99831e-13
3.62592e-12
7.15179e-11
2.78902e-09
1.53826e-07
1.05255e-05
0.00061253
0.0200855
0.176982
0.281165
0.149222
0.00789228
5.06927e-13
9.81486e-12
1.38791e-11
1.70496e-12
3.97866e-31
-3.5594e-34
-1.81104e-29
-1.14477e-29
-1.52366e-29
-6.61553e-29
-2.69284e-28
-4.64534e-28
-5.83148e-28
-1.00314e-27
-9.17656e-28
-4.1982e-28
-1.31145e-28
-4.40102e-29
-1.0107e-28
-4.26188e-28
-1.33451e-27
-2.70941e-27
-1.08977e-27
-2.20738e-28
-4.82656e-29
-6.87713e-30
-2.77929e-30
-7.9761e-30
-4.96165e-30
-5.23574e-29
-3.88348e-28
-1.31616e-27
-2.13771e-29
-3.36058e-31
-1.8721e-30
-1.44197e-29
-8.69291e-29
-3.68813e-28
-3.04898e-28
-4.88924e-31
-9.68913e-30
-1.43934e-28
-1.44963e-27
-7.64744e-27
-2.83316e-27
-4.85268e-28
-3.10706e-28
-9.46979e-28
-2.29996e-27
-7.40056e-28
-7.09601e-28
-7.1144e-28
-3.4024e-29
-1.32028e-32
-1.18296e-30
-5.97703e-29
-6.95879e-31
-1.32232e-31
-1.45439e-33
-3.89441e-31
-1.3814e-33
-5.23964e-33
-1.05169e-32
-5.5198e-33
9.13994e-31
3.03166e-27
2.53541e-24
1.50926e-21
9.9721e-19
9.56123e-18
4.6243e-17
2.71198e-16
1.19126e-15
1.61045e-15
1.88027e-16
9.6062e-21
9.49954e-23
1.09752e-12
6.61104e-10
1.002e-07
9.94979e-06
0.000396483
0.00419876
0.00760266
0.00122156
1.13184e-15
1.76727e-13
8.79543e-12
2.78434e-12
3.93315e-16
1.7272e-32
-3.82692e-28
-1.05994e-28
-2.93769e-29
-2.65444e-29
-9.81097e-29
-3.62238e-28
-5.7026e-28
-6.38416e-28
-9.33719e-28
-7.41211e-28
-3.01278e-28
-8.10207e-29
-2.02098e-29
-2.71587e-29
-9.0617e-29
-2.46604e-28
-4.63379e-28
-1.77375e-28
-3.50998e-29
-7.33105e-30
-1.00981e-30
-3.74554e-31
-1.10088e-30
-8.59878e-31
-9.70796e-30
-7.45905e-29
-2.61777e-28
-4.69618e-30
-5.76837e-32
-1.97099e-31
-1.54528e-30
-9.50997e-30
-4.20471e-29
-3.6484e-29
-7.22571e-32
-1.47809e-30
-2.26485e-29
-2.35098e-28
-1.27498e-27
-4.27744e-28
-5.80431e-29
-3.06152e-29
-8.93878e-29
-2.15314e-28
-7.05477e-29
-6.47211e-29
-6.04581e-29
-2.76654e-30
-5.19383e-34
-4.92562e-32
-2.62798e-30
-2.38643e-32
-1.52148e-33
-8.84602e-35
-3.33179e-32
-6.76672e-34
-2.09531e-33
-4.52079e-33
-3.1557e-33
1.1454e-31
3.13422e-28
1.78531e-25
1.46754e-23
2.92827e-20
3.49598e-19
4.32494e-18
3.33998e-17
2.12681e-16
3.70441e-16
4.42311e-17
3.13045e-21
2.8638e-43
-6.1153e-26
-5.15975e-26
3.38634e-27
3.40293e-27
4.47613e-22
2.09323e-22
1.6454e-22
1.40086e-22
3.73108e-17
1.06538e-13
3.62873e-12
1.80874e-16
-2.10285e-35
-1.45005e-27
-6.75461e-28
-1.82504e-28
-4.90854e-29
-3.4567e-29
-1.08175e-28
-3.61565e-28
-5.20097e-28
-5.20521e-28
-6.51212e-28
-4.51297e-28
-1.63331e-28
-3.81612e-29
-7.46388e-30
-6.1197e-30
-1.62708e-29
-3.85688e-29
-6.70164e-29
-2.45072e-29
-4.75679e-30
-9.32608e-31
-1.22482e-31
-4.10572e-32
-1.23258e-31
-1.25544e-31
-1.50694e-30
-1.19419e-29
-4.31941e-29
-8.37995e-31
-9.44647e-33
-1.68393e-32
-1.3453e-31
-8.46916e-31
-3.87864e-30
-3.45671e-30
-9.05476e-33
-1.90827e-31
-3.01114e-30
-3.21638e-29
-1.79005e-28
-5.31169e-29
-5.51098e-30
-2.42777e-30
-6.83189e-30
-1.62721e-29
-5.43967e-30
-4.78751e-30
-4.16914e-30
-1.79739e-31
-1.61695e-35
-1.62e-33
-9.09557e-32
-6.61248e-34
-1.48493e-35
-6.59734e-36
-2.55201e-33
-2.64864e-34
-7.87538e-34
-1.99905e-33
-2.17347e-33
8.53262e-33
3.02148e-29
1.35088e-26
6.70337e-25
6.05955e-22
1.16676e-20
1.34858e-19
1.43287e-18
1.17336e-17
2.29598e-17
1.90708e-18
1.7686e-22
-7.33102e-44
-5.04933e-26
-8.8636e-26
0
1.77441e-22
7.25604e-22
6.72823e-22
2.40041e-22
4.1044e-20
1.13434e-16
1.81448e-14
1.93399e-13
6.30921e-36
-2.41876e-27
-2.09119e-27
-8.40707e-28
-2.29186e-28
-6.16195e-29
-3.59056e-29
-9.46625e-29
-2.85827e-28
-3.76107e-28
-3.37336e-28
-3.63097e-28
-2.20931e-28
-7.13502e-29
-1.4605e-29
-2.33152e-30
-1.20092e-30
-2.52684e-30
-5.24065e-30
-8.44393e-30
-2.9561e-30
-5.64626e-31
-1.02445e-31
-1.2711e-32
-3.765e-33
-1.1505e-32
-1.5743e-32
-1.99588e-31
-1.6312e-30
-6.08199e-30
-1.3011e-31
-1.48622e-33
-1.19694e-33
-9.73285e-33
-6.28647e-32
-2.97637e-31
-2.69066e-31
-9.8268e-34
-2.1348e-32
-3.46942e-31
-3.81313e-30
-2.17774e-29
-5.67957e-30
-4.38154e-31
-1.60165e-31
-4.34689e-31
-1.02089e-30
-3.48746e-31
-2.95289e-31
-2.39922e-31
-9.69679e-33
-4.14624e-37
-4.38159e-35
-2.5815e-33
-1.53888e-35
-1.29265e-37
-4.6294e-37
-1.76945e-34
-9.28404e-35
-2.86645e-34
-8.59173e-34
-1.53094e-33
-1.31973e-33
1.97295e-30
7.78289e-28
3.32614e-26
2.8525e-23
5.74387e-22
3.42455e-21
4.45196e-20
2.33385e-19
7.84863e-19
3.77518e-20
1.13126e-40
-9.12976e-27
-3.6159e-26
-6.67775e-26
8.32439e-40
2.7475e-22
1.33189e-21
1.52238e-21
9.56874e-22
6.87146e-19
2.94166e-17
6.26203e-32
1.92916e-29
-2.71374e-27
-4.02921e-27
-2.31122e-27
-8.55872e-28
-2.33119e-28
-6.22903e-29
-3.10256e-29
-6.85387e-29
-1.86507e-28
-2.2472e-28
-1.81085e-28
-1.68627e-28
-9.05671e-29
-2.61681e-29
-4.72898e-30
-6.34649e-31
-2.11173e-31
-3.46257e-31
-6.33131e-31
-9.5112e-31
-3.1929e-31
-6.00825e-32
-9.96317e-33
-1.14921e-33
-2.95148e-34
-9.1746e-34
-1.73945e-33
-2.31367e-32
-1.94526e-31
-7.45638e-31
-1.73801e-32
-2.12051e-34
-7.33281e-35
-5.98948e-34
-3.97226e-33
-1.93879e-32
-1.76434e-32
-9.41174e-35
-2.10622e-33
-3.5239e-32
-3.98401e-31
-2.33534e-30
-5.38877e-31
-3.06944e-32
-9.00564e-33
-2.34966e-32
-5.42726e-32
-1.89675e-32
-1.54963e-32
-1.176e-32
-4.45816e-34
-8.99932e-39
-1.00183e-36
-6.17996e-35
-3.08719e-37
-1.11505e-39
-2.97148e-38
-1.11897e-35
-3.02941e-35
-9.75268e-35
-3.29026e-34
-9.02489e-34
-2.05496e-33
6.233e-32
2.22497e-29
8.09901e-28
6.89022e-25
1.60547e-23
9.9342e-23
2.31119e-21
8.60787e-21
6.92839e-21
8.8433e-22
-1.21015e-42
-5.51283e-27
-2.30987e-26
-4.71221e-26
8.70208e-44
1.21115e-22
1.02172e-21
1.44749e-21
1.13138e-21
3.98304e-20
3.58713e-21
-2.38283e-27
-2.74884e-27
-4.89326e-27
-4.35458e-27
-2.14715e-27
-7.45845e-28
-2.00825e-28
-5.28442e-29
-2.2965e-29
-4.22694e-29
-1.03373e-28
-1.14142e-28
-8.28401e-29
-6.70821e-29
-3.19528e-29
-8.28093e-30
-1.33009e-30
-1.53438e-31
-3.40819e-32
-4.25967e-32
-6.93634e-32
-9.78931e-32
-3.15567e-32
-5.86427e-33
-8.83941e-34
-9.37577e-35
-2.02474e-35
-6.37371e-35
-1.71012e-34
-2.37338e-33
-2.05194e-32
-8.08341e-32
-2.06558e-33
-2.74526e-35
-4.01351e-36
-3.17858e-35
-2.1669e-34
-1.08877e-33
-9.9288e-34
-8.04389e-36
-1.85393e-34
-3.19232e-33
-3.71171e-32
-2.23345e-31
-4.62423e-32
-1.99792e-33
-4.40737e-34
-1.0958e-33
-2.48333e-33
-8.8855e-34
-7.02608e-34
-4.98673e-34
-1.77942e-35
-1.68626e-40
-1.9756e-38
-1.27379e-36
-5.43842e-39
-1.30048e-41
-1.74833e-39
-6.49068e-37
-9.18901e-36
-2.93765e-35
-1.02209e-34
-3.66052e-34
-1.0353e-33
-1.66665e-33
-1.05156e-33
-5.23346e-33
-3.87069e-32
-2.15927e-31
1.2971e-25
5.16293e-23
2.3243e-22
1.86308e-22
1.79114e-23
-4.22314e-44
-2.93665e-27
-1.32156e-26
-3.18565e-26
1.35485e-43
1.8033e-23
4.04722e-22
9.67081e-22
8.14281e-23
2.49015e-22
-3.23299e-40
-5.08503e-27
-4.31719e-27
-5.42603e-27
-3.87528e-27
-1.73997e-27
-5.70396e-28
-1.50533e-28
-3.86932e-29
-1.48795e-29
-2.26902e-29
-4.97126e-29
-5.03339e-29
-3.29752e-29
-2.33315e-29
-9.89645e-30
-2.30666e-30
-3.31327e-31
-3.34118e-32
-5.15344e-33
-4.77809e-33
-7.00609e-33
-9.36676e-33
-2.89873e-33
-5.31384e-34
-7.28986e-35
-7.03739e-36
-1.23932e-36
-3.93635e-36
-1.5149e-35
-2.18307e-34
-1.93876e-33
-7.84057e-33
-2.1859e-34
-3.18093e-36
-2.09694e-37
-1.47348e-36
-1.03289e-35
-5.33527e-35
-4.86263e-35
-6.19482e-37
-1.46974e-35
-2.60349e-34
-3.11192e-33
-1.92211e-32
-3.63052e-33
-1.26874e-34
-1.92239e-35
-4.46329e-35
-9.90121e-35
-3.6281e-35
-2.78562e-35
-1.85192e-35
-6.25202e-37
-2.76852e-42
-3.41128e-40
-2.29611e-38
-8.52881e-41
-3.16389e-43
-9.46859e-41
-3.46899e-38
-2.55078e-36
-7.53169e-36
-2.39905e-35
-8.44915e-35
-2.47485e-34
-4.31243e-34
-5.32548e-34
-3.36078e-33
-2.57791e-32
-1.73044e-31
-9.12762e-31
-3.6938e-30
-1.1126e-29
-2.51537e-29
-5.28616e-29
-2.24387e-28
-1.46524e-27
-6.86151e-27
-2.0262e-26
-2.95492e-26
8.39622e-26
7.29847e-23
2.79403e-22
2.83094e-25
-2.97395e-42
-6.36511e-26
-6.63627e-27
-4.75841e-27
-4.84639e-27
-3.02727e-27
-1.25528e-27
-3.89288e-28
-1.0001e-28
-2.49449e-29
-8.57933e-30
-1.07827e-29
-2.10864e-29
-1.95835e-29
-1.16054e-29
-7.20545e-30
-2.7305e-30
-5.73756e-31
-7.40939e-32
-6.61749e-33
-7.41993e-34
-4.9563e-34
-6.60819e-34
-8.42636e-34
-2.49974e-34
-4.51572e-35
-5.69575e-36
-5.00188e-37
-6.95403e-38
-2.20457e-37
-1.21759e-36
-1.81521e-35
-1.65498e-34
-6.86703e-34
-2.08613e-35
-3.31878e-37
-1.15667e-38
-6.02555e-38
-4.34277e-37
-2.30366e-36
-2.09539e-36
-4.33161e-38
-1.05742e-36
-1.92602e-35
-2.36562e-34
-1.49951e-33
-2.62563e-34
-8.08501e-36
-7.73702e-37
-1.60371e-36
-3.47428e-36
-1.30356e-36
-9.75106e-37
-6.08287e-37
-1.95459e-38
-4.02901e-44
-5.21892e-42
-3.66425e-40
-1.20334e-42
-1.27666e-44
-4.73745e-42
-1.71458e-39
-6.43229e-37
-1.66061e-36
-4.62629e-36
-1.55832e-35
-4.84295e-35
-1.05595e-34
-2.82471e-34
-2.01255e-33
-1.57576e-32
-1.07929e-31
-5.83074e-31
-2.42516e-30
-7.52697e-30
-1.74584e-29
-3.44476e-29
-1.11523e-28
-6.62794e-28
-3.15408e-27
-9.76287e-27
-1.69882e-26
-2.42883e-44
2.09769e-24
1.04832e-23
1.45034e-26
-8.84842e-27
-4.48458e-26
-6.95237e-27
-4.40691e-27
-3.78551e-27
-2.12411e-27
-8.17247e-28
-2.39998e-28
-5.97052e-29
-1.43747e-29
-4.45868e-30
-4.59984e-30
-7.99144e-30
-6.80884e-30
-3.6577e-30
-2.00008e-30
-6.78943e-31
-1.28908e-31
-1.50373e-32
-1.20185e-33
-1.02818e-34
-4.81568e-35
-5.87053e-35
-7.16576e-35
-2.03035e-35
-3.60597e-36
-4.24422e-37
-3.4186e-38
-3.683e-39
-1.14427e-38
-8.93652e-38
-1.37439e-36
-1.28572e-35
-5.4706e-35
-1.80505e-36
-3.1281e-38
-7.34888e-40
-2.19361e-39
-1.62327e-38
-8.83473e-38
-8.01513e-38
-2.76736e-39
-6.94791e-38
-1.30066e-36
-1.64081e-35
-1.06704e-34
-1.75658e-35
-5.16105e-37
-3.03848e-38
-5.12767e-38
-1.08176e-37
-4.1534e-38
-3.03765e-38
-1.78157e-38
-5.48421e-40
-5.2454e-46
-7.14165e-44
-5.22809e-42
-1.5403e-44
-5.67482e-46
-2.19654e-43
-7.8612e-41
-1.48374e-37
-3.24152e-37
-7.86528e-37
-2.59571e-36
-9.46264e-36
-3.17425e-35
-1.50555e-34
-1.131e-33
-9.02681e-33
-6.31246e-32
-3.49249e-31
-1.49273e-30
-4.78014e-30
-1.14439e-29
-2.20616e-29
-5.60286e-29
-2.81461e-28
-1.32578e-27
-4.20503e-27
-8.67458e-27
-1.16446e-26
-6.73518e-27
-3.78131e-28
-3.03608e-28
-1.17939e-26
-2.58894e-26
-6.36274e-27
-3.59502e-27
-2.6622e-27
-1.35506e-27
-4.85011e-28
-1.34965e-28
-3.23737e-29
-7.49252e-30
-2.11033e-30
-1.78233e-30
-2.73453e-30
-2.13746e-30
-1.04298e-30
-5.03824e-31
-1.53537e-31
-2.63901e-32
-2.79243e-33
-2.0137e-34
-1.3771e-35
-4.43428e-36
-4.93537e-36
-5.76578e-36
-1.55289e-36
-2.70541e-37
-3.02039e-38
-2.26735e-39
-1.90464e-40
-5.62615e-40
-6.01843e-39
-9.52932e-38
-9.14296e-37
-3.98751e-36
-1.42455e-37
-2.67785e-39
-5.30281e-41
-7.18081e-41
-5.42966e-40
-3.02957e-39
-2.74143e-39
-1.62384e-40
-4.19128e-39
-8.06046e-38
-1.04393e-36
-6.96247e-36
-1.09035e-36
-3.23192e-38
-1.25482e-39
-1.47146e-39
-3.00945e-39
-1.18105e-39
-8.47693e-40
-4.68433e-40
-1.39074e-41
-6.15552e-48
-8.80914e-46
-6.72297e-44
-1.80099e-46
-2.43297e-47
-9.46302e-45
-3.35246e-42
-3.19093e-38
-5.80744e-38
-1.28367e-37
-4.75726e-37
-2.40172e-36
-1.25525e-35
-7.74739e-35
-5.97229e-34
-4.85406e-33
-3.46714e-32
-1.96558e-31
-8.64056e-31
-2.85899e-30
-7.08726e-30
-1.37135e-29
-2.87545e-29
-1.14818e-28
-5.18263e-28
-1.64751e-27
-3.44567e-27
-5.24007e-27
-5.19488e-27
-2.18729e-27
-3.63182e-27
-1.11159e-26
-1.45624e-26
-5.23025e-27
-2.63601e-27
-1.7074e-27
-7.93064e-28
-2.64441e-28
-6.97496e-29
-1.60814e-29
-3.56614e-30
-9.17419e-31
-6.33708e-31
-8.52419e-31
-6.11106e-31
-2.71333e-31
-1.16099e-31
-3.18169e-32
-4.95915e-33
-4.77822e-34
-3.13004e-35
-1.78225e-36
-3.91057e-37
-3.93295e-37
-4.38249e-37
-1.11616e-37
-1.9029e-38
-2.04387e-39
-1.456e-40
-9.88276e-42
-2.67104e-41
-3.73441e-40
-6.07879e-39
-5.97968e-38
-2.67219e-37
-1.03014e-38
-2.09187e-40
-3.98559e-42
-2.14671e-42
-1.63435e-41
-9.34211e-41
-8.43676e-41
-8.78976e-42
-2.33151e-40
-4.60454e-39
-6.11978e-38
-4.18454e-37
-6.29478e-38
-1.94162e-39
-5.75166e-41
-3.83078e-41
-7.52467e-41
-3.01439e-41
-2.13086e-41
-1.11207e-41
-3.20628e-43
-6.55251e-50
-9.85801e-48
-7.84422e-46
-1.93524e-48
-9.78937e-49
-3.79738e-46
-1.333e-43
-6.58687e-39
-1.00536e-38
-2.34801e-38
-1.22295e-37
-8.55464e-37
-5.61491e-36
-3.78505e-35
-2.96736e-34
-2.45527e-33
-1.79176e-32
-1.04114e-31
-4.70946e-31
-1.60972e-30
-4.1397e-30
-8.19235e-30
-1.5185e-29
-4.59869e-29
-1.91412e-28
-6.09194e-28
-1.29419e-27
-2.18104e-27
-3.08304e-27
-2.60376e-27
-4.34149e-27
-8.82505e-27
-8.75759e-27
-3.9001e-27
-1.75737e-27
-1.00663e-27
-4.28558e-28
-1.33333e-28
-3.33451e-29
-7.36937e-30
-1.56171e-30
-3.6888e-31
-2.08631e-31
-2.43928e-31
-1.6029e-31
-6.48547e-32
-2.46379e-32
-6.07947e-33
-8.60584e-34
-7.57492e-35
-4.53284e-36
-2.22125e-37
-3.33463e-38
-2.97059e-38
-3.13963e-38
-7.52465e-39
-1.25248e-39
-1.30822e-40
-8.98599e-42
-5.20031e-43
-1.23899e-42
-2.14226e-41
-3.58145e-40
-3.61107e-39
-1.653e-38
-6.85432e-40
-1.49783e-41
-2.90938e-43
-6.05413e-44
-4.44854e-43
-2.60316e-42
-2.3492e-42
-4.40513e-43
-1.20044e-41
-2.43377e-40
-3.31827e-39
-2.32543e-38
-3.38726e-39
-1.10254e-40
-2.88824e-42
-9.21889e-43
-1.69973e-42
-6.94682e-43
-4.84764e-43
-2.39554e-43
-6.75378e-45
-6.36308e-52
-1.00632e-49
-8.35159e-48
-1.92369e-50
-3.68073e-50
-1.42258e-47
-4.95304e-45
-1.35454e-39
-1.83167e-39
-5.77546e-39
-4.33793e-38
-3.55064e-37
-2.51391e-36
-1.74594e-35
-1.38742e-34
-1.16813e-33
-8.71057e-33
-5.19086e-32
-2.41655e-31
-8.53417e-31
-2.27924e-30
-4.66582e-30
-8.16206e-30
-1.89285e-29
-6.82616e-29
-2.17429e-28
-4.80472e-28
-9.08506e-28
-1.70168e-27
-2.28869e-27
-3.91198e-27
-6.39333e-27
-5.58466e-27
-2.65219e-27
-1.07371e-27
-5.48791e-28
-2.14963e-28
-6.24804e-29
-1.48186e-29
-3.13353e-30
-6.33463e-31
-1.38e-31
-6.41183e-32
-6.45128e-32
-3.88143e-32
-1.43286e-32
-4.84262e-33
-1.07686e-33
-1.38656e-34
-1.11815e-35
-6.14161e-37
-2.65635e-38
-2.77332e-39
-2.12514e-39
-2.11621e-39
-4.75248e-40
-7.70541e-41
-7.88457e-42
-5.28428e-43
-2.75017e-44
-5.62716e-44
-1.13953e-42
-1.95531e-41
-2.02025e-40
-9.47085e-40
-4.21054e-41
-9.86843e-43
-1.99652e-44
-1.73042e-45
-1.09975e-44
-6.5824e-44
-5.94983e-44
-2.05056e-44
-5.73932e-43
-1.19414e-41
-1.66967e-40
-1.19886e-39
-1.70237e-40
-5.87413e-42
-1.4986e-43
-2.13471e-44
-3.48551e-44
-1.45197e-44
-1.00214e-44
-4.7025e-45
-1.30541e-46
-5.67726e-54
-9.41494e-52
-8.15318e-50
-1.78911e-52
-1.29408e-51
-4.98608e-49
-1.72355e-46
-2.88273e-40
-3.92001e-40
-1.88656e-39
-1.71973e-38
-1.48347e-37
-1.078e-36
-7.59625e-36
-6.10881e-35
-5.23196e-34
-3.98689e-33
-2.43626e-32
-1.16763e-31
-4.26037e-31
-1.1827e-30
-2.51965e-30
-4.35633e-30
-8.2241e-30
-2.4373e-29
-7.69451e-29
-1.84343e-28
-4.04774e-28
-9.42725e-28
-1.71513e-27
-3.02465e-27
-4.35094e-27
-3.55751e-27
-1.65232e-27
-6.04851e-28
-2.77972e-28
-1.00544e-28
-2.73411e-29
-6.15137e-30
-1.24251e-30
-2.39227e-31
-4.82634e-32
-1.85286e-32
-1.58681e-32
-8.72486e-33
-2.94131e-33
-8.85971e-34
-1.77648e-34
-2.08389e-35
-1.54347e-36
-7.8133e-38
-3.03875e-39
-2.26676e-40
-1.43935e-40
-1.34086e-40
-2.81158e-41
-4.42984e-42
-4.46172e-43
-2.94095e-44
-1.43392e-45
-2.48762e-45
-5.63516e-44
-9.91982e-43
-1.05009e-41
-5.04048e-41
-2.39554e-42
-6.00392e-44
-1.2741e-45
-5.64622e-47
-2.48009e-46
-1.51603e-45
-1.37831e-45
-8.89067e-46
-2.55517e-44
-5.45449e-43
-7.81881e-42
-5.75041e-41
-8.00636e-42
-2.92891e-43
-7.62839e-45
-5.15972e-46