/*--------------------------------*- C++ -*----------------------------------*\
| =========                 |                                                 |
| \\      /  F ield         | OpenFOAM: The Open Source CFD Toolbox           |
|  \\    /   O peration     | Version:  v1912                                 |
|   \\  /    A nd           | Website:  www.openfoam.com                      |
|    \\/     M anipulation  |                                                 |
\*---------------------------------------------------------------------------*/
FoamFile
{
    version     2.0;
    format      ascii;
    class       volSymmTensorField;
    location    "20";
    object      R;
}
// * * * * * * * * * * * * * * * * * * * * * * * * * * * * * * * * * * * * * //

dimensions      [0 2 -2 0 0 0 0];


internalField   nonuniform List<symmTensor> 
14268
(
(5.84742e-07 -1.0182e-07 0 7.08687e-07 0 6.46408e-07)
(5.83154e-07 -1.01937e-07 0 7.08549e-07 0 6.45739e-07)
(5.8283e-07 -1.02129e-07 0 7.08557e-07 0 6.45648e-07)
(5.86409e-07 -1.02575e-07 0 7.07296e-07 0 6.46812e-07)
(5.91653e-07 -1.03288e-07 0 7.06656e-07 0 6.49146e-07)
(5.99369e-07 -1.04142e-07 0 7.05313e-07 0 6.52322e-07)
(6.08614e-07 -1.05108e-07 0 7.03615e-07 0 6.56118e-07)
(6.1948e-07 -1.06156e-07 0 7.01121e-07 0 6.60366e-07)
(6.3124e-07 -1.07241e-07 0 6.98441e-07 0 6.64981e-07)
(6.43235e-07 -1.08337e-07 0 6.9639e-07 0 6.69997e-07)
(6.55686e-07 -1.0949e-07 0 6.94424e-07 0 6.75276e-07)
(6.68419e-07 -1.10665e-07 0 6.9272e-07 0 6.80817e-07)
(6.81336e-07 -1.11867e-07 0 6.91326e-07 0 6.86608e-07)
(6.94429e-07 -1.13084e-07 0 6.90306e-07 0 6.92667e-07)
(7.07749e-07 -1.14326e-07 0 6.89647e-07 0 6.99014e-07)
(7.2087e-07 -1.15591e-07 0 6.89839e-07 0 7.05658e-07)
(7.3376e-07 -1.16799e-07 0 6.90522e-07 0 7.12422e-07)
(7.4717e-07 -1.17952e-07 0 6.89989e-07 0 7.1885e-07)
(7.59447e-07 -1.1889e-07 0 6.89127e-07 0 7.2455e-07)
(7.69222e-07 -1.1957e-07 0 6.88802e-07 0 7.29243e-07)
(7.76434e-07 -1.19998e-07 0 6.88811e-07 0 7.32832e-07)
(7.81244e-07 -1.20184e-07 0 6.88804e-07 0 7.35253e-07)
(7.83717e-07 -1.20086e-07 0 6.88484e-07 0 7.36364e-07)
(7.83307e-07 -1.19833e-07 0 6.8832e-07 0 7.36089e-07)
(7.81637e-07 -1.19499e-07 0 6.87952e-07 0 7.35036e-07)
(7.79248e-07 -1.19183e-07 0 6.88425e-07 0 7.34015e-07)
(7.75902e-07 -1.18947e-07 0 6.89915e-07 0 7.33009e-07)
(7.71589e-07 -1.18791e-07 0 6.92356e-07 0 7.32016e-07)
(7.6656e-07 -1.18702e-07 0 6.95558e-07 0 7.31061e-07)
(7.61006e-07 -1.18658e-07 0 6.99344e-07 0 7.3016e-07)
(7.55959e-07 -1.18656e-07 0 7.02941e-07 0 7.29401e-07)
(7.50914e-07 -1.18665e-07 0 7.06671e-07 0 7.2874e-07)
(7.46288e-07 -1.1866e-07 0 7.10231e-07 0 7.28189e-07)
(7.41649e-07 -1.18654e-07 0 7.13977e-07 0 7.27741e-07)
(7.37564e-07 -1.18631e-07 0 7.17427e-07 0 7.27416e-07)
(7.33213e-07 -1.18601e-07 0 7.2128e-07 0 7.27169e-07)
(7.2867e-07 -1.18578e-07 0 7.25518e-07 0 7.27015e-07)
(7.2416e-07 -1.18551e-07 0 7.29925e-07 0 7.26962e-07)
(7.19527e-07 -1.18547e-07 0 7.34639e-07 0 7.27002e-07)
(7.14824e-07 -1.18575e-07 0 7.39617e-07 0 7.27137e-07)
(7.1032e-07 -1.18625e-07 0 7.44597e-07 0 7.27369e-07)
(7.06052e-07 -1.18709e-07 0 7.49507e-07 0 7.27681e-07)
(7.02269e-07 -1.18827e-07 0 7.54052e-07 0 7.28055e-07)
(6.99346e-07 -1.18963e-07 0 7.57687e-07 0 7.28416e-07)
(6.97243e-07 -1.19111e-07 0 7.6041e-07 0 7.28747e-07)
(6.9586e-07 -1.19263e-07 0 7.62329e-07 0 7.29041e-07)
(6.95105e-07 -1.19415e-07 0 7.63553e-07 0 7.29308e-07)
(6.94919e-07 -1.19559e-07 0 7.64178e-07 0 7.29556e-07)
(6.95204e-07 -1.19692e-07 0 7.6434e-07 0 7.29797e-07)
(6.96304e-07 -1.19913e-07 0 7.64376e-07 0 7.30367e-07)
(6.98444e-07 -1.20252e-07 0 7.6465e-07 0 7.31568e-07)
(7.01516e-07 -1.20684e-07 0 7.65069e-07 0 7.33303e-07)
(7.05432e-07 -1.21194e-07 0 7.65518e-07 0 7.35475e-07)
(7.10054e-07 -1.2176e-07 0 7.65936e-07 0 7.37987e-07)
(7.15259e-07 -1.22364e-07 0 7.66252e-07 0 7.40743e-07)
(7.20941e-07 -1.22988e-07 0 7.66403e-07 0 7.43661e-07)
(7.2699e-07 -1.23617e-07 0 7.6635e-07 0 7.46666e-07)
(7.33169e-07 -1.24238e-07 0 7.66239e-07 0 7.49709e-07)
(7.39311e-07 -1.24842e-07 0 7.66144e-07 0 7.5274e-07)
(7.45315e-07 -1.25422e-07 0 7.66077e-07 0 7.55713e-07)
(7.51123e-07 -1.25973e-07 0 7.66018e-07 0 7.58594e-07)
(7.56655e-07 -1.26491e-07 0 7.65989e-07 0 7.61349e-07)
(7.6189e-07 -1.26974e-07 0 7.65969e-07 0 7.63959e-07)
(7.66762e-07 -1.27419e-07 0 7.65985e-07 0 7.66404e-07)
(7.71276e-07 -1.27824e-07 0 7.65995e-07 0 7.68667e-07)
(7.75384e-07 -1.2819e-07 0 7.66029e-07 0 7.70739e-07)
(7.79081e-07 -1.28514e-07 0 7.66076e-07 0 7.72611e-07)
(7.8236e-07 -1.28797e-07 0 7.66127e-07 0 7.74277e-07)
(7.8521e-07 -1.29038e-07 0 7.66189e-07 0 7.75732e-07)
(7.8763e-07 -1.29239e-07 0 7.66256e-07 0 7.76976e-07)
(7.89628e-07 -1.29399e-07 0 7.66324e-07 0 7.78009e-07)
(7.91204e-07 -1.29521e-07 0 7.66398e-07 0 7.78833e-07)
(7.92367e-07 -1.29605e-07 0 7.66479e-07 0 7.79456e-07)
(7.93144e-07 -1.29654e-07 0 7.66557e-07 0 7.79883e-07)
(7.93502e-07 -1.29678e-07 0 7.66689e-07 0 7.80128e-07)
(7.93534e-07 -1.2968e-07 0 7.66817e-07 0 7.80206e-07)
(7.93428e-07 -1.29672e-07 0 7.6695e-07 0 7.80216e-07)
(7.93231e-07 -1.29663e-07 0 7.67175e-07 0 7.80225e-07)
(7.92972e-07 -1.29654e-07 0 7.67451e-07 0 7.80231e-07)
(7.92562e-07 -1.29645e-07 0 7.67879e-07 0 7.80234e-07)
(7.92163e-07 -1.29639e-07 0 7.68275e-07 0 7.80232e-07)
(7.91565e-07 -1.29628e-07 0 7.68879e-07 0 7.80226e-07)
(7.90732e-07 -1.29628e-07 0 7.69667e-07 0 7.80205e-07)
(7.90793e-07 -1.29603e-07 0 7.69517e-07 0 7.80161e-07)
(7.89103e-07 -1.29578e-07 0 7.71073e-07 0 7.80052e-07)
(7.88251e-07 -1.29935e-07 0 7.71533e-07 0 7.79924e-07)
(1.73919e-07 -1.34228e-08 0 2.13075e-07 0 1.93467e-07)
(1.72977e-07 -1.37156e-08 0 2.13175e-07 0 1.93059e-07)
(1.74036e-07 -1.42382e-08 0 2.14163e-07 0 1.94074e-07)
(1.75944e-07 -1.47913e-08 0 2.14841e-07 0 1.9538e-07)
(1.78528e-07 -1.53504e-08 0 2.15421e-07 0 1.96966e-07)
(1.81796e-07 -1.58995e-08 0 2.15853e-07 0 1.98808e-07)
(1.85532e-07 -1.64358e-08 0 2.16199e-07 0 2.00843e-07)
(1.89642e-07 -1.6961e-08 0 2.16475e-07 0 2.03036e-07)
(1.9398e-07 -1.74673e-08 0 2.16716e-07 0 2.05323e-07)
(1.98478e-07 -1.79674e-08 0 2.16932e-07 0 2.07676e-07)
(2.03071e-07 -1.84639e-08 0 2.17126e-07 0 2.10062e-07)
(2.0773e-07 -1.89602e-08 0 2.17285e-07 0 2.12463e-07)
(2.12414e-07 -1.94527e-08 0 2.174e-07 0 2.14857e-07)
(2.17111e-07 -1.99377e-08 0 2.17455e-07 0 2.17227e-07)
(2.218e-07 -2.04059e-08 0 2.17466e-07 0 2.1957e-07)
(2.26439e-07 -2.0846e-08 0 2.17412e-07 0 2.21849e-07)
(2.31027e-07 -2.12593e-08 0 2.17265e-07 0 2.24057e-07)
(2.35758e-07 -2.16546e-08 0 2.17355e-07 0 2.26459e-07)
(2.40711e-07 -2.20519e-08 0 2.17909e-07 0 2.29207e-07)
(2.45722e-07 -2.24159e-08 0 2.18771e-07 0 2.32133e-07)
(2.50224e-07 -2.26932e-08 0 2.19694e-07 0 2.34837e-07)
(2.53827e-07 -2.2851e-08 0 2.20555e-07 0 2.37079e-07)
(2.56247e-07 -2.28841e-08 0 2.21363e-07 0 2.38714e-07)
(2.57423e-07 -2.28086e-08 0 2.22078e-07 0 2.39681e-07)
(2.57108e-07 -2.25869e-08 0 2.22291e-07 0 2.39643e-07)
(2.54685e-07 -2.21075e-08 0 2.21554e-07 0 2.38074e-07)
(2.50494e-07 -2.14517e-08 0 2.19969e-07 0 2.3519e-07)
(2.4518e-07 -2.0723e-08 0 2.17806e-07 0 2.31454e-07)
(2.39433e-07 -2.00037e-08 0 2.15378e-07 0 2.27367e-07)
(2.33716e-07 -1.9326e-08 0 2.12906e-07 0 2.23275e-07)
(2.28299e-07 -1.87034e-08 0 2.10459e-07 0 2.19337e-07)
(2.23271e-07 -1.81319e-08 0 2.08182e-07 0 2.15688e-07)
(2.1849e-07 -1.75661e-08 0 2.05941e-07 0 2.12175e-07)
(2.13856e-07 -1.69995e-08 0 2.03731e-07 0 2.08758e-07)
(2.09217e-07 -1.63911e-08 0 2.01392e-07 0 2.05273e-07)
(2.0437e-07 -1.57289e-08 0 1.98883e-07 0 2.01601e-07)
(1.99254e-07 -1.50051e-08 0 1.96152e-07 0 1.97683e-07)
(1.93851e-07 -1.42202e-08 0 1.93156e-07 0 1.93489e-07)
(1.88215e-07 -1.33913e-08 0 1.89932e-07 0 1.89065e-07)
(1.82451e-07 -1.2538e-08 0 1.86535e-07 0 1.84489e-07)
(1.76721e-07 -1.16884e-08 0 1.83048e-07 0 1.79883e-07)
(1.7119e-07 -1.08712e-08 0 1.79582e-07 0 1.75386e-07)
(1.66043e-07 -1.01184e-08 0 1.76265e-07 0 1.71154e-07)
(1.61444e-07 -9.4572e-09 0 1.73228e-07 0 1.67333e-07)
(1.57536e-07 -8.91216e-09 0 1.70596e-07 0 1.6406e-07)
(1.54424e-07 -8.5008e-09 0 1.6847e-07 0 1.61436e-07)
(1.52177e-07 -8.23433e-09 0 1.66918e-07 0 1.59533e-07)
(1.50821e-07 -8.11517e-09 0 1.65976e-07 0 1.58381e-07)
(1.5035e-07 -8.14185e-09 0 1.65648e-07 0 1.5798e-07)
(1.5045e-07 -8.24748e-09 0 1.65597e-07 0 1.58004e-07)
(1.50722e-07 -8.34597e-09 0 1.65426e-07 0 1.58054e-07)
(1.51142e-07 -8.43755e-09 0 1.65155e-07 0 1.58129e-07)
(1.51686e-07 -8.52041e-09 0 1.64802e-07 0 1.58227e-07)
(1.52331e-07 -8.59404e-09 0 1.64387e-07 0 1.58344e-07)
(1.53051e-07 -8.65857e-09 0 1.63931e-07 0 1.58478e-07)
(1.53826e-07 -8.71458e-09 0 1.6345e-07 0 1.58627e-07)
(1.54633e-07 -8.7629e-09 0 1.6296e-07 0 1.58787e-07)
(1.55457e-07 -8.8049e-09 0 1.62472e-07 0 1.58957e-07)
(1.56281e-07 -8.84134e-09 0 1.61996e-07 0 1.59133e-07)
(1.57092e-07 -8.87341e-09 0 1.61539e-07 0 1.59311e-07)
(1.57881e-07 -8.90199e-09 0 1.61107e-07 0 1.59491e-07)
(1.58639e-07 -8.9276e-09 0 1.60703e-07 0 1.59668e-07)
(1.5936e-07 -8.95088e-09 0 1.60329e-07 0 1.59842e-07)
(1.60038e-07 -8.97194e-09 0 1.59986e-07 0 1.6001e-07)
(1.6067e-07 -8.99121e-09 0 1.59675e-07 0 1.60171e-07)
(1.61251e-07 -9.00865e-09 0 1.59397e-07 0 1.60323e-07)
(1.6178e-07 -9.0244e-09 0 1.59151e-07 0 1.60465e-07)
(1.62255e-07 -9.03848e-09 0 1.58937e-07 0 1.60595e-07)
(1.62673e-07 -9.05099e-09 0 1.58755e-07 0 1.60714e-07)
(1.63036e-07 -9.06203e-09 0 1.58604e-07 0 1.6082e-07)
(1.63342e-07 -9.07178e-09 0 1.58484e-07 0 1.60913e-07)
(1.63594e-07 -9.0804e-09 0 1.58394e-07 0 1.60994e-07)
(1.63791e-07 -9.08809e-09 0 1.58332e-07 0 1.61062e-07)
(1.63937e-07 -9.09519e-09 0 1.58298e-07 0 1.61118e-07)
(1.64034e-07 -9.10192e-09 0 1.58291e-07 0 1.61163e-07)
(1.64085e-07 -9.10848e-09 0 1.58309e-07 0 1.61197e-07)
(1.64009e-07 -9.09886e-09 0 1.58266e-07 0 1.61139e-07)
(1.63756e-07 -9.06257e-09 0 1.5811e-07 0 1.60934e-07)
(1.63343e-07 -9.00266e-09 0 1.57852e-07 0 1.60599e-07)
(1.62795e-07 -8.92219e-09 0 1.57506e-07 0 1.60152e-07)
(1.62126e-07 -8.82453e-09 0 1.57083e-07 0 1.59607e-07)
(1.61373e-07 -8.71264e-09 0 1.56603e-07 0 1.58989e-07)
(1.6052e-07 -8.5899e-09 0 1.56068e-07 0 1.58297e-07)
(1.5968e-07 -8.46271e-09 0 1.55518e-07 0 1.57601e-07)
(1.588e-07 -8.3396e-09 0 1.54985e-07 0 1.56891e-07)
(1.58007e-07 -8.25937e-09 0 1.54536e-07 0 1.5629e-07)
(1.3406e-07 -7.09776e-09 0 1.65014e-07 0 1.49425e-07)
(1.33803e-07 -7.673e-09 0 1.65337e-07 0 1.49476e-07)
(1.33965e-07 -8.07295e-09 0 1.6535e-07 0 1.49567e-07)
(1.34654e-07 -8.47322e-09 0 1.64749e-07 0 1.49627e-07)
(1.3557e-07 -8.80238e-09 0 1.63913e-07 0 1.49681e-07)
(1.36835e-07 -9.0381e-09 0 1.62752e-07 0 1.49737e-07)
(1.38295e-07 -9.21371e-09 0 1.61428e-07 0 1.49809e-07)
(1.39933e-07 -9.33154e-09 0 1.59957e-07 0 1.49902e-07)
(1.41657e-07 -9.40043e-09 0 1.58462e-07 0 1.50024e-07)
(1.4345e-07 -9.4452e-09 0 1.56967e-07 0 1.50177e-07)
(1.45287e-07 -9.47973e-09 0 1.55494e-07 0 1.50362e-07)
(1.47161e-07 -9.50727e-09 0 1.54042e-07 0 1.50575e-07)
(1.49054e-07 -9.53467e-09 0 1.52613e-07 0 1.5081e-07)
(1.50968e-07 -9.55086e-09 0 1.51197e-07 0 1.51061e-07)
(1.52902e-07 -9.56631e-09 0 1.49793e-07 0 1.51329e-07)
(1.54836e-07 -9.55146e-09 0 1.48418e-07 0 1.51605e-07)
(1.56768e-07 -9.53274e-09 0 1.4705e-07 0 1.51887e-07)
(1.58696e-07 -9.4614e-09 0 1.45775e-07 0 1.52214e-07)
(1.60599e-07 -9.34409e-09 0 1.44677e-07 0 1.52618e-07)
(1.62444e-07 -9.16166e-09 0 1.43744e-07 0 1.53071e-07)
(1.64045e-07 -8.92822e-09 0 1.42998e-07 0 1.53495e-07)
(1.65271e-07 -8.64342e-09 0 1.42439e-07 0 1.53834e-07)
(1.65983e-07 -8.30523e-09 0 1.42134e-07 0 1.54052e-07)
(1.66215e-07 -7.96963e-09 0 1.42072e-07 0 1.54149e-07)
(1.65903e-07 -7.62952e-09 0 1.42193e-07 0 1.54061e-07)
(1.65003e-07 -7.28917e-09 0 1.4236e-07 0 1.53697e-07)
(1.63573e-07 -6.98903e-09 0 1.42616e-07 0 1.53112e-07)
(1.61874e-07 -6.76962e-09 0 1.42911e-07 0 1.52411e-07)
(1.601e-07 -6.62773e-09 0 1.43256e-07 0 1.51695e-07)
(1.5844e-07 -6.5465e-09 0 1.43593e-07 0 1.51031e-07)
(1.5684e-07 -6.50104e-09 0 1.43992e-07 0 1.50423e-07)
(1.55464e-07 -6.47195e-09 0 1.4432e-07 0 1.49899e-07)
(1.54143e-07 -6.42811e-09 0 1.44687e-07 0 1.49419e-07)
(1.52889e-07 -6.37252e-09 0 1.45053e-07 0 1.48977e-07)
(1.51673e-07 -6.28683e-09 0 1.4542e-07 0 1.48553e-07)
(1.50421e-07 -6.18428e-09 0 1.45832e-07 0 1.48135e-07)
(1.49133e-07 -6.0678e-09 0 1.46295e-07 0 1.47723e-07)
(1.47808e-07 -5.94971e-09 0 1.46821e-07 0 1.47325e-07)
(1.46474e-07 -5.84199e-09 0 1.47406e-07 0 1.46951e-07)
(1.45147e-07 -5.75697e-09 0 1.48062e-07 0 1.46616e-07)
(1.43874e-07 -5.70273e-09 0 1.48764e-07 0 1.46329e-07)
(1.42684e-07 -5.68541e-09 0 1.49499e-07 0 1.461e-07)
(1.41616e-07 -5.70761e-09 0 1.50231e-07 0 1.4593e-07)
(1.40695e-07 -5.766e-09 0 1.50928e-07 0 1.45814e-07)
(1.3994e-07 -5.85779e-09 0 1.51553e-07 0 1.45745e-07)
(1.3936e-07 -5.97455e-09 0 1.52073e-07 0 1.4571e-07)
(1.38948e-07 -6.11016e-09 0 1.52464e-07 0 1.45696e-07)
(1.387e-07 -6.25774e-09 0 1.52717e-07 0 1.45695e-07)
(1.38626e-07 -6.39791e-09 0 1.52802e-07 0 1.45699e-07)
(1.38701e-07 -6.53538e-09 0 1.52729e-07 0 1.457e-07)
(1.38902e-07 -6.65237e-09 0 1.52506e-07 0 1.45689e-07)
(1.39209e-07 -6.74988e-09 0 1.5216e-07 0 1.4567e-07)
(1.39606e-07 -6.82609e-09 0 1.51708e-07 0 1.45644e-07)
(1.40074e-07 -6.88192e-09 0 1.51179e-07 0 1.45615e-07)
(1.40591e-07 -6.91812e-09 0 1.50598e-07 0 1.45585e-07)
(1.41147e-07 -6.93724e-09 0 1.4998e-07 0 1.45556e-07)
(1.41721e-07 -6.94154e-09 0 1.49348e-07 0 1.45529e-07)
(1.42303e-07 -6.9341e-09 0 1.48717e-07 0 1.45506e-07)
(1.42883e-07 -6.9169e-09 0 1.48096e-07 0 1.45486e-07)
(1.4345e-07 -6.8927e-09 0 1.47495e-07 0 1.45471e-07)
(1.43998e-07 -6.86314e-09 0 1.46923e-07 0 1.4546e-07)
(1.44522e-07 -6.8299e-09 0 1.46382e-07 0 1.45452e-07)
(1.45017e-07 -6.79421e-09 0 1.45877e-07 0 1.45448e-07)
(1.4548e-07 -6.75679e-09 0 1.4541e-07 0 1.45446e-07)
(1.45907e-07 -6.71854e-09 0 1.44982e-07 0 1.45446e-07)
(1.46298e-07 -6.67978e-09 0 1.44594e-07 0 1.45447e-07)
(1.46652e-07 -6.64051e-09 0 1.44245e-07 0 1.4545e-07)
(1.46966e-07 -6.6014e-09 0 1.43936e-07 0 1.45453e-07)
(1.4724e-07 -6.56281e-09 0 1.43668e-07 0 1.45455e-07)
(1.47474e-07 -6.52458e-09 0 1.43439e-07 0 1.45458e-07)
(1.47667e-07 -6.48731e-09 0 1.43249e-07 0 1.4546e-07)
(1.47822e-07 -6.45131e-09 0 1.43097e-07 0 1.45461e-07)
(1.47937e-07 -6.41686e-09 0 1.42982e-07 0 1.45461e-07)
(1.48016e-07 -6.38394e-09 0 1.42901e-07 0 1.45461e-07)
(1.48061e-07 -6.35277e-09 0 1.42853e-07 0 1.45459e-07)
(1.48073e-07 -6.32405e-09 0 1.42836e-07 0 1.45456e-07)
(1.48053e-07 -6.29739e-09 0 1.42845e-07 0 1.45451e-07)
(1.48002e-07 -6.27246e-09 0 1.42877e-07 0 1.45441e-07)
(1.47923e-07 -6.24989e-09 0 1.42929e-07 0 1.45428e-07)
(1.47821e-07 -6.22928e-09 0 1.43e-07 0 1.45412e-07)
(1.47698e-07 -6.21177e-09 0 1.43085e-07 0 1.45394e-07)
(1.47562e-07 -6.19529e-09 0 1.43188e-07 0 1.45376e-07)
(1.4741e-07 -6.1836e-09 0 1.43295e-07 0 1.45355e-07)
(1.47252e-07 -6.16951e-09 0 1.4342e-07 0 1.45338e-07)
(1.47088e-07 -6.1618e-09 0 1.43549e-07 0 1.45319e-07)
(1.46899e-07 -6.16207e-09 0 1.43674e-07 0 1.45296e-07)
(1.3144e-07 -6.86863e-09 0 1.6199e-07 0 1.4666e-07)
(1.31072e-07 -7.52274e-09 0 1.62555e-07 0 1.46767e-07)
(1.31283e-07 -8.16565e-09 0 1.62356e-07 0 1.46778e-07)
(1.31858e-07 -8.65008e-09 0 1.61627e-07 0 1.46709e-07)
(1.32652e-07 -9.06957e-09 0 1.60625e-07 0 1.46613e-07)
(1.33738e-07 -9.34189e-09 0 1.59289e-07 0 1.46485e-07)
(1.35016e-07 -9.53202e-09 0 1.57746e-07 0 1.4635e-07)
(1.36421e-07 -9.6377e-09 0 1.56069e-07 0 1.46214e-07)
(1.37885e-07 -9.67522e-09 0 1.54369e-07 0 1.46097e-07)
(1.39397e-07 -9.67515e-09 0 1.52677e-07 0 1.46006e-07)
(1.40945e-07 -9.66379e-09 0 1.51016e-07 0 1.45947e-07)
(1.42535e-07 -9.64532e-09 0 1.49374e-07 0 1.45917e-07)
(1.44171e-07 -9.61944e-09 0 1.47741e-07 0 1.45915e-07)
(1.45812e-07 -9.59447e-09 0 1.46155e-07 0 1.45939e-07)
(1.47487e-07 -9.56567e-09 0 1.44584e-07 0 1.45988e-07)
(1.4917e-07 -9.50065e-09 0 1.43064e-07 0 1.46062e-07)
(1.50879e-07 -9.41041e-09 0 1.41551e-07 0 1.46154e-07)
(1.52554e-07 -9.25974e-09 0 1.40103e-07 0 1.46265e-07)
(1.54179e-07 -9.037e-09 0 1.38738e-07 0 1.46393e-07)
(1.55681e-07 -8.71944e-09 0 1.37512e-07 0 1.46528e-07)
(1.56924e-07 -8.31637e-09 0 1.36505e-07 0 1.46644e-07)
(1.57837e-07 -7.85899e-09 0 1.35722e-07 0 1.46718e-07)
(1.5832e-07 -7.36626e-09 0 1.35246e-07 0 1.46737e-07)
(1.58401e-07 -6.86232e-09 0 1.35071e-07 0 1.46707e-07)
(1.58102e-07 -6.36891e-09 0 1.35187e-07 0 1.46626e-07)
(1.57393e-07 -5.96007e-09 0 1.35584e-07 0 1.46482e-07)
(1.56417e-07 -5.63962e-09 0 1.3619e-07 0 1.46303e-07)
(1.55255e-07 -5.45288e-09 0 1.36972e-07 0 1.46116e-07)
(1.54073e-07 -5.38303e-09 0 1.37815e-07 0 1.45946e-07)
(1.52967e-07 -5.4053e-09 0 1.38638e-07 0 1.45805e-07)
(1.51923e-07 -5.45346e-09 0 1.39463e-07 0 1.4569e-07)
(1.50994e-07 -5.52638e-09 0 1.402e-07 0 1.45596e-07)
(1.50126e-07 -5.55323e-09 0 1.40921e-07 0 1.4552e-07)
(1.493e-07 -5.5644e-09 0 1.4161e-07 0 1.45454e-07)
(1.48472e-07 -5.52706e-09 0 1.42315e-07 0 1.45394e-07)
(1.47607e-07 -5.46841e-09 0 1.43061e-07 0 1.45337e-07)
(1.46707e-07 -5.38913e-09 0 1.43859e-07 0 1.45288e-07)
(1.45755e-07 -5.30841e-09 0 1.4473e-07 0 1.45249e-07)
(1.44772e-07 -5.24089e-09 0 1.45659e-07 0 1.45223e-07)
(1.4377e-07 -5.19862e-09 0 1.46641e-07 0 1.45214e-07)
(1.42777e-07 -5.19156e-09 0 1.47651e-07 0 1.45222e-07)
(1.4183e-07 -5.22555e-09 0 1.48651e-07 0 1.45247e-07)
(1.4095e-07 -5.30609e-09 0 1.49611e-07 0 1.45286e-07)
(1.40178e-07 -5.42512e-09 0 1.50487e-07 0 1.45334e-07)
(1.39529e-07 -5.58292e-09 0 1.51249e-07 0 1.45386e-07)
(1.39024e-07 -5.76649e-09 0 1.51865e-07 0 1.45437e-07)
(1.38665e-07 -5.96893e-09 0 1.52317e-07 0 1.45479e-07)
(1.38459e-07 -6.17657e-09 0 1.52593e-07 0 1.45511e-07)
(1.38401e-07 -6.37876e-09 0 1.5269e-07 0 1.45529e-07)
(1.38486e-07 -6.57002e-09 0 1.52617e-07 0 1.45534e-07)
(1.38698e-07 -6.73681e-09 0 1.52389e-07 0 1.45526e-07)
(1.39015e-07 -6.87414e-09 0 1.52034e-07 0 1.45508e-07)
(1.39422e-07 -6.98138e-09 0 1.51574e-07 0 1.45483e-07)
(1.39895e-07 -7.06063e-09 0 1.51037e-07 0 1.45453e-07)
(1.40422e-07 -7.112e-09 0 1.50444e-07 0 1.45421e-07)
(1.4098e-07 -7.13991e-09 0 1.49818e-07 0 1.4539e-07)
(1.41559e-07 -7.147e-09 0 1.49176e-07 0 1.4536e-07)
(1.42141e-07 -7.13776e-09 0 1.48537e-07 0 1.45333e-07)
(1.42719e-07 -7.11544e-09 0 1.47911e-07 0 1.4531e-07)
(1.43284e-07 -7.08266e-09 0 1.47304e-07 0 1.45291e-07)
(1.4383e-07 -7.04237e-09 0 1.46726e-07 0 1.45276e-07)
(1.44351e-07 -6.99666e-09 0 1.4618e-07 0 1.45264e-07)
(1.44843e-07 -6.94766e-09 0 1.45671e-07 0 1.45256e-07)
(1.45303e-07 -6.8957e-09 0 1.45199e-07 0 1.45251e-07)
(1.45726e-07 -6.84263e-09 0 1.44768e-07 0 1.45248e-07)
(1.46114e-07 -6.7886e-09 0 1.44376e-07 0 1.45246e-07)
(1.46464e-07 -6.73405e-09 0 1.44026e-07 0 1.45246e-07)
(1.46773e-07 -6.67965e-09 0 1.43717e-07 0 1.45246e-07)
(1.47045e-07 -6.62528e-09 0 1.43445e-07 0 1.45247e-07)
(1.47277e-07 -6.57156e-09 0 1.43214e-07 0 1.45247e-07)
(1.47467e-07 -6.51951e-09 0 1.43024e-07 0 1.45247e-07)
(1.47619e-07 -6.46909e-09 0 1.42872e-07 0 1.45247e-07)
(1.47734e-07 -6.41974e-09 0 1.42755e-07 0 1.45246e-07)
(1.47812e-07 -6.37348e-09 0 1.42674e-07 0 1.45245e-07)
(1.47855e-07 -6.32972e-09 0 1.42626e-07 0 1.45243e-07)
(1.47866e-07 -6.28917e-09 0 1.4261e-07 0 1.4524e-07)
(1.47846e-07 -6.2523e-09 0 1.42622e-07 0 1.45237e-07)
(1.478e-07 -6.2186e-09 0 1.4266e-07 0 1.45233e-07)
(1.47729e-07 -6.18916e-09 0 1.42722e-07 0 1.45229e-07)
(1.47637e-07 -6.16293e-09 0 1.42806e-07 0 1.45225e-07)
(1.47527e-07 -6.14181e-09 0 1.42904e-07 0 1.45219e-07)
(1.47401e-07 -6.1222e-09 0 1.43025e-07 0 1.45216e-07)
(1.47267e-07 -6.10914e-09 0 1.43144e-07 0 1.4521e-07)
(1.47124e-07 -6.09385e-09 0 1.43284e-07 0 1.45207e-07)
(1.46974e-07 -6.08807e-09 0 1.43424e-07 0 1.45202e-07)
(1.468e-07 -6.08017e-09 0 1.43568e-07 0 1.45193e-07)
(1.31035e-07 -6.81489e-09 0 1.62234e-07 0 1.46544e-07)
(1.30699e-07 -7.66051e-09 0 1.62791e-07 0 1.46666e-07)
(1.3094e-07 -8.48765e-09 0 1.62561e-07 0 1.46678e-07)
(1.31548e-07 -9.10437e-09 0 1.61772e-07 0 1.46598e-07)
(1.32371e-07 -9.63954e-09 0 1.60714e-07 0 1.46491e-07)
(1.33483e-07 -9.98203e-09 0 1.59309e-07 0 1.46345e-07)
(1.34766e-07 -1.02217e-08 0 1.5771e-07 0 1.46188e-07)
(1.36176e-07 -1.03562e-08 0 1.5597e-07 0 1.46027e-07)
(1.3763e-07 -1.04028e-08 0 1.54217e-07 0 1.45882e-07)
(1.39119e-07 -1.04051e-08 0 1.52485e-07 0 1.45763e-07)
(1.40639e-07 -1.03966e-08 0 1.50787e-07 0 1.45676e-07)
(1.422e-07 -1.03724e-08 0 1.49107e-07 0 1.45617e-07)
(1.4379e-07 -1.03633e-08 0 1.47454e-07 0 1.45587e-07)
(1.4541e-07 -1.03386e-08 0 1.45826e-07 0 1.45584e-07)
(1.4707e-07 -1.03214e-08 0 1.44211e-07 0 1.45607e-07)
(1.4874e-07 -1.02595e-08 0 1.42641e-07 0 1.45654e-07)
(1.50456e-07 -1.01806e-08 0 1.41064e-07 0 1.45723e-07)
(1.52141e-07 -1.00084e-08 0 1.39545e-07 0 1.45807e-07)
(1.53771e-07 -9.74598e-09 0 1.38104e-07 0 1.45901e-07)
(1.55266e-07 -9.33879e-09 0 1.36805e-07 0 1.45995e-07)
(1.565e-07 -8.82349e-09 0 1.35725e-07 0 1.46069e-07)
(1.5737e-07 -8.24092e-09 0 1.34912e-07 0 1.46104e-07)
(1.57849e-07 -7.59112e-09 0 1.34379e-07 0 1.46091e-07)
(1.57916e-07 -6.91576e-09 0 1.34176e-07 0 1.46036e-07)
(1.57558e-07 -6.30163e-09 0 1.34323e-07 0 1.45944e-07)
(1.5685e-07 -5.76423e-09 0 1.3479e-07 0 1.45827e-07)
(1.55882e-07 -5.37013e-09 0 1.35497e-07 0 1.45698e-07)
(1.54733e-07 -5.15907e-09 0 1.36391e-07 0 1.45572e-07)
(1.53578e-07 -5.08331e-09 0 1.37333e-07 0 1.45465e-07)
(1.52478e-07 -5.12479e-09 0 1.38273e-07 0 1.45383e-07)
(1.51503e-07 -5.19902e-09 0 1.39157e-07 0 1.45329e-07)
(1.50647e-07 -5.30434e-09 0 1.39925e-07 0 1.45285e-07)
(1.49833e-07 -5.34987e-09 0 1.40678e-07 0 1.45252e-07)
(1.49065e-07 -5.37569e-09 0 1.41384e-07 0 1.45223e-07)
(1.48285e-07 -5.32981e-09 0 1.42107e-07 0 1.45196e-07)
(1.47463e-07 -5.25748e-09 0 1.42872e-07 0 1.4517e-07)
(1.46596e-07 -5.15768e-09 0 1.43689e-07 0 1.45148e-07)
(1.45668e-07 -5.05638e-09 0 1.44586e-07 0 1.45134e-07)
(1.44694e-07 -4.97252e-09 0 1.45549e-07 0 1.4513e-07)
(1.437e-07 -4.91726e-09 0 1.46563e-07 0 1.45141e-07)
(1.42713e-07 -4.91064e-09 0 1.47598e-07 0 1.45165e-07)
(1.41759e-07 -4.95459e-09 0 1.48631e-07 0 1.45203e-07)
(1.40874e-07 -5.059e-09 0 1.49619e-07 0 1.45253e-07)
(1.40093e-07 -5.2141e-09 0 1.50523e-07 0 1.45311e-07)
(1.3944e-07 -5.41833e-09 0 1.51306e-07 0 1.45371e-07)
(1.3893e-07 -5.65646e-09 0 1.51941e-07 0 1.45428e-07)
(1.38574e-07 -5.91927e-09 0 1.52403e-07 0 1.45477e-07)
(1.38373e-07 -6.18858e-09 0 1.52685e-07 0 1.45514e-07)
(1.38324e-07 -6.4503e-09 0 1.52781e-07 0 1.45536e-07)
(1.3842e-07 -6.69406e-09 0 1.52704e-07 0 1.45544e-07)
(1.38648e-07 -6.91013e-09 0 1.52466e-07 0 1.45539e-07)
(1.3898e-07 -7.08478e-09 0 1.52101e-07 0 1.45524e-07)
(1.39401e-07 -7.22098e-09 0 1.5163e-07 0 1.455e-07)
(1.39888e-07 -7.31932e-09 0 1.51081e-07 0 1.4547e-07)
(1.40424e-07 -7.38217e-09 0 1.50477e-07 0 1.45439e-07)
(1.40992e-07 -7.41415e-09 0 1.49842e-07 0 1.45407e-07)
(1.41576e-07 -7.41993e-09 0 1.49194e-07 0 1.45377e-07)
(1.42166e-07 -7.40345e-09 0 1.48546e-07 0 1.45349e-07)
(1.42749e-07 -7.37103e-09 0 1.47913e-07 0 1.45325e-07)
(1.43317e-07 -7.32544e-09 0 1.47302e-07 0 1.45305e-07)
(1.43865e-07 -7.27046e-09 0 1.46719e-07 0 1.45289e-07)
(1.44385e-07 -7.20989e-09 0 1.46171e-07 0 1.45276e-07)
(1.44877e-07 -7.14433e-09 0 1.4566e-07 0 1.45267e-07)
(1.45336e-07 -7.0759e-09 0 1.45186e-07 0 1.4526e-07)
(1.4576e-07 -7.00594e-09 0 1.44753e-07 0 1.45256e-07)
(1.46145e-07 -6.93615e-09 0 1.44362e-07 0 1.45253e-07)
(1.46495e-07 -6.86413e-09 0 1.44008e-07 0 1.45251e-07)
(1.46804e-07 -6.79332e-09 0 1.43697e-07 0 1.4525e-07)
(1.47073e-07 -6.72327e-09 0 1.43426e-07 0 1.4525e-07)
(1.47302e-07 -6.65384e-09 0 1.43196e-07 0 1.45249e-07)
(1.47491e-07 -6.58648e-09 0 1.43005e-07 0 1.45249e-07)
(1.47642e-07 -6.52074e-09 0 1.42851e-07 0 1.45248e-07)
(1.47754e-07 -6.45784e-09 0 1.42735e-07 0 1.45246e-07)
(1.4783e-07 -6.39814e-09 0 1.42655e-07 0 1.45244e-07)
(1.47871e-07 -6.34157e-09 0 1.42608e-07 0 1.45241e-07)
(1.47879e-07 -6.28966e-09 0 1.42592e-07 0 1.45237e-07)
(1.47858e-07 -6.24203e-09 0 1.42605e-07 0 1.45233e-07)
(1.47809e-07 -6.19868e-09 0 1.42645e-07 0 1.45229e-07)
(1.47736e-07 -6.16085e-09 0 1.42708e-07 0 1.45224e-07)
(1.47643e-07 -6.12724e-09 0 1.42793e-07 0 1.4522e-07)
(1.4753e-07 -6.1001e-09 0 1.42893e-07 0 1.45215e-07)
(1.47403e-07 -6.07519e-09 0 1.43015e-07 0 1.45211e-07)
(1.47267e-07 -6.05824e-09 0 1.43136e-07 0 1.45205e-07)
(1.47125e-07 -6.03968e-09 0 1.43277e-07 0 1.45203e-07)
(1.46972e-07 -6.03148e-09 0 1.43415e-07 0 1.45197e-07)
(1.46805e-07 -6.02074e-09 0 1.43569e-07 0 1.45192e-07)
(1.30646e-07 -7.44341e-09 0 1.62669e-07 0 1.46577e-07)
(1.30348e-07 -8.5008e-09 0 1.63203e-07 0 1.4671e-07)
(1.30627e-07 -9.49478e-09 0 1.62979e-07 0 1.4674e-07)
(1.31302e-07 -1.02624e-08 0 1.62136e-07 0 1.46666e-07)
(1.32194e-07 -1.09043e-08 0 1.61021e-07 0 1.46563e-07)
(1.33375e-07 -1.13003e-08 0 1.5955e-07 0 1.46415e-07)
(1.34693e-07 -1.15595e-08 0 1.57918e-07 0 1.46256e-07)
(1.36145e-07 -1.16927e-08 0 1.56142e-07 0 1.46093e-07)
(1.37621e-07 -1.17091e-08 0 1.54365e-07 0 1.45944e-07)
(1.39117e-07 -1.16705e-08 0 1.52627e-07 0 1.45822e-07)
(1.4064e-07 -1.16283e-08 0 1.50926e-07 0 1.45732e-07)
(1.422e-07 -1.15872e-08 0 1.49251e-07 0 1.45672e-07)
(1.43794e-07 -1.15286e-08 0 1.47602e-07 0 1.45641e-07)
(1.45435e-07 -1.14887e-08 0 1.45963e-07 0 1.45639e-07)
(1.47121e-07 -1.14405e-08 0 1.44329e-07 0 1.45663e-07)
(1.48814e-07 -1.13455e-08 0 1.42754e-07 0 1.45715e-07)
(1.50579e-07 -1.11651e-08 0 1.41139e-07 0 1.45785e-07)
(1.52306e-07 -1.09405e-08 0 1.3958e-07 0 1.45868e-07)
(1.53975e-07 -1.05848e-08 0 1.38089e-07 0 1.45957e-07)
(1.55507e-07 -1.01063e-08 0 1.36725e-07 0 1.46041e-07)
(1.56783e-07 -9.45343e-09 0 1.35572e-07 0 1.46102e-07)
(1.5766e-07 -8.74833e-09 0 1.34711e-07 0 1.46121e-07)
(1.58152e-07 -7.90339e-09 0 1.34116e-07 0 1.46089e-07)
(1.58173e-07 -7.04908e-09 0 1.33902e-07 0 1.46011e-07)
(1.57764e-07 -6.22933e-09 0 1.3406e-07 0 1.459e-07)
(1.56984e-07 -5.57144e-09 0 1.34565e-07 0 1.4577e-07)
(1.5591e-07 -5.08151e-09 0 1.3534e-07 0 1.45628e-07)
(1.5471e-07 -4.81727e-09 0 1.36286e-07 0 1.45503e-07)
(1.53509e-07 -4.74201e-09 0 1.37284e-07 0 1.454e-07)
(1.52408e-07 -4.82069e-09 0 1.38245e-07 0 1.45327e-07)
(1.5141e-07 -4.94664e-09 0 1.39159e-07 0 1.4528e-07)
(1.50564e-07 -5.09885e-09 0 1.39928e-07 0 1.45242e-07)
(1.49772e-07 -5.16176e-09 0 1.40671e-07 0 1.45216e-07)
(1.49035e-07 -5.19158e-09 0 1.41357e-07 0 1.45193e-07)
(1.48276e-07 -5.13633e-09 0 1.42064e-07 0 1.45169e-07)
(1.47469e-07 -5.04857e-09 0 1.42814e-07 0 1.45144e-07)
(1.46611e-07 -4.91866e-09 0 1.43627e-07 0 1.45124e-07)
(1.45683e-07 -4.79106e-09 0 1.44526e-07 0 1.45111e-07)
(1.44699e-07 -4.68232e-09 0 1.455e-07 0 1.45108e-07)
(1.4369e-07 -4.61192e-09 0 1.46531e-07 0 1.4512e-07)
(1.42685e-07 -4.60282e-09 0 1.47587e-07 0 1.45145e-07)
(1.41713e-07 -4.65399e-09 0 1.48643e-07 0 1.45186e-07)
(1.40807e-07 -4.78232e-09 0 1.49658e-07 0 1.45239e-07)
(1.4001e-07 -4.97238e-09 0 1.50587e-07 0 1.453e-07)
(1.39343e-07 -5.2245e-09 0 1.51393e-07 0 1.45365e-07)
(1.38826e-07 -5.51895e-09 0 1.52045e-07 0 1.45428e-07)
(1.38467e-07 -5.84102e-09 0 1.5252e-07 0 1.45481e-07)
(1.3827e-07 -6.17408e-09 0 1.52808e-07 0 1.45523e-07)
(1.38231e-07 -6.49744e-09 0 1.52902e-07 0 1.45549e-07)
(1.3834e-07 -6.79479e-09 0 1.52818e-07 0 1.4556e-07)
(1.38586e-07 -7.06226e-09 0 1.52568e-07 0 1.45558e-07)
(1.38935e-07 -7.27603e-09 0 1.52188e-07 0 1.45544e-07)
(1.39373e-07 -7.44266e-09 0 1.51702e-07 0 1.45521e-07)
(1.39877e-07 -7.56178e-09 0 1.51137e-07 0 1.45492e-07)
(1.40426e-07 -7.63773e-09 0 1.50521e-07 0 1.4546e-07)
(1.41007e-07 -7.6753e-09 0 1.49872e-07 0 1.45428e-07)
(1.416e-07 -7.68057e-09 0 1.49213e-07 0 1.45397e-07)
(1.42197e-07 -7.65991e-09 0 1.48556e-07 0 1.45369e-07)
(1.42784e-07 -7.61853e-09 0 1.47915e-07 0 1.45344e-07)
(1.43355e-07 -7.5624e-09 0 1.47298e-07 0 1.45323e-07)
(1.43906e-07 -7.49398e-09 0 1.46711e-07 0 1.45305e-07)
(1.44426e-07 -7.41979e-09 0 1.4616e-07 0 1.45291e-07)
(1.44918e-07 -7.33907e-09 0 1.45645e-07 0 1.4528e-07)
(1.45377e-07 -7.25493e-09 0 1.45169e-07 0 1.45272e-07)
(1.458e-07 -7.16975e-09 0 1.44734e-07 0 1.45266e-07)
(1.46185e-07 -7.0833e-09 0 1.4434e-07 0 1.45262e-07)
(1.46532e-07 -6.99618e-09 0 1.43986e-07 0 1.45259e-07)
(1.46841e-07 -6.90884e-09 0 1.43673e-07 0 1.45257e-07)
(1.47107e-07 -6.82344e-09 0 1.43402e-07 0 1.45255e-07)
(1.47336e-07 -6.738e-09 0 1.4317e-07 0 1.45254e-07)
(1.47523e-07 -6.65546e-09 0 1.42978e-07 0 1.45252e-07)
(1.47672e-07 -6.57516e-09 0 1.42825e-07 0 1.4525e-07)
(1.47781e-07 -6.49809e-09 0 1.42709e-07 0 1.45247e-07)
(1.47854e-07 -6.4249e-09 0 1.42629e-07 0 1.45244e-07)
(1.47893e-07 -6.35585e-09 0 1.42583e-07 0 1.4524e-07)
(1.47899e-07 -6.29228e-09 0 1.42568e-07 0 1.45236e-07)
(1.47874e-07 -6.23397e-09 0 1.42583e-07 0 1.45231e-07)
(1.47823e-07 -6.18102e-09 0 1.42623e-07 0 1.45226e-07)
(1.47747e-07 -6.13479e-09 0 1.42688e-07 0 1.45221e-07)
(1.47652e-07 -6.09375e-09 0 1.42774e-07 0 1.45216e-07)
(1.47536e-07 -6.06048e-09 0 1.42877e-07 0 1.4521e-07)
(1.47407e-07 -6.03041e-09 0 1.43e-07 0 1.45206e-07)
(1.47269e-07 -6.00953e-09 0 1.43123e-07 0 1.452e-07)
(1.47125e-07 -5.9879e-09 0 1.43266e-07 0 1.45198e-07)
(1.4697e-07 -5.97744e-09 0 1.43403e-07 0 1.45191e-07)
(1.46808e-07 -5.96577e-09 0 1.4356e-07 0 1.45188e-07)
(1.3027e-07 -7.58091e-09 0 1.63313e-07 0 1.4669e-07)
(1.30019e-07 -8.87792e-09 0 1.63825e-07 0 1.46839e-07)
(1.3033e-07 -1.0056e-08 0 1.63616e-07 0 1.4689e-07)
(1.31083e-07 -1.10112e-08 0 1.62701e-07 0 1.46822e-07)
(1.3204e-07 -1.17789e-08 0 1.6152e-07 0 1.46722e-07)
(1.33295e-07 -1.22591e-08 0 1.59964e-07 0 1.4657e-07)
(1.34654e-07 -1.25707e-08 0 1.58272e-07 0 1.46405e-07)
(1.3615e-07 -1.27242e-08 0 1.56431e-07 0 1.46234e-07)
(1.37653e-07 -1.27458e-08 0 1.54598e-07 0 1.46074e-07)
(1.39147e-07 -1.27218e-08 0 1.52843e-07 0 1.45946e-07)
(1.40663e-07 -1.26868e-08 0 1.51133e-07 0 1.45851e-07)
(1.42232e-07 -1.26223e-08 0 1.49428e-07 0 1.45782e-07)
(1.43829e-07 -1.25946e-08 0 1.4776e-07 0 1.45747e-07)
(1.45465e-07 -1.25289e-08 0 1.46118e-07 0 1.4574e-07)
(1.47173e-07 -1.25058e-08 0 1.44449e-07 0 1.45761e-07)
(1.48913e-07 -1.24056e-08 0 1.42799e-07 0 1.45803e-07)
(1.50713e-07 -1.22655e-08 0 1.41121e-07 0 1.45866e-07)
(1.52502e-07 -1.1967e-08 0 1.39473e-07 0 1.45938e-07)
(1.54218e-07 -1.15522e-08 0 1.37907e-07 0 1.46016e-07)