/*--------------------------------*- C++ -*----------------------------------*\
| =========                 |                                                 |
| \\      /  F ield         | OpenFOAM: The Open Source CFD Toolbox           |
|  \\    /   O peration     | Version:  v1912                                 |
|   \\  /    A nd           | Website:  www.openfoam.com                      |
|    \\/     M anipulation  |                                                 |
\*---------------------------------------------------------------------------*/
FoamFile
{
    version     2.0;
    format      ascii;
    class       volScalarField;
    location    "10";
    object      p_rgh;
}
// * * * * * * * * * * * * * * * * * * * * * * * * * * * * * * * * * * * * * //

dimensions      [1 -1 -2 0 0 0 0];


internalField   nonuniform List<scalar> 
14268
(
0.0522788
0.0504014
0.0485875
0.046835
0.0451419
0.0435063
0.0419263
0.0404002
0.0389262
0.0375027
0.036128
0.0348005
0.0335187
0.0322811
0.0310864
0.029933
0.0288197
0.0277452
0.0267081
0.0257073
0.0247416
0.0238099
0.022911
0.0220438
0.0212073
0.0204005
0.0196224
0.0188721
0.0181486
0.017451
0.0167785
0.0161303
0.0155054
0.0149032
0.0143229
0.0137637
0.0132249
0.0127058
0.0122057
0.0117241
0.0112602
0.0108135
0.0103834
0.00996922
0.00957051
0.00918671
0.0088173
0.00846178
0.00811965
0.00779046
0.00747375
0.00716908
0.00687602
0.00659416
0.0063231
0.00606246
0.00581187
0.00557096
0.00533939
0.00511682
0.00490293
0.0046974
0.00449993
0.00431023
0.00412801
0.00395299
0.00378491
0.00362353
0.00346858
0.00331983
0.00317705
0.00304002
0.00290852
0.00278235
0.0026613
0.00254518
0.0024338
0.00232699
0.00222457
0.00212637
0.00203224
0.001942
0.00185552
0.00177265
0.00169325
0.00161719
0.00154432
0.00147453
0.00140771
0.00134372
0.00128246
0.00122381
0.00116769
0.00111398
0.00106259
0.00101342
0.000966395
0.000921398
0.000878404
0.00083724
0.000797967
0.000760307
0.000724489
0.000690006
0.000657426
0.000625776
0.00059629
0.000567079
0.000540648
0.000513398
0.000490128
0.000464221
0.000444418
0.000419047
0.000403258
0.000377386
0.00036643
0.000338782
0.000333715
0.000302856
0.000304849
0.000269354
0.000279459
0.000238195
0.000257024
0.000209497
0.000236868
0.000183558
0.000218214
0.000160755
0.000200301
0.000141403
0.000182547
0.000125589
0.000164693
0.000113064
0.000146872
0.000103229
0.000129544
9.52587e-05
0.000113323
8.82996e-05
9.87607e-05
8.16852e-05
8.61656e-05
7.50584e-05
7.55394e-05
6.83691e-05
6.6639e-05
6.17686e-05
0.0522748
0.0503976
0.0485838
0.0468314
0.0451384
0.0435029
0.0419231
0.0403971
0.0389232
0.0374998
0.0361252
0.0347978
0.0335161
0.0322786
0.0310839
0.0299306
0.0288174
0.027743
0.026706
0.0257053
0.0247397
0.023808
0.0229091
0.022042
0.0212056
0.0203989
0.0196208
0.0188706
0.0181471
0.0174496
0.0167772
0.016129
0.0155042
0.014902
0.0143217
0.0137625
0.0132237
0.0127047
0.0122047
0.0117231
0.0112593
0.0108126
0.0103825
0.00996836
0.00956968
0.00918591
0.00881653
0.00846104
0.00811894
0.00778978
0.00747309
0.00716844
0.0068754
0.00659357
0.00632253
0.00606191
0.00581134
0.00557045
0.0053389
0.00511635
0.00490248
0.00469697
0.00449952
0.00430983
0.00412762
0.00395262
0.00378456
0.00362318
0.00346825
0.00331951
0.00317674
0.00303972
0.00290824
0.00278207
0.00266103
0.00254492
0.00243356
0.00232676
0.00222435
0.00212616
0.00203203
0.0019418
0.00185533
0.00177247
0.00169307
0.00161701
0.00154416
0.00147438
0.00140755
0.00134357
0.00128231
0.00122368
0.00116756
0.00111385
0.00106247
0.0010133
0.000966283
0.00092129
0.0008783
0.000837139
0.000797871
0.000760214
0.0007244
0.00068992
0.000657343
0.000625695
0.000596213
0.000567004
0.000540577
0.000513327
0.000490063
0.000464154
0.000444358
0.000418983
0.000403204
0.000377324
0.000366381
0.000338722
0.000333672
0.000302797
0.000304812
0.000269295
0.000279428
0.000238135
0.000256999
0.000209438
0.000236847
0.0001835
0.000218195
0.000160699
0.000200283
0.000141351
0.000182528
0.000125542
0.000164672
0.000113023
0.000146849
0.000103194
0.000129518
9.52273e-05
0.000113296
8.82715e-05
9.87335e-05
8.16592e-05
8.61388e-05
7.50337e-05
7.55136e-05
6.83451e-05
6.66143e-05
6.17452e-05
0.0522708
0.0503937
0.04858
0.0468277
0.0451349
0.0434995
0.0419198
0.0403939
0.0389201
0.0374968
0.0361223
0.034795
0.0335134
0.032276
0.0310814
0.0299282
0.0288151
0.0277407
0.0267038
0.0257032
0.0247376
0.023806
0.0229072
0.0220402
0.0212038
0.0203972
0.0196192
0.018869
0.0181456
0.0174481
0.0167757
0.0161276
0.0155028
0.0149007
0.0143204
0.0137613
0.0132226
0.0127036
0.0122036
0.011722
0.0112582
0.0108116
0.0103815
0.00996744
0.0095688
0.00918506
0.00881571
0.00846024
0.00811817
0.00778904
0.00747238
0.00716775
0.00687474
0.00659292
0.00632191
0.00606131
0.00581076
0.00556989
0.00533836
0.00511583
0.00490197
0.00469648
0.00449904
0.00430937
0.00412718
0.00395219
0.00378414
0.00362278
0.00346786
0.00331914
0.00317638
0.00303937
0.0029079
0.00278174
0.00266072
0.00254462
0.00243326
0.00232647
0.00222407
0.00212589
0.00203177
0.00194155
0.00185508
0.00177223
0.00169284
0.00161679
0.00154394
0.00147416
0.00140735
0.00134337
0.00128212
0.00122349
0.00116737
0.00111367
0.00106229
0.00101313
0.000966117
0.000921128
0.000878142
0.000836985
0.000797721
0.000760067
0.000724256
0.000689779
0.000657207
0.000625561
0.000596082
0.000566875
0.000540452
0.000513202
0.000489943
0.000464034
0.000444244
0.000418866
0.000403095
0.000377209
0.000366278
0.000338608
0.000333575
0.000302684
0.000304721
0.000269182
0.000279343
0.000238022
0.000256919
0.000209326
0.000236771
0.000183389
0.000218121
0.000160591
0.00020021
0.000141247
0.000182453
0.000125444
0.000164595
0.00011293
0.00014677
0.000103106
0.000129437
9.51442e-05
0.000113213
8.81914e-05
9.86508e-05
8.15808e-05
8.6057e-05
7.4956e-05
7.54331e-05
6.82678e-05
6.65353e-05
6.16681e-05
0.0522667
0.0503897
0.0485762
0.046824
0.0451313
0.043496
0.0419164
0.0403907
0.038917
0.0374938
0.0361194
0.0347921
0.0335106
0.0322733
0.0310788
0.0299257
0.0288127
0.0277384
0.0267016
0.025701
0.0247355
0.023804
0.0229053
0.0220383
0.021202
0.0203954
0.0196175
0.0188673
0.018144
0.0174466
0.0167742
0.0161261
0.0155014
0.0148993
0.0143191
0.01376
0.0132214
0.0127024
0.0122025
0.011721
0.0112572
0.0108106
0.0103805
0.00996648
0.00956787
0.00918416
0.00881484
0.0084594
0.00811736
0.00778825
0.00747162
0.00716702
0.00687403
0.00659223
0.00632124
0.00606067
0.00581014
0.00556929
0.00533778
0.00511526
0.00490143
0.00469595
0.00449853
0.00430887
0.00412669
0.00395172
0.00378369
0.00362234
0.00346743
0.00331872
0.00317598
0.00303899
0.00290752
0.00278138
0.00266036
0.00254427
0.00243293
0.00232614
0.00222375
0.00212558
0.00203147
0.00194126
0.0018548
0.00177195
0.00169257
0.00161653
0.00154368
0.00147391
0.0014071
0.00134313
0.00128189
0.00122326
0.00116715
0.00111346
0.00106208
0.00101292
0.000965913
0.000920929
0.000877947
0.000836794
0.000797533
0.000759883
0.000724076
0.000689602
0.000657033
0.00062539
0.000595915
0.000566709
0.00054029
0.000513041
0.000489787
0.000463877
0.000444093
0.000418713
0.00040295
0.000377058
0.000366138
0.000338459
0.000333441
0.000302536
0.000304592
0.000269035
0.000279219
0.000237876
0.0002568
0.00020918
0.000236655
0.000183245
0.000218007
0.000160451
0.000200096
0.000141111
0.000182339
0.000125313
0.000164479
0.000112804
0.000146651
0.000102985
0.000129316
9.50272e-05
0.000113092
8.80767e-05
9.85305e-05
8.14672e-05
8.59381e-05
7.48428e-05
7.5316e-05
6.81546e-05
6.64199e-05
6.1555e-05
0.0522626
0.0503857
0.0485723
0.0468203
0.0451277
0.0434926
0.0419131
0.0403874
0.0389139
0.0374908
0.0361164
0.0347893
0.0335079
0.0322707
0.0310763
0.0299233
0.0288103
0.0277361
0.0266993
0.0256989
0.0247335
0.023802
0.0229033
0.0220364
0.0212002
0.0203936
0.0196158
0.0188657
0.0181424
0.0174451
0.0167728
0.0161247
0.0155
0.014898
0.0143178
0.0137588
0.0132202
0.0127012
0.0122014
0.0117199
0.0112562
0.0108096
0.0103796
0.00996555
0.00956697
0.00918329
0.008814
0.00845859
0.00811658
0.0077875
0.00747089
0.00716631
0.00687334
0.00659158
0.00632061
0.00606005
0.00580954
0.00556871
0.00533722
0.00511473
0.00490091
0.00469545
0.00449805
0.0043084
0.00412624
0.00395128
0.00378327
0.00362193
0.00346704
0.00331834
0.00317561
0.00303863
0.00290717
0.00278104
0.00266003
0.00254396
0.00243262
0.00232585
0.00222346
0.0021253
0.0020312
0.00194099
0.00185455
0.00177171
0.00169233
0.00161629
0.00154346
0.00147369
0.00140689
0.00134292
0.00128169
0.00122307
0.00116696
0.00111327
0.0010619
0.00101275
0.000965742
0.000920762
0.000877784
0.000836635
0.000797377
0.000759731
0.000723927
0.000689457
0.000656891
0.00062525
0.000595779
0.000566575
0.00054016
0.000512912
0.000489662
0.000463752
0.000443973
0.000418591
0.000402835
0.00037694
0.000366029
0.000338343
0.000333337
0.000302421
0.000304493
0.000268921
0.000279125
0.000237763
0.000256709
0.00020907
0.000236568
0.000183137
0.000217922
0.000160346
0.000200011
0.000141011
0.000182252
0.000125217
0.00016439
0.000112714
0.000146561
0.000102899
0.000129225
9.49438e-05
0.000113002
8.7995e-05
9.84409e-05
8.13862e-05
8.58504e-05
7.47618e-05
7.52303e-05
6.80734e-05
6.6336e-05
6.14737e-05
0.0522585
0.0503818
0.0485685
0.0468166
0.0451241
0.0434891
0.0419097
0.0403842
0.0389108
0.0374877
0.0361135
0.0347865
0.0335052
0.0322681
0.0310738
0.0299208
0.0288079
0.0277338
0.0266971
0.0256967
0.0247314
0.0238
0.0229014
0.0220346
0.0211984
0.0203919
0.0196141
0.0188641
0.0181409
0.0174436
0.0167713
0.0161233
0.0154987
0.0148967
0.0143166
0.0137576
0.013219
0.0127001
0.0122003
0.0117188
0.0112551
0.0108086
0.0103786
0.00996465
0.0095661
0.00918245
0.00881319
0.00845781
0.00811583
0.00778677
0.00747019
0.00716564
0.00687269
0.00659095
0.00632
0.00605947
0.00580898
0.00556817
0.0053367
0.00511423
0.00490043
0.00469498
0.0044976
0.00430797
0.00412583
0.00395088
0.00378288
0.00362156
0.00346668
0.00331799
0.00317528
0.0030383
0.00290686
0.00278074
0.00265975
0.00254368
0.00243235
0.00232559
0.00222321
0.00212506
0.00203096
0.00194077
0.00185433
0.0017715
0.00169213
0.0016161
0.00154327
0.00147351
0.00140671
0.00134275
0.00128152
0.00122291
0.00116681
0.00111312
0.00106176
0.00101261
0.000965608
0.000920632
0.000877658
0.000836513
0.00079726
0.000759617
0.000723817
0.000689349
0.000656787
0.000625149
0.000595681
0.000566479
0.000540067
0.000512822
0.000489575
0.000463666
0.000443892
0.000418509
0.000402759
0.00037686
0.000365957
0.000338266
0.00033327
0.000302347
0.000304431
0.000268849
0.000279067
0.000237693
0.000256655
0.000209001
0.000236516
0.000183071
0.000217871
0.000160284
0.00019996
0.000140953
0.000182201
0.000125165
0.000164338
0.000112666
0.000146507
0.000102855
0.000129172
9.4902e-05
0.000112949
8.79544e-05
9.83897e-05
8.13457e-05
8.58015e-05
7.47209e-05
7.51838e-05
6.80321e-05
6.62916e-05
6.14323e-05
0.0522544
0.0503778
0.0485647
0.0468129
0.0451205
0.0434857
0.0419064
0.040381
0.0389076
0.0374847
0.0361106
0.0347837
0.0335025
0.0322655
0.0310712
0.0299184
0.0288056
0.0277315
0.0266949
0.0256946
0.0247294
0.023798
0.0228995
0.0220327
0.0211966
0.0203902
0.0196125
0.0188625
0.0181393
0.0174421
0.0167699
0.0161219
0.0154974
0.0148954
0.0143154
0.0137564
0.0132179
0.012699
0.0121992
0.0117178
0.0112542
0.0108077
0.0103777
0.00996376
0.00956525
0.00918163
0.0088124
0.00845705
0.00811509
0.00778607
0.00746951
0.00716498
0.00687207
0.00659034
0.00631942
0.00605891
0.00580844
0.00556765
0.0053362
0.00511375
0.00489996
0.00469454
0.00449717
0.00430756
0.00412543
0.0039505
0.00378251
0.00362121
0.00346634
0.00331767
0.00317496
0.003038
0.00290657
0.00278047
0.00265948
0.00254342
0.00243211
0.00232535
0.00222299
0.00212484
0.00203075
0.00194057
0.00185414
0.00177131
0.00169195
0.00161593
0.0015431
0.00147335
0.00140656
0.00134261
0.00128138
0.00122277
0.00116668
0.001113
0.00106164
0.00101249
0.000965497
0.000920526
0.000877556
0.000836415
0.000797166
0.000759527
0.00072373
0.000689266
0.000656707
0.000625072
0.000595607
0.000566408
0.000539999
0.000512755
0.000489513
0.000463604
0.000443834
0.000418451
0.000402706
0.000376806
0.000365909
0.000338215
0.000333227
0.000302298
0.000304392
0.000268802
0.000279032
0.000237649
0.000256623
0.00020896
0.000236485
0.000183033
0.000217841
0.00016025
0.000199931
0.000140924
0.00018217
0.00012514
0.000164306
0.000112645
0.000146475
0.000102837
0.00012914
9.48864e-05
0.000112918
8.79393e-05
9.83615e-05
8.13303e-05
8.57761e-05
7.47048e-05
7.51611e-05
6.80153e-05
6.62713e-05
6.14151e-05
0.0522502
0.0503738
0.0485608
0.0468092
0.0451169
0.0434822
0.041903
0.0403777
0.0389045
0.0374817
0.0361077
0.0347809
0.0334998
0.0322628
0.0310687
0.0299159
0.0288032
0.0277292
0.0266927
0.0256925
0.0247273
0.023796
0.0228976
0.0220309
0.0211949
0.0203885
0.0196108
0.0188609
0.0181378
0.0174406
0.0167685
0.0161205
0.015496
0.0148942
0.0143141
0.0137552
0.0132167
0.0126979
0.0121982
0.0117168
0.0112532
0.0108067
0.0103768
0.00996288
0.0095644
0.00918081
0.00881161
0.00845629
0.00811436
0.00778536
0.00746883
0.00716433
0.00687144
0.00658974
0.00631884
0.00605835
0.00580791
0.00556714
0.00533571
0.00511327
0.0048995
0.0046941
0.00449675
0.00430715
0.00412504
0.00395013
0.00378215
0.00362086
0.00346601
0.00331735
0.00317466
0.00303771
0.00290629
0.00278019
0.00265922
0.00254317
0.00243187
0.00232512
0.00222276
0.00212463
0.00203055
0.00194037
0.00185395
0.00177113
0.00169178
0.00161576
0.00154294
0.0014732
0.00140642
0.00134247
0.00128125
0.00122265
0.00116656
0.00111288
0.00106152
0.00101239
0.000965394
0.000920427
0.000877461
0.000836324
0.000797079
0.000759443
0.00072365
0.000689189
0.000656633
0.000625001
0.00059554
0.000566343
0.000539938
0.000512696
0.000489457
0.000463549
0.000443783
0.000418401
0.00040266
0.000376759
0.000365867
0.000338171
0.000333189
0.000302257
0.000304358
0.000268765
0.000279001
0.000237614
0.000256594
0.000208928
0.000236459
0.000183006
0.000217815
0.000160227
0.000199904
0.000140905
0.000182143
0.000125126
0.000164278
0.000112635
0.000146447
0.00010283
0.000129113
9.488e-05
0.000112893
8.79329e-05
9.83393e-05
8.13231e-05
8.57572e-05
7.46964e-05
7.51453e-05
6.8006e-05
6.62579e-05
6.14054e-05
0.0522461
0.0503698
0.048557
0.0468054
0.0451133
0.0434787
0.0418997
0.0403745
0.0389014
0.0374787
0.0361048
0.034778
0.033497
0.0322602
0.0310661
0.0299135
0.0288008
0.0277269
0.0266905
0.0256903
0.0247252
0.0237941
0.0228957
0.022029
0.0211931
0.0203868
0.0196092
0.0188593
0.0181362
0.0174391
0.016767
0.0161192
0.0154947
0.0148929
0.0143129
0.013754
0.0132156
0.0126968
0.0121971
0.0117157
0.0112522
0.0108057
0.0103759
0.00996199
0.00956354
0.00917999
0.00881082
0.00845553
0.00811363
0.00778466
0.00746815
0.00716368
0.00687081
0.00658914
0.00631826
0.00605779
0.00580737
0.00556662
0.00533521
0.00511279
0.00489905
0.00469366
0.00449632
0.00430675
0.00412465
0.00394975
0.00378179
0.00362052
0.00346567
0.00331703
0.00317435
0.00303741
0.00290601
0.00277992
0.00265896
0.00254292
0.00243163
0.00232489
0.00222254
0.00212442
0.00203035
0.00194018
0.00185376
0.00177095
0.00169161
0.0016156
0.00154279
0.00147305
0.00140627
0.00134233
0.00128112
0.00122252
0.00116644
0.00111276
0.00106141
0.00101228
0.000965292
0.00092033
0.000877368
0.000836235
0.000796994
0.000759362
0.000723572
0.000689115
0.000656562
0.000624933
0.000595475
0.000566281
0.000539879
0.000512639
0.000489403
0.000463498
0.000443734
0.000418353
0.000402615
0.000376716
0.000365827
0.000338131
0.000333152
0.000302221
0.000304325
0.000268731
0.00027897
0.000237584
0.000256566
0.000208903
0.000236431
0.000182984
0.000217788
0.00016021
0.000199877
0.000140893
0.000182115
0.000125118
0.00016425
0.00011263
0.000146419
0.000102827
0.000129086
9.48784e-05
0.000112869
8.79308e-05
9.83188e-05
8.13196e-05
8.57404e-05
7.46914e-05
7.51319e-05
6.79998e-05
6.62473e-05
6.13986e-05
0.0522419
0.0503658
0.0485531
0.0468017
0.0451097
0.0434752
0.0418963
0.0403712
0.0388982
0.0374756
0.0361018
0.0347752
0.0334943
0.0322575
0.0310636
0.029911
0.0287984
0.0277246
0.0266883
0.0256882
0.0247232
0.0237921
0.0228937
0.0220272
0.0211913
0.020385
0.0196075
0.0188577
0.0181347
0.0174376
0.0167656
0.0161178
0.0154934
0.0148916
0.0143116
0.0137528
0.0132144
0.0126957
0.012196
0.0117147
0.0112512
0.0108048
0.0103749
0.0099611
0.00956268
0.00917916
0.00881002
0.00845476
0.00811289
0.00778395
0.00746747
0.00716302
0.00687018
0.00658853
0.00631767
0.00605723
0.00580683
0.0055661
0.00533471
0.00511231
0.00489858
0.00469321
0.0044959
0.00430634
0.00412425
0.00394937
0.00378143
0.00362017
0.00346534
0.00331671
0.00317404
0.00303712
0.00290572
0.00277965
0.0026587
0.00254267
0.00243138
0.00232466
0.00222232
0.0021242
0.00203014
0.00193998
0.00185358
0.00177077
0.00169144
0.00161543
0.00154263
0.0014729
0.00140613
0.00134219
0.00128098
0.00122239
0.00116631
0.00111265
0.0010613
0.00101217
0.00096519
0.000920232
0.000877275
0.000836146
0.000796908
0.00075928
0.000723494
0.00068904
0.000656491
0.000624865
0.00059541
0.000566219
0.00053982
0.000512582
0.000489349
0.000463446
0.000443685
0.000418306
0.00040257
0.000376673
0.000365786
0.000338092
0.000333115
0.000302186
0.00030429
0.0002687
0.000278938
0.000237557
0.000256535
0.00020888
0.000236401
0.000182966
0.000217758
0.000160197
0.000199845
0.000140885
0.000182083
0.000125114
0.000164218
0.000112629
0.000146388
0.000102828
0.000129057
9.48789e-05
0.000112844
8.79301e-05
9.82973e-05
8.13171e-05
8.5723e-05
7.4687e-05
7.51182e-05
6.7994e-05
6.62365e-05
6.13921e-05
0.0522377
0.0503617
0.0485491
0.0467979
0.045106
0.0434716
0.0418929
0.0403679
0.038895
0.0374725
0.0360988
0.0347723
0.0334915
0.0322549
0.031061
0.0299085
0.028796
0.0277223
0.026686
0.025686
0.0247211
0.02379
0.0228918
0.0220253
0.0211895
0.0203833
0.0196058
0.018856
0.0181331
0.0174361
0.0167641
0.0161164
0.015492
0.0148903
0.0143104
0.0137516
0.0132132
0.0126946
0.0121949
0.0117137
0.0112502
0.0108038
0.010374
0.0099602
0.00956182
0.00917833
0.00880922
0.00845399
0.00811215
0.00778323
0.00746678
0.00716236
0.00686954
0.00658792
0.00631709
0.00605666
0.00580628
0.00556558
0.0053342
0.00511183
0.00489812
0.00469277
0.00449547
0.00430592
0.00412386
0.00394899
0.00378106
0.00361982
0.003465
0.00331638
0.00317373
0.00303682
0.00290544
0.00277937
0.00265843
0.00254242
0.00243114
0.00232443
0.0022221
0.00212399
0.00202994
0.00193979
0.00185339
0.00177059
0.00169126
0.00161527
0.00154247
0.00147275
0.00140598
0.00134205
0.00128085
0.00122226
0.00116619
0.00111253
0.00106119
0.00101206
0.000965087
0.000920134
0.000877181
0.000836056
0.000796822
0.000759198
0.000723416
0.000688965
0.000656419
0.000624797
0.000595344
0.000566156
0.00053976
0.000512525
0.000489294
0.000463394
0.000443635
0.000418259
0.000402525
0.00037663
0.000365744
0.000338054
0.000333076
0.000302152
0.000304254
0.000268671
0.000278903
0.000237533
0.000256501
0.00020886
0.000236367
0.000182952
0.000217724
0.000160187
0.000199811
0.00014088
0.000182048
0.000125113
0.000164183
0.000112631
0.000146354
0.000102831
0.000129026
9.48813e-05
0.000112817
8.79309e-05
9.82748e-05
8.13155e-05
8.5705e-05
7.46832e-05
7.51043e-05
6.79886e-05
6.62257e-05
6.13858e-05
0.0522335
0.0503576
0.0485452
0.0467941
0.0451023
0.0434681
0.0418894
0.0403646
0.0388918
0.0374694
0.0360958
0.0347694
0.0334887
0.0322522
0.0310584
0.029906
0.0287936
0.0277199
0.0266838
0.0256838
0.024719
0.023788
0.0228898
0.0220234
0.0211876
0.0203815
0.0196041
0.0188544
0.0181315
0.0174346
0.0167626
0.0161149
0.0154906
0.014889
0.0143091
0.0137504
0.0132121
0.0126934
0.0121938
0.0117126
0.0112492
0.0108028
0.0103731
0.00995929
0.00956095
0.00917749
0.00880841
0.00845321
0.0081114
0.00778251
0.00746609
0.00716169
0.0068689
0.0065873
0.00631649
0.00605609
0.00580573
0.00556505
0.0053337
0.00511134
0.00489765
0.00469232
0.00449503
0.00430551
0.00412346
0.00394861
0.00378069
0.00361946
0.00346466
0.00331606
0.00317342
0.00303652
0.00290515
0.0027791
0.00265817
0.00254216
0.0024309
0.00232419
0.00222187
0.00212377
0.00202973
0.00193959
0.0018532
0.00177041
0.00169109
0.0016151
0.00154231
0.0014726
0.00140583
0.00134191
0.00128071
0.00122213
0.00116607
0.00111241
0.00106108
0.00101196
0.000964984
0.000920034
0.000877086
0.000835965
0.000796735
0.000759115
0.000723336
0.000688889
0.000656347
0.000624728
0.000595278
0.000566094
0.000539699
0.000512468
0.000489239
0.000463342
0.000443584
0.000418212
0.000402478
0.000376588
0.000365701
0.000338017
0.000333036
0.000302119
0.000304215
0.000268643
0.000278866
0.00023751
0.000256464
0.000208843
0.00023633
0.00018294
0.000217686
0.000160181
0.000199772
0.000140879
0.000182009
0.000125115
0.000164144
0.000112636
0.000146318
0.000102836
0.000128993
9.48857e-05
0.000112788
8.7933e-05
9.82511e-05
8.13149e-05
8.56864e-05
7.468e-05
7.50899e-05
6.79834e-05
6.62147e-05
6.13796e-05
0.0522292
0.0503535
0.0485412
0.0467902
0.0450986
0.0434645
0.0418859
0.0403612
0.0388886
0.0374663
0.0360928
0.0347665
0.0334859
0.0322494
0.0310558
0.0299034
0.0287912
0.0277176
0.0266815
0.0256816
0.0247168
0.023786
0.0228879
0.0220215
0.0211858
0.0203797
0.0196024
0.0188528
0.0181299
0.017433
0.0167612
0.0161135
0.0154893
0.0148876
0.0143078
0.0137492
0.0132109
0.0126923
0.0121927
0.0117116
0.0112481
0.0108019
0.0103721
0.00995838
0.00956007
0.00917665
0.0088076
0.00845243
0.00811065
0.00778178
0.00746539
0.00716102
0.00686825
0.00658668
0.00631589
0.00605552
0.00580518
0.00556452
0.00533319
0.00511085
0.00489718
0.00469186
0.0044946
0.00430509
0.00412305
0.00394822
0.00378032
0.0036191
0.00346432
0.00331573
0.0031731
0.00303622
0.00290486
0.00277882
0.0026579
0.0025419
0.00243065
0.00232396
0.00222165
0.00212356
0.00202952
0.00193939
0.00185301
0.00177023
0.00169091
0.00161493
0.00154215
0.00147244
0.00140569
0.00134177
0.00128058
0.001222
0.00116594
0.00111229
0.00106096
0.00101185
0.000964879
0.000919935
0.00087699
0.000835874
0.000796648
0.000759031
0.000723257
0.000688813
0.000656274
0.000624658
0.000595211
0.00056603
0.000539638
0.000512411
0.000489183
0.00046329
0.000443533
0.000418165
0.00040243
0.000376546
0.000365657
0.00033798
0.000332994
0.000302088
0.000304175
0.000268617
0.000278827
0.000237489
0.000256425
0.000208828
0.00023629
0.000182932
0.000217644
0.000160178
0.00019973
0.000140881
0.000181966
0.000125121
0.000164102
0.000112643
0.000146278
0.000102844
0.000128957
9.48917e-05
0.000112757
8.79362e-05
9.8226e-05
8.13148e-05
8.56667e-05
7.4677e-05
7.5075e-05
6.79783e-05
6.62033e-05
6.13733e-05
0.0522249
0.0503494
0.0485372
0.0467864
0.0450949
0.0434609
0.0418825
0.0403578
0.0388853
0.0374632
0.0360898
0.0347636
0.0334831
0.0322467
0.0310531
0.0299009
0.0287887
0.0277152
0.0266792
0.0256794
0.0247147
0.0237839
0.0228859
0.0220196
0.0211839
0.020378
0.0196007
0.0188511
0.0181283
0.0174315
0.0167597
0.0161121
0.0154879
0.0148863
0.0143065
0.0137479
0.0132097
0.0126911
0.0121916
0.0117105
0.0112471
0.0108009
0.0103712
0.00995746
0.00955918
0.00917579
0.00880678
0.00845164
0.00810989
0.00778105
0.00746469
0.00716034
0.0068676
0.00658605
0.00631529
0.00605494
0.00580462
0.00556398
0.00533267
0.00511035
0.0048967
0.0046914
0.00449416
0.00430467
0.00412265
0.00394783
0.00377995
0.00361874
0.00346397
0.0033154
0.00317278
0.00303591
0.00290456
0.00277854
0.00265763
0.00254165
0.0024304
0.00232372
0.00222142
0.00212334
0.00202931
0.00193919
0.00185281
0.00177004
0.00169074
0.00161476
0.00154199
0.00147228
0.00140554
0.00134163
0.00128044
0.00122187
0.00116582
0.00111217
0.00106085
0.00101174
0.000964774
0.000919834
0.000876894
0.000835782
0.00079656
0.000758947
0.000723176
0.000688736
0.0006562
0.000624588
0.000595144
0.000565966
0.000539577
0.000512353
0.000489126
0.000463237
0.000443481
0.000418118
0.000402382
0.000376505
0.000365611
0.000337944
0.00033295
0.000302057
0.000304133
0.000268592
0.000278785
0.000237471
0.000256382
0.000208817
0.000236247
0.000182926
0.0002176
0.000160179
0.000199684
0.000140886
0.00018192
0.00012513
0.000164057
0.000112654
0.000146236
0.000102854
0.000128919
9.48998e-05
0.000112725
8.79409e-05
9.82001e-05
8.13159e-05
8.56467e-05
7.46747e-05
7.50599e-05
6.79736e-05
6.61919e-05
6.13674e-05
0.0522185
0.0503431
0.0485312
0.0467805
0.0450892
0.0434554
0.0418772
0.0403528
0.0388804
0.0374584
0.0360852
0.0347592
0.0334788
0.0322426
0.0310491
0.029897
0.028785
0.0277116
0.0266757
0.0256761
0.0247115
0.0237808
0.0228829
0.0220167
0.0211811
0.0203753
0.0195981
0.0188486
0.0181259
0.0174292
0.0167574
0.0161099
0.0154858
0.0148843
0.0143046
0.013746
0.0132079
0.0126894
0.0121899
0.0117089
0.0112455
0.0107994
0.0103697
0.00995607
0.00955784
0.00917451
0.00880554
0.00845045
0.00810874
0.00777995
0.00746362
0.00715932
0.00686662
0.0065851
0.00631438
0.00605406
0.00580378
0.00556317
0.00533189
0.0051096
0.00489598
0.00469071
0.00449349
0.00430403
0.00412204
0.00394724
0.00377938
0.0036182
0.00346345
0.0033149
0.0031723
0.00303545
0.00290412
0.00277811
0.00265722
0.00254125
0.00243003
0.00232336
0.00222107
0.00212301
0.00202899
0.00193888
0.00185252
0.00176976
0.00169047
0.0016145
0.00154174
0.00147205
0.00140531
0.00134141
0.00128023
0.00122167
0.00116563
0.00111199
0.00106067
0.00101157
0.000964614
0.000919681
0.000876748
0.000835642
0.000796426
0.00075882
0.000723054
0.00068862
0.000656088
0.000624481
0.000595042
0.000565869
0.000539483
0.000512265
0.00048904
0.000463158
0.000443401
0.000418047
0.000402308
0.000376442
0.000365541
0.00033789
0.000332883
0.000302012
0.000304067
0.000268557
0.000278718
0.000237446
0.000256314
0.000208802
0.000236176
0.000182921
0.000217527
0.000160183
0.000199609
0.000140898
0.000181845
0.000125147
0.000163984
0.000112673
0.000146167
0.000102872
0.000128859
9.49134e-05
0.000112673
8.79487e-05
9.81585e-05
8.13175e-05
8.56146e-05
7.4671e-05
7.50357e-05
6.7966e-05
6.61736e-05
6.13578e-05
0.0522097
0.0503347
0.048523
0.0467726
0.0450816
0.0434481
0.0418701
0.0403459
0.0388738
0.037452
0.036079
0.0347532
0.033473
0.032237
0.0310437
0.0298918
0.02878
0.0277068
0.0266711
0.0256716
0.0247071
0.0237766
0.0228788
0.0220128
0.0211774
0.0203716
0.0195946
0.0188452
0.0181226
0.017426
0.0167544
0.016107
0.015483
0.0148816
0.014302
0.0137435
0.0132054
0.012687
0.0121877
0.0117067
0.0112434
0.0107973
0.0103678
0.0099542
0.00955604
0.00917277
0.00880386
0.00844883
0.00810719
0.00777845
0.00746218
0.00715794
0.00686529
0.00658382
0.00631315
0.00605288
0.00580264
0.00556208
0.00533084
0.00510859
0.00489501
0.00468978
0.00449259
0.00430316
0.00412121
0.00394644
0.00377862
0.00361747
0.00346275
0.00331422
0.00317165
0.00303482
0.00290352
0.00277754
0.00265667
0.00254072
0.00242952
0.00232287
0.0022206
0.00212256
0.00202856
0.00193847
0.00185212
0.00176938
0.0016901
0.00161416
0.00154141
0.00147173
0.001405
0.00134112
0.00127995
0.00122141
0.00116537
0.00111174
0.00106044
0.00101135
0.000964399
0.000919475
0.000876551
0.000835454
0.000796246
0.000758647
0.000722889
0.000688462
0.000655938
0.000624338
0.000594904
0.000565738
0.000539357
0.000512145
0.000488926
0.000463049
0.000443296
0.000417948
0.000402213
0.000376352
0.000365454
0.000337809
0.000332803
0.00030194
0.000303993
0.000268492
0.00027865
0.00023739
0.000256249
0.000208755
0.000236112
0.000182884
0.000217463
0.000160157
0.000199543
0.000140882
0.000181777
0.000125141
0.000163916
0.000112674
0.0001461
0.000102877
0.000128794
9.49196e-05
0.000112616
8.79525e-05
9.81098e-05
8.13168e-05
8.55754e-05
7.46653e-05
7.50053e-05
6.79563e-05
6.61503e-05
6.13456e-05
0.0522009
0.0503261
0.0485147
0.0467646
0.0450739
0.0434406
0.0418629
0.0403389
0.038867
0.0374455
0.0360727
0.0347471
0.0334671
0.0322313
0.0310383
0.0298866
0.0287749
0.0277019
0.0266663
0.025667
0.0247027
0.0237723
0.0228747
0.0220088
0.0211735
0.0203679
0.019591
0.0188418
0.0181193
0.0174228
0.0167513
0.016104
0.0154801
0.0148788
0.0142993
0.0137409
0.013203
0.0126847
0.0121854
0.0117045
0.0112413
0.0107953
0.0103658
0.00995229
0.0095542
0.009171
0.00880216
0.0084472
0.00810561
0.00777694
0.00746073
0.00715653
0.00686394
0.00658252
0.0063119
0.00605168
0.00580149
0.00556097
0.00532977
0.00510756
0.00489402
0.00468883
0.00449168
0.00430229
0.00412036
0.00394564
0.00377784
0.00361672
0.00346203
0.00331353
0.00317099
0.00303419
0.00290291
0.00277695
0.00265611
0.00254019
0.002429
0.00232237
0.00222013
0.0021221
0.00202813
0.00193805
0.00185172
0.001769
0.00168974
0.0016138
0.00154107
0.0014714
0.00140469
0.00134082
0.00127967
0.00122113
0.00116511
0.00111149
0.0010602
0.00101112
0.00096418
0.000919265
0.00087635
0.000835262
0.000796062
0.000758472
0.000722721
0.000688302
0.000655785
0.000624192
0.000594764
0.000565605
0.000539229
0.000512024
0.000488808
0.000462939
0.000443189
0.000417848
0.000402114
0.000376263
0.000365362
0.000337729
0.000332718
0.000301869
0.000303912
0.000268432
0.000278572
0.000237339
0.000256173
0.000208715
0.000236037
0.000182856
0.000217386
0.000160139
0.000199465
0.000140876
0.000181697
0.000125143
0.000163835
0.000112683
0.000146022
0.000102889
0.000128722
9.49303e-05
0.000112552
8.79591e-05
9.80563e-05
8.13176e-05
8.55328e-05
7.46602e-05
7.49726e-05
6.79465e-05
6.61254e-05
6.13331e-05
0.0521919
0.0503174
0.0485063
0.0467565
0.0450661
0.043433
0.0418556
0.0403319
0.0388602
0.0374389
0.0360664
0.034741
0.0334612
0.0322256
0.0310327
0.0298812
0.0287697
0.0276969
0.0266615
0.0256624
0.0246982
0.023768
0.0228705
0.0220048
0.0211697
0.0203642
0.0195874
0.0188383
0.018116
0.0174196
0.0167482
0.016101
0.0154772
0.014876
0.0142966
0.0137383
0.0132004
0.0126822
0.0121831
0.0117022
0.0112392
0.0107932
0.0103638
0.00995036
0.00955235
0.00916921
0.00880044
0.00844554
0.00810401
0.0077754
0.00745925
0.00715511
0.00686257
0.00658121
0.00631063
0.00605046
0.00580031
0.00555984
0.00532869
0.00510652
0.00489302
0.00468787
0.00449076
0.0043014
0.00411951
0.00394482
0.00377705
0.00361596
0.0034613
0.00331283
0.00317032
0.00303355
0.00290229
0.00277636
0.00265554
0.00253964
0.00242848
0.00232187
0.00221965
0.00212164
0.00202768
0.00193763
0.00185132
0.00176861
0.00168936
0.00161344
0.00154072
0.00147108
0.00140438
0.00134052
0.00127938
0.00122086
0.00116484
0.00111124
0.00105996
0.00101088
0.000963957
0.000919053
0.000876147
0.000835067
0.000795876
0.000758294
0.000722551
0.00068814
0.000655629
0.000624043
0.000594622
0.00056547
0.000539099
0.000511901
0.000488689
0.000462828