/*--------------------------------*- C++ -*----------------------------------*\
| =========                 |                                                 |
| \\      /  F ield         | OpenFOAM: The Open Source CFD Toolbox           |
|  \\    /   O peration     | Version:  v1912                                 |
|   \\  /    A nd           | Website:  www.openfoam.com                      |
|    \\/     M anipulation  |                                                 |
\*---------------------------------------------------------------------------*/
FoamFile
{
    version     2.0;
    format      ascii;
    class       surfaceScalarField;
    location    "10";
    object      phi;
}
// * * * * * * * * * * * * * * * * * * * * * * * * * * * * * * * * * * * * * //

dimensions      [0 3 -1 0 0 0 0];
oriented        oriented;


internalField   nonuniform List<scalar> 
28285
(
2.22972e-05
7.85992e-07
2.15366e-05
7.60605e-07
2.08006e-05
7.36021e-07
2.00884e-05
7.12213e-07
1.93992e-05
6.89154e-07
1.87324e-05
6.66819e-07
1.80872e-05
6.45183e-07
1.7463e-05
6.24224e-07
1.68591e-05
6.03919e-07
1.62748e-05
5.84247e-07
1.57096e-05
5.65188e-07
1.51629e-05
5.46722e-07
1.46341e-05
5.28831e-07
1.41226e-05
5.11496e-07
1.36279e-05
4.94701e-07
1.31494e-05
4.78427e-07
1.26868e-05
4.6266e-07
1.22394e-05
4.47384e-07
1.18068e-05
4.32583e-07
1.13886e-05
4.18244e-07
1.09842e-05
4.04351e-07
1.05933e-05
3.90893e-07
1.02155e-05
3.77855e-07
9.85025e-06
3.65225e-07
9.49726e-06
3.5299e-07
9.15612e-06
3.4114e-07
8.82646e-06
3.29662e-07
8.50791e-06
3.18545e-07
8.20013e-06
3.07778e-07
7.90278e-06
2.97352e-07
7.61553e-06
2.87255e-07
7.33805e-06
2.77478e-07
7.07004e-06
2.68012e-07
6.81119e-06
2.58847e-07
6.56121e-06
2.49974e-07
6.31983e-06
2.41384e-07
6.08676e-06
2.33069e-07
5.86174e-06
2.25022e-07
5.6445e-06
2.17233e-07
5.43481e-06
2.09695e-07
5.23241e-06
2.02401e-07
5.03707e-06
1.95342e-07
4.84855e-06
1.88513e-07
4.66665e-06
1.81906e-07
4.49113e-06
1.75514e-07
4.3218e-06
1.69331e-07
4.15845e-06
1.63351e-07
4.00088e-06
1.57566e-07
3.84891e-06
1.51973e-07
3.70234e-06
1.46565e-07
3.56101e-06
1.41335e-07
3.42473e-06
1.36278e-07
3.29334e-06
1.3139e-07
3.16667e-06
1.26665e-07
3.04458e-06
1.22098e-07
2.92689e-06
1.17683e-07
2.81348e-06
1.13418e-07
2.70418e-06
1.09295e-07
2.59887e-06
1.05313e-07
2.4974e-06
1.01465e-07
2.39965e-06
9.77473e-08
2.3055e-06
9.41566e-08
2.21481e-06
9.06883e-08
2.12747e-06
8.73391e-08
2.04336e-06
8.41045e-08
1.96238e-06
8.09818e-08
1.88442e-06
7.79661e-08
1.80936e-06
7.50556e-08
1.73711e-06
7.22453e-08
1.66758e-06
6.95336e-08
1.60067e-06
6.69157e-08
1.53627e-06
6.43902e-08
1.47432e-06
6.19525e-08
1.41472e-06
5.96014e-08
1.35739e-06
5.73324e-08
1.30224e-06
5.51448e-08
1.24921e-06
5.30333e-08
1.19821e-06
5.09992e-08
1.14917e-06
4.90348e-08
1.10203e-06
4.7143e-08
1.05671e-06
4.53179e-08
1.01316e-06
4.35584e-08
9.71291e-07
4.18642e-08
9.31063e-07
4.02276e-08
8.92407e-07
3.86561e-08
8.55272e-07
3.71341e-08
8.19595e-07
3.56773e-08
7.85332e-07
3.42623e-08
7.5242e-07
3.29125e-08
7.20822e-07
3.15978e-08
6.90474e-07
3.03472e-08
6.61347e-07
2.91272e-08
6.33379e-07
2.79675e-08
6.06542e-07
2.68377e-08
5.80781e-07
2.57606e-08
5.56063e-07
2.47172e-08
5.32348e-07
2.3715e-08
5.09594e-07
2.27538e-08
4.87774e-07
2.18209e-08
4.66839e-07
2.09347e-08
4.46769e-07
2.007e-08
4.2752e-07
1.92486e-08
4.09067e-07
1.84531e-08
3.9138e-07
1.76861e-08
3.74421e-07
1.69597e-08
3.58179e-07
1.62412e-08
3.42601e-07
1.55787e-08
3.27692e-07
1.49085e-08
3.13393e-07
1.43001e-08
2.99712e-07
1.36795e-08
2.86595e-07
1.31184e-08
2.74048e-07
1.25448e-08
2.62021e-07
1.20294e-08
2.50522e-07
1.14958e-08
2.39498e-07
1.10277e-08
2.28969e-07
1.05251e-08
2.18865e-07
1.01076e-08
2.09235e-07
9.62663e-09
1.99974e-07
9.26381e-09
1.91177e-07
8.79528e-09
1.82687e-07
8.48964e-09
1.74662e-07
8.02768e-09
1.66878e-07
7.77822e-09
1.59567e-07
7.32154e-09
1.52429e-07
7.12203e-09
1.45775e-07
6.67531e-09
1.39233e-07
6.51389e-09
1.33181e-07
6.08741e-09
1.2719e-07
5.94767e-09
1.21686e-07
5.55538e-09
1.16206e-07
5.41973e-09
1.11199e-07
5.07445e-09
1.06197e-07
4.92846e-09
1.01638e-07
4.63779e-09
9.70816e-08
4.47453e-09
9.29256e-08
4.23914e-09
8.87846e-08
4.05842e-09
8.49926e-08
3.87192e-09
8.12367e-08
3.68046e-09
7.77746e-08
3.5314e-09
7.43734e-08
3.33906e-09
7.12128e-08
3.21479e-09
6.81357e-08
3.03114e-09
6.52521e-08
2.92133e-09
6.2468e-08
2.7541e-09
5.98401e-08
2.651e-09
5.73175e-08
2.50538e-09
5.49212e-08
2.40856e-09
5.2634e-08
2.27881e-09
2.1403e-09
5.04991e-08
2.22474e-05
1.5702e-06
2.14886e-05
1.51949e-06
2.07542e-05
1.47037e-06
2.00436e-05
1.42281e-06
1.9356e-05
1.37675e-06
1.86907e-05
1.33213e-06
1.8047e-05
1.2889e-06
1.74242e-05
1.24703e-06
1.68216e-05
1.20647e-06
1.62387e-05
1.16717e-06
1.56748e-05
1.1291e-06
1.51293e-05
1.09221e-06
1.46017e-05
1.05646e-06
1.40914e-05
1.02183e-06
1.35978e-05
9.88279e-07
1.31204e-05
9.55769e-07
1.26588e-05
9.24271e-07
1.22125e-05
8.93752e-07
1.17809e-05
8.64184e-07
1.13636e-05
8.35538e-07
1.09601e-05
8.07784e-07
1.05701e-05
7.80898e-07
1.01931e-05
7.54851e-07
9.82873e-06
7.29619e-07
9.47654e-06
7.05178e-07
9.13618e-06
6.81504e-07
8.80727e-06
6.58574e-07
8.48945e-06
6.36365e-07
8.18237e-06
6.14856e-07
7.88569e-06
5.94027e-07
7.59909e-06
5.73856e-07
7.32224e-06
5.54325e-07
7.05484e-06
5.35414e-07
6.79658e-06
5.17104e-07
6.54718e-06
4.99378e-07
6.30634e-06
4.82218e-07
6.07381e-06
4.65606e-07
5.8493e-06
4.49531e-07
5.63256e-06
4.33971e-07
5.42334e-06
4.18912e-07
5.2214e-06
4.0434e-07
5.02651e-06
3.90239e-07
4.83842e-06
3.76596e-07
4.65693e-06
3.63396e-07
4.48182e-06
3.50627e-07
4.31287e-06
3.38276e-07
4.14989e-06
3.26328e-07
3.99269e-06
3.14773e-07
3.84106e-06
3.03599e-07
3.69483e-06
2.92794e-07
3.55382e-06
2.82346e-07
3.41785e-06
2.72245e-07
3.28676e-06
2.62479e-07
3.16039e-06
2.5304e-07
3.03857e-06
2.43915e-07
2.92115e-06
2.35097e-07
2.808e-06
2.26575e-07
2.69895e-06
2.1834e-07
2.59388e-06
2.10384e-07
2.49265e-06
2.02697e-07
2.39512e-06
1.9527e-07
2.30118e-06
1.88097e-07
2.2107e-06
1.81169e-07
2.12356e-06
1.74478e-07
2.03965e-06
1.68016e-07
1.95885e-06
1.61778e-07
1.88107e-06
1.55753e-07
1.80618e-06
1.49939e-07
1.7341e-06
1.44325e-07
1.66473e-06
1.38907e-07
1.59797e-06
1.33677e-07
1.53373e-06
1.28632e-07
1.47191e-06
1.23762e-07
1.41245e-06
1.19066e-07
1.35525e-06
1.14533e-07
1.30023e-06
1.10163e-07
1.24732e-06
1.05945e-07
1.19644e-06
1.0188e-07
1.14752e-06
9.79568e-08
1.10048e-06
9.41774e-08
1.05527e-06
9.05315e-08
1.01181e-06
8.70165e-08
9.70041e-07
8.36319e-08
9.29906e-07
8.03625e-08
8.91339e-07
7.72231e-08
8.5429e-07
7.41827e-08
8.18695e-07
7.12722e-08
7.84511e-07
6.84458e-08
7.51674e-07
6.5749e-08
7.20149e-07
6.31229e-08
6.89872e-07
6.06241e-08
6.60812e-07
5.81873e-08
6.32909e-07
5.58701e-08
6.06133e-07
5.36136e-08
5.80432e-07
5.14616e-08
5.55771e-07
4.93774e-08
5.32111e-07
4.73751e-08
5.0941e-07
4.54547e-08
4.87639e-07
4.35916e-08
4.66753e-07
4.18207e-08
4.46729e-07
4.00937e-08
4.27525e-07
3.84526e-08
4.09114e-07
3.6863e-08
3.91469e-07
3.53322e-08
3.74549e-07
3.38787e-08
3.58344e-07
3.24469e-08
3.42802e-07
3.11185e-08
3.27927e-07
2.97862e-08
3.13661e-07
2.85623e-08
3.00012e-07
2.73331e-08
2.86926e-07
2.61992e-08
2.74408e-07
2.50695e-08
2.62408e-07
2.40199e-08
2.50937e-07
2.29788e-08
2.39937e-07
2.20123e-08
2.29433e-07
2.10474e-08
2.19352e-07
2.01654e-08
2.09745e-07
1.92628e-08
2.00504e-07
1.84683e-08
1.91729e-07
1.76143e-08
1.83258e-07
1.69089e-08
1.75252e-07
1.60939e-08
1.67485e-07
1.54749e-08
1.60191e-07
1.46952e-08
1.5307e-07
1.41534e-08
1.46432e-07
1.34129e-08
1.39905e-07
1.29324e-08
1.33868e-07
1.22415e-08
1.2789e-07
1.18018e-08
1.224e-07
1.11744e-08
1.16932e-07
1.0755e-08
1.11937e-07
1.02024e-08
1.06946e-07
9.78787e-09
1.02398e-07
9.31353e-09
9.78518e-08
8.89914e-09
9.3706e-08
8.49843e-09
8.95743e-08
8.08631e-09
8.57915e-08
7.7476e-09
8.2044e-08
7.34657e-09
7.85904e-08
7.05453e-09
7.51968e-08
6.67457e-09
7.20439e-08
6.4149e-09
6.89738e-08
6.06385e-09
6.60972e-08
5.82666e-09
6.33194e-08
5.51045e-09
6.06978e-08
5.28797e-09
5.81811e-08
5.01134e-09
5.57905e-08
4.80637e-09
5.35088e-08
4.55586e-09
4.27311e-09
5.13788e-08
2.22258e-05
2.35366e-06
2.14677e-05
2.27763e-06
2.0734e-05
2.20402e-06
2.00241e-05
2.13273e-06
1.93372e-05
2.06368e-06
1.86725e-05
1.99679e-06
1.80294e-05
1.932e-06
1.74072e-05
1.86924e-06
1.68052e-05
1.80844e-06
1.62229e-05
1.74953e-06
1.56595e-05
1.69246e-06
1.51146e-05
1.63716e-06
1.45874e-05
1.58359e-06
1.40776e-05
1.53168e-06
1.35845e-05
1.48138e-06
1.31076e-05
1.43265e-06
1.26464e-05
1.38544e-06
1.22005e-05
1.33969e-06
1.17693e-05
1.29537e-06
1.13524e-05
1.25243e-06
1.09494e-05
1.21083e-06
1.05598e-05
1.17053e-06
1.01831e-05
1.13148e-06
9.81908e-06
1.09366e-06
9.46723e-06
1.05703e-06
9.12719e-06
1.02154e-06
8.7986e-06
9.87169e-07
8.48108e-06
9.53879e-07
8.1743e-06
9.21638e-07
7.87791e-06
8.90416e-07
7.59159e-06
8.60181e-07
7.31501e-06
8.30905e-07
7.04786e-06
8.02558e-07
6.78985e-06
7.75113e-07
6.54069e-06
7.48542e-07
6.30009e-06
7.2282e-07
6.06777e-06
6.97919e-07
5.84348e-06
6.73823e-07
5.62695e-06
6.50499e-07
5.41793e-06
6.27927e-07
5.21619e-06
6.06083e-07
5.02148e-06
5.84947e-07
4.83358e-06
5.64497e-07
4.65226e-06
5.44712e-07
4.47732e-06
5.25571e-07
4.30854e-06
5.07057e-07
4.14572e-06
4.89148e-07
3.98866e-06
4.71827e-07
3.83718e-06
4.55078e-07
3.69109e-06
4.38882e-07
3.55022e-06
4.23221e-07
3.41438e-06
4.0808e-07
3.28342e-06
3.93442e-07
3.15717e-06
3.79292e-07
3.03547e-06
3.65615e-07
2.91817e-06
3.52397e-07
2.80512e-06
3.39623e-07
2.69618e-06
3.2728e-07
2.59121e-06
3.15353e-07
2.49007e-06
3.0383e-07
2.39264e-06
2.92699e-07
2.29879e-06
2.81947e-07
2.2084e-06
2.71561e-07
2.12135e-06
2.61532e-07
2.03752e-06
2.51846e-07
1.9568e-06
2.42495e-07
1.87909e-06
2.33465e-07
1.80428e-06
2.24749e-07
1.73227e-06
2.16334e-07
1.66296e-06
2.08214e-07
1.59626e-06
2.00374e-07
1.53208e-06
1.92812e-07
1.47033e-06
1.85512e-07
1.41093e-06
1.78472e-07
1.35378e-06
1.71678e-07
1.29882e-06
1.65127e-07
1.24596e-06
1.58804e-07
1.19512e-06
1.52712e-07
1.14625e-06
1.46831e-07
1.09926e-06
1.41166e-07
1.05409e-06
1.35701e-07
1.01067e-06
1.30432e-07
9.68948e-07
1.25359e-07
9.28852e-07
1.20458e-07
8.90322e-07
1.15752e-07
8.5331e-07
1.11195e-07
8.17749e-07
1.06832e-07
7.83599e-07
1.02596e-07
7.50795e-07
9.85532e-08
7.193e-07
9.46171e-08
6.89053e-07
9.08713e-08
6.60021e-07
8.7219e-08
6.32145e-07
8.37454e-08
6.05395e-07
8.03632e-08
5.7972e-07
7.71372e-08
5.55083e-07
7.40134e-08
5.31446e-07
7.1012e-08
5.08767e-07
6.81334e-08
4.87018e-07
6.5341e-08
4.66152e-07
6.26862e-08
4.46148e-07
6.00978e-08
4.26963e-07
5.76377e-08
4.08571e-07
5.52548e-08
3.90942e-07
5.29609e-08
3.74039e-07
5.07811e-08
3.5785e-07
4.86367e-08
3.42324e-07
4.66429e-08
3.27463e-07
4.46493e-08
3.13212e-07
4.28104e-08
2.99575e-07
4.09732e-08
2.86502e-07
3.92671e-08
2.73997e-07
3.75818e-08
2.62009e-07
3.59986e-08
2.50549e-07
3.44506e-08
2.3956e-07
3.29861e-08
2.29067e-07
3.15593e-08
2.18995e-07
3.02132e-08
2.09398e-07
2.88895e-08
2.00166e-07
2.76637e-08
1.914e-07
2.64245e-08
1.82937e-07
2.53198e-08
1.74939e-07
2.41521e-08
1.6718e-07
2.31639e-08
1.59894e-07
2.20617e-08
1.52779e-07
2.11777e-08
1.46148e-07
2.01439e-08
1.39627e-07
1.93445e-08
1.33596e-07
1.83894e-08
1.27624e-07
1.765e-08
1.22139e-07
1.67879e-08
1.16677e-07
1.6085e-08
1.11687e-07
1.53253e-08
1.06701e-07
1.46425e-08
1.02158e-07
1.39846e-08
9.76158e-08
1.33194e-08
9.34742e-08
1.27534e-08
8.93464e-08
1.21103e-08
8.55676e-08
1.16193e-08
8.18237e-08
1.10092e-08
7.83737e-08
1.0574e-08
7.49833e-08
1.00069e-08
7.18337e-08
9.61168e-09
6.87665e-08
9.09366e-09
6.58929e-08
8.72899e-09
6.31178e-08
8.26414e-09
6.04989e-08
7.92225e-09
5.79846e-08
7.51486e-09
5.55964e-08
7.20176e-09
5.3317e-08
6.83062e-09
6.40375e-09
5.11892e-08
2.22139e-05
3.13679e-06
2.14561e-05
3.03547e-06
2.07227e-05
2.93736e-06
2.00131e-05
2.84235e-06
1.93265e-05
2.75032e-06
1.86621e-05
2.66119e-06
1.80192e-05
2.57484e-06
1.73973e-05
2.4912e-06
1.67956e-05
2.41016e-06
1.62134e-05
2.33165e-06
1.56503e-05
2.25559e-06
1.51056e-05
2.1819e-06
1.45787e-05
2.1105e-06
1.4069e-05
2.04131e-06
1.35761e-05
1.97428e-06
1.30994e-05
1.90934e-06
1.26385e-05
1.84641e-06
1.21927e-05
1.78545e-06
1.17617e-05
1.72638e-06
1.1345e-05
1.66915e-06
1.09421e-05
1.61371e-06
1.05526e-05
1.56e-06
1.01761e-05
1.50796e-06
9.81224e-06
1.45756e-06
9.46053e-06
1.40873e-06
9.12063e-06
1.36144e-06
8.79217e-06
1.31563e-06
8.47479e-06
1.27126e-06
8.16813e-06
1.22829e-06
7.87186e-06
1.18668e-06
7.58565e-06
1.14639e-06
7.30919e-06
1.10737e-06
7.04215e-06
1.06959e-06
6.78425e-06
1.03302e-06
6.53519e-06
9.97604e-07
6.29468e-06
9.63323e-07
6.06246e-06
9.30137e-07
5.83826e-06
8.98023e-07
5.62182e-06
8.66939e-07
5.41289e-06
8.36856e-07
5.21123e-06
8.07744e-07
5.0166e-06
7.79575e-07
4.82878e-06
7.5232e-07
4.64754e-06
7.25952e-07
4.47267e-06
7.00443e-07
4.30395e-06
6.75768e-07
4.1412e-06
6.51901e-07
3.98421e-06
6.28816e-07
3.83279e-06
6.06495e-07
3.68677e-06
5.84909e-07
3.54595e-06
5.64037e-07
3.41017e-06
5.43858e-07
3.27926e-06
5.2435e-07
3.15306e-06
5.05492e-07
3.03141e-06
4.87265e-07
2.91416e-06
4.69649e-07
2.80116e-06
4.52624e-07
2.69226e-06
4.36173e-07
2.58734e-06
4.20278e-07
2.48624e-06
4.04922e-07
2.38886e-06
3.90087e-07
2.29505e-06
3.75757e-07
2.20469e-06
3.61916e-07
2.11767e-06
3.4855e-07
2.03388e-06
3.35641e-07
1.95319e-06
3.23178e-07
1.87551e-06
3.11143e-07
1.80073e-06
2.99528e-07
1.72876e-06
2.88313e-07
1.65948e-06
2.77491e-07
1.59281e-06
2.67043e-07
1.52866e-06
2.56964e-07
1.46693e-06
2.47236e-07
1.40755e-06
2.37853e-07
1.35043e-06
2.28798e-07
1.29549e-06
2.20068e-07
1.24265e-06
2.11641e-07
1.19184e-06
2.03522e-07
1.14299e-06
1.95684e-07
1.09602e-06
1.88134e-07
1.05087e-06
1.80851e-07
1.00747e-06
1.73829e-07
9.6576e-07
1.67068e-07
9.25681e-07
1.60537e-07
8.87168e-07
1.54265e-07
8.50171e-07
1.48191e-07
8.14626e-07
1.42377e-07
7.8049e-07
1.36731e-07
7.477e-07
1.31343e-07
7.16219e-07
1.26098e-07
6.85985e-07
1.21105e-07
6.56965e-07
1.16238e-07
6.29102e-07
1.11609e-07
6.02364e-07
1.07101e-07
5.76699e-07
1.02802e-07
5.52073e-07
9.86388e-08
5.28446e-07
9.46387e-08
5.05777e-07
9.08022e-08
4.84037e-07
8.70809e-08
4.63181e-07
8.35425e-08
4.43185e-07
8.00932e-08
4.24009e-07
7.68144e-08
4.05624e-07
7.36386e-08
3.88004e-07
7.05819e-08
3.71108e-07
6.7676e-08
3.54926e-07
6.48195e-08
3.39407e-07
6.21604e-08
3.24552e-07
5.95061e-08
3.10308e-07
5.7052e-08
2.96677e-07
5.46075e-08
2.8361e-07
5.23291e-08
2.7111e-07
5.00886e-08
2.59127e-07
4.7972e-08
2.47672e-07
4.59171e-08
2.36688e-07
4.39552e-08
2.262e-07
4.20664e-08
2.16132e-07
4.02566e-08
2.0654e-07
3.85117e-08
1.97312e-07
3.6855e-08
1.88549e-07
3.52308e-08
1.8009e-07
3.37269e-08
1.72096e-07
3.22067e-08
1.64341e-07
3.08494e-08
1.57057e-07
2.94248e-08
1.49946e-07
2.81987e-08
1.43318e-07
2.68719e-08
1.368e-07
2.57535e-08
1.30772e-07
2.45348e-08
1.24802e-07
2.34954e-08
1.1932e-07
2.23991e-08
1.13861e-07
2.14124e-08
1.08873e-07
2.04459e-08
1.03889e-07
1.94948e-08
9.93476e-08
1.86534e-08
9.48077e-08
1.77378e-08
9.06682e-08
1.70063e-08
8.65422e-08
1.61326e-08
8.27652e-08
1.5489e-08
7.90228e-08
1.46703e-08
7.55746e-08
1.40917e-08
7.21856e-08
1.33379e-08
6.90376e-08
1.28068e-08
6.59718e-08
1.21222e-08
6.30996e-08
1.16298e-08
6.03257e-08
1.10167e-08
5.77081e-08
1.05552e-08
5.5195e-08
1.00172e-08
5.28078e-08
9.59612e-09
5.05297e-08
9.10405e-09
8.53362e-09
4.84027e-08
2.22052e-05
3.91976e-06
2.14475e-05
3.79315e-06
2.07143e-05
3.67055e-06
2.00048e-05
3.55182e-06
1.93183e-05
3.43683e-06
1.86541e-05
3.32544e-06
1.80114e-05
3.21754e-06
1.73896e-05
3.11302e-06
1.6788e-05
3.01176e-06
1.6206e-05
2.91365e-06
1.5643e-05
2.81861e-06
1.50983e-05
2.72652e-06
1.45715e-05
2.63729e-06
1.4062e-05
2.55084e-06
1.35692e-05
2.46708e-06
1.30926e-05
2.38592e-06
1.26318e-05
2.30729e-06
1.21861e-05
2.23111e-06
1.17552e-05
2.1573e-06
1.13385e-05
2.08578e-06
1.09357e-05
2.0165e-06
1.05464e-05
1.94938e-06
1.017e-05
1.88436e-06
9.80614e-06
1.82137e-06
9.45452e-06
1.76036e-06
9.11469e-06
1.70126e-06
8.7863e-06
1.64402e-06
8.46899e-06
1.58858e-06
8.1624e-06
1.53488e-06
7.86619e-06
1.48289e-06
7.58005e-06
1.43253e-06
7.30364e-06
1.38378e-06
7.03666e-06
1.33657e-06
6.77882e-06
1.29086e-06
6.52981e-06
1.24661e-06
6.28936e-06
1.20377e-06
6.05719e-06
1.1623e-06
5.83304e-06
1.12217e-06
5.61665e-06
1.08333e-06
5.40776e-06
1.04574e-06
5.20615e-06
1.00936e-06
5.01156e-06
9.7416e-07
4.82378e-06
9.40102e-07
4.64258e-06
9.07152e-07
4.46775e-06
8.75276e-07
4.29907e-06
8.44442e-07
4.13635e-06
8.14617e-07
3.9794e-06
7.85771e-07
3.82802e-06
7.57877e-07
3.68202e-06
7.30904e-07
3.54124e-06
7.04822e-07
3.40549e-06
6.79606e-07
3.27461e-06
6.55228e-07
3.14844e-06
6.31664e-07
3.02681e-06
6.08887e-07
2.90959e-06
5.86873e-07
2.79661e-06
5.65599e-07
2.68774e-06
5.45042e-07
2.58284e-06
5.2518e-07
2.48177e-06
5.0599e-07
2.38441e-06
4.87452e-07
2.29062e-06
4.69546e-07
2.20028e-06
4.52249e-07
2.11329e-06
4.35547e-07
2.02951e-06
4.19416e-07
1.94884e-06
4.03843e-07
1.87118e-06
3.88804e-07
1.79642e-06
3.7429e-07
1.72446e-06
3.60275e-07
1.6552e-06
3.46752e-07
1.58854e-06
3.33696e-07
1.52441e-06
3.21102e-07
1.4627e-06
3.08945e-07
1.40333e-06
2.97221e-07
1.34622e-06
2.85905e-07
1.29129e-06
2.74996e-07
1.23847e-06
2.64467e-07
1.18767e-06
2.5432e-07
1.13883e-06
2.44526e-07
1.09187e-06
2.35092e-07
1.04673e-06
2.2599e-07
1.00334e-06
2.17216e-07
9.61644e-07
2.08767e-07
9.21575e-07
2.00606e-07
8.83071e-07
1.92768e-07
8.46083e-07
1.85179e-07
8.10547e-07
1.77913e-07
7.7642e-07
1.70858e-07
7.43637e-07
1.64125e-07
7.12164e-07
1.57571e-07
6.81937e-07
1.51332e-07
6.52925e-07
1.4525e-07
6.25068e-07
1.39465e-07
5.98336e-07
1.33833e-07
5.72678e-07
1.2846e-07
5.48059e-07
1.23258e-07
5.24438e-07
1.18259e-07
5.01774e-07
1.13465e-07
4.8004e-07
1.08815e-07
4.59189e-07
1.04393e-07
4.39198e-07
1.00084e-07
4.20026e-07
9.59862e-08
4.01646e-07
9.20178e-08
3.8403e-07
8.81984e-08
3.67139e-07
8.45666e-08
3.50961e-07
8.09983e-08
3.35446e-07
7.76737e-08
3.20595e-07
7.43592e-08
3.06354e-07
7.12898e-08
2.92727e-07
6.82384e-08
2.79663e-07
6.53877e-08
2.67166e-07
6.25922e-08
2.55186e-07
5.99424e-08
2.43735e-07
5.73805e-08
2.32753e-07
5.49216e-08
2.22268e-07
5.25705e-08
2.12203e-07
5.02977e-08
2.02613e-07
4.81312e-08
1.93388e-07
4.60441e-08
1.84627e-07
4.40346e-08
1.76171e-07
4.2132e-08
1.68179e-07
4.02592e-08
1.60425e-07
3.85328e-08
1.53144e-07
3.67861e-08
1.46035e-07
3.52178e-08
1.39408e-07
3.35983e-08
1.32892e-07
3.21607e-08
1.26865e-07
3.06787e-08
1.20897e-07
2.9339e-08
1.15416e-07
2.80089e-08
1.09959e-07
2.67381e-08
1.04972e-07
2.55652e-08
9.99897e-08
2.43458e-08
9.54495e-08
2.3321e-08
9.0911e-08
2.21549e-08
8.67726e-08
2.12579e-08
8.26477e-08
2.01539e-08
7.88719e-08
1.93575e-08
7.51304e-08
1.83305e-08
7.16834e-08
1.76081e-08
6.82952e-08
1.66681e-08
6.51483e-08
1.60008e-08
6.20831e-08
1.51501e-08
5.92119e-08
1.45296e-08
5.64387e-08
1.37685e-08
5.38219e-08
1.31874e-08
5.13095e-08
1.25189e-08
4.89229e-08
1.19899e-08
4.66458e-08
1.13765e-08
1.06632e-08
4.45191e-08
2.21987e-05
4.7026e-06
2.14412e-05
4.55071e-06
2.07081e-05
4.40363e-06
1.99987e-05
4.26118e-06
1.93123e-05
4.12322e-06
1.86482e-05
3.98959e-06
1.80056e-05
3.86014e-06
1.73839e-05
3.73474e-06
1.67824e-05
3.61326e-06
1.62005e-05
3.49556e-06
1.56375e-05
3.38153e-06
1.5093e-05
3.27105e-06
1.45663e-05
3.164e-06
1.40568e-05
3.06029e-06
1.35641e-05
2.9598e-06
1.30876e-05
2.86243e-06
1.26268e-05
2.7681e-06
1.21812e-05
2.6767e-06
1.17504e-05
2.58814e-06
1.13338e-05
2.50235e-06
1.09311e-05
2.41923e-06
1.05418e-05
2.33871e-06
1.01654e-05
2.2607e-06
9.80166e-06
2.18513e-06
9.45008e-06
2.11193e-06
9.11031e-06
2.04103e-06
8.78198e-06
1.97236e-06
8.46471e-06
1.90584e-06
8.15817e-06
1.84142e-06
7.86202e-06
1.77904e-06
7.57592e-06
1.71863e-06
7.29956e-06
1.66014e-06
7.03263e-06
1.6035e-06
6.77482e-06
1.54867e-06
6.52585e-06
1.49558e-06
6.28544e-06
1.44418e-06
6.05331e-06
1.39443e-06
5.8292e-06
1.34629e-06
5.61284e-06
1.29969e-06
5.404e-06
1.25459e-06
5.20241e-06
1.21094e-06
5.00786e-06
1.16871e-06
4.82011e-06
1.12785e-06
4.63894e-06
1.08832e-06
4.46414e-06
1.05008e-06
4.29549e-06
1.01309e-06
4.1328e-06
9.77306e-07
3.97587e-06
9.42698e-07
3.82452e-06
9.09234e-07
3.67855e-06
8.76873e-07
3.53778e-06
8.45583e-07
3.40206e-06
8.1533e-07
3.2712e-06
7.86084e-07
3.14505e-06
7.57813e-07
3.02345e-06
7.30487e-07
2.90625e-06
7.04077e-07
2.79329e-06
6.78555e-07
2.68444e-06
6.53893e-07
2.57956e-06
6.30063e-07
2.47851e-06
6.07041e-07
2.38116e-06
5.848e-07
2.28738e-06
5.63318e-07
2.19707e-06
5.42567e-07
2.11008e-06
5.22529e-07
2.02632e-06
5.03177e-07
1.94567e-06
4.84493e-07
1.86802e-06
4.66451e-07
1.79328e-06
4.49038e-07
1.72133e-06
4.32224e-07
1.65208e-06
4.16e-07
1.58544e-06
4.00337e-07
1.52131e-06
3.85228e-07
1.45961e-06
3.70643e-07
1.40025e-06
3.56577e-07
1.34316e-06
3.43002e-07
1.28824e-06
3.29914e-07
1.23542e-06
3.17281e-07
1.18464e-06
3.05109e-07
1.1358e-06
2.93359e-07
1.08885e-06
2.8204e-07
1.04372e-06
2.71121e-07
1.00034e-06
2.60594e-07
9.58652e-07
2.50458e-07
9.1859e-07
2.40667e-07
8.80093e-07
2.31265e-07
8.43112e-07
2.2216e-07
8.07583e-07
2.13443e-07
7.73462e-07
2.04979e-07
7.40686e-07
1.96901e-07
7.09218e-07
1.89038e-07
6.78997e-07
1.81553e-07
6.49991e-07
1.74257e-07
6.22139e-07
1.67316e-07
5.95413e-07
1.60559e-07
5.69759e-07
1.54113e-07
5.45145e-07
1.47873e-07
5.21528e-07
1.41876e-07
4.9887e-07
1.36124e-07
4.77139e-07
1.30546e-07
4.56292e-07
1.2524e-07
4.36305e-07
1.2007e-07
4.17137e-07
1.15154e-07
3.98761e-07
1.10393e-07
3.81148e-07
1.05811e-07
3.6426e-07
1.01454e-07
3.48086e-07
9.7174e-08
3.32574e-07
9.31839e-08
3.17726e-07
8.92095e-08
3.03488e-07
8.55246e-08
2.89863e-07
8.18666e-08
2.76802e-07
7.84436e-08
2.64308e-07
7.50932e-08
2.52331e-07
7.19104e-08
2.40881e-07
6.88414e-08
2.29902e-07
6.58859e-08
2.19419e-07
6.30724e-08
2.09356e-07
6.03367e-08
1.99768e-07
5.77486e-08
1.90545e-07
5.52313e-08
1.81786e-07
5.28365e-08
1.73331e-07
5.05352e-08
1.65341e-07
4.83099e-08
1.57589e-07
4.62146e-08
1.50309e-07
4.41458e-08
1.43202e-07
4.22354e-08
1.36576e-07
4.03233e-08
1.30062e-07
3.85664e-08
1.24036e-07
3.68213e-08
1.1807e-07
3.51812e-08
1.1259e-07
3.36176e-08
1.07134e-07
3.20627e-08
1.02148e-07
3.06835e-08
9.7167e-08
2.91958e-08
9.26278e-08
2.79875e-08
8.80902e-08
2.65712e-08
8.39529e-08
2.55084e-08
7.98288e-08
2.41745e-08
7.60539e-08
2.3225e-08
7.23132e-08
2.19901e-08
6.8867e-08
2.11236e-08
6.54795e-08
1.99978e-08
6.23335e-08
1.91938e-08
5.92689e-08
1.81775e-08
5.63985e-08
1.74286e-08
5.36259e-08
1.65198e-08
5.10097e-08
1.58189e-08
4.84979e-08
1.502e-08
4.61118e-08
1.43832e-08
4.38355e-08
1.36482e-08
1.27923e-08
4.17091e-08
2.21941e-05
5.48533e-06
2.14366e-05
5.30816e-06
2.07036e-05
5.1366e-06
1.99944e-05
4.97044e-06
1.93081e-05
4.80952e-06
1.8644e-05
4.65364e-06
1.80015e-05
4.50265e-06
1.73799e-05
4.35638e-06
1.67785e-05
4.21467e-06
1.61967e-05
4.07738e-06
1.56338e-05
3.94437e-06
1.50894e-05
3.8155e-06
1.45627e-05
3.69064e-06
1.40534e-05
3.56966e-06
1.35607e-05
3.45245e-06
1.30843e-05
3.33887e-06
1.26235e-05
3.22884e-06
1.2178e-05
3.12222e-06
1.17472e-05
3.01893e-06
1.13307e-05
2.91885e-06
1.0928e-05
2.8219e-06
1.05388e-05
2.72797e-06
1.01625e-05
2.63698e-06
9.79879e-06
2.54884e-06
9.44727e-06
2.46345e-06
9.10756e-06
2.38075e-06
8.77927e-06
2.30064e-06
8.46205e-06
2.22306e-06
8.15556e-06
2.14792e-06
7.85945e-06
2.07515e-06
7.57339e-06
2.00469e-06
7.29707e-06
1.93646e-06
7.03018e-06
1.87039e-06
6.77241e-06
1.80643e-06
6.52348e-06
1.74451e-06
6.28311e-06
1.68456e-06
6.05102e-06
1.62652e-06
5.82694e-06
1.57037e-06
5.61061e-06
1.51601e-06
5.4018e-06
1.4634e-06
5.20024e-06
1.41249e-06
5.00572e-06
1.36323e-06
4.818e-06
1.31557e-06
4.63686e-06
1.26946e-06
4.46208e-06
1.22486e-06
4.29346e-06
1.18171e-06
4.1308e-06
1.13997e-06
3.97389e-06
1.0996e-06
3.82256e-06
1.06057e-06
3.67661e-06
1.02282e-06
3.53587e-06
9.86321e-07
3.40017e-06
9.51034e-07
3.26934e-06
9.16919e-07
3.14321e-06
8.83943e-07
3.02162e-06
8.52069e-07
2.90444e-06
8.21263e-07
2.7915e-06
7.91492e-07
2.68267e-06
7.62725e-07
2.5778e-06
7.34929e-07
2.47676e-06
7.08075e-07
2.37943e-06
6.82133e-07
2.28567e-06
6.57074e-07
2.19537e-06
6.3287e-07
2.1084e-06
6.09497e-07
2.02465e-06
5.86923e-07
1.94402e-06
5.65131e-07
1.86638e-06
5.44085e-07
1.79165e-06
5.23774e-07
1.71971e-06
5.04161e-07
1.65047e-06
4.85237e-07
1.58384e-06
4.66967e-07
1.51973e-06
4.49343e-07
1.45804e-06
4.32331e-07
1.39869e-06
4.15924e-07
1.3416e-06
4.00089e-07
1.28669e-06
3.84822e-07
1.23389e-06
3.70087e-07
1.18311e-06
3.55889e-07
1.13428e-06
3.42184e-07
1.08734e-06
3.28981e-07
1.04222e-06
3.16245e-07
9.98846e-07
3.03966e-07
9.57162e-07
2.92142e-07
9.17107e-07
2.80721e-07
8.78617e-07
2.69754e-07
8.41643e-07
2.59134e-07
8.06119e-07
2.48966e-07
7.72005e-07
2.39093e-07
7.39234e-07
2.29671e-07
7.07772e-07
2.20499e-07
6.77557e-07
2.11769e-07
6.48555e-07
2.03258e-07
6.20709e-07
1.95162e-07
5.93987e-07
1.87281e-07
5.68338e-07
1.79762e-07
5.43728e-07
1.72483e-07
5.20116e-07
1.65488e-07
4.97461e-07
1.58779e-07
4.75734e-07
1.52272e-07
4.54891e-07
1.46083e-07
4.34908e-07
1.40053e-07
4.15743e-07
1.34319e-07
3.97371e-07
1.28766e-07
3.79761e-07
1.23421e-07
3.62876e-07
1.18338e-07
3.46704e-07
1.13347e-07
3.31196e-07
1.08691e-07
3.1635e-07
1.04057e-07
3.02115e-07
9.97567e-08
2.88493e-07
9.54923e-08
2.75434e-07
9.14971e-08
2.62942e-07
8.75918e-08
2.50967e-07
8.38763e-08
2.3952e-07
8.03002e-08
2.28543e-07
7.68482e-08
2.18062e-07
7.35721e-08
2.08001e-07
7.0374e-08
1.98415e-07
6.73641e-08
1.89193e-07
6.44169e-08
1.80436e-07
6.16367e-08
1.71983e-07
5.89369e-08
1.63994e-07
5.63591e-08
1.56244e-07
5.3895e-08
1.48965e-07
5.15041e-08
1.41859e-07
4.92515e-08
1.35235e-07
4.7047e-08
1.28722e-07
4.49708e-08
1.22697e-07
4.29628e-08
1.16732e-07
4.10223e-08
1.11254e-07
3.92251e-08
1.05798e-07
3.73863e-08
1.00814e-07
3.58006e-08
9.58334e-08
3.40449e-08
9.12951e-08
3.2653e-08
8.67584e-08
3.09868e-08
8.26219e-08
2.9758e-08
7.84986e-08
2.81943e-08
7.47245e-08
2.70915e-08
7.09846e-08
2.56491e-08
6.75391e-08
2.46382e-08
6.41522e-08
2.33269e-08
6.10069e-08
2.23861e-08
5.79429e-08
2.12043e-08
5.50731e-08
2.03268e-08
5.2301e-08
1.92707e-08
4.96854e-08
1.84497e-08
4.71741e-08
1.75206e-08
4.47884e-08
1.6776e-08
4.25126e-08
1.59194e-08
1.4921e-08
4.03867e-08
2.21903e-05
6.26795e-06
2.1433e-05
6.0655e-06
2.07001e-05
5.86946e-06
1.9991e-05
5.6796e-06
1.93048e-05
5.49572e-06
1.86408e-05
5.3176e-06
1.79984e-05
5.14507e-06
1.73768e-05
4.97793e-06
1.67755e-05
4.816e-06
1.61938e-05
4.65913e-06
1.5631e-05
4.50714e-06
1.50866e-05
4.35988e-06
1.45601e-05
4.2172e-06
1.40508e-05
4.07896e-06
1.35582e-05
3.94502e-06
1.30818e-05
3.81525e-06
1.26211e-05
3.68951e-06
1.21757e-05
3.56768e-06
1.1745e-05
3.44965e-06
1.13285e-05
3.3353e-06
1.09259e-05
3.22451e-06
1.05367e-05
3.11718e-06
1.01605e-05
3.01321e-06
9.79682e-06
2.91249e-06
9.44535e-06
2.81492e-06
9.10568e-06
2.72042e-06
8.77744e-06
2.62888e-06
8.46027e-06
2.54023e-06
8.15382e-06
2.45437e-06
7.85775e-06
2.37122e-06
7.57174e-06
2.2907e-06
7.29546e-06
2.21274e-06
7.0286e-06
2.13725e-06
6.77088e-06
2.06416e-06
6.52198e-06
1.9934e-06
6.28165e-06
1.9249e-06
6.04959e-06
1.85858e-06
5.82554e-06
1.79441e-06
5.60925e-06
1.7323e-06
5.40047e-06
1.67219e-06
5.19894e-06
1.61402e-06
5.00445e-06
1.55773e-06
4.81676e-06
1.50327e-06
4.63564e-06
1.45058e-06
4.46089e-06
1.39961e-06
4.2923e-06
1.3503e-06
4.12966e-06
1.30261e-06
3.97278e-06
1.25648e-06
3.82147e-06
1.21188e-06
3.67554e-06
1.16874e-06
3.53483e-06
1.12704e-06
3.39914e-06
1.08672e-06
3.26833e-06
1.04773e-06
3.14222e-06
1.01005e-06
3.02066e-06
9.73631e-07
2.90349e-06
9.3843e-07
2.79057e-06
9.04412e-07
2.68175e-06
8.7154e-07
2.5769e-06
8.39779e-07
2.47588e-06
8.09094e-07
2.37856e-06
7.7945e-07
2.28482e-06
7.50816e-07
2.19453e-06
7.23159e-07
2.10758e-06
6.96451e-07
2.02384e-06
6.70657e-07
1.94322e-06
6.45755e-07
1.8656e-06
6.21707e-07
1.79087e-06
5.98498e-07
1.71895e-06
5.76087e-07
1.64972e-06
5.54463e-07
1.5831e-06
5.33586e-07
1.519e-06
5.13447e-07
1.45732e-06
4.94009e-07
1.39798e-06
4.7526e-07
1.3409e-06
4.57166e-07
1.286e-06
4.39722e-07
1.23321e-06
4.22885e-07
1.18243e-06
4.0666e-07
1.13362e-06
3.91e-07
1.08668e-06
3.75913e-07
1.04157e-06
3.6136e-07
9.98204e-07
3.47329e-07
9.56527e-07
3.33819e-07
9.16479e-07
3.20769e-07
8.77996e-07
3.08237e-07
8.41028e-07
2.96102e-07
8.0551e-07
2.84483e-07
7.71401e-07
2.73202e-07
7.38636e-07
2.62436e-07
7.0718e-07
2.51956e-07
6.76969e-07
2.41979e-07
6.47973e-07
2.32255e-07
6.20131e-07
2.23003e-07
5.93414e-07
2.13998e-07
5.6777e-07
2.05406e-07
5.43164e-07
1.97088e-07
5.19556e-07
1.89096e-07
4.96905e-07
1.81429e-07
4.75182e-07
1.73995e-07
4.54343e-07
1.66923e-07
4.34363e-07
1.60033e-07
4.15202e-07
1.5348e-07
3.96833e-07
1.47135e-07
3.79226e-07
1.41028e-07
3.62344e-07
1.35219e-07
3.46175e-07
1.29517e-07
3.30669e-07
1.24196e-07
3.15826e-07
1.18902e-07
3.01594e-07
1.13986e-07
2.87975e-07
1.09116e-07
2.74918e-07
1.04548e-07
2.62429e-07
1.00088e-07
2.50456e-07
9.58399e-08
2.39011e-07
9.17567e-08
2.28035e-07
8.78085e-08
2.17557e-07
8.40699e-08
2.07497e-07
8.04093e-08
1.97913e-07
7.69778e-08
1.88693e-07
7.36007e-08
1.79938e-07
7.04352e-08
1.71486e-07
6.7337e-08
1.63499e-07
6.44067e-08
1.5575e-07
6.15739e-08
1.48473e-07
5.8861e-08
1.41368e-07
5.62663e-08
1.34745e-07
5.37694e-08
1.28233e-07
5.1374e-08
1.2221e-07
4.9103e-08
1.16246e-07
4.68622e-08
1.10769e-07
4.48316e-08
1.05314e-07
4.27088e-08
1.00331e-07
4.09168e-08
9.53514e-08
3.88931e-08
9.08139e-08
3.73175e-08
8.62782e-08
3.54015e-08
8.21424e-08
3.40066e-08
7.802e-08
3.22135e-08
7.42467e-08
3.09572e-08
7.05074e-08
2.93075e-08
6.70627e-08
2.8152e-08
6.36765e-08
2.66555e-08
6.05318e-08
2.55776e-08
5.74684e-08
2.42307e-08
5.45992e-08
2.32244e-08
5.18277e-08
2.2021e-08
4.92127e-08
2.10799e-08
4.67018e-08
2.00209e-08
4.43167e-08
1.91682e-08
4.20414e-08
1.81901e-08
1.70491e-08
3.9916e-08
2.2187e-05
7.05047e-06
2.14297e-05
6.82274e-06
2.0697e-05
6.60223e-06
1.99879e-05
6.38867e-06
1.93018e-05
6.18182e-06
1.86379e-05
5.98147e-06
1.79956e-05
5.7874e-06
1.73741e-05
5.59939e-06
1.67729e-05
5.41725e-06
1.61912e-05
5.24079e-06
1.56285e-05
5.06982e-06
1.50842e-05
4.90418e-06
1.45578e-05
4.74369e-06
1.40485e-05
4.58819e-06
1.3556e-05
4.43753e-06
1.30797e-05
4.29155e-06
1.26191e-05
4.15012e-06
1.21737e-05
4.01308e-06
1.17431e-05
3.88032e-06
1.13267e-05
3.75168e-06
1.09241e-05
3.62707e-06
1.0535e-05
3.50634e-06
1.01588e-05
3.38938e-06
9.79518e-06