/*--------------------------------*- C++ -*----------------------------------*\
| =========                 |                                                 |
| \\      /  F ield         | OpenFOAM: The Open Source CFD Toolbox           |
|  \\    /   O peration     | Version:  v1912                                 |
|   \\  /    A nd           | Website:  www.openfoam.com                      |
|    \\/     M anipulation  |                                                 |
\*---------------------------------------------------------------------------*/
FoamFile
{
    version     2.0;
    format      ascii;
    class       volScalarField;
    location    "10";
    object      alpha.water;
}
// * * * * * * * * * * * * * * * * * * * * * * * * * * * * * * * * * * * * * //

dimensions      [0 0 0 0 0 0 0];


internalField   nonuniform List<scalar> 
14268
(
1
1
1
1
1
1
1
1
1
1
1
1
1
1
1
1
1
1
1
1
1
1
1
1
1
1
1
1
1
1
1
1
1
1
1
1
1
1
1
1
1
1
1
1
1
1
1
1
1
1
1
1
1
1
1
1
1
1
1
1
1
1
1
1
1
1
1
1
1
1
1
1
1
1
1
1
1
1
1
1
1
1
1
1
1
1
1
1
1
1
1
1
1
1
1
1
1
1
1
1
1
1
1
1
1
1
1
1
1
1
1
1
1
1
1
1
1
1
1
1
1
1
1
1
1
1
1
1
1
1
1
1
1
1
1
1
1
1
1
1
1
1
1
1
1
1
1
1
1
1
1
1
1
1
1
1
1
1
1
1
1
1
1
1
1
1
1
1
1
1
1
1
1
1
1
1
1
1
1
1
1
1
1
1
1
1
1
1
1
1
1
1
1
1
1
1
1
1
1
1
1
1
1
1
1
1
1
1
1
1
1
1
1
1
1
1
1
1
1
1
1
1
1
1
1
1
1
1
1
1
1
1
1
1
1
1
1
1
1
1
1
1
1
1
1
1
1
1
1
1
1
1
1
1
1
1
1
1
1
1
1
1
1
1
1
1
1
1
1
1
1
1
1
1
1
1
1
1
1
1
1
1
1
1
1
1
1
1
1
1
1
1
1
1
1
1
1
1
1
1
1
1
1
1
1
1
1
1
1
1
1
1
1
1
1
1
1
1
1
1
1
1
1
1
1
1
1
1
1
1
1
1
1
1
1
1
1
1
1
1
1
1
1
1
1
1
1
1
1
1
1
1
1
1
1
1
1
1
1
1
1
1
1
1
1
1
1
1
1
1
1
1
1
1
1
1
1
1
1
1
1
1
1
1
1
1
1
1
1
1
1
1
1
1
1
1
1
1
1
1
1
1
1
1
1
1
1
1
1
1
1
1
1
1
1
1
1
1
1
1
1
1
1
1
1
1
1
1
1
1
1
1
1
1
1
1
1
1
1
1
1
1
1
1
1
1
1
1
1
1
1
1
1
1
1
1
1
1
1
1
1
1
1
1
1
1
1
1
1
1
1
1
1
1
1
1
1
1
1
1
1
1
1
1
1
1
1
1
1
1
1
1
1
1
1
1
1
1
1
1
1
1
1
1
1
1
1
1
1
1
1
1
1
1
1
1
1
1
1
1
1
1
1
1
1
1
1
1
1
1
1
1
1
1
1
1
1
1
1
1
1
1
1
1
1
1
1
1
1
1
1
1
1
1
1
1
1
1
1
1
1
1
1
1
1
1
1
1
1
1
1
1
1
1
1
1
1
1
1
1
1
1
1
1
1
1
1
1
1
1
1
1
1
1
1
1
1
1
1
1
1
1
1
1
1
1
1
1
1
1
1
1
1
1
1
1
1
1
1
1
1
1
1
1
1
1
1
1
1
1
1
1
1
1
1
1
1
1
1
1
1
1
1
1
1
1
1
1
1
1
1
1
1
1
1
1
1
1
1
1
1
1
1
1
1
1
1
1
1
1
1
1
1
1
1
1
1
1
1
1
1
1
1
1
1
1
1
1
1
1
1
1
1
1
1
1
1
1
1
1
1
1
1
1
1
1
1
1
1
1
1
1
1
1
1
1
1
1
1
1
1
1
1
1
1
1
1
1
1
1
1
1
1
1
1
1
1
1
1
1
1
1
1
1
1
1
1
1
1
1
1
1
1
1
1
1
1
1
1
1
1
1
1
1
1
1
1
1
1
1
1
1
1
1
1
1
1
1
1
1
1
1
1
1
1
1
1
1
1
1
1
1
1
1
1
1
1
1
1
1
1
1
1
1
1
1
1
1
1
1
1
1
1
1
1
1
1
1
1
1
1
1
1
1
1
1
1
1
1
1
1
1
1
1
1
1
1
1
1
1
1
1
1
1
1
1
1
1
1
1
1
1
1
1
1
1
1
1
1
1
1
1
1
1
1
1
1
1
1
1
1
1
1
1
1
1
1
1
1
1
1
1
1
1
1
1
1
1
1
1
1
1
1
1
1
1
1
1
1
1
1
1
1
1
1
1
1
1
1
1
1
1
1
1
1
1
1
1
1
1
1
1
1
1
1
1
1
1
1
1
1
1
1
1
1
1
1
1
1
1
1
1
1
1
1
1
1
1
1
1
1
1
1
1
1
1
1
1
1
1
1
1
1
1
1
1
1
1
1
1
1
1
1
1
1
1
1
1
1
1
1
1
1
1
1
1
1
1
1
1
1
1
1
1
1
1
1
1
1
1
1
1
1
1
1
1
1
1
1
1
1
1
1
1
1
1
1
1
1
1
1
1
1
1
1
1
1
1
1
1
1
1
1
1
1
1
1
1
1
1
1
1
1
1
1
1
1
1
1
1
1
1
1
1
1
1
1
1
1
1
1
1
1
1
1
1
1
1
1
1
1
1
1
1
1
1
1
1
1
1
1
1
1
1
1
1
1
1
1
1
1
1
1
1
1
1
1
1
1
1
1
1
1
1
1
1
1
1
1
1
1
1
1
1
1
1
1
1
1
1
1
1
1
1
1
1
1
1
1
1
1
1
1
1
1
1
1
1
1
1
1
1
1
1
1
1
1
1
1
1
1
1
1
1
1
1
1
1
1
1
1
1
1
1
1
1
1
1
1
1
1
1
1
1
1
1
1
1
1
1
1
1
1
1
1
1
1
1
1
1
1
1
1
1
1
1
1
1
1
1
1
1
1
1
1
1
1
1
1
1
1
1
1
1
1
1
1
1
1
1
1
1
1
1
1
1
1
1
1
1
1
1
1
1
1
1
1
1
1
1
1
1
1
1
1
1
1
1
1
1
1
1
1
1
1
1
1
1
1
1
1
1
1
1
1
1
1
1
1
1
1
1
1
1
1
1
1
1
1
1
1
1
1
1
1
1
1
1
1
1
1
1
1
1
1
1
1
1
1
1
1
1
1
1
1
1
1
1
1
1
1
1
1
1
1
1
1
1
1
1
1
1
1
1
1
1
1
1
1
1
1
1
1
1
1
1
1
1
1
1
1
1
1
1
1
1
1
1
1
1
1
1
1
1
1
1
1
1
1
1
1
1
1
1
1
1
1
1
1
1
1
1
1
1
1
1
1
1
1
1
1
1
1
1
1
1
1
1
1
1
1
1
1
1
1
1
1
1
1
1
1
1
1
1
1
1
1
1
1
1
1
1
1
1
1
1
1
1
1
1
1
1
1
1
1
1
1
1
1
1
1
1
1
1
1
1
1
1
1
1
1
1
1
1
1
1
1
1
1
1
1
1
1
1
1
1
1
1
1
1
1
1
1
1
1
1
1
1
1
1
1
1
1
1
1
1
1
1
1
1
1
1
1
1
1
1
1
1
1
1
1
1
1
1
1
1
1
1
1
1
1
1
1
1
1
1
1
1
1
1
1
1
1
1
1
1
1
1
1
1
1
1
1
1
1
1
1
1
1
1
1
1
1
1
1
1
1
1
1
1
1
1
1
1
1
1
1
1
1
1
1
1
1
1
1
1
1
1
1
1
1
1
1
1
1
1
1
1
1
1
1
1
1
1
1
1
1
1
1
1
1
1
1
1
1
1
1
1
1
1
1
1
1
1
1
1
1
1
1
1
1
1
1
1
1
1
1
1
1
1
1
1
1
1
1
1
1
1
1
1
1
1
1
1
1
1
1
1
1
1
1
1
1
1
1
1
1
1
1
1
1
1
1
1
1
1
1
1
1
1
1
1
1
1
1
1
1
1
1
1
1
1
1
1
1
1
1
1
1
1
1
1
1
1
1
1
1
1
1
1
1
1
1
1
1
1
1
1
1
1
1
1
1
1
1
1
1
1
1
1
1
1
1
1
1
1
1
1
1
1
1
1
1
1
1
1
1
1
1
1
1
1
1
1
1
1
1
1
1
1
1
1
1
1
1
1
1
1
1
1
1
1
1
1
1
1
1
1
1
1
1
1
1
1
1
1
1
1
1
1
1
1
1
1
1
1
1
1
1
1
1
1
1
1
1
1
1
1
1
1
1
1
1
1
1
1
1
1
1
1
1
1
1
1
1
1
1
1
1
1
1
1
1
1
1
1
1
1
1
1
1
1
1
1
1
1
1
1
1
1
1
1
1
1
1
1
1
1
1
1
1
1
1
1
1
1
1
1
1
1
1
1
1
1
1
1
1
1
1
1
1
1
1
1
1
1
1
1
1
1
1
1
1
1
1
1
1
1
1
1
1
1
1
1
1
1
1
1
1
1
1
1
1
1
1
1
1
1
1
1
1
1
1
1
1
1
1
1
1
1
1
1
1
1
1
1
1
1
1
1
1
1
1
1
1
1
1
1
1
1
1
1
1
1
1
1
1
1
1
1
1
1
1
1
1
1
1
1
1
1
1
1
1
1
1
1
1
1
1
1
1
1
1
1
1
1
1
1
1
1
1
1
1
1
1
1
1
1
1
1
1
1
1
1
1
1
1
1
0.99997
1
1
1
1
1
1
1
1
1
1
1
1
1
1
1
1
1
1
1
1
1
1
1
1
1
1
1
1
1
1
0.999996
0.999992
0.999995
0.999999
1
1
1
1
1
1
1
1
1
1
1
1
1
1
1
1
1
1
1
1
1
1
1
1
1
1
1
1
1
1
1
1
1
1
1
1
1
1
1
1
1
1
1
1
1
1
1
1
1
1
1
0.767858
0.942599
0.996466
0.99982
0.998648
0.994646
0.980409
0.939493
0.850951
0.794391
0.826324
0.902805
0.980318
1
1
1
1
1
1
1
1
1
1
1
0.999998
0.999989
0.99996
0.99989
0.999789
0.999717
0.999722
0.999793
0.999881
0.999954
0.999991
1
1
1
1
1
1
1
1
1
1
1
1
1
1
1
1
1
1
1
1
1
1
1
1
1
1
1
1
1
1
1
1
1
1
1
1
1
1
1
1
1
1
1
1
1
1
1
1
1
1
1
0.097735
0.396317
0.673156
0.820744
0.782606
0.635043
0.439161
0.244113
0.142808
0.12652
0.175912
0.333024
0.599013
0.862202
0.98794
0.999989
0.999987
0.999986
0.999984
0.999983
0.999982
0.999981
0.99997
0.999937
0.999837
0.999536
0.998724
0.996821
0.993078
0.987189
0.980438
0.974766
0.97096
0.968407
0.965992
0.962671
0.95764
0.950368
0.940579
0.928313
0.914001
0.898386
0.882522
0.867548
0.854472
0.844365
0.837394
0.833317
0.831785
0.832414
0.834879
0.839262
0.84521
0.852284
0.860092
0.868297
0.876643
0.885062
0.89344
0.901655
0.909616
0.917253
0.924516
0.931371
0.9378
0.943792
0.949348
0.954473
0.95918
0.963485
0.967407
0.970967
0.97419
0.977096
0.979711
0.982057
0.984157
0.986032
0.987702
0.989187
0.990505
0.991672
0.992704
0.993615
0.994418
0.995124
0.000892516
0.00611166
0.0215676
0.0422109
0.0692211
0.0625538
0.0270508
0.00437635
0.0038324
0.00350298
0.00515185
0.0130214
0.0541551
0.262661
0.64722
0.91215
0.998654
0.999699
0.999655
0.999624
0.999596
0.999538
0.999272
0.998478
0.996088
0.988278
0.963418
0.899885
0.782486
0.661611
0.57394
0.518883
0.487741
0.469231
0.45335
0.433389
0.406061
0.371398
0.331558
0.289655
0.24883
0.211546
0.180464
0.155992
0.137454
0.123558
0.113589
0.107065
0.103519
0.102506
0.103587
0.105877
0.10908
0.11306
0.117692
0.12286
0.128448
0.13421
0.140002
0.145731
0.151324
0.156724
0.161888
0.166786
0.171398
0.175714
0.17973
0.183448
0.186875
0.190021
0.192898
0.195519
0.197899
0.200055
0.202001
0.203752
0.205325
0.206734
0.207994
0.209116
0.210115
0.211001
0.211787
0.212482
0.213096
0.213636
2.2669e-06
1.5352e-06
1.27918e-05
4.36625e-05
7.59496e-05
9.60809e-05
0.000110847
0.000110185
9.80359e-05
9.59536e-05
0.000141541
0.000338231
0.00136368
0.0088816
0.071899
0.379704
0.751526
0.931421
0.990185
0.99411
0.993418
0.99227
0.986758
0.967958
0.906003
0.735801
0.508041
0.303591
0.172512
0.104897
0.067233
0.047888
0.038537
0.0336472
0.0297843
0.0251648
0.0193134
0.0128619
0.00694202
0.00258496
0.000335354
4.90171e-17
4.39649e-17
2.96408e-17
1.49942e-17
6.56777e-18
4.93995e-18
1.6847e-18
5.56547e-19
5.89224e-20
1.96793e-40
5.67157e-21
-1.37401e-42
-2.42858e-44
-1.89346e-46
-1.44541e-46
-5.69487e-48
1.68274e-21
9.71888e-43
1.19848e-21
-2.82538e-44
-3.02951e-41
-3.0993e-44
6.06521e-22
-4.1223e-45
5.393e-22
1.84444e-65
1.8749e-44
3.00347e-22
-7.71785e-46
-1.527e-43
-1.53069e-41
3.30238e-45
7.48555e-23
2.82959e-67
2.75158e-45
3.24831e-23
-5.77553e-50
-1.30045e-48
-3.93443e-46
6.06946e-24
-3.02691e-47
8.95807e-25
-5.93739e-51
2.27844e-29
-6.94627e-76
4.11357e-10
1.0373e-08
1.00437e-07
4.0746e-07
8.58184e-07
1.28698e-06
1.6862e-06
2.00516e-06
2.09993e-06
2.04165e-06
2.90801e-06
7.46096e-06
3.22295e-05
0.000215801
0.00181037
0.0181192
0.133511
0.437159
0.696611
0.825093
0.857776
0.836521
0.733027
0.551064
0.327304
0.150402
0.05097
0.00614517
1.03468e-21
4.86127e-18
6.68261e-20
1.35355e-18
2.26486e-20
8.20972e-19
1.16176e-20
5.37818e-19
4.40714e-21
6.47474e-38
-7.80236e-42
-1.7296e-43
-3.33014e-45
2.04456e-44
6.67999e-34
3.49101e-34
3.06457e-36
-1.24613e-51
1.59596e-35
-2.42474e-39
-6.04061e-42
-6.68014e-45
1.16335e-46
-1.61579e-67
9.10782e-50
7.47089e-48
1.28181e-49
5.06627e-49
5.19705e-51
-2.63533e-73
-2.16566e-76
3.0805e-51
2.61631e-49
5.09559e-52
9.69766e-69
5.69984e-68
5.07601e-66
4.17331e-83
1.9381e-65
5.50043e-85
-6.548e-86
5.53457e-65
-1.85494e-74
-9.69171e-88
-7.55253e-100
-1.41519e-99
-1.22489e-113
6.56857e-92
5.02555e-76
5.31002e-60
8.43904e-58
4.05563e-71
-1.03629e-78
2.78931e-136
-1.41721e-114
-3.03245e-136
-2.77115e-133
-3.07051e-142
-1.77168e-34
4.02368e-14
1.70574e-11
4.30678e-10
1.71549e-09
3.48951e-09
5.73199e-09
9.20651e-09
1.62899e-08
2.41513e-08
4.32974e-08
1.12895e-07
5.33421e-07
3.96856e-06
3.70078e-05
0.000390333
0.00361462
0.0258183
0.0979043
0.210231
0.266928
0.236216
0.154813
0.0682031
0.0100965
1.23715e-22
3.52857e-18
1.73739e-20
-8.63981e-23
3.10246e-37
8.14644e-37
5.79301e-35
6.24217e-37
3.17511e-35
2.81398e-37
1.80472e-35
7.36943e-35
3.48673e-36
9.80269e-57
-1.83847e-44
-4.79798e-46
-4.95969e-64
1.67311e-49
8.10571e-45
3.57677e-46
-1.24585e-66
5.57507e-46
-1.85285e-42
-1.90324e-44
-3.61926e-47
-4.65128e-50
-4.80494e-53
-3.9329e-56
-2.52676e-59
-1.2658e-62
-4.91282e-66
-1.46642e-69
-3.33542e-73
-5.72124e-77
1.67968e-80
1.24477e-82
2.30738e-105
-3.94492e-106
-1.20268e-125
5.8885e-105
4.17314e-83
3.84127e-81
-4.03984e-93
-1.25944e-90
-2.58148e-88
-2.64616e-86
-7.03387e-99
-1.51442e-100
-1.18811e-97
-7.98297e-95
-4.44568e-92
-1.93686e-89
-5.90244e-87
-9.48435e-85
-1.92171e-94
-3.81041e-104
-8.09868e-114
-2.23261e-123
-8.25347e-133
-4.16092e-142
-2.97017e-151
-7.72607e-30
1.23398e-47
1.3946e-27
8.91955e-26
2.34821e-25
3.34639e-24
4.60333e-25
2.45877e-25
3.67128e-26
4.70834e-23
-6.17355e-43
2.80129e-22
9.43083e-14
5.38416e-10
2.77639e-08
6.03707e-07
1.11529e-05
0.000100526
0.000515672
0.00149414
0.00217357
0.000894634
1.57953e-06
5.06116e-18
1.84747e-19
-1.97055e-41
1.18161e-26
1.88817e-23
-7.54746e-24
-2.58945e-26
-6.58689e-29
-1.18262e-31
-1.47913e-34
2.34206e-55
4.11737e-54
2.44648e-52
1.80995e-50
1.44198e-36
2.73566e-38
-2.98348e-59
-3.57119e-47
-1.82506e-49
-2.19373e-69
1.38385e-55
1.40066e-57
2.08508e-66
3.75555e-63
-8.68498e-45
-5.30538e-47
-9.17638e-50
-9.49994e-53
-8.18457e-56
-5.79417e-59
-3.33728e-62
-1.55006e-65
-5.74759e-69
-1.6823e-72
-3.83895e-76
-6.31683e-80
8.91331e-84
4.12968e-87
-1.197e-108
-1.55621e-102
7.15554e-106
1.17677e-110
-7.40227e-134
4.12202e-106
3.33155e-104
-2.31882e-102
-4.82157e-100
-5.01293e-98
-1.50826e-110
-6.66842e-121
-1.23222e-132
-1.6741e-143
-2.63525e-154
-4.93634e-165
-1.75551e-175
-8.0573e-186
-6.15826e-196
-6.49199e-206
-1.02984e-215
-2.325e-225
-7.59099e-235
-3.56359e-244
-2.40673e-253
-1.08933e-29
-6.04618e-29
-5.63106e-29
-4.16417e-30
-1.09949e-30
2.43129e-43
3.9961e-41
3.07702e-44
-2.26153e-27
-1.31625e-27
-1.74352e-26
-5.16181e-26
-1.52434e-25
-2.16829e-25
-1.1841e-25
-1.09421e-42
7.69322e-23
-2.7601e-42
1.12699e-21
-1.5429e-39
2.06392e-20
1.73355e-26
1.1059e-23
1.26547e-34
-7.40032e-39
-2.97695e-24
-1.54074e-26
4.03107e-27
-5.30297e-25
-1.99453e-27
-4.63465e-30
-7.40228e-33
-8.37026e-36
-6.24015e-39
-3.9802e-42
-2.86744e-45
-2.61929e-48
4.58689e-38
5.12984e-39
2.39268e-41
3.59282e-62
-4.84693e-51
-1.28197e-53
-2.35704e-56
-1.83278e-59
-1.41553e-62
-3.28026e-67
-3.09577e-47
-1.31748e-49
-2.03644e-52
-1.83403e-55
-1.38702e-58
-8.76485e-62
-4.58171e-65
-1.96293e-68
-6.8219e-72
-1.9015e-75
-4.19793e-79
-7.23719e-83
-9.58138e-87
-9.54234e-91
-6.95976e-95
-3.58179e-99
-1.23007e-103
-2.56529e-108
-2.66895e-113
-7.21505e-119
-2.02063e-117
-6.52131e-115
-1.37733e-112
-1.45272e-110
-7.60161e-123
-1.51315e-132
-2.49208e-144
-3.13292e-155
-5.77297e-166
-1.10137e-176
-3.75284e-187
-1.71142e-197
-1.2787e-207
-1.32065e-217
-2.07104e-227
-4.59744e-237
-1.49139e-246
-6.91273e-256
-4.65261e-265
-6.32967e-30
-4.99452e-29
-1.69264e-28
-4.43115e-29
-2.45129e-28
-1.27674e-27
-4.61773e-27
-8.80677e-27
-1.23437e-27
-1.35304e-27
-1.06898e-26
-6.19328e-26
-1.92391e-25
-2.33027e-25
-1.60862e-25
-1.63169e-26
-2.12662e-27
-5.0576e-27
-2.57331e-27
-3.45022e-27
-4.29549e-27
-1.25384e-25
-9.16871e-26
-1.57407e-24
-1.90889e-24
-1.57196e-24
-1.10369e-26
-1.23008e-46
-2.3379e-26
-7.94109e-29
-1.66711e-31
-2.45132e-34
-2.72391e-37
-2.68911e-40
-3.10605e-43
-4.07088e-46
-5.01966e-49
-7.12493e-58
-1.2912e-58
4.28976e-42
4.19545e-44
1.10795e-64
-1.76426e-55
-5.07585e-58
-7.87837e-61
-9.41091e-64
-8.49724e-67
-8.90142e-50
-3.10061e-52
-4.30944e-55
-3.5004e-58
-2.33285e-61
-1.31972e-64
-6.24354e-68
-2.43922e-71
-7.77856e-75
-2.00129e-78
-4.10282e-82
-6.60943e-86
-8.23059e-90
-7.76481e-94
-5.40668e-98
-2.68074e-102
-8.97401e-107
-1.85673e-111
-1.98662e-116
-6.14261e-122
-4.25552e-131
-1.39806e-128
-3.00068e-126
-3.21207e-124
-1.64149e-136
-2.09738e-145
-4.39115e-157
-2.23795e-168
-3.42455e-179
-6.0137e-190
-2.06292e-200
-8.95051e-211
-6.70193e-221
-6.83363e-231
-1.07252e-240
-2.38453e-250
-7.7485e-260
-3.59962e-269
-2.42489e-278
-1.98425e-30
-1.7372e-29
-6.62207e-29
-2.41574e-29
-1.50889e-28
-8.13073e-28
-2.49291e-27
-3.4332e-27
-4.17987e-28
-5.92698e-28
-4.85142e-27
-2.92335e-26
-9.62927e-26
-1.29871e-25
-1.06914e-25
-1.32641e-26
-2.89167e-27
-7.13451e-27
-6.96927e-27
-2.21379e-26
-4.6238e-26
-1.92638e-25
-1.64129e-25
-1.45037e-24
-1.28453e-24
-5.07992e-25
-3.84168e-27
-2.37693e-29
-7.19952e-28
-2.16219e-30
-4.13217e-33
-6.03487e-36
-8.57544e-39
-1.51568e-41
-2.8786e-44
-4.61559e-47
-6.07675e-50
-6.34663e-53
-6.70407e-56
1.10013e-59
2.99507e-45
1.92376e-47
7.87718e-68
-3.90471e-60
-8.92554e-63
-1.25111e-65
-1.03752e-68
-2.32448e-52
-6.92439e-55
-8.70626e-58
-6.49239e-61
-3.85196e-64
-1.95171e-67
-8.34066e-71
-2.96705e-74
-8.67412e-78
-2.05813e-81
-3.91291e-85
-5.87782e-89
-6.86369e-93
-6.10831e-97
-4.03885e-101
-1.91654e-105
-6.20311e-110
-1.26021e-114
-1.36537e-119
-4.84735e-125
-1.99656e-155
-6.67649e-153
-1.45619e-150
-1.58199e-148
-1.75982e-159
-2.38169e-171
-1.58076e-182
-1.61888e-193
-3.27644e-204
-7.2112e-215
-2.73306e-225
-1.3585e-235
-1.06826e-245
-1.14934e-255
-1.84915e-265
-4.17428e-275
-1.37047e-284
-6.39595e-294
-4.32221e-303
-4.25919e-31
-3.99221e-30
-1.6013e-29
-7.12603e-30
-4.98829e-29
-2.77377e-28
-7.67569e-28
-9.15324e-28
-1.07572e-28
-1.9957e-28
-1.69204e-27
-1.06602e-26
-3.72158e-26
-5.43793e-26
-4.86132e-26
-7.05035e-27
-1.54867e-27
-4.31016e-27
-4.68545e-27
-1.75039e-26
-3.49288e-26
-1.48684e-25
-8.16881e-26
-6.93921e-25
-4.62845e-25
-1.18992e-25
-8.91163e-28
-8.30002e-30
-1.70085e-29
-4.62673e-32
-9.02089e-35
-1.78783e-37
-4.56129e-40
-1.20982e-42
-2.59558e-45
-4.25175e-48
-5.63544e-51
-6.62509e-54
-7.74379e-57
-5.26235e-60
4.94265e-65
8.51714e-49
4.25817e-51
2.50423e-72
-4.33867e-65
-7.96524e-68
-5.9334e-71
-5.53552e-55
-1.44807e-57
-1.66195e-60
-1.14802e-63
-6.13651e-67
-2.80512e-70
-1.08524e-73
-3.51403e-77
-9.41148e-81
-2.05917e-84
-3.6325e-88
-5.09291e-92
-5.5828e-96
-4.69161e-100
-2.94811e-104
-1.33946e-108
-4.19104e-113
-8.35009e-118
-9.12181e-123
-3.60628e-128
-3.92592e-156
-9.01925e-166
-1.99942e-163
-2.20489e-161
-2.3308e-172
-2.16438e-184
-1.08001e-195
-7.68211e-207
-1.25859e-217
-2.23405e-228
-7.66848e-239
-3.3646e-249
-2.52597e-259
-2.57282e-269
-4.04506e-279
-8.95417e-289
-2.9096e-298
-1.34602e-307
-9.05302e-317
-6.68224e-32
-6.6817e-31
-2.81925e-30
-1.48524e-30
-1.15639e-29
-6.65314e-29
-1.73268e-28
-1.91626e-28
-2.31798e-29
-5.34215e-29
-4.68546e-28
-3.0967e-27
-1.14658e-26
-1.80578e-26
-1.72426e-26
-2.8216e-27
-5.82174e-28
-1.71962e-27
-2.03169e-27
-8.40351e-27
-1.62197e-26
-7.56282e-26
-2.90006e-26
-2.27259e-25
-1.17144e-25
-2.16401e-26
-1.54871e-28
-1.5248e-30
-3.38435e-31
-9.4718e-34
-2.63675e-36
-9.32691e-39
-3.31558e-41
-9.43497e-44
-2.00835e-46
-3.25016e-49
-4.30251e-52
-5.17441e-55
-6.26097e-58
-7.1991e-61
-8.70714e-64
4.69097e-65
1.27732e-52
5.14048e-55
-4.69182e-76
-2.30892e-70
-1.78385e-73
-1.20008e-57
-2.81994e-60
-2.98226e-63
-1.91942e-66
-9.31828e-70
-3.87664e-73
-1.36772e-76
-4.05016e-80
-9.95936e-84
-2.01049e-87
-3.2903e-91
-4.30443e-95
-4.42861e-99
-3.51406e-103
-2.09832e-107
-9.12533e-112
-2.75797e-116
-5.37875e-121
-5.89604e-126
-2.53345e-131
-4.168e-152
-1.20136e-234
-7.92975e-321
0
0
0
0
0
0
0
0
0
0
0
0
0
0
0
0
-8.138e-33
-8.63188e-32
-3.81744e-31
-2.39446e-31
-2.04873e-30
-1.22741e-29
-3.11355e-29
-3.36434e-29
-4.31955e-30
-1.17274e-29
-1.06196e-28
-7.3572e-28
-2.88654e-27
-4.88721e-27
-4.93131e-27
-8.95495e-28
-1.69339e-28
-5.09721e-28
-6.53297e-28
-2.94533e-27
-5.55623e-27
-2.82378e-26
-8.34461e-27
-5.67032e-26
-2.30195e-26
-3.18436e-27
-2.14524e-29
-1.97678e-31
-7.10866e-33
-2.91994e-35
-1.39935e-37
-6.42306e-40
-2.35648e-42
-6.51105e-45
-1.34559e-47
-2.14639e-50
-2.84458e-53
-3.46962e-56
-4.29194e-59
-5.59398e-62
-7.99503e-65
6.19048e-85
1.14393e-87
1.06717e-56
3.48111e-59
-9.91149e-80
-1.70336e-76
-2.38352e-60
-5.11833e-63
-5.02684e-66
-3.02794e-69
-1.34229e-72
-5.11519e-76
-1.65791e-79
-4.52287e-83
-1.02759e-86
-1.92288e-90
-2.92795e-94
-3.57908e-98
-3.45728e-102
-2.58948e-106
-1.46834e-110
-6.10662e-115
-1.78062e-119
-3.39295e-124
-3.71715e-129
-1.70616e-134
-3.57963e-148
-4.55986e-230
-6.46129e-316
0
0
0
0
0
0
0
0
0
0
0
0
0
0
0
0
-7.82667e-34
-8.83791e-33
-4.1338e-32
-3.12396e-32
-2.89622e-31
-1.81386e-30
-4.63583e-30
-5.12786e-30
-7.15265e-31
-2.15945e-30
-2.01919e-29
-1.46543e-28
-6.07724e-28
-1.1021e-27
-1.16492e-27
-2.3227e-28
-4.01918e-29
-1.1826e-28
-1.65711e-28
-8.06428e-28
-1.51522e-27
-8.21329e-27
-2.0637e-27
-1.13855e-26
-3.68854e-27
-3.90229e-28
-2.46174e-30
-2.03312e-32
-2.46596e-34
-1.59092e-36
-9.21384e-39
-4.25225e-41
-1.49667e-43
-3.96995e-46
-7.98972e-49
-1.26374e-51
-1.68761e-54
-2.09697e-57
-2.65706e-60
-3.62974e-63
-5.49232e-66
-7.60151e-69
-1.14181e-71
9.13898e-74
4.99522e-61
1.32025e-63
8.39034e-85
-4.37434e-63
-8.68697e-66
-7.97048e-69
-4.51017e-72
-1.83341e-75
-6.42889e-79
-1.92393e-82
-4.8625e-86
-1.02686e-89
-1.79183e-93
-2.55256e-97
-2.92907e-101
-2.66592e-105
-1.88924e-109
-1.01855e-113
-4.05167e-118
-1.13891e-122
-2.11622e-127
-2.30757e-132
-1.11517e-137
-2.48191e-144
-1.48991e-225
-5.63332e-311
0
0
0
0
0
0
0
0
0
0
0
0
0
0
0
0
-6.26537e-35
-7.48903e-34
-3.71165e-33
-3.39992e-33
-3.35936e-32
-2.18908e-31
-5.82702e-31
-6.87529e-31
-1.05205e-31
-3.36981e-31
-3.25677e-30
-2.47678e-29
-1.08583e-28
-2.10652e-28
-2.31817e-28
-5.03503e-29
-8.08284e-30
-2.21403e-29
-3.4229e-29
-1.78999e-28
-3.42823e-28
-1.93148e-27
-4.49003e-28
-1.90019e-27
-4.95917e-28
-4.06811e-29
-2.40282e-31
-1.75912e-33
-1.40794e-35
-1.01314e-37
-5.77755e-40
-2.53856e-42
-8.51865e-45
-2.18101e-47
-4.30954e-50
-6.81612e-53
-9.24466e-56
-1.17803e-58
-1.53608e-61
-2.16608e-64
-3.37863e-67
-5.55772e-70
-9.44362e-73
-2.06736e-76
9.65497e-78
1.29532e-65
2.7582e-68
-7.47396e-66
-1.38374e-68
-1.19164e-71
-6.35564e-75
-2.3796e-78
-7.70164e-82
-2.13569e-85
-5.0186e-89
-9.88664e-93
-1.6146e-96
-2.15966e-100
-2.33452e-104
-2.0083e-108
-1.35004e-112
-6.93235e-117
-2.63938e-121
-7.14744e-126
-1.29199e-130
-1.39505e-135
-6.9983e-141
-3.99524e-147
-4.1978e-221
-4.73706e-306
0
0
0
0
0
0
0
0
0
0
0
0
0
0
0
0
-4.3133e-36
-5.46295e-35
-2.91245e-34
-3.20657e-34
-3.30859e-33
-2.20791e-32
-6.27521e-32
-8.14692e-32
-1.38341e-32
-4.52846e-32
-4.53313e-31
-3.61298e-30
-1.67057e-29
-3.45744e-29
-3.94341e-29
-9.28482e-30
-1.42401e-30
-3.41819e-30
-5.9027e-30
-3.30418e-29
-6.62306e-29
-3.76829e-28
-8.63639e-29
-2.69293e-28
-5.70315e-29
-3.66831e-30
-2.03394e-32
-1.32263e-34
-8.83549e-37
-6.07874e-39
-3.28336e-41
-1.37042e-43
-4.41599e-46
-1.102e-48
-2.15956e-51
-3.44747e-54
-4.78612e-57
-6.29074e-60
-8.4685e-63
-1.22851e-65
-1.95739e-68
-3.34288e-71
-5.8885e-74
-8.96122e-77
-3.34886e-80
4.8019e-82
1.81549e-70
-1.19587e-68
-2.07598e-71
-1.68442e-74
-8.49318e-78
-2.98576e-81
-8.87792e-85
-2.27624e-88
-4.97225e-92
-9.14128e-96
-1.39721e-99
-1.75313e-103
-1.78119e-107
-1.44281e-111
-9.14922e-116
-4.44098e-120
-1.6027e-124
-4.1309e-129
-7.15768e-134
-7.5148e-139
-3.81216e-144
-3.36362e-150
-1.02081e-216
-3.6253e-301
0
0
0
0
0
0
0
0
0
0
0
0
0
0
0
0
-2.85132e-37
-3.78787e-36
-2.21526e-35
-2.8373e-35
-2.96342e-34
-1.93322e-33
-5.864e-33
-8.59621e-33
-1.63044e-33
-5.27264e-33
-5.47294e-32
-4.57543e-31
-2.23135e-30
-4.92257e-30
-5.80584e-30
-1.47878e-30
-2.25193e-31
-4.42647e-31
-8.63271e-31
-5.16873e-30
-1.11391e-29
-6.21525e-29
-1.46588e-29
-3.29113e-29
-5.69159e-30
-2.90021e-31
-1.51601e-33
-8.81702e-36
-5.19617e-38
-3.31877e-40
-1.69915e-42
-6.79329e-45
-2.12454e-47
-5.22526e-50
-1.02619e-52
-1.66774e-55
-2.38426e-58
-3.24268e-61
-4.50767e-64
-6.70802e-67
-1.08613e-69
-1.87594e-72
-3.33011e-75
-5.76985e-78
-8.77358e-81
-8.92448e-84
1.13046e-90
-1.80034e-71
-2.94321e-74
-2.25728e-77
-1.0788e-80
-3.59651e-84
-9.90006e-88
-2.34999e-91
-4.75816e-95
-8.12281e-99
-1.15454e-102
-1.3479e-106
-1.27368e-110
-9.58373e-115
-5.63566e-119
-2.5323e-123
-8.44923e-128
-2.01352e-132
-3.23496e-137
-3.17938e-142
-1.55776e-147
-1.71932e-153
-4.47452e-212
-2.47154e-296
0
0
0
0
0
0
0
0
0
0
0
0
0
0
0
0
-1.80353e-38
-2.52165e-37
-1.5573e-36
-2.34493e-36
-2.52608e-35
-1.61071e-34
-4.85142e-34
-8.15625e-34
-1.73631e-34
-5.38043e-34
-5.79643e-33
-5.08553e-32
-2.61178e-31
-6.13053e-31
-7.4685e-31
-2.05921e-31
-3.25368e-32
-4.88502e-32
-1.08594e-31
-6.95528e-31
-1.65314e-30
-8.7939e-30
-2.19132e-30
-3.51069e-30
-4.98672e-31
-2.03371e-32
-1.00771e-34
-5.28852e-37
-2.8023e-39
-1.65893e-41
-8.12217e-44
-3.14536e-46
-9.66047e-49
-2.36815e-51
-4.70446e-54
-7.83264e-57
-1.15654e-59
-1.62725e-62
-2.33008e-65
-3.5433e-68
-5.80366e-71
-1.00558e-73
-1.78127e-76
-3.12443e-79
-5.24459e-82
-8.0827e-85
-1.12588e-87
-2.56008e-74
-3.95516e-77
-2.87502e-80
-1.30509e-83
-4.13773e-87
-1.05917e-90
-2.33764e-94
-4.39538e-98
-6.95386e-102
-9.13683e-106
-9.83286e-110
-8.53855e-114
-5.88516e-118
-3.15989e-122
-1.29262e-126
-3.91763e-131
-8.47316e-136
-1.23784e-140
-1.1151e-145
-5.14268e-151
-6.37312e-157
-6.05465e-207
-1.4938e-291
0
0
0
0
0
0
0
0
0
0
0
0
0
0
0
0
-1.02637e-39
-1.50339e-38
-9.78923e-38
-1.73109e-37
-1.92369e-36
-1.26117e-35
-3.69875e-35
-6.90075e-35
-1.67913e-35
-4.84204e-35
-5.40563e-34
-4.98128e-33
-2.69361e-32
-6.72386e-32
-8.46737e-32
-2.53532e-32
-4.32767e-33
-4.67566e-33
-1.18774e-32
-8.15151e-32
-2.18409e-31
-1.07987e-30
-2.88556e-31
-3.30189e-31
-3.87424e-32
-1.27791e-33
-6.04173e-36
-2.89072e-38
-1.39631e-40
-7.69724e-43
-3.64545e-45
-1.38411e-47
-4.22338e-50
-1.04188e-52
-2.10728e-55
-3.60465e-58
-5.4942e-61
-7.97376e-64
-1.17129e-66
-1.81186e-69
-2.98952e-72
-5.1742e-75
-9.1049e-78
-1.58442e-80
-2.6647e-83
-4.24071e-86
-6.29094e-89
-3.45003e-77
-5.0514e-80
-3.48771e-83
-1.50609e-86
-4.54605e-90
-1.08367e-93
-2.22736e-97
-3.89669e-101
-5.72499e-105
-6.96538e-109
-6.916e-113
-5.51827e-117
-3.47985e-121
-1.70237e-125
-6.32145e-130
-1.73415e-134
-3.38995e-139
-4.48123e-144
-3.67735e-149
-1.58013e-154
-2.0743e-160
-6.23408e-202
-8.11577e-287
0
0
0
0
0
0
0
0
0
0
0
0
0
0
0
0
-5.24078e-41
-8.04426e-40
-5.539e-39
-1.15094e-38
-1.31357e-37
-8.85025e-37
-2.64356e-36
-5.22018e-36
-1.48442e-36
-3.88153e-36
-4.4735e-35
-4.33152e-34
-2.46379e-33
-6.53402e-33
-8.51978e-33
-2.78533e-33
-5.30241e-34
-3.97592e-34
-1.14105e-33
-8.41071e-33
-2.58313e-32
-1.16224e-31
-3.35458e-32
-2.76282e-32
-2.69307e-33
-7.26465e-35
-3.30249e-37
-1.45793e-39
-6.51306e-42
-3.36671e-44
-1.56189e-46
-5.88242e-49
-1.80045e-51
-4.49841e-54
-9.28881e-57
-1.63122e-59
-2.55815e-62
-3.81283e-65
-5.71848e-68
-8.95875e-71
-1.48347e-73
-2.55662e-76
-4.45578e-79
-7.65209e-82
-1.26819e-84
-1.99233e-87
-2.92154e-90
-4.41869e-80
-6.14521e-83
-4.03662e-86
-1.65987e-89
-4.77251e-93
-1.06036e-96
-2.03232e-100
-3.31665e-104
-4.54725e-108
-5.16544e-112
-4.79151e-116
-3.57424e-120
-2.10888e-124
-9.66162e-129
-3.3637e-133
-8.66567e-138
-1.59499e-142
-1.99439e-147
-1.56226e-152
-6.55269e-158
-9.28233e-164
-3.97448e-197
-4.41889e-282
0
0
0
0
0
0
0
0
0
0
0
0
0
0
0
0
-2.42831e-42
-3.89238e-41
-2.83486e-40
-6.9094e-40
-8.077e-39
-5.59801e-38
-1.70528e-37
-3.55338e-37
-1.20422e-37
-2.79496e-37
-3.29686e-36
-3.35542e-35
-2.00723e-34
-5.65478e-34
-7.65852e-34
-2.75304e-34
-5.9662e-35
-3.11224e-35
-9.71979e-35
-7.71361e-34
-2.74426e-33
-1.10592e-32
-3.45542e-33
-2.0739e-33
-1.68928e-34
-3.77169e-36
-1.66375e-38
-6.87303e-41
-2.88575e-43
-1.41012e-45
-6.48689e-48
-2.44639e-50
-7.55643e-53
-1.91675e-55
-4.03642e-58
-7.25254e-61
-1.16514e-63
-1.77482e-66
-2.70544e-69
-4.2754e-72
-7.08158e-75
-1.2119e-77
-2.08673e-80
-3.5271e-83
-5.73617e-86
-8.82384e-89
-1.26459e-91
-5.39111e-83
-7.13359e-86
-4.46282e-89
-1.74847e-92
-4.78988e-96
-9.9265e-100
-1.7761e-103
-2.70947e-107
-3.48012e-111
-3.71584e-115
-3.25503e-119
-2.30697e-123
-1.30292e-127
-5.7637e-132
-1.95672e-136
-4.96976e-141
-9.13015e-146
-1.15646e-150
-9.36903e-156
-4.22881e-161
-7.28415e-167
-1.6621e-192
-3.27497e-277
0
0
0
0
0
0
0
0
0
0
0
0
0
0
0
0
-1.0211e-43
-1.70761e-42
-1.31911e-41
-3.76916e-41
-4.49913e-40
-3.20996e-39
-1e-38
-2.19059e-38
-8.99631e-39
-1.82882e-38
-2.17634e-37
-2.32775e-36
-1.46373e-35
-4.37939e-35
-6.18474e-35
-2.46438e-35
-6.14332e-36
-2.35291e-36
-7.41265e-36
-6.34236e-35
-2.62462e-34
-9.3773e-34
-3.1676e-34
-1.40797e-34
-9.64369e-36
-1.80611e-37
-7.81436e-40
-3.0704e-42
-1.23254e-44
-5.73735e-47
-2.64358e-49
-1.00393e-51
-3.13506e-54
-8.06298e-57
-1.7259e-59
-3.15876e-62
-5.17351e-65
-8.01797e-68
-1.2372e-70
-1.96527e-73
-3.24651e-76
-5.50329e-79
-9.34071e-82
-1.55064e-84
-2.46948e-87
-3.71086e-90
-5.1849e-93
-6.27735e-86
-7.91207e-89
-4.71716e-92
-1.76128e-95
-4.59748e-99
-8.90832e-103
-1.48675e-106
-2.1209e-110
-2.55286e-114
-2.56099e-118
-2.11464e-122
-1.41838e-126
-7.61765e-131
-3.22284e-135
-1.0538e-139
-2.60368e-144
-4.74289e-149
-6.27125e-154
-6.18858e-159
-4.82726e-164
-2.15052e-169
-4.72684e-188
-3.52701e-272
0
0
0
0
0
0
0
0
0
0
0
0
0
0
0
0
-3.92581e-45
-6.82798e-44
-5.60405e-43
-1.87309e-42
-2.2788e-41
-1.67695e-40
-5.36896e-40
-1.23159e-39
-6.20282e-40
-1.10092e-39
-1.29155e-38
-1.45069e-37
-9.58887e-37
-3.04798e-36
-4.51076e-36
-2.00885e-36
-5.7765e-37
-1.7993e-37
-5.11486e-37
-4.7114e-36
-2.26357e-35
-7.13731e-35
-2.59666e-35
-8.7157e-36
-5.05517e-37
-8.06346e-39
-3.46471e-41
-1.31823e-43
-5.14317e-46
-2.30414e-48
-1.06496e-50
-4.07762e-53
-1.28522e-55
-3.33946e-58
-7.23448e-61
-1.34299e-63
-2.23276e-66
-3.5058e-69
-5.45578e-72
-8.68369e-75
-1.42683e-77
-2.39036e-80
-3.99111e-83
-6.49552e-86
-1.01138e-88
-1.48265e-91
-2.01757e-94
-6.98517e-89
-8.39201e-92
-4.76938e-95
-1.69716e-98
-4.22118e-102
-7.76773e-106
-1.206e-109
-1.60301e-113
-1.80332e-117
-1.69675e-121
-1.31894e-125
-8.36267e-130
-4.26949e-134
-1.73717e-138
-5.6605e-143
-1.57455e-147
-4.48018e-152
-1.4524e-156
-4.19428e-161
-7.59052e-166
-5.49172e-171
-9.21534e-184
-3.88008e-267
0
0
0
0
0
0
0
0
0
0
0
0
0
0
0
0
-1.38497e-46
-2.49604e-45
-2.1834e-44
-8.52214e-44
-1.05454e-42
-8.02069e-42
-2.65758e-41
-6.3607e-41
-3.95538e-41
-6.18963e-41
-6.9254e-40
-8.15455e-39
-5.66538e-38
-1.91408e-37
-2.98489e-37
-1.49738e-37
-4.95738e-38
-1.4157e-38
-3.23229e-38
-3.18313e-37
-1.76308e-36
-4.90969e-36
-1.91304e-36
-4.96071e-37
-2.45673e-38
-3.39725e-40
-1.46959e-42
-5.5121e-45
-2.11828e-47
-9.21239e-50
-4.2505e-52
-1.63689e-54
-5.18771e-57
-1.3561e-59
-2.96092e-62
-5.55286e-65
-9.33522e-68
-1.47972e-70
-2.31488e-73
-3.6812e-76
-6.0017e-79
-9.9166e-82
-1.6259e-84
-2.59023e-87
-3.93818e-90
-5.62672e-93
-7.45192e-96
-7.43496e-92
-8.51666e-95
-4.61403e-98
-1.5647e-101
-3.70801e-105
-6.49964e-109
-9.43678e-113
-1.17382e-116
-1.23719e-120
-1.09344e-124
-8.03917e-129
-4.93232e-133
-2.64888e-137
-1.47098e-141
-1.04112e-145
-8.42167e-150
-5.90538e-154
-3.04216e-158
-1.03372e-162
-2.00878e-167
-1.60453e-172
-1.21051e-179
-3.58273e-262
0
0
0
0
0
0
0
0
0
0
0
0
0
0
0
0
-4.49852e-48
-8.38258e-47
-7.83127e-46
-3.55899e-45
-4.47377e-44
-3.52776e-43
-1.22089e-42
-3.04107e-42
-2.33741e-42
-3.30047e-42
-3.37008e-41
-4.14622e-40
-3.02845e-39
-1.08853e-38
-1.79966e-38
-1.02381e-38
-3.88601e-39
-1.12191e-39
-1.89796e-39
-1.96689e-38
-1.24216e-37
-3.07382e-37
-1.27316e-37
-2.6183e-38
-1.11863e-39
-1.36902e-41
-6.04349e-44
-2.26909e-46
-8.65941e-49
-3.66867e-51
-1.67726e-53
-6.46913e-56
-2.05254e-58
-5.3758e-61
-1.17867e-63
-2.2252e-66
-3.76997e-69
-6.01386e-72
-9.43035e-75
-1.49448e-77
-2.41246e-80
-3.92454e-83
-6.30934e-86
-9.827e-89
-1.45753e-91
-2.02816e-94
-2.61295e-97
-7.57397e-95
-8.2723e-98
-4.27181e-101
-1.38043e-104
-3.11699e-108
-5.2069e-112
-7.08311e-116
-8.28755e-120
-8.31987e-124
-7.34396e-128
-6.38988e-132
-6.97401e-136
-1.01328e-139
-1.51925e-143
-1.9304e-147
-1.915e-151
-1.4151e-155
-7.41182e-160
-2.55969e-164
-5.13368e-169
-4.44374e-174
-1.94126e-180
-2.67836e-257
0
0
0
0
0
0
0
0
0
0
0
0
0
0
0
0
-1.34674e-49
-2.59901e-48
-2.59662e-47
-1.37021e-46
-1.74742e-45
-1.43313e-44
-5.23674e-44
-1.35666e-43
-1.28305e-43
-1.69257e-43
-1.4972e-42
-1.91321e-41
-1.46953e-40
-5.62548e-40
-9.92297e-40
-6.43521e-40
-2.78671e-40
-8.62946e-41
-1.05301e-40
-1.11641e-39
-7.92946e-39
-1.76524e-38
-7.69428e-39
-1.29244e-39
-4.82642e-41
-5.35163e-43
-2.43816e-45
-9.25683e-48
-3.51629e-50
-1.45051e-52
-6.51441e-55
-2.50489e-57
-7.9249e-60
-2.07249e-62
-4.54848e-65
-8.61768e-68
-1.46705e-70
-2.34852e-73
-3.68186e-76
-5.80161e-79
-9.25558e-82
-1.4803e-84
-2.33082e-87
-3.54604e-90
-5.12725e-93
-6.94528e-96
-8.70192e-99
-7.38735e-98
-7.69218e-101
-3.78615e-104
-1.16627e-107
-2.5131e-111
-4.02734e-115
-5.28401e-119
-6.53619e-123
-9.23099e-127
-1.84246e-130
-4.54863e-134
-1.07471e-137
-2.1547e-141
-3.50586e-145
-4.50966e-149
-4.46798e-153
-3.30019e-157
-1.7371e-161
-6.08364e-166
-1.25769e-170
-1.17133e-175
-1.08712e-181
-1.62989e-252
0
0
0
0
0
0
0
0
0
0
0
0
0
0
0
0
-3.7306e-51
-7.47307e-50
-7.98922e-49
-4.87683e-48
-6.3065e-47
-5.39958e-46
-2.10778e-45
-5.69172e-45
-6.55957e-45
-8.4231e-45
-6.11598e-44
-8.03387e-43
-6.49136e-42
-2.65039e-41
-5.02001e-41
-3.72441e-41
-1.8316e-41