/*--------------------------------*- C++ -*----------------------------------*\
| =========                 |                                                 |
| \\      /  F ield         | OpenFOAM: The Open Source CFD Toolbox           |
|  \\    /   O peration     | Version:  v1912                                 |
|   \\  /    A nd           | Website:  www.openfoam.com                      |
|    \\/     M anipulation  |                                                 |
\*---------------------------------------------------------------------------*/
FoamFile
{
    version     2.0;
    format      ascii;
    class       volScalarField;
    location    "60";
    object      k;
}
// * * * * * * * * * * * * * * * * * * * * * * * * * * * * * * * * * * * * * //

dimensions      [0 2 -2 0 0 0 0];


internalField   nonuniform List<scalar> 
14268
(
0.0483634
0.0447216
0.03143
0.0225013
0.0200656
0.0240617
0.0354006
0.0258848
0.00942444
0.00602845
0.00719865
0.0132972
0.029269
0.0483733
0.0575515
0.0556949
0.0475134
0.0331809
0.0211995
0.0206382
0.0231525
0.0256102
0.0232531
0.0157328
0.00768985
0.0078571
0.0122617
0.0184301
0.0185095
0.0152655
0.00982288
0.00415399
0.00291934
0.00350392
0.00352041
0.00215531
0.00224021
0.00357786
0.00379591
0.00359547
0.00308887
0.00195793
0.00118325
0.00104556
0.000992703
0.000843707
0.000616184
0.000734791
0.00170638
0.00595324
0.0114172
0.0146775
0.0163572
0.0155399
0.0118283
0.00402839
0.00124872
0.00146367
0.00244996
0.00185144
0.00085201
0.000729274
0.000927221
0.00138129
0.00197979
0.00263927
0.00276636
0.00278008
0.00252142
0.00179476
0.00178609
0.00222864
0.00294228
0.00308824
0.00298473
0.00344137
0.00521956
0.00808773
0.00967154
0.00933754
0.00683833
0.00200946
0.00036599
9.59396e-05
9.61467e-05
7.16987e-05
2.21979e-05
3.85067e-06
6.29134e-07
1.02191e-07
1.65055e-08
2.63091e-09
4.11627e-10
6.32576e-11
9.83315e-12
1.86207e-12
7.19671e-13
5.77272e-13
5.75277e-13
5.99464e-13
6.40465e-13
6.87331e-13
7.36915e-13
7.90756e-13
8.50405e-13
9.16057e-13
9.87244e-13
1.06351e-12
1.14455e-12
1.23014e-12
1.32012e-12
1.41434e-12
1.51267e-12
1.61498e-12
1.72107e-12
1.83073e-12
1.94379e-12
2.06013e-12
2.17965e-12
2.30217e-12
2.42744e-12
2.55509e-12
2.68471e-12
2.81594e-12
2.94846e-12
3.08197e-12
3.21623e-12
3.35098e-12
3.48605e-12
3.62121e-12
3.75625e-12
3.8908e-12
4.02472e-12
4.15767e-12
4.28954e-12
4.42004e-12
4.54908e-12
4.6764e-12
4.80191e-12
4.92541e-12
5.04681e-12
5.16599e-12
5.28284e-12
5.39735e-12
5.50924e-12
5.61847e-12
5.7241e-12
5.82985e-12
5.91872e-12
6.04242e-12
0.19322
0.18836
0.136001
0.0992626
0.0881842
0.106891
0.141843
0.0896923
0.0388342
0.028032
0.0332897
0.0545642
0.109495
0.177059
0.210945
0.20708
0.175022
0.116892
0.0713942
0.0650828
0.0735105
0.0799951
0.0730507
0.0509717
0.0282233
0.0297443
0.0430755
0.0605684
0.0613111
0.0513265
0.0343529
0.0164202
0.0119764
0.0136267
0.0140203
0.00969683
0.0117974
0.015633
0.0161339
0.0156706
0.0147846
0.0115419
0.00820706
0.00730303
0.00712854
0.0065422
0.00508975
0.00521268
0.00816457
0.0220361
0.0406061
0.052163
0.0586225
0.057028
0.0446339
0.0155033
0.00522696
0.0057631
0.0102109
0.00849953
0.0047933
0.00429911
0.00512878
0.00689592
0.0091784
0.0122915
0.0128893
0.0127703
0.0120057
0.00915308
0.00875808
0.0102839
0.0126998
0.0133552
0.0130588
0.0144963
0.0204437
0.0302032
0.0359022
0.0351507
0.0266084
0.00907498
0.00230751
0.000757619
0.000963598
0.000885942
0.000380825
7.66739e-05
1.38534e-05
2.40316e-06
4.04795e-07
6.63407e-08
1.05863e-08
1.65237e-09
2.60967e-10
5.08245e-11
2.04366e-11
1.66557e-11
1.66353e-11
1.7351e-11
1.85415e-11
1.98979e-11
2.13345e-11
2.28966e-11
2.46284e-11
2.65353e-11
2.8604e-11
3.08215e-11
3.31789e-11
3.56699e-11
3.82901e-11
4.10355e-11
4.39022e-11
4.6886e-11
4.99814e-11
5.31823e-11
5.64841e-11
5.98838e-11
6.33784e-11
6.69638e-11
7.06324e-11
7.43734e-11
7.81746e-11
8.20248e-11
8.5915e-11
8.98365e-11
9.37819e-11
9.77441e-11
1.01718e-10
1.05697e-10
1.09675e-10
1.13641e-10
1.1759e-10
1.21513e-10
1.25406e-10
1.2926e-10
1.33072e-10
1.36836e-10
1.40548e-10
1.44202e-10
1.47796e-10
1.51325e-10
1.54787e-10
1.58181e-10
1.61498e-10
1.64737e-10
1.67872e-10
1.7101e-10
1.73643e-10
1.77337e-10
0.357272
0.347215
0.263901
0.207011
0.188248
0.217643
0.270995
0.154768
0.061927
0.0363137
0.0486618
0.0940851
0.18058
0.285596
0.33953
0.337098
0.291548
0.19705
0.113724
0.0928594
0.107341
0.123075
0.111128
0.0772164
0.0470091
0.0485368
0.0621072
0.0859463
0.0890187
0.0778581
0.0526444
0.0251531
0.0173609
0.0194139
0.020788
0.0161103
0.0177017
0.0210065
0.0219597
0.0211097
0.0187133
0.0138283
0.00908635
0.00749911
0.00749045
0.00694098
0.00525722
0.00593757
0.0125153
0.0368775
0.0666058
0.0851833
0.0963153
0.0959744
0.0783486
0.0307653
0.008474
0.00675547
0.0127632
0.0138982
0.00909427
0.00791687
0.00922924
0.0120183
0.015982
0.021211
0.022482
0.0212467
0.0192861
0.0154069
0.0157843
0.0192506
0.023639
0.0252631
0.0251012
0.0274263
0.0368538
0.0523628
0.0618555
0.0613864
0.0481286
0.0194972
0.00391736
0.00131791
0.00142718
0.00172567
0.000883543
0.000206242
4.2433e-05
8.21785e-06
1.52142e-06
2.70362e-07
4.6249e-08
7.68152e-09
1.30053e-09
2.86879e-10
1.34667e-10
1.15909e-10
1.16554e-10
1.21899e-10
1.30244e-10
1.39644e-10
1.49613e-10
1.60476e-10
1.72518e-10
1.85763e-10
2.00114e-10
2.15481e-10
2.318e-10
2.49024e-10
2.6712e-10
2.8606e-10
3.05811e-10
3.26345e-10
3.47623e-10
3.69599e-10
3.9224e-10
4.15523e-10
4.39427e-10
4.63919e-10
4.8895e-10
5.14441e-10
5.4031e-10
5.66481e-10
5.92891e-10
6.19481e-10
6.46201e-10
6.73003e-10
6.99855e-10
7.26707e-10
7.53525e-10
7.80231e-10
8.06797e-10
8.33155e-10
8.59287e-10
8.85131e-10
9.10674e-10
9.35864e-10
9.60684e-10
9.85096e-10
1.00908e-09
1.03262e-09
1.05569e-09
1.07828e-09
1.10035e-09
1.12188e-09
1.1427e-09
1.16353e-09
1.181e-09
1.20548e-09
0.474074
0.430801
0.340162
0.289789
0.273135
0.301546
0.37055
0.240941
0.0952252
0.0449416
0.0616386
0.125478
0.230528
0.356557
0.420969
0.419949
0.371911
0.265827
0.152454
0.1121
0.125567
0.156457
0.143752
0.0929177
0.0519962
0.049581
0.065924
0.0988696
0.108587
0.0983871
0.0659267
0.031305
0.0199828
0.0226724
0.0248564
0.0213012
0.0227941
0.0285135
0.0354824
0.0346824
0.0284642
0.017745
0.0103946
0.00934697
0.0101681
0.00962331
0.00675489
0.00684671
0.0154996
0.046645
0.0839467
0.1069
0.120596
0.12096
0.101555
0.0478549
0.0162924
0.0105486
0.0125436
0.0134964
0.0108711
0.0106204
0.0125104
0.0161948
0.0217109
0.0294835
0.0328113
0.0317939
0.0288263
0.0233346
0.0230997
0.0272616
0.0322766
0.0343668
0.0345618
0.0377646
0.0496789
0.0690198
0.0807233
0.0801879
0.0645084
0.0296321
0.00707535
0.00183074
0.00148278
0.00233123
0.0013106
0.000318213
6.98145e-05
1.44039e-05
2.82721e-06
5.29981e-07
9.52397e-08
1.6633e-08
3.04146e-09
7.96891e-10
4.51135e-10
4.10992e-10
4.16415e-10
4.36955e-10
4.66679e-10
4.99625e-10
5.34623e-10
5.72856e-10
6.152e-10
6.61658e-10
7.11864e-10
7.65488e-10
8.22293e-10
8.82105e-10
9.44793e-10
1.01023e-09
1.0783e-09
1.14888e-09
1.22183e-09
1.29697e-09
1.37417e-09
1.45335e-09
1.53443e-09
1.61727e-09
1.70172e-09
1.78749e-09
1.8743e-09
1.96189e-09
2.05006e-09
2.1386e-09
2.22736e-09
2.31617e-09
2.40492e-09
2.49347e-09
2.58171e-09
2.66938e-09
2.7564e-09
2.84255e-09
2.92777e-09
3.01189e-09
3.09486e-09
3.17652e-09
3.25683e-09
3.33568e-09
3.41301e-09
3.48876e-09
3.56287e-09
3.63536e-09
3.70603e-09
3.77491e-09
3.84137e-09
3.90782e-09
3.9634e-09
4.04137e-09
0.527243
0.460078
0.364468
0.323354
0.326721
0.349759
0.452198
0.346389
0.155491
0.0515612
0.0631286
0.149057
0.27363
0.422349
0.499261
0.499131
0.446046
0.330131
0.19941
0.139949
0.148695
0.187157
0.177563
0.113458
0.0529369
0.0482058
0.0717558
0.119549
0.137305
0.122348
0.0803886
0.0406295
0.0265178
0.0297662
0.0326653
0.0287528
0.0305073
0.0385569
0.0485297
0.0482066
0.0404792
0.0260086
0.0155782
0.0130635
0.0134612
0.0127647
0.00914063
0.0083686
0.0179857
0.0552464
0.100151
0.126949
0.142112
0.142796
0.12133
0.0627693
0.0286035
0.0204874
0.0191957
0.015167
0.0101599
0.0104734
0.0130503
0.0178737
0.0249831
0.0352924
0.0410578
0.040774
0.0370627
0.0295054
0.0283916
0.0330404
0.0383621
0.0411281
0.0420039
0.0460966
0.0602806
0.0831044
0.0966834
0.0960529
0.0778935
0.0380062
0.0111587
0.00333067
0.00182543
0.00211067
0.00141883
0.000378568
8.5033e-05
1.8368e-05
3.77296e-06
7.39139e-07
1.38759e-07
2.54729e-08
5.10614e-09
1.63393e-09
1.09238e-09
1.03734e-09
1.05764e-09
1.11286e-09
1.18755e-09
1.26902e-09
1.35571e-09
1.45058e-09
1.5554e-09
1.66993e-09
1.79317e-09
1.92429e-09
2.06264e-09
2.20776e-09
2.35926e-09
2.51676e-09
2.67993e-09
2.84841e-09
3.02181e-09
3.19966e-09
3.38161e-09
3.56743e-09
3.75688e-09
3.94966e-09
4.14533e-09
4.34323e-09
4.5427e-09
4.74312e-09
4.94406e-09
5.14499e-09
5.34561e-09
5.54553e-09
5.74461e-09
5.94248e-09
6.13893e-09
6.3334e-09
6.52574e-09
6.71548e-09
6.90255e-09
7.08656e-09
7.26748e-09
7.44498e-09
7.61901e-09
7.78934e-09
7.95592e-09
8.11864e-09
8.2774e-09
8.43227e-09
8.58285e-09
8.72933e-09
8.87013e-09
9.0109e-09
9.12801e-09
9.29263e-09
0.527222
0.452513
0.349507
0.304001
0.310321
0.351409
0.518946
0.446009
0.23076
0.063892
0.0688609
0.168768
0.30879
0.472071
0.556217
0.556367
0.500321
0.381642
0.247812
0.178734
0.173302
0.197315
0.197212
0.135581
0.0570338
0.0506758
0.0869302
0.146258
0.165053
0.142899
0.0928886
0.0501914
0.0342787
0.0374939
0.0409515
0.0371505
0.0393064
0.0481179
0.058833
0.0585651
0.0499856
0.0330756
0.0203324
0.0166242
0.0165338
0.015636
0.0115578
0.0103455
0.0210717
0.0633205
0.114177
0.143943
0.159964
0.158557
0.134983
0.0745443
0.0410491
0.0338579
0.0310882
0.0224245
0.0112694
0.0100007
0.0125941
0.0179155
0.0264343
0.0396281
0.0480993
0.0485618
0.0444501
0.0344967
0.0304985
0.0344256
0.039438
0.042978
0.0458742
0.0516819
0.0676716
0.0928584
0.10708
0.105875
0.0865362
0.0440125
0.0153626
0.00641011
0.00370899
0.002113
0.00114685
0.000359429
8.92727e-05
2.04303e-05
4.39186e-06
8.93594e-07
1.73624e-07
3.3324e-08
7.40442e-09
2.8926e-09
2.1935e-09
2.13885e-09
2.19162e-09
2.31023e-09
2.46174e-09
2.62478e-09
2.79853e-09
2.9887e-09
3.19795e-09
3.42529e-09
3.66856e-09
3.92599e-09
4.19624e-09
4.4782e-09
4.77096e-09
5.07366e-09
5.38549e-09
5.70568e-09
6.03334e-09
6.36747e-09
6.70734e-09
7.05246e-09
7.40232e-09
7.75632e-09
8.11358e-09
8.47288e-09
8.83303e-09
9.19276e-09
9.5514e-09
9.90809e-09
1.02624e-08
1.06137e-08
1.09616e-08
1.13058e-08
1.16457e-08
1.19806e-08
1.23102e-08
1.26338e-08
1.29514e-08
1.32624e-08
1.35669e-08
1.38643e-08
1.41546e-08
1.44376e-08
1.47133e-08
1.49816e-08
1.52423e-08
1.54958e-08
1.57414e-08
1.59796e-08
1.62075e-08
1.64353e-08
1.66233e-08
1.68885e-08
0.537884
0.500144
0.385505
0.307876
0.299271
0.376113
0.598484
0.539576
0.304435
0.0912392
0.0847582
0.18848
0.341722
0.521694
0.61487
0.615825
0.55502
0.429188
0.29304
0.220653
0.188563
0.185599
0.197215
0.156201
0.075415
0.0689256
0.114967
0.176363
0.1892
0.160999
0.104889
0.0600421
0.0422548
0.0441621
0.0482903
0.0450719
0.0470955
0.055646
0.0657048
0.0653305
0.0565943
0.0384603
0.0242113
0.0196779
0.0192704
0.01821
0.0137974
0.0125248
0.0244873
0.0713963
0.12849
0.162073
0.180036
0.176543
0.147184
0.0830402
0.0512053
0.0459734
0.0422176
0.0296524
0.0143408
0.0117021
0.0142873
0.0194261
0.0287247
0.0441165
0.054483
0.0554697
0.0512499
0.0399034
0.0315824
0.0320945
0.0363595
0.0401671
0.0443252
0.0524425
0.0707023
0.0986833
0.114245
0.11284
0.0915497
0.0473158
0.0192371
0.0102428
0.00685001
0.00362145
0.00119059
0.000386652
0.000100228
2.34525e-05
5.12816e-06
1.05831e-06
2.08648e-07
4.12752e-08
1.01311e-08
4.70466e-09
3.89011e-09
3.85332e-09
3.96419e-09
4.18158e-09
4.44659e-09
4.72889e-09
5.02992e-09
5.35872e-09
5.71843e-09
6.1065e-09
6.51896e-09
6.95261e-09
7.4049e-09
7.87367e-09
8.35707e-09
8.85344e-09
9.36123e-09
9.87903e-09
1.04051e-08
1.09378e-08
1.14757e-08
1.20181e-08
1.25641e-08
1.31127e-08
1.36626e-08
1.42115e-08
1.47577e-08
1.52996e-08
1.58363e-08
1.63666e-08
1.68898e-08
1.74051e-08
1.79125e-08
1.8411e-08
1.89006e-08
1.938e-08
1.98491e-08
2.03071e-08
2.07541e-08
2.11894e-08
2.16132e-08
2.20249e-08
2.24248e-08
2.28126e-08
2.31884e-08
2.35524e-08
2.39045e-08
2.42453e-08
2.45737e-08
2.48915e-08
2.51932e-08
2.54954e-08
2.57419e-08
2.60913e-08
0.603546
0.60411
0.477894
0.369884
0.342637
0.44019
0.656354
0.608306
0.366655
0.120996
0.103147
0.205515
0.368441
0.559964
0.659047
0.661078
0.597854
0.468294
0.33073
0.250624
0.181547
0.160548
0.173927
0.162417
0.0987943
0.0966008
0.144647
0.19686
0.201224
0.168145
0.111223
0.0682719
0.0484529
0.0474182
0.0520259
0.0504194
0.0522546
0.0597332
0.0686701
0.0681977
0.0592024
0.041478
0.0272558
0.0223165
0.0216909
0.0205202
0.0158447
0.0147043
0.0277316
0.0787618
0.14077
0.177303
0.196857
0.19335
0.158228
0.0871741
0.0566827
0.0541303
0.0493918
0.0337738
0.0161496
0.0138762
0.0173031
0.0228103
0.0324888
0.0487933
0.0600756
0.0613975
0.0571938
0.045703
0.0357641
0.0333219
0.0359934
0.0375896
0.0395265
0.0486646
0.0692212
0.101507
0.120564
0.118954
0.0949706
0.047929
0.0218661
0.0141832
0.010365
0.00588466
0.00171832
0.000478592
0.000120384
2.78154e-05
6.04008e-06
1.24114e-06
2.44715e-07
4.94645e-08
1.33896e-08
7.182e-09
6.29868e-09
6.29676e-09
6.49873e-09
6.85168e-09
7.26667e-09
7.70528e-09
8.17253e-09
8.68078e-09
9.23277e-09
9.8235e-09
1.04465e-08
1.10965e-08
1.17692e-08
1.24609e-08
1.31682e-08
1.38886e-08
1.46195e-08
1.53587e-08
1.61035e-08
1.6851e-08
1.75995e-08
1.8348e-08
1.90952e-08
1.98395e-08
2.05794e-08
2.13121e-08
2.20354e-08
2.27474e-08
2.34469e-08
2.41323e-08
2.48032e-08
2.54587e-08
2.6099e-08
2.67235e-08
2.73322e-08
2.79241e-08
2.84994e-08
2.90575e-08
2.9599e-08
3.01234e-08
3.06314e-08
3.11227e-08
3.15967e-08
3.20535e-08
3.24933e-08
3.29167e-08
3.33236e-08
3.37155e-08
3.40907e-08
3.44526e-08
3.47929e-08
3.51346e-08
3.54091e-08
3.58003e-08
0.729795
0.693557
0.557035
0.454258
0.42201
0.509056
0.672576
0.629351
0.408791
0.147435
0.120093
0.22278
0.39608
0.600246
0.705586
0.708147
0.641443
0.505939
0.363901
0.269625
0.190759
0.155054
0.146235
0.159778
0.124206
0.125531
0.170549
0.20728
0.203457
0.164014
0.102634
0.0665348
0.0512733
0.0494043
0.0532136
0.0516267
0.053065
0.060299
0.0709157
0.0706622
0.0601847
0.0416398
0.0288661
0.0246339
0.0238625
0.0226193
0.0177116
0.0167129
0.0308543
0.086045
0.153453
0.192979
0.214046
0.21099
0.172296
0.0890951
0.0534575
0.0525103
0.0476212
0.0318889
0.0161812
0.0162233
0.020718
0.0267901
0.0366041
0.0529858
0.0647064
0.0664499
0.0624163
0.0511985
0.0421059
0.0399724
0.0417497
0.0411386
0.0389753
0.0456327
0.0677221
0.104926
0.129505
0.129476
0.101765
0.047892
0.0227953
0.0174639
0.0136259
0.00808095
0.00234117
0.000593338
0.000142844
3.23871e-05
6.93828e-06
1.40928e-06
2.76288e-07
5.7119e-08
1.71426e-08
1.03928e-08
9.4984e-09
9.55005e-09
9.87776e-09
1.03986e-08
1.0994e-08
1.16188e-08
1.22825e-08
1.30002e-08
1.37731e-08
1.45928e-08
1.54497e-08
1.6336e-08
1.7245e-08
1.81707e-08
1.91083e-08
2.00542e-08
2.10051e-08
2.19581e-08
2.29081e-08
2.38519e-08
2.47882e-08
2.57157e-08
2.66324e-08
2.75366e-08
2.84267e-08
2.92999e-08
3.01545e-08
3.0989e-08
3.18031e-08
3.25955e-08
3.33632e-08
3.41056e-08
3.48232e-08
3.5516e-08
3.61843e-08
3.68275e-08
3.74462e-08
3.80402e-08
3.86104e-08
3.91567e-08
3.96802e-08
4.01809e-08
4.0661e-08
4.1121e-08
4.15616e-08
4.19836e-08
4.23872e-08
4.27744e-08
4.31428e-08
4.34979e-08
4.38285e-08
4.41629e-08
4.44263e-08
4.48069e-08
0.836175
0.720499
0.582518
0.513645
0.489519
0.54302
0.648987
0.608269
0.416011
0.16792
0.134943
0.239275
0.421258
0.634704
0.744714
0.746994
0.677408
0.53789
0.389939
0.287719
0.228712
0.180015
0.126199
0.152818
0.14404
0.148988
0.190767
0.214781
0.203593
0.15594
0.0865337
0.0532293
0.045048
0.0508387
0.0545142
0.0507117
0.05214
0.0620563
0.0764969
0.07652
0.0639554
0.0417804
0.0291118
0.0263662
0.0258314
0.0245499
0.0194272
0.0184967
0.0336329
0.0927722
0.16475
0.206657
0.228755
0.22603
0.186142
0.0946502
0.0425952
0.0411908
0.0363056
0.0232841
0.014579
0.0183325
0.0239741
0.0306517
0.0406611
0.0565403
0.0680251
0.0700663
0.0664749
0.0559572
0.0480666
0.0467837
0.0489666
0.0485166
0.0439683
0.0475111
0.071146
0.112147
0.14094
0.14242
0.111266
0.0488458
0.0226951
0.0195913
0.0163873
0.00992971
0.00287281
0.000688324
0.000160707
3.58287e-05
7.57141e-06
1.51983e-06
2.96646e-07
6.3262e-08
2.12961e-08
1.43592e-08
1.35188e-08
1.36461e-08
1.41274e-08
1.48391e-08
1.56328e-08
1.646e-08
1.73348e-08
1.82736e-08
1.9275e-08
2.03268e-08
2.14155e-08
2.25306e-08
2.36622e-08
2.48023e-08
2.59446e-08
2.70844e-08
2.82174e-08
2.934e-08
3.04468e-08
3.15353e-08
3.26056e-08
3.36579e-08
3.46864e-08
3.5687e-08
3.66578e-08
3.75958e-08
3.84991e-08
3.9366e-08
4.0196e-08
4.09891e-08
4.17492e-08
4.2477e-08
4.31741e-08
4.38413e-08
4.44797e-08
4.50894e-08
4.56718e-08
4.62273e-08
4.67576e-08
4.72629e-08
4.77451e-08
4.82047e-08
4.86429e-08
4.90605e-08
4.94585e-08
4.98379e-08
5.01989e-08
5.0544e-08
5.08703e-08
5.1185e-08
5.14746e-08
5.17702e-08
5.19972e-08
5.2333e-08
0.928926
0.710509
0.564732
0.525753
0.535197
0.536185
0.622247
0.598589
0.401396
0.179217
0.149094
0.25715
0.446552
0.669248
0.783753
0.785718
0.712777
0.568053
0.413876
0.312883
0.263413
0.214672
0.123864
0.149113
0.160548
0.172622
0.209298
0.23029
0.214211
0.15998
0.0820687
0.0431838
0.0386903
0.0547
0.0596849
0.0529364
0.0545288
0.0676851
0.0843063
0.0843797
0.0703006
0.0438291
0.0290152
0.0273099
0.0275578
0.0262924
0.0209842
0.0201061
0.0362339
0.0994046
0.176317
0.220474
0.243325
0.240759
0.199453
0.105097
0.0351856
0.0279694
0.0232696
0.0148182
0.013229
0.0200673
0.0268376
0.0342143
0.0447218
0.0603483
0.0707421
0.0723062
0.0688865
0.0593545
0.0530227
0.0527286
0.0553636
0.0553588
0.050417
0.0536902
0.0796294
0.124006
0.154652
0.156082
0.121908
0.0514816
0.0213598
0.0201644
0.0184806
0.0115461
0.00334363
0.000753515
0.000171449
3.76121e-05
7.82802e-06
1.55094e-06
3.02336e-07
6.74722e-08
2.57934e-08
1.906e-08
1.83342e-08
1.85572e-08
1.92103e-08
2.01199e-08
2.11128e-08
2.21398e-08
2.32198e-08
2.43686e-08
2.55813e-08
2.68412e-08
2.81315e-08
2.94387e-08
3.07491e-08
3.205e-08
3.33392e-08
3.46152e-08
3.58709e-08
3.70953e-08
3.82808e-08
3.94236e-08
4.05219e-08
4.15741e-08
4.25827e-08
4.35505e-08
4.44773e-08
4.53621e-08
4.62051e-08
4.70064e-08
4.7768e-08
4.84909e-08
4.91776e-08
4.98292e-08
5.0448e-08
5.10353e-08
5.1593e-08
5.21216e-08
5.26231e-08
5.30981e-08
5.35486e-08
5.39753e-08
5.43801e-08
5.47635e-08
5.51271e-08
5.54716e-08
5.57982e-08
5.61081e-08
5.64014e-08
5.6681e-08
5.69433e-08
5.71969e-08
5.74271e-08
5.76652e-08
5.78414e-08
5.81124e-08
0.995243
0.728497
0.531871
0.497563
0.52183
0.503674
0.62705
0.637206
0.399673
0.183543
0.162027
0.273422
0.467072
0.696688
0.815367
0.817483
0.74154
0.591839
0.434177
0.33276
0.285071
0.23656
0.13434
0.139239
0.171176
0.192045
0.226285
0.252078
0.23511
0.175925
0.08948
0.044434
0.041023
0.0603405
0.0666272
0.058257
0.0599665
0.0743017
0.091481
0.0914692
0.0765587
0.0469183
0.0289536
0.0277784
0.0290321
0.0278104
0.0223407
0.0215572
0.0385889
0.105257
0.185267
0.228359
0.251926
0.251516
0.21099
0.115831
0.0363663
0.0196009
0.0153205
0.0123483
0.0137326
0.0213552
0.0292549
0.0373896
0.0485083
0.0645782
0.0743637
0.0746356
0.0702802
0.0611145
0.056288
0.0573741
0.0608239
0.0613701
0.056738
0.0607133
0.0890217
0.136391
0.167841
0.168616
0.132208
0.0553297
0.0189851
0.0183142
0.0186674
0.0127113
0.00378395
0.000784984
0.000173688
3.74669e-05
7.6996e-06
1.51143e-06
2.95387e-07
6.99552e-08
3.06008e-08
2.44249e-08
2.38604e-08
2.41946e-08
2.50233e-08
2.6119e-08
2.72918e-08
2.84962e-08
2.97536e-08
3.1078e-08
3.24598e-08
3.38782e-08
3.53148e-08
3.67566e-08
3.81748e-08
3.95561e-08
4.0894e-08
4.21813e-08
4.34121e-08
4.45904e-08
4.57126e-08
4.67789e-08
4.77911e-08
4.87522e-08
4.96634e-08
5.05272e-08
5.13445e-08
5.2116e-08
5.2843e-08
5.35269e-08
5.41704e-08
5.47749e-08
5.53435e-08
5.58778e-08
5.63806e-08
5.68536e-08
5.72989e-08
5.77174e-08
5.81115e-08
5.84819e-08
5.88307e-08
5.91587e-08
5.94679e-08
5.97588e-08
6.00332e-08
6.02916e-08
6.05353e-08
6.07655e-08
6.0982e-08
6.1188e-08
6.13793e-08
6.15655e-08
6.17315e-08
6.1907e-08
6.20292e-08
6.22307e-08
1.04743
0.805331
0.510317
0.460815
0.48466
0.46754
0.675817
0.702148
0.423397
0.188269
0.174109
0.289353
0.484914
0.721003
0.84429
0.846351
0.767911
0.612283
0.449818
0.342153
0.295647
0.255754
0.152627
0.12333
0.16309
0.190283
0.240338
0.280001
0.26286
0.19803
0.101893
0.052409
0.0481929
0.0671551
0.0737303
0.0645196
0.0660761
0.0806745
0.0980051
0.0979096
0.0823286
0.0506785
0.029283
0.0280913
0.0302377
0.0292087
0.0234942
0.022722
0.0406952
0.110392
0.190592
0.226113
0.250406
0.257261
0.221024
0.125908
0.041473
0.0191766
0.0145631
0.0133829
0.0150908
0.0222084
0.0311384
0.04026
0.0519686
0.0684822
0.078667
0.0782537
0.0722994
0.0620633
0.057881
0.060175
0.0646565
0.0660874
0.0623828
0.0673567
0.098158
0.148559
0.180661
0.180829
0.142242
0.0604399
0.0170061
0.0146508
0.0157316
0.011957
0.00388011
0.000766042
0.000166136
3.53307e-05
7.16475e-06
1.3924e-06
2.74735e-07
7.05982e-08
3.56364e-08
3.03367e-08
2.99628e-08
3.04165e-08
3.14061e-08
3.26547e-08
3.39689e-08
3.5309e-08
3.66982e-08
3.81503e-08
3.96483e-08
4.11509e-08
4.26219e-08
4.40465e-08
4.54122e-08
4.67192e-08
4.7964e-08
4.91462e-08
5.02632e-08
5.13174e-08
5.23065e-08
5.32341e-08
5.41023e-08
5.49159e-08
5.56762e-08
5.63879e-08
5.70522e-08
5.76714e-08
5.82475e-08
5.87824e-08
5.92798e-08
5.97412e-08
6.01703e-08
6.05689e-08
6.094e-08
6.12854e-08
6.16075e-08
6.19072e-08
6.21869e-08
6.24474e-08
6.26909e-08
6.29179e-08
6.31305e-08
6.3329e-08
6.35151e-08
6.36893e-08
6.38528e-08
6.40064e-08
6.41499e-08
6.42865e-08
6.44117e-08
6.45353e-08
6.46424e-08
6.47606e-08
6.48339e-08
6.49726e-08
1.09075
0.88618
0.52827
0.422159
0.443247
0.447097
0.735154
0.760841
0.457359
0.191017
0.184404
0.302544
0.496797
0.739368
0.867862
0.866219
0.78585
0.627353
0.457606
0.345134
0.308705
0.278622
0.173858
0.109333
0.142918
0.176667
0.25423
0.304926
0.287165
0.217443
0.113308
0.0608498
0.0556741
0.0736445
0.0800424
0.0703084
0.0716461
0.086471
0.103985
0.103813
0.0876171
0.0546363
0.0298756
0.0279244
0.0307516
0.0304544
0.0243749
0.0233736
0.0422627
0.113665
0.188513
0.213514
0.238291
0.255575
0.228042
0.135073
0.0469285
0.0216814
0.0165094
0.0153988
0.0165134
0.0229254
0.0325172
0.042737
0.0549248
0.0713816
0.082066
0.0823868
0.0756527
0.0637737
0.0581524
0.060807
0.0655534
0.0678811
0.06615
0.0730198
0.106463
0.159793
0.192492
0.192074
0.151491
0.0660846
0.0171915
0.0109782
0.0113849
0.00902374
0.00317061
0.000677785
0.000147609
3.11032e-05
6.23127e-06
1.2017e-06
2.42445e-07
6.99167e-08
4.08984e-08
3.66714e-08
3.64876e-08
3.7056e-08
3.81676e-08
3.9513e-08
4.09056e-08
4.23106e-08
4.37449e-08
4.52013e-08
4.665e-08
4.80655e-08
4.94331e-08
5.07443e-08
5.1984e-08
5.31527e-08
5.42471e-08
5.52715e-08
5.62225e-08
5.7106e-08
5.79188e-08
5.86677e-08
5.93552e-08
5.99895e-08
6.0571e-08
6.11055e-08
6.15942e-08
6.20414e-08
6.24502e-08
6.28229e-08
6.31641e-08
6.34754e-08
6.37606e-08
6.40216e-08
6.42608e-08
6.44803e-08
6.46824e-08
6.48681e-08
6.50396e-08
6.51979e-08
6.53449e-08
6.54805e-08
6.56072e-08
6.57244e-08
6.5834e-08
6.59355e-08
6.60306e-08
6.61193e-08
6.62018e-08
6.62806e-08
6.6351e-08
6.6423e-08
6.6483e-08
6.65555e-08
6.65892e-08
6.6678e-08
1.16193
0.998948
0.61698
0.384564
0.386385
0.44978
0.828053
0.840686
0.510606
0.192205
0.196127
0.316935
0.512447
0.765405
0.900132
0.881016
0.796683
0.643264
0.465223
0.35456
0.338995
0.310993
0.206187
0.106375
0.121304
0.172231
0.281674
0.335163
0.316395
0.242599
0.12881
0.0724819
0.0658539
0.0832085
0.0890665
0.0782098
0.0791809
0.0944904
0.112332
0.112052
0.0949531
0.0603268
0.0305177
0.0261894
0.0295098
0.0310334
0.0252033
0.0236771
0.0438725
0.115225
0.176012
0.191242
0.216784
0.245837
0.233802
0.147183
0.0540825
0.0251416
0.0190498
0.0178853
0.0184735
0.0239992
0.0341515
0.045546
0.0579381
0.0737794
0.0851831
0.0876384
0.0813069
0.0680836
0.0583903
0.0597711
0.06423
0.0672729
0.0682447
0.0789737
0.117366
0.175354
0.209053
0.208005
0.164426
0.0738727
0.0199717
0.00765302
0.00658367
0.00483232
0.00175698
0.000471856
0.000106793
2.22692e-05
4.38882e-06
8.47416e-07
1.85833e-07
6.89417e-08
4.95091e-08
4.68939e-08
4.69413e-08
4.76506e-08
4.88371e-08
5.01964e-08
5.15444e-08
5.28589e-08
5.416e-08
5.54334e-08
5.66547e-08
5.78106e-08
5.88915e-08
5.98927e-08
6.08058e-08
6.16355e-08
6.2383e-08
6.30533e-08
6.36482e-08
6.41755e-08
6.46421e-08
6.5056e-08
6.5421e-08
6.57412e-08
6.60234e-08
6.62725e-08
6.64936e-08
6.66884e-08
6.6859e-08
6.70077e-08
6.71371e-08
6.72502e-08
6.73487e-08
6.74361e-08
6.75121e-08
6.758e-08
6.76409e-08
6.76971e-08
6.77471e-08
6.77914e-08
6.7829e-08
6.7859e-08
6.78878e-08
6.79105e-08
6.79331e-08
6.79518e-08
6.79711e-08
6.79872e-08
6.80031e-08
6.80192e-08
6.80312e-08
6.80453e-08
6.80491e-08
6.80691e-08
6.8064e-08
6.81043e-08
1.27178
1.11813
0.744449
0.427029
0.37001
0.509441
0.918831
0.911817
0.569775
0.204029
0.201155
0.324087
0.536533
0.801525
0.923644
0.864062
0.774581
0.634317
0.476764
0.373411
0.362536
0.339667
0.23231
0.139959
0.136828
0.204714
0.29579
0.347522
0.343752
0.270738
0.143304
0.0843297
0.0769154
0.0941023
0.099366
0.0870523
0.0875919
0.103825
0.122165
0.121752
0.103497
0.0668473
0.0327846
0.0225026
0.0246186
0.0275333
0.0249381
0.0245114
0.0456871
0.102432
0.143512
0.159851
0.187645
0.220098
0.229689
0.157603
0.0612045
0.0275914
0.0204113
0.0195715
0.0208475
0.0260537
0.0348031
0.045715
0.0581816
0.0743312
0.0868716
0.0918384
0.0877939
0.0749701
0.0631317
0.0610251
0.0645011
0.0669702
0.0660306
0.0785311
0.123643
0.188905
0.224689
0.223489
0.177546
0.0816077
0.0237073
0.00801779
0.00471764
0.00281297
0.000988303
0.000277351
6.38291e-05
1.33815e-05
2.67375e-06
5.45167e-07
1.44447e-07
7.27165e-08
6.08559e-08
5.93014e-08
5.94025e-08
6.00046e-08
6.09592e-08
6.20169e-08
6.29838e-08
6.3876e-08
6.4711e-08
6.54875e-08
6.62036e-08
6.68563e-08
6.74404e-08
6.79513e-08
6.83874e-08
6.8755e-08
6.90603e-08
6.93098e-08
6.95111e-08
6.9672e-08
6.97957e-08
6.98849e-08
6.99455e-08
6.9985e-08
7.00042e-08
7.00016e-08
6.99764e-08
6.99322e-08
6.98776e-08
6.98179e-08
6.97551e-08
6.96904e-08
6.9625e-08
6.95597e-08
6.9493e-08
6.94255e-08
6.93587e-08
6.92908e-08
6.92214e-08
6.91557e-08
6.90969e-08
6.90455e-08
6.90033e-08
6.89664e-08
6.89343e-08
6.89036e-08
6.88762e-08
6.88508e-08
6.88276e-08
6.88059e-08
6.87828e-08
6.87808e-08
6.87789e-08
6.87771e-08
6.87458e-08
6.87547e-08
1.38408
1.22149
0.858914
0.542964
0.455986
0.617701
0.962284
0.902282
0.6037
0.227378
0.203271
0.336962
0.570957
0.84559
0.940788
0.866533
0.755182
0.610211
0.467946
0.365973
0.348395
0.336667
0.239024
0.168398
0.1749
0.223392
0.274826
0.344967
0.377254
0.296829
0.152067
0.0932564
0.087397
0.105066
0.109161
0.0947972
0.094899
0.112252
0.131062
0.130517
0.111154
0.0725655
0.0368262
0.0222315
0.0204935
0.0224196
0.0232842
0.0261753
0.0480728
0.0857477
0.115112
0.130337
0.160921
0.192352
0.218265
0.162635
0.0669568
0.0293585
0.0215595
0.0211621
0.0234119
0.0289388
0.0358045
0.0449026
0.0579997
0.0762389
0.0897156
0.0949481
0.092982
0.0817052
0.0707484
0.0682706
0.0712033
0.0731497
0.0686464
0.0732848
0.120044
0.193481
0.232537
0.233327
0.187504
0.0877524
0.0265005
0.009012
0.00423431
0.00199082
0.000662591
0.000176056
4.05609e-05
8.69348e-06
1.80671e-06
4.02187e-07
1.29565e-07
7.91261e-08
7.04268e-08
6.91995e-08
6.92256e-08
6.9585e-08
7.01934e-08
7.08398e-08
7.13699e-08
7.18432e-08
7.22704e-08
7.26411e-08
7.29419e-08
7.31623e-08
7.33041e-08
7.33771e-08
7.33936e-08
7.33638e-08
7.32843e-08
7.31662e-08
7.30175e-08
7.2843e-08
7.26496e-08
7.2444e-08
7.22273e-08
7.19948e-08
7.17494e-08
7.15198e-08
7.13144e-08
7.11289e-08
7.09551e-08
7.07892e-08
7.06321e-08
7.04839e-08
7.03435e-08
7.02106e-08
7.00874e-08
6.99748e-08
6.98717e-08
6.97817e-08
6.97062e-08
6.96424e-08
6.95864e-08
6.95329e-08
6.94764e-08
6.94126e-08
6.93499e-08
6.9292e-08
6.92392e-08
6.91908e-08
6.91449e-08
6.91027e-08
6.90627e-08
6.90215e-08
6.89603e-08
6.89294e-08
6.88868e-08
6.88924e-08
1.47754
1.29704
0.935491
0.649085
0.564055
0.713789
0.934585
0.836012
0.589279
0.251135
0.207359
0.356593
0.600714
0.881357
0.967208
0.906206
0.769744
0.583783
0.436461
0.335776
0.315469
0.305027
0.239209
0.154119
0.174617
0.196709
0.228019
0.346428
0.408386
0.312307
0.150096
0.0965535
0.0967296
0.114982
0.117937
0.101464
0.101179
0.119801
0.139014
0.138354
0.117947
0.0774943
0.0406526
0.0249957
0.0198225
0.0188896
0.0209473
0.0273621
0.044962
0.0759731
0.106602
0.116297
0.13271
0.162771
0.197704
0.161459
0.0718192
0.0314109
0.0234748
0.023506
0.0263597
0.0318386
0.0380131
0.0459866
0.0599062
0.0807236
0.0951677
0.0979976
0.0961026
0.0867459
0.0785705
0.0771837
0.0805335
0.0829142
0.0771035
0.0718965
0.110045
0.18479
0.226994
0.232625
0.192397
0.0927575
0.0282431
0.00961562
0.00391578
0.00153657
0.00047963
0.000125047
2.93968e-05
6.52164e-06
1.42079e-06
3.43505e-07
1.26747e-07
8.51702e-08
7.76107e-08
7.64092e-08
7.63328e-08
7.64454e-08
7.66623e-08
7.68451e-08
7.69507e-08
7.69931e-08
7.69864e-08
7.69093e-08
7.67538e-08
7.65461e-08
7.6309e-08
7.60452e-08
7.57498e-08
7.54259e-08
7.5086e-08
7.47414e-08
7.43988e-08
7.40636e-08
7.37344e-08
7.34156e-08
7.31166e-08
7.28516e-08
7.2621e-08
7.24042e-08
7.2178e-08
7.19328e-08
7.169e-08
7.14632e-08
7.12515e-08
7.10532e-08
7.08676e-08
7.0695e-08
7.05355e-08
7.03882e-08
7.0252e-08
7.01256e-08
7.00061e-08
6.98915e-08
6.97793e-08
6.96683e-08
6.95643e-08
6.94796e-08
6.9409e-08
6.93445e-08
6.92863e-08
6.92345e-08
6.91874e-08
6.91468e-08
6.91069e-08
6.9068e-08
6.90295e-08
6.90172e-08
6.89834e-08
6.89907e-08
1.55037
1.34814
0.975916
0.722031
0.649502
0.769321
0.876294
0.756617
0.517017
0.264354
0.217931
0.381785
0.627088
0.91408
1.0091
0.961385
0.823558
0.585331
0.407404
0.306772
0.284763
0.290143
0.255165
0.132284
0.13922
0.148965
0.186108
0.354125
0.412479
0.303926
0.136198
0.0996855
0.106355
0.124797
0.126122
0.107019
0.106368
0.126637
0.146193
0.145345
0.123909
0.0816591
0.0438018
0.027956
0.0224791
0.0193633
0.0197067
0.0281187
0.0401111
0.0753923
0.116868
0.124566
0.105787
0.13209
0.168948
0.152788
0.0751445
0.0336324
0.0258771
0.0261678
0.0293293
0.0345433
0.0403386
0.0487018
0.0638457
0.0867816
0.102437
0.102723
0.0970449
0.0883683
0.0835186
0.0844068