/*--------------------------------*- C++ -*----------------------------------*\
| =========                 |                                                 |
| \\      /  F ield         | OpenFOAM: The Open Source CFD Toolbox           |
|  \\    /   O peration     | Version:  v1912                                 |
|   \\  /    A nd           | Website:  www.openfoam.com                      |
|    \\/     M anipulation  |                                                 |
\*---------------------------------------------------------------------------*/
FoamFile
{
    version     2.0;
    format      ascii;
    class       volScalarField;
    location    "90";
    object      p;
}
// * * * * * * * * * * * * * * * * * * * * * * * * * * * * * * * * * * * * * //

dimensions      [1 -1 -2 0 0 0 0];


internalField   nonuniform List<scalar> 
14268
(
126070
126108
126192
126326
126508
126742
127027
127358
127720
128015
128544
129092
129655
130215
130757
131269
131742
132172
132563
132929
133290
133647
134000
134360
134740
135158
135628
136161
136762
137425
138131
138867
139642
140459
141315
142207
143132
144088
145074
146090
147137
148216
149325
150461
151619
152794
153976
155157
156326
157472
158585
159656
160676
161638
162534
163356
164096
164755
165335
165811
166161
166386
166484
166456
166303
166029
165640
165145
164551
163868
163104
162266
161358
160385
159348
158250
157096
155892
154648
153369
152052
150698
149311
147889
146427
144874
143101
141639
140221
138837
137473
136120
134769
133414
132049
130670
129276
127866
126443
125009
123569
122129
120695
119274
117873
116497
115153
113844
112574
111346
110162
109024
107933
106891
105903
104972
104103
103303
102577
101929
101361
100874
100467
100136
99875
99673.3
99528.7
99453.1
99443.8
99500.1
99629.9
99844
100155
100578
101124
101802
102617
103567
104648
105850
107165
108580
110087
111674
113331
115047
116815
118620
120452
122293
124129
125941
127714
129435
131092
132678
134191
135637
136859
138157
139384
140555
141672
142740
119766
119877
120016
120190
120399
120648
120939
121269
121618
121853
122318
122846
123359
123855
124329
124774
125190
125579
125947
126303
126658
127021
127405
127820
128275
128776
129326
129927
130579
131279
132020
132796
133601
134433
135293
136180
137096
138042
139019
140027
141065
142131
143220
144326
145441
146559
147670
148768
149842
150886
151891
152850
153757
154604
155385
156091
156716
157258
157722
158081
158317
158433
158431
158313
158081
157742
157301
156764
156140
155433
154652
153800
152881
151898
150854
149752
148595
147390
146145
144869
143565
142233
140875
139488
138066
136556
134841
133415
132029
130673
129332
127997
126662
125320
123966
122599
121216
119819
118410
116993
115571
114151
112739
111342
109966
108617
107299
106016
104772
103569
102409
101294
100225
99205.9
98238.9
97329.2
96482.3
95703.8
94998.7
94371
93823.1
93355.5
92966.3
92651.2
92404.1
92215.1
92079
92011.9
92010.7
92074.7
92212.2
92434.3
92754.4
93186.1
93741.8
94430.2
95255.3
96215
97303.5
98512.4
99831.6
101250
102759
104346
106002
107718
109483
111287
113115
114953
116784
118592
120360
122074
123725
125303
126811
128269
129447
130757
131980
133146
134259
135324
112840
112982
113142
113326
113540
113790
114081
114412
114762
114986
115427
115941
116448
116935
117396
117830
118235
118616
118978
119328
119677
120039
120425
120846
121312
121830
122401
123025
123700
124420
125179
125970
126787
127628
128493
129381
130296
131239
132212
133216
134249
135307
136386
137478
138575
139669
140751
141814
142849
143849
144808
145719
146576
147373
148102
148757
149331
149824
150237
150543
150728
150796
150747
150586
150315
149942
149472
148911
148267
147545
146750
145888
144961
143972
142923
141817
140658
139452
138205
136927
135624
134296
132945
131569
130161
128668
126989
125580
124210
122867
121539
120215
118889
117556
116210
114849
113473
112084
110682
109272
107859
106448
105045
103659
102294
100956
99650.1
98379.6
97147.4
95956.4
94808.4
93704.7
92647.1
91637.9
90680.8
89780.6
88943
88173.6
87477.7
86859.2
86320.6
85862.4
85482.6
85176.6
84938.1
84754.9
84624.1
84560.7
84562
84627.4
84765.2
84987.1
85306.8
85738.8
86295.6
86986.4
87815
88778.9
89871.4
91084
92406.5
93827.9
95338.2
96927.2
98584.1
100300
102067
103871
105701
107541
109374
111183
112952
114667
116318
117895
119401
120854
122038
123342
124561
125724
126835
127897
105714
105873
106043
106229
106440
106686
106977
107313
107671
107906
108348
108861
109367
109853
110313
110744
111147
111525
111882
112227
112571
112930
113315
113738
114210
114736
115318
115956
116644
117377
118148
118950
119777
120627
121497
122389
123306
124249
125223
126226
127258
128314
129388
130473
131560
132639
133704
134745
135755
136727
137655
138533
139355
140114
140806
141423
141959
142414
142789
143054
143198
143224
143135
142935
142629
142223
141722
141136
140468
139727
138916
138040
137101
136101
135044
133930
132765
131554
130302
129020
127711
126379
125026
123653
122253
120771
119128
117733
116376
115046
113728
112415
111098
109772
108432
107078
105708
104324
102928
101524
100117
98713.3
97319.2
95941.5
94586.5
93259.8
91965.7
90707.4
89487.9
88309.6
87174.4
86083.3
85037.7
84040.1
83093.9
82204.1
81376.8
80617.8
79932.5
79324.9
78797.8
78351.6
77984.1
77690.6
77464.2
77287.9
77164.3
77106.7
77111.6
77178.7
77316.6
77537.7
77856.7
78288.9
78847.6
79542.3
80376.8
81347.5
82446.8
83665.7
84994
86420.1
87934
89525.6
91184.3
92902.2
94670.1
96476.5
98308.9
100152
101988
103799
105570
107286
108936
110511
112012
113453
114657
115947
117159
118317
119423
120482
98490.1
98659.9
98832.8
99014.9
99216.2
99455
99745.6
100087
100458
100717
101170
101688
102198
102686
103147
103578
103980
104355
104708
105048
105387
105740
106121
106543
107016
107545
108133
108777
109474
110216
110995
111805
112640
113495
114370
115265
116185
117130
118104
119108
120140
121195
122268
123350
124431
125503
126558
127586
128581
129536
130443
131299
132097
132832
133497
134087
134595
135023
135373
135609
135723
135718
135597
135366
135030
134594
134067
133456
132767
132006
131179
130289
129338
128328
127261
126140
124968
123750
122494
121205
119886
118545
117186
115811
114413
112935
111324
109940
108596
107276
105969
104665
103356
102038
100705
99355.9
97990.7
96610.9
95219.2
93819.5
92417.2
91018.3
89629.7
88258.3
86910.7
85592.4
84307.6
83059.4
81850.4
80683.2
79559.1
78478.9
77443.6
76455.4
75517.9
74636.3
73816.8
73065.7
72388.6
71789.7
71272.2
70836.7
70481
70200.4
69982.5
69815.5
69699.3
69646.1
69652.9
69719
69853.6
70070
70384.1
70812.6
71369.7
72065.8
72904.8
73881.4
74986.8
76212
77546.4
78977.6
80495.6
82090.3
83751.3
85471.8
87242.8
89053
90890.1
92738.9
94581.2
96398.5
98174
99893.4
101545
103121
104620
106051
107273
108552
109757
110909
112010
113065
91208.7
91385.4
91556.8
91729.9
91918.3
92147.6
92437.5
92786.5
93171.4
93460.9
93932.9
94458.3
94974
95466.9
95931.1
96363.6
96764.4
97136.3
97484.5
97818.1
98150.3
98496
98870.7
99288
99758.1
100287
100877
101526
102228
102976
103763
104579
105419
106279
107159
108057
108979
109926
110902
111907
112939
113995
115068
116149
117229
118298
119348
120371
121358
122301
123196
124037
124819
125536
126183
126753
127240
127646
127982
128197
128288
128258
128112
127854
127491
127029
126476
125841
125131
124351
123507
122602
121639
120618
119542
118413
117234
116010
114746
113444
112112
110759
109390
108009
106609
105130
103548
102174
100840
99530.8
98233.5
96938.7
95638.6
94327.1
93000.3
91656.2
90294.8
88918.2
87529.2
86132
84732.2
83336.1
81950.9
80583.8
79241.6
77930
76653.3
75414
74214.7
73057.5
71944
70874.2
69848.4
68868.9
67939.1
67064.3
66251.4
65506.9
64836.9
64245.7
63737.3
63312.8
62969.9
62702.9
62494.8
62338.3
62230.6
62182.2
62190.2
62253.8
62382.6
62591.5
62897.7
63319.9
63873.7
64570.6
65414.7
66398.3
67511
68743.7
70085.8
71523.5
73046.6
74645.6
76309.8
78033.8
79809.1
81624.5
83468.4
85325.2
87176
89001.4
90783.8
92508.8
94164.3
95740
97237.5
98660.2
99898
101167
102364
103508
104603
105654
83890.5
84071.2
84237.6
84398
84570.3
84789.1
85078.8
85436.5
85837.2
86161.5
86655.7
87191.6
87715
88214
88682.3
89116.8
89517.1
89885.8
90228.3
90554.3
90877.6
91213.9
91579.7
91989.6
92454.5
92981
93570.7
94221.5
94927.4
95680.7
96472.4
97294.3
98139.8
99004.9
99888.2
100791
101714
102663
103640
104647
105681
106738
107812
108895
109976
111045
112095
113117
114100
115039
115926
116758
117529
118235
118868
119423
119895
120284
120606
120811
120885
120836
120668
120387
119999
119512
118935
118277
117545
116746
115886
114967
113991
112960
111875
110738
109554
108320
107042
105724
104377
103009
101628
100238
98834.2
97351
95795.3
94430.1
93105.9
91806.5
90519.1
89233.8
87942.2
86638
85317
83977.1
82618.7
81244.2
79856.6
78460.3
77061.3
75666.3
74282.8
72917.9
71579.2
70272.9
69003.2
67772.1
66582
65434.7
64331.5
63271.7
62254.9
61283.3
60360
59490.8
58683
57943.5
57278.8
56693.9
56194.1
55780.7
55452.2
55196.6
55001.5
54856.7
54758.3
54714.6
54722.8
54781.5
54901.5
55099.1
55393.6
55806.2
56354
57050.4
57900
58891.1
60011.6
61252.4
62603.4
64048.6
65577.6
67181.6
68849.2
70577.5
72358.3
74180.3
76032.7
77900.2
79762.3
81598.5
83390.7
85123.7
86784.8
88362.8
89859.8
91276.4
92526.1
93785.3
94974.7
96111.4
97199.7
98244.5
76547.4
76729.9
76888.1
77032.7
77186.2
77394.2
77685.1
78052.7
78469.8
78831.4
79350
79898.3
80431.1
80937.8
81411.4
81848.5
82248.5
82613.7
82949.7
83266.6
83579
83903.6
84258
84657.8
85114.9
85636.4
86223.9
86875.1
87583.7
88341.2
89138.1
89965.3
90816.4
91686.9
92574.9
93480.8
94407.2
95357.8
96335.9
97343.2
98378.8
99438.5
100515
101600
102685
103758
104811
105835
106820
107757
108642
109469
110234
110931
111556
112101
112561
112938
113244
113444
113507
113444
113258
112956
112545
112034
111434
110753
110000
109182
108305
107372
106385
105344
104252
103110
101915
100667
99371.9
98036.6
96671.2
95286.3
93891.5
92491.2
91081.2
89590
88058.8
86701.8
85387.2
84097.8
82820.6
81545.1
80262.4
78965.7
77650.3
76314.1
74957.8
73584.5
72197.3
70799.2
69397.5
68000.2
66615.8
65252.2
63916.8
62616
61353.6
60131.3
58950.9
57813.7
56721.4
55671.8
54663.6
53698.7
52780.5
51915.3
51111.2
50374.5
49713.3
49133.3
48641.5
48239.5
47926.6
47683.5
47503.3
47371.9
47284
47245.8
47252.7
47304.1
47411.9
47594.3
47872.9
48272.6
48812
49507
50363.2
51362.9
52491.8
53741.7
55103.3
56557.1
58092.9
59702.9
61374.2
63107.6
64895.1
66724.8
68587.7
70468.5
72344.8
74194.4
75998.8
77742.3
79410.9
80992.5
82490.2
83901.9
85160.7
86411
87592.2
88720.1
89800.6
90839
69187.1
69369.3
69515.9
69642
69774.8
69973.1
70266.8
70645.1
71078.8
71478.4
72022.5
72584.7
73129.2
73645.3
74125.8
74566.2
74965.8
75327.2
75656
75962.4
76261.7
76572.1
76912.4
77299.5
77746.3
78260.4
78844
79494.4
80205
80966.4
81768.2
82601.2
83458.5
84335.5
85229.2
86139.2
87068.1
88020.1
88999
90007.2
91044.3
92106.2
93186.3
94275.7
95364.9
96444.3
97504.3
98534.4
99523.5
100463
101348
102174
102936
103629
104248
104786
105238
105605
105898
106093
106151
106076
105875
105554
105122
104589
103965
103262
102488
101651
100758
99811.7
98813.9
97766.3
96669.1
95517
94307.7
93043
91728.6
90373.2
88987.8
87584.2
86173.6
84761.4
83344.4
81842.4
80334.2
78985
77680.1
76401.1
75134.5
73869.5
72596.2
71307.2
69997.4
68664.2
67308.3
65932.1
64540.5
63139.4
61735.9
60337
58951.6
57588.4
56255
54958.7
53702.9
52489.1
51318.5
50191.8
49111.2
48072.9
47073.9
46116
45202.6
44340.3
43537.5
42800.4
42139.7
41562.9
41078.8
40689.6
40390.5
40164
40001.2
39884.4
39808.4
39776.1
39781.1
39822.6
39914.3
40077
40334.8
40717.4
41245.1
41937.7
42802.9
43812.7
44950.3
46209.9
47584.5
49047.7
50591.3
52208.1
53882.8
55622.2
57417.4
59255.7
61131.1
63028.1
64921.3
66787.3
68606.7
70363.3
72041.6
73628.4
75128
76535.7
77801.2
79042.6
80215.3
81333.5
82405
83436.2
61815.4
61994.7
62126.1
62231.3
62342.3
62532.8
62830.9
63220.9
63670.2
64107.5
64676.9
65254.5
65813.7
66342.2
66831.1
67275.7
67675.1
68031.8
68352.3
68646.9
68931.2
69224.8
69548
69919.5
70353.3
70857.9
71435.8
72084.2
72796.2
73561.5
74368.6
75207.9
76072.9
76958.1
77858.7
78773.4
79705
80658
81637.1
82645.7
83683.9
84748.3
85832.1
86926.7
88022.8
89110.5
90180.1
91219.7
92216.7
93162.1
94050.2
94876.9
95638.2
96329.7
96945.8
97480.3
97926.6
98286.6
98567.2
98755.6
98810.9
98728.7
98515.5
98178.4
97726.3
97170.7
96524
95797.7
95002.3
94147.2
93238.6
92280.5
91275.3
90222.8
89116.3
87950.9
86725.2
85441.6
84106.3
82729
81321.6
79897.6
78469.4
77044.2
75619.4
74104.2
72617.9
71276.5
69981.4
68713.3
67457.9
66204.2
64940.8
63659.8
62354.9
61022.2
59662.3
58283.1
56888.9
55484.9
54078.6
52676.5
51288.4
49924.3
48591.4
47298.8
46049
44843.6
43682.9
42566.6
41498.6
40472.4
39483.5
38532.9
37624.7
36765.8
35962.4
35220.7
34556.4
33981.8
33505.6
33130.9
32846
32639
32496.5
32396.9
32341.4
32310.3
32310.5
32338
32408.9
32546.9
32778.3
33139.9
33653.3
34343.4
35220.4
36240.8
37387.4
38657.3
40048
41521.3
43073.5
44698.5
46375.5
48122
49926
51773.4
53663.1
55579.4
57492.8
59377.9
61215.2
62987.8
64678
66271.6
67774.3
69178.8
70448.9
71680.8
72844.8
73951.9
75013.4
76036.4
54437.1
54610.3
54721.7
54804
54893.2
55079
55383.1
55785.2
56248.9
56721.9
57313.3
57909.6
58488.4
59033.3
59533.1
59982.8
60381.7
60732.9
61043.2
61324.1
61591.4
61865.6
62168.8
62521.5
62939.4
63432.1
64002.5
64647.9
65360.9
66130.2
66943
67789.9
68664.7
69560.3
70469.2
71389.3
72323.5
73277.1
74255.6
75263.7
76302.7
77369.4
78457.4
79558
80662.5
81760.9
82842.9
83895.2
84903.1
85856.7
86750.2
87580.3
88343.4
89035.5
89651.2
90184.2
90627.5
90983.3
91251.4
91433.2
91484.4
91397.9
91175
90823.3
90352.7
89775.5
89105.7
88356.6
87540
86666.9
85744.1
84776.8
83766.2
82704.8
81586.2
80406
79162.8
77859.1
76501.4
75100.3
73669
72222.4
70774.9
69335.6
67902.6
66372.3
64907.1
63573.4
62288.6
61031.9
59788.6
58546.8
57293.9
56020.8
54719.4
53384.4
52021.2
50639.6
49242.1
47834.5
46424
45017.7
43625.1
42258.9
40924.6
39634.9
38390.4
37193.5
36043
34936.9
33882.4
32869.3
31891.3
30948
30045.8
29191
28384.4
27633
26961.5
26388.9
25921.5
25561.2
25293.6
25110
24991
24905.7
24863.8
24845.9
24841.8
24853.7
24899.4
25006.3
25203.8
25539
26031.6
26714.4
27612
28648.5
29802.8
31082.4
32494.6
33977.6
35539.7
37174.4
38851.7
40606.5
42420.3
44276.7
46182.8
48122
50058.8
51966
53824.1
55615.8
57320.7
58922.5
60429.7
61831.5
63103.8
64326.1
65480.8
66575.2
67625.4
68639.1
47056.7
47219
47304.5
47362.7
47431.2
47616.3
47927.5
48342.1
48818.2
49323
49932.6
50553.4
51155.6
51720.9
52235.6
52692.5
53091.3
53436
53734.1
53998.1
54245.5
54497.5
54777.6
55108.2
55507.2
55985.5
56546.6
57187.6
57901.1
58674.8
59494.2
60350.5
61237.9
62146.6
63065.5
63991.6
64928.3
65881.6
66858.5
67865
68904
69972.8
71065.3
72172.8
73287.3
74398.7
75495.9
76564.1
77585.7
78549.8
79450.9
80286.1
81052.9
81747.5
82364.9
82898.4
83341.1
83696.7
83948.5
84127.1
84172.9
84080.4
83849.8
83485.5
82997.7
82399.6
81707.1
80935
80097.5
79207.4
78273
77298.5
76278.4
75205.6
74073.9
72878.4
71617.2
70292.5
68911.2
67484.6
66027.2
64555.8
63086.8
61632.2
60191
58644
57199.4
55873.5
54599.4
53355
52124.3
50895.3
49653.3
48388.1
47088.5
45752
44384.8
43001.3
41599.5
40187.7
38771.5
37359.9
35960.2
34591.2
33253
31965.8
30725.3
29537.6
28397.6
27301.6
26262
25262.6
24297
23360.3
22465.7
21616.4
20802.6
20034
19345.8
18779.5
18323.8
17978.1
17734.9
17578.3
17486.7
17429.5
17394.8
17397.1
17381.5
17368
17380
17449.6
17605.9
17909.8
18382.2
19075.2
19995.7
21034
22194.8
23485.1
24925.6
26416.8
27990.3
29636.8
31310.4
33076
34900.4
36764.8
38689.3
40655.7
42619.4
44551.3
46433.5
48247.9
49970.3
51582
53095.1
54493.9
55767.2
56979.4
58123
59203.4
60241
61244.5
39679.6
39823.4
39875.4
39909.2
39959.5
40148.4
40467.6
40894.8
41381
41911.2
42540.3
43188.2
43816
44405.5
44939.8
45408.3
45808.9
46146.5
46430.9
46675.5
46899
47124.8
47377.9
47682.9
48059.4
48519.7
49068.4
49703.7
50417.7
51196.6
52024.2
52892.9
53796.2
54720.8
55651.3
56583.7
57522.7
58475
59448.7
60452.3
61490.3
62560.9
63658.5
64773.7
65899.9
67026.3
68141.6
69228.8
70267
71243.7
72154
72996.1
73768.1
74466.8
75087.4
75623.5
76067.7
76419
76666.2
76837.9
76878.3
76777.7
76537.2
76161.2
75657.7
75039.8
74324.8
73530.1
72672.5
71767.8
70823.3
69837.6
68805.7
67720.9
66576.3
65365.6
64086.1
62739.8
61333.7
59879.8
58393.7
56895.2
55402
53931
52481.8
50917
49492.9
48174.7
46911.6
45680.6
44463.4
43247.8
42017.3
40759.8
39462.6
38125.2
36752.5
35368.3
33960.3
32544.2
31120.2
29702.9
28292.4
26920.7
25574.6
24290.5
23051.9
21874.9
20745.5
19659.1
18636.4
17652.6
16701.4
15769.2
14882.9
14041.9
13216.2
12423.2
11731.2
11166.1
10715.3
10381.4
10173.1
10053.7
9984.63
9965.58
9952.95
9951.44
9922.9
9890.96
9870.36
9898.29
9994.89
10267.1
10699.4
11330.3
12288.9
13385.9
14574.4
15858.8
17343.8
18838.1
20426
22087.3
23750.2
25530.6
27366.5
29236.3
31181.7
33180.4
35174.3
37133.8
39043.3
40884.5
42627.7
44250.8
45771.8
47166.6
48439.9
49641.1
50771.6
51836.5
52859.9
53851.9
32312.5
32425.5
32434.1
32444.8
32481.3
32676.5
33004.6
33445.7
33939.8
34489.7
35138.6
35815.7
36470.7
37087.4
37646.2
38131.8
38538.4
38870.1
39139.6
39363.1
39559.9
39755.6
39977.8
40253.4
40603
41039.6
41568.9
42192.1
42907.4
43695.8
44535.6
45420.7
46343.1
47286.6
48230
49169.1
50110
51060.1
52029
53028
54063.9
55135.5
56238.7
57362.7
58502.4
59646
60782.1
61891.6
62949.1
63940.4
64861.3
65711.5
66490
67194.1
67819.4
68359.6
68806.4
69149.7
69406.2
69567.2
69601.9
69492.1
69239.2
68848.2
68328.7
67692.5
66955.9
66139.3
65263.4
64346
63388.1
62388.9
61344.6
60248.1
59091.2
57865.8
56568.5
55200.3
53768.2
52285.3
50767.7
49239.3
47718.5
46229.9
44773.2
43190
41786.4
40475.4
39223.5
38007.3
36804.5
35602.4
34384.5
33135.7
31842.6
30505.2
29124.1
27741.7
26324
24905.2
23469.7
22047.7
20620.4
19248
17887.9
16609
15367.9
14204.7
13087.4
12010
11005.7
10030.4
9099.9
8169.49
7312.96
6482.96
5635.8
4795.05
4021.74
3723.04
3499.12
3338.34
3239.98
3188.38
3171.2
3169.68
3174.28
3165.76
3135.35
3089.94
3046.05
3019.95
3043.49
3139.32
3333.47
3860.87
4992.69
5890.19
6881.12
8193.53
9758.62
11235.8
12848.8
14527.1
16168.4
17971
19818.4
21688.4
23658
25695.4
27723
29712.5
31653
33525.8
35293.8
36929.7
38461.6
39849.8
41122.9
42311.6
43426.7
44474.5
45481.8
46461.2
27338.8
27416.6
27387.8
27385
27415.3
27613.2
27948.3
28401.6
28900.9
29460.9
30122.8
30821.6
31495.4
32132.2
32710.4
33211.3
33625.4
33954.3
34212.9
34420
34596.3
34769
34967.8
35220.7
35549
35965.8
36478.8
37091.5
37806
38603.5
39456
40355.2
41292.1
42250.2
43202.9
44146.3
45088
46035.5
46999.8
47994.5
49028.5
50100.6
51208.4
52339.2
53489.6
54646.3
55798
56925
57997.2
58999.2
59927.9
60784.2
61567.7
62276.3
62906
63450.2
63900.1
64243
64502.2
64657.2
64688.2
64571.8
64309.3
63906
63372.8
62723
61972.7
61142.4
60255.9
59329
58361
57352.2
56299.6
55195.7
54031
52796
51486.3
50102.9
48651.8
47147.8
45606.3
44056.1
42514
41013.1
39552.8
37958
36569.3
35263
34018.6
32814
31621.4
30427.3
29219.1
27977.5
26688.7
25351.5
23960.4
22583.3
21153.8
19736.3
18288.2
16866.3
15420.3
14051.9
12675
11404.2
10157
9007.24
7891.73
6819.69
5833.76
4888.79
3979.49
3039.64
2133.35
1398.82
985.808
600.062
302.038
241.554
210.766
181.988
154.033
127.535
98.5172
77.4654
71.6091
64.1095
55.7167
47.0842
39.8875
33.001
30.7035
32.4448
29.5539
73.3249
352.722
861.482
1971.53
3077.75
4590.72
6083.51
7704.41
9406.85
11017.7
12845.5
14700.4
16564.2
18553.4
20623
22675.6
24686.5
26650.5
28548.5
30336.1
31981.4
33524
34903.1
36176.9
37355.9
38458.6
39493.7
40488.4
41458.5
24741.5
24796.9
24747
24737.8
24765.2
24964.3
25303.3
25763.6
26265.6
26830.5
27499
28209.4
28893.1
29540.6
30129.6
30639.2
31058.1
31385.9
31638.7
31836.8
32001.9
32161.9
32348.1
32588.6
32904.9
33310.6
33814.4
34421.2
35135.3
35938
36798.1
37705.3
38649.9
39615.9
40573.6
41519
42461
43407
44368.7
45360.8
46393.6
47466
48576.5
49711
50867.2
52031.1
53191.3
54327.8
55408
56415.8
57348.6
58208.2
58994.5
59705.6
60337.7
60884.5
61336.2
61679.9
61940.1
62091.7
62121
62001.2
61733.5
61323.5
60782.6
60125.1
59367.5
58530.3
57638.4
56706.4
55733
54719.1
53662.2
52554.6
51385.9
50146
48829.9
47438.4
45977.1
44461.8
42907.2
41345.2
39791.3
38283.9
36821.9
35221.4
33840.7
32536.8
31296.2
30098.1
28910.7
27720.1
26517.9
25280.2
23994.2
22657.1
21259.8
19886.6
18449.5
17033.9
15577.8
14157
12699.3
11334.6
9947.2
8681.63
7425.57
6286.5
5183.04
4120.43
3135.46
2169.14
1480.16
994.208
564.914
349.468
283.806
249.737
223.91
208.729
184.658
161.973
139.005
117.871
95.7396
78.0533
69.4461
61.0806
52.6729
44.0851
36.8919
29.8784
25.2618
22.0462
10.4634
-1.66912
-6.32662
7.62684
191.537
798.435
2138.3
3388.48
5008.34
6729.19
8319.73
10164.1
12022.3
13881.1
15881.5
17969.2
20035.3
22057.5
24034.3
25946.4
27744.9
29395.1
30944.9
32316.9
33591.9
34765.5
35861.3
36889.6
37877.5
38842.5
22148.6
22176.6
22104.2
22089.4
22114.1
22314.4
22657.3
23125.2
23630.2
24199.5
24874.2
25596.6
26290.2
26948.6
27548.8
28068
28492.9
28820.6
29067.7
29256.6
29410.2
29556.9
29729.9
29956.9
30260.1
30653.4
31147.2
31747.7
32461.5
33270
34138.7
35054.5
36006.9
36981.2
37943.9
38891.4
39833.6
40777.8
41736.4
42725.7
43757
44829.5
45942.9
47081.5
48243.9
49415.2
50584.2
51730.6
52819.3
53833
54770.1
55633.1
56422.3
57136
57770.7
58320.1
58774.1
59119.1
59380.6
59528.2
59556.4
59433.3
59160.3
58743.4
58194.4
57528.6
56763.1
55919.1
55021.9
54084.7
53105.8
52086.6
51025.4
49914.3
48741.9
47497.3
46174.8
44775.3
43303.6
41776.9
40208.6
38634.5
37067.8
35553.8
34090.4
32484.2
31111.6
29809.9
28572.8
27381.8
26199.8
25012.1
23816.7
22583
21300.6
19963.7
18559
17191.3
15744.7
14332.6
12866.8
11448.7
9977.16
8617.12
7214.08
5957.98
4714.8
3577.2
2446.96
1549.6
1079.62
628.731
439.766
371.712
346.098
317.759
271.717
247.347
221.747
203.746
180.246
157.814
135.033
113.969
91.3225
74.5161
66.5805
58.0149
49.648
41.0913
33.9447
27.0478
23.3473
21.0382
10.6859
-8.17278
-17.0971
-22.6061
-34.1025
-7.78258
243.991
1009.39
2483.15
4035.68
5617.82
7478.67
9343.13
11194.1
13206.9
15314.1
17394
19427.5
21417.8
23344.8
25155
26810.2
28365.9
29733.9
31008.6
32176.3
33264.8
34286.1
35266.7
36226.5
19561.2
19555.9
19459.5
19440
19462
19663.1
20010.3
20486.4
20994.5
21568.1
22248.8
22983.4
23686.7
24356.3
24968.2
25497.8
25930.1
26258.5
26500.1
26680
26821.4
26954.4
27113.6
27326.1
27614.9
27994.5
28477.2
29071.1
29784.9
30599.7
31478.2
32403.2
33363.3
34346.2
35314.1
36263.5
37205.9
38148.2
39103.4
40089.3
41119
42191.4
43308.1
44450.8
45619.7
46798.8
47976.8
49133.7
50231.1
51251
52192.4
53059
53851.2
54567.6
55205.1
55757.3
56213.8
56560.6
56823.8
56966.6
56994.1
56867.9
56589.6
56165.4
55608
54933.2
54159.2
53308.3
52406.2
51463.9
50479.4
49454.9
48389.4
47275.1
46099.1
44850
43521.2
42113.8
40631.5
39093.2
37510.3
35924
34343.6
32822.9
31358.3
29746.4
28382.4
27082.6
25848.7
24665.6
23488.9
22303.2
21116.2
19886.1
18608.4
17271.5
15858.1
14497.6
13039.4
11632.7
10155.4
8741.22
7250.23
5901.29
4502.65
3244.91
1954.99
1342.75
818.793
555.04
463.538
433.696
409.396
363.584
342.282
310.875
266.412
240.589
216.741
199.381
175.942
153.862
131.495
110.955
89.7101
72.9018
63.8661
54.9938
46.6112
38.0793
30.9212
23.9481
19.1311
15.3169
4.75904
-8.34817
-15.8507
-26.5674
-39.7487
-43.1819
-53.4694
1.56451
434.096
1604.34
2962.77
4788.84
6661.29
8504.04
10529.8
12658.2
14751.9
16796.7
18801.2
20744.1
22566.6
24226.8
25788.1
27153.6
28427.1
29588.4
30669.2
31683.3
32656.2
33610.6
16980.7
16934.4
16812.7
16789.5
16808.5
17010.4
17362
17847.2
18358.5
18936.4
19622.6
20369.9
21082.8
21763.6
22387.8
22928.6
23369.8
23700.1
23936.7
24107.1
24236.2
24355.2
24499.2
24696.5
24969.3
25333.8
25804.5
26391.5
27105.6
27927.6
28816.7
29751.7
30719.3
31711.2
32684.2
33635.5
34578.1
35518.2
36469.5
37451.8
38479.6
39551.8
40671.9
41819.2
42994.9
44182
45369.3
46537.1
47643.6
48669.8
49615.7
50485.9
51281.3
52000.4
52640.7
53196
53655.2
54004.3
54269.7
54407.1
54434.4
54305.3
54021.6
53589.9
53023.6
52339.3
51556
50697.8
49790.9
48843.7
47853.6
46823.8
45754
44636.7
43457.4
42204
40868.9
39453.7
37960.4
36410.5
34812.4
33213.5
31618.3
30090.9
28625.6
27007.9
25653
24354.8
23123.7
21949.3
20777.9
19593.3
18416.2
17189.3
15917.7
14580.4
13156.7
11805.8
10333.3
8934.27
7440.14
6036.03
4545.85
3191.96
1789.85
1240.84
727.384
605.749
562.905
525.642
458.389
430.3
402.508
356.245
334.974
304.914
263.086
237.73
213.094
194.592
171.612
149.793
127.703
107.352
86.3792
70.0898
61.0503
51.9588
43.5802
35.073
27.9354
21.0123
16.3951
12.4385
2.58299
-12.5535
-21.0281
-28.2578
-40.7428
-47.4684
-59.5953
-62.7371
-56.3504
75.9521
747.105
2311.42
3969.34
5809.17
7846.45
10001.8
12109.3
14165.1
16184.3
18144.2
19979.8
21645
23211.7
24575.9
25847.5
27001.4
28074.8
29081
30045.8
30994.8
14408.4
14311.9
14163.8
14138
14153.7
14356.2
14712.5
15207.6
15722
16304.6
16995.8
17756.1
18478.4
19170.6
19807.6
20360.2
20811.9
21145.5
21378.1
21538.6
21655.1
21759.7
21887.4
22068.2
22323.3
22671.2
23128.9
23708.7
24423.9
25253.8
26154.5
27100
28074.9
29076.1
30054.5
31007.5
31950.2
32887.9
33835.1
34813.2
35838.7
36910.4
38034.5
39186.6
40369.3
41564.9
42761.7
43940.8
45056.8
46089.4
47039.9
47913.8
48712.5
49434.4
50077.7
50636.1
51098.5
51450.2
51718.2
51849.7
51877.1
51745.3
51456.1
51016.7
50441.2
49746.8
48953.8
48087.9
47175.8
46224.2
45228.5
44193.3
43119.1
41999.1
40816.6
39559.3
38218
36795.1
35290.5
33728.9
32114.6
30503.2
28891.8
27357.8
25892.3
24268.6
22923.5
21626.3
20397.5
19233.1
18066.7
16881.9
15717.2
14492.1
13228.9
11890.5
10455.1
9115.99
7623.64
6237.9
4748.57
3338.79
1847.14
1275.03
786.71
689.78
642.763
592.416
557.524
516.34
450.565
422.987
395.874
352.499
329.499
298.98
258.709
232.844
208.745
190.169
167.34
145.811
124.073
104.139
83.9195
67.7972
58.2375
48.9413
40.5422
32.05
24.8969
17.9092
12.7622
8.12494
-1.43995
-14.2922
-22.6725
-31.8013
-43.8785
-48.7389
-60.7507
-67.1329
-68.9121
-78.3164
-39.3811
323.562
1570.58
3141.48
5161.8
7334.77
9466.06
11532.8
13567.2
15545.2
17394.7
19065
20637.1
22000.5
23269.8
24415.5
25481.7
26479.4
27435.7
28379
11846.4
11688
11512.8
11485.6
11497.4
11700.4
12061.6
12567.5
13085
13672.6
14368.5
15142.1
15873.7
16577.3
17227.4
17792.6
18256.5
18595
18824.7
18975.2
19078.9
19168.5
19278.9
19441.6
19677.1
20006.6
20450.2
21023.3
21739.9
22578.6
23491.4
24448
25430.2
26441.1
27424.9
28379.5
29322.4
30257.5
31199.9
32173.4
33196.3
34267.4
35395.8
36553.1
37743.1
38947.6
40154
41345
42470.8
43510
44465.1
45342.9
46144.9
46869.7
47516
48077.8
48543.6
48898.1
49169.4
49294.3
49322.3
49188.1
48893.5
48446.1
47861
47156.1
46352.8
45478.8
44561.1
43605.1
42603.9
41563.1
40484.6
39362.3
38176.9
36915.8
35568.3
34138
32621.7
31048.4
29416.8
27792.8
26163.7
24623.4
23159
21527.4
20193.9
18897.2
17669.8
16517.1
15355.2
14168.7
13019.4
11794.5
10542.6
9201.27
7750.97
6428.96
4936.01
3553.1
2034.24
1402.99
888.289
794.126
740.596
683.865
635.57
581.773
547.743
508.21
447.438
417.628
389.183
346.746
323.207
293.121
254.73
228.999
204.688
185.566
163.065
141.785
120.352
100.641
80.8719
65.1001
55.3787
45.9174
37.5038
29.0307
21.8792
14.9153
9.72284
4.81951
-4.68039
-17.6914
-26.084
-33.9306
-45.7056
-52.0289
-62.9477
-68.0571
-71.6483
-81.659
-79.8204
-74.5767
65.8105
890.052
2608.22
4673.71
6811.6
8898.14
10950.4
12947.2
14811.7
16486.8
18064.6
19427.4
20694.2
21831
22889.6
23878.2
24825.7
25763.3
9206.86
8969.6
8766.09
8738.67
8745.71
8949.19
9315.62
9833.93
10354.5
10947.8
11648.1
12435.8
13176.8
13892.3
14556.3
15135.2
15613.8
15959.1
16187.4
16327.8
16417.8
16491.2
16582.7
16724.6
16937.5
17246.1
17674
18239.9
18959
19807.1
20733.2
21702.1
22692.3
23713.5
24703
25659
26602.1
27534.2
28471.4
29439.4
30459.2
31529.3
32662.9
33825.9
35023.8
36237.9
37454.4
38658.2
39794.6
40840.8
41800.6
42682.5
43488.1
44215.9
44865.4
45430.9
45900.5
46258.2
46534.1
46650.6
46680.1
46543.7
46243.5
45787.7
45192.3
44476
43661.5
42779.1
41854.9
40894.2
39887.4
38840.7
37757.6
36633.3
35445
34180.5
32826.5
31388.9
29859.8
28274.8
26623.9
24987.2
23337.7
21791.1
20324.3
18692.7
17367.9
16071.2
14844.2
13705.8
12547.5
11358.2
10228.2
8999.49
7763.14
6420.44
4972.41
3655.88
2148.05
1564.44
1010.98
906.615
845.689
789.302
729.255
670.678
626.773
576.314
540.045
499.804
441.437
411.049
382.457
341.756
317.228
287.148
250.194
224.345
200.292
180.963
158.673
137.656
116.559
97.245
77.9869
62.4286
52.4023
42.7913
34.3522
25.8905
18.7208
11.7
6.20249
0.885639
-8.16142
-20.0979
-28.7055
-37.1686
-48.4341
-54.051
-64.7545
-70.7578
-73.3514
-83.2529
-83.8248
-84.0234
-90.7685
-28.8899
553.432
2169.15
4069.77
6160.68
8236.39
10259.1
12140.4
13819.5
15403.6
16765.9
18030.1
19156.9
20207.3
21185.8
22123.7
23055.3
6495.24
6155.71
5923.44
5897.2
5898.32
6102.19
6474.26
7006.73
7530.28
8130.3
8834.56
9637.39
10387.7
11115.5
11794.4
12387.8
12884.1
13238.7
13468.2
13598.4
13674
13729.9
13800.2
13918
14104.5
14389.2
14799.6
15356.9
16081.2
16938.7
17879.7
18862.1
19861.3
20893.5
21889
22846.1
23789.5
24718.3
25649.5
26612.3
27627.2
28695.9
29835.5
31005.1
32211.3
33435.9
34663.1
35880.5
37028.3
38081.9
39046.7
39932.9
40742.3
41473.3
42126.2
42695.5
43169.5
43530.6
43813.2
43918.3
43950.9
43812.6
43506.6
43042
42435.6
41706.9
40880.4
39989
39057.4
38091.5
37078.8
36025.9
34938
33812.4
32621.2
31353.7
29992.9
28548.3
27005.2
25408.3
23735.8
22086.4
20413.2
18860.7
17388.8
15763.7
14445.8
13148.3
11920.3
10799.8
9643.45
8447.52
7343.43
6117.63
4910.85
3541.58
2133.07
1633.19
1114.56
1013.74
954.087
898.374
831.402
774.256
720.539
664.132
618.104
567.495
531.03
491.321
436.3
404.751
375.486
335.928
310.85
281.057
245.599
219.83
195.791
176.15
154.138
133.372
112.599
93.5475
74.762
59.4874
49.2872
39.5529
31.0896
22.6441
15.4643
8.45606
2.83477
-2.74462
-11.7046
-23.4601
-31.9002
-39.799
-50.771
-56.9889
-66.877
-72.6307
-76.0362
-84.7837
-84.9844
-87.5627
-93.458
-92.289
-68.6021
255.593
1613.88
3356.57
5427.91
7470.42
9380.35
11063.6
12654.6
14016.3
15277.9
16393.4
17435
18402.4
19329.9
20255
3806
3337.95
3078.32
3054.66
3048.71
3252.9
3630.78
4179.01
4705.28
5312.57
6020.76
6838.93
7598.32
8338.38
9032.54
9640.74
10157.3
10524.2
10757.2
10878.6
10939.6
10977.4
11024.1
11114.7
11271.3
11529.7
11921.4
12469.7
13201.4
14066.9