/*--------------------------------*- C++ -*----------------------------------*\
| =========                 |                                                 |
| \\      /  F ield         | OpenFOAM: The Open Source CFD Toolbox           |
|  \\    /   O peration     | Version:  v1912                                 |
|   \\  /    A nd           | Website:  www.openfoam.com                      |
|    \\/     M anipulation  |                                                 |
\*---------------------------------------------------------------------------*/
FoamFile
{
    version     2.0;
    format      ascii;
    class       surfaceScalarField;
    location    "90";
    object      phi;
}
// * * * * * * * * * * * * * * * * * * * * * * * * * * * * * * * * * * * * * //

dimensions      [0 3 -1 0 0 0 0];
oriented        oriented;


internalField   nonuniform List<scalar> 
28285
(
-0.0309286
-0.00299988
-0.027716
-0.00321261
-0.0243164
-0.00339968
-0.0207566
-0.00355971
-0.0170656
-0.00369102
-0.013274
-0.00379167
-0.00941446
-0.0038595
-0.00552282
-0.00389164
-0.00163906
-0.00388375
0.00217412
-0.00381318
0.00587677
-0.00370266
0.00945305
-0.00357628
0.0128518
-0.00339879
0.0160342
-0.0031824
0.0189753
-0.00294111
0.0216669
-0.00269156
0.024121
-0.00245407
0.0263721
-0.00225111
0.0284762
-0.00210412
0.0305056
-0.00202942
0.032542
-0.00203643
0.0346824
-0.0021403
0.0370302
-0.00234784
0.0396825
-0.0026523
0.0427174
-0.00303486
0.0461844
-0.00346709
0.0500988
-0.00391431
0.0544409
-0.0043421
0.0591636
-0.00472274
0.0642027
-0.00503909
0.0694911
-0.00528844
0.0749653
-0.00547415
0.0805587
-0.0055934
0.0862146
-0.0056559
0.0918948
-0.00568028
0.0975831
-0.00568826
0.103282
-0.00569935
0.109009
-0.00572702
0.114786
-0.00577627
0.120629
-0.0058429
0.126543
-0.00591456
0.132516
-0.00597298
0.138513
-0.00599729
0.144481
-0.00596752
0.150349
-0.00586777
0.156037
-0.00568855
0.161465
-0.00542764
0.166555
-0.00508983
0.17124
-0.00468528
0.175467
-0.00422712
0.179196
-0.00372872
0.182397
-0.00320126
0.185049
-0.00265202
0.187133
-0.00208372
0.188628
-0.00149513
0.189511
-0.000882641
0.189753
-0.000242642
0.189325
0.000428068
0.188201
0.00112445
0.186353
0.00184745
0.183775
0.00257858
0.180473
0.00330139
0.176477
0.00399658
0.171832
0.00464511
0.166601
0.00523105
0.160857
0.00574403
0.154676
0.00618085
0.14813
0.00654582
0.14128
0.00684994
0.134171
0.00710875
0.126832
0.0073397
0.119272
0.00755912
0.111493
0.00777925
0.103487
0.0080062
0.0952479
0.0082391
0.0867772
0.00847068
0.0780876
0.00868961
0.0692033
0.0088843
0.0601564
0.00904686
0.0510036
0.00915279
0.0418176
0.00918601
0.0326719
0.0091457
0.0236349
0.00903707
0.0147638
0.00887106
0.00609918
0.00866462
-0.00233283
0.00843201
-0.0104964
0.00816356
-0.0184649
0.00796848
-0.0262766
0.00781172
-0.0339811
0.00770449
-0.0416297
0.00764857
-0.0492707
0.00764107
-0.0569453
0.0076746
-0.0646838
0.00773849
-0.0725041
0.00782027
-0.080411
0.00790689
-0.0883968
0.00798582
-0.0964427
0.00804586
-0.10452
0.0080778
-0.112595
0.00807473
-0.120627
0.00803222
-0.128576
0.00794831
-0.136399
0.00782345
-0.144059
0.00766031
-0.151523
0.00746356
-0.158763
0.00723947
-0.165758
0.00699531
-0.172496
0.00673836
-0.178971
0.00647477
-0.18518
0.00620873
-0.191121
0.00594179
-0.196794
0.00567256
-0.202191
0.00539669
-0.207298
0.00510762
-0.212096
0.00479801
-0.216558
0.00446128
-0.220651
0.00409314
-0.224344
0.00369311
-0.227609
0.00326521
-0.230427
0.002818
-0.23279
0.00236299
-0.234703
0.00191332
-0.236185
0.00148141
-0.237261
0.00107649
-0.237965
0.000703828
-0.238336
0.000370451
-0.238409
7.36834e-05
-0.23817
-0.000239499
-0.237603
-0.000566468
-0.236673
-0.000930729
-0.235321
-0.0013518
-0.233476
-0.00184497
-0.231058
-0.00241832
-0.227986
-0.0030713
-0.224192
-0.00379409
-0.219624
-0.00456845
-0.214256
-0.00536774
-0.208092
-0.00616406
-0.201158
-0.00693399
-0.193496
-0.00766212
-0.185158
-0.00833741
-0.176202
-0.00895644
-0.166682
-0.00951966
-0.156649
-0.0100332
-0.146146
-0.0105033
-0.135214
-0.0109317
-0.123899
-0.0113148
-0.112258
-0.0116408
-0.100366
-0.0118922
-0.0883169
-0.0120492
-0.076224
-0.0120929
-0.0642148
-0.0120092
-0.0524209
-0.0117939
-0.0409664
-0.0114545
-0.0299565
-0.0110099
-0.0194676
-0.010489
-0.00953849
-0.00992908
-0.000190333
-0.00934815
0.00863678
-0.00882711
0.0169664
-0.00832958
0.0248737
-0.00790739
0.0324368
-0.0075631
0.0397182
-0.00728136
-0.0070611
-0.0310079
-0.00602262
-0.0277767
-0.00644373
-0.0243612
-0.0068152
-0.0207879
-0.00713302
-0.0170855
-0.00739341
-0.0132842
-0.00759295
-0.00941595
-0.00772779
-0.00551538
-0.00779221
-0.00162057
-0.00777856
0.00223416
-0.00766791
0.00598952
-0.00745801
0.0095863
-0.00717306
0.0130006
-0.00681306
0.0161981
-0.00637995
0.019151
-0.00589398
0.0218462
-0.00538675
0.0242892
-0.00489703
0.0265064
-0.00446834
0.0285481
-0.00414587
0.0304909
-0.00397215
0.032437
-0.00398254
0.0344958
-0.00419914
0.0367735
-0.00462552
0.0393652
-0.00524399
0.0423471
-0.00601675
0.0457704
-0.00689043
0.0496598
-0.00780372
0.0540096
-0.00869189
0.0587809
-0.00949405
0.0639065
-0.0101647
0.0692978
-0.0106797
0.0748607
-0.011037
0.080518
-0.0112508
0.0862135
-0.0113514
0.0919135
-0.0113803
0.0976073
-0.011382
0.103304
-0.0113959
0.109025
-0.0114483
0.114797
-0.0115486
0.120642
-0.0116872
0.126565
-0.011838
0.132555
-0.0119628
0.138576
-0.0120185
0.144573
-0.0119639
0.150471
-0.0117667
0.156191
-0.0114077
0.161646
-0.0108828
0.166758
-0.0102025
0.171461
-0.00938801
0.175701
-0.00846643
0.179437
-0.00746536
0.182644
-0.00640766
0.1853
-0.00530799
0.187387
-0.00417155
0.188887
-0.00299522
0.189776
-0.00177087
0.190022
-0.000488848
0.1896
0.000849659
0.188482
0.00224255
0.186636
0.00369358
0.184052
0.00516216
0.180739
0.00661479
0.176724
0.00801211
0.172054
0.00931512
0.166793
0.0104911
0.161019
0.0115188
0.154808
0.0123914
0.148236
0.0131179
0.141365
0.0137207
0.134242
0.0142321
0.126894
0.014688
0.11933
0.0151227
0.111548
0.0155616
0.103536
0.016018
0.0952847
0.0164904
0.0867915
0.0169638
0.0780685
0.0174127
0.0691461
0.0178067
0.0600758
0.0181171
0.0509138
0.0183148
0.0417255
0.0183742
0.0325819
0.0182893
0.0235509
0.0180681
0.0146898
0.0177322
0.00603894
0.0173154
-0.00238394
0.0168549
-0.0105579
0.0163376
-0.0185288
0.0159393
-0.026338
0.015621
-0.0340365
0.0154029
-0.0416775
0.0152896
-0.0493115
0.0152751
-0.0569814
0.0153445
-0.0647187
0.0154758
-0.072542
0.0156436
-0.0804563
0.0158211
-0.0884533
0.0159828
-0.0965133
0.0161059
-0.104607
0.0161717
-0.112699
0.0161665
-0.120748
0.0160814
-0.128712
0.0159125
-0.13655
0.0156611
-0.144222
0.0153324
-0.151695
0.0149362
-0.15894
0.014485
-0.165939
0.0139938
-0.172678
0.0134774
-0.179152
0.0129484
-0.185358
0.0124155
-0.191298
0.0118818
-0.19697
0.0113443
-0.202367
0.0107941
-0.207477
0.0102176
-0.212279
0.00959945
-0.216744
0.00892615
-0.220839
0.0081888
-0.224533
0.00738647
-0.227795
0.00652733
-0.230606
0.00562894
-0.232958
0.00471483
-0.234856
0.00381199
-0.236321
0.00294568
-0.237378
0.00213437
-0.238064
0.00138984
-0.23842
0.000726042
-0.238495
0.000148923
-0.238256
-0.000478854
-0.237694
-0.00112878
-0.236771
-0.00185308
-0.235431
-0.00269231
-0.233598
-0.00367756
-0.231191
-0.00482519
-0.228128
-0.00613419
-0.224338
-0.00758467
-0.219767
-0.00913972
-0.21439
-0.0107443
-0.208213
-0.0123413
-0.201263
-0.0138837
-0.193584
-0.0153412
-0.18523
-0.0166916
-0.176258
-0.0179285
-0.166724
-0.019053
-0.156679
-0.0200786
-0.146164
-0.0210182
-0.13522
-0.0218755
-0.123892
-0.0226434
-0.112235
-0.0232978
-0.100324
-0.0238032
-0.0882537
-0.0241194
-0.076139
-0.0242075
-0.0641088
-0.0240394
-0.0522966
-0.0236061
-0.0408284
-0.0229227
-0.0298105
-0.0220278
-0.019319
-0.0209805
-0.00939441
-0.0198537
-7.11049e-05
-0.0186715
0.00877005
-0.0176683
0.0171004
-0.0166599
0.0250006
-0.0158076
0.0325488
-0.0151113
0.0398156
-0.0145482
-0.0141072
-0.0310851
-0.0090612
-0.0278385
-0.00969033
-0.0244087
-0.010245
-0.020823
-0.0107187
-0.0171105
-0.0111059
-0.0133006
-0.0114028
-0.00942357
-0.0116048
-0.00551265
-0.0117031
-0.00160472
-0.0116865
0.00227261
-0.0115452
0.0060653
-0.0112507
0.00971166
-0.0108194
0.0131604
-0.0102618
0.0163743
-0.00959388
0.0193263
-0.00884597
0.0220026
-0.00806304
0.0244087
-0.00730312
0.0265741
-0.0066338
0.0285548
-0.00612655
0.0304326
-0.00584997
0.0323103
-0.00586018
0.0343017
-0.00619058
0.0365214
-0.00684523
0.0390735
-0.00779606
0.0420413
-0.00898461
0.045479
-0.0103281
0.0494042
-0.0117289
0.053799
-0.0130867
0.0586152
-0.0143102
0.0637803
-0.0153297
0.0692064
-0.0161059
0.0748024
-0.016633
0.0804882
-0.0169365
0.086204
-0.0170672
0.091915
-0.0170913
0.0976116
-0.0170786
0.103305
-0.0170895
0.109021
-0.0171646
0.11479
-0.0173173
0.120635
-0.0175324
0.126566
-0.0177688
0.132571
-0.0179674
0.138613
-0.0180612
0.144637
-0.0179871
0.150565
-0.0176953
0.156314
-0.0171568
0.161797
-0.0163659
0.166934
-0.0153392
0.171656
-0.0141098
0.175909
-0.0127199
0.179656
-0.011212
0.18287
-0.00962131
0.185532
-0.00797002
0.187626
-0.00626552
0.189133
-0.00450219
0.190028
-0.00266633
0.19028
-0.000740788
0.189869
0.00126026
0.18876
0.00335159
0.186917
0.0055366
0.184331
0.00774894
0.181007
0.00993836
0.176974
0.0120447
0.172281
0.0140082
0.166994
0.0157783
0.161191
0.0173221
0.154953
0.0186295
0.148357
0.0197138
0.141467
0.0206102
0.134331
0.0213682
0.126976
0.0220437
0.119409
0.0226896
0.111625
0.0233456
0.10361
0.0240324
0.0953525
0.024748
0.0868478
0.0254685
0.0781074
0.0261531
0.0691632
0.0267509
0.0600693
0.027211
0.0508883
0.0274959
0.0416821
0.0275805
0.0325226
0.0274488
0.0234802
0.0271104
0.0146137
0.0265988
0.00596378
0.0259653
-0.00245545
0.0252741
-0.0106285
0.0245106
-0.0185928
0.0239036
-0.0263918
0.02342
-0.0340781
0.0230892
-0.041707
0.0229185
-0.0493308
0.0228989
-0.0569935
0.0230072
-0.0647277
0.02321
-0.0725522
0.0234681
-0.0804719
0.0237409
-0.0884783
0.0239891
-0.0965507
0.0241783
-0.104659
0.0242803
-0.112767
0.0242743
-0.120833
0.024147
-0.128813
0.0238928
-0.136665
0.0235134
-0.14435
0.0230173
-0.151833
0.0224191
-0.159086
0.0217381
-0.16609
0.020997
-0.172831
0.0202186
-0.179305
0.0194222
-0.18551
0.0186214
-0.19145
0.0178209
-0.197121
0.0170161
-0.20252
0.0161933
-0.207634
0.0153312
-0.212441
0.0144063
-0.216912
0.0133973
-0.221014
0.0122905
-0.224712
0.0110843
-0.227976
0.0097913
-0.230785
0.00843808
-0.23313
0.00706059
-0.235019
0.00570027
-0.236468
0.0043954
-0.237509
0.00317447
-0.238174
0.00205501
-0.238524
0.00107655
-0.238595
0.000219377
-0.238356
-0.000717328
-0.237801
-0.00168402
-0.236892
-0.00276199
-0.23557
-0.00401426
-0.233759
-0.0054886
-0.231374
-0.00721024
-0.22833
-0.0091781
-0.224553
-0.0113621
-0.219986
-0.0137065
-0.214605
-0.016125
-0.208417
-0.0185295
-0.201452
-0.0208484
-0.193755
-0.0230382
-0.185382
-0.0250644
-0.176393
-0.0269182
-0.166844
-0.0286016
-0.156785
-0.0301374
-0.146258
-0.0315454
-0.135301
-0.0328325
-0.123956
-0.0339883
-0.112278
-0.0349757
-0.100341
-0.0357402
-0.0882405
-0.0362202
-0.0760918
-0.0363562
-0.0640268
-0.0361043
-0.0521823
-0.0354507
-0.0406871
-0.0344179
-0.0296499
-0.033065
-0.0191476
-0.0314828
-0.00922063
-0.0297807
0.000115619
-0.0280077
0.0089256
-0.0264782
0.01724
-0.0249743
0.0251226
-0.0236902
0.0326521
-0.0226407
0.0399016
-0.0217977
-0.0211387
-0.0311819
-0.0121162
-0.0279185
-0.0129538
-0.0244725
-0.013691
-0.0208722
-0.014319
-0.0171475
-0.0148307
-0.0133266
-0.0152237
-0.00943732
-0.0154941
-0.00551153
-0.0156289
-0.00158553
-0.0156125
0.00231488
-0.0154456
0.0061293
-0.0150651
0.00979609
-0.0144862
0.0132644
-0.0137301
0.0164921
-0.0128216
0.019448
-0.0118019
0.0221168
-0.0107318
0.0245037
-0.00968999
0.0266393
-0.00876947
0.028582
-0.0080692
0.0304156
-0.00768359
0.0322447
-0.00768929
0.0341866
-0.00813242
0.0363603
-0.00901895
0.0388749
-0.0103107
0.0418177
-0.0119274
0.045245
-0.0137554
0.0491761
-0.01566
0.0535923
-0.0175029
0.0584411
-0.0191591
0.0636444
-0.0205331
0.0691093
-0.0215708
0.074741
-0.0222647
0.0804557
-0.0226512
0.086191
-0.0228024
0.091911
-0.0228113
0.0976074
-0.0227749
0.103295
-0.0227767
0.109002
-0.0228722
0.114764
-0.0230796
0.120609
-0.0233773
0.126549
-0.0237082
0.132572
-0.0239904
0.138642
-0.0241318
0.144701
-0.0240454
0.150669
-0.0236632
0.156458
-0.022946
0.161979
-0.0218866
0.167148
-0.0205085
0.171896
-0.0188578
0.176169
-0.016993
0.17993
-0.0149729
0.183154
-0.0128456
0.185825
-0.0106413
0.187929
-0.00836921
0.189447
-0.00602018
0.190354
-0.00357355
0.190616
-0.00100246
0.190223
0.00165339
0.189128
0.0044461
0.187292
0.00737334
0.184703
0.0103378
0.181368
0.0132735
0.177314
0.0160985
0.172591
0.0187305
0.167269
0.0211003
0.161429
0.0231625
0.155156
0.024903
0.148529
0.0263404
0.141616
0.027523
0.134465
0.0285192
0.127102
0.0294065
0.119534
0.0302576
0.111752
0.0311278
0.103739
0.0320453
0.0954801
0.0330073
0.0869684
0.0339802
0.0782152
0.0349062
0.0692524
0.0357137
0.0601303
0.0363332
0.0509076
0.0367186
0.0416591
0.0368289
0.0324635
0.0366443
0.0233945
0.0361795
0.014512
0.0354813
0.00585716
0.0346202
-0.00255963
0.0336909
-0.0107265
0.0326775
-0.0186775
0.0318546
-0.0264584
0.0312008
-0.0341244
0.0307552
-0.0417338
0.0305279
-0.0493411
0.0305062
-0.0569923
0.0306584
-0.064721
0.0309386
-0.0725464
0.0312936
-0.0804734
0.0316679
-0.0884928
0.0320085
-0.096583
0.0322685
-0.104713
0.0324104
-0.112845
0.032406
-0.120935
0.0322375
-0.12894
0.0318975
-0.136815
0.0313885
-0.14452
0.0307224
-0.15202
0.0299189
-0.159286
0.029004
-0.166297
0.0280088
-0.173043
0.0269644
-0.179518
0.0258976
-0.185724
0.0248272
-0.191663
0.0237597
-0.197336
0.0226889
-0.202739
0.0215961
-0.207859
0.0204516
-0.212675
0.0192225
-0.217157
0.0178793
-0.221269
0.0164025
-0.224976
0.0147906
-0.228244
0.0130599
-0.231053
0.0112464
-0.233391
0.00939892
-0.235265
0.007574
-0.236692
0.00582295
-0.2377
0.00418186
-0.238343
0.0026985
-0.238685
0.00141805
-0.238749
0.000284154
-0.238512
-0.00095435
-0.237969
-0.00222737
-0.237082
-0.00364878
-0.235791
-0.00530588
-0.234015
-0.0072644
-0.231666
-0.00955945
-0.228653
-0.0121906
-0.224898
-0.0151176
-0.220338
-0.0182659
-0.214951
-0.0215124
-0.208745
-0.0247349
-0.201757
-0.0278368
-0.194032
-0.0307637
-0.185629
-0.0334667
-0.176611
-0.0359361
-0.167039
-0.0381743
-0.156959
-0.0402172
-0.146412
-0.0420926
-0.135433
-0.0438109
-0.124061
-0.04536
-0.112349
-0.0466879
-0.100369
-0.04772
-0.088218
-0.0483716
-0.0760135
-0.0485607
-0.063892
-0.0482258
-0.0519952
-0.0473475
-0.040457
-0.045956
-0.0293897
-0.0441323
-0.0188714
-0.042001
-0.00894307
-0.039709
0.00038624
-0.037337
0.00916991
-0.0352619
0.0174589
-0.0332633
0.0253145
-0.0315458
0.0328157
-0.0301419
0.0400387
-0.0290207
-0.0281475
-0.031303
-0.0151906
-0.02802
-0.0162367
-0.024555
-0.017156
-0.0209372
-0.0179368
-0.0171974
-0.0185705
-0.0133622
-0.0190589
-0.00945639
-0.0193999
-0.00551052
-0.0195748
-0.00156092
-0.0195621
0.00236764
-0.0193742
0.00620852
-0.018906
0.00990013
-0.0181778
0.0133903
-0.0172202
0.0166339
-0.0160651
0.0195967
-0.0147647
0.0222607
-0.0133958
0.0246297
-0.012059
0.0267339
-0.0108736
0.0286318
-0.00996714
0.0304098
-0.00946157
0.0321766
-0.00945607
0.0340549
-0.0100108
0.0361702
-0.0111342
0.0386375
-0.012778
0.0415492
-0.0148392
0.0449647
-0.0171709
0.0489041
-0.0195994
0.0533469
-0.0219457
0.0582363
-0.0240484
0.0634878
-0.0257846
0.0690018
-0.0270848
0.0746774
-0.0279402
0.0804261
-0.0283999
0.0861825
-0.0285589
0.0919105
-0.0285393
0.0976032
-0.0284676
0.103279
-0.0284526
0.108973
-0.0285661
0.114725
-0.0288315
0.120568
-0.02922
0.126517
-0.0296571
0.132562
-0.0300362
0.138668
-0.0302374
0.144771
-0.0301482
0.150788
-0.029681
0.156628
-0.028786
0.162197
-0.0274547
0.167407
-0.0257187
0.172187
-0.0236384
0.176485
-0.0212904
0.180263
-0.0187511
0.1835
-0.0160828
0.186183
-0.013324
0.188299
-0.0104852
0.189831
-0.00755266
0.190755
-0.00449694
0.191032
-0.0012799
0.190656
0.00202924
0.189582
0.00551997
0.187755
0.00920099
0.185164
0.0129283
0.181815
0.0166226
0.177735
0.0201784
0.172976
0.0234896
0.16761
0.0264663
0.161723
0.0290497
0.155405
0.031221
0.14874
0.033005
0.141799
0.0344643
0.134631
0.0356876
0.127261
0.0367762
0.119694
0.0378246
0.111917
0.0389046
0.10391
0.0400529
0.0956516
0.0412651
0.0871354
0.0424964
0.0783715
0.0436701
0.069389
0.0446961
0.0602248
0.0454974
0.0509472
0.0459961
0.0416427
0.0461335
0.0323973
0.0458896
0.0232898
0.0452871
0.0143829
0.0443882
0.00571837
0.0432847
-0.00269638
0.0421057
-0.0108524
0.0408335
-0.0187833
0.0397856
-0.0265382
0.0389557
-0.0341761
0.0383931
-0.0417588
0.0381106
-0.0493439
0.0380913
-0.0569795
0.0382939
-0.0647004
0.0386595
-0.0725264
0.0391197
-0.0804621
0.0396036
-0.0884975
0.0400438
-0.0966097
0.0403808
-0.104767
0.0405672
-0.112928
0.0405677
-0.121051
0.0403597
-0.129087
0.0399337
-0.136992
0.0392933
-0.144723
0.038454
-0.152245
0.0374409
-0.159528
0.036287
-0.166551
0.0350321
-0.173303
0.0337162
-0.17978
0.0323745
-0.185985
0.031032
-0.191922
0.0296972
-0.197595
0.028362
-0.203002
0.0270026
-0.20813
0.0255798
-0.212958
0.0240503
-0.217453
0.0223747
-0.221579
0.0205278
-0.225296
0.0185084
-0.228573
0.0163361
-0.231382
0.0140558
-0.233713
0.0117295
-0.235569
0.00943006
-0.236967
0.00722095
-0.237935
0.00515031
-0.238561
0.00332413
-0.238884
0.00174127
-0.238939
0.000339389
-0.238704
-0.00118943
-0.238177
-0.00275471
-0.23732
-0.00450569
-0.236069
-0.00655644
-0.234341
-0.00899238
-0.232041
-0.0118597
-0.229072
-0.0151596
-0.225348
-0.018842
-0.2208
-0.022814
-0.215405
-0.0269073
-0.209178
-0.0309615
-0.202161
-0.0348543
-0.1944
-0.0385247
-0.18596
-0.041906
-0.176907
-0.0449893
-0.167305
-0.0477765
-0.1572
-0.0503226
-0.146629
-0.0526635
-0.135625
-0.054815
-0.12422
-0.0567646
-0.112465
-0.0584433
-0.10043
-0.0597544
-0.0882134
-0.0605884
-0.075936
-0.0608381
-0.0637397
-0.0604221
-0.0517732
-0.059314
-0.040177
-0.0575522
-0.0290683
-0.055241
-0.0185274
-0.0525419
-0.00859648
-0.0496399
0.000719768
-0.0466533
0.00947311
-0.0440153
0.0177257
-0.0415159
0.0255422
-0.0393622
0.0330051
-0.0376049
0.0401942
-0.0362098
-0.0351286
-0.0314507
-0.0182877
-0.028145
-0.0195425
-0.0246579
-0.0206431
-0.0210194
-0.0215752
-0.0172616
-0.0223283
-0.0134083
-0.0229122
-0.00948098
-0.0233273
-0.00550928
-0.0235465
-0.00153011
-0.0235413
0.00243272
-0.023337
0.00630623
-0.0227795
0.0100289
-0.0219005
0.0135465
-0.0207378
0.0168105
-0.0193292
0.0197831
-0.0177373
0.0224428
-0.0160555
0.0247909
-0.0144071
0.0268564
-0.0129392
0.0286989
-0.0118096
0.0304075
-0.0111702
0.0320963
-0.0111449
0.0338951
-0.0118096
0.0359374
-0.0131765
0.0383459
-0.0151865
0.0412194
-0.0177127
0.0446212
-0.0205727
0.0485723
-0.0235504
0.0530495
-0.0264229
0.0579905
-0.0289894
0.063303
-0.0310971
0.0688787
-0.0326605
0.0746087
-0.0336702
0.0803985
-0.0341897
0.0861795
-0.0343399
0.091915
-0.0342748
0.0976007
-0.0341534
0.10326
-0.034112
0.108935
-0.0342407
0.114671
-0.0345683
0.12051
-0.0350582
0.126469
-0.0356166
0.132542
-0.0361092
0.138691
-0.0363858
0.144848
-0.0363057
0.150928
-0.0357605
0.15683
-0.0346887
0.162457
-0.0330814
0.167717
-0.0309791
0.172538
-0.0284588
0.176864
-0.0256167
0.180662
-0.0225494
0.183914
-0.0193347
0.18661
-0.0160198
0.188741
-0.012616
0.190292
-0.00910358
0.191237
-0.00544248
0.19154
-0.00158215
0.191173
0.00239573
0.190129
0.00656433
0.188314
0.0110158
0.185722
0.0155199
0.182357
0.0199882
0.178245
0.0242904
0.17344
0.028294
0.16802
0.0318866
0.162075
0.0349944
0.155702
0.0375939
0.148991
0.0397161
0.142016
0.0414394
0.134828
0.0428756
0.127453
0.044152
0.11989
0.0453873
0.112123
0.0466713
0.104126
0.0480496
0.0958767
0.0495149
0.087364
0.0510092
0.0785916
0.0524424
0.0695675
0.0537203
0.0603425
0.0547225
0.0509976
0.055341
0.0416252
0.055506
0.0323184
0.0551964
0.0231619
0.0544436
0.0142227
0.0533274
0.00554459
0.0519627
-0.00286794
0.0505182
-0.011008
0.0489736
-0.0189116
0.0476891
-0.0266321
0.0466762
-0.0342333
0.0459943
-0.0417815
0.0456588
-0.0493381
0.0456479
-0.0569537
0.0459095
-0.0646645
0.0463704
-0.072491
0.0469462
-0.0804374
0.0475499
-0.0884925
0.0480989
-0.0966322
0.0485206
-0.104822
0.0487572
-0.113022
0.0487677
-0.121186
0.0485237
-0.129265
0.0480124
-0.13721
0.0472388
-0.144979
0.0462227
-0.152533
0.0449949
-0.159841
0.0435948
-0.166881
0.042072
-0.173641
0.0404761
-0.180118
0.038852
-0.186319
0.0372327
-0.192251
0.0356293
-0.197921
0.0340316
-0.203328
0.0324101
-0.208463
0.030715
-0.213303
0.0288902
-0.217814
0.0268849
-0.221954
0.0246685
-0.225687
0.0222409
-0.228975
0.0196239
-0.231787
0.0168685
-0.234109
0.0140515
-0.235943
0.0112637
-0.237296
0.00857402
-0.238232
0.0060864
-0.238829
0.00392113
-0.239129
0.00204121
-0.23917
0.000379926
-0.238936
-0.00142294
-0.238429
-0.00326157
-0.237611
-0.00532401
-0.236414
-0.00775382
-0.234748
-0.010658
-0.232512
-0.0140956
-0.229601
-0.0180709
-0.225919
-0.0225243
-0.221385
-0.0273473
-0.21598
-0.0323121
-0.209727
-0.0372152
-0.202673
-0.0419078
-0.194867
-0.0463307
-0.186381
-0.050392
-0.177284
-0.0540868
-0.167645
-0.0574147
-0.157509
-0.0604591
-0.146909
-0.0632629
-0.135875
-0.0658499
-0.124429
-0.0682099
-0.11262
-0.0702529
-0.100516
-0.071858
-0.0882158
-0.0728888
-0.0758447
-0.0732092
-0.0635521
-0.0727147
-0.0514958
-0.0713703
-0.0398252
-0.0692229
-0.0286637
-0.0664025
-0.0180945
-0.0631111
-0.00816184
-0.0595726
0.0011354
-0.0559505
0.00984989
-0.0527297
0.0180552
-0.0497212
0.025821
-0.0471281
0.0332353
-0.0450192
0.040382
-0.0433565
-0.0420761
-0.0316262
-0.021411
-0.0282945
-0.0228742
-0.0247823
-0.0241553
-0.0211199
-0.0252376
-0.017341
-0.0261073
-0.0134657
-0.0267874
-0.00951139
-0.0272816
-0.00550776
-0.0275501
-0.00149282
-0.0275562
0.00251066
-0.0273405
0.00642327
-0.0266921
0.0101837
-0.025661
0.0137352
-0.0242893
0.0170253
-0.0226192
0.0200112
-0.0207233
0.0226671
-0.0187114
0.0249908
-0.0167308
0.02701
-0.0149584
0.0287854
-0.0135849
0.0304094
-0.0127942
0.0320028
-0.0127382
0.0337042
-0.013511
0.0356569
-0.0151292
0.0379935
-0.0175231
0.0408206
-0.0205398
0.0442064
-0.0239586
0.0481728
-0.0275168
0.0526934
-0.0309435
0.0576987
-0.0339947
0.0630867
-0.0364852
0.0687382
-0.038312
0.0745343
-0.0394663
0.0803734
-0.0400288
0.0861832
-0.0401497
0.0919264
-0.040018
0.0976016
-0.0398286
0.103239
-0.0397489
0.108887
-0.0398892
0.114603
-0.0402844
0.120434
-0.0408892
0.126405
-0.0415876
0.13251
-0.0422144
0.13871
-0.0425856
0.144934
-0.0425294
0.151088
-0.0419144
0.157066
-0.0406671
0.162763
-0.0387785
0.168084
-0.0362997
0.172951
-0.033326
0.177311
-0.0299766
0.181132
-0.0263703
0.1844
-0.0226026
0.18711
-0.0187299
0.189258
-0.0147638
0.190831
-0.0106768
0.191804
-0.00641593
0.192138
-0.00191552
0.191787
0.00274671
0.19077
0.00758155
0.188973
0.0128124
0.186381
0.0181118
0.182996
0.0233733
0.178846
0.0284407
0.173987
0.0331529
0.168501
0.0373726
0.162486
0.0410089
0.156047
0.0440328
0.149281
0.0464826
0.142266
0.0484543
0.135056
0.0500853
0.127675
0.0515326
0.120121
0.0529414
0.112372
0.0544211
0.104396
0.0560256
0.0961669
0.0577437
0.0876613
0.0595148
0.0788525
0.0612512
0.0697687
0.062804
0.0604734
0.0640178
0.051051
0.0647633
0.0415999
0.0649571
0.0322208
0.0645755
0.0230058
0.0636586
0.0140273
0.0623059
0.00533251
0.0606575
-0.00307679
0.0589275
-0.0111956
0.0570925
-0.0190641
0.0555576
-0.0267412
0.0543532
-0.0342964
0.0535496
-0.0418019
0.0531643
-0.0493234
0.0531694
-0.0569145
0.0535006
-0.0646132
0.0540692
-0.0724404
0.0547734
-0.0803999
0.0555094
-0.0884795
0.0561785
-0.0966542
0.0566952
-0.104888
0.0569908
-0.113141
0.057021
-0.121368
0.0567508
-0.129517
0.0561608
-0.137533
0.0552548
-0.145362
0.0540522
-0.152963
0.0525955
-0.160302
0.0509339
-0.167359
0.0491293
-0.174123
0.0472404
-0.180595
0.0453233
-0.186781
0.0434195
-0.192696
0.0415437
-0.198348
0.0396838
-0.203743
0.0378048
-0.208875
0.0358469
-0.21372
0.0337358
-0.218241
0.031406
-0.222397
0.0288241
-0.226147
0.0259914
-0.229452
0.0229285
-0.232271
0.0196871
-0.234583
0.0163636
-0.236386
0.0130669
-0.237687
0.0098747
-0.238589
0.00698853
-0.239146
0.00447843
-0.239415
0.00230977
-0.239437
0.000401883
-0.239203
-0.00165623
-0.238721
-0.00374395
-0.23795
-0.00609485
-0.236819
-0.00888529
-0.235231
-0.0122457
-0.233076
-0.0162505
-0.230238
-0.020909
-0.22661
-0.0261521
-0.222094
-0.0318632
-0.216675
-0.0377308
-0.210388
-0.0435028
-0.203292
-0.0490041
-0.195431
-0.0541917
-0.186888
-0.0589347
-0.177737
-0.063238
-0.168057
-0.0670948
-0.157885
-0.0706313
-0.147253
-0.0738941
-0.136184
-0.0769192
-0.124692
-0.0797021
-0.112818
-0.0821263
-0.100632
-0.0840441
-0.0882311
-0.08529
-0.0757459
-0.0856944
-0.0633356
-0.0851251
-0.0511693
-0.0835365
-0.0394071
-0.0809851
-0.0281808
-0.0776288
-0.017577
-0.0737149
-0.00764243
-0.0695071
0.00163141
-0.0652243
0.0102975
-0.0613959
0.0184432
-0.0578669
0.0261458
-0.0548306
0.0334996
-0.052373
0.0405946
-0.0504515
-0.0489835
-0.03183
-0.0245642
-0.0284692
-0.026235
-0.0249291
-0.0276954
-0.0212398
-0.0289269
-0.0174368
-0.0299103
-0.0135351
-0.0306891
-0.009548
-0.0312687
-0.005506
-0.0315921
-0.00144899
-0.0316132
0.00260133
-0.0313908
0.00655923
-0.03065
0.0103641
-0.0294659
0.0139567
-0.0278819
0.0172796
-0.0259421
0.0202839
-0.0237275
0.0229375
-0.021365
0.0252338
-0.0190272
0.0271986
-0.0169232
0.028894
-0.0152803
0.030417
-0.0143173
0.0318959
-0.0142171
0.0334802
-0.0150952
0.0353252
-0.0169742
0.0375754
-0.0197733
0.040347
-0.0233115
0.0437143
-0.0273258
0.0477
-0.0315026
0.0522739
-0.0355174
0.0573577
-0.0390785
0.0628373
-0.0419648
0.0685799
-0.0440546
0.0744547
-0.0453411
0.0803522
-0.0459263
0.0861957
-0.0459931
0.0919468
-0.045769
0.0976075
-0.0454894
0.103215
-0.0453565
0.10883
-0.0455039
0.114519
-0.0459733
0.120339
-0.0467092
0.126322
-0.0475707
0.132465
-0.0483572
0.138725
-0.0488464
0.145028
-0.0488318
0.15127
-0.0481569
0.157339
-0.0467355
0.163119
-0.0445589
0.16851
-0.0416908
0.173432
-0.0382474
0.177829
-0.0343743
0.181675
-0.0302157
0.184959
-0.0258871
0.187684
-0.0214549
0.189851
-0.0169303
0.19145
-0.012276
0.192457
-0.0074228
0.192828
-0.00228693
0.192508
0.00306685
0.191507
0.00858261
0.189735
0.0145841
0.187144
0.020703
0.183737
0.026781
0.179541
0.0326365
0.174617
0.0380767
0.169053
0.0429366
0.162956
0.0471064
0.156438
0.0505502
0.149606
0.0533145
0.142546
0.0555151
0.135312
0.0573187
0.127929
0.0589154
0.120391
0.0604799
0.11267
0.0621419
0.104732
0.063964
0.0965275
0.0659478
0.0879967
0.0680456
0.0791391
0.0701087
0.0699909
0.0719522
0.0606166
0.0733921
0.0511056
0.0742743
0.0415637
0.074499
0.0321008
0.0740383
0.0228174
0.072942
0.0137928
0.0713305
0.00507848
0.0693718
-0.00332582
0.0673318
-0.0114175
0.0651841
-0.0192423
0.0633825
-0.026866
0.0619769
-0.0343654
0.0610489
-0.0418193
0.0606182
-0.0492988
0.0606489
-0.0568609
0.0610628
-0.0645458
0.061754
-0.072375
0.0626026
-0.0803534
0.0634878
-0.0884718
0.064297
-0.0967125
0.0649359
-0.105039
0.065317
-0.113381
0.0653634
-0.121676
0.0650456
-0.12987
0.0643547
-0.137916
0.0633009
-0.145768
0.0619048
-0.15339
0.0602173
-0.160748
0.0582917
-0.167822
0.0562028
-0.174598
0.0540168
-0.181078
0.0518035
-0.187272
0.0496132
-0.193192
0.0474643
-0.19885
0.0453413
-0.204247
0.0432018
-0.209379
0.0409792
-0.214223
0.0385796
-0.218743
0.0359259
-0.22291
0.0329907
-0.226683
0.0297644
-0.230013
0.0262588
-0.232841
0.022515
-0.235141
0.0186635
-0.236898
0.0148245
-0.238153
0.0111291
-0.239007
0.0078429
-0.239514
0.00498514
-0.239742
0.0025384
-0.239735
0.000394296
-0.239501
-0.00189052
-0.239048
-0.00419686
-0.238334
-0.006808
-0.237283
-0.00993666
-0.23579
-0.0137385
-0.233735
-0.0183055
-0.230989
-0.0236557
-0.22743
-0.029711
-0.222933
-0.0363604
-0.217494
-0.0431688
-0.211165
-0.0498323
-0.204019
-0.0561499
-0.196092
-0.0621189
-0.187482
-0.067545
-0.178267
-0.0724532
-0.16854
-0.0768217
-0.158327
-0.0808437
-0.147661
-0.0845599
-0.136555
-0.0880253
-0.12501
-0.0912474
-0.113063
-0.0940735
-0.10078
-0.0963268
-0.0882592
-0.0978108
-0.0756374
-0.0983162
-0.0630857
-0.0976768
-0.0507873
-0.0958349
-0.0389154
-0.092857
-0.0276118
-0.0889324
-0.0169674
-0.0843594
-0.00703198
-0.0794425
0.00221326
-0.0744696
0.0108197
-0.0700023
0.0188922
-0.0659395
0.0265181
-0.0624565
0.0337989
-0.0596538
0.0408326
-0.0574851
-0.0558446
-0.0320625
-0.027751
-0.0286694
-0.0296281
-0.0250994
-0.0312654
-0.0213803
-0.032646
-0.0175503
-0.0337403
-0.0136173
-0.0346221
-0.00959121
-0.0352948
-0.00550411
-0.0356792
-0.00139861
-0.0357187
0.00270407
-0.0354935
0.00671157
-0.0346575
0.0105659
-0.0333202
0.0142076
-0.0315235
0.0175724
-0.029307
0.0206023
-0.0267574
0.0232575
-0.0240202
0.0255253
-0.021295
0.0274281
-0.0188259
0.0290293
-0.0168815
0.0304329
-0.015721
0.0317764
-0.0155606
0.0332219
-0.0165407
0.0349392
-0.0186914
0.0370869
-0.021921
0.039793
-0.0260176
0.043139
-0.0306717
0.0471488
-0.0355124
0.0517873
-0.0401559
0.0569654
-0.0442565
0.0625542
-0.0475536
0.0684043
-0.0499047
0.0743714
-0.0513082
0.0803374
-0.0518924
0.08622
-0.0518758
0.0919791
-0.0515281
0.0976205
-0.0511307
0.103191
-0.0509267
0.108762
-0.0510756
0.114416
-0.051627
0.120221
-0.0525139
0.126216
-0.0535664
0.132402
-0.0545432
0.138734
-0.0551785
0.145129
-0.0552265
0.151476
-0.0545036
0.15765
-0.0529093
0.163527
-0.0504365
0.169
-0.0471636
0.173983
-0.0432307
0.178423
-0.0388137
0.182294
-0.0340868
0.185595
-0.0291879
0.188334
-0.0241948
0.190521
-0.019117
0.19215
-0.0139046
0.193196
-0.00846902
0.193613
-0.00270431
0.193337
0.00334337
0.192353
0.00956592
0.190605
0.0163326
0.188016
0.0232917
0.184583
0.0302146
0.180334
0.0368853
0.175334
0.0430764
0.169678
0.0485923
0.163483
0.0533012
0.156874
0.0571596
0.149966
0.0602224
0.142853
0.0626279
0.135596
0.0645766
0.128216
0.0662953
0.120705
0.0679905
0.113033
0.0698144
0.105135
0.0718617
0.0969209
0.0741618
0.0883604
0.0766062
0.0794547
0.0790144
0.0702369
0.0811701
0.0607737
0.0828553
0.0511613
0.0838867
0.0415148
0.0841456
0.0319552
0.0835979
0.0225928
0.0823044
0.0135148
0.0804086
0.00477822
0.0781084
-0.00361845
0.0757285
-0.011676
0.0732417
-0.0194477
0.0711542
-0.0270073
0.0695366
-0.03444
0.0684816
-0.0418326
0.0680108
-0.0492631
0.0680793
-0.0567923
0.068592
-0.0644632
0.0694249
-0.0723015
0.070441
-0.0803182
0.0715044
-0.0885043
0.0724831
-0.0968025
0.0732341
-0.105158
0.0736722
-0.113524
0.0737301
-0.121855
0.0733762
-0.130092
0.0725916
-0.138184
0.071393
-0.146079
0.0697993
-0.153737