/*--------------------------------*- C++ -*----------------------------------*\
| =========                 |                                                 |
| \\      /  F ield         | OpenFOAM: The Open Source CFD Toolbox           |
|  \\    /   O peration     | Version:  v1912                                 |
|   \\  /    A nd           | Website:  www.openfoam.com                      |
|    \\/     M anipulation  |                                                 |
\*---------------------------------------------------------------------------*/
FoamFile
{
    version     2.0;
    format      ascii;
    class       volScalarField;
    location    "30";
    object      alpha.water;
}
// * * * * * * * * * * * * * * * * * * * * * * * * * * * * * * * * * * * * * //

dimensions      [0 0 0 0 0 0 0];


internalField   nonuniform List<scalar> 
14268
(
-2.49997e-64
-6.994e-66
-1.87112e-67
-4.79027e-69
-1.1741e-70
-2.7559e-72
-6.19581e-74
-1.33418e-75
-2.75158e-77
-5.43432e-79
-1.02761e-80
-1.86016e-82
-3.22277e-84
-5.34296e-86
-8.47484e-88
-1.28589e-89
-1.8661e-91
-2.58978e-93
-3.43662e-95
-4.36004e-97
-5.28805e-99
-6.13064e-101
-6.79333e-103
-7.1944e-105
-7.28133e-107
-7.04212e-109
-6.50802e-111
-5.74677e-113
-4.84849e-115
-3.90821e-117
-3.00966e-119
-2.21416e-121
-1.55607e-123
-1.04464e-125
-6.69874e-128
-4.10293e-130
-2.40021e-132
-1.34102e-134
-7.1553e-137
-3.64592e-139
-1.77398e-141
-8.24186e-144
-3.65606e-146
-1.5484e-148
-6.26054e-151
-2.41639e-153
-8.90276e-156
-3.1308e-158
-1.05082e-160
-3.36603e-163
-1.02894e-165
-3.00139e-168
-8.35371e-171
-2.21837e-173
-5.62029e-176
-1.35838e-178
-3.1318e-181
-6.88728e-184
-1.44462e-186
-2.88989e-189
-5.5132e-192
-1.00298e-194
-1.73985e-197
-2.87767e-200
-4.53782e-203
-6.82184e-206
-9.77631e-209
-1.33548e-211
-1.73884e-214
-2.1578e-217
-2.55191e-220
-2.87599e-223
-3.08852e-226
-3.16026e-229
-3.08087e-232
-2.86136e-235
-2.53155e-238
-2.13347e-241
-1.71253e-244
-1.30921e-247
-9.53172e-251
-6.60826e-254
-4.3624e-257
-2.7419e-260
-1.64072e-263
-9.34622e-267
-5.06786e-270
-2.61556e-273
-1.28475e-276
-6.0056e-280
-2.67139e-283
-1.13065e-286
-4.5529e-290
-1.74415e-293
-6.35593e-297
-2.2031e-300
-7.26292e-304
-2.27705e-307
-6.78858e-311
-1.92439e-314
-5.18656e-318
-1.05236e-321
0
0
0
0
0
0
0
0
0
0
0
0
0
0
0
0
0
0
0
0
0
0
0
0
0
0
0
0
0
0
0
0
0
0
0
0
0
0
0
0
0
0
0
0
0
0
0
0
-2.71621e-64
-7.64248e-66
-2.05351e-67
-5.27586e-69
-1.29746e-70
-3.05683e-72
-6.9039e-74
-1.49529e-75
-3.10609e-77
-6.18761e-79
-1.18176e-80
-2.163e-82
-3.79215e-84
-6.36471e-86
-1.0221e-87
-1.56966e-89
-2.30406e-91
-3.23126e-93
-4.32789e-95
-5.53435e-97
-6.75508e-99
-7.86824e-101
-8.74455e-103
-9.27168e-105
-9.37784e-107
-9.04787e-109
-8.32674e-111
-7.30943e-113
-6.12032e-115
-4.88825e-117
-3.72419e-119
-2.70661e-121
-1.87651e-123
-1.24116e-125
-7.83199e-128
-4.71528e-130
-2.70865e-132
-1.48467e-134
-7.76529e-137
-3.87575e-139
-1.84604e-141
-8.39138e-144
-3.64038e-146
-1.50729e-148
-5.95653e-151
-2.24673e-153
-8.08869e-156
-2.77961e-158
-9.11743e-161
-2.85461e-163
-8.5312e-166
-2.43366e-168
-6.62664e-171
-1.72229e-173
-4.27256e-176
-1.01165e-178
-2.28625e-181
-4.93117e-184
-1.01506e-186
-1.99404e-189
-3.73811e-192
-6.68689e-195
-1.14136e-197
-1.85877e-200
-2.88802e-203
-4.28072e-206
-6.05263e-209
-8.16295e-212
-1.05001e-214
-1.28808e-217
-1.50683e-220
-1.6808e-223
-1.78756e-226
-1.81241e-229
-1.75172e-232
-1.61378e-235
-1.41695e-238
-1.18564e-241
-9.45361e-245
-7.18202e-248
-5.19824e-251
-3.58414e-254
-2.3539e-257
-1.47239e-260
-8.771e-264
-4.9753e-267
-2.68715e-270
-1.38173e-273
-6.76351e-277
-3.15132e-280
-1.39746e-283
-5.89759e-287
-2.36837e-290
-9.04948e-294
-3.28967e-297
-1.13761e-300
-3.74197e-304
-1.17066e-307
-3.48292e-311
-9.85354e-315
-2.65055e-318
-4.05134e-322
0
0
0
0
0
0
0
0
0
0
0
0
0
0
0
0
0
0
0
0
0
0
0
0
0
0
0
0
0
0
0
0
0
0
0
0
0
0
0
0
0
0
0
0
0
0
0
0
-2.57796e-64
-7.57652e-66
-2.11819e-67
-5.63503e-69
-1.42687e-70
-3.43976e-72
-7.89633e-74
-1.72647e-75
-3.59592e-77
-7.13598e-79
-1.34947e-80
-2.43225e-82
-4.1789e-84
-6.84537e-86
-1.06926e-87
-1.59292e-89
-2.26362e-91
-3.06889e-93
-3.97012e-95
-4.90165e-97
-5.77659e-99
-6.49924e-101
-6.98211e-103
-7.1633e-105
-7.01956e-107
-6.57115e-109
-5.87719e-111
-5.02289e-113
-4.10249e-115
-3.20259e-117
-2.3898e-119
-1.70478e-121
-1.16267e-123
-7.58146e-126
-4.72699e-128
-2.81817e-130
-1.60661e-132
-8.75829e-135
-4.56555e-137
-2.27575e-139
-1.08467e-141
-4.94309e-144
-2.15377e-146
-8.97172e-149
-3.57266e-151
-1.35992e-153
-4.94767e-156
-1.72033e-158
-5.71616e-161
-1.8148e-163
-5.50477e-166
-1.59509e-168
-4.41487e-171
-1.16704e-173
-2.94604e-176
-7.10108e-179
-1.63416e-181
-3.59002e-184
-7.52804e-187
-1.50661e-189
-2.87742e-192
-5.24375e-195
-9.11734e-198
-1.51229e-200
-2.39274e-203
-3.6108e-206
-5.19655e-209
-7.13156e-212
-9.33185e-215
-1.16418e-217
-1.38453e-220
-1.56952e-223
-1.69579e-226
-1.74613e-229
-1.71333e-232
-1.60185e-235
-1.42685e-238
-1.2108e-241
-9.78716e-245
-7.53522e-248
-5.5252e-251
-3.85809e-254
-2.56525e-257
-1.62397e-260
-9.78765e-264
-5.61552e-267
-3.06671e-270
-1.59399e-273
-7.88476e-277
-3.71143e-280
-1.66227e-283
-7.08322e-287
-2.87135e-290
-1.10721e-293
-4.06083e-297
-1.41646e-300
-4.69846e-304
-1.48193e-307
-4.44404e-311
-1.26696e-314
-3.43361e-318
-5.82997e-322
0
0
0
0
0
0
0
0
0
0
0
0
0
0
0
0
0
0
0
0
0
0
0
0
0
0
0
0
0
0
0
0
0
0
0
0
0
0
0
0
0
0
0
0
0
0
0
0
-2.41606e-64
-7.15678e-66
-2.01037e-67
-5.35821e-69
-1.35575e-70
-3.25826e-72
-7.44137e-74
-1.61583e-75
-3.33746e-77
-6.5601e-79
-1.22762e-80
-2.18802e-82
-3.71567e-84
-6.01418e-86
-9.28138e-88
-1.36609e-89
-1.9182e-91
-2.57023e-93
-3.2871e-95
-4.01337e-97
-4.6789e-99
-5.20942e-101
-5.54007e-103
-5.62837e-105
-5.4632e-107
-5.0671e-109
-4.49124e-111
-3.80461e-113
-3.08059e-115
-2.38437e-117
-1.76426e-119
-1.24807e-121
-8.44166e-124
-5.4596e-126
-3.37647e-128
-1.99689e-130
-1.12942e-132
-6.10916e-135
-3.1604e-137
-1.56366e-139
-7.3992e-142
-3.34861e-144
-1.44934e-146
-5.99911e-149
-2.37461e-151
-8.98795e-154
-3.25281e-156
-1.12551e-158
-3.72301e-161
-1.17718e-163
-3.55749e-166
-1.02742e-168
-2.83529e-171
-7.47543e-174
-1.88279e-176
-4.52937e-179
-1.04059e-181
-2.2828e-184
-4.78123e-187
-9.55951e-190
-1.8243e-192
-3.32245e-195
-5.77389e-198
-9.57342e-201
-1.51425e-203
-2.28458e-206
-3.28731e-209
-4.51074e-212
-5.90168e-215
-7.36165e-218
-8.75383e-221
-9.92194e-224
-1.07183e-226
-1.1034e-229
-1.08239e-232
-1.01164e-235
-9.00786e-239
-7.64054e-242
-6.17294e-245
-4.74989e-248
-3.48063e-251
-2.4287e-254
-1.61357e-257
-1.02062e-260
-6.14552e-264
-3.52235e-267
-1.92152e-270
-9.97596e-274
-4.92859e-277
-2.31691e-280
-1.03627e-283
-4.40934e-287
-1.78473e-290
-6.87108e-294
-2.51591e-297
-8.76069e-301
-2.90079e-304
-9.13241e-308
-2.73342e-311
-7.77744e-315
-2.10345e-318
-3.06321e-322
0
0
0
0
0
0
0
0
0
0
0
0
0
0
0
0
0
0
0
0
0
0
0
0
0
0
0
0
0
0
0
0
0
0
0
0
0
0
0
0
0
0
0
0
0
0
0
0
-4.11963e-64
-1.18249e-65
-3.21134e-67
-8.25832e-69
-2.01265e-70
-4.65231e-72
-1.02081e-73
-2.12788e-75
-4.21717e-77
-7.95257e-79
-1.42805e-80
-2.44373e-82
-3.98801e-84
-6.21086e-86
-9.23683e-88
-1.3126e-89
-1.78325e-91
-2.31726e-93
-2.88134e-95
-3.4294e-97
-3.90808e-99
-4.26497e-101
-4.45797e-103
-4.46334e-105
-4.28058e-107
-3.93245e-109
-3.46041e-111
-2.91657e-113
-2.35433e-115
-1.82004e-117
-1.34733e-119
-9.55019e-122
-6.48121e-124
-4.21084e-126
-2.61885e-128
-1.55899e-130
-8.88229e-133
-4.843e-135
-2.52677e-137
-1.26134e-139
-6.02368e-142
-2.75171e-144
-1.20225e-146
-5.02324e-149
-2.0068e-151
-7.6646e-154
-2.79819e-156
-9.7634e-159
-3.2553e-161
-1.03701e-163
-3.15574e-166
-9.17248e-169
-2.54607e-171
-6.74822e-174
-1.70757e-176
-4.12458e-179
-9.50893e-182
-2.09208e-184
-4.39202e-187
-8.79706e-190
-1.68092e-192
-3.06366e-195
-5.32567e-198
-8.82876e-201
-1.39564e-203
-2.10356e-206
-3.02272e-209
-4.14062e-212
-5.40649e-215
-6.72839e-218
-7.9802e-221
-9.01957e-224
-9.71385e-227
-9.96767e-230
-9.74443e-233
-9.07495e-236
-8.05049e-239
-6.80227e-242
-5.474e-245
-4.19507e-248
-3.06141e-251
-2.12724e-254
-1.40731e-257
-8.86344e-261
-5.314e-264
-3.03256e-267
-1.64713e-270
-8.51422e-274
-4.18812e-277
-1.96026e-280
-8.72957e-284
-3.69842e-287
-1.49055e-290
-5.71406e-294
-2.08339e-297
-7.22415e-301
-2.38205e-304
-7.46836e-308
-2.22621e-311
-6.30864e-315
-1.69931e-318
-2.17389e-322
0
0
0
0
0
0
0
0
0
0
0
0
0
0
0
0
0
0
0
0
0
0
0
0
0
0
0
0
0
0
0
0
0
0
0
0
0
0
0
0
0
0
0
0
0
0
0
0
-5.72921e-64
-1.60633e-65
-4.26334e-67
-1.0721e-68
-2.55678e-70
-5.78782e-72
-1.24481e-73
-2.54603e-75
-4.95678e-77
-9.1943e-79
-1.6264e-80
-2.74615e-82
-4.42993e-84
-6.83304e-86
-1.00859e-87
-1.42564e-89
-1.9309e-91
-2.50714e-93
-3.12198e-95
-3.72923e-97
-4.27365e-99
-4.69863e-101
-4.95557e-103
-5.01287e-105
-4.8623e-107
-4.52096e-109
-4.02824e-111
-3.43834e-113
-2.81052e-115
-2.19933e-117
-1.64713e-119
-1.18026e-121
-8.08959e-124
-5.30246e-126
-3.32308e-128
-1.99084e-130
-1.13998e-132
-6.23823e-135
-3.26192e-137
-1.62962e-139
-7.77784e-142
-3.54611e-144
-1.5443e-146
-6.42343e-149
-2.5517e-151
-9.68031e-154
-3.5069e-156
-1.21313e-158
-4.00698e-161
-1.26365e-163
-3.80466e-166
-1.0936e-168
-3.00073e-171
-7.85964e-174
-1.96498e-176
-4.68887e-179
-1.06784e-181
-2.32085e-184
-4.8135e-187
-9.52621e-190
-1.79886e-192
-3.24085e-195
-5.57027e-198
-9.1331e-201
-1.42841e-203
-2.13081e-206
-3.03153e-209
-4.11311e-212
-5.32151e-215
-6.56476e-218
-7.72124e-221
-8.65768e-224
-9.25393e-227
-9.42806e-230
-9.15486e-233
-8.4718e-236
-7.47059e-239
-6.27697e-242
-5.02482e-245
-3.83201e-248
-2.78373e-251
-1.92611e-254
-1.26925e-257
-7.965e-261
-4.75939e-264
-2.70772e-267
-1.46656e-270
-7.56133e-274
-3.71069e-277
-1.73311e-280
-7.70318e-284
-3.25793e-287
-1.31098e-290
-5.01872e-294
-1.82761e-297
-6.33035e-301
-2.08534e-304
-6.53261e-308
-1.94587e-311
-5.51074e-315
-1.48352e-318
-1.58101e-322
0
0
0
0
0
0
0
0
0
0
0
0
0
0
0
0
0
0
0
0
0
0
0
0
0
0
0
0
0
0
0
0
0
0
0
0
0
0
0
0
0
0
0
0
0
0
0
0
-5.24459e-64
-1.43301e-65
-3.71651e-67
-9.15628e-69
-2.14461e-70
-4.77948e-72
-1.01434e-73
-2.05175e-75
-3.95904e-77
-7.29391e-79
-1.28415e-80
-2.16236e-82
-3.48531e-84
-5.38113e-86
-7.96347e-88
-1.13019e-89
-1.53884e-91
-2.01064e-93
-2.52127e-95
-3.03417e-97
-3.50377e-99
-3.88149e-101
-4.12376e-103
-4.20011e-105
-4.09947e-107
-3.83282e-109
-3.43132e-111
-2.94029e-113
-2.41075e-115
-1.89064e-117
-1.41787e-119
-1.01655e-121
-6.96607e-124
-4.5618e-126
-2.85434e-128
-1.70624e-130
-9.74298e-133
-5.31401e-135
-2.76822e-137
-1.37721e-139
-6.5434e-142
-2.96887e-144
-1.28632e-146
-5.32195e-149
-2.10253e-151
-7.9315e-154
-2.85696e-156
-9.82613e-159
-3.22687e-161
-1.01179e-163
-3.02905e-166
-8.6579e-169
-2.36266e-171
-6.1554e-174
-1.53097e-176
-3.63507e-179
-8.23909e-182
-1.78256e-184
-3.68117e-187
-7.25571e-190
-1.3649e-192
-2.45032e-195
-4.19772e-198
-6.86188e-201
-1.07023e-203
-1.59252e-206
-2.26061e-209
-3.061e-212
-3.95331e-215
-4.86943e-218
-5.71971e-221
-6.4063e-224
-6.84123e-227
-6.96486e-230
-6.75924e-233
-6.2524e-236
-5.51205e-239
-4.63076e-242
-3.70697e-245
-2.82726e-248
-2.05423e-251
-1.42174e-254
-9.37206e-258
-5.88363e-261
-3.51727e-264
-2.00202e-267
-1.08489e-270
-5.59649e-274
-2.74794e-277
-1.28415e-280
-5.71073e-284
-2.41652e-287
-9.72892e-291
-3.72622e-294
-1.35754e-297
-4.70405e-301
-1.55017e-304
-4.85766e-308
-1.44733e-311
-4.09973e-315
-1.104e-318
-2.96439e-323
0
0
0
0
0
0
0
0
0
0
0
0
0
0
0
0
0
0
0
0
0
0
0
0
0
0
0
0
0
0
0
0
0
0
0
0
0
0
0
0
0
0
0
0
0
0
0
0
-3.51799e-64
-9.47602e-66
-2.42617e-67
-5.90967e-69
-1.37068e-70
-3.02989e-72
-6.38894e-74
-1.28627e-75
-2.47473e-77
-4.55398e-79
-8.0219e-81
-1.35366e-82
-2.18962e-84
-3.39687e-86
-5.05605e-88
-7.22216e-90
-9.90112e-92
-1.30269e-93
-1.64462e-95
-1.99176e-97
-2.31315e-99
-2.57512e-101
-2.74684e-103
-2.80627e-105
-2.74478e-107
-2.56921e-109
-2.30067e-111
-1.97032e-113
-1.61334e-115
-1.26276e-117
-9.44576e-120
-6.75154e-122
-4.61066e-124
-3.00795e-126
-1.87453e-128
-1.11584e-130
-6.34431e-133
-3.44527e-135
-1.78695e-137
-8.85218e-140
-4.18827e-142
-1.89264e-144
-8.16867e-147
-3.36737e-149
-1.32583e-151
-4.98588e-154
-1.79085e-156
-6.14382e-159
-2.01315e-161
-6.30042e-164
-1.88325e-166
-5.37633e-169
-1.46585e-171
-3.8168e-174
-9.49078e-177
-2.25358e-179
-5.10964e-182
-1.10618e-184
-2.28636e-187
-4.51151e-190
-8.49802e-193
-1.52791e-195
-2.62191e-198
-4.29379e-201
-6.71e-204
-1.0005e-206
-1.42326e-209
-1.9314e-212
-2.49997e-215
-3.0862e-218
-3.63323e-221
-4.0784e-224
-4.36484e-227
-4.45325e-230
-4.3308e-233
-4.01414e-236
-3.54567e-239
-2.98428e-242
-2.39313e-245
-1.82823e-248
-1.3304e-251
-9.22095e-255
-6.08641e-258
-3.82553e-261
-2.28939e-264
-1.30436e-267
-7.07426e-271
-3.65191e-274
-1.7942e-277
-8.38849e-281
-3.73177e-284
-1.57949e-287
-6.35983e-291
-2.43586e-294
-8.87343e-298
-3.0741e-301
-1.01271e-304
-3.17209e-308
-9.44616e-312
-2.67403e-315
-7.19384e-319
0
0
0
0
0
0
0
0
0
0
0
0
0
0
0
0
0
0
0
0
0
0
0
0
0
0
0
0
0
0
0
0
0
0
0
0
0
0
0
0
0
0
0
0
0
0
0
0
0
-1.93261e-64
-5.17113e-66
-1.31665e-67
-3.19345e-69
-7.38618e-71
-1.63082e-72
-3.4408e-74
-6.9439e-76
-1.34162e-77
-2.48361e-79
-4.40818e-81
-7.50559e-83
-1.22635e-84
-1.92325e-86
-2.89505e-88
-4.18238e-90
-5.79737e-92
-7.70776e-94
-9.82513e-96
-1.20024e-97
-1.40449e-99
-1.5736e-101
-1.6874e-103
-1.7311e-105
-1.69847e-107
-1.59332e-109
-1.42873e-111
-1.22436e-113
-1.00257e-115
-7.84357e-118
-5.86228e-120
-4.1855e-122
-2.85457e-124
-1.85969e-126
-1.15731e-128
-6.87969e-131
-3.90675e-133
-2.11934e-135
-1.09835e-137
-5.43823e-140
-2.57255e-142
-1.16273e-144
-5.02128e-147
-2.07198e-149
-8.16966e-152
-3.07803e-154
-1.10815e-156
-3.81219e-159
-1.25314e-161
-3.93604e-164
-1.18125e-166
-3.38704e-169
-9.27844e-172
-2.42814e-174
-6.06995e-177
-1.44934e-179
-3.30511e-182
-7.19763e-185
-1.4967e-187
-2.97146e-190
-5.63178e-193
-1.01884e-195
-1.75914e-198
-2.89849e-201
-4.55684e-204
-6.83471e-207
-9.7788e-210
-1.33446e-212
-1.73668e-215
-2.15515e-218
-2.5499e-221
-2.87609e-224
-3.09217e-227
-3.16849e-230
-3.09399e-233
-2.87879e-236
-2.55199e-239
-2.15513e-242
-1.7336e-245
-1.32816e-248
-9.69035e-252
-6.7323e-255
-4.45326e-258
-2.80438e-261
-1.6811e-264
-9.59195e-268
-5.2087e-271
-2.69164e-274
-1.3235e-277
-6.19171e-281
-2.75568e-284
-1.16664e-287
-4.69774e-291
-1.79905e-294
-6.5517e-298
-2.26871e-301
-7.46919e-305
-2.33772e-308
-6.95494e-312
-1.96666e-315
-5.28413e-319
0
0
0
0
0
0
0
0
0
0
0
0
0
0
0
0
0
0
0
0
0
0
0
0
0
0
0
0
0
0
0
0
0
0
0
0
0
0
0
0
0
0
0
0
0
0
0
0
0
-9.34484e-65
-2.49779e-66
-6.36257e-68
-1.54656e-69
-3.59168e-71
-7.97856e-73
-1.69708e-74
-3.45951e-76
-6.76354e-78
-1.26884e-79
-2.2848e-81
-3.94951e-83
-6.55329e-85
-1.0435e-86
-1.59399e-88
-2.33478e-90
-3.27761e-92
-4.40756e-94
-5.67486e-96
-6.99236e-98
-8.2418e-100
-9.28948e-102
-1.00091e-103
-1.03068e-105
-1.01412e-107
-9.5329e-110
-8.56018e-112
-7.3423e-114
-6.0153e-116
-4.70711e-118
-3.51827e-120
-2.51188e-122
-1.71311e-124
-1.11613e-126
-6.94734e-129
-4.13171e-131
-2.34791e-133
-1.27499e-135
-6.6167e-138
-3.28179e-140
-1.55576e-142
-7.04953e-145
-3.05336e-147
-1.26418e-149
-5.00328e-152
-1.89285e-154
-6.8452e-157
-2.36618e-159
-7.81773e-162
-2.46863e-164
-7.44972e-167
-2.14829e-169
-5.91928e-172
-1.55819e-174
-3.91827e-177
-9.41098e-180
-2.15865e-182
-4.72799e-185
-9.88681e-188
-1.9736e-190
-3.76028e-193
-6.83722e-196
-1.18624e-198
-1.96353e-201
-3.10037e-204
-4.66919e-207
-6.70597e-210
-9.18368e-213
-1.19909e-215
-1.49249e-218
-1.77068e-221
-2.00212e-224
-2.15728e-227
-2.21483e-230
-2.16644e-233
-2.01871e-236
-1.79174e-239
-1.51463e-242
-1.21934e-245
-9.34722e-249
-6.82239e-252
-4.74072e-255
-3.1359e-258
-1.97446e-261
-1.18321e-264
-6.74776e-268
-3.66184e-271
-1.89078e-274
-9.28841e-278
-4.34071e-281
-1.92955e-284
-8.15807e-288
-3.28029e-291
-1.25426e-294
-4.5601e-298
-1.57626e-301
-5.17974e-305
-1.61797e-308
-4.80367e-312
-1.35542e-315
-3.63356e-319
0
0
0
0
0
0
0
0
0
0
0
0
0
0
0
0
0
0
0
0
0
0
0
0
0
0
0
0
0
0
0
0
0
0
0
0
0
0
0
0
0
0
0
0
0
0
0
0
0
-4.16411e-65
-1.11881e-66
-2.87083e-68
-7.04512e-70
-1.65551e-71
-3.72884e-73
-8.05657e-75
-1.67061e-76
-3.32548e-78
-6.35451e-80
-1.16537e-81
-2.0504e-83
-3.45929e-85
-5.59332e-87
-8.66236e-89
-1.28422e-90
-1.82161e-92
-2.47102e-94
-3.20426e-96
-3.97068e-98
-4.70077e-100
-5.31557e-102
-5.74043e-104
-5.91982e-106
-5.82935e-108
-5.48115e-110
-4.92122e-112
-4.21931e-114
-3.45469e-116
-2.70155e-118
-2.01788e-120
-1.43981e-122
-9.81501e-125
-6.39303e-127
-3.97926e-129
-2.36717e-131
-1.34596e-133
-7.31572e-136
-3.80136e-138
-1.88847e-140
-8.97005e-143
-4.07389e-145
-1.76914e-147
-7.34606e-150
-2.91659e-152
-1.10715e-154
-4.01815e-157
-1.39411e-159
-4.62363e-162
-1.46566e-164
-4.44013e-167
-1.28533e-169
-3.55488e-172
-9.39219e-175
-2.37013e-177
-5.71179e-180
-1.31432e-182
-2.88726e-185
-6.05427e-188
-1.2116e-190
-2.31375e-193
-4.21564e-196
-7.32721e-199
-1.21474e-201
-1.92058e-204
-2.89556e-207
-4.16223e-210
-5.70373e-213
-7.4504e-216
-9.27547e-219
-1.10047e-221
-1.24412e-224
-1.3401e-227
-1.37517e-230
-1.34425e-233
-1.25158e-236
-1.10983e-239
-9.37188e-243
-7.53579e-246
-5.76928e-249
-4.20499e-252
-2.91755e-255
-1.92683e-258
-1.21115e-261
-7.24509e-265
-4.12422e-268
-2.23383e-271
-1.15115e-274
-5.6435e-278
-2.63182e-281
-1.1674e-284
-4.92486e-288
-1.9758e-291
-7.53744e-295
-2.734e-298
-9.42807e-302
-3.0907e-305
-9.63076e-309
-2.85226e-312
-8.02793e-316
-2.14454e-319
0
0
0
0
0
0
0
0
0
0
0
0
0
0
0
0
0
0
0
0
0
0
0
0
0
0
0
0
0
0
0
0
0
0
0
0
0
0
0
0
0
0
0
0
0
0
0
0
0
-1.7691e-65
-4.81535e-67
-1.25469e-68
-3.13319e-70
-7.50468e-72
-1.72499e-73
-3.80557e-75
-8.057e-77
-1.63641e-78
-3.18675e-80
-5.94671e-82
-1.06266e-83
-1.81727e-85
-2.97232e-87
-4.64722e-89
-6.94247e-91
-9.90599e-93
-1.34964e-94
-1.75542e-96
-2.17932e-98
-2.58226e-100
-2.92011e-102
-3.15154e-104
-3.24629e-106
-3.19172e-108
-2.99557e-110
-2.68412e-112
-2.29643e-114
-1.87628e-116
-1.4642e-118
-1.09154e-120
-7.77459e-123
-5.29164e-125
-3.44226e-127
-2.14043e-129
-1.2724e-131
-7.23207e-134
-3.93062e-136
-2.04294e-138
-1.01549e-140
-4.8276e-143
-2.19499e-145
-9.54491e-148
-3.9695e-150
-1.57869e-152
-6.00374e-155
-2.18306e-157
-7.58894e-160
-2.52178e-162
-8.00909e-165
-2.43075e-167
-7.04872e-170
-1.95263e-172
-5.16649e-175
-1.30546e-177
-3.14956e-180
-7.25411e-183
-1.59475e-185
-3.34586e-188
-6.69825e-191
-1.27935e-193
-2.33092e-196
-4.05056e-199
-6.71265e-202
-1.06074e-204
-1.5981e-207
-2.29525e-210
-3.14221e-213
-4.09987e-216
-5.09787e-219
-6.04013e-222
-6.81864e-225
-7.33331e-228
-7.51297e-231
-7.33147e-234
-6.81393e-237
-6.03103e-240
-5.08316e-243
-4.07929e-246
-3.11679e-249
-2.26705e-252
-1.56967e-255
-1.03446e-258
-6.48839e-262
-3.87293e-265
-2.19981e-268
-1.18887e-271
-6.11292e-275
-2.99014e-278
-1.3913e-281
-6.15747e-285
-2.59175e-288
-1.03742e-291
-3.94867e-295
-1.42901e-298
-4.9167e-302
-1.60813e-305
-4.99963e-309
-1.47735e-312
-4.14871e-316
-1.10478e-319
0
0
0
0
0
0
0
0
0
0
0
0
0
0
0
0
0
0
0
0
0
0
0
0
0
0
0
0
0
0
0
0
0
0
0
0
0
0
0
0
0
0
0
0
0
0
0
0
0
-7.39257e-66
-2.05429e-67
-5.47251e-69
-1.39827e-70
-3.42708e-72
-8.05543e-74
-1.81503e-75
-3.91775e-77
-8.0955e-79
-1.60028e-80
-3.02413e-82
-5.46008e-84
-9.41386e-86
-1.54927e-87
-2.43297e-89
-3.64495e-91
-5.20867e-93
-7.09906e-95
-9.22784e-97
-1.14402e-98
-1.35277e-100
-1.52587e-102
-1.64197e-104
-1.68591e-106
-1.65194e-108
-1.54499e-110
-1.37948e-112
-1.17612e-114
-9.57684e-117
-7.44939e-119
-5.53652e-121
-3.93241e-123
-2.66974e-125
-1.73279e-127
-1.07538e-129
-6.38227e-132
-3.62278e-134
-1.96698e-136
-1.0216e-138
-5.07578e-141
-2.4125e-143
-1.0969e-145
-4.77068e-148
-1.98462e-150
-7.89615e-153
-3.0043e-155
-1.09295e-157
-3.80124e-160
-1.2637e-162
-4.01495e-165
-1.21888e-167
-3.53511e-170
-9.79333e-173
-2.59098e-175
-6.54527e-178
-1.5785e-180
-3.63363e-183
-7.98266e-186
-1.67339e-188
-3.34673e-191
-6.38497e-194
-1.16185e-196
-2.01623e-199
-3.33634e-202
-5.26368e-205
-7.91677e-208
-1.135e-210
-1.55092e-213
-2.01968e-216
-2.50628e-219
-2.9634e-222
-3.33828e-225
-3.5825e-228
-3.66221e-231
-3.56577e-234
-3.30658e-237
-2.92e-240
-2.45542e-243
-1.96595e-246
-1.4986e-249
-1.0875e-252
-7.51213e-256
-4.93917e-259
-3.09075e-262
-1.84058e-265
-1.04302e-268
-5.62389e-272
-2.88504e-275
-1.40799e-278
-6.53643e-282
-2.88628e-285
-1.21214e-288
-4.84113e-292
-1.83857e-295
-6.63914e-299
-2.27931e-302
-7.439e-306
-2.30783e-309
-6.80504e-313
-1.90701e-316
-5.06516e-320
0
0
0
0
0
0
0
0
0
0
0
0
0
0
0
0
0
0
0
0
0
0
0
0
0
0
0
0
0
0
0
0
0
0
0
0
0
0
0
0
0
0
0
0
0
0
0
0
0
-3.1157e-66
-8.87557e-68
-2.42264e-69
-6.33478e-71
-1.58603e-72
-3.7996e-74
-8.70358e-76
-1.90493e-77
-3.98105e-79
-7.93968e-81
-1.51041e-82
-2.73975e-84
-4.73741e-86
-7.8074e-88
-1.22621e-89
-1.83528e-91
-2.61776e-93
-3.5586e-95
-4.611e-97
-5.69563e-99
-6.70799e-101
-7.53408e-103
-8.07134e-105
-8.24967e-107
-8.04648e-109
-7.49135e-111
-6.65899e-113
-5.65276e-115
-4.5838e-117
-3.55151e-119
-2.62982e-121
-1.8615e-123
-1.25984e-125
-8.15393e-128
-5.04767e-130
-2.98915e-132
-1.6935e-134
-9.17985e-137
-4.76124e-139
-2.36289e-141
-1.122e-143
-5.09742e-146
-2.21552e-148
-9.21133e-151
-3.66296e-153
-1.39296e-155
-5.06489e-158
-1.76056e-160
-5.84918e-163
-1.85705e-165
-5.63315e-168
-1.63228e-170
-4.5172e-173
-1.19371e-175
-3.01161e-178
-7.25272e-181
-1.66698e-183
-3.65609e-186
-7.65063e-189
-1.52724e-191
-2.90797e-194
-5.28065e-197
-9.14419e-200
-1.50978e-202
-2.37652e-205
-3.56601e-208
-5.10027e-211
-6.95231e-214
-9.03125e-217
-1.11791e-219
-1.31848e-222
-1.48149e-225
-1.58582e-228
-1.61694e-231
-1.57032e-234
-1.45243e-237
-1.27933e-240
-1.07303e-243
-8.56936e-247
-6.51563e-250
-4.71628e-253
-3.2497e-256
-2.13133e-259
-1.33041e-262
-7.90335e-266
-4.46779e-269
-2.40321e-272
-1.22991e-275
-5.98822e-279
-2.77351e-282
-1.22188e-285
-5.11988e-289
-2.04024e-292
-7.73137e-296
-2.78577e-299
-9.54346e-303
-3.10814e-306
-9.62251e-310
-2.83157e-313
-7.91913e-317
-2.07606e-320
0
0
0
0
0
0
0
0
0
0
0
0
0
0
0
0
0
0
0
0
0
0
0
0
0
0
0
0
0
0
0
0
0
0
0
0
0
0
0
0
0
0
0
0
0
0
0
0
0
-8.45388e-67
-2.47418e-68
-6.9177e-70
-1.84665e-71
-4.70354e-73
-1.1424e-74
-2.64449e-76
-5.83184e-78
-1.22481e-79
-2.44926e-81
-4.66275e-83
-8.45022e-85
-1.45786e-86
-2.39449e-88
-3.74461e-90
-5.57651e-92
-7.90965e-94
-1.06876e-95
-1.37603e-97
-1.68852e-99
-1.97528e-101
-2.20348e-103
-2.34463e-105
-2.38039e-107
-2.30653e-109
-2.13371e-111
-1.88499e-113
-1.59076e-115
-1.28277e-117
-9.88702e-120
-7.28557e-122
-5.13393e-124
-3.46033e-126
-2.23126e-128
-1.37662e-130
-8.12759e-133
-4.5923e-135
-2.48334e-137
-1.28524e-139
-6.36593e-142
-3.01743e-144
-1.36857e-146
-5.93881e-149
-2.46528e-151
-9.788e-154
-3.71622e-156
-1.34898e-158
-4.68076e-161
-1.5522e-163
-4.91821e-166
-1.48871e-168
-4.30396e-171
-1.18823e-173
-3.13205e-176
-7.88088e-179
-1.89264e-181
-4.33748e-184
-9.48464e-187
-1.97859e-189
-3.93717e-192
-7.47226e-195
-1.3524e-197
-2.33398e-200
-3.84042e-203
-6.02427e-206
-9.00808e-209
-1.28387e-211
-1.74392e-214
-2.25743e-217
-2.78449e-220
-3.27251e-223
-3.66425e-226
-3.90861e-229
-3.97152e-232
-3.84373e-235
-3.54304e-238
-3.11022e-241
-2.59995e-244
-2.06947e-247
-1.56835e-250
-1.13157e-253
-7.77205e-257
-5.08128e-260
-3.16198e-263
-1.87265e-266
-1.05543e-269
-5.66033e-273
-2.8884e-276
-1.40229e-279
-6.47663e-283
-2.84545e-286
-1.18906e-289
-4.72579e-293
-1.78616e-296
-6.41951e-300
-2.19372e-303
-7.12718e-307
-2.20126e-310
-6.46248e-314
-1.80328e-317
-4.64422e-321
0
0
0
0
0
0
0
0
0
0
0
0
0
0
0
0
0
0
0
0
0
0
0
0
0
0
0
0
0
0
0
0
0
0
0
0
0
0
0
0
0
0
0
0
0
0
0
0
0
-2.40974e-67
-7.16938e-69
-2.03085e-70
-5.47493e-72
-1.4042e-73
-3.42542e-75
-7.94615e-77
-1.75275e-78
-3.67616e-80
-7.33168e-82
-1.39056e-83
-2.50854e-85
-4.30499e-87
-7.0297e-89
-1.09248e-90
-1.61629e-92
-2.27701e-94
-3.05544e-96
-3.9064e-98
-4.75998e-100
-5.52964e-102
-6.12619e-104
-6.47485e-106
-6.5307e-108
-6.28819e-110
-5.78193e-112
-5.0786e-114
-4.26264e-116
-3.41988e-118
-2.62342e-120
-1.92471e-122
-1.35085e-124
-9.07157e-127
-5.82999e-129
-3.58608e-131
-2.11143e-133
-1.19003e-135
-6.42049e-138
-3.31581e-140
-1.63904e-142
-7.75387e-145
-3.5101e-147
-1.52027e-149
-6.29854e-152
-2.49571e-154
-9.45561e-157
-3.42481e-159
-1.18561e-161
-3.92206e-164
-1.23954e-166
-3.74194e-169
-1.07879e-171
-2.9696e-174
-7.80383e-177
-1.95746e-179
-4.68581e-182
-1.07034e-184
-2.33259e-187
-4.84933e-190
-9.61609e-193
-1.8186e-195
-3.27982e-198
-5.64016e-201
-9.24734e-204
-1.44539e-206
-2.15356e-209
-3.05838e-212
-4.13954e-215
-5.33952e-218
-6.56305e-221
-7.68647e-224
-8.57693e-227
-9.1177e-230
-9.23322e-233
-8.90639e-236
-8.1827e-239
-7.15986e-242
-5.96612e-245
-4.73395e-248
-3.57656e-251
-2.57268e-254
-1.76176e-257
-1.14846e-260
-7.12614e-264
-4.20854e-267
-2.36543e-270
-1.26518e-273
-6.4391e-277
-3.11809e-280
-1.43651e-283
-6.2957e-287
-2.62458e-290
-1.04068e-293
-3.92442e-297
-1.40733e-300
-4.79891e-304
-1.55586e-307
-4.79559e-311
-1.40513e-314
-3.91326e-318
-8.79437e-322
0
0
0
0
0
0
0
0
0
0
0
0
0
0
0
0
0
0
0
0
0
0
0
0
0
0
0
0
0
0
0
0
0
0
0
0
0
0
0
0
0
0
0
0
0
0
0
0
0
-7.00238e-68
-2.09823e-69
-5.9709e-71
-1.6135e-72
-4.14033e-74
-1.00893e-75
-2.33506e-77
-5.13353e-79
-1.07228e-80
-2.12852e-82
-4.01647e-84
-7.20673e-86
-1.22998e-87
-1.9974e-89
-3.08743e-91
-4.54417e-93
-6.37093e-95
-8.51172e-97
-1.08413e-98
-1.31698e-100
-1.52654e-102
-1.68914e-104
-1.78508e-106
-1.80254e-108
-1.74003e-110
-1.60645e-112
-1.4191e-114
-1.19998e-116
-9.71641e-119
-7.53627e-121
-5.60068e-123
-3.98882e-125
-2.72285e-127
-1.78158e-129
-1.11732e-131
-6.71583e-134
-3.8682e-136
-2.13458e-138
-1.12823e-140
-5.71004e-143
-2.7663e-145
-1.28244e-147
-5.68722e-150
-2.41184e-152
-9.77776e-155
-3.78822e-157
-1.4022e-159
-4.95722e-162
-1.67344e-164
-5.39285e-167
-1.6587e-169
-4.86817e-172
-1.36312e-174
-3.6408e-177
-9.27437e-180
-2.25285e-182
-5.21776e-185
-1.15208e-187
-2.42482e-190
-4.86439e-193
-9.29997e-196
-1.69434e-198
-2.94132e-201
-4.86486e-204
-7.66564e-207
-1.15065e-209
-1.64519e-212
-2.24045e-215
-2.90584e-218
-3.58914e-221
-4.22144e-224
-4.72772e-227
-5.04117e-230
-5.11765e-233
-4.94581e-236
-4.5499e-239
-3.98413e-242
-3.32049e-245
-2.63376e-248
-1.98804e-251
-1.42796e-254
-9.7594e-258
-6.34615e-261
-3.92597e-264
-2.31048e-267
-1.29343e-270
-6.88712e-274
-3.48781e-277
-1.67979e-280
-7.69332e-284
-3.35037e-287
-1.38727e-290
-5.46109e-294
-2.0437e-297
-7.27008e-301
-2.45816e-304
-7.89939e-308
-2.41243e-311
-7.00094e-315
-1.93035e-318
-3.45846e-322
0
0
0
0
0
0
0
0
0
0
0
0
0
0
0
0
0
0
0
0
0
0
0
0
0
0
0
0
0
0
0
0
0
0
0
0
0
0
0
0
0
0
0
0
0
0
0
0
0
-2.03003e-68
-6.09183e-70
-1.73341e-71
-4.67804e-73
-1.1977e-74
-2.91002e-76
-6.71208e-78
-1.47027e-79
-3.05984e-81
-6.05271e-83
-1.13855e-84
-2.03762e-86
-3.47124e-88
-5.63217e-90
-8.70857e-92
-1.28398e-93
-1.8063e-95
-2.42617e-97
-3.11349e-99
-3.81999e-101
-4.48393e-103
-5.03875e-105
-5.42398e-107
-5.59609e-109
-5.53641e-111
-5.25422e-113
-4.7845e-115
-4.18091e-117
-3.50601e-119
-2.82107e-121
-2.17759e-123
-1.61199e-125
-1.14393e-127
-7.77863e-130
-5.06596e-132
-3.15839e-134
-1.88412e-136
-1.07494e-138
-5.86274e-141
-3.0555e-143
-1.52113e-145
-7.23108e-148
-3.28141e-150
-1.42109e-152
-5.87188e-155
-2.31439e-157
-8.70001e-160
-3.11855e-162
-1.06579e-164
-3.47232e-167
-1.07831e-169
-3.19156e-172
-9.00229e-175
-2.41968e-177
-6.197e-180
-1.51215e-182
-3.51534e-185
-7.78521e-188
-1.6424e-190
-3.30039e-193
-6.31693e-196
-1.15153e-198
-1.99919e-201
-3.30533e-204
-5.20396e-207
-7.80171e-210
-1.11367e-212
-1.51361e-215
-1.95856e-218
-2.41269e-221
-2.82932e-224
-3.15831e-227
-3.3558e-230
-3.39375e-233
-3.26647e-236
-2.99205e-239
-2.60809e-242
-2.16328e-245
-1.70731e-248
-1.28201e-251
-9.15852e-255
-6.22419e-258
-4.02379e-261
-2.4743e-264
-1.44712e-267
-8.04933e-271
-4.25783e-274
-2.1417e-277
-1.02432e-280
-4.65792e-284
-2.01368e-287
-8.2756e-291
-3.23284e-294
-1.20036e-297
-4.23588e-301
-1.42052e-304
-4.52678e-308
-1.37066e-311
-3.94306e-315
-1.07756e-318
-1.63042e-322
0
0
0
0
0
0
0
0
0
0
0
0
0
0
0
0
0
0
0
0
0
0
0
0
0
0
0
0
0
0
0
0
0
0
0
0
0
0
0
0
0
0
0
0
0
0
0
0
0
-5.81059e-69
-1.7424e-70
-4.95109e-72
-1.33382e-73
-3.40854e-75
-8.26729e-77
-1.90434e-78
-4.16862e-80
-8.6775e-82
-1.71895e-83
-3.24278e-85
-5.83041e-87
-9.99907e-89
-1.63705e-90
-2.56078e-92
-3.83054e-94
-5.4838e-96
-7.51921e-98
-9.88176e-100
-1.24545e-101
-1.50608e-103
-1.74798e-105
-1.94743e-107
-2.08265e-109
-2.13765e-111
-2.1052e-113
-1.98844e-115
-1.80048e-117
-1.56203e-119
-1.29769e-121
-1.0318e-123
-7.84744e-126
-5.70619e-128
-3.96504e-130
-2.63176e-132
-1.66793e-134
-1.00901e-136
-5.82471e-139
-3.20776e-141
-1.68494e-143
-8.43998e-146
-4.03088e-148
-1.83528e-150
-7.96516e-153
-3.29484e-155
-1.29892e-157
-4.87981e-160
-1.74691e-162
-5.95881e-165
-1.93661e-167
-5.99651e-170
-1.76892e-172
-4.97111e-175
-1.33081e-177
-3.39372e-180
-8.24365e-183
-1.90734e-185
-4.20326e-188
-8.82218e-191
-1.76352e-193
-3.35725e-196
-6.08647e-199
-1.05078e-201
-1.72742e-204
-2.70401e-207
-4.03019e-210
-5.71909e-213
-7.72668e-216
-9.93808e-219
-1.21684e-221
-1.41828e-224
-1.57351e-227
-1.66161e-230
-1.67001e-233
-1.59739e-236
-1.45407e-239
-1.25954e-242
-1.03817e-245
-8.14182e-249
-6.07505e-252
-4.31244e-255
-2.91215e-258
-1.87064e-261
-1.14295e-264
-6.64184e-268
-3.67069e-271
-1.92918e-274
-9.64122e-278
-4.58134e-281
-2.06976e-284
-8.88965e-288
-3.62952e-291
-1.40858e-294
-5.1957e-298
-1.82139e-301
-6.0677e-305
-1.92074e-308
-5.77699e-312
-1.65076e-315
-4.48063e-319
0
0
0
0
0
0
0
0
0
0
0
0
0
0
0
0
0
0
0
0
0
0
0
0
0
0
0
0
0
0
0
0
0
0
0
0
0
0
0
0
0
0
0
0
0
0
0
0
0
0
-1.63979e-69
-4.91673e-71
-1.39723e-72
-3.7662e-74
-9.63712e-76
-2.34302e-77
-5.41726e-79
-1.19226e-80
-2.50015e-82
-5.0003e-84
-9.54757e-86
-1.74213e-87
-3.04067e-89
-5.08088e-91
-8.13439e-93
-1.24856e-94
-1.83824e-96
-2.59682e-98
-3.52038e-100
-4.57955e-102
-5.71553e-104
-6.84133e-106
-7.85022e-108
-8.63089e-110
-9.08697e-112
-9.1564e-114
-8.82531e-116
-8.13213e-118
-7.16035e-120
-6.02182e-122
-4.83519e-124
-3.70546e-126
-2.70946e-128
-1.88985e-130
-1.25712e-132
-7.97366e-135
-4.8217e-137
-2.77939e-139
-1.52707e-141
-7.99632e-144
-3.99035e-146
-1.89756e-148
-8.59842e-151
-3.71246e-153
-1.52724e-155
-5.98607e-158
-2.23537e-160
-7.95282e-163
-2.69552e-165
-8.70369e-168
-2.67727e-170
-7.84509e-173
-2.18983e-175
-5.82258e-178
-1.4747e-180
-3.55765e-183
-8.17484e-186
-1.78912e-188
-3.72933e-191
-7.40354e-194
-1.39974e-196
-2.52024e-199
-4.32121e-202
-7.05537e-205
-1.0969e-207
-1.62379e-210
-2.28871e-213
-3.07133e-216
-3.9239e-219