/*--------------------------------*- C++ -*----------------------------------*\
| =========                 |                                                 |
| \\      /  F ield         | OpenFOAM: The Open Source CFD Toolbox           |
|  \\    /   O peration     | Version:  v1912                                 |
|   \\  /    A nd           | Website:  www.openfoam.com                      |
|    \\/     M anipulation  |                                                 |
\*---------------------------------------------------------------------------*/
FoamFile
{
    version     2.0;
    format      ascii;
    class       volScalarField;
    location    "30";
    object      p_rgh;
}
// * * * * * * * * * * * * * * * * * * * * * * * * * * * * * * * * * * * * * //

dimensions      [1 -1 -2 0 0 0 0];


internalField   nonuniform List<scalar> 
14268
(
0.129718
0.125181
0.120797
0.116563
0.112471
0.108516
0.104694
0.101
0.0974298
0.0939782
0.0906415
0.0874159
0.0842976
0.0812831
0.0783689
0.0755518
0.0728285
0.0701962
0.0676518
0.0651926
0.0628158
0.0605189
0.0582994
0.0561547
0.0540827
0.0520809
0.0501472
0.0482794
0.0464756
0.0447336
0.0430517
0.0414278
0.0398602
0.038347
0.0368867
0.0354774
0.0341177
0.0328059
0.0315405
0.0303199
0.0291429
0.0280079
0.0269137
0.0258588
0.0248421
0.0238622
0.022918
0.0220083
0.0211319
0.0202878
0.0194748
0.018692
0.0179382
0.0172126
0.0165142
0.015842
0.0151952
0.0145728
0.0139741
0.0133982
0.0128443
0.0123117
0.0117996
0.0113073
0.0108341
0.0103792
0.00994219
0.00952226
0.00911883
0.00873132
0.00835914
0.00800174
0.00765857
0.00732913
0.00701289
0.00670939
0.00641812
0.00613868
0.00587056
0.00561341
0.00536673
0.00513024
0.00490339
0.00468605
0.00447752
0.00427793
0.00408631
0.00390315
0.00372713
0.0035592
0.00339754
0.00324372
0.00309529
0.0029545
0.00281826
0.00268952
0.0025645
0.00244691
0.0023321
0.00222504
0.00211916
0.00202262
0.00192366
0.00183873
0.00174338
0.00167293
0.00157587
0.00152512
0.00141865
0.00139526
0.00126965
0.00128275
0.00112788
0.00118574
0.000994095
0.00110055
0.000871126
0.00102165
0.000763468
0.000942563
0.000675918
0.000857589
0.000611524
0.000763958
0.00056965
0.000663299
0.000545146
0.000561612
0.000529303
0.000467423
0.000512457
0.00038869
0.000487189
0.000329811
0.000450651
0.000290256
0.000404873
0.000265346
0.000355051
0.000248596
0.000306902
0.000234283
0.000264476
0.000219033
0.00022928
0.000201948
0.000200759
0.000183731
0.000177394
0.000165562
0.129708
0.125171
0.120789
0.116554
0.112462
0.108508
0.104687
0.100993
0.0974225
0.0939712
0.0906347
0.0874093
0.0842913
0.081277
0.078363
0.075546
0.072823
0.0701908
0.0676466
0.0651876
0.062811
0.0605143
0.0582949
0.0561504
0.0540784
0.0520768
0.0501432
0.0482756
0.0464719
0.0447301
0.0430482
0.0414245
0.039857
0.038344
0.0368837
0.0354746
0.0341149
0.0328032
0.0315379
0.0303175
0.0291405
0.0280056
0.0269115
0.0258567
0.02484
0.0238602
0.0229161
0.0220065
0.0211302
0.0202861
0.0194732
0.0186904
0.0179367
0.0172112
0.0165128
0.0158406
0.0151939
0.0145715
0.0139729
0.013397
0.0128432
0.0123106
0.0117986
0.0113063
0.0108331
0.0103783
0.0099413
0.0095214
0.00911801
0.00873053
0.00835838
0.00800101
0.00765787
0.00732846
0.00701225
0.00670877
0.00641753
0.00613811
0.00587001
0.00561289
0.00536623
0.00512976
0.00490293
0.00468561
0.0044771
0.00427752
0.00408592
0.00390278
0.00372677
0.00355886
0.00339722
0.00324341
0.00309499
0.00295422
0.00281799
0.00268926
0.00256424
0.00244667
0.00233186
0.00222482
0.00211894
0.00202242
0.00192347
0.00183855
0.0017432
0.00167277
0.00157569
0.00152499
0.00141847
0.00139516
0.00126946
0.00128268
0.00112768
0.00118571
0.00099389
0.00110054
0.000870921
0.00102166
0.000763277
0.000942563
0.000675757
0.000857568
0.000611407
0.000763902
0.000569584
0.000663206
0.000545128
0.00056149
0.000529319
0.000467288
0.000512486
0.000388561
0.000487214
0.000329702
0.000450659
0.000290175
0.000404862
0.000265291
0.000355024
0.000248559
0.000306868
0.000234257
0.000264441
0.00021901
0.000229248
0.000201927
0.000200732
0.000183711
0.000177371
0.000165543
0.129699
0.125162
0.12078
0.116545
0.112454
0.1085
0.104679
0.100985
0.0974152
0.0939641
0.0906279
0.0874027
0.0842849
0.0812708
0.078357
0.0755403
0.0728174
0.0701854
0.0676414
0.0651825
0.0628061
0.0605096
0.0582903
0.056146
0.0540742
0.0520727
0.0501393
0.0482718
0.0464682
0.0447265
0.0430448
0.0414211
0.0398538
0.0383409
0.0368807
0.0354717
0.0341122
0.0328005
0.0315353
0.030315
0.0291381
0.0280033
0.0269092
0.0258545
0.0248379
0.0238582
0.0229142
0.0220046
0.0211284
0.0202844
0.0194715
0.0186888
0.0179352
0.0172097
0.0165113
0.0158393
0.0151925
0.0145703
0.0139716
0.0133958
0.0128421
0.0123095
0.0117975
0.0113053
0.0108321
0.0103774
0.0099404
0.00952054
0.00911718
0.00872973
0.00835761
0.00800027
0.00765717
0.00732778
0.0070116
0.00670815
0.00641693
0.00613753
0.00586946
0.00561236
0.00536571
0.00512927
0.00490246
0.00468516
0.00447666
0.0042771
0.00408552
0.0039024
0.00372641
0.00355851
0.00339688
0.00324308
0.00309468
0.00295392
0.0028177
0.00268899
0.00256398
0.00244642
0.00233162
0.0022246
0.00211872
0.00202221
0.00192326
0.00183837
0.001743
0.00167261
0.0015755
0.00152486
0.00141828
0.00139505
0.00126928
0.0012826
0.00112749
0.00118565
0.000993692
0.00110051
0.000870726
0.00102164
0.000763098
0.000942538
0.000675608
0.000857522
0.000611301
0.000763826
0.000569524
0.000663098
0.000545109
0.000561359
0.000529327
0.000467151
0.000512503
0.000388435
0.000487222
0.000329599
0.00045065
0.0002901
0.000404834
0.000265239
0.000354984
0.000248523
0.000306823
0.000234229
0.000264397
0.000218985
0.000229209
0.000201902
0.000200698
0.000183685
0.000177342
0.000165518
0.129689
0.125153
0.12077
0.116537
0.112446
0.108492
0.104671
0.100978
0.0974078
0.0939569
0.090621
0.087396
0.0842784
0.0812645
0.078351
0.0755344
0.0728118
0.07018
0.0676361
0.0651775
0.0628012
0.0605048
0.0582857
0.0561415
0.0540699
0.0520685
0.0501353
0.0482679
0.0464645
0.0447229
0.0430413
0.0414178
0.0398505
0.0383377
0.0368777
0.0354688
0.0341093
0.0327978
0.0315327
0.0303124
0.0291357
0.0280009
0.026907
0.0258523
0.0248358
0.0238562
0.0229122
0.0220027
0.0211265
0.0202826
0.0194698
0.0186872
0.0179336
0.0172082
0.0165099
0.0158379
0.0151912
0.014569
0.0139704
0.0133946
0.0128409
0.0123084
0.0117964
0.0113042
0.0108311
0.0103764
0.00993948
0.00951966
0.00911633
0.00872892
0.00835683
0.00799952
0.00765644
0.00732708
0.00701093
0.0067075
0.00641632
0.00613694
0.00586889
0.00561181
0.00536519
0.00512877
0.00490197
0.0046847
0.00447622
0.00427668
0.00408511
0.003902
0.00372603
0.00355815
0.00339653
0.00324275
0.00309436
0.00295362
0.00281741
0.0026887
0.00256371
0.00244616
0.00233137
0.00222436
0.00211849
0.00202199
0.00192305
0.00183817
0.0017428
0.00167244
0.00157531
0.00152471
0.00141809
0.00139493
0.00126908
0.0012825
0.0011273
0.00118558
0.000993499
0.00110046
0.00087054
0.00102159
0.00076293
0.000942484
0.00067547
0.000857449
0.000611201
0.000763727
0.000569466
0.000662973
0.000545086
0.000561218
0.000529324
0.000467009
0.000512503
0.000388308
0.000487211
0.000329498
0.000450621
0.000290026
0.000404787
0.000265188
0.000354926
0.000248485
0.000306763
0.000234197
0.00026434
0.000218953
0.000229159
0.000201868
0.000200654
0.000183651
0.000177303
0.000165483
0.129679
0.125143
0.120761
0.116528
0.112437
0.108484
0.104663
0.10097
0.0974004
0.0939497
0.090614
0.0873893
0.0842719
0.0812582
0.0783449
0.0755285
0.0728061
0.0701745
0.0676308
0.0651723
0.0627962
0.0605
0.0582811
0.0561371
0.0540656
0.0520644
0.0501312
0.048264
0.0464607
0.0447193
0.0430378
0.0414144
0.0398472
0.0383346
0.0368746
0.0354658
0.0341065
0.0327951
0.03153
0.0303099
0.0291332
0.0279986
0.0269047
0.0258501
0.0248337
0.0238541
0.0229102
0.0220008
0.0211247
0.0202808
0.0194681
0.0186855
0.017932
0.0172066
0.0165084
0.0158364
0.0151898
0.0145677
0.0139691
0.0133934
0.0128397
0.0123073
0.0117953
0.0113032
0.0108301
0.0103755
0.00993855
0.00951876
0.00911547
0.00872809
0.00835603
0.00799876
0.00765571
0.00732638
0.00701025
0.00670685
0.00641569
0.00613634
0.00586831
0.00561126
0.00536466
0.00512826
0.00490148
0.00468422
0.00447576
0.00427624
0.00408469
0.0039016
0.00372564
0.00355778
0.00339617
0.00324241
0.00309403
0.0029533
0.0028171
0.00268841
0.00256343
0.00244589
0.00233112
0.00222411
0.00211825
0.00202177
0.00192282
0.00183796
0.00174259
0.00167225
0.00157511
0.00152454
0.0014179
0.00139479
0.00126889
0.00128239
0.0011271
0.00118549
0.000993311
0.00110038
0.000870362
0.00102152
0.000762772
0.000942402
0.000675342
0.000857349
0.00061111
0.000763605
0.000569411
0.000662831
0.000545059
0.000561067
0.000529311
0.000466864
0.000512488
0.000388182
0.000487182
0.0003294
0.000450572
0.000289955
0.000404722
0.000265138
0.000354853
0.000248446
0.000306689
0.000234161
0.000264273
0.000218916
0.000229099
0.000201828
0.000200602
0.00018361
0.000177257
0.000165442
0.129669
0.125133
0.120752
0.116519
0.112428
0.108475
0.104655
0.100962
0.0973928
0.0939424
0.090607
0.0873825
0.0842653
0.0812519
0.0783387
0.0755226
0.0728003
0.0701689
0.0676255
0.0651671
0.0627912
0.0604952
0.0582764
0.0561325
0.0540612
0.0520601
0.0501271
0.0482601
0.0464569
0.0447156
0.0430342
0.041411
0.0398439
0.0383314
0.0368716
0.0354628
0.0341036
0.0327923
0.0315273
0.0303073
0.0291307
0.0279962
0.0269023
0.0258479
0.0248316
0.0238521
0.0229082
0.0219989
0.0211228
0.020279
0.0194664
0.0186838
0.0179304
0.0172051
0.0165069
0.015835
0.0151884
0.0145663
0.0139679
0.0133922
0.0128385
0.0123061
0.0117942
0.0113021
0.0108291
0.0103745
0.00993762
0.00951786
0.0091146
0.00872725
0.00835523
0.00799798
0.00765497
0.00732566
0.00700956
0.00670619
0.00641505
0.00613573
0.00586773
0.00561069
0.00536411
0.00512774
0.00490098
0.00468374
0.0044753
0.0042758
0.00408427
0.00390119
0.00372525
0.0035574
0.00339581
0.00324206
0.00309369
0.00295298
0.0028168
0.00268811
0.00256315
0.00244562
0.00233085
0.00222386
0.00211801
0.00202154
0.0019226
0.00183775
0.00174238
0.00167206
0.00157491
0.00152437
0.0014177
0.00139464
0.0012687
0.00128226
0.00112692
0.00118538
0.000993135
0.00110028
0.0008702
0.00102142
0.000762631
0.000942299
0.000675231
0.00085723
0.000611032
0.000763467
0.000569366
0.00066268
0.000545035
0.000560913
0.000529295
0.000466722
0.000512464
0.000388064
0.000487141
0.000329311
0.000450511
0.000289893
0.000404645
0.000265095
0.00035477
0.000248413
0.000306609
0.000234129
0.0002642
0.00021888
0.000229036
0.000201789
0.000200547
0.000183567
0.000177208
0.000165399
0.129659
0.125124
0.120743
0.11651
0.11242
0.108467
0.104647
0.100954
0.0973853
0.0939351
0.0905999
0.0873757
0.0842587
0.0812455
0.0783326
0.0755166
0.0727946
0.0701634
0.0676201
0.0651619
0.0627862
0.0604903
0.0582717
0.056128
0.0540568
0.0520559
0.050123
0.0482561
0.0464531
0.0447119
0.0430307
0.0414075
0.0398406
0.0383281
0.0368685
0.0354599
0.0341007
0.0327895
0.0315247
0.0303047
0.0291282
0.0279938
0.0269
0.0258457
0.0248294
0.02385
0.0229062
0.0219969
0.021121
0.0202772
0.0194647
0.0186822
0.0179288
0.0172035
0.0165054
0.0158336
0.015187
0.014565
0.0139666
0.013391
0.0128374
0.012305
0.0117931
0.0113011
0.0108281
0.0103735
0.00993667
0.00951695
0.00911373
0.00872641
0.00835443
0.00799721
0.00765422
0.00732495
0.00700888
0.00670553
0.00641442
0.00613512
0.00586714
0.00561013
0.00536357
0.00512722
0.00490048
0.00468326
0.00447484
0.00427536
0.00408384
0.00390078
0.00372486
0.00355702
0.00339545
0.00324171
0.00309336
0.00295266
0.00281649
0.00268782
0.00256287
0.00244535
0.00233059
0.00222361
0.00211777
0.00202131
0.00192237
0.00183754
0.00174217
0.00167187
0.00157471
0.00152421
0.00141752
0.00139449
0.00126852
0.00128213
0.00112675
0.00118526
0.000992976
0.00110017
0.000870058
0.00102131
0.000762513
0.00094218
0.000675142
0.000857097
0.000610975
0.000763319
0.000569335
0.000662524
0.00054502
0.000560762
0.000529281
0.000466589
0.000512438
0.000387959
0.000487093
0.000329237
0.000450443
0.000289847
0.000404563
0.000265066
0.000354683
0.00024839
0.000306527
0.000234104
0.000264129
0.000218851
0.000228976
0.000201754
0.000200496
0.00018353
0.000177164
0.000165361
0.129649
0.125114
0.120733
0.116501
0.112411
0.108458
0.104639
0.100946
0.0973776
0.0939277
0.0905928
0.0873688
0.0842521
0.0812391
0.0783263
0.0755106
0.0727888
0.0701577
0.0676147
0.0651567
0.0627811
0.0604854
0.058267
0.0561234
0.0540524
0.0520516
0.0501189
0.0482521
0.0464492
0.0447082
0.0430271
0.0414041
0.0398373
0.0383249
0.0368653
0.0354568
0.0340978
0.0327867
0.031522
0.0303021
0.0291257
0.0279913
0.0268977
0.0258434
0.0248272
0.0238479
0.0229042
0.021995
0.0211191
0.0202754
0.0194629
0.0186805
0.0179272
0.017202
0.0165039
0.0158321
0.0151857
0.0145637
0.0139653
0.0133897
0.0128362
0.0123039
0.011792
0.0113
0.0108271
0.0103725
0.00993573
0.00951605
0.00911286
0.00872558
0.00835362
0.00799643
0.00765348
0.00732423
0.00700819
0.00670487
0.00641379
0.00613451
0.00586656
0.00560957
0.00536303
0.0051267
0.00489998
0.00468279
0.00447439
0.00427492
0.00408342
0.00390038
0.00372447
0.00355665
0.00339509
0.00324137
0.00309303
0.00295234
0.00281619
0.00268753
0.00256259
0.00244508
0.00233034
0.00222336
0.00211753
0.00202108
0.00192216
0.00183734
0.00174197
0.00167169
0.00157452
0.00152404
0.00141734
0.00139434
0.00126836
0.001282
0.0011266
0.00118514
0.000992836
0.00110005
0.000869938
0.00102119
0.000762419
0.000942048
0.000675077
0.000856952
0.000610939
0.000763164
0.00056932
0.000662366
0.000545015
0.000560615
0.000529271
0.000466465
0.00051241
0.000387868
0.000487042
0.00032918
0.000450369
0.000289817
0.000404476
0.000265052
0.000354594
0.00024838
0.000306446
0.000234091
0.00026406
0.00021883
0.00022892
0.000201727
0.000200451
0.000183499
0.000177125
0.00016533
0.129639
0.125104
0.120724
0.116492
0.112402
0.10845
0.10463
0.100939
0.0973699
0.0939203
0.0905856
0.0873618
0.0842454
0.0812326
0.0783201
0.0755046
0.0727829
0.0701521
0.0676092
0.0651514
0.062776
0.0604805
0.0582622
0.0561188
0.0540479
0.0520473
0.0501148
0.0482481
0.0464454
0.0447045
0.0430235
0.0414006
0.0398339
0.0383217
0.0368622
0.0354538
0.0340949
0.0327839
0.0315192
0.0302995
0.0291232
0.0279889
0.0268953
0.0258411
0.024825
0.0238458
0.0229022
0.021993
0.0211172
0.0202736
0.0194612
0.0186788
0.0179256
0.0172004
0.0165024
0.0158307
0.0151843
0.0145623
0.013964
0.0133885
0.012835
0.0123027
0.0117909
0.011299
0.010826
0.0103715
0.00993478
0.00951514
0.00911199
0.00872474
0.00835281
0.00799566
0.00765273
0.00732352
0.0070075
0.00670421
0.00641315
0.0061339
0.00586597
0.00560901
0.0053625
0.00512618
0.00489949
0.00468231
0.00447393
0.00427448
0.004083
0.00389998
0.00372408
0.00355628
0.00339474
0.00324103
0.00309271
0.00295203
0.00281589
0.00268724
0.00256231
0.00244482
0.00233009
0.00222312
0.0021173
0.00202086
0.00192194
0.00183714
0.00174177
0.0016715
0.00157434
0.00152387
0.00141717
0.00139419
0.0012682
0.00128186
0.00112646
0.00118501
0.000992714
0.00109992
0.00086984
0.00102105
0.000762349
0.000941902
0.000675036
0.000856795
0.000610923
0.000763
0.000569322
0.000662206
0.00054502
0.000560472
0.000529264
0.000466352
0.000512381
0.000387791
0.000486986
0.000329138
0.00045029
0.000289802
0.000404386
0.000265051
0.000354503
0.000248382
0.000306364
0.000234086
0.000263993
0.000218817
0.000228868
0.000201707
0.00020041
0.000183475
0.000177092
0.000165304
0.129629
0.125094
0.120714
0.116482
0.112393
0.108441
0.104622
0.10093
0.0973622
0.0939128
0.0905783
0.0873548
0.0842386
0.081226
0.0783138
0.0754985
0.072777
0.0701464
0.0676037
0.0651461
0.0627709
0.0604755
0.0582574
0.0561142
0.0540435
0.052043
0.0501106
0.0482441
0.0464415
0.0447007
0.0430198
0.0413971
0.0398305
0.0383184
0.0368591
0.0354508
0.034092
0.0327811
0.0315165
0.0302968
0.0291206
0.0279864
0.026893
0.0258388
0.0248228
0.0238437
0.0229001
0.0219911
0.0211153
0.0202718
0.0194594
0.0186771
0.0179239
0.0171988
0.0165009
0.0158292
0.0151829
0.014561
0.0139627
0.0133872
0.0128338
0.0123015
0.0117898
0.0112979
0.010825
0.0103706
0.00993384
0.00951423
0.00911111
0.0087239
0.008352
0.00799488
0.00765199
0.0073228
0.00700681
0.00670355
0.00641252
0.00613329
0.00586539
0.00560845
0.00536196
0.00512567
0.00489899
0.00468184
0.00447347
0.00427404
0.00408258
0.00389958
0.0037237
0.00355591
0.00339439
0.00324069
0.00309238
0.00295172
0.00281559
0.00268696
0.00256204
0.00244455
0.00232984
0.00222288
0.00211707
0.00202064
0.00192173
0.00183694
0.00174158
0.00167132
0.00157416
0.00152371
0.00141701
0.00139404
0.00126805
0.00128171
0.00112633
0.00118486
0.000992609
0.00109978
0.000869761
0.0010209
0.000762299
0.00094174
0.000675016
0.000856623
0.000610926
0.000762826
0.000569337
0.000662042
0.000545032
0.000560331
0.000529259
0.000466246
0.000512348
0.000387726
0.000486923
0.000329111
0.000450204
0.000289801
0.000404288
0.000265063
0.000354408
0.000248393
0.000306282
0.000234089
0.000263927
0.000218809
0.000228817
0.000201691
0.000200371
0.000183454
0.000177061
0.000165281
0.129618
0.125084
0.120705
0.116473
0.112384
0.108433
0.104614
0.100922
0.0973544
0.0939053
0.0905711
0.0873478
0.0842318
0.0812195
0.0783074
0.0754923
0.0727711
0.0701407
0.0675981
0.0651407
0.0627657
0.0604705
0.0582526
0.0561095
0.054039
0.0520386
0.0501064
0.04824
0.0464375
0.0446969
0.0430162
0.0413935
0.0398271
0.0383151
0.0368559
0.0354477
0.034089
0.0327782
0.0315137
0.0302942
0.0291181
0.027984
0.0268906
0.0258366
0.0248206
0.0238415
0.0228981
0.0219891
0.0211134
0.0202699
0.0194576
0.0186754
0.0179223
0.0171973
0.0164994
0.0158278
0.0151815
0.0145596
0.0139614
0.013386
0.0128326
0.0123004
0.0117887
0.0112968
0.010824
0.0103696
0.00993288
0.00951331
0.00911023
0.00872305
0.00835119
0.0079941
0.00765124
0.00732208
0.00700612
0.00670289
0.00641188
0.00613268
0.0058648
0.00560789
0.00536142
0.00512515
0.0048985
0.00468136
0.00447302
0.0042736
0.00408216
0.00389917
0.00372331
0.00355554
0.00339403
0.00324035
0.00309206
0.00295141
0.0028153
0.00268667
0.00256177
0.00244429
0.00232959
0.00222264
0.00211684
0.00202042
0.00192152
0.00183674
0.00174139
0.00167114
0.00157399
0.00152354
0.00141685
0.00139388
0.00126792
0.00128156
0.00112621
0.00118471
0.000992518
0.00109962
0.0008697
0.00102074
0.00076227
0.000941561
0.000675015
0.000856436
0.000610946
0.00076264
0.000569364
0.000661871
0.00054505
0.00056019
0.000529253
0.000466146
0.00051231
0.000387671
0.000486852
0.000329095
0.000450109
0.000289813
0.000404183
0.000265085
0.000354307
0.000248413
0.000306195
0.000234099
0.000263859
0.000218806
0.000228767
0.000201678
0.000200334
0.000183436
0.000177033
0.000165261
0.129608
0.125074
0.120695
0.116464
0.112375
0.108424
0.104605
0.100914
0.0973465
0.0938977
0.0905637
0.0873407
0.0842249
0.0812128
0.078301
0.0754861
0.0727651
0.0701349
0.0675926
0.0651353
0.0627605
0.0604655
0.0582477
0.0561048
0.0540344
0.0520343
0.0501021
0.0482359
0.0464336
0.0446931
0.0430125
0.04139
0.0398237
0.0383118
0.0368527
0.0354446
0.034086
0.0327753
0.031511
0.0302915
0.0291155
0.0279815
0.0268882
0.0258342
0.0248184
0.0238394
0.022896
0.0219871
0.0211115
0.0202681
0.0194559
0.0186737
0.0179206
0.0171957
0.0164979
0.0158263
0.01518
0.0145582
0.0139601
0.0133847
0.0128313
0.0122992
0.0117876
0.0112957
0.010823
0.0103686
0.00993192
0.00951239
0.00910934
0.0087222
0.00835037
0.00799332
0.00765048
0.00732136
0.00700543
0.00670222
0.00641124
0.00613207
0.00586421
0.00560732
0.00536088
0.00512463
0.004898
0.00468088
0.00447256
0.00427316
0.00408174
0.00389877
0.00372293
0.00355517
0.00339368
0.00324001
0.00309173
0.0029511
0.002815
0.00268639
0.00256149
0.00244403
0.00232933
0.0022224
0.00211661
0.0020202
0.00192131
0.00183654
0.00174119
0.00167095
0.00157381
0.00152336
0.0014167
0.00139372
0.00126778
0.0012814
0.0011261
0.00118455
0.000992441
0.00109945
0.000869656
0.00102055
0.000762258
0.000941364
0.000675032
0.000856233
0.000610981
0.000762442
0.000569401
0.000661693
0.000545073
0.000560048
0.000529246
0.000466051
0.000512265
0.000387625
0.000486772
0.000329091
0.000450004
0.000289835
0.000404069
0.000265117
0.0003542
0.00024844
0.000306105
0.000234113
0.000263789
0.000218806
0.000228716
0.000201667
0.000200297
0.000183419
0.000177004
0.000165242
0.129597
0.125064
0.120685
0.116454
0.112366
0.108415
0.104597
0.100906
0.0973386
0.09389
0.0905563
0.0873336
0.084218
0.0812062
0.0782946
0.0754799
0.0727591
0.0701291
0.0675869
0.0651299
0.0627553
0.0604604
0.0582428
0.0561001
0.0540299
0.0520299
0.0500979
0.0482318
0.0464296
0.0446893
0.0430088
0.0413864
0.0398202
0.0383085
0.0368495
0.0354415
0.034083
0.0327724
0.0315082
0.0302888
0.0291129
0.027979
0.0268858
0.0258319
0.0248162
0.0238372
0.0228939
0.0219851
0.0211096
0.0202662
0.0194541
0.018672
0.017919
0.0171941
0.0164963
0.0158248
0.0151786
0.0145569
0.0139588
0.0133834
0.0128301
0.012298
0.0117865
0.0112946
0.0108219
0.0103676
0.00993096
0.00951146
0.00910845
0.00872134
0.00834955
0.00799253
0.00764972
0.00732063
0.00700473
0.00670155
0.0064106
0.00613145
0.00586362
0.00560675
0.00536033
0.0051241
0.0048975
0.0046804
0.0044721
0.00427272
0.00408132
0.00389836
0.00372254
0.0035548
0.00339332
0.00323967
0.00309141
0.00295078
0.0028147
0.0026861
0.00256122
0.00244376
0.00232908
0.00222216
0.00211638
0.00201998
0.0019211
0.00183633
0.001741
0.00167076
0.00157364
0.00152319
0.00141654
0.00139355
0.00126766
0.00128123
0.00112601
0.00118438
0.000992376
0.00109926
0.000869627
0.00102035
0.000762264
0.000941149
0.000675066
0.000856012
0.000611031
0.00076223
0.000569449
0.000661508
0.0005451
0.000559905
0.000529238
0.000465961
0.000512214
0.000387587
0.000486683
0.000329096
0.000449889
0.000289867
0.000403946
0.000265157
0.000354085
0.000248472
0.000306009
0.000234131
0.000263716
0.000218809
0.000228663
0.000201658
0.000200259
0.000183402
0.000176976
0.000165223
0.129587
0.125054
0.120675
0.116445
0.112357
0.108406
0.104588
0.100898
0.0973306
0.0938823
0.0905489
0.0873264
0.0842111
0.0811995
0.0782881
0.0754736
0.072753
0.0701232
0.0675813
0.0651244
0.06275
0.0604553
0.0582379
0.0560953
0.0540253
0.0520254
0.0500936
0.0482277
0.0464256
0.0446854
0.0430051
0.0413828
0.0398167
0.0383051
0.0368462
0.0354384
0.03408
0.0327695
0.0315054
0.0302861
0.0291103
0.0279765
0.0268833
0.0258296
0.0248139
0.023835
0.0228918
0.0219831
0.0211076
0.0202644
0.0194523
0.0186702
0.0179173
0.0171925
0.0164948
0.0158233
0.0151772
0.0145555
0.0139574
0.0133822
0.0128289
0.0122969
0.0117853
0.0112935
0.0108209
0.0103665
0.00992998
0.00951052
0.00910755
0.00872048
0.00834872
0.00799173
0.00764896
0.00731989
0.00700402
0.00670087
0.00640994
0.00613082
0.00586302
0.00560617
0.00535978
0.00512358
0.00489699
0.00467991
0.00447163
0.00427227
0.00408089
0.00389795
0.00372214
0.00355442
0.00339296
0.00323932
0.00309108
0.00295046
0.00281439
0.0026858
0.00256094
0.0024435
0.00232883
0.00222192
0.00211615
0.00201976
0.00192089
0.00183613
0.00174081
0.00167057
0.00157347
0.00152301
0.0014164
0.00139337
0.00126754
0.00128106
0.00112592
0.00118419
0.000992324
0.00109906
0.000869613
0.00102013
0.000762287
0.000940915
0.000675117
0.000855775
0.000611095
0.000762006
0.000569506
0.000661315
0.00054513
0.000559761
0.000529227
0.000465875
0.000512156
0.000387558
0.000486583
0.000329112
0.000449764
0.000289908
0.000403813
0.000265205
0.000353963
0.000248511
0.000305908
0.000234153
0.00026364
0.000218813
0.000228609
0.000201649
0.000200221
0.000183387
0.000176947
0.000165205
0.129571
0.125039
0.12066
0.11643
0.112343
0.108393
0.104575
0.100885
0.0973185
0.0938707
0.0905376
0.0873155
0.0842006
0.0811893
0.0782783
0.0754642
0.0727439
0.0701144
0.0675727
0.0651162
0.062742
0.0604476
0.0582304
0.0560881
0.0540183
0.0520187
0.0500871
0.0482214
0.0464196
0.0446795
0.0429994
0.0413773
0.0398115
0.0383
0.0368413
0.0354337
0.0340755
0.0327651
0.0315011
0.030282
0.0291063
0.0279727
0.0268797
0.025826
0.0248105
0.0238318
0.0228887
0.02198
0.0211047
0.0202615
0.0194495
0.0186676
0.0179148
0.01719
0.0164924
0.0158211
0.015175
0.0145534
0.0139554
0.0133802
0.012827
0.0122951
0.0117836
0.0112919
0.0108193
0.010365
0.00992851
0.00950911
0.00910619
0.00871917
0.00834747
0.00799052
0.0076478
0.00731878
0.00700296
0.00669985
0.00640896
0.00612988
0.00586211
0.00560531
0.00535895
0.00512278
0.00489622
0.00467918
0.00447093
0.0042716
0.00408024
0.00389733
0.00372155
0.00355385
0.00339241
0.0032388
0.00309058
0.00294998
0.00281394
0.00268536
0.00256052
0.00244309
0.00232844
0.00222155
0.0021158
0.00201942
0.00192057
0.00183581
0.00174052
0.00167028
0.00157321
0.00152273
0.00141618
0.0013931
0.00126736
0.00128078
0.0011258
0.00118389
0.000992263
0.00109873
0.000869615
0.00101977
0.000762346
0.000940537
0.000675218
0.000855394
0.00061121
0.00076165
0.000569605
0.000661015
0.000545181
0.000559543
0.000529206
0.000465751
0.000512059
0.000387525
0.00048642
0.000329149
0.00044956
0.000289984
0.000403601
0.000265288
0.000353769
0.000248578
0.000305749
0.000234191
0.000263521
0.000218823
0.000228524
0.000201638
0.000200161
0.000183363
0.000176904
0.000165177
0.129549
0.125018
0.12064
0.116411
0.112324
0.108375
0.104558
0.100868
0.0973022
0.0938549
0.0905224
0.0873008
0.0841864
0.0811756
0.078265
0.0754514
0.0727315
0.0701024
0.0675612
0.065105
0.0627312
0.0604372
0.0582204
0.0560784
0.0540089
0.0520096
0.0500783
0.0482129
0.0464114
0.0446716
0.0429918
0.04137
0.0398044
0.0382932
0.0368347
0.0354273
0.0340693
0.0327592
0.0314954
0.0302765
0.029101
0.0279675
0.0268747
0.0258213
0.0248059
0.0238273
0.0228844
0.0219759
0.0211007
0.0202577
0.0194458
0.018664
0.0179113
0.0171867
0.0164893
0.015818
0.0151721
0.0145506
0.0139527
0.0133776
0.0128245
0.0122926
0.0117813
0.0112897
0.0108171
0.0103629
0.00992652
0.00950719
0.00910435
0.00871741
0.00834577
0.00798889
0.00764624
0.00731728
0.00700151
0.00669846
0.00640763
0.0061286
0.00586089
0.00560413
0.00535782
0.0051217
0.00489519
0.00467818
0.00446997
0.00427068
0.00407936
0.00389649
0.00372074
0.00355308
0.00339168
0.00323809
0.0030899
0.00294933
0.00281331
0.00268477
0.00255995
0.00244255
0.00232792
0.00222105
0.00211532
0.00201896
0.00192013
0.0018354
0.00174012
0.0016699
0.00157285
0.00152238
0.00141585
0.00139277
0.00126707
0.00128047
0.00112555
0.00118358
0.000992066
0.00109842
0.000869478
0.00101944
0.000762275
0.000940177
0.000675209
0.000855012
0.000611251
0.000761262
0.00056967
0.000660649
0.000545238
0.000559229
0.000529222
0.000465518
0.000512009
0.000387387
0.000486298
0.0003291
0.000449379
0.000290001
0.000403389
0.000265336
0.000353558
0.000248627
0.000305565
0.00023422
0.000263376
0.000218826
0.000228417
0.000201618
0.000200083
0.00018333
0.000176845
0.000165139
0.129527
0.124996
0.12062
0.116391
0.112305
0.108356
0.10454
0.100851
0.0972856
0.0938389
0.0905069
0.0872859
0.084172
0.0811617
0.0782515
0.0754384
0.0727189
0.0700903
0.0675495
0.0650937
0.0627203
0.0604266
0.0582102
0.0560685
0.0539994
0.0520004
0.0500694
0.0482044
0.0464031
0.0446636
0.0429841
0.0413625
0.0397972
0.0382862
0.036828
0.0354208
0.034063
0.0327532
0.0314896
0.0302709
0.0290956
0.0279623
0.0268697
0.0258164
0.0248012
0.0238228
0.02288
0.0219717
0.0210967
0.0202538
0.0194421
0.0186604
0.0179079
0.0171834
0.016486
0.0158149
0.0151691
0.0145477
0.0139499
0.0133749
0.0128219
0.0122902
0.0117789
0.0112874
0.0108149
0.0103608
0.0099245
0.00950525
0.00910249
0.00871561
0.00834405
0.00798724
0.00764465
0.00731575
0.00700005
0.00669705
0.00640628
0.00612731
0.00585965
0.00560294
0.00535667
0.0051206
0.00489413
0.00467717
0.004469
0.00426975
0.00407848
0.00389564
0.00371993
0.00355229
0.00339093
0.00323737
0.00308921
0.00294867
0.00281268
0.00268416
0.00255938
0.00244199
0.0023274
0.00222054
0.00211484
0.0020185
0.00191969
0.00183497
0.00173972
0.00166951
0.00157249
0.00152202
0.00141553
0.00139243
0.00126679
0.00128012
0.00112533
0.00118323
0.000991908
0.00109805
0.00086939
0.00101904
0.000762257
0.000939755
0.000675252
0.000854574
0.000611336
0.000760831
0.000569764
0.000660257
0.000545306
0.000558911
0.000529229
0.000465298
0.000511935
0.000387274
0.000486143
0.000329081
0.000449164
0.000290047
0.000403146
0.000265409
0.000353323
0.000248694
0.000305364
0.000234261
0.000263219
0.000218835
0.000228303
0.000201602
0.000200001
0.000183298
0.000176785
0.000165101
0.129505
0.124975
0.120599
0.116371
0.112286
0.108338
0.104522
0.100834
0.0972688
0.0938227
0.0904913
0.0872707
0.0841573
0.0811475
0.0782379
0.0754252
0.0727062
0.070078
0.0675376
0.0650822
0.0627092
0.0604159
0.0581998
0.0560585
0.0539897
0.0519911
0.0500604
0.0481957
0.0463947
0.0446555
0.0429762
0.041355
0.0397899
0.0382792
0.0368212
0.0354142
0.0340567
0.032747
0.0314837
0.0302652
0.0290901
0.027957
0.0268646
0.0258115
0.0247965
0.0238182
0.0228756
0.0219674
0.0210926
0.0202499
0.0194383
0.0186568
0.0179044
0.01718
0.0164828
0.0158118
0.0151661
0.0145448
0.0139471
0.0133722
0.0128194
0.0122877
0.0117765
0.0112851
0.0108127
0.0103587
0.00992245
0.00950328
0.0091006
0.00871379
0.0083423
0.00798556
0.00764303
0.00731421
0.00699856
0.00669563
0.00640491
0.00612599
0.00585838
0.00560173
0.00535551
0.00511948
0.00489306
0.00467615
0.00446802
0.00426881
0.00407757
0.00389477
0.0037191
0.0035515
0.00339017
0.00323664
0.00308851
0.002948
0.00281205
0.00268355
0.00255879
0.00244143
0.00232686
0.00222002
0.00211435
0.00201802
0.00191924
0.00183453
0.00173931
0.0016691
0.00157212
0.00152163
0.00141521
0.00139206
0.00126654
0.00127975
0.00112513
0.00118284
0.000991788
0.00109763
0.000869349
0.00101859
0.000762291
0.000939274
0.000675347
0.000854083
0.000611462
0.00076036
0.000569886
0.000659842
0.000545382
0.000558587
0.000529227
0.00046509
0.000511839
0.000387184
0.000485958
0.000329092
0.000448916
0.000290121
0.000402874
0.000265506
0.000353065
0.000248778
0.000305146
0.000234312
0.000263052
0.000218849
0.000228183
0.000201587
0.000199917
0.000183267
0.000176722
0.000165063
0.129482
0.124953
0.120578
0.116351
0.112266
0.108319
0.104504
0.100816
0.0972518
0.0938062
0.0904754
0.0872554
0.0841425
0.0811332
0.0782241
0.0754118
0.0726933
0.0700655
0.0675255
0.0650706
0.0626979
0.060405
0.0581893
0.0560484
0.0539799
0.0519816
0.0500513
0.0481868
0.0463862
0.0446473
0.0429683
0.0413473
0.0397825
0.038272
0.0368143
0.0354076
0.0340503
0.0327408
0.0314777
0.0302594
0.0290845
0.0279516
0.0268594
0.0258065
0.0247916
0.0238136
0.0228712
0.0219631
0.0210884
0.0202459