/*--------------------------------*- C++ -*----------------------------------*\
| =========                 |                                                 |
| \\      /  F ield         | OpenFOAM: The Open Source CFD Toolbox           |
|  \\    /   O peration     | Version:  v1912                                 |
|   \\  /    A nd           | Website:  www.openfoam.com                      |
|    \\/     M anipulation  |                                                 |
\*---------------------------------------------------------------------------*/
FoamFile
{
    version     2.0;
    format      ascii;
    class       volVectorField;
    location    "40";
    object      U;
}
// * * * * * * * * * * * * * * * * * * * * * * * * * * * * * * * * * * * * * //

dimensions      [0 1 -1 0 0 0 0];


internalField   nonuniform List<vector> 
14268
(
(0.624749 0.0628584 0)
(0.591976 0.0595496 0)
(0.561583 0.0564807 0)
(0.533643 0.0536602 0)
(0.507858 0.0510582 0)
(0.483956 0.0486475 0)
(0.461721 0.046406 0)
(0.440976 0.0443153 0)
(0.421566 0.0423599 0)
(0.403361 0.0405265 0)
(0.386246 0.0388034 0)
(0.370123 0.0371804 0)
(0.354903 0.0356488 0)
(0.340509 0.0342006 0)
(0.326873 0.032829 0)
(0.313934 0.0315277 0)
(0.301637 0.0302913 0)
(0.289936 0.0291149 0)
(0.278786 0.0279941 0)
(0.268149 0.026925 0)
(0.25799 0.025904 0)
(0.248277 0.024928 0)
(0.238981 0.0239941 0)
(0.230078 0.0230997 0)
(0.221544 0.0222424 0)
(0.213356 0.02142 0)
(0.205497 0.0206306 0)
(0.197947 0.0198724 0)
(0.19069 0.0191437 0)
(0.183713 0.0184431 0)
(0.176999 0.017769 0)
(0.170538 0.0171202 0)
(0.164317 0.0164956 0)
(0.158324 0.015894 0)
(0.15255 0.0153143 0)
(0.146986 0.0147557 0)
(0.141622 0.0142172 0)
(0.136449 0.013698 0)
(0.131461 0.0131972 0)
(0.126649 0.0127142 0)
(0.122008 0.0122483 0)
(0.117529 0.0117988 0)
(0.113208 0.011365 0)
(0.109038 0.0109465 0)
(0.105014 0.0105425 0)
(0.10113 0.0101527 0)
(0.0973814 0.00977644 0)
(0.0937641 0.00941338 0)
(0.0902725 0.00906291 0)
(0.0869028 0.00872469 0)
(0.0836505 0.00839825 0)
(0.0805116 0.0080832 0)
(0.0774824 0.00777915 0)
(0.0745592 0.00748574 0)
(0.0717384 0.00720261 0)
(0.0690167 0.00692942 0)
(0.0663906 0.00666583 0)
(0.0638571 0.00641153 0)
(0.0614131 0.00616621 0)
(0.0590556 0.00592957 0)
(0.0567817 0.00570133 0)
(0.0545888 0.00548121 0)
(0.0524742 0.00526895 0)
(0.0504352 0.00506427 0)
(0.0484694 0.00486695 0)
(0.0465744 0.00467672 0)
(0.0447478 0.00449336 0)
(0.0429873 0.00431664 0)
(0.0412908 0.00414633 0)
(0.0396561 0.00398223 0)
(0.0380812 0.00382413 0)
(0.0365641 0.00367183 0)
(0.0351028 0.00352513 0)
(0.0336955 0.00338385 0)
(0.0323403 0.0032478 0)
(0.0310355 0.00311681 0)
(0.0297794 0.00299071 0)
(0.0285704 0.00286932 0)
(0.0274067 0.00275249 0)
(0.0262869 0.00264006 0)
(0.0252095 0.00253189 0)
(0.0241729 0.00242782 0)
(0.0231758 0.00232771 0)
(0.0222169 0.00223142 0)
(0.0212947 0.00213883 0)
(0.020408 0.0020498 0)
(0.0195555 0.0019642 0)
(0.0187361 0.00188192 0)
(0.0179485 0.00180284 0)
(0.0171916 0.00172684 0)
(0.0164644 0.00165382 0)
(0.0157658 0.00158366 0)
(0.0150947 0.00151628 0)
(0.0144501 0.00145155 0)
(0.0138311 0.00138939 0)
(0.0132368 0.0013297 0)
(0.0126662 0.00127241 0)
(0.0121185 0.0012174 0)
(0.0115928 0.00116461 0)
(0.0110883 0.00111395 0)
(0.0106044 0.00106534 0)
(0.01014 0.00101871 0)
(0.00969466 0.000973975 0)
(0.00926736 0.000931074 0)
(0.00885785 0.000889928 0)
(0.00846496 0.000850487 0)
(0.00808856 0.000812661 0)
(0.00772753 0.000776423 0)
(0.00738175 0.000741667 0)
(0.0070502 0.000708392 0)
(0.00673273 0.000676476 0)
(0.00642843 0.000645941 0)
(0.00613715 0.000616647 0)
(0.00585798 0.000588645 0)
(0.00559091 0.000561772 0)
(0.00533493 0.000536111 0)
(0.00509023 0.00051147 0)
(0.00485565 0.00048797 0)
(0.00463156 0.000465391 0)
(0.00441678 0.000443883 0)
(0.00421163 0.000423208 0)
(0.00401517 0.000403531 0)
(0.00382738 0.000384616 0)
(0.00364789 0.000366618 0)
(0.003476 0.000349333 0)
(0.00331219 0.000332873 0)
(0.00315492 0.000317094 0)
(0.00300552 0.000302043 0)
(0.00286175 0.000287654 0)
(0.00272549 0.000273894 0)
(0.00259421 0.000260781 0)
(0.00246992 0.000248208 0)
(0.00235022 0.000236266 0)
(0.00223685 0.000224789 0)
(0.00212786 0.00021392 0)
(0.00202446 0.000203453 0)
(0.00192535 0.000193565 0)
(0.00183106 0.000184028 0)
(0.00174102 0.000175035 0)
(0.00165508 0.000166354 0)
(0.00157333 0.000158175 0)
(0.00149505 0.000150285 0)
(0.00142087 0.000142843 0)
(0.00134964 0.000135683 0)
(0.00128232 0.000128911 0)
(0.00121759 0.000122419 0)
(0.00115641 0.000116254 0)
(0.00109765 0.000110369 0)
(0.00104171 0.000104727 0)
(0.000988969 9.94323e-05 0)
(0.624252 0.0634804 0)
(0.591416 0.0601104 0)
(0.561014 0.0569917 0)
(0.533082 0.0541293 0)
(0.507308 0.0514913 0)
(0.48342 0.0490488 0)
(0.4612 0.0467791 0)
(0.44047 0.0446633 0)
(0.421076 0.0426854 0)
(0.402886 0.0408315 0)
(0.385787 0.0390899 0)
(0.369679 0.0374502 0)
(0.354473 0.0359033 0)
(0.340094 0.0344412 0)
(0.326471 0.0330567 0)
(0.313546 0.0317436 0)
(0.301263 0.0304964 0)
(0.289574 0.02931 0)
(0.278436 0.0281799 0)
(0.267811 0.0271021 0)
(0.257662 0.0260731 0)
(0.24796 0.0250897 0)
(0.238676 0.0241487 0)
(0.229783 0.0232478 0)
(0.221258 0.0223843 0)
(0.21308 0.0215561 0)
(0.205229 0.0207612 0)
(0.197688 0.0199978 0)
(0.190441 0.0192643 0)
(0.183471 0.0185589 0)
(0.176766 0.0178805 0)
(0.170312 0.0172275 0)
(0.164098 0.0165989 0)
(0.158113 0.0159935 0)
(0.152346 0.0154102 0)
(0.146789 0.0148481 0)
(0.141431 0.0143063 0)
(0.136265 0.0137839 0)
(0.131283 0.0132801 0)
(0.126477 0.0127942 0)
(0.121842 0.0123255 0)
(0.117369 0.0118733 0)
(0.113053 0.011437 0)
(0.108888 0.0110159 0)
(0.104869 0.0106096 0)
(0.10099 0.0102174 0)
(0.0972465 0.00983889 0)
(0.0936338 0.00947369 0)
(0.0901468 0.00912113 0)
(0.0867815 0.00878091 0)
(0.0835334 0.00845253 0)
(0.0803987 0.00813561 0)
(0.0773735 0.00782975 0)
(0.0744542 0.00753459 0)
(0.0716371 0.00724976 0)
(0.068919 0.00697493 0)
(0.0662964 0.00670976 0)
(0.0637663 0.00645393 0)
(0.0613256 0.00620713 0)
(0.0589713 0.00596906 0)
(0.0567005 0.00573944 0)
(0.0545106 0.00551798 0)
(0.0523989 0.00530442 0)
(0.0503627 0.00509849 0)
(0.0483996 0.00489995 0)
(0.0465071 0.00470855 0)
(0.0446831 0.00452405 0)
(0.042925 0.00434623 0)
(0.0412309 0.00417487 0)
(0.0395985 0.00400974 0)
(0.0380258 0.00385064 0)
(0.0365108 0.00369738 0)
(0.0350515 0.00354975 0)
(0.0336462 0.00340757 0)
(0.032293 0.00327066 0)
(0.03099 0.00313882 0)
(0.0297357 0.00301191 0)
(0.0285283 0.00288974 0)
(0.0273663 0.00277215 0)
(0.0262481 0.00265899 0)
(0.0251722 0.00255011 0)
(0.0241372 0.00244535 0)
(0.0231415 0.00234458 0)
(0.0221839 0.00224766 0)
(0.021263 0.00215445 0)
(0.0203776 0.00206482 0)
(0.0195264 0.00197866 0)
(0.0187081 0.00189582 0)
(0.0179217 0.00181621 0)
(0.0171659 0.00173969 0)
(0.0164398 0.00166617 0)
(0.0157421 0.00159553 0)
(0.015072 0.00152768 0)
(0.0144284 0.0014625 0)
(0.0138103 0.00139992 0)
(0.0132168 0.00133982 0)
(0.0126471 0.00128212 0)
(0.0121001 0.00122673 0)
(0.0115753 0.00117357 0)
(0.0110715 0.00112255 0)
(0.0105883 0.00107359 0)
(0.0101245 0.00102663 0)
(0.00967989 0.00098157 0)
(0.00925323 0.000938374 0)
(0.00884432 0.000896916 0)
(0.00845201 0.000857206 0)
(0.00807617 0.000819086 0)
(0.00771567 0.000782603 0)
(0.0073704 0.000747572 0)
(0.00703935 0.000714075 0)
(0.00672235 0.000681898 0)
(0.0064185 0.000651163 0)
(0.00612765 0.000621621 0)
(0.0058489 0.000593444 0)
(0.00558223 0.00056633 0)
(0.00532663 0.00054052 0)
(0.00508229 0.000515643 0)
(0.00484806 0.00049202 0)
(0.00462431 0.00046921 0)
(0.00440985 0.000447596 0)
(0.004205 0.000426706 0)
(0.00400884 0.000406925 0)
(0.00382133 0.000387826 0)
(0.00364211 0.000369712 0)
(0.00347048 0.000352284 0)
(0.00330692 0.000335684 0)
(0.00314988 0.00031981 0)
(0.0030007 0.000304595 0)
(0.00285714 0.000290149 0)
(0.00272109 0.000276211 0)
(0.00259001 0.00026307 0)
(0.00246591 0.000250316 0)
(0.00234639 0.000238358 0)
(0.00223319 0.00022671 0)
(0.00212437 0.000215826 0)
(0.00202112 0.000205205 0)
(0.00192216 0.000195297 0)
(0.00182802 0.000185627 0)
(0.00173811 0.000176604 0)
(0.0016523 0.000167817 0)
(0.00157067 0.000159592 0)
(0.00149251 0.000151624 0)
(0.00141844 0.000144121 0)
(0.00134732 0.000136908 0)
(0.00128011 0.000130063 0)
(0.00121547 0.000123537 0)
(0.00115439 0.000117297 0)
(0.00109572 0.000111388 0)
(0.00103986 0.000105675 0)
(0.000987204 0.000100334 0)
(0.623679 0.0641728 0)
(0.5908 0.060735 0)
(0.560417 0.0575608 0)
(0.532519 0.0546508 0)
(0.506781 0.0519712 0)
(0.482925 0.0494925 0)
(0.460735 0.0471909 0)
(0.440032 0.0450467 0)
(0.420662 0.0430433 0)
(0.402496 0.0411667 0)
(0.385417 0.0394046 0)
(0.369328 0.0377463 0)
(0.35414 0.0361824 0)
(0.339777 0.0347048 0)
(0.32617 0.0333063 0)
(0.313259 0.0319803 0)
(0.300989 0.0307211 0)
(0.289312 0.0295236 0)
(0.278186 0.0283834 0)
(0.267571 0.0272962 0)
(0.257434 0.0262584 0)
(0.247741 0.0252667 0)
(0.238465 0.0243181 0)
(0.229581 0.0234099 0)
(0.221064 0.0225397 0)
(0.212894 0.0217052 0)
(0.205051 0.0209043 0)
(0.197517 0.0201353 0)
(0.190276 0.0193963 0)
(0.183313 0.0186859 0)
(0.176614 0.0180026 0)
(0.170166 0.0173451 0)
(0.163958 0.0167121 0)
(0.157978 0.0161025 0)
(0.152216 0.0155153 0)
(0.146664 0.0149494 0)
(0.141311 0.0144039 0)
(0.136149 0.013878 0)
(0.131172 0.0133709 0)
(0.12637 0.0128818 0)
(0.121738 0.01241 0)
(0.117269 0.0119548 0)
(0.112958 0.0115156 0)
(0.108796 0.0110918 0)
(0.104781 0.0106828 0)
(0.100905 0.0102881 0)
(0.0971645 0.00990713 0)
(0.0935549 0.00953958 0)
(0.0900707 0.0091847 0)
(0.0867084 0.00884229 0)
(0.083463 0.00851178 0)
(0.0803309 0.00819279 0)
(0.0773083 0.00788494 0)
(0.0743914 0.00758785 0)
(0.0715767 0.00730117 0)
(0.0688609 0.00702454 0)
(0.0662405 0.00675763 0)
(0.0637126 0.00650011 0)
(0.0612739 0.00625169 0)
(0.0589215 0.00601205 0)
(0.0566527 0.0057809 0)
(0.0544646 0.00555797 0)
(0.0523546 0.00534298 0)
(0.0503201 0.00513568 0)
(0.0483586 0.0049358 0)
(0.0464678 0.00474312 0)
(0.0446452 0.00455738 0)
(0.0428887 0.00437835 0)
(0.0411959 0.00420582 0)
(0.0395649 0.00403957 0)
(0.0379935 0.00387938 0)
(0.0364797 0.00372507 0)
(0.0350217 0.00357642 0)
(0.0336176 0.00343326 0)
(0.0322654 0.00329539 0)
(0.0309636 0.00316264 0)
(0.0297103 0.00303484 0)
(0.0285039 0.00291181 0)
(0.0273429 0.00279339 0)
(0.0262256 0.00267943 0)
(0.0251506 0.00256978 0)
(0.0241164 0.00246428 0)
(0.0231216 0.00236279 0)
(0.0221648 0.00226517 0)
(0.0212447 0.00217129 0)
(0.02036 0.00208101 0)
(0.0195094 0.00199422 0)
(0.0186919 0.00191078 0)
(0.0179061 0.00183059 0)
(0.017151 0.00175351 0)
(0.0164254 0.00167945 0)
(0.0157284 0.00160829 0)
(0.0150588 0.00153993 0)
(0.0144157 0.00147427 0)
(0.0137981 0.00141122 0)
(0.0132051 0.00135066 0)
(0.0126359 0.00129253 0)
(0.0120894 0.00123672 0)
(0.011565 0.00118316 0)
(0.0110616 0.00113175 0)
(0.0105788 0.00108242 0)
(0.0101154 0.0010351 0)
(0.00967117 0.000989693 0)
(0.00924486 0.000946162 0)
(0.00883629 0.000904386 0)
(0.00844431 0.000864363 0)
(0.00806878 0.00082595 0)
(0.00770859 0.000789176 0)
(0.00736361 0.000753876 0)
(0.00703283 0.000720107 0)
(0.0067161 0.000687685 0)
(0.0064125 0.000656697 0)
(0.0061219 0.000626929 0)
(0.00584338 0.000598516 0)
(0.00557693 0.000571196 0)
(0.00532155 0.000545165 0)
(0.00507742 0.000520102 0)
(0.00484339 0.00049627 0)
(0.00461982 0.000473293 0)
(0.00440554 0.000451482 0)
(0.00420087 0.000430441 0)
(0.00400487 0.000410476 0)
(0.00381752 0.00039124 0)
(0.00363845 0.000372955 0)
(0.00346696 0.000355401 0)
(0.00330354 0.000338645 0)
(0.00314664 0.000322651 0)
(0.00299759 0.000307298 0)
(0.00285415 0.000292738 0)
(0.00271822 0.00027868 0)
(0.00258725 0.000265425 0)
(0.00246325 0.000252569 0)
(0.00234383 0.000240499 0)
(0.00223072 0.000228764 0)
(0.002122 0.00021777 0)
(0.00201884 0.000207075 0)
(0.00191996 0.00019706 0)
(0.0018259 0.000187327 0)
(0.00173607 0.000178202 0)
(0.00165033 0.000169358 0)
(0.00156878 0.000161038 0)
(0.00149068 0.00015302 0)
(0.00141668 0.000145429 0)
(0.00134561 0.00013817 0)
(0.00127846 0.000131247 0)
(0.00121388 0.000124678 0)
(0.00115285 0.000118369 0)
(0.00109423 0.00011242 0)
(0.00103842 0.000106646 0)
(0.000985809 0.000101244 0)
(0.623138 0.0648298 0)
(0.59027 0.0613297 0)
(0.559927 0.0581047 0)
(0.532071 0.0551523 0)
(0.50637 0.0524362 0)
(0.482546 0.0499252 0)
(0.460385 0.0475948 0)
(0.439708 0.0454247 0)
(0.420361 0.043398 0)
(0.402214 0.0415002 0)
(0.385153 0.0397188 0)
(0.36908 0.0380428 0)
(0.353907 0.0364629 0)
(0.339557 0.0349705 0)
(0.325962 0.0335584 0)
(0.313062 0.0322198 0)
(0.300802 0.030949 0)
(0.289135 0.0297408 0)
(0.278018 0.0285906 0)
(0.267411 0.0274941 0)
(0.257281 0.0264476 0)
(0.247596 0.0254478 0)
(0.238327 0.0244915 0)
(0.229449 0.0235762 0)
(0.220938 0.0226992 0)
(0.212773 0.0218583 0)
(0.204935 0.0210514 0)
(0.197406 0.0202767 0)
(0.19017 0.0195323 0)
(0.183211 0.0188168 0)
(0.176517 0.0181286 0)
(0.170073 0.0174664 0)
(0.163868 0.016829 0)
(0.157892 0.0162152 0)
(0.152134 0.0156239 0)
(0.146584 0.0150541 0)
(0.141235 0.0145049 0)
(0.136076 0.0139754 0)
(0.131101 0.0134649 0)
(0.126303 0.0129725 0)
(0.121674 0.0124975 0)
(0.117207 0.0120393 0)
(0.112898 0.0115972 0)
(0.108739 0.0111705 0)
(0.104725 0.0107588 0)
(0.100852 0.0103615 0)
(0.0971133 0.00997792 0)
(0.0935057 0.00960794 0)
(0.0900235 0.00925069 0)
(0.0866629 0.00890599 0)
(0.0834193 0.00857327 0)
(0.0802889 0.00825215 0)
(0.0772679 0.00794224 0)
(0.0743525 0.00764316 0)
(0.0715393 0.00735455 0)
(0.0688249 0.00707605 0)
(0.066206 0.00680734 0)
(0.0636793 0.00654808 0)
(0.0612419 0.00629797 0)
(0.0588907 0.00605669 0)
(0.0566231 0.00582397 0)
(0.0544361 0.00559951 0)
(0.0523272 0.00538305 0)
(0.0502937 0.00517431 0)
(0.0483333 0.00497305 0)
(0.0464434 0.00477903 0)
(0.0446218 0.00459199 0)
(0.0428661 0.00441172 0)
(0.0411742 0.00423797 0)
(0.039544 0.00407055 0)
(0.0379734 0.00390923 0)
(0.0364605 0.00375382 0)
(0.0350032 0.00360412 0)
(0.0335997 0.00345993 0)
(0.0322483 0.00332108 0)
(0.0309471 0.00318737 0)
(0.0296944 0.00305864 0)
(0.0284887 0.00293472 0)
(0.0273282 0.00281544 0)
(0.0262115 0.00270065 0)
(0.025137 0.00259019 0)
(0.0241033 0.00248391 0)
(0.023109 0.00238167 0)
(0.0221527 0.00228333 0)
(0.0212331 0.00218875 0)
(0.0203488 0.0020978 0)
(0.0194987 0.00201036 0)
(0.0186816 0.00192629 0)
(0.0178962 0.00184549 0)
(0.0171414 0.00176783 0)
(0.0164162 0.0016932 0)
(0.0157195 0.0016215 0)
(0.0150503 0.00155262 0)
(0.0144075 0.00148645 0)
(0.0137902 0.00142291 0)
(0.0131976 0.00136189 0)
(0.0126286 0.00130331 0)
(0.0120824 0.00124706 0)
(0.0115582 0.00119308 0)
(0.0110551 0.00114127 0)
(0.0105725 0.00109155 0)
(0.0101094 0.00104385 0)
(0.00966537 0.000998083 0)
(0.00923927 0.000954203 0)
(0.00883091 0.000912094 0)
(0.00843912 0.000871747 0)
(0.00806378 0.000833029 0)
(0.00770378 0.000795952 0)
(0.00735897 0.000760372 0)
(0.00702836 0.000726321 0)
(0.00671179 0.000693641 0)
(0.00640834 0.00066239 0)
(0.00611788 0.000632388 0)
(0.0058395 0.000603728 0)
(0.00557319 0.000576195 0)
(0.00531794 0.000549933 0)
(0.00507393 0.000524677 0)
(0.00484002 0.000500627 0)
(0.00461657 0.000477476 0)
(0.00440239 0.000455461 0)
(0.00419783 0.000434264 0)
(0.00400193 0.000414107 0)
(0.00381467 0.000394729 0)
(0.0036357 0.000376267 0)
(0.0034643 0.000358581 0)
(0.00330096 0.000341665 0)
(0.00314413 0.000325546 0)
(0.00299516 0.00031005 0)
(0.0028518 0.000295368 0)
(0.00271593 0.000281186 0)
(0.00258503 0.000267812 0)
(0.00246109 0.000254851 0)
(0.00234174 0.000242663 0)
(0.00222869 0.000230838 0)
(0.00212002 0.00021973 0)
(0.00201692 0.000208959 0)
(0.00191809 0.000198834 0)
(0.00182407 0.000189035 0)
(0.00173429 0.000179806 0)
(0.0016486 0.000170906 0)
(0.00156709 0.000162488 0)
(0.00148903 0.000154419 0)
(0.00141507 0.000146739 0)
(0.00134404 0.000139433 0)
(0.00127692 0.00013243 0)
(0.00121237 0.000125815 0)
(0.00115138 0.000119437 0)
(0.00109279 0.000113446 0)
(0.00103701 0.000107608 0)
(0.000984425 0.000102144 0)
(0.622659 0.0655031 0)
(0.589829 0.0619443 0)
(0.559531 0.0586686 0)
(0.531716 0.0556724 0)
(0.50605 0.0529178 0)
(0.482256 0.0503729 0)
(0.46012 0.0480123 0)
(0.439464 0.0458151 0)
(0.420136 0.043764 0)
(0.402006 0.0418441 0)
(0.38496 0.0400426 0)
(0.3689 0.0383483 0)
(0.353738 0.0367517 0)
(0.339399 0.035244 0)
(0.325814 0.0338178 0)
(0.312922 0.0324662 0)
(0.30067 0.0311835 0)
(0.28901 0.0299642 0)
(0.2779 0.0288036 0)
(0.267299 0.0276975 0)
(0.257175 0.026642 0)
(0.247495 0.0256338 0)
(0.238231 0.0246697 0)
(0.229357 0.023747 0)
(0.220851 0.022863 0)
(0.21269 0.0220155 0)
(0.204856 0.0212025 0)
(0.197331 0.0204219 0)
(0.190098 0.0196719 0)
(0.183142 0.0189511 0)
(0.17645 0.0182579 0)
(0.170009 0.0175909 0)
(0.163807 0.0169489 0)
(0.157834 0.0163307 0)
(0.152078 0.0157352 0)
(0.146531 0.0151615 0)
(0.141183 0.0146085 0)
(0.136027 0.0140753 0)
(0.131054 0.0135613 0)
(0.126257 0.0130655 0)
(0.12163 0.0125872 0)
(0.117165 0.0121258 0)
(0.112857 0.0116807 0)
(0.1087 0.0112512 0)
(0.104688 0.0108366 0)
(0.100816 0.0104366 0)
(0.0970788 0.0100504 0)
(0.0934725 0.00967796 0)
(0.0899915 0.00931826 0)
(0.0866322 0.00897122 0)
(0.0833897 0.00863624 0)
(0.0802604 0.00831292 0)
(0.0772405 0.00800089 0)
(0.0743262 0.00769977 0)
(0.071514 0.00740917 0)
(0.0688005 0.00712877 0)
(0.0661824 0.0068582 0)
(0.0636566 0.00659715 0)
(0.0612201 0.00634531 0)
(0.0588697 0.00610236 0)
(0.0566029 0.00586801 0)
(0.0544166 0.00564198 0)
(0.0523084 0.005424 0)
(0.0502757 0.0052138 0)
(0.0483159 0.00501112 0)
(0.0464267 0.00481572 0)
(0.0446056 0.00462736 0)
(0.0428506 0.0044458 0)
(0.0411593 0.00427082 0)
(0.0395296 0.0041022 0)
(0.0379595 0.00393972 0)
(0.036447 0.00378319 0)
(0.0349902 0.0036324 0)
(0.0335873 0.00348717 0)
(0.0322363 0.0033473 0)
(0.0309355 0.00321261 0)
(0.0296833 0.00308294 0)
(0.0284779 0.0029581 0)
(0.0273178 0.00283794 0)
(0.0262015 0.0027223 0)
(0.0251274 0.00261101 0)
(0.024094 0.00250394 0)
(0.0231001 0.00240093 0)
(0.0221441 0.00230185 0)
(0.0212247 0.00220656 0)
(0.0203408 0.00211492 0)
(0.0194909 0.00202681 0)
(0.0186741 0.0019421 0)
(0.0178889 0.00186068 0)
(0.0171344 0.00178242 0)
(0.0164095 0.00170722 0)
(0.015713 0.00163496 0)
(0.015044 0.00156554 0)
(0.0144014 0.00149886 0)
(0.0137844 0.00143482 0)
(0.0131919 0.00137332 0)
(0.0126231 0.00131427 0)
(0.0120771 0.00125759 0)
(0.0115531 0.00120317 0)
(0.0110502 0.00115095 0)
(0.0105677 0.00110083 0)
(0.0101048 0.00105275 0)
(0.00966086 0.00100662 0)
(0.00923491 0.00096238 0)
(0.00882668 0.000919933 0)
(0.00843503 0.000879254 0)
(0.00805982 0.000840224 0)
(0.00769993 0.000802838 0)
(0.00735524 0.000766972 0)
(0.00702474 0.000732633 0)
(0.00670827 0.000699691 0)
(0.00640493 0.000668171 0)
(0.00611457 0.00063793 0)
(0.00583628 0.000609019 0)
(0.00557007 0.000581268 0)
(0.0053149 0.00055477 0)
(0.00507097 0.000529317 0)
(0.00483714 0.000505047 0)
(0.00461377 0.000481718 0)
(0.00439966 0.000459495 0)
(0.00419517 0.000438137 0)
(0.00399933 0.000417786 0)
(0.00381214 0.000398262 0)
(0.00363323 0.00037962 0)
(0.00346189 0.0003618 0)
(0.00329861 0.00034472 0)
(0.00314183 0.000328473 0)
(0.00299292 0.000312833 0)
(0.0028496 0.000298026 0)
(0.00271378 0.000283719 0)
(0.00258292 0.000270223 0)
(0.00245903 0.000257154 0)
(0.00233971 0.000244847 0)
(0.00222671 0.00023293 0)
(0.00211808 0.000221706 0)
(0.00201501 0.000210856 0)
(0.00191622 0.00020062 0)
(0.00182223 0.000190754 0)
(0.00173248 0.000181418 0)
(0.00164682 0.000172459 0)
(0.00156534 0.000163942 0)
(0.00148731 0.00015582 0)
(0.00141337 0.00014805 0)
(0.00134237 0.000140694 0)
(0.00127527 0.00013361 0)
(0.00121075 0.000126949 0)
(0.00114977 0.0001205 0)
(0.0010912 0.000114465 0)
(0.00103545 0.000108563 0)
(0.000982884 0.000103036 0)
(0.622254 0.0661862 0)
(0.589465 0.0625658 0)
(0.55921 0.0592386 0)
(0.531432 0.0561982 0)
(0.505797 0.0534051 0)
(0.482028 0.0508261 0)
(0.459914 0.048435 0)
(0.439276 0.0462106 0)
(0.419963 0.0441348 0)
(0.401846 0.0421925 0)
(0.384813 0.0403708 0)
(0.368763 0.0386581 0)
(0.353611 0.0370445 0)
(0.33928 0.0355213 0)
(0.325702 0.0340808 0)
(0.312817 0.0327161 0)
(0.300571 0.0314212 0)
(0.288917 0.0301906 0)
(0.277811 0.0290196 0)
(0.267216 0.0279037 0)
(0.257096 0.0268392 0)
(0.24742 0.0258224 0)
(0.238159 0.0248504 0)
(0.229289 0.0239201 0)
(0.220786 0.0230291 0)
(0.212628 0.022175 0)
(0.204797 0.0213556 0)
(0.197274 0.020569 0)
(0.190044 0.0198135 0)
(0.183091 0.0190873 0)
(0.176401 0.018389 0)
(0.169962 0.0177171 0)
(0.163762 0.0170705 0)
(0.15779 0.0164478 0)
(0.152036 0.0158481 0)
(0.146491 0.0152703 0)
(0.141145 0.0147134 0)
(0.13599 0.0141765 0)
(0.131019 0.0136589 0)
(0.126223 0.0131596 0)
(0.121597 0.0126781 0)
(0.117134 0.0122135 0)
(0.112827 0.0117653 0)
(0.108671 0.0113328 0)
(0.10466 0.0109155 0)
(0.100789 0.0105127 0)
(0.0970529 0.0101239 0)
(0.0934475 0.00974885 0)
(0.0899675 0.00938667 0)
(0.086609 0.00903726 0)
(0.0833674 0.00869997 0)
(0.0802389 0.00837444 0)
(0.0772197 0.00806026 0)
(0.0743062 0.00775705 0)
(0.0714947 0.00746445 0)
(0.0687819 0.00718211 0)
(0.0661645 0.00690966 0)
(0.0636393 0.0066468 0)
(0.0612034 0.0063932 0)
(0.0588536 0.00614855 0)
(0.0565873 0.00591256 0)
(0.0544017 0.00568495 0)
(0.052294 0.00546543 0)
(0.0502617 0.00525374 0)
(0.0483024 0.00504963 0)
(0.0464136 0.00485283 0)
(0.0445931 0.00466313 0)
(0.0428384 0.00448027 0)
(0.0411475 0.00430403 0)
(0.0395183 0.00413419 0)
(0.0379486 0.00397054 0)
(0.0364365 0.00381287 0)
(0.0349801 0.00366099 0)
(0.0335774 0.00351469 0)
(0.0322267 0.0033738 0)
(0.0309263 0.00323812 0)
(0.0296744 0.00310749 0)
(0.0284693 0.00298173 0)
(0.0273095 0.00286068 0)
(0.0261935 0.00274417 0)
(0.0251196 0.00263205 0)
(0.0240865 0.00252418 0)
(0.0230928 0.00242039 0)
(0.022137 0.00232056 0)
(0.0212179 0.00222454 0)
(0.0203342 0.00213221 0)
(0.0194845 0.00204342 0)
(0.0186679 0.00195806 0)
(0.0178829 0.00187601 0)
(0.0171286 0.00179715 0)
(0.0164038 0.00172137 0)
(0.0157075 0.00164855 0)
(0.0150387 0.00157859 0)
(0.0143963 0.00151139 0)
(0.0137794 0.00144684 0)
(0.013187 0.00138486 0)
(0.0126184 0.00132534 0)
(0.0120725 0.00126821 0)
(0.0115486 0.00121336 0)
(0.0110459 0.00116072 0)
(0.0105635 0.0011102 0)
(0.0101007 0.00106173 0)
(0.0096569 0.00101522 0)
(0.00923105 0.000970629 0)
(0.00882293 0.000927839 0)
(0.00843138 0.000886825 0)
(0.00805626 0.000847481 0)
(0.00769646 0.000809782 0)
(0.00735186 0.000773627 0)
(0.00702144 0.000738996 0)
(0.00670506 0.00070579 0)
(0.00640179 0.000673998 0)
(0.00611151 0.000643515 0)
(0.00583329 0.00061435 0)
(0.00556714 0.000586379 0)
(0.00531204 0.000559644 0)
(0.00506818 0.00053399 0)
(0.00483441 0.000509498 0)
(0.00461109 0.000485988 0)
(0.00439704 0.000463555 0)
(0.0041926 0.000442035 0)
(0.00399682 0.000421488 0)
(0.00380967 0.000401817 0)
(0.00363081 0.000382993 0)
(0.00345951 0.000365036 0)
(0.00329627 0.000347792 0)
(0.00313954 0.000331415 0)
(0.00299066 0.000315628 0)
(0.00284738 0.000300697 0)
(0.0027116 0.000286262 0)
(0.00258078 0.000272644 0)
(0.00245692 0.000259464 0)
(0.00233764 0.000247038 0)
(0.00222466 0.000235027 0)
(0.00211606 0.000223686 0)
(0.00201302 0.000212757 0)
(0.00191426 0.000202408 0)
(0.00182029 0.000192473 0)
(0.00173057 0.000183031 0)
(0.00164493 0.000174012 0)
(0.00156347 0.000165396 0)
(0.00148546 0.000157219 0)
(0.00141154 0.000149358 0)
(0.00134056 0.000141952 0)
(0.00127348 0.000134786 0)
(0.00120898 0.000128078 0)
(0.00114802 0.000121557 0)
(0.00108946 0.000115479 0)
(0.00103372 0.000109512 0)
(0.000981177 0.00010392 0)
(0.621885 0.0668673 0)
(0.589155 0.0631907 0)
(0.558943 0.0598126 0)
(0.531199 0.0567281 0)
(0.50559 0.0538962 0)
(0.481843 0.0512828 0)
(0.459747 0.0488611 0)
(0.439124 0.0466091 0)
(0.419824 0.0445085 0)
(0.401718 0.0425438 0)
(0.384694 0.0407016 0)
(0.368653 0.0389702 0)
(0.353508 0.0373396 0)
(0.339184 0.0358008 0)
(0.325612 0.0343459 0)
(0.312733 0.032968 0)
(0.300492 0.0316608 0)
(0.288842 0.0304188 0)
(0.277741 0.0292372 0)
(0.267149 0.0281115 0)
(0.257032 0.0270378 0)
(0.247359 0.0260125 0)
(0.238102 0.0250324 0)
(0.229235 0.0240946 0)
(0.220734 0.0231965 0)
(0.212579 0.0223356 0)
(0.20475 0.0215099 0)
(0.197229 0.0207173 0)
(0.19 0.019956 0)
(0.183049 0.0192244 0)
(0.176361 0.0185209 0)
(0.169924 0.0178442 0)
(0.163726 0.0171929 0)
(0.157755 0.0165658 0)
(0.152003 0.0159618 0)
(0.146458 0.0153799 0)
(0.141114 0.014819 0)
(0.13596 0.0142784 0)
(0.13099 0.0137571 0)
(0.126195 0.0132544 0)
(0.12157 0.0127696 0)
(0.117108 0.0123018 0)
(0.112802 0.0118505 0)
(0.108647 0.011415 0)
(0.104637 0.0109948 0)
(0.100767 0.0105893 0)
(0.0970314 0.0101978 0)
(0.0934268 0.00982019 0)
(0.0899475 0.00945551 0)
(0.0865897 0.00910371 0)
(0.0833488 0.00876411 0)
(0.0802209 0.00843634 0)
(0.0772024 0.00811999 0)
(0.0742894 0.0078147 0)
(0.0714785 0.00752008 0)
(0.0687662 0.00723577 0)
(0.0661494 0.00696144 0)
(0.0636247 0.00669675 0)
(0.0611893 0.00644138 0)
(0.05884 0.00619502 0)
(0.0565741 0.00595738 0)
(0.0543889 0.00572816 0)
(0.0522817 0.0055071 0)
(0.0502498 0.00529392 0)
(0.0482909 0.00508836 0)
(0.0464025 0.00489016 0)
(0.0445823 0.00469911 0)
(0.042828 0.00451494 0)
(0.0411375 0.00433744 0)
(0.0395085 0.00416637 0)
(0.0379391 0.00400154 0)
(0.0364274 0.00384273 0)
(0.0349712 0.00368974 0)
(0.0335688 0.00354238 0)
(0.0322184 0.00340045 0)
(0.0309183 0.00326378 0)
(0.0296666 0.00313218 0)
(0.0284618 0.00300549 0)
(0.0273022 0.00288354 0)
(0.0261864 0.00276617 0)
(0.0251127 0.00265321 0)
(0.0240799 0.00254453 0)
(0.0230863 0.00243996 0)
(0.0221308 0.00233937 0)
(0.0212118 0.00224263 0)
(0.0203283 0.00214959 0)
(0.0194788 0.00206013 0)
(0.0186623 0.00197412 0)
(0.0178775 0.00189144 0)
(0.0171234 0.00181197 0)
(0.0163987 0.0017356 0)
(0.0157026 0.00166221 0)
(0.0150339 0.00159171 0)
(0.0143916 0.00152398 0)
(0.0137748 0.00145893 0)
(0.0131826 0.00139646 0)
(0.0126141 0.00133647 0)
(0.0120683 0.00127889 0)
(0.0115446 0.0012236 0)
(0.0110419 0.00117054 0)
(0.0105597 0.00111961 0)
(0.0100969 0.00107076 0)
(0.00965323 0.00102388 0)
(0.00922747 0.000978921 0)
(0.00881944 0.000935787 0)
(0.00842797 0.000894436 0)
(0.00805293 0.000854775 0)
(0.00769321 0.000816762 0)
(0.00734868 0.000780316 0)
(0.00701833 0.000745392 0)
(0.00670202 0.000711919 0)
(0.00639882 0.000679855 0)
(0.0061086 0.000649127 0)
(0.00583044 0.000619708 0)
(0.00556435 0.000591514 0)
(0.0053093 0.000564541 0)
(0.00506549 0.000538686 0)
(0.00483177 0.000513969 0)
(0.00460851 0.000490278 0)
(0.00439451 0.000467635 0)
(0.00419011 0.000445951 0)
(0.00399437 0.000425207 0)
(0.00380727 0.000405386 0)
(0.00362844 0.00038638 0)
(0.00345718 0.000368285 0)
(0.00329398 0.000350876 0)
(0.00313728 0.000334368 0)
(0.00298844 0.000318435 0)
(0.00284519 0.000303377 0)
(0.00270944 0.000288814 0)
(0.00257865 0.000275072 0)
(0.00245482 0.000261783 0)
(0.00233556 0.000249235 0)
(0.00222261 0.000237131 0)
(0.00211403 0.000225672 0)
(0.00201102 0.000214662 0)
(0.00191228 0.000204201 0)
(0.00181834 0.000194196 0)
(0.00172863 0.000184647 0)
(0.00164301 0.000175567 0)
(0.00156157 0.000166851 0)
(0.00148358 0.00015862 0)
(0.00140968 0.000150667 0)
(0.00133872 0.000143211 0)
(0.00127165 0.000135963 0)
(0.00120716 0.000129206 0)
(0.00114622 0.000122614 0)
(0.00108768 0.000116491 0)
(0.00103195 0.000110459 0)
(0.000979421 0.000104803 0)
(0.621551 0.0675529 0)
(0.588886 0.0638188 0)
(0.558716 0.0603898 0)
(0.531001 0.0572609 0)
(0.505415 0.0543899 0)
(0.481686 0.051742 0)
(0.459605 0.0492895 0)
(0.438995 0.0470098 0)
(0.419706 0.0448842 0)
(0.401609 0.0428968 0)
(0.384593 0.041034 0)
(0.368559 0.0392839 0)
(0.353421 0.0376361 0)
(0.339102 0.0360816 0)
(0.325536 0.0346122 0)
(0.312661 0.0332209 0)
(0.300424 0.0319014 0)
(0.288778 0.0306481 0)
(0.27768 0.0294559 0)
(0.267091 0.0283203 0)
(0.256978 0.0272374 0)
(0.247307 0.0262034 0)
(0.238053 0.0252152 0)
(0.229187 0.0242698 0)
(0.220689 0.0233645 0)
(0.212536 0.0224969 0)
(0.204709 0.0216648 0)
(0.19719 0.0208662 0)
(0.189963 0.0200992 0)
(0.183013 0.0193621 0)
(0.176326 0.0186535 0)
(0.16989 0.0179718 0)
(0.163693 0.0173157 0)
(0.157724 0.0166842 0)
(0.151973 0.0160759 0)
(0.14643 0.0154898 0)
(0.141086 0.0149251 0)
(0.135933 0.0143807 0)
(0.130964 0.0138558 0)
(0.126171 0.0133496 0)
(0.121547 0.0128614 0)
(0.117085 0.0123904 0)
(0.11278 0.011936 0)
(0.108626 0.0114975 0)
(0.104616 0.0110744 0)
(0.100747 0.0106662 0)
(0.0970122 0.0102719 0)
(0.0934083 0.00989178 0)
(0.0899296 0.00952459 0)
(0.0865724 0.00917039 0)
(0.0833321 0.00882846 0)
(0.0802048 0.00849844 0)
(0.0771868 0.00817993 0)
(0.0742743 0.00787253 0)
(0.0714639 0.00757588 0)
(0.0687521 0.00728962 0)
(0.0661357 0.00701339 0)
(0.0636115 0.00674686 0)
(0.0611765 0.00648972 0)
(0.0588277 0.00624165 0)
(0.0565622 0.00600235 0)
(0.0543774 0.00577153 0)
(0.0522705 0.00554891 0)
(0.050239 0.00533423 0)
(0.0482804 0.00512722 0)
(0.0463924 0.00492762 0)
(0.0445725 0.00473521 0)
(0.0428185 0.00454973 0)
(0.0411283 0.00437096 0)
(0.0394996 0.00419867 0)
(0.0379305 0.00403265 0)
(0.036419 0.00387269 0)
(0.0349631 0.00371859 0)
(0.033561 0.00357016 0)
(0.0322109 0.0034272 0)
(0.0309109 0.00328953 0)
(0.0296595 0.00315697 0)
(0.0284549 0.00302934 0)
(0.0272955 0.00290649 0)
(0.0261799 0.00278825 0)
(0.0251064 0.00267445 0)
(0.0240738 0.00256495 0)
(0.0230804 0.00245961 0)
(0.022125 0.00235826 0)
(0.0212062 0.00226079 0)
(0.0203229 0.00216705 0)
(0.0194736 0.0020769 0)
(0.0186572 0.00199024 0)
(0.0178726 0.00190693 0)
(0.0171186 0.00182685 0)
(0.016394 0.00174989 0)
(0.015698 0.00167594 0)
(0.0150294 0.00160489 0)
(0.0143873 0.00153664 0)
(0.0137706 0.00147107 0)
(0.0131785 0.00140812 0)
(0.0126101 0.00134766 0)
(0.0120645 0.00128962 0)
(0.0115408 0.00123389 0)
(0.0110382 0.00118042 0)
(0.0105561 0.00112908 0)
(0.0100934 0.00107984 0)
(0.00964982 0.00103258 0)
(0.00922415 0.000987262 0)
(0.0088162 0.000943783 0)
(0.0084248 0.000902093 0)
(0.00804983 0.000862115 0)
(0.00769019 0.000823787 0)
(0.00734572 0.000787049 0)
(0.00701545 0.000751832 0)
(0.00669919 0.000718092 0)
(0.00639605 0.000685754 0)
(0.00610589 0.000654782 0)
(0.00582779 0.000625107 0)
(0.00556175 0.00059669 0)
(0.00530675 0.000569478 0)
(0.005063 0.000543421 0)
(0.00482932 0.00051848 0)
(0.0046061 0.000494606 0)
(0.00439214 0.000471752 0)
(0.00418779 0.000449903 0)
(0.00399209 0.000428962 0)
(0.00380503 0.000408992 0)
(0.00362624 0.000389803 0)
(0.00345501 0.00037157 0)
(0.00329185 0.000353994 0)