/*--------------------------------*- C++ -*----------------------------------*\
| =========                 |                                                 |
| \\      /  F ield         | OpenFOAM: The Open Source CFD Toolbox           |
|  \\    /   O peration     | Version:  v1912                                 |
|   \\  /    A nd           | Website:  www.openfoam.com                      |
|    \\/     M anipulation  |                                                 |
\*---------------------------------------------------------------------------*/
FoamFile
{
    version     2.0;
    format      ascii;
    class       volVectorField;
    location    "80";
    object      U;
}
// * * * * * * * * * * * * * * * * * * * * * * * * * * * * * * * * * * * * * //

dimensions      [0 1 -1 0 0 0 0];


internalField   nonuniform List<vector> 
14268
(
(1.8938 0.0172871 0)
(1.78101 0.0185207 0)
(1.66591 0.0198153 0)
(1.54196 0.0211615 0)
(1.41232 0.0225322 0)
(1.27551 0.0239143 0)
(1.13276 0.0252865 0)
(0.983831 0.026629 0)
(0.829441 0.0279146 0)
(0.669841 0.0291106 0)
(0.505726 0.0301763 0)
(0.337726 0.0310671 0)
(0.166787 0.0317352 0)
(-0.00592776 0.0321248 0)
(-0.178952 0.0321872 0)
(-0.350621 0.0318779 0)
(-0.519075 0.0311852 0)
(-0.682414 0.0301297 0)
(-0.838801 0.0287357 0)
(-0.986531 0.0270151 0)
(-1.12413 0.0249904 0)
(-1.25014 0.0227017 0)
(-1.36344 0.0202047 0)
(-1.46301 0.0175637 0)
(-1.54796 0.0147824 0)
(-1.61742 0.0118766 0)
(-1.67072 0.00893057 0)
(-1.70765 0.00601816 0)
(-1.72857 0.00319415 0)
(-1.73448 0.000190715 0)
(-1.72487 -0.00241631 0)
(-1.70252 -0.00477124 0)
(-1.66859 -0.00686445 0)
(-1.62475 -0.00860335 0)
(-1.57267 -0.0100291 0)
(-1.51407 -0.0111194 0)
(-1.45057 -0.01194 0)
(-1.3839 -0.0123585 0)
(-1.31555 -0.0125373 0)
(-1.24709 -0.0123224 0)
(-1.18002 -0.0119185 0)
(-1.1157 -0.0110975 0)
(-1.05538 -0.0102061 0)
(-1.00021 -0.00906301 0)
(-0.951222 -0.00775685 0)
(-0.909068 -0.00632816 0)
(-0.874549 -0.00476794 0)
(-0.847934 -0.00323934 0)
(-0.82901 -0.00177038 0)
(-0.818108 -0.000275361 0)
(-0.815034 0.00118314 0)
(-0.819216 0.00247676 0)
(-0.830478 0.00375956 0)
(-0.848275 0.00481339 0)
(-0.871312 0.00564033 0)
(-0.899205 0.00640208 0)
(-0.931083 0.00697023 0)
(-0.965764 0.00732953 0)
(-1.00265 0.00761597 0)
(-1.04083 0.00773025 0)
(-1.07939 0.00766885 0)
(-1.11768 0.00755049 0)
(-1.15502 0.00734051 0)
(-1.19092 0.00700507 0)
(-1.22506 0.00661362 0)
(-1.25711 0.00618733 0)
(-1.28678 0.00573237 0)
(-1.31404 0.00525255 0)
(-1.33896 0.00478346 0)
(-1.36164 0.00433892 0)
(-1.38231 0.00393897 0)
(-1.40132 0.00363482 0)
(-1.41873 0.00347536 0)
(-1.43443 0.00339061 0)
(-1.44887 0.00328333 0)
(-1.46213 0.0031464 0)
(-1.47314 0.0027048 0)
(-1.48119 0.00199215 0)
(-1.486 0.00132081 0)
(-1.48724 7.20533e-05 0)
(-1.48226 -0.00113539 0)
(-1.47131 -0.00206543 0)
(-1.45461 -0.00242797 0)
(-1.43571 -0.00529038 0)
(-1.40988 -0.00904142 0)
(-1.36815 -0.016233 0)
(1.8941 0.061484 0)
(1.78122 0.0653747 0)
(1.66601 0.0693116 0)
(1.54193 0.0732151 0)
(1.41214 0.0769986 0)
(1.27519 0.080612 0)
(1.13232 0.0840098 0)
(0.983288 0.0871643 0)
(0.828828 0.0900484 0)
(0.669187 0.0926262 0)
(0.505053 0.0948393 0)
(0.337045 0.0965969 0)
(0.166094 0.0977839 0)
(-0.00665489 0.098238 0)
(-0.179749 0.0978315 0)
(-0.35153 0.0964489 0)
(-0.520132 0.0940239 0)
(-0.683659 0.0905416 0)
(-0.840278 0.0860513 0)
(-0.988273 0.0806527 0)
(-1.12616 0.0744474 0)
(-1.25246 0.0675235 0)
(-1.36602 0.0599772 0)
(-1.46582 0.051913 0)
(-1.55095 0.0433739 0)
(-1.62053 0.0344592 0)
(-1.67387 0.0253168 0)
(-1.71077 0.016145 0)
(-1.73159 0.00732807 0)
(-1.7373 -0.00173483 0)
(-1.72749 -0.00949932 0)
(-1.70489 -0.01651 0)
(-1.67068 -0.0226215 0)
(-1.62654 -0.0278079 0)
(-1.57415 -0.0320453 0)
(-1.51523 -0.0352446 0)
(-1.45143 -0.0376172 0)
(-1.38446 -0.0389374 0)
(-1.31583 -0.0396053 0)
(-1.24711 -0.0391875 0)
(-1.1798 -0.0382253 0)
(-1.11528 -0.0362925 0)
(-1.05477 -0.0338049 0)
(-0.99945 -0.0305849 0)
(-0.950341 -0.0268627 0)
(-0.908105 -0.0228627 0)
(-0.87354 -0.018467 0)
(-0.846913 -0.0140271 0)
(-0.828019 -0.00964955 0)
(-0.817154 -0.00510555 0)
(-0.81412 -0.000670474 0)
(-0.818383 0.00331959 0)
(-0.829741 0.00730371 0)
(-0.847626 0.0107563 0)
(-0.870761 0.0136859 0)
(-0.898756 0.0163562 0)
(-0.930742 0.0184023 0)
(-0.965548 0.019854 0)
(-1.00256 0.0209049 0)
(-1.04087 0.0214317 0)
(-1.07952 0.0214932 0)
(-1.11788 0.0212158 0)
(-1.15529 0.0205755 0)
(-1.19125 0.0196405 0)
(-1.22544 0.0185438 0)
(-1.25753 0.01729 0)
(-1.28723 0.0158987 0)
(-1.31449 0.0145127 0)
(-1.3394 0.0132705 0)
(-1.36205 0.0121367 0)
(-1.38267 0.0110792 0)
(-1.40161 0.0101121 0)
(-1.41897 0.00918529 0)
(-1.43467 0.00816638 0)
(-1.44915 0.00710083 0)
(-1.46246 0.00623844 0)
(-1.47354 0.00474055 0)
(-1.48167 0.00286301 0)
(-1.48656 0.00126269 0)
(-1.48804 -0.00152748 0)
(-1.48355 -0.00486011 0)
(-1.47299 -0.00850811 0)
(-1.45546 -0.012656 0)
(-1.43216 -0.0127463 0)
(-1.39905 -0.0113783 0)
(-1.36715 -0.0158321 0)
(1.89568 0.0989662 0)
(1.78282 0.105355 0)
(1.66758 0.111882 0)
(1.54345 0.118424 0)
(1.41357 0.124845 0)
(1.27651 0.131071 0)
(1.13351 0.137025 0)
(0.984336 0.142651 0)
(0.829728 0.14788 0)
(0.669925 0.152621 0)
(0.505602 0.156745 0)
(0.337366 0.160075 0)
(0.166132 0.162405 0)
(-0.00695617 0.163476 0)
(-0.180439 0.163043 0)
(-0.352659 0.160903 0)
(-0.521747 0.156964 0)
(-0.685778 0.151266 0)
(-0.842893 0.143902 0)
(-0.991375 0.13499 0)
(-1.12974 0.124704 0)
(-1.25646 0.113227 0)
(-1.37039 0.100705 0)
(-1.47052 0.08727 0)
(-1.55593 0.0730537 0)
(-1.6257 0.0582433 0)
(-1.67912 0.0431389 0)
(-1.71596 0.0280887 0)
(-1.73658 0.0135278 0)
(-1.74192 -0.00156348 0)
(-1.73169 -0.014574 0)
(-1.7086 -0.0263053 0)
(-1.67388 -0.036602 0)
(-1.6292 -0.0452565 0)
(-1.57626 -0.0523366 0)
(-1.51682 -0.0577131 0)
(-1.4525 -0.0617114 0)
(-1.38504 -0.0638662 0)
(-1.31593 -0.0648684 0)
(-1.24677 -0.0640114 0)
(-1.17902 -0.0622096 0)
(-1.11411 -0.0586804 0)
(-1.05325 -0.0544412 0)
(-0.997618 -0.0489206 0)
(-0.948273 -0.0425723 0)
(-0.905875 -0.0356839 0)
(-0.871207 -0.0281386 0)
(-0.844514 -0.020609 0)
(-0.825611 -0.0132632 0)
(-0.814812 -0.00571644 0)
(-0.811881 0.00162593 0)
(-0.816266 0.00818334 0)
(-0.827778 0.0147178 0)
(-0.84583 0.0202891 0)
(-0.869176 0.0249 0)
(-0.897389 0.0291123 0)
(-0.929566 0.0323362 0)
(-0.964552 0.0346174 0)
(-1.00173 0.0363671 0)
(-1.04022 0.0372247 0)
(-1.0791 0.0370658 0)
(-1.11774 0.0364387 0)
(-1.15537 0.0352908 0)
(-1.19151 0.0336375 0)
(-1.22581 0.0317481 0)
(-1.25796 0.0296374 0)
(-1.28767 0.0273337 0)
(-1.31489 0.0249876 0)
(-1.33973 0.0228018 0)
(-1.36231 0.0207634 0)
(-1.38291 0.0188735 0)
(-1.40188 0.0172734 0)
(-1.41929 0.0160336 0)
(-1.43504 0.0148987 0)
(-1.44959 0.0136509 0)
(-1.46297 0.0125145 0)
(-1.47413 0.0101666 0)
(-1.48235 0.00690023 0)
(-1.48737 0.00398448 0)
(-1.48923 -0.00111197 0)
(-1.4855 -0.00672168 0)
(-1.47627 -0.012601 0)
(-1.46125 -0.01903 0)
(-1.44112 -0.026155 0)
(-1.41085 -0.0293368 0)
(-1.37849 -0.0373615 0)
(1.89823 0.141107 0)
(1.78536 0.150139 0)
(1.67002 0.159331 0)
(1.54573 0.168492 0)
(1.41561 0.177422 0)
(1.27828 0.186008 0)
(1.13499 0.194142 0)
(0.985543 0.201756 0)
(0.830676 0.208776 0)
(0.670625 0.215108 0)
(0.506048 0.220597 0)
(0.337528 0.225022 0)
(0.165946 0.228095 0)
(-0.00758445 0.229451 0)
(-0.181611 0.228734 0)
(-0.354443 0.225698 0)
(-0.52418 0.220183 0)
(-0.688892 0.212166 0)
(-0.846708 0.201783 0)
(-0.995881 0.189268 0)
(-1.13492 0.174835 0)
(-1.26231 0.158711 0)
(-1.37686 0.141093 0)
(-1.47752 0.122118 0)
(-1.56332 0.102022 0)
(-1.63334 0.0810851 0)
(-1.68683 0.0596713 0)
(-1.72359 0.0382701 0)
(-1.74392 0.0175376 0)
(-1.74872 -0.00363989 0)
(-1.73796 -0.0218676 0)
(-1.71423 -0.038318 0)
(-1.67879 -0.0526714 0)
(-1.63333 -0.0648066 0)
(-1.57961 -0.0747039 0)
(-1.51936 -0.0821909 0)
(-1.45424 -0.0877208 0)
(-1.38602 -0.0907714 0)
(-1.31615 -0.0922328 0)
(-1.24631 -0.0911676 0)
(-1.17791 -0.0887781 0)
(-1.11244 -0.0840753 0)
(-1.05107 -0.0781094 0)
(-0.995004 -0.0704407 0)
(-0.945305 -0.0616054 0)
(-0.902662 -0.0520878 0)
(-0.867857 -0.0416775 0)
(-0.841119 -0.0312218 0)
(-0.822271 -0.0209316 0)
(-0.811549 -0.0102988 0)
(-0.808715 6.67454e-05 0)
(-0.813314 0.00941236 0)
(-0.825063 0.0186717 0)
(-0.843353 0.0266129 0)
(-0.867005 0.0332909 0)
(-0.895561 0.0393552 0)
(-0.928099 0.0439643 0)
(-0.963499 0.0472017 0)
(-1.00111 0.0495598 0)
(-1.03998 0.0507931 0)
(-1.07918 0.0509407 0)
(-1.11807 0.0502955 0)
(-1.15592 0.048772 0)
(-1.19225 0.0465031 0)
(-1.22671 0.0438625 0)
(-1.25896 0.0408689 0)
(-1.28872 0.0375755 0)
(-1.31595 0.0342795 0)
(-1.34073 0.0312965 0)
(-1.3632 0.0285866 0)
(-1.38362 0.026116 0)
(-1.4024 0.0239154 0)
(-1.41967 0.02192 0)
(-1.43543 0.0198412 0)
(-1.45009 0.0176431 0)
(-1.46368 0.0157906 0)
(-1.47519 0.0123604 0)
(-1.48382 0.007934 0)
(-1.48912 0.0041115 0)
(-1.49121 -0.00216469 0)
(-1.48743 -0.00981782 0)
(-1.47771 -0.0180236 0)
(-1.46183 -0.0274516 0)
(-1.44094 -0.0320006 0)
(-1.412 -0.0340976 0)
(-1.38324 -0.0426106 0)
(1.90185 0.180694 0)
(1.78899 0.192311 0)
(1.67357 0.204131 0)
(1.54911 0.215915 0)
(1.41876 0.227413 0)
(1.28114 0.238486 0)
(1.13753 0.249007 0)
(0.987751 0.258892 0)
(0.832547 0.268047 0)
(0.67214 0.276337 0)
(0.507167 0.283555 0)
(0.338185 0.289399 0)
(0.166046 0.293501 0)
(-0.00814665 0.295387 0)
(-0.182931 0.294592 0)
(-0.356622 0.290731 0)
(-0.527297 0.283629 0)
(-0.692948 0.273355 0)
(-0.851678 0.260053 0)
(-1.00177 0.243923 0)
(-1.14171 0.22534 0)
(-1.26993 0.204654 0)
(-1.38525 0.181998 0)
(-1.48659 0.15758 0)
(-1.57293 0.13173 0)
(-1.6433 0.104789 0)
(-1.69692 0.0772925 0)
(-1.73357 0.0499144 0)
(-1.75353 0.0231932 0)
(-1.7576 -0.00403441 0)
(-1.74607 -0.0275844 0)
(-1.72146 -0.0487905 0)
(-1.68506 -0.0673843 0)
(-1.63861 -0.0830011 0)
(-1.58387 -0.0957372 0)
(-1.52261 -0.105418 0)
(-1.45649 -0.112546 0)
(-1.38731 -0.116436 0)
(-1.31651 -0.118194 0)
(-1.24579 -0.116684 0)
(-1.17654 -0.113389 0)
(-1.11029 -0.107028 0)
(-1.04819 -0.0993656 0)
(-0.991533 -0.0893705 0)
(-0.941375 -0.0778807 0)
(-0.898416 -0.065385 0)
(-0.863399 -0.0517346 0)
(-0.83653 -0.0381028 0)
(-0.817692 -0.0247683 0)
(-0.807119 -0.0110887 0)
(-0.804469 0.00216916 0)
(-0.809264 0.0140974 0)
(-0.821272 0.0259298 0)
(-0.839844 0.0360908 0)
(-0.863879 0.0445874 0)
(-0.892895 0.0523064 0)
(-0.92593 0.058201 0)
(-0.961868 0.0623994 0)
(-1 0.0655752 0)
(-1.03939 0.0669191 0)
(-1.07911 0.0666334 0)
(-1.11844 0.0654835 0)
(-1.15664 0.0633895 0)
(-1.19325 0.0604114 0)
(-1.2279 0.0569661 0)
(-1.26026 0.0530936 0)
(-1.29006 0.048878 0)
(-1.31725 0.0446083 0)
(-1.34195 0.0406326 0)
(-1.36433 0.036965 0)
(-1.38468 0.0335966 0)
(-1.40338 0.0307336 0)
(-1.42059 0.0284844 0)
(-1.43633 0.0264355 0)
(-1.45104 0.0241615 0)
(-1.46479 0.0221001 0)
(-1.47661 0.01792 0)
(-1.48565 0.0121796 0)
(-1.49125 0.00694814 0)
(-1.49379 -0.00167158 0)
(-1.49067 -0.0117785 0)
(-1.48171 -0.0222323 0)
(-1.46693 -0.0336121 0)
(-1.44692 -0.0433146 0)
(-1.41884 -0.048943 0)
(-1.39058 -0.057462 0)
(1.9065 0.221751 0)
(1.79368 0.236006 0)
(1.67814 0.250494 0)
(1.55347 0.264932 0)
(1.42278 0.278999 0)
(1.28475 0.292513 0)
(1.1407 0.305313 0)
(0.990485 0.317307 0)
(0.834847 0.328395 0)
(0.674004 0.338438 0)
(0.50856 0.347204 0)
(0.339036 0.354337 0)
(0.166234 0.359381 0)
(-0.00878456 0.361736 0)
(-0.184551 0.360795 0)
(-0.359314 0.356168 0)
(-0.531102 0.347585 0)
(-0.69793 0.334987 0)
(-0.857861 0.318651 0)
(-1.00909 0.299014 0)
(-1.15011 0.276367 0)
(-1.27942 0.250973 0)
(-1.39574 0.223142 0)
(-1.49794 0.193121 0)
(-1.58494 0.161266 0)
(-1.65572 0.128038 0)
(-1.70948 0.094062 0)
(-1.74597 0.0601891 0)
(-1.76543 0.0269094 0)
(-1.76856 -0.0064057 0)
(-1.75614 -0.0352873 0)
(-1.73048 -0.0613227 0)
(-1.69295 -0.0840299 0)
(-1.64529 -0.103179 0)
(-1.5893 -0.118725 0)
(-1.52677 -0.130493 0)
(-1.45939 -0.139083 0)
(-1.38896 -0.143833 0)
(-1.31694 -0.145941 0)
(-1.24509 -0.144198 0)
(-1.17476 -0.140249 0)
(-1.10756 -0.132765 0)
(-1.04464 -0.123211 0)
(-0.987253 -0.110919 0)
(-0.936478 -0.0967874 0)
(-0.893061 -0.0815565 0)
(-0.857752 -0.0649979 0)
(-0.830722 -0.0484036 0)
(-0.811879 -0.0320467 0)
(-0.801367 -0.015218 0)
(-0.798872 0.00111292 0)
(-0.804052 0.0159021 0)
(-0.816506 0.0304687 0)
(-0.835572 0.0429516 0)
(-0.860257 0.0534902 0)
(-0.889989 0.0629977 0)
(-0.923717 0.0702361 0)
(-0.960348 0.0753813 0)
(-0.999133 0.0791048 0)
(-1.03907 0.0810668 0)
(-1.0793 0.0811512 0)
(-1.11904 0.0799809 0)
(-1.15761 0.0774265 0)
(-1.19453 0.0737292 0)
(-1.22941 0.0694567 0)
(-1.26191 0.0646231 0)
(-1.29177 0.0593289 0)
(-1.31894 0.0540321 0)
(-1.34352 0.0492247 0)
(-1.3657 0.0448972 0)
(-1.3858 0.0410221 0)
(-1.40423 0.0376028 0)
(-1.42121 0.0345781 0)
(-1.43693 0.0316118 0)
(-1.45184 0.0285026 0)
(-1.46596 0.0257816 0)
(-1.4783 0.0205949 0)
(-1.48792 0.013734 0)
(-1.49409 0.00726285 0)
(-1.49709 -0.00213494 0)
(-1.49458 -0.0145355 0)
(-1.48552 -0.0272466 0)
(-1.47021 -0.0414059 0)
(-1.44928 -0.0501797 0)
(-1.42132 -0.0562577 0)
(-1.39388 -0.0664156 0)
(1.91224 0.262472 0)
(1.79945 0.279336 0)
(1.68377 0.29644 0)
(1.55886 0.313508 0)
(1.42778 0.330142 0)
(1.28928 0.346113 0)
(1.14472 0.361231 0)
(0.993984 0.375402 0)
(0.837828 0.388519 0)
(0.676454 0.40043 0)
(0.510427 0.410862 0)
(0.340222 0.419393 0)
(0.166599 0.425481 0)
(-0.00941983 0.428431 0)
(-0.186346 0.427467 0)
(-0.362437 0.42203 0)
(-0.535668 0.411849 0)
(-0.703892 0.397064 0)
(-0.865152 0.37786 0)
(-1.01775 0.354452 0)
(-1.16015 0.327458 0)
(-1.2907 0.297458 0)
(-1.40817 0.264483 0)
(-1.5114 0.228839 0)
(-1.5992 0.191056 0)
(-1.6705 0.151626 0)
(-1.72445 0.111353 0)
(-1.76078 0.0713657 0)
(-1.77968 0.0316672 0)
(-1.78169 -0.00770913 0)
(-1.76813 -0.0420154 0)
(-1.74117 -0.0727812 0)
(-1.70225 -0.0997412 0)
(-1.65313 -0.122379 0)
(-1.59568 -0.140799 0)
(-1.53166 -0.154849 0)
(-1.46279 -0.16509 0)
(-1.39092 -0.170755 0)
(-1.31749 -0.173166 0)
(-1.24433 -0.170948 0)
(-1.17271 -0.166023 0)
(-1.10433 -0.156752 0)
(-1.04024 -0.145434 0)
(-0.981879 -0.130789 0)
(-0.930344 -0.113994 0)
(-0.886398 -0.0956498 0)
(-0.850712 -0.0756939 0)
(-0.823426 -0.0557745 0)
(-0.804544 -0.0362322 0)
(-0.794215 -0.0162731 0)
(-0.792023 0.00298234 0)
(-0.797624 0.0204704 0)
(-0.810658 0.0376589 0)
(-0.830351 0.0525215 0)
(-0.8558 0.0650834 0)
(-0.886357 0.0763184 0)
(-0.9209 0.084816 0)
(-0.958338 0.0908525 0)
(-0.997847 0.0952911 0)
(-1.03844 0.0972804 0)
(-1.0793 0.0969585 0)
(-1.11963 0.0952332 0)
(-1.15872 0.0920513 0)
(-1.19607 0.0876039 0)
(-1.23129 0.0824502 0)
(-1.26402 0.076654 0)
(-1.29399 0.0704078 0)
(-1.32114 0.0641283 0)
(-1.34559 0.0582527 0)
(-1.36757 0.0528906 0)
(-1.38745 0.0480467 0)
(-1.40564 0.0439148 0)
(-1.4224 0.0407169 0)
(-1.43802 0.0379797 0)
(-1.45304 0.0349403 0)
(-1.46747 0.0321489 0)
(-1.48043 0.0263017 0)
(-1.49082 0.0182826 0)
(-1.49771 0.0101173 0)
(-1.50105 -0.000925687 0)
(-1.49936 -0.0162423 0)
(-1.49079 -0.0315824 0)
(-1.47584 -0.0478253 0)
(-1.455 -0.0605674 0)
(-1.42733 -0.0685572 0)
(-1.39982 -0.0768653 0)
(1.91903 0.303566 0)
(1.80626 0.323113 0)
(1.69043 0.34282 0)
(1.56526 0.362504 0)
(1.43372 0.381737 0)
(1.29466 0.400182 0)
(1.14949 0.41761 0)
(0.998138 0.433927 0)
(0.841379 0.449026 0)
(0.679396 0.462766 0)
(0.512708 0.474856 0)
(0.341736 0.484818 0)
(0.167166 0.492015 0)
(-0.0100478 0.495602 0)
(-0.188403 0.494618 0)
(-0.366016 0.488548 0)
(-0.54083 0.476969 0)
(-0.710762 0.459754 0)
(-0.873752 0.437364 0)
(-1.02789 0.410583 0)
(-1.17172 0.379734 0)
(-1.30376 0.344964 0)
(-1.42262 0.306776 0)
(-1.52703 0.265494 0)
(-1.61577 0.22153 0)
(-1.68767 0.175567 0)
(-1.74184 0.128539 0)
(-1.77796 0.0818116 0)
(-1.7962 0.0348721 0)
(-1.7969 -0.0105877 0)
(-1.78209 -0.0503426 0)
(-1.7537 -0.0861402 0)
(-1.71324 -0.117337 0)
(-1.66248 -0.14357 0)
(-1.60334 -0.164795 0)
(-1.53757 -0.180854 0)
(-1.46693 -0.192366 0)
(-1.39329 -0.198786 0)
(-1.31811 -0.201539 0)
(-1.24331 -0.199208 0)
(-1.17018 -0.193483 0)
(-1.10041 -0.182881 0)
(-1.03503 -0.169676 0)
(-0.975565 -0.152509 0)
(-0.923048 -0.132803 0)
(-0.878347 -0.11156 0)
(-0.842183 -0.0886657 0)
(-0.814682 -0.0657488 0)
(-0.795907 -0.0430872 0)
(-0.785844 -0.0198211 0)
(-0.784085 0.00263238 0)
(-0.790395 0.0231342 0)
(-0.804205 0.0431329 0)
(-0.824696 0.0602954 0)
(-0.851059 0.0748842 0)
(-0.882529 0.087919 0)
(-0.917938 0.0977735 0)
(-0.956241 0.104837 0)
(-0.996559 0.109897 0)
(-1.0379 0.112234 0)
(-1.07949 0.11211 0)
(-1.12048 0.110272 0)
(-1.16015 0.106606 0)
(-1.19799 0.101417 0)
(-1.23356 0.0954165 0)
(-1.26649 0.0886002 0)
(-1.29653 0.0811409 0)
(-1.32364 0.0736675 0)
(-1.34793 0.0668633 0)
(-1.36967 0.060827 0)
(-1.38925 0.0555702 0)
(-1.40712 0.0509495 0)
(-1.42369 0.0470068 0)
(-1.43937 0.0434257 0)
(-1.45461 0.0398711 0)
(-1.46939 0.0365261 0)
(-1.48291 0.0298548 0)
(-1.49407 0.0207115 0)
(-1.50192 0.0110145 0)
(-1.50585 -0.00102275 0)
(-1.5052 -0.0186061 0)
(-1.49713 -0.0362416 0)
(-1.48205 -0.0552187 0)
(-1.46033 -0.0687476 0)
(-1.43131 -0.0784285 0)
(-1.40231 -0.0886389 0)
(1.92694 0.3445 0)
(1.81416 0.366948 0)
(1.69813 0.389425 0)
(1.57267 0.411683 0)
(1.44062 0.433512 0)
(1.30092 0.454439 0)
(1.15504 0.474177 0)
(1.00298 0.492641 0)
(0.845533 0.50974 0)
(0.682858 0.525338 0)
(0.515414 0.539128 0)
(0.343555 0.550569 0)
(0.167904 0.558934 0)
(-0.0106561 0.563267 0)
(-0.190598 0.562389 0)
(-0.370066 0.555549 0)
(-0.546868 0.542358 0)
(-0.71863 0.523073 0)
(-0.88331 0.49798 0)
(-1.03928 0.467203 0)
(-1.18499 0.431611 0)
(-1.31868 0.392171 0)
(-1.43908 0.348669 0)
(-1.54489 0.301422 0)
(-1.63472 0.251253 0)
(-1.70735 0.198804 0)
(-1.7618 0.145194 0)
(-1.7977 0.0922055 0)
(-1.81521 0.0382756 0)
(-1.81442 -0.0129695 0)
(-1.79819 -0.0584661 0)
(-1.76817 -0.0991899 0)
(-1.72588 -0.134694 0)
(-1.67322 -0.164334 0)
(-1.61211 -0.18832 0)
(-1.5443 -0.206736 0)
(-1.4716 -0.219987 0)
(-1.39593 -0.227477 0)
(-1.31881 -0.230231 0)
(-1.24214 -0.22723 0)
(-1.16712 -0.220541 0)
(-1.09554 -0.208571 0)
(-1.02854 -0.193234 0)
(-0.967713 -0.1737 0)
(-0.914221 -0.151347 0)
(-0.868961 -0.126798 0)
(-0.832507 -0.100191 0)
(-0.804879 -0.0736271 0)
(-0.786232 -0.0474989 0)
(-0.776544 -0.0209712 0)
(-0.775367 0.00445771 0)
(-0.782409 0.0277784 0)
(-0.797045 0.0504051 0)
(-0.818368 0.0700096 0)
(-0.845679 0.0867273 0)
(-0.87813 0.101438 0)
(-0.914513 0.112531 0)
(-0.953805 0.120553 0)
(-0.995077 0.126244 0)
(-1.03733 0.128804 0)
(-1.0798 0.128424 0)
(-1.12161 0.126033 0)
(-1.16204 0.121567 0)
(-1.20057 0.11548 0)
(-1.23672 0.108405 0)
(-1.27006 0.10044 0)
(-1.30032 0.0919915 0)
(-1.32739 0.0836153 0)
(-1.35141 0.0756648 0)
(-1.37273 0.0684533 0)
(-1.39182 0.0621019 0)
(-1.40923 0.0567081 0)
(-1.42548 0.0526916 0)
(-1.44115 0.049529 0)
(-1.4567 0.0461496 0)
(-1.47216 0.0428228 0)
(-1.4866 0.035667 0)
(-1.49889 0.0256056 0)
(-1.50787 0.0143719 0)
(-1.51232 0.00073557 0)
(-1.51242 -0.0195568 0)
(-1.50479 -0.0403643 0)
(-1.48953 -0.062061 0)
(-1.4672 -0.0790162 0)
(-1.43809 -0.089989 0)
(-1.40794 -0.0980716 0)
(1.93603 0.385189 0)
(1.82326 0.41068 0)
(1.70691 0.436209 0)
(1.58109 0.46116 0)
(1.4485 0.485586 0)
(1.30806 0.50902 0)
(1.16137 0.53107 0)
(1.00852 0.551671 0)
(0.850308 0.570745 0)
(0.686883 0.588197 0)
(0.518636 0.603724 0)
(0.345829 0.616741 0)
(0.168976 0.626399 0)
(-0.0111533 0.631585 0)
(-0.192986 0.630866 0)
(-0.374423 0.623574 0)
(-0.553317 0.609106 0)
(-0.72738 0.587262 0)
(-0.894374 0.558649 0)
(-1.05228 0.52462 0)
(-1.19977 0.485547 0)
(-1.33549 0.44125 0)
(-1.45781 0.392539 0)
(-1.56527 0.339776 0)
(-1.65642 0.283281 0)
(-1.72994 0.224025 0)
(-1.78474 0.163328 0)
(-1.82039 0.103196 0)
(-1.83697 0.0411059 0)
(-1.83472 -0.0168349 0)
(-1.817 -0.0678879 0)
(-1.78498 -0.113282 0)
(-1.74044 -0.152784 0)
(-1.68544 -0.186194 0)
(-1.62197 -0.213331 0)
(-1.55181 -0.233866 0)
(-1.47674 -0.248655 0)
(-1.39865 -0.256988 0)
(-1.31903 -0.260202 0)
(-1.23999 -0.256931 0)
(-1.16287 -0.248932 0)
(-1.08951 -0.235337 0)
(-1.02101 -0.218128 0)
(-0.95902 -0.195748 0)
(-0.904523 -0.170025 0)
(-0.858516 -0.142278 0)
(-0.821662 -0.112744 0)
(-0.794044 -0.0832068 0)
(-0.775836 -0.0538987 0)
(-0.766683 -0.0237902 0)
(-0.766148 0.00501162 0)
(-0.774065 0.0315462 0)
(-0.78959 0.0570576 0)
(-0.811862 0.0790196 0)
(-0.840277 0.0978765 0)
(-0.873832 0.114519 0)
(-0.911294 0.127039 0)
(-0.951717 0.135918 0)
(-0.994107 0.142016 0)
(-1.03749 0.14459 0)
(-1.08103 0.144192 0)
(-1.12378 0.141566 0)
(-1.16504 0.136661 0)
(-1.20429 0.12985 0)
(-1.24099 0.121945 0)
(-1.27469 0.112932 0)
(-1.30517 0.103028 0)
(-1.33233 0.0930226 0)
(-1.35621 0.0839584 0)
(-1.37719 0.0761206 0)
(-1.39582 0.0695603 0)
(-1.41274 0.0638027 0)
(-1.42868 0.0592043 0)
(-1.44429 0.0554283 0)
(-1.46009 0.0519316 0)
(-1.4761 0.0482825 0)
(-1.4914 0.0404633 0)
(-1.50489 0.0292616 0)
(-1.51517 0.0163673 0)
(-1.52058 0.000795483 0)
(-1.52188 -0.0210785 0)
(-1.51527 -0.0452257 0)
(-1.50007 -0.0696103 0)
(-1.47686 -0.0885842 0)
(-1.44569 -0.101871 0)
(-1.41217 -0.111358 0)
(1.94633 0.425713 0)
(1.83362 0.454308 0)
(1.71689 0.48304 0)
(1.59057 0.51093 0)
(1.45734 0.53795 0)
(1.31608 0.563914 0)
(1.16847 0.588272 0)
(1.01471 0.610992 0)
(0.855633 0.632046 0)
(0.691367 0.651382 0)
(0.52221 0.668682 0)
(0.348336 0.683323 0)
(0.170175 0.694356 0)
(-0.0116485 0.700521 0)
(-0.195552 0.70008 0)
(-0.379442 0.692089 0)
(-0.560897 0.675944 0)
(-0.737258 0.652005 0)
(-0.906333 0.620964 0)
(-1.06672 0.582807 0)
(-1.21692 0.538526 0)
(-1.35496 0.489692 0)
(-1.47959 0.435477 0)
(-1.58928 0.376049 0)
(-1.68222 0.312774 0)
(-1.75698 0.246492 0)
(-1.81241 0.1787 0)
(-1.84783 0.111819 0)
(-1.86353 0.0425181 0)
(-1.85899 -0.0200752 0)
(-1.8386 -0.0767313 0)
(-1.80405 -0.127551 0)
(-1.75686 -0.172175 0)
(-1.6991 -0.208971 0)
(-1.63286 -0.238842 0)
(-1.55984 -0.26212 0)
(-1.48202 -0.278236 0)
(-1.40118 -0.287346 0)
(-1.31893 -0.290384 0)
(-1.23733 -0.28694 0)
(-1.1578 -0.278577 0)
(-1.08248 -0.262981 0)
(-1.01229 -0.243214 0)
(-0.949172 -0.218331 0)
(-0.894128 -0.19 0)
(-0.848032 -0.158713 0)
(-0.811139 -0.124986 0)
(-0.783377 -0.0912774 0)
(-0.765109 -0.0580802 0)
(-0.756136 -0.0248086 0)
(-0.756214 0.00701237 0)
(-0.76506 0.0363622 0)
(-0.781684 0.0644553 0)
(-0.805124 0.0889291 0)
(-0.834875 0.109937 0)
(-0.869868 0.128025 0)
(-0.908841 0.141481 0)
(-0.950747 0.151238 0)
(-0.994336 0.158391 0)
(-1.03869 0.16157 0)
(-1.08313 0.161152 0)
(-1.12674 0.15797 0)
(-1.16884 0.152015 0)
(-1.20886 0.144185 0)
(-1.24627 0.135011 0)
(-1.2806 0.124541 0)
(-1.31146 0.113602 0)
(-1.33861 0.103032 0)
(-1.36219 0.0927618 0)
(-1.38267 0.0833991 0)
(-1.4007 0.0754004 0)
(-1.41703 0.0688079 0)
(-1.43257 0.0643191 0)
(-1.4481 0.0611697 0)
(-1.46422 0.0580757 0)
(-1.48095 0.0546432 0)
(-1.49763 0.0465763 0)
(-1.51283 0.0347054 0)
(-1.52461 0.0206796 0)
(-1.53081 0.00299718 0)
(-1.53321 -0.0214992 0)
(-1.52772 -0.049026 0)
(-1.51243 -0.0768879 0)
(-1.48888 -0.0995303 0)
(-1.45699 -0.114786 0)
(-1.42066 -0.12329 0)
(1.95787 0.466208 0)
(1.84527 0.498032 0)
(1.72809 0.530055 0)
(1.60115 0.561086 0)
(1.46715 0.590753 0)
(1.32497 0.61928 0)
(1.17632 0.645943 0)
(1.02157 0.670784 0)
(0.861607 0.693777 0)
(0.696508 0.71494 0)
(0.526479 0.734054 0)
(0.351532 0.750447 0)
(0.171954 0.763011 0)
(-0.0117884 0.770289 0)
(-0.198039 0.770262 0)
(-0.38443 0.761987 0)
(-0.568608 0.744745 0)
(-0.747889 0.718432 0)
(-0.920071 0.683506 0)
(-1.08315 0.642138 0)
(-1.23598 0.594827 0)
(-1.37754 0.540677 0)
(-1.50565 0.481129 0)
(-1.6184 0.416659 0)
(-1.71391 0.347116 0)
(-1.79041 0.27384 0)
(-1.84659 0.198857 0)
(-1.88093 0.124476 0)
(-1.89431 0.0451046 0)
(-1.88682 -0.0256611 0)
(-1.86348 -0.0901364 0)
(-1.82506 -0.14641 0)
(-1.77405 -0.194444 0)
(-1.71266 -0.235379 0)
(-1.64303 -0.267995 0)
(-1.56696 -0.292495 0)
(-1.48615 -0.309903 0)
(-1.40239 -0.319737 0)
(-1.31728 -0.32282 0)
(-1.23307 -0.317763 0)
(-1.1512 -0.306843 0)
(-1.07346 -0.290451 0)
(-1.00176 -0.268595 0)
(-0.93761 -0.240476 0)
(-0.881804 -0.208172 0)
(-0.835144 -0.173402 0)
(-0.797964 -0.136973 0)
(-0.770342 -0.100527 0)
(-0.752631 -0.0642514 0)
(-0.744045 -0.0269393 0)
(-0.7445 0.00846098 0)
(-0.754078 0.0413662 0)
(-0.771612 0.0725072 0)
(-0.796258 0.0993833 0)
(-0.827437 0.122629 0)
(-0.863818 0.142862 0)
(-0.9042 0.158003 0)
(-0.947697 0.168712 0)
(-0.993022 0.175615 0)
(-1.03891 0.178565 0)
(-1.08461 0.177942 0)
(-1.12923 0.174343 0)
(-1.17217 0.168072 0)
(-1.2129 0.15945 0)
(-1.25073 0.149342 0)
(-1.28521 0.137945 0)
(-1.3162 0.125369 0)
(-1.34357 0.112356 0)
(-1.36714 0.100453 0)
(-1.38716 0.0904593 0)
(-1.40424 0.082648 0)
(-1.41952 0.0758718 0)
(-1.4342 0.0709872 0)
(-1.44949 0.0675953 0)
(-1.46591 0.064682 0)
(-1.48331 0.0613145 0)
(-1.50132 0.0530116 0)
(-1.5186 0.0400236 0)
(-1.53253 0.0240124 0)
(-1.54014 0.00333239 0)
(-1.54285 -0.0207818 0)
(-1.53862 -0.0535353 0)
(-1.52321 -0.0841287 0)
(-1.49924 -0.109843 0)
(-1.4663 -0.12841 0)
(-1.42788 -0.13909 0)
(1.97075 0.506423 0)
(1.85831 0.541567 0)
(1.74065 0.576969 0)
(1.61297 0.611307 0)
(1.47805 0.643786 0)
(1.33484 0.674854 0)
(1.18503 0.703824 0)
(1.02921 0.730674 0)
(0.86822 0.755561 0)
(0.702127 0.778684 0)
(0.531094 0.799656 0)
(0.354988 0.817861 0)
(0.173865 0.832121 0)
(-0.0120132 0.840749 0)
(-0.200959 0.841351 0)
(-0.390436 0.832684 0)
(-0.577875 0.813706 0)
(-0.760219 0.784708 0)
(-0.934754 0.747478 0)
(-1.10088 0.702017 0)
(-1.25741 0.64901 0)
(-1.40193 0.590861 0)
(-1.53302 0.52623 0)
(-1.64874 0.454254 0)
(-1.74642 0.376936 0)
(-1.82405 0.295594 0)
(-1.88055 0.212518 0)
(-1.91353 0.12969 0)
(-1.92493 0.0425629 0)
(-1.91404 -0.032557 0)
(-1.88612 -0.0996644 0)
(-1.84267 -0.159096 0)
(-1.7873 -0.213091 0)
(-1.72276 -0.256465 0)
(-1.64996 -0.292173 0)
(-1.57102 -0.31984 0)
(-1.48771 -0.339377 0)
(-1.40163 -0.350774 0)
(-1.31427 -0.354743 0)
(-1.2275 -0.350872 0)
(-1.14289 -0.339896 0)
(-1.06301 -0.320358 0)
(-0.989215 -0.295267 0)
(-0.923423 -0.264213 0)
(-0.866713 -0.22935 0)
(-0.819886 -0.191053 0)
(-0.782605 -0.150031 0)
(-0.75454 -0.10894 0)
(-0.736176 -0.0684537 0)
(-0.727374 -0.0282497 0)
(-0.728256 0.0104664 0)
(-0.738691 0.0463663 0)
(-0.757403 0.0802559 0)
(-0.783481 0.109944 0)
(-0.816339 0.135627 0)
(-0.854525 0.157356 0)
(-0.896854 0.173595 0)
(-0.942228 0.185612 0)
(-0.989317 0.193497 0)
(-1.03699 0.19568 0)
(-1.08371 0.194472 0)
(-1.12906 0.190434 0)
(-1.17265 0.183087 0)
(-1.21397 0.173271 0)
(-1.25248 0.162092 0)
(-1.28788 0.14901 0)
(-1.31967 0.135182 0)
(-1.347 0.122061 0)
(-1.36971 0.109116 0)
(-1.38837 0.0975106 0)
(-1.40412 0.0878388 0)
(-1.41824 0.0798075 0)
(-1.4319 0.0755217 0)
(-1.44668 0.0730847 0)
(-1.4635 0.0709786 0)
(-1.48182 0.0683392 0)
(-1.50125 0.0601534 0)
(-1.51998 0.046837 0)
(-1.53546 0.0293356 0)
(-1.54514 0.00544789 0)
(-1.54841 -0.0204162 0)
(-1.54443 -0.0573152 0)
(-1.52958 -0.0922487 0)
(-1.50531 -0.121547 0)
(-1.47118 -0.142482 0)
(-1.43025 -0.153453 0)
(1.98495 0.546874 0)
(1.87269 0.58569 0)
(1.75448 0.624758 0)
(1.62588 0.662643 0)
(1.48981 0.697972 0)
(1.34544 0.731549 0)
(1.19435 0.762646 0)
(1.03716 0.791627 0)
(0.875023 0.818491 0)
(0.708166 0.843236 0)
(0.536174 0.866082 0)
(0.35873 0.886327 0)
(0.175939 0.902459 0)
(-0.0122178 0.912504 0)
(-0.203968 0.913657 0)
(-0.396532 0.904523 0)
(-0.586886 0.884424 0)
(-0.771906 0.853751 0)
(-0.949858 0.812886 0)
(-1.11835 0.764726 0)
(-1.27651 0.709546 0)
(-1.42332 0.645942 0)
(-1.55656 0.574453 0)
(-1.67357 0.496852 0)
(-1.77192 0.412736 0)
(-1.84929 0.324087 0)
(-1.9051 0.233944 0)
(-1.93613 0.141301 0)
(-1.94368 0.0461707 0)
(-1.93086 -0.0386812 0)
(-1.89844 -0.116401 0)
(-1.85068 -0.185128 0)
(-1.79179 -0.239822 0)
(-1.72321 -0.28769 0)
(-1.6478 -0.325248 0)
(-1.56695 -0.353634 0)
(-1.48216 -0.373431 0)
(-1.39464 -0.384682 0)
(-1.30576 -0.387745 0)
(-1.21729 -0.382238 0)
(-1.13081 -0.369386 0)
(-1.0488 -0.348681 0)
(-0.973115 -0.321404 0)
(-0.905937 -0.286864 0)
(-0.848079 -0.247359 0)
(-0.799965 -0.204948 0)
(-0.761367 -0.161344 0)
(-0.732538 -0.117735 0)
(-0.714075 -0.074215 0)
(-0.704999 -0.0295322 0)
(-0.706156 0.013241 0)
(-0.717671 0.0530184 0)
(-0.737784 0.0900687 0)
(-0.765711 0.122263 0)
(-0.80077 0.150083 0)
(-0.841211 0.173783 0)
(-0.885903 0.191547 0)
(-0.933587 0.203971 0)
(-0.982463 0.212089 0)
(-1.0314 0.215711 0)
(-1.07954 0.215077 0)
(-1.12623 0.210068 0)
(-1.17112 0.201415 0)
(-1.21314 0.191229 0)
(-1.25197 0.178558 0)
(-1.28723 0.164186 0)
(-1.31843 0.148525 0)
(-1.34503 0.132089 0)
(-1.36696 0.116638 0)
(-1.38476 0.103499 0)
(-1.39922 0.0935835 0)
(-1.41185 0.0863271 0)
(-1.42427 0.0814394 0)
(-1.43864 0.0793986 0)
(-1.45507 0.0777127 0)
(-1.4739 0.075506 0)
(-1.49476 0.0675001 0)
(-1.51566 0.053638 0)
(-1.53348 0.0342212 0)
(-1.54507 0.00831015 0)
(-1.54889 -0.0201699 0)
(-1.54583 -0.0611622 0)
(-1.53169 -0.0987186 0)
(-1.50635 -0.13173 0)
(-1.47029 -0.157169 0)
(-1.42466 -0.172204 0)
(1.9952 0.57378 0)
(1.88312 0.615028 0)
(1.76455 0.6565 0)
(1.63539 0.696518 0)
(1.4985 0.733846 0)
(1.35325 0.76916 0)
(1.20099 0.802052 0)
(1.04305 0.83234 0)
(0.880493 0.860177 0)
(0.71264 0.886399 0)
(0.539913 0.910645 0)
(0.362023 0.932232 0)
(0.178633 0.949722 0)
(-0.0105805 0.961012 0)
(-0.203883 0.963072 0)
(-0.398485 0.954236 0)
(-0.591782 0.93321 0)
(-0.779997 0.900215 0)
(-0.959763 0.857047 0)
(-1.13014 0.805144 0)
(-1.28857 0.745733 0)
(-1.43396 0.678763 0)
(-1.56447 0.604433 0)
(-1.67818 0.52308 0)
(-1.77319 0.434046 0)
(-1.84814 0.338769 0)
(-1.90176 0.242318 0)
(-1.93054 0.143026 0)
(-1.93432 0.0426625 0)
(-1.91763 -0.0469684 0)
(-1.88294 -0.126525 0)
(-1.83397 -0.19551 0)
(-1.77332 -0.255606 0)
(-1.70443 -0.304706 0)
(-1.62923 -0.344294 0)
(-1.54942 -0.374496 0)
(-1.46617 -0.395739 0)
(-1.38034 -0.408029 0)
(-1.2929 -0.411757 0)
(-1.20529 -0.406377 0)
(-1.11902 -0.392706 0)
(-1.03674 -0.370225 0)
(-0.96055 -0.340608 0)
(-0.892708 -0.303825 0)
(-0.833827 -0.262534 0)
(-0.784324 -0.218022 0)
(-0.744339 -0.171305 0)
(-0.714755 -0.124341 0)
(-0.69626 -0.077764 0)
(-0.687636 -0.0310744 0)
(-0.689235 0.014077 0)
(-0.701445 0.0560184 0)
(-0.722579 0.0950596 0)
(-0.75186 0.129313 0)
(-0.788561 0.158937 0)
(-0.83073 0.183793 0)
(-0.877201 0.202419 0)
(-0.926505 0.215696 0)
(-0.976816 0.223952 0)
(-1.02729 0.226563 0)
(-1.07675 0.224468 0)
(-1.12386 0.219238 0)
(-1.16842 0.211056 0)
(-1.21056 0.199142 0)
(-1.24902 0.185911 0)
(-1.28382 0.170669 0)
(-1.31461 0.154003 0)
(-1.34069 0.137373 0)
(-1.36214 0.121431 0)