/*--------------------------------*- C++ -*----------------------------------*\
| =========                 |                                                 |
| \\      /  F ield         | OpenFOAM: The Open Source CFD Toolbox           |
|  \\    /   O peration     | Version:  v1912                                 |
|   \\  /    A nd           | Website:  www.openfoam.com                      |
|    \\/     M anipulation  |                                                 |
\*---------------------------------------------------------------------------*/
FoamFile
{
    version     2.0;
    format      ascii;
    class       volScalarField;
    location    "30";
    object      omega;
}
// * * * * * * * * * * * * * * * * * * * * * * * * * * * * * * * * * * * * * //

dimensions      [0 0 -1 0 0 0 0];


internalField   nonuniform List<scalar> 
14268
(
0.0121151
0.0118086
0.0116534
0.0115322
0.0113928
0.0112483
0.0111161
0.0109991
0.0109009
0.0108143
0.0107414
0.010685
0.0106472
0.0106323
0.0106363
0.0106524
0.0106737
0.0106979
0.0107343
0.0107857
0.0108525
0.0109328
0.011023
0.0111192
0.0112174
0.0113136
0.0114053
0.0114891
0.0115614
0.0116251
0.0116819
0.0117328
0.0117797
0.0118227
0.0118603
0.0118891
0.0119056
0.0119077
0.0118953
0.0118721
0.0118487
0.0118198
0.0117787
0.0117243
0.0116599
0.011591
0.0115239
0.0114667
0.0114229
0.011389
0.0113656
0.0113499
0.0113394
0.0113319
0.0113263
0.0113217
0.0113174
0.011313
0.0113081
0.0113032
0.011299
0.0112959
0.0112962
0.0113048
0.0113229
0.0113505
0.011386
0.0114268
0.0114692
0.0115092
0.0115492
0.0115878
0.011621
0.0116489
0.0116698
0.0116859
0.0117004
0.0117138
0.0117267
0.0117391
0.0117507
0.0117609
0.0117693
0.0117753
0.0117786
0.0117794
0.0117782
0.0117755
0.0117719
0.0117673
0.0117615
0.0117548
0.0117477
0.0117402
0.011732
0.0117226
0.0117123
0.0117006
0.0116871
0.0116717
0.0116545
0.0116352
0.0116137
0.0115904
0.011566
0.0115413
0.0115169
0.0114934
0.0114714
0.0114508
0.0114317
0.0114138
0.0113968
0.0113804
0.0113642
0.0113486
0.0113395
0.0113382
0.0113438
0.0113541
0.0113683
0.0113847
0.0114007
0.0114182
0.0114333
0.0114443
0.0114496
0.0114519
0.011448
0.0114396
0.0114279
0.0114144
0.0114001
0.0113858
0.0113719
0.0113585
0.0113452
0.0113313
0.0113158
0.0112976
0.0112771
0.0112569
0.011237
0.0112172
0.0111977
0.011179
0.0111608
0.0111434
0.0111266
0.0111105
0.0110949
0.0110795
0.0110658
0.0110576
0.0110546
0.0110547
0.011057
0.0110599
0.0110622
0.0110631
0.0110622
0.0110573
0.0110467
0.0110361
1.27474
0.649609
0.44516
0.378929
0.360629
0.357382
0.358804
0.361877
0.365575
0.369092
0.37214
0.374501
0.376244
0.377443
0.378149
0.378423
0.378284
0.377599
0.376329
0.374569
0.372284
0.369492
0.366342
0.362936
0.359377
0.355702
0.351876
0.34794
0.344054
0.340043
0.335893
0.331688
0.327481
0.323276
0.3191
0.31502
0.31116
0.307693
0.304833
0.302858
0.302222
0.303037
0.30536
0.308895
0.313277
0.318103
0.322919
0.327854
0.332897
0.33692
0.340217
0.342913
0.345138
0.346992
0.348541
0.349804
0.350818
0.351738
0.352644
0.353455
0.353978
0.353989
0.35352
0.352748
0.351635
0.350217
0.348571
0.346771
0.344919
0.343119
0.341278
0.339256
0.337183
0.335174
0.333503
0.332033
0.330667
0.329361
0.328089
0.326846
0.325644
0.324505
0.323459
0.322504
0.321651
0.320888
0.320196
0.319556
0.31892
0.318242
0.317487
0.316611
0.315605
0.314514
0.313414
0.312413
0.311662
0.311376
0.311639
0.312538
0.314095
0.316303
0.319144
0.32257
0.326444
0.330527
0.334609
0.338512
0.342082
0.345194
0.347759
0.349708
0.350987
0.351585
0.351454
0.350638
0.349542
0.348153
0.346493
0.344836
0.343028
0.341059
0.339023
0.336845
0.334573
0.332324
0.330109
0.327926
0.325962
0.324117
0.322351
0.32064
0.318935
0.317204
0.315415
0.313591
0.311749
0.309944
0.308245
0.306742
0.305575
0.305007
0.305041
0.305684
0.306821
0.308233
0.30986
0.31137
0.312585
0.31336
0.313569
0.313037
0.311876
0.310382
0.308529
0.306441
0.304192
0.301791
0.299381
0.296995
0.294815
0.292712
0.291113
0.289968
1.34401
0.67841
0.49015
0.432474
0.415816
0.412026
0.411582
0.41226
0.413329
0.414347
0.415386
0.416481
0.417502
0.418404
0.419228
0.420019
0.420815
0.421434
0.421852
0.422075
0.422127
0.422025
0.421793
0.421475
0.421111
0.420738
0.420293
0.419828
0.419344
0.41878
0.41811
0.41734
0.416501
0.415608
0.414664
0.4137
0.412789
0.412033
0.411548
0.411355
0.411104
0.410718
0.410225
0.409632
0.408949
0.408198
0.407408
0.406728
0.406336
0.405896
0.405479
0.405181
0.404962
0.4048
0.404686
0.404588
0.404462
0.404292
0.404091
0.403882
0.403689
0.403546
0.403396
0.403124
0.40273
0.402222
0.401607
0.400903
0.400156
0.399424
0.398684
0.398127
0.397794
0.397574
0.397249
0.396901
0.396604
0.396308
0.395997
0.395664
0.395313
0.394958
0.394613
0.394293
0.394011
0.393763
0.393534
0.393298
0.393249
0.393235
0.393188
0.393072
0.392883
0.392642
0.39238
0.392145
0.39202
0.391936
0.39185
0.391752
0.391649
0.391553
0.391475
0.391428
0.3914
0.391382
0.391369
0.391361
0.391356
0.391356
0.391365
0.391378
0.391389
0.391394
0.391376
0.391234
0.39102
0.390757
0.390463
0.390131
0.389775
0.389371
0.3889
0.388402
0.387971
0.387566
0.387253
0.38699
0.386689
0.386421
0.386175
0.385913
0.38562
0.385276
0.38489
0.384475
0.38403
0.383568
0.383126
0.38273
0.382347
0.382041
0.381811
0.381662
0.38157
0.38151
0.381542
0.38163
0.38173
0.381796
0.381705
0.381496
0.381121
0.380639
0.380107
0.379488
0.378772
0.378032
0.37728
0.37658
0.375895
0.375358
0.374866
0.374313
1.35886
0.697606
0.511331
0.454875
0.438341
0.433879
0.43239
0.431595
0.430966
0.430308
0.429506
0.428483
0.42744
0.426569
0.425889
0.425402
0.425099
0.424725
0.424224
0.42363
0.422972
0.422275
0.421556
0.420834
0.420142
0.419515
0.418932
0.418383
0.417906
0.417429
0.416917
0.416347
0.415723
0.415061
0.414375
0.413683
0.413026
0.412462
0.412054
0.411757
0.411185
0.410257
0.409014
0.407511
0.40582
0.404069
0.402396
0.400926
0.399664
0.398591
0.397674
0.396944
0.396354
0.395871
0.395463
0.395091
0.394727
0.394369
0.394026
0.393714
0.393439
0.3932
0.39299
0.392766
0.392535
0.39231
0.392087
0.391862
0.391647
0.391449
0.391256
0.391085
0.391058
0.391015
0.39092
0.390784
0.390676
0.390566
0.390449
0.390322
0.390187
0.39005
0.389918
0.389797
0.389692
0.389601
0.389519
0.389434
0.389402
0.389416
0.389429
0.389429
0.389414
0.389393
0.389376
0.389379
0.389379
0.389347
0.389272
0.389135
0.388952
0.388744
0.388532
0.388344
0.388191
0.388089
0.388033
0.387937
0.387796
0.387635
0.387467
0.387312
0.387191
0.387116
0.387095
0.38713
0.387175
0.387176
0.38714
0.387087
0.387021
0.386963
0.386934
0.386952
0.386926
0.386846
0.386764
0.386728
0.386785
0.386853
0.386921
0.386991
0.387052
0.387097
0.38714
0.387179
0.387226
0.387284
0.387344
0.387403
0.387465
0.387534
0.3876
0.387689
0.387789
0.387886
0.388002
0.388059
0.388077
0.388083
0.388131
0.388164
0.388179
0.388186
0.388125
0.38804
0.387966
0.387874
0.387767
0.38765
0.387566
0.387401
0.387418
0.387501
1.37349
0.711133
0.519116
0.461211
0.443804
0.437967
0.434906
0.432601
0.430614
0.428683
0.426655
0.424573
0.422607
0.420903
0.419504
0.418424
0.417633
0.41691
0.41619
0.415483
0.414793
0.41412
0.413463
0.41283
0.412242
0.411731
0.411323
0.411003
0.410785
0.410603
0.410434
0.410259
0.410048
0.409782
0.409471
0.409149
0.408846
0.408601
0.408458
0.40834
0.407849
0.406931
0.405682
0.404222
0.402684
0.401189
0.399807
0.39863
0.397647
0.396877
0.396274
0.39584
0.395525
0.395283
0.395075
0.394877
0.394685
0.394504
0.394336
0.394185
0.394057
0.393952
0.393824
0.39368
0.393507
0.393323
0.393121
0.39289
0.392648
0.392413
0.392182
0.391935
0.391851
0.391848
0.391744
0.391618
0.391518
0.391412
0.391295
0.391163
0.391019
0.39087
0.390726
0.390597
0.390486
0.390393
0.390311
0.39023
0.390259
0.390318
0.390371
0.390401
0.39041
0.390406
0.390408
0.390437
0.390486
0.390492
0.390437
0.390306
0.390099
0.389843
0.389551
0.389252
0.388965
0.388705
0.388487
0.388318
0.388211
0.388168
0.388182
0.388242
0.388333
0.38841
0.38845
0.388462
0.388467
0.388472
0.388479
0.388481
0.388469
0.388449
0.388412
0.38833
0.38829
0.388308
0.388384
0.388488
0.388568
0.388684
0.388828
0.388981
0.389138
0.389287
0.389418
0.389531
0.389626
0.38972
0.389831
0.389952
0.390016
0.39003
0.389987
0.389904
0.389791
0.389669
0.389594
0.389601
0.389679
0.389778
0.389852
0.389897
0.389908
0.389893
0.389905
0.38992
0.389897
0.389885
0.389892
0.389927
0.389978
0.390068
0.390168
0.390146
1.38044
0.711664
0.514727
0.455517
0.437702
0.431392
0.427628
0.424357
0.421109
0.417992
0.415127
0.41273
0.410816
0.40935
0.408287
0.407566
0.407101
0.406718
0.40637
0.406052
0.405756
0.405474
0.4052
0.404927
0.404666
0.404436
0.404243
0.404084
0.40398
0.403904
0.403852
0.403813
0.403758
0.403665
0.403533
0.403394
0.403286
0.403243
0.403293
0.403335
0.403025
0.402322
0.401313
0.400106
0.398813
0.397541
0.396369
0.395368
0.39451
0.393843
0.393317
0.392917
0.392599
0.392328
0.392076
0.391828
0.39159
0.39137
0.391178
0.391008
0.390839
0.390686
0.39056
0.390452
0.390353
0.390269
0.390194
0.390116
0.39004
0.38997
0.389897
0.389793
0.389773
0.389824
0.389781
0.389711
0.389655
0.389587
0.389507
0.389414
0.38931
0.3892
0.389092
0.388992
0.388902
0.388819
0.388739
0.388651
0.388642
0.388653
0.388657
0.388651
0.38864
0.388632
0.388643
0.38867
0.38869
0.388661
0.388568
0.388409
0.388173
0.387915
0.387627
0.387352
0.387114
0.38693
0.386812
0.386763
0.386752
0.386712
0.386653
0.386587
0.386527
0.386491
0.386489
0.386533
0.386598
0.386672
0.386728
0.38677
0.386797
0.386832
0.386884
0.386946
0.386995
0.387008
0.387009
0.387062
0.387165
0.387286
0.387421
0.387557
0.387695
0.387828
0.387961
0.388092
0.388219
0.388354
0.388489
0.388604
0.388693
0.388753
0.388777
0.38879
0.388797
0.388809
0.388873
0.388916
0.388911
0.388933
0.388979
0.389036
0.389103
0.389174
0.389261
0.389333
0.389415
0.3895
0.389577
0.389642
0.389721
0.389751
0.389891
0.389995
1.3885
0.707583
0.503873
0.44278
0.424782
0.41853
0.414793
0.411576
0.408713
0.40638
0.404578
0.40318
0.402117
0.401335
0.400783
0.400421
0.400153
0.399936
0.399763
0.399626
0.399519
0.399434
0.39936
0.399291
0.399235
0.399199
0.399186
0.399199
0.399231
0.399271
0.399329
0.399399
0.399452
0.399456
0.399443
0.399436
0.399454
0.399521
0.399668
0.399755
0.399523
0.398933
0.398054
0.396988
0.395841
0.394723
0.393715
0.392873
0.392168
0.39164
0.391242
0.390944
0.390711
0.390513
0.390332
0.39016
0.389999
0.389862
0.389751
0.389631
0.389501
0.389373
0.389259
0.389174
0.389111
0.389066
0.389033
0.389006
0.388982
0.388965
0.388944
0.388902
0.388893
0.38895
0.388935
0.388894
0.388858
0.388809
0.388745
0.388667
0.388578
0.388484
0.388391
0.388305
0.388229
0.388161
0.388093
0.388014
0.388025
0.38805
0.388064
0.388065
0.388061
0.388064
0.388096
0.388141
0.388182
0.388175
0.388097
0.387953
0.387752
0.387512
0.387256
0.387013
0.386808
0.386655
0.386559
0.386519
0.386541
0.386613
0.386681
0.386727
0.386755
0.386777
0.386794
0.386822
0.386856
0.3869
0.386952
0.387009
0.38706
0.387109
0.387144
0.38714
0.387136
0.387198
0.387276
0.387371
0.387483
0.387615
0.38776
0.3879
0.388034
0.388157
0.388275
0.388391
0.38851
0.388641
0.388799
0.388936
0.389024
0.389072
0.389082
0.389068
0.389042
0.389028
0.389074
0.389207
0.389335
0.389471
0.389567
0.389628
0.389672
0.389707
0.389759
0.389847
0.389909
0.389992
0.390093
0.390229
0.390364
0.390467
0.390626
0.390677
1.40197
0.710367
0.49634
0.431572
0.41277
0.40705
0.404371
0.402343
0.400634
0.399236
0.398149
0.39734
0.396758
0.396352
0.396068
0.395828
0.395638
0.395502
0.395412
0.395362
0.395346
0.39536
0.395392
0.395437
0.395496
0.395563
0.395642
0.395742
0.395852
0.395973
0.396108
0.396249
0.396366
0.396431
0.396473
0.39652
0.396612
0.396776
0.397019
0.397133
0.39694
0.396409
0.395608
0.394637
0.393607
0.392623
0.39175
0.391043
0.390475
0.390074
0.389782
0.389567
0.389399
0.389253
0.389116
0.388987
0.388872
0.388769
0.388647
0.388506
0.388356
0.388211
0.388089
0.388001
0.38795
0.38793
0.387929
0.387938
0.387957
0.387986
0.388015
0.388033
0.38805
0.388105
0.388111
0.388089
0.388066
0.388026
0.387971
0.387902
0.387824
0.387743
0.387664
0.387593
0.387532
0.387477
0.387418
0.387348
0.387358
0.387385
0.387396
0.387396
0.387396
0.387412
0.387451
0.3875
0.387547
0.387547
0.387472
0.38733
0.387148
0.386921
0.386707
0.386506
0.386359
0.386277
0.386262
0.386313
0.3864
0.386441
0.38644
0.386419
0.386394
0.38638
0.386386
0.38643
0.386491
0.38657
0.386661
0.386744
0.386807
0.386866
0.386921
0.386979
0.387038
0.387078
0.387086
0.387155
0.38729
0.387444
0.387604
0.387755
0.387897
0.388028
0.388153
0.388278
0.388406
0.388552
0.388697
0.388815
0.388897
0.388951
0.388977
0.388995
0.389019
0.38907
0.389188
0.389306
0.389363
0.38944
0.389486
0.389529
0.389582
0.389638
0.389716
0.389842
0.389947
0.390068
0.390184
0.390293
0.390385
0.390463
0.390625
0.390678
1.41985
0.718315
0.495888
0.426663
0.406506
0.400674
0.398417
0.396995
0.395901
0.395051
0.394441
0.394035
0.39376
0.393501
0.393257
0.393044
0.392879
0.392768
0.392702
0.392675
0.392685
0.392731
0.392807
0.392906
0.393023
0.393142
0.393274
0.393439
0.393611
0.393788
0.393964
0.394126
0.394264
0.39436
0.394419
0.394471
0.394571
0.394771
0.395076
0.395212
0.395053
0.394576
0.393846
0.392958
0.392022
0.391139
0.390378
0.389782
0.389326
0.389038
0.388844
0.388707
0.388601
0.388504
0.38841
0.38832
0.38824
0.388141
0.388013
0.387857
0.387687
0.387522
0.387382
0.387278
0.387225
0.387221
0.387238
0.387274
0.387322
0.387393
0.387472
0.387541
0.387595
0.387652
0.387682
0.387678
0.387666
0.387633
0.387582
0.387515
0.387439
0.38736
0.387285
0.387219
0.387168
0.387125
0.387074
0.38703
0.387051
0.387099
0.387126
0.38714
0.387157
0.387197
0.387264
0.387337
0.387403
0.387422
0.387365
0.387232
0.387063
0.386843
0.386647
0.386481
0.386356
0.386308
0.386331
0.386424
0.386554
0.386639
0.386689
0.386721
0.386749
0.386781
0.386817
0.386868
0.386924
0.386992
0.387075
0.387157
0.387232
0.387295
0.387356
0.387413
0.387454
0.387501
0.38751
0.387575
0.387718
0.387893
0.388073
0.388241
0.388396
0.388532
0.388658
0.388785
0.388915
0.389068
0.389223
0.389343
0.389422
0.389477
0.389513
0.389547
0.389603
0.389702
0.389882
0.390112
0.390292
0.390461
0.390562
0.390612
0.39064
0.390655
0.390674
0.390747
0.390816
0.390913
0.391031
0.391152
0.391239
0.391309
0.391447
0.391455
1.4409
0.730268
0.498321
0.42547
0.403463
0.397228
0.395165
0.3941
0.393395
0.392935
0.392669
0.392472
0.392233
0.391978
0.391734
0.391525
0.391362
0.391248
0.391178
0.391146
0.391153
0.391209
0.391309
0.39144
0.391599
0.39176
0.391943
0.392175
0.392416
0.392653
0.392869
0.393045
0.393186
0.393294
0.39336
0.393401
0.393471
0.393643
0.393936
0.394043
0.393874
0.393402
0.392692
0.391843
0.390963
0.390148
0.389469
0.388972
0.388625
0.38843
0.388312
0.388233
0.388173
0.388119
0.388061
0.388007
0.38794
0.387841
0.387703
0.387528
0.387331
0.387136
0.386969
0.386842
0.386772
0.386768
0.386792
0.386826
0.386872
0.38697
0.387104
0.387226
0.387319
0.387392
0.387451
0.387473
0.387474
0.38745
0.387402
0.387332
0.387255
0.387177
0.387105
0.387042
0.386996
0.386955
0.386898
0.38687
0.386903
0.386968
0.387007
0.387033
0.387063
0.387118
0.387198
0.38729
0.387363
0.387381
0.387334
0.387215
0.387051
0.386842
0.38665
0.386505
0.386423
0.386433
0.386525
0.386695
0.386852
0.386955
0.387017
0.387056
0.387095
0.38715
0.387224
0.387322
0.387437
0.38756
0.387689
0.387807
0.387895
0.387965
0.388028
0.388097
0.388181
0.388215
0.388212
0.388272
0.388371
0.388514
0.388687
0.38888
0.389057
0.389211
0.389354
0.389498
0.389647
0.389819
0.389975
0.390095
0.39018
0.390251
0.390313
0.390386
0.390499
0.390673
0.390944
0.391198
0.391385
0.391527
0.391599
0.391633
0.391656
0.391668
0.391686
0.391753
0.391827
0.391925
0.392005
0.392078
0.392121
0.392187
0.392326
0.392299
1.46463
0.745554
0.50289
0.42608
0.402678
0.395908
0.393797
0.392917
0.392475
0.392275
0.392161
0.391963
0.391699
0.391413
0.391143
0.390911
0.390724
0.390585
0.390487
0.39042
0.390396
0.390439
0.390544
0.390692
0.390888
0.391101
0.391336
0.391622
0.39192
0.392216
0.392479
0.392685
0.392838
0.392949
0.393021
0.393065
0.393122
0.393266
0.393495
0.393544
0.393334
0.392836
0.392119
0.391287
0.390446
0.389685
0.389064
0.388632
0.388382
0.388265
0.388205
0.388166
0.388126
0.38809
0.388058
0.38802
0.387961
0.387861
0.387713
0.387517
0.387291
0.387065
0.386869
0.386716
0.38663
0.386619
0.386661
0.38667
0.386669
0.386739
0.386892
0.387061
0.387195
0.387291
0.387374
0.387417
0.387431
0.387414
0.387369
0.387302
0.387228
0.387156
0.387089
0.387038
0.387001
0.386947
0.386894
0.386888
0.386925
0.386997
0.387044
0.38708
0.387118
0.387179
0.38727
0.387373
0.387446
0.387469
0.387431
0.38732
0.387166
0.386983
0.38681
0.3867
0.386678
0.386759
0.386931
0.387181
0.387396
0.387563
0.387695
0.387807
0.387919
0.388036
0.388159
0.388292
0.388432
0.388567
0.3887
0.388832
0.388929
0.388997
0.389047
0.389091
0.389149
0.389176
0.389173
0.389234
0.389343
0.389493
0.389681
0.389902
0.390109
0.390288
0.390449
0.390612
0.390786
0.390981
0.391146
0.391276
0.391368
0.391455
0.391545
0.391663
0.391841
0.392105
0.392485
0.392839
0.393126
0.393333
0.393446
0.393482
0.393476
0.39345
0.393424
0.393445
0.393494
0.393577
0.39363
0.393658
0.393684
0.393706
0.393805
0.393729
1.49094
0.763944
0.509661
0.427778
0.402866
0.395723
0.393558
0.39279
0.3925
0.39245
0.392345
0.392128
0.391829
0.391496
0.39117
0.390883
0.390648
0.390463
0.390321
0.39021
0.390155
0.390165
0.390245
0.390383
0.390588
0.390838
0.39112
0.391443
0.391769
0.392108
0.392416
0.392655
0.392837
0.392976
0.393082
0.393162
0.393256
0.393433
0.393622
0.393606
0.393334
0.392787
0.392029
0.391164
0.390315
0.389569
0.388975
0.388582
0.388401
0.388342
0.388337
0.388313
0.388277
0.388248
0.388232
0.388219
0.388183
0.3881
0.387959
0.387763
0.387531
0.387295
0.387086
0.386942
0.38687
0.386875
0.386905
0.386844
0.386762
0.386742
0.386836
0.386998
0.387159
0.387292
0.38741
0.38748
0.387503
0.387487
0.387444
0.387379
0.387301
0.387233
0.387178
0.387136
0.387089
0.387011
0.386986
0.387016
0.387046
0.387124
0.387179
0.38722
0.387264
0.387335
0.387444
0.387563
0.38764
0.387681
0.387663
0.387575
0.387446
0.387307
0.387172
0.3871
0.38715
0.387326
0.387611
0.387965
0.388264
0.388517
0.388736
0.388931
0.389112
0.389282
0.389446
0.389605
0.389765
0.389914
0.390061
0.390209
0.390313
0.390373
0.390402
0.39042
0.390444
0.390456
0.390446
0.39049
0.390595
0.390752
0.390954
0.391201
0.391455
0.39167
0.391858
0.392047
0.392251
0.392472
0.392652
0.392796
0.392906
0.393017
0.393147
0.393325
0.393586
0.39396
0.394467
0.394913
0.395269
0.395503
0.39562
0.395649
0.395621
0.395572
0.395522
0.395507
0.395536
0.395582
0.39558
0.395542
0.395545
0.395514
0.395598
0.395486
1.5198
0.785335
0.518593
0.430825
0.403726
0.396019
0.393789
0.393113
0.393011
0.393098
0.393001
0.392787
0.392489
0.392154
0.391811
0.39149
0.391197
0.390931
0.390691
0.390481
0.390342
0.390304
0.390324
0.390397
0.390554
0.390798
0.391102
0.391497
0.391915
0.392318
0.392697
0.393
0.393217
0.393365
0.39347
0.393561
0.393678
0.393883
0.394002
0.39391
0.39356
0.392951
0.392145
0.391248
0.390388
0.389657
0.389105
0.388781
0.388707
0.388736
0.388769
0.388765
0.38875
0.388753
0.388784
0.388827
0.388857
0.388841
0.38877
0.388644
0.388478
0.388307
0.388146
0.387996
0.387899
0.387883
0.387885
0.387724
0.387485
0.387289
0.387202
0.387243
0.387353
0.387491
0.387622
0.387703
0.387731
0.387711
0.387666
0.387601
0.387523
0.387453
0.387399
0.387355
0.387279
0.387194
0.387198
0.387291
0.387306
0.387384
0.387448
0.387493
0.387546
0.387629
0.387763
0.3879
0.387987
0.388059
0.388065
0.388004
0.387907
0.387815
0.387743
0.387734
0.387873
0.388179
0.388619
0.389099
0.389505
0.389859
0.390174
0.390452
0.39069
0.390901
0.391097
0.391281
0.391462
0.39163
0.391794
0.391958
0.392063
0.392109
0.39211
0.392093
0.392083
0.392068
0.392041
0.392066
0.392178
0.392358
0.392598
0.392896
0.393205
0.393464
0.393685
0.393905
0.394152
0.394403
0.394599
0.39475
0.394869
0.394998
0.395165
0.395419
0.395787
0.396309
0.396983
0.397558
0.398013
0.398306
0.39845
0.398477
0.398412
0.398318
0.398231
0.398176
0.398187
0.39819
0.398136
0.398034
0.397979
0.397873
0.397919
0.397792
1.55117
0.809836
0.529642
0.435317
0.405559
0.397011
0.394663
0.394135
0.39431
0.394617
0.394666
0.394581
0.394411
0.394202
0.393935
0.393641
0.393309
0.392927
0.392522
0.392117
0.391753
0.391485
0.391329
0.391266
0.391309
0.391458
0.391709
0.392069
0.392525
0.392978
0.393388
0.39374
0.394001
0.394155
0.39424
0.394318
0.394446
0.394662
0.394724
0.394546
0.394097
0.393405
0.392536
0.391609
0.390752
0.390069
0.389616
0.389425
0.3895
0.389608
0.389685
0.389721
0.389752
0.389814
0.389922
0.390067
0.390221
0.390351
0.390431
0.390445
0.390378
0.390221
0.389976
0.389705
0.389479
0.389339
0.389275
0.389026
0.388643
0.388313
0.38808
0.387943
0.3879
0.387944
0.388031
0.388122
0.388166
0.388156
0.388104
0.388025
0.387938
0.387857
0.387798
0.38773
0.387626
0.38755
0.38755
0.387708
0.387722
0.387796
0.387877
0.387933
0.387994
0.388083
0.388232
0.388402
0.388512
0.388633
0.388671
0.388644
0.388589
0.388551
0.388561
0.388652
0.388894
0.389343
0.389952
0.390578
0.391114
0.39159
0.392018
0.392397
0.392731
0.393028
0.393294
0.393536
0.39375
0.393929
0.39408
0.394216
0.394295
0.394292
0.394235
0.394164
0.39411
0.394067
0.394005
0.394007
0.39412
0.39432
0.394598
0.39495
0.395327
0.39564
0.395903
0.396157
0.39644
0.396732
0.39695
0.397113
0.397247
0.397399
0.397612
0.397951
0.398439
0.399121
0.399979
0.400714
0.401287
0.401641
0.401805
0.401824
0.401715
0.401557
0.401416
0.401313
0.401292
0.401241
0.401136
0.400983
0.400864
0.400699
0.400723
0.400584
1.57346
0.827707
0.537879
0.438828
0.407128
0.397939
0.395499
0.395098
0.39552
0.396037
0.396284
0.396413
0.396494
0.396554
0.396535
0.396379
0.396026
0.395539
0.395001
0.394426
0.393852
0.393339
0.392924
0.392627
0.392476
0.392474
0.392609
0.392874
0.393309
0.393781
0.394203
0.394559
0.394828
0.394986
0.395048
0.395087
0.3952
0.395397
0.395389
0.395119
0.394587
0.39383
0.392915
0.391963
0.391109
0.390472
0.390108
0.39004
0.390231
0.39038
0.390501
0.390575
0.390654
0.390776
0.390959
0.391203
0.391484
0.391757
0.391974
0.392099
0.392085
0.391905
0.391591
0.391226
0.390882
0.390626
0.390508
0.390187
0.389653
0.389147
0.388812
0.388597
0.388461
0.388427
0.388459
0.388521
0.388566
0.388552
0.388484
0.388383
0.388281
0.38819
0.388124
0.38803
0.387923
0.387854
0.387853
0.388039
0.388106
0.388164
0.388253
0.388315
0.388382
0.388476
0.388636
0.388823
0.388956
0.389099
0.389154
0.389146
0.389119
0.389118
0.389185
0.389351
0.389674
0.390236
0.390977
0.391719
0.392372
0.392978
0.393559
0.394115
0.394639
0.395105
0.395487
0.39578
0.396011
0.396172
0.396275
0.396337
0.396338
0.396234
0.396077
0.395909
0.395774
0.395678
0.395545
0.395514
0.395625
0.395846
0.396162
0.396565
0.396994
0.397344
0.397627
0.397891
0.398183
0.39849
0.398712
0.398875
0.399012
0.399173
0.399417
0.399816
0.4004
0.401226
0.402267
0.403182
0.403924
0.404408
0.404651
0.404676
0.404506
0.404257
0.404022
0.403835
0.403749
0.403627
0.403459
0.403244
0.403071
0.402849
0.402817
0.402688
1.58579
0.837947
0.542713
0.440984
0.408174
0.398616
0.396131
0.395839
0.39648
0.397205
0.397669
0.398015
0.398294
0.398471
0.39845
0.398179
0.397698
0.397112
0.396455
0.395769
0.395107
0.394516
0.394019
0.393605
0.393303
0.393178
0.393224
0.393432
0.393848
0.394337
0.394784
0.39515
0.39542
0.395587
0.395661
0.395698
0.39581
0.395976
0.395904
0.395552
0.394954
0.394145
0.393188
0.392216
0.39137
0.390771
0.390478
0.390511
0.390765
0.390941
0.391102
0.391208
0.391334
0.391508
0.391753
0.392077
0.392443
0.392792
0.393064
0.39321
0.393184
0.392979
0.392631
0.392208
0.3918
0.391488
0.39133
0.390956
0.390324
0.389716
0.389291
0.389013
0.388822
0.388754
0.388762
0.388811
0.388848
0.388824
0.388742
0.388624
0.388509
0.38841
0.38833
0.388223
0.388122
0.388062
0.388077
0.388244
0.388335
0.388418
0.388511
0.388576
0.388645
0.388749
0.388925
0.38912
0.389261
0.389404
0.38946
0.389454
0.38944
0.38946
0.389561
0.389775
0.390157
0.390798
0.39163
0.392462
0.393217
0.393943
0.394649
0.395312
0.395905
0.396411
0.396829
0.397167
0.397432
0.397612
0.397717
0.397772
0.397761
0.397618
0.397402
0.397156
0.396938
0.396784
0.396584
0.396515
0.396616
0.396849
0.397193
0.397636
0.398098
0.398472
0.398762
0.399026
0.399321
0.399615
0.399821
0.399961
0.400085
0.400241
0.400496
0.400935
0.4016
0.402562
0.403767
0.404837
0.405704
0.406254
0.406512
0.406521
0.406312
0.406009
0.405715
0.405472
0.405327
0.405134
0.40489
0.40462
0.404387
0.404131
0.404116
0.403932
1.59847
0.848732
0.547884
0.443348
0.40938
0.399452
0.396949
0.396819
0.39775
0.398755
0.39949
0.400055
0.400444
0.400607
0.400483
0.400098
0.399529
0.398847
0.398067
0.397228
0.396413
0.395688
0.395092
0.394611
0.394176
0.393921
0.393867
0.394002
0.394381
0.39488
0.395349
0.39573
0.396008
0.396182
0.396268
0.396317
0.396438
0.396582
0.396476
0.396066
0.395398
0.394525
0.393522
0.392536
0.391706
0.391158
0.390954
0.391105
0.391428
0.391661
0.391874
0.392023
0.392199
0.392425
0.39273
0.393124
0.393559
0.393968
0.394287
0.394462
0.394446
0.39423
0.393835
0.393328
0.392818
0.392398
0.392143
0.391721
0.390983
0.390289
0.3898
0.389466
0.389214
0.389106
0.389084
0.389116
0.389161
0.389138
0.389049
0.388918
0.38879
0.388686
0.388595
0.388482
0.388383
0.388321
0.388333
0.388457
0.38859
0.388692
0.388792
0.388865
0.38894
0.389046
0.389229
0.389438
0.389591
0.389743
0.389801
0.389802
0.389804
0.389848
0.389992
0.390269
0.390723
0.391452
0.392388
0.393331
0.394208
0.395051
0.395848
0.396566
0.397197
0.397746
0.398216
0.3986
0.398885
0.399065
0.399158
0.399191
0.399159
0.398984
0.398729
0.398435
0.398168
0.397977
0.397726
0.397628
0.39772
0.397962
0.398327
0.398805
0.399302
0.399695
0.399991
0.400255
0.400555
0.400848
0.401045
0.40117
0.401283
0.401439
0.401722
0.402223
0.403002
0.404118
0.40549
0.406703
0.407645
0.40821
0.408446
0.408428
0.408171
0.407803
0.40744
0.407141
0.406945
0.406706
0.406411
0.406087
0.405833
0.405536
0.405454
0.4053
1.61142
0.859983
0.553346
0.445888
0.410732
0.400449
0.397975
0.39806
0.399347
0.400666
0.401683
0.402454
0.402971
0.403222
0.403158
0.40276
0.402092
0.401253
0.400262
0.399164
0.398095
0.397156
0.396406
0.395836
0.395282
0.394874
0.394699
0.394747
0.395066
0.395563
0.396047
0.396449
0.396736
0.396906
0.396989
0.397041
0.397172
0.397283
0.397129
0.396654
0.39591
0.39497
0.393922
0.392927
0.392116
0.391631
0.391534
0.391814
0.392242
0.392563
0.392827
0.393009
0.393212
0.393471
0.393831
0.39428
0.394783
0.395262
0.395654
0.395898
0.395953
0.395779
0.395359
0.394766
0.394139
0.393582
0.39316
0.392659
0.39178
0.390962
0.390381
0.389981
0.389674
0.389524
0.389471
0.389484
0.389524
0.389497
0.389397
0.389249
0.389103
0.388987
0.388887
0.388774
0.388672
0.388605
0.388613
0.388722
0.388927
0.389005
0.389112
0.389193
0.389271
0.389382
0.389573
0.389797
0.389957
0.390117
0.390179
0.390187
0.390206
0.390283
0.390474
0.390824
0.391365
0.392195
0.393247
0.394305
0.395293
0.396237
0.397128
0.397957
0.398726
0.399423
0.400006
0.400442
0.40073
0.400882
0.400938
0.400925
0.400839
0.400601
0.400264
0.399887
0.399546
0.399306
0.398999
0.398875
0.398964
0.39922
0.399613
0.400147
0.4007
0.401124
0.401426
0.401661
0.401933
0.402209
0.402387
0.402497
0.402605
0.402773
0.4031
0.403684
0.404591
0.40587
0.407417
0.408774
0.40983
0.410496
0.410802
0.410781
0.410452
0.409972
0.409483
0.409066
0.408757
0.408427
0.408063
0.407687
0.407353
0.407041
0.406976
0.406749
1.62461
0.871688
0.559095
0.448603
0.412235
0.40162
0.399232
0.39959
0.401279
0.402957
0.404332
0.40548
0.406385
0.40696
0.407058
0.406607
0.405768
0.40468
0.403306
0.401713
0.40017
0.398869
0.397858
0.397089
0.396431
0.395891
0.395602
0.395559
0.395812
0.396305
0.396806
0.39723
0.397534
0.397708
0.397785
0.397836
0.397975
0.398061
0.397865
0.397314
0.396489
0.395474
0.394388
0.393379
0.392598
0.392194
0.392226
0.392661
0.393218
0.393635
0.393939
0.39414
0.394358
0.394647
0.39507
0.395575
0.396169
0.396773
0.397321
0.397748
0.397985
0.397905
0.397414
0.396642
0.395781
0.394966
0.394299
0.393704
0.392696
0.391739
0.391046
0.390565
0.390192
0.389993
0.389907
0.3899
0.389935
0.3899
0.389786
0.389621
0.389455
0.389325
0.38922
0.389107
0.388999
0.388927
0.388927
0.389039
0.389253
0.389353
0.389471
0.389564
0.389646
0.389753
0.389951
0.390185
0.390356
0.390523
0.39059
0.390607
0.390648
0.390765
0.391011
0.391435
0.392079
0.393025
0.394187
0.395351
0.396457
0.397544
0.398627
0.399698
0.400712
0.401597
0.402294
0.402764
0.403006
0.403071
0.403022
0.402909
0.402727
0.402401
0.40196
0.401488
0.401064
0.400759
0.400392
0.400245
0.40034
0.400634
0.401089
0.40169
0.402297
0.402753
0.403065
0.4033
0.403558
0.403793
0.403924
0.403999
0.404095
0.404278
0.404656
0.405322
0.406357
0.407823
0.409568
0.411103
0.412319
0.413106
0.413481
0.413458
0.413076
0.412491
0.411863
0.4113
0.410827
0.410342
0.409865
0.409403
0.409057
0.408633
0.408664
0.408337
1.63785
0.884075
0.565171
0.451519
0.413911
0.402991
0.400742
0.401441
0.403598
0.405796
0.407858
0.409861
0.411698
0.413008
0.413509
0.413068
0.411941
0.410388
0.408289
0.405715
0.403209
0.401202
0.399758
0.398647
0.397805
0.397118
0.396692
0.396549
0.396713
0.39717
0.397691
0.398131
0.39845
0.398624
0.398686
0.398726
0.398857
0.398902
0.398666
0.398048
0.39714
0.396048
0.394906
0.393891
0.393159
0.392865
0.393046
0.393675
0.39437
0.394884
0.395228
0.395468
0.395724
0.396058
0.396554
0.397155
0.397925
0.398792
0.399701
0.400578
0.401235
0.401408
0.40078
0.399616
0.39824
0.396918
0.395862
0.394967
0.393763
0.392632
0.391804
0.391227
0.390784
0.390531
0.390409
0.390379
0.390403
0.390357
0.390223
0.390036
0.389848
0.389709
0.389602
0.389485
0.389366
0.389289
0.389281
0.389407
0.389632
0.38975
0.389885
0.389989
0.390072
0.390183
0.390385
0.390623
0.390808
0.390971
0.391043
0.391072
0.391137
0.391297
0.391601
0.392103
0.392864
0.393928
0.395198
0.396495
0.397789
0.399151
0.400628
0.402164
0.403608
0.404826
0.405717
0.406223
0.406354
0.406188
0.405872
0.405496
0.405093
0.404564
0.403936
0.403301
0.402777
0.402388
0.40198
0.4018
0.401889
0.402209
0.402713
0.403371
0.404023
0.404509
0.404831
0.405078
0.405352
0.405585
0.405683
0.405717
0.405786
0.405967
0.406381
0.407126
0.408306
0.409977