/*--------------------------------*- C++ -*----------------------------------*\
| =========                 |                                                 |
| \\      /  F ield         | OpenFOAM: The Open Source CFD Toolbox           |
|  \\    /   O peration     | Version:  v1912                                 |
|   \\  /    A nd           | Website:  www.openfoam.com                      |
|    \\/     M anipulation  |                                                 |
\*---------------------------------------------------------------------------*/
FoamFile
{
    version     2.0;
    format      ascii;
    class       volScalarField;
    location    "100";
    object      p;
}
// * * * * * * * * * * * * * * * * * * * * * * * * * * * * * * * * * * * * * //

dimensions      [1 -1 -2 0 0 0 0];


internalField   nonuniform List<scalar> 
14268
(
-82.6057
-83.1873
-83.7665
-84.3447
-84.8969
-85.468
-86.0528
-86.6571
-87.2524
-87.7748
-88.2995
-88.8957
-89.539
-90.1792
-90.7894
-91.3402
-91.874
-92.3972
-92.9779
-93.5708
-94.1791
-94.7905
-95.4073
-96.0513
-96.7057
-97.361
-98.012
-98.5815
-99.1923
-99.8459
-100.504
-101.137
-101.732
-102.265
-102.77
-103.353
-103.941
-104.505
-105.026
-105.631
-106.294
-107.185
-107.894
-108.539
-109.168
-109.825
-110.47
-111.086
-111.683
-112.28
-112.878
-113.466
-114.021
-114.547
-115.058
-115.593
-116.176
-116.755
-117.337
-117.9
-118.5
-119.165
-119.862
-120.512
-121.106
-121.698
-122.3
-122.906
-123.509
-124.109
-124.707
-125.305
-125.902
-126.499
-127.097
-127.694
-128.291
-128.888
-129.486
-130.083
-130.681
-131.278
-131.875
-132.473
-133.07
-133.668
-134.265
-134.862
-135.459
-136.056
-136.653
-137.25
-137.846
-138.443
-139.039
-139.636
-140.232
-140.828
-141.424
-142.019
-142.615
-143.21
-143.805
-144.4
-144.995
-145.59
-146.184
-146.778
-147.372
-147.967
-148.56
-149.154
-149.747
-150.341
-150.934
-151.527
-152.119
-152.713
-153.305
-153.898
-154.489
-155.082
-155.674
-156.266
-156.857
-157.449
-158.041
-158.632
-159.223
-159.814
-160.406
-160.996
-161.587
-162.178
-162.769
-163.359
-163.95
-164.54
-165.13
-165.721
-166.311
-166.901
-167.491
-168.081
-168.671
-169.261
-169.851
-170.44
-171.03
-171.62
-82.752
-83.3328
-83.9095
-84.4851
-85.0374
-85.61
-86.1957
-86.7959
-87.3946
-87.9314
-88.4725
-89.0684
-89.7016
-90.3282
-90.9456
-91.5043
-92.0498
-92.5787
-93.1587
-93.7499
-94.3546
-94.9635
-95.5842
-96.2359
-96.8925
-97.5441
-98.1774
-98.7452
-99.3689
-100.021
-100.671
-101.297
-101.885
-102.418
-102.943
-103.539
-104.135
-104.707
-105.237
-105.84
-106.484
-107.338
-108.028
-108.669
-109.298
-109.954
-110.598
-111.215
-111.811
-112.406
-113.004
-113.595
-114.159
-114.696
-115.223
-115.772
-116.357
-116.938
-117.523
-118.088
-118.683
-119.331
-120.007
-120.641
-121.232
-121.823
-122.424
-123.029
-123.631
-124.231
-124.829
-125.427
-126.024
-126.621
-127.218
-127.816
-128.413
-129.01
-129.608
-130.205
-130.802
-131.4
-131.997
-132.595
-133.192
-133.789
-134.387
-134.984
-135.581
-136.178
-136.775
-137.372
-137.968
-138.565
-139.161
-139.758
-140.354
-140.95
-141.545
-142.141
-142.737
-143.332
-143.927
-144.522
-145.117
-145.712
-146.306
-146.9
-147.494
-148.088
-148.682
-149.276
-149.869
-150.463
-151.055
-151.649
-152.241
-152.835
-153.427
-154.02
-154.611
-155.204
-155.796
-156.388
-156.979
-157.571
-158.163
-158.754
-159.345
-159.936
-160.527
-161.118
-161.709
-162.3
-162.891
-163.481
-164.072
-164.662
-165.252
-165.843
-166.433
-167.023
-167.613
-168.203
-168.793
-169.383
-169.973
-170.562
-171.152
-171.742
-82.8793
-83.4604
-84.0388
-84.6161
-85.1685
-85.7394
-86.3241
-86.9214
-87.5239
-88.0657
-88.611
-89.2064
-89.8392
-90.4546
-91.0613
-91.6208
-92.1683
-92.7007
-93.281
-93.8712
-94.472
-95.0774
-95.6998
-96.3544
-97.0109
-97.6686
-98.3105
-98.8955
-99.5306
-100.182
-100.829
-101.444
-102.028
-102.581
-103.115
-103.703
-104.278
-104.841
-105.373
-105.976
-106.616
-107.466
-108.16
-108.801
-109.429
-110.084
-110.726
-111.341
-111.937
-112.53
-113.128
-113.719
-114.282
-114.822
-115.349
-115.901
-116.487
-117.068
-117.654
-118.219
-118.813
-119.46
-120.133
-120.765
-121.356
-121.948
-122.549
-123.152
-123.754
-124.353
-124.951
-125.549
-126.146
-126.743
-127.34
-127.938
-128.535
-129.132
-129.73
-130.327
-130.924
-131.522
-132.119
-132.717
-133.314
-133.911
-134.509
-135.106
-135.703
-136.3
-136.897
-137.494
-138.09
-138.687
-139.283
-139.88
-140.476
-141.072
-141.667
-142.263
-142.859
-143.454
-144.049
-144.644
-145.239
-145.833
-146.428
-147.022
-147.616
-148.21
-148.804
-149.398
-149.991
-150.585
-151.177
-151.771
-152.363
-152.956
-153.549
-154.141
-154.733
-155.326
-155.918
-156.51
-157.101
-157.693
-158.284
-158.876
-159.467
-160.058
-160.649
-161.24
-161.831
-162.422
-163.013
-163.603
-164.194
-164.784
-165.374
-165.965
-166.555
-167.145
-167.735
-168.325
-168.915
-169.505
-170.094
-170.684
-171.274
-171.864
-83.0135
-83.5941
-84.1733
-84.7583
-85.3179
-85.8885
-86.4669
-87.0629
-87.6672
-88.2196
-88.774
-89.3742
-90.0045
-90.6094
-91.2054
-91.7594
-92.2996
-92.8286
-93.4103
-94.0006
-94.6049
-95.2185
-95.853
-96.5164
-97.1724
-97.8247
-98.4584
-99.0451
-99.6949
-100.343
-100.98
-101.585
-102.172
-102.741
-103.295
-103.895
-104.473
-105.035
-105.561
-106.158
-106.784
-107.604
-108.292
-108.934
-109.561
-110.215
-110.855
-111.467
-112.062
-112.655
-113.251
-113.845
-114.417
-114.963
-115.5
-116.061
-116.651
-117.235
-117.824
-118.391
-118.98
-119.614
-120.272
-120.894
-121.481
-122.073
-122.674
-123.276
-123.877
-124.475
-125.073
-125.671
-126.268
-126.865
-127.462
-128.06
-128.657
-129.254
-129.852
-130.449
-131.046
-131.644
-132.241
-132.839
-133.436
-134.033
-134.631
-135.228
-135.825
-136.422
-137.019
-137.616
-138.212
-138.809
-139.405
-140.001
-140.598
-141.194
-141.789
-142.385
-142.98
-143.576
-144.171
-144.766
-145.361
-145.955
-146.55
-147.144
-147.738
-148.332
-148.926
-149.52
-150.113
-150.707
-151.299
-151.893
-152.485
-153.078
-153.67
-154.263
-154.855
-155.448
-156.039
-156.632
-157.223
-157.815
-158.406
-158.998
-159.589
-160.18
-160.771
-161.362
-161.953
-162.544
-163.134
-163.725
-164.315
-164.906
-165.496
-166.087
-166.677
-167.267
-167.857
-168.447
-169.037
-169.627
-170.216
-170.806
-171.396
-171.985
-83.1416
-83.7255
-84.3082
-84.8959
-85.4596
-86.0304
-86.6076
-87.2022
-87.8026
-88.3484
-88.9039
-89.505
-90.1414
-90.7509
-91.3469
-91.8876
-92.4204
-92.949
-93.5268
-94.1191
-94.7302
-95.3544
-95.995
-96.6647
-97.3185
-97.9583
-98.5889
-99.1826
-99.8373
-100.482
-101.119
-101.723
-102.314
-102.893
-103.451
-104.053
-104.625
-105.184
-105.707
-106.305
-106.929
-107.737
-108.417
-109.058
-109.687
-110.342
-110.983
-111.594
-112.186
-112.778
-113.372
-113.966
-114.536
-115.086
-115.623
-116.187
-116.777
-117.36
-117.949
-118.515
-119.104
-119.738
-120.396
-121.02
-121.605
-122.197
-122.797
-123.399
-123.999
-124.597
-125.195
-125.793
-126.39
-126.987
-127.584
-128.182
-128.779
-129.376
-129.973
-130.571
-131.168
-131.766
-132.363
-132.961
-133.558
-134.155
-134.753
-135.35
-135.947
-136.544
-137.141
-137.738
-138.334
-138.931
-139.527
-140.123
-140.72
-141.315
-141.911
-142.507
-143.102
-143.698
-144.293
-144.888
-145.483
-146.077
-146.672
-147.266
-147.86
-148.454
-149.048
-149.642
-150.235
-150.829
-151.421
-152.015
-152.607
-153.2
-153.792
-154.385
-154.977
-155.57
-156.161
-156.753
-157.345
-157.937
-158.528
-159.12
-159.711
-160.302
-160.893
-161.484
-162.075
-162.666
-163.256
-163.847
-164.437
-165.028
-165.618
-166.209
-166.799
-167.389
-167.979
-168.569
-169.159
-169.749
-170.338
-170.928
-171.518
-172.107
-83.2752
-83.8611
-84.4452
-85.034
-85.6007
-86.1733
-86.7507
-87.3447
-87.9445
-88.4954
-89.0554
-89.6594
-90.2922
-90.9037
-91.5047
-92.0504
-92.5928
-93.1236
-93.7037
-94.2985
-94.912
-95.5356
-96.1762
-96.8474
-97.5028
-98.1404
-98.7549
-99.3416
-99.9853
-100.621
-101.254
-101.859
-102.454
-103.041
-103.612
-104.225
-104.808
-105.375
-105.901
-106.491
-107.103
-107.889
-108.545
-109.178
-109.807
-110.468
-111.11
-111.721
-112.312
-112.902
-113.496
-114.092
-114.671
-115.223
-115.767
-116.338
-116.932
-117.519
-118.113
-118.679
-119.264
-119.886
-120.532
-121.148
-121.73
-122.321
-122.921
-123.522
-124.121
-124.719
-125.317
-125.915
-126.512
-127.109
-127.706
-128.303
-128.901
-129.498
-130.095
-130.693
-131.29
-131.888
-132.485
-133.083
-133.68
-134.277
-134.875
-135.472
-136.069
-136.666
-137.263
-137.859
-138.456
-139.053
-139.649
-140.245
-140.841
-141.437
-142.033
-142.629
-143.224
-143.82
-144.415
-145.01
-145.605
-146.199
-146.794
-147.388
-147.982
-148.576
-149.17
-149.764
-150.357
-150.951
-151.543
-152.137
-152.729
-153.322
-153.914
-154.507
-155.099
-155.692
-156.283
-156.875
-157.467
-158.059
-158.65
-159.242
-159.833
-160.424
-161.015
-161.606
-162.197
-162.788
-163.378
-163.969
-164.559
-165.15
-165.74
-166.331
-166.921
-167.511
-168.101
-168.691
-169.281
-169.871
-170.46
-171.05
-171.64
-172.229
-83.397
-83.9859
-84.5725
-85.164
-85.7332
-86.3057
-86.8826
-87.4764
-88.0751
-88.6211
-89.1816
-89.7867
-90.4232
-91.0358
-91.6407
-92.1871
-92.7255
-93.2586
-93.8402
-94.4371
-95.0539
-95.679
-96.3171
-96.9864
-97.6398
-98.2778
-98.9059
-99.5006
-100.139
-100.768
-101.389
-101.993
-102.587
-103.177
-103.757
-104.374
-104.953
-105.515
-106.036
-106.627
-107.24
-108.028
-108.675
-109.304
-109.931
-110.593
-111.236
-111.847
-112.438
-113.027
-113.621
-114.216
-114.789
-115.346
-115.89
-116.464
-117.058
-117.644
-118.236
-118.802
-119.387
-120.011
-120.655
-121.273
-121.855
-122.444
-123.044
-123.645
-124.244
-124.841
-125.439
-126.037
-126.634
-127.231
-127.828
-128.425
-129.023
-129.62
-130.217
-130.815
-131.412
-132.01
-132.607
-133.204
-133.802
-134.399
-134.996
-135.594
-136.191
-136.788
-137.385
-137.981
-138.578
-139.175
-139.771
-140.367
-140.963
-141.559
-142.155
-142.751
-143.346
-143.942
-144.537
-145.132
-145.726
-146.321
-146.916
-147.51
-148.104
-148.698
-149.292
-149.886
-150.479
-151.072
-151.665
-152.259
-152.851
-153.444
-154.036
-154.629
-155.221
-155.814
-156.405
-156.997
-157.589
-158.181
-158.772
-159.363
-159.955
-160.546
-161.137
-161.728
-162.319
-162.91
-163.5
-164.091
-164.681
-165.272
-165.862
-166.452
-167.042
-167.633
-168.223
-168.813
-169.403
-169.992
-170.582
-171.172
-171.762
-172.351
-83.5239
-84.1162
-84.7051
-85.2973
-85.8686
-86.4423
-87.0194
-87.6126
-88.212
-88.764
-89.328
-89.9346
-90.5678
-91.181
-91.7879
-92.3375
-92.8883
-93.4265
-94.0097
-94.6068
-95.2223
-95.8453
-96.4827
-97.1529
-97.8079
-98.4456
-99.0661
-99.6623
-100.298
-100.921
-101.533
-102.124
-102.713
-103.302
-103.897
-104.531
-105.123
-105.695
-106.218
-106.8
-107.401
-108.175
-108.81
-109.434
-110.06
-110.719
-111.36
-111.972
-112.564
-113.153
-113.747
-114.342
-114.924
-115.481
-116.029
-116.609
-117.208
-117.798
-118.396
-118.962
-119.542
-120.155
-120.789
-121.4
-121.98
-122.568
-123.167
-123.768
-124.366
-124.964
-125.561
-126.159
-126.756
-127.353
-127.95
-128.547
-129.145
-129.742
-130.339
-130.937
-131.534
-132.132
-132.729
-133.326
-133.924
-134.521
-135.118
-135.716
-136.313
-136.91
-137.507
-138.103
-138.7
-139.297
-139.893
-140.489
-141.085
-141.681
-142.277
-142.873
-143.468
-144.064
-144.659
-145.254
-145.848
-146.443
-147.038
-147.632
-148.226
-148.82
-149.414
-150.008
-150.601
-151.194
-151.787
-152.381
-152.973
-153.566
-154.158
-154.751
-155.343
-155.935
-156.527
-157.119
-157.711
-158.303
-158.894
-159.485
-160.077
-160.668
-161.259
-161.85
-162.441
-163.032
-163.622
-164.213
-164.803
-165.394
-165.984
-166.574
-167.164
-167.755
-168.345
-168.935
-169.524
-170.114
-170.704
-171.294
-171.884
-172.473
-83.6443
-84.2386
-84.8298
-85.4246
-85.9979
-86.572
-87.1484
-87.7412
-88.3403
-88.8887
-89.4529
-90.0615
-90.6973
-91.3098
-91.9185
-92.4725
-93.0244
-93.567
-94.1505
-94.7468
-95.3614
-95.983
-96.6175
-97.2847
-97.938
-98.5761
-99.2097
-99.8134
-100.448
-101.067
-101.677
-102.26
-102.832
-103.411
-104.002
-104.64
-105.234
-105.811
-106.34
-106.93
-107.535
-108.311
-108.943
-109.564
-110.188
-110.843
-111.482
-112.094
-112.689
-113.278
-113.871
-114.466
-115.041
-115.603
-116.152
-116.735
-117.335
-117.923
-118.519
-119.085
-119.666
-120.279
-120.912
-121.524
-122.104
-122.691
-123.29
-123.89
-124.488
-125.086
-125.683
-126.281
-126.878
-127.475
-128.072
-128.669
-129.267
-129.864
-130.461
-131.059
-131.656
-132.254
-132.851
-133.448
-134.046
-134.643
-135.24
-135.838
-136.435
-137.032
-137.629
-138.225
-138.822
-139.419
-140.015
-140.611
-141.207
-141.803
-142.399
-142.995
-143.59
-144.185
-144.781
-145.376
-145.97
-146.565
-147.159
-147.754
-148.348
-148.942
-149.536
-150.129
-150.723
-151.316
-151.909
-152.503
-153.095
-153.688
-154.28
-154.873
-155.465
-156.057
-156.649
-157.241
-157.833
-158.424
-159.016
-159.607
-160.199
-160.79
-161.381
-161.972
-162.563
-163.153
-163.744
-164.335
-164.925
-165.516
-166.106
-166.696
-167.286
-167.877
-168.466
-169.057
-169.646
-170.236
-170.826
-171.416
-172.005
-172.595
-83.7752
-84.3694
-84.9606
-85.5557
-86.1305
-86.7055
-87.2824
-87.8748
-88.475
-89.0289
-89.5959
-90.2049
-90.8382
-91.4513
-92.0618
-92.6221
-93.1854
-93.729
-94.313
-94.9086
-95.5213
-96.1405
-96.7739
-97.4432
-98.0976
-98.7356
-99.3603
-99.9644
-100.597
-101.212
-101.818
-102.402
-102.962
-103.524
-104.115
-104.758
-105.356
-105.935
-106.476
-107.088
-107.689
-108.452
-109.075
-109.693
-110.315
-110.967
-111.604
-112.215
-112.811
-113.402
-113.995
-114.591
-115.175
-115.736
-116.289
-116.877
-117.481
-118.074
-118.675
-119.241
-119.816
-120.42
-121.044
-121.65
-122.228
-122.814
-123.412
-124.012
-124.61
-125.208
-125.805
-126.403
-127
-127.597
-128.194
-128.791
-129.389
-129.986
-130.583
-131.181
-131.778
-132.375
-132.973
-133.57
-134.168
-134.765
-135.362
-135.959
-136.557
-137.154
-137.75
-138.347
-138.944
-139.54
-140.137
-140.733
-141.329
-141.925
-142.521
-143.117
-143.712
-144.307
-144.903
-145.498
-146.092
-146.687
-147.281
-147.876
-148.47
-149.064
-149.657
-150.251
-150.845
-151.438
-152.031
-152.624
-153.217
-153.81
-154.402
-154.995
-155.587
-156.179
-156.771
-157.363
-157.955
-158.546
-159.138
-159.729
-160.321
-160.912
-161.503
-162.094
-162.685
-163.275
-163.866
-164.457
-165.047
-165.638
-166.228
-166.818
-167.408
-167.999
-168.588
-169.179
-169.768
-170.358
-170.948
-171.538
-172.127
-172.717
-83.899
-84.4933
-85.0851
-85.6826
-86.2592
-86.8344
-87.4101
-88.0021
-88.6022
-89.1536
-89.7206
-90.332
-90.9671
-91.5788
-92.1917
-92.7552
-93.3165
-93.863
-94.4472
-95.0421
-95.6545
-96.2732
-96.9048
-97.5722
-98.2253
-98.863
-99.4992
-100.108
-100.739
-101.351
-101.955
-102.543
-103.105
-103.657
-104.241
-104.882
-105.481
-106.067
-106.61
-107.217
-107.82
-108.584
-109.205
-109.821
-110.442
-111.092
-111.726
-112.335
-112.93
-113.523
-114.119
-114.714
-115.292
-115.859
-116.412
-117.004
-117.609
-118.2
-118.799
-119.367
-119.943
-120.546
-121.168
-121.774
-122.352
-122.937
-123.535
-124.135
-124.733
-125.33
-125.927
-126.525
-127.122
-127.719
-128.316
-128.913
-129.51
-130.108
-130.705
-131.303
-131.9
-132.497
-133.095
-133.692
-134.29
-134.887
-135.484
-136.081
-136.679
-137.276
-137.872
-138.469
-139.066
-139.662
-140.259
-140.855
-141.451
-142.047
-142.643
-143.239
-143.834
-144.429
-145.024
-145.619
-146.214
-146.809
-147.403
-147.998
-148.592
-149.186
-149.779
-150.373
-150.966
-151.56
-152.153
-152.746
-153.339
-153.932
-154.524
-155.117
-155.709
-156.301
-156.893
-157.485
-158.077
-158.668
-159.26
-159.851
-160.443
-161.034
-161.625
-162.216
-162.807
-163.397
-163.988
-164.579
-165.169
-165.76
-166.35
-166.94
-167.53
-168.12
-168.71
-169.3
-169.89
-170.48
-171.07
-171.66
-172.249
-172.839
-84.0281
-84.6227
-85.2154
-85.8131
-86.3909
-86.9668
-87.543
-88.1341
-88.7358
-89.2917
-89.8601
-90.472
-91.1055
-91.718
-92.3318
-92.8995
-93.47
-94.0169
-94.6015
-95.1962
-95.8074
-96.4245
-97.0557
-97.7256
-98.3798
-99.0177
-99.6444
-100.252
-100.882
-101.491
-102.091
-102.683
-103.253
-103.807
-104.398
-105.048
-105.651
-106.241
-106.78
-107.375
-107.966
-108.72
-109.334
-109.949
-110.571
-111.22
-111.851
-112.458
-113.052
-113.645
-114.242
-114.839
-115.426
-115.991
-116.547
-117.143
-117.752
-118.347
-118.953
-119.518
-120.089
-120.685
-121.299
-121.9
-122.476
-123.061
-123.657
-124.257
-124.855
-125.452
-126.049
-126.646
-127.244
-127.841
-128.438
-129.035
-129.632
-130.23
-130.827
-131.424
-132.022
-132.619
-133.217
-133.814
-134.412
-135.009
-135.606
-136.203
-136.8
-137.397
-137.994
-138.591
-139.188
-139.784
-140.381
-140.977
-141.573
-142.169
-142.765
-143.36
-143.956
-144.551
-145.146
-145.741
-146.336
-146.931
-147.525
-148.12
-148.714
-149.308
-149.901
-150.495
-151.088
-151.682
-152.275
-152.868
-153.461
-154.054
-154.646
-155.239
-155.831
-156.423
-157.015
-157.607
-158.199
-158.79
-159.382
-159.973
-160.565
-161.156
-161.747
-162.338
-162.929
-163.519
-164.11
-164.701
-165.291
-165.882
-166.472
-167.062
-167.652
-168.242
-168.832
-169.422
-170.012
-170.602
-171.192
-171.782
-172.371
-172.961
-84.1513
-84.7464
-85.3395
-85.9394
-86.5188
-87.0952
-87.6703
-88.2612
-88.8624
-89.4156
-89.9832
-90.5982
-91.234
-91.845
-92.4609
-93.0304
-93.5983
-94.1474
-94.7323
-95.3265
-95.9375
-96.5547
-97.1849
-97.8535
-98.507
-99.1443
-99.7811
-100.392
-101.02
-101.625
-102.224
-102.821
-103.4
-103.959
-104.548
-105.197
-105.797
-106.383
-106.917
-107.505
-108.094
-108.85
-109.463
-110.075
-110.699
-111.348
-111.977
-112.582
-113.177
-113.769
-114.365
-114.962
-115.543
-116.114
-116.67
-117.27
-117.881
-118.474
-119.078
-119.646
-120.217
-120.811
-121.424
-122.025
-122.6
-123.184
-123.78
-124.379
-124.977
-125.574
-126.171
-126.768
-127.366
-127.963
-128.56
-129.157
-129.754
-130.352
-130.949
-131.546
-132.144
-132.741
-133.339
-133.936
-134.534
-135.131
-135.728
-136.325
-136.922
-137.519
-138.116
-138.713
-139.31
-139.906
-140.503
-141.099
-141.695
-142.291
-142.887
-143.482
-144.078
-144.673
-145.268
-145.863
-146.458
-147.053
-147.647
-148.242
-148.836
-149.43
-150.023
-150.617
-151.21
-151.804
-152.397
-152.99
-153.583
-154.176
-154.768
-155.361
-155.953
-156.545
-157.137
-157.729
-158.321
-158.912
-159.504
-160.095
-160.686
-161.277
-161.869
-162.46
-163.05
-163.641
-164.232
-164.823
-165.413
-166.003
-166.594
-167.184
-167.774
-168.364
-168.954
-169.544
-170.134
-170.724
-171.314
-171.904
-172.493
-173.083
-84.2788
-84.8746
-85.4689
-86.069
-86.6495
-87.2265
-87.8024
-88.3923
-88.9948
-89.5504
-90.1188
-90.7338
-91.3698
-91.9824
-92.5985
-93.1714
-93.7471
-94.2963
-94.8816
-95.4759
-96.0864
-96.7024
-97.3322
-98.0034
-98.6577
-99.2957
-99.9229
-100.533
-101.159
-101.762
-102.357
-102.958
-103.545
-104.109
-104.701
-105.355
-105.956
-106.543
-107.073
-107.651
-108.229
-108.979
-109.592
-110.201
-110.826
-111.476
-112.104
-112.709
-113.303
-113.894
-114.489
-115.086
-115.676
-116.245
-116.804
-117.407
-118.021
-118.62
-119.229
-119.795
-120.361
-120.948
-121.554
-122.151
-122.724
-123.307
-123.902
-124.501
-125.099
-125.696
-126.293
-126.89
-127.488
-128.085
-128.682
-129.279
-129.876
-130.474
-131.071
-131.668
-132.266
-132.863
-133.461
-134.058
-134.655
-135.253
-135.85
-136.447
-137.044
-137.641
-138.238
-138.835
-139.432
-140.028
-140.625
-141.221
-141.817
-142.413
-143.009
-143.604
-144.2
-144.795
-145.39
-145.985
-146.58
-147.175
-147.769
-148.364
-148.958
-149.552
-150.145
-150.739
-151.332
-151.926
-152.519
-153.112
-153.705
-154.298
-154.89
-155.483
-156.075
-156.667
-157.259
-157.851
-158.442
-159.034
-159.626
-160.217
-160.808
-161.399
-161.991
-162.581
-163.172
-163.763
-164.354
-164.944
-165.535
-166.125
-166.715
-167.306
-167.896
-168.486
-169.076
-169.666
-170.256
-170.846
-171.436
-172.025
-172.615
-173.205
-84.4626
-85.0597
-85.6548
-86.258
-86.8407
-87.4189
-87.9929
-88.5828
-89.1832
-89.7352
-90.3037
-90.9229
-91.5606
-92.1718
-92.7918
-93.3659
-93.9376
-94.4896
-95.0754
-95.6687
-96.2789
-96.8956
-97.5244
-98.1944
-98.8493
-99.4856
-100.127
-100.738
-101.361
-101.957
-102.552
-103.163
-103.759
-104.33
-104.916
-105.548
-106.143
-106.726
-107.257
-107.832
-108.401
-109.164
-109.784
-110.391
-111.016
-111.666
-112.293
-112.897
-113.491
-114.081
-114.674
-115.271
-115.853
-116.429
-116.988
-117.597
-118.216
-118.812
-119.419
-119.989
-120.554
-121.138
-121.741
-122.338
-122.909
-123.491
-124.086
-124.684
-125.282
-125.879
-126.476
-127.073
-127.67
-128.268
-128.865
-129.462
-130.059
-130.657
-131.254
-131.851
-132.449
-133.046
-133.644
-134.241
-134.838
-135.436
-136.033
-136.63
-137.227
-137.824
-138.421
-139.018
-139.615
-140.211
-140.808
-141.404
-142
-142.596
-143.192
-143.787
-144.383
-144.978
-145.573
-146.168
-146.763
-147.358
-147.952
-148.546
-149.14
-149.735
-150.328
-150.922
-151.515
-152.109
-152.702
-153.295
-153.887
-154.481
-155.073
-155.666
-156.257
-156.85
-157.442
-158.034
-158.625
-159.217
-159.809
-160.4
-160.991
-161.582
-162.174
-162.764
-163.355
-163.946
-164.537
-165.127
-165.718
-166.308
-166.898
-167.489
-168.079
-168.669
-169.259
-169.849
-170.439
-171.029
-171.619
-172.208
-172.798
-173.388
-84.7155
-85.3142
-85.9117
-86.5155
-87.1001
-87.6792
-88.2553
-88.8423
-89.4452
-90.0043
-90.5751
-91.1918
-91.8283
-92.4432
-93.0626
-93.6425
-94.2272
-94.7793
-95.3657
-95.9596
-96.5694
-97.1842
-97.8121
-98.4866
-99.1419
-99.7816
-100.406
-101.014
-101.629
-102.217
-102.804
-103.431
-104.038
-104.619
-105.22
-105.86
-106.446
-107.024
-107.547
-108.107
-108.657
-109.397
-110.029
-110.643
-111.27
-111.917
-112.539
-113.142
-113.737
-114.329
-114.921
-115.518
-116.116
-116.689
-117.252
-117.87
-118.494
-119.099
-119.714
-120.279
-120.836
-121.409
-121.998
-122.588
-123.157
-123.736
-124.33
-124.929
-125.526
-126.123
-126.72
-127.317
-127.914
-128.511
-129.109
-129.706
-130.303
-130.9
-131.498
-132.095
-132.693
-133.29
-133.887
-134.485
-135.082
-135.68
-136.277
-136.874
-137.471
-138.068
-138.665
-139.262
-139.859
-140.455
-141.051
-141.648
-142.244
-142.84
-143.436
-144.031
-144.627
-145.222
-145.817
-146.412
-147.007
-147.602
-148.196
-148.79
-149.384
-149.978
-150.572
-151.166
-151.759
-152.353
-152.945
-153.539
-154.131
-154.725
-155.317
-155.909
-156.501
-157.094
-157.686
-158.278
-158.869
-159.461
-160.052
-160.644
-161.235
-161.826
-162.417
-163.008
-163.599
-164.19
-164.781
-165.371
-165.962
-166.552
-167.142
-167.733
-168.323
-168.913
-169.503
-170.093
-170.683
-171.273
-171.862
-172.452
-173.042
-173.631
-84.961
-85.56
-86.1587
-86.7663
-87.3538
-87.9346
-88.5079
-89.0947
-89.6962
-90.2531
-90.8226
-91.4457
-92.0839
-92.6933
-93.3182
-93.8988
-94.4785
-95.033
-95.62
-96.2123
-96.821
-97.4367
-98.0647
-98.7388
-99.3949
-100.032
-100.672
-101.284
-101.896
-102.476
-103.053
-103.695
-104.314
-104.9
-105.501
-106.15
-106.739
-107.318
-107.843
-108.401
-108.937
-109.641
-110.27
-110.894
-111.525
-112.169
-112.783
-113.382
-113.979
-114.571
-115.165
-115.763
-116.352
-116.933
-117.493
-118.119
-118.75
-119.353
-119.968
-120.541
-121.094
-121.66
-122.248
-122.837
-123.403
-123.982
-124.575
-125.173
-125.77
-126.367
-126.964
-127.561
-128.158
-128.755
-129.353
-129.95
-130.547
-131.144
-131.742
-132.339
-132.937
-133.534
-134.131
-134.729
-135.326
-135.923
-136.521
-137.118
-137.715
-138.312
-138.909
-139.506
-140.102
-140.699
-141.295
-141.892
-142.488
-143.084
-143.679
-144.275
-144.871
-145.466
-146.061
-146.656
-147.251
-147.845
-148.44
-149.034
-149.628
-150.222
-150.816
-151.41
-152.003
-152.597
-153.189
-153.783
-154.375
-154.968
-155.56
-156.153
-156.745
-157.338
-157.929
-158.521
-159.113
-159.705
-160.296
-160.888
-161.479
-162.07
-162.661
-163.252
-163.843
-164.434
-165.024
-165.615
-166.205
-166.796
-167.386
-167.977
-168.567
-169.157
-169.747
-170.337
-170.927
-171.517
-172.106
-172.696
-173.286
-173.875
-85.214
-85.8141
-86.4138
-87.0222
-87.6118
-88.1934
-88.7691
-89.3518
-89.9577
-90.5175
-91.0806
-91.7073
-92.3501
-92.9639
-93.5856
-94.1716
-94.762
-95.3165
-95.9038
-96.4972
-97.106
-97.72
-98.3462
-99.024
-99.6806
-100.321
-100.948
-101.555
-102.167
-102.744
-103.302
-103.958
-104.586
-105.166
-105.781
-106.457
-107.064
-107.648
-108.166
-108.712
-109.229
-109.903
-110.523
-111.148
-111.781
-112.423
-113.031
-113.623
-114.217
-114.809
-115.406
-116.008
-116.612
-117.188
-117.749
-118.382
-119.017
-119.635
-120.259
-120.828
-121.372
-121.929
-122.502
-123.086
-123.651
-124.227
-124.819
-125.417
-126.014
-126.611
-127.208
-127.805
-128.402
-128.999
-129.596
-130.194
-130.791
-131.388
-131.986
-132.583
-133.18
-133.778
-134.375
-134.973
-135.57
-136.167
-136.765
-137.362
-137.959
-138.556
-139.153
-139.75
-140.346
-140.943
-141.539
-142.135
-142.732
-143.328
-143.923
-144.519
-145.114
-145.71
-146.305
-146.9
-147.495
-148.089
-148.684
-149.278
-149.872
-150.466
-151.06
-151.654
-152.247
-152.841
-153.433
-154.027
-154.619
-155.212
-155.804
-156.397
-156.989
-157.582
-158.173
-158.765
-159.357
-159.949
-160.54
-161.131
-161.723
-162.314
-162.905
-163.496
-164.087
-164.678
-165.268
-165.859
-166.449
-167.04
-167.63
-168.22
-168.81
-169.401
-169.991
-170.581
-171.17
-171.76
-172.35
-172.94
-173.53
-174.119
-85.4597
-86.0602
-86.6611
-87.2721
-87.8644
-88.4479
-89.0204
-89.6041
-90.206
-90.7574
-91.3136
-91.9442
-92.598
-93.2129
-93.8403
-94.4253
-95.0108
-95.5664
-96.1543
-96.7456
-97.3532
-97.9686
-98.5955
-99.2739
-99.9315
-100.569
-101.209
-101.822
-102.432
-103.006
-103.551
-104.194
-104.833
-105.392
-106.021
-106.719
-107.339
-107.93
-108.454
-108.996
-109.503
-110.166
-110.782
-111.404
-112.036
-112.676
-113.28
-113.867
-114.459
-115.05
-115.649
-116.252
-116.845
-117.427
-117.983
-118.615
-119.243
-119.869
-120.508
-121.091
-121.631
-122.181
-122.752
-123.334
-123.897
-124.472
-125.064
-125.661
-126.258
-126.855
-127.452
-128.049
-128.646
-129.243
-129.84
-130.438
-131.035
-131.632
-132.229
-132.827
-133.424
-134.022
-134.619
-135.217
-135.814
-136.411
-137.009
-137.606
-138.203
-138.8
-139.397
-139.994
-140.59
-141.187
-141.783
-142.379
-142.975
-143.571
-144.167
-144.763
-145.358
-145.954
-146.549
-147.144
-147.738
-148.333
-148.928
-149.522
-150.116
-150.71
-151.304
-151.898
-152.491
-153.084
-153.677
-154.271
-154.863
-155.456
-156.048
-156.641
-157.233
-157.825
-158.417
-159.009
-159.601
-160.192
-160.784
-161.375
-161.967
-162.558
-163.149
-163.74
-164.331
-164.921
-165.512
-166.103
-166.693
-167.284
-167.874
-168.464
-169.054
-169.645
-170.234
-170.825
-171.414
-172.004
-172.594
-173.184
-173.773
-174.363
-85.7112
-86.3131
-86.9145
-87.5264
-88.121
-88.7055
-89.2804
-89.8595
-90.4621
-91.01
-91.563
-92.1938
-92.8545
-93.4793
-94.1039
-94.6942
-95.2871
-95.8426
-96.4308
-97.0242
-97.6325
-98.2468
-98.8718
-99.5528
-100.21
-100.851
-101.48
-102.088
-102.699
-103.271
-103.812
-104.403
-105.043
-105.607
-106.264
-106.99
-107.633
-108.239
-108.765
-109.298
-109.788
-110.429
-111.04
-111.658
-112.29
-112.929
-113.529
-114.114
-114.704
-115.295
-115.894
-116.496
-117.098
-117.672
-118.223
-118.844
-119.461
-120.102
-120.768
-121.368
-121.905
-122.448
-123.005
-123.582
-124.144
-124.718
-125.308
-125.906
-126.502
-127.099
-127.696
-128.293
-128.89
-129.487
-130.084
-130.681
-131.279
-131.876
-132.473
-133.071
-133.668
-134.266
-134.863
-135.46
-136.058
-136.655
-137.252
-137.85
-138.447
-139.044
-139.641
-140.237
-140.834
-141.431
-142.027
-142.623
-143.219
-143.815
-144.411
-145.007
-145.602
-146.197
-146.793
-147.388
-147.982
-148.577
-149.171
-149.766
-150.36
-150.954
-151.548
-152.141
-152.735
-153.328
-153.921
-154.514
-155.107
-155.7
-156.292
-156.885
-157.477
-158.069
-158.661
-159.253
-159.845
-160.436
-161.028
-161.619
-162.211
-162.802
-163.393
-163.984
-164.575
-165.165
-165.756
-166.347
-166.937
-167.528
-168.118
-168.708
-169.298
-169.888
-170.478
-171.068
-171.658
-172.248
-172.838
-173.428
-174.017
-174.607
-85.9565
-86.558
-87.1607
-87.7752
-88.3727
-88.9598
-89.5312
-90.1112
-90.7033
-91.2446
-91.7995
-92.4314
-93.0963
-93.7236
-94.3567
-94.9441
-95.5326
-96.089
-96.6772
-97.2682
-97.875
-98.4912
-99.1184
-99.8009
-100.456
-101.095
-101.735
-102.35
-102.959
-103.53
-104.073
-104.636
-105.257
-105.83
-106.496
-107.227
-107.88
-108.505
-109.047
-109.576
-110.059
-110.686
-111.294
-111.912
-112.544
-113.179
-113.775
-114.36
-114.95
-115.542
-116.14
-116.74
-117.325
-117.898
-118.448
-119.047
-119.665
-120.301
-120.973
-121.607
-122.16
-122.699
-123.255
-123.829
-124.391
-124.963
-125.553
-126.15
-126.746
-127.343
-127.94
-128.537
-129.134
-129.731
-130.328
-130.925
-131.523
-132.12
-132.717
-133.315
-133.912
-134.51
-135.107
-135.704
-136.302
-136.899
-137.496
-138.094
-138.691
-139.288
-139.885
-140.481
-141.078
-141.674
-142.271
-142.867
-143.463
-144.059
-144.655
-145.251
-145.846
-146.441
-147.036
-147.631
-148.226
-148.821
-149.415
-150.01
-150.604
-151.198
-151.791
-152.385
-152.978
-153.572
-154.165
-154.758
-155.351
-155.944
-156.536
-157.129
-157.721
-158.313
-158.905
-159.497
-160.089
-160.68
-161.272
-161.863
-162.454
-163.045
-163.637
-164.228
-164.818
-165.409
-166
-166.59
-167.181
-167.771
-168.362
-168.952
-169.542
-170.132
-170.722
-171.312
-171.902
-172.492
-173.082
-173.671
-174.261
-174.851
-86.8703
-87.4713
-88.0701
-88.6819
-89.2826
-89.8701
-90.4456
-91.0024
-91.5764
-92.1129
-92.6578
-93.2914
-93.9605
-94.609
-95.2273
-95.8291
-96.4299
-96.9814
-97.5702
-98.1601
-98.7625
-99.373
-99.9944
-100.659
-101.313
-101.957
-102.556
-103.151
-103.753
-104.323
-104.86
-105.398
-105.957
-106.571
-107.25
-107.946
-108.648
-109.357
-109.938
-110.409
-110.852
-111.407
-111.995
-112.613
-113.24
-113.859
-114.436
-115.018
-115.604
-116.191
-116.784
-117.373
-117.958
-118.492
-119.036
-119.581
-120.19
-120.848
-121.54
-122.196
-122.794
-123.331
-123.853
-124.41
-124.965
-125.53
-126.112
-126.703
-127.294
-127.885
-128.477
-129.069
-129.661
-130.253
-130.845
-131.437
-132.03
-132.622
-133.214
-133.806
-134.399
-134.991
-135.584
-136.176
-136.768
-137.361
-137.953
-138.545
-139.137
-139.729
-140.321
-140.912
-141.504
-142.096
-142.687
-143.278
-143.869
-144.46
-145.051
-145.641
-146.232
-146.822
-147.412
-148.002
-148.592
-149.181
-149.771
-150.36
-150.949
-151.538
-152.126
-152.715
-153.303
-153.892
-154.48
-155.068
-155.655
-156.243
-156.83
-157.418
-158.005
-158.592
-159.179
-159.766
-160.352
-160.939
-161.525