/*--------------------------------*- C++ -*----------------------------------*\
| =========                 |                                                 |
| \\      /  F ield         | OpenFOAM: The Open Source CFD Toolbox           |
|  \\    /   O peration     | Version:  v1912                                 |
|   \\  /    A nd           | Website:  www.openfoam.com                      |
|    \\/     M anipulation  |                                                 |
\*---------------------------------------------------------------------------*/
FoamFile
{
    version     2.0;
    format      ascii;
    class       volScalarField;
    location    "10";
    object      alpha.water;
}
// * * * * * * * * * * * * * * * * * * * * * * * * * * * * * * * * * * * * * //

dimensions      [0 0 0 0 0 0 0];


internalField   nonuniform List<scalar> 
14268
(
1
1
1
1
1
1
1
1
1
1
1
1
1
1
1
1
1
1
1
1
1
1
1
1
1
1
1
1
1
1
1
1
1
1
1
1
1
1
1
1
1
1
1
1
1
1
1
1
1
1
1
1
1
1
1
1
1
1
1
1
1
1
1
1
1
1
1
1
1
1
1
1
1
1
1
1
1
1
1
1
1
1
1
1
1
1
1
1
1
1
1
1
1
1
1
1
1
1
1
1
1
1
1
1
1
1
1
1
1
1
1
1
1
1
1
1
1
1
1
1
1
1
1
1
1
1
1
1
1
1
1
1
1
1
1
1
1
1
1
1
1
1
1
1
1
1
1
1
1
1
1
1
1
1
1
1
1
1
1
1
1
1
1
1
1
1
1
1
1
1
1
1
1
1
1
1
1
1
1
1
1
1
1
1
1
1
1
1
1
1
1
1
1
1
1
1
1
1
1
1
1
1
1
1
1
1
1
1
1
1
1
1
1
1
1
1
1
1
1
1
1
1
1
1
1
1
1
1
1
1
1
1
1
1
1
1
1
1
1
1
1
1
1
1
1
1
1
1
1
1
1
1
1
1
1
1
1
1
1
1
1
1
1
1
1
1
1
1
1
1
1
1
1
1
1
1
1
1
1
1
1
1
1
1
1
1
1
1
1
1
1
1
1
1
1
1
1
1
1
1
1
1
1
1
1
1
1
1
1
1
1
1
1
1
1
1
1
1
1
1
1
1
1
1
1
1
1
1
1
1
1
1
1
1
1
1
1
1
1
1
1
1
1
1
1
1
1
1
1
1
1
1
1
1
1
1
1
1
1
1
1
1
1
1
1
1
1
1
1
1
1
1
1
1
1
1
1
1
1
1
1
1
1
1
1
1
1
1
1
1
1
1
1
1
1
1
1
1
1
1
1
1
1
1
1
1
1
1
1
1
1
1
1
1
1
1
1
1
1
1
1
1
1
1
1
1
1
1
1
1
1
1
1
1
1
1
1
1
1
1
1
1
1
1
1
1
1
1
1
1
1
1
1
1
1
1
1
1
1
1
1
1
1
1
1
1
1
1
1
1
1
1
1
1
1
1
1
1
1
1
1
1
1
1
1
1
1
1
1
1
1
1
1
1
1
1
1
1
1
1
1
1
1
1
1
1
1
1
1
1
1
1
1
1
1
1
1
1
1
1
1
1
1
1
1
1
1
1
1
1
1
1
1
1
1
1
1
1
1
1
1
1
1
1
1
1
1
1
1
1
1
1
1
1
1
1
1
1
1
1
1
1
1
1
1
1
1
1
1
1
1
1
1
1
1
1
1
1
1
1
1
1
1
1
1
1
1
1
1
1
1
1
1
1
1
1
1
1
1
1
1
1
1
1
1
1
1
1
1
1
1
1
1
1
1
1
1
1
1
1
1
1
1
1
1
1
1
1
1
1
1
1
1
1
1
1
1
1
1
1
1
1
1
1
1
1
1
1
1
1
1
1
1
1
1
1
1
1
1
1
1
1
1
1
1
1
1
1
1
1
1
1
1
1
1
1
1
1
1
1
1
1
1
1
1
1
1
1
1
1
1
1
1
1
1
1
1
1
1
1
1
1
1
1
1
1
1
1
1
1
1
1
1
1
1
1
1
1
1
1
1
1
1
1
1
1
1
1
1
1
1
1
1
1
1
1
1
1
1
1
1
1
1
1
1
1
1
1
1
1
1
1
1
1
1
1
1
1
1
1
1
1
1
1
1
1
1
1
1
1
1
1
1
1
1
1
1
1
1
1
1
1
1
1
1
1
1
1
1
1
1
1
1
1
1
1
1
1
1
1
1
1
1
1
1
1
1
1
1
1
1
1
1
1
1
1
1
1
1
1
1
1
1
1
1
1
1
1
1
1
1
1
1
1
1
1
1
1
1
1
1
1
1
1
1
1
1
1
1
1
1
1
1
1
1
1
1
1
1
1
1
1
1
1
1
1
1
1
1
1
1
1
1
1
1
1
1
1
1
1
1
1
1
1
1
1
1
1
1
1
1
1
1
1
1
1
1
1
1
1
1
1
1
1
1
1
1
1
1
1
1
1
1
1
1
1
1
1
1
1
1
1
1
1
1
1
1
1
1
1
1
1
1
1
1
1
1
1
1
1
1
1
1
1
1
1
1
1
1
1
1
1
1
1
1
1
1
1
1
1
1
1
1
1
1
1
1
1
1
1
1
1
1
1
1
1
1
1
1
1
1
1
1
1
1
1
1
1
1
1
1
1
1
1
1
1
1
1
1
1
1
1
1
1
1
1
1
1
1
1
1
1
1
1
1
1
1
1
1
1
1
1
1
1
1
1
1
1
1
1
1
1
1
1
1
1
1
1
1
1
1
1
1
1
1
1
1
1
1
1
1
1
1
1
1
1
1
1
1
1
1
1
1
1
1
1
1
1
1
1
1
1
1
1
1
1
1
1
1
1
1
1
1
1
1
1
1
1
1
1
1
1
1
1
1
1
1
1
1
1
1
1
1
1
1
1
1
1
1
1
1
1
1
1
1
1
1
1
1
1
1
1
1
1
1
1
1
1
1
1
1
1
1
1
1
1
1
1
1
1
1
1
1
1
1
1
1
1
1
1
1
1
1
1
1
1
1
1
1
1
1
1
1
1
1
1
1
1
1
1
1
1
1
1
1
1
1
1
1
1
1
1
1
1
1
1
1
1
1
1
1
1
1
1
1
1
1
1
1
1
1
1
1
1
1
1
1
1
1
1
1
1
1
1
1
1
1
1
1
1
1
1
1
1
1
1
1
1
1
1
1
1
1
1
1
1
1
1
1
1
1
1
1
1
1
1
1
1
1
1
1
1
1
1
1
1
1
1
1
1
1
1
1
1
1
1
1
1
1
1
1
1
1
1
1
1
1
1
1
1
1
1
1
1
1
1
1
1
1
1
1
1
1
1
1
1
1
1
1
1
1
1
1
1
1
1
1
1
1
1
1
1
1
1
1
1
1
1
1
1
1
1
1
1
1
1
1
1
1
1
1
1
1
1
1
1
1
1
1
1
1
1
1
1
1
1
1
1
1
1
1
1
1
1
1
1
1
1
1
1
1
1
1
1
1
1
1
1
1
1
1
1
1
1
1
1
1
1
1
1
1
1
1
1
1
1
1
1
1
1
1
1
1
1
1
1
1
1
1
1
1
1
1
1
1
1
1
1
1
1
1
1
1
1
1
1
1
1
1
1
1
1
1
1
1
1
1
1
1
1
1
1
1
1
1
1
1
1
1
1
1
1
1
1
1
1
1
1
1
1
1
1
1
1
1
1
1
1
1
1
1
1
1
1
1
1
1
1
1
1
1
1
1
1
1
1
1
1
1
1
1
1
1
1
1
1
1
1
1
1
1
1
1
1
1
1
1
1
1
1
1
1
1
1
1
1
1
1
1
1
1
1
1
1
1
1
1
1
1
1
1
1
1
1
1
1
1
1
1
1
1
1
1
1
1
1
1
1
1
1
1
1
1
1
1
1
1
1
1
1
1
1
1
1
1
1
1
1
1
1
1
1
1
1
1
1
1
1
1
1
1
1
1
1
1
1
1
1
1
1
1
1
1
1
1
1
1
1
1
1
1
1
1
1
1
1
1
1
1
1
1
1
1
1
1
1
1
1
1
1
1
1
1
1
1
1
1
1
1
1
1
1
1
1
1
1
1
1
1
1
1
1
1
1
1
1
1
1
1
1
1
1
1
1
1
1
1
1
1
1
1
1
1
1
1
1
1
1
1
1
1
1
1
1
1
1
1
1
1
1
1
1
1
1
1
1
1
1
1
1
1
1
1
1
1
1
1
1
1
1
1
1
1
1
1
1
1
1
1
1
1
1
1
1
1
1
1
1
1
1
1
1
1
1
1
1
1
1
1
1
1
1
1
1
1
1
1
1
1
1
1
1
1
1
1
1
1
1
1
1
1
1
1
1
1
1
1
1
1
1
1
1
1
1
1
1
1
1
1
1
1
1
1
1
1
1
1
1
1
1
1
1
1
1
1
1
1
1
1
1
1
1
1
1
1
1
1
1
1
1
1
1
1
1
1
1
1
1
1
1
1
1
1
1
1
1
1
1
1
1
1
1
1
1
1
1
1
1
1
1
1
1
1
1
1
1
1
1
1
1
1
1
1
1
1
1
1
1
1
1
1
1
1
1
1
1
1
1
1
1
1
1
1
1
1
1
1
1
1
1
1
1
1
1
1
1
1
1
1
1
1
1
1
1
1
1
1
1
1
1
1
1
1
1
1
1
1
1
1
1
1
1
1
1
1
1
1
1
1
1
1
1
1
1
1
1
1
1
1
1
1
1
1
1
1
1
1
1
1
1
1
1
1
1
1
1
1
1
1
1
1
1
1
1
1
1
1
1
1
1
1
1
1
1
1
1
1
1
1
1
1
1
1
1
1
1
1
1
1
1
1
1
1
1
1
1
1
1
1
1
1
1
1
1
1
1
1
1
1
1
1
1
1
1
1
1
1
1
1
1
1
1
1
1
1
1
1
1
1
1
1
1
1
1
1
1
1
1
1
1
1
1
1
1
1
1
1
1
1
1
1
1
1
1
1
1
1
1
1
1
1
1
1
1
1
1
1
1
1
1
1
1
1
1
1
1
1
1
1
1
1
1
1
1
1
1
1
1
1
1
1
1
1
1
1
1
1
1
1
1
1
1
1
1
1
1
1
1
1
1
1
1
1
1
1
1
1
1
1
1
1
1
1
1
1
1
1
1
1
1
1
1
1
1
1
1
1
1
1
1
1
1
1
1
1
1
1
1
1
1
1
1
1
1
1
1
1
1
1
1
1
1
1
1
1
1
1
1
1
1
1
1
1
1
1
1
1
1
1
1
1
1
1
1
1
1
1
1
1
1
1
1
1
1
1
1
1
1
1
1
1
1
1
1
1
1
1
1
1
1
1
1
1
1
1
1
1
1
1
1
1
1
1
1
1
1
1
1
1
1
1
1
1
1
1
1
1
1
1
1
1
1
1
1
1
1
1
1
1
1
1
1
1
1
1
1
1
1
1
1
1
1
1
1
1
1
1
1
1
1
1
1
1
1
1
1
1
1
1
1
1
1
1
1
1
1
1
1
1
1
1
1
1
1
1
1
1
1
1
1
1
1
1
1
1
1
1
1
1
1
1
1
1
1
1
1
1
1
1
1
1
1
1
1
1
1
1
1
1
1
1
1
1
1
1
1
1
1
1
1
1
1
1
1
1
1
1
1
1
1
1
1
1
1
1
1
1
1
1
1
1
1
1
1
1
1
1
1
1
1
1
1
1
1
1
1
1
1
1
1
1
1
1
1
1
1
1
1
1
1
1
1
1
1
1
1
1
1
1
1
1
1
1
1
1
1
1
1
1
1
1
1
1
1
1
1
1
1
1
1
1
1
1
1
1
1
1
1
1
1
1
1
1
1
1
1
1
1
1
1
1
1
1
1
1
1
1
1
1
1
1
1
1
1
1
1
1
1
1
1
1
1
1
1
1
1
1
1
1
1
1
1
1
1
1
1
1
1
1
1
1
1
1
1
1
1
1
1
1
1
1
1
1
1
1
1
1
1
1
1
1
1
1
1
1
1
1
1
1
1
1
1
1
1
1
1
1
1
1
1
1
1
1
1
1
1
1
1
1
1
1
1
1
1
1
1
1
1
1
1
1
1
1
1
1
1
1
1
1
1
1
1
1
1
1
1
1
1
1
1
1
1
1
1
1
1
1
1
1
1
1
1
1
1
1
1
1
1
1
1
1
1
1
1
1
1
1
1
1
1
1
1
1
1
1
1
1
1
1
1
1
1
1
1
1
1
1
1
1
1
1
1
1
1
1
1
1
1
1
1
1
1
1
1
1
1
1
1
1
1
1
1
1
1
1
1
1
1
1
1
1
1
1
1
1
1
1
1
1
1
1
1
1
1
1
1
1
1
1
1
1
1
1
1
1
1
1
1
1
1
1
1
1
1
1
1
1
1
1
1
1
1
1
1
1
1
1
1
1
1
1
1
1
1
1
1
1
1
1
1
1
1
1
1
1
1
1
1
1
1
1
1
1
1
1
1
1
1
1
1
1
1
1
1
1
1
1
1
1
1
1
1
1
1
1
1
1
1
1
1
1
1
1
1
1
1
1
1
1
1
1
1
1
1
1
1
1
1
1
1
1
1
1
1
1
1
1
1
1
1
1
1
1
1
1
1
1
1
1
1
1
1
1
1
1
1
1
1
1
1
1
1
1
1
1
1
1
1
1
1
1
1
1
1
1
1
1
1
1
1
1
1
1
1
1
1
1
1
1
1
1
1
1
1
1
1
1
1
1
1
1
1
1
1
1
1
1
1
1
1
1
1
1
1
1
1
1
1
1
1
1
1
1
1
1
1
1
1
1
1
1
1
1
1
1
1
1
1
1
1
1
1
1
1
1
1
1
1
1
1
1
1
1
1
1
1
1
1
1
1
1
1
1
1
1
1
1
1
1
1
1
1
1
1
1
1
1
1
1
1
1
1
1
1
1
1
1
1
1
1
1
1
1
1
1
1
1
1
1
1
1
1
1
1
1
1
1
1
1
1
1
1
1
1
1
1
1
1
1
1
1
1
1
1
1
1
1
1
1
1
1
1
1
1
1
1
1
1
1
1
1
1
1
1
1
1
1
1
1
1
1
1
1
1
1
1
1
1
1
1
1
1
1
1
1
1
1
1
1
1
1
1
1
1
1
1
1
1
1
1
1
1
1
1
1
1
1
1
1
1
1
1
1
1
1
1
1
1
1
1
1
1
1
1
1
1
1
1
1
1
1
1
1
1
1
1
1
1
1
1
1
1
1
1
1
1
1
1
1
1
1
1
1
1
1
1
1
1
1
1
1
1
1
1
1
1
1
1
1
1
1
1
1
1
1
1
1
1
1
1
1
1
1
1
1
1
1
1
1
1
1
1
1
1
1
1
1
1
1
1
1
1
1
1
1
1
1
1
1
1
1
1
1
1
1
1
1
1
1
1
1
1
1
1
1
1
1
1
1
1
1
1
1
1
1
1
1
1
1
1
1
1
1
1
1
1
1
1
1
1
1
1
1
1
1
1
1
1
1
1
1
1
1
1
1
1
1
1
1
1
1
1
1
1
1
1
1
1
1
1
1
1
1
1
1
1
1
1
1
1
1
1
1
1
1
1
1
1
1
1
1
1
1
1
1
1
1
1
1
1
1
1
1
1
1
1
1
1
1
1
1
1
1
1
1
1
1
1
1
1
1
1
1
1
1
1
1
1
1
1
1
1
1
1
1
1
1
1
1
1
1
1
1
1
1
1
1
1
1
1
1
1
1
1
1
1
1
1
1
1
1
1
1
1
1
1
1
1
1
1
1
1
1
1
1
1
1
1
1
1
1
1
1
1
1
1
1
1
1
1
1
1
1
1
1
1
1
1
1
1
1
1
1
1
1
1
1
1
1
1
1
1
1
1
1
1
1
1
1
1
1
1
1
1
1
1
1
1
1
1
1
1
1
1
1
1
1
1
1
1
1
1
1
1
1
1
1
1
1
1
1
1
1
1
1
1
1
1
1
1
1
1
1
1
1
1
1
1
1
1
1
1
1
1
1
1
1
1
1
1
1
1
1
1
1
1
1
1
1
1
1
1
1
1
1
1
1
1
1
1
1
1
1
1
1
1
1
1
1
1
1
1
1
1
1
1
1
1
1
1
1
1
1
1
1
1
1
1
1
1
1
1
1
1
1
1
1
1
1
1
1
1
1
1
1
1
1
1
1
1
1
1
1
1
1
1
1
1
1
1
1
1
1
1
1
1
1
1
1
1
1
1
1
1
1
1
1
1
1
1
1
1
1
1
1
1
1
1
1
1
1
1
1
1
1
1
1
1
1
1
1
1
1
1
1
1
1
1
1
1
1
1
1
1
1
1
1
1
1
1
1
1
1
1
1
1
1
1
1
1
1
1
1
1
1
1
1
1
1
1
1
1
1
1
1
1
1
1
1
1
1
1
1
1
1
1
1
1
1
1
1
1
1
1
1
1
1
1
1
1
1
1
1
1
1
1
1
1
1
1
1
1
1
1
1
1
1
1
1
1
1
1
1
1
1
1
1
1
1
1
1
1
1
1
1
1
1
1
1
1
1
1
1
1
1
1
1
1
1
1
1
1
1
1
1
1
1
1
1
1
1
1
1
1
1
1
1
1
1
1
1
1
1
1
1
1
1
1
1
1
1
1
1
1
1
1
1
1
1
1
1
1
1
1
1
1
1
1
1
1
1
1
1
1
1
1
1
1
1
1
1
1
1
1
1
1
1
1
1
1
1
1
1
1
1
1
1
1
1
1
1
1
1
1
1
1
1
1
1
1
1
1
1
1
1
1
1
1
1
1
1
1
1
1
1
1
1
1
1
1
1
1
1
1
1
1
1
1
1
1
1
1
1
1
1
1
1
1
1
1
1
1
1
1
1
1
1
1
1
1
1
1
1
1
1
1
1
1
1
1
1
1
1
1
1
1
1
1
1
1
1
1
1
1
1
1
1
1
1
1
1
1
1
1
1
1
1
1
1
1
1
1
1
1
1
1
1
1
1
1
1
1
1
1
1
1
1
1
1
1
1
1
1
1
1
1
1
1
1
1
1
1
1
1
1
1
1
1
1
1
1
1
1
1
1
1
1
1
1
1
1
1
1
1
1
1
1
1
1
1
1
1
1
1
1
1
1
1
1
1
1
1
1
1
1
1
1
1
1
1
1
1
1
1
1
1
1
1
1
1
1
1
1
1
1
1
1
1
1
1
1
1
1
1
1
1
1
1
1
1
1
1
1
1
1
1
1
1
1
1
1
1
1
1
1
1
1
1
1
1
1
1
1
1
1
1
1
1
1
1
1
1
1
1
1
1
1
1
1
1
1
1
1
1
1
1
1
1
1
1
1
1
1
1
1
1
1
1
1
1
1
1
1
1
1
1
1
1
1
1
1
1
1
1
1
1
1
1
1
1
1
1
1
1
1
1
1
1
1
1
1
1
1
1
1
1
1
1
1
1
1
1
1
1
1
1
1
1
1
1
1
1
1
1
1
1
1
1
1
1
1
1
1
1
1
1
1
1
1
1
1
1
1
1
1
1
1
1
1
1
1
1
1
1
1
1
1
1
1
1
1
1
1
1
1
1
1
1
1
1
1
1
1
1
1
1
1
1
1
1
1
1
1
1
1
1
1
1
1
1
1
1
1
1
1
1
1
1
1
1
1
1
1
1
1
1
1
1
1
1
1
1
1
1
1
1
1
1
1
1
1
1
1
1
1
1
1
1
1
1
1
1
1
1
1
1
1
1
1
1
1
1
1
1
1
1
1
1
1
1
1
1
1
1
1
1
1
1
1
1
1
1
1
1
1
1
1
1
1
1
1
1
1
1
1
1
1
1
1
1
1
1
1
1
1
1
1
1
1
1
1
1
1
1
1
1
1
1
1
1
1
1
1
1
1
1
1
1
1
1
1
1
1
1
1
1
1
1
1
1
1
1
1
1
1
1
1
1
1
1
1
1
1
1
1
1
1
1
1
1
1
1
1
1
1
1
1
1
1
1
1
1
1
1
1
1
1
1
1
1
1
1
1
1
1
1
1
1
1
1
1
1
1
1
1
1
1
1
1
1
1
1
1
1
1
1
1
1
1
1
1
1
1
1
1
1
1
1
1
1
1
1
1
1
1
1
1
1
1
1
1
1
1
1
1
1
1
1
1
1
1
1
1
1
1
1
1
1
1
1
1
1
1
1
1
1
1
1
1
1
1
1
1
1
1
1
1
1
1
1
1
1
1
1
1
1
1
1
1
1
1
1
1
1
1
1
1
1
1
1
1
1
1
1
1
1
1
1
1
1
1
1
1
1
1
1
1
1
1
1
1
1
1
1
1
1
1
1
1
1
1
1
1
1
1
1
1
1
1
1
1
1
1
1
1
1
1
1
1
1
1
1
1
1
1
1
1
1
1
1
1
1
1
1
1
1
1
1
1
1
1
1
1
1
1
1
1
1
1
1
1
1
1
1
1
1
1
1
1
1
1
1
1
1
1
1
1
1
1
1
1
1
1
1
1
1
1
1
1
1
1
1
1
1
1
1
1
1
1
1
1
1
1
1
1
1
1
1
1
1
1
1
1
1
1
1
1
1
1
1
1
1
1
1
1
1
1
1
1
1
1
1
1
1
1
1
1
1
1
1
1
1
1
1
1
1
1
1
1
1
1
1
1
1
1
1
1
1
1
1
1
1
1
1
1
1
1
1
1
1
1
1
1
1
1
1
1
1
1
1
1
1
1
1
1
1
1
1
1
1
1
1
1
1
1
1
1
1
1
1
1
1
1
1
1
1
1
1
1
1
1
1
1
1
1
1
1
1
1
1
1
1
1
1
1
1
1
1
1
1
1
1
1
1
1
1
1
1
1
1
1
1
1
1
1
1
1
1
1
1
1
1
1
1
1
1
1
1
1
1
1
1
1
1
1
1
1
1
1
1
1
1
1
1
1
1
1
1
1
1
1
1
1
1
1
1
1
1
1
1
1
1
1
1
1
1
1
1
1
1
1
1
1
1
1
1
1
1
1
1
1
1
1
1
1
1
1
1
1
1
1
1
1
1
1
1
1
1
1
1
1
1
1
1
1
1
1
1
1
1
1
1
1
1
1
1
1
1
1
1
1
1
1
1
1
1
1
1
1
1
1
1
1
1
1
1
1
1
1
1
1
1
1
1
1
1
1
1
1
1
1
1
1
1
1
1
1
1
1
1
1
1
1
1
1
1
1
1
1
1
1
1
1
1
1
1
1
1
1
1
1
1
1
1
1
1
1
1
1
1
1
1
1
1
1
1
1
1
1
1
1
1
1
1
1
1
1
1
1
1
1
1
1
1
1
1
1
1
1
1
1
1
1
1
1
1
1
1
1
1
1
1
1
1
1
1
1
1
1
1
1
1
1
1
1
1
1
1
1
1
1
1
1
1
1
1
1
1
1
1
1
1
1
1
1
1
1
1
1
1
1
1
1
1
1
1
1
1
1
1
1
1
1
1
1
1
1
1
1
1
1
1
1
1
1
1
1
1
1
1
1
1
1
1
1
1
1
1
1
1
1
1
1
1
1
1
1
1
1
1
1
1
1
1
1
1
1
1
1
1
1
1
1
1
1
1
1
1
1
1
1
1
1
1
1
1
1
1
1
1
1
1
1
1
1
1
1
1
1
1
1
1
1
1
1
1
1
1
1
1
1
1
1
1
1
1
1
1
1
1
1
1
1
1
1
1
1
1
1
1
1
1
1
1
1
1
1
1
1
1
1
1
1
1
1
1
1
1
1
1
1
1
1
1
1
1
1
1
1
1
1
1
1
1
1
1
1
0.999959
0.997507
0.99641
1
1
1
1
1
1
1
1
1
1
1
1
1
1
1
1
1
1
1
1
1
1
1
1
1
1
1
1
1
1
1
1
1
1
1
1
1
1
1
1
1
1
1
1
1
1
1
1
1
1
1
1
1
1
1
1
1
1
1
1
1
1
1
1
1
1
1
1
1
1
1
1
1
1
1
1
1
1
1
1
1
1
1
1
1
1
1
1
1
1
1
1
1
1
1
1
1
1
1
1
1
1
1
1
1
1
1
1
1
1
1
1
1
1
1
1
1
1
1
1
1
1
1
1
1
1
1
1
1
1
1
1
1
1
1
1
1
1
1
1
1
1
1
1
1
1
1
1
1
1
1
1
1
1
1
1
1
0.999995
0.959794
0.696967
0.491214
0.409094
0.437781
0.564782
0.78032
0.960325
0.990858
1
1
1
1
1
1
1
1
1
1
1
1
1
1
1
1
1
1
1
1
1
1
1
1
1
1
1
1
1
1
1
1
1
0.999967
0.999153
0.995033
0.987759
0.99912
1
1
1
1
1
1
1
1
1
1
1
1
1
0.999988
0.999953
1
1
1
1
1
1
1
1
1
1
1
1
1
1
1
1
1
1
1
1
1
1
1
1
1
1
1
1
1
1
1
1
1
1
1
1
1
1
1
1
1
1
1
0.999854
1
1
1
1
1
1
1
1
1
1
1
1
1
1
1
1
1
1
1
1
1
1
1
1
1
1
1
1
1
1
1
1
1
1
1
1
1
1
1
1
1
1
1
1
1
1
1
1
1
1
1
1
1
1
1
1
0.986469
0.589832
0.107752
0.0152952
0.00515594
0.00116058
4.76215e-09
2.42577e-06
0.00288445
0.148087
0.556276
0.932601
0.999891
1
1
1
1
1
1
1
1
1
1
1
1
1
1
1
1
1
1
1
1
1
1
1
1
1
1
1
1
0.99999
0.99915
0.974393
0.793616
0.57208
0.473613
0.536235
0.726681
0.917345
0.996903
1
1
1
1
1
1
1
1
0.999996
0.815213
0.515619
0.414703
0.540018
0.863501
0.999774
1
1
1
1
1
1
1
1
1
1
1
1
1
1
1
1
1
1
1
1
1
1
1
1
1
1
1
1
1
1
1
1
1
1
1
1
1
0.999996
0.902155
0.618926
0.508298
0.59667
0.854625
0.99805
0.999909
1
1
1
1
1
1
1
1
1
1
1
1
1
1
1
1
1
1
1
1
1
1
1
1
1
1
1
1
1
1
1
1
1
1
1
1
1
1
1
1
1
1
1
1
1
1
1
1
1
1
1
0.999999
0.941121
0.316968
0.0177433
1.80145e-18
3.14023e-19
3.03469e-20
1.3328e-28
2.92566e-18
2.1286e-14
2.72074e-10
3.421e-07
0.00143944
0.170667
0.745567
0.988415
1
1
1
1
1
1
1
1
1
1
1
1
1
1
1
1
1
1
1
1
1
1
1
1
0.999998
0.999945
0.998189
0.956849
0.671401
0.299331
0.0881824
0.034261
0.0113014
0.020483
0.0689538
0.289081
0.69951
0.948905
0.999999
1
1
1
1
0.999999
0.759267
0.257398
0.000252896
3.09358e-05
-3.43444e-65
3.25098e-22
0.00995018
0.386768
0.91358
0.999863
1
1
1
1
1
1
1
0.999997
0.978993
0.990754
0.999391
1
1
1
1
1
1
1
1
1
1
1
1
1
1
1
1
1
1
1
1
1
1
1
0.9416
0.431238
0.0228395
0.000956179
0.000203402
1.2648e-11
0.00130998
0.253338
0.724123
0.996482
0.999748
1
1
1
1
1
1
1
1
1
1
1
1
1
1
1
1
1
1
1
1
1
1
1
1
1
1
1
1
1
1
1
1
1
1
1
1
1
1
1
1
1
1
1
1
1
1
1
1
1
0.931225
0.229583
0.00217439
-3.4234e-21
-6.05842e-38
3.36977e-40
4.54117e-33
1.33167e-28
2.02928e-24
1.17531e-20
4.37378e-17
9.33883e-13
7.80823e-09
2.36083e-05
0.0376285
0.581936
0.976879
1
1
1
1
1
1
1
1
1
1
1
1
1
1
1
1
1
1
1
1
1
0.999991
0.999744
0.995139
0.92365
0.623981
0.262086
0.0684207
0.00222186
1.29885e-05
4.14695e-05
0.000107265
0.000220594
0.000927436
0.00685078
0.0690967
0.429839
0.503114
0.749572
0.873064
0.83086
0.611082
0.23603
0.00032903
1.45039e-06
9.5273e-23
2.4383e-24
-8.20525e-61
-9.04825e-64
-4.42935e-67
-3.37797e-31
0.0690977
0.575582
0.97949
0.999827
0.999958
1
0.999999
0.814453
0.431963
0.127285
0.000110622
0.042217
0.344135
0.825516
0.999386
1
1
1
1
1
1
1
1
1
1
1
1
1
1
1
1
1
1
1
0.999999
0.774465
0.125304
0.000986359
2.58994e-19
5.2369e-21
1.64739e-22
1.4128e-25
7.23159e-46
-6.29578e-45
2.03886e-05
0.226069
0.698002
0.990001
0.998618
0.999749
1
1
1
1
1
1
1
1
1
1
1
1
0.999999
0.982325
0.936464
0.921812
0.949017
0.993697
0.997188
0.997828
0.998451
0.999193
0.999791
1
1
1
0.999953
0.999776
0.99928
0.998722
0.999299
1
1
1
1
1
1
1
1
1
1
1
1
1
1
0.951619
0.241906
5.70374e-07
1.05267e-19
5.44384e-40
-1.34662e-26
-2.54265e-28
-2.94477e-30
-2.35306e-32
2.98511e-30
4.03443e-26
4.42299e-22
2.05739e-18
3.44091e-14
7.43365e-10
2.97479e-06
0.0121354
0.494604
0.971032
1
1
1
1
1
1
1
1
1
1
1
1
1
1
1
1
1
0.999999
0.999934
0.998347
0.966932
0.764935
0.469202
0.178721
0.0566735
0.000466256
6.22092e-09
3.05591e-08
1.22426e-07
3.90788e-07
1.22185e-06
3.42536e-06
1.15003e-05
6.84802e-05
0.000916498
0.0150646
1.01072e-48
9.06416e-27
4.17386e-06
3.16879e-05
4.01037e-05
-9.31133e-26
-6.27928e-31
-3.60869e-50
-7.15358e-70
-3.19511e-74
-2.01862e-56
-5.80278e-60
-1.09551e-63
3.57173e-84
-3.60817e-72
2.47099e-08
0.103771
0.407327
0.531194
0.44381
0.181873
0.000556101
8.06056e-05
-1.71471e-23
-2.72217e-27
-5.26347e-31
-1.06563e-34
0.0177182
0.514427
0.989034
1
1
1
1
1
1
1
1
1
1
1
1
1
1
1
1
1
0.993246
0.538309
0.0216188
2.42189e-20
-6.59429e-24
1.39797e-38
7.85403e-43
5.49108e-50
-2.67935e-42
-2.09944e-44
-4.87243e-47
-5.04194e-50
7.01532e-41
2.05259e-06
0.125136
0.442503
0.67527
0.816723
0.878742
0.879012
0.836615
0.768773
0.688596
0.60371
0.517181
0.428956
0.337987
0.244197
0.149925
0.0611343
0.00319151
0.000350889
3.21091e-19
4.93458e-09
0.0250033
0.136213
0.277703
0.431892
0.577993
0.695704
0.768429
0.78721
0.754221
0.684486
0.605093
0.552215
0.565083
0.67889
0.90145
0.990356
1
1
1
1
1
1
1
1
1
1
1
0.975449
0.306083
0.000252885
9.85604e-21
2.46135e-39
-5.6656e-26
-1.82541e-27
-2.63153e-29
-2.60991e-31
-1.99694e-33
-7.10645e-36
1.91762e-31
4.13307e-27
6.28745e-23
3.62634e-19
4.56222e-15
1.94399e-10
1.11905e-06
0.00693634
0.467275
0.968956
1
1
1
1
1
1
1
1
1
1
1
1
1
1
0.999999
0.999935
0.996495
0.900394
0.570033
0.249048
0.0858844
0.0236243
1.37658e-06
4.43739e-13
4.22201e-12
3.04538e-11
1.97176e-10
1.00284e-09
4.16802e-09
1.41985e-08
3.9109e-08
1.37357e-07
8.03861e-07
7.76027e-06
0.000123874
1.54223e-53
1.2957e-31
3.69383e-26
2.22213e-24
2.89421e-24
-1.57329e-29
-2.33013e-34
-4.9752e-39
-1.76616e-43
-8.84889e-48
-4.99296e-52
-3.09411e-56
-2.07593e-60
-1.28153e-64
-5.26569e-69
-5.0883e-40
5.32432e-52
1.58984e-31
2.4341e-09
3.00166e-05
5.03188e-20
1.71214e-22
1.85001e-23
-1.35743e-50
-1.11299e-51
-3.67659e-53
-5.44211e-55
-4.46051e-57
2.27705e-20
0.26942
0.912154
0.999754
1
1
1
1
1
1
1
1
1
1
1
1
1
1
0.833162
0.249179
0.00193028
2.89179e-19
-7.81552e-39
-4.55474e-26
-3.7854e-29
-2.84183e-32
-2.16497e-35
-1.67884e-38
-1.37278e-41
-1.06183e-44
-6.22081e-48
-2.75095e-51
-7.26422e-55
-4.94028e-59
-7.02122e-60
-1.43877e-63
1.00307e-43
3.27737e-28
3.42656e-08
0.000194462
0.000415433
0.000494287
0.000489125
0.000424507
0.0003104
0.000160799
4.66985e-09
-3.09284e-26
-8.07601e-30
1.60841e-21
4.94568e-25
7.43462e-46
-1.43975e-49
-4.39858e-53
-2.1783e-56
-6.80308e-60
-9.92517e-64
-2.32008e-68
-6.00447e-109
-2.69277e-106
-7.06787e-104
-3.30346e-104
-7.19293e-105
-3.475e-81
-6.47386e-68
3.61203e-22
5.53343e-12
0.0122595
0.309371
0.790409
0.990244
1
1
1
1
1
1
1
1
0.987488
0.379404
0.00288573
-1.07804e-22
3.29913e-38
-1.50897e-27
-4.56136e-27
-1.08173e-28
-1.41752e-30
-1.28817e-32
-8.78569e-35
-5.02007e-37
2.065e-36
2.9597e-32
9.19507e-28
1.70489e-23
1.07907e-19
1.36206e-15
8.61599e-11
6.99095e-07
0.00566207
0.468208
0.965819
1
1
1
1
1
1
1
1
1
1
1
1
0.999987
0.998833
0.923013
0.524266
0.150008
0.0412464
4.77986e-05
1.05681e-17
1.99086e-17
2.4962e-16
2.71122e-15
2.24527e-14
1.27494e-13
7.21329e-13
3.89352e-12
1.94116e-11
8.34882e-11
2.70042e-10
8.72952e-10
4.12277e-09
3.2488e-08
3.44731e-07
-1.22533e-74
5.87066e-52
4.14759e-46
9.88472e-51
7.34593e-45
-2.50034e-33
-6.09105e-38
-2.14488e-42
-9.81794e-47
-5.09439e-51
-2.74569e-55
-1.62115e-59
-1.03523e-63
-6.08724e-68
-2.39958e-72
1.66565e-59
2.62705e-55
7.46923e-65
3.93518e-50
5.76073e-24
2.90947e-38
1.26825e-76
9.02532e-42
9.28739e-46
7.05107e-58
-2.47646e-56
-2.86413e-58
-1.6983e-60
-5.24732e-63
-3.48878e-37
0.0932079
0.66006
0.997151
0.999625
0.999953
0.999994
1
1
1
1
1
1
0.989744
0.873287
0.657198
0.318936
0.0159968
2.39426e-18
7.81489e-55
1.35451e-74
-1.25081e-27
-2.04208e-28
-2.3573e-31
-2.14983e-34
-1.79999e-37
-1.42173e-40
-1.12322e-43
-8.22361e-47
-4.66737e-50
-2.05398e-53
-5.46054e-57
-6.04682e-61
-1.64915e-57
-5.96676e-54
-1.13862e-50
3.36364e-63
-1.25499e-43
4.48963e-23
4.40811e-22
8.33652e-22
1.54777e-25
1.08972e-21
8.20012e-52
6.99674e-68
1.2757e-26
-5.1732e-29
-2.44078e-32
5.80798e-42
-2.93447e-63
-1.33459e-48
-1.56692e-51
-1.57322e-54
-1.18963e-57
-5.23191e-61
-1.11048e-64
-4.45391e-69
-5.14954e-116
1.45087e-146
7.94095e-125
1.51796e-121
-7.47294e-115
-1.29726e-105
-5.01313e-79
-3.40384e-80
-2.04379e-49
-1.33346e-36
8.09227e-14
0.0105763
0.410343
0.928
0.997544
1
1
1
1
1
0.983378
0.403115
0.00746009
1.25373e-21
4.51838e-41
-2.79346e-26
-5.85214e-28
-2.1404e-28
-4.49706e-30
-5.62993e-32
-4.77931e-34
-2.97613e-36
-1.55455e-38
-6.18482e-41
5.35115e-37
7.33086e-33
2.53654e-28
4.86183e-24
3.92727e-20
4.89144e-16
4.17148e-11
4.61698e-07
0.00595759
0.459244
0.955544
1
1
1
1
1
1
1
1
1
0.999999
0.999887
0.982799
0.665972
0.191343
0.0320573
2.54958e-17
7.08344e-18
5.89525e-20
1.76329e-23
6.77793e-22
2.40524e-20
5.19707e-19
6.22787e-18
5.04606e-17
3.43569e-16
1.91132e-15
9.12927e-15
5.25075e-14
2.49134e-13
3.81021e-13
4.58031e-14
1.16936e-13
7.03078e-12
-5.6277e-74
-8.05255e-68
2.10292e-67
-5.9744e-48
-1.01521e-42
-3.73773e-37
-1.33548e-41
-6.27969e-46
-3.35661e-50
-1.74625e-54
-8.96272e-59
-5.0758e-63
-3.10528e-67
-1.73443e-71
-6.53108e-76
-4.82307e-81
8.1116e-73
2.99095e-65
1.72923e-46
2.3957e-42
2.74893e-56
2.40913e-93
7.39335e-60
1.86433e-50
2.36373e-54
-4.19957e-75
-5.89114e-63
-3.77168e-65
-3.79558e-68
-2.37813e-35
1.1457e-31
1.12809e-11
0.184589
0.525667
0.697661
0.720747
0.638257
0.501202
0.3558
0.233332
0.144115
0.0765328
0.0137721
0.00162816
0.00126618
0.000262184
3.90547e-19
7.12993e-35
1.18206e-52
-1.04385e-72
-1.59865e-29
-7.51059e-31
-1.09738e-33
-1.17735e-36
-1.04791e-39
-8.10397e-43
-6.11041e-46
-4.28102e-49
-2.39444e-52
-1.05753e-55
-2.88413e-59
-2.38477e-63
-1.22496e-96
-2.8392e-93
-3.77019e-90
-2.56879e-87
8.95313e-45
1.80169e-41
1.32786e-39
4.01096e-39
8.93583e-43
4.94273e-39
1.073e-67
2.36412e-88
6.8172e-44
-8.36557e-32
-5.16847e-35
-1.6523e-38
-6.18822e-42
-2.41343e-45
-9.77511e-49
-4.23938e-52
-1.69682e-55
-4.85298e-59
-7.71755e-63
-2.93515e-67
-9.94525e-113
-6.07113e-138
-9.88501e-135
-3.04307e-131
-1.00741e-114
-2.83321e-105
-3.92356e-86
-8.051e-87
-3.33301e-83
-1.16309e-45
-8.46392e-45
1.60437e-21
2.15869e-08
0.108778
0.641901
0.982791
0.997606
1
0.999999
0.907565
0.311816
0.00841346
5.45686e-19
2.109e-39
-1.85435e-25
-5.42173e-27
-8.4352e-29
-8.20539e-30
-1.57554e-31
-1.88095e-33
-1.49551e-35
-8.69955e-38
-4.33684e-40
-2.13539e-42
3.64113e-42
1.04141e-37
1.67436e-33
4.72575e-29
1.06907e-24
1.2169e-20
1.32265e-16
1.47319e-11
2.19295e-07
0.00471757
0.40248
0.928247
1
1
1
1
1
1
1
0.999987
0.998196
0.869704
0.37285
0.0613441
1.10597e-16
1.52377e-17
4.80105e-34
1.84635e-33
1.33412e-35
1.82167e-37
1.9606e-35
2.66964e-34
1.24438e-32
1.08492e-31
1.20386e-30
1.95454e-30
6.51026e-29
2.90207e-29
8.69272e-30
1.47583e-27
1.04569e-29
1.71112e-49
4.30444e-27
4.48559e-18
-7.60211e-69
-1.66025e-62
-6.62201e-57
-1.38264e-51
-2.13241e-46
-5.25856e-41
-2.59293e-45
-1.49803e-49
-8.8302e-54
-4.52465e-58
-2.2232e-62
-1.21706e-66
-7.11547e-71
-3.76327e-75
-1.36198e-79
-1.52581e-84
-1.3722e-92
-3.92699e-89
-4.10156e-86
4.33507e-61
1.09446e-74
6.34564e-110
2.63227e-78
-6.00556e-64
-1.58224e-65
-2.18992e-67
-1.88504e-69
-9.89214e-72
-2.68186e-74
-3.98733e-46
-5.30939e-42
-3.67044e-38
-1.39486e-34
-1.98186e-31
-2.33582e-28
4.52249e-08
0.000149874
0.000174886
8.85715e-05
5.4531e-19
6.2736e-19
1.16521e-19
6.25807e-20
6.33354e-21
1.31673e-20
3.27371e-21
9.26663e-36
7.15909e-52
2.96777e-69
-3.68367e-69
-9.11909e-32
-2.69263e-33
-4.78741e-36
-5.71788e-39
-5.15336e-42
-3.83518e-45
-2.78774e-48
-1.91245e-51
-1.07474e-54
-4.79048e-58
-1.32203e-61
-1.18216e-65
-9.35634e-95
-3.2638e-91
-6.70873e-88
-1.10132e-84
4.41377e-81
1.87103e-60
2.40585e-57
1.19747e-56
6.13785e-60
2.15079e-56
3.4169e-88
-4.05222e-91
1.76429e-61
-1.2551e-34
-8.99587e-38
-3.76382e-41
-1.31707e-44
-4.83485e-48
-1.84402e-51
-7.45799e-55
-2.7861e-58
-7.53152e-62
-1.16177e-65
-5.02493e-70
-5.97955e-109
-3.42095e-138
-8.12965e-135
-4.61831e-131
-9.77275e-123
-9.76552e-110
-2.24632e-95
-6.86616e-90
-1.23074e-82
-4.24292e-52
-1.12128e-48
-1.07009e-31
-1.00736e-45
-5.31704e-26
1.08599e-05
0.162335
0.47385
0.570782
0.408021
0.0843578
0.00206459
1.33236e-18
-4.09309e-38
-1.45132e-25
-2.56577e-26
-5.63916e-28
-7.85492e-30
-3.05509e-31
-5.16751e-33
-5.75502e-35
-4.31573e-37
-2.43519e-39
-1.23424e-41
-6.69861e-44
-4.59486e-46
8.61002e-44
7.03208e-39
1.63382e-34
3.45258e-30
1.26376e-25
2.34299e-21
2.50594e-17
2.37889e-12
6.66266e-08
0.00148823
0.264142
0.83246
0.974191
1
1
1
0.999993
0.999477
0.94922
0.568797
0.133441
0.00883604
-1.21914e-21
8.42941e-34
3.71966e-33
-4.66818e-32
-5.03061e-33
-3.22786e-34
-1.58511e-35
4.19685e-54
8.13998e-49
2.91141e-47
1.30892e-46
1.23298e-45
1.24235e-45
1.29108e-43
1.95629e-44
9.27494e-46
3.209e-45
-5.69192e-37
-8.81878e-38
7.67607e-35
1.92943e-31
-9.56041e-73
-2.19176e-66
-9.56676e-61
-2.07255e-55
-3.17534e-50
-6.96257e-45
-4.55503e-49
-3.08109e-53
-1.93147e-57
-9.70536e-62
-4.60639e-66
-2.43267e-70
-1.35129e-74
-6.79996e-79
-2.37915e-83
-2.6888e-88
-1.04533e-140
-2.77368e-137
7.69273e-147
2.21733e-126
2.00872e-123
-2.97061e-129
7.28337e-97
6.1446e-101
7.22706e-105
-3.09203e-127
-2.76466e-130
-9.64203e-134
-4.62444e-123
2.05758e-77
3.46775e-73
8.87357e-70
8.90289e-67
3.33822e-49
1.54835e-45
3.0197e-45
5.59147e-23
3.67616e-22
-5.13836e-58
2.88045e-40
9.34214e-37
1.81327e-37
1.40417e-37
2.69206e-41
6.85144e-38
3.40654e-56
1.42467e-52
-3.05139e-71
9.33214e-89
-1.25756e-69
-3.2629e-34
-9.986e-36
-2.04675e-38
-2.55455e-41
-2.27737e-44
-1.64487e-47
-1.17675e-50
-8.04092e-54
-4.55065e-57
-2.02693e-60
-5.58686e-64
-5.32821e-68
-2.22269e-115
7.60722e-117
2.53576e-114
3.2489e-112
-1.71641e-112
-1.08385e-108
-4.1561e-98
-1.73051e-94
2.23218e-77
8.85032e-74
-2.08176e-90
-6.46782e-92
-1.76827e-81
-1.74399e-37
-1.35532e-40
-6.01236e-44
-1.97676e-47
-6.86474e-51
-2.47847e-54
-9.40148e-58
-3.28052e-61
-8.38681e-65
-1.25507e-68
-5.96032e-73
-3.24266e-105
-6.02192e-138
-4.3254e-144
-1.48311e-148
-1.11941e-135
-3.76065e-122
-1.05416e-113
-3.88666e-100
-2.11066e-82
-2.28507e-54
-1.33026e-49
1.19603e-60
3.74863e-40
3.76099e-36
2.26636e-22
1.58274e-13
3.6297e-06
0.00262263
0.0034981
1.19298e-07
8.31944e-48
-2.86623e-44
5.45764e-57
-3.21669e-26
-2.27825e-27
-4.29818e-29
-5.69147e-31
-1.21622e-32
-1.72639e-34
-1.75766e-36
-1.26951e-38
-7.31686e-41
-3.99391e-43
-2.41206e-45
-1.75962e-47
-1.39633e-49
2.19098e-51
2.66118e-43
1.68803e-37
1.18918e-32
8.1656e-28
2.92826e-23
7.31009e-19
3.36829e-14
4.19457e-09
5.15247e-05
0.0704731
0.466893
0.82228
0.973585
0.980033
0.830217
0.542836
0.19132
0.03582
8.74111e-17
8.0702e-19
6.69729e-37
-4.83679e-26
-2.1264e-28
-9.05298e-31
-1.31031e-32
-5.85966e-34
-2.64563e-35
-8.61999e-37
-2.51494e-38
-7.27102e-40
-2.07483e-40
-2.57572e-40
-1.71123e-40
-3.38926e-40
-9.86841e-39
-1.65801e-37
-8.9001e-37
-3.06232e-37
-4.81092e-38
-3.65517e-37
-2.11199e-35
-9.51144e-77
-2.23285e-70
-1.05764e-64
-2.47767e-59
-3.94787e-54
-8.66391e-49
-7.30315e-53
-5.59902e-57
-3.66782e-61
-1.81363e-65
-8.31009e-70
-4.19974e-74
-2.22219e-78
-1.07122e-82
-3.62735e-87
-4.13012e-92
-2.45326e-138
-1.3884e-134
-4.94956e-131
-1.47587e-127
-5.15971e-124
-1.92415e-119
1.55919e-115
1.22538e-119
1.95285e-129
8.41634e-132
-1.3772e-151
-2.05719e-140
-1.94101e-122
-3.86129e-83
-6.4483e-79
-4.23338e-75
-1.74828e-71
-6.43879e-69
-8.69017e-65
7.30149e-45
1.6414e-41
3.6889e-40
-4.28149e-61
-3.96797e-76
9.49212e-59
3.09073e-55
3.19853e-55
3.26779e-59
3.56566e-55
1.48587e-75
1.0745e-69
-1.59343e-73
-1.43643e-77
-2.22079e-70
-9.92053e-37
-3.86127e-38
-8.4977e-41
-1.06938e-43
-9.4633e-47
-6.75948e-50
-4.83474e-53
-3.30045e-56
-1.86128e-59
-8.15799e-63
-2.21515e-66
-2.20719e-70
-1.97295e-111
-1.03213e-118
-3.80772e-115
-1.21275e-111
-3.75521e-108
-1.2172e-104
-4.39218e-101
-1.19969e-97
5.89725e-95
1.75095e-91
-2.43599e-92
-9.99644e-94
1.18978e-99
-2.2435e-40
-1.81099e-43
-7.96665e-47
-2.46536e-50
-8.10392e-54
-2.77012e-57
-9.86858e-61
-3.22949e-64
-7.83259e-68
-1.13843e-71
-5.83337e-76
-1.25955e-101
-5.08963e-135
-5.04873e-141
-2.37142e-145
-8.79898e-144
-9.0338e-129
-8.79664e-114
-1.95948e-99
-5.11628e-88
-1.17794e-69
-9.29401e-49
5.84083e-59
6.87704e-38
5.75669e-35
-7.1638e-32
-3.45371e-29
2.19757e-41
4.12467e-22
1.43384e-19
1.37644e-24
-1.27474e-47
-4.81511e-45
-4.77895e-42
-3.59656e-27
-1.57238e-28
-2.69331e-30
-3.49892e-32
-5.27883e-34
-6.26934e-36
-5.82573e-38
-4.15111e-40
-2.50812e-42
-1.46158e-44
-9.23086e-47
-6.64164e-49
-4.96794e-51
-3.5331e-53
-2.33674e-55
-2.77438e-54
5.7473e-42
2.82876e-36
2.30797e-32
8.54319e-29
5.25277e-25
1.19103e-20
1.96983e-16
9.97311e-13
1.76729e-07
0.0018716
0.0399857
0.0511212
0.0437203
0.0239367
0.000140173
3.23065e-21
1.20967e-24
5.95748e-23
-2.34095e-24
-9.52287e-27
-3.75358e-29
-2.82821e-31
-1.03311e-32
-4.98271e-34
-2.13213e-35
-7.57664e-37
-2.35651e-38
-7.11965e-40
-3.28759e-40
-3.54237e-40
-1.94721e-40
-2.93892e-40
-5.97365e-39
-6.65662e-38
-2.90346e-37
-9.46632e-38
-1.53643e-38
-2.44008e-37
-1.66377e-35
-8.30017e-81
-1.98694e-74
-1.00024e-68
-2.52211e-63
-4.28009e-58
-1.00924e-52
-1.07111e-56
-9.16528e-61
-6.24557e-65
-3.02557e-69
-1.32664e-73
-6.41704e-78
-3.25454e-82
-1.50657e-86
-4.93287e-91
-5.65356e-96
-2.49589e-141
-2.05091e-137
-1.09269e-133
-4.98815e-130
-2.73217e-126
-1.76905e-121
-2.37216e-136
-1.83406e-127
-6.81094e-130
-1.47416e-132
-2.18011e-135
-2.11738e-138
-1.31092e-130
-6.88409e-101
-7.71463e-97
-3.36894e-93
-7.91078e-90
-1.1667e-86
-1.28646e-83
-8.88819e-81
4.28914e-85
-1.15579e-67
-3.33653e-64
-3.37911e-79
3.4942e-138
4.9735e-121
9.63892e-118
1.06851e-100
-3.02732e-82
-2.84871e-78
-6.07531e-89
-8.022e-76
-1.43764e-79
-2.67533e-71
-4.12509e-39
-1.52421e-40
-3.42187e-43
-4.31506e-46
-3.84602e-49
-2.75978e-52
-1.97262e-55
-1.32962e-58
-7.35066e-62
-3.12946e-65
-8.30378e-69
-8.55002e-73
-1.38411e-107
-6.34048e-122
-2.47157e-118
-8.25238e-115
-2.66287e-111
-8.94891e-108
-3.33057e-104
-8.31563e-101
1.46103e-115
-2.96565e-111
-2.69113e-94
-8.75264e-96
-3.78885e-88
-2.67265e-43
-2.17491e-46
-9.21566e-50
-2.6902e-53
-8.38273e-57
-2.71688e-60
-9.11088e-64
-2.80084e-67
-6.45106e-71
-9.10511e-75
-4.95017e-79
-3.491e-98
-4.14948e-132
-5.46361e-138
-3.32736e-142
-7.56866e-143
-3.81952e-128
-2.45214e-113
-7.66553e-99
-1.82349e-87
-1.7172e-77
-4.50507e-47
-4.06519e-42
-7.31178e-39
-4.20234e-36
-1.15701e-33
-1.68314e-31
-1.40235e-29
-1.5987e-43
7.35098e-39
1.27637e-43
-1.56739e-47
-2.70104e-45
-1.17996e-42
-2.72616e-28
-9.0687e-30
-1.47279e-31
-1.90852e-33
-2.39595e-35
-2.48415e-37
-2.14205e-39
-1.5146e-41
-9.40733e-44
-5.57246e-46
-3.47465e-48
-2.37158e-50
-1.64385e-52
-1.07625e-54
-7.00302e-57
-2.18127e-54
-2.09228e-50
-6.42674e-46
-1.028e-41
-1.16963e-38
-1.14473e-36
-4.61128e-35
-1.22305e-33
-2.83183e-32
-5.18596e-31
-7.02e-30
-6.23183e-29
-2.42897e-28
5.78509e-29
-2.78347e-25
-3.53578e-24
-3.19776e-22
3.40432e-26
4.69365e-24
-2.54113e-25
-8.56003e-28
-4.46678e-30
-1.12579e-31
-5.90965e-33
-2.78464e-34
-1.13676e-35
-3.99113e-37
-1.24434e-38
-3.81946e-40
-2.62018e-40
-2.42471e-40
-1.10962e-40
-1.29197e-40
-1.90813e-39
-1.58151e-38
-6.14341e-38
-1.9015e-38
-3.29425e-39
-9.10221e-38
-6.72416e-36
-6.46354e-85
-1.59629e-78
-8.52732e-73
-2.27473e-67
-4.11553e-62
-1.0932e-56
-1.44672e-60
-1.38058e-64
-9.69039e-69
-4.53539e-73
-1.90099e-77
-8.8461e-82
-4.31164e-86
-1.91669e-90
-6.06378e-95
-6.9881e-100
-7.97773e-145
-8.98298e-141
-6.89759e-137
-4.77131e-133
-4.17059e-129
-6.30085e-124
-5.82874e-127
-8.37625e-130
-1.21945e-132
-1.57336e-135
-1.63209e-138
-1.19578e-141
-1.63858e-129
-4.882e-99
-6.71703e-95
-3.94103e-91
-1.41008e-87
-3.77488e-84
-9.18204e-81