/*--------------------------------*- C++ -*----------------------------------*\
| =========                 |                                                 |
| \\      /  F ield         | OpenFOAM: The Open Source CFD Toolbox           |
|  \\    /   O peration     | Version:  v1912                                 |
|   \\  /    A nd           | Website:  www.openfoam.com                      |
|    \\/     M anipulation  |                                                 |
\*---------------------------------------------------------------------------*/
FoamFile
{
    version     2.0;
    format      ascii;
    class       volScalarField;
    location    "20";
    object      nut;
}
// * * * * * * * * * * * * * * * * * * * * * * * * * * * * * * * * * * * * * //

dimensions      [0 2 -1 0 0 0 0];


internalField   nonuniform List<scalar> 
14268
(
8.59422e-05
8.52208e-05
8.42401e-05
8.36082e-05
8.31337e-05
8.27726e-05
8.25009e-05
8.22982e-05
8.21543e-05
8.20602e-05
8.20023e-05
8.19989e-05
8.20905e-05
8.23178e-05
8.2711e-05
8.32841e-05
8.40217e-05
8.48848e-05
8.58127e-05
8.67521e-05
8.76405e-05
8.84211e-05
8.90182e-05
8.94538e-05
8.97534e-05
8.99489e-05
9.00589e-05
9.01068e-05
9.01178e-05
9.0112e-05
9.00964e-05
9.00699e-05
9.0033e-05
8.99868e-05
8.99171e-05
8.98111e-05
8.96907e-05
8.95521e-05
8.93876e-05
8.91932e-05
8.89761e-05
8.87538e-05
8.85531e-05
8.84024e-05
8.82886e-05
8.82036e-05
8.81374e-05
8.80775e-05
8.80188e-05
8.79583e-05
8.78962e-05
8.78316e-05
8.77632e-05
8.76892e-05
8.76071e-05
8.75166e-05
8.74249e-05
8.73353e-05
8.72513e-05
8.7174e-05
8.71025e-05
8.70345e-05
8.69674e-05
8.69005e-05
8.68348e-05
8.67706e-05
8.67083e-05
8.66503e-05
8.66218e-05
8.66357e-05
8.67e-05
8.6816e-05
8.69986e-05
8.7258e-05
8.75907e-05
8.79871e-05
8.84282e-05
8.89049e-05
8.93696e-05
8.98046e-05
9.01854e-05
9.04939e-05
9.07196e-05
9.08596e-05
9.09164e-05
9.08987e-05
9.08357e-05
9.07686e-05
9.06956e-05
9.0613e-05
9.05215e-05
9.04232e-05
9.03222e-05
9.02189e-05
9.01138e-05
9.00065e-05
8.98993e-05
8.97648e-05
8.96224e-05
8.94656e-05
8.93001e-05
8.91309e-05
8.89456e-05
8.87557e-05
8.85612e-05
8.83657e-05
8.817e-05
8.79746e-05
8.77788e-05
8.75828e-05
8.73871e-05
8.7191e-05
8.69942e-05
8.68055e-05
8.66363e-05
8.6487e-05
8.63537e-05
8.6224e-05
8.61024e-05
8.59704e-05
8.58146e-05
8.56493e-05
8.54866e-05
8.5324e-05
8.51609e-05
8.49991e-05
8.48373e-05
8.46758e-05
8.45173e-05
8.43644e-05
8.42172e-05
8.40742e-05
8.39445e-05
8.38727e-05
8.38654e-05
8.39211e-05
8.4032e-05
8.41888e-05
8.43806e-05
8.45954e-05
8.4821e-05
8.50457e-05
8.52583e-05
8.54486e-05
8.56069e-05
8.57245e-05
8.57948e-05
8.58127e-05
8.57743e-05
8.56837e-05
8.5591e-05
8.54995e-05
8.54084e-05
8.53182e-05
8.52294e-05
8.51465e-05
8.50704e-05
8.49952e-05
8.49277e-05
8.48696e-05
8.48163e-05
8.4757e-05
8.46958e-05
8.46489e-05
2.69039e-07
4.0588e-07
4.82205e-07
5.13609e-07
5.23832e-07
5.26532e-07
5.26248e-07
5.25171e-07
5.24888e-07
5.26347e-07
5.2933e-07
5.32408e-07
5.35887e-07
5.40482e-07
5.46729e-07
5.54109e-07
5.6068e-07
5.65792e-07
5.70119e-07
5.75031e-07
5.81062e-07
5.87737e-07
5.94653e-07
6.01635e-07
6.08354e-07
6.14986e-07
6.21921e-07
6.29284e-07
6.37149e-07
6.45571e-07
6.54293e-07
6.63035e-07
6.71918e-07
6.80733e-07
6.8917e-07
6.96495e-07
7.00732e-07
7.01143e-07
6.97432e-07
6.90214e-07
6.81122e-07
6.72369e-07
6.64246e-07
6.52564e-07
6.41693e-07
6.33251e-07
6.27583e-07
6.24357e-07
6.22847e-07
6.2223e-07
6.22027e-07
6.20414e-07
6.17178e-07
6.12088e-07
6.06521e-07
6.00842e-07
5.93257e-07
5.8482e-07
5.76343e-07
5.6833e-07
5.61069e-07
5.54724e-07
5.49391e-07
5.45148e-07
5.4206e-07
5.4021e-07
5.39812e-07
5.41058e-07
5.42758e-07
5.44945e-07
5.47833e-07
5.5167e-07
5.56504e-07
5.62263e-07
5.6891e-07
5.76488e-07
5.84812e-07
5.93733e-07
6.02861e-07
6.12139e-07
6.20965e-07
6.29038e-07
6.36066e-07
6.41772e-07
6.46015e-07
6.48854e-07
6.4926e-07
6.45148e-07
6.37052e-07
6.26184e-07
6.13552e-07
6.00248e-07
5.87372e-07
5.7462e-07
5.61327e-07
5.49823e-07
5.4041e-07
5.33087e-07
5.28373e-07
5.2637e-07
5.27123e-07
5.31238e-07
5.38091e-07
5.456e-07
5.53631e-07
5.61793e-07
5.69856e-07
5.77564e-07
5.84985e-07
5.92241e-07
5.99666e-07
6.07817e-07
6.17095e-07
6.27434e-07
6.38435e-07
6.50164e-07
6.62601e-07
6.75485e-07
6.88557e-07
7.01401e-07
7.1375e-07
7.23664e-07
7.29402e-07
7.30885e-07
7.28124e-07
7.21551e-07
7.1375e-07
7.04804e-07
6.96653e-07
6.90587e-07
6.87806e-07
6.89431e-07
6.95335e-07
7.03196e-07
7.13139e-07
7.25286e-07
7.39713e-07
7.56451e-07
7.75455e-07
7.96612e-07
8.19762e-07
8.44635e-07
8.70839e-07
8.97885e-07
9.25088e-07
9.51639e-07
9.76371e-07
9.98107e-07
1.01553e-06
1.02687e-06
1.02843e-06
1.01925e-06
9.99328e-07
9.70383e-07
9.34499e-07
8.93922e-07
8.5049e-07
8.06755e-07
7.64312e-07
7.24837e-07
6.89285e-07
6.58873e-07
6.32857e-07
6.12461e-07
2.1826e-07
3.40577e-07
3.77898e-07
3.89306e-07
3.91527e-07
3.91165e-07
3.89766e-07
3.88162e-07
3.86651e-07
3.85384e-07
3.84342e-07
3.83479e-07
3.82962e-07
3.83148e-07
3.84142e-07
3.8581e-07
3.88012e-07
3.90662e-07
3.93737e-07
3.9713e-07
4.00398e-07
4.03713e-07
4.0705e-07
4.09885e-07
4.12e-07
4.13348e-07
4.13999e-07
4.14214e-07
4.1441e-07
4.14918e-07
4.15852e-07
4.17224e-07
4.18821e-07
4.20337e-07
4.21533e-07
4.22211e-07
4.22324e-07
4.21732e-07
4.20293e-07
4.18196e-07
4.15721e-07
4.13182e-07
4.10791e-07
4.08367e-07
4.06279e-07
4.04754e-07
4.03735e-07
4.03123e-07
4.02785e-07
4.02562e-07
4.02305e-07
4.01839e-07
4.01179e-07
4.00314e-07
3.99299e-07
3.98173e-07
3.96949e-07
3.95738e-07
3.94611e-07
3.93604e-07
3.92724e-07
3.91977e-07
3.91381e-07
3.90945e-07
3.90633e-07
3.90427e-07
3.90349e-07
3.90432e-07
3.90639e-07
3.91087e-07
3.91865e-07
3.93065e-07
3.94712e-07
3.96808e-07
3.99351e-07
4.02329e-07
4.05608e-07
4.09061e-07
4.12668e-07
4.16199e-07
4.19376e-07
4.22013e-07
4.23944e-07
4.25076e-07
4.25393e-07
4.25026e-07
4.24204e-07
4.22875e-07
4.21167e-07
4.1924e-07
4.17231e-07
4.15267e-07
4.13429e-07
4.1173e-07
4.10211e-07
4.08995e-07
4.08039e-07
4.0718e-07
4.06524e-07
4.06186e-07
4.06037e-07
4.06118e-07
4.06316e-07
4.06595e-07
4.06935e-07
4.0731e-07
4.07707e-07
4.08089e-07
4.08476e-07
4.08854e-07
4.09274e-07
4.098e-07
4.10477e-07
4.11379e-07
4.12505e-07
4.13886e-07
4.15548e-07
4.17352e-07
4.19093e-07
4.20738e-07
4.22287e-07
4.2353e-07
4.24269e-07
4.24444e-07
4.24038e-07
4.23131e-07
4.22024e-07
4.20852e-07
4.1984e-07
4.1915e-07
4.18909e-07
4.19256e-07
4.20225e-07
4.21554e-07
4.23214e-07
4.25232e-07
4.27647e-07
4.3048e-07
4.33744e-07
4.3746e-07
4.41629e-07
4.4623e-07
4.51202e-07
4.56452e-07
4.61808e-07
4.67057e-07
4.71922e-07
4.761e-07
4.79267e-07
4.81244e-07
4.81448e-07
4.79663e-07
4.76034e-07
4.70919e-07
4.64778e-07
4.58062e-07
4.51254e-07
4.44801e-07
4.38937e-07
4.33877e-07
4.29793e-07
4.26785e-07
4.24148e-07
4.22379e-07
2.13941e-07
3.28345e-07
3.62406e-07
3.72156e-07
3.73821e-07
3.73482e-07
3.72674e-07
3.7178e-07
3.70894e-07
3.70141e-07
3.69723e-07
3.70145e-07
3.71367e-07
3.73004e-07
3.75173e-07
3.77836e-07
3.80879e-07
3.84198e-07
3.87699e-07
3.91186e-07
3.94518e-07
3.97585e-07
4.00383e-07
4.02601e-07
4.04129e-07
4.05001e-07
4.05311e-07
4.05271e-07
4.05151e-07
4.05209e-07
4.0549e-07
4.05911e-07
4.06425e-07
4.06954e-07
4.07331e-07
4.07424e-07
4.07341e-07
4.07049e-07
4.06545e-07
4.05893e-07
4.05197e-07
4.04542e-07
4.03986e-07
4.03508e-07
4.03137e-07
4.02982e-07
4.02987e-07
4.03065e-07
4.03175e-07
4.03298e-07
4.03406e-07
4.03481e-07
4.0356e-07
4.03647e-07
4.03739e-07
4.03847e-07
4.03989e-07
4.04177e-07
4.0442e-07
4.047e-07
4.04984e-07
4.05258e-07
4.05535e-07
4.05877e-07
4.06217e-07
4.06525e-07
4.06806e-07
4.07063e-07
4.07359e-07
4.07697e-07
4.08077e-07
4.08488e-07
4.08949e-07
4.0948e-07
4.10088e-07
4.10791e-07
4.11546e-07
4.1234e-07
4.13172e-07
4.13976e-07
4.14654e-07
4.15177e-07
4.15498e-07
4.156e-07
4.15474e-07
4.15201e-07
4.14875e-07
4.14513e-07
4.1413e-07
4.13756e-07
4.1341e-07
4.13112e-07
4.12856e-07
4.12642e-07
4.12451e-07
4.12371e-07
4.12385e-07
4.12446e-07
4.12481e-07
4.12532e-07
4.12458e-07
4.12293e-07
4.12175e-07
4.12031e-07
4.11881e-07
4.11734e-07
4.11593e-07
4.11458e-07
4.11334e-07
4.11213e-07
4.11109e-07
4.11026e-07
4.10948e-07
4.10893e-07
4.10861e-07
4.10873e-07
4.1096e-07
4.10985e-07
4.1094e-07
4.10868e-07
4.10792e-07
4.10725e-07
4.10677e-07
4.1067e-07
4.10644e-07
4.10507e-07
4.1042e-07
4.10498e-07
4.10721e-07
4.11014e-07
4.11329e-07
4.11607e-07
4.11825e-07
4.11992e-07
4.12171e-07
4.12373e-07
4.12609e-07
4.12888e-07
4.13226e-07
4.13631e-07
4.14111e-07
4.14655e-07
4.15268e-07
4.15957e-07
4.16683e-07
4.17412e-07
4.18103e-07
4.18693e-07
4.19151e-07
4.19435e-07
4.19376e-07
4.18903e-07
4.18063e-07
4.16988e-07
4.15776e-07
4.14569e-07
4.13503e-07
4.12851e-07
4.12454e-07
4.12487e-07
4.1287e-07
4.13616e-07
4.1409e-07
4.14529e-07
2.13168e-07
3.2564e-07
3.60039e-07
3.704e-07
3.72684e-07
3.73234e-07
3.73509e-07
3.73888e-07
3.74404e-07
3.75017e-07
3.75749e-07
3.7685e-07
3.78333e-07
3.80076e-07
3.8209e-07
3.84378e-07
3.86923e-07
3.89671e-07
3.92554e-07
3.95396e-07
3.98184e-07
4.00722e-07
4.02962e-07
4.0473e-07
4.05925e-07
4.0664e-07
4.06999e-07
4.07149e-07
4.07233e-07
4.07352e-07
4.0752e-07
4.07725e-07
4.08063e-07
4.08494e-07
4.08779e-07
4.08783e-07
4.08635e-07
4.08319e-07
4.07859e-07
4.07301e-07
4.06702e-07
4.06119e-07
4.05597e-07
4.05154e-07
4.04763e-07
4.04462e-07
4.04298e-07
4.04227e-07
4.04196e-07
4.04182e-07
4.04154e-07
4.04067e-07
4.03951e-07
4.03811e-07
4.03645e-07
4.03467e-07
4.03285e-07
4.03111e-07
4.02951e-07
4.02808e-07
4.02671e-07
4.02533e-07
4.02408e-07
4.02344e-07
4.02334e-07
4.02334e-07
4.02356e-07
4.02428e-07
4.02568e-07
4.02787e-07
4.03112e-07
4.03557e-07
4.04143e-07
4.04887e-07
4.05804e-07
4.06913e-07
4.08157e-07
4.09514e-07
4.10963e-07
4.1241e-07
4.13709e-07
4.14772e-07
4.15508e-07
4.15866e-07
4.15838e-07
4.15522e-07
4.1511e-07
4.14644e-07
4.14133e-07
4.13605e-07
4.13078e-07
4.1257e-07
4.12086e-07
4.11637e-07
4.11206e-07
4.10885e-07
4.10637e-07
4.10359e-07
4.10035e-07
4.09716e-07
4.09507e-07
4.09331e-07
4.09166e-07
4.08973e-07
4.08774e-07
4.08564e-07
4.0833e-07
4.08084e-07
4.07822e-07
4.07554e-07
4.073e-07
4.07069e-07
4.06876e-07
4.06775e-07
4.06759e-07
4.06841e-07
4.07052e-07
4.0723e-07
4.07302e-07
4.07269e-07
4.07205e-07
4.07129e-07
4.07028e-07
4.06889e-07
4.06689e-07
4.06408e-07
4.06152e-07
4.05936e-07
4.05775e-07
4.05675e-07
4.05645e-07
4.05745e-07
4.05971e-07
4.06225e-07
4.06493e-07
4.06781e-07
4.07109e-07
4.07494e-07
4.07955e-07
4.08521e-07
4.0922e-07
4.10049e-07
4.10977e-07
4.11983e-07
4.13009e-07
4.13968e-07
4.14759e-07
4.15292e-07
4.15502e-07
4.1554e-07
4.15416e-07
4.15121e-07
4.14696e-07
4.14191e-07
4.13629e-07
4.13076e-07
4.12602e-07
4.12273e-07
4.12004e-07
4.11895e-07
4.11867e-07
4.12182e-07
4.12258e-07
4.12491e-07
2.17679e-07
3.34105e-07
3.71075e-07
3.82697e-07
3.85549e-07
3.86532e-07
3.87236e-07
3.88066e-07
3.88926e-07
3.89731e-07
3.90456e-07
3.91175e-07
3.9196e-07
3.92883e-07
3.93915e-07
3.9508e-07
3.96407e-07
3.97905e-07
3.99572e-07
4.01334e-07
4.03208e-07
4.05007e-07
4.06591e-07
4.07892e-07
4.08814e-07
4.09368e-07
4.0965e-07
4.09773e-07
4.09831e-07
4.09872e-07
4.09899e-07
4.09955e-07
4.1011e-07
4.10392e-07
4.10602e-07
4.1058e-07
4.10394e-07
4.10029e-07
4.09555e-07
4.09032e-07
4.08504e-07
4.08012e-07
4.07585e-07
4.07245e-07
4.06986e-07
4.06773e-07
4.0662e-07
4.06547e-07
4.06517e-07
4.06503e-07
4.06485e-07
4.06426e-07
4.06367e-07
4.06326e-07
4.06306e-07
4.06309e-07
4.06335e-07
4.06388e-07
4.06466e-07
4.06567e-07
4.0667e-07
4.06757e-07
4.06823e-07
4.06904e-07
4.07047e-07
4.07203e-07
4.07375e-07
4.07565e-07
4.07785e-07
4.08047e-07
4.08357e-07
4.08708e-07
4.09113e-07
4.09586e-07
4.10145e-07
4.10807e-07
4.11541e-07
4.12341e-07
4.13199e-07
4.14053e-07
4.14798e-07
4.15375e-07
4.15726e-07
4.15825e-07
4.1566e-07
4.15354e-07
4.15021e-07
4.14658e-07
4.14281e-07
4.13916e-07
4.1358e-07
4.13284e-07
4.13036e-07
4.12832e-07
4.12666e-07
4.12564e-07
4.12519e-07
4.12473e-07
4.12456e-07
4.12359e-07
4.12176e-07
4.12067e-07
4.11954e-07
4.11812e-07
4.11649e-07
4.11473e-07
4.11279e-07
4.11094e-07
4.10896e-07
4.10702e-07
4.10521e-07
4.10361e-07
4.1022e-07
4.10103e-07
4.10019e-07
4.09973e-07
4.09984e-07
4.09907e-07
4.09757e-07
4.09579e-07
4.09389e-07
4.09238e-07
4.09131e-07
4.09062e-07
4.09012e-07
4.08959e-07
4.08991e-07
4.09168e-07
4.09511e-07
4.09954e-07
4.10422e-07
4.10827e-07
4.11126e-07
4.11349e-07
4.11487e-07
4.11568e-07
4.11643e-07
4.11712e-07
4.1178e-07
4.11856e-07
4.11972e-07
4.12157e-07
4.12405e-07
4.12706e-07
4.13004e-07
4.13255e-07
4.13414e-07
4.1344e-07
4.13385e-07
4.13268e-07
4.13043e-07
4.12712e-07
4.12319e-07
4.11893e-07
4.11437e-07
4.11023e-07
4.10709e-07
4.10595e-07
4.10643e-07
4.11022e-07
4.11693e-07
4.12667e-07
4.13351e-07
4.14049e-07
2.21982e-07
3.4207e-07
3.80793e-07
3.93132e-07
3.95891e-07
3.96476e-07
3.96726e-07
3.97087e-07
3.97551e-07
3.98121e-07
3.98669e-07
3.99218e-07
3.99792e-07
4.00405e-07
4.01038e-07
4.01705e-07
4.02453e-07
4.03324e-07
4.04357e-07
4.05531e-07
4.06869e-07
4.08193e-07
4.09337e-07
4.10274e-07
4.10922e-07
4.11292e-07
4.11463e-07
4.11524e-07
4.11546e-07
4.11558e-07
4.11561e-07
4.11581e-07
4.11638e-07
4.11752e-07
4.11872e-07
4.11854e-07
4.11685e-07
4.1136e-07
4.10946e-07
4.10492e-07
4.10043e-07
4.0964e-07
4.09307e-07
4.09047e-07
4.08854e-07
4.08714e-07
4.08601e-07
4.08519e-07
4.0848e-07
4.08459e-07
4.08434e-07
4.0836e-07
4.08271e-07
4.08188e-07
4.08111e-07
4.08046e-07
4.07995e-07
4.07962e-07
4.07946e-07
4.07941e-07
4.07943e-07
4.07927e-07
4.07878e-07
4.07811e-07
4.07818e-07
4.07894e-07
4.08009e-07
4.08167e-07
4.08353e-07
4.08578e-07
4.08848e-07
4.09155e-07
4.09511e-07
4.0993e-07
4.10434e-07
4.11045e-07
4.11745e-07
4.12527e-07
4.1338e-07
4.1424e-07
4.15003e-07
4.15604e-07
4.15975e-07
4.16083e-07
4.15917e-07
4.15617e-07
4.15292e-07
4.14936e-07
4.14563e-07
4.14198e-07
4.13857e-07
4.13547e-07
4.13274e-07
4.13031e-07
4.12816e-07
4.12625e-07
4.12465e-07
4.12291e-07
4.12178e-07
4.11994e-07
4.11757e-07
4.11637e-07
4.11495e-07
4.11339e-07
4.11161e-07
4.10969e-07
4.10755e-07
4.10541e-07
4.10309e-07
4.10079e-07
4.09859e-07
4.09664e-07
4.09519e-07
4.09431e-07
4.09403e-07
4.09436e-07
4.09533e-07
4.09554e-07
4.09472e-07
4.09345e-07
4.09206e-07
4.09084e-07
4.08971e-07
4.08851e-07
4.0871e-07
4.08537e-07
4.08415e-07
4.08337e-07
4.0832e-07
4.08431e-07
4.08662e-07
4.08979e-07
4.09345e-07
4.09677e-07
4.09956e-07
4.10182e-07
4.10383e-07
4.10577e-07
4.10793e-07
4.1107e-07
4.11438e-07
4.11895e-07
4.12419e-07
4.12987e-07
4.13556e-07
4.14059e-07
4.14415e-07
4.14543e-07
4.14499e-07
4.14349e-07
4.14101e-07
4.13766e-07
4.13375e-07
4.12969e-07
4.12561e-07
4.12205e-07
4.11949e-07
4.11831e-07
4.11744e-07
4.11777e-07
4.1201e-07
4.12524e-07
4.12776e-07
4.13176e-07
2.23761e-07
3.45358e-07
3.85616e-07
3.98797e-07
4.0187e-07
4.02488e-07
4.02682e-07
4.02929e-07
4.03335e-07
4.03865e-07
4.04359e-07
4.04832e-07
4.05287e-07
4.05727e-07
4.06128e-07
4.06483e-07
4.06839e-07
4.07274e-07
4.07852e-07
4.08592e-07
4.09533e-07
4.10495e-07
4.11323e-07
4.12003e-07
4.12457e-07
4.12684e-07
4.12745e-07
4.1272e-07
4.12696e-07
4.12704e-07
4.12707e-07
4.12712e-07
4.12723e-07
4.12734e-07
4.12753e-07
4.12748e-07
4.12601e-07
4.12301e-07
4.11919e-07
4.11505e-07
4.11098e-07
4.10736e-07
4.1044e-07
4.10217e-07
4.10061e-07
4.09962e-07
4.099e-07
4.09845e-07
4.09802e-07
4.09785e-07
4.09764e-07
4.09695e-07
4.09603e-07
4.09517e-07
4.09444e-07
4.09387e-07
4.09351e-07
4.09334e-07
4.09335e-07
4.09351e-07
4.09374e-07
4.09387e-07
4.09375e-07
4.09349e-07
4.09369e-07
4.09479e-07
4.09661e-07
4.09882e-07
4.10116e-07
4.10376e-07
4.10665e-07
4.10968e-07
4.11288e-07
4.11635e-07
4.12028e-07
4.12491e-07
4.13017e-07
4.13609e-07
4.14256e-07
4.14907e-07
4.15474e-07
4.15897e-07
4.16117e-07
4.16107e-07
4.15872e-07
4.15561e-07
4.15242e-07
4.14899e-07
4.14545e-07
4.14203e-07
4.13888e-07
4.13611e-07
4.13372e-07
4.13163e-07
4.1298e-07
4.12795e-07
4.12663e-07
4.12569e-07
4.12583e-07
4.12459e-07
4.12263e-07
4.12178e-07
4.12055e-07
4.1192e-07
4.1175e-07
4.11557e-07
4.11345e-07
4.11134e-07
4.10911e-07
4.10691e-07
4.10491e-07
4.10329e-07
4.10206e-07
4.10121e-07
4.1008e-07
4.1008e-07
4.10104e-07
4.10033e-07
4.09902e-07
4.09742e-07
4.09552e-07
4.09402e-07
4.09281e-07
4.09176e-07
4.0907e-07
4.08975e-07
4.08959e-07
4.09079e-07
4.09388e-07
4.09845e-07
4.10385e-07
4.10929e-07
4.11413e-07
4.1183e-07
4.12165e-07
4.1241e-07
4.12593e-07
4.12731e-07
4.12846e-07
4.1298e-07
4.13158e-07
4.13389e-07
4.13656e-07
4.13941e-07
4.14218e-07
4.14429e-07
4.14511e-07
4.14468e-07
4.14355e-07
4.14152e-07
4.13861e-07
4.1348e-07
4.13034e-07
4.12564e-07
4.1209e-07
4.11651e-07
4.113e-07
4.11058e-07
4.10906e-07
4.11128e-07
4.1167e-07
4.1252e-07
4.13134e-07
4.1388e-07
2.24166e-07
3.46318e-07
3.87881e-07
4.01925e-07
4.05411e-07
4.06228e-07
4.06541e-07
4.06842e-07
4.07299e-07
4.07797e-07
4.08271e-07
4.08719e-07
4.09116e-07
4.09471e-07
4.09742e-07
4.09909e-07
4.10012e-07
4.10154e-07
4.10418e-07
4.10843e-07
4.11485e-07
4.12156e-07
4.12755e-07
4.13249e-07
4.13544e-07
4.13643e-07
4.13599e-07
4.1351e-07
4.13475e-07
4.13463e-07
4.13451e-07
4.13465e-07
4.13489e-07
4.13463e-07
4.13374e-07
4.13344e-07
4.13246e-07
4.12968e-07
4.12583e-07
4.12172e-07
4.1178e-07
4.11436e-07
4.11158e-07
4.10951e-07
4.10812e-07
4.10729e-07
4.10689e-07
4.10669e-07
4.10635e-07
4.10618e-07
4.106e-07
4.10538e-07
4.1044e-07
4.10345e-07
4.10266e-07
4.10209e-07
4.10175e-07
4.10162e-07
4.10164e-07
4.10176e-07
4.10189e-07
4.10196e-07
4.10192e-07
4.10182e-07
4.1018e-07
4.10253e-07
4.10451e-07
4.10708e-07
4.10967e-07
4.11256e-07
4.11569e-07
4.11886e-07
4.12202e-07
4.12526e-07
4.12873e-07
4.13267e-07
4.13703e-07
4.14198e-07
4.14739e-07
4.15283e-07
4.15749e-07
4.1608e-07
4.16218e-07
4.16138e-07
4.15869e-07
4.15547e-07
4.15222e-07
4.14878e-07
4.14525e-07
4.14182e-07
4.13864e-07
4.13574e-07
4.13322e-07
4.13106e-07
4.12911e-07
4.12706e-07
4.12557e-07
4.12458e-07
4.12437e-07
4.12281e-07
4.12114e-07
4.12009e-07
4.11924e-07
4.11778e-07
4.11602e-07
4.11388e-07
4.11151e-07
4.10903e-07
4.10643e-07
4.10387e-07
4.10157e-07
4.09978e-07
4.09858e-07
4.09786e-07
4.09768e-07
4.09797e-07
4.09836e-07
4.09784e-07
4.09667e-07
4.09503e-07
4.09306e-07
4.09161e-07
4.09014e-07
4.08876e-07
4.08714e-07
4.08564e-07
4.08472e-07
4.0848e-07
4.08676e-07
4.09047e-07
4.09554e-07
4.10143e-07
4.10727e-07
4.11248e-07
4.11682e-07
4.12019e-07
4.12289e-07
4.12508e-07
4.12696e-07
4.12905e-07
4.1316e-07
4.13471e-07
4.13827e-07
4.142e-07
4.14551e-07
4.14829e-07
4.14952e-07
4.14927e-07
4.14809e-07
4.14571e-07
4.14241e-07
4.13817e-07
4.13321e-07
4.12798e-07
4.12279e-07
4.11798e-07
4.11413e-07
4.11174e-07
4.11009e-07
4.11089e-07
4.11443e-07
4.12091e-07
4.12509e-07
4.13199e-07
2.2386e-07
3.46056e-07
3.88733e-07
4.03626e-07
4.07549e-07
4.08577e-07
4.09019e-07
4.09424e-07
4.09964e-07
4.10446e-07
4.10902e-07
4.1136e-07
4.11768e-07
4.12104e-07
4.12307e-07
4.12376e-07
4.12332e-07
4.1228e-07
4.12311e-07
4.12477e-07
4.12856e-07
4.13275e-07
4.13679e-07
4.14024e-07
4.14209e-07
4.14224e-07
4.1411e-07
4.13981e-07
4.13901e-07
4.13838e-07
4.13828e-07
4.13903e-07
4.13995e-07
4.13994e-07
4.13852e-07
4.13734e-07
4.13645e-07
4.13424e-07
4.13045e-07
4.1262e-07
4.12214e-07
4.11863e-07
4.11588e-07
4.11393e-07
4.11263e-07
4.11186e-07
4.11153e-07
4.11158e-07
4.11143e-07
4.1113e-07
4.11109e-07
4.11057e-07
4.10947e-07
4.10839e-07
4.10751e-07
4.10689e-07
4.10656e-07
4.10649e-07
4.1066e-07
4.10683e-07
4.10719e-07
4.10757e-07
4.10789e-07
4.10817e-07
4.10856e-07
4.10954e-07
4.1116e-07
4.11456e-07
4.11767e-07
4.12121e-07
4.12502e-07
4.12876e-07
4.13227e-07
4.13552e-07
4.13869e-07
4.14195e-07
4.14544e-07
4.14929e-07
4.15338e-07
4.1574e-07
4.1607e-07
4.16274e-07
4.16303e-07
4.16128e-07
4.15826e-07
4.15486e-07
4.15145e-07
4.14788e-07
4.14416e-07
4.14054e-07
4.13723e-07
4.13425e-07
4.13169e-07
4.12946e-07
4.12737e-07
4.12532e-07
4.12382e-07
4.12307e-07
4.12253e-07
4.12093e-07
4.11958e-07
4.11811e-07
4.11791e-07
4.11683e-07
4.11503e-07
4.11281e-07
4.11032e-07
4.10763e-07
4.10481e-07
4.10201e-07
4.09956e-07
4.09775e-07
4.09662e-07
4.09602e-07
4.0958e-07
4.09606e-07
4.09625e-07
4.0953e-07
4.09387e-07
4.09159e-07
4.08998e-07
4.0884e-07
4.08656e-07
4.08495e-07
4.08329e-07
4.08198e-07
4.08144e-07
4.08281e-07
4.08661e-07
4.09251e-07
4.09981e-07
4.10767e-07
4.11494e-07
4.12138e-07
4.12665e-07
4.13061e-07
4.13365e-07
4.13587e-07
4.13738e-07
4.13881e-07
4.14054e-07
4.14254e-07
4.14472e-07
4.14681e-07
4.14854e-07
4.1495e-07
4.14934e-07
4.14853e-07
4.14675e-07
4.14389e-07
4.14012e-07
4.13541e-07
4.12993e-07
4.12413e-07
4.11846e-07
4.11318e-07
4.10893e-07
4.10597e-07
4.10372e-07
4.10523e-07
4.10964e-07
4.11734e-07
4.12343e-07
4.13312e-07
2.23078e-07
3.44762e-07
3.88596e-07
4.04391e-07
4.08729e-07
4.0994e-07
4.10503e-07
4.11028e-07
4.11642e-07
4.12102e-07
4.12572e-07
4.13033e-07
4.13537e-07
4.13926e-07
4.14113e-07
4.14152e-07
4.14043e-07
4.1387e-07
4.13726e-07
4.13651e-07
4.13798e-07
4.14011e-07
4.14236e-07
4.14449e-07
4.14569e-07
4.14513e-07
4.14318e-07
4.14104e-07
4.13936e-07
4.1384e-07
4.13882e-07
4.14059e-07
4.14252e-07
4.14297e-07
4.14146e-07
4.13936e-07
4.13781e-07
4.13599e-07
4.13279e-07
4.1286e-07
4.12455e-07
4.12109e-07
4.11833e-07
4.11629e-07
4.11495e-07
4.11418e-07
4.11376e-07
4.11387e-07
4.11389e-07
4.11377e-07
4.11341e-07
4.11288e-07
4.11168e-07
4.11047e-07
4.10952e-07
4.1089e-07
4.10865e-07
4.10871e-07
4.10902e-07
4.10966e-07
4.11042e-07
4.11109e-07
4.1116e-07
4.11205e-07
4.11292e-07
4.11414e-07
4.11642e-07
4.1195e-07
4.12325e-07
4.12754e-07
4.13217e-07
4.13666e-07
4.14076e-07
4.14422e-07
4.14722e-07
4.15004e-07
4.15281e-07
4.15578e-07
4.15883e-07
4.16166e-07
4.1637e-07
4.16446e-07
4.16353e-07
4.16085e-07
4.15737e-07
4.15357e-07
4.14979e-07
4.14603e-07
4.14216e-07
4.13842e-07
4.135e-07
4.132e-07
4.1294e-07
4.12705e-07
4.12479e-07
4.1227e-07
4.12114e-07
4.12027e-07
4.11886e-07
4.11722e-07
4.1159e-07
4.11391e-07
4.11411e-07
4.1131e-07
4.11134e-07
4.10887e-07
4.10622e-07
4.10339e-07
4.1004e-07
4.09737e-07
4.09474e-07
4.09283e-07
4.09166e-07
4.09126e-07
4.09104e-07
4.09127e-07
4.09134e-07
4.08997e-07
4.08835e-07
4.08631e-07
4.08476e-07
4.08288e-07
4.08068e-07
4.0784e-07
4.07624e-07
4.07446e-07
4.07338e-07
4.07447e-07
4.07814e-07
4.08415e-07
4.09185e-07
4.10065e-07
4.10926e-07
4.11707e-07
4.12363e-07
4.12857e-07
4.13255e-07
4.13553e-07
4.13765e-07
4.13942e-07
4.14148e-07
4.14374e-07
4.14608e-07
4.14821e-07
4.14972e-07
4.15023e-07
4.14986e-07
4.14876e-07
4.1466e-07
4.14329e-07
4.13909e-07
4.13394e-07
4.12794e-07
4.12149e-07
4.1151e-07
4.10896e-07
4.10377e-07
4.09984e-07
4.09684e-07
4.09744e-07
4.10089e-07
4.10793e-07
4.11396e-07
4.12422e-07
2.21756e-07
3.42505e-07
3.87426e-07
4.04358e-07
4.09236e-07
4.10668e-07
4.11378e-07
4.12052e-07
4.12721e-07
4.13147e-07
4.13589e-07
4.14109e-07
4.14697e-07
4.15177e-07
4.15419e-07
4.15473e-07
4.15327e-07
4.15065e-07
4.14786e-07
4.14512e-07
4.14459e-07
4.14478e-07
4.14545e-07
4.1467e-07
4.1473e-07
4.14589e-07
4.14265e-07
4.13926e-07
4.1367e-07
4.13582e-07
4.13717e-07
4.14019e-07
4.14322e-07
4.14441e-07
4.14294e-07
4.13997e-07
4.13695e-07
4.13484e-07
4.13208e-07
4.12836e-07
4.12433e-07
4.12079e-07
4.11803e-07
4.11609e-07
4.11487e-07
4.11421e-07
4.11374e-07
4.11427e-07
4.11472e-07
4.11478e-07
4.11435e-07
4.1137e-07
4.11247e-07
4.11102e-07
4.10987e-07
4.10912e-07
4.10878e-07
4.10884e-07
4.10954e-07
4.11059e-07
4.11165e-07
4.11248e-07
4.11306e-07
4.1136e-07
4.1146e-07
4.11645e-07
4.11904e-07
4.12277e-07
4.12712e-07
4.13248e-07
4.13821e-07
4.14367e-07
4.14842e-07
4.15237e-07
4.15556e-07
4.15816e-07
4.16032e-07
4.16234e-07
4.16414e-07
4.16568e-07
4.16622e-07
4.16555e-07
4.16334e-07
4.15987e-07
4.15593e-07
4.15171e-07
4.14755e-07
4.14354e-07
4.13944e-07
4.13549e-07
4.13191e-07
4.12884e-07
4.12614e-07
4.1236e-07
4.12123e-07
4.11914e-07
4.11749e-07
4.11638e-07
4.11422e-07
4.11271e-07
4.11157e-07
4.11007e-07
4.10881e-07
4.1084e-07
4.10662e-07
4.10395e-07
4.10085e-07
4.09749e-07
4.09409e-07
4.0908e-07
4.08809e-07
4.08628e-07
4.08538e-07
4.08534e-07
4.0853e-07
4.08516e-07
4.08469e-07
4.08345e-07
4.08164e-07
4.07971e-07
4.07783e-07
4.07556e-07
4.07292e-07
4.07003e-07
4.06737e-07
4.06517e-07
4.06384e-07
4.06533e-07
4.07008e-07
4.07776e-07
4.08754e-07
4.09846e-07
4.10885e-07
4.11822e-07
4.12613e-07
4.13186e-07
4.1365e-07
4.13967e-07
4.14186e-07
4.14324e-07
4.14486e-07
4.14649e-07
4.14807e-07
4.14936e-07
4.1499e-07
4.14976e-07
4.14908e-07
4.1475e-07
4.14488e-07
4.14105e-07
4.13619e-07
4.13026e-07
4.12346e-07
4.11617e-07
4.10899e-07
4.10212e-07
4.09629e-07
4.09172e-07
4.08832e-07
4.08907e-07
4.09334e-07
4.10167e-07
4.10949e-07
4.12162e-07
2.19853e-07
3.3926e-07
3.85372e-07
4.03462e-07
4.08896e-07
4.10579e-07
4.11447e-07
4.12231e-07
4.12885e-07
4.13289e-07
4.1379e-07
4.14392e-07
4.15089e-07
4.15687e-07
4.16042e-07
4.16151e-07
4.16025e-07
4.15759e-07
4.15433e-07
4.15177e-07
4.14934e-07
4.14783e-07
4.14681e-07
4.14665e-07
4.14623e-07
4.14417e-07
4.13958e-07
4.13474e-07
4.13156e-07
4.13128e-07
4.13404e-07
4.1386e-07
4.14282e-07
4.14494e-07
4.14398e-07
4.14083e-07
4.13618e-07
4.13159e-07
4.12891e-07
4.12553e-07
4.12179e-07
4.11843e-07
4.11582e-07
4.11407e-07
4.11309e-07
4.11268e-07
4.1124e-07
4.11306e-07
4.11423e-07
4.11442e-07
4.11375e-07
4.11277e-07
4.11149e-07
4.10967e-07
4.10821e-07
4.10723e-07
4.10676e-07
4.10706e-07
4.10821e-07
4.10966e-07
4.11097e-07
4.11188e-07
4.11242e-07
4.11299e-07
4.11401e-07
4.11575e-07
4.11906e-07
4.12346e-07
4.12874e-07
4.13524e-07
4.1421e-07
4.14867e-07
4.15447e-07
4.15925e-07
4.16297e-07
4.16574e-07
4.16749e-07
4.16888e-07
4.16923e-07
4.16909e-07
4.16818e-07
4.16606e-07
4.16255e-07
4.15842e-07
4.1539e-07
4.14917e-07
4.14455e-07
4.14019e-07
4.13584e-07
4.1317e-07
4.12801e-07
4.12484e-07
4.12198e-07
4.11929e-07
4.11685e-07
4.11469e-07
4.11267e-07
4.11087e-07
4.10848e-07
4.10712e-07
4.1061e-07
4.10478e-07
4.10213e-07
4.10209e-07
4.10047e-07
4.09758e-07
4.09412e-07
4.0901e-07
4.08599e-07
4.08205e-07
4.07893e-07
4.07706e-07
4.07656e-07
4.07704e-07
4.07761e-07
4.07776e-07
4.07714e-07
4.07586e-07
4.07387e-07
4.07178e-07
4.06947e-07
4.0666e-07
4.06334e-07
4.05972e-07
4.05633e-07
4.05343e-07
4.05155e-07
4.05309e-07
4.05846e-07
4.06713e-07
4.07833e-07
4.09093e-07
4.10318e-07
4.11423e-07
4.12365e-07
4.13069e-07
4.13611e-07
4.13962e-07
4.14217e-07
4.14361e-07
4.145e-07
4.14622e-07
4.14738e-07
4.14824e-07
4.14849e-07
4.14827e-07
4.14733e-07
4.14542e-07
4.14237e-07
4.13795e-07
4.13238e-07
4.12564e-07
4.11806e-07
4.10993e-07
4.10189e-07
4.09406e-07
4.08746e-07
4.08215e-07
4.07832e-07
4.07874e-07
4.08301e-07
4.09173e-07
4.10006e-07
4.11221e-07
2.17309e-07
3.34931e-07
3.82319e-07
4.01716e-07
4.07887e-07
4.09855e-07
4.10787e-07
4.11485e-07
4.11937e-07
4.12284e-07
4.13045e-07
4.13848e-07
4.14624e-07
4.15252e-07
4.15774e-07
4.1596e-07
4.15842e-07
4.15619e-07
4.15365e-07
4.1513e-07
4.14892e-07
4.14705e-07
4.14496e-07
4.14283e-07
4.14079e-07
4.13832e-07
4.13317e-07
4.12697e-07
4.12356e-07
4.12438e-07
4.12877e-07
4.13478e-07
4.14046e-07
4.14381e-07
4.14389e-07
4.14141e-07
4.13632e-07
4.13041e-07
4.12447e-07
4.12078e-07
4.1174e-07
4.11439e-07
4.11181e-07
4.11004e-07
4.10918e-07
4.10898e-07
4.10944e-07
4.11051e-07
4.11266e-07
4.11301e-07
4.1121e-07
4.11074e-07
4.10926e-07
4.10709e-07
4.10519e-07
4.10386e-07
4.10316e-07
4.1036e-07
4.10499e-07
4.10667e-07
4.10817e-07
4.10921e-07
4.10982e-07
4.11029e-07
4.11112e-07
4.11299e-07
4.11632e-07
4.12131e-07
4.12768e-07
4.13524e-07
4.14343e-07
4.15141e-07
4.15838e-07
4.16395e-07
4.16815e-07
4.17155e-07
4.17295e-07
4.17338e-07
4.17317e-07
4.17219e-07
4.17007e-07
4.16656e-07
4.1621e-07
4.15722e-07
4.15204e-07
4.14676e-07
4.1416e-07
4.13678e-07
4.1321e-07
4.12774e-07
4.12385e-07
4.12042e-07
4.11733e-07
4.11458e-07
4.11198e-07
4.10954e-07
4.107e-07
4.10426e-07
4.10211e-07
4.10082e-07
4.09988e-07
4.09876e-07
4.09671e-07
4.09476e-07
4.09334e-07
4.09021e-07
4.08639e-07
4.08195e-07
4.07725e-07
4.07251e-07
4.06862e-07
4.06614e-07
4.06542e-07
4.06625e-07
4.06776e-07
4.06881e-07
4.06857e-07
4.06711e-07
4.06499e-07
4.06276e-07
4.05991e-07
4.05629e-07
4.05221e-07
4.0477e-07
4.04333e-07
4.03944e-07
4.03669e-07
4.03783e-07
4.04365e-07
4.05348e-07
4.06664e-07
4.08152e-07
4.09635e-07
4.10976e-07
4.1213e-07
4.13033e-07
4.13655e-07
4.14073e-07
4.14331e-07
4.14472e-07
4.1457e-07
4.1463e-07
4.14665e-07
4.14689e-07
4.14684e-07
4.14627e-07
4.14499e-07
4.1427e-07
4.1392e-07
4.13421e-07
4.12792e-07
4.12036e-07
4.11201e-07
4.1031e-07
4.09432e-07
4.08583e-07
4.07865e-07
4.07269e-07
4.06853e-07
4.0686e-07
4.07303e-07
4.08238e-07
4.0921e-07
4.10605e-07
2.15351e-07
3.31599e-07
3.7987e-07
4.00246e-07
4.0697e-07
4.09107e-07
4.10083e-07
4.10777e-07
4.11269e-07
4.11686e-07
4.12393e-07
4.13279e-07
4.14271e-07
4.15148e-07
4.15705e-07
4.15972e-07
4.15909e-07
4.15664e-07
4.15389e-07
4.15108e-07
4.14777e-07
4.14489e-07
4.14188e-07
4.13839e-07
4.13463e-07
4.13151e-07
4.12684e-07
4.1209e-07
4.11782e-07
4.1197e-07
4.12533e-07
4.13255e-07
4.13914e-07
4.14316e-07
4.14372e-07
4.14165e-07
4.13651e-07
4.12956e-07
4.12242e-07
4.11682e-07
4.1135e-07
4.11075e-07
4.10821e-07
4.10645e-07
4.10563e-07
4.1056e-07
4.10701e-07
4.10872e-07
4.11129e-07
4.11175e-07
4.11062e-07
4.10895e-07
4.10721e-07
4.10485e-07
4.1026e-07
4.10095e-07
4.10005e-07
4.1006e-07
4.10222e-07
4.10418e-07
4.10596e-07
4.10725e-07
4.10803e-07
4.10856e-07
4.10944e-07
4.11137e-07
4.11499e-07
4.12051e-07
4.12754e-07
4.13579e-07
4.14494e-07
4.15426e-07
4.16247e-07
4.16868e-07
4.17279e-07
4.17544e-07
4.17689e-07
4.17733e-07
4.17641e-07
4.17438e-07
4.1711e-07
4.16662e-07
4.16158e-07
4.15621e-07
4.15058e-07
4.1449e-07
4.1394e-07
4.13428e-07
4.12939e-07
4.12489e-07
4.12085e-07
4.11721e-07
4.11396e-07
4.11116e-07
4.10837e-07
4.10581e-07
4.10304e-07
4.0994e-07
4.09741e-07
4.09615e-07
4.09521e-07
4.09418e-07
4.09245e-07
4.0883e-07
4.08797e-07
4.08469e-07
4.08058e-07
4.07577e-07
4.07066e-07
4.06541e-07
4.06085e-07
4.05798e-07
4.05728e-07
4.05827e-07
4.06028e-07
4.06211e-07
4.06255e-07
4.06118e-07
4.05898e-07
4.05656e-07
4.05328e-07
4.04906e-07
4.04424e-07
4.03901e-07
4.03375e-07
4.02888e-07
4.02516e-07
4.0258e-07
4.03184e-07
4.0425e-07
4.05709e-07
4.07374e-07
4.0906e-07
4.10598e-07
4.1191e-07
4.12907e-07
4.13616e-07
4.14083e-07
4.14378e-07
4.14517e-07
4.14613e-07
4.14665e-07
4.14676e-07
4.14671e-07
4.14637e-07
4.14548e-07
4.14382e-07
4.14113e-07
4.13722e-07
4.13177e-07
4.12492e-07
4.11675e-07
4.10786e-07