/*--------------------------------*- C++ -*----------------------------------*\
| =========                 |                                                 |
| \\      /  F ield         | OpenFOAM: The Open Source CFD Toolbox           |
|  \\    /   O peration     | Version:  v1912                                 |
|   \\  /    A nd           | Website:  www.openfoam.com                      |
|    \\/     M anipulation  |                                                 |
\*---------------------------------------------------------------------------*/
FoamFile
{
    version     2.0;
    format      ascii;
    class       volScalarField;
    location    "60";
    object      p_rgh;
}
// * * * * * * * * * * * * * * * * * * * * * * * * * * * * * * * * * * * * * //

dimensions      [1 -1 -2 0 0 0 0];


internalField   nonuniform List<scalar> 
14268
(
-9097.32
-8737.16
-8299.76
-7783.54
-7187.51
-6511.43
-5755.7
-4921.62
-4012.32
-3032.58
-1988.54
-888.047
259.52
1440.61
2689.73
3920.89
5137.46
6328.62
7476.16
8561.93
9568.02
10477.2
11274.7
11946.6
12477.9
12856.5
13072.9
13119
12982.6
12682.4
12210.2
11563.8
10750.7
9781.68
8668.95
7432.01
6095.66
4685.24
3228.2
1749.54
276.896
-1158.29
-2534.38
-3833.08
-5038.54
-6139.85
-7129.92
-8004.25
-8762.33
-9406.82
-9942.59
-10376
-10714.6
-10966.1
-11138.6
-11240.1
-11277.7
-11256
-11187.7
-11076.1
-10926.3
-10743.1
-10530.4
-10292
-10030.8
-9749.57
-9450.45
-9135.37
-8805.89
-8463.26
-8108.51
-7742.33
-7365.15
-6977.18
-6578.4
-6168.39
-5746.44
-5311.69
-4862.81
-4398.23
-3915.84
-3413.21
-2887.38
-2334.96
-1752.13
-1134.53
-477.407
224.193
974.632
1778.65
2650.36
3587.29
4589.98
5662.15
6801.91
8003
9255.88
10542.7
11842.7
13127
14362.1
15510.8
16537.4
17405.6
18073.4
18500.4
18644.5
18440.7
17951.7
17118.4
15911.7
14346
12453.6
10327
8103.08
5908.22
3856.16
2033.8
492.675
-755.294
-1721.46
-2431.56
-2921.51
-3227.78
-3385.5
-3423.98
-3375.65
-3258.02
-3087.04
-2875.78
-2635.36
-2373.4
-2096.63
-1809.36
-9107.17
-8745.66
-8306.85
-7789.14
-7191.54
-6513.8
-5756.3
-4920.32
-4009.02
-3027.18
-1980.91
-878.115
271.386
1449.36
2713.79
3941.49
5159.95
6353.42
7503.1
8590.72
9598.32
10508.5
11306.7
11978.6
12509.2
12886.5
13100.8
13144.7
13004.6
12700.5
12223.7
11572.2
10753.6
9778.78
8660.14
7417.43
6075.69
4660.46
3199.31
1717.45
242.822
-1193.39
-2569.56
-3867.5
-5071.48
-6170.76
-7158.39
-8030.01
-8785.26
-9426.9
-9959.89
-10390.7
-10726.8
-10976.2
-11147.1
-11246.5
-11282.4
-11259.2
-11189.9
-11077.2
-10926.6
-10742.6
-10529.4
-10290.4
-10028.9
-9747.26
-9447.87
-9132.64
-8802.96
-8460.15
-8105.26
-7738.97
-7361.71
-6973.68
-6574.85
-6164.8
-5742.82
-5307.95
-4859.05
-4394.44
-3912.04
-3409.37
-2883.5
-2331.03
-1748.13
-1130.44
-473.203
228.538
979.132
1783.39
2655.36
3592.57
4595.59
5668.12
6808.27
8009.75
9263.02
10550.1
11850.5
13134.9
14370
15518.5
16544.8
17412.5
18079.5
18506.4
18648.3
18442.6
17951.8
17116.3
15907.3
14339.4
12445.1
10317.3
8092.97
5898.52
3847.48
2026.38
486.693
-759.888
-1724.82
-2433.88
-2923.06
-3228.67
-3385.95
-3424.12
-3375.6
-3257.85
-3086.8
-2875.51
-2635.09
-2373.15
-2096.42
-1809.19
-9134.62
-8772.17
-8332.31
-7813.4
-7214.42
-6535.09
-5775.71
-4937.56
-4023.75
-3039.01
-1989.43
-882.909
270.731
1455.2
2720.9
3955.54
5179.48
6378.57
7533.83
8626.84
9639.43
10554.1
11356
12030.7
12563
12940.6
13153.9
13194.3
13050.4
12741
12257.8
11598.6
10771.2
9786.97
8658.52
7406.07
6055.07
4631.43
3162.95
1675.05
196.345
-1242.44
-2619.68
-3917.32
-5119.79
-6216.63
-7201.13
-8069.12
-8820.47
-9458.13
-9987.2
-10414.3
-10746.9
-10993
-11160.4
-11257.7
-11291.1
-11266.2
-11195.1
-11081
-10929.2
-10744.2
-10530
-10290.3
-10028.1
-9746.01
-9446.19
-9130.61
-8800.66
-8457.63
-8102.56
-7736.14
-7358.79
-6970.7
-6571.85
-6161.79
-5739.82
-5304.97
-4856.11
-4391.57
-3909.23
-3406.63
-2880.84
-2328.44
-1745.6
-1127.96
-470.813
230.917
981.515
1785.88
2657.99
3595.4
4598.71
5671.62
6812.26
8014.32
9268.28
10556.1
11857.2
13142.4
14378.1
15527.2
16553.8
17421.5
18088.2
18512.7
18654.5
18447.3
17954.8
17117
15905.3
14334.4
12437.3
10307.3
8081.81
5887.13
3836.85
2017.09
479.101
-765.758
-1729.13
-2436.89
-2924.98
-3229.89
-3386.61
-3424.41
-3375.64
-3257.73
-3086.59
-2875.27
-2634.84
-2372.91
-2096.21
-1809.01
-9179.66
-8816.7
-8376.16
-7856.36
-7256.2
-6575.36
-5814.04
-4973.43
-4056.6
-3068.18
-2014.22
-902.524
257.212
1450.21
2718.75
3963.34
5196.1
6404.15
7568.49
8670.42
9691.54
10614
11422.7
12103.1
12639.3
13019.1
13232.4
13270.7
13122.1
12806.2
12314.5
11644.8
10805.4
9807.82
8665.48
7399.2
6035.03
4599.33
3120.21
1623.25
138.262
-1304.75
-2684.2
-3982.1
-5183.17
-6277.26
-7257.98
-8121.48
-8867.92
-9500.49
-10024.5
-10446.8
-10774.8
-11016.9
-11181.1
-11274.6
-11304.5
-11277.1
-11203.8
-11087.8
-10934.3
-10747.9
-10532.6
-10291.9
-10028.9
-9746.09
-9445.72
-9129.63
-8799.31
-8456
-8100.71
-7734.12
-7356.66
-6968.5
-6569.61
-6159.55
-5737.61
-5302.91
-4854.15
-4389.73
-3907.54
-3405.11
-2879.51
-2327.3
-1744.65
-1127.21
-470.236
231.337
981.792
1786.12
2658.26
3595.79
4599.35
5672.67
6813.9
8016.72
9271.68
10560.6
11863
13149.5
14386.6
15536.8
16564.5
17433
18100.2
18526.5
18666.1
18457
17962.3
17121.7
15906.3
14331.2
12430.1
10296.8
8069.23
5873.93
3824.19
2006.03
469.986
-772.873
-1734.39
-2440.6
-2927.54
-3231.46
-3387.5
-3424.85
-3375.78
-3257.67
-3086.42
-2875.04
-2634.59
-2372.67
-2096
-1808.84
-9242.52
-8879.47
-8438.61
-7918.21
-7317.08
-6634.82
-5871.49
-5028.15
-4107.81
-3114.94
-2055.5
-937.227
230.303
1433.08
2708.36
3964.99
5209.71
6430.08
7607.01
8721.47
9754.7
10688.4
11507.2
12196
12738.6
13122.2
13336.7
13373.3
13219.6
12896.4
12394.4
11711.6
10856.9
9842.37
8682.09
7397.75
6016.23
4564.58
3071.3
1562.04
68.4482
-1380.45
-2763.18
-4061.88
-5261.56
-6352.53
-7328.82
-8186.92
-8927.41
-9553.79
-10071.6
-10487.9
-10810.4
-11047.3
-11206.6
-11296.3
-11321.8
-11291.6
-11215.6
-11097.3
-10941.8
-10753.7
-10536.9
-10295
-10031
-9747.41
-9446.36
-9129.72
-8798.94
-8455.26
-8099.69
-7732.91
-7355.32
-6967.09
-6568.18
-6158.16
-5736.29
-5301.69
-4853.09
-4388.87
-3906.92
-3404.76
-2879.45
-2327.55
-1745.24
-1128.13
-471.49
229.775
979.931
1784.09
2656.14
3593.69
4597.47
5671.23
6813.15
8016.92
9273.18
10563.6
11867.8
13156.2
14395.3
15547.4
16576.8
17446.7
18114.6
18539.4
18679.5
18468.7
17971.5
17127.3
15907.5
14327.6
12421.7
10284.5
8054.6
5858.65
3809.63
1993.21
459.38
-781.183
-1740.57
-2444.98
-2930.44
-3233.35
-3388.61
-3425.43
-3376.01
-3257.68
-3086.3
-2874.84
-2634.36
-2372.45
-2095.79
-1808.68
-9323.2
-8960.5
-8519.73
-7999.07
-7397.21
-6713.65
-5948.26
-5101.95
-4177.62
-3179.55
-2113.57
-987.355
189.523
1403.44
2689.61
3960.41
5220.13
6456.22
7649.3
8779.95
9828.92
10777.4
11609.4
12309.5
12860.8
13250.1
13466.9
13502
13342.8
13011
12496.9
11798.5
10925.2
9889.92
8707.6
7400.96
5997.97
4526.55
3015.69
1490.79
-13.6326
-1470.01
-2857.06
-4157.03
-5355.3
-6442.74
-7413.86
-8265.63
-8999.1
-9618.15
-10128.7
-10537.9
-10853.8
-11084.6
-11238.6
-11323.5
-11343.4
-11309.8
-11230.7
-11109.5
-10951.6
-10761.5
-10543
-10299.7
-10034.5
-9749.94
-9448.08
-9130.78
-8799.47
-8455.36
-8099.47
-7732.45
-7354.73
-6966.42
-6567.5
-6157.53
-5735.77
-5301.32
-4852.94
-4388.99
-3907.37
-3405.57
-2880.66
-2329.2
-1747.35
-1130.73
-474.561
226.248
975.95
1779.82
2651.65
3589.15
4593.11
5667.32
6810.04
8014.95
9272.82
10565.1
11871.6
13162.6
14404.3
15559
16590.9
17462.8
18132.3
18558.9
18697.7
18484.9
17985
17136.9
15912
14326.1
12414
10271.9
8038.73
5841.64
3793.2
1978.63
447.248
-790.727
-1747.68
-2450.04
-2933.92
-3235.58
-3389.94
-3426.17
-3376.34
-3257.75
-3086.22
-2874.68
-2634.16
-2372.24
-2095.6
-1808.51
-9421.92
-9060.02
-8619.74
-8099.17
-7496.82
-6812.12
-6044.66
-5195.15
-4266.41
-3262.38
-2188.82
-1053.32
134.384
1360.91
2662.15
3949.31
5227.09
6482.31
7695.2
8845.78
9914.2
10881
11729.6
12443.9
13006.4
13403.3
13623.4
13657.3
13491.9
13150.4
12622.1
11905.3
11010
9950.13
8741.54
7408.28
5979.62
4484.6
2952.82
1408.75
-108.614
-1573.97
-2966.3
-4267.92
-5464.69
-6548.09
-7513.25
-8357.69
-9083.01
-9693.55
-10195.6
-10596.6
-10904.7
-11128.5
-11276.2
-11355.9
-11368.9
-11331.8
-11248.9
-11124.5
-10963.8
-10771.4
-10550.9
-10305.9
-10039.4
-9753.67
-9450.88
-9132.83
-8800.9
-8456.3
-8100.03
-7732.75
-7354.87
-6966.49
-6567.57
-6157.67
-5736.05
-5301.8
-4853.69
-4390.09
-3908.88
-3407.55
-2883.16
-2332.26
-1751.01
-1135.01
-479.471
220.729
969.819
1773.25
2644.76
3582.1
4586.2
5660.9
6804.52
8010.75
9270.54
10565.1
11874.4
13168.5
14413.5
15571.6
16606.5
17481.2
18152.6
18580.3
18719.1
18504.4
18001.7
17149.3
15918.4
14325.6
12406.5
10258.4
8021.45
5822.81
3774.85
1962.27
433.587
-801.504
-1755.74
-2455.79
-2937.86
-3238.14
-3391.5
-3427.05
-3376.76
-3257.87
-3086.16
-2874.51
-2633.95
-2372.02
-2095.4
-1808.35
-9538.73
-9178.11
-8738.77
-8218.67
-7616.14
-6930.49
-6161
-5308.13
-4374.57
-3363.91
-2281.72
-1135.63
64.35
1304.97
2625.49
3931.22
5230.13
6508.01
7744.43
8918.75
10010.4
10999.2
11867.9
12599.5
13175.7
13581.9
13806.6
13839.6
13667.5
13315.1
12770.5
12032.4
11111.6
10023
8783.75
7419.37
5960.72
4438.19
2882.3
1315.06
-217.12
-1692.89
-3091.39
-4394.97
-5590.06
-6668.84
-7627.17
-8463.21
-9179.21
-9780.02
-10272.3
-10664
-10963.4
-11179.1
-11319.6
-11393.7
-11398.1
-11357.4
-11270.3
-11142.2
-10978.4
-10783.2
-10560.5
-10313.7
-10045.6
-9758.64
-9454.8
-9135.9
-8803.29
-8458.14
-8101.45
-7733.88
-7355.82
-6967.36
-6568.45
-6158.64
-5737.18
-5303.17
-4855.37
-4392.19
-3911.46
-3410.69
-2886.93
-2336.72
-1756.19
-1140.96
-486.202
213.242
961.562
1764.43
2635.49
3572.58
4576.79
5652
6796.61
8004.36
9266.37
10563.6
11876.3
13174.1
14423
15585.1
16623.9
17501.9
18176
18605.2
18744.1
18527.3
18021.6
17164.4
15926.9
14326.2
12399.1
10244.2
8002.71
5802.18
3754.59
1944.12
418.39
-813.516
-1764.73
-2462.22
-2942.22
-3241.04
-3393.27
-3428.08
-3377.27
-3258.06
-3086.14
-2874.38
-2633.76
-2371.82
-2095.21
-1808.18
-9673.82
-9314.98
-8877.07
-8357.86
-7755.49
-7069.14
-6297.73
-5441.36
-4502.66
-3484.71
-2392.87
-1234.85
-21.2012
1234.89
2579.1
3905.47
5228.68
6532.84
7796.61
8998.63
10117.5
11132.1
12024.3
12776.3
13368.8
13786.4
14016.7
14049.1
13869.7
13505.1
12942.2
12179.8
11229.8
10108.3
8833.81
7433.68
5940.57
4386.57
2803.56
1208.69
-339.899
-1827.46
-3232.93
-4538.68
-5731.8
-6805.29
-7755.83
-8582.32
-9287.76
-9877.57
-10358.9
-10740
-11029.5
-11236.3
-11368.6
-11435.3
-11432.5
-11386.7
-11294.7
-11162.6
-10995.2
-10797.1
-10571.9
-10323
-10053.2
-9764.78
-9459.79
-9139.94
-8806.57
-8460.81
-8103.65
-7735.77
-7357.52
-6968.98
-6570.09
-6160.39
-5739.12
-5305.39
-4857.97
-4395.27
-3915.12
-3415.01
-2891.98
-2342.57
-1762.92
-1148.61
-494.781
203.756
951.136
1753.31
2623.8
3560.54
4564.82
5640.55
6786.26
7995.71
9260.25
10560.5
11877.1
13179.2
14432.8
15599.6
16642.9
17525
18202.3
18633.8
18772.8
18554
18044.9
17182.5
15937.5
14328
12391.8
10229.2
7982.47
5779.67
3732.38
1924.19
401.663
-826.757
-1774.65
-2469.33
-2947.25
-3244.27
-3395.26
-3429.25
-3377.89
-3258.31
-3086.17
-2874.27
-2633.59
-2371.62
-2095.02
-1808.02
-9827.42
-9470.9
-9034.91
-8517.04
-7915.2
-7228.46
-6455.29
-5595.35
-4651.22
-3625.4
-2522.9
-1351.57
-122.902
1149.9
2522.33
3871.19
5222.03
6556.22
7851.25
9085.04
10235.2
11279.5
12198.9
12974.6
13586.1
14017.1
14254.7
14286.8
14099.2
13721.3
13137.6
12347.7
11364.6
10205.8
8891.39
7450.66
5918.44
4328.91
2716.5
1087.98
-477.698
-1978.4
-3391.57
-4699.61
-5890.35
-6957.75
-7899.43
-8715.15
-9408.74
-9986.23
-10455.3
-10824.6
-11103.2
-11300.1
-11423.3
-11480.5
-11472.2
-11419.6
-11322.3
-11185.5
-11014.3
-10812.9
-10584.9
-10333.7
-10062
-9772.03
-9465.75
-9144.84
-8810.59
-8464.14
-8106.47
-7738.23
-7359.79
-6971.18
-6572.32
-6162.77
-5741.77
-5308.39
-4861.43
-4399.3
-3919.84
-3420.5
-2898.32
-2349.84
-1771.18
-1157.93
-505.187
192.295
938.564
1739.91
2609.72
3546.01
4550.3
5626.58
6773.48
7984.82
9252.2
10555.8
11876.9
13183.9
14442.8
15615.1
16663.6
17550.4
18231.4
18665.3
18804.9
18584
18071.4
17203.1
15950
14330.9
12384.7
10213.4
7960.77
5755.33
3708.25
1902.48
383.414
-841.217
-1785.49
-2477.11
-2952.34
-3247.81
-3397.46
-3430.56
-3378.59
-3258.62
-3086.24
-2874.19
-2633.44
-2371.44
-2094.84
-1807.87
-9999.44
-9645.86
-9212.38
-8696.39
-8095.55
-7408.82
-6634.18
-5770.66
-4820.94
-3786.79
-2672.6
-1486.45
-241.474
1049.41
2454
3827.21
5209.34
6577.49
7907.91
9177.64
10363.2
11441.3
12391.8
13194.5
13827.9
14274.4
14520
14552.3
14356.1
13963.4
13356.7
12536.1
11516
10315.3
8955.95
7469.6
5893.45
4264.04
2621.38
950.609
-631.237
-2146.55
-3568.07
-4878.36
-6066.2
-7126.59
-8058.24
-8861.87
-9542.22
-10106
-10561.5
-10917.8
-11184.3
-11370.4
-11483.7
-11530.3
-11515.6
-11456
-11352.8
-11211.1
-11035.6
-10830.6
-10599.6
-10345.9
-10072.1
-9780.44
-9472.74
-9150.66
-8815.48
-8468.27
-8110.02
-7741.4
-7362.74
-6974.06
-6575.25
-6165.87
-5745.15
-5312.16
-4865.71
-4404.25
-3925.56
-3427.1
-2905.9
-2358.47
-1780.94
-1168.91
-517.406
178.866
923.846
1724.24
2593.25
3528.97
4533.24
5610.07
6758.26
7971.67
9242.19
10549.6
11875.7
13188.1
14453.1
15631.5
16686
17578.1
18263.5
18700.6
18840.9
18617.8
18101.5
17227.1
15965.2
14335.4
12377.9
10196.8
7937.5
5729.05
3682.11
1878.95
363.646
-856.879
-1797.25
-2485.56
-2958.42
-3251.71
-3399.9
-3432.03
-3379.4
-3258.99
-3086.35
-2874.14
-2633.3
-2371.26
-2094.66
-1807.71
-10190.5
-9840.44
-9410.05
-8896.47
-8297.11
-7610.82
-6835.06
-5968.02
-5012.6
-3969.77
-2842.89
-1640.15
-377.302
933.978
2371.19
3771.94
5189.52
6595.71
7965.69
9275.72
10501.2
11617.4
12602.9
13436.4
14094.7
14559.1
14814.7
14848.4
14642.3
14233.5
13601.1
12746.3
11684.5
10436.9
9027.34
7489.92
5864.67
4190.29
2504.97
807.463
-801.006
-2332.84
-3763.24
-5075.63
-6259.88
-7312.19
-8232.49
-9022.61
-9688.27
-10237
-10677.6
-11019.5
-11272.8
-11447.1
-11550.2
-11584.4
-11562.7
-11495.8
-11386.3
-11239.2
-11059.1
-10850.2
-10616
-10359.5
-10083.5
-9790.04
-9480.83
-9157.51
-8821.32
-8473.3
-8114.43
-7745.4
-7366.52
-6977.76
-6579.01
-6169.82
-5749.39
-5316.8
-4870.91
-4410.16
-3932.34
-3434.85
-2914.73
-2368.49
-1792.24
-1181.57
-531.472
163.44
906.933
1706.23
2574.32
3509.36
4513.56
5590.96
6740.53
7956.2
9230.18
10541.8
11873.4
13191.9
14463.5
15648.9
16710.1
17608.2
18298.5
18739.4
18880.6
18655.3
18135.1
17253.9
15982.1
14340.3
12370.4
10178.8
7912.39
5700.75
3653.98
1853.66
342.367
-873.763
-1809.94
-2494.7
-2964.31
-3255.94
-3402.54
-3433.64
-3380.29
-3259.43
-3086.5
-2874.11
-2633.18
-2371.1
-2094.48
-1807.56
-10400.1
-10054.3
-9627.68
-9117.14
-8519.9
-7834.62
-7058.3
-6187.96
-5226.88
-4175.2
-3034.8
-1814.42
-530.091
816.33
2258.92
3703.78
5161.55
6610.05
8023.93
9378.64
10648.6
11807.3
12832.1
13700
14386.4
14871.2
15138.2
15171.2
14955.1
14529.2
13868.6
12976
11868.4
10569
9103.93
7510.16
5830.76
4106.64
2374.93
648.533
-988.518
-2538.31
-3977.97
-5292.13
-6471.97
-7515
-8422.51
-9197.6
-9847.06
-10379.2
-10803.4
-11129.7
-11368.7
-11530.4
-11622.9
-11642.4
-11613.8
-11539.1
-11422.8
-11269.8
-11084.7
-10871.7
-10634
-10374.7
-10096.3
-9800.86
-9490.04
-9165.39
-8828.12
-8479.23
-8119.7
-7750.22
-7371.09
-6982.25
-6583.55
-6174.54
-5754.43
-5322.31
-4877.04
-4417.08
-3940.21
-3443.79
-2924.86
-2379.92
-1805.08
-1195.93
-547.385
146.019
887.825
1685.92
2552.97
3487.18
4491.21
5569.14
6720.12
7938.19
9215.91
10532.2
11870
13195.2
14474.2
15667.2
16735.7
17640.6
18336.4
18780.8
18923.6
18695.8
18171.3
17282.9
16000.7
14346.4
12363.4
10160.5
7886.1
5670.74
3623.94
1826.57
319.524
-891.905
-1823.58
-2504.51
-2971.15
-3260.49
-3405.4
-3435.39
-3381.27
-3259.91
-3086.67
-2874.11
-2633.07
-2370.94
-2094.32
-1807.41
-10629.2
-10288.4
-9866.37
-9359.52
-8765.06
-8081.44
-7305.27
-6431.88
-5465.17
-4404.72
-3249.97
-2010.93
-703.424
674.142
2136.9
3623.1
5124.48
6619.57
8081.83
9485.96
10805.2
12011.2
13079.7
13986.1
14703.8
15211.3
15490.3
15525.9
15299.4
14854.7
14163.5
13229.7
12071.7
10714.6
9187.67
7531.04
5791.38
4012.33
2230.81
471.488
-1195.58
-2764.38
-4213.49
-5528.91
-6703.33
-7735.67
-8628.79
-9387.16
-10018.8
-10532.7
-10939.1
-11248.4
-11471.8
-11620.1
-11701.8
-11704.3
-11668.7
-11585.7
-11462.1
-11302.9
-11112.5
-10895
-10653.6
-10391.2
-10110.3
-9812.81
-9500.3
-9174.23
-8835.81
-8486
-8125.77
-7755.83
-7376.45
-6987.55
-6588.92
-6180.13
-5760.39
-5328.76
-4884.15
-4425.05
-3949.21
-3453.95
-2936.31
-2392.77
-1819.45
-1211.93
-565.092
126.661
866.589
1663.3
2529.25
3462.5
4466.35
5544.84
6697.35
7918.01
9199.7
10520.8
11865.1
13197.6
14484.7
15686.1
16763
17675.3
18377.2
18826.8
18970.7
18740.7
18211.9
17316.1
16023
14355
12357.2
10141.1
7857.9
5638.53
3591.83
1797.69
295.17
-911.254
-1838.13
-2515
-2978.06
-3265.36
-3408.47
-3437.29
-3382.36
-3260.47
-3086.89
-2874.2
-2632.96
-2370.79
-2094.15
-1807.26
-10820.5
-10484.7
-10067.2
-9564.19
-8972.98
-8291.69
-7516.82
-6641.91
-5671.35
-4604.8
-3438.71
-2184.96
-858.292
543.39
2028.59
3548.24
5087.08
6623.05
8128.15
9576.49
10940.2
12189.3
13298
14240.2
14987.7
15517.6
15811.1
15852
15613.5
15152.8
14432.9
13460.5
12254.8
10843.5
9258.81
7543.57
5747.72
3917.33
2089.86
297.614
-1397.51
-2984.37
-4442.69
-5759.47
-6928.88
-7951.14
-8830.5
-9572.9
-10187.5
-10684
-11073.2
-11366.1
-11574.5
-11709.4
-11777.8
-11768.8
-11724.4
-11633.1
-11502.2
-11336.8
-11141.2
-10919.1
-10674
-10408.4
-10124.9
-9825.24
-9510.95
-9183.4
-8843.78
-8493
-8132.06
-7761.67
-7382.1
-6993.21
-6594.75
-6186.3
-5767.04
-5336.05
-4892.29
-4434.29
-3959.79
-3466.05
-2950.14
-2408.5
-1837.26
-1232.03
-587.61
101.728
839.007
1633.5
2497.61
3429.26
4432.52
5511.54
6665.97
7890.17
9177.51
10505.7
11859.6
13203.3
14503.3
15718.5
16809.4
17735
18448.3
18907.4
19055.1
18822.2
18286.7
17377.2
16062.4
14365.8
12335.9
10090.6
7786.8
5556.58
3508.07
1719.66
226.624
-968.238
-1883.13
-2549.15
-3003.86
-3283
-3420
-3444.52
-3386.25
-3261.88
-3086.24
-2872.3
-2629.04
-2365.6
-2087.47
-1798.7
-10960.8
-10629.5
-10216.2
-9716.89
-9129.09
-8450.59
-7677.89
-6802.95
-5830.47
-4760.57
-3586.75
-2323.03
-982.084
437.181
1940.68
3485.72
5053.79
6622.26
8161.96
9646.41
11047
12332.2
13475.3
14448.5
15222.2
15772
16077.2
16117.8
15874.9
15403.9
14661.9
13658.2
12413.2
10956.2
9321.75
7554.97
5708.62
3831.49
1962.02
138.352
-1583.26
-3187.39
-4655.07
-5973.95
-7139.6
-8153.28
-9020.55
-9748.73
-10348
-10828.8
-11202.2
-11479.9
-11674.7
-11797.6
-11850.4
-11834.9
-11780.4
-11681.1
-11543.3
-11371.9
-11171.2
-10944.8
-10695.9
-10427.3
-10141.1
-9839.32
-9523.22
-9194.13
-8853.27
-8501.51
-8139.85
-7769
-7389.27
-7000.47
-6602.27
-6194.29
-5775.72
-5345.64
-4903.03
-4446.56
-3973.92
-3482.3
-2968.8
-2429.87
-1861.66
-1259.82
-619.033
66.5683
799.85
1590.61
2451.35
3380
4381.4
5460.03
6616.03
7844.25
9138.94
10477.1
11845.3
13205.6
14525.5
15762.5
16876
17824
18557.9
19026.7
19191.8
18958.4
18415.8
17487.7
16140
14399.4
12318.8
10023.8
7679.33
5424.16
3366.19
1583.73
104.457
-1071.91
-1966.71
-2614.17
-3053.15
-3319.8
-3445.43
-3462.44
-3398.22
-3269.45
-3090.84
-2874.26
-2629.71
-2364.9
-2085.89
-1796.51
-11107
-10780.6
-10371.9
-9876.56
-9292.48
-8616.99
-7847.04
-6972.46
-5998.19
-4925.42
-3743.74
-2470.49
-1114.48
323.022
1846.18
3417.52
5016.03
6618.54
8194.55
9717.01
11156.5
12479.7
13659.1
14665.5
15467.8
16040.1
16360.9
16411.3
16159.2
15675.7
14909.8
13872.6
12585.1
11077.8
9388.25
7564.84
5663.81
3736.91
1823.58
-33.6023
-1782.91
-3404.44
-4881.47
-6201.97
-7363.18
-8367.32
-9221.33
-9934.2
-10517.2
-10981.2
-11337.9
-11599.4
-11779.6
-11890.7
-11926.8
-11904.1
-11839.6
-11732
-11586.9
-11409.3
-11203.2
-10972.3
-10719.6
-10447.7
-10158.9
-9854.94
-9537
-9206.35
-8864.24
-8511.46
-8149
-7777.61
-7397.62
-7008.84
-6610.87
-6203.42
-5785.59
-5356.48
-4915.15
-4460.34
-3989.78
-3500.51
-2989.66
-2453.73
-1888.85
-1290.78
-654.11
27.209
756.002
1542.42
2399.14
3324.25
4323.22
5401.06
6558.4
7790.71
9093.11
10441.9
11826
13204.9
14547.3
15809.2
16949
17923.3
18681.7
19173.3
19352.7
19120.6
18570.9
17622.8
16237.9
14444.2
12299.8
9942.58
7549.28
5265.36
3198.41
1420.59
-41.1006
-1195.92
-2067.2
-2692.92
-3113.38
-3364.88
-3477.16
-3485.68
-3414.57
-3280.72
-3098.36
-2879.06
-2632.21
-2365.78
-2085.48
-1795.21
-11259.1
-10938.2
-10534.7
-10043.7
-9463.75
-8791.5
-8024.68
-7150.49
-6174.48
-5099.53
-3909.98
-2627.92
-1256.1
200.378
1744.17
3342.83
4973.01
6611.24
8225.58
9788.23
11269
12632.8
13850.6
14892.1
15724.2
16319.7
16655.1
16708.8
16451.2
15956.4
15164.9
14091.5
12758.4
11198.1
9452.04
7570.66
5613.21
3634.34
1675.08
-218.22
-1996.99
-3636.18
-5122.71
-6444.38
-7600.52
-8594.2
-9433.75
-10130.1
-10695.7
-11142
-11480.9
-11725.4
-11890.8
-11991.2
-12006.4
-11976
-11901.6
-11785
-11632.3
-11448.2
-11236.5
-11000.8
-10744.1
-10468.9
-10177.4
-9871.17
-9551.44
-9219.25
-8875.88
-8522.55
-8159.29
-7787.41
-7407.19
-7018.51
-6620.84
-6213.87
-5796.75
-5368.59
-4928.52
-4475.49
-4007.2
-3520.51
-3012.57
-2479.92
-1918.71
-1324.83
-692.746
-16.261
707.554
1489.03
2341.07
3262.07
4258.04
5334.66
6493.07
7729.51
9040.04
10400.5
11802.1
13201.5
14569
15858.9
17028.4
18032.6
18819.4
19336.1
19532.1
19302.2
18744
17773.7
16346.4
14490.9
12273
9844.89
7396.36
5080.23
3002.96
1231.29
-210.74
-1340.75
-2184.73
-2785.34
-3184.58
-3419.05
-3515.27
-3513.99
-3434.67
-3294.73
-3107.93
-2885.25
-2635.98
-2367.58
-2085.73
-1794.44
-11416.4
-11101.4
-10703.3
-10218.3
-9643.2
-8975.05
-8212.15
-7338.53
-6360.21
-5282.95
-4085.26
-2794.09
-1407.9
69.3601
1634.6
3261.35
4924.24
6599.48
8253.75
9858.59
11383.1
12790.2
14049.5
15128.7
15992.9
16613.3
16965.2
17024.8
16759.5
16251.3
15432.7
14321.6
12941.8
11327.8
9522.61
7578.54
5558.64
3522.36
1513.98
-418.082
-2227.93
-3883.68
-5378.96
-6700.41
-7850.15
-8831.96
-9655.7
-10334.5
-10881.9
-11309.4
-11629.5
-11856.1
-12004.4
-12092.8
-12083.6
-12050.8
-11966.3
-11840.4
-11679.7
-11488.8
-11271.3
-11030.6
-10769.8
-10491
-10196.6
-9888.06
-9566.41
-9232.56
-8887.79
-8533.42
-8169.43
-7797.17
-7416.94
-7028.6
-6632.03
-6225.7
-5809.41
-5382.25
-4943.55
-4492.37
-4026.43
-3542.4
-3037.6
-2508.54
-1951.34
-1362.09
-735.093
-64.0143
654.309
1430.24
2276.92
3193.2
4185.57
5260.5
6419.72
7660.44
8979.44
10352.4
11772.9
13194.8
14590.3
15911.2
17114
18152
18971.1
19516.1
19733.3
19508.6
18940
17947
16472.6
14546.8
12244.5
9734.74
7222.06
4868.4
2778.91
1015.21
-404.903
-1506.55
-2319.27
-2891.33
-3266.57
-3482.31
-3559.33
-3547.36
-3458.72
-3311.78
-3120.1
-2893.77
-2641.52
-2370.82
-2087.21
-1794.6
-11578.6
-11270.4
-10878.2
-10397.9
-9827.88
-9166.65
-8409.56
-7537.99
-6557.25
-5478.81
-4272.44
-2968.7
-1569.48
-71.0393
1517.2
3173.05
4869.97
6583.92
8279.99
9928.99
11499.1
12951.4
14254.3
15373.4
16272
16919.5
17289.7
17359.5
17085.9
16564.7
15718.6
14568.4
13138.9
11464.6
9591.25
7578.08
5492.12
3397.6
1341.06
-632.747
-2472.09
-4146.37
-5651.64
-6973.03
-8116.62
-9086.41
-9893.5
-10553.5
-11081
-11488
-11787.3
-11995.4
-12127.7
-12199.8
-12186.8
-12131.1
-12033.5
-11898.1
-11729.3
-11531.5
-11307.9
-11062.1
-10797
-10514.6
-10217.2
-9906.24
-9582.61
-9246.99
-8900.73
-8544.77
-8179.88
-7807.13
-7426.9
-7038.88
-6642.87
-6237.38
-5822.2
-5396.41
-4960.24
-4511.25
-4047.85
-3566.7
-3065.15
-2539.77
-1986.69
-1402.41
-780.998
-115.97
596.335
1366.11
2206.65
3117.49
4105.5
5178.1
6337.69
7582.81
8910.68
10297.3
11738.2
13184.4
14610.5
15965.6
17205.2
18280.8
19136.6
19715.5
19962.4
19743.7
19160.2
18142.1
16613.2
14607.1
12208.9
9606.85
7021.89
4626.53
2524.22
771.4
-624.264
-1693.51
-2470.59
-3010.45
-3358.78
-3550.61
-3610.48
-3585.63
-3486.59
-3331.92
-3134.64
-2904.03
-2648.5
-2375.19
-2089.5
-1795.53
-11748.3
-11449.8
-11061.9
-10584
-10018.8
-9363.27
-8611.6
-7747.46
-6763.74
-5686.71
-4474.71
-3156.78
-1742.27
-221.732
1390.86
3076.72
4809.17
6563.94
8304.17
9999.7
11617.4
13117
14465.9
15627.4
16562.6
17239
17627.9
17705.5
17424.9
16890.5
16016.1
14823.4
13338.7
11598.1
9654.74
7572.74
5420.46
3265.11
1154.95
-866.193
-2735.32
-4432.4
-5945.32
-7262.65
-8392.59
-9339.17
-10114.8
-10739
-11228.4
-11596.6
-11859.6
-12039.7
-12151
-12209.1
-12183.6
-12154
-12080
-11956.1
-11781.2
-11576.2
-11346.5
-11095.3
-10825.6
-10539.7
-10239.3
-9925.92
-9600.24
-9262.73
-8914.84
-8557.65
-8191.78
-7818.48
-7438.14
-7050.36
-6654.28
-6249.5
-5835.43
-5410.96
-4976.64
-4530.15
-4069.91
-3593.31
-3095.6
-2574.05
-2025.29
-1446.2
-830.597
-172.068
533.813
1296.89
2130.46
3035.25
4018.19
5087.92
6247.43
7496.75
8833.3
10234.3
11697
13169.5
14629.2
16021.8
17302
18418.9
19314.9
19929.2
20198.8
19995.3
19392
18352.3
16768.6
14676.2
12171
9463.39
6795.56
4353.26
2237.61
499.13
-869.686
-1902.16
-2639.01
-3143.04
-3462.12
-3628.06
-3668.64
-3628.54
-3517.88
-3354.88
-3151.58
-2916.25
-2657.06
-2380.81
-2092.7
-1797.08
-8764.13
-9082.57
-9339.55
-9531.28
-9578.74
-9390.38
-8833.13
-7971.32
-6984.32
-5909.68
-4699.12
-3366.38
-1936.08
-393.086
1247.15
2965.92
4736.98
6536.2
8325.17
10072.6
11743.5
13295.8
14695.9
15904.9
16881.2
17590.6
18002.6
18090.8
17801.2
17249.9
16342.5
15099.8
13553.3
11741.9
9726.63
7567.67
5337.02
3107.72
935.479
-1133.19
-3027.76
-4742.31
-6246.74
-7534.8
-8583.98
-9328.01
-9723.9
-9751.89
-9458.99
-8972.32
-8521.17
-8209.43
-8040.79
-7992.76
-8077.03
-8252.06
-8495.68
-8773.96
-9044.38
-9262.72
-9453.31
-9612.71
-9729.84
-9793.52
-9790.99
-9710.07
-9539.43
-9274.08
-8931.03
-8572.49
-8206.12
-7832.24
-7451.66
-7064.07
-6668.56
-6264.34
-5851.36
-5428.15
-4994.87
-4550.87
-4094.12
-3621.9
-3128.86
-2612.19
-2070.14
-1497.3
-888.242
-237.341
461.425
1217.16
2042.46
2940.22
3916.97
4983.05
6142.11
7395.94
8741.58
10158.5
11645.7
13147.6
14645.6
16081.7
17409.9
18577
19521.7
20180.4
20493.4
20310.6
19679.5
18620.2
16972
14766.9
12121.1
9282.64
6516.07
4020.06
1892.45
175.274
-1161.46
-2149.32
-2837.7
-3298.9
-3583.36
-3715.38
-3737.34
-3679.79
-3555.61
-3382.64
-3172.27
-2931.43
-2667.83
-2388.04
-2097.14
-1799.7
-1394.07
-1860.12
-2547.08
-3416.31
-4449.54
-5587.4
-6556.68
-6899.92
-6810.17
-6146.75
-4941.43
-3597.36
-2148.33
-585.92
1082.99
2838.03
4651.74
6499.03
8339.92
10144.8
11878
13489.6
14946.8
16208.7
17230.6
17976.4
18412.9
18509.9
18213.6
17642.8
16700.9
15404.4
13793.9
11908.1
9808.21
7555.01
5230.03
2921.47
690.512
-1424.7
-3345.23
-5036.85
-6378.09
-7013.07
-6403.59
-5078.21
-3809.81
-2742.61
-1949.1
-1457.06
-1164.86
-982.432
-887.408
-856.855
-894.353
-982.571
-1128.58
-1345.16
-1649
-2048.46
-2514.5
-3035.32
-3603.47
-4208.12
-4832.4
-5452.63
-6034.32
-6525.63
-6855.77
-7031.49
-7130.74
-7149.7
-7081.39
-6917.68
-6649.99
-6281.94
-5870.03
-5448.85
-5017.48
-4576.05
-4122.72
-3653.89
-3165.43
-2654.13
-2118.55
-1553.78
-954.787
-312.769
377.747
1124.67
1939.91
2829.19
3798.33
4859.54
6017.39
7276
8631.33
10067.2
11582.3
13118.8
14661.6
16147.9
17531.5
18755.9
19757.7
20469.1
20828.9
20681.8
20004
18916.7
17183.6
14844.2
12043.2
9055.33
6173.18
3614.93
1475.17
-220.001
-1511.45
-2448.29
-3076.23
-3484.83
-3730
-3822.99
-3823.4
-3741.17
-3600.35
-3415.72
-3196.87
-2949.7
-2681.24
-2397.31
-2103.22
-1803.47
-21.9463
-33.7877
-57.3286
-104.716
-206.161
-437.708
-968.884
-1982.05
-3200.84
-4243.87
-4362.91
-3758.87
-2373.87
-789.334
909.31
2700.21
4556.29
6454.3
8351.08
10213.9
12007.7
13684.1
15204.8
16524
17594.8
18380.4
18844.2
18958.7
18653.8
18060.8
17086.7
15737.1
14060
12086.4
9879.52
7523.81
5107.8
2722.76
433.996
-1714.69
-3557.87
-4466.91
-3514.01
-2132.98
-1059.25
-491.197
-178.154
-38.849
-4.50428
-7.2625
-8.89391
-10.2302
-11.4243
-12.5329
-13.7847
-16.2279
-20.1282
-25.9782
-34.4004
-46.4594
-63.9116
-89.2969
-126.708
-182.607
-266.506
-392.204
-579.715
-856.024
-1249.49
-1727.09
-2234.69
-2758.7
-3280.37
-3772.13
-4190.82
-4477.35
-4573.08
-4574.28
-4494.2
-4325.99
-4058.15
-3681.02
-3205.8
-2699.62
-2170.12
-1611.48
-1022.15
-391.359
289.231
1026.65
1830.21
2709.48
3669.08
4723.85
5879.28
7141.89
8505.21
9960.97
11506
13082.8
14674.9
16215.9
17659.9
18946.9
20010.2
20779
21176.6
21085.8
20345.5
19240.1
17426.4
14951
11974.7
8804.77
5779.5
3147.87
1007.18
-641.794
-1857.4
-2712.56
-3264.07
-3608.39
-3804.69
-3870.83
-3847.71
-3775.24
-3641.51
-3451.76
-3223.77
-2969.75
-2695.54
-2406.93
-2109.17
-1807.16
9.45947
9.47313
9.35438
8.74226
6.99662
3.45242
-5.34354
-33.7633
-130.577
-439.772
-1195.43
-1968.28
-1906.99
-962.104
721.178
2550.85
4451.31
6401.23
8357.42
10284.3
12139.4
13878.3
15463.1
16847.2
17972.6
18801.3
19294.3
19427.9
19118.4
18496.1
17491.9
16081.8
14320.9
12240.9
9932.33
7486.06
4981.36
2508.14
167.98
-1717.59
-1803.24
-941.251
-309.658
-39.8412
11.7067
10.7396
9.65658
9.68469
9.64795
8.72418
8.22789
7.81616
7.43049
7.13491
6.77268
6.42078
6.04264
5.62004
5.18929
4.7205
4.18617
3.55058
2.74705
1.62987
-0.0489226
-2.52706
-6.1885
-11.5983
-19.8702
-32.9811
-53.7327
-87.2817
-141.237
-226.805
-360.79
-564.494
-844.708
-1148.96
-1460.09
-1759.92
-2018.21
-2185.86
-2189.39
-2052.29
-1829.18
-1505.19
-1059.32
-474.765
195.26
923.17
1714.25
2582.23
3530.79
4577.86
5729.79
6995.7
8366.45
9843.37
11417
13032.5
14676.5
16279.3
17790.4
19146.9
20278.7
21111.9
21580.7
21562.8
20732.2
19625.7
17737.3
15087.4
11863.5
8483.03
5315.62
2637.74
530.642
-954.264
-1810.24
-2110.16
-2102.76
-2062.42
-2043.72
-2049.63
-2087.36
-2141.4
-2194.36
-2221.6
-2198.4
-2139.22
-2054.94
-1943.1
-1800.46
-1625.05
9.89657
10.063
10.2166
10.2102
10.1137
10.3548
10.8253
10.9219
10.2563
9.15367
1.791
-33.0191
-140.297
-95.3716
788.78
2374.35
4325.63
6339.17
8355.15
10349.4
12276.2
14082.3
15728.8
17176.6
18359.4
19237.1
19763.2
19914
19605.7
18937.2
17909.5
16420.2
14568.6
12394.1
9999.55
7449.94
4834.38
2286.69
335.226
-147.852
-51.4524
10.5039
11.7132
9.75281
11.2073
10.5685
9.79253
9.74202
9.53797
8.88486
8.47282
8.10681
7.78214
7.4854
7.20896
6.88579
6.57848
6.29054
6.04452
5.82708
5.62338
5.43309
5.25868
5.09206
4.89284
4.72476
4.53446
4.40447
4.30791
4.2048
4.11877
3.93443
3.57112
3.022
2.18751
1.05335
-0.57931
-3.52881
-9.1049
-18.9515
-35.3624
-62.0458
-104.167
-150.932
-187.03
-192.069
-124.664
89.3045
482.164
985.89
1622.47
2439.04
3378.94
4419.74
5568.93
6837.57
8215.41
9715.24
11318.8
12976.1
14672.2
16336.2
17920.2
19354.7
20561.6
21464.5
21990.2
22038.6
21187.4
20030.1
18044
15176
11693.9
8116.72
4810.05
2126.07
433.693
-53.0926
-143.306
-102.227
-64.425