/*--------------------------------*- C++ -*----------------------------------*\
| =========                 |                                                 |
| \\      /  F ield         | OpenFOAM: The Open Source CFD Toolbox           |
|  \\    /   O peration     | Version:  v1912                                 |
|   \\  /    A nd           | Website:  www.openfoam.com                      |
|    \\/     M anipulation  |                                                 |
\*---------------------------------------------------------------------------*/
FoamFile
{
    version     2.0;
    format      ascii;
    class       volScalarField;
    location    "50";
    object      nut;
}
// * * * * * * * * * * * * * * * * * * * * * * * * * * * * * * * * * * * * * //

dimensions      [0 2 -1 0 0 0 0];


internalField   nonuniform List<scalar> 
14268
(
7.23909e-05
7.2291e-05
7.2195e-05
7.2096e-05
7.19983e-05
7.19028e-05
7.18211e-05
7.17634e-05
7.17251e-05
7.17523e-05
7.18515e-05
7.20135e-05
7.22197e-05
7.24513e-05
7.2704e-05
7.2978e-05
7.32753e-05
7.35861e-05
7.38864e-05
7.41473e-05
7.43484e-05
7.44935e-05
7.45884e-05
7.46398e-05
7.46647e-05
7.46819e-05
7.4708e-05
7.47455e-05
7.48017e-05
7.48637e-05
7.49081e-05
7.49543e-05
7.49723e-05
7.4963e-05
7.49618e-05
7.49488e-05
7.49654e-05
7.49735e-05
7.49906e-05
7.50241e-05
7.5042e-05
7.50802e-05
7.51107e-05
7.51442e-05
7.51638e-05
7.51997e-05
7.52352e-05
7.52688e-05
7.53283e-05
7.53506e-05
7.54059e-05
7.54334e-05
7.546e-05
7.55463e-05
7.56139e-05
7.57522e-05
7.58719e-05
7.60063e-05
7.61488e-05
7.62669e-05
7.63832e-05
7.64638e-05
7.65205e-05
7.65381e-05
7.65308e-05
7.65011e-05
7.64812e-05
7.64543e-05
7.64378e-05
7.64237e-05
7.64139e-05
7.64113e-05
7.64148e-05
7.64176e-05
7.64237e-05
7.64319e-05
7.64289e-05
7.64455e-05
7.64423e-05
7.64806e-05
7.65434e-05
7.67066e-05
7.69433e-05
7.72346e-05
7.76005e-05
7.79687e-05
1.42798e-06
1.40021e-06
1.36762e-06
1.33761e-06
1.31093e-06
1.29056e-06
1.27901e-06
1.27767e-06
1.28649e-06
1.3012e-06
1.32239e-06
1.3496e-06
1.38231e-06
1.4191e-06
1.46036e-06
1.50542e-06
1.55344e-06
1.60362e-06
1.65353e-06
1.69957e-06
1.73791e-06
1.76554e-06
1.78158e-06
1.78754e-06
1.78757e-06
1.78473e-06
1.78537e-06
1.79031e-06
1.80127e-06
1.81856e-06
1.83565e-06
1.85425e-06
1.8674e-06
1.8721e-06
1.87231e-06
1.85895e-06
1.84089e-06
1.81707e-06
1.77449e-06
1.74749e-06
1.69403e-06
1.6543e-06
1.60257e-06
1.55496e-06
1.50896e-06
1.46174e-06
1.43427e-06
1.39243e-06
1.38373e-06
1.35271e-06
1.35766e-06
1.34754e-06
1.35728e-06
1.36898e-06
1.37558e-06
1.40173e-06
1.41597e-06
1.44076e-06
1.46279e-06
1.48809e-06
1.50596e-06
1.53137e-06
1.54206e-06
1.55826e-06
1.56315e-06
1.56273e-06
1.55378e-06
1.5361e-06
1.51256e-06
1.48436e-06
1.45311e-06
1.42045e-06
1.38973e-06
1.3599e-06
1.33491e-06
1.31492e-06
1.29882e-06
1.2918e-06
1.28837e-06
1.29379e-06
1.30132e-06
1.31925e-06
1.34061e-06
1.35568e-06
1.36751e-06
1.38863e-06
4.892e-07
4.83786e-07
4.77841e-07
4.72611e-07
4.68173e-07
4.65151e-07
4.63826e-07
4.64421e-07
4.6671e-07
4.69984e-07
4.74354e-07
4.79715e-07
4.85992e-07
4.92995e-07
5.0076e-07
5.0918e-07
5.18111e-07
5.27396e-07
5.36605e-07
5.45079e-07
5.52052e-07
5.56919e-07
5.59482e-07
5.60101e-07
5.59482e-07
5.58068e-07
5.57346e-07
5.57513e-07
5.58872e-07
5.61462e-07
5.64158e-07
5.67281e-07
5.69547e-07
5.70318e-07
5.70323e-07
5.67567e-07
5.63966e-07
5.59007e-07
5.50434e-07
5.44659e-07
5.33997e-07
5.25808e-07
5.15616e-07
5.06299e-07
4.97202e-07
4.88512e-07
4.82798e-07
4.75566e-07
4.73267e-07
4.68129e-07
4.68277e-07
4.66706e-07
4.67789e-07
4.69615e-07
4.70366e-07
4.74483e-07
4.76591e-07
4.80382e-07
4.83873e-07
4.87744e-07
4.90577e-07
4.94521e-07
4.96172e-07
4.98619e-07
4.9934e-07
4.98934e-07
4.97063e-07
4.93527e-07
4.88969e-07
4.83597e-07
4.77751e-07
4.71783e-07
4.66197e-07
4.60919e-07
4.56539e-07
4.52997e-07
4.50307e-07
4.48871e-07
4.48352e-07
4.48916e-07
4.50028e-07
4.52171e-07
4.54721e-07
4.56626e-07
4.59234e-07
4.65292e-07
3.5873e-07
3.57741e-07
3.56665e-07
3.5577e-07
3.55121e-07
3.54703e-07
3.54677e-07
3.5494e-07
3.55521e-07
3.56333e-07
3.57435e-07
3.58788e-07
3.60395e-07
3.62205e-07
3.64229e-07
3.66442e-07
3.68804e-07
3.71258e-07
3.73687e-07
3.75958e-07
3.7788e-07
3.79259e-07
3.80006e-07
3.80229e-07
3.80082e-07
3.79711e-07
3.79487e-07
3.7951e-07
3.79894e-07
3.80568e-07
3.81272e-07
3.82103e-07
3.82686e-07
3.82851e-07
3.828e-07
3.81956e-07
3.80951e-07
3.79513e-07
3.77235e-07
3.75436e-07
3.72672e-07
3.70241e-07
3.67642e-07
3.65154e-07
3.62808e-07
3.60867e-07
3.59267e-07
3.58109e-07
3.57185e-07
3.56689e-07
3.56285e-07
3.56442e-07
3.56416e-07
3.56938e-07
3.57118e-07
3.57937e-07
3.58478e-07
3.59216e-07
3.60064e-07
3.60797e-07
3.61519e-07
3.62249e-07
3.62683e-07
3.63092e-07
3.63254e-07
3.63035e-07
3.62544e-07
3.61617e-07
3.60514e-07
3.59223e-07
3.57863e-07
3.56578e-07
3.55353e-07
3.5432e-07
3.53505e-07
3.52793e-07
3.52457e-07
3.5209e-07
3.52158e-07
3.52154e-07
3.52453e-07
3.52713e-07
3.53157e-07
3.53103e-07
3.5363e-07
3.53174e-07
3.33267e-07
3.32792e-07
3.32412e-07
3.3235e-07
3.32332e-07
3.32561e-07
3.32934e-07
3.33376e-07
3.33852e-07
3.34327e-07
3.34803e-07
3.3528e-07
3.35785e-07
3.36369e-07
3.37e-07
3.3768e-07
3.38403e-07
3.39137e-07
3.39902e-07
3.40677e-07
3.41396e-07
3.41981e-07
3.42373e-07
3.42607e-07
3.42678e-07
3.42693e-07
3.42682e-07
3.42739e-07
3.42922e-07
3.43105e-07
3.43305e-07
3.43525e-07
3.43671e-07
3.43706e-07
3.43715e-07
3.43462e-07
3.43191e-07
3.42644e-07
3.42143e-07
3.41407e-07
3.40847e-07
3.39968e-07
3.39327e-07
3.38696e-07
3.37971e-07
3.37841e-07
3.37198e-07
3.37569e-07
3.36983e-07
3.37671e-07
3.37188e-07
3.37841e-07
3.37699e-07
3.38007e-07
3.38174e-07
3.38227e-07
3.38508e-07
3.38573e-07
3.38896e-07
3.38894e-07
3.39259e-07
3.39195e-07
3.39467e-07
3.39393e-07
3.39498e-07
3.39381e-07
3.39272e-07
3.39022e-07
3.38775e-07
3.38476e-07
3.38179e-07
3.3802e-07
3.37792e-07
3.37748e-07
3.37778e-07
3.37667e-07
3.37936e-07
3.37805e-07
3.38119e-07
3.37999e-07
3.38247e-07
3.38159e-07
3.38448e-07
3.38383e-07
3.3882e-07
3.38857e-07
3.29106e-07
3.29065e-07
3.29166e-07
3.29431e-07
3.29695e-07
3.30019e-07
3.30335e-07
3.30589e-07
3.30748e-07
3.30867e-07
3.31006e-07
3.31161e-07
3.31301e-07
3.31483e-07
3.31688e-07
3.31916e-07
3.32156e-07
3.3239e-07
3.32622e-07
3.32887e-07
3.33189e-07
3.33485e-07
3.33722e-07
3.33922e-07
3.34048e-07
3.34196e-07
3.34291e-07
3.34399e-07
3.34595e-07
3.34692e-07
3.34825e-07
3.34922e-07
3.3497e-07
3.35002e-07
3.3499e-07
3.3491e-07
3.34867e-07
3.34582e-07
3.34615e-07
3.3415e-07
3.34198e-07
3.33725e-07
3.33644e-07
3.3342e-07
3.33183e-07
3.33385e-07
3.33074e-07
3.3377e-07
3.33335e-07
3.34276e-07
3.33829e-07
3.34606e-07
3.34455e-07
3.34762e-07
3.34981e-07
3.34867e-07
3.35137e-07
3.35089e-07
3.35349e-07
3.3519e-07
3.35527e-07
3.35299e-07
3.3556e-07
3.35374e-07
3.35482e-07
3.35372e-07
3.35361e-07
3.35266e-07
3.35221e-07
3.35154e-07
3.35071e-07
3.35176e-07
3.35124e-07
3.3531e-07
3.35522e-07
3.35509e-07
3.35951e-07
3.35815e-07
3.36249e-07
3.36031e-07
3.36342e-07
3.36101e-07
3.36326e-07
3.36001e-07
3.3623e-07
3.35775e-07
3.26995e-07
3.26722e-07
3.26643e-07
3.26845e-07
3.2706e-07
3.27515e-07
3.28001e-07
3.28462e-07
3.28868e-07
3.29213e-07
3.29483e-07
3.29676e-07
3.29782e-07
3.29924e-07
3.30065e-07
3.30219e-07
3.3037e-07
3.30501e-07
3.30633e-07
3.30798e-07
3.31001e-07
3.31222e-07
3.31423e-07
3.31617e-07
3.3175e-07
3.31917e-07
3.32012e-07
3.32087e-07
3.32249e-07
3.32274e-07
3.32338e-07
3.3234e-07
3.32296e-07
3.32294e-07
3.32259e-07
3.32209e-07
3.32233e-07
3.32004e-07
3.32178e-07
3.31759e-07
3.32026e-07
3.31591e-07
3.31774e-07
3.31525e-07
3.31522e-07
3.31742e-07
3.31631e-07
3.32311e-07
3.32003e-07
3.33047e-07
3.32583e-07
3.33471e-07
3.33332e-07
3.3369e-07
3.34004e-07
3.33821e-07
3.34127e-07
3.34058e-07
3.34316e-07
3.34106e-07
3.34454e-07
3.34165e-07
3.34435e-07
3.34227e-07
3.34326e-07
3.34242e-07
3.34249e-07
3.34185e-07
3.34196e-07
3.34179e-07
3.34133e-07
3.34327e-07
3.34291e-07
3.34565e-07
3.34852e-07
3.34833e-07
3.35416e-07
3.35216e-07
3.3582e-07
3.35467e-07
3.35965e-07
3.35597e-07
3.35946e-07
3.35687e-07
3.35982e-07
3.35935e-07
3.26632e-07
3.26464e-07
3.2651e-07
3.26779e-07
3.27075e-07
3.27561e-07
3.28023e-07
3.2843e-07
3.28729e-07
3.28959e-07
3.29136e-07
3.29285e-07
3.29363e-07
3.29426e-07
3.29485e-07
3.29557e-07
3.29631e-07
3.29677e-07
3.29722e-07
3.29776e-07
3.29887e-07
3.30039e-07
3.302e-07
3.30399e-07
3.30576e-07
3.30821e-07
3.30999e-07
3.31123e-07
3.31319e-07
3.31355e-07
3.31396e-07
3.31379e-07
3.3128e-07
3.3127e-07
3.31174e-07
3.31187e-07
3.31185e-07
3.30982e-07
3.31216e-07
3.30768e-07
3.31175e-07
3.30628e-07
3.30995e-07
3.30627e-07
3.30843e-07
3.30894e-07
3.30984e-07
3.31576e-07
3.31406e-07
3.32439e-07
3.32046e-07
3.32994e-07
3.32893e-07
3.33282e-07
3.33721e-07
3.33491e-07
3.33841e-07
3.33778e-07
3.34057e-07
3.33835e-07
3.34206e-07
3.33905e-07
3.34174e-07
3.33962e-07
3.34055e-07
3.33982e-07
3.33984e-07
3.33925e-07
3.33955e-07
3.33952e-07
3.33893e-07
3.34143e-07
3.34088e-07
3.34417e-07
3.34762e-07
3.34716e-07
3.35443e-07
3.35126e-07
3.35945e-07
3.35407e-07
3.36158e-07
3.35614e-07
3.36132e-07
3.35844e-07
3.3609e-07
3.3577e-07
3.24721e-07
3.24289e-07
3.24104e-07
3.24185e-07
3.24348e-07
3.24861e-07
3.25465e-07
3.26143e-07
3.2675e-07
3.27332e-07
3.27847e-07
3.28237e-07
3.28473e-07
3.28665e-07
3.28819e-07
3.28953e-07
3.29075e-07
3.29172e-07
3.29263e-07
3.29341e-07
3.29436e-07
3.29544e-07
3.29651e-07
3.29795e-07
3.29928e-07
3.30136e-07
3.30302e-07
3.30389e-07
3.30582e-07
3.30616e-07
3.30627e-07
3.3059e-07
3.30458e-07
3.30429e-07
3.30279e-07
3.30286e-07
3.30259e-07
3.30046e-07
3.303e-07
3.29845e-07
3.30248e-07
3.29636e-07
3.30098e-07
3.29562e-07
3.29986e-07
3.2981e-07
3.30193e-07
3.30574e-07
3.30626e-07
3.31615e-07
3.31299e-07
3.32335e-07
3.32271e-07
3.32787e-07
3.33323e-07
3.33097e-07
3.33479e-07
3.33445e-07
3.33748e-07
3.33509e-07
3.33927e-07
3.33593e-07
3.33897e-07
3.33667e-07
3.33764e-07
3.33696e-07
3.33679e-07
3.33614e-07
3.3365e-07
3.33634e-07
3.33542e-07
3.3384e-07
3.33725e-07
3.34105e-07
3.34503e-07
3.34379e-07
3.35273e-07
3.34808e-07
3.35856e-07
3.35142e-07
3.36168e-07
3.35489e-07
3.36156e-07
3.35806e-07
3.36037e-07
3.35959e-07
3.22834e-07
3.22381e-07
3.22203e-07
3.22329e-07
3.22574e-07
3.23158e-07
3.23836e-07
3.24573e-07
3.25258e-07
3.25886e-07
3.26438e-07
3.26858e-07
3.27177e-07
3.27414e-07
3.27637e-07
3.27799e-07
3.27934e-07
3.28036e-07
3.28148e-07
3.28268e-07
3.28385e-07
3.28498e-07
3.28641e-07
3.28838e-07
3.29021e-07
3.29278e-07
3.2948e-07
3.29562e-07
3.29773e-07
3.2983e-07
3.29812e-07
3.29741e-07
3.29517e-07
3.29479e-07
3.29265e-07
3.29292e-07
3.29239e-07
3.29004e-07
3.29303e-07
3.28763e-07
3.29318e-07
3.28532e-07
3.29112e-07
3.28373e-07
3.29044e-07
3.28643e-07
3.29363e-07
3.29502e-07
3.29844e-07
3.30723e-07
3.30477e-07
3.31635e-07
3.31595e-07
3.32192e-07
3.32857e-07
3.32618e-07
3.33044e-07
3.33063e-07
3.33376e-07
3.33114e-07
3.33572e-07
3.33208e-07
3.33527e-07
3.33303e-07
3.33377e-07
3.33311e-07
3.33283e-07
3.33191e-07
3.33246e-07
3.33208e-07
3.33072e-07
3.3343e-07
3.33217e-07
3.3366e-07
3.34104e-07
3.33898e-07
3.3496e-07
3.34365e-07
3.35626e-07
3.34747e-07
3.36077e-07
3.3525e-07
3.36065e-07
3.35804e-07
3.36026e-07
3.35955e-07
3.19561e-07
3.18921e-07
3.18576e-07
3.18562e-07
3.18732e-07
3.19347e-07
3.20195e-07
3.21202e-07
3.22208e-07
3.23204e-07
3.24075e-07
3.24804e-07
3.25319e-07
3.2576e-07
3.26179e-07
3.26493e-07
3.26729e-07
3.26914e-07
3.27084e-07
3.27242e-07
3.27411e-07
3.27527e-07
3.27637e-07
3.27789e-07
3.27931e-07
3.28161e-07
3.28382e-07
3.28466e-07
3.28716e-07
3.28805e-07
3.28769e-07
3.28676e-07
3.28369e-07
3.28283e-07
3.27972e-07
3.28017e-07
3.27887e-07
3.27727e-07
3.27945e-07
3.27403e-07
3.27994e-07
3.2704e-07
3.27745e-07
3.26785e-07
3.27739e-07
3.27004e-07
3.28116e-07
3.27922e-07
3.28768e-07
3.2937e-07
3.29319e-07
3.3056e-07
3.30559e-07
3.31415e-07
3.32153e-07
3.31951e-07
3.32415e-07
3.32513e-07
3.32844e-07
3.32556e-07
3.33056e-07
3.32681e-07
3.33003e-07
3.3277e-07
3.32818e-07
3.32717e-07
3.32674e-07
3.32521e-07
3.32582e-07
3.32488e-07
3.32285e-07
3.32693e-07
3.32356e-07
3.32881e-07
3.33393e-07
3.3311e-07
3.34341e-07
3.33696e-07
3.35202e-07
3.34216e-07
3.3574e-07
3.34858e-07
3.35719e-07
3.35615e-07
3.35749e-07
3.35871e-07
3.159e-07
3.15212e-07
3.14837e-07
3.1483e-07
3.15077e-07
3.15854e-07
3.16912e-07
3.18138e-07
3.19364e-07
3.20581e-07
3.21681e-07
3.22575e-07
3.23268e-07
3.23762e-07
3.24205e-07
3.2457e-07
3.2486e-07
3.25095e-07
3.25312e-07
3.25535e-07
3.25782e-07
3.25975e-07
3.26097e-07
3.2627e-07
3.26474e-07
3.2674e-07
3.27034e-07
3.27149e-07
3.2745e-07
3.27581e-07
3.27553e-07
3.27418e-07
3.26968e-07
3.26823e-07
3.26476e-07
3.26444e-07
3.26229e-07
3.26172e-07
3.26312e-07
3.25877e-07
3.2626e-07
3.25353e-07
3.26079e-07
3.25031e-07
3.26128e-07
3.25283e-07
3.26677e-07
3.26233e-07
3.27621e-07
3.28042e-07
3.28183e-07
3.29461e-07
3.29419e-07
3.30608e-07
3.31385e-07
3.31219e-07
3.31682e-07
3.31868e-07
3.32194e-07
3.31875e-07
3.32416e-07
3.32023e-07
3.32358e-07
3.32116e-07
3.32108e-07
3.32013e-07
3.31934e-07
3.31732e-07
3.31817e-07
3.31697e-07
3.31443e-07
3.31919e-07
3.31447e-07
3.32092e-07
3.32644e-07
3.32309e-07
3.33713e-07
3.3305e-07
3.34682e-07
3.33748e-07
3.35336e-07
3.34543e-07
3.35352e-07
3.35474e-07
3.35492e-07
3.3571e-07
3.11252e-07
3.1043e-07
3.09897e-07
3.09851e-07
3.10122e-07
3.11025e-07
3.12343e-07
3.13929e-07
3.15559e-07
3.17232e-07
3.18651e-07
3.19941e-07
3.2081e-07
3.21461e-07
3.22042e-07
3.22501e-07
3.22841e-07
3.23092e-07
3.23328e-07
3.23567e-07
3.23801e-07
3.23941e-07
3.24073e-07
3.24253e-07
3.24491e-07
3.24827e-07
3.25212e-07
3.25443e-07
3.25817e-07
3.26014e-07
3.26021e-07
3.25839e-07
3.25229e-07
3.25013e-07
3.24613e-07
3.24498e-07
3.24215e-07
3.24271e-07
3.2438e-07
3.23978e-07
3.24148e-07
3.23354e-07
3.23847e-07
3.22932e-07
3.23944e-07
3.23061e-07
3.24726e-07
3.24151e-07
3.25965e-07
3.262e-07
3.26787e-07
3.28024e-07
3.28112e-07
3.29732e-07
3.30508e-07
3.30401e-07
3.3084e-07
3.31111e-07
3.31441e-07
3.31055e-07
3.3163e-07
3.31209e-07
3.31529e-07
3.31283e-07
3.31174e-07
3.31059e-07
3.30927e-07
3.30615e-07
3.30689e-07
3.30444e-07
3.30095e-07
3.30607e-07
3.29984e-07
3.30718e-07
3.31309e-07
3.30983e-07
3.32636e-07
3.32058e-07
3.33822e-07
3.32967e-07
3.34811e-07
3.34087e-07
3.34886e-07
3.35192e-07
3.35109e-07
3.35573e-07
3.05907e-07
3.04946e-07
3.04261e-07
3.04178e-07
3.04488e-07
3.05475e-07
3.07093e-07
3.09153e-07
3.11264e-07
3.13498e-07
3.15454e-07
3.17e-07
3.18147e-07
3.18899e-07
3.19535e-07
3.20094e-07
3.20537e-07
3.20852e-07
3.21122e-07
3.21391e-07
3.21674e-07
3.21875e-07
3.22065e-07
3.22241e-07
3.22528e-07
3.22902e-07
3.23463e-07
3.23788e-07
3.24216e-07
3.24495e-07
3.24532e-07
3.24286e-07
3.235e-07
3.23229e-07
3.22724e-07
3.22529e-07
3.22208e-07
3.22336e-07
3.22346e-07
3.21976e-07
3.22057e-07
3.21357e-07
3.21574e-07
3.20994e-07
3.21734e-07
3.21014e-07
3.2278e-07
3.22263e-07
3.24383e-07
3.24332e-07
3.25653e-07
3.26629e-07
3.26819e-07
3.28834e-07
3.29508e-07
3.29811e-07
3.30184e-07
3.30623e-07
3.30857e-07
3.30411e-07
3.30941e-07
3.30489e-07
3.30787e-07
3.30488e-07
3.30297e-07
3.30134e-07
3.29957e-07
3.29545e-07
3.29659e-07
3.29364e-07
3.29014e-07
3.29645e-07
3.28905e-07
3.29893e-07
3.30568e-07
3.30338e-07
3.31953e-07
3.3173e-07
3.33505e-07
3.32964e-07
3.34647e-07
3.34387e-07
3.34842e-07
3.35608e-07
3.35452e-07
3.36067e-07
3.0181e-07
3.00623e-07
2.99645e-07
2.99256e-07
2.99336e-07
3.00164e-07
3.01758e-07
3.04103e-07
3.06721e-07
3.09505e-07
3.12087e-07
3.14134e-07
3.15585e-07
3.16531e-07
3.17285e-07
3.17838e-07
3.18431e-07
3.19019e-07
3.19491e-07
3.19903e-07
3.20312e-07
3.20612e-07
3.20881e-07
3.21093e-07
3.21401e-07
3.21783e-07
3.2226e-07
3.22638e-07
3.23152e-07
3.23478e-07
3.23557e-07
3.23291e-07
3.22462e-07
3.22109e-07
3.21623e-07
3.21261e-07
3.20972e-07
3.2112e-07
3.20984e-07
3.20677e-07
3.20634e-07
3.19923e-07
3.20008e-07
3.1942e-07
3.19805e-07
3.19299e-07
3.20719e-07
3.20386e-07
3.22461e-07
3.22356e-07
3.24062e-07
3.24892e-07
3.2527e-07
3.27506e-07
3.28199e-07
3.28943e-07
3.29347e-07
3.29975e-07
3.30313e-07
3.29976e-07
3.30538e-07
3.30093e-07
3.30407e-07
3.30123e-07
3.298e-07
3.29625e-07
3.29401e-07
3.28914e-07
3.29077e-07
3.28718e-07
3.28322e-07
3.28963e-07
3.28046e-07
3.29034e-07
3.29661e-07
3.29455e-07
3.30889e-07
3.30908e-07
3.32478e-07
3.32264e-07
3.33806e-07
3.33877e-07
3.34209e-07
3.35247e-07
3.35187e-07
3.36108e-07
2.99066e-07
2.97622e-07
2.96324e-07
2.95656e-07
2.95566e-07
2.96263e-07
2.97939e-07
3.00477e-07
3.03307e-07
3.06429e-07
3.09546e-07
3.12014e-07
3.13655e-07
3.14683e-07
3.15624e-07
3.16296e-07
3.16809e-07
3.17408e-07
3.17965e-07
3.18461e-07
3.18987e-07
3.19447e-07
3.19859e-07
3.20203e-07
3.20656e-07
3.21129e-07
3.21714e-07
3.21994e-07
3.22596e-07
3.2303e-07
3.231e-07
3.22789e-07
3.21794e-07
3.21454e-07
3.20746e-07
3.20473e-07
3.20131e-07
3.20252e-07
3.19985e-07
3.19752e-07
3.19544e-07
3.1875e-07
3.18791e-07
3.18149e-07
3.18455e-07
3.1802e-07
3.19333e-07
3.18975e-07
3.20927e-07
3.20888e-07
3.22711e-07
3.23559e-07
3.24064e-07
3.26434e-07
3.27119e-07
3.28129e-07
3.28531e-07
3.2925e-07
3.29667e-07
3.29439e-07
3.30043e-07
3.29632e-07
3.29942e-07
3.29654e-07
3.29302e-07
3.29129e-07
3.28902e-07
3.28346e-07
3.28547e-07
3.2808e-07
3.27629e-07
3.28221e-07
3.27247e-07
3.28321e-07
3.28893e-07
3.28723e-07
3.30117e-07
3.30306e-07
3.31739e-07
3.31687e-07
3.3322e-07
3.33454e-07
3.33741e-07
3.34884e-07
3.3485e-07
3.3597e-07
2.95674e-07
2.93919e-07
2.92278e-07
2.91364e-07
2.91142e-07
2.91778e-07
2.93527e-07
2.96269e-07
2.99379e-07
3.02919e-07
3.06291e-07
3.09056e-07
3.11148e-07
3.12499e-07
3.13653e-07
3.14546e-07
3.15105e-07
3.15681e-07
3.16308e-07
3.16873e-07
3.17468e-07
3.18049e-07
3.18582e-07
3.19021e-07
3.19603e-07
3.20239e-07
3.20982e-07
3.21418e-07
3.22068e-07
3.22609e-07
3.22717e-07
3.22335e-07
3.21182e-07
3.2055e-07
3.1991e-07
3.19448e-07
3.19302e-07
3.19278e-07
3.18904e-07
3.18725e-07
3.18339e-07
3.17548e-07
3.17544e-07
3.17009e-07
3.1716e-07
3.16663e-07
3.17825e-07
3.17428e-07
3.1923e-07
3.19374e-07
3.21312e-07
3.2214e-07
3.22871e-07
3.25204e-07
3.25885e-07
3.27159e-07
3.27571e-07
3.28353e-07
3.2879e-07
3.28741e-07
3.29323e-07
3.29003e-07
3.29389e-07
3.29162e-07
3.28758e-07
3.28606e-07
3.28316e-07
3.27683e-07
3.27847e-07
3.27254e-07
3.26759e-07
3.27232e-07
3.26184e-07
3.2737e-07
3.27824e-07
3.27807e-07
3.29058e-07
3.29472e-07
3.3083e-07
3.31045e-07
3.32502e-07
3.32998e-07
3.33211e-07
3.34515e-07
3.34462e-07
3.35879e-07
2.91589e-07
2.895e-07
2.87491e-07
2.86229e-07
2.85659e-07
2.86113e-07
2.87542e-07
2.90401e-07
2.93971e-07
2.98019e-07
3.02077e-07
3.05403e-07
3.07948e-07
3.09697e-07
3.11121e-07
3.12264e-07
3.13071e-07
3.13623e-07
3.14277e-07
3.14987e-07
3.15651e-07
3.16297e-07
3.16889e-07
3.17434e-07
3.18161e-07
3.18987e-07
3.19902e-07
3.2054e-07
3.21252e-07
3.21912e-07
3.22144e-07
3.21793e-07
3.20449e-07
3.19706e-07
3.18958e-07
3.18413e-07
3.18257e-07
3.18094e-07
3.17735e-07
3.17508e-07
3.17067e-07
3.16471e-07
3.16153e-07
3.15781e-07
3.15625e-07
3.15041e-07
3.16039e-07
3.15499e-07
3.17441e-07
3.1746e-07
3.19453e-07
3.20223e-07
3.21493e-07
3.2391e-07
3.24434e-07
3.26122e-07
3.26496e-07
3.27284e-07
3.27844e-07
3.27875e-07
3.28435e-07
3.28191e-07
3.28596e-07
3.28408e-07
3.28027e-07
3.27843e-07
3.27531e-07
3.26831e-07
3.26953e-07
3.26244e-07
3.25708e-07
3.26092e-07
3.24999e-07
3.26168e-07
3.26736e-07
3.26608e-07
3.2771e-07
3.28437e-07
3.29546e-07
3.30158e-07
3.31369e-07
3.32342e-07
3.32478e-07
3.33935e-07
3.33917e-07
3.35661e-07
2.86732e-07
2.84206e-07
2.81669e-07
2.79725e-07
2.78375e-07
2.78491e-07
2.79206e-07
2.82226e-07
2.86359e-07
2.91392e-07
2.9651e-07
3.0092e-07
3.04236e-07
3.06516e-07
3.08258e-07
3.09581e-07
3.10661e-07
3.11375e-07
3.11998e-07
3.12825e-07
3.1365e-07
3.14377e-07
3.15056e-07
3.15708e-07
3.16533e-07
3.1751e-07
3.18592e-07
3.19351e-07
3.20089e-07
3.20847e-07
3.21212e-07
3.20979e-07
3.19657e-07
3.18792e-07
3.17846e-07
3.17309e-07
3.17154e-07
3.16785e-07
3.16459e-07
3.16138e-07
3.15634e-07
3.15293e-07
3.14499e-07
3.14237e-07
3.13816e-07
3.13277e-07
3.14018e-07
3.13404e-07
3.1512e-07
3.14998e-07
3.17173e-07
3.18162e-07
3.19668e-07
3.21894e-07
3.22597e-07
3.24845e-07
3.25281e-07
3.26237e-07
3.26705e-07
3.26908e-07
3.27499e-07
3.27279e-07
3.27682e-07
3.27508e-07
3.27125e-07
3.26935e-07
3.26573e-07
3.25811e-07
3.25901e-07
3.25047e-07
3.24513e-07
3.24775e-07
3.23664e-07
3.24775e-07
3.25215e-07
3.25076e-07
3.26e-07
3.27004e-07
3.27899e-07
3.2873e-07
3.30024e-07
3.31378e-07
3.31522e-07
3.33142e-07
3.33356e-07
3.35146e-07
2.8079e-07
2.77547e-07
2.74066e-07
2.70972e-07
2.68365e-07
2.67606e-07
2.67396e-07
2.70215e-07
2.75273e-07
2.81605e-07
2.88459e-07
2.94617e-07
2.99203e-07
3.02421e-07
3.04831e-07
3.06542e-07
3.07876e-07
3.08791e-07
3.09515e-07
3.10281e-07
3.1131e-07
3.12149e-07
3.12961e-07
3.13728e-07
3.14629e-07
3.15753e-07
3.17057e-07
3.17847e-07
3.18558e-07
3.19338e-07
3.19871e-07
3.19769e-07
3.18423e-07
3.17166e-07
3.1656e-07
3.15874e-07
3.1585e-07
3.15361e-07
3.15031e-07
3.14565e-07
3.13907e-07
3.13815e-07
3.12647e-07
3.12233e-07
3.11936e-07
3.1128e-07
3.11577e-07
3.11003e-07
3.11917e-07
3.1216e-07
3.14397e-07
3.15496e-07
3.1695e-07
3.19249e-07
3.20189e-07
3.22916e-07
3.23724e-07
3.24839e-07
3.25467e-07
3.25832e-07
3.26483e-07
3.26217e-07
3.26708e-07
3.26505e-07
3.26133e-07
3.25883e-07
3.25464e-07
3.24625e-07
3.24665e-07
3.23665e-07
3.23105e-07
3.23233e-07
3.22089e-07
3.23179e-07
3.23181e-07
3.23204e-07
3.23791e-07
3.25096e-07
3.25395e-07
3.26703e-07
3.27988e-07
3.29743e-07
3.2993e-07
3.31819e-07
3.32402e-07
3.34044e-07
2.73174e-07
2.68833e-07
2.63939e-07
2.5918e-07
2.54763e-07
2.52105e-07
2.51125e-07
2.53184e-07
2.591e-07
2.67402e-07
2.76669e-07
2.85256e-07
2.91977e-07
2.9679e-07
3.00258e-07
3.02701e-07
3.0458e-07
3.05847e-07
3.06733e-07
3.07596e-07
3.08623e-07
3.09752e-07
3.10605e-07
3.11448e-07
3.12552e-07
3.13874e-07
3.15247e-07
3.16179e-07
3.1689e-07
3.17585e-07
3.18252e-07
3.18307e-07
3.17173e-07
3.16139e-07
3.15037e-07
3.14536e-07
3.1439e-07
3.13719e-07
3.13449e-07
3.1276e-07
3.11867e-07
3.11942e-07
3.10561e-07
3.09983e-07
3.09587e-07
3.08706e-07
3.08511e-07
3.07649e-07
3.07903e-07
3.08197e-07
3.10261e-07
3.11441e-07
3.13447e-07
3.1571e-07
3.16884e-07
3.20436e-07
3.21368e-07
3.22909e-07
3.23828e-07
3.24448e-07
3.25207e-07
3.25035e-07
3.25584e-07
3.25401e-07
3.24996e-07
3.2468e-07
3.24208e-07
3.23238e-07
3.232e-07
3.22031e-07
3.2139e-07
3.21276e-07
3.19961e-07
3.20842e-07
3.20403e-07
3.2037e-07
3.20224e-07
3.21674e-07
3.21422e-07
3.23731e-07
3.24343e-07
3.26929e-07
3.27502e-07
3.29742e-07
3.30944e-07
3.32401e-07
2.62569e-07
2.56585e-07
2.49577e-07
2.42395e-07
2.35269e-07
2.2975e-07
2.27492e-07
2.28585e-07
2.35584e-07
2.46473e-07
2.59078e-07
2.71226e-07
2.81276e-07
2.88583e-07
2.93808e-07
2.9749e-07
3.00088e-07
3.02e-07
3.03192e-07
3.04269e-07
3.05387e-07
3.06648e-07
3.07524e-07
3.08543e-07
3.09888e-07
3.11523e-07
3.13052e-07
3.13976e-07
3.14642e-07
3.155e-07
3.1634e-07
3.16478e-07
3.15426e-07
3.14332e-07
3.13258e-07
3.12723e-07
3.12523e-07
3.11648e-07
3.11483e-07
3.10543e-07
3.09592e-07
3.09472e-07
3.07921e-07
3.07279e-07
3.06116e-07
3.04822e-07
3.03913e-07
3.02523e-07
3.01764e-07
3.01599e-07
3.03418e-07
3.05183e-07
3.08032e-07
3.09785e-07
3.11518e-07
3.16582e-07
3.1819e-07
3.2013e-07
3.21416e-07
3.22637e-07
3.23434e-07
3.2348e-07
3.24089e-07
3.23919e-07
3.23571e-07
3.23151e-07
3.22575e-07
3.2146e-07
3.21272e-07
3.19849e-07
3.18987e-07
3.1835e-07
3.16606e-07
3.16752e-07
3.15665e-07
3.15006e-07
3.13727e-07
3.15315e-07
3.14323e-07
3.18006e-07
3.17543e-07
3.21665e-07
3.23234e-07
3.26113e-07
3.28243e-07
3.29991e-07
2.47861e-07
2.397e-07
2.29794e-07
2.19263e-07
2.08504e-07
1.98975e-07
1.93531e-07
1.93763e-07
2.01522e-07
2.15708e-07
2.32953e-07
2.50423e-07
2.65133e-07
2.76236e-07
2.84398e-07
2.9013e-07
2.94016e-07
2.96959e-07
2.98991e-07
3.00433e-07
3.01885e-07
3.03052e-07
3.04313e-07
3.05495e-07
3.06861e-07
3.08583e-07
3.10339e-07
3.11483e-07
3.1217e-07
3.13081e-07
3.14107e-07
3.14392e-07
3.13581e-07
3.1196e-07
3.11189e-07
3.10416e-07
3.10209e-07
3.09283e-07
3.09177e-07
3.07863e-07
3.06819e-07
3.06293e-07
3.0433e-07
3.03396e-07
3.00845e-07
2.98955e-07
2.9631e-07
2.9409e-07
2.91947e-07
2.91066e-07
2.9281e-07
2.94063e-07
2.97815e-07
2.99423e-07
3.02799e-07
3.1016e-07
3.12824e-07
3.15901e-07
3.18096e-07
3.19913e-07
3.21026e-07
3.21334e-07
3.22062e-07
3.21963e-07
3.21598e-07
3.21032e-07
3.20378e-07
3.18964e-07
3.18482e-07
3.16582e-07
3.15171e-07
3.13443e-07
3.10804e-07
3.0951e-07
3.06919e-07
3.05129e-07
3.01685e-07
3.03263e-07
3.00947e-07
3.0614e-07
3.04509e-07
3.1148e-07
3.14361e-07
3.18573e-07
3.22791e-07
3.25417e-07
2.28379e-07
2.17427e-07
2.03609e-07
1.88488e-07
1.72979e-07
1.58574e-07
1.4889e-07
1.47638e-07
1.56265e-07
1.73907e-07
1.96676e-07
2.20713e-07
2.41993e-07
2.58508e-07
2.70778e-07
2.79591e-07
2.85655e-07
2.89971e-07
2.93195e-07
2.95252e-07
2.9677e-07
2.98358e-07
2.99962e-07
3.01296e-07
3.03062e-07
3.05085e-07
3.07105e-07
3.0856e-07
3.09499e-07
3.10377e-07
3.11515e-07
3.11876e-07
3.11393e-07
3.09936e-07
3.0881e-07
3.07786e-07
3.07373e-07
3.06298e-07
3.06179e-07
3.04553e-07
3.03258e-07
3.02098e-07
2.99412e-07
2.9736e-07
2.93209e-07
2.89693e-07
2.84474e-07
2.81021e-07
2.76286e-07
2.74145e-07
2.74839e-07
2.76181e-07
2.80577e-07
2.82327e-07
2.88492e-07
2.98967e-07
3.03764e-07
3.0866e-07
3.12514e-07
3.1573e-07
3.17416e-07
3.18317e-07
3.19209e-07
3.19284e-07
3.18825e-07
3.18143e-07
3.17123e-07
3.15272e-07
3.14138e-07
3.11359e-07
3.08799e-07
3.05281e-07
3.00969e-07
2.97001e-07
2.92416e-07
2.88293e-07
2.81711e-07
2.8276e-07
2.78006e-07
2.8443e-07
2.80708e-07
2.92647e-07
2.97813e-07
3.04811e-07
3.12812e-07
3.1666e-07
2.03169e-07
1.88807e-07
1.70491e-07
1.50017e-07
1.29294e-07
1.10642e-07
9.75108e-08
9.36002e-08
1.01939e-07
1.2155e-07
1.49674e-07
1.80879e-07
2.09876e-07
2.33325e-07
2.51272e-07
2.6441e-07
2.73703e-07
2.80113e-07
2.84821e-07
2.88117e-07
2.90624e-07
2.92984e-07
2.94468e-07
2.96129e-07
2.98234e-07
3.00702e-07
3.0318e-07
3.04793e-07
3.05913e-07
3.07041e-07
3.08442e-07
3.09019e-07
3.08502e-07
3.06882e-07
3.05676e-07
3.04293e-07
3.0352e-07
3.02463e-07
3.02205e-07
3.00146e-07
2.98327e-07
2.96284e-07
2.92186e-07
2.87969e-07
2.81704e-07
2.74831e-07
2.66249e-07
2.60472e-07
2.52223e-07
2.48414e-07
2.47652e-07
2.47861e-07
2.54353e-07
2.56945e-07
2.6541e-07
2.80492e-07
2.88855e-07
2.96656e-07
3.03408e-07
3.08546e-07
3.11337e-07
3.13434e-07
3.14707e-07
3.14966e-07
3.1468e-07
3.13533e-07
3.12024e-07
3.09371e-07
3.07001e-07
3.02745e-07
2.98178e-07
2.91464e-07
2.84453e-07
2.76491e-07
2.68255e-07
2.61011e-07
2.50767e-07
2.49798e-07
2.41937e-07
2.49206e-07
2.43092e-07
2.61461e-07
2.70426e-07
2.80846e-07
2.93946e-07
3.0112e-07
1.7162e-07
1.53484e-07
1.30855e-07
1.05872e-07
8.1834e-08
6.34217e-08
5.26712e-08
4.92287e-08
5.46382e-08
6.91553e-08
9.47483e-08
1.31347e-07
1.68247e-07
1.9955e-07
2.24377e-07
2.42991e-07
2.56414e-07
2.65901e-07
2.72938e-07
2.7794e-07
2.81374e-07
2.83881e-07
2.86273e-07
2.88544e-07
2.91292e-07
2.94532e-07
2.97885e-07
3.00131e-07
3.01777e-07
3.03179e-07
3.04691e-07
3.05456e-07
3.05206e-07
3.03545e-07
3.01797e-07
3.00002e-07
2.98624e-07
2.97258e-07
2.96712e-07
2.94038e-07
2.90985e-07
2.87815e-07
2.8132e-07
2.73988e-07
2.64571e-07
2.52568e-07
2.40579e-07
2.30361e-07
2.18953e-07
2.12587e-07
2.0974e-07
2.07339e-07
2.16426e-07
2.20996e-07
2.32013e-07
2.52896e-07
2.65616e-07
2.77393e-07
2.8828e-07
2.97015e-07
3.01959e-07
3.05783e-07
3.07845e-07
3.08563e-07
3.08175e-07
3.06299e-07
3.03864e-07
2.99892e-07
2.95366e-07
2.8888e-07
2.81131e-07
2.69951e-07
2.59013e-07
2.45006e-07
2.33578e-07
2.22021e-07
2.06842e-07
2.02157e-07
1.90972e-07
1.99571e-07
1.92699e-07
2.16324e-07
2.29143e-07
2.43036e-07
2.63018e-07
2.75129e-07
1.34359e-07
1.13039e-07
8.81037e-08
6.33813e-08
4.37376e-08
3.091e-08
2.40386e-08
2.16383e-08
2.42605e-08
3.3137e-08
4.90901e-08
7.79127e-08
1.18108e-07
1.5705e-07
1.8938e-07
2.14638e-07
2.3326e-07
2.46586e-07
2.56206e-07
2.62861e-07
2.67614e-07
2.71532e-07
2.74879e-07
2.77804e-07
2.81291e-07
2.85571e-07
2.89925e-07
2.93355e-07
2.95759e-07
2.97849e-07
2.99762e-07
3.00398e-07
3.00169e-07
2.98423e-07
2.96126e-07
2.93708e-07
2.91611e-07
2.89613e-07
2.88512e-07
2.8508e-07
2.80123e-07
2.75121e-07
2.65104e-07
2.53628e-07
2.39345e-07
2.21792e-07
2.05278e-07
1.90793e-07
1.76128e-07
1.67524e-07
1.62054e-07
1.57829e-07
1.68818e-07
1.76216e-07
1.8938e-07
2.15372e-07
2.32525e-07
2.4915e-07
2.66057e-07
2.78584e-07
2.86605e-07
2.9294e-07
2.96289e-07
2.97899e-07
2.97482e-07
2.94903e-07
2.90866e-07
2.84917e-07
2.77242e-07
2.67597e-07
2.55388e-07
2.38803e-07
2.22457e-07
2.02064e-07
1.87194e-07
1.72061e-07
1.5288e-07
1.4274e-07
1.31034e-07
1.41033e-07
1.35931e-07
1.59652e-07
1.74061e-07
1.90734e-07
2.19034e-07
2.36626e-07
9.45224e-08
7.27744e-08
5.08979e-08
3.25814e-08
1.93415e-08
1.19778e-08
8.7439e-09
7.9179e-09
9.23131e-09
1.33762e-08
2.09501e-08
3.82913e-08
6.76372e-08
1.0721e-07
1.4612e-07
1.78183e-07
2.02576e-07
2.20435e-07
2.3356e-07
2.43137e-07
2.50411e-07
2.5632e-07
2.60228e-07
2.63268e-07
2.6708e-07
2.72494e-07
2.78592e-07
2.83625e-07
2.87467e-07
2.90508e-07
2.93166e-07
2.93999e-07
2.93554e-07
2.9149e-07
2.88396e-07
2.851e-07
2.8193e-07
2.78908e-07
2.76736e-07
2.72024e-07
2.64279e-07
2.56674e-07
2.41896e-07
2.25661e-07
2.05809e-07
1.83283e-07
1.62424e-07
1.44688e-07
1.28497e-07
1.1779e-07
1.11032e-07
1.04154e-07
1.1569e-07
1.25818e-07
1.3947e-07
1.68779e-07
1.9163e-07
2.12033e-07
2.35356e-07
2.52737e-07
2.64261e-07
2.74137e-07
2.79214e-07
2.81703e-07
2.81455e-07
2.77524e-07
2.71538e-07
2.62726e-07
2.5097e-07
2.37378e-07
2.1997e-07
1.9786e-07
1.76579e-07
1.51643e-07
1.34827e-07
1.18499e-07
9.87984e-08
8.83798e-08
7.98351e-08
8.59609e-08
8.21257e-08
9.95287e-08
1.12936e-07
1.30495e-07
1.63852e-07
1.86201e-07
5.67272e-08
3.83654e-08
2.32802e-08
1.25777e-08
6.76356e-09
4.6739e-09
3.85377e-09
3.49509e-09
3.90469e-09
5.09202e-09
7.43198e-09
1.55238e-08
3.24507e-08
6.02489e-08
9.72756e-08
1.34939e-07
1.64997e-07
1.87712e-07
2.04335e-07
2.16621e-07
2.26366e-07
2.33656e-07
2.38313e-07
2.42283e-07
2.47486e-07
2.5454e-07
2.62886e-07
2.69966e-07
2.75334e-07
2.79873e-07
2.83785e-07
2.85312e-07
2.84926e-07
2.82392e-07
2.7816e-07
2.73387e-07
2.68518e-07
2.64e-07
2.59879e-07
2.5336e-07
2.41879e-07
2.30949e-07