/*--------------------------------*- C++ -*----------------------------------*\
| =========                 |                                                 |
| \\      /  F ield         | OpenFOAM: The Open Source CFD Toolbox           |
|  \\    /   O peration     | Version:  v1912                                 |
|   \\  /    A nd           | Website:  www.openfoam.com                      |
|    \\/     M anipulation  |                                                 |
\*---------------------------------------------------------------------------*/
FoamFile
{
    version     2.0;
    format      ascii;
    class       volScalarField;
    location    "50";
    object      omega;
}
// * * * * * * * * * * * * * * * * * * * * * * * * * * * * * * * * * * * * * //

dimensions      [0 0 -1 0 0 0 0];


internalField   nonuniform List<scalar> 
14268
(
0.0100093
0.00999561
0.00998242
0.0099688
0.00995539
0.00994227
0.00993106
0.00992312
0.00991791
0.00992171
0.00993541
0.00995773
0.00998609
0.0100179
0.0100527
0.0100903
0.0101312
0.0101739
0.0102151
0.010251
0.0102786
0.0102985
0.0103116
0.0103186
0.010322
0.0103244
0.010328
0.0103331
0.0103408
0.0103493
0.0103554
0.0103617
0.0103641
0.0103628
0.0103627
0.0103609
0.0103631
0.0103642
0.0103666
0.0103712
0.0103737
0.0103789
0.0103831
0.0103877
0.0103904
0.0103954
0.0104003
0.0104049
0.010413
0.0104161
0.0104237
0.0104275
0.0104312
0.0104431
0.0104524
0.0104715
0.0104879
0.0105064
0.010526
0.0105422
0.0105582
0.0105692
0.010577
0.0105794
0.0105783
0.0105742
0.0105715
0.0105678
0.0105655
0.0105636
0.0105623
0.0105619
0.0105624
0.0105628
0.0105636
0.0105647
0.0105643
0.0105666
0.0105662
0.0105714
0.0105801
0.0106026
0.0106352
0.0106753
0.0107256
0.0107763
0.190321
0.191541
0.193104
0.194551
0.195851
0.196862
0.197434
0.197482
0.197009
0.196239
0.195186
0.193877
0.192338
0.19065
0.188821
0.186898
0.18494
0.18298
0.181106
0.179401
0.177982
0.176948
0.17632
0.17605
0.176001
0.176053
0.176011
0.175828
0.175445
0.174847
0.174284
0.173677
0.173252
0.173123
0.17315
0.173654
0.174379
0.175293
0.176963
0.178031
0.180191
0.181819
0.184021
0.186087
0.188123
0.190275
0.191512
0.193505
0.193906
0.195442
0.195233
0.195816
0.195392
0.194961
0.194745
0.193656
0.193116
0.192094
0.191255
0.190212
0.18957
0.188542
0.188182
0.187538
0.187386
0.187423
0.187836
0.1886
0.189635
0.190887
0.192292
0.193779
0.1952
0.196604
0.197801
0.198783
0.199602
0.19997
0.200243
0.199998
0.199824
0.199067
0.198341
0.197803
0.197516
0.196417
0.243088
0.243447
0.243875
0.244211
0.244484
0.244616
0.244611
0.244454
0.244198
0.243897
0.24353
0.243108
0.242632
0.242105
0.241541
0.240958
0.24036
0.239756
0.239155
0.238573
0.238048
0.237622
0.237316
0.237136
0.23705
0.23702
0.236989
0.236934
0.236823
0.236647
0.236479
0.236289
0.236155
0.236121
0.236123
0.236284
0.236515
0.236803
0.237348
0.237687
0.238389
0.238918
0.239612
0.240243
0.240879
0.241459
0.241833
0.242296
0.2424
0.242728
0.242658
0.242754
0.242666
0.242542
0.242512
0.242233
0.242096
0.241842
0.24164
0.241377
0.241232
0.240984
0.240907
0.240767
0.240744
0.240792
0.240942
0.241199
0.241525
0.241911
0.242324
0.242728
0.243109
0.243458
0.243739
0.243977
0.244148
0.244235
0.244308
0.244228
0.244251
0.24403
0.243918
0.24385
0.243816
0.243455
0.252728
0.252718
0.252752
0.252767
0.25271
0.252668
0.25259
0.252514
0.252417
0.252284
0.252114
0.251903
0.251651
0.251379
0.251107
0.250845
0.250609
0.250401
0.250229
0.25006
0.249889
0.249724
0.249573
0.249443
0.249343
0.24926
0.249194
0.249134
0.249074
0.249022
0.248986
0.248951
0.248934
0.248939
0.248931
0.248952
0.24899
0.249022
0.249136
0.249198
0.249364
0.24951
0.249688
0.249874
0.250049
0.250184
0.250278
0.250311
0.250317
0.250318
0.250264
0.250222
0.250195
0.250135
0.250126
0.250043
0.249983
0.24991
0.249855
0.249774
0.249745
0.249687
0.249673
0.24965
0.249651
0.249672
0.249723
0.249802
0.249897
0.250015
0.25014
0.250238
0.250337
0.25041
0.250454
0.250507
0.250521
0.250531
0.250564
0.250507
0.25058
0.250458
0.25045
0.250421
0.25041
0.25042
0.254098
0.25419
0.254266
0.254241
0.254213
0.254123
0.254011
0.253896
0.253786
0.253684
0.253592
0.25351
0.253412
0.253303
0.2532
0.253111
0.253046
0.253003
0.252957
0.25289
0.252798
0.252678
0.252537
0.252384
0.252253
0.25212
0.252023
0.251937
0.251866
0.251822
0.251789
0.251779
0.251784
0.251799
0.251793
0.251777
0.251761
0.251728
0.251711
0.251698
0.251703
0.251737
0.25178
0.251831
0.25191
0.251898
0.251941
0.251841
0.251854
0.251722
0.251711
0.251582
0.251576
0.251498
0.251487
0.25146
0.251398
0.251374
0.251336
0.251308
0.251282
0.251286
0.251262
0.251278
0.251268
0.251283
0.251305
0.251339
0.251375
0.251426
0.251479
0.251494
0.251523
0.251527
0.251505
0.25152
0.25148
0.251481
0.251478
0.251442
0.251507
0.251419
0.251436
0.251448
0.251441
0.251476
0.254633
0.254641
0.254653
0.254614
0.254561
0.254504
0.254437
0.254384
0.254347
0.254316
0.254263
0.254168
0.254054
0.253933
0.253817
0.253718
0.253651
0.253605
0.253592
0.253576
0.253533
0.253456
0.253352
0.253226
0.253105
0.252971
0.252874
0.252787
0.252719
0.252685
0.252664
0.252676
0.252686
0.252696
0.252695
0.252663
0.25263
0.252572
0.252513
0.252482
0.252438
0.252451
0.252454
0.252484
0.252528
0.252502
0.252523
0.252394
0.252399
0.252228
0.252233
0.252069
0.252069
0.251977
0.251944
0.251945
0.251841
0.251831
0.251771
0.251742
0.251701
0.251707
0.251668
0.251674
0.251655
0.251656
0.251662
0.251679
0.251696
0.251727
0.251774
0.251771
0.251799
0.25179
0.251753
0.251771
0.251716
0.251722
0.251717
0.251684
0.251757
0.251671
0.251696
0.251708
0.251698
0.251685
0.254915
0.255027
0.25512
0.255132
0.255132
0.255046
0.25494
0.254826
0.254719
0.25462
0.254541
0.254486
0.254427
0.254367
0.254304
0.254244
0.254202
0.254174
0.254166
0.25415
0.254107
0.254033
0.253928
0.253798
0.25367
0.253528
0.253428
0.253338
0.253267
0.253231
0.253217
0.253244
0.253256
0.25327
0.253273
0.253239
0.253201
0.253135
0.253057
0.253025
0.252955
0.252974
0.25295
0.252998
0.253014
0.252998
0.253001
0.252857
0.25287
0.25266
0.252689
0.252479
0.252492
0.252358
0.252299
0.25232
0.252175
0.25218
0.252083
0.252063
0.251988
0.252001
0.251927
0.251947
0.251898
0.251893
0.251888
0.251899
0.251907
0.251936
0.251987
0.251973
0.252007
0.251986
0.251938
0.251966
0.251882
0.251912
0.251869
0.251875
0.251902
0.25185
0.251847
0.251875
0.25184
0.251827
0.25546
0.255597
0.25573
0.255773
0.255794
0.255742
0.255665
0.255557
0.25546
0.255376
0.25531
0.255193
0.255064
0.254959
0.254865
0.254784
0.254727
0.254694
0.254685
0.254691
0.254671
0.254617
0.254529
0.254409
0.254278
0.254129
0.254014
0.253914
0.253836
0.253801
0.253793
0.253826
0.253837
0.253851
0.253868
0.253827
0.253792
0.253715
0.253624
0.253596
0.253502
0.253549
0.25349
0.253585
0.253561
0.253583
0.253559
0.253431
0.253433
0.253207
0.253243
0.253001
0.253004
0.252841
0.25276
0.25278
0.252603
0.252605
0.252475
0.252443
0.252325
0.252343
0.252223
0.252238
0.252163
0.25214
0.252124
0.252125
0.252123
0.252148
0.252208
0.252187
0.252236
0.25221
0.252153
0.2522
0.252089
0.252155
0.252077
0.25212
0.252096
0.252073
0.252029
0.25207
0.252037
0.252009
0.256604
0.256875
0.257127
0.257268
0.257367
0.257339
0.257223
0.257018
0.256803
0.256571
0.256349
0.256149
0.255947
0.255798
0.255667
0.255551
0.25546
0.255389
0.255341
0.255319
0.255298
0.255254
0.255179
0.255065
0.254947
0.254811
0.254696
0.254591
0.254518
0.254487
0.254477
0.254515
0.254523
0.254544
0.25456
0.254524
0.254492
0.254406
0.254308
0.254271
0.254172
0.254254
0.254163
0.254308
0.254246
0.254331
0.254261
0.254166
0.254123
0.253915
0.253924
0.253652
0.253634
0.253443
0.25332
0.253344
0.253112
0.253117
0.252952
0.252908
0.252757
0.252762
0.252615
0.252609
0.252511
0.252466
0.252441
0.252435
0.252429
0.252461
0.252538
0.252514
0.25259
0.252559
0.252497
0.252572
0.252428
0.252545
0.252418
0.252504
0.25241
0.252418
0.252292
0.252348
0.252301
0.252267
0.258212
0.258564
0.25888
0.259059
0.259175
0.25917
0.259045
0.258812
0.258556
0.258278
0.257997
0.257718
0.257408
0.257139
0.256895
0.256702
0.256548
0.256428
0.256339
0.256274
0.256227
0.256173
0.256084
0.25596
0.255828
0.255679
0.255551
0.255435
0.255359
0.255327
0.255309
0.255338
0.255343
0.255364
0.25541
0.255373
0.255355
0.255254
0.255145
0.255113
0.254993
0.255119
0.255001
0.255195
0.25509
0.255243
0.255127
0.255073
0.254971
0.254812
0.254799
0.254512
0.254447
0.254226
0.254074
0.254087
0.253791
0.253801
0.253588
0.253534
0.253337
0.253321
0.253135
0.253119
0.25299
0.252921
0.252891
0.252877
0.252867
0.252909
0.253007
0.252982
0.253098
0.253061
0.253001
0.253114
0.252938
0.253109
0.252942
0.253057
0.252912
0.252914
0.252723
0.252738
0.252692
0.252629
0.260522
0.260991
0.26142
0.261719
0.26193
0.261953
0.261803
0.261514
0.261154
0.260721
0.260278
0.259859
0.259418
0.259018
0.258614
0.258282
0.258014
0.257792
0.25762
0.257483
0.257371
0.257288
0.257198
0.257082
0.256965
0.256822
0.25667
0.256531
0.256448
0.256396
0.256344
0.256353
0.256345
0.256377
0.256463
0.256438
0.256432
0.256317
0.256195
0.256154
0.256031
0.2562
0.256065
0.256325
0.256193
0.256422
0.256232
0.256248
0.256079
0.255985
0.255955
0.255641
0.255502
0.255257
0.255054
0.25504
0.254662
0.254666
0.25441
0.254341
0.254092
0.254069
0.253823
0.253798
0.253643
0.253557
0.25353
0.253509
0.2535
0.253563
0.253693
0.253671
0.253838
0.253809
0.253743
0.253893
0.25368
0.253869
0.253656
0.253758
0.253593
0.253583
0.253398
0.253291
0.253257
0.253105
0.263471
0.264032
0.264544
0.264907
0.265148
0.26514
0.264936
0.264582
0.26412
0.263549
0.26293
0.262316
0.26177
0.261272
0.260791
0.260354
0.259969
0.259638
0.259368
0.259148
0.258967
0.258831
0.258717
0.258594
0.258461
0.258302
0.258101
0.257919
0.257838
0.257793
0.257692
0.257649
0.257601
0.257652
0.257774
0.257752
0.257778
0.257628
0.257482
0.257415
0.257349
0.257537
0.257417
0.257743
0.257614
0.257908
0.257662
0.257755
0.257509
0.257467
0.257373
0.257067
0.25687
0.256588
0.256336
0.256273
0.255803
0.255797
0.255459
0.255368
0.255038
0.254991
0.254681
0.254628
0.254463
0.254362
0.254341
0.25433
0.254323
0.254412
0.254574
0.254558
0.254781
0.254746
0.254679
0.254849
0.254602
0.254777
0.254568
0.254595
0.254514
0.254377
0.254245
0.254007
0.253925
0.253765
0.267222
0.267938
0.2686
0.269073
0.269393
0.269426
0.269208
0.268774
0.268151
0.26734
0.266494
0.265664
0.264872
0.264221
0.263595
0.262997
0.262463
0.261991
0.261606
0.261285
0.261013
0.2608
0.260622
0.260479
0.260343
0.26017
0.259924
0.259659
0.259543
0.259456
0.259267
0.259185
0.259124
0.259179
0.259352
0.25935
0.259398
0.259258
0.25908
0.259008
0.259046
0.259252
0.259256
0.259627
0.259584
0.259945
0.259669
0.259835
0.259563
0.259569
0.259334
0.259063
0.258818
0.258394
0.258124
0.257962
0.257393
0.257339
0.256942
0.256794
0.25637
0.256272
0.255863
0.255781
0.255571
0.255454
0.255435
0.255439
0.255434
0.255558
0.255758
0.255758
0.256035
0.255991
0.255925
0.256106
0.255802
0.255951
0.255762
0.255705
0.255652
0.255421
0.255305
0.254965
0.254764
0.254541
0.271945
0.272847
0.273705
0.274333
0.274763
0.274877
0.274648
0.274088
0.27324
0.272149
0.270955
0.269766
0.268715
0.267751
0.2669
0.266174
0.265499
0.264859
0.264328
0.263889
0.263516
0.263204
0.262956
0.262809
0.262661
0.262465
0.262196
0.26191
0.26179
0.261695
0.261409
0.261222
0.261116
0.261182
0.261395
0.261435
0.261486
0.261356
0.261177
0.261082
0.261183
0.261413
0.261555
0.261962
0.262058
0.262429
0.262189
0.262373
0.262021
0.262036
0.261701
0.261406
0.261082
0.260576
0.260276
0.260046
0.259342
0.259285
0.258759
0.258575
0.258023
0.257874
0.257375
0.257222
0.256999
0.25682
0.256795
0.256794
0.256765
0.256898
0.257097
0.257098
0.257432
0.257352
0.257287
0.257472
0.257196
0.257196
0.257104
0.256855
0.256957
0.25654
0.256549
0.256037
0.255705
0.255647
0.275582
0.276689
0.277804
0.278729
0.27949
0.279937
0.27997
0.279406
0.278317
0.27692
0.275292
0.273652
0.272209
0.270974
0.269901
0.269023
0.268263
0.267492
0.266817
0.266239
0.265732
0.265311
0.264984
0.264808
0.264608
0.264322
0.263914
0.263606
0.263518
0.263417
0.263062
0.262775
0.262669
0.262711
0.262993
0.262988
0.263041
0.262914
0.262722
0.262613
0.262748
0.263005
0.263254
0.263709
0.263884
0.264241
0.264088
0.264243
0.263839
0.263835
0.26343
0.263107
0.262675
0.262114
0.261846
0.26159
0.260847
0.26079
0.26021
0.259969
0.259334
0.259103
0.25851
0.258324
0.258022
0.257814
0.257763
0.257758
0.25771
0.257853
0.258065
0.258076
0.258465
0.258392
0.258355
0.258556
0.25833
0.258231
0.258237
0.257851
0.258025
0.257495
0.257483
0.256901
0.25639
0.256361
0.277984
0.279302
0.280687
0.281886
0.282855
0.283423
0.283422
0.282731
0.281499
0.279809
0.277817
0.275896
0.274342
0.273007
0.271741
0.27064
0.269774
0.268973
0.268265
0.26766
0.267136
0.266699
0.266364
0.26619
0.265976
0.265624
0.265097
0.264729
0.264648
0.264557
0.264127
0.263744
0.263549
0.263598
0.263797
0.263857
0.263877
0.263772
0.263573
0.263464
0.263627
0.263953
0.264264
0.264761
0.264949
0.265272
0.265163
0.265307
0.264887
0.264824
0.264376
0.264019
0.263542
0.262947
0.262692
0.262371
0.261615
0.261577
0.260939
0.260711
0.259992
0.259744
0.259091
0.258864
0.258552
0.258317
0.258267
0.25827
0.258228
0.258411
0.258669
0.258708
0.259139
0.259088
0.259083
0.259284
0.259073
0.258904
0.258954
0.258501
0.258661
0.258058
0.258006
0.257401
0.256766
0.256783
0.280919
0.282494
0.284156
0.285555
0.286616
0.287214
0.287175
0.286297
0.28494
0.282915
0.28081
0.278695
0.27681
0.27519
0.273738
0.272417
0.271348
0.270456
0.269692
0.269043
0.268496
0.268045
0.267693
0.267524
0.267317
0.266958
0.266374
0.266014
0.265972
0.265846
0.265368
0.264845
0.264572
0.264509
0.264709
0.264751
0.264804
0.264712
0.264504
0.26442
0.264576
0.264957
0.265244
0.265684
0.265887
0.266246
0.266207
0.26638
0.265988
0.26588
0.265405
0.265032
0.264509
0.263962
0.263667
0.263235
0.26246
0.262349
0.261763
0.261399
0.260731
0.26043
0.259758
0.259499
0.259145
0.258907
0.258843
0.258865
0.258841
0.259082
0.259382
0.259488
0.259975
0.259934
0.259962
0.260116
0.259932
0.259679
0.259739
0.2592
0.259375
0.258672
0.258591
0.257929
0.257171
0.257233
0.284364
0.286182
0.288066
0.289638
0.290866
0.291601
0.291745
0.290735
0.289161
0.28689
0.284463
0.281989
0.279748
0.277782
0.276093
0.274579
0.273246
0.272176
0.271318
0.27059
0.269996
0.269543
0.269189
0.268996
0.268787
0.268431
0.267877
0.267428
0.267347
0.267241
0.266714
0.266097
0.265642
0.265542
0.26568
0.265731
0.265776
0.265715
0.265525
0.265456
0.265566
0.26586
0.266182
0.266551
0.26682
0.267241
0.267314
0.267608
0.267274
0.267276
0.266814
0.266455
0.265878
0.265294
0.264897
0.264342
0.263467
0.263285
0.262633
0.262269
0.261445
0.261133
0.260439
0.260155
0.259796
0.259556
0.2595
0.25955
0.259563
0.259884
0.260243
0.260427
0.260956
0.260937
0.260938
0.261084
0.260951
0.260588
0.260732
0.260058
0.26036
0.259492
0.259367
0.258655
0.257715
0.257785
0.288261
0.290309
0.292448
0.29434
0.295928
0.296854
0.297267
0.296157
0.294285
0.291644
0.288624
0.285668
0.28299
0.280653
0.278683
0.277016
0.275459
0.274122
0.273119
0.272304
0.271629
0.27113
0.270756
0.270524
0.270327
0.269998
0.26947
0.268951
0.268809
0.268616
0.268082
0.267352
0.266871
0.266725
0.26673
0.266863
0.266842
0.266772
0.266623
0.266517
0.266561
0.266742
0.267132
0.267463
0.26781
0.268323
0.268583
0.269068
0.268974
0.269159
0.268686
0.268259
0.267801
0.267065
0.266584
0.265712
0.264831
0.264511
0.263712
0.263225
0.262388
0.262025
0.261231
0.260912
0.26052
0.260296
0.260244
0.260339
0.260414
0.260826
0.261249
0.261503
0.262055
0.262072
0.262101
0.262253
0.262179
0.261715
0.261948
0.261204
0.261503
0.260482
0.260278
0.259522
0.258395
0.258457
0.292656
0.295026
0.297614
0.30009
0.302282
0.303621
0.304431
0.303516
0.301005
0.297752
0.293881
0.290172
0.28688
0.284101
0.281663
0.279696
0.277965
0.276423
0.275181
0.274278
0.273565
0.272998
0.27257
0.272279
0.272099
0.271786
0.271232
0.270659
0.270387
0.2701
0.269449
0.268686
0.267995
0.26762
0.267752
0.267777
0.267843
0.267913
0.26767
0.267592
0.267597
0.267679
0.268142
0.268527
0.268936
0.269634
0.270177
0.270867
0.271238
0.271458
0.270963
0.270538
0.270229
0.269275
0.268604
0.267505
0.266337
0.265973
0.265076
0.264355
0.263562
0.263003
0.262204
0.26181
0.261383
0.261159
0.261114
0.261266
0.261413
0.261918
0.262391
0.26272
0.2633
0.263367
0.263542
0.263644
0.263709
0.263144
0.263602
0.262703
0.263081
0.261837
0.261531
0.260639
0.259291
0.259386
0.297789
0.300668
0.303984
0.307344
0.310489
0.312738
0.313933
0.31347
0.310389
0.30606
0.300999
0.296077
0.291801
0.288235
0.285227
0.28278
0.28074
0.279009
0.277577
0.276458
0.275669
0.275053
0.274613
0.274297
0.274067
0.273718
0.273209
0.272486
0.272015
0.271566
0.27086
0.270091
0.269355
0.269017
0.268808
0.268914
0.268874
0.268972
0.268792
0.26875
0.268757
0.268793
0.26933
0.269843
0.2704
0.271384
0.272256
0.273263
0.27405
0.274393
0.273956
0.273636
0.273073
0.272018
0.271041
0.269567
0.268389
0.267768
0.266633
0.265853
0.264892
0.264227
0.263401
0.262933
0.262419
0.262194
0.262161
0.262362
0.262586
0.263179
0.263717
0.264172
0.264846
0.265061
0.2654
0.265534
0.265887
0.265287
0.26599
0.264795
0.265551
0.263862
0.263262
0.262197
0.260468
0.260588
0.304373
0.308089
0.312591
0.317327
0.322072
0.32605
0.328056
0.32812
0.324376
0.318353
0.311355
0.304341
0.298315
0.293501
0.289617
0.286448
0.284004
0.28207
0.280457
0.279173
0.278225
0.277607
0.277196
0.276859
0.276561
0.27614
0.275484
0.274802
0.274139
0.273332
0.27238
0.271441
0.270699
0.270192
0.269957
0.269913
0.269913
0.27011
0.270009
0.270107
0.270217
0.270274
0.270944
0.271625
0.272564
0.273972
0.275299
0.276737
0.278022
0.278645
0.278386
0.278099
0.276947
0.275919
0.274567
0.272496
0.270897
0.270104
0.268717
0.267522
0.266522
0.265739
0.264818
0.264266
0.263741
0.263494
0.263444
0.263734
0.26405
0.264762
0.265433
0.266151
0.267064
0.267649
0.268259
0.268643
0.269446
0.268864
0.269999
0.268405
0.269739
0.267123
0.266009
0.264618
0.262375
0.262233
0.313143
0.318147
0.324499
0.331448
0.338843
0.345916
0.35033
0.350903
0.346474
0.337666
0.327178
0.316706
0.307902
0.300994
0.295573
0.291368
0.28807
0.285598
0.283705
0.282185
0.281071
0.280359
0.279883
0.279547
0.279324
0.278915
0.278171
0.277186
0.276321
0.275444
0.274233
0.273398
0.272365
0.271481
0.271299
0.271111
0.271164
0.271593
0.271575
0.271854
0.272082
0.272297
0.273229
0.274201
0.275824
0.277816
0.280026
0.282089
0.284037
0.285058
0.284926
0.284883
0.283157
0.282085
0.27988
0.276626
0.27452
0.273133
0.271245
0.269811
0.268569
0.267599
0.266625
0.265968
0.265381
0.265114
0.265124
0.265508
0.265996
0.266914
0.267886
0.269133
0.270546
0.27185
0.273097
0.273999
0.275783
0.275417
0.277553
0.275331
0.277136
0.27276
0.271015
0.269069
0.26577
0.264944
0.324866
0.331877
0.341242
0.35208
0.364193
0.376675
0.385996
0.388067
0.381817
0.368196
0.351994
0.335644
0.321834
0.311405
0.303632
0.297798
0.29341
0.29019
0.287889
0.286121
0.284812
0.283965
0.283408
0.283095
0.282704
0.282093
0.281148
0.27999
0.279023
0.277764
0.276357
0.275319
0.274435
0.27343
0.27293
0.272699
0.272759
0.27333
0.273416
0.274039
0.274487
0.274997
0.276384
0.277999
0.28059
0.283683
0.28726
0.290257
0.293447
0.295028
0.295347
0.295539
0.293063
0.2917
0.288294
0.283107
0.279803
0.277545
0.274903
0.272791
0.271328
0.269979
0.268886
0.268189
0.267435
0.267326
0.267321
0.267927
0.268718
0.270048
0.271622
0.273791
0.276153
0.27885
0.281197
0.283342
0.287049
0.287471
0.291618
0.288167
0.290254
0.282767
0.279983
0.27686
0.271597
0.269848
0.341102
0.351311
0.365418
0.383018
0.403763
0.425744
0.44409
0.451149
0.441265
0.41819
0.391936
0.365252
0.343292
0.326987
0.315173
0.306687
0.300557
0.296146
0.293114
0.290853
0.289176
0.288043
0.287578
0.287215
0.286793
0.285997
0.284769
0.283689
0.282546
0.281008
0.279214
0.277751
0.276619
0.275463
0.274795
0.274522
0.274654
0.275506
0.275833
0.276808
0.277741
0.27866
0.280874
0.283686
0.287814
0.292982
0.298715
0.303396
0.308637
0.311219
0.312323
0.313092
0.309278
0.307084
0.301869
0.293283
0.288325
0.284465
0.280302
0.277028
0.274989
0.273127
0.27187
0.270907
0.270299
0.270238
0.27047
0.27145
0.272855
0.274949
0.277648
0.281534
0.28561
0.290831
0.295534
0.30003
0.307221
0.309753
0.316809
0.31097
0.313505
0.301166
0.296141
0.290872
0.282198
0.278379
0.364389
0.38002
0.402003
0.431572
0.469494
0.510992
0.546692
0.56478
0.54782
0.503731
0.459075
0.413124
0.376659
0.350467
0.332063
0.319272
0.310446
0.304265
0.300162
0.2972
0.295137
0.293822
0.293086
0.292612
0.291955
0.29085
0.289347
0.287908
0.286364
0.284466
0.282363
0.280925
0.279596
0.278446
0.277423
0.277196
0.277417
0.278384
0.279204
0.280574
0.282123
0.283783
0.287458
0.292228
0.298932
0.307672
0.316626
0.324766
0.333136
0.338172
0.340843
0.343189
0.336438
0.33286
0.324783
0.310758
0.302186
0.295367
0.288304
0.283795
0.280706
0.277922
0.27637
0.275225
0.274472
0.27462
0.275301
0.276983
0.279493
0.282892
0.287577
0.294393
0.301581
0.311637
0.319934
0.329205
0.343269
0.349891
0.360726
0.350903
0.355247
0.335322
0.325539
0.316102
0.301101
0.293637
0.399145
0.424072
0.459036
0.508801
0.579227
0.660462
0.733148
0.776173
0.746858
0.657146
0.577934
0.492946
0.430083
0.387265
0.357983
0.338085
0.324756
0.315852
0.309908
0.305839
0.30332
0.301649
0.300705
0.300084
0.299128
0.297575
0.295792
0.294043
0.292219
0.289617
0.286358
0.28436
0.282798
0.281672
0.280496
0.280371
0.280871
0.282114
0.28362
0.285688
0.288408
0.291247
0.297425
0.305369
0.316509
0.330775
0.345572
0.359225
0.373329
0.38302
0.389429
0.394285
0.382836
0.37613
0.363959
0.341046
0.325688
0.313646
0.302073
0.294097
0.289064
0.284575
0.28255
0.281206
0.280415
0.281415
0.282792
0.28577
0.290271
0.295916
0.304071
0.315803
0.328762
0.347056
0.361915
0.379603
0.405249
0.419619
0.434907
0.4199
0.427541
0.396308
0.377957
0.360842
0.334148
0.320219
0.452528
0.49387
0.551643
0.637872
0.772019
0.936237
1.0897
1.18711
1.122
0.941279
0.800851
0.632308
0.516957
0.444663
0.397589
0.36625
0.345647
0.332359
0.32349
0.317608
0.314037
0.311705
0.310509
0.309763
0.30843
0.306076
0.303344
0.301059
0.298704
0.295697
0.291773
0.289065
0.287152
0.285946
0.284804
0.284895
0.285856
0.287705
0.290001
0.29299
0.297658
0.302519
0.312798
0.325678
0.343751
0.366572
0.391013
0.413779
0.437337
0.456466
0.468123
0.479361
0.460185
0.446825
0.42776
0.391246
0.366084
0.344704
0.325507
0.311929
0.302833
0.295949
0.292721
0.290545
0.290111
0.292093
0.295002
0.300064
0.307814
0.317254
0.3313
0.351035
0.373744
0.405609
0.431129
0.462899
0.506802
0.531891
0.554719
0.534777
0.546315
0.499887
0.46773
0.43813
0.392129
0.36606
0.537445
0.609344
0.713062
0.884672
1.17025
1.52582
1.86366
2.06291
1.85019
1.48248
1.23604
0.891977
0.664958
0.53529
0.459251
0.40956
0.377507
0.35735
0.344105
0.335878
0.331144
0.328086
0.326532
0.32558
0.323617
0.320022
0.315653
0.311916
0.308184
0.303689
0.298708
0.295514
0.293382
0.292062
0.291173
0.291523
0.293074
0.295898
0.299074
0.30363
0.31132
0.319783
0.33659
0.357037
0.385788
0.422052
0.462033
0.499432
0.539038
0.57384
0.593793
0.614833
0.585394
0.559729
0.529487
0.472212
0.430153
0.396526
0.36414
0.341673
0.326123
0.315262
0.309584
0.306069
0.305961
0.309328
0.314722
0.32331
0.336313
0.351882
0.375504
0.408313
0.446854
0.499632
0.542076
0.597124
0.665771
0.706352
0.739736
0.714479
0.733854
0.668299
0.613294
0.565707
0.491121
0.443109
0.681382
0.817431
1.03232
1.42855
2.14016
3.15293
4.14578
4.49299
3.56379
2.59748
2.07752
1.40214
0.938226
0.678921
0.553963
0.47538
0.425116
0.393775
0.373737
0.362003
0.35517
0.350799
0.348934
0.347983
0.345811
0.340782
0.333942
0.327457
0.321541
0.314688
0.307696
0.303263
0.300811
0.299545
0.2994
0.300484
0.303091
0.30755
0.312521
0.31974
0.332158
0.346545
0.373356
0.405313
0.45034
0.507422
0.571388
0.631845
0.697537
0.75644
0.789611
0.829364
0.784199
0.735844
0.687375
0.596998
0.52869
0.477141
0.425248
0.389489
0.364594
0.346928
0.337101
0.3316
0.331569
0.337149
0.346177
0.360307
0.38137
0.406389
0.445013
0.498028
0.56166
0.647789
0.717712
0.810628
0.912179
0.975129
1.01043
0.985783
1.02494
0.940271
0.84341
0.770572
0.652973
0.568748
0.933522
1.19614
1.63336
2.43662
3.80394
6.40746
9.73707
12.1363
9.02687
5.59115
3.71611
2.41409
1.49204
0.918085
0.699462
0.576261
0.498769
0.450475
0.420448
0.402829
0.392088
0.385321
0.383287
0.383173
0.380922
0.373612
0.362247
0.350803
0.341144
0.331021
0.321693
0.315186
0.311808
0.310566
0.311411
0.313985
0.318417
0.325124
0.332933
0.344067
0.363622
0.387652
0.429477
0.479006
0.549099
0.637635
0.739695
0.839803
0.951782
1.05504
1.12185
1.18906
1.12214
1.01935
0.93772
0.787998
0.675619
0.595449
0.516461
0.461518
0.423558
0.395352
0.379924
0.371883
0.371508
0.380653
0.394636
0.416948
0.450125
0.489678
0.551149
0.635022
0.737553
0.876862
0.995249
1.1435
1.29123
1.39376
1.4053
1.39526
1.46789
1.37768
1.20198
1.09127
0.910997
0.773609
1.34643
1.80268
2.51484
3.6114
5.87132
11.3343
20.2464
23.1423
23.0581
17.8047
8.508
4.47665
2.65516
1.35063
0.924898
0.726499
0.607686
0.535354
0.491453
0.465008
0.449161
0.439378
0.43721
0.438763
0.436793
0.425864
0.406738
0.386323
0.369682
0.354309
0.341857
0.332933
0.328363
0.327127
0.329161
0.333845
0.340946
0.350778
0.36268
0.379826
0.410629
0.450218
0.51464
0.590951
0.701927
0.841081
1.00929
1.1882
1.38713
1.58304
1.74028
1.84908
1.73861
1.51582
1.38223
1.10021
0.898477
0.766325
0.648867
0.567465
0.51009
0.467267
0.442894
0.430699
0.430384
0.44488
0.466456
0.500444
0.551994
0.613759
0.708173
0.837131
0.996841
1.22012
1.42071
1.64833
1.86716
2.0396
2.02327
2.02348
2.15599
2.05756
1.75204
1.57783
1.31227
1.11103
1.9471
2.59767
3.42527
4.92988
14.192
32.6442
55.8805
89.6828
50.9304
36.6083
28.417
12.0686
5.19635
2.21838
1.29269
0.955912
0.771449
0.663641
0.599692
0.561341
0.538197
0.524611
0.523509
0.527732
0.525718
0.508896
0.477721
0.442555
0.413639
0.389089
0.370766
0.357986
0.351574
0.350454
0.354243
0.361971
0.373036
0.38778
0.406369
0.433099
0.481318
0.544972
0.644053
0.763797
0.94585
1.17818
1.46655
1.81352
2.20524
2.61407
2.97435
3.19304
2.93276
2.41655
2.31132
1.68426
1.25999
1.02032
0.836411
0.716194
0.634738
0.573345
0.538474
0.520378
0.520385
0.54109
0.573868
0.62356
0.699562
0.792131
0.933897
1.13265
1.3865
1.75611
2.12041
2.55057
3.00403
3.42343
3.51727
3.35491
3.46517
3.1431
2.60903
2.31219
1.92584
1.67939
2.66363
3.36627
4.53232
11.0258
22.6854
38.3736
39.0034
34.2829
70.7199
60.2014
66.1197
39.8103
16.8544
4.24796
2.04791
1.29533
1.01894
0.857427
0.764526
0.7096
0.67665
0.659232
0.661177
0.670052
0.667002
0.639119
0.588172
0.530802
0.483677
0.443881
0.415145
0.395735
0.385611
0.383985
0.389848
0.401824
0.418873
0.441358
0.470937
0.51219
0.586274
0.687903
0.843081
1.04335
1.36122
1.78634
2.33216
3.06363
3.95501
5.35453
7.02573
7.80919
6.4721
4.59594
4.57454
3.0295
1.95197
1.43528
1.12372
0.91657
0.794385
0.711226
0.663472
0.64392
0.645428
0.67566
0.721599
0.791003
0.903243
1.04761
1.26571
1.58038
1.99401
2.5985
3.19277
4.22896
5.57629
7.43001
9.22605
9.3994
9.01685
6.66529
4.82947
3.72185
2.90667
2.65515
3.36171
4.35036
10.0388
15.6074
22.5408
26.6957
16.6133
13.6083
16.9052
30.3861
68.8878
68.1627
47.5509
16.0978
4.94568
1.75206
1.37454
1.15129
1.02144
0.944953
0.901108
0.881218
0.889125
0.903205
0.894362
0.844215
0.757507
0.661613
0.585203
0.523293
0.479533
0.450444
0.43469
0.431836
0.439939
0.457654
0.483274
0.517114
0.563787
0.627645
0.740081
0.906953
1.1556
1.49736
2.04676
2.74469
3.4945
4.66798
6.20173
9.69699
14.4045
15.9163
17.2814
16.5318
15.024
7.5922
4.23019
2.12883
1.61991
1.2529
1.03548
0.89281
0.826155
0.795592
0.803641
0.851615
0.921803
1.02726
1.20185
1.42742
1.76463
2.25696
2.79426
3.54969
4.24144
6.61533
10.5197
11.7993
12.8758
13.5896
14.5026
16.2622
14.1816
10.4182
5.9429
4.59731
4.35617
12.4261
15.159
15.5721
18.6261
13.0052
7.40526
5.71816
6.6468
8.08486
12.9633
32.4111
83.4823
82.0565
36.2993
2.37215
1.81818
1.55434
1.39942
1.31012
1.26431
1.25032
1.27911
1.29514
1.27334
1.18376
1.03522
0.86851
0.736129
0.637074
0.570334
0.527
0.502941
0.497883
0.508505
0.533735
0.571051
0.621049
0.69399
0.796055
0.96721
1.23938
1.63559
2.18691
2.92027
3.70439
4.38954
8.49951
10.9413
14.0507
17.948
20.3852
21.7061
26.6267
36.1216
41.5382
26.1475
3.3087
2.43065
1.84142
1.46605
1.2073
1.08891
1.03515
1.04319
1.11346
1.22609
1.38829
1.65761
2.00676
2.48802
3.0609
3.40923
5.05165
9.08588
12.804
16.6385
20.3323
23.8376
18.9727
17.6654
21.5655
20.2755
20.7541
19.3207
15.2436
14.0594
16.9466
13.0057
13.8938
11.4779
6.17298
3.56577
2.83928
2.93739
3.38211
4.77108
8.94769
24.1975
149.883
93.8126
5.53518
2.3526
2.02952
1.86288
1.7921
1.77128
1.79167
1.90297
1.91283
1.88003
1.73395
1.49294
1.21204
0.975026
0.803421
0.696147
0.630662
0.594757
0.586
0.599299
0.63407
0.687336
0.76165
0.876879
1.04365
1.30826
1.75028
2.35533
2.99661
3.50207
4.82594
7.32636
9.78477
11.3874
12.5374
14.056
15.1546
17.9172
25.7493
44.9198
97.8828
136.955
8.5769
3.9105
2.81533
2.18039
1.75056
1.53203
1.43251
1.44462
1.53808
1.70942
1.9528
2.36509
2.81855
3.31427
3.73354
6.56925
8.93162
10.5352
12.4012
14.1361
14.9544
15.9189
16.6864
16.0418
19.0217
27.7679
29.3034
32.0714
37.63
15.3239
12.3506
11.1004
10.1804
5.98945
3.10869
1.92558
1.62576
1.65704
1.7632
2.34355
4.02234
5.92386
38.7598
74.7937
11.5474
4.36262
2.74269
2.41878
2.37981
2.43393
2.55826
2.92778
2.86215
2.82141
2.57919
2.21627
1.77679
1.37834
1.06972
0.880405
0.772102
0.715376
0.700406
0.716966
0.764518
0.841527
0.956538
1.14298
1.42197
1.84333
2.49505
3.19261
3.50768
5.93355
7.34806
8.23827
9.20274
9.58125
8.82866
8.166
8.81101
9.21358
14.6347
31.7622
114.14
169.235
21.0444
13.6018
5.33034
3.29687
2.64984
2.27504
2.08714
2.08323
2.21896
2.48537
2.8304
3.29757
3.62395
5.05709
10.3101
7.61387
8.86037
9.70041
9.50853
8.22993
6.67468
6.61209
6.15074
7.75607
8.59617
11.1512
19.4289
28.9866
35.3574
10.2518
9.20298
8.60706
5.88867
3.13991
1.7545
1.2227
1.08405
1.08229
1.0971
1.32312
2.00367
2.5011
4.20537
8.65341
11.3759
5.9611
5.63901
4.67727
4.15267
4.21118
4.68847
6.16815
5.4816
5.15303
4.12338
3.31728
2.63494
2.0405
1.52824
1.18156
0.982135
0.882546
0.853738
0.873577
0.941266
1.05923
1.24632
1.55557
2.03232
2.67301
3.43164
4.05042
7.34569
6.47659
7.2296
7.60875
7.10966
5.79995
4.08914
3.77217
4.04265
3.757
4.43919
9.18536
20.5071