/*--------------------------------*- C++ -*----------------------------------*\
| =========                 |                                                 |
| \\      /  F ield         | OpenFOAM: The Open Source CFD Toolbox           |
|  \\    /   O peration     | Version:  v1912                                 |
|   \\  /    A nd           | Website:  www.openfoam.com                      |
|    \\/     M anipulation  |                                                 |
\*---------------------------------------------------------------------------*/
FoamFile
{
    version     2.0;
    format      ascii;
    class       volVectorField;
    location    "80";
    object      U;
}
// * * * * * * * * * * * * * * * * * * * * * * * * * * * * * * * * * * * * * //

dimensions      [0 1 -1 0 0 0 0];


internalField   nonuniform List<vector> 
14268
(
(2.77044 -3.34675e-05 0)
(2.78792 -6.12541e-05 0)
(2.81475 -9.8375e-05 0)
(2.85026 -0.000109598 0)
(2.88226 -6.95855e-05 0)
(2.8979 1.10336e-05 0)
(2.89833 0.000150674 0)
(2.88417 0.000340817 0)
(2.83367 0.000682616 0)
(2.72189 0.00108304 0)
(2.53315 0.00142204 0)
(2.27458 0.0014723 0)
(2.02955 0.00115066 0)
(1.87684 0.000572126 0)
(1.84913 6.08757e-06 0)
(1.91061 -0.000439753 0)
(2.05422 -0.000733329 0)
(2.22246 -0.000739513 0)
(2.35713 -0.000583554 0)
(2.46219 -0.000467047 0)
(2.56182 -0.00050595 0)
(2.68411 -0.000692426 0)
(2.84043 -0.000803907 0)
(3.00085 -0.000743697 0)
(3.12603 -0.000588461 0)
(3.21854 -0.000409352 0)
(3.28438 -0.00026996 0)
(3.33289 -0.00023282 0)
(3.37399 -0.000284362 0)
(3.41437 -0.000351542 0)
(3.45551 -0.000384891 0)
(3.49719 -0.000386489 0)
(3.53831 -0.00035681 0)
(3.57304 -0.000261429 0)
(3.58458 -7.0638e-05 0)
(3.56021 0.000225585 0)
(3.47089 0.000760912 0)
(3.3152 0.00107294 0)
(3.10618 0.00109846 0)
(2.99369 0.000436352 0)
(2.8982 0.000791142 0)
(2.69386 0.00150159 0)
(2.29855 0.00286134 0)
(1.8292 -0.00651573 0)
(2.77041 -0.000234334 0)
(2.7879 -0.000390184 0)
(2.81472 -0.000545014 0)
(2.85023 -0.000569574 0)
(2.88224 -0.000431067 0)
(2.89787 -0.000183949 0)
(2.89831 7.85537e-06 0)
(2.88415 0.000324607 0)
(2.83365 0.000984421 0)
(2.72187 0.00201331 0)
(2.53313 0.0031573 0)
(2.27455 0.00375824 0)
(2.0295 0.00315436 0)
(1.87678 0.00146741 0)
(1.84907 -0.00037695 0)
(1.91055 -0.00178849 0)
(2.05417 -0.00259804 0)
(2.22241 -0.00246252 0)
(2.35708 -0.00189328 0)
(2.46215 -0.00154011 0)
(2.56177 -0.00169426 0)
(2.68407 -0.00224343 0)
(2.8404 -0.00254721 0)
(3.00084 -0.00223547 0)
(3.12603 -0.00166616 0)
(3.21852 -0.00119809 0)
(3.28436 -0.00087972 0)
(3.33287 -0.00067033 0)
(3.37398 -0.000541504 0)
(3.41436 -0.000479204 0)
(3.45551 -0.000458433 0)
(3.49718 -0.000464435 0)
(3.53831 -0.000446659 0)
(3.57303 -0.000260488 0)
(3.58456 0.000233679 0)
(3.56019 0.000966965 0)
(3.47086 0.00178041 0)
(3.31514 0.00262703 0)
(3.10637 0.00231157 0)
(2.99327 0.00152773 0)
(2.8978 0.00224293 0)
(2.69352 0.00473858 0)
(2.2961 0.0063722 0)
(1.8265 0.0128566 0)
(2.77038 -0.00030088 0)
(2.78784 -0.000517629 0)
(2.81469 -0.000747802 0)
(2.8502 -0.00079427 0)
(2.88222 -0.000573405 0)
(2.89786 -0.000169445 0)
(2.89829 0.000282684 0)
(2.88413 0.000959518 0)
(2.83364 0.00227944 0)
(2.72186 0.00407942 0)
(2.53312 0.00582711 0)
(2.27452 0.00656505 0)
(2.02944 0.00538372 0)
(1.8767 0.00258585 0)
(1.84899 -0.000372467 0)
(1.91049 -0.00265911 0)
(2.05412 -0.00402009 0)
(2.22237 -0.00390999 0)
(2.35702 -0.00305307 0)
(2.46209 -0.00249356 0)
(2.56171 -0.00274562 0)
(2.684 -0.00364129 0)
(2.84035 -0.00412161 0)
(3.00079 -0.00372053 0)
(3.12598 -0.00287108 0)
(3.21847 -0.00205268 0)
(3.28431 -0.00144684 0)
(3.33282 -0.00115577 0)
(3.37393 -0.00112637 0)
(3.41431 -0.00119028 0)
(3.45546 -0.00123371 0)
(3.49713 -0.00124209 0)
(3.53825 -0.00116584 0)
(3.57297 -0.000791964 0)
(3.58449 4.12924e-05 0)
(3.56013 0.00131839 0)
(3.4708 0.00320343 0)
(3.31509 0.00463254 0)
(3.10665 0.00438084 0)
(2.99264 0.00234952 0)
(2.897 0.00382561 0)
(2.69234 0.00778311 0)
(2.29399 0.0122147 0)
(1.82452 0.00464195 0)
(2.77049 -0.000479161 0)
(2.78775 -0.000829478 0)
(2.81461 -0.00118029 0)
(2.85014 -0.00124172 0)
(2.88218 -0.000927463 0)
(2.89782 -0.000348982 0)
(2.89826 0.000190834 0)
(2.88411 0.00103107 0)
(2.83362 0.00271209 0)
(2.72185 0.00519558 0)
(2.53311 0.00785304 0)
(2.2745 0.00896395 0)
(2.0294 0.00743341 0)
(1.87666 0.00351414 0)
(1.84896 -0.000717621 0)
(1.91046 -0.00396629 0)
(2.05412 -0.00585102 0)
(2.22237 -0.00560026 0)
(2.35702 -0.00433232 0)
(2.46208 -0.00352809 0)
(2.56169 -0.003889 0)
(2.68398 -0.00515769 0)
(2.84032 -0.00586578 0)
(3.00077 -0.00517567 0)
(3.12596 -0.00389099 0)
(3.21844 -0.00278396 0)
(3.28426 -0.00201482 0)
(3.33277 -0.00156312 0)
(3.37388 -0.001357 0)
(3.41428 -0.00130542 0)
(3.45544 -0.00129357 0)
(3.49713 -0.00130588 0)
(3.53826 -0.00124159 0)
(3.57298 -0.000772651 0)
(3.5845 0.000433025 0)
(3.56011 0.00219891 0)
(3.47073 0.00425231 0)
(3.31502 0.00638791 0)
(3.10697 0.00579904 0)
(2.9918 0.00353463 0)
(2.8958 0.00533391 0)
(2.69098 0.011056 0)
(2.29117 0.0161073 0)
(1.8228 0.0172216 0)
(2.77088 -0.000571643 0)
(2.78771 -0.00096376 0)
(2.81449 -0.00140387 0)
(2.85006 -0.00148592 0)
(2.88211 -0.00108242 0)
(2.89777 -0.000358108 0)
(2.89822 0.00039455 0)
(2.88408 0.00155074 0)
(2.8336 0.00384496 0)
(2.72183 0.00705887 0)
(2.5331 0.0102583 0)
(2.27449 0.0118158 0)
(2.02938 0.00970875 0)
(1.87669 0.00460566 0)
(1.84893 -0.000788698 0)
(1.91046 -0.00494513 0)
(2.05416 -0.00743758 0)
(2.22244 -0.00715298 0)
(2.35707 -0.00555532 0)
(2.46211 -0.00451963 0)
(2.56171 -0.00493098 0)
(2.68398 -0.0065763 0)
(2.84034 -0.00749849 0)
(3.00081 -0.00672907 0)
(3.12599 -0.00514551 0)
(3.21846 -0.00367846 0)
(3.28428 -0.00261349 0)
(3.33278 -0.00206984 0)
(3.37389 -0.00196657 0)
(3.41428 -0.00203052 0)
(3.45544 -0.00209522 0)
(3.49714 -0.00211175 0)
(3.53828 -0.00198259 0)
(3.573 -0.0013326 0)
(3.58453 0.000166314 0)
(3.56014 0.00252011 0)
(3.47074 0.0058742 0)
(3.31505 0.0082859 0)
(3.10732 0.0077081 0)
(2.99081 0.00432944 0)
(2.89421 0.00689255 0)
(2.68904 0.0142247 0)
(2.2875 0.0209588 0)
(1.81912 0.01588 0)
(2.77146 -0.00076283 0)
(2.78784 -0.00125397 0)
(2.81438 -0.00181683 0)
(2.84995 -0.00191674 0)
(2.88204 -0.00142134 0)
(2.89771 -0.000507189 0)
(2.89817 0.000388349 0)
(2.88404 0.00174537 0)
(2.83357 0.0043822 0)
(2.72181 0.00822578 0)
(2.53308 0.0123656 0)
(2.27447 0.0142426 0)
(2.02935 0.0117543 0)
(1.87664 0.00557458 0)
(1.84888 -0.00103153 0)
(1.91043 -0.00611408 0)
(2.05419 -0.00911951 0)
(2.22249 -0.00881414 0)
(2.35712 -0.00680788 0)
(2.46214 -0.00551596 0)
(2.56171 -0.00607525 0)
(2.68398 -0.00804057 0)
(2.84035 -0.00913151 0)
(3.00083 -0.00812872 0)
(3.12601 -0.006159 0)
(3.21848 -0.00439614 0)
(3.28429 -0.0031681 0)
(3.33279 -0.00248146 0)
(3.3739 -0.00219251 0)
(3.41428 -0.00213231 0)
(3.45544 -0.00211047 0)
(3.49713 -0.00212952 0)
(3.53827 -0.00203731 0)
(3.57301 -0.00128665 0)
(3.58455 0.000554244 0)
(3.56019 0.00323701 0)
(3.4708 0.00673864 0)
(3.31516 0.00996691 0)
(3.10767 0.00922945 0)
(2.98979 0.005547 0)
(2.89224 0.00844413 0)
(2.68649 0.0172285 0)
(2.28313 0.0258634 0)
(1.81447 0.0222816 0)
(2.77213 -0.000829206 0)
(2.78822 -0.00139422 0)
(2.81438 -0.00202555 0)
(2.84987 -0.00216801 0)
(2.882 -0.00159244 0)
(2.89767 -0.000554185 0)
(2.89813 0.000499584 0)
(2.88401 0.00216531 0)
(2.83355 0.00549877 0)
(2.72179 0.010202 0)
(2.53306 0.0148797 0)
(2.27445 0.0168282 0)
(2.02929 0.0138881 0)
(1.87655 0.0065927 0)
(1.84879 -0.00120796 0)
(1.91037 -0.00718013 0)
(2.05418 -0.0106968 0)
(2.22251 -0.0102422 0)
(2.35714 -0.00800698 0)
(2.46215 -0.00655772 0)
(2.5617 -0.00721024 0)
(2.68396 -0.00958342 0)
(2.84035 -0.010898 0)
(3.00085 -0.00971136 0)
(3.12604 -0.00740827 0)
(3.21851 -0.00532243 0)
(3.28431 -0.003783 0)
(3.3328 -0.00295787 0)
(3.37391 -0.00277637 0)
(3.41429 -0.00287185 0)
(3.45544 -0.00296087 0)
(3.49713 -0.00297694 0)
(3.53827 -0.0027764 0)
(3.57301 -0.0018484 0)
(3.58458 0.000378517 0)
(3.56025 0.00375448 0)
(3.47088 0.00816946 0)
(3.31533 0.011867 0)
(3.10801 0.0111103 0)
(2.98867 0.00641234 0)
(2.88991 0.00997879 0)
(2.68342 0.0206765 0)
(2.27831 0.0298288 0)
(1.80903 0.0260692 0)
(2.77289 -0.00100404 0)
(2.78882 -0.00170853 0)
(2.81459 -0.00242815 0)
(2.84984 -0.00258043 0)
(2.88199 -0.00191116 0)
(2.89767 -0.000658358 0)
(2.89814 0.000586386 0)
(2.88403 0.00244027 0)
(2.83358 0.00612954 0)
(2.72181 0.0114546 0)
(2.53306 0.017009 0)
(2.27443 0.019446 0)
(2.02921 0.0160259 0)
(1.87643 0.00764534 0)
(1.84868 -0.00135478 0)
(1.91028 -0.00835734 0)
(2.05414 -0.0124621 0)
(2.22251 -0.012026 0)
(2.35714 -0.00925816 0)
(2.46214 -0.0075172 0)
(2.56168 -0.00825849 0)
(2.68394 -0.0109732 0)
(2.84035 -0.0124741 0)
(3.00089 -0.0111085 0)
(3.12608 -0.00840543 0)
(3.21854 -0.00596874 0)
(3.28434 -0.0043004 0)
(3.33282 -0.00341421 0)
(3.37391 -0.00306014 0)
(3.41428 -0.00297509 0)
(3.45545 -0.00296835 0)
(3.49713 -0.00300148 0)
(3.53827 -0.00287291 0)
(3.57302 -0.00183777 0)
(3.58461 0.000654344 0)
(3.5603 0.00449375 0)
(3.47095 0.00959296 0)
(3.31551 0.0138413 0)
(3.10831 0.0127363 0)
(2.98743 0.0076055 0)
(2.88727 0.0115933 0)
(2.67993 0.0235717 0)
(2.27334 0.0354171 0)
(1.80211 0.0286844 0)
(2.77368 -0.00107875 0)
(2.78954 -0.00182547 0)
(2.81502 -0.00266036 0)
(2.84991 -0.00284704 0)
(2.88202 -0.0021073 0)
(2.89769 -0.000755026 0)
(2.89817 0.000608286 0)
(2.88408 0.00276277 0)
(2.83366 0.00698707 0)
(2.72191 0.0129669 0)
(2.53314 0.0191366 0)
(2.27444 0.0220141 0)
(2.02912 0.0182146 0)
(1.8763 0.0086192 0)
(1.84853 -0.00162273 0)
(1.91017 -0.00945307 0)
(2.0541 -0.0140269 0)
(2.22251 -0.0134828 0)
(2.35715 -0.0105003 0)
(2.46213 -0.00854731 0)
(2.56165 -0.00937231 0)
(2.6839 -0.0124568 0)
(2.84034 -0.0141862 0)
(3.00092 -0.0126768 0)
(3.12613 -0.00967925 0)
(3.21858 -0.00698552 0)
(3.28437 -0.0049683 0)
(3.33284 -0.00384159 0)
(3.37393 -0.00355764 0)
(3.41429 -0.00366821 0)
(3.45546 -0.00375929 0)
(3.49714 -0.00378141 0)
(3.53828 -0.00352943 0)
(3.57305 -0.00233086 0)
(3.58465 0.000510732 0)
(3.56035 0.00470852 0)
(3.47098 0.0102733 0)
(3.31565 0.0152359 0)
(3.10857 0.0144828 0)
(2.98602 0.00854396 0)
(2.88436 0.0131318 0)
(2.67608 0.027073 0)
(2.26817 0.0390356 0)
(1.79478 0.034983 0)
(2.77448 -0.00126167 0)
(2.79026 -0.00212865 0)
(2.81557 -0.00306307 0)
(2.85009 -0.00322296 0)
(2.88209 -0.00239045 0)
(2.89774 -0.000808184 0)
(2.8982 0.000776015 0)
(2.88412 0.00313472 0)
(2.83374 0.00786709 0)
(2.72205 0.0146721 0)
(2.53328 0.0216248 0)
(2.27446 0.0246844 0)
(2.02902 0.0203151 0)
(1.87615 0.00965501 0)
(1.84839 -0.00170516 0)
(1.91008 -0.0104575 0)
(2.05409 -0.0156693 0)
(2.22255 -0.0151272 0)
(2.35717 -0.0117107 0)
(2.46212 -0.00957187 0)
(2.5616 -0.0105212 0)
(2.68385 -0.0139157 0)
(2.84033 -0.0158126 0)
(3.00095 -0.0140849 0)
(3.12617 -0.0106661 0)
(3.21863 -0.00754007 0)
(3.2844 -0.00543386 0)
(3.33286 -0.00434491 0)
(3.37394 -0.00394392 0)
(3.4143 -0.00386428 0)
(3.45546 -0.00387313 0)
(3.49714 -0.00391533 0)
(3.53829 -0.00374892 0)
(3.57307 -0.0024149 0)
(3.58469 0.000867514 0)
(3.56039 0.00589579 0)
(3.47101 0.0124926 0)
(3.31578 0.0177619 0)
(3.10878 0.016301 0)
(2.98445 0.00976422 0)
(2.8812 0.0147599 0)
(2.6719 0.0300364 0)
(2.26259 0.0447235 0)
(1.78776 0.0362591 0)
(2.77527 -0.00132649 0)
(2.79097 -0.00224462 0)
(2.81613 -0.00328101 0)
(2.85038 -0.00351853 0)
(2.88221 -0.00260035 0)
(2.89782 -0.000951814 0)
(2.89826 0.000726099 0)
(2.88415 0.00337751 0)
(2.83375 0.00860045 0)
(2.72207 0.015975 0)
(2.53332 0.0236309 0)
(2.27445 0.0273575 0)
(2.02891 0.0224681 0)
(1.87601 0.0106833 0)
(1.84829 -0.00196155 0)
(1.91004 -0.0117477 0)
(2.05413 -0.0174563 0)
(2.2226 -0.016743 0)
(2.35719 -0.0130113 0)
(2.46212 -0.0105441 0)
(2.56157 -0.0115692 0)
(2.6838 -0.0154435 0)
(2.84031 -0.0175659 0)
(3.00098 -0.0156351 0)
(3.12621 -0.0119566 0)
(3.21867 -0.00863888 0)
(3.28444 -0.00612971 0)
(3.33289 -0.00472839 0)
(3.37396 -0.0043353 0)
(3.41431 -0.00443443 0)
(3.45547 -0.0045346 0)
(3.49716 -0.00456074 0)
(3.53832 -0.0042495 0)
(3.5731 -0.00279891 0)
(3.58474 0.000615418 0)
(3.56045 0.00574528 0)
(3.47106 0.0126066 0)
(3.31594 0.0187614 0)
(3.10898 0.0179576 0)
(2.98272 0.010735 0)
(2.87778 0.0163661 0)
(2.66734 0.0334508 0)
(2.25658 0.0484817 0)
(1.78115 0.043067 0)
(2.77602 -0.00151405 0)
(2.79162 -0.00255538 0)
(2.81664 -0.00367762 0)
(2.8507 -0.00391402 0)
(2.88234 -0.00284647 0)
(2.89786 -0.000949412 0)
(2.8983 0.0009552 0)
(2.88419 0.00385137 0)
(2.83376 0.00962758 0)
(2.72204 0.0179501 0)
(2.53328 0.02641 0)
(2.27441 0.0295238 0)
(2.0288 0.0245819 0)
(1.87589 0.0116631 0)
(1.84819 -0.00213571 0)
(1.91 -0.0127148 0)
(2.05419 -0.0190653 0)
(2.22272 -0.0183253 0)
(2.35727 -0.0141148 0)
(2.46215 -0.011521 0)
(2.56155 -0.0126531 0)
(2.68375 -0.0168304 0)
(2.84028 -0.0190984 0)
(3.00102 -0.0170883 0)
(3.12625 -0.0128766 0)
(3.21871 -0.00914249 0)
(3.28448 -0.00659858 0)
(3.33292 -0.00526839 0)
(3.37398 -0.00481898 0)
(3.41433 -0.00476963 0)
(3.45548 -0.00479297 0)
(3.49717 -0.00484314 0)
(3.53834 -0.00464346 0)
(3.57313 -0.00300101 0)
(3.58479 0.000952353 0)
(3.56052 0.00689768 0)
(3.47112 0.0148118 0)
(3.31612 0.0212662 0)
(3.10916 0.0197721 0)
(2.98086 0.0120014 0)
(2.87412 0.0179582 0)
(2.66242 0.0365704 0)
(2.2501 0.0539565 0)
(1.77452 0.0444637 0)
(2.77683 -0.00157304 0)
(2.79234 -0.00266275 0)
(2.81721 -0.0038834 0)
(2.85112 -0.00419014 0)
(2.88262 -0.00310027 0)
(2.898 -0.00111504 0)
(2.89839 0.000896284 0)
(2.88427 0.00402263 0)
(2.83384 0.0102405 0)
(2.7221 0.0190801 0)
(2.5333 0.0282059 0)
(2.27437 0.0327174 0)
(2.02871 0.0267329 0)
(1.87576 0.0127201 0)
(1.84805 -0.00227452 0)
(1.9099 -0.0138562 0)
(2.05421 -0.0206387 0)
(2.22281 -0.0199242 0)
(2.35736 -0.0155075 0)
(2.46218 -0.0125542 0)
(2.56152 -0.0138261 0)
(2.68369 -0.0183418 0)
(2.84024 -0.0209294 0)
(3.00105 -0.0185774 0)
(3.12629 -0.0141968 0)
(3.21874 -0.0101889 0)
(3.28451 -0.00726013 0)
(3.33293 -0.00562904 0)
(3.37399 -0.00511924 0)
(3.41433 -0.00518486 0)
(3.45549 -0.00529351 0)
(3.49718 -0.00533539 0)
(3.53835 -0.00496652 0)
(3.57319 -0.003263 0)
(3.58483 0.000921878 0)
(3.56058 0.00730466 0)
(3.47121 0.0155553 0)
(3.31636 0.0226717 0)
(3.10931 0.021619 0)
(2.9789 0.013022 0)
(2.87023 0.019674 0)
(2.65711 0.0398875 0)
(2.24322 0.0580083 0)
(1.76756 0.0509526 0)
(2.7777 -0.00176246 0)
(2.79312 -0.00297445 0)
(2.81785 -0.00429582 0)
(2.85161 -0.00458884 0)
(2.88298 -0.0033234 0)
(2.89823 -0.00112828 0)
(2.89858 0.00107696 0)
(2.88448 0.00446822 0)
(2.83409 0.0111795 0)
(2.72234 0.0207719 0)
(2.53345 0.0306769 0)
(2.27443 0.0349445 0)
(2.02868 0.0289471 0)
(1.87561 0.0137349 0)
(1.84787 -0.00257012 0)
(1.90977 -0.0151088 0)
(2.05418 -0.0223155 0)
(2.22286 -0.0214547 0)
(2.35741 -0.016624 0)
(2.4622 -0.0136172 0)
(2.56149 -0.0148978 0)
(2.68362 -0.0198412 0)
(2.8402 -0.0225184 0)
(3.00107 -0.0201336 0)
(3.12633 -0.0152687 0)
(3.21878 -0.0108825 0)
(3.28455 -0.0078012 0)
(3.33295 -0.0061915 0)
(3.37402 -0.00571241 0)
(3.41436 -0.00570412 0)
(3.4555 -0.00573598 0)
(3.4972 -0.00577333 0)
(3.53839 -0.00553267 0)
(3.57324 -0.00359341 0)
(3.5849 0.000916599 0)
(3.56067 0.00763669 0)
(3.47129 0.0167592 0)
(3.31655 0.0245635 0)
(3.10937 0.0231961 0)
(2.97688 0.0143154 0)
(2.86609 0.0212227 0)
(2.65142 0.043131 0)
(2.23591 0.0632083 0)
(1.76047 0.0527652 0)
(2.77902 -0.00184347 0)
(2.7943 -0.00312855 0)
(2.81882 -0.00457273 0)
(2.85236 -0.00498784 0)
(2.88355 -0.00371179 0)
(2.8987 -0.00137176 0)
(2.89906 0.00106049 0)
(2.88497 0.00485777 0)
(2.83465 0.0123754 0)
(2.72297 0.0230297 0)
(2.534 0.0339475 0)
(2.27487 0.0388316 0)
(2.02892 0.0320741 0)
(1.87558 0.0152357 0)
(1.84773 -0.0026864 0)
(1.90965 -0.0164203 0)
(2.05415 -0.0248886 0)
(2.22292 -0.0239278 0)
(2.35747 -0.0185562 0)
(2.4622 -0.0150129 0)
(2.56141 -0.01656 0)
(2.68352 -0.0219844 0)
(2.84016 -0.0249122 0)
(3.00111 -0.0221118 0)
(3.1264 -0.0168615 0)
(3.21883 -0.0122168 0)
(3.28458 -0.0087417 0)
(3.33295 -0.00666441 0)
(3.37401 -0.00592399 0)
(3.41435 -0.00598134 0)
(3.4555 -0.00617334 0)
(3.4972 -0.00627325 0)
(3.53843 -0.00577178 0)
(3.57328 -0.00377825 0)
(3.58497 0.00138969 0)
(3.56076 0.00938559 0)
(3.47138 0.0196028 0)
(3.31684 0.0278035 0)
(3.10941 0.0263341 0)
(2.97382 0.015924 0)
(2.85942 0.0239322 0)
(2.64204 0.0480812 0)
(2.22399 0.0697936 0)
(1.74906 0.0621221 0)
(2.7809 -0.00222448 0)
(2.796 -0.00374716 0)
(2.82026 -0.00542059 0)
(2.85349 -0.00580988 0)
(2.88444 -0.00413116 0)
(2.8995 -0.00137222 0)
(2.89984 0.00135262 0)
(2.88576 0.0055979 0)
(2.83548 0.0140726 0)
(2.72386 0.0262419 0)
(2.53489 0.0388066 0)
(2.27568 0.0442236 0)
(2.02968 0.0362804 0)
(1.87604 0.0173759 0)
(1.84784 -0.00311954 0)
(1.9096 -0.0189924 0)
(2.05416 -0.0281926 0)
(2.22303 -0.0271214 0)
(2.35757 -0.020942 0)
(2.46222 -0.0170074 0)
(2.56132 -0.0186572 0)
(2.68338 -0.0249034 0)
(2.84011 -0.0285676 0)
(3.00117 -0.0255272 0)
(3.1265 -0.019258 0)
(3.21886 -0.0135426 0)
(3.28458 -0.00968312 0)
(3.33295 -0.00781359 0)
(3.374 -0.00737055 0)
(3.41434 -0.00737464 0)
(3.45548 -0.00736132 0)
(3.49721 -0.0073824 0)
(3.53844 -0.00712828 0)
(3.57332 -0.00465701 0)
(3.58508 0.00103954 0)
(3.56093 0.00943694 0)
(3.47159 0.0205791 0)
(3.31731 0.0305796 0)
(3.10939 0.0294776 0)
(2.96954 0.0186137 0)
(2.84959 0.027185 0)
(2.62814 0.0547436 0)
(2.20687 0.0797972 0)
(1.73314 0.0661086 0)
(2.78299 -0.00231992 0)
(2.79792 -0.00394254 0)
(2.82192 -0.00575154 0)
(2.8548 -0.00629059 0)
(2.88552 -0.00464858 0)
(2.90048 -0.00168555 0)
(2.90079 0.00139827 0)
(2.88669 0.00623912 0)
(2.83641 0.0157592 0)
(2.72485 0.0292507 0)
(2.53597 0.0430607 0)
(2.27678 0.0489975 0)
(2.0308 0.0401882 0)
(1.87704 0.0191292 0)
(1.84855 -0.00349981 0)
(1.90995 -0.021054 0)
(2.05431 -0.0313762 0)
(2.22315 -0.0301545 0)
(2.35766 -0.0234397 0)
(2.46221 -0.0190996 0)
(2.56121 -0.021003 0)
(2.68323 -0.0278973 0)
(2.8401 -0.0315015 0)
(3.00127 -0.0280202 0)
(3.12661 -0.0214666 0)
(3.21897 -0.0156042 0)
(3.28466 -0.0111901 0)
(3.33297 -0.00857383 0)
(3.37398 -0.00761768 0)
(3.4143 -0.0076894 0)
(3.45543 -0.00786129 0)
(3.49718 -0.00793886 0)
(3.53845 -0.00738477 0)
(3.57338 -0.00481923 0)
(3.58521 0.00152767 0)
(3.56112 0.0113493 0)
(3.47184 0.0243273 0)
(3.31781 0.0349595 0)
(3.10929 0.0334363 0)
(2.96493 0.0209152 0)
(2.83853 0.0306821 0)
(2.61253 0.0615298 0)
(2.18817 0.0893684 0)
(1.7158 0.0788992 0)
(2.78523 -0.00270265 0)
(2.79998 -0.00455118 0)
(2.82371 -0.00661182 0)
(2.85626 -0.00715424 0)
(2.88674 -0.00507858 0)
(2.90155 -0.00170021 0)
(2.90183 0.00165194 0)
(2.88772 0.00693484 0)
(2.83745 0.0174173 0)
(2.72595 0.0324691 0)
(2.5372 0.0481235 0)
(2.27814 0.0548505 0)
(2.03216 0.0448439 0)
(1.87839 0.0214129 0)
(1.84979 -0.00364627 0)
(1.91081 -0.0232488 0)
(2.05477 -0.034864 0)
(2.22334 -0.0335508 0)
(2.3577 -0.0259182 0)
(2.46211 -0.02108 0)
(2.56098 -0.0230612 0)
(2.68301 -0.0308014 0)
(2.84005 -0.0352876 0)
(3.00141 -0.0315908 0)
(3.12679 -0.023771 0)
(3.2191 -0.0166823 0)
(3.28472 -0.0118905 0)
(3.333 -0.00953219 0)
(3.37399 -0.00891103 0)
(3.41431 -0.00887557 0)
(3.45545 -0.00897675 0)
(3.49719 -0.00908808 0)
(3.53848 -0.00866915 0)
(3.57346 -0.00564957 0)
(3.58537 0.00146741 0)
(3.56138 0.0119937 0)
(3.47219 0.0258688 0)
(3.31837 0.0379004 0)
(3.1092 0.0369848 0)
(2.95972 0.0238759 0)
(2.82637 0.0346334 0)
(2.59539 0.0682089 0)
(2.1677 0.0984917 0)
(1.69762 0.0824132 0)
(2.78759 -0.00278399 0)
(2.80213 -0.00474057 0)
(2.82557 -0.00690972 0)
(2.85778 -0.00756127 0)
(2.88803 -0.00557167 0)
(2.90269 -0.00200746 0)
(2.90293 0.00168137 0)
(2.88881 0.00756943 0)
(2.83857 0.0191219 0)
(2.72719 0.0354996 0)
(2.53866 0.0523006 0)
(2.27981 0.0592655 0)
(2.03374 0.0482602 0)
(1.87992 0.0229596 0)
(1.85121 -0.00417215 0)
(1.91205 -0.0255038 0)
(2.05571 -0.0381219 0)
(2.22384 -0.0366422 0)
(2.35785 -0.0283927 0)
(2.46205 -0.0230944 0)
(2.56075 -0.0254796 0)
(2.68277 -0.0338405 0)
(2.84001 -0.0382309 0)
(3.00155 -0.0338284 0)
(3.12697 -0.0258999 0)
(3.21926 -0.018819 0)
(3.28483 -0.0135356 0)
(3.33307 -0.0104683 0)
(3.37403 -0.00942093 0)
(3.41431 -0.00953186 0)
(3.45544 -0.00965127 0)
(3.49719 -0.00967988 0)
(3.53851 -0.00911023 0)
(3.57357 -0.00599589 0)
(3.58555 0.00178933 0)
(3.56166 0.0136993 0)
(3.47253 0.0293075 0)
(3.31886 0.0424643 0)
(3.10907 0.0409734 0)
(2.95385 0.0263146 0)
(2.81347 0.0378119 0)
(2.57716 0.0754354 0)
(2.14544 0.108967 0)
(1.67784 0.096044 0)
(2.79014 -0.00316876 0)
(2.80446 -0.0053342 0)
(2.8276 -0.00777268 0)
(2.85942 -0.00848618 0)
(2.88937 -0.00601833 0)
(2.90385 -0.00200813 0)
(2.90406 0.00196027 0)
(2.88996 0.00827663 0)
(2.83979 0.0207503 0)
(2.72858 0.0386449 0)
(2.5403 0.0573359 0)
(2.28163 0.0653843 0)
(2.03542 0.0533457 0)
(1.88141 0.0253186 0)
(1.85266 -0.0041993 0)
(1.91347 -0.0273693 0)
(2.05705 -0.041211 0)
(2.22484 -0.0396952 0)
(2.35836 -0.0306953 0)
(2.46219 -0.0248546 0)
(2.56061 -0.0271606 0)
(2.68252 -0.0360665 0)
(2.83996 -0.0420713 0)
(3.00173 -0.0377088 0)
(3.12718 -0.0283939 0)
(3.21944 -0.0200091 0)
(3.28493 -0.0141925 0)
(3.33312 -0.0112376 0)
(3.37405 -0.0103944 0)
(3.41432 -0.0103421 0)
(3.45545 -0.0105206 0)
(3.49721 -0.0106705 0)
(3.53859 -0.0101345 0)
(3.57369 -0.00656747 0)
(3.58577 0.00163927 0)
(3.56199 0.0143289 0)
(3.47293 0.0309651 0)
(3.31937 0.044967 0)
(3.10889 0.0446458 0)
(2.94738 0.0296971 0)
(2.80017 0.0425766 0)
(2.55844 0.0820032 0)
(2.12203 0.117331 0)
(1.65762 0.0989291 0)
(2.79285 -0.00323008 0)
(2.80692 -0.00551867 0)
(2.82973 -0.00804223 0)
(2.86117 -0.00878628 0)
(2.89079 -0.0064659 0)
(2.90508 -0.0023255 0)
(2.90525 0.001959 0)
(2.89117 0.00888795 0)
(2.8411 0.0224707 0)
(2.73012 0.0417396 0)
(2.54219 0.0616133 0)
(2.28374 0.0696369 0)
(2.03723 0.0563287 0)
(1.88297 0.0266773 0)
(1.8542 -0.00484613 0)
(1.91503 -0.0298391 0)
(2.0586 -0.044848 0)
(2.22615 -0.0432617 0)
(2.35922 -0.0335352 0)
(2.46261 -0.027338 0)
(2.5606 -0.0300255 0)
(2.68219 -0.0401648 0)
(2.83986 -0.0448534 0)
(3.00196 -0.0397928 0)
(3.12747 -0.030333 0)
(3.21966 -0.0219429 0)
(3.28508 -0.015892 0)
(3.33321 -0.0124439 0)
(3.37412 -0.011314 0)
(3.41437 -0.0114611 0)
(3.45548 -0.0115282 0)
(3.49731 -0.0115501 0)
(3.53872 -0.0108991 0)
(3.57385 -0.00720373 0)
(3.58603 0.0020971 0)
(3.56235 0.0158322 0)
(3.47334 0.0337928 0)
(3.31978 0.0496337 0)
(3.10836 0.0489567 0)
(2.94076 0.0324145 0)
(2.7867 0.0457386 0)
(2.53803 0.0899155 0)
(2.09384 0.128962 0)
(1.63421 0.113155 0)
(2.81432 -0.00611519 0)
(2.82653 -0.00968616 0)
(2.8468 -0.0143293 0)
(2.87503 -0.0164197 0)
(2.90199 -0.0100457 0)
(2.91513 -0.00208024 0)
(2.91539 0.00422999 0)
(2.90232 0.0143279 0)
(2.85441 0.0342903 0)
(2.74632 0.0642401 0)
(2.56054 0.0969903 0)
(2.30098 0.114845 0)
(2.05142 0.097577 0)
(1.89611 0.0467914 0)
(1.8672 -0.00470702 0)
(1.92784 -0.0420946 0)
(2.07073 -0.0652445 0)
(2.2361 -0.0636699 0)
(2.36579 -0.0485636 0)
(2.46602 -0.0381482 0)
(2.56121 -0.0430384 0)
(2.681 -0.0600631 0)
(2.83899 -0.0734598 0)
(3.00328 -0.0675916 0)
(3.12942 -0.0500178 0)
(3.22117 -0.0316872 0)
(3.28595 -0.0192558 0)
(3.33353 -0.0150123 0)
(3.37417 -0.0143142 0)
(3.41437 -0.0128443 0)
(3.45574 -0.0152222 0)
(3.49791 -0.0177673 0)
(3.5397 -0.0163403 0)
(3.5753 -0.0095576 0)
(3.58836 0.000854062 0)
(3.56572 0.0231706 0)
(3.47683 0.0524243 0)
(3.31901 0.0731264 0)
(3.09627 0.0699653 0)
(2.89848 0.0552322 0)
(2.71919 0.0798054 0)
(2.44381 0.132797 0)
(1.96694 0.175454 0)
(1.50129 0.134106 0)
(2.87369 -0.00552529 0)
(2.8822 -0.0107408 0)
(2.89659 -0.016067 0)
(2.91757 -0.0165327 0)
(2.93756 -0.0142766 0)
(2.9453 -0.00639021 0)
(2.94458 0.00423559 0)
(2.93273 0.0213999 0)
(2.88863 0.0561108 0)
(2.78688 0.105138 0)
(2.6082 0.156217 0)
(2.35318 0.176355 0)
(2.10191 0.138468 0)
(1.94988 0.0631357 0)
(1.92635 -0.0128361 0)
(1.98929 -0.0792657 0)
(2.12779 -0.115492 0)
(2.28096 -0.109092 0)
(2.39808 -0.083981 0)
(2.48625 -0.0690562 0)
(2.56967 -0.0752241 0)
(2.6819 -0.0995252 0)
(2.84011 -0.112847 0)
(3.0083 -0.0981945 0)
(3.13456 -0.0746209 0)
(3.2253 -0.0566677 0)
(3.28932 -0.0437466 0)
(3.33566 -0.0346327 0)
(3.37546 -0.0312596 0)
(3.4151 -0.032953 0)
(3.45602 -0.0313558 0)
(3.49774 -0.0292908 0)
(3.53995 -0.0283486 0)
(3.57811 -0.0197645 0)
(3.59331 0.00649323 0)
(3.5704 0.041431 0)
(3.47576 0.0886216 0)
(3.30369 0.136689 0)
(3.06033 0.155485 0)
(2.79563 0.116694 0)
(2.5691 0.142942 0)
(2.24481 0.270156 0)
(1.72643 0.36988 0)
(1.26368 0.323505 0)
(2.97409 -0.0100309 0)
(2.98057 -0.0163696 0)
(2.99149 -0.024531 0)
(3.00504 -0.0289457 0)
(3.00824 -0.018561 0)
(3.00669 -0.00379475 0)
(3.00328 0.00775686 0)
(2.98998 0.0307418 0)
(2.94891 0.0754275 0)
(2.85524 0.141451 0)
(2.68783 0.213333 0)
(2.44547 0.249251 0)
(2.2307 0.216665 0)
(2.12903 0.106213 0)
(2.12847 -0.0179047 0)
(2.19437 -0.103173 0)
(2.31218 -0.150644 0)
(2.41511 -0.144077 0)
(2.49473 -0.109129 0)
(2.55493 -0.0847386 0)
(2.61224 -0.0968689 0)
(2.70395 -0.139084 0)
(2.85344 -0.167101 0)
(3.02237 -0.150712 0)
(3.14793 -0.11177 0)
(3.23463 -0.075643 0)
(3.2935 -0.0504457 0)
(3.33639 -0.0391406 0)
(3.37449 -0.0367584 0)
(3.41263 -0.0359776 0)
(3.45289 -0.0387135 0)
(3.49653 -0.0417604 0)
(3.54153 -0.0399397 0)
(3.5774 -0.0271902 0)
(3.59069 0.00197118 0)
(3.56708 0.0550004 0)
(3.46786 0.122218 0)
(3.27636 0.180566 0)
(2.99527 0.202965 0)
(2.58144 0.183335 0)
(2.15237 0.239135 0)
(1.72931 0.37169 0)
(1.17347 0.466104 0)
(0.64205 0.37649 0)
(3.12126 -0.00805915 0)
(3.12887 -0.0157123 0)
(3.13952 -0.0238871 0)
(3.14092 -0.0201128 0)
(3.13835 -0.0142201 0)
(3.13239 -0.00545979 0)
(3.12114 0.00947797 0)
(3.09924 0.0369576 0)
(3.05459 0.0924802 0)
(2.96799 0.179119 0)
(2.82021 0.271228 0)
(2.63313 0.314728 0)
(2.53809 0.231818 0)
(2.53834 0.0868649 0)
(2.58474 -0.0242434 0)
(2.69107 -0.129763 0)
(2.74356 -0.173965 0)
(2.73205 -0.163537 0)
(2.71983 -0.120834 0)
(2.71822 -0.100456 0)
(2.72768 -0.112618 0)
(2.78334 -0.16786 0)
(2.90758 -0.206644 0)
(3.06163 -0.181035 0)
(3.17382 -0.132668 0)
(3.25021 -0.0951989 0)
(3.30414 -0.0702429 0)
(3.34452 -0.0559442 0)
(3.38145 -0.051607 0)
(3.41998 -0.0534353 0)
(3.46311 -0.05399 0)
(3.50917 -0.053359 0)
(3.55238 -0.0505693 0)
(3.58367 -0.0319497 0)
(3.5917 0.00907442 0)
(3.56091 0.0786106 0)
(3.44768 0.176861 0)
(3.22888 0.277553 0)
(2.91441 0.366791 0)
(2.49389 0.356233 0)
(1.82997 0.364164 0)
(1.11664 0.530862 0)
(0.436708 0.68127 0)
(-0.124846 0.572786 0)
(3.3107 -0.014084 0)
(3.32378 -0.0212904 0)
(3.33365 -0.0282164 0)
(3.33401 -0.0284572 0)
(3.33058 -0.0177265 0)
(3.3217 0.00114398 0)
(3.30409 0.0164532 0)
(3.27305 0.0475083 0)
(3.22555 0.116026 0)
(3.14839 0.203059 0)
(3.03689 0.304099 0)
(3.00291 0.314732 0)
(3.04634 0.241195 0)
(3.1881 0.0933835 0)
(3.42276 -0.056151 0)
(3.559 -0.149809 0)
(3.53757 -0.160247 0)
(3.42076 -0.129894 0)
(3.20956 -0.105684 0)
(3.0535 -0.0882614 0)
(2.98243 -0.113558 0)
(2.98154 -0.19253 0)
(3.04356 -0.247327 0)
(3.1553 -0.224886 0)
(3.24099 -0.16399 0)
(3.29481 -0.112501 0)
(3.33147 -0.0777496 0)
(3.36062 -0.0614578 0)
(3.3893 -0.058386 0)
(3.42152 -0.0602235 0)
(3.45914 -0.0639354 0)
(3.50108 -0.0673022 0)
(3.53969 -0.0627286 0)
(3.56273 -0.0418612 0)
(3.56494 0.0064435 0)
(3.52597 0.0944852 0)
(3.39746 0.214609 0)
(3.15213 0.31969 0)
(2.80868 0.400422 0)
(2.3076 0.484037 0)
(1.40174 0.647859 0)
(0.624186 0.793658 0)
(-0.0345613 0.842489 0)
(-0.423336 0.634396 0)
(3.53268 -0.0138026 0)
(3.55023 -0.0221654 0)
(3.56358 -0.0269509 0)
(3.57017 -0.0189893 0)
(3.56999 -0.00855466 0)
(3.56409 0.00153289 0)
(3.54798 0.0235561 0)
(3.51989 0.0625346 0)
(3.47113 0.120491 0)
(3.41145 0.231695 0)
(3.41025 0.310949 0)
(3.4735 0.311755 0)
(3.63532 0.185332 0)
(3.89873 -0.0103862 0)
(4.17461 -0.142779 0)
(4.35558 -0.18384 0)
(4.42462 -0.145204 0)
(4.37687 -0.0873205 0)
(4.13489 -0.0145407 0)
(3.70865 -0.0233549 0)
(3.41329 -0.0854835 0)
(3.30194 -0.189393 0)
(3.30199 -0.266801 0)
(3.33433 -0.242244 0)
(3.36216 -0.170546 0)
(3.37747 -0.118134 0)
(3.38911 -0.0858391 0)
(3.40017 -0.0698275 0)
(3.41434 -0.067159 0)
(3.43451 -0.0708455 0)
(3.45984 -0.0744231 0)
(3.48864 -0.0743036 0)
(3.51167 -0.0681583 0)
(3.51722 -0.0346751 0)
(3.49931 0.0177471 0)
(3.4257 0.122457 0)
(3.26766 0.279348 0)
(3.01228 0.440674 0)
(2.68874 0.60264 0)
(2.24139 0.732282 0)
(1.53176 0.830599 0)
(0.988514 0.897971 0)
(0.540098 0.929134 0)
(0.260184 0.717264 0)
(3.77579 -0.022236 0)
(3.79568 -0.0286574 0)
(3.81253 -0.0326218 0)
(3.82203 -0.0315223 0)
(3.82583 -0.0170239 0)
(3.8252 0.00903568 0)
(3.82186 0.030432 0)
(3.80701 0.0628401 0)
(3.78088 0.147403 0)
(3.78799 0.221515 0)
(3.84531 0.278494 0)
(3.97232 0.261144 0)
(4.16071 0.129708 0)
(4.37819 -0.05412 0)
(4.52897 -0.176208 0)
(4.65251 -0.221472 0)
(4.81287 -0.177143 0)
(5.00966 -0.052613 0)
(5.00109 0.0669778 0)
(4.80498 0.100863 0)
(4.26982 0.0181871 0)
(3.79706 -0.147787 0)
(3.65204 -0.257351 0)
(3.61084 -0.23903 0)
(3.56852 -0.175493 0)
(3.52836 -0.119927 0)
(3.50481 -0.0854424 0)
(3.49518 -0.0698945 0)
(3.49599 -0.0683496 0)
(3.50576 -0.0730581 0)
(3.52059 -0.0785183 0)
(3.53147 -0.0826522 0)
(3.54288 -0.0688122 0)
(3.54018 -0.0405929 0)
(3.50666 0.0249257 0)
(3.41592 0.166863 0)
(3.25899 0.345746 0)
(3.03978 0.498585 0)
(2.76656 0.646228 0)
(2.39893 0.822034 0)
(1.95789 0.979336 0)
(1.79365 1.06904 0)
(1.60008 1.15881 0)
(1.25933 0.776982 0)
(4.04467 -0.0224446 0)
(4.06158 -0.0306202 0)
(4.06909 -0.032282 0)
(4.07057 -0.0217257 0)
(4.07159 -0.00927023 0)
(4.07686 0.00188605 0)
(4.08769 0.0283292 0)
(4.09988 0.077583 0)
(4.12289 0.13323 0)
(4.1815 0.206008 0)
(4.29857 0.252278 0)
(4.47738 0.215762 0)
(4.71668 0.0682886 0)
(4.90906 -0.106575 0)
(4.92225 -0.203497 0)
(4.9044 -0.240817 0)
(4.92839 -0.233095 0)
(5.05681 -0.147469 0)
(5.23775 0.0465029 0)
(5.20384 0.175104 0)
(4.91822 0.197477 0)
(4.32687 -0.0178584 0)
(4.06059 -0.211886 0)
(3.96158 -0.215878 0)
(3.85843 -0.148426 0)
(3.76714 -0.0996671 0)
(3.70903 -0.0739948 0)
(3.68093 -0.0661246 0)
(3.67432 -0.071296 0)
(3.67918 -0.0790983 0)
(3.6911 -0.0822795 0)
(3.69479 -0.079542 0)
(3.69125 -0.0750316 0)
(3.67454 -0.0210073 0)
(3.62452 0.0586826 0)
(3.52191 0.188838 0)
(3.3815 0.374785 0)
(3.24826 0.565443 0)
(3.09979 0.756737 0)
(2.9502 0.948831 0)
(3.05041 1.02268 0)
(4.1056 1.02608 0)
(6.13981 0.865329 0)
(11.9635 1.13539 0)
(4.26749 -0.037765 0)
(4.28397 -0.039757 0)
(4.29208 -0.0381958 0)