/*--------------------------------*- C++ -*----------------------------------*\
| =========                 |                                                 |
| \\      /  F ield         | OpenFOAM: The Open Source CFD Toolbox           |
|  \\    /   O peration     | Version:  v1912                                 |
|   \\  /    A nd           | Website:  www.openfoam.com                      |
|    \\/     M anipulation  |                                                 |
\*---------------------------------------------------------------------------*/
FoamFile
{
    version     2.0;
    format      ascii;
    class       surfaceScalarField;
    location    "20";
    object      alphaPhi0.water;
}
// * * * * * * * * * * * * * * * * * * * * * * * * * * * * * * * * * * * * * //

dimensions      [0 3 -1 0 0 0 0];
oriented        oriented;


internalField   nonuniform List<scalar> 
28285
(
-0.00088149
-3.89678e-05
-0.000843608
-3.78823e-05
-0.000806854
-3.67537e-05
-0.000771265
-3.55895e-05
-0.000736868
-3.43965e-05
-0.000703687
-3.31813e-05
-0.000671737
-3.19501e-05
-0.000641028
-3.07087e-05
-0.000611565
-2.94628e-05
-0.000583347
-2.82175e-05
-0.000556369
-2.6978e-05
-0.00053062
-2.5749e-05
-0.000506085
-2.4535e-05
-0.000482745
-2.33405e-05
-0.000460575
-2.21697e-05
-0.000439549
-2.10265e-05
-0.000419634
-1.99148e-05
-0.000400795
-1.88386e-05
-0.000382994
-1.78013e-05
-0.000366188
-1.68066e-05
-0.00035033
-1.58579e-05
-0.000335371
-1.49584e-05
-0.00032126
-1.41109e-05
-0.000307943
-1.33176e-05
-0.000295363
-1.25796e-05
-0.000283466
-1.18968e-05
-0.000272199
-1.1267e-05
-0.000261513
-1.06863e-05
-0.000251364
-1.01496e-05
-0.000241712
-9.65129e-06
-0.000232523
-9.18893e-06
-0.00022376
-8.7628e-06
-0.000215385
-8.37534e-06
-0.000207356
-8.0291e-06
-0.00019963
-7.72587e-06
-0.000192164
-7.46589e-06
-0.000184917
-7.24753e-06
-0.00017785
-7.06718e-06
-0.00017093
-6.91965e-06
-0.000164131
-6.79857e-06
-0.000157434
-6.69693e-06
-0.000150827
-6.60762e-06
-0.000144303
-6.52343e-06
-0.000137866
-6.43729e-06
-0.000131524
-6.34243e-06
-0.000125291
-6.23256e-06
-0.000119189
-6.10202e-06
-0.000113243
-5.94593e-06
-0.000107483
-5.76034e-06
-0.00010194
-5.54252e-06
-9.66493e-05
-5.29095e-06
-9.16437e-05
-5.00561e-06
-8.69557e-05
-4.68802e-06
-8.26143e-05
-4.34139e-06
-7.86436e-05
-3.97071e-06
-7.5061e-05
-3.58259e-06
-7.18759e-05
-3.18509e-06
-6.90884e-05
-2.78752e-06
-6.66881e-05
-2.40032e-06
-6.46536e-05
-2.03448e-06
-6.29524e-05
-1.70118e-06
-6.15411e-05
-1.41134e-06
-6.03665e-05
-1.17462e-06
-5.93679e-05
-9.98569e-07
-5.8479e-05
-8.88946e-07
-5.76311e-05
-8.47847e-07
-5.67579e-05
-8.7322e-07
-5.57996e-05
-9.58282e-07
-5.47077e-05
-1.09192e-06
-5.34487e-05
-1.259e-06
-5.20074e-05
-1.44129e-06
-5.03887e-05
-1.61865e-06
-4.86183e-05
-1.77047e-06
-4.67408e-05
-1.87745e-06
-4.48172e-05
-1.92366e-06
-4.29205e-05
-1.89671e-06
-4.11295e-05
-1.79097e-06
-3.95203e-05
-1.60918e-06
-3.81574e-05
-1.36292e-06
-3.70855e-05
-1.07189e-06
-3.63227e-05
-7.62822e-07
-3.58558e-05
-4.66861e-07
-3.56388e-05
-2.17019e-07
-3.55929e-05
-4.58453e-08
-3.56198e-05
2.68206e-08
-3.56067e-05
-1.30829e-08
-3.54485e-05
-1.58227e-07
-3.50594e-05
-3.89023e-07
-3.43898e-05
-6.69615e-07
-3.34335e-05
-9.56311e-07
-3.22299e-05
-1.20363e-06
-3.08561e-05
-1.37375e-06
-2.94163e-05
-1.43984e-06
-2.80245e-05
-1.39174e-06
-2.67792e-05
-1.24538e-06
-2.57426e-05
-1.03657e-06
-2.49306e-05
-8.11949e-07
-2.43113e-05
-6.19387e-07
-2.38147e-05
-4.96513e-07
-2.33496e-05
-4.6518e-07
-2.28245e-05
-5.2511e-07
-2.21788e-05
-6.45651e-07
-2.13956e-05
-7.83243e-07
-2.05032e-05
-8.924e-07
-1.95609e-05
-9.42217e-07
-1.86455e-05
-9.15395e-07
-1.78243e-05
-8.21219e-07
-1.71295e-05
-6.94794e-07
-1.65495e-05
-5.80068e-07
-1.60338e-05
-5.15646e-07
-1.5512e-05
-5.21808e-07
-1.49144e-05
-5.97582e-07
-1.42163e-05
-6.98179e-07
-1.34363e-05
-7.79902e-07
-1.26414e-05
-7.94921e-07
-1.18949e-05
-7.46576e-07
-1.12652e-05
-6.297e-07
-1.07266e-05
-5.38584e-07
-1.02775e-05
-4.49067e-07
-9.83771e-06
-4.39794e-07
-9.44738e-06
-3.90329e-07
-9.07814e-06
-3.69236e-07
-8.80772e-06
-2.70424e-07
-8.53233e-06
-2.75387e-07
-8.25915e-06
-2.73186e-07
-7.82298e-06
-4.36168e-07
-7.09418e-06
-7.28796e-07
-5.93602e-06
-1.15816e-06
-3.5455e-06
-2.39053e-06
-6.20358e-08
-3.48346e-06
6.90905e-06
-6.97108e-06
1.5277e-05
-8.36796e-06
2.85198e-05
-1.32428e-05
-8.62395e-06
3.71438e-05
-0.000879061
-7.78498e-05
-0.000841267
-7.56762e-05
-0.000804604
-7.34173e-05
-0.000769106
-7.10875e-05
-0.000734802
-6.87007e-05
-0.000701713
-6.62699e-05
-0.000669856
-6.38074e-05
-0.000639239
-6.13251e-05
-0.000609868
-5.8834e-05
-0.000581741
-5.63445e-05
-0.000554852
-5.38668e-05
-0.000529191
-5.14104e-05
-0.000504742
-4.89843e-05
-0.000481485
-4.65974e-05
-0.000459397
-4.42579e-05
-0.000438449
-4.19739e-05
-0.000418611
-3.97533e-05
-0.000399846
-3.76034e-05
-0.000382115
-3.55317e-05
-0.000365377
-3.35453e-05
-0.000349584
-3.16509e-05
-0.000334687
-2.98551e-05
-0.000320634
-2.81634e-05
-0.000307372
-2.65803e-05
-0.000294843
-2.51082e-05
-0.000282994
-2.37464e-05
-0.00027177
-2.24904e-05
-0.000261124
-2.13325e-05
-0.000251012
-2.02611e-05
-0.000241397
-1.92667e-05
-0.000232242
-1.8344e-05
-0.000223511
-1.74942e-05
-0.000215165
-1.67213e-05
-0.000207163
-1.60311e-05
-0.000199462
-1.54267e-05
-0.000192019
-1.49088e-05
-0.000184792
-1.44744e-05
-0.000177743
-1.4116e-05
-0.00017084
-1.38228e-05
-0.000164056
-1.35823e-05
-0.000157372
-1.33808e-05
-0.000150776
-1.32037e-05
-0.000144263
-1.30363e-05
-0.000137836
-1.28646e-05
-0.000131503
-1.26752e-05
-0.00012528
-1.24556e-05
-0.000119188
-1.21945e-05
-0.000113252
-1.18821e-05
-0.000107501
-1.15106e-05
-0.000101969
-1.10744e-05
-9.66899e-05
-1.05705e-05
-9.16966e-05
-9.99893e-06
-8.70216e-05
-9.36296e-06
-8.26939e-05
-8.66909e-06
-7.87374e-05
-7.92721e-06
-7.51695e-05
-7.15047e-06
-7.19994e-05
-6.35519e-06
-6.92268e-05
-5.56013e-06
-6.68412e-05
-4.78594e-06
-6.48209e-05
-4.05476e-06
-6.31329e-05
-3.38922e-06
-6.17335e-05
-2.81072e-06
-6.05695e-05
-2.33858e-06
-5.958e-05
-1.98813e-06
-5.86984e-05
-1.7705e-06
-5.78563e-05
-1.68995e-06
-5.69869e-05
-1.74265e-06
-5.60303e-05
-1.91485e-06
-5.49384e-05
-2.18386e-06
-5.3678e-05
-2.51942e-06
-5.22341e-05
-2.88512e-06
-5.06124e-05
-3.24043e-06
-4.88388e-05
-3.544e-06
-4.6959e-05
-3.75729e-06
-4.50343e-05
-3.84839e-06
-4.31379e-05
-3.79308e-06
-4.13487e-05
-3.58011e-06
-3.9743e-05
-3.21491e-06
-3.8385e-05
-2.7209e-06
-3.73192e-05
-2.13776e-06
-3.65627e-05
-1.5193e-06
-3.61011e-05
-9.28425e-07
-3.58861e-05
-4.31999e-07
-3.58485e-05
-8.34595e-08
-3.58807e-05
5.89617e-08
-3.58738e-05
-1.99974e-08
-3.57158e-05
-3.16155e-07
-3.53248e-05
-7.80051e-07
-3.46515e-05
-1.34287e-06
-3.3691e-05
-1.91684e-06
-3.24834e-05
-2.41122e-06
-3.11069e-05
-2.75032e-06
-2.96661e-05
-2.88056e-06
-2.82755e-05
-2.78234e-06
-2.70332e-05
-2.48769e-06
-2.6001e-05
-2.06878e-06
-2.51937e-05
-1.61931e-06
-2.45782e-05
-1.23486e-06
-2.4085e-05
-9.89719e-07
-2.36224e-05
-9.2775e-07
-2.30984e-05
-1.04913e-06
-2.24525e-05
-1.29151e-06
-2.16685e-05
-1.56732e-06
-2.07751e-05
-1.78572e-06
-1.98331e-05
-1.8843e-06
-1.8919e-05
-1.82947e-06
-1.80997e-05
-1.64054e-06
-1.7407e-05
-1.38743e-06
-1.68287e-05
-1.15835e-06
-1.63149e-05
-1.02949e-06
-1.57951e-05
-1.04158e-06
-1.51983e-05
-1.19445e-06
-1.45003e-05
-1.39615e-06
-1.37199e-05
-1.56031e-06
-1.29259e-05
-1.5889e-06
-1.21814e-05
-1.49112e-06
-1.15524e-05
-1.25864e-06
-1.10159e-05
-1.07512e-06
-1.05685e-05
-8.96461e-07
-1.01293e-05
-8.78929e-07
-9.74001e-06
-7.79661e-07
-9.37295e-06
-7.36295e-07
-9.10206e-06
-5.41318e-07
-8.82917e-06
-5.48276e-07
-8.55335e-06
-5.49009e-07
-8.11777e-06
-8.71741e-07
-7.38222e-06
-1.46435e-06
-6.21981e-06
-2.32057e-06
-3.81441e-06
-4.79593e-06
-3.27221e-07
-6.97065e-06
6.67468e-06
-1.3973e-05
1.50711e-05
-1.67644e-05
2.83426e-05
-2.65144e-05
-1.73248e-05
3.70435e-05
-0.000877127
-0.000116704
-0.000839367
-0.000113437
-0.000802741
-0.000110042
-0.000767286
-0.000106543
-0.000733028
-0.000102958
-0.00069999
-9.93087e-05
-0.000668185
-9.56123e-05
-0.000637623
-9.18868e-05
-0.000608308
-8.81486e-05
-0.000580239
-8.44136e-05
-0.000553409
-8.06967e-05
-0.000527808
-7.70122e-05
-0.000503418
-7.33737e-05
-0.000480222
-6.97942e-05
-0.000458193
-6.62862e-05
-0.000437305
-6.28619e-05
-0.000417526
-5.95328e-05
-0.000398819
-5.63102e-05
-0.000381146
-5.32052e-05
-0.000364463
-5.02282e-05
-0.000348724
-4.73897e-05
-0.00033388
-4.46991e-05
-0.000319878
-4.21652e-05
-0.000306664
-3.97945e-05
-0.000294181
-3.75908e-05
-0.000282375
-3.5553e-05
-0.00027119
-3.36746e-05
-0.000260579
-3.19435e-05
-0.000250497
-3.03431e-05
-0.000240908
-2.88562e-05
-0.000231777
-2.74748e-05
-0.00022307
-2.62013e-05
-0.000214748
-2.50436e-05
-0.000206769
-2.40101e-05
-0.000199089
-2.31064e-05
-0.000191665
-2.23332e-05
-0.000184454
-2.16853e-05
-0.000177418
-2.11515e-05
-0.000170525
-2.07158e-05
-0.000163749
-2.03588e-05
-0.00015707
-2.00593e-05
-0.000150478
-1.97959e-05
-0.000143967
-1.9547e-05
-0.000137541
-1.92912e-05
-0.000131208
-1.90083e-05
-0.000124984
-1.86796e-05
-0.00011889
-1.82879e-05
-0.000112953
-1.78189e-05
-0.000107203
-1.72607e-05
-0.000101673
-1.66052e-05
-9.6395e-05
-1.5848e-05
-9.14047e-05
-1.49892e-05
-8.67343e-05
-1.40334e-05
-8.24129e-05
-1.29905e-05
-7.84646e-05
-1.18755e-05
-7.49064e-05
-1.07086e-05
-7.17475e-05
-9.5141e-06
-6.89876e-05
-8.32004e-06
-6.66157e-05
-7.15788e-06
-6.46097e-05
-6.06072e-06
-6.29367e-05
-5.06222e-06
-6.15522e-05
-4.19523e-06
-6.04021e-05
-3.48864e-06
-5.94251e-05
-2.96512e-06
-5.85539e-05
-2.64177e-06
-5.77191e-05
-2.52474e-06
-5.68542e-05
-2.60754e-06
-5.58996e-05
-2.8694e-06
-5.48069e-05
-3.27656e-06
-5.35431e-05
-3.78322e-06
-5.2094e-05
-4.33426e-06
-5.04655e-05
-4.86898e-06
-4.86841e-05
-5.32534e-06
-4.67961e-05
-5.64534e-06
-4.48635e-05
-5.78098e-06
-4.29609e-05
-5.69567e-06
-4.11681e-05
-5.37293e-06
-3.95615e-05
-4.82147e-06
-3.82057e-05
-4.07669e-06
-3.71451e-05
-3.19834e-06
-3.63971e-05
-2.26736e-06
-3.59477e-05
-1.37775e-06
-3.57507e-05
-6.29028e-07
-3.57154e-05
-1.18743e-07
-3.57519e-05
9.5421e-08
-3.57409e-05
-3.09548e-08
-3.55832e-05
-4.73912e-07
-3.51897e-05
-1.17357e-06
-3.45115e-05
-2.02104e-06
-3.35439e-05
-2.88439e-06
-3.23285e-05
-3.62668e-06
-3.09444e-05
-4.13435e-06
-2.94978e-05
-4.3272e-06
-2.81037e-05
-4.17645e-06
-2.68603e-05
-3.73103e-06
-2.58295e-05
-3.09959e-06
-2.50258e-05
-2.42305e-06
-2.44152e-05
-1.84541e-06
-2.39257e-05
-1.47926e-06
-2.3464e-05
-1.38949e-06
-2.2939e-05
-1.57414e-06
-2.22908e-05
-1.93965e-06
-2.15036e-05
-2.35451e-06
-2.06073e-05
-2.68204e-06
-1.96622e-05
-2.82941e-06
-1.87458e-05
-2.74582e-06
-1.79257e-05
-2.46064e-06
-1.72334e-05
-2.07981e-06
-1.66561e-05
-1.73564e-06
-1.61418e-05
-1.54377e-06
-1.56191e-05
-1.56423e-06
-1.50194e-05
-1.79418e-06
-1.43182e-05
-2.09734e-06
-1.35356e-05
-2.34289e-06
-1.27384e-05
-2.38611e-06
-1.19903e-05
-2.23927e-06
-1.13609e-05
-1.88807e-06
-1.08209e-05
-1.61505e-06
-1.03698e-05
-1.34755e-06
-9.92718e-06
-1.32159e-06
-9.53286e-06
-1.17398e-06
-9.15926e-06
-1.10989e-06
-8.8837e-06
-8.16879e-07
-8.6028e-06
-8.29174e-07
-8.32273e-06
-8.29082e-07
-7.87984e-06
-1.31463e-06
-7.14302e-06
-2.20117e-06
-5.97697e-06
-3.48662e-06
-3.5772e-06
-7.19569e-06
-8.60638e-08
-1.04618e-05
6.89427e-06
-2.09533e-05
1.52639e-05
-2.5134e-05
2.84943e-05
-3.97448e-05
-2.59335e-05
3.7103e-05
-0.0008752
-0.000155541
-0.000837464
-0.000151173
-0.000800869
-0.000146637
-0.000765451
-0.000141961
-0.000731236
-0.000137174
-0.000698244
-0.000132301
-0.000666489
-0.000127366
-0.000635982
-0.000122394
-0.000606724
-0.000117406
-0.000578715
-0.000112423
-0.000551946
-0.000107465
-0.000526407
-0.000102551
-0.000502082
-9.76988e-05
-0.00047895
-9.2926e-05
-0.000456988
-8.82491e-05
-0.000436165
-8.36843e-05
-0.000416451
-7.92469e-05
-0.000397809
-7.49519e-05
-0.0003802
-7.08141e-05
-0.000363581
-6.68475e-05
-0.000347905
-6.3066e-05
-0.000333122
-5.94823e-05
-0.000319179
-5.61081e-05
-0.000306021
-5.29526e-05
-0.000293591
-5.00208e-05
-0.000281832
-4.73114e-05
-0.000270692
-4.4815e-05
-0.00026012
-4.25149e-05
-0.000250077
-4.03865e-05
-0.000240525
-3.84081e-05
-0.00023143
-3.657e-05
-0.000222756
-3.48754e-05
-0.000214465
-3.33346e-05
-0.000206515
-3.196e-05
-0.000198862
-3.0759e-05
-0.000191462
-2.9733e-05
-0.000184273
-2.8875e-05
-0.000177255
-2.81694e-05
-0.000170377
-2.75942e-05
-0.000163612
-2.71234e-05
-0.000156942
-2.67298e-05
-0.000150354
-2.63837e-05
-0.000143845
-2.60556e-05
-0.000137419
-2.57175e-05
-0.000131085
-2.53425e-05
-0.000124859
-2.49056e-05
-0.000118762
-2.43842e-05
-0.000112823
-2.37588e-05
-0.000107069
-2.3014e-05
-0.000101536
-2.21385e-05
-9.62573e-05
-2.11267e-05
-9.12679e-05
-1.99786e-05
-8.66003e-05
-1.87009e-05
-8.22837e-05
-1.73071e-05
-7.83421e-05
-1.58171e-05
-7.47932e-05
-1.42576e-05
-7.16459e-05
-1.26614e-05
-6.88994e-05
-1.10665e-05
-6.65428e-05
-9.51443e-06
-6.45539e-05
-8.04971e-06
-6.28981e-05
-6.71795e-06
-6.15313e-05
-5.56207e-06
-6.0399e-05
-4.6209e-06
-5.94387e-05
-3.92543e-06
-5.85829e-05
-3.49763e-06
-5.77618e-05
-3.34575e-06
-5.69078e-05
-3.46163e-06
-5.596e-05
-3.81716e-06
-5.48703e-05
-4.36627e-06
-5.36058e-05
-5.0477e-06
-5.21522e-05
-5.78791e-06
-5.0516e-05
-6.50514e-06
-4.87252e-05
-7.11613e-06
-4.68271e-05
-7.54348e-06
-4.4885e-05
-7.72311e-06
-4.29739e-05
-7.60674e-06
-4.11744e-05
-7.17239e-06
-3.95642e-05
-6.43171e-06
-3.82083e-05
-5.43259e-06
-3.71511e-05
-4.25554e-06
-3.64091e-05
-3.00936e-06
-3.59659e-05
-1.82096e-06
-3.57695e-05
-8.25394e-07
-3.5758e-05
-1.30229e-07
-3.58098e-05
1.47179e-07
-3.58196e-05
-2.10824e-08
-3.56681e-05
-6.25401e-07
-3.52755e-05
-1.56622e-06
-3.45933e-05
-2.70323e-06
-3.36186e-05
-3.85911e-06
-3.23941e-05
-4.85112e-06
-3.1001e-05
-5.52746e-06
-2.95473e-05
-5.7809e-06
-2.81494e-05
-5.57436e-06
-2.69063e-05
-4.97412e-06
-2.58793e-05
-4.12666e-06
-2.50811e-05
-3.22122e-06
-2.44765e-05
-2.45003e-06
-2.39935e-05
-1.96228e-06
-2.35378e-05
-1.84519e-06
-2.30162e-05
-2.0957e-06
-2.23686e-05
-2.58722e-06
-2.15799e-05
-3.14321e-06
-2.0681e-05
-3.58097e-06
-1.97345e-05
-3.77594e-06
-1.88186e-05
-3.66166e-06
-1.80005e-05
-3.27877e-06
-1.73115e-05
-2.76883e-06
-1.6738e-05
-2.30913e-06
-1.62287e-05
-2.05305e-06
-1.57115e-05
-2.0814e-06
-1.51149e-05
-2.39079e-06
-1.44155e-05
-2.79679e-06
-1.36332e-05
-3.12518e-06
-1.28385e-05
-3.18085e-06
-1.20954e-05
-2.9823e-06
-1.1469e-05
-2.51448e-06
-1.0936e-05
-2.14807e-06
-1.04916e-05
-1.79191e-06
-1.00552e-05
-1.75803e-06
-9.66867e-06
-1.5605e-06
-9.30499e-06
-1.47357e-06
-9.03882e-06
-1.08305e-06
-8.7702e-06
-1.0978e-06
-8.49924e-06
-1.10004e-06
-8.06636e-06
-1.74751e-06
-7.33425e-06
-2.93328e-06
-6.17166e-06
-4.6492e-06
-3.76668e-06
-9.60067e-06
-2.73336e-07
-1.39551e-05
6.73216e-06
-2.79588e-05
1.51325e-05
-3.35343e-05
2.84034e-05
-5.30158e-05
-3.46053e-05
3.70752e-05
-0.00087309
-0.000194372
-0.000835369
-0.000188894
-0.000798799
-0.000183207
-0.000763411
-0.000177348
-0.000729234
-0.000171351
-0.000696286
-0.000165249
-0.00066458
-0.000159072
-0.000634126
-0.000152848
-0.000604926
-0.000146606
-0.000576977
-0.000140372
-0.000550272
-0.00013417
-0.000524799
-0.000128024
-0.000500542
-0.000121956
-0.000477479
-0.000115989
-0.000455587
-0.000110142
-0.000434836
-0.000104435
-0.000415193
-9.88893e-05
-0.000396623
-9.35218e-05
-0.000379086
-8.83512e-05
-0.000362538
-8.33954e-05
-0.000346933
-7.86714e-05
-0.00033222
-7.41955e-05
-0.000318345
-6.99826e-05
-0.000305254
-6.60443e-05
-0.000292887
-6.23871e-05
-0.000281189
-5.90099e-05
-0.000270103
-5.59008e-05
-0.00025958
-5.3038e-05
-0.000249576
-5.03909e-05
-0.000240056
-4.79276e-05
-0.000230993
-4.56335e-05
-0.000222352
-4.3516e-05
-0.000214095
-4.15912e-05
-0.00020618
-3.98755e-05
-0.00019856
-3.83792e-05
-0.000191189
-3.71035e-05
-0.000184025
-3.6039e-05
-0.000177029
-3.5166e-05
-0.000170167
-3.44562e-05
-0.000163413
-3.38772e-05
-0.00015675
-3.33927e-05
-0.000150167
-3.29665e-05
-0.00014366
-3.25625e-05
-0.000137232
-3.21451e-05
-0.000130894
-3.16804e-05
-0.000124663
-3.1137e-05
-0.00011856
-3.04867e-05
-0.000112614
-2.97052e-05
-0.000106855
-2.87731e-05
-0.000101317
-2.76769e-05
-9.6034e-05
-2.64093e-05
-9.10418e-05
-2.49707e-05
-8.63736e-05
-2.33692e-05
-8.20592e-05
-2.16215e-05
-7.81232e-05
-1.97531e-05
-7.45826e-05
-1.77981e-05
-7.14466e-05
-1.57975e-05
-6.87146e-05
-1.37985e-05
-6.63752e-05
-1.18539e-05
-6.44054e-05
-1.00195e-05
-6.27715e-05
-8.35181e-06
-6.14275e-05
-6.90612e-06
-6.03176e-05
-5.73076e-06
-5.93791e-05
-4.86397e-06
-5.85426e-05
-4.33408e-06
-5.77369e-05
-4.15147e-06
-5.68941e-05
-4.30445e-06
-5.59537e-05
-4.75754e-06
-5.48666e-05
-5.45341e-06
-5.35997e-05
-6.31452e-06
-5.21398e-05
-7.24783e-06
-5.04939e-05
-8.15105e-06
-4.86902e-05
-8.91978e-06
-4.67771e-05
-9.4566e-06
-4.48195e-05
-9.68075e-06
-4.28947e-05
-9.53151e-06
-4.10851e-05
-8.98204e-06
-3.94689e-05
-8.04792e-06
-3.81119e-05
-6.78957e-06
-3.70591e-05
-5.30829e-06
-3.63276e-05
-3.74088e-06
-3.59027e-05
-2.24587e-06
-3.57373e-05
-9.90828e-07
-3.57266e-05
-1.40946e-07
-3.57898e-05
2.10386e-07
-3.57961e-05
-1.47088e-08
-3.56492e-05
-7.72326e-07
-3.52567e-05
-1.95873e-06
-3.45699e-05
-3.39e-06
-3.35858e-05
-4.84325e-06
-3.2349e-05
-6.08792e-06
-3.0943e-05
-6.93347e-06
-2.94781e-05
-7.24579e-06
-2.80723e-05
-6.98016e-06
-2.68252e-05
-6.2212e-06
-2.57986e-05
-5.15325e-06
-2.50056e-05
-4.01429e-06
-2.44092e-05
-3.04641e-06
-2.39335e-05
-2.43794e-06
-2.34817e-05
-2.29702e-06
-2.29609e-05
-2.61648e-06
-2.23115e-05
-3.23668e-06
-2.15188e-05
-3.93591e-06
-2.0615e-05
-4.48471e-06
-1.96634e-05
-4.72758e-06
-1.87438e-05
-4.58125e-06
-1.79242e-05
-4.09835e-06
-1.72355e-05
-3.45753e-06
-1.66636e-05
-2.88101e-06
-1.61545e-05
-2.56222e-06
-1.56346e-05
-2.60122e-06
-1.50349e-05
-2.99053e-06
-1.43313e-05
-3.50036e-06
-1.35454e-05
-3.91111e-06
-1.27459e-05
-3.98038e-06
-1.19981e-05
-3.73009e-06
-1.13702e-05
-3.14233e-06
-1.0833e-05
-2.68531e-06
-1.03835e-05
-2.24135e-06
-9.9417e-06
-2.19988e-06
-9.54748e-06
-1.95472e-06
-9.17416e-06
-1.84689e-06
-8.89934e-06
-1.35787e-06
-8.619e-06
-1.37814e-06
-8.33968e-06
-1.37935e-06
-7.89746e-06
-2.18973e-06
-7.16166e-06
-3.66909e-06
-5.99607e-06
-5.81479e-06
-3.59529e-06
-1.20015e-05
-9.9887e-08
-1.74505e-05
6.89037e-06
-3.49491e-05
1.52722e-05
-4.19161e-05
2.85173e-05
-6.62609e-05
-4.32162e-05
3.71281e-05
-0.000870863
-0.000233208
-0.000833149
-0.000226608
-0.000796594
-0.000219762
-0.000761232
-0.00021271
-0.000727088
-0.000205496
-0.00069418
-0.000198156
-0.000662523
-0.000190729
-0.000632122
-0.000183249
-0.000602979
-0.000175749
-0.000575093
-0.000168259
-0.000548454
-0.000160809
-0.000523051
-0.000153428
-0.000498865
-0.000146142
-0.000475877
-0.000138977
-0.000454061
-0.000131958
-0.000433387
-0.000125109
-0.000413823
-0.000118453
-0.000395332
-0.000112012
-0.000377875
-0.000105809
-0.000361407
-9.98636e-05
-0.00034588
-9.41975e-05
-0.000331245
-8.88304e-05
-0.000317448
-8.37803e-05
-0.00030443
-7.9062e-05
-0.000292133
-7.46838e-05
-0.000280499
-7.06446e-05
-0.00026947
-6.69294e-05
-0.000258998
-6.35103e-05
-0.000249043
-6.03456e-05
-0.000239574
-5.73968e-05
-0.000230558
-5.46496e-05
-0.000221961
-5.21124e-05
-0.000213747
-4.98053e-05
-0.000205873
-4.77504e-05
-0.000198291
-4.59609e-05
-0.000190955
-4.44389e-05
-0.000183822
-4.31729e-05
-0.00017685
-4.21376e-05
-0.000170008
-4.1298e-05
-0.000163271
-4.06147e-05
-0.000156618
-4.00452e-05
-0.00015004
-3.95445e-05
-0.000143534
-3.90686e-05
-0.000137104
-3.85749e-05
-0.000130762
-3.8023e-05
-0.000124524
-3.73752e-05
-0.000118413
-3.65976e-05
-0.000112457
-3.56611e-05
-0.000106688
-3.45423e-05
-0.00010114
-3.32246e-05
-9.58498e-05
-3.16996e-05
-9.08528e-05
-2.99677e-05
-8.61825e-05
-2.80394e-05
-8.18689e-05
-2.59351e-05
-7.79367e-05
-2.36853e-05
-7.44041e-05
-2.13308e-05
-7.12801e-05
-1.89215e-05
-6.85634e-05
-1.65151e-05
-6.62429e-05
-1.41744e-05
-6.42954e-05
-1.1967e-05
-6.2685e-05
-9.96224e-06
-6.1366e-05
-8.22509e-06
-6.02824e-05
-6.81435e-06
-5.9369e-05
-5.77739e-06
-5.85562e-05
-5.14685e-06
-5.77724e-05
-4.93526e-06
-5.69475e-05
-5.12937e-06
-5.60192e-05
-5.68583e-06
-5.49386e-05
-6.53408e-06
-5.36725e-05
-7.58056e-06
-5.22071e-05
-8.71329e-06
-5.05503e-05
-9.80787e-06
-4.87322e-05
-1.07378e-05
-4.6803e-05
-1.13859e-05
-4.4829e-05
-1.16547e-05
-4.28885e-05
-1.1472e-05
-4.10652e-05
-1.08053e-05
-3.94396e-05
-9.67349e-06
-3.80788e-05
-8.15036e-06
-3.7028e-05
-6.35909e-06
-3.63034e-05
-4.46552e-06
-3.58865e-05
-2.66277e-06
-3.57202e-05
-1.15708e-06
-3.57498e-05
-1.11404e-07
-3.58339e-05
2.94558e-07
-3.58717e-05
2.30556e-08
-3.57367e-05
-9.0733e-07
-3.53475e-05
-2.34795e-06
-3.46562e-05
-4.08125e-06
-3.36622e-05
-5.83726e-06
-3.24121e-05
-7.33808e-06
-3.09915e-05
-8.35406e-06
-2.95139e-05
-8.72333e-06
-2.81e-05
-8.39411e-06
-2.68509e-05
-7.47031e-06
-2.58278e-05
-6.17636e-06
-2.50413e-05
-4.80074e-06
-2.44527e-05
-3.63503e-06
-2.39858e-05
-2.90479e-06
-2.3542e-05
-2.7409e-06
-2.30257e-05
-3.13279e-06
-2.23765e-05
-3.88583e-06
-2.15808e-05
-4.73157e-06
-2.06724e-05
-5.39315e-06
-1.9717e-05
-5.68298e-06
-1.87958e-05
-5.50244e-06
-1.79769e-05
-4.91722e-06
-1.72914e-05
-4.1431e-06
-1.67239e-05
-3.4485e-06
-1.62207e-05
-3.06535e-06
-1.57069e-05
-3.11504e-06
-1.51101e-05
-3.58736e-06
-1.44072e-05
-4.20322e-06
-1.36203e-05
-4.69803e-06
-1.28217e-05
-4.77897e-06
-1.20777e-05
-4.47414e-06
-1.14523e-05
-3.7677e-06
-1.09214e-05
-3.21622e-06
-1.04785e-05
-2.68427e-06
-1.00425e-05
-2.63585e-06
-9.65563e-06
-2.34157e-06
-9.29244e-06
-2.21008e-06
-9.02773e-06
-1.62258e-06
-8.76052e-06
-1.64536e-06
-8.49076e-06
-1.64911e-06
-8.05728e-06
-2.6232e-06
-7.32453e-06
-4.40184e-06
-6.1586e-06
-6.98072e-06
-3.74983e-06
-1.44102e-05
-2.47231e-07
-2.09531e-05
6.76854e-06
-4.19649e-05
1.51795e-05
-5.0327e-05
2.84566e-05
-7.9538e-05
-5.18733e-05
3.71138e-05
-0.000868456
-0.000272059
-0.000830741
-0.000264323
-0.000794197
-0.000256306
-0.000758856
-0.000248052
-0.000724742
-0.000239609
-0.000691874
-0.000231025
-0.000660262
-0.000222341
-0.000629915
-0.000213597
-0.000600832
-0.000204832
-0.000573009
-0.000196081
-0.000546439
-0.000187379
-0.000521108
-0.000178758
-0.000496999
-0.000170251
-0.00047409
-0.000161886
-0.000452354
-0.000153693
-0.000431764
-0.0001457
-0.000412285
-0.000137932
-0.00039388
-0.000130417
-0.00037651
-0.000123179
-0.000360129
-0.000116244
-0.000344691
-0.000109636
-0.000330144
-0.000103378
-0.000316433
-9.74913e-05
-0.0003035
-9.19947e-05
-0.000291285
-8.68986e-05
-0.000279728
-8.22021e-05
-0.00026877
-7.78876e-05
-0.000258359
-7.39209e-05
-0.000248452
-7.02521e-05
-0.000239022
-6.68277e-05
-0.000230045
-6.36261e-05
-0.000221492
-6.06651e-05
-0.000213325
-5.79731e-05
-0.000205496
-5.55785e-05
-0.000197959
-5.3498e-05
-0.000190664
-5.17338e-05
-0.000183566
-5.02712e-05
-0.000176624
-4.90795e-05
-0.000169805
-4.81174e-05
-0.000163082
-4.73372e-05
-0.00015644
-4.66875e-05
-0.000149868
-4.61168e-05
-0.000143362
-4.55738e-05
-0.000136929
-4.50084e-05
-0.000130579
-4.4373e-05
-0.00012433
-4.36235e-05
-0.000118208
-4.27203e-05
-0.000112239
-4.16294e-05
-0.000106458
-4.03234e-05
-0.000100899
-3.87836e-05
-9.55988e-05
-3.70001e-05
-9.0593e-05
-3.49735e-05
-8.59169e-05
-3.27156e-05
-8.16016e-05
-3.02504e-05
-7.76723e-05
-2.76146e-05
-7.41467e-05
-2.48564e-05
-7.1034e-05
-2.20342e-05
-6.83338e-05
-1.92152e-05
-6.60339e-05
-1.64743e-05
-6.41106e-05
-1.38904e-05
-6.2529e-05
-1.15438e-05
-6.1241e-05
-9.51311e-06
-6.01886e-05
-7.86672e-06
-5.93068e-05
-6.65923e-06
-5.85233e-05
-5.93029e-06
-5.77636e-05
-5.69499e-06
-5.69574e-05
-5.9356e-06
-5.60424e-05
-6.60082e-06
-5.4968e-05
-7.60847e-06
-5.37008e-05
-8.84771e-06
-5.22282e-05
-1.01859e-05
-5.05587e-05
-1.14774e-05
-4.87227e-05
-1.25739e-05
-4.67715e-05
-1.3337e-05
-4.47742e-05
-1.36521e-05
-4.28123e-05
-1.34339e-05
-4.09722e-05
-1.26454e-05
-3.93353e-05
-1.13103e-05
-3.797e-05
-9.51567e-06
-3.69226e-05
-7.40649e-06
-3.62102e-05
-5.178e-06
-3.58169e-05
-3.056e-06
-3.56948e-05
-1.27918e-06
-3.5723e-05
-8.32699e-08
-3.58294e-05
4.01025e-07
-3.58697e-05
6.3368e-08
-3.57429e-05
-1.03421e-06
-3.53566e-05
-2.73419e-06
-3.46611e-05
-4.77676e-06
-3.36552e-05
-6.84315e-06
-3.23881e-05
-8.60521e-06
-3.09491e-05
-9.79306e-06
-2.94551e-05
-1.02173e-05
-2.80289e-05
-9.82025e-06
-2.6773e-05
-8.72624e-06
-2.57496e-05
-7.19973e-06
-2.49701e-05
-5.5803e-06
-2.43935e-05
-4.21163e-06
-2.39385e-05
-3.3598e-06
-2.35024e-05
-3.17692e-06
-2.29895e-05
-3.64578e-06
-2.23394e-05
-4.53591e-06
-2.15393e-05
-5.53168e-06
-2.06246e-05
-6.30787e-06
-1.96625e-05
-6.64504e-06
-1.87367e-05
-6.42825e-06
-1.79163e-05
-5.73757e-06
-1.72319e-05
-4.8275e-06
-1.66675e-05
-4.0129e-06
-1.61662e-05
-3.56673e-06
-1.56512e-05
-3.62996e-06
-1.50522e-05
-4.18644e-06
-1.43454e-05
-4.90998e-06
-1.35544e-05
-5.48901e-06
-1.27508e-05
-5.58258e-06
-1.20025e-05
-5.22247e-06
-1.13761e-05
-4.39404e-06
-1.08423e-05
-3.75007e-06
-1.0395e-05
-3.13151e-06
-9.95414e-06
-3.07676e-06
-9.55974e-06
-2.73597e-06
-9.18667e-06
-2.58316e-06
-8.91299e-06
-1.89625e-06
-8.63381e-06
-1.92454e-06
-8.35606e-06
-1.92687e-06
-7.91519e-06
-3.06407e-06
-7.18151e-06
-5.13553e-06
-6.01745e-06
-8.14477e-06
-3.61693e-06
-1.68107e-05
-1.18654e-07
-2.44514e-05
6.8815e-06
-4.8965e-05
1.52766e-05
-5.87222e-05
2.85388e-05
-9.28002e-05
-6.04905e-05
3.71561e-05
-0.000865925
-0.000310935
-0.000828199
-0.00030205
-0.000791658
-0.000292846
-0.000756331
-0.000283378
-0.000722242
-0.000273699
-0.000689409
-0.000263858
-0.000657842
-0.000253908
-0.000627546
-0.000243893
-0.000598523
-0.000233855
-0.000570766
-0.000223837
-0.000544268
-0.000213878
-0.000519013
-0.000204013
-0.000494984
-0.00019428
-0.000472159
-0.000184712
-0.000450511
-0.000175341
-0.00043001
-0.0001662
-0.000410623
-0.000157319
-0.000392312
-0.000148728
-0.000375036
-0.000140455
-0.000358751
-0.000132529
-0.00034341
-0.000124978
-0.000328959
-0.000117829
-0.000315343
-0.000111107
-0.000302503
-0.000104835
-0.000290376
-9.90253e-05
-0.000278899
-9.3679e-05
-0.000268012
-8.87747e-05
-0.000257663
-8.427e-05
-0.000247816
-8.00997e-05
-0.000238445
-7.6198e-05
-0.000229526
-7.25457e-05
-0.000221028
-6.91632e-05
-0.000212914
-6.6087e-05
-0.000205139
-6.33537e-05
-0.000197652
-6.09846e-05
-0.000190403
-5.89827e-05
-0.000183344
-5.733e-05
-0.000176435
-5.5989e-05
-0.000169641
-5.49108e-05
-0.000162939
-5.40399e-05
-0.000156309
-5.33176e-05
-0.000149742
-5.2684e-05
-0.000143236
-5.20793e-05
-0.000136798
-5.14467e-05
-0.000130439
-5.07316e-05
-0.000124179
-4.98836e-05
-0.000118042
-4.88573e-05
-0.000112058
-4.76137e-05
-0.00010626
-4.61217e-05
-0.000100684
-4.43591e-05
-9.53694e-05
-4.23149e-05
-9.03528e-05
-3.99901e-05
-8.56695e-05
-3.73989e-05
-8.13507e-05
-3.45692e-05
-7.74224e-05
-3.15429e-05
-7.39036e-05
-2.83752e-05
-7.08034e-05
-2.51344e-05
-6.81206e-05
-2.18981e-05
-6.58436e-05
-1.87512e-05
-6.39483e-05
-1.57857e-05
-6.23969e-05
-1.30952e-05
-6.1142e-05
-1.07681e-05
-6.0125e-05
-8.88375e-06
-5.92772e-05
-7.50698e-06
-5.85258e-05
-6.68164e-06
-5.77963e-05
-6.42454e-06
-5.70151e-05
-6.71679e-06
-5.61174e-05
-7.4985e-06
-5.50528e-05
-8.67306e-06
-5.37877e-05
-1.01128e-05
-5.23083e-05
-1.16653e-05
-5.06241e-05
-1.31615e-05
-4.87683e-05
-1.44297e-05
-4.67945e-05
-1.53108e-05
-4.47737e-05
-1.5673e-05
-4.27885e-05
-1.5419e-05
-4.09276e-05
-1.45064e-05
-3.92757e-05
-1.29622e-05
-3.79031e-05
-1.08883e-05
-3.68567e-05
-8.45288e-06
-3.61529e-05
-5.88183e-06
-3.57713e-05
-3.43757e-06
-3.56485e-05
-1.40203e-06
-3.57342e-05
2.41342e-09
-3.58654e-05
5.32275e-07
-3.59414e-05
1.39374e-07
-3.58343e-05
-1.14133e-06
-3.54538e-05
-3.11464e-06
-3.47534e-05
-5.47722e-06
-3.37347e-05
-7.86178e-06
-3.24496e-05
-9.89036e-06
-3.09903e-05
-1.12523e-05
-2.94781e-05
-1.17296e-05
-2.80395e-05
-1.12589e-05
-2.67794e-05
-9.98632e-06
-2.57596e-05
-8.21948e-06
-2.49883e-05
-6.35161e-06
-2.44219e-05
-4.7781e-06
-2.39781e-05
-3.8036e-06
-2.35518e-05
-3.60316e-06
-2.30443e-05
-4.15334e-06
-2.23942e-05
-5.18595e-06
-2.15897e-05
-6.33621e-06
-2.06682e-05
-7.22937e-06
-1.97001e-05
-7.61314e-06
-1.87708e-05
-7.35758e-06
-1.79501e-05
-6.55825e-06
-1.72687e-05
-5.50885e-06
-1.67094e-05
-4.57222e-06
-1.6215e-05
-4.06113e-06
-1.57065e-05
-4.13853e-06
-1.51101e-05
-4.78283e-06
-1.44031e-05
-5.61699e-06
-1.36099e-05
-6.28218e-06
-1.28058e-05
-6.38665e-06
-1.20601e-05
-5.96824e-06
-1.14357e-05
-5.01835e-06
-1.09076e-05
-4.2782e-06
-1.04666e-05
-3.57258e-06
-1.00311e-05
-3.51217e-06
-9.64365e-06
-3.12346e-06
-9.28088e-06
-2.94593e-06
-9.01794e-06
-2.1592e-06
-8.75266e-06
-2.18981e-06
-8.48495e-06
-2.19458e-06
-8.05213e-06
-3.49689e-06
-7.32063e-06
-5.86702e-06
-6.15395e-06
-9.31146e-06
-3.74405e-06
-1.92206e-05
-2.35575e-07
-2.79599e-05
6.78966e-06
-5.59902e-05
1.52123e-05
-6.71449e-05
2.85026e-05
-0.00010609
-6.91403e-05
3.71524e-05
-0.000863205
-0.000349845
-0.000825462
-0.000339793
-0.000788918
-0.000329391
-0.000753604
-0.000318692
-0.00071954
-0.000307762
-0.000686742
-0.000296656
-0.00065522
-0.00028543
-0.000624978
-0.000274134
-0.000596016
-0.000262818
-0.000568328
-0.000251525
-0.000541904
-0.000240302
-0.000516729
-0.000229188
-0.000492785
-0.000218224
-0.000470049
-0.000207448
-0.000448493
-0.000196897
-0.000428088
-0.000186605
-0.000408799
-0.000176608
-0.000390589
-0.000166938
-0.000373416
-0.000157628
-0.000357235
-0.00014871
-0.000341998
-0.000140214
-0.000327653
-0.000132174
-0.000314143
-0.000124617
-0.000301408
-0.00011757
-0.000289382
-0.000111051
-0.000278
-0.000105061
-0.000267199
-9.95757e-05
-0.000256924
-9.45448e-05
-0.000247133
-8.98905e-05
-0.000237807
-8.55239e-05
-0.000228936
-8.14173e-05
-0.000220492
-7.7607e-05
-0.000212437
-7.41422e-05
-0.000204721
-7.1069e-05
-0.000197292
-6.84136e-05
-0.000190096
-6.61793e-05
-0.000183083
-6.43432e-05
-0.000176211
-6.2861e-05
-0.000169446
-6.16757e-05
-0.000162763
-6.07229e-05
-0.000156145
-5.99352e-05
-0.000149584
-5.92451e-05
-0.000143078
-5.85855e-05
-0.000136633
-5.78915e-05
-0.000130263
-5.71016e-05
-0.000123988
-5.61588e-05
-0.000117833
-5.50119e-05
-0.00011183
-5.36169e-05
-0.000106013
-5.19386e-05
-0.000100419
-4.99526e-05
-9.50877e-05
-4.76465e-05
-9.00563e-05
-4.50215e-05
-8.53618e-05
-4.20934e-05
-8.10372e-05
-3.88938e-05
-7.7109e-05
-3.5471e-05
-7.35958e-05
-3.18885e-05
-7.05072e-05
-2.8223e-05
-6.7843e-05
-2.45623e-05
-6.55902e-05