/*--------------------------------*- C++ -*----------------------------------*\
| =========                 |                                                 |
| \\      /  F ield         | OpenFOAM: The Open Source CFD Toolbox           |
|  \\    /   O peration     | Version:  v1912                                 |
|   \\  /    A nd           | Website:  www.openfoam.com                      |
|    \\/     M anipulation  |                                                 |
\*---------------------------------------------------------------------------*/
FoamFile
{
    version     2.0;
    format      ascii;
    class       volSymmTensorField;
    location    "30";
    object      R;
}
// * * * * * * * * * * * * * * * * * * * * * * * * * * * * * * * * * * * * * //

dimensions      [0 2 -2 0 0 0 0];


internalField   nonuniform List<symmTensor> 
14268
(
(5.93185e-07 -9.03555e-08 0 5.67486e-07 0 5.75011e-07)
(5.94045e-07 -9.0727e-08 0 5.6763e-07 0 5.75279e-07)
(5.95664e-07 -9.11097e-08 0 5.68563e-07 0 5.76738e-07)
(5.98037e-07 -9.15063e-08 0 5.69711e-07 0 5.78585e-07)
(6.00969e-07 -9.19376e-08 0 5.71102e-07 0 5.80764e-07)
(6.04443e-07 -9.24524e-08 0 5.72901e-07 0 5.83346e-07)
(6.08557e-07 -9.30612e-08 0 5.75118e-07 0 5.86431e-07)
(6.13498e-07 -9.37425e-08 0 5.77616e-07 0 5.90112e-07)
(6.19501e-07 -9.44793e-08 0 5.80255e-07 0 5.94462e-07)
(6.26775e-07 -9.52671e-08 0 5.82969e-07 0 5.9952e-07)
(6.35422e-07 -9.61121e-08 0 5.85836e-07 0 6.05319e-07)
(6.45409e-07 -9.70351e-08 0 5.89085e-07 0 6.11921e-07)
(6.56671e-07 -9.80751e-08 0 5.92988e-07 0 6.19423e-07)
(6.69209e-07 -9.92757e-08 0 5.97712e-07 0 6.2792e-07)
(6.82819e-07 -1.00629e-07 0 6.03079e-07 0 6.37238e-07)
(6.94641e-07 -1.01809e-07 0 6.07563e-07 0 6.45224e-07)
(7.03091e-07 -1.02604e-07 0 6.10186e-07 0 6.5062e-07)
(7.08682e-07 -1.03059e-07 0 6.11218e-07 0 6.5382e-07)
(7.12257e-07 -1.03276e-07 0 6.1116e-07 0 6.55487e-07)
(7.14528e-07 -1.03342e-07 0 6.1044e-07 0 6.56188e-07)
(7.15864e-07 -1.03327e-07 0 6.09484e-07 0 6.56322e-07)
(7.16795e-07 -1.03258e-07 0 6.08267e-07 0 6.56128e-07)
(7.17742e-07 -1.03124e-07 0 6.06379e-07 0 6.5559e-07)
(7.18546e-07 -1.02962e-07 0 6.04244e-07 0 6.54858e-07)
(7.19153e-07 -1.028e-07 0 6.02208e-07 0 6.5409e-07)
(7.19495e-07 -1.02634e-07 0 6.00357e-07 0 6.53294e-07)
(7.19538e-07 -1.02442e-07 0 5.9854e-07 0 6.52383e-07)
(7.19264e-07 -1.0221e-07 0 5.96597e-07 0 6.5127e-07)
(7.18529e-07 -1.01927e-07 0 5.94602e-07 0 6.49908e-07)
(7.1726e-07 -1.01595e-07 0 5.92662e-07 0 6.48298e-07)
(7.15762e-07 -1.01229e-07 0 5.90498e-07 0 6.46504e-07)
(7.14229e-07 -1.00836e-07 0 5.87956e-07 0 6.44578e-07)
(7.12366e-07 -1.00402e-07 0 5.8544e-07 0 6.42505e-07)
(7.09966e-07 -9.99199e-08 0 5.83285e-07 0 6.40287e-07)
(7.07053e-07 -9.94069e-08 0 5.81579e-07 0 6.37952e-07)
(7.0393e-07 -9.89017e-08 0 5.80034e-07 0 6.35557e-07)
(7.00919e-07 -9.84248e-08 0 5.78249e-07 0 6.33145e-07)
(6.97891e-07 -9.79576e-08 0 5.76308e-07 0 6.30668e-07)
(6.94855e-07 -9.74908e-08 0 5.7413e-07 0 6.28124e-07)
(6.91579e-07 -9.70053e-08 0 5.71955e-07 0 6.2547e-07)
(6.88064e-07 -9.64955e-08 0 5.69767e-07 0 6.22713e-07)
(6.84332e-07 -9.59822e-08 0 5.67824e-07 0 6.19962e-07)
(6.80445e-07 -9.54778e-08 0 5.66158e-07 0 6.17277e-07)
(6.76361e-07 -9.49842e-08 0 5.64801e-07 0 6.14655e-07)
(6.7209e-07 -9.45001e-08 0 5.63726e-07 0 6.12096e-07)
(6.67607e-07 -9.4027e-08 0 5.62958e-07 0 6.09592e-07)
(6.62915e-07 -9.35654e-08 0 5.62488e-07 0 6.07138e-07)
(6.5804e-07 -9.31183e-08 0 5.62279e-07 0 6.04732e-07)
(6.53019e-07 -9.26845e-08 0 5.62292e-07 0 6.02374e-07)
(6.47876e-07 -9.22652e-08 0 5.62527e-07 0 6.00075e-07)
(6.42662e-07 -9.18603e-08 0 5.62941e-07 0 5.97845e-07)
(6.37405e-07 -9.14693e-08 0 5.63489e-07 0 5.95683e-07)
(6.32077e-07 -9.10893e-08 0 5.64182e-07 0 5.93578e-07)
(6.26642e-07 -9.07214e-08 0 5.65056e-07 0 5.91528e-07)
(6.21131e-07 -9.03684e-08 0 5.6608e-07 0 5.89536e-07)
(6.15551e-07 -9.00324e-08 0 5.67249e-07 0 5.87609e-07)
(6.09926e-07 -8.97139e-08 0 5.68547e-07 0 5.8575e-07)
(6.04287e-07 -8.94132e-08 0 5.69947e-07 0 5.83958e-07)
(5.98686e-07 -8.91294e-08 0 5.71385e-07 0 5.82226e-07)
(5.93126e-07 -8.88605e-08 0 5.72841e-07 0 5.80537e-07)
(5.87638e-07 -8.86044e-08 0 5.74282e-07 0 5.78878e-07)
(5.82314e-07 -8.83593e-08 0 5.75628e-07 0 5.77245e-07)
(5.77157e-07 -8.81239e-08 0 5.76898e-07 0 5.75641e-07)
(5.72228e-07 -8.78987e-08 0 5.7806e-07 0 5.74076e-07)
(5.67578e-07 -8.76831e-08 0 5.79085e-07 0 5.72558e-07)
(5.63229e-07 -8.74759e-08 0 5.79944e-07 0 5.71089e-07)
(5.59205e-07 -8.72746e-08 0 5.80596e-07 0 5.69662e-07)
(5.55412e-07 -8.70743e-08 0 5.81112e-07 0 5.68266e-07)
(5.51797e-07 -8.68741e-08 0 5.81543e-07 0 5.669e-07)
(5.48302e-07 -8.66764e-08 0 5.81955e-07 0 5.65568e-07)
(5.44898e-07 -8.64842e-08 0 5.82387e-07 0 5.64281e-07)
(5.41554e-07 -8.62984e-08 0 5.82872e-07 0 5.63042e-07)
(5.38212e-07 -8.61185e-08 0 5.83458e-07 0 5.61852e-07)
(5.34801e-07 -8.59437e-08 0 5.84202e-07 0 5.60704e-07)
(5.3124e-07 -8.57734e-08 0 5.85177e-07 0 5.59595e-07)
(5.27542e-07 -8.56078e-08 0 5.86364e-07 0 5.58527e-07)
(5.23925e-07 -8.54483e-08 0 5.87539e-07 0 5.57509e-07)
(5.20116e-07 -8.529e-08 0 5.88963e-07 0 5.56528e-07)
(5.16106e-07 -8.51316e-08 0 5.90707e-07 0 5.55601e-07)
(5.12149e-07 -8.49761e-08 0 5.92559e-07 0 5.54746e-07)
(5.0821e-07 -8.48241e-08 0 5.9455e-07 0 5.53965e-07)
(5.04299e-07 -8.46775e-08 0 5.96677e-07 0 5.53264e-07)
(5.00405e-07 -8.45377e-08 0 5.98956e-07 0 5.52646e-07)
(4.96539e-07 -8.44069e-08 0 6.01382e-07 0 5.52117e-07)
(4.92669e-07 -8.42851e-08 0 6.03984e-07 0 5.51677e-07)
(4.88789e-07 -8.41713e-08 0 6.06767e-07 0 5.51324e-07)
(4.8514e-07 -8.40694e-08 0 6.09414e-07 0 5.51031e-07)
(4.81711e-07 -8.39775e-08 0 6.11899e-07 0 5.50778e-07)
(4.78455e-07 -8.38945e-08 0 6.1426e-07 0 5.50561e-07)
(4.75362e-07 -8.38196e-08 0 6.16513e-07 0 5.50376e-07)
(4.72434e-07 -8.37531e-08 0 6.18668e-07 0 5.50226e-07)
(4.6964e-07 -8.36958e-08 0 6.20771e-07 0 5.50119e-07)
(4.66935e-07 -8.36479e-08 0 6.22872e-07 0 5.50063e-07)
(4.6426e-07 -8.36084e-08 0 6.2502e-07 0 5.50059e-07)
(4.61558e-07 -8.35753e-08 0 6.27255e-07 0 5.50099e-07)
(4.58832e-07 -8.35477e-08 0 6.29551e-07 0 5.50172e-07)
(4.56176e-07 -8.35256e-08 0 6.31802e-07 0 5.50262e-07)
(4.53698e-07 -8.35103e-08 0 6.33901e-07 0 5.50356e-07)
(4.51428e-07 -8.35048e-08 0 6.35828e-07 0 5.50454e-07)
(4.4929e-07 -8.35103e-08 0 6.37662e-07 0 5.50566e-07)
(4.47271e-07 -8.35264e-08 0 6.3941e-07 0 5.5069e-07)
(4.45326e-07 -8.35525e-08 0 6.41101e-07 0 5.50821e-07)
(4.43584e-07 -8.35849e-08 0 6.42604e-07 0 5.50937e-07)
(4.42092e-07 -8.36183e-08 0 6.43861e-07 0 5.51021e-07)
(4.40872e-07 -8.36519e-08 0 6.44849e-07 0 5.5107e-07)
(4.39932e-07 -8.3688e-08 0 6.45582e-07 0 5.51093e-07)
(4.39198e-07 -8.37274e-08 0 6.46139e-07 0 5.51099e-07)
(4.38666e-07 -8.37661e-08 0 6.46532e-07 0 5.5109e-07)
(4.38314e-07 -8.38024e-08 0 6.4678e-07 0 5.51068e-07)
(4.38131e-07 -8.38364e-08 0 6.46892e-07 0 5.5103e-07)
(4.38124e-07 -8.38658e-08 0 6.46851e-07 0 5.50964e-07)
(4.38269e-07 -8.3885e-08 0 6.46682e-07 0 5.50888e-07)
(4.38813e-07 -8.3913e-08 0 6.46205e-07 0 5.50779e-07)
(4.39654e-07 -8.39839e-08 0 6.45961e-07 0 5.50923e-07)
(4.40579e-07 -8.41044e-08 0 6.46136e-07 0 5.51335e-07)
(4.41987e-07 -8.4265e-08 0 6.46362e-07 0 5.51973e-07)
(4.43545e-07 -8.44714e-08 0 6.46895e-07 0 5.5285e-07)
(4.45487e-07 -8.47139e-08 0 6.47509e-07 0 5.53929e-07)
(4.47726e-07 -8.49968e-08 0 6.4825e-07 0 5.55209e-07)
(4.50347e-07 -8.53189e-08 0 6.49043e-07 0 5.56681e-07)
(4.53298e-07 -8.56787e-08 0 6.49917e-07 0 5.5834e-07)
(4.5655e-07 -8.60776e-08 0 6.5089e-07 0 5.6019e-07)
(4.60101e-07 -8.65129e-08 0 6.51941e-07 0 5.62222e-07)
(4.63949e-07 -8.69803e-08 0 6.53055e-07 0 5.64427e-07)
(4.6807e-07 -8.74791e-08 0 6.54234e-07 0 5.66794e-07)
(4.72453e-07 -8.80093e-08 0 6.55477e-07 0 5.69319e-07)
(4.77145e-07 -8.85679e-08 0 6.56724e-07 0 5.71992e-07)
(4.8213e-07 -8.9152e-08 0 6.57978e-07 0 5.74802e-07)
(4.87435e-07 -8.97627e-08 0 6.59201e-07 0 5.77744e-07)
(4.93109e-07 -9.04065e-08 0 6.60393e-07 0 5.80839e-07)
(4.98978e-07 -9.10971e-08 0 6.61701e-07 0 5.84095e-07)
(5.05328e-07 -9.18176e-08 0 6.62833e-07 0 5.87507e-07)
(5.12029e-07 -9.25662e-08 0 6.63906e-07 0 5.91076e-07)
(5.19031e-07 -9.3343e-08 0 6.64949e-07 0 5.94788e-07)
(5.26333e-07 -9.41481e-08 0 6.65923e-07 0 5.98625e-07)
(5.3395e-07 -9.49717e-08 0 6.66764e-07 0 6.02567e-07)
(5.41879e-07 -9.5804e-08 0 6.674e-07 0 6.06582e-07)
(5.50108e-07 -9.66345e-08 0 6.67765e-07 0 6.10633e-07)
(5.5859e-07 -9.745e-08 0 6.67837e-07 0 6.1468e-07)
(5.6728e-07 -9.82407e-08 0 6.67608e-07 0 6.18674e-07)
(5.76119e-07 -9.90171e-08 0 6.67059e-07 0 6.22584e-07)
(5.851e-07 -9.97775e-08 0 6.66091e-07 0 6.26392e-07)
(5.93944e-07 -1.00491e-07 0 6.64984e-07 0 6.30088e-07)
(6.02466e-07 -1.01146e-07 0 6.63864e-07 0 6.33631e-07)
(6.1055e-07 -1.01749e-07 0 6.62765e-07 0 6.36978e-07)
(6.18143e-07 -1.02295e-07 0 6.61674e-07 0 6.40096e-07)
(6.2522e-07 -1.02786e-07 0 6.60585e-07 0 6.42969e-07)
(6.31801e-07 -1.03229e-07 0 6.59483e-07 0 6.456e-07)
(6.37932e-07 -1.0363e-07 0 6.5837e-07 0 6.48012e-07)
(6.4367e-07 -1.04002e-07 0 6.57268e-07 0 6.50241e-07)
(6.49165e-07 -1.04356e-07 0 6.56138e-07 0 6.52346e-07)
(6.54514e-07 -1.04704e-07 0 6.55024e-07 0 6.54384e-07)
(6.59942e-07 -1.05066e-07 0 6.53829e-07 0 6.56439e-07)
(6.65296e-07 -1.05446e-07 0 6.52833e-07 0 6.58548e-07)
(6.70695e-07 -1.05866e-07 0 6.5203e-07 0 6.608e-07)
(6.76349e-07 -1.06321e-07 0 6.51345e-07 0 6.63235e-07)
(6.82346e-07 -1.06815e-07 0 6.50788e-07 0 6.65882e-07)
(6.88763e-07 -1.07364e-07 0 6.50255e-07 0 6.68837e-07)
(6.95903e-07 -1.07932e-07 0 6.49554e-07 0 6.71962e-07)
(7.03216e-07 -1.08545e-07 0 6.49041e-07 0 6.75402e-07)
(7.10764e-07 -1.09185e-07 0 6.48667e-07 0 6.78987e-07)
(7.18729e-07 -1.09823e-07 0 6.48137e-07 0 6.8263e-07)
(7.26778e-07 -1.10468e-07 0 6.47635e-07 0 6.86598e-07)
(7.34379e-07 -1.11088e-07 0 6.47384e-07 0 6.9015e-07)
(5.02113e-08 -1.38484e-09 0 6.00214e-08 0 5.47795e-08)
(5.16582e-08 -1.53437e-09 0 6.16625e-08 0 5.62801e-08)
(5.34767e-08 -1.68378e-09 0 6.3811e-08 0 5.82944e-08)
(5.56113e-08 -1.83803e-09 0 6.61626e-08 0 6.05482e-08)
(5.79755e-08 -2.00282e-09 0 6.86345e-08 0 6.29731e-08)
(6.05787e-08 -2.1835e-09 0 7.12166e-08 0 6.5574e-08)
(6.3515e-08 -2.38986e-09 0 7.39996e-08 0 6.84445e-08)
(6.69812e-08 -2.63678e-09 0 7.71871e-08 0 7.17829e-08)
(7.13109e-08 -2.94782e-09 0 8.11052e-08 0 7.59168e-08)
(7.70655e-08 -3.36818e-09 0 8.62679e-08 0 8.13813e-08)
(8.51794e-08 -3.9886e-09 0 9.34685e-08 0 8.90372e-08)
(9.71149e-08 -4.97824e-09 0 1.03832e-07 0 1.00174e-07)
(1.14932e-07 -6.61628e-09 0 1.18728e-07 0 1.16501e-07)
(1.41064e-07 -9.28473e-09 0 1.39393e-07 0 1.39843e-07)
(1.77434e-07 -1.33378e-08 0 1.66186e-07 0 1.71331e-07)
(2.22394e-07 -1.86411e-08 0 1.96869e-07 0 2.0902e-07)
(2.59905e-07 -2.32019e-08 0 2.20587e-07 0 2.3951e-07)
(2.85971e-07 -2.6412e-08 0 2.35572e-07 0 2.59939e-07)
(3.04209e-07 -2.86462e-08 0 2.44888e-07 0 2.73641e-07)
(3.17552e-07 -3.02495e-08 0 2.5081e-07 0 2.83216e-07)
(3.28097e-07 -3.14837e-08 0 2.54852e-07 0 2.90465e-07)
(3.37175e-07 -3.25188e-08 0 2.57922e-07 0 2.96503e-07)
(3.45553e-07 -3.34522e-08 0 2.6052e-07 0 3.01962e-07)
(3.53632e-07 -3.43334e-08 0 2.62898e-07 0 3.07166e-07)
(3.61564e-07 -3.5181e-08 0 2.65168e-07 0 3.12247e-07)
(3.69344e-07 -3.59965e-08 0 2.67362e-07 0 3.17216e-07)
(3.76879e-07 -3.67742e-08 0 2.6947e-07 0 3.22023e-07)
(3.84041e-07 -3.75083e-08 0 2.71472e-07 0 3.26593e-07)
(3.90701e-07 -3.81966e-08 0 2.73366e-07 0 3.30861e-07)
(3.96799e-07 -3.88419e-08 0 2.75139e-07 0 3.34791e-07)
(4.02376e-07 -3.94486e-08 0 2.76738e-07 0 3.38384e-07)
(4.07484e-07 -4.00239e-08 0 2.78165e-07 0 3.41668e-07)
(4.1212e-07 -4.05768e-08 0 2.79515e-07 0 3.44681e-07)
(4.1629e-07 -4.11131e-08 0 2.80863e-07 0 3.47456e-07)
(4.2003e-07 -4.16348e-08 0 2.82228e-07 0 3.50016e-07)
(4.23414e-07 -4.21385e-08 0 2.8355e-07 0 3.52376e-07)
(4.26496e-07 -4.26133e-08 0 2.8475e-07 0 3.54531e-07)
(4.29223e-07 -4.30429e-08 0 2.85806e-07 0 3.56446e-07)
(4.31489e-07 -4.34069e-08 0 2.86681e-07 0 3.58052e-07)
(4.331e-07 -4.36852e-08 0 2.87375e-07 0 3.59249e-07)
(4.33869e-07 -4.38581e-08 0 2.87845e-07 0 3.59923e-07)
(4.33731e-07 -4.39097e-08 0 2.88025e-07 0 3.59996e-07)
(4.32468e-07 -4.3846e-08 0 2.87926e-07 0 3.59388e-07)
(4.29826e-07 -4.36418e-08 0 2.87467e-07 0 3.57927e-07)
(4.25954e-07 -4.33136e-08 0 2.86656e-07 0 3.55686e-07)
(4.20981e-07 -4.28836e-08 0 2.85539e-07 0 3.5275e-07)
(4.1503e-07 -4.23688e-08 0 2.84152e-07 0 3.49198e-07)
(4.08246e-07 -4.17838e-08 0 2.82522e-07 0 3.45115e-07)
(4.00777e-07 -4.11389e-08 0 2.80677e-07 0 3.40586e-07)
(3.92739e-07 -4.04421e-08 0 2.78664e-07 0 3.3569e-07)
(3.84245e-07 -3.9695e-08 0 2.76495e-07 0 3.30488e-07)
(3.75381e-07 -3.88959e-08 0 2.74153e-07 0 3.25016e-07)
(3.66172e-07 -3.80429e-08 0 2.71634e-07 0 3.19283e-07)
(3.56618e-07 -3.71378e-08 0 2.6895e-07 0 3.13292e-07)
(3.46758e-07 -3.61873e-08 0 2.66108e-07 0 3.07066e-07)
(3.36674e-07 -3.52034e-08 0 2.63139e-07 0 3.00659e-07)
(3.26476e-07 -3.42015e-08 0 2.60079e-07 0 2.94143e-07)
(3.16295e-07 -3.31986e-08 0 2.56965e-07 0 2.87601e-07)
(3.0627e-07 -3.22106e-08 0 2.53825e-07 0 2.81118e-07)
(2.96517e-07 -3.12518e-08 0 2.50689e-07 0 2.74765e-07)
(2.87172e-07 -3.03384e-08 0 2.47605e-07 0 2.68633e-07)
(2.78375e-07 -2.9485e-08 0 2.44628e-07 0 2.62816e-07)
(2.70206e-07 -2.87005e-08 0 2.41816e-07 0 2.57382e-07)
(2.62721e-07 -2.79887e-08 0 2.39199e-07 0 2.52378e-07)
(2.55923e-07 -2.73471e-08 0 2.36795e-07 0 2.47813e-07)
(2.49766e-07 -2.67686e-08 0 2.34605e-07 0 2.43669e-07)
(2.44185e-07 -2.62426e-08 0 2.32608e-07 0 2.39904e-07)
(2.39098e-07 -2.57573e-08 0 2.30782e-07 0 2.36466e-07)
(2.34437e-07 -2.5303e-08 0 2.29092e-07 0 2.33303e-07)
(2.30123e-07 -2.4872e-08 0 2.27502e-07 0 2.30359e-07)
(2.26058e-07 -2.44565e-08 0 2.25991e-07 0 2.27573e-07)
(2.22139e-07 -2.4048e-08 0 2.24547e-07 0 2.2489e-07)
(2.18298e-07 -2.36409e-08 0 2.23164e-07 0 2.22274e-07)
(2.14536e-07 -2.32351e-08 0 2.21817e-07 0 2.19714e-07)
(2.10885e-07 -2.28324e-08 0 2.20471e-07 0 2.17203e-07)
(2.07294e-07 -2.24294e-08 0 2.1912e-07 0 2.1472e-07)
(2.03709e-07 -2.20214e-08 0 2.17774e-07 0 2.12247e-07)
(2.00161e-07 -2.1606e-08 0 2.16395e-07 0 2.09775e-07)
(1.96645e-07 -2.118e-08 0 2.14967e-07 0 2.07288e-07)
(1.93086e-07 -2.07359e-08 0 2.13494e-07 0 2.04754e-07)
(1.89477e-07 -2.0272e-08 0 2.11949e-07 0 2.02154e-07)
(1.85799e-07 -1.97861e-08 0 2.10311e-07 0 1.99471e-07)
(1.82021e-07 -1.92746e-08 0 2.08584e-07 0 1.96688e-07)
(1.78161e-07 -1.87399e-08 0 2.06744e-07 0 1.93805e-07)
(1.74206e-07 -1.81819e-08 0 2.048e-07 0 1.9082e-07)
(1.70166e-07 -1.76022e-08 0 2.02754e-07 0 1.87737e-07)
(1.66064e-07 -1.70039e-08 0 2.006e-07 0 1.84566e-07)
(1.61903e-07 -1.63878e-08 0 1.98354e-07 0 1.81317e-07)
(1.5771e-07 -1.57569e-08 0 1.96015e-07 0 1.78002e-07)
(1.53493e-07 -1.51117e-08 0 1.93591e-07 0 1.74629e-07)
(1.49266e-07 -1.44534e-08 0 1.91084e-07 0 1.71205e-07)
(1.45024e-07 -1.37818e-08 0 1.88501e-07 0 1.67732e-07)
(1.40767e-07 -1.30968e-08 0 1.85843e-07 0 1.64211e-07)
(1.36492e-07 -1.23985e-08 0 1.83112e-07 0 1.60641e-07)
(1.32204e-07 -1.16887e-08 0 1.80312e-07 0 1.57028e-07)
(1.27927e-07 -1.09715e-08 0 1.77452e-07 0 1.53387e-07)
(1.23697e-07 -1.02535e-08 0 1.74547e-07 0 1.49743e-07)
(1.19552e-07 -9.54289e-09 0 1.71624e-07 0 1.4613e-07)
(1.15533e-07 -8.84935e-09 0 1.68725e-07 0 1.42591e-07)
(1.11681e-07 -8.183e-09 0 1.659e-07 0 1.39172e-07)
(1.08043e-07 -7.55343e-09 0 1.63196e-07 0 1.35922e-07)
(1.04665e-07 -6.96932e-09 0 1.60658e-07 0 1.32887e-07)
(1.01585e-07 -6.43819e-09 0 1.58329e-07 0 1.30109e-07)
(9.88376e-08 -5.96602e-09 0 1.56242e-07 0 1.27624e-07)
(9.64437e-08 -5.55731e-09 0 1.54428e-07 0 1.25459e-07)
(9.44115e-08 -5.21439e-09 0 1.52911e-07 0 1.2363e-07)
(9.27393e-08 -4.93738e-09 0 1.51706e-07 0 1.22144e-07)
(9.14191e-08 -4.72475e-09 0 1.50811e-07 0 1.20997e-07)
(9.0438e-08 -4.57387e-09 0 1.50219e-07 0 1.20178e-07)
(8.97801e-08 -4.48155e-09 0 1.49913e-07 0 1.19673e-07)
(8.94011e-08 -4.44114e-09 0 1.49867e-07 0 1.19443e-07)
(8.92932e-08 -4.45555e-09 0 1.50109e-07 0 1.19499e-07)
(8.94682e-08 -4.51901e-09 0 1.50571e-07 0 1.19815e-07)
(8.9724e-08 -4.59021e-09 0 1.51026e-07 0 1.20167e-07)
(9.0036e-08 -4.66338e-09 0 1.51439e-07 0 1.20526e-07)
(9.04027e-08 -4.73883e-09 0 1.51811e-07 0 1.20892e-07)
(9.08264e-08 -4.81618e-09 0 1.52141e-07 0 1.21267e-07)
(9.13049e-08 -4.89582e-09 0 1.52434e-07 0 1.21652e-07)
(9.18408e-08 -4.97792e-09 0 1.52691e-07 0 1.22049e-07)
(9.24352e-08 -5.06229e-09 0 1.52918e-07 0 1.2246e-07)
(9.30897e-08 -5.1495e-09 0 1.5312e-07 0 1.2289e-07)
(9.38049e-08 -5.23999e-09 0 1.53304e-07 0 1.23341e-07)
(9.45827e-08 -5.33366e-09 0 1.53475e-07 0 1.23817e-07)
(9.54259e-08 -5.43068e-09 0 1.53634e-07 0 1.2432e-07)
(9.63368e-08 -5.53153e-09 0 1.53783e-07 0 1.24852e-07)
(9.73171e-08 -5.63653e-09 0 1.53927e-07 0 1.25418e-07)
(9.83704e-08 -5.74629e-09 0 1.54071e-07 0 1.2602e-07)
(9.95031e-08 -5.86138e-09 0 1.54216e-07 0 1.26663e-07)
(1.0072e-07 -5.9827e-09 0 1.54365e-07 0 1.2735e-07)
(1.02025e-07 -6.11213e-09 0 1.54525e-07 0 1.28087e-07)
(1.03431e-07 -6.25069e-09 0 1.54704e-07 0 1.28884e-07)
(1.04944e-07 -6.39852e-09 0 1.54912e-07 0 1.29747e-07)
(1.06573e-07 -6.55499e-09 0 1.55154e-07 0 1.30682e-07)
(1.08319e-07 -6.71946e-09 0 1.55425e-07 0 1.31691e-07)
(1.10182e-07 -6.89154e-09 0 1.55727e-07 0 1.32776e-07)
(1.1216e-07 -7.0706e-09 0 1.5607e-07 0 1.33941e-07)
(1.14252e-07 -7.25642e-09 0 1.56464e-07 0 1.35188e-07)
(1.16454e-07 -7.44708e-09 0 1.56909e-07 0 1.36515e-07)
(1.18751e-07 -7.64041e-09 0 1.5741e-07 0 1.37919e-07)
(1.21125e-07 -7.83617e-09 0 1.57961e-07 0 1.39388e-07)
(1.23565e-07 -8.03629e-09 0 1.58567e-07 0 1.40918e-07)
(1.26055e-07 -8.24003e-09 0 1.59245e-07 0 1.42506e-07)
(1.28578e-07 -8.44593e-09 0 1.6e-07 0 1.44143e-07)
(1.31107e-07 -8.65157e-09 0 1.60812e-07 0 1.45811e-07)
(1.33614e-07 -8.85509e-09 0 1.6167e-07 0 1.47496e-07)
(1.36082e-07 -9.05865e-09 0 1.62576e-07 0 1.49185e-07)
(1.38497e-07 -9.26352e-09 0 1.63523e-07 0 1.50868e-07)
(1.40854e-07 -9.47102e-09 0 1.64506e-07 0 1.5254e-07)
(1.43155e-07 -9.68385e-09 0 1.65518e-07 0 1.54198e-07)
(1.45412e-07 -9.9043e-09 0 1.66554e-07 0 1.55845e-07)
(1.47647e-07 -1.01357e-08 0 1.67606e-07 0 1.57491e-07)
(1.49885e-07 -1.03796e-08 0 1.68675e-07 0 1.59144e-07)
(1.52164e-07 -1.06416e-08 0 1.69748e-07 0 1.60826e-07)
(1.54519e-07 -1.092e-08 0 1.70833e-07 0 1.62547e-07)
(1.56995e-07 -1.12203e-08 0 1.71928e-07 0 1.64336e-07)
(1.59626e-07 -1.15435e-08 0 1.73038e-07 0 1.66215e-07)
(1.62466e-07 -1.1878e-08 0 1.74156e-07 0 1.68179e-07)
(1.65459e-07 -1.22476e-08 0 1.75324e-07 0 1.70287e-07)
(1.68744e-07 -1.26136e-08 0 1.76467e-07 0 1.72481e-07)
(1.72222e-07 -1.30038e-08 0 1.77635e-07 0 1.74816e-07)
(1.75871e-07 -1.34152e-08 0 1.7889e-07 0 1.77285e-07)
(1.79692e-07 -1.38114e-08 0 1.8019e-07 0 1.79821e-07)
(1.83831e-07 -1.42329e-08 0 1.81383e-07 0 1.82541e-07)
(1.88133e-07 -1.46445e-08 0 1.82784e-07 0 1.85292e-07)
(2.86186e-08 -6.32982e-10 0 3.33573e-08 0 3.0821e-08)
(2.94088e-08 -6.82995e-10 0 3.42265e-08 0 3.16339e-08)
(3.04051e-08 -7.35303e-10 0 3.53488e-08 0 3.27125e-08)
(3.15689e-08 -7.90388e-10 0 3.65697e-08 0 3.39138e-08)
(3.28516e-08 -8.49366e-10 0 3.7849e-08 0 3.52011e-08)
(3.42457e-08 -9.13561e-10 0 3.91668e-08 0 3.65643e-08)
(3.57822e-08 -9.85766e-10 0 4.05398e-08 0 3.80282e-08)
(3.75426e-08 -1.07007e-09 0 4.20408e-08 0 3.96694e-08)
(3.9675e-08 -1.17315e-09 0 4.3806e-08 0 4.1629e-08)
(4.24319e-08 -1.30797e-09 0 4.60582e-08 0 4.41439e-08)
(4.62389e-08 -1.49976e-09 0 4.91519e-08 0 4.76032e-08)
(5.17715e-08 -1.79405e-09 0 5.36034e-08 0 5.26017e-08)
(5.99941e-08 -2.2648e-09 0 6.00591e-08 0 5.9943e-08)
(7.20736e-08 -3.01581e-09 0 6.9132e-08 0 7.05131e-08)
(8.90143e-08 -4.15502e-09 0 8.10684e-08 0 8.4931e-08)
(1.10539e-07 -5.69089e-09 0 9.51304e-08 0 1.02682e-07)
(1.29296e-07 -7.08083e-09 0 1.06466e-07 0 1.17678e-07)
(1.42146e-07 -8.06263e-09 0 1.13474e-07 0 1.2756e-07)
(1.50922e-07 -8.75066e-09 0 1.17639e-07 0 1.33989e-07)
(1.57163e-07 -9.2509e-09 0 1.20107e-07 0 1.38307e-07)
(1.61972e-07 -9.64181e-09 0 1.21646e-07 0 1.41448e-07)
(1.6605e-07 -9.97325e-09 0 1.22718e-07 0 1.43992e-07)
(1.69803e-07 -1.02728e-08 0 1.23577e-07 0 1.46269e-07)
(1.73448e-07 -1.05545e-08 0 1.24357e-07 0 1.48453e-07)
(1.77075e-07 -1.08234e-08 0 1.25117e-07 0 1.50618e-07)
(1.8069e-07 -1.10803e-08 0 1.25879e-07 0 1.52779e-07)
(1.84255e-07 -1.13244e-08 0 1.26645e-07 0 1.54916e-07)
(1.87709e-07 -1.15558e-08 0 1.27408e-07 0 1.56998e-07)
(1.90992e-07 -1.17766e-08 0 1.28162e-07 0 1.58991e-07)
(1.94072e-07 -1.19912e-08 0 1.28902e-07 0 1.60877e-07)
(1.96953e-07 -1.2204e-08 0 1.29613e-07 0 1.62652e-07)
(1.99655e-07 -1.242e-08 0 1.30291e-07 0 1.64324e-07)
(2.02192e-07 -1.26435e-08 0 1.30955e-07 0 1.65909e-07)
(2.04578e-07 -1.28756e-08 0 1.31622e-07 0 1.67421e-07)
(2.06829e-07 -1.31135e-08 0 1.32295e-07 0 1.6887e-07)
(2.08963e-07 -1.33504e-08 0 1.32959e-07 0 1.70257e-07)
(2.10986e-07 -1.35759e-08 0 1.33594e-07 0 1.71577e-07)
(2.12861e-07 -1.37784e-08 0 1.34191e-07 0 1.72808e-07)
(2.14526e-07 -1.39458e-08 0 1.34733e-07 0 1.73911e-07)
(2.1588e-07 -1.40671e-08 0 1.35213e-07 0 1.74833e-07)
(2.16806e-07 -1.41327e-08 0 1.35606e-07 0 1.75502e-07)
(2.17154e-07 -1.41329e-08 0 1.3585e-07 0 1.75812e-07)
(2.16911e-07 -1.40749e-08 0 1.35926e-07 0 1.75746e-07)
(2.15888e-07 -1.39361e-08 0 1.35839e-07 0 1.75216e-07)
(2.14056e-07 -1.37284e-08 0 1.35553e-07 0 1.7419e-07)
(2.11548e-07 -1.34734e-08 0 1.35096e-07 0 1.72745e-07)
(2.0847e-07 -1.31834e-08 0 1.34495e-07 0 1.70947e-07)
(2.04917e-07 -1.28663e-08 0 1.33774e-07 0 1.68856e-07)
(2.00986e-07 -1.25269e-08 0 1.32954e-07 0 1.66529e-07)
(1.96761e-07 -1.21681e-08 0 1.32063e-07 0 1.64019e-07)
(1.92308e-07 -1.17901e-08 0 1.31115e-07 0 1.61367e-07)
(1.87678e-07 -1.13921e-08 0 1.30116e-07 0 1.586e-07)
(1.829e-07 -1.09737e-08 0 1.29071e-07 0 1.55736e-07)
(1.77993e-07 -1.05375e-08 0 1.27991e-07 0 1.52789e-07)
(1.72988e-07 -1.00889e-08 0 1.26892e-07 0 1.49781e-07)
(1.67939e-07 -9.63655e-09 0 1.25795e-07 0 1.46748e-07)
(1.62915e-07 -9.19164e-09 0 1.24722e-07 0 1.43737e-07)
(1.57983e-07 -8.76472e-09 0 1.23693e-07 0 1.40789e-07)
(1.53212e-07 -8.36548e-09 0 1.22726e-07 0 1.37949e-07)
(1.4867e-07 -8.0016e-09 0 1.21833e-07 0 1.35258e-07)
(1.44415e-07 -7.67818e-09 0 1.21024e-07 0 1.3275e-07)
(1.40493e-07 -7.39751e-09 0 1.20311e-07 0 1.30454e-07)
(1.3693e-07 -7.15859e-09 0 1.19699e-07 0 1.28384e-07)
(1.33729e-07 -6.95754e-09 0 1.19187e-07 0 1.26542e-07)
(1.30872e-07 -6.78814e-09 0 1.18768e-07 0 1.24916e-07)
(1.28324e-07 -6.64285e-09 0 1.18433e-07 0 1.23485e-07)
(1.26044e-07 -6.51416e-09 0 1.18171e-07 0 1.22223e-07)
(1.23992e-07 -6.39591e-09 0 1.17968e-07 0 1.21103e-07)
(1.22132e-07 -6.28357e-09 0 1.1781e-07 0 1.201e-07)
(1.20422e-07 -6.17407e-09 0 1.17689e-07 0 1.19188e-07)
(1.18821e-07 -6.06542e-09 0 1.17597e-07 0 1.18345e-07)
(1.17292e-07 -5.95643e-09 0 1.17535e-07 0 1.17551e-07)
(1.15816e-07 -5.84691e-09 0 1.17499e-07 0 1.16796e-07)
(1.1439e-07 -5.73793e-09 0 1.17482e-07 0 1.16074e-07)
(1.13014e-07 -5.63042e-09 0 1.1748e-07 0 1.15383e-07)
(1.11671e-07 -5.52384e-09 0 1.17491e-07 0 1.14716e-07)
(1.10343e-07 -5.4165e-09 0 1.17516e-07 0 1.14067e-07)
(1.09038e-07 -5.30699e-09 0 1.17551e-07 0 1.13435e-07)
(1.07753e-07 -5.19453e-09 0 1.17595e-07 0 1.12816e-07)
(1.06471e-07 -5.07755e-09 0 1.17653e-07 0 1.12203e-07)
(1.05185e-07 -4.9559e-09 0 1.1772e-07 0 1.11594e-07)
(1.0389e-07 -4.82989e-09 0 1.17799e-07 0 1.10987e-07)
(1.02583e-07 -4.69986e-09 0 1.17894e-07 0 1.1038e-07)
(1.01264e-07 -4.56729e-09 0 1.18006e-07 0 1.09776e-07)
(9.99362e-08 -4.43359e-09 0 1.18139e-07 0 1.09178e-07)
(9.86047e-08 -4.30075e-09 0 1.18298e-07 0 1.0859e-07)
(9.72776e-08 -4.17077e-09 0 1.18482e-07 0 1.08017e-07)
(9.5962e-08 -4.04441e-09 0 1.18694e-07 0 1.07465e-07)
(9.46657e-08 -3.92222e-09 0 1.18935e-07 0 1.06936e-07)
(9.3393e-08 -3.80441e-09 0 1.19208e-07 0 1.06437e-07)
(9.21474e-08 -3.69118e-09 0 1.19517e-07 0 1.05968e-07)
(9.09299e-08 -3.58236e-09 0 1.19864e-07 0 1.05533e-07)
(8.97417e-08 -3.47812e-09 0 1.20254e-07 0 1.05134e-07)
(8.85842e-08 -3.37926e-09 0 1.20687e-07 0 1.04772e-07)
(8.74609e-08 -3.28731e-09 0 1.21165e-07 0 1.0445e-07)
(8.6378e-08 -3.20432e-09 0 1.21686e-07 0 1.04169e-07)
(8.53425e-08 -3.13275e-09 0 1.22248e-07 0 1.03933e-07)
(8.43616e-08 -3.075e-09 0 1.22848e-07 0 1.03743e-07)
(8.34428e-08 -3.03337e-09 0 1.2348e-07 0 1.03601e-07)
(8.25928e-08 -3.00957e-09 0 1.24137e-07 0 1.03506e-07)
(8.18298e-08 -3.00382e-09 0 1.24794e-07 0 1.03455e-07)
(8.10802e-08 -3.01644e-09 0 1.25513e-07 0 1.03441e-07)
(8.04233e-08 -3.04615e-09 0 1.26207e-07 0 1.03461e-07)
(7.98781e-08 -3.08818e-09 0 1.26836e-07 0 1.03503e-07)
(7.94084e-08 -3.14075e-09 0 1.27418e-07 0 1.0356e-07)
(7.90094e-08 -3.20054e-09 0 1.27947e-07 0 1.03626e-07)
(7.86781e-08 -3.26327e-09 0 1.2841e-07 0 1.03694e-07)
(7.84081e-08 -3.32649e-09 0 1.28807e-07 0 1.03758e-07)
(7.81953e-08 -3.38904e-09 0 1.29133e-07 0 1.03816e-07)
(7.80343e-08 -3.45087e-09 0 1.29391e-07 0 1.03864e-07)
(7.79196e-08 -3.51147e-09 0 1.29582e-07 0 1.03902e-07)
(7.78483e-08 -3.5686e-09 0 1.2971e-07 0 1.03929e-07)
(7.78144e-08 -3.62199e-09 0 1.2978e-07 0 1.03946e-07)
(7.78103e-08 -3.68113e-09 0 1.29791e-07 0 1.03949e-07)
(7.78398e-08 -3.73383e-09 0 1.29734e-07 0 1.03934e-07)
(7.79014e-08 -3.78477e-09 0 1.29615e-07 0 1.03904e-07)
(7.79955e-08 -3.83448e-09 0 1.29433e-07 0 1.03859e-07)
(7.812e-08 -3.8831e-09 0 1.29192e-07 0 1.03799e-07)
(7.82752e-08 -3.93011e-09 0 1.28893e-07 0 1.03725e-07)
(7.84595e-08 -3.97491e-09 0 1.28539e-07 0 1.0364e-07)
(7.86714e-08 -4.01731e-09 0 1.28137e-07 0 1.03544e-07)
(7.89103e-08 -4.05748e-09 0 1.27691e-07 0 1.0344e-07)
(7.9177e-08 -4.09559e-09 0 1.27204e-07 0 1.03329e-07)
(7.94737e-08 -4.13191e-09 0 1.26676e-07 0 1.03212e-07)
(7.98013e-08 -4.16671e-09 0 1.26109e-07 0 1.03091e-07)
(8.01591e-08 -4.20031e-09 0 1.25506e-07 0 1.02968e-07)
(8.05478e-08 -4.23301e-09 0 1.24868e-07 0 1.02841e-07)
(8.09691e-08 -4.26481e-09 0 1.24197e-07 0 1.02715e-07)
(8.14232e-08 -4.29584e-09 0 1.23493e-07 0 1.02589e-07)
(8.19098e-08 -4.32651e-09 0 1.22762e-07 0 1.02465e-07)
(8.24302e-08 -4.35667e-09 0 1.22008e-07 0 1.02346e-07)
(8.29849e-08 -4.38597e-09 0 1.21236e-07 0 1.02235e-07)
(8.35806e-08 -4.41431e-09 0 1.20445e-07 0 1.02132e-07)
(8.42241e-08 -4.44095e-09 0 1.1963e-07 0 1.02041e-07)
(8.4916e-08 -4.46473e-09 0 1.18791e-07 0 1.01961e-07)
(8.56327e-08 -4.48327e-09 0 1.17956e-07 0 1.01895e-07)
(8.63704e-08 -4.49629e-09 0 1.17132e-07 0 1.01847e-07)
(8.71271e-08 -4.5033e-09 0 1.16327e-07 0 1.01818e-07)
(8.79841e-08 -4.50408e-09 0 1.15463e-07 0 1.01809e-07)
(8.88235e-08 -4.49833e-09 0 1.14663e-07 0 1.01824e-07)
(8.96639e-08 -4.48647e-09 0 1.13908e-07 0 1.01862e-07)
(9.05062e-08 -4.46828e-09 0 1.13202e-07 0 1.01925e-07)
(9.13438e-08 -4.44704e-09 0 1.12554e-07 0 1.02013e-07)
(9.21745e-08 -4.42476e-09 0 1.11974e-07 0 1.02128e-07)
(9.29848e-08 -4.39983e-09 0 1.11446e-07 0 1.02261e-07)
(9.37631e-08 -4.37385e-09 0 1.10981e-07 0 1.0241e-07)
(9.45078e-08 -4.35036e-09 0 1.10578e-07 0 1.02574e-07)
(9.52186e-08 -4.3318e-09 0 1.10234e-07 0 1.02751e-07)
(9.58991e-08 -4.32095e-09 0 1.09942e-07 0 1.02939e-07)
(9.65558e-08 -4.3195e-09 0 1.09695e-07 0 1.03137e-07)
(9.72012e-08 -4.32917e-09 0 1.09476e-07 0 1.03344e-07)
(9.78398e-08 -4.35103e-09 0 1.09285e-07 0 1.03561e-07)
(9.84975e-08 -4.38579e-09 0 1.09092e-07 0 1.03788e-07)
(9.91703e-08 -4.43348e-09 0 1.0891e-07 0 1.04028e-07)
(9.98973e-08 -4.49167e-09 0 1.08708e-07 0 1.04284e-07)
(1.00683e-07 -4.56043e-09 0 1.08486e-07 0 1.04562e-07)
(1.01513e-07 -4.63281e-09 0 1.08279e-07 0 1.04857e-07)
(1.02467e-07 -4.71207e-09 0 1.07976e-07 0 1.05186e-07)
(1.03436e-07 -4.78426e-09 0 1.07738e-07 0 1.05532e-07)
(1.04527e-07 -4.86011e-09 0 1.07421e-07 0 1.05915e-07)
(1.05664e-07 -4.93169e-09 0 1.07131e-07 0 1.06332e-07)
(1.06844e-07 -4.99278e-09 0 1.06848e-07 0 1.06766e-07)
(1.08173e-07 -5.04739e-09 0 1.06501e-07 0 1.0726e-07)
(1.09549e-07 -5.09312e-09 0 1.06291e-07 0 1.07781e-07)
(2.51251e-08 -5.57161e-10 0 2.92611e-08 0 2.70303e-08)
(2.5799e-08 -5.93396e-10 0 3.00066e-08 0 2.77275e-08)
(2.66496e-08 -6.33131e-10 0 3.09616e-08 0 2.86462e-08)
(2.7637e-08 -6.7593e-10 0 3.19925e-08 0 2.96624e-08)
(2.87185e-08 -7.21853e-10 0 3.3063e-08 0 3.07433e-08)
(2.98845e-08 -7.71567e-10 0 3.41531e-08 0 3.18771e-08)
(3.1157e-08 -8.27301e-10 0 3.52707e-08 0 3.30801e-08)
(3.25993e-08 -8.92021e-10 0 3.64687e-08 0 3.44096e-08)
(3.43277e-08 -9.70136e-10 0 3.785e-08 0 3.59743e-08)
(3.65386e-08 -1.07028e-09 0 3.95848e-08 0 3.79567e-08)
(3.95611e-08 -1.20931e-09 0 4.19459e-08 0 4.06569e-08)
(4.39163e-08 -1.41647e-09 0 4.53322e-08 0 4.45342e-08)
(5.03485e-08 -1.73695e-09 0 5.02426e-08 0 5.0209e-08)
(5.97632e-08 -2.23134e-09 0 5.71457e-08 0 5.83663e-08)
(7.29557e-08 -2.95953e-09 0 6.62191e-08 0 6.94886e-08)
(8.96263e-08 -3.91022e-09 0 7.68063e-08 0 8.30939e-08)
(1.03655e-07 -4.72003e-09 0 8.49615e-08 0 9.41568e-08)
(1.12952e-07 -5.25657e-09 0 8.97045e-08 0 1.0115e-07)
(1.18992e-07 -5.6017e-09 0 9.22107e-08 0 1.05399e-07)
(1.2301e-07 -5.82759e-09 0 9.33912e-08 0 1.07976e-07)
(1.25884e-07 -5.98476e-09 0 9.38558e-08 0 1.09626e-07)
(1.28167e-07 -6.10215e-09 0 9.39667e-08 0 1.10806e-07)
(1.30171e-07 -6.19324e-09 0 9.39196e-08 0 1.11767e-07)
(1.3206e-07 -6.26383e-09 0 9.38137e-08 0 1.12643e-07)
(1.3391e-07 -6.31699e-09 0 9.36966e-08 0 1.13494e-07)
(1.35741e-07 -6.35547e-09 0 9.35913e-08 0 1.14342e-07)
(1.37541e-07 -6.38211e-09 0 9.35095e-08 0 1.15186e-07)
(1.3928e-07 -6.40003e-09 0 9.34564e-08 0 1.16014e-07)
(1.40928e-07 -6.41341e-09 0 9.34332e-08 0 1.16812e-07)
(1.42465e-07 -6.42773e-09 0 9.34377e-08 0 1.17569e-07)
(1.4389e-07 -6.44834e-09 0 9.34641e-08 0 1.18282e-07)
(1.45216e-07 -6.48009e-09 0 9.35073e-08 0 1.18955e-07)
(1.46459e-07 -6.52626e-09 0 9.35658e-08 0 1.19595e-07)
(1.47636e-07 -6.5867e-09 0 9.36382e-08 0 1.20211e-07)
(1.48761e-07 -6.65721e-09 0 9.37216e-08 0 1.20806e-07)
(1.4984e-07 -6.72978e-09 0 9.38102e-08 0 1.21383e-07)
(1.5087e-07 -6.79397e-09 0 9.38984e-08 0 1.21936e-07)
(1.51828e-07 -6.83952e-09 0 9.39845e-08 0 1.22455e-07)
(1.52675e-07 -6.85721e-09 0 9.40677e-08 0 1.22919e-07)
(1.53355e-07 -6.84047e-09 0 9.41492e-08 0 1.233e-07)
(1.53803e-07 -6.78616e-09 0 9.42258e-08 0 1.23566e-07)
(1.53946e-07 -6.70149e-09 0 9.42772e-08 0 1.23669e-07)