/*--------------------------------*- C++ -*----------------------------------*\
| =========                 |                                                 |
| \\      /  F ield         | OpenFOAM: The Open Source CFD Toolbox           |
|  \\    /   O peration     | Version:  v1912                                 |
|   \\  /    A nd           | Website:  www.openfoam.com                      |
|    \\/     M anipulation  |                                                 |
\*---------------------------------------------------------------------------*/
FoamFile
{
    version     2.0;
    format      ascii;
    class       volScalarField;
    location    "50";
    object      k;
}
// * * * * * * * * * * * * * * * * * * * * * * * * * * * * * * * * * * * * * //

dimensions      [0 2 -2 0 0 0 0];


internalField   nonuniform List<scalar> 
14268
(
6.93214e-07
6.92633e-07
6.923e-07
6.92213e-07
6.92295e-07
6.9242e-07
6.92438e-07
6.92562e-07
6.93726e-07
6.95788e-07
6.98595e-07
7.02161e-07
7.06122e-07
7.10612e-07
7.15277e-07
7.20003e-07
7.24605e-07
7.28957e-07
7.32795e-07
7.35826e-07
7.37918e-07
7.38849e-07
7.38963e-07
7.38402e-07
7.37386e-07
7.3635e-07
7.35695e-07
7.35549e-07
7.35837e-07
7.36211e-07
7.36362e-07
7.35958e-07
7.3487e-07
7.33635e-07
7.32301e-07
7.31108e-07
7.30051e-07
7.296e-07
7.29343e-07
7.29513e-07
7.30081e-07
7.30959e-07
7.31913e-07
7.3317e-07
7.34156e-07
7.35177e-07
7.35627e-07
7.36235e-07
7.36884e-07
7.37085e-07
7.38521e-07
7.40082e-07
7.42636e-07
7.45773e-07
7.49194e-07
7.53091e-07
7.56968e-07
7.6053e-07
7.63906e-07
7.66294e-07
7.68001e-07
7.68657e-07
7.68617e-07
7.68358e-07
7.68076e-07
7.67748e-07
7.67482e-07
7.67303e-07
7.6722e-07
7.67222e-07
7.67258e-07
7.67263e-07
7.67229e-07
7.67115e-07
7.66987e-07
7.66878e-07
7.67185e-07
7.68384e-07
7.70475e-07
7.73331e-07
7.77251e-07
7.8283e-07
7.90656e-07
7.99812e-07
8.09915e-07
8.17957e-07
2.83325e-07
2.78736e-07
2.7408e-07
2.69705e-07
2.6613e-07
2.63672e-07
2.6261e-07
2.63288e-07
2.65179e-07
2.68025e-07
2.71801e-07
2.76443e-07
2.8175e-07
2.87594e-07
2.93862e-07
3.0034e-07
3.06876e-07
3.13295e-07
3.19472e-07
3.25005e-07
3.29583e-07
3.32945e-07
3.35358e-07
3.36816e-07
3.37726e-07
3.3862e-07
3.39733e-07
3.41228e-07
3.43193e-07
3.45347e-07
3.4722e-07
3.48294e-07
3.48135e-07
3.46519e-07
3.4318e-07
3.38406e-07
3.327e-07
3.25981e-07
3.19415e-07
3.123e-07
3.05992e-07
3.00178e-07
2.94661e-07
2.90472e-07
2.86224e-07
2.83096e-07
2.80328e-07
2.7837e-07
2.78319e-07
2.77931e-07
2.80443e-07
2.81984e-07
2.84866e-07
2.88832e-07
2.91717e-07
2.96996e-07
3.0048e-07
3.05038e-07
3.08595e-07
3.11541e-07
3.13767e-07
3.1482e-07
3.15007e-07
3.13588e-07
3.1109e-07
3.07377e-07
3.0293e-07
2.97932e-07
2.92679e-07
2.8752e-07
2.82617e-07
2.78304e-07
2.74827e-07
2.72292e-07
2.70895e-07
2.70741e-07
2.71692e-07
2.7345e-07
2.76036e-07
2.79401e-07
2.83679e-07
2.89486e-07
2.97141e-07
3.02664e-07
3.06765e-07
3.10672e-07
1.26513e-07
1.24937e-07
1.23376e-07
1.21939e-07
1.20796e-07
1.20017e-07
1.19684e-07
1.19888e-07
1.20456e-07
1.2131e-07
1.22457e-07
1.23903e-07
1.25585e-07
1.27482e-07
1.29564e-07
1.31775e-07
1.3406e-07
1.36367e-07
1.3864e-07
1.40749e-07
1.42518e-07
1.43827e-07
1.44754e-07
1.4529e-07
1.45591e-07
1.45879e-07
1.46251e-07
1.4678e-07
1.47514e-07
1.48352e-07
1.49103e-07
1.49545e-07
1.49486e-07
1.48775e-07
1.47274e-07
1.45131e-07
1.42595e-07
1.39671e-07
1.36885e-07
1.33964e-07
1.3144e-07
1.29179e-07
1.27103e-07
1.25527e-07
1.23989e-07
1.22843e-07
1.2184e-07
1.21144e-07
1.21006e-07
1.20837e-07
1.21508e-07
1.21906e-07
1.22689e-07
1.23809e-07
1.24595e-07
1.26142e-07
1.27128e-07
1.2846e-07
1.29505e-07
1.30341e-07
1.30968e-07
1.31207e-07
1.31172e-07
1.30544e-07
1.29523e-07
1.28082e-07
1.2641e-07
1.24588e-07
1.22728e-07
1.20954e-07
1.19322e-07
1.17919e-07
1.16806e-07
1.16002e-07
1.15545e-07
1.1546e-07
1.15684e-07
1.16121e-07
1.16782e-07
1.17656e-07
1.18767e-07
1.20224e-07
1.22087e-07
1.23567e-07
1.24936e-07
1.2723e-07
9.32839e-08
9.28544e-08
9.24315e-08
9.20451e-08
9.17674e-08
9.15832e-08
9.15264e-08
9.16021e-08
9.17676e-08
9.19934e-08
9.22959e-08
9.26864e-08
9.3146e-08
9.36975e-08
9.43187e-08
9.50165e-08
9.57503e-08
9.65226e-08
9.72932e-08
9.80356e-08
9.8659e-08
9.91286e-08
9.94543e-08
9.96406e-08
9.97415e-08
9.98381e-08
9.99674e-08
1.00154e-07
1.00413e-07
1.00709e-07
1.0097e-07
1.01107e-07
1.01052e-07
1.00741e-07
1.0014e-07
9.93173e-08
9.83622e-08
9.73219e-08
9.63305e-08
9.53693e-08
9.45416e-08
9.38367e-08
9.32191e-08
9.27285e-08
9.23031e-08
9.19651e-08
9.16836e-08
9.15305e-08
9.14496e-08
9.14697e-08
9.15926e-08
9.17183e-08
9.19189e-08
9.21858e-08
9.24237e-08
9.27954e-08
9.30898e-08
9.34251e-08
9.37282e-08
9.39359e-08
9.41006e-08
9.41373e-08
9.40907e-08
9.38723e-08
9.35398e-08
9.30978e-08
9.25962e-08
9.20736e-08
9.15635e-08
9.10969e-08
9.06883e-08
9.0356e-08
9.0105e-08
8.9938e-08
8.98493e-08
8.98464e-08
8.99078e-08
9.00106e-08
9.01564e-08
9.03463e-08
9.05912e-08
9.09023e-08
9.12779e-08
9.1524e-08
9.18635e-08
9.18868e-08
8.57558e-08
8.56911e-08
8.56234e-08
8.55615e-08
8.55554e-08
8.55667e-08
8.56077e-08
8.56599e-08
8.57116e-08
8.57557e-08
8.58007e-08
8.58633e-08
8.59459e-08
8.60707e-08
8.62241e-08
8.64344e-08
8.66624e-08
8.69251e-08
8.71868e-08
8.74587e-08
8.76841e-08
8.78624e-08
8.79758e-08
8.80428e-08
8.80809e-08
8.81209e-08
8.81745e-08
8.82498e-08
8.83514e-08
8.846e-08
8.85495e-08
8.85823e-08
8.85406e-08
8.83961e-08
8.8144e-08
8.78161e-08
8.74429e-08
8.70823e-08
8.6721e-08
8.64388e-08
8.61854e-08
8.59922e-08
8.58504e-08
8.57063e-08
8.56401e-08
8.55612e-08
8.55155e-08
8.55355e-08
8.54937e-08
8.5589e-08
8.55701e-08
8.56577e-08
8.57176e-08
8.57373e-08
8.5851e-08
8.58776e-08
8.59892e-08
8.60334e-08
8.6127e-08
8.6164e-08
8.6202e-08
8.62004e-08
8.61778e-08
8.61066e-08
8.60081e-08
8.58878e-08
8.57584e-08
8.56367e-08
8.55298e-08
8.54455e-08
8.53917e-08
8.53657e-08
8.53591e-08
8.53778e-08
8.54069e-08
8.54487e-08
8.54907e-08
8.55292e-08
8.55638e-08
8.55975e-08
8.56372e-08
8.56814e-08
8.57647e-08
8.58447e-08
8.60174e-08
8.61143e-08
8.39524e-08
8.40117e-08
8.40561e-08
8.41037e-08
8.41892e-08
8.4278e-08
8.43663e-08
8.44326e-08
8.44668e-08
8.44709e-08
8.44426e-08
8.44069e-08
8.43801e-08
8.43667e-08
8.43744e-08
8.44225e-08
8.44928e-08
8.45944e-08
8.46979e-08
8.48207e-08
8.49202e-08
8.5014e-08
8.50686e-08
8.51088e-08
8.51429e-08
8.51821e-08
8.52304e-08
8.5287e-08
8.53508e-08
8.54033e-08
8.54375e-08
8.54305e-08
8.53798e-08
8.52774e-08
8.51409e-08
8.49842e-08
8.47926e-08
8.46722e-08
8.45048e-08
8.44541e-08
8.43724e-08
8.43439e-08
8.43559e-08
8.42962e-08
8.43508e-08
8.43258e-08
8.43745e-08
8.44408e-08
8.44229e-08
8.45421e-08
8.44983e-08
8.45749e-08
8.46089e-08
8.45715e-08
8.46624e-08
8.45952e-08
8.46665e-08
8.46308e-08
8.4675e-08
8.46647e-08
8.46658e-08
8.46511e-08
8.46245e-08
8.45934e-08
8.45572e-08
8.45236e-08
8.44936e-08
8.44757e-08
8.44764e-08
8.44921e-08
8.45288e-08
8.45803e-08
8.46385e-08
8.47051e-08
8.47642e-08
8.48193e-08
8.48626e-08
8.48939e-08
8.491e-08
8.49146e-08
8.49103e-08
8.48964e-08
8.48729e-08
8.48304e-08
8.48751e-08
8.47554e-08
8.35196e-08
8.36185e-08
8.37014e-08
8.37908e-08
8.3917e-08
8.4045e-08
8.41672e-08
8.4255e-08
8.42992e-08
8.43026e-08
8.42581e-08
8.41931e-08
8.41338e-08
8.40811e-08
8.40399e-08
8.40269e-08
8.40339e-08
8.40678e-08
8.41057e-08
8.41658e-08
8.42132e-08
8.42718e-08
8.43043e-08
8.43355e-08
8.43701e-08
8.4412e-08
8.4461e-08
8.451e-08
8.45548e-08
8.45814e-08
8.45858e-08
8.45533e-08
8.44901e-08
8.44025e-08
8.42883e-08
8.41819e-08
8.40357e-08
8.39938e-08
8.3876e-08
8.39009e-08
8.38845e-08
8.39009e-08
8.39634e-08
8.39342e-08
8.40197e-08
8.40387e-08
8.41013e-08
8.41949e-08
8.41913e-08
8.43286e-08
8.42994e-08
8.43755e-08
8.44212e-08
8.4357e-08
8.44568e-08
8.43447e-08
8.44035e-08
8.43412e-08
8.43566e-08
8.43325e-08
8.43052e-08
8.42829e-08
8.42497e-08
8.42247e-08
8.41995e-08
8.41875e-08
8.41813e-08
8.41912e-08
8.42221e-08
8.42672e-08
8.43313e-08
8.44088e-08
8.44906e-08
8.45784e-08
8.46555e-08
8.47259e-08
8.47822e-08
8.48247e-08
8.48469e-08
8.48563e-08
8.48515e-08
8.48255e-08
8.47874e-08
8.47558e-08
8.47937e-08
8.47342e-08
8.33477e-08
8.34589e-08
8.35636e-08
8.36818e-08
8.3859e-08
8.40457e-08
8.42258e-08
8.43701e-08
8.44473e-08
8.44691e-08
8.44302e-08
8.43349e-08
8.42439e-08
8.41725e-08
8.41042e-08
8.40634e-08
8.40438e-08
8.40549e-08
8.40715e-08
8.41104e-08
8.41415e-08
8.41879e-08
8.42164e-08
8.4245e-08
8.4284e-08
8.43357e-08
8.43981e-08
8.44561e-08
8.45021e-08
8.45198e-08
8.4502e-08
8.4435e-08
8.43387e-08
8.42281e-08
8.41134e-08
8.40113e-08
8.38814e-08
8.3866e-08
8.37687e-08
8.38318e-08
8.38313e-08
8.38863e-08
8.39853e-08
8.39409e-08
8.4084e-08
8.40405e-08
8.41884e-08
8.42856e-08
8.43032e-08
8.44777e-08
8.44342e-08
8.45356e-08
8.45866e-08
8.45297e-08
8.45942e-08
8.45083e-08
8.45237e-08
8.44463e-08
8.44447e-08
8.4394e-08
8.43538e-08
8.43159e-08
8.42663e-08
8.42338e-08
8.42062e-08
8.41945e-08
8.41963e-08
8.42129e-08
8.42572e-08
8.43185e-08
8.44045e-08
8.45088e-08
8.46151e-08
8.47285e-08
8.4836e-08
8.49352e-08
8.50097e-08
8.50637e-08
8.50946e-08
8.51069e-08
8.51025e-08
8.50683e-08
8.50175e-08
8.49698e-08
8.49851e-08
8.48609e-08
8.32212e-08
8.33441e-08
8.34673e-08
8.36182e-08
8.38469e-08
8.40954e-08
8.43469e-08
8.45621e-08
8.47021e-08
8.47683e-08
8.47671e-08
8.46809e-08
8.45798e-08
8.44873e-08
8.43809e-08
8.43024e-08
8.42472e-08
8.4217e-08
8.41985e-08
8.42068e-08
8.42157e-08
8.42516e-08
8.42824e-08
8.43258e-08
8.43813e-08
8.44492e-08
8.45239e-08
8.45795e-08
8.46224e-08
8.4632e-08
8.46064e-08
8.45165e-08
8.4409e-08
8.42786e-08
8.41404e-08
8.40264e-08
8.38874e-08
8.38872e-08
8.37752e-08
8.38695e-08
8.38697e-08
8.39568e-08
8.4056e-08
8.40444e-08
8.41673e-08
8.41963e-08
8.43175e-08
8.44405e-08
8.44767e-08
8.47114e-08
8.46912e-08
8.47779e-08
8.4883e-08
8.47757e-08
8.48533e-08
8.47304e-08
8.47177e-08
8.4638e-08
8.46053e-08
8.45443e-08
8.44707e-08
8.4423e-08
8.43511e-08
8.43148e-08
8.42728e-08
8.42661e-08
8.42637e-08
8.42889e-08
8.4344e-08
8.44181e-08
8.45185e-08
8.464e-08
8.47637e-08
8.48977e-08
8.5017e-08
8.51259e-08
8.52259e-08
8.52988e-08
8.53434e-08
8.53645e-08
8.53663e-08
8.53305e-08
8.52445e-08
8.51679e-08
8.5148e-08
8.50306e-08
8.30073e-08
8.31184e-08
8.32365e-08
8.33906e-08
8.36481e-08
8.39441e-08
8.42591e-08
8.45453e-08
8.475e-08
8.48706e-08
8.4928e-08
8.4917e-08
8.48459e-08
8.47595e-08
8.46599e-08
8.45674e-08
8.44883e-08
8.44465e-08
8.44229e-08
8.44304e-08
8.44425e-08
8.44784e-08
8.45093e-08
8.45551e-08
8.46295e-08
8.47242e-08
8.48215e-08
8.49006e-08
8.49445e-08
8.49357e-08
8.48618e-08
8.47172e-08
8.45455e-08
8.43753e-08
8.42025e-08
8.40527e-08
8.39042e-08
8.38848e-08
8.37988e-08
8.39064e-08
8.39491e-08
8.40801e-08
8.42405e-08
8.41951e-08
8.43984e-08
8.43341e-08
8.45329e-08
8.46973e-08
8.48036e-08
8.50418e-08
8.5022e-08
8.51849e-08
8.53049e-08
8.52242e-08
8.53113e-08
8.51343e-08
8.50587e-08
8.49676e-08
8.48687e-08
8.47929e-08
8.46741e-08
8.46043e-08
8.45127e-08
8.44619e-08
8.44171e-08
8.44031e-08
8.44244e-08
8.44621e-08
8.45453e-08
8.46401e-08
8.47675e-08
8.49193e-08
8.5073e-08
8.52314e-08
8.53755e-08
8.55131e-08
8.56347e-08
8.5729e-08
8.57952e-08
8.58324e-08
8.58573e-08
8.58288e-08
8.5719e-08
8.56141e-08
8.55548e-08
8.53751e-08
8.25098e-08
8.25448e-08
8.26204e-08
8.27546e-08
8.30371e-08
8.33886e-08
8.37935e-08
8.41779e-08
8.44931e-08
8.47323e-08
8.48896e-08
8.49511e-08
8.49231e-08
8.48501e-08
8.47669e-08
8.468e-08
8.45955e-08
8.45536e-08
8.45318e-08
8.45416e-08
8.45644e-08
8.46133e-08
8.46748e-08
8.47555e-08
8.48621e-08
8.49897e-08
8.51151e-08
8.52047e-08
8.52505e-08
8.52357e-08
8.51372e-08
8.49547e-08
8.47341e-08
8.4473e-08
8.42646e-08
8.40384e-08
8.38725e-08
8.38269e-08
8.37176e-08
8.38381e-08
8.38655e-08
8.40387e-08
8.41822e-08
8.41575e-08
8.44158e-08
8.43299e-08
8.46581e-08
8.46305e-08
8.49176e-08
8.51212e-08
8.51518e-08
8.54286e-08
8.55545e-08
8.55794e-08
8.56796e-08
8.55867e-08
8.55004e-08
8.54003e-08
8.52771e-08
8.51514e-08
8.50064e-08
8.49076e-08
8.478e-08
8.47197e-08
8.46272e-08
8.46146e-08
8.45941e-08
8.46052e-08
8.46453e-08
8.47141e-08
8.4818e-08
8.49651e-08
8.5118e-08
8.52917e-08
8.54546e-08
8.56173e-08
8.57736e-08
8.59081e-08
8.60188e-08
8.60959e-08
8.61703e-08
8.61863e-08
8.60952e-08
8.59775e-08
8.58892e-08
8.56778e-08
8.13221e-08
8.11656e-08
8.10806e-08
8.10794e-08
8.12991e-08
8.16595e-08
8.21744e-08
8.27431e-08
8.33278e-08
8.38623e-08
8.43083e-08
8.46088e-08
8.47287e-08
8.47238e-08
8.46731e-08
8.46279e-08
8.45684e-08
8.45361e-08
8.45161e-08
8.45271e-08
8.45554e-08
8.46101e-08
8.46688e-08
8.47606e-08
8.49248e-08
8.51085e-08
8.52839e-08
8.54217e-08
8.54815e-08
8.54453e-08
8.53006e-08
8.50655e-08
8.47955e-08
8.44836e-08
8.42105e-08
8.39266e-08
8.36879e-08
8.36114e-08
8.3457e-08
8.36073e-08
8.35951e-08
8.38332e-08
8.39472e-08
8.40626e-08
8.41769e-08
8.42247e-08
8.44675e-08
8.45604e-08
8.48509e-08
8.49647e-08
8.50969e-08
8.54248e-08
8.55959e-08
8.57081e-08
8.58148e-08
8.58282e-08
8.57847e-08
8.57297e-08
8.55885e-08
8.54405e-08
8.52546e-08
8.51051e-08
8.49407e-08
8.48142e-08
8.47136e-08
8.46338e-08
8.46032e-08
8.45858e-08
8.46208e-08
8.46831e-08
8.47876e-08
8.49423e-08
8.51015e-08
8.52829e-08
8.54611e-08
8.56339e-08
8.58117e-08
8.59759e-08
8.61254e-08
8.62412e-08
8.63754e-08
8.64553e-08
8.64017e-08
8.62832e-08
8.61548e-08
8.59023e-08
7.87187e-08
7.81649e-08
7.76879e-08
7.73358e-08
7.72052e-08
7.73403e-08
7.78116e-08
7.85872e-08
7.97019e-08
8.09952e-08
8.21836e-08
8.30484e-08
8.35924e-08
8.38674e-08
8.39936e-08
8.40486e-08
8.40443e-08
8.40139e-08
8.40357e-08
8.41026e-08
8.42188e-08
8.43615e-08
8.44721e-08
8.46307e-08
8.48123e-08
8.50081e-08
8.51818e-08
8.53102e-08
8.53883e-08
8.53826e-08
8.52758e-08
8.50601e-08
8.47477e-08
8.43691e-08
8.39797e-08
8.3545e-08
8.32587e-08
8.30765e-08
8.28473e-08
8.29273e-08
8.28815e-08
8.31818e-08
8.33238e-08
8.35061e-08
8.35269e-08
8.36741e-08
8.37627e-08
8.39266e-08
8.42949e-08
8.44479e-08
8.47087e-08
8.51113e-08
8.53666e-08
8.56035e-08
8.57491e-08
8.58873e-08
8.58778e-08
8.58425e-08
8.57018e-08
8.55237e-08
8.53049e-08
8.51191e-08
8.49084e-08
8.47515e-08
8.46044e-08
8.44829e-08
8.43916e-08
8.43084e-08
8.4265e-08
8.42421e-08
8.42685e-08
8.43526e-08
8.44672e-08
8.46403e-08
8.48376e-08
8.50564e-08
8.53046e-08
8.55759e-08
8.58522e-08
8.60948e-08
8.63527e-08
8.65287e-08
8.65374e-08
8.64674e-08
8.62984e-08
8.59418e-08
7.2904e-08
7.13319e-08
6.96823e-08
6.80515e-08
6.66732e-08
6.5836e-08
6.58559e-08
6.69096e-08
6.93844e-08
7.25244e-08
7.56936e-08
7.84481e-08
8.04894e-08
8.17999e-08
8.25473e-08
8.29426e-08
8.31544e-08
8.33098e-08
8.34607e-08
8.36561e-08
8.39056e-08
8.42056e-08
8.44484e-08
8.46545e-08
8.48699e-08
8.50572e-08
8.52303e-08
8.53742e-08
8.5444e-08
8.53929e-08
8.51992e-08
8.48769e-08
8.44857e-08
8.39986e-08
8.3466e-08
8.27836e-08
8.2318e-08
8.18814e-08
8.16153e-08
8.13495e-08
8.12624e-08
8.14217e-08
8.15026e-08
8.17379e-08
8.1726e-08
8.18772e-08
8.17556e-08
8.19308e-08
8.21026e-08
8.23036e-08
8.30741e-08
8.36134e-08
8.42645e-08
8.4872e-08
8.52376e-08
8.57432e-08
8.58723e-08
8.5864e-08
8.57472e-08
8.55116e-08
8.5233e-08
8.49608e-08
8.46616e-08
8.4405e-08
8.41319e-08
8.39007e-08
8.36388e-08
8.33875e-08
8.3142e-08
8.29216e-08
8.27249e-08
8.26113e-08
8.25616e-08
8.25962e-08
8.27335e-08
8.29229e-08
8.32394e-08
8.37134e-08
8.43294e-08
8.49656e-08
8.56554e-08
8.62583e-08
8.65056e-08
8.66271e-08
8.65232e-08
8.61795e-08
6.73255e-08
6.45562e-08
6.12283e-08
5.71362e-08
5.22997e-08
4.74564e-08
4.39936e-08
4.40487e-08
4.82718e-08
5.50149e-08
6.24381e-08
6.89288e-08
7.40611e-08
7.75943e-08
7.97682e-08
8.09971e-08
8.17812e-08
8.21726e-08
8.24849e-08
8.28664e-08
8.33402e-08
8.38255e-08
8.41949e-08
8.45245e-08
8.48285e-08
8.5076e-08
8.52549e-08
8.53527e-08
8.53744e-08
8.53571e-08
8.52155e-08
8.48471e-08
8.43117e-08
8.37062e-08
8.30093e-08
8.21822e-08
8.1535e-08
8.0828e-08
8.04502e-08
7.98643e-08
7.96291e-08
7.94748e-08
7.9269e-08
7.93469e-08
7.88038e-08
7.84536e-08
7.75295e-08
7.71864e-08
7.66594e-08
7.68348e-08
7.82191e-08
7.90238e-08
8.07121e-08
8.23608e-08
8.34252e-08
8.48177e-08
8.5403e-08
8.5655e-08
8.56258e-08
8.5374e-08
8.50514e-08
8.46843e-08
8.43096e-08
8.39668e-08
8.35757e-08
8.32001e-08
8.2748e-08
8.22533e-08
8.16949e-08
8.10308e-08
8.03032e-08
7.94461e-08
7.85546e-08
7.77078e-08
7.7106e-08
7.6882e-08
7.7167e-08
7.79451e-08
7.91998e-08
8.06904e-08
8.23385e-08
8.40799e-08
8.52725e-08
8.60656e-08
8.62099e-08
8.61217e-08
6.23825e-08
5.82032e-08
5.27607e-08
4.57403e-08
3.77916e-08
3.09994e-08
2.74319e-08
2.75341e-08
3.10935e-08
3.77813e-08
4.74045e-08
5.75778e-08
6.5982e-08
7.205e-08
7.59959e-08
7.83735e-08
7.99879e-08
8.09293e-08
8.14828e-08
8.19709e-08
8.25423e-08
8.31611e-08
8.366e-08
8.41158e-08
8.45188e-08
8.48263e-08
8.50698e-08
8.51993e-08
8.52115e-08
8.50861e-08
8.49041e-08
8.46638e-08
8.41986e-08
8.3542e-08
8.26937e-08
8.17676e-08
8.09128e-08
8.0014e-08
7.94069e-08
7.85341e-08
7.80452e-08
7.73396e-08
7.66019e-08
7.60218e-08
7.46505e-08
7.33969e-08
7.15211e-08
7.05219e-08
6.94337e-08
6.98481e-08
7.15014e-08
7.27223e-08
7.5492e-08
7.83016e-08
8.01686e-08
8.27068e-08
8.40193e-08
8.47664e-08
8.5102e-08
8.49742e-08
8.4715e-08
8.43229e-08
8.38833e-08
8.34332e-08
8.29399e-08
8.23948e-08
8.17479e-08
8.09635e-08
7.99799e-08
7.87355e-08
7.71958e-08
7.54292e-08
7.36428e-08
7.2061e-08
7.09974e-08
7.05195e-08
7.06905e-08
7.16375e-08
7.33516e-08
7.55368e-08
7.80132e-08
8.0742e-08
8.29556e-08
8.45651e-08
8.51622e-08
8.55649e-08
5.48491e-08
4.85057e-08
4.02699e-08
3.07591e-08
2.28119e-08
1.79237e-08
1.54473e-08
1.55268e-08
1.8195e-08
2.35395e-08
3.19132e-08
4.31064e-08
5.51996e-08
6.45088e-08
7.06689e-08
7.44936e-08
7.70393e-08
7.86139e-08
7.96114e-08
8.03801e-08
8.11717e-08
8.20255e-08
8.27507e-08
8.32886e-08
8.37995e-08
8.42698e-08
8.467e-08
8.49798e-08
8.51258e-08
8.50004e-08
8.46659e-08
8.4199e-08
8.37126e-08
8.30941e-08
8.21597e-08
8.10751e-08
7.99695e-08
7.88685e-08
7.78877e-08
7.64372e-08
7.52773e-08
7.33997e-08
7.16099e-08
6.98219e-08
6.74252e-08
6.54054e-08
6.30334e-08
6.19235e-08
6.08064e-08
6.1505e-08
6.3527e-08
6.51921e-08
6.89741e-08
7.29585e-08
7.57889e-08
7.9447e-08
8.16438e-08
8.30325e-08
8.39246e-08
8.40744e-08
8.39019e-08
8.35142e-08
8.29967e-08
8.23991e-08
8.17377e-08
8.09182e-08
7.99031e-08
7.85496e-08
7.68096e-08
7.46268e-08
7.20493e-08
6.92897e-08
6.66769e-08
6.44727e-08
6.29654e-08
6.21995e-08
6.22429e-08
6.34741e-08
6.58158e-08
6.88717e-08
7.24174e-08
7.63311e-08
7.98333e-08
8.23841e-08
8.3578e-08
8.46318e-08
4.43331e-08
3.5829e-08
2.59893e-08
1.75607e-08
1.17318e-08
8.42325e-09
6.94513e-09
7.49121e-09
9.44301e-09
1.31208e-08
1.91661e-08
2.81427e-08
3.97512e-08
5.29892e-08
6.26497e-08
6.86521e-08
7.24298e-08
7.49652e-08
7.66376e-08
7.78274e-08
7.89198e-08
7.99756e-08
8.09792e-08
8.17378e-08
8.23418e-08
8.29879e-08
8.35627e-08
8.40583e-08
8.44923e-08
8.48167e-08
8.47925e-08
8.43218e-08
8.35923e-08
8.27027e-08
8.16034e-08
8.02106e-08
7.87603e-08
7.72638e-08
7.56386e-08
7.31609e-08
7.06717e-08
6.70737e-08
6.38824e-08
6.078e-08
5.76163e-08
5.47621e-08
5.2024e-08
5.04171e-08
4.8431e-08
4.90827e-08
5.14222e-08
5.39122e-08
5.94693e-08
6.52146e-08
6.93461e-08
7.44535e-08
7.77331e-08
8.00915e-08
8.16252e-08
8.21553e-08
8.22767e-08
8.19267e-08
8.13598e-08
8.06025e-08
7.96845e-08
7.84464e-08
7.684e-08
7.46947e-08
7.19718e-08
6.86927e-08
6.48848e-08
6.07826e-08
5.67878e-08
5.31572e-08
5.04647e-08
4.89526e-08
4.88243e-08
5.04683e-08
5.37324e-08
5.81727e-08
6.31755e-08
6.88364e-08
7.43662e-08
7.84835e-08
8.06032e-08
8.25556e-08
3.09832e-08
2.15507e-08
1.36895e-08
8.4043e-09
5.86262e-09
5.0712e-09
4.64825e-09
4.84359e-09
5.59095e-09
7.09923e-09
1.05196e-08
1.69074e-08
2.58272e-08
3.76856e-08
5.09894e-08
6.02436e-08
6.59711e-08
6.97757e-08
7.24425e-08
7.42356e-08
7.56116e-08
7.69843e-08
7.84553e-08
7.97005e-08
8.07147e-08
8.15802e-08
8.2388e-08
8.30364e-08
8.35215e-08
8.38225e-08
8.39481e-08
8.37504e-08
8.3127e-08
8.21209e-08
8.0817e-08
7.90091e-08
7.70735e-08
7.48207e-08
7.2187e-08
6.81968e-08
6.37666e-08
5.81866e-08
5.35458e-08
4.92224e-08
4.52936e-08
4.134e-08
3.81453e-08
3.58522e-08
3.34582e-08
3.37427e-08
3.57639e-08
3.8826e-08
4.55729e-08
5.42502e-08
6.07034e-08
6.77478e-08
7.23448e-08
7.58402e-08
7.82923e-08
7.92563e-08
7.96796e-08
7.94486e-08
7.88147e-08
7.78285e-08
7.65154e-08
7.46951e-08
7.22896e-08
6.91561e-08
6.5215e-08
6.05391e-08
5.51167e-08
4.9474e-08
4.4271e-08
4.01891e-08
3.75356e-08
3.60401e-08
3.62082e-08
3.77437e-08
4.11277e-08
4.56095e-08
5.11866e-08
5.81471e-08
6.64553e-08
7.28325e-08
7.6496e-08
7.92731e-08
1.78189e-08
1.16674e-08
7.61519e-09
6.17401e-09
5.85391e-09
5.51686e-09
5.42822e-09
5.48464e-09
5.77053e-09
6.15717e-09
6.2209e-09
9.57309e-09
1.5634e-08
2.42986e-08
3.5892e-08
4.81025e-08
5.64895e-08
6.19715e-08
6.56536e-08
6.81906e-08
7.02786e-08
7.22035e-08
7.41588e-08
7.59439e-08
7.76775e-08
7.93687e-08
8.08354e-08
8.19375e-08
8.26953e-08
8.30684e-08
8.31062e-08
8.28006e-08
8.21573e-08
8.11116e-08
7.9611e-08
7.73716e-08
7.48201e-08
7.14302e-08
6.7265e-08
6.13384e-08
5.46183e-08
4.70609e-08
4.10272e-08
3.59497e-08
3.15774e-08
2.72077e-08
2.44643e-08
2.24602e-08
2.07425e-08
2.09424e-08
2.23982e-08
2.51764e-08
3.0038e-08
3.9015e-08
4.82895e-08
5.85633e-08
6.53942e-08
7.03463e-08
7.39346e-08
7.54687e-08
7.6321e-08
7.60708e-08
7.52628e-08
7.3902e-08
7.20141e-08
6.94271e-08
6.60348e-08
6.17306e-08
5.64307e-08
5.0301e-08
4.37075e-08
3.76568e-08
3.28633e-08
2.92315e-08
2.6829e-08
2.54699e-08
2.56259e-08
2.73045e-08
3.04507e-08
3.46579e-08
4.00468e-08
4.5967e-08
5.45508e-08
6.42573e-08
7.09389e-08
7.5259e-08
1.02071e-08
7.16394e-09
6.09618e-09
5.96812e-09
6.0933e-09
6.16355e-09
5.90629e-09
6.99333e-09
8.19587e-09
7.53802e-09
5.77745e-09
6.16979e-09
9.23784e-09
1.4818e-08
2.29716e-08
3.338e-08
4.41835e-08
5.21616e-08
5.72466e-08
6.06772e-08
6.34573e-08
6.60238e-08
6.86324e-08
7.10886e-08
7.34278e-08
7.57655e-08
7.7956e-08
7.97488e-08
8.11164e-08
8.20134e-08
8.23167e-08
8.20105e-08
8.1218e-08
7.99736e-08
7.81775e-08
7.53942e-08
7.18644e-08
6.69382e-08
6.05923e-08
5.25434e-08
4.3696e-08
3.51895e-08
2.94456e-08
2.47605e-08
2.05423e-08
1.66058e-08
1.43361e-08
1.27723e-08
1.18249e-08
1.20519e-08
1.31951e-08
1.53807e-08
1.84837e-08
2.51791e-08
3.28039e-08
4.43804e-08
5.52589e-08
6.22952e-08
6.73501e-08
7.00151e-08
7.13624e-08
7.11741e-08
7.02126e-08
6.83152e-08
6.57753e-08
6.23307e-08
5.79059e-08
5.24475e-08
4.58615e-08
3.83514e-08
3.06373e-08
2.45615e-08
2.05673e-08
1.84605e-08
1.73905e-08
1.68625e-08
1.72236e-08
1.95909e-08
2.23594e-08
2.60433e-08
3.11336e-08
3.64121e-08
4.27621e-08
5.10273e-08
6.14359e-08
6.86912e-08
6.33865e-09
5.54667e-09
5.48347e-09
5.8834e-09
6.21292e-09
2.70701e-09
1.70115e-09
3.13498e-09
7.33499e-09
9.86424e-09
7.1633e-09
5.71729e-09
6.27998e-09
9.00593e-09
1.37379e-08
2.06514e-08
2.9076e-08
3.73352e-08
4.43624e-08
4.94075e-08
5.31373e-08
5.63607e-08
5.97555e-08
6.32438e-08
6.68354e-08
7.04702e-08
7.37512e-08
7.63642e-08
7.83457e-08
7.97426e-08
8.04629e-08
8.04667e-08
7.98293e-08
7.84597e-08
7.62595e-08
7.26852e-08
6.76479e-08
6.07774e-08
5.18295e-08
4.17948e-08
3.19895e-08
2.44109e-08
1.91102e-08
1.4662e-08
1.10817e-08
8.43876e-09
7.37154e-09
6.89691e-09
6.81998e-09
7.37135e-09
8.20094e-09
9.56726e-09
1.11046e-08
1.55082e-08
2.05581e-08
2.88581e-08
4.05733e-08
5.11854e-08
5.84326e-08
6.22685e-08
6.43512e-08
6.43551e-08
6.32115e-08
6.07893e-08
5.7519e-08
5.31781e-08
4.76862e-08
4.09544e-08
3.28603e-08
2.46893e-08
1.89862e-08
1.61538e-08
1.50319e-08
1.48091e-08
1.43195e-08
1.42406e-08
1.45131e-08
1.59018e-08
1.77838e-08
2.05354e-08
2.42709e-08
2.87269e-08
3.38079e-08
3.92762e-08
4.74251e-08
5.746e-08
5.06504e-09
5.08323e-09
5.60135e-09
5.9833e-09
2.45145e-09
2.75276e-10
4.64026e-11
6.34471e-11
6.72913e-10
3.38455e-09
8.26399e-09
7.12644e-09
5.77827e-09
6.28004e-09
8.2337e-09
1.18277e-08
1.71241e-08
2.32161e-08
2.90477e-08
3.38416e-08
3.77318e-08
4.13068e-08
4.54267e-08
5.02611e-08
5.60271e-08
6.22692e-08
6.80222e-08
7.24327e-08
7.54601e-08
7.74423e-08
7.85011e-08
7.86517e-08
7.80173e-08
7.64126e-08
7.36059e-08
6.89096e-08
6.19211e-08
5.27809e-08
4.13258e-08
2.96892e-08
2.09213e-08
1.4666e-08
1.06145e-08
7.86088e-09
6.1931e-09
5.11589e-09
4.90022e-09
4.94516e-09
5.27382e-09
6.04455e-09
6.63154e-09
7.31084e-09
8.40883e-09
1.00209e-08
1.27671e-08
1.75116e-08
2.52572e-08
3.47795e-08
4.58667e-08
5.2342e-08
5.53605e-08
5.56324e-08
5.42255e-08
5.12564e-08
4.70701e-08
4.15505e-08
3.45058e-08
2.65207e-08
1.98999e-08
1.59901e-08
1.38797e-08
1.26584e-08
1.32681e-08
1.42006e-08
1.40568e-08
1.41809e-08
1.41614e-08
1.53865e-08
1.69455e-08
1.95085e-08
2.03215e-08
2.24119e-08
2.7082e-08
3.08479e-08
3.57929e-08
4.30283e-08
4.81867e-09
5.57031e-09
5.87294e-09
2.43561e-09
4.02425e-10
2.29915e-11
1.99304e-12
3.86355e-12
4.41135e-12
1.19498e-10
1.42459e-09
7.37369e-09
6.83723e-09
5.44115e-09
6.00439e-09
6.99605e-09
9.52448e-09
1.3038e-08
1.68275e-08
2.00957e-08
2.28159e-08
2.53789e-08
2.84881e-08
3.26326e-08
3.85165e-08
4.69378e-08
5.6951e-08
6.53091e-08
7.08807e-08
7.42149e-08
7.59837e-08
7.63976e-08
7.57046e-08
7.36915e-08
7.0027e-08
6.38723e-08
5.46615e-08
4.30841e-08
2.96205e-08
1.89072e-08
1.22514e-08
8.32181e-09
6.52694e-09
5.3823e-09
4.7038e-09
4.36226e-09
4.84986e-09
5.51755e-09
6.53822e-09
7.50164e-09
7.6021e-09
7.2411e-09
7.59681e-09
7.51641e-09
9.13714e-09
1.132e-08
1.56087e-08
2.11002e-08
2.91486e-08
3.80981e-08
4.31618e-08
4.4297e-08
4.2694e-08
3.91581e-08
3.37681e-08
2.72193e-08
2.10935e-08
1.68974e-08
1.44823e-08
1.33678e-08
1.26633e-08
1.21304e-08
1.40421e-08
1.61781e-08
1.64997e-08
1.73816e-08
1.7714e-08
1.93742e-08
2.07459e-08
2.2672e-08
1.93202e-08
1.97892e-08
2.2585e-08
2.54085e-08
2.81447e-08
3.28869e-08
5.40395e-09
5.63195e-09
1.91589e-09
5.38386e-10
6.30841e-11
3.30753e-11
7.93948e-11
1.27673e-10
1.02327e-10
3.86446e-11
2.96912e-11
7.44398e-10
5.82487e-09
5.2319e-09
5.54499e-09
5.16131e-09
5.53962e-09
7.0904e-09
9.07221e-09
1.1019e-08
1.26773e-08
1.42877e-08
1.63374e-08
1.92175e-08
2.34525e-08
2.98051e-08
3.89852e-08
5.13193e-08
6.21742e-08
6.8591e-08
7.19474e-08
7.30093e-08
7.2364e-08
6.98473e-08
6.50791e-08
5.71458e-08
4.55801e-08
3.16966e-08
1.88295e-08
1.08928e-08
6.91715e-09
5.30172e-09
4.76133e-09
4.34591e-09
3.96803e-09
3.79885e-09
4.21725e-09
1.92224e-09
1.7065e-09
2.37341e-09
3.50186e-09
5.9547e-09
8.08508e-09
6.37515e-09
6.83373e-09
8.65324e-09
1.13075e-08
1.42226e-08
1.72689e-08
2.20818e-08
2.71243e-08
2.88966e-08
2.74503e-08
2.40998e-08
2.00441e-08
1.67535e-08
1.48451e-08
1.36525e-08
1.26388e-08
1.24602e-08
1.16653e-08
1.11774e-08
1.11692e-08
4.11243e-09
3.38764e-09
3.19522e-09
4.25904e-09
7.79645e-09
1.73584e-08
2.69953e-08
2.11337e-08
1.86444e-08
1.98645e-08
2.21651e-08
2.3318e-08
2.67608e-08
3.90826e-09
1.08984e-09
4.95043e-10
1.25005e-10
7.59837e-11
2.26618e-10
4.76301e-10
6.66078e-10
6.14814e-10
3.6542e-10
9.8441e-11
3.03714e-11
1.48714e-10
8.32186e-10
6.02947e-09
4.71675e-09
4.25811e-09
4.41597e-09
4.88995e-09
5.9894e-09
6.92618e-09
7.88552e-09
9.16707e-09
1.10947e-08
1.39101e-08
1.81709e-08
2.45645e-08
3.38212e-08
4.63442e-08
5.79788e-08
6.45006e-08
6.71646e-08
6.693e-08
6.39988e-08
5.79683e-08
4.80994e-08
3.43133e-08
1.97073e-08
1.05232e-08
6.09873e-09
4.62719e-09
4.27336e-09
4.14457e-09
3.56051e-09
3.18491e-09
1.23769e-09
6.49564e-10
9.10144e-11
3.34124e-11
7.22007e-13
3.28322e-11
1.80139e-10
7.86768e-10
2.97238e-09
5.31251e-09
5.99047e-09
9.04333e-09
1.19966e-08
1.27704e-08
1.33721e-08
1.45785e-08
1.59805e-08
1.61399e-08
1.53393e-08
1.44554e-08
1.37331e-08
1.34982e-08
1.30257e-08
1.17792e-08
1.04103e-08
9.088e-09
4.49057e-09
1.63298e-09
4.68328e-10
1.6539e-10
5.74761e-11
1.1796e-10
3.82527e-10
1.35039e-09
4.72034e-09
1.09715e-08
1.88269e-08
1.87316e-08
1.95131e-08
2.18927e-08
2.29648e-08
5.99279e-10
3.08358e-10
1.61163e-10
1.24664e-10
3.5168e-10
9.52675e-10
1.53987e-09
1.89238e-09
1.78073e-09
1.18134e-09
5.3688e-10
2.60664e-10
4.23613e-11
7.09966e-11
1.64997e-10
5.28414e-09
3.42369e-09
3.53172e-09
3.74812e-09
4.08012e-09
4.56645e-09
5.25768e-09
6.19904e-09
7.49108e-09
9.24119e-09
1.13771e-08
1.57645e-08
2.16268e-08
3.01313e-08
4.12364e-08
5.17292e-08
5.72382e-08
5.79866e-08
5.5047e-08
4.78895e-08
3.61991e-08
2.13212e-08
1.10936e-08
6.40042e-09
4.92885e-09
4.48675e-09
3.88865e-09
3.46593e-09
1.59478e-09
6.14782e-10
2.06427e-10
1.07745e-10
7.73561e-11
1.28201e-10
1.62387e-10
1.51465e-10
7.86271e-11
3.0339e-11
7.695e-12
6.88086e-10
2.354e-09
5.68522e-09
1.04751e-08
1.21657e-08
1.1802e-08
1.18469e-08
1.27483e-08
1.37949e-08
1.40618e-08
1.40262e-08
1.38216e-08
1.35737e-08
1.08264e-08
9.53517e-09
4.52696e-09
2.09708e-09
7.62659e-10
2.01326e-10
1.25518e-10
1.39098e-10
1.64288e-10
1.97741e-10
2.12594e-10
1.50272e-10
1.39637e-10
3.61272e-10
2.71649e-09
1.21918e-08
1.73452e-08
2.18535e-08
2.17581e-08
2.15653e-10
1.57171e-10
1.64434e-10
4.19497e-10
1.3417e-09
2.74375e-09
3.7602e-09
4.21548e-09
3.81104e-09
2.5165e-09
1.47479e-09
1.00559e-09
3.15303e-10
2.03715e-11
1.40533e-11
4.43656e-09
2.82083e-09
3.07378e-09
3.18736e-09
3.38366e-09
3.83341e-09
4.54412e-09
5.45009e-09
6.62434e-09
8.05251e-09
9.69789e-09
1.16997e-08
1.49835e-08
2.00474e-08
2.69611e-08
3.52067e-08
4.22654e-08
4.48394e-08
4.23128e-08
3.43564e-08
2.23499e-08
1.25224e-08
7.66218e-09
5.99078e-09
5.50123e-09
4.65474e-09
1.76296e-09
9.706e-10
4.26985e-10
2.93322e-10
3.48044e-10
5.25734e-10
6.71367e-10
9.42412e-10
1.07898e-09
1.02381e-09
6.8688e-10
4.13617e-10
1.42451e-10
1.18744e-11
1.80758e-10
9.32901e-10
5.25716e-09
1.08358e-08
1.21442e-08
1.23318e-08
1.31126e-08
1.43131e-08
1.46146e-08
1.43536e-08
1.26962e-08
1.06174e-08
2.702e-09
2.00966e-09
1.38682e-09
5.4091e-10
3.05298e-10
3.02041e-10
4.66399e-10
7.62572e-10
1.14793e-09
1.41172e-09
1.58569e-09
1.41464e-09
1.23985e-09
6.27669e-10
2.72163e-10
5.1008e-10
3.42161e-09
2.43728e-08
2.07511e-08
1.50837e-10
2.03985e-10
4.70365e-10
1.48726e-09
3.62873e-09
5.93047e-09
7.27113e-09
7.71964e-09
6.84556e-09
4.64706e-09
3.14904e-09
2.21722e-09
1.19564e-09
3.03941e-10
2.04725e-11
5.32575e-10
1.68232e-09
2.74299e-09
2.86027e-09
3.11717e-09
3.76534e-09
4.84143e-09
5.92991e-09
7.42705e-09
8.43305e-09
9.33587e-09
1.05726e-08
1.25265e-08
1.51303e-08
1.92311e-08
2.3698e-08
2.75623e-08
2.91095e-08
2.71555e-08
2.12545e-08
1.42438e-08
9.69799e-09
7.75688e-09
7.3101e-09
7.00166e-09
2.0193e-09
5.25701e-10