/*--------------------------------*- C++ -*----------------------------------*\
| =========                 |                                                 |
| \\      /  F ield         | OpenFOAM: The Open Source CFD Toolbox           |
|  \\    /   O peration     | Version:  v1912                                 |
|   \\  /    A nd           | Website:  www.openfoam.com                      |
|    \\/     M anipulation  |                                                 |
\*---------------------------------------------------------------------------*/
FoamFile
{
    version     2.0;
    format      ascii;
    class       volScalarField;
    location    "50";
    object      p_rgh;
}
// * * * * * * * * * * * * * * * * * * * * * * * * * * * * * * * * * * * * * //

dimensions      [1 -1 -2 0 0 0 0];


internalField   nonuniform List<scalar> 
14268
(
-6743.98
-7723.3
-8671.4
-9538.9
-10259.7
-10773.8
-11023.6
-10960.7
-10608.3
-9967.39
-9076.84
-7988.37
-6761.6
-5454.72
-4120.62
-2803.37
-1535.74
-341.028
757.171
1798.83
2773.24
3696.59
4585.28
5453.95
6310.06
7152.06
7967.64
8733.48
9418.66
9987.09
10401.6
10630.5
10643.2
10439.1
10002
9336.37
8458.9
7399.08
6193.19
4894.29
3550.03
2210.01
885.178
-331.143
-1422.59
-2368.62
-3143.88
-3730.69
-4115.86
-4285.93
-4255.11
-4028.48
-3632.02
-3096.39
-2460.08
-1775.1
-1083.66
-439.994
123.12
563.265
854.646
980.91
936.318
725.413
361.603
-138.618
-755.994
-1452.57
-2190.86
-2933.85
-3643.18
-4281.04
-4811.21
-5201.73
-5426.95
-5468.42
-5307.43
-4945.22
-4383.96
-3634.25
-2715.19
-1655.24
-487.336
750.706
2077.34
3371.05
-6739.5
-7726.2
-8683.11
-9559.9
-10289.5
-10811
-11066
-11006
-10651.8
-10006.4
-9109.49
-8013.95
-6779.75
-5465.63
-4124.99
-2802.39
-1530.66
-332.081
763.119
1805.52
2778.49
3699.91
4586.82
5454.48
6310.79
7154.47
7973.21
8743.5
9433.99
10008
10427.7
10660.7
10677
10472.8
10034.3
9365.4
8482.89
7416.65
6203.55
4897.26
3545.94
2199.35
870.27
-350.77
-1445.7
-2394.59
-3171.84
-3759.93
-4145.69
-4314.75
-4282.71
-4053.24
-3652.67
-3111.84
-2469.38
-1777.72
-1079.61
-429.585
139.417
583.678
877.872
1005.31
960.584
747.674
380.736
-123.565
-746.027
-1447.77
-2191.54
-2939.98
-3654.54
-4297.2
-4831.6
-5225.61
-5453.46
-5496.34
-5336.4
-4974.09
-4411.75
-3660.04
-2738.11
-1674.43
-502.178
740.947
2073.68
3372.45
-6738.82
-7739.23
-8712.94
-9607.48
-10353.1
-10887.6
-11150.8
-11091.2
-10734.7
-10081.7
-9173.09
-8062.86
-6813.46
-5484.89
-4131.47
-2798.52
-1519.15
-312.343
775.311
1819.76
2789.42
3706.73
4589.89
5455.38
6312
7159.01
7984.12
8763.35
9464.53
10049.7
10479.7
10720.8
10740.3
10537.5
10096.4
9420.79
8528.01
7448.85
6221.27
4900.34
3535.12
2175.83
838.429
-391.536
-1493.03
-2447.31
-3228.29
-3818.79
-4205.73
-4374.49
-4338.45
-4103.14
-3694.23
-3142.95
-2488.11
-1783.05
-1071.57
-408.803
172.084
624.61
924.355
1053.82
1007.84
791.211
418.012
-94.398
-727.121
-1439.22
-2193.88
-2953.13
-3678.01
-4330.14
-4872.85
-5273.72
-5506.84
-5554.23
-5394.92
-5032.22
-4467.65
-3711.9
-2784.16
-1713.1
-532.267
720.635
2066.05
3378.85
-6738.17
-7759.32
-8757.96
-9679.72
-10449.8
-11004.4
-11280.5
-11224.4
-10862.4
-10196.4
-9269.26
-8136.51
-6864.24
-5513.78
-4140.97
-2792.41
-1502.05
-290.834
802.797
1842.25
2806.25
3717.19
4594.58
5456.63
6313.53
7165.4
8000.08
8792.84
9510.23
10112.5
10558.3
10812
10840.2
10637.2
10191.7
9505.66
8596.98
7497.89
6248.12
4904.86
3518.59
2140.28
789.976
-453.133
-1564.38
-2526.71
-3313.24
-3907.38
-4296
-4462.08
-4422.13
-4178.31
-3756.97
-3189.99
-2516.47
-1791.1
-1059.42
-377.411
221.643
686.692
994.731
1127.62
1080.36
857.569
474.604
-50.0414
-698.413
-1426.24
-2197.39
-2972.95
-3713.35
-4379.73
-4934.96
-5346.15
-5587.04
-5638.76
-5482.53
-5119.51
-4551.7
-3789.95
-2853.52
-1771.4
-577.771
689.666
2053.05
3384.9
-6737.73
-7786.91
-8818.84
-9777.16
-10580.3
-11161.8
-11454.9
-11401.1
-11032.4
-10349.2
-9397.32
-8235.05
-6931.63
-5551.55
-4152.62
-2783.11
-1478.23
-260.616
839.933
1873.02
2828.91
3730.8
4600.06
5457.22
6314.38
7172.79
8020.35
8831.4
9570.74
10196.1
10663.4
10934.1
10972.1
10770.2
10319.3
9619.5
8689.39
7563.38
6283.67
4910.32
3495.83
2092.27
724.132
-536.142
-1660.33
-2633.34
-3427.21
-4026.31
-4417.34
-4582.44
-4535.22
-4279.78
-3841.67
-3253.52
-2554.88
-1802.14
-1043.31
-335.576
288.474
770.319
1089.19
1226.49
1177.34
946.441
550.347
9.4155
-660.019
-1409.01
-2202.35
-2999.78
-3761.02
-4446.5
-5018.52
-5443.55
-5694.99
-5754.72
-5600.82
-5237.09
-4664.82
-3894.98
-2946.85
-1849.88
-639.13
647.542
2034.58
3392.76
-6736.68
-7821.59
-8896.1
-9900.4
-10746.3
-11362.6
-11677.7
-11628
-11249.4
-10543.3
-9559.1
-8359.03
-7016.05
-5598.28
-4166.15
-2770.04
-1446.72
-220.011
886.876
1912.66
2858.18
3748.01
4606.56
5457.03
6314.06
7180.42
8044.21
8878.52
9645.86
10300.8
10795.7
11088.5
11140.4
10937.9
10480.6
9763.24
8805.82
7645.52
6327.79
4916.32
3466.29
2031.27
640.175
-641.083
-1781.32
-2767.64
-3570.56
-4176
-4570.04
-4731.84
-4677.75
-4408.01
-3948.95
-3334.17
-2603.75
-1816.24
-1023.02
-283.138
373.836
876.64
1208.63
1351.91
1300.33
1058.61
645.813
84.2385
-611.623
-1387.37
-2208.71
-3033.69
-3821.14
-4530.68
-5123.81
-5566.26
-5830.88
-5898.98
-5749.25
-5384.95
-4807.2
-4027.3
-3064.52
-1948.96
-716.782
593.725
2010.23
3399.75
-6733.81
-7862.34
-8989.3
-10050.2
-10949.2
-11608.3
-11950.2
-11904.2
-11514
-10779.5
-9755.48
-8509.05
-7117.6
-5653.65
-4180.92
-2752.26
-1406.37
-167.962
944
1961.58
2894.06
3768.09
4612.94
5454.65
6311.1
7186.97
8070.5
8933.31
9735.08
10426.5
10955.4
11275.5
11345.8
11140.8
10676.7
9937.86
8946.84
7744.43
6380.14
4922.13
3429.02
1956.3
536.928
-768.851
-1928.29
-2930.35
-3744.04
-4357.43
-4755.22
-4916.19
-4851.53
-4564.52
-4079.98
-3432.85
-2663.78
-1833.81
-998.625
-220.797
479.14
1005.77
1354.06
1504.42
1449.92
1194.58
761.574
174.678
-553.144
-1361.46
-2216.83
-3075.2
-3894.39
-4633.05
-5251.78
-5715.34
-5995.98
-6075.41
-5929.96
-5564.68
-4980.19
-4188.13
-3207.55
-2069.45
-811.344
527.622
1979.53
3405.96
-6728
-7908.65
-9098.72
-10227.9
-11191.3
-11902.4
-12277
-12235.5
-11829.9
-11060.7
-9988.23
-8685.98
-7236.53
-5717.37
-4196.1
-2728.58
-1355.7
-103.336
1013.01
2021.3
2937.24
3791.47
4619.12
5449.45
6304.38
7191.05
8097.94
8994.82
9837.94
10573.4
11143.3
11496.3
11591.1
11379.2
10909
10144.6
9113.14
7860.24
6440.29
4926.9
3382.97
1866.23
413.214
-920.43
-2101.96
-3122.28
-3948.26
-4571.32
-4973.41
-5132.18
-5057.37
-4750.3
-4235.97
-3550.64
-2735.74
-1855.05
-969.567
-141.935
599.442
1158.57
1528.14
1685.49
1626.38
1355.05
898.266
281.057
-484.208
-1331.26
-2226.86
-3124.58
-3981.16
-4754.09
-5402.98
-5891.4
-6190.86
-6282.56
-6142.67
-5776.61
-5184.31
-4378.12
-3376.68
-2212.05
-923.421
448.839
1941.51
3410.23
-6717.56
-7959.37
-9224.16
-10434.6
-11475
-12248.1
-12661.3
-12624.1
-12200.2
-11389.2
-10259.1
-8890.9
-7373.14
-5789.14
-4210.93
-2697.75
-1293.14
-24.7383
1095.37
2092.39
2987.7
3817.59
4623.69
5439.52
6291.96
7190.78
8124.84
9061.8
9953.74
10741.3
11360
11751.7
11872.9
11661.2
11179.6
10384.8
9305.62
7993.08
6507.83
4929.56
3326.76
1759.69
267.437
-1096.94
-2303.62
-3344.14
-4184.04
-4819.18
-5225.74
-5385.61
-5297.28
-4967.33
-4418.53
-3688.92
-2820.64
-1880.63
-936.014
-49.7332
739.32
1336.92
1730.92
1897.39
1830.57
1540.97
1056.67
403.452
-404.237
-1296.86
-2239.19
-3182.44
-4082.25
-4894.84
-5578.65
-6095.88
-6417.17
-6523.6
-6390.11
-6022.8
-5421.29
-4598.82
-3573.23
-2377.85
-1053.8
358.017
1894.06
3411.94
-6700.69
-8013.42
-9365.85
-10672.2
-11803.8
-12650.4
-13109.3
-13076.4
-12629.3
-11768.5
-10570.4
-9124.99
-7527.76
-5868.56
-4224.28
-2658.11
-1216.59
69.7037
1193.11
2176.53
3046.24
3846.98
4626.21
5423.94
6272.03
7184.04
8149.25
9132.75
10081.7
10930.3
11606.4
12043.4
12190.5
11989.3
11491
10660.1
9525.02
8143.02
6581.82
4928.71
3258.78
1634.82
97.9461
-1299.79
-2534.18
-3596.88
-4452.28
-5102.51
-5512.31
-5675.44
-5572.47
-5217.39
-4629.36
-3849.29
-2919.77
-1911.1
-897.966
56.1612
900.327
1542.16
1963.3
2140.78
2066.01
1754.62
1236.79
539.453
-310.134
-1258.46
-2254.19
-3249.32
-4198.34
-5056.04
-5779.6
-6329.66
-6675.8
-6797.93
-6671.97
-6303.67
-5691.85
-4851.17
-3798.28
-2567.88
-1203.48
262.127
1828.5
3410.17
-6675.02
-8069.19
-9523.54
-10942.1
-12181.1
-13113.4
-13625.2
-13597.1
-13122.5
-12202.3
-10924.4
-9389.72
-7700.89
-5955.36
-4235.06
-2607.95
-1123.7
181.775
1308.12
2274.19
3113.99
3879.28
4625.32
5400.38
6241.81
7168.14
8168.74
9205.83
10220.7
11140.3
11883.5
12373.6
12554.1
12360.3
11844.7
10972.4
9772.57
8310.17
6661.63
4922.53
3177.05
1489.3
-97.0451
-1530.42
-2795.25
-3881.2
-4753.16
-5424.4
-5833.26
-6007.23
-5885.48
-5502.91
-4870.66
-4033.65
-3034.71
-1947.39
-855.461
176.26
1084.14
1775.86
2228.02
2416.41
2334.22
1997.52
1440.06
694.231
-206.679
-1216.63
-2272.4
-3325.98
-4330.45
-5239.03
-6007.54
-6594.71
-6969.15
-7108.88
-6992.15
-6622.16
-5998.42
-5137.33
-4053.81
-2783.69
-1374.43
145.529
1757.92
3405.21
-6638.09
-8125.27
-9697.59
-11247.5
-12612.5
-13646.3
-14220.4
-14194.7
-13685
-12695
-11324
-9686.64
-7892.99
-6049
-4242.04
-2545.25
-1011.32
313.804
1442.65
2387.46
3192.64
3913.79
4618.83
5364.19
6197.03
7139.14
8179.83
9278.39
10369.6
11371.3
12192.2
12744.2
12963.6
12777.6
12242.6
11323.4
10049.1
8493.78
6745.75
4908.92
3078.65
1320.81
-319.239
-1790.55
-3089.06
-4196.85
-5091.46
-5784.91
-6195.25
-6377.21
-6238.01
-5826.92
-5145.18
-4244.14
-3167.27
-1990.63
-808.597
311.585
1292.45
2040.54
2527.65
2727.89
2636.15
2270.13
1668.17
867.604
-92.9955
-1171.82
-2294.42
-3413.22
-4479.52
-5444.81
-6263.43
-6892.1
-7298.21
-7455.66
-7350.22
-6978.76
-6341.93
-5458.53
-4341.31
-3027.47
-1567.55
9.88843
1678.65
3396.34
-6586.29
-8178.51
-9886.93
-11589.8
-13102.2
-14251.4
-14895.1
-14877.3
-14325.1
-13250.8
-11771.9
-10017.6
-8104.79
-6149.26
-4243.82
-2467.95
-880.632
472.323
1599.58
2519.11
3282.36
3951.32
4607.23
5318.79
6138.5
7095.5
8180.6
9348.83
10526.9
11622.7
12533.5
13157.6
13423.7
13246.4
12686.8
11715.3
10356.1
8695.7
6832.5
4885.4
2960.77
1126.25
-570.477
-2082.78
-3416.46
-4545.89
-5469.24
-6182.01
-6601.76
-6787.35
-6633.11
-6192.66
-5456.56
-4483.44
-3319.59
-2042.21
-757.817
462.956
1526.78
2338.15
2864.3
3077.08
2973.62
2573.8
1922.31
1059.6
31.419
-1124.46
-2320.95
-3512.13
-4646.99
-5675.27
-6549.65
-7224.58
-7665.72
-7843.09
-7751.98
-7377.35
-6725.44
-5817.42
-4663.34
-3301.62
-1785.06
-144.473
1588.64
3382.52
-6516.37
-8228.26
-10094.1
-11974.4
-13659.3
-14948.6
-15676.6
-15656.9
-15049
-13874.9
-12272.7
-10384.5
-8337.08
-6255.69
-4238.98
-2373.46
-725.662
658.689
1782.43
2671.32
3384.4
3993.25
4591.24
5258.89
6060.41
7032.41
8166.79
9414.23
10691.2
11894.8
12908.9
13616
13937.5
13772.4
13178.5
12150.1
10694.5
8911.45
6921.85
4847.48
2819.5
901.884
-853.361
-2410.17
-3777.68
-4930.34
-5885.39
-6612.88
-7056.86
-7245.38
-7073.14
-6604.14
-5807.82
-4754.83
-3494.11
-2103.78
-703.572
632.148
1789.4
2671.67
3241.26
3467.44
3349.69
2910.83
2203.51
1270.95
166.54
-1075.24
-2352.99
-3623.74
-4834.03
-5931.51
-6867.16
-7593.25
-8072.64
-8270.19
-8195.8
-7817.48
-7149.46
-6215.31
-5021.38
-3608.18
-2028.54
-318.474
1486.5
3362.62
-6455.84
-8257.95
-10244.8
-12266.1
-14088.2
-15481.8
-16265.6
-16256.8
-15603.5
-14347.9
-12649.4
-10658.7
-8508.82
-6331.47
-4229.2
-2294.95
-601.016
806.283
1926.22
2789.98
3462.71
4022.67
4571.32
5201.34
5987.81
6970.87
8143.04
9451.57
10805.2
12092.3
13186.9
13958.7
14324.9
14170.5
13545.7
12475
10946.4
9068.09
6977.72
4809.69
2704.01
725.418
-1069.31
-2657.66
-4046.01
-5215.59
-6191.99
-6930.53
-7398.04
-7588.23
-7405.01
-6917.12
-6076.29
-4962.49
-3629.26
-2153.47
-665.864
760.931
1987.74
2923.75
3525.84
3761.16
3631.07
3162.67
2411.25
1425.7
264.172
-1042.26
-2379.36
-3708.88
-4974.95
-6123.96
-7105.2
-7869.63
-8377.53
-8588.55
-8530.92
-8147.76
-7467.49
-6514.32
-5289.45
-3839.51
-2212.22
-450.078
1408.65
3344.2
-6421.4
-8273.56
-10328.5
-12428.5
-14323.2
-15779.6
-16599.3
-16593.7
-15906.4
-14605.7
-12854.3
-10807.1
-8601.43
-6371.82
-4222.78
-2250.96
-531.885
887.781
2005.48
2855.23
3505.51
4038.21
4559.72
5168.92
5946.11
6935.08
8127.7
9469.59
10865.2
12198.1
13336.7
14144
14535.9
14387.2
13744.5
12651.3
11082.6
9152.01
7005.24
4786.69
2639.56
628.717
-1187.56
-2790.76
-4190.46
-5369.37
-6356.98
-7102.3
-7582.44
-7777.05
-7585.32
-7087.98
-6223.14
-5076.24
-3703.63
-2181.15
-644.904
829.848
2095.32
3060.64
3680.36
3920.47
3783.34
3299
2523.26
1508.87
316.41
-1025.06
-2394.07
-3755.32
-5051.51
-6228.23
-7233.96
-8019.13
-8542.4
-8764.07
-8708.73
-8326.58
-7639.71
-6676.4
-5434.98
-3965.29
-2311.98
-521.657
1366.02
3333.26
-6381.32
-8284.55
-10410.1
-12592.7
-14567.1
-16086.6
-16936.5
-16928.7
-16222.3
-14873.5
-13068.1
-10960.6
-8696.76
-6412.83
-4214.95
-2203.9
-458.632
973.728
2088.9
2923.78
3550.35
4054.24
4547.03
5134.12
5900.83
6895.66
8109.2
9485.71
10925.3
12306.2
13491.2
14335.5
14732.8
14611.7
13949.1
12833.2
11221.7
9237.27
7032.87
4760.66
2571.73
528.051
-1309.99
-2927.42
-4339.6
-5528.04
-6526.83
-7280.01
-7773.2
-7977.33
-7772.24
-7266.17
-6376.5
-5195.57
-3781.89
-2210.63
-623.035
900.61
2206.7
3202.58
3840.64
4085.57
3940.81
3440.19
2638.78
1594.6
370.527
-1007.07
-2409.15
-3803.73
-5131.69
-6336.82
-7367.45
-8173.66
-8712.9
-8951.25
-8888.44
-8510.94
-7817.77
-6844.31
-5586.25
-4096.32
-2415.63
-596.009
1321.45
3320.49
-6337.49
-8295
-10495.8
-12767.3
-14823.2
-16410.8
-17300
-17318.2
-16550.9
-15151.6
-13290.1
-11120.9
-8794.69
-6454.52
-4205.63
-2153.58
-380.978
1064.41
2176.72
2995.75
3597.26
4070.58
4532.35
5095.74
5852.12
6852.29
8087.44
9499.99
10985.3
12416.5
13649.9
14533.7
14962.3
14846.4
14160.4
13022.3
11365.4
9324.85
7061.72
4732.59
2499.97
421.884
-1437.42
-3069.08
-4493.11
-5691.15
-6700.8
-7462.56
-7969.6
-8083.84
-7965.46
-7451.53
-6536.35
-5320.35
-3864.08
-2242.02
-600.392
973.404
2322.04
3349.85
4006.88
4256.6
4103.52
3586.53
2758.16
1683.24
426.234
-989.476
-2425.52
-3854.25
-5213.83
-6448.29
-7503.89
-8332.33
-8888.13
-9142.8
-9073.81
-8701.02
-8000.31
-7018.16
-5742.54
-4232.59
-2523.78
-673.272
1275.22
3306.15
-6292.33
-8304.92
-10581.9
-12943.1
-15073.2
-16657.5
-17418.5
-17236.1
-16857.2
-15440.2
-13517.9
-11288.2
-8897.51
-6496.81
-4194.86
-2099.96
-298.731
1160.04
2269.17
3071.37
3646.15
4087.11
4516.1
5053.61
5798.95
6804.24
8061.89
9512.25
11045.6
12529.2
13813.3
14738.2
15194.7
15091.1
14378.1
13218.6
11513.9
9413.56
7088.99
4701.63
2423.87
310.637
-1569.81
-3216.23
-4650.57
-5859.1
-6879.35
-7650.4
-8173.68
-8472.91
-8165.74
-7642.88
-6700.14
-5451
-3950.1
-2275.67
-576.819
1048.49
2441.52
3502.74
4179.4
4433.88
4271.76
3738.38
2881.48
1774.3
482.846
-972.144
-2442.25
-3904.51
-5294.81
-6562.63
-7644.48
-8495.98
-9069.3
-9343.31
-9261.5
-8897.67
-8187.41
-7195.1
-5903.58
-4373.83
-2635.84
-753.222
1226.99
3290.76
-6235.96
-8302.81
-10661.8
-13082.6
-14768.7
-13515.1
-10256.5
-10024.6
-12522.4
-14427.9
-13749.9
-11455.3
-9007.06
-6540.96
-4182.4
-2042.9
-211.782
1260.84
2366.39
3150.72
3697.38
4104.15
4497.92
5007.59
5740.26
6750.96
8031.96
9521.81
11105.4
12644.2
13981.6
14949.7
15434.1
15345.8
14601.5
13420.7
11667.4
9504.55
7114.85
4667.11
2340.36
195.42
-1707.22
-3368.99
-4810.92
-6029.15
-7059.64
-7841.91
-8380.25
-8490.04
-8369.79
-7841.4
-6868.86
-5587.41
-4040.94
-2311.84
-552.529
1125.72
2565.08
3661.33
4358.39
4617.66
4445.77
3895.4
3008.2
1866.99
535.484
-949.349
-2458.95
-3955.72
-5380.43
-6679.95
-7788.26
-8662.84
-9256
-9535.11
-9466.85
-9094.24
-8380.89
-7377.42
-6066.01
-4521.01
-2751.57
-835.797
1176.47
3273.59
-6180.25
-8314.42
-10690.7
-12249.6
-7850.05
-2644.87
-1200.69
-1098.74
-2519.36
-6872.85
-11486.5
-11625.9
-9112.89
-6590.26
-4168.51
-1982.1
-119.998
1367.02
2468.58
3233.98
3750.77
4121.28
4477.76
4958.37
5676.9
6692.65
7997.65
9528.6
11164.6
12761
14154.2
15167.9
15683.5
15612
14832
13629.5
11827.9
9598.69
7138.8
4627.66
2251.57
75.1297
-1848.38
-3525.15
-4971.73
-6208.36
-7247.65
-8049.15
-8593.98
-8819.28
-8582.65
-8046.95
-7044.7
-5724.94
-4137.21
-2349.66
-527.924
1205.27
2692.74
3825.49
4543.72
4807.76
4624.85
4056.99
3137.6
1961.79
590.564
-926.485
-2475.64
-4016.08
-5477.86
-6806.88
-7941.74
-8839.61
-9450.05
-9739.73
-9696.23
-9295.99
-8582.73
-7563.2
-6234.4
-4671.39
-2873.43
-921.494
1124.22
3254.35
-6121.8
-8236.19
-9589.27
-4846.22
-746.236
-19.6455
-9.80801
-14.9946
-68.8998
-500.749
-3376.25
-8790.18
-9198.66
-6639.11
-4155.84
-1915.01
-19.6999
1482.85
2579.8
3324.34
3808.6
4139.66
4455.39
4903.13
5605.49
6626.54
7957.28
9532.67
11225.5
12884.3
14337.8
15400.8
15947.6
15899.7
15077
13851.4
11998.7
9695.62
7161.27
4583.25
2156.44
-53.644
-2001.25
-3694.99
-5148.25
-6395.29
-7439.58
-8250.2
-8787.58
-8972.21
-8809.43
-8264.06
-7234.05
-5873.26
-4235.92
-2390.57
-502.137
1289.95
2828.91
4001.1
4742.05
5011.09
4818.24
4227.22
3275
2063.26
649.701
-904.749
-2498.05
-4078.05
-5570.69
-6921.68
-8051.92
-8891.49
-9367.83
-9536.88
-9494.19
-9351.57
-8800.68
-7758.66
-6419.75
-4827.33
-3004.54
-1014.27
1067.86
3232.91
-5949.87
-7046.51
-3204.31
-215.274
18.9987
19.7875
18.013
15.8583
14.0323
4.1534
-116.453
-1577.92
-6315.41
-6640.28
-4141.81
-1842.97
90.2073
1609.44
2701.27
3422.83
3871.26
4158.53
4429.23
4839.92
5524.76
6551.45
7909.73
9533.12
11287.4
13014
14533.1
15650
16230.2
16198.1
15350.6
14087
12180.8
9796.56
7184.81
4533.82
2050.34
-195.851
-2163.11
-3861.26
-5293.1
-6428.07
-7112.83
-7140.42
-6693.84
-6395.55
-6561.09
-6855.37
-6898.47
-6033.8
-4341.81
-2435.57
-474.978
1379.61
2974.34
4188.78
4955.65
5226.91
5028.28
4406.75
3420.25
2170.49
710.051
-884.82
-2515.05
-4117.19
-5614.05
-6787.83
-7205.84
-6454.58
-5485.29
-4976.37
-5020.9
-5681.97
-6600.25
-6945.52
-6533.34
-4992.33
-3141.83
-1112.09
1007.52
3208.72
-4583.94
-1942.12
-80.0409
17.7527
19.1554
19.6179
18.0953
16.1106
14.7648
13.0328
8.12269
-33.2392
-779.375
-4142.51
-4054.45
-1767.43
205.96
1743.25
2829.35
3526.36
3936.76
4177.98
4400.24
4772.34
5437.39
6469.34
7855.91
9529.37
11347.9
13145.5
14733.5
15907
16522.3
16496
15645.1
14330.6
12368.6
9899.32
7203.85
4475.86
1937.21
-335.375
-2296.62
-3867
-4602.39
-3840.33
-2641.66
-1573.7
-995.641
-801.666
-960.074
-1663.66
-3013.31
-4412.04
-4203.62
-2485.86
-447.257
1472.19
3123.48
4381.94
5178.01
5449.03
5244.26
4591.03
3565.96
2278.52
772.738
-857.118
-2506.61
-4003.19
-4637.07
-3431.67
-1946.33
-933.673
-482.338
-299.766
-301.538
-477.891
-1032.25
-2337.89
-3968.15
-4403.83
-3286.25
-1211.14
944.429
3183.21
-763.048
-11.2965
15.6132
17.7898
18.5729
18.8906
17.5821
15.7511
14.5911
12.6642
9.5601
7.52699
-7.36836
-349.306
-2098.05
-1567.85
325.919
1884.38
2964.32
3635.61
4005.48
4197.39
4369.14
4699.59
5343.13
6380.19
7795.71
9521.27
11406.8
13278.6
14938.8
16171.8
16823.4
16805.1
15948.5
14581.7
12559.3
10000.1
7215.61
4414.64
1828.72
-428.917
-1990.69
-1815.34
-1002.05
-391.787
-103.901
-5.27057
-1.2572
-1.4198
-4.43656
-22.2619
-110.731
-581.702
-1781.03
-1987.94
-421.756
1566.51
3276.42
4578.82
5404.22
5673.89
5461.63
4780.61
3717.9
2388.28
847.627
-772.938
-2069.24
-1842.46
-899.103
-269.89
-22.7623
4.87521
4.61247
5.27422
5.35302
2.44818
-7.70696
-55.3468
-301.24
-1263.97
-2158.18
-1236.79
874.197
3156.17
20.8624
15.4877
15.6827
17.4984
18.1556
18.3942
17.1757
15.3312
14.2248
12.4386
9.55585
7.58422
6.7273
2.86223
-46.9781
-212.645
654.225
2034.38
3105.79
3749.86
4077.24
4217.76
4334.65
4620.48
5240.69
6283.36
7729.01
9508.48
11463.6
13413
15148.4
16443.8
17133.2
17124.2
16261.5
14837.8
12750.2
10099
7226.71
4356.81
1762.12
111.018
-154.113
-45.1254
8.18636
11.8851
11.1319
12.0561
12.2099
11.668
11.3398
11.1381
9.51896
5.82108
-18.6083
-173.509
146.999
1670.33
3431.18
4782.27
5637.38
5911.2
5685.06
4971.55
3878.11
2515.95
1024.71
9.77901
-170.997
-53.0553
5.09926
7.50513
8.46568
9.99644
9.95164
10.3731
10.5262
10.5775
10.8043
9.97018
8.43341
-2.02117
-81.506
-155.104
962.664
3119.52
21.0837
15.3747
15.5525
17.188
17.7651
17.8929
16.846
15.1624
13.9875
12.1252
9.41259
7.5603
6.51032
4.73752
7.09407
138.084
1074.57
2304.57
3290.71
3881.02
4160.9
4245.49
4305.05
4539.51
5128.09
6174.49
7652.73
9490.95
11518
13547.8
15361.6
16722.3
17451.2
17451.8
16585.4
15098.2
12942.6
10199.8
7240
4297.23
1824.25
415.492
42.2362
11.7026
11.5388
11.6281
11.1325
11.8706
11.9189
11.5453
11.1441
10.7558
9.64043
9.11233
10.4661
45.4471
537.712
1925.61
3608.89
4993.1
5877.75
6156.36
5889.69
5167.46
4056.12
2708.95
1332.56
376.732
38.339
5.10989
6.29765
7.25089
8.37718
9.6412
9.69168
10.1516
10.3546
10.3652
10.4142
9.79715
9.71687
9.90843
19.6481
174.546
1195.86
3131.74
20.6268
15.6188
15.474
16.9142
17.4293
17.4096
16.4903
14.7669
13.6632
11.8997
9.35108
7.54913
6.39712
4.37082
1.84132
8.62064
139.444
1003.94
2349.99
3174.17
3502.79
3529.61
3519.39
3776.3
4559.59
5880.4
7562.54
9462.88
11569.8
13682.9
15578.2
17006.8
17776
17786.8
16919.3
15364.4
13138.9
10300.6
7204.11
3432.51
582.549
14.3824
14.3986
11.3994
11.3236
11.2822
10.8878
11.5705
11.6082
11.2477
10.9218
10.5132
9.33721
8.25433
6.90601
6.24397
42.273
606.761
2838.25
4894.51
6002.39
6340.45
6036.26
5157.93
3462.08
1448.55
297.25
0.253263
4.44034
4.82101
6.13003
7.0364
8.0729
9.32266
9.49026
9.89876
10.099
10.1157
10.1448
9.59287
9.12439
7.97371
7.41683
18.0155
179.645
1949.47
20.0263
15.758
15.3745
16.6772
17.0717
17.0171
16.1487
14.5863
13.3744
11.6652
9.27652
7.47969
6.21913
4.28818
1.4298
-0.5396
4.48593
53.2636
226.27
477.579
633.686
640.171
621.684
753.201
1370.1
3156.65
6181.49
9266.73
11613.1
13817.5
15797.1
17297.5
18111
18128.1
17264
15637.5
13332.7
10337.1
5652.09
803.507
4.84933
13.8202
13.5924
11.09
11.0552
11.0442
10.7499
11.3027
11.3427
11.0061
10.6705
10.2162
9.11938
8.02375
6.39617
3.3664
2.41432
27.7411
350.85
2038.4
3896.48
4477.02
3878.67
2282.54
803.917
34.9501
-4.57843
0.0528686
4.10579
4.63218
5.95951
6.88606
7.93411
9.05386
9.312
9.70574
9.88928
9.90884
9.88589
9.38748
8.8193
7.65155
6.3274
6.16963
12.2307
149.359
19.5382
15.8369
15.2575
16.3856
16.7193
16.6421
15.7867
14.2284
13.1023
11.4113
9.18478
7.43382
6.11996
4.19491
1.45282
-1.02713
-2.68007
-0.705722
9.31418
22.6528
30.3561
30.905
30.3958
36.313
65.3564
221.77
1315.78
5936.83
11103.3
13950.4
16016.8
17592.3
18444.3
18478
17619.1
15906.1
13465.9
8722.16
1430.82
1.1527
5.21379
12.6996
12.8259
10.7867
10.8118
10.8003
10.5943
11.0425
11.0813
10.7716
10.4253
9.93186
8.88371
7.76034
6.11383
3.18724
0.33294
-1.72853
9.09115
117.427
465.888
720.476
488.381
57.667
-5.92836
-5.00622
-4.30258
0.0195282
3.79407
4.46234
5.81592
6.74845
7.77177
8.80535
9.11852
9.48986
9.67978
9.70267
9.6485
9.16953
8.58512
7.49957
6.09705
5.1592
3.57629
6.53123
19.0432
15.8658
15.1697
16.1376
16.3911
16.2837
15.4591
14.0784
12.8407
11.1657
9.08239
7.33142
5.97695
4.11031
1.49035
-0.935198
-2.97464
-4.23379
-3.89402
-2.59195
-1.33662
-0.26607
0.79172
1.79953
3.19779
10.1156
57.1101
619.19
5747.9
12977
16233.6
17887.8
18798.3
18826.1
17969.7
16102.5
12111.2
2720.78
-15.9332
1.3181
4.87043
11.6633
12.1319
10.4969
10.5605
10.5615
10.4265
10.7888
10.8234
10.5207
10.179
9.66057
8.65138
7.50796
5.87222
3.09563
0.268947
-2.7918
-6.74784
-9.13016
-10.1075
-10.488
-10.2446
-8.83929
-6.16005
-4.75496
-3.89494
0.00493126
3.50993
4.3162
5.66316
6.61061
7.60714
8.5691
8.92681
9.27618
9.46315
9.48422
9.40691
8.94357
8.35015
7.30384
5.94003
4.93142
2.94228
0.0107494
18.5732
15.849
15.0723
15.8769
16.0658
15.9282
15.116
13.8042
12.5757
10.9471
8.97174
7.24749
5.82819
4.04661
1.55415
-0.792121
-2.79258
-4.23262
-4.64643
-4.22299
-3.37606
-2.2818
-1.12437
-0.416436
-0.398997
-0.277846
1.86348
22.8234
413.161
5639.75
14423.3
18108.2
19060.8
19095.3
18138.9
14562.8
4493.28
5.43838
-16.0463
0.193038
4.29202
10.7256
11.4756
10.2064
10.3036
10.3253
10.2521
10.5487
10.5722
10.3079
9.94478
9.41069
8.42775
7.26955
5.6495
3.02291
0.279366
-2.69883
-6.35198
-8.55856
-9.68049
-10.0761
-9.9778
-8.37156
-5.93478
-4.56563
-3.51435
-0.00496973
3.27664
4.17902
5.51267
6.47375
7.44133
8.3376
8.73151
9.06825
9.25218
9.27001
9.17215
8.72001
8.11234
7.10424
5.78896
4.69321
2.75299
-0.373799
18.1198
15.7908
14.9551
15.6164
15.7531
15.5916
14.7998
13.5349
12.3131
10.7575
8.87211
7.17626
5.76451
3.97513
1.59027
-0.642033
-2.5765
-3.96475
-4.43077
-4.1161
-3.36329
-2.35215
-1.28025
-0.628426
-0.654373
-0.928691
-1.33385
-2.89312
8.33076
321.122
4846.26
14118.6
18091
18116.8
14475.2
5255.71
140.989
-24.3528
-14.9841
-0.560569
3.78567
9.86213
10.8569
9.91573
10.0472
10.0954
10.0709
10.3268
10.3341
10.0908
9.71941
9.17688
8.2134
7.0586
5.42949
2.95552
0.330174
-2.55174
-5.96714
-8.08758
-9.19354
-9.54564
-9.38029
-7.96755
-5.76648
-4.37299
-3.18313
-0.00719723
3.06231
4.05258
5.36479
6.33362
7.27426
8.1233
8.53752
8.87037
9.04799
9.06449
8.94605
8.50739
7.88156
6.90411
5.63267
4.45189
2.55661
-0.470631
17.682
15.6977
14.8312
15.3618
15.446
15.2578
14.4813
13.27
12.0653
10.5301
8.73677
7.06991
5.63618
3.90074
1.64117
-0.502508
-2.35961
-3.69927
-4.17746
-3.93453
-3.26164
-2.34251
-1.36018
-0.770994
-0.799068
-1.0922
-1.69387
-4.17436
-8.16605
-3.09163
183.74
2253.49
6962.49
7524.39
3729.93
204.176
-15.0866
-22.6135
-13.9384
-1.17819
3.38496
9.04545
10.2619
9.62674
9.79438
9.87173
9.88422
10.1123
10.1078
9.87502
9.50124
8.9484
8.00283
6.85004
5.23073
2.88714
0.353454
-2.40754
-5.57437
-7.63044
-8.71739
-9.12984
-8.90651
-7.56366
-5.59148
-4.1807
-2.9046
-0.00490568
2.86788
3.93472
5.21572
6.19593
7.11588
7.92671
8.35597
8.68477
8.85475
8.86964
8.73
8.29965
7.6608
6.70415
5.46959
4.2315
2.35429
-0.578122
17.2635
15.5742
14.6983
15.1114
15.1495
14.9395
14.1746
13.0101
11.8329
10.332
8.62237
6.99508
5.55538
3.84475
1.67665
-0.373284
-2.15823
-3.44033
-3.9297
-3.74276
-3.14455
-2.31178
-1.4315
-0.909384
-0.955755
-1.28591
-1.98341
-4.36459
-8.64631
-13.7368
-17.8642
12.3959
228.57
313.927
7.85356
-19.6163
-15.6282
-20.8938
-13.0363
-1.64224
3.00561
8.30045
9.70111
9.33573
9.54523
9.65263
9.69601
9.90213
9.88954
9.66631
9.29078
8.72791
7.79649
6.6559
5.05041
2.82189
0.372111
-2.29051
-5.2339
-7.19605
-8.27898
-8.66113
-8.4657
-7.19078
-5.4093
-4.00776
-2.66453
0.00286626
2.69602
3.82462
5.0755
6.06309
6.96858
7.73783
8.17771
8.50081
8.66586
8.67747
8.52049
8.09363
7.45348
6.51543
5.29404
4.01833
2.177
-0.670155
16.8637
15.4274
14.557
14.8648
14.8578
14.6259
13.8751
12.7552
11.5922
10.1307
8.49343
6.89477
5.45938
3.78388
1.71025
-0.253963
-1.96188
-3.19974
-3.70123
-3.56485
-3.03736
-2.28876
-1.4943
-1.04195
-1.11069
-1.47497
-2.20524
-4.60009
-8.66337
-13.5499
-19.138
-23.8707
-26.3753
-26.6142
-23.3241
-19.3503
-15.9258
-19.3934
-12.2227
-1.99036
2.66131
7.62078
9.18265
9.04525
9.29707
9.437
9.50782
9.69441
9.67712
9.45835
9.08558
8.51542
7.59503
6.46857
4.87758
2.7542
0.396602
-2.16781
-4.92301
-6.80554
-7.88
-8.27538
-8.05784
-6.85556
-5.22737
-3.8393
-2.45267
0.0158752
2.54316
3.71804
4.94563
5.93278
6.81991
7.55646
8.00318
8.31494
8.48032
8.48873
8.31896
7.89646
7.25067
6.33398
5.1253
3.81517
2.00616
-0.688254
16.4833
15.2619
14.4082
14.6226
14.5753
14.3224
13.5835
12.5044
11.3648
9.93271
8.36508
6.80441
5.37236
3.72977
1.74212
-0.145943
-1.78813
-2.97641
-3.4858
-3.39925
-2.93378
-2.26651
-1.55862
-1.16378
-1.25171
-1.67128
-2.49228
-4.80685
-8.64358
-13.3776
-18.5245
-23.1832
-25.7393
-25.8371
-22.9325
-19.0231
-15.8946
-18.0837
-11.4438
-2.26898
2.3415
7.00372
8.68511
8.75768
9.05229
9.22366
9.31906
9.48891
9.46854
9.2557
8.884
8.30411
7.40671
6.28408
4.72495
2.69206
0.416051
-2.05148
-4.63562
-6.43633
-7.49024
-7.87752
-7.67459
-6.54514
-5.04188
-3.67439
-2.26425
0.0316281
2.40807
3.61835
4.81659
5.80038
6.67227
7.38217
7.83285
8.16466
8.29937
8.30393
8.12093
7.70393
7.05286
6.15167
4.95915
3.62907
1.84072
-0.73659
16.1232
15.0814
14.2516
14.3836
14.2974
14.0271
13.2992
12.2589
11.1392
9.74656
8.23447
6.70746
5.28667
3.67886
1.77177
-0.0405255
-1.62021
-2.76824
-3.28493
-3.24361
-2.84208
-2.24279
-1.61444
-1.28099
-1.39734
-1.84139
-2.72984
-5.00572
-8.61887
-13.1233
-17.9923
-22.3042
-24.8041
-24.8645
-22.0802
-18.5685
-15.7472
-16.8993
-10.7716
-2.49693
2.06426
6.44549
8.21642
8.4711
8.81055
9.01172
9.13115
9.28653
9.26385
9.05563
8.68359
8.10213
7.22769
6.10517
4.58104
2.63177
0.433681
-1.93998
-4.37282
-6.09294
-7.12957
-7.53588
-7.31563
-6.25455
-4.85882
-3.51636
-2.09852
0.0495188
2.28378
3.52511
4.69437
5.66993
6.52851
7.21423
7.66248
7.97559
8.11833
8.11759
7.92253
7.51075
6.85952
5.97159
4.79178
3.44674
1.68428
-0.786024
15.7834
14.8897
14.0885
14.1485
14.0271
13.7389
13.0216
12.0171
10.9168
9.55474
8.10396
6.61507
5.20454
3.62958
1.79631
0.0542802
-1.4652
-2.57378
-3.09578
-3.09498
-2.74991
-2.21991
-1.66658
-1.38572
-1.52959
-2.00717
-2.94196
-5.15728
-8.6045
-12.8666
-17.4637
-21.476
-23.8605
-23.8134
-21.3176
-18.1158
-15.4851
-15.8184
-10.1967
-2.67119
1.81077
5.94136
7.77989
8.1868
8.57072
8.80162
8.94248
9.08761
9.06216
8.85915
8.48654
7.90726
7.0497
5.93423
4.44667
2.57158
0.45213
-1.83363
-4.13099
-5.77228
-6.79664
-7.18659
-6.98082
-5.98178
-4.6812
-3.36599
-1.95155
0.0684474
2.17129
3.43347
4.5799
5.54143
6.38562
7.05147
7.49502
7.80836
7.94185
7.93504
7.73215
7.32309
6.67082
5.79974
4.63471
3.28098
1.54195
-0.84477
15.4622
14.6889
13.919
13.9162
13.7617
13.4589
12.7514
11.7805
10.7052
9.37445
7.97288
6.51375
5.12258
3.58384
1.82242
0.144726
-1.31906
-2.39206
-2.91918
-2.95606
-2.66504
-2.20038
-1.71569
-1.48794
-1.6567
-2.16243
-3.1384
-5.2843
-8.55381
-12.5909
-16.923
-20.6783
-22.8871
-22.7057
-20.6319
-17.6203
-15.1278
-14.8831
-9.6787
-2.80289
1.57689
5.48493
7.36485
7.90718
8.33448
8.5932
8.75226
8.89099
8.86316
8.66541
8.29369
7.71477
6.87579
5.76975
4.31886
2.51458
0.471273
-1.73225
-3.90265
-5.48115
-6.48388
-6.85465
-6.66415
-5.72391
-4.50719
-3.22091
-1.81823
0.0888243
2.07213
3.34375
4.46732
5.41272
6.24367
6.89268
7.3298
7.63542
7.76613
7.75453
7.54412
7.13757
6.48647
5.62677
4.47413
3.12203
1.41047
-0.898216
15.1569
14.4817
13.7444
13.6872
13.5023
13.1852
12.4867
11.5473
10.4834
9.19755
7.84029
6.42068
5.04621
3.53871
1.84124
0.227835
-1.18235
-2.22201
-2.75331
-2.82466
-2.58375
-2.17954
-1.75933
-1.58044
-1.7749
-2.30731
-3.31749
-5.40393
-8.50397
-12.3181
-16.3848
-19.8919
-21.9375
-21.759
-19.924
-17.1177
-14.7562
-14.065
-9.21256
-2.90041
1.36013
5.06764
6.97476
7.63202
8.10069
8.38597
8.56196