/*--------------------------------*- C++ -*----------------------------------*\
| =========                 |                                                 |
| \\      /  F ield         | OpenFOAM: The Open Source CFD Toolbox           |
|  \\    /   O peration     | Version:  v1912                                 |
|   \\  /    A nd           | Website:  www.openfoam.com                      |
|    \\/     M anipulation  |                                                 |
\*---------------------------------------------------------------------------*/
FoamFile
{
    version     2.0;
    format      ascii;
    class       volScalarField;
    location    "70";
    object      k;
}
// * * * * * * * * * * * * * * * * * * * * * * * * * * * * * * * * * * * * * //

dimensions      [0 2 -2 0 0 0 0];


internalField   nonuniform List<scalar> 
14268
(
4.79427e-10
4.75932e-10
4.76643e-10
4.79003e-10
4.81414e-10
4.84013e-10
4.87004e-10
4.90266e-10
4.92585e-10
4.94399e-10
4.96775e-10
5.00498e-10
5.06401e-10
5.16614e-10
5.31521e-10
5.49636e-10
5.71132e-10
5.98846e-10
6.36808e-10
7.14386e-10
8.54898e-10
1.08678e-09
1.43496e-09
1.97575e-09
2.88523e-09
4.4041e-09
6.96924e-09
1.03323e-08
1.3145e-08
1.23417e-08
9.85127e-09
7.2172e-09
5.06636e-09
3.41589e-09
2.09499e-09
1.22715e-09
7.56526e-10
5.38481e-10
4.36676e-10
3.76942e-10
3.23044e-10
2.9075e-10
2.52928e-10
1.5495e-10
1.13592e-08
1.13607e-08
1.13868e-08
1.14334e-08
1.14947e-08
1.15658e-08
1.16345e-08
1.16915e-08
1.1737e-08
1.17876e-08
1.18645e-08
1.19855e-08
1.21607e-08
1.23942e-08
1.2685e-08
1.30346e-08
1.34674e-08
1.40392e-08
1.48204e-08
1.6e-08
1.77046e-08
2.01425e-08
2.34701e-08
2.78149e-08
3.3108e-08
3.97677e-08
4.85925e-08
5.86417e-08
6.85882e-08
7.05111e-08
6.65859e-08
5.8487e-08
4.70101e-08
3.44182e-08
2.19563e-08
1.40941e-08
1.00704e-08
8.441e-09
7.82129e-09
7.35459e-09
6.73285e-09
6.30918e-09
5.57547e-09
3.85447e-09
3.63261e-08
3.63211e-08
3.63309e-08
3.63741e-08
3.64583e-08
3.65692e-08
3.666e-08
3.67211e-08
3.67744e-08
3.6852e-08
3.69958e-08
3.72337e-08
3.7569e-08
3.79706e-08
3.84217e-08
3.8941e-08
3.95667e-08
4.03667e-08
4.1397e-08
4.27104e-08
4.43055e-08
4.63397e-08
4.89079e-08
5.20774e-08
5.59462e-08
6.07962e-08
6.75285e-08
7.58746e-08
8.42434e-08
8.67075e-08
8.42972e-08
7.93689e-08
7.16266e-08
6.1363e-08
4.865e-08
3.60662e-08
2.90954e-08
2.66287e-08
2.60183e-08
2.547e-08
2.43702e-08
2.35281e-08
2.1385e-08
1.60899e-08
5.12999e-08
5.12938e-08
5.12945e-08
5.13121e-08
5.13525e-08
5.1409e-08
5.14522e-08
5.14786e-08
5.14976e-08
5.15297e-08
5.15984e-08
5.17178e-08
5.18812e-08
5.20701e-08
5.22756e-08
5.25097e-08
5.2789e-08
5.31534e-08
5.36157e-08
5.42072e-08
5.49215e-08
5.5882e-08
5.7204e-08
5.90352e-08
6.15347e-08
6.51988e-08
7.10485e-08
7.82175e-08
8.5666e-08
8.80565e-08
8.60404e-08
8.22781e-08
7.64495e-08
6.93171e-08
6.12874e-08
5.2036e-08
4.69031e-08
4.49804e-08
4.45317e-08
4.39988e-08
4.29471e-08
4.21132e-08
4.00733e-08
3.38165e-08
5.60857e-08
5.60837e-08
5.60828e-08
5.60868e-08
5.60998e-08
5.61199e-08
5.61309e-08
5.61314e-08
5.61328e-08
5.61382e-08
5.6159e-08
5.62027e-08
5.62624e-08
5.63278e-08
5.63928e-08
5.64693e-08
5.65624e-08
5.66958e-08
5.68677e-08
5.71178e-08
5.74545e-08
5.79985e-08
5.88809e-08
6.02809e-08
6.24432e-08
6.5873e-08
7.10706e-08
7.82007e-08
8.58207e-08
8.8456e-08
8.65497e-08
8.30143e-08
7.79061e-08
7.1805e-08
6.48873e-08
5.84247e-08
5.43717e-08
5.31656e-08
5.28567e-08
5.26774e-08
5.20174e-08
5.16857e-08
5.04476e-08
4.65376e-08
5.73074e-08
5.73002e-08
5.72917e-08
5.72896e-08
5.72901e-08
5.72931e-08
5.72971e-08
5.72984e-08
5.72927e-08
5.72876e-08
5.72924e-08
5.73055e-08
5.7317e-08
5.73283e-08
5.73399e-08
5.73591e-08
5.73832e-08
5.7435e-08
5.75101e-08
5.76536e-08
5.78901e-08
5.83297e-08
5.91093e-08
6.04362e-08
6.25464e-08
6.57299e-08
7.10467e-08
7.81838e-08
8.57003e-08
8.81028e-08
8.61785e-08
8.28225e-08
7.80372e-08
7.21596e-08
6.6055e-08
6.09431e-08
5.84962e-08
5.70539e-08
5.67355e-08
5.63908e-08
5.6047e-08
5.56204e-08
5.51282e-08
5.2212e-08
5.75791e-08
5.75762e-08
5.75733e-08
5.75696e-08
5.75645e-08
5.75597e-08
5.75544e-08
5.75473e-08
5.75401e-08
5.75325e-08
5.75286e-08
5.75334e-08
5.75358e-08
5.75364e-08
5.75293e-08
5.75288e-08
5.75346e-08
5.75682e-08
5.76201e-08
5.77431e-08
5.79527e-08
5.83678e-08
5.91277e-08
6.04356e-08
6.25111e-08
6.58142e-08
7.13938e-08
7.85381e-08
8.59956e-08
8.85341e-08
8.65607e-08
8.29848e-08
7.79621e-08
7.22687e-08
6.64759e-08
6.21962e-08
5.95768e-08
5.85125e-08
5.78543e-08
5.76438e-08
5.72275e-08
5.71631e-08
5.67866e-08
5.52951e-08
5.76167e-08
5.76116e-08
5.76062e-08
5.76035e-08
5.76018e-08
5.76039e-08
5.75992e-08
5.75886e-08
5.75824e-08
5.7576e-08
5.75704e-08
5.75715e-08
5.75675e-08
5.75613e-08
5.75546e-08
5.75553e-08
5.75566e-08
5.75812e-08
5.76286e-08
5.77458e-08
5.79563e-08
5.83742e-08
5.91341e-08
6.04319e-08
6.25126e-08
6.58807e-08
7.09862e-08
7.80571e-08
8.56391e-08
8.81238e-08
8.63003e-08
8.29364e-08
7.80986e-08
7.23687e-08
6.66975e-08
6.23381e-08
6.04068e-08
5.89353e-08
5.8513e-08
5.80824e-08
5.78343e-08
5.75368e-08
5.76578e-08
5.64356e-08
5.76174e-08
5.76155e-08
5.76107e-08
5.76053e-08
5.76009e-08
5.75954e-08
5.75909e-08
5.75895e-08
5.75818e-08
5.75706e-08
5.7565e-08
5.75669e-08
5.75653e-08
5.75623e-08
5.75538e-08
5.75522e-08
5.75555e-08
5.75863e-08
5.76332e-08
5.77524e-08
5.79627e-08
5.83797e-08
5.9141e-08
6.04637e-08
6.25563e-08
6.57912e-08
7.12833e-08
7.85156e-08
8.60808e-08
8.84017e-08
8.63793e-08
8.292e-08
7.81172e-08
7.24308e-08
6.67262e-08
6.25322e-08
6.04601e-08
5.92663e-08
5.85703e-08
5.82953e-08
5.79313e-08
5.77617e-08
5.76999e-08
5.76123e-08
5.76381e-08
5.76299e-08
5.76262e-08
5.7623e-08
5.76174e-08
5.76179e-08
5.76162e-08
5.76075e-08
5.75989e-08
5.75901e-08
5.75853e-08
5.75866e-08
5.75831e-08
5.75766e-08
5.75675e-08
5.75654e-08
5.75658e-08
5.75904e-08
5.76365e-08
5.77512e-08
5.79584e-08
5.83723e-08
5.91287e-08
6.04265e-08
6.249e-08
6.58253e-08
7.13204e-08
7.84237e-08
8.58208e-08
8.84003e-08
8.65231e-08
8.30112e-08
7.8076e-08
7.22808e-08
6.66507e-08
6.24668e-08
6.05597e-08
5.92079e-08
5.86913e-08
5.82663e-08
5.80585e-08
5.77338e-08
5.78712e-08
5.76154e-08
5.76191e-08
5.76186e-08
5.76138e-08
5.76076e-08
5.76027e-08
5.75985e-08
5.7591e-08
5.75869e-08
5.75812e-08
5.7572e-08
5.75658e-08
5.7567e-08
5.75642e-08
5.75601e-08
5.75514e-08
5.75506e-08
5.75531e-08
5.75825e-08
5.76295e-08
5.77503e-08
5.79617e-08
5.83781e-08
5.91447e-08
6.04587e-08
6.25839e-08
6.59376e-08
7.1055e-08
7.80994e-08
8.57159e-08
8.8115e-08
8.62287e-08
8.29248e-08
7.81573e-08
7.2257e-08
6.66887e-08
6.24968e-08
6.05982e-08
5.93342e-08
5.86703e-08
5.83569e-08
5.79984e-08
5.78339e-08
5.77688e-08
5.81436e-08
5.76398e-08
5.76329e-08
5.76272e-08
5.76253e-08
5.76226e-08
5.76205e-08
5.76172e-08
5.76099e-08
5.76015e-08
5.75935e-08
5.75884e-08
5.75905e-08
5.7588e-08
5.75823e-08
5.75729e-08
5.75702e-08
5.75712e-08
5.75968e-08
5.76426e-08
5.77568e-08
5.79654e-08
5.83872e-08
5.91535e-08
6.04438e-08
6.25318e-08
6.57445e-08
7.13811e-08
7.85326e-08
8.59613e-08
8.8457e-08
8.64505e-08
8.28854e-08
7.80218e-08
7.23427e-08
6.6715e-08
6.24938e-08
6.05966e-08
5.92406e-08
5.87285e-08
5.83325e-08
5.80766e-08
5.77519e-08
5.78553e-08
5.7973e-08
5.76183e-08
5.76153e-08
5.76114e-08
5.76062e-08
5.76005e-08
5.75963e-08
5.75934e-08
5.75871e-08
5.75793e-08
5.75695e-08
5.75645e-08
5.75657e-08
5.75619e-08
5.75576e-08
5.75504e-08
5.75505e-08
5.75536e-08
5.75824e-08
5.76307e-08
5.7753e-08
5.79692e-08
5.83906e-08
5.91417e-08
6.04233e-08
6.25216e-08
6.5849e-08
7.11566e-08
7.82976e-08
8.56644e-08
8.80743e-08
8.63129e-08
8.29255e-08
7.8051e-08
7.22108e-08
6.68385e-08
6.25545e-08
6.06513e-08
5.9336e-08
5.86891e-08
5.83289e-08
5.79718e-08
5.7826e-08
5.78186e-08
5.82948e-08
5.7645e-08
5.76411e-08
5.76373e-08
5.76333e-08
5.7629e-08
5.76302e-08
5.76242e-08
5.76188e-08
5.76121e-08
5.76032e-08
5.75982e-08
5.76005e-08
5.75988e-08
5.75943e-08
5.75849e-08
5.75829e-08
5.7584e-08
5.76106e-08
5.7657e-08
5.77716e-08
5.79741e-08
5.83755e-08
5.9123e-08
6.04915e-08
6.2488e-08
6.56982e-08
7.0805e-08
7.79885e-08
8.56137e-08
8.80485e-08
8.61293e-08
8.28669e-08
7.81405e-08
7.22374e-08
6.67912e-08
6.25479e-08
6.06225e-08
5.92889e-08
5.87418e-08
5.84505e-08
5.81191e-08
5.77648e-08
5.78676e-08
5.81281e-08
5.76178e-08
5.76136e-08
5.76075e-08
5.76026e-08
5.75975e-08
5.75938e-08
5.75901e-08
5.75842e-08
5.75774e-08
5.75686e-08
5.75634e-08
5.75646e-08
5.75607e-08
5.75559e-08
5.7549e-08
5.75487e-08
5.75513e-08
5.75795e-08
5.76266e-08
5.77448e-08
5.79545e-08
5.83709e-08
5.91286e-08
6.03913e-08
6.24753e-08
6.58251e-08
7.15152e-08
7.8591e-08
8.59744e-08
8.8416e-08
8.64046e-08
8.28702e-08
7.80374e-08
7.22774e-08
6.67173e-08
6.24492e-08
6.06391e-08
5.92701e-08
5.85968e-08
5.82992e-08
5.79319e-08
5.78228e-08
5.78805e-08
5.83489e-08
5.76563e-08
5.76516e-08
5.76487e-08
5.76472e-08
5.7645e-08
5.76416e-08
5.76384e-08
5.76311e-08
5.76218e-08
5.76131e-08
5.76084e-08
5.76107e-08
5.76088e-08
5.76043e-08
5.75944e-08
5.75906e-08
5.75911e-08
5.7616e-08
5.7659e-08
5.77708e-08
5.79731e-08
5.8384e-08
5.91605e-08
6.05071e-08
6.26351e-08
6.59526e-08
7.12049e-08
7.845e-08
8.59868e-08
8.82678e-08
8.6395e-08
8.29244e-08
7.8056e-08
7.21494e-08
6.68218e-08
6.25272e-08
6.06191e-08
5.92985e-08
5.87637e-08
5.84879e-08
5.81081e-08
5.77679e-08
5.77953e-08
5.81593e-08
5.76139e-08
5.76099e-08
5.76038e-08
5.75975e-08
5.75903e-08
5.759e-08
5.75856e-08
5.75821e-08
5.75765e-08
5.75664e-08
5.75598e-08
5.75599e-08
5.75542e-08
5.75478e-08
5.75414e-08
5.75422e-08
5.7544e-08
5.75708e-08
5.762e-08
5.77441e-08
5.79654e-08
5.83864e-08
5.91031e-08
6.0353e-08
6.24075e-08
6.57314e-08
7.1189e-08
7.82745e-08
8.56029e-08
8.81751e-08
8.62941e-08
8.29278e-08
7.80918e-08
7.2231e-08
6.68065e-08
6.24656e-08
6.07053e-08
5.92586e-08
5.85717e-08
5.82674e-08
5.79756e-08
5.78987e-08
5.79446e-08
5.835e-08
5.76581e-08
5.76546e-08
5.76502e-08
5.76468e-08
5.7645e-08
5.76418e-08
5.76374e-08
5.76302e-08
5.76215e-08
5.76126e-08
5.76079e-08
5.76098e-08
5.76085e-08
5.76045e-08
5.75954e-08
5.75911e-08
5.75918e-08
5.76177e-08
5.76582e-08
5.77662e-08
5.79589e-08
5.83699e-08
5.9181e-08
6.05581e-08
6.27186e-08
6.60706e-08
7.14913e-08
7.8524e-08
8.58548e-08
8.82341e-08
8.63331e-08
8.29306e-08
7.81556e-08
7.21718e-08
6.67792e-08
6.24901e-08
6.07008e-08
5.93881e-08
5.8855e-08
5.85252e-08
5.80964e-08
5.77077e-08
5.77307e-08
5.81735e-08
5.76065e-08
5.75993e-08
5.75942e-08
5.75907e-08
5.75846e-08
5.75856e-08
5.75847e-08
5.75754e-08
5.75654e-08
5.75558e-08
5.75509e-08
5.75513e-08
5.75454e-08
5.75373e-08
5.75297e-08
5.753e-08
5.75303e-08
5.75537e-08
5.76e-08
5.77154e-08
5.79249e-08
5.83443e-08
5.90788e-08
6.03624e-08
6.25021e-08
6.58223e-08
7.1011e-08
7.82473e-08
8.58548e-08
8.8177e-08
8.63681e-08
8.29478e-08
7.8152e-08
7.23022e-08
6.68764e-08
6.24748e-08
6.06251e-08
5.91818e-08
5.85335e-08
5.82557e-08
5.80889e-08
5.79716e-08
5.79765e-08
5.82392e-08
5.76642e-08
5.76658e-08
5.766e-08
5.76518e-08
5.76461e-08
5.764e-08
5.7631e-08
5.76329e-08
5.76279e-08
5.76163e-08
5.76077e-08
5.7609e-08
5.76068e-08
5.76024e-08
5.7591e-08
5.75869e-08
5.75865e-08
5.76133e-08
5.76554e-08
5.77704e-08
5.7981e-08
5.83992e-08
5.92069e-08
6.06474e-08
6.27738e-08
6.59826e-08
7.11506e-08
7.83759e-08
8.567e-08
8.81583e-08
8.63645e-08
8.30417e-08
7.82301e-08
7.23817e-08
6.6692e-08
6.23451e-08
6.07229e-08
5.94331e-08
5.88784e-08
5.83853e-08
5.78932e-08
5.75929e-08
5.76606e-08
5.81409e-08
5.75655e-08
5.75476e-08
5.75432e-08
5.75453e-08
5.75459e-08
5.7548e-08
5.7546e-08
5.75369e-08
5.75266e-08
5.75157e-08
5.75107e-08
5.75097e-08
5.75044e-08
5.74987e-08
5.75002e-08
5.74995e-08
5.75021e-08
5.75244e-08
5.75708e-08
5.769e-08
5.79126e-08
5.83595e-08
5.92537e-08
6.07042e-08
6.26074e-08
6.56103e-08
7.08816e-08
7.83242e-08
8.58485e-08
8.73524e-08
8.59828e-08
8.2935e-08
7.80983e-08
7.19051e-08
6.70277e-08
6.25431e-08
6.06414e-08
5.91561e-08
5.85054e-08
5.84008e-08
5.82461e-08
5.80682e-08
5.7948e-08
5.81186e-08
5.76483e-08
5.76449e-08
5.76415e-08
5.76375e-08
5.76335e-08
5.76306e-08
5.76258e-08
5.76202e-08
5.76136e-08
5.76062e-08
5.76018e-08
5.76035e-08
5.76006e-08
5.75961e-08
5.75864e-08
5.75846e-08
5.75855e-08
5.76109e-08
5.76541e-08
5.77649e-08
5.79666e-08
5.83729e-08
5.91046e-08
6.03063e-08
6.23076e-08
6.56063e-08
7.1224e-08
7.86981e-08
8.62499e-08
8.9177e-08
8.7221e-08
8.38281e-08
7.8981e-08
7.26785e-08
6.6989e-08
6.24775e-08
6.07281e-08
5.93211e-08
5.87809e-08
5.82812e-08
5.80209e-08
5.76816e-08
5.76383e-08
5.78713e-08
5.76202e-08
5.76151e-08
5.76079e-08
5.76011e-08
5.75953e-08
5.75956e-08
5.75942e-08
5.75884e-08
5.75807e-08
5.75701e-08
5.75629e-08
5.75636e-08
5.75586e-08
5.75512e-08
5.75436e-08
5.75417e-08
5.7543e-08
5.757e-08
5.76163e-08
5.77321e-08
5.79391e-08
5.836e-08
5.91392e-08
6.05144e-08
6.26173e-08
6.59475e-08
7.16861e-08
8.11433e-08
9.14847e-08
9.67024e-08
9.38891e-08
8.96147e-08
8.37406e-08
7.61832e-08
6.90376e-08
6.31281e-08
6.07155e-08
5.91516e-08
5.85985e-08
5.8267e-08
5.81048e-08
5.79421e-08
5.77546e-08
5.78031e-08
5.76602e-08
5.76567e-08
5.76543e-08
5.76512e-08
5.76482e-08
5.76436e-08
5.76357e-08
5.76296e-08
5.76231e-08
5.7616e-08
5.76112e-08
5.7612e-08
5.76081e-08
5.76006e-08
5.75878e-08
5.75828e-08
5.7579e-08
5.75985e-08
5.76333e-08
5.77269e-08
5.79195e-08
5.83181e-08
5.90594e-08
6.02693e-08
6.22733e-08
6.56778e-08
7.22422e-08
9.4132e-08
1.26604e-07
1.54876e-07
1.4073e-07
1.24867e-07
1.09153e-07
9.1415e-08
7.60216e-08
6.6868e-08
6.25815e-08
6.03101e-08
5.92465e-08
5.83845e-08
5.79964e-08
5.76064e-08
5.74355e-08
5.75513e-08
5.75938e-08
5.75859e-08
5.75781e-08
5.75697e-08
5.75644e-08
5.75655e-08
5.75631e-08
5.75574e-08
5.75511e-08
5.75416e-08
5.75355e-08
5.75359e-08
5.753e-08
5.75195e-08
5.75109e-08
5.75091e-08
5.75124e-08
5.75409e-08
5.7592e-08
5.77044e-08
5.79103e-08
5.833e-08
5.91218e-08
6.04448e-08
6.25085e-08
6.58614e-08
7.80336e-08
1.77785e-07
3.4717e-07
4.6539e-07
3.92336e-07
3.02135e-07
2.22455e-07
1.50373e-07
1.03138e-07
7.87574e-08
6.7527e-08
6.21262e-08
5.99053e-08
5.90209e-08
5.84726e-08
5.81517e-08
5.78478e-08
5.75209e-08
5.76548e-08
5.76514e-08
5.76497e-08
5.76468e-08
5.76429e-08
5.76366e-08
5.76288e-08
5.76242e-08
5.76156e-08
5.76053e-08
5.75998e-08
5.76007e-08
5.75957e-08
5.75851e-08
5.75699e-08
5.75616e-08
5.75547e-08
5.75699e-08
5.76002e-08
5.76788e-08
5.78728e-08
5.8292e-08
5.90673e-08
6.02894e-08
6.19395e-08
6.52289e-08
1.11111e-07
5.39098e-07
1.26046e-06
1.62276e-06
1.30423e-06
8.88607e-07
5.50922e-07
3.12351e-07
1.7553e-07
1.11439e-07
8.22425e-08
6.88477e-08
6.30656e-08
6.04122e-08
5.90825e-08
5.83064e-08
5.76884e-08
5.76235e-08
5.75766e-08
5.75659e-08
5.75603e-08
5.75487e-08
5.75435e-08
5.7542e-08
5.7535e-08
5.75323e-08
5.75275e-08
5.7521e-08
5.75184e-08
5.75197e-08
5.7511e-08
5.74983e-08
5.74874e-08
5.74855e-08
5.7491e-08
5.7524e-08
5.75799e-08
5.76869e-08
5.78926e-08
5.83084e-08
5.90905e-08
6.01736e-08
6.07275e-08
6.78696e-08
2.80764e-07
1.67986e-06
3.75305e-06
4.35474e-06
3.42095e-06
2.15014e-06
1.22841e-06
6.27756e-07
3.08021e-07
1.71926e-07
1.12571e-07
8.55571e-08
7.39218e-08
6.80686e-08
6.42567e-08
6.19019e-08
5.97208e-08
5.84636e-08
5.76251e-08
5.76181e-08
5.76151e-08
5.76139e-08
5.76093e-08
5.76044e-08
5.76067e-08
5.75996e-08
5.75855e-08
5.75726e-08
5.75699e-08
5.75738e-08
5.75692e-08
5.75509e-08
5.75318e-08
5.7523e-08
5.7516e-08
5.7524e-08
5.75487e-08
5.76076e-08
5.77875e-08
5.81824e-08
5.87952e-08
5.85312e-08
5.9142e-08
9.15629e-08
9.29868e-07
3.97763e-06
6.13948e-06
6.85662e-06
5.71787e-06
3.75367e-06
1.99732e-06
9.59701e-07
4.78086e-07
2.66971e-07
1.71699e-07
1.24874e-07
1.01767e-07
8.81871e-08
7.82661e-08
7.18062e-08
6.58921e-08
6.24289e-08
5.75731e-08
5.75596e-08
5.75585e-08
5.75464e-08
5.75419e-08
5.75362e-08
5.75208e-08
5.75167e-08
5.75111e-08
5.75058e-08
5.75023e-08
5.75012e-08
5.74882e-08
5.74816e-08
5.747e-08
5.74595e-08
5.7462e-08
5.74931e-08
5.75345e-08
5.7616e-08
5.77093e-08
5.77707e-08
5.72289e-08
5.42127e-08
6.17163e-08
2.13919e-07
2.61873e-06
5.95878e-06
7.5183e-06
8.26847e-06
7.62766e-06
5.91686e-06
3.15814e-06
1.51047e-06
6.50577e-07
3.66922e-07
2.51209e-07
1.89382e-07
1.55193e-07
1.31444e-07
1.11888e-07
9.76916e-08
8.28566e-08
7.25103e-08
5.75433e-08
5.75314e-08
5.75257e-08
5.75234e-08
5.75191e-08
5.75197e-08
5.7528e-08
5.75216e-08
5.75022e-08
5.74892e-08
5.74971e-08
5.75036e-08
5.74885e-08
5.74402e-08
5.74002e-08
5.73825e-08
5.73532e-08
5.72951e-08
5.72116e-08
5.70436e-08
5.66584e-08
5.55664e-08
5.11462e-08
5.18658e-08
9.0827e-08
6.80896e-07
4.08739e-06
6.70829e-06
7.6015e-06
7.49738e-06
6.8303e-06
5.81586e-06
3.41551e-06
1.5559e-06
8.01583e-07
5.27285e-07
4.0235e-07
3.18361e-07
2.58982e-07
2.1182e-07
1.72769e-07
1.43365e-07
1.1451e-07
9.37598e-08
5.74319e-08
5.74195e-08
5.74107e-08
5.73946e-08
5.73822e-08
5.73621e-08
5.73289e-08
5.7296e-08
5.72652e-08
5.72454e-08
5.7226e-08
5.72136e-08
5.71656e-08
5.70946e-08
5.69701e-08
5.67954e-08
5.65871e-08
5.62991e-08
5.5807e-08
5.49005e-08
5.29037e-08
4.81904e-08
4.31395e-08
5.90859e-08
2.31534e-07
1.55437e-06
4.23139e-06
6.3751e-06
7.5775e-06
7.08669e-06
5.17778e-06
4.49339e-06
3.03614e-06
1.58473e-06
1.13577e-06
1.00279e-06
9.736e-07
8.47714e-07
6.50546e-07
4.62578e-07
3.38469e-07
2.4972e-07
1.86407e-07
1.45841e-07
5.628e-08
5.62587e-08
5.62132e-08
5.6165e-08
5.61168e-08
5.60613e-08
5.59913e-08
5.58882e-08
5.57448e-08
5.56736e-08
5.56188e-08
5.55088e-08
5.52643e-08
5.48603e-08
5.43689e-08
5.37679e-08
5.28822e-08
5.15188e-08
4.94621e-08
4.61931e-08
4.08766e-08
3.53993e-08
4.20171e-08
1.10895e-07
5.29466e-07
1.87662e-06
4.11115e-06
6.3594e-06
7.62726e-06
7.61553e-06
5.3687e-06
3.52167e-06
2.79403e-06
2.22724e-06
2.8656e-06
6.30478e-06
8.78239e-06
6.84013e-06
5.04136e-06
4.43934e-06
3.81835e-06
3.06444e-06
1.93749e-06
3.31187e-06
5.17858e-08
5.18744e-08
5.17619e-08
5.15873e-08
5.13784e-08
5.11326e-08
5.07987e-08
5.02747e-08
4.96458e-08
4.94292e-08
4.92957e-08
4.89094e-08
4.80771e-08
4.68596e-08
4.52809e-08
4.33265e-08
4.06978e-08
3.72239e-08
3.29865e-08
2.85181e-08
2.604e-08
2.90073e-08
5.4475e-08
1.70722e-07
4.42367e-07
9.63573e-07
1.89405e-06
3.21486e-06
5.82539e-06
8.79718e-06
1.11126e-05
1.27224e-05
1.73422e-05
3.32065e-05
5.91205e-05
7.78184e-05
8.39864e-05
8.60125e-05
9.33773e-05
0.000100087
0.000101596
9.79472e-05
8.92702e-05
9.38101e-05
3.31392e-08
3.31578e-08
3.31902e-08
3.3155e-08
3.29132e-08
3.24404e-08
3.15732e-08
3.00769e-08
2.87328e-08
2.85323e-08
2.84276e-08
2.78883e-08
2.67042e-08
2.51668e-08
2.34437e-08
2.12447e-08
1.82983e-08
1.54366e-08
1.3871e-08
1.42042e-08
1.72809e-08
2.52914e-08
4.34126e-08
9.15255e-08
2.16256e-07
4.57907e-07
8.67032e-07
1.28128e-06
2.17207e-06
3.5897e-06
5.52314e-06
8.2557e-06
1.06808e-05
1.2596e-05
1.4134e-05
1.7654e-05
2.43904e-05
2.88302e-05
3.13444e-05
3.39635e-05
4.1723e-05
5.7894e-05
9.21505e-05
0.000120647
1.92587e-08
1.97664e-08
2.00988e-08
1.98784e-08
1.91211e-08
1.78146e-08
1.5955e-08
1.42595e-08
1.34622e-08
1.33168e-08
1.30463e-08
1.22201e-08
1.11321e-08
9.94207e-09
8.49634e-09
7.0862e-09
5.93715e-09
6.23854e-09
7.9432e-09
1.06072e-08
1.19656e-08
1.7429e-08
4.92151e-08
7.06683e-08
7.39072e-08
6.95965e-08
6.06641e-08
4.07773e-08
1.54714e-07
7.4399e-07
2.10464e-06
3.27901e-06
4.18118e-06
5.07099e-06
6.30569e-06
7.87669e-06
1.03244e-05
1.37411e-05
1.79211e-05
2.25264e-05
2.65548e-05
2.91072e-05
3.03575e-05
3.13582e-05
7.78375e-09
7.52568e-09
7.04801e-09
6.3802e-09
5.77207e-09
5.12451e-09
4.3927e-09
3.91723e-09
3.702e-09
3.62796e-09
3.56009e-09
3.34338e-09
2.99998e-09
2.65649e-09
2.48503e-09
3.01679e-09
4.81083e-09
7.25343e-09
9.6585e-09
1.2567e-08
1.91839e-08
3.85603e-08
6.01052e-08
6.89471e-08
6.27162e-08
5.75431e-08
6.13821e-08
8.61101e-08
1.85737e-07
3.25711e-07
1.30315e-07
1.88291e-07
4.62594e-07
9.31329e-07
1.50762e-06
1.84172e-06
2.01096e-06
2.63845e-06
3.9456e-06
5.32161e-06
7.54435e-06
1.0287e-05
1.38186e-05
2.07122e-05
7.58736e-09
5.97351e-09
4.20132e-09
3.38032e-09
3.12098e-09
2.94336e-09
2.61937e-09
2.41868e-09
2.38973e-09
2.19126e-09
1.3961e-09
9.74812e-10
1.13298e-09
1.4763e-09
2.00191e-09
3.20185e-09
5.71468e-09
7.5339e-09
9.44793e-09
1.21614e-08
1.93113e-08
3.85537e-08
5.71961e-08
6.79914e-08
8.57564e-08
9.98109e-08
9.19454e-08
8.28814e-08
1.23371e-07
1.4384e-07
1.34529e-07
1.96888e-07
2.06049e-07
1.82455e-07
6.49844e-07
1.34515e-06
2.24399e-06
3.02963e-06
3.6285e-06
4.46977e-06
5.33474e-06
6.50425e-06
6.8115e-06
9.72072e-06
1.99015e-12
4.67395e-11
9.19751e-11
9.18815e-11
1.22662e-10
2.01772e-10
2.88835e-10
4.35323e-10
7.00174e-10
8.38097e-10
5.58786e-10
5.7564e-10
4.3367e-10
2.11313e-10
4.29622e-10
1.93527e-09
5.39287e-09
7.96652e-09
1.04652e-08
1.37117e-08
1.99876e-08
3.28844e-08
4.20446e-08
4.29842e-08
4.79496e-08
7.55156e-08
9.39201e-08
8.52806e-08
6.59758e-08
5.1793e-08
5.19739e-08
4.15723e-08
6.68752e-08
9.76295e-08
1.54359e-07
1.63207e-07
1.74557e-07
2.04266e-07
2.45084e-07
2.7943e-07
2.40222e-07
1.89837e-07
1.00492e-07
8.37951e-08
7.26345e-10
3.57057e-09
4.21638e-09
4.76458e-09
5.07417e-09
5.84295e-09
8.05498e-09
6.36539e-09
3.7008e-09
2.35857e-09
1.40314e-08
2.79948e-08
3.78379e-08
4.0739e-08
3.80283e-08
3.40983e-08
3.67846e-08
4.65259e-08
5.35808e-08
5.68728e-08
5.9232e-08
6.06671e-08
5.79233e-08
5.20769e-08
4.95759e-08
5.10108e-08
5.6719e-08
5.41717e-08
4.89913e-08
7.09923e-08
7.2756e-08
6.61599e-08
4.00888e-08
3.63726e-08
4.18277e-08
3.73058e-08
3.09713e-08
2.88766e-08
3.07923e-08
3.49118e-08
4.26915e-08
5.61514e-08
8.61695e-08
3.2052e-07
2.93869e-08
4.93037e-08
6.26797e-08
7.05046e-08
7.89539e-08
8.39069e-08
9.52162e-08
9.96565e-08
8.09069e-08
5.63399e-08
8.72609e-08
1.24661e-07
1.60148e-07
1.74693e-07
1.69872e-07
1.52873e-07
1.4165e-07
1.47051e-07
1.52436e-07
1.50179e-07
1.46106e-07
1.41061e-07
1.35421e-07
1.28428e-07
1.20292e-07
1.07584e-07
9.69524e-08
9.30607e-08
8.88043e-08
7.09405e-08
6.50664e-08
6.61752e-08
6.81123e-08
6.11874e-08
5.56526e-08
5.59304e-08
5.68395e-08
5.77103e-08
5.97756e-08
6.37939e-08
7.24429e-08
8.79387e-08
9.58496e-08
1.09568e-07
7.75715e-08
9.79973e-08
1.09163e-07
1.10807e-07
1.19285e-07
1.28996e-07
1.37255e-07
1.43052e-07
1.40494e-07
1.27605e-07
1.30715e-07
1.40289e-07
1.46996e-07
1.49992e-07
1.49288e-07
1.4525e-07
1.38586e-07
1.33266e-07
1.2759e-07
1.21365e-07
1.14717e-07
1.08778e-07
1.05848e-07
1.04627e-07
1.02517e-07
9.88014e-08
9.15909e-08
8.38065e-08
7.10116e-08
6.19146e-08
5.82029e-08
5.72531e-08
5.93365e-08
6.12831e-08
6.25199e-08
6.14483e-08
6.03955e-08
6.07893e-08
6.27318e-08
6.65581e-08
7.30491e-08
8.72151e-08
9.22178e-08
1.0435e-07
8.14143e-08
8.87941e-08
9.10225e-08
9.01093e-08
9.16762e-08
9.83873e-08
1.03736e-07
1.06057e-07
1.07753e-07
1.08403e-07
1.0436e-07
9.3495e-08
8.39279e-08
8.10926e-08
8.11226e-08
8.42614e-08
8.49751e-08
7.99937e-08
7.45806e-08
7.1509e-08
6.87689e-08
6.68644e-08
6.61761e-08
6.64831e-08
6.70059e-08
6.83587e-08
6.75342e-08
6.27361e-08
5.91915e-08
6.03304e-08
6.03019e-08
5.97341e-08
5.98896e-08
5.94474e-08
5.94561e-08
5.99259e-08
6.09546e-08
6.217e-08
6.45012e-08
6.85434e-08
7.40573e-08
8.10877e-08
8.5608e-08
8.90932e-08
6.87508e-08
6.72044e-08
6.53331e-08
6.49392e-08
6.4426e-08
6.54476e-08
6.61012e-08
6.64637e-08
6.70256e-08
6.85946e-08
6.62673e-08
6.20169e-08
6.02839e-08
6.01138e-08
6.01149e-08
6.02969e-08
6.01664e-08
5.94159e-08
5.86796e-08
5.82732e-08
5.78952e-08
5.766e-08
5.78343e-08
5.8216e-08
5.85802e-08
5.9365e-08
6.00252e-08
6.0793e-08
5.96345e-08
5.69749e-08
5.56394e-08
5.60193e-08
5.70172e-08
5.8975e-08
6.06971e-08
6.03502e-08
6.04476e-08
6.11123e-08
6.29861e-08
6.64327e-08
7.08098e-08
7.70313e-08
8.38923e-08
8.77599e-08
6.00641e-08
5.91674e-08
5.87398e-08
5.84451e-08
5.81489e-08
5.83015e-08
5.80441e-08
5.77652e-08
5.80491e-08
5.88004e-08
5.82966e-08
5.71181e-08
5.6573e-08
5.63252e-08
5.63224e-08
5.65779e-08
5.68787e-08
5.67966e-08
5.67057e-08
5.6723e-08
5.67401e-08
5.67511e-08
5.66486e-08
5.66277e-08
5.67094e-08
5.70331e-08
5.73076e-08
5.75932e-08
5.81737e-08
5.98424e-08
6.00447e-08
5.93331e-08
5.93419e-08
5.89121e-08
5.91375e-08
5.96719e-08
6.06671e-08
6.18227e-08
6.36658e-08
6.70799e-08
7.04876e-08
7.44369e-08
7.87231e-08
8.12906e-08
5.73054e-08
5.71156e-08
5.70802e-08
5.71355e-08
5.70739e-08
5.68955e-08
5.68353e-08
5.69065e-08
5.67516e-08
5.65087e-08
5.65379e-08
5.65469e-08
5.65964e-08
5.66719e-08
5.66571e-08
5.66158e-08
5.66105e-08
5.67023e-08
5.67974e-08
5.6882e-08
5.6876e-08
5.68865e-08
5.7004e-08
5.72392e-08
5.74872e-08
5.79689e-08
5.85796e-08
5.94897e-08
5.91893e-08
5.74292e-08
5.61386e-08
5.64895e-08
5.72069e-08
5.85517e-08
5.99674e-08
6.00887e-08
6.04969e-08
6.13401e-08
6.30221e-08
6.60537e-08
6.91012e-08
7.31881e-08
7.81476e-08
7.98587e-08
5.73385e-08
5.72181e-08
5.71881e-08
5.71314e-08
5.70385e-08
5.7073e-08
5.69524e-08
5.67492e-08
5.66196e-08
5.67151e-08
5.67311e-08
5.66296e-08
5.65069e-08
5.63896e-08
5.63805e-08
5.64662e-08
5.65712e-08
5.66268e-08
5.66734e-08
5.67249e-08
5.6738e-08
5.67654e-08
5.67566e-08
5.67745e-08
5.68859e-08
5.7191e-08
5.74334e-08
5.76779e-08
5.80582e-08
5.91764e-08
5.97078e-08
5.91763e-08
5.92225e-08
5.89312e-08
5.9153e-08
5.95441e-08
6.04621e-08
6.16601e-08
6.31108e-08
6.58583e-08
6.8134e-08
7.09001e-08
7.4211e-08
7.59243e-08
5.71738e-08
5.71171e-08
5.71469e-08
5.71784e-08
5.717e-08
5.70869e-08
5.70221e-08
5.69772e-08
5.6855e-08
5.67701e-08
5.67924e-08
5.67584e-08
5.67221e-08
5.67525e-08
5.67582e-08
5.67949e-08
5.68806e-08
5.69556e-08
5.70082e-08
5.70734e-08
5.71156e-08
5.71779e-08
5.73017e-08
5.75323e-08
5.77885e-08
5.81605e-08
5.86501e-08
5.9236e-08
5.90675e-08
5.784e-08
5.66685e-08
5.69163e-08
5.7494e-08
5.84382e-08
5.9601e-08
5.9988e-08
6.04516e-08
6.12698e-08
6.27069e-08
6.53435e-08
6.76015e-08
7.03588e-08
7.41831e-08
7.42507e-08
5.74177e-08
5.73314e-08
5.7223e-08
5.71471e-08
5.70881e-08
5.71094e-08
5.70453e-08
5.69094e-08
5.68082e-08
5.67699e-08
5.67766e-08
5.67231e-08
5.66774e-08
5.66171e-08
5.65947e-08
5.66205e-08
5.66992e-08
5.67721e-08
5.68372e-08
5.69041e-08
5.69254e-08
5.69361e-08
5.69483e-08
5.69817e-08
5.70961e-08
5.73073e-08
5.74433e-08
5.76468e-08
5.7945e-08
5.87322e-08
5.93845e-08
5.90237e-08
5.90963e-08
5.898e-08
5.92179e-08
5.95552e-08
6.03612e-08
6.15357e-08
6.28455e-08
6.50089e-08
6.6668e-08
6.85338e-08
7.09039e-08
7.20042e-08
5.72723e-08
5.7255e-08
5.7295e-08
5.73162e-08
5.73054e-08
5.72904e-08
5.72239e-08
5.71447e-08
5.70434e-08
5.70241e-08
5.70372e-08
5.69955e-08
5.69513e-08
5.69495e-08
5.69667e-08
5.70104e-08
5.70882e-08
5.71709e-08
5.72356e-08
5.72931e-08
5.73349e-08
5.73939e-08
5.75078e-08
5.77013e-08
5.79337e-08
5.82592e-08
5.86747e-08
5.90201e-08
5.88913e-08
5.80586e-08
5.71104e-08
5.728e-08
5.77182e-08
5.84089e-08
5.93595e-08
5.99113e-08
6.04556e-08
6.12535e-08
6.23748e-08
6.43731e-08
6.61587e-08
6.82359e-08
7.07673e-08
7.07579e-08
5.74581e-08
5.73993e-08
5.73102e-08
5.72416e-08
5.71924e-08
5.71727e-08
5.71215e-08
5.70412e-08
5.69769e-08
5.69542e-08
5.69273e-08
5.68358e-08
5.67726e-08
5.67302e-08
5.6718e-08
5.67438e-08
5.68108e-08
5.68788e-08
5.69317e-08
5.69652e-08
5.69935e-08
5.70257e-08
5.70784e-08
5.71322e-08
5.72611e-08
5.73839e-08
5.74873e-08
5.76258e-08
5.7879e-08
5.84002e-08
5.90472e-08
5.88744e-08
5.90041e-08
5.90293e-08
5.93036e-08
5.96564e-08
6.02428e-08
6.13061e-08
6.24743e-08
6.42687e-08
6.5564e-08
6.6812e-08
6.84475e-08
6.89711e-08
5.73425e-08
5.7328e-08
5.73574e-08
5.73914e-08
5.73913e-08
5.73952e-08
5.73256e-08
5.72577e-08
5.71781e-08
5.71597e-08
5.71664e-08
5.71391e-08
5.71216e-08
5.71201e-08
5.71378e-08
5.71752e-08
5.72519e-08
5.73379e-08
5.74084e-08
5.74558e-08
5.75047e-08
5.75669e-08
5.76657e-08
5.78167e-08
5.80223e-08
5.82718e-08
5.8588e-08
5.88228e-08
5.86995e-08
5.81835e-08
5.74757e-08
5.76072e-08
5.79565e-08
5.85101e-08
5.92181e-08
5.98732e-08
6.0435e-08
6.12278e-08
6.20949e-08
6.35509e-08
6.49082e-08
6.64454e-08
6.82385e-08
6.78307e-08
5.74821e-08
5.74669e-08
5.73934e-08
5.73267e-08
5.72744e-08
5.72435e-08
5.7196e-08
5.71296e-08
5.709e-08
5.70731e-08
5.70487e-08
5.69706e-08
5.69072e-08
5.68692e-08
5.68549e-08
5.68771e-08
5.69281e-08
5.69789e-08
5.70236e-08
5.7058e-08
5.70895e-08
5.71264e-08
5.71891e-08
5.72501e-08
5.73483e-08
5.74211e-08
5.75015e-08
5.75839e-08
5.782e-08
5.81766e-08
5.87688e-08
5.87681e-08
5.89343e-08
5.90297e-08
5.93671e-08
5.97519e-08
6.01981e-08
6.10272e-08
6.20283e-08
6.34059e-08
6.45174e-08
6.54127e-08
6.64914e-08
6.66775e-08
5.74114e-08
5.73811e-08
5.74137e-08
5.74415e-08
5.74477e-08
5.74481e-08
5.73921e-08
5.73316e-08
5.72723e-08
5.72549e-08
5.72435e-08
5.72389e-08
5.72331e-08
5.72329e-08
5.72519e-08
5.7289e-08
5.73547e-08
5.74377e-08
5.75122e-08
5.75638e-08
5.76157e-08
5.76748e-08
5.77604e-08
5.78709e-08
5.80391e-08
5.82158e-08
5.84649e-08
5.86208e-08
5.8557e-08
5.82498e-08
5.77848e-08
5.78764e-08
5.81857e-08
5.86643e-08
5.91959e-08
5.98243e-08
6.03285e-08
6.10952e-08
6.17739e-08
6.28218e-08
6.39206e-08
6.50312e-08
6.61407e-08
6.58847e-08
5.74974e-08
5.74892e-08
5.74467e-08
5.73947e-08
5.73369e-08
5.73077e-08
5.72578e-08
5.72051e-08
5.71738e-08
5.71596e-08
5.71502e-08
5.7087e-08
5.70275e-08
5.6999e-08
5.69892e-08
5.70051e-08
5.70446e-08
5.70863e-08
5.71274e-08
5.71592e-08
5.71889e-08
5.72238e-08
5.72715e-08
5.73249e-08
5.73943e-08
5.74453e-08
5.75206e-08
5.75991e-08
5.78194e-08
5.80829e-08
5.8585e-08
5.87242e-08
5.88956e-08
5.9038e-08
5.93539e-08
5.97593e-08
6.01218e-08
6.07934e-08
6.15834e-08
6.26103e-08
6.36425e-08
6.4242e-08
6.48314e-08
6.48657e-08
5.74546e-08
5.74353e-08
5.74512e-08
5.74681e-08
5.74715e-08
5.74745e-08
5.74321e-08
5.73884e-08
5.73481e-08
5.73137e-08
5.73127e-08
5.73132e-08
5.73199e-08
5.73227e-08
5.73435e-08
5.73845e-08
5.74457e-08
5.75187e-08
5.75875e-08
5.76403e-08
5.76885e-08
5.77316e-08
5.77928e-08
5.78697e-08
5.80013e-08
5.81398e-08
5.83428e-08
5.8466e-08
5.84642e-08
5.8296e-08
5.80398e-08
5.81117e-08
5.8374e-08
5.87572e-08
5.91781e-08
5.97286e-08
6.01734e-08
6.0792e-08
6.13973e-08
6.2207e-08
6.30952e-08
6.37677e-08
6.45042e-08
6.4304e-08
5.74947e-08
5.74895e-08
5.74892e-08
5.74456e-08
5.73854e-08
5.73581e-08
5.73142e-08
5.72665e-08
5.72325e-08
5.72342e-08
5.72291e-08
5.71939e-08
5.71524e-08
5.71223e-08
5.71092e-08
5.71208e-08
5.71516e-08
5.71823e-08
5.72163e-08
5.72445e-08
5.72686e-08
5.72898e-08
5.7333e-08
5.73779e-08
5.74454e-08
5.74946e-08
5.75791e-08
5.76673e-08
5.78642e-08
5.80941e-08
5.84725e-08
5.86868e-08
5.8863e-08
5.90492e-08