/*--------------------------------*- C++ -*----------------------------------*\
| =========                 |                                                 |
| \\      /  F ield         | OpenFOAM: The Open Source CFD Toolbox           |
|  \\    /   O peration     | Version:  v1912                                 |
|   \\  /    A nd           | Website:  www.openfoam.com                      |
|    \\/     M anipulation  |                                                 |
\*---------------------------------------------------------------------------*/
FoamFile
{
    version     2.0;
    format      ascii;
    class       volScalarField;
    location    "70";
    object      nut;
}
// * * * * * * * * * * * * * * * * * * * * * * * * * * * * * * * * * * * * * //

dimensions      [0 2 -1 0 0 0 0];


internalField   nonuniform List<scalar> 
14268
(
1.6071e-10
1.59539e-10
1.59777e-10
1.60568e-10
1.61376e-10
1.62248e-10
1.6325e-10
1.64344e-10
1.65121e-10
1.65729e-10
1.66526e-10
1.67773e-10
1.69752e-10
1.73176e-10
1.78173e-10
1.84245e-10
1.9145e-10
2.0074e-10
2.13465e-10
2.3947e-10
2.86569e-10
3.64293e-10
4.80997e-10
6.62255e-10
9.6707e-10
1.47607e-09
2.33555e-09
3.46209e-09
4.40406e-09
4.13506e-09
3.30099e-09
2.41862e-09
1.69799e-09
1.14491e-09
7.02222e-10
4.11343e-10
2.53595e-10
1.80505e-10
1.4638e-10
1.26357e-10
1.08289e-10
9.74639e-11
8.47856e-11
5.19421e-11
1.74046e-08
1.73764e-08
1.73648e-08
1.74004e-08
1.74908e-08
1.76165e-08
1.77243e-08
1.78024e-08
1.78839e-08
1.80183e-08
1.82654e-08
1.86644e-08
1.9233e-08
1.99206e-08
2.07146e-08
2.16749e-08
2.29128e-08
2.46192e-08
2.7089e-08
3.04708e-08
3.49164e-08
4.11478e-08
5.00089e-08
6.21589e-08
7.77662e-08
9.83863e-08
1.26751e-07
1.60219e-07
1.85854e-07
1.86347e-07
1.55017e-07
1.01833e-07
5.9019e-08
3.34634e-08
1.81561e-08
1.17696e-08
8.83697e-09
8.01143e-09
8.14579e-09
8.28418e-09
7.96872e-09
7.93275e-09
6.78897e-09
4.56759e-09
1.35949e-07
1.35926e-07
1.35941e-07
1.36177e-07
1.36743e-07
1.37531e-07
1.38163e-07
1.38582e-07
1.39005e-07
1.39664e-07
1.40845e-07
1.42713e-07
1.45282e-07
1.48233e-07
1.51455e-07
1.55169e-07
1.59721e-07
1.65609e-07
1.73329e-07
1.82726e-07
1.93537e-07
2.06816e-07
2.23227e-07
2.42293e-07
2.63358e-07
2.85889e-07
3.12859e-07
3.40529e-07
3.64751e-07
3.69839e-07
3.53746e-07
3.06303e-07
2.29233e-07
1.53805e-07
9.47499e-08
6.32542e-08
5.22099e-08
5.09596e-08
5.45554e-08
5.78867e-08
5.81798e-08
5.96262e-08
5.35384e-08
3.84677e-08
2.58033e-07
2.58014e-07
2.58009e-07
2.58149e-07
2.58528e-07
2.59071e-07
2.59493e-07
2.59762e-07
2.59991e-07
2.60369e-07
2.61101e-07
2.62284e-07
2.63879e-07
2.65677e-07
2.67598e-07
2.69731e-07
2.72238e-07
2.75424e-07
2.79418e-07
2.84032e-07
2.89e-07
2.94765e-07
3.01498e-07
3.09484e-07
3.18653e-07
3.30078e-07
3.46086e-07
3.64016e-07
3.813e-07
3.86681e-07
3.78818e-07
3.54926e-07
3.10581e-07
2.54119e-07
1.9561e-07
1.48862e-07
1.36099e-07
1.37064e-07
1.45784e-07
1.52603e-07
1.53766e-07
1.56783e-07
1.47716e-07
1.19863e-07
3.01252e-07
3.01251e-07
3.01246e-07
3.01273e-07
3.01389e-07
3.01571e-07
3.01705e-07
3.01766e-07
3.01815e-07
3.01908e-07
3.02123e-07
3.02508e-07
3.03031e-07
3.03611e-07
3.042e-07
3.04837e-07
3.05571e-07
3.06561e-07
3.07799e-07
3.09263e-07
3.10903e-07
3.13015e-07
3.15978e-07
3.2019e-07
3.26195e-07
3.3523e-07
3.48222e-07
3.65201e-07
3.82319e-07
3.88268e-07
3.81525e-07
3.61366e-07
3.29728e-07
2.91922e-07
2.48353e-07
2.15322e-07
2.03774e-07
2.0759e-07
2.17688e-07
2.25563e-07
2.27627e-07
2.31813e-07
2.25488e-07
2.03417e-07
3.11541e-07
3.11521e-07
3.11486e-07
3.11472e-07
3.11484e-07
3.11521e-07
3.11564e-07
3.11596e-07
3.11577e-07
3.11564e-07
3.11616e-07
3.11707e-07
3.11801e-07
3.11906e-07
3.12024e-07
3.12155e-07
3.12281e-07
3.12564e-07
3.12949e-07
3.13579e-07
3.14399e-07
3.15685e-07
3.17856e-07
3.21434e-07
3.26987e-07
3.3514e-07
3.48297e-07
3.65211e-07
3.82023e-07
3.87519e-07
3.80441e-07
3.61471e-07
3.33044e-07
3.00404e-07
2.68284e-07
2.48941e-07
2.45225e-07
2.48881e-07
2.57892e-07
2.63033e-07
2.65533e-07
2.69277e-07
2.66646e-07
2.50882e-07
3.13618e-07
3.13621e-07
3.13611e-07
3.1359e-07
3.13569e-07
3.13555e-07
3.13541e-07
3.13523e-07
3.13487e-07
3.13448e-07
3.13438e-07
3.13461e-07
3.1347e-07
3.13482e-07
3.13466e-07
3.13449e-07
3.13429e-07
3.13559e-07
3.13757e-07
3.14221e-07
3.14867e-07
3.15999e-07
3.18043e-07
3.2152e-07
3.26939e-07
3.35368e-07
3.4913e-07
3.6601e-07
3.82659e-07
3.88449e-07
3.816e-07
3.61819e-07
3.32569e-07
3.01569e-07
2.77183e-07
2.63257e-07
2.59951e-07
2.65916e-07
2.71443e-07
2.76397e-07
2.7879e-07
2.82073e-07
2.84314e-07
2.75806e-07
3.13975e-07
3.13965e-07
3.1394e-07
3.13915e-07
3.13898e-07
3.13901e-07
3.13893e-07
3.13869e-07
3.13842e-07
3.1381e-07
3.13778e-07
3.13767e-07
3.13726e-07
3.13691e-07
3.1366e-07
3.13641e-07
3.13594e-07
3.1367e-07
3.13839e-07
3.14266e-07
3.14906e-07
3.1604e-07
3.18077e-07
3.21518e-07
3.2695e-07
3.35543e-07
3.48164e-07
3.64942e-07
3.81908e-07
3.87561e-07
3.80735e-07
3.61604e-07
3.33321e-07
3.02256e-07
2.79916e-07
2.66895e-07
2.67827e-07
2.71534e-07
2.77859e-07
2.81197e-07
2.83956e-07
2.86675e-07
2.90028e-07
2.86833e-07
3.1399e-07
3.13995e-07
3.13977e-07
3.13942e-07
3.13917e-07
3.13895e-07
3.13883e-07
3.13878e-07
3.13841e-07
3.13785e-07
3.13754e-07
3.1375e-07
3.13726e-07
3.13708e-07
3.13668e-07
3.13631e-07
3.13592e-07
3.137e-07
3.13861e-07
3.14297e-07
3.14933e-07
3.1606e-07
3.181e-07
3.21608e-07
3.2707e-07
3.35329e-07
3.48884e-07
3.6597e-07
3.82839e-07
3.88159e-07
3.81011e-07
3.61706e-07
3.33643e-07
3.02808e-07
2.80593e-07
2.68913e-07
2.69293e-07
2.74779e-07
2.78915e-07
2.82947e-07
2.85519e-07
2.88115e-07
2.92029e-07
2.92939e-07
3.14075e-07
3.14057e-07
3.14041e-07
3.14016e-07
3.13989e-07
3.13986e-07
3.13981e-07
3.1396e-07
3.13922e-07
3.1388e-07
3.13856e-07
3.1385e-07
3.13814e-07
3.13777e-07
3.13737e-07
3.13705e-07
3.13652e-07
3.13723e-07
3.13884e-07
3.14297e-07
3.14923e-07
3.16045e-07
3.18075e-07
3.21522e-07
3.26911e-07
3.35419e-07
3.48968e-07
3.65757e-07
3.82282e-07
3.8814e-07
3.81454e-07
3.61819e-07
3.33211e-07
3.01911e-07
2.80207e-07
2.68712e-07
2.70272e-07
2.7467e-07
2.79934e-07
2.83093e-07
2.86092e-07
2.88319e-07
2.92773e-07
2.94256e-07
3.13987e-07
3.13998e-07
3.13983e-07
3.13946e-07
3.13918e-07
3.13898e-07
3.13877e-07
3.13864e-07
3.13832e-07
3.13784e-07
3.13751e-07
3.13744e-07
3.13716e-07
3.13695e-07
3.13655e-07
3.13623e-07
3.13578e-07
3.13682e-07
3.13846e-07
3.14296e-07
3.14943e-07
3.16074e-07
3.1813e-07
3.21614e-07
3.27153e-07
3.35695e-07
3.4833e-07
3.65032e-07
3.8206e-07
3.87534e-07
3.80533e-07
3.61714e-07
3.33733e-07
3.01744e-07
2.8046e-07
2.69026e-07
2.70602e-07
2.75619e-07
2.79862e-07
2.83586e-07
2.86091e-07
2.88694e-07
2.92813e-07
2.96301e-07
3.14075e-07
3.1406e-07
3.14043e-07
3.14024e-07
3.14004e-07
3.13993e-07
3.13982e-07
3.13964e-07
3.13927e-07
3.13887e-07
3.13864e-07
3.13862e-07
3.13833e-07
3.13802e-07
3.1376e-07
3.13729e-07
3.13683e-07
3.13762e-07
3.13921e-07
3.14331e-07
3.14961e-07
3.16106e-07
3.18159e-07
3.21579e-07
3.27021e-07
3.35216e-07
3.49108e-07
3.65994e-07
3.82573e-07
3.88259e-07
3.81205e-07
3.61385e-07
3.32914e-07
3.02388e-07
2.80675e-07
2.69077e-07
2.70614e-07
2.75006e-07
2.80162e-07
2.83487e-07
2.86324e-07
2.88455e-07
2.92898e-07
2.96281e-07
3.13971e-07
3.13973e-07
3.13959e-07
3.13926e-07
3.13894e-07
3.13875e-07
3.13868e-07
3.13848e-07
3.13807e-07
3.13759e-07
3.13732e-07
3.13726e-07
3.13693e-07
3.13674e-07
3.13643e-07
3.13617e-07
3.13579e-07
3.1368e-07
3.13852e-07
3.14314e-07
3.14981e-07
3.16122e-07
3.18131e-07
3.21525e-07
3.26991e-07
3.35467e-07
3.48566e-07
3.65462e-07
3.81941e-07
3.87415e-07
3.80881e-07
3.61591e-07
3.33052e-07
3.01594e-07
2.81336e-07
2.69516e-07
2.71017e-07
2.75682e-07
2.79962e-07
2.83468e-07
2.85943e-07
2.88645e-07
2.92933e-07
2.97333e-07
3.14089e-07
3.14083e-07
3.1407e-07
3.14046e-07
3.14022e-07
3.1402e-07
3.14004e-07
3.13987e-07
3.13958e-07
3.13918e-07
3.13898e-07
3.13898e-07
3.13874e-07
3.13851e-07
3.13816e-07
3.13792e-07
3.13748e-07
3.13833e-07
3.13991e-07
3.14394e-07
3.14998e-07
3.16082e-07
3.18081e-07
3.21695e-07
3.26896e-07
3.35089e-07
3.47735e-07
3.64777e-07
3.81823e-07
3.87375e-07
3.80319e-07
3.61676e-07
3.33732e-07
3.01723e-07
2.81014e-07
2.69427e-07
2.70806e-07
2.75345e-07
2.80305e-07
2.84007e-07
2.86692e-07
2.88585e-07
2.93031e-07
2.96959e-07
3.13977e-07
3.1397e-07
3.13948e-07
3.13914e-07
3.13884e-07
3.13869e-07
3.13865e-07
3.13845e-07
3.13808e-07
3.13761e-07
3.13734e-07
3.13729e-07
3.13696e-07
3.13673e-07
3.13645e-07
3.1362e-07
3.13579e-07
3.13678e-07
3.13848e-07
3.14295e-07
3.14941e-07
3.16068e-07
3.18088e-07
3.2143e-07
3.26861e-07
3.35403e-07
3.49418e-07
3.66115e-07
3.82577e-07
3.88158e-07
3.81085e-07
3.6147e-07
3.33219e-07
3.02037e-07
2.80617e-07
2.68835e-07
2.70853e-07
2.7522e-07
2.79357e-07
2.83172e-07
2.85762e-07
2.88533e-07
2.92823e-07
2.97822e-07
3.14165e-07
3.14157e-07
3.14142e-07
3.14125e-07
3.14108e-07
3.14094e-07
3.14088e-07
3.14073e-07
3.14035e-07
3.13994e-07
3.13974e-07
3.13971e-07
3.13941e-07
3.13909e-07
3.1387e-07
3.1384e-07
3.13793e-07
3.13864e-07
3.13999e-07
3.14391e-07
3.14988e-07
3.16085e-07
3.18153e-07
3.21713e-07
3.27259e-07
3.35718e-07
3.48678e-07
3.65796e-07
3.82591e-07
3.87801e-07
3.80893e-07
3.61321e-07
3.3305e-07
3.01255e-07
2.81166e-07
2.69347e-07
2.70784e-07
2.75434e-07
2.80409e-07
2.84161e-07
2.86763e-07
2.88608e-07
2.92823e-07
2.97135e-07
3.13951e-07
3.13938e-07
3.13914e-07
3.13874e-07
3.13836e-07
3.13836e-07
3.13832e-07
3.13831e-07
3.138e-07
3.13744e-07
3.13707e-07
3.13694e-07
3.13646e-07
3.13613e-07
3.13589e-07
3.13569e-07
3.13522e-07
3.1361e-07
3.13787e-07
3.14253e-07
3.14932e-07
3.16069e-07
3.17986e-07
3.21309e-07
3.26687e-07
3.35178e-07
3.48637e-07
3.65377e-07
3.81727e-07
3.87583e-07
3.80697e-07
3.61649e-07
3.33249e-07
3.01702e-07
2.81054e-07
2.68987e-07
2.71306e-07
2.75106e-07
2.7916e-07
2.82855e-07
2.86112e-07
2.88937e-07
2.92979e-07
2.97998e-07
3.14151e-07
3.14143e-07
3.14116e-07
3.14092e-07
3.14077e-07
3.14065e-07
3.14057e-07
3.14046e-07
3.14009e-07
3.13962e-07
3.1394e-07
3.13936e-07
3.13907e-07
3.13877e-07
3.13845e-07
3.13815e-07
3.13769e-07
3.13845e-07
3.13963e-07
3.14337e-07
3.149e-07
3.16002e-07
3.18178e-07
3.21841e-07
3.27481e-07
3.36011e-07
3.49335e-07
3.65908e-07
3.82225e-07
3.87646e-07
3.80654e-07
3.61517e-07
3.33627e-07
3.01256e-07
2.8081e-07
2.69106e-07
2.71301e-07
2.76029e-07
2.80769e-07
2.84336e-07
2.86607e-07
2.88358e-07
2.92589e-07
2.97168e-07
3.13872e-07
3.13838e-07
3.13814e-07
3.13782e-07
3.13748e-07
3.13754e-07
3.13765e-07
3.13747e-07
3.13696e-07
3.13635e-07
3.13601e-07
3.13586e-07
3.13534e-07
3.13497e-07
3.13476e-07
3.13453e-07
3.13401e-07
3.13471e-07
3.13647e-07
3.14105e-07
3.14771e-07
3.1593e-07
3.17921e-07
3.21353e-07
3.26942e-07
3.35393e-07
3.48184e-07
3.65243e-07
3.82209e-07
3.87499e-07
3.80698e-07
3.6127e-07
3.33346e-07
3.02031e-07
2.81387e-07
2.69013e-07
2.70798e-07
2.74579e-07
2.78762e-07
2.82852e-07
2.86358e-07
2.89077e-07
2.9289e-07
2.97933e-07
3.1409e-07
3.14087e-07
3.14051e-07
3.1401e-07
3.13987e-07
3.13971e-07
3.13958e-07
3.13963e-07
3.13936e-07
3.13877e-07
3.13842e-07
3.13836e-07
3.13805e-07
3.13779e-07
3.1375e-07
3.13731e-07
3.13684e-07
3.13772e-07
3.13901e-07
3.14308e-07
3.14945e-07
3.16097e-07
3.18282e-07
3.22098e-07
3.27621e-07
3.35767e-07
3.48516e-07
3.65422e-07
3.81875e-07
3.87423e-07
3.80733e-07
3.61857e-07
3.33674e-07
3.02356e-07
2.80258e-07
2.68198e-07
2.71386e-07
2.76233e-07
2.8069e-07
2.83711e-07
2.85098e-07
2.87403e-07
2.91906e-07
2.9694e-07
3.13635e-07
3.13534e-07
3.135e-07
3.13493e-07
3.13489e-07
3.13508e-07
3.13513e-07
3.13471e-07
3.13417e-07
3.13354e-07
3.13317e-07
3.13302e-07
3.13256e-07
3.13231e-07
3.13264e-07
3.13248e-07
3.13233e-07
3.13323e-07
3.13534e-07
3.14048e-07
3.14784e-07
3.16029e-07
3.18418e-07
3.22237e-07
3.2718e-07
3.34828e-07
3.47943e-07
3.65291e-07
3.82317e-07
3.85636e-07
3.79569e-07
3.61167e-07
3.32528e-07
2.99416e-07
2.82003e-07
2.69532e-07
2.70952e-07
2.74418e-07
2.78558e-07
2.8348e-07
2.86522e-07
2.89126e-07
2.92359e-07
2.97403e-07
3.1416e-07
3.14156e-07
3.14135e-07
3.14103e-07
3.14078e-07
3.14066e-07
3.14058e-07
3.14045e-07
3.14014e-07
3.13978e-07
3.13951e-07
3.13943e-07
3.13908e-07
3.13881e-07
3.13836e-07
3.13802e-07
3.1375e-07
3.13829e-07
3.13978e-07
3.14386e-07
3.14994e-07
3.16082e-07
3.18025e-07
3.21197e-07
3.26407e-07
3.34803e-07
3.48641e-07
3.66264e-07
3.83094e-07
3.90039e-07
3.82791e-07
3.63702e-07
3.35699e-07
3.02289e-07
2.80784e-07
2.68451e-07
2.7136e-07
2.75552e-07
2.8065e-07
2.83172e-07
2.85977e-07
2.88326e-07
2.91427e-07
2.9619e-07
3.13981e-07
3.13969e-07
3.13932e-07
3.1389e-07
3.13859e-07
3.13865e-07
3.13871e-07
3.13867e-07
3.13831e-07
3.13774e-07
3.13738e-07
3.13727e-07
3.13684e-07
3.13642e-07
3.13611e-07
3.13579e-07
3.13529e-07
3.13616e-07
3.13782e-07
3.14212e-07
3.14835e-07
3.15964e-07
3.18033e-07
3.21648e-07
3.2709e-07
3.35501e-07
3.49271e-07
3.72651e-07
3.98005e-07
4.1384e-07
4.02296e-07
3.79692e-07
3.4878e-07
3.1416e-07
2.87723e-07
2.6975e-07
2.69834e-07
2.73748e-07
2.78768e-07
2.82374e-07
2.85613e-07
2.88902e-07
2.91707e-07
2.96309e-07
3.14207e-07
3.14198e-07
3.14183e-07
3.14152e-07
3.1413e-07
3.14112e-07
3.14092e-07
3.1407e-07
3.14037e-07
3.14003e-07
3.13973e-07
3.13957e-07
3.13914e-07
3.13871e-07
3.13804e-07
3.13748e-07
3.13669e-07
3.13719e-07
3.13833e-07
3.14182e-07
3.14756e-07
3.158e-07
3.1774e-07
3.20903e-07
3.26066e-07
3.34504e-07
3.49204e-07
4.15705e-07
5.06675e-07
5.80552e-07
5.34657e-07
4.8312e-07
4.31174e-07
3.67848e-07
3.13764e-07
2.86332e-07
2.80424e-07
2.81187e-07
2.82804e-07
2.82806e-07
2.84771e-07
2.86801e-07
2.89573e-07
2.94123e-07
3.1377e-07
3.13746e-07
3.13697e-07
3.13641e-07
3.1361e-07
3.1362e-07
3.13629e-07
3.13616e-07
3.13581e-07
3.13533e-07
3.13498e-07
3.13483e-07
3.13433e-07
3.13378e-07
3.13339e-07
3.13309e-07
3.1328e-07
3.13383e-07
3.1359e-07
3.13989e-07
3.14582e-07
3.15692e-07
3.17771e-07
3.21215e-07
3.26358e-07
3.32584e-07
3.59279e-07
6.42276e-07
9.52421e-07
1.09293e-06
9.77206e-07
8.27966e-07
6.85891e-07
5.28138e-07
3.98735e-07
3.29247e-07
3.01286e-07
2.88881e-07
2.85146e-07
2.8506e-07
2.86123e-07
2.88254e-07
2.90641e-07
2.93452e-07
3.14059e-07
3.1405e-07
3.14043e-07
3.14014e-07
3.1399e-07
3.13969e-07
3.13941e-07
3.13919e-07
3.13876e-07
3.13833e-07
3.13794e-07
3.13776e-07
3.13729e-07
3.13675e-07
3.1359e-07
3.13518e-07
3.1343e-07
3.13463e-07
3.13567e-07
3.13861e-07
3.1443e-07
3.15508e-07
3.17503e-07
3.20475e-07
3.23171e-07
3.24436e-07
4.37577e-07
1.18852e-06
1.77137e-06
2.06271e-06
1.80914e-06
1.47172e-06
1.14433e-06
8.36791e-07
5.80166e-07
4.27912e-07
3.50932e-07
3.12687e-07
2.97482e-07
2.90551e-07
2.88244e-07
2.88361e-07
2.89088e-07
2.92814e-07
3.13553e-07
3.13518e-07
3.13461e-07
3.13392e-07
3.13362e-07
3.13365e-07
3.13348e-07
3.13335e-07
3.13303e-07
3.13274e-07
3.13256e-07
3.13245e-07
3.13184e-07
3.13119e-07
3.13066e-07
3.1304e-07
3.13038e-07
3.13183e-07
3.13421e-07
3.13764e-07
3.14313e-07
3.15351e-07
3.17126e-07
3.18669e-07
3.11904e-07
3.0921e-07
7.26778e-07
1.99146e-06
3.48408e-06
4.03863e-06
3.43481e-06
2.49931e-06
1.7327e-06
1.15782e-06
8.16781e-07
5.78475e-07
4.4085e-07
3.67477e-07
3.35232e-07
3.18348e-07
3.07264e-07
3.01573e-07
2.96256e-07
2.95299e-07
3.13757e-07
3.13727e-07
3.13739e-07
3.13719e-07
3.13694e-07
3.13674e-07
3.13667e-07
3.13628e-07
3.13565e-07
3.13505e-07
3.13472e-07
3.1347e-07
3.13435e-07
3.13342e-07
3.13229e-07
3.13166e-07
3.13099e-07
3.13093e-07
3.1319e-07
3.13393e-07
3.1381e-07
3.14501e-07
3.14695e-07
3.06028e-07
2.86427e-07
3.22501e-07
1.27926e-06
3.36767e-06
4.89651e-06
5.55275e-06
5.0096e-06
3.80921e-06
2.45409e-06
1.53068e-06
1.04143e-06
7.59668e-07
5.84713e-07
4.77639e-07
4.19465e-07
3.82907e-07
3.54474e-07
3.36512e-07
3.18646e-07
3.10076e-07
3.133e-07
3.13261e-07
3.13225e-07
3.13157e-07
3.13127e-07
3.13107e-07
3.13049e-07
3.13033e-07
3.12999e-07
3.12977e-07
3.12954e-07
3.12924e-07
3.1284e-07
3.12783e-07
3.12733e-07
3.12681e-07
3.12664e-07
3.12778e-07
3.12879e-07
3.12974e-07
3.12708e-07
3.10982e-07
3.01808e-07
2.67248e-07
2.43588e-07
4.48634e-07
2.33995e-06
4.44606e-06
5.64567e-06
6.37784e-06
6.1496e-06
5.22411e-06
3.4017e-06
2.06901e-06
1.28198e-06
9.33676e-07
7.43643e-07
6.25879e-07
5.53562e-07
4.99643e-07
4.50951e-07
4.14722e-07
3.72716e-07
3.44465e-07
3.1306e-07
3.12982e-07
3.1298e-07
3.13002e-07
3.1297e-07
3.1295e-07
3.12968e-07
3.12938e-07
3.12823e-07
3.12731e-07
3.12763e-07
3.12799e-07
3.12728e-07
3.1242e-07
3.12147e-07
3.12028e-07
3.11834e-07
3.11404e-07
3.10806e-07
3.09438e-07
3.05657e-07
2.94105e-07
2.53412e-07
2.09562e-07
2.32866e-07
8.04977e-07
3.07007e-06
4.94451e-06
5.92394e-06
6.2869e-06
5.81417e-06
5.05761e-06
3.48589e-06
2.09094e-06
1.44732e-06
1.1578e-06
9.92303e-07
8.68106e-07
7.66375e-07
6.78522e-07
5.96799e-07
5.32021e-07
4.60454e-07
4.07576e-07
3.11992e-07
3.11947e-07
3.11869e-07
3.1178e-07
3.11699e-07
3.11587e-07
3.11438e-07
3.11268e-07
3.11053e-07
3.10911e-07
3.10778e-07
3.10654e-07
3.10341e-07
3.09845e-07
3.09099e-07
3.08074e-07
3.06653e-07
3.04431e-07
3.00675e-07
2.93591e-07
2.77243e-07
2.36822e-07
1.73712e-07
1.53953e-07
3.49141e-07
1.36741e-06
3.22932e-06
4.7345e-06
5.75235e-06
6.08405e-06
4.84952e-06
4.30868e-06
3.22423e-06
2.12256e-06
1.76562e-06
1.6695e-06
1.66138e-06
1.55078e-06
1.3348e-06
1.09535e-06
9.07139e-07
7.55351e-07
6.314e-07
5.47342e-07
3.05059e-07
3.04977e-07
3.04751e-07
3.04494e-07
3.04161e-07
3.03754e-07
3.03219e-07
3.02366e-07
3.0115e-07
3.00572e-07
3.00219e-07
2.99482e-07
2.97874e-07
2.95188e-07
2.91836e-07
2.87571e-07
2.81064e-07
2.71081e-07
2.56042e-07
2.32012e-07
1.90957e-07
1.36633e-07
1.08328e-07
1.85912e-07
5.89215e-07
1.58049e-06
2.99814e-06
4.37324e-06
5.67003e-06
6.18125e-06
4.82704e-06
3.54376e-06
3.02305e-06
2.64169e-06
3.26853e-06
6.2293e-06
8.37639e-06
7.2337e-06
6.01377e-06
5.79255e-06
5.46915e-06
4.93561e-06
3.73822e-06
7.10036e-06
2.76199e-07
2.76697e-07
2.75894e-07
2.74706e-07
2.73285e-07
2.71502e-07
2.68784e-07
2.64338e-07
2.59081e-07
2.57093e-07
2.55825e-07
2.53009e-07
2.47381e-07
2.39117e-07
2.28551e-07
2.15102e-07
1.96736e-07
1.72966e-07
1.44843e-07
1.14268e-07
8.7279e-08
7.19878e-08
9.90445e-08
2.37211e-07
4.89575e-07
8.15712e-07
1.32629e-06
2.15224e-06
4.3072e-06
6.75653e-06
8.4256e-06
9.39224e-06
1.21047e-05
1.92057e-05
2.85755e-05
3.45891e-05
3.75314e-05
3.98117e-05
4.31504e-05
4.55293e-05
4.68799e-05
4.698e-05
4.5303e-05
4.68105e-05
1.64816e-07
1.64875e-07
1.64419e-07
1.63343e-07
1.61089e-07
1.57288e-07
1.50646e-07
1.40167e-07
1.31119e-07
1.29014e-07
1.27836e-07
1.24359e-07
1.17378e-07
1.08024e-07
9.7198e-08
8.39347e-08
6.78987e-08
5.30576e-08
4.33928e-08
3.88767e-08
3.94165e-08
4.85631e-08
7.63275e-08
1.29166e-07
2.44147e-07
3.4527e-07
4.79569e-07
6.49835e-07
1.35987e-06
2.84192e-06
4.62581e-06
6.16005e-06
7.32237e-06
8.35426e-06
9.29212e-06
1.12093e-05
1.42636e-05
1.60802e-05
1.7201e-05
1.84968e-05
2.19699e-05
2.83734e-05
3.92776e-05
4.5353e-05
8.24442e-08
8.43896e-08
8.44103e-08
8.10142e-08
7.49061e-08
6.79999e-08
5.94064e-08
5.14436e-08
4.72932e-08
4.66522e-08
4.5582e-08
4.21218e-08
3.70513e-08
3.14115e-08
2.53726e-08
1.99767e-08
1.58415e-08
1.58873e-08
1.92717e-08
2.4085e-08
2.10696e-08
2.21141e-08
6.82711e-08
9.43946e-08
6.62622e-08
3.61635e-08
1.48522e-08
6.95834e-09
3.3484e-08
3.75244e-07
1.7169e-06
3.0951e-06
3.79167e-06
4.30535e-06
4.87635e-06
5.62483e-06
6.86336e-06
8.58087e-06
1.05536e-05
1.24796e-05
1.38543e-05
1.45144e-05
1.46207e-05
1.45801e-05
2.16866e-08
2.0307e-08
1.79159e-08
1.53329e-08
1.33625e-08
1.17821e-08
9.99198e-09
8.7237e-09
8.05526e-09
7.74841e-09
7.41986e-09
6.9142e-09
6.07807e-09
5.08448e-09
4.47571e-09
5.09883e-09
7.63442e-09
1.12338e-08
1.52948e-08
2.15569e-08
3.37394e-08
6.38722e-08
9.34937e-08
9.29607e-08
6.81025e-08
4.69122e-08
2.93655e-08
2.6829e-08
5.42649e-08
8.49567e-08
4.11714e-08
7.80545e-08
2.26395e-07
5.57131e-07
9.52615e-07
1.08397e-06
1.15974e-06
1.41417e-06
1.88809e-06
2.197e-06
2.61349e-06
3.02099e-06
3.49714e-06
4.27467e-06
4.43823e-09
5.96791e-09
4.33532e-09
3.46183e-09
3.25755e-09
3.214e-09
2.98278e-09
2.75434e-09
2.80756e-09
2.83858e-09
1.96022e-09
1.11769e-09
1.41529e-09
1.92564e-09
2.41453e-09
3.47309e-09
5.99922e-09
8.14851e-09
1.0372e-08
1.47497e-08
2.56146e-08
5.08375e-08
7.14859e-08
7.70469e-08
8.20263e-08
7.72888e-08
6.01773e-08
4.50802e-08
5.18712e-08
4.73639e-08
3.86424e-08
5.21819e-08
7.26451e-08
7.99066e-08
2.71586e-07
4.79464e-07
7.12576e-07
8.86538e-07
9.88451e-07
1.08675e-06
1.20234e-06
1.32563e-06
1.36426e-06
1.71605e-06
3.02656e-14
1.6167e-12
4.75346e-12
5.57435e-12
9.1979e-12
1.64948e-11
2.06449e-11
3.66025e-11
9.0237e-11
1.80587e-10
2.51995e-10
4.683e-10
3.21403e-10
9.64456e-11
2.11026e-10
1.63121e-09
5.56887e-09
8.51791e-09
1.14456e-08
1.59583e-08
2.51331e-08
4.24772e-08
5.30879e-08
5.25764e-08
5.55086e-08
7.01919e-08
7.5112e-08
6.69696e-08
7.36699e-08
8.40328e-08
1.14543e-07
7.39166e-08
5.38422e-08
6.69125e-08
1.09237e-07
1.3413e-07
1.79954e-07
2.2811e-07
2.7794e-07
3.18574e-07
2.91511e-07
2.50028e-07
1.5497e-07
8.02278e-08
2.09775e-10
9.24398e-10
8.39822e-10
1.01704e-09
1.17207e-09
1.26598e-09
1.26814e-09
6.99534e-10
4.21215e-10
2.91637e-10
7.55585e-09
3.52502e-08
5.33789e-08
5.73754e-08
4.97061e-08
4.31742e-08
4.6248e-08
6.19866e-08
7.46675e-08
8.23813e-08
9.01091e-08
9.52997e-08
9.21701e-08
8.25543e-08
7.57035e-08
6.86272e-08
6.75795e-08
7.07542e-08
8.8283e-08
1.91573e-07
2.59621e-07
2.61137e-07
1.09045e-07
5.8755e-08
6.8836e-08
7.44434e-08
7.68353e-08
7.33888e-08
7.71393e-08
8.57697e-08
1.11724e-07
1.58516e-07
2.88114e-07
9.26208e-07
2.80364e-08
4.85437e-08
5.85787e-08
6.3304e-08
6.79486e-08
6.93401e-08
7.3913e-08
4.631e-08
2.21455e-08
1.17363e-08
8.5391e-08
1.88348e-07
2.5805e-07
2.89951e-07
2.90213e-07
2.65034e-07
2.47823e-07
2.73946e-07
3.05202e-07
3.16079e-07
3.2279e-07
3.25499e-07
3.1495e-07
2.92955e-07
2.62162e-07
2.17322e-07
1.78021e-07
1.85426e-07
2.53538e-07
3.04927e-07
3.05383e-07
3.09599e-07
3.02368e-07
2.44643e-07
2.22242e-07
2.44411e-07
2.56779e-07
2.5283e-07
2.45871e-07
2.474e-07
2.82462e-07
3.39451e-07
3.87075e-07
4.31284e-07
9.00972e-08
1.24186e-07
1.45605e-07
1.4925e-07
1.59837e-07
1.70564e-07
1.88802e-07
1.91643e-07
1.55653e-07
1.03745e-07
2.25029e-07
2.92549e-07
3.52703e-07
3.88001e-07
4.09621e-07
4.11686e-07
4.10775e-07
4.26958e-07
4.38566e-07
4.37045e-07
4.32468e-07
4.25697e-07
4.1601e-07
4.04787e-07
3.84925e-07
3.52712e-07
3.1305e-07
3.08602e-07
3.14537e-07
3.03825e-07
2.89921e-07
2.87756e-07
2.96311e-07
2.9967e-07
3.03594e-07
3.04767e-07
3.01809e-07
3.01764e-07
3.05974e-07
3.16066e-07
3.37198e-07
3.79589e-07
3.97706e-07
4.26868e-07
1.52126e-07
1.95027e-07
2.33415e-07
2.37618e-07
2.39645e-07
2.45733e-07
2.59298e-07
2.88259e-07
2.98758e-07
2.72197e-07
3.24459e-07
3.43478e-07
3.45566e-07
3.50266e-07
3.59381e-07
3.73205e-07
3.79056e-07
3.67695e-07
3.52797e-07
3.44204e-07
3.36739e-07
3.31403e-07
3.28422e-07
3.28564e-07
3.28883e-07
3.30939e-07
3.24653e-07
3.0862e-07
3.03363e-07
3.07071e-07
3.04838e-07
3.02279e-07
3.02739e-07
3.02587e-07
3.04252e-07
3.05769e-07
3.08703e-07
3.1233e-07
3.19427e-07
3.31677e-07
3.4837e-07
3.66875e-07
3.79893e-07
3.89633e-07
2.3765e-07
2.61276e-07
2.77252e-07
2.78488e-07
2.73868e-07
2.71244e-07
2.74311e-07
2.87364e-07
2.96652e-07
2.98777e-07
2.99846e-07
2.99687e-07
3.02548e-07
3.05554e-07
3.07372e-07
3.0891e-07
3.07932e-07
3.05939e-07
3.04199e-07
3.0334e-07
3.02364e-07
3.01686e-07
3.0202e-07
3.02888e-07
3.04683e-07
3.07779e-07
3.10316e-07
3.12809e-07
3.11391e-07
2.94032e-07
2.84596e-07
2.86971e-07
2.92756e-07
3.01185e-07
3.08405e-07
3.08528e-07
3.09151e-07
3.10952e-07
3.16608e-07
3.27138e-07
3.40854e-07
3.58467e-07
3.77014e-07
3.86934e-07
2.81569e-07
2.89366e-07
2.94149e-07
2.93206e-07
2.9062e-07
2.89101e-07
2.889e-07
2.91661e-07
2.95199e-07
2.97411e-07
2.97084e-07
2.9629e-07
2.96094e-07
2.959e-07
2.965e-07
2.98493e-07
2.9973e-07
2.99956e-07
3.00253e-07
3.00679e-07
3.00999e-07
3.0104e-07
2.99904e-07
2.99519e-07
3.00258e-07
3.02465e-07
3.04036e-07
3.0508e-07
3.07007e-07
3.11524e-07
3.09288e-07
3.06365e-07
3.06326e-07
3.05665e-07
3.0724e-07
3.09254e-07
3.12184e-07
3.15405e-07
3.20808e-07
3.30568e-07
3.41902e-07
3.5379e-07
3.6591e-07
3.72285e-07
2.94508e-07
2.9755e-07
2.99648e-07
3.0016e-07
2.99765e-07
2.97847e-07
2.97637e-07
2.99428e-07
2.99165e-07
2.96714e-07
2.97158e-07
2.98552e-07
2.99445e-07
3.00297e-07
3.00641e-07
3.01066e-07
3.01052e-07
3.01886e-07
3.02588e-07
3.0298e-07
3.02997e-07
3.02963e-07
3.03055e-07
3.03719e-07
3.0511e-07
3.07376e-07
3.09833e-07
3.12809e-07
3.12277e-07
3.00336e-07
2.91051e-07
2.93586e-07
2.98106e-07
3.04563e-07
3.10698e-07
3.11745e-07
3.13225e-07
3.15615e-07
3.20636e-07
3.29711e-07
3.39863e-07
3.51796e-07
3.64936e-07
3.68923e-07
3.02708e-07
3.03537e-07
3.03983e-07
3.03548e-07
3.02829e-07
3.02311e-07
3.01739e-07
3.01352e-07
3.0074e-07
3.00462e-07
3.00227e-07
3.00224e-07
3.00033e-07
2.99755e-07
3.00185e-07
3.01062e-07
3.01732e-07
3.02288e-07
3.02762e-07
3.03034e-07
3.03063e-07
3.03051e-07
3.02733e-07
3.02678e-07
3.03448e-07
3.05153e-07
3.06308e-07
3.07021e-07
3.08604e-07
3.12037e-07
3.11794e-07
3.0945e-07
3.09579e-07
3.09477e-07
3.10557e-07
3.11964e-07
3.14593e-07
3.1789e-07
3.22388e-07
3.30857e-07
3.3851e-07
3.46765e-07
3.55757e-07
3.59671e-07
3.04839e-07
3.05406e-07
3.05923e-07
3.05919e-07
3.05502e-07
3.0447e-07
3.03997e-07
3.04044e-07
3.03355e-07
3.02501e-07
3.02422e-07
3.02254e-07
3.02202e-07
3.02603e-07
3.02957e-07
3.03585e-07
3.04368e-07
3.05024e-07
3.05488e-07
3.05833e-07
3.05961e-07
3.06031e-07
3.06334e-07
3.0716e-07
3.08356e-07
3.10021e-07
3.1187e-07
3.1374e-07
3.135e-07
3.05526e-07
2.97239e-07
2.98881e-07
3.02701e-07
3.07543e-07
3.12499e-07
3.1403e-07
3.1569e-07
3.18084e-07
3.22551e-07
3.30753e-07
3.38068e-07
3.4588e-07
3.55647e-07
3.55589e-07
3.07933e-07
3.07885e-07
3.07325e-07
3.0648e-07
3.05708e-07
3.05661e-07
3.05189e-07
3.04416e-07
3.03819e-07
3.03436e-07
3.03186e-07
3.02817e-07
3.02638e-07
3.02545e-07
3.02674e-07
3.03125e-07
3.03861e-07
3.04506e-07
3.04993e-07
3.05347e-07
3.05402e-07
3.05326e-07
3.05322e-07
3.05386e-07
3.06031e-07
3.07132e-07
3.07668e-07
3.08068e-07
3.09437e-07
3.12108e-07
3.13068e-07
3.11324e-07
3.11553e-07
3.11934e-07
3.12955e-07
3.14142e-07
3.16467e-07
3.19612e-07
3.23963e-07
3.31055e-07
3.36238e-07
3.41521e-07
3.47635e-07
3.50115e-07
3.08265e-07
3.08316e-07
3.08445e-07
3.08159e-07
3.07709e-07
3.07456e-07
3.07032e-07
3.06505e-07
3.05883e-07
3.05666e-07
3.05456e-07
3.05282e-07
3.04986e-07
3.05082e-07
3.0531e-07
3.0578e-07
3.06491e-07
3.07186e-07
3.07645e-07
3.07924e-07
3.08045e-07
3.08168e-07
3.08539e-07
3.09261e-07
3.10261e-07
3.11546e-07
3.12958e-07
3.13943e-07
3.13704e-07
3.08817e-07
3.02262e-07
3.03313e-07
3.06416e-07
3.10177e-07
3.14034e-07
3.15853e-07
3.1766e-07
3.20075e-07
3.23738e-07
3.3004e-07
3.35287e-07
3.40852e-07
3.47128e-07
3.46971e-07
3.09933e-07
3.09836e-07
3.09169e-07
3.08315e-07
3.07651e-07
3.07325e-07
3.06989e-07
3.06437e-07
3.06058e-07
3.05851e-07
3.05456e-07
3.04932e-07
3.04563e-07
3.04409e-07
3.04452e-07
3.04837e-07
3.05494e-07
3.06105e-07
3.06512e-07
3.0672e-07
3.068e-07
3.06841e-07
3.07053e-07
3.07247e-07
3.07968e-07
3.0849e-07
3.0876e-07
3.08841e-07
3.10023e-07
3.1197e-07
3.13506e-07
3.12665e-07
3.13212e-07
3.13857e-07
3.14982e-07
3.1615e-07
3.1788e-07
3.21002e-07
3.24759e-07
3.30325e-07
3.34039e-07
3.37312e-07
3.41361e-07
3.42532e-07
3.09825e-07
3.09916e-07
3.09959e-07
3.09799e-07
3.09494e-07
3.09178e-07
3.0872e-07
3.08192e-07
3.07731e-07
3.07542e-07
3.07311e-07
3.0709e-07
3.06954e-07
3.06951e-07
3.07118e-07
3.07497e-07
3.0816e-07
3.08842e-07
3.09253e-07
3.09454e-07
3.09576e-07
3.09752e-07
3.10119e-07
3.10696e-07
3.11519e-07
3.12402e-07
3.13383e-07
3.13939e-07
3.13626e-07
3.11093e-07
3.06283e-07
3.0713e-07
3.09706e-07
3.12531e-07
3.15288e-07
3.17299e-07
3.19033e-07
3.21537e-07
3.24324e-07
3.28679e-07
3.324e-07
3.36316e-07
3.40675e-07
3.39625e-07
3.1114e-07
3.11278e-07
3.10728e-07
3.09892e-07
3.0925e-07
3.08763e-07
3.0837e-07
3.07848e-07
3.07645e-07
3.07488e-07
3.07176e-07
3.06639e-07
3.062e-07
3.06014e-07
3.06014e-07
3.06325e-07
3.06871e-07
3.07367e-07
3.07645e-07
3.07791e-07
3.07875e-07
3.07999e-07
3.08328e-07
3.08634e-07
3.09168e-07
3.09372e-07
3.09495e-07
3.09407e-07
3.10492e-07
3.11997e-07
3.13838e-07
3.13698e-07
3.14483e-07
3.15199e-07
3.16467e-07
3.1766e-07
3.19012e-07
3.21482e-07
3.24535e-07
3.28474e-07
3.31456e-07
3.33643e-07
3.36272e-07
3.3669e-07
3.11207e-07
3.11119e-07
3.11231e-07
3.10997e-07
3.10693e-07
3.10372e-07
3.09915e-07
3.09337e-07
3.09038e-07
3.0885e-07
3.08632e-07
3.08489e-07
3.0835e-07
3.08335e-07
3.0848e-07
3.0882e-07
3.09371e-07
3.09954e-07
3.10351e-07
3.10559e-07
3.10697e-07
3.10875e-07
3.11186e-07
3.11597e-07
3.12185e-07
3.12739e-07
3.13458e-07
3.13828e-07
3.13709e-07
3.12569e-07
3.09623e-07
3.10173e-07
3.12309e-07
3.14469e-07
3.1636e-07
3.18246e-07
3.19749e-07
3.22011e-07
3.24072e-07
3.26986e-07
3.29874e-07
3.32571e-07
3.35277e-07
3.34624e-07
3.12158e-07
3.12113e-07
3.11844e-07
3.11159e-07
3.10432e-07
3.09995e-07
3.09484e-07
3.08965e-07
3.08803e-07
3.08682e-07
3.08562e-07
3.0808e-07
3.07636e-07
3.0746e-07
3.07458e-07
3.07691e-07
3.08087e-07
3.08441e-07
3.08688e-07
3.0883e-07
3.08924e-07
3.09054e-07
3.09297e-07
3.09579e-07
3.09907e-07
3.10021e-07
3.10182e-07
3.10245e-07
3.11287e-07
3.12474e-07
3.14184e-07
3.14683e-07
3.15428e-07
3.1611e-07
3.1718e-07
3.18432e-07
3.1953e-07
3.21454e-07
3.23681e-07
3.26458e-07
3.2912e-07
3.30481e-07
3.31939e-07
3.32016e-07
3.12281e-07
3.12081e-07
3.12142e-07
3.1191e-07
3.11596e-07
3.11304e-07
3.10824e-07
3.10287e-07
3.1002e-07
3.09819e-07
3.09744e-07
3.09649e-07
3.09547e-07
3.09508e-07
3.09634e-07
3.09938e-07
3.10381e-07
3.10821e-07
3.11181e-07
3.11405e-07
3.11544e-07
3.1165e-07
3.11835e-07
3.12091e-07
3.12507e-07
3.12935e-07
3.13542e-07
3.13916e-07
3.14026e-07
3.13614e-07
3.12222e-07
3.12602e-07
3.14086e-07
3.15598e-07
3.16949e-07
3.18517e-07
3.19819e-07
3.21579e-07
3.23237e-07
3.25368e-07
3.27612e-07
3.29194e-07
3.31016e-07
3.30525e-07
3.1277e-07
3.12669e-07
3.12652e-07
3.12142e-07
3.11399e-07
3.10964e-07
3.10447e-07
3.099e-07
3.09618e-07
3.0968e-07
3.09636e-07
3.09367e-07
3.09027e-07
3.08774e-07
3.08725e-07
3.08866e-07
3.09145e-07
3.09367e-07
3.0958e-07
3.09723e-07
3.09811e-07
3.09877e-07
3.10095e-07
3.10351e-07
3.10674e-07
3.10821e-07
3.11099e-07
3.11354e-07
3.12302e-07
3.13317e-07
3.14595e-07
3.1536e-07