/*--------------------------------*- C++ -*----------------------------------*\
| =========                 |                                                 |
| \\      /  F ield         | OpenFOAM: The Open Source CFD Toolbox           |
|  \\    /   O peration     | Version:  v1912                                 |
|   \\  /    A nd           | Website:  www.openfoam.com                      |
|    \\/     M anipulation  |                                                 |
\*---------------------------------------------------------------------------*/
FoamFile
{
    version     2.0;
    format      ascii;
    class       volScalarField;
    location    "70";
    object      k;
}
// * * * * * * * * * * * * * * * * * * * * * * * * * * * * * * * * * * * * * //

dimensions      [0 2 -2 0 0 0 0];


internalField   nonuniform List<scalar> 
14268
(
4.11819e-07
4.11941e-07
4.12949e-07
4.13826e-07
4.15006e-07
4.16821e-07
4.19165e-07
4.22027e-07
4.26286e-07
4.31322e-07
4.38041e-07
4.46116e-07
4.55804e-07
4.66974e-07
4.79394e-07
4.92748e-07
5.06896e-07
5.21779e-07
5.36248e-07
5.49564e-07
5.61254e-07
5.71101e-07
5.79167e-07
5.85694e-07
5.90987e-07
5.95354e-07
5.99058e-07
6.0231e-07
6.05263e-07
6.08022e-07
6.10656e-07
6.13209e-07
6.15706e-07
6.18163e-07
6.20589e-07
6.22986e-07
6.25353e-07
6.27693e-07
6.30003e-07
6.32275e-07
6.34501e-07
6.36672e-07
6.38788e-07
6.40858e-07
6.42871e-07
6.44832e-07
6.46777e-07
6.48708e-07
6.50613e-07
6.52475e-07
6.54263e-07
6.55938e-07
6.57457e-07
6.58778e-07
6.59864e-07
6.60684e-07
6.61223e-07
6.6148e-07
6.6148e-07
6.61236e-07
6.6076e-07
6.60096e-07
6.59261e-07
6.58263e-07
6.57105e-07
6.55784e-07
6.54305e-07
6.52675e-07
6.50914e-07
6.49044e-07
6.4709e-07
6.45071e-07
6.42997e-07
6.40877e-07
6.3872e-07
6.3655e-07
6.34411e-07
6.32319e-07
6.30304e-07
6.28395e-07
6.26607e-07
6.24952e-07
6.23447e-07
6.22089e-07
6.20855e-07
6.19722e-07
6.18661e-07
6.17631e-07
6.16597e-07
6.15533e-07
6.1444e-07
6.13374e-07
6.12382e-07
6.11434e-07
6.10547e-07
6.09755e-07
6.09054e-07
6.08408e-07
6.07816e-07
6.07238e-07
6.06747e-07
6.06355e-07
6.06011e-07
6.05687e-07
6.0539e-07
6.05138e-07
6.04918e-07
6.04705e-07
6.0452e-07
6.04372e-07
6.04245e-07
6.04111e-07
6.0398e-07
6.03882e-07
6.03807e-07
6.03716e-07
6.03569e-07
6.03464e-07
6.03463e-07
6.03586e-07
6.03811e-07
6.04061e-07
6.04372e-07
6.04798e-07
6.05307e-07
6.05882e-07
6.06513e-07
6.07182e-07
6.07827e-07
6.08437e-07
6.09009e-07
6.09543e-07
6.10037e-07
6.1049e-07
6.10907e-07
6.11297e-07
6.11666e-07
6.12022e-07
6.12372e-07
6.12725e-07
6.13094e-07
6.13478e-07
6.13906e-07
6.14564e-07
6.15476e-07
6.16608e-07
6.17929e-07
6.19411e-07
6.21038e-07
6.2281e-07
6.24724e-07
6.26778e-07
6.28966e-07
6.31297e-07
6.3377e-07
6.36373e-07
6.39089e-07
6.41843e-07
6.44583e-07
6.47292e-07
6.49951e-07
6.52681e-07
6.55187e-07
6.57523e-07
2.26464e-08
2.23297e-08
2.21492e-08
2.23634e-08
2.28741e-08
2.40408e-08
2.57645e-08
2.84666e-08
3.21989e-08
3.73554e-08
4.41183e-08
5.2728e-08
6.31566e-08
7.50391e-08
8.78969e-08
1.01298e-07
1.14803e-07
1.28015e-07
1.40734e-07
1.52666e-07
1.63492e-07
1.73017e-07
1.81201e-07
1.88129e-07
1.9396e-07
1.98888e-07
2.0312e-07
2.06851e-07
2.10253e-07
2.13465e-07
2.16595e-07
2.19712e-07
2.22869e-07
2.26107e-07
2.29449e-07
2.32895e-07
2.36428e-07
2.40039e-07
2.43721e-07
2.47469e-07
2.51282e-07
2.55169e-07
2.59146e-07
2.6323e-07
2.67443e-07
2.71806e-07
2.76346e-07
2.81076e-07
2.86003e-07
2.91113e-07
2.96377e-07
3.01751e-07
3.07182e-07
3.12605e-07
3.17951e-07
3.2316e-07
3.28167e-07
3.32913e-07
3.37347e-07
3.41433e-07
3.45154e-07
3.48518e-07
3.51549e-07
3.54266e-07
3.56669e-07
3.58755e-07
3.60531e-07
3.6201e-07
3.63207e-07
3.64132e-07
3.64801e-07
3.6524e-07
3.6548e-07
3.65565e-07
3.65547e-07
3.6547e-07
3.65406e-07
3.65411e-07
3.65554e-07
3.65933e-07
3.66596e-07
3.67574e-07
3.68886e-07
3.70521e-07
3.72431e-07
3.7453e-07
3.76691e-07
3.78754e-07
3.80596e-07
3.82099e-07
3.83165e-07
3.8373e-07
3.83802e-07
3.83368e-07
3.8236e-07
3.80867e-07
3.7896e-07
3.76675e-07
3.74023e-07
3.70994e-07
3.67589e-07
3.63819e-07
3.59684e-07
3.55181e-07
3.50328e-07
3.45191e-07
3.39854e-07
3.34397e-07
3.28915e-07
3.23505e-07
3.18204e-07
3.13024e-07
3.0798e-07
3.03058e-07
2.98213e-07
2.93382e-07
2.88511e-07
2.83573e-07
2.78559e-07
2.73482e-07
2.68354e-07
2.63198e-07
2.58073e-07
2.53048e-07
2.48158e-07
2.43433e-07
2.38899e-07
2.34571e-07
2.3046e-07
2.26573e-07
2.22915e-07
2.19495e-07
2.16326e-07
2.13433e-07
2.1085e-07
2.08614e-07
2.06761e-07
2.05322e-07
2.0432e-07
2.03763e-07
2.03633e-07
2.03948e-07
2.04671e-07
2.0563e-07
2.06765e-07
2.08062e-07
2.09507e-07
2.11091e-07
2.12811e-07
2.14672e-07
2.16686e-07
2.1886e-07
2.212e-07
2.23701e-07
2.26369e-07
2.29214e-07
2.32242e-07
2.35437e-07
2.38743e-07
2.42093e-07
2.45442e-07
2.48729e-07
2.51882e-07
2.54939e-07
3.89024e-09
4.10991e-09
4.26857e-09
4.51513e-09
4.8046e-09
5.22031e-09
5.7522e-09
6.49968e-09
7.49643e-09
8.85733e-09
1.06682e-08
1.30433e-08
1.60569e-08
1.97267e-08
2.40251e-08
2.89079e-08
3.43543e-08
4.0395e-08
4.71329e-08
5.41784e-08
6.06895e-08
6.641e-08
7.12441e-08
7.52238e-08
7.84541e-08
8.10618e-08
8.3173e-08
8.49067e-08
8.63699e-08
8.76544e-08
8.88344e-08
8.99668e-08
9.10889e-08
9.22267e-08
9.3402e-08
9.46199e-08
9.58798e-08
9.7183e-08
9.85302e-08
9.9922e-08
1.0136e-07
1.02849e-07
1.04396e-07
1.06009e-07
1.07702e-07
1.09482e-07
1.11366e-07
1.13361e-07
1.15474e-07
1.177e-07
1.20035e-07
1.22461e-07
1.24953e-07
1.27489e-07
1.30039e-07
1.3257e-07
1.35043e-07
1.37444e-07
1.3974e-07
1.41915e-07
1.43961e-07
1.45873e-07
1.47643e-07
1.49268e-07
1.50745e-07
1.5208e-07
1.53275e-07
1.54336e-07
1.55268e-07
1.56075e-07
1.56764e-07
1.57344e-07
1.5783e-07
1.58241e-07
1.58598e-07
1.58931e-07
1.59268e-07
1.59646e-07
1.60106e-07
1.60686e-07
1.61417e-07
1.62325e-07
1.63421e-07
1.64698e-07
1.66132e-07
1.67674e-07
1.69256e-07
1.70786e-07
1.72191e-07
1.734e-07
1.7435e-07
1.74978e-07
1.75232e-07
1.75134e-07
1.74636e-07
1.7376e-07
1.72576e-07
1.71118e-07
1.694e-07
1.67427e-07
1.65199e-07
1.62722e-07
1.60005e-07
1.57063e-07
1.53932e-07
1.50664e-07
1.47322e-07
1.43968e-07
1.40661e-07
1.37448e-07
1.34358e-07
1.31405e-07
1.28588e-07
1.25892e-07
1.23292e-07
1.20756e-07
1.18258e-07
1.15785e-07
1.13333e-07
1.10915e-07
1.0854e-07
1.06222e-07
1.03988e-07
1.01865e-07
9.98639e-08
9.79934e-08
9.62567e-08
9.46529e-08
9.31782e-08
9.18277e-08
9.05962e-08
8.94791e-08
8.84744e-08
8.75829e-08
8.6808e-08
8.61543e-08
8.56264e-08
8.52274e-08
8.49585e-08
8.4817e-08
8.47991e-08
8.49054e-08
8.51261e-08
8.54138e-08
8.57527e-08
8.61399e-08
8.65728e-08
8.70505e-08
8.75743e-08
8.81478e-08
8.87759e-08
8.94637e-08
9.02141e-08
9.10291e-08
9.19102e-08
9.28589e-08
9.38721e-08
9.49367e-08
9.60309e-08
9.71405e-08
9.82582e-08
9.93712e-08
1.00458e-07
1.01533e-07
2.22254e-09
2.38753e-09
2.50547e-09
2.66729e-09
2.8538e-09
3.10949e-09
3.43643e-09
3.89032e-09
4.504e-09
5.34895e-09
6.4924e-09
8.0175e-09
9.9921e-09
1.24543e-08
1.5414e-08
1.88693e-08
2.28289e-08
2.73215e-08
3.24106e-08
3.80551e-08
4.34057e-08
4.80905e-08
5.19897e-08
5.51141e-08
5.75571e-08
5.94366e-08
6.08646e-08
6.19409e-08
6.27512e-08
6.33682e-08
6.38528e-08
6.42535e-08
6.4608e-08
6.49433e-08
6.52759e-08
6.5618e-08
6.59753e-08
6.63508e-08
6.67471e-08
6.71662e-08
6.761e-08
6.80812e-08
6.8583e-08
6.91189e-08
6.96948e-08
7.03141e-08
7.09846e-08
7.17098e-08
7.2492e-08
7.33339e-08
7.42341e-08
7.51871e-08
7.6183e-08
7.72126e-08
7.82652e-08
7.93267e-08
8.03831e-08
8.1422e-08
8.24318e-08
8.34018e-08
8.43236e-08
8.51926e-08
8.60061e-08
8.67623e-08
8.74589e-08
8.80944e-08
8.86683e-08
8.91813e-08
8.96351e-08
9.00323e-08
9.03764e-08
9.06721e-08
9.09253e-08
9.11442e-08
9.1339e-08
9.15225e-08
9.17084e-08
9.1914e-08
9.21596e-08
9.24641e-08
9.28442e-08
9.33124e-08
9.38747e-08
9.45287e-08
9.52619e-08
9.60513e-08
9.68632e-08
9.76524e-08
9.83814e-08
9.90128e-08
9.95132e-08
9.98469e-08
9.99821e-08
9.993e-08
9.96654e-08
9.92018e-08
9.85776e-08
9.78131e-08
9.69183e-08
9.58979e-08
9.47546e-08
9.34926e-08
9.21194e-08
9.06486e-08
8.91032e-08
8.75141e-08
8.5916e-08
8.43421e-08
8.28174e-08
8.13628e-08
7.99913e-08
7.87073e-08
7.75072e-08
7.63816e-08
7.53181e-08
7.43035e-08
7.33266e-08
7.2381e-08
7.1466e-08
7.05876e-08
6.97496e-08
6.89528e-08
6.82065e-08
6.75199e-08
6.68943e-08
6.63295e-08
6.5823e-08
6.53717e-08
6.49717e-08
6.46186e-08
6.43084e-08
6.40376e-08
6.38033e-08
6.36036e-08
6.34367e-08
6.33019e-08
6.31987e-08
6.31267e-08
6.30843e-08
6.30686e-08
6.30817e-08
6.31198e-08
6.31811e-08
6.32552e-08
6.33386e-08
6.34327e-08
6.35374e-08
6.36538e-08
6.3786e-08
6.39359e-08
6.41057e-08
6.4295e-08
6.45001e-08
6.47225e-08
6.49633e-08
6.52256e-08
6.55109e-08
6.5811e-08
6.61173e-08
6.64276e-08
6.67445e-08
6.70674e-08
6.73858e-08
6.77087e-08
1.97651e-09
2.13155e-09
2.24217e-09
2.3897e-09
2.55888e-09
2.78757e-09
3.0794e-09
3.48197e-09
4.02741e-09
4.77849e-09
5.79812e-09
7.16246e-09
8.9366e-09
1.1159e-08
1.3843e-08
1.69926e-08
2.06221e-08
2.47603e-08
2.94575e-08
3.47292e-08
3.98039e-08
4.42684e-08
4.79873e-08
5.09496e-08
5.32336e-08
5.49528e-08
5.62201e-08
5.71348e-08
5.77789e-08
5.82189e-08
5.85094e-08
5.8695e-08
5.8812e-08
5.88889e-08
5.89464e-08
5.89968e-08
5.90501e-08
5.91109e-08
5.91819e-08
5.92651e-08
5.93619e-08
5.94737e-08
5.96023e-08
5.97491e-08
5.99165e-08
6.01071e-08
6.03231e-08
6.05667e-08
6.08395e-08
6.11432e-08
6.14781e-08
6.18425e-08
6.2234e-08
6.26479e-08
6.308e-08
6.35243e-08
6.39741e-08
6.44233e-08
6.48667e-08
6.52984e-08
6.57132e-08
6.61079e-08
6.64803e-08
6.68284e-08
6.71501e-08
6.74438e-08
6.77086e-08
6.79447e-08
6.81526e-08
6.83336e-08
6.84893e-08
6.86218e-08
6.87341e-08
6.88299e-08
6.89141e-08
6.89931e-08
6.90736e-08
6.91645e-08
6.92762e-08
6.94183e-08
6.95995e-08
6.98265e-08
7.01024e-08
7.04264e-08
7.0792e-08
7.11878e-08
7.15966e-08
7.1995e-08
7.23631e-08
7.26813e-08
7.2932e-08
7.30967e-08
7.31603e-08
7.31283e-08
7.29872e-08
7.27465e-08
7.24264e-08
7.20385e-08
7.15889e-08
7.10812e-08
7.05172e-08
6.98992e-08
6.92315e-08
6.85236e-08
6.77899e-08
6.70468e-08
6.63123e-08
6.56e-08
6.49225e-08
6.42897e-08
6.37064e-08
6.31727e-08
6.26855e-08
6.22395e-08
6.18281e-08
6.14453e-08
6.10872e-08
6.07508e-08
6.04354e-08
6.01454e-08
5.9881e-08
5.96381e-08
5.94219e-08
5.92369e-08
5.90808e-08
5.89506e-08
5.88446e-08
5.87609e-08
5.86963e-08
5.86482e-08
5.86146e-08
5.85934e-08
5.85829e-08
5.8581e-08
5.8587e-08
5.85993e-08
5.86162e-08
5.86364e-08
5.86584e-08
5.86807e-08
5.87024e-08
5.87236e-08
5.87433e-08
5.87618e-08
5.87782e-08
5.87959e-08
5.88152e-08
5.88364e-08
5.88636e-08
5.88961e-08
5.89323e-08
5.89657e-08
5.89956e-08
5.9025e-08
5.9059e-08
5.91013e-08
5.91559e-08
5.92159e-08
5.92762e-08
5.93363e-08
5.94003e-08
5.947e-08
5.95388e-08
5.96115e-08
1.92952e-09
2.08214e-09
2.19083e-09
2.33459e-09
2.49883e-09
2.71977e-09
3.0008e-09
3.38725e-09
3.91012e-09
4.62925e-09
5.60522e-09
6.91186e-09
8.6137e-09
1.07493e-08
1.3331e-08
1.63635e-08
1.98632e-08
2.38612e-08
2.83978e-08
3.35302e-08
3.85797e-08
4.30627e-08
4.68284e-08
4.98435e-08
5.21687e-08
5.39118e-08
5.51878e-08
5.60999e-08
5.67322e-08
5.71507e-08
5.74071e-08
5.75438e-08
5.75975e-08
5.76053e-08
5.75777e-08
5.75312e-08
5.74854e-08
5.74424e-08
5.74051e-08
5.73756e-08
5.73548e-08
5.73431e-08
5.73417e-08
5.7351e-08
5.73725e-08
5.74081e-08
5.74585e-08
5.7525e-08
5.76087e-08
5.77107e-08
5.7831e-08
5.79693e-08
5.81251e-08
5.82968e-08
5.84818e-08
5.8677e-08
5.88792e-08
5.9085e-08
5.92916e-08
5.94952e-08
5.96932e-08
5.98835e-08
6.00644e-08
6.02341e-08
6.03909e-08
6.0533e-08
6.06598e-08
6.07711e-08
6.08674e-08
6.09493e-08
6.10177e-08
6.10737e-08
6.11187e-08
6.11549e-08
6.11853e-08
6.12132e-08
6.12426e-08
6.12785e-08
6.13266e-08
6.13925e-08
6.1481e-08
6.15959e-08
6.17391e-08
6.19097e-08
6.21042e-08
6.23159e-08
6.25352e-08
6.27491e-08
6.29462e-08
6.31155e-08
6.32466e-08
6.333e-08
6.33588e-08
6.33358e-08
6.32533e-08
6.3119e-08
6.29444e-08
6.27356e-08
6.24962e-08
6.22287e-08
6.19342e-08
6.16134e-08
6.12695e-08
6.09093e-08
6.05413e-08
6.01748e-08
5.98181e-08
5.94787e-08
5.9163e-08
5.88762e-08
5.86204e-08
5.83942e-08
5.81945e-08
5.80184e-08
5.78623e-08
5.77229e-08
5.7599e-08
5.74899e-08
5.73956e-08
5.73191e-08
5.72598e-08
5.72129e-08
5.71816e-08
5.71686e-08
5.71715e-08
5.71876e-08
5.72144e-08
5.72507e-08
5.72947e-08
5.73443e-08
5.73979e-08
5.74546e-08
5.75136e-08
5.75735e-08
5.76333e-08
5.76918e-08
5.77474e-08
5.77982e-08
5.78422e-08
5.78781e-08
5.7906e-08
5.79263e-08
5.79386e-08
5.7946e-08
5.79499e-08
5.79517e-08
5.7952e-08
5.79508e-08
5.79472e-08
5.79397e-08
5.79264e-08
5.7902e-08
5.78727e-08
5.78451e-08
5.78212e-08
5.78033e-08
5.77916e-08
5.77829e-08
5.77718e-08
5.77578e-08
5.77444e-08
5.77329e-08
5.77196e-08
5.77077e-08
1.91188e-09
2.06272e-09
2.16995e-09
2.31115e-09
2.47185e-09
2.68741e-09
2.96061e-09
3.33539e-09
3.84135e-09
4.5363e-09
5.47865e-09
6.74036e-09
8.38579e-09
1.04548e-08
1.29592e-08
1.59028e-08
1.93021e-08
2.31898e-08
2.76032e-08
3.26118e-08
3.76993e-08
4.22685e-08
4.61486e-08
4.92827e-08
5.1714e-08
5.35436e-08
5.48878e-08
5.58524e-08
5.65232e-08
5.69668e-08
5.72351e-08
5.73709e-08
5.74155e-08
5.74145e-08
5.73607e-08
5.72887e-08
5.72132e-08
5.71377e-08
5.70652e-08
5.69988e-08
5.69389e-08
5.68855e-08
5.68396e-08
5.68002e-08
5.67687e-08
5.67469e-08
5.67354e-08
5.67358e-08
5.67484e-08
5.67739e-08
5.68124e-08
5.68639e-08
5.6928e-08
5.70042e-08
5.70913e-08
5.71874e-08
5.72904e-08
5.73975e-08
5.75065e-08
5.7615e-08
5.77214e-08
5.7824e-08
5.79214e-08
5.80132e-08
5.80982e-08
5.81745e-08
5.8241e-08
5.82974e-08
5.83442e-08
5.8382e-08
5.84113e-08
5.84328e-08
5.84474e-08
5.84566e-08
5.84626e-08
5.84677e-08
5.84745e-08
5.84864e-08
5.85072e-08
5.85405e-08
5.85896e-08
5.86567e-08
5.87431e-08
5.8848e-08
5.89688e-08
5.91007e-08
5.92368e-08
5.93684e-08
5.94884e-08
5.95897e-08
5.96659e-08
5.97116e-08
5.97243e-08
5.97054e-08
5.96508e-08
5.95669e-08
5.94602e-08
5.93348e-08
5.91935e-08
5.90371e-08
5.88647e-08
5.86769e-08
5.84773e-08
5.82713e-08
5.80631e-08
5.78578e-08
5.76612e-08
5.74776e-08
5.73111e-08
5.71644e-08
5.70385e-08
5.69329e-08
5.68453e-08
5.67726e-08
5.67122e-08
5.66632e-08
5.6625e-08
5.65975e-08
5.65814e-08
5.65793e-08
5.65904e-08
5.66098e-08
5.66403e-08
5.66837e-08
5.67369e-08
5.67975e-08
5.68639e-08
5.69348e-08
5.70089e-08
5.70843e-08
5.716e-08
5.72355e-08
5.73106e-08
5.73847e-08
5.74569e-08
5.75261e-08
5.75912e-08
5.76504e-08
5.77016e-08
5.77436e-08
5.77764e-08
5.78003e-08
5.7815e-08
5.78244e-08
5.7829e-08
5.78296e-08
5.78256e-08
5.78157e-08
5.77994e-08
5.77759e-08
5.77452e-08
5.77059e-08
5.76644e-08
5.76249e-08
5.75899e-08
5.75612e-08
5.7536e-08
5.75099e-08
5.74811e-08
5.74442e-08
5.74054e-08
5.73676e-08
5.73209e-08
5.72809e-08
1.89738e-09
2.04636e-09
2.15203e-09
2.29067e-09
2.44782e-09
2.65804e-09
2.92344e-09
3.28666e-09
3.77577e-09
4.44666e-09
5.35545e-09
6.57221e-09
8.16075e-09
1.01624e-08
1.25894e-08
1.54451e-08
1.87451e-08
2.25222e-08
2.68124e-08
3.16846e-08
3.68114e-08
4.1486e-08
4.54994e-08
4.87711e-08
5.1327e-08
5.32628e-08
5.46953e-08
5.57314e-08
5.64571e-08
5.69389e-08
5.72309e-08
5.73813e-08
5.74347e-08
5.74371e-08
5.73806e-08
5.73023e-08
5.72194e-08
5.71354e-08
5.70526e-08
5.6975e-08
5.69031e-08
5.68364e-08
5.67771e-08
5.67221e-08
5.66739e-08
5.66318e-08
5.65972e-08
5.65729e-08
5.65593e-08
5.6556e-08
5.65627e-08
5.65801e-08
5.66082e-08
5.66466e-08
5.66948e-08
5.67515e-08
5.68148e-08
5.68824e-08
5.69521e-08
5.70222e-08
5.70912e-08
5.71577e-08
5.72207e-08
5.72792e-08
5.73328e-08
5.73804e-08
5.74207e-08
5.74529e-08
5.74774e-08
5.74949e-08
5.7506e-08
5.75114e-08
5.75122e-08
5.75094e-08
5.75042e-08
5.74991e-08
5.74963e-08
5.74974e-08
5.75059e-08
5.75256e-08
5.75589e-08
5.76076e-08
5.7672e-08
5.7751e-08
5.78417e-08
5.79403e-08
5.80418e-08
5.81393e-08
5.82268e-08
5.82984e-08
5.83493e-08
5.83769e-08
5.83814e-08
5.83625e-08
5.83182e-08
5.82558e-08
5.81807e-08
5.80945e-08
5.79967e-08
5.78871e-08
5.77664e-08
5.76367e-08
5.75008e-08
5.73595e-08
5.72159e-08
5.70757e-08
5.6942e-08
5.68195e-08
5.67109e-08
5.66181e-08
5.65419e-08
5.64816e-08
5.64351e-08
5.63996e-08
5.63733e-08
5.63553e-08
5.63452e-08
5.6343e-08
5.63496e-08
5.63681e-08
5.63977e-08
5.64333e-08
5.64778e-08
5.65332e-08
5.65975e-08
5.66688e-08
5.67446e-08
5.68232e-08
5.69032e-08
5.69833e-08
5.70624e-08
5.71404e-08
5.72178e-08
5.72942e-08
5.73692e-08
5.74419e-08
5.75112e-08
5.75753e-08
5.76326e-08
5.76817e-08
5.77224e-08
5.77534e-08
5.77752e-08
5.7791e-08
5.78004e-08
5.78042e-08
5.78002e-08
5.77856e-08
5.7762e-08
5.77309e-08
5.76963e-08
5.76595e-08
5.76231e-08
5.7588e-08
5.75563e-08
5.7529e-08
5.75041e-08
5.74786e-08
5.7448e-08
5.74071e-08
5.73624e-08
5.73162e-08
5.72603e-08
5.72126e-08
1.88041e-09
2.0271e-09
2.13091e-09
2.26656e-09
2.4196e-09
2.62378e-09
2.88035e-09
3.23062e-09
3.70076e-09
4.34457e-09
5.21561e-09
6.38181e-09
7.90548e-09
9.828e-09
1.21641e-08
1.49188e-08
1.81071e-08
2.17584e-08
2.59038e-08
3.05998e-08
3.57253e-08
4.05153e-08
4.46847e-08
4.81199e-08
5.08266e-08
5.2894e-08
5.44383e-08
5.55658e-08
5.63621e-08
5.68952e-08
5.72221e-08
5.73947e-08
5.74637e-08
5.7475e-08
5.74325e-08
5.7361e-08
5.72828e-08
5.72007e-08
5.71164e-08
5.70336e-08
5.69531e-08
5.68752e-08
5.68054e-08
5.67364e-08
5.66772e-08
5.66275e-08
5.65846e-08
5.65499e-08
5.65248e-08
5.65093e-08
5.65035e-08
5.65068e-08
5.65198e-08
5.65426e-08
5.65742e-08
5.66141e-08
5.66603e-08
5.67111e-08
5.6765e-08
5.68205e-08
5.68766e-08
5.69316e-08
5.6984e-08
5.70326e-08
5.7076e-08
5.71134e-08
5.71438e-08
5.71667e-08
5.7182e-08
5.71903e-08
5.71928e-08
5.71906e-08
5.71838e-08
5.71736e-08
5.71613e-08
5.71488e-08
5.71389e-08
5.71341e-08
5.71361e-08
5.71494e-08
5.71774e-08
5.72208e-08
5.72791e-08
5.73512e-08
5.74345e-08
5.75247e-08
5.76159e-08
5.77017e-08
5.77767e-08
5.7836e-08
5.78759e-08
5.78943e-08
5.78929e-08
5.78705e-08
5.78283e-08
5.77722e-08
5.7706e-08
5.76315e-08
5.75489e-08
5.7458e-08
5.73592e-08
5.72535e-08
5.71408e-08
5.70222e-08
5.68999e-08
5.67792e-08
5.66647e-08
5.65597e-08
5.64679e-08
5.6391e-08
5.63288e-08
5.6281e-08
5.62455e-08
5.62197e-08
5.62015e-08
5.61902e-08
5.61854e-08
5.6187e-08
5.61961e-08
5.6216e-08
5.6246e-08
5.62813e-08
5.63251e-08
5.63797e-08
5.64424e-08
5.65103e-08
5.65807e-08
5.66511e-08
5.67201e-08
5.67868e-08
5.68501e-08
5.69107e-08
5.69696e-08
5.70275e-08
5.70849e-08
5.71419e-08
5.71987e-08
5.72557e-08
5.73106e-08
5.73616e-08
5.74083e-08
5.74469e-08
5.74785e-08
5.75057e-08
5.75278e-08
5.75439e-08
5.75515e-08
5.75485e-08
5.75399e-08
5.75254e-08
5.75129e-08
5.74998e-08
5.74864e-08
5.74717e-08
5.74582e-08
5.74474e-08
5.74383e-08
5.74258e-08
5.7403e-08
5.73686e-08
5.73266e-08
5.72825e-08
5.72274e-08
5.71804e-08
1.85274e-09
1.99577e-09
2.09668e-09
2.22812e-09
2.37555e-09
2.57183e-09
2.81712e-09
3.15126e-09
3.59788e-09
4.20852e-09
5.03317e-09
6.13674e-09
7.57871e-09
9.40038e-09
1.162e-08
1.42448e-08
1.72876e-08
2.07734e-08
2.47288e-08
2.91886e-08
3.42009e-08
3.90803e-08
4.33973e-08
4.7009e-08
4.98955e-08
5.21339e-08
5.3834e-08
5.50968e-08
5.60052e-08
5.66281e-08
5.7027e-08
5.72576e-08
5.73688e-08
5.74051e-08
5.73939e-08
5.73418e-08
5.72748e-08
5.72007e-08
5.71218e-08
5.70414e-08
5.6961e-08
5.68816e-08
5.68096e-08
5.67361e-08
5.66735e-08
5.66201e-08
5.65706e-08
5.65277e-08
5.64953e-08
5.64721e-08
5.64582e-08
5.64545e-08
5.64597e-08
5.64744e-08
5.64964e-08
5.65268e-08
5.65608e-08
5.66001e-08
5.6645e-08
5.66947e-08
5.67476e-08
5.68021e-08
5.68552e-08
5.69047e-08
5.69488e-08
5.69859e-08
5.70151e-08
5.70361e-08
5.70488e-08
5.70538e-08
5.70523e-08
5.70446e-08
5.70315e-08
5.7015e-08
5.69961e-08
5.69766e-08
5.69597e-08
5.69484e-08
5.69456e-08
5.69537e-08
5.69785e-08
5.70212e-08
5.70809e-08
5.71556e-08
5.72421e-08
5.73354e-08
5.74284e-08
5.75145e-08
5.75879e-08
5.76436e-08
5.76783e-08
5.76906e-08
5.76838e-08
5.76556e-08
5.76097e-08
5.75517e-08
5.74844e-08
5.7409e-08
5.73266e-08
5.72387e-08
5.71456e-08
5.70456e-08
5.69366e-08
5.68198e-08
5.66982e-08
5.65771e-08
5.64621e-08
5.6357e-08
5.62656e-08
5.61891e-08
5.6128e-08
5.60816e-08
5.60475e-08
5.60215e-08
5.6001e-08
5.59852e-08
5.59735e-08
5.59657e-08
5.59622e-08
5.59656e-08
5.59754e-08
5.5986e-08
5.60011e-08
5.6023e-08
5.60481e-08
5.60725e-08
5.60937e-08
5.61105e-08
5.61218e-08
5.61179e-08
5.61075e-08
5.60894e-08
5.60707e-08
5.60518e-08
5.60354e-08
5.60259e-08
5.6027e-08
5.6047e-08
5.60769e-08
5.61159e-08
5.61642e-08
5.62155e-08
5.62747e-08
5.63392e-08
5.64028e-08
5.64643e-08
5.65242e-08
5.65834e-08
5.66418e-08
5.66993e-08
5.67574e-08
5.68164e-08
5.68733e-08
5.69262e-08
5.69784e-08
5.7029e-08
5.70767e-08
5.71115e-08
5.71293e-08
5.71343e-08
5.7122e-08
5.71077e-08
5.70772e-08
5.70482e-08
1.79536e-09
1.93122e-09
2.02671e-09
2.15113e-09
2.28964e-09
2.47417e-09
2.70335e-09
3.01559e-09
3.43035e-09
3.99689e-09
4.75919e-09
5.77747e-09
7.1062e-09
8.78695e-09
1.08397e-08
1.32717e-08
1.60927e-08
1.93249e-08
2.29974e-08
2.71412e-08
3.1839e-08
3.67015e-08
4.10961e-08
4.48538e-08
4.79286e-08
5.03753e-08
5.22869e-08
5.37531e-08
5.48507e-08
5.56468e-08
5.62037e-08
5.6577e-08
5.68142e-08
5.6953e-08
5.70253e-08
5.70566e-08
5.70431e-08
5.70101e-08
5.69606e-08
5.6899e-08
5.68309e-08
5.67586e-08
5.66857e-08
5.66106e-08
5.65477e-08
5.64964e-08
5.64382e-08
5.63782e-08
5.6341e-08
5.63218e-08
5.63101e-08
5.63096e-08
5.63176e-08
5.63353e-08
5.63559e-08
5.63874e-08
5.64116e-08
5.64426e-08
5.64846e-08
5.65365e-08
5.6595e-08
5.66569e-08
5.67176e-08
5.67737e-08
5.68232e-08
5.68643e-08
5.68962e-08
5.69184e-08
5.69312e-08
5.69352e-08
5.69316e-08
5.69197e-08
5.69009e-08
5.68776e-08
5.68511e-08
5.68233e-08
5.67978e-08
5.67789e-08
5.67705e-08
5.67741e-08
5.67956e-08
5.68388e-08
5.69024e-08
5.6983e-08
5.70763e-08
5.71764e-08
5.72753e-08
5.7366e-08
5.74419e-08
5.74977e-08
5.75298e-08
5.75378e-08
5.75252e-08
5.74889e-08
5.74346e-08
5.73684e-08
5.72939e-08
5.72133e-08
5.71276e-08
5.70379e-08
5.69434e-08
5.68417e-08
5.673e-08
5.66079e-08
5.64786e-08
5.63476e-08
5.62205e-08
5.61022e-08
5.59956e-08
5.59018e-08
5.5822e-08
5.57555e-08
5.56997e-08
5.56494e-08
5.56011e-08
5.55528e-08
5.55029e-08
5.54499e-08
5.53928e-08
5.53326e-08
5.52678e-08
5.51926e-08
5.51101e-08
5.50224e-08
5.49254e-08
5.48143e-08
5.46863e-08
5.45395e-08
5.43721e-08
5.41766e-08
5.39611e-08
5.37289e-08
5.3491e-08
5.32559e-08
5.30361e-08
5.28461e-08
5.2696e-08
5.25894e-08
5.25294e-08
5.25171e-08
5.25615e-08
5.26473e-08
5.27734e-08
5.29323e-08
5.31136e-08
5.33111e-08
5.35221e-08
5.37456e-08
5.3977e-08
5.42126e-08
5.44528e-08
5.46962e-08
5.49391e-08
5.51788e-08
5.54128e-08
5.564e-08
5.58504e-08
5.60292e-08
5.61727e-08
5.62882e-08
5.63855e-08
5.64655e-08
5.65207e-08
5.65556e-08
1.65831e-09
1.77696e-09
1.85962e-09
1.96872e-09
2.08894e-09
2.25106e-09
2.45141e-09
2.72635e-09
3.08767e-09
3.58127e-09
4.23968e-09
5.11452e-09
6.24902e-09
7.68344e-09
9.4405e-09
1.15264e-08
1.39505e-08
1.67372e-08
1.99237e-08
2.35401e-08
2.76365e-08
3.2159e-08
3.64406e-08
4.02407e-08
4.34875e-08
4.61909e-08
4.84106e-08
5.02126e-08
5.16607e-08
5.2815e-08
5.37291e-08
5.44482e-08
5.5009e-08
5.54398e-08
5.57616e-08
5.59921e-08
5.61505e-08
5.62474e-08
5.62955e-08
5.63053e-08
5.62856e-08
5.62435e-08
5.61855e-08
5.61247e-08
5.60728e-08
5.60273e-08
5.59797e-08
5.59102e-08
5.58573e-08
5.58625e-08
5.5872e-08
5.58925e-08
5.59233e-08
5.59601e-08
5.59939e-08
5.60367e-08
5.60583e-08
5.60922e-08
5.61442e-08
5.6213e-08
5.62934e-08
5.63791e-08
5.64643e-08
5.65438e-08
5.66135e-08
5.66704e-08
5.67137e-08
5.67437e-08
5.67612e-08
5.67671e-08
5.67636e-08
5.67491e-08
5.67248e-08
5.66933e-08
5.66563e-08
5.66161e-08
5.6578e-08
5.65477e-08
5.65302e-08
5.65286e-08
5.65463e-08
5.65912e-08
5.66617e-08
5.67526e-08
5.68577e-08
5.69694e-08
5.70791e-08
5.71791e-08
5.72618e-08
5.7321e-08
5.73528e-08
5.73574e-08
5.73379e-08
5.72912e-08
5.72249e-08
5.71456e-08
5.70584e-08
5.69669e-08
5.68726e-08
5.67747e-08
5.66707e-08
5.65568e-08
5.64295e-08
5.6287e-08
5.61311e-08
5.59669e-08
5.57987e-08
5.56327e-08
5.54713e-08
5.53162e-08
5.5171e-08
5.50363e-08
5.49092e-08
5.47836e-08
5.46541e-08
5.45155e-08
5.43631e-08
5.41923e-08
5.39982e-08
5.37785e-08
5.353e-08
5.32459e-08
5.29281e-08
5.25774e-08
5.21901e-08
5.1762e-08
5.12899e-08
5.07706e-08
5.02016e-08
4.95814e-08
4.89176e-08
4.82218e-08
4.7515e-08
4.68204e-08
4.61662e-08
4.55782e-08
4.50784e-08
4.46887e-08
4.44287e-08
4.4302e-08
4.43187e-08
4.44704e-08
4.47309e-08
4.50838e-08
4.55086e-08
4.59892e-08
4.65129e-08
4.70697e-08
4.76516e-08
4.8252e-08
4.88655e-08
4.9488e-08
5.0118e-08
5.07522e-08
5.13842e-08
5.20019e-08
5.25865e-08
5.31173e-08
5.35845e-08
5.3995e-08
5.43623e-08
5.46844e-08
5.49411e-08
5.51347e-08
1.2468e-09
1.33576e-09
1.39371e-09
1.46814e-09
1.54449e-09
1.64092e-09
1.77104e-09
1.94335e-09
2.13644e-09
2.34414e-09
2.55748e-09
2.83723e-09
3.31707e-09
4.11191e-09
5.35779e-09
7.12334e-09
9.1689e-09
1.11637e-08
1.34788e-08
1.62368e-08
1.9429e-08
2.28853e-08
2.66089e-08
3.01735e-08
3.34979e-08
3.64698e-08
3.91069e-08
4.14715e-08
4.36005e-08
4.5524e-08
4.72576e-08
4.88065e-08
5.01634e-08
5.13207e-08
5.22806e-08
5.30512e-08
5.36494e-08
5.40978e-08
5.44189e-08
5.46367e-08
5.47707e-08
5.48381e-08
5.48625e-08
5.48617e-08
5.48544e-08
5.48473e-08
5.4845e-08
5.48182e-08
5.47855e-08
5.48332e-08
5.49073e-08
5.49924e-08
5.50811e-08
5.51636e-08
5.52325e-08
5.52905e-08
5.53221e-08
5.5368e-08
5.54411e-08
5.5543e-08
5.56653e-08
5.5796e-08
5.59278e-08
5.60596e-08
5.61789e-08
5.62743e-08
5.6345e-08
5.63944e-08
5.64256e-08
5.64402e-08
5.64406e-08
5.64267e-08
5.63959e-08
5.63514e-08
5.62967e-08
5.62358e-08
5.61766e-08
5.6127e-08
5.60939e-08
5.60834e-08
5.6097e-08
5.61456e-08
5.6229e-08
5.63388e-08
5.64651e-08
5.65983e-08
5.67286e-08
5.68475e-08
5.69459e-08
5.70158e-08
5.70525e-08
5.70561e-08
5.70295e-08
5.6969e-08
5.6883e-08
5.67797e-08
5.66661e-08
5.65486e-08
5.64296e-08
5.63071e-08
5.61761e-08
5.60298e-08
5.58623e-08
5.56693e-08
5.54499e-08
5.52065e-08
5.4942e-08
5.46605e-08
5.43662e-08
5.40645e-08
5.37633e-08
5.34688e-08
5.31775e-08
5.28823e-08
5.25738e-08
5.22414e-08
5.18735e-08
5.14581e-08
5.0983e-08
5.04402e-08
4.98226e-08
4.91229e-08
4.83405e-08
4.74768e-08
4.65307e-08
4.55013e-08
4.43877e-08
4.31879e-08
4.19009e-08
4.05307e-08
3.90913e-08
3.76081e-08
3.61191e-08
3.46646e-08
3.32898e-08
3.20381e-08
3.0955e-08
3.00879e-08
2.94762e-08
2.9142e-08
2.90752e-08
2.92991e-08
2.97432e-08
3.03645e-08
3.1121e-08
3.19962e-08
3.29852e-08
3.40726e-08
3.52393e-08
3.64697e-08
3.77415e-08
3.90278e-08
4.0306e-08
4.15935e-08
4.29016e-08
4.42091e-08
4.54853e-08
4.6692e-08
4.78003e-08
4.88049e-08
4.97123e-08
5.05158e-08
5.11852e-08
5.17128e-08
3.71489e-10
3.54111e-10
3.513e-10
3.60521e-10
3.78889e-10
4.02691e-10
4.26603e-10
4.70622e-10
5.36012e-10
6.42365e-10
7.71614e-10
9.4253e-10
1.09956e-09
1.28897e-09
1.50783e-09
1.75212e-09
2.01431e-09
2.40412e-09
2.89456e-09
3.48848e-09
6.10554e-09
8.41237e-09
1.02837e-08
1.25129e-08
1.49082e-08
1.73811e-08
2.00269e-08
2.27942e-08
2.57038e-08
2.87703e-08
3.19591e-08
3.5195e-08
3.83468e-08
4.12179e-08
4.37308e-08
4.58444e-08
4.75449e-08
4.88828e-08
4.99081e-08
5.06712e-08
5.1226e-08
5.16196e-08
5.18957e-08
5.20834e-08
5.22031e-08
5.22904e-08
5.23959e-08
5.24777e-08
5.26287e-08
5.28109e-08
5.30239e-08
5.32561e-08
5.3478e-08
5.3672e-08
5.38285e-08
5.39446e-08
5.40096e-08
5.40898e-08
5.42063e-08
5.43629e-08
5.45481e-08
5.47471e-08
5.49501e-08
5.51551e-08
5.53521e-08
5.55155e-08
5.56352e-08
5.57168e-08
5.57694e-08
5.57982e-08
5.58056e-08
5.57941e-08
5.57562e-08
5.56927e-08
5.56097e-08
5.55149e-08
5.54217e-08
5.53422e-08
5.52863e-08
5.52623e-08
5.52717e-08
5.53265e-08
5.54301e-08
5.55689e-08
5.57272e-08
5.58926e-08
5.60538e-08
5.6202e-08
5.63263e-08
5.64167e-08
5.64668e-08
5.6475e-08
5.64438e-08
5.63648e-08
5.62462e-08
5.60982e-08
5.59313e-08
5.57566e-08
5.55812e-08
5.54039e-08
5.52159e-08
5.50045e-08
5.47574e-08
5.44646e-08
5.412e-08
5.37205e-08
5.32642e-08
5.27528e-08
5.21935e-08
5.16013e-08
5.09965e-08
5.03944e-08
4.97949e-08
4.91883e-08
4.85589e-08
4.78866e-08
4.71478e-08
4.63182e-08
4.53747e-08
4.43012e-08
4.30874e-08
4.17288e-08
4.0227e-08
3.85908e-08
3.6831e-08
3.49597e-08
3.2988e-08
3.09243e-08
2.87783e-08
2.65683e-08
2.43271e-08
2.20957e-08
1.99221e-08
1.78921e-08
1.60933e-08
1.45536e-08
1.32921e-08
1.23218e-08
1.16448e-08
1.12554e-08
1.11166e-08
1.1271e-08
1.16754e-08
1.22917e-08
1.31234e-08
1.41281e-08
1.52421e-08
1.64204e-08
1.7661e-08
1.89903e-08
2.04478e-08
2.20914e-08
2.39554e-08
2.60037e-08
2.81857e-08
3.04755e-08
3.28151e-08
3.51151e-08
3.72503e-08
3.91861e-08
4.09192e-08
4.24442e-08
4.37483e-08
4.48251e-08
3.1179e-10
3.23207e-10
3.77395e-10
3.46583e-10
2.37455e-10
1.84961e-10
1.79871e-10
2.10289e-10
3.46829e-10
5.6419e-10
1.42134e-09
3.71464e-09
1.98676e-11
4.02102e-11
1.12387e-10
3.52465e-10
2.96981e-09
8.64287e-10
8.33825e-10
9.14436e-10
9.91225e-10
1.15562e-09
1.47475e-09
2.37733e-09
3.56158e-09
4.76443e-09
6.26787e-09
7.87802e-09
9.71775e-09
1.18444e-08
1.43555e-08
1.73944e-08
2.10927e-08
2.5522e-08
3.01827e-08
3.45484e-08
3.81359e-08
4.09406e-08
4.31316e-08
4.4807e-08
4.60672e-08
4.70022e-08
4.76897e-08
4.81992e-08
4.85882e-08
4.8903e-08
4.91944e-08
4.94783e-08
4.97946e-08
5.01712e-08
5.05961e-08
5.1034e-08
5.14396e-08
5.17968e-08
5.20941e-08
5.23126e-08
5.24657e-08
5.26309e-08
5.28344e-08
5.30848e-08
5.33697e-08
5.36695e-08
5.39697e-08
5.42726e-08
5.45537e-08
5.47884e-08
5.49648e-08
5.50854e-08
5.51627e-08
5.52064e-08
5.52208e-08
5.52107e-08
5.51668e-08
5.50864e-08
5.49769e-08
5.48494e-08
5.47218e-08
5.46121e-08
5.4533e-08
5.44954e-08
5.45013e-08
5.45632e-08
5.46885e-08
5.48584e-08
5.50513e-08
5.52509e-08
5.54447e-08
5.56228e-08
5.5773e-08
5.58839e-08
5.59476e-08
5.5961e-08
5.5927e-08
5.58335e-08
5.56875e-08
5.55008e-08
5.52864e-08
5.50598e-08
5.48328e-08
5.46059e-08
5.43673e-08
5.4099e-08
5.37825e-08
5.34028e-08
5.29491e-08
5.24134e-08
5.17894e-08
5.10767e-08
5.02855e-08
4.94398e-08
4.85713e-08
4.7704e-08
4.68409e-08
4.59707e-08
4.50726e-08
4.41186e-08
4.30754e-08
4.19085e-08
4.05862e-08
3.90865e-08
3.73978e-08
3.55193e-08
3.34575e-08
3.12302e-08
2.88615e-08
2.63774e-08
2.38026e-08
2.11576e-08
1.8469e-08
1.57841e-08
1.31719e-08
1.08499e-08
8.94328e-09
7.41336e-09
6.13641e-09
5.10316e-09
4.2994e-09
3.71092e-09
3.32109e-09
3.11765e-09
3.08667e-09
3.29555e-09
3.7397e-09
4.42205e-09
5.43158e-09
6.5972e-09
7.69714e-09
8.66711e-09
9.50349e-09
1.02308e-08
1.09134e-08
1.1722e-08
1.27986e-08
1.42079e-08
1.59439e-08
1.7973e-08