/*--------------------------------*- C++ -*----------------------------------*\
| =========                 |                                                 |
| \\      /  F ield         | OpenFOAM: The Open Source CFD Toolbox           |
|  \\    /   O peration     | Version:  v1912                                 |
|   \\  /    A nd           | Website:  www.openfoam.com                      |
|    \\/     M anipulation  |                                                 |
\*---------------------------------------------------------------------------*/
FoamFile
{
    version     2.0;
    format      ascii;
    class       volScalarField;
    location    "70";
    object      nut;
}
// * * * * * * * * * * * * * * * * * * * * * * * * * * * * * * * * * * * * * //

dimensions      [0 2 -1 0 0 0 0];


internalField   nonuniform List<scalar> 
14268
(
5.4511e-05
5.45192e-05
5.45862e-05
5.46445e-05
5.47228e-05
5.4843e-05
5.49978e-05
5.51863e-05
5.54657e-05
5.57941e-05
5.62293e-05
5.67479e-05
5.73639e-05
5.80659e-05
5.88367e-05
5.96543e-05
6.05085e-05
6.13941e-05
6.2243e-05
6.30141e-05
6.36833e-05
6.42415e-05
6.46953e-05
6.506e-05
6.53544e-05
6.55962e-05
6.58007e-05
6.59797e-05
6.61417e-05
6.62928e-05
6.64368e-05
6.65759e-05
6.67118e-05
6.68453e-05
6.69768e-05
6.71064e-05
6.72343e-05
6.73603e-05
6.74846e-05
6.76067e-05
6.7726e-05
6.78422e-05
6.79552e-05
6.80656e-05
6.81728e-05
6.82771e-05
6.83804e-05
6.84827e-05
6.85836e-05
6.8682e-05
6.87763e-05
6.88647e-05
6.89447e-05
6.90142e-05
6.90713e-05
6.91144e-05
6.91427e-05
6.91562e-05
6.91563e-05
6.91435e-05
6.91186e-05
6.90838e-05
6.904e-05
6.89876e-05
6.89266e-05
6.88572e-05
6.87792e-05
6.86932e-05
6.86002e-05
6.85013e-05
6.83977e-05
6.82906e-05
6.81804e-05
6.80675e-05
6.79524e-05
6.78365e-05
6.7722e-05
6.76099e-05
6.75017e-05
6.7399e-05
6.73027e-05
6.72134e-05
6.71322e-05
6.70587e-05
6.6992e-05
6.69306e-05
6.68731e-05
6.68172e-05
6.6761e-05
6.67032e-05
6.66437e-05
6.65857e-05
6.65316e-05
6.64799e-05
6.64315e-05
6.63882e-05
6.63499e-05
6.63146e-05
6.62822e-05
6.62506e-05
6.62237e-05
6.62022e-05
6.61834e-05
6.61656e-05
6.61493e-05
6.61355e-05
6.61235e-05
6.61118e-05
6.61016e-05
6.60935e-05
6.60865e-05
6.60792e-05
6.6072e-05
6.60666e-05
6.60625e-05
6.60575e-05
6.60494e-05
6.60436e-05
6.60436e-05
6.60503e-05
6.60627e-05
6.60764e-05
6.60935e-05
6.61168e-05
6.61447e-05
6.61762e-05
6.62108e-05
6.62474e-05
6.62827e-05
6.63161e-05
6.63474e-05
6.63766e-05
6.64036e-05
6.64283e-05
6.64511e-05
6.64724e-05
6.64926e-05
6.6512e-05
6.65311e-05
6.65503e-05
6.65704e-05
6.65914e-05
6.66146e-05
6.66504e-05
6.67e-05
6.67615e-05
6.68332e-05
6.69135e-05
6.70017e-05
6.70975e-05
6.72009e-05
6.73116e-05
6.74294e-05
6.75547e-05
6.76873e-05
6.78267e-05
6.79718e-05
6.81186e-05
6.82644e-05
6.84082e-05
6.8549e-05
6.86933e-05
6.88256e-05
6.89486e-05
3.24487e-08
3.29378e-08
3.32772e-08
3.43105e-08
3.59071e-08
3.8762e-08
4.28809e-08
4.92548e-08
5.85035e-08
7.23222e-08
9.28787e-08
1.24122e-07
1.6805e-07
2.25269e-07
2.95702e-07
3.77957e-07
4.69351e-07
5.66469e-07
6.66291e-07
7.65223e-07
8.59508e-07
9.46182e-07
1.02353e-06
1.09105e-06
1.14921e-06
1.19912e-06
1.24226e-06
1.28029e-06
1.31478e-06
1.34715e-06
1.37858e-06
1.40993e-06
1.44187e-06
1.47488e-06
1.50927e-06
1.54512e-06
1.58232e-06
1.6208e-06
1.66051e-06
1.70145e-06
1.74364e-06
1.78725e-06
1.83252e-06
1.87978e-06
1.92936e-06
1.98157e-06
2.0369e-06
2.09567e-06
2.15819e-06
2.2247e-06
2.29508e-06
2.36894e-06
2.44575e-06
2.52479e-06
2.60521e-06
2.68617e-06
2.76674e-06
2.84601e-06
2.92305e-06
2.99711e-06
3.06744e-06
3.13367e-06
3.19567e-06
3.25323e-06
3.30592e-06
3.35335e-06
3.39535e-06
3.43196e-06
3.46328e-06
3.48946e-06
3.51074e-06
3.52749e-06
3.54028e-06
3.54981e-06
3.55704e-06
3.56293e-06
3.56879e-06
3.57585e-06
3.58564e-06
3.59995e-06
3.61997e-06
3.6466e-06
3.68036e-06
3.72119e-06
3.76827e-06
3.8199e-06
3.87337e-06
3.92521e-06
3.97254e-06
4.01233e-06
4.04204e-06
4.06017e-06
4.06647e-06
4.06116e-06
4.04292e-06
4.01269e-06
3.9725e-06
3.92356e-06
3.86652e-06
3.80167e-06
3.72924e-06
3.64957e-06
3.56312e-06
3.47055e-06
3.373e-06
3.27214e-06
3.16985e-06
3.06777e-06
2.96762e-06
2.87095e-06
2.77854e-06
2.69049e-06
2.60672e-06
2.52682e-06
2.44998e-06
2.37524e-06
2.30176e-06
2.22912e-06
2.15738e-06
2.08678e-06
2.01752e-06
1.94992e-06
1.88464e-06
1.82238e-06
1.76339e-06
1.70787e-06
1.65589e-06
1.60743e-06
1.56238e-06
1.52063e-06
1.48207e-06
1.4466e-06
1.41423e-06
1.38506e-06
1.35928e-06
1.33712e-06
1.3188e-06
1.30446e-06
1.29424e-06
1.28814e-06
1.28597e-06
1.28774e-06
1.29329e-06
1.30102e-06
1.31048e-06
1.32155e-06
1.3341e-06
1.34805e-06
1.36339e-06
1.38017e-06
1.39849e-06
1.41844e-06
1.44012e-06
1.46359e-06
1.48896e-06
1.51635e-06
1.54573e-06
1.57673e-06
1.60887e-06
1.64172e-06
1.67504e-06
1.70824e-06
1.74048e-06
1.77188e-06
5.47923e-09
5.97808e-09
6.33865e-09
6.85807e-09
7.47408e-09
8.34353e-09
9.4863e-09
1.11288e-08
1.34406e-08
1.68364e-08
2.18748e-08
2.95479e-08
4.05597e-08
5.54114e-08
7.45252e-08
9.80484e-08
1.25992e-07
1.58429e-07
1.95674e-07
2.35907e-07
2.74905e-07
3.10689e-07
3.42092e-07
3.68747e-07
3.90872e-07
4.0899e-07
4.23758e-07
4.35878e-07
4.46034e-07
4.54836e-07
4.62798e-07
4.70323e-07
4.77689e-07
4.85098e-07
4.92707e-07
5.00564e-07
5.08668e-07
5.17026e-07
5.25645e-07
5.34525e-07
5.43681e-07
5.53141e-07
5.62958e-07
5.73198e-07
5.83942e-07
5.95254e-07
6.07284e-07
6.20137e-07
6.33874e-07
6.48487e-07
6.63966e-07
6.80206e-07
6.97051e-07
7.14369e-07
7.31976e-07
7.49642e-07
7.67091e-07
7.84241e-07
8.00844e-07
8.1677e-07
8.31917e-07
8.46196e-07
8.59539e-07
8.71878e-07
8.8316e-07
8.93357e-07
9.02472e-07
9.10527e-07
9.1755e-07
9.23576e-07
9.28654e-07
9.32858e-07
9.3629e-07
9.39093e-07
9.41446e-07
9.4357e-07
9.457e-07
9.48118e-07
9.51158e-07
9.55129e-07
9.603e-07
9.66873e-07
9.74949e-07
9.84498e-07
9.95331e-07
1.00709e-06
1.01922e-06
1.03099e-06
1.04181e-06
1.05106e-06
1.05821e-06
1.06289e-06
1.06474e-06
1.06389e-06
1.05998e-06
1.0532e-06
1.04407e-06
1.03288e-06
1.01976e-06
1.00477e-06
9.8795e-07
9.69347e-07
9.4906e-07
9.27263e-07
9.04254e-07
8.80449e-07
8.56302e-07
8.32243e-07
8.08702e-07
7.85999e-07
7.64327e-07
7.43759e-07
7.24269e-07
7.0574e-07
6.8798e-07
6.70777e-07
6.53948e-07
6.37391e-07
6.21075e-07
6.0505e-07
5.89446e-07
5.74366e-07
5.5998e-07
5.46451e-07
5.33828e-07
5.22136e-07
5.11373e-07
5.01512e-07
4.92511e-07
4.8432e-07
4.76891e-07
4.70185e-07
4.64176e-07
4.58861e-07
4.5425e-07
4.50361e-07
4.47212e-07
4.44813e-07
4.43163e-07
4.42243e-07
4.42028e-07
4.42518e-07
4.43654e-07
4.45201e-07
4.47097e-07
4.49319e-07
4.51848e-07
4.54674e-07
4.57802e-07
4.61254e-07
4.6506e-07
4.69251e-07
4.7385e-07
4.78881e-07
4.84363e-07
4.90305e-07
4.96615e-07
5.03194e-07
5.09914e-07
5.16724e-07
5.23629e-07
5.30531e-07
5.37267e-07
5.43905e-07
3.12231e-09
3.46373e-09
3.71075e-09
4.04059e-09
4.42735e-09
4.95586e-09
5.6499e-09
6.63731e-09
8.04054e-09
1.01138e-08
1.32228e-08
1.80022e-08
2.49658e-08
3.4529e-08
4.70906e-08
6.28991e-08
8.2119e-08
1.04905e-07
1.31503e-07
1.61692e-07
1.91582e-07
2.18943e-07
2.42654e-07
2.62338e-07
2.78181e-07
2.90644e-07
3.00274e-07
3.07626e-07
3.13219e-07
3.17513e-07
3.20901e-07
3.23698e-07
3.26147e-07
3.28428e-07
3.30653e-07
3.32902e-07
3.35206e-07
3.37584e-07
3.40051e-07
3.42615e-07
3.45287e-07
3.4808e-07
3.51014e-07
3.54111e-07
3.57406e-07
3.60918e-07
3.64693e-07
3.68757e-07
3.73164e-07
3.77944e-07
3.83093e-07
3.8858e-07
3.94346e-07
4.00343e-07
4.06511e-07
4.12767e-07
4.19026e-07
4.25214e-07
4.31257e-07
4.37086e-07
4.42648e-07
4.47905e-07
4.52836e-07
4.57418e-07
4.61626e-07
4.65437e-07
4.68835e-07
4.7182e-07
4.744e-07
4.76593e-07
4.78428e-07
4.79935e-07
4.81141e-07
4.82103e-07
4.82892e-07
4.83594e-07
4.84299e-07
4.85124e-07
4.86195e-07
4.87635e-07
4.8955e-07
4.92014e-07
4.95067e-07
4.98723e-07
5.02896e-07
5.07438e-07
5.12136e-07
5.16703e-07
5.20894e-07
5.24468e-07
5.27211e-07
5.28982e-07
5.2962e-07
5.29168e-07
5.27503e-07
5.24707e-07
5.20993e-07
5.16475e-07
5.11216e-07
5.05246e-07
4.98584e-07
4.91255e-07
4.83308e-07
4.74825e-07
4.65941e-07
4.56825e-07
4.47667e-07
4.38653e-07
4.29926e-07
4.21602e-07
4.13751e-07
4.064e-07
3.99524e-07
3.9307e-07
3.86965e-07
3.81134e-07
3.75512e-07
3.7006e-07
3.64768e-07
3.59706e-07
3.54911e-07
3.5037e-07
3.46145e-07
3.42293e-07
3.38814e-07
3.35697e-07
3.32923e-07
3.3047e-07
3.28311e-07
3.2642e-07
3.24771e-07
3.23341e-07
3.22112e-07
3.21067e-07
3.20196e-07
3.1949e-07
3.18945e-07
3.18553e-07
3.18305e-07
3.18183e-07
3.18198e-07
3.18334e-07
3.18582e-07
3.18913e-07
3.19328e-07
3.19832e-07
3.2042e-07
3.211e-07
3.21886e-07
3.22793e-07
3.23828e-07
3.24985e-07
3.26247e-07
3.27625e-07
3.29129e-07
3.30768e-07
3.32521e-07
3.34326e-07
3.36141e-07
3.37973e-07
3.39854e-07
3.41778e-07
3.43655e-07
3.45516e-07
2.77355e-09
3.08871e-09
3.31668e-09
3.61535e-09
3.96414e-09
4.43563e-09
5.05342e-09
5.9273e-09
7.16972e-09
9.00288e-09
1.17532e-08
1.59824e-08
2.21738e-08
3.07065e-08
4.19581e-08
5.61823e-08
7.35635e-08
9.42713e-08
1.18515e-07
1.46332e-07
1.74247e-07
1.99923e-07
2.22205e-07
2.40631e-07
2.55313e-07
2.66679e-07
2.75261e-07
2.81598e-07
2.86177e-07
2.89421e-07
2.91682e-07
2.93251e-07
2.94358e-07
2.95183e-07
2.95859e-07
2.96463e-07
2.9705e-07
2.97648e-07
2.98271e-07
2.9893e-07
2.99633e-07
3.00385e-07
3.01196e-07
3.02074e-07
3.03034e-07
3.04087e-07
3.05247e-07
3.06529e-07
3.0797e-07
3.096e-07
3.1142e-07
3.13421e-07
3.1559e-07
3.17899e-07
3.20325e-07
3.22832e-07
3.2538e-07
3.27933e-07
3.30459e-07
3.3292e-07
3.35286e-07
3.37534e-07
3.3965e-07
3.41617e-07
3.43417e-07
3.45035e-07
3.46456e-07
3.47678e-07
3.48708e-07
3.4954e-07
3.50191e-07
3.50681e-07
3.5103e-07
3.51262e-07
3.51406e-07
3.51505e-07
3.51603e-07
3.5176e-07
3.5204e-07
3.52503e-07
3.53203e-07
3.54183e-07
3.55462e-07
3.57033e-07
3.58865e-07
3.6088e-07
3.62981e-07
3.65033e-07
3.66907e-07
3.68484e-07
3.6965e-07
3.70353e-07
3.70556e-07
3.70285e-07
3.69466e-07
3.68144e-07
3.66423e-07
3.64358e-07
3.61981e-07
3.59309e-07
3.56355e-07
3.53132e-07
3.49667e-07
3.46003e-07
3.42209e-07
3.38363e-07
3.34554e-07
3.30852e-07
3.27319e-07
3.24006e-07
3.20938e-07
3.18119e-07
3.15532e-07
3.13151e-07
3.1094e-07
3.08868e-07
3.06912e-07
3.05054e-07
3.03285e-07
3.01647e-07
3.00169e-07
2.98815e-07
2.97626e-07
2.96634e-07
2.95818e-07
2.95155e-07
2.94631e-07
2.94234e-07
2.93945e-07
2.93748e-07
2.93633e-07
2.93587e-07
2.93595e-07
2.93645e-07
2.93729e-07
2.93835e-07
2.9395e-07
2.94067e-07
2.94175e-07
2.94263e-07
2.94331e-07
2.94382e-07
2.94411e-07
2.94443e-07
2.94496e-07
2.9458e-07
2.94699e-07
2.94858e-07
2.95071e-07
2.95333e-07
2.95627e-07
2.95915e-07
2.962e-07
2.96494e-07
2.96822e-07
2.97218e-07
2.97693e-07
2.98175e-07
2.98629e-07
2.99071e-07
2.99536e-07
3.00051e-07
3.00538e-07
3.01015e-07
2.70518e-09
3.01418e-09
3.23738e-09
3.52797e-09
3.86614e-09
4.32121e-09
4.91551e-09
5.75311e-09
6.94089e-09
8.68895e-09
1.13059e-08
1.5322e-08
2.12202e-08
2.93593e-08
4.01022e-08
5.36966e-08
7.03341e-08
9.01966e-08
1.13466e-07
1.40365e-07
1.67879e-07
1.93423e-07
2.15781e-07
2.34372e-07
2.49215e-07
2.60689e-07
2.69323e-07
2.7566e-07
2.80192e-07
2.83334e-07
2.85427e-07
2.86748e-07
2.87528e-07
2.8799e-07
2.88226e-07
2.88326e-07
2.8839e-07
2.88436e-07
2.88481e-07
2.88538e-07
2.8861e-07
2.88699e-07
2.8881e-07
2.88945e-07
2.89111e-07
2.89318e-07
2.89572e-07
2.89881e-07
2.90269e-07
2.90771e-07
2.91388e-07
2.92118e-07
2.92959e-07
2.939e-07
2.94925e-07
2.96015e-07
2.97152e-07
2.98312e-07
2.9948e-07
3.00628e-07
3.01742e-07
3.02808e-07
3.03812e-07
3.04743e-07
3.05586e-07
3.06326e-07
3.06956e-07
3.07466e-07
3.07851e-07
3.08118e-07
3.08278e-07
3.08342e-07
3.08321e-07
3.0823e-07
3.08086e-07
3.07916e-07
3.07745e-07
3.07611e-07
3.07551e-07
3.07601e-07
3.07793e-07
3.08152e-07
3.08689e-07
3.09401e-07
3.10267e-07
3.11244e-07
3.12274e-07
3.13279e-07
3.14188e-07
3.14926e-07
3.1543e-07
3.15702e-07
3.15739e-07
3.15549e-07
3.15091e-07
3.14398e-07
3.1352e-07
3.12485e-07
3.1131e-07
3.10008e-07
3.08587e-07
3.07053e-07
3.05422e-07
3.03721e-07
3.01982e-07
3.00247e-07
2.98556e-07
2.9694e-07
2.95428e-07
2.94042e-07
2.92796e-07
2.91683e-07
2.90691e-07
2.89805e-07
2.89008e-07
2.88283e-07
2.87621e-07
2.87015e-07
2.86461e-07
2.86003e-07
2.85655e-07
2.85383e-07
2.8521e-07
2.85162e-07
2.85217e-07
2.85353e-07
2.85552e-07
2.85807e-07
2.86107e-07
2.86437e-07
2.86792e-07
2.87163e-07
2.87543e-07
2.87923e-07
2.88293e-07
2.88644e-07
2.88965e-07
2.89244e-07
2.8947e-07
2.89631e-07
2.89731e-07
2.89776e-07
2.89761e-07
2.89729e-07
2.89709e-07
2.89704e-07
2.89721e-07
2.8976e-07
2.89812e-07
2.89858e-07
2.89878e-07
2.89855e-07
2.89821e-07
2.89805e-07
2.89821e-07
2.89889e-07
2.90001e-07
2.90115e-07
2.90201e-07
2.90272e-07
2.90352e-07
2.90433e-07
2.90475e-07
2.90492e-07
2.67798e-09
2.98308e-09
3.20305e-09
3.48834e-09
3.81908e-09
4.26266e-09
4.83974e-09
5.6504e-09
6.79591e-09
8.47607e-09
1.09829e-08
1.48198e-08
2.04775e-08
2.82975e-08
3.86353e-08
5.17341e-08
6.77857e-08
8.69802e-08
1.09495e-07
1.35613e-07
1.63062e-07
1.88842e-07
2.11652e-07
2.30788e-07
2.46164e-07
2.5811e-07
2.67139e-07
2.73795e-07
2.78572e-07
2.81884e-07
2.84075e-07
2.85425e-07
2.86186e-07
2.86628e-07
2.86764e-07
2.86755e-07
2.86688e-07
2.86585e-07
2.86466e-07
2.86346e-07
2.86228e-07
2.86112e-07
2.85999e-07
2.85885e-07
2.85776e-07
2.85682e-07
2.85607e-07
2.85561e-07
2.85559e-07
2.85637e-07
2.85798e-07
2.86043e-07
2.86369e-07
2.86773e-07
2.87248e-07
2.87782e-07
2.8836e-07
2.88964e-07
2.8958e-07
2.90192e-07
2.90789e-07
2.91359e-07
2.91893e-07
2.92384e-07
2.92823e-07
2.93196e-07
2.93486e-07
2.93685e-07
2.93791e-07
2.93811e-07
2.93751e-07
2.93622e-07
2.93431e-07
2.9319e-07
2.92912e-07
2.92614e-07
2.92318e-07
2.9205e-07
2.91839e-07
2.9171e-07
2.91687e-07
2.91787e-07
2.92017e-07
2.92375e-07
2.92844e-07
2.93393e-07
2.93977e-07
2.94541e-07
2.95036e-07
2.95413e-07
2.95631e-07
2.95716e-07
2.95683e-07
2.95535e-07
2.95244e-07
2.94834e-07
2.94335e-07
2.93763e-07
2.93124e-07
2.92427e-07
2.91673e-07
2.90866e-07
2.90018e-07
2.8915e-07
2.88274e-07
2.87414e-07
2.86591e-07
2.85822e-07
2.8512e-07
2.84496e-07
2.83954e-07
2.83496e-07
2.83111e-07
2.82788e-07
2.82514e-07
2.82285e-07
2.82096e-07
2.8194e-07
2.81817e-07
2.81767e-07
2.81806e-07
2.81899e-07
2.82067e-07
2.82327e-07
2.82655e-07
2.83032e-07
2.83446e-07
2.83887e-07
2.84346e-07
2.84813e-07
2.85282e-07
2.85748e-07
2.86208e-07
2.86656e-07
2.87085e-07
2.87488e-07
2.87856e-07
2.88179e-07
2.88442e-07
2.88634e-07
2.88761e-07
2.88823e-07
2.88819e-07
2.88793e-07
2.88775e-07
2.88764e-07
2.88763e-07
2.88766e-07
2.88754e-07
2.88712e-07
2.8864e-07
2.88535e-07
2.88429e-07
2.88351e-07
2.88321e-07
2.88355e-07
2.88416e-07
2.88457e-07
2.88466e-07
2.88437e-07
2.884e-07
2.88348e-07
2.88225e-07
2.88101e-07
2.65501e-09
2.95616e-09
3.17283e-09
3.45284e-09
3.77611e-09
4.20819e-09
4.76791e-09
5.55152e-09
6.6545e-09
8.26658e-09
1.06621e-08
1.43154e-08
1.97245e-08
2.72135e-08
3.71301e-08
4.97156e-08
6.51621e-08
8.36666e-08
1.0541e-07
1.30684e-07
1.58056e-07
1.84148e-07
2.07502e-07
2.2729e-07
2.43315e-07
2.55855e-07
2.65404e-07
2.72497e-07
2.77619e-07
2.81184e-07
2.83546e-07
2.85014e-07
2.8586e-07
2.86358e-07
2.8652e-07
2.86514e-07
2.8644e-07
2.86323e-07
2.8618e-07
2.86026e-07
2.85868e-07
2.85702e-07
2.85535e-07
2.85353e-07
2.85165e-07
2.84971e-07
2.84779e-07
2.84605e-07
2.84463e-07
2.84382e-07
2.84364e-07
2.84413e-07
2.84532e-07
2.84718e-07
2.84967e-07
2.85272e-07
2.85621e-07
2.85998e-07
2.8639e-07
2.86784e-07
2.8717e-07
2.87539e-07
2.87881e-07
2.8819e-07
2.88458e-07
2.88673e-07
2.88819e-07
2.88885e-07
2.88866e-07
2.88769e-07
2.88602e-07
2.88376e-07
2.88101e-07
2.87784e-07
2.87432e-07
2.87062e-07
2.86694e-07
2.86353e-07
2.86062e-07
2.85847e-07
2.85727e-07
2.85717e-07
2.85826e-07
2.86048e-07
2.86362e-07
2.86741e-07
2.87148e-07
2.87537e-07
2.87864e-07
2.88088e-07
2.88183e-07
2.88189e-07
2.88128e-07
2.87997e-07
2.87777e-07
2.87494e-07
2.87171e-07
2.86807e-07
2.86402e-07
2.8596e-07
2.85484e-07
2.84984e-07
2.84467e-07
2.83937e-07
2.83404e-07
2.82888e-07
2.82398e-07
2.81951e-07
2.81555e-07
2.81214e-07
2.80933e-07
2.8071e-07
2.80539e-07
2.8041e-07
2.80318e-07
2.80256e-07
2.8022e-07
2.80204e-07
2.80206e-07
2.80272e-07
2.80416e-07
2.80601e-07
2.80848e-07
2.81175e-07
2.81563e-07
2.81996e-07
2.82457e-07
2.82931e-07
2.8341e-07
2.83886e-07
2.84353e-07
2.84809e-07
2.85254e-07
2.85684e-07
2.86099e-07
2.86494e-07
2.86864e-07
2.87197e-07
2.87481e-07
2.87705e-07
2.87868e-07
2.87962e-07
2.87997e-07
2.88005e-07
2.88018e-07
2.88037e-07
2.88054e-07
2.88051e-07
2.8801e-07
2.87934e-07
2.87847e-07
2.87757e-07
2.87683e-07
2.87645e-07
2.87669e-07
2.87766e-07
2.87865e-07
2.87935e-07
2.87959e-07
2.87934e-07
2.87888e-07
2.87811e-07
2.87654e-07
2.87503e-07
2.62835e-09
2.9248e-09
3.13755e-09
3.41144e-09
3.72609e-09
4.14511e-09
4.68524e-09
5.43858e-09
6.49391e-09
8.03014e-09
1.03028e-08
1.37525e-08
1.88812e-08
2.59939e-08
3.54271e-08
4.74243e-08
6.21773e-08
7.98768e-08
1.00694e-07
1.24878e-07
1.51899e-07
1.7825e-07
2.02174e-07
2.22689e-07
2.39474e-07
2.5274e-07
2.62947e-07
2.70605e-07
2.76187e-07
2.80108e-07
2.82734e-07
2.84394e-07
2.85393e-07
2.86006e-07
2.863e-07
2.86391e-07
2.86394e-07
2.86335e-07
2.86226e-07
2.86083e-07
2.85914e-07
2.85718e-07
2.85519e-07
2.85282e-07
2.85049e-07
2.84823e-07
2.84592e-07
2.84366e-07
2.84164e-07
2.84014e-07
2.83924e-07
2.83887e-07
2.8391e-07
2.83995e-07
2.84137e-07
2.84334e-07
2.84572e-07
2.84844e-07
2.85138e-07
2.85446e-07
2.85757e-07
2.86062e-07
2.86348e-07
2.86603e-07
2.86819e-07
2.86982e-07
2.87078e-07
2.87096e-07
2.8703e-07
2.86883e-07
2.86663e-07
2.86385e-07
2.86055e-07
2.8568e-07
2.8527e-07
2.84837e-07
2.84406e-07
2.84003e-07
2.83649e-07
2.83376e-07
2.8321e-07
2.8316e-07
2.83229e-07
2.83409e-07
2.83682e-07
2.84018e-07
2.84375e-07
2.84707e-07
2.84975e-07
2.85142e-07
2.85186e-07
2.8516e-07
2.85088e-07
2.84957e-07
2.8476e-07
2.84525e-07
2.84259e-07
2.83963e-07
2.83641e-07
2.83295e-07
2.82929e-07
2.82546e-07
2.82145e-07
2.81729e-07
2.81304e-07
2.80887e-07
2.80493e-07
2.80134e-07
2.7982e-07
2.79556e-07
2.79341e-07
2.79178e-07
2.7906e-07
2.78978e-07
2.78925e-07
2.78899e-07
2.78893e-07
2.78898e-07
2.78913e-07
2.78982e-07
2.7912e-07
2.79293e-07
2.79521e-07
2.79821e-07
2.8017e-07
2.80549e-07
2.80937e-07
2.81315e-07
2.81673e-07
2.82007e-07
2.8231e-07
2.82583e-07
2.82834e-07
2.83066e-07
2.83289e-07
2.83515e-07
2.83747e-07
2.83988e-07
2.84223e-07
2.84436e-07
2.84626e-07
2.84766e-07
2.84874e-07
2.84977e-07
2.85107e-07
2.85238e-07
2.85363e-07
2.8547e-07
2.85549e-07
2.85619e-07
2.85705e-07
2.85803e-07
2.85925e-07
2.86085e-07
2.86303e-07
2.86571e-07
2.86825e-07
2.87027e-07
2.87145e-07
2.872e-07
2.87215e-07
2.87195e-07
2.87082e-07
2.8697e-07
2.58643e-09
2.87566e-09
3.08259e-09
3.34799e-09
3.65108e-09
4.05322e-09
4.56852e-09
5.28465e-09
6.28206e-09
7.72765e-09
9.8543e-09
1.30635e-08
1.78491e-08
2.44957e-08
3.33221e-08
4.457e-08
5.84228e-08
7.50564e-08
9.46304e-08
1.17314e-07
1.43302e-07
1.69569e-07
1.93829e-07
2.14982e-07
2.32571e-07
2.46708e-07
2.57783e-07
2.66251e-07
2.72551e-07
2.77092e-07
2.80251e-07
2.82368e-07
2.83738e-07
2.84624e-07
2.85203e-07
2.8551e-07
2.85679e-07
2.85751e-07
2.85744e-07
2.85678e-07
2.85563e-07
2.854e-07
2.85223e-07
2.84987e-07
2.84758e-07
2.84532e-07
2.84279e-07
2.84024e-07
2.83794e-07
2.83607e-07
2.8347e-07
2.83393e-07
2.83368e-07
2.83402e-07
2.83478e-07
2.83611e-07
2.83765e-07
2.83956e-07
2.84191e-07
2.84461e-07
2.84754e-07
2.85058e-07
2.85351e-07
2.85614e-07
2.85835e-07
2.85999e-07
2.86091e-07
2.86102e-07
2.86026e-07
2.85863e-07
2.8562e-07
2.85302e-07
2.84922e-07
2.84492e-07
2.84021e-07
2.83522e-07
2.83018e-07
2.82545e-07
2.82134e-07
2.81808e-07
2.81603e-07
2.81535e-07
2.81599e-07
2.81785e-07
2.8207e-07
2.8242e-07
2.82787e-07
2.83123e-07
2.83385e-07
2.83537e-07
2.83562e-07
2.83524e-07
2.83445e-07
2.83302e-07
2.83103e-07
2.82872e-07
2.82609e-07
2.82316e-07
2.82e-07
2.81669e-07
2.81326e-07
2.80965e-07
2.80578e-07
2.80167e-07
2.7974e-07
2.79314e-07
2.78906e-07
2.7853e-07
2.78196e-07
2.77909e-07
2.77672e-07
2.77485e-07
2.77342e-07
2.77227e-07
2.77131e-07
2.7705e-07
2.76976e-07
2.76897e-07
2.76807e-07
2.76735e-07
2.76703e-07
2.7667e-07
2.76656e-07
2.76677e-07
2.76706e-07
2.76713e-07
2.76676e-07
2.76586e-07
2.76435e-07
2.76138e-07
2.75772e-07
2.75327e-07
2.7486e-07
2.7438e-07
2.73922e-07
2.73532e-07
2.73245e-07
2.73111e-07
2.73084e-07
2.73159e-07
2.73341e-07
2.73578e-07
2.73911e-07
2.7433e-07
2.74825e-07
2.7537e-07
2.75948e-07
2.76552e-07
2.77182e-07
2.77841e-07
2.78527e-07
2.7924e-07
2.79974e-07
2.80739e-07
2.81532e-07
2.8234e-07
2.83109e-07
2.83752e-07
2.84243e-07
2.84642e-07
2.84946e-07
2.85203e-07
2.85334e-07
2.85422e-07
2.50221e-09
2.7776e-09
2.9738e-09
3.22498e-09
3.50967e-09
3.88659e-09
4.36627e-09
5.03137e-09
5.95057e-09
7.27656e-09
9.21165e-09
1.21079e-08
1.6423e-08
2.2414e-08
3.03594e-08
4.04756e-08
5.29216e-08
6.78584e-08
8.54579e-08
1.05894e-07
1.29531e-07
1.54737e-07
1.78568e-07
1.99872e-07
2.18077e-07
2.33152e-07
2.45361e-07
2.55057e-07
2.62604e-07
2.68369e-07
2.727e-07
2.75918e-07
2.78297e-07
2.80055e-07
2.81357e-07
2.82341e-07
2.83019e-07
2.83492e-07
2.83797e-07
2.83962e-07
2.84014e-07
2.8397e-07
2.83852e-07
2.8366e-07
2.83476e-07
2.83307e-07
2.83034e-07
2.827e-07
2.82461e-07
2.82321e-07
2.82211e-07
2.82161e-07
2.82157e-07
2.8221e-07
2.82274e-07
2.82418e-07
2.82507e-07
2.8263e-07
2.82853e-07
2.83146e-07
2.83486e-07
2.83848e-07
2.84199e-07
2.84514e-07
2.84776e-07
2.84972e-07
2.85088e-07
2.85113e-07
2.85043e-07
2.84879e-07
2.84627e-07
2.84284e-07
2.83858e-07
2.83367e-07
2.82822e-07
2.82237e-07
2.81641e-07
2.81082e-07
2.80603e-07
2.80223e-07
2.79979e-07
2.79898e-07
2.79973e-07
2.80186e-07
2.80507e-07
2.80894e-07
2.81295e-07
2.81659e-07
2.8194e-07
2.82097e-07
2.8212e-07
2.82081e-07
2.81993e-07
2.81828e-07
2.81608e-07
2.81345e-07
2.81046e-07
2.80722e-07
2.80381e-07
2.80028e-07
2.79664e-07
2.79278e-07
2.78859e-07
2.78399e-07
2.77904e-07
2.77389e-07
2.7687e-07
2.76358e-07
2.75863e-07
2.75393e-07
2.74955e-07
2.74555e-07
2.7419e-07
2.73836e-07
2.7348e-07
2.73112e-07
2.72715e-07
2.72266e-07
2.71747e-07
2.7116e-07
2.70524e-07
2.69795e-07
2.68989e-07
2.68115e-07
2.6714e-07
2.66026e-07
2.64747e-07
2.63283e-07
2.61614e-07
2.59676e-07
2.5754e-07
2.55245e-07
2.52897e-07
2.50585e-07
2.48414e-07
2.46497e-07
2.44915e-07
2.43702e-07
2.42894e-07
2.42515e-07
2.42594e-07
2.43079e-07
2.43943e-07
2.45149e-07
2.4664e-07
2.48341e-07
2.50196e-07
2.52168e-07
2.54224e-07
2.56341e-07
2.58512e-07
2.6073e-07
2.62982e-07
2.65255e-07
2.67533e-07
2.69784e-07
2.71912e-07
2.73789e-07
2.75372e-07
2.76728e-07
2.77939e-07
2.78998e-07
2.79848e-07
2.80531e-07
2.29996e-09
2.54077e-09
2.71036e-09
2.92873e-09
3.17368e-09
3.5001e-09
3.91257e-09
4.48552e-09
5.26698e-09
6.38662e-09
7.99479e-09
1.03618e-08
1.38367e-08
1.86134e-08
2.48911e-08
3.28259e-08
4.25509e-08
5.42378e-08
6.81149e-08
8.44083e-08
1.03412e-07
1.25e-07
1.46506e-07
1.66672e-07
1.84864e-07
2.00832e-07
2.1463e-07
2.26418e-07
2.36413e-07
2.4485e-07
2.51952e-07
2.57915e-07
2.62895e-07
2.67019e-07
2.70383e-07
2.73068e-07
2.75173e-07
2.76774e-07
2.77953e-07
2.78789e-07
2.79327e-07
2.79625e-07
2.7972e-07
2.79711e-07
2.79682e-07
2.79626e-07
2.7948e-07
2.79133e-07
2.7882e-07
2.78877e-07
2.78925e-07
2.79021e-07
2.79169e-07
2.79346e-07
2.795e-07
2.79716e-07
2.79784e-07
2.7991e-07
2.80197e-07
2.80606e-07
2.81104e-07
2.81643e-07
2.82175e-07
2.82657e-07
2.83063e-07
2.83369e-07
2.83572e-07
2.8366e-07
2.83629e-07
2.83484e-07
2.83234e-07
2.8287e-07
2.82398e-07
2.81834e-07
2.81193e-07
2.80491e-07
2.79757e-07
2.79068e-07
2.78488e-07
2.78042e-07
2.77755e-07
2.77671e-07
2.7778e-07
2.78052e-07
2.78444e-07
2.78904e-07
2.79374e-07
2.79801e-07
2.80131e-07
2.80317e-07
2.80357e-07
2.80327e-07
2.80228e-07
2.80036e-07
2.79772e-07
2.79434e-07
2.79047e-07
2.78634e-07
2.78209e-07
2.77773e-07
2.77316e-07
2.7682e-07
2.76265e-07
2.75629e-07
2.74909e-07
2.74111e-07
2.73236e-07
2.72287e-07
2.7127e-07
2.70205e-07
2.69134e-07
2.68083e-07
2.67047e-07
2.66e-07
2.64915e-07
2.63762e-07
2.62501e-07
2.61086e-07
2.59466e-07
2.57604e-07
2.55497e-07
2.53105e-07
2.50434e-07
2.47487e-07
2.44233e-07
2.40642e-07
2.36687e-07
2.32341e-07
2.27584e-07
2.22415e-07
2.16923e-07
2.11244e-07
2.05587e-07
2.0014e-07
1.95091e-07
1.90591e-07
1.86758e-07
1.83719e-07
1.81597e-07
1.80445e-07
1.80279e-07
1.81164e-07
1.82934e-07
1.85472e-07
1.88641e-07
1.92304e-07
1.9634e-07
2.0064e-07
2.05131e-07
2.09763e-07
2.14507e-07
2.19352e-07
2.24305e-07
2.29361e-07
2.34482e-07
2.39576e-07
2.44484e-07
2.49022e-07
2.53096e-07
2.56745e-07
2.60048e-07
2.62974e-07
2.65402e-07
2.67343e-07
1.66761e-09
1.82524e-09
1.92785e-09
2.05859e-09
2.1974e-09
2.37309e-09
2.60954e-09
2.92634e-09
3.30067e-09
3.7355e-09
4.23615e-09
4.93539e-09
6.11939e-09
8.05155e-09
1.10966e-08
1.5563e-08
2.11047e-08
2.70683e-08
3.44132e-08
4.37084e-08
5.51712e-08
6.84668e-08
8.37315e-08
9.96435e-08
1.15739e-07
1.31403e-07
1.46464e-07
1.60959e-07
1.74891e-07
1.88267e-07
2.01008e-07
2.12983e-07
2.23975e-07
2.33762e-07
2.42211e-07
2.49277e-07
2.55015e-07
2.59552e-07
2.63043e-07
2.65655e-07
2.67544e-07
2.68845e-07
2.697e-07
2.70248e-07
2.70656e-07
2.7096e-07
2.71244e-07
2.71247e-07
2.71137e-07
2.71521e-07
2.72037e-07
2.7257e-07
2.73107e-07
2.73595e-07
2.73983e-07
2.74295e-07
2.74416e-07
2.74592e-07
2.7501e-07
2.75641e-07
2.76428e-07
2.77289e-07
2.78164e-07
2.79009e-07
2.79749e-07
2.80319e-07
2.80709e-07
2.80942e-07
2.81018e-07
2.80933e-07
2.80701e-07
2.80319e-07
2.79774e-07
2.79093e-07
2.78297e-07
2.77405e-07
2.76455e-07
2.75552e-07
2.74809e-07
2.74267e-07
2.7394e-07
2.73877e-07
2.74072e-07
2.74468e-07
2.75e-07
2.75601e-07
2.76207e-07
2.76762e-07
2.77205e-07
2.77478e-07
2.77579e-07
2.7758e-07
2.77478e-07
2.77247e-07
2.76861e-07
2.76355e-07
2.75775e-07
2.75141e-07
2.74477e-07
2.73796e-07
2.73086e-07
2.72303e-07
2.71402e-07
2.7034e-07
2.69084e-07
2.67607e-07
2.65876e-07
2.6387e-07
2.61604e-07
2.59148e-07
2.56615e-07
2.54086e-07
2.51565e-07
2.49016e-07
2.46389e-07
2.43618e-07
2.40617e-07
2.37291e-07
2.33539e-07
2.29289e-07
2.24495e-07
2.19137e-07
2.13237e-07
2.06822e-07
1.99908e-07
1.92513e-07
1.84655e-07
1.76347e-07
1.67618e-07
1.58553e-07
1.49327e-07
1.40188e-07
1.31418e-07
1.23225e-07
1.15787e-07
1.09232e-07
1.03689e-07
9.93089e-08
9.62218e-08
9.45067e-08
9.40809e-08
9.51599e-08
9.74453e-08
1.0075e-07
1.04905e-07
1.09814e-07
1.15417e-07
1.21608e-07
1.28288e-07
1.35373e-07
1.4277e-07
1.50392e-07
1.5819e-07
1.66268e-07
1.74686e-07
1.83338e-07
1.92019e-07
2.00447e-07
2.08383e-07
2.15733e-07
2.22484e-07
2.28548e-07
2.33721e-07
2.37896e-07
3.75169e-10
3.52685e-10
3.457e-10
3.48954e-10
3.61224e-10
3.78988e-10
3.97077e-10
4.33299e-10
4.85335e-10
5.71266e-10
6.81023e-10
8.21087e-10
9.74004e-10
1.15753e-09
1.36998e-09
1.60862e-09
1.88551e-09
2.45763e-09
3.16979e-09
4.13263e-09
7.97435e-09
1.2151e-08
1.63881e-08
2.21399e-08
2.92003e-08
3.76043e-08
4.7646e-08
5.92671e-08
7.25801e-08
8.76954e-08
1.04553e-07
1.22939e-07
1.42243e-07
1.61339e-07
1.79325e-07
1.95406e-07
2.0905e-07
2.20242e-07
2.29156e-07
2.36064e-07
2.41311e-07
2.45225e-07
2.48128e-07
2.50256e-07
2.51766e-07
2.52928e-07
2.54122e-07
2.54974e-07
2.56247e-07
2.57599e-07
2.59052e-07
2.60577e-07
2.62008e-07
2.63237e-07
2.64191e-07
2.64885e-07
2.65193e-07
2.65576e-07
2.66258e-07
2.67248e-07
2.6846e-07
2.69786e-07
2.71158e-07
2.72513e-07
2.73757e-07
2.74764e-07
2.75479e-07
2.75927e-07
2.76163e-07
2.76183e-07
2.75981e-07
2.75569e-07
2.74925e-07
2.7406e-07
2.73004e-07
2.71793e-07
2.70502e-07
2.69278e-07
2.68307e-07
2.67638e-07
2.67281e-07
2.67275e-07
2.67617e-07
2.68215e-07
2.68971e-07
2.69787e-07
2.70594e-07
2.71332e-07
2.71952e-07
2.72387e-07
2.72614e-07
2.72687e-07
2.72621e-07
2.72284e-07
2.71694e-07
2.70881e-07
2.69862e-07
2.68703e-07
2.67492e-07
2.66274e-07
2.65024e-07
2.63651e-07
2.62053e-07
2.60135e-07
2.5781e-07
2.54988e-07
2.51575e-07
2.47517e-07
2.42873e-07
2.37842e-07
2.3269e-07
2.27597e-07
2.22589e-07
2.17617e-07
2.12594e-07
2.07399e-07
2.01881e-07
1.95882e-07
1.8926e-07
1.81934e-07
1.73882e-07
1.65145e-07
1.55786e-07
1.45938e-07
1.35742e-07
1.25321e-07
1.14782e-07
1.04213e-07
9.37178e-08
8.34495e-08
7.36232e-08
6.44494e-08
5.60808e-08
4.87069e-08
4.24724e-08
3.73405e-08
3.32664e-08
3.02111e-08
2.81223e-08
2.69461e-08
2.6548e-08
2.70782e-08
2.84134e-08
3.04804e-08
3.33232e-08
3.68603e-08
4.09475e-08
4.54654e-08
5.0411e-08
5.58584e-08
6.19336e-08
6.88535e-08
7.68091e-08
8.57878e-08
9.57136e-08
1.06554e-07
1.18101e-07
1.29944e-07
1.41464e-07
1.52362e-07
1.62479e-07
1.71668e-07
1.79739e-07
1.86489e-07
3.14378e-10
3.10081e-10
3.05319e-10
2.29368e-10
1.21873e-10
8.42929e-11
8.14864e-11
1.18322e-10
2.27519e-10
3.46448e-10
2.86572e-10
1.43505e-10
7.92705e-13
1.21636e-12
2.24884e-12
3.74679e-12
1.6177e-11
5.61769e-11
1.36805e-10
2.48193e-10
3.59293e-10
5.70752e-10
8.18124e-10
1.56444e-09
2.79053e-09
4.43682e-09
7.02344e-09
1.05554e-08
1.54856e-08
2.21263e-08
3.08942e-08
4.24106e-08
5.74892e-08
7.69845e-08
9.98543e-08
1.23948e-07
1.46303e-07
1.6561e-07
1.81749e-07
1.94757e-07
2.0497e-07
2.12843e-07
2.18844e-07
2.23433e-07
2.27014e-07
2.29927e-07
2.32548e-07
2.3492e-07
2.37348e-07
2.40029e-07
2.42891e-07
2.45749e-07
2.48364e-07
2.50639e-07
2.52478e-07
2.53846e-07
2.54656e-07
2.55602e-07
2.5685e-07
2.58449e-07
2.60312e-07
2.62295e-07
2.64299e-07
2.66309e-07
2.6811e-07
2.6957e-07
2.70642e-07
2.71343e-07
2.71738e-07
2.71871e-07
2.71713e-07
2.71281e-07
2.7055e-07
2.69511e-07
2.68205e-07
2.66689e-07
2.65067e-07
2.63547e-07
2.62359e-07
2.61574e-07
2.61199e-07
2.61265e-07
2.6177e-07
2.62582e-07
2.63576e-07
2.64649e-07
2.65676e-07
2.66611e-07
2.67419e-07
2.68005e-07
2.68345e-07
2.68505e-07
2.68463e-07
2.68045e-07
2.67295e-07
2.66201e-07
2.64784e-07
2.63157e-07
2.61461e-07
2.59776e-07
2.58063e-07
2.5619e-07
2.54007e-07
2.51374e-07
2.48162e-07
2.44234e-07
2.39452e-07
2.33751e-07
2.27245e-07
2.20251e-07
2.13159e-07
2.06222e-07
1.99487e-07
1.92888e-07
1.86314e-07
1.79604e-07
1.72567e-07
1.65012e-07
1.56786e-07
1.47817e-07
1.38119e-07
1.2779e-07
1.16958e-07
1.0581e-07
9.45637e-08
8.34012e-08
7.24711e-08
6.18896e-08
5.1788e-08
4.23543e-08
3.38056e-08
2.66555e-08
2.10676e-08
1.67809e-08
1.33784e-08
1.07433e-08
8.7683e-09
7.36444e-09
6.45211e-09
5.97286e-09
5.87333e-09
6.27733e-09
7.18565e-09
8.63318e-09
1.08454e-08
1.35349e-08
1.62904e-08
1.89649e-08
2.15211e-08
2.3999e-08
2.65314e-08
2.95448e-08
3.34727e-08
3.86067e-08
4.50794e-08