/*--------------------------------*- C++ -*----------------------------------*\
| =========                 |                                                 |
| \\      /  F ield         | OpenFOAM: The Open Source CFD Toolbox           |
|  \\    /   O peration     | Version:  v1912                                 |
|   \\  /    A nd           | Website:  www.openfoam.com                      |
|    \\/     M anipulation  |                                                 |
\*---------------------------------------------------------------------------*/
FoamFile
{
    version     2.0;
    format      ascii;
    class       volScalarField;
    location    "70";
    object      p;
}
// * * * * * * * * * * * * * * * * * * * * * * * * * * * * * * * * * * * * * //

dimensions      [1 -1 -2 0 0 0 0];


internalField   nonuniform List<scalar> 
14268
(
109913
108881
107789
106680
105565
104457
103363
102290
101239
100208
99187.3
98202.5
97272.3
96423.9
95644
94940.7
94322.4
93796.6
93369.1
93043.5
92821.5
92703.1
92687.3
92773.1
92960.8
93251.8
93649.6
94158.7
94784.3
95531.1
96402
97397.4
98515.2
99750.4
101094
102534
104056
105645
107285
108962
110662
112372
114074
115782
117945
119896
121820
123755
125711
127688
129681
131684
133688
135681
137652
139589
141481
143318
145091
146791
148412
149949
151398
152759
154029
155210
156303
157309
158232
159076
159845
160544
161179
161756
162283
162767
163218
163644
164054
164454
164850
165247
165647
166051
166458
166866
167268
167659
168027
168364
168658
168901
169097
169226
169273
169237
169116
168908
168610
168223
167743
167171
166505
165748
164902
163973
162973
161914
160793
159607
158359
157053
155694
154284
152825
151316
149754
148137
146460
144712
142944
140685
138878
137042
135238
133456
131704
129986
128312
126689
125126
123631
122213
120884
119656
118541
117549
116692
115977
115406
114981
114697
114559
114543
114644
114850
115149
115530
115983
116500
117071
117690
118347
119035
119742
120461
121179
121887
122576
123236
123861
124442
124971
125452
101039
100028
99006.9
98006
97024.1
96064.2
95127.7
94214.8
93325.2
92456.8
91600.8
90769.3
90019.7
89362.2
88782.4
88286.4
87879.1
87563.7
87341.8
87213.4
87177.7
87233.7
87381
87620.6
87955.3
88389.3
88927.7
89575.9
90337.7
91215
92206.3
93307
94510.4
95807.4
97186.7
98635.9
100143
101695
103285
104904
106546
108209
109888
111562
113601
115506
117389
119280
121183
123095
125009
126917
128809
130677
132512
134303
136044
137727
139345
140894
142368
143763
145077
146310
147461
148530
149519
150431
151269
152036
152738
153380
153968
154509
155009
155478
155922
156351
156772
157188
157602
158017
158432
158845
159253
159650
160032
160389
160715
161000
161236
161417
161549
161615
161602
161510
161335
161078
160735
160304
159786
159178
158482
157700
156835
155894
154886
153822
152700
151520
150282
148991
147647
146253
144808
143311
141760
140153
138486
136749
134994
132755
130966
129151
127370
125613
123886
122194
120546
118948
117410
115939
114546
113241
112038
110946
109979
109145
108451
107902
107495
107228
107104
107101
107212
107426
107732
108118
108575
109094
109667
110286
110944
111632
112339
113057
113773
114480
115166
115825
116448
117027
117553
118033
93016.7
92008
91009.8
90049.1
89120.9
88224.1
87356.4
86515.7
85699.9
84906.7
84127.6
83363.1
82695.5
82124.5
81635.6
81233.4
80921.3
80701
80572.4
80534.1
80584.3
80721.3
80944.7
81255.9
81658.2
82156.8
82757.6
83466.1
84286.3
85219
86261.4
87407.4
88648.8
89975.1
91374
92832.8
94339.6
95884.1
97458.6
99058.4
100681
102325
103990
105658
107626
109504
111364
113233
115110
116992
118870
120736
122580
124395
126171
127901
129576
131193
132744
134226
135634
136965
138218
139392
140487
141503
142443
143309
144106
144835
145504
146117
146680
147200
147685
148142
148579
149005
149426
149845
150264
150683
151101
151516
151922
152314
152686
153030
153338
153602
153814
153970
154074
154114
154075
153957
153759
153479
153115
152666
152130
151508
150799
150006
149133
148187
147175
146105
144978
143794
142556
141267
139927
138538
137099
135608
134062
132460
130799
129067
127317
125090
123308
121502
119731
117984
116266
114585
112947
111359
109830
108369
106985
105688
104493
103410
102451
101625
100940
100399
100001
99742.5
99626.8
99631.1
99749.6
99969.9
100281
100671
101131
101652
102228
102849
103509
104199
104909
105628
106346
107054
107743
108403
109027
109607
110134
110615
85230
84220.2
83234.4
82297.9
81402.9
80545.5
79721.2
78925.4
78154.7
77405.7
76660.2
75950
75338.4
74824.4
74395
74054.5
73805.5
73648.8
73583.3
73606.7
73716.3
73909.8
74186.6
74548.2
74998.2
75542.1
76186.6
76937.7
77799.5
78772.6
79853.5
81035.4
82309.1
83663.2
85084.5
86559.8
88076.8
89625.7
91199.8
92795.3
94411.5
96049.1
97708.4
99373.4
101295
103157
105005
106861
108724
110589
112446
114287
116103
117885
119623
121312
122945
124515
126020
127454
128813
130097
131303
132431
133481
134455
135354
136183
136943
137640
138279
138865
139404
139905
140374
140818
141247
141668
142087
142506
142927
143349
143770
144185
144590
144977
145341
145673
145966
146211
146401
146531
146610
146623
146557
146412
146189
145885
145498
145027
144472
143831
143106
142300
141417
140464
139442
138360
137220
136028
134785
133493
132154
130768
129332
127845
126303
124704
123046
121320
119574
117360
115585
113789
112027
110291
108584
106915
105288
103713
102195
100745
99372.1
98086.7
96901.9
95829.9
94882
94067.9
93394.9
92866.8
92482.4
92236.5
92133.5
92150.2
92279.8
92509.8
92828.5
93225.1
93690.4
94216.3
94795.5
95420.5
96083.6
96776.3
97488.9
98210.8
98931.8
99641.9
100332
100993
101619
102200
102729
103211
77541.8
76530.1
75553.8
74636.1
73766.8
72939.6
72147.3
71383.4
70643
69922.4
69199.3
68528.5
67956.3
67482.5
67095.2
66798.5
66594.4
66483.1
66463
66530.8
66683.2
66917.2
67232.1
67629.1
68112.1
68687
69360.9
70140.8
71031.2
72032.8
73141.6
74350.7
75650.3
77028.3
78470.7
79963.2
81493.2
83050.8
84629.3
86225.8
87840.5
89474.9
91130.5
92792.4
94681.7
96532.1
98371.7
100220
102075
103930
105775
107602
109401
111162
112878
114542
116146
117687
119160
120561
121888
123137
124309
125403
126420
127362
128230
129028
129760
130430
131044
131607
132126
132608
133061
133493
133912
134326
134740
135158
135578
136001
136423
136838
137242
137626
137984
138308
138590
138821
138996
139108
139168
139160
139073
138907
138664
138340
137935
137447
136875
136220
135483
134667
133777
132812
131778
130681
129529
128325
127074
125778
124438
123052
121618
120133
118594
116999
115343
113621
111879
109675
107905
106116
104361
102631
100933
99271.6
97653.7
96086.4
94577.4
93135.2
91768.9
90490.3
89312
88246.7
87305.9
86499.7
85835.6
85317.9
84945.2
84711.1
84621
84649.9
84790.9
85031.4
85358.9
85762.6
86233.6
86764.4
87348.1
87977.4
88644.8
89342.2
90059.3
90785.9
91511.4
92225.6
92919.3
93584.2
94212.4
94797
95328.4
95813.8
69901.1
68887.1
67919.2
67018.6
66172
65370.4
64604.2
63864.4
63144.7
62438.3
61739.1
61097.9
60554.3
60109.6
59753.5
59489.4
59319
59241.9
59256
59357.5
59542.1
59806.5
60149.5
60572.1
61078.3
61674.6
62368.4
63167.5
64077.9
65100.1
66229.9
67460.7
68782.5
70182.3
71645
73155.6
74700.4
76269
77854.8
79455.2
81070.7
82703.8
84356.6
86015.5
87880.1
89722.4
91556.5
93400.3
95251.1
97101
98940.8
100760
102550
104301
106004
107653
109240
110762
112215
113593
114896
116121
117268
118336
119327
120243
121085
121859
122567
123214
123806
124349
124849
125314
125751
126170
126577
126983
127391
127805
128224
128646
129068
129483
129887
130269
130624
130942
131216
131438
131600
131699
131743
131718
131613
131430
131168
130827
130405
129902
129316
128649
127903
127079
126176
125196
124145
123031
121863
120646
119385
118082
116737
115350
113917
112433
110896
109302
107648
105928
104189
101993
100227
98443.8
96693
94968.8
93276.2
91621.3
90010.4
88450.1
86947.7
85511.5
84150.8
82877.1
81703.6
80643.4
79708.4
78909.2
78253.8
77746.8
77386.8
77166.7
77091.1
77134.6
77289.6
77542.6
77880.8
78293.2
78771.2
79307.9
79897.1
80531.8
81204.8
81908
82631.1
83363.7
84094.8
84814.2
85512.6
86181.6
86813.9
87402.3
87937.4
88426.7
62283.5
61266.8
60307.6
59423.7
58598.8
57820.8
57077.1
56356.2
55649.7
54950.4
54274.5
53657.1
53134.7
52711.7
52379.4
52140.5
51995.9
51945.1
51985.8
52113.7
52323.5
52611.1
52975.4
53416.9
53939.4
54550
55256.6
56068
56991.8
58028.9
59174.8
60423.6
61765.4
63185.7
64668.6
66198.1
67759.2
69340.6
70935.6
72541.4
74159.1
75791.8
77442.1
79097.7
80942.1
82778.5
84608.9
86450.3
88299.6
90148.3
91986.8
93804.7
95591.8
97338.7
99036.6
100678
102256
103767
105206
106570
107856
109064
110192
111240
112211
113106
113928
114680
115368
115995
116567
117091
117573
118021
118443
118847
119242
119638
120040
120449
120865
121285
121707
122123
122526
122908
123261
123577
123846
124061
124215
124302
124336
124296
124175
123977
123700
123344
122908
122392
121796
121121
120366
119529
118610
117612
116542
115410
114224
112992
111719
110407
109058
107668
106234
104751
103214
101621
99969
98250.6
96514.4
94324.4
92561.1
90780.5
89032.3
87311.1
85622.4
83972.3
82366.6
80811.7
79314.2
77882.1
76524.7
75253.6
74082.5
73024.9
72093.5
71299.4
70651.4
70154.4
69807.2
69602.7
69543
69602.5
69773.1
70040.3
70390.3
70812.3
71298
71841.4
72436.9
73077.9
73757.7
74468.1
75198.7
75938.8
76677.3
77403.5
78108
78782.8
79420.4
80013.9
80554.1
81048.6
54674.8
53655.5
52705.8
51839.8
51036.9
50281.3
49557.8
48851.4
48151.5
47460.9
46803.8
46205.5
45698.2
45292.1
44979.2
44760.2
44635.4
44604.4
44665.9
44815.3
45045.2
45350.8
45731.9
46187.3
46720.8
47340.7
48054.8
48872.8
49804.8
50852.6
52010.5
53274.7
54635.2
56075.6
57579
59128.7
60707.5
62303.2
63909
65521.6
67142.3
68774.9
70422.8
72074.8
73901.5
75733.2
77560.9
79401.5
81251.4
83101.7
84942.4
86762.8
88552.1
90300.4
91998.8
93638.9
95214.2
96719.9
98151.8
99506.5
100782
101977
103091
104125
105080
105958
106762
107497
108166
108775
109329
109835
110300
110731
111137
111526
111908
112293
112686
113089
113501
113920
114341
114758
115163
115546
115899
116214
116481
116691
116839
116919
116944
116892
116759
116547
116257
115888
115441
114915
114313
113630
112864
112010
111072
110054
108964
107810
106606
105357
104070
102749
101393
99999.4
98564.2
97081.5
95545.6
93952.9
92300.9
90583.4
88849
86663.2
84901.1
83121.7
81373.9
79653.9
77967.1
76320.2
74718.2
73167.2
71673
70243.5
68887.4
67616.8
66445.7
65388.7
64458.7
63668.1
63026.6
62539.6
62205.6
62019.6
61977.3
62054.9
62243.3
62526.7
62890.1
63322.8
63817
64367.7
64970.3
65618.6
66306.2
67025.2
67764.7
68513.9
69261.4
69995.6
70707.6
71389.1
72033.1
72632.7
73178.9
73679.5
47065
46043.9
45105.8
44259.9
43480.2
42746.6
42041.4
41345.1
40648.2
39968.7
39326
38743.4
38244.1
37853.1
37557.4
37354.9
37244.6
37227.2
37304.6
37472.5
37718.9
38038
38432.9
38899.1
39439.4
40064.7
40782.2
41601.8
42537.7
43592.7
44759.5
46036.6
47415.7
48876.3
50400.6
51972.3
53570.7
55182.3
56800.4
58420.9
60045.2
61677.9
63323.2
64970.8
66781
68608.8
70434.5
72275
74127.2
75981.4
77827.1
79653.6
81449.2
83203.4
84907
86550.9
88128.1
89633.6
91063
92413.1
93682.1
94868.9
95973.2
96995.5
97937.6
98801.8
99591.4
100311
100964
101556
102094
102582
103030
103444
103833
104206
104574
104947
105331
105727
106135
106551
106972
107390
107797
108182
108538
108854
109121
109330
109474
109549
109566
109505
109361
109139
108838
108458
108003
107472
106863
106170
105389
104518
103559
102519
101405
100230
99004.2
97737.5
96436.1
95103.4
93740
92342.9
90906.3
89423.5
87887.9
86295.4
84643
82925.8
81192.8
79009.1
77247.1
75466.6
73717.2
71996.3
70309.7
68664.5
67065
65516.7
64024.4
62595.7
61239.1
59966.9
58793.5
57734.4
56803.5
56014.7
55378.9
54901.5
54579.6
54418.8
54394.2
54491.7
54700.1
55001.5
55379.7
55823.8
56326.9
56885.5
57496.1
58152.4
58848.9
59578
60327.9
61087.8
61845.9
62589.8
63310.5
64000.1
64651.6
65258.4
65811.7
66319.4
39446
38425.2
37501.8
36679.8
35925.3
35213.5
34524.7
33833.6
33143.3
32472.6
31839.1
31267
30773.4
30396.2
30118.6
29930.5
29829.4
29817.3
29906
30092.3
30353
30680
31088.3
31563.6
32106.1
32734.5
33452.5
34268.6
35204.5
36264.1
37436.7
38724.6
40123.1
41604.5
43150.1
44746.2
46366.5
47995.3
49627.6
51257.3
52885.6
54518.3
56160.7
57803.1
59597.1
61421.3
63245.1
65086
66941.8
68801.6
70654.9
72490.6
74295.9
76060.1
77773
79424.9
81008.2
82517.5
83948.3
85297.5
86563.6
87745.5
88843.1
89857.1
90789.1
91641.9
92418.9
93124.3
93762.9
94340
94861.4
95333.6
95763.9
96160.3
96531.7
96887.8
97240.1
97600.5
97974.7
98363.2
98765.4
99179
99599.5
100019
100430
100819
101179
101499
101768
101977
102120
102191
102198
102134
101982
101750
101440
101053
100592
100057
99441
98736.1
97938.5
97047.7
96066.7
95002.6
93864.3
92664.5
91416.9
90130.8
88813.2
87468.4
86097
84695.8
83257.7
81775.1
80239.9
78647.3
76994
75276.3
73544.5
71361.1
69597.8
67814.1
66060.7
64336.9
62648.7
61003.9
59405.7
57859.1
56367.5
54938.3
53579.3
52303.3
51124.8
50061.2
49127
48336.6
47704.8
47238.7
46928.4
46802.8
46793.9
46913.6
47144.4
47466
47860
48316.3
48828.7
49395.5
50014.7
50679.9
51386.4
52127.1
52888.7
53661.1
54431.5
55186.4
55917.3
56616
57276
57891
58452.4
58968.3
31809.2
30793.3
29889
29097
28370.2
27679.7
27004.7
26320.5
25639.9
24972.8
24334.5
23770.1
23289.3
22927.5
22668
22494.1
22396.7
22375.6
22470.7
22680.5
22954.6
23280.3
23705.1
24189.8
24728.5
25359.2
26076.1
26882.6
27815.3
28877.3
30053.2
31348.9
32769.2
34272.1
35838.9
37463.1
39107.8
40755.2
42403.9
44044
45676.6
47309.3
48948.2
50584.3
52361.8
54182.3
56003.8
57845.1
59705.7
61572.9
63435.8
65283.6
67102
68879.4
70605.5
72269.1
73862.2
75378.8
76814.1
78165.5
79431.6
80611.5
81705
82713
83637.3
84480.7
85246.9
85940.1
86565.4
87128.1
87634.1
88089.9
88502.8
88881.3
89234.5
89572.5
89908.3
90254.9
90617.8
90997.5
91393.4
91803.8
92224.1
92646.5
93061
93456.2
93821.7
94147.1
94420.7
94632.8
94776
94844.4
94843.6
94776.5
94619.2
94380.4
94063.5
93671.7
93207.7
92667.9
92042.2
91323.9
90509.2
89597.9
88593.4
87503.8
86339
85113.1
83841.6
82534.4
81199.3
79841.4
78461.5
77056.1
75616.9
74134.8
72600.3
71007.7
69353
67634.1
65903.1
63718.6
61952.8
60163.2
58403.4
56674.6
54982.8
53337.5
51739.4
50194
48701.9
47270.8
45907.6
44625.5
43439.3
42367.7
41423.3
40630.8
40004.8
39552.1
39260.1
39164
39177.4
39321.6
39577.3
39920.9
40331.7
40800.6
41322.3
41897.5
42526
43200.6
43918.1
44672
45446.9
46233.5
47018.2
47785.5
48527.8
49236.7
49906.1
50530.6
51100.9
51626.2
24143.8
23142.3
22262.3
21510.5
20814.4
20143.7
19480.8
18811
18143.2
17472.7
16804.2
16249.1
15791.7
15453.7
15211.1
15055.5
14958.7
14897.2
14995.1
15243.8
15532.3
15837.2
16289.4
16786.5
17310.6
17945.7
18662.1
19450.2
20377.6
21440
22617.1
23915.8
25362.8
26888.1
28474.9
30132.2
31804.7
33471.5
35139.4
36791.6
38428.4
40061
41695.7
43324.2
45084.3
46900.6
48719.2
50560.4
52427
54302.9
56177.2
58040
59874.5
61668.4
63411.3
65090
66696.1
68222.9
69665.3
71021.5
72290.1
73470.3
74562
75566.2
76484.6
77320.4
78077.3
78759.7
79372.8
79921.9
80412.9
80852.4
81247.8
81607.8
81941.9
82260.6
82578.9
82911.3
83261.3
83630.1
84018.8
84425.6
84845.6
85271
85691
86093.4
86466.9
86800.2
87080.6
87297.6
87443.1
87510.7
87502.2
87430.2
87271.2
87027.6
86706
86310.9
85844.5
85299.3
84663.7
83931.5
83099.2
82166.5
81137.5
80020.7
78827.6
77573.6
76276.5
74946.5
73592.3
72220.2
70831.2
69421.9
67982
66501.3
64968.1
63375.9
61719.3
59998.4
58267.6
56081.9
54311.8
52513.2
50744.2
49008.3
47311
45664.3
44065.2
42520.6
41027.1
39593.2
38223.8
36933.6
35735.1
34648.7
33693.6
32898.5
32277.5
31839.5
31572.9
31500.2
31545.4
31716.8
31999.3
32367.1
32795.4
33277.1
33808
34391.3
35029.9
35714.4
36443.8
37212.9
38002.5
38805
39606
40387.2
41142.3
41862.5
42541.5
43177.1
43757.2
44293
16432.7
15467.6
14613.8
13921.7
13257.7
12603.4
11956.9
11312.3
10663.6
9984.99
9252.67
8696.52
8294.37
7986.82
7749.91
7629.64
7544.96
7367.15
7470.66
7793.48
8099.42
8341.83
8847.74
9364.83
9852.17
10499.7
11219.5
11974.6
12897.2
13958.1
15135.3
16428.8
17911.4
19459.6
21062.9
22761.2
24465.4
26151.4
27842.2
29508.3
31148.9
32781.3
34410.8
36030.5
37771.4
39583
41397.3
43237.7
45111.7
46997.6
48885
50765.8
52619.2
54432.3
56195.6
57892.5
59514.7
61054.2
62506.1
63869.1
65142.3
66324.8
67416.8
68419
69333.3
70162.9
70911.9
71584.7
72186.5
72722.7
73199.3
73622.4
73999.8
74340.2
74654.8
74959
75259.1
75567.4
75901.8
76260.6
76641.4
77044.2
77464
77892.7
78319.2
78730.6
79114.3
79457.9
79747.6
79971.7
80121.7
80190.3
80173.5
80095.3
79935
79688.9
79363.9
78966.5
78498.8
77948.7
77303.3
76557.3
75707
74752.3
73697.6
72552
71328.7
70044.4
68719.9
67365.5
65990.3
64602.9
63204.2
61791.4
60351.6
58873.5
57342.4
55751.2
54092.3
52368.2
50636.4
48451.1
46674.6
44863
43082
41336.8
39631.4
37983.1
36381.9
34838.3
33342.5
31905.2
30527.8
29226.1
28009.5
26905.7
25936.7
25138.5
24521.8
24098.7
23859.8
23814.7
23897.4
24101.5
24413.4
24806.8
25252.1
25746.6
26285.7
26876.8
27526.5
28221
28963.1
29749.7
30555.2
31375.6
32195.4
32991.7
33760.9
34493.4
35184.6
35830.6
36421.1
36968.4
8644.52
7770.18
6922.56
6337.05
5699.47
5056.42
4436.84
3834.27
3221.51
2544.67
1664.17
1187.51
1056.34
756.697
459.818
380.265
286.655
-224.901
-99.8111
365.289
687.911
777.424
1390.53
1942.77
2347.31
3027.24
3760.64
4455.87
5379.78
6437.03
7615.13
8888.26
10422.5
11993.4
13605.7
15357.5
17097.8
18800.4
20519.9
22202.5
23845.1
25477.9
27100.4
28710.5
30429.3
32235.5
34043.6
35881.9
37765.2
39662.1
41564
43466.2
45341.2
47176.1
48963.5
50681.4
52322.5
53876.9
55339.9
56711.6
57991.1
59177.8
60271.7
61273.5
62185.2
63010.1
63752.4
64416.7
65008.1
65532.3
65994.8
66401.9
66761
67081.9
67378.7
67666.7
67947.4
68229.9
68540.2
68887.8
69261.3
69659.4
70078.6
70510.9
70944.9
71366.9
71763
72119.6
72421.5
72655.1
72811.8
72884.5
72857.1
72774.1
72609.2
72359.8
72032
71633.6
71167.1
70614.3
69959.5
69199.9
68331.7
67354.7
66273.4
65097.5
63842
62525
61171.4
59790.6
58392.1
56988
55578.6
54162.9
52724.1
51250.5
49722.9
48134
46472.3
44744
43008.7
40829.5
39042.6
37213.1
35416.9
33659.9
31943.2
30293.6
28688.4
27147
25648
24207.8
22820.1
21503.8
20264.7
19140.2
18152.6
17349
16733.7
16324.5
16121.7
16108.1
16235.7
16475
16817
17238.9
17702
18209.6
18755.7
19353.5
20015.6
20720.1
21475.3
22282.2
23104.7
23944.8
24786.2
25598.8
26383.8
27129.3
27834.9
28491.7
29092.8
29652.4
3262.58
2528.85
1777.38
1680.21
1300.55
849.379
370.908
-125.201
-652.289
-1234.21
-2066.22
-2503.05
-2526.49
-2767.27
-3043.64
-3123.12
-3431.38
-4242.76
-4438.97
-4294.3
-4258.6
-4285.24
-3603.21
-3054.24
-2772.82
-2045.02
-1288.41
-668.867
269.944
1323.03
2504.61
3746.11
5335.26
6920.18
8528.38
10330.6
12098.4
13807.2
15551.6
17247.1
18887.6
20521.6
22136.9
23741.3
25442.1
27245
29047.1
30883.4
32775.5
34680.3
36592.9
38512.5
40403.7
42254.5
44060.6
45794
47449.5
49015
50486.2
51864.6
53149.2
54339.4
55435.5
56438
57348.7
58171.1
58909.5
59568.6
60153.6
60670
61123.2
61519.3
61865.3
62171.2
62460.1
62731.1
62994.9
63262.4
63554.6
63895.9
64262.2
64657.8
65077.1
65512.5
65952.7
66383.3
66789.6
67156.7
67468.4
67709.9
67872.2
67950.3
67911.5
67827.2
67658.7
67405.6
67075.2
66675.9
66210.2
65658.4
64997.9
64229.4
63348.7
62355.8
61255.5
60057.4
58778.3
57437.2
56063.3
54664
53248.6
51833
50416.3
48999.9
47562.4
46093.1
44568.3
42981.6
41316.7
39583.7
37841
35675.5
33876.5
32030.5
30222
28456.1
26728.6
25079
23470
21932.6
20431.7
18990.6
17594.1
16265.6
15005.7
13861.1
12857.5
12053.9
11440.7
11042.7
10865.9
10870.8
11034.7
11306.1
11674.6
12116.7
12587.8
13102.7
13652.2
14253.7
14925.9
15636.4
16400.4
17224.1
18058.5
18913.4
19771.7
20596
21392.8
22147
22862
23527.7
24136.4
24704.8
1329.76
1079.2
654.051
837.457
677.126
390.503
33.5088
-369.777
-817.291
-1320.55
-1984.48
-2442.76
-2521.03
-2761.18
-3032.11
-3158.69
-3558.3
-4377.45
-4840.36
-5008
-5431.37
-5998.87
-5719.78
-5539.63
-5400.92
-4678.47
-3925.3
-3356.59
-2405.78
-1355.47
-171.035
1048.87
2672.05
4263.46
5866.64
7699.01
9481.67
11192
12951.1
14653.6
16292.1
17927.2
19538
21139.8
22830.5
24631.7
26430.3
28265.4
30162.7
32071.7
33990.1
35919.3
37819.2
39678.5
41495.1
43236.8
44900.1
46471.6
47947.2
49329.2
50616.7
51809
52906.5
53909.5
54819.9
55641.1
56377.6
57034.1
57615.9
58128.3
58576.7
58967
59306.3
59605
59887.8
60150.3
60404.9
60664.7
60949
61283.3
61647.4
62041.9
62461.2
62898.4
63342
63777.4
64189.3
64562.3
64879.4
65125.3
65290.7
65372.4
65326.4
65242.1
65071.8
64816.7
64484.8
64085
63619.4
63068.4
62405.1
61632
60744.8
59743.4
58633.1
57423
56131.3
54777.1
53392.4
51983.1
50558.5
49136.9
47716.2
46299.7
44863.1
43396.5
41873.2
40287.9
38621.2
36885.5
35137.2
32982.3
31175.4
29319.7
27504.5
25733.6
23999.2
22350.1
20739.4
19205
17703.2
16261.7
14859.8
13523.7
12252.5
11100.2
10088.1
9281.62
8665.87
8272.11
8111.74
8130.87
8317.96
8603.24
8981.37
9433.52
9910.96
10431.6
10982.8
11585.6
12263.4
12976.8
13745.5
14578.5
15419.2
16282
17149.8
17980.1
18783.3
19542.1
20262.2
20932.7
21545.4
22118.4
787.895
940.858
655.188
772.882
618.728
341.708
-6.26759
-401.782
-841.746
-1335.3
-1963.35
-2400.56
-2514.37
-2754.77
-3022.31
-3178.05
-3567.8
-4331.66
-4788.66
-5004.33
-5468.13
-6189.99
-6349.14
-6729.68
-7175.52
-6880.33
-6456.51
-5986.56
-5082.69
-4036.36
-2850.03
-1657.42
6.08129
1602.75
3197.58
5064.46
6862.37
8572.45
10348.2
12058.3
13693.5
15330.4
16935.6
18535.7
20215.4
22015
23809.3
25643.1
27546.1
29459.2
31383.6
33323.3
35232
37100.1
38927.8
40678.1
42349.6
43927.3
45407.5
46793.4
48084
49278.5
50377.6
51381.4
52291.6
53111.9
53846.7
54500.8
55079.5
55588.1
56031.8
56416.4
56749.3
57041.7
57316
57570.3
57815.6
58067.8
58345.1
58669.5
59032.3
59425.5
59844.8
60283.7
60730.8
61171.2
61589.1
61968.4
62291.4
62542
62710.7
62797.1
62742.5
62659.2
62486.9
62229.7
61896.3
61496
61030.4
60480.2
59814.2
59036.7
58143.1
57133.2
56012.7
54790.4
53485.9
52118.1
50722.3
49302.8
47868.3
46440.5
45015.5
43599.2
42163.6
40700.3
39178.7
37595.4
35926.7
34188.2
32432.1
30292.7
28475.4
26609.1
24786.6
23010.3
21267.8
19619.6
18007.3
16476.7
14974
13532.1
12125
10783
9498.55
8328.4
7301.89
6500.23
5890.24
5503.46
5363.5
5383.86
5590.09
5894.74
6291.36
6761.15
7239.94
7761.35
8310.99
8914.71
9599.52
10316.5
11089.4
11932.3
12779.3
13650.5
14528.1
15364.7
16174.7
16938
17663.3
18338.6
18955.3
19532.9
672.739
855.073
632.944
711.88
563.215
295.338
-43.8213
-431.495
-863.575
-1346.71
-1937.96
-2361.6
-2506.1
-2747.78
-3013.41
-3194.95
-3585.13
-4292.05
-4743.74
-4988.95
-5436.48
-6112.77
-6321.17
-6748.28
-7394.57
-7567.53
-7824.41
-7960.6
-7558.92
-6608.05
-5527.76
-4372.43
-2662.02
-1060.94
521.488
2428.19
4241.69
5949.06
7743.89
9462.15
11092.7
12732.5
14330.7
15930.2
17597.6
19395.7
21184.8
23017.2
24926.7
26843.6
28774.2
30725.1
32642.9
34519.9
36359.3
38118.4
39798.5
41382.7
42867.5
44257.5
45551.3
46748.2
47849.2
48854
49764.2
50583.6
51316.9
51968.8
52544.5
53049.4
53488.5
53867.5
54194.2
54480.1
54745.8
54991.2
55227.2
55471.4
55740.9
56056.4
56417.2
56808.7
57227.8
57668.4
58119.1
58564.7
58988.9
59374.9
59704.2
59959.9
60132.1
60224.8
60159.5
60078.3
59904.1
59644.6
59309.7
58908.9
58443.1
57893.6
57225.2
56443.4
55543.3
54524.9
53394.2
52159.4
50841.7
49459.8
48052.9
46623
45178.1
43744
42314.4
40898.7
39464.2
38004.5
36484.9
34903.9
33233.2
31491.8
29724.1
27607.4
25776.2
23898
22068.1
20286
18533.8
16887.4
15273.1
13747.1
12244.5
10804.1
9389.59
8033.25
6732.12
5568.26
4550.02
3736.31
3107.38
2722.32
2582.28
2637.62
2886.7
3204.02
3601.92
4062.1
4547.76
5080.72
5639.75
6248.37
6938.69
7655.07
8430.79
9285.67
10139.4
11018.5
11906.7
12749.8
13566.7
14334.1
15064.7
15745.5
16366.1
16948.3
576.631
777.478
606.471
654.745
510.03
250.453
-80.282
-460.187
-884.186
-1356.45
-1915.8
-2326.81
-2496.68
-2740.3
-3005.12
-3207.98
-3595.93
-4255.07
-4700.95
-4971.86
-5413.64
-6044.36
-6283.61
-6696.84
-7305
-7514.61
-7864.2
-8328.48
-8558.4
-8567.2
-8000.92
-6989.13
-5330.73
-3729.33
-2162.56
-209.247
1620.03
3321.63
5138.63
6865.66
8489.54
10133.6
11723.2
13323.5
14977.1
16773.9
18556.9
20387.8
22304.6
24225.1
26161.9
28125.1
30052
31938
33790
35558
37247.1
38837.9
40327.4
41721.6
43018.8
44218.2
45321.2
46327.2
47237.6
48056.3
48788.2
49438
50010.9
50512.4
50947
51320.2
51640.8
51920.6
52177.2
52413.1
52639.6
52875.6
53136.9
53443.9
53802.3
54191.5
54610.2
55052.4
55506.7
55957.9
56388.8
56781.9
57118
57379.2
57555
57650.2
57582.9
57499.7
57323.4
57061.5
56725
56323.8
55857.7
55308.5
54638
53851.9
52945.4
51918.4
50777.4
49529.9
48198.8
46802.1
45384
43943.5
42487.6
41047.1
39612.7
38197.9
36764.6
35309.2
33791.6
32213.4
30540.4
28796.1
27007.8
24931.7
23077.6
21186.2
19348.6
17560.4
15796.6
14152.9
12537
11018.4
9514.43
8070.21
6648.03
5306.9
3994.07
2799.49
1733.81
1242.59
926.808
736.773
654.76
681.309
790.759
949.583
1173.37
1538.72
1980.97
2478.47
2987.61
3563.22
4258.08
4984.23
5775.28
6641.74
7498.73
8385.66
9285.57
10134.5
10958
11729.7
12467.6
13153.2
13777.9
14364.6
496.028
706.276
576.528
600.901
459.087
207.096
-115.567
-487.769
-903.543
-1364.69
-1895.74
-2295.47
-2486.38
-2732.36
-2997.16
-3217.79
-3603.04
-4220.62
-4660.5
-4951.91
-5386.59
-5979.48
-6245.18
-6655.43
-7224.66
-7457.26
-7795.74
-8248.87
-8524.3
-8851.85
-9192.27
-9163.8
-7864.46
-6394.82
-4856.48
-2848.11
-1002.17
689.861
2532.74
4269.22
5883.97
7534.17
9113.12
10716
12354.1
14150
15925.5
17755
19679.9
21603.5
23546.9
25523.3
27459.4
29354.6
31219.9
32996.9
34695.5
36293
37787.3
39185.8
40486.5
41688.6
42793.8
43801.2
44711.9
45530.1
46260.7
46908.6
47478.9
47977
48407.3
48774.9
49089.1
49363.3
49610.5
49836.4
50053.1
50280.4
50533.3
50831.8
51187.5
51573.9
51992
52435.7
52893.7
53350.7
53788.7
54189.3
54532.7
54799.8
54979.4
55072.7
55012.9
54923.6
54745
54480.6
54142.5
53740.8
53274.3
52724.9
52052.6
51262.4
50349.5
49313.8
48162.5
46901.9
45557
44145
42715.6
41264.3
39796.7
38349.8
36910.3
35496.8
34064.7
32614.2
31098.8
29524
27848.4
26101.5
24296.7
22252
20379.4
18473.6
16628.2
14833.4
13056
11418.8
9799.24
8281.41
6777.81
5359.32
3930.31
2543.36
1331.69
795.1
360.312
248.071
201.271
166.569
135.741
118.746
111.34
99.2694
104.63
154.442
329.808
572.377
838.339
1182.08
1791.43
2424.83
3126.88
3978.46
4849.21
5756.21
6664.98
7520.63
8351.84
9127.94
9872
10561.9
11190.4
11781.7
428.04
640.93
544.196
549.95
410.287
165.244
-149.684
-514.268
-921.736
-1371.69
-1877.58
-2267.11
-2475.43
-2723.97
-2989.31
-3224.67
-3606.64
-4188.18
-4621.9
-4929.77
-5357.94
-5918.16
-6204.71
-6609.94
-7146.93
-7399.56
-7740.7
-8168.06
-8440.03
-8786.13
-9205.44
-9599.8
-9607.01
-8777.86
-7439.87
-5488.81
-3626.68
-1947.06
-73.3844
1673.27
3275.76
4934.78
6500.18
8108.16
9728.45
11523.9
13290.4
15118.7
17052.9
18978.9
20929.2
22919.9
24865
26769.5
28649.2
30435.2
32143.7
33748.1
35247.1
36650.1
37954.5
39159.4
40267
41276
42187.2
43004.9
43734.5
44380.6
44948.4
45443.4
45869.5
46231.6
46538.9
46808.4
47045.9
47261.2
47467.8
47686
47930.4
48220.5
48572.8
48955.8
49373.1
49818.2
50280
50742.9
51188.5
51597.1
51948.3
52221.7
52405.3
52497.6
52444.4
52349.9
52168.8
51901.8
51562.1
51160
50693
50143.1
49468.9
48674.8
47755.5
46711
45549.4
44275.3
42916.5
41488.3
40047.7
38585.5
37105.3
35652.1
34206.9
32795.3
31364.3
29919.5
28406.4
26835.8
25157.3
23408
21589
19570.1
17681.6
15759.9
13906.7
12106.4
10312.8
8675.05
7052.21
5573.17
4064.87
2605.73
1326.68
714.999
342.987
257.296
225.794
204.123
178.357
155.178
131.911
114.811
102.587
84.1048
72.1587
57.0483
48.0072
44.4594
47.0915
87.3292
228.764
528.502
928.712
1587.61
2335.94
3137.18
4033.21
4902.51
5748.16
6527.12
7276.01
7970.99
8603.51
9199.62
368.32
578.794
509.116
499.878
361.884
123.455
-183.799
-540.6
-939.439
-1377.86
-1860.51
-2240.42
-2463.59
-2714.86
-2981.13
-3229.08
-3607.25
-4156.28
-4583.54
-4904.88
-5326.51
-5857.64
-6161.3
-6561.7
-7069.76
-7338.8
-7678.88
-8087.61
-8373.62
-8713.9
-9096.63
-9495.76
-9724.39
-9997.58
-9702.52
-8068.08
-6340.57
-4684.56
-2771.91
-1013.02
572.599
2244.51
3792.05
5408.41
7007.69
8803.32
10558.5
12385.9
14331
16258.6
18216.4
20223.5
22177.5
24091.7
25987.4
27782.6
29501.8
31113.6
32617.4
34025.2
35333.7
36541.4
37651.8
38662.7
39574.5
40392
41120.6
41765.1
42330.6
42822.5
43244.5
43600.9
43900.3
44166.4
44393.3
44597
44792.7
45001.4
45236.7
45517.6
45866.2
46245.1
46661.3
47107.6
47573.3
48042.7
48496.4
48913.9
49273.7
49554.2
49742.1
49834.3
49787.2
49688.1
49504.2
49234.5
48893.2
48490.6
48022.9
47472.1
46796
45998
45072.1
44018.4
42846.1
41557.5
40184.1
38738.4
37286.2
35812.6
34318.5
32858.8
31407
29998.2
28568.3
27130.3
25619.5
24054
22372.1
20621.1
18788.3
16792.5
14889.1
12949.6
11089.7
9277.29
7460.57
5864.78
4240.54
2694.73
1414.57
787.569
404.874
315.305
282.936
248.071
222.469
199.056
173.858
150.826
126.978
111.752
100.754
84.016
68.6603
52.3863
40.3395
36.0787
27.5242
23.3817
19.3167
19.554
51.3704
170.278
495.715
941.319
1607.12
2326.09
3069.57
3823.88
4587.12
5291.55
5930.07
6529.62
316.154
520.063
471.912
450.705
314.069
81.9133
-217.754
-566.637
-956.573
-1383.24
-1844.51
-2215.36
-2450.96
-2705
-2972.46
-3230.93
-3604.84
-4124.79
-4545.31
-4877.29
-5292.41
-5797.74
-6114.97
-6510.29
-6992.81
-7275.21
-7614.18
-8006.17
-8299.09
-8638.05
-9011.64
-9391.98
-9620.38
-9997.87
-10268.9
-10079.4
-8866.89
-7426.33
-5563.14
-3789.92
-2226.86
-535.179
988.025
2617.53
4191.52
5988.38
7729.19
9556.4
11514.3
13442.2
15408.3
17434
19396.9
21321.2
23234.6
25039.3
26770.2
28389.7
29898.4
31311.4
32624.1
33834.9
34948.4
35961.5
36874.1
37691.4
38419.2
39062.3
39625.6
40114.6
40532.7
40883.6
41175.9
41436.1
41653
41844.4
42028.5
42227
42452.8
42723
43068.2
43441.6
43856.3
44303.7
44773.4
45249.8
45712.5
46139.7
46508.9
46797.4
46990.3
47083
47041.7
46938.5
46751.6
46479.2
46136.2
45732.9
45264.4
44712.3
44034.2
43232.3
42299.5
41236.2
40053
38749
37360.1
35895.1
34431.3
32945.8
31436
29969.9
28510.5
27105.4
25676.4
24246.6
22738.1
21179.1
19493.2
17741.2
15894.5
13919.8
12002.9
10041.7
8168.13
6368.98
4552.6
2877.9
1446.02
839.438
480.902
387.068
348.909
311.047
276.756
241.29
217.104
194.406
169.414
146.952
124.314
107.711
95.3335
77.9233
65.437
50.7106
40.2613
33.5592
23.8558
18.2078
13.2153
6.78316
4.71917
2.91755
5.40002
39.1404
159.78
474.733
873.394
1372.33
1990.52
2584.51
3171.5
3754.08
271.755