/*--------------------------------*- C++ -*----------------------------------*\
| =========                 |                                                 |
| \\      /  F ield         | OpenFOAM: The Open Source CFD Toolbox           |
|  \\    /   O peration     | Version:  v1912                                 |
|   \\  /    A nd           | Website:  www.openfoam.com                      |
|    \\/     M anipulation  |                                                 |
\*---------------------------------------------------------------------------*/
FoamFile
{
    version     2.0;
    format      ascii;
    class       volScalarField;
    location    "80";
    object      alpha.water;
}
// * * * * * * * * * * * * * * * * * * * * * * * * * * * * * * * * * * * * * //

dimensions      [0 0 0 0 0 0 0];


internalField   nonuniform List<scalar> 
14268
(
1
1
1
1
1
1
1
1
1
1
1
1
1
1
1
1
1
1
1
1
1
1
1
1
1
1
1
1
1
1
1
1
1
1
1
1
1
1
1
1
1
1
1
1
1
1
1
1
1
1
1
1
1
1
1
1
1
1
1
1
1
1
1
1
1
1
1
1
1
1
1
1
1
1
1
1
1
1
1
1
1
1
1
1
1
1
1
1
1
1
1
1
1
1
1
1
1
1
1
1
1
1
1
1
1
1
1
1
1
1
1
1
1
1
1
1
1
1
1
1
1
1
1
1
1
1
1
1
1
1
1
1
1
1
1
1
1
1
1
1
1
1
1
1
1
1
1
1
1
1
1
1
1
1
1
1
1
1
1
1
1
1
1
1
1
1
1
1
1
1
1
1
1
1
1
1
1
1
1
1
1
1
1
1
1
1
1
1
1
1
1
1
1
1
1
1
1
1
1
1
1
1
1
1
1
1
1
1
1
1
1
1
1
1
1
1
1
1
1
1
1
1
1
1
1
1
1
1
1
1
1
1
1
1
1
1
1
1
1
1
1
1
1
1
1
1
1
1
1
1
1
1
1
1
1
1
1
1
1
1
1
1
1
1
1
1
1
1
1
1
1
1
1
1
1
1
1
1
1
1
1
1
1
1
1
1
1
1
1
1
1
1
1
1
1
1
1
1
1
1
1
1
1
1
1
1
1
1
1
1
1
1
1
1
1
1
1
1
1
1
1
1
1
1
1
1
1
1
1
1
1
1
1
1
1
1
1
1
1
1
1
1
1
1
1
1
1
1
1
1
1
1
1
1
1
1
1
1
1
1
1
1
1
1
1
1
1
1
1
1
1
1
1
1
1
1
1
1
1
1
1
1
1
1
1
1
1
1
1
1
1
1
1
1
1
1
1
1
1
1
1
1
1
1
1
1
1
1
1
1
1
1
1
1
1
1
1
1
1
1
1
1
1
1
1
1
1
1
1
1
1
1
1
1
1
1
1
1
1
1
1
1
1
1
1
1
1
1
1
1
1
1
1
1
1
1
1
1
1
1
1
1
1
1
1
1
1
1
1
1
1
1
1
1
1
1
1
1
1
1
1
1
1
1
1
1
1
1
1
1
1
1
1
1
1
1
1
1
1
1
1
1
1
1
1
1
1
1
1
1
1
1
1
1
1
1
1
1
1
1
1
1
1
1
1
1
1
1
1
1
1
1
1
1
1
1
1
1
1
1
1
1
1
1
1
1
1
1
1
1
1
1
1
1
1
1
1
1
1
1
1
1
1
1
1
1
1
1
1
1
1
1
1
1
1
1
1
1
1
1
1
1
1
1
1
1
1
1
1
1
1
1
1
1
1
1
1
1
1
1
1
1
1
1
1
1
1
1
1
1
1
1
1
1
1
1
1
1
1
1
1
1
1
1
1
1
1
1
1
1
1
1
1
1
1
1
1
1
1
1
1
1
1
1
1
1
1
1
1
1
1
1
1
1
1
1
1
1
1
1
1
1
1
1
1
1
1
1
1
1
1
1
1
1
1
1
1
1
1
1
1
1
1
1
1
1
1
1
1
1
1
1
1
1
1
1
1
1
1
1
1
1
1
1
1
1
1
1
1
1
1
1
1
1
1
1
1
1
1
1
1
1
1
1
1
1
1
1
1
1
1
1
1
1
1
1
1
1
1
1
1
1
1
1
1
1
1
1
1
1
1
1
1
1
1
1
1
1
0.999998
0.999996
0.999999
1
1
1
1
1
1
1
1
1
1
1
1
1
1
1
1
1
1
1
1
1
1
1
1
1
1
1
1
1
1
1
1
1
1
1
1
1
1
1
1
1
1
1
1
1
1
1
1
1
1
1
1
1
1
1
1
1
1
1
1
1
1
1
1
1
1
1
1
1
1
1
1
1
1
1
1
1
1
1
1
1
1
1
1
1
1
1
1
1
1
1
1
1
1
1
1
1
1
1
1
1
1
1
1
1
1
1
1
1
1
1
1
1
1
1
1
1
1
1
1
1
1
1
1
1
1
1
1
1
1
0.999998
0.999991
0.99999
0.999999
1
1
1
1
1
1
1
1
1
1
1
1
1
1
1
1
1
1
1
1
1
1
1
1
1
1
1
1
1
1
1
1
1
1
1
1
1
1
1
1
1
1
1
1
1
1
1
1
1
1
1
1
1
1
1
1
1
1
1
1
1
1
1
1
1
1
1
1
1
1
1
1
1
1
1
1
1
1
1
1
1
1
1
1
1
1
1
1
1
1
1
1
1
1
1
1
1
1
1
1
1
1
1
1
1
1
1
1
1
1
1
1
1
1
1
1
1
1
1
1
1
1
1
1
1
1
1
1
1
1
0.999995
0.999981
0.999989
0.999977
0.999997
1
1
1
1
1
1
1
1
1
1
1
1
1
1
1
1
1
1
1
1
1
1
1
1
1
1
1
1
1
1
1
1
1
1
1
1
1
1
1
1
1
1
1
1
1
1
1
1
1
1
1
1
1
1
1
1
1
1
1
1
1
1
1
1
1
1
1
1
1
1
1
1
1
1
1
1
1
1
1
1
1
1
1
1
1
1
1
1
1
1
1
1
1
1
1
1
1
1
1
1
1
1
1
1
1
1
1
1
1
1
1
1
1
1
1
1
1
1
1
1
1
1
1
1
1
1
1
1
1
0.999994
0.999974
0.999966
0.999785
0.999995
1
1
1
1
1
1
1
1
1
1
1
1
1
1
1
1
1
1
1
1
1
1
1
1
1
1
1
1
1
1
1
1
1
1
1
1
1
1
1
1
1
1
1
1
1
1
1
1
1
1
1
1
1
1
1
1
1
1
1
1
1
1
1
1
1
1
1
1
1
1
1
1
1
1
1
1
1
1
1
1
1
1
1
1
1
1
1
1
1
1
1
1
1
1
1
1
1
1
1
1
1
1
1
1
1
1
1
1
1
1
1
1
1
1
1
1
1
1
1
1
1
1
1
1
1
1
1
1
0.999988
0.999989
0.999686
0.993464
0.999592
1
1
1
1
1
1
1
1
1
1
1
1
1
1
1
1
1
1
1
1
1
1
1
1
1
1
1
1
1
1
1
1
1
1
1
1
1
1
1
1
1
1
1
1
1
1
1
1
1
1
1
1
1
1
1
1
1
1
1
1
1
1
1
1
1
1
1
1
1
1
1
1
1
1
1
1
1
1
1
1
1
1
1
1
1
1
1
1
1
1
1
1
1
1
1
1
1
1
1
1
1
1
1
1
1
1
1
1
1
1
1
1
0.999905
1
1
1
1
1
1
1
1
1
1
1
1
1
1
1
0.999998
0.99975
0.996954
0.980939
0.9759
0.999784
1
1
1
1
1
1
1
1
1
1
1
1
1
1
1
1
1
1
1
1
1
1
1
1
1
1
1
1
1
1
1
1
1
1
1
1
1
1
1
1
1
1
1
1
1
1
1
1
1
1
1
1
1
1
1
1
1
1
1
1
1
1
1
1
1
1
1
1
1
1
1
1
1
1
1
1
1
1
1
1
1
1
1
1
1
1
1
1
1
1
1
1
1
1
1
1
1
1
1
1
1
1
1
1
1
1
1
1
1
1
1
0.975144
0.895995
0.974387
1
1
1
1
1
1
1
1
1
1
1
1
1
1
0.999968
0.998242
0.972399
0.890776
0.969644
0.999974
1
1
1
1
1
1
1
1
1
1
1
1
1
1
1
1
1
1
1
1
1
1
1
1
1
1
1
1
1
1
1
1
1
1
1
1
1
1
1
1
1
1
1
1
1
1
1
1
1
1
1
1
1
1
1
1
1
1
1
1
1
1
1
1
1
1
1
1
1
1
1
1
1
1
1
1
1
1
1
1
1
1
1
1
1
1
1
1
1
1
1
1
1
1
1
1
1
1
1
1
1
1
1
1
1
1
1
1
1
1
0.995077
0.819813
0.604965
0.800013
0.989069
1
1
1
1
1
1
1
1
1
1
1
1
1
0.999749
0.993572
0.83694
0.773785
0.982299
0.987625
0.999942
1
1
1
1
1
1
1
1
1
1
1
1
1
1
1
1
1
1
1
1
1
1
1
1
1
1
1
1
1
1
1
1
1
1
1
1
1
1
1
1
1
1
1
1
1
1
1
1
1
1
1
1
1
1
1
1
1
1
1
1
1
1
1
1
1
1
1
1
1
1
1
1
1
1
1
1
1
1
1
1
1
1
1
1
1
1
1
1
1
1
1
1
1
1
1
1
1
1
1
1
1
1
1
1
1
1
1
1
0.999358
0.937435
0.57539
0.553203
0.553125
0.901825
1
1
1
1
1
1
1
1
1
1
1
1
0.999998
0.999611
0.977265
0.713136
0.848475
0.982371
0.755548
0.922965
1
1
1
1
1
1
1
1
1
1
1
1
1
1
1
1
1
1
1
1
1
1
1
1
1
1
1
1
1
1
1
1
1
1
1
1
1
1
1
1
1
1
1
1
1
1
1
1
1
1
1
1
1
1
1
1
1
1
1
1
1
1
1
1
1
1
1
1
1
1
1
1
1
1
1
1
1
1
1
1
1
1
1
1
1
1
1
1
1
1
1
1
1
1
1
1
1
1
1
1
1
1
1
1
1
1
1
0.999992
0.995511
0.811816
0.553258
0.55318
0.553206
0.732235
0.972615
1
1
1
1
1
1
1
1
1
1
1
0.99999
0.999143
0.871824
0.713131
0.873814
0.80017
0.251154
0.528671
0.949284
1
1
1
1
1
1
0.999999
0.999999
0.999999
1
1
1
1
1
1
1
1
1
1
1
1
1
1
1
1
1
1
1
1
1
1
1
1
1
1
1
1
1
1
1
1
1
1
1
1
1
1
1
1
1
1
1
1
1
1
1
1
1
1
1
1
1
1
1
1
1
1
1
1
1
1
1
1
1
1
1
1
1
1
1
1
1
1
1
1
1
1
1
1
1
1
1
1
1
1
1
1
1
1
1
1
1
1
1
1
1
0.99991
0.992202
0.872675
0.749827
0.674909
0.553128
0.580549
0.881092
0.999531
1
1
1
1
1
1
1
1
1
1
0.999978
0.980803
0.716943
0.713126
0.873516
0.326432
0.152013
0.155384
0.775226
0.999749
1
1
1
1
0.999999
0.999998
0.999998
0.999998
1
1
1
1
1
1
1
1
1
1
1
1
1
1
1
1
1
1
1
1
1
1
1
1
1
1
1
1
1
1
1
1
1
1
1
1
1
1
1
1
1
1
1
1
1
1
1
1
1
1
1
1
1
1
1
1
1
1
1
1
1
1
1
1
1
1
1
1
1
1
1
1
1
1
1
1
1
1
1
1
1
1
1
1
1
1
1
1
1
1
1
1
1
1
1
1
0.999999
0.999825
0.983207
0.969437
0.977
0.97923
0.830067
0.581021
0.774351
0.977026
1
1
1
1
1
1
1
1
1
1
0.999949
0.931223
0.733376
0.793892
0.874094
0.24537
0.152088
0.564133
0.756684
0.975189
0.997683
0.980257
0.963382
0.994915
0.999998
0.999998
0.999998
0.999999
1
1
1
1
1
1
1
1
1
1
1
1
1
1
1
1
1
1
1
1
1
1
1
1
1
1
1
1
1
1
1
1
1
1
1
1
1
1
1
1
1
1
1
1
1
1
1
1
1
1
1
1
1
1
1
1
1
1
1
1
1
1
1
1
1
1
1
1
1
1
1
1
1
1
1
1
1
1
1
1
1
1
1
1
1
1
1
1
1
1
1
1
1
1
1
1
0.999996
0.999017
0.992783
0.994051
0.997171
0.997794
0.98194
0.691238
0.688619
0.929286
0.999891
1
1
1
1
1
1
1
1
1
0.999611
0.953512
0.876825
0.924604
0.855755
0.197672
0.236474
0.851317
0.958123
0.977677
0.98193
0.8208
0.584676
0.763085
0.958354
0.999998
1
1
1
1
1
1
1
1
1
1
1
1
1
1
1
1
1
1
1
1
1
1
1
1
1
1
1
1
1
1
1
1
1
1
1
1
1
1
1
1
1
1
1
1
1
1
1
1
1
1
1
1
1
1
1
1
1
1
1
1
1
0.999999
0.999995
0.999993
0.999998
1
1
1
1
1
1
1
1
1
1
1
1
1
1
1
1
1
1
1
1
1
1
1
1
1
1
1
1
1
1
1
1
1
0.999976
0.997469
0.997305
0.998402
0.999586
0.999555
0.992606
0.889958
0.762453
0.880461
0.990942
1
1
1
1
1
1
1
1
0.999998
0.994907
0.981507
0.978485
0.985133
0.776378
0.197006
0.478398
0.92355
0.982033
0.97089
0.937003
0.398912
0.152379
0.213344
0.604239
0.931589
1
1
1
1
1
1
1
1
1
1
1
1
1
1
1
1
1
1
1
1
1
1
1
1
1
1
1
1
1
1
1
1
1
1
1
1
1
1
1
1
1
1
1
1
1
1
1
1
1
1
1
1
1
1
1
1
1
1
1
1
1
0.999998
0.999979
0.999854
0.999368
0.998675
0.998816
0.999541
0.999981
1
1
1
1
1
1
1
1
1
1
1
0.999999
1
1
1
1
1
1
1
1
1
1
1
1
1
1
1
1
1
0.999887
0.998358
0.998593
0.999409
0.999922
0.999833
0.99469
0.935087
0.87045
0.909956
0.984131
1
1
1
1
1
0.999999
1
1
0.999972
0.993962
0.994873
0.998143
0.995419
0.664734
0.349462
0.676816
0.95981
0.982488
0.960727
0.753701
0.173155
0.152372
0.152375
0.197408
0.720233
0.994809
1
1
1
1
1
1
1
1
1
1
1
1
1
1
1
0.999991
0.997556
0.956569
0.961665
0.995873
1
1
1
1
1
1
1
1
1
1
1
1
1
1
1
1
1
1
1
1
1
1
1
1
1
1
1
1
1
1
1
1
1
1
1
1
1
1
1
1
0.999998
0.999974
0.999624
0.997391
0.993897
0.993987
0.996668
0.999382
1
1
1
1
1
1
1
1
1
1
0.999998
0.999986
0.999965
0.999988
1
1
1
1
1
1
1
1
1
1
1
1
1
1
0.999999
0.999732
0.998917
0.999186
0.999707
0.999974
0.999897
0.995988
0.938331
0.912506
0.961089
0.994945
1
1
1
1
0.999999
0.999998
0.999999
0.999999
0.999758
0.997063
0.998853
0.999252
0.994049
0.644894
0.615715
0.841081
0.982277
0.982458
0.915244
0.401747
0.152372
0.152378
0.152368
0.152375
0.582702
0.973558
1
1
1
1
1
1
1
1
1
1
1
1
1
1
1
0.999791
0.957564
0.639141
0.668136
0.902437
0.999622
1
1
1
1
1
1
1
1
1
1
1
1
1
1
1
1
1
1
1
1
1
1
1
1
1
1
1
1
1
1
1
1
1
1
1
1
1
1
1
0.999999
0.99998
0.999654
0.99451
0.990849
0.990849
0.991773
0.996373
0.999549
1
1
1
1
1
1
1
1
1
0.999998
0.999977
0.999866
0.999717
0.999824
0.999979
1
1
1
1
1
1
1
1
1
1
1
1
0.999996
0.999779
0.999298
0.999496
0.99984
0.99999
0.999934
0.997169
0.958661
0.913887
0.938867
0.98653
1
1
1
1
0.999999
0.999996
0.999998
0.999997
0.999577
0.999428
0.999787
0.999541
0.957602
0.755544
0.816112
0.94687
0.990444
0.97532
0.789769
0.206365
0.152381
0.327066
0.327785
0.261072
0.539541
0.871571
0.986838
1
1
1
1
1
1
1
1
1
1
1
1
1
0.999987
0.997771
0.721685
0.450437
0.450404
0.608485
0.921889
0.999989
0.999993
0.999993
0.999997
1
1
1
0.999999
0.999996
0.999994
0.999999
1
1
1
1
1
1
1
1
1
1
1
1
1
1
1
1
1
1
1
1
1
1
1
1
1
1
1
1
0.999999
0.999979
0.999793
0.998767
0.994027
0.990849
0.990849
0.991686
0.996368
0.999606
1
1
1
1
1
1
1
1
0.999999
0.999989
0.999877
0.999214
0.998123
0.997691
0.998252
0.999569
1
1
1
1
1
1
1
1
1
1
0.999995
0.999836
0.999545
0.999705
0.999925
0.999997
0.999963
0.998373
0.972361
0.876023
0.876053
0.937005
0.993433
1
1
1
0.999996
0.999977
0.999977
0.999988
0.999883
0.999956
0.999957
0.998916
0.932864
0.884456
0.926196
0.982429
0.990575
0.954866
0.529603
0.152381
0.152376
0.473547
0.773871
0.647982
0.583359
0.667988
0.873984
0.985253
1
1
1
1
1
1
1
1
1
1
1
1
0.999933
0.992243
0.638881
0.518292
0.550224
0.549972
0.71123
0.96488
0.999945
0.999934
0.999949
0.999991
0.999999
0.999996
0.999956
0.998886
0.977451
0.924015
0.942508
1
1
1
1
1
1
1
1
1
1
1
1
1
1
1
1
1
1
1
1
1
1
1
1
1
1
1
0.999999
0.999994
0.999979
0.999894
0.99934
0.996142
0.991279
0.991204
0.99258
0.997862
0.999948
1
1
1
1
1
1
1
1
0.999998
0.999968
0.999407
0.995477
0.991686
0.991668
0.995295
0.999083
1
1
1
1
1
1
1
1
1
0.999995
0.999848
0.999693
0.999829
0.99997
0.999999
0.999984
0.999541
0.991798
0.918945
0.876023
0.895355
0.972651
0.999988
1
0.999998
0.999974
0.999775
0.999649
0.999746
0.99986
0.999957
0.999941
0.996075
0.963908
0.957173
0.973953
0.995263
0.992221
0.798277
0.179475
0.152381
0.152381
0.528253
0.824349
0.759836
0.763285
0.795424
0.793283
0.93129
0.996091
0.999997
1
1
1
1
1
1
1
1
1
0.999999
0.999855
0.955032
0.788095
0.844472
0.943893
0.924841
0.84929
0.910453
0.979915
0.999695
0.999844
0.999958
0.99999
0.999943
0.997897
0.966233
0.691802
0.43866
0.508352
1
1
1
1
1
1
1
1
1
1
1
1
1
1
1
1
1
1
1
1
1
1
1
1
1
1
0.999999
0.999998
0.999998
0.999998
0.999991
0.999937
0.999596
0.998106
0.995951
0.995949
0.99692
0.999263
0.999956
1
1
1
1
1
1
1
1
0.999992
0.999844
0.996554
0.988675
0.98856
0.988841
0.993954
0.998887
1
1
1
1
1
1
1
1
0.999992
0.999846
0.999811
0.999913
0.999991
1
0.999995
0.999874
0.998574
0.987165
0.907585
0.895288
0.950558
0.997133
0.999999
0.999999
0.999956
0.998721
0.996753
0.996434
0.998441
0.999855
0.99989
0.996763
0.985512
0.984376
0.990581
0.998141
0.994858
0.850709
0.333619
0.183526
0.395798
0.799616
0.90157
0.894554
0.937924
0.976507
0.963341
0.935672
0.965751
0.996297
1
1
1
1
1
1
1
1
1
0.999995
0.999755
0.920025
0.817888
0.883312
0.974355
0.980151
0.923423
0.878415
0.886963
0.954645
0.996785
0.999958
0.99995
0.999578
0.996428
0.972964
0.834782
0.415058
0.281303
1
1
1
1
1
1
1
1
1
1
1
1
1
1
1
1
1
1
1
1
1
1
1
1
1
0.999998
0.999998
0.999998
0.999999
1
0.999999
0.999994
0.999965
0.999856
0.999673
0.999475
0.999219
0.999167
0.999645
0.999964
0.999999
1
1
1
1
1
1
0.999998
0.999978
0.999823
0.998139
0.990796
0.988845
0.98885
0.992922
0.998323
0.999996
1
1
1
1
1
1
0.99998
0.999881
0.999899
0.999968
0.999999
1
0.999999
0.999965
0.999647
0.997626
0.985146
0.941342
0.947418
0.986741
0.999991
0.999999
0.999971
0.999576
0.994491
0.993495
0.993998
0.998211
0.999698
0.998792
0.993019
0.992094
0.995749
0.999194
0.996457
0.946129
0.744583
0.753234
0.870065
0.962889
0.96416
0.966119
0.984538
0.997239
0.99438
0.956486
0.954904
0.987121
0.999969
1
1
1
1
1
1
1
1
0.999991
0.999411
0.936494
0.879431
0.920662
0.979115
0.997049
0.982964
0.883435
0.8631
0.877057
0.95575
0.998148
0.99994
0.999779
0.998572
0.99327
0.983737
0.926408
0.59941
0.94304
0.952228
0.961208
0.969601
0.978134
0.987498
0.996021
0.999944
1
1
1
1
1
1
1
1
1
1
1
1
1
1
1
1
1
0.999999
0.999999
1
1
1
1
0.999999
0.999997
0.999992
0.99998
0.999956
0.999921
0.999875
0.999842
0.999901
0.999984
1
1
1
1
1
0.999999
0.999999
0.999999
0.999991
0.999902
0.998938
0.992487
0.988849
0.98885
0.991891
0.997294
0.999879
1
1
1
1
0.999999
0.999975
0.999945
0.999964
0.999992
1
1
1
0.999991
0.999902
0.999166
0.994692
0.979025
0.964537
0.979017
0.996979
0.999996
0.999996
0.999926
0.998817
0.995017
0.994
0.994231
0.996454
0.994698
0.992973
0.995084
0.99837
0.999833
0.998947
0.988901
0.957746
0.957691
0.973352
0.98809
0.99122
0.992859
0.996863
0.999526
0.999245
0.991675
0.966405
0.980738
0.997023
1
1
0.999999
0.999993
0.999984
0.999986
0.999996
0.999999
0.99998
0.997701
0.94041
0.927898
0.961351
0.991995
0.99907
0.997266
0.968413
0.875167
0.854623
0.887893
0.974256
0.999891
0.999783
0.998533
0.981911
0.925995
0.912656
0.763929
0.458903
0.487763
0.518803
0.55195
0.590948
0.643129
0.71092
0.782783
0.845697
0.902767
0.950459
0.982986
0.998219
1
1
1
1
1
1
1
1
1
1
1
0.999999
0.999999
0.999999
1
1
1
1
1
1
0.999999
0.999998
0.999996
0.999992
0.999989
0.999987
0.999984
0.999989
0.999997
1
1
1
0.999999
1
1
1
0.999999
0.999995
0.999939
0.999376
0.994992
0.989773
0.989509
0.991015
0.996075
0.999431
1
1
1
0.999998
0.999987
0.999985
0.999992
0.999999
1
1
1
0.999997
0.999963
0.999599
0.996759
0.988436
0.982719
0.98445
0.994484
0.999835
0.999999
0.999999
0.999939
0.999233
0.997858
0.997268
0.993657
0.993592
0.994483
0.99767
0.999709
0.999992
0.999979
0.999932
0.99968
0.999336
0.999212
0.998809
0.998216
0.998229
0.998991
0.999824
0.999815
0.998306
0.982037
0.980204
0.992716
0.999838
0.999997
0.999981
0.999871
0.999356
0.999446
0.999826
0.999991
0.999919
0.988905
0.949466
0.958646
0.983833
0.997929
0.99907
0.99907
0.996718
0.977001
0.868936
0.841891
0.875947
0.976807
0.997879
0.987196
0.849425
0.704266
0.705266
0.827595
0.027015
0.0312616
0.0366495
0.0435748
0.0535262
0.070472
0.101926
0.157937
0.248574
0.361775
0.489974
0.622285
0.739807
0.825317
0.881061
0.922134
0.950789
0.969333
0.98088
0.988002
0.992437
0.993875
0.993408
0.992523
0.9915
0.989855
0.989938
0.990413
0.991192
0.992585
0.995484
0.999073
0.999999
0.999998
0.999996
0.999993
0.999988
0.999927
0.999505
0.999217
0.999444
0.999918
1
1
1
0.999999
0.999999
1
1
1
1
0.999996
0.999967
0.999715
0.997752
0.993181
0.99161
0.991606
0.995479
0.999095
0.999991
1
0.999999
0.999998
0.999999
1
1
1
1
1
0.999999
0.999982
0.999766
0.997999
0.992604
0.990083
0.991975
0.99681
0.999813
0.999999
0.999999
0.999999
0.999999
0.999905
0.999505
0.997731
0.997449
0.998415
0.999515
0.999987
0.999997
0.999997
0.999997
0.99999
0.999966
0.999878
0.999464
0.998961
0.999048
0.999569
0.999899
0.999904
0.999591
0.993721
0.980811
0.988246
0.997752
0.999992
0.999938
0.998261
0.996067
0.996056
0.99811
0.999807
0.999516
0.979653
0.970495
0.980853
0.99453
0.99907
0.99907
0.99907
0.99907
0.997537
0.971176
0.933662
0.927288
0.826991
0.759789
0.645785
0.641122
0.699293
0.884355
0.98651
0.00072141
0.000774802
0.00095019
0.00118496
0.00147384
0.00195509
0.00301402
0.005588
0.0104569
0.0185729
0.0344281
0.0665206
0.123556
0.210649
0.308996
0.401176
0.480352
0.544324
0.59435
0.633297
0.664548
0.688711
0.706747
0.723727
0.744627
0.766382
0.796105
0.831574
0.861497
0.879898
0.889342
0.889885
0.8734
0.850517
0.832592
0.82044
0.802276
0.779454
0.760423
0.752211
0.757717
0.776489
0.806031
0.840504
0.874346
0.906365
0.936214
0.961946
0.982744
0.996373
0.999999
0.999996
0.999977
0.999922
0.999868
0.999432
0.998025
0.996517
0.995634
0.996839
0.99914
0.999991
1
1
1
1
1
1
1
1
0.999999
0.999989
0.999846
0.998879
0.996757
0.994994
0.995158
0.997513
0.999727
0.999999
0.999999
0.999999
0.999999
0.999999
0.999978
0.99981
0.999824
0.999918
0.999986
0.999997
0.999997
0.999997
0.999997
0.999997
0.999995
0.999956
0.99967
0.99934
0.999431
0.99978
0.999904
0.999904
0.999856
0.998075
0.985002
0.978547
0.98917
0.998675
0.999887
0.999251
0.99677
0.996055
0.9974
0.99902
0.996808
0.984498
0.98486
0.992538
0.998593
0.99907
0.99907
0.99907
0.99907
0.99907
0.998777
0.995165
0.979706
0.909998
0.741258
0.73785
0.819619
0.947898
0.993989
0.993941
1.3554e-05
1.02721e-05
1.25002e-05
2.20667e-05
3.4634e-05
5.09193e-05
8.84505e-05
0.000219497
0.00050841
0.000860702
0.00130707
0.00216963
0.00399986
0.00747097
0.0135416
0.021836
0.0310609
0.040562
0.0496614
0.0580006
0.0655403
0.0737658
0.0873523
0.105039
0.129166
0.155598
0.18645
0.225157
0.267315
0.301267
0.320067
0.320232
0.306941
0.276419
0.23767
0.204939
0.172958
0.146044
0.128235
0.121182
0.124892
0.139932
0.170011
0.219628
0.285151
0.36302
0.448497
0.534757
0.624634
0.71836
0.803535
0.869086
0.922916
0.964389
0.990851
0.999158
0.998899
0.998515
0.99791
0.997628
0.998514
0.999456
0.999956
1
1
1
1
1
1
1
1
0.999993
0.999881
0.999358
0.998917
0.998612
0.998106
0.997938
0.999058
0.999836
0.99995
0.999974
0.999985
0.999993
0.999997
0.999998
0.999998
0.999988
0.999974
0.999967
0.999957
0.999963
0.999976
0.999993
0.999994
0.999962
0.999784
0.999631
0.999642
0.999772
0.999875
0.999904
0.999904
0.999446
0.988731
0.972961
0.973707
0.990674
0.999499
0.99967
0.999216
0.998883
0.999185
0.99836
0.9925
0.991517
0.993153
0.997697
0.998821
0.998821
0.998412
0.998565
0.998876
0.99907
0.99907
0.99907
0.997889
0.979545
0.93395
0.949638
0.984581
0.984674
0.922286
0.746186
1.51256e-08
8.39322e-09
9.33427e-09
3.45283e-08
2.02918e-07
9.19043e-07
2.95801e-06
9.30838e-06
2.69394e-05
6.14861e-05
8.5117e-05
0.000104673
0.000176615
0.000345656
0.000796818
0.00166754
0.00245518
0.00249497
0.00201859
0.00133547
0.000931004
0.000637594
0.000409481
0.000377613
0.000393951
0.000472106
0.000631566
0.00132366
0.00454876
0.00939726
0.0132966
0.0147621
0.0161951
0.0160299
0.0128014
0.00856006
0.00592724
0.00448915
0.0036356
0.00321894
0.00326575
0.00368108
0.00471074
0.0066037
0.0102393
0.017086
0.0284159
0.0447754
0.0694787
0.111025
0.180723
0.282688
0.400823
0.529014
0.661479
0.782881
0.866278
0.923892
0.966643
0.99203
0.998411
0.998898
0.99946
0.999925
1
1
1
1
0.999993
0.99987
0.999946
0.99998
0.999858
0.999623
0.999655
0.999732
0.999714
0.999512
0.999239
0.999223
0.999296
0.999348
0.999422
0.99967
0.999917
0.999926
0.999618
0.999355
0.999473
0.999589
0.999677
0.999794
0.999892
0.999967
0.999989
0.999962
0.999882
0.999876
0.999881
0.999791
0.999772
0.99983
0.99992
0.999811
0.996614
0.973268
0.967609
0.971141
0.989676
0.999325
0.999895
0.999895
0.999892
0.999253
0.997051
0.997216
0.998664
0.998708
0.997041
0.957833
0.955122
0.973219
0.990067
0.998232
0.99907
0.99907
0.99907
0.99907
0.99907
0.99907
0.99727
0.920546
0.531019
0.141051
2.69204e-09
2.50646e-09
2.14985e-09
2.58898e-09
6.62537e-09
2.86308e-08
8.68106e-08
8.96061e-08
1.00909e-07
4.46985e-07
1.65292e-06
1.22336e-05
3.80515e-05
6.82482e-05
5.63935e-05
0.000141516
0.00044309
0.000561107
0.000355123
5.74927e-05
3.59662e-06
2.53895e-06
2.39464e-06
3.10418e-06
7.61636e-06
1.97426e-05
3.73259e-05
5.57959e-05
7.32948e-05
9.20104e-05
0.000117731
0.00016673
0.000233622
0.000340352
0.000332419
0.000274923
0.000210261
0.00016975
0.000139727
0.000109874
9.46391e-05
9.74342e-05
0.000115592
0.000162846
0.000252513
0.000438468
0.000853194
0.00165028
0.00277792
0.0042212
0.00646227
0.0108127
0.0197518
0.0380335
0.0749793
0.147188
0.263155
0.3938
0.534359
0.674381
0.792479
0.876372
0.935167
0.976592
0.99634
0.998534
0.99772
0.999214
0.998906
0.999187
0.999772
0.999965
0.999915
0.999909
0.999927
0.999954
0.999959
0.99995
0.999904
0.999884
0.999872
0.999864
0.999875
0.999642
0.998136
0.997332
0.997332
0.997976
0.998637
0.998738
0.998998
0.999409
0.99968
0.999808
0.999929
0.99996
0.999959
0.999959
0.999952
0.999885
0.999782
0.999833
0.999951
0.999933
0.999413
0.992144
0.968914
0.966654
0.972753
0.985757
0.996046
0.999811
0.999792
0.999488
0.999484
0.999484
0.999484
0.997662
0.911163
0.626663
0.587644
0.744435
0.919235
0.995124
0.99907
0.99907
0.99907
0.99907
0.99907
0.996086
0.922118
0.438851
0.0542946
0.000908033
2.65945e-09
2.4309e-09
2.14991e-09
2.14985e-09
2.14991e-09
2.3761e-09
1.55549e-08
3.11372e-08
2.86402e-08
8.91102e-08
2.12403e-06
4.0578e-05
0.000170863
0.000141604
4.61789e-05
2.55062e-05
3.12169e-05
9.9005e-05
0.000163526
0.000117124
2.51011e-05
2.68303e-07
2.68303e-07
2.76242e-07
3.97367e-07
9.08754e-07
1.71533e-06
2.44636e-06
2.97765e-06
3.51952e-06
4.35941e-06
5.87143e-06
7.87236e-06
9.40801e-06
8.46147e-06
6.29851e-06
4.83162e-06
4.20348e-06
3.59434e-06
2.66659e-06
2.4605e-06
2.81557e-06
4.49641e-06
7.89165e-06
1.27294e-05
2.1601e-05
4.17694e-05
8.24568e-05
0.000128314
0.000161617
0.000190551
0.000242279
0.000373921
0.000797622
0.00207962
0.00487196
0.00975138
0.018708
0.0379274
0.0761597
0.144849
0.260833
0.393756
0.560847
0.716573
0.801224
0.869982
0.946471
0.988575
0.999929
0.999981
0.999981
0.999981
0.999981
0.999981
0.999981
0.999981
0.999981
0.999981
0.999981
0.999981
0.999981
0.999964
0.999668
0.998641
0.998603
0.998464
0.998264
0.996301
0.99167
0.993169
0.996516
0.998304
0.999666
0.999959
0.99996
0.99996
0.99996
0.999955
0.999946
0.99995
0.999957
0.999957
0.999957
0.99985
0.998168
0.991549
0.986341
0.965212
0.963623
0.966513
0.980735
0.99086
0.995099
0.997185
0.999161
0.998831
0.938382
0.50576
0.110103
0.0811708
0.174601
0.603978
0.923336
0.996454
0.996095
0.995872
0.995536
0.99122
0.901746
0.425875
0.046519
4.10847e-05
6.86029e-05
1.831e-09
9.35426e-09
5.82648e-07
5.07016e-08
2.6018e-09
2.39144e-09
7.37584e-09
1.1272e-08
1.61383e-08
1.94888e-07
1.0056e-05
0.000140916
0.000297583
0.000297583
0.000227982
4.06509e-05
6.29041e-06
6.2858e-06
2.17616e-05
2.73497e-05
1.64003e-05
2.63249e-06
2.68303e-07
2.70542e-07
2.09494e-07
9.27069e-08
7.70603e-08
7.8577e-08
8.33968e-08
9.21035e-08
1.09884e-07
1.42529e-07
2.02344e-07
1.85161e-07
1.30253e-07
7.44474e-08
5.02637e-08
5.00284e-08
5.26159e-08
6.24338e-08
1.01037e-07
2.59392e-07
6.41598e-07
1.07702e-06
1.39675e-06
1.90497e-06
2.9377e-06
4.23995e-06
4.34708e-06
4.30233e-06
4.57915e-06
5.38179e-06
8.7883e-06
3.44479e-05
0.000191287
0.000467014
0.000657305
0.000890688
0.00134207
0.00216807
0.00399921
0.00868499
0.0192444
0.0586819
0.150421
0.312675
0.560393
0.749052
0.886927
0.984699
0.999981
0.999981
0.999981
0.999981
0.999981
0.999981
0.999981
0.999981
0.999966
0.999934
0.999894
0.999854
0.999821
0.999728
0.99964
0.999517
0.992178
0.948225
0.858952
0.869317
0.934284
0.98126
0.999103
0.999955
0.999959
0.99996
0.999959
0.999959
0.999959
0.999959
0.999959
0.999957
0.999951
0.999924
0.999856
0.9998
0.999682
0.99903
0.995452
0.993405
0.982966
0.954867
0.951604
0.957564
0.974423
0.990181
0.964891
0.598157
0.103135
0.000169162
0.0018537
0.0144048
0.181627
0.540096
0.766834
0.766786
0.760824
0.738256
0.581678
0.195552
0.00222409
1.86738e-06
8.2904e-06
8.14484e-05
1.60733e-09
2.37764e-06
2.66694e-05
2.10965e-05
4.70128e-06
3.73922e-09
3.41807e-09
3.07378e-09
6.3302e-09
2.22973e-07
1.32871e-05
0.000129732
0.000224089
0.000297583
0.000297524
0.000149992
1.21433e-05
7.28396e-08
2.08002e-07
8.77985e-07
1.73997e-06
1.54506e-06
2.35716e-06
2.43306e-06
1.33047e-06
1.85087e-07
2.9879e-09
3.24935e-09
4.08284e-09
4.07865e-09
3.65825e-09
3.32782e-09
2.74649e-09
2.03315e-09
1.46794e-09
1.50805e-09
1.87894e-09
2.47507e-09
2.84016e-09
3.95291e-09
1.00459e-08
3.64747e-08
9.63902e-08
1.49751e-07
2.62975e-07
3.91289e-07
7.37882e-07
9.73469e-07
7.81559e-07
6.77453e-07
6.77453e-07
6.77453e-07
7.48234e-07
8.78258e-06
9.85963e-05
0.000235609
0.000226599
0.000274607
0.000303009
0.00024257
0.000210543
0.000501298
0.00487128
0.0202899
0.0528925
0.132143
0.216922
0.23057
0.335416
0.62203
0.887623
0.974687
0.97012
0.945769
0.906274
0.870508
0.848403
0.846844
0.849262
0.850834
0.867137
0.903017
0.93858
0.961108
0.955805
0.912785
0.732521
0.452141
0.322248
0.411598
0.734259
0.935068
0.999854
0.999959
0.999959
0.999959
0.999957
0.999947
0.999938
0.999954
0.999952
0.999515
0.984419
0.955698
0.958913
0.976219
0.992776
0.995523
0.993595
0.988296
0.974016
0.943769
0.925544
0.928757
0.931506
0.909609
0.644967
0.135196
5.36802e-08
3.19266e-08
3.62525e-08
0.000206681
0.0189719
0.104034
0.14996
0.133909
0.116839
0.0959245
0.0322392
0.000117596
3.31951e-07
7.83429e-07
3.36541e-05
0.000364655
8.95636e-07
2.08035e-05
8.6694e-05
9.02649e-05
4.4131e-05
4.59639e-06
4.46234e-10
3.00334e-10
1.97485e-09
2.41697e-07
1.05224e-05
1.34619e-05
2.37025e-05
0.000140093
0.000277338
0.000206565
3.60268e-05
1.20755e-08
9.40424e-09
1.57493e-08
5.84173e-08
8.47175e-07
4.11728e-06
4.46124e-06
2.58442e-06
3.01962e-07
2.98668e-09
2.98546e-09
2.98425e-09
2.88631e-09
2.06959e-09
8.64808e-10
4.61187e-10
4.94136e-10
6.57237e-10
1.15205e-09
2.12173e-09
2.84433e-09
2.36772e-09
2.17998e-09
2.18183e-09
4.28889e-09
8.05018e-09
2.21107e-08
1.44288e-07
1.25246e-06
1.98854e-06
1.43612e-06
6.835e-07
6.77453e-07
6.77453e-07
6.77453e-07
6.77453e-07
9.6198e-06
0.000125204
0.000186933
0.000117015
0.000108191
0.000220071
0.000155384
9.48117e-05
9.48311e-05
0.00381824
0.00548489
0.00870889
0.0144138
0.0169034
0.0141416
0.0167484
0.0616886
0.298137
0.539106
0.532525
0.451298
0.347847
0.274054
0.236803
0.237415
0.242747
0.243469
0.266519
0.3284
0.403033
0.467926
0.453081
0.297542
0.0918353
0.0119506
0.0205862
0.0688332
0.236063
0.629391
0.902637
0.999591
0.99992
0.999891
0.999831
0.999825
0.999839
0.999809
0.996779
0.935153
0.739373
0.688411
0.762487
0.869679
0.905639
0.893772
0.804931
0.608915
0.573008
0.594413
0.666407
0.670555
0.616892
0.377756
0.0910398
2.30684e-08
2.40034e-08
2.41187e-08
2.42362e-08
5.80091e-08
1.0218e-07
9.78612e-08
5.14064e-08
7.76869e-09
1.34768e-08
5.40369e-08
8.23101e-08
6.11564e-08
7.51335e-08
8.48786e-07
4.8984e-05
0.00060721
1.27894e-05
4.98418e-05
0.000122386
0.000122386
0.000105563
3.28193e-05
3.70808e-07
3.00334e-10
5.52766e-10
4.22801e-07
3.36994e-06
3.57035e-06
4.34543e-06
1.36684e-05
7.22686e-05
9.9939e-05
4.37174e-05
1.58705e-06
9.50428e-09
1.40209e-08
1.9136e-07
2.78253e-06
4.35359e-06
4.35471e-06
1.99015e-06
1.74361e-07
4.96645e-09
9.75329e-09
1.39013e-08
1.13969e-08
4.09034e-09
4.47789e-10
4.12775e-10
6.44356e-10
1.18342e-09
2.35752e-09
5.9244e-09
1.34498e-08
1.91274e-08
1.29832e-08
1.52929e-08
7.09584e-08
9.08134e-08
1.64798e-07
5.66775e-07
3.57155e-06
3.91021e-06
3.90789e-06
2.30825e-06
7.55025e-07
6.77453e-07
6.77453e-07
6.9068e-07
1.06569e-05
0.000106868
0.000113812
4.39867e-05
2.21444e-05
0.000213436
0.000483134
0.000303073
9.69151e-05
0.000934586
0.00032584
3.68609e-05
2.04629e-05
5.31892e-05
0.000223038
0.000572763
0.00175459
0.0109855
0.0348437
0.0321976
0.0200484
0.0112391
0.00719467
0.0066306
0.00734709
0.0081751
0.00788291
0.00875179
0.0088903
0.00747641
0.00595268
0.00342447
0.000813003
0.000292696
0.00052222
0.00146336
0.00280993
0.0228766
0.127785
0.431965
0.78443
0.981017
0.999775
0.999828
0.999828
0.999803
0.993873
0.855647
0.471265
0.167628
0.197203
0.34216
0.375915
0.301858
0.164983
0.0634907
0.0421605
0.0541523
0.0865438
0.126824
0.118431
0.0686271
0.0196397
0.000216931
2.30985e-08
2.30684e-08
3.88427e-08
9.13832e-08
6.83784e-08
4.34051e-08
2.3032e-08
6.20595e-09
5.59446e-09
5.59446e-09
5.91698e-09
6.77923e-09
5.66031e-09
2.52133e-08
8.74849e-07
6.26717e-05
0.000390364
3.80562e-05
5.00713e-05
2.64348e-05
9.73335e-05
0.000117838
7.57198e-05
1.02777e-05
4.07618e-10
4.77931e-10
2.10727e-07
9.57904e-07
1.57066e-06
2.12034e-06
5.07905e-06
2.40397e-05
3.94015e-05
2.68027e-05
3.97585e-06
1.33369e-08
3.07413e-08
6.97204e-07
3.79732e-06
4.24361e-06
2.47195e-06
5.08134e-07
5.4934e-08
5.14764e-08
6.07881e-08
4.47447e-08
1.13719e-08
9.57058e-11
1.10595e-10
1.88467e-10
4.51174e-10
9.22128e-10
2.00049e-09
5.64811e-09
1.60743e-08
3.78891e-08
7.61306e-08
2.13285e-07
5.35755e-07
5.16518e-07
5.06235e-07
1.05851e-06
1.29341e-06
1.85039e-06
2.21301e-06
5.02453e-06
1.48073e-05
1.72855e-05
1.04396e-05
2.10615e-06
8.35411e-06
5.54203e-05
5.4811e-05
2.17719e-05
2.17127e-05
7.88108e-05
0.000551138
0.000551124
0.000262944
7.3567e-05
2.91241e-06
7.68486e-07
9.81101e-07
2.14956e-06
8.86684e-06
0.000128866
0.00034382
0.000690457
0.00149999
0.000721892
4.06565e-05
1.38114e-05
1.38114e-05
2.33863e-05
7.41674e-05
7.4993e-05
5.87956e-05
4.19225e-05
2.16352e-05
6.63992e-06
9.80151e-07
9.8682e-09
5.25203e-08
2.34339e-07
3.60969e-07
4.89651e-07
5.88945e-06
0.000325659
0.00462593
0.0582686
0.292478
0.698042
0.964958
0.999828
0.999817
0.98936
0.8433
0.289144
0.0225338
0.00233178
0.0145681
0.048171
0.034286
0.0050408
3.87379e-09
9.03428e-10
6.85234e-10
7.1116e-10
9.11988e-10
2.03434e-09
8.10682e-09
9.41322e-09
6.06538e-09
4.57397e-09
4.13006e-08
5.40612e-08
1.80535e-07
3.2138e-07
2.90525e-07
3.94984e-07
2.69492e-07
1.27725e-07
5.11678e-08
1.76371e-08
5.66115e-09
5.66031e-09
5.66115e-09
6.84536e-08
2.78557e-06
0.000121898
0.000271621
5.66018e-05
1.62694e-05
1.41626e-06
1.77479e-05
0.000115515
9.08624e-05
2.45366e-05
7.29047e-08
5.23802e-10
2.90894e-08
2.20475e-07
7.96187e-07
1.33735e-06
3.61217e-06
1.72703e-05
2.68037e-05
1.61833e-05
2.55725e-06
1.49751e-08
1.00604e-07
1.27121e-06
2.22892e-06
1.72379e-06
5.53274e-07
1.82769e-07
1.821e-07
2.18317e-07
1.47364e-07
3.04446e-08
4.08285e-11
4.08285e-11
5.95205e-11
1.22637e-10
2.22819e-10
4.25606e-10
8.74368e-10
2.02927e-09
5.18125e-09
2.54818e-08
1.52052e-07
5.83574e-07
9.11862e-07
9.11489e-07
4.05018e-07
3.56894e-07
3.5761e-07
3.5833e-07
5.81622e-07
1.05826e-05
6.01139e-05
9.86487e-05
7.8888e-05
2.80732e-05
9.79641e-06
2.03039e-05
1.6108e-05
1.99414e-05
0.00017384
0.000295057
0.000544387
0.000551138
0.000514715
0.000181385
2.142e-05
7.67979e-07
1.54068e-06
2.62309e-06