/*--------------------------------*- C++ -*----------------------------------*\
| =========                 |                                                 |
| \\      /  F ield         | OpenFOAM: The Open Source CFD Toolbox           |
|  \\    /   O peration     | Version:  v1912                                 |
|   \\  /    A nd           | Website:  www.openfoam.com                      |
|    \\/     M anipulation  |                                                 |
\*---------------------------------------------------------------------------*/
FoamFile
{
    version     2.0;
    format      ascii;
    class       volScalarField;
    location    "80";
    object      p_rgh;
}
// * * * * * * * * * * * * * * * * * * * * * * * * * * * * * * * * * * * * * //

dimensions      [1 -1 -2 0 0 0 0];


internalField   nonuniform List<scalar> 
14268
(
-184.48
144.094
468.237
789.38
1108.38
1427.54
1748.48
2071.55
2396.21
2721.83
3046.69
3368.72
3685.47
3994.18
4291.92
4576.15
4845.56
5097.95
5333.1
5550.94
5752.08
5938.28
6109.93
6267.52
6413.2
6548.52
6675.1
6794.93
6909.32
7020.8
7126.91
7229.83
7329.66
7426.4
7519.94
7610.85
7701.3
7794.47
7893.64
8002.63
8126.25
8269.61
8436.42
8629.54
8851.53
9104.7
9390.88
9710.41
10061.9
10441.7
10844.6
11262.3
11690.2
12125.1
12559.4
12978.5
13400.2
13817.1
14218.9
14600.5
14942.6
15230
15430.4
15493.7
15411.8
15216.1
15005.9
15502.1
17149.1
19426.2
21645
23009.7
23699.7
24119
24349.8
24488.3
24552.3
24529.7
24445.8
24363
24254.4
24076.7
23730.9
23213.4
22352.6
20947.7
19350.1
17737.1
16958.7
16364.9
17281.4
19737
21299.1
22267.7
22628.7
22664.6
23042.2
23561
24274.3
25183.2
25993.8
26688.5
27199.3
27501.1
27600.5
27530.9
27330.7
27027.5
26640.2
26205.6
25742.3
25190.5
24543.6
23806.9
22859.5
21542.4
19346.4
16399
15227.5
15135
16152.2
17156.2
17878.4
18390.9
18711.8
18860.9
18658.4
17823.5
16496.6
14653.4
12346.1
10312.1
8990.39
8440.03
-175.791
152.176
475.769
796.404
1115.03
1433.94
1754.77
2077.87
2402.7
2728.61
3053.82
3376.22
3693.3
4002.28
4300.18
4584.49
4853.83
5105.99
5340.73
5557.99
5758.75
5944.31
6115.35
6272.34
6417.44
6552.25
6678.42
6797.94
6912.08
7023.31
7129.22
7231.98
7331.6
7428.07
7521.43
7611.99
7702.15
7795.07
7893.96
8002.71
8126.22
8269.7
8436.69
8629.81
8852.03
9105.46
9391.95
9712.06
10064.3
10445
10848.7
11266.9
11694.7
12127.3
12555.6
12967
13376.6
13779
14166.1
14537
14870.9
15150.3
15337.8
15378.2
15251.7
14985.3
14715.3
15118.3
16670.9
18926.8
21204.3
22631.6
23416.2
23940.8
24255.5
24440.9
24521.6
24506.6
24424
24341.4
24240.4
24060.5
23712.6
23165.2
22240.8
20739.2
19013.7
17333
16488.5
15834.5
16700.8
19263.9
20953.5
21988.1
22411.9
22470.9
22900.9
23459
24207.7
25151.3
25985.5
26689.5
27201.7
27503.6
27601.8
27531.5
27330.6
27026.5
26639.1
26204
25740.6
25188.8
24541.8
23804.8
22856
21534.9
19335.6
16384.5
15219.4
15133.1
16153.9
17158.7
17880.2
18392.1
18712.5
18861.2
18658.3
17822.4
16494.6
14650.7
12343.3
10310
8989.23
8439.32
-166.406
160.53
483.159
802.921
1120.86
1439.31
1759.93
2083.09
2408.3
2734.86
3060.88
3384.19
3702.16
4011.93
4310.48
4595.31
4864.86
5116.98
5351.26
5567.71
5768.18
5952.78
6122.88
6278.97
6423.16
6557.22
6682.71
6801.7
6915.51
7026.27
7132.03
7234.45
7333.68
7429.83
7522.49
7612.6
7702.22
7794.54
7892.79
8000.87
8123.75
8266.66
8433.4
8626.81
8849.34
9103.01
9389.92
9710.78
10063.9
10445.7
10850.4
11269.2
11696.7
12128.5
12558.8
12970.1
13379.6
13782.9
14170.5
14539.6
14871.9
15150.6
15337.8
15381.1
15262.9
15009.8
14691.8
15129.9
16688.7
18941.4
21183.8
22582.2
23339.7
23858.9
24193.3
24410.1
24512.7
24503.1
24421.5
24332.8
24235.4
24056.5
23722.1
23154.1
22218.2
20744.3
19097.9
17384.8
16503.1
15859.4
16709.9
19289.6
20983.8
22012.2
22441.4
22481.1
22896.8
23441.5
24177.7
25123
25967.2
26685.4
27203.4
27507.3
27604.4
27533.1
27331.1
27025.8
26638.4
26202.4
25738.9
25186.6
24539
23801.9
22852.5
21526.7
19317.3
16361
15204.6
15127.9
16154.4
17161.4
17882.3
18393.6
18713.5
18862
18658.7
17821.8
16492.8
14647.9
12340.2
10307.8
8988.07
8439.12
-156.33
169.144
490.378
808.867
1125.8
1443.61
1763.96
2087.21
2413.02
2740.59
3067.91
3392.67
3712.08
4023.16
4322.85
4608.64
4878.72
5130.98
5364.83
5580.03
5780.41
5963.51
6132.36
6287.18
6430.25
6563.2
6687.79
6806.13
6919.51
7029.71
7135.13
7237.24
7335.89
7431.21
7523.4
7612.71
7701.54
7792.95
7890.12
7997.08
8119.01
8261.57
8428.22
8621.2
8843.26
9096.91
9383.82
9705.4
10059.9
10443.1
10848.1
11266.7
11694.3
12126
12555.8
12965.4
13370.6
13768.6
14148.1
14510
14837.6
15114.8
15295.5
15328.4
15184.6
14849.6
14491.7
14874.3
16397
18750.2
21003.1
22393.9
23170.8
23721.7
24093.9
24349.6
24483.4
24491.5
24410.4
24319
24226.9
24056.4
23721.7
23143.5
22147.7
20557.7
18865.2
17158.2
16229.7
15514.6
16328.7
19041.6
20851.4
21888
22343.7
22349.9
22806.7
23376.5
24128.9
25090.3
25940.4
26674.7
27203.8
27512.1
27608.3
27536.4
27333.2
27026.2
26639.1
26201.7
25738.2
25186.4
24539.2
23803.1
22853
21519
19292.4
16326.6
15181.1
15118.8
16153.8
17164.3
17884.6
18395.3
18714.7
18863.2
18660
17822
16491.5
14645.2
12336.9
10305.2
8986.66
8438.33
-145.595
177.958
497.339
814.179
1129.79
1446.74
1766.69
2090.09
2416.74
2745.68
3074.83
3401.66
3723.06
4036
4337.31
4624.51
4895.43
5148.02
5381.39
5595.39
5794.91
5976.65
6143.9
6297.2
6438.62
6570.36
6693.86
6811.24
6924.12
7033.2
7138.58
7240.03
7338.03
7432.73
7524.26
7612.35
7699.94
7790.19
7885.87
7991.31
8111.76
8252.95
8418.57
8611.14
8833.67
9086.99
9374.25
9696.38
10052.6
10435.5
10839.5
11257.6
11686.7
12120
12554.1
12966.6
13373.2
13774.7
14154
14517.8
14847.1
15126.1
15304.9
15328.3
15165.8
14823.5
14434.6
14812.5
16354
18711.4
20969.4
22322.8
23071.7
23613.7
24003.1
24294
24455.9
24485.5
24406.4
24309
24226.7
24068
23734.7
23153
22140.2
20595.1
18910.4
17170.6
16227.8
15527.3
16259.3
19022.9
20871
21902.3
22381.6
22345
22786.2
23343.6
24085.2
25055.1
25907
26655
27200.7
27517.4
27613.3
27540.4
27336
27026.9
26640.1
26200.9
25737.4
25185.8
24538.1
23801.7
22849.7
21507.3
19263.7
16282.4
15147
15103.6
16151.8
17167.4
17887.1
18397.1
18716.2
18864.9
18661.9
17822.8
16490.6
14642.5
12333.4
10302.3
8985.14
8438.04
-134.164
186.971
503.997
818.771
1132.72
1448.61
1768.08
2091.67
2419.37
2750.09
3081.63
3411.13
3735.15
4050.47
4353.92
4643.04
4915.1
5168.25
5401.15
5614.19
5811.74
5992.01
6157.44
6308.8
6448.58
6578.43
6700.46
6817
6929.36
7037.69
7142.46
7243.24
7340.67
7434.72
7524.56
7611.33
7697.57
7786.29
7880.15
7983.56
8102.09
8242.5
8408
8599.82
8821.16
9074.44
9361.05
9683.74
10038.9
10420.4
10822.5
11241.6
11673.7
12109.7
12547.8
12963.9
13369.1
13771.3
14147.9
14508.1
14835.4
15116.6
15290.8
15306.6
15129
14714.7
14239.6
14564.8
16170.6
18591.7
20855.9
22189.3
22927.6
23473.3
23883.7
24209
24426.9
24469.8
24397.6
24294.6
24218.4
24077.8
23755
23176.7
22095.1
20473.2
18743.4
16998.6
16044.4
15258.5
15936
18888
20815.7
21820.7
22329.2
22239.3
22713.1
23286.7
24030.9
25014.1
25869.2
26628.6
27193.9
27523.2
27619.5
27546.2
27340.1
27028.4
26642.3
26200.6
25737.3
25186.2
24538.1
23802.5
22849.1
21495.8
19231
16227.7
15103.7
15079.2
16148.1
17170.7
17889.9
18399.2
18717.8
18866.9
18664.5
17824.1
16490
14639.8
12329.5
10299.1
8983.39
8437.21
-122.123
196.07
510.273
822.527
1134.44
1449.07
1767.96
2091.83
2420.81
2753.7
3088.25
3421.08
3748.32
4066.55
4372.67
4664.24
4937.78
5191.68
5423.92
5635.59
5831.27
6009.68
6172.93
6322.11
6459.76
6587.58
6708.16
6823.04
6935.15
7040.83
7146.52
7246.57
7341.98
7434.56
7523.63
7609.59
7694.4
7781.27
7872.78
7973.77
8089.66
8227.77
8391.67
8582.8
8804.52
9056.55
9342.76
9664.39
10017.7
10395.3
10797.1
11218.8
11654.7
12095.1
12537.6
12961.2
13366.4
13773
14152.5
14514.7
14843
15126.6
15296.9
15299.5
15095.9
14629.4
14132.4
14548.9
16080.1
18570.5
20804.9
22108.2
22804.2
23332.9
23764.8
24124.3
24380
24448.7
24389.1
24281.7
24216.2
24092.7
23780.5
23217.1
22068.2
20379.9
18726.8
17013.5
16035.1
15217.7
15791.2
18832.1
20835.3
21816.4
22363.4
22203.2
22669.9
23239.2
23974.3
24968.8
25825.3
26594.1
27180.4
27528.3
27626.5
27552.5
27345.1
27030.3
26645.2
26200.7
25737.5
25187.2
24539
23804.4
22849.7
21483.2
19192
16164.3
15052.9
15045.7
16140.7
17174.1
17893
18401.6
18719.7
18869.4
18667.9
17826.2
16489.5
14637.4
12325.5
10295.6
8981.52
8436.74
-109.377
205.264
516.043
825.308
1134.84
1447.97
1766.22
2090.42
2420.89
2756.36
3094.54
3431.44
3762.63
4084.33
4393.67
4688.25
4963.6
5218.54
5450
5660.19
5853.54
6029.63
6190.36
6336.79
6471.77
6597.32
6715.6
6829.35
6941.16
7045.22
7146.67
7243.02
7337.43
7430.28
7521.08
7606.78
7689.89
7775.24
7863.88
7962.05
8075.18
8212.14
8375.88
8565.2
8785.53
9036.14
9319.82
9637.34
9984.27
10359.9
10763.1
11188.8
11629.5
12075.3
12523.1
12958.4
13358.9
13771.7
14153.4
14515.3
14845.1
15131.5
15298.2
15287.7
15067.2
14540.1
13962.8
14300.3
15969.6
18517.2
20716.6
22006
22652.3
23178.8
23614.5
24031
24317.5
24422.1
24376.9
24265.1
24208.7
24106.1
23808.3
23255.7
22039.9
20305.5
18615.3
16902.1
15922.6
15016.6
15509.3
18744.2
20806.8
21759
22336.8
22114.2
22603.5
23182.2
23910.7
24918.7
25777.6
26555.2
27161.8
27532.7
27634.4
27560.5
27351.2
27032.7
26649
26201
25738.1
25188.7
24540.4
23806.9
22850.8
21468.9
19145.7
16093.2
14996.2
15007.5
16127.2
17177.5
17896.3
18404.1
18721.8
18872.2
18672
17828.9
16489.5
14634.8
12321
10291.8
8979.41
8435.87
-96.05
214.457
521.246
826.91
1133.7
1445.16
1762.64
2087.27
2419.38
2758.1
3100.66
3442.35
3778
4103.62
4416.85
4715.12
4992.65
5248.9
5479.35
5687.75
5878.34
6051.7
6209.55
6352.91
6485.26
6608.07
6724.2
6836.86
6940.93
7042.41
7132.29
7219.86
7309.13
7400.88
7496.86
7593.63
7683.18
7766.46
7852.81
7948.37
8057.08
8190.74
8352.89
8541.59
8761.04
9009.01
9286.86
9595.55
9938.14
10313.6
10721.2
11151.7
11597.8
12050.2
12503.8
12949.4
13351.5
13769.6
14156.4
14523.7
14852.3
15145.1
15307.4
15279.9
15035.9
14459.5
13847.1
14195
15996.9
18540
20642.5
21903.3
22504.7
23014
23475.6
23897.9
24253.4
24391.4
24363.9
24248.1
24203.7
24121.8
23840.5
23303.9
22011.3
20220.3
18560.9
16913.3
15967.9
14962
15326.3
18706.9
20845.7
21741.1
22370.6
22049.2
22548.1
23129.3
23844.7
24865.4
25724.3
26509.5
27135.3
27534.6
27642.5
27569.3
27358.4
27035.6
26653.8
26201.7
25739
25191
24542.6
23810.4
22852.5
21453.6
19094.1
16013.3
14930.5
14962.7
16106
17180.3
17899.9
18406.9
18724.2
18875.5
18676.9
17832.2
16489.8
14632
12316.6
10287.7
8977.18
8435.22
-82.082
223.63
525.672
827.298
1130.82
1440.17
1756.9
2081.76
2415.4
2757.06
3104.6
3452.05
3793.49
4124.01
4441.69
4744.6
5025.05
5282.92
5512
5718.53
5905.84
6076.35
6230.89
6370.48
6499.24
6620.63
6731.46
6836.05
6933.64
7021.51
7097.79
7176.42
7259.1
7343.57
7437.81
7550.73
7659.63
7752.69
7842.26
7931.43
8036.67
8168.82
8331.42
8516.04
8733.85
8974.63
9239.58
9537.99
9878.55
10260.1
10672.5
11107.9
11560.1
12019.1
12479.6
12931.2
13349.9
13761.8
14161.1
14526.9
14862.5
15156.3
15315.4
15273.8
15009.1
14362.7
13747.4
14113.8
16084.7
18589.7
20546.5
21781.8
22334.2
22838
23346
23746
24158.6
24352.5
24346.7
24226.6
24194
24134.9
23872.5
23358.6
21984.5
20145.6
18493.8
16872.5
15950.6
15109.1
15116.5
18664.6
20876.8
21696.4
22361
21958.6
22480.6
23074.2
23774
24807.4
25667.3
26459
27103.3
27534.4
27650.9
27579.1
27366.7
27040.8
26657.5
26202.7
25740.1
25193.8
24545.4
23814.7
22855.2
21437.2
19034.9
15925.6
14860.6
14913.9
16079.8
17181.7
17903.7
18409.8
18726.7
18879.2
18682.3
17836.1
16490.2
14629.3
12311.6
10283.4
8974.7
8434.29
-67.6802
232.167
528.76
825.375
1124.93
1432.18
1748
2073.12
2407.91
2751.48
3103.55
3457.47
3806.19
4143
4469.74
4779.05
5060.27
5321.72
5548.27
5753.05
5935.56
6102.69
6253.52
6389.33
6514.23
6627.68
6732.09
6823.99
6909.4
6993.46
7072
7146.33
7221.38
7294.16
7373.01
7468.08
7592.34
7721.36
7822.02
7909.68
8013.12
8141.38
8303.11
8488.97
8694.95
8921.37
9174.48
9470.25
9816.51
10201.3
10617.9
11059
11516.7
11982.7
12451.4
12908.8
13340.9
13754.8
14162.7
14541.3
14864.1
15169.9
15334.3
15265.3
14990.7
14342.6
13599.9
14264.1
16244.2
18602.7
20501.5
21658.8
22150.7
22653
23189.1
23595.1
24057.4
24305.9
24327.2
24203.5
24185.2
24145.8
23903.3
23423.6
21968
20081.7
18457.9
16959.8
16792.6
15718.8
14952.6
18681.1
20965.5
21693.9
22358.8
21885.6
22414.4
23022.9
23703.1
24747.4
25605.7
26403
27064.4
27530.6
27658.8
27590
27375.9
27049
26660.1
26203.8
25741.4
25197.3
24548.9
23820.2
22859.1
21418.8
18972.8
15829
14780.5
14856.7
16048.2
17179.9
17907.7
18413
18729.5
18883.3
18688.7
17840.8
16491.3
14626.8
12306.4
10278.8
8972.09
8433.49
-54.9524
239.275
530.01
820.649
1115.57
1417.98
1729.74
2050.27
2379.78
2720.34
3075.27
3438.36
3797.16
4145.39
4483.94
4805.24
5099.7
5361.41
5587.5
5790.03
5968.03
6131.26
6279.5
6408.57
6524.8
6627.32
6720.18
6803.03
6889.46
6978.2
7057.04
7128.18
7196.49
7261.91
7328.62
7406.51
7506.77
7629.1
7776.35
7885.36
7982.73
8109.68
8264.59
8442.94
8638.66
8855.42
9106.66
9406.59
9754.7
10142.4
10561.9
11005.8
11469
11941.2
12416.3
12885.1
13322.2
13750.1
14157.6
14553.4
14880.4
15190.3
15342.4
15263.2
14961.9
14309.1
13546.8
14466.5
17243.5
22549.6
21162.6
21463.5
21954.5
22452.5
23017.2
23453
23937.9
24250.1
24301.7
24175.5
24173.8
24151.5
23939.1
23483.5
21951.8
20043.6
18488.3
17823.6
20222.8
15790.3
14831.5
18710.7
21065.4
21670.3
22339.8
21796.7
22338.2
22974
23629.1
24683.4
25540.2
26340.4
27019.3
27522.8
27665.8
27600.9
27385.9
27058
26663.2
26205.1
25743
25201.4
24553.2
23826.4
22863.8
21400.3
18907.8
15726.8
14699.3
14797.7
16014.2
17173.5
17911.6
18416.4
18732.5
18887.8
18695.6
17846
16492.4
14623.8
12300.9
10273.9
8969.26
8432.47
-54.8145
233.932
516.288
798.84
1085.04
1379.93
1685.12
2002.32
2330.21
2668.78
3021.64
3385.79
3750.52
4107.45
4458.33
4814.48
5138.42
5395.94
5625.47
5829.91
6001.03
6162.81
6301.58
6420.87
6522.88
6615.15
6702.42
6793.63
6881.91
6976.08
7055.6
7123.23
7183.59
7238.58
7293.76
7357.42
7442.27
7546.37
7671.66
7806.19
7925.83
8049.89
8202.62
8374.93
8568.41
8788.19
9043.65
9346.61
9696.65
10084.5
10504
10951
11417.4
11895.2
12379.3
12853.8
13302.1
13740
14152.4
14551.6
14901.4
15215.5
15378.3
15244.6
14994.7
14243.1
13663.8
14785.4
22649.2
32672.3
27433.2
21695.8
21732
22243.9
22830.1
23317.6
23811.1
24183.7
24270.1
24146.7
24159
24151.3
23950.4
23571.6
21948.6
20045.8
18622.5
22908.4
24279.1
15161.6
15230.3
18709.8
21206.6
21665.8
22326.2
21702.4
22264.5
22935.1
23562.7
24617.3
25471.2
26273.7
26969.3
27511.1
27671.9
27613.7
27396.8
27068.2
26666.9
26206.5
25744.8
25206.2
24558.4
23834.1
22870.1
21376.2
18825
15613.1
14605.5
14729.2
15971.9
17161.7
17915.3
18420
18735.9
18892.8
18703.3
17851.8
16493.9
14621.1
12295.1
10268.4
8966.26
8431.51
-78.0419
202.366
477.966
753.213
1032.75
1322.05
1624.19
1942.19
2273.88
2620.05
2979.29
3347.73
3716.88
4076.66
4424.25
4761.05
5093.68
5407.78
5657.85
5857.15
6027.8
6184.33
6308.24
6414.5
6509.64
6603.89
6698.35
6792.66
6891.95
6986.3
7066.45
7130.39
7181.46
7228.03
7270.35
7318.59
7386.99
7476.91
7588.11
7710.86
7830.03
7963.3
8117.97
8296.19
8499.97
8729.54
8987.8
9291.7
9640.95
10026.8
10447.8
10894.5
11363.6
11846.5
12337.3
12818.9
13277.8
13724.2
14146.7
14555.2
14906.1
15220.9
15429.4
15258.5
14994.5
14217.3
13876.9
16433.1
30151.6
31955.6
35071.7
24528.9
21510.4
22021.2
22636.2
23185.7
23665.8
24103.4
24230.8
24111.5
24145.1
24146.8
23984.6
23633.4
21962.2
20094.1
19222.7
27144.7
20908.6
15120.4
23352.9
21286.2
21358.5
21664.6
22297
21597.3
22175.4
22898.5
23502.1
24548.2
25397.7
26202.1
26911.6
27493
27675.6
27624.9
27408.3
27079.4
26671.1
26208.4
25746.7
25211.8
24564.1
23842.2
22877.3
21352.2
18752.9
15499.2
14515.9
14660.8
15929.5
17147.7
17917.4
18423.5
18738.6
18897.8
18711.9
17858.5
16495.9
14619
12289.6
10262.7
8963.07
8430.41
-86.6005
181.114
445.939
712.711
986.633
1273.16
1576.87
1899.73
2237.84
2590.85
2956.5
3329.59
3703.16
4065.9
4418.52
4753.93
5076.07
5370.43
5631.79
5848.97
6023.88
6173.89
6296.39
6403.95
6502.64
6600.17
6701.43
6807.41
6909.35
7004.59
7082.99
7146.56
7190.55
7226.59
7259.88
7293.67
7349.48
7421.97
7520.87
7636.38
7755.18
7890.56
8047.23
8231.03
8439.83
8674.1
8940.86
9245.89
9593.5
9978.79
10397.2
10843.6
11313.3
11798.9
12296.7
12783.1
13250.6
13707.3
14136.1
14552.9
14923.3
15229.6
15443.5
15301
15030.4
14294.5
14075.3
19704
28041.7
29433.4
32801
29664.7
22173.6
21722.1
22425.7
23025.3
23523.4
24007.4
24175.1
24074.4
24121.5
24138.4
23970.3
23729.9
21980.1
20266.2
22886.8
26476.4
19823
20964.5
40284.9
35270.7
23224.5
21669.2
22243.3
21426.8
22066.2
22865.8
23417.3
24446.8
25287.9
26089.1
26819.8
27459.4
27679.8
27653.1
27427.9
27099.5
26678.1
26211.3
25748.6
25221.9
24575.1
23859.2
22891.9
21293.4
18552.8
15192
14258.3
14465.8
15796.4
17095.4
17921
18436.7
18747.2
18916.3
18742.9
17879.2
16489.9
14583.2
12223.3
10195.9
8916.91
8410.43
-89.065
171.094
428.013
687.552
956.799
1241.65
1546.17
1871.68
2213.37
2571.07
2941.75
3318.35
3695.21
4060.16
4412.36
4747.27
5071.05
5362.65
5615.9
5828.05
6009.03
6157.13
6285.41
6397.73
6500.95
6604.62
6718.97
6822.02
6925.42
7023.33
7104.59
7164.53
7203.49
7230.19
7254.94
7276.82
7322.09
7382.59
7467.71
7575.46
7692.51
7826.99
7990.82
8176.77
8386.26
8626.45
8900.87
9207.7
9554.1
9936.33
10353.8
10798.3
11266.7
11755.6
12254.7
12746
13223.1
13686.4
14125.9
14550.2
14929.9
15241.3
15467.4
15342.4
15076
14514.4
14040.6
16287.8
18460
22333.6
30038.6
32910.2
24634.5
21392.4
22169.4
22817.2
23404.4
23871
24098.1
24026.5
24090.1
24121.9
23910.1
23849.4
22099.8
20956.8
27521.1
25654.1
19645.6
35675.3
42158.8
45067.1
28711.5
21552.6
22145.8
21183.9
21925.9
22861
23356.1
24314.9
25122.3
25915
26660.4
27382.5
27667.3
27677.9
27456.9
27136.5
26694.3
26218.5
25756.7
25246.5
24599.5
23896.9
22932.1
21198.9
18218
14680.7
13870.5
14118.5
15510.5
16924.1
17877.6
18454.1
18778.9
18966.7
18839.1
17974.2
16541.4
14556.8
12115.3
10067
8819.15
8366.17
-89.8741
161.781
411.171
664.695
929.31
1211.33
1515.47
1843.37
2189.39
2552.65
2929.71
3311.28
3691.92
4060.47
4416.75
4750.52
5067.68
5356.28
5611.2
5817.58
6000.37
6149.09
6279.31
6393.05
6506.13
6616.55
6728.98
6840.06
6947.33
7046.74
7131.77
7188.61
7223.24
7240.34
7253.41
7265.66
7298.32
7344.96
7419.22
7517.46
7631.47
7764.71
7931.59
8118.58
8332.31
8582.53
8860.95
9170.22
9516.16
9899.32
10313.5
10755.5
11222.1
11711.4
12212.6
12708.9
13191.6
13663.5
14112.6
14544
14938.3
15245.7
15504.5
15392.3
15146
14740.5
14576.2
12946.7
9428.48
9033.4
17623.1
30634.6
26790.2
21734.3
21870
22603.5
23258.5
23755.3
23995.3
23979.8
24055.1
24091.3
23972.8
23865.4
22252.7
22225.4
26118.5
22459.7
19318.8
37207.4
40853.6
28501.9
27731.5
21926.7
22136.5
21303.7
22620.5
23136.9
23455.1
24239.7
24956.3
25725.9
26483.3
27281.7
27637.6
27696.9
27483.1
27180.3
26713
26227
25759.4
25272.2
24631.7
23938.1
22968.6
21068.9
17821.5
14098.7
13446.8
13734.8
15155.5
16617.5
17702.2
18404.8
18797.5
19026.9
18970.8
18107.1
16598.3
14525.9
11968.2
9876.84
8672.51
8294.96
-88.9485
153.816
395.639
642.603
901.867
1180.52
1485.11
1816.36
2167.04
2536.53
2920.37
3307.99
3694.02
4066.93
4425.22
4759.96
5075.02
5357.14
5607.92
5815.01
5996.01
6146.49
6277.33
6397.41
6512.43
6627.74
6746.98
6860.56
6972.22
7077.09
7161.44
7220.54
7249.26
7257.76
7257.22
7257.88
7276.93
7310.51
7372.63
7462.01
7571.69
7704.59
7876.11
8060.11
8281.44
8537.86
8821.36
9134.73
9482.64
9864.24
10277.3
10717.3
11180.7
11670.6
12170.5
12668.6
13160.3
13638.7
14097.2
14539.1
14940.3
15254.5
15546.9
15439.1
15244.4
14979.1
14547.9
13100.9
10606.4
10122
11188.1
24727.3
27571.5
22596.6
21581.8
22385
23065.3
23645.1
23886.1
23933.4
24013.5
24052.6
24025.6
23882.4
22342.9
21443.5
21188.9
18490.6
19913.8
37359.7
36418.1
17269.4
20399.2
21915.4
22470.1
25130.2
33022.5
29386.6
24684.2
24258.3
24783.8
25519.4
26280.8
27145.9
27578.3
27698.7
27523.8
27210.4
26730.1
26233.3
25759.3
25332.2
24675.2
23996.9
23048.6
20923.7
17374.9
13542.9
13271.8
13603.5
14814.4
16247.9
17410.8
18263.4
18783.9
19092.3
19136.6
18285.6
16680.4
14480.9
11768
9626.87
8473.82
8204.99
-85.0791
149.049
381.99
621.283
874.911
1150.58
1455.61
1789.93
2145.36
2521.35
2913.69
3309.39
3701.2
4078.49
4439.47
4773.79
5085.88
5365.85
5611.31
5815.93
5996.23
6147.75
6278.58
6402.2
6522.72
6642.78
6765
6885.9
7002.59
7111.08
7198.27
7260.02
7284.52
7282.05
7267.61
7253.75
7257.86
7278.81
7328.83
7408.41
7512.47
7643.6
7801.34
8002.64
8229.01
8492.57
8781.94
9100.5
9449.7
9834.2
10246.3
10683.4
11144.8
11631.3
12129
12631.8
13126.7
13612.1
14080.9
14529.3
14936.7
15275.6
15582.7
15497.3
15348
15240.3
14860.6
13823
12058.7
12032.5
12664.7
17075.4
23649.8
23053.5
21509.3
22155.1
22884.1
23502.4
23774.5
23885.7
23960.5
24004.6
24050.7
23913.3
22537.6
20822
18670.2
17394.4
21224.1
36189.1
26495.5
16704.5
20203.1
22380.5
23441.4
35395.8
42803.5
42600.9
33465
26008.8
24627.7
25308.6
26069.6
26990
27493.6
27678.2
27570.8
27221.7
26739.6
26229.2
25748.4
25373.5
24731.2
24042
23133.2
20732.4
16978.5
13089.8
13052.7
13680.9
14584.5
15857.8
16948.1
17953.1
18670.8
19140.2
19334.8
18505.2
16780
14413.9
11511.8
9296.51
8217.17
8079.62
-79.2616
144.803
369.016
601.111
848.82
1120.86
1425.61
1763.23
2123.95
2509.55
2910.99
3315.81
3711.93
4094
4459.42
4795.74
5104.82
5379.89
5619.72
5822.95
6000.64
6152.36
6283.9
6410.17
6533.74
6658.87
6786.45
6913.4
7035.36
7149.1
7250.53
7332.62
7351.81
7322.96
7285.06
7254.3
7241.11
7249.07
7286.72
7355.72
7454.48
7583.83
7746.19
7946.68
8177.52
8447.49
8743.53
9067.08
9421.43
9807.22
10219.6
10656.4
11114.4
11597.7
12092.4
12593.3
13094.7
13586
14062.4
14519.1
14936.8
15297
15614.4
15569.8
15459.1
15460.5
15266
14660.6
13413.3
13127.4
13669
16036.9
19544.2
21420.9
21340.9
21947.1
22699.6
23342.1
23656.2
23822.4
23900.1
23952.1
24056
23917.3
22650.2
20725.7
19014.4
17829.2
22693.3
29504.2
19519.7
16703
20830
23743.2
27786.7
39512.8
41333.4
42670.1
41845
30340.1
24554.5
25094
25846.2
26803.1
27365.8
27626
27608.7
27222.8
26739.5
26215.1
25719.2
25383.7
24833.7
24099.9
23215.7
20541.1
16720.7
12674.9
13872.2
14962.2
14631.3
15384.6
16417.4
17514.8
18407.9
19128.4
19513.2
18809.4
16906.7
14339.4
11197.5
8909.03
7889.15
7894.17
-71.9658
141.752
357.113
580.141
821.298
1089.67
1395.14
1736.36
2105.68
2500.55
2910.74
3323.59
3726.25
4115.22
4484.31
4820.94
5129.09
5401.49
5635.45
5835.78
6010.33
6160.68
6293.24
6421.15
6548.83
6678.65
6811.68
6946.27
7074.02
7190.53
7324.79
7452.06
7470.61
7404.87
7315.79
7259.36
7227.84
7221.08
7246.32
7304.43
7396.88
7524.32
7688.22
7891.32
8126.76
8402.82
8705.66
9035.77
9392.88
9784.98
10200.2
10635.5
11092.1
11569.5
12058.3
12561
13063.5
13559.5
14044.1
14506.1
14934.3
15318.3
15645.1
15644.1
15591.7
15671.2
15700.3
15389.1
14721.6
14552.4
14657.8
16788.6
18379.7
19816
20854.5
21754.2
22496.4
23180.5
23533.5
23712.5
23853
23889.9
24072
23886.2
22685.1
20910.3
19663
18484.3
22074.6
20766.4
15588.2
17115.8
21404.6
25065.9
34538.4
38668.5
39613
40970.8
41393.8
31956.9
24743.7
24907.1
25619.4
26594.5
27225.5
27537
27630.3
27223.2
26728.8
26185.7
25678.8
25372
24921.3
24172.2
23355.7
20414.4
16424.9
13237.3
19706.4
20052.2
16239.8
15113.2
15848.3
16938.1
17995.3
18976.3
19655.9
19134.7
17026.2
14238
10814.9
8461.73
7540.57
7724.42
-60.9757
141.764
345.769
556.363
789.938
1057.83
1364.83
1711.35
2089.53
2492.58
2912.81
3336.86
3747.5
4144.49
4518.06
4855.6
5161.98
5430.08
5658.7
5855.18
6025.94
6173.44
6306.44
6435.41
6565.51
6700.44
6839.68
6981.87
7114.9
7226.35
7386.73
7493.41
7511.79
7489.42
7379.98
7276.18
7217.99
7193.16
7204.32
7251.44
7337.39
7462.3
7627.15
7833.69
8074.78
8356.68
8666.25
9003.45
9369.69
9768.18
10185.5
10624
11077.6
11547.2
12031.5
12529.5
13034.5
13534.6
14023.8
14493.6
14937.6
15336.6
15677.1
15737.8
15727.7
15925.9
16153.1
16097.5
15806.5
15483.8
15629
16742.4
18659.4
20310.9
20907.7
21575.2
22307.8
22985.3
23400.9
23593.2
23803.5
23774.4
24087
23827
22751.5
21140.3
20281.1
19500.6
19093.4
16256.6
14740.3
18176
22382.2
27479
37252.7
37465.7
32661.7
33719.4
36230
31165.1
26305.4
24963.5
25373.9
26326
27053.9
27382.7
27612.6
27223.2
26709.3
26145.4
25614.2
25344.6
25011.7
24185.8
23558.3
20292.1
16174.1
16608.1
20619.1
22060
20769.9
15808.6
15189.8
16351
17452.7
18593
19727.6
19478.8
17152.5
14086.6
10395.6
8129.81
7395.1
7493.96
-45.4593
146.397
336.764
542.768
769.698
1032.67
1339.6
1691.13
2073.75
2486.81
2919.92
3355.54
3776.04
4182.95
4559.81
4898.38
5204.12
5468.77
5692.39
5884.24
6050.61
6194.49
6326.15
6456.75
6589.68
6729.08
6875.89
7027.62
7168.06
7275.43
7346.32
7434.08
7482.81
7469.79
7430.9
7315.49
7213.73
7167.31
7162.57
7197.5
7276.06
7397.57
7563.42
7773.83
8021.75
8309.96
8627.1
8969.48
9343.07
9766.33
10203.5
10641.6
11078.7
11535.8
12010.4
12506.2
13009.8
13511
14005.7
14481.8
14937.6
15357.1
15712
15830.6
15922.5
16127.6
16649.1
16770.4
16952.8
16516.2
16460.5
16912.9
19314.5
21081.5
21494.2
21512.8
22107.4
22761.7
23242.6
23480.2
23710.9
23714.3
24037.2
23748.1
22821.2
21367.6
20807.8
20074.6
17222.9
15800.9
16408.1
19284.9
23201.6
31235.3
36514.2
37015.9
27679.6
20325.1
24747
28204.9
28198.1
26227.7
25244.1
26009.1
26866.6
27204.9
27542.2
27217.2
26678.1
26090.4
25520.1
25293.7
25140.4
24173.9
23701.6
20278.9
16042.6
16644.4
16902.2
16566.3
19088.8
18085.9
15206
15771.8
16903.1
18071
19528
19751.4
17316.7
13916
9983.33
7906.34
7953.79
8623
-24.4589
153.077
333.24
529.583
747.033
1002.84
1310.33
1666.47
2058.75
2485.07
2932.84
3381.06
3813.39
4230.06
4611.19
4951.66
5256.13
5516.73
5735.02
5920.05
6081.79
6220.45
6350.91
6481.96
6615.98
6759.84
6913.29
7073.55
7219.17
7327.18
7387.28
7399.46
7416.34
7433.16
7394.6
7330.52
7217.14
7144.43
7124.32
7146.6
7217.2
7335.48
7501.39
7715.67
7970.76
8265.86
8594.15
8937.6
9307.14
9751.22
10221.7
10681
11113.8
11541
12004.2
12493.2
12993.8
13495.3
13991.6
14474.8
14945.2
15376.2
15746.1
15928.5
16117.8
16384.1
17090.2
17341
17875
17341.7
17276.8
17087.3
18353.1
20314.4
21503.7
21519.2
21904.2
22537.8
23080.5
23365.1
23594.5
23729
23917.5
23669.5
22876.2
21550.7
21140.6
19990.7
17525.4
17042.2
18188.1
20372
24190.9
34207.1
34928.2
35558.1
27041.3
21134.6
23111.7
23585.7
24442.7
25996.6
25450.8
25734.6
26627.3
26965.8
27411.2
27179.8
26638.7
26029.5
25424.6
25213.9
25201.9
24333.4
23841.1
20600.6
16103.7
14115.1
10343.3
7822.46
9915.06
13480.1
15020.6
15658.7
16530.3
17537.1
19171.7
19799.7
17350.2
13667.8
9731.45
10554.5
13996.4
13556.5
9.204
172.165
341.877
522.521
728.59
976.297
1285.63
1648.5
2051.9
2490.85
2952.99
3414.87
3860.33
4287.84
4672.09
5014.6
5318.65
5575.7
5788.58
5967.74
6123.72
6257.89
6385.28
6516.55
6652.82
6800.15
6960.66
7130.95
7286.37
7396.98
7460
7465.86
7425.73
7374.19
7323.77
7261.8
7197.91
7125.96
7090.07
7099.69
7161.03
7275.55
7442.69
7661.28
7924.17
8226.06
8564.66
8915.3
9279.28
9678.64
10151.2
10616
11111.1
11568.6
12014.3
12493
12990.8
13487.9
13986.1
14473.3
14952.1
15395.3
15779.2
16029
16268.7
16725.7
17478.3
17846.4
18658.1
18139.2
18021.2
17612.9
17418.3
19210
20695
21360.8
21729.5
22326.8
22913.7
23231.4
23478.4
23690.1
23845.3
23618.6
22915.2
21698.7
21320.4
20228.2
18689.7
18458.7
19870
20892.5
21404.3
28503.4
32317.2
27143.6
21245.8
21279.5
22006.2
20707.5
21154.1
22857.6
24798.4
25643.9
26365
26741.5
27254
27105.1
26590
25961.7
25324
25116.8
25124.4
24528.4
23989.4
20948.7
16346.4
14543.6
11736.3
9437.52
10101.1
11959.9
14311.1
15999.6
16714.2
17287.1
18706.8
19565.6
17189.4
13298.6
9024.87
6810.12
10473.1
14082.8
54.2839
205.562
363.287
533.103
726.994
968.05
1275.32
1643.23
2056.54
2510.03
2984.92
3460.89
3920.48
4357.05
4744.29
5089.49
5393.57
5647.6
5855.63
6028.48
6179.54
6304.55
6428.84
6559.44
6695.48
6844.76
7010.63
7189.35
7351.33
7471.6
7537.44
7543.92
7497.67
7418.32
7332.2
7250.24
7176.33
7110.29
7066.67
7064.58
7117.54
7228.34
7396.17
7619.98
7888.65
8196.86
8542.22
8898.87
9265.64
9629.65
10022.5
10502
11012.9
11539.8
12037.7
12514
13000.6
13494.8
13989.8
14480.6
14967.9
15419.4
15818.9
16133
16419.1
17085.1
17865
18278.7
19257.6
18910.2
18732.8
18340.1
17908.3
18330
19630.6
20953.3
21601.6
22155.3
22749.8
23107.1
23342.8
23590.8
23738.4
23566.1
22952.9
21839
21427.3
20595.3
19778.2
19803.7
21083.2
21124
19959.2
18129.8
15962.5
15845.8
19606.4
21959
22508.1
21793.7
22116.4
22722.2
24213.4
25300.1
26117.5
26470.7
27030.4
26986.8
26518
25888.1
25244.1
25025.1
24972.6
24711.1
24116
21264.8
16421.1
14787
13235.5
11383.5
11351.5
11751.9
13361.8
15183.5
16683.5
17425.6
18287.5
19030.3
16918.2
12978
9260.2
6348.23
3649.22
6195.19
305.506
404.668
515.241
635.377
783.621
985.408
1266.87
1626.41
2055.47
2532.81
3024.6
3518.32
3999.68
4451.29
4848.81
5197.08
5496.28
5743.22
5942.52
6105.09
6239.79
6370.91
6492.06
6621.44
6757.26
6909.38
7082.31
7267.8
7438.28
7563.06
7627.38
7629.49
7576.55
7490.47
7388.17
7288.77
7190.67
7104.19
7048.79
7037.76
7082.82
7189.34
7356.77
7583.04
7858.63
8176.64
8529.91
8892.05
9263.02
9637.88
10021.1
10437
10922.5
11450.4
11992.3
12523.7
13028.3
13516.2
14010.3
14502
14991.5
15448.1
15860.3
16244.6
16541.5
17445.7
18166.5
18713.7
19754.8
19616.2
19388.9
18958
18627
18706.8
19316.8
20503.5
21394
22005.4
22605.4
22977.5
23233.3
23462.1
23615.7
23484.2
22969.1
21985.1
21545.3
20875.2
20588.9
20793.4
21837.3
22080.3
20784.9
17343.1
14856.8
17624.3
22020.1
23588.1
23763.3
23179.5
23208.6
23312
23971.5
24959
25760.6
26268.5
26835.2
26845.1
26434.5
25811.7
25179
24960.5
24788
24790.5
24183
21567.4
16711.3
15211
14687.5
13090.1
12499.4
12283.2
12486.1
14174.8
15873.4
17228.1
18235.9
18367.1
16576.8
12950.9
9809.85
8055.01
5426.1
3641.86
854.074
919.302
990.52
1066.94
1164.87
1306
1517.79
1811.21
2190.36
2626.74
3092.39
3589.76
4080.39
4551.31
4968.28
5330.51
5628.9
5871.17
6064.84
6221.33
6353.67
6469.7
6586.22
6711.96
6853.16
7008.79
7183.52
7373
7551.51
7676.99
7737.23
7732.44
7678.95
7585.04
7470.71
7361.55
7247.8
7142.96
7071.86
7051.21
7091.04
7195.93
7366.4
7600.1
7879.64
8198.54
8547.17
8905.32
9276.16
9661.51
10056.5
10466.8
10910.1
11398
11929.7
12484.7
13032.2
13546.1
14045.1
14534.6
15023.6
15490.9
15919
16374
16724.8
17752.2
18403.7
19160.4
20176.4
20178
20026.1
19619
19214.3
19301.1
19573.1
20354.2
21172.1
21876.9
22486.4
22865.7
23148.8
23399.7
23544.2
23435.7
22964.6
22120.8
21595.5
21108.9
21043.6
21548.9
22491.7
22908.3
21916.1
19213.8
18621.3
20819.9
23681.4