/*--------------------------------*- C++ -*----------------------------------*\
| =========                 |                                                 |
| \\      /  F ield         | OpenFOAM: The Open Source CFD Toolbox           |
|  \\    /   O peration     | Version:  v1912                                 |
|   \\  /    A nd           | Website:  www.openfoam.com                      |
|    \\/     M anipulation  |                                                 |
\*---------------------------------------------------------------------------*/
FoamFile
{
    version     2.0;
    format      ascii;
    class       volScalarField;
    location    "40";
    object      nut;
}
// * * * * * * * * * * * * * * * * * * * * * * * * * * * * * * * * * * * * * //

dimensions      [0 2 -1 0 0 0 0];


internalField   nonuniform List<scalar> 
14268
(
7.34114e-10
7.08301e-10
6.84413e-10
6.57813e-10
6.23925e-10
5.61295e-10
4.72939e-10
4.26903e-10
8.49737e-08
7.94576e-08
7.32958e-08
6.7845e-08
6.22337e-08
5.27285e-08
4.12833e-08
3.5739e-08
2.84421e-07
2.79558e-07
2.72678e-07
2.65033e-07
2.55614e-07
2.3709e-07
2.09203e-07
1.92526e-07
3.48011e-07
3.4675e-07
3.44885e-07
3.42782e-07
3.399e-07
3.33281e-07
3.20422e-07
3.11636e-07
3.57691e-07
3.57565e-07
3.57313e-07
3.57094e-07
3.5663e-07
3.55395e-07
3.53084e-07
3.50858e-07
3.5841e-07
3.5842e-07
3.5841e-07
3.58567e-07
3.58818e-07
3.593e-07
3.59845e-07
3.60234e-07
3.58667e-07
3.58821e-07
3.58932e-07
3.59143e-07
3.59338e-07
3.59992e-07
3.61462e-07
3.62737e-07
3.58465e-07
3.58532e-07
3.58575e-07
3.5879e-07
3.59166e-07
3.59847e-07
3.61596e-07
3.63111e-07
3.58465e-07
3.58686e-07
3.58871e-07
3.59129e-07
3.59386e-07
3.60156e-07
3.61732e-07
3.63387e-07
3.58397e-07
3.58491e-07
3.58512e-07
3.58681e-07
3.5901e-07
3.59751e-07
3.61579e-07
3.63181e-07
3.58259e-07
3.58576e-07
3.58859e-07
3.59154e-07
3.59479e-07
3.60181e-07
3.61786e-07
3.63504e-07
3.58561e-07
3.58618e-07
3.58555e-07
3.58617e-07
3.58805e-07
3.59662e-07
3.61488e-07
3.63207e-07
3.58982e-07
3.59262e-07
3.59519e-07
3.59755e-07
3.59995e-07
3.60414e-07
3.61748e-07
3.63394e-07
3.59342e-07
3.59337e-07
3.59491e-07
3.59646e-07
3.60087e-07
3.60583e-07
3.61934e-07
3.63436e-07
3.58896e-07
3.59124e-07
3.59438e-07
3.59759e-07
3.60405e-07
3.61386e-07
3.65008e-07
3.64751e-07
3.58496e-07
3.58154e-07
3.57994e-07
3.58117e-07
3.58449e-07
3.59496e-07
3.63457e-07
3.65999e-07
3.5884e-07
3.59124e-07
3.5935e-07
3.59512e-07
3.59616e-07
3.6026e-07
3.62913e-07
3.65657e-07
3.58419e-07
3.57931e-07
3.57708e-07
3.57933e-07
3.58285e-07
3.59068e-07
3.61183e-07
3.64416e-07
3.58521e-07
3.58983e-07
3.59325e-07
3.59549e-07
3.5964e-07
3.60293e-07
3.62116e-07
3.64073e-07
3.5814e-07
3.57348e-07
3.56956e-07
3.57106e-07
3.57548e-07
3.58363e-07
3.60412e-07
3.63655e-07
3.58124e-07
3.58787e-07
3.59183e-07
3.59413e-07
3.59511e-07
3.60244e-07
3.61921e-07
3.63525e-07
3.58661e-07
3.58349e-07
3.58292e-07
3.58569e-07
3.58819e-07
3.59671e-07
3.61875e-07
3.63712e-07
3.58867e-07
3.5912e-07
3.59269e-07
3.59395e-07
3.59903e-07
3.61054e-07
3.62322e-07
3.64022e-07
3.97632e-07
3.77743e-07
3.66834e-07
3.61319e-07
3.59168e-07
3.59657e-07
3.62789e-07
3.64388e-07
1.08092e-06
1.02088e-06
8.0003e-07
6.17064e-07
4.59691e-07
3.29364e-07
2.77904e-07
2.38726e-07
3.50318e-07
3.70434e-07
2.84749e-07
1.71444e-07
1.04374e-07
1.11336e-07
1.83226e-07
3.28694e-07
1.64914e-06
2.14801e-06
2.5346e-06
2.75464e-06
2.93601e-06
3.10925e-06
3.17669e-06
2.95043e-06
2.95433e-06
3.35354e-06
3.81082e-06
4.43052e-06
4.78867e-06
5.26518e-06
5.73298e-06
5.03191e-06
0.047974
0.0486581
0.0493224
0.0499463
0.0504069
0.050699
0.0508305
0.0506074
0.160142
0.160018
0.159837
0.159396
0.158741
0.157579
0.156235
0.154277
0.193816
0.19433
0.194672
0.194706
0.194551
0.193772
0.192699
0.191185
0.241648
0.242784
0.243756
0.244447
0.244931
0.244625
0.243917
0.242828
0.265729
0.267586
0.269181
0.270449
0.271395
0.271686
0.271511
0.27111
0.288144
0.290988
0.293505
0.295664
0.297374
0.298655
0.29929
0.299345
0.300564
0.304346
0.307678
0.310625
0.31303
0.315046
0.316409
0.317167
0.306656
0.311472
0.31572
0.31959
0.322891
0.325689
0.327916
0.32915
0.305387
0.311345
0.316638
0.321517
0.325784
0.329423
0.332506
0.334551
0.297191
0.304367
0.310827
0.316836
0.322246
0.326849
0.330919
0.33381
0.281544
0.290133
0.297996
0.30539
0.31209
0.31787
0.323078
0.327102
0.258626
0.268876
0.27842
0.287481
0.295661
0.302834
0.30941
0.314677
0.227881
0.240322
0.25202
0.26305
0.272844
0.281664
0.289823
0.296495
0.189395
0.204685
0.21892
0.231993
0.243687
0.254493
0.264525
0.272538
0.142806
0.161817
0.178949
0.194023
0.20806
0.221213
0.233103
0.242228
0.0886301
0.110203
0.129635
0.148199
0.166031
0.181844
0.195134
0.205021
0.0341746
0.0531024
0.0729456
0.0949647
0.115397
0.132925
0.148041
0.159794
0.00467565
0.011867
0.0230071
0.0393414
0.0572197
0.0748028
0.0916536
0.10489
8.29248e-05
0.000512562
0.00195041
0.00579913
0.012555
0.0219535
0.0333301
0.0435128
4.09003e-07
1.35021e-06
1.23372e-05
9.43385e-05
0.000423222
0.0012933
0.00299426
0.00510768
3.59656e-07
3.59652e-07
3.61295e-07
3.88553e-07
7.18841e-07
3.18407e-06
1.41183e-05
3.87355e-05
3.60348e-07
3.60187e-07
3.59602e-07
3.5883e-07
3.58133e-07
3.57251e-07
3.57253e-07
3.58641e-07
3.60447e-07
3.60274e-07
3.59894e-07
3.59534e-07
3.58944e-07
3.57941e-07
3.56958e-07
3.55857e-07
3.6063e-07
3.60553e-07
3.60205e-07
3.59911e-07
3.59419e-07
3.58576e-07
3.57754e-07
3.56889e-07
3.60748e-07
3.60648e-07
3.60344e-07
3.60184e-07
3.59795e-07
3.59134e-07
3.58386e-07
3.57635e-07
3.6087e-07
3.6078e-07
3.60539e-07
3.60459e-07
3.6007e-07
3.59559e-07
3.5897e-07
3.58321e-07
3.60941e-07
3.60838e-07
3.60632e-07
3.60584e-07
3.60284e-07
3.5995e-07
3.59472e-07
3.58891e-07
3.61052e-07
3.60928e-07
3.60777e-07
3.60744e-07
3.6048e-07
3.60262e-07
3.59818e-07
3.5938e-07
3.61111e-07
3.60973e-07
3.60825e-07
3.60804e-07
3.60567e-07
3.60447e-07
3.60072e-07
3.59783e-07
3.61166e-07
3.61074e-07
3.60987e-07
3.60898e-07
3.6071e-07
3.60662e-07
3.60343e-07
3.60067e-07
3.61192e-07
3.61109e-07
3.61094e-07
3.60919e-07
3.60781e-07
3.60739e-07
3.60448e-07
3.60233e-07
3.6125e-07
3.6118e-07
3.61159e-07
3.60986e-07
3.60881e-07
3.60849e-07
3.60594e-07
3.60465e-07
3.61289e-07
3.61236e-07
3.61172e-07
3.61019e-07
3.60897e-07
3.60895e-07
3.60662e-07
3.60576e-07
3.61338e-07
3.61271e-07
3.6119e-07
3.61097e-07
3.61033e-07
3.60955e-07
3.60754e-07
3.60708e-07
3.61358e-07
3.61305e-07
3.61217e-07
3.61137e-07
3.61135e-07
3.60954e-07
3.60821e-07
3.60792e-07
3.61389e-07
3.61339e-07
3.61267e-07
3.61165e-07
3.61177e-07
3.60997e-07
3.60837e-07
3.60849e-07
3.61435e-07
3.61387e-07
3.61307e-07
3.6123e-07
3.61164e-07
3.61065e-07
3.60971e-07
3.60899e-07
3.61446e-07
3.61401e-07
3.61329e-07
3.61273e-07
3.6121e-07
3.6108e-07
3.61085e-07
3.60905e-07
3.61489e-07
3.61446e-07
3.61377e-07
3.61307e-07
3.61263e-07
3.61154e-07
3.61125e-07
3.60966e-07
3.61498e-07
3.61456e-07
3.61397e-07
3.61351e-07
3.61272e-07
3.61189e-07
3.61142e-07
3.60996e-07
3.61526e-07
3.61487e-07
3.61437e-07
3.61386e-07
3.61333e-07
3.61249e-07
3.61198e-07
3.61084e-07
3.61507e-07
3.61481e-07
3.61444e-07
3.61399e-07
3.61347e-07
3.61276e-07
3.61219e-07
3.61092e-07
3.61496e-07
3.6148e-07
3.61459e-07
3.6142e-07
3.61385e-07
3.61322e-07
3.61277e-07
3.61205e-07
3.61415e-07
3.61408e-07
3.61395e-07
3.61374e-07
3.61348e-07
3.61301e-07
3.61253e-07
3.61175e-07
3.61376e-07
3.61373e-07
3.61364e-07
3.61356e-07
3.61341e-07
3.61311e-07
3.61282e-07
3.61229e-07
3.6134e-07
3.6133e-07
3.61313e-07
3.61296e-07
3.61266e-07
3.61236e-07
3.61202e-07
3.61159e-07
3.61335e-07
3.61325e-07
3.61309e-07
3.61291e-07
3.61257e-07
3.61226e-07
3.61189e-07
3.61149e-07
3.61335e-07
3.61325e-07
3.61309e-07
3.6129e-07
3.61252e-07
3.61217e-07
3.6117e-07
3.6113e-07
3.61364e-07
3.61357e-07
3.61345e-07
3.61328e-07
3.61297e-07
3.61261e-07
3.61205e-07
3.61156e-07
3.61401e-07
3.61394e-07
3.61383e-07
3.61367e-07
3.61344e-07
3.61322e-07
3.61285e-07
3.61251e-07
3.61353e-07
3.61382e-07
3.61402e-07
3.6141e-07
3.61411e-07
3.61405e-07
3.61385e-07
3.61368e-07
3.61213e-07
3.61244e-07
3.61267e-07
3.61284e-07
3.61295e-07
3.61301e-07
3.61297e-07
3.61294e-07
3.61166e-07
3.61194e-07
3.61214e-07
3.61229e-07
3.61238e-07
3.61243e-07
3.6124e-07
3.61236e-07
3.61246e-07
3.61244e-07
3.61241e-07
3.61239e-07
3.61235e-07
3.61231e-07
3.6122e-07
3.6121e-07
3.62392e-07
3.62175e-07
3.61983e-07
3.61817e-07
3.61674e-07
3.61553e-07
3.6145e-07
3.61364e-07
3.70022e-07
3.68807e-07
3.67676e-07
3.66636e-07
3.65693e-07
3.64851e-07
3.64109e-07
3.63465e-07
4.037e-07
4.00297e-07
3.96831e-07
3.93341e-07
3.89869e-07
3.86458e-07
3.83152e-07
3.79991e-07
4.76033e-07
4.73377e-07
4.70358e-07
4.66948e-07
4.6312e-07
4.58853e-07
4.54131e-07
4.48941e-07
5.43512e-07
5.43489e-07
5.43432e-07
5.43327e-07
5.43156e-07
5.42896e-07
5.42517e-07
5.41985e-07
5.08296e-10
6.64499e-10
7.41833e-10
7.46349e-10
7.45169e-10
7.33946e-10
7.34506e-10
7.36236e-10
7.39312e-10
7.42726e-10
7.46097e-10
7.49499e-10
7.52486e-10
7.54849e-10
7.57737e-10
7.59898e-10
7.6114e-10
7.61717e-10
7.62512e-10
7.63903e-10
7.64932e-10
7.65909e-10
7.67343e-10
7.68217e-10
7.68047e-10
7.66709e-10
7.63881e-10
7.61524e-10
7.61217e-10
7.6155e-10
7.59301e-10
7.56567e-10
7.54683e-10
7.51142e-10
7.49489e-10
7.46408e-10
7.42762e-10
7.38388e-10
7.3439e-10
7.3312e-10
7.36019e-10
7.40585e-10
7.43255e-10
7.41915e-10
7.34592e-10
7.25209e-10
7.19089e-10
7.17111e-10
7.16966e-10
7.1581e-10
7.133e-10
7.03469e-10
6.93589e-10
6.89951e-10
6.91974e-10
7.01497e-10
7.1162e-10
7.1975e-10
7.31325e-10
7.4077e-10
7.40833e-10
7.38179e-10
7.37097e-10
7.40949e-10
7.48911e-10
7.68673e-10
8.09428e-10
8.4279e-10
8.49468e-10
8.41641e-10
8.39445e-10
8.43372e-10
8.40469e-10
8.08615e-10
7.85181e-10
8.04355e-10
8.34921e-10
8.64389e-10
8.8507e-10
8.8799e-10
8.85755e-10
8.94089e-10
9.10671e-10
9.34601e-10
9.54037e-10
9.52013e-10
9.36387e-10
9.18802e-10
9.21014e-10
9.3163e-10
9.41554e-10
9.43981e-10
9.32077e-10
9.05104e-10
8.7945e-10
8.6099e-10
8.38023e-10
8.26475e-10
8.18132e-10
8.22137e-10
8.24683e-10
8.28571e-10
8.3422e-10
8.52961e-10
8.94482e-10
9.39572e-10
9.72561e-10
9.82052e-10
9.80399e-10
9.70192e-10
9.51975e-10
9.31182e-10
9.39057e-10
9.59152e-10
9.55192e-10
9.32833e-10
8.98708e-10
8.61375e-10
8.45376e-10
8.67742e-10
9.03789e-10
9.35141e-10
9.5786e-10
9.6712e-10
9.65531e-10
9.60411e-10
9.54126e-10
9.58713e-10
9.6356e-10
9.58344e-10
9.42439e-10
9.18664e-10
8.93427e-10
8.73447e-10
8.61194e-10
8.54081e-10
8.48224e-10
8.40935e-10
8.30842e-10
8.17801e-10
8.02703e-10
7.86904e-10
7.71923e-10
7.58821e-10
7.47986e-10
7.39376e-10
7.34803e-10
7.41679e-10
7.59923e-10
7.87765e-10
8.22728e-10
8.60941e-10
8.96758e-10
9.23958e-10
9.37457e-10
9.3482e-10
4.64262e-08
7.30581e-08
8.7646e-08
8.79466e-08
8.7926e-08
8.70952e-08
8.71822e-08
8.74158e-08
8.78919e-08
8.85281e-08
8.91076e-08
8.9599e-08
8.99079e-08
9.0085e-08
9.02237e-08
9.02737e-08
9.0293e-08
9.02984e-08
9.03641e-08
9.04738e-08
9.05602e-08
9.06184e-08
9.06741e-08
9.07161e-08
9.07193e-08
9.0673e-08
9.05536e-08
9.04431e-08
9.03909e-08
9.02849e-08
8.99982e-08
8.96576e-08
8.944e-08
8.91624e-08
8.88013e-08
8.82608e-08
8.74916e-08
8.65671e-08
8.59762e-08
8.58511e-08
8.61034e-08
8.64142e-08
8.63941e-08
8.58934e-08
8.49421e-08
8.39205e-08
8.34668e-08
8.33082e-08
8.26351e-08
8.12008e-08
7.95717e-08
7.70999e-08
7.54705e-08
7.5958e-08
7.72707e-08
7.83901e-08
7.82324e-08
7.70609e-08
7.62514e-08
7.55484e-08
7.49026e-08
7.50326e-08
7.61336e-08
7.7478e-08
7.84237e-08
7.98111e-08
8.22205e-08
8.39142e-08
8.37536e-08
8.28802e-08
8.21108e-08
8.21659e-08
8.34457e-08
8.46651e-08
8.41463e-08
8.37753e-08
8.44977e-08
8.55144e-08
8.59478e-08
8.61826e-08
8.72129e-08
8.90946e-08
9.06287e-08
9.19736e-08
9.31629e-08
9.30191e-08
9.23771e-08
9.16541e-08
9.05191e-08
8.94068e-08
8.83877e-08
8.76088e-08
8.70745e-08
8.65554e-08
8.58298e-08
8.45415e-08
8.28378e-08
8.08539e-08
8.03887e-08
7.97755e-08
7.85921e-08
7.6737e-08
7.61855e-08
7.70827e-08
7.85621e-08
8.08348e-08
8.30181e-08
8.28559e-08
8.24028e-08
8.18588e-08
8.08514e-08
8.04446e-08
8.05918e-08
8.12046e-08
8.05946e-08
7.96333e-08
7.88348e-08
7.82304e-08
7.72549e-08
7.57357e-08
7.49062e-08
7.53835e-08
7.69938e-08
7.92415e-08
8.14653e-08
8.26482e-08
8.22053e-08
8.01966e-08
7.75756e-08
7.50997e-08
7.31012e-08
7.16796e-08
7.07407e-08
7.00269e-08
6.93238e-08
6.85508e-08
6.76459e-08
6.65162e-08
6.50855e-08
6.33502e-08
6.14345e-08
5.95437e-08
5.791e-08
5.67191e-08
5.60671e-08
5.59744e-08
5.6369e-08
5.70597e-08
5.79846e-08
5.91263e-08
6.0467e-08
6.19397e-08
6.34051e-08
6.46808e-08
6.55995e-08
6.60617e-08
2.22163e-07
2.70767e-07
2.87902e-07
2.8819e-07
2.88418e-07
2.87623e-07
2.87897e-07
2.88216e-07
2.88758e-07
2.89403e-07
2.89971e-07
2.90418e-07
2.90681e-07
2.90803e-07
2.90917e-07
2.90927e-07
2.90943e-07
2.90935e-07
2.9101e-07
2.91114e-07
2.91201e-07
2.91254e-07
2.91307e-07
2.91344e-07
2.91348e-07
2.91303e-07
2.91193e-07
2.91084e-07
2.91032e-07
2.90921e-07
2.90651e-07
2.90288e-07
2.90072e-07
2.89794e-07
2.89447e-07
2.88925e-07
2.88172e-07
2.87169e-07
2.86524e-07
2.86427e-07
2.86788e-07
2.87138e-07
2.87078e-07
2.86481e-07
2.85387e-07
2.84178e-07
2.83609e-07
2.83413e-07
2.82711e-07
2.81066e-07
2.78965e-07
2.75775e-07
2.73633e-07
2.74086e-07
2.75398e-07
2.76429e-07
2.75796e-07
2.73837e-07
2.72356e-07
2.71285e-07
2.70536e-07
2.70929e-07
2.7272e-07
2.7476e-07
2.76097e-07
2.77673e-07
2.80207e-07
2.81874e-07
2.81603e-07
2.80653e-07
2.79831e-07
2.80098e-07
2.81987e-07
2.83833e-07
2.83855e-07
2.83918e-07
2.84873e-07
2.85948e-07
2.86255e-07
2.86286e-07
2.86981e-07
2.88479e-07
2.89796e-07
2.91072e-07
2.92213e-07
2.92044e-07
2.91513e-07
2.90949e-07
2.90114e-07
2.8927e-07
2.88464e-07
2.87857e-07
2.87434e-07
2.86916e-07
2.86246e-07
2.85167e-07
2.83645e-07
2.81516e-07
2.80944e-07
2.80259e-07
2.78886e-07
2.76445e-07
2.75471e-07
2.76126e-07
2.77518e-07
2.79896e-07
2.82205e-07
2.8166e-07
2.80864e-07
2.80073e-07
2.78853e-07
2.78573e-07
2.79205e-07
2.80316e-07
2.79811e-07
2.788e-07
2.77845e-07
2.77006e-07
2.75659e-07
2.73633e-07
2.72394e-07
2.72793e-07
2.74627e-07
2.77163e-07
2.7954e-07
2.80648e-07
2.7998e-07
2.77693e-07
2.74665e-07
2.71725e-07
2.69351e-07
2.67698e-07
2.66638e-07
2.65785e-07
2.64828e-07
2.63678e-07
2.62288e-07
2.60579e-07
2.58453e-07
2.55841e-07
2.5288e-07
2.49821e-07
2.47028e-07
2.44834e-07
2.43505e-07
2.43134e-07
2.43556e-07
2.4436e-07
2.45431e-07
2.4675e-07
2.48309e-07
2.50032e-07
2.51745e-07
2.5322e-07
2.54262e-07
2.54747e-07
3.26422e-07
3.44497e-07
3.4936e-07
3.49232e-07
3.49457e-07
3.49187e-07
3.49334e-07
3.49396e-07
3.49551e-07
3.49723e-07
3.49842e-07
3.49975e-07
3.5007e-07
3.50089e-07
3.5014e-07
3.50129e-07
3.50153e-07
3.50149e-07
3.50178e-07
3.502e-07
3.50223e-07
3.50228e-07
3.5024e-07
3.50261e-07
3.50267e-07
3.50255e-07
3.50225e-07
3.50195e-07
3.50165e-07
3.50147e-07
3.50089e-07
3.49966e-07
3.49919e-07
3.4985e-07
3.49771e-07
3.49632e-07
3.4943e-07
3.49124e-07
3.48943e-07
3.48949e-07
3.49059e-07
3.49138e-07
3.49068e-07
3.4888e-07
3.48574e-07
3.48252e-07
3.48117e-07
3.4805e-07
3.47845e-07
3.47397e-07
3.46718e-07
3.45822e-07
3.45147e-07
3.45277e-07
3.45602e-07
3.45823e-07
3.45597e-07
3.44904e-07
3.44382e-07
3.4409e-07
3.43848e-07
3.44013e-07
3.44577e-07
3.45297e-07
3.45785e-07
3.46148e-07
3.46895e-07
3.47339e-07
3.47299e-07
3.47075e-07
3.46803e-07
3.4692e-07
3.47534e-07
3.47955e-07
3.47873e-07
3.47874e-07
3.48199e-07
3.48574e-07
3.48678e-07
3.48654e-07
3.48834e-07
3.49289e-07
3.49646e-07
3.49985e-07
3.50325e-07
3.50258e-07
3.50141e-07
3.49992e-07
3.49768e-07
3.49487e-07
3.49198e-07
3.49025e-07
3.48937e-07
3.48761e-07
3.4864e-07
3.48468e-07
3.48063e-07
3.4734e-07
3.47285e-07
3.47178e-07
3.46864e-07
3.4616e-07
3.45863e-07
3.46014e-07
3.46357e-07
3.47037e-07
3.47755e-07
3.47499e-07
3.47266e-07
3.47099e-07
3.46722e-07
3.46716e-07
3.46935e-07
3.47136e-07
3.46905e-07
3.4668e-07
3.46472e-07
3.46322e-07
3.45965e-07
3.4531e-07
3.44836e-07
3.4489e-07
3.45465e-07
3.46232e-07
3.46929e-07
3.47243e-07
3.47054e-07
3.46326e-07
3.45351e-07
3.44397e-07
3.43674e-07
3.43199e-07
3.42893e-07
3.42641e-07
3.42338e-07
3.41968e-07
3.41516e-07
3.40965e-07
3.40271e-07
3.39415e-07
3.38409e-07
3.37333e-07
3.36344e-07
3.35545e-07
3.35089e-07
3.34955e-07
3.35124e-07
3.35392e-07
3.35708e-07
3.36077e-07
3.36517e-07
3.37019e-07
3.37536e-07
3.37986e-07
3.38303e-07
3.38453e-07
3.54467e-07
3.57165e-07
3.57888e-07
3.57885e-07
3.58117e-07
3.58032e-07
3.58126e-07
3.58128e-07
3.5816e-07
3.58177e-07
3.58203e-07
3.58215e-07
3.58234e-07
3.58222e-07
3.5824e-07
3.58228e-07
3.58239e-07
3.58233e-07
3.58242e-07
3.58246e-07
3.58253e-07
3.58248e-07
3.58255e-07
3.58257e-07
3.58257e-07
3.5825e-07
3.58242e-07
3.58233e-07
3.58235e-07
3.58226e-07
3.58216e-07
3.58158e-07
3.5815e-07
3.5812e-07
3.58107e-07
3.58071e-07
3.58042e-07
3.57987e-07
3.57977e-07
3.5798e-07
3.58002e-07
3.57994e-07
3.57973e-07
3.57951e-07
3.57916e-07
3.57836e-07
3.57807e-07
3.57755e-07
3.57677e-07
3.57589e-07
3.57454e-07
3.57345e-07
3.57179e-07
3.5719e-07
3.57179e-07
3.57153e-07
3.57123e-07
3.56978e-07
3.56817e-07
3.56772e-07
3.56718e-07
3.56733e-07
3.56796e-07
3.56987e-07
3.57087e-07
3.57044e-07
3.57229e-07
3.5734e-07
3.57334e-07
3.57311e-07
3.57222e-07
3.57294e-07
3.57515e-07
3.57498e-07
3.57395e-07
3.57428e-07
3.57609e-07
3.5782e-07
3.57875e-07
3.57848e-07
3.57866e-07
3.58011e-07
3.58109e-07
3.58207e-07
3.5833e-07
3.58289e-07
3.58268e-07
3.58212e-07
3.58154e-07
3.58101e-07
3.57995e-07
3.57924e-07
3.57925e-07
3.57828e-07
3.57835e-07
3.57896e-07
3.5779e-07
3.57492e-07
3.57553e-07
3.57606e-07
3.57621e-07
3.57488e-07
3.57401e-07
3.57377e-07
3.57405e-07
3.57572e-07
3.57836e-07
3.57685e-07
3.5762e-07
3.57592e-07
3.57449e-07
3.57495e-07
3.57623e-07
3.57588e-07
3.57448e-07
3.57465e-07
3.5748e-07
3.5751e-07
3.57423e-07
3.5725e-07
3.57097e-07
3.57074e-07
3.57234e-07
3.57431e-07
3.576e-07
3.57664e-07
3.57612e-07
3.57404e-07
3.57137e-07
3.56893e-07
3.56761e-07
3.56703e-07
3.56665e-07
3.56619e-07
3.56556e-07
3.56452e-07
3.56339e-07
3.56196e-07
3.56048e-07
3.55888e-07
3.557e-07
3.55492e-07
3.55268e-07
3.55139e-07
3.55006e-07
3.54992e-07
3.55015e-07
3.55031e-07
3.55024e-07
3.55008e-07
3.55007e-07
3.55047e-07
3.55108e-07
3.55179e-07
3.55228e-07
3.55244e-07
3.59934e-07
3.58898e-07
3.58885e-07
3.58655e-07
3.58816e-07
3.58698e-07
3.58785e-07
3.58769e-07
3.58793e-07
3.58815e-07
3.58801e-07
3.58837e-07
3.58881e-07
3.5887e-07
3.58901e-07
3.58887e-07
3.58915e-07
3.58914e-07
3.58927e-07
3.58925e-07
3.58932e-07
3.58926e-07
3.58925e-07
3.5895e-07
3.58959e-07
3.58953e-07
3.58943e-07
3.58939e-07
3.58912e-07
3.58932e-07
3.58949e-07
3.58916e-07
3.58928e-07
3.58919e-07
3.58927e-07
3.58914e-07
3.58905e-07
3.58852e-07
3.58815e-07
3.58854e-07
3.5887e-07
3.58877e-07
3.58831e-07
3.58797e-07
3.58761e-07
3.5874e-07
3.58735e-07
3.58701e-07
3.58657e-07
3.58657e-07
3.58531e-07
3.58533e-07
3.58435e-07
3.58435e-07
3.58383e-07
3.58324e-07
3.58301e-07
3.58171e-07
3.58039e-07
3.58069e-07
3.58005e-07
3.58001e-07
3.5799e-07
3.58113e-07
3.5824e-07
3.58174e-07
3.58307e-07
3.58352e-07
3.58386e-07
3.58408e-07
3.58343e-07
3.58418e-07
3.58554e-07
3.58441e-07
3.58327e-07
3.58372e-07
3.58539e-07
3.58732e-07
3.58802e-07
3.58777e-07
3.58772e-07
3.58861e-07
3.58919e-07
3.58989e-07
3.59092e-07
3.59055e-07
3.59048e-07
3.59014e-07
3.58996e-07
3.58917e-07
3.58819e-07
3.588e-07
3.58814e-07
3.58727e-07
3.5875e-07
3.58859e-07
3.5882e-07
3.58584e-07
3.58655e-07
3.58755e-07
3.58838e-07
3.58811e-07
3.58763e-07
3.58677e-07
3.58662e-07
3.58771e-07
3.58978e-07
3.58843e-07
3.58805e-07
3.58782e-07
3.58661e-07
3.58727e-07
3.58864e-07
3.58818e-07
3.58714e-07
3.58766e-07
3.58773e-07
3.58788e-07
3.58764e-07
3.58713e-07
3.58665e-07
3.58649e-07
3.5872e-07
3.58791e-07
3.58839e-07
3.58853e-07
3.58815e-07
3.58715e-07
3.58606e-07
3.58511e-07
3.58473e-07
3.5848e-07
3.58499e-07
3.58499e-07
3.58489e-07
3.58482e-07
3.58476e-07
3.58473e-07
3.5847e-07
3.58429e-07
3.58399e-07
3.58374e-07
3.5837e-07
3.58327e-07
3.58332e-07
3.58333e-07
3.5834e-07
3.58316e-07
3.5825e-07
3.58157e-07
3.58064e-07
3.57991e-07
3.57955e-07
3.57935e-07
3.5792e-07
3.57884e-07
3.61064e-07
3.58718e-07
3.58712e-07
3.58817e-07
3.5908e-07
3.59024e-07
3.59107e-07
3.59096e-07
3.59106e-07
3.59097e-07
3.59104e-07
3.59101e-07
3.5911e-07
3.59094e-07
3.59107e-07
3.59092e-07
3.59102e-07
3.59093e-07
3.59097e-07
3.59094e-07
3.59095e-07
3.59089e-07
3.59097e-07
3.59083e-07
3.59079e-07
3.59073e-07
3.59073e-07
3.59067e-07
3.59082e-07
3.59067e-07
3.59059e-07
3.59003e-07
3.59005e-07
3.5899e-07
3.58985e-07
3.5897e-07
3.58974e-07
3.58964e-07
3.58982e-07
3.58978e-07
3.5899e-07
3.58967e-07
3.58953e-07
3.58974e-07
3.58991e-07
3.58954e-07
3.58952e-07
3.58899e-07
3.58853e-07
3.58835e-07
3.58808e-07
3.58862e-07
3.58805e-07
3.58792e-07
3.58707e-07
3.58624e-07
3.58654e-07
3.58623e-07
3.58547e-07
3.58572e-07
3.58553e-07
3.58539e-07
3.58499e-07
3.58573e-07
3.58597e-07
3.58466e-07
3.58546e-07
3.58596e-07
3.58594e-07
3.58619e-07
3.58564e-07
3.58632e-07
3.58757e-07
3.58659e-07
3.58544e-07
3.58578e-07
3.58732e-07
3.58916e-07
3.58974e-07
3.58947e-07
3.58933e-07
3.59015e-07
3.59056e-07
3.59113e-07
3.59217e-07
3.59183e-07
3.59184e-07
3.59148e-07
3.59131e-07
3.59094e-07
3.59019e-07
3.58981e-07
3.58999e-07
3.58912e-07
3.58934e-07
3.59039e-07
3.59e-07
3.58775e-07
3.58848e-07
3.5895e-07
3.59036e-07
3.59014e-07
3.58968e-07
3.58912e-07
3.58887e-07
3.58964e-07
3.5914e-07
3.59001e-07
3.58952e-07
3.58978e-07
3.58877e-07
3.58931e-07
3.59045e-07
3.58983e-07
3.58872e-07
3.58925e-07
3.58964e-07
3.5902e-07
3.58991e-07
3.58937e-07
3.58861e-07
3.58834e-07
3.58907e-07
3.58973e-07
3.59012e-07
3.59017e-07
3.58995e-07
3.58905e-07
3.58802e-07
3.58721e-07
3.58732e-07
3.58781e-07
3.58798e-07
3.58796e-07
3.58775e-07
3.58747e-07
3.58719e-07
3.58709e-07
3.5872e-07
3.58775e-07
3.58811e-07
3.58841e-07
3.58863e-07
3.58903e-07
3.58907e-07
3.58911e-07
3.58902e-07
3.58856e-07
3.58769e-07
3.58655e-07
3.58545e-07
3.58457e-07
3.58396e-07
3.58365e-07
3.5834e-07
3.5832e-07
3.61134e-07
3.59202e-07
3.59025e-07
3.58779e-07
3.589e-07
3.58773e-07
3.58854e-07
3.58832e-07
3.58859e-07
3.58888e-07
3.58864e-07
3.58912e-07
3.5897e-07
3.5896e-07
3.58996e-07
3.58984e-07
3.59012e-07
3.59012e-07
3.59024e-07
3.59027e-07
3.59038e-07
3.59032e-07
3.59028e-07
3.59061e-07
3.59062e-07
3.59054e-07
3.59045e-07
3.59036e-07
3.59009e-07
3.59031e-07
3.59041e-07
3.59011e-07
3.59016e-07
3.59005e-07
3.59015e-07
3.59004e-07
3.58998e-07
3.58954e-07
3.58933e-07
3.58966e-07
3.58975e-07
3.58979e-07
3.58948e-07
3.58912e-07
3.58869e-07
3.58859e-07
3.58844e-07
3.58813e-07
3.58778e-07
3.58789e-07
3.58681e-07
3.58698e-07
3.58618e-07
3.5861e-07
3.58544e-07
3.58484e-07
3.58455e-07
3.58314e-07
3.58174e-07
3.58216e-07
3.58174e-07
3.58163e-07
3.58141e-07
3.58247e-07
3.58377e-07
3.58319e-07
3.58443e-07
3.58474e-07
3.5852e-07
3.58541e-07
3.58488e-07
3.58558e-07
3.58686e-07
3.58542e-07
3.58436e-07
3.58499e-07
3.58668e-07
3.58858e-07
3.58924e-07
3.58898e-07
3.58883e-07
3.58961e-07
3.59007e-07
3.59073e-07
3.59173e-07
3.59137e-07
3.59128e-07
3.59099e-07
3.59085e-07
3.59033e-07
3.58951e-07
3.58926e-07
3.58941e-07
3.58851e-07
3.58873e-07
3.58987e-07
3.58957e-07
3.58733e-07
3.58815e-07
3.58918e-07
3.59004e-07
3.58988e-07
3.58946e-07
3.58872e-07
3.58855e-07
3.58932e-07
3.59119e-07
3.5899e-07
3.58955e-07
3.58951e-07
3.58849e-07
3.58919e-07
3.59035e-07
3.58974e-07
3.58869e-07
3.58927e-07
3.58951e-07
3.58987e-07
3.58972e-07
3.58931e-07
3.58883e-07
3.5886e-07
3.58924e-07
3.58978e-07
3.59013e-07
3.59012e-07
3.58988e-07
3.5891e-07
3.58826e-07
3.58753e-07
3.58747e-07
3.58779e-07
3.588e-07
3.58804e-07
3.58798e-07
3.58785e-07
3.58779e-07
3.58779e-07
3.58798e-07
3.5882e-07
3.58851e-07
3.58878e-07
3.5891e-07
3.58937e-07
3.58958e-07
3.58959e-07
3.58951e-07
3.58905e-07
3.5881e-07
3.58692e-07
3.58574e-07
3.58485e-07
3.5842e-07
3.58384e-07
3.5835e-07
3.58342e-07
3.60983e-07
3.58324e-07
3.58519e-07
3.58805e-07
3.59102e-07
3.59046e-07
3.59124e-07
3.59111e-07
3.5912e-07
3.5911e-07
3.59118e-07
3.59115e-07
3.5912e-07
3.59103e-07
3.59113e-07
3.59095e-07
3.59101e-07
3.59087e-07
3.59089e-07
3.59078e-07
3.59068e-07
3.59063e-07
3.59074e-07
3.59038e-07
3.59044e-07
3.59047e-07
3.59049e-07
3.59049e-07
3.59062e-07
3.59045e-07
3.59041e-07
3.5898e-07
3.58982e-07
3.5897e-07
3.58962e-07
3.58944e-07
3.58947e-07
3.58943e-07
3.58951e-07
3.58948e-07
3.58968e-07
3.58944e-07
3.58922e-07
3.58955e-07
3.58978e-07
3.58933e-07
3.58939e-07
3.5889e-07
3.5884e-07
3.58822e-07
3.58803e-07
3.58863e-07
3.58807e-07
3.58794e-07
3.58709e-07
3.58615e-07
3.58659e-07
3.58633e-07
3.58556e-07
3.58584e-07
3.58564e-07
3.58558e-07
3.58518e-07
3.58592e-07
3.5861e-07
3.58477e-07
3.58549e-07
3.58603e-07
3.58593e-07
3.5863e-07
3.58558e-07
3.58629e-07
3.58757e-07
3.58679e-07
3.58554e-07
3.58571e-07
3.58726e-07
3.58911e-07
3.58962e-07
3.58945e-07
3.58932e-07
3.59011e-07
3.59057e-07
3.59117e-07
3.59216e-07
3.59182e-07
3.59195e-07
3.59151e-07
3.59131e-07
3.59086e-07
3.59005e-07
3.5897e-07
3.58988e-07
3.58901e-07
3.58926e-07
3.59036e-07
3.58997e-07
3.58778e-07
3.58856e-07
3.58956e-07
3.59041e-07
3.59027e-07
3.58987e-07
3.58915e-07
3.58887e-07
3.58964e-07
3.59149e-07
3.59014e-07
3.58981e-07
3.58989e-07
3.58882e-07
3.58944e-07
3.59064e-07
3.59002e-07
3.58896e-07
3.58954e-07
3.58984e-07
3.59026e-07
3.5901e-07
3.58961e-07
3.5891e-07
3.58883e-07
3.58947e-07
3.59003e-07
3.5904e-07
3.59044e-07
3.5902e-07
3.58939e-07
3.58849e-07
3.58779e-07
3.5878e-07
3.58815e-07
3.58836e-07
3.58841e-07
3.5883e-07
3.58822e-07
3.58807e-07
3.58812e-07
3.58834e-07
3.58857e-07
3.5889e-07
3.5892e-07
3.58953e-07
3.5897e-07
3.58977e-07
3.58999e-07
3.58989e-07
3.58937e-07
3.58852e-07
3.5873e-07
3.58618e-07
3.58517e-07
3.5846e-07
3.58417e-07
3.5841e-07
3.58362e-07
3.61277e-07
3.59281e-07
3.59099e-07
3.58837e-07
3.58899e-07
3.58749e-07
3.58823e-07
3.58795e-07
3.58835e-07
3.58876e-07
3.5885e-07
3.58914e-07
3.58991e-07
3.58981e-07
3.59021e-07
3.59009e-07
3.59033e-07
3.5902e-07
3.5903e-07
3.59047e-07
3.59066e-07
3.59057e-07
3.59052e-07
3.59074e-07
3.59076e-07
3.59077e-07
3.59072e-07
3.59062e-07
3.59051e-07
3.5905e-07
3.59055e-07
3.59028e-07
3.59031e-07
3.5902e-07
3.59029e-07
3.59018e-07
3.5901e-07
3.58978e-07
3.58962e-07
3.58979e-07
3.5899e-07
3.58993e-07
3.58969e-07
3.58942e-07
3.58892e-07
3.58873e-07
3.58858e-07
3.58822e-07
3.58789e-07
3.588e-07
3.58689e-07
3.58692e-07
3.586e-07
3.58592e-07
3.58532e-07
3.58482e-07
3.58447e-07
3.58274e-07
3.58118e-07
3.5816e-07
3.58125e-07
3.581e-07
3.58077e-07
3.58193e-07
3.58332e-07
3.58289e-07
3.5843e-07
3.58462e-07
3.58516e-07
3.58519e-07
3.58496e-07
3.58566e-07
3.58678e-07
3.58511e-07
3.58416e-07
3.58506e-07
3.58674e-07
3.58865e-07
3.58952e-07
3.58905e-07
3.58889e-07
3.58965e-07
3.59011e-07
3.59077e-07
3.59182e-07
3.59147e-07
3.59113e-07
3.59093e-07
3.59095e-07
3.59049e-07
3.5897e-07
3.58939e-07
3.58954e-07
3.58865e-07
3.58887e-07
3.58998e-07
3.58968e-07
3.58744e-07
3.58823e-07
3.58929e-07
3.59017e-07
3.59002e-07
3.58961e-07
3.58888e-07
3.58864e-07
3.5894e-07
3.59124e-07
3.59e-07
3.58961e-07
3.58965e-07
3.58863e-07
3.58925e-07
3.59045e-07
3.58986e-07
3.5888e-07
3.58938e-07
3.58965e-07
3.59006e-07
3.58986e-07
3.58946e-07
3.5889e-07
3.58868e-07
3.58932e-07
3.58988e-07
3.59021e-07
3.59023e-07
3.59e-07
3.5892e-07
3.58835e-07
3.58765e-07
3.58761e-07
3.58805e-07
3.58824e-07
3.58822e-07
3.58823e-07
3.588e-07
3.58802e-07
3.58796e-07
3.58814e-07
3.58848e-07
3.58879e-07
3.58917e-07
3.58947e-07
3.58976e-07
3.58997e-07
3.58996e-07
3.58988e-07
3.58943e-07
3.58849e-07
3.58736e-07
3.58611e-07
3.58525e-07
3.58462e-07
3.58425e-07
3.58395e-07
3.58373e-07
3.60837e-07
3.57789e-07
3.58253e-07
3.58728e-07
3.59083e-07
3.59037e-07
3.59118e-07
3.59105e-07
3.59116e-07
3.591e-07
3.59105e-07
3.59099e-07
3.59095e-07
3.59074e-07
3.59082e-07
3.59063e-07
3.5907e-07
3.59058e-07
3.59062e-07
3.59032e-07
3.59008e-07
3.59003e-07
3.5902e-07
3.58979e-07
3.58987e-07
3.58988e-07
3.58996e-07
3.59002e-07
3.59014e-07
3.59019e-07
3.59016e-07
3.58949e-07
3.58951e-07
3.58939e-07
3.58923e-07
3.58905e-07
3.58906e-07
3.58903e-07
3.58912e-07
3.58906e-07
3.58934e-07
3.58909e-07
3.58879e-07
3.58906e-07
3.58948e-07
3.58909e-07
3.58911e-07
3.58869e-07
3.58821e-07
3.58802e-07
3.5879e-07
3.58856e-07
3.58802e-07
3.58792e-07
3.58703e-07
3.58599e-07
3.58655e-07
3.58633e-07
3.58547e-07
3.5857e-07
3.58554e-07
3.58558e-07
3.58528e-07
3.58607e-07
3.58632e-07
3.58503e-07
3.58559e-07
3.58609e-07
3.58611e-07
3.58657e-07
3.58561e-07
3.58616e-07
3.58765e-07
3.58707e-07
3.58579e-07
3.58559e-07
3.58715e-07
3.58896e-07
3.58929e-07
3.58934e-07
3.58922e-07
3.59015e-07
3.59056e-07
3.59109e-07
3.59211e-07
3.59176e-07
3.59214e-07
3.5917e-07
3.59129e-07
3.59075e-07
3.58993e-07
3.58962e-07
3.58978e-07
3.58892e-07
3.58915e-07
3.59024e-07
3.58993e-07
3.5877e-07
3.58849e-07
3.58951e-07
3.59034e-07
3.59018e-07
3.58976e-07
3.58902e-07
3.58876e-07
3.58959e-07
3.59142e-07
3.59012e-07
3.58974e-07
3.5898e-07
3.58875e-07
3.58937e-07
3.59059e-07
3.58999e-07
3.58895e-07
3.58952e-07
3.58979e-07
3.5902e-07
3.59003e-07
3.58959e-07
3.58904e-07
3.5888e-07
3.58945e-07
3.58999e-07
3.59036e-07
3.59038e-07
3.59018e-07
3.58938e-07
3.5885e-07
3.58777e-07
3.58781e-07
3.58809e-07
3.58834e-07
3.58837e-07
3.5883e-07
3.58814e-07
3.58809e-07
3.58806e-07
3.58823e-07
3.58856e-07
3.58891e-07
3.58923e-07
3.58954e-07
3.58982e-07
3.59009e-07
3.59003e-07
3.58994e-07
3.58948e-07
3.58854e-07
3.58729e-07
3.58619e-07
3.58519e-07
3.58464e-07
3.58429e-07
3.58392e-07
3.58374e-07
3.61426e-07
3.59314e-07
3.59134e-07
3.58859e-07
3.58866e-07
3.58699e-07
3.58772e-07
3.58741e-07
3.58791e-07
3.58846e-07
3.58814e-07
3.58889e-07
3.58982e-07
3.58971e-07
3.59017e-07
3.59005e-07
3.59021e-07
3.59003e-07
3.59021e-07
3.5906e-07
3.59073e-07
3.59066e-07
3.59066e-07
3.59074e-07
3.59076e-07
3.59077e-07
3.59074e-07
3.59072e-07
3.59077e-07
3.59071e-07
3.59074e-07
3.59048e-07
3.59045e-07
3.59032e-07
3.5904e-07
3.59027e-07
3.59024e-07
3.58997e-07
3.58978e-07
3.58989e-07
3.59002e-07
3.59004e-07
3.58981e-07
3.58963e-07
3.58918e-07
3.58885e-07
3.58875e-07
3.58837e-07
3.58799e-07
3.58806e-07
3.58701e-07
3.58674e-07
3.58565e-07
3.58559e-07
3.58512e-07
3.58471e-07
3.58427e-07
3.58211e-07
3.58039e-07
3.58077e-07
3.58062e-07
3.58016e-07
3.57994e-07
3.58113e-07
3.58257e-07
3.58231e-07
3.584e-07
3.58442e-07
3.58468e-07
3.58461e-07
3.58447e-07
3.58549e-07
3.5865e-07
3.58455e-07
3.58368e-07