/*--------------------------------*- C++ -*----------------------------------*\
| =========                 |                                                 |
| \\      /  F ield         | OpenFOAM: The Open Source CFD Toolbox           |
|  \\    /   O peration     | Version:  v1912                                 |
|   \\  /    A nd           | Website:  www.openfoam.com                      |
|    \\/     M anipulation  |                                                 |
\*---------------------------------------------------------------------------*/
FoamFile
{
    version     2.0;
    format      ascii;
    class       volSymmTensorField;
    location    "30";
    object      R;
}
// * * * * * * * * * * * * * * * * * * * * * * * * * * * * * * * * * * * * * //

dimensions      [0 2 -2 0 0 0 0];


internalField   nonuniform List<symmTensor> 
14268
(
(2.74581e-09 -1.39737e-11 0 2.7053e-09 0 2.72574e-09)
(2.73058e-09 -1.40851e-11 0 2.6844e-09 0 2.70773e-09)
(2.71383e-09 -1.41894e-11 0 2.66113e-09 0 2.68764e-09)
(2.68932e-09 -1.41681e-11 0 2.62832e-09 0 2.65908e-09)
(2.66233e-09 -1.41535e-11 0 2.59217e-09 0 2.62744e-09)
(2.6246e-09 -1.39774e-11 0 2.5426e-09 0 2.58388e-09)
(2.59518e-09 -1.40476e-11 0 2.50386e-09 0 2.54977e-09)
(2.57183e-09 -1.49161e-11 0 2.47358e-09 0 2.52299e-09)
(5.6181e-08 -6.0939e-10 0 5.49211e-08 0 5.55611e-08)
(5.58922e-08 -6.09246e-10 0 5.44264e-08 0 5.51712e-08)
(5.55634e-08 -6.08817e-10 0 5.38647e-08 0 5.47233e-08)
(5.50562e-08 -6.04342e-10 0 5.30727e-08 0 5.40772e-08)
(5.44985e-08 -5.99577e-10 0 5.21997e-08 0 5.33596e-08)
(5.37001e-08 -5.88139e-10 0 5.10013e-08 0 5.23651e-08)
(5.30812e-08 -5.86222e-10 0 5.0068e-08 0 5.15877e-08)
(5.25804e-08 -6.09053e-10 0 4.93389e-08 0 5.09721e-08)
(9.10292e-08 -2.05024e-09 0 8.87304e-08 0 8.98685e-08)
(9.10673e-08 -2.02528e-09 0 8.83727e-08 0 8.97117e-08)
(9.11251e-08 -1.99733e-09 0 8.79707e-08 0 8.95345e-08)
(9.11272e-08 -1.96156e-09 0 8.74167e-08 0 8.92628e-08)
(9.11576e-08 -1.92006e-09 0 8.68093e-08 0 8.89643e-08)
(9.11362e-08 -1.86732e-09 0 8.59732e-08 0 8.85318e-08)
(9.11338e-08 -1.82668e-09 0 8.52965e-08 0 8.81855e-08)
(9.11084e-08 -1.88847e-09 0 8.47381e-08 0 8.78988e-08)
(9.76933e-08 -2.71115e-09 0 9.50345e-08 0 9.63751e-08)
(9.7876e-08 -2.68618e-09 0 9.47883e-08 0 9.63471e-08)
(9.81219e-08 -2.65713e-09 0 9.4512e-08 0 9.63273e-08)
(9.8359e-08 -2.62331e-09 0 9.41387e-08 0 9.62666e-08)
(9.86752e-08 -2.58186e-09 0 9.37066e-08 0 9.62074e-08)
(9.90161e-08 -2.52629e-09 0 9.30953e-08 0 9.60867e-08)
(9.93315e-08 -2.47642e-09 0 9.26269e-08 0 9.60092e-08)
(9.95811e-08 -2.58382e-09 0 9.2266e-08 0 9.59549e-08)
(9.86327e-08 -2.89255e-09 0 9.59719e-08 0 9.72844e-08)
(9.88561e-08 -2.86987e-09 0 9.57392e-08 0 9.72826e-08)
(9.91235e-08 -2.84542e-09 0 9.55032e-08 0 9.7293e-08)
(9.94371e-08 -2.8137e-09 0 9.51739e-08 0 9.72888e-08)
(9.98136e-08 -2.77817e-09 0 9.48497e-08 0 9.73042e-08)
(1.00306e-07 -2.72666e-09 0 9.43743e-08 0 9.73067e-08)
(1.00715e-07 -2.68505e-09 0 9.40027e-08 0 9.73184e-08)
(1.01035e-07 -2.81565e-09 0 9.37104e-08 0 9.73332e-08)
(9.864e-08 -2.92499e-09 0 9.59253e-08 0 9.72953e-08)
(9.88863e-08 -2.90134e-09 0 9.56839e-08 0 9.73015e-08)
(9.91618e-08 -2.87871e-09 0 9.54609e-08 0 9.7323e-08)
(9.94753e-08 -2.84959e-09 0 9.51315e-08 0 9.73222e-08)
(9.98577e-08 -2.81613e-09 0 9.4775e-08 0 9.73348e-08)
(1.0032e-07 -2.76609e-09 0 9.42573e-08 0 9.73194e-08)
(1.00739e-07 -2.72196e-09 0 9.38789e-08 0 9.73361e-08)
(1.01067e-07 -2.85632e-09 0 9.35888e-08 0 9.73584e-08)
(9.87149e-08 -2.93583e-09 0 9.60485e-08 0 9.73665e-08)
(9.89569e-08 -2.91345e-09 0 9.58086e-08 0 9.73703e-08)
(9.9222e-08 -2.89222e-09 0 9.55874e-08 0 9.73869e-08)
(9.95535e-08 -2.86252e-09 0 9.52582e-08 0 9.73916e-08)
(9.99401e-08 -2.83083e-09 0 9.49553e-08 0 9.74196e-08)
(1.00442e-07 -2.78482e-09 0 9.44851e-08 0 9.74318e-08)
(1.00862e-07 -2.74034e-09 0 9.41199e-08 0 9.7454e-08)
(1.01202e-07 -2.86865e-09 0 9.38364e-08 0 9.74816e-08)
(9.8658e-08 -2.93625e-09 0 9.5942e-08 0 9.73104e-08)
(9.89036e-08 -2.91331e-09 0 9.56995e-08 0 9.73164e-08)
(9.91785e-08 -2.892e-09 0 9.54776e-08 0 9.73382e-08)
(9.94929e-08 -2.86421e-09 0 9.51437e-08 0 9.73369e-08)
(9.98747e-08 -2.83196e-09 0 9.47817e-08 0 9.73488e-08)
(1.0034e-07 -2.78331e-09 0 9.42719e-08 0 9.73359e-08)
(1.00763e-07 -2.7391e-09 0 9.39017e-08 0 9.73583e-08)
(1.011e-07 -2.86364e-09 0 9.3608e-08 0 9.73838e-08)
(9.87134e-08 -2.94169e-09 0 9.60361e-08 0 9.73638e-08)
(9.89573e-08 -2.91996e-09 0 9.58012e-08 0 9.73693e-08)
(9.92207e-08 -2.90014e-09 0 9.55835e-08 0 9.73864e-08)
(9.95579e-08 -2.87135e-09 0 9.52559e-08 0 9.73927e-08)
(9.9944e-08 -2.84274e-09 0 9.49522e-08 0 9.74207e-08)
(1.00438e-07 -2.79474e-09 0 9.44711e-08 0 9.74268e-08)
(1.00857e-07 -2.74967e-09 0 9.41086e-08 0 9.745e-08)
(1.01192e-07 -2.8689e-09 0 9.38276e-08 0 9.74769e-08)
(9.86891e-08 -2.947e-09 0 9.59762e-08 0 9.73323e-08)
(9.89193e-08 -2.92589e-09 0 9.57359e-08 0 9.73342e-08)
(9.91914e-08 -2.90539e-09 0 9.55009e-08 0 9.73511e-08)
(9.95031e-08 -2.87811e-09 0 9.5151e-08 0 9.73445e-08)
(9.98892e-08 -2.84812e-09 0 9.47994e-08 0 9.73602e-08)
(1.00358e-07 -2.80218e-09 0 9.42961e-08 0 9.73507e-08)
(1.0078e-07 -2.75365e-09 0 9.39272e-08 0 9.73746e-08)
(1.01116e-07 -2.86446e-09 0 9.36372e-08 0 9.74006e-08)
(9.87028e-08 -2.98204e-09 0 9.59714e-08 0 9.73465e-08)
(9.89479e-08 -2.96333e-09 0 9.57387e-08 0 9.7354e-08)
(9.92139e-08 -2.94518e-09 0 9.55274e-08 0 9.73737e-08)
(9.9559e-08 -2.91912e-09 0 9.52181e-08 0 9.7387e-08)
(9.9952e-08 -2.89981e-09 0 9.49122e-08 0 9.74169e-08)
(1.00446e-07 -2.84783e-09 0 9.44434e-08 0 9.74254e-08)
(1.00864e-07 -2.78559e-09 0 9.40965e-08 0 9.74526e-08)
(1.0119e-07 -2.87694e-09 0 9.38217e-08 0 9.74779e-08)
(9.87871e-08 -3.16689e-09 0 9.60569e-08 0 9.73963e-08)
(9.903e-08 -3.16146e-09 0 9.58246e-08 0 9.74053e-08)
(9.93073e-08 -3.14413e-09 0 9.55974e-08 0 9.7425e-08)
(9.96207e-08 -3.14455e-09 0 9.52575e-08 0 9.74245e-08)
(1.00009e-07 -3.10909e-09 0 9.48682e-08 0 9.74311e-08)
(1.00455e-07 -3.01557e-09 0 9.43379e-08 0 9.74075e-08)
(1.00848e-07 -2.88654e-09 0 9.39675e-08 0 9.74212e-08)
(1.01155e-07 -2.89614e-09 0 9.36765e-08 0 9.74333e-08)
(9.896e-08 -3.96347e-09 0 9.58684e-08 0 9.74429e-08)
(9.92192e-08 -3.98601e-09 0 9.56383e-08 0 9.74601e-08)
(9.94975e-08 -3.95112e-09 0 9.5414e-08 0 9.74814e-08)
(9.98183e-08 -3.82694e-09 0 9.51007e-08 0 9.74868e-08)
(1.00154e-07 -3.55235e-09 0 9.48272e-08 0 9.75004e-08)
(1.00569e-07 -3.07607e-09 0 9.44384e-08 0 9.7493e-08)
(1.00836e-07 -2.37008e-09 0 9.41484e-08 0 9.7472e-08)
(1.01117e-07 -2.35541e-09 0 9.38607e-08 0 9.7471e-08)
(9.91258e-08 -4.23565e-09 0 9.60849e-08 0 9.75556e-08)
(9.94226e-08 -4.41893e-09 0 9.58649e-08 0 9.75975e-08)
(9.97386e-08 -4.46319e-09 0 9.56192e-08 0 9.76285e-08)
(1.00163e-07 -4.71567e-09 0 9.52748e-08 0 9.76778e-08)
(1.00567e-07 -4.65111e-09 0 9.49043e-08 0 9.76993e-08)
(1.01117e-07 -4.75758e-09 0 9.43352e-08 0 9.77222e-08)
(1.01373e-07 -4.09668e-09 0 9.4011e-08 0 9.76902e-08)
(1.01686e-07 -4.27864e-09 0 9.37528e-08 0 9.77166e-08)
(9.87078e-08 -3.14793e-09 0 9.59838e-08 0 9.73545e-08)
(9.89924e-08 -3.31688e-09 0 9.57415e-08 0 9.73787e-08)
(9.92622e-08 -3.34591e-09 0 9.55038e-08 0 9.73904e-08)
(9.97128e-08 -3.75989e-09 0 9.51652e-08 0 9.74517e-08)
(1.00202e-07 -3.95496e-09 0 9.48219e-08 0 9.75139e-08)
(1.01033e-07 -4.85628e-09 0 9.4372e-08 0 9.76906e-08)
(1.01761e-07 -5.58739e-09 0 9.39872e-08 0 9.78511e-08)
(1.02517e-07 -6.67123e-09 0 9.37146e-08 0 9.80855e-08)
(9.86801e-08 -2.66715e-09 0 9.60931e-08 0 9.73713e-08)
(9.88883e-08 -2.61676e-09 0 9.5859e-08 0 9.73623e-08)
(9.91436e-08 -2.55439e-09 0 9.56281e-08 0 9.73683e-08)
(9.94298e-08 -2.49202e-09 0 9.53201e-08 0 9.73591e-08)
(9.9804e-08 -2.51545e-09 0 9.49475e-08 0 9.73604e-08)
(1.00299e-07 -2.78136e-09 0 9.44232e-08 0 9.7365e-08)
(1.009e-07 -3.40774e-09 0 9.39837e-08 0 9.74492e-08)
(1.01608e-07 -4.39199e-09 0 9.36221e-08 0 9.76246e-08)
(9.87126e-08 -3.03164e-09 0 9.59625e-08 0 9.73521e-08)
(9.89093e-08 -3.00531e-09 0 9.5761e-08 0 9.73521e-08)
(9.91812e-08 -2.9732e-09 0 9.55158e-08 0 9.73627e-08)
(9.94773e-08 -2.96129e-09 0 9.5184e-08 0 9.73541e-08)
(9.98488e-08 -2.89457e-09 0 9.48846e-08 0 9.73796e-08)
(1.00346e-07 -2.81624e-09 0 9.44487e-08 0 9.74048e-08)
(1.00804e-07 -2.81195e-09 0 9.41384e-08 0 9.74552e-08)
(1.01271e-07 -3.01742e-09 0 9.37983e-08 0 9.75145e-08)
(9.87516e-08 -2.93268e-09 0 9.61181e-08 0 9.74104e-08)
(9.89907e-08 -2.90743e-09 0 9.58634e-08 0 9.74068e-08)
(9.9238e-08 -2.89405e-09 0 9.56595e-08 0 9.74216e-08)
(9.9565e-08 -2.87239e-09 0 9.53363e-08 0 9.74257e-08)
(9.99249e-08 -2.84429e-09 0 9.50156e-08 0 9.74412e-08)
(1.00403e-07 -2.816e-09 0 9.45379e-08 0 9.74528e-08)
(1.00799e-07 -2.7708e-09 0 9.41181e-08 0 9.74543e-08)
(1.0121e-07 -2.84136e-09 0 9.37612e-08 0 9.74841e-08)
(9.86776e-08 -3.08644e-09 0 9.59187e-08 0 9.7326e-08)
(9.89115e-08 -3.06555e-09 0 9.56898e-08 0 9.73305e-08)
(9.91577e-08 -3.05323e-09 0 9.5463e-08 0 9.73377e-08)
(9.94601e-08 -3.03732e-09 0 9.51302e-08 0 9.73306e-08)
(9.98472e-08 -3.01418e-09 0 9.48326e-08 0 9.73677e-08)
(1.00359e-07 -2.9471e-09 0 9.43996e-08 0 9.74036e-08)
(1.00803e-07 -2.84236e-09 0 9.40897e-08 0 9.74553e-08)
(1.01212e-07 -2.84478e-09 0 9.37436e-08 0 9.74854e-08)
(9.87744e-08 -2.94827e-09 0 9.61535e-08 0 9.74257e-08)
(9.90144e-08 -2.92436e-09 0 9.58958e-08 0 9.74218e-08)
(9.9259e-08 -2.91214e-09 0 9.56866e-08 0 9.74336e-08)
(9.95784e-08 -2.89929e-09 0 9.53703e-08 0 9.74373e-08)
(9.99527e-08 -2.88938e-09 0 9.50579e-08 0 9.74624e-08)
(1.00442e-07 -2.87283e-09 0 9.45789e-08 0 9.7477e-08)
(1.00848e-07 -2.82558e-09 0 9.41875e-08 0 9.74925e-08)
(1.01237e-07 -2.88e-09 0 9.38273e-08 0 9.75091e-08)
(9.85882e-08 -2.71319e-09 0 9.58455e-08 0 9.72523e-08)
(9.87944e-08 -2.67559e-09 0 9.56434e-08 0 9.72541e-08)
(9.90563e-08 -2.6914e-09 0 9.54134e-08 0 9.72652e-08)
(9.9359e-08 -2.67113e-09 0 9.50796e-08 0 9.72582e-08)
(9.97482e-08 -2.68707e-09 0 9.47749e-08 0 9.72968e-08)
(1.00259e-07 -2.62081e-09 0 9.4322e-08 0 9.73285e-08)
(1.0073e-07 -2.58491e-09 0 9.40291e-08 0 9.74019e-08)
(1.0115e-07 -2.58366e-09 0 9.36846e-08 0 9.74431e-08)
(9.87781e-08 -3.07759e-09 0 9.60545e-08 0 9.74084e-08)
(9.89771e-08 -2.99995e-09 0 9.58198e-08 0 9.73969e-08)
(9.92515e-08 -2.96891e-09 0 9.55718e-08 0 9.7406e-08)
(9.95705e-08 -2.86338e-09 0 9.52316e-08 0 9.74007e-08)
(9.9971e-08 -2.79361e-09 0 9.48889e-08 0 9.74226e-08)
(1.00454e-07 -2.59092e-09 0 9.4415e-08 0 9.74298e-08)
(1.00847e-07 -2.46226e-09 0 9.4074e-08 0 9.745e-08)
(1.01138e-07 -2.37137e-09 0 9.37648e-08 0 9.74408e-08)
(9.88052e-08 -3.16683e-09 0 9.5987e-08 0 9.73947e-08)
(9.90258e-08 -3.16748e-09 0 9.57916e-08 0 9.74061e-08)
(9.93018e-08 -3.19143e-09 0 9.55689e-08 0 9.74265e-08)
(9.96173e-08 -3.2096e-09 0 9.52521e-08 0 9.74324e-08)
(1.00016e-07 -3.24837e-09 0 9.49212e-08 0 9.74617e-08)
(1.0053e-07 -3.20706e-09 0 9.44229e-08 0 9.74781e-08)
(1.00894e-07 -3.05577e-09 0 9.40638e-08 0 9.74871e-08)
(1.01175e-07 -2.80894e-09 0 9.37545e-08 0 9.74792e-08)
(9.87903e-08 -3.16694e-09 0 9.60486e-08 0 9.74194e-08)
(9.89906e-08 -3.14654e-09 0 9.58113e-08 0 9.74094e-08)
(9.92554e-08 -3.16834e-09 0 9.55765e-08 0 9.74217e-08)
(9.96094e-08 -3.17859e-09 0 9.52315e-08 0 9.74306e-08)
(1.0002e-07 -3.18901e-09 0 9.49046e-08 0 9.74631e-08)
(1.00591e-07 -3.12097e-09 0 9.43887e-08 0 9.74898e-08)
(1.01056e-07 -3.00618e-09 0 9.40489e-08 0 9.75313e-08)
(1.01464e-07 -2.73267e-09 0 9.3659e-08 0 9.75294e-08)
(9.88412e-08 -3.28027e-09 0 9.59944e-08 0 9.74089e-08)
(9.90407e-08 -3.29557e-09 0 9.58364e-08 0 9.74263e-08)
(9.93124e-08 -3.3467e-09 0 9.56338e-08 0 9.74535e-08)
(9.96478e-08 -3.39841e-09 0 9.53091e-08 0 9.7465e-08)
(1.00072e-07 -3.48324e-09 0 9.4959e-08 0 9.74987e-08)
(1.00627e-07 -3.43979e-09 0 9.44196e-08 0 9.75163e-08)
(1.01039e-07 -3.26665e-09 0 9.39633e-08 0 9.75149e-08)
(1.01375e-07 -2.75783e-09 0 9.35315e-08 0 9.74817e-08)
(9.87978e-08 -3.26006e-09 0 9.60367e-08 0 9.74247e-08)
(9.89801e-08 -3.2593e-09 0 9.5812e-08 0 9.74129e-08)
(9.92453e-08 -3.32734e-09 0 9.55739e-08 0 9.74262e-08)
(9.95782e-08 -3.38942e-09 0 9.5261e-08 0 9.74403e-08)
(1.00029e-07 -3.462e-09 0 9.49227e-08 0 9.74852e-08)
(1.00672e-07 -3.41058e-09 0 9.43494e-08 0 9.75189e-08)
(1.01283e-07 -3.24959e-09 0 9.39405e-08 0 9.75831e-08)
(1.01943e-07 -2.66009e-09 0 9.33135e-08 0 9.75796e-08)
(9.88773e-08 -3.38997e-09 0 9.60135e-08 0 9.74269e-08)
(9.9039e-08 -3.41761e-09 0 9.59058e-08 0 9.74485e-08)
(9.92958e-08 -3.49702e-09 0 9.57318e-08 0 9.74813e-08)
(9.96432e-08 -3.58733e-09 0 9.54111e-08 0 9.74996e-08)
(1.00108e-07 -3.73618e-09 0 9.50389e-08 0 9.7543e-08)
(1.00748e-07 -3.70658e-09 0 9.44254e-08 0 9.75671e-08)
(1.01304e-07 -3.56377e-09 0 9.3794e-08 0 9.75652e-08)
(1.018e-07 -2.67292e-09 0 9.3127e-08 0 9.75025e-08)
(9.88012e-08 -3.33168e-09 0 9.60065e-08 0 9.74218e-08)
(9.89474e-08 -3.35466e-09 0 9.58069e-08 0 9.7406e-08)
(9.91991e-08 -3.47991e-09 0 9.55775e-08 0 9.74201e-08)
(9.95152e-08 -3.60521e-09 0 9.52935e-08 0 9.74403e-08)
(1.0001e-07 -3.76186e-09 0 9.49432e-08 0 9.75013e-08)
(1.00735e-07 -3.77027e-09 0 9.43153e-08 0 9.75477e-08)
(1.01628e-07 -3.59846e-09 0 9.37446e-08 0 9.76539e-08)
(1.02727e-07 -2.61867e-09 0 9.27122e-08 0 9.76601e-08)
(9.89153e-08 -3.4846e-09 0 9.60533e-08 0 9.74523e-08)
(9.90191e-08 -3.52799e-09 0 9.60085e-08 0 9.74743e-08)
(9.92492e-08 -3.63943e-09 0 9.58701e-08 0 9.75102e-08)
(9.9596e-08 -3.7829e-09 0 9.55747e-08 0 9.75382e-08)
(1.00108e-07 -4.01554e-09 0 9.51901e-08 0 9.75982e-08)
(1.00873e-07 -4.04493e-09 0 9.44836e-08 0 9.76386e-08)
(1.01718e-07 -4.02756e-09 0 9.35784e-08 0 9.76587e-08)
(1.02558e-07 -2.63828e-09 0 9.25216e-08 0 9.75757e-08)
(9.8798e-08 -3.36598e-09 0 9.59531e-08 0 9.74077e-08)
(9.88891e-08 -3.42451e-09 0 9.57949e-08 0 9.73865e-08)
(9.91123e-08 -3.62075e-09 0 9.55899e-08 0 9.74013e-08)
(9.94039e-08 -3.82381e-09 0 9.53427e-08 0 9.74286e-08)
(9.99477e-08 -4.08619e-09 0 9.49818e-08 0 9.75094e-08)
(1.00746e-07 -4.23285e-09 0 9.43286e-08 0 9.75799e-08)
(1.0205e-07 -4.0187e-09 0 9.34604e-08 0 9.77307e-08)
(1.03882e-07 -2.65821e-09 0 9.17746e-08 0 9.77778e-08)
(9.89517e-08 -3.55452e-09 0 9.61121e-08 0 9.74839e-08)
(9.89695e-08 -3.62209e-09 0 9.61428e-08 0 9.74994e-08)
(9.91571e-08 -3.77345e-09 0 9.60474e-08 0 9.75342e-08)
(9.94951e-08 -3.97795e-09 0 9.57892e-08 0 9.75735e-08)
(1.00047e-07 -4.32587e-09 0 9.54145e-08 0 9.76563e-08)
(1.00955e-07 -4.49802e-09 0 9.4631e-08 0 9.77288e-08)
(1.02295e-07 -4.85575e-09 0 9.34224e-08 0 9.78403e-08)
(1.03764e-07 -2.69377e-09 0 9.1847e-08 0 9.77763e-08)
(9.87942e-08 -3.33836e-09 0 9.58831e-08 0 9.73851e-08)
(9.88016e-08 -3.46095e-09 0 9.57922e-08 0 9.73572e-08)
(9.8986e-08 -3.7395e-09 0 9.56236e-08 0 9.73732e-08)
(9.92322e-08 -4.02789e-09 0 9.54334e-08 0 9.74076e-08)
(9.98064e-08 -4.42506e-09 0 9.50813e-08 0 9.75099e-08)
(1.00629e-07 -4.76669e-09 0 9.44716e-08 0 9.76151e-08)
(1.02681e-07 -4.83536e-09 0 9.30734e-08 0 9.78754e-08)
(1.05724e-07 -2.74263e-09 0 9.01086e-08 0 9.79572e-08)
(9.89677e-08 -4.0481e-09 0 9.61514e-08 0 9.7502e-08)
(9.88629e-08 -4.13846e-09 0 9.63056e-08 0 9.75125e-08)
(9.90285e-08 -4.4775e-09 0 9.62528e-08 0 9.75563e-08)
(9.93592e-08 -4.89203e-09 0 9.60524e-08 0 9.76182e-08)
(9.99568e-08 -5.46825e-09 0 9.57152e-08 0 9.77407e-08)
(1.01034e-07 -6.18863e-09 0 9.4909e-08 0 9.78866e-08)
(1.03297e-07 -7.91577e-09 0 9.33739e-08 0 9.82797e-08)
(1.05642e-07 -3.92948e-09 0 9.08762e-08 0 9.81244e-08)
(1.06565e-07 2.38448e-08 0 9.71714e-08 0 1.01837e-07)
(1.08072e-07 2.51633e-08 0 9.85229e-08 0 1.02938e-07)
(1.09991e-07 2.69866e-08 0 9.96517e-08 0 1.04197e-07)
(1.11481e-07 2.83906e-08 0 1.00805e-07 0 1.05118e-07)
(1.11882e-07 2.86108e-08 0 1.02111e-07 0 1.05264e-07)
(1.09822e-07 2.63838e-08 0 1.04255e-07 0 1.04134e-07)
(1.15041e-07 2.29694e-08 0 9.56487e-08 0 1.05037e-07)
(1.12544e-07 1.28069e-08 0 8.89645e-08 0 1.00732e-07)
(3.02737e-07 5.66194e-08 0 1e-15 0 2.12088e-07)
(2.96689e-07 5.89414e-08 0 1e-15 0 2.08227e-07)
(2.89913e-07 6.23516e-08 0 1e-15 0 2.0411e-07)
(2.75227e-07 6.5444e-08 0 1e-15 0 1.94992e-07)
(2.52824e-07 6.82989e-08 0 1e-15 0 1.81125e-07)
(2.18055e-07 6.98439e-08 0 1e-15 0 1.597e-07)
(1.65338e-07 6.62483e-08 0 1e-15 0 1.28305e-07)
(1.12394e-07 5.29094e-08 0 1e-15 0 9.6877e-08)
(4.11707e-06 -4.11595e-07 0 1e-15 0 2.94111e-06)
(4.78572e-06 -4.72265e-07 0 1e-15 0 3.42541e-06)
(5.67351e-06 -5.54328e-07 0 1e-15 0 4.06603e-06)
(6.6371e-06 -6.43228e-07 0 1e-15 0 4.76225e-06)
(7.41895e-06 -7.13313e-07 0 1e-15 0 5.33569e-06)
(7.89385e-06 -7.37475e-07 0 1e-15 0 5.71291e-06)
(8.00293e-06 -6.87596e-07 0 1e-15 0 5.86481e-06)
(6.903e-06 -4.54411e-07 0 1e-15 0 5.27189e-06)
(6.42871e-05 5.219e-05 0 1e-15 0 6.29996e-05)
(7.16469e-05 5.77294e-05 0 1e-15 0 7.0318e-05)
(8.25696e-05 6.4853e-05 0 1e-15 0 8.07141e-05)
(9.42236e-05 7.17385e-05 0 1e-15 0 9.17198e-05)
(0.000108039 8.06397e-05 0 1e-15 0 0.000104977)
(0.000127378 9.17755e-05 0 1e-15 0 0.000122935)
(0.000160642 0.0001139 0 1e-15 0 0.000154619)
(0.000190447 0.000124277 0 1e-15 0 0.000181498)
(0.635835 0.341071 0 1e-15 0 0.483567)
(0.637089 0.335416 0 1e-15 0 0.483572)
(0.636808 0.331484 0 1e-15 0 0.482892)
(0.637185 0.321142 0 1e-15 0 0.481887)
(0.637986 0.316173 0 1e-15 0 0.481803)
(0.641619 0.310028 0 1e-15 0 0.483187)
(0.6513 0.308543 0 1e-15 0 0.489133)
(0.664363 0.295297 0 1e-15 0 0.495256)
(2.13633 0.670156 0 0.691743 0 1.47834)
(2.06324 0.644687 0 0.662319 0 1.42956)
(1.99702 0.621749 0 0.629262 0 1.3852)
(1.93604 0.601718 0 0.604096 0 1.34437)
(1.87782 0.582568 0 0.582546 0 1.30476)
(1.83372 0.563987 0 0.56061 0 1.27293)
(1.77004 0.543175 0 0.536542 0 1.23091)
(1.74391 0.526871 0 0.521794 0 1.20828)
(1.4014 0.417898 0 0.610141 0 1.02587)
(1.37049 0.407999 0 0.593654 0 1.00409)
(1.34229 0.400191 0 0.578709 0 0.983898)
(1.3172 0.39323 0 0.565903 0 0.965841)
(1.29268 0.386295 0 0.553348 0 0.947714)
(1.27225 0.379149 0 0.541306 0 0.932046)
(1.247 0.369872 0 0.528186 0 0.913818)
(1.22969 0.360542 0 0.513362 0 0.898072)
(1.3908 0.467497 0 0.608364 0 0.99905)
(1.37047 0.46107 0 0.599838 0 0.985639)
(1.3501 0.45471 0 0.591948 0 0.972236)
(1.33086 0.448674 0 0.583898 0 0.959319)
(1.31087 0.441341 0 0.574757 0 0.945194)
(1.29692 0.435364 0 0.56766 0 0.934945)
(1.28337 0.427621 0 0.55752 0 0.924057)
(1.27009 0.418441 0 0.548814 0 0.912483)
(1.0744 0.37172 0 0.508114 0 0.785701)
(1.07037 0.370471 0 0.507344 0 0.783582)
(1.06461 0.368775 0 0.50594 0 0.780155)
(1.05931 0.366895 0 0.504126 0 0.776797)
(1.0539 0.363716 0 0.500454 0 0.772578)
(1.05262 0.361535 0 0.499056 0 0.771352)
(1.05154 0.357868 0 0.494923 0 0.7693)
(1.04681 0.351306 0 0.489331 0 0.764507)
(0.876376 0.316046 0 0.420015 0 0.641127)
(0.885692 0.319838 0 0.425161 0 0.648364)
(0.891766 0.32233 0 0.428926 0 0.65322)
(0.898796 0.324624 0 0.432346 0 0.658429)
(0.905632 0.325001 0 0.43386 0 0.662745)
(0.915347 0.326951 0 0.437973 0 0.669538)
(0.927115 0.327678 0 0.439598 0 0.676562)
(0.933969 0.325745 0 0.441211 0 0.680422)
(0.681419 0.252929 0 0.333384 0 0.500519)
(0.699307 0.259916 0 0.342941 0 0.513917)
(0.713949 0.265251 0 0.350688 0 0.524812)
(0.729947 0.27049 0 0.358334 0 0.53635)
(0.74597 0.273858 0 0.364135 0 0.547222)
(0.76437 0.2788 0 0.372673 0 0.56037)
(0.783855 0.282329 0 0.378761 0 0.573248)
(0.79705 0.282604 0 0.382491 0 0.581849)
(0.516106 0.195977 0 0.255681 0 0.379874)
(0.539551 0.205094 0 0.267588 0 0.397187)
(0.560474 0.21265 0 0.277792 0 0.412465)
(0.58307 0.22018 0 0.288197 0 0.428663)
(0.606268 0.22634 0 0.297324 0 0.444723)
(0.631684 0.23399 0 0.30919 0 0.462987)
(0.657578 0.24035 0 0.318847 0 0.480689)
(0.677451 0.243997 0 0.327082 0 0.494435)
(0.37678 0.145626 0 0.187903 0 0.277695)
(0.402665 0.155704 0 0.201057 0 0.296754)
(0.427198 0.164524 0 0.212927 0 0.314546)
(0.453932 0.173567 0 0.225357 0 0.333706)
(0.481725 0.181724 0 0.237037 0 0.353151)
(0.511621 0.191157 0 0.251093 0 0.374654)
(0.541096 0.199376 0 0.263001 0 0.395145)
(0.564872 0.205082 0 0.272856 0 0.411809)
(0.261907 0.102375 0 0.131453 0 0.193176)
(0.287707 0.112419 0 0.144447 0 0.212152)
(0.313532 0.121734 0 0.156645 0 0.230797)
(0.342274 0.131624 0 0.169895 0 0.251369)
(0.372292 0.14109 0 0.182776 0 0.272506)
(0.404254 0.151648 0 0.197893 0 0.295536)
(0.435192 0.160992 0 0.210987 0 0.317236)
(0.461528 0.16856 0 0.222733 0 0.335937)
(0.1694 0.0666205 0 0.0851888 0 0.124995)
(0.193519 0.0759747 0 0.097296 0 0.142697)
(0.218796 0.0850794 0 0.109091 0 0.160851)
(0.247604 0.095152 0 0.122328 0 0.181443)
(0.27731 0.104968 0 0.135461 0 0.20249)
(0.30889 0.115747 0 0.150389 0 0.225274)
(0.339303 0.125456 0 0.163542 0 0.246725)
(0.366333 0.133878 0 0.175633 0 0.265954)
(0.0974428 0.0383176 0 0.049142 0 0.0719165)
(0.118747 0.0464863 0 0.0595544 0 0.0874455)
(0.141834 0.0548199 0 0.0701938 0 0.103967)
(0.168646 0.0643675 0 0.082603 0 0.123172)
(0.195779 0.0736963 0 0.0949546 0 0.142553)
(0.225302 0.0840495 0 0.108984 0 0.163858)
(0.253934 0.09354 0 0.121555 0 0.184082)
(0.280281 0.102288 0 0.133541 0 0.202869)
(0.0452778 0.0176824 0 0.0226924 0 0.0333298)
(0.0620944 0.0240257 0 0.0308792 0 0.0455491)
(0.081274 0.0310024 0 0.0397005 0 0.0592891)
(0.104151 0.0392989 0 0.0504315 0 0.0757699)
(0.127389 0.0475056 0 0.0611621 0 0.0924407)
(0.153913 0.0569375 0 0.0734793 0 0.11146)
(0.179557 0.0656718 0 0.0847504 0 0.129572)
(0.203584 0.0739403 0 0.0957525 0 0.146742)
(0.01302 0.00497222 0 0.00647974 0 0.00955374)
(0.0231531 0.00880862 0 0.0113447 0 0.0169182)
(0.0366126 0.0137036 0 0.0175135 0 0.0265384)
(0.0540527 0.0201128 0 0.0257738 0 0.0391209)
(0.0726797 0.0267492 0 0.0342864 0 0.052399)
(0.0948483 0.0346664 0 0.0444319 0 0.0682029)
(0.115957 0.0420476 0 0.0539417 0 0.083216)
(0.136292 0.049283 0 0.0635441 0 0.0978761)
(0.00127473 0.000463792 0 0.000625734 0 0.00093219)
(0.00413852 0.00149307 0 0.00197595 0 0.00299212)
(0.00972346 0.00349765 0 0.00458443 0 0.00700295)
(0.0192947 0.00697367 0 0.00908135 0 0.0138897)
(0.0312133 0.0112177 0 0.0144302 0 0.0223577)
(0.0467751 0.016833 0 0.0215848 0 0.0334986)
(0.0623883 0.0224403 0 0.0287901 0 0.0446828)
(0.0785974 0.0283199 0 0.0364346 0 0.0563674)
(1.45905e-05 4.91611e-06 0 7.03224e-06 0 1.06098e-05)
(0.000145749 4.99001e-05 0 6.89669e-05 0 0.000105309)
(0.000779709 0.00026824 0 0.000365872 0 0.000561795)
(0.00292623 0.00101256 0 0.00135894 0 0.00209907)
(0.00702527 0.00243106 0 0.00322789 0 0.00501819)
(0.0142468 0.00498638 0 0.00659179 0 0.0101962)
(0.0232421 0.00818902 0 0.0107043 0 0.0166128)
(0.0341844 0.0121029 0 0.0157156 0 0.024417)
(1.09694e-07 -8.26095e-09 0 9.72348e-08 0 1.03419e-07)
(3.65758e-07 7.4664e-08 0 2.173e-07 0 2.87803e-07)
(5.92581e-06 1.90008e-06 0 2.78802e-06 0 4.27541e-06)
(6.94961e-05 2.31059e-05 0 3.20567e-05 0 4.97835e-05)
(0.000371834 0.000124887 0 0.000170828 0 0.000265974)
(0.00144705 0.000491153 0 0.000665164 0 0.00103437)
(0.00367323 0.00125486 0 0.00167304 0 0.00261755)
(0.00754417 0.00260012 0 0.00343588 0 0.00537646)
(1.02514e-07 -1.01256e-08 0 9.41108e-08 0 9.82444e-08)
(1.02235e-07 -1.04182e-08 0 9.44495e-08 0 9.83018e-08)
(1.03297e-07 -1.06504e-08 0 9.54564e-08 0 9.93832e-08)
(1.49151e-07 3.69297e-09 0 1.17592e-07 0 1.32635e-07)
(1.08275e-06 3.09276e-07 0 5.45225e-07 0 7.99992e-07)
(1.27497e-05 4.17547e-06 0 5.88623e-06 0 9.13114e-06)
(7.766e-05 2.591e-05 0 3.54899e-05 0 5.54256e-05)
(0.00032191 0.000108601 0 0.000147326 0 0.000229805)
(1.02324e-07 -1.02383e-08 0 9.43046e-08 0 9.83069e-08)
(1.02196e-07 -1.05788e-08 0 9.48184e-08 0 9.84207e-08)
(1.01853e-07 -1.10112e-08 0 9.49269e-08 0 9.83778e-08)
(1.01349e-07 -1.129e-08 0 9.55948e-08 0 9.8425e-08)
(1.00853e-07 -1.15829e-08 0 9.59648e-08 0 9.84552e-08)
(1.02227e-07 -1.14631e-08 0 9.79068e-08 0 1.00032e-07)
(1.32403e-07 -1.40684e-09 0 1.12428e-07 0 1.2197e-07)
(5.42996e-07 1.35662e-07 0 3.01177e-07 0 4.15713e-07)
(1.02402e-07 -1.01614e-08 0 9.44585e-08 0 9.83785e-08)
(1.02154e-07 -1.04528e-08 0 9.48825e-08 0 9.84341e-08)
(1.01763e-07 -1.0921e-08 0 9.51704e-08 0 9.84316e-08)
(1.01385e-07 -1.12971e-08 0 9.59389e-08 0 9.85416e-08)
(1.00889e-07 -1.16819e-08 0 9.63956e-08 0 9.85548e-08)
(1.00187e-07 -1.19214e-08 0 9.72111e-08 0 9.8565e-08)
(9.9528e-08 -1.20056e-08 0 9.77045e-08 0 9.85257e-08)
(9.87817e-08 -1.21333e-08 0 9.86566e-08 0 9.85779e-08)
(1.02245e-07 -1.00464e-08 0 9.44861e-08 0 9.83604e-08)
(1.02024e-07 -1.03589e-08 0 9.49363e-08 0 9.84304e-08)
(1.0165e-07 -1.07529e-08 0 9.51772e-08 0 9.84136e-08)
(1.01219e-07 -1.10662e-08 0 9.58129e-08 0 9.84717e-08)
(1.00668e-07 -1.14093e-08 0 9.6191e-08 0 9.84466e-08)
(1.00043e-07 -1.16534e-08 0 9.70256e-08 0 9.85057e-08)
(9.94544e-08 -1.18057e-08 0 9.75625e-08 0 9.84944e-08)
(9.87291e-08 -1.18825e-08 0 9.82479e-08 0 9.84788e-08)
(1.0232e-07 -1.00927e-08 0 9.47266e-08 0 9.84655e-08)
(1.0208e-07 -1.03678e-08 0 9.5138e-08 0 9.85184e-08)
(1.01677e-07 -1.07544e-08 0 9.54351e-08 0 9.8507e-08)
(1.01278e-07 -1.10701e-08 0 9.61006e-08 0 9.85812e-08)
(1.00783e-07 -1.14157e-08 0 9.65387e-08 0 9.85841e-08)
(1.00149e-07 -1.16319e-08 0 9.73078e-08 0 9.86206e-08)
(9.95294e-08 -1.17434e-08 0 9.77937e-08 0 9.85827e-08)
(9.88373e-08 -1.18063e-08 0 9.85494e-08 0 9.85905e-08)
(1.02118e-07 -9.89755e-09 0 9.46992e-08 0 9.84085e-08)
(1.01912e-07 -1.01921e-08 0 9.51117e-08 0 9.84746e-08)
(1.01533e-07 -1.05513e-08 0 9.54146e-08 0 9.84695e-08)
(1.01122e-07 -1.084e-08 0 9.60117e-08 0 9.85217e-08)
(1.00625e-07 -1.1182e-08 0 9.64294e-08 0 9.85171e-08)
(1.00024e-07 -1.13985e-08 0 9.71663e-08 0 9.85514e-08)
(9.94825e-08 -1.15445e-08 0 9.76681e-08 0 9.85373e-08)
(9.88228e-08 -1.15747e-08 0 9.83413e-08 0 9.85289e-08)
(1.02165e-07 -9.92879e-09 0 9.49121e-08 0 9.84903e-08)
(1.01944e-07 -1.01909e-08 0 9.52842e-08 0 9.85422e-08)
(1.01534e-07 -1.0514e-08 0 9.56091e-08 0 9.85338e-08)
(1.01121e-07 -1.07877e-08 0 9.61836e-08 0 9.85797e-08)
(1.00632e-07 -1.111e-08 0 9.66172e-08 0 9.8579e-08)
(1.00027e-07 -1.12945e-08 0 9.72901e-08 0 9.85934e-08)
(9.94764e-08 -1.14197e-08 0 9.77463e-08 0 9.85655e-08)
(9.87628e-08 -1.14665e-08 0 9.84409e-08 0 9.85461e-08)
(1.02023e-07 -9.77701e-09 0 9.49234e-08 0 9.84561e-08)
(1.01838e-07 -1.00646e-08 0 9.53013e-08 0 9.85235e-08)
(1.01435e-07 -1.03748e-08 0 9.56663e-08 0 9.85279e-08)
(1.01053e-07 -1.06736e-08 0 9.6199e-08 0 9.85707e-08)
(1.00563e-07 -1.09753e-08 0 9.66519e-08 0 9.85723e-08)
(9.9996e-08 -1.11256e-08 0 9.72959e-08 0 9.859e-08)
(9.94841e-08 -1.12767e-08 0 9.77608e-08 0 9.85721e-08)
(9.88217e-08 -1.12966e-08 0 9.84294e-08 0 9.85579e-08)
(1.0198e-07 -9.72868e-09 0 9.50487e-08 0 9.84817e-08)
(1.01804e-07 -1.00026e-08 0 9.53857e-08 0 9.85424e-08)
(1.01367e-07 -1.02707e-08 0 9.5797e-08 0 9.8554e-08)
(1.00978e-07 -1.05167e-08 0 9.62975e-08 0 9.85881e-08)
(1.00499e-07 -1.08079e-08 0 9.67485e-08 0 9.85905e-08)
(9.99536e-08 -1.10071e-08 0 9.73265e-08 0 9.85917e-08)
(9.94387e-08 -1.11581e-08 0 9.77819e-08 0 9.85711e-08)
(9.8792e-08 -1.11905e-08 0 9.83945e-08 0 9.85484e-08)
(1.01888e-07 -9.62783e-09 0 9.5111e-08 0 9.84727e-08)
(1.01729e-07 -9.89544e-09 0 9.54448e-08 0 9.85387e-08)
(1.01305e-07 -1.02303e-08 0 9.58728e-08 0 9.85595e-08)
(1.00947e-07 -1.04442e-08 0 9.63453e-08 0 9.8595e-08)
(1.00468e-07 -1.07153e-08 0 9.68103e-08 0 9.85999e-08)
(9.99429e-08 -1.0868e-08 0 9.73723e-08 0 9.86041e-08)
(9.94589e-08 -1.10044e-08 0 9.78221e-08 0 9.85888e-08)
(9.88532e-08 -1.10252e-08 0 9.84272e-08 0 9.85737e-08)
(1.01834e-07 -9.58322e-09 0 9.51714e-08 0 9.8474e-08)
(1.01661e-07 -9.8453e-09 0 9.54916e-08 0 9.85329e-08)
(1.01218e-07 -1.01165e-08 0 9.59666e-08 0 9.85634e-08)
(1.00898e-07 -1.03376e-08 0 9.63773e-08 0 9.85938e-08)
(1.00408e-07 -1.05976e-08 0 9.68616e-08 0 9.86007e-08)
(9.98997e-08 -1.07437e-08 0 9.73846e-08 0 9.86001e-08)
(9.94088e-08 -1.08899e-08 0 9.78296e-08 0 9.85821e-08)
(9.88191e-08 -1.09246e-08 0 9.83749e-08 0 9.85577e-08)
(1.01728e-07 -9.48355e-09 0 9.52782e-08 0 9.84715e-08)
(1.01541e-07 -9.73401e-09 0 9.56043e-08 0 9.85281e-08)
(1.01179e-07 -1.00513e-08 0 9.60147e-08 0 9.85646e-08)
(1.00856e-07 -1.02434e-08 0 9.64332e-08 0 9.85987e-08)
(1.00373e-07 -1.04758e-08 0 9.69253e-08 0 9.86092e-08)
(9.98939e-08 -1.06147e-08 0 9.74284e-08 0 9.8612e-08)
(9.94295e-08 -1.0747e-08 0 9.78712e-08 0 9.85997e-08)
(9.88781e-08 -1.07746e-08 0 9.8417e-08 0 9.85844e-08)
(1.01682e-07 -9.45614e-09 0 9.53032e-08 0 9.84651e-08)
(1.01485e-07 -9.69657e-09 0 9.5627e-08 0 9.85176e-08)
(1.01111e-07 -9.97181e-09 0 9.60562e-08 0 9.85552e-08)
(1.00788e-07 -1.01592e-08 0 9.64731e-08 0 9.85908e-08)
(1.0034e-07 -1.03624e-08 0 9.69378e-08 0 9.86045e-08)
(9.98512e-08 -1.04996e-08 0 9.74326e-08 0 9.86042e-08)
(9.93794e-08 -1.06416e-08 0 9.78709e-08 0 9.85897e-08)
(9.88408e-08 -1.06838e-08 0 9.83602e-08 0 9.85649e-08)
(1.01586e-07 -9.37412e-09 0 9.54023e-08 0 9.84621e-08)
(1.01384e-07 -9.5901e-09 0 9.57217e-08 0 9.85105e-08)
(1.01035e-07 -9.86052e-09 0 9.61297e-08 0 9.85491e-08)
(1.0074e-07 -1.00736e-08 0 9.65226e-08 0 9.85884e-08)
(1.00307e-07 -1.02625e-08 0 9.69861e-08 0 9.86071e-08)
(9.98493e-08 -1.03805e-08 0 9.74644e-08 0 9.86119e-08)
(9.93906e-08 -1.05129e-08 0 9.79158e-08 0 9.86043e-08)
(9.88946e-08 -1.05534e-08 0 9.84051e-08 0 9.85903e-08)
(1.01546e-07 -9.35225e-09 0 9.54223e-08 0 9.84558e-08)
(1.01342e-07 -9.58274e-09 0 9.57337e-08 0 9.85019e-08)
(1.00995e-07 -9.82225e-09 0 9.61386e-08 0 9.85383e-08)
(1.00671e-07 -9.99993e-09 0 9.6544e-08 0 9.85727e-08)
(1.00279e-07 -1.01759e-08 0 9.69778e-08 0 9.85958e-08)
(9.9802e-08 -1.0278e-08 0 9.74632e-08 0 9.85986e-08)
(9.93392e-08 -1.04125e-08 0 9.7904e-08 0 9.85885e-08)
(9.88544e-08 -1.04716e-08 0 9.83442e-08 0 9.85669e-08)
(1.01461e-07 -9.2976e-09 0 9.55059e-08 0 9.84517e-08)
(1.01251e-07 -9.5045e-09 0 9.58167e-08 0 9.84944e-08)
(1.00943e-07 -9.7233e-09 0 9.61849e-08 0 9.85296e-08)
(1.00614e-07 -9.88684e-09 0 9.65917e-08 0 9.85627e-08)
(1.00239e-07 -1.00781e-08 0 9.70169e-08 0 9.85904e-08)
(9.97977e-08 -1.01764e-08 0 9.74773e-08 0 9.85977e-08)
(9.93411e-08 -1.02899e-08 0 9.79346e-08 0 9.85935e-08)
(9.88956e-08 -1.03474e-08 0 9.83813e-08 0 9.8584e-08)
(1.01423e-07 -9.25626e-09 0 9.55137e-08 0 9.84406e-08)
(1.01215e-07 -9.48552e-09 0 9.58217e-08 0 9.84843e-08)
(1.00909e-07 -9.70217e-09 0 9.61858e-08 0 9.85186e-08)
(1.00573e-07 -9.84503e-09 0 9.65807e-08 0 9.85452e-08)
(1.00209e-07 -9.99619e-09 0 9.6982e-08 0 9.85676e-08)