/*--------------------------------*- C++ -*----------------------------------*\
| =========                 |                                                 |
| \\      /  F ield         | OpenFOAM: The Open Source CFD Toolbox           |
|  \\    /   O peration     | Version:  v1912                                 |
|   \\  /    A nd           | Website:  www.openfoam.com                      |
|    \\/     M anipulation  |                                                 |
\*---------------------------------------------------------------------------*/
FoamFile
{
    version     2.0;
    format      ascii;
    class       volScalarField;
    location    "70";
    object      p;
}
// * * * * * * * * * * * * * * * * * * * * * * * * * * * * * * * * * * * * * //

dimensions      [1 -1 -2 0 0 0 0];


internalField   nonuniform List<scalar> 
14268
(
43170.6
42946.3
42739.5
42551.5
42383.6
42238.8
42119.4
42028.4
43069.2
42844.8
42638
42450
42282.1
42137.3
42018
41927
42967.7
42743.3
42536.6
42348.6
42180.7
42035.9
41916.6
41825.6
42866.2
42641.9
42435.1
42247.1
42079.3
41934.5
41815.1
41724.2
42764.7
42540.4
42333.6
42145.7
41977.8
41833
41713.7
41622.8
42663.3
42438.9
42232.2
42044.2
41876.4
41731.6
41612.3
41521.4
42561.8
42337.4
42130.7
41942.7
41774.9
41630.2
41510.9
41420
42460.3
42236
42029.2
41841.3
41673.5
41528.7
41409.4
41318.6
42358.8
42134.5
41927.8
41739.8
41572
41427.3
41308
41217.2
42257.3
42033
41826.3
41638.3
41470.6
41325.8
41206.5
41115.7
42155.8
41931.5
41724.8
41536.9
41369.1
41224.4
41105.1
41014.3
42054.3
41830
41623.3
41435.4
41267.6
41122.9
41003.6
40912.9
41952.8
41728.5
41521.8
41333.9
41166.2
41021.5
40902.2
40811.4
41851.3
41627
41420.4
41232.4
41064.7
40920
40800.7
40710
41480.9
41286
41108.6
40950
40811.5
40696
40605.9
40544
40838
40701.7
40582.9
40482.8
40402.8
40345.8
40314.1
40310.5
40195.1
40117.3
40057.1
40015.5
39994.1
39995.6
40022.2
40077
39552
39532.8
39531.2
39548.2
39585.3
39645.3
39730.4
39843.5
38908.8
38948.3
39005.3
39080.9
39176.5
39295
39438.5
39610
38265.5
38363.6
38479.2
38613.4
38767.6
38944.6
39146.5
39376.4
37622.2
37779
37953.2
38145.9
38358.7
38594.1
38854.6
39142.8
35912.2
36099.4
36304.1
36527.4
36770.8
37036.3
37328.7
37648.9
33130.9
33319.7
33525.9
33750.6
33995.4
34262.3
34555.3
34876.6
30348.1
30538.5
30746
30971.9
31217.7
31485.4
31778.8
32100.3
27563.6
27755.4
27964.2
28191.1
28437.8
28706.1
28999.4
29320.6
24777.5
24970.6
25180.5
25408.3
25655.5
25924
26216.9
26537.4
21989.8
22184.1
22395.1
22623.5
22871.1
23139.6
23431.6
23750.8
19200.6
19396.1
19607.9
19836.9
20084.6
20352.6
20643.4
20960.9
16409.7
16606.3
16818.8
17048.2
17295.9
17563.3
17852.5
18167.8
13617.3
13814.8
14028
14257.7
14505.2
14771.7
15058.9
15371.6
10823.4
11021.9
11235.7
11465.5
11712.6
11977.9
12262.7
12572.3
8027.32
8226.58
8440.73
8670.53
8917.02
9181.02
9463.36
9769.6
5229.29
5429.2
5643.56
5873.24
6119.07
6381.5
6661.06
6963.49
2532.23
2709.61
2902.54
3112.58
3341.69
3590.3
3859.21
4154.88
645.344
730.629
827.79
939.678
1069.94
1222.41
1401.16
1616.34
34.1688
43.3156
55.8302
73.3233
98.19
133.507
182.878
252.863
-0.468456
-0.251305
0.0513862
0.511565
1.2546
2.3583
3.98168
6.47985
-4.91132
-4.96376
-5.01951
-5.06383
-5.06447
-5.04871
-5.01551
-5.02013
-8.28711
-8.35594
-8.42576
-8.49286
-8.53841
-8.58744
-8.65466
-8.76703
-11.6588
-11.7276
-11.7966
-11.8637
-11.914
-11.9622
-12.0193
-12.1178
-15.0251
-15.099
-15.1717
-15.2432
-15.3048
-15.3632
-15.4267
-15.5181
-18.3848
-18.4594
-18.5323
-18.6034
-18.6685
-18.7322
-18.8002
-18.9019
-21.7479
-21.8242
-21.8997
-21.9738
-22.0431
-22.1111
-22.1844
-22.2856
-25.1094
-25.1863
-25.2634
-25.34
-25.4144
-25.4874
-25.5694
-25.6683
-28.4716
-28.549
-28.6278
-28.7064
-28.785
-28.863
-28.9506
-29.0498
-31.8347
-31.9126
-31.9929
-32.073
-32.155
-32.2385
-32.3288
-32.4296
-35.1986
-35.2768
-35.3582
-35.4397
-35.5241
-35.6116
-35.7063
-35.8086
-38.5634
-38.6422
-38.7242
-38.8066
-38.8926
-38.9826
-39.0799
-39.1838
-41.9294
-42.0086
-42.091
-42.1742
-42.2619
-42.3541
-42.4535
-42.5608
-45.2962
-45.3758
-45.4583
-45.5422
-45.6313
-45.7249
-45.8266
-45.9372
-48.6636
-48.7436
-48.8261
-48.9109
-49.001
-49.0962
-49.2003
-49.3141
-52.0311
-52.1114
-52.194
-52.2797
-52.3707
-52.4675
-52.574
-52.691
-55.3988
-55.479
-55.5618
-55.6481
-55.7402
-55.8386
-55.9475
-56.0677
-58.7665
-58.8466
-58.9294
-59.0163
-59.1093
-59.2092
-59.3202
-59.4431
-62.1341
-62.214
-62.2968
-62.3842
-62.4779
-62.5791
-62.6918
-62.8172
-65.5017
-65.5811
-65.6638
-65.7515
-65.8459
-65.9481
-66.0623
-66.1898
-68.8691
-68.948
-69.0306
-69.1184
-69.2132
-69.3163
-69.4317
-69.5609
-72.2363
-72.3147
-72.3969
-72.4847
-72.5799
-72.6836
-72.7999
-72.9304
-75.6033
-75.681
-75.7629
-75.8506
-75.9459
-76.05
-76.167
-76.2984
-78.9701
-79.047
-79.1284
-79.2158
-79.3111
-79.4155
-79.5328
-79.6648
-82.3366
-82.4127
-82.4935
-82.5805
-82.6756
-82.78
-82.8974
-83.0297
-85.7028
-85.778
-85.8582
-85.9446
-86.0394
-86.1436
-86.2608
-86.393
-89.0688
-89.143
-89.2223
-89.3081
-89.4024
-89.5061
-89.6231
-89.7548
-92.4344
-92.5075
-92.586
-92.671
-92.7646
-92.8678
-92.9841
-93.1152
-95.7997
-95.8717
-95.9491
-96.0333
-96.126
-96.2284
-96.344
-96.4741
-99.1646
-99.2355
-99.3117
-99.3949
-99.4867
-99.5881
-99.7026
-99.8316
-102.529
-102.599
-102.674
-102.756
-102.847
-102.947
-103.06
-103.188
-105.894
-105.962
-106.035
-106.116
-106.206
-106.305
-106.417
-106.542
-109.257
-109.324
-109.396
-109.476
-109.564
-109.662
-109.772
-109.896
-112.621
-112.686
-112.757
-112.835
-112.921
-113.018
-113.126
-113.248
-115.984
-116.048
-116.117
-116.193
-116.278
-116.373
-116.479
-116.599
-119.347
-119.409
-119.476
-119.551
-119.634
-119.727
-119.831
-119.948
-122.709
-122.769
-122.835
-122.908
-122.989
-123.08
-123.182
-123.297
-126.071
-126.129
-126.193
-126.265
-126.344
-126.432
-126.532
-126.644
-129.433
-129.489
-129.551
-129.62
-129.698
-129.784
-129.881
-129.991
-132.794
-132.848
-132.908
-132.975
-133.051
-133.135
-133.23
-133.336
-136.154
-136.206
-136.265
-136.33
-136.403
-136.485
-136.577
-136.68
-146.076
-146.126
-146.182
-146.245
-146.315
-146.393
-146.481
-146.578
-162.551
-162.598
-162.65
-162.708
-162.773
-162.845
-162.925
-163.013
-179.016
-179.058
-179.106
-179.159
-179.218
-179.282
-179.353
-179.431
-195.472
-195.51
-195.553
-195.599
-195.651
-195.707
-195.769
-195.836
-211.922
-211.954
-211.991
-212.031
-212.075
-212.123
-212.175
-212.231
-228.365
-228.392
-228.422
-228.455
-228.491
-228.531
-228.573
-228.619
-244.803
-244.824
-244.848
-244.874
-244.902
-244.933
-244.966
-245.001
-261.236
-261.252
-261.269
-261.288
-261.309
-261.33
-261.354
-261.379
-277.668
-277.677
-277.688
-277.7
-277.712
-277.725
-277.739
-277.754
-294.097
-294.101
-294.105
-294.109
-294.114
-294.118
-294.123
-294.128
42233.6
42702.2
43213.7
43764.4
44362.1
45009.1
45703.6
46438.7
47200.2
47965.2
48702
49374.8
49945.1
50373
50621.4
50646.8
50475.3
50077
49451.8
48618.2
47611.9
46492.3
45326.8
44175.1
43087.1
42100.2
41235.9
40502.8
39899.3
39417.7
39045.1
38767.4
38570.6
38442.4
38372.5
38348.5
38364
38412.6
38489
38588.9
38708.8
38845.5
38996
39157.4
39327.3
39503.7
39685.2
39870.6
40059.5
40251.3
40445.6
40641.9
40839.4
41037.7
41236.4
41435.8
41636.3
41838.8
42044.6
42255.7
42474.2
42702.4
42944.5
43205.9
43490.6
43801.9
44143
44514.7
44914.9
45338.2
45775.8
46215.6
46643.3
47040.8
47388.5
47667.8
47862.6
47958.6
47954.8
47843.8
47629.2
47320.5
46932.8
46483.9
45993.9
45483.9
44973.7
44480.7
44018.1
43595.3
43217.7
42887.1
42602.5
42364.1
42160.4
41986.6
41835.9
41702.3
41581.3
41470.6
41370.5
41281.9
41208.6
41154.3
41123.1
41117.5
41138.1
41182.4
41246.1
41323.2
41405.7
41485.9
41558.3
41620
41671.5
41715.8
41757.9
41804
41860.8
41932
42017.9
42116.9
42225
42337
42447.6
42552.8
42650.3
42737.4
42813.8
42881
42941
42996.6
43051.6
43109.6
43172.8
43240.5
43309.6
43375.7
43432.8
43475.6
43502.2
43514
43514.5
43507.6
43496.8
43482.5
43463.2
43437.4
43404.5
43366.1
43324.9
43284.2
43246.6
43212.1
43179.1
43146.1
42132
42600.6
43112.1
43662.8
44260.5
44907.5
45602
46337.1
47098.6
47863.6
48600.4
49273.2
49843.5
50271.4
50519.8
50545.2
50373.8
49975.4
49350.2
48516.6
47510.3
46390.7
45225.2
44073.5
42985.5
41998.6
41134.3
40401.2
39797.7
39316.1
38943.5
38665.8
38469
38340.8
38270.9
38246.9
38262.4
38311
38387.4
38487.3
38607.2
38743.9
38894.4
39055.8
39225.7
39402.1
39583.6
39769
39957.9
40149.7
40344
40540.3
40737.8
40936.1
41134.8
41334.2
41534.6
41737.1
41943
42154.1
42372.6
42600.8
42842.9
43104.3
43389
43700.3
44041.4
44413.1
44813.3
45236.6
45674.1
46114
46541.7
46939.2
47286.9
47566.2
47761
47857.1
47853.2
47742.2
47527.6
47218.9
46831.2
46382.3
45892.3
45382.3
44872.1
44379
43916.4
43493.7
43116.1
42785.5
42500.9
42262.5
42058.8
41885
41734.3
41600.7
41479.7
41369
41268.9
41180.3
41107
41052.7
41021.5
41015.9
41036.5
41080.8
41144.5
41221.6
41304.1
41384.3
41456.7
41518.4
41569.9
41614.2
41656.2
41702.4
41759.2
41830.3
41916.3
42015.2
42123.4
42235.4
42346
42451.2
42548.7
42635.8
42712.2
42779.4
42839.4
42895
42950
43008
43071.2
43138.8
43208
43274.1
43331.2
43374
43400.6
43412.4
43412.9
43406
43395.2
43380.9
43361.6
43335.8
43302.9
43264.5
43223.3
43182.6
43145
43110.5
43077.5
43044.5
42030.4
42499
43010.5
43561.2
44158.9
44805.9
45500.4
46235.5
46997
47762
48498.9
49171.6
49741.9
50169.9
50418.2
50443.7
50272.2
49873.9
49248.6
48415
47408.7
46289.1
45123.6
43971.9
42883.8
41896.9
41032.6
40299.6
39696.1
39214.4
38841.9
38564.2
38367.4
38239.2
38169.3
38145.3
38160.8
38209.4
38285.8
38385.7
38505.6
38642.3
38792.8
38954.2
39124.1
39300.5
39481.9
39667.4
39856.3
40048.1
40242.4
40438.7
40636.2
40834.5
41033.2
41232.6
41433
41635.5
41841.4
42052.5
42271
42499.2
42741.3
43002.7
43287.4
43598.7
43939.8
44311.5
44711.7
45135
45572.5
46012.4
46440.1
46837.7
47185.3
47464.6
47659.5
47755.5
47751.6
47640.6
47426
47117.3
46729.6
46280.7
45790.7
45280.7
44770.5
44277.4
43814.8
43392.1
43014.5
42683.9
42399.3
42160.9
41957.2
41783.4
41632.7
41499.1
41378.1
41267.4
41167.2
41078.7
41005.4
40951.1
40919.9
40914.3
40934.9
40979.2
41042.9
41120
41202.5
41282.7
41355.1
41416.8
41468.3
41512.6
41554.6
41600.8
41657.6
41728.7
41814.7
41913.6
42021.8
42133.8
42244.4
42349.6
42447.1
42534.2
42610.6
42677.8
42737.8
42793.4
42848.4
42906.4
42969.6
43037.2
43106.4
43172.5
43229.6
43272.4
43299
43310.8
43311.3
43304.4
43293.6
43279.3
43260
43234.2
43201.3
43162.9
43121.7
43081
43043.4
43008.9
42975.9
42942.9
41928.8
42397.4
42908.9
43459.6
44057.3
44704.3
45398.8
46133.9
46895.4
47660.4
48397.3
49070
49640.4
50068.3
50316.7
50342.2
50170.7
49772.3
49147.1
48313.4
47307.1
46187.5
45022
43870.2
42782.2
41795.3
40931
40197.9
39594.4
39112.8
38740.3
38462.5
38265.8
38137.6
38067.7
38043.7
38059.2
38107.8
38184.2
38284.1
38404
38540.7
38691.2
38852.6
39022.5
39198.9
39380.3
39565.8
39754.7
39946.5
40140.8
40337.1
40534.6
40732.9
40931.6
41131
41331.4
41533.9
41739.8
41950.9
42169.4
42397.6
42639.7
42901.1
43185.8
43497.1
43838.2
44209.9
44610.1
45033.4
45470.9
45910.8
46338.5
46736.1
47083.7
47363.1
47557.9
47653.9
47650.1
47539
47324.4
47015.7
46628
46179.1
45689.1
45179.1
44668.9
44175.8
43713.2
43290.4
42912.9
42582.3
42297.6
42059.3
41855.6
41681.8
41531.1
41397.5
41276.5
41165.8
41065.6
40977.1
40903.8
40849.5
40818.2
40812.7
40833.3
40877.6
40941.3
41018.4
41100.9
41181.1
41253.5
41315.2
41366.7
41411
41453
41499.2
41556
41627.1
41713.1
41812
41920.2
42032.2
42142.8
42248
42345.5
42432.6
42509
42576.2
42636.2
42691.8
42746.8
42804.8
42867.9
42935.6
43004.8
43070.9
43128
43170.8
43197.4
43209.2
43209.7
43202.8
43192
43177.7
43158.4
43132.6
43099.7
43061.3
43020.1
42979.4
42941.8
42907.3
42874.3
42841.3
41827.2
42295.8
42807.2
43357.9
43955.6
44602.6
45297.1
46032.3
46793.8
47558.8
48295.7
48968.5
49538.8
49966.8
50215.2
50240.7
50069.2
49670.8
49045.5
48211.9
47205.5
46085.9
44920.3
43768.6
42680.5
41693.6
40829.3
40096.3
39492.8
39011.1
38638.6
38360.9
38164.1
38036
37966
37942.1
37957.6
38006.1
38082.6
38182.5
38302.4
38439.1
38589.6
38751
38920.9
39097.3
39278.7
39464.2
39653.1
39844.9
40039.2
40235.5
40433
40631.3
40830
41029.4
41229.8
41432.3
41638.2
41849.3
42067.8
42296
42538.1
42799.5
43084.1
43395.4
43736.6
44108.3
44508.5
44931.8
45369.3
45809.2
46236.9
46634.5
46982.2
47261.5
47456.3
47552.3
47548.5
47437.5
47222.8
46914.2
46526.4
46077.5
45587.5
45077.4
44567.3
44074.2
43611.6
43188.8
42811.3
42480.6
42196
41957.7
41754
41580.2
41429.5
41295.9
41174.9
41064.1
40964
40875.4
40802.1
40747.9
40716.6
40711.1
40731.6
40776
40839.7
40916.8
40999.3
41079.5
41151.9
41213.6
41265.1
41309.4
41351.4
41397.6
41454.4
41525.5
41611.4
41710.4
41818.6
41930.6
42041.2
42146.4
42243.9
42331
42407.4
42474.6
42534.6
42590.2
42645.2
42703.2
42766.3
42834
42903.2
42969.3
43026.4
43069.3
43095.8
43107.6
43108.1
43101.2
43090.4
43076.1
43056.8
43031
42998.1
42959.7
42918.5
42877.8
42840.2
42805.7
42772.7
42739.7
41725.6
42194.1
42705.6
43256.3
43854
44501
45195.5
45930.6
46692.1
47457.2
48194.1
48866.9
49437.3
49865.3
50113.7
50139.2
49967.7
49569.3
48944
48110.3
47104
45984.2
44818.7
43666.9
42578.8
41591.9
40727.6
39994.6
39391.1
38909.5
38537
38259.2
38062.5
37934.3
37864.4
37840.4
37856
37904.5
37980.9
38080.9
38200.8
38337.5
38488
38649.4
38819.3
38995.7
39177.1
39362.6
39551.5
39743.2
39937.6
40133.9
40331.4
40529.7
40728.4
40927.8
41128.2
41330.7
41536.6
41747.6
41966.1
42194.4
42436.5
42697.9
42982.5
43293.8
43634.9
44006.6
44406.9
44830.1
45267.7
45707.6
46135.3
46532.9
46880.6
47159.9
47354.8
47450.8
47447
47335.9
47121.3
46812.6
46424.8
45976
45485.9
44975.8
44465.7
43972.6
43510
43087.2
42709.6
42379
42094.4
41856
41652.3
41478.6
41327.8
41194.3
41073.2
40962.5
40862.4
40773.8
40700.5
40646.3
40615
40609.4
40630
40674.4
40738
40815.2
40897.7
40977.9
41050.3
41112
41163.5
41207.8
41249.8
41296
41352.8
41423.9
41509.8
41608.8
41717
41829
41939.6
42044.8
42142.3
42229.4
42305.8
42373
42433
42488.6
42543.6
42601.6
42664.7
42732.4
42801.6
42867.7
42924.8
42967.7
42994.2
43006
43006.5
42999.6
42988.8
42974.5
42955.2
42929.4
42896.5
42858.1
42816.9
42776.2
42738.6
42704.1
42671.1
42638.1
41623.9
42092.5
42603.9
43154.6
43752.3
44399.3
45093.8
45829
46590.5
47355.6
48092.5
48765.3
49335.7
49763.8
50012.2
50037.7
49866.2
49467.8
48842.5
48008.8
47002.4
45882.6
44717
43565.2
42477.1
41490.2
40625.9
39892.9
39289.4
38807.8
38435.3
38157.6
37960.9
37832.7
37762.8
37738.8
37754.3
37802.9
37879.3
37979.3
38099.2
38235.9
38386.3
38547.8
38717.7
38894.1
39075.5
39261
39449.9
39641.6
39836
40032.2
40229.8
40428.1
40626.8
40826.1
41026.6
41229.1
41435
41646
41864.5
42092.8
42334.8
42596.2
42880.9
43192.2
43533.3
43905
44305.2
44728.5
45166.1
45606
46033.7
46431.3
46779
47058.4
47253.2
47349.3
47345.4
47234.4
47019.7
46711
46323.3
45874.4
45384.3
44874.2
44364.1
43870.9
43408.3
42985.6
42608
42277.4
41992.8
41754.4
41550.7
41377
41226.2
41092.6
40971.6
40860.9
40760.8
40672.2
40598.9
40544.7
40513.4
40507.8
40528.4
40572.7
40636.4
40713.6
40796.1
40876.3
40948.7
41010.4
41061.9
41106.2
41148.2
41194.4
41251.2
41322.3
41408.2
41507.2
41615.4
41727.4
41838
41943.2
42040.7
42127.8
42204.2
42271.4
42331.4
42387
42442
42500
42563.1
42630.8
42700
42766.1
42823.2
42866.1
42892.6
42904.4
42904.9
42898
42887.2
42872.9
42853.6
42827.8
42794.9
42756.5
42715.3
42674.5
42637
42602.5
42569.5
42536.5
41522.3
41990.9
42502.3
43053
43650.7
44297.7
44992.2
45727.3
46488.9
47254
47990.9
48663.8
49234.2
49662.3
49910.8
49936.3
49764.8
49366.4
48741
47907.3
46900.8
45781
44615.4
43463.5
42375.4
41388.5
40524.2
39791.2
39187.7
38706.1
38333.6
38055.9
37859.2
37731.1
37661.1
37637.2
37652.7
37701.3
37777.7
37877.7
37997.6
38134.3
38284.7
38446.2
38616.1
38792.5
38973.9
39159.4
39348.3
39540
39734.4
39930.6
40128.2
40326.5
40525.2
40724.5
40925
41127.5
41333.4
41544.4
41762.9
41991.1
42233.2
42494.6
42779.3
43090.6
43431.7
43803.4
44203.6
44626.9
45064.5
45504.4
45932.1
46329.8
46677.5
46956.8
47151.7
47247.7
47243.9
47132.9
46918.2
46609.5
46221.7
45772.8
45282.7
44772.6
44262.4
43769.3
43306.7
42883.9
42506.4
42175.7
41891.1
41652.8
41449.1
41275.3
41124.6
40991
40870
40759.3
40659.2
40570.6
40497.3
40443
40411.8
40406.2
40426.8
40471.1
40534.8
40612
40694.5
40774.7
40847.1
40908.8
40960.3
41004.6
41046.6
41092.8
41149.6
41220.7
41306.6
41405.6
41513.8
41625.8
41736.4
41841.6
41939.1
42026.2
42102.6
42169.8
42229.8
42285.4
42340.4
42398.4
42461.5
42529.2
42598.4
42664.5
42721.7
42764.5
42791
42802.8
42803.3
42796.4
42785.6
42771.3
42752
42726.2
42693.3
42654.9
42613.7
42572.9
42535.4
42500.9
42467.9
42434.9
41420.7
41889.2
42400.6
42951.3
43549
44196
44890.5
45625.7
46387.2
47152.3
47889.3
48562.3
49132.7
49560.9
49809.3
49834.9
49663.3
49265
48639.6
47805.7
46799.2
45679.4
44513.7
43361.8
42273.7
41286.7
40422.4
39689.4
39086
38604.4
38231.9
37954.2
37757.5
37629.4
37559.5
37535.5
37551.1
37599.6
37676.1
37776
37895.9
38032.6
38183.1
38344.5
38514.5
38690.9
38872.3
39057.8
39246.7
39438.4
39632.8
39829
40026.6
40224.9
40423.6
40622.9
40823.4
41025.9
41231.8
41442.8
41661.3
41889.5
42131.6
42393
42677.6
42988.9
43330
43701.7
44102
44525.3
44962.9
45402.8
45830.5
46228.2
46575.9
46855.3
47050.2
47146.2
47142.4
47031.3
46816.7
46507.9
46120.2
45671.2
45181.1
44671
44160.8
43667.7
43205
42782.3
42404.7
42074.1
41789.5
41551.1
41347.4
41173.7
41023
40889.4
40768.4
40657.7
40557.6
40469
40395.7
40341.4
40310.1
40304.6
40325.2
40369.5
40433.2
40510.3
40592.9
40673.1
40745.5
40807.2
40858.7
40903
40945
40991.2
41047.9
41119.1
41205
41304
41412.2
41524.2
41634.8
41740.1
41837.5
41924.6
42001
42068.2
42128.2
42183.8
42238.8
42296.8
42359.9
42427.6
42496.8
42562.9
42620.1
42662.9
42689.4
42701.2
42701.7
42694.8
42684
42669.7
42650.4
42624.6
42591.7
42553.3
42512.1
42471.3
42433.8
42399.3
42366.3
42333.3
41319
41787.6
42299
42849.7
43447.4
44094.3
44788.9
45524
46285.6
47050.7
47787.8
48460.7
49031.3
49459.4
49707.9
49733.5
49562
49163.5
48538.1
47704.2
46697.7
45577.7
44412
43260.1
42171.9
41185
40320.7
39587.7
38984.2
38502.7
38130.2
37852.6
37655.9
37527.7
37457.9
37433.9
37449.4
37498
37574.4
37674.4
37794.3
37931
38081.5
38242.9
38412.8
38589.3
38770.7
38956.1
39145.1
39336.8
39531.2
39727.4
39925
40123.3
40322
40521.3
40721.8
40924.3
41130.2
41341.2
41559.7
41787.9
42030
42291.4
42576
42887.3
43228.4
43600.1
44000.3
44423.6
44861.3
45301.2
45729
46126.6
46474.4
46753.8
46948.7
47044.7
47040.9
46929.8
46715.2
46406.4
46018.6
45569.7
45079.5
44569.4
44059.2
43566
43103.4
42680.6
42303
41972.4
41687.8
41449.5
41245.8
41072.1
40921.4
40787.8
40666.8
40556.1
40456
40367.4
40294
40239.8
40208.5
40202.9
40223.5
40267.9
40331.6
40408.7
40491.3
40571.5
40643.9
40705.6
40757.1
40801.4
40843.4
40889.6
40946.3
41017.4
41103.4
41202.4
41310.6
41422.6
41533.2
41638.5
41736
41823
41899.5
41966.6
42026.6
42082.2
42137.2
42195.2
42258.3
42326
42395.2
42461.3
42518.5
42561.3
42587.8
42599.7
42600.1
42593.2
42582.4
42568.1
42548.8
42523
42490.1
42451.7
42410.4
42369.7
42332.2
42297.7
42264.7
42231.7
41217.4
41685.9
42197.3
42748
43345.7
43992.7
44687.2
45422.4
46184
46949.1
47686.2
48359.2
48929.8
49358
49606.6
49632.1
49460.6
49062.2
48436.7
47602.7
46596.1
45476.1
44310.3
43158.3
42070.2
41083.2
40218.9
39485.9
38882.5
38401
38028.5
37750.9
37554.2
37426.1
37356.2
37332.3
37347.8
37396.4
37472.8
37572.8
37692.7
37829.4
37979.9
38141.3
38311.2
38487.7
38669.1
38854.5
39043.5
39235.2
39429.6
39625.8
39823.4
40021.7
40220.4
40419.7
40620.2
40822.7
41028.5
41239.6
41458.1
41686.3
41928.4
42189.7
42474.4
42785.6
43126.7
43498.5
43898.7
44322
44759.6
45199.6
45627.4
46025.1
46372.9
46652.3
46847.2
46943.2
46939.4
46828.3
46613.6
46304.9
45917.1
45468.1
44978
44467.8
43957.5
43464.4
43001.7
42578.9
42201.4
41870.8
41586.2
41347.8
41144.2
40970.4
40819.7
40686.2
40565.2
40454.5
40354.3
40265.8
40192.4
40138.2
40106.9
40101.3
40121.9
40166.3
40230
40307.1
40389.7
40469.9
40542.3
40604
40655.5
40699.8
40741.8
40787.9
40844.7
40915.8
41001.8
41100.8
41209
41321
41431.6
41536.9
41634.4
41721.4
41797.9
41865
41925
41980.6
42035.6
42093.6
42156.7
42224.4
42293.6
42359.8
42416.9
42459.7
42486.2
42498.1
42498.5
42491.6
42480.8
42466.5
42447.2
42421.4
42388.5
42350.1
42308.8
42268.1
42230.6
42196.1
42163.1
42130
41115.7
41584.2
42095.6
42646.3
43244
43891
44585.5
45320.7
46082.3
46847.5
47584.6
48257.7
48828.3
49256.6
49505.2
49530.8
49359.2
48960.8
48335.3
47501.3
46494.5
45374.4
44208.6
43056.6
41968.4
40981.4
40117.1
39384.1
38780.7
38299.2
37926.8
37649.2
37452.5
37324.4
37254.5
37230.6
37246.1
37294.7
37371.2
37471.2
37591.1
37727.8
37878.3
38039.7
38209.6
38386
38567.5
38752.9
38941.9
39133.6
39328
39524.2
39721.8
39920.1
40118.8
40318.1
40518.6
40721.1
40926.9
41138
41356.5
41584.7
41826.7
42088.1
42372.7
42684
43025.1
43396.8
43797.1
44220.4
44658
45098
45525.8
45923.5
46271.3
46550.8
46745.7
46841.7
46837.9
46726.9
46512.1
46203.4
45815.5
45366.5
44876.4
44366.2
43855.9
43362.7
42900.1
42477.3
42099.7
41769.1
41484.5
41246.2
41042.5
40868.8
40718.1
40584.6
40463.6
40352.9
40252.7
40164.1
40090.8
40036.5
40005.2
39999.7
40020.3
40064.6
40128.4
40205.5
40288.1
40368.3
40440.7
40502.4
40553.9
40598.2
40640.2
40686.3
40743.1
40814.2
40900.1
40999.1
41107.4
41219.4
41330
41435.3
41532.8
41619.8
41696.3
41763.4
41823.4
41879
41934
41992
42055.1
42122.8
42192
42258.2
42315.3
42358.1
42384.6
42396.5
42396.9
42390
42379.2
42364.9
42345.6
42319.8
42286.9
42248.5
42207.2
42166.5
42129
42094.5
42061.5
42028.4
41014.1
41482.6
41994
42544.6
43142.3
43789.3
44483.8
45219
45980.7
46745.9
47483.1
48156.2
48726.9
49155.2
49403.9
49429.4
49257.9
48859.4
48233.9
47399.8
46393
45272.8
44106.9
42954.8
41866.6
40879.6
40015.3
39282.3
38679
38197.5
37825.1
37547.5
37350.8
37222.7
37152.9
37128.9
37144.5
37193.1
37269.5
37369.5
37489.5
37626.2
37776.7
37938.1
38108
38284.4
38465.9
38651.3
38840.2
39032
39226.3
39422.6
39620.2
39818.5
40017.2
40216.5
40417
40619.5
40825.3
41036.4
41254.8
41483
41725.1
41986.5
42271.1
42582.3
42923.4
43295.2
43695.4
44118.7
44556.4
44996.4
45424.2
45822
46169.8
46449.3
46644.2
46740.3
46736.4
46625.4
46410.7
46101.9
45714
45265
44774.8
44264.6
43754.3
43261.1
42798.4
42375.6
41998
41667.4
41382.8
41144.5
40940.9
40767.2
40616.5
40482.9
40361.9
40251.2
40151.1
40062.5
39989.2
39934.9
39903.6
39898
39918.6
39963
40026.7
40103.9
40186.5
40266.7
40339.1
40400.8
40452.3
40496.6
40538.6
40584.7
40641.5
40712.6
40798.5
40897.5
41005.8
41117.8
41228.4
41333.7
41431.2
41518.2
41594.7
41661.8
41721.8
41777.4
41832.4
41890.4
41953.5
42021.2
42090.4
42156.6
42213.7
42256.5
42283
42294.9
42295.3
42288.4
42277.6
42263.3
42244
42218.2
42185.3
42146.9
42105.6
42064.9
42027.4
41992.9
41959.9
41926.8
40912.4
41380.9
41892.3
42442.9
43040.6
43687.6
44382.1
45117.3
45879
46644.3
47381.5
48054.7
48625.5
49053.8
49302.5
49328.1
49156.6
48758.1
48132.5
47298.3
46291.4
45171.2
44005.2
42853
41764.8
40777.8
39913.5
39180.5
38577.2
38095.7
37723.3
37445.7
37249.1
37121
37051.2
37027.3
37042.8
37091.5
37167.9
37267.9
37387.8
37524.5
37675
37836.5
38006.4
38182.8
38364.3
38549.7
38738.6
38930.4
39124.7
39321
39518.6
39716.8
39915.6
40114.9
40315.4
40517.9
40723.7
40934.7
41153.2
41381.4
41623.5
41884.8
42169.4
42480.7
42821.8
43193.5
43593.8
44017.1
44454.8
44894.8
45322.7
45720.4
46068.3
46347.8
46542.7
46638.8
46635
46523.9
46309.2
46000.4
45612.5
45163.4
44673.2
44162.9
43652.6
43159.4
42696.7
42273.9
41896.4
41565.7
41281.2
41042.9
40839.2
40665.5
40514.9
40381.3
40260.3
40149.6
40049.5
39960.9
39887.5
39833.3
39802
39796.4
39817
39861.4
39925.1
40002.3
40084.9
40165.1
40237.6
40299.3
40350.7
40395
40437
40483.1
40539.8
40611
40696.9
40795.9
40904.2
41016.2
41126.8
41232.1
41329.6
41416.6
41493.1
41560.2
41620.2
41675.8
41730.8
41788.8
41851.9
41919.6
41988.8
42055
42112.1
42155
42181.5
42193.3
42193.7
42186.8
42176
42161.7
42142.4
42116.6
42083.7
42045.3
42004
41963.3
41925.8
41891.3
41858.3
41825.2
40759.9
41228.4
41739.7
42290.4
42888
43535
44229.5
44964.8
45726.5
46491.8
47229.2
47902.5
48473.3
48901.8
49150.6
49176.2
49004.7
48606.2
47980.5
47146.2
46139.1
45018.7
43852.6
42700.3
41612
40625
39760.7
39027.8
38424.5
37943
37570.7
37293.1
37096.6
36968.5
36898.7
36874.8
36890.4
36939
37015.4
37115.4
37235.4
37372.1
37522.6
37684
37854
38030.4
38211.8
38397.3
38586.2
38778
38972.3
39168.6
39366.2
39564.4
39763.2
39962.5
40163
40365.5
40571.3
40782.3
41000.8
41229
41471
41732.3
42016.9
42328.2
42669.3
43041
43441.3
43864.6
44302.3
44742.4
45170.3
45568.1
45916
46195.6
46390.5
46486.6
46482.8
46371.7
46157
45848.1
45460.2
45011.1
44520.8
44010.5
43500.2
43006.9
42544.2
42121.4
41743.8
41413.2
41128.7
40890.4
40686.7
40513.1
40362.4
40228.9
40107.9
39997.2
39897.1
39808.4
39735.1
39680.8
39649.5
39643.9
39664.5
39708.9
39772.7
39849.9
39932.5
40012.7
40085.2
40146.9
40198.3
40242.6
40284.5
40330.7
40387.4
40458.5
40544.5
40643.5
40751.7
40863.8
40974.4
41079.7
41177.2
41264.2
41340.7
41407.8
41467.8
41523.4
41578.3
41636.3
41699.5
41767.2
41836.4
41902.6
41959.8
42002.6
42029.1
42040.9
42041.3
42034.4
42023.6
42009.3
41990
41964.2
41931.3
41892.9
41851.6
41810.9
41773.3
41738.9
41705.9
41672.8
40556.6
41025
41536.3
42086.9
42684.6
43331.6
44026.1
44761.4
45523.2
46288.6
47026
47699.5
48270.6
48699.2
48948.1
48973.8
48802.3
48403.6
47777.8
46943.3
45936
44815.4
43649.1
42496.7
41408.3
40421.3
39557
38824.1
38220.8
37739.4
37367.2
37089.7
36893.1
36765.1
36695.3
36671.4
36687
36735.7
36812.2
36912.2
37032.1
37168.8
37319.3
37480.8
37650.7
37827.2
38008.6
38194.1
38383
38574.8
38769.1
38965.4
39162.9
39361.2
39560
39759.3
39959.8
40162.2
40368.1
40579.1
40797.5
41025.7
41267.7
41529
41813.6
42124.8
42465.9
42837.6
43237.9
43661.3
44099.1
44539.2
44967.2
45365.1
45713.1
45992.6
46187.7
46283.8
46280
46168.9
45954.1
45645.2
45257.1
44808
44317.6
43807.3
43296.9
42803.6
42340.8
41918
41540.4
41209.8
40925.3
40687
40483.4
40309.8
40159.1
40025.6
39904.6
39793.9
39693.8
39605.2
39531.8
39477.5
39446.2
39440.6
39461.3
39505.6
39569.4
39646.7
39729.3
39809.6
39882
39943.7
39995.1
40039.4
40081.3
40127.4
40184.2
40255.3
40341.2
40440.3
40548.5
40660.6
40771.2
40876.5
40974
41061.1
41137.5
41204.7
41264.6
41320.2
41375.1
41433.1
41496.2
41564
41633.2
41699.4
41756.6
41799.4
41825.9
41837.7
41838.1
41831.2
41820.4
41806.1
41786.8
41761
41728.1
41689.7
41648.4
41607.7
41570.1
41535.6
41502.7
41469.6
40353.2
40821.6
41332.9
41883.5
42481.1
43128.1
43822.6
44557.9
45319.8
46085.4
46823
47496.6
48067.8
48496.7
48745.7
48771.4
48599.9
48201.2
47575.2
46740.5
45733
44612.1
43445.5
42293
41204.5
40217.4
39353.2
38620.3
38017.1
37535.8
37163.6
36886.1
36689.6
36561.7
36491.9
36468.1
36483.7
36532.4
36608.9
36708.9
36828.8
36965.6
37116.1
37277.6
37447.5
37623.9
37805.4
37990.8
38179.8
38371.5
38565.9
38762.2
38959.7
39158
39356.8
39556.1
39756.5
39959
40164.8
40375.8
40594.3
40822.4
41064.4
41325.7
41610.3
41921.5
42262.6
42634.3
43034.6
43458
43895.8
44336
44764.1
45162
45510.1
45789.8
45984.8
46081
46077.2
45966.1
45751.2
45442.2
45054.2
44604.9
44114.5
43604
43093.6
42600.2
42137.5
41714.6
41337
41006.4
40721.9
40483.7
40280.1
40106.5
39955.9
39822.4
39701.4
39590.7
39490.6
39401.9
39328.5
39274.2
39242.9
39237.3
39258
39302.4
39366.2
39443.4
39526.1
39606.4
39678.8
39740.5
39791.9
39836.2
39878.1
39924.2
39980.9
40052
40138
40237
40345.3
40457.4
40568
40673.3
40770.9
40857.9
40934.3
41001.5
41061.4
41117
41171.9
41229.9
41293
41360.8
41430
41496.3
41553.4
41596.3
41622.8
41634.6
41634.9
41628.1
41617.2
41602.9
41583.6
41557.8
41524.9
41486.5
41445.2
41404.5
41366.9
41332.4
41299.5
41266.4
40149.8
40618.2
41129.4
41680
42277.6
42924.5
43619.1
44354.5
45116.4
45882.1
46619.9
47293.7
47865.2
48294.2
48543.4
48569.2
48397.6
47998.9
47372.7
46537.7
45529.9
44408.7
43241.9
42089.3
41000.7
40013.5
39149.3
38416.5
37813.3
37332.1
36959.9
36682.6
36486.1
36358.2
36288.5
36264.7
36280.4
36329
36405.5
36505.6
36625.6
36762.3
36912.8
37074.3
37244.3
37420.7
37602.2
37787.6
37976.6
38168.3
38362.7
38559
38756.5
38954.8
39153.6
39352.9
39553.3
39755.8
39961.6
40172.6
40391
40619.1
40861.1
41122.4
41406.9
41718.1
42059.2
42430.9
42831.2
43254.7
43692.6
44132.8
44561
44959
45307.2
45586.9
45782
45878.2
45874.4
45763.3
45548.4
45239.3
44851.2
44401.8
43911.3
43400.8
42890.2
42396.8
41934
41511.2
41133.6
40803
40518.5
40280.3
40076.7
39903.2
39752.6
39619.1
39498.1
39387.5
39287.3
39198.6
39125.2
39070.9
39039.6
39034
39054.6
39099.1
39162.9
39240.2
39322.9
39403.2
39475.7
39537.4
39588.7
39633
39674.9
39720.9
39777.6
39848.7
39934.7
40033.8
40142.1
40254.2
40364.8
40470.2
40567.7
40654.7
40731.2
40798.3
40858.2
40913.7
40968.7
41026.7
41089.8
41157.5
41226.8
41293.1
41350.3
41393.1
41419.6
41431.4
41431.8
41424.9
41414
41399.7
41380.5
41354.7
41321.7
41283.3
41242
41201.2
41163.7
41129.2
41096.3
41063.2
39946.4
40414.7
40925.9
41476.5
42074
42721
43415.6
44151
44913
45678.8
46416.8
47090.9
47662.5
48091.8
48341.1
48367
48195.5
47796.6
47170.2
46335
45326.9
44205.4
43038.3
41885.5
40796.8
39809.6
38945.3
38212.6
37609.5
37128.3
36756.3
36479
36282.6
36154.8
36085.1
36061.3
36077
36125.7
36202.2
36302.3
36422.3
36559
36709.6
36871
37041
37217.5
37398.9
37584.4
37773.3
37965.1
38159.5
38355.7
38553.3
38751.6
38950.3
39149.7
39350.1
39552.6
39758.4
39969.4
40187.8
40415.9
40657.8
40919
41203.5
41514.7
41855.8
42227.5
42627.9
43051.4
43489.3
43929.6
44357.9
44756
45104.3
45384.1
45579.3
45675.5
45671.7
45560.6
45345.6
45036.5
44648.2
44198.8
43708.2
43197.5
42686.9
42193.5
41730.6
41307.7
40930.1
40599.5
40315.1
40076.9
39873.4
39699.8
39549.3
39415.8
39294.9
39184.2
39084
38995.4
38921.9
38867.6
38836.3
38830.7
38851.3
38895.8
38959.6
39037
39119.7
39200
39272.5
39334.2
39385.6
39429.8
39471.6
39517.7
39574.4
39645.5
39731.4
39830.5
39938.9
40051
40161.6
40267
40364.5
40451.6
40528
40595.1
40655
40710.5
40765.5
40823.4
40886.6
40954.3
41023.6
41089.9
41147.2
41190
41216.5
41228.3
41228.6
41221.7
41210.9
41196.5
41177.3
41151.5
41118.6
41080.1
41038.8
40998
40960.5
40926
40893.1
40860
39743
40211.3
40722.4
41272.9
41870.5
42517.4
43212
43947.5
44709.6
45475.6
46213.7
46888
47460
47889.4
48139
48165
47993.4
47594.4
46967.9
46132.3
45123.8
44002
42834.7
41681.6
40592.8
39605.5