/*--------------------------------*- C++ -*----------------------------------*\
| =========                 |                                                 |
| \\      /  F ield         | OpenFOAM: The Open Source CFD Toolbox           |
|  \\    /   O peration     | Version:  v1912                                 |
|   \\  /    A nd           | Website:  www.openfoam.com                      |
|    \\/     M anipulation  |                                                 |
\*---------------------------------------------------------------------------*/
FoamFile
{
    version     2.0;
    format      ascii;
    class       surfaceScalarField;
    location    "30";
    object      alphaPhi0.water;
}
// * * * * * * * * * * * * * * * * * * * * * * * * * * * * * * * * * * * * * //

dimensions      [0 3 -1 0 0 0 0];
oriented        oriented;


internalField   nonuniform List<scalar> 
28285
(
0.00121637
-0.000570865
0.00176641
-0.000550032
0.00229466
-0.000528258
0.00280031
-0.000505646
0.00328261
-0.0004823
0.00374092
-0.000458313
0.00417471
-0.000433791
0.00458353
-0.00040882
0.00496704
-0.000383504
0.00532496
-0.000357927
0.00565715
-0.00033219
0.00596352
-0.000306368
0.00624408
-0.000280561
0.00649892
-0.00025484
0.00672822
-0.000229296
0.00693222
-0.000203998
0.00711124
-0.000179021
0.00726568
-0.000154439
0.007396
-0.000130317
0.00750271
-0.000106715
0.00758642
-8.37041e-05
0.00764774
-6.13278e-05
0.00768739
-3.96498e-05
0.0077061
-1.87027e-05
0.00770466
1.43165e-06
0.00768393
2.07386e-05
0.00764474
3.91882e-05
0.007588
5.67381e-05
0.00751468
7.33144e-05
0.00742576
8.89197e-05
0.00732208
0.000103681
0.00720467
0.000117418
0.00707452
0.000130142
0.00693267
0.000141855
0.00678011
0.000152556
0.00661786
0.00016225
0.00644692
0.000170943
0.00626826
0.000178659
0.00608287
0.000185394
0.00589168
0.000191189
0.00569561
0.000196066
0.00549556
0.000200049
0.00529237
0.000203188
0.00508687
0.000205501
0.00487982
0.000207048
0.00467197
0.000207852
0.00446401
0.000207967
0.00425659
0.000207416
0.00405032
0.000206273
0.00384579
0.000204531
0.00364351
0.000202272
0.00344401
0.000199503
0.00324774
0.000196274
0.0030551
0.000192633
0.00286652
0.000188588
0.00268231
0.000184203
0.00250284
0.000179474
0.00232837
0.000174469
0.00215918
0.00016919
0.00199549
0.000163693
0.0018375
0.000157983
0.00168539
0.000152118
0.00153928
0.000146109
0.00139929
0.000139992
0.00126549
0.000133793
0.00113795
0.000127542
0.00101668
0.000121268
0.00090168
0.000115002
0.000792923
0.000108757
0.000690358
0.000102565
0.000593897
9.64612e-05
0.000503455
9.04424e-05
0.000418903
8.45518e-05
0.000340113
7.87893e-05
0.000266927
7.31868e-05
0.00019916
6.77668e-05
0.000136641
6.25187e-05
7.91711e-05
5.74699e-05
2.65476e-05
5.26236e-05
-2.14094e-05
4.7957e-05
-6.49245e-05
4.35151e-05
-0.000104183
3.92581e-05
-0.00013937
3.51873e-05
-0.000170667
3.12976e-05
-0.000198251
2.7584e-05
-0.000222295
2.4044e-05
-0.000242974
2.06785e-05
-0.000260466
1.7492e-05
-0.000274956
1.44904e-05
-0.000286637
1.16807e-05
-0.000295706
9.06895e-06
-0.000302365
6.65897e-06
-0.000306816
4.4514e-06
-0.000309258
2.442e-06
-0.000309879
6.20729e-07
-0.000308865
-1.01401e-06
-0.000306379
-2.48641e-06
-0.000302573
-3.80575e-06
-0.000297587
-4.98592e-06
-0.000291548
-6.03877e-06
-0.000284576
-6.97251e-06
-0.000276782
-7.7941e-06
-0.000268277
-8.50452e-06
-0.000259171
-9.10647e-06
-0.000249568
-9.60258e-06
-0.000239571
-9.99745e-06
-0.000229272
-1.02984e-05
-0.000218757
-1.05151e-05
-0.0002081
-1.06574e-05
-0.000197364
-1.07357e-05
-0.000186607
-1.07564e-05
-0.000175881
-1.07269e-05
-0.000165233
-1.06473e-05
-0.000154709
-1.0524e-05
-0.000144356
-1.03532e-05
-0.000134209
-1.01473e-05
-0.000124307
-9.9017e-06
-0.000114669
-9.63847e-06
-0.000105322
-9.3467e-06
-9.62672e-05
-9.05468e-06
-8.75291e-05
-8.7381e-06
-7.90984e-05
-8.43073e-06
-7.10012e-05
-8.09717e-06
-6.32169e-05
-7.78426e-06
-5.57627e-05
-7.45424e-06
-4.85953e-05
-7.16742e-06
-4.17159e-05
-6.87937e-06
-3.50664e-05
-6.64954e-06
-2.86318e-05
-6.43461e-06
-2.24276e-05
-6.20419e-06
-1.64733e-05
-5.95428e-06
-1.09876e-05
-5.48571e-06
-6.24153e-06
-4.74607e-06
-3.67859e-06
-2.56293e-06
0.00124479
-0.00114031
0.00179336
-0.0010986
0.00232012
-0.00105502
0.00282423
-0.00100976
0.00330498
-0.000963051
0.00376174
-0.000915065
0.00419396
-0.000866011
0.00460121
-0.000816071
0.00498315
-0.000765444
0.00533952
-0.000714302
0.00567017
-0.00066284
0.00597501
-0.000611209
0.00625407
-0.00055962
0.00650745
-0.00050822
0.00673533
-0.000457175
0.00693795
-0.000406615
0.00711563
-0.000356703
0.00726877
-0.000307582
0.00739784
-0.000259386
0.00750336
-0.000212237
0.00758592
-0.000166265
0.00764617
-0.000121571
0.00768479
-7.82694e-05
0.00770255
-3.6471e-05
0.00770021
3.77617e-06
0.00767861
4.23412e-05
0.00763863
7.91686e-05
0.00758116
0.000114206
0.00750718
0.000147289
0.00741765
0.00017845
0.00731342
0.000207911
0.00719552
0.000235324
0.00706495
0.000260714
0.00692272
0.000284084
0.00676984
0.00030543
0.00660733
0.000324761
0.00643618
0.000342101
0.00625736
0.000357474
0.00607186
0.000370898
0.0058806
0.000382443
0.00568452
0.00039215
0.00548449
0.00040008
0.00528136
0.000406315
0.00507596
0.000410905
0.00486904
0.000413965
0.00466135
0.000415542
0.00445357
0.000415746
0.00424635
0.000414631
0.00404032
0.000412306
0.00383604
0.00040881
0.00363404
0.000404274
0.00343482
0.00039872
0.00323884
0.000392256
0.00304653
0.00038495
0.00285825
0.000376865
0.00267437
0.000368086
0.00249522
0.000358623
0.00232109
0.000348601
0.00215222
0.000338056
0.00198886
0.000327049
0.00183121
0.000315639
0.00167942
0.000303905
0.00153364
0.00029189
0.00139397
0.000279659
0.00126049
0.000267274
0.00113325
0.000254779
0.00101229
0.000242235
0.000897581
0.000229709
0.000789103
0.000217234
0.00068681
0.000204858
0.000590617
0.000192654
0.000500422
0.000180637
0.000416121
0.000168853
0.000337551
0.000157359
0.000264576
0.000146162
0.000197016
0.000135327
0.00013469
0.000124845
7.74048e-05
0.000114755
2.49578e-05
0.000105071
-2.28475e-05
9.57623e-05
-6.62167e-05
8.68842e-05
-0.000105339
7.83807e-05
-0.000140401
7.0249e-05
-0.000171583
6.24792e-05
-0.00019906
5.50613e-05
-0.000223007
4.79907e-05
-0.000243597
4.12685e-05
-0.000261008
3.49029e-05
-0.000275425
2.89075e-05
-0.000287039
2.32955e-05
-0.000296051
1.808e-05
-0.000302659
1.3267e-05
-0.000307066
8.85879e-06
-0.00030947
4.84634e-06
-0.00031007
1.2207e-06
-0.000309026
-2.05865e-06
-0.000306517
-4.99457e-06
-0.000302695
-7.62814e-06
-0.000297697
-9.98439e-06
-0.000291649
-1.20863e-05
-0.000284672
-1.395e-05
-0.000276875
-1.55903e-05
-0.000268371
-1.70089e-05
-0.000259267
-1.82107e-05
-0.000249669
-1.92008e-05
-0.000239677
-1.99886e-05
-0.000229387
-2.05889e-05
-0.000218881
-2.10211e-05
-0.000208234
-2.13046e-05
-0.000197509
-2.14606e-05
-0.000186764
-2.15015e-05
-0.000176049
-2.14419e-05
-0.000165414
-2.12824e-05
-0.000154902
-2.10354e-05
-0.000144561
-2.06941e-05
-0.000134427
-2.02821e-05
-0.000124537
-1.97917e-05
-0.00011491
-1.92647e-05
-0.000105574
-1.8683e-05
-9.65309e-05
-1.80978e-05
-8.78008e-05
-1.74682e-05
-7.93805e-05
-1.68511e-05
-7.12877e-05
-1.61899e-05
-6.35122e-05
-1.55597e-05
-5.60588e-05
-1.49076e-05
-4.88952e-05
-1.43311e-05
-4.20121e-05
-1.37624e-05
-3.53567e-05
-1.3305e-05
-2.89155e-05
-1.28758e-05
-2.26958e-05
-1.24238e-05
-1.6718e-05
-1.19322e-05
-1.12e-05
-1.10037e-05
-6.41542e-06
-9.53067e-06
-7.45996e-06
-2.63406e-06
0.00127757
-0.00170926
0.00182555
-0.00164657
0.00235163
-0.0015811
0.00285499
-0.00151313
0.00333491
-0.00144297
0.00379077
-0.00137092
0.00422204
-0.00129728
0.00462829
-0.00122232
0.00500918
-0.00114634
0.00536447
-0.00106959
0.00569401
-0.00099238
0.00599774
-0.000914935
0.00627567
-0.00083755
0.00652788
-0.000760435
0.00675457
-0.000683862
0.006956
-0.00060804
0.00713249
-0.000533198
0.00728446
-0.000459548
0.00741236
-0.000387285
0.00751672
-0.000316602
0.00759814
-0.000247687
0.00765727
-0.000180695
0.00769479
-0.000115795
0.00771144
-5.31148e-05
0.00770807
7.14003e-06
0.00768549
6.49203e-05
0.00764455
0.000120108
0.00758616
0.0001726
0.00751131
0.000222139
0.00742093
0.000268832
0.00731589
0.000312947
0.00719723
0.00035399
0.00706594
0.000391999
0.00692305
0.000426978
0.00676955
0.000458926
0.00660647
0.000487846
0.00643478
0.000513784
0.00625549
0.000536766
0.00606955
0.000556837
0.00587791
0.000574087
0.00568148
0.000588576
0.00548115
0.000600412
0.00527776
0.000609703
0.00507213
0.000616536
0.00486503
0.000621071
0.00465718
0.000623387
0.00444928
0.000623644
0.00424198
0.00062193
0.0040359
0.000618392
0.00383158
0.00061313
0.00362957
0.000606285
0.00343037
0.000597919
0.00323442
0.000588204
0.00304215
0.000577222
0.00285394
0.000565078
0.00267015
0.000551874
0.00249108
0.000537686
0.00231706
0.000522624
0.00214831
0.000506805
0.00198508
0.000490278
0.00182756
0.000473158
0.00167591
0.000455555
0.00153028
0.000437527
0.00139076
0.000419175
0.00125744
0.000400595
0.00113036
0.000381859
0.00100955
0.000363047
0.000895
0.000344255
0.000786685
0.000325549
0.000684547
0.000306997
0.0005885
0.000288701
0.000498462
0.000270674
0.000414303
0.000253012
0.00033588
0.000235782
0.000263043
0.000218999
0.000195625
0.000202746
0.00013342
0.000187049
7.62531e-05
0.000171922
2.39228e-05
0.000157401
-2.37772e-05
0.000143462
-6.70428e-05
0.00013015
-0.000106069
0.000117406
-0.00014104
0.000105221
-0.000172138
9.35769e-05
-0.000199537
8.24599e-05
-0.000223408
7.18624e-05
-0.000243927
6.17877e-05
-0.000261273
5.22487e-05
-0.00027563
4.32642e-05
-0.000287189
3.48545e-05
-0.000296148
2.70388e-05
-0.000302709
1.98277e-05
-0.000307073
1.32233e-05
-0.000309439
7.21263e-06
-0.000309987
1.76816e-06
-0.000308923
-3.12217e-06
-0.000306391
-7.52679e-06
-0.000302546
-1.14728e-05
-0.000297528
-1.50027e-05
-0.000291463
-1.81518e-05
-0.000284468
-2.09446e-05
-0.000276657
-2.34016e-05
-0.00026814
-2.55258e-05
-0.000259025
-2.73253e-05
-0.000249418
-2.88079e-05
-0.000239419
-2.99873e-05
-0.000229122
-3.08857e-05
-0.000218611
-3.15322e-05
-0.00020796
-3.19559e-05
-0.000197232
-3.21887e-05
-0.000186484
-3.22492e-05
-0.000175767
-3.21594e-05
-0.00016513
-3.19197e-05
-0.000154616
-3.15491e-05
-0.000144273
-3.10367e-05
-0.000134136
-3.04189e-05
-0.000124245
-2.96828e-05
-0.000114616
-2.88936e-05
-0.00010528
-2.80198e-05
-9.62326e-05
-2.71449e-05
-8.75032e-05
-2.61976e-05
-7.90778e-05
-2.52765e-05
-7.09876e-05
-2.42801e-05
-6.32052e-05
-2.33422e-05
-5.57559e-05
-2.2357e-05
-4.85871e-05
-2.14999e-05
-4.17093e-05
-2.06402e-05
-3.50579e-05
-1.99563e-05
-2.86198e-05
-1.93139e-05
-2.24151e-05
-1.86286e-05
-1.64643e-05
-1.78829e-05
-1.09884e-05
-1.64796e-05
-6.25812e-06
-1.42609e-05
-1.11335e-05
-2.58462e-06
0.00131347
-0.00227795
0.00186106
-0.00219417
0.00238665
-0.00210668
0.00288941
-0.00201589
0.00336864
-0.0019222
0.00382371
-0.001826
0.00425412
-0.00172769
0.00465944
-0.00162764
0.00503933
-0.00152623
0.00539357
-0.00142383
0.005722
-0.00132081
0.00602457
-0.00121751
0.0063013
-0.00111428
0.00655229
-0.00101142
0.00677773
-0.000909301
0.00697789
-0.000808198
0.00715311
-0.000708416
0.00730379
-0.000610229
0.00743041
-0.000513905
0.0075335
-0.000419698
0.00761366
-0.000327848
0.00767154
-0.000238573
0.00770784
-0.000152098
0.00772335
-6.86225e-05
0.00771878
1.17072e-05
0.00769504
8.86685e-05
0.00765298
0.000162162
0.00759351
0.000232071
0.00751764
0.000298011
0.00742626
0.000360213
0.00732027
0.000418934
0.0072007
0.00047356
0.00706856
0.000524142
0.00692486
0.00057068
0.0067706
0.00061318
0.00660681
0.000651645
0.00643447
0.000686124
0.00625456
0.000716668
0.00606806
0.000743337
0.00587591
0.000766238
0.00567903
0.000785458
0.00547829
0.000801155
0.00527454
0.000813452
0.0050686
0.000822479
0.00486122
0.000828448
0.00465315
0.000831459
0.00444507
0.00083172
0.00423762
0.000829384
0.00403141
0.000824599
0.00382701
0.000817523
0.00362498
0.000808324
0.00342574
0.000797151
0.00322979
0.000784159
0.00303752
0.000769488
0.00284934
0.000753258
0.00266561
0.00073561
0.00248661
0.000716678
0.00231267
0.000696573
0.00214402
0.000675449
0.0019809
0.000653395
0.0018235
0.000630563
0.00167199
0.000607064
0.00152648
0.000583032
0.00138711
0.000558547
0.00125395
0.000533761
0.00112702
0.000508784
0.00100637
0.000483701
0.000891974
0.000458649
0.000783812
0.000433711
0.000681827
0.000408982
0.000585946
0.000384583
0.000496059
0.000360561
0.000412046
0.000337026
0.000333776
0.000314051
0.000261082
0.000291693
0.000193797
0.000270031
0.000131743
0.000249103
7.46942e-05
0.000228971
2.24842e-05
0.000209611
-2.51011e-05
0.000191048
-6.82619e-05
0.000173311
-0.000107188
0.000156333
-0.000142065
0.000140098
-0.000173073
0.000124585
-0.000200387
0.000109774
-0.000224182
9.56567e-05
-0.000244628
8.22345e-05
-0.000261905
6.95248e-05
-0.000276195
5.75549e-05
-0.000287693
4.63519e-05
-0.000296596
3.59419e-05
-0.000303105
2.63369e-05
-0.000307423
1.75415e-05
-0.000309748
9.53707e-06
-0.000310282
2.30296e-06
-0.00030917
-4.23434e-06
-0.000306607
-1.00901e-05
-0.000302737
-1.53427e-05
-0.000297697
-2.00423e-05
-0.000291615
-2.42346e-05
-0.000284607
-2.79522e-05
-0.000276785
-3.12238e-05
-0.000268258
-3.40527e-05
-0.000259135
-3.64486e-05
-0.000249521
-3.84216e-05
-0.000239518
-3.99906e-05
-0.000229218
-4.11852e-05
-0.000218706
-4.20443e-05
-0.000208055
-4.2607e-05
-0.000197328
-4.29155e-05
-0.000186583
-4.29945e-05
-0.000175869
-4.28733e-05
-0.000165236
-4.25526e-05
-0.000154728
-4.20572e-05
-0.000144391
-4.13732e-05
-0.000134262
-4.05485e-05
-0.000124378
-3.95667e-05
-0.000114758
-3.85132e-05
-0.000105429
-3.73488e-05
-9.63934e-05
-3.61808e-05
-8.7671e-05
-3.492e-05
-7.92583e-05
-3.36891e-05
-7.11743e-05
-3.23641e-05
-6.34074e-05
-3.1109e-05
-5.59636e-05
-2.98008e-05
-4.88096e-05
-2.86539e-05
-4.19368e-05
-2.7513e-05
-3.52922e-05
-2.6601e-05
-2.88616e-05
-2.57445e-05
-2.26529e-05
-2.48372e-05
-1.66861e-05
-2.38498e-05
-1.11786e-05
-2.19871e-05
-6.4056e-06
-1.90339e-05
-1.48992e-05
-2.6399e-06
0.0013521
-0.00284661
0.00189951
-0.00274158
0.00242478
-0.00263194
0.00292709
-0.00251821
0.00340576
-0.00240086
0.00386016
-0.00228041
0.0042898
-0.00215733
0.00469424
-0.00203208
0.00507319
-0.00190517
0.0054264
-0.00177704
0.00575374
-0.00164815
0.00605514
-0.00151891
0.00633065
-0.00138979
0.00658039
-0.00126117
0.00680457
-0.00113347
0.00700343
-0.00100706
0.00717733
-0.000882314
0.00732668
-0.00075958
0.00745195
-0.000639175
0.00755369
-0.00052144
0.0076325
-0.00040666
0.00768904
-0.000295109
0.007724
-0.000187064
0.00773815
-8.27728e-05
0.00773233
1.75283e-05
0.00770734
0.000113666
0.00766405
0.000205445
0.00760338
0.000292739
0.00752637
0.000375024
0.00743386
0.000452723
0.00732679
0.000526001
0.00720619
0.000594164
0.00707306
0.00065727
0.00692842
0.000715319
0.00677329
0.000768311
0.00660866
0.000816271
0.00643555
0.000859239
0.00625493
0.000897285
0.00606777
0.0009305
0.00587501
0.000958994
0.00567757
0.0009829
0.00547633
0.00100239
0.00527214
0.00101764
0.0050658
0.00102882
0.00485809
0.00103616
0.00464972
0.00103983
0.00444138
0.00104006
0.00423371
0.00103706
0.00402732
0.00103098
0.00382278
0.00102207
0.00362061
0.00101049
0.00342129
0.000996476
0.00322527
0.000980176
0.00303298
0.000961777
0.00284481
0.000941432
0.00266109
0.000919323
0.00248215
0.000895624
0.00230827
0.000870454
0.0021397
0.000844012
0.00197668
0.000816418
0.00181939
0.000787852
0.00166798
0.00075847
0.00152262
0.000728398
0.00138338
0.000697788
0.00125035
0.000666789
0.00112357
0.000635564
0.00100307
0.000604201
0.000888838
0.00057288
0.000780835
0.000541713
0.000679021
0.000510796
0.000583296
0.000480308
0.000493574
0.000450283
0.000409733
0.000420866
0.000331611
0.000392174
0.000259068
0.000364236
0.000191938
0.000337162
0.000130011
0.00031103
7.31121e-05
0.000285869
2.10415e-05
0.000261681
-2.64213e-05
0.00023851
-6.94617e-05
0.000216351
-0.000108276
0.000195146
-0.000143049
0.000174871
-0.000173961
0.000155497
-0.000201185
0.000136999
-0.000224892
0.000119364
-0.000245255
0.000102598
-0.000262455
8.67242e-05
-0.000276674
7.17744e-05
-0.000288105
5.77828e-05
-0.000296945
4.47816e-05
-0.000303396
3.27884e-05
-0.000307662
2.18068e-05
-0.000309939
1.18142e-05
-0.000310404
2.76843e-06
-0.000309275
-5.36392e-06
-0.000306682
-1.2683e-05
-0.000302784
-1.92404e-05
-0.00029772
-2.51068e-05
-0.000291614
-3.03409e-05
-0.000284583
-3.49829e-05
-0.00027674
-3.90668e-05
-0.000268196
-4.25968e-05
-0.000259058
-4.55863e-05
-0.000249432
-4.80479e-05
-0.000239417
-5.00049e-05
-0.000229108
-5.14942e-05
-0.000218588
-5.25645e-05
-0.00020793
-5.32649e-05
-0.000197198
-5.36482e-05
-0.000186447
-5.37452e-05
-0.000175728
-5.35925e-05
-0.00016509
-5.31905e-05
-0.000154577
-5.25704e-05
-0.000144235
-5.17146e-05
-0.0001341
-5.06831e-05
-0.000124212
-4.94553e-05
-0.000114586
-4.81387e-05
-0.000105252
-4.66827e-05
-9.62096e-05
-4.52236e-05
-8.7483e-05
-4.36466e-05
-7.90624e-05
-4.21098e-05
-7.09747e-05
-4.04518e-05
-6.31973e-05
-3.88864e-05
-5.57495e-05
-3.72485e-05
-4.85855e-05
-3.58179e-05
-4.1709e-05
-3.43895e-05
-3.506e-05
-3.32501e-05
-2.86237e-05
-3.21807e-05
-2.24193e-05
-3.10416e-05
-1.64672e-05
-2.98019e-05
-1.09885e-05
-2.74658e-05
-6.25271e-06
-2.37697e-05
-1.85699e-05
-2.58194e-06
0.00139374
-0.00341546
0.00194117
-0.00328901
0.00246629
-0.00315707
0.00296832
-0.00302023
0.00344655
-0.00287909
0.00390039
-0.00273424
0.00432933
-0.00258627
0.00473298
-0.00243573
0.00511101
-0.00228321
0.00546322
-0.00212925
0.00578947
-0.0019744
0.00608973
-0.00181916
0.00636402
-0.00166408
0.00661248
-0.00150963
0.00683531
-0.0013563
0.0070328
-0.00120455
0.00720528
-0.00105479
0.00735318
-0.000907481
0.007477
-0.000762993
0.00757727
-0.000621711
0.0076546
-0.000483997
0.00770967
-0.000350171
0.00774317
-0.000220571
0.00775587
-9.54661e-05
0.00774861
2.47858e-05
0.00772221
0.000140065
0.00767755
0.000250106
0.00761554
0.000354751
0.00753723
0.00045333
0.00744344
0.00054651
0.00733515
0.000634294
0.00721337
0.000715941
0.00707912
0.000791523
0.00693341
0.000861026
0.00677727
0.00092446
0.00661168
0.000981856
0.00643766
0.00103326
0.0062562
0.00107875
0.00606826
0.00111844
0.00587479
0.00115247
0.00567669
0.001181
0.00547486
0.00120423
0.00527014
0.00122237
0.00506332
0.00123564
0.00485518
0.0012443
0.00464644
0.00124857
0.00443778
0.00124871
0.00422985
0.00124499
0.00402323
0.0012376
0.00381851
0.0012268
0.00361618
0.00121282
0.00341676
0.0011959
0.00322067
0.00117626
0.00302833
0.00115411
0.00284014
0.00112962
0.00265642
0.00110305
0.0024775
0.00107454
0.00230366
0.00104429
0.00213515
0.00101252
0.0019722
0.00097937
0.001815
0.000945055
0.00166371
0.000909759
0.00151846
0.000873647
0.00137935
0.000836893
0.00124646
0.000799681
0.00111984
0.000762182
0.000999491
0.000724552
0.000885425
0.000686946
0.000777593
0.000649545
0.000675937
0.000612452
0.000580389
0.000575856
0.000490834
0.000539838
0.000407148
0.000504553
0.000329199
0.000470122
0.000256831
0.000436603
0.000189852
0.00040414
0.000128073
0.000372809
7.13244e-05
0.000342619
1.93803e-05
0.000313625
-2.79501e-05
0.000285841
-7.08716e-05
0.000259272
-0.000109572
0.000233847
-0.000144237
0.000209536
-0.000175047
0.000186306
-0.000202174
0.000164126
-0.000225793
0.000142982
-0.000246073
0.000122878
-0.000263191
0.000103843
-0.000277333
8.59161e-05
-0.00028869
6.914e-05
-0.000297463
5.35543e-05
-0.000303852
3.91775e-05
-0.000308061
2.60157e-05
-0.000310287
1.40405e-05
-0.000310735
3.216e-06
-0.000309545
-6.55433e-06
-0.000306914
-1.53132e-05
-0.000302986
-2.31688e-05
-0.000297895
-3.01974e-05
-0.000291768
-3.64681e-05
-0.000284722
-4.2029e-05
-0.000276866
-4.69228e-05
-0.000268309
-5.11537e-05
-0.00025916
-5.47357e-05
-0.000249524
-5.76837e-05
-0.000239503
-6.00261e-05
-0.000229189
-6.18079e-05
-0.000218666
-6.30876e-05
-0.000208007
-6.39241e-05
-0.000197274
-6.43809e-05
-0.000186525
-6.44946e-05
-0.000175808
-6.43089e-05
-0.000165174
-6.38248e-05
-0.000154665
-6.30789e-05
-0.00014433
-6.20504e-05
-0.000134202
-6.08111e-05
-0.00012432
-5.93366e-05
-0.000114703
-5.77554e-05
-0.000105378
-5.60084e-05
-9.6345e-05
-5.42565e-05
-8.76259e-05
-5.23656e-05
-7.92156e-05
-5.05201e-05
-7.11347e-05
-4.85328e-05
-6.337e-05
-4.66511e-05
-5.59292e-05
-4.46893e-05
-4.87769e-05
-4.29702e-05
-4.19063e-05
-4.12601e-05
-3.52636e-05
-3.98927e-05
-2.8834e-05
-3.86103e-05
-2.26273e-05
-3.72482e-05
-1.66638e-05
-3.57655e-05
-1.11617e-05
-3.29678e-05
-6.39699e-06
-2.85345e-05
-2.23304e-05
-2.63647e-06
0.00143836
-0.00398474
0.00198601
-0.00383666
0.00251117
-0.00368223
0.00301305
-0.00352211
0.00349097
-0.003357
0.00394434
-0.00318762
0.00437267
-0.0030146
0.00477558
-0.00283864
0.00515275
-0.00266039
0.00550399
-0.00248049
0.00582916
-0.00229957
0.00612824
-0.00211824
0.00640128
-0.00193712
0.00664841
-0.00175676
0.00686985
-0.00157774
0.0070659
-0.00140059
0.00723689
-0.00122579
0.00738328
-0.00105387
0.00750555
-0.000885261
0.00760424
-0.00072041
0.00768
-0.000559754
0.00773348
-0.000403651
0.0077654
-0.000252489
0.00777654
-0.000106603
0.00776771
3.36129e-05
0.00773976
0.000168009
0.00769359
0.000296284
0.0076301
0.000418242
0.00755037
0.00053306
0.00745516
0.000641713
0.00734551
0.00074395
0.00722242
0.000839032
0.0070869
0.000927036
0.00693999
0.00100794
0.0067827
0.00108176
0.00661603
0.00114852
0.00644099
0.00120829
0.00625857
0.00126116
0.00606975
0.00130726
0.00587545
0.00134676
0.0056766
0.00137984
0.00547408
0.00140675
0.00526873
0.00142772
0.00506136
0.00144301
0.00485272
0.00145293
0.00464354
0.00145775
0.0044345
0.00145776
0.00422624
0.00145326
0.00401934
0.00144449
0.00381437
0.00143177
0.00361186
0.00141532
0.00341228
0.00139548
0.00321609
0.00137246
0.00302367
0.00134653
0.00283541
0.00131788
0.00265168
0.00128678
0.00247275
0.00125346
0.00229893
0.00121811
0.00213048
0.00118098
0.00196759
0.00114225
0.00181048
0.00110217
0.00165929
0.00106095
0.00151416
0.00101877
0.00137518
0.000975873
0.00124243
0.00093243
0.00111596
0.000888658
0.000995776
0.000844735
0.000881872
0.00080085
0.000774209
0.000757208
0.000672722
0.000713939
0.000577347
0.000671232
0.000487969
0.000629215
0.000404464
0.000588058
0.000326689
0.000547898
0.000254493
0.000508799
0.000187669
0.000470964
0.000126065
0.000434412
6.94706e-05
0.000399213
1.76865e-05
0.00036541
-2.95117e-05
0.000333039
-7.22979e-05
0.000302059
-0.000110872
0.000272421
-0.000145421
0.000244085
-0.000176122
0.000217008
-0.000203148
0.000191152
-0.000226668
0.000166502
-0.000246854
0.000143064
-0.000263884
0.000120873
-0.000277944
9.99755e-05
-0.000289224
8.04202e-05
-0.000297923
6.22537e-05
-0.000304245
4.54994e-05
-0.000308392
3.01626e-05
-0.000310562
1.62108e-05
-0.000310935
3.58886e-06
-0.000309721
-7.76852e-06
-0.000307054
-1.79797e-05
-0.000303093
-2.71302e-05
-0.000297973
-3.53174e-05
-0.000291818
-4.26231e-05
-0.000284744
-4.91031e-05
-0.000276862
-5.48044e-05
-0.000268285
-5.97313e-05
-0.000259118
-6.39022e-05
-0.000249468
-6.73344e-05
-0.000239433
-7.00605e-05
-0.000229108
-7.21328e-05
-0.000218576
-7.36201e-05
-0.000207909
-7.45911e-05
-0.00019717
-7.512e-05
-0.000186415
-7.52499e-05
-0.000175692
-7.50313e-05
-0.000165052
-7.44647e-05
-0.000154538
-7.35929e-05
-0.000144197
-7.23915e-05
-0.000134064
-7.09444e-05
-0.000124177
-6.92231e-05
-0.000114555
-6.73778e-05
-0.000105224
-6.53393e-05
-9.6185e-05
-6.32956e-05
-8.74614e-05
-6.10892e-05
-7.9045e-05
-5.89364e-05
-7.09605e-05
-5.66173e-05
-6.31876e-05
-5.4424e-05
-5.57425e-05
-5.21345e-05
-4.85826e-05
-5.01302e-05
-4.17079e-05
-4.81347e-05
-3.50609e-05
-4.65398e-05
-2.8626e-05
-4.50452e-05
-2.24217e-05
-4.34526e-05
-1.64679e-05
-4.17192e-05
-1.09867e-05
-3.8449e-05
-6.24711e-06
-3.3274e-05
-2.60008e-05
-2.57671e-06
0.00148606
-0.00455466
0.00203412
-0.00438473
0.00255949
-0.00420759
0.00306136
-0.00402399
0.00353909
-0.00383473
0.00399211
-0.00364063
0.00441992
-0.00344241
0.00482214
-0.00324086
0.00519849
-0.00303674
0.00554877
-0.00283077
0.00587286
-0.00262366
0.00617076
-0.00241614
0.00644251
-0.00220887
0.00668828
-0.00200253
0.00690828
-0.00179774
0.00710281
-0.00159512
0.00727224
-0.00139522
0.00741702
-0.00119864
0.00753763
-0.00100588
0.00763466
-0.000817441
0.00770873
-0.000633815
0.00776049
-0.000455419
0.00779071
-0.000282704
0.00780013
-0.000116023
0.00778961
4.41282e-05
0.00775999
0.000197629
0.00771216
0.000344112
0.00764705
0.000483353
0.00756576
0.000614356
0.007469
0.000738475
0.00735784
0.000855109
0.00723329
0.000963574
0.00709639
0.00106394
0.00694814
0.00115618
0.00678957
0.00124033
0.00662169
0.0013164
0.00644551
0.00138447
0.00626202
0.00144465
0.00607218
0.0014971
0.00587696
0.00154199
0.00567725
0.00157955
0.00547395
0.00161005
0.0052679
0.00163377
0.00505988
0.00165102
0.00485067
0.00166214
0.00464099
0.00166743
0.0044315
0.00166725
0.00422285
0.00166191
0.00401561
0.00165173
0.00381037
0.00163701
0.00360761
0.00161808
0.00340783
0.00159526
0.00321147
0.00156882
0.00301893
0.00153906
0.0028306
0.00150622
0.0026468
0.00147058
0.00246787
0.0014324
0.00229405
0.00139193
0.00212562
0.00134942
0.0019628
0.00130507
0.00180575
0.00125922
0.00165465
0.00121205
0.00150963
0.0011638
0.00137077
0.00111472
0.00123816
0.00106504
0.00111184
0.00101498
0.000991811
0.000964764
0.000878068
0.000914593
0.000770585
0.000864691
0.000669278
0.000815246
0.000574087
0.000766422
0.00048489
0.000718413
0.000401558
0.00067139
0.000323977
0.000625479
0.000251944
0.000580832
0.0001853
0.000537608
0.000123863
0.000495849
6.74362e-05
0.00045564
1.57935e-05
0.000417052
-3.12514e-05
0.000380084
-7.39026e-05
0.00034471
-0.000112349
0.000310867
-0.000146776
0.000278512
-0.000177363
0.000247594
-0.00020428
0.00021807
-0.0002277
0.000189921
-0.000247791
0.000163156
-0.00026473
0.000137812
-0.000278701
0.000113947
-0.000289897
9.16162e-05
-0.000298518
7.08751e-05
-0.000304766
5.17474e-05
-0.000308846
3.42425e-05
-0.000310957
1.83213e-05
-0.000311297
3.92943e-06
-0.000310019
-9.04659e-06
-0.00030731
-2.06885e-05
-0.000303313
-3.11274e-05
-0.000298162
-4.04681e-05
-0.000291983
-4.88028e-05
-0.00028489
-5.61952e-05
-0.000276994
-6.27012e-05
-0.0002684
-6.83245e-05
-0.000259219
-7.30836e-05
-0.000249556
-7.69975e-05
-0.000239512
-8.01043e-05
-0.00022918
-8.24646e-05
-0.000218643
-8.41572e-05
-0.000207973
-8.52609e-05
-0.000197233
-8.58608e-05
-0.000186477
-8.60052e-05
-0.000175757
-8.5752e-05
-0.00016512
-8.51017e-05
-0.00015461
-8.41029e-05
-0.000144274
-8.27275e-05
-0.000134147
-8.10714e-05
-0.000124267
-7.91025e-05
-0.000114653
-7.69921e-05
-0.000105331
-7.46619e-05
-9.63007e-05
-7.23254e-05
-8.7585e-05
-6.9805e-05
-7.91772e-05
-6.73443e-05
-7.10991e-05
-6.46953e-05
-6.33369e-05
-6.21863e-05
-5.5899e-05
-5.95723e-05
-4.87489e-05
-5.72803e-05
-4.18808e-05
-5.50028e-05
-3.52405e-05
-5.31801e-05
-2.88121e-05
-5.14736e-05
-2.26074e-05
-4.96573e-05
-1.66465e-05
-4.76801e-05
-1.11487e-05
-4.39468e-05
-6.39001e-06
-3.80327e-05
-2.97583e-05
-2.63253e-06
0.00153684
-0.00512545
0.00208553
-0.00493341
0.00261126
-0.00473332
0.00311329
-0.00452602
0.00359095
-0.0043124
0.0040437
-0.00409338
0.00447106
-0.00386977
0.00487266
-0.00364246
0.00524822
-0.0034123
0.00559756
-0.00318011
0.00592059
-0.00294668
0.00621728
-0.00271284
0.00648773
-0.00247932
0.00673208
-0.00224689
0.00695058
-0.00201623
0.00714353
-0.00178808
0.00731131
-0.001563
0.00745439
-0.00134172
0.00757326
-0.00112475
0.0076685
-0.000912686
0.00774075
-0.000706065
0.0077907
-0.000505367
0.00781907
-0.000311076
0.00782667
-0.000123617
0.00781432
5.648e-05
0.00778288
0.000229064
0.00773326
0.000393733
0.00766639
0.00055022
0.00758339
0.000697362
0.00748493
0.000836937
0.00737212
0.000967913
0.00724599
0.00108971
0.00710755
0.00120238
0.00695783
0.00130591
0.00679785
0.00140031
0.00662863
0.00148562
0.00645118
0.00156192
0.0062665
0.00162934
0.00607555
0.00168805
0.00587929
0.00173825
0.00567863
0.00178021
0.00547445
0.00181423
0.00526759
0.00184063
0.00505886
0.00185975
0.00484901
0.001872
0.00463874
0.00187769
0.00442874
0.00187725
0.00421964
0.00187102
0.00401202
0.00185935
0.00380643
0.0018426
0.0036034
0.00182111
0.0034034
0.00179527
0.00320686
0.00176536
0.00301419
0.00173174
0.00282573
0.00169467
0.00264186
0.00165445
0.00246288
0.00161138
0.00228905
0.00156576
0.00212064
0.00151782
0.00195785
0.00146786
0.00180087
0.0014162
0.00164985
0.00136306
0.00150494
0.00130871
0.00136621
0.00125345
0.00123373
0.00119752
0.00110755
0.00114116
0.00098768
0.00108463
0.000874106
0.00102817
0.000766795
0.000972002
0.00066568
0.000916361
0.000570662
0.00086144
0.000481656
0.000807419
0.000398534
0.000754512
0.00032113
0.000702883
0.000249275
0.000652686
0.000182824
0.00060406
0.000121564
0.000557108
6.53077e-05
0.000511897
1.38503e-05
0.00046851
-3.30467e-05
0.000426981
-7.55485e-05
0.000387212
-0.000113856
0.000349175
-0.000148154
0.00031281
-0.000178621
0.00027806
-0.000205425
0.000244875
-0.000228735
0.000213231
-0.000248722
0.000183142
-0.000265561
0.000154651
-0.000279438
0.000127823
-0.000290545
0.000102723
-0.000299081
7.94116e-05
-0.000305253
5.79186e-05
-0.000309263
3.82528e-05
-0.000311309
2.03678e-05
-0.000311576
4.19626e-06
-0.00031026
-1.03624e-05
-0.000307508
-2.34406e-05
-0.000303473
-3.51629e-05
-0.000298288
-4.56526e-05
-0.000292076
-5.50148e-05
-0.000284952
-6.332e-05
-0.000277025
-7.06276e-05
-0.000268408
-7.69417e-05
-0.000259207
-8.22847e-05
-0.000249527
-8.66777e-05
-0.000239468
-9.01632e-05
-0.000229123
-9.28092e-05
-0.000218575
-9.47049e-05
-0.000207897
-9.59394e-05
-0.000197149
-9.66085e-05
-0.000186387
-9.67669e-05
-0.00017566
-9.64791e-05
-0.000165017
-9.57448e-05
-0.000154501
-9.46188e-05
-0.000144159
-9.30694e-05
-0.000134027
-9.12041e-05
-0.000124142
-8.89873e-05
-0.000114522
-8.66118e-05
-0.000105194
-8.39898e-05
-9.61586e-05
-8.13611e-05
-8.74382e-05
-7.85254e-05
-7.90258e-05
-7.57567e-05
-7.09446e-05
-7.27765e-05
-6.31758e-05
-6.9955e-05
-5.57338e-05
-6.70143e-05
-4.85777e-05
-6.44365e-05
-4.17051e-05
-6.18753e-05
-3.50599e-05
-5.98253e-05
-2.86257e-05
-5.79078e-05
-2.24211e-05
-5.58619e-05
-1.64653e-05
-5.36358e-05
-1.09822e-05
-4.94299e-05
-6.24045e-06
-4.27745e-05
-3.34276e-05
-2.57119e-06
0.00159081
-0.00569732
0.00214029
-0.00548289
0.00266656
-0.00525959
0.00316887
-0.00502833
0.00364659
-0.00479012
0.00409918
-0.00454596
0.00452616
-0.00429675
0.00492719
-0.00404349
0.005302
-0.00378711
0.00565042