/*--------------------------------*- C++ -*----------------------------------*\
| =========                 |                                                 |
| \\      /  F ield         | OpenFOAM: The Open Source CFD Toolbox           |
|  \\    /   O peration     | Version:  v1912                                 |
|   \\  /    A nd           | Website:  www.openfoam.com                      |
|    \\/     M anipulation  |                                                 |
\*---------------------------------------------------------------------------*/
FoamFile
{
    version     2.0;
    format      ascii;
    class       volScalarField;
    location    "60";
    object      p;
}
// * * * * * * * * * * * * * * * * * * * * * * * * * * * * * * * * * * * * * //

dimensions      [1 -1 -2 0 0 0 0];


internalField   nonuniform List<scalar> 
14268
(
156517
155278
154319
153713
153418
153443
153744
154293
155057
155990
157019
158114
159240
160367
161448
162461
163442
164302
165050
165692
166230
166680
167061
167400
167721
168047
168396
168779
169198
169643
170095
170528
170910
171210
171397
171451
171352
171101
170693
170137
169454
168663
167796
166877
165935
164986
164047
163126
162227
161350
160492
159652
158826
158016
157227
156460
155733
155051
154436
153899
153460
153132
152927
152859
152941
153172
153557
154098
154793
155635
156617
157724
158936
160230
161577
162940
164301
165624
166871
167999
168988
169816
170466
170928
171199
171282
148838
147681
146794
146240
145997
146057
146381
146943
147712
148645
149670
150757
151873
152990
154061
155065
156037
156889
157632
158268
158802
159248
159626
159961
160279
160603
160950
161334
161753
162200
162656
163093
163480
163783
163975
164031
163934
163682
163272
162713
162026
161232
160361
159438
158493
157542
156602
155680
154781
153905
153047
152207
151381
150571
149781
149012
148284
147599
146982
146443
146002
145672
145466
145397
145478
145708
146093
146634
147329
148172
149156
150264
151480
152776
154128
155495
156861
158189
159441
160574
161567
162398
163051
163513
163783
163856
141269
140120
139245
138715
138481
138554
138891
139467
140248
141190
142223
143318
144442
145565
146642
147651
148624
149479
150220
150854
151384
151824
152196
152524
152836
153155
153499
153882
154304
154756
155219
155664
156060
156373
156571
156632
156536
156284
155871
155306
154612
153809
152930
152000
151049
150094
149151
148230
147330
146455
145598
144758
143932
143121
142329
141558
140826
140137
139516
138973
138528
138194
137985
137913
137993
138221
138606
139147
139843
140688
141674
142787
144007
145311
146670
148047
149422
150761
152024
153166
154167
155005
155662
156126
156395
156467
133583
132487
131662
131168
130977
131085
131448
132042
132835
133787
134827
135925
137052
138176
139252
140262
141233
142087
142826
143455
143978
144410
144772
145090
145392
145703
146043
146425
146850
147310
147783
148242
148652
148978
149187
149256
149163
148910
148491
147917
147211
146396
145504
144564
143604
142643
141696
140774
139875
139000
138145
137306
136480
135667
134872
134097
133360
132665
132037
131488
131037
130698
130484
130409
130486
130713
131096
131637
132335
133182
134172
135291
136520
137833
139205
140595
141986
143339
144619
145775
146789
147636
148299
148766
149033
149096
125910
124827
124022
123565
123393
123522
123909
124527
125342
126312
127370
128485
129626
130763
131850
132872
133846
134705
135443
136068
136584
137005
137354
137658
137947
138248
138581
138961
139391
139861
140349
140826
141255
141599
141823
141902
141813
141558
141132
140546
139825
138992
138084
137129
136157
135188
134236
133313
132414
131542
130688
129851
129024
128209
127411
126630
125886
125182
124546
123989
123529
123183
122964
122884
122957
123181
123563
124105
124803
125654
126649
127776
129016
130342
131731
133139
134550
135925
137225
138401
139432
140292
140964
141434
141699
141756
118184
117132
116360
115942
115807
115971
116389
117033
117869
118859
119934
121064
122218
123367
124464
125496
126474
127337
128076
128696
129202
129609
129942
130228
130501
130788
131112
131491
131926
132409
132916
133416
133869
134236
134479
134571
134487
134230
133795
133194
132452
131598
130668
129695
128708
127729
126771
125847
124949
124079
123227
122392
121566
120748
119945
119156
118404
117690
117043
116474
116005
115650
115423
115337
115406
115627
116007
116548
117249
118103
119105
120242
121495
122839
124247
125679
127115
128517
129844
131044
132096
132973
133656
134131
134394
134442
110427
109387
108641
108256
108150
108347
108799
109476
110343
111360
112462
113617
114794
115962
117076
118126
119113
119984
120723
121338
121833
122224
122536
122801
123052
123322
123636
124012
124455
124953
125483
126011
126495
126890
127156
127264
127186
126928
126481
125859
125093
124212
123256
122260
121256
120265
119301
118374
117478
116611
115763
114930
114104
113284
112475
111678
110915
110187
109527
108945
108463
108097
107862
107769
107832
108049
108427
108968
109671
110530
111540
112688
113958
115322
116755
118214
119681
121115
122475
123704
124783
125680
126377
126858
127117
127156
102637
101614
100901
100544
100480
100715
101205
101918
102817
103863
104993
106173
107374
108564
109697
110768
111766
112644
113386
113996
114478
114849
115137
115375
115601
115850
116151
116524
116974
117491
118050
118612
119132
119561
119856
119983
119912
119650
119189
118545
117748
116835
115848
114825
113801
112795
111823
110896
110002
109140
108296
107466
106640
105817
105002
104193
103417
102674
101998
101401
100905
100526
100280
100179
100235
100448
100824
101364
102069
102933
103952
105114
106402
107790
109252
110744
112248
113719
115118
116382
117492
118414
119127
119614
119871
119899
94799.9
93784.5
93099.3
92773.3
92748.9
93025.7
93559.2
94314.7
95252.8
96335.8
97501.9
98715
99946.5
101164
102322
103419
104432
105320
106066
106670
107137
107486
107746
107951
108146
108371
108656
109025
109484
110023
110615
111217
111780
112250
112578
112728
112667
112400
111922
111250
110418
109467
108443
107389
106340
105319
104339
103410
102520
101664
100826
99999.3
99174.5
98347.6
97524.3
96703.7
95912.8
95151
94457
93842.1
93328.2
92934.8
92676.5
92566.3
92614.8
92822.5
93195.7
93735.6
94442.2
95311.7
96341.2
97517.9
98827.9
100242
101737
103268
104813
106330
107773
109079
110225
111175
111907
112402
112656
112672
86928.1
85919.5
85266.5
84973.3
84991.5
85314.3
85895.1
86696.6
87677.3
88799.9
90004.7
91253.6
92518.8
93766.5
94952.7
96082.4
97111.7
98012.9
98764.3
99361.6
99810.9
100135
100360
100529
100687
100882
101150
101513
101983
102547
103178
103826
104440
104957
105325
105502
105451
105179
104681
103976
103102
102107
101040
99949.6
98873.4
97834.8
96846.7
95916.8
95031.8
94183.4
93352.6
92531.1
91707.5
90876.8
90044.1
89209.5
88401
87618.1
86902.9
86267.3
85733.8
85323.6
85051.9
84931
84970.6
85172.8
85542.8
86081.8
86790.5
87665.9
88706.2
89899.6
91233.5
92678.5
94210.8
95785.2
97378.1
98945.8
100441
101793
102982
103964
104718
105223
105472
105476
79003.1
77994.4
77375.6
77117.4
77180.3
77554.2
78188.9
79043.2
80073.4
81241.9
82491.8
83782.5
85087.3
86369.9
87586.1
88760.1
89807.5
90724
91481.7
92071.7
92503.7
92798
92982.9
93108
93224
93382.7
93629.2
93985.3
94467.3
95062.2
95736.1
96439
97111.2
97684.2
98097.6
98305.5
98267.1
97987.2
97466.6
96723
95800.9
94753.6
93637.4
92505.9
91399.1
90341.5
89345
88415.3
87537.4
86698.5
85876.9
85061.7
84239.8
83405.2
82561.7
81711.3
80882
80075.4
79335.8
78676.5
78120.7
77691.8
77405.1
77272.5
77301.7
77498.2
77864.6
78402.3
79113
79994.3
81046.1
82257.7
83617.9
85096.7
86670.8
88294.3
89940.9
91567.3
93119.7
94526.2
95762.6
96782.5
97562.1
98078.6
98320.6
98315.7
71033.8
70021.1
69444.5
69222.2
69331.6
69762.2
70455.7
71367.6
72451.4
73669.8
74968.8
76305.3
77653.5
78975.5
80231
81444.5
82518.5
83455.3
84216.2
84803.4
85215.9
85472.7
85613.8
85688.7
85754.6
85871.6
86092.1
86440.1
86935.4
87563.6
88289
89054.3
89794.3
90431.2
90897.8
91141.9
91118.3
90827.8
90280.7
89492.7
88514.2
87407.1
86234.4
85056.2
83915.3
82837.3
81832.9
80904.9
80036.2
79209.2
78399.2
77592
76772.5
75933.7
75077.6
74209.4
73356.3
72522.8
71755.4
71069.2
70488.5
70038.9
69735.6
69590.5
69607.5
69798.4
70160.7
70696.7
71408.7
72296
73359.7
74590.7
75979.6
77495.5
79115.7
80794.2
82501
84193.5
85810.6
87278.4
88569
89631.7
90440.8
90970.4
91208.7
91185.2
63004.7
61980.5
61456.9
61248.1
61430.5
61925.6
62685.2
63661.6
64805.5
66079.5
67432.9
68820.5
70217.4
71583.9
72886.1
74139
75247.8
76204.4
76976.4
77557.9
77945.9
78163.8
78253.8
78270.5
78277.8
78346.5
78534.7
78873.3
79383
80050
80834.2
81671.2
82489
83199.2
83727
84012.9
84006.5
83701.9
83125.1
82285.9
81241.9
80066.5
78829.4
77598.8
76420.3
75320.3
74309
73384.6
72527.8
71715.5
70920
70122.5
69306.3
68463.3
67592.7
66704.7
65823.8
64960.3
64161.4
63444.7
62836.4
62363.8
62042.6
61884.6
61886.3
62072.4
62430.4
62963.9
63676.8
64569.9
65645.4
66897.1
68316.8
69873.1
71543.9
73283.6
75057.2
76823.8
78512.9
80049.7
81401.4
82512.5
83355.1
83900
84138.4
84085.6
54922.1
53897.2
53403
53242.9
53484.8
54050.2
54882.5
55929.3
57138.6
58472.7
59885.1
61328.3
62778.3
64194.4
65549.8
66845.8
67992
68975.1
69762.5
70334.9
70696.9
70872.3
70903.2
70854.1
70793.7
70805.1
70955.6
71282.1
71807.8
72518.7
73369.4
74288.4
75195.4
75989.6
76587.9
76921.6
76938.8
76612
76002.4
75104.3
73985.9
72730
71420
70130.5
68910.9
67788.1
66771.9
65853.6
65011.4
64217.4
63439.6
62654
61842.2
60994.8
60107.8
59197.8
58284.7
57388
56553.6
55802.7
55163.8
54666.2
54325.1
54155.4
54137.6
54320.9
54673.5
55203.7
55916.6
56815
57902.2
59175.3
60627.8
62227.7
63953.5
65761
67608.4
69457.5
71226.8
72841.1
74261.1
75426.7
76307.3
76869.6
77107.5
77026.4
49404.6
48384.1
47897.2
47781.1
48070.1
48688.6
49575.8
50675.2
51933
53311.5
54767.1
56251.3
57740.4
59193.3
60589.6
61917.2
63093.6
64096.8
64895.1
65463.9
65806.8
65949.4
65937.5
65833.1
65719.4
65685.3
65805.7
66122.4
66661
67404.4
68306.9
69289.2
70265.3
71124.5
71777.5
72147.9
72186.8
71836.1
71203.6
70258.6
69080.6
67764.4
66398.3
65064.9
63815.5
62676.5
61658.7
60746.4
59917.1
59138.4
58375.3
57599.6
56791.6
55941.1
55041.7
54115.1
53177
52255.5
51393.9
50616.6
49954.7
49438.6
49082.4
48899
48878.3
49054.9
49403.1
49930.4
50642.4
51544.1
52638.8
53926.8
55402.8
57034.5
58800.6
60658.6
62561.1
64472
66301.3
67974.3
69445.9
70653.1
71562.6
72138.2
72375.8
72274.3
46510.6
45491.4
45010.5
44917.2
45232.2
45879.6
46796.5
47924.3
49208.1
50610.5
52089.3
53595.4
55105.6
56578.2
57996.9
59341.6
60534.2
61548.9
62353.3
62920.1
63253
63377.6
63340.5
63207.4
63064.4
63004.7
63108.7
63420.1
63965.4
64726.8
65657.6
66674.7
67688.6
68583.4
69266.3
69656.6
69704.4
69346.9
68698.6
67727.9
66517.1
65167.6
63771
62413.9
61148.4
60000.8
58982.8
58074.2
57252
56482
55727
54956.9
54151.1
53299
52392.8
51457.1
50505.2
49570.2
48693.7
47901.9
47227.7
46701.7
46337.4
46145.6
46125.8
46297.7
46643.5
47169.1
47880.5
48783.8
49882.3
51178.1
52666.5
54315.3
56103.1
57988.3
59920.6
61865
63726.8
65431.8
66931.3
68161.2
69086.5
69669.3
69906.8
69794.2
43608.1
42589.4
42115.2
42045.3
42387.6
43064.9
44012.6
45169.8
46480.4
47907.4
49409.8
50938.5
52470.2
53963.2
55405.3
56767.9
57977.1
59004.3
59814.9
60379.8
60702.6
60808.5
60745.5
60581.9
60408
60321.4
60408
60713.4
61265.5
62045.9
63006.4
64059.8
65113.2
66045.3
66759.7
67170.7
67224.6
66866.7
66198.6
65200.7
63955.9
62570.9
61142.6
59760.6
58478.7
57322.4
56305
55400.4
54586
53825.2
53079
52314.8
51511.5
50657.6
49744.2
48798.9
47832.7
46883.5
45991.4
45184.7
44497.9
43961.6
43588.9
43388.7
43369.9
43537.1
43880.3
44404.2
45114.7
46019.6
47121.7
48425.3
49926.4
51592.7
53402.6
55316
57279.2
59258.1
61153.7
62891.8
64420.4
65673.8
66615.5
67205.9
67443.5
67319.5
40696.3
39678.1
39211.3
39165.3
39536.4
40244.6
41224.4
42411.9
43750
45202.2
46728.8
48280.6
49834.5
51348.3
52815.1
54195.8
55423
56462.5
57280.3
57843.3
58155.7
58242
58151.7
57956.4
57750.1
57635.1
57703.1
58002.2
58561.2
59361.5
60353
61444.4
62539.1
63510.4
64257.6
64690.4
64751.4
64391.7
63703.6
62677.2
61396.6
59974.6
58512.9
57105.2
55806.2
54642
53624.6
52724.8
51919
51168
50431
49673.2
48872.4
48016.6
47095.8
46140.5
45159.3
44195.5
43287.1
42465.1
41765.3
41218.4
40837
40628.4
40610.5
40773
41113.7
41635.5
42345.1
43251.3
44356.9
45668.3
47182.1
48866.5
50699.1
52641.5
54636.8
56651.3
58581.8
60354.3
61913
63191
64149.7
64748
64986.1
64850.2
37774.4
36757.1
36298.4
36277
36678.2
37418.7
38431.7
39650.5
41016.9
42494.9
44046.3
45621.8
47198.4
48733.5
50226.3
51625.7
52871.1
53924.2
54749.5
55310.7
55612.6
55678.4
55559.8
55330.8
55090.4
54945.5
54993.9
55286.3
55852.3
56673.5
57697.2
58828.5
59966.5
60978.6
61760.4
62215.9
62284.8
61922.2
61214
60157.2
58839
57378.2
55881.8
54447.4
53131.1
51958.9
50941.5
50047.3
49250.8
48510.2
47783.1
47032
46234
45376.3
44447.9
43482
42485.3
41506.3
40581
39743
39029.8
38472
38081.6
37864.4
37847.8
38005.5
38343.5
38863.2
39571.5
40478.9
41588
42907.1
44433.5
46136.5
47992.3
49964.8
51993.2
54044.5
56011.2
57819.4
59409.3
60712.9
61689.3
62295.7
62534.7
62386.2
34841.8
33826.6
33376
33380.3
33813.2
34587.1
35634.5
36885.6
38281.1
39785.6
41362.2
42962
44561.9
46118.5
47638.7
49057.6
50321.8
51389.4
52222.3
52782.3
53073.2
53117.6
52969.4
52705.3
52429
52251.7
52280.2
52565.1
53138.5
53981.3
55038.9
56211.9
57395.1
58450.1
59268.1
59747.5
59824.9
59458.4
58729.7
57640.4
56283.2
54781.3
53248.9
51787
50453
49272.9
48255.8
47368
46581.5
45852
45135.5
44391.5
43596.5
42737
41800.5
40823.8
39810.9
38816
37873
37018.4
36291.2
35722.2
35322.7
35096.6
35082
35234.3
35569.7
36087.1
36793.9
37702.4
38814.8
40141.4
41680.6
43402.7
45282.2
47285.6
49348.4
51437.7
53441.8
55287
56909.4
58239.6
59234.3
59849.1
60089.5
59927.7
31898.6
30885.8
30443.8
30474.8
30941
31749.6
32832.9
34117.3
35542.6
37074.3
38676.6
40301.3
41924.9
43503.5
45052.9
46491.3
47775.3
48858
49699.3
50258.1
50537.9
50559.9
50380.8
50079.7
49765.6
49555.4
49561.6
49838.6
50419.1
51284.9
52377.9
53594.6
54825.1
55924.9
56780.9
57285.3
57371.9
57000.6
56250.8
55127.1
53729.3
52184.2
50614.2
49123.7
47771.6
46583.9
45567.4
44686.8
43911.2
43193.5
42488.2
41751.9
40960.2
40098.8
39153.9
38165.7
37135.9
36124.6
35162.9
34291.1
33549.7
32969.1
32560.2
32324.8
32313
32459.5
32792.4
33307.3
34012.2
34921.6
36037.1
37371.3
38923.1
40665
42568.6
44603.8
46702.3
48830.7
50873.5
52757.2
54413.1
55771.2
56784.8
57408.3
57650.4
57475
28839.7
27830.4
27397.7
27457.7
27960.3
28806
29927.8
31247.7
32704.8
34265.2
35894.7
37545.8
39194.6
40795.7
42377.6
43836.6
45141.9
46241.1
47091.7
47649.6
47917.6
47915.3
47703
47361.7
47006.4
46759.9
46741.7
47010
47598.6
48488.9
49619.9
50884
52165.8
53314.2
54211.4
54743
54839.7
54462.7
53690.2
52529.1
51086.7
49495.2
47884.3
46363.2
44991.9
43796.6
42781.6
41909.1
41145.5
40440.9
39748
39020.2
38232.1
37368.6
36414.7
35414.1
34366.1
33337.1
32355.2
31465.1
30708.3
30115.3
29696.6
29450.9
29443.5
29583.1
29913.4
30425.5
31128.2
32038.4
33157
34498.9
36063.5
37826.6
39755.5
41824.8
43961.5
46131.5
48216
50141
51832.9
53220.9
54254.9
54887.5
55131.7
54942.1
25664.1
24658.8
24235.6
24327.5
24869.7
25755.4
26918.8
28276.5
29767.3
31358.2
33016.5
34695.3
36370.9
37995.1
39613.5
41093.7
42422
43539.3
44400.2
44957.5
45213
45184.3
44936
44551.1
44150.7
43864.6
43820
44078.3
44675.9
45592
46764.6
48080.1
49417.4
50618.6
51560.6
52121.8
52229.8
51846.2
51048.7
49847.5
48355.7
46714.3
45059.1
43505.2
42113.5
40910.7
39897.6
39034.3
38284.4
37594.2
36914.8
36196.5
35412.5
34546.9
33583.2
32569.2
31501.4
30453.5
29449.3
28539.8
27766.5
27160.3
26731.4
26478.3
26469
26604.4
26932.2
27441.1
28141
29051.8
30173.4
31523.3
33101.1
34886.7
36842.3
38947.9
41125.8
43340.2
45469.3
47438.6
49169.2
50589.5
51645.5
52287.8
52535
52330.1
22471.2
21474.3
21061.1
21186.6
21770.7
22697.9
23904.6
25301.2
26826.9
28448.8
30136.4
31843.5
33546.7
35193.5
36852
38353.1
39705.3
40841.8
41713.8
42270.8
42513.8
42457.9
42171.5
41740.5
41292.4
40964.5
40891.6
41139.2
41745.7
42689.3
43905.3
45274.8
46670.4
47927
48916.2
49508.5
49628.2
49237.5
48413.9
47170.4
45626.1
43932.3
42230.9
40642.8
39230.6
38020.7
37010.1
36157.2
35421.7
34747.1
34082.2
33374
32594.6
31726.8
30752.9
29724.8
28636.3
27568.2
26540.7
25611.2
24820.9
24201.1
23761.6
23505.3
23486.6
23621.4
23946.7
24452.1
25148.7
26059.5
27184
28541.8
30132.7
31942
33924.4
36067.6
38288.2
40548.3
42723.9
44739.3
46510
47964.1
49042.8
49694.7
49945.4
49724.8
19267.6
18278.4
17872.7
18034.1
18663.2
19633.2
20885.3
22322
23883.3
25537.1
27254.6
28991
30722.1
32398.8
34085.2
35614.5
36991.9
38148.7
39032.6
39589.9
39819.9
39736.7
39409.3
38929.8
38431.7
38059.1
37956
38192.4
38807.8
39780.3
41041.7
42468
43924.6
45239.6
46278.3
46903.5
47035.7
46637.1
45786
44497.6
42898.1
41149.1
39399.3
37776.1
36342.7
35126.3
34119.1
33277.7
32557.9
31899.9
31250.5
30553.6
29779
28908.9
27924.1
26880.7
25770.6
24681.5
23629.5
22679.6
21871.6
21237.8
20787.3
20528
20500.8
20634.3
20957.6
21459.5
22152.3
23061.7
24188.6
25553.9
27158
28992
31002
33183.3
35448.7
37755.9
39979.5
42042.9
43855.5
45344.7
46447.1
47108.7
47364.5
47126.9
16037.7
15065.5
14670.1
14872.3
15547
16561.5
17860.8
19339
20936.4
22623.3
24370.8
26137.4
27897.1
29604.7
31319.1
32878
34281.9
35460.2
36356.5
36914.8
37131.8
37021
36650
36119
35567.7
35148.2
35013.4
35237.1
35861.9
36864.4
38173.7
39659.7
41180.1
42556.3
43647.2
44307
44452.2
44045.5
43165.1
41829.4
40171.6
38364.3
36563.9
34904.5
33449.6
32227.3
31224.4
30395.1
29692.7
29051.8
28418.7
27733.5
26963.1
26090.4
25094.4
24035.7
22903.4
21792.9
20715.4
19744.8
18918.7
18270.9
17808.5
17546.6
17511.9
17643.4
17964.9
18463
19152.2
20060.4
21187.5
22559.4
24176.1
26035.9
28074.8
30295
32606.9
34962.7
37236.3
39349.4
41205.4
42731.3
43858.4
44529.3
44792.4
44535.9
12809.1
11846.5
11453.6
11693.5
12422.1
13482.2
14831.3
16352.3
17986.1
19707.4
21485.2
23282.2
25071.6
26810.9
28553.9
30143.8
31575.2
32776.6
33686
34246
34449.5
34308.7
33893
33307.9
32700.6
32231.3
32062.8
32273.2
32907.5
33941.5
35300.6
36849.2
38436.9
39877.4
41023
41719.1
41877.6
41462.4
40551.3
39165.3
37446.1
35577.6
33724.8
32027.9
30551.1
29323.6
28325.7
27509.9
26826.1
26204.1
25588.6
24915.2
24150.2
23275.5
22267.3
21192.5
20036.2
18904.7
17800.6
16808.1
15963.1
15299.8
14825.7
14561.2
14519.5
14648.7
14968.4
15462.1
16146.8
17054.6
18184.4
19560.1
21186.4
23074.6
25142.2
27402.7
29762.8
32168.6
34494.2
36659
38559.9
40124.2
41277.1
41956.4
42227.8
41952.1
9547.35
8580.17
8215.51
8515.29
9289.91
10395.2
11796.6
13361.3
15032.6
16789.2
18598
20426
22245.9
24017.7
25789.7
27411.7
28871.9
30097.7
31020.8
31583.1
31773.4
31601.9
31139
30496.8
29830.5
29308.2
29104.2
29299.9
29944.1
31011
32422.4
34036.7
35694.6
37202.8
38406
39140.5
39313.7
38889.1
37945.4
36505.8
34722.4
32789.2
30881.6
29145.6
27646.6
26414.9
25423.1
24622.4
23958.1
23356.7
22759
22098.1
21339.6
20462.5
19441.6
18349.7
17169.3
16015.9
14883.3
13868.2
13003.5
12323.8
11838.3
11570.4
11524.5
11651.2
11965.3
12462
13135
14043.8
15175.3
16562.3
18189.2
20107.2
22206.1
24506.2
26915.9
29373.4
31752.9
33971.2
35919
37523.2
38703.3
39390.4
39677.1
39376.9
6342.57
5307.65
4973.89
5305.18
6138.3
7302.49
8756.49
10365.6
12075.3
13867.8
15708.8
17568.4
19419.9
21224.6
23026.6
24681.7
26172.2
27423.9
28362
28927.3
29104
28899.8
28387.9
27685.4
26956
26378.4
26136.9
26316.6
26971.2
28072.4
29538.4
31222.1
32953.4
34532.5
35796.1
36571.3
36759.3
36325.1
35347.9
33851.6
31999.7
29998.2
28033.6
26257.5
24736.5
23500.4
22516.2
21731.6
21088.7
20508.1
19929.6
19282.6
18530.5
17650.9
16617.5
15508.3
14303.4
13124.4
11962.2
10923.8
10040.1
9344.34
8849.32
8574.4
8526.57
8652.69
8958.98
9454
10125.6
11024.7
12162.8
13555.1
15189.7
17130.4
19266.5
21605.5
24066.4
26577.1
29012.7
31286.2
33283.1
34928.6
36137.2
36840.8
37118.5
36806.5
3044.96
2143.35
1903.33
2269.5
3101.49
4198.74
5712.94
7367.94
9114.46
10943.8
12817.8
14709.3
16593.3
18431.9
20264.6
21953.7
23475.9
24754.7
25708.9
26277.4
26440.6
26202.6
25639.5
24874
24077.8
23441.5
23160.4
23323.2
23988.1
25125.1
26648.3
28404.6
30213.1
31866.8
33193.8
34011.6
34214.3
33770
32758.3
31201.9
29278
27205.1
25180.6
23363.1
21820.1
20580.2
19605
18837.9
18217.8
17659.6
17102.2
16470.1
15724.7
14842.7
13796.1
12668.1
11434.4
10226.9
9032.85
7974.36
7074.07
6360.28
5858.73
5575.58
5518.17
5648.21
5953.61
6438.56
7114.24
7999.16
9146.56
10537.8
12192.8
14143
16320.2
18701.2
21214.7
23779.2
26273.1
28603.9
30651.8
32340.4
33579.2
34309.2
34563.4
34245.8
734.374
369.465
318.955
431.064
764.536
1472.57
2777.02
4364.81
6151.69
8018.14
9925.8
11848.2
13765.8
15639.3
17503.5
19227.9
20783.1
22090.8
23063.2
23635.5
23785.4
23512.2
22894.8
22062.6
21195.9
20497.5
20174.7
20318.7
20994.2
22168.6
23751.9
25584.3
27473.3
29205.6
30599.1
31462.1
31682.1
31226
30177.9
28557.7
26557.6
24408.8
22321.6
20461.8
18897.3
17654.2
16689.3
15941.5
15345.1
14811.4
14275.4
13659.1
12920.7
12036.4
10974.9
9827.06
8565.27
7334.02
6113.59
5035.46
4126.53
3415.85
2941.1
2680.77
2639.37
2755.13
3027.83
3462.15
4095.93
4973.92
6119.9
7515.05
9192.24
11149.4
13364.6
15792.3
18359.9
20980
23534.3
25924.5
28025.4
29758.7
31029
31785.9
32014.6
31692.1
96.5544
58.167
56.4454
56.798
78.9515
199.596
666.834
1671.14
3229.61
5090.58
7033.45
8987.3
10938.3
12847.2
14743.5
16504
18094.2
19431.3
20423.5
20999.5
21135.9
20826
20153.1
19250.7
18309.4
17545.3
17178.9
17302.5
17989.1
19202.6
20848.5
22760.9
24734.1
26548.8
28012
28922.6
29159.9
28692.1
27606.6
25919
23837.5
21608.6
19457.3
17554.3
15967.7
14722.1
13769.6
13042.8
12471.7
11963.9
11450.6
10851.5
10120.2
9233.23
8155.68
6988.67
5701.1
4451.59
3232.57
2232.78
1541.11
1077.05
807.505
672.063
641.895
692.856
821.358
1046.21
1447.13
2153.06
3155.51
4486.6
6179.27
8160.76
10404.3
12877.2
15501.3
18178.7
20795.9
23247.9
25404.2
27184.4
28487.4
29272.1
29471.1
29145.2
57.5168
49.3043
44.4557
40.1765
37.033
36.4879
58.0899
245.275
950.31
2318.18
4136.6
6123.89
8110.83
10056.2
11984.7
13782.2
15409
16777.4
17789.6
18372.3
18496.2
18147.9
17415.1
16438.4
15418.3
14584.1
14172.2
14274.4
14972.5
16226.8
17938.1
19934.2
21995.5
23896.6
25432.5
26393.5
26646.9
26167.5
25042.5
23284
21117
18805.5
16587
14638.6
13031.2
11784.3
10846.9
10140.3
9596.45
9115.98
8626.28
8044.44
7320.37
6431.32
5340.59
4163.43
2892.4
1801.16
989.15
466.77
238.804
132.084
81.6331
60.6267
56.5659
61.5795
76.2244
111.276
201.176
437.365
881.51
1748.58
3211.24
5166.17
7443.06
9961.32
12639
15375.5
18057.9
20573.1
22787.5
24616.3
25953.6
26769.3
26944
26607.3
52.6273
45.2716
40.4117
35.586
31.8036
28.608
25.3787
28.4599
85.4407
518.169
1560.55
3283.39
5276.41
7261.76
9227.05
11062.6
12727.2
14130.4
15163
15750.5
15861.4
15472.4
14679.1
13625
12522.3
11614.1
11155
11234
11943.9
13240.7
15020.1
17103.6
19256.8
21248.7
22860.6
23874.7
24146.8
23654.9
22486.3
20653.5
18397.6
15998.6
13707.8
11714.6
10088.1
8841.44
7917.98
7235.45
6721.53
6269.72
5805.21
5242.89
4532.51
3656.69
2610.86
1642.18
823.871
313.162
112.136
30.4035
22.9771
22.545
22.839
23.361
23.5311
23.8058
24.3648
25.6757
29.1054
38.7376
80.8231
285.487
920.847
2327.16
4471.3
7043.04
9774.8
12571.2
15320.6
17901
20176
22055.1
23427.3
24277.7
24412.6
24075.7
47.9769
41.1974
36.5103
32.2277
28.3208
24.694
20.8273
19.3042
17.9335
32.1021
230.097
1030
2544.21
4461.48
6464.52
8344.98
10048.6
11488.4
12544
13139.8
13239.6
12807.6
11948.9
10813.3
9622.43
8634.8
8114.51
8181.22
8903.58
10244.5
12094.6
14268.9
16517.5
18604.5
20295.5
21366.1
21657.4
21154.8
19939.3
18028.9
15678.4
13184.5
10821.6
8783.92
7139.71
5897.3
4991.21
4340.34
3863.6
3451.94
3032.15
2532.92
1938.73
1320.15
683.822
267.456
74.3245
15.2326
16.8906
16.8879
17.9447
17.7538
18.1254
18.6261
18.7812
18.8131
18.8883
19.0442
19.4329
19.6135
20.5491
27.8848
84.2191
509.468
1769.97
4116.15
6905.15
9765.79
12583.8
15231.1
17569.3
19501.2
20909.3
21801.2
22014.3
21553.7
43.4965
37.2945
32.6685
28.3274
24.6164
21.1989
17.4846
15.2705
12.749
10.0111
14.7675
94.0576
662.904
1885.61
3702.34
5622.99
7374.58
8853.31
9932.27
10537.3
10621.1
10146
9222.52
8002.18
6717.69
5647.95
5107.16
5115.43
5850.18
7238.11
9161.87
11430.3
13777.6
15963.9
17737
18867.2
19176.1
18665.3
17398.8
15406.9
12955.5
10365.1
7931.78
5851.08
4200.18
2999.39
2194.31
1707.55
1405.3
1162.18
919.044
646.924
369.105
180.67
45.9285
8.95228
9.21306
11.5504
13.0694
13.3847
14.1893
14.0928
14.4414
14.9511
15.1212
15.1904
15.2342
15.2834
15.436
15.2002
14.8894
15.3106
17.6707
34.8736
288.382
1526.85
4024.03
6954.42
9847.45
12563.2
14966.6
16953
18399.1
19331.5
19506.5
19039.5
39.0457
33.3289
28.894
24.7596
20.9684
17.5417
14.0293
11.8786
9.17722
5.98498
5.34554
6.04957
34.487
379.373
1331.55
2950.04
4698.85
6221.49
7324.25
7942.62
8020.69
7499.42
6502.15
5195.59
3831.74
2740.69
2197.41
2214.97
2876.76
4213.3
6217
8587.73
11036.3
13326.2
15184
16377.9
16703.3
16186.3
14861.6
12783.9
10230.3
7545.24
5042.77
2963.01
1579.67
829.289
438.306
270.061
192.389
135.86
84.2156
35.7037
5.24997
3.82223
3.28443
5.43016
5.84361
8.02243
9.35756
9.76058
10.5412
10.5458
10.891
11.359
11.4942
11.5958
11.6557
11.7317
11.8593
11.5757
11.1421
11.0944
11.5954
10.275
16.5435
215.378
1488.88
4128.62
7109.17
9896.33
12367.6
14411.7
15911.1
16849.5
17010.2
16533
34.6839
29.3829
25.0208
20.9393
17.3289
14.0227
10.5566
8.29852
5.78567
2.752
1.5154
-0.0142196
-2.73818
7.82561
174.031
907.56
2170.64
3597.34
4734.09
5361.94
5424.31
4852.26
3800.05
2481.24
1368.68
693.917
430.936
436.27
717.379
1529.23
3297.03
5734.08
8294.16
10691.6
12636.5
13896.2
14237.2
13720.2
12327.3
10163.1
7508.41
4731.46
2272.9
811.078
227.125
63.1591
7.9727
0.737981
0.0351082
-0.44621
-0.904073
-1.36045
-0.467061
0.322033
0.0770461
1.98342
2.46929
4.4917
5.72219
6.24661
6.94069
7.02698
7.35759
7.79657
7.9621
8.04043
8.09621
8.14696
8.21834
7.93881
7.597
7.53348
7.52742
5.70739
3.59116
9.86719
208.475
1606.19
4359.76
7235.47
9764.43
11877.4
13447.3
14355.8
14525.7
14034.1
30.3297
25.4248
21.2205
17.2813
13.6653
10.4189
7.09448
4.79586
2.29998
-0.5942
-1.89041
-3.60971
-7.07422
-8.75817
-4.56141
61.2774
529.445
1320.37
2239.37
2827.92
2883.77
2329.19
1460.68
610.548
179.351
43.5616
16.245
16.9507
39.2077
201.343
993.661
2936.86
5543.98
8059.29
10093.6
11426.6
11777.5
11267.1
9800.54
7546.73
4796.53
2080.65
476.687
51.2628
-4.14645
-2.27372
-3.09929
-2.84814
-3.43313
-3.86451
-4.27053
-4.63306
-3.80815
-3.09087
-3.15402
-1.44392
-0.926378
0.989398
2.11554
2.70869
3.3506
3.50143
3.81615
4.23301
4.40098
4.49111
4.54437
4.59633
4.63605
4.36625
4.04023
3.89357
3.75402
2.038
-0.451875
-0.583547
4.76902
257.107
1842.51
4569.58
7176.06
9337.17
10975.4
11890.4
12047.3
11543.2
26.0405
21.4582
17.3604
13.5279
10.0325
6.86023
3.61418
1.30013
-1.13418
-3.92908
-5.39081
-7.06983
-10.1956
-12.491
-13.3236
-14.0651
4.42788
166.082
589.93
917.471
937.69
608.035
215.496
22.2988
-6.83301
-5.39686
-4.192
-3.43275
-3.0849
1.28783
75.0505
838.268
2853.4
5432.13
7547.96
8965.86
9314.59
8836.83
7280.42
4938.33
2227.05
419.504
0.414733
-12.3608
-7.80617
-6.09804
-6.6446
-6.4425
-6.9216
-7.2862
-7.62839
-7.89753
-7.13746
-6.4991
-6.43844
-4.86687
-4.31709
-2.52484
-1.4752
-0.83359
-0.222724
-0.0288724
0.273358
0.669917
0.833557
0.926124
0.977654
1.0237
1.03797
0.787406
0.473835
0.284893
0.0114722
-1.63547
-3.91561
-4.52015
-5.46925
1.53923
374.186
2070.02
4595.86
6819.92
8497.71
9430.13
9571.67
9062.48
21.7773
17.5003
13.5415
9.81951
6.3681
3.26712
0.125467
-2.21196
-4.58995
-7.24936
-8.80192
-10.5652
-13.4653
-15.6684
-16.8747
-19.3304
-21.7492
-19.7121
4.77973
65.1943
80.668
16.3888
-17.3564
-13.8171
-11.7798
-9.90019
-8.47606
-7.93923
-8.31103
-9.03433
-8.09742
48.4582
844.624
2851.01
5023.55
6500.77
6920.52
6405.92
4761.32
2461.37
527.125
-4.60467
-16.6591
-15.4906
-11.517
-9.91623
-10.2012
-10.0167
-10.4106
-10.7137
-11.002
-11.1993
-10.4935
-9.89759
-9.73883
-8.29698
-7.71748
-6.04114
-5.04529
-4.37764
-3.79555
-3.56324
-3.27255
-2.89358
-2.72544
-2.63301
-2.58515
-2.54792
-2.56012
-2.80159
-3.10968
-3.33925
-3.70704
-5.24672
-7.2831
-8.14532
-9.38338
-10.6025
-0.870688
473.65
2160.2
4302.53
6026.31
6985.89
7146.62
6597.51
17.5511
13.5318
9.69369
6.09473
2.72606
-0.31533
-3.3769
-5.71898
-8.06557
-10.6321
-12.2549
-14.0017
-16.7133
-18.9415
-20.1553
-22.4614
-25.3449
-27.2206
-27.6314
-27.3268
-26.7112
-25.725
-21.3016
-17.3472
-15.2865
-13.542
-12.1665
-11.5379
-12.0368
-13.1214
-14.2242
-15.6151
45.6511
881.376
2550.19
4037.4
4403.82
3988.17
2414.48
675.701
6.28391
-19.1377
-19.721
-18.8636
-15.1901
-13.6915
-13.7661
-13.5688
-13.8848
-14.1371
-14.3773
-14.5148
-13.8604
-13.2998
-13.0598
-11.7317
-11.1168
-9.55649
-8.60421
-7.92742
-7.36434
-7.09989
-6.81683
-6.45777
-6.28607
-6.19201
-6.14844
-6.11907
-6.15397
-6.38998
-6.69826
-6.97125
-7.41929
-8.8553
-10.7345
-11.7429
-13.0633
-14.8216
-20.1822
-3.00522
544.36
1925.7
3543.16
4569.7
4581.87
4162.45
13.3572
9.57894
5.86459
2.36766
-0.929816
-3.89981
-6.8701
-9.20997
-11.5149
-13.9971
-15.6889
-17.4544
-19.9824
-22.1677
-23.4893
-25.6921
-28.2856
-30.045
-30.5192
-30.2706
-29.7056
-28.5756
-24.4551
-20.8552
-18.7732
-17.1015
-15.7179
-15.2121
-15.634
-16.6816
-18.2275
-21.1817
-25
45.6272
755.995
1800.86
2133.63
1816.6
685.146
19.4996
-24.4216
-22.7445
-23.012
-22.1925
-18.8359
-17.3817
-17.2995
-17.0989
-17.3525
-17.5607
-17.7575
-17.8434
-17.2335
-16.6996
-16.3927
-15.1692
-14.5164
-13.0755
-12.1512
-11.4746
-10.9295
-10.6341
-10.356
-10.0165
-9.84751
-9.74559
-9.70786
-9.68874
-9.74135
-9.97445
-10.2849
-10.601
-11.1192
-12.4731
-14.2304
-15.3274
-16.759
-18.8386
-24.0491
-30.4403
-4.72585
457.792
1398.24
2258.48
2300.53
1932.73
9.1897
5.62086
2.02594
-1.35873
-4.58235
-7.49443
-10.3865
-12.7164
-14.9825
-17.3785
-19.1034
-20.8709
-23.271
-25.417
-26.768
-28.898
-31.3579
-32.992
-33.4847
-33.2404
-32.684
-31.4873
-27.7189
-24.3749
-22.2876
-20.6975
-19.4008
-18.911
-19.3113
-20.321
-21.936
-24.9539
-30.8967
-36.6692
12.2591
363.875
592.468
356.632
14.0076
-37.146
-28.3211
-26.2838
-26.3792
-25.5082
-22.4255
-21.037
-20.8306
-20.6234
-20.8173
-20.985
-21.1412
-21.1815
-20.6097
-20.0973
-19.7359
-18.6088
-17.9212
-16.59
-15.6883
-15.013