/*--------------------------------*- C++ -*----------------------------------*\
| =========                 |                                                 |
| \\      /  F ield         | OpenFOAM: The Open Source CFD Toolbox           |
|  \\    /   O peration     | Version:  v1912                                 |
|   \\  /    A nd           | Website:  www.openfoam.com                      |
|    \\/     M anipulation  |                                                 |
\*---------------------------------------------------------------------------*/
FoamFile
{
    version     2.0;
    format      ascii;
    class       volScalarField;
    location    "60";
    object      p_rgh;
}
// * * * * * * * * * * * * * * * * * * * * * * * * * * * * * * * * * * * * * //

dimensions      [1 -1 -2 0 0 0 0];


internalField   nonuniform List<scalar> 
14268
(
-6238.17
-7476.62
-8435.44
-9042.38
-9336.79
-9311.57
-9011.02
-8462.34
-7697.74
-6764.51
-5736.13
-4641.35
-3515.3
-2388.36
-1306.83
-294.382
687.367
1546.77
2295.47
2936.61
3475.11
3924.77
4306.23
4644.67
4965.67
5291.87
5641.05
6024.45
6443.19
6887.93
7340.41
7773.13
8155.23
8454.72
8642.32
8696.43
8597.47
8345.83
7938.06
7382.09
6698.89
5908.07
5041.13
4122.27
3179.97
2230.83
1292.41
370.994
-527.954
-1404.68
-2262.84
-3102.77
-3928.57
-4738.58
-5528.01
-6294.79
-7021.67
-7703.96
-8319.23
-8855.69
-9294.9
-9623.31
-9827.68
-9895.97
-9813.69
-9583.21
-9197.63
-8656.48
-7961.72
-7119.44
-6137.67
-5031.01
-3818.44
-2525.25
-1177.9
184.873
1545.74
2868.6
4115.96
5243.92
6232.81
7060.6
7711.43
8173.21
8443.94
8526.72
-6474.93
-7632.02
-8519.22
-9073.25
-9316.7
-9256.21
-8932.59
-8370.52
-7601.78
-6668.58
-5643.79
-4556.79
-3440.19
-2323.49
-1252.33
-248.65
723.434
1575.95
2318.4
2954.34
3488.4
3934.2
4312.19
4647.39
4965.48
5289.37
5637.1
6020.18
6439.91
6886.94
7342.8
7779.72
8166.36
8470.18
8661.35
8717.93
8620.46
8368.41
7958.88
7400.02
6713.08
5918.21
5047.21
4124.78
3179.54
2228.3
1288.39
367.003
-532.144
-1408.56
-2266.34
-3106.06
-3931.92
-4742.45
-5532.78
-6301.03
-7029.59
-7714.01
-8331.38
-8869.98
-9311.22
-9641.41
-9847.28
-9916.75
-9835.31
-9605.51
-9220.26
-8679.1
-7983.95
-7140.82
-6157.65
-5048.99
-3833.68
-2537.14
-1185.74
181.581
1547.41
2875.39
4128.04
5260.68
6253.73
7084.71
7737.61
8200.06
8469.92
8542.63
-6603.08
-7751.7
-8626.29
-9156.52
-9390.98
-9317.95
-8980.31
-8404.84
-7624.03
-6681.97
-5649.01
-4553.6
-3429.47
-2306.37
-1230.12
-221.114
752.288
1606.84
2348.76
2982.38
3512.26
3952.44
4323.92
4652.34
4964.12
5282.94
5627.57
6010.12
6432.08
6884.03
7347.1
7792.67
8188.54
8501.05
8699.34
8760.69
8664.5
8412.15
7999.23
7434.54
6740.12
5937.09
5057.96
4128.42
3177.4
2222.07
1279.51
357.79
-541.456
-1417.12
-2274.1
-3113.33
-3939.27
-4750.79
-5542.88
-6314.02
-7045.87
-7734.52
-8356.03
-8898.83
-9344.05
-9677.77
-9886.63
-9958.45
-9878.9
-9650.3
-9265.7
-8724.52
-8028.58
-7183.78
-6197.8
-5085.12
-3864.33
-2561.08
-1201.54
174.9
1550.67
2888.92
4152.16
5294.21
6295.59
7132.98
7790.13
8254.24
8523.09
8595.23
-6847.51
-7943.24
-8768.53
-9262.03
-9453.11
-9345.09
-8982.42
-8388.32
-7595.31
-6643.6
-5603.54
-4504.65
-3378.45
-2254.45
-1178.24
-167.754
802.658
1656.58
2395.43
3024.42
3547.81
3979.69
4341.52
4659.81
4962.1
5273.21
5613.05
5994.67
6419.95
6879.36
7353.24
7811.99
8221.93
8547.72
8756.94
8825.85
8732.89
8479.37
8060.98
7487.22
6781.25
5965.69
5074.14
4133.76
3174.01
2212.55
1266.11
343.763
-555.436
-1429.84
-2285.56
-3123.99
-3950.03
-4763.06
-5557.82
-6333.36
-7070.2
-7765.24
-8393.01
-8942.14
-9393.37
-9732.39
-9945.72
-10021
-9944.04
-9717.44
-9333.86
-8792.68
-8095.61
-7248.34
-6258.2
-5139.54
-3910.56
-2597.26
-1225.52
164.624
1555.44
2909.2
4188.42
5344.68
6358.67
7205.75
7869.31
8335.99
8602.85
8666.25
-7078.86
-8161.76
-8966.97
-9423.96
-9595.47
-9466.83
-9079.26
-8461.39
-7647.03
-6677.03
-5618.94
-4503.48
-3362.3
-2225.3
-1138.29
-116.835
857.672
1716.14
2454.79
3079.82
3595.41
4016.4
4365.21
4669.61
4958.81
5259.32
5592.58
5972.9
6402.64
6872.14
7360.7
7837.39
8266.41
8610.19
8834.17
8913.02
8824.02
8569.46
8143.77
7557.73
6836.09
6003.57
5095.24
4140.27
3168.83
2199.25
1247.87
324.521
-574.325
-1446.9
-2300.79
-3138.06
-3964.16
-4779.15
-5577.51
-6358.93
-7102.54
-7806.19
-8442.42
-9000.04
-9459.38
-9805.52
-10024.9
-10104.7
-10031.6
-9807.49
-9425.23
-8884.06
-8185.5
-7335
-6339.35
-5212.76
-3972.86
-2646.1
-1258.05
150.482
1561.45
2936.08
4236.73
5412.11
6443.08
7303.24
7975.43
8445.74
8710.55
8767.61
-7362.85
-8414.81
-9186.51
-9605.22
-9740.27
-9575.81
-9158.12
-8513.91
-7677.68
-6688.36
-5612.95
-4482.9
-3328.54
-2180.03
-1083.2
-50.8477
927.445
1790.43
2528.67
3148.86
3655.01
4062.41
4394.72
4681.39
4953.76
5240.62
5565.35
5943.93
6379.37
6861.78
7369.14
7868.73
8322.2
8689.06
8932.01
9023.8
8939.85
8683.46
8248.33
7646.56
6904.9
6050.7
5121.03
4147.57
3161.43
2181.76
1224.43
299.734
-598.228
-1468.23
-2319.61
-3155.25
-3981.33
-4798.73
-5601.68
-6390.52
-7142.76
-7857.3
-8504.24
-9072.59
-9542.16
-9897.27
-10124.1
-10209.7
-10141.1
-9920.25
-9539.73
-8998.66
-8298.37
-7443.95
-6441.54
-5305.12
-4051.64
-2708.05
-1299.57
132.115
1568.45
2969.53
4297.21
5496.79
6549.29
7426.06
8109.29
8584.3
8847.02
8894.99
-7678.39
-8718.68
-9464.83
-9849.25
-9954.97
-9758.77
-9306.64
-8629.3
-7762.74
-6745.82
-5643.52
-4488.83
-3311.8
-2143.24
-1028.98
20.9473
1007.9
1878.28
2617.78
3232.95
3727.86
4118.9
4430.91
4695.66
4946.95
5216.86
5530.83
5906.96
6349.15
6847.26
7377.83
7905.63
8389.25
8784.53
9050.88
9158.62
9080.89
8822.11
8375.32
7754.1
6987.7
6106.81
5150.97
4154.96
3151.06
2159.39
1195.26
269.005
-627.384
-1493.93
-2341.95
-3175.37
-4001.27
-4821.49
-5630.06
-6427.87
-7190.75
-7918.55
-8578.6
-9160.01
-9642.03
-10008
-10243.8
-10336.4
-10273.6
-10056.4
-9677.95
-9137.08
-8434.8
-7575.83
-6565.44
-5417.35
-4147.62
-2783.78
-1350.7
109.003
1576.05
3009.36
4369.76
5598.86
6677.62
7574.67
8271.37
8752.17
9011.99
9050.4
-8026.9
-9050.03
-9762.85
-10120.1
-10184
-9948.59
-9458.72
-8745.77
-7847.2
-6800.95
-5670.63
-4490.55
-3289.79
-2099.86
-966.32
103.988
1101.7
1980.5
2722.39
3331.95
3813.89
4185.35
4473.17
4711.41
4936.86
5186.65
5487.33
5860.36
6310.64
6827.66
7386.04
7947.75
8467.72
8897.26
9191.87
9318.84
9248.67
8986.46
8525.62
7880.92
7084.68
6171.66
5184.49
4161.66
3136.89
2131.35
1159.69
231.869
-662.01
-1523.97
-2367.61
-3198.06
-4023.56
-4846.97
-5662.29
-6470.68
-7246.35
-7989.86
-8665.55
-9262.41
-9759.18
-10137.9
-10384.2
-10485
-10428.7
-10216.1
-9840.05
-9299.54
-8595.14
-7731.1
-6711.63
-5550.12
-4261.53
-2874.04
-1412.16
80.5677
1583.82
3055.43
4454.44
5718.63
6828.62
7749.86
8462.75
8950.56
9207.65
9234.84
-8422.29
-9437.76
-10122.9
-10449
-10473.4
-10196.6
-9663.06
-8907.57
-7969.43
-6886.44
-5720.32
-4507.22
-3275.68
-2058.3
-899.804
196.923
1209.39
2098.27
2844.22
3447.84
3914.75
4263.55
4523.48
4729.23
4923.91
5149.01
5434.03
5802.82
6262.25
6800.95
7392.74
7994.58
8557.62
9027.78
9355.92
9505.72
9444.58
9177.88
8700.25
8027.66
7195.96
6244.9
5220.87
4166.72
3117.89
2096.67
1116.93
187.801
-702.382
-1558.42
-2396.39
-3222.97
-4047.73
-4874.65
-5697.94
-6518.56
-7309.4
-8071.2
-8765.23
-9380.11
-9894
-10287.4
-10545.7
-10656
-10607.4
-10399.8
-10026.5
-9486.63
-8780.05
-7910.51
-6880.99
-5704.33
-4394.34
-2979.77
-1484.84
46.055
1591.17
3107.47
4551.19
5856.38
7002.83
7952.39
8684.29
9180.26
9433.73
9449.29
-8852.5
-9861.13
-10514.1
-10807.3
-10789.1
-10466.4
-9885.52
-9084.03
-8103.31
-6980.73
-5775.94
-4527.08
-3261.79
-2014.16
-827.924
301.757
1331.11
2232.24
2983.67
3580.94
4030.28
4354.77
4579.86
4748.13
4906.8
5101.68
5368.9
5732.23
6202.18
6766.78
7396.96
8045.56
8659.1
9176.84
9544.39
9721
9670.3
9397.89
8900.44
8195.02
7321.64
6326.04
5259.16
4168.93
3092.75
2054.16
1066.04
136.162
-748.804
-1597.27
-2428.01
-3249.58
-4073.18
-4903.87
-5736.49
-6571.1
-7379.68
-8162.49
-8877.74
-9513.34
-10046.9
-10457
-10728.8
-10849.7
-10810.1
-10607.8
-10237.8
-9698.8
-8990.12
-8114.79
-7074.39
-5881.03
-4547.13
-3102.1
-1569.81
4.59997
1597.47
3165.21
4659.96
6012.43
7200.91
8183.23
8937.31
9442.78
9691.73
9695.81
-9335.93
-10344.6
-10963.5
-11221.7
-11158.7
-10784.8
-10150.1
-9295.81
-8265.68
-7097.12
-5847.25
-4556.54
-3251.8
-1969.19
-752.903
421.025
1468.46
2384.91
3142.61
3732.68
4164.66
4458.93
4643.86
4768.98
4884.94
5043.69
5290.12
5646.29
6128.24
6723.1
7397.07
8099.92
8772.12
9345.13
9758.57
9966.43
9928.07
9648.12
9127.59
8383.91
7461.9
6414.59
5298.32
4166.88
3060.04
2002.44
1005.93
76.2877
-801.607
-1640.57
-2462.12
-3277.33
-4099.2
-4933.85
-5777.36
-6627.77
-7457.01
-8263.66
-9003.28
-9662.58
-10218.3
-10647.2
-10934
-11066.6
-11037.4
-10840.8
-10474.4
-9936.71
-9226.1
-8344.79
-7292.93
-6081.38
-4721.16
-3242.32
-1668.28
-44.7449
1601.89
3228.25
4780.65
6187.13
7423.53
8443.42
9223.07
9739.52
9981.51
9976.66
-9863.7
-10876.3
-11453
-11675.3
-11565.8
-11135.3
-10441.8
-9529.86
-8446.06
-7227.63
-5928.69
-4592.18
-3243.92
-1921.93
-666.425
547.058
1621.03
2557.82
3318.73
3905.92
4318.44
4575.22
4716.29
4791.24
4857.1
4974.13
5194.59
5542.66
6037.96
6666.09
7391.49
8156.87
8896.88
9533.73
10000.4
10244.5
10220.8
9930.34
9383.24
8595.2
7616.74
6509.62
5336.89
4158.78
3017.86
1939.8
935.415
7.46109
-861.241
-1688.3
-2498.24
-3305.49
-4124.96
-4963.73
-5819.85
-6688.03
-7541.15
-8374.67
-9142.03
-9828.24
-10409
-10858.6
-11161.8
-11307
-11289.9
-11099.1
-10736.8
-10200.8
-9488.76
-8601.43
-7537.79
-6306.72
-4917.89
-3401.96
-1781.79
-103.257
1603.52
3296.06
4913.11
6380.89
7671.56
8734.23
9543.29
10072.9
10311.3
10287.7
-10451.1
-11475.4
-11999
-12207.8
-12025.4
-11530.3
-10770.7
-9794.31
-8650.41
-7376.42
-6022.95
-4635.37
-3238.5
-1871.97
-569.763
683.155
1791.96
2748.53
3520.55
4102.04
4490.05
4707.91
4797.95
4814.63
4821.93
4890.61
5078.83
5417.46
5927.14
6594.1
7378.28
8215.29
9033.11
9743.34
10271.2
10557
10550.6
10246
9669.27
8830.03
7786.03
6610.57
5373.54
4142.96
2964.38
1864.38
853.11
-71.2617
-928.123
-1740.37
-2535.92
-3333.4
-4149.6
-4992.58
-5863.16
-6751.21
-7632.1
-8495.59
-9294.45
-10011.1
-10619.5
-11092.1
-11413.3
-11571.3
-11569.5
-11383.5
-11025.5
-10492
-9779.13
-8885.98
-7810.43
-6558.75
-5139.06
-3582.77
-1912
-172.27
1601.32
3367.92
5057.06
6593.87
7945.54
9056.6
9899.21
10444.1
10682.6
10629.8
-11092.2
-12117.1
-12611.3
-12771.4
-12529.5
-11964.1
-11131.8
-10085
-8875.74
-7541.59
-6129.16
-4685.96
-3235.96
-1819.92
-464.498
831.555
1977.66
2960.81
3748.18
4320.58
4682.65
4858.01
4888.9
4839.78
4779.36
4790.83
4941.27
5267.76
5793.46
6504.36
7355.1
8274.07
9181.1
9975.27
10573.6
10907.3
10924.5
10597.7
9988.09
9089.99
7971.63
6715.66
5405.74
4116.23
2896.62
1773.81
757.583
-160.71
-1002.94
-1796.92
-2574.74
-3360.28
-4172.1
-5019.46
-5906.48
-6816.51
-7729.59
-8626.28
-9460.68
-10211.6
-10850.5
-11348.1
-11689.2
-11858.9
-11876.7
-11693.4
-11340.8
-10810.6
-10097.7
-9199.26
-8112.13
-6838.99
-5386.45
-3786.57
-2060.81
-253.319
1594.13
3443.22
5212.46
6826.76
8246.79
9412.42
10293
10855.3
11093.2
11012.1
-11571.6
-12592
-13079
-13195
-12906.1
-12287.5
-11400.4
-10301
-9043.21
-7664.66
-6209.02
-4724.87
-3235.71
-1782.88
-386.555
941.022
2117.48
3120.68
3918.93
4487.76
4830.68
4973.26
4961.36
4856.92
4743.26
4709.13
4829.53
5146.28
5684.82
6428.24
7330.77
8313.08
9289.15
10148.4
10801.3
11171.7
11210.6
10859.9
10227.4
9282.47
8104.48
6788.21
5422.12
4088.76
2839.33
1700.35
682.503
-229.76
-1059.1
-1837.74
-2600.89
-3376.57
-4184.54
-5035.09
-5934.5
-6861.1
-7799.21
-8720.69
-9582.29
-10359.6
-11021.4
-11537.5
-11893.7
-12077.1
-12097.9
-11921.3
-11573.1
-11045.8
-10333.8
-9432.05
-8337.4
-7049.38
-5573.38
-3941.67
-2175.61
-317.599
1584.9
3495.8
5325.12
6998.14
8469.72
9676.92
10586.5
11162
11399.6
11298.2
-11830.8
-12850.1
-13331
-13424.2
-13109.2
-12461.9
-11545
-10417.2
-9133.38
-7730.96
-6252.21
-4746.1
-3235.92
-1763.29
-344.564
1000.17
2192.73
3207.39
4011.8
4578.62
4911.5
5036.11
4999.01
4865.97
4722.97
4663.27
4767.27
5078.6
5623.94
6385.34
7316.16
8333.24
9347.1
10241.9
10924.8
11315.1
11362.9
11005.5
10357.2
9386.45
8175.59
6826.13
5429.57
4072.42
2806.95
1659.35
641.28
-267.319
-1089.51
-1859.5
-2614.46
-3384.59
-4190.34
-5042.52
-5948.69
-6884.39
-7836.24
-8771.26
-9647.8
-10439.5
-11113.7
-11639.8
-12004.1
-12195.9
-12215.6
-12043.7
-11698
-11172.4
-10461
-9557.64
-8459.19
-7163.36
-5674.93
-4026.12
-2238.42
-353.136
1579.16
3523.5
5385.37
7090.31
8589.87
9819.72
10745
11327.8
11565.3
11452.7
-12098.7
-13117.4
-13591.6
-13661.5
-13319.2
-12641.9
-11694.2
-10537
-9226.37
-7799.42
-6296.98
-4768.32
-3236.55
-1743.58
-301.482
1061.14
2270.36
3297.47
4108.12
4673.03
4995.8
5101.67
5038.75
4875.1
4701.26
4614.57
4701.17
5006.61
5558.69
6339.12
7299.59
8353.04
9406.39
10338.5
11052.9
11463.9
11517.8
11159.9
10491.8
9493.95
8249.14
6864.12
5435.81
4053.85
2771.87
1615.63
598.205
-306.348
-1120.78
-1881.57
-2627.82
-3391.98
-4195.33
-5049.22
-5962.55
-6907.88
-7874.12
-8823.27
-9715.43
-10522.1
-11208.9
-11745.1
-12117.9
-12318
-12336.9
-12169.6
-11826.4
-11302.6
-10592
-9687.2
-8585.09
-7281.45
-5780.43
-4114.05
-2304.18
-390.743
1572.45
3551.35
5446.91
7184.99
8713.59
9967.04
10908.7
11499.1
11736.7
11612.7
-12375.8
-13394
-13860.8
-13906.8
-13535.7
-12827.5
-11847.7
-10660.2
-9322.07
-7869.94
-6343.31
-4791.51
-3237.58
-1723.79
-256.964
1123.7
2350.85
3390.37
4208.23
4771.17
5083.58
5169.89
5079.56
4884.25
4677.96
4563
4631.03
4930.15
5489.1
6289.42
7280.86
8372.33
9467.04
10438.3
11185.5
11618.3
11679.3
11319.6
10631.5
9605.07
8324.54
6902.48
5440.79
4033.08
2734.13
1569.86
552.486
-347.282
-1153.08
-1904.13
-2641.07
-3398.92
-4199.71
-5055.47
-5976.25
-6931.65
-7912.83
-8876.64
-9784.99
-10607
-11306.8
-11853.7
-12235.1
-12443.7
-12461.6
-12299.1
-11958.4
-11436.6
-10727
-9820.85
-8715.18
-7403.79
-5890.05
-4205.6
-2373.03
-430.551
1564.67
3579.24
5509.74
7282.2
8840.92
10118.9
11077.6
11675.9
11914
11778.1
-12663
-13680.3
-14139.1
-14160.4
-13759.2
-13018.7
-12005.7
-10786.9
-9420.5
-7942.51
-6391.15
-4815.63
-3239.02
-1703.96
-211.144
1188.29
2433.64
3486.81
4312.05
4873.3
5175.14
5240.96
5122.38
4893.4
4652.99
4508.07
4556.53
4848.86
5414.86
6236.05
7259.75
8391.1
9529.06
10541.2
11323
11778.5
11847.4
11484.8
10776.5
9719.76
8401.6
6940.82
5444.37
4009.99
2693.73
1521.49
504.127
-390.11
-1186.59
-1927.24
-2654.29
-3405.44
-4203.46
-5061.08
-5989.55
-6955.4
-7952.11
-8931.12
-9856.39
-10694.4
-11407.7
-11965.4
-12355.8
-12573
-12589.6
-12432
-12093.9
-11574.2
-10866
-9958.54
-8849.41
-7530.36
-6003.9
-4300.87
-2445.11
-472.645
1555.75
3607.12
5573.8
7381.96
8971.91
10275.5
11251.8
11858.2
12097.3
11948.8
-12960.9
-13976.2
-14426.7
-14422.5
-13989.6
-13215.7
-12168.2
-10917.1
-9521.64
-8017.13
-6440.54
-4840.72
-3240.84
-1684.21
-164
1254.86
2519.07
3586.68
4419.62
4979.57
5270.47
5314.85
5166.7
4902.55
4626.23
4448.95
4477.47
4762.42
5335.74
6178.59
7236.16
8409.2
9592.39
10647.3
11465.4
11944.8
12022.2
11655.6
10927
9837.67
8480.49
6978.58
5446.21
3984.29
2650.32
1470.21
453.074
-434.749
-1221.2
-1950.74
-2667.25
-3411.26
-4206.23
-5065.72
-6002.22
-6978.96
-7991.87
-8986.7
-9929.75
-10784.4
-11511.5
-12080.5
-12480.1
-12706.2
-12720.8
-12568.4
-12233
-11715.6
-11008.9
-10100.4
-8987.93
-7661.3
-6122.14
-4399.99
-2520.52
-517.158
1545.66
3634.92
5639.04
7484.3
9106.63
10436.9
11431.6
12046.4
12286.8
12125
-13269.4
-14282.3
-14724.3
-14693.3
-14227
-13418.5
-12335.2
-11050.8
-9625.48
-8093.77
-6491.44
-4866.77
-3243.12
-1664.55
-115.147
1323.22
2607.24
3689.98
4531.29
5090.09
5369.87
5391.88
5212.74
4911.71
4597.59
4387.31
4393.57
4670.54
5251.03
6116.89
7209.82
8426.52
9657.03
10756.8
11612.8
12117.2
12203.8
11832.6
11082.8
9959.02
8561.26
7016.18
5446.12
3955.64
2603.51
1415.81
399.402
-481.261
-1256.89
-1974.58
-2679.89
-3416.19
-4207.84
-5069.29
-6014.16
-7002.33
-8032.17
-9043.43
-10005.2
-10876.9
-11618.4
-12198.9
-12607.9
-12843.3
-12855
-12708.5
-12375.7
-11860.7
-11155.8
-10246.5
-9130.91
-7796.74
-6244.96
-4503.06
-2599.45
-564.211
1534.25
3662.61
5705.49
7589.2
9245.09
10603.1
11616.8
12240.3
12482.4
12306.9
-13600.8
-14610.1
-15042.8
-14982.8
-14480.2
-13634.5
-12512.7
-11192.8
-9735.76
-8175.28
-6545.76
-4894.75
-3245.86
-1644.78
-62.8997
1396.05
2701.37
3800.56
4651.19
5209.07
5477.09
5474.75
5262.46
4921.17
4565.86
4319.35
4301.22
4569.54
5158.1
6048.36
7179.41
8443.51
9725.29
10873.7
11770.9
12302.4
12399.1
12022.2
11249.7
10088.6
8646.22
7054.73
5443.74
3922.68
2551.36
1356.12
341.082
-531.46
-1294.99
-1999.58
-2692.55
-3420.36
-4208.41
-5071.89
-6025.8
-7026.37
-8074.45
-9103.41
-10085.3
-10975.4
-11732.2
-12325.2
-12743.9
-12989.7
-12997
-12857.4
-12527.1
-12015
-11312.3
-10402.1
-9283.52
-7941.64
-6376.98
-4613.94
-2684.99
-615.699
1520.98
3691.03
5775.52
7700.49
9392.39
10780.4
11814.4
12447
12691.2
12501.5
-13956
-14961.4
-15384.5
-15292.6
-14750.4
-13864.7
-12701.3
-11343.6
-9852.83
-8261.93
-6603.64
-4924.86
-3249.26
-1625
-6.64031
1473.59
2801.82
3919.15
4780.08
5337.31
5592.9
5564.17
5315.91
4931
4530.6
4244.5
4199.9
4458.19
5055.81
5971.87
7144.42
8459.94
9797.24
10998.5
11940.5
12501.6
12609.6
12226
11428.6
10227.3
8735.6
7094.19
5439
3885.05
2493.33
1290.6
277.428
-585.811
-1335.77
-2025.94
-2705.36
-3423.67
-4207.61
-5073.25
-6036.93
-7050.9
-8118.69
-9166.67
-10170.8
-11080.4
-11853.7
-12459.8
-12888.8
-13141.8
-13151.1
-13015.7
-12688
-12179.1
-11479.1
-10568.4
-9446.71
-8096.8
-6519.07
-4733.4
-2777.87
-672.206
1505.63
3720.04
5849.14
7818.5
9549.11
10969.4
12025.3
12667.6
12914.9
12709.9
-14328.6
-15325.5
-15738.6
-15613.2
-15029
-14101.9
-12895.2
-11498.5
-9972.89
-8350.99
-6663.35
-4956.26
-3253.09
-1606.29
52.2198
1553.32
2905.52
4042
4914.01
5471.07
5714.04
5658.16
5371.75
4940.75
4492.69
4164.77
4091.83
4339.44
4945.9
5889.56
7105.53
8475.06
9870.62
11127.3
12116.4
12708.7
12828.5
12437.7
11614.2
10370.6
8826.34
7132.53
5431.11
3843.09
2430.8
1220.93
210.29
-642.612
-1378.03
-2052.63
-2717.54
-3425.74
-4205.14
-5072.95
-6046.83
-7074.99
-8163.47
-9231.6
-10259
-11188.5
-11978.9
-12598.6
-13038.1
-13294.5
-13313.1
-13178.4
-12853.1
-12347.7
-11651.1
-10740.2
-9615.72
-8257.91
-6667.01
-4857.78
-2875.4
-732.181
1488.4
3748.57
5924.11
7939.55
9710.27
11164.3
12243
12895
13145.7
12925
-14711.7
-15701
-16106.7
-15945.3
-15316.1
-14346.1
-13094.1
-11657.4
-10096.1
-8442.3
-6724.82
-4988.4
-3257.27
-1580.6
105.856
1635.15
3012.54
4169.29
5053.18
5610.49
5840.5
5757.35
5429.92
4950.38
4452.34
4079.69
3976.58
4212.96
4828.4
5800.86
7062.33
8488.65
9945.25
11260.2
12298.9
12924.1
13056.3
12657.8
11806.6
10518.2
8918.74
7169.75
5419.89
3796.72
2363.33
1146.86
139.712
-701.716
-1421.46
-2079.45
-2728.91
-3425.8
-4200.43
-5070.52
-6055.32
-7098.67
-8208.74
-9297.86
-10349.8
-11299.8
-12107.8
-12741.6
-13192.1
-13451.4
-13478.6
-13345.1
-13021.8
-12519.9
-11827.1
-10917.7
-9790.75
-8425.49
-6821.36
-4987.44
-2977.43
-796.097
1469.29
3776.5
6000.14
8063.53
9876.08
11365.3
12467.7
13129.3
13385.1
13147.5
-15121.3
-16093.5
-16488.9
-16286.7
-15612
-14597.5
-13298.2
-11820
-10222.6
-8535.73
-6788.24
-5021.63
-3261.91
-1554.33
160.067
1719.03
3122.84
4301.14
5197.47
5755.82
5972.78
5861.98
5491
4959.98
4408.66
3989.19
3854.41
4078.07
4702.89
5705.42
7014.64
8500.67
10021.1
11397.3
12488.2
13148
13293.2
12886.4
12006.1
10670.4
9012.62
7205.32
5404.86
3745.47
2290.58
1068.28
65.4132
-763.91
-1466.28
-2107.23
-2740.26
-3425.54
-4195.95
-5068.6
-6064.64
-7123.28
-8255.6
-9366.09
-10443.6
-11414.2
-12240.4
-12888.2
-13350.5
-13612.4
-13647.1
-13515.6
-13194.1
-12696.1
-12006.8
-11098.6
-9971.52
-8599.57
-6982.87
-5123.08
-3084.23
-863.974
1447.88
3803.69
6077.25
8190.34
10046.4
11572.3
12699.4
13370.3
13633.3
13376.9
-15529.6
-16492.1
-16885
-16645.1
-15916.5
-14856.5
-13507.3
-11986.3
-10352.5
-8631.26
-6853.43
-5056.43
-3267.03
-1527.69
215.288
1805.19
3236.56
4437.99
5347.32
5907.33
6110.9
5970.05
5554.4
4969.29
4361.91
3892.65
3724.12
3934.57
4568.84
5602.84
6961.96
8510.56
10098.3
11538.8
12684.3
13380.5
13539
13123.7
12212.7
10826.6
9107.47
7238.95
5386.19
3689.29
2212.48
984.948
-12.8961
-828.719
-1512.57
-2134.54
-2750.08
-3423.48
-4188.42
-5063.15
-6071.3
-7146.1
-8302.4
-9433.98
-10538
-11530.6
-12375.5
-13038.9
-13512.9
-13777.4
-13819.1
-13689.9
-13370.2
-12876.6
-12191.9
-11284.1
-10154.2
-8778.57
-7152.2
-5264.06
-3196.39
-935.945
1424.21
3829.93
6155.54
8320.41
10221.2
11785.5
12938.5
13617.8
13889.2
13613.5
-15970.9
-16938.1
-17302.8
-17003
-16228.4
-15123
-13721.7
-12157
-10485.6
-8729.07
-6920.31
-5092.3
-3272.4
-1500.54
271.466
1893.42
3353.61
4579.47
5502.5
6064.85
6255.13
6083.68
5620.73
4978.49
4312.25
3789.93
3585.93
3781.64
4425.81
5492.77
6904.12
8518.45
10176.4
11684.5
12887.7
13622.3
13795.5
13370.8
12427.1
10987.6
9204.1
7270.92
5363.32
3627.38
2128.33
896.606
-95.1268
-895.908
-1560.14
-2161.57
-2759.26
-3420.14
-4178.7
-5055.81
-6076.62
-7168.58
-8348.94
-9502.38
-10634.9
-11650.1
-12514.8
-13194.4
-13679.9
-13947.9
-13993.8
-13867.1
-13552.9
-13056.2
-12383.3
-11474.5
-10342.9
-8955.95
-7329.06
-5411.03
-3312.18
-1012.06
1397.66
3855.17
6234.65
8452.98
10400.7
12004.9
13185
13872.2
14158.8
13858.7
-16355.2
-17390.2
-17724
-17392.7
-16559.6
-15395.4
-13941.4
-12332.2
-10622.6
-8830.05
-6989.07
-5129.44
-3277.99
-1473.26
328.757
1983.79
3474.29
4726.05
5664.12
6229.38
6406.08
6201.95
5690
4987.49
4258.09
3680.51
3439
3618.72
4273.33
5374.55
6840.52
8524.16
10255.5
11834.6
13098.2
13873.4
14061.4
13627.2
12650
11153.7
9301.84
7300.35
5335.67
3559.64
2038.58
802.466
-181.705
-966.256
-1609.16
-2189.74
-2768.3
-3415.25
-4167.35
-5047.01
-6080.4
-7189.54
-8394.53
-9573.46
-10735.7
-11774.1
-12657.8
-13353.6
-13848.6
-14123.5
-14171.3
-14045.2
-13738.9
-13243.9
-12572.3
-11673.2
-10535.1
-9142.77
-7508.2
-5567.44
-3431.36
-1092.42
1368.53
3879.18
6314.77
8588.32
10585.2
12230.7
13439.4
14142.9
14420.7
14108.6
-16108.5
-15297.2
-14483.5
-15086.7
-15754.9
-15628.6
-14164.6
-12509.6
-10763.1
-8933.66
-7059.72
-5168.21
-3284.2
-1445.65
387.128
2076.23
3598.4
4877.22
5831.38
6399.85
6563.1
6325.08
5762.02
4996.45
4200.27
3563.99
3282.92
3445.68
4110.63
5247.54
6770.82
8527.09
10335.6
11989.3
13316.3
14134.1
14336.8
13892.5
12880.8
11324.4
9400.47
7327.59
5303.09
3485.58
1942.54
702.657
-272.503
-1039.61
-1659.72
-2217.86
-2775.29
-3407.45
-4152.78
-5034.77
-6081.44
-7209.46
-8443.14
-9650.64
-10844.7
-11903.2
-12803.4
-13517.2
-14018.8
-14301.9
-14359.3
-14229.3
-13923.9
-13439
-12763.3
-11878.4
-10731
-9339.68
-7684.74
-5734.47
-3557.33
-1176.27
1337.2
3901.69
6395.6
8726.36
10774.3
12462.8
13701.7
14431.7
14685.9
14368.3
-6284.41
-3275.09
-2683.93
-3828.6
-6755.46
-10893.2
-13025.1
-12691.9
-10905.4
-9039
-7131.34
-5208.89
-3291.31
-1417.81
446.377
2170.75
3725.99
5033.62
6006.08
6578.34
6728.22
6455.04
5837.62
5005.46
4138.79
3440.35
3117.6
3261.59
3937.03
5111.46
6694.75
8527.17
10416.2
12148.5
13542
14404.9
14624.9
14168.9
13120.8
11500.5
9500.45
7351.62
5264.46
3404.65
1840.15
597.112
-367.833
-1115.65
-1711.99
-2245.71
-2781.76
-3398.05
-4136.4
-5020.74
-6082.09
-7229.64
-8490.15
-9716.58
-10918.7
-11942.1
-12706.5
-13109.9
-13163
-13049.2
-12986.8
-13043.2
-13169.2
-13189.5
-12911.2
-12083.2
-10937.2
-9542.09
-7864.9
-5907.74
-3692.52
-1264.87
1302.74
3922.85
6477.17
8867.36
10968.2
12701.6
13971.9
14728.7
14957.5
14634.9
-271.133
0.231223
-34.069
-85.6432
-318.739
-1376.46
-5017.87
-9458.66
-10564.9
-9146.18
-7203.31
-5249.46
-3298.42
-1389.51
506.712
2267.28
3857.44
5194.56
6186.73
6762.78
6899.1
6589.27
5916.32
5013.94
4072.6
3308.49
2942.16
3065.73
3752.35
4965.88
6611.76
8524.09
10497.3
12312
13775.2
14685.9
14923.1
14455.3
13369.9
11682.3
9600.75
7371.86
5220.56
3317.51
1730.97
485.306
-467.165
-1193.99
-1765.03
-2272.83
-2786.12
-3385.18
-4116.36
-5002.88
-6078.97
-7241.01
-8509.17
-9679.72
-10550.9
-10482.8
-8930
-7098.03
-5810.06
-5069.8
-4906.6
-5247.38
-6095.97
-7342.75
-8905.45
-10061.1
-10466.9
-9750.16
-8057.49
-6076.01
-3832.51
-1359.58
1264.52
3941.91
6559.12
9011.16
11167.4
12947.7
14250.7
15035.4
15234.3
14908.4
43.3129
34.8162
29.3991
24.1237
16.3836
-9.55933
-192.605
-1437.28
-5349.97
-7870
-7278.5
-5292.5
-3305.56
-1360.21
568.271
2365.8
3992.6
5360.98
6373.22
6955.9
7079.83
6731.52
5998.67
5022.04
4001.89
3167.66
2755.8
2858.01
3556.07
4810.43
6521.74
8517.77
10579.1
12480.2
14016.1
14977.1
15230.6
14751.2
13626.2
11867.6
9700.58
7389.14
5170.56
3222.25
1614.83
368.024
-569.361
-1275.82
-1819.49
-2299.76
-2789.11
-3370.17
-4092.46
-4976.11
-6047.84
-7149.19
-8029.69
-7592.6
-5242.88
-2949.38
-1485.26
-728.167
-367.083
-211.435
-182.668
-215.515
-310.748
-540.019
-1123.29
-2621.48
-4982.8
-7340.67
-7768.49
-6250.21
-3973.33
-1455.07
1222.6
3959.09
6641.47
9156.73
11371.1
13199.9
14537.2
15352.9
15527.7
15190.9
42.301
34.9378
30.0645
25.2186
21.3542
17.6858
10.9799
-17.2685
-308.393
-2298.05
-5118.6
-5134.95
-3319.61
-1334.25
631.039
2466.61
4131.18
5534.35
6567.04
7154.53
7265.37
6876.43
6083.08
5029.02
3926.25
3018.07
2558.98
2638.02
3347.9
4644.64
6424.13
8507.58
10660.7
12652.7
14264.6
15278.7
15550.8
15058.9
13890.3
12057.5
9801.59
7402.61
5111.84
3118.62
1492.4
246.341
-676.024
-1357.04
-1868.91
-2318.01
-2778.2
-3331.17
-4017.44
-4808.6
-5493.61
-5108.59
-3317.15
-1491.73
-458.963
-38.619
6.28899
5.50066
5.95048
6.63142
6.76681
6.07424
3.89657
-1.35464
-14.6203
-60.477
-264.372
-1208.51
-3647.52
-5261.31
-4124.71
-1552.98
1178.79
3975.15
6724.63
9304.97
11580
13459.1
14831.3
15681.7
15816.6
15479.7
41.0459
34.2662
29.5787
25.2955
21.3867
17.7505
13.821
11.76
4.79416
-52.41
-623.737
-2456.6
-2815.13
-1314.16
688.883
2569.35
4272.99
5712.71
6768.35
7364.14
7463.93
7031.94
6173.3
5037.69
3846.79
2859.16
2338.87
2405.59
3127.94
4468.89
6319
8493.3
10741.8
12828.9
14519.9
15590.4
15881.8
15379.1
14163.7
12253.3
9902.8
7408.87
5046.1
3009.04
1367.31
131.567
-761.328
-1391.57
-1839.43
-2209.61
-2557.63
-2896.8
-3068.73
-2645.82
-1758.06
-784.581
-187.858
8.01543
9.74526
9.77296
10.8373
10.629
11.0051
11.5124
11.6572
11.6618
11.6543
11.6166
11.5668
10.4388
6.19299
-13.7136
-172.759
-1318.71
-2888.02
-1655.94
1129.51
3990.15
6808.14
9455.42
11793.7
13725.5
15133.7
16025.6
16238.7
15778.1
39.9502
33.7482
29.1222
24.781
21.07
17.6523
13.9369
11.7144
9.1125
5.46966
-1.22899
-82.4865
-587.588
-630.321
753.115
2667.73
4419.32
5898.05
6977.01
7582.03
7665.86
7190.75
6267.26
5046.92
3762.43
2692.68
2151.9
2160.16
2894.92
4282.85
6206.61
8475.08
10822.3
13008.6
14781.8
15911.9
16220.8
15710.1
14443.6
12451.7
10000.2
7409.91
4977.43
2901.73
1275.44
162.605
-453.75
-669.764
-703.985
-697.585
-656.605
-561.73
-385.392
-186.714
-40.6907
5.4009
5.66241
8.0003
9.51877
9.83452
10.6396
10.5422
10.8907
11.4009
11.5705
11.6392
11.6814
11.7262
11.8699
11.6076
11.1947
11.1327
10.1637
-10.9697
-261.11
-723.411
1071.07
3999.15
6892.19
9607.97
12011.3
13997.7
15443.9
16376.2
16551.2
16084.2
38.8839
33.167
28.7322
24.5977
20.8065
17.3798
13.8675
11.7167
9.01521
5.82173
5.16773
5.68135
31.1504
344.664
1232.12
2818.94
4563.96
6086.61
7189.36
7807.73
7885.81
7364.55
6367.34
5061.14
3699.21
2615.15
2080.69
2098.05
2750.43
4078.54
6082.12
8452.84
10901.4
13191.3
15049.1
16243
16568.4
16051.4
14726.7
12649
10095.4
7410.41
4908.5
2833.94
1477.47
763.466
398.226
244.47
174.162
122.989
76.2331
32.2969
4.86298
3.66035
3.12256
5.26828
5.68174
7.86056
9.19569
9.5987
10.3793
10.3839
10.7291
11.1972
11.3323
11.4339
11.4938
11.5698
11.6974
11.4138
10.98
10.9315
11.4273
10.0539
15.4597
196.422
1386.54
3993.74
6974.28
9761.44
12232.7
14276.8
15776.2
16714.6
16875.3
16398.1
37.9064
32.6055
28.2434
24.1619
20.5515
17.2453
13.7792
11.5211
9.00836
5.97557
4.74829
3.33153
2.15169
36.0508
506.006
2432.13
4600.22
6279.17
7418.32
8045.24
8106
7529.37
6452.82
4982.17
3229.39
1818.95
1177.38
1188.48
1905.28
3561.44
5916.35
8419.57
10979.6
13377.1
15322
16581.7
16922.7
16405.7
15012.8
12848.4
10192.5
7399.69
4691.77
2107.79
663.884
184.381
25.2817
3.96061
3.25772
2.7764
2.31853
1.86215
2.75553
3.54463
3.29964
5.20601
5.69189
7.7143
8.94478
9.46921
10.1633
10.2496
10.5802
11.0192
11.1847
11.263
11.3188
11.3696
11.441
11.1615
10.8199
10.757
10.7546
8.96834
7.38044
26.0112
584.565
3735.67
7045.24
9920.96
12449.9
14562.9
16132.8
17041.3
17211.1
16719.6
36.9367
32.0319
27.8275
23.8883
20.2723
17.026
13.7015
11.4029
8.90702
6.01291
4.71736
3.00559
-0.362342
-0.703167
22.2802
345.828
2512.71
5442.82
7284.28
8128.32
8213.26
7449.12
5551.04
2768.73
896.58
221.751
82.0858
82.9649
189.396
942.659
4195.89
8214.76
11049.8
13565.1
15599.5
16932.4
17283.3
16772.8
15306.1
13050
10268.1
6880.23
2258.12
295
2.4606
4.33333
3.50776
3.7589
3.17391
2.74253
2.33651
1.97397
2.79889
3.51617
3.45302
5.16312
5.68066
7.59643
8.72258
9.31573
9.95764
10.1085
10.4232
10.84
11.008
11.0981
11.1514
11.2034
11.2431
10.9733
10.6473
10.5007
10.3615
8.64822
6.19428
6.85304
37.4634
1232.53
6472.46
10075.4
12681.9
14843
16481.2
17396.2
17553.1
17049.1
36.0319
31.4497
27.3518
23.5193
20.024
16.8517
13.6057
11.2916
8.85731
6.0624
4.6007
2.92203
-0.199383
-2.4369
-2.48959
6.83233
146.439
1232.57
3910
5603.93
5572.52
3897.99
1580.47
225.982
9.19906
8.89543
9.06276
9.67114
14.1225
49.5543
538.343
5154.76
10835
13757.9
15873.7
17291.6
17640.3
17162.1
15602.2
13221.6
9649.2
2825.65
88.9952
-2.36933
2.18532
3.89345
3.34689
3.54898
3.06989
2.70528
2.3631
2.09396
2.85403
3.49239
3.55305
5.12462
5.6744
7.46665
8.51629
9.1579
9.76876
9.96261
10.2648
10.6614
10.825
10.9176
10.9691
11.0152
11.0295
10.7789
10.4653
10.2764
10.003
8.35625
6.0785
5.51637
5.82718
62.866
2483.46
9418.75
12921.9
15146
16823.7
17756.1
17897.6
17388.2
35.1532
30.8762
26.9175
23.1954
19.744
16.6431
13.5014
11.164
8.78599
6.12657
4.57401
2.81079
-0.089219
-2.29041
-3.47234
-5.60716
-4.57113
28.4049
250.303
785.82
919.079
343.109
-1.98648
-0.0864365
1.83873
3.65549
5.04038
5.57188
5.37074
6.05093
25.2756
528.37
6705.2
13618.3
16164.7
17641.8
18061.3
17541.2
15848.9
12732.2
4311.69
93.0259
-3.28315
-2.11468
1.8589
3.45971
3.1747
3.35926
2.96534
2.66223
2.37398
2.17661
2.88242
3.47835
3.63711
5.07895
5.65845
7.3348
8.33064
8.9983
9.58038
9.8127
10.1034
10.4824
10.6505
10.7429
10.7908
10.828
10.8158
10.5743
10.2663
10.0367
9.66889
8.12923
6.093