/*--------------------------------*- C++ -*----------------------------------*\
| =========                 |                                                 |
| \\      /  F ield         | OpenFOAM: The Open Source CFD Toolbox           |
|  \\    /   O peration     | Version:  v1912                                 |
|   \\  /    A nd           | Website:  www.openfoam.com                      |
|    \\/     M anipulation  |                                                 |
\*---------------------------------------------------------------------------*/
FoamFile
{
    version     2.0;
    format      ascii;
    class       volScalarField;
    location    "60";
    object      p;
}
// * * * * * * * * * * * * * * * * * * * * * * * * * * * * * * * * * * * * * //

dimensions      [1 -1 -2 0 0 0 0];


internalField   nonuniform List<scalar> 
14268
(
-79.0385
-79.3871
-79.8675
-80.4353
-81.0157
-81.6028
-82.2713
-83.1728
-83.9125
-84.5227
-85.1231
-85.7417
-86.3429
-86.9131
-87.4794
-88.0569
-88.6594
-89.2786
-89.8989
-90.5177
-91.1342
-91.7506
-92.37
-92.9981
-93.6049
-94.2012
-94.7915
-95.3861
-95.9872
-96.5933
-97.1961
-97.795
-98.3925
-98.9895
-99.5861
-100.183
-100.779
-101.375
-101.972
-102.568
-103.164
-103.76
-104.357
-104.953
-105.549
-106.145
-106.741
-107.337
-107.933
-108.529
-109.125
-109.72
-110.316
-110.911
-111.506
-112.101
-112.697
-113.291
-113.886
-114.481
-115.076
-115.67
-116.264
-116.858
-117.452
-118.046
-118.64
-119.234
-119.827
-120.421
-121.014
-121.607
-122.2
-122.793
-123.385
-123.978
-124.57
-125.163
-125.755
-126.347
-126.939
-127.531
-128.123
-128.715
-129.306
-129.898
-130.489
-131.08
-131.671
-132.262
-132.853
-133.444
-134.035
-134.626
-135.217
-135.807
-136.398
-136.988
-137.578
-138.169
-138.759
-139.349
-139.939
-140.529
-141.119
-141.709
-142.299
-142.889
-143.479
-144.068
-144.658
-145.248
-145.837
-146.427
-147.017
-147.606
-148.195
-148.784
-149.374
-149.963
-150.553
-151.142
-151.731
-152.32
-152.909
-153.499
-154.088
-154.677
-155.266
-155.855
-156.444
-157.033
-157.622
-158.211
-158.8
-159.389
-159.978
-160.566
-161.156
-161.744
-162.333
-162.922
-163.511
-164.1
-164.689
-165.277
-165.866
-166.455
-167.044
-167.633
-79.2155
-79.6291
-80.1406
-80.7265
-81.3232
-81.9042
-82.53
-83.3585
-84.0493
-84.6533
-85.2523
-85.8693
-86.4694
-87.0434
-87.6181
-88.2035
-88.8085
-89.4275
-90.0472
-90.6655
-91.2805
-91.893
-92.5055
-93.1271
-93.7343
-94.331
-94.9212
-95.5146
-96.1119
-96.7154
-97.3181
-97.9169
-98.5145
-99.1114
-99.708
-100.305
-100.901
-101.497
-102.094
-102.69
-103.286
-103.882
-104.479
-105.075
-105.671
-106.267
-106.863
-107.459
-108.055
-108.651
-109.246
-109.842
-110.438
-111.033
-111.628
-112.223
-112.818
-113.413
-114.008
-114.603
-115.197
-115.792
-116.386
-116.98
-117.574
-118.168
-118.762
-119.356
-119.949
-120.542
-121.136
-121.729
-122.322
-122.915
-123.507
-124.1
-124.692
-125.285
-125.877
-126.469
-127.061
-127.653
-128.245
-128.836
-129.428
-130.019
-130.611
-131.202
-131.793
-132.384
-132.975
-133.566
-134.157
-134.748
-135.339
-135.929
-136.52
-137.11
-137.7
-138.291
-138.881
-139.471
-140.061
-140.651
-141.241
-141.831
-142.421
-143.011
-143.601
-144.19
-144.78
-145.37
-145.959
-146.549
-147.139
-147.728
-148.317
-148.906
-149.496
-150.085
-150.675
-151.264
-151.853
-152.442
-153.031
-153.621
-154.21
-154.799
-155.388
-155.977
-156.566
-157.155
-157.744
-158.333
-158.922
-159.51
-160.1
-160.688
-161.278
-161.866
-162.455
-163.044
-163.633
-164.222
-164.81
-165.399
-165.988
-166.577
-167.166
-167.754
-79.3447
-79.7694
-80.2866
-80.8753
-81.4716
-82.0536
-82.6712
-83.4883
-84.1777
-84.7808
-85.3804
-85.9949
-86.5955
-87.1719
-87.7481
-88.3342
-88.9395
-89.5581
-90.1775
-90.7954
-91.4102
-92.0224
-92.6357
-93.2568
-93.8604
-94.4577
-95.0481
-95.6414
-96.2367
-96.8379
-97.44
-98.0389
-98.6364
-99.2334
-99.83
-100.426
-101.023
-101.619
-102.216
-102.812
-103.408
-104.004
-104.601
-105.197
-105.793
-106.389
-106.985
-107.581
-108.177
-108.773
-109.368
-109.964
-110.559
-111.155
-111.75
-112.345
-112.94
-113.535
-114.13
-114.725
-115.319
-115.914
-116.508
-117.102
-117.696
-118.29
-118.884
-119.478
-120.071
-120.664
-121.258
-121.851
-122.444
-123.037
-123.629
-124.222
-124.814
-125.407
-125.999
-126.591
-127.183
-127.775
-128.367
-128.958
-129.55
-130.141
-130.733
-131.324
-131.915
-132.506
-133.097
-133.688
-134.279
-134.87
-135.46
-136.051
-136.642
-137.232
-137.822
-138.413
-139.003
-139.593
-140.183
-140.773
-141.363
-141.953
-142.543
-143.133
-143.723
-144.312
-144.902
-145.491
-146.081
-146.671
-147.26
-147.849
-148.439
-149.028
-149.618
-150.207
-150.797
-151.386
-151.975
-152.564
-153.153
-153.742
-154.332
-154.921
-155.51
-156.099
-156.688
-157.277
-157.866
-158.454
-159.044
-159.632
-160.222
-160.81
-161.4
-161.988
-162.577
-163.166
-163.755
-164.344
-164.932
-165.521
-166.11
-166.699
-167.288
-167.876
-79.5098
-79.9798
-80.5191
-81.1202
-81.7271
-82.3027
-82.8908
-83.6607
-84.3139
-84.9081
-85.5071
-86.1205
-86.7211
-87.301
-87.8822
-88.473
-89.0799
-89.6989
-90.3182
-90.9358
-91.5497
-92.1593
-92.7691
-93.387
-93.9898
-94.5854
-95.1735
-95.7668
-96.3616
-96.9607
-97.562
-98.1608
-98.7584
-99.3553
-99.9519
-100.548
-101.145
-101.741
-102.337
-102.934
-103.53
-104.126
-104.723
-105.319
-105.915
-106.511
-107.107
-107.703
-108.299
-108.895
-109.49
-110.086
-110.681
-111.277
-111.872
-112.467
-113.062
-113.657
-114.252
-114.847
-115.441
-116.036
-116.63
-117.224
-117.818
-118.412
-119.006
-119.599
-120.193
-120.786
-121.38
-121.973
-122.566
-123.158
-123.751
-124.344
-124.936
-125.529
-126.121
-126.713
-127.305
-127.897
-128.489
-129.08
-129.672
-130.263
-130.855
-131.446
-132.037
-132.628
-133.219
-133.81
-134.401
-134.992
-135.582
-136.173
-136.763
-137.354
-137.944
-138.535
-139.125
-139.715
-140.305
-140.895
-141.485
-142.075
-142.665
-143.255
-143.845
-144.434
-145.024
-145.613
-146.203
-146.792
-147.382
-147.971
-148.561
-149.15
-149.74
-150.329
-150.919
-151.507
-152.097
-152.686
-153.275
-153.864
-154.453
-155.043
-155.632
-156.221
-156.81
-157.399
-157.988
-158.576
-159.166
-159.754
-160.344
-160.932
-161.521
-162.11
-162.699
-163.288
-163.877
-164.466
-165.054
-165.643
-166.232
-166.821
-167.409
-167.998
-79.6332
-80.1134
-80.6529
-81.254
-81.8622
-82.4389
-83.0215
-83.7827
-84.4428
-85.0352
-85.6318
-86.245
-86.8442
-87.4245
-88.007
-88.5984
-89.2057
-89.8245
-90.4437
-91.0609
-91.674
-92.2835
-92.8938
-93.5138
-94.1178
-94.7136
-95.3009
-95.8915
-96.4859
-97.0837
-97.6841
-98.2828
-98.8803
-99.4773
-100.074
-100.67
-101.267
-101.863
-102.459
-103.056
-103.652
-104.248
-104.844
-105.441
-106.037
-106.633
-107.229
-107.825
-108.421
-109.017
-109.612
-110.208
-110.803
-111.399
-111.994
-112.589
-113.184
-113.779
-114.374
-114.969
-115.563
-116.158
-116.752
-117.346
-117.94
-118.534
-119.128
-119.721
-120.315
-120.908
-121.501
-122.095
-122.688
-123.28
-123.873
-124.466
-125.058
-125.651
-126.243
-126.835
-127.427
-128.019
-128.611
-129.202
-129.794
-130.385
-130.977
-131.568
-132.159
-132.75
-133.341
-133.932
-134.523
-135.114
-135.704
-136.295
-136.885
-137.476
-138.066
-138.657
-139.247
-139.837
-140.427
-141.017
-141.607
-142.197
-142.787
-143.377
-143.966
-144.556
-145.146
-145.735
-146.325
-146.914
-147.504
-148.093
-148.683
-149.272
-149.862
-150.451
-151.04
-151.629
-152.219
-152.808
-153.397
-153.986
-154.575
-155.164
-155.754
-156.343
-156.932
-157.52
-158.11
-158.698
-159.288
-159.876
-160.466
-161.054
-161.643
-162.232
-162.821
-163.41
-163.999
-164.588
-165.176
-165.765
-166.354
-166.943
-167.531
-168.12
-79.7914
-80.3062
-80.8665
-81.4796
-82.0923
-82.6625
-83.2221
-83.9481
-84.5785
-85.1647
-85.7572
-86.3689
-86.9686
-87.5507
-88.1374
-88.7324
-89.3409
-89.9598
-90.5792
-91.1963
-91.8087
-92.4165
-93.0233
-93.6407
-94.2446
-94.8406
-95.4284
-96.0171
-96.6098
-97.2069
-97.8063
-98.4048
-99.0023
-99.5992
-100.196
-100.792
-101.389
-101.985
-102.581
-103.178
-103.774
-104.37
-104.966
-105.563
-106.159
-106.755
-107.351
-107.947
-108.543
-109.138
-109.734
-110.33
-110.925
-111.521
-112.116
-112.711
-113.306
-113.901
-114.496
-115.091
-115.685
-116.28
-116.874
-117.468
-118.062
-118.656
-119.25
-119.843
-120.437
-121.03
-121.623
-122.216
-122.809
-123.402
-123.995
-124.588
-125.18
-125.772
-126.365
-126.957
-127.549
-128.141
-128.732
-129.324
-129.916
-130.507
-131.099
-131.69
-132.281
-132.872
-133.463
-134.054
-134.645
-135.236
-135.826
-136.417
-137.007
-137.598
-138.188
-138.778
-139.369
-139.959
-140.549
-141.139
-141.729
-142.319
-142.909
-143.499
-144.088
-144.678
-145.268
-145.857
-146.447
-147.036
-147.626
-148.215
-148.805
-149.394
-149.984
-150.573
-151.162
-151.751
-152.341
-152.93
-153.519
-154.108
-154.697
-155.286
-155.876
-156.464
-157.054
-157.642
-158.232
-158.82
-159.41
-159.998
-160.588
-161.176
-161.765
-162.354
-162.943
-163.532
-164.121
-164.709
-165.298
-165.887
-166.476
-167.065
-167.653
-168.242
-79.9137
-80.4414
-81.0022
-81.6137
-82.2279
-82.7985
-83.3527
-84.0694
-84.706
-85.2928
-85.8838
-86.4941
-87.0941
-87.6763
-88.2635
-88.858
-89.4666
-90.0849
-90.7033
-91.3205
-91.9333
-92.541
-93.1471
-93.7655
-94.3703
-94.9668
-95.555
-96.1434
-96.7338
-97.33
-97.9287
-98.5268
-99.1242
-99.7211
-100.318
-100.914
-101.511
-102.107
-102.703
-103.3
-103.896
-104.492
-105.088
-105.685
-106.281
-106.877
-107.473
-108.069
-108.665
-109.26
-109.856
-110.452
-111.047
-111.643
-112.238
-112.833
-113.428
-114.023
-114.618
-115.213
-115.807
-116.402
-116.996
-117.59
-118.184
-118.778
-119.372
-119.965
-120.559
-121.152
-121.745
-122.338
-122.931
-123.524
-124.117
-124.71
-125.302
-125.894
-126.487
-127.079
-127.671
-128.263
-128.854
-129.446
-130.038
-130.629
-131.221
-131.812
-132.403
-132.994
-133.585
-134.176
-134.767
-135.358
-135.948
-136.539
-137.129
-137.72
-138.31
-138.9
-139.491
-140.081
-140.671
-141.261
-141.851
-142.441
-143.031
-143.62
-144.21
-144.8
-145.39
-145.979
-146.569
-147.158
-147.748
-148.337
-148.927
-149.516
-150.106
-150.695
-151.284
-151.873
-152.463
-153.052
-153.641
-154.23
-154.819
-155.408
-155.997
-156.586
-157.176
-157.764
-158.354
-158.942
-159.532
-160.12
-160.71
-161.298
-161.887
-162.476
-163.065
-163.654
-164.242
-164.831
-165.42
-166.009
-166.598
-167.187
-167.775
-168.364
-80.0686
-80.6262
-81.2058
-81.825
-82.4398
-83.0053
-83.5402
-84.2286
-84.8395
-85.4213
-86.0107
-86.6196
-87.2201
-87.8035
-88.392
-88.9877
-89.5975
-90.216
-90.8348
-91.4524
-92.0651
-92.6708
-93.2743
-93.8897
-94.4945
-95.0919
-95.6812
-96.2695
-96.858
-97.4529
-98.0511
-98.6488
-99.2462
-99.8431
-100.44
-101.036
-101.633
-102.229
-102.825
-103.422
-104.018
-104.614
-105.21
-105.806
-106.403
-106.999
-107.595
-108.191
-108.787
-109.382
-109.978
-110.574
-111.169
-111.765
-112.36
-112.955
-113.55
-114.145
-114.74
-115.335
-115.929
-116.523
-117.118
-117.712
-118.306
-118.9
-119.494
-120.087
-120.681
-121.274
-121.867
-122.46
-123.053
-123.646
-124.239
-124.831
-125.424
-126.016
-126.609
-127.201
-127.793
-128.385
-128.976
-129.568
-130.16
-130.751
-131.342
-131.934
-132.525
-133.116
-133.707
-134.298
-134.889
-135.479
-136.07
-136.661
-137.251
-137.842
-138.432
-139.022
-139.612
-140.203
-140.793
-141.383
-141.973
-142.563
-143.153
-143.742
-144.332
-144.922
-145.512
-146.101
-146.691
-147.28
-147.87
-148.459
-149.049
-149.638
-150.228
-150.817
-151.406
-151.995
-152.585
-153.174
-153.763
-154.352
-154.941
-155.53
-156.119
-156.708
-157.298
-157.886
-158.476
-159.064
-159.654
-160.242
-160.831
-161.42
-162.009
-162.598
-163.187
-163.776
-164.364
-164.953
-165.542
-166.131
-166.72
-167.308
-167.897
-168.486
-80.1914
-80.7607
-81.341
-81.964
-82.5786
-83.1432
-83.6723
-84.352
-84.9673
-85.5483
-86.1356
-86.7431
-87.3446
-87.9273
-88.5152
-89.111
-89.7213
-90.3401
-90.9593
-91.5772
-92.1894
-92.7941
-93.3964
-94.0107
-94.6158
-95.2142
-95.8057
-96.3953
-96.9826
-97.5757
-98.1734
-98.7709
-99.3681
-99.965
-100.562
-101.158
-101.755
-102.351
-102.947
-103.543
-104.14
-104.736
-105.332
-105.928
-106.525
-107.121
-107.717
-108.313
-108.909
-109.504
-110.1
-110.696
-111.291
-111.887
-112.482
-113.077
-113.672
-114.267
-114.862
-115.456
-116.051
-116.645
-117.24
-117.834
-118.428
-119.022
-119.616
-120.209
-120.803
-121.396
-121.989
-122.582
-123.175
-123.768
-124.361
-124.953
-125.546
-126.138
-126.73
-127.323
-127.915
-128.506
-129.098
-129.69
-130.282
-130.873
-131.464
-132.056
-132.647
-133.238
-133.829
-134.42
-135.011
-135.601
-136.192
-136.783
-137.373
-137.964
-138.554
-139.144
-139.734
-140.325
-140.915
-141.505
-142.095
-142.685
-143.275
-143.864
-144.454
-145.044
-145.634
-146.223
-146.813
-147.402
-147.992
-148.581
-149.171
-149.76
-150.35
-150.939
-151.528
-152.117
-152.707
-153.296
-153.885
-154.474
-155.063
-155.652
-156.241
-156.83
-157.42
-158.008
-158.598
-159.186
-159.776
-160.364
-160.953
-161.542
-162.131
-162.72
-163.309
-163.897
-164.486
-165.075
-165.664
-166.253
-166.842
-167.43
-168.019
-168.608
-80.3438
-80.9408
-81.534
-82.1606
-82.7795
-83.3367
-83.8499
-84.5049
-85.0987
-85.6758
-86.2585
-86.8654
-87.4686
-88.0522
-88.6424
-89.2421
-89.8545
-90.4738
-91.0939
-91.712
-92.3241
-92.9273
-93.5262
-94.1335
-94.736
-95.3344
-95.9281
-96.5201
-97.1071
-97.6987
-98.2957
-98.8929
-99.4901
-100.087
-100.684
-101.28
-101.876
-102.473
-103.069
-103.665
-104.262
-104.858
-105.454
-106.05
-106.647
-107.243
-107.839
-108.435
-109.03
-109.626
-110.222
-110.818
-111.413
-112.008
-112.604
-113.199
-113.794
-114.389
-114.984
-115.578
-116.173
-116.767
-117.362
-117.956
-118.55
-119.144
-119.737
-120.331
-120.925
-121.518
-122.111
-122.704
-123.297
-123.89
-124.483
-125.075
-125.668
-126.26
-126.852
-127.445
-128.037
-128.628
-129.22
-129.812
-130.403
-130.995
-131.586
-132.178
-132.769
-133.36
-133.951
-134.542
-135.133
-135.723
-136.314
-136.905
-137.495
-138.086
-138.676
-139.266
-139.856
-140.447
-141.037
-141.627
-142.217
-142.807
-143.396
-143.986
-144.576
-145.166
-145.756
-146.345
-146.935
-147.524
-148.114
-148.703
-149.293
-149.882
-150.472
-151.06
-151.65
-152.239
-152.828
-153.418
-154.007
-154.596
-155.185
-155.774
-156.363
-156.952
-157.541
-158.13
-158.72
-159.308
-159.897
-160.486
-161.075
-161.664
-162.253
-162.842
-163.431
-164.019
-164.608
-165.197
-165.786
-166.375
-166.963
-167.552
-168.141
-168.73
-80.4665
-81.0759
-81.6725
-82.3005
-82.9176
-83.4774
-83.9842
-84.6312
-85.2264
-85.8005
-86.3791
-86.9878
-87.592
-88.1766
-88.768
-89.3693
-89.9823
-90.6012
-91.2207
-91.8386
-92.4503
-93.0537
-93.6522
-94.2586
-94.8569
-95.4541
-96.0487
-96.6434
-97.2312
-97.8216
-98.418
-99.015
-99.6121
-100.209
-100.806
-101.402
-101.998
-102.595
-103.191
-103.787
-104.384
-104.98
-105.576
-106.172
-106.768
-107.365
-107.961
-108.557
-109.152
-109.748
-110.344
-110.94
-111.535
-112.13
-112.726
-113.321
-113.916
-114.511
-115.106
-115.7
-116.295
-116.889
-117.484
-118.078
-118.672
-119.266
-119.859
-120.453
-121.046
-121.64
-122.233
-122.826
-123.419
-124.012
-124.605
-125.197
-125.79
-126.382
-126.974
-127.566
-128.158
-128.75
-129.342
-129.934
-130.525
-131.117
-131.708
-132.3
-132.891
-133.482
-134.073
-134.664
-135.254
-135.845
-136.436
-137.027
-137.617
-138.207
-138.798
-139.388
-139.978
-140.569
-141.159
-141.749
-142.339
-142.929
-143.518
-144.108
-144.698
-145.288
-145.877
-146.467
-147.057
-147.646
-148.236
-148.825
-149.415
-150.004
-150.593
-151.182
-151.772
-152.361
-152.95
-153.539
-154.129
-154.718
-155.307
-155.896
-156.485
-157.074
-157.663
-158.252
-158.841
-159.43
-160.019
-160.608
-161.197
-161.786
-162.375
-162.964
-163.553
-164.141
-164.73
-165.319
-165.908
-166.497
-167.085
-167.674
-168.263
-168.852
-80.6169
-81.2508
-81.8583
-82.5066
-83.1268
-83.6671
-84.1551
-84.7766
-85.3529
-85.9221
-86.4994
-87.1116
-87.7166
-88.3029
-88.8968
-89.4998
-90.1131
-90.7328
-91.3528
-91.9708
-92.5824
-93.1847
-93.7821
-94.3862
-94.9809
-95.5747
-96.1681
-96.765
-97.3545
-97.9444
-98.5401
-99.137
-99.734
-100.331
-100.927
-101.524
-102.12
-102.717
-103.313
-103.909
-104.506
-105.102
-105.698
-106.294
-106.89
-107.486
-108.083
-108.678
-109.274
-109.87
-110.466
-111.061
-111.657
-112.252
-112.848
-113.443
-114.038
-114.633
-115.228
-115.822
-116.417
-117.011
-117.606
-118.2
-118.794
-119.388
-119.981
-120.575
-121.168
-121.762
-122.355
-122.948
-123.541
-124.134
-124.727
-125.319
-125.912
-126.504
-127.096
-127.688
-128.28
-128.872
-129.464
-130.056
-130.647
-131.239
-131.83
-132.421
-133.013
-133.604
-134.195
-134.786
-135.376
-135.967
-136.558
-137.148
-137.739
-138.329
-138.92
-139.51
-140.1
-140.69
-141.28
-141.871
-142.46
-143.05
-143.64
-144.23
-144.82
-145.41
-145.999
-146.589
-147.179
-147.768
-148.358
-148.947
-149.537
-150.126
-150.715
-151.304
-151.894
-152.483
-153.072
-153.661
-154.251
-154.84
-155.429
-156.018
-156.607
-157.196
-157.785
-158.374
-158.963
-159.552
-160.141
-160.73
-161.319
-161.908
-162.497
-163.085
-163.674
-164.263
-164.852
-165.441
-166.03
-166.619
-167.207
-167.796
-168.385
-168.974
-80.7397
-81.3871
-82.0034
-82.6775
-83.3065
-83.8214
-84.2908
-84.9049
-85.4734
-86.0408
-86.6213
-87.2364
-87.8416
-88.4283
-89.0229
-89.6264
-90.2401
-90.8595
-91.479
-92.0969
-92.7081
-93.3104
-93.9074
-94.5129
-95.1072
-95.6982
-96.2877
-96.8851
-97.4768
-98.0671
-98.6623
-99.259
-99.856
-100.453
-101.049
-101.646
-102.242
-102.839
-103.435
-104.031
-104.628
-105.224
-105.82
-106.416
-107.012
-107.608
-108.204
-108.8
-109.396
-109.992
-110.588
-111.183
-111.779
-112.374
-112.97
-113.565
-114.16
-114.755
-115.35
-115.944
-116.539
-117.133
-117.727
-118.322
-118.916
-119.51
-120.103
-120.697
-121.29
-121.884
-122.477
-123.07
-123.663
-124.256
-124.849
-125.441
-126.034
-126.626
-127.218
-127.81
-128.402
-128.994
-129.586
-130.178
-130.769
-131.361
-131.952
-132.543
-133.135
-133.726
-134.317
-134.908
-135.498
-136.089
-136.68
-137.27
-137.861
-138.451
-139.042
-139.632
-140.222
-140.812
-141.402
-141.993
-142.582
-143.172
-143.762
-144.352
-144.942
-145.531
-146.121
-146.711
-147.301
-147.89
-148.48
-149.069
-149.659
-150.247
-150.837
-151.426
-152.016
-152.605
-153.194
-153.783
-154.373
-154.962
-155.551
-156.14
-156.729
-157.318
-157.907
-158.496
-159.085
-159.674
-160.263
-160.852
-161.441
-162.03
-162.619
-163.207
-163.796
-164.385
-164.974
-165.563
-166.152
-166.741
-167.329
-167.918
-168.507
-169.096
-80.8882
-81.5599
-82.193
-82.8531
-83.4693
-84.0018
-84.4571
-85.0485
-85.5976
-86.1601
-86.7454
-87.3615
-87.9666
-88.5545
-89.1509
-89.7557
-90.3697
-90.9895
-91.6096
-92.2276
-92.8387
-93.4396
-94.0356
-94.6397
-95.2337
-95.8246
-96.4097
-97.005
-97.598
-98.1894
-98.7844
-99.381
-99.978
-100.575
-101.171
-101.768
-102.364
-102.961
-103.557
-104.153
-104.749
-105.346
-105.942
-106.538
-107.134
-107.73
-108.326
-108.922
-109.518
-110.114
-110.71
-111.305
-111.901
-112.496
-113.092
-113.687
-114.282
-114.877
-115.471
-116.066
-116.661
-117.255
-117.849
-118.444
-119.038
-119.631
-120.225
-120.819
-121.412
-122.006
-122.599
-123.192
-123.785
-124.378
-124.97
-125.563
-126.156
-126.748
-127.34
-127.932
-128.524
-129.116
-129.708
-130.3
-130.891
-131.483
-132.074
-132.665
-133.256
-133.848
-134.439
-135.029
-135.62
-136.211
-136.802
-137.392
-137.983
-138.573
-139.164
-139.754
-140.344
-140.934
-141.524
-142.114
-142.704
-143.294
-143.884
-144.474
-145.064
-145.653
-146.243
-146.833
-147.423
-148.012
-148.602
-149.191
-149.781
-150.369
-150.959
-151.548
-152.138
-152.727
-153.316
-153.905
-154.494
-155.084
-155.673
-156.262
-156.851
-157.44
-158.029
-158.618
-159.207
-159.796
-160.385
-160.974
-161.563
-162.151
-162.741
-163.329
-163.918
-164.507
-165.096
-165.685
-166.274
-166.862
-167.451
-168.04
-168.629
-169.218
-81.0733
-81.7717
-82.4257
-82.973
-83.5839
-84.1969
-84.6668
-85.2461
-85.7868
-86.3417
-86.9333
-87.5484
-88.1525
-88.7412
-89.3392
-89.9448
-90.5592
-91.1788
-91.7983
-92.4161
-93.027
-93.6272
-94.2224
-94.828
-95.4223
-96.0138
-96.5964
-97.1857
-97.7791
-98.3723
-98.9674
-99.5639
-100.161
-100.758
-101.354
-101.951
-102.547
-103.143
-103.74
-104.336
-104.932
-105.529
-106.125
-106.721
-107.317
-107.913
-108.509
-109.105
-109.701
-110.297
-110.893
-111.488
-112.084
-112.679
-113.274
-113.87
-114.465
-115.06
-115.654
-116.249
-116.844
-117.438
-118.032
-118.626
-119.22
-119.814
-120.408
-121.002
-121.595
-122.189
-122.782
-123.375
-123.968
-124.561
-125.153
-125.746
-126.338
-126.931
-127.523
-128.115
-128.707
-129.299
-129.891
-130.483
-131.074
-131.666
-132.257
-132.848
-133.439
-134.03
-134.621
-135.212
-135.803
-136.394
-136.985
-137.575
-138.166
-138.756
-139.346
-139.937
-140.527
-141.117
-141.707
-142.297
-142.887
-143.477
-144.067
-144.657
-145.247
-145.836
-146.426
-147.016
-147.605
-148.195
-148.785
-149.374
-149.963
-150.552
-151.142
-151.731
-152.321
-152.91
-153.499
-154.088
-154.677
-155.266
-155.856
-156.445
-157.034
-157.623
-158.212
-158.801
-159.39
-159.979
-160.568
-161.156
-161.746
-162.334
-162.924
-163.512
-164.101
-164.69
-165.279
-165.868
-166.456
-167.045
-167.634
-168.223
-168.812
-169.4
-81.3659
-82.1043
-82.7025
-83.1881
-83.7986
-84.4776
-84.973
-85.5263
-86.0437
-86.5928
-87.1836
-87.7954
-88.3997
-88.9917
-89.5934
-90.2005
-90.8158
-91.4361
-92.0565
-92.6747
-93.2854
-93.8839
-94.4765
-95.0774
-95.6711
-96.2636
-96.846
-97.4312
-98.0219
-98.6151
-99.2111
-99.8078
-100.405
-101.002
-101.598
-102.195
-102.791
-103.387
-103.984
-104.58
-105.176
-105.773
-106.369
-106.965
-107.561
-108.157
-108.753
-109.349
-109.945
-110.541
-111.137
-111.732
-112.328
-112.923
-113.518
-114.113
-114.709
-115.303
-115.898
-116.493
-117.087
-117.682
-118.276
-118.87
-119.464
-120.058
-120.652
-121.246
-121.839
-122.432
-123.026
-123.619
-124.212
-124.805
-125.397
-125.99
-126.582
-127.175
-127.767
-128.359
-128.951
-129.543
-130.135
-130.726
-131.318
-131.909
-132.501
-133.092
-133.683
-134.274
-134.865
-135.456
-136.047
-136.638
-137.228
-137.819
-138.41
-139
-139.59
-140.181
-140.771
-141.361
-141.951
-142.541
-143.131
-143.721
-144.311
-144.901
-145.491
-146.08
-146.67
-147.259
-147.849
-148.438
-149.028
-149.617
-150.207
-150.796
-151.386
-151.975
-152.565
-153.153
-153.743
-154.332
-154.921
-155.51
-156.099
-156.689
-157.278
-157.867
-158.456
-159.045
-159.634
-160.222
-160.812
-161.4
-161.99
-162.578
-163.167
-163.756
-164.345
-164.934
-165.523
-166.112
-166.7
-167.289
-167.878
-168.467
-169.055
-169.644
-81.6108
-82.3772
-82.8687
-83.37
-83.9798
-84.7006
-85.2302
-85.7859
-86.2979
-86.8446
-87.4314
-88.041
-88.6464
-89.241
-89.8436
-90.4509
-91.0666
-91.687
-92.3069
-92.925
-93.5352
-94.1335
-94.7242
-95.3243
-95.9163
-96.5102
-97.094
-97.6775
-98.2661
-98.8588
-99.455
-100.052
-100.649
-101.246
-101.842
-102.439
-103.035
-103.631
-104.228
-104.824
-105.42
-106.016
-106.613
-107.209
-107.805
-108.401
-108.997
-109.593
-110.189
-110.785
-111.38
-111.976
-112.572
-113.167
-113.762
-114.357
-114.952
-115.547
-116.142
-116.737
-117.331
-117.926
-118.52
-119.114
-119.708
-120.302
-120.896
-121.489
-122.083
-122.676
-123.27
-123.863
-124.456
-125.048
-125.641
-126.234
-126.826
-127.419
-128.011
-128.603
-129.195
-129.787
-130.379
-130.97
-131.562
-132.153
-132.745
-133.336
-133.927
-134.518
-135.109
-135.7
-136.291
-136.882
-137.472
-138.063
-138.653
-139.244
-139.834
-140.425
-141.015
-141.605
-142.195
-142.785
-143.375
-143.965
-144.555
-145.145
-145.734
-146.324
-146.914
-147.503
-148.093
-148.682
-149.272
-149.861
-150.451
-151.04
-151.63
-152.219
-152.808
-153.397
-153.987
-154.576
-155.165
-155.754
-156.343
-156.932
-157.522
-158.11
-158.7
-159.288
-159.878
-160.466
-161.056
-161.644
-162.234
-162.822
-163.411
-164
-164.589
-165.178
-165.767
-166.355
-166.944
-167.533
-168.122
-168.711
-169.299
-169.888
-81.8964
-82.6491
-83.0734
-83.5816
-84.1932
-84.9218
-85.5072
-86.0541
-86.5527
-87.094
-87.6772
-88.2869
-88.8949
-89.4922
-90.0965
-90.7048
-91.3213
-91.9421
-92.563
-93.1816
-93.7913
-94.3882
-94.9781
-95.5727
-96.1601
-96.7543
-97.3404
-97.9234
-98.5108
-99.103
-99.6991
-100.296
-100.893
-101.489
-102.086
-102.682
-103.279
-103.875
-104.471
-105.068
-105.664
-106.26
-106.857
-107.453
-108.049
-108.645
-109.241
-109.837
-110.433
-111.029
-111.624
-112.22
-112.815
-113.411
-114.006
-114.601
-115.196
-115.791
-116.386
-116.981
-117.575
-118.17
-118.764
-119.358
-119.952
-120.546
-121.14
-121.733
-122.327
-122.92
-123.513
-124.106
-124.699
-125.292
-125.885
-126.478
-127.07
-127.662
-128.255
-128.847
-129.439
-130.031
-130.622
-131.214
-131.806
-132.397
-132.989
-133.58
-134.171
-134.762
-135.353
-135.944
-136.535
-137.126
-137.716
-138.307
-138.897
-139.488
-140.078
-140.668
-141.259
-141.849
-142.439
-143.029
-143.619
-144.209
-144.799
-145.388
-145.978
-146.568
-147.158
-147.747
-148.337
-148.926
-149.516
-150.105
-150.695
-151.284
-151.874
-152.463
-153.052
-153.641
-154.231
-154.82
-155.409
-155.998
-156.587
-157.176
-157.765
-158.354
-158.944
-159.532
-160.122
-160.71
-161.3
-161.888
-162.477
-163.066
-163.655
-164.244
-164.833
-165.422
-166.01
-166.599
-167.188
-167.777
-168.366
-168.954
-169.543
-170.132
-82.1314
-82.8065
-83.2564
-83.7882
-84.3949
-85.1089
-85.7402
-86.3038
-86.8044
-87.3409
-87.9232
-88.534
-89.1433
-89.7411
-90.3456
-90.9541
-91.5709
-92.1919
-92.812
-93.4307
-94.0402
-94.6368
-95.2252
-95.8218
-96.4047
-96.9973
-97.5851
-98.1687
-98.7553
-99.3472
-99.9432
-100.54
-101.137
-101.733
-102.33
-102.926
-103.523
-104.119
-104.715
-105.312
-105.908
-106.504
-107.1
-107.697
-108.293
-108.889
-109.485
-110.081
-110.677
-111.272
-111.868
-112.464
-113.059
-113.655
-114.25
-114.845
-115.44
-116.035
-116.63
-117.225
-117.819
-118.414
-119.008
-119.602
-120.196
-120.79
-121.384
-121.977
-122.571
-123.164
-123.757
-124.35
-124.943
-125.536
-126.129
-126.721
-127.314
-127.906
-128.499
-129.091
-129.683
-130.275
-130.866
-131.458
-132.05
-132.641
-133.232
-133.824
-134.415
-135.006
-135.597
-136.188
-136.779
-137.369
-137.96
-138.551
-139.141
-139.732
-140.322
-140.912
-141.502
-142.093
-142.683
-143.273
-143.863
-144.453
-145.042
-145.632
-146.222
-146.812
-147.402
-147.991
-148.581
-149.17
-149.76
-150.349
-150.939
-151.528
-152.118
-152.706
-153.296
-153.885
-154.474
-155.064
-155.653
-156.242
-156.831
-157.42
-158.009
-158.598
-159.187
-159.776
-160.366
-160.954
-161.543
-162.132
-162.721
-163.31
-163.899
-164.488
-165.077
-165.665
-166.254
-166.843
-167.432
-168.021
-168.609
-169.198
-169.787
-170.376
-82.3942
-82.9793
-83.4547
-84.007
-84.6162
-85.3179
-85.9885
-86.555
-87.0557
-87.5885
-88.1707
-88.782
-89.3921
-89.9913
-90.5975
-91.2069
-91.8243
-92.4455
-93.0659
-93.6843
-94.2939
-94.8895
-95.4778
-96.0721
-96.6522
-97.2403
-97.8291
-98.4134
-98.9996
-99.5914
-100.187
-100.784
-101.381
-101.977
-102.574
-103.17
-103.767
-104.363
-104.959
-105.556
-106.152
-106.748
-107.344
-107.94
-108.537
-109.133
-109.729
-110.325
-110.921
-111.516
-112.112
-112.708
-113.303
-113.899
-114.494
-115.089
-115.684
-116.279
-116.874
-117.468
-118.063
-118.657
-119.252
-119.846
-120.44
-121.034
-121.627
-122.221
-122.815
-123.408
-124.001
-124.594
-125.187
-125.78
-126.373
-126.965
-127.558
-128.15
-128.742
-129.334
-129.926
-130.518
-131.11
-131.702
-132.293
-132.885
-133.476
-134.068
-134.659
-135.25
-135.841
-136.432
-137.022
-137.613
-138.204
-138.794
-139.385
-139.975
-140.566
-141.156
-141.746
-142.336
-142.926
-143.517
-144.107
-144.696
-145.286
-145.876
-146.466
-147.056
-147.645
-148.235
-148.825
-149.414
-150.004
-150.593
-151.183
-151.772
-152.361
-152.95
-153.54
-154.129
-154.718
-155.307
-155.897
-156.486
-157.075
-157.664
-158.253
-158.842
-159.431
-160.02
-160.609
-161.198
-161.787
-162.376
-162.965
-163.554
-164.143
-164.731
-165.32
-165.909
-166.498
-167.087
-167.676
-168.265
-168.853
-169.442
-170.031
-170.62
-82.6025
-83.1268
-83.6359
-84.2076
-84.8227
-85.5143
-86.2022
-86.7904
-87.3048
-87.8364
-88.4183
-89.0293
-89.6392
-90.239
-90.8457
-91.4553
-92.0729
-92.6943
-93.3138
-93.9313
-94.5396
-95.1358
-95.724
-96.3212
-96.9014
-97.4846
-98.0727
-98.6576
-99.2437
-99.8355
-100.431
-101.028
-101.625
-102.221
-102.818
-103.414
-104.011
-104.607
-105.203
-105.799
-106.396
-106.992
-107.588
-108.184
-108.781
-109.377
-109.973
-110.569
-111.164
-111.76
-112.356
-112.952
-113.547
-114.142
-114.738
-115.333
-115.928
-116.523
-117.118
-117.712
-118.307
-118.901
-119.496
-120.09
-120.684
-121.278
-121.871
-122.465
-123.058
-123.652
-124.245
-124.838
-125.431
-126.024
-126.617
-127.209
-127.802
-128.394
-128.986
-129.578
-130.17
-130.762
-131.354
-131.946
-132.537
-133.129
-133.72
-134.311
-134.903
-135.494
-136.085
-136.676
-137.266
-137.857
-138.448
-139.038
-139.629
-140.219
-140.81
-141.4
-141.99
-142.58
-143.17
-143.76
-144.35
-144.94
-145.53
-146.12
-146.71
-147.299
-147.889
-148.479
-149.069
-149.658
-150.248
-150.837
-151.427
-152.015
-152.605
-153.194
-153.784
-154.373
-154.962
-155.551
-156.14
-156.73
-157.319
-157.908
-158.497
-159.086
-159.675
-160.264
-160.853
-161.442
-162.031
-162.62
-163.209
-163.797
-164.387
-164.975
-165.564
-166.153
-166.742
-167.331
-167.92
-168.508
-169.097
-169.686
-170.275
-170.864
-83.4882
-83.8894
-84.3749
-84.9644
-85.5755
-86.2659
-86.9924
-87.6247
-88.1716
-88.6939
-89.2699
-89.8735
-90.4804
-91.0802
-91.6865
-92.2945
-92.9098
-93.5273
-94.1389
-94.7476
-95.3472
-95.9377
-96.5261
-97.1126
-97.6881
-98.254
-98.8303
-99.4121
-99.9937
-100.58
-101.171
-101.762
-102.353
-102.945
-103.537
-104.128
-104.719
-105.31
-105.902
-106.493
-107.084
-107.675
-108.267
-108.858
-109.449
-110.04
-110.631
-111.222
-111.813
-112.403
-112.994
-113.585
-114.175
-114.765
-115.356
-115.946
-116.536
-117.126
-117.715
-118.305
-118.894
-119.484
-120.073
-120.662
-121.251
-121.84
-122.429
-123.017
-123.606
-124.194
-124.782
-125.37
-125.958
-126.546
-127.134
-127.721
-128.308
-128.896
-129.483
-130.07
-130.657
-131.244
-131.831
-132.417
-133.004
-133.59
-134.176
-134.763
-135.349
-135.935
-136.521
-137.107
-137.692
-138.278
-138.864
-139.449
-140.035
-140.62
-141.205
-141.791
-142.376
-142.961
-143.546
-144.131
-144.716
-145.301
-145.885
-146.47
-147.055
-147.64
-148.224
-148.809
-149.393
-149.978
-150.562
-151.146
-151.731
-152.315
-152.9
-153.484
-154.068
-154.652
-155.236
-155.82
-156.404
-156.988
-157.572
-158.156
-158.74
-159.324