/*--------------------------------*- C++ -*----------------------------------*\
| =========                 |                                                 |
| \\      /  F ield         | OpenFOAM: The Open Source CFD Toolbox           |
|  \\    /   O peration     | Version:  v1912                                 |
|   \\  /    A nd           | Website:  www.openfoam.com                      |
|    \\/     M anipulation  |                                                 |
\*---------------------------------------------------------------------------*/
FoamFile
{
    version     2.0;
    format      ascii;
    class       surfaceScalarField;
    location    "40";
    object      alphaPhi0.water;
}
// * * * * * * * * * * * * * * * * * * * * * * * * * * * * * * * * * * * * * //

dimensions      [0 3 -1 0 0 0 0];
oriented        oriented;


internalField   nonuniform List<scalar> 
28285
(
-7.465e-06
2.58527e-06
-1.0174e-05
2.70897e-06
-1.28977e-05
2.72377e-06
-1.55978e-05
2.70001e-06
-1.83638e-05
2.76606e-06
-2.1174e-05
2.81023e-06
-2.43767e-05
3.20263e-06
3.15076e-06
-2.75274e-05
-7.47058e-06
5.16774e-06
-1.01768e-05
5.41518e-06
-1.28979e-05
5.44492e-06
-1.55955e-05
5.39762e-06
-1.83595e-05
5.53006e-06
-2.11683e-05
5.61896e-06
-2.43722e-05
6.4066e-06
6.30677e-06
-2.75282e-05
-7.48753e-06
7.75016e-06
-1.01937e-05
8.12132e-06
-1.29146e-05
8.16585e-06
-1.56118e-05
8.09487e-06
-1.83754e-05
8.29364e-06
-2.11838e-05
8.42732e-06
-2.43855e-05
9.60829e-06
9.45929e-06
-2.7538e-05
-7.49698e-06
1.03328e-05
-1.02034e-05
1.08277e-05
-1.29246e-05
1.0887e-05
-1.56221e-05
1.07924e-05
-1.83859e-05
1.10575e-05
-2.11948e-05
1.12362e-05
-2.43938e-05
1.28073e-05
1.26058e-05
-2.75403e-05
-7.50139e-06
1.29156e-05
-1.0208e-05
1.35343e-05
-1.29292e-05
1.36083e-05
-1.56268e-05
1.349e-05
-1.83908e-05
1.38215e-05
-2.12e-05
1.40453e-05
-2.4396e-05
1.60033e-05
1.57482e-05
-2.75384e-05
-7.50471e-06
1.54984e-05
-1.02114e-05
1.6241e-05
-1.29327e-05
1.63296e-05
-1.56304e-05
1.61876e-05
-1.83945e-05
1.65856e-05
-2.12037e-05
1.68545e-05
-2.43962e-05
1.91958e-05
1.88866e-05
-2.75346e-05
-7.50736e-06
1.80813e-05
-1.02142e-05
1.89478e-05
-1.29355e-05
1.9051e-05
-1.56332e-05
1.88853e-05
-1.83973e-05
1.93497e-05
-2.12065e-05
1.96637e-05
-2.43955e-05
2.23848e-05
2.20215e-05
-2.75304e-05
-7.51019e-06
2.06643e-05
-1.02171e-05
2.16547e-05
-1.29385e-05
2.17723e-05
-1.56362e-05
2.1583e-05
-1.84003e-05
2.21139e-05
-2.12094e-05
2.24729e-05
-2.43948e-05
2.55702e-05
2.51529e-05
-2.75261e-05
-7.51281e-06
2.32474e-05
-1.02198e-05
2.43618e-05
-1.29412e-05
2.44938e-05
-1.56389e-05
2.42807e-05
-1.84029e-05
2.48779e-05
-2.12121e-05
2.5282e-05
-2.4394e-05
2.87521e-05
2.82808e-05
-2.75219e-05
-7.51554e-06
2.58305e-05
-1.02227e-05
2.70689e-05
-1.29441e-05
2.72152e-05
-1.56417e-05
2.69783e-05
-1.84058e-05
2.7642e-05
-2.12149e-05
2.80911e-05
-2.43932e-05
3.19304e-05
3.14052e-05
-2.75176e-05
-7.51809e-06
2.84138e-05
-1.02254e-05
2.97762e-05
-1.29469e-05
2.99367e-05
-1.56445e-05
2.96759e-05
-1.84085e-05
3.04059e-05
-2.12175e-05
3.09001e-05
-2.43926e-05
3.51055e-05
3.45263e-05
-2.75137e-05
-7.51972e-06
3.09971e-05
-1.02273e-05
3.24838e-05
-1.2949e-05
3.26585e-05
-1.5647e-05
3.23739e-05
-1.84116e-05
3.31705e-05
-2.1221e-05
3.37096e-05
-2.43923e-05
3.82768e-05
3.76436e-05
-2.75097e-05
-7.51891e-06
3.35814e-05
-1.02282e-05
3.51931e-05
-1.29524e-05
3.53827e-05
-1.56537e-05
3.50752e-05
-1.84232e-05
3.59399e-05
-2.1239e-05
3.65254e-05
-2.44053e-05
4.14431e-05
4.07536e-05
-2.75153e-05
-7.57503e-06
3.61844e-05
-1.03087e-05
3.79267e-05
-1.3065e-05
3.81389e-05
-1.58089e-05
3.78192e-05
-1.86372e-05
3.87682e-05
-2.15358e-05
3.9424e-05
-2.46725e-05
4.45798e-05
4.37276e-05
-2.76464e-05
-4.53005e-05
4.90187e-05
-5.58208e-05
4.8447e-05
-6.34053e-05
4.57234e-05
-6.7701e-05
4.21149e-05
-6.92747e-05
4.03419e-05
-6.78948e-05
3.80441e-05
-6.36609e-05
4.03459e-05
3.5399e-05
-5.53324e-05
-4.53016e-05
6.17227e-05
-5.56982e-05
5.88436e-05
-6.31401e-05
5.31654e-05
-6.72049e-05
4.61797e-05
-6.85002e-05
4.16372e-05
-6.67163e-05
3.62602e-05
-6.2647e-05
3.62765e-05
2.76923e-05
-5.49402e-05
-4.52394e-05
7.44241e-05
-5.55797e-05
6.91839e-05
-6.2969e-05
6.05547e-05
-6.6997e-05
5.02076e-05
-6.828e-05
4.29202e-05
-6.64454e-05
3.44257e-05
-6.23752e-05
3.22063e-05
2.01441e-05
-5.4827e-05
-4.54356e-05
8.70839e-05
-5.58196e-05
7.95679e-05
-6.32365e-05
6.79716e-05
-6.72516e-05
5.42227e-05
-6.85028e-05
4.41714e-05
-6.66235e-05
3.25464e-05
-6.24639e-05
2.80467e-05
1.2512e-05
-5.48318e-05
-4.54795e-05
9.97588e-05
-5.57833e-05
8.98717e-05
-6.31328e-05
7.53212e-05
-6.71207e-05
5.82106e-05
-6.83619e-05
4.54127e-05
-6.64921e-05
3.06765e-05
-6.23698e-05
2.39244e-05
4.93914e-06
-5.47969e-05
-4.55575e-05
0.000112377
-5.59473e-05
0.000100261
-6.33604e-05
8.27343e-05
-6.73491e-05
6.21993e-05
-6.8569e-05
4.66325e-05
-6.66584e-05
2.8766e-05
-6.245e-05
1.9716e-05
-2.70905e-06
-5.48018e-05
-4.56926e-05
0.000125016
-5.59549e-05
0.000110524
-6.32652e-05
9.00446e-05
-6.72076e-05
6.61416e-05
-6.842e-05
4.7845e-05
-6.65252e-05
2.68711e-05
-6.23585e-05
1.55493e-05
-1.02978e-05
-5.47698e-05
-0.000208578
0.000194241
-0.000282166
0.000184111
-0.000356783
0.000164662
-0.00043007
0.000139429
-0.000504922
0.000122697
-0.000580997
0.000102946
-0.000663845
9.83965e-05
7.14374e-05
-0.00074558
-0.000212648
0.000266529
-0.000287609
0.000259073
-0.000360901
0.000237954
-0.000433153
0.00021168
-0.000507353
0.000196897
-0.000583305
0.000178899
-0.000667506
0.000182597
0.000156364
-0.000752433
-0.000210913
0.000334552
-0.000284929
0.000333089
-0.000360625
0.00031365
-0.000433858
0.000284913
-0.000507481
0.00027052
-0.000583155
0.000254574
-0.000663346
0.000262788
0.000234863
-0.000741844
-0.000215905
0.000407926
-0.00029235
0.000409534
-0.000365592
0.000386892
-0.000436937
0.000356258
-0.000510444
0.000344027
-0.000586956
0.000331085
-0.000671696
0.000347528
0.000322622
-0.000759455
-0.000212116
0.000474377
-0.000287107
0.000484525
-0.000364423
0.000464208
-0.000436903
0.000428737
-0.000508259
0.000415383
-0.000582707
0.000405534
-0.000662249
0.00042707
0.000402649
-0.000742276
-0.000218339
0.000548893
-0.000297063
0.000563249
-0.000370442
0.000537587
-0.000439932
0.000498228
-0.000512018
0.000487469
-0.000589142
0.000482658
-0.000678034
0.000515962
0.000497535
-0.00077292
-0.000212062
0.000613778
-0.000289213
0.0006404
-0.000369231
0.000617605
-0.000440465
0.000569461
-0.000508314
0.000555319
-0.000580717
0.000555061
-0.000660402
0.000595648
0.000583647
-0.000746514
-0.000219425
0.000689258
-0.000301591
0.000722566
-0.00037569
0.000691703
-0.000442377
0.000636149
-0.000511091
0.000624032
-0.000588397
0.000632366
-0.000686954
0.000694205
0.000691235
-0.000794542
-0.000210305
0.00075336
-0.000291817
0.000804078
-0.000375945
0.000775832
-0.000445451
0.000705655
-0.000508107
0.000686688
-0.000576801
0.00070106
-0.000656239
0.000773642
0.000788907
-0.000753911
-0.000218064
0.000829799
-0.000306103
0.000892117
-0.000382247
0.000851975
-0.000444474
0.000767882
-0.000506557
0.000748772
-0.000581481
0.000775984
-0.000697598
0.00088976
0.000918584
-0.000827275
-0.000203901
0.000893385
-0.000290298
0.000978514
-0.000381855
0.000943532
-0.000453879
0.000839906
-0.000512897
0.000807789
-0.000574056
0.000837143
-0.000645639
0.000961342
0.00103307
-0.000760126
-0.000276852
0.000981061
-0.000353777
0.00105544
-0.000403252
0.000993007
-0.000441168
0.000877822
-0.000480881
0.000847503
-0.000553825
0.000910088
-0.000680566
0.00108808
0.00118373
-0.000831223
-0.00123766
0.000982908
-0.00113611
0.000953891
-0.000987148
0.000844047
-0.000884647
0.000775321
-0.000840976
0.000803832
-0.000860305
0.000929416
-0.000902146
0.00112992
0.00121489
-0.00093331
-0.00992573
0.000385117
-0.00924544
0.000276702
-0.00856555
0.000175378
-0.00784896
8.47036e-05
-0.00700514
-1.48526e-06
-0.00592134
-8.46162e-05
-0.00451666
-0.000180156
-0.000333202
-0.00285536
0.00310501
-3.91227e-05
0.00345588
-3.97457e-05
0.00374562
-3.87248e-05
0.00397332
-3.58937e-05
0.00414189
-3.19431e-05
0.00424424
-2.82274e-05
0.00427085
-2.40233e-05
-1.00939e-05
0.00414645
0.00143127
2.20627e-28
0.00138099
2.20288e-28
0.00133053
-7.45759e-26
0.00128352
-3.90933e-23
0.00124174
-2.02145e-22
0.00120556
-1.97377e-22
0.00117524
-1.30822e-22
-5.58935e-22
0.00116193
-2.76851e-27
4.84974e-32
-2.79927e-27
-9.11131e-32
-5.31873e-45
-7.73751e-26
1.61281e-44
-3.90933e-23
2.05638e-42
-2.02145e-22
-1.67513e-41
-1.97377e-22
-6.75934e-42
-1.30822e-22
-5.58957e-22
2.15774e-26
-1.00803e-32
-1.25465e-33
1.54825e-32
-8.5544e-32
2.92022e-26
-2.66431e-25
1.18112e-23
-3.93153e-23
5.53263e-23
-1.52761e-22
5.64176e-23
-1.32222e-22
3.42826e-23
-2.87631e-23
-2.48695e-22
3.98194e-22
3.0192e-34
-3.1978e-33
9.01434e-30
-1.29481e-28
2.9415e-25
-5.85015e-25
3.8356e-23
-1.31003e-23
7.58003e-23
-3.72857e-23
1.00156e-22
-2.31616e-23
8.95315e-24
-4.92696e-27
-2.55922e-23
5.0357e-22
-1.00655e-33
-7.89233e-33
-2.01252e-29
-2.31163e-28
-4.48819e-25
-1.53268e-27
-3.16176e-24
-3.40948e-30
-1.22216e-23
-4.20518e-32
-7.8129e-28
-3.19149e-30
-7.91937e-28
-7.8272e-31
-4.29403e-32
-6.21645e-25
1.5839e-34
-3.83237e-34
6.60941e-30
-3.63626e-33
-1.02011e-32
-3.32584e-33
6.14659e-32
-2.17691e-33
1.98981e-32
-2.24015e-34
2.93868e-31
-6.14593e-38
4.38701e-32
-1.49171e-38
-1.15428e-37
9.30012e-34
-5.98447e-36
-3.54974e-37
-1.01639e-34
-9.32698e-37
-1.46528e-34
-1.67467e-36
-4.58809e-35
-8.15684e-37
-6.55748e-39
-9.95422e-36
-2.07825e-40
-3.31478e-37
-6.06528e-39
-1.38831e-40
3.11856e-40
1.76392e-41
6.85083e-39
-2.32986e-40
2.13123e-38
-3.11166e-40
3.7125e-38
-2.55472e-42
3.45065e-38
-2.82205e-44
5.57446e-37
-9.37827e-40
2.7955e-40
-4.79417e-39
0
1.4072e-40
4.00318e-40
-2.73209e-41
-2.31986e-42
-2.48106e-44
-3.68199e-44
-1.08588e-45
-4.14559e-63
2.30823e-45
-4.83957e-44
2.01752e-44
-9.03308e-41
2.09336e-43
1.10193e-42
5.44585e-43
3.16527e-41
1.24315e-41
6.55589e-41
9.58962e-41
3.06815e-46
1.50042e-47
1.06967e-47
2.25901e-46
-9.47618e-47
3.09756e-45
-1.56544e-45
3.03891e-44
-2.23193e-44
2.77035e-43
-9.12742e-44
1.47857e-42
-1.20067e-42
8.43103e-42
2.80418e-41
-4.50834e-42
5.32409e-49
3.27695e-49
4.71837e-47
4.23595e-48
9.02807e-46
5.35365e-47
8.42246e-45
5.06826e-46
6.5373e-44
5.6799e-45
1.33045e-43
5.91895e-44
1.5913e-42
4.57222e-43
3.00878e-42
5.51422e-42
-9.04802e-51
2.44646e-49
-1.2338e-49
3.81165e-48
-2.20142e-48
5.48904e-47
-3.92602e-47
5.66857e-46
-6.05834e-46
5.71199e-45
-9.62775e-45
3.6357e-44
-4.23379e-44
2.31644e-43
8.63778e-43
-1.61086e-43
-1.6939e-51
4.89998e-51
2.33838e-49
6.64797e-50
9.25463e-48
8.8424e-49
9.14552e-47
9.26515e-48
1.01426e-45
1.11238e-46
3.87778e-45
1.2547e-45
4.68146e-44
1.01642e-44
7.66782e-44
1.53781e-43
-1.43864e-52
2.54885e-51
-2.10827e-51
4.15847e-50
-3.61708e-50
6.3814e-49
-6.54422e-49
7.12632e-48
-9.22455e-48
7.75703e-47
-1.53964e-46
5.51304e-46
-7.79994e-46
3.6931e-45
1.52569e-44
-3.14105e-45
-3.49971e-53
4.89841e-53
-1.33512e-52
7.04405e-52
5.84964e-50
1.00008e-50
8.76347e-49
1.14618e-49
1.38225e-47
1.45621e-48
9.01394e-47
1.64942e-47
7.98314e-46
1.48671e-46
1.15924e-45
2.47156e-45
-1.50395e-54
1.74616e-53
-2.34479e-53
3.00018e-52
-3.87367e-52
4.9e-51
-7.04095e-51
5.88292e-50
-9.69641e-50
6.77115e-49
-1.62466e-48
5.30419e-48
-9.75249e-48
3.71007e-47
1.666e-46
-4.04385e-47
-3.32862e-55
3.29957e-55
-2.60956e-54
5.06879e-54
1.74809e-52
7.74706e-53
5.60219e-51
9.63325e-52
1.0249e-49
1.29533e-50
8.86888e-49
1.47307e-49
7.89651e-48
1.42561e-48
1.08678e-47
2.81938e-47
-1.04638e-56
8.57466e-56
-1.73156e-55
1.53311e-54
-2.81114e-54
2.59894e-53
-5.08372e-53
3.26841e-52
-6.96066e-52
3.90175e-51
-1.10776e-50
3.29751e-50
-7.15087e-50
2.43041e-49
1.17471e-48
-2.80585e-49
-1.94331e-57
1.50774e-57
-1.9792e-56
2.46849e-56
-3.30823e-56
4.06547e-55
2.07077e-53
5.49971e-54
4.98596e-52
7.93951e-53
5.51571e-51
9.06769e-52
5.09679e-50
9.15617e-51
6.80913e-50
1.91179e-49
-4.78823e-59
2.7421e-58
-8.42659e-58
5.18187e-57
-1.37713e-56
9.32596e-56
-2.50642e-55
1.24571e-54
-3.23461e-54
1.5729e-53
-4.94205e-53
1.40397e-52
-3.30083e-52
1.08067e-51
5.5959e-51
-1.03693e-51
-7.09133e-60
5.13165e-60
-8.79229e-59
8.84207e-59
-3.95136e-58
1.55315e-57
4.29224e-56
2.24211e-56
1.94256e-54
3.37997e-55
2.30331e-53
3.93285e-54
2.12941e-52
4.06923e-53
2.89325e-52
8.56354e-52
-1.61154e-61
6.10883e-61
-2.93951e-60
1.24126e-59
-4.73154e-59
2.36534e-58
-8.58996e-58
3.33873e-57
-1.08013e-56
4.41612e-56
-1.52779e-55
4.19984e-55
-9.59727e-55
3.39817e-54
1.87834e-53
-1.70372e-54
-1.78135e-62
1.33286e-62
-2.32882e-61
2.48851e-61
-1.30362e-60
4.54317e-60
3.53517e-59
6.72712e-59
4.73864e-57
1.0403e-57
6.69419e-56
1.21955e-56
6.60198e-55
1.24046e-55
8.64111e-55
2.86011e-54
-3.94963e-64
1.03196e-63
-7.03947e-63
2.13493e-62
-1.14083e-61
4.2026e-61
-2.12759e-60
6.43212e-60
-2.49095e-59
9.06897e-59
-3.19176e-58
9.14451e-58
-1.667e-57
7.78146e-57
4.56606e-56
7.0371e-57
-3.04331e-65
2.39931e-65
-4.61761e-64
4.80513e-64
-4.33491e-63
9.48768e-63
-1.49971e-62
1.49695e-61
9.07897e-60
2.31555e-60
1.40985e-58
2.68841e-59
1.47953e-57
2.69089e-58
1.8681e-57
6.92942e-57
-7.02767e-67
1.36756e-66
-1.29341e-65
2.94131e-65
-1.94245e-64
5.98228e-64
-3.26457e-63
9.45979e-63
-3.543e-62
1.37285e-61
-4.2186e-61
1.46901e-60
-1.3857e-60
1.31587e-59
8.20211e-59
6.90277e-59
-3.92464e-68
3.22214e-68
-6.23762e-67
6.80093e-67
-6.15203e-66
1.4004e-65
-3.13349e-65
2.30441e-64
1.04909e-62
3.65605e-63
2.07008e-61
4.2959e-62
2.40456e-60
4.27314e-61
2.99811e-60
1.23696e-59
-9.13148e-70
1.39115e-69
-1.71081e-68
3.10696e-68
-2.51613e-67
6.53422e-67
-3.95346e-66
1.07465e-65
-3.19844e-65
1.60909e-64
-2.6342e-64
1.79472e-63
7.43954e-63
1.68283e-62
1.11548e-61
2.02669e-61
-3.81252e-71
3.23854e-71
-6.30931e-70
7.16913e-70
-6.44977e-69
1.52964e-68
-3.21337e-68
2.60668e-67
1.2042e-65
4.19643e-66
2.39316e-64
5.03724e-65
2.95383e-63
5.08933e-64
3.64815e-63
1.69598e-62
-8.74897e-73
1.09101e-72
-1.65922e-71
2.53198e-71
-2.36913e-70
5.51301e-70
-3.4144e-69
9.44532e-69
-1.89443e-68
1.46559e-67
1.49121e-67
1.70562e-66
3.39873e-65
1.67279e-65
1.1724e-64
3.57791e-64
-2.82738e-74
2.45352e-74
-4.85271e-73
5.69165e-73
-5.07457e-72
1.25818e-71
-2.31392e-71
2.21945e-70
1.15232e-68
3.63751e-69
2.25213e-67
4.47677e-68
2.90141e-66
4.63255e-67
3.42985e-66
1.83358e-65
-6.23416e-76
6.71839e-76
-1.19647e-74
1.61923e-74
-1.64336e-73
3.64765e-73
-2.11739e-72
6.50726e-72
-3.718e-72
1.04756e-70
2.20679e-69
1.27391e-69
4.94827e-68
1.30682e-68
9.66899e-68
4.31738e-67
-1.62644e-77
1.41892e-77
-2.88331e-76
3.44586e-76
-3.05383e-75
7.89433e-75
-1.17217e-74
1.44488e-73
8.93067e-72
2.42456e-72
1.72378e-70
3.07523e-71
2.29687e-69
3.28389e-70
2.53654e-69
1.58777e-68
-3.35705e-79
3.26602e-79
-6.51626e-78
8.18779e-78
-8.59115e-77
1.9089e-76
-9.44712e-76
3.54917e-75
5.91396e-74
5.93173e-74
2.63707e-72
7.54697e-73
4.55174e-71
8.11071e-72
6.34757e-71
3.83847e-70
-7.34815e-81
6.34679e-81
-1.341e-79
1.61349e-79
-1.43784e-78
3.83285e-78
-3.94446e-78
7.30114e-77
5.55192e-75
1.26179e-75
1.06876e-73
1.66213e-74
1.4745e-72
1.84697e-73
1.49716e-72
1.11062e-71
-1.3961e-82
1.25016e-82
-2.74081e-81
3.2697e-81
-3.48095e-80
7.91271e-80
-3.04853e-79
1.53829e-78
6.72255e-77
2.6785e-77
1.87215e-75
3.57622e-76
3.03626e-74
4.03908e-75
3.34285e-74
2.58549e-73
-2.61979e-84
2.19586e-84
-4.93852e-83
5.85613e-83
-5.40176e-82
1.44875e-81
-9.78338e-82
2.88162e-80
2.68181e-78
5.16451e-79
5.26775e-77
7.12368e-78
7.58636e-76
8.27664e-77
7.06825e-76
6.14738e-75
-4.45684e-86
3.7849e-86
-8.90788e-85
1.0366e-84
-1.07809e-83
2.61656e-83
-6.80752e-83
5.32642e-82
3.89491e-80
9.69527e-81
9.59865e-79
1.36204e-79
1.51363e-77
1.6153e-78
1.41768e-77
1.32306e-76
-7.16767e-88
6.18406e-88
-1.38904e-86
1.72797e-86
-1.45943e-85
4.45102e-85
2.09932e-84
9.25286e-84
1.09239e-81
1.72371e-82
2.1893e-80
2.4884e-81
3.2219e-79
3.02334e-80
2.72688e-79
2.80337e-78
-1.09192e-89
1.05946e-89
-2.1648e-88
3.02304e-88
-2.24689e-87
7.92124e-87
4.84601e-86
1.67949e-85
1.98346e-83
3.18246e-84
4.23248e-82
4.67318e-83
6.39009e-81
5.80134e-82
5.35221e-81
5.73124e-80
-1.71242e-91
1.02404e-90
-3.26357e-90
2.97217e-89
-2.76528e-89
8.0038e-88
6.1764e-87
1.72253e-86
4.49991e-85
3.33286e-85
8.78069e-84
4.92334e-84
1.29725e-82
6.20099e-83
5.68007e-82
1.18367e-81
-7.1206e-92
1.75464e-93
-1.417e-90
5.67435e-92
-1.12039e-89
1.66868e-90
4.29772e-87
3.97183e-89
2.52086e-85
8.36941e-88
5.02635e-84
1.36786e-86
7.08647e-83
1.88351e-85
1.90868e-84
6.46293e-82
-7.75247e-95
2.60804e-96
-1.30005e-93
9.49843e-95
2.18577e-91
3.11232e-93
2.38971e-89
8.32024e-92
8.38493e-88
1.94195e-90
1.63182e-86
3.55638e-89
2.38688e-85
5.4144e-88
6.12955e-87
2.33895e-84
-7.93314e-98
3.15527e-99
-1.13258e-96
1.31705e-97
1.1109e-93
4.89076e-96
6.75893e-92
1.49314e-94
2.28786e-90
3.93722e-93
4.77959e-89
8.21307e-92
7.48039e-88
1.4081e-90
1.80408e-89
7.99259e-87
-4.72922e-101
2.79309e-102
5.73065e-99
1.3684e-100
3.34682e-96
5.91388e-99
1.61051e-94
2.1125e-97
5.44139e-93
6.45768e-96
1.23528e-91
1.57061e-94
2.11045e-90
3.1093e-93
4.60931e-92
2.49093e-89
-1.67249e-104
1.78801e-105
4.42684e-101
1.05972e-103
5.36357e-99
5.49757e-102
2.67082e-97
2.36378e-100
9.83256e-96
8.62239e-99
2.52804e-94
2.50748e-97
4.87925e-93
5.8777e-96
1.02986e-94
6.52186e-92
8.73933e-107
6.69297e-109
6.61663e-104
5.03789e-107
6.34538e-102
3.29751e-105
3.48361e-100
1.79081e-103
1.45422e-98
8.1886e-102
4.34745e-97
2.9844e-100
9.71528e-96
8.6836e-99
1.87891e-97
1.49947e-94
1.82721e-109
1.18589e-112
4.0803e-107
1.22593e-110
4.26918e-105
1.09476e-108
2.83416e-103
8.09555e-107
1.44129e-101
5.00029e-105
5.29648e-100
2.4517e-103
1.44459e-98
9.48751e-102
2.70238e-100
2.69211e-97
6.28263e-113
6.86387e-117
1.25051e-110
1.09918e-114
1.59466e-108
1.50833e-112
1.37686e-106
1.70863e-110
9.18703e-105
1.60159e-108
4.43961e-103
1.18377e-106
1.57616e-101
6.80677e-105
2.83661e-103
3.75558e-100
8.91305e-117
3.4644e-122
1.84862e-114
1.11542e-119
2.99988e-112
3.07122e-117
3.62498e-110
6.95899e-115
3.42658e-108
1.29574e-112
2.37493e-106
1.89016e-110
1.19488e-104
2.1095e-108
1.66271e-106
3.95411e-103
1.40885e-121
4.31544e-119
1.11991e-116
2.32091e-114
3.83588e-112
4.74098e-110
4.1998e-108
2.35733e-106
-2.9625e-05
2.09761e-06
-3.10189e-05
1.39382e-06
-3.18599e-05
8.40995e-07
-3.22386e-05
3.78756e-07
-3.20922e-05
-1.46371e-07
-3.15191e-05
-5.73169e-07
-3.05504e-05
-9.68695e-07
-2.92944e-05
-1.25595e-06
-2.78335e-05
-1.46096e-06
-2.6249e-05
-1.58449e-06
-2.45644e-05
-1.68455e-06
-2.28098e-05
-1.75465e-06
-2.09718e-05
-1.838e-06
-1.90783e-05
-1.89344e-06
-1.71081e-05
-1.97023e-06
-1.49899e-05
-2.11816e-06
-1.26958e-05
-2.29418e-06
-1.02413e-05
-2.45447e-06
-7.73233e-06
-2.50896e-06
-5.22803e-06
-2.5043e-06
-2.70598e-06
-2.52205e-06
-5.18339e-08
-2.65414e-06
2.86047e-06
-2.9123e-06
6.03473e-06
-3.17426e-06
9.37862e-06
-3.34389e-06
1.2563e-05
-3.18434e-06
1.53261e-05
-2.76316e-06
1.76119e-05
-2.28576e-06
1.94773e-05
-1.86546e-06
2.10526e-05
-1.57529e-06
2.2469e-05
-1.41638e-06
2.38132e-05
-1.34423e-06
2.51202e-05
-1.30699e-06
2.63893e-05
-1.26907e-06
2.75937e-05
-1.20441e-06
2.87e-05
-1.1063e-06
2.96805e-05
-9.80465e-07
3.05228e-05
-8.42322e-07
3.12233e-05
-7.00475e-07
3.17918e-05
-5.6854e-07
3.22398e-05
-4.47985e-07
3.25747e-05
-3.34912e-07
3.28041e-05
-2.29415e-07
3.29339e-05
-1.29824e-07
3.29688e-05
-3.48624e-08
3.29152e-05
5.36117e-08
3.27758e-05
1.39409e-07
3.25543e-05
2.21483e-07
3.22473e-05
3.0703e-07
3.18482e-05
3.99075e-07
3.13521e-05
4.96049e-07
3.07566e-05
5.9559e-07
3.00614e-05
6.95199e-07
2.9263e-05
7.984e-07
2.83583e-05
9.04617e-07
2.73407e-05
1.01759e-06
2.61992e-05
1.14155e-06
2.49182e-05
1.28098e-06
2.34787e-05
1.43952e-06
2.18581e-05
1.62054e-06
2.0038e-05
1.82013e-06
1.80018e-05
2.03621e-06
1.57436e-05
2.2582e-06
1.32606e-05
2.48302e-06
1.05503e-05
2.7103e-06
7.613e-06
2.93728e-06
4.45023e-06
3.16277e-06
1.06547e-06
3.38476e-06
-2.5335e-06
3.59897e-06
-6.32556e-06
3.79205e-06
-1.02829e-05
3.95731e-06
-1.4366e-05
4.08309e-06
-1.85273e-05
4.16134e-06
-2.27251e-05
4.19785e-06
-2.68971e-05
4.17194e-06
-3.0966e-05
4.06892e-06
-3.48373e-05
3.87132e-06
-3.84064e-05
3.56902e-06
-4.15637e-05
3.15734e-06
-4.42033e-05
2.63956e-06
-4.62292e-05
2.02592e-06
-4.75591e-05
1.32988e-06
-4.81322e-05
5.7317e-07
-4.79017e-05
-2.30506e-07
-4.68308e-05
-1.07087e-06
-4.49051e-05
-1.92578e-06
-4.2131e-05
-2.77406e-06
-3.85433e-05
-3.58773e-06
-3.42085e-05
-4.33482e-06
-2.92313e-05
-4.97714e-06
-2.37567e-05
-5.47463e-06
-1.79678e-05
-5.78889e-06
-1.20742e-05
-5.89364e-06
-6.28536e-06
-5.78881e-06
-7.92443e-07
-5.49292e-06
4.23063e-06
-5.02307e-06
8.67409e-06
-4.44346e-06
1.24498e-05
-3.77571e-06
1.55122e-05
-3.06242e-06
1.78469e-05
-2.33471e-06
1.94605e-05
-1.61353e-06
2.0367e-05
-9.06568e-07
2.05828e-05
-2.15778e-07
2.01283e-05
4.54507e-07
1.90488e-05
1.07947e-06
1.74192e-05
1.62967e-06
1.53403e-05
2.07883e-06
1.29403e-05
2.4e-06
1.03669e-05
2.57347e-06
7.78067e-06
2.58619e-06
5.35601e-06
2.42465e-06
3.28117e-06
2.07484e-06
1.73801e-06
1.54316e-06
8.84184e-07
8.53826e-07
8.26985e-07
5.7199e-08
1.62452e-06
-7.97535e-07
3.28818e-06
-1.66366e-06
5.79689e-06
-2.50871e-06
9.10419e-06
-3.3073e-06
1.31313e-05
-4.02713e-06
1.77459e-05
-4.61454e-06
2.27294e-05
-4.98355e-06
2.77928e-05
-5.06339e-06
3.25519e-05
-4.75914e-06
3.66141e-05
-4.06219e-06
3.9645e-05
-3.03084e-06
4.14288e-05
-1.78385e-06
4.17869e-05
-3.58064e-07
4.04874e-05
1.29953e-06
3.74126e-05
3.07478e-06
3.25823e-05
4.83026e-06
2.62942e-05
6.28808e-06
1.92024e-05
7.09187e-06
1.21306e-05
7.07181e-06
5.95065e-06
6.1799e-06
9.87538e-07
4.96312e-06
-2.98408e-06
3.97162e-06
-6.3168e-06
3.33272e-06
-8.62429e-06
2.30749e-06
-9.35078e-06
7.26494e-07
-8.08421e-06
-1.26657e-06
-4.80702e-06
-3.27718e-06
-1.59577e-07
-4.64744e-06
4.73567e-06
-4.89525e-06
8.52992e-06
-3.79425e-06
1.02382e-05
-1.70827e-06
9.03601e-06
1.20218e-06
4.831e-06
4.20501e-06
-1.63733e-06
6.46833e-06
-9.46083e-06
7.82349e-06
-1.75579e-05
8.09708e-06
-2.50514e-05
7.49348e-06
-3.13002e-05
6.24885e-06
-3.60485e-05
4.74832e-06
-3.93565e-05
3.30798e-06
2.19874e-06
-2.9634e-05
4.20342e-06
-3.10325e-05
2.79228e-06
-3.18741e-05
1.6826e-06
-3.22528e-05
7.57479e-07
-3.21067e-05
-2.92562e-07
-3.15335e-05
-1.14635e-06
-3.05648e-05
-1.93737e-06
-2.93089e-05
-2.5119e-06
-2.78479e-05
-2.92189e-06
-2.62634e-05
-3.169e-06
-2.4579e-05
-3.36894e-06
-2.28243e-05
-3.50941e-06
-2.09863e-05
-3.67595e-06
-1.90928e-05
-3.78692e-06
-1.71226e-05
-3.94043e-06
-1.50045e-05
-4.23629e-06
-1.27104e-05
-4.58833e-06
-1.02559e-05
-4.90889e-06
-7.74696e-06
-5.01795e-06
-5.24264e-06
-5.00862e-06
-2.72057e-06
-5.04412e-06
-6.64093e-08
-5.30831e-06
2.84567e-06
-5.82438e-06
6.02015e-06
-6.34874e-06
9.36402e-06
-6.68776e-06
1.25484e-05
-6.36869e-06
1.53115e-05
-5.52632e-06
1.75973e-05
-4.5715e-06
1.94627e-05
-3.73092e-06
2.1038e-05
-3.15056e-06
2.24544e-05
-2.83276e-06
2.37986e-05
-2.68845e-06
2.51056e-05
-2.61397e-06
2.63746e-05
-2.53814e-06
2.7579e-05
-2.40882e-06
2.86853e-05
-2.21259e-06
2.96658e-05
-1.96093e-06
3.05081e-05
-1.68465e-06
3.12086e-05
-1.40095e-06
3.17772e-05
-1.13708e-06
3.22251e-05
-8.95972e-07
3.256e-05
-6.69814e-07
3.27895e-05
-4.58836e-07
3.29193e-05
-2.59645e-07
3.29541e-05
-6.97249e-08
3.29005e-05
1.0722e-07
3.27611e-05
2.78814e-07
3.25397e-05
4.42959e-07
3.22326e-05
6.14039e-07
3.18336e-05
7.9813e-07
3.13375e-05
9.92111e-07
3.07419e-05
1.19119e-06
3.00467e-05
1.39041e-06
2.92483e-05
1.5968e-06
2.83437e-05
1.80922e-06
2.73262e-05
2.03515e-06
2.61846e-05
2.2831e-06
2.49036e-05
2.56196e-06
2.34641e-05
2.87904e-06
2.18436e-05
3.24109e-06
2.00234e-05
3.64027e-06
1.79872e-05
4.07241e-06
1.5729e-05
4.51638e-06
1.3246e-05
4.96603e-06
1.05357e-05
5.4206e-06
7.59848e-06
5.87454e-06
4.43572e-06
6.32553e-06
1.05097e-06
6.76951e-06
-2.54682e-06
7.19676e-06
-6.34055e-06
7.58578e-06
-1.02973e-05
7.91406e-06
-1.43804e-05
8.16618e-06
-1.85417e-05
8.32267e-06
-2.27396e-05
8.39577e-06
-2.69115e-05
8.34379e-06
-3.09804e-05
8.1378e-06
-3.48517e-05
7.74271e-06
-3.84207e-05
7.13802e-06
-4.15781e-05
6.31467e-06
-4.42176e-05
5.27911e-06
-4.62435e-05
4.05184e-06
-4.75734e-05
2.65975e-06
-4.81466e-05
1.14634e-06
-4.79161e-05
-4.61014e-07
-4.68452e-05
-2.14175e-06
-4.49194e-05
-3.85156e-06
-4.21453e-05
-5.54812e-06
-3.85576e-05
-7.17546e-06
-3.42228e-05
-8.66962e-06
-2.92457e-05
-9.95422e-06
-2.37712e-05
-1.09492e-05
-1.79823e-05
-1.15778e-05
-1.20886e-05
-1.17873e-05
-6.29976e-06
-1.15777e-05
-8.0668e-07
-1.0986e-05
4.21571e-06
-1.00455e-05
8.65965e-06
-8.8874e-06
1.24353e-05
-7.55133e-06
1.54978e-05
-6.12494e-06
1.78325e-05
-4.66942e-06
1.9446e-05
-3.22707e-06
2.03526e-05
-1.81312e-06
2.05683e-05
-4.31518e-07
2.01139e-05
9.08966e-07
1.90344e-05
2.15891e-06
1.74048e-05
3.25932e-06
1.5326e-05
4.15764e-06
1.2926e-05
4.79997e-06
1.03525e-05
5.14694e-06
7.76633e-06
5.1724e-06
5.34167e-06
4.84932e-06
3.26683e-06
4.14968e-06
1.72366e-06
3.08633e-06
8.6985e-07
1.70763e-06
8.1264e-07
1.14409e-07
1.61014e-06
-1.59504e-06
3.27384e-06
-3.32736e-06
5.78243e-06
-5.0173e-06
9.08971e-06
-6.61458e-06
1.31168e-05
-8.05426e-06
1.77314e-05
-9.22906e-06
2.27149e-05
-9.96709e-06
2.77783e-05
-1.01268e-05
3.25374e-05
-9.51828e-06
3.65996e-05
-8.1244e-06
3.96305e-05
-6.06169e-06
4.14144e-05
-3.56773e-06
4.17725e-05
-7.16153e-07
4.0473e-05
2.59904e-06
3.73982e-05
6.14954e-06
3.25679e-05
9.66054e-06
2.628e-05
1.2576e-05
1.9188e-05
1.41838e-05
1.21162e-05
1.41437e-05
5.93629e-06
1.23598e-05
9.73425e-07
9.92598e-06
-2.99762e-06
7.94266e-06
-6.33122e-06
6.66632e-06
-8.63872e-06
4.61499e-06
-9.36528e-06
1.45305e-06
-8.09873e-06
-2.53312e-06
-4.82146e-06
-6.55446e-06
-1.73727e-07
-9.29518e-06
4.72135e-06
-9.79032e-06
8.51573e-06
-7.58863e-06
1.02241e-05
-3.41662e-06
9.0219e-06
2.40436e-06
4.81683e-06
8.41008e-06
-1.65106e-06
1.29362e-05
-9.47512e-06
1.56476e-05
-1.75723e-05
1.61942e-05
-2.50658e-05
1.4987e-05
-3.13146e-05
1.24977e-05
-3.60629e-05
9.49658e-06
-3.93708e-05
6.61589e-06
4.39738e-06
-2.96448e-05
6.31019e-06
-3.1047e-05
4.19453e-06
-3.18885e-05
2.52407e-06
-3.2267e-05
1.13599e-06
-3.21202e-05
-4.39375e-07
-3.15469e-05
-1.71964e-06
-3.05781e-05
-2.90615e-06
-2.93221e-05
-3.76792e-06
-2.78612e-05
-4.38283e-06
-2.62767e-05
-4.75352e-06
-2.45924e-05
-5.05322e-06
-2.28375e-05
-5.26424e-06
-2.09996e-05
-5.51392e-06
-1.91061e-05
-5.68043e-06
-1.71359e-05
-5.91061e-06
-1.50178e-05
-6.35439e-06
-1.27237e-05
-6.88245e-06
-1.02693e-05
-7.36328e-06
-7.76026e-06
-7.52696e-06
-5.25594e-06
-7.51294e-06
-2.73389e-06
-7.56617e-06
-7.97424e-08
-7.96245e-06
2.83248e-06
-8.7366e-06
6.0068e-06
-9.52306e-06
9.35063e-06
-1.00316e-05
1.2535e-05
-9.55302e-06
1.52981e-05
-8.28946e-06
1.75838e-05
-6.85722e-06
1.94492e-05
-5.59634e-06
2.10245e-05
-4.72582e-06
2.24409e-05
-4.24912e-06
2.37851e-05
-4.03266e-06
2.50921e-05
-3.92094e-06
2.63611e-05
-3.8072e-06
2.75655e-05
-3.61322e-06
2.86718e-05
-3.31889e-06
2.96523e-05
-2.9414e-06
3.04946e-05
-2.52696e-06
3.11951e-05
-2.10142e-06
3.17636e-05
-1.70562e-06
3.22116e-05
-1.34395e-06
3.25465e-05
-1.00471e-06
3.27759e-05
-6.88257e-07
3.29057e-05
-3.89462e-07
3.29406e-05
-1.0458e-07
3.2887e-05
1.60832e-07
3.27476e-05
4.18218e-07
3.25261e-05
6.64433e-07
3.22191e-05
9.21041e-07
3.18201e-05
1.19717e-06
3.1324e-05
1.48817e-06
3.07284e-05
1.78681e-06
3.00332e-05
2.08562e-06
2.92348e-05
2.39519e-06
2.83302e-05
2.71382e-06
2.73126e-05
3.05271e-06
2.61711e-05
3.42464e-06
2.48901e-05
3.84294e-06
2.34506e-05
4.31857e-06
2.183e-05
4.86164e-06
2.00099e-05
5.46041e-06
1.79737e-05
6.10861e-06
1.57155e-05
6.77457e-06
1.32325e-05
7.44904e-06
1.05222e-05
8.13089e-06
7.58491e-06
8.81181e-06
4.42214e-06
9.48831e-06
1.03738e-06
1.01543e-05
-2.56098e-06
1.07951e-05
-6.35363e-06
1.13784e-05
-1.03109e-05
1.18714e-05
-1.43941e-05
1.22493e-05
-1.85554e-05
1.2484e-05
-2.27533e-05
1.25936e-05
-2.69252e-05
1.25157e-05
-3.09941e-05
1.22067e-05
-3.48655e-05
1.16141e-05
-3.84346e-05
1.07071e-05
-4.15919e-05
9.47203e-06
-4.42315e-05
7.91868e-06
-4.62574e-05
6.07777e-06
-4.75873e-05
3.98963e-06
-4.81605e-05
1.71951e-06
-4.793e-05
-6.91526e-07
-4.68591e-05
-3.21265e-06
-4.49333e-05
-5.77737e-06
-4.21592e-05
-8.32221e-06
-3.85714e-05
-1.07632e-05
-3.42365e-05
-1.30045e-05
-2.92595e-05
-1.49313e-05
-2.37849e-05
-1.64237e-05
-1.7996e-05
-1.73667e-05
-1.21022e-05
-1.76811e-05
-6.31327e-06
-1.73666e-05
-8.20023e-07
-1.64793e-05
4.20221e-06
-1.50677e-05
8.64624e-06
-1.33314e-05
1.24218e-05
-1.13269e-05
1.54843e-05
-9.18741e-06
1.7819e-05
-7.00414e-06
1.94326e-05
-4.84061e-06
2.03392e-05
-2.71974e-06
2.05549e-05
-6.47237e-07
2.01004e-05
1.36343e-06
1.9021e-05
3.23836e-06
1.73913e-05
4.88899e-06
1.53125e-05
6.23648e-06
1.29124e-05
7.19999e-06
1.03389e-05
7.72046e-06
7.75268e-06
7.75864e-06
5.32798e-06
7.27403e-06
3.25311e-06
6.22455e-06
1.70989e-06
4.62955e-06
8.56081e-07
2.56144e-06
7.98862e-07
1.71628e-07
1.59635e-06
-2.39252e-06
3.26016e-06
-4.99118e-06
5.76859e-06
-7.52572e-06
9.07591e-06
-9.92191e-06
1.31031e-05
-1.20814e-05
1.77177e-05
-1.38437e-05
2.27013e-05
-1.49507e-05
2.77648e-05
-1.51903e-05
3.25241e-05
-1.42775e-05
3.65864e-05
-1.21867e-05
3.96173e-05
-9.09261e-06
4.14012e-05
-5.35168e-06
4.17594e-05
-1.0743e-06
4.04599e-05
3.89852e-06
3.73851e-05
9.22429e-06
3.25548e-05
1.44909e-05
2.62667e-05
1.88641e-05
1.91747e-05
2.12759e-05
1.21027e-05
2.12157e-05
5.92272e-06
1.85397e-05
9.60062e-07
1.48886e-05
-3.01229e-06
1.1915e-05
-6.34492e-06
9.99895e-06
-8.6525e-06
6.92256e-06
-9.37917e-06
2.17972e-06
-8.11266e-06
-3.79963e-06
-4.83522e-06
-9.8319e-06
-1.87082e-07
-1.39433e-05
4.70801e-06
-1.46854e-05
8.50262e-06
-1.13832e-05
1.02111e-05
-5.12512e-06
9.00899e-06
3.6065e-06
4.80379e-06
1.26153e-05
-1.66433e-06
1.94043e-05
-9.48858e-06
2.34718e-05
-1.7586e-05
2.42916e-05
-2.50797e-05
2.24807e-05
-3.13286e-05
1.87466e-05
-3.60768e-05
1.42448e-05
-3.93847e-05
9.92374e-06
6.59591e-06
-2.96471e-05
8.41696e-06
-3.10534e-05
5.60087e-06
-3.18948e-05
3.36544e-06
-3.22728e-05
1.514e-06
-3.21263e-05
-5.85853e-07
-3.15528e-05
-2.29317e-06
-3.05839e-05
-3.87503e-06
-2.93278e-05
-5.02401e-06
-2.78668e-05
-5.84382e-06
-2.62822e-05
-6.3381e-06
-2.4598e-05
-6.73747e-06
-2.28431e-05
-7.01912e-06
-2.10052e-05
-7.35184e-06
-1.91116e-05
-7.57397e-06
-1.71414e-05
-7.88079e-06
-1.50233e-05
-8.47249e-06
-1.27292e-05
-9.17659e-06
-1.02748e-05
-9.81768e-06
-7.76577e-06
-1.0036e-05
-5.26144e-06
-1.00173e-05
-2.73941e-06
-1.00882e-05