/*--------------------------------*- C++ -*----------------------------------*\
| =========                 |                                                 |
| \\      /  F ield         | OpenFOAM: The Open Source CFD Toolbox           |
|  \\    /   O peration     | Version:  v1912                                 |
|   \\  /    A nd           | Website:  www.openfoam.com                      |
|    \\/     M anipulation  |                                                 |
\*---------------------------------------------------------------------------*/
FoamFile
{
    version     2.0;
    format      ascii;
    class       volScalarField;
    location    "40";
    object      p_rgh;
}
// * * * * * * * * * * * * * * * * * * * * * * * * * * * * * * * * * * * * * //

dimensions      [1 -1 -2 0 0 0 0];


internalField   nonuniform List<scalar> 
14268
(
-20.5554
-26.843
-32.6503
-38.0898
-43.2253
-48.0926
-52.6752
-57.0934
-20.559
-26.8462
-32.6533
-38.0926
-43.228
-48.0951
-52.6776
-57.0952
-20.5626
-26.8495
-32.6563
-38.0955
-43.2307
-48.0977
-52.68
-57.0975
-20.5663
-26.8529
-32.6594
-38.0984
-43.2334
-48.1002
-52.6824
-57.0994
-20.5701
-26.8563
-32.6625
-38.1013
-43.2361
-48.1028
-52.6849
-57.1016
-20.5739
-26.8597
-32.6657
-38.1042
-43.2389
-48.1054
-52.6874
-57.1036
-20.5778
-26.8632
-32.6689
-38.1072
-43.2417
-48.1081
-52.6899
-57.1057
-20.5818
-26.8668
-32.6721
-38.1102
-43.2445
-48.1108
-52.6924
-57.1078
-20.5859
-26.8704
-32.6754
-38.1132
-43.2474
-48.1135
-52.6949
-57.11
-20.59
-26.874
-32.6787
-38.1163
-43.2503
-48.1162
-52.6975
-57.1121
-20.5942
-26.8777
-32.6821
-38.1194
-43.2532
-48.119
-52.7001
-57.1143
-20.5985
-26.8815
-32.6855
-38.1226
-43.2562
-48.1218
-52.7027
-57.1165
-20.6029
-26.8854
-32.689
-38.1258
-43.2591
-48.1246
-52.7054
-57.1187
-20.6073
-26.8892
-32.6925
-38.129
-43.2622
-48.1274
-52.7081
-57.1209
-20.5734
-26.8521
-32.6512
-38.0828
-43.21
-48.0679
-52.6378
-57.0338
-20.6046
-26.8766
-32.6707
-38.0986
-43.2228
-48.0782
-52.6458
-57.0391
-20.6395
-26.9033
-32.6915
-38.1151
-43.2361
-48.0888
-52.654
-57.0445
-20.6762
-26.9314
-32.7132
-38.1323
-43.2499
-48.0998
-52.6623
-57.05
-20.7174
-26.9621
-32.7365
-38.1505
-43.2644
-48.1112
-52.671
-57.0556
-20.7597
-26.9937
-32.7604
-38.169
-43.279
-48.1229
-52.6797
-57.0613
-20.8069
-27.0284
-32.7863
-38.1889
-43.2947
-48.135
-52.6888
-57.0669
-20.984
-27.1791
-32.9189
-38.3119
-43.4141
-48.255
-52.8116
-57.1952
-21.2533
-27.3953
-33.0974
-38.4663
-43.5524
-48.3809
-52.9226
-57.2774
-21.5686
-27.6408
-33.2888
-38.6243
-43.6933
-48.5142
-53.0414
-57.3756
-21.9429
-27.9356
-33.5325
-38.8354
-43.8861
-48.6943
-53.1995
-57.4911
-22.365
-28.2578
-33.7738
-39.0315
-44.0608
-48.8649
-53.3523
-57.6266
-22.8405
-28.623
-34.0775
-39.293
-44.3076
-49.1033
-53.5662
-57.774
-23.3718
-29.0175
-34.3592
-39.5193
-44.5097
-49.3085
-53.7461
-57.9492
-23.9432
-29.4439
-34.7135
-39.8224
-44.8131
-49.6171
-54.0398
-58.14
-24.5787
-29.9005
-35.0261
-40.0705
-45.0303
-49.8424
-54.2262
-58.3352
-25.2583
-30.3844
-35.4122
-40.4008
-45.3987
-50.2586
-54.6521
-58.6172
-25.9417
-30.8728
-35.7493
-40.6589
-45.6062
-50.4479
-54.7798
-58.7827
-26.8407
-31.4322
-36.1314
-40.9968
-46.0747
-51.0881
-55.4814
-59.2244
-27.4534
-31.8973
-36.4804
-41.2446
-46.1951
-51.1159
-55.3779
-59.2406
27.0931
33.732
42.8721
56.1388
76.2675
102.892
133.278
167.199
699.002
690.378
681.076
672.069
664.958
659.947
656.411
653.992
54.7346
52.2277
49.7685
47.4956
45.4922
43.7161
42.1292
41.0236
0.0321193
0.028746
0.0294245
0.0293045
0.0426286
0.0534095
0.0566908
0.027845
0.0247278
0.0173037
0.0124524
0.00702031
0.00359994
-0.00858822
-0.00893507
-0.00747906
0.0405189
0.0345671
0.0306032
0.0294681
0.0357851
0.0417387
0.044437
0.0305436
0.0425165
0.0362822
0.0344652
0.031016
0.0319286
0.0227932
0.0277373
0.0202212
0.0481513
0.0409994
0.0369988
0.034255
0.0379526
0.0406286
0.0431681
0.0353936
0.0495748
0.0423591
0.0384173
0.0341048
0.0342144
0.0265955
0.0291152
0.021803
0.0545666
0.0465481
0.0422114
0.0384679
0.0387251
0.0392738
0.0393318
0.0343522
0.0553926
0.0473779
0.0416746
0.0366545
0.0364319
0.0293717
0.0316569
0.0246124
0.0598052
0.0511614
0.0456053
0.0410354
0.0397804
0.0380461
0.0371548
0.0339946
0.0604168
0.0516559
0.0454192
0.0398062
0.0382749
0.0322414
0.0330422
0.0262209
0.0639536
0.0548462
0.0483601
0.0431986
0.0407099
0.0375579
0.0358707
0.0330666
0.0643659
0.0551367
0.0484143
0.0424122
0.0398507
0.0344531
0.0340134
0.0277676
0.0670419
0.0577117
0.050583
0.0449982
0.0414761
0.0374681
0.0349624
0.0320322
0.0672805
0.0578731
0.0507025
0.0445038
0.041075
0.0361283
0.0346724
0.0289505
0.0692064
0.0598407
0.0523284
0.0464241
0.0421432
0.0375632
0.0347482
0.0312364
0.0692615
0.0598616
0.0523987
0.0461162
0.0419328
0.0372138
0.0345968
0.0297335
0.0705654
0.0613086
0.0536
0.0475094
0.0426593
0.0378562
0.0346109
0.0306713
0.0704255
0.0611776
0.053572
0.0472776
0.0424847
0.0378529
0.0344377
0.0300272
0.0712228
0.0621871
0.0544261
0.0482626
0.0429863
0.0381711
0.0344349
0.03037
0.0708874
0.0619024
0.0542911
0.0480221
0.0427824
0.0381979
0.034202
0.0300037
0.0712723
0.0625431
0.0548437
0.0486848
0.0431331
0.0383687
0.0342
0.0301567
0.0707583
0.0621167
0.054591
0.0483888
0.0428829
0.0383224
0.0339172
0.0298228
0.0708057
0.0624426
0.0548888
0.048799
0.0430987
0.0383993
0.0339092
0.0299016
0.0701338
0.0618898
0.054521
0.0484275
0.0427983
0.0382675
0.033573
0.0295547
0.0699069
0.0619514
0.0546005
0.0486367
0.0428813
0.0382725
0.0335363
0.0295898
0.0691015
0.0612893
0.0541301
0.0481978
0.0425203
0.0380604
0.0331526
0.0292368
0.0686494
0.0611268
0.0540221
0.0482345
0.0424702
0.0380018
0.0330698
0.0292263
0.0677308
0.0603731
0.0534615
0.0477346
0.0421011
0.0377233
0.032658
0.0288665
0.067091
0.0600212
0.0531899
0.0476152
0.0419262
0.03761
0.0325209
0.0287935
0.0661109
0.0591948
0.0525759
0.0470637
0.041477
0.0372789
0.0321134
0.0284396
0.0653182
0.0586805
0.0521576
0.0468086
0.0411998
0.0370755
0.0319368
0.0283023
0.0642458
0.0577937
0.0514658
0.046212
0.0406931
0.0366961
0.0315271
0.0279576
0.0633351
0.0571433
0.0509281
0.0458385
0.0403217
0.0364286
0.0312916
0.0277548
0.0622122
0.056213
0.0501829
0.0452095
0.0397797
0.0359993
0.0308872
0.0274192
0.0612079
0.0554486
0.0495509
0.0447379
0.0393376
0.0356563
0.0305917
0.0271535
0.060048
0.0544943
0.0487635
0.0440984
0.0387567
0.0351854
0.0301955
0.0268209
0.0589718
0.0536374
0.0480548
0.0435571
0.0382326
0.0347741
0.0298427
0.0265064
0.0577844
0.0526429
0.0472322
0.0429071
0.0376042
0.0342742
0.0294478
0.0261659
0.0566549
0.0517172
0.0464577
0.0422842
0.0370348
0.0337978
0.0290563
0.0258173
0.0554466
0.0506941
0.0455988
0.0415588
0.0364309
0.0332737
0.0286513
0.0254574
0.0520038
0.0478113
0.0431603
0.039519
0.0347018
0.0317395
0.027425
0.0243611
0.0458814
0.0424318
0.0384665
0.0355807
0.0314236
0.0287465
0.0251048
0.0222912
0.0399986
0.0372147
0.0338801
0.0314558
0.0279894
0.0255757
0.0225574
0.020043
0.0341537
0.0319975
0.0291115
0.0271525
0.0243827
0.0222579
0.0198043
0.0176367
0.0284856
0.0267763
0.0245167
0.022859
0.0206858
0.0188751
0.0169001
0.0150955
0.0229312
0.0217091
0.019942
0.0185841
0.0169209
0.0154491
0.0138932
0.0124468
0.0176066
0.0166789
0.0153939
0.0143423
0.0131132
0.011987
0.0108112
0.00970954
0.0124038
0.0117536
0.0108831
0.0101364
0.00929102
0.00850065
0.00767984
0.00690717
0.00728447
0.00690308
0.00640455
0.00595824
0.00546367
0.00499706
0.00451254
0.00405717
0.00223677
0.0021061
0.0019499
0.00180246
0.00164274
0.00149159
0.00133493
0.00118812
-61.3823
-65.4129
-69.2851
-73.1066
-76.8933
-80.6913
-84.5658
-88.5948
-92.8856
-97.5294
-102.576
-108.054
-113.957
-120.265
-126.935
-133.889
-141.042
-148.334
-155.751
-163.296
-170.932
-178.565
-186.006
-193.157
-199.994
-206.726
-213.493
-220.366
-227.249
-233.861
-239.913
-245.196
-249.614
-253.161
-255.903
-257.935
-259.354
-260.239
-260.649
-260.627
-260.202
-259.388
-258.186
-256.589
-254.596
-252.207
-249.444
-246.333
-242.9
-239.159
-235.101
-230.693
-225.871
-220.544
-214.609
-207.963
-200.522
-192.222
-183.023
-172.893
-161.796
-149.675
-136.445
-121.997
-106.215
-89.0066
-70.3212
-50.1589
-28.5748
-5.67168
18.3845
43.3723
69.0177
94.9668
120.798
146.004
170.016
192.218
211.977
228.675
241.736
250.664
255.077
254.722
249.459
239.339
224.582
205.576
182.857
157.052
128.807
98.7781
67.674
36.2849
5.43158
-24.6265
-51.886
-76.4774
-97.7904
-115.244
-128.414
-137.073
-141.198
-140.99
-136.801
-129.175
-118.843
-106.671
-93.586
-80.5384
-68.4689
-58.2566
-50.7253
-46.6393
-46.6711
-51.3392
-60.8777
-75.2817
-94.2581
-117.171
-142.992
-170.402
-197.873
-223.654
-246.07
-263.488
-274.705
-278.437
-273.817
-260.606
-239.634
-212.19
-179.543
-142.862
-103.619
-65.5154
-30.9717
-8.71057
2.50946
3.10644
-2.67893
-10.931
-18.9562
-24.6398
-27.1899
-25.7894
-20.141
-9.41171
7.6613
32.1781
64.4086
103.24
146.712
191.499
234.333
272.558
-61.3822
-65.413
-69.2851
-73.1066
-76.8933
-80.6914
-84.5658
-88.5948
-92.8856
-97.5294
-102.576
-108.054
-113.957
-120.265
-126.935
-133.889
-141.042
-148.334
-155.751
-163.297
-170.932
-178.565
-186.006
-193.157
-199.994
-206.726
-213.493
-220.366
-227.249
-233.861
-239.913
-245.196
-249.614
-253.161
-255.903
-257.935
-259.354
-260.239
-260.649
-260.627
-260.202
-259.388
-258.186
-256.59
-254.596
-252.207
-249.444
-246.333
-242.9
-239.159
-235.101
-230.693
-225.871
-220.544
-214.609
-207.963
-200.522
-192.223
-183.023
-172.893
-161.796
-149.675
-136.445
-121.997
-106.215
-89.0068
-70.3213
-50.1591
-28.575
-5.67184
18.3844
43.3722
69.0176
94.9668
120.799
146.004
170.016
192.218
211.977
228.676
241.736
250.664
255.077
254.722
249.459
239.339
224.582
205.576
182.857
157.053
128.808
98.7781
67.6739
36.2848
5.4314
-24.6268
-51.8863
-76.4778
-97.7908
-115.244
-128.415
-137.073
-141.198
-140.99
-136.801
-129.176
-118.843
-106.671
-93.586
-80.5383
-68.4688
-58.2564
-50.725
-46.6389
-46.6707
-51.3387
-60.8772
-75.2813
-94.2577
-117.171
-142.992
-170.402
-197.873
-223.655
-246.07
-263.489
-274.706
-278.438
-273.818
-260.607
-239.635
-212.19
-179.543
-142.862
-103.619
-65.5149
-30.9707
-8.70944
2.51047
3.10711
-2.67865
-10.9311
-18.9565
-24.6402
-27.1903
-25.7899
-20.1416
-9.41241
7.6605
32.1772
64.4079
103.239
146.712
191.5
234.333
272.559
-61.3822
-65.413
-69.2852
-73.1066
-76.8933
-80.6914
-84.5658
-88.5947
-92.8856
-97.5294
-102.576
-108.054
-113.957
-120.265
-126.935
-133.889
-141.042
-148.334
-155.751
-163.297
-170.932
-178.565
-186.006
-193.157
-199.994
-206.726
-213.493
-220.366
-227.249
-233.861
-239.913
-245.197
-249.614
-253.162
-255.903
-257.935
-259.354
-260.239
-260.649
-260.627
-260.202
-259.388
-258.186
-256.59
-254.596
-252.208
-249.444
-246.333
-242.901
-239.159
-235.101
-230.693
-225.871
-220.545
-214.609
-207.964
-200.522
-192.223
-183.024
-172.894
-161.796
-149.676
-136.446
-121.997
-106.216
-89.0072
-70.3217
-50.1594
-28.5753
-5.67212
18.3842
43.3721
69.0176
94.9668
120.799
146.004
170.017
192.219
211.978
228.676
241.737
250.665
255.078
254.723
249.46
239.34
224.583
205.577
182.858
157.053
128.808
98.7783
67.6739
36.2846
5.43109
-24.6273
-51.8869
-76.4785
-97.7917
-115.245
-128.416
-137.074
-141.199
-140.991
-136.802
-129.176
-118.844
-106.672
-93.586
-80.5381
-68.4684
-58.2558
-50.7243
-46.6381
-46.6697
-51.3377
-60.8762
-75.2804
-94.2569
-117.17
-142.991
-170.402
-197.874
-223.656
-246.071
-263.49
-274.708
-278.44
-273.82
-260.609
-239.636
-212.191
-179.544
-142.862
-103.619
-65.5138
-30.9688
-8.70713
2.51255
3.10849
-2.67806
-10.9311
-18.957
-24.6409
-27.1912
-25.7909
-20.1427
-9.41377
7.65894
32.1756
64.4064
103.239
146.712
191.5
234.334
272.56
-61.3821
-65.4131
-69.2852
-73.1067
-76.8934
-80.6914
-84.5657
-88.5947
-92.8855
-97.5293
-102.576
-108.054
-113.957
-120.265
-126.935
-133.889
-141.042
-148.334
-155.751
-163.297
-170.932
-178.565
-186.006
-193.157
-199.994
-206.726
-213.493
-220.366
-227.249
-233.861
-239.913
-245.197
-249.614
-253.162
-255.903
-257.935
-259.354
-260.239
-260.649
-260.627
-260.203
-259.388
-258.186
-256.59
-254.596
-252.208
-249.444
-246.333
-242.901
-239.159
-235.101
-230.693
-225.871
-220.545
-214.61
-207.964
-200.522
-192.223
-183.024
-172.894
-161.796
-149.676
-136.446
-121.998
-106.216
-89.0077
-70.3222
-50.1599
-28.5758
-5.67251
18.3838
43.3718
69.0174
94.9668
120.799
146.005
170.017
192.219
211.979
228.677
241.738
250.666
255.08
254.725
249.462
239.342
224.584
205.578
182.859
157.054
128.808
98.7786
67.674
36.2844
5.43067
-24.628
-51.8878
-76.4796
-97.7929
-115.247
-128.417
-137.076
-141.2
-140.992
-136.803
-129.177
-118.844
-106.672
-93.586
-80.5378
-68.4678
-58.255
-50.7232
-46.6368
-46.6683
-51.3362
-60.8746
-75.2789
-94.2557
-117.169
-142.991
-170.402
-197.874
-223.657
-246.073
-263.492
-274.71
-278.442
-273.823
-260.611
-239.639
-212.193
-179.545
-142.863
-103.618
-65.5121
-30.9658
-8.70363
2.51571
3.1106
-2.67714
-10.9312
-18.9577
-24.6419
-27.1925
-25.7924
-20.1444
-9.41578
7.65662
32.1732
64.4043
103.237
146.711
191.501
234.335
272.562
-61.3822
-65.4131
-69.2852
-73.1066
-76.8933
-80.6913
-84.5657
-88.5946
-92.8853
-97.5291
-102.576
-108.054
-113.956
-120.265
-126.935
-133.889
-141.042
-148.334
-155.751
-163.296
-170.932
-178.565
-186.006
-193.157
-199.994
-206.726
-213.493
-220.366
-227.249
-233.861
-239.913
-245.197
-249.615
-253.162
-255.904
-257.935
-259.354
-260.239
-260.649
-260.627
-260.203
-259.389
-258.186
-256.59
-254.596
-252.208
-249.445
-246.333
-242.901
-239.159
-235.102
-230.694
-225.871
-220.545
-214.61
-207.964
-200.523
-192.223
-183.024
-172.894
-161.797
-149.676
-136.446
-121.998
-106.217
-89.0083
-70.3228
-50.1605
-28.5763
-5.67301
18.3834
43.3715
69.0173
94.9669
120.799
146.005
170.018
192.22
211.98
228.679
241.74
250.668
255.082
254.727
249.464
239.344
224.586
205.58
182.86
157.055
128.809
98.779
67.6741
36.2842
5.43012
-24.6289
-51.889
-76.4811
-97.7946
-115.249
-128.419
-137.077
-141.202
-140.994
-136.805
-129.178
-118.845
-106.672
-93.586
-80.5374
-68.467
-58.2538
-50.7217
-46.635
-46.6663
-51.3341
-60.8725
-75.277
-94.2541
-117.168
-142.99
-170.402
-197.875
-223.658
-246.075
-263.495
-274.713
-278.446
-273.826
-260.615
-239.641
-212.195
-179.547
-142.864
-103.618
-65.5098
-30.9618
-8.69894
2.51994
3.11343
-2.67589
-10.9313
-18.9587
-24.6433
-27.1942
-25.7943
-20.1466
-9.41845
7.65354
32.17
64.4015
103.235
146.71
191.501
234.337
272.564
-61.3822
-65.4132
-69.2853
-73.1067
-76.8934
-80.6913
-84.5656
-88.5944
-92.8851
-97.5289
-102.575
-108.054
-113.956
-120.265
-126.934
-133.889
-141.042
-148.334
-155.751
-163.296
-170.932
-178.566
-186.006
-193.157
-199.994
-206.726
-213.493
-220.366
-227.25
-233.862
-239.914
-245.198
-249.615
-253.163
-255.904
-257.936
-259.355
-260.239
-260.649
-260.628
-260.203
-259.389
-258.186
-256.59
-254.596
-252.208
-249.445
-246.334
-242.901
-239.159
-235.102
-230.694
-225.872
-220.545
-214.61
-207.965
-200.523
-192.224
-183.025
-172.895
-161.797
-149.677
-136.447
-121.999
-106.218
-89.0091
-70.3236
-50.1613
-28.5771
-5.67363
18.3829
43.3712
69.0171
94.9669
120.799
146.006
170.019
192.222
211.982
228.681
241.742
250.671
255.084
254.729
249.466
239.346
224.588
205.582
182.862
157.056
128.81
98.7795
67.6741
36.2839
5.42943
-24.63
-51.8905
-76.4829
-97.7967
-115.251
-128.421
-137.08
-141.205
-140.996
-136.807
-129.18
-118.846
-106.673
-93.5859
-80.5369
-68.4661
-58.2524
-50.7199
-46.6329
-46.6639
-51.3315
-60.8699
-75.2746
-94.252
-117.166
-142.989
-170.402
-197.876
-223.66
-246.078
-263.498
-274.717
-278.45
-273.831
-260.619
-239.645
-212.198
-179.549
-142.865
-103.617
-65.507
-30.9568
-8.69309
2.52522
3.11696
-2.67434
-10.9315
-18.96
-24.645
-27.1963
-25.7967
-20.1494
-9.42179
7.64969
32.166
64.398
103.233
146.71
191.502
234.34
272.567
-61.3823
-65.4133
-69.2853
-73.1067
-76.8933
-80.6912
-84.5655
-88.5943
-92.8849
-97.5286
-102.575
-108.053
-113.956
-120.265
-126.934
-133.888
-141.041
-148.334
-155.751
-163.296
-170.932
-178.566
-186.007
-193.158
-199.994
-206.726
-213.493
-220.366
-227.25
-233.862
-239.914
-245.198
-249.616
-253.163
-255.904
-257.936
-259.355
-260.24
-260.65
-260.628
-260.203
-259.389
-258.187
-256.59
-254.597
-252.208
-249.445
-246.334
-242.901
-239.16
-235.102
-230.694
-225.872
-220.546
-214.611
-207.965
-200.524
-192.225
-183.025
-172.896
-161.798
-149.678
-136.448
-122
-106.219
-89.0101
-70.3246
-50.1622
-28.5779
-5.67438
18.3823
43.3708
69.0169
94.967
120.8
146.007
170.02
192.223
211.984
228.683
241.745
250.674
255.087
254.732
249.469
239.349
224.591
205.584
182.864
157.058
128.811
98.7801
67.6743
36.2835
5.4286
-24.6314
-51.8922
-76.485
-97.7992
-115.254
-128.424
-137.083
-141.207
-140.999
-136.809
-129.181
-118.847
-106.673
-93.5859
-80.5363
-68.4649
-58.2507
-50.7177
-46.6302
-46.6609
-51.3284
-60.8668
-75.2717
-94.2496
-117.165
-142.989
-170.402
-197.877
-223.662
-246.081
-263.502
-274.722
-278.456
-273.836
-260.624
-239.649
-212.201
-179.551
-142.866
-103.617
-65.5036
-30.9509
-8.68607
2.53156
3.1212
-2.67247
-10.9316
-18.9614
-24.6471
-27.1988
-25.7996
-20.1527
-9.4258
7.64507
32.1612
64.3938
103.23
146.709
191.503
234.342
272.571
-61.3824
-65.4134
-69.2854
-73.1067
-76.8934
-80.6912
-84.5654
-88.5941
-92.8847
-97.5283
-102.575
-108.053
-113.956
-120.264
-126.934
-133.888
-141.041
-148.334
-155.751
-163.296
-170.932
-178.566
-186.007
-193.158
-199.995
-206.726
-213.493
-220.366
-227.25
-233.862
-239.915
-245.199
-249.616
-253.164
-255.905
-257.937
-259.355
-260.24
-260.65
-260.628
-260.203
-259.389
-258.187
-256.591
-254.597
-252.209
-249.445
-246.334
-242.901
-239.16
-235.102
-230.694
-225.872
-220.546
-214.611
-207.966
-200.524
-192.225
-183.026
-172.896
-161.799
-149.679
-136.449
-122.001
-106.22
-89.0112
-70.3257
-50.1633
-28.5789
-5.67526
18.3816
43.3703
69.0167
94.9671
120.8
146.007
170.022
192.225
211.986
228.686
241.748
250.677
255.091
254.736
249.473
239.352
224.594
205.587
182.866
157.059
128.812
98.7807
67.6744
36.283
5.42763
-24.633
-51.8943
-76.4875
-97.8021
-115.257
-128.428
-137.086
-141.211
-141.002
-136.811
-129.183
-118.848
-106.674
-93.5859
-80.5355
-68.4635
-58.2487
-50.7152
-46.6272
-46.6575
-51.3248
-60.8632
-75.2683
-94.2467
-117.162
-142.987
-170.402
-197.878
-223.665
-246.085
-263.507
-274.728
-278.462
-273.843
-260.63
-239.654
-212.205
-179.554
-142.868
-103.616
-65.4996
-30.9439
-8.67788
2.53895
3.12614
-2.6703
-10.9318
-18.9631
-24.6495
-27.2018
-25.8029
-20.1566
-9.43047
7.63968
32.1556
64.389
103.227
146.708
191.505
234.346
272.575
-61.3825
-65.4135
-69.2854
-73.1067
-76.8932
-80.6911
-84.5652
-88.5938
-92.8844
-97.528
-102.575
-108.053
-113.955
-120.264
-126.934
-133.888
-141.041
-148.334
-155.751
-163.296
-170.932
-178.566
-186.007
-193.158
-199.995
-206.726
-213.493
-220.366
-227.25
-233.863
-239.915
-245.2
-249.617
-253.164
-255.906
-257.937
-259.356
-260.24
-260.65
-260.629
-260.204
-259.39
-258.187
-256.591
-254.597
-252.209
-249.446
-246.334
-242.902
-239.16
-235.103
-230.695
-225.873
-220.547
-214.612
-207.966
-200.525
-192.226
-183.027
-172.897
-161.8
-149.679
-136.45
-122.002
-106.221
-89.0125
-70.327
-50.1645
-28.5801
-5.67626
18.3808
43.3697
69.0164
94.9672
120.801
146.009
170.023
192.227
211.988
228.689
241.752
250.681
255.095
254.74
249.477
239.356
224.598
205.59
182.869
157.061
128.814
98.7815
67.6745
36.2825
5.42652
-24.6348
-51.8966
-76.4904
-97.8054
-115.261
-128.431
-137.09
-141.214
-141.005
-136.814
-129.186
-118.85
-106.675
-93.5858
-80.5347
-68.4619
-58.2465
-50.7123
-46.6237
-46.6536
-51.3206
-60.8591
-75.2645
-94.2434
-117.16
-142.986
-170.402
-197.88
-223.668
-246.089
-263.512
-274.734
-278.469
-273.85
-260.636
-239.659
-212.209
-179.557
-142.87
-103.615
-65.495
-30.936
-8.66852
2.5474
3.13179
-2.66781
-10.932
-18.9651
-24.6523
-27.2052
-25.8067
-20.1611
-9.43581
7.63352
32.1492
64.3834
103.223
146.707
191.506
234.349
272.58
-61.3827
-65.4137
-69.2856
-73.1068
-76.8934
-80.691
-84.5651
-88.5936
-92.884
-97.5276
-102.574
-108.052
-113.955
-120.264
-126.934
-133.888
-141.041
-148.334
-155.751
-163.296
-170.932
-178.566
-186.007
-193.158
-199.995
-206.726
-213.493
-220.366
-227.25
-233.863
-239.916
-245.2
-249.618
-253.165
-255.906
-257.938
-259.356
-260.241
-260.651
-260.629
-260.204
-259.39
-258.188
-256.591
-254.598
-252.209
-249.446
-246.335
-242.902
-239.16
-235.103
-230.695
-225.873
-220.547
-214.613
-207.967
-200.526
-192.227
-183.028
-172.898
-161.801
-149.681
-136.451
-122.003
-106.222
-89.0139
-70.3284
-50.1659
-28.5813
-5.67739
18.3799
43.369
69.0161
94.9673
120.801
146.01
170.025
192.229
211.991
228.693
241.756
250.685
255.1
254.745
249.482
239.361
224.602
205.593
182.871
157.064
128.815
98.7824
67.6747
36.2819
5.42528
-24.6368
-51.8993
-76.4937
-97.8091
-115.265
-128.436
-137.094
-141.219
-141.009
-136.817
-129.188
-118.852
-106.676
-93.5858
-80.5338
-68.4601
-58.2439
-50.709
-46.6198
-46.6493
-51.316
-60.8544
-75.2601
-94.2397
-117.157
-142.985
-170.402
-197.882
-223.671
-246.094
-263.518
-274.741
-278.477
-273.858
-260.644
-239.666
-212.214
-179.561
-142.872
-103.614
-65.4899
-30.927
-8.65799
2.55691
3.13814
-2.66501
-10.9323
-18.9673
-24.6554
-27.209
-25.8111
-20.1661
-9.44182
7.62659
32.142
64.3771
103.219
146.705
191.508
234.353
272.586
-61.3828
-65.4138
-69.2855
-73.1067
-76.8932
-80.6909
-84.5649
-88.5933
-92.8837
-97.5272
-102.574
-108.052
-113.955
-120.263
-126.933
-133.888
-141.041
-148.334
-155.751
-163.296
-170.932
-178.566
-186.008
-193.159
-199.995
-206.726
-213.493
-220.366
-227.251
-233.864
-239.917
-245.201
-249.619
-253.166
-255.907
-257.938
-259.357
-260.241
-260.651
-260.629
-260.205
-259.39
-258.188
-256.592
-254.598
-252.21
-249.446
-246.335
-242.902
-239.161
-235.103
-230.696
-225.874
-220.548
-214.613
-207.968
-200.527
-192.228
-183.029
-172.899
-161.802
-149.682
-136.452
-122.005
-106.224
-89.0155
-70.33
-50.1674
-28.5828
-5.67864
18.3789
43.3683
69.0158
94.9674
120.802
146.011
170.027
192.232
211.995
228.696
241.76
250.69
255.105
254.75
249.487
239.366
224.606
205.597
182.875
157.066
128.817
98.7834
67.6748
36.2813
5.4239
-24.6391
-51.9022
-76.4973
-97.8133
-115.269
-128.441
-137.099
-141.223
-141.013
-136.821
-129.191
-118.854
-106.677
-93.5857
-80.5328
-68.4582
-58.241
-50.7053
-46.6155
-46.6444
-51.3108
-60.8492
-75.2553
-94.2356
-117.154
-142.983
-170.402
-197.883
-223.675
-246.099
-263.525
-274.749
-278.486
-273.867
-260.652
-239.673
-212.22
-179.565
-142.874
-103.613
-65.4842
-30.9171
-8.64628
2.56747
3.14521
-2.6619
-10.9326
-18.9698
-24.6588
-27.2132
-25.8159
-20.1716
-9.4485
7.61889
32.134
64.3701
103.214
146.704
191.51
234.358
272.592
-61.3831
-65.414
-69.2858
-73.1069
-76.8934
-80.6909
-84.5647
-88.593
-92.8833
-97.5267
-102.573
-108.051
-113.954
-120.263
-126.933
-133.887
-141.041
-148.333
-155.75
-163.296
-170.932
-178.566
-186.008
-193.159
-199.995
-206.726
-213.493
-220.366
-227.251
-233.865
-239.918
-245.202
-249.62
-253.167
-255.908
-257.939
-259.358
-260.242
-260.652
-260.63
-260.205
-259.391
-258.189
-256.592
-254.599
-252.21
-249.447
-246.335
-242.903
-239.161
-235.104
-230.696
-225.874
-220.549
-214.614
-207.969
-200.528
-192.229
-183.03
-172.9
-161.803
-149.683
-136.454
-122.006
-106.225
-89.0173
-70.3318
-50.1691
-28.5843
-5.68002
18.3777
43.3675
69.0154
94.9675
120.803
146.012
170.029
192.235
211.998
228.701
241.765
250.695
255.11
254.756
249.493
239.371
224.611
205.602
182.878
157.069
128.819
98.7845
67.675
36.2806
5.42238
-24.6416
-51.9055
-76.5012
-97.8179
-115.274
-128.446
-137.104
-141.228
-141.018
-136.825
-129.194
-118.856
-106.678
-93.5857
-80.5316
-68.456
-58.2379
-50.7013
-46.6107
-46.639
-51.3051
-60.8435
-75.25
-94.2311
-117.151
-142.981
-170.402
-197.886
-223.679
-246.105
-263.533
-274.758
-278.495
-273.877
-260.661
-239.68
-212.226
-179.569
-142.876
-103.612
-65.478
-30.9062
-8.63341
2.57909
3.15298
-2.65848
-10.9329
-18.9725
-24.6626
-27.2179
-25.8211
-20.1778
-9.45584
7.61043
32.1251
64.3624
103.209
146.702
191.512
234.363
272.599
-61.3833
-65.4142
-69.2857
-73.1067
-76.8931
-80.6907
-84.5645
-88.5927
-92.8828
-97.5262
-102.573
-108.051
-113.954
-120.262
-126.933
-133.887
-141.041
-148.333
-155.75
-163.296
-170.932
-178.567
-186.008
-193.159
-199.995
-206.726
-213.493
-220.366
-227.251
-233.865
-239.919
-245.204
-249.621
-253.168
-255.909
-257.94
-259.358
-260.243
-260.652
-260.63
-260.206
-259.391
-258.189
-256.593
-254.599
-252.211
-249.447
-246.336
-242.903
-239.162
-235.104
-230.697
-225.875
-220.549
-214.615
-207.97
-200.529
-192.23
-183.031
-172.902
-161.804
-149.685
-136.455
-122.008
-106.227
-89.0192
-70.3337
-50.171
-28.586
-5.68153
18.3765
43.3667
69.015
94.9677
120.804
146.014
170.031
192.238
212.002
228.705
241.77
250.701
255.116
254.762
249.499
239.377
224.617
205.606
182.882
157.072
128.821
98.7856
67.6752
36.2798
5.42072
-24.6444
-51.909
-76.5056
-97.8229
-115.28
-128.452
-137.11
-141.234
-141.023
-136.829
-129.197
-118.858
-106.679
-93.5856
-80.5304
-68.4537
-58.2345
-50.6969
-46.6055
-46.6332
-51.2989
-60.8373
-75.2442
-94.2262
-117.147
-142.979
-170.402
-197.888
-223.683
-246.112
-263.541
-274.767
-278.506
-273.888
-260.671
-239.689
-212.232
-179.574
-142.879
-103.611
-65.4711
-30.8943
-8.61936
2.59177
3.16145
-2.65475
-10.9332
-18.9754
-24.6667
-27.223
-25.8269
-20.1844
-9.46386
7.60119
32.1155
64.354
103.203
146.701
191.514
234.369
272.606
-61.3835
-65.4144
-69.286
-73.107
-76.8934
-80.6906
-84.5643
-88.5923
-92.8824
-97.5256
-102.572
-108.05
-113.953
-120.262
-126.932
-133.887
-141.04
-148.333
-155.75
-163.296
-170.932
-178.567
-186.009
-193.16
-199.996
-206.726
-213.493
-220.366
-227.252
-233.866
-239.92
-245.205
-249.622
-253.169
-255.91
-257.941
-259.359
-260.243
-260.653
-260.631
-260.206
-259.392
-258.19
-256.593
-254.6
-252.211
-249.448
-246.336
-242.903
-239.162
-235.105
-230.697
-225.876
-220.55
-214.616
-207.971
-200.53
-192.231
-183.032
-172.903
-161.806
-149.686
-136.457
-122.01
-106.229
-89.0212
-70.3358
-50.173
-28.5879
-5.68315
18.3752
43.3657
69.0146
94.9678
120.804
146.015
170.034
192.241
212.006
228.71
241.776
250.708
255.123
254.769
249.506
239.384
224.623
205.612
182.886
157.075
128.823
98.7869
67.6755
36.279
5.41893
-24.6473
-51.9128
-76.5102
-97.8283
-115.286
-128.458
-137.117
-141.24
-141.028
-136.834
-129.201
-118.86
-106.68
-93.5855
-80.529
-68.4511
-58.2308
-50.6922
-46.5998
-46.6269
-51.2921
-60.8305
-75.238
-94.2209
-117.143
-142.977
-170.402
-197.89
-223.688
-246.118
-263.549
-274.778
-278.518
-273.899
-260.682
-239.698
-212.239
-179.579
-142.882
-103.609
-65.4637
-30.8814
-8.60413
2.6055
3.17063
-2.65071
-10.9336
-18.9786
-24.6712
-27.2285
-25.8331
-20.1917
-9.47254
7.59118
32.1051
64.3449
103.197
146.699
191.517
234.375
272.614
-61.384
-65.4146
-69.2857
-73.1065
-76.8929
-80.6904
-84.5639
-88.5917
-92.8816
-97.5247
-102.571
-108.049
-113.952
-120.261
-126.932
-133.887
-141.04
-148.333
-155.75
-163.296
-170.932
-178.567
-186.009
-193.16
-199.996
-206.726
-213.493
-220.366
-227.252
-233.867
-239.922
-245.207
-249.624
-253.171
-255.911
-257.942
-259.36
-260.244
-260.654
-260.632
-260.207
-259.393
-258.19
-256.594
-254.6
-252.212
-249.448
-246.337
-242.904
-239.163
-235.105
-230.698
-225.877
-220.552
-214.618
-207.973
-200.532
-192.233
-183.035
-172.905
-161.808
-149.689
-136.46
-122.013
-106.233
-89.0246
-70.3391
-50.1762
-28.5909
-5.68578
18.3731
43.3642
69.0138
94.9681
120.806
146.018
170.038
192.247
212.013
228.719
241.785
250.718
255.134
254.78
249.516
239.394
224.632
205.62
182.893
157.081
128.827
98.789
67.6758
36.2776
5.41603
-24.6521
-51.919
-76.5178
-97.837
-115.295
-128.468
-137.127
-141.25
-141.037
-136.842
-129.207
-118.864
-106.682
-93.5854
-80.5269
-68.447
-58.2248
-50.6845
-46.5907
-46.6167
-51.2813
-60.8197
-75.2278
-94.2123
-117.137
-142.974
-170.402
-197.894
-223.696
-246.13
-263.564
-274.794
-278.536
-273.918
-260.7
-239.712
-212.251
-179.588
-142.886
-103.607
-65.4518
-30.8605
-8.57954
2.62769
3.18547
-2.64418
-10.9341
-18.9838
-24.6784
-27.2373
-25.8432
-20.2033
-9.48656
7.57501
32.0883
64.3302
103.187
146.696
191.521
234.385
272.627
-61.3848
-65.4154
-69.2868
-73.1077
-76.8936
-80.6902
-84.5634
-88.5909
-92.8804
-97.5234
-102.57
-108.048
-113.951
-120.26
-126.931
-133.886
-141.04
-148.333
-155.75
-163.296
-170.932
-178.568
-186.01
-193.161
-199.997
-206.726
-213.493
-220.366
-227.253
-233.869
-239.924
-245.21
-249.627
-253.174
-255.914
-257.944
-259.362
-260.246
-260.655
-260.633
-260.208
-259.394
-258.192
-256.596
-254.602
-252.213
-249.45
-246.338
-242.905
-239.164
-235.107
-230.7
-225.879
-220.554
-214.62
-207.976
-200.535
-192.236
-183.038
-172.908
-161.812
-149.692
-136.464
-122.018
-106.237
-89.0297
-70.3442
-50.1812
-28.5955
-5.68979
18.3698
43.362
69.0128
94.9685
120.808
146.022
170.044
192.255
212.024
228.731
241.799
250.733
255.15
254.797
249.533
239.41
224.647
205.632
182.904
157.089
128.833
98.7921
67.6764
36.2756
5.41161
-24.6594
-51.9284
-76.5293
-97.8503
-115.31
-128.483
-137.142
-141.264
-141.051
-136.853
-129.216
-118.871
-106.685
-93.5852
-80.5235
-68.4407
-58.2157
-50.6729
-46.5768
-46.6009
-51.2647
-60.8031
-75.2124
-94.1992
-117.128
-142.969
-170.403
-197.9
-223.708
-246.147
-263.585
-274.82
-278.564
-273.947
-260.726
-239.735
-212.268
-179.601
-142.893
-103.604
-65.4335
-30.8287
-8.54205
2.66152
3.20807
-2.63424
-10.935
-18.9916
-24.6895
-27.2509
-25.8585
-20.2211
-9.50792
7.55037
32.0627
64.3078
103.172
146.691
191.527
234.399
272.647
-61.3856
-65.4155
-69.286
-73.1063
-76.8927
-80.6898
-84.5628
-88.5899
-92.8791
-97.5218
-102.568
-108.046
-113.949
-120.259
-126.93
-133.885
-141.039
-148.332
-155.749
-163.296
-170.932
-178.569
-186.011
-193.163
-199.997
-206.726
-213.493
-220.366
-227.254
-233.871
-239.927
-245.213
-249.631
-253.177
-255.917
-257.947
-259.364
-260.248
-260.657
-260.635
-260.21
-259.396
-258.193
-256.597
-254.603
-252.215
-249.451
-246.339
-242.906
-239.165
-235.108
-230.701
-225.881
-220.556
-214.623
-207.979
-200.538
-192.24
-183.041
-172.912
-161.816
-149.697
-136.469
-122.023
-106.243
-89.0354
-70.35
-50.1867
-28.6006
-5.6943
18.3662
43.3594
69.0115
94.9689
120.81
146.027
170.051
192.265
212.035
228.745
241.815
250.75
255.168
254.816
249.552
239.428
224.663
205.647
182.916
157.098
128.839
98.7956
67.677
36.2732
5.40664
-24.6676
-51.939
-76.5423
-97.8653
-115.326
-128.501
-137.16
-141.281