/*--------------------------------*- C++ -*----------------------------------*\
| =========                 |                                                 |
| \\      /  F ield         | OpenFOAM: The Open Source CFD Toolbox           |
|  \\    /   O peration     | Version:  v1912                                 |
|   \\  /    A nd           | Website:  www.openfoam.com                      |
|    \\/     M anipulation  |                                                 |
\*---------------------------------------------------------------------------*/
FoamFile
{
    version     2.0;
    format      ascii;
    class       volScalarField;
    location    "80";
    object      alpha.water;
}
// * * * * * * * * * * * * * * * * * * * * * * * * * * * * * * * * * * * * * //

dimensions      [0 0 0 0 0 0 0];


internalField   nonuniform List<scalar> 
14268
(
1
1
1
1
1
1
1
1
1
1
1
1
1
1
1
1
1
1
1
0.999992
0.999797
0.997292
0.992097
0.992043
0.992754
0.992575
0.990689
0.989461
0.987661
0.978809
0.875509
0.784341
0.672205
0.672228
0.672207
0.720209
0.688293
0.63987
0.712204
0.712184
0.670756
0.652823
0.562718
0.660131
0.61966
0.482031
0.495457
0.539732
0.559846
0.564421
0.481417
0.417516
0.476736
0.451761
0.333652
0.328586
0.328421
0.237006
0.178266
0.165383
0.166718
0.166718
0.145112
0.108379
0.108377
0.105769
0.107347
0.136045
0.130227
0.130382
0.103231
0.116629
0.12576
0.122225
0.0883327
0.0998233
0.114894
0.114915
0.114936
0.115275
0.0774857
0.0403977
0.038011
0.0361019
0.0329677
0.031235
0.0380457
0.0350114
0.0186812
0.0186811
0.0186812
0.0270054
0.0144581
0.0144581
0.0155904
0.0164586
0.0126011
0.0124529
0.012458
0.0155783
0.0168065
0.0145404
0.0112469
0.00867659
1
1
1
1
1
1
1
1
1
1
1
1
1
1
1
1
1
1
1
0.999979
0.999728
0.998207
0.99374
0.993862
0.997213
0.998379
0.998343
0.998343
0.997558
0.98956
0.921451
0.718028
0.672226
0.76914
0.694829
0.617132
0.617118
0.623026
0.68974
0.492616
0.483722
0.525216
0.347172
0.660002
0.691545
0.501387
0.50109
0.307677
0.327204
0.580398
0.442293
0.492664
0.473417
0.483312
0.378865
0.413029
0.48494
0.31007
0.106797
0.0789242
0.117046
0.139944
0.0665386
0.110627
0.0846199
0.130276
0.279421
0.314988
0.264897
0.130475
0.0612766
0.0707659
0.125749
0.12576
0.0881721
0.0664169
0.0944212
0.0809691
0.0867984
0.116145
0.116391
0.0827616
0.0712738
0.0379446
0.0284158
0.024658
0.0246855
0.0453804
0.0186811
0.0186812
0.0440524
0.0439227
0.0299324
0.0165826
0.0572397
0.0529772
0.0485241
0.0291391
0.0310001
0.0320822
0.032077
0.0320822
0.0315466
0.0259259
1
1
1
1
1
1
1
1
1
1
1
1
1
1
1
1
1
1
1
0.99999
0.999869
0.999174
0.99686
0.997222
0.998415
0.99854
0.99854
0.998218
0.998488
0.997184
0.953841
0.672399
0.815905
0.968692
0.920064
0.74842
0.617111
0.639944
0.55449
0.479223
0.587225
0.908252
0.478705
0.633858
0.691577
0.691545
0.363071
0.312873
0.30011
0.580338
0.435317
0.37217
0.13113
0.360344
0.523631
0.574758
0.574762
0.358502
0.0895396
0.037098
0.0371555
0.0575803
0.0575323
0.146091
0.0845879
0.227702
0.31538
0.31529
0.0978137
0.0612766
0.0612765
0.0612765
0.078397
0.108279
0.149167
0.0567479
0.0341632
0.0341704
0.0369216
0.080231
0.117199
0.117199
0.117199
0.114423
0.0878444
0.0618554
0.0488716
0.0488366
0.019591
0.0503768
0.074718
0.0357585
0.0561864
0.0266126
0.0727701
0.0727397
0.0730388
0.0578736
0.0380243
0.0190585
0.0135613
0.022942
0.034796
0.0394419
1
1
1
1
1
1
1
1
1
1
1
1
1
1
1
1
1
1
0.999994
0.999914
0.99987
0.999792
0.999251
0.998807
0.996631
0.99583
0.994998
0.988199
0.994214
0.997181
0.979143
0.672396
0.907825
0.979963
0.967399
0.831056
0.637513
0.68302
0.455084
0.539153
0.934458
0.934449
0.925686
0.609974
0.691545
0.607064
0.352368
0.672521
0.400554
0.563163
0.290867
0.0977561
0.0706243
0.0894853
0.574755
0.574761
0.574763
0.488381
0.117754
0.0376444
0.0363185
0.0363152
0.0752333
0.18315
0.215933
0.227072
0.0860947
0.135092
0.0612766
0.0612766
0.0631769
0.0612765
0.0612765
0.129861
0.159836
0.121236
0.0404439
0.0603972
0.0582227
0.0572076
0.106871
0.113095
0.11175
0.117247
0.117247
0.105132
0.0184072
0.0488012
0.0354343
0.0747181
0.0747179
0.0123213
0.0597316
0.0585211
0.0591235
0.00877163
0.0210662
0.0266318
0.00860424
0.00490051
0.00276697
0.00204771
0.00210315
0.00943591
1
1
1
1
1
1
1
1
1
1
1
1
1
1
1
1
1
1
1
0.999614
0.999335
0.999535
0.999534
0.998061
0.991775
0.988875
0.987454
0.97942
0.98288
0.996772
0.993889
0.672399
0.967876
0.979949
0.979961
0.785421
0.853762
0.796986
0.455199
0.695289
0.934455
0.934458
0.934448
0.442692
0.585184
0.366788
0.456488
0.690805
0.690806
0.220933
0.162676
0.0719671
0.0706243
0.0706243
0.490864
0.558639
0.364127
0.487871
0.162934
0.197448
0.0363152
0.0679268
0.25531
0.112473
0.266315
0.196867
0.062664
0.0503852
0.0699889
0.143651
0.206512
0.143593
0.0617071
0.156868
0.159835
0.159836
0.133081
0.133279
0.055442
0.0469375
0.0495298
0.0364728
0.0362974
0.104963
0.117247
0.117246
0.00922008
0.0428907
0.0747181
0.0747178
0.0747181
0.00791858
0.03462
0.0721981
0.0150574
0.00363873
0.00431961
0.0247404
0.0298168
0.0303011
0.00444179
0.0013643
0.0013643
0.0015824
1
1
1
1
1
1
1
1
1
1
1
1
1
1
1
1
1
1
1
0.999944
0.999208
0.99919
0.998966
0.993811
0.985971
0.985022
0.983428
0.980074
0.979513
0.993517
0.993891
0.672396
0.967878
0.921325
0.924579
0.846417
0.895125
0.82321
0.455084
0.851744
0.93449
0.934454
0.934458
0.215106
0.19266
0.247937
0.685739
0.670893
0.690805
0.186174
0.430885
0.40622
0.0706243
0.319882
0.250627
0.206917
0.109988
0.428634
0.204065
0.442392
0.305768
0.164752
0.30982
0.112215
0.26601
0.0984072
0.098208
0.0503848
0.172453
0.219259
0.219285
0.219259
0.166478
0.100789
0.141525
0.155941
0.15604
0.0532257
0.0173947
0.0585674
0.0227205
0.0227396
0.0240539
0.0640586
0.117247
0.0729576
0.00925368
0.0288054
0.0618408
0.0383915
0.0547297
0.00789247
0.00889374
0.0721599
0.00396164
0.00363604
0.00363599
0.0202926
0.0425194
0.0425176
0.014061
0.0013643
0.0013643
0.0013643
1
1
1
1
1
1
1
1
1
1
1
1
1
1
1
1
1
1
1
0.999978
0.9996
0.99898
0.99734
0.983566
0.987523
0.996909
0.99822
0.996592
0.985337
0.988359
0.992029
0.712554
0.94671
0.777182
0.80436
0.895125
0.895106
0.741951
0.509237
0.9204
0.9345
0.885253
0.90413
0.187242
0.187266
0.200545
0.64988
0.201833
0.457433
0.186644
0.674426
0.721655
0.296645
0.683679
0.0951159
0.0935355
0.0934881
0.138149
0.150501
0.442515
0.365813
0.309396
0.309779
0.130607
0.144555
0.0757722
0.0665436
0.050385
0.219005
0.21924
0.219259
0.219242
0.219209
0.0906401
0.0493836
0.049742
0.128899
0.0234196
0.0105125
0.0565132
0.0126349
0.0314268
0.0983869
0.112415
0.107394
0.0279448
0.0246788
0.0114208
0.0226947
0.0052453
0.0073183
0.00810509
0.00722976
0.0721965
0.00363604
0.00363599
0.00363274
0.0124496
0.039556
0.0425194
0.0217756
0.00728071
0.0021319
0.0013643
1
1
1
1
1
1
1
1
1
1
1
1
1
1
1
1
1
1
1
0.999965
0.999539
0.998329
0.991001
0.979294
0.991852
0.998594
0.998486
0.998603
0.986989
0.994782
0.994767
0.877662
0.875673
0.781838
0.781137
0.891528
0.895102
0.715709
0.642788
0.934498
0.93449
0.634002
0.453626
0.277119
0.187242
0.254388
0.177246
0.132852
0.132866
0.379673
0.430019
0.722164
0.726085
0.721879
0.136254
0.10579
0.0935355
0.313717
0.158334
0.442392
0.169609
0.309787
0.309827
0.20069
0.0504487
0.0613731
0.050385
0.0503846
0.0556411
0.219206
0.219239
0.11204
0.12356
0.0590993
0.0202383
0.0340945
0.0454814
0.0111352
0.0103889
0.013232
0.0104139
0.11214
0.112415
0.112392
0.0799876
0.0180062
0.034793
0.00886767
0.00909267
0.00524531
0.00524531
0.0338328
0.0235246
0.0721588
0.00366133
0.00363274
0.00363024
0.00607817
0.0277502
0.0425176
0.0266294
0.0291865
0.0167708
0.0013643
1
1
1
1
1
1
1
1
1
1
1
1
1
1
1
1
1
1
1
0.999951
0.998497
0.995232
0.976118
0.979257
0.995499
0.998819
0.998428
0.998824
0.976876
0.993089
0.996164
0.961364
0.875742
0.969298
0.95071
0.792498
0.895102
0.761465
0.901472
0.934487
0.916242
0.818928
0.162592
0.594628
0.194065
0.396537
0.0863645
0.310584
0.108073
0.594496
0.147807
0.708706
0.728309
0.324035
0.323409
0.323262
0.212733
0.53324
0.27057
0.310699
0.0715289
0.292023
0.176042
0.295504
0.0504548
0.0504451
0.0503986
0.0535162
0.0913313
0.206442
0.219205
0.0389459
0.0591704
0.0325988
0.0181798
0.0617371
0.0127761
0.0116563
0.0178032
0.00866125
0.0103879
0.0618593
0.0315842
0.0380691
0.0430655
0.0117007
0.0398642
0.00887844
0.030195
0.0211601
0.00524532
0.0534428
0.0171374
0.0552244
0.00491792
0.003949
0.00362299
0.00362405
0.0145798
0.0295563
0.0285286
0.0406912
0.0395522
0.00150111
1
1
1
1
1
1
1
1
1
1
1
1
1
1
1
1
1
1
1
1
0.992622
0.980895
0.974233
0.983837
0.9972
0.998823
0.998823
0.998824
0.976915
0.989616
0.996164
0.978201
0.889631
0.978911
0.96442
0.604276
0.895111
0.66185
0.929123
0.928986
0.851459
0.965702
0.162539
0.864543
0.187242
0.428688
0.0864894
0.70466
0.117854
0.594496
0.147823
0.5325
0.727953
0.0425568
0.221779
0.249563
0.557118
0.557118
0.529648
0.063129
0.0438501
0.133692
0.0446029
0.295707
0.129713
0.0504571
0.0504451
0.194786
0.232517
0.0795913
0.219177
0.0227468
0.0227542
0.0228885
0.0181787
0.0548913
0.0123917
0.0157921
0.0204505
0.0102646
0.019751
0.0155525
0.00890659
0.0144529
0.0184646
0.00768683
0.0397811
0.024931
0.0477604
0.0692551
0.0055727
0.0534113
0.00983604
0.0189157
0.00362928
0.00362167
0.00362328
0.00362269
0.00999995
0.00783098
0.0278843
0.0406972
0.0406912
0.00157827
1
1
1
1
1
1
1
1
1
1
1
1
1
1
1
1
1
1
1
1
0.995976
0.974233
0.974233
0.990615
0.998757
0.998823
0.998823
0.996451
0.987876
0.987867
0.993151
0.989192
0.958099
0.980139
0.976804
0.618206
0.559537
0.243581
0.759725
0.814851
0.874442
0.965695
0.162598
0.902846
0.187213
0.393803
0.210261
0.704339
0.109494
0.520283
0.266848
0.452399
0.728076
0.0424319
0.0606196
0.0754637
0.427511
0.557118
0.557118
0.0438501
0.0437676
0.0438495
0.0437668
0.256292
0.255261
0.0739554
0.0522939
0.243684
0.243672
0.0227496
0.0847991
0.0227517
0.0227468
0.0699269
0.0723792
0.0163782
0.012395
0.0326796
0.0392293
0.0259206
0.040003
0.0111681
0.00890666
0.00907533
0.00966588
0.00552507
0.0252609
0.0384577
0.0173344
0.0727127
0.0055008
0.0534428
0.00520374
0.00362915
0.00362545
0.0036258
0.00362311
0.00362355
0.00657898
0.00660479
0.0375461
0.040622
0.0406972
0.00140526
1
1
1
1
1
1
1
1
1
1
1
1
1
1
1
1
1
1
1
1
0.999225
0.976496
0.974233
0.988267
0.996753
0.998823
0.998773
0.98451
0.984816
0.986542
0.996159
0.996162
0.983802
0.980235
0.980139
0.739069
0.197618
0.197632
0.383799
0.726404
0.966
0.965589
0.278237
0.902814
0.403566
0.24703
0.636395
0.700364
0.0987931
0.105911
0.556807
0.727959
0.727923
0.0434964
0.0420893
0.0421098
0.121557
0.557118
0.414048
0.043769
0.0837601
0.0689232
0.0972665
0.110374
0.125096
0.128652
0.0859764
0.243672
0.199578
0.0227477
0.0227484
0.0227564
0.0230337
0.12381
0.165415
0.0164684
0.0285723
0.0906001
0.0611306
0.0497424
0.0601714
0.0349883
0.00897249
0.00558359
0.00552507
0.00552553
0.0116695
0.0384576
0.0159667
0.0726254
0.00588464
0.0436689
0.00435088
0.00362544
0.00362735
0.0036235
0.00362354
0.00361931
0.0040597
0.0266392
0.0408399
0.0408257
0.0252817
0.00140119
1
1
1
1
1
1
1
1
1
1
1
1
1
1
1
1
1
1
1
1
0.999962
0.986076
0.974233
0.985175
0.993345
0.997181
0.994946
0.96595
0.968456
0.984738
0.996163
0.995308
0.951055
0.971589
0.976076
0.817243
0.197632
0.210929
0.719365
0.942249
0.966005
0.96605
0.705735
0.899172
0.836525
0.247698
0.710723
0.561444
0.200276
0.290168
0.132581
0.591566
0.727959
0.0420809
0.0470748
0.041916
0.0352549
0.496254
0.127354
0.0481755
0.328589
0.159223
0.275523
0.0369099
0.0369093
0.128442
0.0288241
0.243683
0.0714196
0.0232947
0.0231571
0.0227464
0.0227466
0.136862
0.165382
0.0262355
0.132838
0.151415
0.107611
0.0943652
0.0726874
0.0901277
0.0153321
0.00748256
0.0113197
0.0166487
0.0082751
0.0248586
0.0187449
0.0704287
0.00619729
0.0106565
0.0052946
0.00449159
0.00758208
0.00394871
0.00532968
0.0050581
0.0108006
0.0408683
0.0408539
0.0408402
0.00535521
0.00317053
1
1
1
1
1
1
1
1
1
1
1
1
1
1
1
1
1
1
1
1
1
0.993946
0.979437
0.97948
0.989188
0.993691
0.986216
0.946772
0.930917
0.980882
0.996159
0.988095
0.748641
0.954032
0.969656
0.892389
0.197618
0.352073
0.926926
0.963058
0.96564
0.966007
0.783371
0.538804
0.842154
0.619613
0.712101
0.711258
0.43612
0.684479
0.132449
0.191712
0.727775
0.0420878
0.109467
0.108734
0.0352549
0.193625
0.0900003
0.076124
0.33815
0.255999
0.303968
0.0369093
0.0388682
0.0589678
0.028818
0.219696
0.0339422
0.0227536
0.0912637
0.0227466
0.0227464
0.0664683
0.16542
0.0863725
0.151415
0.151415
0.151416
0.151416
0.0965412
0.0962776
0.0232481
0.0114444
0.019723
0.0296955
0.00818432
0.00901659
0.0626142
0.0723762
0.00788186
0.00561447
0.00831735
0.00371042
0.0117425
0.00876163
0.0100984
0.0106388
0.0248523
0.0408539
0.0408397
0.0362803
0.00540817
0.00636906
1
1
1
1
1
1
1
1
1
1
1
1
1
1
1
1
1
1
1
1
0.999999
0.997525
0.994221
0.989808
0.986181
0.986198
0.9738
0.933748
0.908374
0.919984
0.980303
0.974707
0.737579
0.979202
0.981141
0.956552
0.347162
0.631898
0.95068
0.965962
0.965638
0.966002
0.778888
0.166208
0.7612
0.722682
0.720701
0.583742
0.701194
0.701103
0.169669
0.130579
0.59797
0.128117
0.212804
0.303812
0.0352549
0.0405482
0.097574
0.359935
0.137436
0.164251
0.303911
0.0710992
0.162749
0.0288202
0.0288268
0.243758
0.0267543
0.0227517
0.197998
0.109183
0.134735
0.0664741
0.165378
0.150617
0.113524
0.106563
0.151415
0.151416
0.141732
0.077394
0.055459
0.0220678
0.0260791
0.0309273
0.0303903
0.00865244
0.0723776
0.0723782
0.00737463
0.00358313
0.0127292
0.00370769
0.0117335
0.0117144
0.0130712
0.0266501
0.0408395
0.040854
0.0403517
0.0240243
0.00547296
0.0129058
1
1
1
1
1
1
1
1
1
1
1
1
1
1
1
1
1
1
0.999999
0.999998
0.999998
0.999688
0.99981
0.998197
0.995983
0.980908
0.970758
0.993865
0.99095
0.881047
0.886848
0.887962
0.819611
0.981145
0.981147
0.953437
0.871454
0.884597
0.740212
0.965961
0.965968
0.965999
0.643493
0.160778
0.170595
0.612808
0.698992
0.372267
0.471191
0.584232
0.519043
0.130578
0.508431
0.46261
0.326413
0.326152
0.136764
0.0441095
0.221256
0.433817
0.0680391
0.141728
0.208004
0.0756113
0.173515
0.028862
0.0476317
0.243911
0.0492177
0.190389
0.197992
0.0977949
0.155691
0.140439
0.0798909
0.149909
0.0340475
0.0331024
0.100768
0.143785
0.143501
0.0516311
0.0663473
0.0463042
0.00664458
0.00868721
0.0167378
0.0363087
0.0723605
0.0322491
0.00358437
0.00358354
0.0127117
0.0126859
0.00326209
0.00325682
0.00382212
0.0102458
0.0112542
0.0186336
0.0403331
0.0127127
0.0137207
0.0163768
1
1
1
1
1
1
1
1
1
1
1
1
1
1
1
1
1
1
0.999999
0.999995
0.999997
0.999997
0.999956
0.996573
0.996246
0.993842
0.986354
0.996508
0.996505
0.881285
0.882387
0.94837
0.965109
0.981149
0.970008
0.94016
0.940132
0.922764
0.722709
0.965944
0.965961
0.96582
0.558093
0.160778
0.503934
0.480842
0.507798
0.43081
0.344898
0.148397
0.518361
0.133305
0.463334
0.558683
0.179505
0.306953
0.306833
0.101294
0.458476
0.435027
0.0601881
0.0310758
0.0310469
0.0552917
0.171314
0.0335919
0.196732
0.15657
0.0453582
0.133114
0.172821
0.054552
0.122314
0.153108
0.0238226
0.0637405
0.0329685
0.0329679
0.0750606
0.119262
0.119915
0.0280245
0.0606437
0.0196113
0.0063266
0.00632987
0.00758688
0.0285196
0.0264093
0.00652211
0.00358466
0.00358448
0.00895295
0.00890526
0.00325697
0.0032518
0.00329804
0.00325498
0.00634207
0.00489534
0.0396182
0.0127214
0.0164063
0.0163918
1
1
1
1
1
1
1
1
1
1
1
1
1
1
1
1
1
1
0.999999
0.999989
0.999994
0.999997
0.999892
0.988756
0.992446
0.998109
0.997146
0.996235
0.99183
0.943955
0.957125
0.981147
0.981151
0.981147
0.981124
0.916263
0.918829
0.738111
0.755668
0.965934
0.903831
0.859297
0.544046
0.160778
0.726811
0.347511
0.475766
0.706963
0.586545
0.0762787
0.447468
0.16793
0.312747
0.557882
0.0567668
0.0934261
0.112487
0.408571
0.458769
0.211733
0.0319374
0.0310469
0.0310715
0.0633984
0.0557745
0.0306584
0.243752
0.243764
0.0438364
0.0509721
0.032312
0.054117
0.054554
0.153111
0.0238831
0.0238138
0.0696643
0.0329685
0.0501752
0.0756339
0.0704251
0.0105431
0.0195044
0.00632189
0.00632483
0.00632682
0.00633015
0.00839426
0.00628899
0.00558674
0.00559786
0.00358478
0.0035861
0.00360854
0.00478842
0.003247
0.00324503
0.00325007
0.00593013
0.00482595
0.0252109
0.0164343
0.0164205
0.0164064
1
1
1
1
1
1
1
1
1
1
1
1
1
1
1
1
1
1
0.999997
0.999955
0.999981
0.999992
0.997539
0.987942
0.989906
0.998144
0.997253
0.989766
0.964382
0.98699
0.988659
0.97992
0.981148
0.981152
0.981148
0.906022
0.526563
0.441813
0.870924
0.924295
0.679754
0.66372
0.7288
0.371119
0.725878
0.218427
0.706963
0.706963
0.598728
0.0762787
0.116773
0.171655
0.404864
0.497603
0.0561485
0.0561485
0.0561611
0.458769
0.458745
0.0359531
0.0311123
0.0311124
0.0311067
0.0642367
0.0288483
0.0335647
0.243765
0.243756
0.0455795
0.0362379
0.0299674
0.139583
0.0938722
0.108392
0.0652362
0.0238777
0.108546
0.0554367
0.0387035
0.056499
0.0485159
0.0104906
0.0063171
0.00631953
0.0063212
0.00907116
0.00657928
0.00558701
0.00558674
0.00558701
0.014848
0.0035861
0.00358628
0.00358628
0.013484
0.00324238
0.00324012
0.00386625
0.00493919
0.0048132
0.00851405
0.0163145
0.00858486
0.00894966
1
1
1
1
1
1
1
1
1
1
1
1
1
1
1
1
1
1
0.99998
0.999241
0.999552
0.999954
0.995348
0.987945
0.993803
0.998144
0.990941
0.983721
0.93101
0.988659
0.988662
0.719089
0.98115
0.971488
0.98115
0.944225
0.440237
0.440606
0.935562
0.806762
0.495302
0.546719
0.741937
0.723442
0.307172
0.218428
0.70696
0.706963
0.46398
0.125208
0.124394
0.241658
0.534105
0.51772
0.0979585
0.0562326
0.0561615
0.307778
0.458759
0.0323527
0.0496386
0.031112
0.03111
0.172881
0.0288483
0.0990525
0.243755
0.137
0.149576
0.0669657
0.0301117
0.145577
0.145611
0.0604029
0.078018
0.0353152
0.114235
0.114141
0.0387053
0.0479721
0.0382943
0.0313044
0.00631953
0.00632201
0.00656973
0.0185719
0.0212989
0.00813744
0.0188387
0.0123942
0.0235603
0.00797701
0.00358628
0.0035869
0.0154143
0.00750575
0.00323533
0.00323101
0.00366379
0.00480131
0.00481725
0.0154543
0.00360375
0.00610912
1
1
1
1
1
1
1
1
1
1
1
1
1
1
1
1
1
1
0.999986
0.998436
0.998789
0.999865
0.997227
0.992438
0.995162
0.996972
0.990933
0.983194
0.91996
0.988662
0.987065
0.68423
0.977997
0.923714
0.981145
0.977863
0.760911
0.49695
0.935648
0.725349
0.446602
0.527246
0.741937
0.741923
0.198736
0.222265
0.706963
0.706963
0.586975
0.423613
0.405919
0.270323
0.533909
0.512414
0.180787
0.154257
0.0862637
0.103372
0.24514
0.0324747
0.132706
0.0583624
0.0311697
0.187357
0.0420708
0.160422
0.243764
0.101473
0.151336
0.120936
0.0738093
0.1413
0.130274
0.0492877
0.0779723
0.0598517
0.114156
0.114234
0.0387035
0.0422485
0.0233115
0.0343636
0.00632531
0.00632567
0.0126407
0.0220267
0.0225492
0.0128602
0.023016
0.0175173
0.0235603
0.014915
0.00358648
0.00665873
0.0154131
0.0108764
0.00345089
0.00322637
0.00348535
0.00763461
0.0088213
0.0122745
0.00360095
0.00580667
1
1
1
0.999991
0.999963
0.999968
0.999985
0.999998
1
1
1
0.999998
0.999993
0.999992
0.999988
0.99996
0.999921
0.999904
0.999627
0.997242
0.992971
0.992484
0.99245
0.990059
0.984984
0.971193
0.952796
0.93347
0.876814
0.892703
0.934934
0.808399
0.829409
0.76344
0.830224
0.898579
0.918306
0.904354
0.760337
0.578142
0.356756
0.495049
0.704723
0.608991
0.400886
0.40898
0.521503
0.479762
0.506381
0.508827
0.508805
0.299839
0.330726
0.298785
0.298285
0.297248
0.252103
0.14914
0.075247
0.0323527
0.157786
0.12843
0.0878749
0.120008
0.132237
0.160862
0.134634
0.0867695
0.151452
0.118409
0.117243
0.0493362
0.0494687
0.0493637
0.078018
0.0779722
0.0423893
0.0525323
0.0426498
0.0289878
0.0225593
0.0238723
0.00991543
0.00649551
0.017549
0.0179392
0.0186639
0.0222803
0.0229596
0.0216876
0.0235603
0.0220882
0.00818774
0.00891175
0.0154143
0.0132183
0.00399809
0.00322186
0.00423564
0.00760492
0.00723595
0.00652806
0.00363651
0.00526021
1
1
0.999992
0.99979
0.999373
0.99955
0.999858
0.999923
0.999912
0.999906
0.999837
0.99965
0.999303
0.998316
0.997194
0.996952
0.996833
0.993235
0.988071
0.98401
0.963031
0.921193
0.912211
0.92993
0.908476
0.842516
0.810368
0.832157
0.837506
0.815473
0.844465
0.858642
0.763218
0.623969
0.546175
0.567052
0.627321
0.602787
0.511332
0.353484
0.261874
0.199328
0.245239
0.427813
0.415719
0.325486
0.209853
0.131801
0.147758
0.270141
0.183368
0.112704
0.111375
0.139141
0.151654
0.0922591
0.162513
0.165665
0.1656
0.09963
0.154451
0.15565
0.155476
0.106679
0.0701527
0.0735793
0.0485096
0.0337543
0.0474812
0.0540018
0.0739235
0.0737961
0.0668957
0.0661553
0.0388572
0.0434509
0.0341383
0.0199349
0.0226598
0.0217266
0.0215885
0.0195577
0.0137375
0.00739978
0.00314226
0.00139115
0.00199054
0.00254152
0.0069056
0.0116729
0.00843533
0.00222556
0.00280629
0.00282151
0.000506661
0.000470064
0.00134718
0.00321747
0.00407103
0.0040383
0.00280321
0.00189018
0.00339064
0.00259882
0.999968
0.999802
0.999299
0.998677
0.998472
0.998384
0.998827
0.99907
0.999205
0.999234
0.997125
0.993733
0.99195
0.989186
0.981663
0.969563
0.955984
0.937071
0.916505
0.897824
0.860209
0.816089
0.768512
0.731398
0.700032
0.644263
0.561293
0.495031
0.457705
0.419336
0.378596
0.362334
0.264979
0.177041
0.114032
0.113418
0.124669
0.115885
0.0856011
0.0540065
0.0350748
0.0359243
0.0410752
0.0690478
0.0536492
0.0326844
0.0285645
0.0264292
0.0263341
0.0269784
0.0223856
0.0188229
0.0189478
0.0234815
0.0293467
0.0284957
0.0354833
0.0333696
0.0295343
0.0410453
0.0372679
0.0227168
0.0104016
0.00747065
0.0138381
0.0156791
0.0126883
0.0109948
0.00837419
0.00961106
0.0155963
0.0353392
0.0402528
0.0184188
0.00322712
0.00266115
0.0116116
0.019331
0.0167937
0.00928712
0.0089964
0.0129341
0.0136921
0.0115645
0.00374196
0.000170919
0.000100619
0.000159429
0.000802227
0.00317764
0.00399393
0.00279156
0.000721531
0.000508054
0.000508163
0.000471225
0.000255462
0.000171933
0.0011348
0.00244856
0.00304735
0.00164933
0.00164437
0.00112175
0.998614
0.997676
0.995568
0.9898
0.982206
0.979661
0.983327
0.983996
0.979963
0.973506
0.960822
0.943049
0.932573
0.927098
0.903943
0.84365
0.775222
0.703148
0.631578
0.565729
0.500429
0.429826
0.364157
0.306312
0.237131
0.165955
0.117348
0.0961127
0.08567
0.0763555
0.066032
0.0519127
0.0344009
0.0224275
0.017556
0.0159851
0.0147157
0.0119056
0.00805066
0.00497935
0.00381089
0.00347599
0.00324069
0.00317987
0.00265414
0.00193539
0.00154557
0.00153808
0.00152982
0.0014995
0.00136213
0.00131486
0.00122045
0.00115166
0.00102987
0.00128547
0.00148507
0.00138134
0.00151735
0.00313292
0.00279779
0.00184435
0.000924632
0.000727975
0.000795091
0.00108742
0.00126475
0.00162944
0.00168607
0.00138994
0.00103816
0.00374032
0.00319327
0.00163697
0.000644733
0.000147469
0.000317603
0.00253378
0.00402517
0.00816119
0.00898758
0.00784774
0.00656828
0.00450927
0.0025743
0.000659149
0.000100489
0.000100619
0.000106702
0.000159563
0.000373457
0.00137765
0.00153553
0.0011069
0.000338199
0.000244347
0.000224769
0.000169728
0.000169599
0.000480961
0.00277484
0.0031302
0.00313356
0.0013972
0.98226
0.970954
0.947541
0.915488
0.887528
0.86857
0.861297
0.843186
0.799661
0.735757
0.667303
0.598248
0.538578
0.488198
0.429749
0.35719
0.278961
0.209117
0.156696
0.118618
0.0891128
0.0661549
0.0489167
0.0357052
0.0250817
0.0171377
0.0122747
0.0100282
0.00888316
0.00761866
0.00616398
0.00448318
0.00295228
0.00189418
0.00138518
0.00127968
0.00112374
0.000877123
0.000600881
0.000407868
0.000306959
0.000307143
0.000302224
0.000306493
0.000283007
0.00023258
0.000207898
0.000201457
0.000191945
0.000173966
0.000152319
0.000141369
0.000126587
0.000104942
8.7025e-05
8.40464e-05
8.73699e-05
9.36525e-05
0.000101041
9.94935e-05
9.27956e-05
7.63986e-05
6.02946e-05
6.86256e-05
8.68032e-05
0.00010115
0.000101452
8.91749e-05
6.74614e-05
5.17087e-05
4.4496e-05
4.67791e-05
4.33344e-05
3.60834e-05
2.81567e-05
2.24424e-05
1.43852e-05
5.21061e-06
3.10098e-05
6.44337e-05
0.000130972
0.000124611
0.000104922
8.74022e-05
0.000115109
0.000604794
0.000960433
0.000964382
0.00055886
9.19586e-05
1.93243e-05
5.26034e-05
0.000174121
0.000637615
0.000832094
0.000832456
0.000832094
0.000736764
0.000238422
5.40721e-05
0.000258125
0.000958762
0.00140361
0.00140185
0.770319
0.68937
0.595877
0.508649
0.439271
0.385511
0.3428
0.300679
0.257176
0.216091
0.177095
0.143307
0.11792
0.0969564
0.0754253
0.0546392
0.0374354
0.0253237
0.0173925
0.0122008
0.00865644
0.00611638
0.00429285
0.00300316
0.00208262
0.00145282
0.00106704
0.000871617
0.000767338
0.000651944
0.000517178
0.000373667
0.000244147
0.000154597
0.000106791
8.67858e-05
6.82672e-05
5.00018e-05
3.43812e-05
2.55068e-05
2.58866e-05
2.71159e-05
2.82072e-05
3.13575e-05
3.04748e-05
2.64675e-05
2.18405e-05
1.76504e-05
1.30716e-05
8.95412e-06
7.24764e-06
7.38176e-06
7.51504e-06
7.66267e-06
8.03415e-06
8.71911e-06
9.80904e-06
1.16351e-05
1.40211e-05
1.8919e-05
1.8949e-05
1.67987e-05
1.34602e-05
1.44743e-05
1.39222e-05
1.24056e-05
1.08901e-05
1.01947e-05
9.43715e-06
8.35663e-06
7.78477e-06
7.52613e-06
8.65029e-06
1.05438e-05
1.01577e-05
7.19908e-06
2.79222e-06
2.18602e-07
3.70538e-08
7.14663e-08
9.9253e-08
8.49944e-08
6.59201e-08
4.93185e-08
3.7144e-08
2.36859e-08
2.48015e-09
2.27961e-05
5.02412e-05
3.73122e-05
1.43487e-05
1.06303e-05
1.49873e-05
4.88755e-05
8.78288e-05
0.00031168
0.000822654
0.000830081
0.000359928
2.1415e-05
7.80914e-07
2.76575e-05
5.91629e-05
5.23467e-05
0.200673
0.137462
0.095838
0.0703888
0.0556931
0.0467633
0.0404071
0.0343835
0.0282896
0.0224002
0.0172123
0.0132182
0.0102424
0.00790383
0.00582893
0.0040613
0.00268061
0.00176358
0.00117662
0.000806022
0.00056986
0.000411115
0.000301436
0.00022434
0.000167728
0.000125645
9.61196e-05
7.73845e-05
6.41213e-05
4.92966e-05
3.36033e-05
2.02976e-05
1.0879e-05
5.86055e-06
3.26866e-06
2.4958e-06
2.23604e-06
2.24351e-06
2.30077e-06
2.72032e-06
3.56277e-06
3.61462e-06
2.70001e-06
1.2582e-06
5.24587e-07
4.11004e-07
4.1176e-07
4.73584e-07
6.44132e-07
9.55077e-07
1.43708e-06
1.92401e-06
1.92907e-06
1.8075e-06
1.73367e-06
1.66794e-06
1.61595e-06
1.54349e-06
1.36591e-06
1.08263e-06
7.1842e-07
4.24634e-07
2.51272e-07
2.56666e-07
2.5307e-07
2.4661e-07
2.37083e-07
2.27661e-07
2.14743e-07
2.18029e-07
2.59013e-07
2.99401e-07
3.91988e-07
4.70149e-07
4.3593e-07
3.56333e-07
2.43572e-07
1.10383e-07
1.67156e-08
6.70499e-09
7.16396e-09
6.27025e-09
4.69341e-09
3.8587e-09
3.90955e-09
2.80183e-09
2.4786e-09
7.59058e-10
1.85321e-07
2.97641e-06
3.532e-06
2.28289e-06
6.37046e-07
4.3993e-07
2.44754e-06
3.71273e-05
0.000220007
0.000376736
0.00023974
3.908e-05
2.3065e-07
2.25822e-07
2.2567e-07
1.50273e-07
0.0193916
0.0125386
0.00840618
0.00596757
0.00453354
0.00361902
0.00296866
0.00242448
0.00193373
0.00149824
0.00113202
0.000856635
0.000653988
0.000499917
0.000370216
0.000261008
0.000172883
0.000110516
6.93498e-05
4.40991e-05
2.99027e-05
2.23027e-05
1.82103e-05
1.56389e-05
1.33946e-05
1.07779e-05
7.7199e-06
4.66598e-06
2.25342e-06
7.69459e-07
2.74798e-07
2.19714e-07
1.99837e-07
2.05024e-07
2.55621e-07
2.95657e-07
2.59367e-07
1.54913e-07
6.88757e-08
6.20086e-08
7.93519e-08
8.80234e-08
8.70701e-08
8.50198e-08
8.02512e-08
6.33264e-08
4.07743e-08
2.44044e-08
2.18513e-08
2.28292e-08
2.78306e-08
3.50518e-08
3.99103e-08
3.9408e-08
3.87198e-08
3.73915e-08
3.64435e-08
3.55983e-08
3.46781e-08
3.24302e-08
2.815e-08
2.41995e-08
2.37266e-08
2.4987e-08
2.34696e-08
1.91549e-08
1.49416e-08
1.3195e-08
1.30777e-08
1.30288e-08
1.26499e-08
1.23769e-08
1.22623e-08
1.11184e-08
8.15158e-09
3.76988e-09
2.10394e-09
3.16371e-09
1.53847e-09
3.49904e-10
3.65603e-10
6.54767e-10
8.85275e-10
8.6887e-10
7.42616e-10
4.6384e-10
2.57277e-10
2.50638e-10
2.60403e-10
2.609e-10
9.51046e-09
6.87415e-09
7.25799e-09
6.87645e-09
1.48084e-08
4.07162e-07
8.53967e-06
4.49446e-05
6.45366e-05
3.97424e-05
7.63333e-06
3.76952e-07
1.23382e-09
1.23382e-09
0.00151438
0.00095377
0.000625473
0.000433158
0.000320822
0.000250712
0.000201514
0.000161974
0.000126926
9.54306e-05
6.86515e-05
4.88295e-05
3.47002e-05
2.42877e-05
1.61754e-05
1.01076e-05
5.97851e-06
3.35185e-06
1.79477e-06
1.6129e-06
1.83174e-06
2.23912e-06
2.17134e-06
1.33294e-06
3.04041e-07
6.23384e-08
6.33017e-08
6.93504e-08
6.75331e-08
5.39638e-08
2.42008e-08
9.25528e-09
8.01889e-09
8.10657e-09
8.215e-09
7.65167e-09
5.47449e-09
3.03422e-09
1.98346e-09
2.04856e-09
2.35169e-09
2.40785e-09
2.3186e-09
2.07102e-09
1.6086e-09
1.03176e-09
5.6389e-10
4.85115e-10
5.6513e-10
7.10949e-10
8.4606e-10
9.46216e-10
9.43407e-10
9.09974e-10
8.68167e-10
8.12784e-10
7.89568e-10
7.96543e-10
7.52571e-10
6.45171e-10
5.34931e-10
4.55705e-10
4.22826e-10
4.05756e-10
3.62049e-10
3.19432e-10
2.79485e-10
2.32798e-10
1.83278e-10
1.39407e-10
1.03665e-10
7.63289e-11
5.44119e-11
3.60321e-11
2.49781e-11
2.26776e-11
3.11092e-11
6.91931e-11
1.48966e-10
2.06442e-10
2.01493e-10
1.67766e-10
1.17975e-10
7.12061e-11
4.06525e-11
3.7236e-11
4.1424e-11
7.37184e-11
1.98813e-10
4.8447e-10
1.10833e-09
1.72606e-09
1.74006e-09
1.66439e-09
1.5668e-09
9.10154e-10
3.11824e-10
1.4121e-07
3.52912e-06
1.1488e-05
1.13794e-05
6.18481e-06
1.61968e-06
5.61696e-09
0.000115596
6.40808e-05
3.51252e-05
2.02385e-05
1.30714e-05
9.40388e-06
7.05817e-06
5.24544e-06
3.78174e-06
2.65907e-06
1.85162e-06
1.25087e-06
7.4392e-07
4.39946e-07
3.83149e-07
3.62035e-07
3.08348e-07
1.70302e-07
4.48066e-08
2.35274e-08
2.52992e-08
2.74806e-08
2.68071e-08
2.28671e-08
1.2657e-08
3.43123e-09
8.27242e-10
4.251e-10
2.50742e-10
1.81177e-10
1.825e-10
1.78441e-10
1.66172e-10
1.49179e-10
1.21911e-10
8.04752e-11
4.14875e-11
1.84068e-11
9.83179e-12
8.37251e-12
8.2316e-12
7.62581e-12
6.59895e-12
7.18792e-12
7.42408e-12
7.01042e-12
6.55583e-12
6.53158e-12
6.44501e-12
6.02934e-12
5.66294e-12
5.30009e-12
4.83735e-12
4.4373e-12
4.13358e-12
3.91159e-12
3.68753e-12
3.52432e-12
3.21301e-12
2.94576e-12
2.81509e-12
2.73471e-12
2.80685e-12
2.90653e-12
2.9302e-12
2.9736e-12
2.96294e-12
2.85183e-12
2.63663e-12
2.18197e-12
1.47262e-12
9.65041e-13
8.91914e-13
9.66476e-13
1.32058e-12
2.61024e-12
5.27123e-12
1.01098e-11
1.45972e-11
1.31844e-11
8.33054e-12
3.9332e-12
1.52741e-12
1.23545e-12
1.26839e-12
1.30999e-12
1.56878e-12
5.49987e-12
4.36712e-11
1.66063e-10
2.03893e-10
1.92346e-10
2.90275e-10
6.00878e-10
6.44515e-10
5.06312e-10
3.13897e-10
6.50264e-11
1.63598e-09
5.9525e-07
2.94775e-06
3.00823e-06
1.87205e-06
4.36295e-07
3.4019e-06
9.25614e-07
4.28672e-07
2.97394e-07
2.281e-07
1.61542e-07
1.00722e-07
7.31339e-08
6.72747e-08
6.27969e-08
4.8732e-08
2.527e-08
9.12838e-09
5.18514e-09
4.20713e-09
3.22015e-09
1.84506e-09
6.86333e-10
1.69773e-10
1.2495e-10
1.21023e-10
1.12057e-10
9.63495e-11