/*--------------------------------*- C++ -*----------------------------------*\
| =========                 |                                                 |
| \\      /  F ield         | OpenFOAM: The Open Source CFD Toolbox           |
|  \\    /   O peration     | Version:  v1912                                 |
|   \\  /    A nd           | Website:  www.openfoam.com                      |
|    \\/     M anipulation  |                                                 |
\*---------------------------------------------------------------------------*/
FoamFile
{
    version     2.0;
    format      ascii;
    class       volVectorField;
    location    "80";
    object      U;
}
// * * * * * * * * * * * * * * * * * * * * * * * * * * * * * * * * * * * * * //

dimensions      [0 1 -1 0 0 0 0];


internalField   nonuniform List<vector> 
14268
(
(0.666568 0.0663835 0)
(0.684202 0.0679564 0)
(0.708519 0.0702445 0)
(0.738894 0.0730765 0)
(0.777536 0.0768141 0)
(0.810783 0.0806692 0)
(0.797591 0.0796511 0)
(0.771962 0.0772037 0)
(0.736626 0.0737574 0)
(0.691664 0.0696483 0)
(0.663883 0.066775 0)
(0.654469 0.0655633 0)
(0.654032 0.0645179 0)
(0.653649 0.062997 0)
(0.645106 0.0610978 0)
(0.620332 0.0576728 0)
(0.573958 0.0521817 0)
(0.542138 0.0480763 0)
(0.518738 0.0485818 0)
(0.537897 0.0491242 0)
(0.543703 0.0498091 0)
(0.516699 0.0482275 0)
(0.426405 0.0404248 0)
(0.343531 0.0260662 0)
(0.308384 0.0154375 0)
(0.313448 0.0118545 0)
(0.333571 0.00350196 0)
(0.381244 -0.00116513 0)
(0.509803 0.0238437 0)
(0.375573 0.00175942 0)
(0.332613 0.00397708 0)
(-0.15896 -0.107042 0)
(-0.41074 -0.221092 0)
(-0.270127 -0.196678 0)
(-0.0833272 -0.158219 0)
(0.0543198 -0.135418 0)
(-0.127512 -0.080642 0)
(-0.323741 -0.159434 0)
(-0.519649 -0.281096 0)
(-0.594379 -0.369046 0)
(-0.319057 -0.315249 0)
(0.096847 -0.199682 0)
(0.603408 -0.251317 0)
(0.656487 -0.0873361 0)
(-0.088733 -0.0439047 0)
(-0.744767 -0.179926 0)
(-0.641151 -0.301475 0)
(0.0242746 -0.255764 0)
(0.345969 -0.143648 0)
(-0.454511 -0.119459 0)
(-0.497559 -0.24003 0)
(-0.407515 -0.326337 0)
(0.00536021 -0.184392 0)
(0.828163 -0.0601622 0)
(0.96079 0.0158342 0)
(0.466428 -0.0896678 0)
(0.247313 -0.109741 0)
(0.285317 -0.114742 0)
(0.410389 -0.0028713 0)
(0.123795 -0.0485237 0)
(-0.471829 -0.160756 0)
(-0.795703 -0.269125 0)
(-0.518241 -0.195047 0)
(0.111425 -0.211189 0)
(-0.522271 -0.225791 0)
(-0.863425 -0.257262 0)
(-0.856887 -0.254893 0)
(-0.185095 -0.188241 0)
(0.783869 -0.0979187 0)
(0.427114 0.0224044 0)
(0.0646149 0.00136047 0)
(-0.130467 -0.0599447 0)
(-0.67731 -0.16569 0)
(-0.772886 -0.156064 0)
(-0.486398 -0.185779 0)
(-0.260602 -0.213436 0)
(-0.352072 -0.12024 0)
(-0.649798 -0.152151 0)
(-0.61539 -0.0953872 0)
(-0.575653 -0.151887 0)
(-0.570349 -0.194212 0)
(-0.400716 -0.245925 0)
(-0.392366 -0.208449 0)
(-0.501774 -0.245349 0)
(-0.489597 -0.287802 0)
(-0.279005 -0.257904 0)
(-0.0634036 -0.132276 0)
(-0.222986 -0.0965004 0)
(-1.32473 -0.258259 0)
(-0.169391 -0.248519 0)
(0.242802 -0.178509 0)
(0.530601 -0.0654432 0)
(0.469485 -0.0520913 0)
(-0.472234 -0.183455 0)
(-0.251524 -0.259183 0)
(0.000996958 -0.217705 0)
(0.0291754 -0.205362 0)
(-0.2298 -0.169412 0)
(-0.417827 -0.128765 0)
(-0.100876 -0.0109972 0)
(0.532535 -0.227585 0)
(0.986389 -0.103931 0)
(1.27001 -0.0870701 0)
(1.3732 -0.161774 0)
(0.664116 0.0655423 0)
(0.681802 0.0668809 0)
(0.706149 0.0689645 0)
(0.736478 0.0714502 0)
(0.77557 0.0754828 0)
(0.806053 0.0803223 0)
(0.792587 0.0809193 0)
(0.767123 0.0791688 0)
(0.731942 0.0761369 0)
(0.687437 0.071242 0)
(0.659439 0.0666468 0)
(0.650015 0.065508 0)
(0.648633 0.0655075 0)
(0.646985 0.0674771 0)
(0.637635 0.0682363 0)
(0.612143 0.0682493 0)
(0.565114 0.0645822 0)
(0.533451 0.0612421 0)
(0.507916 0.0542166 0)
(0.530685 0.0562861 0)
(0.537984 0.0590033 0)
(0.511245 0.0592339 0)
(0.424831 0.0510698 0)
(0.343359 0.0467293 0)
(0.302629 0.0457812 0)
(0.298186 0.0483309 0)
(0.310105 0.0556228 0)
(0.34869 0.0634493 0)
(0.450976 0.0706066 0)
(0.327035 0.0749571 0)
(0.299155 0.0744732 0)
(-0.00759735 0.116299 0)
(-0.350104 0.134687 0)
(-0.310291 0.104589 0)
(-0.12533 0.102685 0)
(0.0333525 0.133842 0)
(-0.0915491 0.0650905 0)
(-0.246663 0.109639 0)
(-0.425587 0.186924 0)
(-0.553061 0.213605 0)
(-0.317009 0.188597 0)
(0.196691 0.152173 0)
(0.606015 0.311626 0)
(0.535886 0.221458 0)
(-0.321431 0.0474467 0)
(-0.611236 0.0546791 0)
(-0.647392 0.105512 0)
(0.0157331 0.192386 0)
(0.186614 0.204491 0)
(-0.367791 0.0679444 0)
(-0.353565 0.144441 0)
(-0.375334 0.222011 0)
(-0.0447761 0.123089 0)
(0.692095 0.161246 0)
(0.807415 0.167123 0)
(0.306593 0.176006 0)
(0.16336 0.148969 0)
(0.121247 0.125222 0)
(0.789939 0.124392 0)
(0.468825 0.120214 0)
(-0.34627 0.13265 0)
(-0.682656 0.106463 0)
(-0.519536 -0.00723756 0)
(-0.0904105 0.191549 0)
(-0.607433 0.131469 0)
(-0.864534 0.0811284 0)
(-0.761914 0.0444132 0)
(-0.246322 0.0380731 0)
(0.453584 0.187922 0)
(0.215147 0.0670078 0)
(0.162144 0.0272288 0)
(-0.151821 0.0546977 0)
(-0.837372 0.0418505 0)
(-0.891453 -0.0225324 0)
(-0.561571 0.0398073 0)
(-0.383975 0.125972 0)
(-0.50696 0.0414452 0)
(-0.716024 0.0209446 0)
(-0.689016 -0.036061 0)
(-0.699621 0.0170402 0)
(-0.658953 0.0525844 0)
(-0.574312 0.114981 0)
(-0.515102 0.0882858 0)
(-0.519624 0.122056 0)
(-0.538927 0.147381 0)
(-0.519889 0.134067 0)
(-0.369779 0.074801 0)
(-0.183502 0.095342 0)
(-1.20332 -0.0348503 0)
(-0.236783 0.08231 0)
(-0.0759689 0.117795 0)
(0.164117 0.10906 0)
(0.363639 0.156098 0)
(-0.469572 0.0947045 0)
(-0.371252 0.145008 0)
(-0.177025 0.157264 0)
(-0.0107514 0.180288 0)
(0.0620605 0.137536 0)
(0.111196 0.0679186 0)
(0.0674323 -0.0681829 0)
(0.495984 0.23767 0)
(0.754637 0.226856 0)
(0.964131 0.267371 0)
(1.14025 0.389507 0)
(0.663986 0.0649709 0)
(0.681785 0.0659471 0)
(0.706164 0.0677634 0)
(0.736437 0.0698993 0)
(0.775382 0.0739162 0)
(0.805461 0.0796166 0)
(0.791916 0.0810076 0)
(0.766382 0.0795464 0)
(0.730999 0.0767411 0)
(0.686082 0.0724236 0)
(0.657536 0.0675744 0)
(0.648335 0.0657686 0)
(0.649411 0.0641324 0)
(0.64966 0.0635578 0)
(0.641263 0.0627336 0)
(0.616035 0.0612532 0)
(0.568857 0.0558008 0)
(0.537438 0.050532 0)
(0.511894 0.048318 0)
(0.533177 0.0477933 0)
(0.53945 0.0507422 0)
(0.511087 0.0538536 0)
(0.420436 0.0477208 0)
(0.334129 0.0322291 0)
(0.303918 0.0178225 0)
(0.306508 0.0130794 0)
(0.321395 0.00333067 0)
(0.359582 -0.00147965 0)
(0.474169 0.0235463 0)
(0.345374 0.0130369 0)
(0.286075 0.019865 0)
(-0.149714 -0.0614887 0)
(-0.409743 -0.184995 0)
(-0.308814 -0.173697 0)
(-0.125919 -0.138683 0)
(0.0439913 -0.118121 0)
(-0.154279 -0.0559778 0)
(-0.338792 -0.124282 0)
(-0.502852 -0.235822 0)
(-0.546727 -0.309993 0)
(-0.262379 -0.259869 0)
(0.0891772 -0.181409 0)
(0.509301 -0.197948 0)
(0.577303 -0.0186787 0)
(-0.365268 -0.00551584 0)
(-0.684218 -0.121132 0)
(-0.650436 -0.266122 0)
(-0.00441623 -0.213971 0)
(0.206491 -0.113787 0)
(-0.348724 -0.071456 0)
(-0.42573 -0.227328 0)
(-0.462725 -0.317099 0)
(0.132938 -0.177045 0)
(0.979892 -0.061651 0)
(0.821132 0.0480797 0)
(0.334341 -0.0445719 0)
(0.227372 -0.0791768 0)
(0.201406 -0.109962 0)
(0.460962 -0.00566313 0)
(0.535164 0.143142 0)
(-0.105175 -0.139773 0)
(-0.67634 -0.1823 0)
(-0.470441 -0.0775133 0)
(-0.0575512 -0.182922 0)
(-0.645694 -0.163828 0)
(-0.887716 -0.220182 0)
(-0.834297 -0.227575 0)
(-0.225125 -0.171966 0)
(0.671991 -0.0948156 0)
(0.244194 0.0518159 0)
(0.13073 0.055115 0)
(-0.046563 0.0265605 0)
(-0.728549 -0.138114 0)
(-0.707527 -0.14595 0)
(-0.479314 -0.175274 0)
(-0.171062 -0.164838 0)
(-0.252479 -0.0520182 0)
(-0.438737 -0.102882 0)
(-0.366967 -0.0504004 0)
(-0.44922 -0.13297 0)
(-0.617508 -0.183197 0)
(-0.555195 -0.227801 0)
(-0.511284 -0.183734 0)
(-0.55 -0.227296 0)
(-0.557124 -0.285526 0)
(-0.543293 -0.272466 0)
(-0.362054 -0.15256 0)
(-0.16133 -0.018362 0)
(-1.10352 -0.158602 0)
(-0.213951 -0.245997 0)
(0.0140505 -0.147248 0)
(0.294487 -0.0855311 0)
(0.437966 0.0156318 0)
(-0.343099 -0.108305 0)
(-0.377646 -0.229191 0)
(-0.132132 -0.193088 0)
(0.00546295 -0.162328 0)
(-0.0831325 -0.112224 0)
(-0.290663 -0.0789163 0)
(-0.15507 0.0420245 0)
(0.481552 -0.184868 0)
(0.89267 -0.080886 0)
(1.07851 -0.076001 0)
(1.20676 -0.124538 0)
(0.663947 0.064376 0)
(0.681804 0.0651 0)
(0.7062 0.0667367 0)
(0.736432 0.0684835 0)
(0.775259 0.0725831 0)
(0.804846 0.079472 0)
(0.79118 0.0822515 0)
(0.765621 0.0813205 0)
(0.730196 0.078949 0)
(0.685291 0.0738789 0)
(0.65647 0.067603 0)
(0.647326 0.0655456 0)
(0.649948 0.0654081 0)
(0.65066 0.0678111 0)
(0.642536 0.0693302 0)
(0.617218 0.0707678 0)
(0.570161 0.0672906 0)
(0.537497 0.062879 0)
(0.510021 0.0543904 0)
(0.530481 0.0544211 0)
(0.536579 0.0590907 0)
(0.507569 0.0630205 0)
(0.414586 0.0567011 0)
(0.333065 0.0486007 0)
(0.307433 0.0453657 0)
(0.304056 0.0472915 0)
(0.314172 0.0494912 0)
(0.35262 0.0499834 0)
(0.448127 0.0683965 0)
(0.32356 0.0772919 0)
(0.260601 0.0805455 0)
(-0.0433858 0.11897 0)
(-0.362553 0.117512 0)
(-0.310444 0.0648116 0)
(-0.13467 0.0561709 0)
(-0.00527733 0.117788 0)
(-0.133924 0.053312 0)
(-0.282442 0.0955421 0)
(-0.396941 0.159364 0)
(-0.514045 0.150111 0)
(-0.297769 0.0738743 0)
(0.122447 0.0745061 0)
(0.486345 0.192458 0)
(0.426017 0.202776 0)
(-0.391586 0.0680396 0)
(-0.61007 0.0582199 0)
(-0.565029 0.0139413 0)
(-0.0408499 0.0448697 0)
(0.0183025 0.154556 0)
(-0.33996 0.101005 0)
(-0.432877 0.135364 0)
(-0.701579 0.178256 0)
(0.00610282 -0.0558104 0)
(1.54508 0.258164 0)
(0.829766 0.181224 0)
(0.24253 0.162658 0)
(0.176226 0.137525 0)
(0.0798339 0.0757068 0)
(0.3815 0.0475524 0)
(-0.0628293 0.0559694 0)
(-0.507187 0.281143 0)
(-0.838949 0.0468845 0)
(-0.494033 -0.10655 0)
(-0.0757189 0.1716 0)
(-0.684579 0.0853829 0)
(-0.931358 0.0685312 0)
(-0.728342 -0.0193173 0)
(-0.196562 -0.0521868 0)
(0.663103 0.141574 0)
(0.127029 0.0435306 0)
(0.0406292 0.00832885 0)
(-0.0761788 0.075129 0)
(-0.815068 0.067718 0)
(-0.783699 -0.0465644 0)
(-0.566866 0.00655409 0)
(-0.388634 0.0506458 0)
(-0.232133 0.0341912 0)
(-0.564233 -0.00951166 0)
(-0.535543 -0.0599369 0)
(-0.533185 0.0244934 0)
(-0.599645 0.0493451 0)
(-0.581753 0.110322 0)
(-0.505847 0.0817922 0)
(-0.528139 0.142495 0)
(-0.531084 0.159243 0)
(-0.556929 0.109618 0)
(-0.478201 0.0469468 0)
(-0.362187 0.0786612 0)
(-0.85619 -0.0725545 0)
(-0.264431 0.00702257 0)
(-0.0353643 0.0974181 0)
(0.3686 0.114858 0)
(0.451391 0.192165 0)
(-0.356538 0.0929713 0)
(-0.402601 0.121719 0)
(0.576563 0.18936 0)
(0.190914 0.178605 0)
(0.00279667 0.127643 0)
(-0.0495538 0.0806381 0)
(0.139667 -0.0310443 0)
(0.297442 0.208238 0)
(1.50451 0.248652 0)
(1.99393 0.37454 0)
(1.47816 0.40943 0)
(0.663953 0.0637842 0)
(0.681872 0.0642029 0)
(0.706281 0.0655725 0)
(0.736438 0.0669637 0)
(0.77513 0.0711748 0)
(0.803956 0.0788422 0)
(0.790236 0.0826833 0)
(0.764726 0.0821538 0)
(0.729333 0.0801052 0)
(0.684465 0.0755347 0)
(0.655321 0.0689314 0)
(0.645615 0.0659688 0)
(0.649124 0.0640188 0)
(0.650429 0.0644197 0)
(0.642886 0.0650414 0)
(0.618497 0.0657519 0)
(0.572889 0.0606873 0)
(0.540245 0.054357 0)
(0.511575 0.0489984 0)
(0.53144 0.0469379 0)
(0.537179 0.0522007 0)
(0.506597 0.0599474 0)
(0.409663 0.0551553 0)
(0.327424 0.0384265 0)
(0.307084 0.0208646 0)
(0.305741 0.0145403 0)
(0.318029 0.00435146 0)
(0.355379 -0.000678319 0)
(0.44623 0.0237195 0)
(0.320811 0.0262907 0)
(0.242371 0.04046 0)
(-0.122504 1.04853e-05 0)
(-0.397009 -0.145733 0)
(-0.304463 -0.153189 0)
(-0.136352 -0.118753 0)
(0.0551002 -0.0991902 0)
(-0.16784 -0.0296938 0)
(-0.361967 -0.090717 0)
(-0.462612 -0.180783 0)
(-0.497889 -0.263943 0)
(-0.284123 -0.193411 0)
(0.159979 -0.160075 0)
(0.519482 -0.118353 0)
(0.567435 0.0691064 0)
(-0.358382 0.0739221 0)
(-0.67882 -0.0950843 0)
(-0.546106 -0.240949 0)
(-0.0294824 -0.136011 0)
(0.129774 -0.0737333 0)
(-0.183742 -0.0193239 0)
(-0.177041 -0.171755 0)
(0.18486 -0.157068 0)
(-0.617059 -0.165752 0)
(0.643681 -0.0762048 0)
(0.825724 0.129801 0)
(0.418992 0.0245409 0)
(0.468544 -0.0245706 0)
(0.178237 -0.0810683 0)
(0.329244 -0.0123511 0)
(-0.131464 -0.0153519 0)
(-0.577424 -0.147496 0)
(-0.574705 -0.113059 0)
(-0.524991 -0.225605 0)
(-0.198424 -0.138386 0)
(-0.62906 -0.0477648 0)
(-0.858189 -0.19141 0)
(-0.585597 -0.21392 0)
(-0.0553337 -0.198952 0)
(0.480377 -0.0737521 0)
(0.167586 0.0476823 0)
(-0.0327724 0.00242531 0)
(-0.203349 0.00603432 0)
(-0.709384 -0.0869597 0)
(-0.780515 -0.130362 0)
(-0.453452 -0.169678 0)
(-0.220475 -0.128105 0)
(-0.376039 -0.0895533 0)
(-0.75832 -0.090156 0)
(-0.559516 -0.0319794 0)
(-0.293618 -0.0966947 0)
(-0.262838 -0.136219 0)
(-0.16271 -0.185964 0)
(-0.297174 -0.1433 0)
(-0.511977 -0.215985 0)
(-0.518012 -0.263562 0)
(-0.531052 -0.227581 0)
(-0.363961 -0.149782 0)
(-0.72494 -0.0480958 0)
(-0.90543 -0.118051 0)
(-0.214792 -0.208279 0)
(0.0315013 -0.164539 0)
(0.354117 -0.157416 0)
(0.570494 0.0696102 0)
(-0.331748 -0.00791401 0)
(-0.309379 -0.244076 0)
(0.857566 -0.0983889 0)
(0.443773 -0.0622959 0)
(0.145402 -0.0732191 0)
(0.289422 -0.116838 0)
(0.278272 -0.149897 0)
(0.282441 -0.272538 0)
(0.701186 -0.112053 0)
(1.69687 -0.101091 0)
(2.06425 0.0164162 0)
(0.663976 0.0632292 0)
(0.681955 0.0633368 0)
(0.706341 0.0645342 0)
(0.736372 0.0655816 0)
(0.774924 0.0698295 0)
(0.802874 0.0785834 0)
(0.789048 0.0835646 0)
(0.763554 0.0834899 0)
(0.728177 0.081859 0)
(0.683535 0.0766352 0)
(0.654144 0.0688246 0)
(0.644038 0.0654309 0)
(0.648262 0.0649042 0)
(0.649675 0.0675614 0)
(0.642451 0.0698541 0)
(0.618573 0.072629 0)
(0.574026 0.0696784 0)
(0.540371 0.0643364 0)
(0.512236 0.0545863 0)
(0.530378 0.0527574 0)
(0.535539 0.0590615 0)
(0.503865 0.0668445 0)
(0.404766 0.0614125 0)
(0.330233 0.0508058 0)
(0.318671 0.0450712 0)
(0.316031 0.0466428 0)
(0.323731 0.0435578 0)
(0.352152 0.0376371 0)
(0.436321 0.0657508 0)
(0.304573 0.0778746 0)
(0.223446 0.0825077 0)
(-0.0976928 0.106536 0)
(-0.379529 0.0933843 0)
(-0.307585 0.0211676 0)
(-0.148817 0.00548379 0)
(0.00121968 0.0988064 0)
(-0.193088 0.0633911 0)
(-0.335646 0.0939562 0)
(-0.37699 0.125702 0)
(-0.531761 0.098751 0)
(-0.295122 -0.0218425 0)
(0.134076 -0.0198448 0)
(0.458349 0.112114 0)
(0.529524 0.216957 0)
(-0.265362 0.0987693 0)
(-0.575721 0.0342511 0)
(-0.570705 -0.0642585 0)
(-0.04009 -0.0139696 0)
(0.0949766 0.175001 0)
(0.0322592 0.108642 0)
(-0.255562 0.0710227 0)
(0.269984 0.0177649 0)
(-0.580321 -0.135202 0)
(-0.235229 -0.217562 0)
(0.891099 0.197241 0)
(0.905725 0.205819 0)
(0.774577 0.17728 0)
(0.0678082 0.0640812 0)
(0.379891 0.0650362 0)
(-0.127186 0.18116 0)
(-0.609967 0.0604733 0)
(-0.416886 -0.0103337 0)
(-0.588609 -0.00219247 0)
(-0.39337 0.0812888 0)
(-0.584219 0.106808 0)
(-0.755172 0.0510227 0)
(-0.649467 -0.0811053 0)
(0.0561714 -0.141 0)
(0.437584 0.0304498 0)
(0.187444 0.124018 0)
(0.0131483 0.0857773 0)
(-0.166707 0.156068 0)
(-0.692814 0.0150474 0)
(-0.776295 -0.0726902 0)
(-0.548922 -0.024774 0)
(-0.413312 0.0463174 0)
(-0.269619 0.129015 0)
(-0.545087 0.0326315 0)
(-0.280141 -0.0599187 0)
(-0.302718 0.00306647 0)
(0.317611 0.109613 0)
(0.046485 0.153418 0)
(-0.470036 0.0667381 0)
(-0.583309 0.116401 0)
(-0.579478 0.130674 0)
(-0.605433 0.0877498 0)
(-0.442947 0.0182766 0)
(-1.04167 0.0717133 0)
(-0.997425 -0.0773661 0)
(-0.196452 -0.025295 0)
(0.120573 0.0952451 0)
(0.327804 0.137545 0)
(0.777519 0.26644 0)
(-0.312505 0.0866273 0)
(-0.317348 0.0140287 0)
(0.592116 0.0959967 0)
(0.296494 0.144358 0)
(0.213008 0.135163 0)
(0.180137 0.1557 0)
(0.201326 0.0996121 0)
(0.357263 -0.00389273 0)
(-0.0414792 0.0515947 0)
(1.31503 0.34338 0)
(1.47977 0.356353 0)
(0.664021 0.0626071 0)
(0.682049 0.0624259 0)
(0.706383 0.0633995 0)
(0.736242 0.0640337 0)
(0.774563 0.0683895 0)
(0.80156 0.0780586 0)
(0.787675 0.0841995 0)
(0.762221 0.0845656 0)
(0.72686 0.0832976 0)
(0.682357 0.0785221 0)
(0.652731 0.0703087 0)
(0.641984 0.0659454 0)
(0.646395 0.0636136 0)
(0.648413 0.064872 0)
(0.641753 0.0668523 0)
(0.618762 0.0698262 0)
(0.5765 0.0655067 0)
(0.542461 0.0584052 0)
(0.513981 0.0501894 0)
(0.531027 0.0464494 0)
(0.535014 0.0539918 0)
(0.502452 0.0662872 0)
(0.405492 0.0641537 0)
(0.342365 0.043976 0)
(0.316181 0.0239302 0)
(0.305818 0.0162434 0)
(0.313951 0.00651606 0)
(0.342404 6.5819e-05 0)
(0.429351 0.0269427 0)
(0.300982 0.0401369 0)
(0.223344 0.0638025 0)
(-0.138825 0.0437228 0)
(-0.38851 -0.104889 0)
(-0.273772 -0.124029 0)
(-0.136483 -0.0992607 0)
(0.0322793 -0.0820672 0)
(-0.191798 -0.00529934 0)
(-0.357838 -0.0716432 0)
(-0.395135 -0.121903 0)
(-0.511344 -0.225528 0)
(-0.254348 -0.174226 0)
(0.106731 -0.146912 0)
(0.460131 -0.0991079 0)
(0.545186 0.151628 0)
(-0.293775 0.108438 0)
(-0.493663 -0.0133796 0)
(-0.554647 -0.202182 0)
(0.0468288 -0.09452 0)
(0.220619 -0.0543767 0)
(0.0352303 0.0654972 0)
(-0.235872 -0.135958 0)
(0.0797783 0.00173439 0)
(0.0348269 -0.311825 0)
(-0.0983238 -0.130781 0)
(0.64191 0.0748953 0)
(0.984569 0.129859 0)
(0.656062 0.0712777 0)
(0.187428 -0.0391212 0)
(0.448478 0.0271818 0)
(-0.103286 0.0876239 0)
(-0.564375 0.0679813 0)
(-0.52014 -0.067072 0)
(-0.529611 -0.216246 0)
(-0.123453 -0.0855215 0)
(-0.610569 -0.0218991 0)
(-0.477593 -0.122684 0)
(-0.748871 -0.194542 0)
(0.138778 -0.198905 0)
(0.51279 0.0145016 0)
(0.215473 0.0866819 0)
(0.000868684 0.00633276 0)
(-0.175613 0.0754943 0)
(-0.707934 0.0413149 0)
(-0.6163 -0.114173 0)
(-0.551249 -0.182781 0)
(-0.15776 -0.12512 0)
(-0.328305 -0.0704256 0)
(-0.00394169 -0.0736126 0)
(0.127446 0.0499449 0)
(-0.355282 -0.0954105 0)
(0.576839 -0.024673 0)
(-0.00616203 -0.112269 0)
(-0.492521 -0.170343 0)
(-0.71426 -0.22781 0)
(-0.57159 -0.248453 0)
(-0.325972 -0.20677 0)
(-0.44991 -0.146841 0)
(-1.47248 -0.143245 0)
(-1.05662 -0.150879 0)
(0.0946634 -0.168965 0)
(0.902043 -0.0823869 0)
(-0.216466 -0.178137 0)
(0.645744 0.0486767 0)
(-0.366955 0.054345 0)
(-0.484747 -0.212751 0)
(0.649745 -0.0565406 0)
(0.313055 0.0311155 0)
(0.239347 -0.0303022 0)
(0.217775 -0.112555 0)
(0.214496 -0.121145 0)
(0.382626 -0.0960975 0)
(-0.1927 -0.303952 0)
(-0.148624 -0.214748 0)
(1.13544 0.0153178 0)
(0.664052 0.0620516 0)
(0.682122 0.0616088 0)
(0.706383 0.0623732 0)
(0.736038 0.0626865 0)
(0.774155 0.0671337 0)
(0.800135 0.0776866 0)
(0.786175 0.0848292 0)
(0.760739 0.0856343 0)
(0.725373 0.084753 0)
(0.68116 0.0793751 0)
(0.651326 0.0701278 0)
(0.6401 0.0652856 0)
(0.644619 0.0641229 0)
(0.646595 0.0671038 0)
(0.640124 0.0703271 0)
(0.617774 0.0743056 0)
(0.576793 0.0719666 0)
(0.542656 0.0657737 0)
(0.51464 0.0547756 0)
(0.529595 0.0512106 0)
(0.532053 0.0591166 0)
(0.500726 0.0722591 0)
(0.412313 0.0680353 0)
(0.340511 0.0536165 0)
(0.315478 0.044602 0)
(0.310779 0.045253 0)
(0.31867 0.0388504 0)
(0.338934 0.0275272 0)
(0.424134 0.0632952 0)
(0.281374 0.0791961 0)
(0.208833 0.088528 0)
(-0.145234 0.107528 0)
(-0.385272 0.0653501 0)
(-0.331529 -0.0303515 0)
(-0.1719 -0.0417232 0)
(-0.0135205 0.0865901 0)
(-0.191276 0.0449107 0)
(-0.384444 0.0738828 0)
(-0.431235 0.0777315 0)
(-0.551474 0.0569629 0)
(-0.264539 -0.0787203 0)
(0.0913406 -0.0723597 0)
(0.531361 0.0929404 0)
(0.485166 0.153089 0)
(-0.428217 0.16151 0)
(-0.427461 0.0138804 0)
(-0.631107 -0.0387203 0)
(-0.0015229 -0.0619683 0)
(0.658874 0.176795 0)
(-0.0495331 0.0412723 0)
(-0.326484 0.0775336 0)
(0.184293 0.0235952 0)
(0.0314332 -0.075805 0)
(0.111339 -0.0801983 0)
(0.645084 0.0973573 0)
(0.736404 0.163811 0)
(0.614477 0.212893 0)
(0.0259635 -0.00683894 0)
(0.0997683 0.036251 0)
(-0.0794963 0.197451 0)
(-0.445096 0.0942645 0)
(-0.515495 0.024215 0)
(-0.499814 -0.082993 0)
(-0.244209 0.0559217 0)
(-0.827321 0.0882307 0)
(-0.667449 0.0386164 0)
(-0.715377 -0.137784 0)
(0.0990665 -0.0896159 0)
(0.603673 0.0715523 0)
(0.227756 0.134643 0)
(-0.0326044 0.0635313 0)
(0.0736134 0.149226 0)
(-0.7394 0.0360519 0)
(-0.697004 -0.105289 0)
(-0.68889 -0.130825 0)
(0.362777 0.0729119 0)
(-0.297072 0.0998138 0)
(0.100349 0.101873 0)
(0.0517048 -0.0536506 0)
(-0.231375 0.0161911 0)
(1.09616 0.128576 0)
(-0.226564 0.109217 0)
(-0.568432 0.151458 0)
(-0.598791 0.144182 0)
(-0.512876 0.099054 0)
(-0.169067 0.0647429 0)
(-0.515179 0.0840287 0)
(-1.68675 0.0705031 0)
(-1.03953 -0.168167 0)
(-0.0804743 -0.122806 0)
(1.0371 0.128807 0)
(-0.330831 -0.12199 0)
(0.696219 0.256376 0)
(-0.370344 0.109039 0)
(-0.62877 -0.145359 0)
(0.583165 -0.00455103 0)
(0.420529 0.110104 0)
(0.0622945 0.0835207 0)
(0.143131 0.138751 0)
(0.241901 0.041076 0)
(0.320616 -0.00920025 0)
(-0.104508 -0.103817 0)
(-0.550441 -0.270967 0)
(0.253567 0.125204 0)
(0.664089 0.0614193 0)
(0.682199 0.0606498 0)
(0.70637 0.0612255 0)
(0.735813 0.061119 0)
(0.773723 0.0656483 0)
(0.798562 0.0773267 0)
(0.784555 0.0856449 0)
(0.759142 0.0868856 0)
(0.723734 0.0863797 0)
(0.679685 0.0814282 0)
(0.649641 0.0716955 0)
(0.637767 0.06586 0)
(0.642205 0.0630671 0)
(0.644669 0.064997 0)
(0.638674 0.068102 0)
(0.617004 0.0730008 0)
(0.577826 0.0698042 0)
(0.544671 0.0623986 0)
(0.514499 0.051405 0)
(0.529428 0.0460119 0)
(0.533479 0.056075 0)
(0.503366 0.0726659 0)
(0.41898 0.07012 0)
(0.338415 0.0487525 0)
(0.317323 0.0272456 0)
(0.309333 0.0177448 0)
(0.310134 0.0072022 0)
(0.328979 -0.00214644 0)
(0.427125 0.0320692 0)
(0.281257 0.0543454 0)
(0.201439 0.0866545 0)
(-0.154823 0.0976669 0)
(-0.364922 -0.0676045 0)
(-0.339866 -0.120451 0)
(-0.192889 -0.10799 0)
(-0.106688 -0.0806023 0)
(-0.162572 0.049898 0)
(-0.419284 -0.0559291 0)
(-0.490176 -0.0993962 0)
(-0.517841 -0.204386 0)
(-0.243017 -0.171859 0)
(0.14498 -0.184564 0)
(0.559462 -0.0618922 0)
(0.44774 0.172987 0)
(-0.506786 0.071093 0)
(-0.442467 -0.00519498 0)
(-0.802922 -0.325419 0)
(-0.32868 -0.305446 0)
(0.244377 -0.0113684 0)
(-0.0616544 0.178015 0)
(0.240434 -0.113564 0)
(0.235212 -0.0137239 0)
(-0.139666 -0.117002 0)
(0.137789 -0.121616 0)
(0.665014 0.00733313 0)
(0.641249 0.0262442 0)
(0.626474 0.00611626 0)
(0.0432673 0.0115458 0)
(-0.0707652 -0.0471099 0)
(-0.191236 0.126111 0)
(-0.338295 0.0110907 0)
(-0.525677 -0.0771058 0)
(-0.509388 -0.133308 0)
(-0.216462 -0.054751 0)
(-0.625222 -0.0243228 0)
(-0.786468 -0.118393 0)
(-0.595882 -0.256326 0)
(0.0760338 -0.282021 0)
(0.0986158 -0.15432 0)
(0.29426 0.102403 0)
(-0.0643898 0.0326643 0)
(0.357644 0.154891 0)
(-0.74095 -0.00425567 0)
(-0.694497 -0.0585053 0)
(-0.403119 -0.0830001 0)
(0.132506 -0.151129 0)
(0.169983 0.0215059 0)
(0.114721 -0.0656072 0)
(-0.130622 0.0360268 0)
(-0.568648 -0.16097 0)
(0.31248 0.0159861 0)
(0.0207623 0.0772452 0)
(-0.298518 -0.0959838 0)
(-0.198227 -0.173146 0)
(-0.296401 -0.215046 0)
(-0.0565457 -0.106082 0)
(-0.484882 -0.061064 0)
(-1.34016 -0.0955492 0)
(-0.990342 -0.320449 0)
(-0.468087 -0.480494 0)
(0.910368 -0.0193986 0)
(-0.218742 -0.0410688 0)
(0.682018 0.159884 0)
(-0.305473 0.122471 0)
(-0.721523 -0.227253 0)
(0.576259 -0.0751845 0)
(0.445559 0.121213 0)
(-0.0646165 -0.00975452 0)
(0.0671949 -0.123803 0)
(0.217982 -0.094392 0)
(0.386374 -0.0620737 0)
(-0.0704181 -0.0647417 0)
(-0.265505 -0.106839 0)
(-0.474881 -0.166728 0)
(0.664099 0.0608744 0)
(0.682231 0.0598892 0)
(0.706292 0.0602249 0)
(0.735484 0.0598141 0)
(0.773202 0.0645218 0)
(0.796952 0.0768145 0)
(0.782935 0.086051 0)
(0.757526 0.0877403 0)
(0.722031 0.0875919 0)
(0.678257 0.0820697 0)
(0.64797 0.0714716 0)
(0.635551 0.0651222 0)
(0.639919 0.0631944 0)
(0.642323 0.0665648 0)
(0.636449 0.0707997 0)
(0.615378 0.0761916 0)
(0.577233 0.074071 0)
(0.54581 0.0675687 0)
(0.512459 0.0545915 0)
(0.530978 0.049987 0)
(0.538328 0.0593328 0)
(0.508869 0.075564 0)
(0.41887 0.0749858 0)
(0.335384 0.0567429 0)
(0.31864 0.0440778 0)
(0.309085 0.044347 0)
(0.299753 0.0326242 0)
(0.321261 0.0173384 0)
(0.418895 0.0607418 0)
(0.266461 0.0819067 0)
(0.182407 0.0976739 0)
(-0.147041 0.121543 0)
(-0.358838 0.0491205 0)
(-0.331945 -0.0338352 0)
(-0.204778 -0.0458715 0)
(-0.0486236 0.0718894 0)
(-0.182243 0.0173304 0)
(-0.19427 0.11331 0)
(-0.366974 0.0785026 0)
(-0.490342 0.0190374 0)
(-0.22115 -0.117603 0)
(0.108817 -0.127186 0)
(0.320921 -0.0752752 0)
(0.413513 0.242444 0)
(-0.435447 0.271715 0)
(-0.48397 0.0620338 0)
(-0.554454 -0.0101835 0)
(-0.317063 -0.147951 0)
(-0.550171 -0.010145 0)
(-0.105279 0.0200219 0)
(0.433949 0.11951 0)
(0.242704 0.0546547 0)
(-0.155139 -0.165093 0)
(0.355338 -0.0358807 0)
(0.752205 0.175633 0)
(0.90457 0.294577 0)
(0.630771 0.238067 0)
(0.105755 0.0450526 0)
(0.0368131 0.0432414 0)
(-0.334801 0.164033 0)
(-0.379627 0.0954882 0)
(-0.547189 0.0552997 0)
(-0.250444 -0.08521 0)
(-0.238627 0.0784807 0)
(-0.492025 0.0628593 0)
(-0.684626 0.0221584 0)
(-0.579979 -0.0964287 0)
(0.0783668 -0.322356 0)
(0.0718003 0.0176437 0)
(-0.253395 0.13015 0)
(-0.0730118 0.0432783 0)
(0.401027 0.222508 0)
(-0.671751 0.103419 0)
(-0.412479 -0.0833154 0)
(-0.344733 -0.114476 0)
(0.190343 0.118852 0)
(0.457403 0.0489424 0)
(0.108383 0.120228 0)
(-0.168399 0.00933573 0)
(-1.05887 -0.125839 0)
(-0.80221 -0.163904 0)
(0.027236 0.149462 0)
(0.227145 0.105719 0)
(-0.0647649 0.155105 0)
(-0.180943 0.0959459 0)
(-0.130771 0.00454719 0)
(-0.480709 0.103456 0)
(-0.988475 0.051956 0)
(-0.96647 -0.102659 0)
(-0.454766 -0.337795 0)
(0.476329 0.062893 0)
(-0.197196 -0.0745716 0)
(0.706514 0.193676 0)
(-0.286127 0.196783 0)
(-0.779385 -0.199122 0)
(0.527735 -0.065605 0)
(0.52894 0.105041 0)
(-0.0129539 0.051291 0)
(0.000658686 0.0690265 0)
(0.135984 0.0797697 0)
(0.440913 0.018224 0)
(-0.0710014 -0.0685465 0)
(-0.193342 -0.0859405 0)
(-0.417414 -0.0488404 0)
(0.664121 0.0602058 0)
(0.682267 0.058883 0)
(0.706162 0.0590461 0)
(0.735054 0.0582123 0)
(0.772471 0.0629597 0)
(0.795166 0.0766842 0)
(0.781163 0.0870755 0)
(0.755759 0.089185 0)
(0.720142 0.0894041 0)
(0.676521 0.0842718 0)
(0.645955 0.0730841 0)
(0.632867 0.065761 0)
(0.637208 0.0624524 0)
(0.640036 0.0649171 0)
(0.634511 0.0690328 0)
(0.613946 0.0754324 0)
(0.576797 0.0733483 0)
(0.547148 0.0662466 0)
(0.511304 0.0523245 0)
(0.533396 0.0458752 0)
(0.537448 0.057573 0)
(0.508296 0.0770506 0)
(0.416912 0.0784195 0)
(0.332395 0.0543214 0)
(0.319508 0.0303322 0)
(0.305383 0.0197596 0)
(0.281034 0.00693775 0)
(0.314729 -0.00516812 0)
(0.409764 0.0362112 0)
(0.264948 0.0674656 0)
(0.160715 0.101779 0)
(-0.147291 0.121343 0)
(-0.371343 -0.0368643 0)
(-0.318759 -0.119811 0)
(-0.175111 -0.114722 0)
(0.0786916 -0.0585488 0)
(-0.283967 0.0883284 0)
(0.0722646 0.027801 0)
(-0.3139 -0.0232872 0)
(-0.435608 -0.163492 0)
(-0.151893 -0.180894 0)
(0.0155008 -0.165996 0)
(0.267033 0.046646 0)
(0.390634 0.233058 0)
(-0.304022 0.170403 0)
(-0.770413 -0.0474462 0)
(-0.149514 -0.274831 0)
(-0.295712 -0.149122 0)
(-0.454779 -0.0347057 0)
(-0.0465349 0.161539 0)
(0.2217 -0.170148 0)
(0.319495 0.00382145 0)
(-0.127652 -0.140087 0)
(0.474501 -0.404159 0)
(0.983451 0.0120812 0)
(1.2093 0.0858052 0)
(0.690453 0.181272 0)
(0.151865 0.0379305 0)
(-0.0150394 0.016541 0)
(-0.321546 0.0713575 0)
(-0.867285 0.111911 0)
(-0.555514 -0.0815786 0)
(-0.0669854 -0.11138 0)
(-0.275662 -0.0350728 0)
(-0.574655 0.100322 0)
(-0.55596 -0.102093 0)
(-0.224852 -0.284447 0)
(0.0816234 -0.189829 0)
(0.125552 -0.0528759 0)
(-0.436994 -0.0161389 0)
(0.0547211 -0.00655188 0)
(0.481559 0.211327 0)
(-0.529401 0.0440267 0)
(-0.322312 -0.140958 0)
(-0.289506 -0.306172 0)
(-0.283661 -0.201364 0)
(0.213682 0.230195 0)
(-0.0859583 -0.0511144 0)
(-0.281957 -0.000925736 0)
(-0.406456 -0.14627 0)
(-0.857137 -0.156867 0)
(-0.469316 -0.0214721 0)
(-0.211511 0.0222787 0)
(0.0547636 -0.079289 0)
(-0.454542 -0.184647 0)
(-0.251141 -0.0379411 0)
(-0.545737 0.0223691 0)
(-1.08213 0.0572717 0)
(-0.741579 -0.265373 0)
(-0.38238 -0.264788 0)
(0.234899 -0.103778 0)
(-0.215668 -0.0925281 0)
(0.584004 0.149103 0)
(-0.454475 0.173692 0)
(-0.711883 -0.232299 0)
(0.348223 -0.153083 0)
(0.533456 0.17721 0)
(0.087241 0.0521726 0)
(-0.218496 -0.098964 0)
(0.451749 -0.14942 0)
(0.428774 -0.100906 0)
(-0.095395 -0.0922362 0)
(-0.265204 -0.153814 0)
(-0.0481761 -0.0861025 0)
(0.664115 0.0596974 0)
(0.682249 0.0581887 0)
(0.705935 0.0580813 0)
(0.734465 0.0569469 0)
(0.77157 0.0619483 0)
(0.793371 0.0759539 0)
(0.779398 0.0872176 0)
(0.753975 0.089804 0)
(0.71823 0.0903755 0)
(0.674895 0.0847324 0)
(0.643959 0.0728421 0)
(0.630252 0.0649227 0)
(0.634681 0.0621916 0)
(0.637472 0.065979 0)
(0.631997 0.071214 0)
(0.611836 0.0780848 0)
(0.5757 0.0761381 0)
(0.54675 0.0695245 0)
(0.510371 0.054421 0)
(0.533189 0.0485209 0)
(0.535767 0.0609846 0)
(0.507365 0.0808866 0)
(0.415394 0.0821496 0)
(0.330564 0.0599309 0)
(0.322008 0.0438476 0)
(0.302857 0.0436815 0)
(0.26086 0.0252661 0)
(0.311542 0.00902494 0)
(0.408149 0.0596357 0)
(0.25606 0.0881263 0)
(0.132786 0.106726 0)
(-0.144884 0.137977 0)
(-0.372193 0.0366603 0)
(-0.338988 -0.0573535 0)
(-0.179795 -0.0730006 0)
(0.000937452 0.0696513 0)
(-0.374581 -0.00473636 0)
(-0.268724 0.0561337 0)
(-0.530026 0.0735668 0)
(-0.487956 -0.0214323 0)
(-0.188978 -0.148202 0)
(0.00916782 -0.183041 0)
(-0.0299209 -0.187118 0)
(0.377448 0.23854 0)
(-0.277131 0.145265 0)
(-0.56733 0.12248 0)
(-0.315663 -0.191393 0)
(-0.41007 -0.180615 0)
(-0.498337 -0.00102526 0)
(-0.11467 0.0615824 0)
(0.163607 0.0816866 0)
(0.260028 0.0607328 0)
(-0.144556 -0.149433 0)
(0.308326 -0.0598055 0)
(0.773994 0.100156 0)
(0.875 0.210158 0)
(0.762628 0.286482 0)
(0.0967502 0.0675261 0)
(0.0186168 0.0642213 0)
(-0.36671 0.215065 0)
(-1.21677 -0.127607 0)
(-0.379232 -0.0331283 0)
(-0.194424 -0.20459 0)
(-0.456155 0.084664 0)
(-0.570554 0.105018 0)
(-0.529064 0.00446133 0)
(-0.0656527 -0.143661 0)
(0.131257 -0.241246 0)
(0.0652548 0.0150123 0)
(-0.517257 0.133651 0)
(0.301305 0.0959204 0)
(0.492593 0.210341 0)
(-0.273579 0.111837 0)
(-0.351581 -0.0645802 0)
(-0.326925 -0.096938 0)
(-0.903964 -0.0644249 0)
(0.0184808 -0.106604 0)
(-0.163342 0.0127739 0)
(-0.286152 0.0506378 0)
(-0.393194 -0.0244339 0)
(-0.7001 -0.115794 0)
(-0.51391 -0.0523076 0)
(-0.663665 -0.0507246 0)
(-0.395245 0.0990595 0)
(-0.98508 -0.018325 0)
(-0.609791 -0.0570612 0)
(-0.75852 0.0267638 0)
(-1.10983 0.0727634 0)
(-0.408472 -0.0798625 0)
(-0.357763 -0.390502 0)
(0.240863 0.0172997 0)
(-0.174628 -0.0501552 0)
(0.516007 0.196183 0)
(-0.634841 0.172711 0)
(-0.580328 -0.235006 0)
(0.0437128 -0.157429 0)
(0.292778 0.11533 0)
(0.218454 0.131482 0)
(-0.332962 0.0314727 0)
(0.546354 -0.0345602 0)
(0.340839 0.0572789 0)
(-0.140967 -0.0460119 0)
(-0.328679 -0.0543726 0)