/*--------------------------------*- C++ -*----------------------------------*\
| =========                 |                                                 |
| \\      /  F ield         | OpenFOAM: The Open Source CFD Toolbox           |
|  \\    /   O peration     | Version:  v1912                                 |
|   \\  /    A nd           | Website:  www.openfoam.com                      |
|    \\/     M anipulation  |                                                 |
\*---------------------------------------------------------------------------*/
FoamFile
{
    version     2.0;
    format      ascii;
    class       volVectorField;
    location    "20";
    object      U;
}
// * * * * * * * * * * * * * * * * * * * * * * * * * * * * * * * * * * * * * //

dimensions      [0 1 -1 0 0 0 0];


internalField   nonuniform List<vector> 
14268
(
(-0.00840653 -0.000473036 -1.33727e-27)
(-0.00820686 -0.000463322 0)
(-0.00800475 -0.000453348 -8.19674e-27)
(-0.00780074 -0.000443148 2.77917e-27)
(-0.00759536 -0.000432767 0)
(-0.00738909 -0.000422227 1.13246e-26)
(-0.00718242 -0.000411568 0)
(-0.00697582 -0.00040081 6.40954e-27)
(-0.00676975 -0.000389985 0)
(-0.00656461 -0.000379119 0)
(-0.00636084 -0.000368241 -1.38582e-26)
(-0.0061588 -0.000357373 2.22476e-26)
(-0.00595888 -0.000346541 0)
(-0.0057614 -0.00033577 0)
(-0.00556669 -0.000325083 0)
(-0.00537504 -0.000314498 8.58052e-27)
(-0.00518675 -0.000304033 0)
(-0.00500206 -0.000293706 8.34503e-27)
(-0.00482124 -0.000283534 8.14715e-27)
(-0.00464453 -0.000273531 1.25437e-26)
(-0.00447215 -0.000263713 0)
(-0.00430434 -0.000254094 7.30843e-27)
(-0.00414129 -0.000244693 0)
(-0.00398321 -0.000235524 6.60894e-27)
(-0.00383028 -0.000226603 6.23649e-27)
(-0.00368267 -0.000217937 5.85787e-27)
(-0.00354054 -0.000209535 3.75381e-27)
(-0.00340403 -0.000201406 0)
(-0.00327326 -0.000193561 4.75062e-27)
(-0.00314832 -0.00018601 -4.41142e-27)
(-0.00302929 -0.00017876 0)
(-0.00291622 -0.000171822 -3.81019e-27)
(-0.00280914 -0.0001652 0)
(-0.00270803 -0.000158903 9.80313e-27)
(-0.00261285 -0.000152934 0)
(-0.00252352 -0.000147297 0)
(-0.00243992 -0.000141993 2.92953e-27)
(-0.00236191 -0.000137015 0)
(-0.00228928 -0.000132361 0)
(-0.0022218 -0.000128023 -2.88675e-27)
(-0.00215921 -0.000123992 5.56572e-27)
(-0.00210118 -0.000120262 0)
(-0.00204737 -0.00011682 -3.15592e-27)
(-0.00199741 -0.000113647 0)
(-0.0019509 -0.000110725 3.44352e-27)
(-0.0019074 -0.000108035 3.59877e-27)
(-0.00186648 -0.00010555 3.75178e-27)
(-0.0018277 -0.000103247 0)
(-0.00179063 -0.000101102 5.90576e-27)
(-0.00175485 -9.90866e-05 0)
(-0.00172 -9.71749e-05 0)
(-0.00168574 -9.53403e-05 4.10494e-27)
(-0.0016518 -9.35602e-05 0)
(-0.001618 -9.18109e-05 0)
(-0.00158426 -9.00711e-05 3.64972e-27)
(-0.00155056 -8.83278e-05 1.12919e-27)
(-0.00151698 -8.65725e-05 0)
(-0.00148367 -8.4805e-05 2.62908e-27)
(-0.00145085 -8.30263e-05 0)
(-0.00141879 -8.12477e-05 0)
(-0.0013878 -7.94821e-05 1.28879e-27)
(-0.00135821 -7.77473e-05 0)
(-0.00133037 -7.60619e-05 0)
(-0.00130463 -7.44539e-05 0)
(-0.00128127 -7.29487e-05 0)
(-0.00126054 -7.15704e-05 0)
(-0.00124259 -7.03399e-05 0)
(-0.00122745 -6.92754e-05 0)
(-0.00121505 -6.83823e-05 0)
(-0.00120514 -6.76617e-05 7.225e-28)
(-0.00119737 -6.71036e-05 0)
(-0.00119126 -6.66985e-05 3.43722e-28)
(-0.00118621 -6.64174e-05 0)
(-0.00118159 -6.62459e-05 0)
(-0.00117676 -6.61387e-05 -4.01552e-28)
(-0.00117111 -6.60575e-05 0)
(-0.00116412 -6.59674e-05 0)
(-0.00115544 -6.58162e-05 -5.49229e-28)
(-0.00114494 -6.558e-05 0)
(-0.00113274 -6.52314e-05 0)
(-0.00111924 -6.47662e-05 0)
(-0.00110502 -6.41962e-05 0)
(-0.00109087 -6.35407e-05 1.34548e-27)
(-0.00107767 -6.28468e-05 -1.84535e-27)
(-0.00106633 -6.2156e-05 0)
(-0.00105768 -6.15396e-05 0)
(-0.00105224 -6.10487e-05 0)
(-0.0010502 -6.07244e-05 2.76792e-27)
(-0.00105131 -6.06049e-05 -2.60797e-27)
(-0.00105485 -6.06843e-05 0)
(-0.00105983 -6.09544e-05 1.86564e-27)
(-0.00106509 -6.13727e-05 0)
(-0.00106941 -6.18589e-05 0)
(-0.00107178 -6.23358e-05 0)
(-0.00107165 -6.27222e-05 0)
(-0.00106906 -6.29673e-05 0)
(-0.0010646 -6.30529e-05 -1.61304e-27)
(-0.00105923 -6.30196e-05 0)
(-0.001054 -6.28998e-05 0)
(-0.00104984 -6.27777e-05 0)
(-0.00104729 -6.27113e-05 -7.54762e-30)
(-0.00104624 -6.27594e-05 0)
(-0.00104606 -6.2904e-05 0)
(-0.00104586 -6.31448e-05 0)
(-0.00104499 -6.34053e-05 0)
(-0.00104297 -6.36268e-05 0)
(-0.00104018 -6.37944e-05 0)
(-0.00103699 -6.39002e-05 0)
(-0.00103454 -6.39993e-05 0)
(-0.00103274 -6.41291e-05 0)
(-0.00103104 -6.43998e-05 0)
(-0.00103425 -6.48517e-05 3.48529e-27)
(-0.00102183 -6.47004e-05 0)
(-0.00103495 -6.59228e-05 -3.35699e-27)
(-0.000995368 -6.47724e-05 3.26219e-27)
(-0.00101578 -6.674e-05 0)
(-0.000931675 -6.39536e-05 2.9257e-27)
(-0.000941258 -6.60701e-05 0)
(-0.000782277 -6.04709e-05 0)
(-0.000736999 -6.08534e-05 2.79077e-27)
(-0.00044782 -4.98926e-05 0)
(-0.000274109 -4.49492e-05 0)
(0.000223873 -2.48095e-05 0)
(0.00064847 -7.72098e-06 0)
(0.001454 2.61796e-05 0)
(0.00228172 6.30117e-05 0)
(0.00360822 0.000120286 2.19221e-27)
(0.00521374 0.000195333 3.65991e-27)
(0.00750746 0.000299534 0)
(0.0105198 0.000448292 0)
(0.0141128 0.000626136 0)
(0.0184395 0.000856248 -8.39493e-27)
(0.0218731 0.00104838 7.07394e-27)
(0.0249117 0.00122367 0)
(-0.00839372 -0.000558102 0)
(-0.00819414 -0.000549044 0)
(-0.00799215 -0.000539444 -1.27696e-26)
(-0.00778831 -0.000529355 -2.3007e-26)
(-0.00758313 -0.000518811 2.61619e-26)
(-0.0073771 -0.000507868 5.13152e-26)
(-0.0071707 -0.00049656 3.12375e-26)
(-0.0069644 -0.000484939 -3.32013e-26)
(-0.00675864 -0.000473043 0)
(-0.00655385 -0.000460917 3.60696e-26)
(-0.00635044 -0.0004486 -6.80846e-26)
(-0.0061488 -0.000436139 3.18464e-26)
(-0.00594928 -0.000423571 3.79933e-26)
(-0.00575222 -0.000410934 3.80868e-26)
(-0.00555795 -0.000398262 -3.79424e-26)
(-0.00536675 -0.000385588 3.75838e-26)
(-0.00517892 -0.000372942 3.70328e-26)
(-0.0049947 -0.000360351 -3.63125e-26)
(-0.00481435 -0.00034784 3.54439e-26)
(-0.00463812 -0.000335432 6.42641e-26)
(-0.00446624 -0.000323148 0)
(-0.00429891 -0.000311009 -3.21545e-26)
(-0.00413636 -0.000299033 3.08982e-26)
(-0.00397879 -0.000287235 2.95964e-26)
(-0.00382636 -0.000275636 -2.82696e-26)
(-0.00367925 -0.000264258 2.69381e-26)
(-0.00353762 -0.000253125 4.7496e-26)
(-0.0034016 -0.000242259 2.43394e-26)
(-0.00327132 -0.00023168 -2.31095e-26)
(-0.00314688 -0.000221405 0)
(-0.00302834 -0.000211456 2.08724e-26)
(-0.00291575 -0.000201849 -1.98937e-26)
(-0.00280915 -0.000192603 1.90239e-26)
(-0.00270851 -0.000183733 3.34255e-26)
(-0.00261379 -0.000175255 0)
(-0.00252492 -0.000167183 -1.71425e-26)
(-0.00244177 -0.000159528 1.67696e-26)
(-0.00236419 -0.000152306 1.65218e-26)
(-0.00229198 -0.000145525 0)
(-0.00222491 -0.00013919 1.63758e-26)
(-0.0021627 -0.000133304 3.02994e-26)
(-0.00210505 -0.00012786 1.66236e-26)
(-0.00205161 -0.000122852 -1.68577e-26)
(-0.00200199 -0.000118272 1.71391e-26)
(-0.0019558 -0.000114106 1.74452e-26)
(-0.00191261 -0.000110334 -1.7751e-26)
(-0.00187198 -0.000106932 1.80292e-26)
(-0.00183347 -0.000103875 0)
(-0.00179665 -0.000101124 1.64987e-26)
(-0.0017611 -9.86417e-05 0)
(-0.00172647 -9.63808e-05 0)
(-0.00169241 -9.42908e-05 0)
(-0.00165866 -9.23163e-05 -1.75423e-26)
(-0.00162505 -9.04081e-05 0)
(-0.00159148 -8.85234e-05 1.60127e-26)
(-0.00155795 -8.66255e-05 1.38471e-26)
(-0.00152454 -8.46869e-05 0)
(-0.0014914 -8.26863e-05 0)
(-0.00145876 -8.06146e-05 0)
(-0.00142689 -7.84656e-05 0)
(-0.0013961 -7.62445e-05 0)
(-0.00136672 -7.39649e-05 0)
(-0.00133911 -7.16524e-05 0)
(-0.0013136 -6.93342e-05 -4.54953e-27)
(-0.0012905 -6.70474e-05 0)
(-0.00127003 -6.48357e-05 0)
(-0.00125235 -6.27461e-05 0)
(-0.00123749 -6.08243e-05 0)
(-0.00122536 -5.91194e-05 0)
(-0.00121573 -5.76695e-05 0)
(-0.00120824 -5.65036e-05 -3.65763e-27)
(-0.00120239 -5.56257e-05 0)
(-0.00119761 -5.50322e-05 5.07368e-27)
(-0.00119324 -5.46802e-05 0)
(-0.00118865 -5.45302e-05 -6.31955e-27)
(-0.00118323 -5.45127e-05 0)
(-0.00117647 -5.45392e-05 0)
(-0.00116801 -5.45357e-05 0)
(-0.00115773 -5.44099e-05 0)
(-0.00114576 -5.4097e-05 4.85859e-27)
(-0.00113249 -5.35472e-05 0)
(-0.00111853 -5.27376e-05 2.37694e-27)
(-0.00110466 -5.16809e-05 0)
(-0.00109176 -5.04142e-05 0)
(-0.00108077 -4.90311e-05 0)
(-0.00107247 -4.7631e-05 0)
(-0.00106742 -4.63439e-05 0)
(-0.0010658 -4.5295e-05 -9.92386e-28)
(-0.00106732 -4.45671e-05 -8.74737e-29)
(-0.00107129 -4.42167e-05 0)
(-0.00107671 -4.42262e-05 2.25299e-27)
(-0.0010824 -4.45333e-05 3.31871e-27)
(-0.00108715 -4.50289e-05 0)
(-0.00108994 -4.55504e-05 0)
(-0.00109024 -4.59483e-05 0)
(-0.0010881 -4.61064e-05 0)
(-0.00108413 -4.59761e-05 0)
(-0.00107928 -4.5559e-05 1.623e-27)
(-0.00107461 -4.49465e-05 0)
(-0.00107106 -4.42597e-05 6.91021e-28)
(-0.00106918 -4.36576e-05 7.01686e-30)
(-0.00106882 -4.32214e-05 1.26982e-27)
(-0.00106937 -4.29835e-05 0)
(-0.00106994 -4.2871e-05 0)
(-0.00106987 -4.2797e-05 0)
(-0.0010687 -4.26513e-05 2.04857e-27)
(-0.00106681 -4.2348e-05 1.69933e-27)
(-0.0010646 -4.19313e-05 0)
(-0.00106319 -4.14228e-05 -1.29018e-27)
(-0.00106254 -4.09811e-05 0)
(-0.00106206 -4.05303e-05 0)
(-0.00106656 -4.05379e-05 0)
(-0.00105559 -4.0043e-05 0)
(-0.00107022 -4.06853e-05 0)
(-0.00103234 -3.93188e-05 -3.39114e-27)
(-0.00105452 -4.05984e-05 3.85782e-27)
(-0.00097243 -3.78923e-05 0)
(-0.000984136 -3.94843e-05 0)
(-0.000827548 -3.45541e-05 0)
(-0.000784823 -3.48871e-05 -5.79507e-28)
(-0.000498578 -2.55744e-05 0)
(-0.000328031 -2.11117e-05 0)
(0.000166245 -3.82463e-06 0)
(0.000586678 1.26907e-05 0)
(0.00138741 4.16834e-05 0)
(0.00220957 7.76257e-05 0)
(0.00353 0.000125057 0)
(0.00512808 0.000196216 -2.32605e-27)
(0.00741387 0.000284737 0)
(0.0104158 0.000429351 -1.364e-27)
(0.0139967 0.000596636 0)
(0.0183073 0.000832444 0)
(0.0217216 0.00102966 0)
(0.0247464 0.00122576 -2.10681e-26)
(-0.00838294 -0.000661395 -1.61211e-26)
(-0.008183 -0.000652832 0)
(-0.00798071 -0.000643457 0)
(-0.00777659 -0.000633336 -6.60333e-26)
(-0.00757117 -0.000622543 3.50206e-26)
(-0.00736493 -0.000611124 3.96548e-26)
(-0.00715836 -0.000599144 4.36525e-26)
(-0.00695193 -0.000586649 -4.70374e-26)
(-0.00674608 -0.000573699 0)
(-0.00654122 -0.000560344 5.20736e-26)
(-0.00633778 -0.000546643 -5.37899e-26)
(-0.00613613 -0.000532647 -6.08076e-26)
(-0.00593664 -0.000518409 5.57732e-26)
(-0.00573963 -0.000503981 5.61059e-26)
(-0.00554543 -0.000489411 -1.17451e-25)
(-0.00535433 -0.00047474 5.56288e-26)
(-0.0051666 -0.000460007 1.14852e-25)
(-0.00498252 -0.000445245 4.91751e-27)
(-0.00480231 -0.000430486 5.2609e-26)
(-0.00462624 -0.000415759 5.1127e-26)
(-0.00445452 -0.000401093 0)
(-0.00428737 -0.000386516 -4.76483e-26)
(-0.004125 -0.000372059 9.5655e-26)
(-0.00396761 -0.000357753 4.37044e-26)
(-0.00381538 -0.000343627 3.9706e-27)
(-0.00366848 -0.000329704 8.29823e-26)
(-0.00352707 -0.000316007 3.75038e-26)
(-0.00339129 -0.000302564 7.46261e-26)
(-0.00326124 -0.000289402 3.5398e-27)
(-0.00313704 -0.00027655 0)
(-0.00301875 -0.000264039 3.00536e-26)
(-0.00290642 -0.000251896 3.27284e-27)
(-0.00280007 -0.000240153 2.71673e-26)
(-0.00269969 -0.000228838 2.60034e-26)
(-0.00260523 -0.000217981 0)
(-0.00251661 -0.000207611 -2.42894e-26)
(-0.00243371 -0.000197752 5.03958e-26)
(-0.00235639 -0.000188423 2.34144e-26)
(-0.00228443 -0.000179643 0)
(-0.00221761 -0.000171427 4.93581e-26)
(-0.00215563 -0.000163787 2.35578e-26)
(-0.0020982 -0.000156734 2.39264e-26)
(-0.00204497 -0.000150271 -2.44128e-26)
(-0.00199555 -0.000144389 -2.37579e-27)
(-0.00194953 -0.000139077 -2.2882e-27)
(-0.0019065 -0.000134317 2.19609e-27)
(-0.00186601 -0.000130081 -2.09941e-27)
(-0.00182762 -0.000126332 0)
(-0.0017909 -0.000123031 -2.96155e-26)
(-0.00175543 -0.000120125 0)
(-0.00172083 -0.00011755 0)
(-0.00168678 -0.000115238 -2.91227e-26)
(-0.00165303 -0.000113113 -2.69308e-26)
(-0.00161938 -0.000111096 0)
(-0.00158576 -0.000109113 -1.22719e-27)
(-0.00155217 -0.000107102 0)
(-0.00151869 -0.000105011 0)
(-0.00148548 -0.000102803 -2.00819e-26)
(-0.00145276 -0.000100451 0)
(-0.0014208 -9.79459e-05 0)
(-0.00138993 -9.52878e-05 -1.30397e-26)
(-0.00136048 -9.24937e-05 0)
(-0.00133281 -8.95922e-05 0)
(-0.00130724 -8.66331e-05 -6.25996e-27)
(-0.0012841 -8.36761e-05 -5.37287e-27)
(-0.0012636 -8.07896e-05 -4.26863e-27)
(-0.0012459 -7.80479e-05 0)
(-0.00123103 -7.55286e-05 0)
(-0.0012189 -7.32992e-05 0)
(-0.00120927 -7.14214e-05 0)
(-0.00120179 -6.99387e-05 -4.54502e-27)
(-0.00119593 -6.88824e-05 0)
(-0.00119112 -6.82462e-05 -4.6349e-28)
(-0.0011867 -6.8018e-05 0)
(-0.00118204 -6.8135e-05 -9.21173e-27)
(-0.00117651 -6.85114e-05 -1.0197e-26)
(-0.0011696 -6.90406e-05 0)
(-0.00116097 -6.95806e-05 -9.8657e-27)
(-0.00115049 -7.00058e-05 0)
(-0.00113831 -7.01864e-05 7.17731e-27)
(-0.00112482 -7.00262e-05 0)
(-0.00111065 -6.94658e-05 3.03433e-27)
(-0.00109656 -6.84861e-05 -7.79018e-28)
(-0.00108347 -6.71331e-05 0)
(-0.0010723 -6.54932e-05 0)
(-0.00106386 -6.37279e-05 3.91401e-27)
(-0.00105868 -6.20148e-05 4.10273e-27)
(-0.00105694 -6.05414e-05 -3.62473e-27)
(-0.00105834 -5.94882e-05 -2.32182e-27)
(-0.00106217 -5.89621e-05 0)
(-0.00106742 -5.90159e-05 1.55388e-27)
(-0.00107289 -5.96216e-05 -1.74295e-28)
(-0.00107737 -6.06327e-05 0)
(-0.00107986 -6.1834e-05 0)
(-0.0010798 -6.29724e-05 0)
(-0.00107729 -6.38319e-05 0)
(-0.00107293 -6.42722e-05 -2.5786e-27)
(-0.00106769 -6.42789e-05 1.03852e-27)
(-0.00106263 -6.39125e-05 0)
(-0.00105871 -6.33716e-05 2.0323e-29)
(-0.00105643 -6.28729e-05 7.78063e-28)
(-0.00105565 -6.26207e-05 -1.97428e-30)
(-0.00105574 -6.26717e-05 0)
(-0.00105579 -6.30208e-05 0)
(-0.00105515 -6.35062e-05 0)
(-0.00105336 -6.39566e-05 9.981e-28)
(-0.00105081 -6.42008e-05 3.41251e-28)
(-0.00104788 -6.42533e-05 -3.40701e-28)
(-0.00104572 -6.41449e-05 6.78081e-28)
(-0.00104422 -6.41041e-05 0)
(-0.00104287 -6.42499e-05 0)
(-0.00104638 -6.48043e-05 0)
(-0.00103432 -6.51863e-05 -1.33847e-27)
(-0.0010477 -6.6831e-05 0)
(-0.00100846 -6.70237e-05 -2.64688e-27)
(-0.00102911 -7.00144e-05 3.56433e-27)
(-0.000945329 -6.99941e-05 -4.59077e-27)
(-0.000955117 -7.46056e-05 0)
(-0.000796349 -7.4146e-05 -7.06014e-27)
(-0.000751188 -7.94243e-05 5.82425e-28)
(-0.000462071 -7.68107e-05 0)
(-0.000288397 -7.93147e-05 0)
(0.000209707 -7.12294e-05 -8.52494e-27)
(0.000634233 -6.25882e-05 0)
(0.00143991 -4.56864e-05 0)
(0.00226757 -1.84619e-05 0)
(0.00359444 1.1637e-05 0)
(0.00520025 7.28234e-05 -5.65768e-27)
(0.00749453 0.000141193 1.06208e-26)
(0.0105062 0.000282375 2.74949e-27)
(0.014097 0.000446238 1.99674e-27)
(0.0184195 0.00070842 -2.31549e-26)
(0.0218446 0.000947019 2.77089e-26)
(0.0248653 0.00118891 5.0677e-27)
(-0.00837586 -0.000749798 -1.45678e-26)
(-0.00817546 -0.000741803 0)
(-0.00797277 -0.00073272 0)
(-0.00776831 -0.000722628 -4.28088e-26)
(-0.0075626 -0.000711591 5.67644e-26)
(-0.00735612 -0.00069969 -6.31404e-26)
(-0.00714935 -0.000686987 0)
(-0.00694275 -0.000673558 7.31765e-26)
(-0.00673677 -0.000659468 0)
(-0.00653182 -0.000644786 0)
(-0.00632832 -0.000629577 0)
(-0.00612665 -0.000613921 -7.78118e-26)
(-0.00592716 -0.000597885 8.44679e-26)
(-0.0057302 -0.000581534 -8.47209e-26)
(-0.00553607 -0.000564926 -7.90713e-26)
(-0.00534506 -0.000548116 -8.36485e-26)
(-0.00515744 -0.000531153 -5.06165e-27)
(-0.00497348 -0.000514082 1.56675e-25)
(-0.00479343 -0.000496942 0)
(-0.00461751 -0.000479769 0)
(-0.00444597 -0.000462601 0)
(-0.00427902 -0.000445469 0)
(-0.00411687 -0.000428404 1.32683e-25)
(-0.00395972 -0.000411435 0)
(-0.00380774 -0.000394594 -3.96564e-27)
(-0.00366109 -0.000377922 1.14877e-25)
(-0.00351994 -0.000361459 0)
(-0.00338442 -0.000345243 4.97593e-26)
(-0.00325466 -0.000329311 4.70333e-26)
(-0.00313074 -0.000313702 0)
(-0.00301275 -0.000298453 0)
(-0.00290073 -0.000283606 3.9922e-26)
(-0.0027947 -0.000269202 0)
(-0.00269465 -0.000255278 0)
(-0.00260053 -0.000241875 -3.8059e-26)
(-0.00251226 -0.00022903 0)
(-0.00242971 -0.000216781 3.31993e-26)
(-0.00235272 -0.000205167 0)
(-0.00228111 -0.000194222 0)
(-0.00221462 -0.000183972 3.26179e-26)
(-0.00215299 -0.00017444 0)
(-0.00209589 -0.000165637 0)
(-0.00204298 -0.000157572 0)
(-0.00199387 -0.000150249 -3.49175e-26)
(-0.00194815 -0.000143661 -3.57799e-26)
(-0.0019054 -0.00013779 3.66504e-26)
(-0.00186516 -0.00013261 -3.7467e-26)
(-0.001827 -0.000128086 -4.01624e-26)
(-0.00179048 -0.000124163 -3.86717e-26)
(-0.00175519 -0.000120777 0)
(-0.00172075 -0.000117843 0)
(-0.00168682 -0.000115267 -3.83383e-26)
(-0.00165316 -0.00011294 0)
(-0.00161958 -0.000110757 0)
(-0.001586 -0.000108621 1.2242e-27)
(-0.00155242 -0.000106446 0)
(-0.00151895 -0.000104162 0)
(-0.00148574 -0.00010171 -2.62665e-26)
(-0.00145301 -9.90529e-05 0)
(-0.00142107 -9.61632e-05 0)
(-0.00139021 -9.30331e-05 -1.65883e-26)
(-0.00136078 -8.96748e-05 0)
(-0.00133315 -8.61235e-05 0)
(-0.00130766 -8.24281e-05 0)
(-0.00128461 -7.86593e-05 -5.99405e-27)
(-0.00126423 -7.49052e-05 -4.47773e-27)
(-0.00124668 -7.12669e-05 0)
(-0.00123197 -6.78511e-05 0)
(-0.00122001 -6.47706e-05 0)
(-0.00121056 -6.21266e-05 0)
(-0.00120326 -6.00039e-05 0)
(-0.00119758 -5.84505e-05 0)
(-0.00119294 -5.74893e-05 -9.22528e-27)
(-0.00118869 -5.7083e-05 0)
(-0.00118417 -5.71695e-05 -1.26961e-26)
(-0.00117875 -5.76312e-05 -1.32045e-26)
(-0.00117192 -5.83055e-05 0)
(-0.00116333 -5.9023e-05 -1.28065e-26)
(-0.00115288 -5.9588e-05 0)
(-0.00114069 -5.98289e-05 0)
(-0.00112718 -5.96023e-05 0)
(-0.00111299 -5.88147e-05 -3.39209e-27)
(-0.0010989 -5.74344e-05 -1.82807e-28)
(-0.00108583 -5.54938e-05 0)
(-0.00107472 -5.31312e-05 0)
(-0.00106638 -5.05391e-05 6.32036e-27)
(-0.00106135 -4.79761e-05 6.52281e-27)
(-0.0010598 -4.5719e-05 5.42641e-27)
(-0.00106144 -4.40013e-05 0)
(-0.00106553 -4.30026e-05 0)
(-0.00107104 -4.27838e-05 0)
(-0.00107676 -4.329e-05 -4.44788e-27)
(-0.00108147 -4.43393e-05 0)
(-0.00108412 -4.5626e-05 7.01335e-27)
(-0.00108421 -4.6819e-05 0)
(-0.0010818 -4.76267e-05 0)
(-0.00107755 -4.78729e-05 -2.76623e-27)
(-0.00107244 -4.75099e-05 0)
(-0.00106756 -4.66513e-05 0)
(-0.00106387 -4.55301e-05 1.95242e-27)
(-0.00106188 -4.44731e-05 1.79149e-27)
(-0.00106144 -4.37175e-05 9.11691e-28)
(-0.0010619 -4.33757e-05 0)
(-0.00106234 -4.33881e-05 0)
(-0.00106208 -4.35604e-05 0)
(-0.00106067 -4.36565e-05 0)
(-0.00105852 -4.34514e-05 3.26061e-28)
(-0.00105605 -4.2983e-05 -1.2039e-27)
(-0.00105442 -4.22667e-05 0)
(-0.00105356 -4.16415e-05 0)
(-0.00105289 -4.11413e-05 0)
(-0.00105714 -4.12116e-05 0)
(-0.00104597 -4.12643e-05 -1.16043e-27)
(-0.00106026 -4.23924e-05 1.85175e-27)
(-0.0010221 -4.24319e-05 -2.68021e-27)
(-0.00104388 -4.48544e-05 0)
(-0.000961407 -4.50486e-05 -5.3701e-27)
(-0.000972563 -4.9342e-05 0)
(-0.000815356 -4.97821e-05 -8.79339e-27)
(-0.000771812 -5.53178e-05 -1.01956e-26)
(-0.000484562 -5.46597e-05 0)
(-0.000312868 -5.80546e-05 0)
(0.000182963 -5.31912e-05 -1.16807e-26)
(0.000604777 -4.5433e-05 0)
(0.00140731 -3.39831e-05 0)
(0.00223109 -7.91434e-06 0)
(0.00355366 1.1693e-05 0)
(0.00515405 6.8792e-05 -2.12237e-27)
(0.00744242 0.000120958 1.81138e-26)
(0.0104469 0.000258511 0)
(0.0140287 0.000412592 -3.57248e-27)
(0.0183362 0.000683597 -2.2201e-26)
(0.0217425 0.000927979 -6.26444e-27)
(0.0247579 0.00119184 3.01429e-26)
(-0.00836878 -0.00085086 0)
(-0.00816778 -0.00084332 -4.08766e-26)
(-0.00796453 -0.000834424 5.28745e-26)
(-0.00775956 -0.000824271 -6.35336e-26)
(-0.00755338 -0.000812959 -6.57877e-27)
(-0.00734649 -0.000800565 -7.45654e-26)
(-0.00713936 -0.000787172 8.80446e-26)
(-0.00693246 -0.000772852 8.76006e-26)
(-0.00672622 -0.000757688 0)
(-0.00652107 -0.000741759 1.02491e-25)
(-0.00631741 -0.000725157 0)
(-0.00611562 -0.000707957 -1.07236e-25)
(-0.00591607 -0.000690243 -5.65183e-27)
(-0.00571907 -0.000672089 5.5054e-27)
(-0.00552493 -0.000653571 -1.08243e-25)
(-0.00533396 -0.000634756 -2.09227e-25)
(-0.0051464 -0.000615701 -1.00579e-25)
(-0.00496253 -0.000596454 2.02194e-25)
(-0.00478258 -0.000577062 -1.0102e-25)
(-0.00460679 -0.000557565 -9.81096e-26)
(-0.0044354 -0.000538007 0)
(-0.0042686 -0.00051843 -9.13892e-26)
(-0.00410661 -0.000498876 8.34921e-26)
(-0.00394962 -0.000479394 0)
(-0.00379783 -0.000460025 3.95935e-27)
(-0.0036514 -0.000440808 7.22044e-26)
(-0.00351049 -0.000421782 0)
(-0.00337523 -0.00040299 0)
(-0.00324573 -0.000384479 0)
(-0.0031221 -0.000366298 -6.13699e-26)
(-0.00300441 -0.000348498 -5.82115e-26)
(-0.0028927 -0.000331128 -5.53455e-26)
(-0.00278698 -0.000314241 0)
(-0.00268726 -0.000297892 0)
(-0.00259347 -0.000282134 3.03789e-27)
(-0.00250554 -0.00026702 0)
(-0.00242334 -0.000252601 -4.63184e-26)
(-0.00234672 -0.000238918 0)
(-0.00227548 -0.000226016 0)
(-0.00220936 -0.00021393 0)
(-0.00214809 -0.000202694 0)
(-0.00209134 -0.000192337 0)
(-0.00203877 -0.000182875 0)
(-0.00198999 -0.000174309 -4.79695e-26)
(-0.0019446 -0.000166638 0)
(-0.00190214 -0.000159844 0)
(-0.00186219 -0.000153894 0)
(-0.00182428 -0.000148741 -1.01435e-25)
(-0.00178799 -0.000144329 0)
(-0.00175288 -0.000140577 0)
(-0.00171858 -0.000137384 -5.22016e-26)
(-0.00168476 -0.000134636 0)
(-0.00165115 -0.000132205 0)
(-0.00161759 -0.000129953 0)
(-0.00158399 -0.00012775 4.44681e-26)
(-0.00155039 -0.000125486 -4.2629e-26)
(-0.00151686 -0.000123067 0)
(-0.00148358 -0.00012042 -3.51975e-26)
(-0.00145078 -0.00011749 0)
(-0.00141875 -0.000114245 0)
(-0.0013878 -0.000110676 0)
(-0.00135831 -0.000106799 0)
(-0.00133062 -0.000102655 -1.47066e-26)
(-0.00130508 -9.83156e-05 0)
(-0.001282 -9.38777e-05 0)
(-0.00126162 -8.94556e-05 0)
(-0.00124409 -8.51787e-05 0)
(-0.00122944 -8.11857e-05 -5.26517e-27)
(-0.00121758 -7.7608e-05 0)
(-0.00120825 -7.4568e-05 -6.78697e-27)
(-0.00120108 -7.21644e-05 0)
(-0.00119553 -7.04683e-05 0)
(-0.00119101 -6.94971e-05 0)
(-0.00118684 -6.92379e-05 -1.49493e-26)
(-0.00118237 -6.96072e-05 3.76524e-28)
(-0.00117695 -7.04684e-05 0)
(-0.00117008 -7.16393e-05 -1.80039e-26)
(-0.0011614 -7.28869e-05 -1.71777e-26)
(-0.00115081 -7.39801e-05 -1.52973e-26)
(-0.00113846 -7.46857e-05 0)
(-0.00112476 -7.48153e-05 0)
(-0.00111037 -7.42389e-05 2.0696e-29)
(-0.0010961 -7.28997e-05 0)
(-0.00108287 -7.08448e-05 3.01289e-27)
(-0.00107164 -6.82114e-05 0)
(-0.00106323 -6.52553e-05 0)
(-0.00105819 -6.22868e-05 0)
(-0.00105666 -5.96435e-05 6.81187e-27)
(-0.00105834 -5.76505e-05 -4.18336e-27)
(-0.00106246 -5.65281e-05 0)
(-0.00106798 -5.63878e-05 0)
(-0.00107366 -5.72073e-05 0)
(-0.00107826 -5.87674e-05 -8.552e-27)
(-0.00108074 -6.07083e-05 9.31658e-27)
(-0.0010806 -6.26008e-05 0)
(-0.00107794 -6.40616e-05 6.72563e-27)
(-0.00107342 -6.48296e-05 0)
(-0.00106804 -6.48408e-05 0)
(-0.00106293 -6.41885e-05 1.04896e-27)
(-0.00105902 -6.31926e-05 0)
(-0.00105683 -6.22361e-05 1.89461e-27)
(-0.00105619 -6.16691e-05 0)
(-0.0010564 -6.16227e-05 6.11488e-28)
(-0.00105655 -6.20811e-05 -1.68876e-27)
(-0.00105595 -6.27854e-05 0)
(-0.00105414 -6.34445e-05 0)
(-0.00105156 -6.37424e-05 -2.60513e-29)
(-0.00104863 -6.37125e-05 0)
(-0.00104651 -6.33676e-05 0)
(-0.0010451 -6.31302e-05 0)
(-0.00104387 -6.31338e-05 0)
(-0.00104749 -6.37709e-05 0)
(-0.00103557 -6.46615e-05 0)
(-0.001049 -6.67174e-05 2.80841e-27)
(-0.0010099 -6.82112e-05 -4.00347e-27)
(-0.00103062 -7.22084e-05 0)
(-0.00094699 -7.4899e-05 0)
(-0.000956843 -8.19837e-05 0)
(-0.000798137 -8.659e-05 0)
(-0.000752942 -9.67284e-05 0)
(-0.000463653 -0.000102347 0)
(-0.000289783 -0.000112275 0)
(0.00020888 -0.000116049 0)
(0.000633617 -0.00011571 0)
(0.00143991 -0.000115696 0)
(0.00226771 -9.7886e-05 0)
(0.0035953 -9.48415e-05 0)
(0.00520195 -4.73293e-05 -3.41115e-27)
(0.00749759 -1.46474e-05 -1.96063e-26)
(0.0105113 0.000119137 0)
(0.0141029 0.000269127 0)
(0.0184248 0.000563119 0)
(0.0218475 0.000847828 -4.16982e-26)
(0.0248646 0.001157 0)
(-0.00836267 -0.000942553 0)
(-0.00816095 -0.000935479 -4.33507e-26)
(-0.00795706 -0.000926782 9.03115e-26)
(-0.00775154 -0.000916564 -7.09799e-26)
(-0.00754488 -0.00090492 -8.24424e-26)
(-0.00733756 -0.000891953 4.94689e-26)
(-0.00713004 -0.000877752 4.72875e-26)
(-0.0069228 -0.000862414 0)
(-0.00671626 -0.000846033 0)
(-0.00651087 -0.000828705 1.1886e-25)
(-0.00630701 -0.000810527 0)
(-0.00610508 -0.000791603 -1.24858e-25)
(-0.00590542 -0.000772031 -1.26295e-25)
(-0.00570836 -0.000751911 1.92956e-25)
(-0.00551421 -0.000731322 -1.26446e-25)
(-0.00532324 -0.000710336 -1.25308e-25)
(-0.00513572 -0.000689015 0)
(-0.0049519 -0.000667431 1.21055e-25)
(-0.00477204 -0.000645636 -1.18083e-25)
(-0.00459636 -0.000623678 -1.1465e-25)
(-0.00442508 -0.000601607 5.76462e-26)
(-0.00425844 -0.000579467 -1.06676e-25)
(-0.00409664 -0.000557301 0)
(-0.00393988 -0.000535153 0)
(-0.00378831 -0.000513066 1.41549e-25)
(-0.00364211 -0.000491098 0)
(-0.00350144 -0.000469305 -4.37237e-26)
(-0.00336644 -0.00044774 4.14125e-26)
(-0.00323722 -0.000426459 0)
(-0.00311388 -0.000405519 -7.07899e-26)
(-0.0029965 -0.000384978 -3.18351e-26)
(-0.00288512 -0.000364898 -6.35933e-26)
(-0.00277976 -0.000345344 -3.1876e-26)
(-0.0026804 -0.000326378 0)
(-0.002587 -0.000308063 5.58375e-26)
(-0.00249948 -0.000290463 2.85656e-26)
(-0.00241769 -0.000273639 -5.29673e-26)
(-0.00234148 -0.000257657 -2.75288e-26)
(-0.00227065 -0.000242571 2.7348e-26)
(-0.00220496 -0.000228433 0)
(-0.00214411 -0.000215285 0)
(-0.0020878 -0.000203155 2.79531e-26)
(-0.00203566 -0.000192066 0)
(-0.00198729 -0.000182036 -8.4735e-26)
(-0.00194228 -0.000173064 0)
(-0.0019002 -0.000165133 3.03125e-26)
(-0.00186059 -0.000158217 0)
(-0.001823 -0.000152269 -6.081e-26)
(-0.00178699 -0.000147217 0)
(-0.00175213 -0.000142969 3.18778e-26)
(-0.00171803 -0.000139408 -6.18149e-26)
(-0.00168438 -0.000136388 0)
(-0.00165089 -0.000133745 3.04815e-26)
(-0.0016174 -0.000131318 -2.93048e-26)
(-0.00158384 -0.000128952 0)
(-0.00155022 -0.000126515 -5.06569e-26)
(-0.00151666 -0.000123892 2.37146e-26)
(-0.00148334 -0.000120991 -4.17106e-26)
(-0.00145049 -0.000117745 -1.87632e-26)
(-0.00141841 -0.000114106 1.61358e-26)
(-0.00138744 -0.000110055 0)
(-0.00135792 -0.000105604 0)
(-0.00133024 -0.000100798 -1.6821e-26)
(-0.00130475 -9.57092e-05 6.71752e-27)
(-0.00128175 -9.04429e-05 -5.08395e-27)
(-0.00126149 -8.51332e-05 0)
(-0.00124412 -7.9936e-05 0)
(-0.00122966 -7.50202e-05 -2.40039e-27)
(-0.001218 -7.05633e-05 0)
(-0.00120889 -6.67302e-05 -1.12447e-26)
(-0.00120194 -6.36619e-05 4.99071e-27)
(-0.00119662 -6.14511e-05 0)
(-0.00119233 -6.01451e-05 0)
(-0.00118837 -5.97127e-05 -8.60227e-27)
(-0.00118408 -6.00689e-05 1.98604e-26)
(-0.00117881 -6.10451e-05 0)
(-0.00117202 -6.24031e-05 -2.15623e-26)
(-0.00116338 -6.38745e-05 -2.05922e-26)
(-0.00115278 -6.51576e-05 -9.09063e-27)
(-0.00114036 -6.5972e-05 0)
(-0.00112658 -6.6079e-05 -5.25458e-27)
(-0.00111209 -6.53127e-05 8.2644e-27)
(-0.00109773 -6.35987e-05 0)
(-0.00108444 -6.09691e-05 4.17894e-27)
(-0.0010732 -5.76082e-05 -3.86907e-27)
(-0.00106485 -5.38056e-05 4.90248e-27)
(-0.00105993 -4.99522e-05 0)
(-0.00105859 -4.64789e-05 0)
(-0.00106052 -4.3773e-05 -8.2216e-27)
(-0.00106494 -4.21376e-05 0)
(-0.00107077 -4.17102e-05 -1.71576e-27)
(-0.00107675 -4.24455e-05 0)
(-0.00108159 -4.40833e-05 -5.05534e-27)
(-0.00108424 -4.61684e-05 0)
(-0.0010842 -4.8183e-05 0)
(-0.00108158 -4.9657e-05 1.19731e-26)
(-0.00107708 -5.02858e-05 -2.30468e-27)
(-0.00107174 -4.99715e-05 0)
(-0.00106672 -4.88561e-05 7.76377e-28)
(-0.00106298 -4.72955e-05 0)
(-0.00106104 -4.57864e-05 0)
(-0.0010607 -4.47239e-05 5.84337e-28)
(-0.00106126 -4.42973e-05 5.92967e-28)
(-0.00106176 -4.44561e-05 -9.67199e-28)
(-0.00106147 -4.48981e-05 0)
(-0.00105998 -4.52577e-05 0)
(-0.00105771 -4.51619e-05 0)
(-0.00105513 -4.46502e-05 0)
(-0.00105344 -4.3735e-05 0)
(-0.00105257 -4.29395e-05 -9.92347e-28)
(-0.00105192 -4.23937e-05 0)
(-0.0010562 -4.25587e-05 -3.33361e-28)
(-0.00104505 -4.31783e-05 0)
(-0.00105929 -4.4811e-05 1.6513e-27)
(-0.00102114 -4.62778e-05 0)
(-0.00104283 -4.98659e-05 0)
(-0.00096034 -5.29951e-05 0)
(-0.000971342 -6.00249e-05 0)
(-0.000813939 -6.58932e-05 0)
(-0.000770001 -7.6687e-05 0)
(-0.000482148 -8.47656e-05 8.99712e-27)
(-0.00030969 -9.60942e-05 0)
(0.000187423 -0.000103756 -8.58743e-27)
(0.000610319 -0.000104853 0)
(0.00141452 -0.000111047 6.71795e-27)
(0.0022397 -9.4982e-05 0)
(0.00356452 -0.00010334 0)
(0.00516764 -6.0418e-05 1.03282e-26)
(0.00745973 -4.47387e-05 -2.7598e-26)
(0.0104684 8.57776e-05 0)
(0.0140533 0.000226775 0)
(0.0183619 0.000533513 -2.22808e-26)
(0.0217641 0.000825868 0)
(0.0247719 0.00115744 2.69014e-26)
(-0.00835702 -0.00104248 0)
(-0.00815442 -0.00103581 3.00163e-26)
(-0.00794973 -0.00102725 7.38108e-26)
(-0.00774345 -0.00101695 0)
(-0.00753608 -0.001005 5.28896e-26)
(-0.00732813 -0.000991517 1.14134e-25)
(-0.00712005 -0.000976602 -6.04523e-26)
(-0.00691232 -0.000960349 6.78344e-26)
(-0.00670536 -0.000942865 7.12362e-26)
(-0.00649961 -0.000924256 0)
(-0.00629546 -0.000904639 7.58943e-26)
(-0.00609329 -0.000884128 7.72328e-26)
(-0.00589345 -0.000862836 7.79697e-26)
(-0.00569627 -0.000840869 7.54053e-26)
(-0.00550203 -0.000818327 7.78341e-26)
(-0.00531102 -0.000795301 7.706e-26)
(-0.00512349 -0.000771869 0)
(-0.0049397 -0.000748094 7.43194e-26)
(-0.0047599 -0.000724016 7.24619e-26)
(-0.0045843 -0.000699708 0)
(-0.00441313 -0.000675215 1.3373e-25)
(-0.00424661 -0.000650594 6.54385e-26)
(-0.00408493 -0.000625901 0)
(-0.00392829 -0.000601195 5.99735e-26)
(-0.00377689 -0.000576536 1.12307e-25)
(-0.0036309 -0.000551976 0)
(-0.00349046 -0.000527572 1.85883e-27)
(-0.00335572 -0.000503385 9.57088e-26)
(-0.00322678 -0.000479479 0)
(-0.00310375 -0.000455925 4.3681e-26)
(-0.00298668 -0.000432792 8.11407e-26)
(-0.00287565 -0.000410154 0)
(-0.00277064 -0.000388083 1.58866e-27)
(-0.00267166 -0.00036666 3.59569e-26)
(-0.00257865 -0.000345963 3.46648e-26)
(-0.00249152 -0.00032607 3.21709e-26)
(-0.00241017 -0.000307058 3.2919e-26)
(-0.00233441 -0.000288994 -3.10484e-26)
(-0.00226404 -0.000271945 6.31526e-26)
(-0.00219881 -0.000255972 3.23136e-26)
(-0.00213843 -0.000241128 3.25803e-26)
(-0.00208257 -0.000227459 3.17645e-26)
(-0.00203088 -0.000214998 3.36366e-26)
(-0.00198296 -0.000203756 1.18835e-27)
(-0.00193838 -0.000193738 0)
(-0.00189672 -0.00018493 7.06552e-26)
(-0.0018575 -0.000177295 3.65887e-26)
(-0.00182027 -0.000170777 0)
(-0.00178458 -0.0001653 3.7597e-26)
(-0.00174999 -0.000160754 7.46263e-26)
(-0.00171612 -0.000157003 0)
(-0.00168261 -0.00015388 3.70654e-26)
(-0.0016492 -0.0001512 7.15011e-26)
(-0.00161575 -0.000148765 -3.40511e-26)