/*--------------------------------*- C++ -*----------------------------------*\
| =========                 |                                                 |
| \\      /  F ield         | OpenFOAM: The Open Source CFD Toolbox           |
|  \\    /   O peration     | Version:  v1912                                 |
|   \\  /    A nd           | Website:  www.openfoam.com                      |
|    \\/     M anipulation  |                                                 |
\*---------------------------------------------------------------------------*/
FoamFile
{
    version     2.0;
    format      ascii;
    class       volVectorField;
    location    "100";
    object      U;
}
// * * * * * * * * * * * * * * * * * * * * * * * * * * * * * * * * * * * * * //

dimensions      [0 1 -1 0 0 0 0];


internalField   nonuniform List<vector> 
14268
(
(-0.825467 0.00227866 0)
(-0.856332 0.00248601 0)
(-0.886552 0.00259953 0)
(-0.917433 0.00259449 0)
(-0.947408 0.00245719 0)
(-0.974858 0.00218635 0)
(-0.998252 0.00179319 0)
(-1.01629 0.00129987 0)
(-1.028 0.000736879 0)
(-1.03283 0.000140499 0)
(-1.03063 -0.000451915 0)
(-1.02169 -0.00101138 0)
(-1.00661 -0.00150745 0)
(-0.986305 -0.00191941 0)
(-0.961837 -0.0022346 0)
(-0.934361 -0.00244817 0)
(-0.905032 -0.00256274 0)
(-0.874945 -0.00258817 0)
(-0.845083 -0.00254143 0)
(-0.816306 -0.00244476 0)
(-0.78933 -0.00230406 0)
(-0.764712 -0.00211055 0)
(-0.742858 -0.00187381 0)
(-0.724038 -0.0016079 0)
(-0.708402 -0.00132522 0)
(-0.695998 -0.00103591 0)
(-0.686794 -0.000747542 0)
(-0.680699 -0.000464912 0)
(-0.677597 -0.000190697 0)
(-0.677356 7.53009e-05 0)
(-0.679862 0.000313478 0)
(-0.685004 0.000548159 0)
(-0.69266 0.000766493 0)
(-0.702668 0.000959909 0)
(-0.71478 0.00111792 0)
(-0.728603 0.00123569 0)
(-0.743543 0.00130981 0)
(-0.758796 0.0013084 0)
(-0.773358 0.00120445 0)
(-0.78605 0.000979916 0)
(-0.795593 0.000628371 0)
(-0.800705 0.000175541 0)
(-0.800264 -0.000407145 0)
(-0.793391 -0.00106685 0)
(-0.77958 -0.00175909 0)
(-0.758793 -0.00243609 0)
(-0.731485 -0.00305022 0)
(-0.698562 -0.00355923 0)
(-0.661299 -0.00393154 0)
(-0.621204 -0.00415045 0)
(-0.579851 -0.00421676 0)
(-0.538709 -0.00414951 0)
(-0.498999 -0.00398457 0)
(-0.461584 -0.00376933 0)
(-0.426921 -0.00354277 0)
(-0.395046 -0.00332336 0)
(-0.365638 -0.00313467 0)
(-0.338141 -0.00299524 0)
(-0.311892 -0.0029127 0)
(-0.286244 -0.00288309 0)
(-0.26068 -0.00289369 0)
(-0.234875 -0.00292718 0)
(-0.20872 -0.00296577 0)
(-0.182296 -0.00299475 0)
(-0.155814 -0.003005 0)
(-0.129523 -0.00299397 0)
(-0.103621 -0.00296416 0)
(-0.0781731 -0.00292908 0)
(-0.0530673 -0.00290996 0)
(-0.0279685 -0.00292988 0)
(-0.00246314 -0.00301569 0)
(0.0238249 -0.00318176 0)
(0.0515589 -0.00340323 0)
(0.0814013 -0.00367761 0)
(0.113711 -0.00399208 0)
(0.148767 -0.00433249 0)
(0.18671 -0.00468611 0)
(0.227573 -0.00504491 0)
(0.271337 -0.00540758 0)
(0.318002 -0.0057799 0)
(0.367641 -0.00617316 0)
(0.420457 -0.00660039 0)
(0.476786 -0.00706921 0)
(0.537082 -0.00756779 0)
(0.601859 -0.00809322 0)
(0.671622 -0.00866738 0)
(0.74673 -0.00932057 0)
(0.827298 -0.010018 0)
(0.913185 -0.0106929 0)
(1.00394 -0.0112973 0)
(1.0988 -0.0117936 0)
(1.19671 -0.0121532 0)
(1.29643 -0.0123584 0)
(1.39665 -0.0124045 0)
(1.49608 -0.0122996 0)
(1.59357 -0.0120632 0)
(1.68818 -0.0117226 0)
(1.77925 -0.011308 0)
(1.86634 -0.0108483 0)
(1.94927 -0.0103661 0)
(2.02798 -0.00987459 0)
(2.10248 -0.00937686 0)
(2.17277 -0.00886549 0)
(2.23875 -0.00832477 0)
(2.30013 -0.00773395 0)
(2.3565 -0.00707113 0)
(2.40725 -0.0063171 0)
(2.45165 -0.00545865 0)
(2.48891 -0.00449078 0)
(2.51823 -0.00341775 0)
(2.53892 -0.00225325 0)
(2.55039 -0.00102071 0)
(2.55205 0.000264916 0)
(2.54421 0.00152795 0)
(2.52672 0.00282446 0)
(2.49983 0.00407466 0)
(2.46397 0.00525813 0)
(2.41981 0.00635445 0)
(2.36814 0.00734701 0)
(2.30981 0.00822471 0)
(2.24575 0.00898298 0)
(2.17683 0.00962567 0)
(2.10389 0.0101679 0)
(2.02766 0.0106379 0)
(1.9488 0.0110592 0)
(1.8679 0.0114196 0)
(1.78525 0.0117553 0)
(1.70095 0.0120869 0)
(1.61495 0.0124279 0)
(1.52711 0.0127864 0)
(1.43726 0.0131638 0)
(1.34529 0.0135538 0)
(1.25113 0.013944 0)
(1.15483 0.014318 0)
(1.05658 0.0146591 0)
(0.956668 0.0149542 0)
(0.855444 0.0151978 0)
(0.753269 0.0153935 0)
(0.650436 0.0155548 0)
(0.547101 0.0157032 0)
(0.443262 0.0158649 0)
(0.338768 0.0160653 0)
(0.233053 0.0163198 0)
(0.126413 0.0166511 0)
(0.017514 0.0170133 0)
(-0.0948766 0.0174337 0)
(-0.20961 0.0178745 0)
(-0.32653 0.0182908 0)
(-0.445333 0.0186332 0)
(-0.565429 0.0188732 0)
(-0.685911 0.0190154 0)
(-0.805787 0.0190734 0)
(-0.924179 0.0189643 0)
(-1.04038 0.0186286 0)
(-1.15374 0.0181907 0)
(-1.2638 0.0177122 0)
(-1.37046 0.0172431 0)
(-1.47394 0.0168305 0)
(-1.57469 0.0165099 0)
(-1.67333 0.0162989 0)
(-1.77041 0.0161931 0)
(-1.86679 0.0161722 0)
(-1.96157 0.0161987 0)
(-2.05885 0.0162526 0)
(-0.82484 0.0126152 0)
(-0.856122 0.0138334 0)
(-0.886488 0.0144829 0)
(-0.917537 0.0144407 0)
(-0.947688 0.0136439 0)
(-0.975306 0.0120975 0)
(-0.998844 0.0098742 0)
(-1.01699 0.00710582 0)
(-1.02876 0.0039677 0)
(-1.0336 0.000661415 0)
(-1.03138 -0.002613 0)
(-1.02237 -0.00567799 0)
(-1.00719 -0.00838064 0)
(-0.986765 -0.0106137 0)
(-0.962166 -0.0123145 0)
(-0.934559 -0.0134625 0)
(-0.905108 -0.0140733 0)
(-0.874914 -0.0141915 0)
(-0.844967 -0.0138832 0)
(-0.816121 -0.0132272 0)
(-0.789084 -0.0122892 0)
(-0.764412 -0.0111191 0)
(-0.742518 -0.00977167 0)
(-0.723675 -0.00830782 0)
(-0.708029 -0.0067849 0)
(-0.695627 -0.00525001 0)
(-0.686431 -0.00373812 0)
(-0.680349 -0.00227126 0)
(-0.67726 -0.000860995 0)
(-0.67704 0.000492156 0)
(-0.679563 0.00177765 0)
(-0.684719 0.00300179 0)
(-0.692398 0.00415907 0)
(-0.702441 0.00521258 0)
(-0.7146 0.00610845 0)
(-0.728481 0.00678336 0)
(-0.743503 0.00715492 0)
(-0.75887 0.00710426 0)
(-0.773571 0.00652396 0)
(-0.786415 0.00533759 0)
(-0.796104 0.00352576 0)
(-0.801355 0.0011175 0)
(-0.801031 -0.00183843 0)
(-0.79422 -0.00514774 0)
(-0.780412 -0.00859975 0)
(-0.759571 -0.0119571 0)
(-0.732152 -0.0149831 0)
(-0.699074 -0.0174702 0)
(-0.661627 -0.0192664 0)
(-0.62134 -0.0202949 0)
(-0.579808 -0.0205637 0)
(-0.538522 -0.0201636 0)
(-0.498716 -0.0192545 0)
(-0.461258 -0.0180409 0)
(-0.426594 -0.0167264 0)
(-0.39475 -0.0154791 0)
(-0.3654 -0.014438 0)
(-0.337977 -0.0136906 0)
(-0.3118 -0.0132622 0)
(-0.286212 -0.0131188 0)
(-0.260687 -0.0131824 0)
(-0.234897 -0.0133526 0)
(-0.208734 -0.0135299 0)
(-0.182289 -0.013636 0)
(-0.155778 -0.0136282 0)
(-0.129462 -0.0135057 0)
(-0.103547 -0.0133058 0)
(-0.0781073 -0.0131026 0)
(-0.0530358 -0.0129908 0)
(-0.0279976 -0.0130663 0)
(-0.00257266 -0.0134215 0)
(0.0236382 -0.0140973 0)
(0.0513085 -0.0150479 0)
(0.0810988 -0.0162424 0)
(0.113374 -0.0176174 0)
(0.148413 -0.019102 0)
(0.186351 -0.0206327 0)
(0.227217 -0.0221688 0)
(0.270982 -0.0237014 0)
(0.317636 -0.0252552 0)
(0.367251 -0.0268809 0)
(0.420027 -0.0286398 0)
(0.476313 -0.0305811 0)
(0.536568 -0.0327532 0)
(0.601298 -0.0351752 0)
(0.671001 -0.0378273 0)
(0.746062 -0.0406735 0)
(0.826637 -0.0435807 0)
(0.912588 -0.0463547 0)
(1.00346 -0.0488122 0)
(1.09846 -0.0507919 0)
(1.19655 -0.0521694 0)
(1.29645 -0.0528707 0)
(1.39685 -0.0528808 0)
(1.49644 -0.0522422 0)
(1.59406 -0.0510468 0)
(1.68878 -0.0494186 0)
(1.7799 -0.047494 0)
(1.86703 -0.0453997 0)
(1.94996 -0.043234 0)
(2.02867 -0.0410539 0)
(2.10318 -0.0388703 0)
(2.17348 -0.0366496 0)
(2.23949 -0.0343231 0)
(2.30094 -0.0318017 0)
(2.35739 -0.0289929 0)
(2.40824 -0.0258171 0)
(2.45274 -0.0222213 0)
(2.49011 -0.0181879 0)
(2.51953 -0.0137384 0)
(2.54029 -0.00893198 0)
(2.5518 -0.0038614 0)
(2.55347 0.00144251 0)
(2.54561 0.00656804 0)
(2.52807 0.0117843 0)
(2.5011 0.0167915 0)
(2.46513 0.0214986 0)
(2.42084 0.0258256 0)
(2.36903 0.029711 0)
(2.31056 0.0331169 0)
(2.24634 0.0360312 0)
(2.17729 0.0384699 0)
(2.10424 0.040479 0)
(2.02792 0.0421357 0)
(1.94899 0.0435341 0)
(1.86803 0.0447495 0)
(1.78536 0.0458734 0)
(1.70105 0.0469773 0)
(1.61505 0.0481172 0)
(1.52722 0.0493259 0)
(1.43739 0.0506071 0)
(1.34541 0.0519342 0)
(1.25122 0.0532557 0)
(1.15488 0.0545062 0)
(1.05657 0.0556202 0)
(0.956594 0.0565487 0)
(0.855304 0.0572716 0)
(0.753073 0.0578063 0)
(0.650204 0.0582083 0)
(0.54686 0.058563 0)
(0.443041 0.0589726 0)
(0.338588 0.059534 0)
(0.23293 0.0603095 0)
(0.126335 0.0613597 0)
(0.0174642 0.0625642 0)
(-0.0949146 0.06396 0)
(-0.209684 0.0653897 0)
(-0.32669 0.0666993 0)
(-0.445623 0.067715 0)
(-0.565863 0.0683234 0)
(-0.68648 0.0684854 0)
(-0.806505 0.0681785 0)
(-0.925082 0.0672714 0)
(-1.04143 0.0657795 0)
(-1.15484 0.0639622 0)
(-1.2649 0.0620154 0)
(-1.37151 0.0601169 0)
(-1.47491 0.0584211 0)
(-1.57557 0.0570349 0)
(-1.67413 0.0560015 0)
(-1.77115 0.0552957 0)
(-1.86749 0.05484 0)
(-1.96226 0.0545269 0)
(-2.05955 0.0542426 0)
(-0.823953 0.02252 0)
(-0.855616 0.0247445 0)
(-0.886322 0.0259281 0)
(-0.917761 0.025856 0)
(-0.948315 0.0244204 0)
(-0.976313 0.021636 0)
(-1.00018 0.0176382 0)
(-1.01856 0.0126676 0)
(-1.03048 0.00704199 0)
(-1.03535 0.00112306 0)
(-1.03306 -0.00473475 0)
(-1.02389 -0.0101968 0)
(-1.00849 -0.0150055 0)
(-0.987794 -0.0189705 0)
(-0.962907 -0.0219839 0)
(-0.935012 -0.0240124 0)
(-0.905289 -0.0250856 0)
(-0.874851 -0.0252796 0)
(-0.844694 -0.0247009 0)
(-0.815678 -0.0234723 0)
(-0.788507 -0.0217226 0)
(-0.763736 -0.0195786 0)
(-0.741771 -0.0171494 0)
(-0.722887 -0.0145371 0)
(-0.707227 -0.0118378 0)
(-0.694831 -0.00913055 0)
(-0.685656 -0.0064739 0)
(-0.679603 -0.00390452 0)
(-0.676547 -0.00144036 0)
(-0.676356 0.000920322 0)
(-0.67891 0.00319044 0)
(-0.6841 0.00535065 0)
(-0.691819 0.00739401 0)
(-0.701923 0.00927227 0)
(-0.714177 0.0108908 0)
(-0.728198 0.0121168 0)
(-0.743413 0.0127774 0)
(-0.759029 0.0126832 0)
(-0.774026 0.0116595 0)
(-0.787191 0.00958094 0)
(-0.797205 0.00639406 0)
(-0.802755 0.00212837 0)
(-0.802659 -0.00304077 0)
(-0.795975 -0.00881451 0)
(-0.782178 -0.0148304 0)
(-0.761222 -0.0206742 0)
(-0.733572 -0.0259323 0)
(-0.700169 -0.0302428 0)
(-0.662339 -0.0333422 0)
(-0.621651 -0.0350986 0)
(-0.579744 -0.0355277 0)
(-0.538148 -0.0347862 0)
(-0.498126 -0.033146 0)
(-0.460559 -0.0309504 0)
(-0.425888 -0.0285625 0)
(-0.394125 -0.0263101 0)
(-0.364916 -0.0244474 0)
(-0.337661 -0.0231249 0)
(-0.311647 -0.0223799 0)
(-0.286191 -0.0221452 0)
(-0.260747 -0.0222763 0)
(-0.234982 -0.0225896 0)
(-0.208798 -0.0229043 0)
(-0.182298 -0.0230799 0)
(-0.155722 -0.0230425 0)
(-0.129353 -0.0227961 0)
(-0.103417 -0.0224184 0)
(-0.0780011 -0.0220431 0)
(-0.0530024 -0.0218329 0)
(-0.0280836 -0.0219472 0)
(-0.0028089 -0.022531 0)
(0.0232509 -0.0236376 0)
(0.0507879 -0.0252248 0)
(0.0804714 -0.0272292 0)
(0.112676 -0.0295396 0)
(0.14768 -0.0320304 0)
(0.185613 -0.0345898 0)
(0.226485 -0.0371454 0)
(0.270254 -0.0396795 0)
(0.316892 -0.0422316 0)
(0.366462 -0.0448851 0)
(0.419163 -0.0477503 0)
(0.475339 -0.0509566 0)
(0.535455 -0.0546095 0)
(0.600051 -0.0587367 0)
(0.669656 -0.0632636 0)
(0.744673 -0.0680477 0)
(0.825278 -0.0728725 0)
(0.911347 -0.0774598 0)
(1.00242 -0.0815142 0)
(1.0977 -0.0847648 0)
(1.19611 -0.0870011 0)
(1.29636 -0.0880992 0)
(1.3971 -0.0880357 0)
(1.49699 -0.0868859 0)
(1.59486 -0.084808 0)
(1.68975 -0.0820149 0)
(1.78099 -0.0787385 0)
(1.86816 -0.075194 0)
(1.95111 -0.0715474 0)
(2.02981 -0.0678939 0)
(2.10432 -0.0642508 0)
(2.17466 -0.0605597 0)
(2.24073 -0.0567034 0)
(2.30229 -0.0525312 0)
(2.3589 -0.047887 0)
(2.40994 -0.0426371 0)
(2.45465 -0.0366934 0)
(2.49222 -0.0300273 0)
(2.52182 -0.0226755 0)
(2.54273 -0.0147368 0)
(2.55434 -0.00636298 0)
(2.55603 0.0024136 0)
(2.54815 0.0108228 0)
(2.53054 0.0193947 0)
(2.50344 0.0276176 0)
(2.46729 0.0353374 0)
(2.42279 0.0424239 0)
(2.37074 0.0487777 0)
(2.31203 0.0543389 0)
(2.24757 0.0590892 0)
(2.17829 0.0630525 0)
(2.10504 0.066292 0)
(2.02855 0.0689107 0)
(1.94951 0.0710788 0)
(1.86848 0.0730048 0)
(1.78578 0.0747922 0)
(1.70148 0.0765485 0)
(1.6155 0.0783664 0)
(1.52769 0.0803013 0)
(1.43788 0.082359 0)
(1.34591 0.0844953 0)
(1.2517 0.0866242 0)
(1.1553 0.0886368 0)
(1.05691 0.0904245 0)
(0.956823 0.0919056 0)
(0.855428 0.0930469 0)
(0.753112 0.0938769 0)
(0.650192 0.0944872 0)
(0.546844 0.0950191 0)
(0.443069 0.0956411 0)
(0.338701 0.0965133 0)
(0.233158 0.0977438 0)
(0.126667 0.0994236 0)
(0.0178816 0.101374 0)
(-0.094444 0.103663 0)
(-0.209237 0.106004 0)
(-0.326344 0.108166 0)
(-0.445449 0.109874 0)
(-0.565906 0.110946 0)
(-0.686768 0.111279 0)
(-0.807073 0.110726 0)
(-0.925928 0.109162 0)
(-1.04248 0.10677 0)
(-1.15601 0.103846 0)
(-1.26609 0.100698 0)
(-1.37264 0.0976273 0)
(-1.47592 0.0948969 0)
(-1.57642 0.0926914 0)
(-1.67481 0.0910868 0)
(-1.77169 0.0900438 0)
(-1.86795 0.0894268 0)
(-1.96267 0.0890556 0)
(-2.05995 0.0887178 0)
(-0.822653 0.0327515 0)
(-0.854797 0.0360393 0)
(-0.886048 0.0377992 0)
(-0.918107 0.0377152 0)
(-0.949305 0.0356297 0)
(-0.97791 0.0315651 0)
(-1.00229 0.0257221 0)
(-1.02106 0.0184558 0)
(-1.0332 0.0102339 0)
(-1.03812 0.00158748 0)
(-1.03572 -0.00696536 0)
(-1.02629 -0.0149257 0)
(-1.01054 -0.0219241 0)
(-0.989419 -0.0276845 0)
(-0.964075 -0.0320517 0)
(-0.935724 -0.0349805 0)
(-0.905571 -0.0365167 0)
(-0.874747 -0.0367729 0)
(-0.844259 -0.0359048 0)
(-0.814969 -0.0340905 0)
(-0.787584 -0.0315152 0)
(-0.762656 -0.0283611 0)
(-0.740587 -0.0248006 0)
(-0.721643 -0.0209898 0)
(-0.705965 -0.017065 0)
(-0.693582 -0.0131381 0)
(-0.684442 -0.00929262 0)
(-0.678436 -0.00558005 0)
(-0.67543 -0.00202333 0)
(-0.675284 0.00138567 0)
(-0.677882 0.00465811 0)
(-0.68312 0.0077985 0)
(-0.690901 0.0107758 0)
(-0.701098 0.0135226 0)
(-0.713499 0.0159031 0)
(-0.72774 0.0177165 0)
(-0.743262 0.0187084 0)
(-0.759272 0.0186022 0)
(-0.774735 0.0171408 0)
(-0.788413 0.0141338 0)
(-0.798947 0.0094912 0)
(-0.804964 0.00329442 0)
(-0.805223 -0.00420816 0)
(-0.798741 -0.0125969 0)
(-0.784961 -0.0213411 0)
(-0.763826 -0.029835 0)
(-0.735812 -0.0374725 0)
(-0.701896 -0.0437234 0)
(-0.663458 -0.0482021 0)
(-0.622136 -0.0507159 0)
(-0.579637 -0.0512888 0)
(-0.537551 -0.0501513 0)
(-0.497187 -0.0477026 0)
(-0.459447 -0.0444474 0)
(-0.424769 -0.0409194 0)
(-0.393138 -0.0376042 0)
(-0.364157 -0.0348753 0)
(-0.337173 -0.0329519 0)
(-0.311422 -0.0318852 0)
(-0.286175 -0.0315719 0)
(-0.26086 -0.0317954 0)
(-0.235135 -0.0322815 0)
(-0.208912 -0.0327611 0)
(-0.182321 -0.0330252 0)
(-0.155639 -0.0329646 0)
(-0.129184 -0.032587 0)
(-0.103213 -0.0320101 0)
(-0.0778355 -0.0314341 0)
(-0.0529527 -0.0310998 0)
(-0.028222 -0.0312405 0)
(-0.00318114 -0.0320601 0)
(0.0226415 -0.0336286 0)
(0.0499664 -0.0359033 0)
(0.079481 -0.0387851 0)
(0.111575 -0.0421084 0)
(0.146526 -0.0456861 0)
(0.184451 -0.0493517 0)
(0.225338 -0.0529964 0)
(0.269116 -0.0565924 0)
(0.315734 -0.0601968 0)
(0.365236 -0.0639438 0)
(0.417804 -0.0680197 0)
(0.473787 -0.0726181 0)
(0.533687 -0.0778633 0)
(0.598079 -0.0837826 0)
(0.667527 -0.0902881 0)
(0.742472 -0.0971707 0)
(0.823123 -0.10411 0)
(0.909375 -0.110705 0)
(1.00076 -0.11653 0)
(1.09648 -0.121192 0)
(1.19539 -0.124387 0)
(1.29619 -0.125936 0)
(1.39746 -0.125806 0)
(1.49782 -0.124109 0)
(1.59607 -0.121078 0)
(1.69124 -0.117025 0)
(1.78264 -0.112289 0)
(1.8699 -0.107185 0)
(1.95286 -0.101953 0)
(2.03155 -0.0967312 0)
(2.10606 -0.0915429 0)
(2.17644 -0.0863005 0)
(2.24262 -0.0808314 0)
(2.30436 -0.0749139 0)
(2.36122 -0.0683194 0)
(2.41256 -0.0608525 0)
(2.4576 -0.0523842 0)
(2.4955 -0.0428729 0)
(2.5254 -0.0323715 0)
(2.54653 -0.0210225 0)
(2.55831 -0.009045 0)
(2.56004 0.00349735 0)
(2.55213 0.0155799 0)
(2.53442 0.0277929 0)
(2.50712 0.039534 0)
(2.4707 0.0505539 0)
(2.42587 0.0606635 0)
(2.37346 0.069721 0)
(2.31436 0.0776403 0)
(2.24952 0.0843947 0)
(2.17988 0.090015 0)
(2.1063 0.0945882 0)
(2.02955 0.0982622 0)
(1.95035 0.101314 0)
(1.86924 0.104014 0)
(1.78649 0.106514 0)
(1.70218 0.108976 0)
(1.61624 0.111536 0)
(1.52849 0.114276 0)
(1.43872 0.117203 0)
(1.34676 0.120251 0)
(1.25251 0.123293 0)
(1.15602 0.126169 0)
(1.05749 0.128719 0)
(0.957238 0.130823 0)
(0.855676 0.132431 0)
(0.753221 0.133584 0)
(0.65022 0.134415 0)
(0.546865 0.135132 0)
(0.443164 0.13598 0)
(0.338934 0.137193 0)
(0.233577 0.138933 0)
(0.127251 0.141325 0)
(0.0186028 0.144128 0)
(-0.0936402 0.147427 0)
(-0.208479 0.150797 0)
(-0.325756 0.153909 0)
(-0.44514 0.156372 0)
(-0.565944 0.15792 0)
(-0.687218 0.158357 0)
(-0.807995 0.157436 0)
(-0.927291 0.155104 0)
(-1.04416 0.151629 0)
(-1.15787 0.147402 0)
(-1.26798 0.142855 0)
(-1.37443 0.138422 0)
(-1.47751 0.134482 0)
(-1.57776 0.131298 0)
(-1.6759 0.128974 0)
(-1.77257 0.127446 0)
(-1.86869 0.126513 0)
(-1.96338 0.125925 0)
(-2.06067 0.125356 0)
(-0.820889 0.0431991 0)
(-0.853649 0.0476155 0)
(-0.885654 0.0499994 0)
(-0.918576 0.0499265 0)
(-0.950667 0.0471852 0)
(-0.980115 0.0418054 0)
(-1.00521 0.0340568 0)
(-1.02451 0.0244152 0)
(-1.03696 0.0135071 0)
(-1.04195 0.00204301 0)
(-1.03938 -0.00928548 0)
(-1.02961 -0.0198227 0)
(-1.01336 -0.0290642 0)
(-0.991648 -0.0366534 0)
(-0.965672 -0.042389 0)
(-0.936692 -0.0462163 0)
(-0.905947 -0.0482008 0)
(-0.874592 -0.0484959 0)
(-0.843648 -0.0473107 0)
(-0.813984 -0.0448819 0)
(-0.786306 -0.0414541 0)
(-0.761163 -0.0372664 0)
(-0.738952 -0.0325491 0)
(-0.719932 -0.027513 0)
(-0.704232 -0.0223368 0)
(-0.691871 -0.0171679 0)
(-0.682782 -0.0121161 0)
(-0.676843 -0.0072482 0)
(-0.673905 -0.00259189 0)
(-0.673823 0.0018675 0)
(-0.676477 0.00614882 0)
(-0.681773 0.0102684 0)
(-0.689632 0.014197 0)
(-0.699954 0.017838 0)
(-0.712553 0.021013 0)
(-0.727094 0.0234545 0)
(-0.743037 0.0248209 0)
(-0.75959 0.0247397 0)
(-0.775701 0.0228614 0)
(-0.790091 0.0189229 0)
(-0.80134 0.0128168 0)
(-0.807997 0.00465431 0)
(-0.80875 -0.00525038 0)
(-0.802552 -0.0163452 0)
(-0.788798 -0.0279204 0)
(-0.767415 -0.0391662 0)
(-0.738897 -0.0492719 0)
(-0.704269 -0.057528 0)
(-0.664989 -0.0634187 0)
(-0.622787 -0.0666875 0)
(-0.579467 -0.0673679 0)
(-0.536705 -0.0657709 0)
(-0.495869 -0.0624334 0)
(-0.457894 -0.0580333 0)
(-0.423212 -0.0532876 0)
(-0.391771 -0.048848 0)
(-0.363114 -0.0452147 0)
(-0.336513 -0.0426774 0)
(-0.31113 -0.0412998 0)
(-0.286175 -0.0409363 0)
(-0.261038 -0.0412895 0)
(-0.235365 -0.0419854 0)
(-0.209083 -0.0426577 0)
(-0.182361 -0.0430233 0)
(-0.155524 -0.0429351 0)
(-0.128944 -0.0424054 0)
(-0.102924 -0.0415962 0)
(-0.0775976 -0.0407806 0)
(-0.0528754 -0.0402849 0)
(-0.0284042 -0.0404231 0)
(-0.00368317 -0.0414604 0)
(0.0218122 -0.043486 0)
(0.0488423 -0.0464583 0)
(0.0781244 -0.0502365 0)
(0.110068 -0.0545942 0)
(0.144951 -0.059276 0)
(0.182872 -0.0640543 0)
(0.223787 -0.06878 0)
(0.267586 -0.0734167 0)
(0.314178 -0.078052 0)
(0.363575 -0.0828789 0)
(0.415953 -0.0881506 0)
(0.471678 -0.0941028 0)
(0.53128 -0.100909 0)
(0.595385 -0.108618 0)
(0.664613 -0.117118 0)
(0.739458 -0.126129 0)
(0.820171 -0.135222 0)
(0.906669 -0.143865 0)
(0.99849 -0.151495 0)
(1.09479 -0.15759 0)
(1.1944 -0.161747 0)
(1.29594 -0.163728 0)
(1.39794 -0.163495 0)
(1.49894 -0.1612 0)
(1.59771 -0.157157 0)
(1.69325 -0.151784 0)
(1.78488 -0.145537 0)
(1.87223 -0.138834 0)
(1.9552 -0.131995 0)
(2.03387 -0.125204 0)
(2.10837 -0.118487 0)
(2.1788 -0.111725 0)
(2.24512 -0.104685 0)
(2.30711 -0.0970689 0)
(2.3643 -0.0885709 0)
(2.41606 -0.0789298 0)
(2.46155 -0.0679738 0)
(2.49989 -0.0556474 0)
(2.53019 -0.0420211 0)
(2.55165 -0.027283 0)
(2.56363 -0.0117218 0)
(2.56546 0.00456574 0)
(2.55749 0.0203631 0)
(2.53962 0.0361448 0)
(2.51206 0.0513545 0)
(2.47528 0.0656233 0)
(2.43001 0.0787001 0)
(2.37711 0.0903999 0)
(2.31749 0.10061 0)
(2.25214 0.109294 0)
(2.18201 0.116489 0)
(2.108 0.122309 0)
(2.03092 0.126972 0)
(1.95149 0.130857 0)
(1.87025 0.134247 0)
(1.78744 0.13737 0)
(1.70315 0.140454 0)
(1.61727 0.143684 0)
(1.5296 0.147168 0)
(1.43989 0.150913 0)
(1.34795 0.15483 0)
(1.25365 0.158749 0)
(1.15705 0.162453 0)
(1.05833 0.165728 0)
(0.957857 0.16841 0)
(0.85607 0.170431 0)
(0.753429 0.171845 0)
(0.650319 0.172828 0)
(0.546958 0.173655 0)
(0.443361 0.174654 0)
(0.339326 0.176138 0)
(0.23423 0.17833 0)
(0.128144 0.181386 0)
(0.0196992 0.185021 0)
(-0.0924207 0.189323 0)
(-0.207308 0.19373 0)
(-0.324797 0.197818 0)
(-0.444546 0.201077 0)
(-0.565828 0.203128 0)
(-0.687682 0.203641 0)
(-0.809086 0.202321 0)
(-0.928944 0.199223 0)
(-1.04623 0.194667 0)
(-1.16017 0.189133 0)
(-1.27032 0.183185 0)
(-1.37664 0.1774 0)
(-1.47944 0.172281 0)
(-1.57934 0.168176 0)
(-1.67713 0.165218 0)
(-1.77352 0.163325 0)
(-1.86946 0.162219 0)
(-1.96409 0.161559 0)
(-2.0614 0.160872 0)
(-0.818616 0.0538802 0)
(-0.852145 0.0595105 0)
(-0.885125 0.062581 0)
(-0.919162 0.0625506 0)
(-0.952409 0.0591485 0)
(-0.982947 0.0524121 0)
(-1.00897 0.0426846 0)
(-1.02895 0.0305719 0)
(-1.04179 0.0168702 0)
(-1.04687 0.00248089 0)
(-1.04409 -0.0117202 0)
(-1.03386 -0.024916 0)
(-1.01696 -0.0364618 0)
(-0.99449 -0.0459152 0)
(-0.9677 -0.0530311 0)
(-0.937911 -0.0577494 0)
(-0.906408 -0.0601608 0)
(-0.874375 -0.0604642 0)
(-0.842852 -0.0589264 0)
(-0.812711 -0.0558462 0)
(-0.784661 -0.0515301 0)
(-0.759246 -0.0462767 0)
(-0.736858 -0.0403747 0)
(-0.717744 -0.0340852 0)
(-0.702021 -0.027632 0)
(-0.689691 -0.0212003 0)
(-0.680672 -0.0149277 0)
(-0.674821 -0.00889668 0)
(-0.671974 -0.00313851 0)
(-0.671972 0.00237055 0)
(-0.674695 0.00766167 0)
(-0.680059 0.0127636 0)
(-0.68801 0.0176508 0)
(-0.69848 0.0222097 0)
(-0.711323 0.0262175 0)
(-0.726243 0.0293361 0)
(-0.742721 0.0311312 0)
(-0.75997 0.0311253 0)
(-0.776913 0.0288686 0)
(-0.79222 0.0240229 0)
(-0.80439 0.0164461 0)
(-0.811878 0.00626691 0)
(-0.813276 -0.00612564 0)
(-0.807448 -0.0200395 0)
(-0.793731 -0.0345736 0)
(-0.77203 -0.0486994 0)
(-0.742859 -0.0613856 0)
(-0.707309 -0.0717294 0)
(-0.666938 -0.079075 0)
(-0.623597 -0.0830973 0)
(-0.579214 -0.0838411 0)
(-0.535577 -0.0817057 0)
(-0.494136 -0.0773785 0)
(-0.455864 -0.0717267 0)
(-0.421187 -0.0656659 0)
(-0.390004 -0.0600271 0)
(-0.361777 -0.0554454 0)
(-0.335682 -0.0522829 0)
(-0.310781 -0.050614 0)
(-0.286207 -0.0502429 0)
(-0.261298 -0.0507798 0)
(-0.235686 -0.0517385 0)
(-0.20932 -0.0526448 0)
(-0.182418 -0.0531333 0)
(-0.155372 -0.0530156 0)
(-0.128623 -0.0523101 0)
(-0.102532 -0.0512283 0)
(-0.0772706 -0.0501248 0)
(-0.0527562 -0.0494219 0)
(-0.0286211 -0.0495234 0)
(-0.00431282 -0.0507615 0)
(0.0207576 -0.0532491 0)
(0.0474048 -0.0569434 0)
(0.0763876 -0.0616549 0)
(0.108141 -0.0670882 0)
(0.142943 -0.0729108 0)
(0.180869 -0.0788292 0)
(0.221829 -0.0846522 0)
(0.265661 -0.0903361 0)
(0.31222 -0.0959977 0)
(0.361487 -0.101884 0)
(0.413625 -0.108311 0)
(0.469015 -0.115595 0)
(0.52823 -0.123964 0)
(0.591958 -0.13349 0)
(0.660893 -0.144038 0)
(0.7356 -0.155253 0)
(0.816386 -0.166593 0)
(0.903199 -0.177384 0)
(0.995571 -0.186909 0)
(1.09263 -0.194509 0)
(1.19313 -0.199671 0)
(1.29563 -0.202098 0)
(1.39855 -0.201743 0)
(1.50038 -0.198804 0)
(1.59981 -0.193685 0)
(1.69581 -0.186921 0)
(1.78771 -0.179095 0)
(1.87517 -0.170739 0)
(1.95814 -0.162259 0)
(2.03676 -0.153885 0)
(2.11124 -0.145648 0)
(2.18173 -0.137391 0)
(2.24822 -0.128814 0)
(2.31052 -0.119532 0)
(2.36815 -0.109154 0)
(2.42043 -0.0973468 0)
(2.46651 -0.0838909 0)
(2.50542 -0.0687155 0)
(2.53624 -0.0519094 0)
(2.55811 -0.0337104 0)
(2.57037 -0.0144804 0)
(2.57232 0.00565832 0)
(2.56427 0.025198 0)
(2.54618 0.0447191 0)
(2.5183 0.0634643 0)
(2.48106 0.0810512 0)
(2.43524 0.097155 0)
(2.38171 0.111544 0)
(2.32145 0.124077 0)
(2.25544 0.134704 0)
(2.18469 0.143468 0)
(2.11014 0.150525 0)
(2.03264 0.156206 0)
(1.95294 0.160915 0)
(1.87152 0.164972 0)
(1.78865 0.168696 0)
(1.70438 0.17239 0)
(1.61858 0.176293 0)
(1.53102 0.180539 0)
(1.44141 0.18514 0)
(1.3495 0.189976 0)
(1.25515 0.194828 0)
(1.15839 0.199417 0)
(1.05944 0.203465 0)
(0.958681 0.206759 0)
(0.856601 0.209209 0)
(0.753718 0.21088 0)
(0.650466 0.211997 0)
(0.547098 0.21291 0)
(0.443637 0.214039 0)
(0.339859 0.215787 0)
(0.235105 0.218445 0)
(0.129337 0.222205 0)
(0.0211643 0.226737 0)
(-0.0907895 0.232128 0)
(-0.205732 0.237671 0)
(-0.323483 0.242835 0)
(-0.443694 0.246977 0)
(-0.565604 0.249583 0)
(-0.688222 0.250177 0)
(-0.810427 0.24846 0)
(-0.930992 0.244549 0)
(-1.04881 0.23883 0)
(-1.16305 0.23189 0)
(-1.27325 0.224439 0)
(-1.37938 0.217206 0)
(-1.48182 0.210834 0)
(-1.58127 0.20576 0)
(-1.6786 0.202152 0)
(-1.77463 0.199884 0)
(-1.87034 0.198583 0)
(-1.96491 0.197823 0)
(-2.06224 0.196985 0)
(-0.815791 0.0648359 0)
(-0.850254 0.0717882 0)
(-0.884441 0.075625 0)
(-0.919861 0.0756775 0)
(-0.954541 0.0716097 0)
(-0.986431 0.0634651 0)
(-1.0136 0.0516676 0)
(-1.03443 0.0369653 0)
(-1.04774 0.0203377 0)
(-1.05292 0.00289113 0)
(-1.04988 -0.0143015 0)
(-1.03907 -0.0302466 0)
(-1.02137 -0.0441657 0)
(-0.997954 -0.0555224 0)
(-0.970157 -0.0640307 0)
(-0.939373 -0.0696297 0)
(-0.906942 -0.072441 0)
(-0.874082 -0.0727153 0)
(-0.841852 -0.0707815 0)
(-0.811134 -0.0670048 0)
(-0.782634 -0.0617568 0)
(-0.756892 -0.0553974 0)
(-0.734292 -0.0482718 0)
(-0.715068 -0.0406946 0)
(-0.69932 -0.0329357 0)
(-0.687035 -0.0252194 0)
(-0.678107 -0.0177123 0)
(-0.67237 -0.0105126 0)
(-0.669635 -0.00365359 0)
(-0.669732 0.00290053 0)
(-0.672535 0.00919867 0)
(-0.677974 0.0152875 0)
(-0.686025 0.0211492 0)
(-0.696663 0.0266572 0)
(-0.709792 0.0315456 0)
(-0.725162 0.0354025 0)
(-0.742289 0.0376951 0)
(-0.760388 0.0378311 0)
(-0.778357 0.0352483 0)
(-0.794797 0.0295198 0)
(-0.808112 0.0204562 0)
(-0.816636 0.00819867 0)
(-0.81884 -0.00678305 0)
(-0.813481 -0.0236526 0)
(-0.799816 -0.0413003 0)
(-0.777723 -0.058461 0)
(-0.747741 -0.0738637 0)
(-0.711044 -0.0863949 0)
(-0.669313 -0.0952458 0)
(-0.624553 -0.100017 0)
(-0.578848 -0.100767 0)
(-0.534127 -0.0979931 0)
(-0.491941 -0.0925493 0)
(-0.453311 -0.0855111 0)
(-0.418655 -0.0780131 0)
(-0.38781 -0.0710814 0)
(-0.360135 -0.0654945 0)
(-0.33468 -0.0616983 0)
(-0.310389 -0.0597657 0)
(-0.286292 -0.0594433 0)
(-0.261664 -0.0602343 0)
(-0.236121 -0.0615247 0)
(-0.209638 -0.0627179 0)
(-0.182498 -0.0633563 0)
(-0.155177 -0.0632061 0)
(-0.128206 -0.0622932 0)
(-0.102019 -0.0608863 0)
(-0.0768332 -0.0594328 0)
(-0.0525768 -0.0584635 0)
(-0.0288604 -0.058484 0)
(-0.00506728 -0.0599003 0)
(0.0194726 -0.0628536 0)
(0.0456414 -0.0672974 0)
(0.0742549 -0.0729832 0)
(0.105779 -0.079541 0)
(0.140491 -0.086555 0)
(0.178432 -0.0936513 0)
(0.219461 -0.100589 0)
(0.263345 -0.107313 0)
(0.309878 -0.113967 0)
(0.358991 -0.12086 0)
(0.410834 -0.128398 0)
(0.465806 -0.136981 0)
(0.524533 -0.146907 0)
(0.587784 -0.158273 0)
(0.656344 -0.170923 0)
(0.730868 -0.184426 0)
(0.811734 -0.198115 0)
(0.898927 -0.211161 0)
(0.991977 -0.222681 0)
(1.08996 -0.231862 0)
(1.19158 -0.238074 0)
(1.29525 -0.240953 0)
(1.39931 -0.240444 0)
(1.50215 -0.236799 0)
(1.60239 -0.230521 0)
(1.69895 -0.222278 0)
(1.79117 -0.212789 0)
(1.87875 -0.202714 0)
(1.9617 -0.192554 0)
(2.04024 -0.182588 0)
(2.11467 -0.172848 0)
(2.18521 -0.163135 0)
(2.25192 -0.15307 0)
(2.31459 -0.142174 0)
(2.37275 -0.12996 0)
(2.42569 -0.116014 0)
(2.47247 -0.100063 0)
(2.5121 -0.0820213 0)
(2.54356 -0.0619968 0)
(2.56595 -0.0402809 0)
(2.57855 -0.0173155 0)
(2.58064 0.00674587 0)
(2.57252 0.0300618 0)
(2.55415 0.0534896 0)
(2.52586 0.0757968 0)
(2.48806 0.096735 0)
(2.44156 0.115891 0)
(2.38728 0.132981 0)
(2.32621 0.14783 0)
(2.25941 0.160374 0)
(2.1879 0.170668 0)
(2.1127 0.178947 0)
(2.03471 0.185629 0)
(1.95466 0.191095 0)
(1.87302 0.195749 0)
(1.79007 0.200009 0)
(1.70584 0.204257 0)
(1.62016 0.208792 0)
(1.53276 0.213782 0)
(1.44327 0.219236 0)
(1.35141 0.225007 0)
(1.257 0.230816 0)
(1.16007 0.236314 0)
(1.06082 0.241149 0)
(0.959702 0.245052 0)
(0.857256 0.247906 0)
(0.754068 0.249788 0)
(0.650637 0.250973 0)
(0.54726 0.251896 0)
(0.443971 0.253082 0)
(0.34052 0.255034 0)
(0.2362 0.258125 0)
(0.130843 0.262587 0)
(0.0230266 0.268052 0)
(-0.0887087 0.274588 0)
(-0.203704 0.28135 0)
(-0.321769 0.28768 0)
(-0.442552 0.292781 0)
(-0.565257 0.295969 0)
(-0.68883 0.296633 0)
(-0.812013 0.294498 0)
(-0.933442 0.289715 0)
(-1.05191 0.282743 0)
(-1.16651 0.274293 0)
(-1.27677 0.265236 0)
(-1.38266 0.256472 0)
(-1.48464 0.248791 0)
(-1.58351 0.242731 0)
(-1.68028 0.238485 0)
(-1.77586 0.235902 0)
(-1.8713 0.23452 0)
(-1.96582 0.233789 0)
(-2.06321 0.232857 0)
(-0.81236 0.076116 0)
(-0.847936 0.0845235 0)
(-0.883575 0.089225 0)
(-0.920664 0.0894114 0)
(-0.957076 0.0846721 0)
(-0.990598 0.0750565 0)
(-1.01915 0.0610775 0)
(-1.04099 0.0436408 0)
(-1.05488 0.0239264 0)
(-1.06016 0.00326289 0)
(-1.05679 -0.0170636 0)
(-1.04528 -0.0358691 0)
(-1.02661 -0.0522365 0)
(-1.00205 -0.065538 0)
(-0.973044 -0.0754483 0)
(-0.941072 -0.081912 0)
(-0.907535 -0.0850888 0)
(-0.873695 -0.0852884 0)
(-0.840632 -0.082908 0)
(-0.809235 -0.0783829 0)
(-0.780208 -0.0721518 0)
(-0.754084 -0.064638 0)
(-0.731238 -0.0562422 0)
(-0.71189 -0.047336 0)
(-0.696122 -0.0382382 0)
(-0.683897 -0.0292129 0)
(-0.675084 -0.0204565 0)
(-0.669488 -0.0120834 0)
(-0.666892 -0.00412731 0)
(-0.667105 0.00346381 0)
(-0.669999 0.0107627 0)
(-0.675515 0.0178414 0)
(-0.683668 0.024696 0)
(-0.694486 0.0311914 0)
(-0.707935 0.03702 0)
(-0.723825 0.0416924 0)
(-0.741712 0.0445685 0)
(-0.760821 0.0449288 0)
(-0.780016 0.0420835 0)
(-0.797821 0.0355007 0)
(-0.812521 0.0249317 0)
(-0.822305 0.0105255 0)
(-0.825495 -0.0071706 0)
(-0.820712 -0.0271581 0)
(-0.807118 -0.0481059 0)
(-0.784554 -0.0684894 0)
(-0.753592 -0.0867735 0)
(-0.715503 -0.101612 0)
(-0.672123 -0.112029 0)
(-0.625642 -0.117543 0)
(-0.578337 -0.118228 0)
(-0.532307 -0.11469 0)
(-0.489229 -0.107973 0)
(-0.450181 -0.0993826 0)
(-0.415571 -0.0902974 0)
(-0.385158 -0.0819588 0)
(-0.358172 -0.0753053 0)
(-0.333513 -0.070861 0)
(-0.309973 -0.068702 0)
(-0.286458 -0.0685005 0)
(-0.262166 -0.0696349 0)
(-0.236695 -0.0713437 0)
(-0.210053 -0.0728906 0)
(-0.182604 -0.0737131 0)
(-0.154931 -0.0735262 0)
(-0.127674 -0.0723661 0)
(-0.101358 -0.0705682 0)
(-0.0762584 -0.0686872 0)
(-0.0523145 -0.067378 0)
(-0.0291077 -0.0672624 0)
(-0.00594205 -0.06883 0)
(0.0179503 -0.0722539 0)
(0.0435377 -0.0774796 0)
(0.0717065 -0.084195 0)
(0.102958 -0.0919484 0)
(0.137572 -0.100217 0)
(0.175552 -0.108533 0)
(0.216684 -0.116596 0)
(0.260652 -0.124338 0)
(0.307168 -0.131938 0)
(0.356108 -0.139782 0)
(0.407598 -0.148373 0)
(0.462061 -0.158216 0)
(0.520189 -0.169686 0)
(0.582847 -0.182919 0)
(0.650936 -0.197737 0)
(0.725223 -0.21363 0)
(0.80617 -0.229793 0)
(0.893811 -0.245226 0)